/*--------------------------------*- C++ -*----------------------------------*\
  =========                 |
  \\      /  F ield         | OpenFOAM: The Open Source CFD Toolbox
   \\    /   O peration     | Website:  https://openfoam.org
    \\  /    A nd           | Version:  9
     \\/     M anipulation  |
\*---------------------------------------------------------------------------*/
FoamFile
{
    format      ascii;
    class       volScalarField;
    location    "0.13";
    object      alpha.water;
}
// * * * * * * * * * * * * * * * * * * * * * * * * * * * * * * * * * * * * * //

dimensions      [0 0 0 0 0 0 0];

internalField   nonuniform List<scalar> 
20000
(
2.89048e-319
2.77171e-319
2.65728e-319
2.54701e-319
2.44088e-319
2.33871e-319
2.24049e-319
2.14602e-319
2.05531e-319
1.96816e-319
1.88437e-319
1.80403e-319
1.72686e-319
1.65275e-319
1.5818e-319
1.51362e-319
1.44811e-319
1.38536e-319
1.32489e-319
1.26678e-319
1.21076e-319
1.15651e-319
1.10384e-319
1.05374e-319
1.01787e-319
1.04525e-319
1.08971e-319
9.2084e-320
8.12343e-320
7.61355e-320
6.18175e-320
6.07108e-320
6.03551e-320
7.23213e-320
7.61652e-320
6.01772e-320
5.92187e-320
5.92681e-320
6.02365e-320
7.46336e-320
7.08293e-320
6.03946e-320
5.99203e-320
6.03847e-320
6.04341e-320
6.20744e-320
1.40137e-319
6.23906e-320
6.09578e-320
6.12839e-320
6.10072e-320
6.2687e-320
1.44485e-319
6.2944e-320
6.14519e-320
6.19954e-320
6.22918e-320
6.24301e-320
6.24301e-320
6.23017e-320
6.20349e-320
6.16495e-320
6.11159e-320
6.02958e-320
6.02958e-320
1.46905e-319
1.4906e-319
6.04539e-320
6.00981e-320
6.08887e-320
7.46336e-320
7.84971e-320
8.23904e-320
8.64813e-320
9.26966e-320
1.02252e-319
1.02242e-319
1.0489e-319
1.0991e-319
1.15513e-319
1.21343e-319
1.27429e-319
1.33813e-319
1.40483e-319
1.47488e-319
1.5484e-319
1.62538e-319
1.70571e-319
1.78881e-319
1.87429e-319
1.96203e-319
2.05195e-319
2.14424e-319
2.2397e-319
2.33831e-319
2.44068e-319
2.54691e-319
2.65718e-319
2.77161e-319
2.89028e-319
2.89048e-319
2.77181e-319
2.65728e-319
2.54701e-319
2.44088e-319
2.33871e-319
2.24059e-319
2.14622e-319
2.05541e-319
1.96826e-319
1.88456e-319
1.80413e-319
1.72706e-319
1.65295e-319
1.582e-319
1.51382e-319
1.4484e-319
1.38576e-319
1.32548e-319
1.26757e-319
1.21204e-319
1.15849e-319
1.1073e-319
1.06007e-319
1.02815e-319
1.05038e-319
1.07153e-319
9.20741e-320
8.14023e-320
7.6264e-320
6.19163e-320
6.0859e-320
6.06713e-320
7.25486e-320
7.5345e-320
6.02859e-320
5.92286e-320
5.92879e-320
6.03946e-320
7.40506e-320
7.07502e-320
6.04341e-320
5.98808e-320
6.03551e-320
6.03946e-320
6.21535e-320
1.39781e-319
6.24301e-320
6.09479e-320
6.12938e-320
6.10369e-320
6.28649e-320
1.43645e-319
6.29934e-320
6.14222e-320
6.19756e-320
6.22918e-320
6.244e-320
6.24499e-320
6.23313e-320
6.20843e-320
6.17187e-320
6.12049e-320
6.04143e-320
6.05724e-320
1.46649e-319
1.47765e-319
6.05033e-320
6.00389e-320
6.08491e-320
7.45841e-320
7.84477e-320
8.23113e-320
8.64022e-320
9.2746e-320
1.02113e-319
1.02272e-319
1.04851e-319
1.09841e-319
1.15443e-319
1.21273e-319
1.2736e-319
1.33734e-319
1.40404e-319
1.47409e-319
1.54761e-319
1.62469e-319
1.70512e-319
1.78832e-319
1.87389e-319
1.96164e-319
2.05146e-319
2.14385e-319
2.2392e-319
2.33792e-319
2.44029e-319
2.54641e-319
2.65669e-319
2.77112e-319
2.88969e-319
2.89048e-319
2.77191e-319
2.65738e-319
2.54711e-319
2.44098e-319
2.33891e-319
2.24069e-319
2.14622e-319
2.05551e-319
1.96836e-319
1.88476e-319
1.80433e-319
1.72725e-319
1.65334e-319
1.58229e-319
1.51421e-319
1.449e-319
1.38635e-319
1.32627e-319
1.26876e-319
1.21362e-319
1.16086e-319
1.11096e-319
1.0658e-319
1.03635e-319
1.04969e-319
1.04999e-319
9.21531e-320
8.1837e-320
7.65011e-320
6.20744e-320
6.10369e-320
6.09677e-320
7.24004e-320
7.43272e-320
6.04934e-320
5.9278e-320
5.9357e-320
6.05922e-320
7.34182e-320
7.07502e-320
6.05724e-320
5.98412e-320
6.03254e-320
6.03748e-320
6.2272e-320
1.39307e-319
6.25191e-320
6.09479e-320
6.12938e-320
6.10863e-320
6.30428e-320
1.42518e-319
6.31021e-320
6.14321e-320
6.19756e-320
6.23017e-320
6.24499e-320
6.24894e-320
6.23708e-320
6.21337e-320
6.17977e-320
6.13037e-320
6.05626e-320
6.08491e-320
1.45868e-319
7.31217e-320
6.06515e-320
6.0029e-320
6.08294e-320
7.45644e-320
7.84181e-320
8.2252e-320
8.63528e-320
9.28448e-320
1.01955e-319
1.02351e-319
1.04801e-319
1.09742e-319
1.15354e-319
1.21204e-319
1.27291e-319
1.33665e-319
1.40344e-319
1.4735e-319
1.54722e-319
1.62429e-319
1.70472e-319
1.78792e-319
1.8735e-319
1.96114e-319
2.05097e-319
2.14336e-319
2.23871e-319
2.33733e-319
2.4397e-319
2.54582e-319
2.6561e-319
2.77042e-319
2.8889e-319
2.89068e-319
2.77191e-319
2.65748e-319
2.5472e-319
2.44108e-319
2.33901e-319
2.24088e-319
2.14642e-319
2.05571e-319
1.96856e-319
1.88496e-319
1.80462e-319
1.72755e-319
1.65364e-319
1.58269e-319
1.51471e-319
1.44959e-319
1.38704e-319
1.32726e-319
1.26995e-319
1.2152e-319
1.16303e-319
1.11402e-319
1.07054e-319
1.04218e-319
1.04544e-319
1.03062e-319
9.22519e-320
8.23904e-320
7.67976e-320
6.22523e-320
6.12147e-320
6.12049e-320
7.19557e-320
7.33786e-320
6.07305e-320
5.93669e-320
5.9446e-320
6.07898e-320
7.28253e-320
7.06909e-320
6.07108e-320
5.98412e-320
6.03155e-320
6.03946e-320
6.24104e-320
6.93668e-320
6.2608e-320
6.09479e-320
6.12839e-320
6.11554e-320
6.3191e-320
7.06514e-320
6.32009e-320
6.14618e-320
6.19855e-320
6.23214e-320
6.24894e-320
6.25191e-320
6.24203e-320
6.22029e-320
6.18768e-320
6.14124e-320
6.07009e-320
6.10863e-320
7.23905e-320
7.2351e-320
6.08096e-320
6.00487e-320
6.08491e-320
7.45644e-320
7.83983e-320
8.22026e-320
8.63429e-320
9.29634e-320
1.01797e-319
1.0241e-319
1.04742e-319
1.09623e-319
1.15256e-319
1.21125e-319
1.27232e-319
1.33605e-319
1.40295e-319
1.47311e-319
1.54682e-319
1.62409e-319
1.70453e-319
1.78773e-319
1.8732e-319
1.96085e-319
2.05057e-319
2.14296e-319
2.23832e-319
2.33693e-319
2.4391e-319
2.54523e-319
2.65541e-319
2.76963e-319
2.88811e-319
2.89068e-319
2.7721e-319
2.65768e-319
2.5474e-319
2.44128e-319
2.3392e-319
2.24108e-319
2.14662e-319
2.05591e-319
1.96885e-319
1.88526e-319
1.80492e-319
1.72795e-319
1.65403e-319
1.58318e-319
1.5152e-319
1.45018e-319
1.38773e-319
1.32805e-319
1.27093e-319
1.21659e-319
1.16501e-319
1.11679e-319
1.07449e-319
1.04604e-319
1.03991e-319
1.0154e-319
9.23013e-320
8.29437e-320
7.71335e-320
6.24301e-320
6.13827e-320
6.13827e-320
7.13628e-320
7.2598e-320
6.09776e-320
5.94756e-320
5.95547e-320
6.09973e-320
7.23213e-320
7.0513e-320
6.08294e-320
5.98412e-320
6.03155e-320
6.04341e-320
6.25586e-320
6.90506e-320
6.26673e-320
6.09677e-320
6.12839e-320
6.12246e-320
6.33195e-320
7.00585e-320
6.32997e-320
6.15112e-320
6.20052e-320
6.23511e-320
6.25289e-320
6.25685e-320
6.24697e-320
6.2272e-320
6.19558e-320
6.15112e-320
6.08294e-320
6.12641e-320
7.17976e-320
7.16099e-320
6.09479e-320
6.00981e-320
6.08689e-320
7.45841e-320
7.83983e-320
8.2173e-320
8.63528e-320
9.31017e-320
1.016e-319
1.0241e-319
1.04663e-319
1.09524e-319
1.15177e-319
1.21056e-319
1.27172e-319
1.33556e-319
1.40255e-319
1.47281e-319
1.54662e-319
1.62389e-319
1.70443e-319
1.78753e-319
1.873e-319
1.96055e-319
2.05037e-319
2.14266e-319
2.23782e-319
2.33634e-319
2.43861e-319
2.54464e-319
2.65471e-319
2.76894e-319
2.88712e-319
2.89088e-319
2.7722e-319
2.65778e-319
2.5475e-319
2.44147e-319
2.3393e-319
2.24128e-319
2.14681e-319
2.0562e-319
1.96915e-319
1.88555e-319
1.80532e-319
1.72824e-319
1.65443e-319
1.58358e-319
1.51579e-319
1.45077e-319
1.38852e-319
1.32894e-319
1.27212e-319
1.21797e-319
1.16669e-319
1.11906e-319
1.07756e-319
1.04831e-319
1.03457e-319
1.00414e-319
9.22915e-320
8.34576e-320
7.74695e-320
6.2608e-320
6.15606e-320
6.15211e-320
7.07304e-320
7.19952e-320
6.12444e-320
5.96041e-320
5.96634e-320
6.1195e-320
7.18767e-320
7.02067e-320
6.09084e-320
5.98412e-320
6.03155e-320
6.04835e-320
6.27068e-320
6.87147e-320
6.27266e-320
6.09973e-320
6.12839e-320
6.12839e-320
6.3438e-320
6.9515e-320
6.33787e-320
6.15803e-320
6.20349e-320
6.23906e-320
6.25685e-320
6.2608e-320
6.25289e-320
6.23313e-320
6.20349e-320
6.16001e-320
6.09282e-320
6.14025e-320
7.11751e-320
7.09083e-320
6.10665e-320
6.01673e-320
6.09183e-320
7.46138e-320
7.83983e-320
8.21532e-320
8.64022e-320
9.32401e-320
1.01382e-319
1.0238e-319
1.04604e-319
1.09436e-319
1.15098e-319
1.21007e-319
1.27133e-319
1.33526e-319
1.40236e-319
1.47271e-319
1.54662e-319
1.62399e-319
1.70443e-319
1.78753e-319
1.8729e-319
1.96035e-319
2.04998e-319
2.14227e-319
2.23743e-319
2.33594e-319
2.43812e-319
2.54404e-319
2.65402e-319
2.76815e-319
2.88633e-319
2.89098e-319
2.7723e-319
2.65788e-319
2.5476e-319
2.44157e-319
2.3395e-319
2.24148e-319
2.14711e-319
2.0565e-319
1.96935e-319
1.88585e-319
1.80561e-319
1.72864e-319
1.65492e-319
1.58417e-319
1.51629e-319
1.45137e-319
1.38921e-319
1.32983e-319
1.27311e-319
1.21916e-319
1.16817e-319
1.12113e-319
1.08003e-319
1.04959e-319
1.02983e-319
9.95641e-320
9.22322e-320
8.39121e-320
7.78055e-320
6.28056e-320
6.17384e-320
6.16396e-320
7.01079e-320
7.15012e-320
6.15013e-320
5.97325e-320
5.97622e-320
6.13827e-320
7.14419e-320
6.98016e-320
6.09479e-320
5.98709e-320
6.03353e-320
6.05527e-320
6.28452e-320
6.83589e-320
6.27661e-320
6.10468e-320
6.13037e-320
6.1363e-320
6.3527e-320
6.90309e-320
6.3438e-320
6.16495e-320
6.20744e-320
6.24301e-320
6.2608e-320
6.26673e-320
6.25882e-320
6.24104e-320
6.21139e-320
6.16792e-320
6.1027e-320
6.15112e-320
7.05723e-320
7.0266e-320
6.11653e-320
6.02464e-320
6.09677e-320
7.46632e-320
7.84379e-320
8.2173e-320
8.64813e-320
9.33586e-320
1.01125e-319
1.02321e-319
1.04564e-319
1.09366e-319
1.15048e-319
1.20967e-319
1.27103e-319
1.33506e-319
1.40216e-319
1.47271e-319
1.54672e-319
1.62409e-319
1.70463e-319
1.78773e-319
1.8729e-319
1.96025e-319
2.04978e-319
2.14197e-319
2.23713e-319
2.33555e-319
2.43762e-319
2.54355e-319
2.65353e-319
2.76746e-319
2.88564e-319
2.89107e-319
2.7724e-319
2.65797e-319
2.5478e-319
2.44167e-319
2.3397e-319
2.24158e-319
2.14721e-319
2.0567e-319
1.96964e-319
1.88615e-319
1.80591e-319
1.72903e-319
1.65532e-319
1.58457e-319
1.51678e-319
1.45196e-319
1.38991e-319
1.33062e-319
1.274e-319
1.22024e-319
1.16965e-319
1.12291e-319
1.082e-319
1.05019e-319
1.02578e-319
9.89119e-320
9.21729e-320
8.43172e-320
7.81414e-320
6.29934e-320
6.19163e-320
6.17384e-320
6.95249e-320
7.10466e-320
6.17384e-320
5.98412e-320
5.9861e-320
6.15507e-320
7.10071e-320
6.93471e-320
6.09578e-320
5.99104e-320
6.03551e-320
6.06317e-320
6.29637e-320
6.80032e-320
6.27957e-320
6.10962e-320
6.13234e-320
6.14321e-320
6.36159e-320
6.85961e-320
6.34874e-320
6.17187e-320
6.21139e-320
6.24697e-320
6.26673e-320
6.27167e-320
6.26475e-320
6.24697e-320
6.2193e-320
6.17582e-320
6.1106e-320
6.16001e-320
6.99992e-320
6.96731e-320
6.12444e-320
6.03254e-320
6.1027e-320
7.47225e-320
7.84774e-320
8.21928e-320
8.65702e-320
9.34476e-320
1.00839e-319
1.02242e-319
1.04544e-319
1.09327e-319
1.15018e-319
1.20947e-319
1.27093e-319
1.33516e-319
1.40236e-319
1.47291e-319
1.54702e-319
1.62449e-319
1.70492e-319
1.78792e-319
1.8731e-319
1.96025e-319
2.04978e-319
2.14187e-319
2.23693e-319
2.33535e-319
2.43732e-319
2.54315e-319
2.65293e-319
2.76697e-319
2.88495e-319
2.89088e-319
2.7723e-319
2.65788e-319
2.5478e-319
2.44167e-319
2.3397e-319
2.24167e-319
2.14741e-319
2.05689e-319
1.96984e-319
1.88634e-319
1.80621e-319
1.72933e-319
1.65561e-319
1.58496e-319
1.51728e-319
1.45245e-319
1.3905e-319
1.33121e-319
1.27489e-319
1.22133e-319
1.17094e-319
1.12449e-319
1.08358e-319
1.05038e-319
1.02232e-319
9.8408e-320
9.21136e-320
8.46631e-320
7.84675e-320
6.31811e-320
6.20744e-320
6.18175e-320
6.89716e-320
7.06316e-320
6.1946e-320
5.994e-320
5.994e-320
6.1689e-320
7.05526e-320
6.88629e-320
6.09677e-320
5.99697e-320
6.04045e-320
6.07305e-320
6.30823e-320
6.76672e-320
6.28254e-320
6.11653e-320
6.13531e-320
6.15112e-320
6.36851e-320
6.82107e-320
6.35368e-320
6.17977e-320
6.21633e-320
6.25191e-320
6.27068e-320
6.27661e-320
6.27068e-320
6.25289e-320
6.22523e-320
6.18373e-320
6.11851e-320
6.16594e-320
6.94656e-320
6.91297e-320
6.13135e-320
6.03946e-320
6.10863e-320
7.47818e-320
7.85169e-320
8.22422e-320
8.66789e-320
9.35069e-320
1.00552e-319
1.02153e-319
1.04544e-319
1.09327e-319
1.15009e-319
1.20947e-319
1.27113e-319
1.33536e-319
1.40255e-319
1.4733e-319
1.54741e-319
1.62488e-319
1.70532e-319
1.78822e-319
1.8733e-319
1.96045e-319
2.04978e-319
2.14187e-319
2.23683e-319
2.33515e-319
2.43713e-319
2.54286e-319
2.65274e-319
2.76657e-319
2.88455e-319
2.89068e-319
2.7721e-319
2.65778e-319
2.5476e-319
2.44167e-319
2.3397e-319
2.24167e-319
2.14741e-319
2.05689e-319
1.96994e-319
1.88654e-319
1.8064e-319
1.72963e-319
1.65591e-319
1.58536e-319
1.51767e-319
1.45295e-319
1.39109e-319
1.3319e-319
1.27568e-319
1.22222e-319
1.17202e-319
1.12568e-319
1.08467e-319
1.05028e-319
1.01955e-319
9.80029e-320
9.20345e-320
8.49595e-320
7.87738e-320
6.3359e-320
6.22325e-320
6.18768e-320
6.84577e-320
7.01968e-320
6.21139e-320
6.00389e-320
6.00092e-320
6.17977e-320
7.00783e-320
6.83886e-320
6.09677e-320
6.00389e-320
6.04638e-320
6.08294e-320
6.31811e-320
6.73609e-320
6.2855e-320
6.12246e-320
6.14025e-320
6.15902e-320
6.37542e-320
6.78649e-320
6.35764e-320
6.18669e-320
6.22127e-320
6.25685e-320
6.27661e-320
6.28254e-320
6.27661e-320
6.25882e-320
6.23214e-320
6.18965e-320
6.12641e-320
6.17187e-320
6.89716e-320
6.86158e-320
6.1363e-320
6.04736e-320
6.11456e-320
7.48509e-320
7.85762e-320
8.23015e-320
8.67777e-320
9.35365e-320
1.00256e-319
1.02074e-319
1.04584e-319
1.09337e-319
1.15018e-319
1.20967e-319
1.27133e-319
1.33566e-319
1.40305e-319
1.4739e-319
1.54801e-319
1.62548e-319
1.70591e-319
1.78872e-319
1.87369e-319
1.96065e-319
2.04998e-319
2.14187e-319
2.23693e-319
2.33515e-319
2.43713e-319
2.54286e-319
2.65254e-319
2.76637e-319
2.88436e-319
2.89028e-319
2.77181e-319
2.65748e-319
2.5474e-319
2.44147e-319
2.3396e-319
2.24158e-319
2.14741e-319
2.05689e-319
1.97004e-319
1.88654e-319
1.8065e-319
1.72982e-319
1.65611e-319
1.58556e-319
1.51797e-319
1.45334e-319
1.39149e-319
1.3325e-319
1.27627e-319
1.22301e-319
1.17291e-319
1.12686e-319
1.08556e-319
1.04999e-319
1.01698e-319
9.76669e-320
9.19654e-320
8.52066e-320
7.90505e-320
6.35368e-320
6.23708e-320
6.19262e-320
6.79736e-320
6.97818e-320
6.22523e-320
6.01179e-320
6.00784e-320
6.18768e-320
6.95842e-320
6.79439e-320
6.09973e-320
6.01278e-320
6.05329e-320
6.09479e-320
6.32602e-320
6.70744e-320
6.28847e-320
6.13037e-320
6.1442e-320
6.16792e-320
6.38036e-320
6.75585e-320
6.3606e-320
6.1946e-320
6.22622e-320
6.26179e-320
6.28155e-320
6.28748e-320
6.28254e-320
6.26475e-320
6.23708e-320
6.19558e-320
6.13234e-320
6.17582e-320
6.8517e-320
6.81415e-320
6.14025e-320
6.05527e-320
6.12049e-320
7.49201e-320
7.86355e-320
8.23706e-320
8.68963e-320
9.35464e-320
9.99791e-320
1.02005e-319
1.04623e-319
1.09386e-319
1.15058e-319
1.21007e-319
1.27172e-319
1.33615e-319
1.40364e-319
1.47449e-319
1.5488e-319
1.62627e-319
1.7065e-319
1.78931e-319
1.87409e-319
1.96105e-319
2.05037e-319
2.14217e-319
2.23713e-319
2.33535e-319
2.43713e-319
2.54286e-319
2.65254e-319
2.76637e-319
2.88426e-319
2.88969e-319
2.77131e-319
2.65709e-319
2.54701e-319
2.44108e-319
2.3393e-319
2.24138e-319
2.14721e-319
2.05689e-319
1.96994e-319
1.88654e-319
1.8066e-319
1.72982e-319
1.65631e-319
1.58575e-319
1.51836e-319
1.45374e-319
1.39188e-319
1.33299e-319
1.27686e-319
1.2237e-319
1.1738e-319
1.12766e-319
1.08615e-319
1.04959e-319
1.01481e-319
9.73705e-320
9.18962e-320
8.54141e-320
7.92975e-320
6.36949e-320
6.24894e-320
6.19558e-320
6.75289e-320
6.93471e-320
6.2361e-320
6.0197e-320
6.01574e-320
6.19163e-320
6.90901e-320
6.75585e-320
6.10468e-320
6.02266e-320
6.06317e-320
6.10566e-320
6.33392e-320
6.68076e-320
6.28946e-320
6.13827e-320
6.15013e-320
6.17582e-320
6.3853e-320
6.72917e-320
6.36455e-320
6.2025e-320
6.23116e-320
6.26673e-320
6.28649e-320
6.29242e-320
6.28649e-320
6.26969e-320
6.24301e-320
6.20151e-320
6.13827e-320
6.17878e-320
6.80921e-320
6.7687e-320
6.14222e-320
6.06219e-320
6.12641e-320
7.49794e-320
7.86948e-320
8.24299e-320
8.69951e-320
9.35365e-320
9.97123e-320
1.01936e-319
1.04683e-319
1.09445e-319
1.15117e-319
1.21066e-319
1.27232e-319
1.33674e-319
1.40433e-319
1.47528e-319
1.54959e-319
1.62706e-319
1.70729e-319
1.79e-319
1.87468e-319
1.96164e-319
2.05077e-319
2.14257e-319
2.23743e-319
2.33565e-319
2.43752e-319
2.54315e-319
2.65284e-319
2.76657e-319
2.88455e-319
2.8888e-319
2.77052e-319
2.65639e-319
2.54641e-319
2.44068e-319
2.33891e-319
2.24108e-319
2.14701e-319
2.0566e-319
1.96984e-319
1.88654e-319
1.8065e-319
1.72982e-319
1.65631e-319
1.58595e-319
1.51846e-319
1.45394e-319
1.39228e-319
1.33338e-319
1.27736e-319
1.22429e-319
1.17449e-319
1.12845e-319
1.08655e-319
1.049e-319
1.01283e-319
9.71333e-320
9.18073e-320
8.55722e-320
7.95248e-320
6.38333e-320
6.25784e-320
6.19756e-320
6.71139e-320
6.89518e-320
6.24499e-320
6.0276e-320
6.02167e-320
6.19163e-320
6.86158e-320
6.72127e-320
6.1106e-320
6.03353e-320
6.07207e-320
6.11653e-320
6.34183e-320
6.65605e-320
6.29044e-320
6.14519e-320
6.15606e-320
6.18471e-320
6.38926e-320
6.70447e-320
6.36851e-320
6.21139e-320
6.23708e-320
6.27167e-320
6.29044e-320
6.29637e-320
6.29143e-320
6.27463e-320
6.24697e-320
6.20546e-320
6.14124e-320
6.17977e-320
6.7687e-320
6.72621e-320
6.14321e-320
6.0691e-320
6.13234e-320
7.50486e-320
7.87541e-320
8.24991e-320
8.7084e-320
9.35069e-320
9.94653e-320
1.01876e-319
1.04762e-319
1.09524e-319
1.15177e-319
1.21125e-319
1.27311e-319
1.33753e-319
1.40512e-319
1.47607e-319
1.55058e-319
1.62805e-319
1.70828e-319
1.79079e-319
1.87547e-319
1.96223e-319
2.05136e-319
2.14316e-319
2.23792e-319
2.33614e-319
2.43802e-319
2.54365e-319
2.65333e-319
2.76716e-319
2.88495e-319
2.88771e-319
2.76953e-319
2.6555e-319
2.54572e-319
2.43999e-319
2.33831e-319
2.24049e-319
2.14662e-319
2.0563e-319
1.96954e-319
1.88634e-319
1.8064e-319
1.72982e-319
1.65631e-319
1.58595e-319
1.51856e-319
1.45413e-319
1.39247e-319
1.33368e-319
1.27775e-319
1.22479e-319
1.17509e-319
1.12884e-319
1.08675e-319
1.04831e-319
1.01106e-319
9.6906e-320
9.17183e-320
8.56907e-320
7.97224e-320
6.39716e-320
6.26574e-320
6.19954e-320
6.67582e-320
6.85763e-320
6.25289e-320
6.03649e-320
6.02958e-320
6.19163e-320
6.81811e-320
6.69163e-320
6.11851e-320
6.0444e-320
6.08195e-320
6.12839e-320
6.34776e-320
6.63333e-320
6.29242e-320
6.15211e-320
6.16001e-320
6.19163e-320
6.39321e-320
6.68372e-320
6.37345e-320
6.2193e-320
6.24203e-320
6.27562e-320
6.2944e-320
6.30131e-320
6.29637e-320
6.27859e-320
6.25092e-320
6.20843e-320
6.1442e-320
6.18175e-320
6.73115e-320
6.68767e-320
6.1442e-320
6.07503e-320
6.13827e-320
7.51177e-320
7.88035e-320
8.25683e-320
8.71729e-320
9.34772e-320
9.92578e-320
1.01837e-319
1.04841e-319
1.09604e-319
1.15256e-319
1.21204e-319
1.2739e-319
1.33833e-319
1.40611e-319
1.47706e-319
1.55156e-319
1.62903e-319
1.70927e-319
1.79168e-319
1.87626e-319
1.96302e-319
2.05215e-319
2.14385e-319
2.23871e-319
2.33693e-319
2.43871e-319
2.54444e-319
2.65412e-319
2.76785e-319
2.88574e-319
2.88643e-319
2.76835e-319
2.65452e-319
2.54483e-319
2.4391e-319
2.33752e-319
2.2399e-319
2.14602e-319
2.05581e-319
1.96915e-319
1.88595e-319
1.80611e-319
1.72963e-319
1.65621e-319
1.58595e-319
1.51856e-319
1.45413e-319
1.39257e-319
1.33388e-319
1.27805e-319
1.22509e-319
1.17548e-319
1.12924e-319
1.08675e-319
1.04762e-319
1.00928e-319
9.66985e-320
9.16195e-320
8.57797e-320
7.98904e-320
6.40902e-320
6.27266e-320
6.2025e-320
6.64617e-320
6.82403e-320
6.25882e-320
6.04539e-320
6.03748e-320
6.19064e-320
6.77759e-320
6.66593e-320
6.12641e-320
6.05527e-320
6.09084e-320
6.13827e-320
6.35171e-320
6.61257e-320
6.29242e-320
6.15803e-320
6.16594e-320
6.19954e-320
6.39716e-320
6.66692e-320
6.37839e-320
6.2272e-320
6.24697e-320
6.27957e-320
6.29835e-320
6.30428e-320
6.29934e-320
6.28155e-320
6.25289e-320
6.21041e-320
6.14618e-320
6.18175e-320
6.69558e-320
6.6521e-320
6.14519e-320
6.08195e-320
6.1442e-320
7.5177e-320
7.88529e-320
8.26275e-320
8.7252e-320
9.34476e-320
9.907e-320
1.01797e-319
1.0492e-319
1.09702e-319
1.15335e-319
1.21283e-319
1.27469e-319
1.33931e-319
1.4071e-319
1.47815e-319
1.55265e-319
1.63012e-319
1.71026e-319
1.79267e-319
1.87725e-319
1.96391e-319
2.05294e-319
2.14474e-319
2.2395e-319
2.33772e-319
2.4397e-319
2.54543e-319
2.65511e-319
2.76894e-319
2.88692e-319
2.88485e-319
2.76697e-319
2.65323e-319
2.54365e-319
2.43812e-319
2.33673e-319
2.23911e-319
2.14533e-319
2.05521e-319
1.96865e-319
1.88555e-319
1.80581e-319
1.72933e-319
1.65591e-319
1.58575e-319
1.51846e-319
1.45413e-319
1.39267e-319
1.33398e-319
1.27825e-319
1.22538e-319
1.17568e-319
1.12943e-319
1.08665e-319
1.04683e-319
1.0077e-319
9.65108e-320
9.15207e-320
8.5839e-320
8.00386e-320
6.41989e-320
6.27859e-320
6.20546e-320
6.62246e-320
6.79241e-320
6.26376e-320
6.05329e-320
6.04341e-320
6.18867e-320
6.74202e-320
6.64419e-320
6.13432e-320
6.06416e-320
6.09875e-320
6.14815e-320
6.35665e-320
6.5938e-320
6.29242e-320
6.16396e-320
6.16989e-320
6.20645e-320
6.40111e-320
6.65408e-320
6.38333e-320
6.23511e-320
6.25092e-320
6.28254e-320
6.3023e-320
6.30823e-320
6.3023e-320
6.28452e-320
6.25487e-320
6.21139e-320
6.14618e-320
6.18175e-320
6.66198e-320
6.62147e-320
6.14618e-320
6.08887e-320
6.14914e-320
7.52363e-320
7.89122e-320
8.26967e-320
8.7331e-320
9.34179e-320
9.88922e-320
1.01778e-319
1.05019e-319
1.09801e-319
1.15414e-319
1.21362e-319
1.27558e-319
1.3402e-319
1.40809e-319
1.47923e-319
1.55374e-319
1.63131e-319
1.71144e-319
1.79385e-319
1.87834e-319
1.965e-319
2.05393e-319
2.14583e-319
2.24069e-319
2.33891e-319
2.44088e-319
2.54661e-319
2.65639e-319
2.77032e-319
2.88831e-319
2.88297e-319
2.76538e-319
2.65175e-319
2.54226e-319
2.43693e-319
2.33555e-319
2.23812e-319
2.14444e-319
2.05442e-319
1.96796e-319
1.88496e-319
1.80532e-319
1.72883e-319
1.65571e-319
1.58546e-319
1.51826e-319
1.45394e-319
1.39247e-319
1.33398e-319
1.27825e-319
1.22548e-319
1.17588e-319
1.12943e-319
1.08635e-319
1.04594e-319
1.00612e-319
9.63329e-320
9.14219e-320
8.58686e-320
8.01572e-320
6.42878e-320
6.28254e-320
6.20942e-320
6.60269e-320
6.76475e-320
6.26673e-320
6.0612e-320
6.04934e-320
6.18768e-320
6.7104e-320
6.62246e-320
6.14124e-320
6.07305e-320
6.10665e-320
6.15705e-320
6.35961e-320
6.577e-320
6.2944e-320
6.16989e-320
6.17384e-320
6.21238e-320
6.40606e-320
6.64321e-320
6.38926e-320
6.24301e-320
6.25388e-320
6.28649e-320
6.30428e-320
6.31218e-320
6.30625e-320
6.28748e-320
6.25685e-320
6.21238e-320
6.14618e-320
6.17977e-320
6.63135e-320
6.59479e-320
6.15013e-320
6.09479e-320
6.15408e-320
7.52857e-320
7.89715e-320
8.27659e-320
8.74002e-320
9.33982e-320
9.87538e-320
1.01778e-319
1.05108e-319
1.099e-319
1.15513e-319
1.21461e-319
1.27647e-319
1.34129e-319
1.40917e-319
1.48042e-319
1.55502e-319
1.63259e-319
1.71263e-319
1.79504e-319
1.87943e-319
1.96618e-319
2.05512e-319
2.14701e-319
2.24187e-319
2.34019e-319
2.44227e-319
2.548e-319
2.65788e-319
2.77191e-319
2.89009e-319
2.8809e-319
2.76341e-319
2.64997e-319
2.54068e-319
2.43555e-319
2.33436e-319
2.23703e-319
2.14345e-319
2.05353e-319
1.96717e-319
1.88427e-319
1.80472e-319
1.72844e-319
1.65522e-319
1.58506e-319
1.51797e-319
1.45374e-319
1.39238e-319
1.33388e-319
1.27825e-319
1.22548e-319
1.17588e-319
1.12934e-319
1.08596e-319
1.04505e-319
1.00453e-319
9.61649e-320
9.13132e-320
8.58884e-320
8.02363e-320
6.43669e-320
6.2855e-320
6.21535e-320
6.58886e-320
6.73906e-320
6.2687e-320
6.06713e-320
6.05527e-320
6.18768e-320
6.68273e-320
6.60171e-320
6.14618e-320
6.07898e-320
6.11159e-320
6.16495e-320
6.36357e-320
6.56218e-320
6.2944e-320
6.17582e-320
6.1778e-320
6.2193e-320
6.411e-320
6.6353e-320
6.39617e-320
6.24894e-320
6.25685e-320
6.28847e-320
6.30724e-320
6.31416e-320
6.30823e-320
6.28946e-320
6.25882e-320
6.21337e-320
6.14716e-320
6.17977e-320
6.60368e-320
6.57305e-320
6.15309e-320
6.10072e-320
6.16001e-320
7.53351e-320
7.9011e-320
8.28252e-320
8.74694e-320
9.33685e-320
9.86451e-320
1.01778e-319
1.05216e-319
1.09999e-319
1.15611e-319
1.2155e-319
1.27746e-319
1.34228e-319
1.41026e-319
1.4817e-319
1.55631e-319
1.63388e-319
1.71401e-319
1.79632e-319
1.88081e-319
1.96737e-319
2.0565e-319
2.1484e-319
2.24326e-319
2.34167e-319
2.44385e-319
2.54977e-319
2.65975e-319
2.77388e-319
2.89216e-319
2.87862e-319
2.76133e-319
2.64809e-319
2.539e-319
2.43396e-319
2.33298e-319
2.23575e-319
2.14227e-319
2.05255e-319
1.96628e-319
1.88348e-319
1.80393e-319
1.72775e-319
1.65463e-319
1.58457e-319
1.51757e-319
1.45334e-319
1.39208e-319
1.33368e-319
1.27805e-319
1.22538e-319
1.17568e-319
1.12914e-319
1.08556e-319
1.04406e-319
1.00315e-319
9.59871e-320
9.12045e-320
8.58686e-320
8.03153e-320
6.4436e-320
6.28847e-320
6.22127e-320
6.57898e-320
6.71534e-320
6.2687e-320
6.07207e-320
6.05922e-320
6.18768e-320
6.65803e-320
6.58095e-320
6.15013e-320
6.08491e-320
6.11653e-320
6.17187e-320
6.36554e-320
6.54933e-320
6.29637e-320
6.17977e-320
6.18076e-320
6.22523e-320
6.41692e-320
6.62937e-320
6.40309e-320
6.25586e-320
6.25882e-320
6.28946e-320
6.30922e-320
6.31614e-320
6.31021e-320
6.29143e-320
6.2608e-320
6.21337e-320
6.14815e-320
6.17878e-320
6.57898e-320
6.55625e-320
6.15803e-320
6.10665e-320
6.16396e-320
7.53944e-320
7.90703e-320
8.28845e-320
8.75287e-320
9.33488e-320
9.85562e-320
1.01807e-319
1.05315e-319
1.10107e-319
1.157e-319
1.21649e-319
1.27844e-319
1.34346e-319
1.41145e-319
1.48299e-319
1.55769e-319
1.63526e-319
1.7154e-319
1.79771e-319
1.88219e-319
1.96875e-319
2.05788e-319
2.14978e-319
2.24484e-319
2.34345e-319
2.44562e-319
2.55175e-319
2.66183e-319
2.77606e-319
2.89443e-319
2.87605e-319
2.75906e-319
2.64602e-319
2.53713e-319
2.43229e-319
2.3314e-319
2.23436e-319
2.14108e-319
2.05136e-319
1.9652e-319
1.88259e-319
1.80314e-319
1.72706e-319
1.65393e-319
1.58397e-319
1.51698e-319
1.45295e-319
1.39168e-319
1.33338e-319
1.27785e-319
1.22518e-319
1.17548e-319
1.12884e-319
1.08487e-319
1.04307e-319
1.00157e-319
9.5829e-320
9.10761e-320
8.5839e-320
8.03548e-320
6.44756e-320
6.28847e-320
6.22819e-320
6.57305e-320
6.69163e-320
6.26475e-320
6.07503e-320
6.06219e-320
6.18768e-320
6.63431e-320
6.55922e-320
6.15211e-320
6.08788e-320
6.12049e-320
6.1778e-320
6.36752e-320
6.53748e-320
6.29835e-320
6.18471e-320
6.18373e-320
6.22918e-320
6.42187e-320
6.62542e-320
6.41001e-320
6.26179e-320
6.2608e-320
6.29044e-320
6.31021e-320
6.31811e-320
6.31218e-320
6.29341e-320
6.26179e-320
6.21436e-320
6.14815e-320
6.1778e-320
6.55922e-320
6.54143e-320
6.16396e-320
6.11258e-320
6.1689e-320
7.54339e-320
7.91098e-320
8.29437e-320
8.75978e-320
9.33389e-320
9.8487e-320
1.01857e-319
1.05434e-319
1.10216e-319
1.15799e-319
1.21738e-319
1.27953e-319
1.34445e-319
1.41263e-319
1.48417e-319
1.55897e-319
1.63664e-319
1.71678e-319
1.79919e-319
1.88358e-319
1.97033e-319
2.05946e-319
2.15146e-319
2.24662e-319
2.34523e-319
2.4476e-319
2.55383e-319
2.664e-319
2.77853e-319
2.897e-319
2.87329e-319
2.75649e-319
2.64365e-319
2.53495e-319
2.43041e-319
2.32962e-319
2.23278e-319
2.1397e-319
2.05017e-319
1.96411e-319
1.8815e-319
1.80215e-319
1.72617e-319
1.65324e-319
1.58338e-319
1.51649e-319
1.45245e-319
1.39129e-319
1.33299e-319
1.27746e-319
1.22489e-319
1.17518e-319
1.12835e-319
1.08418e-319
1.04189e-319
1.00019e-319
9.56709e-320
9.09476e-320
8.57896e-320
8.03746e-320
6.45052e-320
6.28847e-320
6.2361e-320
6.5691e-320
6.66989e-320
6.25981e-320
6.07701e-320
6.06317e-320
6.18965e-320
6.61455e-320
6.53748e-320
6.15112e-320
6.09084e-320
6.12246e-320
6.18373e-320
6.36949e-320
6.52957e-320
6.30131e-320
6.18867e-320
6.1857e-320
6.23511e-320
6.42681e-320
6.62246e-320
6.41791e-320
6.26673e-320
6.2608e-320
6.29044e-320
6.31218e-320
6.32009e-320
6.31416e-320
6.2944e-320
6.26278e-320
6.21535e-320
6.15013e-320
6.17878e-320
6.54143e-320
6.53056e-320
6.16989e-320
6.11653e-320
6.17187e-320
7.54833e-320
7.91592e-320
8.3003e-320
8.76472e-320
9.3329e-320
9.84376e-320
1.01916e-319
1.05552e-319
1.10335e-319
1.15888e-319
1.21837e-319
1.28052e-319
1.34564e-319
1.41382e-319
1.48556e-319
1.56036e-319
1.63803e-319
1.71816e-319
1.80057e-319
1.88516e-319
1.97191e-319
2.06114e-319
2.15324e-319
2.24859e-319
2.34721e-319
2.44978e-319
2.5561e-319
2.66657e-319
2.78119e-319
2.89987e-319
2.87022e-319
2.75372e-319
2.64127e-319
2.53278e-319
2.42823e-319
2.32784e-319
2.2311e-319
2.13812e-319
2.04869e-319
1.96282e-319
1.88041e-319
1.80117e-319
1.72528e-319
1.65235e-319
1.58259e-319
1.51579e-319
1.45186e-319
1.39079e-319
1.3325e-319
1.27706e-319
1.22449e-319
1.17469e-319
1.12785e-319
1.08339e-319
1.0408e-319
9.98605e-320
9.55029e-320
9.08191e-320
8.57303e-320
8.03746e-320
6.45052e-320
6.28748e-320
6.24499e-320
6.56811e-320
6.64815e-320
6.25289e-320
6.078e-320
6.06515e-320
6.19163e-320
6.5938e-320
6.51673e-320
6.15013e-320
6.09282e-320
6.12641e-320
6.18867e-320
6.37246e-320
6.52167e-320
6.30428e-320
6.19262e-320
6.18768e-320
6.23906e-320
6.43076e-320
6.62048e-320
6.42582e-320
6.27266e-320
6.26278e-320
6.29044e-320
6.31218e-320
6.32206e-320
6.31614e-320
6.29637e-320
6.26475e-320
6.21535e-320
6.15112e-320
6.17977e-320
6.52562e-320
6.52068e-320
6.17582e-320
6.12049e-320
6.17582e-320
7.55229e-320
7.91987e-320
8.30524e-320
8.77065e-320
9.3329e-320
9.84179e-320
1.01985e-319
1.05671e-319
1.10443e-319
1.15987e-319
1.21935e-319
1.28151e-319
1.34663e-319
1.415e-319
1.48674e-319
1.56164e-319
1.63941e-319
1.71964e-319
1.80206e-319
1.88664e-319
1.9735e-319
2.06282e-319
2.15511e-319
2.25057e-319
2.34938e-319
2.45195e-319
2.55857e-319
2.66914e-319
2.78396e-319
2.90293e-319
2.86696e-319
2.75076e-319
2.63851e-319
2.53041e-319
2.42606e-319
2.32576e-319
2.22922e-319
2.13644e-319
2.04721e-319
1.96144e-319
1.87913e-319
1.80008e-319
1.72429e-319
1.65156e-319
1.5818e-319
1.515e-319
1.45117e-319
1.3902e-319
1.332e-319
1.27667e-319
1.224e-319
1.1743e-319
1.12726e-319
1.0826e-319
1.03971e-319
9.97123e-320
9.53448e-320
9.06808e-320
8.56512e-320
8.0345e-320
6.44953e-320
6.28649e-320
6.25388e-320
6.56712e-320
6.6274e-320
6.24499e-320
6.078e-320
6.06614e-320
6.19361e-320
6.57404e-320
6.49696e-320
6.14914e-320
6.09578e-320
6.12839e-320
6.19361e-320
6.37443e-320
6.51574e-320
6.30823e-320
6.19558e-320
6.18965e-320
6.24203e-320
6.43471e-320
6.6185e-320
6.43471e-320
6.27859e-320
6.26278e-320
6.29044e-320
6.31218e-320
6.32206e-320
6.31712e-320
6.29736e-320
6.26475e-320
6.21732e-320
6.15211e-320
6.17977e-320
6.51376e-320
6.51179e-320
6.18076e-320
6.12444e-320
6.1778e-320
7.55525e-320
7.92284e-320
8.31018e-320
8.77658e-320
9.33389e-320