/*--------------------------------*- C++ -*----------------------------------*\
  =========                 |
  \\      /  F ield         | OpenFOAM: The Open Source CFD Toolbox
   \\    /   O peration     | Website:  https://openfoam.org
    \\  /    A nd           | Version:  9
     \\/     M anipulation  |
\*---------------------------------------------------------------------------*/
FoamFile
{
    format      ascii;
    class       volScalarField;
    location    "0.13";
    object      p;
}
// * * * * * * * * * * * * * * * * * * * * * * * * * * * * * * * * * * * * * //

dimensions      [1 -1 -2 0 0 0 0];

internalField   nonuniform List<scalar> 
20000
(
2.46428
2.46439
2.46443
2.46442
2.46436
2.46425
2.46408
2.46384
2.46352
2.46311
2.46258
2.46192
2.46109
2.46004
2.45872
2.45706
2.45492
2.45214
2.44837
2.44299
2.43471
2.42057
2.39342
2.33552
2.1958
1.77253
0.960694
1.87076
2.14805
2.19929
2.15278
2.005
1.90605
1.69295
1.09331
1.71028
1.66493
1.71331
1.96875
1.33615
1.83251
1.84861
1.90586
1.99761
2.05485
2.31751
2.06249
2.23428
2.10936
2.16707
2.12793
2.35417
1.81377
2.25984
2.17787
2.26369
2.29
2.30113
2.29731
2.27775
2.2406
2.18154
2.08965
1.95147
1.90989
1.55118
1.36792
1.80078
1.93039
2.08453
2.16153
2.20912
2.24652
2.30475
2.40544
2.35747
2.37177
2.34248
2.35451
2.37068
2.3873
2.4029
2.41702
2.42948
2.44013
2.44877
2.45521
2.45946
2.4618
2.46278
2.46301
2.46293
2.46282
2.46278
2.46282
2.46294
2.46312
2.46334
2.46361
2.46395
2.4623
2.46237
2.46237
2.46232
2.46221
2.46202
2.46175
2.46138
2.4609
2.46029
2.4595
2.4585
2.45722
2.45558
2.45345
2.45065
2.44693
2.44183
2.43466
2.42419
2.40821
2.38284
2.34114
2.26885
2.15813
1.97898
1.70396
1.96415
2.05494
2.13576
2.12999
2.03723
1.92072
1.78778
1.41701
1.74779
1.73602
1.79394
2.01559
1.60369
1.80929
1.83275
1.96601
2.05707
2.11172
2.33822
2.0476
2.23121
2.133
2.2241
2.15986
2.39332
1.93844
2.26417
2.19126
2.28598
2.29664
2.30332
2.2969
2.27718
2.24284
2.1912
2.11836
2.01769
1.95377
1.73682
1.57758
1.8312
1.98128
2.11873
2.18746
2.23654
2.27844
2.33283
2.39838
2.32458
2.35584
2.35515
2.37773
2.39024
2.40215
2.41357
2.42413
2.43351
2.4415
2.44793
2.45272
2.45597
2.4579
2.45889
2.45931
2.45948
2.45959
2.45973
2.45994
2.46023
2.46058
2.46098
2.46143
2.46193
2.4602
2.46008
2.45994
2.45976
2.45953
2.45924
2.45888
2.45841
2.45783
2.4571
2.45618
2.45502
2.45356
2.45169
2.44929
2.44617
2.44206
2.43656
2.42907
2.41866
2.40393
2.38295
2.35406
2.3102
2.24601
2.16992
2.07417
2.17028
2.1642
2.1885
2.16951
2.10581
1.97873
1.89947
1.69807
1.90151
1.83937
1.87991
1.99711
1.77068
1.92369
1.9255
2.01898
2.10089
2.1275
2.30875
2.08796
2.2708
2.1535
2.27024
2.18725
2.38948
2.06092
2.329
2.21575
2.30661
2.30617
2.31234
2.30599
2.28881
2.26011
2.21819
2.16435
2.09237
2.00942
1.87766
1.80681
1.98245
2.04743
2.15586
2.21225
2.25612
2.2909
2.32541
2.37484
2.33989
2.3686
2.36242
2.38151
2.39346
2.4046
2.41462
2.42352
2.4313
2.4379
2.4433
2.4475
2.45061
2.4528
2.4543
2.45534
2.4561
2.4567
2.45723
2.45772
2.45821
2.45868
2.45917
2.45965
2.46007
2.4582
2.45799
2.45778
2.45753
2.45724
2.4569
2.45649
2.45599
2.45538
2.45463
2.4537
2.45254
2.4511
2.44929
2.447
2.4441
2.44039
2.43563
2.42948
2.42156
2.41132
2.39816
2.38264
2.36269
2.33341
2.30377
2.26622
2.29823
2.27457
2.26407
2.22759
2.1818
2.07955
2.01701
1.92552
2.02918
1.95496
1.97277
2.0247
1.90692
2.02384
2.02392
2.07877
2.14512
2.15245
2.30166
2.13898
2.29428
2.18824
2.30943
2.22392
2.40444
2.17122
2.37146
2.25295
2.33115
2.32069
2.32696
2.32065
2.30635
2.28373
2.25146
2.21225
2.16694
2.1035
2.01999
2.00189
2.11155
2.12574
2.20168
2.24228
2.27728
2.30491
2.32681
2.366
2.35372
2.37472
2.36949
2.38591
2.39621
2.40634
2.41541
2.42328
2.43006
2.4358
2.44052
2.44428
2.44719
2.44938
2.45104
2.45231
2.45331
2.45415
2.45486
2.45551
2.4561
2.45665
2.45718
2.4577
2.45812
2.45624
2.45602
2.45579
2.45554
2.45526
2.45493
2.45454
2.45407
2.45351
2.45282
2.45199
2.45096
2.44969
2.44813
2.44619
2.44379
2.44081
2.43714
2.43263
2.42715
2.42057
2.41266
2.40409
2.3953
2.38489
2.37595
2.36097
2.36326
2.34345
2.32058
2.28163
2.24669
2.17243
2.12037
2.10264
2.13942
2.06505
2.06734
2.09026
2.02481
2.09634
2.10187
2.13812
2.19271
2.19083
2.31682
2.1878
2.31505
2.23206
2.34096
2.26539
2.42783
2.25948
2.39856
2.29312
2.35656
2.33869
2.34498
2.33831
2.32685
2.30994
2.28678
2.25944
2.234
2.20375
2.15195
2.15498
2.209
2.20025
2.24969
2.27588
2.30179
2.32406
2.33824
2.36706
2.36092
2.37828
2.37749
2.39282
2.40123
2.40981
2.4175
2.42415
2.42988
2.43474
2.43875
2.44201
2.44461
2.44667
2.44832
2.44965
2.45076
2.4517
2.45252
2.45325
2.45392
2.45453
2.45511
2.45567
2.45613
2.45429
2.45411
2.45393
2.45373
2.4535
2.45324
2.45292
2.45255
2.4521
2.45155
2.45088
2.45007
2.44907
2.44785
2.44635
2.44454
2.44234
2.43969
2.43654
2.43286
2.42868
2.42401
2.41941
2.41608
2.41472
2.41465
2.40913
2.40198
2.38648
2.36128
2.32683
2.2994
2.24315
2.20629
2.23844
2.24283
2.16521
2.15594
2.1673
2.12464
2.15733
2.16446
2.19232
2.23957
2.23301
2.34163
2.23596
2.33943
2.27294
2.36939
2.30683
2.44852
2.3243
2.42047
2.33082
2.38074
2.3586
2.36488
2.35785
2.34912
2.33718
2.32198
2.30476
2.29269
2.28949
2.26078
2.2716
2.28896
2.26604
2.29538
2.30998
2.32751
2.34468
2.35305
2.37373
2.36923
2.38384
2.38574
2.39991
2.40683
2.41406
2.42037
2.42577
2.43046
2.43445
2.4378
2.44056
2.44283
2.44469
2.44622
2.44751
2.44861
2.44956
2.45041
2.45117
2.45186
2.45249
2.45309
2.45366
2.45414
2.45237
2.45227
2.45217
2.45206
2.45193
2.45177
2.45159
2.45135
2.45106
2.4507
2.45025
2.4497
2.44902
2.44819
2.44717
2.44595
2.44449
2.44277
2.4408
2.43862
2.43639
2.43431
2.43295
2.43337
2.43617
2.43902
2.43652
2.429
2.41774
2.39442
2.36534
2.34552
2.30291
2.28095
2.34002
2.332
2.25174
2.2372
2.24468
2.20999
2.21469
2.21906
2.24291
2.28377
2.27465
2.36984
2.28332
2.36565
2.31089
2.3973
2.34349
2.46539
2.3715
2.43982
2.36453
2.40356
2.37953
2.38579
2.3786
2.37245
2.36457
2.35594
2.34705
2.34493
2.3589
2.34616
2.36083
2.356
2.32373
2.33747
2.34286
2.35289
2.36498
2.36898
2.38414
2.38091
2.39204
2.39435
2.40669
2.41232
2.41844
2.42358
2.42793
2.43173
2.43497
2.43771
2.44001
2.44192
2.44352
2.44486
2.446
2.447
2.44787
2.44865
2.44936
2.45001
2.45061
2.45117
2.45171
2.45217
2.45046
2.45047
2.45048
2.45049
2.4505
2.45048
2.45045
2.45039
2.4503
2.45016
2.44997
2.44971
2.44937
2.44894
2.44842
2.44778
2.44704
2.44621
2.44532
2.44448
2.44388
2.44382
2.4447
2.44719
2.45132
2.45449
2.45295
2.447
2.44004
2.42194
2.39863
2.38704
2.36029
2.34904
2.41441
2.40339
2.32498
2.3096
2.31804
2.28454
2.27154
2.27135
2.29187
2.32582
2.31518
2.3985
2.32829
2.39303
2.34702
2.42372
2.37581
2.48022
2.40803
2.45824
2.39467
2.42528
2.4008
2.40708
2.39994
2.39618
2.39152
2.38829
2.38586
2.39152
2.41571
2.41356
2.43016
2.41235
2.37367
2.37547
2.37371
2.3774
2.38491
2.38561
2.39646
2.39437
2.40229
2.40389
2.41382
2.41799
2.42296
2.42699
2.43041
2.43341
2.43597
2.43816
2.44
2.44154
2.44285
2.44395
2.44491
2.44575
2.44649
2.44716
2.44777
2.44833
2.44885
2.44934
2.4498
2.45022
2.44857
2.4487
2.44884
2.449
2.44916
2.44931
2.44946
2.4496
2.44972
2.44982
2.4499
2.44995
2.44996
2.44994
2.44988
2.4498
2.44972
2.44967
2.4497
2.44992
2.45049
2.45164
2.45365
2.45689
2.46108
2.46399
2.46304
2.45834
2.45447
2.44291
2.42609
2.42246
2.41504
2.41135
2.46895
2.45821
2.38663
2.3724
2.38398
2.35088
2.32883
2.32373
2.33945
2.36632
2.3543
2.42573
2.36987
2.42067
2.38124
2.44813
2.40441
2.49469
2.43838
2.47613
2.42189
2.44602
2.42188
2.42816
2.42122
2.41966
2.41749
2.41864
2.42104
2.43236
2.4631
2.46767
2.48406
2.45904
2.41594
2.40921
2.4021
2.40073
2.40438
2.40252
2.40957
2.40831
2.41366
2.41417
2.42147
2.42407
2.42775
2.43062
2.43311
2.43533
2.43724
2.43887
2.44026
2.44144
2.44244
2.4433
2.44405
2.44471
2.44529
2.44583
2.44631
2.44676
2.44717
2.44756
2.44793
2.44827
2.44668
2.44695
2.44725
2.44756
2.44789
2.44822
2.44856
2.4489
2.44925
2.4496
2.44995
2.4503
2.45065
2.451
2.45137
2.45178
2.45225
2.45283
2.45355
2.45452
2.45586
2.4577
2.46023
2.46364
2.46753
2.47012
2.46951
2.4658
2.46354
2.45783
2.44759
2.45087
2.46377
2.46642
2.50944
2.49784
2.4399
2.42573
2.44019
2.40987
2.38648
2.37649
2.385
2.40515
2.39135
2.44925
2.40899
2.44757
2.41323
2.47091
2.43222
2.50747
2.4646
2.49342
2.44666
2.46569
2.44234
2.44864
2.44195
2.44233
2.44202
2.44657
2.45257
2.46763
2.50346
2.51152
2.5253
2.49665
2.45114
2.43871
2.42771
2.42249
2.42297
2.41913
2.4229
2.42214
2.42538
2.42461
2.42931
2.43036
2.4327
2.43442
2.43599
2.43743
2.43868
2.43977
2.44071
2.44152
2.44221
2.44282
2.44334
2.44381
2.44423
2.44461
2.44495
2.44527
2.44556
2.44582
2.44608
2.44633
2.44479
2.44521
2.44566
2.44614
2.44664
2.44716
2.4477
2.44825
2.44883
2.44942
2.45004
2.45068
2.45135
2.45204
2.45279
2.4536
2.45452
2.45559
2.45683
2.45834
2.46019
2.46247
2.46528
2.46868
2.47218
2.4744
2.47394
2.47095
2.46947
2.46826
2.46402
2.47292
2.50387
2.51226
2.54049
2.52918
2.48243
2.46993
2.48602
2.4617
2.44297
2.4285
2.42783
2.44187
2.42622
2.47023
2.44489
2.47281
2.44281
2.49204
2.45849
2.5203
2.48808
2.51014
2.46939
2.4842
2.46197
2.46822
2.46184
2.46385
2.46488
2.4719
2.48061
2.49784
2.53844
2.54724
2.5562
2.52605
2.48027
2.46413
2.45041
2.44236
2.44025
2.4349
2.43601
2.4354
2.43685
2.43471
2.43697
2.43658
2.43761
2.43824
2.43893
2.43961
2.44023
2.44079
2.44129
2.44174
2.44212
2.44247
2.44277
2.44303
2.44327
2.44348
2.44366
2.44383
2.44399
2.44412
2.44424
2.44439
2.4429
2.44347
2.44409
2.44474
2.44541
2.44611
2.44685
2.44761
2.44841
2.44924
2.45011
2.45103
2.45199
2.45301
2.45409
2.45526
2.45655
2.458
2.45964
2.46154
2.46375
2.46632
2.46928
2.47257
2.4757
2.47751
2.47706
2.47466
2.47343
2.47546
2.47641
2.48965
2.53438
2.54773
2.56475
2.55501
2.51643
2.5065
2.5222
2.5062
2.49606
2.47795
2.4673
2.47607
2.45897
2.4918
2.47573
2.49589
2.4699
2.51153
2.48323
2.53327
2.50931
2.52609
2.49027
2.5015
2.48055
2.48684
2.48072
2.48403
2.48599
2.49465
2.50541
2.52353
2.56856
2.57613
2.57899
2.54861
2.50431
2.48581
2.47027
2.46019
2.456
2.44948
2.44845
2.44764
2.44756
2.44415
2.44422
2.44252
2.44233
2.44194
2.4418
2.44177
2.44179
2.44185
2.44194
2.44202
2.44211
2.44219
2.44227
2.44233
2.44237
2.4424
2.44243
2.44244
2.44245
2.44243
2.44242
2.44246
2.44101
2.44174
2.44251
2.44332
2.44417
2.44506
2.44598
2.44695
2.44796
2.44902
2.45013
2.4513
2.45254
2.45385
2.45523
2.45671
2.45833
2.46009
2.46204
2.46424
2.4667
2.46945
2.47245
2.47559
2.47835
2.47979
2.47928
2.47733
2.47609
2.48026
2.48548
2.50194
2.55583
2.57321
2.58354
2.5763
2.54411
2.53693
2.55036
2.5435
2.5434
2.52284
2.50276
2.50727
2.48907
2.51346
2.50239
2.51697
2.49449
2.52931
2.50608
2.54614
2.52824
2.54096
2.50933
2.51749
2.49871
2.50374
2.49847
2.50273
2.50535
2.5149
2.52719
2.54514
2.59357
2.59885
2.59577
2.5659
2.5241
2.50418
2.48752
2.476
2.47012
2.46263
2.45988
2.45861
2.45726
2.45272
2.45092
2.44807
2.44676
2.44545
2.44454
2.44384
2.4433
2.44289
2.44258
2.44233
2.44213
2.44195
2.4418
2.44165
2.44151
2.44136
2.44121
2.44107
2.44092
2.44076
2.4406
2.44054
2.43912
2.44
2.44093
2.4419
2.44292
2.44398
2.44509
2.44624
2.44745
2.44872
2.45006
2.45147
2.45296
2.45452
2.45618
2.45794
2.45984
2.46188
2.46409
2.4665
2.46914
2.47198
2.47496
2.47792
2.48036
2.48147
2.48082
2.47899
2.47807
2.48328
2.49179
2.51056
2.56968
2.5903
2.59744
2.59315
2.56621
2.56208
2.57243
2.57398
2.58314
2.56156
2.53371
2.53502
2.516
2.53403
2.52576
2.53631
2.51666
2.5453
2.52716
2.55784
2.54468
2.55443
2.52653
2.53203
2.51549
2.51974
2.51512
2.51992
2.52299
2.53283
2.54614
2.56307
2.61299
2.6158
2.60846
2.5795
2.54041
2.51971
2.50241
2.48989
2.48263
2.47429
2.47012
2.46829
2.46587
2.46038
2.45703
2.45317
2.45084
2.44871
2.44709
2.44578
2.44472
2.44387
2.44318
2.44261
2.44213
2.44171
2.44134
2.44099
2.44065
2.44033
2.44001
2.43971
2.4394
2.43909
2.43878
2.43861
2.43723
2.43825
2.43933
2.44046
2.44164
2.44287
2.44416
2.4455
2.4469
2.44836
2.44991
2.45153
2.45324
2.45504
2.45693
2.45894
2.46108
2.46335
2.46577
2.46836
2.47112
2.47401
2.47695
2.47973
2.48189
2.48272
2.48191
2.4801
2.47933
2.48492
2.49588
2.51623
2.57791
2.601
2.60698
2.60487
2.58317
2.58254
2.59029
2.59834
2.61431
2.5931
2.55988
2.55903
2.53956
2.55278
2.54637
2.55396
2.53647
2.5595
2.54469
2.56923
2.55868
2.5665
2.542
2.5451
2.53086
2.53483
2.53058
2.53563
2.53898
2.54862
2.56244
2.57775
2.62669
2.62747
2.61852
2.59067
2.55393
2.53284
2.51521
2.502
2.4936
2.48449
2.47918
2.47676
2.47344
2.46715
2.46252
2.45778
2.45456
2.45168
2.44942
2.44755
2.44601
2.44475
2.44371
2.44284
2.4421
2.44145
2.44086
2.44032
2.4398
2.4393
2.43881
2.43834
2.43789
2.43742
2.43696
2.43668
2.43534
2.4365
2.43773
2.43901
2.44034
2.44173
2.44318
2.4447
2.44628
2.44793
2.44966
2.45148
2.45339
2.45539
2.45749
2.45971
2.46205
2.46453
2.46713
2.46986
2.47272
2.47565
2.47854
2.48116
2.48306
2.48364
2.48267
2.48083
2.48003
2.48556
2.49824
2.51964
2.58248
2.60721
2.6119
2.61248
2.59568
2.59882
2.60553
2.6175
2.63681
2.61712
2.58129
2.57922
2.55986
2.5695
2.56444
2.56988
2.55399
2.57221
2.55914
2.57983
2.57043
2.57723
2.55607
2.55697
2.54505
2.54862
2.54483
2.54996
2.55342
2.5625
2.57632
2.58966
2.63519
2.63458
2.62691
2.60029
2.56519
2.544
2.52619
2.51252
2.50318
2.49339
2.48715
2.48417
2.48009
2.47312
2.46743
2.46193
2.45791
2.45438
2.45153
2.44914
2.44716
2.44553
2.44416
2.44301
2.44202
2.44115
2.44036
2.43963
2.43893
2.43825
2.4376
2.43698
2.43637
2.43575
2.43514
2.43476
2.43344
2.43474
2.4361
2.43752
2.43901
2.44055
2.44216
2.44384
2.44558
2.44741
2.44931
2.45131
2.4534
2.45558
2.45787
2.46027
2.4628
2.46544
2.46819
2.47105
2.47399
2.47694
2.47978
2.48226
2.48395
2.48432
2.4832
2.48128
2.48039
2.4855
2.49933
2.52138
2.58496
2.61065
2.61261
2.61595
2.60433
2.61144
2.61922
2.63246
2.65136
2.63395
2.59823
2.59576
2.57714
2.58417
2.58015
2.58406
2.56937
2.58369
2.57156
2.58903
2.58036
2.58655
2.56848
2.56838
2.55804
2.56118
2.55795
2.56298
2.56642
2.57474
2.58806
2.59931
2.63951
2.638
2.63437
2.60879
2.57462
2.55351
2.5356
2.52165
2.51152
2.50117
2.49416
2.49066
2.48596
2.4784
2.47182
2.46564
2.46092
2.4568
2.45342
2.45057
2.44819
2.4462
2.44454
2.44313
2.4419
2.44082
2.43984
2.43891
2.43804
2.4372
2.43639
2.4356
2.43484
2.43407
2.43332
2.43283
2.43154
2.43296
2.43446
2.43602
2.43764
2.43932
2.44108
2.44292
2.44482
2.44681
2.44888
2.45103
2.45329
2.45565
2.4581
2.46067
2.46335
2.46614
2.46902
2.47198
2.47499
2.47795
2.48074
2.48309
2.48461
2.48482
2.48355
2.48158
2.48052
2.48512
2.49961
2.52201
2.5864
2.61245
2.61
2.61543
2.60968
2.62082
2.63185
2.64401
2.65924
2.64449
2.61123
2.60894
2.59168
2.59686
2.59367
2.59658
2.58282
2.59396
2.58239
2.59644
2.58948
2.59471
2.57976
2.57901
2.56979
2.57275
2.57003
2.57484
2.57814
2.58557
2.59796
2.6072
2.64104
2.6399
2.64004
2.61622
2.5825
2.56165
2.54368
2.52958
2.51881
2.508
2.50036
2.49638
2.49115
2.48309
2.47576
2.46898
2.46364
2.45898
2.45513
2.45185
2.4491
2.44679
2.44485
2.44319
2.44174
2.44046
2.43928
2.43818
2.43714
2.43613
2.43516
2.43422
2.43331
2.43239
2.43149
2.43089
2.42963
2.43118
2.4328
2.43448
2.43623
2.43806
2.43996
2.44194
2.444
2.44614
2.44836
2.45067
2.45308
2.45559
2.4582
2.46091
2.46373
2.46664
2.46964
2.47268
2.47574
2.47872
2.48146
2.48372
2.4851
2.4852
2.48384
2.48183
2.48063
2.48456
2.49953
2.52214
2.58738
2.61315
2.60502
2.61169
2.61248
2.62739
2.64336
2.65266
2.66209
2.65004
2.62091
2.61919
2.60373
2.60766
2.60521
2.60754
2.59456
2.60307
2.59203
2.60321
2.59763
2.60198
2.58954
2.58897
2.5807
2.58351
2.58118
2.58567
2.58874
2.59524
2.60639
2.61378
2.64103
2.64036
2.64473
2.62263
2.58907
2.56864
2.55062
2.53648
2.52519
2.51403
2.50585
2.50145
2.49577
2.4873
2.47932
2.472
2.46611
2.46098
2.45668
2.45302
2.44993
2.44732
2.44511
2.44321
2.44155
2.44007
2.43871
2.43743
2.43622
2.43505
2.43392
2.43283
2.43177
2.43071
2.42966
2.42895
2.42773
2.42938
2.43112
2.43292
2.43479
2.43674
2.43877
2.44089
2.44309
2.44537
2.44774
2.4502
2.45275
2.4554
2.45815
2.461
2.46394
2.46696
2.47006
2.47318
2.47629
2.47928
2.48199
2.48418
2.48548
2.48551
2.48414
2.48214
2.48088
2.48435
2.49933
2.52245
2.5881
2.61288
2.59867
2.60589
2.61358
2.63154
2.6533
2.65871
2.6616
2.65207
2.62794
2.62698
2.61357
2.61668
2.61499
2.61709
2.60482
2.61118
2.60073
2.61
2.60477
2.60839
2.59849
2.59796
2.59078
2.59349
2.59149
2.59564
2.5984
2.60397
2.6137
2.6195
2.64072
2.6399
2.64861
2.62785
2.59454
2.57465
2.55661
2.54253
2.53081
2.51941
2.51073
2.50596
2.49992
2.49109
2.48258
2.47479
2.4684
2.46283
2.45814
2.45411
2.4507
2.4478
2.44533
2.44321
2.44134
2.43967
2.43812
2.43667
2.43529
2.43396
2.43267
2.43143
2.43023
2.42902
2.42783
2.427
2.42581
2.42758
2.42941
2.43132
2.43331
2.43537
2.43753
2.43976
2.44209
2.44451
2.44701
2.44961
2.4523
2.45509
2.45797
2.46094
2.464
2.46713
2.47031
2.47351
2.47666
2.47966
2.48236
2.48451
2.48577
2.4858
2.48449
2.4826
2.48136
2.48452
2.4999
2.5231
2.58847
2.61174
2.59191
2.59919
2.61385
2.63363
2.66105
2.66234
2.65926
2.65197
2.63299
2.63278
2.62146
2.62408
2.62323
2.62539
2.61382
2.61841
2.60855
2.61654
2.61123
2.61441
2.60643
2.60613
2.6001
2.60277
2.60107
2.60489
2.60729
2.61198
2.62025
2.62473
2.64114
2.64116
2.64973
2.63162
2.59902
2.57985
2.56182
2.54786
2.5358
2.52428
2.51503
2.51002
2.50367
2.49457
2.48561
2.4774
2.47055
2.46459
2.45952
2.45516
2.45144
2.44826
2.44555
2.4432
2.44113
2.43925
2.43753
2.4359
2.43435
2.43286
2.43141
2.43002
2.42867
2.42732
2.42599
2.42504
2.4239
2.42576
2.4277
2.42971
2.43181
2.43398
2.43625
2.4386
2.44104
2.44358
2.44621
2.44893
2.45175
2.45466
2.45767
2.46075
2.46392
2.46715
2.47041
2.47368
2.47688
2.47991
2.4826
2.48473
2.48599
2.4861
2.48494
2.48324
2.48219
2.48513
2.49991
2.52469
2.5891
2.60992
2.58555
2.59252
2.61428
2.63399
2.66605
2.66373
2.65633
2.65093
2.63666
2.63707
2.6277
2.63007
2.63016
2.63264
2.62171
2.62485
2.61547
2.62253
2.61714
2.62011
2.61358
2.61375
2.60879
2.61147
2.61006
2.61355
2.61559
2.61946
2.62633
2.62975
2.64255
2.6425
2.65023
2.63423
2.60277
2.58436
2.5664
2.55263
2.54025
2.52848
2.51902
2.51382
2.50715
2.49782
2.48847
2.47987
2.47262
2.46629
2.46087
2.45618
2.45216
2.44872
2.44576
2.44319
2.4409
2.43884
2.43692
2.43512
2.4334
2.43174
2.43014
2.42859
2.4271
2.42561
2.42414
2.42307
2.42198
2.42394
2.42597
2.42809
2.43028
2.43257
2.43494
2.4374
2.43995
2.44259
2.44534
2.44818
2.45111
2.45414
2.45725
2.46045
2.46371
2.46703
2.47038
2.47371
2.47695
2.48001
2.48271
2.48485
2.48616
2.48639
2.48549
2.48412
2.4834
2.48647
2.50101
2.52734
2.58812
2.60737
2.5804
2.58869
2.61441
2.63245
2.6678
2.66285
2.65401
2.64984
2.63945
2.64027
2.63259
2.63486
2.63602
2.639
2.62866
2.63057
2.62149
2.62777
2.6225
2.62532
2.62021
2.62094
2.61696
2.6197
2.61858
2.62176
2.62345
2.62659
2.63219
2.63474
2.64522
2.64428
2.65019
2.63577
2.60613
2.5883
2.57053
2.55698
2.54436
2.53251
2.52302
2.51673
2.51047
2.50085
2.49118
2.48225
2.47463
2.46796
2.4622
2.4572
2.4529
2.44919
2.44598
2.44318
2.44069
2.43842
2.43632
2.43433
2.43244
2.43062
2.42886
2.42716
2.42552
2.42388
2.42228
2.42108
2.42006
2.4221
2.42422
2.42643
2.42872
2.4311
2.43357
2.43613
2.43879
2.44154
2.44439
2.44734
2.45038
2.45351
2.45673
2.46002
2.46338
2.46679
2.47021
2.4736
2.47689
2.47998
2.48271
2.48488
2.48627
2.48669
2.4861
2.48517
2.48494
2.48834
2.50274
2.52945
2.5873
2.6048
2.57768
2.58621
2.61341
2.63232
2.6664
2.66061
2.65243
2.64924
2.64172
2.6427
2.63641
2.63872
2.64101
2.64463
2.63479
2.63564
2.62662
2.63216
2.62731
2.6301
2.62629
2.62773
2.62471
2.62759
2.62674
2.62966
2.63103
2.63351
2.63802
2.63983
2.64904
2.6468
2.64975
2.63653
2.60919
2.59185
2.57441
2.56107
2.54823
2.53629
2.5267
2.52023
2.51311
2.50358
2.49374
2.48456
2.47662
2.46962
2.46354
2.45824
2.45365
2.44967
2.44622
2.44319
2.44048
2.43801
2.43571
2.43355
2.43148
2.42949
2.42757
2.42571
2.42392
2.42214
2.4204
2.41907
2.41814
2.42025
2.42246
2.42475
2.42713
2.4296
2.43216
2.43482
2.43757
2.44042
2.44337
2.44642
2.44956
2.45279
2.4561
2.45949
2.46294
2.46643
2.46992
2.47337
2.47671
2.47983
2.48259
2.48481
2.4863
2.48693
2.48673
2.48632
2.48667
2.49054
2.50499
2.53173
2.58711
2.60226
2.57587
2.5867
2.61402
2.63065
2.66211
2.65737
2.65188
2.6494
2.64372
2.64465
2.63944
2.64188
2.6453
2.64968
2.64027
2.64018
2.63087
2.63561
2.63156
2.63447
2.63181
2.63419
2.63214
2.63521
2.63466
2.63735
2.63846
2.64036
2.64395
2.64507
2.6536
2.64987
2.64945
2.63656
2.6125
2.59525
2.57824
2.56497
2.55196
2.53992
2.53016
2.52341
2.51594
2.50628
2.49626
2.48685
2.4786
2.47129
2.4649
2.4593
2.45442
2.45018
2.44647
2.4432
2.44027
2.4376
2.43511
2.43276
2.43051
2.42835
2.42626
2.42425
2.42231
2.42038
2.41851
2.41703
2.41622
2.41841
2.4207
2.42306
2.42552
2.42807
2.43071
2.43346
2.4363
2.43925
2.44229
2.44543
2.44867
2.45199
2.45539
2.45887
2.4624
2.46597
2.46953
2.47304
2.47642
2.47958
2.48237
2.48464
2.48624
2.48709
2.48727
2.48742
2.48842
2.49281
2.50741
2.53374
2.58514
2.59689
2.58011
2.59058
2.61562
2.62888
2.65525
2.6532
2.6522
2.65035
2.64557
2.64631
2.64192
2.64456
2.64904
2.65421
2.64517
2.6444
2.63432
2.63818
2.63532
2.63847
2.63685
2.64041
2.63934
2.64269
2.64243
2.64495
2.64584
2.64724
2.65008
2.65048
2.65843
2.65323
2.64985
2.63722
2.61551
2.59871
2.58205
2.5688
2.55565
2.5435
2.53356
2.52648
2.51878
2.50901
2.4988
2.48916
2.4806
2.47298
2.46628
2.46038
2.45522
2.45071
2.44675
2.44324
2.44009
2.4372
2.43451
2.43197
2.42954
2.4272
2.42495
2.42278
2.42068
2.41861
2.41659
2.41497
2.41429
2.41656
2.41892
2.42136
2.42389
2.42651
2.42924
2.43207
2.435
2.43803
2.44115
2.44438
2.4477
2.45111
2.45461
2.45817
2.46178
2.46542
2.46905
2.47261
2.47604
2.47923
2.48205
2.48437
2.48606
2.4871
2.48762
2.48828
2.4899
2.49477
2.50945
2.53514
2.58224
2.59353
2.58531
2.59695
2.6178
2.62689
2.64722
2.6491
2.6531
2.65189
2.64731
2.64782
2.64406
2.64696
2.6524
2.65832
2.64915
2.64904
2.63706
2.63999
2.63871
2.64221
2.64154
2.6465
2.64643
2.65012
2.65017
2.65256
2.65328
2.65424
2.65644
2.65607
2.66315
2.65673
2.65124
2.63881
2.61885
2.60234
2.58594
2.57267
2.55939
2.5471
2.53699
2.52959
2.52165
2.51177
2.50139
2.4915
2.48265
2.47472
2.4677
2.4615
2.45605
2.45127
2.44705
2.4433
2.43992
2.43681
2.43392
2.43118
2.42857
2.42605
2.42363
2.42129
2.41903
2.41681
2.41464
2.41287
2.41236
2.4147
2.41712
2.41963
2.42223
2.42493
2.42773
2.43063
2.43364
2.43675
2.43996
2.44327
2.44667
2.45017
2.45374
2.45739
2.46108
2.46479
2.46848
2.4721
2.47557
2.47878
2.48163
2.48398
2.48574
2.48692
2.48769
2.48874
2.49084
2.496
2.51064
2.5358
2.57851
2.59096
2.59189
2.60522
2.62042
2.6254
2.63938
2.64464
2.65407
2.65369
2.64887
2.64923
2.64599
2.64922
2.6556
2.6626
2.65429
2.6523
2.63866
2.64135
2.64197
2.64588
2.64609
2.65256
2.65353
2.65761
2.65796
2.66027
2.66085
2.66143
2.66305
2.66182
2.66749
2.66027
2.65385
2.64151
2.6228
2.60629
2.59004
2.5767
2.56324
2.55081
2.54051
2.53279
2.52461
2.51462
2.50405
2.49391
2.48475
2.47651
2.46918
2.46268
2.45693
2.45187
2.44739
2.44339
2.43977
2.43644
2.43334
2.4304
2.42759
2.4249
2.42229
2.41978
2.41736
2.41498
2.41266
2.41074
2.41043
2.41282
2.4153
2.41787
2.42053
2.4233
2.42617
2.42915
2.43223
2.43541
2.4387
2.44209
2.44557
2.44914
2.4528
2.45652
2.46029
2.46407
2.46783
2.47151
2.47502
2.47826
2.48112
2.48349
2.48527
2.48651
2.4874
2.48864
2.49098
2.49616
2.51063
2.53569
2.57421
2.58865
2.5991
2.61423
2.62302
2.62448
2.63216
2.64034
2.65468
2.65539
2.65018
2.65056
2.64782
2.65141
2.65856
2.66615
2.65846
2.65447
2.64228
2.64297
2.64545
2.64977
2.65079
2.65877
2.66076
2.66524
2.6659
2.66816
2.66863
2.66887
2.66994
2.66776
2.6714
2.66386
2.65782
2.64553
2.62739
2.61066
2.59445
2.58095
2.56728
2.55467
2.54417
2.53613
2.52772
2.51758
2.50681
2.4964
2.48693
2.47837
2.47072
2.46391
2.45787
2.45253
2.44778
2.44352
2.43966
2.4361
2.43278
2.42963
2.42663
2.42374
2.42095
2.41827
2.41568
2.41314
2.41066
2.40858
2.40849
2.41093
2.41346
2.41609
2.41881
2.42164
2.42458
2.42762
2.43076
2.43402
2.43737
2.44084
2.4444
2.44805
2.45179
2.45559
2.45943
2.46329
2.46711
2.47084
2.4744
2.47767
2.48055
2.48291
2.48467
2.48588
2.48674
2.48794
2.4902
2.4951
2.50933
2.53499
2.56979
2.58648
2.60561
2.62245
2.62492
2.62388
2.62615
2.63654
2.65457
2.65663
2.65115
2.6518
2.64961
2.65358
2.66118
2.66958
2.66223
2.65778
2.64559
2.64501
2.64946
2.65424
2.656
2.66528
2.66826
2.67313
2.67407
2.6763
2.67668
2.67661
2.6771
2.67395
2.67505
2.66759
2.66306
2.65087
2.63263
2.61555
2.59922
2.58549
2.57157
2.55874
2.54799
2.53963
2.53098
2.52069
2.50969
2.499
2.48921
2.48032
2.47235
2.46523
2.45889
2.45325
2.44822
2.44371
2.43959
2.4358
2.43225
2.42888
2.42567
2.42258
2.41961
2.41674
2.41398
2.41127
2.40864
2.40639
2.40656
2.40904
2.41163
2.4143
2.41708
2.41996
2.42295
2.42605
2.42925
2.43257
2.43599
2.43953
2.44316
2.44689
2.4507
2.45458
2.4585
2.46243
2.46632
2.47012
2.47373
2.47704
2.47993
2.48228
2.48399
2.48509
2.48577
2.48669
2.48859
2.49292
2.507
2.53411
2.5658
2.58429
2.61026
2.62841
2.62531
2.62325
2.62166
2.63337
2.6535
2.65715
2.65168
2.6529
2.65137
2.65572
2.66311
2.67314
2.66607
2.66158
2.64946
2.64795
2.65434
2.65971
2.66195
2.67226
2.67615
2.68135
2.68255
2.68476
2.68505
2.6847
2.68459
2.68048
2.67877
2.67165
2.66934
2.65738
2.63851
2.62097
2.60438
2.59035
2.57613
2.56304
2.55202
2.54332
2.53442
2.52394
2.51271
2.50174
2.49161
2.48239
2.4741
2.46665
2.46
2.45406
2.44875
2.44396
2.43958
2.43554
2.43175
2.42816
2.42473
2.42144
2.41827
2.41521
2.41226
2.40938
2.40659
2.40416
2.40462
2.40715
2.40977
2.41249
2.41531
2.41824
2.42128
2.42443
2.42769
2.43107
2.43456
2.43815
2.44186
2.44565
2.44954
2.45349
2.45749
2.4615
2.46547
2.46934
2.47301
2.47638
2.4793
2.48163
2.48328
2.48424
2.48465
2.48512
2.48643
2.49012
2.50432
2.53369
2.56285
2.58207
2.61211
2.63072
2.62324
2.62198
2.61862
2.63088
2.65143
2.65673
2.65173
2.65381
2.65312
2.65796
2.66571
2.6755
2.66977
2.66571
2.65437
2.6521
2.66042
2.66596
2.66934
2.67985
2.68453
2.68997
2.69141
2.69359
2.69378
2.69317
2.69245
2.68749
2.68299
2.6763
2.67636
2.66477
2.64499
2.62694
2.60996
2.59556
2.58099
2.56759
2.55626
2.5472
2.53802
2.52735
2.51588
2.50462
2.49416
2.48461
2.47597
2.4682
2.46122
2.45498
2.44936
2.44428
2.43963
2.43533
2.43129
2.42746
2.42381
2.4203
2.41692
2.41367
2.41053
2.40747
2.4045
2.4019
2.40268
2.40524
2.4079
2.41065
2.41352
2.41649
2.41957
2.42277
2.42608
2.42951
2.43305
2.43671
2.44048
2.44434
2.4483
2.45233
2.4564
2.46049
2.46455
2.46851
2.47226
2.4757
2.47867
2.48103
2.48264
2.48346
2.48357
2.48356
2.48429
2.4875
2.5023
2.53446
2.56159
2.57989
2.61026
2.62739
2.61889
2.61963
2.61673
2.62902
2.64844
2.65527
2.65125
2.65446
2.65481
2.6603
2.66767
2.67784
2.67341
2.67023
2.66037
2.65729
2.66834
2.67363
2.67766
2.68804
2.69347
2.69905
2.70069
2.70284
2.70294
2.70209
2.70074
2.69512
2.68815
2.6818
2.68386
2.67276
2.65197
2.63343
2.61595
2.60114
2.58617
2.57241
2.56073
2.55129
2.5418
2.53091
2.51921
2.50766
2.49688
2.48698
2.478
2.46988
2.46257
2.456
2.45007
2.44469
2.43976
2.43518
2.43088
2.4268
2.42291
2.41918
2.41559
2.41212
2.40879
2.40554
2.40241
2.39961
2.40073
2.40332
2.40601
2.40879
2.41168
2.41469
2.41781
2.42105
2.42441
2.42788
2.43148
2.43519
2.43901
2.44294
2.44696
2.45106
2.45522
2.4594
2.46355
2.46761
2.47147
2.475
2.47807
2.4805
2.48213
2.48289
2.48281
2.48243
2.48284
2.48606
2.50202
2.53695
2.56243
2.57776
2.60418
2.6186
2.61151
2.61584
2.61552
2.62765
2.64472
2.65281
2.65021
2.65477
2.6563
2.66219
2.66967
2.67983
2.6769
2.67512
2.66756
2.66572
2.67593
2.68237
2.68695
2.69704
2.70288
2.70869
2.71046
2.71255
2.71255
2.71148
2.70954
2.70347
2.69463
2.68842
2.69166
2.68106
2.65939
2.64041
2.62236
2.60711
2.59168
2.57751
2.56544
2.55558
2.54575
2.53461
2.52268
2.51086
2.49976
2.48952
2.48019
2.47171
2.46406
2.45715
2.45089
2.44519
2.43996
2.43509
2.43051
2.42618
2.42204
2.41807
2.41426
2.41059
2.40705
2.40361
2.40029
2.39729
2.39878
2.40138
2.40409
2.4069
2.40982
2.41285
2.416
2.41927
2.42267
2.42618
2.42982
2.43357
2.43745
2.44143
2.44552
2.44969
2.45393
2.4582
2.46245
2.46662
2.4706
2.47428
2.47749
2.48005
2.48182
2.48266
2.48257
2.48216
2.48276
2.48667
2.5042
2.54119
2.56516
2.57533
2.59404
2.60443
2.60156
2.61062
2.61454
2.62658
2.64047
2.64958
2.64854
2.65467
2.65754
2.66406
2.67128
2.68128
2.68011
2.68021
2.67554
2.67498
2.68527
2.6922
2.6973
2.70683
2.71309
2.71861
2.72069
2.72274
2.72267
2.72141
2.71894
2.71265
2.70267
2.69633
2.69971
2.68945
2.6672
2.64785
2.62921
2.61348
2.59753
2.5829
2.57042
2.56011
2.54987
2.53846
2.5263
2.51423
2.50282
2.49223
2.48253
2.47369
2.46567
2.45841
2.45181
2.44578
2.44022
2.43505
2.4302
2.42559
2.42119
2.41698
2.41293
2.40903
2.40528
2.40163
2.39813
2.39493
2.39682
2.39944
2.40217
2.40499
2.40792
2.41098
2.41415
2.41744
2.42086
2.4244
2.42807
2.43186
2.43578
2.43982
2.44396
2.4482
2.45252
2.45688
2.46124
2.46553
2.46965
2.4735
2.4769
2.47969
2.48171
2.48281
2.48301
2.48299
2.48444
2.4897
2.50882
2.54644
2.56881
2.57194
2.58019
2.58657
2.58988
2.60424
2.61344
2.62547
2.63586
2.64586
2.64635
2.65408
2.65839
2.66564
2.67251
2.68217
2.68297
2.68535
2.68413
2.68531
2.69574
2.70291
2.70838
2.71736
2.72371
2.72915
2.73144
2.73344
2.73331
2.73191
2.729
2.7227
2.71233
2.70561
2.70806
2.69786
2.67542
2.65573
2.63651
2.62027
2.60375
2.58861
2.57568
2.5649
2.55422
2.5425
2.5301
2.51778
2.50606
2.49512
2.48504
2.47582
2.46741
2.45977
2.45282
2.44644
2.44056
2.43507
2.42992
2.42503
2.42036
2.41589
2.4116
2.40747
2.4035
2.39965
2.39596
2.39254
2.39486
2.39749
2.40022
2.40305
2.406
2.40906
2.41224
2.41555
2.41898
2.42254
2.42623
2.43005
2.434
2.43808
2.44227
2.44657
2.45096
2.45541
2.45987
2.46429
2.46858
2.47261
2.47626
2.47936
2.48175
2.48332
2.4841
2.48494
2.48782
2.4948
2.51501
2.55143
2.57181
2.56702
2.56398
2.56729
2.57774
2.59734
2.612
2.62407
2.63115
2.64132
2.64425
2.65304
2.6587
2.66674
2.67334
2.68254
2.6854
2.69041
2.69306
2.69653
2.70695
2.71421
2.71999
2.72836
2.73481
2.7402
2.7427
2.74467
2.74453
2.74302
2.73981
2.73363
2.72353
2.71626
2.71682
2.70634
2.68409
2.6641
2.64431
2.62752
2.61039
2.59467
2.58127
2.57
2.55883
2.54677
2.53412
2.52153
2.50948
2.49817
2.48769
2.47807
2.46927
2.46124
2.45391
2.44718
2.44095
2.43514
2.42968
2.42449
2.41955
2.41482
2.41028
2.40592
2.40172
2.39766
2.39376
2.39013
2.39291
2.39552
2.39825
2.40108
2.40403
2.40709
2.41027
2.41359
2.41702
2.42059
2.4243
2.42813
2.43211
2.43621
2.44044
2.44479
2.44924
2.45377
2.45833
2.46288
2.46733
2.47158
2.47551
2.47898
2.48186