/*--------------------------------*- C++ -*----------------------------------*\
  =========                 |
  \\      /  F ield         | OpenFOAM: The Open Source CFD Toolbox
   \\    /   O peration     | Website:  https://openfoam.org
    \\  /    A nd           | Version:  9
     \\/     M anipulation  |
\*---------------------------------------------------------------------------*/
FoamFile
{
    format      ascii;
    class       volScalarField;
    location    "0.13";
    object      p_rgh;
}
// * * * * * * * * * * * * * * * * * * * * * * * * * * * * * * * * * * * * * //

dimensions      [1 -1 -2 0 0 0 0];

internalField   nonuniform List<scalar> 
20000
(
0.000114285
0.000219478
0.000263653
0.000255023
0.000194816
8.05117e-05
-9.29692e-05
-0.000333307
-0.000651589
-0.0010629
-0.001587
-0.00224925
-0.00308228
-0.00412861
-0.00544515
-0.00711129
-0.00924455
-0.0120325
-0.015802
-0.0211761
-0.0294562
-0.0435939
-0.0707451
-0.128653
-0.268366
-0.691642
-1.50347
-0.593406
-0.316122
-0.264883
-0.311392
-0.459168
-0.558121
-0.771218
-1.37086
-0.753887
-0.799237
-0.750863
-0.495418
-1.12802
-0.631663
-0.615559
-0.558311
-0.466558
-0.409319
-0.14666
-0.401679
-0.229885
-0.354809
-0.297097
-0.336241
-0.11
-0.650399
-0.204334
-0.286303
-0.200474
-0.174171
-0.163039
-0.166856
-0.18642
-0.223568
-0.282632
-0.374523
-0.512698
-0.554276
-0.912992
-1.09625
-0.663389
-0.533783
-0.379642
-0.302636
-0.255048
-0.217649
-0.15942
-0.0587333
-0.106703
-0.0924028
-0.121691
-0.10966
-0.0934879
-0.0768712
-0.0612718
-0.0471476
-0.0346884
-0.0240413
-0.0154028
-0.00895661
-0.00470911
-0.00236652
-0.00138413
-0.00116331
-0.00124042
-0.00135233
-0.00139322
-0.00134538
-0.00122448
-0.00104925
-0.000829852
-0.000562424
-0.000220349
9.28211e-05
0.000159381
0.000168128
0.000116011
-7.59843e-07
-0.000189229
-0.000459304
-0.00082422
-0.00130213
-0.00191773
-0.00270441
-0.00370725
-0.00498779
-0.00663146
-0.00875992
-0.0115519
-0.0152794
-0.0203735
-0.0275454
-0.0380208
-0.0539999
-0.0793646
-0.121071
-0.193355
-0.304077
-0.483224
-0.758249
-0.498056
-0.407262
-0.326446
-0.332221
-0.424975
-0.541484
-0.674432
-1.0452
-0.714417
-0.726183
-0.668267
-0.446618
-0.858513
-0.652921
-0.629456
-0.496194
-0.405135
-0.350488
-0.123988
-0.414607
-0.231001
-0.329206
-0.238111
-0.302348
-0.068888
-0.523768
-0.198038
-0.270942
-0.176225
-0.165563
-0.158889
-0.16531
-0.185031
-0.219368
-0.271011
-0.343845
-0.444512
-0.508432
-0.72539
-0.884631
-0.631008
-0.480931
-0.34348
-0.274746
-0.225666
-0.183768
-0.129378
-0.0638285
-0.137631
-0.106369
-0.10706
-0.0844774
-0.07197
-0.060055
-0.0486331
-0.0380768
-0.0286949
-0.0207084
-0.0142799
-0.00948285
-0.0062414
-0.00430834
-0.00331991
-0.00289559
-0.00272616
-0.00261977
-0.0024767
-0.00226285
-0.00197759
-0.00163052
-0.00122771
-0.000773545
-0.000277545
-4.10827e-05
-0.000164126
-0.000305114
-0.000483601
-0.000711
-0.00100023
-0.00136693
-0.00182976
-0.00241198
-0.00314335
-0.00406263
-0.00522102
-0.00668729
-0.00855531
-0.0109559
-0.0140754
-0.0181846
-0.0236851
-0.0311794
-0.0415811
-0.0563165
-0.077294
-0.106186
-0.150042
-0.214235
-0.29032
-0.386076
-0.289963
-0.296044
-0.271744
-0.290731
-0.35443
-0.481513
-0.560779
-0.762174
-0.558738
-0.620876
-0.580333
-0.463139
-0.689567
-0.536551
-0.534748
-0.441264
-0.359353
-0.332744
-0.151495
-0.372285
-0.189447
-0.306749
-0.190003
-0.272993
-0.070766
-0.399329
-0.131243
-0.244495
-0.153631
-0.154079
-0.14791
-0.154257
-0.171434
-0.200135
-0.242057
-0.29589
-0.367878
-0.450822
-0.582581
-0.65343
-0.47779
-0.41281
-0.304382
-0.247999
-0.204121
-0.169341
-0.134833
-0.0854089
-0.120356
-0.091644
-0.0978277
-0.0787315
-0.0667808
-0.0556425
-0.0456245
-0.0367255
-0.0289486
-0.0223427
-0.016945
-0.0127414
-0.00963542
-0.00744582
-0.00594279
-0.0049037
-0.00414891
-0.00354535
-0.00301638
-0.00252069
-0.00203825
-0.00156
-0.00107641
-0.000592786
-0.000172462
-8.29406e-05
-0.000288295
-0.000507356
-0.000754031
-0.00104141
-0.00138247
-0.00179289
-0.00229173
-0.00290249
-0.00365453
-0.004585
-0.00574141
-0.00718519
-0.00899673
-0.0112825
-0.0141844
-0.017892
-0.0226563
-0.0288015
-0.0367261
-0.0469631
-0.0601275
-0.0756467
-0.0955931
-0.124873
-0.154518
-0.192061
-0.160049
-0.183714
-0.194209
-0.230692
-0.276479
-0.378736
-0.441269
-0.532762
-0.429103
-0.503326
-0.485512
-0.433585
-0.551359
-0.43444
-0.434358
-0.379508
-0.313162
-0.305832
-0.156625
-0.319307
-0.164003
-0.270038
-0.148854
-0.23436
-0.0538454
-0.287066
-0.0868277
-0.205333
-0.127137
-0.137595
-0.13132
-0.137637
-0.151934
-0.174551
-0.206822
-0.246029
-0.291344
-0.354778
-0.438296
-0.456393
-0.34673
-0.332547
-0.256603
-0.216002
-0.181007
-0.153372
-0.131475
-0.0922836
-0.10456
-0.0835673
-0.0887912
-0.0723742
-0.0620742
-0.0519432
-0.0428756
-0.0350031
-0.0282182
-0.0224827
-0.0177636
-0.0140019
-0.0110954
-0.00889773
-0.00724225
-0.00597383
-0.00496839
-0.00413681
-0.00341931
-0.00277684
-0.00218575
-0.00163187
-0.00109832
-0.000584077
-0.000162404
-8.52754e-05
-0.000302373
-0.000530437
-0.000779067
-0.00106297
-0.00139314
-0.00178287
-0.00224878
-0.00281137
-0.00349588
-0.00433341
-0.00536231
-0.00663004
-0.00819571
-0.0101332
-0.0125336
-0.0155065
-0.0191794
-0.0236914
-0.0291701
-0.035754
-0.0436647
-0.0522321
-0.0610239
-0.071435
-0.0803756
-0.0953507
-0.0930604
-0.112868
-0.135744
-0.174688
-0.209626
-0.283888
-0.335949
-0.35368
-0.316902
-0.391267
-0.388979
-0.366062
-0.431507
-0.359977
-0.354447
-0.318199
-0.26361
-0.265487
-0.139497
-0.268522
-0.141267
-0.224261
-0.115363
-0.190931
-0.0284932
-0.196837
-0.0577615
-0.163206
-0.0997656
-0.117636
-0.111344
-0.118007
-0.129476
-0.146376
-0.169544
-0.196879
-0.222317
-0.252574
-0.304369
-0.301341
-0.24732
-0.256068
-0.206628
-0.180444
-0.154527
-0.132257
-0.118084
-0.0892599
-0.0954034
-0.0780367
-0.078832
-0.063499
-0.0550937
-0.0465153
-0.0388204
-0.0321715
-0.0264362
-0.0215844
-0.0175673
-0.0143089
-0.0117088
-0.00964765
-0.00800388
-0.00667076
-0.00556464
-0.0046238
-0.00380309
-0.0030703
-0.0024037
-0.00178849
-0.00120597
-0.000651098
-0.000189743
-6.45455e-05
-0.00024439
-0.000430572
-0.000629834
-0.000857535
-0.00112239
-0.0014348
-0.00180811
-0.0022587
-0.00280635
-0.0034747
-0.00429184
-0.00529119
-0.00651285
-0.0080046
-0.00982129
-0.0120226
-0.0146704
-0.017821
-0.0214961
-0.0256751
-0.0303525
-0.0349441
-0.0382788
-0.0396366
-0.0397037
-0.0452266
-0.0523814
-0.0678795
-0.0930828
-0.127528
-0.154962
-0.211208
-0.248072
-0.215921
-0.211528
-0.289153
-0.298414
-0.287061
-0.329715
-0.29703
-0.289898
-0.262041
-0.214785
-0.221344
-0.112729
-0.218394
-0.114933
-0.181415
-0.0849651
-0.147525
-0.00584103
-0.130056
-0.0338916
-0.123539
-0.073619
-0.0957589
-0.0894828
-0.0965085
-0.105234
-0.117175
-0.132377
-0.149597
-0.161674
-0.164866
-0.193578
-0.182758
-0.165394
-0.188314
-0.158976
-0.144379
-0.126846
-0.10968
-0.101309
-0.0806249
-0.0851241
-0.0705185
-0.0686203
-0.0544501
-0.0475253
-0.0403011
-0.0339929
-0.0285898
-0.0238995
-0.0199053
-0.0165599
-0.0137944
-0.0115274
-0.00966957
-0.00813429
-0.00684702
-0.00574896
-0.004795
-0.00395125
-0.00319278
-0.00250169
-0.00186507
-0.00126599
-0.000697953
-0.000214805
-2.457e-05
-0.00012729
-0.000230516
-0.000338639
-0.000466956
-0.000621881
-0.000810944
-0.00104423
-0.00133396
-0.00169447
-0.00214223
-0.00269598
-0.00337735
-0.00421149
-0.00522664
-0.00645135
-0.0079109
-0.0096254
-0.0116
-0.0137789
-0.0160063
-0.0180848
-0.0194465
-0.0190292
-0.0162269
-0.0133758
-0.0158775
-0.0234003
-0.034655
-0.0579728
-0.0870551
-0.106872
-0.149485
-0.171451
-0.112381
-0.120396
-0.20066
-0.2152
-0.207714
-0.242408
-0.237704
-0.233334
-0.209491
-0.168627
-0.177747
-0.0825574
-0.169078
-0.0867483
-0.141504
-0.0550924
-0.108908
0.0129948
-0.0808976
-0.0125718
-0.0878662
-0.0488388
-0.0728698
-0.0666025
-0.0737965
-0.0799437
-0.0878297
-0.096458
-0.105347
-0.107463
-0.0934954
-0.106239
-0.0915665
-0.0964016
-0.128671
-0.11493
-0.109541
-0.0995075
-0.0874165
-0.0834151
-0.0682582
-0.0714847
-0.0603522
-0.058045
-0.0457017
-0.0400812
-0.0339546
-0.0288189
-0.0244662
-0.0206714
-0.0174261
-0.014683
-0.0123855
-0.0104727
-0.00887818
-0.00753711
-0.00639315
-0.00540141
-0.00452743
-0.00374564
-0.00303714
-0.00238798
-0.00178806
-0.00122421
-0.000689673
-0.000224343
2.96113e-05
3.35804e-05
4.39314e-05
5.83169e-05
6.17998e-05
5.0153e-05
1.84818e-05
-4.02854e-05
-0.000134549
-0.000273648
-0.000467588
-0.000727019
-0.00106367
-0.00149033
-0.00201877
-0.00265516
-0.00339604
-0.00422633
-0.00511111
-0.0059568
-0.00655045
-0.00661771
-0.00573855
-0.0032434
0.00088884
0.00405828
0.00251872
-0.00343604
-0.0103936
-0.0284968
-0.0518071
-0.0633897
-0.090144
-0.101396
-0.0360207
-0.0470495
-0.125456
-0.140838
-0.132392
-0.165895
-0.178897
-0.179087
-0.15856
-0.124618
-0.135257
-0.0519333
-0.122147
-0.0574071
-0.103415
-0.0267108
-0.0746232
0.0297877
-0.0424085
0.00780972
-0.0557609
-0.0251514
-0.0496313
-0.0433593
-0.0504994
-0.0542499
-0.058911
-0.0621458
-0.06457
-0.0589123
-0.0347237
-0.0368781
-0.0202761
-0.038089
-0.0767687
-0.0749617
-0.0767253
-0.0730373
-0.0655279
-0.0648223
-0.0539735
-0.0560601
-0.0481415
-0.0465438
-0.0366166
-0.032448
-0.0274724
-0.0234468
-0.0200267
-0.0170274
-0.0144597
-0.0122778
-0.0104366
-0.00889031
-0.00758809
-0.00648068
-0.00552564
-0.00468908
-0.00394537
-0.00327554
-0.00266538
-0.00210404
-0.00158387
-0.00109593
-0.000633244
-0.000219435
9.40694e-05
0.00022576
0.000371149
0.000529833
0.000687268
0.000841181
0.000989027
0.00112643
0.00124841
0.00134995
0.00142647
0.00147378
0.00148772
0.0014652
0.00140816
0.00132823
0.00124648
0.00119343
0.00122501
0.0014435
0.00201481
0.00316254
0.00518214
0.0084216
0.0126052
0.0155206
0.0145666
0.00987052
0.00599841
-0.00556648
-0.022378
-0.0260107
-0.0334301
-0.0371261
0.0204754
0.00974
-0.0618477
-0.0760749
-0.0644885
-0.097596
-0.119646
-0.12474
-0.109018
-0.0821527
-0.0941744
-0.0227405
-0.0785999
-0.0278072
-0.0672335
-0.000344216
-0.0440616
0.0462193
-0.0100911
0.0276547
-0.0265873
-0.00245346
-0.0265966
-0.0203115
-0.0272572
-0.0288137
-0.030981
-0.0298355
-0.0274295
-0.0161151
0.0146251
0.0191948
0.0355883
0.0105678
-0.0325335
-0.0392578
-0.0463723
-0.0477424
-0.0440898
-0.0459502
-0.0389023
-0.0401617
-0.0348162
-0.0343048
-0.0270066
-0.0244052
-0.0207252
-0.0178524
-0.0153578
-0.0131401
-0.011234
-0.00960142
-0.00821256
-0.00703581
-0.00603496
-0.00517529
-0.00442723
-0.0037674
-0.003178
-0.00264564
-0.00215998
-0.00171263
-0.00129796
-0.000911426
-0.000545462
-0.000204714
0.000168218
0.000440845
0.000734601
0.00105048
0.00137481
0.00170719
0.00204683
0.00239149
0.00273895
0.00308768
0.0034372
0.00378763
0.00413923
0.00449421
0.0048626
0.00526744
0.00574057
0.00631497
0.00704008
0.00800906
0.00934655
0.0111868
0.0137237
0.0171315
0.0210145
0.0236116
0.0230011
0.0192935
0.0170292
0.0113205
0.00107568
0.00436284
0.0172643
0.0199079
0.0629326
0.0513314
-0.00660948
-0.0207848
-0.00631962
-0.0366397
-0.0600345
-0.0700247
-0.0615058
-0.0413621
-0.0551616
0.00274359
-0.0375208
0.00105438
-0.0332773
0.0243956
-0.0142897
0.0609592
0.0180902
0.046914
0.000149254
0.0191757
-0.00417419
0.0021298
-0.00456036
-0.00417984
-0.00448908
6.10469e-05
0.00605698
0.0211146
0.0569506
0.065007
0.0787908
0.0501397
0.00462882
-0.00780175
-0.0188006
-0.0240198
-0.0235374
-0.0273856
-0.0236084
-0.0243705
-0.0211297
-0.0219025
-0.0172054
-0.0161471
-0.0138103
-0.0120908
-0.0105189
-0.00908209
-0.00783103
-0.00674105
-0.00580036
-0.00499294
-0.00429778
-0.00369454
-0.00316586
-0.00269778
-0.00227939
-0.00190217
-0.0015592
-0.0012442
-0.000953258
-0.000686529
-0.000435464
-0.000182632
0.000238102
0.000662119
0.00111472
0.00159578
0.00209429
0.00261152
0.00314808
0.00370346
0.00427761
0.00487165
0.0054879
0.00612891
0.00679678
0.00749591
0.00823995
0.00905557
0.00997614
0.0110372
0.0122862
0.0137918
0.0156419
0.0179204
0.0207316
0.024127
0.0276362
0.0298542
0.0293923
0.0264054
0.0249179
0.0237117
0.0194676
0.0283685
0.059322
0.0677122
0.0959401
0.0846304
0.0378793
0.0253765
0.0414689
0.0171467
-0.0015812
-0.0160447
-0.0167137
-0.00267462
-0.0183284
0.0256779
0.000336472
0.0282601
-0.00173552
0.0474934
0.0139369
0.0757525
0.043527
0.0655864
0.0248384
0.0396557
0.0174183
0.0236719
0.0172924
0.019306
0.0203296
0.027355
0.036057
0.0532879
0.0938881
0.102688
0.111655
0.0815039
0.0357214
0.0195843
0.00585762
-0.00219306
-0.00429491
-0.00964798
-0.00853568
-0.00915172
-0.00770298
-0.00983572
-0.0075831
-0.0079688
-0.00693582
-0.00630991
-0.00562304
-0.00494106
-0.00432268
-0.00375891
-0.00325609
-0.0028133
-0.00242431
-0.00208235
-0.00178122
-0.00151541
-0.00128012
-0.00107117
-0.000884667
-0.000716089
-0.000562972
-0.000430483
-0.000308678
-0.000154612
0.000312153
0.000887997
0.00150024
0.00214861
0.00282341
0.00352642
0.00425943
0.00502337
0.00581997
0.00665245
0.00752528
0.00844257
0.00940677
0.0104219
0.0115019
0.0126735
0.013966
0.0154097
0.0170531
0.0189535
0.0211651
0.0237338
0.0266905
0.0299847
0.0331092
0.0349215
0.0344767
0.0320703
0.0308438
0.0328762
0.03382
0.0470631
0.0917959
0.10514
0.122162
0.112426
0.073845
0.0639084
0.0796151
0.0636089
0.0534775
0.0353629
0.0247126
0.0334789
0.0163783
0.0492146
0.0331436
0.0533039
0.027313
0.0689425
0.0406397
0.0906825
0.0667254
0.0835082
0.0476818
0.0589139
0.0379673
0.0442534
0.0381331
0.0414448
0.0434011
0.0520591
0.0628201
0.0809401
0.125974
0.133548
0.1364
0.106022
0.0617233
0.0432282
0.0276869
0.0176027
0.0134095
0.00689213
0.00586521
0.00504953
0.00497547
0.00156101
0.00162867
-6.67359e-05
-0.000258726
-0.000643236
-0.000786265
-0.000816298
-0.000796156
-0.000733641
-0.000651351
-0.000562176
-0.000473748
-0.000391789
-0.000320173
-0.000261066
-0.00021515
-0.000182066
-0.000160582
-0.000147553
-0.000141688
-0.000153436
-0.000171043
-0.000122401
0.000386301
0.00111423
0.00188514
0.00269892
0.0035472
0.00443223
0.00535654
0.00632218
0.00733219
0.00839132
0.00950562
0.0106801
0.0119174
0.0132209
0.0146037
0.0160899
0.017703
0.0194657
0.0214194
0.0236136
0.0260787
0.0288249
0.0318268
0.0349604
0.0377247
0.0391649
0.0386564
0.0367098
0.0354638
0.0396399
0.0448508
0.061316
0.115204
0.132589
0.142917
0.135671
0.103488
0.0963019
0.109736
0.102872
0.102771
0.0822171
0.0621395
0.0666403
0.0484445
0.0728355
0.0617653
0.0763501
0.0538699
0.0886817
0.0654582
0.105516
0.0876173
0.100331
0.0687038
0.0768635
0.0580858
0.0631174
0.0578416
0.0621071
0.0647222
0.0742772
0.0865635
0.104516
0.152944
0.158229
0.155145
0.125278
0.0834773
0.063559
0.0468992
0.0353785
0.0294939
0.0220098
0.0192521
0.0179851
0.0166332
0.0120986
0.0102988
0.00744662
0.00613106
0.00482564
0.00391221
0.00321799
0.0026781
0.0022683
0.00195188
0.00170319
0.00150161
0.00132994
0.00117511
0.00102807
0.000883244
0.000737649
0.000590231
0.000443094
0.000296644
0.000134891
-2.82493e-05
-8.78705e-05
0.000458813
0.00133659
0.00226328
0.00323842
0.00425507
0.00531588
0.00642375
0.00758122
0.008792
0.0100619
0.0113984
0.0128081
0.0142938
0.0158584
0.0175135
0.0192805
0.0211765
0.0232152
0.025424
0.0278392
0.0304754
0.033317
0.0363009
0.0392536
0.0416957
0.0428103
0.0421588
0.0403287
0.0394108
0.0446184
0.0531276
0.0718927
0.131019
0.151637
0.158781
0.154486
0.127552
0.123421
0.133765
0.135318
0.144478
0.1229
0.0950515
0.0963566
0.0773365
0.0953656
0.0871011
0.0976471
0.0779995
0.106641
0.0884972
0.11918
0.106013
0.115771
0.0878674
0.0933658
0.0768303
0.0810801
0.0764537
0.0812541
0.084327
0.0941624
0.107473
0.124407
0.174327
0.177141
0.169801
0.140833
0.101752
0.0810444
0.0637497
0.0512273
0.0439636
0.0356248
0.0314594
0.0296267
0.0272037
0.0217168
0.0183635
0.0145045
0.0121792
0.0100447
0.00842304
0.00711491
0.00605473
0.0052035
0.00451254
0.00394435
0.00346617
0.00305025
0.0026752
0.00232574
0.00199205
0.00166821
0.00135124
0.00104251
0.000741829
0.000427461
0.000115681
-5.25468e-05
0.000529326
0.00155351
0.0026319
0.00376318
0.00494209
0.00617165
0.00745514
0.00879543
0.0101964
0.0116638
0.0132055
0.014829
0.016538
0.0183351
0.0202299
0.0222407
0.02438
0.0266533
0.0290736
0.0316618
0.0344196
0.037314
0.0402542
0.0430333
0.0451912
0.046021
0.0452113
0.0434032
0.0426294
0.0482195
0.059177
0.0795306
0.141212
0.164295
0.170276
0.168172
0.146469
0.145837
0.153588
0.161635
0.177609
0.156398
0.123179
0.122327
0.102858
0.116083
0.109666
0.117258
0.0997659
0.122796
0.107987
0.132528
0.121982
0.129804
0.105304
0.108403
0.0941631
0.0981327
0.0938841
0.0989332
0.102283
0.111914
0.125738
0.141045
0.189992
0.190765
0.181821
0.153973
0.11723
0.0961414
0.0785099
0.065299
0.0568987
0.047791
0.0424811
0.040062
0.0367409
0.0304492
0.0258154
0.0210807
0.0178591
0.0149841
0.0127174
0.010847
0.00930724
0.00804655
0.00700632
0.00613812
0.00539805
0.00474883
0.00416147
0.00361523
0.0030965
0.00259691
0.00211183
0.00164216
0.00118743
0.00072004
0.000258568
-1.75436e-05
0.000597309
0.00176292
0.00298752
0.00426884
0.0056033
0.00699433
0.00844543
0.0099594
0.0115394
0.0131906
0.0149207
0.0167379
0.0186467
0.0206489
0.022752
0.0249709
0.027316
0.0297881
0.0323886
0.0351223
0.0379777
0.0409072
0.0437967
0.0464171
0.0483257
0.048906
0.0479348
0.0460923
0.0452884
0.0508204
0.0634978
0.0849017
0.147743
0.172475
0.177162
0.177739
0.160939
0.164081
0.170787
0.182764
0.202076
0.182379
0.146548
0.144485
0.12512
0.134761
0.129699
0.135139
0.119247
0.137467
0.124405
0.145091
0.135694
0.142489
0.121332
0.122235
0.110308
0.113879
0.110092
0.115217
0.118682
0.127766
0.141584
0.154921
0.200453
0.199839
0.192172
0.165552
0.130456
0.109258
0.0914509
0.077781
0.0684375
0.0586526
0.0524114
0.0494301
0.0453558
0.038382
0.0326882
0.0271866
0.0231725
0.0196377
0.0167866
0.0144044
0.0124249
0.0107865
0.00942195
0.00827312
0.00728602
0.00641476
0.00562365
0.00488702
0.00418805
0.00351626
0.00286563
0.00223673
0.00162933
0.00101038
0.00039984
1.65013e-05
0.000661822
0.00196183
0.00332504
0.00474814
0.00622937
0.00777265
0.00938183
0.0110596
0.012808
0.0146307
0.0165348
0.0185288
0.0206185
0.0228058
0.025095
0.027497
0.0300199
0.0326626
0.0354179
0.0382764
0.0412126
0.0441655
0.0470022
0.0494792
0.0511747
0.0515469
0.050428
0.0485023
0.0476122
0.0527249
0.0665524
0.0886004
0.152184
0.17787
0.179834
0.183177
0.17155
0.178661
0.186442
0.199683
0.218587
0.20117
0.165458
0.162983
0.144367
0.151395
0.147369
0.151285
0.136595
0.150911
0.138779
0.156249
0.147581
0.153769
0.135701
0.135606
0.12526
0.128406
0.125175
0.130206
0.133644
0.141964
0.155281
0.166533
0.206736
0.205223
0.201598
0.176014
0.141842
0.120734
0.102825
0.088872
0.0787464
0.0683905
0.0613864
0.0578858
0.053179
0.0456226
0.0390404
0.0328613
0.0281457
0.0240215
0.0206419
0.0177945
0.0154125
0.0134258
0.0117602
0.0103487
0.00912823
0.0080454
0.0070585
0.00613764
0.00526318
0.00442294
0.00360976
0.00282379
0.0020654
0.00129741
0.000538873
4.82989e-05
0.000722914
0.00215009
0.00364414
0.00520075
0.00682041
0.00850783
0.0102671
0.0121006
0.014009
0.0159942
0.0180615
0.0202195
0.0224755
0.0248318
0.0272901
0.0298558
0.0325341
0.0353218
0.038207
0.041169
0.0441703
0.0471369
0.0499233
0.0522763
0.0537968
0.0540043
0.0527393
0.0507693
0.0497034
0.0543025
0.068795
0.0911927
0.155584
0.181639
0.179181
0.18462
0.178867
0.190009
0.201036
0.213192
0.22843
0.213673
0.180416
0.17813
0.160866
0.166049
0.162856
0.165763
0.152008
0.163147
0.151576
0.165622
0.158661
0.163892
0.148942
0.148192
0.13898
0.141935
0.13922
0.144024
0.147322
0.154757
0.167147
0.176381
0.210224
0.20909
0.209225
0.185401
0.151682
0.130839
0.112861
0.0987635
0.0879941
0.0771808
0.0695434
0.0655702
0.0603322
0.0522778
0.0449425
0.0381607
0.0328225
0.0281695
0.0243107
0.0210394
0.0182876
0.0159784
0.0140318
0.0123726
0.0109302
0.00964434
0.00846806
0.00736791
0.00632188
0.00531636
0.00434334
0.00340288
0.00249494
0.00157819
0.000674992
7.34706e-05
0.000780834
0.00232854
0.00394625
0.00562873
0.00737897
0.00920247
0.0111035
0.0130842
0.0151442
0.0172836
0.0195055
0.0218175
0.0242269
0.0267371
0.0293479
0.0320604
0.0348753
0.0377878
0.0407826
0.043831
0.0468857
0.049863
0.0526077
0.0548623
0.0562502
0.0563459
0.0549891
0.052979
0.0517808
0.0557117
0.0706734
0.093288
0.158523
0.1843
0.176171
0.18284
0.183626
0.19854
0.214507
0.223812
0.233238
0.221186
0.192054
0.19034
0.174882
0.178808
0.176359
0.178685
0.165709
0.17422
0.163174
0.174353
0.168777
0.173123
0.160682
0.160118
0.151851
0.154652
0.152325
0.156822
0.159884
0.166385
0.177535
0.184932
0.212177
0.211503
0.215875
0.193774
0.16022
0.139788
0.121764
0.107632
0.0963377
0.0851775
0.0769987
0.0726002
0.0669174
0.0584427
0.0504692
0.0431498
0.0372573
0.0321267
0.0278311
0.0241709
0.0210764
0.0184658
0.0162537
0.0143581
0.0127015
0.0112188
0.0098574
0.00858122
0.0073663
0.00619781
0.00506709
0.00397428
0.00291933
0.00185662
0.000811079
9.67815e-05
0.000834399
0.00249338
0.00422535
0.00602454
0.00789622
0.00984608
0.0118783
0.0139948
0.0161955
0.0184793
0.0208477
0.0233055
0.0258592
0.0285119
0.0312628
0.0341095
0.037049
0.0400737
0.0431661
0.0462916
0.0493949
0.0523848
0.0550998
0.0572849
0.0585854
0.0586176
0.0572498
0.0552498
0.0539854
0.0574623
0.072442
0.0955642
0.161208
0.185993
0.171782
0.179001
0.18669
0.204652
0.226405
0.231818
0.234707
0.225177
0.201047
0.200085
0.186679
0.189789
0.188097
0.190194
0.177932
0.184285
0.17384
0.183106
0.177881
0.181497
0.171598
0.17107
0.163891
0.1666
0.164595
0.168754
0.171505
0.177078
0.186807
0.192608
0.213828
0.21301
0.221714
0.200959
0.167646
0.147762
0.129716
0.115639
0.10392
0.0925177
0.0838405
0.0790742
0.0730249
0.064201
0.0556925
0.0478974
0.0415074
0.0359417
0.0312448
0.0272238
0.023808
0.0209112
0.0184442
0.0163196
0.0144538
0.0127763
0.0112318
0.00978107
0.00839839
0.00706796
0.0057805
0.00453608
0.00333489
0.00212842
0.000942578
0.000112074
0.000884284
0.00264663
0.00448446
0.00639214
0.00837709
0.0104441
0.0125965
0.0148362
0.0171643
0.0195807
0.0220857
0.0246816
0.0273721
0.0301592
0.0330409
0.0360131
0.0390692
0.0421986
0.045381
0.0485787
0.0517303
0.054736
0.057433
0.0595789
0.0608397
0.0608729
0.0595651
0.0576666
0.0564316
0.0595869
0.0749738
0.0981701
0.163541
0.186815
0.166976
0.174261
0.188925
0.208705
0.236122
0.23741
0.234334
0.227044
0.208058
0.207854
0.196535
0.199153
0.198298
0.200463
0.188887
0.193479
0.183623
0.191615
0.186301
0.189478
0.181502
0.181198
0.175175
0.177841
0.176143
0.17996
0.182361
0.18705
0.195318
0.199798
0.21621
0.216229
0.224803
0.206689
0.174094
0.154917
0.136887
0.122933
0.110871
0.0993522
0.0901032
0.0850866
0.0787427
0.0696394
0.0606814
0.0524666
0.0456253
0.0396612
0.0345914
0.0302298
0.0265082
0.0233361
0.0206205
0.01827
0.0161965
0.0143247
0.0125966
0.0109707
0.00941983
0.00792717
0.00648292
0.0050869
0.00373945
0.00239009
0.00106532
0.000114965
0.000932452
0.00279444
0.00473386
0.00674562
0.00883896
0.0110169
0.0132808
0.0156332
0.0180768
0.0206131
0.0232427
0.0259662
0.0287841
0.0316961
0.0346992
0.0377876
0.0409526
0.0441802
0.0474468
0.050712
0.0539108
0.0569385
0.0596342
0.0617622
0.0630258
0.0631287
0.0619716
0.0602766
0.0592186
0.0621627
0.0769474
0.101724
0.166131
0.186958
0.162587
0.169548
0.191311
0.211019
0.243087
0.240758
0.233368
0.227963
0.213691
0.214108
0.204738
0.2071
0.207196
0.20967
0.198745
0.201884
0.192505
0.199566
0.194172
0.197141
0.190608
0.190781
0.185826
0.188498
0.187096
0.190583
0.192622
0.196495
0.203364
0.206781
0.219588
0.219537
0.227266
0.211265
0.179803
0.161394
0.143432
0.129659
0.117285
0.105517
0.0960536
0.0908498
0.0841788
0.0748515
0.065499
0.0569064
0.0496533
0.0433222
0.0379011
0.0332152
0.0291981
0.025757
0.0227962
0.0202202
0.0179373
0.0158694
0.0139558
0.0121529
0.0104323
0.00877625
0.00717436
0.00562618
0.00413207
0.00264021
0.00117727
0.000102576
0.000977125
0.00293236
0.00496855
0.00708062
0.00927814
0.0115619
0.0139319
0.0163907
0.0189419
0.0215887
0.0243322
0.0271719
0.0301061
0.0331325
0.0362467
0.0394419
0.0427075
0.0460268
0.0493729
0.0527021
0.0559469
0.0590012
0.061708
0.0638471
0.0651559
0.0653898
0.0644805
0.063111
0.062397
0.0654699
0.0800029
0.106331
0.16712
0.186363
0.159391
0.16769
0.19341
0.211442
0.246795
0.241849
0.233003
0.228835
0.218444
0.219261
0.211584
0.213859
0.215017
0.217991
0.207652
0.209565
0.200487
0.206768
0.201496
0.204318
0.199205
0.199938
0.195958
0.198698
0.197578
0.200758
0.202449
0.205584
0.211184
0.213736
0.224216
0.223273
0.229184
0.214761
0.185127
0.167299
0.149522
0.135977
0.123353
0.111508
0.102012
0.0957275
0.0894696
0.0798454
0.0701723
0.0612471
0.053628
0.0469519
0.0411961
0.0361995
0.0318941
0.0281862
0.0249799
0.0221763
0.0196813
0.0174144
0.0153123
0.0133299
0.0114372
0.00961586
0.00785487
0.00615336
0.00451164
0.00287726
0.00127672
7.25477e-05
0.00101695
0.00305555
0.00518038
0.00738546
0.00967919
0.0120612
0.0145315
0.0170922
0.019747
0.0224988
0.0253487
0.0282957
0.0313371
0.0344689
0.0376858
0.04098
0.0443395
0.0477452
0.0511668
0.0545581
0.0578492
0.0609348
0.0636643
0.0658369
0.0672267
0.0676427
0.06706
0.0661322
0.0658971
0.0692995
0.0837011
0.110412
0.168256
0.185757
0.158636
0.167172
0.194367
0.213273
0.247353
0.241567
0.233384
0.230194
0.22268
0.223658
0.217364
0.219676
0.221965
0.225588
0.215751
0.216602
0.207576
0.213113
0.208267
0.211055
0.207249
0.208692
0.205668
0.208542
0.207702
0.210613
0.21199
0.214469
0.218973
0.220782
0.23
0.227754
0.230709
0.217484
0.190152
0.172806
0.155365
0.142023
0.129186
0.117251
0.107659
0.101189
0.0940672
0.0845325
0.0746928
0.065516
0.0575742
0.0505734
0.0444961
0.0391965
0.0346056
0.0306313
0.0271772
0.024143
0.0214323
0.0189625
0.0166685
0.0145033
0.0124359
0.0104468
0.00852468
0.0066681
0.00487721
0.00309959
0.00136142
2.26561e-05
0.00105621
0.00317303
0.00537941
0.00766802
0.0100472
0.0125175
0.01508
0.0177367
0.0204899
0.0233414
0.0262916
0.0293389
0.0324802
0.0357107
0.0390242
0.0424119
0.0458603
0.0493481
0.0528421
0.0562936
0.0596311
0.062751
0.0655108
0.0677307
0.0692241
0.0698535
0.0696451
0.069241
0.0695943
0.0734564
0.0879131
0.114647
0.170028
0.18518
0.158788
0.169618
0.19694
0.21357
0.245025
0.240285
0.234797
0.232324
0.226639
0.227569
0.222355
0.224797
0.228217
0.232598
0.223186
0.2231
0.213786
0.218534
0.214482
0.217389
0.214731
0.217111
0.215054
0.218132
0.217578
0.220268
0.221376
0.223279
0.226871
0.227986
0.236518
0.232787
0.232368
0.219477
0.195422
0.178166
0.161157
0.147885
0.134884
0.122837
0.113075
0.106328
0.098861
0.0892008
0.079177
0.0697668
0.0615179
0.0542053
0.0478149
0.0422154
0.0373394
0.0330971
0.0293924
0.0261237
0.0231933
0.0205166
0.0180268
0.0156752
0.0134297
0.01127
0.00918388
0.00716964
0.00522708
0.00330414
0.00142655
-5.11864e-05
0.00109778
0.00329291
0.00557715
0.0079418
0.0103982
0.0129488
0.0155958
0.0183408
0.0211852
0.0241292
0.0271723
0.0303128
0.0335472
0.0368706
0.0402756
0.0437523
0.0472852
0.050851
0.054414
0.0579231
0.0613058
0.0644603
0.0672526
0.0695238
0.0711259
0.0719739
0.0721487
0.0722974
0.0733015
0.0776911
0.0922896
0.118617
0.170017
0.181771
0.16499
0.175459
0.200504
0.213761
0.240131
0.238078
0.237084
0.235229
0.230453
0.231195
0.226801
0.229443
0.233919
0.239091
0.230051
0.229286
0.219197
0.223058
0.220197
0.223356
0.22173
0.225294
0.22422
0.227572
0.227312
0.229832
0.23072
0.232122
0.234959
0.235363
0.243311
0.238114
0.234732
0.222103
0.200387
0.183592
0.166929
0.153678
0.140536
0.128377
0.118439
0.111362
0.10366
0.0938872
0.083686
0.0740372
0.065484
0.0578634
0.0511623
0.0452633
0.0401011
0.0355884
0.0316295
0.0281222
0.0249676
0.0220796
0.0193895
0.0168475
0.01442
0.0120859
0.00983232
0.00765698
0.00555944
0.00348811
0.00146791
-0.000152791
0.00113733
0.00340707
0.00576498
0.0082011
0.0107309
0.0133582
0.0160847
0.0189118
0.0218401
0.0248692
0.0279982
0.0312251
0.0345466
0.0379576
0.0414497
0.0450111
0.0486245
0.0522646
0.0558934
0.0594578
0.0628837
0.0660708
0.0688928
0.0712095
0.0729069
0.0739477
0.0744663
0.0751246
0.0767481
0.0816118
0.0962925
0.121981
0.169084
0.180377
0.172149
0.183789
0.204643
0.213733
0.234064
0.235945
0.239945
0.238733
0.234148
0.234662
0.2309
0.233805
0.239245
0.245162
0.235991
0.23588
0.223899
0.226836
0.225548
0.229056
0.228382
0.233339
0.233274
0.236965
0.237009
0.239404
0.240119
0.241085
0.24328
0.242909
0.249989
0.243572
0.23808
0.225649
0.20569
0.189184
0.172783
0.159517
0.14623
0.133945
0.123837
0.116432
0.10849
0.0986124
0.0882367
0.0783455
0.0694897
0.0615604
0.054548
0.0483482
0.0428976
0.0381113
0.0338942
0.0301437
0.0267599
0.0236554
0.0207602
0.0180228
0.0154087
0.0128956
0.0104703
0.00812959
0.00587293
0.00364923
0.00148227
-0.000285397
0.00117022
0.00350379
0.00592771
0.00843132
0.0110321
0.0137334
0.0165357
0.0194399
0.0224465
0.0255551
0.0287646
0.032073
0.0354773
0.0389719
0.0425476
0.0461906
0.0498818
0.0535938
0.0572866
0.0609049
0.0643727
0.0675901
0.0704358
0.0727838
0.0745463
0.0757242
0.0764963
0.0775411
0.0796423
0.0848038
0.0994447
0.124603
0.167318
0.179763
0.180691
0.194023
0.209229
0.214208
0.228182
0.233444
0.242874
0.2425
0.237676
0.238036
0.234796
0.238023
0.244409
0.251408
0.243091
0.241106
0.227469
0.230157
0.230775
0.234686
0.234895
0.241369
0.242334
0.246412
0.246762
0.249075
0.249654
0.250237
0.251857
0.250623
0.256294
0.249074
0.24266
0.230319
0.211607
0.195093
0.17885
0.165506
0.152045
0.139611
0.129317
0.121597
0.113419
0.103421
0.0928568
0.0827138
0.073552
0.0653104
0.0579845
0.0514812
0.0457391
0.0406752
0.036195
0.0321958
0.028577
0.02525
0.0221435
0.019205
0.0163986
0.0137013
0.011099
0.00858803
0.00616746
0.00378693
0.00146881
-0.000450837
0.00119779
0.00358473
0.00606637
0.00863235
0.0112994
0.0140693
0.0169415
0.0199171
0.0229965
0.0261797
0.0294656
0.0328524
0.0363365
0.039912
0.0435686
0.0472912
0.0510587
0.054842
0.0585993
0.0622723
0.0657827
0.0690291
0.0718919
0.0742527
0.0760388
0.0772749
0.0781685
0.0794068
0.0817443
0.0869298
0.101401
0.126458
0.164976
0.179419
0.189871
0.205001
0.21379
0.215243
0.222928
0.231105
0.245449
0.246155
0.24095
0.241331
0.238589
0.242173
0.249327
0.256922
0.24923
0.245237
0.233046
0.233736
0.236217
0.240539
0.241562
0.249534
0.251528
0.256012
0.256664
0.258925
0.259396
0.259639
0.260702
0.258526
0.26217
0.254624
0.24859
0.2363
0.218158
0.201432
0.185222
0.171721
0.158052
0.145436
0.134932
0.126896
0.118486
0.108347
0.0975774
0.0871682
0.0776924
0.0691325
0.0614888
0.054678
0.0486398