/*--------------------------------*- C++ -*----------------------------------*\
  =========                 |
  \\      /  F ield         | OpenFOAM: The Open Source CFD Toolbox
   \\    /   O peration     | Website:  https://openfoam.org
    \\  /    A nd           | Version:  9
     \\/     M anipulation  |
\*---------------------------------------------------------------------------*/
FoamFile
{
    format      ascii;
    class       surfaceScalarField;
    location    "0.13";
    object      phi;
}
// * * * * * * * * * * * * * * * * * * * * * * * * * * * * * * * * * * * * * //

dimensions      [0 3 -1 0 0 0 0];

internalField   nonuniform List<scalar> 
39700
(
-2.04437e-06
2.81125e-06
-2.04431e-06
2.94411e-06
-2.04426e-06
3.08358e-06
-2.0442e-06
3.22927e-06
-2.04414e-06
3.38124e-06
-2.04407e-06
3.53967e-06
-2.04399e-06
3.70479e-06
-2.04391e-06
3.87686e-06
-2.0438e-06
4.05608e-06
-2.04369e-06
4.24266e-06
-2.04355e-06
4.43684e-06
-2.04339e-06
4.63885e-06
-2.04321e-06
4.84899e-06
-2.043e-06
5.06765e-06
-2.04274e-06
5.29536e-06
-2.04241e-06
5.53288e-06
-2.04198e-06
5.78136e-06
-2.04133e-06
6.04261e-06
-2.04023e-06
6.31945e-06
-2.03813e-06
6.61646e-06
-2.0336e-06
6.94137e-06
-2.02285e-06
7.30804e-06
-1.9946e-06
7.73777e-06
-1.91297e-06
8.19528e-06
-1.68725e-06
8.03051e-06
-1.6045e-06
4.80649e-06
-2.57263e-06
1.07501e-06
-2.25058e-06
7.02624e-06
-2.06723e-06
1.20951e-05
-2.01159e-06
1.39479e-05
-1.98068e-06
1.80796e-05
-1.97571e-06
1.95797e-05
-1.82695e-06
1.97365e-05
-1.73693e-06
6.30992e-06
-2.29359e-06
3.57535e-06
-2.0748e-06
2.0113e-05
-2.05397e-06
2.14458e-05
-2.06072e-06
2.14297e-05
-1.89876e-06
1.96701e-05
-2.32025e-06
4.14108e-06
-2.15695e-06
8.04686e-06
-2.05996e-06
1.98532e-05
-2.07147e-06
2.04389e-05
-2.07242e-06
1.98304e-05
-2.10156e-06
1.97387e-05
-2.00859e-06
1.73082e-05
-2.09734e-06
8.81755e-06
-2.02667e-06
1.7308e-05
-2.04489e-06
1.90969e-05
-2.04455e-06
1.86594e-05
-2.05357e-06
1.902e-05
-1.91492e-06
1.65502e-05
-2.19041e-06
6.73767e-06
-2.06547e-06
1.65489e-05
-2.06366e-06
1.84174e-05
-2.05813e-06
1.77121e-05
-2.05042e-06
1.73405e-05
-2.04344e-06
1.71831e-05
-2.03632e-06
1.71883e-05
-2.02845e-06
1.737e-05
-2.01881e-06
1.77197e-05
-2.00547e-06
1.82335e-05
-1.98907e-06
1.89582e-05
-1.99257e-06
2.01036e-05
-1.82079e-06
1.97525e-05
-1.98349e-06
5.21685e-06
-2.31084e-06
4.82279e-06
-2.10853e-06
1.96805e-05
-2.09747e-06
2.01507e-05
-2.08011e-06
1.91117e-05
-2.06937e-06
1.51544e-05
-2.06522e-06
1.41914e-05
-2.0755e-06
1.34079e-05
-2.09247e-06
1.25976e-05
-2.04613e-06
1.06535e-05
-2.05521e-06
7.82962e-06
-2.02856e-06
9.58823e-06
-2.04392e-06
1.00375e-05
-2.05579e-06
9.49653e-06
-2.05919e-06
8.86902e-06
-2.05957e-06
8.29764e-06
-2.05904e-06
7.76963e-06
-2.05812e-06
7.27529e-06
-2.05689e-06
6.80945e-06
-2.05528e-06
6.36827e-06
-2.05329e-06
5.94997e-06
-2.05106e-06
5.55612e-06
-2.04894e-06
5.19157e-06
-2.04727e-06
4.86212e-06
-2.04619e-06
4.57109e-06
-2.04562e-06
4.31698e-06
-2.04536e-06
4.09409e-06
-2.04524e-06
3.89501e-06
-2.04518e-06
3.71302e-06
-2.04512e-06
3.54328e-06
-2.04508e-06
3.38285e-06
-2.04505e-06
3.23014e-06
-2.04505e-06
3.0844e-06
-2.04508e-06
2.94532e-06
2.81291e-06
-2.0442e-06
2.81109e-06
-2.04408e-06
2.94399e-06
-2.04395e-06
3.08346e-06
-2.0438e-06
3.22913e-06
-2.04363e-06
3.38107e-06
-2.04343e-06
3.53946e-06
-2.04319e-06
3.70456e-06
-2.04291e-06
3.87658e-06
-2.04257e-06
4.05574e-06
-2.04216e-06
4.24226e-06
-2.04167e-06
4.43635e-06
-2.04108e-06
4.63825e-06
-2.04034e-06
4.84826e-06
-2.03941e-06
5.06672e-06
-2.0382e-06
5.29415e-06
-2.03654e-06
5.53122e-06
-2.03416e-06
5.77898e-06
-2.0305e-06
6.03895e-06
-2.02449e-06
6.31344e-06
-2.01392e-06
6.60588e-06
-1.99412e-06
6.92157e-06
-1.95501e-06
7.26893e-06
-1.87306e-06
7.65583e-06
-1.69348e-06
8.0157e-06
-1.39397e-06
7.731e-06
-1.49954e-06
4.91205e-06
-2.5638e-06
2.13927e-06
-2.43324e-06
6.89568e-06
-2.11311e-06
1.17749e-05
-1.96572e-06
1.38005e-05
-1.8773e-06
1.79912e-05
-1.79773e-06
1.95002e-05
-1.53058e-06
1.94693e-05
-1.60596e-06
6.3853e-06
-2.44567e-06
4.41506e-06
-2.14037e-06
1.98077e-05
-2.0696e-06
2.13751e-05
-2.02526e-06
2.13853e-05
-1.81823e-06
1.94631e-05
-2.44665e-06
4.7695e-06
-2.35296e-06
7.95317e-06
-2.12819e-06
1.96284e-05
-2.12255e-06
2.04333e-05
-2.12422e-06
1.98321e-05
-2.13796e-06
1.97525e-05
-1.98497e-06
1.71553e-05
-2.16923e-06
9.00181e-06
-2.04463e-06
1.71834e-05
-2.04249e-06
1.90948e-05
-2.04583e-06
1.86627e-05
-2.00904e-06
1.89833e-05
-1.82568e-06
1.63668e-05
-2.30729e-06
7.21928e-06
-2.13125e-06
1.63729e-05
-2.09615e-06
1.83823e-05
-2.07917e-06
1.76951e-05
-2.06029e-06
1.73216e-05
-2.04046e-06
1.71632e-05
-2.02038e-06
1.71682e-05
-1.99811e-06
1.73477e-05
-1.97085e-06
1.76924e-05
-1.93547e-06
1.81982e-05
-1.89452e-06
1.89172e-05
-1.84004e-06
2.00491e-05
-1.58792e-06
1.95004e-05
-1.96096e-06
5.5899e-06
-2.54807e-06
5.4099e-06
-2.24654e-06
1.93789e-05
-2.18891e-06
2.0093e-05
-2.14688e-06
1.90697e-05
-2.12147e-06
1.5129e-05
-2.11249e-06
1.41824e-05
-2.12746e-06
1.34228e-05
-2.13169e-06
1.26018e-05
-2.05362e-06
1.05754e-05
-2.09702e-06
7.87303e-06
-2.04913e-06
9.54033e-06
-2.05291e-06
1.00413e-05
-2.07169e-06
9.51531e-06
-2.08047e-06
8.8778e-06
-2.08274e-06
8.29991e-06
-2.08216e-06
7.76905e-06
-2.0801e-06
7.27323e-06
-2.07701e-06
6.80635e-06
-2.07301e-06
6.36427e-06
-2.06834e-06
5.94529e-06
-2.06345e-06
5.55123e-06
-2.05898e-06
5.18709e-06
-2.05543e-06
4.85857e-06
-2.05296e-06
4.56863e-06
-2.05139e-06
4.31541e-06
-2.05039e-06
4.09309e-06
-2.0497e-06
3.89432e-06
-2.04919e-06
3.71251e-06
-2.04879e-06
3.54288e-06
-2.04849e-06
3.38254e-06
-2.04828e-06
3.22993e-06
-2.04817e-06
3.08429e-06
-2.04815e-06
2.9453e-06
2.81294e-06
-2.0438e-06
2.81099e-06
-2.04367e-06
2.94385e-06
-2.0435e-06
3.08329e-06
-2.04328e-06
3.22891e-06
-2.04301e-06
3.3808e-06
-2.04268e-06
3.53913e-06
-2.04228e-06
3.70415e-06
-2.04178e-06
3.87608e-06
-2.04118e-06
4.05514e-06
-2.04044e-06
4.24152e-06
-2.03954e-06
4.43544e-06
-2.03841e-06
4.63713e-06
-2.037e-06
4.84684e-06
-2.03518e-06
5.0649e-06
-2.03276e-06
5.29173e-06
-2.02946e-06
5.52791e-06
-2.02473e-06
5.77425e-06
-2.01765e-06
6.03188e-06
-2.00655e-06
6.30234e-06
-1.98832e-06
6.58765e-06
-1.95714e-06
6.8904e-06
-1.90192e-06
7.21371e-06
-1.79932e-06
7.55323e-06
-1.59904e-06
7.81542e-06
-1.30468e-06
7.43664e-06
-1.49366e-06
5.10103e-06
-2.49827e-06
3.14388e-06
-2.45804e-06
6.85545e-06
-2.09412e-06
1.1411e-05
-1.90897e-06
1.36153e-05
-1.77644e-06
1.78586e-05
-1.64457e-06
1.93683e-05
-1.38574e-06
1.92105e-05
-1.67035e-06
6.6699e-06
-2.51197e-06
5.25668e-06
-2.17559e-06
1.94713e-05
-2.0705e-06
2.127e-05
-1.97901e-06
2.12938e-05
-1.76782e-06
1.92519e-05
-2.42957e-06
5.43125e-06
-2.44174e-06
7.96534e-06
-2.1907e-06
1.93774e-05
-2.1708e-06
2.04134e-05
-2.16069e-06
1.9822e-05
-2.13771e-06
1.97295e-05
-1.97433e-06
1.69919e-05
-2.21567e-06
9.24314e-06
-2.07717e-06
1.70449e-05
-2.04894e-06
1.90666e-05
-2.04684e-06
1.86606e-05
-1.97131e-06
1.89077e-05
-1.79515e-06
1.61906e-05
-2.36199e-06
7.78613e-06
-2.18549e-06
1.61964e-05
-2.12489e-06
1.83217e-05
-2.09781e-06
1.7668e-05
-2.06828e-06
1.7292e-05
-2.03687e-06
1.71318e-05
-2.00508e-06
1.71364e-05
-1.96982e-06
1.73125e-05
-1.92721e-06
1.76498e-05
-1.87288e-06
1.81438e-05
-1.80656e-06
1.88509e-05
-1.70481e-06
1.99473e-05
-1.46548e-06
1.92611e-05
-1.97288e-06
6.0973e-06
-2.6477e-06
6.08472e-06
-2.34944e-06
1.90807e-05
-2.2655e-06
2.00091e-05
-2.20604e-06
1.90103e-05
-2.16933e-06
1.50923e-05
-2.15358e-06
1.41667e-05
-2.16138e-06
1.34306e-05
-2.15109e-06
1.25915e-05
-2.07072e-06
1.0495e-05
-2.12592e-06
7.92823e-06
-2.07098e-06
9.48539e-06
-2.07306e-06
1.00433e-05
-2.09225e-06
9.53451e-06
-2.10152e-06
8.88707e-06
-2.10373e-06
8.30212e-06
-2.10254e-06
7.76786e-06
-2.09938e-06
7.27008e-06
-2.09479e-06
6.80175e-06
-2.08902e-06
6.35851e-06
-2.08247e-06
5.93874e-06
-2.07577e-06
5.54453e-06
-2.06968e-06
5.181e-06
-2.06478e-06
4.85367e-06
-2.06119e-06
4.56504e-06
-2.05871e-06
4.31292e-06
-2.05697e-06
4.09136e-06
-2.05569e-06
3.89304e-06
-2.0547e-06
3.71151e-06
-2.05391e-06
3.5421e-06
-2.05332e-06
3.38195e-06
-2.0529e-06
3.22951e-06
-2.05264e-06
3.08403e-06
-2.05251e-06
2.94517e-06
2.81291e-06
-2.04332e-06
2.81088e-06
-2.04314e-06
2.94367e-06
-2.0429e-06
3.08305e-06
-2.0426e-06
3.22861e-06
-2.04222e-06
3.38041e-06
-2.04174e-06
3.53865e-06
-2.04115e-06
3.70356e-06
-2.04042e-06
3.87535e-06
-2.03953e-06
4.05424e-06
-2.03843e-06
4.24042e-06
-2.03708e-06
4.43409e-06
-2.03539e-06
4.63544e-06
-2.03326e-06
4.84472e-06
-2.03054e-06
5.06218e-06
-2.02697e-06
5.28816e-06
-2.02216e-06
5.5231e-06
-2.01547e-06
5.76757e-06
-2.00587e-06
6.02227e-06
-1.99158e-06
6.28804e-06
-1.96954e-06
6.56562e-06
-1.93438e-06
6.85523e-06
-1.87583e-06
7.15515e-06
-1.77226e-06
7.44966e-06
-1.58356e-06
7.62672e-06
-1.34031e-06
7.19339e-06
-1.5534e-06
5.31412e-06
-2.38606e-06
3.97654e-06
-2.40658e-06
6.87596e-06
-2.04598e-06
1.10504e-05
-1.8403e-06
1.34096e-05
-1.68543e-06
1.77038e-05
-1.53375e-06
1.92166e-05
-1.3296e-06
1.90064e-05
-1.79874e-06
7.13905e-06
-2.53149e-06
5.98943e-06
-2.19592e-06
1.91358e-05
-2.06063e-06
2.11347e-05
-1.93486e-06
2.11681e-05
-1.71906e-06
1.90361e-05
-2.32519e-06
6.03738e-06
-2.46291e-06
8.10306e-06
-2.24501e-06
1.91595e-05
-2.21242e-06
2.03808e-05
-2.18915e-06
1.97987e-05
-2.13604e-06
1.96764e-05
-1.96582e-06
1.68217e-05
-2.24525e-06
9.52257e-06
-2.11262e-06
1.69123e-05
-2.06619e-06
1.90201e-05
-2.0563e-06
1.86507e-05
-1.95465e-06
1.88061e-05
-1.79049e-06
1.60265e-05
-2.37517e-06
8.37081e-06
-2.22825e-06
1.60494e-05
-2.14924e-06
1.82427e-05
-2.11234e-06
1.76311e-05
-2.07365e-06
1.72534e-05
-2.03243e-06
1.70906e-05
-1.99066e-06
1.70947e-05
-1.94443e-06
1.72662e-05
-1.88964e-06
1.7595e-05
-1.8214e-06
1.80756e-05
-1.73759e-06
1.87671e-05
-1.61394e-06
1.98237e-05
-1.40209e-06
1.90492e-05
-1.98246e-06
6.67766e-06
-2.6768e-06
6.77906e-06
-2.42615e-06
1.883e-05
-2.32354e-06
1.99065e-05
-2.25242e-06
1.89391e-05
-2.20746e-06
1.50473e-05
-2.1859e-06
1.41451e-05
-2.18817e-06
1.34329e-05
-2.16663e-06
1.257e-05
-2.0849e-06
1.04133e-05
-2.1453e-06
7.98864e-06
-2.10205e-06
9.44214e-06
-2.10123e-06
1.00425e-05
-2.11751e-06
9.55079e-06
-2.12509e-06
8.89465e-06
-2.12563e-06
8.30266e-06
-2.1228e-06
7.76503e-06
-2.11801e-06
7.26528e-06
-2.1117e-06
6.79544e-06
-2.10414e-06
6.35095e-06
-2.09577e-06
5.93037e-06
-2.08732e-06
5.53609e-06
-2.07969e-06
5.17337e-06
-2.0735e-06
4.84747e-06
-2.06891e-06
4.56044e-06
-2.06566e-06
4.30968e-06
-2.06336e-06
4.08906e-06
-2.06166e-06
3.89134e-06
-2.06036e-06
3.7102e-06
-2.05934e-06
3.54108e-06
-2.05858e-06
3.38119e-06
-2.05805e-06
3.22898e-06
-2.05772e-06
3.0837e-06
-2.05755e-06
2.945e-06
2.81286e-06
-2.0427e-06
2.81076e-06
-2.04248e-06
2.94346e-06
-2.04218e-06
3.08275e-06
-2.04179e-06
3.22822e-06
-2.04129e-06
3.37991e-06
-2.04067e-06
3.53803e-06
-2.03989e-06
3.70278e-06
-2.03893e-06
3.87439e-06
-2.03775e-06
4.05306e-06
-2.0363e-06
4.23897e-06
-2.03451e-06
4.4323e-06
-2.03229e-06
4.63323e-06
-2.02952e-06
4.84195e-06
-2.02602e-06
5.05867e-06
-2.0215e-06
5.28364e-06
-2.01555e-06
5.51716e-06
-2.00754e-06
5.75956e-06
-1.99644e-06
6.01117e-06
-1.9806e-06
6.27219e-06
-1.95722e-06
6.54224e-06
-1.92145e-06
6.81947e-06
-1.86407e-06
7.09778e-06
-1.76625e-06
7.35183e-06
-1.6008e-06
7.46128e-06
-1.4213e-06
7.01388e-06
-1.6321e-06
5.52493e-06
-2.26968e-06
4.61412e-06
-2.32967e-06
6.93595e-06
-2.00009e-06
1.07208e-05
-1.77707e-06
1.31866e-05
-1.60918e-06
1.75359e-05
-1.45074e-06
1.90582e-05
-1.31017e-06
1.88658e-05
-1.90743e-06
7.73631e-06
-2.51608e-06
6.59808e-06
-2.19432e-06
1.8814e-05
-2.04501e-06
2.09854e-05
-1.90642e-06
2.10295e-05
-1.68145e-06
1.88111e-05
-2.20372e-06
6.55965e-06
-2.46453e-06
8.36387e-06
-2.29836e-06
1.89933e-05
-2.25026e-06
2.03327e-05
-2.21628e-06
1.97647e-05
-2.13674e-06
1.95969e-05
-1.96294e-06
1.66479e-05
-2.27318e-06
9.83282e-06
-2.1589e-06
1.6798e-05
-2.09772e-06
1.8959e-05
-2.07444e-06
1.86274e-05
-1.96013e-06
1.86918e-05
-1.80904e-06
1.58754e-05
-2.3671e-06
8.92887e-06
-2.25503e-06
1.59374e-05
-2.16595e-06
1.81536e-05
-2.12232e-06
1.75875e-05
-2.07635e-06
1.72074e-05
-2.02751e-06
1.70418e-05
-1.97775e-06
1.70449e-05
-1.92288e-06
1.72114e-05
-1.85931e-06
1.75315e-05
-1.7825e-06
1.79988e-05
-1.69124e-06
1.86758e-05
-1.56374e-06
1.96962e-05
-1.38442e-06
1.88699e-05
-1.99059e-06
7.28383e-06
-2.66921e-06
7.45769e-06
-2.4764e-06
1.86372e-05
-2.36372e-06
1.97938e-05
-2.28622e-06
1.88616e-05
-2.23613e-06
1.49972e-05
-2.21074e-06
1.41197e-05
-2.20802e-06
1.34302e-05
-2.17391e-06
1.25359e-05
-2.09442e-06
1.03338e-05
-2.16746e-06
8.06167e-06
-2.1398e-06
9.41448e-06
-2.13422e-06
1.00369e-05
-2.14486e-06
9.56143e-06
-2.14925e-06
8.89904e-06
-2.14735e-06
8.30076e-06
-2.14237e-06
7.76005e-06
-2.1356e-06
7.25851e-06
-2.1274e-06
6.78724e-06
-2.118e-06
6.34154e-06
-2.10788e-06
5.92025e-06
-2.09788e-06
5.52608e-06
-2.08892e-06
5.16441e-06
-2.08166e-06
4.84021e-06
-2.07624e-06
4.55502e-06
-2.07236e-06
4.3058e-06
-2.0696e-06
4.08629e-06
-2.06756e-06
3.8893e-06
-2.06601e-06
3.70865e-06
-2.06482e-06
3.5399e-06
-2.06394e-06
3.3803e-06
-2.06333e-06
3.22837e-06
-2.06296e-06
3.08333e-06
-2.06277e-06
2.94481e-06
2.81281e-06
-2.04206e-06
2.81063e-06
-2.04181e-06
2.94321e-06
-2.04146e-06
3.0824e-06
-2.04099e-06
3.22775e-06
-2.04039e-06
3.37931e-06
-2.03963e-06
3.53727e-06
-2.03868e-06
3.70184e-06
-2.03751e-06
3.87322e-06
-2.03607e-06
4.05162e-06
-2.0343e-06
4.2372e-06
-2.03213e-06
4.43013e-06
-2.02945e-06
4.63055e-06
-2.02614e-06
4.83863e-06
-2.022e-06
5.05452e-06
-2.01674e-06
5.27838e-06
-2.00995e-06
5.51037e-06
-2.00101e-06
5.75062e-06
-1.98895e-06
5.99911e-06
-1.97222e-06
6.25546e-06
-1.94827e-06
6.51829e-06
-1.91276e-06
6.78396e-06
-1.85769e-06
7.04271e-06
-1.7681e-06
7.26225e-06
-1.62908e-06
7.32226e-06
-1.5062e-06
6.891e-06
-1.69787e-06
5.7166e-06
-2.17929e-06
5.09554e-06
-2.25332e-06
7.00998e-06
-1.95846e-06
1.0426e-05
-1.72491e-06
1.29531e-05
-1.5456e-06
1.73566e-05
-1.38046e-06
1.8893e-05
-1.29064e-06
1.8776e-05
-1.94354e-06
8.38921e-06
-2.46974e-06
7.12429e-06
-2.16766e-06
1.85119e-05
-2.02504e-06
2.08427e-05
-1.88931e-06
2.08937e-05
-1.66119e-06
1.8583e-05
-2.11672e-06
7.01518e-06
-2.4695e-06
8.71666e-06
-2.35274e-06
1.88766e-05
-2.28755e-06
2.02675e-05
-2.24281e-06
1.972e-05
-2.14018e-06
1.94942e-05
-1.9693e-06
1.6477e-05
-2.30113e-06
1.01646e-05
-2.20464e-06
1.67015e-05
-2.12743e-06
1.88817e-05
-2.09369e-06
1.85937e-05
-1.97821e-06
1.85763e-05
-1.84248e-06
1.57396e-05
-2.35225e-06
9.43865e-06
-2.26644e-06
1.58516e-05
-2.17511e-06
1.80623e-05
-2.12776e-06
1.75402e-05
-2.07667e-06
1.71563e-05
-2.02247e-06
1.69876e-05
-1.96681e-06
1.69892e-05
-1.9057e-06
1.71503e-05
-1.83644e-06
1.74622e-05
-1.75497e-06
1.79173e-05
-1.66323e-06
1.85841e-05
-1.54099e-06
1.95739e-05
-1.39501e-06
1.87239e-05
-1.99891e-06
7.88773e-06
-2.64523e-06
8.104e-06
-2.50065e-06
1.84926e-05
-2.38799e-06
1.96811e-05
-2.30898e-06
1.87826e-05
-2.25615e-06
1.49444e-05
-2.22773e-06
1.40913e-05
-2.21881e-06
1.34213e-05
-2.17315e-06
1.24902e-05
-2.10277e-06
1.02634e-05
-2.19289e-06
8.15179e-06
-2.18001e-06
9.40161e-06
-2.16869e-06
1.00256e-05
-2.17222e-06
9.56496e-06
-2.17231e-06
8.89912e-06
-2.16744e-06
8.29589e-06
-2.16011e-06
7.75272e-06
-2.1513e-06
7.24971e-06
-2.14125e-06
6.77719e-06
-2.13017e-06
6.33046e-06
-2.11857e-06
5.90865e-06
-2.10731e-06
5.51483e-06
-2.09734e-06
5.15444e-06
-2.08929e-06
4.83215e-06
-2.08322e-06
4.54896e-06
-2.07884e-06
4.30142e-06
-2.07567e-06
4.08312e-06
-2.07332e-06
3.88696e-06
-2.07154e-06
3.70687e-06
-2.07018e-06
3.53854e-06
-2.06918e-06
3.3793e-06
-2.06849e-06
3.22768e-06
-2.06806e-06
3.0829e-06
-2.06784e-06
2.9446e-06
2.81275e-06
-2.04161e-06
2.8105e-06
-2.04134e-06
2.94294e-06
-2.04094e-06
3.08201e-06
-2.04041e-06
3.22722e-06
-2.03972e-06
3.37862e-06
-2.03884e-06
3.53639e-06
-2.03774e-06
3.70074e-06
-2.03638e-06
3.87186e-06
-2.03471e-06
4.04995e-06
-2.03266e-06
4.23515e-06
-2.03016e-06
4.42763e-06
-2.0271e-06
4.62749e-06
-2.02334e-06
4.83487e-06
-2.01867e-06
5.04986e-06
-2.01282e-06
5.27253e-06
-2.00538e-06
5.50293e-06
-1.99574e-06
5.74099e-06
-1.983e-06
5.98637e-06
-1.9657e-06
6.23816e-06
-1.94158e-06
6.49417e-06
-1.9069e-06
6.74927e-06
-1.85498e-06
6.99079e-06
-1.77468e-06
7.18195e-06
-1.66053e-06
7.20811e-06
-1.57988e-06
6.81035e-06
-1.74671e-06
5.88344e-06
-2.11612e-06
5.46494e-06
-2.18761e-06
7.08147e-06
-1.92435e-06
1.01627e-05
-1.6837e-06
1.27124e-05
-1.49219e-06
1.71651e-05
-1.31824e-06
1.87191e-05
-1.25605e-06
1.87138e-05
-1.9185e-06
9.05166e-06
-2.39991e-06
7.6057e-06
-2.12519e-06
1.82372e-05
-1.99833e-06
2.07159e-05
-1.87624e-06
2.07717e-05
-1.65763e-06
1.83644e-05
-2.07957e-06
7.43711e-06
-2.48813e-06
9.12522e-06
-2.4076e-06
1.8796e-05
-2.32475e-06
2.01846e-05
-2.26764e-06
1.96629e-05
-2.14626e-06
1.93728e-05
-1.98425e-06
1.6315e-05
-2.32539e-06
1.05058e-05
-2.24452e-06
1.66207e-05
-2.15515e-06
1.87924e-05
-2.11366e-06
1.85522e-05
-1.99915e-06
1.84618e-05
-1.88037e-06
1.56209e-05
-2.33724e-06
9.89551e-06
-2.2685e-06
1.57828e-05
-2.17883e-06
1.79726e-05
-2.12924e-06
1.74906e-05
-2.07507e-06
1.71021e-05
-2.01748e-06
1.693e-05
-1.95792e-06
1.69297e-05
-1.89272e-06
1.70851e-05
-1.82034e-06
1.73898e-05
-1.73693e-06
1.78339e-05
-1.64757e-06
1.84947e-05
-1.5331e-06
1.94595e-05
-1.41694e-06
1.86078e-05
-2.00473e-06
8.47552e-06
-2.6143e-06
8.71357e-06
-2.506e-06
1.83843e-05
-2.39947e-06
1.95746e-05
-2.32203e-06
1.87052e-05
-2.26817e-06
1.48906e-05
-2.23699e-06
1.40601e-05
-2.2209e-06
1.34052e-05
-2.16696e-06
1.24363e-05
-2.11193e-06
1.02084e-05
-2.21818e-06
8.25805e-06
-2.21828e-06
9.4017e-06
-2.20156e-06
1.00089e-05
-2.19774e-06
9.56113e-06
-2.19311e-06
8.89449e-06
-2.18511e-06
8.28789e-06
-2.1754e-06
7.74301e-06
-2.16463e-06
7.23894e-06
-2.15291e-06
6.76546e-06
-2.14038e-06
6.31793e-06
-2.12758e-06
5.89584e-06
-2.11537e-06
5.50262e-06
-2.10467e-06
5.14375e-06
-2.09604e-06
4.82352e-06
-2.0895e-06
4.54242e-06
-2.08471e-06
4.29663e-06
-2.08121e-06
4.07962e-06
-2.07859e-06
3.88434e-06
-2.0766e-06
3.70488e-06
-2.07509e-06
3.53702e-06
-2.07397e-06
3.37819e-06
-2.0732e-06
3.22691e-06
-2.07272e-06
3.08242e-06
-2.07247e-06
2.94435e-06
2.81268e-06
-2.04158e-06
2.81035e-06
-2.04129e-06
2.94264e-06
-2.04085e-06
3.08157e-06
-2.04026e-06
3.22663e-06
-2.03949e-06
3.37785e-06
-2.03851e-06
3.53541e-06
-2.03729e-06
3.69951e-06
-2.03577e-06
3.87034e-06
-2.0339e-06
4.04808e-06
-2.03162e-06
4.23287e-06
-2.02884e-06
4.42485e-06
-2.02545e-06
4.62411e-06
-2.02131e-06
4.83073e-06
-2.01622e-06
5.04476e-06
-2.0099e-06
5.26621e-06
-2.00195e-06
5.49499e-06
-1.99181e-06
5.73085e-06
-1.97863e-06
5.97319e-06
-1.96112e-06
6.22065e-06
-1.93727e-06
6.47032e-06
-1.90383e-06
6.71583e-06
-1.85534e-06
6.9423e-06
-1.78388e-06
7.11048e-06
-1.69096e-06
7.11518e-06
-1.63995e-06
6.75934e-06
-1.78338e-06
6.02687e-06
-2.072e-06
5.75356e-06
-2.13542e-06
7.14489e-06
-1.89983e-06
9.92714e-06
-1.65534e-06
1.24679e-05
-1.4506e-06
1.69603e-05
-1.26753e-06
1.8536e-05
-1.21332e-06
1.86596e-05
-1.85754e-06
9.69588e-06
-2.31984e-06
8.068e-06
-2.08039e-06
1.79977e-05
-1.96973e-06
2.06052e-05
-1.86371e-06
2.06656e-05
-1.66839e-06
1.81691e-05
-2.08456e-06
7.85329e-06
-2.52101e-06
9.56167e-06
-2.46077e-06
1.87358e-05
-2.36055e-06
2.00844e-05
-2.28914e-06
1.95915e-05
-2.15392e-06
1.92376e-05
-2.00528e-06
1.61663e-05
-2.34367e-06
1.08442e-05
-2.2764e-06
1.65534e-05
-2.17882e-06
1.86948e-05
-2.12919e-06
1.85026e-05
-2.01605e-06
1.83486e-05
-1.91512e-06
1.55199e-05
-2.32403e-06
1.03044e-05
-2.26656e-06
1.57254e-05
-2.17894e-06
1.7885e-05
-2.12745e-06
1.74391e-05
-2.07193e-06
1.70466e-05
-2.01262e-06
1.68707e-05
-1.95096e-06
1.6868e-05
-1.88357e-06
1.70177e-05
-1.81004e-06
1.73163e-05
-1.72675e-06
1.77506e-05
-1.63945e-06
1.84074e-05
-1.53214e-06
1.93522e-05
-1.44004e-06
1.85157e-05
-2.00433e-06
9.03981e-06
-2.57989e-06
9.28913e-06
-2.4998e-06
1.83043e-05
-2.40151e-06
1.94763e-05
-2.32672e-06
1.86304e-05
-2.27315e-06
1.4837e-05
-2.23955e-06
1.40265e-05
-2.21611e-06
1.33817e-05
-2.15764e-06
1.23778e-05
-2.1215e-06
1.01723e-05
-2.24051e-06
8.37706e-06
-2.25115e-06
9.41234e-06
-2.22999e-06
9.98775e-06
-2.21947e-06
9.55061e-06
-2.21047e-06
8.8855e-06
-2.19963e-06
8.27704e-06
-2.18778e-06
7.73116e-06
-2.17529e-06
7.22646e-06
-2.16213e-06
6.75231e-06
-2.14842e-06
6.30422e-06
-2.13469e-06
5.88211e-06
-2.12179e-06
5.48972e-06
-2.11059e-06
5.13254e-06
-2.10157e-06
4.81449e-06
-2.0947e-06
4.53555e-06
-2.08962e-06
4.29155e-06
-2.08586e-06
4.07586e-06
-2.08303e-06
3.88151e-06
-2.08087e-06
3.70271e-06
-2.07922e-06
3.53538e-06
-2.078e-06
3.37697e-06
-2.07716e-06
3.22606e-06
-2.07663e-06
3.08189e-06
-2.07635e-06
2.94407e-06
2.8126e-06
-2.04221e-06
2.81019e-06
-2.04189e-06
2.94232e-06
-2.04142e-06
3.0811e-06
-2.04077e-06
3.22598e-06
-2.03994e-06
3.37702e-06
-2.03887e-06
3.53435e-06
-2.03754e-06
3.69818e-06
-2.03588e-06
3.86869e-06
-2.03385e-06
4.04605e-06
-2.03137e-06
4.2304e-06
-2.02837e-06
4.42184e-06
-2.02472e-06
4.62046e-06
-2.02028e-06
4.82629e-06
-2.01486e-06
5.03934e-06
-2.00818e-06
5.25954e-06
-1.99989e-06
5.48669e-06
-1.98944e-06
5.7204e-06
-1.97603e-06
5.95978e-06
-1.95851e-06
6.20313e-06
-1.93509e-06
6.4469e-06
-1.90297e-06
6.68371e-06
-1.85774e-06
6.89707e-06
-1.79426e-06
7.047e-06
-1.71895e-06
7.03987e-06
-1.68856e-06
6.72895e-06
-1.81169e-06
6.15e-06
-2.04102e-06
5.98289e-06
-2.09621e-06
7.20009e-06
-1.88648e-06
9.7174e-06
-1.64235e-06
1.22238e-05
-1.42533e-06
1.67433e-05
-1.23554e-06
1.83462e-05
-1.17938e-06
1.86034e-05
-1.7871e-06
1.03036e-05
-2.24343e-06
8.52433e-06
-2.04489e-06
1.77992e-05
-1.94341e-06
2.05038e-05
-1.85079e-06
2.0573e-05
-1.69082e-06
1.80091e-05
-2.11987e-06
8.28235e-06
-2.56124e-06
1.0003e-05
-2.50809e-06
1.86826e-05
-2.39235e-06
1.99687e-05
-2.30545e-06
1.95046e-05
-2.16112e-06
1.90933e-05
-2.03014e-06
1.60354e-05
-2.35528e-06
1.11693e-05
-2.29987e-06
1.6498e-05
-2.19747e-06
1.85924e-05
-2.13873e-06
1.84439e-05
-2.02547e-06
1.82354e-05
-1.94264e-06
1.54371e-05
-2.31216e-06
1.06739e-05
-2.26305e-06
1.56762e-05
-2.17606e-06
1.7798e-05
-2.12287e-06
1.73859e-05
-2.06739e-06
1.69911e-05
-2.00788e-06
1.68112e-05
-1.9457e-06
1.68058e-05
-1.87783e-06
1.69498e-05
-1.80466e-06
1.72431e-05
-1.72314e-06
1.76691e-05
-1.63645e-06
1.83208e-05
-1.53475e-06
1.92505e-05
-1.46036e-06
1.84413e-05
-1.99567e-06
9.57512e-06
-2.54267e-06
9.83613e-06
-2.48662e-06
1.82482e-05
-2.39646e-06
1.93862e-05
-2.32462e-06
1.85586e-05
-2.2724e-06
1.47848e-05
-2.23686e-06
1.3991e-05
-2.20662e-06
1.33515e-05
-2.14678e-06
1.2318e-05
-2.12997e-06
1.01554e-05
-2.25745e-06
8.50454e-06
-2.27626e-06
9.43114e-06
-2.25188e-06
9.96337e-06
-2.23588e-06
9.53461e-06
-2.22335e-06
8.87297e-06
-2.21028e-06
8.26397e-06
-2.19677e-06
7.71765e-06
-2.18294e-06
7.21262e-06
-2.16867e-06
6.73804e-06
-2.15408e-06
6.28963e-06
-2.13969e-06
5.86772e-06
-2.12635e-06
5.47638e-06
-2.11485e-06
5.12104e-06
-2.1056e-06
4.80524e-06
-2.09853e-06
4.52848e-06
-2.09327e-06
4.28628e-06
-2.08933e-06
4.07193e-06
-2.08635e-06
3.87853e-06
-2.08407e-06
3.70043e-06
-2.08232e-06
3.53363e-06
-2.08103e-06
3.37568e-06
-2.08014e-06
3.22517e-06
-2.07957e-06
3.08132e-06
-2.07927e-06
2.94376e-06
2.81251e-06
-2.04372e-06
2.81002e-06
-2.04337e-06
2.94197e-06
-2.04285e-06
3.08058e-06
-2.04216e-06
3.22529e-06
-2.04126e-06
3.37612e-06
-2.04012e-06
3.53321e-06
-2.03869e-06
3.69675e-06
-2.03693e-06
3.86692e-06
-2.03476e-06
4.04389e-06
-2.03213e-06
4.22777e-06
-2.02895e-06
4.41866e-06
-2.0251e-06
4.61661e-06
-2.02044e-06
4.82163e-06
-2.01478e-06
5.03368e-06
-2.00786e-06
5.25262e-06
-1.99932e-06
5.47816e-06
-1.98867e-06
5.70974e-06
-1.97517e-06
5.94629e-06
-1.95777e-06
6.18573e-06
-1.93488e-06
6.42401e-06
-1.90407e-06
6.6529e-06
-1.86191e-06
6.85491e-06
-1.80566e-06
6.99076e-06
-1.74479e-06
6.979e-06
-1.72847e-06
6.71263e-06
-1.83446e-06
6.25598e-06
-2.02e-06
6.16843e-06
-2.06869e-06
7.24878e-06
-1.88404e-06
9.53275e-06
-1.6452e-06
1.19849e-05
-1.42012e-06
1.65182e-05
-1.2285e-06
1.81546e-05
-1.16758e-06
1.85425e-05
-1.72809e-06
1.08641e-05
-2.17918e-06
8.97542e-06
-2.01222e-06
1.76322e-05
-1.92077e-06
2.04123e-05
-1.83734e-06
2.04896e-05
-1.72097e-06
1.78927e-05
-2.17112e-06
8.7325e-06
-2.59909e-06
1.0431e-05
-2.54442e-06
1.8628e-05
-2.41688e-06
1.98411e-05
-2.31525e-06
1.9403e-05
-2.16561e-06
1.89436e-05
-2.0529e-06
1.59226e-05
-2.36037e-06
1.14768e-05
-2.31597e-06
1.64536e-05
-2.21157e-06
1.8488e-05
-2.14384e-06
1.83761e-05
-2.03003e-06
1.81216e-05
-1.96241e-06
1.53695e-05
-2.29993e-06
1.10115e-05
-2.2577e-06
1.5634e-05
-2.17001e-06
1.77103e-05
-2.11574e-06
1.73316e-05
-2.06141e-06
1.69368e-05
-2.00318e-06
1.67529e-05
-1.94186e-06
1.67445e-05
-1.87501e-06
1.6883e-05
-1.80345e-06
1.71715e-05
-1.72508e-06
1.75907e-05
-1.63854e-06
1.82342e-05
-1.54122e-06
1.91531e-05
-1.47857e-06
1.83786e-05
-1.98102e-06
1.00776e-05
-2.50352e-06
1.03586e-05
-2.46893e-06
1.82136e-05
-2.38585e-06
1.93031e-05
-2.31739e-06
1.84901e-05
-2.26728e-06
1.47347e-05
-2.2305e-06
1.39542e-05
-2.19475e-06
1.33157e-05
-2.13587e-06
1.22591e-05
-2.13602e-06
1.01556e-05
-2.26737e-06
8.6359e-06
-2.29228e-06
9.45606e-06
-2.26617e-06
9.93725e-06
-2.24621e-06
9.51465e-06
-2.23118e-06
8.85794e-06
-2.21664e-06
8.24944e-06
-2.20205e-06
7.70306e-06
-2.18733e-06
7.19791e-06
-2.17235e-06
6.72306e-06
-2.1572e-06
6.27448e-06
-2.14243e-06
5.85295e-06
-2.12887e-06
5.46282e-06
-2.11726e-06
5.10943e-06
-2.10793e-06
4.79592e-06
-2.10079e-06
4.52134e-06
-2.09544e-06
4.28093e-06
-2.09142e-06
4.06791e-06
-2.08836e-06
3.87547e-06
-2.086e-06
3.69807e-06
-2.08421e-06
3.53183e-06
-2.08288e-06
3.37435e-06
-2.08195e-06
3.22424e-06
-2.08136e-06
3.08073e-06
-2.08104e-06
2.94344e-06
2.81241e-06
-2.04626e-06
2.80983e-06
-2.04588e-06
2.9416e-06
-2.04533e-06
3.08004e-06
-2.0446e-06
3.22456e-06
-2.04365e-06
3.37517e-06
-2.04244e-06
3.532e-06
-2.04094e-06
3.69524e-06
-2.03908e-06
3.86506e-06
-2.03681e-06
4.04162e-06
-2.03406e-06
4.22502e-06
-2.03074e-06
4.41533e-06
-2.02674e-06
4.6126e-06
-2.02192e-06
4.81681e-06
-2.01609e-06
5.02785e-06
-2.00901e-06
5.24554e-06
-2.00034e-06
5.46949e-06
-1.98961e-06
5.69901e-06
-1.97615e-06
5.93282e-06
-1.95898e-06
6.16856e-06
-1.93668e-06
6.40171e-06
-1.90723e-06
6.62344e-06
-1.86806e-06
6.81574e-06
-1.81835e-06
6.94105e-06
-1.76915e-06
6.9298e-06
-1.76228e-06
6.70576e-06
-1.85419e-06
6.34789e-06
-2.00753e-06
6.32177e-06
-2.05156e-06
7.29281e-06
-1.89122e-06
9.37241e-06
-1.66231e-06
1.1756e-05
-1.43542e-06
1.62913e-05
-1.24797e-06
1.79671e-05
-1.18213e-06
1.84767e-05
-1.6908e-06
1.13728e-05
-2.13205e-06
9.41667e-06
-1.99488e-06
1.74951e-05
-1.90379e-06
2.03212e-05
-1.82368e-06
2.04095e-05
-1.75358e-06
1.78226e-05
-2.22278e-06
9.20169e-06
-2.62589e-06
1.08341e-05
-2.56549e-06
1.85676e-05
-2.43136e-06
1.9707e-05
-2.31829e-06
1.92899e-05
-2.16673e-06
1.87921e-05
-2.06803e-06
1.58239e-05
-2.36018e-06
1.17689e-05
-2.32635e-06
1.64198e-05
-2.22241e-06
1.8384e-05
-2.14716e-06
1.83009e-05
-2.03166e-06
1.8006e-05
-1.97616e-06
1.5314e-05
-2.28539e-06
1.13207e-05
-2.24876e-06
1.55974e-05
-2.16024e-06
1.76218e-05
-2.10616e-06
1.72775e-05
-2.0538e-06
1.68844e-05
-1.99844e-06
1.66976e-05
-1.93911e-06
1.66852e-05
-1.87462e-06
1.68185e-05
-1.80582e-06
1.71027e-05
-1.73186e-06
1.75168e-05
-1.64698e-06
1.81493e-05
-1.55415e-06
1.90603e-05
-1.49844e-06
1.83229e-05
-1.96649e-06
1.05456e-05
-2.46484e-06
1.0857e-05
-2.44846e-06
1.81972e-05
-2.37123e-06
1.92258e-05
-2.30653e-06
1.84254e-05
-2.25907e-06
1.46872e-05
-2.22199e-06
1.39171e-05
-2.18261e-06
1.32764e-05
-2.12621e-06
1.22027e-05
-2.13925e-06
1.01686e-05
-2.27e-06
8.76664e-06
-2.29915e-06
9.48521e-06
-2.27276e-06
9.91086e-06
-2.25042e-06
9.49231e-06
-2.23392e-06
8.84144e-06
-2.21866e-06
8.23417e-06
-2.20357e-06
7.68797e-06
-2.18844e-06
7.18278e-06
-2.17312e-06
6.70774e-06
-2.15774e-06
6.2591e-06
-2.14285e-06
5.83807e-06
-2.12929e-06
5.44925e-06
-2.11772e-06
5.09787e-06
-2.10846e-06
4.78666e-06
-2.10136e-06
4.51424e-06
-2.09602e-06
4.27559e-06
-2.09199e-06
4.06388e-06
-2.08891e-06
3.87239e-06
-2.08653e-06
3.69569e-06
-2.08471e-06
3.53002e-06
-2.08337e-06
3.37301e-06
-2.08243e-06
3.2233e-06
-2.08182e-06
3.08012e-06
-2.08149e-06
2.94311e-06
2.81231e-06
-2.04998e-06
2.80963e-06
-2.04958e-06
2.9412e-06
-2.04901e-06
3.07946e-06
-2.04823e-06
3.22378e-06
-2.04724e-06
3.37417e-06
-2.04598e-06
3.53074e-06
-2.04441e-06
3.69367e-06
-2.04248e-06
3.86314e-06
-2.04014e-06
4.03927e-06
-2.0373e-06
4.22218e-06
-2.03388e-06
4.41192e-06
-2.02979e-06
4.60851e-06
-2.02487e-06
4.81189e-06
-2.01895e-06
5.02194e-06
-2.0118e-06
5.23839e-06
-2.00309e-06
5.46078e-06
-1.99238e-06
5.6883e-06
-1.97904e-06
5.91949e-06
-1.96221e-06
6.15172e-06
-1.94062e-06
6.38012e-06
-1.9126e-06
6.59543e-06
-1.87637e-06
6.7795e-06
-1.83255e-06
6.89722e-06
-1.79275e-06
6.89e-06
-1.79225e-06
6.70526e-06
-1.87275e-06
6.42839e-06
-2.0021e-06
6.45112e-06
-2.04346e-06
7.33417e-06
-1.90629e-06
9.23524e-06
-1.69102e-06
1.15408e-05
-1.46828e-06
1.60686e-05
-1.29011e-06
1.7789e-05
-1.2193e-06
1.84059e-05
-1.67466e-06
1.18281e-05
-2.09903e-06
9.84103e-06
-1.98611e-06
1.73822e-05
-1.89104e-06
2.02262e-05
-1.81023e-06
2.03287e-05
-1.78313e-06
1.77955e-05
-2.26236e-06
9.68091e-06
-2.63576e-06
1.12075e-05
-2.56912e-06
1.85009e-05
-2.43447e-06
1.95724e-05
-2.31543e-06
1.91708e-05
-2.16581e-06
1.86425e-05
-2.08119e-06
1.57393e-05
-2.35678e-06
1.20445e-05
-2.3325e-06
1.63955e-05
-2.23134e-06
1.82829e-05
-2.15174e-06
1.82213e-05
-2.03504e-06
1.78893e-05
-1.98705e-06
1.5266e-05
-2.26725e-06
1.16009e-05
-2.23439e-06
1.55645e-05
-2.14639e-06
1.75338e-05
-2.09423e-06
1.72254e-05
-2.04415e-06
1.68343e-05
-1.99355e-06
1.6647e-05
-1.93716e-06
1.66288e-05
-1.87615e-06
1.67574e-05
-1.8112e-06
1.70378e-05
-1.74281e-06
1.74484e-05
-1.66289e-06
1.80694e-05
-1.57627e-06
1.89737e-05
-1.52449e-06
1.82711e-05
-1.95907e-06
1.09802e-05
-2.42979e-06
1.13277e-05
-2.42683e-06
1.81943e-05
-2.35429e-06
1.91533e-05
-2.29334e-06
1.83645e-05
-2.24883e-06
1.46427e-05
-2.21248e-06
1.38808e-05
-2.1715e-06
1.32354e-05
-2.11849e-06
1.21497e-05
-2.14e-06
1.01901e-05
-2.26626e-06
8.89291e-06
-2.2978e-06
9.51675e-06
-2.27227e-06
9.88533e-06
-2.24894e-06
9.46898e-06
-2.23192e-06
8.82441e-06
-2.21657e-06
8.21883e-06
-2.2015e-06
7.6729e-06
-2.18638e-06
7.16766e-06
-2.17107e-06
6.69243e-06
-2.15575e-06
6.24377e-06
-2.14099e-06
5.82331e-06
-2.12761e-06
5.43587e-06
-2.11626e-06
5.08651e-06
-2.10718e-06
4.77758e-06
-2.10021e-06