/*--------------------------------*- C++ -*----------------------------------*\
  =========                 |
  \\      /  F ield         | OpenFOAM: The Open Source CFD Toolbox
   \\    /   O peration     | Website:  https://openfoam.org
    \\  /    A nd           | Version:  9
     \\/     M anipulation  |
\*---------------------------------------------------------------------------*/
FoamFile
{
    format      ascii;
    class       volScalarField;
    location    "0.13";
    object      rAU;
}
// * * * * * * * * * * * * * * * * * * * * * * * * * * * * * * * * * * * * * //

dimensions      [-1 3 1 0 0 0 0];

internalField   nonuniform List<scalar> 
20000
(
1.06888e-05
1.037e-05
1.04864e-05
1.05972e-05
1.07029e-05
1.08038e-05
1.09002e-05
1.09924e-05
1.10808e-05
1.11655e-05
1.1247e-05
1.13255e-05
1.14011e-05
1.14741e-05
1.15445e-05
1.16122e-05
1.16769e-05
1.1738e-05
1.17944e-05
1.18441e-05
1.18838e-05
1.19077e-05
1.19076e-05
1.18985e-05
1.21462e-05
1.41964e-05
1.78472e-05
1.33959e-05
1.13592e-05
1.09651e-05
1.07659e-05
1.04035e-05
1.02714e-05
1.48408e-05
1.69632e-05
1.02473e-05
9.94578e-06
9.95868e-06
1.02451e-05
1.61527e-05
1.4287e-05
1.03193e-05
1.0169e-05
1.03149e-05
1.03333e-05
1.08607e-05
1.3936e-05
1.09682e-05
1.04963e-05
1.06055e-05
1.05135e-05
1.10542e-05
1.49433e-05
1.1166e-05
1.06611e-05
1.08405e-05
1.09423e-05
1.09869e-05
1.09878e-05
1.09411e-05
1.08502e-05
1.07183e-05
1.05398e-05
1.02739e-05
1.02516e-05
1.54504e-05
1.61044e-05
1.03433e-05
1.02293e-05
1.04783e-05
1.05646e-05
1.06305e-05
1.0657e-05
1.0689e-05
1.1153e-05
1.23623e-05
1.12348e-05
1.07779e-05
1.07759e-05
1.08332e-05
1.08817e-05
1.09238e-05
1.09623e-05
1.09988e-05
1.10344e-05
1.10695e-05
1.11021e-05
1.11274e-05
1.11387e-05
1.113e-05
1.10984e-05
1.10456e-05
1.09756e-05
1.08929e-05
1.08011e-05
1.07022e-05
1.05973e-05
1.04865e-05
1.03697e-05
8.87137e-06
1.34565e-05
1.29498e-05
1.31268e-05
1.32955e-05
1.34561e-05
1.3609e-05
1.37545e-05
1.3893e-05
1.40249e-05
1.41504e-05
1.427e-05
1.4384e-05
1.44928e-05
1.45965e-05
1.46954e-05
1.47898e-05
1.48796e-05
1.49649e-05
1.50455e-05
1.51209e-05
1.5191e-05
1.52553e-05
1.53162e-05
1.53991e-05
1.56805e-05
1.67956e-05
1.79641e-05
1.62468e-05
1.5102e-05
1.48616e-05
1.4798e-05
1.45516e-05
1.45076e-05
1.72959e-05
1.79494e-05
1.44165e-05
1.41672e-05
1.41826e-05
1.44424e-05
1.76477e-05
1.68748e-05
1.44525e-05
1.43215e-05
1.44317e-05
1.44413e-05
1.48563e-05
1.66729e-05
1.49225e-05
1.45723e-05
1.4654e-05
1.45941e-05
1.50227e-05
1.71252e-05
1.50535e-05
1.46853e-05
1.48148e-05
1.48893e-05
1.49233e-05
1.49271e-05
1.48985e-05
1.48397e-05
1.47529e-05
1.4633e-05
1.44481e-05
1.44852e-05
1.74767e-05
1.76075e-05
1.44685e-05
1.43599e-05
1.45464e-05
1.45415e-05
1.45657e-05
1.45576e-05
1.45543e-05
1.48727e-05
1.55766e-05
1.48712e-05
1.45232e-05
1.44848e-05
1.44894e-05
1.44856e-05
1.44749e-05
1.44593e-05
1.44396e-05
1.44165e-05
1.43898e-05
1.43579e-05
1.43175e-05
1.4264e-05
1.41937e-05
1.41051e-05
1.39994e-05
1.3879e-05
1.37466e-05
1.36041e-05
1.34526e-05
1.32927e-05
1.31242e-05
1.29469e-05
1.06936e-05
1.34567e-05
1.295e-05
1.31271e-05
1.32958e-05
1.34565e-05
1.36095e-05
1.37551e-05
1.38938e-05
1.40258e-05
1.41515e-05
1.42713e-05
1.43856e-05
1.44946e-05
1.45988e-05
1.46983e-05
1.47935e-05
1.48844e-05
1.49714e-05
1.50545e-05
1.5134e-05
1.52107e-05
1.5286e-05
1.53656e-05
1.54821e-05
1.58036e-05
1.67847e-05
1.76115e-05
1.62609e-05
1.51819e-05
1.49071e-05
1.48333e-05
1.45931e-05
1.45773e-05
1.72604e-05
1.77104e-05
1.4465e-05
1.41794e-05
1.41983e-05
1.4488e-05
1.7497e-05
1.68728e-05
1.44831e-05
1.43138e-05
1.44257e-05
1.44389e-05
1.48854e-05
1.66168e-05
1.49428e-05
1.45718e-05
1.46538e-05
1.46068e-05
1.50642e-05
1.6993e-05
1.50786e-05
1.46864e-05
1.48142e-05
1.48912e-05
1.49276e-05
1.49337e-05
1.49079e-05
1.48529e-05
1.47711e-05
1.4657e-05
1.44816e-05
1.45493e-05
1.73847e-05
1.74301e-05
1.45035e-05
1.43557e-05
1.45429e-05
1.45367e-05
1.45589e-05
1.45466e-05
1.45468e-05
1.48879e-05
1.55529e-05
1.4882e-05
1.45164e-05
1.44716e-05
1.44789e-05
1.44771e-05
1.44675e-05
1.44525e-05
1.44335e-05
1.44112e-05
1.43853e-05
1.43543e-05
1.43144e-05
1.42611e-05
1.41908e-05
1.41023e-05
1.39966e-05
1.38762e-05
1.37438e-05
1.36014e-05
1.34499e-05
1.32899e-05
1.31213e-05
1.2944e-05
1.06879e-05
1.34571e-05
1.29504e-05
1.31276e-05
1.32963e-05
1.34571e-05
1.36102e-05
1.3756e-05
1.38948e-05
1.4027e-05
1.4153e-05
1.42731e-05
1.43877e-05
1.44971e-05
1.46018e-05
1.4702e-05
1.4798e-05
1.48902e-05
1.49789e-05
1.50645e-05
1.51476e-05
1.52297e-05
1.53135e-05
1.54074e-05
1.55489e-05
1.58896e-05
1.67177e-05
1.72937e-05
1.62779e-05
1.52829e-05
1.49652e-05
1.48744e-05
1.46352e-05
1.46328e-05
1.71577e-05
1.74881e-05
1.45199e-05
1.41996e-05
1.42199e-05
1.45358e-05
1.73598e-05
1.68589e-05
1.45175e-05
1.43104e-05
1.44228e-05
1.44422e-05
1.4918e-05
1.65509e-05
1.49626e-05
1.45738e-05
1.46525e-05
1.46216e-05
1.51008e-05
1.68511e-05
1.51038e-05
1.46934e-05
1.48166e-05
1.48956e-05
1.49342e-05
1.49424e-05
1.49193e-05
1.48678e-05
1.47906e-05
1.46817e-05
1.45142e-05
1.46037e-05
1.72597e-05
1.72496e-05
1.45407e-05
1.43606e-05
1.4545e-05
1.45365e-05
1.45556e-05
1.45386e-05
1.45441e-05
1.49069e-05
1.55281e-05
1.48898e-05
1.45077e-05
1.44572e-05
1.44675e-05
1.44684e-05
1.44602e-05
1.44464e-05
1.44284e-05
1.4407e-05
1.43822e-05
1.4352e-05
1.43125e-05
1.42593e-05
1.41889e-05
1.41001e-05
1.39942e-05
1.38738e-05
1.37413e-05
1.35987e-05
1.34472e-05
1.3287e-05
1.31183e-05
1.29408e-05
1.06816e-05
1.34576e-05
1.2951e-05
1.31282e-05
1.3297e-05
1.34579e-05
1.36111e-05
1.37571e-05
1.38961e-05
1.40285e-05
1.41547e-05
1.42751e-05
1.439e-05
1.45e-05
1.46052e-05
1.47061e-05
1.4803e-05
1.48964e-05
1.49866e-05
1.50743e-05
1.51604e-05
1.52469e-05
1.53376e-05
1.54433e-05
1.56035e-05
1.59462e-05
1.66319e-05
1.70449e-05
1.6286e-05
1.53838e-05
1.5028e-05
1.49173e-05
1.46763e-05
1.46748e-05
1.7018e-05
1.73063e-05
1.4579e-05
1.42264e-05
1.42444e-05
1.45837e-05
1.72415e-05
1.68175e-05
1.45449e-05
1.43106e-05
1.44223e-05
1.44503e-05
1.49521e-05
1.64766e-05
1.4978e-05
1.45776e-05
1.46517e-05
1.46374e-05
1.51318e-05
1.67123e-05
1.51254e-05
1.47056e-05
1.48219e-05
1.49022e-05
1.49429e-05
1.49526e-05
1.49319e-05
1.48836e-05
1.48103e-05
1.47051e-05
1.45435e-05
1.46468e-05
1.71185e-05
1.70753e-05
1.4574e-05
1.43725e-05
1.45518e-05
1.45402e-05
1.45553e-05
1.45334e-05
1.45466e-05
1.49284e-05
1.54999e-05
1.48909e-05
1.44988e-05
1.44436e-05
1.44569e-05
1.44606e-05
1.4454e-05
1.44414e-05
1.44245e-05
1.44043e-05
1.43805e-05
1.4351e-05
1.43118e-05
1.42584e-05
1.41876e-05
1.40984e-05
1.39922e-05
1.38715e-05
1.37388e-05
1.35961e-05
1.34444e-05
1.32841e-05
1.31152e-05
1.29375e-05
1.06752e-05
1.34582e-05
1.29516e-05
1.31289e-05
1.32978e-05
1.34588e-05
1.36121e-05
1.37582e-05
1.38974e-05
1.403e-05
1.41565e-05
1.42772e-05
1.43926e-05
1.45029e-05
1.46087e-05
1.47103e-05
1.4808e-05
1.49025e-05
1.49941e-05
1.50837e-05
1.51726e-05
1.5263e-05
1.53597e-05
1.54751e-05
1.56479e-05
1.59806e-05
1.65482e-05
1.68595e-05
1.62834e-05
1.54768e-05
1.5093e-05
1.49607e-05
1.47172e-05
1.47071e-05
1.68689e-05
1.71644e-05
1.46409e-05
1.42564e-05
1.42695e-05
1.46305e-05
1.71366e-05
1.67464e-05
1.45627e-05
1.43136e-05
1.44238e-05
1.44628e-05
1.49858e-05
1.63964e-05
1.499e-05
1.45846e-05
1.46527e-05
1.46533e-05
1.51577e-05
1.65842e-05
1.51431e-05
1.47209e-05
1.48293e-05
1.49108e-05
1.4953e-05
1.4964e-05
1.49454e-05
1.48997e-05
1.48295e-05
1.47265e-05
1.45689e-05
1.46798e-05
1.69736e-05
1.69117e-05
1.46019e-05
1.43888e-05
1.45618e-05
1.4547e-05
1.45577e-05
1.45315e-05
1.45547e-05
1.49499e-05
1.54666e-05
1.48861e-05
1.44909e-05
1.44321e-05
1.44479e-05
1.44543e-05
1.44494e-05
1.4438e-05
1.44222e-05
1.44031e-05
1.43802e-05
1.43513e-05
1.43121e-05
1.42583e-05
1.41868e-05
1.4097e-05
1.39904e-05
1.38694e-05
1.37366e-05
1.35937e-05
1.34418e-05
1.32813e-05
1.31123e-05
1.29344e-05
1.06691e-05
1.34587e-05
1.2952e-05
1.31294e-05
1.32985e-05
1.34596e-05
1.36131e-05
1.37593e-05
1.38987e-05
1.40316e-05
1.41583e-05
1.42794e-05
1.43951e-05
1.45059e-05
1.46122e-05
1.47144e-05
1.4813e-05
1.49085e-05
1.50014e-05
1.50928e-05
1.51841e-05
1.5278e-05
1.53798e-05
1.55028e-05
1.56831e-05
1.59996e-05
1.64745e-05
1.67204e-05
1.62748e-05
1.55599e-05
1.51583e-05
1.5005e-05
1.47586e-05
1.4734e-05
1.67238e-05
1.70483e-05
1.47023e-05
1.42859e-05
1.42934e-05
1.46747e-05
1.70367e-05
1.66523e-05
1.45717e-05
1.43195e-05
1.44276e-05
1.4479e-05
1.50177e-05
1.63136e-05
1.49996e-05
1.45948e-05
1.46554e-05
1.46695e-05
1.51798e-05
1.64696e-05
1.51576e-05
1.47373e-05
1.4838e-05
1.49206e-05
1.49641e-05
1.49761e-05
1.49592e-05
1.49155e-05
1.48479e-05
1.47459e-05
1.45913e-05
1.4705e-05
1.68322e-05
1.67605e-05
1.46249e-05
1.4407e-05
1.45738e-05
1.45562e-05
1.45626e-05
1.45332e-05
1.45673e-05
1.49687e-05
1.54283e-05
1.48774e-05
1.44851e-05
1.44236e-05
1.44413e-05
1.44501e-05
1.44467e-05
1.44364e-05
1.44216e-05
1.44035e-05
1.43814e-05
1.43528e-05
1.43134e-05
1.4259e-05
1.41868e-05
1.40964e-05
1.39892e-05
1.38679e-05
1.37348e-05
1.35917e-05
1.34396e-05
1.32789e-05
1.31096e-05
1.29316e-05
1.06635e-05
1.34588e-05
1.29522e-05
1.31297e-05
1.32989e-05
1.34601e-05
1.36138e-05
1.37602e-05
1.38998e-05
1.40329e-05
1.416e-05
1.42813e-05
1.43974e-05
1.45087e-05
1.46155e-05
1.47184e-05
1.48178e-05
1.49142e-05
1.50084e-05
1.51014e-05
1.51949e-05
1.52917e-05
1.53978e-05
1.55265e-05
1.57108e-05
1.60087e-05
1.64118e-05
1.66139e-05
1.6264e-05
1.56329e-05
1.52226e-05
1.50496e-05
1.47998e-05
1.47572e-05
1.6587e-05
1.69452e-05
1.4759e-05
1.43128e-05
1.43151e-05
1.47144e-05
1.69353e-05
1.65445e-05
1.45749e-05
1.43288e-05
1.44343e-05
1.44985e-05
1.5047e-05
1.62316e-05
1.50078e-05
1.46077e-05
1.46605e-05
1.46866e-05
1.51991e-05
1.63682e-05
1.51697e-05
1.47541e-05
1.48477e-05
1.49314e-05
1.49759e-05
1.49886e-05
1.49732e-05
1.49309e-05
1.48652e-05
1.47637e-05
1.46114e-05
1.47246e-05
1.66983e-05
1.66215e-05
1.46436e-05
1.44256e-05
1.4587e-05
1.45672e-05
1.45696e-05
1.45381e-05
1.45829e-05
1.4983e-05
1.53864e-05
1.48663e-05
1.44824e-05
1.44186e-05
1.44375e-05
1.44481e-05
1.44459e-05
1.44365e-05
1.44227e-05
1.44054e-05
1.43839e-05
1.43555e-05
1.43158e-05
1.42607e-05
1.41876e-05
1.40964e-05
1.39887e-05
1.38669e-05
1.37336e-05
1.35902e-05
1.34379e-05
1.3277e-05
1.31076e-05
1.29294e-05
1.06589e-05
1.34584e-05
1.2952e-05
1.31296e-05
1.32989e-05
1.34603e-05
1.36141e-05
1.37608e-05
1.39006e-05
1.4034e-05
1.41613e-05
1.4283e-05
1.43995e-05
1.45112e-05
1.46186e-05
1.4722e-05
1.48221e-05
1.49195e-05
1.50148e-05
1.51093e-05
1.52047e-05
1.53042e-05
1.54138e-05
1.5547e-05
1.57323e-05
1.60114e-05
1.63587e-05
1.65305e-05
1.62526e-05
1.56962e-05
1.52842e-05
1.50937e-05
1.48393e-05
1.47769e-05
1.64582e-05
1.68459e-05
1.48074e-05
1.43366e-05
1.43344e-05
1.47475e-05
1.68289e-05
1.64315e-05
1.45761e-05
1.43419e-05
1.44445e-05
1.45208e-05
1.50732e-05
1.61531e-05
1.50151e-05
1.46228e-05
1.4668e-05
1.47049e-05
1.5216e-05
1.62784e-05
1.51802e-05
1.4771e-05
1.48583e-05
1.49426e-05
1.49879e-05
1.50012e-05
1.49869e-05
1.49455e-05
1.48813e-05
1.47803e-05
1.46298e-05
1.47403e-05
1.65734e-05
1.64932e-05
1.46587e-05
1.4444e-05
1.4601e-05
1.45793e-05
1.45782e-05
1.45459e-05
1.46003e-05
1.49924e-05
1.53429e-05
1.48545e-05
1.44828e-05
1.44175e-05
1.44366e-05
1.44484e-05
1.44471e-05
1.44385e-05
1.44255e-05
1.44089e-05
1.43878e-05
1.43594e-05
1.43192e-05
1.42633e-05
1.41893e-05
1.40973e-05
1.3989e-05
1.38668e-05
1.37331e-05
1.35895e-05
1.34369e-05
1.32758e-05
1.31061e-05
1.29278e-05
1.06556e-05
1.34573e-05
1.29512e-05
1.3129e-05
1.32984e-05
1.346e-05
1.3614e-05
1.37608e-05
1.39009e-05
1.40346e-05
1.41622e-05
1.42842e-05
1.44011e-05
1.45132e-05
1.46211e-05
1.47252e-05
1.4826e-05
1.49242e-05
1.50206e-05
1.51164e-05
1.52136e-05
1.53154e-05
1.54281e-05
1.55644e-05
1.57488e-05
1.60098e-05
1.63134e-05
1.64636e-05
1.62407e-05
1.57501e-05
1.5342e-05
1.51364e-05
1.48754e-05
1.47921e-05
1.63367e-05
1.67461e-05
1.48478e-05
1.43583e-05
1.43521e-05
1.47727e-05
1.67168e-05
1.63207e-05
1.45786e-05
1.43588e-05
1.44586e-05
1.45453e-05
1.50963e-05
1.60798e-05
1.50214e-05
1.46393e-05
1.4678e-05
1.47243e-05
1.5231e-05
1.61982e-05
1.51895e-05
1.47885e-05
1.48698e-05
1.49542e-05
1.5e-05
1.50136e-05
1.50001e-05
1.49594e-05
1.48959e-05
1.47959e-05
1.46465e-05
1.47529e-05
1.64579e-05
1.63738e-05
1.46703e-05
1.44619e-05
1.46154e-05
1.45921e-05
1.45881e-05
1.45557e-05
1.46182e-05
1.49972e-05
1.52996e-05
1.4843e-05
1.44864e-05
1.442e-05
1.44385e-05
1.4451e-05
1.44503e-05
1.44422e-05
1.44298e-05
1.44137e-05
1.4393e-05
1.43644e-05
1.43237e-05
1.42669e-05
1.4192e-05
1.40991e-05
1.39901e-05
1.38674e-05
1.37334e-05
1.35895e-05
1.34367e-05
1.32753e-05
1.31055e-05
1.29269e-05
1.06536e-05
1.34555e-05
1.29498e-05
1.31277e-05
1.32973e-05
1.3459e-05
1.36132e-05
1.37603e-05
1.39006e-05
1.40346e-05
1.41625e-05
1.42849e-05
1.44021e-05
1.45147e-05
1.46231e-05
1.47277e-05
1.48292e-05
1.49282e-05
1.50256e-05
1.51227e-05
1.52214e-05
1.53253e-05
1.54405e-05
1.5579e-05
1.57611e-05
1.60052e-05
1.62743e-05
1.64084e-05
1.62283e-05
1.5795e-05
1.53952e-05
1.51768e-05
1.4907e-05
1.48028e-05
1.62228e-05
1.66455e-05
1.48799e-05
1.43776e-05
1.43687e-05
1.47896e-05
1.66014e-05
1.62177e-05
1.45845e-05
1.43794e-05
1.44765e-05
1.45714e-05
1.51173e-05
1.60125e-05
1.50267e-05
1.46566e-05
1.46897e-05
1.47444e-05
1.52439e-05
1.61263e-05
1.51984e-05
1.48069e-05
1.48819e-05
1.49658e-05
1.50119e-05
1.50256e-05
1.50127e-05
1.49723e-05
1.49091e-05
1.48101e-05
1.46612e-05
1.47627e-05
1.63509e-05
1.62617e-05
1.46786e-05
1.44793e-05
1.46299e-05
1.4605e-05
1.45986e-05
1.45668e-05
1.46357e-05
1.49981e-05
1.52578e-05
1.48323e-05
1.44927e-05
1.44255e-05
1.44429e-05
1.44556e-05
1.44552e-05
1.44475e-05
1.44355e-05
1.44199e-05
1.43993e-05
1.43705e-05
1.43291e-05
1.42714e-05
1.41955e-05
1.41018e-05
1.39921e-05
1.3869e-05
1.37346e-05
1.35904e-05
1.34373e-05
1.32758e-05
1.31057e-05
1.2927e-05
1.06533e-05
1.34528e-05
1.29475e-05
1.31256e-05
1.32954e-05
1.34573e-05
1.36118e-05
1.37591e-05
1.38997e-05
1.40339e-05
1.41622e-05
1.42849e-05
1.44026e-05
1.45156e-05
1.46244e-05
1.47296e-05
1.48317e-05
1.49315e-05
1.50298e-05
1.5128e-05
1.52282e-05
1.53339e-05
1.54511e-05
1.55909e-05
1.57697e-05
1.59986e-05
1.62399e-05
1.63615e-05
1.6215e-05
1.58316e-05
1.54433e-05
1.52142e-05
1.49337e-05
1.48101e-05
1.61176e-05
1.65463e-05
1.49053e-05
1.43964e-05
1.43852e-05
1.47988e-05
1.64863e-05
1.61256e-05
1.45947e-05
1.4403e-05
1.44972e-05
1.45983e-05
1.51361e-05
1.595e-05
1.50308e-05
1.46739e-05
1.47024e-05
1.47646e-05
1.52548e-05
1.60622e-05
1.52073e-05
1.48262e-05
1.48943e-05
1.49774e-05
1.50231e-05
1.50371e-05
1.50245e-05
1.49841e-05
1.49206e-05
1.48226e-05
1.46733e-05
1.47697e-05
1.62508e-05
1.61559e-05
1.46839e-05
1.4496e-05
1.46441e-05
1.46178e-05
1.46093e-05
1.45785e-05
1.46522e-05
1.49961e-05
1.52186e-05
1.48228e-05
1.4501e-05
1.44334e-05
1.44493e-05
1.44617e-05
1.44616e-05
1.44542e-05
1.44425e-05
1.44272e-05
1.44067e-05
1.43775e-05
1.43354e-05
1.42767e-05
1.41999e-05
1.41053e-05
1.3995e-05
1.38714e-05
1.37367e-05
1.35922e-05
1.34389e-05
1.32771e-05
1.31068e-05
1.2928e-05
1.06549e-05
1.34492e-05
1.29444e-05
1.31227e-05
1.32927e-05
1.34548e-05
1.36095e-05
1.37571e-05
1.3898e-05
1.40325e-05
1.41611e-05
1.42842e-05
1.44022e-05
1.45157e-05
1.4625e-05
1.47307e-05
1.48334e-05
1.49339e-05
1.50331e-05
1.51324e-05
1.52339e-05
1.53411e-05
1.54599e-05
1.56002e-05
1.57752e-05
1.59904e-05
1.62089e-05
1.63205e-05
1.62008e-05
1.58607e-05
1.54861e-05
1.52485e-05
1.4956e-05
1.48154e-05
1.60227e-05
1.64516e-05
1.4926e-05
1.44156e-05
1.4402e-05
1.48019e-05
1.63753e-05
1.60453e-05
1.46091e-05
1.44283e-05
1.45196e-05
1.46252e-05
1.51523e-05
1.58919e-05
1.50338e-05
1.46908e-05
1.47151e-05
1.47841e-05
1.52641e-05
1.60059e-05
1.52169e-05
1.48461e-05
1.49067e-05
1.49883e-05
1.50335e-05
1.50479e-05
1.50353e-05
1.49947e-05
1.49304e-05
1.48326e-05
1.46824e-05
1.47742e-05
1.61565e-05
1.60568e-05
1.4687e-05
1.45121e-05
1.46578e-05
1.46302e-05
1.46199e-05
1.45903e-05
1.46676e-05
1.49923e-05
1.51827e-05
1.48147e-05
1.45107e-05
1.44432e-05
1.44573e-05
1.44692e-05
1.44691e-05
1.44619e-05
1.44506e-05
1.44355e-05
1.4415e-05
1.43854e-05
1.43425e-05
1.42829e-05
1.42051e-05
1.41097e-05
1.39988e-05
1.38748e-05
1.37397e-05
1.3595e-05
1.34415e-05
1.32795e-05
1.31091e-05
1.29301e-05
1.06585e-05
1.34445e-05
1.29404e-05
1.31189e-05
1.32891e-05
1.34515e-05
1.36065e-05
1.37543e-05
1.38955e-05
1.40303e-05
1.41593e-05
1.42827e-05
1.44011e-05
1.4515e-05
1.46247e-05
1.4731e-05
1.48343e-05
1.49355e-05
1.50355e-05
1.51357e-05
1.52383e-05
1.53468e-05
1.54669e-05
1.56071e-05
1.5778e-05
1.59808e-05
1.61805e-05
1.62839e-05
1.61856e-05
1.58831e-05
1.55237e-05
1.52797e-05
1.49746e-05
1.48205e-05
1.59397e-05
1.63644e-05
1.49436e-05
1.44354e-05
1.44191e-05
1.48008e-05
1.62715e-05
1.59761e-05
1.46268e-05
1.4454e-05
1.45421e-05
1.46511e-05
1.51662e-05
1.58386e-05
1.50359e-05
1.4707e-05
1.47273e-05
1.48021e-05
1.52728e-05
1.59577e-05
1.52274e-05
1.4866e-05
1.49185e-05
1.49983e-05
1.50433e-05
1.50579e-05
1.50452e-05
1.50041e-05
1.49386e-05
1.48401e-05
1.46885e-05
1.47763e-05
1.60674e-05
1.59654e-05
1.4689e-05
1.45276e-05
1.46712e-05
1.46421e-05
1.46303e-05
1.46019e-05
1.46819e-05
1.49877e-05
1.51504e-05
1.48082e-05
1.45215e-05
1.44542e-05
1.44663e-05
1.44777e-05
1.44776e-05
1.44706e-05
1.44595e-05
1.44446e-05
1.44241e-05
1.43941e-05
1.43504e-05
1.42898e-05
1.42111e-05
1.41149e-05
1.40035e-05
1.38791e-05
1.37437e-05
1.35988e-05
1.34451e-05
1.32829e-05
1.31124e-05
1.29333e-05
1.06642e-05
1.34387e-05
1.29355e-05
1.31142e-05
1.32847e-05
1.34473e-05
1.36025e-05
1.37507e-05
1.38922e-05
1.40273e-05
1.41566e-05
1.42804e-05
1.43992e-05
1.45134e-05
1.46237e-05
1.47304e-05
1.48342e-05
1.4936e-05
1.50368e-05
1.51379e-05
1.52415e-05
1.53511e-05
1.5472e-05
1.56117e-05
1.57783e-05
1.59701e-05
1.61539e-05
1.62506e-05
1.61696e-05
1.58993e-05
1.55561e-05
1.53079e-05
1.49903e-05
1.48265e-05
1.58695e-05
1.62844e-05
1.49579e-05
1.44554e-05
1.44362e-05
1.47976e-05
1.61772e-05
1.59159e-05
1.4646e-05
1.44786e-05
1.45635e-05
1.46756e-05
1.5178e-05
1.57898e-05
1.50375e-05
1.47222e-05
1.47386e-05
1.48189e-05
1.52824e-05
1.59178e-05
1.52392e-05
1.48854e-05
1.49291e-05
1.50073e-05
1.50521e-05
1.50671e-05
1.5054e-05
1.50122e-05
1.49453e-05
1.4845e-05
1.46922e-05
1.47767e-05
1.59834e-05
1.5883e-05
1.46913e-05
1.45427e-05
1.46843e-05
1.46537e-05
1.46403e-05
1.46134e-05
1.46953e-05
1.49828e-05
1.51219e-05
1.48033e-05
1.4533e-05
1.4466e-05
1.44762e-05
1.44869e-05
1.44869e-05
1.448e-05
1.44692e-05
1.44545e-05
1.44339e-05
1.44034e-05
1.4359e-05
1.42975e-05
1.42179e-05
1.41211e-05
1.40091e-05
1.38843e-05
1.37487e-05
1.36036e-05
1.34498e-05
1.32875e-05
1.31169e-05
1.29378e-05
1.06723e-05
1.34318e-05
1.29296e-05
1.31085e-05
1.32792e-05
1.34422e-05
1.35977e-05
1.37461e-05
1.38879e-05
1.40234e-05
1.4153e-05
1.42772e-05
1.43964e-05
1.4511e-05
1.46217e-05
1.47289e-05
1.48333e-05
1.49357e-05
1.50371e-05
1.5139e-05
1.52435e-05
1.5354e-05
1.54754e-05
1.56142e-05
1.57765e-05
1.59583e-05
1.61287e-05
1.62195e-05
1.61526e-05
1.59101e-05
1.55834e-05
1.53332e-05
1.50033e-05
1.48342e-05
1.58122e-05
1.62122e-05
1.49698e-05
1.44747e-05
1.44525e-05
1.4794e-05
1.60932e-05
1.58623e-05
1.46648e-05
1.4501e-05
1.45827e-05
1.46982e-05
1.5188e-05
1.57457e-05
1.50391e-05
1.47364e-05
1.4749e-05
1.48348e-05
1.52929e-05
1.58859e-05
1.52521e-05
1.49041e-05
1.49387e-05
1.50155e-05
1.506e-05
1.50753e-05
1.50619e-05
1.50193e-05
1.49508e-05
1.4848e-05
1.46941e-05
1.47758e-05
1.59052e-05
1.58108e-05
1.46952e-05
1.45576e-05
1.46972e-05
1.46649e-05
1.46502e-05
1.46247e-05
1.47079e-05
1.49782e-05
1.50972e-05
1.48003e-05
1.45452e-05
1.44785e-05
1.44868e-05
1.44968e-05
1.44968e-05
1.44901e-05
1.44796e-05
1.44651e-05
1.44443e-05
1.44134e-05
1.43682e-05
1.43059e-05
1.42255e-05
1.41281e-05
1.40157e-05
1.38906e-05
1.37548e-05
1.36096e-05
1.34557e-05
1.32934e-05
1.31227e-05
1.29435e-05
1.06827e-05
1.34238e-05
1.29226e-05
1.31019e-05
1.32729e-05
1.34361e-05
1.35919e-05
1.37407e-05
1.38828e-05
1.40186e-05
1.41486e-05
1.42731e-05
1.43927e-05
1.45077e-05
1.46188e-05
1.47265e-05
1.48314e-05
1.49343e-05
1.50363e-05
1.51389e-05
1.52442e-05
1.53554e-05
1.5477e-05
1.56147e-05
1.57727e-05
1.59455e-05
1.61044e-05
1.61901e-05
1.61346e-05
1.59161e-05
1.56058e-05
1.53553e-05
1.50139e-05
1.48439e-05
1.57675e-05
1.61468e-05
1.4978e-05
1.44923e-05
1.44671e-05
1.47913e-05
1.60191e-05
1.58123e-05
1.46814e-05
1.45202e-05
1.45992e-05
1.47188e-05
1.51965e-05
1.57061e-05
1.5041e-05
1.47497e-05
1.47585e-05
1.48498e-05
1.53042e-05
1.58613e-05
1.52662e-05
1.49212e-05
1.49465e-05
1.50219e-05
1.50666e-05
1.50825e-05
1.50688e-05
1.50254e-05
1.49552e-05
1.48498e-05
1.46953e-05
1.47741e-05
1.58337e-05
1.57493e-05
1.47014e-05
1.45723e-05
1.47098e-05
1.46758e-05
1.46599e-05
1.46358e-05
1.47199e-05
1.49739e-05
1.50763e-05
1.47994e-05
1.45581e-05
1.44916e-05
1.44978e-05
1.45072e-05
1.45072e-05
1.45008e-05
1.44905e-05
1.44762e-05
1.44553e-05
1.4424e-05
1.43781e-05
1.4315e-05
1.42339e-05
1.4136e-05
1.40232e-05
1.38979e-05
1.3762e-05
1.36167e-05
1.34627e-05
1.33003e-05
1.31297e-05
1.29505e-05
1.06955e-05
1.34147e-05
1.29148e-05
1.30943e-05
1.32656e-05
1.34291e-05
1.35852e-05
1.37343e-05
1.38768e-05
1.4013e-05
1.41433e-05
1.42682e-05
1.43881e-05
1.45036e-05
1.4615e-05
1.47231e-05
1.48285e-05
1.49319e-05
1.50345e-05
1.51377e-05
1.52437e-05
1.53554e-05
1.5477e-05
1.56134e-05
1.57672e-05
1.59318e-05
1.60807e-05
1.61619e-05
1.61156e-05
1.59177e-05
1.56233e-05
1.53739e-05
1.50216e-05
1.48559e-05
1.57343e-05
1.60867e-05
1.49817e-05
1.45072e-05
1.44794e-05
1.47901e-05
1.59539e-05
1.57637e-05
1.46942e-05
1.45357e-05
1.46127e-05
1.47371e-05
1.52036e-05
1.56712e-05
1.50436e-05
1.4762e-05
1.47671e-05
1.48643e-05
1.53167e-05
1.5843e-05
1.52811e-05
1.4937e-05
1.49531e-05
1.50268e-05
1.50722e-05
1.50888e-05
1.50749e-05
1.50306e-05
1.4959e-05
1.4851e-05
1.46963e-05
1.47722e-05
1.57691e-05
1.56982e-05
1.47103e-05
1.45866e-05
1.47219e-05
1.46863e-05
1.46693e-05
1.46467e-05
1.47312e-05
1.49702e-05
1.50591e-05
1.48008e-05
1.45718e-05
1.45051e-05
1.45093e-05
1.4518e-05
1.4518e-05
1.45119e-05
1.45019e-05
1.44878e-05
1.44668e-05
1.44351e-05
1.43886e-05
1.43247e-05
1.42431e-05
1.41447e-05
1.40316e-05
1.39062e-05
1.37701e-05
1.36248e-05
1.34708e-05
1.33085e-05
1.31378e-05
1.29586e-05
1.07105e-05
1.34045e-05
1.29059e-05
1.30857e-05
1.32573e-05
1.34212e-05
1.35776e-05
1.37271e-05
1.38699e-05
1.40064e-05
1.41371e-05
1.42624e-05
1.43827e-05
1.44985e-05
1.46104e-05
1.47189e-05
1.48247e-05
1.49286e-05
1.50317e-05
1.51355e-05
1.5242e-05
1.53541e-05
1.54755e-05
1.56104e-05
1.57601e-05
1.59173e-05
1.60572e-05
1.61344e-05
1.60956e-05
1.59154e-05
1.56361e-05
1.53885e-05
1.50265e-05
1.48701e-05
1.57113e-05
1.60304e-05
1.49801e-05
1.45186e-05
1.44889e-05
1.47907e-05
1.58956e-05
1.57148e-05
1.47023e-05
1.45476e-05
1.46234e-05
1.47534e-05
1.52098e-05
1.56408e-05
1.50472e-05
1.47735e-05
1.47749e-05
1.48779e-05
1.53296e-05
1.58295e-05
1.52968e-05
1.49516e-05
1.49582e-05
1.50304e-05
1.50767e-05
1.50942e-05
1.50802e-05
1.50353e-05
1.49624e-05
1.48522e-05
1.46978e-05
1.47705e-05
1.57124e-05
1.5657e-05
1.47217e-05
1.46003e-05
1.47332e-05
1.46962e-05
1.46783e-05
1.46573e-05
1.47419e-05
1.49672e-05
1.50455e-05
1.48046e-05
1.45864e-05
1.4519e-05
1.4521e-05
1.45291e-05
1.45292e-05
1.45233e-05
1.45136e-05
1.44996e-05
1.44786e-05
1.44465e-05
1.43995e-05
1.43351e-05
1.42529e-05
1.41541e-05
1.40409e-05
1.39153e-05
1.37792e-05
1.36339e-05
1.34799e-05
1.33176e-05
1.3147e-05
1.29678e-05
1.07275e-05
1.33933e-05
1.28961e-05
1.30763e-05
1.32482e-05
1.34124e-05
1.35692e-05
1.3719e-05
1.38621e-05
1.3999e-05
1.41301e-05
1.42557e-05
1.43764e-05
1.44926e-05
1.46049e-05
1.47138e-05
1.482e-05
1.49244e-05
1.5028e-05
1.51322e-05
1.52392e-05
1.53515e-05
1.54727e-05
1.56059e-05
1.57516e-05
1.59019e-05
1.6034e-05
1.61073e-05
1.60746e-05
1.59096e-05
1.56441e-05
1.53985e-05
1.50286e-05
1.48867e-05
1.56968e-05
1.59767e-05
1.49729e-05
1.45265e-05
1.44956e-05
1.47929e-05
1.58425e-05
1.5665e-05
1.47058e-05
1.45565e-05
1.46319e-05
1.4768e-05
1.52152e-05
1.56149e-05
1.5052e-05
1.47841e-05
1.47816e-05
1.48906e-05
1.53423e-05
1.58195e-05
1.53138e-05
1.49657e-05
1.49621e-05
1.50326e-05
1.50802e-05
1.50988e-05
1.50848e-05
1.50393e-05
1.49655e-05
1.48538e-05
1.46999e-05
1.47696e-05
1.56635e-05
1.56238e-05
1.47349e-05
1.4613e-05
1.47433e-05
1.47053e-05
1.46868e-05
1.46674e-05
1.47519e-05
1.49651e-05
1.50355e-05
1.48108e-05
1.46019e-05
1.45332e-05
1.45329e-05
1.45402e-05
1.45404e-05
1.45348e-05
1.45255e-05
1.45117e-05
1.44906e-05
1.44582e-05
1.44107e-05
1.43458e-05
1.42632e-05
1.41642e-05
1.40508e-05
1.39252e-05
1.37891e-05
1.36438e-05
1.34899e-05
1.33277e-05
1.31571e-05
1.29779e-05
1.07464e-05
1.3381e-05
1.28855e-05
1.3066e-05
1.32382e-05
1.34027e-05
1.35599e-05
1.37101e-05
1.38536e-05
1.39908e-05
1.41223e-05
1.42483e-05
1.43693e-05
1.44859e-05
1.45986e-05
1.47079e-05
1.48145e-05
1.49193e-05
1.50234e-05
1.51281e-05
1.52354e-05
1.53478e-05
1.54685e-05
1.56e-05
1.57418e-05
1.58858e-05
1.60107e-05
1.60805e-05
1.60526e-05
1.59007e-05
1.56478e-05
1.54043e-05
1.50288e-05
1.49054e-05
1.56888e-05
1.59246e-05
1.49607e-05
1.4531e-05
1.44998e-05
1.47964e-05
1.57927e-05
1.56146e-05
1.47055e-05
1.45633e-05
1.4639e-05
1.47811e-05
1.52203e-05
1.55934e-05
1.50581e-05
1.47938e-05
1.47873e-05
1.49018e-05
1.5354e-05
1.58123e-05
1.5332e-05
1.49788e-05
1.49647e-05
1.50336e-05
1.50826e-05
1.51026e-05
1.50888e-05
1.50429e-05
1.49683e-05
1.48557e-05
1.47024e-05
1.47697e-05
1.56216e-05
1.55967e-05
1.47488e-05
1.46243e-05
1.4752e-05
1.47135e-05
1.46947e-05
1.4677e-05
1.47614e-05
1.4964e-05
1.5029e-05
1.48192e-05
1.46181e-05
1.45476e-05
1.45447e-05
1.45512e-05
1.45515e-05
1.45463e-05
1.45373e-05
1.45237e-05
1.45027e-05
1.447e-05
1.44222e-05
1.43569e-05
1.42741e-05
1.41748e-05
1.40614e-05
1.39358e-05
1.37998e-05
1.36546e-05
1.35008e-05
1.33386e-05
1.31681e-05
1.2989e-05
1.07669e-05
1.33679e-05
1.2874e-05
1.30549e-05
1.32275e-05
1.33923e-05
1.35499e-05
1.37004e-05
1.38443e-05
1.39819e-05
1.41137e-05
1.42401e-05
1.43615e-05
1.44785e-05
1.45915e-05
1.47012e-05
1.48083e-05
1.49135e-05
1.50179e-05
1.5123e-05
1.52306e-05
1.53431e-05
1.54632e-05
1.55929e-05
1.57309e-05
1.5869e-05
1.59874e-05
1.60538e-05
1.60299e-05
1.58893e-05
1.56473e-05
1.54057e-05
1.50263e-05
1.49254e-05
1.5685e-05
1.58736e-05
1.49446e-05
1.45328e-05
1.45027e-05
1.48006e-05
1.57453e-05
1.5565e-05
1.4703e-05
1.4569e-05
1.46455e-05
1.47934e-05
1.52254e-05
1.55761e-05
1.50658e-05
1.48029e-05
1.47917e-05
1.49112e-05
1.53641e-05
1.58073e-05
1.53516e-05
1.49915e-05
1.49661e-05
1.50334e-05
1.50842e-05
1.51057e-05
1.50923e-05
1.50461e-05
1.4971e-05
1.48578e-05
1.47053e-05
1.47711e-05
1.55863e-05
1.55744e-05
1.47624e-05
1.46341e-05
1.47591e-05
1.47206e-05
1.47018e-05
1.4686e-05
1.47704e-05
1.49642e-05
1.50256e-05
1.48296e-05
1.46349e-05
1.45619e-05
1.45561e-05
1.45618e-05
1.45622e-05
1.45575e-05
1.45489e-05
1.45356e-05
1.45146e-05
1.44819e-05
1.44338e-05
1.43683e-05
1.42852e-05
1.41859e-05
1.40725e-05
1.39469e-05
1.3811e-05
1.36659e-05
1.35123e-05
1.33502e-05
1.31798e-05
1.30008e-05
1.0789e-05
1.33538e-05
1.28618e-05
1.3043e-05
1.3216e-05
1.33812e-05
1.35391e-05
1.369e-05
1.38343e-05
1.39723e-05
1.41045e-05
1.42312e-05
1.4353e-05
1.44704e-05
1.45838e-05
1.46939e-05
1.48013e-05
1.49069e-05
1.50117e-05
1.51171e-05
1.5225e-05
1.53375e-05
1.5457e-05
1.55848e-05
1.57192e-05
1.58517e-05
1.59641e-05
1.60274e-05
1.60066e-05
1.58756e-05
1.56431e-05
1.5403e-05
1.5022e-05
1.49474e-05
1.56828e-05
1.58241e-05
1.49268e-05
1.45332e-05
1.45054e-05
1.48049e-05
1.56993e-05
1.55178e-05
1.47002e-05
1.45746e-05
1.4652e-05
1.48051e-05
1.52306e-05
1.5563e-05
1.50751e-05
1.48113e-05
1.4795e-05
1.49185e-05
1.53719e-05
1.58041e-05
1.53729e-05
1.5004e-05
1.49665e-05
1.5032e-05
1.50848e-05
1.51082e-05
1.50952e-05
1.50488e-05
1.49733e-05
1.48597e-05
1.4708e-05
1.47738e-05
1.55566e-05
1.55548e-05
1.47746e-05
1.46424e-05
1.47645e-05
1.47266e-05
1.47082e-05
1.46944e-05
1.4779e-05
1.49657e-05
1.50252e-05
1.48417e-05
1.46522e-05
1.45759e-05
1.45671e-05
1.45718e-05
1.45725e-05
1.45682e-05
1.45601e-05
1.45472e-05
1.45264e-05
1.44936e-05
1.44454e-05
1.43797e-05
1.42966e-05
1.41973e-05
1.4084e-05
1.39586e-05
1.38228e-05
1.36779e-05
1.35244e-05
1.33625e-05
1.31922e-05
1.30133e-05
1.08124e-05
1.3339e-05
1.28488e-05
1.30304e-05
1.32038e-05
1.33694e-05
1.35277e-05
1.36789e-05
1.38236e-05
1.3962e-05
1.40946e-05
1.42217e-05
1.43439e-05
1.44616e-05
1.45754e-05
1.46858e-05
1.47936e-05
1.48996e-05
1.50048e-05
1.51106e-05
1.52187e-05
1.53311e-05
1.54499e-05
1.55758e-05
1.57067e-05
1.58341e-05
1.5941e-05
1.60012e-05
1.59829e-05
1.58602e-05
1.56356e-05
1.5397e-05
1.50172e-05
1.49703e-05
1.56798e-05
1.57775e-05
1.49101e-05
1.45341e-05
1.45093e-05
1.48086e-05
1.56545e-05
1.54752e-05
1.46989e-05
1.4581e-05
1.4659e-05
1.48165e-05
1.52361e-05
1.55538e-05
1.50861e-05
1.48194e-05
1.4797e-05
1.49235e-05
1.53771e-05
1.58026e-05
1.53961e-05
1.50165e-05
1.49658e-05
1.50294e-05
1.50846e-05
1.511e-05
1.50976e-05
1.50511e-05
1.49752e-05
1.48612e-05
1.47104e-05
1.47777e-05
1.55313e-05
1.55367e-05
1.47854e-05
1.46492e-05
1.47683e-05
1.47316e-05
1.4714e-05
1.47023e-05
1.47874e-05
1.49684e-05
1.50274e-05
1.48551e-05
1.46694e-05
1.45895e-05
1.45774e-05
1.45811e-05
1.4582e-05
1.45784e-05
1.45709e-05
1.45585e-05
1.45379e-05
1.45053e-05
1.4457e-05
1.43913e-05
1.43082e-05
1.42091e-05
1.40958e-05
1.39706e-05
1.38351e-05
1.36903e-05
1.3537e-05
1.33753e-05
1.32052e-05
1.30264e-05
1.0837e-05
1.33234e-05
1.28352e-05
1.30172e-05
1.31909e-05
1.33569e-05
1.35156e-05
1.36673e-05
1.38123e-05
1.39511e-05
1.40841e-05
1.42116e-05
1.43341e-05
1.44522e-05
1.45664e-05
1.46772e-05
1.47854e-05
1.48917e-05
1.49973e-05
1.51034e-05
1.52117e-05
1.5324e-05
1.5442e-05
1.55662e-05
1.56937e-05
1.58163e-05
1.59182e-05
1.59756e-05
1.59593e-05
1.58435e-05
1.56256e-05
1.53887e-05
1.5013e-05
1.49933e-05
1.56757e-05
1.57363e-05
1.48974e-05
1.4537e-05
1.45144e-05
1.48108e-05
1.56112e-05
1.54393e-05
1.47008e-05
1.45887e-05
1.46667e-05
1.48278e-05
1.52419e-05
1.55482e-05
1.50989e-05
1.48274e-05
1.47982e-05
1.49262e-05
1.53794e-05
1.58027e-05
1.54213e-05
1.50287e-05
1.49639e-05
1.50256e-05
1.50835e-05
1.51113e-05
1.50996e-05
1.50529e-05
1.49766e-05
1.48619e-05
1.4712e-05
1.47824e-05
1.55093e-05