/*--------------------------------*- C++ -*----------------------------------*\
  =========                 |
  \\      /  F ield         | OpenFOAM: The Open Source CFD Toolbox
   \\    /   O peration     | Website:  https://openfoam.org
    \\  /    A nd           | Version:  9
     \\/     M anipulation  |
\*---------------------------------------------------------------------------*/
FoamFile
{
    format      ascii;
    class       volVectorField;
    location    "0.13";
    object      U;
}
// * * * * * * * * * * * * * * * * * * * * * * * * * * * * * * * * * * * * * //

dimensions      [0 1 -1 0 0 0 0];

internalField   nonuniform List<vector> 
20000
(
(-1.38778e-05 0 -0.00345602)
(8.44117e-06 0 -0.00721144)
(2.11676e-05 0 -0.0106814)
(3.49448e-05 0 -0.0144196)
(5.01852e-05 0 -0.0185631)
(6.6603e-05 0 -0.0231419)
(8.48542e-05 0 -0.0281536)
(0.000105562 0 -0.0336017)
(0.00012935 0 -0.0395022)
(0.000156798 0 -0.0458748)
(0.000188506 0 -0.0527332)
(0.000225177 0 -0.0600778)
(0.000267726 0 -0.067888)
(0.000317483 0 -0.0761108)
(0.000376652 0 -0.0846443)
(0.000449318 0 -0.0933114)
(0.000543678 0 -0.10182)
(0.00067718 0 -0.109702)
(0.000888835 0 -0.116207)
(0.00127019 0 -0.120118)
(0.00204555 0 -0.119364)
(0.00378351 0 -0.110129)
(0.0080491 0 -0.0861208)
(0.0198117 0 -0.0537686)
(0.0556752 0 -0.172693)
(0.127589 0 -1.10263)
(-0.0290143 0 -2.2196)
(-0.103641 0 -0.675218)
(-0.0193536 0 0.317345)
(0.003857 0 0.554685)
(0.0126657 0 0.718975)
(0.015703 0 0.966496)
(0.0204091 0 1.01444)
(0.106601 0 -1.23441)
(-0.0270895 0 -1.78826)
(-0.0301102 0 1.08181)
(0.00202938 0 1.2798)
(-0.00870887 0 1.27436)
(0.0191335 0 1.00764)
(-0.000231394 0 -1.66703)
(-0.0713173 0 -0.941237)
(-0.00398974 0 1.0235)
(-0.00437234 0 1.10872)
(-0.00667338 0 1.00835)
(-0.013025 0 0.990492)
(0.000449039 0 0.60442)
(-0.00184163 0 -0.844976)
(-0.004815 0 0.596482)
(0.00504953 0 0.883852)
(-0.000403069 0 0.813025)
(-0.0060492 0 0.872839)
(0.0202268 0 0.483591)
(-0.00210556 0 -1.21798)
(-0.0245447 0 0.476582)
(0.00118578 0 0.772981)
(-0.00560853 0 0.655935)
(-0.00246756 0 0.594111)
(-0.000618503 0 0.567648)
(0.00111404 0 0.568428)
(0.0029833 0 0.598734)
(0.00513731 0 0.657219)
(0.00800333 0 0.743351)
(0.0120791 0 0.864427)
(0.0121049 0 1.05329)
(0.0227648 0 1.02074)
(0.0737565 0 -1.4511)
(-0.0613889 0 -1.54792)
(-0.0298657 0 1.00776)
(-0.0114457 0 1.06342)
(-0.0117443 0 0.891009)
(-0.00752104 0 0.796059)
(-0.0054801 0 0.740275)
(-0.00607478 0 0.710635)
(-0.01087 0 0.667148)
(-0.00543139 0 0.345325)
(-0.00151812 0 -0.274636)
(0.000695037 0 0.313374)
(0.00342079 0 0.560943)
(-0.00185621 0 0.539863)
(-0.00346295 0 0.484)
(-0.00379881 0 0.432925)
(-0.00374571 0 0.384574)
(-0.00355882 0 0.336992)
(-0.00329198 0 0.289141)
(-0.00294043 0 0.240137)
(-0.00249025 0 0.189701)
(-0.00195689 0 0.138898)
(-0.00140435 0 0.0904891)
(-0.000922694 0 0.0482947)
(-0.000576727 0 0.0156203)
(-0.000373349 0 -0.00623746)
(-0.0002739 0 -0.0182995)
(-0.000230201 0 -0.0230407)
(-0.000208814 0 -0.023181)
(-0.000194078 0 -0.02089)
(-0.000181773 0 -0.0175544)
(-0.00017261 0 -0.0138876)
(-0.000168888 0 -0.0101596)
(-0.000172419 0 -0.00636979)
(-0.000179973 0 -0.00223591)
(1.76267e-05 0 -0.00363978)
(6.04284e-05 0 -0.00733311)
(8.85832e-05 0 -0.0108047)
(0.000122456 0 -0.0145523)
(0.000163164 0 -0.0187031)
(0.000210087 0 -0.0232888)
(0.000265045 0 -0.0283086)
(0.000330131 0 -0.0337661)
(0.000407769 0 -0.0396771)
(0.000500684 0 -0.0460607)
(0.00061232 0 -0.0529305)
(0.00074746 0 -0.0602871)
(0.000913123 0 -0.0681104)
(0.00112013 0 -0.0763488)
(0.00138597 0 -0.0849028)
(0.00174033 0 -0.0936016)
(0.00223599 0 -0.102167)
(0.00297086 0 -0.110158)
(0.00413398 0 -0.116893)
(0.00610364 0 -0.121307)
(0.00964857 0 -0.121676)
(0.0163948 0 -0.115034)
(0.0300281 0 -0.0975476)
(0.0572082 0 -0.0837383)
(0.115727 0 -0.239917)
(0.223869 0 -1.09663)
(-0.0201974 0 -1.9464)
(-0.17572 0 -0.720076)
(-0.0363866 0 0.274052)
(0.00755934 0 0.540631)
(0.0330596 0 0.712975)
(0.0503136 0 0.963669)
(0.0641241 0 0.973239)
(0.215878 0 -1.2385)
(-0.0652618 0 -1.64293)
(-0.0680851 0 1.04085)
(0.00221759 0 1.27345)
(-0.0169427 0 1.27263)
(0.0456195 0 0.961018)
(0.0118887 0 -1.57223)
(-0.154234 0 -0.949411)
(-0.0212873 0 1.00065)
(-0.0176097 0 1.10779)
(-0.0186239 0 1.00756)
(-0.0316021 0 0.992058)
(0.00910614 0 0.572981)
(-0.00624286 0 -0.810135)
(-0.0216238 0 0.581128)
(0.00989044 0 0.884555)
(-0.000559183 0 0.813057)
(-0.0112029 0 0.870384)
(0.0533433 0 0.445826)
(-0.00522498 0 -1.14146)
(-0.0658285 0 0.452806)
(0.000192718 0 0.770049)
(-0.0151764 0 0.653715)
(-0.00617694 0 0.591827)
(-0.00137963 0 0.565665)
(0.00343408 0 0.566642)
(0.00870383 0 0.596867)
(0.0147461 0 0.654904)
(0.0224088 0 0.740095)
(0.0332594 0 0.860915)
(0.0403134 0 1.05182)
(0.0645078 0 0.975335)
(0.149842 0 -1.40702)
(-0.128248 0 -1.45023)
(-0.077021 0 0.968758)
(-0.0354876 0 1.05748)
(-0.0323621 0 0.885356)
(-0.0220656 0 0.791725)
(-0.0171546 0 0.738128)
(-0.0178589 0 0.712659)
(-0.0252544 0 0.666817)
(-0.00740417 0 0.3237)
(-0.00654068 0 -0.258994)
(-0.00825535 0 0.305055)
(0.00335882 0 0.562915)
(-0.00567386 0 0.542954)
(-0.00852725 0 0.484565)
(-0.00947811 0 0.432327)
(-0.00958307 0 0.383593)
(-0.00923125 0 0.335837)
(-0.00858648 0 0.287823)
(-0.00770281 0 0.238611)
(-0.0066121 0 0.187961)
(-0.00539374 0 0.137055)
(-0.00419293 0 0.0887674)
(-0.00316895 0 0.0469283)
(-0.00241505 0 0.0147187)
(-0.00192204 0 -0.006723)
(-0.00161346 0 -0.0185068)
(-0.00141083 0 -0.0231052)
(-0.00126463 0 -0.023189)
(-0.00115107 0 -0.0208795)
(-0.00106289 0 -0.0175327)
(-0.000999536 0 -0.0138493)
(-0.000959552 0 -0.0100958)
(-0.000939468 0 -0.00627205)
(-0.000947568 0 -0.0021388)
(0.000120688 0 -0.00371387)
(0.000157214 0 -0.00740277)
(0.000195976 0 -0.0108828)
(0.000243579 0 -0.0146473)
(0.000304046 0 -0.018817)
(0.000378873 0 -0.0234228)
(0.000470553 0 -0.0284662)
(0.000582532 0 -0.0339518)
(0.00071921 0 -0.0398955)
(0.000885966 0 -0.0463176)
(0.00108999 0 -0.0532338)
(0.00134148 0 -0.0606485)
(0.00165543 0 -0.0685475)
(0.0020546 0 -0.0768891)
(0.00257461 0 -0.0855911)
(0.00327339 0 -0.0945128)
(0.00424837 0 -0.10343)
(0.00566843 0 -0.112006)
(0.00783406 0 -0.119752)
(0.0112923 0 -0.125989)
(0.0170272 0 -0.129769)
(0.0268697 0 -0.129749)
(0.0451281 0 -0.126045)
(0.079188 0 -0.141573)
(0.139914 0 -0.329056)
(0.243224 0 -1.06214)
(-0.00687555 0 -1.67815)
(-0.18669 0 -0.757768)
(-0.0359562 0 0.190189)
(0.017238 0 0.50467)
(0.0529017 0 0.693779)
(0.0845935 0 0.945098)
(0.103967 0 0.928738)
(0.238957 0 -1.21349)
(-0.0954926 0 -1.48661)
(-0.0867851 0 0.976885)
(0.00208576 0 1.25942)
(-0.014158 0 1.26195)
(0.0634935 0 0.928978)
(0.0310639 0 -1.44775)
(-0.179785 0 -0.971211)
(-0.0387815 0 0.955169)
(-0.0309158 0 1.10736)
(-0.0272872 0 1.00751)
(-0.04292 0 0.993536)
(0.0178024 0 0.548524)
(-0.00972077 0 -0.775426)
(-0.0394409 0 0.554524)
(0.00909192 0 0.883741)
(-0.000811453 0 0.813392)
(-0.0122422 0 0.862102)
(0.0749553 0 0.416357)
(-0.00637094 0 -1.04667)
(-0.0954974 0 0.416267)
(-0.00295536 0 0.762859)
(-0.0231799 0 0.650522)
(-0.00889782 0 0.587881)
(-0.00191457 0 0.561451)
(0.00569952 0 0.562291)
(0.0140234 0 0.591979)
(0.0235112 0 0.648932)
(0.0350893 0 0.732392)
(0.0512419 0 0.8515)
(0.0683838 0 1.03826)
(0.0999675 0 0.934465)
(0.178436 0 -1.32457)
(-0.156422 0 -1.33848)
(-0.109842 0 0.908303)
(-0.0556087 0 1.04673)
(-0.0492172 0 0.87722)
(-0.0349425 0 0.785533)
(-0.0276725 0 0.735711)
(-0.0268203 0 0.716036)
(-0.0348651 0 0.66834)
(-0.00952031 0 0.304857)
(-0.0117692 0 -0.248703)
(-0.0182926 0 0.287343)
(-0.000566736 0 0.564877)
(-0.0105989 0 0.55013)
(-0.0138221 0 0.488129)
(-0.0147938 0 0.433469)
(-0.0148255 0 0.383587)
(-0.0142433 0 0.335154)
(-0.0132576 0 0.286597)
(-0.011952 0 0.236874)
(-0.0103898 0 0.185785)
(-0.00869384 0 0.134639)
(-0.00705318 0 0.0864236)
(-0.0056546 0 0.044943)
(-0.00459472 0 0.0132175)
(-0.00385288 0 -0.00779165)
(-0.00334298 0 -0.0192818)
(-0.00297717 0 -0.0237116)
(-0.0026969 0 -0.0236964)
(-0.00247501 0 -0.0213106)
(-0.00230237 0 -0.0178864)
(-0.00217666 0 -0.0141193)
(-0.00209046 0 -0.0102808)
(-0.00203162 0 -0.00637609)
(-0.00203028 0 -0.00217184)
(0.000240132 0 -0.00379905)
(0.000277256 0 -0.00752794)
(0.000335678 0 -0.0110325)
(0.000402202 0 -0.014829)
(0.000486671 0 -0.0190359)
(0.000593571 0 -0.0236818)
(0.000726389 0 -0.0287701)
(0.000890219 0 -0.0343072)
(0.00109167 0 -0.0403107)
(0.00133901 0 -0.0468031)
(0.00164324 0 -0.0538044)
(0.00201971 0 -0.0613253)
(0.00249041 0 -0.0693621)
(0.0030875 0 -0.0778896)
(0.00385953 0 -0.0868527)
(0.004882 0 -0.096156)
(0.00627579 0 -0.105653)
(0.00823808 0 -0.11514)
(0.0110968 0 -0.124367)
(0.0154137 0 -0.133083)
(0.0221459 0 -0.141116)
(0.0329304 0 -0.14863)
(0.0517235 0 -0.159082)
(0.0862803 0 -0.201199)
(0.142691 0 -0.40837)
(0.218085 0 -1.01604)
(0.00514108 0 -1.45319)
(-0.160117 0 -0.764157)
(-0.0292096 0 0.103673)
(0.0315284 0 0.460273)
(0.072279 0 0.667913)
(0.111709 0 0.919184)
(0.135771 0 0.886029)
(0.222671 0 -1.15312)
(-0.118491 0 -1.35353)
(-0.0923504 0 0.919593)
(0.00106661 0 1.2382)
(-0.00741046 0 1.24295)
(0.0737373 0 0.895092)
(0.0571478 0 -1.337)
(-0.168861 0 -0.965362)
(-0.0549263 0 0.912621)
(-0.0439303 0 1.1034)
(-0.0338271 0 1.0053)
(-0.0513477 0 0.988498)
(0.024752 0 0.521347)
(-0.0105534 0 -0.734358)
(-0.0560496 0 0.531812)
(0.00265134 0 0.87815)
(-0.00253884 0 0.812521)
(-0.0149568 0 0.847105)
(0.0844178 0 0.38733)
(-0.00502879 0 -0.949478)
(-0.112123 0 0.387992)
(-0.00785551 0 0.750985)
(-0.0296339 0 0.644997)
(-0.0105752 0 0.582095)
(-0.00220644 0 0.555235)
(0.00797609 0 0.555954)
(0.0189035 0 0.584969)
(0.0312759 0 0.640564)
(0.04596 0 0.721881)
(0.0652996 0 0.838485)
(0.0891456 0 1.01785)
(0.125394 0 0.895327)
(0.185738 0 -1.2317)
(-0.161595 0 -1.22412)
(-0.130773 0 0.859213)
(-0.0719088 0 1.03022)
(-0.0619854 0 0.866014)
(-0.0452621 0 0.777121)
(-0.0363136 0 0.731916)
(-0.033605 0 0.717854)
(-0.0422132 0 0.66579)
(-0.0116125 0 0.284529)
(-0.0149584 0 -0.236889)
(-0.0271429 0 0.273182)
(-0.0077348 0 0.565857)
(-0.0172826 0 0.556474)
(-0.0199136 0 0.491474)
(-0.0204424 0 0.434316)
(-0.020114 0 0.383087)
(-0.0191237 0 0.333777)
(-0.0177184 0 0.284492)
(-0.0159717 0 0.23411)
(-0.0139486 0 0.182496)
(-0.0117963 0 0.131109)
(-0.0097363 0 0.0830415)
(-0.00798014 0 0.0420498)
(-0.00663344 0 0.010961)
(-0.00567242 0 -0.00946635)
(-0.00500013 0 -0.0205313)
(-0.00451457 0 -0.0246836)
(-0.00414537 0 -0.0244827)
(-0.00385697 0 -0.0219514)
(-0.00363511 0 -0.018392)
(-0.0034749 0 -0.0144908)
(-0.00336622 0 -0.0105246)
(-0.00329205 0 -0.00650758)
(-0.00329061 0 -0.00221037)
(0.00039339 0 -0.00389367)
(0.000430726 0 -0.00768641)
(0.000507125 0 -0.0112331)
(0.000593038 0 -0.0150758)
(0.000702427 0 -0.0193352)
(0.000841993 0 -0.0240388)
(0.00101635 0 -0.0291917)
(0.00123214 0 -0.0348031)
(0.00149795 0 -0.0408924)
(0.0018245 0 -0.0474855)
(0.00222585 0 -0.0546076)
(0.00272111 0 -0.0622778)
(0.0033367 0 -0.0705045)
(0.00410996 0 -0.0792814)
(0.00509529 0 -0.0885834)
(0.00637465 0 -0.0983618)
(0.00807436 0 -0.108545)
(0.0103913 0 -0.119053)
(0.0136391 0 -0.129838)
(0.0183408 0 -0.140986)
(0.0253818 0 -0.152913)
(0.0362249 0 -0.16694)
(0.0541763 0 -0.18902)
(0.0862108 0 -0.250466)
(0.135568 0 -0.463192)
(0.18105 0 -0.960381)
(0.0144504 0 -1.27872)
(-0.122657 0 -0.750538)
(-0.021574 0 0.0284614)
(0.0458913 0 0.414868)
(0.0896938 0 0.63973)
(0.131851 0 0.892231)
(0.160132 0 0.855305)
(0.200421 0 -1.06182)
(-0.130579 0 -1.24503)
(-0.0887408 0 0.865248)
(0.00194627 0 1.21314)
(-0.000934998 0 1.2197)
(0.0779434 0 0.857749)
(0.0826706 0 -1.2444)
(-0.147104 0 -0.930578)
(-0.0703497 0 0.879539)
(-0.0565433 0 1.09632)
(-0.039839 0 1.00047)
(-0.0588908 0 0.977119)
(0.0303345 0 0.492248)
(-0.0122047 0 -0.685425)
(-0.0714731 0 0.511484)
(-0.00618607 0 0.868702)
(-0.00608493 0 0.809741)
(-0.0206311 0 0.82824)
(0.0839078 0 0.360422)
(-0.00468412 0 -0.854722)
(-0.117911 0 0.366799)
(-0.0123644 0 0.73628)
(-0.0342224 0 0.637966)
(-0.0113331 0 0.574895)
(-0.00226859 0 0.547558)
(0.0101956 0 0.548155)
(0.0231498 0 0.576358)
(0.0377291 0 0.630453)
(0.0546912 0 0.709451)
(0.075608 0 0.823369)
(0.101296 0 0.995924)
(0.140156 0 0.861342)
(0.182037 0 -1.13397)
(-0.15662 0 -1.11056)
(-0.141919 0 0.822479)
(-0.0835164 0 1.01133)
(-0.071058 0 0.853191)
(-0.0529721 0 0.767232)
(-0.0431058 0 0.726859)
(-0.0386336 0 0.717821)
(-0.0469803 0 0.65907)
(-0.012093 0 0.264231)
(-0.0181806 0 -0.219847)
(-0.0363033 0 0.263589)
(-0.0167742 0 0.56494)
(-0.0248892 0 0.5606)
(-0.0262704 0 0.493515)
(-0.0261368 0 0.434229)
(-0.0252801 0 0.381825)
(-0.023769 0 0.331722)
(-0.0218842 0 0.281736)
(-0.0196721 0 0.230704)
(-0.017196 0 0.178589)
(-0.0146228 0 0.127014)
(-0.0121963 0 0.0791766)
(-0.0101393 0 0.0387629)
(-0.00855591 0 0.00839347)
(-0.00741469 0 -0.0113808)
(-0.00660828 0 -0.0219607)
(-0.00602439 0 -0.0257893)
(-0.00558431 0 -0.0253692)
(-0.00524522 0 -0.0226674)
(-0.00498766 0 -0.0189517)
(-0.00480349 0 -0.0148974)
(-0.00468055 0 -0.0107864)
(-0.00459932 0 -0.00664493)
(-0.00459409 0 -0.00224881)
(0.000552377 0 -0.00399363)
(0.000589356 0 -0.00786774)
(0.00067952 0 -0.011476)
(0.000781975 0 -0.0153808)
(0.000913495 0 -0.0197078)
(0.00108259 0 -0.0244858)
(0.00129487 0 -0.0297222)
(0.00155823 0 -0.0354283)
(0.00188282 0 -0.041626)
(0.00228121 0 -0.048345)
(0.0027696 0 -0.0556159)
(0.00336948 0 -0.0634662)
(0.00410969 0 -0.0719166)
(0.00502989 0 -0.0809791)
(0.00618666 0 -0.0906558)
(0.00766376 0 -0.10094)
(0.00958701 0 -0.111823)
(0.0121461 0 -0.123325)
(0.0156349 0 -0.135561)
(0.0205377 0 -0.14888)
(0.0276627 0 -0.164154)
(0.0383187 0 -0.18366)
(0.0552238 0 -0.215299)
(0.0837545 0 -0.29061)
(0.124586 0 -0.499661)
(0.147617 0 -0.908099)
(0.0206841 0 -1.14789)
(-0.0888946 0 -0.732368)
(-0.0140475 0 -0.0370207)
(0.0579801 0 0.368774)
(0.104319 0 0.610764)
(0.148459 0 0.86554)
(0.179781 0 0.837304)
(0.188015 0 -0.95492)
(-0.127819 0 -1.1528)
(-0.0781363 0 0.812649)
(0.00673747 0 1.18795)
(0.00499247 0 1.19608)
(0.0787702 0 0.819161)
(0.100111 0 -1.16469)
(-0.129858 0 -0.876912)
(-0.0852293 0 0.85644)
(-0.0690249 0 1.0868)
(-0.0461231 0 0.993712)
(-0.0655388 0 0.961396)
(0.0340213 0 0.463132)
(-0.0160003 0 -0.631399)
(-0.0847573 0 0.493881)
(-0.0151718 0 0.85681)
(-0.0111633 0 0.804965)
(-0.0270913 0 0.808488)
(0.0770187 0 0.336532)
(-0.0064226 0 -0.765564)
(-0.116681 0 0.350907)
(-0.015604 0 0.720805)
(-0.0368997 0 0.63023)
(-0.0113482 0 0.566701)
(-0.00211584 0 0.538863)
(0.0122675 0 0.539276)
(0.0266298 0 0.566582)
(0.0427368 0 0.619218)
(0.0612028 0 0.696032)
(0.0827429 0 0.807798)
(0.107449 0 0.974974)
(0.146601 0 0.833974)
(0.172629 0 -1.03351)
(-0.148257 0 -0.999958)
(-0.145288 0 0.795104)
(-0.0903952 0 0.992234)
(-0.0769506 0 0.839885)
(-0.0582436 0 0.75656)
(-0.0480613 0 0.720988)
(-0.0418706 0 0.716387)
(-0.0487881 0 0.649297)
(-0.0112516 0 0.245384)
(-0.0224112 0 -0.198226)
(-0.0458118 0 0.258305)
(-0.0265259 0 0.562403)
(-0.032624 0 0.562599)
(-0.0323957 0 0.494159)
(-0.0314938 0 0.433092)
(-0.0300099 0 0.3797)
(-0.0279394 0 0.328915)
(-0.0255747 0 0.278289)
(-0.0229219 0 0.226644)
(-0.0200445 0 0.174071)
(-0.0171248 0 0.122374)
(-0.0144151 0 0.0748459)
(-0.0121339 0 0.0350892)
(-0.0103727 0 0.00550867)
(-0.00908932 0 -0.0135517)
(-0.00816973 0 -0.0235927)
(-0.00749785 0 -0.0270514)
(-0.00699131 0 -0.0263746)
(-0.00660314 0 -0.0234722)
(-0.00631012 0 -0.0195762)
(-0.00610112 0 -0.0153492)
(-0.0059624 0 -0.0110777)
(-0.00587314 0 -0.00679903)
(-0.00585952 0 -0.00229281)
(0.000663073 0 -0.00409985)
(0.000701055 0 -0.00806859)
(0.000802443 0 -0.0117547)
(0.000918686 0 -0.0157365)
(0.00106917 0 -0.0201459)
(0.0012639 0 -0.0250145)
(0.0015093 0 -0.0303518)
(0.00181439 0 -0.0361712)
(0.00219057 0 -0.0424971)
(0.00265178 0 -0.0493626)
(0.00321574 0 -0.0568041)
(0.00390542 0 -0.0648568)
(0.00475089 0 -0.0735533)
(0.00579281 0 -0.0829225)
(0.00708878 0 -0.0929909)
(0.008723 0 -0.103788)
(0.0108185 0 -0.115363)
(0.0135548 0 -0.127823)
(0.0172046 0 -0.141422)
(0.022215 0 -0.156737)
(0.0293116 0 -0.17505)
(0.0396112 0 -0.199454)
(0.0553125 0 -0.239193)
(0.0802365 0 -0.324449)
(0.112655 0 -0.524782)
(0.121404 0 -0.863545)
(0.0244711 0 -1.04916)
(-0.0624429 0 -0.715535)
(-0.00677896 0 -0.0961452)
(0.0673933 0 0.320733)
(0.115782 0 0.580253)
(0.163282 0 0.837697)
(0.196906 0 0.826394)
(0.18834 0 -0.843475)
(-0.111855 0 -1.06966)
(-0.0631783 0 0.76387)
(0.0145178 0 1.16523)
(0.0108818 0 1.17431)
(0.0787512 0 0.781328)
(0.106581 0 -1.09253)
(-0.122395 0 -0.811909)
(-0.0997223 0 0.840958)
(-0.081595 0 1.0746)
(-0.0526304 0 0.985249)
(-0.0708521 0 0.942445)
(0.0352164 0 0.435138)
(-0.021148 0 -0.574718)
(-0.0950873 0 0.479192)
(-0.0234592 0 0.8428)
(-0.0167271 0 0.798688)
(-0.0320469 0 0.789176)
(0.0674758 0 0.315424)
(-0.00939875 0 -0.68452)
(-0.112197 0 0.338506)
(-0.0178511 0 0.705624)
(-0.0379411 0 0.622143)
(-0.0107937 0 0.557853)
(-0.00176137 0 0.529471)
(0.014141 0 0.529608)
(0.0293403 0 0.555984)
(0.0463683 0 0.607321)
(0.0657386 0 0.682196)
(0.08716 0 0.792657)
(0.110573 0 0.955327)
(0.148005 0 0.812465)
(0.161812 0 -0.933499)
(-0.138924 0 -0.89483)
(-0.143475 0 0.774619)
(-0.0936641 0 0.973869)
(-0.0800669 0 0.826753)
(-0.0613226 0 0.745569)
(-0.0511867 0 0.714555)
(-0.0433568 0 0.713573)
(-0.0479613 0 0.637319)
(-0.0100378 0 0.229577)
(-0.0273159 0 -0.17258)
(-0.0547008 0 0.256769)
(-0.0360352 0 0.558388)
(-0.0398662 0 0.562528)
(-0.0379552 0 0.493414)
(-0.0362696 0 0.430935)
(-0.0341173 0 0.376724)
(-0.0314991 0 0.325347)
(-0.0286896 0 0.274133)
(-0.0256465 0 0.22192)
(-0.0224348 0 0.168949)
(-0.0192453 0 0.117208)
(-0.0163278 0 0.0700724)
(-0.0138867 0 0.0310433)
(-0.0119967 0 0.00230631)
(-0.0106047 0 -0.0159949)
(-0.0095933 0 -0.0254544)
(-0.00884628 0 -0.028502)
(-0.00828045 0 -0.0275301)
(-0.0078469 0 -0.0243936)
(-0.00752011 0 -0.0202887)
(-0.0072865 0 -0.0158652)
(-0.00713165 0 -0.0114137)
(-0.00703425 0 -0.00698052)
(-0.00701004 0 -0.00234623)
(0.000667002 0 -0.00421432)
(0.000708016 0 -0.0082883)
(0.000819197 0 -0.012064)
(0.00094744 0 -0.0161353)
(0.00111445 0 -0.0206401)
(0.0013313 0 -0.0256134)
(0.00160518 0 -0.0310672)
(0.0019461 0 -0.0370164)
(0.0023665 0 -0.0434875)
(0.00288138 0 -0.0505172)
(0.00350956 0 -0.0581471)
(0.00427484 0 -0.0664205)
(0.00520772 0 -0.0753808)
(0.00634906 0 -0.0850726)
(0.00775673 0 -0.0955457)
(0.00951428 0 -0.106864)
(0.0117398 0 -0.119127)
(0.0146003 0 -0.132524)
(0.0183453 0 -0.147436)
(0.0233708 0 -0.164632)
(0.0303094 0 -0.185737)
(0.0401566 0 -0.214496)
(0.0546499 0 -0.260884)
(0.0762586 0 -0.352546)
(0.10138 0 -0.541368)
(0.101752 0 -0.825435)
(0.0266615 0 -0.972899)
(-0.0426517 0 -0.70047)
(-0.000554512 0 -0.149572)
(0.0737087 0 0.270961)
(0.123676 0 0.547287)
(0.175437 0 0.807898)
(0.211597 0 0.817503)
(0.196315 0 -0.733411)
(-0.0887476 0 -0.991306)
(-0.0471895 0 0.720631)
(0.0229222 0 1.1456)
(0.0167549 0 1.15531)
(0.0791593 0 0.746217)
(0.102901 0 -1.02336)
(-0.124034 0 -0.740355)
(-0.113725 0 0.830026)
(-0.0939287 0 1.05937)
(-0.0588392 0 0.974685)
(-0.0745207 0 0.920899)
(0.0339344 0 0.409056)
(-0.0265615 0 -0.517648)
(-0.102163 0 0.466931)
(-0.030696 0 0.827092)
(-0.0218156 0 0.791123)
(-0.0344443 0 0.770301)
(0.0581885 0 0.2971)
(-0.0125365 0 -0.612279)
(-0.106976 0 0.328185)
(-0.0194671 0 0.690903)
(-0.0376888 0 0.613743)
(-0.00978951 0 0.548643)
(-0.001221 0 0.519657)
(0.0157976 0 0.51943)
(0.0313464 0 0.544857)
(0.0487601 0 0.595088)
(0.0686368 0 0.668237)
(0.0892934 0 0.778001)
(0.112412 0 0.936896)
(0.146945 0 0.795462)
(0.152316 0 -0.836787)
(-0.128651 0 -0.795985)
(-0.138874 0 0.759184)
(-0.0944598 0 0.956731)
(-0.0808339 0 0.814048)
(-0.0625438 0 0.734545)
(-0.0526151 0 0.707613)
(-0.0433256 0 0.709167)
(-0.0451857 0 0.623903)
(-0.00901958 0 0.21814)
(-0.032127 0 -0.143242)
(-0.0620955 0 0.258372)
(-0.0444664 0 0.552951)
(-0.0460367 0 0.560362)
(-0.0426189 0 0.491263)
(-0.0402356 0 0.427809)
(-0.0374584 0 0.372974)
(-0.0343575 0 0.321105)
(-0.031164 0 0.269371)
(-0.0277932 0 0.216654)
(-0.0243155 0 0.163361)
(-0.0209249 0 0.111665)
(-0.0178621 0 0.0649989)
(-0.0153134 0 0.0267498)
(-0.0133355 0 -0.0011142)
(-0.0118659 0 -0.0186365)
(-0.0107854 0 -0.027494)
(-0.00997931 0 -0.0301065)
(-0.00936519 0 -0.0288137)
(-0.00889381 0 -0.0254177)
(-0.00853834 0 -0.021081)
(-0.00828335 0 -0.0164413)
(-0.0081146 0 -0.0117925)
(-0.00801091 0 -0.0071887)
(-0.00797547 0 -0.00240902)
(0.000506378 0 -0.00433936)
(0.00055247 0 -0.0085278)
(0.000672514 0 -0.0124017)
(0.000811746 0 -0.0165722)
(0.000993624 0 -0.0211825)
(0.00122982 0 -0.0262722)
(0.00152813 0 -0.0318552)
(0.00189942 0 -0.0379476)
(0.00235698 0 -0.0445779)
(0.00291666 0 -0.0517858)
(0.00359794 0 -0.0596185)
(0.00442494 0 -0.0681265)
(0.00542797 0 -0.077364)
(0.00664751 0 -0.0873906)
(0.00814086 0 -0.0982772)
(0.00998887 0 -0.110119)
(0.012301 0 -0.123062)
(0.0152303 0 -0.137366)
(0.0190137 0 -0.153518)
(0.0240155 0 -0.172455)
(0.0307671 0 -0.196074)
(0.0401389 0 -0.228562)
(0.053487 0 -0.280147)
(0.0721577 0 -0.375246)
(0.0913203 0 -0.551415)
(0.0870202 0 -0.792622)
(0.0277895 0 -0.912835)
(-0.0281005 0 -0.687145)
(0.00396145 0 -0.197195)
(0.0764136 0 0.220735)
(0.127616 0 0.511903)
(0.182948 0 0.776529)
(0.222058 0 0.808431)
(0.204691 0 -0.628517)
(-0.0646036 0 -0.914766)
(-0.0331004 0 0.68407)
(0.0299718 0 1.12823)
(0.0224553 0 1.1389)
(0.0800902 0 0.716057)
(0.091654 0 -0.953366)
(-0.131389 0 -0.666255)
(-0.126472 0 0.821105)
(-0.105055 0 1.04126)
(-0.0641217 0 0.961553)
(-0.076352 0 0.897427)
(0.0308401 0 0.385619)
(-0.0314961 0 -0.462089)
(-0.106182 0 0.456722)
(-0.0367246 0 0.810283)
(-0.025961 0 0.782114)
(-0.0343164 0 0.751528)
(0.05077 0 0.281845)
(-0.0150887 0 -0.547626)
(-0.102062 0 0.319352)
(-0.0204934 0 0.676429)
(-0.0363951 0 0.60501)
(-0.00838075 0 0.539326)
(-0.000500762 0 0.509686)
(0.0172438 0 0.509031)
(0.0327313 0 0.533501)
(0.0500643 0 0.582791)
(0.0701566 0 0.654422)
(0.0895947 0 0.763545)
(0.113449 0 0.919517)
(0.144933 0 0.781902)
(0.144889 0 -0.744789)
(-0.117003 0 -0.702601)
(-0.132944 0 0.747893)
(-0.0933846 0 0.941016)
(-0.0797614 0 0.801806)
(-0.0622702 0 0.723699)
(-0.0526157 0 0.700191)
(-0.0421419 0 0.703104)
(-0.0412205 0 0.609815)
(-0.00830413 0 0.211652)
(-0.0360762 0 -0.111044)
(-0.0674263 0 0.262502)
(-0.0511728 0 0.546358)
(-0.0506959 0 0.556303)
(-0.0460957 0 0.48783)
(-0.0431708 0 0.42383)
(-0.0398896 0 0.368561)
(-0.0364196 0 0.316305)
(-0.0329288 0 0.26413)
(-0.0293071 0 0.210984)
(-0.0256359 0 0.157453)
(-0.0221093 0 0.105884)
(-0.0189571 0 0.0597534)
(-0.0163467 0 0.0223196)
(-0.0143182 0 -0.00465952)
(-0.0128007 0 -0.0213997)
(-0.0116747 0 -0.0296497)
(-0.0108277 0 -0.031816)
(-0.0101792 0 -0.0301873)
(-0.0096805 0 -0.0265156)
(-0.00930411 0 -0.0219316)
(-0.00903324 0 -0.0170618)
(-0.00885455 0 -0.0122035)
(-0.0087475 0 -0.0074175)
(-0.00870086 0 -0.00247932)
(0.000128373 0 -0.00447563)
(0.000182497 0 -0.00878865)
(0.000309014 0 -0.0127685)
(0.000458046 0 -0.017045)
(0.000653867 0 -0.0217687)
(0.000907229 0 -0.0269833)
(0.00122642 0 -0.0327048)
(0.00162301 0 -0.0389505)
(0.00211096 0 -0.0457503)
(0.00270668 0 -0.053147)
(0.00342997 0 -0.0611924)
(0.00430467 0 -0.0699443)
(0.0053604 0 -0.0794663)
(0.00663699 0 -0.0898319)
(0.00819144 0 -0.101131)
(0.0101029 0 -0.113487)
(0.0124743 0 -0.127089)
(0.0154456 0 -0.142256)
(0.0192347 0 -0.159565)
(0.0241724 0 -0.180092)
(0.0307253 0 -0.20596)
(0.0396333 0 -0.24162)
(0.0518969 0 -0.297134)
(0.0679709 0 -0.393481)
(0.0824293 0 -0.55701)
(0.0757023 0 -0.764441)
(0.0280409 0 -0.864704)
(-0.017675 0 -0.675511)
(0.00658884 0 -0.239254)
(0.0754371 0 0.171231)
(0.127508 0 0.47478)
(0.184335 0 0.744451)
(0.226154 0 0.798575)
(0.208439 0 -0.531054)
(-0.0430729 0 -0.838872)
(-0.0228476 0 0.653889)
(0.0345697 0 1.11232)
(0.0281206 0 1.12442)
(0.0811476 0 0.692691)
(0.0761077 0 -0.880214)
(-0.140504 0 -0.593167)
(-0.136704 0 0.812415)
(-0.113709 0 1.02079)
(-0.0679558 0 0.94576)
(-0.0762973 0 0.872748)
(0.0268168 0 0.365216)
(-0.0356653 0 -0.40924)
(-0.107654 0 0.448408)
(-0.0416104 0 0.792926)
(-0.0292035 0 0.771546)
(-0.0325072 0 0.732653)
(0.0454731 0 0.269487)
(-0.0166554 0 -0.488894)
(-0.0973494 0 0.311791)
(-0.0207427 0 0.661919)
(-0.0341858 0 0.596012)
(-0.00656685 0 0.530126)
(0.000408463 0 0.499801)
(0.0185118 0 0.498672)
(0.0335832 0 0.5222)
(0.0504538 0 0.570665)
(0.0704522 0 0.641022)
(0.0884452 0 0.749081)
(0.113219 0 0.902951)
(0.142459 0 0.770767)
(0.138732 0 -0.658126)
(-0.10432 0 -0.613574)
(-0.126313 0 0.740393)
(-0.0907931 0 0.926627)
(-0.0773481 0 0.790079)
(-0.0608435 0 0.713213)
(-0.051526 0 0.692396)
(-0.0402349 0 0.69559)
(-0.0368301 0 0.595715)
(-0.00784833 0 0.209811)
(-0.0386639 0 -0.0772133)
(-0.0703984 0 0.268561)
(-0.0557873 0 0.539037)
(-0.0536308 0 0.550795)
(-0.0482294 0 0.483416)
(-0.0449457 0 0.419223)
(-0.0413215 0 0.363662)
(-0.0376183 0 0.311096)
(-0.0339321 0 0.258542)
(-0.0301468 0 0.205031)
(-0.0263577 0 0.151336)
(-0.0227584 0 0.0999659)
(-0.0195682 0 0.0544211)
(-0.0169377 0 0.0178254)
(-0.0148925 0 -0.00826665)
(-0.0133554 0 -0.0242293)
(-0.0122074 0 -0.0318736)
(-0.0113389 0 -0.0335897)
(-0.0106714 0 -0.0316172)
(-0.0101573 0 -0.0276599)
(-0.00976909 0 -0.0228189)
(-0.00948883 0 -0.0177105)
(-0.00930473 0 -0.0126356)
(-0.00919754 0 -0.00766063)
(-0.00913967 0 -0.00255518)
(-0.000511057 0 -0.00462354)
(-0.000451089 0 -0.00907048)
(-0.000316724 0 -0.0131625)
(-0.000157479 0 -0.0175509)
(5.05339e-05 0 -0.0223938)
(0.00031854 0 -0.0277394)
(0.000655163 0 -0.0336059)
(0.00107236 0 -0.0400116)
(0.00158448 0 -0.0469876)
(0.00220835 0 -0.0545794)
(0.00296391 0 -0.0628431)
(0.00387473 0 -0.071843)
(0.00496964 0 -0.081652)
(0.00628759 0 -0.0923558)
(0.0078842 0 -0.104062)
(0.0098345 0 -0.11692)
(0.0122334 0 -0.131156)
(0.0152136 0 -0.147145)
(0.0189817 0 -0.165539)
(0.0238294 0 -0.18753)
(0.0301675 0 -0.215404)
(0.03861 0 -0.253752)
(0.0498346 0 -0.312147)
(0.0636262 0 -0.408215)
(0.0744617 0 -0.559722)
(0.0666126 0 -0.740152)
(0.0274543 0 -0.82535)
(-0.0105785 0 -0.66519)
(0.00741829 0 -0.276048)
(0.071193 0 0.123359)
(0.123622 0 0.436866)
(0.179415 0 0.71263)
(0.222949 0 0.787926)
(0.20591 0 -0.442052)
(-0.0259255 0 -0.764097)
(-0.0164559 0 0.628954)
(0.0369807 0 1.09728)
(0.0336315 0 1.11099)
(0.0819589 0 0.677105)
(0.0596062 0 -0.803372)
(-0.148021 0 -0.523631)
(-0.143194 0 0.802915)
(-0.118825 0 0.998731)
(-0.0700522 0 0.927671)
(-0.0745895 0 0.847501)
(0.0225724 0 0.347697)
(-0.0390712 0 -0.359284)
(-0.107198 0 0.441891)
(-0.0455826 0 0.77546)
(-0.0318367 0 0.759537)
(-0.0303495 0 0.713561)
(0.0414414 0 0.259432)
(-0.0171045 0 -0.43502)
(-0.092104 0 0.305291)
(-0.019954 0 0.647216)
(-0.0310963 0 0.586919)
(-0.00434893 0 0.521212)
(0.0015141 0 0.490251)
(0.0196526 0 0.488567)
(0.0339926 0 0.511197)
(0.0501131 0 0.558913)
(0.0696195 0 0.628267)
(0.0861219 0 0.734685)
(0.11083 0 0.887067)
(0.139114 0 0.761111)
(0.132327 0 -0.577224)
(-0.0918561 0 -0.528407)
(-0.119287 0 0.736297)
(-0.0871233 0 0.913326)
(-0.0740137 0 0.778962)
(-0.0585778 0 0.70323)
(-0.0496817 0 0.684425)
(-0.0380121 0 0.687029)
(-0.032671 0 0.582064)
(-0.00763871 0 0.211713)
(-0.0397892 0 -0.0430018)
(-0.0710289 0 0.276016)
(-0.0582404 0 0.531446)
(-0.0548404 0 0.544348)
(-0.0490111 0 0.478384)
(-0.0455469 0 0.414255)
(-0.0417461 0 0.358488)
(-0.0379433 0 0.305651)
(-0.0341643 0 0.252752)
(-0.0303027 0 0.19892)
(-0.0264689 0 0.145115)
(-0.0228562 0 0.0939989)
(-0.0196753 0 0.0490759)
(-0.0170623 0 0.0133297)
(-0.0150309 0 -0.0118811)
(-0.0134996 0 -0.0270769)
(-0.0123506 0 -0.0341228)
(-0.0114776 0 -0.0353908)
(-0.0108048 0 -0.0330721)
(-0.0102861 0 -0.0288253)
(-0.00989384 0 -0.0237232)
(-0.00960951 0 -0.0183731)
(-0.0094235 0 -0.0130796)
(-0.00931857 0 -0.00791321)
(-0.00924888 0 -0.00263527)
(-0.00144573 0 -0.00478294)
(-0.00137959 0 -0.00937115)
(-0.00123924 0 -0.0135802)
(-0.00107113 0 -0.0180854)
(-0.000852565 0 -0.0230522)
(-0.000572141 0 -0.0285333)
(-0.000221132 0 -0.0345492)
(0.000212519 0 -0.0411193)
(0.000743283 0 -0.0482758)
(0.00138802 0 -0.0560667)
(0.00216647 0 -0.0645522)
(0.00310146 0 -0.0738026)
(0.00422071 0 -0.083899)
(0.00556216 0 -0.0949388)
(0.00718049 0 -0.107046)
(0.00914766 0 -0.120393)
(0.011551 0 -0.135238)
(0.0145141 0 -0.152004)
(0.0182323 0 -0.171412)
(0.0229644 0 -0.194749)
(0.0290641 0 -0.224411)
(0.0370243 0 -0.265006)
(0.0472498 0 -0.325419)
(0.0590532 0 -0.420162)
(0.0671272 0 -0.560514)
(0.0588667 0 -0.719004)
(0.026037 0 -0.792462)
(-0.00616757 0 -0.65569)
(0.00668344 0 -0.30779)
(0.0643644 0 0.0779197)
(0.116522 0 0.39919)
(0.169214 0 0.682003)
(0.213206 0 0.776508)
(0.198071 0 -0.361749)
(-0.0129252 0 -0.6916)
(-0.0128362 0 0.608382)
(0.038083 0 1.08196)
(0.0388683 0 1.09773)
(0.0824346 0 0.669233)
(0.0451026 0 -0.723882)
(-0.151556 0 -0.458927)
(-0.145174 0 0.792244)
(-0.119867 0 0.976057)
(-0.0704119 0 0.908062)
(-0.0717996 0 0.82227)
(0.0185609 0 0.332596)
(-0.0416575 0 -0.312039)
(-0.105416 0 0.437064)
(-0.0488754 0 0.758268)
(-0.0342481 0 0.746479)
(-0.0290351 0 0.694203)
(0.0375114 0 0.250997)
(-0.0166182 0 -0.385783)
(-0.0855652 0 0.299585)
(-0.0179205 0 0.632423)
(-0.0271766 0 0.577983)
(-0.00173333 0 0.512621)
(0.00283614 0 0.481377)
(0.0206916 0 0.478892)
(0.0340449 0 0.500692)
(0.0492205 0 0.54772)
(0.0677583 0 0.616352)
(0.0828232 0 0.720787)
(0.105616 0 0.872016)
(0.134061 0 0.752249)
(0.124262 0 -0.502089)
(-0.0811618 0 -0.447387)
(-0.112168 0 0.734924)
(-0.0828946 0 0.900893)
(-0.0700979 0 0.768501)
(-0.0557474 0 0.693836)
(-0.0473564 0 0.676509)
(-0.035753 0 0.677893)
(-0.0291206 0 0.569139)
(-0.00765938 0 0.216228)
(-0.0396546 0 -0.00950401)
(-0.0696164 0 0.284375)
(-0.0586842 0 0.523972)
(-0.054465 0 0.537421)
(-0.0485307 0 0.473056)
(-0.0450412 0 0.409168)
(-0.0412147 0 0.35324)
(-0.0374294 0 0.30014)
(-0.0336504 0 0.246904)
(-0.0297929 0 0.192775)
(-0.0259814 0 0.138899)
(-0.0224096 0 0.0880721)
(-0.0192813 0 0.0437914)
(-0.0167195 0 0.00889354)
(-0.014728 0 -0.0154513)
(-0.0132229 0 -0.0298987)
(-0.0120889 0 -0.0363604)
(-0.0112237 0 -0.0371885)
(-0.0105549 0 -0.0345274)
(-0.010038 0 -0.0299925)
(-0.00964618 0 -0.0246305)
(-0.00936026 0 -0.0190407)
(-0.00917358 0 -0.0135306)
(-0.0090718 0 -0.00817341)
(-0.00898885 0 -0.00271941)
(-0.00270316 0 -0.00495209)