/*--------------------------------*- C++ -*----------------------------------*\
  =========                 |
  \\      /  F ield         | OpenFOAM: The Open Source CFD Toolbox
   \\    /   O peration     | Website:  https://openfoam.org
    \\  /    A nd           | Version:  9
     \\/     M anipulation  |
\*---------------------------------------------------------------------------*/
FoamFile
{
    format      ascii;
    class       surfaceVectorField;
    location    "0.13";
    object      Uf;
}
// * * * * * * * * * * * * * * * * * * * * * * * * * * * * * * * * * * * * * //

dimensions      [0 1 -1 0 0 0 0];

internalField   nonuniform List<vector> 
39700
(
(6.36376e-07 0 -0.00528886)
(1.87444e-06 0 -0.00354621)
(1.47578e-05 0 -0.00890495)
(3.44348e-05 0 -0.00726965)
(2.80797e-05 0 -0.0125058)
(5.48754e-05 0 -0.0107402)
(4.25027e-05 0 -0.0164419)
(7.87004e-05 0 -0.0144831)
(5.81669e-05 0 -0.0207978)
(0.000106674 0 -0.0186302)
(7.53796e-05 0 -0.0255879)
(0.000138345 0 -0.0232122)
(9.47134e-05 0 -0.0308126)
(0.00017495 0 -0.0282274)
(0.000116814 0 -0.0364815)
(0.000217846 0 -0.0336794)
(0.000142278 0 -0.0426124)
(0.00026856 0 -0.039584)
(0.000171679 0 -0.0492221)
(0.000328741 0 -0.0459604)
(0.00020565 0 -0.0563178)
(0.000400413 0 -0.0528222)
(0.000244967 0 -0.0638896)
(0.000486319 0 -0.0601697)
(0.000290686 0 -0.0719012)
(0.000590425 0 -0.0679819)
(0.000344441 0 -0.0802756)
(0.000718805 0 -0.0762061)
(0.0004091 0 -0.0888743)
(0.00088131 0 -0.0847405)
(0.000490217 0 -0.0974642)
(0.00109483 0 -0.0934094)
(0.000599333 0 -0.105667)
(0.00138984 0 -0.101925)
(0.000761758 0 -0.112877)
(0.00182402 0 -0.109829)
(0.00103576 0 -0.118116)
(0.00251141 0 -0.116398)
(0.0015616 0 -0.11975)
(0.00368692 0 -0.120482)
(0.00269216 0 -0.114857)
(0.00584706 0 -0.120185)
(0.00538043 0 -0.098412)
(0.0100891 0 -0.112176)
(0.0124435 0 -0.0703313)
(0.0190386 0 -0.0916836)
(0.0328504 0 -0.11181)
(0.0385099 0 -0.0703173)
(0.089281 0 -0.626552)
(0.0857012 0 -0.216944)
(0.109968 0 -1.64777)
(0.175729 0 -1.1102)
(-0.132064 0 -1.46586)
(-0.0246058 0 -2.04407)
(-0.051551 0 -0.190796)
(-0.139681 0 -0.720248)
(-0.005714 0 0.433179)
(-0.0278701 0 0.290636)
(0.00819686 0 0.628563)
(0.00570817 0 0.547748)
(0.0159242 0 0.842736)
(0.0228626 0 0.716122)
(0.0171667 0 0.990467)
(0.0330083 0 0.966145)
(0.0543546 0 -0.109984)
(0.0422666 0 0.992271)
(0.0768604 0 -1.51133)
(0.16124 0 -1.24549)
(-0.0623041 0 -0.353225)
(-0.0461756 0 -1.70125)
(-0.00760779 0 1.18081)
(-0.0490977 0 1.05503)
(-0.00240046 0 1.27708)
(0.00212349 0 1.27716)
(-0.00408792 0 1.141)
(-0.0128258 0 1.27447)
(0.0364023 0 -0.329694)
(0.0323765 0 0.981211)
(-0.0689702 0 -1.30413)
(0.00582867 0 -1.60696)
(-0.0281447 0 0.0411335)
(-0.112776 0 -0.955999)
(-0.00389643 0 1.06611)
(-0.0126385 0 1.01173)
(-0.0067733 0 1.05853)
(-0.010991 0 1.10934)
(-0.00701276 0 0.999421)
(-0.0126487 0 1.00793)
(-0.0142956 0 0.797456)
(-0.0223135 0 0.992647)
(0.00894567 0 -0.120278)
(0.00477759 0 0.587566)
(-0.0132427 0 -0.124247)
(-0.00404225 0 -0.82755)
(0.0044268 0 0.740167)
(-0.0132194 0 0.58753)
(-0.000130272 0 0.848439)
(0.00746999 0 0.88568)
(-4.50386e-05 0 0.842932)
(-0.000481126 0 0.812755)
(-0.00229845 0 0.678215)
(-0.00862607 0 0.872865)
(0.0323623 0 -0.367193)
(0.036785 0 0.461218)
(-0.0365105 0 -0.370697)
(-0.00366527 0 -1.1742)
(-0.00527535 0 0.624781)
(-0.0451866 0 0.461009)
(-0.00482085 0 0.714458)
(0.00068925 0 0.772422)
(-0.0034381 0 0.625023)
(-0.0103924 0 0.654873)
(-0.00151191 0 0.580879)
(-0.00432225 0 0.592934)
(0.000233548 0 0.568038)
(-0.000999064 0 0.566704)
(0.00201395 0 0.583581)
(0.00227406 0 0.567575)
(0.00397978 0 0.627977)
(0.00584357 0 0.597854)
(0.00639001 0 0.700285)
(0.00994172 0 0.65614)
(0.00972561 0 0.803889)
(0.015206 0 0.741781)
(0.013825 0 0.958858)
(0.0226692 0 0.862552)
(0.0129509 0 1.03702)
(0.0262091 0 1.05345)
(0.0558965 0 -0.215179)
(0.0436363 0 0.994944)
(0.0152212 0 -1.49951)
(0.111799 0 -1.42767)
(-0.0666178 0 -0.270081)
(-0.0948183 0 -1.49334)
(-0.01604 0 1.03559)
(-0.0534434 0 0.982937)
(-0.0132738 0 0.977215)
(-0.0234666 0 1.0613)
(-0.00893341 0 0.838756)
(-0.0220532 0 0.888148)
(-0.00624946 0 0.767501)
(-0.0147933 0 0.793848)
(-0.00521096 0 0.725101)
(-0.0113174 0 0.739153)
(-0.00778099 0 0.688372)
(-0.0119668 0 0.711978)
(-0.0120234 0 0.502391)
(-0.0180622 0 0.668557)
(-0.000439037 0 0.0279367)
(-0.00641778 0 0.333685)
(-0.00271002 0 0.0263948)
(-0.0040294 0 -0.268981)
(0.00395345 0 0.440116)
(-0.00378016 0 0.308175)
(0.000112669 0 0.550151)
(0.00338981 0 0.563793)
(-0.00285404 0 0.511264)
(-0.00376503 0 0.542142)
(-0.00370413 0 0.457852)
(-0.0059951 0 0.484364)
(-0.00379912 0 0.408172)
(-0.00663846 0 0.432587)
(-0.00366595 0 0.360214)
(-0.00666439 0 0.38404)
(-0.00343632 0 0.312495)
(-0.00639503 0 0.336377)
(-0.00312873 0 0.264054)
(-0.00593923 0 0.288445)
(-0.00272778 0 0.214317)
(-0.00532162 0 0.239324)
(-0.00222901 0 0.163693)
(-0.00455118 0 0.188754)
(-0.00167239 0 0.114115)
(-0.00367532 0 0.137869)
(-0.00114222 0 0.0688877)
(-0.00279864 0 0.089505)
(-0.000723789 0 0.0315671)
(-0.00204582 0 0.0475)
(-0.000453746 0 0.00443028)
(-0.00149589 0 0.0150901)
(-0.000310758 0 -0.0124126)
(-0.00114769 0 -0.00652564)
(-0.000246121 0 -0.0207268)
(-0.000943677 0 -0.0184253)
(-0.000217552 0 -0.0231125)
(-0.000820514 0 -0.0230827)
(-0.000201053 0 -0.0220081)
(-0.000736723 0 -0.0231898)
(-0.000187768 0 -0.0191823)
(-0.000672573 0 -0.0208882)
(-0.000176769 0 -0.0156772)
(-0.00062233 0 -0.017547)
(-0.000169797 0 -0.0119791)
(-0.000586073 0 -0.0138724)
(-0.000168881 0 -0.00821942)
(-0.00056422 0 -0.010132)
(-0.00017599 0 -0.00425345)
(-0.000555943 0 -0.00632509)
(-0.000563771 0 -0.00218933)
(4.34471e-05 0 -0.00544232)
(6.91572e-05 0 -0.00367371)
(7.30934e-05 0 -0.00902741)
(0.000108821 0 -0.00736189)
(0.000104951 0 -0.0126337)
(0.000142279 0 -0.0108347)
(0.000142261 0 -0.0165781)
(0.000183018 0 -0.0145885)
(0.000185749 0 -0.0209412)
(0.000233605 0 -0.0187474)
(0.000236395 0 -0.0257387)
(0.00029448 0 -0.0233423)
(0.000296005 0 -0.0309722)
(0.000367799 0 -0.0283734)
(0.00036686 0 -0.036651)
(0.000456331 0 -0.0338449)
(0.000451494 0 -0.0427926)
(0.00056349 0 -0.0397724)
(0.000552935 0 -0.0494135)
(0.000693325 0 -0.0461757)
(0.000675204 0 -0.0565209)
(0.000851154 0 -0.0530696)
(0.000824012 0 -0.0641053)
(0.00104447 0 -0.0604567)
(0.00100792 0 -0.0721312)
(0.00128428 0 -0.0683201)
(0.00124045 0 -0.0805236)
(0.00158736 0 -0.0766137)
(0.0015441 0 -0.0891482)
(0.00198029 0 -0.0852479)
(0.00195814 0 -0.0977818)
(0.00250686 0 -0.0940691)
(0.0025541 0 -0.106067)
(0.00324218 0 -0.10283)
(0.00346809 0 -0.113445)
(0.00431964 0 -0.111153)
(0.00496987 0 -0.119048)
(0.00598402 0 -0.118471)
(0.00761326 0 -0.121487)
(0.00869797 0 -0.123961)
(0.0125635 0 -0.118434)
(0.0133379 0 -0.126395)
(0.0223415 0 -0.1065)
(0.0216322 0 -0.12387)
(0.0428278 0 -0.0908079)
(0.0375781 0 -0.11504)
(0.0877228 0 -0.159962)
(0.0681981 0 -0.119113)
(0.1626 0 -0.658038)
(0.12782 0 -0.294528)
(0.136208 0 -1.51136)
(0.233547 0 -1.08413)
(-0.129858 0 -1.34789)
(-0.0135365 0 -1.79352)
(-0.0972168 0 -0.234891)
(-0.181205 0 -0.749551)
(-0.0171831 0 0.404156)
(-0.0361714 0 0.222142)
(0.0196626 0 0.618131)
(0.0123987 0 0.517687)
(0.0417676 0 0.838322)
(0.0429807 0 0.701386)
(0.0616602 0 0.968454)
(0.0674536 0 0.952883)
(0.128448 0 -0.132629)
(0.0840453 0 0.947746)
(0.109603 0 -1.44072)
(0.227417 0 -1.23293)
(-0.100324 0 -0.301044)
(-0.0803772 0 -1.5613)
(-0.0239993 0 1.15715)
(-0.0774351 0 1.00414)
(-0.00630673 0 1.27304)
(0.00215168 0 1.26537)
(0.0047783 0 1.11682)
(-0.0155504 0 1.26708)
(0.0565355 0 -0.305607)
(0.0545565 0 0.946706)
(-0.100569 0 -1.26082)
(0.0214763 0 -1.50223)
(-0.0771471 0 0.0256208)
(-0.16701 0 -0.971614)
(-0.0209546 0 1.05422)
(-0.0300344 0 0.974266)
(-0.0195437 0 1.05767)
(-0.0242628 0 1.1084)
(-0.0199618 0 0.999811)
(-0.0229556 0 1.00821)
(-0.023397 0 0.782519)
(-0.0372611 0 0.994937)
(0.0148506 0 -0.118577)
(0.0134543 0 0.562067)
(-0.0312137 0 -0.114503)
(-0.00798181 0 -0.796841)
(-6.3476e-05 0 0.732841)
(-0.0305324 0 0.566763)
(0.000470005 0 0.848806)
(0.00949118 0 0.885324)
(-0.000363696 0 0.841721)
(-0.000685318 0 0.813311)
(0.00883241 0 0.658105)
(-0.0117226 0 0.866734)
(0.054674 0 -0.347819)
(0.0641493 0 0.430657)
(-0.0657294 0 -0.344329)
(-0.00579796 0 -1.09393)
(-0.02172 0 0.611427)
(-0.080663 0 0.431669)
(-0.0129441 0 0.711882)
(-0.00138132 0 0.766571)
(-0.0086996 0 0.622771)
(-0.0191781 0 0.652044)
(-0.00397977 0 0.578746)
(-0.00753738 0 0.589787)
(0.000978587 0 0.566154)
(-0.0016471 0 0.563398)
(0.0059987 0 0.581755)
(0.0045668 0 0.564228)
(0.0115651 0 0.625886)
(0.0113636 0 0.594144)
(0.0183813 0 0.6975)
(0.0191287 0 0.651596)
(0.0272267 0 0.800505)
(0.028749 0 0.735884)
(0.037463 0 0.95637)
(0.0422507 0 0.855728)
(0.051082 0 1.01358)
(0.0543486 0 1.04437)
(0.114114 0 -0.215841)
(0.0822376 0 0.952923)
(0.020852 0 -1.42862)
(0.164139 0 -1.36549)
(-0.125925 0 -0.240734)
(-0.142335 0 -1.39549)
(-0.0505406 0 1.01312)
(-0.0934316 0 0.932681)
(-0.0361333 0 0.971418)
(-0.0455481 0 1.0517)
(-0.0256271 0 0.833829)
(-0.0407897 0 0.881144)
(-0.0192748 0 0.764286)
(-0.0285041 0 0.788666)
(-0.0170305 0 0.725089)
(-0.0224136 0 0.737232)
(-0.0207719 0 0.68919)
(-0.0223396 0 0.715337)
(-0.0218304 0 0.491159)
(-0.0300597 0 0.669554)
(-0.0023114 0 0.0253909)
(-0.00846224 0 0.314404)
(-0.0131627 0 0.0297703)
(-0.00915494 0 -0.257737)
(-0.00118946 0 0.437066)
(-0.013274 0 0.295161)
(-0.00213437 0 0.552696)
(0.00139604 0 0.56487)
(-0.0068295 0 0.513062)
(-0.00813638 0 0.547757)
(-0.00902403 0 0.457822)
(-0.0111747 0 0.487117)
(-0.00959241 0 0.407378)
(-0.012136 0 0.433335)
(-0.00944672 0 0.359144)
(-0.0122043 0 0.383838)
(-0.00893297 0 0.311256)
(-0.0117373 0 0.335633)
(-0.00815838 0 0.262629)
(-0.010922 0 0.287269)
(-0.00715975 0 0.212681)
(-0.00982739 0 0.237733)
(-0.00599179 0 0.1619)
(-0.00850094 0 0.186802)
(-0.00477034 0 0.112334)
(-0.00704379 0 0.135727)
(-0.0036524 0 0.0673479)
(-0.00562305 0 0.087449)
(-0.00276468 0 0.0304386)
(-0.00441178 0 0.0457874)
(-0.00214785 0 0.00374166)
(-0.00350488 0 0.0138418)
(-0.00175439 0 -0.0127557)
(-0.00288746 0 -0.00736104)
(-0.00150307 0 -0.020861)
(-0.00247822 0 -0.0189851)
(-0.00133195 0 -0.0231481)
(-0.002194 0 -0.0234825)
(-0.00120397 0 -0.0220066)
(-0.00198077 0 -0.0235035)
(-0.00110402 0 -0.0191661)
(-0.00181304 0 -0.0211453)
(-0.0010285 0 -0.015647)
(-0.00168263 0 -0.0177508)
(-0.000977296 0 -0.0119277)
(-0.0015881 0 -0.0140173)
(-0.000949915 0 -0.00813824)
(-0.001525 0 -0.0102134)
(-0.000944827 0 -0.00415604)
(-0.00148554 0 -0.00634102)
(-0.00148893 0 -0.0021605)
(0.000142264 0 -0.00551424)
(0.00018041 0 -0.00375772)
(0.000176225 0 -0.00910119)
(0.000217235 0 -0.00746753)
(0.000218526 0 -0.0127201)
(0.000265827 0 -0.0109601)
(0.00027239 0 -0.0166823)
(0.00032289 0 -0.0147408)
(0.000339894 0 -0.0210649)
(0.000395358 0 -0.0189293)
(0.000422852 0 -0.0258843)
(0.000486222 0 -0.0235555)
(0.000524191 0 -0.0311435)
(0.000598471 0 -0.0286217)
(0.000647866 0 -0.0368526)
(0.000736376 0 -0.0341337)
(0.000798733 0 -0.0430298)
(0.000905442 0 -0.0401082)
(0.000983041 0 -0.049693)
(0.00111249 0 -0.0465668)
(0.00120939 0 -0.0568526)
(0.00136661 0 -0.0535276)
(0.00149017 0 -0.0645036)
(0.00168059 0 -0.0609983)
(0.00184387 0 -0.0726187)
(0.00207292 0 -0.0689705)
(0.00229916 0 -0.0811362)
(0.00257105 0 -0.0774118)
(0.00290206 0 -0.0899454)
(0.00321707 0 -0.0862555)
(0.00372906 0 -0.098865)
(0.00407769 0 -0.0953866)
(0.00491127 0 -0.107616)
(0.00526208 0 -0.104626)
(0.00668029 0 -0.115786)
(0.00695325 0 -0.113714)
(0.00945592 0 -0.122796)
(0.00946541 0 -0.122302)
(0.0140143 0 -0.127834)
(0.013353 0 -0.129959)
(0.0218081 0 -0.129759)
(0.0195865 0 -0.136173)
(0.0356128 0 -0.127942)
(0.0299 0 -0.14038)
(0.0612621 0 -0.133623)
(0.0484258 0 -0.144283)
(0.111333 0 -0.233074)
(0.0827341 0 -0.173534)
(0.184922 0 -0.686839)
(0.141302 0 -0.370778)
(0.137678 0 -1.36279)
(0.230655 0 -1.03747)
(-0.113474 0 -1.22896)
(-0.000867238 0 -1.55702)
(-0.103416 0 -0.295116)
(-0.173403 0 -0.758579)
(-0.0124379 0 0.343672)
(-0.0325829 0 0.144282)
(0.0338505 0 0.589709)
(0.0243832 0 0.479922)
(0.0669827 0 0.819438)
(0.0625904 0 0.679298)
(0.0999517 0 0.936918)
(0.0981511 0 0.930904)
(0.164658 0 -0.142378)
(0.119869 0 0.904608)
(0.0935069 0 -1.35005)
(0.230814 0 -1.18549)
(-0.116899 0 -0.254863)
(-0.106992 0 -1.42103)
(-0.0328047 0 1.11815)
(-0.0895677 0 0.94808)
(-0.00653256 0 1.26069)
(0.00157619 0 1.24785)
(0.0163404 0 1.09546)
(-0.0107842 0 1.25183)
(0.0691384 0 -0.259386)
(0.0686154 0 0.911508)
(-0.0962994 0 -1.20948)
(0.0441059 0 -1.39193)
(-0.0993414 0 -0.00802107)
(-0.174323 0 -0.969586)
(-0.0365817 0 1.03127)
(-0.0468539 0 0.932426)
(-0.0316065 0 1.05743)
(-0.037423 0 1.10508)
(-0.0290799 0 1.00052)
(-0.0305571 0 1.00652)
(-0.0233332 0 0.77103)
(-0.0471339 0 0.991106)
(0.0175097 0 -0.113451)
(0.0212772 0 0.534838)
(-0.0428236 0 -0.110451)
(-0.0101371 0 -0.756619)
(-0.00819839 0 0.719132)
(-0.0477452 0 0.54368)
(-0.00114092 0 0.848567)
(0.00587163 0 0.880619)
(-0.000616035 0 0.837747)
(-0.00167515 0 0.812961)
(0.018265 0 0.639229)
(-0.0135995 0 0.854147)
(0.0623069 0 -0.315157)
(0.0796866 0 0.401296)
(-0.0794048 0 -0.315202)
(-0.00569986 0 -0.999454)
(-0.0352782 0 0.589563)
(-0.10381 0 0.402252)
(-0.0201292 0 0.70669)
(-0.00540544 0 0.756472)
(-0.0133599 0 0.619201)
(-0.0264069 0 0.647531)
(-0.00597691 0 0.574666)
(-0.00973651 0 0.584865)
(0.00187489 0 0.561871)
(-0.0020605 0 0.558163)
(0.00982377 0 0.577135)
(0.00683781 0 0.558929)
(0.0186378 0 0.620455)
(0.0164634 0 0.588268)
(0.0292899 0 0.690662)
(0.0273935 0 0.644494)
(0.0428729 0 0.791946)
(0.0405246 0 0.726828)
(0.0594526 0 0.944882)
(0.0582708 0 0.844674)
(0.084891 0 0.986365)
(0.0787647 0 1.02741)
(0.144722 0 -0.19505)
(0.112681 0 0.913035)
(0.0178733 0 -1.33152)
(0.182087 0 -1.28093)
(-0.150833 0 -0.215086)
(-0.159009 0 -1.28302)
(-0.0762659 0 0.977519)
(-0.120308 0 0.882969)
(-0.0552808 0 0.961977)
(-0.0637587 0 1.03771)
(-0.0404166 0 0.826763)
(-0.0556013 0 0.871235)
(-0.0312382 0 0.760027)
(-0.0401023 0 0.781177)
(-0.0273009 0 0.725638)
(-0.0319931 0 0.733863)
(-0.0292513 0 0.691618)
(-0.0302127 0 0.717088)
(-0.0266792 0 0.482256)
(-0.0385391 0 0.667132)
(-0.0065864 0 0.0214631)
(-0.0105664 0 0.294557)
(-0.020387 0 0.025725)
(-0.0133638 0 -0.243438)
(-0.00665129 0 0.429426)
(-0.0227178 0 0.280232)
(-0.00717088 0 0.557327)
(-0.00415077 0 0.565463)
(-0.0119698 0 0.518388)
(-0.0139408 0 0.553496)
(-0.0142879 0 0.460146)
(-0.0168679 0 0.490025)
(-0.0148394 0 0.407932)
(-0.0176181 0 0.434061)
(-0.0145415 0 0.358792)
(-0.0174697 0 0.383427)
(-0.013753 0 0.310295)
(-0.0166835 0 0.334491)
(-0.0126033 0 0.261141)
(-0.015488 0 0.285522)
(-0.0111622 0 0.210719)
(-0.0139618 0 0.235437)
(-0.0095248 0 0.159601)
(-0.0121692 0 0.184065)
(-0.0078494 0 0.109955)
(-0.0102451 0 0.13279)
(-0.00632722 0 0.0651876)
(-0.00839474 0 0.0846495)
(-0.00510097 0 0.0287012)
(-0.00681737 0 0.0434216)
(-0.00420437 0 0.00246192)
(-0.00561408 0 0.0120272)
(-0.00358305 0 -0.013674)
(-0.00476265 0 -0.00868019)
(-0.00315048 0 -0.0215496)
(-0.00417156 0 -0.0199486)
(-0.00283029 0 -0.0237038)
(-0.00374587 0 -0.0242307)
(-0.00258096 0 -0.022475)
(-0.00342114 0 -0.0241147)
(-0.00238489 0 -0.0195576)
(-0.00316599 0 -0.0216495)
(-0.00223614 0 -0.0159578)
(-0.00296874 0 -0.018152)
(-0.00213156 0 -0.0121542)
(-0.00282578 0 -0.0143132)
(-0.00206634 0 -0.00828178)
(-0.00272834 0 -0.010407)
(-0.00203351 0 -0.00422373)
(-0.00266183 0 -0.00644326)
(-0.00266045 0 -0.00219089)
(0.000263576 0 -0.00561894)
(0.000316761 0 -0.00384661)
(0.000308652 0 -0.00923834)
(0.000353991 0 -0.00760776)
(0.000367208 0 -0.0128854)
(0.000421401 0 -0.0111338)
(0.000442507 0 -0.0168822)
(0.00049762 0 -0.0149537)
(0.000538201 0 -0.0213034)
(0.000594549 0 -0.0191872)
(0.000657647 0 -0.0261652)
(0.000717782 0 -0.0238624)
(0.000805353 0 -0.0314725)
(0.000871371 0 -0.0289834)
(0.000987239 0 -0.0372372)
(0.00106118 0 -0.0345584)
(0.00121072 0 -0.0434793)
(0.00129481 0 -0.0406057)
(0.00148543 0 -0.0502201)
(0.00158175 0 -0.0471498)
(0.00182443 0 -0.057475)
(0.00193454 0 -0.0542134)
(0.0022462 0 -0.0652477)
(0.00237041 0 -0.0618118)
(0.00277757 0 -0.073524)
(0.00291355 0 -0.0699476)
(0.00345878 0 -0.0822641)
(0.00359873 0 -0.078606)
(0.00435174 0 -0.0913932)
(0.00447741 0 -0.0877478)
(0.00555431 0 -0.100791)
(0.00562832 0 -0.0973026)
(0.00722489 0 -0.110283)
(0.00717508 0 -0.107163)
(0.0096256 0 -0.119643)
(0.0093147 0 -0.11719)
(0.0131992 0 -0.128621)
(0.0123679 0 -0.127235)
(0.0187072 0 -0.137003)
(0.0168773 0 -0.137207)
(0.0274981 0 -0.144783)
(0.0237639 0 -0.147201)
(0.0421369 0 -0.153731)
(0.0345777 0 -0.157886)
(0.0680288 0 -0.179637)
(0.0529499 0 -0.173802)
(0.115202 0 -0.302309)
(0.0862456 0 -0.224806)
(0.176015 0 -0.704946)
(0.13913 0 -0.433788)
(0.122743 0 -1.22939)
(0.199568 0 -0.984845)
(-0.0854217 0 -1.11691)
(0.00979575 0 -1.36099)
(-0.0905506 0 -0.340611)
(-0.141387 0 -0.753975)
(-0.000402542 0 0.277712)
(-0.0253918 0 0.0671318)
(0.0510177 0 0.553645)
(0.0387098 0 0.43797)
(0.0897364 0 0.793549)
(0.0809864 0 0.653485)
(0.127657 0 0.902607)
(0.12178 0 0.905624)
(0.178694 0 -0.133548)
(0.147952 0 0.870583)
(0.061407 0 -1.25332)
(0.211546 0 -1.1073)
(-0.12178 0 -0.216966)
(-0.124535 0 -1.2989)
(-0.0378863 0 1.0789)
(-0.0905456 0 0.892151)
(-0.00406307 0 1.24058)
(0.00150644 0 1.22531)
(0.0273788 0 1.06902)
(-0.00417273 0 1.23087)
(0.0813279 0 -0.220953)
(0.0758403 0 0.875542)
(-0.0702053 0 -1.15118)
(0.0699092 0 -1.29091)
(-0.104635 0 -0.0263707)
(-0.157982 0 -0.946632)
(-0.05016 0 1.00801)
(-0.062638 0 0.896109)
(-0.0420106 0 1.05435)
(-0.0502368 0 1.09965)
(-0.0361934 0 0.996901)
(-0.0368331 0 1.00264)
(-0.0229178 0 0.754922)
(-0.0551193 0 0.982255)
(0.0196386 0 -0.106505)
(0.0275433 0 0.506468)
(-0.0502191 0 -0.101273)
(-0.0113791 0 -0.710047)
(-0.0170615 0 0.704981)
(-0.0637613 0 0.521575)
(-0.00545405 0 0.845335)
(-0.00176737 0 0.872881)
(-0.00298267 0 0.829813)
(-0.00431189 0 0.811313)
(0.0224314 0 0.617217)
(-0.0177939 0 0.837204)
(0.0634711 0 -0.281074)
(0.0841628 0 0.373936)
(-0.0826991 0 -0.280743)
(-0.00485645 0 -0.902007)
(-0.0459683 0 0.569488)
(-0.115017 0 0.377764)
(-0.0262164 0 0.697991)
(-0.01011 0 0.743304)
(-0.0169922 0 0.613546)
(-0.0319281 0 0.641381)
(-0.00731947 0 0.568665)
(-0.0109541 0 0.578417)
(0.00298469 0 0.555594)
(-0.00223751 0 0.551294)
(0.0134285 0 0.570462)
(0.00908584 0 0.551966)
(0.024986 0 0.612767)
(0.0210266 0 0.580563)
(0.038683 0 0.681222)
(0.0345025 0 0.635363)
(0.0557442 0 0.780183)
(0.0503256 0 0.715454)
(0.0766946 0 0.928167)
(0.0704538 0 0.830708)
(0.107608 0 0.956588)
(0.0952209 0 1.0068)
(0.160571 0 -0.168188)
(0.132775 0 0.877727)
(0.0154791 0 -1.22791)
(0.183887 0 -1.1842)
(-0.158107 0 -0.182452)
(-0.159108 0 -1.1673)
(-0.0954452 0 0.944718)
(-0.136346 0 0.841195)
(-0.0697927 0 0.948118)
(-0.0777126 0 1.02061)
(-0.052013 0 0.817095)
(-0.0665217 0 0.859381)
(-0.0407717 0 0.753979)
(-0.0491171 0 0.772006)
(-0.0353823 0 0.724717)
(-0.0397097 0 0.72925)
(-0.0359482 0 0.6912)
(-0.0361193 0 0.717596)
(-0.0305643 0 0.470604)
(-0.0445967 0 0.662062)
(-0.0101313 0 0.0175902)
(-0.0118527 0 0.274374)
(-0.0252323 0 0.0242413)
(-0.0165695 0 -0.227791)
(-0.0144198 0 0.423017)
(-0.0317231 0 0.26848)
(-0.0142133 0 0.561053)
(-0.0122545 0 0.565227)
(-0.0182833 0 0.523197)
(-0.0210859 0 0.558363)
(-0.0201784 0 0.462212)
(-0.023092 0 0.492403)
(-0.020314 0 0.40809)
(-0.0232896 0 0.434239)
(-0.0196066 0 0.357843)
(-0.0226971 0 0.382451)
(-0.0184088 0 0.308546)
(-0.0214463 0 0.332756)
(-0.016832 0 0.258699)
(-0.0198013 0 0.283127)
(-0.0149418 0 0.207686)
(-0.0178219 0 0.232425)
(-0.0128483 0 0.156188)
(-0.0155723 0 0.180566)
(-0.0107377 0 0.106501)
(-0.0132096 0 0.129089)
(-0.00882909 0 0.0620559)
(-0.0109663 0 0.0811393)
(-0.00728146 0 0.026134)
(-0.00905973 0 0.0404359)
(-0.00613312 0 0.000503268)
(-0.00759467 0 0.00970316)
(-0.00532209 0 -0.0151311)
(-0.00654355 0 -0.0104021)
(-0.00474727 0 -0.0226571)
(-0.00580421 0 -0.0212289)
(-0.00432251 0 -0.0245808)
(-0.00526948 0 -0.0252232)
(-0.00399565 0 -0.0231868)
(-0.00486484 0 -0.0249159)
(-0.00374195 0 -0.0201292)
(-0.00455109 0 -0.0223018)
(-0.00355138 0 -0.0163947)
(-0.00431138 0 -0.018666)
(-0.00341834 0 -0.0124603)
(-0.0041392 0 -0.0146897)
(-0.00333573 0 -0.00846807)
(-0.00402339 0 -0.0106523)
(-0.00329372 0 -0.00430763)
(-0.00394569 0 -0.00657407)
(-0.00394235 0 -0.00222893)
(0.000418631 0 -0.00574472)
(0.000472884 0 -0.0039438)
(0.000473201 0 -0.0094174)
(0.000510041 0 -0.00777753)
(0.000547934 0 -0.0131086)
(0.000593323 0 -0.0113554)
(0.000645476 0 -0.0171546)
(0.000687506 0 -0.0152295)
(0.000770078 0 -0.0216308)
(0.000807961 0 -0.0195231)
(0.000926504 0 -0.0265537)
(0.000962294 0 -0.0242643)
(0.00112085 0 -0.0319304)
(0.00115561 0 -0.0294595)
(0.00136084 0 -0.037775)
(0.00139518 0 -0.0351188)
(0.00165614 0 -0.0441102)
(0.00169038 0 -0.0412631)
(0.00201909 0 -0.0509615)
(0.00205285 0 -0.0479201)
(0.00246613 0 -0.0583511)
(0.00249772 0 -0.0551179)
(0.00301985 0 -0.0662928)
(0.00304529 0 -0.0628798)
(0.00371208 0 -0.0747881)
(0.0037232 0 -0.0712205)
(0.00458888 0 -0.0838213)
(0.00456992 0 -0.0801431)
(0.00571853 0 -0.0933557)
(0.00564098 0 -0.0896357)
(0.00720454 0 -0.103332)
(0.0070192 0 -0.0996701)
(0.00920742 0 -0.113674)
(0.00883069 0 -0.110205)
(0.0119821 0 -0.124316)
(0.0112687 0 -0.121208)
(0.0159442 0 -0.135279)
(0.014637 0 -0.132704)
(0.0217894 0 -0.146807)
(0.0194393 0 -0.144899)
(0.030731 0 -0.159759)
(0.0265223 0 -0.158418)
(0.0450748 0 -0.177716)
(0.0372718 0 -0.175041)
(0.0695315 0 -0.219009)
(0.0547001 0 -0.201686)
(0.110892 0 -0.354288)
(0.0849827 0 -0.269761)
(0.155769 0 -0.705846)
(0.130077 0 -0.480288)
(0.103067 0 -1.11575)
(0.164334 0 -0.932787)
(-0.0563278 0 -1.02094)
(0.0175673 0 -1.21089)
(-0.0713241 0 -0.370346)
(-0.105776 0 -0.740513)
(0.0110702 0 0.217048)
(-0.0178107 0 -0.00338214)
(0.0668259 0 0.515984)
(0.0519357 0 0.39248)
(0.108799 0 0.765981)
(0.0970063 0 0.625503)
(0.148409 0 0.873768)
(0.140155 0 0.879218)
(0.18355 0 -0.103259)
(0.169957 0 0.847156)
(0.034235 0 -1.15343)
(0.194218 0 -1.00776)
(-0.117927 0 -0.189893)
(-0.129199 0 -1.19746)
(-0.037488 0 1.03919)
(-0.0834385 0 0.838524)
(-0.000158249 0 1.21642)
(0.00434187 0 1.20042)
(0.0344873 0 1.03872)
(0.00202873 0 1.20777)
(0.0907303 0 -0.193325)
(0.0783568 0 0.838046)
(-0.0398368 0 -1.08749)
(0.0913909 0 -1.20387)
(-0.105039 0 -0.0255197)
(-0.138481 0 -0.903164)
(-0.0634965 0 0.987928)
(-0.0777895 0 0.868414)
(-0.0514706 0 1.04839)
(-0.0627841 0 1.09163)
(-0.0429769 0 0.988796)
(-0.0429811 0 0.99698)
(-0.023093 0 0.734684)
(-0.0622148 0 0.968999)
(0.0203591 0 -0.0965882)
(0.0321779 0 0.477499)
(-0.0572019 0 -0.0869702)
(-0.0141025 0 -0.65834)
(-0.0286325 0 0.690093)
(-0.0781152 0 0.502528)
(-0.0133375 0 0.839222)
(-0.010679 0 0.862684)
(-0.00751605 0 0.81899)
(-0.00862414 0 0.807432)
(0.0210606 0 0.594331)
(-0.0238612 0 0.818153)
(0.0588339 0 -0.24715)
(0.0804632 0 0.348754)
(-0.0806814 0 -0.243961)
(-0.00555336 0 -0.808997)
(-0.0526653 0 0.55154)
(-0.117296 0 0.359087)
(-0.0303953 0 0.687123)
(-0.0139842 0 0.728457)
(-0.0194874 0 0.606431)
(-0.035561 0 0.63411)
(-0.00799331 0 0.561227)
(-0.0113407 0 0.570754)
(0.00421479 0 0.547856)
(-0.00219221 0 0.543155)
(0.0166561 0 0.562256)
(0.0112316 0 0.543672)
(0.0303722 0 0.603406)
(0.0248898 0 0.571419)
(0.0462662 0 0.669952)
(0.0402329 0 0.624767)
(0.0654672 0 0.76641)
(0.057947 0 0.702654)
(0.0882832 0 0.909647)
(0.0791755 0 0.815497)
(0.120157 0 0.928633)
(0.104373 0 0.985554)
(0.164988 0 -0.136312)
(0.143378 0 0.84784)
(0.0134458 0 -1.12226)
(0.177333 0 -1.08317)
(-0.15621 0 -0.144038)
(-0.152439 0 -1.05419)
(-0.108007 0 0.916906)
(-0.143604 0 0.80906)
(-0.0798357 0 0.932262)
(-0.0869558 0 1.00183)
(-0.0604616 0 0.805886)
(-0.0740043 0 0.846465)
(-0.0479387 0 0.746563)
(-0.0556078 0 0.761789)
(-0.0415905 0 0.722232)
(-0.0455835 0 0.723817)
(-0.0409106 0 0.687743)
(-0.0402521 0 0.716985)
(-0.0323841 0 0.456933)
(-0.0478842 0 0.654033)
(-0.0125119 0 0.016408)
(-0.0116723 0 0.254744)
(-0.0307707 0 0.0276475)
(-0.0202959 0 -0.208872)
(-0.0238563 0 0.417865)
(-0.0410576 0 0.260965)
(-0.0224626 0 0.562718)
(-0.0216501 0 0.563638)
(-0.025122 0 0.526256)
(-0.0287566 0 0.561544)
(-0.0262194 0 0.463164)
(-0.0293331 0 0.493779)
(-0.0257438 0 0.407401)
(-0.0288153 0 0.433613)
(-0.0244999 0 0.356175)
(-0.027645 0 0.380733)
(-0.0228077 0 0.306132)
(-0.0258542 0 0.330306)
(-0.0207568 0 0.25561)
(-0.0237294 0 0.280012)
(-0.0184065 0 0.204024)
(-0.021297 0 0.22868)
(-0.0158776 0 0.152185)
(-0.0186203 0 0.176339)
(-0.0133764 0 0.102524)
(-0.0158738 0 0.124704)
(-0.011137 0 0.0584869)
(-0.0133057 0 0.077021)
(-0.00932234 0 0.0232153)
(-0.0111366 0 0.0369351)
(-0.00796654 0 -0.00172992)
(-0.00946433 0 0.0069594)
(-0.00699796 0 -0.0167972)
(-0.00825201 0 -0.0124583)
(-0.00630629 0 -0.0239208)
(-0.00738901 0 -0.0227693)
(-0.00579673 0 -0.0255742)
(-0.00676112 0 -0.0264137)
(-0.005409 0 -0.023986)
(-0.00628781 0 -0.0258661)
(-0.00511211 0 -0.0207652)
(-0.00592418 0 -0.0230651)
(-0.00489178 0 -0.0168761)
(-0.00564889 0 -0.0192603)
(-0.00473952 0 -0.0127928)
(-0.0054523 0 -0.0151205)
(-0.0046459 0 -0.00866619)
(-0.00532147 0 -0.0109301)
(-0.00459878 0 -0.00439434)
(-0.00523623 0 -0.00672081)
(-0.0052268 0 -0.00227049)
(0.000578877 0 -0.00588439)
(0.000607725 0 -0.00404692)
(0.000640331 0 -0.00962878)
(0.000645205 0 -0.00796871)
(0.000728304 0 -0.0133818)
(0.000740982 0 -0.0116163)
(0.000845231 0 -0.0174926)
(0.00085033 0 -0.01556)
(0.000995745 0 -0.0220397)
(0.000991335 0 -0.0199287)
(0.00118578 0 -0.0270414)
(0.00117325 0 -0.0247526)
(0.00142279 0 -0.032507)
(0.00140208 0 -0.03004)
(0.00171597 0 -0.0384531)
(0.00168631 0 -0.0358034)
(0.00207662 0 -0.0449052)
(0.0020367 0 -0.042066)
(0.00251902 0 -0.0518936)
(0.00246649 0 -0.048859)
(0.0030618 0 -0.0594473)
(0.00299267 0 -0.0562162)
(0.00372999 0 -0.0675904)
(0.00363745 0 -0.0641687)
(0.00455802 0 -0.0763396)
(0.00443029 0 -0.0727432)
(0.00559438 0 -0.0857018)
(0.00541135 0 -0.0819599)
(0.00690903 0 -0.0956748)
(0.00663772 0 -0.0918328)
(0.00860528 0 -0.106251)
(0.00819338 0 -0.102373)
(0.0108396 0 -0.117437)
(0.0102028 0 -0.113599)
(0.0138552 0 -0.129297)
(0.0128504 0 -0.125574)
(0.0180395 0 -0.142061)
(0.0164198 0 -0.13848)
(0.0240265 0 -0.156334)
(0.0213763 0 -0.152778)
(0.0329034 0 -0.173674)
(0.0284872 0 -0.169554)
(0.0466717 0 -0.199102)
(0.038965 0 -0.191507)
(0.0690687 0 -0.252055)
(0.0552681 0 -0.22722)
(0.103823 0 -0.392638)
(0.0819955 0 -0.307534)
(0.134543 0 -0.699)
(0.11862 0 -0.512118)
(0.0866255 0 -1.02513)
(0.134511 0 -0.885455)
(-0.0337292 0 -0.945092)
(0.0225776 0 -1.09756)
(-0.0522363 0 -0.393003)
(-0.0756688 0 -0.723898)
(0.0214771 0 0.161028)
(-0.0104132 0 -0.0664671)
(0.0798668 0 0.477592)
(0.0626867 0 0.344842)
(0.124692 0 0.738152)
(0.11005 0 0.595619)
(0.165978 0 0.851422)
(0.155871 0 0.851694)
(0.188433 0 -0.058808)
(0.188344 0 0.832186)
(0.0252092 0 -1.05386)
(0.188177 0 -0.898941)
(-0.106343 0 -0.170077)
(-0.119837 0 -1.10976)
(-0.0308215 0 1.0003)
(-0.0706573 0 0.788177)
(0.00483423 0 1.19202)
(0.0106276 0 1.17665)
(0.0387668 0 1.00762)
(0.00793715 0 1.18515)
(0.0957961 0 -0.172764)
(0.0787607 0 0.800027)
(-0.0180855 0 -1.0208)
(0.103346 0 -1.12795)
(-0.106282 0 -0.0102361)
(-0.126127 0 -0.844366)
(-0.0770911 0 0.97162)
(-0.0924758 0 0.848953)
(-0.0607941 0 1.04026)
(-0.07531 0 1.08077)
(-0.0496081 0 0.977554)
(-0.0493767 0 0.989523)
(-0.0239511 0 0.712264)
(-0.0681955 0 0.951895)
(0.0187689 0 -0.0841336)
(0.0346188 0 0.449019)
(-0.0641884 0 -0.0687592)
(-0.0185742 0 -0.603035)
(-0.0400679 0 0.675346)
(-0.0899223 0 0.486448)
(-0.020764 0 0.830888)
(-0.0193155 0 0.849815)
(-0.0123303 0 0.806727)
(-0.0139452 0 0.801809)
(0.0165414 0 0.57251)
(-0.0295691 0 0.798905)
(0.0504733 0 -0.214516)
(0.0722473 0 0.326132)
(-0.0769705 0 -0.207329)
(-0.00791067 0 -0.724035)
(-0.0555169 0 0.535856)
(-0.114439 0 0.344785)
(-0.0326837 0 0.675518)
(-0.0167275 0 0.713235)
(-0.0208471 0 0.598465)
(-0.0374204 0 0.626219)
(-0.00807415 0 0.552782)
(-0.0110709 0 0.562239)
(0.00547667 0 0.53907)
(-0.00193861 0 0.534121)
(0.0193905 0 0.552929)
(0.0132042 0 0.534396)
(0.0346689 0 0.5929)
(0.0279851 0 0.561233)
(0.0519841 0 0.657625)
(0.0445526 0 0.613224)
(0.0723504 0 0.751915)
(0.0634707 0 0.689076)
(0.0952854 0 0.891386)
(0.0849515 0 0.800207)
(0.125845 0 0.904474)
(0.109011 0 0.965182)
(0.16234 0 -0.0997692)
(0.147303 0 0.82351)
(0.0113645 0 -1.01673)
(0.167221 0 -0.98252)
(-0.150213 0 -0.102427)
(-0.14359 0 -0.946476)
(-0.11407 0 0.893669)
(-0.144382 0 0.784964)
(-0.0859042 0 0.91606)
(-0.0920296 0 0.983048)
(-0.0661506 0 0.79403)
(-0.0785088 0 0.833296)
(-0.0529441 0 0.738349)
(-0.0597831 0 0.751014)
(-0.0458385 0 0.718632)
(-0.049624 0 0.717736)
(-0.0436087 0 0.68204)
(-0.0426137 0 0.714984)
(-0.032193 0 0.442514)
(-0.0483747 0 0.643283)
(-0.0145986 0 0.0182784)
(-0.0106447 0 0.237365)
(-0.0371281 0 0.0354942)
(-0.0248635 0 -0.185528)
(-0.0339099 0 0.413988)
(-0.0502563 0 0.257467)
(-0.0310801 0 0.562504)
(-0.0312806 0 0.560412)
(-0.0319627 0 0.527561)
(-0.0362451 0 0.562599)
(-0.0319831 0 0.462896)
(-0.0351755 0 0.493805)
(-0.0307672 0 0.405758)
(-0.0338817 0 0.432013)
(-0.0289343 0 0.3537)
(-0.0320636 0 0.378203)
(-0.0267326 0 0.302997)
(-0.0297193 0 0.327118)
(-0.0242202 0 0.25185)
(-0.0271321 0 0.276196)
(-0.0214491 0 0.19973)
(-0.0242842 0 0.224265)
(-0.0185482 0 0.147605)
(-0.0212396 0 0.171491)
(-0.0157343 0 0.0980423)
(-0.018185 0 0.119771)
(-0.013243 0 0.0544925)
(-0.0153715 0 0.0724393)
(-0.0112281 0 0.0199455)
(-0.0130103 0 0.0330481)
(-0.00971231 0 -0.00424925)
(-0.0111847 0 0.00389199)
(-0.00861581 0 -0.0186922)
(-0.00984699 0 -0.014786)
(-0.00782358 0 -0.0253634)
(-0.00888152 0 -0.0245335)
(-0.00723686 0 -0.0267049)
(-0.00817207 0 -0.0277843)
(-0.00679133 0 -0.0248887)
(-0.00763588 0 -0.026958)
(-0.00645217 0 -0.0214777)
(-0.00722502 0 -0.023937)
(-0.00620184 0 -0.0174122)
(-0.00691511 0 -0.0199353)
(-0.00602912 0 -0.0131624)
(-0.00669381 0 -0.0156091)
(-0.00592237 0 -0.00888724)
(-0.00654702 0 -0.0112469)
(-0.00586789 0 -0.00449208)
(-0.0064537 0 -0.00689038)
(-0.00643478 0 -0.00231963)
(0.000691258 0 -0.0060368)