/*--------------------------------*- C++ -*----------------------------------*\
  =========                 |
  \\      /  F ield         | OpenFOAM: The Open Source CFD Toolbox
   \\    /   O peration     | Website:  https://openfoam.org
    \\  /    A nd           | Version:  9
     \\/     M anipulation  |
\*---------------------------------------------------------------------------*/
FoamFile
{
    format      ascii;
    class       volScalarField;
    location    "0.2";
    object      alpha.water;
}
// * * * * * * * * * * * * * * * * * * * * * * * * * * * * * * * * * * * * * //

dimensions      [0 0 0 0 0 0 0];

internalField   nonuniform List<scalar> 
20000
(
1.68486e-319
1.61263e-319
1.54316e-319
1.47647e-319
1.41243e-319
1.35117e-319
1.29238e-319
1.23605e-319
1.1821e-319
1.13042e-319
1.08092e-319
1.03359e-319
9.8823e-320
9.4495e-320
9.03547e-320
8.64022e-320
8.26078e-320
7.89715e-320
7.54735e-320
7.20941e-320
6.8853e-320
6.57305e-320
6.27463e-320
5.99203e-320
5.72227e-320
5.46634e-320
5.22326e-320
4.99105e-320
4.7707e-320
4.55924e-320
3.75095e-320
3.75688e-320
3.7628e-320
3.76676e-320
3.76873e-320
3.76873e-320
3.76478e-320
3.75885e-320
3.75095e-320
3.74107e-320
3.72921e-320
3.71537e-320
3.6966e-320
3.66992e-320
3.62842e-320
3.64028e-320
8.58291e-320
8.04635e-320
3.64225e-320
3.65411e-320
3.69265e-320
3.71933e-320
3.74304e-320
3.76676e-320
3.79047e-320
3.80925e-320
3.80826e-320
3.78652e-320
3.75589e-320
3.72525e-320
3.69363e-320
3.65905e-320
3.61656e-320
3.55826e-320
3.49798e-320
8.492e-320
8.51769e-320
3.52763e-320
3.5632e-320
3.61656e-320
4.44659e-320
4.68868e-320
4.93769e-320
5.19559e-320
5.46041e-320
5.73511e-320
6.0197e-320
6.31416e-320
6.61752e-320
6.93273e-320
7.25881e-320
7.59774e-320
7.9505e-320
8.31908e-320
8.70346e-320
9.10267e-320
9.52064e-320
9.95641e-320
1.0411e-319
1.08853e-319
1.13793e-319
1.18931e-319
1.24307e-319
1.299e-319
1.3573e-319
1.41797e-319
1.48111e-319
1.54682e-319
1.6151e-319
1.68615e-319
1.68476e-319
1.61243e-319
1.54307e-319
1.47647e-319
1.41243e-319
1.35107e-319
1.29228e-319
1.23595e-319
1.182e-319
1.13042e-319
1.08092e-319
1.03359e-319
9.8823e-320
9.4495e-320
9.03547e-320
8.64022e-320
8.26078e-320
7.89715e-320
7.54735e-320
7.20941e-320
6.8853e-320
6.57305e-320
6.27463e-320
5.99203e-320
5.72326e-320
5.46634e-320
5.22326e-320
4.99105e-320
4.7707e-320
4.55924e-320
3.75095e-320
3.75688e-320
3.7628e-320
3.76676e-320
3.76873e-320
3.76873e-320
3.76478e-320
3.75885e-320
3.75095e-320
3.74107e-320
3.72921e-320
3.71439e-320
3.69561e-320
3.66794e-320
3.62644e-320
3.6462e-320
8.50781e-320
8.05129e-320
3.65609e-320
3.66004e-320
3.69561e-320
3.7213e-320
3.74304e-320
3.76676e-320
3.79047e-320
3.80826e-320
3.80727e-320
3.78652e-320
3.75589e-320
3.72525e-320
3.69363e-320
3.65806e-320
3.61458e-320
3.5553e-320
3.497e-320
8.38923e-320
8.48607e-320
3.55036e-320
3.57506e-320
3.62348e-320
4.45252e-320
4.69362e-320
4.94066e-320
5.19757e-320
5.46239e-320
5.73709e-320
6.02068e-320
6.31416e-320
6.6185e-320
6.93273e-320
7.25881e-320
7.59873e-320
7.9505e-320
8.31908e-320
8.70346e-320
9.10267e-320
9.52064e-320
9.95641e-320
1.0411e-319
1.08843e-319
1.13783e-319
1.18931e-319
1.24307e-319
1.299e-319
1.3573e-319
1.41797e-319
1.48101e-319
1.54672e-319
1.615e-319
1.68605e-319
1.68467e-319
1.61243e-319
1.54307e-319
1.47637e-319
1.41243e-319
1.35107e-319
1.29228e-319
1.23595e-319
1.182e-319
1.13042e-319
1.08082e-319
1.03359e-319
9.8823e-320
9.4495e-320
9.03547e-320
8.64022e-320
8.26078e-320
7.89715e-320
7.54735e-320
7.20941e-320
6.8853e-320
6.57305e-320
6.27562e-320
5.99203e-320
5.72326e-320
5.46634e-320
5.22326e-320
4.99105e-320
4.7707e-320
4.56023e-320
3.75095e-320
3.75688e-320
3.7628e-320
3.76676e-320
3.76873e-320
3.76873e-320
3.76478e-320
3.75885e-320
3.75095e-320
3.74107e-320
3.72921e-320
3.71537e-320
3.6966e-320
3.66992e-320
3.62941e-320
3.65806e-320
8.41493e-320
8.04141e-320
3.66992e-320
3.66794e-320
3.69956e-320
3.72328e-320
3.74502e-320
3.76774e-320
3.79047e-320
3.80826e-320
3.80727e-320
3.78652e-320
3.75688e-320
3.72525e-320
3.69363e-320
3.65806e-320
3.61458e-320
3.55727e-320
3.50589e-320
8.27461e-320
8.40603e-320
3.56913e-320
3.58494e-320
3.63039e-320
4.45845e-320
4.69758e-320
4.94461e-320
5.19955e-320
5.46437e-320
5.73907e-320
6.02167e-320
6.31515e-320
6.6185e-320
6.93273e-320
7.25881e-320
7.59873e-320
7.9505e-320
8.31908e-320
8.70346e-320
9.10267e-320
9.52064e-320
9.95641e-320
1.0411e-319
1.08833e-319
1.13773e-319
1.18931e-319
1.24297e-319
1.2989e-319
1.3571e-319
1.41777e-319
1.48101e-319
1.54662e-319
1.615e-319
1.68595e-319
1.68457e-319
1.61243e-319
1.54307e-319
1.47637e-319
1.41243e-319
1.35097e-319
1.29228e-319
1.23595e-319
1.182e-319
1.13032e-319
1.08082e-319
1.03359e-319
9.8823e-320
9.4495e-320
9.03547e-320
8.64022e-320
8.26078e-320
7.89715e-320
7.54735e-320
7.20941e-320
6.8853e-320
6.57305e-320
6.27562e-320
5.99203e-320
5.72326e-320
5.46634e-320
5.22326e-320
4.99204e-320
4.7707e-320
4.56023e-320
3.75095e-320
3.75688e-320
3.7628e-320
3.76676e-320
3.76873e-320
3.76873e-320
3.76478e-320
3.75885e-320
3.75095e-320
3.74107e-320
3.72921e-320
3.71537e-320
3.69759e-320
3.6719e-320
3.63435e-320
3.66992e-320
8.31611e-320
8.01473e-320
3.68178e-320
3.67387e-320
3.70352e-320
3.72624e-320
3.74699e-320
3.76873e-320
3.79146e-320
3.80826e-320
3.80628e-320
3.78652e-320
3.75688e-320
3.72624e-320
3.69462e-320
3.66004e-320
3.61854e-320
3.5632e-320
3.51874e-320
8.17382e-320
8.30623e-320
3.58494e-320
3.59482e-320
3.6383e-320
4.46635e-320
4.7035e-320
4.94856e-320
5.2035e-320
5.46733e-320
5.74104e-320
6.02365e-320
6.31614e-320
6.6185e-320
6.93273e-320
7.25881e-320
7.59873e-320
7.9505e-320
8.31908e-320
8.70247e-320
9.10267e-320
9.51966e-320
9.95542e-320
1.041e-319
1.08833e-319
1.13773e-319
1.18922e-319
1.24287e-319
1.2988e-319
1.3571e-319
1.41777e-319
1.48081e-319
1.54652e-319
1.6148e-319
1.68575e-319
1.68457e-319
1.61243e-319
1.54307e-319
1.47637e-319
1.41243e-319
1.35097e-319
1.29228e-319
1.23595e-319
1.182e-319
1.13032e-319
1.08082e-319
1.03359e-319
9.8823e-320
9.4495e-320
9.03547e-320
8.64022e-320
8.26078e-320
7.89715e-320
7.54735e-320
7.21039e-320
6.8853e-320
6.57305e-320
6.27562e-320
5.99203e-320
5.72326e-320
5.46634e-320
5.22326e-320
4.99204e-320
4.7707e-320
4.56023e-320
3.75095e-320
3.75688e-320
3.7628e-320
3.76676e-320
3.76873e-320
3.76873e-320
3.76478e-320
3.75885e-320
3.75095e-320
3.74107e-320
3.7302e-320
3.71735e-320
3.69956e-320
3.67585e-320
3.64028e-320
3.68375e-320
8.2252e-320
7.98015e-320
3.69166e-320
3.67881e-320
3.70648e-320
3.72822e-320
3.74798e-320
3.76873e-320
3.79146e-320
3.80727e-320
3.80628e-320
3.78652e-320
3.75885e-320
3.72723e-320
3.6966e-320
3.663e-320
3.62249e-320
3.57012e-320
3.53356e-320
8.08884e-320
8.20544e-320
3.59482e-320
3.60273e-320
3.64423e-320
4.47228e-320
4.70746e-320
4.95251e-320
5.20646e-320
5.47029e-320
5.74302e-320
6.02562e-320
6.31712e-320
6.62048e-320
6.93372e-320
7.25881e-320
7.59873e-320
7.9505e-320
8.31908e-320
8.70247e-320
9.10267e-320
9.51966e-320
9.95443e-320
1.0409e-319
1.08833e-319
1.13773e-319
1.18912e-319
1.24287e-319
1.2987e-319
1.3569e-319
1.41757e-319
1.48071e-319
1.54633e-319
1.61461e-319
1.68555e-319
1.68457e-319
1.61243e-319
1.54307e-319
1.47637e-319
1.41243e-319
1.35107e-319
1.29228e-319
1.23595e-319
1.182e-319
1.13032e-319
1.08082e-319
1.03359e-319
9.88329e-320
9.4495e-320
9.03547e-320
8.64022e-320
8.26177e-320
7.89813e-320
7.54833e-320
7.21039e-320
6.8853e-320
6.57305e-320
6.27562e-320
5.99203e-320
5.72326e-320
5.46634e-320
5.22326e-320
4.99204e-320
4.7707e-320
4.56121e-320
3.75095e-320
3.75688e-320
3.7628e-320
3.76676e-320
3.76873e-320
3.76873e-320
3.76478e-320
3.75885e-320
3.75095e-320
3.74205e-320
3.73118e-320
3.71735e-320
3.70154e-320
3.67881e-320
3.6462e-320
3.69561e-320
8.14813e-320
7.94556e-320
3.69858e-320
3.68277e-320
3.70944e-320
3.7302e-320
3.74897e-320
3.77071e-320
3.79245e-320
3.80727e-320
3.80628e-320
3.7885e-320
3.75984e-320
3.72921e-320
3.69956e-320
3.66696e-320
3.62842e-320
3.57704e-320
3.54739e-320
8.0177e-320
8.11453e-320
3.60273e-320
3.60866e-320
3.65016e-320
4.47623e-320
4.7124e-320
4.95647e-320
5.20943e-320
5.47227e-320
5.74401e-320
6.02562e-320
6.31811e-320
6.62048e-320
6.93471e-320
7.2598e-320
7.59873e-320
7.9505e-320
8.31809e-320
8.70148e-320
9.10267e-320
9.51966e-320
9.95443e-320
1.0409e-319
1.08813e-319
1.13754e-319
1.18902e-319
1.24267e-319
1.2986e-319
1.3568e-319
1.41738e-319
1.48052e-319
1.54613e-319
1.61441e-319
1.68536e-319
1.68476e-319
1.61243e-319
1.54307e-319
1.47647e-319
1.41243e-319
1.35107e-319
1.29228e-319
1.23595e-319
1.182e-319
1.13032e-319
1.08082e-319
1.03359e-319
9.88329e-320
9.45049e-320
9.03646e-320
8.64022e-320
8.26275e-320
7.89912e-320
7.54833e-320
7.21138e-320
6.8853e-320
6.57305e-320
6.27562e-320
5.99203e-320
5.72326e-320
5.46634e-320
5.22326e-320
4.99204e-320
4.7707e-320
4.56121e-320
3.75095e-320
3.75786e-320
3.7628e-320
3.76676e-320
3.76972e-320
3.76873e-320
3.76577e-320
3.75984e-320
3.75193e-320
3.74304e-320
3.73118e-320
3.71933e-320
3.70352e-320
3.68178e-320
3.65213e-320
3.70747e-320
8.08489e-320
7.91296e-320
3.7045e-320
3.68573e-320
3.71142e-320
3.73217e-320
3.75095e-320
3.77071e-320
3.79245e-320
3.80628e-320
3.80628e-320
3.7885e-320
3.76083e-320
3.73217e-320
3.70154e-320
3.67091e-320
3.63435e-320
3.58395e-320
3.55925e-320
7.95643e-320
8.03351e-320
3.60767e-320
3.61261e-320
3.65411e-320
4.48118e-320
4.71536e-320
4.95943e-320
5.2114e-320
5.47425e-320
5.74598e-320
6.0276e-320
6.3191e-320
6.62048e-320
6.93471e-320
7.2598e-320
7.59873e-320
7.9505e-320
8.31809e-320
8.70148e-320
9.10069e-320
9.51867e-320
9.95345e-320
1.0407e-319
1.08813e-319
1.13744e-319
1.18892e-319
1.24248e-319
1.2984e-319
1.35661e-319
1.41718e-319
1.48022e-319
1.54583e-319
1.61411e-319
1.68496e-319
1.68476e-319
1.61253e-319
1.54326e-319
1.47647e-319
1.41253e-319
1.35117e-319
1.29228e-319
1.23595e-319
1.182e-319
1.13042e-319
1.08092e-319
1.03359e-319
9.88329e-320
9.45049e-320
9.03646e-320
8.64121e-320
8.26275e-320
7.89912e-320
7.54932e-320
7.21138e-320
6.8853e-320
6.57404e-320
6.27661e-320
5.99203e-320
5.72326e-320
5.46634e-320
5.22326e-320
4.99204e-320
4.7707e-320
4.56121e-320
3.75095e-320
3.75786e-320
3.7628e-320
3.76676e-320
3.76972e-320
3.76873e-320
3.76577e-320
3.75984e-320
3.75292e-320
3.74304e-320
3.73316e-320
3.7213e-320
3.70549e-320
3.68474e-320
3.65905e-320
3.71933e-320
8.03252e-320
7.88232e-320
3.70944e-320
3.68771e-320
3.7134e-320
3.73316e-320
3.75193e-320
3.77269e-320
3.79245e-320
3.80628e-320
3.80628e-320
3.7885e-320
3.7628e-320
3.73514e-320
3.70549e-320
3.67486e-320
3.63929e-320
3.58988e-320
3.56913e-320
7.90406e-320
7.96533e-320
3.61162e-320
3.61557e-320
3.65609e-320
4.48414e-320
4.71932e-320
4.9624e-320
5.21338e-320
5.47622e-320
5.74697e-320
6.0276e-320
6.32009e-320
6.62147e-320
6.93471e-320
7.25881e-320
7.59774e-320
7.9505e-320
8.31809e-320
8.70148e-320
9.10069e-320
9.51768e-320
9.95246e-320
1.0406e-319
1.08793e-319
1.13734e-319
1.18872e-319
1.24228e-319
1.29821e-319
1.35631e-319
1.41698e-319
1.48002e-319
1.54563e-319
1.61382e-319
1.68467e-319
1.68496e-319
1.61263e-319
1.54326e-319
1.47666e-319
1.41263e-319
1.35117e-319
1.29238e-319
1.23605e-319
1.182e-319
1.13042e-319
1.08092e-319
1.03359e-319
9.88329e-320
9.45049e-320
9.03745e-320
8.64121e-320
8.26275e-320
7.89912e-320
7.54932e-320
7.21138e-320
6.88629e-320
6.57404e-320
6.27661e-320
5.99203e-320
5.72326e-320
5.46733e-320
5.22326e-320
4.99204e-320
4.77169e-320
4.56121e-320
3.75193e-320
3.75786e-320
3.7628e-320
3.76774e-320
3.76972e-320
3.76873e-320
3.76577e-320
3.76083e-320
3.75292e-320
3.74403e-320
3.73316e-320
3.72229e-320
3.70747e-320
3.68672e-320
3.66399e-320
3.72822e-320
7.98904e-320
7.85564e-320
3.7134e-320
3.68968e-320
3.7134e-320
3.73415e-320
3.75292e-320
3.77269e-320
3.79245e-320
3.80628e-320
3.80628e-320
3.79047e-320
3.76478e-320
3.73711e-320
3.70846e-320
3.67881e-320
3.64423e-320
3.59482e-320
3.57704e-320
7.85762e-320
7.90703e-320
3.61458e-320
3.61656e-320
3.65806e-320
4.48612e-320
4.72129e-320
4.96338e-320
5.21536e-320
5.47622e-320
5.74796e-320
6.02958e-320
6.32009e-320
6.62147e-320
6.93471e-320
7.25881e-320
7.59675e-320
7.94952e-320
8.3171e-320
8.69951e-320
9.0997e-320
9.5157e-320
9.95048e-320
1.0405e-319
1.08773e-319
1.13714e-319
1.18852e-319
1.24208e-319
1.29791e-319
1.35611e-319
1.41659e-319
1.47963e-319
1.54524e-319
1.61342e-319
1.68417e-319
1.68506e-319
1.61283e-319
1.54346e-319
1.47666e-319
1.41263e-319
1.35137e-319
1.29248e-319
1.23615e-319
1.1821e-319
1.13042e-319
1.08102e-319
1.03359e-319
9.88329e-320
9.45049e-320
9.03745e-320
8.6422e-320
8.26275e-320
7.89912e-320
7.54932e-320
7.21138e-320
6.88728e-320
6.57503e-320
6.27661e-320
5.99203e-320
5.72326e-320
5.46733e-320
5.22326e-320
4.99204e-320
4.77169e-320
4.56121e-320
3.75193e-320
3.75885e-320
3.76379e-320
3.76774e-320
3.76972e-320
3.76873e-320
3.76676e-320
3.76083e-320
3.75292e-320
3.74502e-320
3.73514e-320
3.72328e-320
3.70944e-320
3.68869e-320
3.66992e-320
3.73711e-320
7.95248e-320
7.83094e-320
3.71636e-320
3.68968e-320
3.7134e-320
3.73514e-320
3.75292e-320
3.77269e-320
3.79245e-320
3.80628e-320
3.80628e-320
3.79047e-320
3.76676e-320
3.73909e-320
3.71142e-320
3.68178e-320
3.64818e-320
3.59877e-320
3.58494e-320
7.81612e-320
7.85762e-320
3.61854e-320
3.61854e-320
3.66004e-320
4.48809e-320
4.72228e-320
4.96437e-320
5.21635e-320
5.4782e-320
5.74895e-320
6.02958e-320
6.32009e-320
6.62048e-320
6.93372e-320
7.25881e-320
7.59675e-320
7.94853e-320
8.31611e-320
8.69852e-320
9.09871e-320
9.51472e-320
9.94949e-320
1.0403e-319
1.08754e-319
1.13685e-319
1.18833e-319
1.24188e-319
1.29761e-319
1.35572e-319
1.41619e-319
1.47923e-319
1.54475e-319
1.61283e-319
1.68368e-319
1.68526e-319
1.61303e-319
1.54356e-319
1.47686e-319
1.41283e-319
1.35137e-319
1.29257e-319
1.23615e-319
1.1822e-319
1.13042e-319
1.08102e-319
1.03359e-319
9.88329e-320
9.45049e-320
9.03745e-320
8.6422e-320
8.26374e-320
7.90011e-320
7.55031e-320
7.21237e-320
6.88728e-320
6.57503e-320
6.27661e-320
5.99302e-320
5.72326e-320
5.46733e-320
5.22425e-320
4.99204e-320
4.77267e-320
4.56121e-320
3.75193e-320
3.75885e-320
3.76379e-320
3.76774e-320
3.76972e-320
3.76972e-320
3.76676e-320
3.76083e-320
3.75391e-320
3.74502e-320
3.73514e-320
3.72525e-320
3.71142e-320
3.69067e-320
3.67486e-320
3.74601e-320
7.92284e-320
7.81019e-320
3.71933e-320
3.69166e-320
3.71439e-320
3.73514e-320
3.75391e-320
3.77367e-320
3.79245e-320
3.80628e-320
3.80628e-320
3.79146e-320
3.76774e-320
3.74107e-320
3.71439e-320
3.68573e-320
3.65213e-320
3.60273e-320
3.59186e-320
7.78055e-320
7.81612e-320
3.62051e-320
3.61854e-320
3.66004e-320
4.48908e-320
4.72327e-320
4.96635e-320
5.21733e-320
5.4782e-320
5.74895e-320
6.02958e-320
6.32009e-320
6.62048e-320
6.93273e-320
7.25782e-320
7.59577e-320
7.94754e-320
8.31414e-320
8.69753e-320
9.09674e-320
9.51373e-320
9.94752e-320
1.04011e-319
1.08734e-319
1.13655e-319
1.18793e-319
1.24149e-319
1.29722e-319
1.35532e-319
1.41579e-319
1.47884e-319
1.54425e-319
1.61233e-319
1.68308e-319
1.68546e-319
1.61322e-319
1.54376e-319
1.47706e-319
1.41293e-319
1.35157e-319
1.29267e-319
1.23625e-319
1.1822e-319
1.13052e-319
1.08102e-319
1.03368e-319
9.88428e-320
9.45148e-320
9.03844e-320
8.6422e-320
8.26473e-320
7.9011e-320
7.5513e-320
7.21336e-320
6.88728e-320
6.57503e-320
6.27661e-320
5.99302e-320
5.72326e-320
5.46832e-320
5.22425e-320
4.99303e-320
4.77267e-320
4.56121e-320
3.75292e-320
3.75885e-320
3.76379e-320
3.76873e-320
3.77071e-320
3.76972e-320
3.76676e-320
3.76083e-320
3.7549e-320
3.74601e-320
3.73612e-320
3.72525e-320
3.71142e-320
3.69166e-320
3.6798e-320
3.75391e-320
7.89912e-320
7.7924e-320
3.72229e-320
3.69166e-320
3.71439e-320
3.73514e-320
3.7549e-320
3.77466e-320
3.79245e-320
3.80628e-320
3.80628e-320
3.79245e-320
3.76873e-320
3.74304e-320
3.71735e-320
3.68869e-320
3.6551e-320
3.60569e-320
3.59779e-320
7.74893e-320
3.88928e-320
3.62447e-320
3.61854e-320
3.66103e-320
4.49007e-320
4.72327e-320
4.96635e-320
5.21733e-320
5.4782e-320
5.74895e-320
6.02958e-320
6.3191e-320
6.62048e-320
6.93273e-320
7.25684e-320
7.59478e-320
7.94655e-320
8.31315e-320
8.69556e-320
9.09476e-320
9.51076e-320
9.94455e-320
1.03981e-319
1.08704e-319
1.13635e-319
1.18763e-319
1.24109e-319
1.29682e-319
1.35493e-319
1.4154e-319
1.47824e-319
1.54366e-319
1.61174e-319
1.68239e-319
1.68575e-319
1.61342e-319
1.54386e-319
1.47716e-319
1.41303e-319
1.35166e-319
1.29277e-319
1.23635e-319
1.1824e-319
1.13062e-319
1.08111e-319
1.03378e-319
9.88527e-320
9.45246e-320
9.03943e-320
8.64417e-320
8.26473e-320
7.9011e-320
7.5513e-320
7.21336e-320
6.88728e-320
6.57503e-320
6.27661e-320
5.994e-320
5.72326e-320
5.46832e-320
5.22524e-320
4.99303e-320
4.77267e-320
4.5622e-320
3.75292e-320
3.75885e-320
3.76478e-320
3.76873e-320
3.77071e-320
3.76972e-320
3.76676e-320
3.76182e-320
3.7549e-320
3.74699e-320
3.73711e-320
3.72624e-320
3.7134e-320
3.69363e-320
3.68474e-320
3.76083e-320
7.87936e-320
3.8883e-320
3.72525e-320
3.69363e-320
3.71439e-320
3.73514e-320
3.7549e-320
3.77466e-320
3.79245e-320
3.80529e-320
3.80529e-320
3.79245e-320
3.77071e-320
3.74502e-320
3.71933e-320
3.69166e-320
3.65806e-320
3.60866e-320
3.60371e-320
3.86063e-320
3.87446e-320
3.62644e-320
3.61854e-320
3.66103e-320
4.49007e-320
4.72327e-320
4.96635e-320
5.21733e-320
5.4782e-320
5.74895e-320
6.0276e-320
6.31811e-320
6.6185e-320
6.93075e-320
7.25486e-320
7.5928e-320
7.94458e-320
8.31117e-320
8.69358e-320
9.09278e-320
9.50879e-320
9.94258e-320
1.03951e-319
1.08675e-319
1.13596e-319
1.18734e-319
1.2407e-319
1.29643e-319
1.35453e-319
1.41481e-319
1.47775e-319
1.54307e-319
1.61105e-319
1.6818e-319
1.68595e-319
1.61362e-319
1.54405e-319
1.47736e-319
1.41323e-319
1.35176e-319
1.29287e-319
1.23645e-319
1.1824e-319
1.13062e-319
1.08121e-319
1.03378e-319
9.88527e-320
9.45246e-320
9.03943e-320
8.64417e-320
8.26572e-320
7.90209e-320
7.5513e-320
7.21336e-320
6.88826e-320
6.57503e-320
6.27661e-320
5.994e-320
5.72326e-320
5.46832e-320
5.22524e-320
4.99402e-320
4.77267e-320
4.56319e-320
3.75292e-320
3.75885e-320
3.76478e-320
3.76873e-320
3.77071e-320
3.76972e-320
3.76676e-320
3.76182e-320
3.7549e-320
3.74699e-320
3.73711e-320
3.72723e-320
3.7134e-320
3.69363e-320
3.68968e-320
3.76873e-320
7.86355e-320
3.88138e-320
3.72723e-320
3.69363e-320
3.71439e-320
3.73514e-320
3.7549e-320
3.77466e-320
3.79245e-320
3.80431e-320
3.80529e-320
3.79245e-320
3.7717e-320
3.74699e-320
3.7213e-320
3.69363e-320
3.66004e-320
3.61261e-320
3.60866e-320
3.84778e-320
3.86162e-320
3.63039e-320
3.61854e-320
3.66004e-320
4.48908e-320
4.72327e-320
4.96536e-320
5.21733e-320
5.47721e-320
5.74697e-320
6.0276e-320
6.31712e-320
6.61752e-320
6.92976e-320
7.25387e-320
7.59082e-320
7.9426e-320
8.3092e-320
8.6916e-320
9.09081e-320
9.50582e-320
9.9406e-320
1.03932e-319
1.08645e-319
1.13556e-319
1.18694e-319
1.2403e-319
1.29603e-319
1.35394e-319
1.41431e-319
1.47706e-319
1.54247e-319
1.61036e-319
1.68101e-319
1.68615e-319
1.61382e-319
1.54435e-319
1.47755e-319
1.41342e-319
1.35196e-319
1.29307e-319
1.23655e-319
1.1825e-319
1.13082e-319
1.08121e-319
1.03388e-319
9.88625e-320
9.45345e-320
9.03943e-320
8.64417e-320
8.26671e-320
7.90307e-320
7.55229e-320
7.21435e-320
6.88925e-320
6.57601e-320
6.2776e-320
5.994e-320
5.72424e-320
5.46832e-320
5.22524e-320
4.99402e-320
4.77267e-320
4.56319e-320
3.75292e-320
3.75885e-320
3.76478e-320
3.76873e-320
3.77071e-320
3.77071e-320
3.76676e-320
3.7628e-320
3.7549e-320
3.74699e-320
3.73711e-320
3.72723e-320
3.71439e-320
3.69561e-320
3.69363e-320
3.77565e-320
7.84971e-320
3.87545e-320
3.72921e-320
3.69561e-320
3.71439e-320
3.73514e-320
3.7549e-320
3.77466e-320
3.79245e-320
3.80431e-320
3.80431e-320
3.79245e-320
3.77269e-320
3.74798e-320
3.72328e-320
3.69561e-320
3.66201e-320
3.61458e-320
3.61458e-320
3.8379e-320
3.84976e-320
3.63237e-320
3.61854e-320
3.66004e-320
4.48809e-320
4.72327e-320
4.96437e-320
5.21536e-320
5.47622e-320
5.74697e-320
6.02562e-320
6.31614e-320
6.61653e-320
6.92878e-320
7.25288e-320
7.58885e-320
7.94062e-320
8.30722e-320
8.68963e-320
9.08784e-320
9.50385e-320
9.93665e-320
1.03892e-319
1.08606e-319
1.13517e-319
1.18655e-319
1.23991e-319
1.29544e-319
1.35344e-319
1.41372e-319
1.47647e-319
1.54168e-319
1.60957e-319
1.68012e-319
1.68654e-319
1.61401e-319
1.54465e-319
1.47775e-319
1.41362e-319
1.35216e-319
1.29317e-319
1.23675e-319
1.1826e-319
1.13082e-319
1.08131e-319
1.03398e-319
9.88724e-320
9.45444e-320
9.0414e-320
8.64615e-320
8.26671e-320
7.90307e-320
7.55328e-320
7.21533e-320
6.88925e-320
6.577e-320
6.27859e-320
5.994e-320
5.72424e-320
5.46832e-320
5.22524e-320
4.99402e-320
4.77366e-320
4.56319e-320
3.75292e-320
3.75885e-320
3.76478e-320
3.76873e-320
3.77071e-320
3.77071e-320
3.76676e-320
3.7628e-320
3.75589e-320
3.74699e-320
3.7381e-320
3.72723e-320
3.71439e-320
3.6966e-320
3.69858e-320
3.78257e-320
7.83786e-320
3.87051e-320
3.73118e-320
3.69561e-320
3.71439e-320
3.73514e-320
3.7549e-320
3.77466e-320
3.79245e-320
3.80431e-320
3.80431e-320
3.79344e-320
3.77269e-320
3.74897e-320
3.72525e-320
3.69759e-320
3.66399e-320
3.61755e-320
3.61854e-320
3.82901e-320
3.84185e-320
3.63632e-320
3.61854e-320
3.65905e-320
4.48809e-320
4.72228e-320
4.96437e-320
5.21536e-320
5.47622e-320
5.745e-320
6.02562e-320
6.31416e-320
6.61455e-320
6.9268e-320
7.25091e-320
7.58687e-320
7.93865e-320
8.30426e-320
8.68666e-320
9.08488e-320
9.49989e-320
9.93368e-320
1.03853e-319
1.08576e-319
1.13477e-319
1.18596e-319
1.23931e-319
1.29495e-319
1.35285e-319
1.41303e-319
1.47577e-319
1.54099e-319
1.60878e-319
1.67923e-319
1.68674e-319
1.61441e-319
1.54484e-319
1.47805e-319
1.41382e-319
1.35226e-319
1.29327e-319
1.23675e-319
1.18279e-319
1.13102e-319
1.08141e-319
1.03398e-319
9.88724e-320
9.45444e-320
9.0414e-320
8.64615e-320
8.26769e-320
7.90406e-320
7.55328e-320
7.21533e-320
6.88925e-320
6.577e-320
6.27859e-320
5.994e-320
5.72523e-320
5.46832e-320
5.22524e-320
4.99402e-320
4.77366e-320
4.56319e-320
3.75292e-320
3.75885e-320
3.76478e-320
3.76873e-320
3.77071e-320
3.77071e-320
3.76774e-320
3.7628e-320
3.75589e-320
3.74699e-320
3.73909e-320
3.72723e-320
3.71439e-320
3.69759e-320
3.70352e-320
3.7885e-320
7.82798e-320
3.86557e-320
3.73316e-320
3.69759e-320
3.71439e-320
3.73514e-320
3.7549e-320
3.77466e-320
3.79245e-320
3.80431e-320
3.80431e-320
3.79344e-320
3.77367e-320
3.75095e-320
3.72624e-320
3.69956e-320
3.66597e-320
3.62051e-320
3.62447e-320
3.82209e-320
3.83395e-320
3.63929e-320
3.61854e-320
3.65806e-320
4.48612e-320
4.72129e-320
4.9624e-320
5.21338e-320
5.47425e-320
5.74401e-320
6.02365e-320
6.31317e-320
6.61257e-320
6.92482e-320
7.24893e-320
7.5849e-320
7.93667e-320
8.30228e-320
8.6837e-320
9.08191e-320
9.49792e-320
9.93072e-320
1.03813e-319
1.08526e-319
1.13437e-319
1.18556e-319
1.23892e-319
1.29445e-319
1.35216e-319
1.41243e-319
1.47508e-319
1.5401e-319
1.60789e-319
1.67824e-319
1.68714e-319
1.61461e-319
1.54504e-319
1.47824e-319
1.41402e-319
1.35246e-319
1.29346e-319
1.23694e-319
1.18279e-319
1.13102e-319
1.08151e-319
1.03418e-319
9.88823e-320
9.45642e-320
9.04239e-320
8.64714e-320
8.26868e-320
7.90505e-320
7.55426e-320
7.21632e-320
6.89024e-320
6.577e-320
6.27859e-320
5.994e-320
5.72523e-320
5.46832e-320
5.22524e-320
4.99402e-320
4.77465e-320
4.56319e-320
3.75292e-320
3.75984e-320
3.76478e-320
3.76873e-320
3.77071e-320
3.77071e-320
3.76774e-320
3.7628e-320
3.75589e-320
3.74798e-320
3.73909e-320
3.72822e-320
3.71537e-320
3.69858e-320
3.70747e-320
3.79442e-320
7.82007e-320
3.86162e-320
3.73514e-320
3.69858e-320
3.71439e-320
3.73514e-320
3.7549e-320
3.77466e-320
3.79245e-320
3.80332e-320
3.80431e-320
3.79344e-320
3.77466e-320
3.75095e-320
3.72723e-320
3.70154e-320
3.66696e-320
3.62249e-320
3.62842e-320
3.81517e-320
3.82703e-320
3.64225e-320
3.61854e-320
3.65609e-320
4.48513e-320
4.71932e-320
4.9624e-320
5.21338e-320
5.47326e-320
5.74302e-320
6.02167e-320
6.31119e-320
6.6106e-320
6.92285e-320
7.24597e-320
7.58292e-320
7.93371e-320
8.3003e-320
8.68172e-320
9.07895e-320
9.49397e-320
9.92677e-320
1.03774e-319
1.08477e-319
1.13388e-319
1.18497e-319
1.23833e-319
1.29376e-319
1.35157e-319
1.41164e-319
1.47429e-319
1.53931e-319
1.6069e-319
1.67725e-319
1.68743e-319
1.615e-319
1.54534e-319
1.47844e-319
1.41421e-319
1.35265e-319
1.29366e-319
1.23714e-319
1.18299e-319
1.13121e-319
1.08161e-319
1.03418e-319
9.88922e-320
9.45642e-320
9.04338e-320
8.64813e-320
8.26967e-320
7.90505e-320
7.55525e-320
7.21731e-320
6.89123e-320
6.577e-320
6.27859e-320
5.99499e-320
5.72523e-320
5.46931e-320
5.22623e-320
4.995e-320
4.77465e-320
4.56418e-320
3.75391e-320
3.75984e-320
3.76478e-320
3.76873e-320
3.77071e-320
3.77071e-320
3.76774e-320
3.7628e-320
3.75589e-320
3.74798e-320
3.73909e-320
3.72822e-320
3.71537e-320
3.69956e-320
3.71241e-320
3.80035e-320
7.81217e-320
3.85964e-320
3.7381e-320
3.69956e-320
3.71439e-320
3.73514e-320
3.7549e-320
3.77466e-320
3.79245e-320
3.80233e-320
3.80332e-320
3.79344e-320
3.77466e-320
3.75292e-320
3.72822e-320
3.70154e-320
3.66794e-320
3.62447e-320
3.63435e-320
3.81023e-320
3.82209e-320
3.6462e-320
3.61854e-320
3.6551e-320
4.48414e-320
4.71833e-320
4.96042e-320
5.2114e-320
5.47227e-320
5.74104e-320
6.0197e-320
6.31021e-320
6.60862e-320
6.92087e-320
7.24399e-320
7.58094e-320
7.93074e-320
8.29635e-320
8.67777e-320
9.075e-320
9.49001e-320
9.92281e-320
1.03734e-319
1.08438e-319
1.13339e-319
1.18447e-319
1.23773e-319
1.29307e-319
1.35078e-319
1.41085e-319
1.4734e-319
1.53832e-319
1.60591e-319
1.67617e-319
1.68773e-319
1.6152e-319
1.54563e-319
1.47864e-319
1.41441e-319
1.35285e-319
1.29386e-319
1.23724e-319
1.18319e-319
1.13131e-319
1.08171e-319
1.03438e-319
9.89021e-320
9.4574e-320
9.04437e-320
8.64911e-320
8.27066e-320
7.90703e-320
7.55525e-320
7.21731e-320
6.89123e-320
6.57799e-320
6.27859e-320
5.99499e-320
5.72523e-320
5.47029e-320
5.22721e-320
4.99599e-320
4.77465e-320
4.56418e-320
3.75391e-320
3.76083e-320
3.76478e-320
3.76873e-320
3.77071e-320
3.77071e-320
3.76774e-320
3.7628e-320
3.75688e-320
3.74798e-320
3.73909e-320
3.72723e-320
3.71439e-320
3.70154e-320
3.71735e-320
3.80628e-320
7.80624e-320
3.85668e-320
3.74107e-320
3.70154e-320
3.71537e-320
3.73514e-320
3.7549e-320
3.77466e-320
3.79146e-320
3.80233e-320
3.80233e-320
3.79245e-320
3.77466e-320
3.75292e-320
3.72921e-320
3.70352e-320
3.66893e-320
3.62644e-320
3.6383e-320
3.80529e-320
3.81814e-320
3.65016e-320
3.61854e-320
3.65411e-320
4.48216e-320
4.71734e-320
4.95844e-320
5.20943e-320
5.47029e-320
5.73907e-320
6.01871e-320
6.30823e-320
6.60665e-320
6.91791e-320
7.24103e-320
7.57798e-320
7.92877e-320
8.29437e-320
8.6748e-320
9.07203e-320
9.48606e-320
9.91886e-320
1.03694e-319
1.08388e-319
1.13289e-319
1.18388e-319
1.23714e-319
1.29248e-319
1.35008e-319
1.41006e-319
1.47251e-319
1.53743e-319
1.60492e-319
1.67508e-319
1.68812e-319
1.61559e-319
1.54593e-319
1.47903e-319
1.41471e-319
1.35305e-319
1.29406e-319
1.23744e-319
1.18319e-319
1.13141e-319
1.08181e-319
1.03438e-319
9.89119e-320
9.45839e-320
9.04535e-320
8.6501e-320
8.27066e-320
7.90703e-320
7.55723e-320
7.2183e-320
6.89123e-320
6.57898e-320
6.27957e-320
5.99598e-320
5.72523e-320
5.47029e-320
5.22721e-320
4.99599e-320
4.77465e-320
4.56517e-320
3.7549e-320
3.76083e-320
3.76478e-320
3.76873e-320
3.77071e-320
3.77071e-320
3.76774e-320
3.7628e-320
3.75688e-320
3.74798e-320
3.73909e-320
3.72723e-320
3.71439e-320
3.70154e-320
3.7213e-320
3.81023e-320
7.80031e-320
3.8547e-320
3.74304e-320
3.70352e-320
3.71537e-320
3.73514e-320
3.7549e-320
3.77466e-320
3.79047e-320
3.80233e-320
3.80233e-320
3.79245e-320
3.77466e-320
3.75292e-320
3.72921e-320
3.70352e-320
3.66992e-320
3.62842e-320
3.64423e-320
3.80233e-320
3.81419e-320
3.65411e-320
3.61854e-320
3.65213e-320
4.48019e-320
4.71536e-320
4.95745e-320
5.20844e-320
5.46832e-320
5.73709e-320
6.01673e-320
6.30527e-320
6.60467e-320
6.91593e-320
7.23905e-320
7.57501e-320
7.9258e-320
8.29042e-320
8.67184e-320
9.06907e-320
9.48211e-320
9.91491e-320
1.03645e-319
1.08339e-319
1.1323e-319
1.18329e-319
1.23635e-319
1.29169e-319
1.34939e-319
1.40927e-319
1.47162e-319
1.53645e-319
1.60384e-319
1.67389e-319
1.68852e-319
1.61589e-319
1.54623e-319
1.47923e-319
1.415e-319
1.35334e-319
1.29425e-319
1.23754e-319
1.18339e-319
1.13161e-319
1.082e-319
1.03457e-319
9.89218e-320
9.45938e-320
9.04634e-320
8.65109e-320
8.27264e-320
7.909e-320
7.55723e-320
7.21929e-320
6.89222e-320
6.57898e-320
6.28056e-320
5.99598e-320
5.72523e-320
5.47029e-320
5.22721e-320
4.99599e-320
4.77564e-320
4.56517e-320
3.7549e-320
3.76083e-320
3.76577e-320
3.76873e-320
3.77071e-320
3.77071e-320
3.76774e-320
3.7628e-320
3.75688e-320
3.74798e-320
3.73909e-320
3.72723e-320
3.71439e-320
3.70352e-320
3.72624e-320
3.81419e-320
7.79438e-320
3.85272e-320
3.74601e-320
3.70549e-320
3.71537e-320
3.73514e-320
3.7549e-320
3.77466e-320
3.79047e-320
3.80134e-320
3.80233e-320
3.79245e-320
3.77466e-320
3.75391e-320
3.73118e-320
3.7045e-320
3.66992e-320
3.63138e-320
3.64917e-320
3.79936e-320
3.81221e-320
3.65806e-320
3.61854e-320
3.65016e-320
4.47821e-320
4.71339e-320
4.95548e-320
5.20646e-320
5.46634e-320
5.73511e-320
6.01476e-320
6.30329e-320
6.60269e-320
6.91297e-320
7.23609e-320
7.57304e-320
7.92284e-320
8.28746e-320
8.66789e-320
9.06512e-320
9.47816e-320
9.90997e-320
1.03596e-319
1.08279e-319
1.13181e-319
1.18269e-319
1.23576e-319
1.29099e-319
1.3485e-319
1.40838e-319
1.47064e-319
1.53536e-319
1.60265e-319
1.67261e-319
1.68891e-319
1.61619e-319
1.54652e-319
1.47953e-319
1.4152e-319
1.35354e-319
1.29445e-319
1.23773e-319
1.18358e-319
1.13171e-319
1.0821e-319
1.03467e-319
9.89317e-320
9.46037e-320
9.04733e-320
8.65208e-320
8.27362e-320
7.909e-320
7.5592e-320
7.21929e-320
6.8932e-320
6.57898e-320
6.28056e-320
5.99598e-320
5.72622e-320
5.47029e-320
5.22721e-320
4.99599e-320
4.77564e-320
4.56517e-320
3.7549e-320
3.76083e-320
3.76577e-320
3.76972e-320
3.77071e-320
3.77071e-320
3.76774e-320
3.7628e-320
3.75688e-320
3.74798e-320
3.73909e-320
3.72723e-320
3.7134e-320
3.70549e-320
3.73118e-320
3.81814e-320
7.78845e-320
3.85075e-320
3.74897e-320
3.70747e-320
3.71537e-320
3.73514e-320
3.7549e-320
3.77367e-320
3.79047e-320
3.80035e-320
3.80134e-320
3.79245e-320
3.77565e-320
3.7549e-320
3.73118e-320
3.70549e-320
3.67091e-320
3.63435e-320
3.65411e-320
3.79838e-320
3.81023e-320
3.66201e-320
3.61952e-320
3.64818e-320
4.47623e-320
4.71141e-320
4.95449e-320
5.20449e-320
5.46437e-320
5.73314e-320
6.01179e-320