/*--------------------------------*- C++ -*----------------------------------*\
  =========                 |
  \\      /  F ield         | OpenFOAM: The Open Source CFD Toolbox
   \\    /   O peration     | Website:  https://openfoam.org
    \\  /    A nd           | Version:  9
     \\/     M anipulation  |
\*---------------------------------------------------------------------------*/
FoamFile
{
    format      ascii;
    class       volScalarField;
    location    "0.2";
    object      p;
}
// * * * * * * * * * * * * * * * * * * * * * * * * * * * * * * * * * * * * * //

dimensions      [1 -1 -2 0 0 0 0];

internalField   nonuniform List<scalar> 
20000
(
4.23213
4.23263
4.2326
4.23217
4.23139
4.23036
4.22919
4.22798
4.2268
4.22571
4.22478
4.22405
4.22357
4.22339
4.22352
4.22398
4.22473
4.22567
4.22662
4.22733
4.22756
4.22725
4.22659
4.22596
4.22572
4.22602
4.22686
4.22808
4.22943
4.23062
4.23146
4.23163
4.23124
4.23086
4.23119
4.23262
4.23473
4.23637
4.23609
4.23198
4.2214
4.19922
4.15426
4.05891
3.81617
3.36611
1.21298
3.12427
3.78356
3.96407
4.10833
4.17608
4.20548
4.21202
4.20303
4.19133
4.19886
4.22164
4.23139
4.21362
4.16139
4.05725
3.85868
3.47384
2.56718
1.27275
1.35931
2.74078
3.41936
3.79676
3.98068
4.07925
4.13846
4.1749
4.19727
4.21079
4.21884
4.22366
4.22666
4.22866
4.23008
4.23112
4.2319
4.23247
4.23287
4.23313
4.23328
4.23332
4.2333
4.23321
4.23307
4.2329
4.23271
4.23251
4.23231
4.23211
4.23191
4.23174
4.23158
4.23145
4.23041
4.23136
4.23175
4.23179
4.23151
4.23097
4.23024
4.22939
4.22849
4.22757
4.2267
4.2259
4.22523
4.22473
4.22445
4.22447
4.22484
4.22558
4.22659
4.22766
4.22847
4.22882
4.22871
4.22838
4.22809
4.22805
4.22838
4.22903
4.22992
4.2309
4.23191
4.23277
4.2335
4.23446
4.23593
4.23788
4.2397
4.24032
4.23825
4.2314
4.21647
4.18681
4.12919
4.02303
3.76066
3.45661
2.32097
3.38169
3.72015
3.93127
4.07643
4.14989
4.18777
4.20285
4.20595
4.20725
4.21697
4.23023
4.22953
4.20518
4.14866
4.04171
3.84456
3.51273
2.75795
2.00116
2.22735
2.95832
3.50285
3.78831
3.95569
4.054
4.11479
4.15414
4.17993
4.19699
4.20846
4.21633
4.22182
4.2257
4.22845
4.23037
4.23169
4.23256
4.2331
4.23339
4.23349
4.23344
4.23328
4.23303
4.23273
4.23238
4.232
4.23162
4.23123
4.23085
4.23049
4.23015
4.22984
4.22956
4.22775
4.22807
4.22822
4.22824
4.22815
4.22795
4.22764
4.22726
4.22683
4.22638
4.22595
4.22556
4.22526
4.22508
4.22506
4.22522
4.22559
4.22616
4.22687
4.22761
4.22826
4.22871
4.22898
4.22915
4.22936
4.22974
4.23034
4.23118
4.2322
4.2333
4.2345
4.23568
4.23675
4.23792
4.23928
4.24072
4.24173
4.24131
4.238
4.22994
4.21388
4.1839
4.12844
4.05097
3.83322
3.80891
3.0954
3.63853
3.80709
3.9999
4.10123
4.15933
4.19462
4.211
4.2173
4.22009
4.22587
4.23236
4.22664
4.20152
4.14911
4.05636
3.89362
3.67811
3.25704
2.75288
2.92943
3.39548
3.72111
3.87233
3.99711
4.07515
4.12533
4.15962
4.18285
4.19863
4.20944
4.21693
4.22217
4.22585
4.22842
4.23019
4.23136
4.23209
4.2325
4.23266
4.23263
4.23247
4.23219
4.23185
4.23145
4.23102
4.23057
4.23012
4.22967
4.22923
4.22881
4.2284
4.22802
4.22766
4.22557
4.22567
4.22571
4.22572
4.22569
4.22562
4.22551
4.22537
4.22521
4.22506
4.22493
4.22484
4.22482
4.2249
4.2251
4.22542
4.22587
4.22642
4.22702
4.22765
4.22824
4.22876
4.22924
4.22974
4.23032
4.23105
4.23197
4.23306
4.23429
4.23559
4.23701
4.23844
4.23974
4.24102
4.24232
4.2435
4.24412
4.24333
4.2399
4.23219
4.21786
4.19337
4.14726
4.11378
3.93839
4.05892
3.636
3.90668
3.97476
4.09507
4.14345
4.18338
4.21045
4.22377
4.22981
4.23217
4.23534
4.23876
4.23191
4.21018
4.16786
4.10038
3.98592
3.87037
3.72438
3.4552
3.48761
3.8129
3.92007
3.97937
4.06208
4.11303
4.14848
4.17449
4.1927
4.20537
4.2142
4.22035
4.22464
4.22763
4.22967
4.23102
4.23186
4.23232
4.23248
4.23243
4.23222
4.23188
4.23145
4.23097
4.23044
4.22989
4.22933
4.22878
4.22823
4.22769
4.22717
4.22667
4.2262
4.22574
4.2236
4.22369
4.22378
4.22386
4.22393
4.22399
4.22403
4.22407
4.22411
4.22416
4.22423
4.22435
4.22452
4.22476
4.22508
4.2255
4.22601
4.22659
4.22724
4.22792
4.22861
4.22931
4.23003
4.2308
4.23166
4.23265
4.2338
4.2351
4.23653
4.23803
4.23971
4.24144
4.24306
4.24461
4.24608
4.24733
4.24799
4.24738
4.24463
4.23836
4.22724
4.21104
4.1738
4.17864
4.03855
4.20898
3.99462
4.11903
4.13207
4.17813
4.18767
4.21269
4.23004
4.23915
4.24422
4.24645
4.24854
4.24956
4.24347
4.22676
4.19602
4.15425
4.08482
4.02955
4.0546
3.95983
3.92566
4.11784
4.06369
4.07982
4.12653
4.15328
4.17525
4.19268
4.20534
4.21446
4.22096
4.22553
4.22869
4.23084
4.23222
4.23304
4.23344
4.23351
4.23334
4.23299
4.23251
4.23193
4.23128
4.23059
4.22988
4.22915
4.22842
4.2277
4.227
4.22632
4.22566
4.22503
4.22442
4.22384
4.22166
4.2218
4.22196
4.22213
4.2223
4.22248
4.22266
4.22286
4.22306
4.22329
4.22355
4.22384
4.22417
4.22456
4.22501
4.22553
4.22612
4.22678
4.22751
4.2283
4.22915
4.23006
4.23102
4.23205
4.23318
4.23443
4.23581
4.23733
4.23897
4.2407
4.24265
4.24472
4.2467
4.24859
4.25036
4.25187
4.25286
4.25283
4.25126
4.24709
4.23941
4.23237
4.20203
4.23411
4.12806
4.3105
4.21499
4.25814
4.24674
4.24312
4.23008
4.2432
4.25159
4.25672
4.26042
4.26222
4.26351
4.26338
4.25861
4.2472
4.22694
4.20593
4.17323
4.15261
4.26726
4.27688
4.22739
4.32085
4.17404
4.16792
4.18378
4.19218
4.20314
4.21268
4.21996
4.22545
4.22944
4.23222
4.23407
4.2352
4.23579
4.23595
4.23578
4.23538
4.23479
4.23407
4.23326
4.23238
4.23146
4.23051
4.22956
4.22862
4.22769
4.22678
4.22589
4.22503
4.22421
4.22342
4.22266
4.22194
4.21972
4.21992
4.22015
4.22039
4.22065
4.22093
4.22123
4.22155
4.2219
4.22227
4.22268
4.22312
4.22361
4.22415
4.22474
4.22539
4.22611
4.22689
4.22773
4.22866
4.22965
4.23074
4.23191
4.23318
4.23456
4.23606
4.23768
4.23943
4.24131
4.24329
4.24553
4.24794
4.25028
4.25254
4.25467
4.25658
4.2581
4.25892
4.25879
4.2572
4.25242
4.25459
4.22989
4.27994
4.20412
4.38192
4.34559
4.3498
4.32753
4.29505
4.26904
4.27244
4.27347
4.27516
4.27715
4.27818
4.27895
4.27879
4.27587
4.26966
4.25854
4.25303
4.24894
4.25149
4.40716
4.46762
4.42274
4.45692
4.26652
4.24307
4.23392
4.22892
4.2308
4.23335
4.23569
4.23766
4.23908
4.23995
4.24034
4.24033
4.24
4.2394
4.23861
4.23766
4.2366
4.23546
4.23427
4.23306
4.23183
4.2306
4.22939
4.22821
4.22705
4.22593
4.22484
4.2238
4.2228
4.22184
4.22093
4.22005
4.21777
4.21802
4.21832
4.21864
4.21899
4.21936
4.21976
4.2202
4.22066
4.22116
4.2217
4.22228
4.2229
4.22358
4.22432
4.22511
4.22597
4.22688
4.22787
4.22893
4.23008
4.23133
4.23269
4.23417
4.23578
4.23751
4.23938
4.24138
4.2435
4.24574
4.24828
4.25104
4.25374
4.25638
4.25893
4.26135
4.26356
4.26539
4.26687
4.26819
4.2653
4.27644
4.25626
4.31791
4.26498
4.42888
4.42146
4.41244
4.38652
4.33747
4.30373
4.29948
4.29474
4.2936
4.29386
4.29409
4.29467
4.29506
4.29427
4.2929
4.28978
4.29561
4.31279
4.33116
4.50084
4.58034
4.54568
4.54712
4.34175
4.30525
4.27766
4.26284
4.25714
4.2537
4.25166
4.25037
4.24931
4.24827
4.24718
4.24598
4.24467
4.24327
4.24179
4.24026
4.23869
4.2371
4.23551
4.23393
4.23237
4.23084
4.22935
4.2279
4.2265
4.22515
4.22386
4.22261
4.22142
4.22029
4.2192
4.21817
4.21573
4.21607
4.21646
4.21687
4.21731
4.21778
4.21828
4.21882
4.2194
4.22001
4.22068
4.22139
4.22215
4.22296
4.22383
4.22477
4.22576
4.22681
4.22794
4.22915
4.23046
4.23188
4.23343
4.23511
4.23693
4.23889
4.241
4.24325
4.24563
4.24813
4.25099
4.2541
4.25717
4.26022
4.26323
4.26622
4.26919
4.27211
4.27519
4.2799
4.27733
4.29711
4.28004
4.34871
4.31122
4.45761
4.46363
4.45227
4.42754
4.37061
4.33355
4.32388
4.31494
4.31164
4.3104
4.31
4.31056
4.31167
4.31288
4.31564
4.31922
4.33279
4.36455
4.39173
4.56058
4.6425
4.61802
4.60223
4.39848
4.35456
4.3147
4.29295
4.28124
4.27287
4.26711
4.26294
4.25961
4.2568
4.25428
4.25191
4.24963
4.24742
4.24524
4.2431
4.241
4.23894
4.23693
4.23497
4.23306
4.23121
4.22942
4.2277
4.22604
4.22445
4.22293
4.22147
4.22008
4.21876
4.21749
4.21629
4.21378
4.21417
4.21463
4.21512
4.21564
4.2162
4.2168
4.21744
4.21812
4.21885
4.21963
4.22047
4.22136
4.2223
4.22331
4.22437
4.2255
4.2267
4.22797
4.22933
4.2308
4.23239
4.23413
4.23601
4.23805
4.24024
4.24259
4.24508
4.24772
4.25049
4.25366
4.25713
4.2606
4.26407
4.26757
4.27115
4.2749
4.27888
4.28323
4.28959
4.29043
4.31597
4.30108
4.37227
4.34523
4.47425
4.4852
4.47413
4.45274
4.39482
4.35812
4.34522
4.33362
4.32885
4.32648
4.32568
4.32632
4.32815
4.33105
4.33701
4.34581
4.36396
4.4048
4.43512
4.59564
4.67188
4.65523
4.63218
4.43887
4.39205
4.34475
4.31855
4.30243
4.29026
4.2815
4.27489
4.26957
4.26523
4.26136
4.25789
4.25469
4.25168
4.24881
4.24607
4.24344
4.2409
4.23846
4.23611
4.23384
4.23166
4.22957
4.22756
4.22564
4.2238
4.22204
4.22036
4.21876
4.21724
4.21579
4.21441
4.21184
4.21229
4.21281
4.21338
4.21397
4.21462
4.21531
4.21604
4.21683
4.21767
4.21856
4.21951
4.22052
4.2216
4.22273
4.22393
4.2252
4.22653
4.22795
4.22946
4.23109
4.23286
4.23479
4.23687
4.23912
4.24154
4.24412
4.24685
4.24975
4.2528
4.25628
4.26012
4.26397
4.26787
4.27187
4.27605
4.28055
4.28553
4.29107
4.29927
4.30426
4.33068
4.31928
4.38829
4.37046
4.48312
4.49445
4.48389
4.4661
4.41192
4.37779
4.36343
4.3505
4.34493
4.34183
4.34082
4.3416
4.34408
4.34834
4.35658
4.36915
4.38951
4.4354
4.46541
4.61417
4.68122
4.67046
4.64614
4.46665
4.41979
4.36836
4.33971
4.32057
4.3056
4.29453
4.28593
4.27902
4.2732
4.26818
4.26372
4.25966
4.2559
4.25238
4.24906
4.24591
4.2429
4.24003
4.23728
4.23466
4.23215
4.22974
4.22745
4.22525
4.22316
4.22117
4.21927
4.21746
4.21573
4.21409
4.21253
4.20989
4.2104
4.21099
4.21162
4.2123
4.21302
4.2138
4.21462
4.21551
4.21645
4.21745
4.21852
4.21965
4.22084
4.22211
4.22344
4.22484
4.22632
4.22788
4.22954
4.23133
4.23328
4.23538
4.23767
4.24013
4.24276
4.24557
4.24856
4.25171
4.25503
4.25882
4.26302
4.26726
4.27159
4.27608
4.28083
4.28603
4.29193
4.29854
4.3082
4.31547
4.3388
4.3392
4.40031
4.38915
4.48664
4.49623
4.48661
4.47197
4.42392
4.39333
4.37879
4.36558
4.35966
4.35625
4.35518
4.35614
4.35917
4.36446
4.37419
4.38931
4.41024
4.45837
4.48638
4.62209
4.67866
4.67338
4.65044
4.48491
4.43997
4.3865
4.35693
4.33584
4.31888
4.30608
4.29593
4.28762
4.28064
4.2746
4.26925
4.26441
4.25997
4.25584
4.25197
4.24831
4.24485
4.24157
4.23844
4.23546
4.23262
4.22991
4.22733
4.22487
4.22252
4.22029
4.21817
4.21615
4.21423
4.2124
4.21065
4.20795
4.20851
4.20917
4.20987
4.21061
4.21141
4.21227
4.21319
4.21416
4.21521
4.21631
4.21749
4.21874
4.22005
4.22144
4.22291
4.22444
4.22606
4.22776
4.22957
4.23152
4.23363
4.23592
4.2384
4.24106
4.24392
4.24695
4.25018
4.25358
4.25717
4.26127
4.26583
4.27044
4.27518
4.28014
4.28544
4.29127
4.29798
4.30548
4.31615
4.32498
4.34734
4.35462
4.40229
4.40831
4.487
4.49427
4.48468
4.47336
4.43219
4.40552
4.39166
4.37887
4.3731
4.36963
4.36865
4.36979
4.37326
4.37928
4.38984
4.40654
4.42697
4.47531
4.50057
4.62305
4.66945
4.66901
4.64847
4.49582
4.45439
4.39993
4.37087
4.34852
4.33016
4.31613
4.30476
4.29536
4.28741
4.28051
4.27439
4.26886
4.2638
4.25911
4.25472
4.2506
4.24671
4.24303
4.23954
4.23621
4.23305
4.23005
4.22719
4.22446
4.22187
4.21941
4.21706
4.21483
4.21271
4.2107
4.20877
4.20601
4.20662
4.20734
4.2081
4.20892
4.2098
4.21073
4.21173
4.2128
4.21394
4.21515
4.21643
4.21779
4.21923
4.22074
4.22233
4.22399
4.22574
4.22759
4.22955
4.23165
4.23393
4.23639
4.23906
4.24193
4.245
4.24826
4.25172
4.25537
4.25921
4.26362
4.26851
4.2735
4.27863
4.28403
4.28982
4.29623
4.30362
4.31184
4.32327
4.33332
4.35507
4.36524
4.4067
4.41971
4.48481
4.48945
4.48075
4.47209
4.43765
4.415
4.40225
4.39066
4.38524
4.38193
4.38114
4.38247
4.38624
4.39277
4.40361
4.42115
4.44034
4.48754
4.50966
4.61945
4.65828
4.65834
4.64202
4.50094
4.46445
4.4092
4.38231
4.35887
4.3396
4.32469
4.31243
4.30219
4.29347
4.28585
4.27907
4.27294
4.26733
4.26213
4.25728
4.25273
4.24844
4.24438
4.24054
4.23689
4.23342
4.23013
4.227
4.22402
4.22119
4.21849
4.21594
4.2135
4.21119
4.20899
4.2069
4.20406
4.20473
4.20551
4.20633
4.20722
4.20816
4.20918
4.21026
4.21142
4.21265
4.21396
4.21535
4.21682
4.21837
4.22
4.22171
4.2235
4.22538
4.22737
4.22947
4.23173
4.23416
4.23681
4.23966
4.24273
4.246
4.24948
4.25317
4.25706
4.26116
4.26585
4.27108
4.27641
4.28192
4.28772
4.29396
4.30086
4.30882
4.31762
4.32958
4.34048
4.36154
4.37343
4.41125
4.42623
4.4813
4.48324
4.47549
4.46905
4.44107
4.42249
4.41099
4.40092
4.39611
4.39314
4.39265
4.39416
4.39813
4.40495
4.41561
4.43348
4.45087
4.49622
4.51485
4.61276
4.64493
4.64497
4.63291
4.50158
4.4713
4.41448
4.39251
4.36712
4.34729
4.33185
4.31897
4.30811
4.29879
4.29059
4.28327
4.27662
4.27053
4.26488
4.2596
4.25466
4.24999
4.24559
4.24142
4.23746
4.23371
4.23014
4.22675
4.22352
4.22046
4.21755
4.21478
4.21216
4.20966
4.20728
4.20501
4.20211
4.20283
4.20367
4.20456
4.2055
4.20652
4.20761
4.20878
4.21002
4.21134
4.21275
4.21424
4.21581
4.21747
4.21922
4.22105
4.22297
4.22498
4.22709
4.22934
4.23174
4.23434
4.23715
4.24019
4.24345
4.24693
4.25062
4.25453
4.25865
4.263
4.26797
4.27351
4.27916
4.28502
4.29119
4.29783
4.30515
4.31357
4.32283
4.33512
4.34658
4.36695
4.37991
4.41458
4.43117
4.47651
4.47674
4.46946
4.46482
4.44305
4.42818
4.41842
4.40987
4.40583
4.40332
4.40316
4.40487
4.40895
4.41587
4.42598
4.44389
4.45896
4.50231
4.51721
4.60405
4.62946
4.63127
4.62289
4.49789
4.47735
4.42167
4.39645
4.37277
4.35332
4.33771
4.32445
4.31318
4.3034
4.29474
4.28697
4.27989
4.27338
4.26733
4.26168
4.25637
4.25137
4.24664
4.24217
4.23792
4.23389
4.23007
4.22643
4.22298
4.21969
4.21657
4.2136
4.21079
4.20811
4.20556
4.20313
4.20016
4.20093
4.20182
4.20277
4.20378
4.20487
4.20603
4.20728
4.2086
4.21001
4.21151
4.2131
4.21478
4.21655
4.21841
4.22036
4.22239
4.22453
4.22677
4.22915
4.2317
4.23446
4.23744
4.24065
4.2441
4.24777
4.25167
4.2558
4.26015
4.26472
4.26997
4.2758
4.28176
4.28793
4.29443
4.30142
4.30909
4.31788
4.32748
4.33995
4.35175
4.37143
4.38489
4.41656
4.43347
4.47256
4.47097
4.46325
4.46003
4.44408
4.4326
4.42476
4.41772
4.41453
4.41255
4.41275
4.41461
4.41871
4.42553
4.43503
4.45255
4.46505
4.50664
4.51757
4.59443
4.61337
4.61759
4.61521
4.49917
4.47224
4.42539
4.40007
4.37715
4.35808
4.34245
4.329
4.31745
4.30734
4.29833
4.2902
4.28276
4.27588
4.26949
4.2635
4.25787
4.25256
4.24754
4.24278
4.23827
4.23398
4.22991
4.22604
4.22237
4.21887
4.21555
4.21239
4.20939
4.20654
4.20383
4.20124
4.19821
4.19903
4.19997
4.20098
4.20205
4.2032
4.20444
4.20576
4.20716
4.20866
4.21025
4.21193
4.21371
4.21559
4.21756
4.21962
4.22177
4.22403
4.2264
4.22891
4.2316
4.23451
4.23765
4.24104
4.24467
4.24853
4.25263
4.25696
4.26153
4.26633
4.27183
4.27794
4.28418
4.29064
4.29744
4.30473
4.31269
4.32176
4.3316
4.34414
4.35614
4.37509
4.38875
4.41772
4.43537
4.46735
4.46591
4.45739
4.45546
4.44464
4.43615
4.43019
4.42465
4.42232
4.42091
4.42144
4.42346
4.42749
4.43414
4.44294
4.45943
4.46983
4.50974
4.51655
4.58491
4.59762
4.60322
4.59791
4.50532
4.47053
4.42738
4.40275
4.38052
4.36184
4.34627
4.33276
4.32105
4.3107
4.30142
4.29299
4.28525
4.27807
4.27137
4.26508
4.25916
4.25357
4.24828
4.24326
4.2385
4.23397
4.22967
4.22558
4.2217
4.218
4.21449
4.21115
4.20798
4.20496
4.20209
4.19935
4.19625
4.19712
4.19812
4.19918
4.20031
4.20153
4.20283
4.20422
4.20571
4.20728
4.20896
4.21074
4.21261
4.21459
4.21667
4.21884
4.22111
4.22348
4.22598
4.22862
4.23145
4.2345
4.2378
4.24135
4.24516
4.24921
4.2535
4.25803
4.2628
4.26782
4.27356
4.27994
4.28644
4.29316
4.30022
4.30776
4.31596
4.32525
4.33526
4.34778
4.35984
4.37804
4.39173
4.41816
4.43561
4.46253
4.46162
4.45246
4.45185
4.44511
4.43913
4.43493
4.43081
4.42934
4.4285
4.42935
4.43148
4.43539
4.44177
4.44985
4.46498
4.47383
4.51165
4.51497
4.57612
4.58341
4.58993
4.58486
4.50491
4.46908
4.42856
4.40464
4.38306
4.36478
4.34935
4.33585
4.32405
4.31355
4.30406
4.2954
4.2874
4.27995
4.27299
4.26644
4.26026
4.25441
4.24887
4.24361
4.23861
4.23386
4.22935
4.22505
4.22097
4.21708
4.21339
4.20987
4.20653
4.20336
4.20034
4.19745
4.19429
4.1952
4.19625
4.19736
4.19856
4.19984
4.20121
4.20267
4.20423
4.20589
4.20765
4.20952
4.21149
4.21356
4.21574
4.21802
4.2204
4.22289
4.2255
4.22827
4.23123
4.23442
4.23787
4.24159
4.24557
4.2498
4.25427
4.25899
4.26396
4.26919
4.27516
4.28178
4.28853
4.29548
4.30277
4.31054
4.31893
4.32837
4.33848
4.35092
4.36296
4.38042
4.39402
4.41817
4.435
4.45796
4.45767
4.44915
4.44964
4.44574
4.44178
4.43916
4.43634
4.43569
4.43541
4.43657
4.43877
4.44253
4.44855
4.45593
4.4697
4.47921
4.50859
4.51548
4.56813
4.57142
4.57795
4.57416
4.50207
4.46703
4.42897
4.40586
4.38492
4.36706
4.35183
4.3384
4.32657
4.31596
4.30632
4.29746
4.28925
4.28158
4.27438
4.2676
4.26118
4.2551
4.24932
4.24384
4.23862
4.23366
4.22894
4.22445
4.22018
4.21611
4.21224
4.20857
4.20507
4.20175
4.19858
4.19556
4.19232
4.19328
4.19437
4.19554
4.19679
4.19813
4.19956
4.2011
4.20273
4.20447
4.20632
4.20827
4.21033
4.2125
4.21478
4.21717
4.21965
4.22225
4.22498
4.22786
4.23095
4.23428
4.23788
4.24175
4.2459
4.2503
4.25495
4.25986
4.26501
4.27043
4.27662
4.28347
4.29044
4.29762
4.30511
4.31306
4.32161
4.33116
4.34133
4.35364
4.3656
4.38232
4.39579
4.41798
4.4342
4.45364
4.45428
4.44719
4.44877
4.44661
4.44425
4.443
4.44136
4.44148
4.44174
4.44318
4.44545
4.44903
4.45466
4.46142
4.47384
4.48274
4.50677
4.51581
4.56124
4.56172
4.56694
4.56428
4.49916
4.46487
4.42884
4.40657
4.38627
4.36885
4.35383
4.34051
4.32869
4.31801
4.30825
4.29925
4.29086
4.28299
4.27558
4.26858
4.26195
4.25565
4.24966
4.24397
4.23855
4.23338
4.22847
4.22379
4.21934
4.2151
4.21106
4.20723
4.20358
4.20011
4.19681
4.19365
4.19034
4.19134
4.19249
4.19371
4.19501
4.19641
4.19791
4.19951
4.20122
4.20303
4.20496
4.20699
4.20915
4.21141
4.21379
4.21627
4.21886
4.22156
4.2244
4.2274
4.23061
4.23408
4.23781
4.24184
4.24614
4.25071
4.25554
4.26062
4.26595
4.27155
4.27794
4.28502
4.2922
4.29957
4.30723
4.31535
4.32402
4.33364
4.34384
4.35599
4.36784
4.38387
4.39718
4.4177
4.43346
4.44979
4.4515
4.44625
4.44883
4.44767
4.44661
4.44655
4.44599
4.44683
4.44759
4.44929
4.45161
4.455
4.46023
4.46634
4.47742
4.48547
4.50644
4.51463
4.5568
4.55443
4.55768
4.55469
4.49636
4.46268
4.42839
4.40694
4.38726
4.37026
4.35548
4.34229
4.3305
4.31979
4.30995
4.30081
4.29227
4.28423
4.27663
4.26943
4.2626
4.25609
4.2499
4.24401
4.23839
4.23304
4.22794
4.22308
4.21845
4.21405
4.20986
4.20587
4.20208
4.19848
4.19505
4.19176
4.18836
4.1894
4.19059
4.19186
4.19322
4.19468
4.19624
4.1979
4.19968
4.20157
4.20357
4.20569
4.20793
4.21029
4.21275
4.21533
4.21802
4.22083
4.22377
4.22689
4.23022
4.2338
4.23768
4.24185
4.24631
4.25104
4.25603
4.26127
4.26677
4.27255
4.27913
4.28641
4.29379
4.30134
4.30917
4.31742
4.3262
4.33587
4.34606
4.35804
4.36977
4.38515
4.3983
4.41738
4.43282
4.44663
4.44929
4.4458
4.44925
4.44879
4.44889
4.44988
4.4503
4.45182
4.45306
4.45499
4.45734
4.46054
4.46535
4.47086
4.48074
4.48809
4.50673
4.51667
4.55115
4.54897
4.54935
4.54631
4.49365
4.46046
4.42779
4.40713
4.38803
4.37144
4.3569
4.34385
4.33211
4.32137
4.31146
4.30221
4.29353
4.28533
4.27756
4.27018
4.26315
4.25645
4.25007
4.24398
4.23817
4.23263
4.22735
4.22232
4.21752
4.21296
4.20861
4.20447
4.20053
4.1968
4.19324
4.18985
4.18637
4.18745
4.18869
4.19001
4.19141
4.19293
4.19455
4.19628
4.19812
4.20008
4.20216
4.20436
4.20669
4.20913
4.21169
4.21436
4.21714
4.22005
4.22309
4.22631
4.22976
4.23347
4.23747
4.24178
4.24639
4.25128
4.25643
4.26183
4.2675
4.27343
4.2802
4.28767
4.29523
4.30294
4.31092
4.3193
4.32817
4.33786
4.34804
4.35985
4.37145
4.38624
4.39925
4.41709
4.43231
4.44415
4.44748
4.44538
4.44953
4.44981
4.45108
4.45304
4.45438
4.45652
4.45822
4.46036
4.46273
4.46576
4.47018
4.47512
4.48394
4.49064
4.50713
4.51772
4.54861
4.54548
4.54214
4.53865
4.49105
4.4584
4.4272
4.40726
4.38871
4.3725
4.35819
4.34528
4.33359
4.32284
4.31286
4.30352
4.29471
4.28636
4.27842
4.27086
4.26364
4.25676
4.25019
4.24391
4.23792
4.2322
4.22674
4.22154
4.21658
4.21185
4.20735
4.20307
4.199
4.19513
4.19145
4.18793
4.18438
4.18549
4.18678
4.18814
4.1896
4.19117
4.19285
4.19464
4.19655
4.19858
4.20073
4.20301
4.20541
4.20794
4.21058
4.21334
4.21622
4.21922
4.22236
4.22569
4.22924
4.23307
4.2372
4.24164
4.24639
4.25143
4.25673
4.26229
4.26811
4.27421
4.28114
4.2888
4.29652
4.3044
4.31251
4.321
4.32994
4.33966
4.34983
4.36146
4.37295
4.3872
4.40008
4.41686
4.43187
4.4422
4.44591
4.44465
4.44934
4.4506
4.45317
4.45608
4.4583
4.46104
4.46314
4.46547
4.46787
4.47076
4.47483
4.47926
4.48713
4.49322
4.508
4.51869
4.54791
4.54336
4.53604
4.53157
4.48881
4.45669
4.42677
4.4075
4.38944
4.37358
4.35948
4.34669
4.33504
4.32427
4.31423
4.30478
4.29584
4.28734
4.27924
4.2715
4.26411
4.25704
4.25028
4.24382
4.23765
4.23175
4.22612
4.22075
4.21563
4.21076
4.20612
4.2017
4.1975
4.19351
4.18971
4.18603
4.18238
4.18353
4.18486
4.18627
4.18778
4.1894
4.19113
4.19298
4.19496
4.19705
4.19928
4.20163
4.20411
4.20672
4.20944
4.21229
4.21526
4.21835
4.22159
4.22501
4.22867
4.23261
4.23686
4.24143
4.24631
4.25149
4.25694
4.26265
4.26862
4.27487
4.28197
4.2898
4.29768
4.30571
4.31395
4.32255
4.33156
4.3413
4.35145
4.36294
4.37431
4.38808
4.40083
4.41667
4.4314
4.44057
4.44446
4.44353
4.44859
4.45112
4.45516
4.45903
4.46206
4.46546
4.46789
4.47039
4.47284
4.47561
4.47939
4.4834
4.49042
4.49596
4.50947
4.52003
4.54786
4.54196
4.53095
4.52535
4.48719
4.4555
4.42667
4.40798
4.39036
4.37479
4.36086
4.34816
4.33654
4.32574
4.31562
4.30607
4.29699
4.28834
4.28007
4.27216
4.26458
4.25733
4.25038
4.24373
4.23738
4.2313
4.2255
4.21996
4.21468
4.20965
4.20486
4.20029
4.19595
4.19182
4.18789
4.1841
4.18038
4.18156
4.18293
4.18439
4.18594
4.18761
4.1894
4.19131
4.19334
4.19551
4.1978
4.20022
4.20278
4.20546
4.20827
4.2112
4.21425
4.21743
4.22076
4.22428
4.22804
4.23208
4.23645
4.24114
4.24616
4.25147
4.25706
4.26292
4.26903
4.27542
4.28269
4.29068
4.29872
4.30688
4.31525
4.32395
4.33305
4.34281
4.35296
4.36431
4.37559
4.38892
4.40151
4.41646
4.43079
4.43914
4.44303
4.44212
4.44743
4.45144
4.45706
4.46195
4.46589
4.46966
4.47249
4.47518
4.4777
4.4804
4.48395
4.48763
4.49394
4.49895
4.51141
4.52151
4.54776
4.54074
4.52683
4.52038
4.48638
4.45495
4.42706
4.40886
4.39157
4.37622
4.36243
4.34979
4.33816
4.32731
4.3171
4.30743
4.29821
4.28939
4.28095
4.27285
4.26509
4.25764
4.25051
4.24367
4.23713
4.23087
4.22489
4.21918
4.21373
4.20854
4.20359
4.19888
4.1944
4.19015
4.18609
4.1822
4.17837
4.17959
4.181
4.1825
4.1841
4.18582
4.18766
4.18962
4.19172
4.19394
4.1963
4.19879
4.20142
4.20418
4.20706
4.21007
4.2132
4.21646
4.21988
4.22349
4.22735
4.2315
4.23598
4.24079
4.24592
4.25137
4.25709
4.26309
4.26935
4.27588
4.28329
4.29145
4.29964
4.30794
4.31643
4.32524
4.33441
4.34422
4.35437
4.3656
4.37681
4.38974
4.40215
4.41622
4.43001
4.43779
4.44167
4.44067
4.44612
4.4517
4.45891
4.46484
4.46963
4.47384
4.47703
4.4799
4.48251
4.48519
4.48859
4.49202
4.49774
4.50225
4.51367
4.52282
4.54691
4.53918
4.5237
4.51695
4.48649
4.45518
4.42806
4.41023
4.39319
4.37799
4.36426
4.35164
4.33997
4.32904
4.31872
4.3089
4.29953
4.29054
4.28191
4.27362
4.26567
4.25802
4.25069
4.24366
4.23693
4.23049
4.22432
4.21844
4.21282
4.20747
4.20237
4.19751
4.19289
4.18851
4.18432
4.18031
4.17636
4.17762
4.17907
4.18061
4.18225
4.18402
4.1859
4.18792
4.19007
4.19235
4.19478
4.19734
4.20003
4.20286
4.20582
4.2089
4.21211
4.21545
4.21895
4.22265
4.2266
4.23085
4.23544
4.24036
4.24562
4.25119
4.25704
4.26317
4.26957
4.27624
4.2838
4.29211
4.30045
4.30889
4.31751
4.32642
4.33569
4.34553
4.35572
4.36686
4.378
4.39057
4.40275
4.41596
4.4291
4.43651
4.44046
4.43943
4.44497
4.45203
4.46078
4.46778
4.47335
4.47801
4.48153
4.48459
4.48732
4.49004
4.49336
4.49661
4.50184
4.50584
4.51613
4.52371
4.54469
4.53688
4.52149
4.51518
4.48753
4.45626
4.42977
4.41218
4.39527
4.38014
4.36643
4.35378
4.34203
4.33098
4.32052
4.31055
4.30099
4.29182
4.28299
4.2745
4.26634
4.25849
4.25096
4.24373
4.2368
4.23016
4.22382
4.21775
4.21196
4.20644
4.20118
4.19617
4.19141
4.18688
4.18256
4.17841
4.17434
4.17564
4.17713
4.1787
4.18039
4.1822
4.18413
4.1862
4.18841
4.19075
4.19323
4.19585
4.19862
4.20151
4.20454
4.2077
4.21098
4.2144
4.21798
4.22176
4.2258
4.23015
4.23484
4.23987
4.24525
4.25093
4.25692
4.26317
4.2697
4.2765
4.28421
4.29267
4.30116
4.30974
4.31849
4.32752
4.33688
4.34678
4.357
4.36808
4.37918
4.39143
4.40335
4.41572
4.42818
4.43541
4.43953
4.43865
4.44426
4.45261
4.46275
4.47081
4.47709
4.48217
4.48602
4.48928
4.49216
4.49497
4.49828
4.50142
4.50624
4.50969
4.51859
4.52399
4.54089
4.53365
4.52002
4.51492
4.48936
4.45818
4.43223
4.41476
4.39788
4.38274
4.36898
4.35624
4.34436
4.33317
4.32255
4.31239
4.30264
4.29326
4.28422
4.27552
4.26714
4.25908
4.25133
4.24389
4.23675
4.22992
4.22338
4.21713
4.21116
4.20546
4.20003
4.19486
4.18994
4.18526
4.1808
4.17651
4.17232
4.17366
4.17518
4.17679
4.17851
4.18037
4.18235
4.18447
4.18672
4.18912
4.19166
4.19434
4.19717
4.20013
4.20323
4.20646
4.20981
4.2133
4.21695
4.22082
4.22495
4.22939
4.23418
4.23932
4.2448
4.25061
4.25671
4.26309
4.26974
4.27668
4.28453
4.29314
4.30178
4.3105
4.31938
4.32853
4.338
4.34797
4.35826
4.36929
4.38037
4.39233
4.40399
4.41562
4.42742
4.43463
4.43901
4.4385
4.4442
4.45357
4.46492
4.4739
4.48086
4.48636
4.49053
4.49401
4.49708
4.50002
4.50338
4.50646
4.51089
4.51372
4.52092
4.52362
4.53594
4.52941
4.519
4.51574
4.4917
4.46085
4.4354
4.41797
4.40104
4.38582
4.37194
4.35906
4.34702
4.33565
4.32482
4.31446
4.30449
4.29489
4.28563
4.2767
4.26809
4.2598
4.25183
4.24417
4.23682
4.22977
4.22303
4.21658
4.21042
4.20454
4.19893
4.19359
4.1885
4.18366
4.17905
4.17462
4.17029
4.17166
4.17322
4.17487
4.17663
4.17852
4.18055
4.18272
4.18502
4.18747
4.19007
4.19281
4.1957
4.19872
4.20188
4.20518
4.20859
4.21215
4.21588
4.21983
4.22404
4.22857
4.23346
4.2387
4.2443
4.25022
4.25643
4.26293
4.26971
4.27677
4.28476
4.29353
4.30231
4.31118
4.3202
4.32948
4.33906
4.34912
4.35948
4.3705
4.38157
4.39331
4.40473
4.41576
4.42701
4.4343
4.43902
4.43905
4.44488
4.45502
4.46729
4.47709
4.48468
4.49058
4.49507
4.4988
4.50208
4.5052
4.50864
4.51169
4.51575
4.51787
4.52303
4.52267
4.52982
4.52505
4.51826
4.51703
4.4942
4.46406
4.43921
4.4218
4.40474
4.38937
4.37533
4.36226
4.35001
4.33842
4.32737
4.31678
4.30657
4.29673
4.28723
4.27806
4.26921
4.26068
4.25247
4.24458
4.237
4.22974
4.22277
4.21611
4.20975
4.20367
4.19788
4.19236
4.1871
4.18211
4.17734
4.17276
4.16826
4.16966
4.17125
4.17293
4.17474
4.17667
4.17874
4.18095
4.1833
4.1858
4.18845
4.19125
4.19419
4.19728
4.2005
4.20386
4.20734
4.21097
4.21477
4.21879
4.22308
4.2277
4.23268
4.23803
4.24373
4.24976
4.25609
4.26271
4.2696
4.27679
4.28492
4.29384
4.30277
4.31178
4.32095
4.33036
4.34007
4.35022
4.36067
4.37171
4.38281
4.39438
4.40562
4.41624
4.42708
4.43454
4.43959
4.4403
4.44631
4.45699
4.4699
4.48041
4.48856
4.49486
4.49968
4.50367
4.5072
4.51052
4.51408
4.51712
4.52078
4.5221
4.525
4.52141
4.52372
4.52038
4.51762
4.51817
4.49647
4.46752
4.44353
4.42619
4.40897
4.39341
4.37915
4.36585
4.35336
4.34153
4.33022
4.31937
4.30891
4.29881
4.28905
4.27962
4.27052
4.26174
4.25328
4.24515
4.23733
4.22982
4.22263
4.21575
4.20916
4.20287
4.19686
4.19114
4.18568
4.1805
4.17558
4.1709
4.16622
4.16766
4.16928
4.17099
4.17283
4.1748
4.17691
4.17916
4.18156
4.18411
4.18681
4.18966
4.19266
4.19581
4.19909
4.2025
4.20605
4.20974
4.21361
4.2177
4.22207
4.22678
4.23185
4.23729
4.2431
4.24923
4.25568
4.26241
4.26942
4.27673
4.285
4.29407
4.30316
4.31232
4.32163
4.33119
4.34103
4.35129
4.36185
4.37293
4.38407
4.39555
4.4067
4.41712
4.42772
4.43537
4.44073
4.44218
4.4484
4.45944
4.4728
4.48387
4.49253
4.49921
4.50437
4.50864
4.51244
4.51599
4.5197
4.52272
4.52597
4.52644
4.52697
4.52024
4.51815
4.51604
4.51698
4.51872
4.49824
4.47097
4.44818
4.43104
4.41368
4.39791
4.38342
4.36985
4.35708
4.34497
4.33338
4.32224
4.31151
4.30113
4.2911
4.2814
4.27203
4.26299
4.25427
4.24588
4.23781
4.23006
4.22262
4.2155
4.20869
4.20218
4.19596
4.19003
4.18437
4.17897
4.17382
4.16887
4.16417
4.16564
4.16729
4.16904
4.17091
4.17292
4.17507
4.17736
4.1798
4.1824
4.18515
4.18805
4.1911
4.1943
4.19764
4.20111
4.20472
4.20847
4.21241
4.21657
4.22101
4.2258
4.23096
4.2365
4.24241
4.24865
4.2552
4.26205
4.26918
4.27661
4.28502
4.29424
4.30348
4.3128
4.32226
4.33196
4.34194
4.35233
4.363
4.37415
4.38538
4.39685
4.408
4.41841
4.42892
4.43679
4.44241
4.44458
4.45104
4.46232
4.47596
4.4875
4.49661
4.50366
4.50917
4.51375
4.51784
4.52165
4.5255
4.52851
4.53134
4.53094
4.52918
4.51961
4.5138
4.51262
4.51637
4.51856
4.49942
4.47423
4.45304
4.43626
4.41882
4.40287
4.38811
4.37425
4.36119
4.34876
4.33687
4.32543
4.31439
4.30372
4.2934
4.28341
4.27376
4.26443
4.25544
4.24678
4.23844
4.23043
4.22275
4.21539
4.20834
4.2016
4.19517
4.18903
4.18318
4.1776
4.17227
4.16713
4.16212
4.16362
4.1653
4.16708
4.16898
4.17103
4.17321
4.17554
4.17803
4.18066
4.18346
4.18641
4.18951
4.19277
4.19616
4.19969
4.20335
4.20716
4.21116
4.21539
4.21991
4.22478
4.23003
4.23566
4.24167
4.24801
4.25467
4.26163
4.26888
4.27643
4.28498
4.29435
4.30374
4.31321
4.32283
4.33268
4.34282
4.35333
4.36414
4.37538
4.38672
4.39825
4.40951
4.42008
4.43063
4.43871
4.44454
4.4474
4.45412
4.46557
4.47938
4.4913
4.50082
4.50823
4.5141
4.51901
4.52342
4.5275
4.5315
4.53452
4.53694
4.53572
4.53189
4.51997
4.51127
4.51054
4.51603
4.51792
4.50018
4.47729
4.45802
4.44179
4.42437
4.40825
4.39324
4.37907
4.36569
4.35293
4.34071
4.32894
4.31758
4.30659
4.29596
4.28567
4.27571
4.26609
4.2568
4.24785
4.23924
4.23095
4.223
4.21537
4.20807
4.20108
4.19439
4.18801
4.18191
4.1761
4.17056
4.16526
4.16006
4.16159
4.1633
4.16511
4.16704
4.16912
4.17134
4.17371
4.17623
4.17891
4.18175
4.18475
4.1879
4.1912
4.19464
4.19823
4.20194
4.20581
4.20987
4.21416
4.21876
4.2237
4.22904
4.23476
4.24087
4.24732
4.25408
4.26115
4.26851
4.27618
4.28487
4.2944
4.30395
4.31358
4.32335
4.33336
4.34365
4.35431
4.36526
4.37661
4.3881
4.39976
4.41122
4.42208
4.43276
4.44105
4.44704
4.45053
4.45752
4.46912
4.48303
4.49528
4.50517
4.51296
4.5192
4.52447
4.52922
4.53357
4.53775
4.54079
4.54284
4.54091
4.53534
4.52167
4.51089
4.51023
4.51634
4.5173
4.50092
4.48033
4.46314
4.4476
4.43031
4.41407
4.3988
4.38433
4.3706
4.3575
4.34492
4.3328
4.3211
4.30977
4.2988
4.28817
4.27789
4.26796
4.25836
4.24911
4.2402
4.23162
4.22338
4.21548
4.2079
4.20064
4.19369
4.18706
4.18072
4.17468
4.16893
4.16341
4.158
4.15956
4.16129
4.16313
4.16509
4.1672
4.16945
4.17186
4.17442
4.17714
4.18002
4.18306
4.18626
4.1896
4.1931
4.19673
4.2005
4.20443