/*--------------------------------*- C++ -*----------------------------------*\
  =========                 |
  \\      /  F ield         | OpenFOAM: The Open Source CFD Toolbox
   \\    /   O peration     | Website:  https://openfoam.org
    \\  /    A nd           | Version:  9
     \\/     M anipulation  |
\*---------------------------------------------------------------------------*/
FoamFile
{
    format      ascii;
    class       volScalarField;
    location    "0.2";
    object      p_rgh;
}
// * * * * * * * * * * * * * * * * * * * * * * * * * * * * * * * * * * * * * //

dimensions      [1 -1 -2 0 0 0 0];

internalField   nonuniform List<scalar> 
20000
(
0.000717384
0.00122546
0.00119631
0.000765095
-1.72241e-05
-0.00104884
-0.00221897
-0.00343213
-0.00461138
-0.00569365
-0.00662436
-0.00735337
-0.00783319
-0.00802137
-0.00788745
-0.00742617
-0.00667569
-0.00573728
-0.00478945
-0.00407932
-0.00384706
-0.00416123
-0.00481918
-0.00544531
-0.00569063
-0.00538564
-0.0045428
-0.00332307
-0.00197781
-0.000788552
5.43258e-05
0.0002177
-0.000172485
-0.000552727
-0.000219436
0.00121391
0.00332639
0.00496695
0.00467846
0.000573263
-0.0100047
-0.0321854
-0.0771485
-0.172497
-0.415236
-0.865294
-3.01842
-1.10713
-0.447848
-0.267336
-0.123083
-0.0553313
-0.025932
-0.0193892
-0.0283817
-0.0400816
-0.0325492
-0.00976877
-1.52108e-05
-0.0177903
-0.0700161
-0.174159
-0.372725
-0.757566
-1.66423
-2.95866
-2.8721
-1.49063
-0.812049
-0.434649
-0.25073
-0.152153
-0.0929472
-0.0565094
-0.0341333
-0.0206157
-0.012568
-0.00774748
-0.00474667
-0.00274708
-0.00132979
-0.00028449
0.000494434
0.00106502
0.00146581
0.00172568
0.00186881
0.00191662
0.00188768
0.00179848
0.00166352
0.00149559
0.00130596
0.00110434
0.000898736
0.000697263
0.000505786
0.000329301
0.000173114
4.50573e-05
0.000966747
0.00191066
0.00230765
0.00234544
0.00206585
0.0015253
0.000796504
-5.1058e-05
-0.000957484
-0.00187134
-0.0027473
-0.00354334
-0.00421659
-0.00472021
-0.00499674
-0.00497982
-0.00460886
-0.00386985
-0.00285328
-0.00178568
-0.000970981
-0.000622101
-0.000730864
-0.00106954
-0.00136064
-0.00139272
-0.00107061
-0.000413815
0.000475678
0.00145489
0.00246613
0.00332875
0.00405572
0.00501562
0.00648655
0.0084293
0.0102589
0.0108754
0.00880636
0.00195557
-0.0129717
-0.0426345
-0.100252
-0.206413
-0.468789
-0.772839
-1.90848
-0.84776
-0.509294
-0.298174
-0.153012
-0.0795556
-0.0416743
-0.0265991
-0.0234941
-0.0221915
-0.012476
0.000786556
8.12507e-05
-0.0242696
-0.0807839
-0.187731
-0.38489
-0.716719
-1.4715
-2.22829
-2.00209
-1.27113
-0.726601
-0.441134
-0.273751
-0.175449
-0.114656
-0.0753066
-0.0495198
-0.0324553
-0.0209811
-0.0131183
-0.00762221
-0.00374297
-0.00100067
0.000921135
0.002242
0.00311532
0.00365703
0.00394654
0.00404366
0.00399378
0.00383209
0.00358658
0.00328012
0.00293178
0.00255778
0.0021718
0.00178277
0.00140361
0.00104142
0.000702277
0.000391738
0.000115993
0.000265001
0.000589894
0.00073703
0.000756893
0.000666526
0.00046173
0.000156653
-0.000224387
-0.000653612
-0.00110091
-0.00153408
-0.00191923
-0.00222071
-0.00240158
-0.00242525
-0.00226012
-0.00188899
-0.00132345
-0.000617898
0.00012498
0.000773343
0.00123032
0.00149458
0.00166357
0.00187561
0.00225197
0.00285885
0.00369747
0.00471347
0.0058188
0.00701359
0.00819339
0.00927062
0.0104336
0.0117962
0.0132398
0.014247
0.0138257
0.0105142
0.00245866
-0.0136076
-0.0435859
-0.0990485
-0.176511
-0.394263
-0.418569
-1.13209
-0.588949
-0.420392
-0.227579
-0.126256
-0.0681543
-0.0328597
-0.0164826
-0.0101852
-0.00739711
-0.00161089
0.00487735
-0.000843927
-0.0259599
-0.0783721
-0.171121
-0.333859
-0.549377
-0.970439
-1.4746
-1.29805
-0.832008
-0.506373
-0.355155
-0.230376
-0.152336
-0.102156
-0.0678685
-0.0446322
-0.0288565
-0.0180416
-0.0105508
-0.00531639
-0.00163823
0.000933832
0.00270186
0.00387466
0.00461082
0.00501727
0.00517624
0.00514902
0.0049819
0.00471097
0.00436493
0.00396689
0.00353554
0.0030861
0.0026315
0.00218412
0.00174635
0.00132342
0.000919158
0.000535272
0.000171938
5.21943e-05
0.000144769
0.000191393
0.000196746
0.000168671
9.84243e-05
-1.20846e-05
-0.000152447
-0.000308882
-0.000463839
-0.000596421
-0.000683187
-0.000699139
-0.000619701
-0.000424285
-0.000101421
0.00034532
0.000893311
0.00150321
0.00212627
0.00271423
0.00324071
0.00372278
0.00421768
0.00479932
0.0055314
0.00644642
0.00753881
0.00876726
0.0100697
0.0114899
0.0129151
0.0142188
0.0155022
0.0167989
0.0179796
0.0186013
0.0178097
0.0143802
0.00666404
-0.00766293
-0.0321522
-0.0782638
-0.111739
-0.287133
-0.166605
-0.589518
-0.318844
-0.250761
-0.130454
-0.082074
-0.0421456
-0.0150761
-0.00175149
0.00428538
0.00664828
0.00981909
0.0132369
0.00638381
-0.0153449
-0.0576572
-0.125137
-0.239606
-0.355148
-0.501141
-0.770323
-0.737908
-0.412618
-0.305451
-0.246155
-0.163444
-0.112493
-0.0770443
-0.0510325
-0.0328192
-0.0201482
-0.0113221
-0.00516963
-0.000878968
0.00210376
0.00414675
0.00550009
0.00634027
0.00679646
0.00696218
0.0069098
0.00669396
0.00635689
0.00593194
0.00544576
0.00491985
0.00437124
0.0038132
0.00325562
0.00270622
0.00216994
0.00165102
0.00115195
0.000674671
0.000219366
3.93141e-05
0.000130616
0.000222952
0.0003023
0.00037207
0.000428015
0.000471656
0.00050881
0.000547364
0.000597898
0.000673323
0.000788498
0.000959063
0.00120038
0.00152522
0.00194096
0.00244675
0.0030315
0.00367565
0.00435632
0.00505223
0.00575311
0.00647081
0.00723838
0.00809976
0.00909433
0.0102431
0.0115435
0.0129679
0.0144747
0.0161506
0.0178779
0.0194967
0.0210495
0.0225195
0.0237679
0.0244272
0.0238182
0.0210679
0.0147986
0.00367661
-0.0125206
-0.0497586
-0.0449216
-0.185008
-0.0145831
-0.228942
-0.104532
-0.0914863
-0.0454262
-0.0358936
-0.0108655
0.00647725
0.0155867
0.0206579
0.0228859
0.0249764
0.026003
0.019906
0.00320274
-0.0275447
-0.0693087
-0.138741
-0.194013
-0.168961
-0.263734
-0.297904
-0.105719
-0.159868
-0.143742
-0.0970299
-0.070275
-0.0483057
-0.0308767
-0.0182194
-0.00910163
-0.00260213
0.00196801
0.00513436
0.00727661
0.00866215
0.00948191
0.00987763
0.0099515
0.00978301
0.00943368
0.00895064
0.00837085
0.00772365
0.0070325
0.00631614
0.00558921
0.00486281
0.00414516
0.00344238
0.00275954
0.00209992
0.00146549
0.000858562
0.000278931
5.87904e-05
0.000201715
0.000364844
0.000530071
0.000701556
0.00087892
0.0010632
0.00125748
0.0014658
0.00169368
0.00194843
0.00223847
0.00257316
0.00296188
0.00341292
0.00393235
0.00452316
0.00518466
0.00591342
0.00670509
0.00755467
0.00845866
0.00942121
0.0104563
0.0115863
0.0128342
0.0142152
0.0157313
0.0173679
0.0190986
0.0210508
0.0231195
0.0250996
0.0269944
0.0287617
0.0302747
0.0312589
0.0312321
0.0296624
0.0254966
0.0178142
0.0107754
-0.0195692
0.0125084
-0.0935343
0.0889052
-0.00660439
0.0365438
0.0251388
0.0215189
0.00848604
0.0216008
0.0299968
0.0351238
0.0388216
0.0406186
0.0419084
0.0417833
0.0370085
0.0256023
0.00534362
-0.0156707
-0.0483684
-0.0689888
0.0456662
0.0552807
0.00579081
0.0992475
-0.0475625
-0.0536754
-0.0378182
-0.0294171
-0.0184565
-0.00892002
-0.00164148
0.00385101
0.0078429
0.0106254
0.0124743
0.0136061
0.0141873
0.0143478
0.0141872
0.0137829
0.0131966
0.0124768
0.0116616
0.0107811
0.00985946
0.0089158
0.0079653
0.00701981
0.00608831
0.0051775
0.00429235
0.00343671
0.00261299
0.00182253
0.0010672
0.000346006
7.9914e-05
0.000280273
0.000512791
0.000756454
0.00101706
0.00129674
0.00159613
0.00191731
0.00226292
0.00263646
0.00304242
0.00348615
0.00397366
0.00451103
0.00510371
0.005756
0.00647096
0.00725082
0.00809853
0.00901927
0.0100191
0.011103
0.0122764
0.0135467
0.0149245
0.0164214
0.0180457
0.019799
0.0216729
0.02365
0.0258924
0.028306
0.0306459
0.0329018
0.0350319
0.0369451
0.0384666
0.0392855
0.0391581
0.0375675
0.0327883
0.0349494
0.0102544
0.0603036
-0.0155132
0.162283
0.125955
0.130161
0.10789
0.0754094
0.0493998
0.0528048
0.0538306
0.055521
0.0575171
0.0585398
0.0593159
0.0591565
0.0562338
0.050026
0.0389077
0.033395
0.0293007
0.0318544
0.187522
0.247982
0.2031
0.237281
0.0468891
0.0234309
0.0142836
0.00928333
0.01116
0.0137169
0.0160549
0.0180281
0.0194483
0.0203161
0.0207075
0.0206981
0.0203623
0.0197678
0.0189721
0.0180239
0.0169641
0.0158261
0.0146374
0.0134201
0.0121919
0.010967
0.00975654
0.00856933
0.00741201
0.00628952
0.00520542
0.00416221
0.00316144
0.00220366
0.00128957
0.000417175
9.47896e-05
0.000345504
0.000645948
0.000967141
0.00131388
0.00168827
0.00209034
0.00252191
0.00298553
0.00348437
0.00402208
0.00460277
0.00523085
0.00591063
0.00664588
0.00743946
0.0082935
0.00921046
0.0101951
0.0112567
0.0124071
0.0136581
0.0150193
0.0164983
0.0181017
0.0198354
0.0217024
0.0237021
0.0258275
0.0280655
0.0306094
0.0333679
0.0360693
0.0387067
0.0412561
0.0436737
0.0458812
0.0477165
0.0491971
0.0505198
0.0476239
0.0587641
0.0385856
0.100232
0.0473026
0.211206
0.203786
0.194768
0.168842
0.119794
0.086054
0.0818057
0.0770649
0.0759272
0.0761904
0.0764187
0.0769998
0.0773885
0.0765938
0.0752253
0.0721024
0.0779399
0.0951172
0.113488
0.283165
0.362671
0.328011
0.329446
0.124075
0.0875722
0.0599881
0.0451651
0.0394659
0.036024
0.0339831
0.0326938
0.0316324
0.0305967
0.0295016
0.028302
0.026996
0.0255959
0.0241192
0.0225859
0.0210158
0.0194271
0.0178359
0.0162555
0.0146969
0.0131688
0.0116784
0.0102309
0.00883075
0.00748081
0.00618313
0.00493886
0.0037485
0.0026117
0.00152764
0.000493186
1.3958e-05
0.000355099
0.000745878
0.00115808
0.00159725
0.00206788
0.002571
0.00310914
0.00368532
0.00430272
0.00496458
0.00567423
0.00643508
0.00725032
0.00812266
0.00905409
0.0100464
0.0111024
0.0122289
0.0134377
0.0147449
0.0161661
0.0177136
0.0193955
0.0212169
0.0231807
0.0252874
0.0275347
0.0299166
0.0324226
0.0352757
0.038387
0.0414624
0.0445059
0.0475192
0.0505052
0.0534748
0.056397
0.0594799
0.0641897
0.0616202
0.0813974
0.0643281
0.133001
0.0955043
0.241899
0.24792
0.236556
0.211824
0.154899
0.117836
0.108169
0.0992274
0.0959296
0.0946865
0.0942858
0.0948493
0.0959598
0.0971671
0.0999294
0.10351
0.117078
0.14884
0.176016
0.344867
0.42679
0.402307
0.386518
0.182765
0.138845
0.0989889
0.0772381
0.0655248
0.057163
0.0514026
0.0472271
0.0438976
0.0410845
0.038572
0.0361965
0.03392
0.0317034
0.0295289
0.0273907
0.0252899
0.0232304
0.0212171
0.0192549
0.0173479
0.0154994
0.0137126
0.0119897
0.0103324
0.00874176
0.00721803
0.005761
0.00437003
0.00304379
0.00177975
0.000573635
2.74962e-05
0.000421596
0.00088227
0.0013712
0.00189244
0.00245162
0.00304979
0.00368942
0.00437335
0.00510432
0.00588496
0.00671797
0.00760604
0.00855169
0.0095569
0.0106232
0.0117522
0.0129477
0.0142181
0.015578
0.0170465
0.0186422
0.0203785
0.0222636
0.024301
0.0264918
0.0288354
0.0313291
0.0339683
0.0367452
0.0399126
0.0433852
0.0468468
0.0503153
0.0538191
0.0574015
0.0611472
0.0651259
0.069481
0.0758445
0.0766829
0.102217
0.0873257
0.158523
0.131484
0.2605
0.271448
0.260376
0.238989
0.181069
0.14437
0.131469
0.119867
0.115103
0.112733
0.111926
0.11257
0.1144
0.117297
0.123258
0.132057
0.150215
0.191054
0.221368
0.381888
0.458132
0.441476
0.418433
0.225121
0.178301
0.130996
0.104801
0.0886815
0.0765144
0.0677531
0.061139
0.0558195
0.0514765
0.0476102
0.0441385
0.0409362
0.0379266
0.0350648
0.0323245
0.0296905
0.0271543
0.0247111
0.0223576
0.020092
0.0179129
0.0158196
0.0138116
0.011888
0.010048
0.00829005
0.00661262
0.00501381
0.00349134
0.00204092
0.000657015
4.76824e-05
0.00049856
0.00102649
0.00158761
0.00218618
0.00282902
0.00351727
0.00425327
0.0050396
0.00587864
0.00677269
0.00772409
0.00873518
0.00980798
0.010944
0.0121441
0.01341
0.0147459
0.0161615
0.0176737
0.0193042
0.0210738
0.0229977
0.0250836
0.0273343
0.0297496
0.032328
0.0350669
0.0379631
0.0410117
0.0444953
0.0483325
0.0521848
0.0560847
0.0600859
0.0642639
0.0687601
0.0737382
0.0792811
0.0874792
0.0924757
0.118895
0.107494
0.176499
0.158675
0.271335
0.282666
0.272105
0.254315
0.200134
0.166004
0.15164
0.138714
0.133139
0.130047
0.12903
0.129812
0.132294
0.136548
0.144789
0.15736
0.177717
0.223612
0.253622
0.402385
0.469434
0.458672
0.434349
0.254863
0.208007
0.156574
0.127919
0.108786
0.093815
0.0827394
0.0741442
0.0672287
0.0614154
0.056394
0.0519299
0.0478695
0.0441128
0.0405946
0.0372721
0.0341175
0.0311116
0.0282412
0.0254967
0.022871
0.0203588
0.0179562
0.0156598
0.0134667
0.0113739
0.00937857
0.00747752
0.00566773
0.003946
0.00230631
0.000741826
6.84511e-05
0.00057584
0.00116823
0.00179869
0.00247174
0.00319496
0.00396944
0.00479735
0.00568115
0.0066232
0.0076258
0.00869123
0.0098216
0.0110186
0.0122831
0.0136157
0.0150177
0.0164935
0.0180538
0.0197174
0.0215081
0.0234493
0.0255572
0.0278403
0.0303007
0.0329373
0.035748
0.0387302
0.0418817
0.0452005
0.0489984
0.0531975
0.0574374
0.061764
0.0662534
0.0710065
0.0762052
0.0821043
0.0887168
0.0983746
0.105643
0.128975
0.129377
0.190488
0.179326
0.276813
0.286408
0.276781
0.262146
0.214094
0.183509
0.168963
0.155757
0.149837
0.146429
0.145359
0.146315
0.149349
0.154633
0.164365
0.179487
0.200414
0.248543
0.276555
0.41226
0.468831
0.463553
0.440614
0.275088
0.230149
0.17667
0.147109
0.126019
0.10905
0.0962501
0.0861061
0.0777893
0.0708104
0.0647771
0.0594272
0.0545888
0.050144
0.0460127
0.0421401
0.0384879
0.0350288
0.031743
0.0286159
0.0256363
0.0227954
0.0200867
0.0175043
0.0150432
0.0126989
0.0104668
0.00834251
0.00632193
0.00440094
0.00257197
0.000826795
8.78789e-05
0.000650626
0.00130571
0.00200361
0.00274895
0.00354982
0.00440726
0.00532339
0.0063008
0.00734199
0.0084494
0.00962528
0.0108715
0.0121895
0.0135796
0.015042
0.0165777
0.0181913
0.0198944
0.0217074
0.0236562
0.0257661
0.028055
0.0305317
0.0331977
0.0360517
0.0390911
0.0423132
0.0457165
0.0493014
0.0534081
0.0579615
0.0625799
0.067321
0.0722785
0.0775726
0.0834093
0.0901152
0.097613
0.108291
0.117115
0.13948
0.14676
0.194425
0.200442
0.279141
0.286405
0.276821
0.265493
0.224324
0.197653
0.183791
0.171006
0.165238
0.161771
0.160782
0.161923
0.165393
0.171412
0.181981
0.198676
0.219103
0.267445
0.292705
0.415184
0.461588
0.461145
0.440602
0.287952
0.246525
0.192067
0.163006
0.140655
0.122301
0.108262
0.0968972
0.087492
0.0795482
0.0726503
0.0665291
0.0610005
0.0559347
0.0512418
0.0468585
0.042739
0.0388502
0.0351675
0.0316724
0.0283505
0.0251907
0.0221836
0.0193217
0.0165981
0.0140066
0.0115415
0.00919718
0.00696856
0.00485075
0.00283472
0.000910877
0.000105186
0.000722091
0.00143859
0.00220213
0.0030175
0.00389337
0.00483086
0.00583227
0.00690038
0.00803786
0.00924719
0.0105305
0.0118896
0.0133253
0.0148378
0.0164268
0.0180931
0.0198415
0.0216848
0.0236445
0.0257489
0.0280251
0.030492
0.0331587
0.0360265
0.0390936
0.042357
0.045814
0.0494637
0.0533086
0.0577155
0.0626118
0.0675949
0.072732
0.0781295
0.0839208
0.0903237
0.0977138
0.105936
0.117364
0.127413
0.149164
0.159337
0.200797
0.213808
0.27891
0.283552
0.274843
0.266185
0.231751
0.209099
0.196344
0.18476
0.179339
0.176024
0.17524
0.176564
0.180338
0.186869
0.197713
0.215244
0.234434
0.281635
0.303754
0.413547
0.452373
0.452439
0.436116
0.295042
0.25855
0.203301
0.176406
0.152965
0.133698
0.118785
0.106526
0.0962861
0.0875649
0.0799496
0.0731724
0.0670432
0.0614267
0.0562276
0.0513772
0.0468253
0.0425349
0.0384782
0.034634
0.0309857
0.0275201
0.0242259
0.0210939
0.0181159
0.0152842
0.0125922
0.0100332
0.0076014
0.0052911
0.00309204
0.000993245
0.00012037
0.000790216
0.00156644
0.00239346
0.00327657
0.00422504
0.00524016
0.00632443
0.0074808
0.00871202
0.0100205
0.0114084
0.0128772
0.0144275
0.0160591
0.0177714
0.0195649
0.0214451
0.0234253
0.0255288
0.0277858
0.030225
0.0328667
0.0357199
0.0387854
0.0420607
0.0455429
0.049229
0.0531189
0.0572163
0.061913
0.0671375
0.0724672
0.0779766
0.0837804
0.0900202
0.0969162
0.104876
0.113682
0.125638
0.13654
0.1576
0.169493
0.207313
0.222294
0.277356
0.279301
0.271548
0.265108
0.23713
0.218552
0.207046
0.196976
0.192173
0.189198
0.188706
0.190218
0.194192
0.201013
0.211669
0.229543
0.246927
0.292277
0.310907
0.408817
0.440991
0.441029
0.428975
0.29764
0.267356
0.210545
0.188574
0.163183
0.14335
0.127913
0.11503
0.104173
0.0948469
0.0866514
0.0793268
0.0726835
0.0665854
0.0609357
0.0556633
0.0507159
0.0460544
0.0416494
0.0374779
0.0335216
0.0297658
0.026198
0.0228076
0.0195851
0.0165221
0.013611
0.0108444
0.00821564
0.00571867
0.00334199
0.00107326
0.000133556
0.000855225
0.00168912
0.00257736
0.00352598
0.00454484
0.00563535
0.00680019
0.00804238
0.00936469
0.0107695
0.0122589
0.0138342
0.0154959
0.0172433
0.0190756
0.0209932
0.0230018
0.0251156
0.0273595
0.0297655
0.0323642
0.0351768
0.0382124
0.041471
0.0449495
0.0486445
0.0525532
0.0566764
0.0610183
0.0659936
0.0715302
0.0771853
0.0830399
0.0892123
0.0958508
0.103168
0.111592
0.120851
0.133139
0.144598
0.164973
0.177927
0.2126
0.229189
0.274529
0.274767
0.267479
0.262839
0.241076
0.226205
0.216442
0.20789
0.203854
0.201344
0.201186
0.202891
0.206974
0.213893
0.224
0.241913
0.256987
0.30033
0.315233
0.402077
0.427482
0.429293
0.420914
0.295914
0.275377
0.21969
0.194474
0.170788
0.151342
0.13573
0.122475
0.111197
0.101418
0.0927636
0.0849898
0.077912
0.0713973
0.06535
0.0596998
0.0543939
0.0493928
0.0446662
0.0401902
0.0359457
0.0319168
0.02809
0.0244539
0.0209982
0.0177139
0.0145925
0.0116264
0.00880808
0.00613121
0.00358322
0.00115048
0.00014463
0.000917273
0.00180704
0.00275443
0.00376645
0.00485344
0.00601694
0.00725979
0.00858512
0.00999572
0.011494
0.0130819
0.0147607
0.0165306
0.0183907
0.0203397
0.0223781
0.0245117
0.0267556
0.0291362
0.0316874
0.0344414
0.0374206
0.0406339
0.0440806
0.0477566
0.0516578
0.0557818
0.0601303
0.0647081
0.0699506
0.0757827
0.0817412
0.0879124
0.0944147
0.101402
0.109072
0.117863
0.127461
0.13993
0.151737
0.171413
0.184879
0.21654
0.233453
0.272542
0.270955
0.26323
0.260016
0.244065
0.232587
0.224743
0.217708
0.214511
0.212537
0.212731
0.214594
0.218698
0.225515
0.235017
0.252538
0.265037
0.306627
0.317553
0.394414
0.413352
0.417577
0.41519
0.299158
0.272225
0.225376
0.200049
0.177133
0.158064
0.142431
0.128986
0.117438
0.107329
0.0983191
0.0901813
0.0827395
0.0758666
0.069471
0.0634844
0.0578555
0.0525453
0.0475234
0.0427657
0.0382525
0.0339675
0.0298968
0.0260282
0.0223511
0.0188559
0.0155339
0.0123768
0.00937687
0.00652741
0.00381498
0.0012246
0.000152839
0.00097542
0.00191953
0.00292428
0.00399775
0.0051507
0.00638479
0.0077031
0.00910887
0.010605
0.0121939
0.0138774
0.0156567
0.0175318
0.0195015
0.0215641
0.02372
0.025975
0.0283454
0.0308588
0.0335509
0.0364558
0.0395968
0.0429828
0.0466123
0.0504797
0.0545799
0.058911
0.0634758
0.06828
0.0737781
0.0798894
0.0861298
0.0925892
0.0993844
0.106674
0.114635
0.123709
0.133551
0.146088
0.158083
0.177032
0.190698
0.219667
0.237317
0.269295
0.267857
0.259335
0.257411
0.246587
0.238094
0.23214
0.226598
0.224268
0.222861
0.223387
0.225404
0.229438
0.236083
0.244891
0.261381
0.271776
0.311689
0.318495
0.386861
0.399564
0.405167
0.399861
0.307265
0.272475
0.229326
0.204701
0.18247
0.163786
0.148219
0.134705
0.122994
0.112649
0.103368
0.0949372
0.0871916
0.0800121
0.0733121
0.0670269
0.0611076
0.0555164
0.0502237
0.0452056
0.0404424
0.0359178
0.0316176
0.0275294
0.0236425
0.0199471
0.016434
0.0130947
0.00992136
0.00690686
0.00403699
0.0012955
0.000156947
0.0010277
0.00202471
0.00308516
0.00421829
0.00543532
0.006738
0.00812957
0.00961343
0.0111925
0.0128693
0.0146457
0.0165226
0.0184998
0.0205759
0.0227487
0.0250186
0.0273915
0.0298845
0.0325266
0.0353554
0.0384066
0.0417046
0.0452582
0.0490649
0.0531173
0.0574092
0.0619387
0.06671
0.07173
0.0774716
0.0838462
0.0903484
0.0970693
0.104124
0.111672
0.119871
0.129158
0.139167
0.151686
0.163747
0.181951
0.195638
0.222073
0.239523
0.266441
0.265532
0.256367
0.255756
0.249019
0.24304
0.238841
0.234716
0.233244
0.232409
0.233262
0.235385
0.239302
0.245675
0.253753
0.268888
0.277733
0.315563
0.318874
0.380031
0.387323
0.39384
0.388764
0.308815
0.272988
0.232469
0.208545
0.186963
0.168687
0.153259
0.13976
0.127962
0.117456
0.107969
0.0993035
0.0913046
0.0838623
0.0768961
0.0703457
0.0641648
0.0583178
0.0527761
0.0475167
0.0425204
0.0377711
0.0332548
0.0289593
0.0248737
0.0209881
0.0172933
0.0137805
0.0104415
0.00726943
0.00424905
0.00136299
0.000155693
0.00107213
0.00212058
0.00323521
0.00442644
0.00570599
0.00707562
0.00853865
0.0100986
0.0117584
0.0135206
0.015387
0.0173586
0.0194348
0.0216138
0.0238934
0.0262736
0.0287607
0.0313722
0.0341389
0.0371
0.0402929
0.0437429
0.0474589
0.0514372
0.0556686
0.0601449
0.0648642
0.0698318
0.0750565
0.0810289
0.0876514
0.0943967
0.101355
0.108639
0.116407
0.1248
0.134241
0.144355
0.156791
0.168832
0.186285
0.199891
0.224038
0.240866
0.26383
0.263536
0.255023
0.255506
0.251607
0.247653
0.245029
0.242206
0.241556
0.24128
0.242439
0.244642
0.248401
0.254419
0.261799
0.275575
0.285079
0.314464
0.321346
0.374
0.377295
0.383825
0.380035
0.307945
0.272897
0.234845
0.211729
0.19079
0.172935
0.157697
0.144269
0.132439
0.121828
0.112187
0.103332
0.0951213
0.0874529
0.0802528
0.0734653
0.0670474
0.0609659
0.0551939
0.0497096
0.0444949
0.0395341
0.0348137
0.0303219
0.0260477
0.0219814
0.0181137
0.0144357
0.0109391
0.00761671
0.00445249
0.00142776
0.000148214
0.00110758
0.00220618
0.00337362
0.00462149
0.00596211
0.00739714
0.00892991
0.010564
0.0123024
0.0141476
0.0161015
0.0181647
0.0203367
0.0226154
0.0249982
0.0274849
0.0300822
0.0328083
0.0356953
0.0387841
0.0421138
0.0457108
0.0495839
0.0537283
0.0581326
0.0627867
0.0676877
0.0728417
0.0782598
0.0844497
0.0913051
0.098276
0.105449
0.112937
0.120892
0.129441
0.138989
0.149161
0.161469
0.173432
0.190154
0.203623
0.225811
0.242033
0.261467
0.262114
0.255026
0.256599
0.25444
0.252079
0.250834
0.249192
0.249316
0.249572
0.251016
0.253281
0.256862
0.262495
0.269249
0.281669
0.29057
0.314602
0.323646
0.369071
0.369557
0.374769
0.372113
0.306993
0.272703
0.236671
0.214398
0.194104
0.176679
0.161662
0.148342
0.13652
0.125844
0.116087
0.10708
0.0986895
0.0908246
0.0834167
0.0764149
0.0697799
0.0634812
0.0574942
0.0517986
0.0463776
0.0412163
0.0363019
0.0316229
0.0271688
0.0229297
0.0188965
0.0150602
0.0114122
0.0079457
0.00464369
0.00148664
0.0001342
0.00113404
0.00228168
0.00350068
0.00480372
0.00620383
0.00770252
0.00930318
0.0110094
0.0128242
0.0147502
0.0167889
0.0189411
0.0212059
0.0235809
0.0260634
0.028653
0.0313565
0.0341931
0.0371959
0.0404077
0.0438693
0.0476079
0.0516326
0.0559373
0.0605086
0.0653342
0.0704096
0.0757409
0.0813415
0.0877357
0.0948096
0.10199
0.10936
0.117028
0.125143
0.133818
0.143438
0.153631
0.165783
0.177637
0.193665
0.206975
0.227489
0.243254
0.259589
0.261299
0.256042
0.258619
0.257468
0.256401
0.256349
0.255781
0.256625
0.257389
0.259085
0.2614
0.264795
0.270019
0.276137
0.287214
0.295267
0.316238
0.324422
0.366589
0.364226
0.367471
0.364489
0.306153
0.27247
0.238181
0.216732
0.197055
0.180055
0.165275
0.152085
0.140298
0.129584
0.11974
0.110605
0.102061
0.0940214
0.0864254
0.0792266
0.0723898
0.0658874
0.0596972
0.053801
0.0481831
0.0428301
0.0377298
0.0328714
0.0282448
0.0238406
0.01965
0.0156642
0.0118747
0.00827414
0.00484308
0.00155664
0.000113815
0.00115227
0.00234783
0.00361711
0.00497379
0.00643165
0.00799209
0.00965859
0.0114348
0.0133239
0.0153281
0.0174493
0.0196877
0.0220424
0.0245106
0.0270894
0.0297783
0.0325843
0.0355272
0.0386416
0.0419717
0.0455598
0.0494344
0.0536047
0.0580637
0.062796
0.0677871
0.0730302
0.078531
0.0843043
0.0908904
0.0981692
0.105544
0.113094
0.120924
0.129179
0.137957
0.147622
0.157814
0.169795
0.181526
0.196909
0.21006
0.229134
0.24458
0.25839
0.261043
0.25756
0.261005
0.260551
0.260643
0.26164
0.262059
0.263574
0.264816
0.266746
0.269093
0.2723
0.277111
0.282612
0.292499
0.299846
0.318486
0.32843
0.362905
0.360725
0.361106
0.358069
0.305406
0.272212
0.239546
0.218883
0.199785
0.183193
0.168653
0.155603
0.143863
0.133129
0.123215
0.113971
0.105288
0.0970891
0.0893185
0.0819349
0.074907
0.0682105
0.0618257
0.0557366
0.0499289
0.0443903
0.0391094
0.0340759
0.0292799
0.0247123
0.020364
0.0162262
0.0122908
0.0085519
0.00499316
0.0016053
8.75484e-05
0.00116341
0.00240556
0.00372371
0.00513245
0.00664629
0.00826653
0.00999677
0.0118408
0.0138016
0.0158818
0.0180827
0.0204046
0.0228462
0.0254046
0.0280764
0.030861
0.0337657
0.0368111
0.0400329
0.0434767
0.0471863
0.0511912
0.0555011
0.060108
0.064995
0.0701456
0.0755504
0.0812139
0.0871513
0.0939183
0.10139
0.108945
0.116663
0.12464
0.133018
0.141883
0.15158
0.161758
0.173564
0.185167
0.199959
0.212966
0.23081
0.246029
0.257868
0.261197
0.259094
0.263246
0.263528
0.264796
0.266762
0.268103
0.270243
0.27194
0.274078
0.27645
0.279481
0.283901
0.288838
0.297662
0.304361
0.320846
0.331439
0.362333
0.359198
0.355854
0.352372
0.304769
0.272116
0.240917
0.220983
0.202429
0.186221
0.171912
0.158998
0.147307
0.13656
0.126582
0.117237
0.108424
0.100074
0.0921367
0.0845754
0.077363
0.0704786
0.0639051
0.0576283
0.0516357
0.045916
0.040459
0.0352548
0.0302942
0.0255683
0.0210688
0.0167873
0.0127164
0.00885014
0.00516877
0.00165072
5.60782e-05
0.00116881
0.00245594
0.00382139
0.00528059
0.0068486
0.0085267
0.0103186
0.0122281
0.0142584
0.0164118
0.0186898
0.0210923
0.0236178
0.026263
0.0290243
0.0319011
0.0349008
0.0380448
0.0413699
0.0449232
0.0487494
0.0528792
0.0573225
0.062071
0.0671064
0.0724104
0.0779712
0.0837914
0.0898856
0.0968243
0.104478
0.112203
0.120077
0.12819
0.136681
0.145625
0.155344
0.165506
0.177142
0.188625
0.20288
0.215757
0.232542
0.247551
0.257876
0.261592
0.260327
0.265018
0.266278
0.268848
0.27176
0.273975
0.276724
0.278825
0.281149
0.283554
0.286435
0.290507
0.294945
0.302805
0.308897
0.323683
0.334369
0.363587
0.359038
0.35172
0.34725
0.304489
0.272373
0.24245
0.22318
0.205123
0.18926
0.17516
0.162367
0.150719
0.139953
0.129911
0.120465
0.111523
0.103024
0.0949213
0.0871848
0.0797908
0.0727214
0.065962
0.0595005
0.0533261
0.0474291
0.0418001
0.0364306
0.0313122
0.0264367
0.0217958
0.0173808
0.013183
0.00919478
0.00538664
0.0017116
2.00539e-05
0.00116968
0.0025
0.00391103
0.005419
0.00703933
0.0087733
0.0106247
0.0125975
0.0146948
0.0169189
0.0192711
0.0217513
0.0243575
0.0270861
0.0299334
0.0328985
0.0359894
0.0392281
0.0426527
0.0463113
0.0502498
0.0544993
0.0590704
0.0639541
0.0691316
0.0745829
0.080294
0.0862654
0.0925104
0.0996133
0.107439
0.115326
0.123348
0.13159
0.140188
0.149206
0.158947
0.169096
0.180578
0.191952
0.205721
0.218469
0.234308
0.249041
0.258212
0.262107
0.261171
0.266236
0.268761
0.272799
0.276673
0.279704
0.283107
0.285529
0.288028
0.290482
0.293251
0.297028
0.301045
0.308064
0.313599
0.327116
0.337673
0.365505
0.359603
0.34859
0.342994
0.304835
0.273138
0.244311
0.225627
0.207999
0.192427
0.178502
0.165806
0.15418
0.143383
0.133266
0.123712
0.114636
0.105983
0.0977132
0.0898
0.0822233
0.0749682
0.0680225
0.061376
0.0550193
0.0489439
0.0431416
0.0376041
0.0323233
0.0272908
0.0224977
0.0179347
0.0135925
0.00946695
0.0055328
0.00174576
-2.01335e-05
0.00116669
0.0025383
0.00399309
0.00554806
0.0072188
0.0090066
0.0109154
0.0129492
0.0151111
0.0174035
0.0198273
0.0223822
0.0250659
0.0278745
0.030804
0.0338537
0.0370318
0.0403613
0.0438815
0.0476416
0.0516882
0.0560529
0.0607464
0.0657596
0.0710729
0.0766652
0.082521
0.0886384
0.0950289
0.10229
0.110281
0.118324
0.126488
0.134855
0.143557
0.152651
0.162418
0.172564
0.18391
0.195191
0.20852
0.221119
0.236065
0.250398
0.258745
0.262637
0.261729
0.267034
0.271041
0.276667
0.28155
0.285491
0.289266
0.292095
0.294781
0.297302
0.300004
0.303555
0.307234
0.313545
0.318558
0.331013
0.341115
0.367368
0.360349
0.346438
0.339985
0.305989
0.274555
0.246662
0.228463
0.211176
0.195829
0.182032
0.169396
0.157765
0.146915
0.136707
0.127031
0.11781
0.108996
0.100552
0.092457
0.0846931
0.0772482
0.0701123
0.063277
0.0567343
0.0504767
0.0444966
0.0387864
0.0333383
0.0281445
0.023197
0.0184871
0.0140066
0.00975201
0.00569887
0.001804
-6.44657e-05
0.00115983
0.00257085
0.00406754
0.00566772
0.00738691
0.00922651
0.0111906
0.0132832
0.0155074
0.0178654
0.0203582
0.0229849
0.025743
0.0286284
0.0316366
0.034767
0.0380284
0.0414449
0.0450569
0.0489147
0.0530655
0.0575413
0.0623525
0.0674898
0.0729331
0.0786605
0.0846553
0.0909137
0.0974452
0.10486
0.113011
0.121204
0.129508
0.137999
0.146807
0.155981
0.165781
0.175939
0.187171
0.198376
0.211305
0.223717
0.237787
0.251578
0.259351
0.263233
0.262234
0.267686
0.273264
0.280471
0.28641
0.291196
0.29541
0.298594
0.301462
0.304074
0.306759
0.310158
0.313583
0.319308
0.323817
0.335241
0.344389
0.368472
0.360746
0.345265
0.338519
0.308059
0.276746
0.249631
0.231797
0.214751
0.199554
0.185831
0.17321
0.161539
0.150609
0.140286
0.130471
0.121092
0.112104
0.103477
0.0951903
0.0872313
0.0795899
0.072258
0.0652286
0.0584954
0.0520517
0.0458909
0.0400063
0.0343905
0.0290361
0.0239354
0.0190798
0.0144604
0.0100723
0.00588962
0.00187131
-0.000113273
0.0011485
0.00259721
0.00413401
0.00577762
0.00754334
0.00943269
0.0114499
0.013599
0.0158832
0.0183045
0.0208636
0.0235594
0.026389
0.0293478
0.0324312
0.0356389
0.03898
0.0424796
0.0461796
0.0501314
0.0543829
0.0589661
0.0638909
0.0691476
0.0747158
0.0805727
0.086701
0.0930954
0.0997638
0.107328
0.115636
0.123977
0.132419
0.141035
0.149952
0.159214
0.16906
0.179243
0.190386
0.201531
0.214097
0.22628
0.239483
0.252626
0.260039
0.263985
0.262956
0.268498
0.27556
0.284304
0.291313
0.296881
0.301537
0.305056
0.308114
0.310845
0.313566
0.316887
0.320137
0.325373
0.329373
0.339657
0.347239
0.368215
0.360407
0.345015
0.338712
0.311057
0.279786
0.253301
0.235709
0.2188
0.203673
0.189962
0.177305
0.165554
0.154512
0.14405
0.134074
0.124519
0.115343
0.10652
0.0980314
0.0898677
0.082021
0.0744853
0.0672553
0.0603256
0.0536906
0.0473445
0.0412807
0.0354922
0.0299717
0.024711
0.0197016
0.014934
0.0104032
0.00608376
0.00193537
-0.000167106
0.00113174
0.00261665
0.00419197
0.00587732
0.00768772
0.00962481
0.011693
0.0138964
0.0162382
0.0187203
0.0213432
0.0241053
0.0270035
0.0300326
0.0331881
0.0364695
0.0398868
0.043466
0.0472505
0.0512928
0.0556415
0.0603287
0.0653634
0.0707356
0.076424
0.0824054
0.0886623
0.0951879
0.10199
0.1097
0.118162
0.126651
0.135231
0.143977
0.153008
0.162366
0.172269
0.182495
0.193573
0.204675
0.216916
0.228839
0.241214
0.253669
0.260903
0.26502
0.264141
0.269748
0.278099
0.288242
0.296296
0.30258
0.307665
0.31151
0.314771
0.317655
0.320463
0.323773
0.326913
0.331729
0.335181
0.344085