/*--------------------------------*- C++ -*----------------------------------*\
  =========                 |
  \\      /  F ield         | OpenFOAM: The Open Source CFD Toolbox
   \\    /   O peration     | Website:  https://openfoam.org
    \\  /    A nd           | Version:  9
     \\/     M anipulation  |
\*---------------------------------------------------------------------------*/
FoamFile
{
    format      ascii;
    class       surfaceScalarField;
    location    "0.2";
    object      phi;
}
// * * * * * * * * * * * * * * * * * * * * * * * * * * * * * * * * * * * * * //

dimensions      [0 3 -1 0 0 0 0];

internalField   nonuniform List<scalar> 
39700
(
3.01243e-06
3.74635e-06
3.01272e-06
3.95702e-06
3.01307e-06
4.17629e-06
3.01336e-06
4.4069e-06
3.01352e-06
4.64771e-06
3.01356e-06
4.89827e-06
3.01348e-06
5.15872e-06
3.01332e-06
5.4294e-06
3.01311e-06
5.7107e-06
3.01285e-06
6.00283e-06
3.01256e-06
6.30575e-06
3.01225e-06
6.61913e-06
3.01195e-06
6.94229e-06
3.01167e-06
7.27429e-06
3.01146e-06
7.61437e-06
3.01136e-06
7.96293e-06
3.01138e-06
8.32323e-06
3.01152e-06
8.7029e-06
3.01177e-06
9.11317e-06
3.01207e-06
9.56405e-06
3.01232e-06
1.00577e-05
3.0124e-06
1.05866e-05
3.01226e-06
1.1138e-05
3.01198e-06
1.17006e-05
3.01165e-06
1.22672e-05
3.01139e-06
1.28344e-05
3.01124e-06
1.34007e-05
3.01125e-06
1.39661e-05
3.0114e-06
1.45317e-05
3.01167e-06
1.51004e-05
3.01202e-06
1.82739e-05
3.01229e-06
1.80528e-05
3.01235e-06
1.78536e-05
3.01211e-06
1.77003e-05
3.01169e-06
1.76228e-05
3.01139e-06
1.7645e-05
3.0115e-06
1.77701e-05
3.01218e-06
1.79825e-05
3.01348e-06
1.82656e-05
3.0157e-06
1.86119e-05
3.01955e-06
1.90235e-05
3.02688e-06
1.952e-05
3.04245e-06
2.01601e-05
3.07785e-06
2.11226e-05
3.16641e-06
2.25958e-05
3.69613e-06
2.19346e-05
2.80667e-06
2.0343e-06
2.7289e-06
9.16708e-06
2.93063e-06
2.21275e-05
2.96721e-06
2.18886e-05
2.9891e-06
2.04203e-05
3.00188e-06
1.94194e-05
3.01025e-06
1.8585e-05
3.01641e-06
1.77438e-05
3.01745e-06
1.68854e-05
3.01061e-06
1.62608e-05
3.00487e-06
1.62934e-05
3.00881e-06
1.70212e-05
3.01853e-06
1.80579e-05
3.03075e-06
1.91363e-05
3.04783e-06
2.02424e-05
3.07643e-06
2.14872e-05
3.13026e-06
2.30254e-05
3.24672e-06
2.51363e-05
3.6376e-06
2.73815e-05
2.8189e-06
3.69915e-06
2.30931e-06
2.67127e-06
2.81389e-06
2.64778e-05
2.89932e-06
2.54529e-05
2.94765e-06
2.32808e-05
2.97167e-06
1.79381e-05
2.9859e-06
1.63813e-05
2.99494e-06
1.50668e-05
3.00103e-06
1.39338e-05
3.00522e-06
1.2946e-05
3.00801e-06
1.20817e-05
3.00976e-06
1.13264e-05
3.01075e-06
1.06662e-05
3.01126e-06
1.0086e-05
3.01152e-06
9.5699e-06
3.01165e-06
9.1033e-06
3.01173e-06
8.67458e-06
3.0118e-06
8.27524e-06
3.01186e-06
7.89946e-06
3.01193e-06
7.54335e-06
3.01199e-06
7.2043e-06
3.01205e-06
6.88054e-06
3.01211e-06
6.57081e-06
3.01216e-06
6.27417e-06
3.0122e-06
5.9899e-06
3.01223e-06
5.71741e-06
3.01226e-06
5.4562e-06
3.01228e-06
5.20584e-06
3.01229e-06
4.96595e-06
3.0123e-06
4.73619e-06
3.01231e-06
4.51626e-06
3.01231e-06
4.30586e-06
3.0123e-06
4.10467e-06
3.0123e-06
3.91235e-06
3.72853e-06
3.01374e-06
3.74614e-06
3.01396e-06
3.95679e-06
3.0144e-06
4.17585e-06
3.01484e-06
4.40646e-06
3.01512e-06
4.64743e-06
3.01518e-06
4.89821e-06
3.01503e-06
5.15886e-06
3.01471e-06
5.42973e-06
3.01424e-06
5.71117e-06
3.01367e-06
6.0034e-06
3.01302e-06
6.3064e-06
3.01235e-06
6.61981e-06
3.01168e-06
6.94295e-06
3.0111e-06
7.27487e-06
3.01067e-06
7.6148e-06
3.01044e-06
7.96316e-06
3.01043e-06
8.32324e-06
3.01062e-06
8.7027e-06
3.01099e-06
9.1128e-06
3.01147e-06
9.56357e-06
3.01189e-06
1.00573e-05
3.01203e-06
1.05865e-05
3.01179e-06
1.11383e-05
3.01121e-06
1.17012e-05
3.01051e-06
1.2268e-05
3.0099e-06
1.2835e-05
3.00955e-06
1.34011e-05
3.00954e-06
1.39661e-05
3.00989e-06
1.45314e-05
3.0105e-06
1.50998e-05
3.01135e-06
1.8273e-05
3.01197e-06
1.80521e-05
3.01211e-06
1.78535e-05
3.01164e-06
1.77007e-05
3.0108e-06
1.76236e-05
3.01033e-06
1.76455e-05
3.01096e-06
1.77695e-05
3.01318e-06
1.79803e-05
3.01741e-06
1.82614e-05
3.02469e-06
1.86046e-05
3.0375e-06
1.90106e-05
3.06105e-06
1.94964e-05
3.10603e-06
2.01151e-05
3.20565e-06
2.1023e-05
3.38561e-06
2.24158e-05
3.93171e-06
2.13885e-05
2.66507e-06
3.30094e-06
2.3936e-06
9.43854e-06
2.73602e-06
2.17851e-05
2.87316e-06
2.17515e-05
2.9371e-06
2.03564e-05
2.97642e-06
1.93801e-05
3.00177e-06
1.85596e-05
3.0183e-06
1.77273e-05
3.02216e-06
1.68816e-05
3.01068e-06
1.62723e-05
3.00143e-06
1.63026e-05
3.01221e-06
1.70104e-05
3.03736e-06
1.80328e-05
3.07297e-06
1.91007e-05
3.1244e-06
2.01909e-05
3.20864e-06
2.1403e-05
3.35258e-06
2.28815e-05
3.63406e-06
2.48548e-05
4.19414e-06
2.68215e-05
2.84666e-06
5.04663e-06
1.85917e-06
3.65876e-06
2.46211e-06
2.58749e-05
2.69404e-06
2.5221e-05
2.82009e-06
2.31548e-05
2.88843e-06
1.78698e-05
2.93045e-06
1.63393e-05
2.9576e-06
1.50397e-05
2.97605e-06
1.39154e-05
2.98878e-06
1.29332e-05
2.99743e-06
1.20731e-05
3.00308e-06
1.13207e-05
3.00659e-06
1.06627e-05
3.0087e-06
1.00839e-05
3.00995e-06
9.56865e-06
3.01073e-06
9.10252e-06
3.01126e-06
8.67405e-06
3.01165e-06
8.27484e-06
3.01197e-06
7.89914e-06
3.01224e-06
7.54308e-06
3.01247e-06
7.20407e-06
3.01267e-06
6.88034e-06
3.01285e-06
6.57063e-06
3.013e-06
6.27402e-06
3.01312e-06
5.98977e-06
3.01323e-06
5.7173e-06
3.01331e-06
5.45611e-06
3.01338e-06
5.20577e-06
3.01344e-06
4.96589e-06
3.01348e-06
4.73615e-06
3.01351e-06
4.51623e-06
3.01353e-06
4.30584e-06
3.01355e-06
4.10466e-06
3.01355e-06
3.91234e-06
3.72854e-06
3.01563e-06
3.74638e-06
3.01548e-06
3.95694e-06
3.01559e-06
4.17573e-06
3.01578e-06
4.40627e-06
3.01587e-06
4.64735e-06
3.01577e-06
4.89831e-06
3.01547e-06
5.15916e-06
3.01497e-06
5.43022e-06
3.01431e-06
5.71183e-06
3.01351e-06
6.0042e-06
3.01263e-06
6.30728e-06
3.01171e-06
6.62073e-06
3.01083e-06
6.94383e-06
3.0101e-06
7.27561e-06
3.00959e-06
7.6153e-06
3.00939e-06
7.96337e-06
3.00947e-06
8.32315e-06
3.00978e-06
8.7024e-06
3.0102e-06
9.11238e-06
3.01064e-06
9.56313e-06
3.01094e-06
1.0057e-05
3.01091e-06
1.05865e-05
3.01044e-06
1.11387e-05
3.00961e-06
1.1702e-05
3.00866e-06
1.22689e-05
3.00784e-06
1.28358e-05
3.00739e-06
1.34015e-05
3.00741e-06
1.39661e-05
3.00793e-06
1.45309e-05
3.00882e-06
1.50989e-05
3.01003e-06
1.82718e-05
3.01099e-06
1.80512e-05
3.01127e-06
1.78532e-05
3.01072e-06
1.77013e-05
3.00975e-06
1.76246e-05
3.00931e-06
1.76459e-05
3.01052e-06
1.77682e-05
3.01422e-06
1.79766e-05
3.02121e-06
1.82544e-05
3.03327e-06
1.85925e-05
3.05407e-06
1.89898e-05
3.0913e-06
1.94592e-05
3.15458e-06
2.00518e-05
3.28048e-06
2.08971e-05
3.47903e-06
2.22172e-05
3.99956e-06
2.0868e-05
2.6094e-06
4.6911e-06
2.20192e-06
9.84602e-06
2.60156e-06
2.13855e-05
2.79341e-06
2.15596e-05
2.8904e-06
2.02594e-05
2.9522e-06
1.93183e-05
2.99198e-06
1.85199e-05
3.01762e-06
1.77017e-05
3.02565e-06
1.68736e-05
3.01404e-06
1.62839e-05
3.0051e-06
1.63116e-05
3.02106e-06
1.69944e-05
3.05988e-06
1.7994e-05
3.11598e-06
1.90446e-05
3.19645e-06
2.01105e-05
3.32413e-06
2.12753e-05
3.52519e-06
2.26804e-05
3.83478e-06
2.45452e-05
4.45914e-06
2.61971e-05
3.06088e-06
6.4449e-06
1.71426e-06
5.00537e-06
2.25522e-06
2.53339e-05
2.53293e-06
2.49433e-05
2.71473e-06
2.2973e-05
2.81537e-06
1.77692e-05
2.87946e-06
1.62752e-05
2.92228e-06
1.49969e-05
2.95188e-06
1.38858e-05
2.97254e-06
1.29126e-05
2.9868e-06
1.20588e-05
2.99634e-06
1.13112e-05
3.00249e-06
1.06565e-05
3.00635e-06
1.00801e-05
3.00877e-06
9.56623e-06
3.01033e-06
9.10096e-06
3.01139e-06
8.67299e-06
3.01217e-06
8.27407e-06
3.01277e-06
7.89854e-06
3.01326e-06
7.54259e-06
3.01367e-06
7.20366e-06
3.01401e-06
6.88e-06
3.0143e-06
6.57035e-06
3.01454e-06
6.27378e-06
3.01474e-06
5.98957e-06
3.0149e-06
5.71714e-06
3.01504e-06
5.45597e-06
3.01515e-06
5.20566e-06
3.01524e-06
4.9658e-06
3.01531e-06
4.73608e-06
3.01537e-06
4.51617e-06
3.01542e-06
4.30579e-06
3.01547e-06
4.10461e-06
3.01551e-06
3.9123e-06
3.72853e-06
3.01647e-06
3.7466e-06
3.01625e-06
3.95716e-06
3.01622e-06
4.17577e-06
3.01625e-06
4.40624e-06
3.0162e-06
4.6474e-06
3.01596e-06
4.89855e-06
3.0155e-06
5.15962e-06
3.01483e-06
5.43089e-06
3.01398e-06
5.71268e-06
3.01298e-06
6.00519e-06
3.01189e-06
6.30838e-06
3.01076e-06
6.62185e-06
3.0097e-06
6.94489e-06
3.00882e-06
7.27649e-06
3.00823e-06
7.61589e-06
3.00802e-06
7.96358e-06
3.00815e-06
8.32301e-06
3.00853e-06
8.70202e-06
3.00901e-06
9.11191e-06
3.00943e-06
9.56271e-06
3.00964e-06
1.00568e-05
3.00944e-06
1.05867e-05
3.00874e-06
1.11394e-05
3.00765e-06
1.17031e-05
3.00645e-06
1.22701e-05
3.00545e-06
1.28368e-05
3.00489e-06
1.34021e-05
3.00493e-06
1.39661e-05
3.00556e-06
1.45302e-05
3.00666e-06
1.50978e-05
3.00815e-06
1.82703e-05
3.00933e-06
1.805e-05
3.00972e-06
1.78528e-05
3.00916e-06
1.77018e-05
3.00813e-06
1.76256e-05
3.0078e-06
1.76463e-05
3.00952e-06
1.77665e-05
3.01441e-06
1.79717e-05
3.02359e-06
1.82452e-05
3.03905e-06
1.85771e-05
3.0648e-06
1.89641e-05
3.10961e-06
1.94144e-05
3.17896e-06
1.99825e-05
3.30384e-06
2.07722e-05
3.51464e-06
2.20064e-05
3.99945e-06
2.03831e-05
2.64898e-06
6.04157e-06
2.15749e-06
1.03375e-05
2.54681e-06
2.09961e-05
2.7488e-06
2.13576e-05
2.86113e-06
2.01471e-05
2.93553e-06
1.92439e-05
2.98467e-06
1.84707e-05
3.01696e-06
1.76694e-05
3.02849e-06
1.6862e-05
3.01805e-06
1.62943e-05
3.01096e-06
1.63186e-05
3.03155e-06
1.69738e-05
3.08043e-06
1.79451e-05
3.15137e-06
1.89736e-05
3.25015e-06
2.00117e-05
3.39849e-06
2.1127e-05
3.61825e-06
2.24607e-05
3.91656e-06
2.42469e-05
4.50393e-06
2.56097e-05
3.16147e-06
7.78737e-06
1.69635e-06
6.47049e-06
2.15054e-06
2.48797e-05
2.44034e-06
2.46535e-05
2.64657e-06
2.27667e-05
2.76242e-06
1.76533e-05
2.83996e-06
1.61977e-05
2.89372e-06
1.49431e-05
2.93171e-06
1.38478e-05
2.95866e-06
1.28856e-05
2.97754e-06
1.20399e-05
2.9904e-06
1.12983e-05
2.9989e-06
1.0648e-05
3.0044e-06
1.00746e-05
3.00796e-06
9.56266e-06
3.01034e-06
9.09859e-06
3.01199e-06
8.67133e-06
3.0132e-06
8.27285e-06
3.01414e-06
7.8976e-06
3.01488e-06
7.54185e-06
3.01548e-06
7.20306e-06
3.01599e-06
6.8795e-06
3.0164e-06
6.56993e-06
3.01675e-06
6.27343e-06
3.01703e-06
5.98929e-06
3.01726e-06
5.7169e-06
3.01745e-06
5.45578e-06
3.01761e-06
5.2055e-06
3.01774e-06
4.96568e-06
3.01784e-06
4.73597e-06
3.01792e-06
4.51609e-06
3.018e-06
4.30572e-06
3.01806e-06
4.10454e-06
3.01811e-06
3.91226e-06
3.72851e-06
3.01628e-06
3.74673e-06
3.01612e-06
3.95732e-06
3.01608e-06
4.17581e-06
3.01608e-06
4.40624e-06
3.01598e-06
4.6475e-06
3.01568e-06
4.89885e-06
3.01513e-06
5.16017e-06
3.01435e-06
5.43168e-06
3.01335e-06
5.71368e-06
3.01219e-06
6.00635e-06
3.01093e-06
6.30965e-06
3.00963e-06
6.62315e-06
3.0084e-06
6.94612e-06
3.00737e-06
7.27752e-06
3.00666e-06
7.6166e-06
3.00637e-06
7.96388e-06
3.00646e-06
8.32292e-06
3.00684e-06
8.70164e-06
3.00732e-06
9.11142e-06
3.00775e-06
9.56228e-06
3.00792e-06
1.00566e-05
3.00762e-06
1.0587e-05
3.00675e-06
1.11403e-05
3.00546e-06
1.17044e-05
3.00403e-06
1.22715e-05
3.00284e-06
1.2838e-05
3.00216e-06
1.34028e-05
3.00216e-06
1.39661e-05
3.00284e-06
1.45296e-05
3.00405e-06
1.50966e-05
3.00571e-06
1.82687e-05
3.00701e-06
1.80487e-05
3.00744e-06
1.78524e-05
3.00684e-06
1.77024e-05
3.00577e-06
1.76267e-05
3.00554e-06
1.76465e-05
3.00764e-06
1.77644e-05
3.01331e-06
1.7966e-05
3.02385e-06
1.82347e-05
3.04115e-06
1.85598e-05
3.06867e-06
1.89366e-05
3.11554e-06
1.93675e-05
3.1843e-06
1.99137e-05
3.29566e-06
2.06609e-05
3.5089e-06
2.17932e-05
3.93384e-06
1.99582e-05
2.72432e-06
7.25109e-06
2.20887e-06
1.0853e-05
2.55381e-06
2.06512e-05
2.73898e-06
2.11724e-05
2.8507e-06
2.00354e-05
2.92791e-06
1.91667e-05
2.98112e-06
1.84175e-05
3.01687e-06
1.76336e-05
3.0304e-06
1.68485e-05
3.02144e-06
1.63033e-05
3.01584e-06
1.63242e-05
3.0405e-06
1.69492e-05
3.09579e-06
1.78898e-05
3.17536e-06
1.88941e-05
3.28251e-06
1.99045e-05
3.43427e-06
2.09752e-05
3.6484e-06
2.22465e-05
3.91251e-06
2.39828e-05
4.40189e-06
2.51203e-05
3.19145e-06
8.99781e-06
1.76598e-06
7.89596e-06
2.13074e-06
2.4515e-05
2.40625e-06
2.4378e-05
2.61164e-06
2.25614e-05
2.73069e-06
1.75343e-05
2.81431e-06
1.61141e-05
2.87412e-06
1.48833e-05
2.91732e-06
1.38046e-05
2.9485e-06
1.28544e-05
2.97067e-06
1.20178e-05
2.98604e-06
1.1283e-05
2.99641e-06
1.06377e-05
3.0033e-06
1.00677e-05
3.0079e-06
9.55806e-06
3.01105e-06
9.09544e-06
3.01329e-06
8.66909e-06
3.01495e-06
8.27119e-06
3.01623e-06
7.89633e-06
3.01724e-06
7.54083e-06
3.01806e-06
7.20223e-06
3.01874e-06
6.87882e-06
3.01929e-06
6.56937e-06
3.01975e-06
6.27298e-06
3.02012e-06
5.98891e-06
3.02043e-06
5.71659e-06
3.02068e-06
5.45553e-06
3.02089e-06
5.2053e-06
3.02105e-06
4.96551e-06
3.02118e-06
4.73584e-06
3.02129e-06
4.51598e-06
3.02137e-06
4.30563e-06
3.02144e-06
4.10448e-06
3.02149e-06
3.91221e-06
3.72849e-06
3.01555e-06
3.74685e-06
3.01539e-06
3.95748e-06
3.01533e-06
4.17587e-06
3.01529e-06
4.40627e-06
3.01516e-06
4.64763e-06
3.01481e-06
4.8992e-06
3.0142e-06
5.16078e-06
3.01334e-06
5.43254e-06
3.01224e-06
5.71477e-06
3.01097e-06
6.00763e-06
3.00957e-06
6.31104e-06
3.00814e-06
6.62459e-06
3.00678e-06
6.94748e-06
3.00563e-06
7.27867e-06
3.00482e-06
7.6174e-06
3.00444e-06
7.96426e-06
3.00447e-06
8.32289e-06
3.00479e-06
8.70132e-06
3.00524e-06
9.11097e-06
3.00563e-06
9.56189e-06
3.00575e-06
1.00565e-05
3.00536e-06
1.05874e-05
3.00437e-06
1.11413e-05
3.00291e-06
1.17059e-05
3.0013e-06
1.22731e-05
2.99993e-06
1.28394e-05
2.99913e-06
1.34036e-05
2.99906e-06
1.39661e-05
2.99973e-06
1.45289e-05
3.00097e-06
1.50954e-05
3.00269e-06
1.8267e-05
3.00403e-06
1.80474e-05
3.00444e-06
1.78519e-05
3.00379e-06
1.77031e-05
3.00267e-06
1.76278e-05
3.00245e-06
1.76467e-05
3.0047e-06
1.77622e-05
3.01065e-06
1.79601e-05
3.02164e-06
1.82237e-05
3.03942e-06
1.8542e-05
3.06631e-06
1.89097e-05
3.11134e-06
1.93225e-05
3.17523e-06
1.98498e-05
3.26684e-06
2.05693e-05
3.4664e-06
2.15936e-05
3.83389e-06
1.95907e-05
2.79676e-06
8.28822e-06
2.2981e-06
1.13516e-05
2.59242e-06
2.03569e-05
2.75295e-06
2.10119e-05
2.85448e-06
1.99338e-05
2.9282e-06
1.9093e-05
2.98135e-06
1.83643e-05
3.0178e-06
1.75972e-05
3.03202e-06
1.68343e-05
3.02458e-06
1.63107e-05
3.02082e-06
1.6328e-05
3.04722e-06
1.69228e-05
3.10518e-06
1.78318e-05
3.18794e-06
1.88113e-05
3.29645e-06
1.9796e-05
3.44171e-06
2.08299e-05
3.63628e-06
2.2052e-05
3.85229e-06
2.37668e-05
4.23874e-06
2.47339e-05
3.16299e-06
1.00736e-05
1.87973e-06
9.17922e-06
2.17476e-06
2.422e-05
2.41565e-06
2.41371e-05
2.60281e-06
2.23742e-05
2.71801e-06
1.74191e-05
2.80233e-06
1.60298e-05
2.86415e-06
1.48215e-05
2.90971e-06
1.3759e-05
2.94314e-06
1.2821e-05
2.96726e-06
1.19936e-05
2.98423e-06
1.1266e-05
2.99588e-06
1.0626e-05
3.0038e-06
1.00597e-05
3.00922e-06
9.55264e-06
3.013e-06
9.09165e-06
3.01574e-06
8.66636e-06
3.01779e-06
8.26914e-06
3.01937e-06
7.89474e-06
3.02063e-06
7.53957e-06
3.02165e-06
7.20121e-06
3.02248e-06
6.87799e-06
3.02317e-06
6.56869e-06
3.02373e-06
6.27241e-06
3.02419e-06
5.98845e-06
3.02456e-06
5.71622e-06
3.02487e-06
5.45523e-06
3.02511e-06
5.20505e-06
3.02531e-06
4.96531e-06
3.02547e-06
4.73569e-06
3.02559e-06
4.51586e-06
3.02569e-06
4.30553e-06
3.02576e-06
4.1044e-06
3.02581e-06
3.91216e-06
3.72847e-06
3.01435e-06
3.74697e-06
3.01418e-06
3.95765e-06
3.01406e-06
4.17599e-06
3.01397e-06
4.40636e-06
3.01378e-06
4.64783e-06
3.01338e-06
4.8996e-06
3.01271e-06
5.16144e-06
3.01178e-06
5.43347e-06
3.01061e-06
5.71594e-06
3.00924e-06
6.00899e-06
3.00775e-06
6.31253e-06
3.00622e-06
6.62612e-06
3.00476e-06
6.94893e-06
3.00352e-06
7.27992e-06
3.00263e-06
7.61829e-06
3.00218e-06
7.96471e-06
3.00215e-06
8.32292e-06
3.00241e-06
8.70105e-06
3.0028e-06
9.11058e-06
3.00313e-06
9.56157e-06
3.00316e-06
1.00565e-05
3.00268e-06
1.05879e-05
3.00156e-06
1.11424e-05
2.99994e-06
1.17075e-05
2.99817e-06
1.22749e-05
2.99666e-06
1.28409e-05
2.99573e-06
1.34045e-05
2.99557e-06
1.39663e-05
2.9962e-06
1.45283e-05
2.99742e-06
1.50941e-05
2.99912e-06
1.82653e-05
3.00042e-06
1.80461e-05
3.00076e-06
1.78516e-05
3e-06
1.77039e-05
2.99878e-06
1.7629e-05
2.99844e-06
1.76471e-05
3.00056e-06
1.776e-05
3.00632e-06
1.79543e-05
3.01691e-06
1.82131e-05
3.03406e-06
1.85248e-05
3.05866e-06
1.88851e-05
3.09938e-06
1.92818e-05
3.15521e-06
1.9794e-05
3.22552e-06
2.0499e-05
3.40207e-06
2.14171e-05
3.72616e-06
1.92666e-05
2.85308e-06
9.1613e-06
2.39332e-06
1.18114e-05
2.64409e-06
2.01061e-05
2.7808e-06
2.08752e-05
2.8678e-06
1.98468e-05
2.93458e-06
1.90262e-05
2.98486e-06
1.83141e-05
3.01997e-06
1.75621e-05
3.03376e-06
1.68205e-05
3.02733e-06
1.63172e-05
3.02471e-06
1.63306e-05
3.05119e-06
1.68963e-05
3.10885e-06
1.77742e-05
3.1907e-06
1.87295e-05
3.29588e-06
1.96908e-05
3.42969e-06
2.06961e-05
3.59859e-06
2.18831e-05
3.76527e-06
2.36001e-05
4.07088e-06
2.44283e-05
3.12483e-06
1.10196e-05
2.00635e-06
1.02977e-05
2.25551e-06
2.39708e-05
2.45371e-06
2.39389e-05
2.61444e-06
2.22135e-05
2.72152e-06
1.7312e-05
2.80264e-06
1.59486e-05
2.86345e-06
1.47607e-05
2.90909e-06
1.37134e-05
2.94308e-06
1.2787e-05
2.96792e-06
1.19688e-05
2.98562e-06
1.12483e-05
2.99796e-06
1.06137e-05
3.00648e-06
1.00512e-05
3.01241e-06
9.54671e-06
3.01662e-06
9.08744e-06
3.01971e-06
8.66327e-06
3.02204e-06
8.26681e-06
3.02386e-06
7.89292e-06
3.0253e-06
7.53812e-06
3.02647e-06
7.20005e-06
3.02742e-06
6.87704e-06
3.0282e-06
6.56791e-06
3.02884e-06
6.27178e-06
3.02937e-06
5.98793e-06
3.02979e-06
5.71579e-06
3.03014e-06
5.45488e-06
3.03042e-06
5.20477e-06
3.03065e-06
4.96509e-06
3.03082e-06
4.73551e-06
3.03096e-06
4.51572e-06
3.03107e-06
4.30543e-06
3.03114e-06
4.10433e-06
3.03119e-06
3.91211e-06
3.72845e-06
3.01263e-06
3.74707e-06
3.01245e-06
3.95783e-06
3.01229e-06
4.17615e-06
3.01213e-06
4.40652e-06
3.01187e-06
4.64809e-06
3.01141e-06
4.90007e-06
3.01069e-06
5.16217e-06
3.0097e-06
5.43447e-06
3.00846e-06
5.71718e-06
3.00702e-06
6.01043e-06
3.00545e-06
6.3141e-06
3.00384e-06
6.62773e-06
3.0023e-06
6.95047e-06
3.00099e-06
7.28123e-06
3.00004e-06
7.61924e-06
2.99954e-06
7.96521e-06
2.99946e-06
8.32299e-06
2.99968e-06
8.70083e-06
3.00001e-06
9.11026e-06
3.00025e-06
9.56133e-06
3.00018e-06
1.00565e-05
2.99957e-06
1.05885e-05
2.99831e-06
1.11437e-05
2.99655e-06
1.17093e-05
2.99463e-06
1.22768e-05
2.99297e-06
1.28426e-05
2.99192e-06
1.34056e-05
2.99167e-06
1.39665e-05
2.99222e-06
1.45277e-05
2.99337e-06
1.5093e-05
2.99499e-06
1.82636e-05
2.99618e-06
1.80449e-05
2.99638e-06
1.78514e-05
2.99547e-06
1.77048e-05
2.99405e-06
1.76305e-05
2.99344e-06
1.76477e-05
2.99514e-06
1.77583e-05
3.00028e-06
1.79492e-05
3.00975e-06
1.82037e-05
3.02523e-06
1.85094e-05
3.04662e-06
1.88637e-05
3.08153e-06
1.92469e-05
3.12743e-06
1.97481e-05
3.17892e-06
2.04475e-05
3.33395e-06
2.12621e-05
3.62793e-06
1.89726e-05
2.89804e-06
9.89119e-06
2.48424e-06
1.22252e-05
2.70094e-06
1.98894e-05
2.81653e-06
2.07596e-05
2.88764e-06
1.97757e-05
2.94547e-06
1.89684e-05
2.99095e-06
1.82686e-05
3.0232e-06
1.75298e-05
3.03555e-06
1.68081e-05
3.0294e-06
1.63233e-05
3.02704e-06
1.6333e-05
3.05218e-06
1.68711e-05
3.10731e-06
1.7719e-05
3.18532e-06
1.86514e-05
3.28403e-06
1.95921e-05
3.40435e-06
2.05758e-05
3.54677e-06
2.17406e-05
3.67259e-06
2.34743e-05
3.9227e-06
2.41782e-05
3.09281e-06
1.18495e-05
2.13069e-06
1.12598e-05
2.35087e-06
2.37506e-05
2.5084e-06
2.37814e-05
2.64187e-06
2.208e-05
2.7384e-06
1.72155e-05
2.81362e-06
1.58734e-05
2.87122e-06
1.47031e-05
2.91518e-06
1.36694e-05
2.94835e-06
1.27538e-05
2.97286e-06
1.19443e-05
2.9905e-06
1.12307e-05
3.00294e-06
1.06012e-05
3.01164e-06
1.00425e-05
3.01777e-06
9.54058e-06
3.02218e-06
9.08303e-06
3.02544e-06
8.66001e-06
3.02793e-06
8.26432e-06
3.02987e-06
7.89098e-06
3.03142e-06
7.53658e-06
3.03267e-06
7.19879e-06
3.0337e-06
6.87602e-06
3.03453e-06
6.56707e-06
3.03522e-06
6.27109e-06
3.03578e-06
5.98736e-06
3.03624e-06
5.71533e-06
3.03661e-06
5.45451e-06
3.03692e-06
5.20447e-06
3.03716e-06
4.96485e-06
3.03734e-06
4.73532e-06
3.03749e-06
4.51558e-06
3.0376e-06
4.30532e-06
3.03768e-06
4.10425e-06
3.03773e-06
3.91206e-06
3.72843e-06
3.01037e-06
3.74716e-06
3.0102e-06
3.95801e-06
3.01001e-06
4.17634e-06
3.00979e-06
4.40674e-06
3.00947e-06
4.64841e-06
3.00895e-06
4.90058e-06
3.00817e-06
5.16294e-06
3.00713e-06
5.43551e-06
3.00583e-06
5.71847e-06
3.00433e-06
6.01193e-06
3.0027e-06
6.31574e-06
3.00102e-06
6.62941e-06
2.99942e-06
6.95207e-06
2.99805e-06
7.2826e-06
2.99705e-06
7.62024e-06
2.9965e-06
7.96576e-06
2.99638e-06
8.32311e-06
2.99656e-06
8.70066e-06
2.99682e-06
9.10999e-06
2.99698e-06
9.56117e-06
2.9968e-06
1.00567e-05
2.99606e-06
1.05892e-05
2.99466e-06
1.11451e-05
2.99275e-06
1.17112e-05
2.99068e-06
1.22789e-05
2.98887e-06
1.28444e-05
2.9877e-06
1.34067e-05
2.98733e-06
1.39669e-05
2.98777e-06
1.45273e-05
2.98882e-06
1.50919e-05
2.9903e-06
1.82622e-05
2.99132e-06
1.80439e-05
2.99133e-06
1.78514e-05
2.99019e-06
1.77059e-05
2.98847e-06
1.76322e-05
2.98742e-06
1.76487e-05
2.98848e-06
1.77573e-05
2.99262e-06
1.7945e-05
3.00042e-06
1.81959e-05
3.0125e-06
1.84973e-05
3.03148e-06
1.88447e-05
3.05909e-06
1.92192e-05
3.09496e-06
1.97122e-05
3.13181e-06
2.04106e-05
3.27309e-06
2.11208e-05
3.54625e-06
1.86995e-05
2.93811e-06
1.04993e-05
2.56933e-06
1.2594e-05
2.75784e-06
1.97009e-05
2.85578e-06
2.06617e-05
2.91149e-06
1.972e-05
2.95939e-06
1.89205e-05
2.99886e-06
1.82291e-05
3.02712e-06
1.75016e-05
3.03717e-06
1.67981e-05
3.03056e-06
1.63299e-05
3.02765e-06
1.63359e-05
3.05031e-06
1.68485e-05
3.1013e-06
1.76681e-05
3.17348e-06
1.85793e-05
3.26374e-06
1.95019e-05
3.37025e-06
2.04693e-05
3.48841e-06
2.16225e-05
3.58545e-06
2.33772e-05
3.79976e-06
2.39639e-05
3.0692e-06
1.258e-05
2.24553e-06
1.20835e-05
2.44674e-06
2.35494e-05
2.57094e-06
2.36572e-05
2.68058e-06
2.19703e-05
2.76562e-06
1.71304e-05
2.83345e-06
1.58056e-05
2.88635e-06
1.46502e-05
2.92731e-06
1.36285e-05
2.95859e-06
1.27226e-05
2.98191e-06
1.1921e-05
2.99883e-06
1.12137e-05
3.01087e-06
1.05892e-05
3.01936e-06
1.0034e-05
3.02539e-06
9.53455e-06
3.02977e-06
9.07865e-06
3.03303e-06
8.65675e-06
3.03553e-06
8.26182e-06
3.03749e-06
7.88902e-06
3.03907e-06
7.535e-06
3.04034e-06
7.19752e-06
3.04138e-06
6.87497e-06
3.04224e-06
6.56622e-06
3.04294e-06
6.27039e-06
3.04351e-06
5.98679e-06
3.04398e-06
5.71486e-06
3.04436e-06
5.45413e-06
3.04466e-06
5.20416e-06
3.04491e-06
4.96461e-06
3.0451e-06
4.73513e-06
3.04525e-06
4.51543e-06
3.04536e-06
4.30521e-06
3.04543e-06
4.10417e-06
3.04548e-06
3.91202e-06
3.72842e-06
3.00761e-06
3.74725e-06
3.00743e-06
3.95818e-06
3.00722e-06
4.17655e-06
3.00697e-06
4.407e-06
3.00659e-06
4.64878e-06
3.00603e-06
4.90115e-06
3.0052e-06
5.16376e-06
3.00411e-06
5.4366e-06
3.00277e-06
5.71982e-06
3.00121e-06
6.01348e-06
2.99952e-06
6.31744e-06
2.99778e-06
6.63115e-06
2.99613e-06
6.95372e-06
2.99471e-06
7.28402e-06
2.99366e-06
7.62129e-06
2.99307e-06
7.96635e-06
2.99291e-06
8.32327e-06
2.99304e-06
8.70054e-06
2.99324e-06
9.10979e-06
2.99331e-06
9.5611e-06
2.99302e-06
1.0057e-05
2.99215e-06
1.05901e-05
2.99061e-06
1.11466e-05
2.98854e-06
1.17132e-05
2.98632e-06
1.22811e-05
2.98437e-06
1.28463e-05
2.98305e-06
1.3408e-05
2.98256e-06
1.39674e-05
2.98287e-06
1.4527e-05
2.98378e-06
1.5091e-05
2.98508e-06
1.82609e-05
2.98588e-06
1.80431e-05
2.98564e-06
1.78516e-05
2.98419e-06
1.77074e-05
2.98208e-06
1.76343e-05
2.98048e-06
1.76503e-05
2.98068e-06
1.77571e-05
2.98359e-06
1.79421e-05
2.98967e-06
1.81898e-05
2.99986e-06
1.84871e-05
3.01593e-06
1.88286e-05
3.03243e-06
1.92027e-05
3.06088e-06
1.96838e-05
3.08585e-06
2.03857e-05
3.22153e-06
2.09851e-05
3.47902e-06
1.8442e-05
2.97347e-06
1.10049e-05
2.6469e-06
1.29205e-05
2.81065e-06
1.95371e-05
2.89455e-06
2.05778e-05
2.93666e-06
1.96779e-05
2.97465e-06
1.88825e-05
3.00783e-06
1.81959e-05
3.03122e-06
1.74782e-05
3.03841e-06
1.67909e-05
3.03073e-06
1.63376e-05
3.02659e-06
1.634e-05
3.04596e-06
1.68291e-05
3.09176e-06
1.76223e-05
3.15693e-06
1.85141e-05
3.23773e-06
1.94211e-05
3.33089e-06
2.03761e-05
3.42807e-06
2.15253e-05
3.50758e-06
2.32977e-05
3.69883e-06
2.37726e-05
3.05315e-06
1.32257e-05
2.34762e-06
1.2789e-05
2.53611e-06
2.33609e-05
2.63619e-06
2.35571e-05
2.72663e-06
2.18799e-05
2.80019e-06
1.70569e-05
2.86006e-06
1.57457e-05
2.90741e-06
1.46028e-05
2.94452e-06
1.35914e-05
2.97315e-06
1.26939e-05
2.99464e-06
1.18995e-05
3.01035e-06
1.1198e-05
3.02155e-06
1.0578e-05
3.02951e-06
1.00261e-05
3.0352e-06
9.52886e-06
3.03935e-06
9.0745e-06
3.04246e-06
8.65364e-06
3.04485e-06
8.25943e-06
3.04674e-06
7.88713e-06
3.04826e-06
7.53349e-06
3.04949e-06
7.19629e-06
3.0505e-06
6.87396e-06
3.05133e-06
6.56539e-06
3.05201e-06
6.26971e-06
3.05257e-06
5.98623e-06
3.05302e-06
5.71441e-06
3.05339e-06
5.45376e-06
3.05369e-06
5.20387e-06
3.05392e-06
4.96437e-06
3.05411e-06
4.73494e-06
3.05425e-06
4.51529e-06
3.05435e-06
4.30511e-06
3.05442e-06
4.1041e-06
3.05446e-06
3.91198e-06
3.72841e-06
3.00436e-06
3.74733e-06
3.00419e-06
3.95835e-06
3.00397e-06
4.17677e-06
3.00369e-06
4.40728e-06
3.00328e-06
4.64919e-06
3.00267e-06
4.90176e-06
3.00181e-06
5.16462e-06
3.00068e-06
5.43774e-06
2.99929e-06
5.72121e-06
2.99769e-06
6.01509e-06
2.99594e-06
6.31918e-06
2.99415e-06
6.63294e-06
2.99244e-06
6.95543e-06
2.99097e-06
7.28549e-06
2.98988e-06
7.62238e-06
2.98925e-06
7.96698e-06
2.98905e-06
8.32347e-06
2.98913e-06
8.70046e-06
2.98927e-06
9.10964e-06
2.98926e-06
9.56111e-06
2.98886e-06
1.00574e-05
2.98786e-06
1.05911e-05
2.98617e-06
1.11483e-05
2.98395e-06
1.17155e-05
2.98157e-06
1.22835e-05
2.97947e-06
1.28484e-05
2.978e-06
1.34095e-05
2.97736e-06
1.3968e-05
2.97752e-06
1.45268e-05
2.97827e-06
1.50903e-05
2.97934e-06
1.82598e-05
2.97989e-06
1.80425e-05
2.97934e-06
1.78522e-05
2.97754e-06
1.77092e-05
2.97496e-06
1.76369e-05
2.97271e-06
1.76526e-05
2.97194e-06
1.77579e-05
2.97344e-06
1.79406e-05
2.97747e-06
1.81858e-05
2.98418e-06
1.84804e-05
2.994e-06
1.88188e-05
3.00448e-06
1.91923e-05
3.02778e-06
1.96605e-05
3.03992e-06
2.03735e-05
3.17667e-06
2.08483e-05
3.42076e-06
1.81979e-05
3.00114e-06
1.14245e-05
2.71367e-06
1.3208e-05
2.85619e-06
1.93946e-05
2.92966e-06
2.05043e-05
2.96071e-06
1.96469e-05
2.98962e-06
1.88535e-05
3.0162e-06
1.81694e-05
3.035e-06
1.74594e-05
3.03914e-06
1.67868e-05
3.02994e-06
1.63468e-05
3.02405e-06
1.63459e-05
3.03966e-06
1.68135e-05
3.0797e-06
1.75822e-05
3.13733e-06
1.84565e-05
3.20836e-06
1.935e-05
3.28883e-06
2.02957e-05
3.36831e-06
2.14458e-05
3.43849e-06
2.32275e-05
3.61395e-06
2.35972e-05
3.04182e-06
1.37979e-05
2.43683e-06
1.3394e-05
2.61704e-06
2.31807e-05
2.70185e-06
2.34723e-05
2.77698e-06
2.18048e-05
2.83954e-06
1.69943e-05
2.89144e-06
1.56938e-05
2.93289e-06
1.45614e-05
2.96569e-06
1.35586e-05
2.99121e-06
1.26684e-05
3.01047e-06
1.18802e-05
3.02457e-06
1.11839e-05
3.03469e-06
1.05679e-05
3.04188e-06
1.00189e-05
3.04703e-06
9.52371e-06
3.05079e-06
9.07074e-06
3.05362e-06
8.65081e-06
3.05581e-06
8.25724e-06
3.05754e-06
7.8854e-06
3.05894e-06
7.53209e-06
3.06008e-06
7.19515e-06
3.06101e-06
6.87303e-06
3.06178e-06
6.56462e-06
3.06241e-06
6.26908e-06
3.06293e-06
5.98572e-06
3.06335e-06
5.71399e-06
3.06369e-06
5.45342e-06
3.06397e-06
5.20359e-06
3.06418e-06
4.96415e-06
3.06435e-06
4.73477e-06
3.06448e-06
4.51516e-06
3.06457e-06
4.30502e-06
3.06462e-06
4.10405e-06
3.06465e-06
3.91195e-06
3.7284e-06
3.00069e-06
3.74741e-06
3.00053e-06
3.95851e-06
3.00031e-06
4.17699e-06
3.00001e-06
4.40758e-06
2.99957e-06
4.64963e-06
2.99892e-06
4.9024e-06
2.99802e-06
5.16552e-06
2.99685e-06
5.43891e-06
2.99542e-06
5.72264e-06
2.99376e-06
6.01674e-06
2.99197e-06
6.32098e-06
2.99012e-06
6.63479e-06
2.98836e-06
6.95719e-06
2.98685e-06
7.28701e-06
2.98571e-06
7.62351e-06
2.98504e-06
7.96765e-06
2.9848e-06
8.32371e-06
2.98483e-06
8.70043e-06
2.98492e-06
9.10955e-06
2.98483e-06
9.5612e-06
2.98433e-06
1.00579e-05
2.98319e-06
1.05922e-05
2.98135e-06
1.11501e-05
2.97897e-06
1.17178e-05
2.97643e-06
1.2286e-05
2.97416e-06
1.28507e-05
2.97254e-06
1.34111e-05
2.97174e-06
1.39688e-05
2.97174e-06
1.45268e-05
2.97231e-06
1.50897e-05
2.97313e-06
1.8259e-05
2.97339e-06
1.80423e-05
2.9725e-06
1.78531e-05
2.97029e-06
1.77114e-05
2.9672e-06
1.764e-05
2.96422e-06
1.76556e-05
2.9624e-06
1.77597e-05
2.96239e-06
1.79406e-05
2.96428e-06
1.81839e-05
2.96793e-06
1.84767e-05
2.97421e-06
1.88125e-05
2.98112e-06
1.91853e-05
2.98999e-06
1.96516e-05
2.99873e-06
2.03648e-05
3.13595e-06
2.07111e-05
3.36824e-06
1.79656e-05
3.02025e-06
1.17725e-05
2.76771e-06
1.34606e-05
2.893e-06
1.92693e-05
2.9593e-06
2.0438e-05
2.9821e-06
1.96241e-05
3.00315e-06
1.88325e-05
3.02395e-06
1.81486e-05
3.03825e-06
1.74451e-05
3.0393e-06
1.67857e-05
3.0283e-06
1.63578e-05
3.02032e-06
1.63539e-05
3.03193e-06
1.68019e-05
3.06606e-06
1.75481e-05
3.11609e-06
1.84064e-05
3.17759e-06
1.92885e-05
3.24625e-06
2.0227e-05
3.31077e-06
2.13813e-05
3.37627e-06
2.3162e-05
3.54023e-06
2.34332e-05
3.03445e-06
1.43036e-05
2.51568e-06
1.39128e-05
2.69057e-06
2.30058e-05
2.76701e-06
2.33958e-05
2.82941e-06
2.17424e-05
2.8816e-06
1.69421e-05
2.92587e-06
1.56495e-05
2.96142e-06
1.45258e-05
2.98979e-06
1.35302e-05
3.01198e-06
1.26462e-05
3.02878e-06
1.18634e-05
3.04111e-06
1.11716e-05
3.04994e-06
1.05591e-05
3.0562e-06
1.00126e-05
3.06067e-06
9.51924e-06
3.06394e-06
9.06747e-06
3.0664e-06
8.64835e-06
3.0683e-06
8.25534e-06
3.06981e-06
7.88389e-06
3.07103e-06
7.53087e-06
3.07203e-06
7.19415e-06
3.07285e-06
6.87221e-06
3.07353e-06
6.56394e-06
3.07409e-06
6.26852e-06
3.07455e-06
5.98526e-06
3.07492e-06
5.71362e-06
3.07522e-06
5.45312e-06
3.07546e-06
5.20335e-06
3.07565e-06
4.96396e-06
3.07579e-06
4.73463e-06
3.07589e-06
4.51506e-06
3.07597e-06
4.30495e-06
3.07601e-06
4.10401e-06
3.07602e-06
3.91194e-06
3.7284e-06
2.99666e-06
3.74749e-06
2.9965e-06
3.95867e-06
2.99627e-06
4.17722e-06
2.99595e-06
4.40791e-06
2.99548e-06
4.6501e-06
2.9948e-06
4.90308e-06
2.99386e-06
5.16646e-06
2.99264e-06
5.44013e-06
2.99116e-06
5.72412e-06
2.98946e-06
6.01844e-06
2.98761e-06
6.32283e-06
2.98571e-06
6.63669e-06
2.9839e-06
6.959e-06
2.98233e-06
7.28857e-06
2.98116e-06
7.62469e-06
2.98045e-06
7.96835e-06
2.98017e-06
8.32399e-06
2.98017e-06
8.70043e-06
2.98021e-06
9.10951e-06
2.98004e-06
9.56136e-06
2.97943e-06
1.00585e-05
2.97816e-06
1.05935e-05
2.97617e-06
1.11521e-05
2.97362e-06
1.17204e-05
2.9709e-06
1.22888e-05
2.96846e-06
1.28531e-05
2.96667e-06
1.34129e-05
2.96571e-06
1.39698e-05
2.96554e-06
1.4527e-05
2.96592e-06
1.50893e-05
2.96648e-06
1.82584e-05
2.96642e-06
1.80423e-05
2.96517e-06
1.78543e-05
2.96252e-06
1.7714e-05
2.95886e-06
1.76436e-05
2.95511e-06
1.76593e-05
2.95219e-06
1.77626e-05
2.95067e-06
1.79422e-05
2.95051e-06
1.8184e-05
2.9514e-06