/*--------------------------------*- C++ -*----------------------------------*\
  =========                 |
  \\      /  F ield         | OpenFOAM: The Open Source CFD Toolbox
   \\    /   O peration     | Website:  https://openfoam.org
    \\  /    A nd           | Version:  9
     \\/     M anipulation  |
\*---------------------------------------------------------------------------*/
FoamFile
{
    format      ascii;
    class       volScalarField;
    location    "0.2";
    object      rAU;
}
// * * * * * * * * * * * * * * * * * * * * * * * * * * * * * * * * * * * * * //

dimensions      [-1 3 1 0 0 0 0];

internalField   nonuniform List<scalar> 
20000
(
5.69588e-06
6.54283e-06
6.58358e-06
6.62149e-06
6.65741e-06
6.69175e-06
6.72472e-06
6.75644e-06
6.78703e-06
6.81665e-06
6.84555e-06
6.87403e-06
6.90245e-06
6.9312e-06
6.96053e-06
6.99035e-06
7.01986e-06
7.04731e-06
7.07044e-06
7.08774e-06
7.09972e-06
7.10884e-06
7.1181e-06
7.12973e-06
7.14482e-06
7.16367e-06
7.18618e-06
7.21204e-06
7.2408e-06
7.2728e-06
7.334e-06
7.36135e-06
7.38529e-06
7.40373e-06
7.41291e-06
7.40987e-06
7.39434e-06
7.36836e-06
7.33414e-06
7.29275e-06
7.24412e-06
7.18616e-06
7.11233e-06
7.00299e-06
6.84181e-06
6.89505e-06
1.01364e-05
8.568e-06
6.87505e-06
6.93614e-06
7.09138e-06
7.20279e-06
7.29969e-06
7.40038e-06
7.50604e-06
7.5841e-06
7.57769e-06
7.48384e-06
7.35622e-06
7.22844e-06
7.10132e-06
6.96249e-06
6.79676e-06
6.57814e-06
6.36102e-06
9.8618e-06
9.82516e-06
6.42061e-06
6.57922e-06
6.78573e-06
6.88999e-06
6.97759e-06
7.04752e-06
7.10324e-06
7.14701e-06
7.17956e-06
7.20095e-06
7.21151e-06
7.21224e-06
7.2048e-06
7.19106e-06
7.17265e-06
7.15085e-06
7.12654e-06
7.10027e-06
7.07238e-06
7.04305e-06
7.01236e-06
6.98032e-06
6.94689e-06
6.91199e-06
6.87553e-06
6.83738e-06
6.7974e-06
6.75543e-06
6.71129e-06
6.66479e-06
6.61575e-06
6.564e-06
6.68494e-06
6.6682e-06
7.87047e-06
7.93956e-06
8.00454e-06
8.06605e-06
8.12446e-06
8.18e-06
8.23284e-06
8.28314e-06
8.3311e-06
8.37693e-06
8.4209e-06
8.46329e-06
8.5044e-06
8.54445e-06
8.58345e-06
8.62103e-06
8.65626e-06
8.68794e-06
8.71526e-06
8.73858e-06
8.75935e-06
8.77935e-06
8.79991e-06
8.82171e-06
8.84496e-06
8.86961e-06
8.89551e-06
8.92243e-06
8.95152e-06
9.02102e-06
9.0373e-06
9.05075e-06
9.06109e-06
9.06626e-06
9.06461e-06
9.05593e-06
9.04129e-06
9.02183e-06
8.99809e-06
8.96991e-06
8.93592e-06
8.89205e-06
8.82612e-06
8.72677e-06
8.77374e-06
1.02199e-05
9.6773e-06
8.79479e-06
8.80686e-06
8.8908e-06
8.95165e-06
9.00482e-06
9.06023e-06
9.11784e-06
9.16004e-06
9.15723e-06
9.10657e-06
9.03478e-06
8.96056e-06
8.8849e-06
8.80036e-06
8.6967e-06
8.55647e-06
8.41692e-06
1.0079e-05
1.01938e-05
8.5443e-06
8.60215e-06
8.71698e-06
8.74211e-06
8.77924e-06
8.80715e-06
8.82659e-06
8.83866e-06
8.84373e-06
8.84185e-06
8.83319e-06
8.8183e-06
8.79807e-06
8.77346e-06
8.74531e-06
8.71425e-06
8.6807e-06
8.64488e-06
8.60693e-06
8.56686e-06
8.52465e-06
8.48022e-06
8.43345e-06
8.38424e-06
8.33243e-06
8.27785e-06
8.22035e-06
8.15973e-06
8.09579e-06
8.02833e-06
7.95715e-06
7.88207e-06
8.05653e-06
6.66734e-06
7.87009e-06
7.9393e-06
8.00434e-06
8.06587e-06
8.12428e-06
8.17982e-06
8.23267e-06
8.28299e-06
8.33098e-06
8.37684e-06
8.42085e-06
8.46329e-06
8.50445e-06
8.54455e-06
8.5836e-06
8.6212e-06
8.65644e-06
8.68811e-06
8.71542e-06
8.73872e-06
8.75946e-06
8.77943e-06
8.79999e-06
8.82181e-06
8.84509e-06
8.86978e-06
8.89571e-06
8.92265e-06
8.95174e-06
9.0212e-06
9.03743e-06
9.05083e-06
9.06113e-06
9.06627e-06
9.06465e-06
9.05605e-06
9.04148e-06
9.02205e-06
8.99833e-06
8.9702e-06
8.93637e-06
8.89295e-06
8.82909e-06
8.73254e-06
8.80038e-06
1.01081e-05
9.66414e-06
8.82883e-06
8.82366e-06
8.9001e-06
8.95726e-06
9.00807e-06
9.06197e-06
9.11813e-06
9.15901e-06
9.15639e-06
9.10707e-06
9.03586e-06
8.9614e-06
8.88542e-06
8.80108e-06
8.69824e-06
8.56259e-06
8.43729e-06
9.94275e-06
1.00982e-05
8.59053e-06
8.62866e-06
8.73526e-06
8.75557e-06
8.78865e-06
8.81389e-06
8.83147e-06
8.84218e-06
8.84622e-06
8.84354e-06
8.8343e-06
8.819e-06
8.79849e-06
8.77369e-06
8.74542e-06
8.71427e-06
8.68065e-06
8.64479e-06
8.6068e-06
8.56669e-06
8.52444e-06
8.47998e-06
8.43319e-06
8.38394e-06
8.33211e-06
8.27751e-06
8.21998e-06
8.15934e-06
8.09538e-06
8.0279e-06
7.95671e-06
7.8816e-06
8.056e-06
6.66705e-06
7.8699e-06
7.93918e-06
8.00424e-06
8.06577e-06
8.12417e-06
8.17969e-06
8.23254e-06
8.28287e-06
8.33087e-06
8.37677e-06
8.42081e-06
8.4633e-06
8.50451e-06
8.54467e-06
8.58378e-06
8.62142e-06
8.65667e-06
8.68834e-06
8.71563e-06
8.7389e-06
8.7596e-06
8.77954e-06
8.80007e-06
8.82191e-06
8.84522e-06
8.86996e-06
8.89594e-06
8.92291e-06
8.95201e-06
9.02143e-06
9.03763e-06
9.05097e-06
9.0612e-06
9.06632e-06
9.06474e-06
9.05624e-06
9.0418e-06
9.02251e-06
8.99898e-06
8.97119e-06
8.93809e-06
8.8958e-06
8.83539e-06
8.74322e-06
8.83047e-06
9.99049e-06
9.63286e-06
8.8579e-06
8.8388e-06
8.90926e-06
8.96322e-06
9.0118e-06
9.06417e-06
9.1187e-06
9.15801e-06
9.15554e-06
9.10781e-06
9.03779e-06
8.96376e-06
8.88838e-06
8.80584e-06
8.7061e-06
8.57561e-06
8.46911e-06
9.82224e-06
9.98004e-06
8.62655e-06
8.6517e-06
8.75269e-06
8.76871e-06
8.79827e-06
8.82102e-06
8.83677e-06
8.84609e-06
8.84904e-06
8.84552e-06
8.83563e-06
8.81986e-06
8.79902e-06
8.77399e-06
8.74555e-06
8.71429e-06
8.68059e-06
8.64465e-06
8.6066e-06
8.56645e-06
8.52415e-06
8.47965e-06
8.43282e-06
8.38354e-06
8.33167e-06
8.27704e-06
8.21948e-06
8.15881e-06
8.09482e-06
8.02732e-06
7.95611e-06
7.88098e-06
8.05531e-06
6.66718e-06
7.86992e-06
7.93922e-06
8.00429e-06
8.06579e-06
8.12415e-06
8.17965e-06
8.23247e-06
8.28279e-06
8.33079e-06
8.37671e-06
8.42078e-06
8.46331e-06
8.50458e-06
8.54481e-06
8.58399e-06
8.62169e-06
8.65696e-06
8.68863e-06
8.7159e-06
8.73913e-06
8.75977e-06
8.77965e-06
8.80016e-06
8.822e-06
8.84536e-06
8.87015e-06
8.89619e-06
8.9232e-06
8.95232e-06
9.02171e-06
9.03788e-06
9.05116e-06
9.06132e-06
9.06641e-06
9.06489e-06
9.05652e-06
9.04226e-06
9.02321e-06
8.99999e-06
8.97276e-06
8.94077e-06
8.89989e-06
8.84303e-06
8.75716e-06
8.86172e-06
9.8831e-06
9.59243e-06
8.88054e-06
8.85076e-06
8.91715e-06
8.96879e-06
9.01557e-06
9.06657e-06
9.11947e-06
9.15714e-06
9.15485e-06
9.10895e-06
9.04053e-06
8.96749e-06
8.89331e-06
8.81336e-06
8.71769e-06
8.59205e-06
8.5042e-06
9.72139e-06
9.86033e-06
8.65212e-06
8.67034e-06
8.76791e-06
8.78045e-06
8.80726e-06
8.8279e-06
8.84202e-06
8.85004e-06
8.85196e-06
8.84759e-06
8.83704e-06
8.82077e-06
8.79957e-06
8.77429e-06
8.74567e-06
8.71427e-06
8.68046e-06
8.64445e-06
8.60632e-06
8.5661e-06
8.52375e-06
8.47919e-06
8.43232e-06
8.383e-06
8.33108e-06
8.27641e-06
8.21882e-06
8.15811e-06
8.09409e-06
8.02656e-06
7.95532e-06
7.88017e-06
8.05442e-06
6.66753e-06
7.87006e-06
7.93939e-06
8.00447e-06
8.06595e-06
8.12426e-06
8.17971e-06
8.23249e-06
8.28279e-06
8.33078e-06
8.3767e-06
8.42079e-06
8.46336e-06
8.50468e-06
8.54498e-06
8.58422e-06
8.62198e-06
8.65729e-06
8.68896e-06
8.71621e-06
8.7394e-06
8.75998e-06
8.7798e-06
8.80028e-06
8.82212e-06
8.84551e-06
8.87036e-06
8.89646e-06
8.92353e-06
8.95268e-06
9.02203e-06
9.03818e-06
9.05139e-06
9.06149e-06
9.06655e-06
9.06509e-06
9.05688e-06
9.04285e-06
9.0241e-06
9.0013e-06
8.97471e-06
8.94401e-06
8.90464e-06
8.85083e-06
8.77286e-06
8.89189e-06
9.79184e-06
9.55051e-06
8.89806e-06
8.85978e-06
8.9235e-06
8.97362e-06
9.01909e-06
9.06895e-06
9.12029e-06
9.15639e-06
9.15428e-06
9.11036e-06
9.04387e-06
8.97221e-06
8.89956e-06
8.82231e-06
8.73078e-06
8.60902e-06
8.5369e-06
9.63688e-06
9.75115e-06
8.66935e-06
8.68427e-06
8.78033e-06
8.79041e-06
8.81517e-06
8.83412e-06
8.84686e-06
8.85375e-06
8.85471e-06
8.84955e-06
8.83836e-06
8.82161e-06
8.80005e-06
8.7745e-06
8.74569e-06
8.71415e-06
8.68023e-06
8.64412e-06
8.60591e-06
8.56562e-06
8.52321e-06
8.47859e-06
8.43166e-06
8.38228e-06
8.33032e-06
8.27561e-06
8.21797e-06
8.15722e-06
8.09316e-06
8.02559e-06
7.95431e-06
7.87912e-06
8.05326e-06
6.6681e-06
7.87032e-06
7.93966e-06
8.00475e-06
8.06621e-06
8.12448e-06
8.17988e-06
8.23262e-06
8.28288e-06
8.33085e-06
8.37676e-06
8.42086e-06
8.46345e-06
8.50483e-06
8.54518e-06
8.5845e-06
8.62231e-06
8.65765e-06
8.68933e-06
8.71657e-06
8.73971e-06
8.76023e-06
8.77999e-06
8.80042e-06
8.82226e-06
8.84568e-06
8.87059e-06
8.89677e-06
8.92389e-06
8.95307e-06
9.02239e-06
9.03851e-06
9.05167e-06
9.0617e-06
9.06673e-06
9.06534e-06
9.05731e-06
9.04354e-06
9.02514e-06
9.00281e-06
8.97686e-06
8.9475e-06
8.90959e-06
8.85809e-06
8.78856e-06
8.91993e-06
9.71637e-06
9.51104e-06
8.91192e-06
8.86647e-06
8.92829e-06
8.97761e-06
9.0222e-06
9.07116e-06
9.12108e-06
9.15573e-06
9.15386e-06
9.11198e-06
9.04758e-06
8.97753e-06
8.90656e-06
8.8318e-06
8.74392e-06
8.62463e-06
8.56517e-06
9.56429e-06
9.65595e-06
8.68132e-06
8.69384e-06
8.78981e-06
8.7985e-06
8.82181e-06
8.83943e-06
8.85106e-06
8.85699e-06
8.85711e-06
8.85124e-06
8.83947e-06
8.82226e-06
8.80036e-06
8.77456e-06
8.74556e-06
8.71387e-06
8.67983e-06
8.64362e-06
8.60533e-06
8.56497e-06
8.52248e-06
8.4778e-06
8.43081e-06
8.38137e-06
8.32935e-06
8.27459e-06
8.2169e-06
8.1561e-06
8.09199e-06
8.02438e-06
7.95305e-06
7.87782e-06
8.05183e-06
6.66893e-06
7.8707e-06
7.94005e-06
8.00514e-06
8.06657e-06
8.1248e-06
8.18015e-06
8.23283e-06
8.28305e-06
8.331e-06
8.37689e-06
8.421e-06
8.46361e-06
8.50503e-06
8.54544e-06
8.58482e-06
8.62268e-06
8.65806e-06
8.68974e-06
8.71696e-06
8.74006e-06
8.76052e-06
8.7802e-06
8.80059e-06
8.82242e-06
8.84588e-06
8.87085e-06
8.89709e-06
8.92428e-06
8.9535e-06
9.02279e-06
9.03888e-06
9.05198e-06
9.06194e-06
9.06696e-06
9.06565e-06
9.0578e-06
9.0443e-06
9.02626e-06
9.00443e-06
8.9791e-06
8.951e-06
8.91442e-06
8.86449e-06
8.80316e-06
8.94549e-06
9.65402e-06
9.47519e-06
8.92318e-06
8.87134e-06
8.93164e-06
8.98072e-06
9.02483e-06
9.07311e-06
9.12177e-06
9.15514e-06
9.15357e-06
9.1137e-06
9.05148e-06
8.98315e-06
8.91389e-06
8.84129e-06
8.75631e-06
8.63811e-06
8.58906e-06
9.50119e-06
9.57439e-06
8.69045e-06
8.69991e-06
8.7966e-06
8.80473e-06
8.82708e-06
8.84374e-06
8.85449e-06
8.85964e-06
8.85905e-06
8.85256e-06
8.84026e-06
8.82264e-06
8.80042e-06
8.77439e-06
8.74521e-06
8.71339e-06
8.67923e-06
8.64293e-06
8.60455e-06
8.56411e-06
8.52155e-06
8.4768e-06
8.42974e-06
8.38024e-06
8.32816e-06
8.27333e-06
8.21559e-06
8.15473e-06
8.09057e-06
8.0229e-06
7.95152e-06
7.87624e-06
8.05009e-06
6.67001e-06
7.87121e-06
7.94054e-06
8.00562e-06
8.06703e-06
8.12521e-06
8.1805e-06
8.23313e-06
8.28331e-06
8.33122e-06
8.37709e-06
8.4212e-06
8.46383e-06
8.50528e-06
8.54575e-06
8.58519e-06
8.62311e-06
8.65851e-06
8.69019e-06
8.71739e-06
8.74045e-06
8.76084e-06
8.78045e-06
8.80079e-06
8.82261e-06
8.84611e-06
8.87114e-06
8.89745e-06
8.9247e-06
8.95396e-06
9.02321e-06
9.03928e-06
9.05233e-06
9.06223e-06
9.06723e-06
9.06599e-06
9.05833e-06
9.0451e-06
9.02742e-06
9.00609e-06
8.98135e-06
8.95431e-06
8.91891e-06
8.87e-06
8.8165e-06
8.96875e-06
9.60227e-06
9.44297e-06
8.93251e-06
8.87486e-06
8.93372e-06
8.98298e-06
9.02694e-06
9.07475e-06
9.12232e-06
9.15459e-06
9.15336e-06
9.11545e-06
9.0554e-06
8.98882e-06
8.92123e-06
8.85048e-06
8.7676e-06
8.64958e-06
8.60945e-06
9.44591e-06
9.50503e-06
8.69821e-06
8.70346e-06
8.8012e-06
8.80926e-06
8.83101e-06
8.84699e-06
8.8571e-06
8.86163e-06
8.86046e-06
8.85343e-06
8.84068e-06
8.8227e-06
8.8002e-06
8.77396e-06
8.74462e-06
8.71267e-06
8.6784e-06
8.64201e-06
8.60355e-06
8.56302e-06
8.52039e-06
8.47557e-06
8.42844e-06
8.37887e-06
8.32672e-06
8.27183e-06
8.21402e-06
8.1531e-06
8.08887e-06
8.02114e-06
7.9497e-06
7.87436e-06
8.04802e-06
6.67135e-06
7.87184e-06
7.94115e-06
8.00621e-06
8.06758e-06
8.12571e-06
8.18094e-06
8.23351e-06
8.28363e-06
8.33151e-06
8.37736e-06
8.42145e-06
8.4641e-06
8.50559e-06
8.54612e-06
8.58562e-06
8.62358e-06
8.65901e-06
8.69069e-06
8.71786e-06
8.74086e-06
8.76118e-06
8.78072e-06
8.80101e-06
8.82283e-06
8.84636e-06
8.87145e-06
8.89784e-06
8.92514e-06
8.95445e-06
9.02365e-06
9.03971e-06
9.0527e-06
9.06254e-06
9.06752e-06
9.06635e-06
9.05887e-06
9.04592e-06
9.02856e-06
9.00765e-06
8.98348e-06
8.95721e-06
8.92306e-06
8.8747e-06
8.82897e-06
8.99019e-06
9.55944e-06
9.41437e-06
8.94043e-06
8.87754e-06
8.93482e-06
8.98451e-06
9.02857e-06
9.07604e-06
9.1227e-06
9.15403e-06
9.15318e-06
9.11714e-06
9.05922e-06
8.99434e-06
8.92833e-06
8.85916e-06
8.77771e-06
8.65949e-06
8.62725e-06
9.3972e-06
9.44611e-06
8.70545e-06
8.70536e-06
8.80414e-06
8.81232e-06
8.83373e-06
8.84925e-06
8.85888e-06
8.86295e-06
8.86131e-06
8.85384e-06
8.84071e-06
8.82242e-06
8.79968e-06
8.77325e-06
8.74377e-06
8.7117e-06
8.67734e-06
8.64085e-06
8.60231e-06
8.56171e-06
8.519e-06
8.4741e-06
8.4269e-06
8.37726e-06
8.32504e-06
8.27007e-06
8.21219e-06
8.1512e-06
8.0869e-06
8.0191e-06
7.9476e-06
7.87219e-06
8.04564e-06
6.67292e-06
7.87258e-06
7.94187e-06
8.00689e-06
8.06822e-06
8.12629e-06
8.18146e-06
8.23397e-06
8.28403e-06
8.33186e-06
8.37768e-06
8.42177e-06
8.46443e-06
8.50596e-06
8.54654e-06
8.58609e-06
8.62411e-06
8.65956e-06
8.69123e-06
8.71836e-06
8.74131e-06
8.76156e-06
8.78102e-06
8.80126e-06
8.82307e-06
8.84663e-06
8.87179e-06
8.89824e-06
8.92562e-06
8.95497e-06
9.02411e-06
9.04015e-06
9.05309e-06
9.06287e-06
9.06783e-06
9.06673e-06
9.05942e-06
9.04671e-06
9.02966e-06
9.00915e-06
8.98557e-06
8.95971e-06
8.92666e-06
8.87852e-06
8.84118e-06
9.01028e-06
9.52426e-06
9.38941e-06
8.94739e-06
8.87982e-06
8.93529e-06
8.98547e-06
9.0298e-06
9.07705e-06
9.12291e-06
9.15344e-06
9.15298e-06
9.11871e-06
9.06281e-06
8.99955e-06
8.93501e-06
8.86719e-06
8.78667e-06
8.66837e-06
8.64322e-06
9.35427e-06
9.39602e-06
8.71258e-06
8.7063e-06
8.80582e-06
8.81414e-06
8.83539e-06
8.85061e-06
8.85992e-06
8.86363e-06
8.86162e-06
8.8538e-06
8.84035e-06
8.82179e-06
8.79885e-06
8.77226e-06
8.74266e-06
8.71048e-06
8.67603e-06
8.63946e-06
8.60083e-06
8.56016e-06
8.51737e-06
8.4724e-06
8.42512e-06
8.3754e-06
8.3231e-06
8.26806e-06
8.2101e-06
8.14903e-06
8.08466e-06
8.01679e-06
7.94521e-06
7.86972e-06
8.04293e-06
6.67469e-06
7.87343e-06
7.94268e-06
8.00766e-06
8.06894e-06
8.12695e-06
8.18205e-06
8.23449e-06
8.2845e-06
8.33228e-06
8.37807e-06
8.42215e-06
8.46482e-06
8.50638e-06
8.54701e-06
8.58662e-06
8.62468e-06
8.66015e-06
8.69181e-06
8.71891e-06
8.74179e-06
8.76196e-06
8.78135e-06
8.80153e-06
8.82333e-06
8.84693e-06
8.87215e-06
8.89868e-06
8.92611e-06
8.9555e-06
9.02459e-06
9.04061e-06
9.05349e-06
9.06321e-06
9.06815e-06
9.06711e-06
9.05995e-06
9.04746e-06
9.03068e-06
9.01049e-06
8.98732e-06
8.96181e-06
8.9298e-06
8.88186e-06
8.85304e-06
9.02929e-06
9.49551e-06
9.3679e-06
8.95377e-06
8.88202e-06
8.93538e-06
8.986e-06
9.03069e-06
9.0778e-06
9.12295e-06
9.15278e-06
9.15271e-06
9.12009e-06
9.0661e-06
9.00437e-06
8.94115e-06
8.87448e-06
8.79453e-06
8.67657e-06
8.65789e-06
9.31649e-06
9.35334e-06
8.71973e-06
8.70675e-06
8.80654e-06
8.81494e-06
8.83618e-06
8.85119e-06
8.86028e-06
8.86374e-06
8.86144e-06
8.85332e-06
8.83961e-06
8.82083e-06
8.79772e-06
8.771e-06
8.74128e-06
8.70901e-06
8.67448e-06
8.63783e-06
8.59913e-06
8.55838e-06
8.51551e-06
8.47046e-06
8.4231e-06
8.3733e-06
8.32093e-06
8.2658e-06
8.20776e-06
8.14661e-06
8.08216e-06
8.0142e-06
7.94254e-06
7.86697e-06
8.03992e-06
6.67663e-06
7.87436e-06
7.94357e-06
8.00851e-06
8.06973e-06
8.12768e-06
8.18271e-06
8.23508e-06
8.28503e-06
8.33276e-06
8.37852e-06
8.42258e-06
8.46526e-06
8.50685e-06
8.54753e-06
8.5872e-06
8.6253e-06
8.66078e-06
8.69243e-06
8.71948e-06
8.74231e-06
8.76239e-06
8.7817e-06
8.80183e-06
8.82362e-06
8.84724e-06
8.87253e-06
8.89913e-06
8.92663e-06
8.95606e-06
9.02508e-06
9.04108e-06
9.05391e-06
9.06356e-06
9.06847e-06
9.06748e-06
9.06045e-06
9.04816e-06
9.0316e-06
9.01166e-06
8.98886e-06
8.96361e-06
8.93206e-06
8.88488e-06
8.86449e-06
9.04734e-06
9.47193e-06
9.34936e-06
8.95973e-06
8.88431e-06
8.9353e-06
8.98622e-06
9.0313e-06
9.07831e-06
9.12282e-06
9.15204e-06
9.15235e-06
9.12125e-06
9.06906e-06
9.00873e-06
8.94669e-06
8.88099e-06
8.80135e-06
8.68427e-06
8.67157e-06
9.2834e-06
9.3169e-06
8.72688e-06
8.70698e-06
8.80648e-06
8.81488e-06
8.83623e-06
8.8511e-06
8.86006e-06
8.86333e-06
8.8608e-06
8.85245e-06
8.83852e-06
8.81956e-06
8.79631e-06
8.76947e-06
8.73966e-06
8.70731e-06
8.6727e-06
8.63598e-06
8.5972e-06
8.55637e-06
8.51343e-06
8.4683e-06
8.42086e-06
8.37098e-06
8.31852e-06
8.26331e-06
8.20518e-06
8.14394e-06
8.0794e-06
8.01135e-06
7.9396e-06
7.86395e-06
8.03661e-06
6.67875e-06
7.87539e-06
7.94455e-06
8.00944e-06
8.0706e-06
8.12848e-06
8.18343e-06
8.23574e-06
8.28562e-06
8.3333e-06
8.37902e-06
8.42307e-06
8.46576e-06
8.50738e-06
8.5481e-06
8.58782e-06
8.62596e-06
8.66146e-06
8.69309e-06
8.7201e-06
8.74285e-06
8.76284e-06
8.78207e-06
8.80214e-06
8.82392e-06
8.84758e-06
8.87293e-06
8.89961e-06
8.92717e-06
8.95663e-06
9.02558e-06
9.04156e-06
9.05433e-06
9.06391e-06
9.06878e-06
9.06783e-06
9.06091e-06
9.04878e-06
9.03241e-06
9.01268e-06
8.99014e-06
8.96505e-06
8.93372e-06
8.88774e-06
8.87567e-06
9.06454e-06
9.4524e-06
9.33326e-06
8.96533e-06
8.88671e-06
8.93517e-06
8.98624e-06
9.0317e-06
9.07862e-06
9.12255e-06
9.15121e-06
9.15186e-06
9.12217e-06
9.07166e-06
9.01262e-06
8.95163e-06
8.88671e-06
8.80719e-06
8.69152e-06
8.68448e-06
9.25461e-06
9.2858e-06
8.73402e-06
8.70709e-06
8.80572e-06
8.81414e-06
8.83567e-06
8.85047e-06
8.85934e-06
8.86248e-06
8.85977e-06
8.85122e-06
8.83711e-06
8.81801e-06
8.79463e-06
8.7677e-06
8.73781e-06
8.70538e-06
8.6707e-06
8.63391e-06
8.59506e-06
8.55416e-06
8.51114e-06
8.46592e-06
8.41839e-06
8.36843e-06
8.31588e-06
8.26058e-06
8.20236e-06
8.14102e-06
8.07639e-06
8.00825e-06
7.93641e-06
7.86066e-06
8.03301e-06
6.68104e-06
7.87649e-06
7.9456e-06
8.01044e-06
8.07154e-06
8.12935e-06
8.18423e-06
8.23646e-06
8.28627e-06
8.33389e-06
8.37958e-06
8.42361e-06
8.4663e-06
8.50795e-06
8.54873e-06
8.5885e-06
8.62668e-06
8.66219e-06
8.69379e-06
8.72075e-06
8.74342e-06
8.76332e-06
8.78246e-06
8.80248e-06
8.82424e-06
8.84794e-06
8.87335e-06
8.9001e-06
8.92772e-06
8.95722e-06
9.02609e-06
9.04204e-06
9.05475e-06
9.06426e-06
9.06909e-06
9.06815e-06
9.06132e-06
9.04934e-06
9.03313e-06
9.01353e-06
8.9912e-06
8.96619e-06
8.93487e-06
8.89041e-06
8.88662e-06
9.08101e-06
9.43604e-06
9.31916e-06
8.9706e-06
8.88924e-06
8.93504e-06
8.98613e-06
9.03195e-06
9.07876e-06
9.12214e-06
9.15028e-06
9.15124e-06
9.12283e-06
9.07387e-06
9.01604e-06
8.956e-06
8.89171e-06
8.81215e-06
8.6983e-06
8.6968e-06
9.2298e-06
9.25937e-06
8.74119e-06
8.70712e-06
8.80422e-06
8.81296e-06
8.83457e-06
8.84934e-06
8.85818e-06
8.86123e-06
8.85838e-06
8.84968e-06
8.83542e-06
8.81619e-06
8.79271e-06
8.7657e-06
8.73573e-06
8.70324e-06
8.66849e-06
8.63163e-06
8.59272e-06
8.55173e-06
8.50863e-06
8.46333e-06
8.41572e-06
8.36566e-06
8.31302e-06
8.25762e-06
8.1993e-06
8.13787e-06
8.07314e-06
8.0049e-06
7.93296e-06
7.85711e-06
8.02913e-06
6.68349e-06
7.87768e-06
7.94674e-06
8.01152e-06
8.07255e-06
8.13029e-06
8.18509e-06
8.23724e-06
8.28698e-06
8.33455e-06
8.38019e-06
8.4242e-06
8.4669e-06
8.50858e-06
8.5494e-06
8.58922e-06
8.62744e-06
8.66296e-06
8.69453e-06
8.72143e-06
8.74402e-06
8.76383e-06
8.78287e-06
8.80283e-06
8.82458e-06
8.84831e-06
8.87379e-06
8.90061e-06
8.92829e-06
8.95782e-06
9.0266e-06
9.04253e-06
9.05517e-06
9.0646e-06
9.06938e-06
9.06845e-06
9.06169e-06
9.04982e-06
9.03373e-06
9.01424e-06
8.99203e-06
8.96704e-06
8.93561e-06
8.89299e-06
8.8975e-06
9.09671e-06
9.42232e-06
9.30689e-06
8.97568e-06
8.89191e-06
8.93494e-06
8.98594e-06
9.03207e-06
9.07878e-06
9.12163e-06
9.14926e-06
9.15049e-06
9.12325e-06
9.07573e-06
9.019e-06
8.95983e-06
8.89604e-06
8.81632e-06
8.7046e-06
8.7087e-06
9.20869e-06
9.2373e-06
8.74847e-06
8.70728e-06
8.80199e-06
8.81122e-06
8.83307e-06
8.84783e-06
8.85665e-06
8.85963e-06
8.85668e-06
8.84786e-06
8.83348e-06
8.81414e-06
8.79057e-06
8.76349e-06
8.73346e-06
8.70091e-06
8.6661e-06
8.62917e-06
8.59018e-06
8.54912e-06
8.50594e-06
8.46055e-06
8.41284e-06
8.36269e-06
8.30995e-06
8.25445e-06
8.19603e-06
8.13449e-06
8.06965e-06
8.00131e-06
7.92926e-06
7.85332e-06
8.02498e-06
6.68606e-06
7.87892e-06
7.94793e-06
8.01265e-06
8.07363e-06
8.13129e-06
8.18601e-06
8.23808e-06
8.28775e-06
8.33525e-06
8.38086e-06
8.42485e-06
8.46755e-06
8.50925e-06
8.55012e-06
8.58999e-06
8.62824e-06
8.66377e-06
8.69531e-06
8.72215e-06
8.74465e-06
8.76435e-06
8.78331e-06
8.8032e-06
8.82494e-06
8.8487e-06
8.87424e-06
8.90113e-06
8.92887e-06
8.95843e-06
9.02712e-06
9.04301e-06
9.05558e-06
9.06493e-06
9.06965e-06
9.06872e-06
9.06201e-06
9.05023e-06
9.03422e-06
9.0148e-06
8.99266e-06
8.96762e-06
8.93602e-06
8.89553e-06
8.90865e-06
9.11202e-06
9.41085e-06
9.29641e-06
8.98081e-06
8.89484e-06
8.93496e-06
8.98572e-06
9.03212e-06
9.07869e-06
9.12102e-06
9.14817e-06
9.14963e-06
9.12345e-06
9.07724e-06
9.02154e-06
8.96312e-06
8.89979e-06
8.81983e-06
8.71048e-06
8.72034e-06
9.19073e-06
9.21911e-06
8.75592e-06
8.7075e-06
8.79948e-06
8.80905e-06
8.83116e-06
8.84597e-06
8.8548e-06
8.85774e-06
8.85472e-06
8.84579e-06
8.83131e-06
8.81188e-06
8.78824e-06
8.7611e-06
8.73101e-06
8.6984e-06
8.66352e-06
8.62653e-06
8.58746e-06
8.54632e-06
8.50305e-06
8.45757e-06
8.40977e-06
8.35952e-06
8.30667e-06
8.25107e-06
8.19254e-06
8.1309e-06
8.06594e-06
7.99749e-06
7.92533e-06
7.84928e-06
8.02056e-06
6.68876e-06
7.88022e-06
7.94918e-06
8.01385e-06
8.07475e-06
8.13234e-06
8.18698e-06
8.23897e-06
8.28857e-06
8.33601e-06
8.38157e-06
8.42554e-06
8.46824e-06
8.50997e-06
8.55088e-06
8.5908e-06
8.62909e-06
8.66461e-06
8.69613e-06
8.72289e-06
8.7453e-06
8.7649e-06
8.78376e-06
8.80359e-06
8.82531e-06
8.84911e-06
8.87471e-06
8.90167e-06
8.92947e-06
8.95906e-06
9.02764e-06
9.0435e-06
9.05599e-06
9.06525e-06
9.0699e-06
9.06895e-06
9.06228e-06
9.05055e-06
9.0346e-06
9.01521e-06
8.99308e-06
8.96792e-06
8.93615e-06
8.89804e-06
8.91977e-06
9.12672e-06
9.40117e-06
9.28766e-06
8.98622e-06
8.89812e-06
8.93518e-06
8.98551e-06
9.03211e-06
9.07854e-06
9.12036e-06
9.14702e-06
9.14866e-06
9.12343e-06
9.07844e-06
9.02375e-06
8.96602e-06
8.90313e-06
8.82273e-06
8.71604e-06
8.73185e-06
9.17556e-06
9.20429e-06
8.76368e-06
8.70727e-06
8.79646e-06
8.80649e-06
8.82895e-06
8.84382e-06
8.85267e-06
8.8556e-06
8.85251e-06
8.84351e-06
8.82894e-06
8.80944e-06
8.78574e-06
8.75853e-06
8.72839e-06
8.69572e-06
8.66078e-06
8.62371e-06
8.58457e-06
8.54335e-06
8.49999e-06
8.45441e-06
8.40651e-06
8.35615e-06
8.3032e-06
8.24748e-06
8.18884e-06
8.12708e-06
8.06201e-06
7.99344e-06
7.92116e-06
7.845e-06
8.01589e-06
6.69158e-06
7.88157e-06
7.95048e-06
8.01509e-06
8.07593e-06
8.13344e-06
8.188e-06
8.23991e-06
8.28944e-06
8.33682e-06
8.38233e-06
8.42628e-06
8.46899e-06
8.51074e-06
8.55169e-06
8.59166e-06
8.62998e-06
8.6655e-06
8.69697e-06
8.72367e-06
8.74598e-06
8.76547e-06
8.78422e-06
8.80399e-06
8.8257e-06
8.84953e-06
8.87519e-06
8.90222e-06
8.93008e-06
8.95969e-06
9.02816e-06
9.04398e-06
9.0564e-06
9.06556e-06
9.07013e-06
9.06915e-06
9.06249e-06
9.0508e-06
9.03488e-06
9.01548e-06
8.99331e-06
8.96796e-06
8.93604e-06
8.90056e-06
8.93083e-06
9.14052e-06
9.39275e-06
9.28045e-06
8.99204e-06
8.90181e-06
8.93561e-06
8.98535e-06
9.03208e-06
9.07834e-06
9.11965e-06
9.14584e-06
9.14761e-06
9.12324e-06
9.07936e-06
9.02555e-06
8.96836e-06
8.9059e-06
8.82497e-06
8.72153e-06
8.74337e-06
9.1629e-06
9.19232e-06
8.77227e-06
8.70717e-06
8.79311e-06
8.80357e-06
8.82646e-06
8.84143e-06
8.85031e-06
8.85323e-06
8.85011e-06
8.84104e-06
8.8264e-06
8.80683e-06
8.78307e-06
8.75581e-06
8.72561e-06
8.69288e-06
8.65788e-06
8.62074e-06
8.58152e-06
8.5402e-06
8.49675e-06
8.45108e-06
8.40307e-06
8.3526e-06
8.29953e-06
8.2437e-06
8.18493e-06
8.12305e-06
8.05786e-06
7.98916e-06
7.91676e-06
7.84048e-06
8.01096e-06
6.69452e-06
7.88298e-06
7.95182e-06
8.01638e-06
8.07716e-06
8.1346e-06
8.18908e-06
8.24091e-06
8.29036e-06
8.33768e-06
8.38315e-06
8.42707e-06
8.46978e-06
8.51156e-06
8.55255e-06
8.59256e-06
8.63091e-06
8.66643e-06
8.69786e-06
8.72447e-06
8.74667e-06
8.76605e-06
8.7847e-06
8.8044e-06
8.82609e-06
8.84996e-06
8.87569e-06
8.90279e-06
8.93069e-06
8.96033e-06
9.02868e-06
9.04446e-06
9.05679e-06
9.06586e-06
9.07034e-06
9.06931e-06
9.06265e-06
9.05098e-06
9.03506e-06
9.01562e-06
8.99336e-06
8.96777e-06
8.93575e-06
8.90317e-06
8.94181e-06
9.15318e-06
9.38509e-06
9.27446e-06
8.99824e-06
8.90585e-06
8.93625e-06
8.98522e-06
9.03204e-06
9.07811e-06
9.11891e-06
9.14462e-06
9.14649e-06
9.12288e-06
9.08002e-06
9.02707e-06
8.97047e-06
8.9084e-06
8.82678e-06
8.72674e-06
8.75499e-06
9.15254e-06
9.18258e-06
8.78131e-06
8.70727e-06
8.78954e-06
8.80038e-06
8.82376e-06
8.83883e-06
8.84775e-06
8.85068e-06
8.84753e-06
8.8384e-06
8.8237e-06
8.80407e-06
8.78025e-06
8.75293e-06
8.72268e-06
8.68989e-06
8.65482e-06
8.6176e-06
8.5783e-06
8.53689e-06
8.49334e-06
8.44756e-06
8.39944e-06
8.34885e-06
8.29566e-06
8.23971e-06
8.18081e-06
8.1188e-06
8.05348e-06
7.98465e-06
7.91213e-06
7.83572e-06
8.00576e-06
6.6976e-06
7.88444e-06
7.95322e-06
8.01772e-06
8.07843e-06
8.1358e-06
8.1902e-06
8.24195e-06
8.29133e-06
8.33858e-06
8.384e-06
8.4279e-06
8.47061e-06
8.51242e-06
8.55346e-06
8.59351e-06
8.63188e-06
8.66739e-06
8.69877e-06
8.72529e-06
8.74739e-06
8.76664e-06
8.78519e-06
8.80482e-06
8.8265e-06
8.8504e-06
8.87619e-06
8.90337e-06
8.93132e-06
8.96097e-06
9.0292e-06
9.04493e-06
9.05718e-06
9.06614e-06
9.07053e-06
9.06945e-06
9.06277e-06
9.0511e-06
9.03516e-06
9.01565e-06
8.99327e-06
8.96739e-06
8.93536e-06
8.90595e-06
8.9527e-06
9.16456e-06
9.37782e-06
9.26935e-06
9.00468e-06
8.91014e-06
8.937e-06
8.9851e-06
9.03196e-06
9.07785e-06
9.11815e-06
9.14339e-06
9.14532e-06
9.1224e-06
9.08048e-06
9.02833e-06
8.97226e-06
8.91039e-06
8.8285e-06
8.73208e-06
8.7669e-06
9.14434e-06
9.1747e-06
8.79087e-06
8.70768e-06
8.78577e-06
8.79694e-06
8.82087e-06
8.83606e-06
8.84501e-06
8.84794e-06
8.84477e-06
8.8356e-06
8.82084e-06
8.80115e-06
8.77728e-06
8.74991e-06
8.7196e-06
8.68675e-06
8.65161e-06
8.61431e-06
8.57491e-06
8.53341e-06
8.48976e-06
8.44386e-06
8.39563e-06
8.34492e-06
8.2916e-06
8.23551e-06
8.17648e-06
8.11433e-06
8.04887e-06
7.9799e-06
7.90724e-06
7.8307e-06
8.00029e-06
6.70083e-06
7.88597e-06
7.95468e-06
8.01911e-06
8.07976e-06
8.13706e-06
8.19138e-06
8.24305e-06
8.29235e-06
8.33954e-06
8.38491e-06
8.42878e-06
8.47149e-06
8.51333e-06
8.55441e-06
8.59451e-06
8.6329e-06
8.66839e-06
8.69971e-06
8.72614e-06
8.74812e-06
8.76725e-06
8.78569e-06
8.80526e-06
8.82692e-06
8.85085e-06
8.87671e-06
8.90395e-06
8.93196e-06
8.96162e-06
9.02972e-06
9.0454e-06
9.05756e-06
9.06642e-06
9.07071e-06
9.06956e-06
9.06286e-06
9.05117e-06
9.0352e-06
9.0156e-06
8.99307e-06
8.96688e-06
8.93498e-06
8.90903e-06
8.96349e-06
9.17464e-06
9.37075e-06
9.26484e-06
9.01117e-06
8.91453e-06
8.93776e-06
8.98493e-06
9.03184e-06
9.07755e-06
9.11738e-06
9.14215e-06
9.14412e-06
9.12181e-06
9.08076e-06
9.02938e-06
8.97381e-06
8.91208e-06
8.83005e-06
8.73776e-06
8.77948e-06
9.1383e-06
9.16816e-06
8.80077e-06
8.70848e-06
8.78181e-06
8.79324e-06
8.8178e-06
8.83312e-06
8.84209e-06
8.84504e-06
8.84186e-06
8.83264e-06
8.81783e-06
8.79809e-06
8.77417e-06
8.74674e-06
8.71638e-06
8.68346e-06
8.64824e-06
8.61086e-06
8.57137e-06
8.52977e-06
8.486e-06
8.43999e-06
8.39163e-06
8.34079e-06
8.28734e-06
8.23111e-06
8.17194e-06
8.10964e-06
8.04404e-06
7.97492e-06
7.90211e-06
7.82543e-06
7.99453e-06
6.70424e-06
7.88757e-06
7.95621e-06
8.02057e-06
8.08115e-06
8.13836e-06
8.19261e-06
8.24419e-06
8.29341e-06
8.34053e-06
8.38586e-06
8.4297e-06
8.47242e-06
8.51428e-06
8.5554e-06
8.59555e-06
8.63396e-06
8.66943e-06
8.70069e-06
8.72702e-06
8.74887e-06
8.76788e-06
8.7862e-06
8.8057e-06
8.82735e-06
8.85132e-06
8.87724e-06
8.90455e-06
8.93261e-06
8.96228e-06
9.03024e-06
9.04588e-06
9.05794e-06
9.06668e-06
9.07088e-06
9.06966e-06
9.06292e-06
9.0512e-06
9.03518e-06
9.01549e-06
8.99277e-06
8.96627e-06
8.93469e-06
8.9125e-06
8.97428e-06
9.18358e-06
9.36389e-06
9.26077e-06
9.0176e-06
8.91891e-06
8.93845e-06
8.98465e-06
9.03165e-06
9.07723e-06
9.1166e-06
9.14091e-06
9.14288e-06
9.12113e-06
9.08089e-06
9.03023e-06
8.97514e-06
8.91348e-06
8.83147e-06
8.74381e-06
8.79303e-06
9.13446e-06
9.16286e-06
8.81099e-06
8.70973e-06
8.77767e-06
8.78924e-06
8.81452e-06
8.83001e-06
8.839e-06
8.84197e-06
8.83878e-06
8.82953e-06
8.81468e-06
8.79489e-06
8.77091e-06
8.74343e-06
8.713e-06
8.68001e-06
8.64472e-06
8.60725e-06
8.56766e-06
8.52595e-06
8.48207e-06
8.43594e-06
8.38745e-06
8.33648e-06
8.28288e-06
8.22651e-06
8.16719e-06
8.10474e-06
8.03897e-06
7.96969e-06
7.8967e-06
7.81985e-06
7.98839e-06
6.70783e-06
7.88924e-06
7.9578e-06
8.02209e-06
8.08259e-06
8.13972e-06
8.19388e-06
8.24538e-06
8.29452e-06
8.34157e-06
8.38685e-06
8.43067e-06
8.47338e-06
8.51527e-06
8.55644e-06
8.59663e-06
8.63506e-06
8.67051e-06
8.70169e-06
8.72792e-06
8.74964e-06
8.76851e-06
8.78672e-06
8.80615e-06
8.82779e-06
8.85179e-06
8.87778e-06
8.90516e-06
8.93326e-06
8.96295e-06
9.03077e-06
9.04634e-06
9.05832e-06
9.06694e-06
9.07103e-06
9.06974e-06
9.06295e-06
9.0512e-06
9.03512e-06
9.01531e-06
8.99239e-06
8.96559e-06
8.93452e-06
8.91643e-06
8.98512e-06
9.19161e-06
9.35739e-06
9.2571e-06
9.02391e-06
8.92323e-06
8.93902e-06
8.98427e-06
9.03139e-06
9.07687e-06
9.11581e-06
9.13968e-06
9.14162e-06
9.12037e-06
9.08087e-06
9.0309e-06
8.97626e-06
8.91459e-06
8.83279e-06
8.7503e-06
8.80771e-06
9.13281e-06
9.15882e-06
8.82165e-06
8.71158e-06
8.77339e-06
8.78487e-06
8.81099e-06
8.8267e-06
8.83573e-06
8.83873e-06
8.83554e-06
8.82627e-06
8.81138e-06
8.79154e-06
8.76752e-06
8.73998e-06
8.70949e-06
8.67643e-06
8.64105e-06
8.60349e-06
8.5638e-06
8.52198e-06
8.47798e-06
8.43172e-06
8.3831e-06
8.33199e-06
8.27825e-06
8.22173e-06
8.16225e-06
8.09965e-06
8.03373e-06
7.9643e-06
7.89118e-06
7.81419e-06
7.98223e-06
6.71159e-06
7.89099e-06
7.95946e-06
8.02366e-06
8.08408e-06
8.14113e-06
8.1952e-06
8.24661e-06
8.29567e-06
8.34265e-06
8.38787e-06
8.43167e-06
8.47438e-06
8.5163e-06
8.55752e-06
8.59775e-06
8.63619e-06
8.67162e-06
8.70273e-06
8.72884e-06
8.75042e-06
8.76915e-06
8.78725e-06
8.8066e-06
8.82823e-06
8.85227e-06
8.87833e-06
8.90578e-06
8.93393e-06
8.96362e-06
9.03129e-06
9.04681e-06
9.05868e-06
9.06719e-06
9.07117e-06
9.0698e-06
9.06296e-06
9.05116e-06
9.03502e-06
9.01508e-06
8.99193e-06
8.96485e-06
8.9345e-06
8.92083e-06
8.99606e-06
9.19901e-06
9.35141e-06
9.25389e-06
9.03013e-06
8.92753e-06
8.93953e-06
8.98379e-06
9.03107e-06
9.07649e-06
9.11502e-06
9.13845e-06
9.14034e-06
9.11954e-06
9.0807e-06
9.03136e-06
8.97712e-06
8.91536e-06
8.83399e-06
8.75735e-06
8.82363e-06
9.13332e-06
9.15618e-06
8.83294e-06
8.71421e-06