/*--------------------------------*- C++ -*----------------------------------*\
  =========                 |
  \\      /  F ield         | OpenFOAM: The Open Source CFD Toolbox
   \\    /   O peration     | Website:  https://openfoam.org
    \\  /    A nd           | Version:  9
     \\/     M anipulation  |
\*---------------------------------------------------------------------------*/
FoamFile
{
    format      ascii;
    class       volVectorField;
    location    "0.2";
    object      U;
}
// * * * * * * * * * * * * * * * * * * * * * * * * * * * * * * * * * * * * * //

dimensions      [0 1 -1 0 0 0 0];

internalField   nonuniform List<vector> 
20000
(
(5.77804e-05 0 0.0156893)
(0.000115923 0 0.0368587)
(0.000209107 0 0.055835)
(0.000293732 0 0.0742606)
(0.000350495 0 0.091047)
(0.00037478 0 0.105735)
(0.000368714 0 0.118286)
(0.000338914 0 0.128802)
(0.000291693 0 0.137367)
(0.000231859 0 0.143978)
(0.000162943 0 0.148512)
(8.8039e-05 0 0.150729)
(1.10133e-05 0 0.150288)
(-6.23858e-05 0 0.146816)
(-0.000123998 0 0.1401)
(-0.00016416 0 0.130456)
(-0.000174824 0 0.11925)
(-0.000153094 0 0.109202)
(-0.000101667 0 0.103776)
(-3.06034e-05 0 0.105346)
(3.99237e-05 0 0.113314)
(8.17539e-05 0 0.12417)
(7.39509e-05 0 0.133541)
(1.90458e-05 0 0.138178)
(-6.01177e-05 0 0.136525)
(-0.000136092 0 0.128249)
(-0.000188292 0 0.113638)
(-0.000205229 0 0.0932789)
(-0.000184351 0 0.0679965)
(-0.000130298 0 0.0388745)
(-5.06991e-05 0 0.00455143)
(3.05387e-05 0 -0.0323051)
(7.48914e-05 0 -0.0655088)
(5.27867e-05 0 -0.0910778)
(-3.48123e-05 0 -0.103982)
(-0.000134187 0 -0.100225)
(-0.000164158 0 -0.0793028)
(-7.32731e-05 0 -0.0438058)
(0.000172201 0 0.00347143)
(0.00061188 0 0.0612977)
(0.00135173 0 0.130103)
(0.00268539 0 0.213284)
(0.00540924 0 0.320994)
(0.0119358 0 0.483878)
(0.0224061 0 0.735569)
(0.0813417 0 0.679458)
(0.114406 0 -2.82829)
(-0.130279 0 -1.52882)
(-0.0349111 0 0.673902)
(-0.0136711 0 0.610814)
(-0.00843057 0 0.364443)
(-0.00402187 0 0.196726)
(-0.00145032 0 0.0571787)
(0.000386473 0 -0.0832335)
(0.00145238 0 -0.226889)
(0.000671612 0 -0.331889)
(-0.00129491 0 -0.326105)
(-0.00159471 0 -0.203386)
(0.00031335 0 -0.0298244)
(0.00312442 0 0.150187)
(0.00671043 0 0.335158)
(0.0122341 0 0.544187)
(0.0221272 0 0.803951)
(0.0442655 0 1.16438)
(0.0697012 0 1.57086)
(0.177125 0 -2.56217)
(-0.247682 0 -2.66716)
(-0.0618648 0 1.43779)
(-0.0388319 0 1.21129)
(-0.0218575 0 0.844537)
(-0.012836 0 0.620955)
(-0.00821671 0 0.465649)
(-0.00535557 0 0.341516)
(-0.00348417 0 0.239951)
(-0.00220737 0 0.156359)
(-0.00133766 0 0.0888337)
(-0.000772874 0 0.0366914)
(-0.000434689 0 -0.000878887)
(-0.000251181 0 -0.0255366)
(-0.000160427 0 -0.0397694)
(-0.000116039 0 -0.0463117)
(-9.08521e-05 0 -0.0476116)
(-7.23365e-05 0 -0.0455813)
(-5.55004e-05 0 -0.0415862)
(-3.89351e-05 0 -0.0365517)
(-2.26435e-05 0 -0.0310892)
(-7.09477e-06 0 -0.0255989)
(7.23302e-06 0 -0.0203417)
(2.00162e-05 0 -0.0154867)
(3.10731e-05 0 -0.0111422)
(4.03527e-05 0 -0.00737588)
(4.78907e-05 0 -0.0042257)
(5.37574e-05 0 -0.00170559)
(5.81341e-05 0 0.000193508)
(6.11116e-05 0 0.00150217)
(6.2776e-05 0 0.00227107)
(6.34115e-05 0 0.00255802)
(6.32643e-05 0 0.00240563)
(6.1975e-05 0 0.00183655)
(5.90917e-05 0 0.000852984)
(0.000423626 0 0.0151203)
(0.000410949 0 0.0362975)
(0.000520214 0 0.0551444)
(0.000647656 0 0.0736229)
(0.000740903 0 0.0905535)
(0.000783386 0 0.105396)
(0.000771355 0 0.118076)
(0.000710675 0 0.128688)
(0.000610126 0 0.137324)
(0.000478578 0 0.143986)
(0.000324417 0 0.148559)
(0.000156572 0 0.150807)
(-1.39777e-05 0 0.150387)
(-0.000173172 0 0.146926)
(-0.000303859 0 0.140205)
(-0.000388857 0 0.13054)
(-0.000417279 0 0.119293)
(-0.00038911 0 0.109176)
(-0.000311734 0 0.103654)
(-0.000198846 0 0.105125)
(-7.95816e-05 0 0.113042)
(-4.07423e-06 0 0.123927)
(-1.96041e-05 0 0.133379)
(-0.000132104 0 0.138101)
(-0.000302351 0 0.136503)
(-0.000473819 0 0.128249)
(-0.000597321 0 0.113634)
(-0.000641531 0 0.0932597)
(-0.000596426 0 0.0679571)
(-0.000471629 0 0.0388152)
(-0.00028053 0 0.00448049)
(-8.14866e-05 0 -0.0323877)
(2.98248e-05 0 -0.0655906)
(-1.26542e-05 0 -0.091163)
(-0.000199248 0 -0.104112)
(-0.000396438 0 -0.100471)
(-0.000402828 0 -0.0797199)
(-7.38221e-05 0 -0.0444108)
(0.000721294 0 0.00268024)
(0.00214186 0 0.0602258)
(0.00456137 0 0.128557)
(0.00881606 0 0.210791)
(0.0167969 0 0.316435)
(0.0351614 0 0.473883)
(0.0551576 0 0.715327)
(0.162515 0 0.595014)
(0.171233 0 -2.60799)
(-0.257019 0 -1.49937)
(-0.0866108 0 0.62701)
(-0.0460088 0 0.602186)
(-0.026343 0 0.360202)
(-0.0131139 0 0.194032)
(-0.00548597 0 0.0554937)
(-0.000192912 0 -0.0843564)
(0.00281317 0 -0.227012)
(0.00160466 0 -0.330728)
(-0.00219291 0 -0.32568)
(-0.00236528 0 -0.20537)
(0.00270666 0 -0.0331187)
(0.0105605 0 0.146217)
(0.0211185 0 0.329825)
(0.0371972 0 0.535612)
(0.0635001 0 0.788771)
(0.121707 0 1.1325)
(0.166339 0 1.50119)
(0.355659 0 -2.31322)
(-0.410315 0 -2.52363)
(-0.147455 0 1.33798)
(-0.109796 0 1.19212)
(-0.0610637 0 0.834105)
(-0.0380696 0 0.614338)
(-0.0251961 0 0.461777)
(-0.016734 0 0.33914)
(-0.0111386 0 0.238405)
(-0.00729116 0 0.155334)
(-0.00464119 0 0.0881681)
(-0.00287149 0 0.0362769)
(-0.00174663 0 -0.00113142)
(-0.00106466 0 -0.0257059)
(-0.000660712 0 -0.0399116)
(-0.000417814 0 -0.0464574)
(-0.000260679 0 -0.0477723)
(-0.000148434 0 -0.0457571)
(-6.1186e-05 0 -0.0417722)
(1.17685e-05 0 -0.0367418)
(7.47035e-05 0 -0.0312777)
(0.000129423 0 -0.0257813)
(0.000176872 0 -0.0205143)
(0.000217613 0 -0.0156468)
(0.000252129 0 -0.011288)
(0.000280918 0 -0.00750581)
(0.00030456 0 -0.00433869)
(0.000323818 0 -0.00180092)
(0.000339546 0 0.000116046)
(0.000351538 0 0.00144229)
(0.000359938 0 0.00222817)
(0.000366068 0 0.00253057)
(0.000371051 0 0.00239259)
(0.000374485 0 0.00184046)
(0.000374886 0 0.000877612)
(0.000963601 0 0.0153121)
(0.00084424 0 0.0364199)
(0.000854568 0 0.0550722)
(0.000910934 0 0.0735269)
(0.000951774 0 0.0905528)
(0.000952277 0 0.105525)
(0.000901979 0 0.118324)
(0.000800434 0 0.12903)
(0.000653156 0 0.137731)
(0.000468069 0 0.14443)
(0.000254712 0 0.149014)
(2.53679e-05 0 0.151244)
(-0.000203453 0 0.150774)
(-0.000410206 0 0.147227)
(-0.000569594 0 0.140388)
(-0.000658991 0 0.130591)
(-0.000669554 0 0.119227)
(-0.000613526 0 0.109035)
(-0.000515934 0 0.103486)
(-0.000401557 0 0.104973)
(-0.00029992 0 0.112957)
(-0.000258037 0 0.123954)
(-0.000321888 0 0.133527)
(-0.000495888 0 0.138325)
(-0.000734359 0 0.136729)
(-0.000968464 0 0.12841)
(-0.00113442 0 0.113691)
(-0.0011892 0 0.0931992)
(-0.00111767 0 0.0677926)
(-0.000931839 0 0.0385801)
(-0.000653521 0 0.00422928)
(-0.000361699 0 -0.032594)
(-0.000186054 0 -0.0656815)
(-0.000219404 0 -0.0911031)
(-0.000446043 0 -0.103947)
(-0.000679644 0 -0.100346)
(-0.000629598 0 -0.0798005)
(-6.14085e-05 0 -0.0448185)
(0.00123309 0 0.00184551)
(0.00352603 0 0.0587195)
(0.00743567 0 0.125865)
(0.014082 0 0.205815)
(0.0252146 0 0.307308)
(0.0522746 0 0.454675)
(0.0653047 0 0.68191)
(0.208003 0 0.484206)
(0.185032 0 -2.36885)
(-0.316001 0 -1.42935)
(-0.118927 0 0.563344)
(-0.0742437 0 0.572689)
(-0.0403152 0 0.345839)
(-0.0209731 0 0.185129)
(-0.00936939 0 0.0496532)
(-0.00117052 0 -0.0882943)
(0.00358971 0 -0.228245)
(0.00272119 0 -0.328585)
(-0.00164125 0 -0.323703)
(-0.00130918 0 -0.2073)
(0.0062591 0 -0.0382057)
(0.0182032 0 0.138847)
(0.0346303 0 0.31912)
(0.059171 0 0.518184)
(0.0949203 0 0.759696)
(0.171091 0 1.0808)
(0.23316 0 1.38768)
(0.435355 0 -2.05791)
(-0.404535 0 -2.31271)
(-0.215685 0 1.2305)
(-0.158997 0 1.14468)
(-0.08966 0 0.807007)
(-0.0593939 0 0.596346)
(-0.040141 0 0.449884)
(-0.0270951 0 0.330872)
(-0.0183134 0 0.232403)
(-0.0121661 0 0.15092)
(-0.00787286 0 0.0849692)
(-0.00495221 0 0.0340447)
(-0.00304013 0 -0.0026147)
(-0.00183128 0 -0.02665)
(-0.00107777 0 -0.0405007)
(-0.000601271 0 -0.0468302)
(-0.000285054 0 -0.0480192)
(-6.12295e-05 0 -0.0459329)
(0.000107624 0 -0.0419066)
(0.000242694 0 -0.0368505)
(0.00035401 0 -0.0313688)
(0.000447307 0 -0.0258589)
(0.000525928 0 -0.0205805)
(0.000592002 0 -0.015703)
(0.000647216 0 -0.0113352)
(0.000693006 0 -0.00754516)
(0.000730635 0 -0.00437139)
(0.000761447 0 -0.0018282)
(0.000786168 0 9.27853e-05)
(0.000806091 0 0.00142203)
(0.000822542 0 0.00220957)
(0.000836261 0 0.00251091)
(0.000848962 0 0.00236966)
(0.000861263 0 0.00181846)
(0.000869212 0 0.000870509)
(0.00115968 0 0.0155418)
(0.00106043 0 0.0366296)
(0.00103334 0 0.0551135)
(0.00104827 0 0.07352)
(0.00105224 0 0.0906148)
(0.00101769 0 0.105709)
(0.000930408 0 0.118637)
(0.000788174 0 0.129456)
(0.000595947 0 0.138244)
(0.000361785 0 0.145002)
(9.62967e-05 0 0.149613)
(-0.000186096 0 0.151832)
(-0.000465344 0 0.151307)
(-0.000714865 0 0.147657)
(-0.000903643 0 0.140673)
(-0.00100455 0 0.130711)
(-0.00100853 0 0.119202)
(-0.000934416 0 0.10892)
(-0.000819321 0 0.103346)
(-0.00069936 0 0.104865)
(-0.000610385 0 0.112938)
(-0.000600995 0 0.124078)
(-0.000715193 0 0.133805)
(-0.000951851 0 0.138706)
(-0.0012562 0 0.13713)
(-0.00154824 0 0.128747)
(-0.00175311 0 0.113908)
(-0.00181994 0 0.0932765)
(-0.00173098 0 0.0677431)
(-0.0015011 0 0.0384449)
(-0.00115763 0 0.00407283)
(-0.000796918 0 -0.0326809)
(-0.000575126 0 -0.0656174)
(-0.00059963 0 -0.0908564)
(-0.00084744 0 -0.103594)
(-0.00109372 0 -0.100081)
(-0.000984213 0 -0.0798473)
(-0.000215527 0 -0.0453526)
(0.00147395 0 0.000644547)
(0.00440052 0 0.0565456)
(0.00932305 0 0.122019)
(0.017542 0 0.198841)
(0.0290699 0 0.295634)
(0.062683 0 0.43201)
(0.0618643 0 0.645218)
(0.230575 0 0.390704)
(0.187107 0 -2.14431)
(-0.320005 0 -1.35827)
(-0.131217 0 0.492036)
(-0.0896718 0 0.535908)
(-0.0477256 0 0.326904)
(-0.0263055 0 0.173105)
(-0.0121332 0 0.0418979)
(-0.00189883 0 -0.0932516)
(0.00412583 0 -0.229682)
(0.00371041 0 -0.32616)
(-0.000677691 0 -0.321765)
(0.000293621 0 -0.210147)
(0.00978749 0 -0.0456526)
(0.0247347 0 0.127879)
(0.0451608 0 0.303482)
(0.0752138 0 0.493861)
(0.113957 0 0.722172)
(0.191706 0 1.02458)
(0.268184 0 1.27258)
(0.442814 0 -1.84654)
(-0.363043 0 -2.08087)
(-0.261227 0 1.13853)
(-0.180654 0 1.09119)
(-0.107559 0 0.771911)
(-0.0748012 0 0.572575)
(-0.051327 0 0.433688)
(-0.0352971 0 0.319345)
(-0.0242132 0 0.223962)
(-0.0162813 0 0.144696)
(-0.0106607 0 0.0804456)
(-0.00677622 0 0.0308648)
(-0.00417758 0 -0.0047596)
(-0.00248694 0 -0.0280479)
(-0.0013971 0 -0.0413983)
(-0.000683468 0 -0.047414)
(-0.000197474 0 -0.0484147)
(0.000150373 0 -0.0462171)
(0.000412474 0 -0.042124)
(0.000618985 0 -0.0370256)
(0.000786091 0 -0.0315152)
(0.000923678 0 -0.0259836)
(0.00103777 0 -0.0206875)
(0.00113241 0 -0.0157948)
(0.00121072 0 -0.0114137)
(0.00127523 0 -0.00761212)
(0.00132805 0 -0.00442861)
(0.00137111 0 -0.00187744)
(0.00140604 0 4.98243e-05)
(0.00143452 0 0.00138437)
(0.00145789 0 0.00217522)
(0.00147715 0 0.00247659)
(0.00149415 0 0.00233351)
(0.0015103 0 0.00178602)
(0.00151963 0 0.000854832)
(0.00109227 0 0.0156686)
(0.00103018 0 0.0367644)
(0.00100311 0 0.0551338)
(0.00100946 0 0.073502)
(0.00100499 0 0.0906632)
(0.000957895 0 0.105882)
(0.000851244 0 0.118946)
(0.000682589 0 0.129884)
(0.000457468 0 0.138766)
(0.000185041 0 0.145586)
(-0.000122599 0 0.150225)
(-0.000449138 0 0.152433)
(-0.000772109 0 0.151852)
(-0.00106202 0 0.148094)
(-0.00128478 0 0.14096)
(-0.00141066 0 0.130829)
(-0.00142925 0 0.11917)
(-0.00135989 0 0.108795)
(-0.00124275 0 0.10319)
(-0.00111929 0 0.104735)
(-0.00103261 0 0.112891)
(-0.00103888 0 0.12417)
(-0.00118653 0 0.134051)
(-0.00147275 0 0.139061)
(-0.00183485 0 0.137506)
(-0.00218163 0 0.129058)
(-0.00242765 0 0.114094)
(-0.00251499 0 0.0933115)
(-0.0024238 0 0.0676401)
(-0.00217205 0 0.0382465)
(-0.00178933 0 0.00384576)
(-0.00138736 0 -0.0328453)
(-0.0011438 0 -0.065637)
(-0.00117044 0 -0.0907047)
(-0.001436 0 -0.103362)
(-0.00168838 0 -0.0999833)
(-0.00153416 0 -0.0801278)
(-0.000630128 0 -0.0462117)
(0.00131815 0 -0.00101212)
(0.00460098 0 0.053764)
(0.00997286 0 0.117431)
(0.019151 0 0.190889)
(0.0288816 0 0.283536)
(0.0671303 0 0.410917)
(0.0526339 0 0.608538)
(0.232501 0 0.315842)
(0.176431 0 -1.93326)
(-0.290101 0 -1.27828)
(-0.128839 0 0.426707)
(-0.0920345 0 0.501704)
(-0.0493445 0 0.30729)
(-0.0288695 0 0.159947)
(-0.0134432 0 0.0331312)
(-0.00217665 0 -0.0989833)
(0.00449904 0 -0.231704)
(0.00441944 0 -0.324407)
(0.000337565 0 -0.320634)
(0.00188534 0 -0.213979)
(0.0125879 0 -0.0546112)
(0.0294296 0 0.114855)
(0.0518685 0 0.285524)
(0.0846345 0 0.467438)
(0.122605 0 0.683906)
(0.191982 0 0.974978)
(0.272446 0 1.17867)
(0.404181 0 -1.64464)
(-0.31918 0 -1.84398)
(-0.277667 0 1.06903)
(-0.180827 0 1.04246)
(-0.117298 0 0.735753)
(-0.0837482 0 0.547427)
(-0.0582712 0 0.415746)
(-0.0408377 0 0.30616)
(-0.0283729 0 0.214124)
(-0.019264 0 0.137337)
(-0.0127181 0 0.0750149)
(-0.0081256 0 0.0269616)
(-0.00499418 0 -0.0074848)
(-0.00290686 0 -0.0299171)
(-0.00152245 0 -0.042683)
(-0.000588773 0 -0.0483188)
(6.27959e-05 0 -0.0490793)
(0.000536676 0 -0.0467291)
(0.000896261 0 -0.0425363)
(0.00117892 0 -0.0373693)
(0.00140622 0 -0.0318083)
(0.00159188 0 -0.0262368)
(0.00174462 0 -0.0209074)
(0.00187049 0 -0.0159858)
(0.00197404 0 -0.0115791)
(0.00205898 0 -0.00775492)
(0.00212837 0 -0.00455145)
(0.00218475 0 -0.00198276)
(0.0022304 0 -4.00354e-05)
(0.00226721 0 0.00130809)
(0.00229661 0 0.00211017)
(0.00232004 0 0.00241965)
(0.00233915 0 0.00228356)
(0.00235607 0 0.00174851)
(0.00236495 0 0.000838644)
(0.000901293 0 0.0157649)
(0.000851057 0 0.0368776)
(0.000819281 0 0.0551644)
(0.000816429 0 0.0735023)
(0.000804102 0 0.0907323)
(0.000747812 0 0.106082)
(0.000628313 0 0.11929)
(0.000441915 0 0.130356)
(0.000193971 0 0.139335)
(-0.000105822 0 0.146219)
(-0.000444343 0 0.150884)
(-0.00080387 0 0.153077)
(-0.00116026 0 0.15243)
(-0.00148214 0 0.148557)
(-0.00173372 0 0.141262)
(-0.00188409 0 0.130952)
(-0.00192224 0 0.119138)
(-0.00186729 0 0.108662)
(-0.00175997 0 0.103023)
(-0.00164378 0 0.104592)
(-0.0015658 0 0.112834)
(-0.00158752 0 0.124255)
(-0.00176186 0 0.134294)
(-0.00208697 0 0.139412)
(-0.00249598 0 0.137874)
(-0.00288971 0 0.129349)
(-0.00317446 0 0.114242)
(-0.00328655 0 0.0932939)
(-0.00320411 0 0.06747)
(-0.00294778 0 0.0379706)
(-0.00254959 0 0.00353647)
(-0.0021319 0 -0.0330952)
(-0.00188598 0 -0.0657411)
(-0.00192412 0 -0.0906372)
(-0.00220892 0 -0.10322)
(-0.0024737 0 -0.09999)
(-0.00230772 0 -0.0805404)
(-0.0013541 0 -0.0472397)
(0.000699865 0 -0.00288113)
(0.004085 0 0.0507356)
(0.00935692 0 0.112727)
(0.0191038 0 0.182972)
(0.0257814 0 0.272211)
(0.0661957 0 0.393575)
(0.0407134 0 0.573538)
(0.217719 0 0.251813)
(0.158754 0 -1.74398)
(-0.249172 0 -1.19173)
(-0.119268 0 0.373199)
(-0.0859697 0 0.472798)
(-0.0471058 0 0.289079)
(-0.0289596 0 0.146999)
(-0.0133644 0 0.0240295)
(-0.00195342 0 -0.105161)
(0.00485201 0 -0.234149)
(0.00499089 0 -0.323175)
(0.00133307 0 -0.319986)
(0.003255 0 -0.218348)
(0.0144579 0 -0.0642063)
(0.0321746 0 0.101095)
(0.0550232 0 0.267212)
(0.0882632 0 0.442141)
(0.123952 0 0.649243)
(0.180773 0 0.935232)
(0.255906 0 1.1075)
(0.34859 0 -1.45291)
(-0.278849 0 -1.61667)
(-0.270041 0 1.01641)
(-0.168691 0 0.999846)
(-0.120499 0 0.702357)
(-0.0867539 0 0.52308)
(-0.0612704 0 0.397434)
(-0.0436153 0 0.292252)
(-0.030556 0 0.203492)
(-0.0208468 0 0.12923)
(-0.0137788 0 0.0689261)
(-0.00874939 0 0.022499)
(-0.00526256 0 -0.0106784)
(-0.00289112 0 -0.0321763)
(-0.00128134 0 -0.0442911)
(-0.000170296 0 -0.0494909)
(0.000620258 0 -0.0499647)
(0.00120345 0 -0.047424)
(0.00164922 0 -0.0431007)
(0.00200005 0 -0.0378402)
(0.00228176 0 -0.0322085)
(0.00251111 0 -0.0265806)
(0.00269911 0 -0.0212042)
(0.00285355 0 -0.0162422)
(0.00298026 0 -0.0118002)
(0.00308394 0 -0.00794477)
(0.00316849 0 -0.00471383)
(0.00323705 0 -0.00212093)
(0.00329233 0 -0.000156632)
(0.00333645 0 0.00121068)
(0.0033712 0 0.00202936)
(0.00339828 0 0.00235244)
(0.00341906 0 0.00222896)
(0.00343602 0 0.00171043)
(0.00344527 0 0.000822704)
(0.000600486 0 0.0158579)
(0.000553003 0 0.037002)
(0.000510864 0 0.0552273)
(0.000492471 0 0.0735399)
(0.00046524 0 0.0908357)
(0.000395596 0 0.106318)
(0.000262721 0 0.119677)
(6.10499e-05 0 0.130878)
(-0.000205022 0 0.139962)
(-0.000525884 0 0.146915)
(-0.000887907 0 0.151611)
(-0.00127244 0 0.153787)
(-0.0016541 0 0.153073)
(-0.00200008 0 0.149076)
(-0.00227333 0 0.141613)
(-0.00244238 0 0.131114)
(-0.00249649 0 0.119133)
(-0.00245564 0 0.10855)
(-0.00236193 0 0.102872)
(-0.0022607 0 0.104466)
(-0.00220073 0 0.112799)
(-0.00224498 0 0.124374)
(-0.00244788 0 0.134582)
(-0.00280837 0 0.139817)
(-0.00325774 0 0.138295)
(-0.00369204 0 0.129687)
(-0.00401215 0 0.114429)
(-0.00415046 0 0.0933009)
(-0.00408384 0 0.0673129)
(-0.00383527 0 0.0377004)
(-0.00344019 0 0.00323098)
(-0.00302763 0 -0.0333363)
(-0.00279584 0 -0.0658284)
(-0.00285653 0 -0.0905463)
(-0.00316973 0 -0.103054)
(-0.00346588 0 -0.099976)
(-0.00333291 0 -0.0809408)
(-0.00242237 0 -0.0482608)
(-0.000419209 0 -0.00473139)
(0.00287831 0 0.0477584)
(0.00756737 0 0.108342)
(0.0175786 0 0.175713)
(0.0207832 0 0.262181)
(0.0608756 0 0.38027)
(0.0279253 0 0.542101)
(0.193329 0 0.195216)
(0.139995 0 -1.58293)
(-0.209871 0 -1.10969)
(-0.106855 0 0.328959)
(-0.0755458 0 0.448485)
(-0.042438 0 0.273303)
(-0.0270934 0 0.135154)
(-0.0121495 0 0.0152785)
(-0.00125717 0 -0.111239)
(0.00528441 0 -0.236581)
(0.00549019 0 -0.322103)
(0.00219952 0 -0.319531)
(0.00424071 0 -0.222852)
(0.015342 0 -0.0739508)
(0.0331099 0 0.0872496)
(0.0552788 0 0.2493)
(0.0873124 0 0.418846)
(0.120363 0 0.619021)
(0.163826 0 0.904182)
(0.229809 0 1.05223)
(0.294718 0 -1.28128)
(-0.243516 0 -1.41397)
(-0.247878 0 0.972812)
(-0.150591 0 0.963536)
(-0.117946 0 0.673326)
(-0.0848822 0 0.500366)
(-0.0608648 0 0.379613)
(-0.0437747 0 0.27836)
(-0.030748 0 0.192644)
(-0.0209274 0 0.120815)
(-0.0136951 0 0.0625144)
(-0.00848277 0 0.0177342)
(-0.00481951 0 -0.0141416)
(-0.00228877 0 -0.0346694)
(-0.000540107 0 -0.0460982)
(0.000687902 0 -0.05083)
(0.00157469 0 -0.0509888)
(0.00223623 0 -0.0482338)
(0.00274522 0 -0.0437605)
(0.00314688 0 -0.0383905)
(0.00346966 0 -0.0326749)
(0.00373224 0 -0.0269799)
(0.00394719 0 -0.0215476)
(0.00412351 0 -0.0165377)
(0.00426802 0 -0.0120539)
(0.00438611 0 -0.00816198)
(0.00448228 0 -0.00489887)
(0.00456018 0 -0.0022776)
(0.00462282 0 -0.000288038)
(0.00467257 0 0.00110187)
(0.00471155 0 0.00194039)
(0.00474157 0 0.00228053)
(0.00476374 0 0.00217306)
(0.00478025 0 0.00167298)
(0.00479037 0 0.000807285)
(0.00016858 0 0.015949)
(0.000125843 0 0.0371405)
(7.61137e-05 0 0.0553313)
(4.17407e-05 0 0.07363)
(-3.2993e-06 0 0.0909877)
(-8.87847e-05 0 0.106596)
(-0.0002358 0 0.120104)
(-0.000451707 0 0.131442)
(-0.000733436 0 0.140636)
(-0.00107182 0 0.147663)
(-0.00145303 0 0.152391)
(-0.00185775 0 0.154552)
(-0.00225955 0 0.153767)
(-0.00262436 0 0.149642)
(-0.00291406 0 0.142002)
(-0.00309686 0 0.131307)
(-0.00316276 0 0.119155)
(-0.00313335 0 0.108462)
(-0.00305299 0 0.102747)
(-0.00296951 0 0.104371)
(-0.00293292 0 0.112803)
(-0.00300552 0 0.124537)
(-0.00324067 0 0.134921)
(-0.00363697 0 0.140278)
(-0.00412457 0 0.138776)
(-0.0045966 0 0.130082)
(-0.00495062 0 0.114664)
(-0.00511673 0 0.0933477)
(-0.00507144 0 0.0671881)
(-0.00484023 0 0.0374581)
(-0.00446261 0 0.00295314)
(-0.00407237 0 -0.0335438)
(-0.00387074 0 -0.0658743)
(-0.00396853 0 -0.0904076)
(-0.00432656 0 -0.102834)
(-0.00468141 0 -0.0999014)
(-0.00463045 0 -0.081269)
(-0.00385135 0 -0.0491866)
(-0.00204997 0 -0.00642991)
(0.00104533 0 0.0450008)
(0.00475258 0 0.104473)
(0.0147401 0 0.169382)
(0.0145875 0 0.253667)
(0.0524505 0 0.370384)
(0.0158279 0 0.514664)
(0.167001 0 0.144202)
(0.123646 0 -1.44912)
(-0.175124 0 -1.03653)
(-0.0932996 0 0.290529)
(-0.0630608 0 0.427664)
(-0.0361223 0 0.260142)
(-0.0237738 0 0.124724)
(-0.0100729 0 0.00723481)
(-0.000171597 0 -0.116911)
(0.00580995 0 -0.238796)
(0.00589417 0 -0.321071)
(0.00281935 0 -0.319141)
(0.0047295 0 -0.227215)
(0.0152522 0 -0.083446)
(0.0324319 0 0.0738095)
(0.0532536 0 0.232214)
(0.0828849 0 0.397669)
(0.113481 0 0.593124)
(0.144318 0 0.880298)
(0.202514 0 1.00722)
(0.249277 0 -1.13234)
(-0.212857 0 -1.23998)
(-0.219616 0 0.934315)
(-0.130256 0 0.933949)
(-0.110674 0 0.648894)
(-0.0792725 0 0.479567)
(-0.0575668 0 0.362792)
(-0.0415703 0 0.264968)
(-0.0290649 0 0.182)
(-0.0195287 0 0.112438)
(-0.0124322 0 0.0560554)
(-0.00726027 0 0.0128803)
(-0.00358723 0 -0.0177127)
(-0.00102006 0 -0.0372748)
(0.000776954 0 -0.0480123)
(0.00205485 0 -0.052266)
(0.00298792 0 -0.0520976)
(0.00369007 0 -0.0491164)
(0.00423348 0 -0.0444822)
(0.00466381 0 -0.0389933)
(0.00501031 0 -0.033186)
(0.00529236 0 -0.027417)
(0.00552327 0 -0.0219231)
(0.00571263 0 -0.0168605)
(0.00586778 0 -0.0123309)
(0.00599453 0 -0.00839887)
(0.0060977 0 -0.00510056)
(0.00618122 0 -0.00244822)
(0.00624829 0 -0.000430986)
(0.0063015 0 0.000983722)
(0.00634308 0 0.00184431)
(0.00637493 0 0.0022041)
(0.00639788 0 0.00211547)
(0.00641333 0 0.00163573)
(0.00642434 0 0.000792495)
(-0.000398679 0 0.016031)
(-0.00043487 0 0.0372813)
(-0.000488704 0 0.0554655)
(-0.000535848 0 0.0737675)
(-0.000596836 0 0.0911868)
(-0.000697435 0 0.106914)
(-0.000857884 0 0.120565)
(-0.00108677 0 0.13204)
(-0.00138224 0 0.141345)
(-0.00173563 0 0.148447)
(-0.00213303 0 0.153207)
(-0.0025546 0 0.155351)
(-0.00297302 0 0.154492)
(-0.0033532 0 0.150234)
(-0.00365626 0 0.142412)
(-0.00385035 0 0.131519)
(-0.00392632 0 0.119193)
(-0.00390733 0 0.108393)
(-0.00383999 0 0.102646)
(-0.00377481 0 0.104307)
(-0.00376331 0 0.112844)
(-0.00386672 0 0.124741)
(-0.00413628 0 0.135304)
(-0.00456928 0 0.140783)
(-0.00509483 0 0.139299)
(-0.00560411 0 0.130515)
(-0.0059925 0 0.114931)
(-0.00618891 0 0.0934213)
(-0.00617025 0 0.0670858)
(-0.00596463 0 0.0372364)
(-0.00561647 0 0.0026971)
(-0.00526348 0 -0.033725)
(-0.00510749 0 -0.0658889)
(-0.00525854 0 -0.0902319)
(-0.00568088 0 -0.102568)
(-0.00612371 0 -0.0997625)
(-0.00620057 0 -0.0815018)
(-0.00562526 0 -0.0499688)
(-0.00416622 0 -0.00788564)
(-0.00132368 0 0.0426661)
(0.00110466 0 0.10112)
(0.0108079 0 0.164116)
(0.00766616 0 0.246802)
(0.0420765 0 0.363208)
(0.0053479 0 0.490244)
(0.143403 0 0.0972606)
(0.110504 0 -1.33809)
(-0.144294 0 -0.971552)
(-0.0794511 0 0.256746)
(-0.0499943 0 0.409907)
(-0.028837 0 0.249575)
(-0.0194979 0 0.115872)
(-0.00741841 0 0.00011203)
(0.00117313 0 -0.121994)
(0.00638285 0 -0.240685)
(0.00615942 0 -0.320021)
(0.00312428 0 -0.318723)
(0.00469163 0 -0.231238)
(0.0142859 0 -0.0923576)
(0.0303909 0 0.0612021)
(0.049502 0 0.21637)
(0.0759791 0 0.378733)
(0.104491 0 0.571443)
(0.124145 0 0.862043)
(0.178266 0 0.96918)
(0.21238 0 -1.00262)
(-0.186132 0 -1.09163)
(-0.190646 0 0.899477)
(-0.10994 0 0.910699)
(-0.100036 0 0.62875)
(-0.0709775 0 0.460977)
(-0.0519073 0 0.347392)
(-0.03735 0 0.252472)
(-0.0257181 0 0.171918)
(-0.016771 0 0.104404)
(-0.010049 0 0.0497984)
(-0.00510339 0 0.00813528)
(-0.00156512 0 -0.0212393)
(0.000929088 0 -0.0398742)
(0.00269106 0 -0.0499429)
(0.00395463 0 -0.0537291)
(0.00488481 0 -0.0532372)
(0.00558955 0 -0.0500295)
(0.00613782 0 -0.0452324)
(0.00657362 0 -0.0396217)
(0.00692544 0 -0.0337195)
(0.00721228 0 -0.0278739)
(0.00744734 0 -0.0223158)
(0.00764023 0 -0.0171982)
(0.00779832 0 -0.0126208)
(0.0079275 0 -0.00864688)
(0.00803264 0 -0.00531179)
(0.00811773 0 -0.00262694)
(0.00818602 0 -0.000580701)
(0.00824012 0 0.000860047)
(0.00828228 0 0.00174407)
(0.00831438 0 0.00212532)
(0.00833707 0 0.00205759)
(0.0083506 0 0.0015996)
(0.00836212 0 0.000778917)
(-0.00109266 0 0.0161047)
(-0.00112371 0 0.0374191)
(-0.00118022 0 0.0556174)
(-0.00123596 0 0.0739391)
(-0.00130917 0 0.0914233)
(-0.00142237 0 0.107265)
(-0.00159448 0 0.121055)
(-0.00183473 0 0.132665)
(-0.00214219 0 0.14208)
(-0.00250862 0 0.149258)
(-0.00292002 0 0.15405)
(-0.00335612 0 0.156176)
(-0.00378888 0 0.155241)
(-0.00418247 0 0.150846)
(-0.00449756 0 0.14284)
(-0.00470246 0 0.131744)
(-0.00478877 0 0.119246)
(-0.00478074 0 0.10834)
(-0.00472659 0 0.102566)
(-0.00467939 0 0.104271)
(-0.00469259 0 0.112919)
(-0.00482686 0 0.124983)
(-0.00513126 0 0.135723)
(-0.00560142 0 0.141324)
(-0.00616527 0 0.139855)
(-0.00671245 0 0.130978)
(-0.0071368 0 0.115225)
(-0.00736666 0 0.0935183)
(-0.00737971 0 0.0670048)
(-0.00720685 0 0.0370363)
(-0.00689821 0 0.00246487)
(-0.00659515 0 -0.0338781)
(-0.00649847 0 -0.0658704)
(-0.00671801 0 -0.0900171)
(-0.00722325 0 -0.10225)
(-0.00778022 0 -0.0995461)
(-0.00802244 0 -0.0816127)
(-0.00769664 0 -0.0505658)
(-0.00664624 0 -0.00905062)
(-0.00418307 0 0.0407984)
(-0.00320944 0 0.0982056)
(0.00612382 0 0.160315)
(0.000423567 0 0.241525)
(0.0306372 0 0.358128)
(-0.00339053 0 0.467436)
(0.12335 0 0.0532462)
(0.0996649 0 -1.24574)
(-0.11726 0 -0.913675)
(-0.0661435 0 0.227457)
(-0.0376015 0 0.394872)
(-0.0213401 0 0.241478)
(-0.014791 0 0.108709)
(-0.00450139 0 -0.00595769)
(0.00261629 0 -0.126329)
(0.00693676 0 -0.242145)
(0.0062558 0 -0.318857)
(0.00309937 0 -0.318166)
(0.00416274 0 -0.234775)
(0.0126023 0 -0.100467)
(0.0272932 0 0.0497021)
(0.0445362 0 0.202056)
(0.0674828 0 0.362081)
(0.0942026 0 0.553612)
(0.104505 0 0.847738)
(0.157972 0 0.935807)
(0.182052 0 -0.888195)
(-0.162775 0 -0.96474)
(-0.163775 0 0.867317)
(-0.0906626 0 0.892417)
(-0.0872691 0 0.612241)
(-0.0608769 0 0.444779)
(-0.0444658 0 0.333683)
(-0.0315364 0 0.241163)
(-0.0209975 0 0.162673)
(-0.0128521 0 0.0969555)
(-0.00667636 0 0.0439497)
(-0.00210052 0 0.00366598)
(0.00119014 0 -0.0245821)
(0.00352376 0 -0.0423568)
(0.00517939 0 -0.0518016)
(0.00637397 0 -0.0551486)
(0.00725829 0 -0.0543504)
(0.0079317 0 -0.0509267)
(0.00845792 0 -0.0459729)
(0.00887776 0 -0.0402443)
(0.00921769 0 -0.0342496)
(0.00949547 0 -0.0283287)
(0.00972349 0 -0.0227073)
(0.00991082 0 -0.0175351)
(0.0100644 0 -0.0129102)
(0.01019 0 -0.00889452)
(0.0102922 0 -0.00552266)
(0.0103749 0 -0.00280521)
(0.010441 0 -0.000729825)
(0.0104933 0 0.000737213)
(0.0105338 0 0.00164516)
(0.0105643 0 0.00204875)
(0.0105853 0 0.0020029)
(0.0105959 0 0.00156699)
(0.0106072 0 0.000767666)
(-0.00190793 0 0.016173)
(-0.00193416 0 0.0375515)
(-0.00199074 0 0.0557769)
(-0.00205098 0 0.0741323)
(-0.00213257 0 0.0916874)
(-0.00225563 0 0.107643)
(-0.00243757 0 0.121571)
(-0.00268782 0 0.133315)
(-0.00300604 0 0.142841)
(-0.00338432 0 0.150095)
(-0.00380854 0 0.15492)
(-0.00425801 0 0.157026)
(-0.00470407 0 0.156013)
(-0.00511029 0 0.151479)
(-0.00543702 0 0.143285)
(-0.00565279 0 0.131986)
(-0.00574975 0 0.119315)
(-0.00575285 0 0.108303)
(-0.00571155 0 0.102506)
(-0.00568137 0 0.104262)
(-0.00571819 0 0.113027)
(-0.00588276 0 0.125262)
(-0.00622221 0 0.136182)
(-0.0067303 0 0.141904)
(-0.00733356 0 0.14045)
(-0.00792012 0 0.131477)
(-0.00838252 0 0.115551)
(-0.00864886 0 0.0936443)
(-0.0086979 0 0.0669518)
(-0.00856337 0 0.0368653)
(-0.0083019 0 0.00226527)
(-0.0080585 0 -0.033993)
(-0.00803205 0 -0.0658076)
(-0.00833286 0 -0.0897499)
(-0.00893669 0 -0.101864)
(-0.00962871 0 -0.0992305)
(-0.010065 0 -0.0815727)
(-0.01002 0 -0.0509417)
(-0.00943934 0 -0.00989865)
(-0.00749248 0 0.0393863)
(-0.00771667 0 0.0959923)
(0.000992315 0 0.158112)
(-0.00700976 0 0.237326)
(0.0188554 0 0.354952)
(-0.0108057 0 0.444969)
(0.105694 0 0.0115836)
(0.0900624 0 -1.16909)
(-0.0947399 0 -0.862464)
(-0.0542637 0 0.202189)
(-0.0268193 0 0.381944)
(-0.0142986 0 0.235496)
(-0.0101489 0 0.103177)
(-0.001603 0 -0.0109344)
(0.00402515 0 -0.129849)
(0.00740057 0 -0.2431)
(0.00617386 0 -0.317475)
(0.00276823 0 -0.31736)
(0.00321488 0 -0.237718)
(0.0103815 0 -0.107648)
(0.0234592 0 0.0394425)
(0.0388166 0 0.189385)
(0.058133 0 0.347635)
(0.0831707 0 0.539041)
(0.0860682 0 0.835589)
(0.14079 0 0.905602)
(0.156451 0 -0.78679)
(-0.142184 0 -0.85587)
(-0.140069 0 0.836874)
(-0.0724828 0 0.877408)
(-0.0733148 0 0.598601)
(-0.0496453 0 0.430931)
(-0.0358079 0 0.321727)
(-0.024561 0 0.231181)
(-0.015225 0 0.15442)
(-0.00800593 0 0.0902438)
(-0.00248427 0 0.0386454)
(0.00163004 0 -0.000406279)
(0.00459369 0 -0.0276409)
(0.00669751 0 -0.0446387)
(0.00819459 0 -0.053517)
(0.0092773 0 -0.0564644)
(0.0100811 0 -0.0553871)
(0.0106951 0 -0.0517659)
(0.0111767 0 -0.0466685)
(0.0115623 0 -0.0408312)
(0.0118755 0 -0.0347509)
(0.0121322 0 -0.0287598)
(0.0123433 0 -0.023079)
(0.012517 0 -0.0178553)
(0.0126595 0 -0.0131853)
(0.0127761 0 -0.00912992)
(0.0128708 0 -0.00572288)
(0.0129472 0 -0.00297409)
(0.0130082 0 -0.000870545)
(0.013056 0 0.000622066)
(0.0130926 0 0.00155356)
(0.0131196 0 0.00197947)
(0.0131375 0 0.00195547)
(0.0131443 0 0.00154073)
(0.0131545 0 0.000760064)
(-0.00282544 0 0.0162362)
(-0.00284859 0 0.0376777)
(-0.00290507 0 0.0559392)
(-0.00296848 0 0.0743399)
(-0.00305683 0 0.0919732)
(-0.00318859 0 0.108045)
(-0.00337981 0 0.12211)
(-0.00363978 0 0.133989)
(-0.00396859 0 0.143627)
(-0.00435857 0 0.150958)
(-0.00479552 0 0.155816)
(-0.00525827 0 0.157903)
(-0.00571754 0 0.156809)
(-0.00613625 0 0.152134)
(-0.00647442 0 0.14375)
(-0.00670064 0 0.132245)
(-0.00680754 0 0.119399)
(-0.00682074 0 0.108284)
(-0.00679108 0 0.102465)
(-0.00677673 0 0.104278)
(-0.00683632 0 0.113168)
(-0.00703113 0 0.125581)
(-0.00740652 0 0.136684)
(-0.00795413 0 0.142527)
(-0.00859872 0 0.141086)
(-0.0092267 0 0.132015)
(-0.00972933 0 0.115914)
(-0.0100346 0 0.0938046)
(-0.0101227 0 0.0669326)
(-0.0100302 0 0.0367299)
(-0.00982117 0 0.00210542)
(-0.00964432 0 -0.0340615)
(-0.0096962 0 -0.0656908)
(-0.0100884 0 -0.0894182)
(-0.0108033 0 -0.101396)
(-0.0116459 0 -0.0987981)
(-0.0122966 0 -0.0813612)
(-0.0125499 0 -0.0510713)
(-0.0124574 0 -0.0103978)
(-0.0110517 0 0.0385131)
(-0.0121586 0 0.0946327)
(-0.00473042 0 0.156825)
(-0.0142081 0 0.234504)
(0.00745835 0 0.353416)
(-0.0176103 0 0.422173)
(0.0895933 0 -0.0280443)
(0.0813021 0 -1.10554)
(-0.0770252 0 -0.817493)
(-0.0443998 0 0.180138)
(-0.0180618 0 0.370453)
(-0.00813284 0 0.231131)
(-0.00591458 0 0.099075)
(0.00106425 0 -0.0148605)
(0.0052907 0 -0.132591)
(0.00773768 0 -0.243532)
(0.00592564 0 -0.315806)
(0.00217845 0 -0.316222)
(0.00193884 0 -0.24)
(0.00779811 0 -0.113841)
(0.0191789 0 0.0304672)
(0.0327328 0 0.178352)
(0.0485343 0 0.335254)
(0.0718769 0 0.527153)
(0.0691472 0 0.824464)
(0.125481 0 0.877534)
(0.134484 0 -0.696992)
(-0.12365 0 -0.762471)
(-0.119344 0 0.807455)
(-0.0550924 0 0.864237)
(-0.0588573 0 0.587241)