/*--------------------------------*- C++ -*----------------------------------*\
  =========                 |
  \\      /  F ield         | OpenFOAM: The Open Source CFD Toolbox
   \\    /   O peration     | Website:  https://openfoam.org
    \\  /    A nd           | Version:  9
     \\/     M anipulation  |
\*---------------------------------------------------------------------------*/
FoamFile
{
    format      ascii;
    class       surfaceVectorField;
    location    "0.2";
    object      Uf;
}
// * * * * * * * * * * * * * * * * * * * * * * * * * * * * * * * * * * * * * //

dimensions      [0 1 -1 0 0 0 0];

internalField   nonuniform List<vector> 
39700
(
(9.49621e-05 0 0.026021)
(0.000240703 0 0.0154052)
(0.0001675 0 0.0461201)
(0.000263436 0 0.0365818)
(0.000254994 0 0.0648276)
(0.000364661 0 0.055503)
(0.000326955 0 0.0824533)
(0.000470694 0 0.0739666)
(0.000367701 0 0.0982158)
(0.000545699 0 0.0908343)
(0.000375932 0 0.111861)
(0.000579083 0 0.105605)
(0.000357063 0 0.123418)
(0.000570034 0 0.118222)
(0.0003178 0 0.132982)
(0.000524794 0 0.128786)
(0.000263733 0 0.140594)
(0.000450909 0 0.137386)
(0.000198951 0 0.14619)
(0.000355218 0 0.144021)
(0.000126646 0 0.149594)
(0.00024368 0 0.148573)
(5.01575e-05 0 0.150514)
(0.000122305 0 0.150805)
(-2.58726e-05 0 0.148594)
(-1.4822e-06 0 0.150371)
(-9.45416e-05 0 0.143538)
(-0.000117779 0 0.146898)
(-0.000146805 0 0.135393)
(-0.000213929 0 0.14017)
(-0.000173501 0 0.124987)
(-0.000276508 0 0.130503)
(-0.000168863 0 0.114346)
(-0.000296051 0 0.119264)
(-0.000132722 0 0.106554)
(-0.000271102 0 0.109175)
(-7.05124e-05 0 0.104543)
(-0.0002067 0 0.103704)
(4.63778e-06 0 0.109235)
(-0.000114725 0 0.105236)
(6.62635e-05 0 0.118612)
(-1.98289e-05 0 0.113197)
(8.57765e-05 0 0.128743)
(3.88398e-05 0 0.124084)
(5.26091e-05 0 0.135804)
(2.71734e-05 0 0.133506)
(-1.81041e-05 0 0.137371)
(-5.65293e-05 0 0.138187)
(-9.96035e-05 0 0.132486)
(-0.000181234 0 0.136557)
(-0.000166448 0 0.121118)
(-0.000304955 0 0.128285)
(-0.000202337 0 0.103702)
(-0.000392806 0 0.113666)
(-0.000200364 0 0.0809398)
(-0.00042338 0 0.0932927)
(-0.000161897 0 0.0537835)
(-0.000390388 0 0.0679961)
(-9.54186e-05 0 0.0234401)
(-0.000300963 0 0.0388624)
(-7.76443e-06 0 -0.0138769)
(-0.000165615 0 0.00453486)
(6.01847e-05 0 -0.048907)
(-2.5474e-05 0 -0.0323205)
(7.36554e-05 0 -0.0782933)
(5.23581e-05 0 -0.0655128)
(1.3813e-05 0 -0.09753)
(2.00662e-05 0 -0.0910681)
(-9.01805e-05 0 -0.102104)
(-0.00011703 0 -0.103981)
(-0.000165322 0 -0.089764)
(-0.000265312 0 -0.100273)
(-0.00013745 0 -0.0615543)
(-0.000283493 0 -0.0794326)
(3.2533e-05 0 -0.0201672)
(-7.35476e-05 0 -0.0440287)
(0.000356407 0 0.0323845)
(0.000446748 0 0.00315942)
(0.000911363 0 0.0957002)
(0.00137687 0 0.0608636)
(0.00187551 0 0.171694)
(0.00295655 0 0.129462)
(0.00370749 0 0.267139)
(0.00575072 0 0.212215)
(0.00759963 0 0.402436)
(0.0111031 0 0.318901)
(0.0164507 0 0.609724)
(0.0235486 0 0.479326)
(0.0385902 0 0.707514)
(0.0387819 0 0.724847)
(0.171018 0 -1.07442)
(0.121928 0 0.61465)
(-0.0513464 0 -2.17856)
(0.14282 0 -2.70206)
(-0.0707875 0 -0.427459)
(-0.193649 0 -1.51327)
(-0.0203558 0 0.642358)
(-0.0607609 0 0.646805)
(-0.0112096 0 0.487629)
(-0.02984 0 0.606987)
(-0.00573731 0 0.280584)
(-0.0173868 0 0.362277)
(-0.00254278 0 0.126952)
(-0.00856789 0 0.195457)
(-0.000451447 0 -0.0130274)
(-0.00346815 0 0.0563844)
(0.00108895 0 -0.155061)
(9.67805e-05 0 -0.0838051)
(0.00134886 0 -0.279389)
(0.00213277 0 -0.226873)
(-0.000360791 0 -0.328997)
(0.00113814 0 -0.33098)
(-0.00179439 0 -0.264746)
(-0.00174391 0 -0.325552)
(-0.000810373 0 -0.116605)
(-0.00197999 0 -0.204253)
(0.00161852 0 0.0601813)
(0.00151001 0 -0.0314577)
(0.00467567 0 0.242673)
(0.00684246 0 0.148267)
(0.00894324 0 0.439673)
(0.0139145 0 0.332614)
(0.0160947 0 0.674069)
(0.0247156 0 0.540092)
(0.0295517 0 0.984167)
(0.0428137 0 0.796458)
(0.0586681 0 1.36762)
(0.0829865 0 1.14827)
(0.156387 0 -0.495657)
(0.11802 0 1.52248)
(-0.048287 0 -2.61466)
(0.266392 0 -2.42459)
(-0.175685 0 -0.614683)
(-0.328998 0 -2.5959)
(-0.0495404 0 1.32454)
(-0.10466 0 1.37186)
(-0.0281828 0 1.02791)
(-0.0743138 0 1.20104)
(-0.0160994 0 0.721495)
(-0.0414606 0 0.839026)
(-0.0100956 0 0.541446)
(-0.0254528 0 0.617661)
(-0.00653902 0 0.4021)
(-0.0167064 0 0.463729)
(-0.004279 0 0.28952)
(-0.0110448 0 0.340328)
(-0.00275508 0 0.197156)
(-0.00731141 0 0.239168)
(-0.00170888 0 0.121789)
(-0.00474926 0 0.155834)
(-0.00101001 0 0.0621395)
(-0.00298943 0 0.0884959)
(-0.000573925 0 0.0174573)
(-0.00182218 0 0.0364944)
(-0.000325233 0 -0.0135024)
(-0.00109066 0 -0.0009799)
(-0.000196904 0 -0.0328231)
(-0.000657923 0 -0.0255826)
(-0.000133647 0 -0.0431187)
(-0.000410569 0 -0.0397964)
(-0.000101181 0 -0.0469772)
(-0.000266927 0 -0.0463393)
(-8.05019e-05 0 -0.0465722)
(-0.000175766 0 -0.0476491)
(-6.33329e-05 0 -0.043536)
(-0.000110385 0 -0.0456299)
(-4.67957e-05 0 -0.0390088)
(-5.83432e-05 0 -0.0416436)
(-3.04026e-05 0 -0.0337552)
(-1.35833e-05 0 -0.0366148)
(-1.44849e-05 0 -0.0282785)
(2.603e-05 0 -0.0311547)
(4.60637e-07 0 -0.0229075)
(6.1164e-05 0 -0.0256643)
(1.40155e-05 0 -0.0178562)
(9.20524e-05 0 -0.0204047)
(2.59245e-05 0 -0.0132626)
(0.000118814 0 -0.0155458)
(3.60763e-05 0 -0.00921406)
(0.000141601 0 -0.0111964)
(4.4461e-05 0 -0.00576315)
(0.000160636 0 -0.00742418)
(5.11332e-05 0 -0.00293553)
(0.000176225 0 -0.00426759)
(5.62274e-05 0 -0.000733347)
(0.000188788 0 -0.00174078)
(5.99289e-05 0 0.000863477)
(0.00019884 0 0.000165046)
(6.21919e-05 0 0.00189581)
(0.000206325 0 0.00148089)
(6.3307e-05 0 0.00241797)
(0.000211357 0 0.00225644)
(6.35541e-05 0 0.00248)
(0.00021474 0 0.00254928)
(6.3032e-05 0 0.00211429)
(0.000217158 0 0.00240237)
(6.11733e-05 0 0.00133302)
(0.00021823 0 0.00184019)
(0.000216989 0 0.000865659)
(0.000420977 0 0.0254559)
(0.000693614 0 0.0152341)
(0.000477376 0 0.0454958)
(0.000627595 0 0.0364064)
(0.000588095 0 0.0641629)
(0.000687391 0 0.0551746)
(0.00069762 0 0.0818859)
(0.000779295 0 0.0736569)
(0.00076675 0 0.0977976)
(0.000846339 0 0.090648)
(0.000782239 0 0.111584)
(0.000867831 0 0.105566)
(0.000745664 0 0.123255)
(0.000836667 0 0.118312)
(0.000664629 0 0.132903)
(0.000755554 0 0.128976)
(0.000548068 0 0.140575)
(0.000631641 0 0.137646)
(0.00040465 0 0.146218)
(0.000473323 0 0.144325)
(0.000243081 0 0.149656)
(0.000289565 0 0.1489)
(7.32798e-05 0 0.150602)
(9.09699e-05 0 0.151132)
(-9.21963e-05 0 0.148698)
(-0.000108715 0 0.150675)
(-0.000237656 0 0.143646)
(-0.000291689 0 0.147153)
(-0.000346134 0 0.135488)
(-0.000436727 0 0.140352)
(-0.000404091 0 0.125051)
(-0.000523924 0 0.130596)
(-0.000406637 0 0.114355)
(-0.000543416 0 0.119268)
(-0.000357534 0 0.106481)
(-0.000501318 0 0.109104)
(-0.000264814 0 0.104372)
(-0.000413834 0 0.103576)
(-0.000145766 0 0.108989)
(-0.000300202 0 0.105079)
(-4.07993e-05 0 0.118354)
(-0.000189751 0 0.113065)
(-4.38014e-06 0 0.12854)
(-0.000131056 0 0.12404)
(-6.61161e-05 0 0.135684)
(-0.000170746 0 0.133576)
(-0.000210084 0 0.137321)
(-0.000313996 0 0.138344)
(-0.000386238 0 0.132474)
(-0.000518355 0 0.13674)
(-0.000538854 0 0.121116)
(-0.000721141 0 0.128436)
(-0.000626188 0 0.103691)
(-0.00086587 0 0.113748)
(-0.000627034 0 0.0809107)
(-0.000915364 0 0.0932935)
(-0.000541279 0 0.0537343)
(-0.000857046 0 0.0679227)
(-0.000389139 0 0.0233755)
(-0.000701734 0 0.0387383)
(-0.000175977 0 -0.0139536)
(-0.000467025 0 0.00439276)
(-2.02243e-05 0 -0.0489891)
(-0.000221593 0 -0.0324243)
(1.3672e-05 0 -0.0783768)
(-7.81147e-05 0 -0.0655354)
(-0.000104226 0 -0.0976374)
(-0.000116029 0 -0.0909895)
(-0.000312137 0 -0.102291)
(-0.000322645 0 -0.103842)
(-0.0004311 0 -0.0900954)
(-0.000538041 0 -0.100193)
(-0.000273829 0 -0.0620653)
(-0.000516213 0 -0.0795375)
(0.000281397 0 -0.0208653)
(-6.76153e-05 0 -0.0443989)
(0.00133893 0 0.031453)
(0.000977192 0 0.0024544)
(0.00315905 0 0.0943916)
(0.00283394 0 0.0596502)
(0.00636177 0 0.169674)
(0.00599852 0 0.127327)
(0.0122502 0 0.263613)
(0.011449 0 0.208289)
(0.0234949 0 0.395159)
(0.0210058 0 0.311404)
(0.0483983 0 0.594605)
(0.043718 0 0.462724)
(0.0933903 0 0.65517)
(0.0602312 0 0.694852)
(0.229915 0 -1.00649)
(0.185259 0 0.523634)
(-0.0867453 0 -2.05368)
(0.178132 0 -2.49096)
(-0.154612 0 -0.436181)
(-0.28651 0 -1.46802)
(-0.0690082 0 0.614598)
(-0.102769 0 0.589736)
(-0.0347222 0 0.481194)
(-0.0601263 0 0.584129)
(-0.0187371 0 0.277117)
(-0.0333291 0 0.35162)
(-0.00890823 0 0.124763)
(-0.0170435 0 0.188905)
(-0.00257122 0 -0.0144313)
(-0.00742768 0 0.0521598)
(0.00156234 0 -0.155684)
(-0.000681717 0 -0.0865608)
(0.00252615 0 -0.27887)
(0.00320144 0 -0.227515)
(-0.000341932 0 -0.328204)
(0.00216293 0 -0.329068)
(-0.00265645 0 -0.265525)
(-0.00191708 0 -0.324009)
(4.004e-05 0 -0.119244)
(-0.00183723 0 -0.206051)
(0.00632736 0 0.0565489)
(0.00448288 0 -0.0356493)
(0.0152296 0 0.238021)
(0.0143819 0 0.142333)
(0.0280866 0 0.432719)
(0.0278744 0 0.324043)
(0.0491475 0 0.662192)
(0.0481841 0 0.526052)
(0.0851328 0 0.960635)
(0.0792102 0 0.772468)
(0.155502 0 1.31685)
(0.146399 0 1.10135)
(0.295523 0 -0.406016)
(0.19975 0 1.42913)
(-0.0413479 0 -2.41843)
(0.395507 0 -2.20001)
(-0.28822 0 -0.592825)
(-0.407425 0 -2.43132)
(-0.137485 0 1.26505)
(-0.18157 0 1.27137)
(-0.0795038 0 1.01311)
(-0.134396 0 1.16238)
(-0.0479906 0 0.713163)
(-0.0753619 0 0.818018)
(-0.0309067 0 0.536235)
(-0.0487318 0 0.603723)
(-0.0204008 0 0.398993)
(-0.0326686 0 0.454737)
(-0.0136134 0 0.287569)
(-0.0219146 0 0.334235)
(-0.00900117 0 0.195877)
(-0.014726 0 0.234825)
(-0.00581915 0 0.120949)
(-0.00972861 0 0.152691)
(-0.00365672 0 0.0616025)
(-0.00625703 0 0.0862553)
(-0.00224324 0 0.0171258)
(-0.00391185 0 0.0349581)
(-0.00136509 0 -0.0137123)
(-0.00239338 0 -0.0019811)
(-0.000838036 0 -0.0329785)
(-0.00144797 0 -0.026213)
(-0.000524565 0 -0.0432627)
(-0.000869239 0 -0.0401896)
(-0.00032962 0 -0.0471306)
(-0.000509543 0 -0.0465959)
(-0.000198392 0 -0.0467406)
(-0.000272867 0 -0.0478303)
(-0.000100503 0 -0.043717)
(-0.000104832 0 -0.0457717)
(-2.1285e-05 0 -0.0391969)
(2.32191e-05 0 -0.0417641)
(4.58825e-05 0 -0.0339444)
(0.000127231 0 -0.0367219)
(0.000104144 0 -0.0284638)
(0.000214357 0 -0.0312522)
(0.000154827 0 -0.0230849)
(0.000288365 0 -0.0257532)
(0.00019862 0 -0.0180224)
(0.0003514 0 -0.0204854)
(0.00023602 0 -0.0134154)
(0.000404807 0 -0.015618)
(0.000267515 0 -0.00935172)
(0.000449672 0 -0.0112601)
(0.000293621 0 -0.00588441)
(0.000486962 0 -0.00747961)
(0.000314874 0 -0.00303948)
(0.000517598 0 -0.00431492)
(0.000332209 0 -0.00081953)
(0.000542633 0 -0.00178127)
(0.000346361 0 0.000795015)
(0.000562857 0 0.000130375)
(0.000356264 0 0.00184462)
(0.000578814 0 0.00145545)
(0.000363491 0 0.00238298)
(0.00059124 0 0.00223697)
(0.000368962 0 0.00245993)
(0.000601165 0 0.00253383)
(0.00037327 0 0.00210993)
(0.000610006 0 0.00238961)
(0.000375307 0 0.00134753)
(0.000617874 0 0.00183387)
(0.000622049 0 0.000875015)
(0.000893737 0 0.0256138)
(0.00106164 0 0.0154241)
(0.000856696 0 0.0455232)
(0.000952335 0 0.0365216)
(0.000884875 0 0.064079)
(0.000943952 0 0.055091)
(0.000931791 0 0.0818364)
(0.000979604 0 0.0735243)
(0.000953778 0 0.0978599)
(0.00100201 0 0.0905888)
(0.000929791 0 0.111771)
(0.000984984 0 0.105627)
(0.000854334 0 0.123549)
(0.000916194 0 0.118497)
(0.000730276 0 0.133276)
(0.000794304 0 0.129265)
(0.000564306 0 0.141)
(0.000624551 0 0.138015)
(0.000365118 0 0.146667)
(0.000414927 0 0.144748)
(0.000143611 0 0.150103)
(0.000175504 0 0.149349)
(-8.59056e-05 0 0.151015)
(-8.03641e-05 0 0.151575)
(-0.000304496 0 0.149043)
(-0.000334398 0 0.151077)
(-0.000488755 0 0.143889)
(-0.000562535 0 0.147476)
(-0.000614662 0 0.135607)
(-0.000736618 0 0.140562)
(-0.000666167 0 0.125045)
(-0.000831769 0 0.130678)
(-0.000644579 0 0.114253)
(-0.000839044 0 0.119235)
(-0.000568756 0 0.106327)
(-0.000773971 0 0.108994)
(-0.000463462 0 0.104212)
(-0.000667628 0 0.10343)
(-0.00035382 0 0.10887)
(-0.000550459 0 0.104935)
(-0.000278093 0 0.118324)
(-0.000455152 0 0.11297)
(-0.000285218 0 0.128626)
(-0.000429516 0 0.124048)
(-0.000402536 0 0.135869)
(-0.000518541 0 0.13371)
(-0.000609738 0 0.137546)
(-0.000723869 0 0.138569)
(-0.000848973 0 0.132669)
(-0.00099528 0 0.136987)
(-0.00105249 0 0.121227)
(-0.00125835 0 0.128637)
(-0.00116594 0 0.10369)
(-0.00144377 0 0.113855)
(-0.00115947 0 0.0807995)
(-0.00150457 0 0.0932877)
(-0.0010315 0 0.0535354)
(-0.00142432 0 0.0678132)
(-0.000807158 0 0.0231332)
(-0.00121647 0 0.0385553)
(-0.000506355 0 -0.0141823)
(-0.000905577 0 0.00419224)
(-0.000266554 0 -0.0491377)
(-0.000579308 0 -0.0325842)
(-0.000195707 0 -0.0783923)
(-0.00038059 0 -0.0655826)
(-0.000331796 0 -0.0975251)
(-0.000409517 0 -0.0908988)
(-0.000576167 0 -0.102147)
(-0.000646741 0 -0.10368)
(-0.000684355 0 -0.0900733)
(-0.000886681 0 -0.100121)
(-0.000382678 0 -0.0623095)
(-0.000806905 0 -0.0797386)
(0.000541656 0 -0.0214865)
(-0.000138468 0 -0.0450151)
(0.00229049 0 0.0302825)
(0.00135352 0 0.00128851)
(0.00530387 0 0.0922922)
(0.00396327 0 0.0576413)
(0.0105044 0 0.16584)
(0.00837936 0 0.12386)
(0.0198119 0 0.256562)
(0.015812 0 0.202084)
(0.0356332 0 0.380991)
(0.0271423 0 0.300857)
(0.0671073 0 0.568292)
(0.0574788 0 0.441741)
(0.116745 0 0.583058)
(0.0635845 0 0.66176)
(0.246876 0 -0.942319)
(0.219289 0 0.43688)
(-0.100663 0 -1.8991)
(0.186069 0 -2.25926)
(-0.202533 0 -0.433001)
(-0.318003 0 -1.40011)
(-0.102623 0 0.568017)
(-0.125072 0 0.52313)
(-0.0546602 0 0.459264)
(-0.0819578 0 0.552154)
(-0.0304136 0 0.265484)
(-0.0440204 0 0.335456)
(-0.0149642 0 0.117391)
(-0.0236393 0 0.178605)
(-0.00501784 0 -0.0193206)
(-0.0107513 0 0.0455288)
(0.00139136 0 -0.15827)
(-0.00153468 0 -0.0908337)
(0.00340005 0 -0.278415)
(0.00385777 0 -0.228854)
(0.000495934 0 -0.326144)
(0.0032158 0 -0.327132)
(-0.00173784 0 -0.265502)
(-0.00115947 0 -0.32252)
(0.00225132 0 -0.122753)
(-0.000507778 0 -0.208711)
(0.0119564 0 0.0503206)
(0.00802329 0 -0.0421193)
(0.025981 0 0.228983)
(0.021469 0 0.132983)
(0.0461003 0 0.418652)
(0.0398955 0 0.31063)
(0.0780198 0 0.63894)
(0.0671924 0 0.504772)
(0.128284 0 0.92025)
(0.104439 0 0.738958)
(0.205681 0 1.23424)
(0.181398 0 1.04975)
(0.361773 0 -0.335116)
(0.250672 0 1.32507)
(0.0122061 0 -2.18531)
(0.439085 0 -1.96696)
(-0.324447 0 -0.541105)
(-0.383789 0 -2.20688)
(-0.189208 0 1.18759)
(-0.238456 0 1.18121)
(-0.11978 0 0.975846)
(-0.169825 0 1.1161)
(-0.0743296 0 0.691076)
(-0.0986096 0 0.787718)
(-0.0491706 0 0.521365)
(-0.0670976 0 0.583197)
(-0.0331491 0 0.388956)
(-0.045734 0 0.441026)
(-0.022444 0 0.280461)
(-0.0311961 0 0.324624)
(-0.0150439 0 0.190688)
(-0.0212633 0 0.227857)
(-0.00987752 0 0.117157)
(-0.0142237 0 0.147588)
(-0.00631347 0 0.0588984)
(-0.00926679 0 0.0825625)
(-0.00392862 0 0.015277)
(-0.00586422 0 0.0323661)
(-0.00239124 0 -0.0149195)
(-0.00360885 0 -0.0037339)
(-0.00142608 0 -0.0337408)
(-0.00215911 0 -0.0273673)
(-0.000821365 0 -0.0437411)
(-0.00123743 0 -0.0409483)
(-0.000431475 0 -0.0474389)
(-0.00064237 0 -0.0471091)
(-0.000165296 0 -0.0469511)
(-0.000241264 0 -0.0481979)
(2.902e-05 0 -0.0438716)
(4.45716e-05 0 -0.0460532)
(0.000179725 0 -0.0393181)
(0.000260049 0 -0.0419931)
(0.000301909 0 -0.0340441)
(0.00043084 0 -0.0369167)
(0.000403491 0 -0.028548)
(0.00057005 0 -0.0314221)
(0.000488892 0 -0.0231566)
(0.000685492 0 -0.025903)
(0.000560805 0 -0.0180834)
(0.000781848 0 -0.0206177)
(0.000621111 0 -0.0134669)
(0.000862207 0 -0.0157344)
(0.000671346 0 -0.00939488)
(0.000928967 0 -0.0113618)
(0.000712918 0 -0.00592036)
(0.00098412 0 -0.00756787)
(0.000747106 0 -0.00306941)
(0.00102934 0 -0.00439105)
(0.000774673 0 -0.000844752)
(0.00106628 0 -0.00184567)
(0.000796465 0 0.000773292)
(0.0010961 0 7.69806e-05)
(0.00081489 0 0.00182521)
(0.00112031 0 0.00140811)
(0.000829954 0 0.00236384)
(0.00114021 0 0.00219637)
(0.000843052 0 0.00243859)
(0.00115671 0 0.00249681)
(0.000855136 0 0.00208747)
(0.00117155 0 0.00235379)
(0.000864869 0 0.00133316)
(0.00118578 0 0.0018036)
(0.00119442 0 0.000863162)
(0.00110401 0 0.0258338)
(0.00112598 0 0.0156031)
(0.0010496 0 0.0456507)
(0.00104531 0 0.0366909)
(0.00104159 0 0.0640968)
(0.00101822 0 0.0551148)
(0.00105018 0 0.0818631)
(0.00102887 0 0.0735)
(0.00103624 0 0.0979814)
(0.00102861 0 0.0906264)
(0.000976245 0 0.112018)
(0.000987792 0 0.105781)
(0.000862124 0 0.123917)
(0.000890826 0 0.118776)
(0.000695471 0 0.133745)
(0.000735382 0 0.129655)
(0.000482704 0 0.141543)
(0.000526708 0 0.138489)
(0.000233108 0 0.147253)
(0.000273413 0 0.145278)
(-4.08568e-05 0 0.150696)
(-1.3151e-05 0 0.149903)
(-0.000322082 0 0.151576)
(-0.000317617 0 0.152117)
(-0.000587409 0 0.149526)
(-0.000618727 0 0.151565)
(-0.000808078 0 0.144249)
(-0.000888441 0 0.147863)
(-0.000954859 0 0.135811)
(-0.00109421 0 0.140807)
(-0.00100909 0 0.125094)
(-0.00120761 0 0.130764)
(-0.000974836 0 0.114184)
(-0.00121889 0 0.119183)
(-0.000879941 0 0.106199)
(-0.00114715 0 0.108857)
(-0.000761509 0 0.104087)
(-0.00103104 0 0.103267)
(-0.00065518 0 0.108805)
(-0.000909326 0 0.104795)
(-0.000603382 0 0.118375)
(-0.000821499 0 0.112905)
(-0.000653746 0 0.128825)
(-0.00081994 0 0.124109)
(-0.000828339 0 0.136197)
(-0.000950863 0 0.133909)
(-0.00109965 0 0.137937)
(-0.0012123 0 0.138863)
(-0.00139999 0 0.133039)
(-0.00154553 0 0.137299)
(-0.00165112 0 0.121505)
(-0.00186494 0 0.128885)
(-0.00178967 0 0.103839)
(-0.00209038 0 0.113985)
(-0.0017805 0 0.0808149)
(-0.00216746 0 0.0932794)
(-0.00162216 0 0.0534441)
(-0.00207739 0 0.0676777)
(-0.0013479 0 0.0229884)
(-0.00183657 0 0.0383315)
(-0.000975501 0 -0.014304)
(-0.00147348 0 0.003944)
(-0.000680329 0 -0.0491491)
(-0.00109214 0 -0.0327809)
(-0.000582217 0 -0.0782369)
(-0.000859464 0 -0.065648)
(-0.00072289 0 -0.097225)
(-0.000885034 0 -0.090805)
(-0.000981618 0 -0.101838)
(-0.00114172 0 -0.103507)
(-0.00106403 0 -0.0899643)
(-0.00139105 0 -0.100066)
(-0.000631767 0 -0.0625999)
(-0.00125919 0 -0.0800267)
(0.000589979 0 -0.022354)
(-0.000422827 0 -0.0458296)
(0.00288538 0 0.0285951)
(0.00139605 0 -0.000241753)
(0.00674959 0 0.0892823)
(0.00450075 0 0.0550651)
(0.0131868 0 0.16043)
(0.00964795 0 0.119569)
(0.0243885 0 0.247238)
(0.0183465 0 0.194617)
(0.0417281 0 0.363822)
(0.0289757 0 0.289297)
(0.0729475 0 0.538614)
(0.0649066 0 0.420928)
(0.125646 0 0.517961)
(0.0572491 0 0.626628)
(0.246849 0 -0.876804)
(0.231538 0 0.356078)
(-0.0907689 0 -1.75129)
(0.181769 0 -2.03418)
(-0.21364 0 -0.433118)
(-0.305053 0 -1.3182)
(-0.116311 0 0.513972)
(-0.130028 0 0.458244)
(-0.0658132 0 0.431406)
(-0.0908532 0 0.518489)
(-0.0377317 0 0.250004)
(-0.0485351 0 0.316735)
(-0.0191303 0 0.107501)
(-0.0275875 0 0.166204)
(-0.00684512 0 -0.0256768)
(-0.0127882 0 0.0373387)
(0.00122696 0 -0.161467)
(-0.00203774 0 -0.0962151)
(0.0041099 0 -0.277921)
(0.00431243 0 -0.230776)
(0.0015001 0 -0.323962)
(0.00406493 0 -0.325392)
(-0.000271873 0 -0.265956)
(-0.000170063 0 -0.321339)
(0.0048751 0 -0.1279)
(0.00108948 0 -0.212142)
(0.0170945 0 0.041113)
(0.0111877 0 -0.0502657)
(0.0348291 0 0.21568)
(0.0270821 0 0.12116)
(0.0595251 0 0.398671)
(0.0485146 0 0.294166)
(0.0966093 0 0.608017)
(0.0799241 0 0.480049)
(0.15155 0 0.873374)
(0.118281 0 0.702331)
(0.226126 0 1.14858)
(0.191844 0 1.00004)
(0.372969 0 -0.286977)
(0.270315 0 1.22718)
(0.0373535 0 -1.9637)
(0.423498 0 -1.74322)
(-0.328926 0 -0.47117)
(-0.341111 0 -1.9627)
(-0.215378 0 1.11486)
(-0.269447 0 1.10551)
(-0.142928 0 0.931553)
(-0.180741 0 1.0678)
(-0.0913694 0 0.662213)
(-0.112429 0 0.753345)
(-0.062409 0 0.501472)
(-0.0792747 0 0.559569)
(-0.0430242 0 0.37515)
(-0.0547991 0 0.424436)
(-0.0295819 0 0.270514)
(-0.0380674 0 0.312557)
(-0.0200846 0 0.183382)
(-0.0262931 0 0.218913)
(-0.0133469 0 0.111803)
(-0.0177726 0 0.140932)
(-0.00862836 0 0.0550628)
(-0.0116894 0 0.0776735)
(-0.00541308 0 0.0126269)
(-0.00745091 0 0.0288714)
(-0.00328895 0 -0.016682)
(-0.00458588 0 -0.00615566)
(-0.0019137 0 -0.0348826)
(-0.0026969 0 -0.029012)
(-0.00102188 0 -0.044478)
(-0.00145978 0 -0.0420672)
(-0.000428389 0 -0.0479263)
(-0.000636121 0 -0.0478902)
(-1.52867e-05 0 -0.0472896)
(-6.73391e-05 0 -0.0487682)
(0.000287847 0 -0.0441216)
(0.000343524 0 -0.0464922)
(0.000520906 0 -0.0395139)
(0.000654368 0 -0.0423472)
(0.000706619 0 -0.0342046)
(0.000898953 0 -0.0372127)
(0.000858168 0 -0.0286833)
(0.00109616 0 -0.0316755)
(0.000983374 0 -0.0232723)
(0.00125778 0 -0.0261227)
(0.00108726 0 -0.0181827)
(0.00139119 0 -0.0208088)
(0.00117335 0 -0.0135519)
(0.00150145 0 -0.0159006)
(0.00124443 0 -0.00946748)
(0.00159238 0 -0.0115057)
(0.00130282 0 -0.00598233)
(0.00166711 0 -0.00769185)
(0.00135057 0 -0.00312255)
(0.00172821 0 -0.00449739)
(0.00138942 0 -0.000890782)
(0.00177793 0 -0.00193643)
(0.00142097 0 0.000733044)
(0.00181822 0 -3.3748e-07)
(0.0014468 0 0.00178924)
(0.00185087 0 0.00134173)
(0.00146806 0 0.00232951)
(0.00187725 0 0.00213908)
(0.00148624 0 0.00240334)
(0.0018986 0 0.00244541)
(0.00150213 0 0.00205322)
(0.00191665 0 0.00230669)
(0.00151414 0 0.0013093)
(0.00193318 0 0.00176623)
(0.00194229 0 0.000846456)
(0.00105814 0 0.0259644)
(0.000996783 0 0.0157162)
(0.00101704 0 0.0457296)
(0.00094062 0 0.0368188)
(0.00100655 0 0.0640985)
(0.000911194 0 0.055146)
(0.00100717 0 0.0818776)
(0.000912944 0 0.0734983)
(0.000982416 0 0.0980907)
(0.000904544 0 0.0906932)
(0.000906412 0 0.112258)
(0.000852853 0 0.105977)
(0.000769559 0 0.124284)
(0.000739778 0 0.119112)
(0.000573398 0 0.134219)
(0.000562252 0 0.130113)
(0.000325166 0 0.142094)
(0.00032572 0 0.139042)
(3.54436e-05 0 0.14785)
(3.96095e-05 0 0.145893)
(-0.000281588 0 0.151303)
(-0.000283471 0 0.150545)
(-0.000606643 0 0.152149)
(-0.000626504 0 0.152744)
(-0.000913856 0 0.150018)
(-0.000966183 0 0.15213)
(-0.00117145 0 0.144612)
(-0.00127208 0 0.148315)
(-0.0013474 0 0.136016)
(-0.00150925 0 0.141101)
(-0.00142126 0 0.125139)
(-0.00164738 0 0.130882)
(-0.00139682 0 0.114107)
(-0.00167575 0 0.119146)
(-0.00130361 0 0.10606)
(-0.00161359 0 0.108722)
(-0.00118276 0 0.103944)
(-0.00150136 0 0.1031)
(-0.00107643 0 0.108716)
(-0.00138154 0 0.104655)
(-0.00103422 0 0.118396)
(-0.00129921 0 0.112852)
(-0.00110924 0 0.128992)
(-0.0013132 0 0.124198)
(-0.00132489 0 0.136496)
(-0.00147419 0 0.134155)
(-0.00164918 0 0.138302)
(-0.00177986 0 0.139216)
(-0.00200512 0 0.133383)
(-0.00216542 0 0.137667)
(-0.00230382 0 0.121755)
(-0.00253567 0 0.12918)
(-0.00247319 0 0.103951)
(-0.00280106 0 0.114145)
(-0.0024734 0 0.0807825)
(-0.00290077 0 0.0932796)
(-0.00230332 0 0.0532945)
(-0.00281395 0 0.0675321)
(-0.00200164 0 0.0227771)
(-0.00255991 0 0.0380854)
(-0.00158647 0 -0.0144998)
(-0.00216946 0 0.00366725)
(-0.00126149 0 -0.0492412)
(-0.00175963 0 -0.0329975)
(-0.00115356 0 -0.0781709)
(-0.00151489 0 -0.0657199)
(-0.00130299 0 -0.0970333)
(-0.00154728 0 -0.0907053)
(-0.00157011 0 -0.101673)
(-0.00182246 0 -0.103329)
(-0.00162888 0 -0.0900555)
(-0.00208104 0 -0.100027)
(-0.0011026 0 -0.0631698)
(-0.00192094 0 -0.0803776)
(0.000315548 0 -0.0236119)
(-0.000992116 0 -0.046775)
(0.00294831 0 0.0263759)
(0.00100901 0 -0.00199693)
(0.00727391 0 0.0855973)
(0.00434299 0 0.0521814)
(0.0141556 0 0.15416)
(0.00966489 0 0.114981)
(0.0258726 0 0.237212)
(0.0191274 0 0.186805)
(0.0430619 0 0.347226)
(0.0273315 0 0.277837)
(0.0709019 0 0.509727)
(0.066663 0 0.402368)
(0.124211 0 0.46219)
(0.0466737 0 0.591088)
(0.230446 0 -0.808711)
(0.22511 0 0.285255)
(-0.0719336 0 -1.60577)
(0.167593 0 -1.8326)
(-0.200796 0 -0.425788)
(-0.269636 0 -1.23229)
(-0.11456 0 0.464205)
(-0.124054 0 0.400753)
(-0.0682692 0 0.404497)
(-0.0890021 0 0.487628)
(-0.0403374 0 0.233618)
(-0.0482252 0 0.298114)
(-0.0210358 0 0.096539)
(-0.0289145 0 0.153336)
(-0.00773253 0 -0.0329261)
(-0.0134038 0 0.0284698)
(0.0012051 0 -0.165344)
(-0.00206503 0 -0.102174)
(0.00458609 0 -0.278055)
(0.00467552 0 -0.23303)
(0.00234622 0 -0.322521)
(0.00470517 0 -0.323899)
(0.000947541 0 -0.267306)
(0.000835316 0 -0.320406)
(0.00711177 0 -0.134295)
(0.00257017 0 -0.216251)
(0.0209351 0 0.0301217)
(0.0135229 0 -0.0594813)
(0.040827 0 0.200189)
(0.0308021 0 0.107898)
(0.0676146 0 0.376481)
(0.0534458 0 0.276307)
(0.105554 0 0.575672)
(0.0864489 0 0.454756)
(0.159087 0 0.829442)
(0.123278 0 0.666643)
(0.225115 0 1.07682)
(0.186378 0 0.956017)
(0.34746 0 -0.232984)
(0.264176 0 1.14561)
(0.0448484 0 -1.74431)
(0.376386 0 -1.54148)
(-0.311519 0 -0.387474)
(-0.299015 0 -1.72512)
(-0.220329 0 1.05575)
(-0.273854 0 1.04472)
(-0.151451 0 0.889107)
(-0.174759 0 1.02188)
(-0.100102 0 0.632114)
(-0.118899 0 0.719113)
(-0.0703403 0 0.480013)
(-0.0852511 0 0.535287)
(-0.0494358 0 0.359644)
(-0.0597708 0 0.406546)
(-0.034483 0 0.259042)
(-0.0422265 0 0.299134)
(-0.0236832 0 0.174813)
(-0.0294645 0 0.208744)
(-0.0158879 0 0.105431)
(-0.0200554 0 0.133232)
(-0.0103445 0 0.0504141)
(-0.0132484 0 0.0719297)
(-0.00650323 0 0.00932681)
(-0.0084375 0 0.0246964)
(-0.00391126 0 -0.018969)
(-0.00512837 0 -0.00911077)
(-0.0021882 0 -0.0364526)
(-0.00289899 0 -0.0310727)
(-0.00103776 0 -0.0455682)
(-0.0014019 0 -0.0435105)
(-0.00025084 0 -0.0487081)
(-0.000379535 0 -0.0489258)
(0.000308769 0 -0.0478761)
(0.000341527 0 -0.0495408)
(0.000723589 0 -0.0445826)
(0.000870062 0 -0.047093)
(0.00104324 0 -0.039891)
(0.00127274 0 -0.0428329)
(0.00129706 0 -0.0345223)
(0.00158948 0 -0.0376173)
(0.00150269 0 -0.028956)
(0.00184399 0 -0.0320193)
(0.00167119 0 -0.0235084)
(0.0020515 0 -0.0264182)
(0.00180995 0 -0.0183878)
(0.00222186 0 -0.0210641)
(0.00192423 0 -0.0137298)
(0.00236202 0 -0.0161211)
(0.00201811 0 -0.00962133)
(0.00247715 0 -0.0116957)
(0.00209495 0 -0.00611491)
(0.00257146 0 -0.007855)
(0.0021576 0 -0.00323641)
(0.00264843 0 -0.00463693)
(0.00220849 0 -0.000988185)
(0.0027109 0 -0.00205533)
(0.0022496 0 0.000650133)
(0.00276136 0 -0.000101077)
(0.00228252 0 0.00171871)
(0.00280183 0 0.00125713)
(0.00230888 0 0.0022686)
(0.0028339 0 0.00206803)
(0.00233031 0 0.00234998)
(0.00285916 0 0.0023848)
(0.00234759 0 0.00200964)
(0.00287911 0 0.00225543)
(0.00235955 0 0.00128271)
(0.00289605 0 0.00172901)
(0.00290511 0 0.000830537)
(0.000873487 0 0.026069)
(0.000750889 0 0.0158106)
(0.000834856 0 0.0458025)
(0.00070203 0 0.036939)
(0.000818274 0 0.0641142)
(0.000665073 0 0.0551952)
(0.00081039 0 0.0819114)
(0.00065445 0 0.0735207)
(0.000776768 0 0.098224)
(0.000634671 0 0.0907839)
(0.000689678 0 0.112529)
(0.000571704 0 0.106201)
(0.000537562 0 0.124691)
(0.000445517 0 0.119484)
(0.000321172 0 0.134738)
(0.000251483 0 0.130618)
(4.79279e-05 0 0.142694)
(-5.52582e-06 0 0.13965)
(-0.000270798 0 0.148496)
(-0.000315853 0 0.14657)
(-0.000619653 0 0.151954)
(-0.000666125 0 0.151251)
(-0.000977785 0 0.152761)
(-0.00103816 0 0.153435)
(-0.00131752 0 0.15054)
(-0.00140718 0 0.152755)
(-0.00160526 0 0.144997)
(-0.00174111 0 0.148819)
(-0.00180758 0 0.136231)
(-0.00200353 0 0.14144)
(-0.00190323 0 0.125186)
(-0.00216324 0 0.131034)
(-0.00189579 0 0.114025)
(-0.00220937 0 0.119135)
(-0.00181501 0 0.10591)
(-0.00216147 0 0.108605)
(-0.00170324 0 0.103789)
(-0.00206095 0 0.102945)
(-0.00160562 0 0.108614)
(-0.00195224 0 0.104526)
(-0.0015761 0 0.118408)
(-0.00188326 0 0.112814)
(-0.00167221 0 0.129155)
(-0.00191625 0 0.124313)
(-0.00192016 0 0.136792)
(-0.00210487 0 0.134437)
(-0.00228659 0 0.138662)
(-0.00244767 0 0.139614)
(-0.00268877 0 0.133713)
(-0.00287686 0 0.138084)
(-0.00302995 0 0.121976)
(-0.00329087 0 0.129517)
(-0.00323103 0 0.104018)
(-0.0035933 0 0.114334)
(-0.00324831 0 0.0806905)
(-0.00371851 0 0.0932951)
(-0.00308055 0 0.0530727)
(-0.00364398 0 0.0673886)
(-0.00277012 0 0.0224862)
(-0.00339152 0 0.0378322)
(-0.00233934 0 -0.0147794)
(-0.00299489 0 0.00338009)
(-0.00200603 0 -0.0494182)
(-0.00257976 0 -0.0332197)
(-0.00190249 0 -0.0781891)
(-0.00234091 0 -0.0657889)
(-0.00206613 0 -0.0969287)
(-0.00239032 0 -0.0905962)
(-0.00234559 0 -0.101605)
(-0.00268932 0 -0.103143)
(-0.00240019 0 -0.0902652)
(-0.00296979 0 -0.0999908)
(-0.00183845 0 -0.0638901)
(-0.00282032 0 -0.0807521)
(-0.000350558 0 -0.0250604)
(-0.00188824 0 -0.0477669)
(0.00239784 0 0.0239272)
(0.000140328 0 -0.00382919)
(0.00684235 0 0.0817311)
(0.00348166 0 0.0492184)
(0.0135654 0 0.147849)
(0.00846214 0 0.110499)
(0.0248228 0 0.227591)
(0.0183412 0 0.1793)
(0.0407954 0 0.332893)
(0.0232823 0 0.267189)
(0.0636972 0 0.483557)
(0.0635356 0 0.3871)
(0.113588 0 0.412676)
(0.0343193 0 0.557828)
(0.205461 0 -0.746085)
(0.205524 0 0.224006)
(-0.0538221 0 -1.46786)
(0.149375 0 -1.65974)
(-0.178489 0 -0.409264)
(-0.229522 0 -1.14918)
(-0.104908 0 0.422999)
(-0.113061 0 0.351699)
(-0.0647744 0 0.380939)
(-0.0807577 0 0.460873)
(-0.039394 0 0.218039)
(-0.0447719 0 0.281193)
(-0.0209633 0 0.0855145)
(-0.0280265 0 0.141049)
(-0.00767522 0 -0.0405656)
(-0.012757 0 0.019611)
(0.00143708 0 -0.169655)
(-0.0016053 0 -0.108248)
(0.00499273 0 -0.278662)
(0.00506821 0 -0.235401)
(0.00313108 0 -0.321581)
(0.00524054 0 -0.322658)
(0.00219142 0 -0.269167)
(0.0017663 0 -0.31978)
(0.00879152 0 -0.141277)
(0.00374786 0 -0.220652)
(0.0232813 0 0.0184442)
(0.0148999 0 -0.0691413)
(0.043972 0 0.184154)
(0.0326423 0 0.0941045)
(0.0710983 0 0.354677)
(0.055151 0 0.258223)
(0.107415 0 0.545692)
(0.0877878 0 0.430545)
(0.156058 0 0.792238)
(0.122157 0 0.634214)
(0.210058 0 1.02137)
(0.1723 0 0.920017)
(0.306671 0 -0.172701)
(0.242857 0 1.0812)
(0.0377337 0 -1.53479)
(0.321654 0 -1.36219)
(-0.283081 0 -0.300131)
(-0.261183 0 -1.51124)
(-0.209322 0 1.00813)
(-0.25896 0 0.995545)
(-0.149102 0 0.851102)
(-0.159641 0 0.981734)
(-0.10231 0 0.603698)
(-0.119223 0 0.687918)
(-0.0735103 0 0.458756)
(-0.0858181 0 0.51179)
(-0.0524306 0 0.343587)
(-0.0610676 0 0.388506)
(-0.0369756 0 0.246812)
(-0.043695 0 0.285259)
(-0.0255858 0 0.165474)
(-0.030652 0 0.198018)
(-0.0172283 0 0.0983574)
(-0.0208871 0 0.124977)
(-0.0111985 0 0.0451578)
(-0.013737 0 0.0656819)
(-0.00695669 0 0.00551385)
(-0.00861608 0 0.0200861)
(-0.0040423 0 -0.0216842)
(-0.00504104 0 -0.0124335)
(-0.00206228 0 -0.0383784)
(-0.00258994 0 -0.0334407)
(-0.000708949 0 -0.0469531)
(-0.000910725 0 -0.0452083)
(0.000237251 0 -0.0497334)
(0.000258803 0 -0.050171)
(0.000921174 0 -0.048664)
(0.00109747 0 -0.0504849)
(0.00143376 0 -0.0452107)
(0.00171984 0 -0.0478353)
(0.00183056 0 -0.0404076)
(0.00219722 0 -0.0434356)
(0.00214566 0 -0.034957)
(0.00257346 0 -0.0381194)
(0.00240029 0 -0.0293273)