/*--------------------------------*- C++ -*----------------------------------*\
  =========                 |
  \\      /  F ield         | OpenFOAM: The Open Source CFD Toolbox
   \\    /   O peration     | Website:  https://openfoam.org
    \\  /    A nd           | Version:  9
     \\/     M anipulation  |
\*---------------------------------------------------------------------------*/
FoamFile
{
    format      ascii;
    class       volScalarField;
    location    "0.17";
    object      alpha.water;
}
// * * * * * * * * * * * * * * * * * * * * * * * * * * * * * * * * * * * * * //

dimensions      [0 0 0 0 0 0 0];

internalField   nonuniform List<scalar> 
5000
(
3.7383e-319
3.56725e-319
3.40391e-319
3.24799e-319
3.09917e-319
2.95688e-319
2.82111e-319
2.69157e-319
2.56776e-319
2.44968e-319
2.33693e-319
2.22922e-319
2.12656e-319
2.02863e-319
1.93516e-319
1.84603e-319
1.76095e-319
1.67992e-319
1.60265e-319
1.52903e-319
1.45888e-319
1.39198e-319
1.32825e-319
1.26757e-319
1.20977e-319
1.15473e-319
1.10216e-319
1.05196e-319
1.00414e-319
9.58487e-320
7.84774e-320
7.85564e-320
7.86553e-320
7.87639e-320
7.88924e-320
7.90307e-320
7.92086e-320
7.94556e-320
7.9841e-320
8.05129e-320
8.16592e-320
8.32303e-320
8.43666e-320
8.43864e-320
8.42777e-320
8.52263e-320
8.64813e-320
8.43074e-320
7.96434e-320
7.6343e-320
3.7381e-319
3.56715e-319
3.40391e-319
3.24799e-319
3.09908e-319
2.95688e-319
2.82111e-319
2.69147e-319
2.56776e-319
2.44958e-319
2.33683e-319
2.22922e-319
2.12656e-319
2.02863e-319
1.93516e-319
1.84593e-319
1.76095e-319
1.67982e-319
1.60265e-319
1.52903e-319
1.45888e-319
1.39198e-319
1.32825e-319
1.26757e-319
1.20987e-319
1.15473e-319
1.10216e-319
1.05196e-319
1.00414e-319
9.58487e-320
7.84774e-320
7.85663e-320
7.86553e-320
7.87738e-320
7.88924e-320
7.90406e-320
7.92284e-320
7.94853e-320
7.99003e-320
8.06118e-320
8.17777e-320
8.33093e-320
8.43864e-320
8.44259e-320
8.43568e-320
8.52164e-320
8.62342e-320
8.41493e-320
7.97521e-320
7.65505e-320
3.7379e-319
3.56696e-319
3.40372e-319
3.24779e-319
3.09898e-319
2.95669e-319
2.82102e-319
2.69137e-319
2.56766e-319
2.44958e-319
2.33673e-319
2.22922e-319
2.12646e-319
2.02853e-319
1.93506e-319
1.84593e-319
1.76085e-319
1.67982e-319
1.60255e-319
1.52903e-319
1.45888e-319
1.39198e-319
1.32825e-319
1.26757e-319
1.20987e-319
1.15473e-319
1.10216e-319
1.05206e-319
1.00414e-319
9.58487e-320
7.84774e-320
7.85762e-320
7.8675e-320
7.87738e-320
7.89122e-320
7.90604e-320
7.9258e-320
7.95347e-320
7.99695e-320
8.07007e-320
8.18766e-320
8.3339e-320
8.43568e-320
8.44259e-320
8.44062e-320
8.51572e-320
8.59477e-320
8.40504e-320
7.99695e-320
7.68569e-320
3.73761e-319
3.56676e-319
3.40352e-319
3.24759e-319
3.09878e-319
2.95659e-319
2.82092e-319
2.69127e-319
2.56756e-319
2.44938e-319
2.33673e-319
2.22903e-319
2.12646e-319
2.02844e-319
1.93496e-319
1.84583e-319
1.76085e-319
1.67982e-319
1.60255e-319
1.52894e-319
1.45878e-319
1.39198e-319
1.32825e-319
1.26757e-319
1.20987e-319
1.15473e-319
1.10216e-319
1.05206e-319
1.00414e-319
9.58487e-320
7.84774e-320
7.85762e-320
7.8675e-320
7.87936e-320
7.8922e-320
7.90801e-320
7.92877e-320
7.95841e-320
8.00386e-320
8.07896e-320
8.19556e-320
8.33588e-320
8.42975e-320
8.44062e-320
8.44259e-320
8.50583e-320
8.56512e-320
8.39516e-320
8.02165e-320
7.71829e-320
3.73731e-319
3.56636e-319
3.40312e-319
3.24739e-319
3.09848e-319
2.95629e-319
2.82062e-319
2.69108e-319
2.56736e-319
2.44928e-319
2.33654e-319
2.22903e-319
2.12626e-319
2.02834e-319
1.93496e-319
1.84583e-319
1.76085e-319
1.67982e-319
1.60255e-319
1.52894e-319
1.45878e-319
1.39188e-319
1.32825e-319
1.26757e-319
1.20987e-319
1.15473e-319
1.10216e-319
1.05206e-319
1.00424e-319
9.58487e-320
7.84774e-320
7.85762e-320
7.8675e-320
7.87936e-320
7.89319e-320
7.91098e-320
7.93272e-320
7.96335e-320
8.01177e-320
8.08884e-320
8.20248e-320
8.3339e-320
8.42283e-320
8.43666e-320
8.44161e-320
8.49398e-320
8.53745e-320
8.38726e-320
8.04734e-320
7.7509e-320
3.73682e-319
3.56597e-319
3.40283e-319
3.247e-319
3.09819e-319
2.95609e-319
2.82032e-319
2.69088e-319
2.56717e-319
2.44908e-319
2.33634e-319
2.22883e-319
2.12616e-319
2.02824e-319
1.93476e-319
1.84563e-319
1.76065e-319
1.67972e-319
1.60255e-319
1.52884e-319
1.45868e-319
1.39188e-319
1.32825e-319
1.26757e-319
1.20987e-319
1.15473e-319
1.10216e-319
1.05216e-319
1.00424e-319
9.58586e-320
7.84873e-320
7.85861e-320
7.86948e-320
7.88134e-320
7.89517e-320
7.91296e-320
7.93667e-320
7.96829e-320
8.0177e-320
8.09576e-320
8.20742e-320
8.33192e-320
8.41295e-320
8.43074e-320
8.43765e-320
8.48014e-320
8.51077e-320
8.37738e-320
8.06908e-320
7.78055e-320
3.73632e-319
3.56557e-319
3.40233e-319
3.2466e-319
3.09779e-319
2.9557e-319
2.82013e-319
2.69058e-319
2.56697e-319
2.44889e-319
2.33614e-319
2.22863e-319
2.12606e-319
2.02804e-319
1.93466e-319
1.84563e-319
1.76065e-319
1.67963e-319
1.60235e-319
1.52884e-319
1.45868e-319
1.39188e-319
1.32825e-319
1.26757e-319
1.20977e-319
1.15473e-319
1.10216e-319
1.05216e-319
1.00424e-319
9.58586e-320
7.84971e-320
7.8596e-320
7.86948e-320
7.88232e-320
7.89715e-320
7.91493e-320
7.93963e-320
7.97422e-320
8.02461e-320
8.10268e-320
8.21038e-320
8.32797e-320
8.40307e-320
8.42283e-320
8.43074e-320
8.46631e-320
8.48706e-320
8.36848e-320
8.08884e-320
7.80821e-320
3.73573e-319
3.56498e-319
3.40194e-319
3.24611e-319
3.0974e-319
2.9553e-319
2.81973e-319
2.69029e-319
2.56657e-319
2.44859e-319
2.33594e-319
2.22843e-319
2.12587e-319
2.02794e-319
1.93456e-319
1.84543e-319
1.76045e-319
1.67953e-319
1.60235e-319
1.52874e-319
1.45868e-319
1.39188e-319
1.32815e-319
1.26757e-319
1.20977e-319
1.15473e-319
1.10216e-319
1.05216e-319
1.00434e-319
9.58685e-320
7.84971e-320
7.8596e-320
7.87047e-320
7.88331e-320
7.89912e-320
7.9179e-320
7.9426e-320
7.97817e-320
8.02955e-320
8.10762e-320
8.21236e-320
8.32204e-320
8.39319e-320
8.41394e-320
8.42283e-320
8.45149e-320
8.46433e-320
8.35761e-320
8.10366e-320
7.83193e-320
3.73494e-319
3.56429e-319
3.40135e-319
3.24562e-319
3.0969e-319
2.95491e-319
2.81934e-319
2.68989e-319
2.56628e-319
2.44829e-319
2.33574e-319
2.22824e-319
2.12567e-319
2.02774e-319
1.93437e-319
1.84524e-319
1.76036e-319
1.67943e-319
1.60216e-319
1.52864e-319
1.45848e-319
1.39168e-319
1.32805e-319
1.26748e-319
1.20967e-319
1.15473e-319
1.10216e-319
1.05206e-319
1.00434e-319
9.58685e-320
7.84971e-320
7.8596e-320
7.87145e-320
7.88529e-320
7.9011e-320
7.92086e-320
7.94655e-320
7.98212e-320
8.03548e-320
8.11256e-320
8.21236e-320
8.31611e-320
8.38232e-320
8.40307e-320
8.41295e-320
8.43666e-320
8.44457e-320
8.34773e-320
8.11453e-320
7.84971e-320
3.73415e-319
3.5636e-319
3.40056e-319
3.24502e-319
3.09641e-319
2.95441e-319
2.81894e-319
2.6895e-319
2.56598e-319
2.448e-319
2.33535e-319
2.22784e-319
2.12537e-319
2.02745e-319
1.93417e-319
1.84514e-319
1.76026e-319
1.67923e-319
1.60216e-319
1.52854e-319
1.45848e-319
1.39168e-319
1.32805e-319
1.26738e-319
1.20967e-319
1.15463e-319
1.10216e-319
1.05206e-319
1.00434e-319
9.58685e-320
7.84971e-320
7.86058e-320
7.87145e-320
7.88529e-320
7.90209e-320
7.92284e-320
7.94853e-320
7.98608e-320
8.03944e-320
8.11453e-320
8.21137e-320
8.30821e-320
8.37145e-320
8.3922e-320
8.40109e-320
8.42085e-320
8.42382e-320
8.33489e-320
8.12046e-320
7.86454e-320
3.73336e-319
3.56281e-319
3.39996e-319
3.24433e-319
3.09582e-319
2.95392e-319
2.81835e-319
2.6891e-319
2.56558e-319
2.4476e-319
2.33505e-319
2.22764e-319
2.12508e-319
2.02725e-319
1.93397e-319
1.84494e-319
1.76006e-319
1.67903e-319
1.60196e-319
1.52844e-319
1.45828e-319
1.39159e-319
1.32795e-319
1.26738e-319
1.20967e-319
1.15453e-319
1.10216e-319
1.05196e-319
1.00424e-319
9.58685e-320
7.84971e-320
7.86058e-320
7.87343e-320
7.88726e-320
7.90307e-320
7.92481e-320
7.95149e-320
7.98904e-320
8.0424e-320
8.11651e-320
8.20939e-320
8.3003e-320
8.35959e-320
8.38133e-320
8.38923e-320
8.40504e-320
8.40504e-320
8.32204e-320
8.12442e-320
7.87541e-320
3.73237e-319
3.56192e-319
3.39917e-319
3.24364e-319
3.09512e-319
2.95333e-319
2.81785e-319
2.68851e-319
2.56509e-319
2.44721e-319
2.33466e-319
2.22725e-319
2.12478e-319
2.02705e-319
1.93367e-319
1.84464e-319
1.75986e-319
1.67893e-319
1.60176e-319
1.52824e-319
1.45828e-319
1.39149e-319
1.32785e-319
1.26728e-319
1.20957e-319
1.15453e-319
1.10206e-319
1.05196e-319
1.00424e-319
9.58685e-320
7.84971e-320
7.86157e-320
7.87343e-320
7.88726e-320
7.90505e-320
7.9258e-320
7.95347e-320
7.99201e-320
8.04536e-320
8.11849e-320
8.20742e-320
8.2924e-320
8.34773e-320
8.36848e-320
8.37738e-320
8.38923e-320
8.38528e-320
8.30821e-320
8.12244e-320
7.88134e-320
3.73138e-319
3.56103e-319
3.39818e-319
3.24285e-319
3.09443e-319
2.95264e-319
2.81726e-319
2.68801e-319
2.5646e-319
2.44681e-319
2.33426e-319
2.22685e-319
2.12448e-319
2.02666e-319
1.93338e-319
1.84445e-319
1.75966e-319
1.67874e-319
1.60156e-319
1.52805e-319
1.45809e-319
1.39129e-319
1.32775e-319
1.26718e-319
1.20947e-319
1.15443e-319
1.10196e-319
1.05196e-319
1.00414e-319
9.58586e-320
7.84971e-320
7.86157e-320
7.87343e-320
7.88726e-320
7.90505e-320
7.92679e-320
7.95545e-320
7.99398e-320
8.04734e-320
8.11849e-320
8.20347e-320
8.28449e-320
8.33588e-320
8.35564e-320
8.36354e-320
8.37342e-320
8.36651e-320
8.2924e-320
8.12046e-320
7.88529e-320
3.7302e-319
3.55994e-319
3.39729e-319
3.24196e-319
3.09364e-319
2.95194e-319
2.81657e-319
2.68742e-319
2.564e-319
2.44622e-319
2.33377e-319
2.22646e-319
2.12409e-319
2.02636e-319
1.93318e-319
1.84425e-319
1.75937e-319
1.67844e-319
1.60137e-319
1.52795e-319
1.45789e-319
1.39119e-319
1.32765e-319
1.26708e-319
1.20937e-319
1.15433e-319
1.10196e-319
1.05196e-319
1.00414e-319
9.58487e-320
7.84971e-320
7.86157e-320
7.87343e-320
7.88825e-320
7.90604e-320
7.92877e-320
7.95643e-320
7.99596e-320
8.04833e-320
8.11849e-320
8.19951e-320
8.2756e-320
8.32402e-320
8.34279e-320
8.34971e-320
8.35761e-320
8.34773e-320
8.27758e-320
8.11453e-320
7.88726e-320
3.72901e-319
3.55885e-319
3.39631e-319
3.24107e-319
3.09285e-319
2.95115e-319
2.81598e-319
2.68673e-319
2.56351e-319
2.44582e-319
2.33337e-319
2.22606e-319
2.12369e-319
2.02606e-319
1.93278e-319
1.84385e-319
1.75907e-319
1.67824e-319
1.60117e-319
1.52775e-319
1.45769e-319
1.39109e-319
1.32746e-319
1.26698e-319
1.20928e-319
1.15433e-319
1.10187e-319
1.05177e-319
1.00414e-319
9.58487e-320
7.84971e-320
7.86157e-320
7.87343e-320
7.88924e-320
7.90703e-320
7.92877e-320
7.95841e-320
7.99596e-320
8.04932e-320
8.11651e-320
8.19556e-320
8.26671e-320
8.31216e-320
8.32995e-320
8.33686e-320
8.3418e-320
8.32995e-320
8.26275e-320
8.10663e-320
7.88726e-320
3.72763e-319
3.55767e-319
3.39522e-319
3.24008e-319
3.09186e-319
2.95036e-319
2.81519e-319
2.68614e-319
2.56282e-319
2.44523e-319
2.33288e-319
2.22567e-319
2.1233e-319
2.02567e-319
1.93249e-319
1.84366e-319
1.75887e-319
1.67804e-319
1.60097e-319
1.52755e-319
1.45749e-319
1.39089e-319
1.32736e-319
1.26678e-319
1.20908e-319
1.15414e-319
1.10177e-319
1.05177e-319
1.00394e-319
9.58487e-320
7.84971e-320
7.86157e-320
7.87343e-320
7.88924e-320
7.90703e-320
7.92877e-320
7.95841e-320
7.99695e-320
8.04932e-320
8.11552e-320
8.19062e-320
8.25683e-320
8.3003e-320
8.3171e-320
8.32303e-320
8.32599e-320
8.31315e-320
8.24694e-320
8.09872e-320
7.88529e-320
3.72634e-319
3.55648e-319
3.39403e-319
3.23909e-319
3.09097e-319
2.94957e-319
2.8144e-319
2.68544e-319
2.56222e-319
2.44464e-319
2.33239e-319
2.22507e-319
2.1229e-319
2.02527e-319
1.93209e-319
1.84326e-319
1.75848e-319
1.67775e-319
1.60077e-319
1.52726e-319
1.4573e-319
1.3907e-319
1.32726e-319
1.26669e-319
1.20908e-319
1.15404e-319
1.10157e-319
1.05157e-319
1.00394e-319
9.58389e-320
7.84971e-320
7.86058e-320
7.87343e-320
7.88825e-320
7.90703e-320
7.92877e-320
7.95841e-320
7.99695e-320
8.04833e-320
8.11256e-320
8.18469e-320
8.24793e-320
8.28746e-320
8.30426e-320
8.3092e-320
8.31018e-320
8.29635e-320
8.23212e-320
8.09082e-320
7.88331e-320
3.72486e-319
3.5551e-319
3.39285e-319
3.23791e-319
3.08999e-319
2.94858e-319
2.81361e-319
2.68465e-319
2.56153e-319
2.44404e-319
2.33179e-319
2.22468e-319
2.12231e-319
2.02478e-319
1.9317e-319
1.84286e-319
1.75828e-319
1.67745e-319
1.60048e-319
1.52706e-319
1.4571e-319
1.3905e-319
1.32706e-319
1.26649e-319
1.20888e-319
1.15394e-319
1.10157e-319
1.05157e-319
1.00374e-319
9.5829e-320
7.84873e-320
7.8596e-320
7.87343e-320
7.88825e-320
7.90703e-320
7.92877e-320
7.95841e-320
7.99695e-320
8.04734e-320
8.11058e-320
8.17876e-320
8.23904e-320
8.2756e-320
8.29042e-320
8.29536e-320
8.29536e-320
8.27955e-320
8.2173e-320
8.08291e-320
7.88232e-320
3.72338e-319
3.55372e-319
3.39166e-319
3.23682e-319
3.0889e-319
2.9476e-319
2.81272e-319
2.68386e-319
2.56084e-319
2.44335e-319
2.3312e-319
2.22409e-319
2.12191e-319
2.02429e-319
1.9313e-319
1.84247e-319
1.75789e-319
1.67716e-319
1.60018e-319
1.52686e-319
1.4569e-319
1.3903e-319
1.32686e-319
1.26639e-319
1.20868e-319
1.15374e-319
1.10137e-319
1.05137e-319
1.00374e-319
9.58191e-320
7.84774e-320
7.8596e-320
7.87244e-320
7.88726e-320
7.90604e-320
7.92877e-320
7.95841e-320
7.99596e-320
8.04536e-320
8.10663e-320
8.17283e-320
8.22916e-320
8.26275e-320
8.27758e-320
8.28054e-320
8.28054e-320
8.26374e-320
8.20347e-320
8.07303e-320
7.87936e-320
3.7217e-319
3.55233e-319
3.39028e-319
3.23564e-319
3.08781e-319
2.94661e-319
2.81183e-319
2.68297e-319
2.56005e-319
2.44266e-319
2.33051e-319
2.22349e-319
2.12132e-319
2.02389e-319
1.93081e-319
1.84207e-319
1.75749e-319
1.67686e-319
1.59988e-319
1.52656e-319
1.4567e-319
1.3901e-319
1.32667e-319
1.26619e-319
1.20848e-319
1.15354e-319
1.10117e-319
1.05117e-319
1.00355e-319
9.58092e-320
7.84774e-320
7.85861e-320
7.87145e-320
7.88726e-320
7.90505e-320
7.92778e-320
7.95643e-320
7.99497e-320
8.04339e-320
8.10268e-320
8.16592e-320
8.21928e-320
8.2509e-320
8.26473e-320
8.26671e-320
8.26473e-320
8.24793e-320
8.18864e-320
8.06315e-320
7.87738e-320
3.72012e-319
3.55075e-319
3.3889e-319
3.23435e-319
3.08672e-319
2.94562e-319
2.81084e-319
2.68218e-319
2.55926e-319
2.44187e-319
2.32982e-319
2.2229e-319
2.12083e-319
2.0233e-319
1.93041e-319
1.84168e-319
1.7571e-319
1.67646e-319
1.59959e-319
1.52627e-319
1.45641e-319
1.38981e-319
1.32637e-319
1.26599e-319
1.20829e-319
1.15335e-319
1.10107e-319
1.05108e-319
1.00335e-319
9.57894e-320
7.84576e-320
7.85762e-320
7.87145e-320
7.88529e-320
7.90406e-320
7.92679e-320
7.95643e-320
7.99398e-320
8.04141e-320
8.09872e-320
8.159e-320
8.20939e-320
8.23904e-320
8.2509e-320
8.25287e-320
8.24991e-320
8.23212e-320
8.17382e-320
8.05228e-320
7.87145e-320
3.71834e-319
3.54917e-319
3.38751e-319
3.23297e-319
3.08554e-319
2.94453e-319
2.80985e-319
2.6812e-319
2.55847e-319
2.44118e-319
2.32922e-319
2.22231e-319
2.12023e-319
2.0229e-319
1.92992e-319
1.84128e-319
1.7567e-319
1.67607e-319
1.59919e-319
1.52587e-319
1.45611e-319
1.38951e-319
1.32607e-319
1.2657e-319
1.20809e-319
1.15325e-319
1.10088e-319
1.05098e-319
1.00325e-319
9.57697e-320
7.84576e-320
7.85663e-320
7.86948e-320
7.88529e-320
7.90307e-320
7.9258e-320
7.95446e-320
7.99201e-320
8.03944e-320
8.09477e-320
8.15208e-320
8.19853e-320
8.22619e-320
8.23706e-320
8.23805e-320
8.23509e-320
8.21532e-320
8.15801e-320
8.03845e-320
7.86157e-320
3.71656e-319
3.54759e-319
3.38603e-319
3.23168e-319
3.08425e-319
2.94345e-319
2.80886e-319
2.68031e-319
2.55758e-319
2.44039e-319
2.32843e-319
2.22162e-319
2.11964e-319
2.02231e-319
1.92943e-319
1.84079e-319
1.7563e-319
1.67567e-319
1.5988e-319
1.52567e-319
1.45581e-319
1.38931e-319
1.32587e-319
1.2654e-319
1.20789e-319
1.15295e-319
1.10068e-319
1.05078e-319
1.00315e-319
9.57598e-320
7.84379e-320
7.85564e-320
7.86849e-320
7.88331e-320
7.9011e-320
7.92481e-320
7.95248e-320
7.99003e-320
8.03548e-320
8.08983e-320
8.14418e-320
8.18766e-320
8.21335e-320
8.22323e-320
8.22323e-320
8.21829e-320
8.19754e-320
8.14023e-320
8.01967e-320
7.84379e-320
3.71478e-319
3.54581e-319
3.38445e-319
3.2302e-319
3.08297e-319
2.94226e-319
2.80778e-319
2.67932e-319
2.55669e-319
2.4395e-319
2.32764e-319
2.22092e-319
2.11895e-319
2.02172e-319
1.92883e-319
1.8403e-319
1.75591e-319
1.67528e-319
1.5985e-319
1.52528e-319
1.45552e-319
1.38892e-319
1.32568e-319
1.2652e-319
1.20769e-319
1.15275e-319
1.10048e-319
1.05058e-319
1.00295e-319
9.574e-320
7.8428e-320
7.85367e-320
7.8675e-320
7.88134e-320
7.90011e-320
7.92284e-320
7.9505e-320
7.98707e-320
8.03252e-320
8.08489e-320
8.13627e-320
8.17679e-320
8.2005e-320
8.20742e-320
8.20742e-320
8.20149e-320
8.17975e-320
8.11849e-320
7.99695e-320
7.82007e-320
3.7128e-319
3.54403e-319
3.38287e-319
3.22882e-319
3.08159e-319
2.94098e-319
2.80669e-319
2.67833e-319
2.5557e-319
2.43871e-319
2.32695e-319
2.22023e-319
2.11836e-319
2.02112e-319
1.92834e-319
1.8398e-319
1.75532e-319
1.67488e-319
1.5981e-319
1.52488e-319
1.45512e-319
1.38872e-319
1.32528e-319
1.26501e-319
1.2075e-319
1.15256e-319
1.10019e-319
1.05038e-319
1.00276e-319
9.57302e-320
7.84181e-320
7.85268e-320
7.86553e-320
7.88035e-320
7.89912e-320
7.92086e-320
7.94853e-320
7.9841e-320
8.02857e-320
8.07896e-320
8.12837e-320
8.16592e-320
8.18766e-320
8.19358e-320
8.19161e-320
8.1837e-320
8.159e-320
8.09477e-320
7.96829e-320
7.78944e-320
3.71083e-319
3.54225e-319
3.38119e-319
3.22724e-319
3.0802e-319
2.93969e-319
2.8055e-319
2.67724e-319
2.55481e-319
2.43782e-319
2.32606e-319
2.21954e-319
2.11766e-319
2.02053e-319
1.92775e-319
1.83931e-319
1.75492e-319
1.67449e-319
1.59771e-319
1.52449e-319
1.45483e-319
1.38832e-319
1.32508e-319
1.26471e-319
1.2071e-319
1.15236e-319
1.09999e-319
1.05019e-319
1.00256e-319
9.57005e-320
7.83983e-320
7.85169e-320
7.86355e-320
7.87837e-320
7.89715e-320
7.91888e-320
7.94655e-320
7.98212e-320
8.02461e-320
8.07303e-320
8.11947e-320
8.15406e-320
8.17382e-320
8.17777e-320
8.17481e-320
8.16394e-320
8.13726e-320
8.06908e-320
7.93568e-320
7.75485e-320
3.70875e-319
3.54047e-319
3.37951e-319
3.22575e-319
3.07882e-319
2.93841e-319
2.80432e-319
2.67616e-319
2.55373e-319
2.43693e-319
2.32527e-319
2.21875e-319
2.11697e-319
2.01984e-319
1.92725e-319
1.83871e-319
1.75443e-319
1.67399e-319
1.59722e-319
1.52409e-319
1.45453e-319
1.38803e-319
1.32469e-319
1.26441e-319
1.2069e-319
1.15206e-319
1.09979e-319
1.04989e-319
1.00226e-319
9.56808e-320
7.83786e-320
7.84971e-320
7.86157e-320
7.87738e-320
7.89418e-320
7.91691e-320
7.94359e-320
7.97817e-320
8.01967e-320
8.0671e-320
8.11058e-320
8.14319e-320
8.15999e-320
8.16295e-320
8.15801e-320
8.14517e-320
8.11453e-320
8.04141e-320
7.9011e-320
7.72323e-320
3.70668e-319
3.5385e-319
3.37773e-319
3.22407e-319
3.07734e-319
2.93712e-319
2.80313e-319
2.67507e-319
2.55274e-319
2.43594e-319
2.32448e-319
2.21796e-319
2.11618e-319
2.01915e-319
1.92656e-319
1.83822e-319
1.75393e-319
1.6735e-319
1.59682e-319
1.5237e-319
1.45413e-319
1.38773e-319
1.32439e-319
1.26412e-319
1.20661e-319
1.15177e-319
1.09959e-319
1.04959e-319
1.00197e-319
9.5661e-320
7.83687e-320
7.84774e-320
7.8596e-320
7.87442e-320
7.8922e-320
7.91394e-320
7.94062e-320
7.97422e-320
8.01572e-320
8.06019e-320
8.10169e-320
8.13232e-320
8.14615e-320
8.14813e-320
8.14023e-320
8.12639e-320
8.09181e-320
8.01276e-320
7.86849e-320
7.69557e-320
3.7045e-319
3.53652e-319
3.37595e-319
3.22249e-319
3.07586e-319
2.93574e-319
2.80185e-319
2.67388e-319
2.55175e-319
2.43495e-319
2.32349e-319
2.21717e-319
2.11549e-319
2.01855e-319
1.92597e-319
1.83763e-319
1.75334e-319
1.67301e-319
1.59642e-319
1.5233e-319
1.45374e-319
1.38734e-319
1.3241e-319
1.26382e-319
1.20631e-319
1.15157e-319
1.0992e-319
1.0494e-319
1.00177e-319
9.56313e-320
7.83489e-320
7.84576e-320
7.85762e-320
7.87244e-320
7.88924e-320
7.91098e-320
7.93766e-320
7.97126e-320
8.01078e-320
8.05327e-320
8.0928e-320
8.12046e-320
8.13331e-320
8.13232e-320
8.12442e-320
8.10663e-320
8.06908e-320
7.98608e-320
7.83983e-320
7.67778e-320
3.70233e-319
3.53455e-319
3.37407e-319
3.22081e-319
3.07427e-319
2.93435e-319
2.80056e-319
2.6727e-319
2.55066e-319
2.43396e-319
2.3227e-319
2.21628e-319
2.1148e-319
2.01776e-319
1.92528e-319
1.83703e-319
1.75285e-319
1.67251e-319
1.59593e-319
1.52291e-319
1.45334e-319
1.38694e-319
1.3237e-319
1.26342e-319
1.20601e-319
1.15127e-319
1.099e-319
1.0492e-319
1.00157e-319
9.56116e-320
7.8339e-320
7.84379e-320
7.85564e-320
7.86948e-320
7.88726e-320
7.909e-320
7.93469e-320
7.9673e-320
8.00584e-320
8.04734e-320
8.0839e-320
8.10959e-320
8.12046e-320
8.11849e-320
8.10861e-320
8.08884e-320
8.04932e-320
7.96335e-320
7.82007e-320
7.67086e-320
3.69996e-319
3.53237e-319
3.3722e-319
3.21913e-319
3.07269e-319
2.93287e-319
2.79918e-319
2.67151e-319
2.54958e-319
2.43298e-319
2.32171e-319
2.21539e-319
2.11401e-319
2.01707e-319
1.92468e-319
1.83644e-319
1.75225e-319
1.67202e-319
1.59544e-319
1.52251e-319
1.45295e-319
1.38655e-319
1.3234e-319
1.26313e-319
1.20572e-319
1.15098e-319
1.0987e-319
1.0488e-319
1.00127e-319
9.55918e-320
7.83193e-320
7.84181e-320
7.85367e-320
7.8675e-320
7.88529e-320
7.90505e-320
7.93173e-320
7.96335e-320
8.0009e-320
8.04042e-320
8.07501e-320
8.09872e-320
8.10762e-320
8.10465e-320
8.0928e-320
8.07303e-320
8.03054e-320
7.94458e-320
7.80624e-320
7.67383e-320
3.69769e-319
3.5303e-319
3.37032e-319
3.21736e-319
3.07111e-319
2.93139e-319
2.79789e-319
2.67033e-319
2.54839e-319
2.43199e-319
2.32073e-319
2.2146e-319
2.11322e-319
2.01638e-319
1.92389e-319
1.83575e-319
1.75176e-319
1.67152e-319
1.59494e-319
1.52202e-319
1.45245e-319
1.38615e-319
1.32301e-319
1.26283e-319
1.20532e-319
1.15058e-319
1.09841e-319
1.0486e-319
1.00098e-319
9.55523e-320
7.82995e-320
7.83983e-320
7.85169e-320
7.86553e-320
7.88232e-320
7.90307e-320
7.92877e-320
7.96039e-320
7.99596e-320
8.03351e-320
8.0671e-320
8.08884e-320
8.09576e-320
8.09082e-320
8.07896e-320
8.05722e-320
8.01572e-320
7.93074e-320
7.80228e-320
7.6847e-320
3.69541e-319
3.52822e-319
3.36834e-319
3.21558e-319
3.06953e-319
2.92991e-319
2.79651e-319
2.66904e-319
2.5472e-319
2.4309e-319
2.31974e-319
2.21361e-319
2.11233e-319
2.01559e-319
1.9233e-319
1.83516e-319
1.75117e-319
1.67093e-319
1.59445e-319
1.52152e-319
1.45206e-319
1.38576e-319
1.32271e-319
1.26244e-319
1.20512e-319
1.15038e-319
1.09811e-319
1.04831e-319
1.00078e-319
9.55325e-320
7.82798e-320
7.83786e-320
7.84971e-320
7.86355e-320
7.87936e-320
7.89912e-320
7.92481e-320
7.95643e-320
7.99102e-320
8.02758e-320
8.05821e-320
8.07797e-320
8.08489e-320
8.07896e-320
8.06612e-320
8.04339e-320
8.00189e-320
7.92284e-320
7.80426e-320
7.70347e-320
3.69304e-319
3.52605e-319
3.36637e-319
3.2137e-319
3.06775e-319
2.92843e-319
2.79513e-319
2.66776e-319
2.54602e-319
2.42981e-319
2.31875e-319
2.21282e-319
2.11144e-319
2.0148e-319
1.92251e-319
1.83456e-319
1.75057e-319
1.67034e-319
1.59395e-319
1.52113e-319
1.45156e-319
1.38536e-319
1.32232e-319
1.26204e-319
1.20473e-319
1.14999e-319
1.09781e-319
1.04801e-319
1.00038e-319
9.55029e-320
7.826e-320
7.83588e-320
7.84675e-320
7.86058e-320
7.87738e-320
7.89715e-320
7.92185e-320
7.95248e-320
7.98608e-320
8.02165e-320
8.05031e-320
8.06908e-320
8.07303e-320
8.06809e-320
8.05426e-320
8.03252e-320
7.99201e-320
7.9179e-320
7.81118e-320
7.7262e-320
3.69057e-319
3.52377e-319
3.36439e-319
3.21182e-319
3.06617e-319
2.92684e-319
2.79364e-319
2.66647e-319
2.54483e-319
2.42873e-319
2.31776e-319
2.21183e-319
2.11065e-319
2.01401e-319
1.92192e-319
1.83387e-319
1.74988e-319
1.66974e-319
1.59346e-319
1.52054e-319
1.45117e-319
1.38496e-319
1.32192e-319
1.26174e-319
1.20433e-319
1.14969e-319
1.09752e-319
1.04772e-319
1.00019e-319
9.54732e-320
7.82304e-320
7.8339e-320
7.84379e-320
7.85762e-320
7.87343e-320
7.89418e-320
7.91888e-320
7.94853e-320
7.98114e-320
8.01473e-320
8.0424e-320
8.0592e-320
8.06315e-320
8.05722e-320
8.04339e-320
8.02165e-320
7.9841e-320
7.91691e-320
7.82205e-320
7.75288e-320
3.6881e-319
3.5215e-319
3.36222e-319
3.21004e-319
3.06439e-319
2.92526e-319
2.79226e-319
2.66519e-319
2.54365e-319
2.42764e-319
2.31677e-319
2.21084e-319
2.10986e-319
2.01322e-319
1.92112e-319
1.83318e-319
1.74929e-319
1.66925e-319
1.59287e-319
1.52014e-319
1.45077e-319
1.38457e-319
1.32153e-319
1.26135e-319
1.20404e-319
1.14939e-319
1.09722e-319
1.04742e-319
9.99791e-320
9.54535e-320
7.82106e-320
7.83094e-320
7.84181e-320
7.85564e-320
7.87145e-320
7.89122e-320
7.91493e-320
7.94458e-320
7.9762e-320
8.0088e-320
8.03548e-320
8.05129e-320
8.05525e-320
8.04833e-320
8.03548e-320
8.01374e-320
7.97817e-320
7.9179e-320
7.83588e-320
7.78055e-320
3.68573e-319
3.51933e-319
3.36024e-319
3.20807e-319
3.06271e-319
2.92368e-319
2.79088e-319
2.6638e-319
2.54246e-319
2.42655e-319
2.31578e-319
2.20996e-319
2.10887e-319
2.01243e-319
1.92033e-319
1.83249e-319
1.7486e-319
1.66866e-319
1.59237e-319
1.51955e-319
1.45018e-319
1.38417e-319
1.32113e-319
1.26105e-319
1.20374e-319
1.149e-319
1.09683e-319
1.04702e-319
9.99594e-320
9.5414e-320
7.81908e-320
7.82798e-320
7.83983e-320
7.85268e-320
7.86849e-320
7.88825e-320
7.91197e-320
7.94062e-320
7.97224e-320
8.00386e-320
8.02758e-320
8.04339e-320
8.04635e-320
8.03944e-320
8.02758e-320
8.00683e-320
7.97422e-320
7.92086e-320
7.85169e-320
7.80821e-320
3.68316e-319
3.51706e-319
3.35816e-319
3.20629e-319
3.06103e-319
2.9221e-319
2.7893e-319
2.66242e-319
2.54128e-319
2.42547e-319
2.3148e-319
2.20907e-319
2.10808e-319
2.01164e-319
1.91964e-319
1.8318e-319
1.748e-319
1.66806e-319
1.59188e-319
1.51915e-319
1.44979e-319
1.38368e-319
1.32074e-319
1.26066e-319
1.20335e-319
1.1487e-319
1.09653e-319
1.04683e-319
9.99198e-320
9.53942e-320
7.81612e-320
7.826e-320
7.83786e-320
7.84971e-320
7.86553e-320
7.88529e-320
7.909e-320
7.93667e-320
7.96829e-320
7.99793e-320
8.02165e-320
8.03548e-320
8.03845e-320
8.03252e-320
8.01967e-320
8.0009e-320
7.97126e-320
7.92382e-320
7.86651e-320
7.83588e-320
3.68069e-319
3.51478e-319
3.35609e-319
3.20431e-319
3.05925e-319
2.92052e-319
2.78791e-319
2.66114e-319
2.54009e-319
2.42428e-319
2.31371e-319
2.20808e-319
2.10719e-319
2.01085e-319
1.91895e-319
1.8312e-319
1.74741e-319
1.66757e-319
1.59129e-319
1.51856e-319
1.44939e-319
1.38328e-319
1.32034e-319
1.26026e-319
1.20295e-319
1.14841e-319
1.09623e-319
1.04643e-319
9.99001e-320
9.53646e-320
7.81414e-320
7.82402e-320
7.83489e-320
7.84774e-320
7.86355e-320
7.88331e-320
7.90604e-320
7.93272e-320
7.96335e-320
7.99201e-320
8.01572e-320
8.02955e-320
8.03153e-320
8.0256e-320
8.01374e-320
7.99596e-320
7.96928e-320
7.92877e-320
7.88134e-320
7.86355e-320
3.67822e-319
3.51251e-319
3.35401e-319
3.20243e-319
3.05748e-319
2.91894e-319
2.78643e-319
2.65985e-319
2.53881e-319
2.4231e-319
2.31262e-319
2.20709e-319
2.1063e-319
2.01006e-319
1.91816e-319
1.83041e-319
1.74682e-319
1.66698e-319
1.59069e-319
1.51816e-319
1.4488e-319
1.38279e-319
1.31985e-319
1.25987e-319
1.20256e-319
1.14801e-319
1.09584e-319
1.04613e-319
9.98605e-320
9.53349e-320
7.81217e-320
7.82205e-320
7.83193e-320
7.84576e-320
7.86157e-320
7.87936e-320
7.90307e-320
7.93074e-320
7.9594e-320
7.98805e-320
8.00979e-320
8.02264e-320
8.0256e-320
8.01967e-320
8.0088e-320
7.99201e-320
7.96829e-320
7.93469e-320
7.89715e-320
7.88924e-320
3.67565e-319
3.51024e-319
3.35194e-319
3.20056e-319
3.0557e-319
2.91736e-319
2.78495e-319
2.65847e-319
2.53752e-319
2.42201e-319
2.31163e-319
2.2061e-319
2.10541e-319
2.00927e-319
1.91737e-319
1.82982e-319
1.74613e-319
1.66638e-319
1.5902e-319
1.51757e-319
1.4484e-319
1.3824e-319
1.31945e-319
1.25947e-319
1.20226e-319
1.14762e-319
1.09564e-319
1.04584e-319
9.98408e-320
9.53053e-320
7.81019e-320
7.82007e-320
7.82995e-320
7.8428e-320
7.85861e-320
7.87738e-320
7.90011e-320
7.92679e-320
7.95643e-320
7.98311e-320
8.00485e-320
8.0177e-320
8.01967e-320
8.01473e-320
8.00485e-320
7.99003e-320
7.96829e-320
7.94062e-320
7.91296e-320
7.91493e-320
3.67328e-319
3.50796e-319
3.34977e-319
3.19858e-319
3.05392e-319
2.91568e-319
2.78357e-319
2.65709e-319
2.53634e-319
2.42092e-319
2.31055e-319
2.20511e-319
2.10452e-319
2.00848e-319
1.91658e-319
1.82903e-319
1.74544e-319
1.66579e-319
1.58971e-319
1.51708e-319
1.44791e-319
1.382e-319
1.31906e-319
1.25908e-319
1.20186e-319
1.14732e-319
1.09524e-319
1.04554e-319
9.98013e-320
9.52756e-320
7.80821e-320
7.81809e-320
7.82798e-320
7.84082e-320
7.85564e-320
7.87541e-320
7.89715e-320
7.92382e-320
7.95248e-320
7.97916e-320
7.99991e-320
8.01177e-320
8.01473e-320
8.01078e-320
8.00189e-320
7.98805e-320
7.97027e-320
7.94655e-320
7.92877e-320
7.94062e-320
3.67071e-319
3.50569e-319
3.34779e-319
3.1967e-319
3.05224e-319
2.9141e-319
2.78198e-319
2.6557e-319
2.53505e-319
2.41974e-319
2.30946e-319
2.20422e-319
2.10363e-319
2.00759e-319
1.91589e-319
1.82844e-319
1.74484e-319
1.6652e-319
1.58911e-319
1.51658e-319
1.44741e-319
1.38151e-319
1.31866e-319
1.25868e-319
1.20157e-319
1.14702e-319
1.09485e-319
1.04525e-319
9.97815e-320
9.5246e-320
7.80624e-320
7.81513e-320
7.826e-320
7.83786e-320
7.85367e-320
7.87244e-320
7.89517e-320
7.92086e-320
7.94853e-320
7.97521e-320
7.99596e-320
8.00782e-320
8.01078e-320
8.00683e-320
7.99892e-320
7.98805e-320
7.97224e-320
7.95446e-320
7.94458e-320
7.96434e-320
3.66834e-319
3.50342e-319
3.34561e-319
3.19483e-319
3.05056e-319
2.91252e-319
2.7806e-319
2.65442e-319
2.53387e-319
2.41855e-319
2.30847e-319
2.20334e-319
2.10274e-319
2.0068e-319
1.9152e-319
1.82765e-319
1.74425e-319
1.66461e-319
1.58852e-319
1.51609e-319
1.44702e-319
1.38101e-319
1.31817e-319
1.25829e-319
1.20117e-319
1.14663e-319
1.09465e-319
1.04485e-319
9.9742e-320
9.52163e-320
7.80426e-320
7.81315e-320
7.82402e-320
7.83588e-320
7.85169e-320
7.86948e-320
7.89319e-320
7.91888e-320
7.94556e-320
7.97126e-320
7.99201e-320
8.00386e-320
8.00683e-320
8.00386e-320
7.99793e-320
7.98805e-320
7.9762e-320
7.96335e-320
7.96039e-320
7.98805e-320
3.66577e-319
3.50115e-319
3.34364e-319
3.19295e-319
3.04878e-319
2.91094e-319
2.77912e-319
2.65313e-319
2.53258e-319
2.41746e-319
2.30748e-319
2.20235e-319
2.10195e-319
2.00591e-319
1.91441e-319
1.82705e-319
1.74356e-319
1.66401e-319
1.58803e-319
1.5156e-319
1.44653e-319
1.38062e-319
1.31777e-319
1.25789e-319
1.20078e-319
1.14623e-319
1.09426e-319
1.04465e-319
9.97222e-320
9.51966e-320
7.80228e-320
7.81019e-320
7.82205e-320
7.8339e-320
7.84971e-320
7.8675e-320
7.89023e-320
7.91592e-320
7.9426e-320
7.96829e-320
7.98805e-320
7.99991e-320
8.00386e-320
8.00189e-320
7.99596e-320
7.98904e-320
7.98015e-320
7.97224e-320
7.9762e-320
8.01177e-320
3.6634e-319
3.49897e-319
3.34166e-319
3.19107e-319
3.047e-319
2.90935e-319
2.77764e-319
2.65175e-319
2.53139e-319
2.41638e-319
2.3064e-319
2.20136e-319
2.10096e-319
2.00512e-319
1.91362e-319
1.82626e-319
1.74287e-319
1.66342e-319
1.58753e-319
1.5151e-319
1.44603e-319
1.38022e-319
1.31738e-319