/*--------------------------------*- C++ -*----------------------------------*\
  =========                 |
  \\      /  F ield         | OpenFOAM: The Open Source CFD Toolbox
   \\    /   O peration     | Website:  https://openfoam.org
    \\  /    A nd           | Version:  9
     \\/     M anipulation  |
\*---------------------------------------------------------------------------*/
FoamFile
{
    format      ascii;
    class       volScalarField;
    location    "0.17";
    object      p;
}
// * * * * * * * * * * * * * * * * * * * * * * * * * * * * * * * * * * * * * //

dimensions      [1 -1 -2 0 0 0 0];

internalField   nonuniform List<scalar> 
5000
(
3.41897
3.41904
3.41911
3.41919
3.41926
3.41935
3.41943
3.41952
3.41962
3.41972
3.41982
3.41992
3.42003
3.42015
3.42026
3.42037
3.42047
3.42057
3.42066
3.42072
3.42075
3.42075
3.42069
3.42055
3.42033
3.42
3.41955
3.41899
3.41831
3.41751
3.41646
3.41507
3.4133
3.41097
3.40781
3.40339
3.39691
3.38672
3.36941
3.33819
3.28211
3.19643
3.11962
3.10325
3.09709
3.03665
2.95123
3.10166
3.30281
3.32569
3.41706
3.41723
3.41741
3.41759
3.41778
3.41799
3.4182
3.41842
3.41865
3.4189
3.41915
3.41942
3.41969
3.41997
3.42026
3.42056
3.42086
3.42116
3.42145
3.42173
3.422
3.42224
3.42245
3.42261
3.4227
3.42271
3.42263
3.42243
3.42211
3.42163
3.42089
3.41971
3.418
3.41552
3.4119
3.40655
3.39851
3.38613
3.36681
3.33713
3.2945
3.24076
3.19315
3.17241
3.1593
3.13736
3.10917
3.18285
3.28086
3.2985
3.41513
3.41537
3.41562
3.41589
3.41617
3.41646
3.41677
3.41709
3.41742
3.41778
3.41814
3.41853
3.41892
3.41934
3.41976
3.42019
3.42064
3.42108
3.42154
3.42199
3.42244
3.42287
3.42329
3.42368
3.42402
3.4243
3.4245
3.42459
3.42456
3.42436
3.42391
3.42301
3.42151
3.41916
3.41557
3.41019
3.40214
3.39012
3.37236
3.34703
3.31354
3.27374
3.23897
3.22313
3.2143
3.20592
3.19589
3.25014
3.32495
3.35044
3.4132
3.41351
3.41384
3.41419
3.41455
3.41493
3.41533
3.41575
3.41618
3.41664
3.41712
3.41762
3.41814
3.41868
3.41923
3.4198
3.42039
3.42098
3.42159
3.42221
3.42284
3.42348
3.42411
3.42473
3.42531
3.42586
3.42633
3.42671
3.42698
3.42709
3.42698
3.42644
3.42529
3.42329
3.42009
3.41522
3.408
3.39748
3.38247
3.36181
3.33542
3.30501
3.27927
3.26855
3.26454
3.26409
3.26638
3.31335
3.38307
3.42726
3.41127
3.41166
3.41208
3.41251
3.41296
3.41343
3.41393
3.41445
3.41499
3.41557
3.41616
3.41679
3.41744
3.41811
3.41881
3.41952
3.42026
3.42102
3.4218
3.4226
3.42342
3.42427
3.42513
3.42599
3.42684
3.42766
3.42843
3.42913
3.42972
3.43019
3.43048
3.43038
3.42968
3.42816
3.42555
3.42146
3.41536
3.40658
3.39436
3.37811
3.35838
3.33697
3.31968
3.31322
3.31334
3.32045
3.33275
3.374
3.43633
3.49498
3.40935
3.40982
3.41031
3.41083
3.41137
3.41194
3.41254
3.41317
3.41383
3.41452
3.41524
3.416
3.41678
3.4176
3.41844
3.41931
3.42021
3.42114
3.4221
3.42309
3.42412
3.42519
3.42629
3.42741
3.42854
3.42966
3.43074
3.43177
3.43272
3.43357
3.43431
3.43472
3.43457
3.43367
3.4318
3.42868
3.42392
3.41706
3.40771
3.39575
3.38215
3.36845
3.35821
3.35585
3.36003
3.37252
3.39196
3.4293
3.48461
3.55101
3.40743
3.40797
3.40855
3.40915
3.40979
3.41045
3.41115
3.41189
3.41266
3.41347
3.41432
3.4152
3.41613
3.41709
3.41808
3.41911
3.42017
3.42127
3.42241
3.4236
3.42484
3.42613
3.42748
3.42887
3.43028
3.4317
3.43311
3.43448
3.43581
3.43707
3.4383
3.43929
3.43977
3.43961
3.43864
3.43668
3.43345
3.42869
3.42227
3.41436
3.4059
3.39808
3.39331
3.39485
3.40276
3.41888
3.44195
3.47824
3.52968
3.60024
3.4055
3.40613
3.40679
3.40748
3.4082
3.40896
3.40976
3.41061
3.41149
3.41242
3.41339
3.41441
3.41547
3.41657
3.41772
3.4189
3.42013
3.4214
3.42273
3.42411
3.42557
3.42709
3.42868
3.43034
3.43204
3.43377
3.4355
3.43724
3.43896
3.44066
3.44242
3.44404
3.44523
3.44589
3.44593
3.44524
3.44367
3.44107
3.4375
3.43321
3.42898
3.42568
3.42519
3.43013
3.4411
3.45964
3.4849
3.52124
3.57065
3.64281
3.40358
3.40428
3.40502
3.4058
3.40662
3.40747
3.40838
3.40933
3.41032
3.41137
3.41247
3.41362
3.41482
3.41607
3.41736
3.41871
3.4201
3.42155
3.42306
3.42465
3.42631
3.42807
3.42992
3.43185
3.43384
3.43588
3.43795
3.44006
3.44219
3.44434
3.44666
3.44895
3.4509
3.45245
3.45357
3.45422
3.45431
3.45383
3.45288
3.45177
3.45108
3.45149
3.4545
3.46228
3.47568
3.49599
3.52268
3.55895
3.6066
3.67737
3.40165
3.40243
3.40326
3.40412
3.40503
3.40599
3.40699
3.40805
3.40916
3.41033
3.41156
3.41284
3.41418
3.41558
3.41703
3.41853
3.42009
3.42172
3.42342
3.42521
3.42709
3.42908
3.43118
3.43339
3.43568
3.43804
3.44046
3.44294
3.44549
3.44812
3.45101
3.454
3.45674
3.45921
3.46144
3.46342
3.46515
3.46665
3.46808
3.46974
3.47208
3.4756
3.48154
3.49167
3.50701
3.52866
3.55612
3.59189
3.63771
3.70459
3.39973
3.40059
3.4015
3.40245
3.40345
3.4045
3.40561
3.40677
3.408
3.40929
3.41064
3.41206
3.41354
3.41509
3.41669
3.41836
3.42009
3.4219
3.42379
3.42578
3.42788
3.43011
3.43247
3.43495
3.43754
3.44022
3.44299
3.44586
3.44884
3.45195
3.45544
3.45915
3.46269
3.46609
3.46942
3.47271
3.47599
3.47933
3.48292
3.48699
3.49187
3.49798
3.50633
3.51842
3.53525
3.55784
3.58558
3.62066
3.66473
3.72644
3.3978
3.39874
3.39973
3.40077
3.40186
3.40301
3.40422
3.40549
3.40683
3.40824
3.40973
3.41128
3.4129
3.4146
3.41636
3.41819
3.42009
3.42208
3.42416
3.42635
3.42867
3.43114
3.43375
3.43651
3.4394
3.44241
3.44554
3.44879
3.45221
3.45581
3.45989
3.46432
3.46867
3.473
3.4774
3.48195
3.4867
3.49174
3.49724
3.50339
3.51041
3.51862
3.52893
3.54257
3.56055
3.58372
3.61143
3.64569
3.68825
3.74435
3.39588
3.39689
3.39796
3.39909
3.40027
3.40151
3.40282
3.4042
3.40566
3.40719
3.4088
3.41049
3.41226
3.4141
3.41602
3.41802
3.42009
3.42226
3.42453
3.42692
3.42946
3.43216
3.43503
3.43807
3.44126
3.44459
3.44807
3.45172
3.45557
3.45965
3.46433
3.46948
3.47463
3.47987
3.4853
3.49104
3.49714
3.50372
3.51093
3.51888
3.52768
3.53762
3.54949
3.56434
3.58312
3.6066
3.63406
3.66737
3.7086
3.76036
3.39395
3.39505
3.3962
3.3974
3.39867
3.40001
3.40142
3.40291
3.40448
3.40613
3.40787
3.4097
3.41161
3.4136
3.41568
3.41784
3.42009
3.42243
3.42489
3.42748
3.43023
3.43316
3.43629
3.4396
3.44309
3.44675
3.45058
3.45461
3.45889
3.46346
3.46873
3.47458
3.48051
3.48663
3.49305
3.49989
3.50723
3.51518
3.52389
3.53338
3.54368
3.55505
3.56819
3.58396
3.60326
3.62679
3.65384
3.68609
3.726
3.77428
3.39203
3.39319
3.39442
3.39571
3.39707
3.3985
3.40001
3.40161
3.40329
3.40506
3.40693
3.40889
3.41094
3.41309
3.41532
3.41765
3.42006
3.42259
3.42523
3.42802
3.43099
3.43415
3.43752
3.44111
3.44489
3.44887
3.45304
3.45745
3.46216
3.4672
3.47304
3.47959
3.48627
3.49322
3.50058
3.50845
3.51691
3.52607
3.53606
3.54685
3.55842
3.57099
3.58513
3.60161
3.6212
3.64458
3.67109
3.70218
3.74059
3.78539
3.3901
3.39134
3.39265
3.39402
3.39547
3.39699
3.3986
3.4003
3.40209
3.40398
3.40597
3.40807
3.41026
3.41256
3.41495
3.41744
3.42002
3.42273
3.42555
3.42854
3.43171
3.43509
3.43871
3.44256
3.44664
3.45093
3.45544
3.46023
3.46535
3.47085
3.47726
3.48446
3.49187
3.49961
3.50784
3.51666
3.52613
3.53635
3.54743
3.55931
3.57192
3.58546
3.60042
3.61741
3.63715
3.66019
3.68605
3.71585
3.75258
3.79394
3.38817
3.38949
3.39087
3.39232
3.39385
3.39547
3.39717
3.39897
3.40087
3.40288
3.405
3.40723
3.40956
3.412
3.41455
3.4172
3.41996
3.42284
3.42585
3.42903
3.4324
3.436
3.43986
3.44397
3.44833
3.45292
3.45777
3.46292
3.46843
3.47438
3.48133
3.48917
3.49725
3.50573
3.51477
3.52447
3.53486
3.54602
3.55802
3.57079
3.58423
3.59854
3.61413
3.63148
3.65123
3.67381
3.69886
3.72728
3.76214
3.8002
3.38625
3.38763
3.38909
3.39062
3.39223
3.39393
3.39573
3.39763
3.39964
3.40177
3.40401
3.40636
3.40884
3.41143
3.41413
3.41694
3.41987
3.42292
3.42611
3.42947
3.43304
3.43686
3.44094
3.4453
3.44994
3.45484
3.46
3.4655
3.4714
3.47778
3.48524
3.49369
3.50241
3.51157
3.52134
3.53183
3.54306
3.55506
3.56787
3.58136
3.59547
3.61035
3.62639
3.64397
3.66359
3.68559
3.70971
3.73658
3.76932
3.80415
3.38432
3.38577
3.3873
3.38891
3.3906
3.39239
3.39428
3.39628
3.3984
3.40063
3.40299
3.40547
3.40808
3.41082
3.41368
3.41665
3.41974
3.42297
3.42633
3.42988
3.43364
3.43765
3.44196
3.44657
3.45147
3.45665
3.46213
3.46796
3.47423
3.48101
3.48897
3.498
3.50732
3.51709
3.52752
3.53872
3.5507
3.56345
3.57696
3.59108
3.60571
3.62103
3.63736
3.65505
3.67445
3.69578
3.71883
3.744
3.77433
3.80595
3.38239
3.38391
3.38551
3.38719
3.38897
3.39084
3.39282
3.39491
3.39713
3.39947
3.40195
3.40456
3.4073
3.41018
3.41319
3.41632
3.41958
3.42297
3.42651
3.43023
3.43417
3.43839
3.4429
3.44774
3.4529
3.45837
3.46415
3.47029
3.4769
3.48407
3.4925
3.50208
3.51196
3.5223
3.5333
3.5451
3.55773
3.57115
3.58529
3.59995
3.61503
3.63069
3.64722
3.66492
3.68404
3.70465
3.72655
3.74993
3.77766
3.80625
3.38046
3.38205
3.38372
3.38547
3.38732
3.38928
3.39135
3.39353
3.39584
3.39829
3.40088
3.40361
3.40648
3.4095
3.41266
3.41594
3.41936
3.42292
3.42663
3.43053
3.43465
3.43905
3.44377
3.44882
3.45423
3.45996
3.46603
3.47248
3.47941
3.48693
3.4958
3.5059
3.51632
3.52718
3.53868
3.551
3.56416
3.57815
3.59284
3.60798
3.62345
3.63938
3.65606
3.67374
3.69258
3.7125
3.73327
3.7549
3.78007
3.80609
3.37853
3.38018
3.38192
3.38375
3.38567
3.38771
3.38986
3.39213
3.39454
3.39709
3.39978
3.40263
3.40563
3.40878
3.41208
3.41552
3.4191
3.42283
3.4267
3.43077
3.43506
3.43964
3.44454
3.44981
3.45544
3.46143
3.46778
3.47451
3.48174
3.48959
3.49886
3.50944
3.52038
3.53173
3.54369
3.55643
3.57002
3.58447
3.5996
3.61517
3.63098
3.64715
3.66395
3.68161
3.70021
3.71957
3.73937
3.75948
3.78239
3.80665
3.3766
3.37831
3.38012
3.38202
3.38402
3.38613
3.38836
3.39072
3.39321
3.39586
3.39866
3.40162
3.40474
3.40802
3.41146
3.41505
3.41878
3.42267
3.42671
3.43094
3.4354
3.44014
3.44522
3.45068
3.45653
3.46277
3.46938
3.47639
3.4839
3.49204
3.50166
3.51269
3.52411
3.53593
3.54831
3.56141
3.57535
3.59014
3.60562
3.62152
3.63762
3.654
3.67092
3.68859
3.70703
3.72599
3.74509
3.7641
3.78537
3.80905
3.37467
3.37644
3.37831
3.38028
3.38235
3.38453
3.38684
3.38929
3.39187
3.39461
3.3975
3.40057
3.4038
3.40721
3.41078
3.41451
3.41841
3.42245
3.42666
3.43105
3.43567
3.44057
3.44581
3.45145
3.4575
3.46396
3.47082
3.4781
3.48587
3.49428
3.50422
3.51564
3.52749
3.53975
3.55253
3.56596
3.58018
3.59522
3.61095
3.62709
3.64343
3.65998
3.67699
3.69469
3.71306
3.73183
3.75057
3.76905
3.78954
3.81399
3.37273
3.37457
3.37651
3.37854
3.38068
3.38293
3.38532
3.38784
3.39051
3.39333
3.39632
3.39948
3.40283
3.40635
3.41005
3.41392
3.41796
3.42216
3.42653
3.43108
3.43586
3.44091
3.4463
3.4521
3.45833
3.46501
3.4721
3.47963
3.48765
3.4963
3.50652
3.51828
3.53051
3.54317
3.55632
3.57006
3.58453
3.59976
3.61566
3.63196
3.64846
3.66514
3.68223
3.69997
3.71834
3.73708
3.7558
3.77436
3.79503
3.82131
3.3708
3.3727
3.37469
3.37679
3.379
3.38133
3.38378
3.38638
3.38912
3.39203
3.39511
3.39836
3.40181
3.40544
3.40926
3.41327
3.41745
3.4218
3.42632
3.43103
3.43596
3.44116
3.4467
3.45264
3.45903
3.46589
3.47321
3.48098
3.48925
3.49812
3.50858
3.52062
3.53316
3.54618
3.55967
3.57369
3.58838
3.60376
3.61978
3.63618
3.65278
3.66955
3.68669
3.70446
3.72287
3.74172
3.76069
3.77984
3.80141
3.82975
3.36887
3.37082
3.37288
3.37504
3.37731
3.37971
3.38223
3.3849
3.38772
3.3907
3.39386
3.3972
3.40074
3.40448
3.40841
3.41254
3.41686
3.42136
3.42604
3.4309
3.43598
3.44132
3.44699
3.45306
3.45959
3.46662
3.47414
3.48213
3.49063
3.49973
3.51041
3.52268
3.53548
3.54878
3.56255
3.57683
3.5917
3.60721
3.62331
3.63978
3.65643
3.67325
3.69043
3.70822
3.72668
3.74568
3.76505
3.78505
3.8078
3.83725
3.36693
3.36894
3.37106
3.37329
3.37562
3.37808
3.38068
3.38341
3.3863
3.38935
3.39259
3.39601
3.39963
3.40346
3.4075
3.41175
3.4162
3.42084
3.42566
3.43068
3.43591
3.44139
3.44719
3.45337
3.46003
3.46719
3.47488
3.48308
3.49181
3.50112
3.51201
3.52448
3.53748
3.55099
3.56498
3.57946
3.5945
3.61011
3.62625
3.64274
3.65942
3.67627
3.69347
3.71125
3.72973
3.74887
3.76861
3.7894
3.81305
3.84167
3.365
3.36706
3.36924
3.37153
3.37393
3.37645
3.3791
3.3819
3.38486
3.38798
3.39129
3.39478
3.39849
3.4024
3.40654
3.41089
3.41546
3.42023
3.4252
3.43037
3.43574
3.44136
3.44728
3.45358
3.46033
3.46761
3.47545
3.48383
3.49276
3.50228
3.51337
3.52603
3.53918
3.55285
3.56699
3.58162
3.59676
3.61243
3.62858
3.64507
3.66175
3.6786
3.69579
3.71354
3.73199
3.75117
3.77111
3.79234
3.81613
3.84181
3.36306
3.36518
3.36742
3.36976
3.37222
3.3748
3.37752
3.38039
3.3834
3.38659
3.38996
3.39352
3.3973
3.40129
3.40551
3.40996
3.41463
3.41953
3.42464
3.42995
3.43547
3.44123
3.44727
3.45367
3.46052
3.46789
3.47584
3.48437
3.49347
3.50319
3.51449
3.52732
3.54061
3.55438
3.56862
3.58333
3.59852
3.6142
3.63032
3.64676
3.6634
3.68022
3.69737
3.71504
3.73337
3.75245
3.77234
3.79349
3.81646
3.83767
3.36112
3.3633
3.36559
3.36799
3.37051
3.37315
3.37593
3.37885
3.38193
3.38517
3.3886
3.39223
3.39607
3.40013
3.40442
3.40896
3.41373
3.41874
3.42397
3.42943
3.43509
3.44099
3.44715
3.45366
3.46059
3.46804
3.47606
3.4847
3.49396
3.50385
3.51534
3.52833
3.54175
3.55561
3.5699
3.58465
3.59984
3.61548
3.63151
3.64785
3.66438
3.68112
3.69818
3.71571
3.73384
3.75265
3.77219
3.79271
3.81401
3.83018
3.35919
3.36141
3.36376
3.36621
3.36879
3.37149
3.37432
3.3773
3.38044
3.38374
3.38722
3.3909
3.3948
3.39892
3.40328
3.40789
3.41275
3.41786
3.42321
3.42879
3.43459
3.44063
3.44692
3.45353
3.46054
3.46805
3.47614
3.48486
3.49422
3.50426
3.51591
3.52906
3.5426
3.55654
3.57087
3.58562
3.60077
3.61631
3.63221
3.64838
3.66476
3.68135
3.69825
3.71557
3.7334
3.75177
3.77071
3.79016
3.80927
3.82076
3.35725
3.35952
3.36192
3.36443
3.36706
3.36981
3.3727
3.37574
3.37892
3.38228
3.38581
3.38955
3.39349
3.39767
3.40209
3.40676
3.41169
3.41689
3.42234
3.42804
3.43398
3.44015
3.44657
3.45329
3.46039
3.46795
3.47608
3.48484
3.49427
3.50441
3.5162
3.52949
3.54314
3.55715
3.57152
3.58626
3.60134
3.61676
3.63248
3.64844
3.6646
3.68098
3.69764
3.71467
3.7321
3.74992
3.76806
3.7862
3.80298
3.81086
3.35531
3.35763
3.36008
3.36264
3.36532
3.36812
3.37107
3.37415
3.37739
3.3808
3.38438
3.38816
3.39215
3.39637
3.40084
3.40556
3.41056
3.41583
3.42137
3.42717
3.43323
3.43953
3.44608
3.45292
3.46011
3.46773
3.47589
3.48467
3.49414
3.50433
3.51621
3.52961
3.54336
3.55744
3.57184
3.58657
3.60159
3.61687
3.6324
3.64812
3.66401
3.68011
3.69647
3.71313
3.73009
3.74727
3.76451
3.7813
3.79597
3.80155
3.35337
3.35574
3.35823
3.36084
3.36357
3.36642
3.36941
3.37255
3.37584
3.37929
3.38292
3.38674
3.39078
3.39504
3.39954
3.40431
3.40936
3.41468
3.4203
3.4262
3.43236
3.43878
3.44546
3.45242
3.4597
3.46739
3.47558
3.48437
3.49383
3.50405
3.51597
3.52943
3.54325
3.55738
3.57182
3.58654
3.6015
3.61666
3.63199
3.64746
3.66307
3.67885
3.69486
3.7111
3.72754
3.74404
3.76038
3.77591
3.78891
3.79345
3.35143
3.35384
3.35637
3.35903
3.3618
3.36471
3.36774
3.37093
3.37426
3.37776
3.38143
3.38529
3.38937
3.39366
3.3982
3.403
3.40809
3.41346
3.41914
3.42511
3.43136
3.4379
3.44469
3.45177
3.45916
3.46692
3.47514
3.48393
3.49338
3.50358
3.51549
3.52897
3.54282
3.55699
3.57145
3.58616
3.60107
3.61612
3.63128
3.64651
3.66184
3.6773
3.69293
3.70874
3.72464
3.74047
3.75598
3.77045
3.78228
3.78673
3.34948
3.35193
3.35451
3.35721
3.36002
3.36297
3.36605
3.36928
3.37266
3.37619
3.37991
3.38381
3.38792
3.39224
3.39681
3.40164
3.40676
3.41217
3.41788
3.42391
3.43025
3.43687
3.44378
3.45097
3.45846
3.46631
3.47458
3.48338
3.4928
3.50295
3.51482
3.52827
3.5421
3.55626
3.57072
3.58542
3.60028
3.61524
3.63025
3.64529
3.66036
3.67551
3.69078
3.70615
3.72154
3.73676
3.75154
3.76518
3.77631
3.78126
3.34754
3.35002
3.35264
3.35537
3.35823
3.36122
3.36434
3.36761
3.37102
3.3746
3.37835
3.38229
3.38643
3.39078
3.39538
3.40023
3.40537
3.4108
3.41655
3.42262
3.42901
3.43571
3.44271
3.45001
3.45761
3.46554
3.47387
3.48269
3.49209
3.50219
3.51399
3.52736
3.54113
3.55524
3.56967
3.58432
3.59913
3.61402
3.62891
3.64378
3.65863
3.67352
3.68846
3.70344
3.71836
3.73305
3.74723
3.76028
3.77104
3.77678
3.34559
3.34811
3.35076
3.35353
3.35642
3.35944
3.3626
3.36591
3.36936
3.37298
3.37676
3.38073
3.3849
3.38928
3.3939
3.39877
3.40392
3.40937
3.41514
3.42124
3.42767
3.43442
3.4415
3.44889
3.45659
3.46461
3.47301
3.48186
3.49125
3.5013
3.51301
3.52628
3.53995
3.55397
3.56831
3.5829
3.59764
3.61244
3.62723
3.64197
3.65665
3.67132
3.68599
3.70064
3.71517
3.72941
3.74313
3.75577
3.76639
3.77296
3.34364
3.34619
3.34887
3.35167
3.35459
3.35765
3.36084
3.36418
3.36767
3.37132
3.37513
3.37913
3.38333
3.38774
3.39237
3.39726
3.40242
3.40788
3.41366
3.41976
3.42622
3.43301
3.44015
3.44761
3.4554
3.46351
3.47199
3.48088
3.49028
3.50029
3.51191
3.52507
3.5386
3.5525
3.56672
3.5812
3.59583
3.61054
3.62523
3.63986
3.65441
3.66891
3.68337
3.69775
3.71197
3.72587
3.73924
3.75162
3.76224
3.76954
3.34169
3.34426
3.34697
3.34979
3.35275
3.35583
3.35905
3.36242
3.36594
3.36962
3.37347
3.37749
3.38171
3.38614
3.39079
3.3957
3.40087
3.40633
3.4121
3.41822
3.42468
3.43149
3.43866
3.44618
3.45403
3.46223
3.47078
3.47973
3.48915
3.49913
3.51069
3.52373
3.53712
3.55087
3.56493
3.57926
3.59377
3.60836
3.62295
3.63747
3.65192
3.66629
3.68059
3.69478
3.70877
3.72243
3.73556
3.74777
3.75844
3.76634
3.33974
3.34233
3.34506
3.34791
3.35088
3.35399
3.35724
3.36063
3.36417
3.36788
3.37175
3.3758
3.38005
3.38449
3.38917
3.39408
3.39926
3.40472
3.41049
3.41659
3.42305
3.42987
3.43705
3.4446
3.4525
3.46076
3.46938
3.47839
3.48784
3.49783
3.50933
3.52227
3.53553
3.54911
3.563
3.57716
3.59151
3.60595
3.62042
3.63484
3.6492
3.66348
3.67767
3.69172
3.70556
3.71905
3.73203
3.74416
3.75489
3.76325
3.33779
3.34039
3.34314
3.346
3.349
3.35212
3.35539
3.3588
3.36237
3.3661
3.37
3.37407
3.37833
3.3828
3.38748
3.39241
3.39759
3.40305
3.40881
3.4149
3.42134
3.42814
3.43532
3.44288
3.45082
3.45912
3.46779
3.47686
3.48635
3.49635
3.50783
3.52069
3.53382
3.54725
3.56096
3.57493
3.5891
3.60338
3.61771
3.63203
3.64629
3.66049
3.67461
3.68859
3.70233
3.71573
3.72863
3.74074
3.75156
3.76029
3.33583
3.33845
3.34121
3.34409
3.34709
3.35023
3.35352
3.35695
3.36053
3.36428
3.3682
3.37229
3.37657
3.38105
3.38574
3.39068
3.39586
3.40131
3.40706
3.41313
3.41955
3.42633
3.43349
3.44104
3.44898
3.45731
3.46602
3.47513
3.48467
3.49468
3.50616
3.51896
3.532
3.54529
3.55883
3.57261
3.58659
3.60071
3.61489
3.62908
3.64326
3.6574
3.67146
3.68539
3.69911
3.71248
3.72537
3.7375
3.74843
3.75749
3.33387
3.3365
3.33926
3.34215
3.34517
3.34832
3.35162
3.35506
3.35866
3.36242
3.36635
3.37045
3.37474
3.37924
3.38394
3.38888
3.39407
3.39951
3.40525
3.4113
3.41768
3.42443
3.43156
3.43908
3.44701
3.45534
3.46407
3.47321
3.48278
3.49282
3.5043
3.51707
3.53004
3.54321
3.55661
3.57022
3.58403
3.59797
3.612
3.62607
3.64016
3.65424
3.66827
3.68219
3.69591
3.7093
3.72223
3.73445
3.74554
3.75494
3.33191
3.33454
3.33731
3.34021
3.34323
3.34639
3.34969
3.35314
3.35674
3.36051
3.36445
3.36856
3.37287
3.37737
3.38208
3.38702
3.3922
3.39764
3.40336
3.40939
3.41574
3.42245
3.42954
3.43702
3.44491
3.45322
3.46195
3.4711
3.48069
3.49075
3.50224
3.515
3.52792
3.54101
3.55429
3.56776
3.58141
3.5952
3.60909
3.62305
3.63705
3.65108
3.66509
3.67902
3.69278
3.70624
3.71927
3.73162
3.74292
3.75269
3.32995
3.33258
3.33535
3.33824
3.34127
3.34443
3.34773
3.35118
3.35479
3.35856
3.3625
3.36662
3.37093
3.37544
3.38016
3.3851
3.39027
3.3957
3.4014
3.4074
3.41372
3.42039
3.42742
3.43485
3.4427
3.45096
3.45967
3.46881
3.4784
3.48848
3.49998
3.51273
3.52562
3.53866
3.55186
3.56522
3.57875
3.59241
3.60618
3.62004
3.63397
3.64796
3.66197
3.67593
3.68976
3.70333
3.71649
3.72904
3.74062
3.75079
3.32798
3.33061
3.33338
3.33627
3.33929
3.34244
3.34574
3.34919
3.3528
3.35657
3.36051
3.36463
3.36894
3.37345
3.37816
3.3831
3.38827
3.39368
3.39937
3.40534
3.41162
3.41824
3.42522
3.43259
3.44037
3.44858
3.45724
3.46635
3.47593
3.486
3.4975
3.51026
3.52314
3.53614
3.54929
3.56258
3.57602
3.58959
3.60327
3.61706
3.63094
3.64491
3.65894
3.67296
3.68688
3.70059
3.71394
3.72674
3.73864
3.74927
3.32602
3.32863
3.33139
3.33428
3.33729
3.34044
3.34373
3.34717
3.35077
3.35453
3.35847
3.36258
3.36689
3.37139
3.3761
3.38102
3.38618
3.39158
3.39725
3.40319
3.40943
3.416
3.42293
3.43023
3.43794
3.44609
3.45468
3.46374
3.47328
3.48333
3.49482
3.50757
3.52045
3.53344
3.54656
3.55982
3.57321
3.58672
3.60035
3.6141
3.62797
3.64195
3.65602
3.67011
3.68416
3.69805
3.71163
3.72472
3.73701
3.7481
3.32405
3.32665
3.3294
3.33227
3.33527
3.33841
3.34169
3.34512
3.34871
3.35246
3.35638
3.36048
3.36478
3.36927
3.37396
3.37887
3.38402
3.3894
3.39504
3.40095
3.40716
3.41368
3.42054
3.42778
3.43541
3.44347
3.45199
3.46098
3.47047
3.48047
3.49194
3.50468
3.51755
3.53054
3.54366
3.55691
3.57029
3.58379
3.59741
3.61116
3.62504
3.63906
3.6532
3.66741
3.68161
3.69571
3.70957
3.72299
3.7357
3.74729
3.32208
3.32467
3.3274
3.33026
3.33324
3.33636
3.33963
3.34304
3.34661
3.35034
3.35424
3.35833
3.36261
3.36708
3.37176
3.37665
3.38177
3.38713
3.39274
3.39862
3.40478
3.41125
3.41806
3.42522
3.43278
3.44075
3.44918
3.45809
3.4675
3.47746
3.48888
3.5016
3.51445
3.52745
3.54058
3.55385
3.56725
3.58077
3.59442
3.60821
3.62214
3.63623
3.65048
3.66483
3.67922
3.69356
3.70772
3.72153
3.73468
3.74679
3.32011
3.32268
3.32539
3.32823
3.33119
3.33429
3.33753
3.34092
3.34447
3.34818
3.35206
3.35613
3.36038
3.36483
3.36948
3.37434
3.37944
3.38477
3.39035
3.39619
3.40231
3.40873
3.41547
3.42256
3.43004
3.43792
3.44626
3.45507
3.4644
3.47429
3.48565
3.49833
3.51117
3.52416
3.53732
3.55062
3.56406
3.57764
3.59135
3.60521
3.61923
3.63343
3.64781
3.66234
3.67695
3.69158
3.70608
3.7203
3.73393
3.74656
3.31814
3.32069
3.32338
3.32619
3.32913
3.3322
3.33542
3.33878
3.3423
3.34598
3.34984
3.35387
3.35809
3.36251
3.36713
3.37196
3.37702
3.38232
3.38786
3.39366
3.39973
3.40609
3.41277
3.41979
3.42718
3.43498
3.44322
3.45194
3.46117
3.47097
3.48227
3.49489
3.5077
3.5207
3.53387
3.54722
3.56072
3.57437
3.58818
3.60214
3.61628
3.63063
3.64517
3.65991
3.67478
3.68972
3.7046
3.71926
3.73339
3.74656
3.31617
3.31869
3.32135
3.32414
3.32705
3.33009
3.33327
3.33661
3.34009
3.34374
3.34756
3.35156
3.35575
3.36013
3.36471
3.36951
3.37452
3.37978
3.38527
3.39102
3.39704
3.40335
3.40996
3.41691
3.42421
3.43192
3.44006
3.44868
3.45782
3.46753
3.47874
3.49129
3.50407
3.51706
3.53025
3.54364
3.55722
3.57097
3.58488
3.59897
3.61326
3.62777
3.64252
3.6575
3.67266
3.68794
3.70323
3.71836
3.73302
3.74674
3.31419
3.31669
3.31932
3.32207
3.32495
3.32796
3.33111
3.33441
3.33786
3.34147
3.34525
3.3492
3.35334
3.35768
3.36222
3.36697
3.37194
3.37714
3.38259
3.38828
3.39424
3.40048
3.40703
3.4139
3.42112
3.42873
3.43678
3.44529
3.45433
3.46395
3.47507
3.48755
3.50028
3.51325
3.52646
3.5399
3.55355
3.5674
3.58144
3.59567
3.61013
3.62484
3.63981
3.65505
3.67053
3.68619
3.70192
3.71754
3.73275
3.74704
3.31222
3.31468
3.31728
3.32
3.32284
3.32581
3.32892
3.33218
3.33558
3.33915
3.34289
3.34679
3.35089
3.35517
3.35966
3.36436
3.36927
3.37442
3.3798
3.38544
3.39133
3.3975
3.40397
3.41076
3.4179
3.42542
3.43336
3.44178
3.45072
3.46024
3.47126
3.48367
3.49634
3.50929
3.52252
3.536
3.54972
3.56367
3.57783
3.59222
3.60686
3.62178
3.637
3.65253
3.66836
3.68442
3.70061
3.71676
3.73254
3.74743
3.31024
3.31267
3.31523
3.31791
3.32071
3.32364
3.32671
3.32992
3.33328
3.3368
3.34048
3.34434
3.34837
3.3526
3.35703
3.36167
3.36652
3.3716
3.37692
3.38248
3.38831
3.3944
3.4008
3.4075
3.41455
3.42197
3.42982
3.43813
3.44697
3.45639
3.46732
3.47964
3.49226
3.50519
3.51841
3.53193
3.54572
3.55976
3.57406
3.5886
3.60343
3.61857
3.63405
3.64989
3.66608
3.68256
3.69924
3.71594
3.73231
3.74783
3.30826
3.31065
3.31317
3.31581
3.31856
3.32145
3.32447
3.32764
3.33094
3.33441
3.33803
3.34183
3.34581
3.34997
3.35433
3.3589
3.36369
3.36869
3.37394
3.37942
3.38517
3.39118
3.39749
3.40411
3.41106
3.41839
3.42614
3.43435
3.44309
3.45241
3.46324
3.47548
3.48803
3.50092
3.51415
3.52769
3.54153
3.55567
3.57009
3.58479
3.5998
3.61516
3.63092
3.64708
3.66365
3.68057
3.69776
3.71502
3.73201
3.74818
3.30627
3.30862
3.3111
3.31369
3.31641
3.31924
3.32221
3.32532
3.32857
3.33198
3.33554
3.33928
3.34319
3.34728
3.35157
3.35607
3.36077
3.3657
3.37085
3.37626
3.38191
3.38784
3.39406
3.40058
3.40744
3.41467
3.42231
3.43042
3.43906
3.44829
3.45902
3.47117
3.48366
3.49651
3.50971
3.52327
3.53717
3.55138
3.56591
3.58075
3.59595
3.61154
3.62756
3.64405
3.66101
3.67839
3.6961
3.71395
3.73158
3.74843
3.30429
3.3066
3.30903
3.31157
3.31423
3.31702
3.31993
3.32298
3.32617
3.32951
3.33301
3.33668
3.34051
3.34453
3.34874
3.35315
3.35777
3.36261
3.36768
3.37298
3.37855
3.38438
3.39049
3.39691
3.40367
3.4108
3.41834
3.42635
3.43488
3.44401
3.45465
3.4667
3.47912
3.49192
3.50511
3.51867
3.53259
3.54687
3.5615
3.57648
3.59185
3.60766
3.62395
3.64076
3.65811
3.67595
3.6942
3.71265
3.73094
3.7485
3.30231
3.30457
3.30695
3.30944
3.31204
3.31477
3.31762
3.32061
3.32373
3.32701
3.33044
3.33403
3.33779
3.34173
3.34585
3.35017
3.35469
3.35943
3.3644
3.36961
3.37507
3.38079
3.3868
3.39311
3.39976
3.40678
3.41421
3.42212
3.43055
3.43958
3.45012
3.46207
3.47441
3.48716
3.50031
3.51386
3.52781
3.54213
3.55684
3.57194
3.58747
3.60348
3.62003
3.63716
3.6549
3.6732
3.69199
3.71105
3.73002
3.74832
3.30032
3.30253
3.30486
3.30729
3.30984
3.3125
3.31529
3.31821
3.32127
3.32447
3.32782
3.33133
3.33501
3.33886
3.34289
3.34712
3.35154
3.35618
3.36103
3.36613
3.37147
3.37708
3.38298
3.38917
3.39571
3.40261
3.40994
3.41773
3.42606
3.43499
3.44541
3.45727
3.46952
3.4822
3.4953
3.50883
3.52278
3.53713
3.5519
3.5671
3.58276
3.59896
3.61576
3.6332
3.65132
3.67009
3.68941
3.70909
3.72875
3.74782
3.29833
3.30049
3.30276
3.30513
3.30762
3.31022
3.31294
3.31578
3.31877
3.32189
3.32516
3.32859
3.33218
3.33593
3.33987
3.34399
3.34831
3.35283
3.35758
3.36255
3.36778
3.37326
3.37903
3.3851
3.39152
3.3983
3.40551
3.41318
3.4214
3.43022
3.44053
3.45228
3.46444
3.47703
3.49007
3.50356
3.51748
3.53185
3.54665
3.56192
3.57771
3.59407
3.61109
3.62883
3.64732
3.66654
3.6864
3.7067
3.72705
3.7469
3.29634
3.29844
3.30065
3.30296
3.30538
3.30791
3.31056
3.31333
3.31624
3.31928
3.32246
3.3258
3.32929
3.33295
3.33678
3.34079
3.345
3.3494
3.35403
3.35888
3.36397
3.36933
3.37496
3.3809
3.38718
3.39384
3.40092
3.40848
3.41657
3.42528
3.43547
3.44709
3.45914
3.47163
3.48459
3.49802
3.5119
3.52625
3.54107
3.55639
3.57226
3.58877
3.606
3.62401
3.64285
3.6625
3.68289
3.70379
3.72484
3.7455
3.29435
3.29639
3.29854
3.30078
3.30313
3.30559
3.30816
3.31086
3.31368
3.31663
3.31972
3.32296
3.32635
3.3299
3.33363
3.33752
3.34161
3.34589
3.35039
3.35511
3.36006
3.36528
3.37077
3.37657
3.38272
3.38923
3.39618
3.40361
3.41157
3.42016
3.43021
3.44169
3.45361
3.46599
3.47885
3.49219
3.50601
3.52031
3.53511
3.55045
3.56639
3.58301
3.60041
3.61867
3.63784
3.65791
3.6788
3.7003
3.72205
3.74351
3.29236
3.29433
3.29641
3.29859
3.30086
3.30324
3.30574
3.30835
3.31109
3.31395
3.31694
3.32008
3.32337
3.32681
3.33041
3.33419
3.33815
3.3423
3.34666
3.35124
3.35605
3.36112
3.36647
3.37212
3.37811
3.38449
3.39129
3.39857
3.4064
3.41485
3.42475
3.43607
3.44785
3.4601
3.47283
3.48605
3.49978
3.514
3.52876
3.54408
3.56005
3.57675
3.5943
3.61278
3.63224
3.6527
3.67407
3.69615
3.71858
3.74086
3.29037
3.29227
3.29428
3.29638
3.29858
3.30088
3.30329
3.30582
3.30846
3.31123
3.31412
3.31715
3.32033
3.32365
3.32714
3.33079
3.33462
3.33863
3.34285
3.34728
3.35194
3.35686
3.36205
3.36754
3.37338
3.3796
3.38625
3.39338
3.40106
3.40935
3.41909
3.43023
3.44184
3.45393
3.46651
3.47959
3.49318
3.5073
3.52197
3.53725
3.55321
3.56996
3.58762
3.60627
3.62599
3.6468
3.66862
3.69125
3.71435
3.73743
3.28837
3.29021
3.29214
3.29416
3.29628
3.2985
3.30083
3.30326
3.30581
3.30847
3.31126
3.31418
3.31724
3.32045
3.3238
3.32732
3.33101
3.33489
3.33896
3.34323
3.34774
3.35249
3.35752
3.36285
3.36852
3.37457
3.38106
3.38803
3.39554
3.40366
3.41321
3.42416
3.43558
3.44747
3.45987
3.47278
3.48621
3.50018
3.51473
3.52992
3.54584
3.56259
3.58031
3.5991
3.61904
3.64015
3.66238
3.68553
3.70926
3.73313
3.28637
3.28814
3.28999
3.29194
3.29397
3.2961
3.29834
3.30067
3.30312
3.30568
3.30836
3.31117
3.31411
3.31719
3.32041
3.3238
3.32734
3.33107
3.33498
3.3391
3.34344
3.34802
3.35288
3.35804
3.36353
3.36942
3.37572
3.38251
3.38985
3.39778
3.40713
3.41786
3.42905
3.44072
3.4529
3.4656
3.47883
3.49262
3.50701
3.52207
3.5379
3.55461
3.57235
3.59122
3.61133
3.63269
3.65528
3.67889
3.70322
3.72785
3.28438
3.28607
3.28784
3.2897
3.29165
3.29369
3.29583
3.29806
3.30041
3.30286
3.30542
3.30811
3.31093
3.31388
3.31697
3.32021
3.32361
3.32717
3.33093
3.33488
3.33904
3.34345
3.34813
3.35311
3.35843
3.36412
3.37024
3.37684
3.38398
3.39171
3.40083
3.41131
3.42225
3.43367
3.4456
3.45805
3.47104
3.4846
3.49879
3.51367
3.52936
3.54599
3.56369
3.58259
3.6028
3.62436
3.64724
3.67126
3.69612
3.72146
3.28238
3.28399
3.28568
3.28745
3.28931
3.29126
3.2933
3.29543
3.29766
3.3
3.30245
3.30501
3.3077
3.31052
3.31347
3.31656
3.3198
3.32321
3.3268
3.33057
3.33457
3.3388
3.34329
3.34808
3.3532
3.3587
3.36462
3.37102
3.37794
3.38545
3.39432
3.40452
3.41518
3.42631
3.43795
3.45011
3.46282
3.47611
3.49005
3.50471
3.52021
3.53669
3.55429
3.57316
3.59341
3.61509
3.63819
3.66254
3.68787
3.71384
3.28038
3.28191
3.28352
3.2852
3.28696
3.28881
3.29075
3.29277
3.29489
3.29711
3.29944
3.30188
3.30443
3.30711
3.30991
3.31285
3.31594
3.31918
3.32259
3.3262
3.33001
3.33405
3.33835
3.34294
3.34786
3.35316
3.35886
3.36504
3.37173
3.37901
3.3876
3.39748
3.40783
3.41864
3.42995
3.44178
3.45416
3.46714
3.48078
3.49516
3.51042
3.52669
3.54413
3.56289
3.5831
3.60483
3.62805
3.65264
3.67834
3.70488
3.27837
3.27982
3.28134
3.28293
3.2846
3.28635
3.28818
3.29009
3.2921
3.2942
3.2964
3.2987
3.30112
3.30365
3.3063
3.30909
3.31201
3.31508
3.31832
3.32174
3.32536
3.32921
3.33331
3.3377
3.34242
3.34749
3.35297
3.35891
3.36535
3.37237
3.38066
3.39021
3.4002
3.41065
3.4216
3.43305
3.44507
3.45768
3.47097
3.48502
3.49997
3.51596
3.53317
3.55175
3.57183
3.5935
3.61675
3.64147
3.66744
3.69443
3.27637
3.27773
3.27916
3.28066
3.28223
3.28387
3.28559
3.28739
3.28928
3.29126
3.29333
3.2955
3.29777
3.30015
3.30265
3.30527
3.30802
3.31092
3.31398
3.31721
3.32064
3.32429
3.32819
3.33237
3.33686
3.3417
3.34695
3.35263
3.35882
3.36555
3.37352
3.38269
3.39229
3.40235
3.41289
3.42393
3.43553
3.44773
3.46061
3.47427
3.48885
3.5045
3.5214
3.5397
3.55956
3.58106
3.60422
3.62894
3.65504
3.68236
3.27437
3.27564
3.27697
3.27837
3.27984
3.28137
3.28298
3.28467
3.28644
3.28829
3.29022
3.29225
3.29438
3.29661
3.29895
3.3014