/*--------------------------------*- C++ -*----------------------------------*\
  =========                 |
  \\      /  F ield         | OpenFOAM: The Open Source CFD Toolbox
   \\    /   O peration     | Website:  https://openfoam.org
    \\  /    A nd           | Version:  9
     \\/     M anipulation  |
\*---------------------------------------------------------------------------*/
FoamFile
{
    format      ascii;
    class       surfaceScalarField;
    location    "0.17";
    object      phi;
}
// * * * * * * * * * * * * * * * * * * * * * * * * * * * * * * * * * * * * * //

dimensions      [0 3 -1 0 0 0 0];

internalField   nonuniform List<scalar> 
9850
(
-2.68739e-07
3.20993e-06
-2.68735e-07
3.36658e-06
-2.68734e-07
3.53079e-06
-2.68734e-07
3.70293e-06
-2.68734e-07
3.88343e-06
-2.68735e-07
4.07272e-06
-2.68735e-07
4.27123e-06
-2.68735e-07
4.47943e-06
-2.68734e-07
4.69777e-06
-2.68733e-07
4.92672e-06
-2.68731e-07
5.16675e-06
-2.68728e-07
5.41832e-06
-2.68723e-07
5.68186e-06
-2.68717e-07
5.95781e-06
-2.68708e-07
6.24654e-06
-2.68697e-07
6.54842e-06
-2.68682e-07
6.86378e-06
-2.68662e-07
7.1929e-06
-2.68637e-07
7.53603e-06
-2.68605e-07
7.89338e-06
-2.68564e-07
8.2651e-06
-2.68514e-07
8.65132e-06
-2.68453e-07
9.05214e-06
-2.68384e-07
9.46776e-06
-2.68309e-07
9.89859e-06
-2.68234e-07
1.03454e-05
-2.68166e-07
1.08097e-05
-2.68105e-07
1.12934e-05
-2.68044e-07
1.17986e-05
-2.67968e-07
1.23269e-05
-2.67841e-07
1.50196e-05
-2.67644e-07
1.49474e-05
-2.67349e-07
1.48713e-05
-2.66911e-07
1.47871e-05
-2.66233e-07
1.46913e-05
-2.65086e-07
1.4579e-05
-2.62934e-07
1.444e-05
-2.58587e-07
1.42497e-05
-2.49714e-07
1.39535e-05
-2.33539e-07
1.34459e-05
-2.14523e-07
1.25906e-05
-2.18693e-07
1.14425e-05
-2.51705e-07
1.06114e-05
-2.56984e-07
1.05807e-05
-2.26754e-07
1.06642e-05
-2.34904e-07
9.99742e-06
-3.6099e-07
9.09093e-06
-3.83019e-07
1.05528e-05
-2.8484e-07
1.40521e-05
1.68164e-05
-2.69238e-07
3.20991e-06
-2.69224e-07
3.36656e-06
-2.69217e-07
3.53078e-06
-2.69214e-07
3.70293e-06
-2.69213e-07
3.88343e-06
-2.69212e-07
4.07272e-06
-2.69211e-07
4.27123e-06
-2.6921e-07
4.47943e-06
-2.69208e-07
4.69776e-06
-2.69203e-07
4.92671e-06
-2.69196e-07
5.16674e-06
-2.69185e-07
5.4183e-06
-2.6917e-07
5.68185e-06
-2.69149e-07
5.95779e-06
-2.6912e-07
6.24651e-06
-2.69083e-07
6.54838e-06
-2.69036e-07
6.86373e-06
-2.68975e-07
7.19283e-06
-2.68897e-07
7.53595e-06
-2.688e-07
7.89328e-06
-2.6868e-07
8.26498e-06
-2.68533e-07
8.65117e-06
-2.6836e-07
9.05197e-06
-2.68161e-07
9.46756e-06
-2.67944e-07
9.89837e-06
-2.67719e-07
1.03452e-05
-2.67496e-07
1.08095e-05
-2.67272e-07
1.12932e-05
-2.67027e-07
1.17984e-05
-2.66716e-07
1.23266e-05
-2.66206e-07
1.50191e-05
-2.65453e-07
1.49466e-05
-2.64342e-07
1.48702e-05
-2.62689e-07
1.47854e-05
-2.6014e-07
1.46887e-05
-2.55967e-07
1.45748e-05
-2.4871e-07
1.44327e-05
-2.35634e-07
1.42366e-05
-2.12693e-07
1.39306e-05
-1.78248e-07
1.34115e-05
-1.46812e-07
1.25592e-05
-1.58345e-07
1.1454e-05
-2.12402e-07
1.06654e-05
-2.27349e-07
1.05957e-05
-1.96369e-07
1.06332e-05
-2.33708e-07
1.00348e-05
-4.23703e-07
9.28093e-06
-4.68362e-07
1.05975e-05
-2.9755e-07
1.38813e-05
1.66317e-05
-2.69994e-07
3.20989e-06
-2.69976e-07
3.36654e-06
-2.69966e-07
3.53077e-06
-2.69959e-07
3.70292e-06
-2.69955e-07
3.88343e-06
-2.69952e-07
4.07272e-06
-2.69948e-07
4.27123e-06
-2.69944e-07
4.47942e-06
-2.69938e-07
4.69776e-06
-2.69929e-07
4.9267e-06
-2.69916e-07
5.16673e-06
-2.69897e-07
5.41829e-06
-2.6987e-07
5.68182e-06
-2.69834e-07
5.95775e-06
-2.69786e-07
6.24646e-06
-2.69723e-07
6.54832e-06
-2.69643e-07
6.86365e-06
-2.69541e-07
7.19273e-06
-2.69412e-07
7.53582e-06
-2.69253e-07
7.89312e-06
-2.69056e-07
8.26478e-06
-2.68818e-07
8.65093e-06
-2.68538e-07
9.05169e-06
-2.68216e-07
9.46724e-06
-2.67861e-07
9.89802e-06
-2.67483e-07
1.03448e-05
-2.67089e-07
1.08091e-05
-2.66673e-07
1.12928e-05
-2.66196e-07
1.17979e-05
-2.65589e-07
1.2326e-05
-2.64597e-07
1.50181e-05
-2.63165e-07
1.49452e-05
-2.61078e-07
1.48681e-05
-2.57996e-07
1.47824e-05
-2.53313e-07
1.4684e-05
-2.45908e-07
1.45674e-05
-2.33767e-07
1.44206e-05
-2.13626e-07
1.42165e-05
-1.81618e-07
1.38986e-05
-1.38415e-07
1.33683e-05
-1.03602e-07
1.25244e-05
-1.1989e-07
1.14703e-05
-1.82007e-07
1.07276e-05
-2.06969e-07
1.06207e-05
-1.89031e-07
1.06153e-05
-2.43685e-07
1.00894e-05
-4.44083e-07
9.48133e-06
-4.97006e-07
1.06504e-05
-2.94499e-07
1.36788e-05
1.63839e-05
-2.70996e-07
3.20987e-06
-2.70981e-07
3.36653e-06
-2.7097e-07
3.53076e-06
-2.70963e-07
3.70291e-06
-2.70957e-07
3.88342e-06
-2.70952e-07
4.07271e-06
-2.70945e-07
4.27122e-06
-2.70937e-07
4.47941e-06
-2.70925e-07
4.69775e-06
-2.70909e-07
4.92669e-06
-2.70887e-07
5.1667e-06
-2.70857e-07
5.41825e-06
-2.70816e-07
5.68178e-06
-2.70762e-07
5.9577e-06
-2.70692e-07
6.24639e-06
-2.70603e-07
6.54823e-06
-2.7049e-07
6.86354e-06
-2.70347e-07
7.19259e-06
-2.70171e-07
7.53564e-06
-2.69952e-07
7.8929e-06
-2.69686e-07
8.26451e-06
-2.69365e-07
8.65061e-06
-2.68987e-07
9.05131e-06
-2.68553e-07
9.46681e-06
-2.68069e-07
9.89753e-06
-2.67543e-07
1.03443e-05
-2.66979e-07
1.08085e-05
-2.66359e-07
1.12921e-05
-2.65629e-07
1.17972e-05
-2.64694e-07
1.2325e-05
-2.63176e-07
1.50166e-05
-2.61016e-07
1.4943e-05
-2.57906e-07
1.4865e-05
-2.53374e-07
1.47778e-05
-2.46627e-07
1.46773e-05
-2.36296e-07
1.45571e-05
-2.20112e-07
1.44044e-05
-1.94743e-07
1.41911e-05
-1.56923e-07
1.38608e-05
-1.09399e-07
1.33208e-05
-7.50668e-08
1.249e-05
-9.59391e-08
1.14912e-05
-1.62453e-07
1.07941e-05
-1.96148e-07
1.06543e-05
-1.9247e-07
1.06116e-05
-2.60562e-07
1.01575e-05
-4.54745e-07
9.67551e-06
-5.12434e-07
1.07081e-05
-3.00769e-07
1.34671e-05
1.61077e-05
-2.72275e-07
3.20986e-06
-2.72263e-07
3.36652e-06
-2.72255e-07
3.53075e-06
-2.72248e-07
3.70291e-06
-2.72242e-07
3.88341e-06
-2.72234e-07
4.0727e-06
-2.72224e-07
4.27121e-06
-2.72211e-07
4.4794e-06
-2.72192e-07
4.69773e-06
-2.72168e-07
4.92666e-06
-2.72135e-07
5.16667e-06
-2.72091e-07
5.41821e-06
-2.72034e-07
5.68172e-06
-2.71961e-07
5.95762e-06
-2.71868e-07
6.2463e-06
-2.71751e-07
6.54812e-06
-2.71606e-07
6.86339e-06
-2.71425e-07
7.19241e-06
-2.71203e-07
7.53542e-06
-2.70931e-07
7.89263e-06
-2.70601e-07
8.26418e-06
-2.70206e-07
8.65022e-06
-2.69741e-07
9.05084e-06
-2.69205e-07
9.46627e-06
-2.68603e-07
9.89693e-06
-2.67938e-07
1.03436e-05
-2.67208e-07
1.08078e-05
-2.66383e-07
1.12913e-05
-2.65394e-07
1.17962e-05
-2.64121e-07
1.23238e-05
-2.62065e-07
1.50145e-05
-2.59176e-07
1.49402e-05
-2.55072e-07
1.48609e-05
-2.49179e-07
1.47719e-05
-2.40579e-07
1.46687e-05
-2.27767e-07
1.45442e-05
-2.08395e-07
1.4385e-05
-1.79313e-07
1.4162e-05
-1.38164e-07
1.38196e-05
-8.98577e-08
1.32725e-05
-5.90843e-08
1.24593e-05
-8.38844e-08
1.1516e-05
-1.51295e-07
1.08615e-05
-1.92394e-07
1.06954e-05
-2.04198e-07
1.06234e-05
-2.79815e-07
1.02331e-05
-4.60628e-07
9.85632e-06
-5.20313e-07
1.07678e-05
-3.18272e-07
1.32651e-05
1.58255e-05
-2.7386e-07
3.20986e-06
-2.73852e-07
3.36651e-06
-2.73844e-07
3.53074e-06
-2.73837e-07
3.7029e-06
-2.73829e-07
3.88341e-06
-2.73819e-07
4.07269e-06
-2.73806e-07
4.2712e-06
-2.73787e-07
4.47938e-06
-2.73762e-07
4.6977e-06
-2.73729e-07
4.92663e-06
-2.73685e-07
5.16663e-06
-2.73628e-07
5.41815e-06
-2.73556e-07
5.68165e-06
-2.73465e-07
5.95753e-06
-2.7335e-07
6.24619e-06
-2.73208e-07
6.54797e-06
-2.73033e-07
6.86321e-06
-2.72817e-07
7.19219e-06
-2.72554e-07
7.53516e-06
-2.72233e-07
7.89231e-06
-2.71846e-07
8.2638e-06
-2.71383e-07
8.64975e-06
-2.7084e-07
9.0503e-06
-2.70212e-07
9.46564e-06
-2.69501e-07
9.89622e-06
-2.68707e-07
1.03429e-05
-2.67817e-07
1.08069e-05
-2.66794e-07
1.12903e-05
-2.65553e-07
1.17949e-05
-2.63951e-07
1.23222e-05
-2.61379e-07
1.5012e-05
-2.57807e-07
1.49366e-05
-2.52793e-07
1.48558e-05
-2.45698e-07
1.47648e-05
-2.35531e-07
1.46585e-05
-2.20744e-07
1.45295e-05
-1.99055e-07
1.43633e-05
-1.67707e-07
1.41307e-05
-1.25443e-07
1.37773e-05
-7.89818e-08
1.3226e-05
-5.31997e-08
1.24335e-05
-8.09904e-08
1.15438e-05
-1.47808e-07
1.09283e-05
-1.95268e-07
1.07429e-05
-2.21512e-07
1.06496e-05
-3.01295e-07
1.03129e-05
-4.65177e-07
1.00202e-05
-5.2486e-07
1.08274e-05
-3.43138e-07
1.30833e-05
1.55523e-05
-2.75761e-07
3.20985e-06
-2.75754e-07
3.3665e-06
-2.75746e-07
3.53074e-06
-2.75738e-07
3.70289e-06
-2.75728e-07
3.8834e-06
-2.75716e-07
4.07268e-06
-2.75699e-07
4.27118e-06
-2.75676e-07
4.47936e-06
-2.75645e-07
4.69767e-06
-2.75604e-07
4.92659e-06
-2.75551e-07
5.16657e-06
-2.75484e-07
5.41809e-06
-2.75398e-07
5.68156e-06
-2.7529e-07
5.95742e-06
-2.75157e-07
6.24605e-06
-2.74993e-07
6.54781e-06
-2.74791e-07
6.86301e-06
-2.74545e-07
7.19195e-06
-2.74245e-07
7.53486e-06
-2.73882e-07
7.89194e-06
-2.73445e-07
8.26336e-06
-2.72923e-07
8.64923e-06
-2.72311e-07
9.04969e-06
-2.71601e-07
9.46493e-06
-2.70792e-07
9.89541e-06
-2.69879e-07
1.03419e-05
-2.68843e-07
1.08059e-05
-2.67637e-07
1.12891e-05
-2.66163e-07
1.17935e-05
-2.64262e-07
1.23203e-05
-2.61225e-07
1.50089e-05
-2.57048e-07
1.49324e-05
-2.51253e-07
1.485e-05
-2.43164e-07
1.47567e-05
-2.31767e-07
1.46471e-05
-2.15548e-07
1.45132e-05
-1.92407e-07
1.43402e-05
-1.60097e-07
1.40984e-05
-1.18424e-07
1.37357e-05
-7.53602e-08
1.31829e-05
-5.49465e-08
1.24131e-05
-8.51542e-08
1.1574e-05
-1.51178e-07
1.09943e-05
-2.03896e-07
1.07956e-05
-2.41825e-07
1.06876e-05
-3.23846e-07
1.03949e-05
-4.71638e-07
1.0168e-05
-5.31431e-07
1.08872e-05
-3.74599e-07
1.29265e-05
1.52985e-05
-2.77977e-07
3.20985e-06
-2.7797e-07
3.36649e-06
-2.77962e-07
3.53073e-06
-2.77952e-07
3.70288e-06
-2.77941e-07
3.88339e-06
-2.77926e-07
4.07266e-06
-2.77906e-07
4.27116e-06
-2.77879e-07
4.47933e-06
-2.77843e-07
4.69763e-06
-2.77796e-07
4.92654e-06
-2.77736e-07
5.16651e-06
-2.77659e-07
5.41801e-06
-2.77563e-07
5.68147e-06
-2.77442e-07
5.9573e-06
-2.77294e-07
6.24591e-06
-2.77111e-07
6.54763e-06
-2.76888e-07
6.86279e-06
-2.76616e-07
7.19168e-06
-2.76286e-07
7.53453e-06
-2.75887e-07
7.89154e-06
-2.75408e-07
8.26288e-06
-2.74837e-07
8.64866e-06
-2.74166e-07
9.04901e-06
-2.73386e-07
9.46415e-06
-2.72493e-07
9.89451e-06
-2.71477e-07
1.03409e-05
-2.70314e-07
1.08047e-05
-2.68949e-07
1.12877e-05
-2.67273e-07
1.17918e-05
-2.65115e-07
1.23181e-05
-2.61684e-07
1.50055e-05
-2.57011e-07
1.49277e-05
-2.50595e-07
1.48436e-05
-2.4175e-07
1.47479e-05
-2.29485e-07
1.46348e-05
-2.12374e-07
1.44961e-05
-1.8856e-07
1.43164e-05
-1.56323e-07
1.40661e-05
-1.16379e-07
1.36957e-05
-7.74903e-08
1.31441e-05
-6.23958e-08
1.2398e-05
-9.47206e-08
1.16063e-05
-1.60046e-07
1.10596e-05
-2.16929e-07
1.08525e-05
-2.63727e-07
1.07344e-05
-3.47039e-07
1.04782e-05
-4.81801e-07
1.03028e-05
-5.43144e-07
1.09486e-05
-4.12991e-07
1.27963e-05
1.50706e-05
-2.80506e-07
3.20984e-06
-2.80499e-07
3.36649e-06
-2.8049e-07
3.53072e-06
-2.80479e-07
3.70287e-06
-2.80466e-07
3.88337e-06
-2.80449e-07
4.07265e-06
-2.80426e-07
4.27114e-06
-2.80396e-07
4.4793e-06
-2.80356e-07
4.6976e-06
-2.80305e-07
4.92649e-06
-2.80239e-07
5.16645e-06
-2.80155e-07
5.41793e-06
-2.8005e-07
5.68136e-06
-2.7992e-07
5.95717e-06
-2.7976e-07
6.24574e-06
-2.79563e-07
6.54743e-06
-2.79323e-07
6.86255e-06
-2.79032e-07
7.19138e-06
-2.78678e-07
7.53417e-06
-2.78251e-07
7.89112e-06
-2.77739e-07
8.26237e-06
-2.77129e-07
8.64805e-06
-2.76411e-07
9.0483e-06
-2.75575e-07
9.46332e-06
-2.74614e-07
9.89355e-06
-2.73514e-07
1.03398e-05
-2.72248e-07
1.08035e-05
-2.70754e-07
1.12862e-05
-2.68915e-07
1.179e-05
-2.66553e-07
1.23157e-05
-2.62817e-07
1.50018e-05
-2.57768e-07
1.49227e-05
-2.50906e-07
1.48368e-05
-2.41556e-07
1.47386e-05
-2.28775e-07
1.46221e-05
-2.1126e-07
1.44786e-05
-1.87416e-07
1.42925e-05
-1.56018e-07
1.40347e-05
-1.18524e-07
1.36582e-05
-8.41672e-08
1.31097e-05
-7.41795e-08
1.2388e-05
-1.08413e-07
1.16405e-05
-1.7315e-07
1.11244e-05
-2.33365e-07
1.09127e-05
-2.87356e-07
1.07883e-05
-3.71474e-07
1.05624e-05
-4.96205e-07
1.04275e-05
-5.60419e-07
1.10128e-05
-4.57201e-07
1.26931e-05
1.48703e-05
-2.83343e-07
3.20984e-06
-2.83336e-07
3.36648e-06
-2.83327e-07
3.53071e-06
-2.83315e-07
3.70286e-06
-2.83301e-07
3.88336e-06
-2.83282e-07
4.07263e-06
-2.83258e-07
4.27111e-06
-2.83225e-07
4.47927e-06
-2.83183e-07
4.69755e-06
-2.83128e-07
4.92643e-06
-2.83058e-07
5.16638e-06
-2.8297e-07
5.41784e-06
-2.8286e-07
5.68125e-06
-2.82723e-07
5.95704e-06
-2.82555e-07
6.24558e-06
-2.82348e-07
6.54722e-06
-2.82097e-07
6.8623e-06
-2.81791e-07
7.19108e-06
-2.81421e-07
7.5338e-06
-2.80975e-07
7.89067e-06
-2.80439e-07
8.26183e-06
-2.79801e-07
8.64741e-06
-2.79049e-07
9.04754e-06
-2.78173e-07
9.46244e-06
-2.77161e-07
9.89254e-06
-2.76e-07
1.03387e-05
-2.74658e-07
1.08021e-05
-2.73068e-07
1.12846e-05
-2.71113e-07
1.1788e-05
-2.68604e-07
1.23132e-05
-2.64657e-07
1.49978e-05
-2.59362e-07
1.49174e-05
-2.52229e-07
1.48296e-05
-2.42613e-07
1.47289e-05
-2.29638e-07
1.46091e-05
-2.12137e-07
1.44611e-05
-1.88773e-07
1.42692e-05
-1.58768e-07
1.40047e-05
-1.24185e-07
1.36237e-05
-9.44813e-08
1.308e-05
-8.93086e-08
1.23828e-05
-1.25286e-07
1.16765e-05
-1.89562e-07
1.11887e-05
-2.52445e-07
1.09756e-05
-3.12038e-07
1.08479e-05
-3.97085e-07
1.06474e-05
-5.14531e-07
1.05449e-05
-5.82632e-07
1.10809e-05
-5.06286e-07
1.26168e-05
1.47016e-05
-2.86485e-07
3.20983e-06
-2.86478e-07
3.36647e-06
-2.86469e-07
3.5307e-06
-2.86457e-07
3.70285e-06
-2.86442e-07
3.88334e-06
-2.86422e-07
4.07261e-06
-2.86397e-07
4.27109e-06
-2.86363e-07
4.47923e-06
-2.86319e-07
4.69751e-06
-2.86263e-07
4.92638e-06
-2.86191e-07
5.16631e-06
-2.86101e-07
5.41775e-06
-2.85988e-07
5.68114e-06
-2.85847e-07
5.9569e-06
-2.85675e-07
6.2454e-06
-2.85464e-07
6.54701e-06
-2.85206e-07
6.86204e-06
-2.84893e-07
7.19076e-06
-2.84514e-07
7.53342e-06
-2.84056e-07
7.89021e-06
-2.83507e-07
8.26128e-06
-2.82853e-07
8.64676e-06
-2.82081e-07
9.04677e-06
-2.8118e-07
9.46154e-06
-2.80138e-07
9.8915e-06
-2.78939e-07
1.03375e-05
-2.7755e-07
1.08007e-05
-2.75903e-07
1.1283e-05
-2.73876e-07
1.1786e-05
-2.71284e-07
1.23106e-05
-2.67221e-07
1.49937e-05
-2.61809e-07
1.4912e-05
-2.54573e-07
1.48224e-05
-2.44911e-07
1.47193e-05
-2.32023e-07
1.45962e-05
-2.14882e-07
1.4444e-05
-1.924e-07
1.42467e-05
-1.64192e-07
1.39765e-05
-1.32797e-07
1.35923e-05
-1.07716e-07
1.30549e-05
-1.07023e-07
1.23821e-05
-1.44606e-07
1.17141e-05
-2.08547e-07
1.12526e-05
-2.73548e-07
1.10406e-05
-3.37636e-07
1.0912e-05
-4.23621e-07
1.07334e-05
-5.36031e-07
1.06573e-05
-6.08651e-07
1.11535e-05
-5.57747e-07
1.25659e-05
1.45629e-05
-2.89926e-07
3.20983e-06
-2.8992e-07
3.36647e-06
-2.89911e-07
3.53069e-06
-2.89899e-07
3.70284e-06
-2.89884e-07
3.88333e-06
-2.89864e-07
4.07259e-06
-2.89839e-07
4.27106e-06
-2.89805e-07
4.4792e-06
-2.89761e-07
4.69746e-06
-2.89705e-07
4.92632e-06
-2.89634e-07
5.16623e-06
-2.89543e-07
5.41766e-06
-2.8943e-07
5.68103e-06
-2.8929e-07
5.95676e-06
-2.89117e-07
6.24523e-06
-2.88906e-07
6.5468e-06
-2.88648e-07
6.86178e-06
-2.88334e-07
7.19045e-06
-2.87953e-07
7.53304e-06
-2.87493e-07
7.88975e-06
-2.86941e-07
8.26073e-06
-2.86283e-07
8.6461e-06
-2.85505e-07
9.04599e-06
-2.84596e-07
9.46063e-06
-2.83545e-07
9.89045e-06
-2.82333e-07
1.03363e-05
-2.80928e-07
1.07993e-05
-2.79261e-07
1.12813e-05
-2.77211e-07
1.17839e-05
-2.74597e-07
1.2308e-05
-2.70515e-07
1.49897e-05
-2.65107e-07
1.49066e-05
-2.57926e-07
1.48152e-05
-2.48416e-07
1.47098e-05
-2.35857e-07
1.45836e-05
-2.19362e-07
1.44275e-05
-1.9807e-07
1.42254e-05
-1.7194e-07
1.39504e-05
-1.43877e-07
1.35642e-05
-1.23285e-07
1.30343e-05
-1.2672e-07
1.23856e-05
-1.65783e-07
1.17532e-05
-2.29487e-07
1.13163e-05
-2.96166e-07
1.11073e-05
-3.63798e-07
1.09797e-05
-4.50682e-07
1.08203e-05
-5.59688e-07
1.07664e-05
-6.36771e-07
1.12306e-05
-6.09024e-07
1.25381e-05
1.445e-05
-2.93664e-07
3.20983e-06
-2.93658e-07
3.36646e-06
-2.93649e-07
3.53068e-06
-2.93638e-07
3.70283e-06
-2.93623e-07
3.88331e-06
-2.93604e-07
4.07257e-06
-2.9358e-07
4.27104e-06
-2.93547e-07
4.47917e-06
-2.93505e-07
4.69742e-06
-2.93451e-07
4.92627e-06
-2.93382e-07
5.16616e-06
-2.93294e-07
5.41757e-06
-2.93184e-07
5.68091e-06
-2.93048e-07
5.95662e-06
-2.92879e-07
6.24506e-06
-2.92672e-07
6.54659e-06
-2.92419e-07
6.86153e-06
-2.9211e-07
7.19014e-06
-2.91735e-07
7.53267e-06
-2.91282e-07
7.8893e-06
-2.90737e-07
8.26018e-06
-2.90087e-07
8.64545e-06
-2.89319e-07
9.04522e-06
-2.8842e-07
9.45973e-06
-2.87379e-07
9.88941e-06
-2.8618e-07
1.03351e-05
-2.8479e-07
1.07979e-05
-2.83141e-07
1.12797e-05
-2.81117e-07
1.17819e-05
-2.78541e-07
1.23054e-05
-2.74532e-07
1.49857e-05
-2.69244e-07
1.49013e-05
-2.6226e-07
1.48082e-05
-2.53076e-07
1.47006e-05
-2.41053e-07
1.45716e-05
-2.25434e-07
1.44119e-05
-2.05565e-07
1.42055e-05
-1.81697e-07
1.39265e-05
-1.57011e-07
1.35395e-05
-1.40715e-07
1.3018e-05
-1.47927e-07
1.23928e-05
-1.88342e-07
1.17936e-05
-2.51904e-07
1.13799e-05
-3.19821e-07
1.11752e-05
-3.90194e-07
1.105e-05
-4.77804e-07
1.09079e-05
-5.84469e-07
1.0873e-05
-6.65584e-07
1.13117e-05
-6.58387e-07
1.25309e-05
1.43642e-05
-2.97694e-07
3.20982e-06
-2.97688e-07
3.36645e-06
-2.9768e-07
3.53067e-06
-2.9767e-07
3.70282e-06
-2.97657e-07
3.8833e-06
-2.97639e-07
4.07255e-06
-2.97617e-07
4.27101e-06
-2.97587e-07
4.47914e-06
-2.97548e-07
4.69738e-06
-2.97497e-07
4.92622e-06
-2.97432e-07
5.1661e-06
-2.9735e-07
5.41748e-06
-2.97246e-07
5.68081e-06
-2.97117e-07
5.95649e-06
-2.96956e-07
6.2449e-06
-2.96758e-07
6.5464e-06
-2.96516e-07
6.86129e-06
-2.96219e-07
7.18984e-06
-2.95858e-07
7.53231e-06
-2.95421e-07
7.88886e-06
-2.94894e-07
8.25966e-06
-2.94264e-07
8.64482e-06
-2.93519e-07
9.04448e-06
-2.92648e-07
9.45886e-06
-2.91639e-07
9.8884e-06
-2.90477e-07
1.03339e-05
-2.89132e-07
1.07966e-05
-2.87539e-07
1.12781e-05
-2.85586e-07
1.17799e-05
-2.83107e-07
1.2303e-05
-2.79256e-07
1.49818e-05
-2.74193e-07
1.48962e-05
-2.67535e-07
1.48016e-05
-2.58827e-07
1.46919e-05
-2.4751e-07
1.45603e-05
-2.32949e-07
1.43973e-05
-2.14673e-07
1.41872e-05
-1.93179e-07
1.3905e-05
-1.71848e-07
1.35182e-05
-1.59622e-07
1.30058e-05
-1.70278e-07
1.24034e-05
-2.119e-07
1.18352e-05
-2.75253e-07
1.14432e-05
-3.4412e-07
1.12441e-05
-4.16528e-07
1.11224e-05
-5.04558e-07
1.09959e-05
-6.09429e-07
1.09779e-05
-6.94017e-07
1.13963e-05
-7.04535e-07
1.25414e-05
1.43039e-05
-3.02014e-07
3.20982e-06
-3.02008e-07
3.36645e-06
-3.02001e-07
3.53067e-06
-3.01992e-07
3.70281e-06
-3.01981e-07
3.88329e-06
-3.01966e-07
4.07254e-06
-3.01946e-07
4.27099e-06
-3.0192e-07
4.47911e-06
-3.01885e-07
4.69735e-06
-3.0184e-07
4.92617e-06
-3.01782e-07
5.16604e-06
-3.01707e-07
5.41741e-06
-3.01613e-07
5.68072e-06
-3.01494e-07
5.95637e-06
-3.01346e-07
6.24475e-06
-3.01162e-07
6.54621e-06
-3.00936e-07
6.86106e-06
-3.00658e-07
7.18957e-06
-3.00318e-07
7.53197e-06
-2.99905e-07
7.88845e-06
-2.99406e-07
8.25916e-06
-2.98809e-07
8.64422e-06
-2.98101e-07
9.04377e-06
-2.97273e-07
9.45803e-06
-2.96316e-07
9.88744e-06
-2.95216e-07
1.03328e-05
-2.93945e-07
1.07953e-05
-2.92443e-07
1.12766e-05
-2.90607e-07
1.17781e-05
-2.88278e-07
1.23006e-05
-2.84664e-07
1.49782e-05
-2.7992e-07
1.48915e-05
-2.73699e-07
1.47954e-05
-2.65597e-07
1.46838e-05
-2.55125e-07
1.45498e-05
-2.41762e-07
1.43839e-05
-2.25198e-07
1.41707e-05
-2.06135e-07
1.3886e-05
-1.88097e-07
1.35002e-05
-1.79703e-07
1.29974e-05
-1.93492e-07
1.24172e-05
-2.36203e-07
1.18779e-05
-2.99366e-07
1.15064e-05
-3.68814e-07
1.13135e-05
-4.42583e-07
1.11962e-05
-5.30597e-07
1.10839e-05
-6.33702e-07
1.1081e-05
-7.20766e-07
1.14834e-05
-7.45373e-07
1.25661e-05
1.42647e-05
-3.06619e-07
3.20982e-06
-3.06614e-07
3.36644e-06
-3.06608e-07
3.53066e-06
-3.06601e-07
3.7028e-06
-3.06592e-07
3.88328e-06
-3.06579e-07
4.07253e-06
-3.06563e-07
4.27098e-06
-3.06542e-07
4.47909e-06
-3.06514e-07
4.69732e-06
-3.06476e-07
4.92613e-06
-3.06427e-07
5.16599e-06
-3.06363e-07
5.41734e-06
-3.0628e-07
5.68063e-06
-3.06176e-07
5.95626e-06
-3.06044e-07
6.24462e-06
-3.05879e-07
6.54605e-06
-3.05674e-07
6.86085e-06
-3.05421e-07
7.18931e-06
-3.0511e-07
7.53165e-06
-3.0473e-07
7.88807e-06
-3.04269e-07
8.2587e-06
-3.03715e-07
8.64367e-06
-3.03059e-07
9.04311e-06
-3.02291e-07
9.45726e-06
-3.01404e-07
9.88656e-06
-3.00388e-07
1.03318e-05
-2.99219e-07
1.07941e-05
-2.97842e-07
1.12752e-05
-2.96162e-07
1.17764e-05
-2.94033e-07
1.22985e-05
-2.90727e-07
1.49749e-05
-2.86386e-07
1.48871e-05
-2.80698e-07
1.47897e-05
-2.73305e-07
1.46764e-05
-2.63791e-07
1.45403e-05
-2.51733e-07
1.43719e-05
-2.36962e-07
1.41559e-05
-2.20351e-07
1.38694e-05
-2.05515e-07
1.34853e-05
-2.00721e-07
1.29926e-05
-2.17368e-07
1.24339e-05
-2.61093e-07
1.19216e-05
-3.24006e-07
1.15693e-05
-3.93748e-07
1.13833e-05
-4.68271e-07
1.12707e-05
-5.55738e-07
1.11714e-05
-6.56706e-07
1.1182e-05
-7.44866e-07
1.15715e-05
-7.79765e-07
1.2601e-05
1.42413e-05
-3.11506e-07
3.20981e-06
-3.11502e-07
3.36644e-06
-3.11498e-07
3.53066e-06
-3.11492e-07
3.70279e-06
-3.11486e-07
3.88327e-06
-3.11477e-07
4.07252e-06
-3.11466e-07
4.27097e-06
-3.11451e-07
4.47907e-06
-3.1143e-07
4.6973e-06
-3.11401e-07
4.9261e-06
-3.11363e-07
5.16595e-06
-3.11312e-07
5.41729e-06
-3.11244e-07
5.68057e-06
-3.11157e-07
5.95618e-06
-3.11046e-07
6.24451e-06
-3.10904e-07
6.5459e-06
-3.10726e-07
6.86068e-06
-3.10504e-07
7.18909e-06
-3.10228e-07
7.53138e-06
-3.09889e-07
7.88773e-06
-3.09475e-07
8.25828e-06
-3.08976e-07
8.64317e-06
-3.08383e-07
9.04252e-06
-3.0769e-07
9.45657e-06
-3.06892e-07
9.88576e-06
-3.05982e-07
1.03309e-05
-3.04939e-07
1.07931e-05
-3.03718e-07
1.1274e-05
-3.02232e-07
1.17749e-05
-3.00347e-07
1.22966e-05
-2.97411e-07
1.49719e-05
-2.93545e-07
1.48833e-05
-2.8847e-07
1.47846e-05
-2.81874e-07
1.46698e-05
-2.73405e-07
1.45319e-05
-2.6273e-07
1.43612e-05
-2.49802e-07
1.4143e-05
-2.3564e-07
1.38552e-05
-2.239e-07
1.34736e-05
-2.22484e-07
1.29912e-05
-2.4174e-07
1.24531e-05
-2.8633e-07
1.19662e-05
-3.49073e-07
1.1632e-05
-4.18902e-07
1.14531e-05
-4.93691e-07
1.13455e-05
-5.8009e-07
1.12578e-05
-6.78387e-07
1.12803e-05
-7.66193e-07
1.16593e-05
-8.07893e-07
1.26427e-05
1.42281e-05
-3.16671e-07
3.20981e-06
-3.16668e-07
3.36644e-06
-3.16665e-07
3.53065e-06
-3.16662e-07
3.70279e-06
-3.16659e-07
3.88327e-06
-3.16655e-07
4.07251e-06
-3.16649e-07
4.27096e-06
-3.16641e-07
4.47907e-06
-3.16629e-07
4.69729e-06
-3.16611e-07
4.92608e-06
-3.16585e-07
5.16592e-06
-3.16549e-07
5.41726e-06
-3.165e-07
5.68052e-06
-3.16434e-07
5.95611e-06
-3.16346e-07
6.24442e-06
-3.16232e-07
6.54579e-06
-3.16086e-07
6.86053e-06
-3.159e-07
7.1889e-06
-3.15666e-07
7.53114e-06
-3.15375e-07
7.88743e-06
-3.15017e-07
8.25792e-06
-3.14583e-07
8.64273e-06
-3.14066e-07
9.042e-06
-3.13462e-07
9.45597e-06
-3.12768e-07
9.88506e-06
-3.11983e-07
1.03301e-05
-3.11091e-07
1.07922e-05
-3.10053e-07
1.12729e-05
-3.08793e-07
1.17737e-05
-3.07192e-07
1.2295e-05
-3.04681e-07
1.49694e-05
-3.0135e-07
1.48799e-05
-2.96954e-07
1.47802e-05
-2.91224e-07
1.46641e-05
-2.83868e-07
1.45245e-05
-2.74632e-07
1.4352e-05
-2.63575e-07
1.41319e-05
-2.51837e-07
1.38435e-05
-2.43081e-07
1.34648e-05
-2.44841e-07
1.2993e-05
-2.66519e-07
1.24748e-05
-3.11987e-07
1.20117e-05
-3.74594e-07
1.16947e-05
-4.44403e-07
1.15229e-05
-5.19144e-07
1.14203e-05
-6.04108e-07
1.13428e-05
-6.99291e-07
1.13754e-05
-7.85516e-07
1.17456e-05
-8.31127e-07
1.26883e-05
1.42202e-05
-3.22108e-07
3.20981e-06
-3.22106e-07
3.36644e-06
-3.22105e-07
3.53065e-06
-3.22105e-07
3.70279e-06
-3.22105e-07
3.88327e-06
-3.22106e-07
4.07251e-06
-3.22107e-07
4.27096e-06
-3.22107e-07
4.47907e-06
-3.22105e-07
4.69728e-06
-3.221e-07
4.92608e-06
-3.22089e-07
5.16591e-06
-3.2207e-07
5.41724e-06
-3.22041e-07
5.68049e-06
-3.21999e-07
5.95607e-06
-3.21939e-07
6.24436e-06
-3.21857e-07
6.54571e-06
-3.21747e-07
6.86042e-06
-3.21602e-07
7.18876e-06
-3.21416e-07
7.53096e-06
-3.21181e-07
7.8872e-06
-3.20887e-07
8.25763e-06
-3.20527e-07
8.64237e-06
-3.20097e-07
9.04157e-06
-3.19593e-07
9.45547e-06
-3.1902e-07
9.88449e-06
-3.18377e-07
1.03294e-05
-3.17655e-07
1.07915e-05
-3.16825e-07
1.12721e-05
-3.15821e-07
1.17727e-05
-3.14536e-07
1.22937e-05
-3.12496e-07
1.49674e-05
-3.09752e-07
1.48772e-05
-3.06089e-07
1.47765e-05
-3.01279e-07
1.46592e-05
-2.95084e-07
1.45183e-05
-2.87323e-07
1.43442e-05
-2.78149e-07
1.41227e-05
-2.68793e-07
1.38341e-05
-2.62911e-07
1.34589e-05
-2.67673e-07
1.29977e-05
-2.9163e-07
1.24988e-05
-3.38019e-07
1.20581e-05
-4.00652e-07
1.17573e-05
-4.70497e-07
1.15928e-05
-5.45115e-07
1.14949e-05
-6.28566e-07
1.14262e-05
-7.20521e-07
1.14674e-05
-8.04499e-07
1.18295e-05
-8.52282e-07
1.27361e-05
1.42149e-05
-3.27811e-07
3.20981e-06
-3.27811e-07
3.36644e-06
-3.27812e-07
3.53065e-06
-3.27815e-07
3.70279e-06
-3.2782e-07
3.88327e-06
-3.27827e-07
4.07252e-06
-3.27835e-07
4.27097e-06
-3.27844e-07
4.47907e-06
-3.27854e-07
4.69729e-06
-3.27862e-07
4.92609e-06
-3.27867e-07
5.16592e-06
-3.27869e-07
5.41724e-06
-3.27863e-07
5.68048e-06
-3.27847e-07
5.95605e-06
-3.27817e-07
6.24433e-06
-3.2777e-07
6.54566e-06
-3.27701e-07
6.86035e-06
-3.27603e-07
7.18866e-06
-3.27471e-07
7.53083e-06
-3.27297e-07
7.88702e-06
-3.27075e-07
8.25741e-06
-3.26797e-07
8.6421e-06
-3.26463e-07
9.04124e-06
-3.26072e-07
9.45508e-06
-3.25631e-07
9.88405e-06
-3.25146e-07
1.0329e-05
-3.24612e-07
1.0791e-05
-3.2401e-07
1.12715e-05
-3.23286e-07
1.1772e-05
-3.22347e-07
1.22928e-05
-3.20817e-07
1.49659e-05
-3.187e-07
1.48751e-05
-3.15812e-07
1.47736e-05
-3.11962e-07
1.46554e-05
-3.06963e-07
1.45133e-05
-3.00696e-07
1.43379e-05
-2.934e-07
1.41155e-05
-2.86382e-07
1.38271e-05
-2.83271e-07
1.34558e-05
-2.90891e-07
1.30053e-05
-3.17057e-07
1.25249e-05
-3.64476e-07
1.21055e-05
-4.27383e-07
1.18202e-05
-4.97495e-07
1.16629e-05
-5.72196e-07
1.15696e-05
-6.54459e-07
1.15085e-05
-7.43627e-07
1.15566e-05
-8.25638e-07
1.19115e-05
-8.75719e-07
1.27861e-05
1.42132e-05
-3.33772e-07
3.20981e-06
-3.33774e-07
3.36644e-06
-3.33777e-07
3.53066e-06
-3.33784e-07
3.7028e-06
-3.33794e-07
3.88328e-06
-3.33807e-07
4.07253e-06
-3.33824e-07
4.27099e-06
-3.33844e-07
4.47909e-06
-3.33866e-07
4.69731e-06
-3.3389e-07
4.92611e-06
-3.33914e-07
5.16594e-06
-3.33936e-07
5.41726e-06
-3.33956e-07
5.6805e-06
-3.33969e-07
5.95606e-06
-3.33973e-07
6.24433e-06
-3.33965e-07
6.54565e-06
-3.3394e-07
6.86032e-06
-3.33893e-07
7.18862e-06
-3.3382e-07
7.53075e-06
-3.33713e-07
7.88692e-06
-3.33569e-07
8.25726e-06
-3.33381e-07
8.64191e-06
-3.33151e-07
9.04101e-06
-3.32882e-07
9.45481e-06
-3.32585e-07
9.88375e-06
-3.3227e-07
1.03286e-05
-3.3194e-07
1.07906e-05
-3.31584e-07
1.12712e-05
-3.31159e-07
1.17715e-05
-3.30589e-07
1.22922e-05
-3.29599e-07
1.49649e-05
-3.28142e-07
1.48736e-05
-3.2606e-07
1.47716e-05
-3.23198e-07
1.46525e-05
-3.19415e-07
1.45095e-05
-3.1465e-07
1.43332e-05
-3.09217e-07
1.411e-05
-3.04484e-07
1.38224e-05
-3.04052e-07
1.34554e-05
-3.14426e-07
1.30157e-05
-3.42787e-07
1.25533e-05
-3.91413e-07
1.21541e-05
-4.54924e-07
1.18837e-05
-5.25692e-07
1.17336e-05
-6.00975e-07
1.16449e-05
-6.82829e-07
1.15903e-05
-7.70376e-07
1.16441e-05
-8.52021e-07
1.19932e-05
-9.0705e-07
1.28412e-05
1.42202e-05
-3.39983e-07
3.20981e-06
-3.39987e-07
3.36644e-06
-3.39993e-07
3.53066e-06
-3.40004e-07
3.70281e-06
-3.4002e-07
3.8833e-06
-3.40041e-07
4.07255e-06
-3.40067e-07
4.27101e-06
-3.40098e-07
4.47913e-06
-3.40134e-07
4.69735e-06
-3.40175e-07
4.92615e-06
-3.40219e-07
5.16598e-06
-3.40265e-07
5.41731e-06
-3.40312e-07
5.68054e-06
-3.40357e-07
5.95611e-06
-3.40398e-07
6.24437e-06
-3.40432e-07
6.54569e-06
-3.40455e-07
6.86035e-06
-3.40463e-07
7.18862e-06
-3.40452e-07
7.53074e-06
-3.40418e-07
7.88688e-06
-3.40357e-07
8.2572e-06
-3.40265e-07
8.64182e-06
-3.40146e-07
9.04089e-06
-3.40008e-07
9.45467e-06
-3.39864e-07
9.88361e-06
-3.39728e-07
1.03285e-05
-3.39614e-07
1.07905e-05
-3.39518e-07
1.12711e-05
-3.3941e-07
1.17714e-05
-3.39227e-07
1.2292e-05
-3.38801e-07
1.49645e-05
-3.38026e-07
1.48729e-05
-3.36771e-07
1.47703e-05
-3.34915e-07
1.46507e-05
-3.32357e-07
1.4507e-05
-3.29091e-07
1.43299e-05
-3.25497e-07
1.41064e-05
-3.22998e-07
1.38199e-05
-3.25168e-07
1.34576e-05
-3.38226e-07
1.30288e-05
-3.68809e-07
1.25839e-05
-4.18855e-07
1.22042e-05
-4.83352e-07
1.19482e-05
-5.55286e-07
1.18056e-05
-6.31896e-07
1.17215e-05
-7.14553e-07
1.1673e-05
-8.02426e-07
1.1732e-05
-8.86874e-07
1.20776e-05
-9.52404e-07
1.29067e-05
1.42454e-05
-3.46436e-07
3.20982e-06
-3.46442e-07
3.36645e-06
-3.46452e-07
3.53067e-06
-3.46468e-07
3.70282e-06
-3.4649e-07
3.88332e-06
-3.46518e-07
4.07258e-06
-3.46555e-07
4.27105e-06
-3.46598e-07
4.47917e-06
-3.4665e-07
4.6974e-06
-3.46709e-07
4.92621e-06
-3.46775e-07
5.16605e-06
-3.46846e-07
5.41738e-06
-3.46923e-07
5.68062e-06
-3.47002e-07
5.95619e-06
-3.47082e-07
6.24445e-06
-3.47161e-07
6.54576e-06
-3.47235e-07
6.86042e-06
-3.47302e-07
7.18869e-06
-3.47358e-07
7.5308e-06
-3.474e-07
7.88692e-06
-3.47426e-07
8.25722e-06
-3.47436e-07
8.64183e-06
-3.47434e-07
9.04089e-06
-3.47432e-07
9.45467e-06
-3.47448e-07
9.88362e-06
-3.47501e-07
1.03286e-05
-3.47612e-07
1.07906e-05
-3.47787e-07
1.12712e-05
-3.48007e-07
1.17716e-05
-3.48225e-07
1.22923e-05
-3.48379e-07
1.49646e-05
-3.48303e-07
1.48728e-05
-3.47888e-07
1.47699e-05
-3.47045e-07
1.46498e-05
-3.45709e-07
1.45056e-05
-3.4393e-07
1.43281e-05
-3.42144e-07
1.41046e-05
-3.41829e-07
1.38196e-05
-3.46535e-07
1.34623e-05
-3.62232e-07
1.30445e-05
-3.95085e-07
1.26167e-05
-4.46767e-07
1.22559e-05
-5.12633e-07
1.20141e-05
-5.8629e-07
1.18792e-05
-6.65116e-07
1.18003e-05
-7.50096e-07
1.1758e-05
-8.40929e-07
1.18228e-05
-9.32852e-07
1.21696e-05
-1.01693e-06
1.29908e-05
1.43004e-05
-3.53123e-07
3.20982e-06
-3.53132e-07
3.36646e-06
-3.53145e-07
3.53069e-06
-3.53166e-07
3.70284e-06
-3.53195e-07
3.88335e-06
-3.53232e-07
4.07262e-06
-3.5328e-07
4.2711e-06
-3.53337e-07
4.47923e-06
-3.53405e-07
4.69747e-06
-3.53483e-07
4.92629e-06
-3.53572e-07
5.16614e-06
-3.53671e-07
5.41747e-06
-3.53779e-07
5.68073e-06
-3.53894e-07
5.9563e-06
-3.54016e-07
6.24458e-06
-3.54142e-07
6.54589e-06
-3.5427e-07
6.86055e-06
-3.54398e-07
7.18882e-06
-3.54524e-07
7.53092e-06
-3.54647e-07
7.88705e-06
-3.54764e-07
8.25734e-06
-3.54879e-07
8.64194e-06
-3.54998e-07
9.04101e-06
-3.55138e-07
9.45481e-06
-3.55319e-07
9.88381e-06
-3.55568e-07
1.03288e-05
-3.55912e-07
1.0791e-05
-3.56366e-07
1.12717e-05
-3.56922e-07
1.17722e-05
-3.5755e-07
1.22929e-05
-3.58295e-07
1.49654e-05
-3.58925e-07
1.48734e-05
-3.59355e-07
1.47703e-05
-3.59523e-07
1.465e-05
-3.594e-07
1.45055e-05
-3.59085e-07
1.43278e-05
-3.59069e-07
1.41046e-05
-3.60886e-07
1.38214e-05
-3.68064e-07
1.34694e-05
-3.86359e-07
1.30628e-05
-4.21518e-07
1.26519e-05
-4.75012e-07
1.23093e-05
-5.42574e-07
1.20816e-05
-6.18467e-07
1.19551e-05