/*--------------------------------*- C++ -*----------------------------------*\
  =========                 |
  \\      /  F ield         | OpenFOAM: The Open Source CFD Toolbox
   \\    /   O peration     | Website:  https://openfoam.org
    \\  /    A nd           | Version:  9
     \\/     M anipulation  |
\*---------------------------------------------------------------------------*/
FoamFile
{
    format      ascii;
    class       volVectorField;
    location    "0.17";
    object      U;
}
// * * * * * * * * * * * * * * * * * * * * * * * * * * * * * * * * * * * * * //

dimensions      [0 1 -1 0 0 0 0];

internalField   nonuniform List<vector> 
5000
(
(-2.67999e-05 0 -0.000478102)
(-2.4873e-05 0 -0.000886164)
(-2.43208e-05 0 -0.00135484)
(-2.42575e-05 0 -0.0018761)
(-2.43388e-05 0 -0.00242101)
(-2.4458e-05 0 -0.00297377)
(-2.45495e-05 0 -0.00352575)
(-2.45771e-05 0 -0.00407466)
(-2.45048e-05 0 -0.00462547)
(-2.42919e-05 0 -0.00519179)
(-2.38888e-05 0 -0.00579763)
(-2.32364e-05 0 -0.00647882)
(-2.2266e-05 0 -0.00728368)
(-2.08964e-05 0 -0.00827272)
(-1.90291e-05 0 -0.00951733)
(-1.65387e-05 0 -0.0110977)
(-1.32624e-05 0 -0.0131004)
(-8.98924e-06 0 -0.0156167)
(-3.44662e-06 0 -0.0187406)
(3.68563e-06 0 -0.0225682)
(1.27807e-05 0 -0.0271959)
(2.41818e-05 0 -0.0327157)
(3.80835e-05 0 -0.0392042)
(5.44065e-05 0 -0.0467021)
(7.25665e-05 0 -0.0551831)
(9.13923e-05 0 -0.0645203)
(0.000109391 0 -0.0744696)
(0.00012554 0 -0.0847032)
(0.000140466 0 -0.0949178)
(0.000157241 0 -0.104998)
(0.00018217 0 -0.115991)
(0.000222054 0 -0.128018)
(0.000282907 0 -0.140695)
(0.000373344 0 -0.154713)
(0.000509843 0 -0.170668)
(0.000730132 0 -0.189345)
(0.00112238 0 -0.21242)
(0.00188712 0 -0.243895)
(0.00345103 0 -0.292727)
(0.00652549 0 -0.376396)
(0.0112554 0 -0.518441)
(0.013851 0 -0.712368)
(0.00848011 0 -0.854173)
(0.00225714 0 -0.855655)
(0.00607771 0 -0.83724)
(0.0132564 0 -0.952902)
(-0.00592381 0 -1.11891)
(-0.0309995 0 -0.863151)
(-0.0161195 0 -0.265851)
(0.00629478 0 0.191734)
(-0.000154292 0 -0.000490275)
(-0.000147538 0 -0.00089786)
(-0.000145474 0 -0.00136414)
(-0.000144622 0 -0.00188629)
(-0.000144178 0 -0.0024338)
(-0.000143965 0 -0.00299004)
(-0.000143818 0 -0.00354605)
(-0.000143588 0 -0.00409947)
(-0.000143127 0 -0.00465523)
(-0.000142278 0 -0.00522693)
(-0.000140854 0 -0.00583856)
(-0.000138643 0 -0.00652592)
(-0.000135405 0 -0.00733729)
(-0.000130873 0 -0.00833317)
(-0.000124738 0 -0.00958494)
(-0.000116635 0 -0.0111728)
(-0.000106111 0 -0.0131834)
(-9.26028e-05 0 -0.015708)
(-7.54111e-05 0 -0.0188408)
(-5.37259e-05 0 -0.0226778)
(-2.66336e-05 0 -0.0273156)
(6.70722e-06 0 -0.0328458)
(4.68504e-05 0 -0.039345)
(9.36943e-05 0 -0.0468533)
(0.000146096 0 -0.0553437)
(0.000201846 0 -0.0646892)
(0.000258258 0 -0.0746459)
(0.000313988 0 -0.0848873)
(0.000371659 0 -0.0951123)
(0.000439911 0 -0.105206)
(0.000540168 0 -0.116218)
(0.000695208 0 -0.128267)
(0.000925135 0 -0.140968)
(0.00126464 0 -0.155014)
(0.00177595 0 -0.171014)
(0.00258272 0 -0.189779)
(0.00393464 0 -0.213053)
(0.00631453 0 -0.244984)
(0.0105555 0 -0.294766)
(0.0176887 0 -0.37993)
(0.0272269 0 -0.522601)
(0.0316346 0 -0.712602)
(0.0211782 0 -0.849762)
(0.00908404 0 -0.85682)
(0.0132763 0 -0.845058)
(0.0225201 0 -0.953497)
(-0.0119297 0 -1.09769)
(-0.0578336 0 -0.859358)
(-0.0314363 0 -0.284167)
(0.0182363 0 0.175794)
(-0.000344562 0 -0.000507071)
(-0.000335543 0 -0.000910683)
(-0.000333023 0 -0.00136945)
(-0.000331334 0 -0.00188735)
(-0.000330064 0 -0.00243246)
(-0.000329149 0 -0.00298713)
(-0.000328364 0 -0.00354207)
(-0.000327476 0 -0.00409483)
(-0.000326257 0 -0.00465031)
(-0.000324445 0 -0.00522212)
(-0.000321732 0 -0.00583429)
(-0.000317757 0 -0.00652263)
(-0.000312109 0 -0.00733546)
(-0.000304325 0 -0.00833328)
(-0.000293879 0 -0.00958751)
(-0.000280155 0 -0.0111784)
(-0.000262416 0 -0.0131928)
(-0.000239768 0 -0.0157219)
(-0.000211135 0 -0.01886)
(-0.000175281 0 -0.0227032)
(-0.000130852 0 -0.0273477)
(-7.6616e-05 0 -0.032885)
(-1.16787e-05 0 -0.0393907)
(6.40564e-05 0 -0.0469038)
(0.000149363 0 -0.0553963)
(0.000241782 0 -0.06474)
(0.000338555 0 -0.0746921)
(0.000439068 0 -0.0849296)
(0.000548451 0 -0.0951567)
(0.000680533 0 -0.105264)
(0.000873702 0 -0.116305)
(0.0011682 0 -0.128408)
(0.00159793 0 -0.141193)
(0.0022262 0 -0.155365)
(0.00316158 0 -0.171573)
(0.00460212 0 -0.190704)
(0.00691157 0 -0.214651)
(0.010723 0 -0.2478)
(0.0169852 0 -0.299566)
(0.0265847 0 -0.386941)
(0.0382823 0 -0.528797)
(0.042828 0 -0.709911)
(0.0298728 0 -0.83835)
(0.0149117 0 -0.852865)
(0.016773 0 -0.849991)
(0.0234214 0 -0.944928)
(-0.0153482 0 -1.05927)
(-0.0676463 0 -0.849716)
(-0.0385512 0 -0.318672)
(0.0267632 0 0.137964)
(-0.000594092 0 -0.0005225)
(-0.000586106 0 -0.000923218)
(-0.00058434 0 -0.00137559)
(-0.000582493 0 -0.00188905)
(-0.000580872 0 -0.00243129)
(-0.000579496 0 -0.00298391)
(-0.000578044 0 -0.00353736)
(-0.000576239 0 -0.00408907)
(-0.000573811 0 -0.00464393)
(-0.000570437 0 -0.00521559)
(-0.000565729 0 -0.0058281)
(-0.000559233 0 -0.00651729)
(-0.000550424 0 -0.0073315)
(-0.000538702 0 -0.00833129)
(-0.000523379 0 -0.00958812)
(-0.000503644 0 -0.0111823)
(-0.000478525 0 -0.0132008)
(-0.00044685 0 -0.0157349)
(-0.000407226 0 -0.018879)
(-0.000358057 0 -0.0227292)
(-0.000297613 0 -0.0273815)
(-0.000224278 0 -0.032927)
(-0.000136823 0 -0.0394402)
(-3.48863e-05 0 -0.046959)
(8.06189e-05 0 -0.0554539)
(0.000207584 0 -0.0647964)
(0.000343921 0 -0.074745)
(0.000490614 0 -0.0849812)
(0.000655877 0 -0.0952164)
(0.000858377 0 -0.105349)
(0.0011536 0 -0.116439)
(0.00159922 0 -0.128633)
(0.00224062 0 -0.141556)
(0.00316643 0 -0.15594)
(0.00452356 0 -0.172485)
(0.00656348 0 -0.192179)
(0.00971741 0 -0.217082)
(0.0146826 0 -0.2518)
(0.0223985 0 -0.305808)
(0.0334706 0 -0.39511)
(0.0459316 0 -0.534902)
(0.0497536 0 -0.706014)
(0.0353269 0 -0.82584)
(0.018847 0 -0.846761)
(0.0178747 0 -0.851238)
(0.0205296 0 -0.932612)
(-0.0187363 0 -1.02205)
(-0.0717308 0 -0.83928)
(-0.0442733 0 -0.357075)
(0.0296149 0 0.0897583)
(-0.000912593 0 -0.000532341)
(-0.000906121 0 -0.000933187)
(-0.000905469 0 -0.00138227)
(-0.000903775 0 -0.00189345)
(-0.00090208 0 -0.00243466)
(-0.000900374 0 -0.00298714)
(-0.000898248 0 -0.00354107)
(-0.000895392 0 -0.00409382)
(-0.000891496 0 -0.00465024)
(-0.000886188 0 -0.00522401)
(-0.00087903 0 -0.00583923)
(-0.000869508 0 -0.00653176)
(-0.000857028 0 -0.00734997)
(-0.000840908 0 -0.00835445)
(-0.000820349 0 -0.00961673)
(-0.000794401 0 -0.0112173)
(-0.000761911 0 -0.013243)
(-0.000721485 0 -0.0157856)
(-0.000671458 0 -0.0189393)
(-0.000609933 0 -0.0228004)
(-0.000534857 0 -0.0274646)
(-0.000444264 0 -0.0330225)
(-0.000336583 0 -0.0395476)
(-0.000211105 0 -0.0470768)
(-6.82846e-05 0 -0.0555794)
(9.05348e-05 0 -0.0649266)
(0.000264545 0 -0.0748791)
(0.00045685 0 -0.0851235)
(0.00067913 0 -0.095379)
(0.000954479 0 -0.105552)
(0.00135448 0 -0.116713)
(0.00195305 0 -0.129031)
(0.00280376 0 -0.142136)
(0.00401516 0 -0.156793)
(0.00576247 0 -0.173758)
(0.00833105 0 -0.194123)
(0.0121844 0 -0.220098)
(0.0180263 0 -0.256449)
(0.0267071 0 -0.312563)
(0.0384722 0 -0.403271)
(0.0507045 0 -0.540348)
(0.0533342 0 -0.701994)
(0.0382117 0 -0.814377)
(0.0210482 0 -0.840189)
(0.0171532 0 -0.850122)
(0.0152914 0 -0.91993)
(-0.0224165 0 -0.990431)
(-0.0727274 0 -0.829402)
(-0.0498674 0 -0.392654)
(0.0269843 0 0.0411368)
(-0.00130848 0 -0.000538772)
(-0.00130264 0 -0.000940675)
(-0.0013028 0 -0.00138864)
(-0.0013011 0 -0.00189907)
(-0.00129919 0 -0.00244055)
(-0.00129702 0 -0.00299422)
(-0.00129415 0 -0.00355007)
(-0.00129021 0 -0.00410537)
(-0.00128484 0 -0.00466495)
(-0.00127763 0 -0.00524252)
(-0.00126809 0 -0.00586222)
(-0.00125564 0 -0.00655996)
(-0.00123964 0 -0.00738415)
(-0.00121932 0 -0.00839544)
(-0.0011938 0 -0.00966547)
(-0.00116201 0 -0.0112748)
(-0.00112265 0 -0.0133106)
(-0.00107414 0 -0.0158645)
(-0.0010146 0 -0.0190311)
(-0.000941856 0 -0.0229065)
(-0.000853587 0 -0.0275863)
(-0.0007475 0 -0.0331604)
(-0.000621671 0 -0.0397018)
(-0.000474957 0 -0.0472459)
(-0.000307208 0 -0.0557612)
(-0.000118883 0 -0.0651191)
(9.07029e-05 0 -0.0750827)
(0.000326916 0 -0.0853443)
(0.000604726 0 -0.0956316)
(0.000951099 0 -0.105859)
(0.00145225 0 -0.117114)
(0.00219629 0 -0.129585)
(0.00324159 0 -0.142913)
(0.00471087 0 -0.157894)
(0.00679775 0 -0.175346)
(0.00980426 0 -0.196454)
(0.0141977 0 -0.22356)
(0.0206423 0 -0.261534)
(0.0298398 0 -0.319563)
(0.041657 0 -0.411204)
(0.0529934 0 -0.545099)
(0.0542764 0 -0.697752)
(0.0390117 0 -0.80346)
(0.0216106 0 -0.832974)
(0.0149423 0 -0.847)
(0.00885592 0 -0.907188)
(-0.026223 0 -0.962381)
(-0.0720131 0 -0.81969)
(-0.0551768 0 -0.424515)
(0.019916 0 -0.00523694)
(-0.00178364 0 -0.000543442)
(-0.00177778 0 -0.00094663)
(-0.00177843 0 -0.00139433)
(-0.00177656 0 -0.00190459)
(-0.00177428 0 -0.00244673)
(-0.00177158 0 -0.00300197)
(-0.00176795 0 -0.00356019)
(-0.00176301 0 -0.00411854)
(-0.00175634 0 -0.00468184)
(-0.00174747 0 -0.00526382)
(-0.00173587 0 -0.00588862)
(-0.0017209 0 -0.00659223)
(-0.00170186 0 -0.00742311)
(-0.00167791 0 -0.00844197)
(-0.00164808 0 -0.00972057)
(-0.00161119 0 -0.0113396)
(-0.00156583 0 -0.0133864)
(-0.00151024 0 -0.0159529)
(-0.00144235 0 -0.0191336)
(-0.0013598 0 -0.0230248)
(-0.00125998 0 -0.0277219)
(-0.00114031 0 -0.0333143)
(-0.000998514 0 -0.039874)
(-0.000832999 0 -0.0474355)
(-0.000642953 0 -0.0559667)
(-0.000427864 0 -0.0653393)
(-0.000185736 0 -0.0753193)
(9.08871e-05 0 -0.0856051)
(0.00041999 0 -0.0959337)
(0.000831608 0 -0.106229)
(0.00142465 0 -0.117595)
(0.0022989 0 -0.130245)
(0.00351413 0 -0.14383)
(0.00520166 0 -0.159179)
(0.0075642 0 -0.177165)
(0.0109052 0 -0.199064)
(0.0156731 0 -0.227327)
(0.0224614 0 -0.266876)
(0.0317974 0 -0.326599)
(0.0432097 0 -0.418707)
(0.053297 0 -0.548994)
(0.0532523 0 -0.693002)
(0.0381036 0 -0.792528)
(0.0206496 0 -0.824742)
(0.0115529 0 -0.841741)
(0.00208323 0 -0.893905)
(-0.0302911 0 -0.936649)
(-0.0713383 0 -0.809885)
(-0.0606107 0 -0.452767)
(0.00915487 0 -0.0491798)
(-0.0023377 0 -0.000547465)
(-0.00233153 0 -0.000952105)
(-0.0023325 0 -0.0014001)
(-0.00233038 0 -0.0019106)
(-0.00232766 0 -0.00245361)
(-0.00232442 0 -0.00301058)
(-0.0023201 0 -0.00357134)
(-0.00231428 0 -0.00413296)
(-0.00230651 0 -0.00470022)
(-0.00229628 0 -0.00528686)
(-0.00228299 0 -0.00591708)
(-0.00226598 0 -0.00662688)
(-0.00224448 0 -0.00746479)
(-0.00221758 0 -0.00849162)
(-0.00218423 0 -0.00977921)
(-0.00214316 0 -0.0114085)
(-0.00209284 0 -0.0134669)
(-0.00203138 0 -0.0160465)
(-0.00195657 0 -0.0192423)
(-0.00186583 0 -0.0231502)
(-0.00175635 0 -0.0278656)
(-0.00162527 0 -0.0334775)
(-0.00147 0 -0.0400571)
(-0.00128852 0 -0.047638)
(-0.0010794 0 -0.0561874)
(-0.000841233 0 -0.0655779)
(-0.000570671 0 -0.0755785)
(-0.00025881 0 -0.0858943)
(0.000114698 0 -0.0962718)
(0.000582608 0 -0.106645)
(0.0012539 0 -0.118137)
(0.00223701 0 -0.130987)
(0.00359031 0 -0.144854)
(0.00544849 0 -0.160599)
(0.00801505 0 -0.179151)
(0.011583 0 -0.201862)
(0.0165664 0 -0.231271)
(0.0234744 0 -0.272298)
(0.0326626 0 -0.333453)
(0.043387 0 -0.425585)
(0.0520903 0 -0.551968)
(0.0508086 0 -0.68777)
(0.0358444 0 -0.781552)
(0.0184018 0 -0.815559)
(0.00730146 0 -0.834597)
(-0.00475234 0 -0.880069)
(-0.0348925 0 -0.913091)
(-0.0718 0 -0.79983)
(-0.0667438 0 -0.476847)
(-0.00476059 0 -0.0896663)
(-0.00296993 0 -0.00055124)
(-0.00296338 0 -0.000957588)
(-0.00296464 0 -0.0014064)
(-0.00296227 0 -0.00191761)
(-0.00295916 0 -0.00246182)
(-0.00295544 0 -0.00302078)
(-0.00295053 0 -0.00358433)
(-0.00294399 0 -0.00414951)
(-0.00293534 0 -0.00472106)
(-0.00292404 0 -0.00531274)
(-0.00290947 0 -0.00594877)
(-0.0028909 0 -0.00666521)
(-0.00286753 0 -0.00751064)
(-0.00283838 0 -0.00854597)
(-0.00280236 0 -0.00984316)
(-0.00275809 0 -0.0114833)
(-0.00270396 0 -0.0135541)
(-0.00263797 0 -0.0161478)
(-0.00255777 0 -0.0193594)
(-0.00246064 0 -0.0232851)
(-0.00234357 0 -0.0280201)
(-0.0022035 0 -0.0336528)
(-0.00203753 0 -0.0402539)
(-0.00184329 0 -0.0478562)
(-0.00161883 0 -0.0564263)
(-0.00136199 0 -0.0658377)
(-0.00106836 0 -0.075863)
(-0.000727751 0 -0.0862139)
(-0.000318261 0 -0.0966466)
(0.000194663 0 -0.107105)
(0.000927511 0 -0.118734)
(0.00199429 0 -0.131799)
(0.00344977 0 -0.145964)
(0.00542758 0 -0.162123)
(0.00812553 0 -0.18125)
(0.011818 0 -0.204767)
(0.0168773 0 -0.235271)
(0.0237257 0 -0.277639)
(0.0325625 0 -0.339948)
(0.042434 0 -0.431715)
(0.0497311 0 -0.55405)
(0.0473239 0 -0.682188)
(0.032537 0 -0.770667)
(0.0151152 0 -0.805716)
(0.00240539 0 -0.826071)
(-0.0116324 0 -0.866018)
(-0.0401383 0 -0.891492)
(-0.0737329 0 -0.789392)
(-0.0736741 0 -0.496362)
(-0.0212046 0 -0.125592)
(-0.00367937 0 -0.000554859)
(-0.00367248 0 -0.000963103)
(-0.00367401 0 -0.00141315)
(-0.00367148 0 -0.00192549)
(-0.00366809 0 -0.00247122)
(-0.00366401 0 -0.00303242)
(-0.00365867 0 -0.00359901)
(-0.00365162 0 -0.00416802)
(-0.00364236 0 -0.00474416)
(-0.00363032 0 -0.00534122)
(-0.00361487 0 -0.00598345)
(-0.00359525 0 -0.00670697)
(-0.00357062 0 -0.00756041)
(-0.00353997 0 -0.00860477)
(-0.00350213 0 -0.00991217)
(-0.00345569 0 -0.0115638)
(-0.00339895 0 -0.0136477)
(-0.00332983 0 -0.0162562)
(-0.00324588 0 -0.0194846)
(-0.00314426 0 -0.0234292)
(-0.00302182 0 -0.0281849)
(-0.00287531 0 -0.0338398)
(-0.00270166 0 -0.040464)
(-0.00249818 0 -0.0480894)
(-0.00226253 0 -0.0566824)
(-0.00199197 0 -0.0661175)
(-0.00168138 0 -0.0761708)
(-0.00131962 0 -0.0865611)
(-0.000883627 0 -0.097054)
(-0.000338207 0 -0.107604)
(0.000437703 0 -0.119377)
(0.00156121 0 -0.132665)
(0.00308185 0 -0.147137)
(0.0051288 0 -0.163712)
(0.00788966 0 -0.183409)
(0.0116156 0 -0.207703)
(0.0166345 0 -0.239228)
(0.0232852 0 -0.282781)
(0.0316287 0 -0.345975)
(0.0405536 0 -0.437059)
(0.0464744 0 -0.5553)
(0.0430519 0 -0.676327)
(0.0284137 0 -0.759911)
(0.0110092 0 -0.795418)
(-0.00300445 0 -0.816534)
(-0.0185796 0 -0.851903)
(-0.0459569 0 -0.871402)
(-0.0770913 0 -0.778399)
(-0.0813085 0 -0.511296)
(-0.0392513 0 -0.15641)
(-0.00446485 0 -0.000558326)
(-0.00445766 0 -0.000968538)
(-0.0044595 0 -0.00142008)
(-0.0044569 0 -0.00193384)
(-0.00445337 0 -0.00248131)
(-0.0044491 0 -0.00304489)
(-0.00444354 0 -0.00361466)
(-0.00443621 0 -0.00418762)
(-0.00442664 0 -0.00476852)
(-0.00441423 0 -0.00537115)
(-0.00439834 0 -0.0060198)
(-0.0043782 0 -0.00675064)
(-0.00435295 0 -0.00761238)
(-0.00432155 0 -0.00866612)
(-0.0042828 0 -0.00998409)
(-0.00423524 0 -0.0116477)
(-0.00417713 0 -0.0137451)
(-0.00410633 0 -0.0163691)
(-0.00402033 0 -0.0196149)
(-0.0039162 0 -0.023579)
(-0.00379069 0 -0.0283562)
(-0.00364047 0 -0.0340343)
(-0.00346231 0 -0.0406826)
(-0.00325335 0 -0.0483325)
(-0.00301097 0 -0.05695)
(-0.00273209 0 -0.0664108)
(-0.00241109 0 -0.0764945)
(-0.00203637 0 -0.0869269)
(-0.00158424 0 -0.0974831)
(-0.00101951 0 -0.108128)
(-0.00021957 0 -0.120049)
(0.000933346 0 -0.133563)
(0.00248292 0 -0.148342)
(0.00455137 0 -0.165329)
(0.00731323 0 -0.185577)
(0.0109944 0 -0.210605)
(0.0158783 0 -0.243065)
(0.0222262 0 -0.287647)
(0.0299797 0 -0.351482)
(0.0379112 0 -0.441621)
(0.042514 0 -0.555778)
(0.0381794 0 -0.670199)
(0.0236568 0 -0.749241)
(0.00626495 0 -0.784751)
(-0.00880742 0 -0.806196)
(-0.0255811 0 -0.837669)
(-0.0522024 0 -0.852343)
(-0.0816437 0 -0.766694)
(-0.0893894 0 -0.521822)
(-0.0580625 0 -0.181958)
(-0.00532528 0 -0.000561629)
(-0.00531784 0 -0.000973794)
(-0.00532 0 -0.00142694)
(-0.00531742 0 -0.00194227)
(-0.00531388 0 -0.0024916)
(-0.00530961 0 -0.00305762)
(-0.00530403 0 -0.00363057)
(-0.0052967 0 -0.00420751)
(-0.00528713 0 -0.00479319)
(-0.00527474 0 -0.00540141)
(-0.00525888 0 -0.00605652)
(-0.00523878 0 -0.00679475)
(-0.00521357 0 -0.00766488)
(-0.00518221 0 -0.0087281)
(-0.00514347 0 -0.0100568)
(-0.00509588 0 -0.0117326)
(-0.00503767 0 -0.0138438)
(-0.00496669 0 -0.0164834)
(-0.00488038 0 -0.019747)
(-0.00477577 0 -0.0237309)
(-0.00464959 0 -0.02853)
(-0.00449844 0 -0.0342317)
(-0.00431908 0 -0.0409048)
(-0.00410853 0 -0.0485798)
(-0.00386409 0 -0.0572228)
(-0.00358252 0 -0.0667103)
(-0.00325799 0 -0.0768257)
(-0.0028788 0 -0.0873014)
(-0.00242122 0 -0.0979222)
(-0.0018507 0 -0.108662)
(-0.00104565 0 -0.120732)
(0.000110032 0 -0.13447)
(0.00165408 0 -0.14955)
(0.00370027 0 -0.166935)
(0.00640841 0 -0.187708)
(0.00997854 0 -0.21342)
(0.0146513 0 -0.246726)
(0.0206183 0 -0.292187)
(0.027719 0 -0.356443)
(0.0346449 0 -0.445423)
(0.0380055 0 -0.555539)
(0.0328547 0 -0.663811)
(0.0184172 0 -0.738614)
(0.00103745 0 -0.773769)
(-0.0148839 0 -0.795194)
(-0.0325927 0 -0.823269)
(-0.0586981 0 -0.833952)
(-0.0870555 0 -0.754213)
(-0.0975579 0 -0.528265)
(-0.0760932 0 -0.202719)
(-0.00625972 0 -0.000564758)
(-0.00625207 0 -0.000978796)
(-0.00625457 0 -0.00143355)
(-0.00625211 0 -0.0019505)
(-0.00624868 0 -0.0025017)
(-0.00624457 0 -0.00307013)
(-0.00623919 0 -0.0036462)
(-0.00623212 0 -0.00422703)
(-0.00622289 0 -0.00481738)
(-0.00621093 0 -0.00543111)
(-0.00619558 0 -0.0060926)
(-0.00617611 0 -0.00683813)
(-0.00615162 0 -0.00771658)
(-0.00612111 0 -0.00878922)
(-0.00608332 0 -0.0101286)
(-0.00603681 0 -0.0118165)
(-0.0059798 0 -0.0139415)
(-0.00591015 0 -0.0165967)
(-0.0058253 0 -0.019878)
(-0.00572229 0 -0.0238819)
(-0.00559785 0 -0.0287029)
(-0.00544863 0 -0.0344283)
(-0.00527139 0 -0.0411262)
(-0.00506322 0 -0.0488265)
(-0.00482145 0 -0.057495)
(-0.00454289 0 -0.0670095)
(-0.00422181 0 -0.0771567)
(-0.00384667 0 -0.0876758)
(-0.0033943 0 -0.0983605)
(-0.00283136 0 -0.109195)
(-0.00203962 0 -0.12141)
(-0.000906522 0 -0.135366)
(0.000600057 0 -0.150737)
(0.00258462 0 -0.1685)
(0.00519151 0 -0.189766)
(0.0085954 0 -0.216106)
(0.0129972 0 -0.250166)
(0.0185268 0 -0.296363)
(0.0249383 0 -0.360842)
(0.0308698 0 -0.448491)
(0.033073 0 -0.554638)
(0.0271939 0 -0.657182)
(0.0128188 0 -0.728009)
(-0.00454021 0 -0.762535)
(-0.0211285 0 -0.783661)
(-0.0395558 0 -0.808716)
(-0.0652672 0 -0.816007)
(-0.092966 0 -0.741001)
(-0.105696 0 -0.531059)
(-0.0929164 0 -0.219191)
(-0.00726731 0 -0.000567693)
(-0.00725951 0 -0.000983475)
(-0.00726237 0 -0.00143977)
(-0.00726009 0 -0.00195826)
(-0.0072569 0 -0.00251124)
(-0.00725311 0 -0.00308196)
(-0.00724815 0 -0.00366097)
(-0.00724163 0 -0.00424549)
(-0.00723307 0 -0.00484033)
(-0.00722194 0 -0.00545935)
(-0.00720761 0 -0.00612701)
(-0.00718935 0 -0.00687964)
(-0.0071663 0 -0.00776618)
(-0.00713745 0 -0.00884803)
(-0.00710158 0 -0.0101979)
(-0.00705727 0 -0.0118976)
(-0.00700277 0 -0.0140362)
(-0.00693597 0 -0.0167069)
(-0.00685436 0 -0.0200056)
(-0.00675501 0 -0.0240291)
(-0.00663472 0 -0.0288718)
(-0.00649025 0 -0.0346206)
(-0.00631845 0 -0.0413429)
(-0.00611657 0 -0.0490681)
(-0.00588213 0 -0.0577616)
(-0.00561225 0 -0.0673024)
(-0.00530146 0 -0.0774805)
(-0.00493876 0 -0.0880416)
(-0.00450196 0 -0.0987881)
(-0.00395945 0 -0.109713)
(-0.00319849 0 -0.122068)
(-0.00211156 0 -0.136233)
(-0.000671409 0 -0.151878)
(0.00121689 0 -0.169997)
(0.0036821 0 -0.191718)
(0.00687475 0 -0.218629)
(0.0109595 0 -0.253353)
(0.0160126 0 -0.300149)
(0.0217174 0 -0.364677)
(0.026681 0 -0.45086)
(0.0278137 0 -0.553136)
(0.0212883 0 -0.650337)
(0.00695708 0 -0.717427)
(-0.0103654 0 -0.751118)
(-0.0274539 0 -0.771729)
(-0.0464098 0 -0.794058)
(-0.071758 0 -0.798386)
(-0.0990265 0 -0.727155)
(-0.113587 0 -0.530659)
(-0.108129 0 -0.231343)
(-0.00834722 0 -0.000570408)
(-0.0083393 0 -0.000987755)
(-0.00834253 0 -0.00144542)
(-0.00834051 0 -0.00196528)
(-0.00833768 0 -0.00251985)
(-0.00833437 0 -0.00309261)
(-0.00833005 0 -0.00367428)
(-0.00832433 0 -0.00426219)
(-0.00831679 0 -0.00486118)
(-0.00830692 0 -0.00548516)
(-0.00829411 0 -0.00615864)
(-0.00827766 0 -0.006918)
(-0.00825675 0 -0.00781228)
(-0.00823039 0 -0.00890297)
(-0.00819741 0 -0.0102629)
(-0.00815641 0 -0.0119741)
(-0.00810572 0 -0.0141258)
(-0.00804327 0 -0.0168115)
(-0.00796663 0 -0.0201272)
(-0.00787296 0 -0.0241698)
(-0.0077592 0 -0.0290336)
(-0.00762222 0 -0.034805)
(-0.0074591 0 -0.041551)
(-0.0072673 0 -0.0493)
(-0.00704474 0 -0.0580175)
(-0.00678897 0 -0.0675831)
(-0.00649506 0 -0.0777903)
(-0.00615283 0 -0.0883908)
(-0.00574148 0 -0.0991956)
(-0.0052315 0 -0.110206)
(-0.00451749 0 -0.122694)
(-0.00349818 0 -0.137055)
(-0.00215021 0 -0.152956)
(-0.000388069 0 -0.171404)
(0.00190185 0 -0.193539)
(0.00484737 0 -0.220961)
(0.00858062 0 -0.256261)
(0.0131313 0 -0.303532)
(0.018125 0 -0.367956)
(0.022156 0 -0.45257)
(0.0223017 0 -0.551087)
(0.0152037 0 -0.643305)
(0.000904814 0 -0.70688)
(-0.0163613 0 -0.739578)
(-0.0338005 0 -0.759519)
(-0.0531053 0 -0.779365)
(-0.078047 0 -0.781047)
(-0.104919 0 -0.712803)
(-0.120853 0 -0.527583)
(-0.121196 0 -0.239453)
(-0.00949852 0 -0.00057287)
(-0.00949055 0 -0.000991554)
(-0.00949417 0 -0.00145035)
(-0.00949247 0 -0.00197131)
(-0.00949011 0 -0.00252716)
(-0.00948745 0 -0.00310159)
(-0.00948397 0 -0.00368553)
(-0.00947933 0 -0.00427638)
(-0.00947314 0 -0.00487907)
(-0.00946493 0 -0.00550754)
(-0.00945413 0 -0.00618635)
(-0.00944009 0 -0.00695196)
(-0.00942201 0 -0.00785346)
(-0.00939895 0 -0.00895247)
(-0.00936979 0 -0.0103219)
(-0.0093332 0 -0.0120441)
(-0.00928757 0 -0.0142083)
(-0.00923094 0 -0.0169082)
(-0.00916095 0 -0.0202403)
(-0.00907493 0 -0.0243011)
(-0.00896997 0 -0.029185)
(-0.00884314 0 -0.034978)
(-0.00869177 0 -0.0417464)
(-0.0085137 0 -0.0495179)
(-0.00830734 0 -0.0582575)
(-0.00807087 0 -0.0678457)
(-0.00780007 0 -0.0780793)
(-0.00748584 0 -0.0887157)
(-0.00710914 0 -0.0995738)
(-0.00664284 0 -0.110663)
(-0.00599048 0 -0.123273)
(-0.00505794 0 -0.137815)
(-0.00382458 0 -0.153953)
(-0.00221395 0 -0.1727)
(-0.000126834 0 -0.195209)
(0.00254358 0 -0.223084)
(0.00590016 0 -0.258876)
(0.00993233 0 -0.306505)
(0.0142193 0 -0.370693)
(0.0173573 0 -0.453662)
(0.0165936 0 -0.548542)
(0.00898562 0 -0.6361)
(-0.00528692 0 -0.696376)
(-0.0224788 0 -0.727968)
(-0.0401417 0 -0.747138)
(-0.0596242 0 -0.76472)
(-0.0840633 0 -0.764022)
(-0.110431 0 -0.698143)
(-0.127231 0 -0.522467)
(-0.131856 0 -0.244397)
(-0.0107203 0 -0.000575035)
(-0.0107123 0 -0.000994778)
(-0.0107163 0 -0.00145439)
(-0.010715 0 -0.00197609)
(-0.0107133 0 -0.00253281)
(-0.0107114 0 -0.00310846)
(-0.0107089 0 -0.00369415)
(-0.0107056 0 -0.0042874)
(-0.0107011 0 -0.0048932)
(-0.010695 0 -0.00552556)
(-0.0106867 0 -0.00620908)
(-0.0106756 0 -0.00698029)
(-0.010661 0 -0.00788836)
(-0.010642 0 -0.008995)
(-0.0106176 0 -0.0103733)
(-0.0105864 0 -0.0121056)
(-0.0105471 0 -0.0142815)
(-0.0104976 0 -0.0169949)
(-0.0104359 0 -0.0203423)
(-0.0103594 0 -0.0244203)
(-0.0102654 0 -0.0293231)
(-0.0101513 0 -0.0351363)
(-0.0100146 0 -0.0419254)
(-0.00985369 0 -0.0497174)
(-0.00966761 0 -0.0584768)
(-0.00945526 0 -0.0680849)
(-0.00921336 0 -0.0783413)
(-0.0089341 0 -0.089009)
(-0.00860046 0 -0.0999145)
(-0.00818789 0 -0.111075)
(-0.00761027 0 -0.123796)
(-0.00678131 0 -0.138502)
(-0.00568177 0 -0.154853)
(-0.00424377 0 -0.173869)
(-0.00238167 0 -0.196712)
(-7.66588e-06 0 -0.224982)
(0.00295468 0 -0.261186)
(0.00645978 0 -0.309069)
(0.0100504 0 -0.372904)
(0.0123363 0 -0.454171)
(0.0107354 0 -0.545543)
(0.00266367 0 -0.628739)
(-0.0115932 0 -0.685908)
(-0.0286985 0 -0.716332)
(-0.0464872 0 -0.734679)
(-0.0660011 0 -0.750214)
(-0.089827 0 -0.747397)
(-0.115522 0 -0.683425)
(-0.132711 0 -0.515954)
(-0.1402 0 -0.247223)
(-0.0120114 0 -0.000576838)
(-0.0120034 0 -0.000997313)
(-0.012008 0 -0.00145736)
(-0.0120071 0 -0.00197936)
(-0.012006 0 -0.00253644)
(-0.0120051 0 -0.00311276)
(-0.0120039 0 -0.00369959)
(-0.0120022 0 -0.00429458)
(-0.0119997 0 -0.00490281)
(-0.0119959 0 -0.00553833)
(-0.0119906 0 -0.00622581)
(-0.011983 0 -0.00700185)
(-0.0119725 0 -0.00791569)
(-0.0119583 0 -0.00902914)
(-0.0119394 0 -0.0104154)
(-0.0119147 0 -0.012157)
(-0.0118828 0 -0.0143437)
(-0.0118419 0 -0.0170694)
(-0.01179 0 -0.0204309)
(-0.0117248 0 -0.0245247)
(-0.0116438 0 -0.0294449)
(-0.0115446 0 -0.0352766)
(-0.0114254 0 -0.0420844)
(-0.0112848 0 -0.0498945)
(-0.0111228 0 -0.0586709)
(-0.010939 0 -0.0682955)
(-0.0107313 0 -0.0785705)
(-0.0104933 0 -0.0892641)
(-0.0102103 0 -0.10021)
(-0.00986038 0 -0.111432)
(-0.0093689 0 -0.124252)
(-0.00865796 0 -0.139104)
(-0.0077084 0 -0.155645)
(-0.00646033 0 -0.174899)
(-0.00484077 0 -0.198034)
(-0.00277905 0 -0.226644)
(-0.000222382 0 -0.263186)
(0.00275299 0 -0.311226)
(0.00566157 0 -0.374607)
(0.00713536 0 -0.454133)
(0.00475899 0 -0.542124)
(-0.00374174 0 -0.621233)
(-0.0180051 0 -0.675467)
(-0.0350349 0 -0.704695)
(-0.0528884 0 -0.722211)
(-0.0723346 0 -0.735925)
(-0.0954683 0 -0.731265)
(-0.120331 0 -0.668889)
(-0.137537 0 -0.508595)
(-0.146704 0 -0.248848)
(-0.0133706 0 -0.000578193)
(-0.0133627 0 -0.000999013)
(-0.0133677 0 -0.00145905)
(-0.0133675 0 -0.00198082)
(-0.0133672 0 -0.0025377)
(-0.0133674 0 -0.00311403)
(-0.0133677 0 -0.0037013)
(-0.0133678 0 -0.00429728)
(-0.0133675 0 -0.00490714)
(-0.0133666 0 -0.00554499)
(-0.0133645 0 -0.00623558)
(-0.0133609 0 -0.00701555)
(-0.0133552 0 -0.00793424)
(-0.0133465 0 -0.00905354)
(-0.013334 0 -0.0104467)
(-0.0133166 0 -0.0121966)
(-0.0132932 0 -0.0143928)
(-0.013262 0 -0.0171297)
(-0.0132213 0 -0.0205039)
(-0.013169 0 -0.0246121)
(-0.013103 0 -0.0295479)
(-0.013021 0 -0.035396)
(-0.0129216 0 -0.0422202)
(-0.0128044 0 -0.0500458)
(-0.0126698 0 -0.0588359)
(-0.0125186 0 -0.068473)
(-0.0123498 0 -0.0787616)
(-0.0121587 0 -0.0894751)
(-0.0119329 0 -0.100454)
(-0.0116534 0 -0.111729)
(-0.0112578 0 -0.124633)
(-0.010677 0 -0.139613)
(-0.00989062 0 -0.156319)
(-0.00884636 0 -0.17578)
(-0.00748279 0 -0.199165)
(-0.00574462 0 -0.228063)
(-0.00360023 0 -0.264872)
(-0.00115259 0 -0.312982)
(0.001091 0 -0.375821)
(0.0017908 0 -0.453582)
(-0.00131201 0 -0.538315)
(-0.0102234 0 -0.613581)
(-0.024531 0 -0.665036)
(-0.0415251 0 -0.693062)
(-0.0594315 0 -0.709767)
(-0.0787799 0 -0.721894)
(-0.10122 0 -0.715679)
(-0.125178 0 -0.654703)
(-0.14222 0 -0.500789)
(-0.152317 0 -0.249923)
(-0.0147962 0 -0.000578992)
(-0.0147885 0 -0.000999707)
(-0.0147941 0 -0.00145922)
(-0.0147945 0 -0.00198018)
(-0.0147952 0 -0.00253618)
(-0.0147967 0 -0.00311181)
(-0.0147985 0 -0.00369874)
(-0.0148007 0 -0.00429487)
(-0.0148031 0 -0.00490546)
(-0.0148053 0 -0.00554472)
(-0.014807 0 -0.00623744)
(-0.0148079 0 -0.00702035)
(-0.0148074 0 -0.00794284)
(-0.0148049 0 -0.00906691)
(-0.0147995 0 -0.0104659)
(-0.0147904 0 -0.0122228)
(-0.0147764 0 -0.0144274)
(-0.0147562 0 -0.017174)
(-0.014728 0 -0.0205593)
(-0.0146901 0 -0.0246801)
(-0.0146406 0 -0.0296296)
(-0.0145778 0 -0.0354919)
(-0.0145006 0 -0.0423299)
(-0.0144092 0 -0.0501679)
(-0.014305 0 -0.0589682)
(-0.0141898 0 -0.0686134)
(-0.014064 0 -0.0789103)
(-0.0139247 0 -0.0896369)
(-0.0137619 0 -0.10064)
(-0.0135593 0 -0.111957)
(-0.0132678 0 -0.124932)
(-0.0128269 0 -0.140019)
(-0.0122142 0 -0.156867)
(-0.0113845 0 -0.176503)
(-0.0102868 0 -0.2001)
(-0.00887961 0 -0.229233)
(-0.00715028 0 -0.266246)
(-0.00522499 0 -0.314346)
(-0.00362805 0 -0.376567)
(-0.00366835 0 -0.452545)
(-0.00746092 0 -0.534135)
(-0.0167836 0 -0.605769)
(-0.0311914 0 -0.654584)
(-0.0482184 0 -0.681409)
(-0.0662223 0 -0.697336)
(-0.0855281 0 -0.708105)
(-0.10739 0 -0.700616)
(-0.130534 0 -0.640908)
(-0.147533 0 -0.492692)
(-0.158479 0 -0.250639)
(-0.0162863 0 -0.000579115)
(-0.0162789 0 -0.000999204)
(-0.0162851 0 -0.00145761)
(-0.0162863 0 -0.00197709)
(-0.0162881 0 -0.00253149)
(-0.016291 0 -0.00310562)
(-0.0162947 0 -0.00369133)
(-0.0162993 0 -0.00428669)
(-0.0163045 0 -0.00489705)
(-0.0163102 0 -0.00553669)
(-0.0163161 0 -0.00623049)
(-0.016322 0 -0.00701523)
(-0.0163273 0 -0.0079404)
(-0.0163315 0 -0.00906804)
(-0.016334 0 -0.0104717)
(-0.016334 0 -0.0122342)
(-0.0163304 0 -0.0144457)
(-0.0163221 0 -0.0172005)
(-0.0163076 0 -0.0205954)
(-0.0162855 0 -0.0247268)
(-0.0162541 0 -0.0296879)
(-0.0162122 0 -0.0355619)
(-0.016159 0 -0.0424109)
(-0.0160957 0 -0.0502579)
(-0.0160244 0 -0.0590645)
(-0.0159481 0 -0.0687132)
(-0.0158687 0 -0.0790127)
(-0.0157853 0 -0.0897454)
(-0.0156903 0 -0.100764)
(-0.01557 0 -0.112112)
(-0.0153893 0 -0.125144)
(-0.0150961 0 -0.140319)
(-0.0146649 0 -0.157282)
(-0.0140575 0 -0.177063)
(-0.0132325 0 -0.200833)
(-0.0121604 0 -0.230153)
(-0.0108458 0 -0.267306)
(-0.0094353 0 -0.315325)
(-0.00846697 0 -0.37686)
(-0.00921901 0 -0.451043)
(-0.0136774 0 -0.529591)
(-0.0234285 0 -0.597772)
(-0.0380077 0 -0.644063)
(-0.0551624 0 -0.669685)
(-0.0733632 0 -0.68486)
(-0.0927726 0 -0.694466)
(-0.114309 0 -0.685948)
(-0.136956 0 -0.627361)
(-0.154457 0 -0.484095)
(-0.16703 0 -0.250506)
(-0.0178389 0 -0.000578429)
(-0.0178318 0 -0.000997289)
(-0.0178387 0 -0.00145395)
(-0.0178408 0 -0.0019712)
(-0.0178438 0 -0.00252319)
(-0.0178483 0 -0.00309495)
(-0.0178542 0 -0.00367851)
(-0.0178613 0 -0.00427209)
(-0.0178697 0 -0.00488116)
(-0.0178793 0 -0.00552009)
(-0.0178898 0 -0.00621383)
(-0.0179011 0 -0.00699922)
(-0.0179128 0 -0.00792584)
(-0.0179244 0 -0.00905579)
(-0.0179354 0 -0.0104627)
(-0.0179451 0 -0.0122295)
(-0.0179527 0 -0.0144464)
(-0.0179573 0 -0.0172079)
(-0.0179576 0 -0.0206104)
(-0.0179524 0 -0.0247505)
(-0.0179405 0 -0.0297209)
(-0.0179208 0 -0.035604)
(-0.0178934 0 -0.042461)
(-0.01786 0 -0.0503136)
(-0.0178237 0 -0.0591223)
(-0.0177886 0 -0.0687695)
(-0.0177585 0 -0.0790656)
(-0.0177342 0 -0.0897969)
(-0.0177109 0 -0.100822)
(-0.0176774 0 -0.112189)
(-0.0176126 0 -0.125262)
(-0.0174729 0 -0.140506)
(-0.0172287 0 -0.157561)
(-0.0168486 0 -0.177457)
(-0.0163 0 -0.201361)
(-0.0155645 0 -0.230821)
(-0.0146621 0 -0.268058)
(-0.0137573 0 -0.315925)
(-0.0134008 0 -0.376713)
(-0.0148423 0 -0.449088)
(-0.0199537 0 -0.524682)
(-0.0301609 0 -0.589558)
(-0.0449912 0 -0.633411)
(-0.0623856 0 -0.657815)
(-0.0809265 0 -0.672233)
(-0.100666 0 -0.680809)
(-0.122265 0 -0.671417)
(-0.144994 0 -0.613671)
(-0.164043 0 -0.474321)
(-0.179973 0 -0.248255)
(-0.0194518 0 -0.000576797)
(-0.0194451 0 -0.000993749)
(-0.0194529 0 -0.00144794)
(-0.0194559 0 -0.00196215)
(-0.0194603 0 -0.00251085)
(-0.0194666 0 -0.0030793)
(-0.0194747 0 -0.0036597)
(-0.0194847 0 -0.00425042)
(-0.0194966 0 -0.00485707)
(-0.0195103 0 -0.00549412)
(-0.0195259 0 -0.00618658)
(-0.0195431 0 -0.00697139)
(-0.0195616 0 -0.00789815)
(-0.0195811 0 -0.00902908)
(-0.0196012 0 -0.0104378)
(-0.0196214 0 -0.0122075)
(-0.019641 0 -0.0144283)
(-0.0196592 0 -0.0171946)
(-0.0196752 0 -0.020603)
(-0.0196879 0 -0.0247498)
(-0.0196965 0 -0.029727)