/*--------------------------------*- C++ -*----------------------------------*\
  =========                 |
  \\      /  F ield         | OpenFOAM: The Open Source CFD Toolbox
   \\    /   O peration     | Website:  https://openfoam.org
    \\  /    A nd           | Version:  9
     \\/     M anipulation  |
\*---------------------------------------------------------------------------*/
FoamFile
{
    format      ascii;
    class       surfaceVectorField;
    location    "0.17";
    object      Uf;
}
// * * * * * * * * * * * * * * * * * * * * * * * * * * * * * * * * * * * * * //

dimensions      [0 1 -1 0 0 0 0];

internalField   nonuniform List<vector> 
9850
(
(-2.56773e-05 0 -0.000677258)
(-9.05461e-05 0 -0.000483961)
(-2.45717e-05 0 -0.0011149)
(-8.62054e-05 0 -0.000891555)
(-2.42706e-05 0 -0.00160924)
(-8.48977e-05 0 -0.00135887)
(-2.42924e-05 0 -0.00214204)
(-8.44398e-05 0 -0.00188042)
(-2.44051e-05 0 -0.00269079)
(-8.42584e-05 0 -0.00242642)
(-2.45167e-05 0 -0.00324316)
(-8.42115e-05 0 -0.00298064)
(-2.45822e-05 0 -0.00379365)
(-8.41837e-05 0 -0.0035343)
(-2.45662e-05 0 -0.00434348)
(-8.40824e-05 0 -0.00408509)
(-2.44313e-05 0 -0.00490186)
(-8.38161e-05 0 -0.00463795)
(-2.41326e-05 0 -0.00548747)
(-8.32848e-05 0 -0.00520649)
(-2.36158e-05 0 -0.00613009)
(-8.23712e-05 0 -0.00581474)
(-2.2817e-05 0 -0.00687164)
(-8.09395e-05 0 -0.00649849)
(-2.16621e-05 0 -0.00776638)
(-7.88357e-05 0 -0.00730606)
(-2.00624e-05 0 -0.00888015)
(-7.58849e-05 0 -0.00829796)
(-1.79081e-05 0 -0.0102886)
(-7.18838e-05 0 -0.00954558)
(-1.5057e-05 0 -0.0120751)
(-6.65867e-05 0 -0.0111291)
(-1.13228e-05 0 -0.0143285)
(-5.96867e-05 0 -0.0131352)
(-6.46402e-06 0 -0.0171413)
(-5.0796e-05 0 -0.0156551)
(-1.85581e-07 0 -0.0206086)
(-3.94288e-05 0 -0.0187828)
(7.86535e-06 0 -0.0248267)
(-2.50201e-05 0 -0.0226146)
(1.80422e-05 0 -0.0298898)
(-6.92645e-06 0 -0.0272467)
(3.0664e-05 0 -0.0358824)
(1.54445e-05 0 -0.0327711)
(4.58145e-05 0 -0.0428635)
(4.2467e-05 0 -0.0392643)
(6.31882e-05 0 -0.0508412)
(7.40504e-05 0 -0.0467666)
(8.1904e-05 0 -0.0597401)
(0.000109331 0 -0.0552514)
(0.000100546 0 -0.069376)
(0.000146619 0 -0.0645916)
(0.000117679 0 -0.0794641)
(0.000183824 0 -0.0745431)
(0.000132903 0 -0.0896884)
(0.000219764 0 -0.084779)
(0.000147994 0 -0.0998372)
(0.000256062 0 -0.0949971)
(0.00016708 0 -0.109941)
(0.000298576 0 -0.105083)
(0.000198905 0 -0.122004)
(0.000361169 0 -0.116083)
(0.000248068 0 -0.134356)
(0.000458631 0 -0.128119)
(0.000321776 0 -0.147704)
(0.000604021 0 -0.140806)
(0.000431255 0 -0.162691)
(0.000818992 0 -0.154835)
(0.000600774 0 -0.180007)
(0.00114289 0 -0.170808)
(0.000887639 0 -0.200882)
(0.00165643 0 -0.189523)
(0.0014255 0 -0.228157)
(0.00252851 0 -0.212692)
(0.00251232 0 -0.268311)
(0.00410083 0 -0.2444)
(0.00473061 0 -0.334561)
(0.00700325 0 -0.293763)
(0.00877438 0 -0.447418)
(0.0121071 0 -0.37836)
(0.0135284 0 -0.615405)
(0.0192412 0 -0.520913)
(0.0124859 0 -0.783271)
(0.0227428 0 -0.71227)
(0.00423295 0 -0.854914)
(0.0148292 0 -0.850788)
(0.00291316 0 -0.846448)
(0.00567059 0 -0.855893)
(0.0104707 0 -0.895071)
(0.009677 0 -0.841989)
(0.00843305 0 -1.0359)
(0.0178883 0 -0.953114)
(-0.0230883 0 -0.991029)
(-0.00892677 0 -1.1042)
(-0.0285955 0 -0.564501)
(-0.0444165 0 -0.86055)
(-0.00405092 0 -0.0370585)
(-0.0237779 0 -0.27734)
(0.0122655 0 0.183384)
(-0.000150298 0 -0.000689197)
(-0.000249427 0 -0.000498081)
(-0.000146769 0 -0.00112543)
(-0.00024154 0 -0.00090253)
(-0.000145107 0 -0.00161898)
(-0.000239249 0 -0.0013638)
(-0.000144386 0 -0.00215351)
(-0.000237978 0 -0.00188245)
(-0.000144075 0 -0.00270527)
(-0.000237121 0 -0.00242725)
(-0.000143916 0 -0.0032614)
(-0.000236557 0 -0.00298104)
(-0.000143747 0 -0.00381615)
(-0.000236091 0 -0.00353472)
(-0.000143422 0 -0.00437071)
(-0.000235532 0 -0.00408586)
(-0.000142792 0 -0.00493425)
(-0.000234692 0 -0.00463937)
(-0.000141683 0 -0.00552543)
(-0.000233362 0 -0.00520887)
(-0.000139898 0 -0.00617403)
(-0.000231293 0 -0.00581837)
(-0.00013721 0 -0.00692191)
(-0.0002282 0 -0.00650369)
(-0.000133364 0 -0.00782334)
(-0.000223757 0 -0.00731313)
(-0.000128073 0 -0.0089441)
(-0.000217599 0 -0.00830722)
(-0.000121004 0 -0.0103599)
(-0.000209309 0 -0.00955738)
(-0.000111753 0 -0.0121541)
(-0.000198395 0 -0.0111438)
(-9.98174e-05 0 -0.0144156)
(-0.000184264 0 -0.0131534)
(-8.45711e-05 0 -0.017237)
(-0.000166185 0 -0.0156772)
(-6.52496e-05 0 -0.0207134)
(-0.000143273 0 -0.0188095)
(-4.09792e-05 0 -0.0249413)
(-0.000114504 0 -0.0226465)
(-1.08678e-05 0 -0.0300146)
(-7.8743e-05 0 -0.0272845)
(2.57845e-05 0 -0.0360178)
(-3.49544e-05 0 -0.032815)
(6.92021e-05 0 -0.0430094)
(1.75858e-05 0 -0.0393138)
(0.00011887 0 -0.050997)
(7.88753e-05 0 -0.0468206)
(0.00017308 0 -0.0599048)
(0.00014773 0 -0.0553076)
(0.000229251 0 -0.0695486)
(0.000221814 0 -0.0646471)
(0.000285134 0 -0.0796442)
(0.000298406 0 -0.0745958)
(0.000341079 0 -0.0898777)
(0.000376528 0 -0.0848293)
(0.000402463 0 -0.100039)
(0.000460055 0 -0.0950497)
(0.000480227 0 -0.110158)
(0.000560222 0 -0.105146)
(0.000607702 0 -0.122242)
(0.000706935 0 -0.116168)
(0.000795983 0 -0.134617)
(0.000931703 0 -0.128244)
(0.00107362 0 -0.147991)
(0.00126153 0 -0.140992)
(0.00148678 0 -0.163014)
(0.00174542 0 -0.155111)
(0.00212419 0 -0.180396)
(0.00246876 0 -0.171233)
(0.0031673 0 -0.201416)
(0.00359242 0 -0.190218)
(0.00498164 0 -0.229019)
(0.00542311 0 -0.213901)
(0.00825061 0 -0.269875)
(0.00851878 0 -0.24658)
(0.013986 0 -0.337348)
(0.0137703 0 -0.297587)
(0.0225972 0 -0.451265)
(0.0221367 0 -0.384101)
(0.0304561 0 -0.617601)
(0.0327546 0 -0.526152)
(0.0275729 0 -0.781182)
(0.0372313 0 -0.710348)
(0.0140587 0 -0.853291)
(0.0255255 0 -0.841778)
(0.0103219 0 -0.850939)
(0.0119979 0 -0.853402)
(0.0180669 0 -0.899278)
(0.0150247 0 -0.847152)
(0.00873211 0 -1.0256)
(0.0229708 0 -0.94689)
(-0.0387666 0 -0.978526)
(-0.013639 0 -1.07253)
(-0.0499313 0 -0.571763)
(-0.0627399 0 -0.853107)
(-0.00722829 0 -0.0541862)
(-0.0349938 0 -0.305808)
(0.0224997 0 0.152598)
(-0.000339453 0 -0.000704054)
(-0.000469327 0 -0.000514633)
(-0.00033495 0 -0.00113459)
(-0.000460825 0 -0.000916534)
(-0.000332277 0 -0.00162221)
(-0.000458681 0 -0.00137172)
(-0.000330686 0 -0.00215339)
(-0.000456914 0 -0.00188693)
(-0.000329627 0 -0.00270317)
(-0.000455468 0 -0.00243009)
(-0.000328798 0 -0.00325797)
(-0.000454323 0 -0.00298317)
(-0.000327976 0 -0.00381185)
(-0.000453204 0 -0.00353673)
(-0.000326943 0 -0.00436593)
(-0.000451858 0 -0.00408829)
(-0.000325454 0 -0.00492938)
(-0.000450034 0 -0.00464271)
(-0.000323225 0 -0.00552089)
(-0.000447441 0 -0.00521363)
(-0.000319918 0 -0.00617024)
(-0.000443731 0 -0.00582509)
(-0.000315148 0 -0.00691933)
(-0.000438495 0 -0.0065129)
(-0.000308477 0 -0.00782245)
(-0.000431266 0 -0.00732539)
(-0.000299411 0 -0.00894541)
(-0.000421514 0 -0.0083231)
(-0.000287383 0 -0.010364)
(-0.000408629 0 -0.00957746)
(-0.00027172 0 -0.0121615)
(-0.000391899 0 -0.0111688)
(-0.000251615 0 -0.0144271)
(-0.000370471 0 -0.0131839)
(-0.000226089 0 -0.0172534)
(-0.000343309 0 -0.0157142)
(-0.000193987 0 -0.0207356)
(-0.000309181 0 -0.0188539)
(-0.000154017 0 -0.0249699)
(-0.000266669 0 -0.0226992)
(-0.000104881 0 -0.0300502)
(-0.000214233 0 -0.0273462)
(-4.54597e-05 0 -0.0360601)
(-0.000150447 0 -0.0328861)
(2.47324e-05 0 -0.0430575)
(-7.42511e-05 0 -0.0393938)
(0.00010511 0 -0.0510486)
(1.4585e-05 0 -0.046908)
(0.000193915 0 -0.0599565)
(0.000114991 0 -0.0553996)
(0.000288425 0 -0.0695971)
(0.000224683 0 -0.0647405)
(0.000386751 0 -0.0796886)
(0.000341238 0 -0.0746884)
(0.000490882 0 -0.089921)
(0.000464841 0 -0.0849228)
(0.000610049 0 -0.10009)
(0.000602164 0 -0.0951517)
(0.000761865 0 -0.110229)
(0.000769455 0 -0.10527)
(0.00100991 0 -0.122357)
(0.00101365 0 -0.116334)
(0.00136777 0 -0.1348)
(0.00138371 0 -0.128483)
(0.00188954 0 -0.148279)
(0.00191927 0 -0.141339)
(0.00266018 0 -0.163469)
(0.00269632 0 -0.155624)
(0.00383093 0 -0.181139)
(0.00384257 0 -0.172014)
(0.00568216 0 -0.202678)
(0.0055828 0 -0.191452)
(0.00871742 0 -0.231226)
(0.00831449 0 -0.215925)
(0.0137526 0 -0.273683)
(0.0127028 0 -0.249936)
(0.0217547 0 -0.343254)
(0.0196919 0 -0.302921)
(0.0325553 0 -0.457869)
(0.0300276 0 -0.391301)
(0.0412587 0 -0.619354)
(0.0421069 0 -0.531954)
(0.0371866 0 -0.774131)
(0.0462908 0 -0.707633)
(0.0216574 0 -0.845608)
(0.0325998 0 -0.831426)
(0.0154168 0 -0.851428)
(0.0168794 0 -0.849242)
(0.0199014 0 -0.897459)
(0.0173239 0 -0.850142)
(0.00623777 0 -1.0021)
(0.0219755 0 -0.937781)
(-0.0438615 0 -0.954494)
(-0.0170422 0 -1.03913)
(-0.0570924 0 -0.584194)
(-0.0696885 0 -0.844287)
(-0.00646553 0 -0.0903537)
(-0.0414123 0 -0.339559)
(0.028189 0 0.111292)
(-0.000589909 0 -0.000718071)
(-0.000753343 0 -0.000527517)
(-0.000586059 0 -0.001144)
(-0.000746113 0 -0.000928503)
(-0.000583452 0 -0.00162618)
(-0.000744904 0 -0.00137943)
(-0.000581659 0 -0.00215369)
(-0.000743134 0 -0.00189198)
(-0.000580222 0 -0.002701)
(-0.000741476 0 -0.00243394)
(-0.000578826 0 -0.00325402)
(-0.000739935 0 -0.00298674)
(-0.000577213 0 -0.00380662)
(-0.000738146 0 -0.00354069)
(-0.00057512 0 -0.00435987)
(-0.000735816 0 -0.0040932)
(-0.00057225 0 -0.00492293)
(-0.000732653 0 -0.00464914)
(-0.000568246 0 -0.00551452)
(-0.000728312 0 -0.00522218)
(-0.000562686 0 -0.00616446)
(-0.00072238 0 -0.00583638)
(-0.000555079 0 -0.00691467)
(-0.00071437 0 -0.00652759)
(-0.000544862 0 -0.00781945)
(-0.000703726 0 -0.00734418)
(-0.000531392 0 -0.00894469)
(-0.000689805 0 -0.0083467)
(-0.000513922 0 -0.0103662)
(-0.000671864 0 -0.00960665)
(-0.000491568 0 -0.0121674)
(-0.000649022 0 -0.0112044)
(-0.000463267 0 -0.0144376)
(-0.000620218 0 -0.013227)
(-0.000427748 0 -0.0172694)
(-0.000584168 0 -0.0157657)
(-0.00038352 0 -0.0207581)
(-0.000539342 0 -0.018915)
(-0.000328933 0 -0.0249998)
(-0.000483995 0 -0.0227711)
(-0.000262306 0 -0.030088)
(-0.000416235 0 -0.0274298)
(-0.000182181 0 -0.0361058)
(-0.000334271 0 -0.0329819)
(-8.77389e-05 0 -0.0431097)
(-0.000236703 0 -0.0395015)
(2.07993e-05 0 -0.0511049)
(-0.000122996 0 -0.0470259)
(0.000141851 0 -0.0600135)
(6.16717e-06 0 -0.0555251)
(0.000273309 0 -0.0696518)
(0.000149059 0 -0.0648704)
(0.000414413 0 -0.0797408)
(0.000304233 0 -0.0748213)
(0.000569431 0 -0.0899765)
(0.000473732 0 -0.085062)
(0.000751746 0 -0.100162)
(0.000667504 0 -0.0953077)
(0.000985493 0 -0.110336)
(0.000906428 0 -0.105461)
(0.00136519 0 -0.122536)
(0.00125404 0 -0.116587)
(0.00190521 0 -0.135094)
(0.00177614 0 -0.128843)
(0.00268268 0 -0.148748)
(0.00252219 0 -0.141858)
(0.00381562 0 -0.164212)
(0.0035908 0 -0.15638)
(0.00550231 0 -0.182332)
(0.00514301 0 -0.173138)
(0.00808507 0 -0.20463)
(0.00744727 0 -0.193174)
(0.0121312 0 -0.234441)
(0.0109509 0 -0.218622)
(0.0184733 0 -0.278804)
(0.0163544 0 -0.254165)
(0.0279285 0 -0.350459)
(0.0245528 0 -0.309225)
(0.0398092 0 -0.465006)
(0.0359714 0 -0.399222)
(0.0483924 0 -0.620458)
(0.048318 0 -0.537676)
(0.0431743 0 -0.765927)
(0.0515439 0 -0.704155)
(0.0265459 0 -0.836301)
(0.0367693 0 -0.82034)
(0.0181221 0 -0.848999)
(0.0199476 0 -0.843626)
(0.0190415 0 -0.891925)
(0.017514 0 -0.850755)
(0.0020185 0 -0.977331)
(0.0179105 0 -0.926433)
(-0.0465271 0 -0.930665)
(-0.0205764 0 -1.00677)
(-0.0609493 0 -0.598177)
(-0.0722291 0 -0.834672)
(-0.00803301 0 -0.133658)
(-0.0470704 0 -0.374836)
(0.0282996 0 0.0652736)
(-0.00090952 0 -0.000727974)
(-0.00111054 0 -0.000535617)
(-0.000906751 0 -0.00115236)
(-0.00110438 0 -0.000937105)
(-0.000904604 0 -0.00163175)
(-0.00110413 0 -0.00138577)
(-0.000902902 0 -0.00215759)
(-0.00110244 0 -0.00189676)
(-0.000901271 0 -0.0027043)
(-0.00110063 0 -0.0024383)
(-0.000899373 0 -0.00325749)
(-0.0010987 0 -0.0029916)
(-0.000896904 0 -0.00381084)
(-0.0010962 0 -0.00354675)
(-0.000893561 0 -0.00436538)
(-0.0010928 0 -0.00410105)
(-0.000888998 0 -0.00493027)
(-0.00108817 0 -0.00465936)
(-0.00088281 0 -0.00552427)
(-0.00108191 0 -0.00523537)
(-0.000874519 0 -0.00617722)
(-0.00107356 0 -0.0058532)
(-0.000863568 0 -0.00693109)
(-0.00106257 0 -0.00654874)
(-0.000849318 0 -0.0078402)
(-0.00104833 0 -0.00737038)
(-0.000831031 0 -0.00897051)
(-0.00103011 0 -0.00837875)
(-0.000807836 0 -0.0103979)
(-0.00100708 0 -0.00964541)
(-0.00077869 0 -0.0122059)
(-0.000978207 0 -0.0112509)
(-0.000742332 0 -0.0144839)
(-0.000942282 0 -0.0132822)
(-0.000697246 0 -0.0173248)
(-0.000897813 0 -0.0158311)
(-0.000641665 0 -0.0208237)
(-0.000843027 0 -0.0189918)
(-0.000573624 0 -0.0250768)
(-0.000775895 0 -0.0228607)
(-0.000491109 0 -0.0301771)
(-0.000694222 0 -0.0275334)
(-0.000392325 0 -0.0362071)
(-0.000595882 0 -0.0331001)
(-0.000276087 0 -0.0432223)
(-0.000479127 0 -0.0396341)
(-0.000142219 0 -0.0512265)
(-0.000343031 0 -0.0471714)
(8.40399e-06 0 -0.0601413)
(-0.000187746 0 -0.0556812)
(0.000174544 0 -0.069784)
(-1.41739e-05 0 -0.0650345)
(0.00035717 0 -0.0798789)
(0.000177624 0 -0.0749934)
(0.000563332 0 -0.0901287)
(0.000391883 0 -0.0852471)
(0.000810557 0 -0.100344)
(0.000641928 0 -0.0955194)
(0.00112893 0 -0.110571)
(0.000952789 0 -0.10572)
(0.00164292 0 -0.122872)
(0.00140336 0 -0.11693)
(0.00236505 0 -0.135583)
(0.00207467 0 -0.129324)
(0.00339123 0 -0.149464)
(0.00302267 0 -0.142542)
(0.0048644 0 -0.165276)
(0.00436301 0 -0.157362)
(0.00701438 0 -0.183941)
(0.00628011 0 -0.174572)
(0.0102174 0 -0.207111)
(0.00906766 0 -0.195309)
(0.0150603 0 -0.238274)
(0.0131911 0 -0.221851)
(0.0223309 0 -0.284506)
(0.0193343 0 -0.259012)
(0.032618 0 -0.357917)
(0.0282734 0 -0.316083)
(0.0446947 0 -0.47181)
(0.0400646 0 -0.407273)
(0.052388 0 -0.621171)
(0.0518489 0 -0.542805)
(0.046188 0 -0.758185)
(0.0538053 0 -0.700021)
(0.0293354 0 -0.827283)
(0.0386117 0 -0.809105)
(0.0190606 0 -0.845156)
(0.0213294 0 -0.836776)
(0.0161095 0 -0.885026)
(0.0160478 0 -0.848788)
(-0.00279474 0 -0.955181)
(0.0120737 0 -0.91383)
(-0.0479979 0 -0.909916)
(-0.0243198 0 -0.976631)
(-0.0629191 0 -0.611028)
(-0.0723703 0 -0.824724)
(-0.0124088 0 -0.175759)
(-0.0525221 0 -0.408509)
(0.0234501 0 0.0182275)
(-0.00130593 0 -0.000734921)
(-0.00154606 0 -0.0005411)
(-0.00130383 0 -0.0011593)
(-0.00154021 0 -0.000943621)
(-0.00130191 0 -0.00163775)
(-0.00154061 0 -0.00139143)
(-0.00130012 0 -0.00216334)
(-0.00153883 0 -0.00190176)
(-0.00129816 0 -0.00271077)
(-0.00153673 0 -0.00244356)
(-0.00129566 0 -0.0032655)
(-0.0015343 0 -0.00299801)
(-0.00129228 0 -0.00382108)
(-0.00153105 0 -0.00355505)
(-0.00128766 0 -0.00437847)
(-0.00152661 0 -0.00411188)
(-0.00128142 0 -0.00494684)
(-0.00152059 0 -0.00467333)
(-0.0012731 0 -0.00554497)
(-0.00151255 0 -0.00525313)
(-0.00126216 0 -0.00620275)
(-0.00150198 0 -0.00587541)
(-0.00124799 0 -0.0069622)
(-0.00148827 0 -0.00657612)
(-0.00122988 0 -0.00787771)
(-0.00147075 0 -0.0074037)
(-0.00120702 0 -0.00901528)
(-0.00144861 0 -0.00841884)
(-0.00117842 0 -0.0104509)
(-0.00142094 0 -0.00969321)
(-0.00114292 0 -0.0122684)
(-0.0013866 0 -0.0113075)
(-0.00109908 0 -0.014557)
(-0.00134424 0 -0.0133489)
(-0.0010452 0 -0.01741)
(-0.00129219 0 -0.0159092)
(-0.000979273 0 -0.0209225)
(-0.00122847 0 -0.0190829)
(-0.000899067 0 -0.0251905)
(-0.00115083 0 -0.0229663)
(-0.000802262 0 -0.0303068)
(-0.00105678 0 -0.0276549)
(-0.000686722 0 -0.0363529)
(-0.000943904 0 -0.0332383)
(-0.000550859 0 -0.0433837)
(-0.000810092 0 -0.039789)
(-0.000393983 0 -0.0514018)
(-0.000653978 0 -0.047342)
(-0.00021623 0 -0.0603283)
(-0.000475081 0 -0.0558654)
(-1.75422e-05 0 -0.0699819)
(-0.000273373 0 -0.0652308)
(0.000204755 0 -0.0800909)
(-4.75167e-05 0 -0.0752028)
(0.000460498 0 -0.090365)
(0.000208901 0 -0.0854767)
(0.000770921 0 -0.100623)
(0.000512358 0 -0.0957851)
(0.00117135 0 -0.11092)
(0.000891353 0 -0.106047)
(0.00181425 0 -0.123349)
(0.00143845 0 -0.117358)
(0.0027074 0 -0.136249)
(0.0022476 0 -0.12992)
(0.00396093 0 -0.150404)
(0.00337786 0 -0.143377)
(0.00573473 0 -0.16662)
(0.00495626 0 -0.158544)
(0.0082764 0 -0.1859)
(0.00718097 0 -0.176266)
(0.0119732 0 -0.210007)
(0.0103547 0 -0.197774)
(0.0173953 0 -0.242547)
(0.0149354 0 -0.225465)
(0.0252324 0 -0.290548)
(0.0215518 0 -0.264236)
(0.0357983 0 -0.365383)
(0.0308186 0 -0.323127)
(0.0474137 0 -0.478151)
(0.0424333 0 -0.415016)
(0.0538592 0 -0.621426)
(0.0531452 0 -0.547102)
(0.0469115 0 -0.750606)
(0.0537643 0 -0.695389)
(0.0302072 0 -0.818217)
(0.0385577 0 -0.797968)
(0.0183421 0 -0.839987)
(0.0211301 0 -0.828866)
(0.0117811 0 -0.877094)
(0.0132476 0 -0.844413)
(-0.00816451 0 -0.934785)
(0.00546958 0 -0.900533)
(-0.0491351 0 -0.891036)
(-0.0282571 0 -0.949317)
(-0.0640559 0 -0.622103)
(-0.0716757 0 -0.814778)
(-0.0186253 0 -0.214876)
(-0.0578937 0 -0.438796)
(0.0145354 0 -0.027301)
(-0.00178121 0 -0.000740219)
(-0.00206067 0 -0.000545442)
(-0.00177937 0 -0.00116513)
(-0.00205466 0 -0.000949325)
(-0.00177743 0 -0.00164336)
(-0.00205547 0 -0.00139714)
(-0.00177539 0 -0.00216918)
(-0.00205347 0 -0.00190747)
(-0.00177298 0 -0.00271772)
(-0.00205097 0 -0.00245)
(-0.00176985 0 -0.00327441)
(-0.002048 0 -0.00300605)
(-0.0017656 0 -0.0038327)
(-0.00204403 0 -0.00356548)
(-0.00175984 0 -0.00439346)
(-0.00203864 0 -0.00412539)
(-0.00175212 0 -0.00496588)
(-0.00203142 0 -0.0046906)
(-0.00174194 0 -0.00556875)
(-0.00202187 0 -0.00527482)
(-0.00172872 0 -0.00623202)
(-0.00200943 0 -0.00590225)
(-0.00171177 0 -0.00699774)
(-0.00199344 0 -0.00660886)
(-0.00169033 0 -0.00792036)
(-0.00197317 0 -0.00744316)
(-0.00166349 0 -0.00906599)
(-0.00194774 0 -0.0084659)
(-0.00163019 0 -0.0105107)
(-0.00191615 0 -0.00974889)
(-0.00158913 0 -0.0123386)
(-0.00187718 0 -0.0113729)
(-0.00153875 0 -0.014639)
(-0.00182933 0 -0.0134254)
(-0.00147717 0 -0.0175052)
(-0.00177081 0 -0.0159984)
(-0.00140218 0 -0.0210327)
(-0.00169946 0 -0.0191865)
(-0.00131133 0 -0.0253172)
(-0.00161281 0 -0.023086)
(-0.00120201 0 -0.0304512)
(-0.00150816 0 -0.0277921)
(-0.00107175 0 -0.0365157)
(-0.00138279 0 -0.0333942)
(-0.000918557 0 -0.0435644)
(-0.00123426 0 -0.0399637)
(-0.000741174 0 -0.0515992)
(-0.00106076 0 -0.0475348)
(-0.000538933 0 -0.060541)
(-0.000861175 0 -0.056075)
(-0.000310592 0 -0.07021)
(-0.000634548 0 -0.0654564)
(-5.15676e-05 0 -0.0803393)
(-0.000378204 0 -0.0754467)
(0.000249803 0 -0.090646)
(-8.39615e-05 0 -0.0857473)
(0.000618247 0 -0.100958)
(0.000267344 0 -0.0961004)
(0.00109363 0 -0.11134)
(0.000707108 0 -0.106435)
(0.00185292 0 -0.12392)
(0.00133927 0 -0.117864)
(0.00289707 0 -0.137038)
(0.00226796 0 -0.130616)
(0.00434575 0 -0.151504)
(0.00355222 0 -0.144343)
(0.00636816 0 -0.168172)
(0.00532507 0 -0.159893)
(0.00921737 0 -0.188114)
(0.00778962 0 -0.178166)
(0.0132722 0 -0.213196)
(0.0112441 0 -0.200477)
(0.0190574 0 -0.247102)
(0.0161197 0 -0.229322)
(0.027135 0 -0.296737)
(0.0229679 0 -0.269621)
(0.037553 0 -0.372653)
(0.03223 0 -0.330072)
(0.0483191 0 -0.483851)
(0.0432984 0 -0.422193)
(0.0534225 0 -0.620998)
(0.0526936 0 -0.550504)
(0.0458706 0 -0.742765)
(0.0520304 0 -0.690355)
(0.0293646 0 -0.808635)
(0.036974 0 -0.786965)
(0.016185 0 -0.833241)
(0.0195257 0 -0.82008)
(0.00670293 0 -0.867823)
(0.00942719 0 -0.838092)
(-0.0138024 0 -0.915277)
(-0.00133455 0 -0.886863)
(-0.0507504 0 -0.873267)
(-0.0325918 0 -0.924684)
(-0.0656986 0 -0.631326)
(-0.0715691 0 -0.804812)
(-0.0264907 0 -0.250973)
(-0.0636773 0 -0.464936)
(0.00219714 0 -0.0696087)
(-0.00233521 0 -0.00074495)
(-0.00265382 0 -0.000549357)
(-0.00233343 0 -0.00117075)
(-0.00264745 0 -0.000954855)
(-0.00233135 0 -0.00164925)
(-0.00264857 0 -0.00140326)
(-0.00232898 0 -0.00217562)
(-0.00264632 0 -0.00191412)
(-0.0023261 0 -0.00272544)
(-0.00264341 0 -0.00245773)
(-0.00232235 0 -0.00328426)
(-0.00263993 0 -0.00301569)
(-0.00231732 0 -0.00384544)
(-0.00263532 0 -0.00357784)
(-0.00231058 0 -0.00440981)
(-0.00262913 0 -0.00414123)
(-0.00230163 0 -0.00498653)
(-0.00262093 0 -0.00471063)
(-0.00228994 0 -0.00559444)
(-0.00261016 0 -0.00529977)
(-0.00227486 0 -0.0062635)
(-0.00259623 0 -0.00593287)
(-0.00225566 0 -0.00703583)
(-0.00257844 0 -0.00664597)
(-0.00223151 0 -0.00796594)
(-0.002556 0 -0.00748762)
(-0.00220143 0 -0.00912003)
(-0.00252798 0 -0.00851866)
(-0.00216428 0 -0.0105744)
(-0.00249329 0 -0.00981103)
(-0.00211864 0 -0.0124131)
(-0.00245063 0 -0.0114457)
(-0.00206284 0 -0.0147259)
(-0.0023984 0 -0.0135103)
(-0.00199487 0 -0.0176062)
(-0.00233467 0 -0.0160969)
(-0.00191235 0 -0.0211495)
(-0.00225717 0 -0.0193005)
(-0.00181261 0 -0.0254516)
(-0.00216323 0 -0.0232174)
(-0.0016928 0 -0.0306045)
(-0.00204996 0 -0.0279425)
(-0.00155015 0 -0.0366886)
(-0.00191439 0 -0.0335648)
(-0.00138227 0 -0.0437569)
(-0.00175377 0 -0.0401552)
(-0.00118738 0 -0.0518105)
(-0.00156591 0 -0.0477467)
(-0.000964053 0 -0.0607704)
(-0.00134911 0 -0.0563065)
(-0.000710031 0 -0.0704587)
(-0.00110161 0 -0.0657074)
(-0.000419443 0 -0.0806132)
(-0.000819515 0 -0.0757204)
(-7.80558e-05 0 -0.090959)
(-0.00049328 0 -0.0860538)
(0.000340904 0 -0.101334)
(-0.000101782 0 -0.0964591)
(0.000880445 0 -0.111813)
(0.000388635 0 -0.106875)
(0.00173799 0 -0.124562)
(0.0010907 0 -0.118436)
(0.00290646 0 -0.13792)
(0.00211565 0 -0.131395)
(0.00451044 0 -0.152727)
(0.00352004 0 -0.145412)
(0.00672153 0 -0.169875)
(0.00543803 0 -0.161367)
(0.0097879 0 -0.190507)
(0.00807029 0 -0.18021)
(0.0140657 0 -0.216567)
(0.0117005 0 -0.203329)
(0.0200192 0 -0.251785)
(0.0167218 0 -0.233291)
(0.0280784 0 -0.302876)
(0.0236001 0 -0.274994)
(0.0380644 0 -0.379519)
(0.0326126 0 -0.336729)
(0.0477865 0 -0.488777)
(0.0429105 0 -0.428675)
(0.0515602 0 -0.619869)
(0.0509107 0 -0.55302)
(0.043479 0 -0.734661)
(0.0490662 0 -0.684967)
(0.0271477 0 -0.798556)
(0.0341907 0 -0.776077)
(0.0129269 0 -0.825078)
(0.0167585 0 -0.810598)
(0.00122734 0 -0.857333)
(0.00485342 0 -0.830292)
(-0.0196007 0 -0.89658)
(-0.00819238 0 -0.872977)
(-0.0532912 0 -0.856461)
(-0.0375154 0 -0.902224)
(-0.0686269 0 -0.638339)
(-0.0727665 0 -0.794588)
(-0.0360886 0 -0.283257)
(-0.0702089 0 -0.486627)
(-0.0129826 0 -0.107577)
(-0.00296734 0 -0.000749559)
(-0.00332465 0 -0.000553059)
(-0.00296556 0 -0.00117663)
(-0.00331793 0 -0.000960369)
(-0.00296333 0 -0.0016559)
(-0.00331932 0 -0.00140982)
(-0.00296066 0 -0.00218321)
(-0.00331687 0 -0.00192161)
(-0.00295736 0 -0.00273462)
(-0.00331363 0 -0.0024666)
(-0.00295308 0 -0.00329582)
(-0.00330973 0 -0.00302671)
(-0.0029474 0 -0.00386017)
(-0.0033046 0 -0.00359181)
(-0.00293986 0 -0.00442846)
(-0.0032978 0 -0.00415893)
(-0.00292996 0 -0.00500983)
(-0.00328885 0 -0.00473281)
(-0.00291709 0 -0.00562315)
(-0.00327718 0 -0.00532721)
(-0.00290058 0 -0.00629843)
(-0.00326217 0 -0.00596638)
(-0.00287967 0 -0.00707782)
(-0.00324308 0 -0.0066864)
(-0.00285347 0 -0.00801594)
(-0.00321907 0 -0.00753588)
(-0.00282093 0 -0.00917907)
(-0.00318918 0 -0.00857577)
(-0.00278082 0 -0.0106436)
(-0.00315224 0 -0.00987811)
(-0.00273167 0 -0.0124939)
(-0.00310689 0 -0.011524)
(-0.0026717 0 -0.0148199)
(-0.00305145 0 -0.0136014)
(-0.00259877 0 -0.0177152)
(-0.0029839 0 -0.0162026)
(-0.00251037 0 -0.0212753)
(-0.00290183 0 -0.0194227)
(-0.00240367 0 -0.025596)
(-0.00280245 0 -0.0233579)
(-0.00227561 0 -0.0307691)
(-0.0026827 0 -0.0281033)
(-0.00212316 0 -0.0368745)
(-0.00253941 0 -0.0337472)
(-0.00194358 0 -0.0439642)
(-0.0023696 0 -0.0403599)
(-0.00173464 0 -0.0520388)
(-0.00217074 0 -0.0479738)
(-0.00149427 0 -0.0610195)
(-0.00194068 0 -0.0565556)
(-0.00121936 0 -0.0707306)
(-0.00167698 0 -0.065979)
(-0.000902868 0 -0.0809148)
(-0.00137487 0 -0.0760184)
(-0.000529296 0 -0.0913056)
(-0.00102368 0 -0.0863893)
(-6.97294e-05 0 -0.101751)
(-0.000600944 0 -0.0968524)
(0.00052089 0 -0.112334)
(-7.17721e-05 0 -0.107357)
(0.00145491 0 -0.125266)
(0.000682607 0 -0.119059)
(0.00271702 0 -0.138882)
(0.00177775 0 -0.132236)
(0.00443265 0 -0.154043)
(0.00326581 0 -0.146556)
(0.00677017 0 -0.171686)
(0.00527819 0 -0.162925)
(0.00996541 0 -0.193009)
(0.00800759 0 -0.18234)
(0.014344 0 -0.220019)
(0.0117168 0 -0.206248)
(0.020305 0 -0.256455)
(0.0167559 0 -0.237265)
(0.0281547 0 -0.308793)
(0.0235054 0 -0.280227)
(0.037528 0 -0.385832)
(0.0320956 0 -0.342978)
(0.0461173 0 -0.492883)
(0.0414938 0 -0.434401)
(0.0486143 0 -0.618119)
(0.0481028 0 -0.554684)
(0.0400558 0 -0.726428)
(0.0451879 0 -0.679262)
(0.0238716 0 -0.788192)
(0.0304754 0 -0.765288)
(0.00881783 0 -0.815894)
(0.0130622 0 -0.800562)
(-0.00467996 0 -0.846045)
(-0.000299532 0 -0.821294)
(-0.0257094 0 -0.878755)
(-0.015106 0 -0.858958)
(-0.0568921 0 -0.840442)
(-0.0430476 0 -0.881435)
(-0.0729457 0 -0.642877)
(-0.0754121 0 -0.783886)
(-0.0471411 0 -0.310977)
(-0.0774913 0 -0.503831)
(-0.0302279 0 -0.140962)
(-0.00367669 0 -0.000754103)
(-0.00407211 0 -0.000556601)
(-0.00367492 0 -0.00118275)
(-0.00406507 0 -0.000965841)
(-0.0036726 0 -0.0016632)
(-0.00406676 0 -0.00141665)
(-0.00366972 0 -0.00219184)
(-0.00406419 0 -0.00192972)
(-0.00366611 0 -0.00274512)
(-0.00406073 0 -0.00247633)
(-0.00366144 0 -0.00330895)
(-0.00405656 0 -0.00303874)
(-0.00365529 0 -0.00387672)
(-0.00405111 0 -0.00360694)
(-0.0036472 0 -0.00444921)
(-0.00404392 0 -0.00417795)
(-0.00363662 0 -0.00503556)
(-0.0040345 0 -0.00475651)
(-0.00362295 0 -0.00565466)
(-0.00402228 0 -0.00535638)
(-0.00360548 0 -0.00633656)
(-0.0040066 0 -0.00600186)
(-0.00358342 0 -0.00712349)
(-0.00398673 0 -0.00672907)
(-0.00355583 0 -0.00807011)
(-0.00396178 0 -0.00758671)
(-0.00352162 0 -0.00924285)
(-0.00393076 0 -0.00863581)
(-0.00347951 0 -0.0107183)
(-0.00389247 0 -0.00994854)
(-0.00342796 0 -0.0125808)
(-0.00384547 0 -0.0116062)
(-0.0033651 0 -0.0149208)
(-0.00378804 0 -0.0136969)
(-0.00328873 0 -0.0178319)
(-0.00371808 0 -0.0163133)
(-0.00319623 0 -0.0214098)
(-0.00363311 0 -0.0195505)
(-0.00308462 0 -0.0257502)
(-0.00353023 0 -0.0235048)
(-0.00295069 0 -0.0309448)
(-0.00340625 0 -0.0282714)
(-0.00279121 0 -0.0370728)
(-0.00325789 0 -0.033938)
(-0.00260319 0 -0.0441856)
(-0.00308199 0 -0.0405744)
(-0.00238403 0 -0.0522832)
(-0.00287576 0 -0.0482121)
(-0.00213116 0 -0.0612872)
(-0.00263675 0 -0.0568176)
(-0.00184086 0 -0.071024)
(-0.00236203 0 -0.0662657)
(-0.00150528 0 -0.0812418)
(-0.00204623 0 -0.0763345)
(-0.00110799 0 -0.0916821)
(-0.001678 0 -0.086746)
(-0.000619018 0 -0.102203)
(-0.00123393 0 -0.097271)
(8.11954e-06 0 -0.112898)
(-0.000678859 0 -0.107869)
(0.000994967 0 -0.126021)
(0.000109067 0 -0.119716)
(0.00231851 0 -0.139901)
(0.00124728 0 -0.133118)
(0.00410184 0 -0.155425)
(0.00278239 0 -0.147745)
(0.00650591 0 -0.173561)
(0.00484008 0 -0.164528)
(0.00974974 0 -0.195556)
(0.00760145 0 -0.184502)
(0.0141249 0 -0.223465)
(0.011305 0 -0.209165)
(0.0199658 0 -0.261004)
(0.0162564 0 -0.241159)
(0.027467 0 -0.314378)
(0.0227557 0 -0.285228)
(0.0361128 0 -0.391517)
(0.0308042 0 -0.348742)
(0.0435388 0 -0.496179)
(0.0392324 0 -0.439351)
(0.044832 0 -0.615813)
(0.0444942 0 -0.555546)
(0.0358377 0 -0.718119)
(0.0406156 0 -0.673266)
(0.0197687 0 -0.777665)
(0.0260353 0 -0.754575)
(0.00404781 0 -0.805976)
(0.0086371 0 -0.790082)
(-0.0108504 0 -0.834218)
(-0.00590594 0 -0.811361)
(-0.0321123 0 -0.861652)
(-0.0220804 0 -0.844783)
(-0.0614737 0 -0.824901)
(-0.0490796 0 -0.861861)
(-0.0784988 0 -0.644848)
(-0.0793675 0 -0.772535)
(-0.0594124 0 -0.333853)
(-0.0853489 0 -0.516555)
(-0.0486569 0 -0.169087)
(-0.00446209 0 -0.00075853)
(-0.00489507 0 -0.000559984)
(-0.00446036 0 -0.00118891)
(-0.00488775 0 -0.000971181)
(-0.00445803 0 -0.00167082)
(-0.00488975 0 -0.00142353)
(-0.00445506 0 -0.00220103)
(-0.00488716 0 -0.00193809)
(-0.00445129 0 -0.00275637)
(-0.00488362 0 -0.0024865)
(-0.00444642 0 -0.00332297)
(-0.00487936 0 -0.00305132)
(-0.00444003 0 -0.00389429)
(-0.00487378 0 -0.00362269)
(-0.00443164 0 -0.00447113)
(-0.00486646 0 -0.00419766)
(-0.00442073 0 -0.00506264)
(-0.00485688 0 -0.00478097)
(-0.00440665 0 -0.00568772)
(-0.00484449 0 -0.00538641)
(-0.00438871 0 -0.00637649)
(-0.00482861 0 -0.00603831)
(-0.00436608 0 -0.00717121)
(-0.00480849 0 -0.00677287)
(-0.0043378 0 -0.00812666)
(-0.00478326 0 -0.00763884)
(-0.00430276 0 -0.00930936)
(-0.00475188 0 -0.00869734)
(-0.00425962 0 -0.010796)
(-0.00471314 0 -0.0100207)
(-0.0042068 0 -0.0126714)
(-0.00466556 0 -0.0116904)
(-0.00414241 0 -0.0150258)
(-0.0046074 0 -0.0137948)
(-0.00406416 0 -0.0179532)
(-0.00453651 0 -0.0164266)
(-0.00396938 0 -0.0215496)
(-0.00445036 0 -0.0196814)
(-0.003855 0 -0.0259105)
(-0.00434598 0 -0.0236555)
(-0.00371771 0 -0.0311274)
(-0.00422014 0 -0.0284437)
(-0.00355415 0 -0.037279)
(-0.00406945 0 -0.0341337)
(-0.00336115 0 -0.0444161)
(-0.00389069 0 -0.0407945)
(-0.00313586 0 -0.0525383)
(-0.00368094 0 -0.048457)
(-0.00287541 0 -0.0615674)
(-0.00343753 0 -0.0570874)
(-0.00257567 0 -0.0713322)
(-0.0031573 0 -0.0665618)
(-0.00222837 0 -0.081586)
(-0.00283454 0 -0.0766615)
(-0.00181656 0 -0.0920788)
(-0.00245759 0 -0.0871158)
(-0.00130988 0 -0.102678)
(-0.00200273 0 -0.0977047)
(-0.000661775 0 -0.113488)
(-0.0014351 0 -0.108397)
(0.00035383 0 -0.126806)
(-0.000632611 0 -0.120393)
(0.00170686 0 -0.140952)
(0.000521689 0 -0.13402)
(0.00351578 0 -0.156835)
(0.0020685 0 -0.148951)
(0.00593136 0 -0.175453)
(0.00412582 0 -0.166138)
(0.0091534 0 -0.198091)
(0.00686082 0 -0.18665)
(0.0134385 0 -0.226835)
(0.0104865 0 -0.212021)
(0.0190592 0 -0.265356)
(0.0152648 0 -0.244906)
(0.0261112 0 -0.319565)
(0.0214223 0 -0.289929)
(0.0339598 0 -0.396552)
(0.0288494 0 -0.353974)
(0.0402302 0 -0.4987)
(0.0362781 0 -0.443531)
(0.0404034 0 -0.612988)
(0.0402597 0 -0.555662)
(0.0310075 0 -0.70972)
(0.0355171 0 -0.667001)
(0.0150225 0 -0.766996)
(0.021037 0 -0.743918)
(-0.00122777 0 -0.795474)
(0.0036512 0 -0.779248)
(-0.0172499 0 -0.821932)
(-0.0118457 0 -0.80068)
(-0.0387462 0 -0.845006)
(-0.0290869 0 -0.830452)
(-0.0668485 0 -0.809518)
(-0.0554502 0 -0.843127)
(-0.0850035 0 -0.644258)
(-0.0843496 0 -0.760432)
(-0.0722777 0 -0.35189)
(-0.0934736 0 -0.525038)
(-0.0670778 0 -0.192207)
(-0.00532245 0 -0.000762787)
(-0.0057925 0 -0.000563201)
(-0.00532079 0 -0.00119495)
(-0.00578495 0 -0.000976312)
(-0.00531851 0 -0.00167845)
(-0.00578729 0 -0.00143027)
(-0.00531557 0 -0.00221037)
(-0.00578476 0 -0.00194642)
(-0.00531179 0 -0.00276785)
(-0.00578128 0 -0.00249669)
(-0.00530691 0 -0.00333725)
(-0.00577709 0 -0.00306394)
(-0.00530051 0 -0.00391215)
(-0.00577161 0 -0.00363846)
(-0.00529213 0 -0.00449335)
(-0.00576441 0 -0.00421736)
(-0.00528123 0 -0.00509003)
(-0.00575501 0 -0.0048054)
(-0.00526719 0 -0.00572114)
(-0.00574283 0 -0.00541639)
(-0.00524928 0 -0.00641682)