/*--------------------------------*- C++ -*----------------------------------*\
  =========                 |
  \\      /  F ield         | OpenFOAM: The Open Source CFD Toolbox
   \\    /   O peration     | Website:  https://openfoam.org
    \\  /    A nd           | Version:  9
     \\/     M anipulation  |
\*---------------------------------------------------------------------------*/
FoamFile
{
    format      ascii;
    class       volScalarField;
    location    "0.2";
    object      alpha.water;
}
// * * * * * * * * * * * * * * * * * * * * * * * * * * * * * * * * * * * * * //

dimensions      [0 0 0 0 0 0 0];

internalField   nonuniform List<scalar> 
5000
(
1.68486e-319
1.61263e-319
1.54316e-319
1.47647e-319
1.41243e-319
1.35117e-319
1.29238e-319
1.23605e-319
1.1821e-319
1.13042e-319
1.08092e-319
1.03359e-319
9.8823e-320
9.4495e-320
9.03547e-320
8.64022e-320
8.26078e-320
7.89715e-320
7.54735e-320
7.20941e-320
6.8853e-320
6.57305e-320
6.27463e-320
5.99203e-320
5.72227e-320
5.46634e-320
5.22326e-320
4.99105e-320
4.7707e-320
4.55924e-320
3.75095e-320
3.75688e-320
3.7628e-320
3.76676e-320
3.76873e-320
3.76873e-320
3.76478e-320
3.75885e-320
3.75095e-320
3.74107e-320
3.72921e-320
3.71537e-320
3.6966e-320
3.66992e-320
3.62842e-320
3.64028e-320
8.58291e-320
8.04635e-320
3.64225e-320
3.65411e-320
1.68476e-319
1.61243e-319
1.54307e-319
1.47647e-319
1.41243e-319
1.35107e-319
1.29228e-319
1.23595e-319
1.182e-319
1.13042e-319
1.08092e-319
1.03359e-319
9.8823e-320
9.4495e-320
9.03547e-320
8.64022e-320
8.26078e-320
7.89715e-320
7.54735e-320
7.20941e-320
6.8853e-320
6.57305e-320
6.27463e-320
5.99203e-320
5.72326e-320
5.46634e-320
5.22326e-320
4.99105e-320
4.7707e-320
4.55924e-320
3.75095e-320
3.75688e-320
3.7628e-320
3.76676e-320
3.76873e-320
3.76873e-320
3.76478e-320
3.75885e-320
3.75095e-320
3.74107e-320
3.72921e-320
3.71439e-320
3.69561e-320
3.66794e-320
3.62644e-320
3.6462e-320
8.50781e-320
8.05129e-320
3.65609e-320
3.66004e-320
1.68467e-319
1.61243e-319
1.54307e-319
1.47637e-319
1.41243e-319
1.35107e-319
1.29228e-319
1.23595e-319
1.182e-319
1.13042e-319
1.08082e-319
1.03359e-319
9.8823e-320
9.4495e-320
9.03547e-320
8.64022e-320
8.26078e-320
7.89715e-320
7.54735e-320
7.20941e-320
6.8853e-320
6.57305e-320
6.27562e-320
5.99203e-320
5.72326e-320
5.46634e-320
5.22326e-320
4.99105e-320
4.7707e-320
4.56023e-320
3.75095e-320
3.75688e-320
3.7628e-320
3.76676e-320
3.76873e-320
3.76873e-320
3.76478e-320
3.75885e-320
3.75095e-320
3.74107e-320
3.72921e-320
3.71537e-320
3.6966e-320
3.66992e-320
3.62941e-320
3.65806e-320
8.41493e-320
8.04141e-320
3.66992e-320
3.66794e-320
1.68457e-319
1.61243e-319
1.54307e-319
1.47637e-319
1.41243e-319
1.35097e-319
1.29228e-319
1.23595e-319
1.182e-319
1.13032e-319
1.08082e-319
1.03359e-319
9.8823e-320
9.4495e-320
9.03547e-320
8.64022e-320
8.26078e-320
7.89715e-320
7.54735e-320
7.20941e-320
6.8853e-320
6.57305e-320
6.27562e-320
5.99203e-320
5.72326e-320
5.46634e-320
5.22326e-320
4.99204e-320
4.7707e-320
4.56023e-320
3.75095e-320
3.75688e-320
3.7628e-320
3.76676e-320
3.76873e-320
3.76873e-320
3.76478e-320
3.75885e-320
3.75095e-320
3.74107e-320
3.72921e-320
3.71537e-320
3.69759e-320
3.6719e-320
3.63435e-320
3.66992e-320
8.31611e-320
8.01473e-320
3.68178e-320
3.67387e-320
1.68457e-319
1.61243e-319
1.54307e-319
1.47637e-319
1.41243e-319
1.35097e-319
1.29228e-319
1.23595e-319
1.182e-319
1.13032e-319
1.08082e-319
1.03359e-319
9.8823e-320
9.4495e-320
9.03547e-320
8.64022e-320
8.26078e-320
7.89715e-320
7.54735e-320
7.21039e-320
6.8853e-320
6.57305e-320
6.27562e-320
5.99203e-320
5.72326e-320
5.46634e-320
5.22326e-320
4.99204e-320
4.7707e-320
4.56023e-320
3.75095e-320
3.75688e-320
3.7628e-320
3.76676e-320
3.76873e-320
3.76873e-320
3.76478e-320
3.75885e-320
3.75095e-320
3.74107e-320
3.7302e-320
3.71735e-320
3.69956e-320
3.67585e-320
3.64028e-320
3.68375e-320
8.2252e-320
7.98015e-320
3.69166e-320
3.67881e-320
1.68457e-319
1.61243e-319
1.54307e-319
1.47637e-319
1.41243e-319
1.35107e-319
1.29228e-319
1.23595e-319
1.182e-319
1.13032e-319
1.08082e-319
1.03359e-319
9.88329e-320
9.4495e-320
9.03547e-320
8.64022e-320
8.26177e-320
7.89813e-320
7.54833e-320
7.21039e-320
6.8853e-320
6.57305e-320
6.27562e-320
5.99203e-320
5.72326e-320
5.46634e-320
5.22326e-320
4.99204e-320
4.7707e-320
4.56121e-320
3.75095e-320
3.75688e-320
3.7628e-320
3.76676e-320
3.76873e-320
3.76873e-320
3.76478e-320
3.75885e-320
3.75095e-320
3.74205e-320
3.73118e-320
3.71735e-320
3.70154e-320
3.67881e-320
3.6462e-320
3.69561e-320
8.14813e-320
7.94556e-320
3.69858e-320
3.68277e-320
1.68476e-319
1.61243e-319
1.54307e-319
1.47647e-319
1.41243e-319
1.35107e-319
1.29228e-319
1.23595e-319
1.182e-319
1.13032e-319
1.08082e-319
1.03359e-319
9.88329e-320
9.45049e-320
9.03646e-320
8.64022e-320
8.26275e-320
7.89912e-320
7.54833e-320
7.21138e-320
6.8853e-320
6.57305e-320
6.27562e-320
5.99203e-320
5.72326e-320
5.46634e-320
5.22326e-320
4.99204e-320
4.7707e-320
4.56121e-320
3.75095e-320
3.75786e-320
3.7628e-320
3.76676e-320
3.76972e-320
3.76873e-320
3.76577e-320
3.75984e-320
3.75193e-320
3.74304e-320
3.73118e-320
3.71933e-320
3.70352e-320
3.68178e-320
3.65213e-320
3.70747e-320
8.08489e-320
7.91296e-320
3.7045e-320
3.68573e-320
1.68476e-319
1.61253e-319
1.54326e-319
1.47647e-319
1.41253e-319
1.35117e-319
1.29228e-319
1.23595e-319
1.182e-319
1.13042e-319
1.08092e-319
1.03359e-319
9.88329e-320
9.45049e-320
9.03646e-320
8.64121e-320
8.26275e-320
7.89912e-320
7.54932e-320
7.21138e-320
6.8853e-320
6.57404e-320
6.27661e-320
5.99203e-320
5.72326e-320
5.46634e-320
5.22326e-320
4.99204e-320
4.7707e-320
4.56121e-320
3.75095e-320
3.75786e-320
3.7628e-320
3.76676e-320
3.76972e-320
3.76873e-320
3.76577e-320
3.75984e-320
3.75292e-320
3.74304e-320
3.73316e-320
3.7213e-320
3.70549e-320
3.68474e-320
3.65905e-320
3.71933e-320
8.03252e-320
7.88232e-320
3.70944e-320
3.68771e-320
1.68496e-319
1.61263e-319
1.54326e-319
1.47666e-319
1.41263e-319
1.35117e-319
1.29238e-319
1.23605e-319
1.182e-319
1.13042e-319
1.08092e-319
1.03359e-319
9.88329e-320
9.45049e-320
9.03745e-320
8.64121e-320
8.26275e-320
7.89912e-320
7.54932e-320
7.21138e-320
6.88629e-320
6.57404e-320
6.27661e-320
5.99203e-320
5.72326e-320
5.46733e-320
5.22326e-320
4.99204e-320
4.77169e-320
4.56121e-320
3.75193e-320
3.75786e-320
3.7628e-320
3.76774e-320
3.76972e-320
3.76873e-320
3.76577e-320
3.76083e-320
3.75292e-320
3.74403e-320
3.73316e-320
3.72229e-320
3.70747e-320
3.68672e-320
3.66399e-320
3.72822e-320
7.98904e-320
7.85564e-320
3.7134e-320
3.68968e-320
1.68506e-319
1.61283e-319
1.54346e-319
1.47666e-319
1.41263e-319
1.35137e-319
1.29248e-319
1.23615e-319
1.1821e-319
1.13042e-319
1.08102e-319
1.03359e-319
9.88329e-320
9.45049e-320
9.03745e-320
8.6422e-320
8.26275e-320
7.89912e-320
7.54932e-320
7.21138e-320
6.88728e-320
6.57503e-320
6.27661e-320
5.99203e-320
5.72326e-320
5.46733e-320
5.22326e-320
4.99204e-320
4.77169e-320
4.56121e-320
3.75193e-320
3.75885e-320
3.76379e-320
3.76774e-320
3.76972e-320
3.76873e-320
3.76676e-320
3.76083e-320
3.75292e-320
3.74502e-320
3.73514e-320
3.72328e-320
3.70944e-320
3.68869e-320
3.66992e-320
3.73711e-320
7.95248e-320
7.83094e-320
3.71636e-320
3.68968e-320
1.68526e-319
1.61303e-319
1.54356e-319
1.47686e-319
1.41283e-319
1.35137e-319
1.29257e-319
1.23615e-319
1.1822e-319
1.13042e-319
1.08102e-319
1.03359e-319
9.88329e-320
9.45049e-320
9.03745e-320
8.6422e-320
8.26374e-320
7.90011e-320
7.55031e-320
7.21237e-320
6.88728e-320
6.57503e-320
6.27661e-320
5.99302e-320
5.72326e-320
5.46733e-320
5.22425e-320
4.99204e-320
4.77267e-320
4.56121e-320
3.75193e-320
3.75885e-320
3.76379e-320
3.76774e-320
3.76972e-320
3.76972e-320
3.76676e-320
3.76083e-320
3.75391e-320
3.74502e-320
3.73514e-320
3.72525e-320
3.71142e-320
3.69067e-320
3.67486e-320
3.74601e-320
7.92284e-320
7.81019e-320
3.71933e-320
3.69166e-320
1.68546e-319
1.61322e-319
1.54376e-319
1.47706e-319
1.41293e-319
1.35157e-319
1.29267e-319
1.23625e-319
1.1822e-319
1.13052e-319
1.08102e-319
1.03368e-319
9.88428e-320
9.45148e-320
9.03844e-320
8.6422e-320
8.26473e-320
7.9011e-320
7.5513e-320
7.21336e-320
6.88728e-320
6.57503e-320
6.27661e-320
5.99302e-320
5.72326e-320
5.46832e-320
5.22425e-320
4.99303e-320
4.77267e-320
4.56121e-320
3.75292e-320
3.75885e-320
3.76379e-320
3.76873e-320
3.77071e-320
3.76972e-320
3.76676e-320
3.76083e-320
3.7549e-320
3.74601e-320
3.73612e-320
3.72525e-320
3.71142e-320
3.69166e-320
3.6798e-320
3.75391e-320
7.89912e-320
7.7924e-320
3.72229e-320
3.69166e-320
1.68575e-319
1.61342e-319
1.54386e-319
1.47716e-319
1.41303e-319
1.35166e-319
1.29277e-319
1.23635e-319
1.1824e-319
1.13062e-319
1.08111e-319
1.03378e-319
9.88527e-320
9.45246e-320
9.03943e-320
8.64417e-320
8.26473e-320
7.9011e-320
7.5513e-320
7.21336e-320
6.88728e-320
6.57503e-320
6.27661e-320
5.994e-320
5.72326e-320
5.46832e-320
5.22524e-320
4.99303e-320
4.77267e-320
4.5622e-320
3.75292e-320
3.75885e-320
3.76478e-320
3.76873e-320
3.77071e-320
3.76972e-320
3.76676e-320
3.76182e-320
3.7549e-320
3.74699e-320
3.73711e-320
3.72624e-320
3.7134e-320
3.69363e-320
3.68474e-320
3.76083e-320
7.87936e-320
3.8883e-320
3.72525e-320
3.69363e-320
1.68595e-319
1.61362e-319
1.54405e-319
1.47736e-319
1.41323e-319
1.35176e-319
1.29287e-319
1.23645e-319
1.1824e-319
1.13062e-319
1.08121e-319
1.03378e-319
9.88527e-320
9.45246e-320
9.03943e-320
8.64417e-320
8.26572e-320
7.90209e-320
7.5513e-320
7.21336e-320
6.88826e-320
6.57503e-320
6.27661e-320
5.994e-320
5.72326e-320
5.46832e-320
5.22524e-320
4.99402e-320
4.77267e-320
4.56319e-320
3.75292e-320
3.75885e-320
3.76478e-320
3.76873e-320
3.77071e-320
3.76972e-320
3.76676e-320
3.76182e-320
3.7549e-320
3.74699e-320
3.73711e-320
3.72723e-320
3.7134e-320
3.69363e-320
3.68968e-320
3.76873e-320
7.86355e-320
3.88138e-320
3.72723e-320
3.69363e-320
1.68615e-319
1.61382e-319
1.54435e-319
1.47755e-319
1.41342e-319
1.35196e-319
1.29307e-319
1.23655e-319
1.1825e-319
1.13082e-319
1.08121e-319
1.03388e-319
9.88625e-320
9.45345e-320
9.03943e-320
8.64417e-320
8.26671e-320
7.90307e-320
7.55229e-320
7.21435e-320
6.88925e-320
6.57601e-320
6.2776e-320
5.994e-320
5.72424e-320
5.46832e-320
5.22524e-320
4.99402e-320
4.77267e-320
4.56319e-320
3.75292e-320
3.75885e-320
3.76478e-320
3.76873e-320
3.77071e-320
3.77071e-320
3.76676e-320
3.7628e-320
3.7549e-320
3.74699e-320
3.73711e-320
3.72723e-320
3.71439e-320
3.69561e-320
3.69363e-320
3.77565e-320
7.84971e-320
3.87545e-320
3.72921e-320
3.69561e-320
1.68654e-319
1.61401e-319
1.54465e-319
1.47775e-319
1.41362e-319
1.35216e-319
1.29317e-319
1.23675e-319
1.1826e-319
1.13082e-319
1.08131e-319
1.03398e-319
9.88724e-320
9.45444e-320
9.0414e-320
8.64615e-320
8.26671e-320
7.90307e-320
7.55328e-320
7.21533e-320
6.88925e-320
6.577e-320
6.27859e-320
5.994e-320
5.72424e-320
5.46832e-320
5.22524e-320
4.99402e-320
4.77366e-320
4.56319e-320
3.75292e-320
3.75885e-320
3.76478e-320
3.76873e-320
3.77071e-320
3.77071e-320
3.76676e-320
3.7628e-320
3.75589e-320
3.74699e-320
3.7381e-320
3.72723e-320
3.71439e-320
3.6966e-320
3.69858e-320
3.78257e-320
7.83786e-320
3.87051e-320
3.73118e-320
3.69561e-320
1.68674e-319
1.61441e-319
1.54484e-319
1.47805e-319
1.41382e-319
1.35226e-319
1.29327e-319
1.23675e-319
1.18279e-319
1.13102e-319
1.08141e-319
1.03398e-319
9.88724e-320
9.45444e-320
9.0414e-320
8.64615e-320
8.26769e-320
7.90406e-320
7.55328e-320
7.21533e-320
6.88925e-320
6.577e-320
6.27859e-320
5.994e-320
5.72523e-320
5.46832e-320
5.22524e-320
4.99402e-320
4.77366e-320
4.56319e-320
3.75292e-320
3.75885e-320
3.76478e-320
3.76873e-320
3.77071e-320
3.77071e-320
3.76774e-320
3.7628e-320
3.75589e-320
3.74699e-320
3.73909e-320
3.72723e-320
3.71439e-320
3.69759e-320
3.70352e-320
3.7885e-320
7.82798e-320
3.86557e-320
3.73316e-320
3.69759e-320
1.68714e-319
1.61461e-319
1.54504e-319
1.47824e-319
1.41402e-319
1.35246e-319
1.29346e-319
1.23694e-319
1.18279e-319
1.13102e-319
1.08151e-319
1.03418e-319
9.88823e-320
9.45642e-320
9.04239e-320
8.64714e-320
8.26868e-320
7.90505e-320
7.55426e-320
7.21632e-320
6.89024e-320
6.577e-320
6.27859e-320
5.994e-320
5.72523e-320
5.46832e-320
5.22524e-320
4.99402e-320
4.77465e-320
4.56319e-320
3.75292e-320
3.75984e-320
3.76478e-320
3.76873e-320
3.77071e-320
3.77071e-320
3.76774e-320
3.7628e-320
3.75589e-320
3.74798e-320
3.73909e-320
3.72822e-320
3.71537e-320
3.69858e-320
3.70747e-320
3.79442e-320
7.82007e-320
3.86162e-320
3.73514e-320
3.69858e-320
1.68743e-319
1.615e-319
1.54534e-319
1.47844e-319
1.41421e-319
1.35265e-319
1.29366e-319
1.23714e-319
1.18299e-319
1.13121e-319
1.08161e-319
1.03418e-319
9.88922e-320
9.45642e-320
9.04338e-320
8.64813e-320
8.26967e-320
7.90505e-320
7.55525e-320
7.21731e-320
6.89123e-320
6.577e-320
6.27859e-320
5.99499e-320
5.72523e-320
5.46931e-320
5.22623e-320
4.995e-320
4.77465e-320
4.56418e-320
3.75391e-320
3.75984e-320
3.76478e-320
3.76873e-320
3.77071e-320
3.77071e-320
3.76774e-320
3.7628e-320
3.75589e-320
3.74798e-320
3.73909e-320
3.72822e-320
3.71537e-320
3.69956e-320
3.71241e-320
3.80035e-320
7.81217e-320
3.85964e-320
3.7381e-320
3.69956e-320
1.68773e-319
1.6152e-319
1.54563e-319
1.47864e-319
1.41441e-319
1.35285e-319
1.29386e-319
1.23724e-319
1.18319e-319
1.13131e-319
1.08171e-319
1.03438e-319
9.89021e-320
9.4574e-320
9.04437e-320
8.64911e-320
8.27066e-320
7.90703e-320
7.55525e-320
7.21731e-320
6.89123e-320
6.57799e-320
6.27859e-320
5.99499e-320
5.72523e-320
5.47029e-320
5.22721e-320
4.99599e-320
4.77465e-320
4.56418e-320
3.75391e-320
3.76083e-320
3.76478e-320
3.76873e-320
3.77071e-320
3.77071e-320
3.76774e-320
3.7628e-320
3.75688e-320
3.74798e-320
3.73909e-320
3.72723e-320
3.71439e-320
3.70154e-320
3.71735e-320
3.80628e-320
7.80624e-320
3.85668e-320
3.74107e-320
3.70154e-320
1.68812e-319
1.61559e-319
1.54593e-319
1.47903e-319
1.41471e-319
1.35305e-319
1.29406e-319
1.23744e-319
1.18319e-319
1.13141e-319
1.08181e-319
1.03438e-319
9.89119e-320
9.45839e-320
9.04535e-320
8.6501e-320
8.27066e-320
7.90703e-320
7.55723e-320
7.2183e-320
6.89123e-320
6.57898e-320
6.27957e-320
5.99598e-320
5.72523e-320
5.47029e-320
5.22721e-320
4.99599e-320
4.77465e-320
4.56517e-320
3.7549e-320
3.76083e-320
3.76478e-320
3.76873e-320
3.77071e-320
3.77071e-320
3.76774e-320
3.7628e-320
3.75688e-320
3.74798e-320
3.73909e-320
3.72723e-320
3.71439e-320
3.70154e-320
3.7213e-320
3.81023e-320
7.80031e-320
3.8547e-320
3.74304e-320
3.70352e-320
1.68852e-319
1.61589e-319
1.54623e-319
1.47923e-319
1.415e-319
1.35334e-319
1.29425e-319
1.23754e-319
1.18339e-319
1.13161e-319
1.082e-319
1.03457e-319
9.89218e-320
9.45938e-320
9.04634e-320
8.65109e-320
8.27264e-320
7.909e-320
7.55723e-320
7.21929e-320
6.89222e-320
6.57898e-320
6.28056e-320
5.99598e-320
5.72523e-320
5.47029e-320
5.22721e-320
4.99599e-320
4.77564e-320
4.56517e-320
3.7549e-320
3.76083e-320
3.76577e-320
3.76873e-320
3.77071e-320
3.77071e-320
3.76774e-320
3.7628e-320
3.75688e-320
3.74798e-320
3.73909e-320
3.72723e-320
3.71439e-320
3.70352e-320
3.72624e-320
3.81419e-320
7.79438e-320
3.85272e-320
3.74601e-320
3.70549e-320
1.68891e-319
1.61619e-319
1.54652e-319
1.47953e-319
1.4152e-319
1.35354e-319
1.29445e-319
1.23773e-319
1.18358e-319
1.13171e-319
1.0821e-319
1.03467e-319
9.89317e-320
9.46037e-320
9.04733e-320
8.65208e-320
8.27362e-320
7.909e-320
7.5592e-320
7.21929e-320
6.8932e-320
6.57898e-320
6.28056e-320
5.99598e-320
5.72622e-320
5.47029e-320
5.22721e-320
4.99599e-320
4.77564e-320
4.56517e-320
3.7549e-320
3.76083e-320
3.76577e-320
3.76972e-320
3.77071e-320
3.77071e-320
3.76774e-320
3.7628e-320
3.75688e-320
3.74798e-320
3.73909e-320
3.72723e-320
3.7134e-320
3.70549e-320
3.73118e-320
3.81814e-320
7.78845e-320
3.85075e-320
3.74897e-320
3.70747e-320
1.68931e-319
1.61658e-319
1.54682e-319
1.47983e-319
1.4154e-319
1.35374e-319
1.29465e-319
1.23793e-319
1.18378e-319
1.13181e-319
1.0822e-319
1.03477e-319
9.89515e-320
9.46235e-320
9.04832e-320
8.65307e-320
8.27461e-320
7.91098e-320
7.5592e-320
7.22028e-320
6.8932e-320
6.57997e-320
6.28056e-320
5.99598e-320
5.72721e-320
5.47029e-320
5.22721e-320
4.99599e-320
4.77663e-320
4.56517e-320
3.7549e-320
3.76083e-320
3.76577e-320
3.76972e-320
3.77071e-320
3.77071e-320
3.76774e-320
3.7628e-320
3.75688e-320
3.74798e-320
3.7381e-320
3.72723e-320
3.7134e-320
3.70648e-320
3.73514e-320
3.82209e-320
7.78252e-320
3.84976e-320
3.75095e-320
3.70944e-320
1.6897e-319
1.61698e-319
1.54722e-319
1.48012e-319
1.41579e-319
1.35394e-319
1.29485e-319
1.23813e-319
1.18398e-319
1.132e-319
1.0824e-319
1.03497e-319
9.89515e-320
9.46235e-320
9.04931e-320
8.65405e-320
8.2756e-320
7.91098e-320
7.56019e-320
7.22126e-320
6.89419e-320
6.58095e-320
6.28056e-320
5.99598e-320
5.72721e-320
5.47029e-320
5.2282e-320
4.99698e-320
4.77663e-320
4.56615e-320
3.7549e-320
3.76083e-320
3.76676e-320
3.76972e-320
3.77071e-320
3.77071e-320
3.76774e-320
3.7628e-320
3.75688e-320
3.74798e-320
3.7381e-320
3.72723e-320
3.7134e-320
3.70846e-320
3.73909e-320
3.82506e-320
7.77857e-320
3.84778e-320
3.75391e-320
3.71142e-320
1.6902e-319
1.61737e-319
1.54761e-319
1.48042e-319
1.41599e-319
1.35423e-319
1.29504e-319
1.23833e-319
1.18408e-319
1.1322e-319
1.0825e-319
1.03497e-319
9.89712e-320
9.46432e-320
9.05128e-320
8.65603e-320
8.27659e-320
7.91296e-320
7.56118e-320
7.22126e-320
6.89518e-320
6.58095e-320
6.28155e-320
5.99697e-320
5.72721e-320
5.47128e-320
5.2282e-320
4.99797e-320
4.77663e-320
4.56714e-320
3.7549e-320
3.76083e-320
3.76676e-320
3.76972e-320
3.77071e-320
3.77071e-320
3.76774e-320
3.7628e-320
3.75589e-320
3.74699e-320
3.7381e-320
3.72624e-320
3.7134e-320
3.71043e-320
3.74502e-320
3.82802e-320
7.77363e-320
3.8468e-320
3.75688e-320
3.7134e-320
1.69069e-319
1.61777e-319
1.54791e-319
1.48081e-319
1.41639e-319
1.35453e-319
1.29524e-319
1.23852e-319
1.18428e-319
1.1323e-319
1.0826e-319
1.03517e-319
9.89811e-320
9.46531e-320
9.05227e-320
8.65702e-320
8.27856e-320
7.91296e-320
7.56217e-320
7.22324e-320
6.89518e-320
6.58095e-320
6.28254e-320
5.99697e-320
5.72721e-320
5.47227e-320
5.22919e-320
4.99797e-320
4.77663e-320
4.56714e-320
3.7549e-320
3.76083e-320
3.76676e-320
3.76972e-320
3.7717e-320
3.77071e-320
3.76774e-320
3.7628e-320
3.75589e-320
3.74699e-320
3.73711e-320
3.72525e-320
3.7134e-320
3.71241e-320
3.74897e-320
3.83e-320
7.76968e-320
3.84581e-320
3.75885e-320
3.71537e-320
1.69109e-319
1.61816e-319
1.5483e-319
1.48111e-319
1.41659e-319
1.35473e-319
1.29544e-319
1.23872e-319
1.18437e-319
1.1325e-319
1.08279e-319
1.03536e-319
9.8991e-320
9.4663e-320
9.05326e-320
8.65801e-320
8.27856e-320
7.91493e-320
7.56316e-320
7.22324e-320
6.89617e-320
6.58194e-320
6.28254e-320
5.99796e-320
5.72721e-320
5.47227e-320
5.22919e-320
4.99797e-320
4.77761e-320
4.56714e-320
3.75589e-320
3.76182e-320
3.76676e-320
3.77071e-320
3.7717e-320
3.77071e-320
3.76774e-320
3.7628e-320
3.75589e-320
3.74699e-320
3.73711e-320
3.72525e-320
3.71439e-320
3.71439e-320
3.75292e-320
3.83395e-320
7.76671e-320
3.84581e-320
3.76182e-320
3.71735e-320
1.69158e-319
1.61856e-319
1.5486e-319
1.48141e-319
1.41698e-319
1.35502e-319
1.29574e-319
1.23892e-319
1.18457e-319
1.1326e-319
1.08299e-319
1.03546e-319
9.90108e-320
9.46827e-320
9.05524e-320
8.65998e-320
8.28054e-320
7.91592e-320
7.56415e-320
7.22423e-320
6.89716e-320
6.58293e-320
6.28254e-320
5.99796e-320
5.7282e-320
5.47227e-320
5.22919e-320
4.99797e-320
4.7786e-320
4.56714e-320
3.75589e-320
3.76182e-320
3.76676e-320
3.77071e-320
3.7717e-320
3.77071e-320
3.76774e-320
3.7628e-320
3.75589e-320
3.74699e-320
3.73711e-320
3.72525e-320
3.71439e-320
3.71735e-320
3.75786e-320
3.83593e-320
7.76375e-320
3.84482e-320
3.76478e-320
3.71933e-320
1.69208e-319
1.61905e-319
1.54899e-319
1.4818e-319
1.41718e-319
1.35532e-319
1.29603e-319
1.23912e-319
1.18477e-319
1.13279e-319
1.08309e-319
1.03556e-319
9.90305e-320
9.46926e-320
9.05524e-320
8.65998e-320
8.28153e-320
7.91691e-320
7.56513e-320
7.22522e-320
6.89716e-320
6.58293e-320
6.28254e-320
5.99796e-320
5.7282e-320
5.47227e-320
5.22919e-320
4.99896e-320
4.7786e-320
4.56714e-320
3.75688e-320
3.7628e-320
3.76676e-320
3.77071e-320
3.7717e-320
3.77071e-320
3.76774e-320
3.7628e-320
3.75589e-320
3.74699e-320
3.73711e-320
3.72427e-320
3.71439e-320
3.71933e-320
3.7628e-320
3.8379e-320
3.88039e-320
3.84482e-320
3.76676e-320
3.7213e-320
1.69257e-319
1.61955e-319
1.54939e-319
1.4821e-319
1.41757e-319
1.35552e-319
1.29623e-319
1.23941e-319
1.18497e-319
1.13299e-319
1.08319e-319
1.03576e-319
9.90305e-320
9.47025e-320
9.05721e-320
8.66196e-320
8.28252e-320
7.91888e-320
7.56612e-320
7.2262e-320
6.89814e-320
6.58293e-320
6.28353e-320
5.99796e-320
5.72919e-320
5.47227e-320
5.23018e-320
4.99896e-320
4.7786e-320
4.56813e-320
3.75688e-320
3.7628e-320
3.76676e-320
3.77071e-320
3.7717e-320
3.77071e-320
3.76774e-320
3.7628e-320
3.7549e-320
3.74699e-320
3.73612e-320
3.72328e-320
3.71439e-320
3.7213e-320
3.76577e-320
3.83988e-320
3.8794e-320
3.84383e-320
3.76972e-320
3.72328e-320
1.69306e-319
1.61994e-319
1.54979e-319
1.48239e-319
1.41777e-319
1.35591e-319
1.29643e-319
1.23961e-319
1.18516e-319
1.13319e-319
1.08339e-319
1.03586e-319
9.90503e-320
9.47223e-320
9.05919e-320
8.66394e-320
8.28449e-320
7.91888e-320
7.56711e-320
7.22719e-320
6.89913e-320
6.58392e-320
6.28353e-320
5.99895e-320
5.72919e-320
5.47326e-320
5.23018e-320
4.99994e-320
4.7786e-320
4.56912e-320
3.75688e-320
3.7628e-320
3.76676e-320
3.77071e-320
3.7717e-320
3.77071e-320
3.76774e-320
3.7628e-320
3.7549e-320
3.74699e-320
3.73514e-320
3.72328e-320
3.71439e-320
3.72328e-320
3.76972e-320
3.84185e-320
3.87743e-320
3.84383e-320
3.77269e-320
3.72624e-320
1.69356e-319
1.62034e-319
1.55018e-319
1.48279e-319
1.41817e-319
1.35611e-319
1.29672e-319
1.23981e-319
1.18536e-319
1.13339e-319
1.08358e-319
1.03596e-319
9.907e-320
9.47321e-320
9.06018e-320
8.66394e-320
8.28548e-320
7.92086e-320
7.5681e-320
7.22719e-320
6.89913e-320
6.58491e-320
6.28452e-320
5.99895e-320
5.72919e-320
5.47326e-320
5.23117e-320
4.99994e-320
4.77959e-320
4.56912e-320
3.75688e-320
3.7628e-320
3.76676e-320
3.77071e-320
3.7717e-320
3.77071e-320
3.76774e-320
3.7628e-320
3.7549e-320
3.74601e-320
3.73514e-320
3.72328e-320
3.71537e-320
3.72525e-320
3.77269e-320
3.84185e-320
3.87743e-320
3.84383e-320
3.77466e-320
3.72921e-320
1.69405e-319
1.62073e-319
1.55058e-319
1.48319e-319
1.41846e-319
1.35641e-319
1.29702e-319
1.2401e-319
1.18556e-319
1.13349e-319
1.08368e-319
1.03615e-319
9.90799e-320
9.4742e-320
9.06116e-320
8.66591e-320
8.28647e-320
7.92185e-320
7.56909e-320
7.22917e-320
6.90012e-320
6.58491e-320
6.28452e-320
5.99993e-320
5.72919e-320
5.47425e-320
5.23117e-320
4.99994e-320
4.78058e-320
4.56912e-320
3.75688e-320
3.7628e-320
3.76676e-320
3.77071e-320
3.7717e-320
3.77071e-320
3.76774e-320
3.7628e-320
3.7549e-320
3.74601e-320
3.73514e-320
3.72229e-320
3.71537e-320
3.72723e-320
3.77565e-320
3.84383e-320
3.87545e-320
3.84383e-320
3.77664e-320
3.73118e-320
1.69455e-319
1.62113e-319
1.55097e-319
1.48348e-319
1.41876e-319
1.3567e-319
1.29722e-319
1.2403e-319
1.18576e-319
1.13358e-319
1.08388e-319
1.03635e-319
9.90898e-320
9.47618e-320
9.06314e-320
8.66789e-320
8.28845e-320
7.92284e-320
7.57106e-320
7.22917e-320
6.90111e-320
6.58491e-320
6.28452e-320
5.99993e-320
5.72919e-320
5.47425e-320
5.23117e-320
4.99994e-320
4.78058e-320
4.56912e-320
3.75688e-320
3.7628e-320
3.76676e-320
3.77071e-320
3.7717e-320
3.77071e-320
3.76774e-320
3.7628e-320
3.7549e-320
3.74502e-320
3.73415e-320
3.7213e-320
3.71537e-320
3.72921e-320
3.77861e-320
3.84383e-320
3.87347e-320
3.84284e-320
3.77861e-320
3.73316e-320
0
1.62162e-319
1.55137e-319
1.48378e-319
1.41906e-319
1.3569e-319
1.29742e-319
1.2405e-319
1.18596e-319
1.13378e-319
1.08398e-319
1.03645e-319
9.91096e-320
9.47816e-320
9.06413e-320
8.66888e-320
8.28943e-320
7.92481e-320
7.57106e-320
7.23114e-320
6.90111e-320
6.5859e-320
6.28452e-320
5.99993e-320
5.72919e-320
5.47425e-320
5.23117e-320
5.00093e-320
4.78058e-320
4.57011e-320
3.75688e-320
3.7628e-320
3.76774e-320
3.77071e-320
3.7717e-320
3.77071e-320
3.76676e-320
3.7628e-320
3.7549e-320
3.74502e-320
3.73316e-320
3.7213e-320
3.71636e-320
3.73118e-320
3.78059e-320
3.84383e-320
3.8715e-320
3.84185e-320
3.78059e-320
3.73514e-320
0
1.62212e-319
1.55176e-319
1.48417e-319
1.41935e-319
1.3572e-319
1.29761e-319
1.2407e-319
1.18615e-319
1.13398e-319
1.08418e-319
1.03655e-319
9.91194e-320
9.47914e-320
9.06512e-320
8.66986e-320
8.29042e-320
7.92481e-320
7.57304e-320
7.23114e-320
6.9021e-320
6.58688e-320
6.2855e-320
5.99993e-320
5.73017e-320
5.47425e-320
5.23216e-320
5.00192e-320
4.78058e-320
4.57011e-320
3.75786e-320
3.7628e-320
3.76774e-320
3.77071e-320
3.7717e-320
3.77071e-320
3.76676e-320
3.7628e-320
3.7549e-320
3.74502e-320
3.73316e-320
3.7213e-320
3.71735e-320
3.73316e-320
3.78257e-320
3.84383e-320
3.87051e-320
3.84185e-320
3.78158e-320
3.73711e-320
0
1.62251e-319
1.55216e-319
1.48457e-319
1.41965e-319
1.35749e-319
1.29791e-319
1.2409e-319
1.18635e-319
1.13418e-319
1.08438e-319
1.03675e-319
9.91293e-320
9.48013e-320
9.06709e-320
8.67184e-320
8.2924e-320
7.92679e-320
7.57304e-320
7.23213e-320
6.90309e-320
6.58688e-320
6.28649e-320
5.99993e-320
5.73017e-320
5.47425e-320
5.23216e-320
5.00192e-320
4.78058e-320
4.5711e-320
3.75786e-320
3.7628e-320
3.76774e-320
3.77071e-320
3.7717e-320
3.77071e-320
3.76774e-320
3.7628e-320
3.7549e-320
3.74502e-320
3.73316e-320
3.7213e-320
3.71735e-320
3.73514e-320
3.78454e-320
3.84383e-320
3.86853e-320
3.83988e-320
3.78257e-320
3.73909e-320
0
1.62291e-319
1.55245e-319
1.48477e-319
1.41994e-319
1.35769e-319
1.29821e-319
1.24109e-319
1.18655e-319
1.13437e-319
1.08447e-319
1.03694e-319
9.91491e-320
9.48211e-320
9.06907e-320
8.67283e-320
8.29339e-320
7.92778e-320
7.57501e-320
7.23312e-320
6.90309e-320
6.58688e-320
6.28649e-320
5.99993e-320
5.73116e-320
5.47425e-320
5.23314e-320
5.00192e-320
4.78157e-320
4.5711e-320
3.75786e-320
3.76379e-320
3.76774e-320
3.77071e-320
3.7717e-320
3.77071e-320
3.76774e-320
3.7628e-320
3.7549e-320
3.74502e-320
3.73316e-320
3.7213e-320
3.71834e-320
3.7381e-320
3.78652e-320
3.84383e-320
3.86755e-320
3.83988e-320
3.78454e-320
3.74107e-320
0
1.6233e-319
1.55285e-319
1.48516e-319
1.42024e-319
1.35799e-319
1.2984e-319
1.24129e-319
1.18675e-319
1.13447e-319
1.08457e-319
1.03694e-319
9.91689e-320
9.4831e-320
9.06907e-320
8.67382e-320
8.29437e-320
7.92877e-320
7.576e-320
7.23411e-320
6.90407e-320
6.58787e-320
6.28649e-320
6.00092e-320
5.73116e-320
5.47524e-320
5.23314e-320
5.00192e-320
4.78256e-320
4.5711e-320
3.75885e-320
3.76379e-320
3.76873e-320
3.77071e-320
3.7717e-320
3.77071e-320
3.76774e-320
3.7628e-320
3.7549e-320
3.74502e-320
3.73316e-320
3.7213e-320
3.71933e-320
3.73909e-320
3.7885e-320
3.84383e-320
3.86557e-320
3.8379e-320
3.78454e-320
3.74304e-320
0
1.6237e-319
1.55314e-319
1.48556e-319
1.42054e-319
1.35829e-319
1.2986e-319
1.24149e-319
1.18684e-319
1.13457e-319
1.08477e-319
1.03714e-319
9.91689e-320
9.48408e-320
9.07105e-320
8.67579e-320
8.29635e-320
7.93074e-320
7.57699e-320
7.2351e-320
6.90506e-320
6.58886e-320
6.28649e-320
6.00092e-320
5.73116e-320
5.47622e-320
5.23314e-320
5.00192e-320
4.78256e-320
4.5711e-320
3.75885e-320
3.76379e-320
3.76873e-320
3.77071e-320
3.77269e-320
3.77071e-320
3.76774e-320
3.7628e-320
3.7549e-320
3.74502e-320
3.73316e-320
3.7213e-320
3.72031e-320
3.74107e-320
3.79047e-320
3.84284e-320
3.86359e-320
3.8379e-320
3.78553e-320
3.74502e-320
0
1.62409e-319
1.55354e-319
1.48575e-319
1.42083e-319
1.35848e-319
1.2988e-319
1.24169e-319
1.18704e-319
1.13477e-319
1.08497e-319
1.03734e-319
9.91886e-320
9.48606e-320
9.07302e-320
8.67777e-320
8.29833e-320
7.93173e-320
7.57798e-320
7.2351e-320
6.90506e-320
6.58886e-320
6.28649e-320
6.00092e-320
5.73116e-320
5.47622e-320
5.23314e-320
5.00291e-320
4.78256e-320
4.57208e-320
3.75885e-320
3.76478e-320
3.76873e-320
3.77071e-320
3.77269e-320
3.77071e-320
3.76774e-320
3.7628e-320
3.7549e-320
3.74502e-320
3.73316e-320
3.72229e-320
3.7213e-320
3.74304e-320
3.79146e-320
3.84185e-320
3.86162e-320
3.83593e-320
3.78652e-320
3.74699e-320
0
1.62449e-319
1.55394e-319
1.48615e-319
1.42113e-319
1.35868e-319
1.299e-319
1.24188e-319
1.18714e-319
1.13497e-319
1.08497e-319
1.03744e-319
9.92084e-320
9.48804e-320
9.07401e-320
8.67876e-320
8.29833e-320
7.93272e-320
7.57897e-320
7.23707e-320
6.90605e-320
6.58886e-320
6.28649e-320
6.00191e-320
5.73116e-320
5.47622e-320
5.23314e-320
5.0039e-320
4.78256e-320
4.57307e-320
3.75885e-320
3.76478e-320
3.76873e-320
3.77071e-320
3.77269e-320
3.77071e-320
3.76873e-320
3.7628e-320
3.7549e-320
3.74502e-320
3.73316e-320
3.72328e-320
3.72328e-320
3.74502e-320
3.79245e-320
3.84185e-320
3.85964e-320
3.83494e-320
3.78652e-320
3.74897e-320
0
1.62488e-319
1.55423e-319
1.48645e-319
1.42133e-319
1.35898e-319
1.2992e-319
1.24208e-319
1.18734e-319
1.13517e-319
1.08517e-319
1.03754e-319
9.92183e-320
9.48804e-320
9.075e-320
8.67975e-320
8.3003e-320
7.93469e-320
7.57996e-320
7.23707e-320
6.90704e-320
6.58886e-320
6.28748e-320
6.00191e-320
5.73116e-320
5.47622e-320
5.23413e-320
5.0039e-320
4.78354e-320
4.57307e-320
3.75885e-320
3.76478e-320
3.76873e-320
3.7717e-320
3.77269e-320
3.77071e-320
3.76873e-320
3.7628e-320
3.7549e-320
3.74502e-320
3.73316e-320
3.72328e-320
3.72328e-320
3.74699e-320
3.79344e-320
3.84087e-320
3.85766e-320
3.83395e-320
3.78751e-320
3.74996e-320
0
1.62528e-319
1.55463e-319
1.48674e-319
1.42162e-319
1.35927e-319
1.29939e-319
1.24228e-319
1.18754e-319
1.13526e-319
1.08536e-319
1.03774e-319
9.92281e-320
9.49001e-320
9.07697e-320
8.68172e-320
8.30228e-320
7.93568e-320
7.58094e-320
7.23806e-320
6.90704e-320
6.58985e-320
6.28748e-320
6.00191e-320
5.73116e-320
5.47622e-320
5.23512e-320
5.0039e-320
4.78453e-320
4.57307e-320
3.75885e-320
3.76478e-320
3.76873e-320
3.7717e-320
3.77269e-320
3.7717e-320
3.76873e-320
3.7628e-320
3.75589e-320
3.74502e-320
3.73316e-320
3.72328e-320
3.72525e-320
3.74897e-320
3.79442e-320
3.83988e-320
3.85569e-320
3.83197e-320
3.7885e-320
3.75095e-320
0
1.62567e-319
1.55492e-319
1.48704e-319
1.42192e-319
1.35947e-319
1.29969e-319
1.24248e-319
1.18773e-319
1.13536e-319
1.08546e-319
1.03783e-319
9.92479e-320
9.49199e-320
9.07895e-320
8.6837e-320
8.30327e-320
7.93667e-320
7.58193e-320
7.23905e-320
6.90704e-320
6.59084e-320
6.28847e-320
6.00191e-320
5.73215e-320
5.47622e-320
5.23512e-320
5.0039e-320
4.78453e-320
4.57307e-320
3.75984e-320
3.76478e-320
3.76873e-320
3.7717e-320
3.77269e-320
3.7717e-320
3.76873e-320
3.7628e-320
3.75589e-320