/*--------------------------------*- C++ -*----------------------------------*\
  =========                 |
  \\      /  F ield         | OpenFOAM: The Open Source CFD Toolbox
   \\    /   O peration     | Website:  https://openfoam.org
    \\  /    A nd           | Version:  9
     \\/     M anipulation  |
\*---------------------------------------------------------------------------*/
FoamFile
{
    format      ascii;
    class       surfaceScalarField;
    location    "0.2";
    object      phi;
}
// * * * * * * * * * * * * * * * * * * * * * * * * * * * * * * * * * * * * * //

dimensions      [0 3 -1 0 0 0 0];

internalField   nonuniform List<scalar> 
9850
(
3.01243e-06
3.74635e-06
3.01272e-06
3.95702e-06
3.01307e-06
4.17629e-06
3.01336e-06
4.4069e-06
3.01352e-06
4.64771e-06
3.01356e-06
4.89827e-06
3.01348e-06
5.15872e-06
3.01332e-06
5.4294e-06
3.01311e-06
5.7107e-06
3.01285e-06
6.00283e-06
3.01256e-06
6.30575e-06
3.01225e-06
6.61913e-06
3.01195e-06
6.94229e-06
3.01167e-06
7.27429e-06
3.01146e-06
7.61437e-06
3.01136e-06
7.96293e-06
3.01138e-06
8.32323e-06
3.01152e-06
8.7029e-06
3.01177e-06
9.11317e-06
3.01207e-06
9.56405e-06
3.01232e-06
1.00577e-05
3.0124e-06
1.05866e-05
3.01226e-06
1.1138e-05
3.01198e-06
1.17006e-05
3.01165e-06
1.22672e-05
3.01139e-06
1.28344e-05
3.01124e-06
1.34007e-05
3.01125e-06
1.39661e-05
3.0114e-06
1.45317e-05
3.01167e-06
1.51004e-05
3.01202e-06
1.82739e-05
3.01229e-06
1.80528e-05
3.01235e-06
1.78536e-05
3.01211e-06
1.77003e-05
3.01169e-06
1.76228e-05
3.01139e-06
1.7645e-05
3.0115e-06
1.77701e-05
3.01218e-06
1.79825e-05
3.01348e-06
1.82656e-05
3.0157e-06
1.86119e-05
3.01955e-06
1.90235e-05
3.02688e-06
1.952e-05
3.04245e-06
2.01601e-05
3.07785e-06
2.11226e-05
3.16641e-06
2.25958e-05
3.69613e-06
2.19346e-05
2.80667e-06
2.0343e-06
2.7289e-06
9.16708e-06
2.93063e-06
2.21275e-05
2.18886e-05
3.01374e-06
3.74614e-06
3.01396e-06
3.95679e-06
3.0144e-06
4.17585e-06
3.01484e-06
4.40646e-06
3.01512e-06
4.64743e-06
3.01518e-06
4.89821e-06
3.01503e-06
5.15886e-06
3.01471e-06
5.42973e-06
3.01424e-06
5.71117e-06
3.01367e-06
6.0034e-06
3.01302e-06
6.3064e-06
3.01235e-06
6.61981e-06
3.01168e-06
6.94295e-06
3.0111e-06
7.27487e-06
3.01067e-06
7.6148e-06
3.01044e-06
7.96316e-06
3.01043e-06
8.32324e-06
3.01062e-06
8.7027e-06
3.01099e-06
9.1128e-06
3.01147e-06
9.56357e-06
3.01189e-06
1.00573e-05
3.01203e-06
1.05865e-05
3.01179e-06
1.11383e-05
3.01121e-06
1.17012e-05
3.01051e-06
1.2268e-05
3.0099e-06
1.2835e-05
3.00955e-06
1.34011e-05
3.00954e-06
1.39661e-05
3.00989e-06
1.45314e-05
3.0105e-06
1.50998e-05
3.01135e-06
1.8273e-05
3.01197e-06
1.80521e-05
3.01211e-06
1.78535e-05
3.01164e-06
1.77007e-05
3.0108e-06
1.76236e-05
3.01033e-06
1.76455e-05
3.01096e-06
1.77695e-05
3.01318e-06
1.79803e-05
3.01741e-06
1.82614e-05
3.02469e-06
1.86046e-05
3.0375e-06
1.90106e-05
3.06105e-06
1.94964e-05
3.10603e-06
2.01151e-05
3.20565e-06
2.1023e-05
3.38561e-06
2.24158e-05
3.93171e-06
2.13885e-05
2.66507e-06
3.30094e-06
2.3936e-06
9.43854e-06
2.73602e-06
2.17851e-05
2.17515e-05
3.01563e-06
3.74638e-06
3.01548e-06
3.95694e-06
3.01559e-06
4.17573e-06
3.01578e-06
4.40627e-06
3.01587e-06
4.64735e-06
3.01577e-06
4.89831e-06
3.01547e-06
5.15916e-06
3.01497e-06
5.43022e-06
3.01431e-06
5.71183e-06
3.01351e-06
6.0042e-06
3.01263e-06
6.30728e-06
3.01171e-06
6.62073e-06
3.01083e-06
6.94383e-06
3.0101e-06
7.27561e-06
3.00959e-06
7.6153e-06
3.00939e-06
7.96337e-06
3.00947e-06
8.32315e-06
3.00978e-06
8.7024e-06
3.0102e-06
9.11238e-06
3.01064e-06
9.56313e-06
3.01094e-06
1.0057e-05
3.01091e-06
1.05865e-05
3.01044e-06
1.11387e-05
3.00961e-06
1.1702e-05
3.00866e-06
1.22689e-05
3.00784e-06
1.28358e-05
3.00739e-06
1.34015e-05
3.00741e-06
1.39661e-05
3.00793e-06
1.45309e-05
3.00882e-06
1.50989e-05
3.01003e-06
1.82718e-05
3.01099e-06
1.80512e-05
3.01127e-06
1.78532e-05
3.01072e-06
1.77013e-05
3.00975e-06
1.76246e-05
3.00931e-06
1.76459e-05
3.01052e-06
1.77682e-05
3.01422e-06
1.79766e-05
3.02121e-06
1.82544e-05
3.03327e-06
1.85925e-05
3.05407e-06
1.89898e-05
3.0913e-06
1.94592e-05
3.15458e-06
2.00518e-05
3.28048e-06
2.08971e-05
3.47903e-06
2.22172e-05
3.99956e-06
2.0868e-05
2.6094e-06
4.6911e-06
2.20192e-06
9.84602e-06
2.60156e-06
2.13855e-05
2.15596e-05
3.01647e-06
3.7466e-06
3.01625e-06
3.95716e-06
3.01622e-06
4.17577e-06
3.01625e-06
4.40624e-06
3.0162e-06
4.6474e-06
3.01596e-06
4.89855e-06
3.0155e-06
5.15962e-06
3.01483e-06
5.43089e-06
3.01398e-06
5.71268e-06
3.01298e-06
6.00519e-06
3.01189e-06
6.30838e-06
3.01076e-06
6.62185e-06
3.0097e-06
6.94489e-06
3.00882e-06
7.27649e-06
3.00823e-06
7.61589e-06
3.00802e-06
7.96358e-06
3.00815e-06
8.32301e-06
3.00853e-06
8.70202e-06
3.00901e-06
9.11191e-06
3.00943e-06
9.56271e-06
3.00964e-06
1.00568e-05
3.00944e-06
1.05867e-05
3.00874e-06
1.11394e-05
3.00765e-06
1.17031e-05
3.00645e-06
1.22701e-05
3.00545e-06
1.28368e-05
3.00489e-06
1.34021e-05
3.00493e-06
1.39661e-05
3.00556e-06
1.45302e-05
3.00666e-06
1.50978e-05
3.00815e-06
1.82703e-05
3.00933e-06
1.805e-05
3.00972e-06
1.78528e-05
3.00916e-06
1.77018e-05
3.00813e-06
1.76256e-05
3.0078e-06
1.76463e-05
3.00952e-06
1.77665e-05
3.01441e-06
1.79717e-05
3.02359e-06
1.82452e-05
3.03905e-06
1.85771e-05
3.0648e-06
1.89641e-05
3.10961e-06
1.94144e-05
3.17896e-06
1.99825e-05
3.30384e-06
2.07722e-05
3.51464e-06
2.20064e-05
3.99945e-06
2.03831e-05
2.64898e-06
6.04157e-06
2.15749e-06
1.03375e-05
2.54681e-06
2.09961e-05
2.13576e-05
3.01628e-06
3.74673e-06
3.01612e-06
3.95732e-06
3.01608e-06
4.17581e-06
3.01608e-06
4.40624e-06
3.01598e-06
4.6475e-06
3.01568e-06
4.89885e-06
3.01513e-06
5.16017e-06
3.01435e-06
5.43168e-06
3.01335e-06
5.71368e-06
3.01219e-06
6.00635e-06
3.01093e-06
6.30965e-06
3.00963e-06
6.62315e-06
3.0084e-06
6.94612e-06
3.00737e-06
7.27752e-06
3.00666e-06
7.6166e-06
3.00637e-06
7.96388e-06
3.00646e-06
8.32292e-06
3.00684e-06
8.70164e-06
3.00732e-06
9.11142e-06
3.00775e-06
9.56228e-06
3.00792e-06
1.00566e-05
3.00762e-06
1.0587e-05
3.00675e-06
1.11403e-05
3.00546e-06
1.17044e-05
3.00403e-06
1.22715e-05
3.00284e-06
1.2838e-05
3.00216e-06
1.34028e-05
3.00216e-06
1.39661e-05
3.00284e-06
1.45296e-05
3.00405e-06
1.50966e-05
3.00571e-06
1.82687e-05
3.00701e-06
1.80487e-05
3.00744e-06
1.78524e-05
3.00684e-06
1.77024e-05
3.00577e-06
1.76267e-05
3.00554e-06
1.76465e-05
3.00764e-06
1.77644e-05
3.01331e-06
1.7966e-05
3.02385e-06
1.82347e-05
3.04115e-06
1.85598e-05
3.06867e-06
1.89366e-05
3.11554e-06
1.93675e-05
3.1843e-06
1.99137e-05
3.29566e-06
2.06609e-05
3.5089e-06
2.17932e-05
3.93384e-06
1.99582e-05
2.72432e-06
7.25109e-06
2.20887e-06
1.0853e-05
2.55381e-06
2.06512e-05
2.11724e-05
3.01555e-06
3.74685e-06
3.01539e-06
3.95748e-06
3.01533e-06
4.17587e-06
3.01529e-06
4.40627e-06
3.01516e-06
4.64763e-06
3.01481e-06
4.8992e-06
3.0142e-06
5.16078e-06
3.01334e-06
5.43254e-06
3.01224e-06
5.71477e-06
3.01097e-06
6.00763e-06
3.00957e-06
6.31104e-06
3.00814e-06
6.62459e-06
3.00678e-06
6.94748e-06
3.00563e-06
7.27867e-06
3.00482e-06
7.6174e-06
3.00444e-06
7.96426e-06
3.00447e-06
8.32289e-06
3.00479e-06
8.70132e-06
3.00524e-06
9.11097e-06
3.00563e-06
9.56189e-06
3.00575e-06
1.00565e-05
3.00536e-06
1.05874e-05
3.00437e-06
1.11413e-05
3.00291e-06
1.17059e-05
3.0013e-06
1.22731e-05
2.99993e-06
1.28394e-05
2.99913e-06
1.34036e-05
2.99906e-06
1.39661e-05
2.99973e-06
1.45289e-05
3.00097e-06
1.50954e-05
3.00269e-06
1.8267e-05
3.00403e-06
1.80474e-05
3.00444e-06
1.78519e-05
3.00379e-06
1.77031e-05
3.00267e-06
1.76278e-05
3.00245e-06
1.76467e-05
3.0047e-06
1.77622e-05
3.01065e-06
1.79601e-05
3.02164e-06
1.82237e-05
3.03942e-06
1.8542e-05
3.06631e-06
1.89097e-05
3.11134e-06
1.93225e-05
3.17523e-06
1.98498e-05
3.26684e-06
2.05693e-05
3.4664e-06
2.15936e-05
3.83389e-06
1.95907e-05
2.79676e-06
8.28822e-06
2.2981e-06
1.13516e-05
2.59242e-06
2.03569e-05
2.10119e-05
3.01435e-06
3.74697e-06
3.01418e-06
3.95765e-06
3.01406e-06
4.17599e-06
3.01397e-06
4.40636e-06
3.01378e-06
4.64783e-06
3.01338e-06
4.8996e-06
3.01271e-06
5.16144e-06
3.01178e-06
5.43347e-06
3.01061e-06
5.71594e-06
3.00924e-06
6.00899e-06
3.00775e-06
6.31253e-06
3.00622e-06
6.62612e-06
3.00476e-06
6.94893e-06
3.00352e-06
7.27992e-06
3.00263e-06
7.61829e-06
3.00218e-06
7.96471e-06
3.00215e-06
8.32292e-06
3.00241e-06
8.70105e-06
3.0028e-06
9.11058e-06
3.00313e-06
9.56157e-06
3.00316e-06
1.00565e-05
3.00268e-06
1.05879e-05
3.00156e-06
1.11424e-05
2.99994e-06
1.17075e-05
2.99817e-06
1.22749e-05
2.99666e-06
1.28409e-05
2.99573e-06
1.34045e-05
2.99557e-06
1.39663e-05
2.9962e-06
1.45283e-05
2.99742e-06
1.50941e-05
2.99912e-06
1.82653e-05
3.00042e-06
1.80461e-05
3.00076e-06
1.78516e-05
3e-06
1.77039e-05
2.99878e-06
1.7629e-05
2.99844e-06
1.76471e-05
3.00056e-06
1.776e-05
3.00632e-06
1.79543e-05
3.01691e-06
1.82131e-05
3.03406e-06
1.85248e-05
3.05866e-06
1.88851e-05
3.09938e-06
1.92818e-05
3.15521e-06
1.9794e-05
3.22552e-06
2.0499e-05
3.40207e-06
2.14171e-05
3.72616e-06
1.92666e-05
2.85308e-06
9.1613e-06
2.39332e-06
1.18114e-05
2.64409e-06
2.01061e-05
2.08752e-05
3.01263e-06
3.74707e-06
3.01245e-06
3.95783e-06
3.01229e-06
4.17615e-06
3.01213e-06
4.40652e-06
3.01187e-06
4.64809e-06
3.01141e-06
4.90007e-06
3.01069e-06
5.16217e-06
3.0097e-06
5.43447e-06
3.00846e-06
5.71718e-06
3.00702e-06
6.01043e-06
3.00545e-06
6.3141e-06
3.00384e-06
6.62773e-06
3.0023e-06
6.95047e-06
3.00099e-06
7.28123e-06
3.00004e-06
7.61924e-06
2.99954e-06
7.96521e-06
2.99946e-06
8.32299e-06
2.99968e-06
8.70083e-06
3.00001e-06
9.11026e-06
3.00025e-06
9.56133e-06
3.00018e-06
1.00565e-05
2.99957e-06
1.05885e-05
2.99831e-06
1.11437e-05
2.99655e-06
1.17093e-05
2.99463e-06
1.22768e-05
2.99297e-06
1.28426e-05
2.99192e-06
1.34056e-05
2.99167e-06
1.39665e-05
2.99222e-06
1.45277e-05
2.99337e-06
1.5093e-05
2.99499e-06
1.82636e-05
2.99618e-06
1.80449e-05
2.99638e-06
1.78514e-05
2.99547e-06
1.77048e-05
2.99405e-06
1.76305e-05
2.99344e-06
1.76477e-05
2.99514e-06
1.77583e-05
3.00028e-06
1.79492e-05
3.00975e-06
1.82037e-05
3.02523e-06
1.85094e-05
3.04662e-06
1.88637e-05
3.08153e-06
1.92469e-05
3.12743e-06
1.97481e-05
3.17892e-06
2.04475e-05
3.33395e-06
2.12621e-05
3.62793e-06
1.89726e-05
2.89804e-06
9.89119e-06
2.48424e-06
1.22252e-05
2.70094e-06
1.98894e-05
2.07596e-05
3.01037e-06
3.74716e-06
3.0102e-06
3.95801e-06
3.01001e-06
4.17634e-06
3.00979e-06
4.40674e-06
3.00947e-06
4.64841e-06
3.00895e-06
4.90058e-06
3.00817e-06
5.16294e-06
3.00713e-06
5.43551e-06
3.00583e-06
5.71847e-06
3.00433e-06
6.01193e-06
3.0027e-06
6.31574e-06
3.00102e-06
6.62941e-06
2.99942e-06
6.95207e-06
2.99805e-06
7.2826e-06
2.99705e-06
7.62024e-06
2.9965e-06
7.96576e-06
2.99638e-06
8.32311e-06
2.99656e-06
8.70066e-06
2.99682e-06
9.10999e-06
2.99698e-06
9.56117e-06
2.9968e-06
1.00567e-05
2.99606e-06
1.05892e-05
2.99466e-06
1.11451e-05
2.99275e-06
1.17112e-05
2.99068e-06
1.22789e-05
2.98887e-06
1.28444e-05
2.9877e-06
1.34067e-05
2.98733e-06
1.39669e-05
2.98777e-06
1.45273e-05
2.98882e-06
1.50919e-05
2.9903e-06
1.82622e-05
2.99132e-06
1.80439e-05
2.99133e-06
1.78514e-05
2.99019e-06
1.77059e-05
2.98847e-06
1.76322e-05
2.98742e-06
1.76487e-05
2.98848e-06
1.77573e-05
2.99262e-06
1.7945e-05
3.00042e-06
1.81959e-05
3.0125e-06
1.84973e-05
3.03148e-06
1.88447e-05
3.05909e-06
1.92192e-05
3.09496e-06
1.97122e-05
3.13181e-06
2.04106e-05
3.27309e-06
2.11208e-05
3.54625e-06
1.86995e-05
2.93811e-06
1.04993e-05
2.56933e-06
1.2594e-05
2.75784e-06
1.97009e-05
2.06617e-05
3.00761e-06
3.74725e-06
3.00743e-06
3.95818e-06
3.00722e-06
4.17655e-06
3.00697e-06
4.407e-06
3.00659e-06
4.64878e-06
3.00603e-06
4.90115e-06
3.0052e-06
5.16376e-06
3.00411e-06
5.4366e-06
3.00277e-06
5.71982e-06
3.00121e-06
6.01348e-06
2.99952e-06
6.31744e-06
2.99778e-06
6.63115e-06
2.99613e-06
6.95372e-06
2.99471e-06
7.28402e-06
2.99366e-06
7.62129e-06
2.99307e-06
7.96635e-06
2.99291e-06
8.32327e-06
2.99304e-06
8.70054e-06
2.99324e-06
9.10979e-06
2.99331e-06
9.5611e-06
2.99302e-06
1.0057e-05
2.99215e-06
1.05901e-05
2.99061e-06
1.11466e-05
2.98854e-06
1.17132e-05
2.98632e-06
1.22811e-05
2.98437e-06
1.28463e-05
2.98305e-06
1.3408e-05
2.98256e-06
1.39674e-05
2.98287e-06
1.4527e-05
2.98378e-06
1.5091e-05
2.98508e-06
1.82609e-05
2.98588e-06
1.80431e-05
2.98564e-06
1.78516e-05
2.98419e-06
1.77074e-05
2.98208e-06
1.76343e-05
2.98048e-06
1.76503e-05
2.98068e-06
1.77571e-05
2.98359e-06
1.79421e-05
2.98967e-06
1.81898e-05
2.99986e-06
1.84871e-05
3.01593e-06
1.88286e-05
3.03243e-06
1.92027e-05
3.06088e-06
1.96838e-05
3.08585e-06
2.03857e-05
3.22153e-06
2.09851e-05
3.47902e-06
1.8442e-05
2.97347e-06
1.10049e-05
2.6469e-06
1.29205e-05
2.81065e-06
1.95371e-05
2.05778e-05
3.00436e-06
3.74733e-06
3.00419e-06
3.95835e-06
3.00397e-06
4.17677e-06
3.00369e-06
4.40728e-06
3.00328e-06
4.64919e-06
3.00267e-06
4.90176e-06
3.00181e-06
5.16462e-06
3.00068e-06
5.43774e-06
2.99929e-06
5.72121e-06
2.99769e-06
6.01509e-06
2.99594e-06
6.31918e-06
2.99415e-06
6.63294e-06
2.99244e-06
6.95543e-06
2.99097e-06
7.28549e-06
2.98988e-06
7.62238e-06
2.98925e-06
7.96698e-06
2.98905e-06
8.32347e-06
2.98913e-06
8.70046e-06
2.98927e-06
9.10964e-06
2.98926e-06
9.56111e-06
2.98886e-06
1.00574e-05
2.98786e-06
1.05911e-05
2.98617e-06
1.11483e-05
2.98395e-06
1.17155e-05
2.98157e-06
1.22835e-05
2.97947e-06
1.28484e-05
2.978e-06
1.34095e-05
2.97736e-06
1.3968e-05
2.97752e-06
1.45268e-05
2.97827e-06
1.50903e-05
2.97934e-06
1.82598e-05
2.97989e-06
1.80425e-05
2.97934e-06
1.78522e-05
2.97754e-06
1.77092e-05
2.97496e-06
1.76369e-05
2.97271e-06
1.76526e-05
2.97194e-06
1.77579e-05
2.97344e-06
1.79406e-05
2.97747e-06
1.81858e-05
2.98418e-06
1.84804e-05
2.994e-06
1.88188e-05
3.00448e-06
1.91923e-05
3.02778e-06
1.96605e-05
3.03992e-06
2.03735e-05
3.17667e-06
2.08483e-05
3.42076e-06
1.81979e-05
3.00114e-06
1.14245e-05
2.71367e-06
1.3208e-05
2.85619e-06
1.93946e-05
2.05043e-05
3.00069e-06
3.74741e-06
3.00053e-06
3.95851e-06
3.00031e-06
4.17699e-06
3.00001e-06
4.40758e-06
2.99957e-06
4.64963e-06
2.99892e-06
4.9024e-06
2.99802e-06
5.16552e-06
2.99685e-06
5.43891e-06
2.99542e-06
5.72264e-06
2.99376e-06
6.01674e-06
2.99197e-06
6.32098e-06
2.99012e-06
6.63479e-06
2.98836e-06
6.95719e-06
2.98685e-06
7.28701e-06
2.98571e-06
7.62351e-06
2.98504e-06
7.96765e-06
2.9848e-06
8.32371e-06
2.98483e-06
8.70043e-06
2.98492e-06
9.10955e-06
2.98483e-06
9.5612e-06
2.98433e-06
1.00579e-05
2.98319e-06
1.05922e-05
2.98135e-06
1.11501e-05
2.97897e-06
1.17178e-05
2.97643e-06
1.2286e-05
2.97416e-06
1.28507e-05
2.97254e-06
1.34111e-05
2.97174e-06
1.39688e-05
2.97174e-06
1.45268e-05
2.97231e-06
1.50897e-05
2.97313e-06
1.8259e-05
2.97339e-06
1.80423e-05
2.9725e-06
1.78531e-05
2.97029e-06
1.77114e-05
2.9672e-06
1.764e-05
2.96422e-06
1.76556e-05
2.9624e-06
1.77597e-05
2.96239e-06
1.79406e-05
2.96428e-06
1.81839e-05
2.96793e-06
1.84767e-05
2.97421e-06
1.88125e-05
2.98112e-06
1.91853e-05
2.98999e-06
1.96516e-05
2.99873e-06
2.03648e-05
3.13595e-06
2.07111e-05
3.36824e-06
1.79656e-05
3.02025e-06
1.17725e-05
2.76771e-06
1.34606e-05
2.893e-06
1.92693e-05
2.0438e-05
2.99666e-06
3.74749e-06
2.9965e-06
3.95867e-06
2.99627e-06
4.17722e-06
2.99595e-06
4.40791e-06
2.99548e-06
4.6501e-06
2.9948e-06
4.90308e-06
2.99386e-06
5.16646e-06
2.99264e-06
5.44013e-06
2.99116e-06
5.72412e-06
2.98946e-06
6.01844e-06
2.98761e-06
6.32283e-06
2.98571e-06
6.63669e-06
2.9839e-06
6.959e-06
2.98233e-06
7.28857e-06
2.98116e-06
7.62469e-06
2.98045e-06
7.96835e-06
2.98017e-06
8.32399e-06
2.98017e-06
8.70043e-06
2.98021e-06
9.10951e-06
2.98004e-06
9.56136e-06
2.97943e-06
1.00585e-05
2.97816e-06
1.05935e-05
2.97617e-06
1.11521e-05
2.97362e-06
1.17204e-05
2.9709e-06
1.22888e-05
2.96846e-06
1.28531e-05
2.96667e-06
1.34129e-05
2.96571e-06
1.39698e-05
2.96554e-06
1.4527e-05
2.96592e-06
1.50893e-05
2.96648e-06
1.82584e-05
2.96642e-06
1.80423e-05
2.96517e-06
1.78543e-05
2.96252e-06
1.7714e-05
2.95886e-06
1.76436e-05
2.95511e-06
1.76593e-05
2.95219e-06
1.77626e-05
2.95067e-06
1.79422e-05
2.95051e-06
1.8184e-05
2.9514e-06
1.84758e-05
2.95381e-06
1.88101e-05
2.95534e-06
1.91838e-05
2.95574e-06
1.96512e-05
2.96655e-06
2.0354e-05
3.09918e-06
2.05785e-05
3.3216e-06
1.77432e-05
3.03226e-06
1.20618e-05
2.81007e-06
1.36827e-05
2.92162e-06
1.91578e-05
2.03764e-05
2.99227e-06
3.74756e-06
2.9921e-06
3.95883e-06
2.99186e-06
4.17746e-06
2.99152e-06
4.40825e-06
2.99102e-06
4.6506e-06
2.9903e-06
4.9038e-06
2.98932e-06
5.16744e-06
2.98806e-06
5.44139e-06
2.98653e-06
5.72565e-06
2.98478e-06
6.02019e-06
2.98287e-06
6.32474e-06
2.98092e-06
6.63864e-06
2.97906e-06
6.96086e-06
2.97745e-06
7.29018e-06
2.97623e-06
7.6259e-06
2.97549e-06
7.96909e-06
2.97518e-06
8.3243e-06
2.97514e-06
8.70047e-06
2.97513e-06
9.10952e-06
2.9749e-06
9.5616e-06
2.97418e-06
1.00592e-05
2.97277e-06
1.05949e-05
2.97061e-06
1.11543e-05
2.96789e-06
1.17231e-05
2.96499e-06
1.22917e-05
2.96237e-06
1.28557e-05
2.96041e-06
1.34149e-05
2.95928e-06
1.39709e-05
2.95893e-06
1.45273e-05
2.95911e-06
1.50892e-05
2.95939e-06
1.82581e-05
2.959e-06
1.80427e-05
2.95736e-06
1.78559e-05
2.95425e-06
1.77171e-05
2.95e-06
1.76479e-05
2.94545e-06
1.76639e-05
2.94145e-06
1.77666e-05
2.93843e-06
1.79452e-05
2.93631e-06
1.81861e-05
2.93458e-06
1.84776e-05
2.9334e-06
1.88113e-05
2.93066e-06
1.91866e-05
2.92411e-06
1.96578e-05
2.93364e-06
2.03444e-05
3.06631e-06
2.04458e-05
3.28198e-06
1.75275e-05
3.0401e-06
1.23037e-05
2.8436e-06
1.38792e-05
2.94379e-06
1.90576e-05
2.03182e-05
2.98753e-06
3.74765e-06
2.98735e-06
3.95901e-06
2.98709e-06
4.17772e-06
2.98673e-06
4.40862e-06
2.9862e-06
4.65113e-06
2.98544e-06
4.90455e-06
2.98443e-06
5.16846e-06
2.98312e-06
5.44269e-06
2.98154e-06
5.72723e-06
2.97974e-06
6.022e-06
2.97778e-06
6.3267e-06
2.97577e-06
6.64065e-06
2.97385e-06
6.96277e-06
2.9722e-06
7.29184e-06
2.97094e-06
7.62715e-06
2.97017e-06
7.96987e-06
2.96983e-06
8.32464e-06
2.96976e-06
8.70054e-06
2.9697e-06
9.10958e-06
2.96939e-06
9.56191e-06
2.96857e-06
1.00601e-05
2.96702e-06
1.05964e-05
2.9647e-06
1.11566e-05
2.96179e-06
1.1726e-05
2.95871e-06
1.22948e-05
2.95591e-06
1.28585e-05
2.95377e-06
1.3417e-05
2.95246e-06
1.39722e-05
2.95193e-06
1.45278e-05
2.9519e-06
1.50892e-05
2.95189e-06
1.82581e-05
2.95116e-06
1.80434e-05
2.94912e-06
1.7858e-05
2.94552e-06
1.77207e-05
2.94068e-06
1.76527e-05
2.93533e-06
1.76692e-05
2.93025e-06
1.77717e-05
2.9258e-06
1.79496e-05
2.92181e-06
1.81901e-05
2.91767e-06
1.84817e-05
2.91333e-06
1.88156e-05
2.90666e-06
1.91932e-05
2.89444e-06
1.967e-05
2.9042e-06
2.03347e-05
3.03876e-06
2.03113e-05
3.24898e-06
1.73173e-05
3.04537e-06
1.25073e-05
2.87038e-06
1.40542e-05
2.96098e-06
1.8967e-05
2.02625e-05
2.98246e-06
3.74774e-06
2.98227e-06
3.9592e-06
2.98199e-06
4.178e-06
2.98159e-06
4.40901e-06
2.98102e-06
4.65169e-06
2.98023e-06
4.90534e-06
2.97917e-06
5.16952e-06
2.97782e-06
5.44404e-06
2.9762e-06
5.72885e-06
2.97434e-06
6.02386e-06
2.97232e-06
6.32872e-06
2.97026e-06
6.64271e-06
2.96829e-06
6.96474e-06
2.96659e-06
7.29354e-06
2.9653e-06
7.62844e-06
2.9645e-06
7.97067e-06
2.96414e-06
8.325e-06
2.96403e-06
8.70065e-06
2.96393e-06
9.10968e-06
2.96354e-06
9.56229e-06
2.96261e-06
1.0061e-05
2.96092e-06
1.05981e-05
2.95843e-06
1.11591e-05
2.95535e-06
1.17291e-05
2.95207e-06
1.2298e-05
2.94909e-06
1.28615e-05
2.94677e-06
1.34194e-05
2.94528e-06
1.39737e-05
2.94456e-06
1.45286e-05
2.94432e-06
1.50895e-05
2.94401e-06
1.82584e-05
2.94293e-06
1.80445e-05
2.94048e-06
1.78604e-05
2.93641e-06
1.77248e-05
2.93096e-06
1.76582e-05
2.92484e-06
1.76753e-05
2.91872e-06
1.77778e-05
2.91289e-06
1.79554e-05
2.90715e-06
1.81959e-05
2.90082e-06
1.8488e-05
2.89361e-06
1.88228e-05
2.88328e-06
1.92036e-05
2.86686e-06
1.96864e-05
2.87765e-06
2.03239e-05
3.01701e-06
2.01719e-05
3.22024e-06
1.71141e-05
3.04681e-06
1.26808e-05
2.89046e-06
1.42106e-05
2.9736e-06
1.88838e-05
2.02084e-05
2.97711e-06
3.74784e-06
2.97689e-06
3.95942e-06
2.97657e-06
4.17831e-06
2.97614e-06
4.40945e-06
2.97553e-06
4.6523e-06
2.97469e-06
4.90618e-06
2.97358e-06
5.17063e-06
2.97218e-06
5.44544e-06
2.97051e-06
5.73053e-06
2.96859e-06
6.02577e-06
2.96652e-06
6.33079e-06
2.9644e-06
6.64483e-06
2.96239e-06
6.96675e-06
2.96065e-06
7.29528e-06
2.95932e-06
7.62977e-06
2.95849e-06
7.9715e-06
2.9581e-06
8.32539e-06
2.95797e-06
8.70079e-06
2.95781e-06
9.10983e-06
2.95735e-06
9.56275e-06
2.95631e-06
1.0062e-05
2.95448e-06
1.06e-05
2.95182e-06
1.11618e-05
2.94855e-06
1.17324e-05
2.94509e-06
1.23015e-05
2.94192e-06
1.28647e-05
2.93942e-06
1.34219e-05
2.93775e-06
1.39754e-05
2.93684e-06
1.45295e-05
2.93638e-06
1.50899e-05
2.93577e-06
1.8259e-05
2.93435e-06
1.80459e-05
2.9315e-06
1.78633e-05
2.92696e-06
1.77294e-05
2.92093e-06
1.76642e-05
2.91406e-06
1.76822e-05
2.90696e-06
1.77849e-05
2.89986e-06
1.79625e-05
2.89251e-06
1.82032e-05
2.88418e-06
1.84964e-05
2.87437e-06
1.88327e-05
2.86069e-06
1.92172e-05
2.84111e-06
1.9706e-05
2.85323e-06
2.03118e-05
2.9958e-06
2.00293e-05
3.19253e-06
1.69174e-05
3.04208e-06
1.28312e-05
2.90265e-06
1.435e-05
2.9812e-06
1.88053e-05
2.01548e-05
2.9715e-06
3.74796e-06
2.97124e-06
3.95968e-06
2.97088e-06
4.17867e-06
2.97039e-06
4.40994e-06
2.96972e-06
4.65297e-06
2.96883e-06
4.90707e-06
2.96767e-06
5.17179e-06
2.96621e-06
5.44689e-06
2.96448e-06
5.73226e-06
2.96251e-06
6.02774e-06
2.96038e-06
6.33292e-06
2.95821e-06
6.647e-06
2.95614e-06
6.96882e-06
2.95436e-06
7.29707e-06
2.953e-06
7.63112e-06
2.95215e-06
7.97235e-06
2.95174e-06
8.3258e-06
2.95158e-06
8.70095e-06
2.95138e-06
9.11003e-06
2.95085e-06
9.56329e-06
2.94969e-06
1.00632e-05
2.94771e-06
1.06019e-05
2.94488e-06
1.11646e-05
2.94142e-06
1.17358e-05
2.93777e-06
1.23051e-05
2.93441e-06
1.2868e-05
2.93173e-06
1.34245e-05
2.92989e-06
1.39772e-05
2.92879e-06
1.45306e-05
2.92812e-06
1.50906e-05
2.92722e-06
1.82599e-05
2.92546e-06
1.80477e-05
2.92223e-06
1.78665e-05
2.91723e-06
1.77344e-05
2.91065e-06
1.76708e-05
2.90309e-06
1.76898e-05
2.89509e-06
1.77929e-05
2.88684e-06
1.79708e-05
2.87804e-06
1.8212e-05
2.86793e-06
1.85065e-05
2.85582e-06
1.88448e-05
2.83912e-06
1.92339e-05
2.81721e-06
1.97279e-05
2.83161e-06
2.02974e-05
2.97678e-06
1.98842e-05
3.16444e-06
1.67297e-05
3.03026e-06
1.29654e-05
2.90626e-06
1.4474e-05
2.98342e-06
1.87281e-05
2.00998e-05
2.96564e-06
3.7481e-06
2.96534e-06
3.95998e-06
2.96492e-06
4.17909e-06
2.96436e-06
4.4105e-06
2.96362e-06
4.6537e-06
2.96266e-06
4.90803e-06
2.96144e-06
5.17301e-06
2.95992e-06
5.44841e-06
2.95812e-06
5.73406e-06
2.95609e-06
6.02978e-06
2.9539e-06
6.33511e-06
2.95167e-06
6.64923e-06
2.94956e-06
6.97093e-06
2.94774e-06
7.29889e-06
2.94636e-06
7.6325e-06
2.94549e-06
7.97322e-06
2.94507e-06
8.32622e-06
2.94489e-06
8.70113e-06
2.94465e-06
9.11027e-06
2.94404e-06
9.56391e-06
2.94276e-06
1.00645e-05
2.94062e-06
1.06041e-05
2.93761e-06
1.11676e-05
2.93396e-06
1.17395e-05
2.93011e-06
1.2309e-05
2.92657e-06
1.28716e-05
2.92372e-06
1.34274e-05
2.9217e-06
1.39792e-05
2.92042e-06
1.45318e-05
2.91955e-06
1.50915e-05
2.91837e-06
1.82611e-05
2.91629e-06
1.80498e-05
2.91269e-06
1.78701e-05
2.90727e-06
1.77398e-05
2.90019e-06
1.76779e-05
2.89199e-06
1.7698e-05
2.88318e-06
1.78017e-05
2.87392e-06
1.79801e-05
2.86387e-06
1.82221e-05
2.85224e-06
1.85181e-05
2.83814e-06
1.88589e-05
2.81889e-06
1.92532e-05
2.79562e-06
1.97512e-05
2.81369e-06
2.02793e-05
2.96164e-06
1.97362e-05
3.13601e-06
1.65553e-05
3.01205e-06
1.30894e-05
2.90238e-06
1.45837e-05
2.98097e-06
1.86495e-05
2.00422e-05
2.95953e-06
3.74827e-06
2.95917e-06
3.96033e-06
2.95868e-06
4.17958e-06
2.95805e-06
4.41114e-06
2.95723e-06
4.65452e-06
2.95619e-06
4.90907e-06
2.95489e-06
5.17431e-06
2.95331e-06
5.44999e-06
2.95144e-06
5.73592e-06
2.94934e-06
6.03187e-06
2.94709e-06
6.33737e-06
2.9448e-06
6.65152e-06
2.94264e-06
6.97309e-06
2.94079e-06
7.30074e-06
2.93939e-06
7.63389e-06
2.93853e-06
7.97408e-06
2.93811e-06
8.32664e-06
2.93791e-06
8.70132e-06
2.93763e-06
9.11055e-06
2.93693e-06
9.5646e-06
2.93553e-06
1.00659e-05
2.93323e-06
1.06064e-05
2.93004e-06
1.11708e-05
2.92619e-06
1.17433e-05
2.92214e-06
1.2313e-05
2.91842e-06
1.28753e-05
2.91539e-06
1.34304e-05
2.91321e-06
1.39814e-05
2.91176e-06
1.45333e-05
2.91069e-06
1.50925e-05
2.90925e-06
1.82626e-05
2.90686e-06
1.80521e-05
2.90292e-06
1.78741e-05
2.8971e-06
1.77456e-05
2.88956e-06
1.76854e-05
2.88079e-06
1.77067e-05
2.87129e-06
1.78112e-05
2.86115e-06
1.79902e-05
2.85004e-06
1.82332e-05
2.83714e-06
1.8531e-05
2.82142e-06
1.88746e-05
2.80016e-06
1.92745e-05
2.77665e-06
1.97747e-05
2.79959e-06
2.02564e-05
2.94934e-06
1.95864e-05
3.10804e-06
1.63966e-05
2.99076e-06
1.32066e-05
2.89404e-06
1.46804e-05
2.97575e-06
1.85678e-05
1.9981e-05
2.95312e-06
3.74846e-06
2.95271e-06
3.96074e-06
2.95215e-06
4.18014e-06
2.95143e-06
4.41185e-06
2.95053e-06
4.65542e-06
2.94941e-06
4.91019e-06
2.94803e-06
5.17569e-06
2.94637e-06
5.45165e-06
2.94444e-06
5.73786e-06
2.94227e-06
6.03404e-06
2.93995e-06
6.33968e-06
2.93761e-06
6.65387e-06
2.9354e-06
6.97529e-06
2.93352e-06
7.30262e-06
2.93212e-06
7.63529e-06
2.93126e-06
7.97495e-06
2.93085e-06
8.32705e-06
2.93065e-06
8.70153e-06
2.93033e-06
9.11087e-06
2.92955e-06
9.56538e-06
2.92801e-06
1.00674e-05
2.92555e-06
1.06088e-05
2.92215e-06
1.11742e-05
2.9181e-06
1.17474e-05
2.91387e-06
1.23173e-05
2.90996e-06
1.28792e-05
2.90677e-06
1.34336e-05
2.90443e-06
1.39838e-05
2.90281e-06
1.45349e-05
2.90156e-06
1.50938e-05
2.89986e-06
1.82643e-05
2.89719e-06
1.80548e-05
2.89292e-06
1.78783e-05
2.88674e-06
1.77518e-05
2.87879e-06
1.76933e-05
2.86952e-06
1.7716e-05
2.8594e-06
1.78213e-05
2.84852e-06
1.80011e-05
2.83654e-06
1.82452e-05
2.82261e-06
1.85449e-05
2.80558e-06
1.88916e-05
2.78284e-06
1.92972e-05
2.76012e-06
1.97974e-05
2.78891e-06
2.02276e-05
2.93977e-06
1.94356e-05
3.08189e-06
1.62545e-05
2.9696e-06
1.33189e-05
2.88487e-06
1.47651e-05
2.9702e-06
1.84825e-05
1.99164e-05
2.9464e-06
3.74868e-06
2.94593e-06
3.96121e-06
2.9453e-06
4.18078e-06
2.9445e-06
4.41266e-06
2.94351e-06
4.6564e-06
2.94231e-06
4.91139e-06
2.94085e-06
5.17715e-06
2.93912e-06
5.45338e-06
2.93711e-06
5.73986e-06
2.93488e-06
6.03628e-06
2.9325e-06
6.34207e-06
2.9301e-06
6.65626e-06
2.92786e-06
6.97753e-06
2.92596e-06
7.30452e-06
2.92455e-06
7.63669e-06
2.9237e-06
7.9758e-06
2.9233e-06
8.32745e-06
2.9231e-06
8.70173e-06
2.92274e-06
9.11123e-06
2.92187e-06
9.56625e-06
2.9202e-06
1.00691e-05
2.91756e-06
1.06115e-05
2.91397e-06
1.11778e-05
2.90972e-06
1.17516e-05
2.90529e-06
1.23217e-05
2.90121e-06
1.28833e-05
2.89786e-06
1.3437e-05
2.89537e-06
1.39863e-05
2.8936e-06
1.45367e-05
2.89217e-06
1.50952e-05
2.89022e-06
1.82662e-05
2.88728e-06
1.80578e-05
2.8827e-06
1.78829e-05
2.87619e-06
1.77583e-05
2.86786e-06
1.77017e-05
2.85814e-06
1.77257e-05
2.84749e-06
1.7832e-05
2.836e-06
1.80126e-05
2.82329e-06
1.82579e-05
2.80852e-06
1.85597e-05
2.79037e-06
1.89098e-05
2.76653e-06
1.9321e-05
2.74535e-06
1.98186e-05
2.78075e-06
2.01922e-05
2.93238e-06
1.9284e-05
3.05879e-06
1.61281e-05
2.95167e-06
1.3426e-05
2.87796e-06
1.48388e-05
2.96631e-06
1.83941e-05
1.98495e-05
2.93933e-06
3.74893e-06
2.9388e-06
3.96173e-06
2.9381e-06
4.18149e-06
2.93722e-06
4.41353e-06
2.93616e-06
4.65746e-06
2.93488e-06
4.91267e-06
2.93335e-06
5.17868e-06
2.93155e-06
5.45519e-06
2.92948e-06
5.74193e-06
2.92718e-06
6.03858e-06
2.92474e-06
6.34451e-06
2.92229e-06
6.65871e-06
2.92002e-06
6.97981e-06
2.9181e-06
7.30644e-06
2.9167e-06
7.63809e-06
2.91586e-06
7.97664e-06
2.91548e-06
8.32784e-06
2.91527e-06
8.70194e-06
2.91487e-06
9.11163e-06
2.91392e-06
9.5672e-06
2.91211e-06
1.00709e-05
2.90929e-06
1.06143e-05
2.90551e-06
1.11816e-05
2.90106e-06
1.17561e-05
2.89644e-06
1.23263e-05
2.89218e-06
1.28876e-05
2.88868e-06
1.34405e-05
2.88604e-06
1.39889e-05
2.88412e-06
1.45386e-05
2.88252e-06
1.50968e-05
2.88034e-06
1.82684e-05
2.87713e-06
1.8061e-05
2.87226e-06
1.78878e-05
2.86544e-06
1.77651e-05
2.85677e-06
1.77104e-05
2.84666e-06
1.77358e-05
2.83556e-06
1.78431e-05
2.82352e-06
1.80246e-05
2.8102e-06
1.82712e-05
2.79469e-06
1.85752e-05
2.77551e-06
1.89289e-05
2.75072e-06
1.93458e-05
2.73149e-06
1.98378e-05
2.7738e-06
2.01499e-05
2.9261e-06
1.91317e-05
3.03913e-06
1.60151e-05
2.93849e-06
1.35267e-05
2.87482e-06
1.49025e-05
2.96497e-06
1.8304e-05
1.97815e-05
2.93189e-06
3.7492e-06
2.93132e-06
3.9623e-06
2.93056e-06
4.18225e-06
2.92962e-06
4.41447e-06
2.92849e-06
4.65859e-06
2.92715e-06
4.91401e-06
2.92555e-06
5.18027e-06
2.92368e-06
5.45705e-06
2.92155e-06
5.74407e-06
2.91919e-06
6.04094e-06
2.9167e-06
6.347e-06
2.91421e-06
6.6612e-06
2.9119e-06
6.98212e-06
2.90997e-06
7.30837e-06
2.90857e-06
7.63949e-06
2.90775e-06
7.97746e-06
2.90737e-06
8.32821e-06
2.90716e-06
8.70215e-06
2.90673e-06
9.11206e-06
2.90569e-06
9.56824e-06
2.90374e-06
1.00728e-05
2.90075e-06
1.06173e-05
2.89677e-06
1.11856e-05
2.89212e-06
1.17607e-05
2.88732e-06
1.23311e-05
2.8829e-06
1.2892e-05
2.87924e-06
1.34441e-05
2.87647e-06
1.39917e-05
2.8744e-06
1.45407e-05
2.87264e-06
1.50986e-05
2.87023e-06
1.82708e-05
2.86676e-06
1.80644e-05
2.86162e-06
1.78929e-05
2.85451e-06
1.77722e-05
2.84553e-06
1.77193e-05
2.83508e-06
1.77463e-05
2.82357e-06
1.78546e-05
2.81108e-06
1.80371e-05
2.79721e-06
1.82851e-05
2.78101e-06
1.85914e-05
2.76077e-06
1.89492e-05
2.735e-06
1.93716e-05
2.71778e-06
1.9855e-05
2.7669e-06
2.01008e-05
2.91985e-06
1.89787e-05
3.02233e-06
1.59126e-05
2.92975e-06
1.36193e-05
2.87518e-06
1.49571e-05
2.96565e-06
1.82135e-05
1.97137e-05
2.92411e-06
3.74948e-06
2.9235e-06
3.9629e-06
2.9227e-06
4.18306e-06
2.9217e-06
4.41547e-06
2.92052e-06
4.65978e-06
2.91912e-06
4.91541e-06
2.91747e-06
5.18192e-06
2.91555e-06
5.45898e-06
2.91336e-06
5.74626e-06
2.91094e-06
6.04335e-06
2.9084e-06
6.34955e-06
2.90586e-06
6.66373e-06
2.90353e-06
6.98446e-06
2.90158e-06
7.31031e-06
2.90018e-06
7.64089e-06
2.89937e-06
7.97827e-06
2.899e-06
8.32858e-06
2.89878e-06
8.70237e-06
2.89831e-06
9.11254e-06
2.89719e-06
9.56936e-06
2.89512e-06
1.00749e-05
2.89196e-06
1.06205e-05
2.88779e-06
1.11897e-05
2.88295e-06
1.17656e-05
2.87796e-06
1.23361e-05
2.87338e-06
1.28966e-05
2.86957e-06
1.34479e-05
2.86666e-06
1.39946e-05
2.86446e-06
1.45429e-05
2.86253e-06
1.51005e-05
2.85991e-06
1.82734e-05
2.8562e-06
1.80682e-05
2.8508e-06
1.78983e-05
2.84343e-06
1.77796e-05
2.83417e-06
1.77286e-05
2.82343e-06
1.7757e-05
2.81158e-06
1.78664e-05
2.79869e-06
1.805e-05
2.78435e-06
1.82994e-05
2.76746e-06
1.86083e-05
2.74607e-06
1.89706e-05
2.71922e-06
1.93984e-05
2.70393e-06
1.98703e-05
2.75939e-06
2.00453e-05
2.91281e-06
1.88253e-05
3.00746e-06