/*--------------------------------*- C++ -*----------------------------------*\
  =========                 |
  \\      /  F ield         | OpenFOAM: The Open Source CFD Toolbox
   \\    /   O peration     | Website:  https://openfoam.org
    \\  /    A nd           | Version:  9
     \\/     M anipulation  |
\*---------------------------------------------------------------------------*/
FoamFile
{
    format      ascii;
    class       volVectorField;
    location    "0.2";
    object      U;
}
// * * * * * * * * * * * * * * * * * * * * * * * * * * * * * * * * * * * * * //

dimensions      [0 1 -1 0 0 0 0];

internalField   nonuniform List<vector> 
5000
(
(5.77804e-05 0 0.0156893)
(0.000115923 0 0.0368587)
(0.000209107 0 0.055835)
(0.000293732 0 0.0742606)
(0.000350495 0 0.091047)
(0.00037478 0 0.105735)
(0.000368714 0 0.118286)
(0.000338914 0 0.128802)
(0.000291693 0 0.137367)
(0.000231859 0 0.143978)
(0.000162943 0 0.148512)
(8.8039e-05 0 0.150729)
(1.10133e-05 0 0.150288)
(-6.23858e-05 0 0.146816)
(-0.000123998 0 0.1401)
(-0.00016416 0 0.130456)
(-0.000174824 0 0.11925)
(-0.000153094 0 0.109202)
(-0.000101667 0 0.103776)
(-3.06034e-05 0 0.105346)
(3.99237e-05 0 0.113314)
(8.17539e-05 0 0.12417)
(7.39509e-05 0 0.133541)
(1.90458e-05 0 0.138178)
(-6.01177e-05 0 0.136525)
(-0.000136092 0 0.128249)
(-0.000188292 0 0.113638)
(-0.000205229 0 0.0932789)
(-0.000184351 0 0.0679965)
(-0.000130298 0 0.0388745)
(-5.06991e-05 0 0.00455143)
(3.05387e-05 0 -0.0323051)
(7.48914e-05 0 -0.0655088)
(5.27867e-05 0 -0.0910778)
(-3.48123e-05 0 -0.103982)
(-0.000134187 0 -0.100225)
(-0.000164158 0 -0.0793028)
(-7.32731e-05 0 -0.0438058)
(0.000172201 0 0.00347143)
(0.00061188 0 0.0612977)
(0.00135173 0 0.130103)
(0.00268539 0 0.213284)
(0.00540924 0 0.320994)
(0.0119358 0 0.483878)
(0.0224061 0 0.735569)
(0.0813417 0 0.679458)
(0.114406 0 -2.82829)
(-0.130279 0 -1.52882)
(-0.0349111 0 0.673902)
(-0.0136711 0 0.610814)
(0.000423626 0 0.0151203)
(0.000410949 0 0.0362975)
(0.000520214 0 0.0551444)
(0.000647656 0 0.0736229)
(0.000740903 0 0.0905535)
(0.000783386 0 0.105396)
(0.000771355 0 0.118076)
(0.000710675 0 0.128688)
(0.000610126 0 0.137324)
(0.000478578 0 0.143986)
(0.000324417 0 0.148559)
(0.000156572 0 0.150807)
(-1.39777e-05 0 0.150387)
(-0.000173172 0 0.146926)
(-0.000303859 0 0.140205)
(-0.000388857 0 0.13054)
(-0.000417279 0 0.119293)
(-0.00038911 0 0.109176)
(-0.000311734 0 0.103654)
(-0.000198846 0 0.105125)
(-7.95816e-05 0 0.113042)
(-4.07423e-06 0 0.123927)
(-1.96041e-05 0 0.133379)
(-0.000132104 0 0.138101)
(-0.000302351 0 0.136503)
(-0.000473819 0 0.128249)
(-0.000597321 0 0.113634)
(-0.000641531 0 0.0932597)
(-0.000596426 0 0.0679571)
(-0.000471629 0 0.0388152)
(-0.00028053 0 0.00448049)
(-8.14866e-05 0 -0.0323877)
(2.98248e-05 0 -0.0655906)
(-1.26542e-05 0 -0.091163)
(-0.000199248 0 -0.104112)
(-0.000396438 0 -0.100471)
(-0.000402828 0 -0.0797199)
(-7.38221e-05 0 -0.0444108)
(0.000721294 0 0.00268024)
(0.00214186 0 0.0602258)
(0.00456137 0 0.128557)
(0.00881606 0 0.210791)
(0.0167969 0 0.316435)
(0.0351614 0 0.473883)
(0.0551576 0 0.715327)
(0.162515 0 0.595014)
(0.171233 0 -2.60799)
(-0.257019 0 -1.49937)
(-0.0866108 0 0.62701)
(-0.0460088 0 0.602186)
(0.000963601 0 0.0153121)
(0.00084424 0 0.0364199)
(0.000854568 0 0.0550722)
(0.000910934 0 0.0735269)
(0.000951774 0 0.0905528)
(0.000952277 0 0.105525)
(0.000901979 0 0.118324)
(0.000800434 0 0.12903)
(0.000653156 0 0.137731)
(0.000468069 0 0.14443)
(0.000254712 0 0.149014)
(2.53679e-05 0 0.151244)
(-0.000203453 0 0.150774)
(-0.000410206 0 0.147227)
(-0.000569594 0 0.140388)
(-0.000658991 0 0.130591)
(-0.000669554 0 0.119227)
(-0.000613526 0 0.109035)
(-0.000515934 0 0.103486)
(-0.000401557 0 0.104973)
(-0.00029992 0 0.112957)
(-0.000258037 0 0.123954)
(-0.000321888 0 0.133527)
(-0.000495888 0 0.138325)
(-0.000734359 0 0.136729)
(-0.000968464 0 0.12841)
(-0.00113442 0 0.113691)
(-0.0011892 0 0.0931992)
(-0.00111767 0 0.0677926)
(-0.000931839 0 0.0385801)
(-0.000653521 0 0.00422928)
(-0.000361699 0 -0.032594)
(-0.000186054 0 -0.0656815)
(-0.000219404 0 -0.0911031)
(-0.000446043 0 -0.103947)
(-0.000679644 0 -0.100346)
(-0.000629598 0 -0.0798005)
(-6.14085e-05 0 -0.0448185)
(0.00123309 0 0.00184551)
(0.00352603 0 0.0587195)
(0.00743567 0 0.125865)
(0.014082 0 0.205815)
(0.0252146 0 0.307308)
(0.0522746 0 0.454675)
(0.0653047 0 0.68191)
(0.208003 0 0.484206)
(0.185032 0 -2.36885)
(-0.316001 0 -1.42935)
(-0.118927 0 0.563344)
(-0.0742437 0 0.572689)
(0.00115968 0 0.0155418)
(0.00106043 0 0.0366296)
(0.00103334 0 0.0551135)
(0.00104827 0 0.07352)
(0.00105224 0 0.0906148)
(0.00101769 0 0.105709)
(0.000930408 0 0.118637)
(0.000788174 0 0.129456)
(0.000595947 0 0.138244)
(0.000361785 0 0.145002)
(9.62967e-05 0 0.149613)
(-0.000186096 0 0.151832)
(-0.000465344 0 0.151307)
(-0.000714865 0 0.147657)
(-0.000903643 0 0.140673)
(-0.00100455 0 0.130711)
(-0.00100853 0 0.119202)
(-0.000934416 0 0.10892)
(-0.000819321 0 0.103346)
(-0.00069936 0 0.104865)
(-0.000610385 0 0.112938)
(-0.000600995 0 0.124078)
(-0.000715193 0 0.133805)
(-0.000951851 0 0.138706)
(-0.0012562 0 0.13713)
(-0.00154824 0 0.128747)
(-0.00175311 0 0.113908)
(-0.00181994 0 0.0932765)
(-0.00173098 0 0.0677431)
(-0.0015011 0 0.0384449)
(-0.00115763 0 0.00407283)
(-0.000796918 0 -0.0326809)
(-0.000575126 0 -0.0656174)
(-0.00059963 0 -0.0908564)
(-0.00084744 0 -0.103594)
(-0.00109372 0 -0.100081)
(-0.000984213 0 -0.0798473)
(-0.000215527 0 -0.0453526)
(0.00147395 0 0.000644547)
(0.00440052 0 0.0565456)
(0.00932305 0 0.122019)
(0.017542 0 0.198841)
(0.0290699 0 0.295634)
(0.062683 0 0.43201)
(0.0618643 0 0.645218)
(0.230575 0 0.390704)
(0.187107 0 -2.14431)
(-0.320005 0 -1.35827)
(-0.131217 0 0.492036)
(-0.0896718 0 0.535908)
(0.00109227 0 0.0156686)
(0.00103018 0 0.0367644)
(0.00100311 0 0.0551338)
(0.00100946 0 0.073502)
(0.00100499 0 0.0906632)
(0.000957895 0 0.105882)
(0.000851244 0 0.118946)
(0.000682589 0 0.129884)
(0.000457468 0 0.138766)
(0.000185041 0 0.145586)
(-0.000122599 0 0.150225)
(-0.000449138 0 0.152433)
(-0.000772109 0 0.151852)
(-0.00106202 0 0.148094)
(-0.00128478 0 0.14096)
(-0.00141066 0 0.130829)
(-0.00142925 0 0.11917)
(-0.00135989 0 0.108795)
(-0.00124275 0 0.10319)
(-0.00111929 0 0.104735)
(-0.00103261 0 0.112891)
(-0.00103888 0 0.12417)
(-0.00118653 0 0.134051)
(-0.00147275 0 0.139061)
(-0.00183485 0 0.137506)
(-0.00218163 0 0.129058)
(-0.00242765 0 0.114094)
(-0.00251499 0 0.0933115)
(-0.0024238 0 0.0676401)
(-0.00217205 0 0.0382465)
(-0.00178933 0 0.00384576)
(-0.00138736 0 -0.0328453)
(-0.0011438 0 -0.065637)
(-0.00117044 0 -0.0907047)
(-0.001436 0 -0.103362)
(-0.00168838 0 -0.0999833)
(-0.00153416 0 -0.0801278)
(-0.000630128 0 -0.0462117)
(0.00131815 0 -0.00101212)
(0.00460098 0 0.053764)
(0.00997286 0 0.117431)
(0.019151 0 0.190889)
(0.0288816 0 0.283536)
(0.0671303 0 0.410917)
(0.0526339 0 0.608538)
(0.232501 0 0.315842)
(0.176431 0 -1.93326)
(-0.290101 0 -1.27828)
(-0.128839 0 0.426707)
(-0.0920345 0 0.501704)
(0.000901293 0 0.0157649)
(0.000851057 0 0.0368776)
(0.000819281 0 0.0551644)
(0.000816429 0 0.0735023)
(0.000804102 0 0.0907323)
(0.000747812 0 0.106082)
(0.000628313 0 0.11929)
(0.000441915 0 0.130356)
(0.000193971 0 0.139335)
(-0.000105822 0 0.146219)
(-0.000444343 0 0.150884)
(-0.00080387 0 0.153077)
(-0.00116026 0 0.15243)
(-0.00148214 0 0.148557)
(-0.00173372 0 0.141262)
(-0.00188409 0 0.130952)
(-0.00192224 0 0.119138)
(-0.00186729 0 0.108662)
(-0.00175997 0 0.103023)
(-0.00164378 0 0.104592)
(-0.0015658 0 0.112834)
(-0.00158752 0 0.124255)
(-0.00176186 0 0.134294)
(-0.00208697 0 0.139412)
(-0.00249598 0 0.137874)
(-0.00288971 0 0.129349)
(-0.00317446 0 0.114242)
(-0.00328655 0 0.0932939)
(-0.00320411 0 0.06747)
(-0.00294778 0 0.0379706)
(-0.00254959 0 0.00353647)
(-0.0021319 0 -0.0330952)
(-0.00188598 0 -0.0657411)
(-0.00192412 0 -0.0906372)
(-0.00220892 0 -0.10322)
(-0.0024737 0 -0.09999)
(-0.00230772 0 -0.0805404)
(-0.0013541 0 -0.0472397)
(0.000699865 0 -0.00288113)
(0.004085 0 0.0507356)
(0.00935692 0 0.112727)
(0.0191038 0 0.182972)
(0.0257814 0 0.272211)
(0.0661957 0 0.393575)
(0.0407134 0 0.573538)
(0.217719 0 0.251813)
(0.158754 0 -1.74398)
(-0.249172 0 -1.19173)
(-0.119268 0 0.373199)
(-0.0859697 0 0.472798)
(0.000600486 0 0.0158579)
(0.000553003 0 0.037002)
(0.000510864 0 0.0552273)
(0.000492471 0 0.0735399)
(0.00046524 0 0.0908357)
(0.000395596 0 0.106318)
(0.000262721 0 0.119677)
(6.10499e-05 0 0.130878)
(-0.000205022 0 0.139962)
(-0.000525884 0 0.146915)
(-0.000887907 0 0.151611)
(-0.00127244 0 0.153787)
(-0.0016541 0 0.153073)
(-0.00200008 0 0.149076)
(-0.00227333 0 0.141613)
(-0.00244238 0 0.131114)
(-0.00249649 0 0.119133)
(-0.00245564 0 0.10855)
(-0.00236193 0 0.102872)
(-0.0022607 0 0.104466)
(-0.00220073 0 0.112799)
(-0.00224498 0 0.124374)
(-0.00244788 0 0.134582)
(-0.00280837 0 0.139817)
(-0.00325774 0 0.138295)
(-0.00369204 0 0.129687)
(-0.00401215 0 0.114429)
(-0.00415046 0 0.0933009)
(-0.00408384 0 0.0673129)
(-0.00383527 0 0.0377004)
(-0.00344019 0 0.00323098)
(-0.00302763 0 -0.0333363)
(-0.00279584 0 -0.0658284)
(-0.00285653 0 -0.0905463)
(-0.00316973 0 -0.103054)
(-0.00346588 0 -0.099976)
(-0.00333291 0 -0.0809408)
(-0.00242237 0 -0.0482608)
(-0.000419209 0 -0.00473139)
(0.00287831 0 0.0477584)
(0.00756737 0 0.108342)
(0.0175786 0 0.175713)
(0.0207832 0 0.262181)
(0.0608756 0 0.38027)
(0.0279253 0 0.542101)
(0.193329 0 0.195216)
(0.139995 0 -1.58293)
(-0.209871 0 -1.10969)
(-0.106855 0 0.328959)
(-0.0755458 0 0.448485)
(0.00016858 0 0.015949)
(0.000125843 0 0.0371405)
(7.61137e-05 0 0.0553313)
(4.17407e-05 0 0.07363)
(-3.2993e-06 0 0.0909877)
(-8.87847e-05 0 0.106596)
(-0.0002358 0 0.120104)
(-0.000451707 0 0.131442)
(-0.000733436 0 0.140636)
(-0.00107182 0 0.147663)
(-0.00145303 0 0.152391)
(-0.00185775 0 0.154552)
(-0.00225955 0 0.153767)
(-0.00262436 0 0.149642)
(-0.00291406 0 0.142002)
(-0.00309686 0 0.131307)
(-0.00316276 0 0.119155)
(-0.00313335 0 0.108462)
(-0.00305299 0 0.102747)
(-0.00296951 0 0.104371)
(-0.00293292 0 0.112803)
(-0.00300552 0 0.124537)
(-0.00324067 0 0.134921)
(-0.00363697 0 0.140278)
(-0.00412457 0 0.138776)
(-0.0045966 0 0.130082)
(-0.00495062 0 0.114664)
(-0.00511673 0 0.0933477)
(-0.00507144 0 0.0671881)
(-0.00484023 0 0.0374581)
(-0.00446261 0 0.00295314)
(-0.00407237 0 -0.0335438)
(-0.00387074 0 -0.0658743)
(-0.00396853 0 -0.0904076)
(-0.00432656 0 -0.102834)
(-0.00468141 0 -0.0999014)
(-0.00463045 0 -0.081269)
(-0.00385135 0 -0.0491866)
(-0.00204997 0 -0.00642991)
(0.00104533 0 0.0450008)
(0.00475258 0 0.104473)
(0.0147401 0 0.169382)
(0.0145875 0 0.253667)
(0.0524505 0 0.370384)
(0.0158279 0 0.514664)
(0.167001 0 0.144202)
(0.123646 0 -1.44912)
(-0.175124 0 -1.03653)
(-0.0932996 0 0.290529)
(-0.0630608 0 0.427664)
(-0.000398679 0 0.016031)
(-0.00043487 0 0.0372813)
(-0.000488704 0 0.0554655)
(-0.000535848 0 0.0737675)
(-0.000596836 0 0.0911868)
(-0.000697435 0 0.106914)
(-0.000857884 0 0.120565)
(-0.00108677 0 0.13204)
(-0.00138224 0 0.141345)
(-0.00173563 0 0.148447)
(-0.00213303 0 0.153207)
(-0.0025546 0 0.155351)
(-0.00297302 0 0.154492)
(-0.0033532 0 0.150234)
(-0.00365626 0 0.142412)
(-0.00385035 0 0.131519)
(-0.00392632 0 0.119193)
(-0.00390733 0 0.108393)
(-0.00383999 0 0.102646)
(-0.00377481 0 0.104307)
(-0.00376331 0 0.112844)
(-0.00386672 0 0.124741)
(-0.00413628 0 0.135304)
(-0.00456928 0 0.140783)
(-0.00509483 0 0.139299)
(-0.00560411 0 0.130515)
(-0.0059925 0 0.114931)
(-0.00618891 0 0.0934213)
(-0.00617025 0 0.0670858)
(-0.00596463 0 0.0372364)
(-0.00561647 0 0.0026971)
(-0.00526348 0 -0.033725)
(-0.00510749 0 -0.0658889)
(-0.00525854 0 -0.0902319)
(-0.00568088 0 -0.102568)
(-0.00612371 0 -0.0997625)
(-0.00620057 0 -0.0815018)
(-0.00562526 0 -0.0499688)
(-0.00416622 0 -0.00788564)
(-0.00132368 0 0.0426661)
(0.00110466 0 0.10112)
(0.0108079 0 0.164116)
(0.00766616 0 0.246802)
(0.0420765 0 0.363208)
(0.0053479 0 0.490244)
(0.143403 0 0.0972606)
(0.110504 0 -1.33809)
(-0.144294 0 -0.971552)
(-0.0794511 0 0.256746)
(-0.0499943 0 0.409907)
(-0.00109266 0 0.0161047)
(-0.00112371 0 0.0374191)
(-0.00118022 0 0.0556174)
(-0.00123596 0 0.0739391)
(-0.00130917 0 0.0914233)
(-0.00142237 0 0.107265)
(-0.00159448 0 0.121055)
(-0.00183473 0 0.132665)
(-0.00214219 0 0.14208)
(-0.00250862 0 0.149258)
(-0.00292002 0 0.15405)
(-0.00335612 0 0.156176)
(-0.00378888 0 0.155241)
(-0.00418247 0 0.150846)
(-0.00449756 0 0.14284)
(-0.00470246 0 0.131744)
(-0.00478877 0 0.119246)
(-0.00478074 0 0.10834)
(-0.00472659 0 0.102566)
(-0.00467939 0 0.104271)
(-0.00469259 0 0.112919)
(-0.00482686 0 0.124983)
(-0.00513126 0 0.135723)
(-0.00560142 0 0.141324)
(-0.00616527 0 0.139855)
(-0.00671245 0 0.130978)
(-0.0071368 0 0.115225)
(-0.00736666 0 0.0935183)
(-0.00737971 0 0.0670048)
(-0.00720685 0 0.0370363)
(-0.00689821 0 0.00246487)
(-0.00659515 0 -0.0338781)
(-0.00649847 0 -0.0658704)
(-0.00671801 0 -0.0900171)
(-0.00722325 0 -0.10225)
(-0.00778022 0 -0.0995461)
(-0.00802244 0 -0.0816127)
(-0.00769664 0 -0.0505658)
(-0.00664624 0 -0.00905062)
(-0.00418307 0 0.0407984)
(-0.00320944 0 0.0982056)
(0.00612382 0 0.160315)
(0.000423567 0 0.241525)
(0.0306372 0 0.358128)
(-0.00339053 0 0.467436)
(0.12335 0 0.0532462)
(0.0996649 0 -1.24574)
(-0.11726 0 -0.913675)
(-0.0661435 0 0.227457)
(-0.0376015 0 0.394872)
(-0.00190793 0 0.016173)
(-0.00193416 0 0.0375515)
(-0.00199074 0 0.0557769)
(-0.00205098 0 0.0741323)
(-0.00213257 0 0.0916874)
(-0.00225563 0 0.107643)
(-0.00243757 0 0.121571)
(-0.00268782 0 0.133315)
(-0.00300604 0 0.142841)
(-0.00338432 0 0.150095)
(-0.00380854 0 0.15492)
(-0.00425801 0 0.157026)
(-0.00470407 0 0.156013)
(-0.00511029 0 0.151479)
(-0.00543702 0 0.143285)
(-0.00565279 0 0.131986)
(-0.00574975 0 0.119315)
(-0.00575285 0 0.108303)
(-0.00571155 0 0.102506)
(-0.00568137 0 0.104262)
(-0.00571819 0 0.113027)
(-0.00588276 0 0.125262)
(-0.00622221 0 0.136182)
(-0.0067303 0 0.141904)
(-0.00733356 0 0.14045)
(-0.00792012 0 0.131477)
(-0.00838252 0 0.115551)
(-0.00864886 0 0.0936443)
(-0.0086979 0 0.0669518)
(-0.00856337 0 0.0368653)
(-0.0083019 0 0.00226527)
(-0.0080585 0 -0.033993)
(-0.00803205 0 -0.0658076)
(-0.00833286 0 -0.0897499)
(-0.00893669 0 -0.101864)
(-0.00962871 0 -0.0992305)
(-0.010065 0 -0.0815727)
(-0.01002 0 -0.0509417)
(-0.00943934 0 -0.00989865)
(-0.00749248 0 0.0393863)
(-0.00771667 0 0.0959923)
(0.000992315 0 0.158112)
(-0.00700976 0 0.237326)
(0.0188554 0 0.354952)
(-0.0108057 0 0.444969)
(0.105694 0 0.0115836)
(0.0900624 0 -1.16909)
(-0.0947399 0 -0.862464)
(-0.0542637 0 0.202189)
(-0.0268193 0 0.381944)
(-0.00282544 0 0.0162362)
(-0.00284859 0 0.0376777)
(-0.00290507 0 0.0559392)
(-0.00296848 0 0.0743399)
(-0.00305683 0 0.0919732)
(-0.00318859 0 0.108045)
(-0.00337981 0 0.12211)
(-0.00363978 0 0.133989)
(-0.00396859 0 0.143627)
(-0.00435857 0 0.150958)
(-0.00479552 0 0.155816)
(-0.00525827 0 0.157903)
(-0.00571754 0 0.156809)
(-0.00613625 0 0.152134)
(-0.00647442 0 0.14375)
(-0.00670064 0 0.132245)
(-0.00680754 0 0.119399)
(-0.00682074 0 0.108284)
(-0.00679108 0 0.102465)
(-0.00677673 0 0.104278)
(-0.00683632 0 0.113168)
(-0.00703113 0 0.125581)
(-0.00740652 0 0.136684)
(-0.00795413 0 0.142527)
(-0.00859872 0 0.141086)
(-0.0092267 0 0.132015)
(-0.00972933 0 0.115914)
(-0.0100346 0 0.0938046)
(-0.0101227 0 0.0669326)
(-0.0100302 0 0.0367299)
(-0.00982117 0 0.00210542)
(-0.00964432 0 -0.0340615)
(-0.0096962 0 -0.0656908)
(-0.0100884 0 -0.0894182)
(-0.0108033 0 -0.101396)
(-0.0116459 0 -0.0987981)
(-0.0122966 0 -0.0813612)
(-0.0125499 0 -0.0510713)
(-0.0124574 0 -0.0103978)
(-0.0110517 0 0.0385131)
(-0.0121586 0 0.0946327)
(-0.00473042 0 0.156825)
(-0.0142081 0 0.234504)
(0.00745835 0 0.353416)
(-0.0176103 0 0.422173)
(0.0895933 0 -0.0280443)
(0.0813021 0 -1.10554)
(-0.0770252 0 -0.817493)
(-0.0443998 0 0.180138)
(-0.0180618 0 0.370453)
(-0.00383425 0 0.0162976)
(-0.00385608 0 0.0378022)
(-0.00391366 0 0.0561061)
(-0.0039805 0 0.0745613)
(-0.00407536 0 0.0922793)
(-0.00421571 0 0.108469)
(-0.0044164 0 0.122672)
(-0.00468645 0 0.134687)
(-0.00502628 0 0.144438)
(-0.00542842 0 0.151848)
(-0.00587853 0 0.156739)
(-0.00635498 0 0.158805)
(-0.00682774 0 0.157629)
(-0.007259 0 0.152809)
(-0.00760827 0 0.144232)
(-0.00784414 0 0.13252)
(-0.00795973 0 0.119499)
(-0.00798156 0 0.108279)
(-0.00796218 0 0.102444)
(-0.00796272 0 0.104319)
(-0.00804472 0 0.113343)
(-0.00827015 0 0.12594)
(-0.00868273 0 0.13723)
(-0.00927177 0 0.143196)
(-0.00995987 0 0.141768)
(-0.0106314 0 0.132596)
(-0.0111762 0 0.116316)
(-0.0115224 0 0.0940017)
(-0.0116515 0 0.0669497)
(-0.0116036 0 0.036633)
(-0.0114505 0 0.00198912)
(-0.0113452 0 -0.0340791)
(-0.0114815 0 -0.0655141)
(-0.0119728 0 -0.0890148)
(-0.0128084 0 -0.100835)
(-0.013812 0 -0.0982389)
(-0.0146895 0 -0.0809683)
(-0.0152463 0 -0.0509446)
(-0.0156304 0 -0.0105419)
(-0.0147672 0 0.0381466)
(-0.016625 0 0.093948)
(-0.0106967 0 0.156144)
(-0.0207035 0 0.233645)
(-0.00344581 0 0.352164)
(-0.0241467 0 0.399548)
(0.0751837 0 -0.0658157)
(0.0735329 0 -1.05285)
(-0.0633939 0 -0.778085)
(-0.0365682 0 0.16057)
(-0.011235 0 0.35989)
(-0.00493212 0 0.0163597)
(-0.00495385 0 0.0379288)
(-0.00501371 0 0.0562801)
(-0.00508448 0 0.074797)
(-0.00518589 0 0.0926059)
(-0.00533479 0 0.108917)
(-0.00554511 0 0.123259)
(-0.00582558 0 0.135409)
(-0.00617678 0 0.145276)
(-0.00659144 0 0.152765)
(-0.00705507 0 0.15769)
(-0.00754548 0 0.159734)
(-0.00803188 0 0.158474)
(-0.00847562 0 0.153506)
(-0.00883565 0 0.144732)
(-0.0090805 0 0.132809)
(-0.00920384 0 0.11961)
(-0.00923333 0 0.108287)
(-0.00922352 0 0.102438)
(-0.00923855 0 0.104385)
(-0.00934288 0 0.113552)
(-0.00959929 0 0.126341)
(-0.01005 0 0.137822)
(-0.0106819 0 0.143913)
(-0.0114152 0 0.142495)
(-0.012132 0 0.133219)
(-0.0127206 0 0.116758)
(-0.0131091 0 0.0942365)
(-0.013281 0 0.0670045)
(-0.0132796 0 0.0365763)
(-0.0131854 0 0.00191862)
(-0.0131554 0 -0.0340427)
(-0.0133808 0 -0.0652741)
(-0.0139771 0 -0.0885354)
(-0.01494 0 -0.100177)
(-0.0161106 0 -0.0975485)
(-0.0172205 0 -0.0803921)
(-0.0180787 0 -0.0505649)
(-0.0189182 0 -0.0103479)
(-0.0185954 0 0.0382305)
(-0.0211008 0 0.0938605)
(-0.0166008 0 0.156229)
(-0.0268388 0 0.234316)
(-0.013553 0 0.350507)
(-0.0300073 0 0.377454)
(0.0627425 0 -0.102147)
(0.0668704 0 -1.00897)
(-0.0527227 0 -0.743374)
(-0.0303512 0 0.143014)
(-0.00597904 0 0.349952)
(-0.00611692 0 0.0164243)
(-0.00613983 0 0.0380605)
(-0.00620322 0 0.0564633)
(-0.00627872 0 0.0750477)
(-0.00638698 0 0.0929526)
(-0.0065445 0 0.109388)
(-0.0067645 0 0.12387)
(-0.00705549 0 0.136158)
(-0.0074182 0 0.14614)
(-0.00784547 0 0.153709)
(-0.00832264 0 0.158669)
(-0.00882697 0 0.16069)
(-0.00932689 0 0.159342)
(-0.0097829 0 0.154222)
(-0.0101534 0 0.145247)
(-0.0104068 0 0.13311)
(-0.0105375 0 0.119732)
(-0.0105744 0 0.108307)
(-0.0105741 0 0.10245)
(-0.0106036 0 0.104475)
(-0.0107304 0 0.113793)
(-0.011018 0 0.126782)
(-0.0115072 0 0.138461)
(-0.0121828 0 0.144678)
(-0.0129623 0 0.14327)
(-0.0137255 0 0.133887)
(-0.014359 0 0.11724)
(-0.014791 0 0.09451)
(-0.0150069 0 0.0670981)
(-0.0150538 0 0.0365614)
(-0.0150208 0 0.00189581)
(-0.0150692 0 -0.0339503)
(-0.015387 0 -0.064968)
(-0.0160919 0 -0.087977)
(-0.0171856 0 -0.0994204)
(-0.0185249 0 -0.096725)
(-0.0198674 0 -0.0796347)
(-0.0210208 0 -0.049941)
(-0.0222903 0 -0.00983526)
(-0.0224947 0 0.0387266)
(-0.0255558 0 0.0943293)
(-0.0223652 0 0.157029)
(-0.0327875 0 0.235991)
(-0.0227418 0 0.348824)
(-0.0350984 0 0.355345)
(0.0524769 0 -0.137578)
(0.0610602 0 -0.972155)
(-0.0442839 0 -0.712559)
(-0.0253654 0 0.127186)
(-0.00196763 0 0.340483)
(-0.00738176 0 0.0164937)
(-0.00740773 0 0.0382018)
(-0.00747663 0 0.0566599)
(-0.00755865 0 0.0753161)
(-0.00767507 0 0.0933208)
(-0.00784199 0 0.109883)
(-0.00807216 0 0.124506)
(-0.00837399 0 0.136932)
(-0.0087484 0 0.147031)
(-0.00918838 0 0.154682)
(-0.00967906 0 0.159675)
(-0.0101972 0 0.161672)
(-0.0107104 0 0.160234)
(-0.0111784 0 0.154958)
(-0.0115589 0 0.145778)
(-0.0118206 0 0.133424)
(-0.0119583 0 0.119866)
(-0.0120024 0 0.10834)
(-0.0120116 0 0.102477)
(-0.012056 0 0.104589)
(-0.0122055 0 0.114069)
(-0.0125245 0 0.127266)
(-0.0130526 0 0.139146)
(-0.0137722 0 0.145491)
(-0.0145985 0 0.144093)
(-0.0154086 0 0.134601)
(-0.0160877 0 0.117765)
(-0.016564 0 0.0948232)
(-0.0168251 0 0.0672318)
(-0.0169212 0 0.0365896)
(-0.016951 0 0.00192228)
(-0.0170795 0 -0.0338002)
(-0.017491 0 -0.0645942)
(-0.0183056 0 -0.0873379)
(-0.0195304 0 -0.0985626)
(-0.0210358 0 -0.0957692)
(-0.0226056 0 -0.0787002)
(-0.0240432 0 -0.0490825)
(-0.025713 0 -0.00902049)
(-0.0264206 0 0.0396051)
(-0.029967 0 0.0953038)
(-0.0279763 0 0.158462)
(-0.038579 0 0.23842)
(-0.0310818 0 0.34713)
(-0.0395334 0 0.332668)
(0.0441598 0 -0.172112)
(0.0554258 0 -0.941027)
(-0.0380399 0 -0.685038)
(-0.0215628 0 0.112811)
(0.00093417 0 0.331383)
(-0.00871705 0 0.0165716)
(-0.00874846 0 0.0383596)
(-0.00882563 0 0.0568772)
(-0.0089171 0 0.0756085)
(-0.00904422 0 0.0937149)
(-0.0092225 0 0.110404)
(-0.00946425 0 0.125169)
(-0.00977794 0 0.137733)
(-0.0101648 0 0.147949)
(-0.0106179 0 0.155682)
(-0.0111224 0 0.160709)
(-0.0116545 0 0.16268)
(-0.0121809 0 0.161148)
(-0.0126606 0 0.155713)
(-0.0130507 0 0.146324)
(-0.0133198 0 0.13375)
(-0.0134637 0 0.12001)
(-0.0135143 0 0.108384)
(-0.0135327 0 0.102522)
(-0.013592 0 0.104728)
(-0.0137646 0 0.114378)
(-0.0141157 0 0.127792)
(-0.0146834 0 0.139879)
(-0.0154478 0 0.146355)
(-0.0163214 0 0.144965)
(-0.0171789 0 0.13536)
(-0.0179038 0 0.118332)
(-0.0184247 0 0.0951769)
(-0.0187311 0 0.0674062)
(-0.0188767 0 0.0366617)
(-0.0189693 0 0.00199868)
(-0.0191777 0 -0.0335919)
(-0.0196821 0 -0.0641524)
(-0.0206046 0 -0.0866186)
(-0.0219576 0 -0.0976056)
(-0.0236226 0 -0.0946847)
(-0.0254086 0 -0.0775962)
(-0.0271137 0 -0.048002)
(-0.0291488 0 -0.00792289)
(-0.0303262 0 0.0408353)
(-0.0343 0 0.0967346)
(-0.0334027 0 0.160476)
(-0.0441892 0 0.241453)
(-0.0387391 0 0.345264)
(-0.0433367 0 0.309186)
(0.0373258 0 -0.20555)
(0.0491468 0 -0.914328)
(-0.034314 0 -0.660428)
(-0.0191921 0 0.0994828)
(0.00270678 0 0.322482)
(-0.0101153 0 0.0166619)
(-0.0101544 0 0.0385419)
(-0.010243 0 0.0571251)
(-0.0103473 0 0.0759342)
(-0.0104885 0 0.0941426)
(-0.010681 0 0.110958)
(-0.0109366 0 0.125862)
(-0.0112639 0 0.138564)
(-0.0116646 0 0.148897)
(-0.012132 0 0.156711)
(-0.0126511 0 0.161771)
(-0.0131976 0 0.163714)
(-0.0137373 0 0.162086)
(-0.0142283 0 0.156486)
(-0.0146271 0 0.146884)
(-0.0149024 0 0.134085)
(-0.015051 0 0.120162)
(-0.0151065 0 0.108439)
(-0.0151331 0 0.102583)
(-0.0152071 0 0.104892)
(-0.0154036 0 0.114723)
(-0.0157879 0 0.128361)
(-0.0163966 0 0.140661)
(-0.0172069 0 0.147269)
(-0.0181286 0 0.145886)
(-0.0190338 0 0.136166)
(-0.0198046 0 0.118942)
(-0.0203697 0 0.0955709)
(-0.0207208 0 0.0676212)
(-0.0209148 0 0.0367775)
(-0.021069 0 0.00212439)
(-0.0213552 0 -0.0333266)
(-0.0219497 0 -0.0636446)
(-0.0229759 0 -0.0858219)
(-0.0244508 0 -0.096554)
(-0.0262654 0 -0.0934786)
(-0.028252 0 -0.0763341)
(-0.030202 0 -0.0467175)
(-0.0325624 0 -0.0065681)
(-0.0341667 0 0.0423823)
(-0.0385085 0 0.0985752)
(-0.0385942 0 0.163025)
(-0.0495381 0 0.244952)
(-0.0457176 0 0.343087)
(-0.0464533 0 0.285093)
(0.031437 0 -0.237667)
(0.0417989 0 -0.890849)
(-0.0332339 0 -0.638508)
(-0.0184652 0 0.0866619)
(0.00336455 0 0.313513)
(-0.011574 0 0.0167684)
(-0.0116228 0 0.0387568)
(-0.0117255 0 0.0574131)
(-0.011846 0 0.076303)
(-0.0120045 0 0.0946128)
(-0.0122142 0 0.111551)
(-0.0124864 0 0.126593)
(-0.0128296 0 0.139429)
(-0.0132458 0 0.149878)
(-0.0137288 0 0.157773)
(-0.0142635 0 0.162863)
(-0.0148251 0 0.164775)
(-0.0153783 0 0.163046)
(-0.0158802 0 0.157276)
(-0.0162866 0 0.147455)
(-0.0165662 0 0.134428)
(-0.016717 0 0.120321)
(-0.0167754 0 0.108502)
(-0.0168089 0 0.102659)
(-0.0168974 0 0.105081)
(-0.0171187 0 0.115104)
(-0.017538 0 0.128976)
(-0.0181894 0 0.141493)
(-0.0190472 0 0.148234)
(-0.0200179 0 0.146857)
(-0.020971 0 0.137017)
(-0.0217871 0 0.119594)
(-0.0223954 0 0.0960044)
(-0.02279 0 0.0678758)
(-0.0230306 0 0.0369355)
(-0.0232438 0 0.00229774)
(-0.0236046 0 -0.0330066)
(-0.0242848 0 -0.063074)
(-0.0254089 0 -0.0849523)
(-0.0269978 0 -0.0954144)
(-0.0289496 0 -0.0921613)
(-0.0311175 0 -0.0749295)
(-0.0332863 0 -0.0452514)
(-0.0359278 0 -0.00498747)
(-0.0379076 0 0.0442058)
(-0.0425516 0 0.100775)
(-0.0435029 0 0.166043)
(-0.0545143 0 0.248764)
(-0.0518688 0 0.340433)
(-0.0487894 0 0.260611)
(0.026074 0 -0.267956)
(0.0335799 0 -0.869528)
(-0.034373 0 -0.619061)
(-0.0192471 0 0.0738078)
(0.00310875 0 0.304189)
(-0.0130966 0 0.0168942)
(-0.0131562 0 0.0390106)
(-0.0132754 0 0.0577492)
(-0.0134145 0 0.0767236)
(-0.0135929 0 0.0951337)
(-0.0138224 0 0.112192)
(-0.0141133 0 0.127365)
(-0.0144743 0 0.140333)
(-0.0149077 0 0.150896)
(-0.0154076 0 0.158869)
(-0.0159587 0 0.163987)
(-0.0165357 0 0.165865)
(-0.0171024 0 0.164028)
(-0.0176143 0 0.158082)
(-0.0180267 0 0.148034)
(-0.0183083 0 0.134774)
(-0.018459 0 0.120481)
(-0.018518 0 0.10857)
(-0.0185571 0 0.102749)
(-0.0186602 0 0.105297)
(-0.0189074 0 0.115524)
(-0.0193636 0 0.129638)
(-0.0200597 0 0.142378)
(-0.0209664 0 0.149253)
(-0.0219869 0 0.147878)
(-0.0229878 0 0.137915)
(-0.0238484 0 0.120287)
(-0.0244985 0 0.096476)
(-0.0249345 0 0.0681681)
(-0.0252196 0 0.0371341)
(-0.0254889 0 0.00251657)
(-0.0259208 0 -0.0326346)
(-0.0266819 0 -0.0624442)
(-0.0278974 0 -0.084015)
(-0.0295912 0 -0.0941946)
(-0.0316668 0 -0.0907443)
(-0.0339957 0 -0.0733993)
(-0.0363556 0 -0.0436285)
(-0.0392334 0 -0.00321489)
(-0.0415343 0 0.0462615)
(-0.0464113 0 0.103274)
(-0.0481094 0 0.169445)
(-0.0590551 0 0.252711)
(-0.0570977 0 0.337079)
(-0.0502533 0 0.235813)
(0.0210808 0 -0.295816)
(0.0251069 0 -0.84955)
(-0.036805 0 -0.601881)
(-0.0210028 0 0.0605155)
(0.00234525 0 0.294302)
(-0.0146907 0 0.0170413)
(-0.0147616 0 0.0393076)
(-0.0148987 0 0.0581389)
(-0.0150577 0 0.0772016)
(-0.0152573 0 0.0957108)
(-0.0155079 0 0.112885)
(-0.0158189 0 0.128185)
(-0.0161989 0 0.141279)
(-0.0166503 0 0.151952)
(-0.0171677 0 0.160001)
(-0.0177356 0 0.165145)
(-0.0183279 0 0.166982)
(-0.0189073 0 0.165032)
(-0.0194281 0 0.1589)
(-0.0198447 0 0.148619)
(-0.0201263 0 0.13512)
(-0.0202745 0 0.12064)
(-0.0203324 0 0.108642)
(-0.0203761 0 0.102852)
(-0.0204941 0 0.10554)
(-0.0207685 0 0.115983)
(-0.0212632 0 0.13035)
(-0.0220058 0 0.143317)
(-0.0229626 0 0.150326)
(-0.0240331 0 0.148951)
(-0.0250813 0 0.138857)
(-0.0259851 0 0.12102)
(-0.0266752 0 0.0969839)
(-0.0271506 0 0.0684964)
(-0.0274782 0 0.0373713)
(-0.0278009 0 0.00277877)
(-0.0283005 0 -0.0322132)
(-0.0291382 0 -0.0617588)
(-0.0304388 0 -0.0830153)
(-0.0322288 0 -0.0929021)
(-0.0344151 0 -0.0892388)
(-0.036885 0 -0.0717603)
(-0.03941 0 -0.0418725)
(-0.0424828 0 -0.00128312)
(-0.0450543 0 0.048506)
(-0.0501012 0 0.106016)
(-0.0524429 0 0.173134)
(-0.0631939 0 0.256605)
(-0.0614767 0 0.332813)
(-0.0508764 0 0.210762)
(0.016482 0 -0.320885)
(0.0171027 0 -0.830444)
(-0.0394392 0 -0.586797)
(-0.0229867 0 0.0465954)
(0.0015598 0 0.283801)
(-0.0163654 0 0.0172106)
(-0.0164474 0 0.0396496)
(-0.0166026 0 0.0585842)
(-0.0167815 0 0.077739)
(-0.0170023 0 0.0963461)
(-0.0172739 0 0.113631)
(-0.0176049 0 0.129054)
(-0.0180037 0 0.14227)
(-0.0184732 0 0.153049)
(-0.0190079 0 0.161169)
(-0.0195922 0 0.166334)
(-0.0201991 0 0.168126)
(-0.0207903 0 0.166054)
(-0.0213186 0 0.159729)
(-0.0217378 0 0.149205)
(-0.0220174 0 0.135462)
(-0.0221616 0 0.120795)
(-0.0222173 0 0.108716)
(-0.0222653 0 0.102969)
(-0.0223986 0 0.10581)
(-0.0227013 0 0.116485)
(-0.0232358 0 0.131114)
(-0.024026 0 0.144312)
(-0.0250334 0 0.151454)
(-0.0261537 0 0.150073)
(-0.0272482 0 0.139844)
(-0.0281937 0 0.121791)
(-0.028922 0 0.0975265)
(-0.0294351 0 0.0688588)
(-0.0298033 0 0.0376452)
(-0.0301775 0 0.00308255)
(-0.0307421 0 -0.0317444)
(-0.0316528 0 -0.0610209)
(-0.033033 0 -0.0819576)
(-0.034911 0 -0.0915436)
(-0.0371963 0 -0.0876549)
(-0.0397892 0 -0.0700269)
(-0.0424566 0 -0.0400042)
(-0.0456895 0 0.000779737)
(-0.0484915 0 0.0509034)
(-0.0536627 0 0.108955)
(-0.0565777 0 0.177027)
(-0.0670492 0 0.26029)
(-0.0652264 0 0.327487)
(-0.0508906 0 0.185548)
(0.0123084 0 -0.343176)
(0.0101299 0 -0.812115)
(-0.0413998 0 -0.573644)
(-0.0245293 0 0.0320727)
(0.00113298 0 0.272791)
(-0.0181285 0 0.0174014)
(-0.0182206 0 0.0400352)
(-0.0183927 0 0.059083)
(-0.01859 0 0.0783335)
(-0.0188302 0 0.0970371)
(-0.0191212 0 0.114429)
(-0.0194709 0 0.129969)
(-0.0198875 0 0.143303)
(-0.0203742 0 0.154184)
(-0.0209254 0 0.162373)
(-0.0215251 0 0.167554)
(-0.0221457 0 0.169294)
(-0.0227475 0 0.167093)
(-0.0232821 0 0.160565)
(-0.0237027 0 0.149791)
(-0.0239796 0 0.135798)
(-0.0241192 0 0.120944)
(-0.0241723 0 0.10879)
(-0.0242248 0 0.103099)
(-0.0243736 0 0.106109)
(-0.0247048 0 0.11703)
(-0.0252796 0 0.131931)
(-0.0261176 0 0.145363)
(-0.0271756 0 0.152637)
(-0.0283452 0 0.151245)
(-0.0294849 0 0.140874)
(-0.0304706 0 0.122599)
(-0.0312355 0 0.098102)
(-0.0317848 0 0.0692539)
(-0.0321924 0 0.0379544)
(-0.0326163 0 0.00342643)
(-0.0332438 0 -0.0312303)
(-0.0342244 0 -0.0602332)
(-0.0356795 0 -0.0808459)
(-0.0376382 0 -0.0901253)
(-0.040012 0 -0.0860015)
(-0.0427122 0 -0.0682117)
(-0.0455035 0 -0.03804)
(-0.0488693 0 0.00295252)
(-0.0518744 0 0.05343)
(-0.0571476 0 0.112066)
(-0.0606077 0 0.181082)
(-0.070777 0 0.263667)
(-0.0686313 0 0.321015)
(-0.0506693 0 0.160222)
(0.00849567 0 -0.363002)
(0.00443251 0 -0.794736)
(-0.0422569 0 -0.562252)
(-0.0252889 0 0.0171243)
(0.00119596 0 0.261485)
(-0.019983 0 0.0176114)
(-0.0200835 0 0.0404594)
(-0.02027 0 0.0596293)
(-0.0204829 0 0.0789783)
(-0.0207397 0 0.0977774)
(-0.0210474 0 0.115273)
(-0.0214135 0 0.130927)
(-0.0218461 0 0.144375)
(-0.0223485 0 0.155356)
(-0.022915 0 0.16361)
(-0.0235292 0 0.168802)
(-0.0241625 0 0.170484)
(-0.024774 0 0.168147)
(-0.0253143 0 0.161408)
(-0.025736 0 0.150375)
(-0.0260102 0 0.136128)
(-0.0261457 0 0.121088)
(-0.026197 0 0.108866)
(-0.0262541 0 0.103243)
(-0.0264182 0 0.106438)
(-0.0267773 0 0.117618)
(-0.0273917 0 0.1328)
(-0.0282769 0 0.14647)
(-0.0293849 0 0.153873)
(-0.030603 0 0.152466)
(-0.0317868 0 0.141946)
(-0.0328116 0 0.123442)
(-0.0336118 0 0.0987094)
(-0.0341961 0 0.0696804)
(-0.0346419 0 0.0382978)
(-0.0351141 0 0.00380912)
(-0.0358024 0 -0.0306726)