/*--------------------------------*- C++ -*----------------------------------*\
  =========                 |
  \\      /  F ield         | OpenFOAM: The Open Source CFD Toolbox
   \\    /   O peration     | Website:  https://openfoam.org
    \\  /    A nd           | Version:  9
     \\/     M anipulation  |
\*---------------------------------------------------------------------------*/
FoamFile
{
    format      ascii;
    class       surfaceScalarField;
    location    "0.19";
    object      alphaPhi0.water;
}
// * * * * * * * * * * * * * * * * * * * * * * * * * * * * * * * * * * * * * //

dimensions      [0 3 -1 0 0 0 0];

internalField   nonuniform List<scalar> 
9850
(
2.40925e-55
-1.46237e-54
4.89789e-55
-1.69241e-54
1.05872e-54
-3.6609e-54
2.33118e-54
-8.47191e-54
5.21426e-54
-2.00291e-53
1.18527e-53
-4.81405e-53
2.7399e-53
-1.17525e-52
6.4498e-53
-2.91191e-52
1.54952e-52
-7.31788e-52
3.80969e-52
-1.86414e-51
9.61415e-52
-4.80974e-51
2.495e-51
-1.25577e-50
6.65456e-51
-3.31266e-50
1.81762e-50
-8.80898e-50
5.04705e-50
-2.35524e-49
1.41077e-49
-6.31147e-49
3.92689e-49
-1.68994e-48
1.07747e-48
-4.50898e-48
2.88947e-48
-1.1965e-47
7.52256e-48
-3.15438e-47
1.89104e-47
-8.25955e-47
4.56811e-47
-2.14824e-46
1.05553e-46
-5.54947e-46
2.32535e-46
-1.42254e-45
4.90489e-46
-3.61202e-45
1.01799e-45
-9.08945e-45
2.2255e-45
-2.29789e-44
5.67871e-45
-6.08017e-44
1.82107e-44
-1.80336e-43
7.23837e-44
-6.3214e-43
3.78918e-43
-3.03054e-42
2.27896e-42
-1.48679e-41
1.87157e-41
-8.21415e-41
2.1229e-40
-6.20369e-40
2.57774e-39
-6.63095e-39
2.96197e-38
-7.87666e-38
3.19632e-37
-9.143e-37
3.25084e-36
-1.01617e-35
3.09463e-35
-1.07352e-34
2.70437e-34
-1.05902e-33
2.07535e-33
-9.42646e-33
1.31525e-32
-7.1302e-32
8.29069e-32
-4.29457e-31
1.10758e-30
-2.52791e-30
2.0952e-29
-3.19357e-29
3.34277e-28
-5.86268e-28
4.09998e-27
-9.171e-27
3.18066e-26
-1.08236e-25
1.3999e-26
-7.78849e-25
-3.09691e-25
9.06742e-55
-5.38691e-54
1.80354e-54
-5.83845e-54
3.84857e-54
-1.23233e-53
8.40227e-54
-2.8055e-53
1.86935e-53
-6.54674e-53
4.23749e-53
-1.55648e-52
9.79035e-53
-3.76422e-52
2.30769e-52
-9.24936e-52
5.55805e-52
-2.30681e-51
1.37037e-51
-5.83393e-51
3.4643e-51
-1.4946e-50
8.98285e-51
-3.87435e-50
2.38481e-50
-1.01466e-49
6.45387e-50
-2.6793e-49
1.76798e-49
-7.11663e-49
4.86022e-49
-1.89635e-48
1.32857e-48
-5.0559e-48
3.58056e-48
-1.34553e-47
9.44444e-48
-3.56809e-47
2.42324e-47
-9.41773e-47
6.01574e-47
-2.47276e-46
1.43753e-46
-6.4564e-46
3.28949e-46
-1.6752e-45
7.18053e-46
-4.31212e-45
1.50096e-45
-1.09829e-44
3.08679e-45
-2.76714e-44
6.67521e-45
-6.98714e-44
1.67669e-44
-1.8402e-43
5.25936e-44
-5.40645e-43
2.0344e-43
-1.86769e-42
1.02473e-42
-8.77777e-42
5.75239e-42
-4.16193e-41
4.30982e-41
-2.14368e-40
4.69696e-40
-1.47311e-39
5.72638e-39
-1.51354e-38
6.68151e-38
-1.81323e-37
7.35725e-37
-2.15085e-36
7.67688e-36
-2.45285e-35
7.54133e-35
-2.66741e-34
6.84547e-34
-2.71972e-33
5.49939e-33
-2.51811e-32
3.5853e-32
-1.99961e-31
1.73152e-31
-1.24478e-30
9.42337e-31
-5.64122e-30
1.37269e-29
-2.91166e-29
2.08609e-28
-4.11974e-28
2.28126e-27
-6.14394e-27
1.17993e-26
-6.48132e-26
-1.05175e-25
-3.12266e-25
1.78816e-24
3.28371e-54
-1.97863e-53
6.288e-54
-1.9454e-53
1.31169e-53
-3.94353e-53
2.8185e-53
-8.74501e-53
6.20148e-53
-1.99902e-52
1.39555e-52
-4.6737e-52
3.21036e-52
-1.11481e-51
7.55038e-52
-2.70763e-51
1.81652e-51
-6.68484e-51
4.47386e-51
-1.67516e-50
1.12831e-50
-4.25481e-50
2.91147e-50
-1.09384e-49
7.66635e-50
-2.84181e-49
2.05041e-49
-7.44732e-49
5.53446e-49
-1.96452e-48
1.49636e-48
-5.20443e-48
4.02135e-48
-1.38155e-47
1.06648e-47
-3.66743e-47
2.77326e-47
-9.72009e-47
7.03099e-47
-2.56928e-46
1.72857e-46
-6.76793e-46
4.09812e-46
-1.7753e-45
9.31505e-46
-4.63131e-45
2.02086e-45
-1.19868e-44
4.19788e-45
-3.06741e-44
8.57451e-45
-7.75191e-44
1.8376e-44
-1.95907e-43
4.54941e-44
-5.14725e-43
1.39837e-43
-1.50077e-42
5.27887e-43
-5.11965e-42
2.57211e-42
-2.36501e-41
1.356e-41
-1.08932e-40
9.15403e-41
-5.26401e-40
9.37515e-40
-3.25086e-39
1.13555e-38
-3.13818e-38
1.33474e-37
-3.74708e-37
1.48424e-36
-4.5003e-36
1.56706e-35
-5.2066e-35
1.56054e-34
-5.74387e-34
1.43932e-33
-5.94215e-33
1.18159e-32
-5.59446e-32
7.95136e-32
-4.55075e-31
3.80493e-31
-2.93729e-30
1.19706e-30
-1.32534e-29
7.90805e-30
-3.9667e-29
1.12707e-28
-2.54922e-28
1.04246e-27
-3.57175e-27
1.35397e-27
-3.19795e-26
-1.77377e-25
-3.88811e-26
3.29143e-24
1.18974e-53
-7.51337e-53
2.15169e-53
-6.51805e-53
4.32203e-53
-1.24447e-52
9.02012e-53
-2.64717e-52
1.94069e-52
-5.84883e-52
4.2951e-52
-1.3297e-51
9.76273e-52
-3.10018e-51
2.27635e-51
-7.39122e-51
5.44039e-51
-1.79712e-50
1.3318e-50
-4.44563e-50
3.33582e-50
-1.11652e-49
8.53257e-50
-2.84153e-49
2.22158e-49
-7.31452e-49
5.86059e-49
-1.90088e-48
1.55743e-48
-4.97756e-48
4.14271e-48
-1.31071e-47
1.09586e-47
-3.46411e-47
2.86521e-47
-9.17355e-47
7.36258e-47
-2.43076e-46
1.84941e-46
-6.43781e-46
4.51625e-46
-1.70264e-45
1.0657e-45
-4.49157e-45
2.41416e-45
-1.17963e-44
5.22263e-45
-3.07451e-44
1.08155e-44
-7.91837e-44
2.19988e-44
-2.01126e-43
4.681e-44
-5.09813e-43
1.14346e-43
-1.33919e-42
3.4478e-43
-3.88177e-42
1.27262e-42
-1.30963e-41
6.01972e-42
-5.95811e-41
2.99988e-41
-2.67561e-40
1.8089e-40
-1.22136e-39
1.69706e-39
-6.72052e-39
2.01925e-38
-5.93833e-38
2.37839e-37
-6.97957e-37
2.65544e-36
-8.43234e-36
2.81594e-35
-9.83083e-35
2.81663e-34
-1.09138e-33
2.60856e-33
-1.13437e-32
2.15444e-32
-1.07265e-31
1.47123e-31
-8.79528e-31
7.21417e-31
-5.78409e-30
1.9848e-30
-2.68638e-29
4.09289e-30
-7.05428e-29
5.35751e-29
-1.41858e-28
3.80119e-28
-1.83138e-27
-1.92205e-27
-1.2638e-26
-5.35722e-26
4.78603e-26
4.50738e-24
4.48206e-53
-2.99067e-52
7.56384e-53
-2.28204e-52
1.43979e-52
-4.05264e-52
2.86689e-52
-8.13646e-52
5.92504e-52
-1.70712e-51
1.26876e-51
-3.70878e-51
2.80945e-51
-8.32075e-51
6.41838e-51
-1.92196e-50
1.50924e-50
-4.55491e-50
3.64384e-50
-1.10373e-49
9.00886e-50
-2.7258e-49
2.27355e-49
-6.84101e-49
5.83404e-49
-1.74037e-48
1.51511e-48
-4.47789e-48
3.96146e-48
-1.16285e-47
1.03709e-47
-3.0421e-47
2.70368e-47
-8.00373e-47
6.98219e-47
-2.11472e-46
1.77715e-46
-5.60444e-46
4.43516e-46
-1.48827e-45
1.07916e-45
-3.95578e-45
2.54324e-45
-1.05079e-44
5.76262e-45
-2.7825e-44
1.24763e-44
-7.31532e-44
2.58492e-44
-1.89967e-43
5.25114e-44
-4.85992e-43
1.11149e-43
-1.23837e-42
2.68142e-43
-3.25904e-42
7.93551e-43
-9.4072e-42
2.86711e-42
-3.14275e-41
1.32079e-41
-1.41015e-40
6.2667e-41
-6.19536e-40
3.37069e-40
-2.69171e-39
2.81903e-39
-1.31809e-38
3.25007e-38
-1.03697e-37
3.82016e-37
-1.18215e-36
4.26725e-36
-1.42915e-35
4.52511e-35
-1.67172e-34
4.52169e-34
-1.85845e-33
4.17634e-33
-1.92953e-32
3.43808e-32
-1.81933e-31
2.35167e-31
-1.48905e-30
1.17031e-30
-9.84118e-30
3.20305e-30
-4.65681e-29
1.94383e-30
-1.22067e-28
2.24211e-29
-7.25073e-29
8.99068e-29
-8.29064e-28
-2.98075e-27
-3.25437e-27
-5.02335e-27
8.02922e-26
4.41959e-24
1.78204e-52
-1.22756e-51
2.82601e-52
-8.47011e-52
5.07054e-52
-1.40866e-51
9.50829e-52
-2.65534e-51
1.85333e-51
-5.22434e-51
3.75965e-51
-1.06569e-50
7.93904e-51
-2.25487e-50
1.74255e-50
-4.94589e-50
3.96439e-50
-1.12207e-49
9.31328e-50
-2.6239e-49
2.24941e-49
-6.29878e-49
5.55929e-49
-1.54585e-48
1.39895e-48
-3.86404e-48
3.5662e-48
-9.80537e-48
9.16252e-48
-2.5192e-47
2.36086e-47
-6.53858e-47
6.07153e-47
-1.71145e-46
1.55132e-46
-4.51135e-46
3.91985e-46
-1.19624e-45
9.74587e-46
-3.18748e-45
2.37025e-45
-8.52388e-45
5.59852e-45
-2.28316e-44
1.27367e-44
-6.10576e-44
2.77041e-44
-1.62219e-43
5.76451e-44
-4.25566e-43
1.17344e-43
-1.09898e-42
2.47516e-43
-2.82183e-42
5.90221e-43
-7.45386e-42
1.71471e-42
-2.1462e-41
6.06735e-42
-7.10768e-41
2.72899e-41
-3.14885e-40
1.24281e-40
-1.35734e-39
6.002e-40
-5.66042e-39
4.36123e-39
-2.48317e-38
4.78494e-38
-1.69447e-37
5.58838e-37
-1.83858e-36
6.22961e-36
-2.21257e-35
6.58571e-35
-2.58848e-34
6.55013e-34
-2.87196e-33
6.00759e-33
-2.96731e-32
4.90055e-32
-2.7774e-31
3.32842e-31
-2.25468e-30
1.66012e-30
-1.48329e-29
4.57945e-30
-7.05653e-29
8.80641e-31
-1.87096e-28
8.03834e-30
-3.53981e-29
-6.1819e-30
-3.22674e-28
-2.69646e-27
4.07721e-28
-5.19318e-27
9.55146e-26
3.6891e-24
7.34009e-52
-5.03384e-51
1.11974e-51
-3.27139e-51
1.91691e-51
-5.21646e-51
3.39925e-51
-9.34888e-51
6.21985e-51
-1.73317e-50
1.1794e-50
-3.30705e-50
2.3272e-50
-6.51883e-50
4.79052e-50
-1.33228e-49
1.02889e-49
-2.82879e-49
2.30014e-49
-6.23918e-49
5.32849e-49
-1.42618e-48
1.27177e-48
-3.36547e-48
3.10774e-48
-8.1604e-48
7.72731e-48
-2.02378e-47
1.9439e-47
-5.11267e-47
4.92204e-47
-1.31146e-46
1.2486e-46
-3.40741e-46
3.15948e-46
-8.95126e-46
7.93945e-46
-2.37434e-45
1.97133e-45
-6.3511e-45
4.80643e-45
-1.71043e-44
1.14173e-44
-4.62617e-44
2.6176e-44
-1.25153e-43
5.74253e-44
-3.36633e-43
1.20464e-43
-8.93948e-43
2.46552e-43
-2.33541e-42
5.19276e-43
-6.05669e-42
1.22505e-42
-1.60882e-41
3.49409e-42
-4.62837e-41
1.21113e-41
-1.52111e-40
5.3293e-41
-6.65942e-40
2.34837e-40
-2.82272e-39
1.03207e-39
-1.13903e-38
6.38758e-39
-4.53669e-38
6.51288e-38
-2.63125e-37
7.51636e-37
-2.6518e-36
8.34438e-36
-3.15693e-35
8.77481e-35
-3.68478e-34
8.66191e-34
-4.07133e-33
7.86122e-33
-4.17501e-32
6.32766e-32
-3.86622e-31
4.24188e-31
-3.09914e-30
2.09882e-30
-2.01558e-29
5.7668e-30
-9.53307e-29
4.24946e-31
-2.527e-28
2.14142e-30
-1.84457e-29
-4.56367e-29
-9.37636e-29
-1.00918e-28
1.92576e-27
-3.88472e-27
9.76658e-26
2.85109e-24
3.02323e-51
-2.00486e-50
4.54584e-51
-1.26996e-50
7.58099e-51
-1.99032e-50
1.29591e-50
-3.46461e-50
2.26017e-50
-6.17417e-50
4.03822e-50
-1.12002e-49
7.43186e-50
-2.07571e-49
1.41694e-49
-3.95036e-49
2.81243e-49
-7.76326e-49
5.82776e-49
-1.58316e-48
1.26042e-48
-3.36083e-48
2.83574e-48
-7.43059e-48
6.59902e-48
-1.70725e-47
1.57757e-47
-4.05939e-47
3.84783e-47
-9.93931e-47
9.51616e-47
-2.49415e-46
2.37339e-46
-6.38926e-46
5.94051e-46
-1.66585e-45
1.48504e-45
-4.41047e-45
3.68766e-45
-1.1834e-44
9.03436e-45
-3.21047e-44
2.16442e-44
-8.77668e-44
5.01721e-44
-2.40534e-43
1.11419e-43
-6.56111e-43
2.36502e-43
-1.76724e-42
4.88273e-43
-4.68069e-42
1.02906e-42
-1.22881e-41
2.40453e-42
-3.28849e-41
6.73521e-42
-9.46801e-41
2.28771e-41
-3.09136e-40
9.86551e-41
-1.33847e-39
4.23673e-40
-5.58763e-39
1.72494e-39
-2.19659e-38
9.01092e-39
-8.08272e-38
8.28801e-38
-3.94648e-37
9.37951e-37
-3.58383e-36
1.03469e-35
-4.1866e-35
1.07962e-34
-4.86403e-34
1.05462e-33
-5.34046e-33
9.44071e-33
-5.42293e-32
7.47337e-32
-4.95513e-31
4.92335e-31
-3.90904e-30
2.39739e-30
-2.50054e-29
6.46179e-30
-1.16549e-28
2.6277e-31
-3.04237e-28
1.79644e-31
-1.23608e-29
-6.92572e-29
-8.63559e-30
-1.50166e-28
3.646e-27
-2.886e-27
1.02664e-25
2.6772e-24
1.20685e-50
-7.61979e-50
1.81693e-50
-4.80857e-50
3.00234e-50
-7.52842e-50
5.04791e-50
-1.29558e-49
8.5843e-50
-2.26629e-49
1.47927e-49
-4.00189e-49
2.59207e-49
-7.1448e-49
4.64032e-49
-1.29402e-48
8.53643e-49
-2.38882e-48
1.62382e-48
-4.52214e-48
3.21146e-48
-8.83794e-48
6.62502e-48
-1.79444e-47
1.42563e-47
-3.80174e-47
3.1897e-47
-8.41643e-47
7.37881e-47
-1.94384e-46
1.75321e-46
-4.66579e-46
4.25024e-46
-1.15845e-45
1.04476e-45
-2.96156e-45
2.58816e-45
-7.76452e-45
6.41864e-45
-2.08008e-44
1.5806e-44
-5.6719e-44
3.82498e-44
-1.56636e-43
8.98601e-44
-4.35101e-43
2.02613e-43
-1.20514e-42
4.36563e-43
-3.29853e-42
9.11953e-43
-8.87565e-42
1.92777e-42
-2.36378e-41
4.46859e-42
-6.38525e-41
1.23025e-41
-1.84291e-40
4.09798e-41
-5.98493e-40
1.73521e-40
-2.56456e-39
7.3073e-40
-1.05558e-38
2.80802e-39
-4.06337e-38
1.24425e-38
-1.40609e-37
9.97805e-38
-5.80438e-37
1.09449e-36
-4.58849e-36
1.19608e-35
-5.19798e-35
1.23484e-34
-5.99429e-34
1.18995e-33
-6.52642e-33
1.04733e-32
-6.54887e-32
8.1286e-32
-5.89158e-31
5.24318e-31
-4.5619e-30
2.49566e-30
-2.85848e-29
6.4917e-30
-1.30318e-28
1.96063e-31
-3.29631e-28
-8.59663e-31
-1.00505e-29
-3.44765e-30
3.96163e-29
-5.62405e-28
5.29641e-27
-2.71526e-27
1.24916e-25
4.03099e-24
4.57874e-50
-2.74032e-49
6.95177e-50
-1.7438e-49
1.14921e-49
-2.74867e-49
1.92528e-49
-4.72477e-49
3.24716e-49
-8.22466e-49
5.51396e-49
-1.43917e-48
9.43764e-49
-2.53118e-48
1.63156e-48
-4.47978e-48
2.85824e-48
-7.99651e-48
5.09763e-48
-1.44493e-47
9.31031e-48
-2.6569e-47
1.75282e-47
-5.00507e-47
3.42262e-47
-9.73338e-47
6.96203e-47
-1.9686e-46
1.47752e-46
-4.16491e-46
3.2662e-46
-9.24564e-46
7.48904e-46
-2.15353e-45
1.7704e-45
-5.25003e-45
4.28337e-45
-1.33407e-44
1.05136e-44
-3.51511e-44
2.59002e-44
-9.54324e-44
6.32076e-44
-2.6487e-43
1.50575e-43
-7.44247e-43
3.45354e-43
-2.09346e-42
7.57443e-43
-5.83067e-42
1.60445e-42
-1.59747e-41
3.41082e-42
-4.32274e-41
7.86054e-42
-1.18103e-40
2.13061e-41
-3.42287e-40
6.97073e-41
-1.10696e-39
2.90513e-40
-4.69757e-39
1.20613e-39
-1.90766e-38
4.44907e-39
-7.21614e-38
1.70229e-38
-2.38493e-37
1.15042e-37
-8.46604e-37
1.20235e-36
-5.62918e-36
1.2964e-35
-6.07952e-35
1.32025e-34
-6.93481e-34
1.25081e-33
-7.47295e-33
1.07872e-32
-7.39644e-32
8.18132e-32
-6.53898e-31
5.14728e-31
-4.95786e-30
2.37771e-30
-3.03155e-29
5.84475e-30
-1.34168e-28
1.09355e-31
-3.22107e-28
-2.17025e-30
-6.15927e-30
-5.65362e-30
1.53892e-28
-6.18207e-28
7.58283e-27
-3.34104e-27
1.92002e-25
7.5236e-24
1.63524e-49
-9.30104e-49
2.50882e-49
-6.00598e-49
4.16652e-49
-9.55575e-49
6.99933e-49
-1.64856e-48
1.18142e-48
-2.87582e-48
2.00196e-48
-5.03526e-48
3.40497e-48
-8.84089e-48
5.81418e-48
-1.55656e-47
9.97671e-48
-2.74967e-47
1.72355e-47
-4.88051e-47
3.00686e-47
-8.72628e-47
5.3203e-47
-1.57782e-46
9.60099e-47
-2.90048e-46
1.77868e-46
-5.4574e-46
3.40633e-46
-1.05922e-45
6.78715e-46
-2.13825e-45
1.41383e-45
-4.52484e-45
3.08491e-45
-1.0101e-44
7.03396e-45
-2.3871e-44
1.66357e-44
-5.96897e-44
4.02939e-44
-1.57094e-43
9.82459e-44
-4.30778e-43
2.36443e-43
-1.21348e-42
5.5142e-43
-3.45503e-42
1.23306e-42
-9.7923e-42
2.65312e-42
-2.73665e-41
5.68776e-42
-7.53548e-41
1.30705e-41
-2.08645e-40
3.49773e-41
-6.08242e-40
1.12696e-40
-1.96125e-39
4.63754e-40
-8.24764e-39
1.90729e-39
-3.30548e-38
6.84822e-39
-1.23138e-37
2.3229e-38
-3.93419e-37
1.28713e-37
-1.23174e-36
1.25132e-36
-6.70019e-36
1.32411e-35
-6.73706e-35
1.32577e-34
-7.56781e-34
1.23031e-33
-8.05698e-33
1.03562e-32
-7.85271e-32
7.64515e-32
-6.81017e-31
4.66956e-31
-5.04423e-30
2.07432e-30
-2.99782e-29
4.66354e-30
-1.27637e-28
1.16882e-32
-2.81634e-28
-3.94713e-30
-7.31862e-31
-7.21998e-30
3.12316e-28
-2.25424e-28
1.08655e-26
-4.93761e-27
3.48324e-25
1.73577e-23
5.47971e-49
-2.9817e-48
8.49142e-49
-1.96004e-48
1.41855e-48
-3.14778e-48
2.39536e-48
-5.46039e-48
4.06165e-48
-9.57408e-48
6.90747e-48
-1.68467e-47
1.17726e-47
-2.97143e-47
2.0096e-47
-5.25076e-47
3.43498e-47
-9.29422e-47
5.88066e-47
-1.64847e-46
1.00922e-46
-2.93257e-46
1.73887e-46
-5.24145e-46
3.0149e-46
-9.43578e-46
5.27712e-46
-1.71666e-45
9.3663e-46
-3.16996e-45
1.69618e-45
-5.97481e-45
3.16065e-45
-1.15802e-44
6.12506e-45
-2.33052e-44
1.24842e-44
-4.92928e-44
2.69604e-44
-1.1099e-43
6.15069e-44
-2.68524e-43
1.45789e-43
-6.97579e-43
3.49606e-43
-1.91919e-42
8.25193e-43
-5.46308e-42
1.87856e-42
-1.57044e-41
4.11133e-42
-4.47473e-41
8.91335e-42
-1.25571e-40
2.05033e-41
-3.52999e-40
5.44028e-41
-1.03682e-39
1.73334e-40
-3.33727e-39
7.07246e-40
-1.39141e-38
2.89386e-39
-5.5032e-38
1.02223e-38
-2.02113e-37
3.1644e-38
-6.29631e-37
1.41752e-37
-1.78794e-36
1.24165e-36
-7.84352e-36
1.28019e-35
-7.11559e-35
1.25567e-34
-7.8238e-34
1.13676e-33
-8.21511e-33
9.29718e-33
-7.87223e-32
6.64756e-32
-6.68523e-31
3.91788e-31
-4.82517e-30
1.65495e-30
-2.77454e-29
3.27988e-30
-1.1246e-28
-2.12132e-32
-2.20023e-28
-1.80073e-30
1.20159e-30
-8.46147e-30
5.3044e-28
-2.43938e-28
1.69009e-26
-8.601e-27
7.16652e-25
4.30219e-23
1.7237e-48
-9.04966e-48
2.6939e-48
-6.06699e-48
4.52689e-48
-9.82455e-48
7.68819e-48
-1.71437e-47
1.31118e-47
-3.0245e-47
2.24257e-47
-5.35727e-47
3.84271e-47
-9.51588e-47
6.59093e-47
-1.69389e-46
1.13075e-46
-3.02046e-46
1.93953e-46
-5.39482e-46
3.32552e-46
-9.65434e-46
5.69997e-46
-1.7322e-45
9.76792e-46
-3.11911e-45
1.67399e-45
-5.64317e-45
2.87012e-45
-1.02715e-44
4.92777e-45
-1.88374e-44
8.49361e-45
-3.48798e-44
1.47905e-44
-6.54485e-44
2.63726e-44
-1.25404e-43
4.92391e-44
-2.49039e-43
9.86805e-44
-5.25065e-43
2.14246e-43
-1.20733e-42
4.93862e-43
-3.06344e-42
1.16007e-42
-8.43174e-42
2.67269e-42
-2.42339e-41
5.9494e-42
-7.01199e-41
1.30815e-41
-2.00654e-40
3.02761e-41
-5.73563e-40
8.01605e-41
-1.69993e-39
2.54101e-40
-5.46777e-39
1.0334e-39
-2.26086e-38
4.22208e-39
-8.82089e-38
1.47815e-38
-3.1944e-37
4.28841e-38
-9.75736e-37
1.55835e-37
-2.57864e-36
1.1829e-36
-9.15321e-36
1.17652e-35
-7.21008e-35
1.12604e-34
-7.69298e-34
9.90042e-34
-7.9526e-33
7.82543e-33
-7.48116e-32
5.38539e-32
-6.20942e-31
3.03822e-31
-4.35479e-30
1.20337e-30
-2.40977e-29
2.03884e-30
-9.18447e-29
-5.00821e-32
-1.54769e-28
-2.37234e-31
3.47297e-30
-1.03069e-29
8.90061e-28
-3.4376e-28
3.15304e-26
-1.6866e-26
1.63027e-24
1.00756e-22
5.10275e-48
-2.61007e-47
8.02891e-48
-1.78643e-47
1.35648e-47
-2.91275e-47
2.31671e-47
-5.1122e-47
3.97436e-47
-9.07659e-47
6.83951e-47
-1.61912e-46
1.17947e-46
-2.89848e-46
2.03621e-46
-5.2037e-46
3.51594e-46
-9.36501e-46
6.06774e-46
-1.68912e-45
1.04596e-45
-3.05344e-45
1.79985e-45
-5.53349e-45
3.08904e-45
-1.00562e-44
5.28068e-45
-1.83296e-44
8.97302e-45
-3.34985e-44
1.51125e-44
-6.13225e-44
2.5145e-44
-1.12251e-43
4.12368e-44
-2.05029e-43
6.6804e-44
-3.73288e-43
1.08427e-43
-6.79912e-43
1.82497e-43
-1.25857e-42
3.35001e-43
-2.4554e-42
6.89879e-43
-5.32175e-42
1.54659e-42
-1.32138e-41
3.54845e-42
-3.65567e-41
8.00729e-42
-1.06018e-40
1.79086e-41
-3.08649e-40
4.20029e-41
-8.97742e-40
1.12024e-40
-2.6881e-39
3.56382e-40
-8.64722e-39
1.45341e-39
-3.54606e-38
5.94293e-39
-1.36373e-37
2.07047e-38
-4.86701e-37
5.74892e-38
-1.46229e-36
1.72927e-37
-3.67191e-36
1.09062e-36
-1.07631e-35
1.03185e-35
-7.06275e-35
9.59551e-35
-7.22097e-34
8.15385e-34
-7.33453e-33
6.18938e-33
-6.76296e-32
4.06679e-32
-5.475e-31
2.17219e-31
-3.71838e-30
7.90448e-31
-1.96666e-29
1.11807e-30
-6.92692e-29
-1.59956e-31
-9.84673e-29
-3.78352e-31
1.96162e-29
-1.44962e-29
1.75739e-27
-5.54772e-28
7.0441e-26
-3.09406e-26
3.73894e-24
1.97847e-22
1.42699e-47
-7.18578e-47
2.25663e-47
-5.02394e-47
3.83079e-47
-8.23541e-47
6.57665e-47
-1.45325e-46
1.13456e-46
-2.59627e-46
1.9642e-46
-4.66377e-46
3.40903e-46
-8.41424e-46
5.92541e-46
-1.52379e-45
1.03048e-45
-2.76871e-45
1.79156e-45
-5.0463e-45
3.1113e-45
-9.22557e-45
5.39194e-45
-1.6919e-44
9.31107e-45
-3.11251e-44
1.59852e-44
-5.74123e-44
2.7193e-44
-1.06058e-43
4.56222e-44
-1.95781e-43
7.50135e-44
-3.59892e-43
1.19961e-43
-6.55499e-43
1.85262e-43
-1.17562e-42
2.75882e-43
-2.06458e-42
4.02338e-43
-3.55113e-42
6.03994e-43
-6.08758e-42
1.01597e-42
-1.09543e-41
2.00619e-42
-2.25623e-41
4.40948e-42
-5.5775e-41
9.97778e-42
-1.56662e-40
2.27642e-41
-4.59544e-40
5.4695e-41
-1.35828e-39
1.49069e-40
-4.11116e-39
4.8164e-40
-1.32325e-38
1.98178e-39
-5.37982e-38
8.10887e-39
-2.037e-37
2.81227e-38
-7.156e-37
7.57984e-38
-2.11767e-36
1.94749e-37
-5.12907e-36
9.82288e-37
-1.28177e-35
8.66938e-36
-6.7491e-35
7.79674e-35
-6.49269e-34
6.37005e-34
-6.46458e-33
4.60926e-33
-5.83321e-32
2.86168e-32
-4.59513e-31
1.42584e-31
-3.00992e-30
4.64794e-31
-1.50869e-29
5.30636e-31
-4.81278e-29
-5.23022e-31
-5.60881e-29
-7.87574e-31
8.66628e-29
-2.21419e-29
4.14563e-27
-7.81555e-28
1.63793e-25
-4.04566e-26
7.51913e-24
3.08679e-22
3.78639e-47
-1.89758e-46
6.00909e-47
-1.35536e-46
1.02436e-46
-2.23051e-46
1.76696e-46
-3.95555e-46
3.06394e-46
-7.10838e-46
5.33414e-46
-1.28544e-45
9.31423e-46
-2.3366e-45
1.62965e-45
-4.26721e-45
2.85425e-45
-7.82646e-45
4.99964e-45
-1.44131e-44
8.74979e-45
-2.66492e-44
1.52787e-44
-4.94668e-44
2.65676e-44
-9.21536e-44
4.58697e-44
-1.72147e-43
7.83155e-44
-3.21905e-43
1.31478e-43
-6.00889e-43
2.15352e-43
-1.11492e-42
3.40691e-43
-2.04338e-42
5.1461e-43
-3.6685e-42
7.34288e-43
-6.3899e-42
9.84337e-43
-1.07067e-41
1.2653e-42
-1.72013e-41
1.68719e-42
-2.70978e-41
2.65879e-42
-4.53186e-41
5.1858e-42
-9.1509e-41
1.14526e-41
-2.32178e-40
2.67257e-41
-6.68429e-40
6.6965e-41
-1.99514e-39
1.90623e-40
-6.09879e-39
6.35001e-40
-1.9638e-38
2.64715e-39
-7.90902e-38
1.07932e-38
-2.9438e-37
3.71182e-38
-1.01625e-36
9.7832e-38
-2.96215e-36
2.22246e-37
-6.98866e-36
8.7354e-37
-1.54307e-35
7.00431e-36
-6.35725e-35
6.06098e-35
-5.61074e-34
4.73523e-34
-5.45976e-33
3.23788e-33
-4.81259e-32
1.8739e-32
-3.6789e-31
8.52976e-32
-2.31234e-30
2.42225e-31
-1.08617e-29
1.98819e-31
-3.07879e-29
-1.29479e-30
-2.64612e-29
-1.52446e-30
2.87103e-28
-2.4389e-29
9.73078e-27
-4.22966e-28
3.34092e-25
-2.3077e-26
1.20105e-23
3.90601e-22
9.58102e-47
-4.82869e-46
1.52407e-46
-3.52323e-46
2.60753e-46
-5.81398e-46
4.51705e-46
-1.03567e-45
7.86935e-46
-1.87148e-45
1.37705e-45
-3.40567e-45
2.41811e-45
-6.23491e-45
4.25687e-45
-1.1478e-44
7.50514e-45
-2.12408e-44
1.32383e-44
-3.95046e-44
2.3333e-44
-7.38302e-44
4.10237e-44
-1.38621e-43
7.17736e-44
-2.61321e-43
1.2453e-43
-4.94019e-43
2.13282e-43
-9.34642e-43
3.58259e-43
-1.76414e-42
5.84996e-43
-3.30639e-42
9.18299e-43
-6.11127e-42
1.36783e-42
-1.10418e-41
1.90054e-42
-1.93022e-41
2.42601e-42
-3.21914e-41
2.83394e-42
-5.06041e-41
3.14666e-42
-7.48694e-41
3.78607e-42
-1.08272e-40
5.89987e-42
-1.73436e-40
1.20381e-41
-3.61896e-40
2.88357e-41
-9.66544e-40
7.7745e-41
-2.86298e-39
2.3853e-40
-8.80299e-39
8.31968e-40
-2.83226e-38
3.50969e-39
-1.12837e-37
1.41198e-38
-4.1205e-37
4.77403e-38
-1.39484e-36
1.232e-37
-4.00057e-36
2.55138e-37
-9.24732e-36
7.75487e-37
-1.86358e-35
5.46271e-36
-5.96591e-35
4.52256e-35
-4.67482e-34
3.36009e-34
-4.42837e-33
2.14948e-33
-3.8056e-32
1.13908e-32
-2.81368e-31
4.60075e-32
-1.68605e-30
1.09819e-31
-7.31889e-30
3.48122e-32
-1.80708e-29
-2.19751e-30
-6.27773e-30
-1.76769e-30
7.13413e-28
1.31461e-29
1.91766e-26
1.39611e-27
5.41746e-25
3.19356e-26
1.5132e-23
4.37397e-22
2.3248e-46
-1.18925e-45
3.70295e-46
-8.86471e-46
6.35535e-46
-1.46542e-45
1.10514e-45
-2.62104e-45
1.93336e-45
-4.76081e-45
3.39866e-45
-8.71496e-45
5.99807e-45
-1.60615e-44
1.06168e-44
-2.979e-44
1.88273e-44
-5.55879e-44
3.34102e-44
-1.04331e-43
5.92403e-44
-1.96911e-43
1.04736e-43
-3.73572e-43
1.84104e-43
-7.11808e-43
3.2049e-43
-1.36016e-42
5.49623e-43
-2.60054e-42
9.21779e-43
-4.95813e-42
1.49725e-42
-9.37875e-42
2.32862e-42
-1.74794e-41
3.41055e-42
-3.1839e-41
4.61587e-42
-5.59781e-41
5.65204e-42
-9.36785e-41
6.15226e-42
-1.46895e-40
5.99024e-42
-2.13056e-40
5.67605e-42
-2.87671e-40
6.56175e-42
-3.88495e-40
1.14527e-41
-6.32805e-40
2.8598e-41
-1.43575e-39
8.7706e-41
-4.05713e-39
3.00996e-40
-1.24101e-38
1.10807e-39
-3.97679e-38
4.68137e-39
-1.56388e-37
1.82908e-38
-5.58973e-37
6.00153e-38
-1.85079e-36
1.51034e-37
-5.21411e-36
2.91634e-37
-1.18397e-35
6.93381e-37
-2.23377e-35
4.12801e-36
-5.62553e-35
3.24945e-35
-3.76645e-34
2.28361e-34
-3.45532e-33
1.35106e-33
-2.88827e-32
6.4006e-33
-2.05685e-31
2.20399e-32
-1.165e-30
4.05704e-32
-4.60369e-30
-8.59818e-32
-9.3752e-30
-1.2788e-31
3.71479e-29
7.47301e-31
1.346e-27
1.32866e-28
3.01475e-26
4.87368e-27
7.06572e-25
1.1331e-25
1.66738e-23
4.76542e-22
5.43948e-46
-2.84905e-45
8.66848e-46
-2.16875e-45
1.49174e-45
-3.58835e-45
2.60258e-45
-6.44121e-45
4.56935e-45
-1.17553e-44
8.0638e-45
-2.16359e-44
1.42917e-44
-4.01184e-44
2.54124e-44
-7.4917e-44
4.52812e-44
-1.40849e-43
8.07426e-44
-2.66529e-43
1.43823e-43
-5.07463e-43
2.55287e-43
-9.71607e-43
4.50031e-43
-1.86875e-42
7.8438e-43
-3.6045e-42
1.34355e-42
-6.95488e-42
2.24315e-42
-1.33754e-41
3.61298e-42
-2.55056e-41
5.53243e-42
-4.79158e-41
7.91123e-42
-8.7833e-41
1.03285e-41
-1.55342e-40
1.19738e-41
-2.61427e-40
1.19634e-41
-4.11735e-40
1.01192e-41
-5.96598e-40
7.57039e-42
-7.88482e-40
6.32772e-42
-9.77334e-40
9.30934e-42
-1.29406e-39
2.67141e-41
-2.30863e-39
1.01559e-40
-5.79641e-39
3.97935e-40
-1.71903e-38
1.52938e-39
-5.44544e-38
6.33999e-39
-2.10666e-37
2.3588e-38
-7.34974e-37
7.39165e-38
-2.37345e-36
1.79932e-37
-6.55225e-36
3.28318e-37
-1.46207e-35
6.26494e-37
-2.62718e-35
3.03207e-36
-5.34522e-35
2.2544e-35
-2.94086e-34
1.49137e-34
-2.596e-33
8.05541e-34
-2.10481e-32
3.30734e-33
-1.43586e-31
9.14012e-33
-7.60821e-31
8.94285e-33
-2.69362e-30
-1.28326e-31
-3.36263e-30
1.02169e-33
1.05574e-28
8.29784e-30
2.07918e-27
3.34693e-28
3.94788e-26
9.23303e-27
8.07293e-25
2.03509e-25
1.7732e-23
5.35591e-22
1.23386e-45
-6.67162e-45
1.96611e-45
-5.17988e-45
3.39086e-45
-8.57134e-45
5.93208e-45
-1.54336e-44
1.04452e-44
-2.82864e-44
1.84908e-44
-5.23156e-44
3.28815e-44
-9.75369e-44
5.86736e-44
-1.83248e-43
1.04921e-43
-3.46817e-43
1.87728e-43
-6.61005e-43
3.35381e-43
-1.26813e-42
5.96563e-43
-2.44722e-42
1.05244e-42
-4.74469e-42
1.83207e-42
-9.22461e-42
3.1255e-42
-1.79365e-41
5.17741e-42
-3.47517e-41
8.21733e-42
-6.67457e-41
1.22947e-41
-1.26094e-40
1.69663e-41
-2.32325e-40
2.09492e-41
-4.13019e-40
2.2171e-41
-6.98916e-40
1.88652e-41
-1.1075e-39
1.16038e-41
-1.61438e-39
4.12564e-42
-2.13446e-39
7.05391e-43
-2.57199e-39
4.0771e-42
-3.02633e-39
2.64054e-41
-4.24438e-39
1.31836e-40
-8.6736e-39
5.67439e-40
-2.36812e-38
2.19966e-39
-7.29003e-38
8.72223e-39
-2.75815e-37
3.0317e-38
-9.36137e-37
8.92493e-38
-2.93895e-36
2.07872e-37
-7.92626e-36
3.60218e-37
-1.73535e-35
5.68814e-37
-2.998e-35
2.16702e-36
-5.08617e-35
1.51255e-35
-2.22518e-34
9.38321e-35
-1.87671e-33
4.56242e-34
-1.47111e-32
1.56362e-33
-9.54207e-32
3.09697e-33
-4.68361e-31
-3.40685e-33
-1.45046e-30
5.27959e-34
6.14286e-30
6.08024e-31
2.16748e-28
2.17629e-29
2.97064e-27
5.87458e-28
4.70175e-26
1.39336e-26
8.82663e-25
3.06803e-25
1.92646e-23
6.40813e-22
2.72849e-45
-1.53305e-44
4.34443e-45
-1.21168e-44
7.50487e-45
-2.00397e-44
1.31565e-44
-3.61775e-44
2.32158e-44
-6.65538e-44
4.1191e-44
-1.23621e-43
7.34212e-44
-2.31587e-43
1.31323e-43
-4.37404e-43
2.35355e-43
-8.32603e-43
4.21885e-43
-1.59661e-42
7.54596e-43
-3.08278e-42
1.34233e-42
-5.98842e-42
2.36434e-42
-1.16875e-41
4.10011e-42
-2.28717e-41
6.9437e-42
-4.4764e-41
1.13474e-41
-8.72722e-41
1.76256e-41
-1.68425e-40
2.54988e-41
-3.19504e-40
3.3337e-41
-5.90995e-40
3.75168e-41
-1.05489e-39
3.30934e-41
-1.79336e-39
1.72291e-41
-2.85901e-39
-4.5061e-42
-4.20326e-39
-2.06463e-41
-5.60278e-39
-2.36981e-41
-6.75454e-39
-7.68051e-42
-7.60655e-39
3.72743e-41
-9.05322e-39
2.07331e-40
-1.43768e-38
8.74794e-40
-3.33083e-38
3.25858e-39
-9.60119e-38
1.2078e-38
-3.50955e-37
3.86656e-38
-1.1534e-36
1.05421e-37
-3.50739e-36
2.32074e-37
-9.20586e-36
3.81003e-37
-1.9708e-35
5.1036e-37
-3.28116e-35
1.49951e-36
-4.76299e-35
9.78446e-36
-1.62147e-34
5.69057e-35
-1.2984e-33
2.46267e-34
-9.82286e-33
6.73229e-34
-6.01557e-32
7.12214e-34
-2.70956e-31
-1.91103e-34
-6.87748e-31
5.54896e-32
2.55506e-29
2.39123e-30
4.53803e-28
4.48052e-29
4.44552e-27
8.894e-28
5.54435e-26
1.93466e-26
9.79103e-25
4.46369e-25
2.24314e-23
7.93507e-22
5.91365e-45
-3.46603e-44
9.4011e-45
-2.78287e-44
1.6255e-44
-4.59827e-44
2.85353e-44
-8.31925e-44
5.04223e-44
-1.53543e-43
8.95854e-44
-2.86271e-43
1.59894e-43
-5.38523e-43
2.8632e-43
-1.02173e-42
5.13561e-43
-1.9543e-42
9.20788e-43
-3.76669e-42
1.64578e-42
-7.31108e-42
2.92156e-42
-1.42777e-41
5.12629e-42
-2.80143e-41
8.82795e-42
-5.51252e-41
1.47671e-41
-1.08447e-40
2.36674e-41
-2.12266e-40
3.56669e-41
-4.10983e-40
4.91472e-41
-7.81899e-40
5.90394e-41
-1.45019e-39
5.58999e-41
-2.59577e-39
2.8864e-41
-4.4287e-39
-1.76937e-41
-7.1073e-39
-6.8665e-41
-1.05203e-38
-1.06972e-40
-1.41803e-38
-9.77546e-41
-1.73284e-38
-2.85825e-41
-1.94805e-38
9.58885e-41
-2.15256e-38
4.03337e-40
-2.76671e-38
1.43824e-39
-5.03172e-38
4.8737e-39
-1.26603e-37
1.65732e-38
-4.34794e-37
4.84711e-38
-1.3714e-36
1.21107e-37
-4.02143e-36
2.48792e-37
-1.02206e-35
3.83485e-37
-2.12705e-35
4.39041e-37
-3.39719e-35
9.81109e-37
-4.25547e-35
6.01091e-36
-1.1099e-34
3.30788e-35
-8.44779e-34
1.2704e-34
-6.2019e-33
2.62536e-34
-3.57623e-32
1.8745e-35
-1.46354e-31
-2.58275e-34
-1.74677e-31
3.03517e-31
7.13627e-29
7.61785e-30
1.04483e-27
9.25381e-29
7.72988e-27
1.31087e-27
7.0039e-26
2.66587e-26
1.14864e-24
6.6338e-25
2.80668e-23
9.40128e-22
1.26181e-44
-7.72447e-44
2.00127e-44
-6.28724e-44
3.46098e-44
-1.03774e-43
6.07997e-44
-1.8809e-43
1.07506e-43
-3.48119e-43
1.91112e-43
-6.51133e-43
3.41219e-43
-1.22921e-42
6.11015e-43
-2.34098e-42
1.09535e-42
-4.49546e-42
1.96118e-42
-8.69999e-42
3.49644e-42
-1.69565e-41
6.18264e-42
-3.32524e-41
1.07756e-41
-6.55358e-41
1.83512e-41
-1.29475e-40
3.01741e-41
-2.55504e-40
4.71089e-41
-5.01293e-40
6.81125e-41
-9.72474e-40
8.74462e-41
-1.85317e-39
9.12216e-41
-3.44204e-39
5.69994e-41
-6.17086e-39
-2.42029e-41
-1.05729e-38
-1.31832e-40
-1.7023e-38
-2.59034e-40
-2.53568e-38
-3.28401e-40
-3.46145e-38
-2.51122e-40
-4.31043e-38
-3.8711e-42
-4.93656e-38
3.58001e-40
-5.38625e-38
9.62311e-40
-6.15544e-38
2.54033e-39
-8.73776e-38
7.27224e-39
-1.74651e-37
2.21501e-38
-5.29666e-37
5.89377e-38
-1.56835e-36
1.33934e-37
-4.40754e-36
2.53202e-37
-1.07704e-35
3.60039e-37
-2.15737e-35
3.44082e-37
-3.25946e-35
5.64795e-37
-3.44368e-35
3.33312e-36
-6.63277e-35
1.7988e-35
-4.90291e-34
6.21755e-35
-3.59882e-33
8.88098e-35
-1.97117e-32
-4.43973e-35
-7.03813e-32
3.14037e-33
1.17595e-30
1.16444e-30
1.92573e-28
2.34667e-29
2.59597e-27
2.12608e-28
1.60231e-26
2.06456e-27
1.02095e-25
3.76499e-26
1.43449e-24
9.75646e-25
3.48021e-23
1.00671e-21
2.66024e-44
-1.69954e-43
4.20798e-44
-1.39933e-43
7.27458e-44
-2.30728e-43
1.27811e-43
-4.18829e-43
2.26007e-43
-7.76996e-43
4.01701e-43
-1.45721e-42
7.16842e-43
-2.75891e-42
1.28229e-42
-5.27031e-42
2.2946e-42
-1.01526e-41
4.09691e-42
-1.97103e-41
7.2755e-42
-3.8538e-41
1.27827e-41
-7.58351e-41
2.20581e-41
-1.49893e-40
3.70142e-41
-2.96781e-40
5.95363e-41
-5.86597e-40
8.98709e-41
-1.15213e-39
1.22967e-40
-2.23657e-39
1.42377e-40
-4.26374e-39
1.14209e-40
-7.92144e-39
-6.34377e-42
-1.42203e-38
-1.74134e-40
-2.44202e-38
-4.34843e-40
-3.93667e-38
-6.93821e-40
-5.90257e-38
-7.50125e-40
-8.16283e-38
-3.96629e-40
-1.03822e-37
4.08976e-40
-1.22243e-37
1.45542e-39
-1.3605e-37
2.75e-39
-1.50242e-37
5.08987e-39
-1.8082e-37
1.10289e-38
-2.7338e-37
2.84322e-38
-6.56937e-37
6.84125e-38
-1.72071e-36
1.40312e-37
-4.5821e-36
2.39397e-37
-1.06449e-35
3.05217e-37
-2.01403e-35
2.19689e-37
-2.80383e-35
1.64419e-37
-2.25522e-35
1.23215e-36
-1.987e-35
8.10438e-36
-1.87215e-34
2.73959e-35
-1.69517e-33
1.79437e-35
-9.47824e-33
-2.46293e-35
-2.0397e-32
2.02774e-32
4.85371e-30
3.90592e-30
5.13083e-28
7.0504e-29