/*--------------------------------*- C++ -*----------------------------------*\
  =========                 |
  \\      /  F ield         | OpenFOAM: The Open Source CFD Toolbox
   \\    /   O peration     | Website:  https://openfoam.org
    \\  /    A nd           | Version:  9
     \\/     M anipulation  |
\*---------------------------------------------------------------------------*/
FoamFile
{
    format      ascii;
    class       volScalarField;
    location    "0.19";
    object      alpha.water;
}
// * * * * * * * * * * * * * * * * * * * * * * * * * * * * * * * * * * * * * //

dimensions      [0 0 0 0 0 0 0];

internalField   nonuniform List<scalar> 
5000
(
-4.62373e-49
-4.93143e-49
-1.02867e-48
-2.28777e-48
-5.18812e-48
-1.19506e-47
-2.79443e-47
-6.62785e-47
-1.59314e-46
-3.8771e-46
-9.54086e-46
-2.37053e-45
-5.93419e-45
-1.49249e-44
-3.76047e-44
-9.46203e-44
-2.37142e-43
-5.90981e-43
-1.46379e-42
-3.60606e-42
-8.8489e-42
-2.16624e-41
-5.29326e-41
-1.28915e-40
-3.11741e-40
-7.46281e-40
-1.78517e-39
-4.43112e-39
-1.22292e-38
-3.98212e-38
-1.53262e-37
-7.53373e-37
-4.23353e-36
-3.22706e-35
-3.39451e-34
-3.8871e-33
-4.33897e-32
-4.69021e-31
-4.8924e-30
-4.8353e-29
-4.3773e-28
-3.41687e-27
-2.13649e-26
-1.28868e-25
-1.61968e-24
-2.88622e-23
-4.38792e-22
-5.16885e-21
-3.83607e-20
-1.59576e-20
-1.71501e-48
-1.70726e-48
-3.47507e-48
-7.60124e-48
-1.70082e-47
-3.87353e-47
-8.96748e-47
-2.1077e-46
-5.02302e-46
-1.21215e-45
-2.95758e-45
-7.28416e-45
-1.80722e-44
-4.50612e-44
-1.1264e-43
-2.81604e-43
-7.02744e-43
-1.74845e-42
-4.33604e-42
-1.07238e-41
-2.64745e-41
-6.52822e-41
-1.60694e-40
-3.93779e-40
-9.55777e-40
-2.28888e-39
-5.45752e-39
-1.34495e-38
-3.66872e-38
-1.17568e-37
-4.4329e-37
-2.10516e-36
-1.10246e-35
-7.64557e-35
-7.73499e-34
-8.94204e-33
-1.02097e-31
-1.1331e-30
-1.21697e-29
-1.243e-28
-1.16992e-27
-9.57979e-27
-6.18534e-26
-2.87048e-25
-1.47383e-24
-2.02491e-23
-2.93573e-22
-3.09064e-21
-1.5349e-20
4.467e-21
-6.34378e-48
-5.70816e-48
-1.11569e-47
-2.37621e-47
-5.20584e-47
-1.16524e-46
-2.65877e-46
-6.17148e-46
-1.45438e-45
-3.47317e-45
-8.38938e-45
-2.04591e-44
-5.02756e-44
-1.24241e-43
-3.08139e-43
-7.65649e-43
-1.90336e-42
-4.73035e-42
-1.17515e-41
-2.91922e-41
-7.25414e-41
-1.80284e-40
-4.47362e-40
-1.10403e-39
-2.69299e-39
-6.46148e-39
-1.53864e-38
-3.77321e-38
-1.01924e-37
-3.22102e-37
-1.19285e-36
-5.50035e-36
-2.70139e-35
-1.68358e-34
-1.60137e-33
-1.847e-32
-2.13703e-31
-2.40733e-30
-2.62334e-29
-2.71831e-28
-2.60057e-27
-2.17985e-26
-1.45811e-25
-6.73288e-25
-2.00434e-24
-1.25119e-23
-1.70478e-22
-1.52313e-21
-1.90789e-21
4.0031e-20
-2.4257e-47
-1.91854e-47
-3.53071e-47
-7.20918e-47
-1.5257e-46
-3.31852e-46
-7.39529e-46
-1.68338e-45
-3.9024e-45
-9.18751e-45
-2.19124e-44
-5.28237e-44
-1.28445e-43
-3.14446e-43
-7.7377e-43
-1.91137e-42
-4.7354e-42
-1.17616e-41
-2.92862e-41
-7.31164e-41
-1.83008e-40
-4.58765e-40
-1.14868e-39
-2.85814e-39
-7.01606e-39
-1.68966e-38
-4.02648e-38
-9.84736e-38
-2.63892e-37
-8.23677e-37
-3.00174e-36
-1.34874e-35
-6.25458e-35
-3.47328e-34
-3.02618e-33
-3.43924e-32
-4.00612e-31
-4.54946e-30
-4.98958e-29
-5.19392e-28
-4.98887e-27
-4.21273e-26
-2.86894e-25
-1.36275e-24
-3.55891e-24
-6.95408e-24
-8.73332e-23
-6.01355e-22
2.44894e-37
1.18009e-19
-9.71971e-47
-6.73499e-47
-1.15228e-46
-2.21919e-46
-4.45681e-46
-9.2568e-46
-1.98332e-45
-4.36951e-45
-9.86171e-45
-2.2714e-44
-5.32002e-44
-1.26315e-43
-3.03243e-43
-7.34536e-43
-1.79242e-42
-4.40152e-42
-1.08704e-41
-2.69946e-41
-6.74078e-41
-1.69248e-40
-4.2703e-40
-1.0808e-39
-2.73378e-39
-6.86745e-39
-1.69918e-38
-4.1154e-38
-9.83614e-38
-2.40413e-37
-6.40275e-37
-1.97629e-36
-7.09741e-36
-3.11798e-35
-1.37559e-34
-6.79866e-34
-5.27799e-33
-5.82392e-32
-6.79338e-31
-7.74311e-30
-8.50454e-29
-8.84205e-28
-8.46607e-27
-7.13218e-26
-4.87792e-25
-2.35935e-24
-6.15009e-24
-3.55091e-24
-3.95101e-23
-1.54744e-22
1.50309e-21
1.43257e-19
-4.0142e-46
-2.50485e-46
-4.01084e-46
-7.24726e-46
-1.36386e-45
-2.65763e-45
-5.36539e-45
-1.12135e-44
-2.42003e-44
-5.37284e-44
-1.22185e-43
-2.8342e-43
-6.68084e-43
-1.59569e-42
-3.85369e-42
-9.39824e-42
-2.31299e-41
-5.74334e-41
-1.43877e-40
-3.6352e-40
-9.25341e-40
-2.36708e-39
-6.05625e-39
-1.53834e-38
-3.84309e-38
-9.38085e-38
-2.25421e-37
-5.51695e-37
-1.46273e-36
-4.46973e-36
-1.5835e-35
-6.82077e-35
-2.88698e-34
-1.27839e-33
-8.61483e-33
-9.0566e-32
-1.05232e-30
-1.19997e-29
-1.31541e-28
-1.36081e-27
-1.29309e-26
-1.07998e-25
-7.34783e-25
-3.57126e-24
-9.41597e-24
-1.73232e-24
-1.53716e-23
0
2.97873e-21
1.30018e-19
-1.65524e-45
-9.68672e-46
-1.48615e-45
-2.55119e-45
-4.52046e-45
-8.23315e-45
-1.54714e-44
-3.00997e-44
-6.07348e-44
-1.27056e-43
-2.74899e-43
-6.12726e-43
-1.40065e-42
-3.27001e-42
-7.77087e-42
-1.87537e-41
-4.58989e-41
-1.13843e-40
-2.86023e-40
-7.27379e-40
-1.86922e-39
-4.83775e-39
-1.25369e-38
-3.22506e-38
-8.15018e-38
-2.00942e-37
-4.86638e-37
-1.1949e-36
-3.1593e-36
-9.56765e-36
-3.34648e-35
-1.41639e-34
-5.79826e-34
-2.33134e-33
-1.33635e-32
-1.30613e-31
-1.50235e-30
-1.70961e-29
-1.86629e-28
-1.91603e-27
-1.80087e-26
-1.48455e-25
-9.9795e-25
-4.82012e-24
-1.27067e-23
-9.02322e-25
-4.46629e-24
4.60739e-23
3.58576e-21
9.724e-20
-6.62448e-45
-3.76231e-45
-5.66913e-45
-9.4455e-45
-1.60764e-44
-2.78157e-44
-4.91035e-44
-8.8884e-44
-1.6586e-43
-3.20575e-43
-6.43764e-43
-1.34397e-42
-2.91129e-42
-6.51976e-42
-1.50313e-41
-3.554e-41
-8.59258e-41
-2.11994e-40
-5.32903e-40
-1.3626e-39
-3.53471e-39
-9.2615e-39
-2.43369e-38
-6.34969e-38
-1.62639e-37
-4.0591e-37
-9.93047e-37
-2.45124e-36
-6.47393e-36
-1.94516e-35
-6.72199e-35
-2.79995e-34
-1.11611e-33
-4.14635e-33
-2.00234e-32
-1.76512e-31
-1.99353e-30
-2.25857e-29
-2.44999e-28
-2.49041e-27
-2.30914e-26
-1.87262e-25
-1.23749e-24
-5.88836e-24
-1.52889e-23
-6.04605e-25
-4.11422e-25
1.05762e-22
3.88231e-21
5.99788e-20
-2.52793e-44
-1.42424e-44
-2.14235e-44
-3.52634e-44
-5.88734e-44
-9.9088e-44
-1.68393e-43
-2.89878e-43
-5.07802e-43
-9.1064e-43
-1.68308e-42
-3.22678e-42
-6.44762e-42
-1.34544e-41
-2.92944e-41
-6.6358e-41
-1.55793e-40
-3.77677e-40
-9.42149e-40
-2.41009e-39
-6.29477e-39
-1.66823e-38
-4.44612e-38
-1.17788e-37
-3.06341e-37
-7.7563e-37
-1.92131e-36
-4.77722e-36
-1.2625e-35
-3.7678e-35
-1.2873e-34
-5.28259e-34
-2.06093e-33
-7.20093e-33
-2.9422e-32
-2.2599e-31
-2.4766e-30
-2.78562e-29
-2.99636e-28
-3.00943e-27
-2.74673e-26
-2.18549e-25
-1.41404e-24
-6.57978e-24
-1.65595e-23
-4.91711e-25
5.78857e-25
1.9525e-22
4.43748e-21
3.6604e-20
-9.11978e-44
-5.16053e-44
-7.80973e-44
-1.28319e-43
-2.13066e-43
-3.55147e-43
-5.94224e-43
-9.99087e-43
-1.69164e-42
-2.89495e-42
-5.03403e-42
-8.9569e-42
-1.64383e-41
-3.13684e-41
-6.26471e-41
-1.31455e-40
-2.90058e-40
-6.71817e-40
-1.62735e-39
-4.1013e-39
-1.06799e-38
-2.84721e-38
-7.67903e-38
-2.06563e-37
-5.46258e-37
-1.40639e-36
-3.53352e-36
-8.86926e-36
-2.34952e-35
-6.97312e-35
-2.35693e-34
-9.53463e-34
-3.65357e-33
-1.21937e-32
-4.28749e-32
-2.77247e-31
-2.89839e-30
-3.22531e-29
-3.43356e-28
-3.40112e-27
-3.04987e-26
-2.37531e-25
-1.49908e-24
-6.77073e-24
-1.61803e-23
-3.01506e-25
3.43906e-24
2.85891e-22
6.03544e-21
6.95123e-20
-3.10204e-43
-1.77496e-43
-2.70961e-43
-4.46591e-43
-7.42741e-43
-1.23822e-42
-2.06742e-42
-3.45684e-42
-5.79131e-42
-9.73532e-42
-1.64651e-41
-2.81335e-41
-4.88467e-41
-8.68108e-41
-1.5927e-40
-3.04392e-40
-6.11227e-40
-1.29853e-39
-2.92992e-39
-7.01694e-39
-1.77312e-38
-4.67325e-38
-1.26379e-37
-3.44006e-37
-9.25031e-37
-2.42636e-36
-6.19348e-36
-1.57268e-35
-4.18355e-35
-1.23628e-34
-4.13633e-34
-1.65001e-33
-6.22367e-33
-2.00822e-32
-6.23246e-32
-3.30007e-31
-3.21393e-30
-3.52267e-29
-3.70486e-28
-3.61334e-27
-3.17778e-26
-2.41683e-25
-1.48188e-24
-6.43872e-24
-1.41498e-23
-3.58574e-26
9.82611e-24
3.9581e-22
1.0341e-20
2.43343e-19
-9.9554e-43
-5.7825e-43
-8.90534e-43
-1.47516e-42
-2.46503e-42
-4.1286e-42
-6.92323e-42
-1.1617e-41
-1.9502e-41
-3.27667e-41
-5.51624e-41
-9.32354e-41
-1.58679e-40
-2.73003e-40
-4.77192e-40
-8.52792e-40
-1.57081e-39
-3.0129e-39
-6.09218e-39
-1.31518e-38
-3.05718e-38
-7.63603e-38
-2.01675e-37
-5.48602e-37
-1.49504e-36
-3.9936e-36
-1.03741e-35
-2.67021e-35
-7.14537e-35
-2.10497e-34
-6.97492e-34
-2.7435e-33
-1.01973e-32
-3.20882e-32
-9.03912e-32
-3.86346e-31
-3.39684e-30
-3.64507e-29
-3.78079e-28
-3.62495e-27
-3.12099e-26
-2.31207e-25
-1.3711e-24
-5.67172e-24
-1.1059e-23
0
1.83073e-23
5.88455e-22
2.09909e-20
9.25961e-19
-3.02171e-42
-1.78638e-42
-2.77276e-42
-4.61883e-42
-7.76396e-42
-1.30877e-41
-2.20998e-41
-3.73573e-41
-6.31905e-41
-1.06958e-40
-1.81247e-40
-3.07783e-40
-5.24498e-40
-8.98476e-40
-1.55011e-39
-2.69919e-39
-4.75632e-39
-8.51647e-39
-1.56164e-38
-2.9756e-38
-6.0304e-38
-1.33332e-37
-3.24689e-37
-8.53516e-37
-2.32357e-36
-6.29587e-36
-1.66551e-35
-4.35264e-35
-1.1736e-34
-3.45052e-34
-1.13271e-33
-4.39152e-33
-1.60882e-32
-4.96472e-32
-1.30258e-31
-4.50906e-31
-3.44448e-30
-3.58755e-29
-3.66339e-28
-3.44763e-27
-2.90045e-26
-2.08696e-25
-1.19057e-24
-4.63155e-24
-7.78421e-24
5.32528e-26
3.09703e-23
1.0278e-21
4.86356e-20
2.83962e-18
-8.70675e-42
-5.2493e-42
-8.2011e-42
-1.37378e-41
-2.3237e-41
-3.94465e-41
-6.71353e-41
-1.14481e-40
-1.95512e-40
-3.34367e-40
-5.72774e-40
-9.83314e-40
-1.69305e-39
-2.92544e-39
-5.07419e-39
-8.83101e-39
-1.54025e-38
-2.68742e-38
-4.68623e-38
-8.19404e-38
-1.45826e-37
-2.73522e-37
-5.68692e-37
-1.34762e-36
-3.52795e-36
-9.57018e-36
-2.5724e-35
-6.83149e-35
-1.85849e-34
-5.45851e-34
-1.77539e-33
-6.77979e-33
-2.44679e-32
-7.42851e-32
-1.85334e-31
-5.30292e-31
-3.37682e-30
-3.37096e-29
-3.38215e-28
-3.11946e-27
-2.55903e-26
-1.78236e-25
-9.71515e-25
-3.49323e-24
-4.9567e-24
4.43694e-25
5.83653e-23
2.2124e-21
1.18117e-19
6.72179e-18
-2.39242e-41
-1.47331e-41
-2.31365e-41
-3.89629e-41
-6.63141e-41
-1.1337e-40
-1.94498e-40
-3.34664e-40
-5.77323e-40
-9.98374e-40
-1.73102e-39
-3.0103e-39
-5.25256e-39
-9.19579e-39
-1.61422e-38
-2.83633e-38
-4.97318e-38
-8.66036e-38
-1.48855e-37
-2.51037e-37
-4.15127e-37
-6.8395e-37
-1.17985e-36
-2.31709e-36
-5.41408e-36
-1.42068e-35
-3.84279e-35
-1.03578e-34
-2.84506e-34
-8.35267e-34
-2.6912e-33
-1.01119e-32
-3.59104e-32
-1.07408e-31
-2.58683e-31
-6.31654e-31
-3.22971e-30
-3.03444e-29
-2.9844e-28
-2.69334e-27
-2.1494e-26
-1.44325e-25
-7.45274e-25
-2.42753e-24
-2.82632e-24
2.37073e-24
1.33236e-22
5.27485e-21
2.61669e-19
1.22199e-17
-6.29977e-41
-3.96725e-41
-6.25416e-41
-1.05847e-40
-1.81231e-40
-3.11961e-40
-5.39386e-40
-9.36332e-40
-1.63139e-39
-2.85263e-39
-5.00658e-39
-8.82134e-39
-1.56041e-38
-2.76984e-38
-4.92748e-38
-8.76459e-38
-1.55264e-37
-2.72272e-37
-4.68689e-37
-7.84099e-37
-1.26289e-36
-1.94898e-36
-2.94082e-36
-4.68411e-36
-8.92821e-36
-2.11336e-35
-5.60309e-35
-1.52337e-34
-4.22196e-34
-1.23906e-33
-3.9523e-33
-1.45913e-32
-5.09071e-32
-1.5001e-31
-3.52214e-31
-7.60622e-31
-3.04512e-30
-2.62551e-29
-2.5237e-28
-2.22465e-27
-1.72236e-26
-1.10929e-25
-5.36637e-25
-1.55347e-24
-1.33502e-24
8.73178e-24
3.22989e-22
1.16834e-20
4.75267e-19
1.74445e-17
-1.59727e-40
-1.02952e-40
-1.62751e-40
-2.7672e-40
-4.76512e-40
-8.25657e-40
-1.43833e-39
-2.51817e-39
-4.42968e-39
-7.82852e-39
-1.39004e-38
-2.47984e-38
-4.44373e-38
-7.99158e-38
-1.43996e-37
-2.5925e-37
-4.64304e-37
-8.21646e-37
-1.42395e-36
-2.39088e-36
-3.83161e-36
-5.78169e-36
-8.18457e-36
-1.12569e-35
-1.69948e-35
-3.30318e-35
-8.11326e-35
-2.18671e-34
-6.09145e-34
-1.78543e-33
-5.63184e-33
-2.0393e-32
-6.97548e-32
-2.02305e-31
-4.65738e-31
-9.18907e-31
-2.86065e-30
-2.1905e-29
-2.04978e-28
-1.76143e-27
-1.31867e-26
-8.09373e-26
-3.61721e-25
-9.12287e-25
-3.17158e-25
2.41658e-23
6.92981e-22
2.11069e-20
6.72226e-19
2.08517e-17
-3.91731e-40
-2.58655e-40
-4.09688e-40
-6.99575e-40
-1.21125e-39
-2.1119e-39
-3.70524e-39
-6.53927e-39
-1.16069e-38
-2.0717e-38
-3.71826e-38
-6.70935e-38
-1.21649e-37
-2.21369e-37
-4.03513e-37
-7.3451e-37
-1.3287e-36
-2.37223e-36
-4.14578e-36
-7.00051e-36
-1.12522e-35
-1.69218e-35
-2.34526e-35
-3.00672e-35
-3.81998e-35
-5.7856e-35
-1.20545e-34
-3.09645e-34
-8.57681e-34
-2.50347e-33
-7.7949e-33
-2.76256e-32
-9.24174e-32
-2.63333e-31
-5.95967e-31
-1.10187e-30
-2.70044e-30
-1.76741e-29
-1.60178e-28
-1.33873e-27
-9.65128e-27
-5.59719e-26
-2.27653e-25
-4.73649e-25
9.08458e-25
5.08547e-23
1.2011e-21
3.03001e-20
7.79484e-19
2.2922e-17
-9.34086e-40
-6.32018e-40
-1.00227e-39
-1.7182e-39
-2.99006e-39
-5.24383e-39
-9.26081e-39
-1.64653e-38
-2.94662e-38
-5.3069e-38
-9.61719e-38
-1.75305e-37
-3.21172e-37
-5.90553e-37
-1.08742e-36
-1.99841e-36
-3.64692e-36
-6.56641e-36
-1.15506e-35
-1.96165e-35
-3.16889e-35
-4.78129e-35
-6.60994e-35
-8.27894e-35
-9.63369e-35
-1.18371e-34
-1.9363e-34
-4.41541e-34
-1.18554e-33
-3.42165e-33
-1.04852e-32
-3.62799e-32
-1.18373e-31
-3.30564e-31
-7.35628e-31
-1.29653e-30
-2.5689e-30
-1.3821e-29
-1.20534e-28
-9.77101e-28
-6.74661e-27
-3.65916e-26
-1.33305e-25
-1.70048e-25
3.48549e-24
8.46895e-23
1.69854e-21
3.6495e-20
8.33592e-19
2.52897e-17
-2.1765e-39
-1.50799e-39
-2.3927e-39
-4.11635e-39
-7.19682e-39
-1.26886e-38
-2.25428e-38
-4.03481e-38
-7.27393e-38
-1.32053e-37
-2.41345e-37
-4.43833e-37
-8.20475e-37
-1.52216e-36
-2.82716e-36
-5.23863e-36
-9.63529e-36
-1.74533e-35
-3.08617e-35
-5.26686e-35
-8.54858e-35
-1.29605e-34
-1.79925e-34
-2.2495e-34
-2.53866e-34
-2.76601e-34
-3.55133e-34
-6.58659e-34
-1.62834e-33
-4.57028e-33
-1.37084e-32
-4.61686e-32
-1.46456e-31
-3.99585e-31
-8.72901e-31
-1.48033e-30
-2.4474e-30
-1.0474e-29
-8.72836e-29
-6.8405e-28
-4.4903e-27
-2.25542e-26
-7.18571e-26
9.39043e-26
7.90456e-24
1.23862e-22
2.0971e-21
4.04139e-20
8.92824e-19
2.93907e-17
-4.97643e-39
-3.52475e-39
-5.59293e-39
-9.65206e-39
-1.69462e-38
-3.00204e-38
-5.36196e-38
-9.65392e-38
-1.75165e-37
-3.20202e-37
-5.89484e-37
-1.09223e-36
-2.03444e-36
-3.80264e-36
-7.11545e-36
-1.32775e-35
-2.45532e-35
-4.46755e-35
-7.93086e-35
-1.35835e-34
-2.2128e-34
-3.37007e-34
-4.70883e-34
-5.92053e-34
-6.66747e-34
-6.93673e-34
-7.54631e-34
-1.08708e-33
-2.2817e-33
-6.00363e-33
-1.7421e-32
-5.68589e-32
-1.74731e-31
-4.63933e-31
-9.91291e-31
-1.62116e-30
-2.29479e-30
-7.64473e-30
-6.04923e-29
-4.57551e-28
-2.83552e-27
-1.30673e-26
-3.41165e-26
7.53479e-25
1.64338e-23
1.80983e-22
2.47137e-21
4.44191e-20
1.00593e-18
3.59374e-17
-1.1199e-38
-8.09157e-39
-1.28356e-38
-2.22123e-38
-3.91448e-38
-6.96401e-38
-1.2497e-37
-2.2616e-37
-4.12626e-37
-7.58708e-37
-1.40529e-36
-2.61999e-36
-4.91066e-36
-9.2377e-36
-1.73894e-35
-3.26009e-35
-6.05154e-35
-1.10457e-34
-1.96588e-34
-3.37443e-34
-5.51022e-34
-8.43264e-34
-1.18347e-33
-1.50056e-33
-1.70814e-33
-1.76988e-33
-1.78501e-33
-2.08076e-33
-3.43166e-33
-7.89485e-33
-2.15622e-32
-6.76162e-32
-2.00408e-31
-5.15138e-31
-1.07011e-30
-1.67968e-30
-2.05291e-30
-5.24141e-30
-3.94283e-29
-2.89413e-28
-1.68874e-27
-7.07013e-27
-8.67877e-27
2.3531e-24
3.68167e-23
2.96677e-22
3.02184e-21
5.08386e-20
1.22179e-18
4.37977e-17
-2.48581e-38
-1.828e-38
-2.89846e-38
-5.02797e-38
-8.89022e-38
-1.58749e-37
-2.86037e-37
-5.19918e-37
-9.52999e-37
-1.76081e-36
-3.27757e-36
-6.1414e-36
-1.15724e-35
-2.18754e-35
-4.13394e-35
-7.77369e-35
-1.44644e-34
-2.64482e-34
-4.71259e-34
-8.09529e-34
-1.32559e-33
-2.03097e-33
-2.86075e-33
-3.66255e-33
-4.23628e-33
-4.46138e-33
-4.43758e-33
-4.60012e-33
-5.93023e-33
-1.08619e-32
-2.62551e-32
-7.7396e-32
-2.19885e-31
-5.43213e-31
-1.0859e-30
-1.61289e-30
-1.66344e-30
-3.13741e-30
-2.29245e-29
-1.68255e-28
-9.32595e-28
-3.40643e-27
2.72594e-26
6.449e-24
8.97343e-23
5.78863e-22
4.14145e-21
6.18722e-20
1.53422e-18
4.94656e-17
-5.45143e-38
-4.07005e-38
-6.45085e-38
-1.12139e-37
-1.98848e-37
-3.56209e-37
-6.44038e-37
-1.17493e-36
-2.16184e-36
-4.00992e-36
-7.49368e-36
-1.41015e-35
-2.6671e-35
-5.05679e-35
-9.57835e-35
-1.80414e-34
-3.36031e-34
-6.14659e-34
-1.09494e-33
-1.88132e-33
-3.08224e-33
-4.71684e-33
-6.66821e-33
-8.62153e-33
-1.01558e-32
-1.09725e-32
-1.11229e-32
-1.11491e-32
-1.22101e-32
-1.69614e-32
-3.25708e-32
-8.5064e-32
-2.29024e-31
-5.37564e-31
-1.01458e-30
-1.38869e-30
-1.09077e-30
-9.41404e-31
-8.76933e-30
-7.94069e-29
-4.49344e-28
-9.89268e-28
1.40534e-25
1.73387e-23
2.27321e-22
1.29888e-21
6.69615e-21
7.88684e-20
1.82382e-18
5.07591e-17
-1.18281e-37
-8.93976e-38
-1.41671e-37
-2.46719e-37
-4.38541e-37
-7.87658e-37
-1.42814e-36
-2.61311e-36
-4.82271e-36
-8.97319e-36
-1.68252e-35
-3.17508e-35
-6.01801e-35
-1.14279e-34
-2.1667e-34
-4.08246e-34
-7.60114e-34
-1.38896e-33
-2.47018e-33
-4.24418e-33
-6.92705e-33
-1.05898e-32
-1.50189e-32
-1.96133e-32
-2.35655e-32
-2.62195e-32
-2.74979e-32
-2.79945e-32
-2.88724e-32
-3.24684e-32
-4.50003e-32
-9.05226e-32
-2.23706e-31
-4.89085e-31
-8.39858e-31
-9.81588e-31
-3.08469e-31
2.35282e-30
6.94204e-30
-4.20442e-30
-1.20859e-28
1.31858e-27
5.07593e-25
4.53498e-23
5.71866e-22
3.10324e-21
1.2648e-20
1.03203e-19
1.94371e-18
5.00835e-17
-2.54146e-37
-1.93803e-37
-3.07216e-37
-5.3583e-37
-9.5424e-37
-1.71744e-36
-3.1208e-36
-5.72333e-36
-1.05878e-35
-1.97494e-35
-3.71143e-35
-7.01424e-35
-1.33072e-34
-2.52784e-34
-4.79121e-34
-9.01873e-34
-1.67637e-33
-3.05586e-33
-5.41838e-33
-9.28302e-33
-1.50805e-32
-2.30205e-32
-3.27534e-32
-4.32431e-32
-5.30175e-32
-6.08267e-32
-6.63917e-32
-7.02028e-32
-7.29304e-32
-7.51137e-32
-7.86157e-32
-9.89828e-32
-2.00969e-31
-3.92836e-31
-5.49726e-31
-3.60873e-31
1.49533e-30
1.31086e-29
5.11336e-29
1.12357e-28
2.78972e-28
8.01903e-27
1.70605e-24
1.14024e-22
1.39154e-21
7.44758e-21
2.64807e-20
1.40867e-19
1.92194e-18
4.89315e-17
-5.41042e-37
-4.14675e-37
-6.57881e-37
-1.14888e-36
-2.04885e-36
-3.69302e-36
-6.72119e-36
-1.23461e-35
-2.28774e-35
-4.27525e-35
-8.04273e-35
-1.5208e-34
-2.88504e-34
-5.47632e-34
-1.03641e-33
-1.94649e-33
-3.60704e-33
-6.55007e-33
-1.15635e-32
-1.96891e-32
-3.18425e-32
-4.85439e-32
-6.93493e-32
-9.25941e-32
-1.15794e-31
-1.37091e-31
-1.55945e-31
-1.72553e-31
-1.86098e-31
-1.91713e-31
-1.7803e-31
-1.34124e-31
-1.59993e-31
-2.49635e-31
-1.50896e-31
8.02806e-31
7.78398e-30
4.20547e-29
1.60336e-28
4.1626e-28
1.25224e-27
2.83487e-26
5.43123e-24
2.74277e-22
3.23822e-21
1.74038e-20
5.81892e-20
2.09901e-19
1.80715e-18
4.94943e-17
-1.14132e-36
-8.7529e-37
-1.39051e-36
-2.43078e-36
-4.33887e-36
-7.82818e-36
-1.42609e-35
-2.62209e-35
-4.86342e-35
-9.09662e-35
-1.7116e-34
-3.23548e-34
-6.13191e-34
-1.16188e-33
-2.1931e-33
-4.10443e-33
-7.57253e-33
-1.36791e-32
-2.40015e-32
-4.0569e-32
-6.53291e-32
-9.95264e-32
-1.42771e-31
-1.9267e-31
-2.45968e-31
-3.00436e-31
-3.55734e-31
-4.12159e-31
-4.65734e-31
-4.98348e-31
-4.63655e-31
-2.74052e-31
-9.07168e-32
-5.68959e-32
6.55467e-31
4.96389e-30
2.50187e-29
1.12091e-28
4.15253e-28
1.12513e-27
3.61793e-27
9.52096e-26
1.60583e-23
6.30929e-22
7.18311e-21
3.90003e-20
1.28434e-19
3.53094e-19
1.73663e-18
5.45181e-17
-2.38282e-36
-1.8208e-36
-2.89786e-36
-5.06982e-36
-9.0541e-36
-1.63434e-35
-2.97868e-35
-5.47868e-35
-1.01636e-34
-1.90097e-34
-3.57488e-34
-6.75005e-34
-1.27688e-33
-2.41278e-33
-4.53724e-33
-8.45144e-33
-1.55042e-32
-2.78252e-32
-4.84825e-32
-8.13597e-32
-1.30424e-31
-1.98473e-31
-2.85842e-31
-3.90317e-31
-5.08798e-31
-6.40362e-31
-7.8757e-31
-9.53084e-31
-1.12813e-30
-1.26611e-30
-1.23674e-30
-7.51982e-31
0
4.05089e-31
3.33642e-30
1.60174e-29
6.6054e-29
2.75304e-28
1.0121e-27
2.79261e-27
9.80491e-27
3.27847e-25
4.38965e-23
1.38898e-21
1.51944e-20
8.32276e-20
2.75929e-19
6.59912e-19
1.85659e-18
7.42531e-17
-4.91074e-36
-3.72795e-36
-5.94663e-36
-1.04095e-35
-1.85931e-35
-3.35653e-35
-6.11753e-35
-1.125e-34
-2.08599e-34
-3.89759e-34
-7.32117e-34
-1.37967e-33
-2.60261e-33
-4.89948e-33
-9.16938e-33
-1.698e-32
-3.09387e-32
-5.51118e-32
-9.52935e-32
-1.58796e-31
-2.53324e-31
-3.8509e-31
-5.57445e-31
-7.70493e-31
-1.02514e-30
-1.32768e-30
-1.69147e-30
-2.12978e-30
-2.63052e-30
-3.09199e-30
-3.19743e-30
-2.17772e-30
1.1343e-31
1.87502e-30
1.00321e-29
4.09991e-29
1.57937e-28
6.3803e-28
2.36157e-27
6.79963e-27
2.73999e-26
1.1114e-24
1.11362e-22
2.9281e-21
3.06933e-20
1.68795e-19
5.66749e-19
1.29758e-18
2.50368e-18
1.2964e-16
-9.96157e-36
-7.50204e-36
-1.19994e-35
-2.10118e-35
-3.75237e-35
-6.77209e-35
-1.23375e-34
-2.26736e-34
-4.19966e-34
-7.83223e-34
-1.46829e-33
-2.75958e-33
-5.18668e-33
-9.71857e-33
-1.80839e-32
-3.32608e-32
-6.01405e-32
-1.06252e-31
-1.8222e-31
-3.01484e-31
-4.788e-31
-7.2777e-31
-1.05907e-30
-1.48218e-30
-2.0121e-30
-2.67723e-30
-3.52221e-30
-4.59455e-30
-5.89209e-30
-7.21706e-30
-7.86589e-30
-5.99458e-30
1.03267e-32
5.21512e-30
2.43565e-29
9.3973e-29
3.53019e-28
1.40888e-27
5.29666e-27
1.63237e-26
7.99201e-26
3.65255e-24
2.63679e-22
5.91224e-21
5.92872e-20
3.25613e-19
1.10567e-18
2.55118e-18
4.63167e-18
2.56479e-16
-1.98445e-35
-1.48182e-35
-2.37786e-35
-4.1644e-35
-7.4333e-35
-1.34066e-34
-2.44041e-34
-4.47989e-34
-8.28464e-34
-1.5414e-33
-2.88065e-33
-5.39484e-33
-1.0096e-32
-1.88133e-32
-3.47759e-32
-6.34725e-32
-1.13797e-31
-1.99266e-31
-3.38875e-31
-5.56929e-31
-8.80775e-31
-1.33898e-30
-1.96015e-30
-2.77859e-30
-3.84634e-30
-5.24782e-30
-7.10649e-30
-9.56263e-30
-1.26691e-29
-1.60795e-29
-1.83404e-29
-1.54107e-29
-1.56469e-30
1.1429e-29
5.31269e-29
2.00494e-28
7.49014e-28
2.98103e-27
1.1454e-26
3.87369e-26
2.3836e-25
1.12464e-23
5.85878e-22
1.14356e-20
1.0961e-19
5.98667e-19
2.05149e-18
4.88328e-18
1.02292e-17
5.11437e-16
-3.87571e-35
-2.86889e-35
-4.62128e-35
-8.09365e-35
-1.44362e-34
-2.60122e-34
-4.72929e-34
-8.66799e-34
-1.59964e-33
-2.96792e-33
-5.52618e-33
-1.03025e-32
-1.91751e-32
-3.55032e-32
-6.51401e-32
-1.17901e-31
-2.09475e-31
-3.63433e-31
-6.12751e-31
-1.0001e-30
-1.57586e-30
-2.39793e-30
-3.53414e-30
-5.07519e-30
-7.15742e-30
-9.9919e-30
-1.38829e-29
-1.91933e-29
-2.61487e-29
-3.42085e-29
-4.05568e-29
-3.70167e-29
-8.71334e-30
2.18842e-29
1.0798e-28
4.05235e-28
1.52061e-27
6.07215e-27
2.39965e-26
9.10697e-26
7.13289e-25
3.15341e-23
1.22753e-21
2.11962e-20
1.94127e-19
1.05139e-18
3.63581e-18
9.02007e-18
2.32438e-17
9.77324e-16
-7.40967e-35
-5.43629e-35
-8.79499e-35
-1.54028e-34
-2.74473e-34
-4.93961e-34
-8.96681e-34
-1.64019e-33
-3.01912e-33
-5.58315e-33
-1.03521e-32
-1.91991e-32
-3.55098e-32
-6.52685e-32
-1.18753e-31
-2.12952e-31
-3.74653e-31
-6.43734e-31
-1.07597e-30
-1.74478e-30
-2.74157e-30
-4.17989e-30
-6.2065e-30
-9.02772e-30
-1.29552e-29
-1.84644e-29
-2.62426e-29
-3.71403e-29
-5.18222e-29
-6.95618e-29
-8.52192e-29
-8.33749e-29
-3.05896e-29
4.25199e-29
2.08058e-28
7.82779e-28
2.96799e-27
1.19564e-26
4.89665e-26
2.11889e-25
2.0764e-24
7.98448e-23
2.43521e-21
3.76743e-20
3.29693e-19
1.76727e-18
6.17828e-18
1.605e-17
5.07631e-17
1.76678e-15
-1.38444e-34
-1.00665e-34
-1.63631e-34
-2.86528e-34
-5.1e-34
-9.16461e-34
-1.66048e-33
-3.02994e-33
-5.56004e-33
-1.02421e-32
-1.88988e-32
-3.48425e-32
-6.39885e-32
-1.16652e-31
-2.10287e-31
-3.73324e-31
-6.50058e-31
-1.10605e-30
-1.83349e-30
-2.95654e-30
-4.63764e-30
-7.09129e-30
-1.0612e-29
-1.56278e-29
-2.27898e-29
-3.30901e-29
-4.79743e-29
-6.92842e-29
-9.8665e-29
-1.35371e-28
-1.70524e-28
-1.76819e-28
-8.62058e-29
8.39643e-29
3.83568e-28
1.45293e-27
5.58826e-27
2.28382e-26
9.77189e-26
4.85346e-25
5.67754e-24
1.83901e-22
4.5903e-21
6.42784e-20
5.37623e-19
2.84839e-18
1.00883e-17
2.75172e-17
1.04033e-16
3.02006e-15
-2.52331e-34
-1.81847e-34
-2.97052e-34
-5.19997e-34
-9.24282e-34
-1.65793e-33
-2.99706e-33
-5.45299e-33
-9.96994e-33
-1.82823e-32
-3.35477e-32
-6.1437e-32
-1.11944e-31
-2.02249e-31
-3.60994e-31
-6.34217e-31
-1.09295e-30
-1.8422e-30
-3.03116e-30
-4.86598e-30
-7.62764e-30
-1.17052e-29
-1.76554e-29
-2.63069e-29
-3.89312e-29
-5.74723e-29
-8.479e-29
-1.24614e-28
-1.8059e-28
-2.52458e-28
-3.25667e-28
-3.54466e-28
-2.10129e-28
1.07469e-28
6.82826e-28
2.60155e-27
1.01766e-26
4.24326e-26
1.91056e-25
1.08558e-24
1.42821e-23
3.90179e-22
8.24653e-21
1.05408e-19
8.4306e-19
4.41034e-18
1.58499e-17
4.54868e-17
1.99052e-16
4.89267e-15
-4.47714e-34
-3.1988e-34
-5.25106e-34
-9.18733e-34
-1.63034e-33
-2.91817e-33
-5.26098e-33
-9.53957e-33
-1.7368e-32
-3.16835e-32
-5.77755e-32
-1.05025e-31
-1.89738e-31
-3.39547e-31
-5.99884e-31
-1.04296e-30
-1.77954e-30
-2.97372e-30
-4.86187e-30
-7.77836e-30
-1.21952e-29
-1.87905e-29
-2.85636e-29
-4.30315e-29
-6.45395e-29
-9.66973e-29
-1.44864e-28
-2.16158e-28
-3.18028e-28
-4.5185e-28
-5.94951e-28
-6.74348e-28
-4.58002e-28
9.37704e-29
1.17835e-27
4.50559e-27
1.79638e-26
7.6829e-26
3.65909e-25
2.35086e-24
3.29398e-23
7.71576e-22
1.41587e-20
1.66381e-19
1.27346e-18
6.57348e-18
2.39929e-17
7.25552e-17
3.56441e-16
7.53162e-15
-7.71654e-34
-5.46891e-34
-9.01981e-34
-1.57688e-33
-2.79283e-33
-4.98646e-33
-8.96166e-33
-1.61867e-32
-2.93291e-32
-5.31948e-32
-9.63379e-32
-1.73735e-31
-3.11065e-31
-5.51254e-31
-9.6405e-31
-1.65938e-30
-2.80539e-30
-4.65239e-30
-7.56606e-30
-1.20753e-29
-1.8949e-29
-2.93236e-29
-4.49134e-29
-6.83601e-29
-1.03782e-28
-1.57564e-28
-2.39268e-28
-3.61791e-28
-5.39383e-28
-7.77309e-28
-1.04201e-27
-1.22252e-27
-9.17142e-28
3.73004e-29
1.92319e-27
7.55943e-27
3.07964e-26
1.35716e-25
6.85565e-25
4.89539e-24
7.01087e-23
1.43501e-21
2.32902e-20
2.53146e-19
1.85614e-18
9.45164e-18
3.5056e-17
1.1178e-16
6.00077e-16
1.10428e-14
-1.28915e-33
-9.07052e-34
-1.50241e-33
-2.62371e-33
-4.63651e-33
-8.25465e-33
-1.47827e-32
-2.65847e-32
-4.79158e-32
-8.6362e-32
-1.55266e-31
-2.77695e-31
-4.92687e-31
-8.64737e-31
-1.49762e-30
-2.55394e-30
-4.28224e-30
-7.05497e-30
-1.1424e-29
-1.82039e-29
-2.86085e-29
-4.44716e-29
-6.86119e-29
-1.05428e-28
-1.61836e-28
-2.48642e-28
-3.82136e-28
-5.84651e-28
-8.81946e-28
-1.2872e-27
-1.75339e-27
-2.12022e-27
-1.7231e-27
-5.40611e-29
2.87257e-27
1.2301e-26
5.13578e-26
2.34029e-25
1.25433e-24
9.76178e-24
1.38977e-22
2.52683e-21
3.67824e-20
3.71736e-19
2.61481e-18
1.31386e-17
4.95416e-17
1.66502e-16
9.5408e-16
1.54557e-14
-2.08337e-33
-1.45682e-33
-2.422e-33
-4.22364e-33
-7.445e-33
-1.32126e-32
-2.3569e-32
-4.21848e-32
-7.56042e-32
-1.3537e-31
-2.41551e-31
-4.28431e-31
-7.53374e-31
-1.31018e-30
-2.24863e-30
-3.8025e-30
-6.32965e-30
-1.03706e-29
-1.67372e-29
-2.66502e-29
-4.19641e-29
-6.55328e-29
-1.01809e-28
-1.5782e-28
-2.44714e-28
-3.80034e-28
-5.90382e-28
-9.12861e-28
-1.39179e-27
-2.05494e-27
-2.84032e-27
-3.52922e-27
-3.07379e-27
-4.59026e-28
4.08176e-27
1.94262e-26
8.34188e-26
3.94001e-25
2.23674e-24
1.86059e-23
2.58728e-22
4.233e-21
5.58649e-20
5.27341e-19
3.5647e-18
1.76906e-17
6.78596e-17
2.40029e-16
1.43835e-15
2.06924e-14
-3.2511e-33
-2.26208e-33
-3.77218e-33
-6.5667e-33
-1.15427e-32
-2.04135e-32
-3.6261e-32
-6.4576e-32
-1.15056e-31
-2.0463e-31
-3.62419e-31
-6.37634e-31
-1.11178e-30
-1.91703e-30
-3.2632e-30
-5.47732e-30
-9.06152e-30
-1.47807e-29
-2.37984e-29
-3.7892e-29
-5.9806e-29
-9.38267e-29
-1.46728e-28
-2.29311e-28
-3.58861e-28
-5.62768e-28
-8.82786e-28
-1.37824e-27
-2.12209e-27
-3.16714e-27
-4.43752e-27
-5.65345e-27
-5.23564e-27
-1.45104e-27
5.48996e-27
2.98019e-26
1.32078e-25
6.47469e-25
3.87996e-24
3.38867e-23
4.55268e-22
6.76961e-21
8.1681e-20
7.23045e-19
4.70698e-18
2.31077e-17
9.02484e-17
3.35115e-16
2.06323e-15
2.65551e-14
-4.89126e-33
-3.39077e-33
-5.66729e-33
-9.84547e-33
-1.72535e-32
-3.04004e-32
-5.37633e-32
-9.5253e-32
-1.68716e-31
-2.98092e-31
-5.24154e-31
-9.15154e-31
-1.58316e-30
-2.70878e-30
-4.57764e-30
-7.6351e-30
-1.2568e-29
-2.04316e-29
-3.28492e-29
-5.2335e-29
-8.28225e-29
-1.30533e-28
-2.05408e-28
-3.23454e-28
-5.10501e-28
-8.07729e-28
-1.27835e-27
-2.0138e-27
-3.1295e-27
-4.71873e-27
-6.69766e-27
-8.73483e-27
-8.54381e-27
-3.41238e-27
6.04946e-27
4.44936e-26
2.03924e-25
1.03801e-24
6.53541e-24
5.90063e-23
7.60699e-22
1.0358e-20
1.15012e-19
9.58141e-19
6.0211e-18
2.9302e-17
1.16657e-16
4.53194e-16
2.82428e-15
3.27085e-14
-7.08587e-33
-4.9005e-33
-8.20306e-33
-1.42175e-32
-2.48354e-32
-4.35924e-32
-7.67499e-32
-1.35285e-31
-2.38246e-31
-4.1828e-31
-7.30505e-31
-1.26645e-30
-2.17541e-30
-3.69691e-30
-6.20921e-30
-1.03031e-29
-1.68944e-29
-2.74017e-29
-4.40299e-29
-7.02326e-29
-1.11474e-28
-1.76491e-28
-2.79381e-28
-4.43052e-28
-7.04754e-28
-1.1242e-27
-1.79389e-27
-2.84992e-27
-4.46827e-27
-6.80462e-27
-9.78073e-27
-1.30417e-26
-1.33927e-26
-6.78628e-27
5.65864e-27
6.47012e-26
3.06987e-25
1.62214e-24
1.06717e-23
9.83004e-23
1.21058e-21
1.51796e-20
1.55913e-19
1.22642e-18
7.45898e-18
3.60734e-17
1.46577e-16
5.93309e-16
3.69602e-15
3.87105e-14
-9.87482e-33
-6.82196e-33
-1.14282e-32
-1.97571e-32
-3.43985e-32
-6.01463e-32
-1.0543e-31
-1.84916e-31
-3.23864e-31
-5.65229e-31
-9.81002e-31
-1.68999e-30
-2.88507e-30
-4.87494e-30
-8.14713e-30
-1.34652e-29
-2.20198e-29
-3.56687e-29
-5.73262e-29
-9.16016e-29
-1.45858e-28
-2.31978e-28
-3.69306e-28
-5.89542e-28
-9.44591e-28
-1.51809e-27
-2.44113e-27
-3.90945e-27
-6.18246e-27
-9.5079e-27
-1.38378e-26
-1.88489e-26
-2.02181e-26
-1.2062e-26
4.22934e-27
9.1231e-26
4.50156e-25
2.4683e-24
1.68662e-23
1.5674e-22
1.83795e-21
2.13103e-20
2.03347e-19
1.5145e-18
8.93522e-18
4.30444e-17
1.7875e-16
7.50877e-16
4.62694e-15
4.3981e-14
-1.32294e-32
-9.14123e-33
-1.53147e-32
-2.64054e-32
-4.5822e-32
-7.98182e-32
-1.39317e-31
-2.432e-31
-4.23763e-31
-7.35581e-31
-1.2696e-30
-2.17524e-30
-3.6944e-30
-6.21387e-30
-1.03455e-29
-1.70512e-29
-2.78391e-29
-4.50799e-29
-7.25223e-29
-1.16145e-28
-1.8558e-28
-2.96495e-28
-4.7461e-28
-7.62387e-28
-1.22976e-27
-1.99014e-27
-3.22349e-27
-5.20233e-27
-8.29689e-27
-1.28854e-26
-1.89899e-26
-2.64092e-26
-2.94709e-26
-1.97855e-26
2.23606e-27
1.23863e-25
6.41666e-25
3.65187e-24
2.57562e-23
2.39184e-22
2.66384e-21
2.86502e-20
2.54745e-19
1.80045e-18
1.0327e-17
4.96601e-17
2.10958e-16
9.15405e-16
5.53713e-15
4.78099e-14
-1.70314e-32
-1.17857e-32
-1.97346e-32
-3.3933e-32
-5.86936e-32
-1.01867e-31
-1.77086e-31
-3.07777e-31
-5.33798e-31
-9.22165e-31
-1.58411e-30
-2.70185e-30
-4.57008e-30
-7.66026e-30
-1.27202e-29
-2.09305e-29
-3.41532e-29
-5.5335e-29
-8.91692e-29
-1.43197e-28
-2.29657e-28
-3.68605e-28
-5.932e-28
-9.58548e-28
-1.55587e-27
-2.53426e-27
-4.13317e-27
-6.72039e-27
-1.08081e-26
-1.69525e-26
-2.53038e-26
-3.59175e-26
-4.15798e-26
-3.06084e-26
7.5303e-28
1.58821e-25
8.86914e-25
5.24407e-24
3.79308e-23
3.491e-22
3.68556e-21
3.68377e-20
3.05808e-19
2.05439e-18
1.14618e-17
5.50862e-17
2.39604e-16
1.06953e-15
6.31499e-15
4.95865e-14
-2.10671e-32
-1.46186e-32
-2.44524e-32
-4.19297e-32
-7.22984e-32
-1.25048e-31
-2.16572e-31
-3.74918e-31
-6.47604e-31
-1.11424e-30
-1.90664e-30
-3.24044e-30
-5.46452e-30
-9.13806e-30