/*--------------------------------*- C++ -*----------------------------------*\
  =========                 |
  \\      /  F ield         | OpenFOAM: The Open Source CFD Toolbox
   \\    /   O peration     | Website:  https://openfoam.org
    \\  /    A nd           | Version:  9
     \\/     M anipulation  |
\*---------------------------------------------------------------------------*/
FoamFile
{
    format      ascii;
    class       volScalarField;
    location    "0.19";
    object      p;
}
// * * * * * * * * * * * * * * * * * * * * * * * * * * * * * * * * * * * * * //

dimensions      [1 -1 -2 0 0 0 0];

internalField   nonuniform List<scalar> 
5000
(
3.75514
3.75252
3.74969
3.74663
3.74326
3.73959
3.73561
3.7313
3.72664
3.72163
3.71626
3.71057
3.70458
3.69839
3.6921
3.68588
3.67992
3.67445
3.66969
3.66578
3.66278
3.6605
3.65853
3.65626
3.65303
3.64838
3.64223
3.63477
3.62619
3.61645
3.60403
3.58921
3.57376
3.55783
3.54055
3.52065
3.49685
3.46882
3.43719
3.40285
3.36674
3.32999
3.29351
3.2567
3.21634
3.16755
3.10725
3.03669
2.96033
2.88173
3.7531
3.75051
3.74764
3.74452
3.74109
3.73737
3.73334
3.72898
3.7243
3.71928
3.71393
3.70831
3.70245
3.69646
3.69046
3.68463
3.67913
3.67418
3.66993
3.66648
3.66379
3.6616
3.65949
3.65686
3.65312
3.6479
3.64117
3.63314
3.6239
3.61338
3.6
3.58412
3.56786
3.55137
3.53358
3.51303
3.48842
3.45954
3.4271
3.392
3.35513
3.31755
3.28011
3.24224
3.20086
3.1513
3.09058
3.0199
2.94367
2.86545
3.75112
3.74851
3.7456
3.74243
3.73897
3.73521
3.73116
3.72679
3.72212
3.71714
3.71188
3.70639
3.70074
3.69503
3.6894
3.684
3.679
3.67456
3.67078
3.66769
3.66518
3.66298
3.66064
3.6576
3.65335
3.6476
3.64033
3.63175
3.62188
3.6106
3.5963
3.57944
3.5624
3.54534
3.52705
3.5059
3.4806
3.45103
3.41796
3.38228
3.34485
3.30666
3.26851
3.22982
3.18769
3.13771
3.07702
3.00675
2.93135
2.85442
3.74912
3.74648
3.74354
3.74035
3.73687
3.73312
3.72908
3.72475
3.72014
3.71525
3.71014
3.70485
3.69947
3.6941
3.68888
3.68394
3.67943
3.67544
3.67203
3.66918
3.66674
3.66442
3.66179
3.65834
3.65361
3.64735
3.63959
3.63048
3.62002
3.60803
3.59288
3.57512
3.55734
3.53972
3.52095
3.49926
3.47338
3.44327
3.40974
3.37365
3.33585
3.29726
3.25862
3.21936
3.17676
3.12671
3.06645
2.99706
2.92302
2.84812
3.74708
3.74442
3.74148
3.73829
3.73483
3.7311
3.72712
3.72286
3.71836
3.71363
3.70872
3.70368
3.69862
3.69363
3.68883
3.68434
3.68025
3.67662
3.67347
3.67073
3.66825
3.66572
3.66277
3.65891
3.65374
3.64705
3.63885
3.62927
3.61825
3.60562
3.5897
3.57112
3.55266
3.53449
3.51525
3.49309
3.46675
3.43625
3.40242
3.3661
3.32808
3.28928
3.25037
3.21079
3.168
3.11818
3.05871
2.99062
2.91836
2.84596
3.74499
3.74234
3.73942
3.73626
3.73285
3.7292
3.7253
3.72116
3.71681
3.71228
3.70761
3.70287
3.69815
3.69355
3.68915
3.68504
3.68129
3.67791
3.67489
3.67214
3.6695
3.66672
3.66342
3.65919
3.65366
3.64662
3.63806
3.62806
3.61655
3.60332
3.58671
3.5674
3.54831
3.52962
3.50994
3.48738
3.46071
3.42998
3.39599
3.35958
3.32151
3.28267
3.2437
3.20404
3.16132
3.112
3.05359
2.98711
2.91701
2.84743
3.74285
3.74025
3.73739
3.73429
3.73096
3.7274
3.72363
3.71965
3.7155
3.71119
3.7068
3.70237
3.69799
3.69374
3.68969
3.68589
3.68236
3.67911
3.67609
3.67321
3.67035
3.66727
3.66364
3.65911
3.6533
3.64599
3.63715
3.62682
3.61486
3.60111
3.58387
3.56393
3.54427
3.5251
3.50501
3.48214
3.45527
3.42444
3.39044
3.35406
3.31607
3.27735
3.2385
3.19898
3.15658
3.108
3.05086
2.9862
2.91852
2.85199
3.74069
3.73817
3.73539
3.73237
3.72915
3.72572
3.72211
3.71832
3.71439
3.71034
3.70623
3.70211
3.69805
3.6941
3.69031
3.68671
3.6833
3.68004
3.67691
3.67383
3.67068
3.66729
3.66337
3.65859
3.6526
3.64514
3.63612
3.62551
3.61317
3.59894
3.58116
3.56066
3.54052
3.52091
3.50048
3.47736
3.4504
3.41962
3.38573
3.34952
3.31173
3.27326
3.23469
3.19552
3.15367
3.10603
3.05032
2.98761
2.92245
2.85906
3.73853
3.73611
3.73342
3.73052
3.72743
3.72416
3.72073
3.71715
3.71345
3.70966
3.70582
3.70198
3.69818
3.69447
3.69087
3.68736
3.68395
3.68059
3.67725
3.67389
3.67043
3.66674
3.66258
3.65763
3.65156
3.64405
3.63493
3.62413
3.61145
3.59679
3.57852
3.55755
3.53702
3.51704
3.49632
3.47306
3.44612
3.4155
3.38185
3.34592
3.30845
3.27033
3.2322
3.19356
3.15244
3.10591
3.05176
2.99106
2.92842
2.86813
3.73639
3.73408
3.7315
3.72872
3.72578
3.72269
3.71945
3.71609
3.71262
3.70907
3.70548
3.70187
3.69829
3.69473
3.69121
3.68771
3.68419
3.68065
3.67705
3.67337
3.66959
3.66562
3.66126
3.65623
3.65016
3.64269
3.63357
3.62263
3.60966
3.5946
3.5759
3.55457
3.53374
3.51347
3.49254
3.46923
3.44243
3.41208
3.37879
3.34324
3.30619
3.26854
3.23095
3.19299
3.15278
3.10749
3.05495
2.99628
2.9361
2.87877
3.73426
3.73206
3.7296
3.72697
3.72419
3.72127
3.71823
3.71507
3.71182
3.70849
3.7051
3.70168
3.69823
3.69475
3.69124
3.68765
3.68397
3.68018
3.67628
3.67228
3.66819
3.66396
3.65944
3.65438
3.64838
3.64104
3.63197
3.62094
3.6077
3.5923
3.57325
3.55166
3.53064
3.51019
3.48915
3.46587
3.43931
3.40936
3.37653
3.34147
3.30493
3.26783
3.23088
3.19373
3.15455
3.11058
3.0597
3.00301
2.94518
2.8906
3.73216
3.73007
3.72773
3.72523
3.72261
3.71986
3.717
3.71403
3.71096
3.7078
3.70457
3.70127
3.6979
3.69443
3.69086
3.68714
3.68325
3.67918
3.67497
3.67065
3.66626
3.6618
3.65716
3.65209
3.64621
3.63901
3.63003
3.61892
3.60545
3.58976
3.57046
3.54878
3.5277
3.50719
3.48612
3.46299
3.43678
3.40732
3.37505
3.34059
3.30465
3.26818
3.23195
3.19569
3.15763
3.11504
3.06581
3.01105
2.9554
2.90329
3.73009
3.72809
3.72586
3.72349
3.721
3.7184
3.71569
3.71287
3.70995
3.70693
3.7038
3.70056
3.69721
3.6937
3.69001
3.68612
3.682
3.67767
3.67315
3.66852
3.66386
3.65918
3.65442
3.64936
3.64357
3.63652
3.62761
3.61644
3.60276
3.58685
3.56746
3.54585
3.52488
3.50443
3.48347
3.4606
3.43483
3.40596
3.37435
3.34057
3.30532
3.26956
3.23412
3.1988
3.16191
3.12072
3.07313
3.02021
2.96655
2.91663
3.72805
3.72611
3.72397
3.7217
3.71933
3.71684
3.71425
3.71154
3.70872
3.70577
3.7027
3.69948
3.69609
3.6925
3.68868
3.6846
3.68025
3.67565
3.67086
3.66595
3.66103
3.65614
3.65125
3.64614
3.6404
3.63342
3.62455
3.61328
3.59945
3.58344
3.56415
3.54285
3.52217
3.50193
3.4812
3.45868
3.43346
3.40527
3.37442
3.34142
3.30694
3.27196
3.23734
3.20299
3.16728
3.1275
3.08152
3.03034
2.97849
2.93044
3.72603
3.72412
3.72204
3.71984
3.71754
3.71514
3.71261
3.70997
3.7072
3.70428
3.70121
3.69796
3.6945
3.6908
3.68684
3.68257
3.67801
3.67317
3.66812
3.66296
3.65779
3.65268
3.64761
3.64239
3.6366
3.62959
3.62066
3.60928
3.59535
3.57938
3.56044
3.53972
3.51953
3.49966
3.47929
3.45725
3.43266
3.40524
3.37523
3.3431
3.30949
3.27535
3.24159
3.20821
3.17367
3.13527
3.09089
3.04132
2.99112
2.94462
3.72402
3.72211
3.72005
3.71789
3.71562
3.71325
3.71075
3.70812
3.70535
3.70242
3.69932
3.696
3.69245
3.68863
3.68451
3.68006
3.6753
3.67025
3.66497
3.65956
3.65414
3.64878
3.64348
3.63805
3.63207
3.62489
3.61579
3.60427
3.59032
3.57458
3.55628
3.53644
3.51698
3.49764
3.47777
3.45631
3.43244
3.40587
3.37678
3.34561
3.31295
3.27972
3.24684
3.21441
3.18098
3.14396
3.10116
3.05304
3.00436
2.95911
3.72203
3.72006
3.71799
3.71582
3.71355
3.71116
3.70865
3.70599
3.70318
3.7002
3.69701
3.69361
3.68994
3.68599
3.68171
3.6771
3.67216
3.6669
3.66141
3.65576
3.65007
3.64442
3.6388
3.63303
3.62671
3.61921
3.60983
3.59814
3.58427
3.569
3.55167
3.53304
3.51453
3.4959
3.47665
3.45588
3.43281
3.40715
3.37905
3.34892
3.31729
3.28504
3.25306
3.22155
3.18915
3.15347
3.11205
3.06569
3.01822
2.97393
3.72004
3.71799
3.71586
3.71365
3.71132
3.70888
3.70631
3.70359
3.7007
3.69762
3.69434
3.69082
3.68702
3.68293
3.6785
3.67373
3.6686
3.66316
3.65744
3.65154
3.64555
3.63954
3.63351
3.62727
3.62046
3.61248
3.60271
3.59084
3.5772
3.56266
3.54666
3.52956
3.51223
3.49446
3.47595
3.45596
3.43375
3.40907
3.38204
3.35301
3.32249
3.29127
3.26022
3.22959
3.1981
3.16383
3.12378
3.07894
3.03261
2.98912
3.71805
3.71589
3.71367
3.71137
3.70897
3.70644
3.70377
3.70095
3.69795
3.69476
3.69135
3.68769
3.68375
3.67951
3.67492
3.66998
3.66468
3.65903
3.65308
3.64689
3.64055
3.63411
3.62755
3.62072
3.61326
3.60467
3.59445
3.58244
3.56921
3.55568
3.54136
3.5261
3.51015
3.49339
3.47573
3.45658
3.4353
3.41164
3.38572
3.35786
3.32851
3.29838
3.26828
3.23854
3.20809
3.17471
3.13622
3.09279
3.04754
3.00477
3.71605
3.71376
3.71144
3.70903
3.70651
3.70386
3.70107
3.69812
3.695
3.69167
3.68811
3.6843
3.68021
3.6758
3.67104
3.66592
3.66042
3.65454
3.64832
3.6418
3.63504
3.62808
3.6209
3.61334
3.60511
3.59581
3.58514
3.57308
3.56051
3.54829
3.53597
3.52281
3.50841
3.49276
3.47601
3.45776
3.43744
3.41484
3.39008
3.36343
3.33531
3.30631
3.27721
3.24832
3.21876
3.18647
3.14935
3.10726
3.06308
3.02095
3.71406
3.71163
3.70918
3.70664
3.70399
3.70121
3.69828
3.69519
3.69191
3.68842
3.68471
3.68073
3.67647
3.67188
3.66694
3.66161
3.65588
3.64974
3.64319
3.63627
3.62902
3.62145
3.61354
3.60515
3.59608
3.58603
3.57493
3.56309
3.55141
3.5408
3.53075
3.51986
3.50711
3.49264
3.47686
3.45955
3.44021
3.41868
3.39509
3.3697
3.34284
3.31502
3.28694
3.25889
3.23019
3.19899
3.16316
3.12239
3.07928
3.03776
3.7121
3.70953
3.70693
3.70425
3.70146
3.69854
3.69546
3.69221
3.68877
3.68512
3.68123
3.67707
3.67262
3.66783
3.66267
3.6571
3.6511
3.64464
3.63771
3.63033
3.62249
3.61423
3.6055
3.59623
3.58628
3.57556
3.5642
3.55275
3.54229
3.53357
3.52599
3.51746
3.5064
3.49314
3.47834
3.46196
3.4436
3.42315
3.40076
3.37663
3.35105
3.32445
3.2974
3.27021
3.24238
3.21221
3.17765
3.13822
3.09618
3.0553
3.71019
3.70747
3.70473
3.70191
3.69897
3.6959
3.69267
3.68926
3.68565
3.68182
3.67774
3.67339
3.66873
3.66372
3.65832
3.65247
3.64615
3.63931
3.63193
3.62399
3.61551
3.60647
3.59687
3.5867
3.57594
3.56469
3.55329
3.54254
3.53361
3.52704
3.52203
3.51584
3.50642
3.49434
3.4805
3.46502
3.44763
3.42825
3.40704
3.38418
3.3599
3.33453
3.30853
3.28224
3.25528
3.22613
3.19284
3.15476
3.11385
3.07367
3.70832
3.70546
3.70258
3.69963
3.69656
3.69334
3.68995
3.68638
3.68261
3.6786
3.67433
3.66978
3.66489
3.65963
3.65395
3.64778
3.64109
3.6338
3.6259
3.61734
3.60813
3.59827
3.5878
3.57678
3.56535
3.55379
3.54267
3.53298
3.52591
3.52164
3.51919
3.5152
3.5073
3.49633
3.48338
3.46877
3.4523
3.43398
3.41393
3.39233
3.36933
3.34519
3.32028
3.29492
3.26886
3.24073
3.20871
3.17201
3.13231
3.09293
3.70647
3.7035
3.70051
3.69744
3.69424
3.69089
3.68736
3.68364
3.6797
3.67551
3.67105
3.66628
3.66115
3.65562
3.64962
3.64309
3.63596
3.62818
3.61968
3.61045
3.60047
3.58979
3.5785
3.56676
3.55487
3.54331
3.53289
3.52464
3.51968
3.51778
3.51775
3.51572
3.50916
3.49917
3.48702
3.47321
3.45763
3.44032
3.42141
3.40103
3.37929
3.35638
3.33257
3.3082
3.28307
3.25599
3.22525
3.18998
3.15157
3.11314
3.70462
3.70159
3.69851
3.69535
3.69205
3.68858
3.68492
3.68106
3.67696
3.6726
3.66794
3.66295
3.65756
3.65173
3.64539
3.63845
3.63085
3.62252
3.61339
3.60345
3.59271
3.58125
3.56926
3.55701
3.54497
3.5338
3.52447
3.51802
3.51536
3.51578
3.51792
3.51753
3.51206
3.50289
3.49144
3.47836
3.4636
3.44726
3.42945
3.41026
3.38975
3.36804
3.34537
3.32202
3.29787
3.27188
3.24244
3.20865
3.17164
3.13432
3.70279
3.69974
3.69661
3.69338
3.68999
3.68642
3.68266
3.67867
3.67442
3.66989
3.66504
3.65982
3.65417
3.64802
3.6413
3.63393
3.62582
3.61691
3.60713
3.59648
3.58504
3.57293
3.56043
3.54796
3.53614
3.5258
3.51797
3.51361
3.5133
3.51588
3.51982
3.52067
3.51603
3.5075
3.49664
3.48419
3.4702
3.45477
3.43802
3.41997
3.40065
3.38014
3.3586
3.33633
3.31321
3.28835
3.26024
3.22797
3.19249
3.15644
3.70098
3.69794
3.69479
3.69152
3.68808
3.68444
3.68058
3.67648
3.6721
3.66741
3.66237
3.65692
3.65099
3.64451
3.63741
3.62958
3.62095
3.61145
3.60105
3.58977
3.57773
3.56516
3.55243
3.54009
3.52891
3.51982
3.51384
3.51173
3.51371
3.51816
3.52347
3.52515
3.52105
3.51299
3.50259
3.49069
3.47741
3.46285
3.44709
3.43014
3.41197
3.39262
3.37223
3.35105
3.32903
3.30533
3.2786
3.24792
3.21406
3.17947
3.6992
3.69622
3.69307
3.68978
3.6863
3.68261
3.67868
3.67449
3.67
3.66516
3.65993
3.65425
3.64805
3.64124
3.63374
3.62547
3.61633
3.60629
3.59534
3.58354
3.57109
3.55831
3.54568
3.53388
3.52376
3.51631
3.51242
3.5126
3.51665
3.52259
3.5288
3.53089
3.52705
3.51929
3.50925
3.49783
3.48519
3.47144
3.45663
3.44073
3.42366
3.40544
3.38619
3.36615
3.34526
3.32278
3.29745
3.2684
3.23628
3.20333
3.69746
3.69455
3.69143
3.68815
3.68466
3.68094
3.67696
3.67269
3.6681
3.66313
3.65773
3.65183
3.64536
3.63823
3.63036
3.62166
3.61207
3.60156
3.59018
3.57806
3.56545
3.55278
3.54063
3.52978
3.52112
3.51558
3.5139
3.51623
3.52201
3.52901
3.53564
3.53775
3.53395
3.52635
3.51657
3.50557
3.49351
3.48052
3.4666
3.45169
3.43568
3.41857
3.40046
3.38157
3.36184
3.3406
3.3167
3.28934
3.25906
3.22789
3.69576
3.69292
3.68984
3.6866
3.68312
3.67939
3.67538
3.67107
3.66639
3.66131
3.65576
3.64966
3.64294
3.63552
3.62731
3.61825
3.60829
3.59745
3.58582
3.57362
3.56116
3.54896
3.53769
3.52815
3.52125
3.51779
3.51826
3.52249
3.52957
3.53716
3.54377
3.54556
3.54162
3.53406
3.52448
3.51383
3.50232
3.49004
3.47696
3.46299
3.448
3.43197
3.415
3.39726
3.37872
3.35874
3.33629
3.31063
3.28227
3.25303
3.69404
3.69128
3.68828
3.68509
3.68165
3.67794
3.67393
3.66958
3.66485
3.65968
3.654
3.64774
3.64081
3.63314
3.62467
3.61533
3.60514
3.59415
3.58251
3.57051
3.55854
3.54718
3.53713
3.52922
3.52426
3.52289
3.52532
3.53107
3.53897
3.54672
3.55293
3.55415
3.54992
3.54233
3.5329
3.52257
3.51157
3.49995
3.48767
3.47459
3.46059
3.44561
3.42975
3.41318
3.39582
3.37711
3.35612
3.33219
3.30579
3.27858
3.69228
3.68962
3.68672
3.68361
3.68023
3.67656
3.67258
3.66823
3.66347
3.65824
3.65246
3.64607
3.63899
3.63115
3.62251
3.61304
3.60278
3.59186
3.58049
3.56899
3.55785
3.54765
3.53913
3.53303
3.53006
3.53065
3.53473
3.54157
3.54983
3.55733
3.56285
3.56331
3.55872
3.55104
3.54175
3.53172
3.52119
3.51019
3.49866
3.48644
3.47339
3.45946
3.4447
3.42926
3.41309
3.39564
3.3761
3.35391
3.3295
3.30438
3.69047
3.68794
3.68516
3.68215
3.67885
3.67525
3.67132
3.667
3.66224
3.65698
3.65116
3.64469
3.63753
3.62961
3.62092
3.61148
3.60137
3.59077
3.57993
3.56926
3.55924
3.55048
3.54367
3.53946
3.5384
3.54069
3.54604
3.55351
3.56171
3.56865
3.57326
3.57287
3.56787
3.5601
3.55093
3.54119
3.5311
3.52071
3.50989
3.4985
3.48638
3.47346
3.45979
3.44548
3.43046
3.41426
3.39615
3.37568
3.35327
3.33027
3.68863
3.68625
3.6836
3.6807
3.67751
3.674
3.67014
3.66587
3.66115
3.65591
3.65009
3.64363
3.63647
3.6286
3.62002
3.61079
3.60104
3.591
3.58099
3.5714
3.56274
3.5556
3.55057
3.54821
3.54886
3.55252
3.55872
3.56642
3.5742
3.58035
3.58393
3.58264
3.57725
3.56939
3.56035
3.5509
3.54125
3.53142
3.5213
3.51071
3.49951
3.4876
3.47499
3.46177
3.44788
3.43289
3.41619
3.39742
3.37698
3.35609
3.68677
3.68454
3.68204
3.67927
3.6762
3.6728
3.66903
3.66486
3.66021
3.65504
3.64929
3.64291
3.63587
3.62818
3.61986
3.61104
3.60189
3.59265
3.58368
3.57538
3.56825
3.56279
3.55951
3.55882
3.56091
3.56559
3.57225
3.57981
3.58692
3.59214
3.59465
3.59249
3.58673
3.57881
3.56994
3.56078
3.55156
3.54228
3.53282
3.52302
3.51272
3.50181
3.49025
3.4781
3.46529
3.45147
3.43615
3.41904
3.40052
3.3817
3.68487
3.68282
3.68046
3.67784
3.6749
3.67164
3.66801
3.66395
3.65943
3.65439
3.64879
3.64259
3.63578
3.6284
3.62053
3.61231
3.60393
3.5957
3.58794
3.58106
3.5755
3.5717
3.57004
3.57079
3.57399
3.57933
3.58611
3.59326
3.59954
3.60377
3.60523
3.60227
3.59619
3.58826
3.57958
3.57074
3.56195
3.55321
3.5444
3.53537
3.52596
3.51604
3.50553
3.49442
3.48264
3.46994
3.45595
3.44046
3.42379
3.40696
3.68294
3.68106
3.67887
3.6764
3.67363
3.67052
3.66705
3.66317
3.65882
3.65398
3.6486
3.64268
3.63624
3.62932
3.62205
3.61458
3.60715
3.60005
3.5936
3.58819
3.58416
3.58189
3.58164
3.58356
3.58755
3.59322
3.59985
3.60642
3.6118
3.61505
3.61552
3.61186
3.60554
3.59765
3.5892
3.58071
3.57235
3.56414
3.55596
3.5477
3.53918
3.53025
3.52077
3.51066
3.49988
3.48825
3.47555
3.46161
3.44671
3.43176
3.68098
3.67928
3.67726
3.67496
3.67237
3.66945
3.66618
3.66251
3.6584
3.65382
3.64876
3.64323
3.63726
3.63093
3.62438
3.6178
3.61142
3.60552
3.60041
3.5964
3.59381
3.59288
3.59379
3.59658
3.60108
3.60682
3.61311
3.61899
3.62346
3.6258
3.6254
3.62116
3.61467
3.60689
3.59873
3.59061
3.5827
3.57501
3.56746
3.55994
3.5523
3.54436
3.5359
3.52679
3.51695
3.50635
3.49489
3.48245
3.46923
3.45602
3.67899
3.67746
3.67562
3.67352
3.67113
3.66843
3.66539
3.66198
3.65817
3.65394
3.64928
3.64422
3.63883
3.63319
3.62747
3.62184
3.61656
3.61186
3.60804
3.60534
3.60399
3.60419
3.606
3.6094
3.61415
3.61977
3.62559
3.63075
3.63437
3.6359
3.63476
3.63007
3.62351
3.61591
3.60809
3.60038
3.59295
3.58578
3.57883
3.57203
3.56526
3.5583
3.55087
3.54274
3.53383
3.52421
3.51395
3.50295
3.49131
3.47969
3.67695
3.67562
3.67398
3.67208
3.66992
3.66747
3.66471
3.66161
3.65815
3.65432
3.65014
3.64564
3.6409
3.63603
3.63118
3.62654
3.62234
3.6188
3.61615
3.61459
3.6143
3.61538
3.61786
3.62163
3.62642
3.63179
3.63709
3.64156
3.64441
3.64525
3.64353
3.63854
3.632
3.62465
3.61723
3.60999
3.60304
3.59639
3.59002
3.58392
3.57799
3.57199
3.56559
3.55844
3.55045
3.5418
3.5327
3.5231
3.51292
3.50273
3.67488
3.67375
3.67232
3.67065
3.66874
3.66657
3.66413
3.66138
3.65833
3.65496
3.65131
3.64743
3.64339
3.63932
3.63536
3.63169
3.62851
3.62601
3.62439
3.6238
3.62435
3.6261
3.62902
3.63297
3.63767
3.6427
3.64747
3.6513
3.65351
3.65379
3.65165
3.6465
3.6401
3.63309
3.62613
3.61938
3.61293
3.60679
3.60099
3.59554
3.59042
3.58537
3.57999
3.57383
3.56677
3.55911
3.55116
3.54288
3.53407
3.52513
3.67277
3.67186
3.67066
3.66923
3.6676
3.66574
3.66364
3.66129
3.65867
3.65581
3.65273
3.64949
3.64618
3.6429
3.6398
3.63704
3.63478
3.63321
3.63246
3.63264
3.63384
3.63605
3.63924
3.64323
3.64775
3.65241
3.65668
3.65996
3.66164
3.66151
3.6591
3.65396
3.6478
3.64121
3.63476
3.62854
3.6226
3.61696
3.61168
3.60686
3.60249
3.59836
3.59399
3.58885
3.58277
3.57611
3.56932
3.56233
3.55477
3.54691
3.67064
3.66996
3.669
3.66784
3.6665
3.66497
3.66324
3.6613
3.65915
3.65681
3.65432
3.65172
3.64912
3.6466
3.6443
3.64236
3.64092
3.64012
3.64007
3.64086
3.64252
3.64504
3.64835
3.65229
3.65659
3.66088
3.6647
3.66752
3.66882
3.66841
3.6659
3.66091
3.65511
3.64901
3.64312
3.63746
3.63203
3.62687
3.62208
3.61783
3.61416
3.61089
3.60752
3.60342
3.59838
3.59282
3.58721
3.58145
3.57504
3.5681
3.66851
3.66807
3.66734
3.66645
3.66541
3.66422
3.66287
3.66136
3.65968
3.65786
3.65595
3.65398
3.65204
3.65023
3.64865
3.64742
3.64667
3.6465
3.64701
3.64824
3.65023
3.65293
3.65628
3.6601
3.66416
3.66812
3.67157
3.67404
3.67507
3.67454
3.67207
3.66738
3.66204
3.65651
3.65121
3.64611
3.64119
3.63649
3.63216
3.62842
3.62539
3.62292
3.62052
3.61749
3.61359
3.60921
3.60483
3.60028
3.59492
3.58874
3.66638
3.66617
3.66569
3.66507
3.66433
3.66348
3.6625
3.6614
3.66019
3.65888
3.65751
3.65612
3.6548
3.65361
3.65266
3.65204
3.65185
3.65218
3.6531
3.65466
3.65685
3.65965
3.66297
3.66666
3.6705
3.67419
3.67735
3.67958
3.68047
3.67995
3.67767
3.67341
3.66862
3.66371
3.65902
3.65448
3.65006
3.6458
3.64191
3.63863
3.63616
3.63442
3.63293
3.631
3.62834
3.62527
3.6222
3.61884
3.61441
3.60886
3.66426
3.66428
3.66403
3.66367
3.66323
3.6627
3.66208
3.66137
3.66059
3.65974
3.65887
3.65802
3.65723
3.65659
3.65617
3.65604
3.6563
3.65702
3.65824
3.66001
3.66234
3.66517
3.66844
3.672
3.67566
3.67914
3.6821
3.6842
3.68508
3.68468
3.68272
3.67902
3.67486
3.67061
3.66654
3.66256
3.65863
3.65481
3.65133
3.64847
3.64649
3.64538
3.64474
3.64392
3.64258
3.64096
3.63928
3.6371
3.63352
3.62848
3.66216
3.66239
3.66235
3.66223
3.66205
3.66182
3.66153
3.66118
3.66079
3.66037
3.65994
3.65954
3.65922
3.65903
3.65904
3.65931
3.65992
3.66092
3.66236
3.66427
3.66666
3.6695
3.67271
3.67617
3.67969
3.68304
3.6859
3.68798
3.68896
3.68879
3.68727
3.68421
3.68075
3.67718
3.67375
3.67032
3.66688
3.6635
3.66042
3.65796
3.65641
3.65584
3.65596
3.65621
3.65627
3.65622
3.65603
3.65502
3.65222
3.64761
3.66008
3.66049
3.66063
3.66073
3.66079
3.66082
3.66082
3.66079
3.66073
3.66067
3.66061
3.66059
3.66065
3.66084
3.66119
3.66177
3.66264
3.66384
3.66542
3.66742
3.66984
3.67266
3.67582
3.67921
3.68266
3.68595
3.68881
3.69097
3.69215
3.69232
3.69131
3.68898
3.68626
3.68339
3.68058
3.67771
3.67477
3.67186
3.66922
3.66717
3.66599
3.66588
3.66664
3.66789
3.66937
3.67097
3.67235
3.67251
3.67044
3.66622
3.65803
3.65857
3.65888
3.65915
3.65941
3.65966
3.6599
3.66013
3.66035
3.66058
3.66083
3.66112
3.66149
3.66196
3.66257
3.66338
3.66443
3.66577
3.66745
3.66949
3.67192
3.67471
3.67784
3.68119
3.68462
3.68793
3.69087
3.6932
3.69467
3.69526
3.69485
3.69328
3.69133
3.68917
3.68698
3.68467
3.68227
3.67989
3.67776
3.67615
3.67533
3.6756
3.67688
3.67903
3.68187
3.68514
3.68811
3.68946
3.68809
3.68425
3.65601
3.65664
3.65707
3.65749
3.6579
3.65833
3.65875
3.65919
3.65963
3.66009
3.66057
3.6611
3.66169
3.66237
3.66318
3.66415
3.66533
3.66676
3.66848
3.67054
3.67295
3.67573
3.67883
3.68217
3.68563
3.68903
3.69213
3.69472
3.69655
3.69762
3.69785
3.69707
3.69588
3.69443
3.69287
3.69116
3.68936
3.6876
3.68606
3.68497
3.68457
3.68515
3.68684
3.68973
3.6938
3.69868
3.70321
3.7057
3.70501
3.7016
3.654
3.6547
3.65521
3.65572
3.65625
3.6568
3.65736
3.65795
3.65855
3.65917
3.65982
3.66052
3.66127
3.66211
3.66304
3.66412
3.66537
3.66685
3.66859
3.67064
3.67303
3.67578
3.67887
3.68224
3.68577
3.6893
3.69263
3.69553
3.69779
3.69938
3.70028
3.70027
3.69984
3.69908
3.69816
3.69709
3.69598
3.69497
3.69417
3.69373
3.69382
3.6947
3.6967
3.70016
3.70527
3.71158
3.71754
3.7211
3.72107
3.71818
3.65201
3.65273
3.65329
3.65386
3.65446
3.65509
3.65574
3.65642
3.65712
3.65785
3.65861
3.65942
3.66028
3.6612
3.66222
3.66335
3.66464
3.66613
3.66786
3.66989
3.67225
3.67498
3.67807
3.68147
3.6851
3.6888
3.69239
3.69566
3.69839
3.70052
3.70209
3.70284
3.70312
3.70303
3.70277
3.70241
3.70212
3.70201
3.70215
3.70253
3.70322
3.70445
3.70668
3.71054
3.71644
3.7239
3.73105
3.73553
3.73614
3.73388
3.65004
3.65074
3.65132
3.65192
3.65255
3.65321
3.6539
3.65462
3.65538
3.65617
3.65699
3.65785
3.65876
3.65973
3.66078
3.66194
3.66324
3.66471
3.66642
3.66841
3.67074
3.67343
3.67651
3.67996
3.68369
3.68758
3.69146
3.69512
3.69833
3.70102
3.70324
3.70469
3.70563
3.70619
3.70661
3.70706
3.70773
3.70873
3.71001
3.71144
3.7129
3.71458
3.71702
3.72111
3.72752
3.73576
3.74377
3.74892
3.75013
3.74866
3.64808
3.64874
3.6493
3.6499
3.65052
3.65118
3.65187
3.6526
3.65337
3.65417
3.655
3.65588
3.65681
3.65779
3.65884
3.65999
3.66126
3.66271
3.66438
3.66632
3.6686
3.67126
3.67433
3.67781
3.68164
3.68572
3.68989
3.69394
3.69764
3.70086
3.7037
3.70579
3.70732
3.70849
3.70963
3.71099
3.71281
3.71514
3.71782
3.72052
3.72298
3.72524
3.72792
3.73211
3.73873
3.74735
3.75576
3.76128
3.76301
3.76251
3.64614
3.64673
3.64726
3.64781
3.6484
3.64903
3.6497
3.6504
3.65114
3.65192
3.65273
3.65359
3.6545
3.65545
3.65648
3.6576
3.65884
3.66024
3.66186
3.66374
3.66596
3.66858
3.67163
3.67512
3.67904
3.68329
3.68773
3.69214
3.6963
3.70002
3.70342
3.70607
3.70813
3.70988
3.71178
3.71418
3.71734
3.72124
3.72559
3.72984
3.73352
3.73655
3.73953
3.74375
3.75029
3.75883
3.76715
3.77269
3.77487
3.77555
3.64421
3.64472
3.64518
3.64569
3.64622
3.6468
3.64741
3.64806
3.64875
3.64948
3.65025
3.65106
3.65192
3.65284
3.65382
3.6549
3.65608
3.65743
3.65898
3.6608
3.66296
3.66551
3.66852
3.67202
3.67599
3.68037
3.68503
3.68977
3.69433
3.6985
3.70239
3.70552
3.70802
3.71032
3.71303
3.71661
3.72133
3.72707
3.73336
3.73943
3.74459
3.74857
3.75197
3.75614
3.76234
3.77034
3.77805
3.78327
3.78586
3.78798
3.64228
3.6427
3.6431
3.64353
3.644
3.64451
3.64505
3.64564
3.64626
3.64692
3.64762
3.64837
3.64917
3.65003
3.65095
3.65197
3.6531
3.65438
3.65587
3.65761
3.65969
3.66217
3.66512
3.66858
3.67257
3.67703
3.68185
3.68685
3.69175
3.6963
3.70059
3.7041
3.70698
3.70982
3.71339
3.7183
3.7248
3.73264
3.74115
3.74931
3.75617
3.76131
3.76521
3.76931
3.77493
3.78194
3.78859
3.79322
3.79628
3.80015
3.64035
3.64068
3.64101
3.64137
3.64176
3.6422
3.64266
3.64317
3.64371
3.64429
3.64492
3.6456
3.64632
3.64711
3.64797
3.64892
3.64998
3.65119
3.6526
3.65427
3.65626
3.65866
3.66152
3.66492
3.66887
3.67336
3.67827
3.68344
3.68858
3.69341
3.698
3.7018
3.705
3.70836
3.71288
3.71928
3.72779
3.73799
3.74897
3.75945
3.76823
3.77468
3.77919
3.78317
3.78797
3.79363
3.79887
3.80279
3.80651
3.81249
3.63843
3.63867
3.63892
3.63921
3.63953
3.63988
3.64027
3.64069
3.64115
3.64165
3.6422
3.6428
3.64345
3.64416
3.64494
3.64582
3.64681
3.64795
3.64928
3.65086
3.65276
3.65505
3.65781
3.66111
3.66498
3.66941
3.67434
3.67958
3.68485
3.68986
3.69464
3.69863
3.7021
3.706
3.71155
3.71961
3.73035
3.74316
3.75682
3.76982
3.78067
3.78855
3.79373
3.79752
3.80129
3.80533
3.809
3.81231
3.81701
3.82552
3.63652
3.63667
3.63686
3.63707
3.63731
3.63759
3.6379
3.63824
3.63862
3.63904
3.63951
3.64002
3.64059
3.64123
3.64194
3.64274
3.64366
3.64472
3.64597
3.64746
3.64925
3.65142
3.65405
3.65721
3.66094
3.66526
3.67011
3.67531
3.68059
3.68565
3.6905
3.69459
3.69831
3.70277
3.70947
3.71935
3.73254
3.74816
3.7647
3.78035
3.79336
3.80273
3.80857
3.81209
3.81467
3.81695
3.81911
3.82215
3.82834
3.83977
3.63461
3.63469
3.6348
3.63495
3.63513
3.63534
3.63557
3.63584
3.63615
3.63649
3.63688
3.63732
3.63781
3.63837
3.63901
3.63973
3.64057
3.64155
3.64271
3.6441
3.64578
3.64781
3.65029
3.65327
3.65682
3.66095
3.66562
3.67067
3.67584
3.68081
3.6856
3.68972
3.69365
3.69875
3.70671
3.7186
3.73442
3.75303
3.77259
3.79095
3.80615
3.81698
3.82342
3.82654
3.82783
3.82842
3.82943
3.83277
3.84101
3.8557
3.63269
3.63272
3.63278
3.63286
3.63298
3.63313
3.63331
3.63351
3.63375
3.63402
3.63434
3.63471
3.63513
3.63561
3.63617
3.63683
3.63759
3.63848
3.63955
3.64083
3.64238
3.64427
3.64656
3.64933
3.65264
3.65651
3.66091
3.6657
3.67061
3.67537
3.67997
3.68403
3.6882
3.69401
3.70338
3.71746
3.73609
3.75781
3.78043
3.80153
3.81884
3.83103
3.83792
3.84054
3.84056
3.83977
3.84023
3.84462
3.85549
3.87362
3.63078
3.63077
3.63078
3.63082
3.63089
3.63099
3.63111
3.63126
3.63144
3.63165
3.6319
3.63221
3.63256
3.63298
3.63347
3.63405
3.63473
3.63554
3.6365
3.63767
3.63908
3.6408
3.64288
3.64541
3.64843
3.65197
3.65601
3.66042
3.66495
3.66935
3.67364
3.67757
3.682
3.68864
3.69959
3.71602
3.73759
3.7625
3.78819
3.81192
3.83122
3.84455
3.85173
3.85378
3.85273
3.8511
3.85186
3.8581
3.87206
3.8936
3.62889
3.62884
3.62882
3.62882
3.62885
3.62891
3.62898
3.62909
3.62922
3.62938
3.62958
3.62982
3.63012
3.63047
3.6309
3.6314
3.632
3.63272
3.63359
3.63463
3.63589
3.63742
3.63927
3.64152
3.6442
3.64735
3.65094
3.65485
3.65886
3.66279
3.66664
3.67041
3.67516
3.68276
3.69546
3.7144
3.73901
3.76712
3.79578
3.82198
3.84304
3.85727
3.86455
3.86604
3.86431
3.86262
3.8646
3.87343
3.89078
3.91546
3.62703
3.62694
3.62689
3.62686
3.62686
3.62689
3.62693
3.627
3.62709
3.62721
3.62737
3.62756
3.6278
3.6281
3.62846
3.62889
3.62942
3.63004
3.6308
3.6317
3.6328
3.63413
3.63573
3.63766
3.63996
3.64265
3.6457
3.64902
3.65239
3.65571
3.65903
3.66261
3.66776
3.67649
3.69112
3.71272
3.74041
3.77164
3.80312
3.83154
3.85407
3.8689
3.8761
3.8772
3.87537
3.87455
3.87867
3.89068
3.91139
3.93872
3.62516
3.62506
3.62498
3.62494
3.62492
3.62493
3.62495
3.62499
3.62505
3.62514
3.62526
3.62541
3.62561
3.62585
3.62615
3.62652
3.62696
3.6275
3.62813
3.6289
3.62982
3.63093
3.63226
3.63385
3.63572
3.63789
3.64033
3.64295
3.64557
3.64817
3.65088
3.65428
3.65993
3.66997
3.68671
3.71107
3.74183
3.77605
3.81008
3.84039
3.86405
3.87922
3.88619
3.88724
3.88606
3.88709
3.89415
3.90958
3.93334
3.96275
3.62329
3.62318
3.6231
3.62305
3.62303
3.62302
3.62302
3.62305
3.62309
3.62316
3.62325
3.62337
3.62353
3.62373
3.62397
3.62427
3.62464
3.62507
3.62559
3.62621
3.62695
3.62782
3.62886
3.63007
3.63148
3.63308
3.63483
3.63666
3.63843
3.64023
3.64227
3.64552
3.65182
3.66334
3.68237
3.70955
3.74331
3.78028
3.81653
3.84834
3.87275
3.88811
3.89475
3.89625
3.89656
3.90035
3.91085
3.92962
3.95593
3.98677
3.62141
3.6213
3.62123
3.62119
3.62116
3.62115
3.62115
3.62117
3.6212
3.62125
3.62133
3.62142
3.62155
3.62171
3.6219
3.62214
3.62243
3.62277
3.62317
3.62363
3.62418
3.62481
3.62553
3.62634
3.62725
3.62823
3.62923
3.6302
3.63104
3.63197
3.63332
3.6365
3.64358
3.65678
3.67824
3.70826
3.74485
3.78427
3.82233
3.85519
3.87994
3.8952
3.90203
3.90443
3.90708
3.9142
3.92829
3.9501
3.97842
4.01008
3.61952
3.61944
3.61938
3.61935
3.61933
3.61933
3.61933
3.61935
3.61938
3.61942
3.61948
3.61956
3.61966
3.61978
3.61993
3.62011
3.62032
3.62056
3.62084
3.62116
3.6215
3.62188
3.62227
3.62268
3.62306
3.62338
3.62358
3.62363
3.62348
3.62352
3.6242
3.62739
3.63542
3.65048
3.67446
3.70726
3.74645
3.78793
3.82732
3.86076
3.88551
3.90064
3.90793
3.91197
3.91761
3.92835
3.94588
3.97032
4.00007
4.03212
3.61763
3.61758
3.61754
3.61753
3.61753
3.61753
3.61755
3.61757
3.6176
3.61764
3.6177
3.61776
3.61784
3.61794
3.61805
3.61817
3.61831
3.61846
3.61862
3.61878
3.61892
3.61904
3.61911
3.61908
3.61892
3.61856
3.61793
3.61702
3.61587
3.61501
3.61508
3.61842
3.62758
3.64464
3.67118
3.70662
3.74807
3.79115
3.83136
3.86493
3.88942
3.90445
3.91263
3.91897
3.92803
3.94241
3.96305
3.98959
4.02031
4.05247
3.61574
3.61572
3.61571
3.61572
3.61574
3.61576
3.61579
3.61583
3.61587
3.61592
3.61597
3.61603
3.61609
3.61616
3.61623
3.61631
3.61638
3.61644
3.61648
3.61649
3.61644
3.6163
3.61604
3.61559
3.61488
3.61383
3.61236
3.61049
3.60834
3.60664
3.6062
3.60985
3.62029
3.63946
3.66852
3.70637
3.74967
3.79381
3.83431
3.8676
3.89166
3.90677
3.91633
3.92548
3.93811
3.95591
3.97922
4.00739
4.03872
4.07092
3.61385
3.61386
3.61389
3.61393
3.61397
3.61402
3.61407
3.61412
3.61417
3.61423
3.61428
3.61434
3.61439
3.61444
3.61449
3.61452
3.61453
3.61451
3.61444
3.6143
3.61406
3.61368
3.61309
3.61222
3.61098
3.60925
3.60695
3.60415
3.60107
3.59861
3.59782
3.60196
3.61383
3.63515
3.6666
3.70652
3.75117
3.79581
3.83607
3.86875
3.89232
3.90782
3.91922
3.93146
3.94757
3.96843
3.99396
4.02335
4.05508
4.08738
3.61195
3.61201
3.61207
3.61214
3.61221
3.61228
3.61235
3.61243
3.6125
3.61257
3.61263
3.61269
3.61274
3.61277
3.61279
3.61279
3.61274
3.61265
3.61248
3.61221
3.61179
3.61118
3.61029
3.60903
3.60727
3.6049
3.60183
3.59817
3.59425
3.59119
3.59022
3.59504
3.60844
3.63187
3.66548
3.70704
3.75249
3.79704
3.8366
3.86842
3.89157
3.90778
3.92139
3.93681
3.95612
3.97962
4.00694
4.03725
4.0693
4.10188
3.61005
3.61015
3.61025
3.61036
3.61046
3.61056
3.61066
3.61075
3.61084
3.61093
3.611
3.61107
3.61111
3.61114
3.61114
3.61111
3.61102