/*--------------------------------*- C++ -*----------------------------------*\
  =========                 |
  \\      /  F ield         | OpenFOAM: The Open Source CFD Toolbox
   \\    /   O peration     | Website:  https://openfoam.org
    \\  /    A nd           | Version:  9
     \\/     M anipulation  |
\*---------------------------------------------------------------------------*/
FoamFile
{
    format      ascii;
    class       surfaceScalarField;
    location    "0.19";
    object      phi;
}
// * * * * * * * * * * * * * * * * * * * * * * * * * * * * * * * * * * * * * //

dimensions      [0 3 -1 0 0 0 0];

internalField   nonuniform List<scalar> 
9850
(
-4.71919e-07
3.31441e-06
-4.59299e-07
3.43428e-06
-4.45714e-07
3.56246e-06
-4.31964e-07
3.70669e-06
-4.18538e-07
3.86389e-06
-4.05837e-07
4.03133e-06
-3.94387e-07
4.20832e-06
-3.84972e-07
4.39552e-06
-3.78695e-07
4.59456e-06
-3.7701e-07
4.80801e-06
-3.81706e-07
5.03942e-06
-3.94801e-07
5.29341e-06
-4.18323e-07
5.57561e-06
-4.53934e-07
5.89239e-06
-5.02384e-07
6.25017e-06
-5.62848e-07
6.65449e-06
-6.32264e-07
7.10856e-06
-7.04899e-07
7.61173e-06
-7.72442e-07
8.15821e-06
-8.24881e-07
8.73653e-06
-8.52274e-07
9.33069e-06
-8.47249e-07
9.9232e-06
-8.07662e-07
1.05005e-05
-7.38557e-07
1.106e-05
-6.52411e-07
1.16173e-05
-5.66822e-07
1.22108e-05
-4.99566e-07
1.28984e-05
-4.62361e-07
1.37393e-05
-4.56289e-07
1.47539e-05
-4.72372e-07
1.5873e-05
-5.03849e-07
1.97633e-05
-5.39058e-07
1.97199e-05
-5.8029e-07
1.93868e-05
-6.26009e-07
1.92134e-05
-6.64967e-07
1.95332e-05
-6.85926e-07
2.02716e-05
-6.85664e-07
2.10859e-05
-6.68612e-07
2.16826e-05
-6.43499e-07
2.19589e-05
-6.20687e-07
2.19137e-05
-6.10281e-07
2.15383e-05
-6.19366e-07
2.08621e-05
-6.48221e-07
2.00916e-05
-6.89085e-07
1.96106e-05
-7.30346e-07
1.97197e-05
-7.64694e-07
2.03195e-05
-7.95019e-07
2.09019e-05
-8.31051e-07
2.09281e-05
-8.80168e-07
2.028e-05
1.93833e-05
-5.13641e-07
3.30409e-06
-5.0133e-07
3.42197e-06
-4.88365e-07
3.5495e-06
-4.75655e-07
3.69398e-06
-4.63704e-07
3.85194e-06
-4.52976e-07
4.0206e-06
-4.44112e-07
4.19945e-06
-4.38019e-07
4.38942e-06
-4.35909e-07
4.59245e-06
-4.39301e-07
4.8114e-06
-4.49952e-07
5.05007e-06
-4.697e-07
5.31316e-06
-5.00181e-07
5.60609e-06
-5.42405e-07
5.93461e-06
-5.96212e-07
6.30397e-06
-6.59669e-07
6.71794e-06
-7.28587e-07
7.17748e-06
-7.96352e-07
7.6795e-06
-8.54335e-07
8.21619e-06
-8.93027e-07
8.77522e-06
-9.03905e-07
9.34157e-06
-8.81734e-07
9.90103e-06
-8.2674e-07
1.04455e-05
-7.4589e-07
1.09791e-05
-6.52472e-07
1.15238e-05
-5.63458e-07
1.21218e-05
-4.94819e-07
1.28298e-05
-4.56183e-07
1.37006e-05
-4.47431e-07
1.47452e-05
-4.60061e-07
1.58856e-05
-4.8871e-07
1.97919e-05
-5.23731e-07
1.97549e-05
-5.65407e-07
1.94285e-05
-6.09179e-07
1.92572e-05
-6.43197e-07
1.95673e-05
-6.58239e-07
2.02867e-05
-6.53594e-07
2.10813e-05
-6.34758e-07
2.16637e-05
-6.09746e-07
2.19339e-05
-5.8736e-07
2.18913e-05
-5.76187e-07
2.15271e-05
-5.82503e-07
2.08684e-05
-6.07077e-07
2.01161e-05
-6.43572e-07
1.96471e-05
-6.81309e-07
1.97575e-05
-7.12618e-07
2.03508e-05
-7.39232e-07
2.09285e-05
-7.70033e-07
2.09589e-05
-8.12144e-07
2.03221e-05
1.94371e-05
-5.57357e-07
3.29394e-06
-5.45462e-07
3.41008e-06
-5.33476e-07
3.53751e-06
-5.2231e-07
3.68282e-06
-5.12407e-07
3.84203e-06
-5.04262e-07
4.01246e-06
-4.98603e-07
4.1938e-06
-4.96426e-07
4.38725e-06
-4.99001e-07
4.59503e-06
-5.07827e-07
4.82023e-06
-5.24524e-07
5.06677e-06
-5.50618e-07
5.33925e-06
-5.87222e-07
5.6427e-06
-6.34598e-07
5.98198e-06
-6.91643e-07
6.36102e-06
-7.55417e-07
6.78172e-06
-8.20849e-07
7.24291e-06
-8.80832e-07
7.73948e-06
-9.26879e-07
8.26224e-06
-9.50407e-07
8.79875e-06
-9.44542e-07
9.3357e-06
-9.06134e-07
9.86263e-06
-8.37422e-07
1.03768e-05
-7.46735e-07
1.08884e-05
-6.47618e-07
1.14247e-05
-5.56098e-07
1.20302e-05
-4.86391e-07
1.27601e-05
-4.46366e-07
1.36606e-05
-4.35035e-07
1.47338e-05
-4.44429e-07
1.5895e-05
-4.7035e-07
1.98179e-05
-5.04873e-07
1.97894e-05
-5.46564e-07
1.94701e-05
-5.88479e-07
1.92991e-05
-6.18395e-07
1.95972e-05
-6.28732e-07
2.0297e-05
-6.20805e-07
2.10733e-05
-6.00994e-07
2.16439e-05
-5.76646e-07
2.19096e-05
-5.55069e-07
2.18698e-05
-5.43402e-07
2.15154e-05
-5.4723e-07
2.08723e-05
-5.67872e-07
2.01368e-05
-6.00253e-07
1.96795e-05
-6.34412e-07
1.97916e-05
-6.62372e-07
2.03788e-05
-6.84988e-07
2.09512e-05
-7.10518e-07
2.09844e-05
-7.46063e-07
2.03577e-05
1.94823e-05
-6.02064e-07
3.2841e-06
-5.91005e-07
3.39902e-06
-5.8055e-07
3.52706e-06
-5.71525e-07
3.67379e-06
-5.64281e-07
3.83479e-06
-5.59315e-07
4.00749e-06
-5.57407e-07
4.19189e-06
-5.59597e-07
4.38944e-06
-5.67139e-07
4.60257e-06
-5.81425e-07
4.83451e-06
-6.03826e-07
5.08917e-06
-6.35448e-07
5.37087e-06
-6.76791e-07
5.68404e-06
-7.27335e-07
6.03253e-06
-7.85105e-07
6.41879e-06
-8.46347e-07
6.84296e-06
-9.05433e-07
7.30199e-06
-9.5518e-07
7.78923e-06
-9.87657e-07
8.29471e-06
-9.95506e-07
8.8066e-06
-9.73583e-07
9.31378e-06
-9.20618e-07
9.80966e-06
-8.40413e-07
1.02966e-05
-7.42077e-07
1.07901e-05
-6.38911e-07
1.13216e-05
-5.45774e-07
1.19371e-05
-4.75258e-07
1.26896e-05
-4.33839e-07
1.36192e-05
-4.19988e-07
1.472e-05
-4.26314e-07
1.59013e-05
-4.49546e-07
1.98411e-05
-4.83215e-07
1.98231e-05
-5.24492e-07
1.95114e-05
-5.64642e-07
1.93393e-05
-5.91248e-07
1.96238e-05
-5.98002e-07
2.03038e-05
-5.87775e-07
2.10631e-05
-5.67645e-07
2.16238e-05
-5.44375e-07
2.18863e-05
-5.23902e-07
2.18493e-05
-5.12039e-07
2.15036e-05
-5.13799e-07
2.0874e-05
-5.30998e-07
2.0154e-05
-5.5953e-07
1.97081e-05
-5.89925e-07
1.9822e-05
-6.14044e-07
2.04029e-05
-6.32296e-07
2.09694e-05
-6.52624e-07
2.10048e-05
-6.8213e-07
2.03872e-05
1.95198e-05
-6.47373e-07
3.27511e-06
-6.37791e-07
3.38944e-06
-6.29465e-07
3.51873e-06
-6.23109e-07
3.66744e-06
-6.19006e-07
3.83069e-06
-6.17644e-07
4.00613e-06
-6.19815e-07
4.19406e-06
-6.26538e-07
4.39616e-06
-6.38979e-07
4.61501e-06
-6.58325e-07
4.85386e-06
-6.85606e-07
5.11645e-06
-7.21429e-07
5.4067e-06
-7.65652e-07
5.72827e-06
-8.17017e-07
6.08389e-06
-8.7283e-07
6.4746e-06
-9.28787e-07
6.89892e-06
-9.79063e-07
7.35227e-06
-1.01678e-06
7.82695e-06
-1.03491e-06
8.31284e-06
-1.02746e-06
8.79916e-06
-9.90979e-07
9.2773e-06
-9.25755e-07
9.74444e-06
-8.36653e-07
1.02075e-05
-7.33014e-07
1.06865e-05
-6.27472e-07
1.1216e-05
-5.33565e-07
1.18432e-05
-4.62435e-07
1.26185e-05
-4.19548e-07
1.35763e-05
-4.03166e-07
1.47036e-05
-4.06529e-07
1.59047e-05
-4.27073e-07
1.98616e-05
-4.59541e-07
1.98555e-05
-5.00015e-07
1.95519e-05
-5.38483e-07
1.93777e-05
-5.62479e-07
1.96478e-05
-5.6663e-07
2.03079e-05
-5.54924e-07
2.10514e-05
-5.34965e-07
2.16038e-05
-5.1302e-07
2.18644e-05
-4.93835e-07
2.18301e-05
-4.82068e-07
2.14918e-05
-4.82262e-07
2.08742e-05
-4.96594e-07
2.01683e-05
-5.21545e-07
1.9733e-05
-5.47899e-07
1.98484e-05
-5.67565e-07
2.04226e-05
-5.81022e-07
2.09829e-05
-5.963e-07
2.10201e-05
-6.20465e-07
2.04113e-05
1.9551e-05
-6.93321e-07
3.26757e-06
-6.85827e-07
3.38194e-06
-6.80105e-07
3.51301e-06
-6.76757e-07
3.66409e-06
-6.76039e-07
3.82997e-06
-6.78429e-07
4.00852e-06
-6.84688e-07
4.20032e-06
-6.95748e-07
4.40722e-06
-7.12603e-07
4.63187e-06
-7.3616e-07
4.87742e-06
-7.67039e-07
5.14733e-06
-8.05319e-07
5.44498e-06
-8.50244e-07
5.77319e-06
-8.99935e-07
6.13358e-06
-9.51192e-07
6.52586e-06
-9.99457e-07
6.94718e-06
-1.03905e-06
7.39186e-06
-1.06373e-06
7.85163e-06
-1.06756e-06
8.31666e-06
-1.046e-06
8.7776e-06
-9.97069e-07
9.22837e-06
-9.22281e-07
9.66965e-06
-8.27062e-07
1.01123e-05
-7.205e-07
1.05799e-05
-6.14215e-07
1.11097e-05
-5.2034e-07
1.17493e-05
-4.48757e-07
1.25469e-05
-4.0428e-07
1.35318e-05
-3.85291e-07
1.46846e-05
-3.85747e-07
1.59051e-05
-4.03605e-07
1.98795e-05
-4.34604e-07
1.98865e-05
-4.73972e-07
1.95913e-05
-5.10848e-07
1.94146e-05
-5.32817e-07
1.96697e-05
-5.35164e-07
2.03103e-05
-5.22614e-07
2.10388e-05
-5.03129e-07
2.15844e-05
-4.82587e-07
2.18438e-05
-4.64747e-07
2.18123e-05
-4.5332e-07
2.14804e-05
-4.52474e-07
2.08734e-05
-4.64543e-07
2.01804e-05
-4.86162e-07
1.97546e-05
-5.08152e-07
1.98704e-05
-5.2272e-07
2.04372e-05
-5.3095e-07
2.09911e-05
-5.41385e-07
2.10305e-05
-5.61049e-07
2.0431e-05
1.95772e-05
-7.39797e-07
3.26193e-06
-7.34786e-07
3.37693e-06
-7.31921e-07
3.51014e-06
-7.31686e-07
3.66385e-06
-7.34331e-07
3.83261e-06
-7.4032e-07
4.01451e-06
-7.50334e-07
4.21033e-06
-7.65158e-07
4.42204e-06
-7.85547e-07
4.65225e-06
-8.12071e-07
4.90394e-06
-8.44915e-07
5.18017e-06
-8.83649e-07
5.48371e-06
-9.26989e-07
5.81653e-06
-9.72604e-07
6.1792e-06
-1.01702e-06
6.57028e-06
-1.05573e-06
6.98588e-06
-1.08347e-06
7.41961e-06
-1.09486e-06
7.86302e-06
-1.08518e-06
8.30697e-06
-1.05125e-06
8.74367e-06
-9.92367e-07
9.16949e-06
-9.10852e-07
9.58813e-06
-8.12269e-07
1.00137e-05
-7.05058e-07
1.04727e-05
-5.99578e-07
1.10043e-05
-5.06512e-07
1.16563e-05
-4.34657e-07
1.2475e-05
-3.88488e-07
1.34856e-05
-3.66815e-07
1.46629e-05
-3.64422e-07
1.59027e-05
-3.79662e-07
1.98947e-05
-4.09062e-07
1.99159e-05
-4.47152e-07
1.96294e-05
-4.82548e-07
1.945e-05
-5.02955e-07
1.96901e-05
-5.041e-07
2.03114e-05
-4.91136e-07
2.10259e-05
-4.72245e-07
2.15655e-05
-4.53013e-07
2.18246e-05
-4.3644e-07
2.17957e-05
-4.25516e-07
2.14695e-05
-4.24115e-07
2.0872e-05
-4.34488e-07
2.01908e-05
-4.52997e-07
1.97731e-05
-4.70299e-07
1.98877e-05
-4.7917e-07
2.0446e-05
-4.81802e-07
2.09937e-05
-4.87649e-07
2.10363e-05
-5.03697e-07
2.04471e-05
1.95995e-05
-7.86118e-07
3.25839e-06
-7.83719e-07
3.37453e-06
-7.83718e-07
3.51014e-06
-7.8647e-07
3.66661e-06
-7.92214e-07
3.83836e-06
-8.01371e-07
4.02367e-06
-8.14504e-07
4.22346e-06
-8.322e-07
4.43974e-06
-8.54934e-07
4.67499e-06
-8.82916e-07
4.93192e-06
-9.15909e-07
5.21316e-06
-9.53041e-07
5.52084e-06
-9.92628e-07
5.85612e-06
-1.03207e-06
6.21864e-06
-1.06787e-06
6.60607e-06
-1.09578e-06
7.01379e-06
-1.11119e-06
7.43503e-06
-1.10972e-06
7.86155e-06
-1.08784e-06
8.28509e-06
-1.04363e-06
8.69946e-06
-9.77356e-07
9.10321e-06
-8.91835e-07
9.50261e-06
-7.92411e-07
9.91426e-06
-6.86597e-07
1.03669e-05
-5.8334e-07
1.0901e-05
-4.91869e-07
1.15648e-05
-4.20029e-07
1.24032e-05
-3.72197e-07
1.34378e-05
-3.47864e-07
1.46386e-05
-3.42762e-07
1.58976e-05
-3.5558e-07
1.99075e-05
-3.83434e-07
1.99438e-05
-4.20243e-07
1.96662e-05
-4.54311e-07
1.94841e-05
-4.73509e-07
1.97093e-05
-4.73858e-07
2.03118e-05
-4.60713e-07
2.10127e-05
-4.4236e-07
2.15471e-05
-4.24188e-07
2.18064e-05
-4.08666e-07
2.17802e-05
-3.98295e-07
2.14591e-05
-3.96721e-07
2.08704e-05
-4.05878e-07
2.01999e-05
-4.21464e-07
1.97887e-05
-4.33812e-07
1.99e-05
-4.36495e-07
2.04487e-05
-4.33264e-07
2.09905e-05
-4.34817e-07
2.10379e-05
-4.48127e-07
2.04604e-05
1.96193e-05
-8.3094e-07
3.25692e-06
-8.31054e-07
3.37465e-06
-8.33709e-07
3.5128e-06
-8.39121e-07
3.67202e-06
-8.47492e-07
3.84673e-06
-8.59166e-07
4.03534e-06
-8.74554e-07
4.23885e-06
-8.94014e-07
4.4592e-06
-9.17727e-07
4.6987e-06
-9.45556e-07
4.95975e-06
-9.76893e-07
5.2445e-06
-1.01052e-06
5.55447e-06
-1.0445e-06
5.8901e-06
-1.07615e-06
6.25029e-06
-1.10213e-06
6.63205e-06
-1.11865e-06
7.03032e-06
-1.12189e-06
7.43827e-06
-1.10848e-06
7.84813e-06
-1.07601e-06
8.25263e-06
-1.02364e-06
8.64709e-06
-9.52373e-07
9.03194e-06
-8.65219e-07
9.41546e-06
-7.67074e-07
9.81612e-06
-6.64375e-07
1.02642e-05
-5.64603e-07
1.08012e-05
-4.7556e-07
1.14757e-05
-4.04223e-07
1.23318e-05
-3.55007e-07
1.33886e-05
-3.28254e-07
1.46119e-05
-3.2075e-07
1.58901e-05
-3.3153e-07
1.99183e-05
-3.58096e-07
1.99704e-05
-3.93797e-07
1.97019e-05
-4.26742e-07
1.9517e-05
-4.44997e-07
1.97276e-05
-4.44777e-07
2.03116e-05
-4.31502e-07
2.09995e-05
-4.13479e-07
2.15291e-05
-3.95983e-07
2.17889e-05
-3.81167e-07
2.17653e-05
-3.71265e-07
2.14492e-05
-3.69751e-07
2.08689e-05
-3.78035e-07
2.02082e-05
-3.90849e-07
1.98015e-05
-3.98074e-07
1.99073e-05
-3.9425e-07
2.04449e-05
-3.85031e-07
2.09813e-05
-3.82622e-07
2.10355e-05
-3.94018e-07
2.04718e-05
1.96378e-05
-8.72443e-07
3.2574e-06
-8.74806e-07
3.37701e-06
-8.7974e-07
3.51773e-06
-8.87324e-07
3.6796e-06
-8.97692e-07
3.8571e-06
-9.1108e-07
4.04873e-06
-9.27723e-07
4.25549e-06
-9.47745e-07
4.47922e-06
-9.71043e-07
4.722e-06
-9.97175e-07
4.98588e-06
-1.02524e-06
5.27256e-06
-1.05378e-06
5.58301e-06
-1.08075e-06
5.91707e-06
-1.10353e-06
6.27308e-06
-1.1191e-06
6.64761e-06
-1.12424e-06
7.03545e-06
-1.11594e-06
7.42997e-06
-1.09179e-06
7.82398e-06
-1.05043e-06
8.21127e-06
-9.91858e-07
8.58851e-06
-9.17596e-07
8.95768e-06
-8.30672e-07
9.32853e-06
-7.35409e-07
9.72086e-06
-6.37146e-07
1.01659e-05
-5.41944e-07
1.0706e-05
-4.56238e-07
1.139e-05
-3.86166e-07
1.22618e-05
-3.36204e-07
1.33386e-05
-3.07594e-07
1.45832e-05
-2.98239e-07
1.58808e-05
-3.07578e-07
1.99277e-05
-3.33304e-07
1.99961e-05
-3.68225e-07
1.97368e-05
-4.00311e-07
1.95491e-05
-4.1782e-07
1.97451e-05
-4.17113e-07
2.03108e-05
-4.03605e-07
2.0986e-05
-3.85583e-07
2.15111e-05
-3.68277e-07
2.17716e-05
-3.53713e-07
2.17508e-05
-3.44055e-07
2.14395e-05
-3.42651e-07
2.08675e-05
-3.50242e-07
2.02158e-05
-3.60392e-07
1.98117e-05
-3.62453e-07
1.99093e-05
-3.52009e-07
2.04344e-05
-3.36837e-07
2.09661e-05
-3.30837e-07
2.10295e-05
-3.41044e-07
2.0482e-05
1.96558e-05
-9.08639e-07
3.25956e-06
-9.12869e-07
3.38124e-06
-9.19585e-07
3.52445e-06
-9.28736e-07
3.68875e-06
-9.40367e-07
3.86873e-06
-9.54587e-07
4.06295e-06
-9.71451e-07
4.27236e-06
-9.90857e-07
4.49863e-06
-1.01246e-06
4.7436e-06
-1.03556e-06
5.00898e-06
-1.05905e-06
5.29605e-06
-1.08135e-06
5.60531e-06
-1.10042e-06
5.93613e-06
-1.11383e-06
6.28649e-06
-1.11894e-06
6.65273e-06
-1.11316e-06
7.02968e-06
-1.09427e-06
7.41107e-06
-1.06074e-06
7.79045e-06
-1.01206e-06
8.16259e-06
-9.48909e-07
8.52536e-06
-8.73154e-07
8.88193e-06
-7.87733e-07
9.24311e-06
-6.96394e-07
9.62952e-06
-6.03469e-07
1.0073e-05
-5.13732e-07
1.06163e-05
-4.32349e-07
1.13087e-05
-3.64612e-07
1.2194e-05
-3.14958e-07
1.3289e-05
-2.85446e-07
1.45537e-05
-2.75076e-07
1.58704e-05
-2.8378e-07
1.99364e-05
-3.09252e-07
2.00216e-05
-3.43821e-07
1.97714e-05
-3.75348e-07
1.95806e-05
-3.92257e-07
1.9762e-05
-3.91038e-07
2.03096e-05
-3.77086e-07
2.0972e-05
-3.58654e-07
2.14926e-05
-3.40986e-07
2.17539e-05
-3.26143e-07
2.17359e-05
-3.16367e-07
2.14298e-05
-3.14929e-07
2.0866e-05
-3.21826e-07
2.02227e-05
-3.29379e-07
1.98192e-05
-3.2637e-07
1.99063e-05
-3.09417e-07
2.04175e-05
-2.88487e-07
2.09452e-05
-2.79277e-07
2.10203e-05
-2.88908e-07
2.04916e-05
1.96744e-05
-9.37653e-07
3.26309e-06
-9.43293e-07
3.38688e-06
-9.51213e-07
3.53237e-06
-9.61259e-07
3.6988e-06
-9.73378e-07
3.88085e-06
-9.87549e-07
4.07712e-06
-1.00365e-06
4.28846e-06
-1.0214e-06
4.51637e-06
-1.04022e-06
4.76243e-06
-1.05926e-06
5.02802e-06
-1.07728e-06
5.31407e-06
-1.09265e-06
5.62068e-06
-1.10344e-06
5.94692e-06
-1.10748e-06
6.29052e-06
-1.10255e-06
6.6478e-06
-1.08667e-06
7.0138e-06
-1.05832e-06
7.38272e-06
-1.01673e-06
7.74887e-06
-9.62089e-07
8.10795e-06
-8.95575e-07
8.45884e-06
-8.19298e-07
8.80565e-06
-7.36075e-07
9.15989e-06
-6.49166e-07
9.54261e-06
-5.62075e-07
9.9859e-06
-4.78506e-07
1.05327e-05
-4.02493e-07
1.12326e-05
-3.38445e-07
1.213e-05
-2.90574e-07
1.32411e-05
-2.61525e-07
1.45247e-05
-2.5126e-07
1.58601e-05
-2.60291e-07
1.99454e-05
-2.86144e-07
2.00474e-05
-3.20801e-07
1.9806e-05
-3.52056e-07
1.96119e-05
-3.68473e-07
1.97784e-05
-3.66649e-07
2.03078e-05
-3.51977e-07
2.09573e-05
-3.32687e-07
2.14734e-05
-3.14092e-07
2.17354e-05
-2.98392e-07
2.17202e-05
-2.88028e-07
2.14194e-05
-2.86225e-07
2.08642e-05
-2.92245e-07
2.02287e-05
-2.9722e-07
1.98242e-05
-2.89369e-07
1.98985e-05
-2.66232e-07
2.03943e-05
-2.39877e-07
2.09188e-05
-2.27821e-07
2.10082e-05
-2.37342e-07
2.05011e-05
1.9694e-05
-9.57932e-07
3.26762e-06
-9.6448e-07
3.39343e-06
-9.72997e-07
3.54088e-06
-9.8325e-07
3.70905e-06
-9.95105e-07
3.8927e-06
-1.00842e-06
4.09043e-06
-1.02292e-06
4.30296e-06
-1.03815e-06
4.5316e-06
-1.05341e-06
4.77769e-06
-1.06771e-06
5.04232e-06
-1.07976e-06
5.32611e-06
-1.08797e-06
5.62889e-06
-1.09055e-06
5.94951e-06
-1.08563e-06
6.2856e-06
-1.07142e-06
6.63359e-06
-1.04646e-06
6.98884e-06
-1.00984e-06
7.3461e-06
-9.6142e-07
7.70045e-06
-9.01907e-07
8.04844e-06
-8.32868e-07
8.3898e-06
-7.56572e-07
8.72935e-06
-6.75754e-07
9.07907e-06
-5.93336e-07
9.46019e-06
-5.12235e-07
9.9048e-06
-4.35355e-07
1.04558e-05
-3.65774e-07
1.11631e-05
-3.06992e-07
1.20712e-05
-2.62736e-07
1.31969e-05
-2.35878e-07
1.44978e-05
-2.27077e-07
1.58513e-05
-2.37468e-07
1.99558e-05
-2.64267e-07
2.00742e-05
-2.9935e-07
1.98411e-05
-3.3055e-07
1.96431e-05
-3.46536e-07
1.97944e-05
-3.43982e-07
2.03052e-05
-3.28295e-07
2.09416e-05
-3.07713e-07
2.14528e-05
-2.8765e-07
2.17153e-05
-2.70523e-07
2.17031e-05
-2.59023e-07
2.14079e-05
-2.56364e-07
2.08616e-05
-2.61163e-07
2.02335e-05
-2.63526e-07
1.98266e-05
-2.51163e-07
1.98861e-05
-2.22344e-07
2.03655e-05
-1.91005e-07
2.08875e-05
-1.76411e-07
2.09936e-05
-1.86125e-07
2.05108e-05
1.97153e-05
-9.68318e-07
3.27277e-06
-9.7527e-07
3.40038e-06
-9.83803e-07
3.54942e-06
-9.93636e-07
3.71889e-06
-1.00456e-06
3.90363e-06
-1.01634e-06
4.10221e-06
-1.02858e-06
4.31521e-06
-1.04071e-06
4.54373e-06
-1.05191e-06
4.78889e-06
-1.06114e-06
5.05155e-06
-1.0671e-06
5.33207e-06
-1.06829e-06
5.63008e-06
-1.0631e-06
5.94432e-06
-1.04995e-06
6.27244e-06
-1.02742e-06
6.61106e-06
-9.94514e-07
6.95593e-06
-9.5082e-07
7.30241e-06
-8.96653e-07
7.64628e-06
-8.33124e-07
7.98491e-06
-7.62078e-07
8.31876e-06
-6.8592e-07
8.65319e-06
-6.0737e-07
9.00052e-06
-5.29194e-07
9.38201e-06
-4.54002e-07
9.82961e-06
-3.84189e-07
1.0386e-05
-3.22083e-07
1.1101e-05
-2.70268e-07
1.20194e-05
-2.31708e-07
1.31583e-05
-2.0903e-07
1.44751e-05
-2.032e-07
1.58455e-05
-2.15936e-07
1.99685e-05
-2.44052e-07
2.01023e-05
-2.7968e-07
1.98767e-05
-3.10885e-07
1.96743e-05
-3.26438e-07
1.981e-05
-3.23024e-07
2.03018e-05
-3.06056e-07
2.09247e-05
-2.83802e-07
2.14305e-05
-2.61804e-07
2.16933e-05
-2.42724e-07
2.1684e-05
-2.29516e-07
2.13947e-05
-2.254e-07
2.08575e-05
-2.28496e-07
2.02366e-05
-2.28151e-07
1.98262e-05
-2.11662e-07
1.98696e-05
-1.77787e-07
2.03317e-05
-1.41962e-07
2.08517e-05
-1.25065e-07
2.09767e-05
-1.35079e-07
2.05209e-05
1.97383e-05
-9.68073e-07
3.27818e-06
-9.74993e-07
3.4073e-06
-9.83059e-07
3.55748e-06
-9.91964e-07
3.72779e-06
-1.00146e-06
3.91312e-06
-1.01121e-06
4.11197e-06
-1.02076e-06
4.32475e-06
-1.02943e-06
4.5524e-06
-1.03637e-06
4.79583e-06
-1.04051e-06
5.05568e-06
-1.04057e-06
5.33214e-06
-1.03519e-06
5.6247e-06
-1.02292e-06
5.93206e-06
-1.00245e-06
6.25197e-06
-9.72687e-07
6.5813e-06
-9.33002e-07
6.91625e-06
-8.83348e-07
7.25276e-06
-8.24386e-07
7.58732e-06
-7.57507e-07
7.91803e-06
-6.84765e-07
8.24601e-06
-6.08698e-07
8.57713e-06
-5.32105e-07
8.92393e-06
-4.57788e-07
9.30769e-06
-3.88317e-07
9.76014e-06
-3.25868e-07
1.03236e-05
-2.72238e-07
1.10473e-05
-2.29125e-07
1.19763e-05
-1.98448e-07
1.31276e-05
-1.82063e-07
1.44588e-05
-1.8073e-07
1.58442e-05
-1.96618e-07
1.99844e-05
-2.26101e-07
2.01318e-05
-2.62062e-07
1.99127e-05
-2.93102e-07
1.97053e-05
-3.08128e-07
1.9825e-05
-3.03732e-07
2.02974e-05
-2.85278e-07
2.09062e-05
-2.61067e-07
2.14063e-05
-2.36779e-07
2.1669e-05
-2.15312e-07
2.16626e-05
-1.99847e-07
2.13792e-05
-1.93616e-07
2.08512e-05
-1.94432e-07
2.02374e-05
-1.91209e-07
1.9823e-05
-1.70985e-07
1.98494e-05
-1.32729e-07
2.02934e-05
-9.2926e-08
2.08119e-05
-7.3938e-08
2.09577e-05
-8.40812e-08
2.0531e-05
1.9763e-05
-9.57054e-07
3.28361e-06
-9.63637e-07
3.41388e-06
-9.7089e-07
3.56474e-06
-9.78507e-07
3.73541e-06
-9.86221e-07
3.92084e-06
-9.93655e-07
4.1194e-06
-1.00028e-06
4.33138e-06
-1.00539e-06
4.55751e-06
-1.0081e-06
4.79854e-06
-1.00735e-06
5.05493e-06
-1.00194e-06
5.32673e-06
-9.9062e-07
5.61337e-06
-9.72119e-07
5.91355e-06
-9.45334e-07
6.22518e-06
-9.09452e-07
6.54542e-06
-8.64109e-07
6.8709e-06
-8.09526e-07
7.19817e-06
-7.46598e-07
7.52439e-06
-6.76915e-07
7.84835e-06
-6.02689e-07
8.17179e-06
-5.26613e-07
8.50105e-06
-4.51664e-07
8.84898e-06
-3.80858e-07
9.23689e-06
-3.16959e-07
9.69624e-06
-2.62182e-07
1.02688e-05
-2.18005e-07
1.10032e-05
-1.85282e-07
1.19435e-05
-1.64636e-07
1.3107e-05
-1.56607e-07
1.44507e-05
-1.61173e-07
1.58487e-05
-1.80707e-07
2.00039e-05
-2.1118e-07
2.01623e-05
-2.46844e-07
1.99483e-05
-2.77255e-07
1.97357e-05
-2.91533e-07
1.98393e-05
-2.86046e-07
2.0292e-05
-2.6599e-07
2.08862e-05
-2.39661e-07
2.138e-05
-2.12865e-07
2.16422e-05
-1.88703e-07
2.16384e-05
-1.70505e-07
2.1361e-05
-1.61507e-07
2.08422e-05
-1.59416e-07
2.02353e-05
-1.53071e-07
1.98167e-05
-1.29443e-07
1.98258e-05
-8.74554e-08
2.02514e-05
-4.42745e-08
2.07687e-05
-2.29108e-08
2.09364e-05
-3.30045e-08
2.05411e-05
1.97894e-05
-9.35993e-07
3.28886e-06
-9.42018e-07
3.41991e-06
-9.48215e-07
3.57093e-06
-9.54303e-07
3.7415e-06
-9.60024e-07
3.92656e-06
-9.64983e-07
4.12436e-06
-9.68623e-07
4.33502e-06
-9.70223e-07
4.55911e-06
-9.68904e-07
4.79722e-06
-9.63647e-07
5.04968e-06
-9.5333e-07
5.31642e-06
-9.36799e-07
5.59684e-06
-9.12953e-07
5.88971e-06
-8.80869e-07
6.1931e-06
-8.39929e-07
6.50448e-06
-7.89966e-07
6.82094e-06
-7.31381e-07
7.13959e-06
-6.65225e-07
7.45823e-06
-5.93221e-07
7.77634e-06
-5.17721e-07
8.09629e-06
-4.41611e-07
8.42494e-06
-3.68143e-07
8.77551e-06
-3.00691e-07
9.16944e-06
-2.424e-07
9.63795e-06
-1.95724e-07
1.02221e-05
-1.6199e-07
1.09694e-05
-1.41245e-07
1.19228e-05
-1.32601e-07
1.30983e-05
-1.34768e-07
1.44529e-05
-1.46345e-07
1.58603e-05
-1.69579e-07
2.00272e-05
-2.00168e-07
2.01929e-05
-2.34442e-07
1.99826e-05
-2.63426e-07
1.97647e-05
-2.76583e-07
1.98524e-05
-2.69907e-07
2.02853e-05
-2.4823e-07
2.08645e-05
-2.19761e-07
2.13515e-05
-1.90398e-07
2.16128e-05
-1.63378e-07
2.16114e-05
-1.42087e-07
2.13397e-05
-1.29732e-07
2.08299e-05
-1.24102e-07
2.02297e-05
-1.14316e-07
1.98069e-05
-8.74918e-08
1.97989e-05
-4.22872e-08
2.02062e-05
4.15433e-09
2.07222e-05
2.77016e-08
2.09128e-05
1.8113e-08
2.05507e-05
1.98172e-05
-9.06331e-07
3.29375e-06
-9.1161e-07
3.42518e-06
-9.16579e-07
3.5759e-06
-9.20988e-07
3.7459e-06
-9.24608e-07
3.93018e-06
-9.27051e-07
4.1268e-06
-9.27761e-07
4.33572e-06
-9.26022e-07
4.55737e-06
-9.20981e-07
4.79218e-06
-9.11667e-07
5.04036e-06
-8.9704e-07
5.30179e-06
-8.76049e-07
5.57585e-06
-8.47724e-07
5.86138e-06
-8.1128e-07
6.15665e-06
-7.66247e-07
6.45945e-06
-7.12591e-07
6.76728e-06
-6.50826e-07
7.07782e-06
-5.82104e-07
7.38951e-06
-5.08251e-07
7.70249e-06
-4.31767e-07
8.0198e-06
-3.55777e-07
8.34895e-06
-2.8389e-07
8.70362e-06
-2.19952e-07
9.1055e-06
-1.67611e-07
9.58561e-06
-1.29689e-07
1.01842e-05
-1.07452e-07
1.09472e-05
-1.00139e-07
1.19155e-05
-1.05174e-07
1.31034e-05
-1.18974e-07
1.44667e-05
-1.38227e-07
1.58796e-05
-1.64666e-07
2.00536e-05
-1.93969e-07
2.02222e-05
-2.25299e-07
2.0014e-05
-2.51725e-07
1.97912e-05
-2.6323e-07
1.98639e-05
-2.55263e-07
2.02773e-05
-2.32049e-07
2.08413e-05
-2.01561e-07
2.1321e-05
-1.69726e-07
2.1581e-05
-1.39841e-07
2.15815e-05
-1.15235e-07
2.13151e-05
-9.90415e-08
2.08137e-05
-8.92858e-08
2.02199e-05
-7.56641e-08
1.97932e-05
-4.55342e-08
1.97688e-05
2.28342e-09
2.01584e-05
5.1605e-08
2.06729e-05
7.76978e-08
2.08867e-05
6.92084e-08
2.05592e-05
1.98456e-05
-8.69757e-07
3.29821e-06
-8.74211e-07
3.42964e-06
-8.77874e-07
3.57957e-06
-8.80546e-07
3.74858e-06
-8.82053e-07
3.93168e-06
-8.82033e-07
4.12679e-06
-8.7995e-07
4.33364e-06
-8.75111e-07
4.55253e-06
-8.667e-07
4.78377e-06
-8.53805e-07
5.02747e-06
-8.3546e-07
5.28344e-06
-8.10709e-07
5.5511e-06
-7.78684e-07
5.82936e-06
-7.38711e-07
6.11668e-06
-6.90421e-07
6.41116e-06
-6.33868e-07
6.71073e-06
-5.69641e-07
7.0136e-06
-4.98964e-07
7.31883e-06
-4.23766e-07
7.62729e-06
-3.46726e-07
7.94276e-06
-2.71258e-07
8.27348e-06
-2.01401e-07
8.63376e-06
-1.41541e-07
9.04564e-06
-9.58873e-08
9.53995e-06
-6.76639e-08
1.0156e-05
-5.80833e-08
1.09376e-05
-6.5484e-08
1.19229e-05
-8.54742e-08
1.31233e-05
-1.11781e-07
1.4493e-05
-1.38782e-07
1.59066e-05
-1.67301e-07
2.00821e-05
-1.93404e-07
2.02483e-05
-2.19827e-07
2.00404e-05
-2.42275e-07
1.98136e-05
-2.51446e-07
1.98731e-05
-2.42079e-07
2.02679e-05
-2.175e-07
2.08167e-05
-1.85246e-07
2.12888e-05
-1.51178e-07
2.15469e-05
-1.18569e-07
2.15489e-05
-9.05763e-08
2.12871e-05
-7.01991e-08
2.07933e-05
-5.58086e-08
2.02056e-05
-3.79998e-08
1.97754e-05
-4.8409e-09
1.97356e-05
4.57766e-08
2.01078e-05
9.79866e-08
2.06207e-05
1.26912e-07
2.08578e-05
1.20191e-07
2.05659e-05
1.9874e-05
-8.28216e-07
3.30228e-06
-8.31886e-07
3.43331e-06
-8.34264e-07
3.58194e-06
-8.35218e-07
3.74953e-06
-8.34664e-07
3.93113e-06
-8.32294e-07
4.12441e-06
-8.276e-07
4.32895e-06
-8.19929e-07
4.54486e-06
-8.08507e-07
4.77235e-06
-7.92481e-07
5.01144e-06
-7.70955e-07
5.26192e-06
-7.43054e-07
5.5232e-06
-7.07997e-07
5.7943e-06
-6.6519e-07
6.07388e-06
-6.14338e-07
6.36031e-06
-5.55556e-07
6.65195e-06
-4.89493e-07
6.94753e-06
-4.17447e-07
7.24679e-06
-3.41479e-07
7.55132e-06
-2.64491e-07
7.86578e-06
-1.90247e-07
8.19924e-06
-1.23264e-07
8.56678e-06
-6.84919e-08
8.99087e-06
-3.06972e-08
9.50216e-06
-1.34442e-08
1.01387e-05
-1.77756e-08
1.09419e-05
-4.10753e-08
1.19462e-05
-7.6664e-08
1.31589e-05
-1.15636e-07
1.4532e-05
-1.49739e-07
1.59407e-05
-1.78544e-07
2.01109e-05
-1.99082e-07
2.02688e-05
-2.1834e-07
2.00596e-05
-2.35186e-07
1.98304e-05
-2.41227e-07
1.98792e-05
-2.30342e-07
2.02571e-05
-2.04638e-07
2.0791e-05
-1.70977e-07
2.12551e-05
-1.35035e-07
2.1511e-05
-9.99673e-08
2.15138e-05
-6.86516e-08
2.12558e-05
-4.39028e-08
2.07686e-05
-2.45001e-08
2.01861e-05
-2.08393e-09
1.9753e-05
3.45369e-08
1.9699e-05
8.78536e-08
2.00545e-05
1.43003e-07
2.05655e-05
1.75163e-07
2.08256e-05
1.7094e-07
2.05701e-05
1.99017e-05
-7.84175e-07
3.30591e-06
-7.87041e-07
3.43617e-06
-7.88141e-07
3.58304e-06
-7.8741e-07
3.7488e-06
-7.84867e-07
3.92859e-06
-7.80271e-07
4.11982e-06
-7.73158e-07
4.32183e-06
-7.6291e-07
4.53462e-06
-7.48805e-07
4.75824e-06
-7.30044e-07
4.99268e-06
-7.05794e-07
5.23767e-06
-6.75251e-07
5.49265e-06
-6.37701e-07
5.75675e-06
-5.92618e-07
6.02879e-06
-5.39764e-07
6.30745e-06
-4.79309e-07
6.59149e-06
-4.11971e-07
6.88019e-06
-3.39155e-07
7.17397e-06
-2.63101e-07
7.47527e-06
-1.86994e-07
7.78967e-06
-1.15004e-07
8.12725e-06
-5.21467e-08
8.50392e-06
-3.92674e-09
8.94265e-06
2.4416e-08
9.47381e-06
2.91631e-08
1.0134e-05
9.68075e-09
1.09614e-05
-3.01922e-08
1.19861e-05
-8.1606e-08
1.32104e-05
-1.3262e-07
1.4583e-05
-1.72387e-07
1.59804e-05
-1.99023e-07
2.01376e-05
-2.11295e-07
2.02811e-05
-2.20982e-07
2.00693e-05
-2.30525e-07
1.984e-05
-2.32586e-07
1.98812e-05
-2.20053e-07
2.02445e-05
-1.9351e-07
2.07644e-05
-1.58877e-07
2.12205e-05
-1.215e-07
2.14736e-05
-8.43274e-08
2.14766e-05
-4.9866e-08
2.12214e-05
-2.06858e-08
2.07394e-05
4.00686e-09
2.01615e-05
3.13921e-08
1.97256e-05
7.1803e-08
1.96586e-05
1.28079e-07
1.99982e-05
1.86392e-07
2.05072e-05
2.22268e-07
2.07898e-05
2.21304e-07
2.05711e-05
1.99278e-05
-7.40244e-07
3.3088e-06
-7.42089e-07
3.43802e-06
-7.41833e-07
3.58279e-06
-7.39431e-07
3.7464e-06
-7.34975e-07
3.92413e-06
-7.28283e-07
4.11313e-06
-7.18934e-07
4.31248e-06
-7.06349e-07
4.52203e-06
-6.89849e-07
4.74174e-06
-6.68687e-07
4.97152e-06
-6.42088e-07
5.21107e-06
-6.09305e-07
5.45987e-06
-5.69687e-07
5.71713e-06
-5.22764e-07
5.98187e-06
-4.68357e-07
6.25305e-06
-4.06708e-07
6.52985e-06
-3.38636e-07
6.81212e-06
-2.65706e-07
7.10104e-06
-1.90403e-07
7.39996e-06
-1.16264e-07
7.71553e-06
-4.78978e-08
8.05888e-06
9.17142e-09
8.44685e-06
4.89414e-08
8.90288e-06
6.59042e-08
9.45685e-06
5.64641e-08
1.01434e-05
2.06897e-08
1.09972e-05
-3.60836e-08
1.20428e-05
-1.02714e-07
1.3277e-05
-1.64209e-07
1.46445e-05
-2.0738e-07
1.60236e-05
-2.28806e-07
2.0159e-05
-2.29933e-07
2.02822e-05
-2.27684e-07
2.00671e-05
-2.28289e-07
1.98406e-05
-2.25545e-07
1.98785e-05
-2.11235e-07
2.02302e-05
-1.84154e-07
2.07374e-05
-1.49017e-07
2.11853e-05
-1.1068e-07
2.14353e-05
-7.18005e-08
2.14378e-05
-3.44584e-08
2.1184e-05
-8.97203e-10
2.07058e-05
2.92143e-08
2.01313e-05
6.18732e-08
1.9693e-05
1.06494e-07
1.9614e-05
1.66095e-07
1.99386e-05
2.27926e-07
2.04454e-05
2.68046e-07
2.07496e-05
2.71096e-07
2.0568e-05
1.99517e-05
-6.98473e-07
3.31058e-06
-6.99008e-07
3.43855e-06
-6.97288e-07
3.58107e-06
-6.93252e-07
3.74236e-06
-6.86997e-07
3.91788e-06
-6.7837e-07
4.1045e-06
-6.6698e-07
4.3011e-06
-6.52288e-07
4.50734e-06
-6.33653e-07
4.72311e-06
-6.10374e-07
4.94824e-06
-5.81729e-07
5.18243e-06
-5.47025e-07
5.42517e-06
-5.05668e-07
5.67578e-06
-4.57253e-07
5.93345e-06
-4.01677e-07
6.19747e-06
-3.39288e-07
6.46746e-06
-2.7106e-07
6.74389e-06
-1.98789e-07
7.02877e-06
-1.25281e-07
7.32646e-06
-5.44833e-08
7.64473e-06
8.535e-09
7.99586e-06
5.77542e-08
8.39764e-06
8.68597e-08
8.87377e-06
9.0346e-08
9.45337e-06
6.50717e-08
1.01687e-05
1.2152e-08
1.10501e-05
-6.13003e-08
1.21163e-05
-1.41603e-07
1.33573e-05
-2.11052e-07
1.47139e-05
-2.54585e-07
1.60671e-05
-2.67322e-07
2.01717e-05
-2.54448e-07
2.02693e-05
-2.38135e-07
2.00508e-05
-2.28392e-07
1.98309e-05
-2.20121e-07
1.98702e-05
-2.03923e-07
2.0214e-05
-1.76594e-07
2.071e-05
-1.41406e-07
2.11501e-05
-1.02574e-07
2.13965e-05
-6.23799e-08
2.13976e-05
-2.24232e-08
2.11441e-05
1.53536e-08
2.0668e-05
5.08794e-08
2.00958e-05
8.90429e-08
1.96548e-05
1.38278e-07
1.95648e-05
2.01643e-07
1.98752e-05
2.67419e-07
2.03796e-05
3.12309e-07
2.07048e-05
3.20086e-07
2.05603e-05
1.99725e-05
-6.60266e-07
3.31106e-06
-6.59341e-07
3.43763e-06
-6.5613e-07
3.57786e-06
-6.50554e-07
3.73679e-06
-6.42661e-07
3.90998e-06
-6.3229e-07
4.09413e-06
-6.19073e-07
4.28788e-06
-6.02498e-07
4.49076e-06
-5.81964e-07
4.70257e-06
-5.56812e-07
4.92309e-06
-5.26371e-07
5.15198e-06
-4.90003e-07
5.3888e-06
-4.47179e-07
5.63295e-06
-3.97577e-07
5.88385e-06
-3.41205e-07
6.1411e-06
-2.7857e-07
6.40482e-06
-2.10872e-07
6.6762e-06
-1.40216e-07
6.95812e-06
-6.98054e-08
7.25604e-06
-4.03052e-09
7.57896e-06
5.15552e-08
7.94028e-06
9.05779e-08
8.35861e-06
1.06653e-07
8.8577e-06
9.45959e-08
9.46542e-06
5.21142e-08
1.02112e-05
-1.82546e-08
1.11205e-05
-1.07298e-07
1.22053e-05
-1.98814e-07
1.34488e-05
-2.72781e-07
1.47879e-05
-3.13001e-07
1.61074e-05
-3.13352e-07
2.01721e-05
-2.83866e-07
2.02399e-05
-2.51797e-07
2.00187e-05
-2.30661e-07
1.98097e-05
-2.16326e-07
1.98559e-05
-1.98155e-07
2.01958e-05
-1.7083e-07
2.06827e-05
-1.35994e-07
2.11153e-05
-9.70734e-08
2.13575e-05
-5.59126e-08
2.13564e-05
-1.36237e-08
2.11018e-05
2.81727e-08
2.06262e-05
6.90211e-08
2.0055e-05
1.12812e-07
1.9611e-05
1.67002e-07
1.95106e-05
2.34571e-07
1.98076e-05
3.04723e-07
2.03095e-05
3.54864e-07
2.06546e-05
3.67997e-07