/*--------------------------------*- C++ -*----------------------------------*\
  =========                 |
  \\      /  F ield         | OpenFOAM: The Open Source CFD Toolbox
   \\    /   O peration     | Website:  https://openfoam.org
    \\  /    A nd           | Version:  9
     \\/     M anipulation  |
\*---------------------------------------------------------------------------*/
FoamFile
{
    format      ascii;
    class       volScalarField;
    location    "0.19";
    object      rAU;
}
// * * * * * * * * * * * * * * * * * * * * * * * * * * * * * * * * * * * * * //

dimensions      [-1 3 1 0 0 0 0];

internalField   nonuniform List<scalar> 
5000
(
1.60727e-05
1.53331e-05
1.55573e-05
1.57606e-05
1.5947e-05
1.61195e-05
1.62793e-05
1.64264e-05
1.65598e-05
1.6678e-05
1.67787e-05
1.68595e-05
1.69177e-05
1.69508e-05
1.69578e-05
1.69394e-05
1.68989e-05
1.68428e-05
1.67804e-05
1.67231e-05
1.66823e-05
1.66673e-05
1.66827e-05
1.67258e-05
1.6785e-05
1.68402e-05
1.68666e-05
1.68443e-05
1.67719e-05
1.66836e-05
1.66593e-05
1.66657e-05
1.67347e-05
1.67668e-05
1.66838e-05
1.65078e-05
1.63219e-05
1.61914e-05
1.61348e-05
1.6149e-05
1.6234e-05
1.63842e-05
1.65556e-05
1.66607e-05
1.6628e-05
1.64824e-05
1.63424e-05
1.63266e-05
1.64612e-05
1.6655e-05
1.60388e-05
1.53053e-05
1.55303e-05
1.57332e-05
1.59185e-05
1.60893e-05
1.62467e-05
1.63902e-05
1.65189e-05
1.66311e-05
1.67246e-05
1.67971e-05
1.68464e-05
1.68712e-05
1.68715e-05
1.68494e-05
1.68099e-05
1.67604e-05
1.67105e-05
1.66708e-05
1.66512e-05
1.66583e-05
1.66936e-05
1.67515e-05
1.6818e-05
1.68723e-05
1.68914e-05
1.68587e-05
1.6777e-05
1.66832e-05
1.66559e-05
1.66613e-05
1.67288e-05
1.67604e-05
1.66803e-05
1.65098e-05
1.63293e-05
1.62025e-05
1.61474e-05
1.61609e-05
1.62436e-05
1.63904e-05
1.65585e-05
1.66616e-05
1.66294e-05
1.64859e-05
1.63477e-05
1.63321e-05
1.64656e-05
1.66583e-05
1.6003e-05
1.52758e-05
1.55008e-05
1.57026e-05
1.5886e-05
1.60543e-05
1.62082e-05
1.63475e-05
1.64708e-05
1.65764e-05
1.66625e-05
1.6727e-05
1.67685e-05
1.67867e-05
1.67828e-05
1.67604e-05
1.67253e-05
1.66856e-05
1.66508e-05
1.66304e-05
1.66323e-05
1.66605e-05
1.67138e-05
1.67839e-05
1.68553e-05
1.6907e-05
1.69179e-05
1.68747e-05
1.67839e-05
1.66845e-05
1.66539e-05
1.66578e-05
1.67237e-05
1.67553e-05
1.66786e-05
1.65134e-05
1.63378e-05
1.62138e-05
1.61597e-05
1.61725e-05
1.62531e-05
1.63969e-05
1.65618e-05
1.6663e-05
1.66311e-05
1.64897e-05
1.63535e-05
1.63384e-05
1.64711e-05
1.66632e-05
1.59665e-05
1.52448e-05
1.54689e-05
1.56685e-05
1.58492e-05
1.60141e-05
1.61641e-05
1.62984e-05
1.64158e-05
1.65149e-05
1.65938e-05
1.66512e-05
1.66865e-05
1.67005e-05
1.66954e-05
1.66758e-05
1.66483e-05
1.66212e-05
1.66034e-05
1.66029e-05
1.66257e-05
1.66734e-05
1.67423e-05
1.6822e-05
1.6896e-05
1.69436e-05
1.69455e-05
1.68919e-05
1.67923e-05
1.66874e-05
1.6653e-05
1.6655e-05
1.67193e-05
1.67513e-05
1.66782e-05
1.65182e-05
1.63469e-05
1.62253e-05
1.61717e-05
1.61837e-05
1.62624e-05
1.64034e-05
1.65654e-05
1.66647e-05
1.66331e-05
1.64939e-05
1.636e-05
1.63456e-05
1.64776e-05
1.66694e-05
1.59293e-05
1.52121e-05
1.5434e-05
1.56306e-05
1.58079e-05
1.5969e-05
1.61145e-05
1.62436e-05
1.63552e-05
1.6448e-05
1.65207e-05
1.65725e-05
1.66038e-05
1.66161e-05
1.66127e-05
1.6599e-05
1.65819e-05
1.65694e-05
1.65694e-05
1.65886e-05
1.66309e-05
1.6696e-05
1.67778e-05
1.68646e-05
1.69391e-05
1.69813e-05
1.6974e-05
1.691e-05
1.68019e-05
1.66916e-05
1.66531e-05
1.66529e-05
1.67155e-05
1.67482e-05
1.66788e-05
1.65238e-05
1.63563e-05
1.62366e-05
1.61832e-05
1.61944e-05
1.62714e-05
1.641e-05
1.65693e-05
1.66667e-05
1.66354e-05
1.64987e-05
1.63672e-05
1.63537e-05
1.64851e-05
1.66766e-05
1.58906e-05
1.5177e-05
1.5396e-05
1.5589e-05
1.57625e-05
1.59195e-05
1.60604e-05
1.61844e-05
1.62907e-05
1.63781e-05
1.6446e-05
1.64942e-05
1.65237e-05
1.65371e-05
1.65383e-05
1.65331e-05
1.65283e-05
1.65314e-05
1.65493e-05
1.65871e-05
1.66471e-05
1.67269e-05
1.6819e-05
1.69104e-05
1.69837e-05
1.70197e-05
1.70029e-05
1.69289e-05
1.68125e-05
1.66968e-05
1.6654e-05
1.66513e-05
1.67123e-05
1.67457e-05
1.66802e-05
1.65299e-05
1.6366e-05
1.62477e-05
1.61943e-05
1.62046e-05
1.62801e-05
1.64165e-05
1.65732e-05
1.66689e-05
1.66383e-05
1.65043e-05
1.63754e-05
1.63627e-05
1.64932e-05
1.66844e-05
1.58501e-05
1.51395e-05
1.5355e-05
1.55442e-05
1.57139e-05
1.58668e-05
1.60033e-05
1.61229e-05
1.62247e-05
1.63081e-05
1.63728e-05
1.64195e-05
1.64498e-05
1.64669e-05
1.64751e-05
1.64802e-05
1.64889e-05
1.65079e-05
1.6543e-05
1.65979e-05
1.66731e-05
1.67649e-05
1.68646e-05
1.69584e-05
1.70291e-05
1.70584e-05
1.70322e-05
1.69485e-05
1.68241e-05
1.6703e-05
1.66556e-05
1.66502e-05
1.67095e-05
1.67438e-05
1.66819e-05
1.65363e-05
1.63756e-05
1.62585e-05
1.62049e-05
1.62144e-05
1.62886e-05
1.6423e-05
1.65772e-05
1.66715e-05
1.66419e-05
1.65108e-05
1.63846e-05
1.63725e-05
1.6502e-05
1.66926e-05
1.58084e-05
1.51002e-05
1.53121e-05
1.54976e-05
1.56636e-05
1.58129e-05
1.59457e-05
1.60616e-05
1.61601e-05
1.6241e-05
1.63045e-05
1.63519e-05
1.63853e-05
1.64082e-05
1.64252e-05
1.64419e-05
1.64646e-05
1.6499e-05
1.65499e-05
1.66198e-05
1.67077e-05
1.68088e-05
1.69136e-05
1.7008e-05
1.70751e-05
1.70972e-05
1.70619e-05
1.69689e-05
1.68367e-05
1.67101e-05
1.66578e-05
1.66494e-05
1.67069e-05
1.6742e-05
1.66839e-05
1.65427e-05
1.6385e-05
1.62689e-05
1.62152e-05
1.62239e-05
1.62968e-05
1.64293e-05
1.65813e-05
1.66744e-05
1.66463e-05
1.65186e-05
1.63951e-05
1.63833e-05
1.65112e-05
1.6701e-05
1.57669e-05
1.50608e-05
1.52692e-05
1.54512e-05
1.5614e-05
1.57601e-05
1.58899e-05
1.60033e-05
1.60999e-05
1.618e-05
1.62443e-05
1.62943e-05
1.63327e-05
1.6363e-05
1.639e-05
1.6419e-05
1.64554e-05
1.65043e-05
1.65693e-05
1.66517e-05
1.67497e-05
1.68576e-05
1.69653e-05
1.70588e-05
1.71213e-05
1.71363e-05
1.70922e-05
1.69902e-05
1.68503e-05
1.6718e-05
1.66606e-05
1.66489e-05
1.67045e-05
1.67404e-05
1.66859e-05
1.6549e-05
1.63942e-05
1.62791e-05
1.62251e-05
1.62331e-05
1.6305e-05
1.64357e-05
1.65856e-05
1.66779e-05
1.66518e-05
1.65278e-05
1.6407e-05
1.63949e-05
1.65206e-05
1.67094e-05
1.57275e-05
1.50232e-05
1.52282e-05
1.54073e-05
1.55674e-05
1.57111e-05
1.5839e-05
1.59509e-05
1.60471e-05
1.61279e-05
1.61946e-05
1.62489e-05
1.62938e-05
1.63328e-05
1.63704e-05
1.64114e-05
1.64609e-05
1.65228e-05
1.65999e-05
1.66926e-05
1.67982e-05
1.69105e-05
1.70193e-05
1.71106e-05
1.71681e-05
1.71758e-05
1.71232e-05
1.70126e-05
1.6865e-05
1.67268e-05
1.66637e-05
1.66485e-05
1.67021e-05
1.67388e-05
1.66877e-05
1.65551e-05
1.64032e-05
1.6289e-05
1.62348e-05
1.62423e-05
1.63132e-05
1.64421e-05
1.65901e-05
1.66821e-05
1.66586e-05
1.65387e-05
1.64202e-05
1.64074e-05
1.65303e-05
1.67176e-05
1.56923e-05
1.49894e-05
1.51915e-05
1.53681e-05
1.55262e-05
1.56684e-05
1.57952e-05
1.5907e-05
1.60039e-05
1.6087e-05
1.61574e-05
1.62173e-05
1.62696e-05
1.63178e-05
1.6366e-05
1.64187e-05
1.64801e-05
1.65534e-05
1.66406e-05
1.67414e-05
1.68525e-05
1.69673e-05
1.70756e-05
1.71636e-05
1.72156e-05
1.7216e-05
1.71552e-05
1.7036e-05
1.68808e-05
1.67362e-05
1.66671e-05
1.66481e-05
1.66996e-05
1.67369e-05
1.66893e-05
1.6561e-05
1.64119e-05
1.62987e-05
1.62445e-05
1.62515e-05
1.63215e-05
1.64488e-05
1.65949e-05
1.66871e-05
1.66668e-05
1.65511e-05
1.64349e-05
1.64206e-05
1.65401e-05
1.67255e-05
1.56635e-05
1.49612e-05
1.5161e-05
1.53358e-05
1.54927e-05
1.56341e-05
1.57609e-05
1.58734e-05
1.59724e-05
1.60587e-05
1.61339e-05
1.62002e-05
1.62604e-05
1.63178e-05
1.63763e-05
1.64398e-05
1.65118e-05
1.65949e-05
1.66903e-05
1.67972e-05
1.69118e-05
1.70275e-05
1.7134e-05
1.7218e-05
1.7264e-05
1.72571e-05
1.7188e-05
1.70604e-05
1.68972e-05
1.67461e-05
1.66705e-05
1.66475e-05
1.66967e-05
1.67348e-05
1.66907e-05
1.65666e-05
1.64205e-05
1.63084e-05
1.62542e-05
1.62609e-05
1.633e-05
1.64556e-05
1.66003e-05
1.66931e-05
1.66764e-05
1.65653e-05
1.6451e-05
1.64346e-05
1.65498e-05
1.67331e-05
1.56425e-05
1.49405e-05
1.51384e-05
1.53121e-05
1.54684e-05
1.56098e-05
1.57374e-05
1.58517e-05
1.59534e-05
1.60438e-05
1.61244e-05
1.61975e-05
1.62657e-05
1.63321e-05
1.64002e-05
1.64734e-05
1.65546e-05
1.66458e-05
1.67478e-05
1.6859e-05
1.69756e-05
1.70908e-05
1.71945e-05
1.72737e-05
1.73133e-05
1.72988e-05
1.72213e-05
1.70852e-05
1.69139e-05
1.67558e-05
1.66736e-05
1.66464e-05
1.66935e-05
1.67323e-05
1.66917e-05
1.6572e-05
1.64289e-05
1.63182e-05
1.62641e-05
1.62706e-05
1.63389e-05
1.64629e-05
1.66062e-05
1.67e-05
1.66874e-05
1.6581e-05
1.64683e-05
1.64492e-05
1.65595e-05
1.67401e-05
1.56308e-05
1.49282e-05
1.51249e-05
1.52981e-05
1.54544e-05
1.55966e-05
1.57256e-05
1.58423e-05
1.59474e-05
1.60423e-05
1.61286e-05
1.62085e-05
1.62844e-05
1.63593e-05
1.64362e-05
1.65179e-05
1.6607e-05
1.67049e-05
1.68118e-05
1.6926e-05
1.70434e-05
1.7157e-05
1.72571e-05
1.73308e-05
1.73633e-05
1.73407e-05
1.72546e-05
1.71096e-05
1.69301e-05
1.67649e-05
1.66759e-05
1.66446e-05
1.66897e-05
1.67294e-05
1.66924e-05
1.65771e-05
1.64373e-05
1.6328e-05
1.62743e-05
1.62806e-05
1.63481e-05
1.64707e-05
1.66129e-05
1.6708e-05
1.66998e-05
1.65982e-05
1.64869e-05
1.64643e-05
1.65691e-05
1.67467e-05
1.56293e-05
1.49254e-05
1.51214e-05
1.52945e-05
1.54514e-05
1.55948e-05
1.57257e-05
1.58451e-05
1.5954e-05
1.60536e-05
1.61456e-05
1.62321e-05
1.63153e-05
1.63979e-05
1.64825e-05
1.65717e-05
1.66674e-05
1.67707e-05
1.68813e-05
1.69973e-05
1.71144e-05
1.72256e-05
1.73213e-05
1.73887e-05
1.74135e-05
1.73821e-05
1.72867e-05
1.71326e-05
1.69447e-05
1.67724e-05
1.6677e-05
1.6642e-05
1.66853e-05
1.67261e-05
1.66929e-05
1.65822e-05
1.64457e-05
1.6338e-05
1.62847e-05
1.62909e-05
1.63578e-05
1.64791e-05
1.66203e-05
1.67169e-05
1.67134e-05
1.66166e-05
1.65064e-05
1.648e-05
1.65787e-05
1.67529e-05
1.56381e-05
1.49321e-05
1.51278e-05
1.53013e-05
1.54591e-05
1.5604e-05
1.57372e-05
1.58596e-05
1.59723e-05
1.60766e-05
1.61741e-05
1.62667e-05
1.63566e-05
1.64461e-05
1.65376e-05
1.66332e-05
1.67343e-05
1.68419e-05
1.69552e-05
1.7072e-05
1.7188e-05
1.7296e-05
1.73864e-05
1.74466e-05
1.74628e-05
1.74217e-05
1.73164e-05
1.71528e-05
1.69565e-05
1.67775e-05
1.66764e-05
1.66383e-05
1.66803e-05
1.67224e-05
1.66931e-05
1.65871e-05
1.64541e-05
1.63481e-05
1.62954e-05
1.63017e-05
1.6368e-05
1.6488e-05
1.66284e-05
1.67268e-05
1.6728e-05
1.66361e-05
1.65267e-05
1.6496e-05
1.65882e-05
1.67588e-05
1.56566e-05
1.49477e-05
1.51435e-05
1.53177e-05
1.54767e-05
1.56234e-05
1.5759e-05
1.58844e-05
1.60009e-05
1.61097e-05
1.62124e-05
1.63107e-05
1.64066e-05
1.65023e-05
1.65997e-05
1.67006e-05
1.68063e-05
1.69172e-05
1.70323e-05
1.71492e-05
1.72633e-05
1.73673e-05
1.74515e-05
1.75037e-05
1.751e-05
1.74581e-05
1.7342e-05
1.71686e-05
1.69642e-05
1.67793e-05
1.66738e-05
1.66334e-05
1.66748e-05
1.67184e-05
1.66931e-05
1.65919e-05
1.64626e-05
1.63584e-05
1.63064e-05
1.63127e-05
1.63786e-05
1.64974e-05
1.66373e-05
1.67376e-05
1.67435e-05
1.66563e-05
1.65456e-05
1.65027e-05
1.65844e-05
1.67586e-05
1.56834e-05
1.4971e-05
1.51674e-05
1.53426e-05
1.5503e-05
1.56516e-05
1.57896e-05
1.59181e-05
1.60382e-05
1.61512e-05
1.62586e-05
1.63621e-05
1.64634e-05
1.65645e-05
1.6667e-05
1.67726e-05
1.6882e-05
1.69954e-05
1.71116e-05
1.72279e-05
1.73393e-05
1.74385e-05
1.75156e-05
1.75583e-05
1.75535e-05
1.74897e-05
1.73619e-05
1.71784e-05
1.69664e-05
1.67768e-05
1.66687e-05
1.66275e-05
1.66689e-05
1.67143e-05
1.66931e-05
1.65967e-05
1.64711e-05
1.63687e-05
1.63175e-05
1.6324e-05
1.63894e-05
1.65074e-05
1.66469e-05
1.67491e-05
1.67596e-05
1.66755e-05
1.65546e-05
1.64974e-05
1.65708e-05
1.67408e-05
1.57171e-05
1.50006e-05
1.51978e-05
1.53743e-05
1.55363e-05
1.56868e-05
1.58273e-05
1.59587e-05
1.60823e-05
1.61993e-05
1.6311e-05
1.64192e-05
1.65253e-05
1.66311e-05
1.67381e-05
1.68475e-05
1.696e-05
1.70753e-05
1.7192e-05
1.7307e-05
1.7415e-05
1.75084e-05
1.75771e-05
1.7609e-05
1.75915e-05
1.75144e-05
1.73741e-05
1.71806e-05
1.69621e-05
1.67695e-05
1.66612e-05
1.66206e-05
1.66629e-05
1.67105e-05
1.66931e-05
1.66015e-05
1.64795e-05
1.63791e-05
1.63286e-05
1.63354e-05
1.64005e-05
1.65178e-05
1.66571e-05
1.67613e-05
1.67763e-05
1.66866e-05
1.6556e-05
1.6493e-05
1.65578e-05
1.67223e-05
1.57556e-05
1.50348e-05
1.52331e-05
1.54111e-05
1.55748e-05
1.57273e-05
1.58702e-05
1.60045e-05
1.61313e-05
1.6252e-05
1.63677e-05
1.648e-05
1.65905e-05
1.67005e-05
1.68114e-05
1.69242e-05
1.70392e-05
1.71558e-05
1.72724e-05
1.73853e-05
1.74889e-05
1.75753e-05
1.76342e-05
1.76538e-05
1.76221e-05
1.75303e-05
1.7377e-05
1.71738e-05
1.69503e-05
1.67568e-05
1.66512e-05
1.66132e-05
1.66573e-05
1.67071e-05
1.66934e-05
1.66063e-05
1.64879e-05
1.63895e-05
1.63397e-05
1.63467e-05
1.64118e-05
1.65286e-05
1.66679e-05
1.67736e-05
1.67838e-05
1.66893e-05
1.65584e-05
1.64895e-05
1.65454e-05
1.67039e-05
1.57964e-05
1.50713e-05
1.52712e-05
1.5451e-05
1.56165e-05
1.57711e-05
1.59164e-05
1.60534e-05
1.61833e-05
1.63074e-05
1.64268e-05
1.6543e-05
1.66574e-05
1.67712e-05
1.68855e-05
1.70012e-05
1.71182e-05
1.72357e-05
1.73515e-05
1.74615e-05
1.75597e-05
1.76376e-05
1.76808e-05
1.76716e-05
1.76146e-05
1.75178e-05
1.73649e-05
1.71571e-05
1.69304e-05
1.67388e-05
1.66392e-05
1.66058e-05
1.66527e-05
1.67046e-05
1.66941e-05
1.66111e-05
1.64961e-05
1.63996e-05
1.63506e-05
1.63579e-05
1.6423e-05
1.65396e-05
1.66779e-05
1.67779e-05
1.67849e-05
1.66932e-05
1.6562e-05
1.64872e-05
1.6534e-05
1.66859e-05
1.5837e-05
1.51082e-05
1.53102e-05
1.54921e-05
1.56597e-05
1.58164e-05
1.5964e-05
1.61037e-05
1.62366e-05
1.63639e-05
1.64868e-05
1.66066e-05
1.67245e-05
1.68418e-05
1.69593e-05
1.70775e-05
1.71961e-05
1.73138e-05
1.7428e-05
1.7534e-05
1.76253e-05
1.76834e-05
1.7692e-05
1.76618e-05
1.76002e-05
1.75003e-05
1.73429e-05
1.71296e-05
1.69025e-05
1.67159e-05
1.66258e-05
1.6599e-05
1.66495e-05
1.67034e-05
1.66955e-05
1.6616e-05
1.65041e-05
1.64094e-05
1.63612e-05
1.63689e-05
1.64342e-05
1.65509e-05
1.6684e-05
1.6779e-05
1.67876e-05
1.66985e-05
1.65669e-05
1.64863e-05
1.65237e-05
1.66685e-05
1.58759e-05
1.51441e-05
1.53486e-05
1.55328e-05
1.57025e-05
1.58614e-05
1.60114e-05
1.61537e-05
1.62895e-05
1.64199e-05
1.65461e-05
1.66693e-05
1.67906e-05
1.69111e-05
1.70314e-05
1.71517e-05
1.72714e-05
1.73886e-05
1.75002e-05
1.7601e-05
1.76749e-05
1.77007e-05
1.7689e-05
1.76536e-05
1.75872e-05
1.7484e-05
1.73151e-05
1.70914e-05
1.6867e-05
1.66889e-05
1.6612e-05
1.65937e-05
1.66484e-05
1.67038e-05
1.66976e-05
1.66209e-05
1.65118e-05
1.64187e-05
1.63713e-05
1.63795e-05
1.64453e-05
1.65593e-05
1.66884e-05
1.67823e-05
1.67922e-05
1.67053e-05
1.65732e-05
1.64867e-05
1.65147e-05
1.6652e-05
1.59121e-05
1.51781e-05
1.53852e-05
1.55718e-05
1.57437e-05
1.59048e-05
1.60571e-05
1.62019e-05
1.63405e-05
1.64739e-05
1.66033e-05
1.67298e-05
1.68544e-05
1.69779e-05
1.71007e-05
1.72227e-05
1.73428e-05
1.74587e-05
1.75664e-05
1.76586e-05
1.77033e-05
1.77047e-05
1.76882e-05
1.76475e-05
1.75761e-05
1.74558e-05
1.72691e-05
1.70433e-05
1.68251e-05
1.66592e-05
1.65988e-05
1.65909e-05
1.665e-05
1.67063e-05
1.67007e-05
1.66259e-05
1.65191e-05
1.64276e-05
1.6381e-05
1.63898e-05
1.64562e-05
1.65683e-05
1.66943e-05
1.67876e-05
1.67987e-05
1.67137e-05
1.6581e-05
1.64888e-05
1.65072e-05
1.66364e-05
1.59446e-05
1.52088e-05
1.54185e-05
1.56076e-05
1.57817e-05
1.5945e-05
1.60997e-05
1.62471e-05
1.63885e-05
1.65249e-05
1.66575e-05
1.67871e-05
1.69148e-05
1.70411e-05
1.7166e-05
1.72892e-05
1.74089e-05
1.75222e-05
1.76245e-05
1.76915e-05
1.77138e-05
1.77115e-05
1.76901e-05
1.76438e-05
1.75653e-05
1.74191e-05
1.72106e-05
1.69865e-05
1.67787e-05
1.66285e-05
1.65877e-05
1.65913e-05
1.66549e-05
1.6711e-05
1.67049e-05
1.6631e-05
1.6526e-05
1.6436e-05
1.63902e-05
1.63997e-05
1.64671e-05
1.65781e-05
1.67021e-05
1.6795e-05
1.68072e-05
1.67238e-05
1.65905e-05
1.64927e-05
1.65014e-05
1.66221e-05
1.59716e-05
1.52349e-05
1.54473e-05
1.56388e-05
1.58153e-05
1.59809e-05
1.6138e-05
1.62881e-05
1.64323e-05
1.65718e-05
1.67075e-05
1.68402e-05
1.69708e-05
1.70995e-05
1.72262e-05
1.73497e-05
1.74678e-05
1.7577e-05
1.76704e-05
1.7719e-05
1.77278e-05
1.77213e-05
1.76947e-05
1.76428e-05
1.75318e-05
1.73533e-05
1.71413e-05
1.69233e-05
1.67299e-05
1.65988e-05
1.65798e-05
1.65958e-05
1.66634e-05
1.67182e-05
1.67102e-05
1.66363e-05
1.65325e-05
1.64437e-05
1.63989e-05
1.64093e-05
1.64779e-05
1.65888e-05
1.67117e-05
1.68044e-05
1.68175e-05
1.67358e-05
1.66017e-05
1.64984e-05
1.64975e-05
1.66094e-05
1.59919e-05
1.52553e-05
1.54704e-05
1.56645e-05
1.58433e-05
1.60114e-05
1.61712e-05
1.6324e-05
1.64712e-05
1.66137e-05
1.67525e-05
1.68883e-05
1.70215e-05
1.71522e-05
1.72798e-05
1.74025e-05
1.75176e-05
1.76209e-05
1.77011e-05
1.77395e-05
1.77451e-05
1.77342e-05
1.77022e-05
1.76163e-05
1.74653e-05
1.72748e-05
1.70638e-05
1.68564e-05
1.66815e-05
1.65722e-05
1.65766e-05
1.6605e-05
1.66757e-05
1.67279e-05
1.67166e-05
1.66416e-05
1.65385e-05
1.64509e-05
1.64071e-05
1.64187e-05
1.64888e-05
1.66004e-05
1.67228e-05
1.68155e-05
1.68297e-05
1.67494e-05
1.66147e-05
1.6506e-05
1.64955e-05
1.65982e-05
1.60043e-05
1.5269e-05
1.5487e-05
1.56838e-05
1.58653e-05
1.6036e-05
1.61985e-05
1.63543e-05
1.65045e-05
1.66501e-05
1.67918e-05
1.69304e-05
1.70658e-05
1.71979e-05
1.73253e-05
1.74459e-05
1.75562e-05
1.76513e-05
1.77251e-05
1.77621e-05
1.77659e-05
1.77418e-05
1.76696e-05
1.75455e-05
1.73806e-05
1.71863e-05
1.69812e-05
1.6789e-05
1.66361e-05
1.65507e-05
1.65791e-05
1.66195e-05
1.6692e-05
1.67401e-05
1.67241e-05
1.6647e-05
1.65442e-05
1.64576e-05
1.64149e-05
1.6428e-05
1.64999e-05
1.66127e-05
1.67353e-05
1.68283e-05
1.68436e-05
1.67647e-05
1.66294e-05
1.65155e-05
1.64956e-05
1.6589e-05
1.60082e-05
1.52757e-05
1.5497e-05
1.56966e-05
1.58809e-05
1.60544e-05
1.62198e-05
1.63785e-05
1.65317e-05
1.66803e-05
1.68249e-05
1.69657e-05
1.71028e-05
1.72351e-05
1.73611e-05
1.74778e-05
1.75812e-05
1.76658e-05
1.77255e-05
1.77535e-05
1.77436e-05
1.76913e-05
1.75947e-05
1.74565e-05
1.72842e-05
1.70915e-05
1.68973e-05
1.67247e-05
1.65965e-05
1.65362e-05
1.65882e-05
1.66393e-05
1.67121e-05
1.67545e-05
1.67326e-05
1.66525e-05
1.65495e-05
1.64639e-05
1.64226e-05
1.64373e-05
1.65114e-05
1.66258e-05
1.6749e-05
1.68424e-05
1.68589e-05
1.67815e-05
1.66457e-05
1.65269e-05
1.64978e-05
1.65816e-05
1.6004e-05
1.52759e-05
1.55006e-05
1.57032e-05
1.58902e-05
1.60666e-05
1.62348e-05
1.63965e-05
1.65526e-05
1.67039e-05
1.68509e-05
1.69934e-05
1.71311e-05
1.72625e-05
1.73853e-05
1.7496e-05
1.75902e-05
1.76622e-05
1.77059e-05
1.77154e-05
1.76859e-05
1.76149e-05
1.75029e-05
1.73548e-05
1.71803e-05
1.69944e-05
1.68162e-05
1.66666e-05
1.65651e-05
1.653e-05
1.66043e-05
1.66645e-05
1.67357e-05
1.67708e-05
1.67419e-05
1.66581e-05
1.65545e-05
1.64699e-05
1.64301e-05
1.64467e-05
1.65233e-05
1.66396e-05
1.67636e-05
1.68577e-05
1.68755e-05
1.67997e-05
1.66635e-05
1.654e-05
1.65021e-05
1.65763e-05
1.59935e-05
1.52707e-05
1.54986e-05
1.57039e-05
1.58936e-05
1.60726e-05
1.62437e-05
1.64081e-05
1.65668e-05
1.67205e-05
1.68691e-05
1.70125e-05
1.71494e-05
1.72782e-05
1.73959e-05
1.74986e-05
1.75813e-05
1.76387e-05
1.76651e-05
1.76559e-05
1.7608e-05
1.75209e-05
1.73974e-05
1.72444e-05
1.70734e-05
1.68997e-05
1.67416e-05
1.66178e-05
1.65438e-05
1.65332e-05
1.66275e-05
1.66946e-05
1.67623e-05
1.67888e-05
1.67519e-05
1.66638e-05
1.65594e-05
1.64758e-05
1.64376e-05
1.64565e-05
1.65358e-05
1.66542e-05
1.67791e-05
1.68741e-05
1.68933e-05
1.6819e-05
1.66827e-05
1.65549e-05
1.65084e-05
1.65731e-05
1.59783e-05
1.52611e-05
1.54916e-05
1.56992e-05
1.58912e-05
1.60727e-05
1.62462e-05
1.64131e-05
1.6574e-05
1.67292e-05
1.68787e-05
1.70216e-05
1.71564e-05
1.72807e-05
1.73912e-05
1.74836e-05
1.75531e-05
1.75945e-05
1.76034e-05
1.75764e-05
1.75124e-05
1.74129e-05
1.72828e-05
1.71305e-05
1.69684e-05
1.68116e-05
1.66771e-05
1.65807e-05
1.65339e-05
1.65462e-05
1.66576e-05
1.67292e-05
1.67915e-05
1.6808e-05
1.67625e-05
1.66696e-05
1.65642e-05
1.64816e-05
1.64453e-05
1.64667e-05
1.65489e-05
1.66694e-05
1.67954e-05
1.68913e-05
1.6912e-05
1.68394e-05
1.6703e-05
1.65713e-05
1.65166e-05
1.65719e-05
1.59587e-05
1.52471e-05
1.54797e-05
1.56891e-05
1.58831e-05
1.60667e-05
1.62424e-05
1.64111e-05
1.65735e-05
1.67295e-05
1.68786e-05
1.70196e-05
1.71504e-05
1.72684e-05
1.73697e-05
1.74502e-05
1.75051e-05
1.75302e-05
1.75222e-05
1.74795e-05
1.74029e-05
1.72957e-05
1.71643e-05
1.70182e-05
1.687e-05
1.67341e-05
1.66255e-05
1.65568e-05
1.6536e-05
1.6569e-05
1.66942e-05
1.67675e-05
1.68225e-05
1.68282e-05
1.67734e-05
1.66756e-05
1.6569e-05
1.64875e-05
1.64533e-05
1.64773e-05
1.65627e-05
1.66854e-05
1.68124e-05
1.69093e-05
1.69314e-05
1.68606e-05
1.67244e-05
1.6589e-05
1.65265e-05
1.65727e-05
1.59345e-05
1.52287e-05
1.54628e-05
1.56735e-05
1.58691e-05
1.60545e-05
1.62317e-05
1.64017e-05
1.65646e-05
1.67203e-05
1.68677e-05
1.70052e-05
1.71304e-05
1.72402e-05
1.73308e-05
1.7398e-05
1.7438e-05
1.74474e-05
1.74245e-05
1.73694e-05
1.72845e-05
1.71746e-05
1.70473e-05
1.69125e-05
1.67824e-05
1.66702e-05
1.65885e-05
1.6547e-05
1.65503e-05
1.66009e-05
1.67363e-05
1.68088e-05
1.68547e-05
1.68488e-05
1.67846e-05
1.66818e-05
1.6574e-05
1.64936e-05
1.64616e-05
1.64885e-05
1.65771e-05
1.6702e-05
1.683e-05
1.6928e-05
1.69516e-05
1.68825e-05
1.67465e-05
1.66079e-05
1.65381e-05
1.65753e-05
1.59053e-05
1.52054e-05
1.54407e-05
1.56523e-05
1.5849e-05
1.60356e-05
1.62138e-05
1.63842e-05
1.65468e-05
1.67009e-05
1.68451e-05
1.69775e-05
1.70955e-05
1.71957e-05
1.72745e-05
1.73282e-05
1.73539e-05
1.73494e-05
1.73146e-05
1.7251e-05
1.71626e-05
1.70552e-05
1.69369e-05
1.68178e-05
1.6709e-05
1.66221e-05
1.65672e-05
1.65513e-05
1.6576e-05
1.66412e-05
1.6783e-05
1.68521e-05
1.68876e-05
1.68695e-05
1.67959e-05
1.6688e-05
1.65792e-05
1.65e-05
1.64703e-05
1.65002e-05
1.65922e-05
1.67193e-05
1.68484e-05
1.69474e-05
1.69724e-05
1.69049e-05
1.67694e-05
1.66278e-05
1.65511e-05
1.65795e-05
1.5871e-05
1.51772e-05
1.54132e-05
1.56253e-05
1.58227e-05
1.60099e-05
1.61883e-05
1.63582e-05
1.65193e-05
1.66705e-05
1.68103e-05
1.69363e-05
1.70457e-05
1.71355e-05
1.72022e-05
1.72431e-05
1.72561e-05
1.72405e-05
1.71974e-05
1.71299e-05
1.70427e-05
1.69426e-05
1.68377e-05
1.67374e-05
1.66518e-05
1.65906e-05
1.65617e-05
1.65692e-05
1.66122e-05
1.66887e-05
1.68333e-05
1.68967e-05
1.69206e-05
1.689e-05
1.6807e-05
1.66944e-05
1.65846e-05
1.65067e-05
1.64794e-05
1.65124e-05
1.66077e-05
1.67372e-05
1.68674e-05
1.69675e-05
1.69939e-05
1.69279e-05
1.67928e-05
1.66486e-05
1.65653e-05
1.65852e-05
1.58319e-05
1.51443e-05
1.53804e-05
1.55926e-05
1.57902e-05
1.59773e-05
1.6155e-05
1.63235e-05
1.6482e-05
1.66291e-05
1.67632e-05
1.68817e-05
1.6982e-05
1.70612e-05
1.71166e-05
1.71461e-05
1.71489e-05
1.71256e-05
1.70785e-05
1.70115e-05
1.69301e-05
1.68412e-05
1.67528e-05
1.66735e-05
1.6612e-05
1.6576e-05
1.65712e-05
1.65993e-05
1.66574e-05
1.67418e-05
1.6886e-05
1.69416e-05
1.6953e-05
1.69099e-05
1.6818e-05
1.67008e-05
1.65902e-05
1.65137e-05
1.64889e-05
1.6525e-05
1.66237e-05
1.67557e-05
1.68872e-05
1.69884e-05
1.7016e-05
1.69514e-05
1.68167e-05
1.667e-05
1.65805e-05
1.65921e-05
1.57885e-05
1.51069e-05
1.53427e-05
1.55544e-05
1.57515e-05
1.59377e-05
1.6114e-05
1.628e-05
1.64349e-05
1.6577e-05
1.67046e-05
1.68152e-05
1.69063e-05
1.69756e-05
1.7021e-05
1.70415e-05
1.70374e-05
1.70101e-05
1.6963e-05
1.69006e-05
1.68288e-05
1.67543e-05
1.66846e-05
1.66273e-05
1.65896e-05
1.65774e-05
1.65943e-05
1.66401e-05
1.67099e-05
1.67991e-05
1.69399e-05
1.6986e-05
1.69844e-05
1.6929e-05
1.68285e-05
1.67072e-05
1.6596e-05
1.65209e-05
1.64986e-05
1.65379e-05
1.66399e-05
1.67745e-05
1.69077e-05
1.70101e-05
1.70389e-05
1.69756e-05
1.68412e-05
1.66922e-05
1.65967e-05
1.66001e-05
1.57415e-05
1.50657e-05
1.53006e-05
1.55112e-05
1.57071e-05
1.58918e-05
1.60657e-05
1.62285e-05
1.63789e-05
1.65154e-05
1.66361e-05
1.67388e-05
1.68214e-05
1.68821e-05
1.69197e-05
1.69341e-05
1.69263e-05
1.68988e-05
1.68555e-05
1.68012e-05
1.67419e-05
1.6684e-05
1.66341e-05
1.65988e-05
1.65838e-05
1.65934e-05
1.66292e-05
1.66894e-05
1.67678e-05
1.68589e-05
1.6994e-05
1.70293e-05
1.70143e-05
1.6947e-05
1.68384e-05
1.67135e-05
1.66019e-05
1.65284e-05
1.65086e-05
1.65509e-05
1.66562e-05
1.67937e-05
1.69289e-05
1.70327e-05
1.70627e-05
1.70006e-05
1.68665e-05
1.67152e-05
1.66137e-05
1.66089e-05
1.56921e-05
1.50215e-05
1.52548e-05
1.54638e-05
1.56578e-05
1.58402e-05
1.6011e-05
1.61698e-05
1.63153e-05
1.6446e-05
1.656e-05
1.66555e-05
1.67308e-05
1.67849e-05
1.68172e-05
1.68284e-05
1.68203e-05
1.6796e-05
1.67596e-05
1.67162e-05
1.66714e-05
1.66311e-05
1.66011e-05
1.6587e-05
1.6593e-05
1.66219e-05
1.66737e-05
1.67452e-05
1.68292e-05
1.69198e-05
1.70472e-05
1.70708e-05
1.70425e-05
1.69638e-05
1.68478e-05
1.67197e-05
1.6608e-05
1.65361e-05
1.65188e-05
1.6564e-05
1.66723e-05
1.6813e-05
1.69508e-05
1.70562e-05
1.70875e-05
1.70266e-05
1.68928e-05
1.67391e-05
1.66317e-05
1.66184e-05
1.5641e-05
1.49751e-05
1.52061e-05
1.54129e-05
1.56045e-05
1.5784e-05
1.59513e-05
1.61058e-05
1.62462e-05
1.63712e-05
1.64792e-05
1.65686e-05
1.66384e-05
1.6688e-05
1.67176e-05
1.67286e-05
1.67232e-05
1.67049e-05
1.66779e-05
1.66471e-05
1.66179e-05
1.65954e-05
1.65848e-05
1.65903e-05
1.66152e-05
1.66607e-05
1.67256e-05
1.68054e-05
1.68923e-05
1.69804e-05
1.70987e-05
1.711e-05
1.70687e-05
1.69793e-05
1.68566e-05
1.67258e-05
1.66143e-05
1.6544e-05
1.65291e-05
1.65769e-05
1.66881e-05
1.68322e-05
1.69731e-05
1.70806e-05
1.71136e-05
1.70541e-05
1.69204e-05
1.67643e-05
1.66507e-05
1.66286e-05
1.55895e-05
1.49275e-05
1.51557e-05
1.53598e-05
1.55486e-05
1.57248e-05
1.58883e-05
1.60385e-05
1.61741e-05
1.6294e-05
1.63969e-05
1.64817e-05
1.65478e-05
1.65952e-05
1.66247e-05
1.6638e-05
1.66378e-05
1.66276e-05
1.66117e-05
1.65946e-05
1.65811e-05
1.6576e-05
1.65835e-05
1.66069e-05
1.66481e-05
1.67074e-05
1.67825e-05
1.6868e-05
1.69555e-05
1.70395e-05
1.71478e-05
1.71468e-05
1.70929e-05
1.69936e-05
1.68649e-05
1.67319e-05
1.66207e-05
1.65521e-05
1.65394e-05
1.65897e-05
1.67033e-05
1.6851e-05
1.69958e-05
1.71057e-05
1.7141e-05
1.70833e-05
1.69499e-05
1.6791e-05
1.66709e-05
1.66395e-05
1.55387e-05
1.48797e-05
1.51047e-05
1.53058e-05
1.54916e-05
1.56643e-05
1.58241e-05
1.59702e-05
1.61016e-05
1.62173e-05
1.63164e-05
1.63982e-05
1.64625e-05
1.65098e-05
1.65414e-05
1.65591e-05
1.65659e-05
1.65653e-05
1.65612e-05
1.65581e-05
1.65601e-05
1.65714e-05
1.65953e-05
1.66343e-05
1.66894e-05
1.67599e-05
1.68424e-05
1.69312e-05
1.70176e-05
1.70961e-05
1.71942e-05
1.71811e-05
1.71154e-05
1.70068e-05
1.68728e-05
1.6738e-05
1.66274e-05
1.65604e-05
1.65497e-05
1.66022e-05
1.67178e-05
1.68692e-05
1.70183e-05
1.71313e-05
1.71696e-05
1.71144e-05
1.69816e-05
1.68199e-05
1.66928e-05
1.66513e-05
1.54897e-05
1.48331e-05
1.50546e-05
1.52526e-05
1.54352e-05
1.56047e-05
1.5761e-05
1.59035e-05
1.60314e-05
1.6144e-05
1.62406e-05
1.63209e-05
1.63852e-05
1.64342e-05
1.64695e-05
1.64932e-05
1.65082e-05
1.65179e-05
1.65261e-05
1.65366e-05
1.65533e-05
1.65795e-05
1.66179e-05
1.66703e-05
1.67369e-05
1.68159e-05
1.69036e-05
1.69937e-05
1.70775e-05
1.71499e-05
1.72378e-05
1.7213e-05
1.71362e-05
1.70193e-05
1.68806e-05
1.67444e-05
1.66344e-05
1.6569e-05
1.65601e-05
1.66143e-05
1.67314e-05
1.68863e-05
1.70402e-05
1.7157e-05
1.71994e-05
1.71475e-05
1.70159e-05
1.68513e-05
1.67166e-05
1.6664e-05
1.54438e-05
1.47889e-05
1.50069e-05
1.52019e-05
1.53815e-05
1.5548e-05
1.57013e-05
1.58408e-05
1.59661e-05
1.60766e-05
1.61719e-05
1.62522e-05
1.63179e-05
1.637e-05
1.64103e-05
1.6441e-05
1.64648e-05
1.6485e-05
1.65051e-05
1.65285e-05
1.65586e-05
1.65981e-05
1.66492e-05
1.67128e-05
1.67884e-05
1.68738e-05
1.69647e-05
1.70545e-05
1.71346e-05
1.72006e-05
1.72786e-05
1.72428e-05
1.71559e-05
1.70315e-05
1.68886e-05
1.67512e-05
1.66418e-05
1.65778e-05
1.65705e-05
1.66261e-05
1.67441e-05
1.69021e-05
1.70608e-05
1.71822e-05
1.72298e-05
1.71827e-05
1.70531e-05
1.68857e-05
1.67427e-05
1.6678e-05
1.54023e-05
1.47484e-05
1.49631e-05
1.51552e-05
1.53322e-05
1.54961e-05
1.56469e-05
1.57842e-05
1.59077e-05
1.60171e-05
1.61123e-05
1.61936e-05
1.62618e-05
1.6318e-05
1.63641e-05
1.64022e-05
1.6435e-05
1.64655e-05
1.64968e-05
1.65321e-05
1.65741e-05
1.66253e-05
1.66869e-05
1.67596e-05
1.68422e-05
1.69321e-05
1.70246e-05
1.7113e-05
1.71889e-05
1.72482e-05
1.73169e-05
1.7271e-05
1.71749e-05
1.70437e-05
1.68971e-05
1.67586e-05
1.66499e-05
1.65871e-05
1.6581e-05
1.66375e-05
1.67558e-05
1.69163e-05
1.70796e-05
1.72062e-05
1.72603e-05
1.72195e-05
1.7093e-05
1.69233e-05
1.67716e-05
1.66937e-05
1.53665e-05
1.47131e-05
1.49247e-05
1.51143e-05
1.5289e-05
1.54507e-05
1.55996e-05
1.57353e-05
1.58579e-05
1.5967e-05
1.6063e-05
1.61462e-05
1.62176e-05
1.62785e-05
1.63306e-05
1.63762e-05
1.64176e-05
1.64578e-05
1.64994e-05
1.65453e-05
1.65978e-05
1.66588e-05
1.67292e-05
1.68091e-05
1.6897e-05
1.69897e-05
1.70826e-05
1.71688e-05
1.72402e-05
1.7293e-05
1.73532e-05
1.7298e-05
1.71937e-05
1.70564e-05
1.69064e-05
1.67668e-05
1.66586e-05
1.65969e-05
1.65917e-05
1.66486e-05
1.67666e-05
1.69285e-05
1.70959e-05
1.72281e-05
1.729e-05
1.72572e-05
1.71355e-05
1.69641e-05
1.68035e-05
1.67114e-05
1.53377e-05
1.46841e-05
1.4893e-05
1.50804e-05
1.52532e-05
1.54132e-05
1.55607e-05
1.56955e-05
1.58177e-05
1.59273e-05
1.60246e-05
1.61103e-05
1.61854e-05
1.62511e-05
1.63093e-05
1.6362e-05
1.64115e-05
1.64605e-05
1.65113e-05
1.65664e-05
1.66278e-05
1.66969e-05
1.67744e-05
1.68599e-05
1.69515e-05
1.7046e-05
1.71383e-05
1.72219e-05
1.72888e-05
1.73356e-05
1.73879e-05
1.73243e-05
1.72127e-05
1.70699e-05
1.69166e-05
1.6776e-05
1.66681e-05
1.66072e-05
1.66026e-05
1.66595e-05
1.67767e-05
1.69387e-05
1.71091e-05
1.72473e-05
1.7318e-05
1.72949e-05
1.71796e-05
1.70077e-05
1.68385e-05
1.67313e-05
1.53169e-05
1.46625e-05
1.4869e-05
1.50546e-05
1.52258e-05
1.53846e-05
1.55311e-05
1.56655e-05
1.57878e-05
1.58983e-05
1.59974e-05
1.60858e-05
1.61646e-05
1.62352e-05
1.62991e-05
1.63584e-05
1.64153e-05
1.6472e-05
1.65307e-05
1.65937e-05
1.66625e-05
1.67382e-05
1.68213e-05
1.69109e-05
1.7005e-05
1.71003e-05
1.71917e-05
1.72725e-05
1.7335e-05
1.73762e-05
1.74215e-05
1.73505e-05
1.72322e-05
1.70844e-05
1.69281e-05
1.67863e-05
1.66784e-05
1.6618e-05
1.66137e-05
1.66703e-05
1.67863e-05
1.69471e-05
1.7119e-05
1.72631e-05
1.73434e-05
1.73313e-05
1.72244e-05
1.70535e-05
1.68762e-05
1.67536e-05
1.53049e-05
1.46489e-05
1.48534e-05
1.50375e-05
1.52075e-05
1.53652e-05
1.55112e-05
1.56454e-05
1.57682e-05
1.58799e-05
1.5981e-05
1.60722e-05
1.61547e-05
1.62298e-05
1.6299e-05
1.63642e-05
1.64275e-05
1.64909e-05
1.65564e-05