/*--------------------------------*- C++ -*----------------------------------*\
  =========                 |
  \\      /  F ield         | OpenFOAM: The Open Source CFD Toolbox
   \\    /   O peration     | Website:  https://openfoam.org
    \\  /    A nd           | Version:  9
     \\/     M anipulation  |
\*---------------------------------------------------------------------------*/
FoamFile
{
    format      ascii;
    class       surfaceScalarField;
    location    "0.05";
    object      alphaPhi0.water;
}
// * * * * * * * * * * * * * * * * * * * * * * * * * * * * * * * * * * * * * //

dimensions      [0 3 -1 0 0 0 0];

internalField   nonuniform List<scalar> 
39700
(
0
0
4.94066e-324
4.94066e-324
1.97626e-323
1.97626e-323
1.08694e-322
1.38338e-322
7.46039e-322
1.00295e-321
5.37049e-321
7.55426e-321
4.01577e-320
5.92138e-320
3.13075e-319
4.83552e-319
2.54414e-318
4.11589e-318
2.15545e-317
3.65213e-317
1.90425e-316
3.37886e-316
1.7546e-315
3.25998e-315
1.68649e-314
3.2806e-314
1.69128e-313
3.44396e-313
1.76989e-312
3.77221e-312
1.93306e-311
4.31152e-311
2.20381e-310
5.143e-310
2.62296e-309
6.40336e-309
3.25949e-308
8.32241e-308
4.22956e-307
1.12922e-306
5.73149e-306
1.59967e-305
8.11147e-305
2.36607e-304
1.199e-303
3.65416e-303
1.85116e-302
5.89277e-302
2.9853e-301
9.92255e-301
5.02866e-300
1.74456e-299
8.84773e-299
3.20249e-298
1.62597e-297
6.13745e-297
3.12081e-296
1.22782e-295
6.25547e-295
2.56369e-294
1.31674e-293
6.54978e-293
3.32836e-292
1.64006e-291
8.3914e-291
4.09455e-290
2.1091e-289
1.01867e-288
5.28354e-288
2.52473e-287
1.31891e-286
6.23187e-286
3.27987e-285
1.53144e-284
8.12345e-284
3.74546e-283
2.00332e-282
9.11318e-282
4.91774e-281
2.205e-280
1.20134e-279
5.30292e-279
2.91955e-278
1.26692e-277
7.05566e-277
3.00532e-276
1.69474e-275
7.07681e-275
4.04381e-274
1.65492e-273
9.58567e-273
3.84819e-272
2.26125e-271
8.91326e-271
5.34004e-270
2.06073e-269
1.28585e-268
4.76824e-268
3.33224e-267
1.08484e-266
9.82449e-266
1.98899e-265
2.12195e-264
-2.07557e-264
2.61312e-263
3.49983e-263
4.29496e-262
2.29531e-261
9.91886e-261
6.55444e-260
2.52853e-259
1.87008e-258
7.58832e-258
4.96897e-257
2.17429e-256
7.48597e-257
1.68951e-255
-4.80264e-255
2.02621e-256
2.04314e-256
9.58543e-258
7.98925e-257
4.3716e-259
3.38521e-258
2.08681e-260
1.29163e-259
1.06623e-261
4.96427e-261
5.65327e-263
2.01791e-262
2.93228e-264
1.00176e-263
1.46341e-265
5.55278e-265
7.0782e-267
2.92415e-266
3.33699e-268
1.45067e-267
1.53791e-269
6.92234e-269
8.39988e-271
3.16706e-270
4.71723e-272
1.72639e-271
2.7289e-273
9.6668e-273
1.62892e-274
5.57513e-274
1.00477e-275
3.31825e-275
6.41299e-277
2.04128e-276
4.24007e-278
1.2995e-277
2.9069e-279
8.57009e-279
2.06821e-280
5.86048e-280
1.52818e-281
4.15871e-281
1.17334e-282
3.06446e-282
9.36597e-284
2.34618e-283
7.7757e-285
1.86717e-284
6.71621e-286
1.5452e-285
6.03698e-287
1.33015e-286
5.64822e-288
1.19135e-287
5.50131e-289
1.11039e-288
5.57861e-290
1.07715e-289
5.89007e-291
1.08763e-290
6.47531e-292
1.14317e-291
7.41228e-293
1.25079e-292
8.83489e-294
1.42468e-293
1.09659e-294
1.6895e-294
1.4178e-295
2.08663e-295
1.91114e-296
2.68638e-296
2.692e-297
3.61352e-297
3.98439e-298
5.10666e-298
6.27298e-299
7.67564e-299
1.07496e-299
1.25557e-299
2.27302e-300
9.88131e-324
9.88131e-324
5.43472e-323
5.92879e-323
2.96439e-322
3.65609e-322
1.83298e-321
2.35175e-321
1.19762e-320
1.60917e-320
8.26769e-320
1.16367e-319
6.00226e-319
8.8502e-319
4.56778e-318
7.05506e-318
3.63619e-317
5.8825e-317
3.02394e-316
5.1235e-316
2.62518e-315
4.65784e-315
2.37811e-314
4.41812e-314
2.24757e-313
4.37162e-313
2.21605e-312
4.51203e-312
2.27954e-311
4.85773e-311
2.44646e-310
5.45566e-310
2.73963e-309
6.39208e-309
3.20141e-308
7.81356e-308
3.9041e-307
9.96537e-307
4.96889e-306
1.32616e-305
6.60051e-305
1.8415e-304
9.15142e-304
2.66822e-303
1.32433e-302
4.03406e-302
2.0003e-301
6.36381e-301
3.15331e-300
1.0474e-299
5.18777e-299
1.79841e-298
8.90623e-298
3.22091e-297
1.59532e-296
6.01592e-296
2.98103e-295
1.17154e-294
5.80973e-294
2.37804e-293
1.18744e-292
5.89811e-292
2.90856e-291
1.43085e-290
7.094e-290
3.455e-289
1.72164e-288
8.29749e-288
4.15563e-287
1.98092e-286
9.97181e-286
4.6986e-285
2.37756e-284
1.1066e-283
5.62963e-283
2.58616e-282
1.32307e-281
5.99336e-281
3.08459e-280
1.37632e-279
7.12997e-279
3.12942e-278
1.63305e-277
7.03968e-277
3.70394e-276
1.56553e-275
8.31444e-275
3.44052e-274
1.84716e-273
7.47558e-273
4.06916e-272
1.60876e-271
8.94631e-271
3.44034e-270
1.99582e-269
7.35162e-269
4.70014e-268
1.58385e-267
1.24735e-266
3.43401e-266
3.70647e-265
6.49129e-265
7.21865e-264
2.18387e-264
6.85009e-263
1.42434e-262
1.16127e-261
6.26554e-261
2.52031e-260
1.58036e-259
6.15978e-259
4.09317e-258
1.75166e-257
9.98912e-257
4.13053e-256
2.44115e-256
2.2682e-255
-6.21105e-255
2.81169e-256
4.85261e-256
1.57988e-257
1.49268e-256
8.40979e-259
6.92496e-258
4.66618e-260
2.91136e-259
2.75831e-261
1.25908e-260
1.65185e-262
5.9108e-262
9.47544e-264
3.31997e-263
5.18413e-265
2.00911e-264
2.73341e-266
1.14574e-265
1.3966e-267
6.13365e-267
6.93576e-269
3.145e-268
4.05514e-270
1.53772e-269
2.42616e-271
8.91966e-271
1.48925e-272
5.2951e-272
9.40051e-274
3.22728e-273
6.11402e-275
2.02429e-274
4.1042e-276
1.30915e-275
2.84761e-277
8.7427e-277
2.0446e-278
6.03661e-278
1.52072e-279
4.31426e-279
1.17268e-280
3.19437e-280
9.38207e-282
2.45229e-281
7.79234e-283
1.9532e-282
6.72198e-284
1.61492e-283
6.02506e-285
1.3867e-284
5.61309e-286
1.23708e-285
5.43668e-287
1.14693e-286
5.47586e-288
1.10537e-287
5.73649e-289
1.10768e-288
6.25214e-290
1.15446e-289
7.09272e-291
1.25209e-290
8.38519e-292
1.41482e-291
1.03618e-292
1.67069e-292
1.34846e-293
2.07723e-293
1.88085e-294
2.76763e-294
2.91539e-295
4.09722e-295
5.3178e-296
7.13673e-296
1.20199e-296
1.54022e-296
3.35648e-297
4.10609e-297
1.08512e-297
1.26712e-297
3.99178e-298
1.18576e-321
1.3241e-321
4.91595e-321
5.74104e-321
1.98565e-320
2.43031e-320
8.38874e-320
1.07573e-319
3.76048e-319
5.05232e-319
1.81313e-318
2.55211e-318
9.53996e-318
1.40671e-317
5.54368e-317
8.56264e-317
3.5761e-316
5.78541e-316
2.55139e-315
4.32287e-315
1.99239e-314
3.53503e-314
1.68132e-313
3.12351e-313
1.51565e-312
2.94784e-312
1.44683e-311
2.94561e-311
1.45389e-310
3.09793e-310
1.53219e-309
3.41635e-309
1.6896e-308
3.94152e-308
1.94707e-307
4.75117e-307
2.34304e-306
5.97925e-306
2.94307e-305
7.85257e-305
3.85778e-304
1.07593e-303
5.27627e-303
1.53776e-302
7.52862e-302
2.29226e-301
1.12061e-300
3.56325e-300
1.73973e-299
5.77521e-299
2.81667e-298
9.75761e-298
4.75475e-297
1.71818e-296
8.36668e-296
3.15221e-295
1.53422e-294
6.02325e-294
2.93075e-293
1.19821e-292
5.86416e-292
2.90884e-291
1.40359e-290
6.89413e-290
3.34003e-289
1.6238e-288
7.89482e-288
3.79719e-287
1.8524e-286
8.80951e-286
4.3115e-285
2.0261e-284
9.94712e-284
4.61555e-283
2.27303e-282
1.04051e-281
5.14046e-281
2.31907e-280
1.14959e-279
5.10503e-279
2.54034e-278
1.1088e-277
5.54282e-277
2.37376e-276
1.1934e-275
5.00486e-275
2.53488e-274
1.03895e-273
5.31732e-273
2.12536e-272
1.1062e-271
4.2967e-271
2.30673e-270
8.63114e-270
4.9294e-269
1.73825e-268
1.12542e-267
3.55256e-267
2.89518e-266
7.36397e-266
8.14652e-265
1.40569e-264
1.4088e-263
1.23542e-263
1.20472e-262
3.10041e-262
1.92812e-261
9.94998e-261
3.92218e-260
2.30893e-259
9.2681e-259
5.61193e-258
2.52832e-257
1.31705e-256
5.63775e-256
4.90012e-256
2.87933e-255
-7.54254e-255
3.15571e-256
8.51689e-256
1.82536e-257
1.92853e-256
1.05331e-258
9.12779e-258
6.5127e-260
4.08821e-259
4.32818e-261
1.95796e-260
2.89271e-262
1.04536e-261
1.83043e-263
6.55068e-263
1.09234e-264
4.29463e-264
6.22268e-266
2.63298e-265
3.41017e-267
1.50853e-266
1.80721e-268
8.24097e-268
1.12174e-269
4.27305e-269
7.10121e-271
2.62036e-270
4.59944e-272
1.64027e-271
3.05612e-273
1.05177e-272
2.08786e-274
6.92657e-274
1.46931e-275
4.69442e-275
1.06683e-276
3.27966e-276
8.0024e-278
2.36513e-277
6.20823e-279
1.76268e-278
4.98589e-280
1.35899e-279
4.14844e-281
1.0848e-280
3.57834e-282
8.97205e-282
3.20169e-283
7.69325e-283
2.97302e-284
6.84305e-284
2.86668e-285
6.31784e-285
2.87261e-286
6.05953e-286
2.99665e-287
6.04813e-287
3.26831e-288
6.30951e-288
3.76836e-289
6.9565e-289
4.71862e-290
8.32735e-290
6.78009e-291
1.14361e-290
1.20732e-291
1.94593e-291
2.77584e-292
4.27441e-292
7.88701e-293
1.1601e-292
2.55192e-293
3.58495e-293
8.85485e-294
1.18787e-293
3.19553e-294
4.09301e-294
1.18195e-294
1.44529e-294
4.41418e-295
5.15232e-295
1.73231e-295
4.09842e-319
4.56922e-319
1.66196e-318
1.9413e-318
6.48209e-318
7.93387e-318
2.59254e-317
3.32486e-317
1.06865e-316
1.43592e-316
4.5443e-316
6.39702e-316
1.9955e-315
2.94269e-315
9.06212e-315
1.39982e-314
4.26609e-314
6.90209e-314
2.08992e-313
3.54116e-313
1.07219e-312
1.90241e-312
5.81829e-312
1.08092e-311
3.38943e-311
6.59219e-311
2.16065e-310
4.39874e-310
1.53711e-309
3.27507e-309
1.23593e-308
2.75555e-308
1.12248e-307
2.61822e-307
1.13645e-306
2.77272e-306
1.25911e-305
3.21254e-305
1.5008e-304
4.00342e-304
1.90055e-303
5.2991e-303
2.53637e-302
7.38973e-302
3.54982e-301
1.08039e-300
5.19549e-300
1.65127e-299
7.9388e-299
2.63394e-298
1.26519e-297
4.38018e-297
2.10151e-296
7.58858e-296
3.63625e-295
1.36886e-294
6.55107e-294
2.56948e-293
1.22826e-292
5.01623e-292
2.40954e-291
1.19373e-290
5.64567e-290
2.76904e-289
1.31346e-288
6.375e-288
3.03098e-287
1.45504e-286
6.93215e-286
3.28953e-285
1.57001e-284
7.35946e-284
3.51799e-283
1.62767e-282
7.79163e-282
3.55486e-281
1.70405e-280
7.65805e-280
3.67658e-279
1.62534e-278
7.8186e-278
3.39464e-277
1.63762e-276
6.96949e-276
3.37673e-275
1.4055e-274
6.85629e-274
2.78407e-273
1.37367e-272
5.4247e-272
2.73169e-271
1.04366e-270
5.46041e-270
1.99608e-269
1.12243e-268
3.83359e-268
2.45931e-267
7.47205e-267
5.93633e-266
1.46764e-265
1.48829e-264
2.68441e-264
2.24556e-263
3.01631e-263
1.79118e-262
5.08091e-262
2.54946e-261
1.23674e-260
4.89038e-260
2.69754e-259
1.12834e-258
6.32985e-258
3.07012e-257
1.48671e-256
7.21654e-256
8.23401e-256
3.66304e-255
-8.60058e-255
3.3677e-256
1.32938e-255
1.86418e-257
2.16068e-256
1.12413e-258
1.00411e-257
7.56339e-260
4.73059e-259
5.54722e-261
2.48709e-260
4.07481e-262
1.48736e-261
2.80612e-263
1.02216e-262
1.8049e-264
7.16915e-264
1.0997e-265
4.68024e-265
6.4112e-267
2.84869e-266
3.60176e-268
1.64843e-267
2.36098e-269
9.02144e-269
1.57479e-270
5.82589e-270
1.0725e-271
3.83286e-271
7.479e-273
2.57833e-272
5.35269e-274
1.7782e-273
3.93941e-275
1.25996e-274
2.98628e-276
9.18774e-276
2.33491e-277
6.90488e-277
1.88525e-278
5.35476e-278
1.57354e-279
4.28989e-279
1.35911e-280
3.5543e-280
1.21644e-281
3.04987e-281
1.13115e-282
2.71761e-282
1.09995e-283
2.53118e-283
1.13815e-284
2.50758e-284
1.30829e-285
2.7587e-285
1.81529e-286
3.66223e-286
3.32026e-287
6.40679e-287
7.98756e-288
1.47377e-287
2.30328e-288
4.06259e-288
7.2939e-289
1.22958e-288
2.422e-289
3.90143e-289
8.27297e-290
1.27316e-289
2.88588e-290
4.24224e-290
1.02537e-290
1.43955e-290
3.70724e-291
4.97012e-291
1.36323e-291
1.745e-291
5.09054e-292
6.22083e-292
1.91183e-292
2.23014e-292
7.52512e-293
1.45535e-316
1.62277e-316
5.89201e-316
6.88335e-316
2.29324e-315
2.80727e-315
9.14871e-315
1.17347e-314
3.75906e-314
5.05168e-314
1.59167e-313
2.2409e-313
6.94696e-313
1.02458e-312
3.12619e-312
4.82958e-312
1.45084e-311
2.34756e-311
6.9456e-311
1.17697e-310
3.43085e-310
6.08794e-310
1.74915e-309
3.24977e-309
9.20796e-309
1.79096e-308
5.00818e-308
1.01961e-307
2.81726e-307
6.00266e-307
1.64211e-306
3.66104e-306
9.95055e-306
2.32087e-305
6.30596e-305
1.53839e-304
4.22319e-304
1.07738e-303
3.04e-303
8.10793e-303
2.40939e-302
6.71641e-302
2.15945e-301
6.28989e-301
2.22834e-300
6.77981e-300
2.64327e-299
8.39783e-299
3.53435e-298
1.1721e-297
5.19181e-297
1.79649e-296
8.19855e-296
2.95867e-295
1.37147e-294
5.15914e-294
2.40894e-293
9.44059e-293
4.42027e-292
1.80353e-291
8.49916e-291
4.20595e-290
1.95158e-289
9.55956e-289
4.44789e-288
2.15559e-287
1.00473e-286
4.81494e-286
2.24716e-285
1.06424e-284
4.97148e-284
2.32508e-283
1.08683e-282
5.01528e-282
2.34542e-281
1.06684e-280
4.99132e-280
2.23525e-279
1.04649e-278
4.60741e-278
2.15983e-277
9.33253e-277
4.38552e-276
1.85585e-275
8.75969e-275
3.62131e-274
1.72261e-273
6.93651e-273
3.34473e-272
1.30689e-271
6.45551e-271
2.43238e-270
1.25434e-269
4.50297e-269
2.50367e-268
8.36326e-268
5.26647e-267
1.56683e-266
1.17716e-265
2.91007e-265
2.54997e-264
4.93669e-264
3.34825e-263
5.70245e-263
2.50663e-262
7.37938e-262
3.059e-261
1.39752e-260
5.54634e-260
2.89027e-259
1.27183e-258
6.73095e-258
3.56206e-257
1.64153e-256
9.24306e-256
1.29731e-255
4.82371e-255
-9.20571e-255
3.77694e-256
1.97915e-255
1.93273e-257
2.36373e-256
1.17057e-258
1.05198e-257
8.30367e-260
5.12311e-259
6.53384e-261
2.90321e-260
5.15921e-262
1.89966e-261
3.80931e-263
1.40577e-262
2.61454e-264
1.04487e-263
1.69186e-265
7.2192e-265
1.044e-266
4.64756e-266
6.1935e-268
2.83935e-267
4.27386e-269
1.63554e-268
2.99503e-270
1.10944e-269
2.13893e-271
7.65221e-271
1.56117e-272
5.38652e-272
1.16735e-273
3.88035e-273
8.96065e-275
2.86707e-274
7.07476e-276
2.1771e-275
5.75852e-277
1.70299e-276
4.85163e-278
1.37789e-277
4.27335e-279
1.16476e-278
4.04421e-280
1.05727e-279
4.39971e-281
1.10263e-280
6.17148e-282
1.48195e-281
1.19955e-282
2.75878e-282
3.01446e-283
6.63722e-283
8.68219e-284
1.82949e-283
2.66153e-284
5.36553e-284
8.42196e-285
1.62386e-284
2.72134e-285
5.0171e-285
8.94774e-286
1.57693e-285
2.99067e-286
5.03735e-286
1.01596e-286
1.63513e-286
3.50808e-287
5.39403e-287
1.23145e-287
1.80865e-287
4.39521e-288
6.16516e-288
1.59514e-288
2.13663e-288
5.88601e-289
7.5277e-289
2.20516e-289
2.6924e-289
8.30751e-290
9.6821e-290
3.27584e-290
5.19778e-314
5.79691e-314
2.10163e-313
2.45573e-313
8.16763e-313
1.00004e-312
3.2533e-312
4.17369e-312
1.33455e-311
1.79381e-311
5.64117e-311
7.94369e-311
2.45776e-310
3.62552e-310
1.10395e-309
1.70576e-309
5.1131e-309
8.27472e-309
2.4425e-308
4.13959e-308
1.20357e-307
2.13599e-307
6.1187e-307
1.13694e-306
3.20959e-306
6.24335e-306
1.73733e-305
3.53731e-305
9.70467e-305
2.06788e-304
5.59454e-304
1.24733e-303
3.32843e-303
7.76331e-303
2.04367e-302
4.98558e-302
1.29507e-301
3.30368e-301
8.47108e-301
2.2591e-300
5.72116e-300
1.59462e-299
3.99256e-299
1.16271e-298
2.88365e-298
8.77157e-298
2.16281e-297
6.86937e-297
1.69587e-296
5.62201e-296
1.40788e-295
4.8695e-295
1.26472e-294
4.56175e-294
1.26878e-293
4.76998e-293
1.4694e-292
5.7545e-292
1.99711e-291
8.14185e-291
3.16533e-290
1.56492e-289
6.46334e-289
3.16244e-288
1.37565e-287
6.65822e-287
2.97679e-286
1.42442e-285
6.45645e-285
3.05244e-284
1.39275e-283
6.50069e-283
2.97525e-282
1.3698e-281
6.27827e-281
2.84818e-280
1.30647e-279
5.8328e-279
2.67791e-278
1.17482e-277
5.40252e-277
2.32471e-276
1.07239e-275
4.51593e-275
2.095e-274
8.61068e-274
4.03361e-273
1.61287e-272
7.67995e-272
2.97485e-271
1.45586e-270
5.42629e-270
2.77893e-269
9.84536e-269
5.42309e-268
1.7863e-267
1.09633e-266
3.23547e-266
2.26134e-265
5.68411e-265
4.24534e-264
8.85204e-264
4.95199e-263
9.81235e-263
3.52435e-262
1.05361e-261
3.70122e-261
1.6075e-260
6.3911e-260
3.18672e-259
1.49135e-258
7.59916e-258
4.41199e-257
1.97771e-256
1.26446e-255
2.10049e-255
6.95491e-255
-8.43178e-255
4.84681e-256
3.03351e-255
2.26854e-257
2.78527e-256
1.31598e-258
1.16222e-257
9.38632e-260
5.65754e-259
7.62754e-261
3.34499e-260
6.2984e-262
2.33262e-261
4.91011e-263
1.82752e-262
3.56767e-264
1.4292e-263
2.44037e-265
1.041e-264
1.58826e-266
7.06718e-266
9.9173e-268
4.54553e-267
7.1803e-269
2.74768e-268
5.26859e-270
1.95165e-269
3.93297e-271
1.40703e-270
2.999e-272
1.03464e-271
2.35073e-273
7.81242e-273
1.9227e-274
6.14991e-274
1.71028e-275
5.2607e-275
1.82636e-276
5.39823e-276
2.68749e-277
7.62775e-277
5.5824e-278
1.52046e-277
1.43954e-278
3.76036e-278
4.08714e-279
1.02341e-278
1.20888e-279
2.90023e-279
3.65397e-280
8.39545e-280
1.12206e-280
2.46806e-280
3.49533e-281
7.35761e-281
1.10442e-281
2.22409e-281
3.54067e-282
6.81937e-282
1.15214e-282
2.12175e-282
3.80688e-283
6.7016e-283
1.27768e-283
2.14961e-283
4.35711e-284
7.00449e-284
1.5101e-284
2.31924e-284
5.32023e-285
7.80481e-285
1.90566e-285
2.66995e-285
6.94052e-286
9.28573e-286
2.5699e-286
3.28285e-286
9.66067e-287
1.17815e-286
3.65135e-287
4.25059e-287
1.44234e-287
1.86896e-311
2.08497e-311
7.54717e-311
8.82116e-311
2.92877e-310
3.58693e-310
1.16478e-309
1.49471e-309
4.77052e-309
6.41389e-309
2.01321e-308
2.83566e-308
8.75643e-308
1.29201e-307
3.92626e-307
6.06811e-307
1.81525e-306
2.93837e-306
8.65538e-306
1.46725e-305
4.25698e-305
7.55647e-305
2.15996e-304
4.01427e-304
1.13076e-303
2.19995e-303
6.10819e-303
1.24386e-302
3.40486e-302
7.25607e-302
1.95857e-301
4.36722e-301
1.16259e-300
2.71188e-300
7.12096e-300
1.73728e-299
4.50029e-299
1.14804e-298
2.93411e-298
7.82474e-298
1.97323e-297
5.49957e-297
1.36853e-296
3.98509e-296
9.78619e-296
2.97638e-295
7.21351e-295
2.29067e-294
5.47963e-294
1.81611e-293
4.2889e-293
1.48295e-292
3.45861e-292
1.24701e-291
2.87406e-291
1.08e-290
2.46274e-290
9.63928e-290
2.17972e-289
8.88047e-289
2.01112e-288
9.93506e-288
2.19365e-287
1.07233e-286
2.45358e-286
1.18625e-285
2.90238e-285
1.38707e-284
3.78545e-284
1.78705e-283
5.61208e-283
2.61504e-282
9.41642e-282
4.32691e-281
1.7259e-280
7.81221e-280
3.31711e-279
1.47714e-278
6.48994e-278
2.83876e-277
1.27075e-276
5.44935e-276
2.46914e-275
1.03566e-274
4.74478e-274
1.94114e-273
9.01539e-273
3.58525e-272
1.6981e-271
6.53503e-271
3.18831e-270
1.17928e-269
6.01742e-269
2.11422e-268
1.15187e-267
3.76883e-267
2.23887e-266
6.61848e-266
4.27546e-265
1.10186e-264
7.09783e-264
1.58496e-263
7.58354e-263
1.6713e-262
5.27464e-262
1.59834e-261
5.03389e-261
2.10793e-260
8.54382e-260
4.13662e-259
2.0831e-258
1.04204e-257
6.5638e-257
2.91543e-256
2.01295e-255
3.86824e-255
1.18169e-254
-8.50674e-256
7.76486e-256
5.27993e-255
3.33771e-257
3.92614e-256
1.77827e-258
1.51053e-257
1.20171e-259
7.01232e-259
9.57174e-261
4.13332e-260
8.00929e-262
2.97273e-261
6.47864e-263
2.42233e-262
4.93233e-264
1.97483e-263
3.54055e-265
1.50629e-264
2.41621e-266
1.07242e-265
1.58257e-267
7.23965e-267
1.20773e-268
4.61464e-268
9.57561e-270
3.54273e-269
8.38207e-271
2.99545e-270
9.22935e-272
3.18084e-271
1.46159e-272
4.85251e-272
3.19723e-273
1.02159e-272
8.28737e-274
2.54637e-273
2.30058e-274
6.7922e-274
6.57403e-275
1.86367e-274
1.90922e-275
5.19372e-275
5.61433e-276
1.46472e-275
1.67034e-276
4.17707e-276
5.02848e-277
1.20478e-276
1.53246e-277
3.51624e-277
4.73048e-278
1.03907e-277
1.4799e-278
3.1108e-278
4.69471e-279
9.44083e-279
1.51096e-279
2.90597e-279
4.93587e-280
9.07662e-280
1.63724e-280
2.87801e-280
5.51632e-281
9.26734e-281
1.88843e-281
3.03143e-281
6.57014e-282
1.00759e-281
2.32356e-282
3.40371e-282
8.35418e-283
1.16877e-282
3.05398e-283
4.08e-283
1.13497e-283
1.44774e-283
4.28194e-284
5.21445e-284
1.62407e-284
1.88791e-284
6.4266e-285
6.75947e-309
7.54343e-309
2.72607e-308
3.18736e-308
1.05633e-307
1.29416e-307
4.19466e-307
5.38465e-307
1.71527e-306
2.30692e-306
7.22685e-306
1.01826e-305
3.13806e-305
4.63169e-305
1.40465e-304
2.17159e-304
6.48277e-304
1.04969e-303
3.0855e-303
5.23203e-303
1.51473e-302
2.68952e-302
7.67112e-302
1.42605e-301
4.00816e-301
7.80003e-301
2.1609e-300
4.40144e-300
1.20214e-299
2.56242e-299
6.90113e-299
1.53911e-298
4.08814e-298
9.53769e-298
2.49893e-297
6.09742e-297
1.57606e-296
4.02102e-296
1.02548e-295
2.73498e-295
6.8826e-295
1.91833e-294
4.76391e-294
1.38723e-293
3.39986e-293
1.034e-292
2.50111e-292
7.94166e-292
1.89608e-291
6.28327e-291
1.48082e-290
5.11914e-290
1.19106e-289
4.29329e-289
9.86311e-289
3.70506e-288
8.40534e-288
3.28853e-287
7.36712e-287
2.99997e-286
6.67088e-286
3.29345e-285
7.00055e-285
3.41962e-284
7.24774e-284
3.5011e-283
7.39403e-283
3.53008e-282
7.44098e-282
3.50863e-281
7.40266e-281
3.44472e-280
7.31162e-280
3.35452e-279
7.23064e-279
3.2671e-278
7.27584e-278
3.23343e-277
7.65858e-277
3.3422e-276
8.76345e-276
3.74818e-275
1.12939e-274
4.72308e-274
1.65424e-273
6.74504e-273
2.68963e-272
1.06559e-271
4.68055e-271
1.79374e-270
8.46861e-270
3.11853e-269
1.56699e-268
5.48512e-268
2.93695e-267
9.60445e-267
5.49015e-266
1.63697e-265
9.75715e-265
2.58847e-264
1.45704e-263
3.46169e-263
1.44683e-262
3.46002e-262
9.86809e-262
3.04474e-261
9.07689e-261
3.72418e-260
1.58919e-259
7.58671e-259
4.09282e-258
2.04376e-257
1.34643e-256
6.01289e-256
4.2333e-255
9.24303e-255
2.73858e-254
1.76012e-254
1.76944e-255
1.21099e-254
7.20733e-257
7.83257e-256
3.49087e-258
2.8003e-257
2.12721e-259
1.19224e-258
1.56608e-260
6.63031e-260
1.26693e-261
4.69508e-261
1.03098e-262
3.85912e-262
8.14878e-264
3.25338e-263
6.3916e-265
2.70696e-264
5.43635e-266
2.40275e-265
5.91148e-267
2.69503e-266
1.02948e-267
3.92248e-267
2.30253e-268
8.49846e-268
5.81225e-269
2.07276e-268
1.54626e-269
5.31894e-269
4.22462e-270
1.40005e-269
1.17462e-270
3.74663e-270
3.3118e-271
1.01583e-270
9.45304e-272
2.78613e-271
2.7293e-272
7.72405e-272
7.96809e-273
2.16387e-272
2.35227e-273
6.12628e-273
7.0237e-274
1.7534e-273
2.12217e-274
5.0757e-274
6.4917e-275
1.48692e-274
2.0116e-275
4.41084e-275
6.31794e-276
1.32572e-275
2.01227e-276
4.03945e-276
6.50261e-277
1.24842e-276
2.1329e-277
3.91529e-277
7.10393e-278
1.24656e-277
2.40336e-278
4.0305e-278
8.26134e-279
1.32383e-278
2.886e-279
4.41817e-279
1.02479e-279
1.49857e-279
3.69942e-280
5.1666e-280
1.35777e-280
1.81079e-280
5.06585e-281
6.45078e-281
1.91865e-281
2.3325e-281
7.30475e-282
8.47705e-282
2.89576e-282
2.45608e-306
2.74216e-306
9.89232e-306
1.15713e-305
3.82757e-305
4.69135e-305
1.51758e-304
1.94893e-304
6.19584e-304
8.33647e-304
2.60624e-303
3.67366e-303
1.12981e-302
1.66823e-302
5.04858e-302
7.80817e-302
2.32597e-301
3.76764e-301
1.10508e-300
1.87456e-300
5.41518e-300
9.61847e-300
2.73734e-299
5.09041e-299
1.42756e-298
2.77899e-298
7.68157e-298
1.56511e-297
4.26507e-297
9.09385e-297
2.44365e-296
5.45138e-296
1.44474e-295
3.37144e-295
8.81376e-295
2.15106e-294
5.54789e-294
1.41573e-293
3.60282e-293
9.61046e-293
2.41348e-292
6.72781e-292
1.66744e-291
4.85601e-291
1.18787e-290
3.6129e-290
8.72365e-290
2.77003e-289
6.60268e-289
2.18795e-288
5.14894e-288
1.77983e-287
4.13589e-287
1.49061e-286
3.42091e-286
1.2848e-285
2.91252e-285
1.1392e-284
2.55095e-284
1.03842e-283
2.30887e-283
1.13941e-282
2.42256e-282
1.18274e-281
2.50817e-281
1.21082e-280
2.55868e-280
1.22065e-279
2.57287e-279
1.21211e-278
2.55167e-278
1.18618e-277
2.49805e-277
1.14476e-276
2.41712e-276
1.09073e-275
2.31645e-275
1.02794e-274
2.20593e-274
9.61103e-274
2.09807e-273
8.95758e-273
2.00898e-272
8.38544e-272
1.96113e-271
7.98034e-271
1.98928e-270
7.86532e-270
2.15232e-269
8.23293e-269
2.55382e-268
9.39204e-268
3.37345e-267
1.18124e-266
4.90059e-266
1.60973e-265
7.48923e-265
2.26359e-264
1.10737e-263
3.03116e-263
1.36519e-262
3.43296e-262
1.1275e-261
2.8855e-261
5.9785e-261
1.88902e-260
3.80637e-260
1.55404e-259
5.92028e-259
2.82861e-258
1.53911e-257
7.773e-257
5.09195e-256
2.30765e-255
1.59934e-254
3.89412e-254
1.14489e-253
1.42917e-253
7.64647e-255
4.99514e-254
3.12233e-256
3.06093e-255
1.44357e-257
1.07926e-256
8.11445e-259
4.34558e-258
5.55044e-260
2.29853e-259
4.78902e-261
1.76638e-260
6.08768e-262
2.27456e-261
1.14145e-262
4.53557e-262
2.53448e-263
1.06693e-262
5.82389e-264
2.55963e-263
1.33859e-264
6.074e-264
3.42152e-265
1.29848e-264
8.9128e-266
3.27843e-265
2.36583e-266
8.41162e-266
6.39082e-267
2.19237e-266
1.75442e-267
5.79944e-267
4.88815e-268
1.5554e-267
1.3806e-268
4.22488e-268
3.94876e-269
1.1612e-268
1.14293e-269
3.22735e-269
3.3464e-270
9.06784e-270
9.91103e-271
2.57565e-270
2.96981e-271
7.3979e-271
9.00679e-272
2.14959e-271
2.76599e-272
6.32203e-272
8.60589e-273
1.88302e-272
2.71416e-273
5.68323e-273
8.68138e-274
1.73905e-273
2.81746e-274
5.39784e-274
9.28163e-275
1.70025e-274
3.10491e-275
5.43702e-275
1.05504e-275
1.76568e-275
3.64252e-276
5.82493e-276
1.27804e-276
1.95254e-276
4.55795e-277
6.65161e-277
1.6525e-277
2.30321e-277
6.09107e-278
8.10704e-278
2.28225e-278
2.90038e-278
8.68015e-279
1.05315e-278
3.31836e-279
3.84332e-279
1.31793e-279
8.93281e-304
9.97855e-304
3.59288e-303
4.20487e-303
1.38803e-302
1.70214e-302
5.49454e-302
7.05982e-302
2.23957e-301
3.01483e-301
9.40474e-301
1.3263e-300
4.06993e-300
6.01238e-300
1.81546e-299
2.80912e-299
8.34909e-299
1.35302e-298
3.9594e-298
6.71937e-298
1.93658e-297
3.44125e-297
9.77061e-297
1.81773e-296
5.08564e-296
9.90413e-296
2.73118e-295
5.56692e-295
1.51344e-294
3.22812e-294
8.65386e-294
1.93122e-293
5.10608e-293
1.19196e-292
3.10877e-292
7.58954e-292
1.95295e-291
4.98503e-291
1.26576e-290
3.37728e-290
8.46284e-290
2.35965e-289
5.83595e-289
1.69992e-288
4.15003e-288
1.26244e-287
3.04255e-287
9.6623e-287
2.29914e-286
7.6194e-286
1.7903e-285
6.1888e-285
1.4362e-284
5.17615e-284
1.18661e-283
4.45635e-283
1.00941e-282
3.94772e-282
8.83603e-282
3.59628e-281
7.996e-281
3.94499e-280
8.39192e-280
4.09576e-279
8.6955e-279
4.19606e-278
8.8835e-278
4.2359e-277
8.95269e-277
4.2153e-276
8.907e-276
4.1378e-275
8.75721e-275
4.01012e-274
8.52114e-274
3.84203e-273
8.22459e-273
3.64651e-272
7.90025e-272
3.43892e-271
7.58728e-271
3.23642e-270
7.33181e-270
3.05775e-269
7.1893e-269
2.92365e-268
7.23038e-268
2.85798e-267
7.55068e-267
2.88928e-266
8.28185e-266
3.05052e-265
9.59128e-265
3.37156e-264
1.16272e-263
3.85215e-263
1.42809e-262
4.3928e-262
1.65262e-261
4.67562e-261
1.57237e-260
4.16907e-260
1.00918e-259
2.74207e-259
3.89294e-259
1.26685e-258
1.18454e-258
4.87691e-258
8.06616e-258
3.91926e-257
1.65391e-256
8.5208e-256
5.02813e-255
2.32065e-254
1.48311e-253
3.94396e-253
1.07655e-252
1.86707e-252
8.145e-254
4.9361e-253
3.69442e-255
3.23123e-254
1.83112e-256
1.26771e-255
1.1083e-257
5.6604e-257
1.15791e-258
4.68406e-258
3.43509e-259
1.25788e-258
1.25155e-259
4.65679e-259
3.74834e-260
1.48003e-259
9.72175e-261
4.06284e-260
2.34015e-261
1.02158e-260
5.44888e-262
2.45825e-261
1.39815e-262
5.27965e-262
3.64646e-263
1.33549e-262
9.68287e-264
3.42952e-263
2.61646e-264
8.9446e-264
7.18738e-265
2.36825e-264
2.00488e-265
6.36017e-265
5.67241e-266
1.73085e-265
1.62617e-266
4.76871e-266
4.7201e-267
1.32924e-266
1.38656e-267
3.74726e-267
4.12164e-268
1.06834e-267
1.23995e-268
3.08086e-268
3.7764e-269
8.99014e-269
1.16487e-269
2.6558e-269
3.64086e-270
7.9467e-270
1.15366e-270
2.40974e-270
3.70769e-271
7.40914e-271
1.20913e-271
2.31092e-271
4.00278e-272
7.31484e-272
1.34561e-272
2.35068e-272
4.59494e-273
7.67169e-273
1.59424e-273
2.54341e-273
5.62121e-274
8.56779e-274
2.01458e-274
2.93311e-274
7.33961e-275
1.02061e-274
2.71848e-275
3.60989e-275
1.02348e-275
1.29771e-275
3.91118e-276
4.7346e-276
1.50221e-276
1.73593e-276
5.97882e-277
2.65147e-301
2.96367e-301
1.0624e-300
1.24411e-300
4.08638e-300
5.01407e-300
1.61022e-299
2.07014e-299
6.53241e-299
8.79873e-299
2.72996e-298
3.85211e-298
1.17556e-297
1.73758e-297
5.21718e-297
8.07715e-297
2.38686e-296
3.87013e-296
1.1259e-295
1.91174e-295
5.4769e-295
9.73737e-295
2.74788e-294
5.11475e-294
1.42215e-293
2.77095e-293
7.5931e-293
1.54843e-292
4.18268e-292
8.92564e-292
2.37722e-291
5.30744e-291
1.39402e-290
3.25557e-290
8.43431e-290
2.05993e-289
5.26486e-289
1.34441e-288
3.39036e-288
9.04936e-288
2.25204e-287
6.28136e-287
1.54281e-286
4.49533e-286
1.08986e-285
3.31625e-285
7.93702e-285
2.52119e-284
5.95765e-284
1.97479e-283
4.60809e-283
1.59322e-282
3.67194e-282
1.32356e-281
3.01366e-281
1.13188e-280
2.54672e-280
9.96047e-280
2.21488e-279
9.01457e-279
1.99165e-278
9.82562e-278
2.07711e-277
1.01364e-276
2.1394e-276
1.03221e-275
2.17344e-275
1.03613e-274
2.17917e-274
1.02578e-273
2.1583e-273
1.00236e-272
2.11417e-272
9.67825e-272
2.05175e-271
9.24814e-271
1.9778e-270
8.76656e-270
1.90076e-269
8.2724e-269
1.83067e-268
7.80881e-268
1.77936e-267
7.42289e-267
1.76092e-266
7.16629e-266
1.79267e-265
7.09605e-265
1.896e-264
7.27315e-264
2.09565e-263
7.75143e-263
2.41309e-262
8.5427e-262
2.84363e-261
9.53585e-261
3.29624e-260
1.03526e-259
3.49036e-259
1.0221e-258
2.97851e-258
8.30716e-258
1.72893e-257
4.96488e-257
6.09092e-257
2.05145e-256
1.4419e-256
6.04362e-256
4.39196e-256
2.1749e-255
4.91755e-255
2.59655e-254
1.19873e-253
5.62565e-253
3.08158e-252
8.75507e-252
2.0126e-251
4.20687e-251
1.85122e-252
1.03177e-251
9.94229e-254
7.76108e-253
5.73302e-255
3.67538e-254
4.73897e-256
2.31098e-255
1.3053e-256
5.15664e-256
6.67068e-257
2.4212e-256
2.61589e-257
9.67508e-257
7.85803e-258
3.07942e-257
2.02834e-258
8.40685e-258
4.85637e-259
2.10374e-258
1.12517e-259
5.04237e-259
2.87857e-260
1.08066e-259
7.49285e-261
2.73015e-260
1.98784e-261
7.00844e-261
5.373e-262
1.82919e-261
1.47841e-262
4.85267e-262
4.13662e-263
1.30756e-262
1.17558e-263
3.57482e-263
3.38933e-264
9.90653e-264
9.90478e-265
2.78046e-264
2.93219e-265
7.89998e-265
8.79108e-266
2.2718e-265
2.6693e-266
6.61273e-266
8.21001e-267
1.94881e-266
2.55872e-267
5.81697e-267
8.08356e-268
1.75936e-267
2.5898e-268
5.3944e-268
8.4177e-269
1.67747e-268
2.77684e-269
5.2926e-269
9.30021e-270
1.69493e-269
3.16337e-270
5.51124e-270
1.09305e-270
1.82005e-270
3.83756e-271
6.10606e-271
1.36923e-271
2.08145e-271
4.96552e-272
7.2105e-272
1.83048e-272
2.53871e-272
6.85957e-273
9.0852e-273
2.61267e-273
3.30412e-273
1.00987e-273
1.21933e-273
3.92143e-274
4.51994e-274
1.57158e-274
4.93577e-299
5.52073e-299
1.96728e-298
2.30531e-298
7.52108e-298
9.2347e-298
2.94504e-297
3.78874e-297
1.1871e-296
1.59999e-296
4.92852e-296
6.95891e-296
2.10813e-295
3.11801e-295
9.29238e-295
1.43954e-294
4.22183e-294
6.84968e-294
1.97744e-293
3.35969e-293
9.55026e-293
1.69896e-292
4.75667e-292
8.85904e-292
2.44357e-291
4.76387e-291
1.29487e-290
2.64207e-290
7.07853e-290
1.51135e-289
3.99203e-289
8.91746e-289
2.32267e-288
5.42713e-288
1.39419e-287
3.40676e-287
8.63328e-287
2.20561e-286
5.51467e-286
1.47262e-285
3.63334e-285
1.01385e-284
2.46874e-284
7.19623e-284
1.72963e-283
5.26502e-283
1.24926e-282
3.96971e-282
9.29994e-282
3.08369e-281
7.1341e-281
2.46731e-280
5.63818e-280
2.03285e-279
4.58969e-279
1.72422e-278
3.84727e-278
1.50502e-277
3.3194e-277
1.35123e-276
2.96163e-276
1.4613e-275
3.06468e-275
1.49575e-274
3.13308e-274
1.51176e-273
3.16039e-273
1.50675e-272
3.14772e-272
1.4818e-271
3.09868e-271
1.43922e-270
3.0192e-270
1.38232e-269
2.91732e-269
1.31525e-268
2.8033e-268
1.24299e-267
2.68983e-267
1.17132e-266
2.59196e-266
1.10659e-265
2.5274e-265
1.05578e-264
2.51736e-264
1.02657e-263
2.58737e-263