/*--------------------------------*- C++ -*----------------------------------*\
  =========                 |
  \\      /  F ield         | OpenFOAM: The Open Source CFD Toolbox
   \\    /   O peration     | Website:  https://openfoam.org
    \\  /    A nd           | Version:  9
     \\/     M anipulation  |
\*---------------------------------------------------------------------------*/
FoamFile
{
    format      ascii;
    class       volScalarField;
    location    "0.05";
    object      alpha.water;
}
// * * * * * * * * * * * * * * * * * * * * * * * * * * * * * * * * * * * * * //

dimensions      [0 0 0 0 0 0 0];

internalField   nonuniform List<scalar> 
20000
(
5.35547e-319
2.05687e-318
1.28334e-317
7.9577e-317
5.44877e-316
3.90993e-315
2.92473e-314
2.28007e-313
1.85284e-312
1.56975e-311
1.38679e-310
1.2778e-309
1.22818e-308
1.23165e-307
1.28888e-306
1.40768e-305
1.60482e-304
1.91001e-303
2.37347e-302
3.07977e-301
4.17329e-300
5.90607e-299
8.72978e-298
1.34776e-296
2.17339e-295
3.66086e-294
6.44079e-293
1.18357e-291
2.27153e-290
4.55279e-289
9.58245e-288
2.42192e-286
6.10538e-285
1.53433e-283
3.84309e-282
9.59166e-281
2.38479e-279
5.90517e-278
1.45587e-276
3.57268e-275
8.72414e-274
2.1192e-272
5.11896e-271
1.229e-269
2.93123e-268
6.94301e-267
1.63413e-265
3.83021e-264
8.99001e-263
2.15327e-261
5.63438e-260
1.67983e-258
2.52389e-257
3.27166e-256
7.05871e-255
1.75075e-253
4.64943e-252
1.72859e-250
1.18096e-249
1.81191e-250
7.49396e-252
3.31528e-253
1.52851e-254
7.58576e-256
4.07491e-257
2.1655e-258
1.08279e-259
5.21024e-261
2.44708e-262
1.12529e-263
6.13888e-265
3.44487e-266
1.99183e-267
1.18852e-268
7.32912e-270
4.67674e-271
3.0915e-272
2.11911e-273
1.50749e-274
1.11373e-275
8.5503e-277
6.82452e-278
5.66532e-279
4.89305e-280
4.39794e-281
4.11452e-282
4.00733e-283
4.06349e-284
4.29021e-285
4.71636e-286
5.39869e-287
6.43471e-288
7.98666e-289
1.03259e-289
1.39188e-290
1.96058e-291
2.90182e-292
4.56859e-293
7.8289e-294
1.48476e-294
6.96225e-318
3.80527e-317
2.17677e-316
1.3353e-315
8.72355e-315
6.02159e-314
4.37148e-313
3.32667e-312
2.64814e-311
2.20221e-310
1.91176e-309
1.73178e-308
1.63666e-307
1.61365e-306
1.65981e-305
1.78127e-304
1.99462e-303
2.3307e-302
2.8421e-301
3.61699e-300
4.80432e-299
6.66048e-298
9.63768e-297
1.45554e-295
2.29427e-294
3.77399e-293
6.47811e-292
1.16018e-290
2.16751e-289
4.22332e-288
8.62954e-287
2.1131e-285
5.1521e-284
1.24988e-282
3.01559e-281
7.23254e-280
1.72344e-278
4.078e-277
9.57632e-276
2.23047e-274
5.14974e-273
1.17791e-271
2.66753e-270
5.97752e-269
1.32486e-267
2.90579e-266
6.324e-265
1.37566e-263
3.04063e-262
7.11031e-261
1.92979e-259
5.97612e-258
8.1298e-257
9.45089e-256
1.74275e-254
3.88294e-253
9.56585e-252
2.90239e-250
1.75216e-249
3.16428e-250
1.42921e-251
6.86259e-253
3.49119e-254
1.94766e-255
1.18756e-256
7.09246e-258
3.91002e-259
2.04533e-260
1.03657e-261
5.11882e-263
2.98318e-264
1.78091e-265
1.09151e-266
6.88223e-268
4.47228e-269
3.00003e-270
2.08029e-271
1.49291e-272
1.10992e-273
8.55586e-275
6.84305e-276
5.68203e-277
4.90043e-278
4.3915e-279
4.09053e-280
3.96139e-281
3.98944e-282
4.17887e-283
4.55408e-284
5.16596e-285
6.10693e-286
7.54606e-287
9.81982e-288
1.36963e-288
2.12292e-289
3.87222e-290
8.75227e-291
2.444e-291
7.90105e-292
2.6075e-292
8.64405e-316
3.58062e-315
1.44652e-314
6.11048e-314
2.73908e-313
1.32063e-312
6.94844e-312
4.03762e-311
2.60449e-310
1.85812e-309
1.45095e-308
1.22436e-307
1.10365e-306
1.05348e-305
1.05855e-304
1.11547e-303
1.22998e-302
1.41727e-301
1.70533e-300
2.14181e-299
2.80714e-298
3.83878e-297
5.47665e-296
8.15038e-295
1.2651e-293
2.04778e-292
3.45595e-291
6.07957e-290
1.11447e-288
2.12817e-287
4.25633e-286
1.01824e-284
2.4217e-283
5.72057e-282
1.34129e-280
3.11931e-279
7.1898e-278
1.64113e-276
3.70655e-275
8.27617e-274
1.82541e-272
3.97396e-271
8.5333e-270
1.80651e-268
3.77121e-267
7.77802e-266
1.5939e-264
3.28538e-263
6.97231e-262
1.59211e-260
4.28457e-259
1.1665e-257
1.45457e-256
1.59271e-255
2.62789e-254
5.43358e-253
1.29228e-251
3.76679e-250
2.37758e-249
4.25295e-250
1.88723e-251
9.20692e-253
4.99775e-254
3.07785e-255
2.09075e-256
1.38198e-257
8.33528e-259
4.70939e-260
2.55512e-261
1.34358e-262
8.30007e-264
5.23662e-265
3.38351e-266
2.24411e-267
1.53094e-268
1.07615e-269
7.80622e-271
5.85079e-272
4.53592e-273
3.64071e-274
3.02769e-275
2.61049e-276
2.33485e-277
2.16741e-278
2.08931e-279
2.09314e-280
2.18308e-281
2.38057e-282
2.74439e-283
3.43601e-284
4.93661e-285
8.78976e-286
2.02077e-286
5.74127e-287
1.85756e-287
6.44525e-288
2.3259e-288
8.60273e-289
3.21275e-289
1.13159e-289
2.98597e-313
1.21081e-312
4.72233e-312
1.88867e-311
7.78487e-311
3.31032e-310
1.45358e-309
6.60086e-309
3.10729e-308
1.52216e-307
7.80864e-307
4.23714e-306
2.46816e-305
1.57324e-304
1.11912e-303
8.99756e-303
8.17073e-302
8.27142e-301
9.16292e-300
1.09201e-298
1.38264e-297
1.84485e-296
2.58145e-295
3.77731e-294
5.77028e-293
9.19323e-292
1.52651e-290
2.64033e-289
4.7548e-288
8.91048e-287
1.74693e-285
4.09035e-284
9.50899e-283
2.19244e-281
5.00948e-280
1.1333e-278
2.53618e-277
5.60869e-276
1.22446e-274
2.63623e-273
5.59188e-272
1.16762e-270
2.39855e-269
4.84667e-268
9.64255e-267
1.89505e-265
3.70755e-264
7.32743e-263
1.49861e-261
3.28943e-260
8.20513e-259
1.83153e-257
2.04676e-256
2.09438e-255
3.18545e-254
6.28668e-253
1.49645e-251
4.6087e-250
3.24175e-249
5.31885e-250
2.16283e-251
1.03613e-252
5.92219e-254
3.98218e-255
2.96396e-256
2.1305e-257
1.38714e-258
8.38635e-260
4.83671e-261
2.69282e-262
1.75499e-263
1.16561e-264
7.9133e-266
5.50505e-267
3.9325e-268
2.88974e-269
2.18777e-270
1.70873e-271
1.37839e-272
1.14959e-273
9.92262e-275
8.87589e-276
8.24947e-277
8.01852e-278
8.29397e-279
9.53079e-280
1.32206e-280
2.41756e-281
5.81478e-282
1.67646e-282
5.30816e-283
1.76241e-283
6.01936e-284
2.09957e-284
7.45941e-285
2.69684e-285
9.91645e-286
3.70287e-286
1.39064e-286
4.91565e-287
1.06049e-310
4.2933e-310
1.67096e-309
6.66596e-309
2.73885e-308
1.15965e-307
5.06117e-307
2.27746e-306
1.05689e-305
5.05937e-305
2.49896e-304
1.27394e-303
6.70577e-303
3.64689e-302
2.05127e-301
1.19549e-300
7.24318e-300
4.58953e-299
3.07315e-298
2.21174e-297
1.75257e-296
1.5704e-295
1.62008e-294
1.92119e-293
2.56801e-292
3.77091e-291
5.95231e-290
9.9525e-289
1.7472e-287
3.20412e-286
6.15603e-285
1.41236e-283
3.21591e-282
7.25672e-281
1.6211e-279
3.58151e-278
7.8173e-277
1.68389e-275
3.57572e-274
7.47744e-273
1.53843e-271
3.11194e-270
6.18687e-269
1.20935e-267
2.32811e-266
4.43255e-265
8.41687e-264
1.6166e-262
3.20362e-261
6.69423e-260
1.48837e-258
2.69355e-257
2.65362e-256
2.48686e-255
3.55204e-254
6.88108e-253
1.69541e-251
5.71459e-250
4.54866e-249
6.62063e-250
2.42127e-251
1.11451e-252
6.58701e-254
4.73823e-255
3.77604e-256
2.89859e-257
2.01515e-258
1.29555e-259
7.90974e-261
4.64788e-262
3.18697e-263
2.22259e-264
1.58148e-265
1.15103e-266
8.58726e-268
6.57945e-269
5.18669e-270
4.2162e-271
3.54826e-272
3.12236e-273
2.95253e-274
3.20981e-275
4.49969e-276
8.74152e-277
2.19574e-277
6.3217e-278
1.93727e-278
6.12844e-279
1.97976e-279
6.50809e-280
2.17487e-280
7.38712e-281
2.55045e-281
8.952e-282
3.19483e-282
1.15941e-282
4.27799e-283
1.60267e-283
6.03757e-284
2.13991e-284
3.78836e-308
1.53172e-307
5.95261e-307
2.37095e-306
9.72565e-306
4.1109e-305
1.79097e-304
8.04404e-304
3.7255e-303
1.77953e-302
8.76814e-302
4.45715e-301
2.33778e-300
1.26528e-299
7.06691e-299
4.07334e-298
2.42301e-297
1.48747e-296
9.42423e-296
6.16305e-295
4.16135e-294
2.90323e-293
2.09623e-292
1.57169e-291
1.2319e-290
1.02226e-289
9.17865e-289
9.20309e-288
1.06517e-286
1.44671e-285
2.29091e-284
4.67323e-283
9.93561e-282
2.14733e-280
4.65096e-279
1.00169e-277
2.13595e-276
4.49764e-275
9.33592e-274
1.90792e-272
3.83537e-271
7.58022e-270
1.473e-268
2.81675e-267
5.31237e-266
9.92634e-265
1.85199e-263
3.48913e-262
6.7211e-261
1.32904e-259
2.60991e-258
3.94379e-257
3.48332e-256
2.98222e-255
4.07957e-254
8.01037e-253
2.09538e-251
7.69e-250
6.90179e-249
8.80193e-250
2.9207e-251
1.2665e-252
7.48148e-254
5.56467e-255
4.62773e-256
3.73302e-257
2.74749e-258
1.87028e-259
1.2054e-260
7.45605e-262
5.36316e-263
3.9152e-264
2.91112e-265
2.2129e-266
1.7302e-267
1.41222e-268
1.25401e-269
1.33714e-270
1.96513e-271
4.07751e-272
1.05049e-272
2.98016e-273
8.80855e-274
2.66089e-274
8.16681e-275
2.54292e-275
8.03181e-276
2.57407e-276
8.37375e-277
2.76616e-277
9.28204e-278
3.16479e-278
1.0967e-278
3.86334e-279
1.38368e-279
5.03907e-280
1.86573e-280
7.01325e-281
2.65065e-281
9.42203e-282
1.36257e-305
5.50216e-305
2.13512e-304
8.49122e-304
3.47757e-303
1.46751e-302
6.38261e-302
2.86171e-301
1.32299e-300
6.30771e-300
3.10205e-299
1.5738e-298
8.23804e-298
4.4495e-297
2.47991e-296
1.42628e-295
8.46474e-295
5.18369e-294
3.27524e-293
2.13487e-292
1.43532e-291
9.9516e-291
7.11378e-290
5.24162e-289
3.97999e-288
3.11362e-287
2.50948e-286
2.08406e-285
1.78457e-284
1.57826e-283
1.45471e-282
1.58498e-281
1.77061e-280
2.09162e-279
2.7238e-278
4.03104e-277
6.74998e-276
1.23429e-274
2.36576e-273
4.6136e-272
8.99861e-271
1.74034e-269
3.32527e-268
6.2727e-267
1.16996e-265
2.16553e-264
4.00089e-263
7.42901e-262
1.3917e-260
2.59858e-259
4.55576e-258
6.00502e-257
4.95802e-256
4.04596e-255
5.51151e-254
1.13289e-252
3.1673e-251
1.22427e-249
1.20935e-248
1.36913e-249
4.2163e-251
1.69374e-252
9.53793e-254
7.00106e-255
5.88925e-256
4.90798e-257
3.78429e-258
2.70817e-259
1.83263e-260
1.1898e-261
9.02222e-263
7.11686e-264
6.20457e-265
6.80959e-266
1.07553e-266
2.34753e-267
6.07355e-268
1.68334e-268
4.80366e-269
1.39343e-269
4.09343e-270
1.21679e-270
3.6603e-271
1.11477e-271
3.43918e-272
1.0754e-272
3.41006e-273
1.09711e-273
3.58281e-274
1.18811e-274
4.00218e-275
1.36983e-275
4.76508e-276
1.68497e-276
6.05755e-277
2.21423e-277
8.22831e-278
3.10418e-278
1.17733e-278
4.1982e-279
4.92983e-303
1.98814e-302
7.70371e-302
3.05901e-301
1.25083e-300
5.26984e-300
2.28817e-299
1.02416e-298
4.72639e-298
2.24935e-297
1.10415e-296
5.59117e-296
2.92102e-295
1.57458e-294
8.75824e-294
5.02694e-293
2.9773e-292
1.81951e-291
1.14727e-290
7.46278e-290
5.00717e-289
3.46461e-288
2.47164e-287
1.81749e-286
1.37717e-285
1.07498e-284
8.64123e-284
7.15092e-283
6.0894e-282
5.33273e-281
4.82341e-280
5.05566e-279
5.22721e-278
5.32481e-277
5.3497e-276
5.31212e-275
5.23551e-274
5.16468e-273
5.18195e-272
5.43602e-271
6.19525e-270
7.94582e-269
1.1571e-267
1.86774e-266
3.2193e-265
5.74731e-264
1.04354e-262
1.90751e-261
3.47238e-260
6.12261e-259
9.69659e-258
1.14491e-256
8.98404e-256
7.34243e-255
1.04968e-253
2.28998e-252
6.69513e-251
2.6063e-249
2.82206e-248
2.87546e-249
8.61605e-251
3.22855e-252
1.66597e-253
1.14145e-254
9.28701e-256
7.76243e-257
6.21425e-258
4.86825e-259
4.11233e-260
4.43675e-261
7.68085e-262
1.70949e-262
4.29813e-263
1.13976e-263
3.10564e-264
8.6155e-265
2.42446e-265
6.90883e-266
1.9919e-266
5.80812e-267
1.7128e-267
5.10957e-268
1.54259e-268
4.71549e-269
1.46033e-269
4.58412e-270
1.45939e-270
4.71417e-271
1.54576e-271
5.14693e-272
1.74086e-272
5.98283e-273
2.08967e-273
7.41922e-274
2.67798e-274
9.82787e-275
3.66654e-275
1.3886e-275
5.28655e-276
1.89169e-276
1.79209e-300
7.21782e-300
2.79266e-299
1.10721e-298
4.52024e-298
1.90131e-297
8.24175e-297
3.68262e-296
1.69652e-295
8.05952e-295
3.94897e-294
1.99594e-293
1.04077e-292
5.59946e-292
3.10849e-291
1.78065e-290
1.05253e-289
6.41953e-289
4.03974e-288
2.62264e-287
1.75628e-286
1.21294e-285
8.63737e-285
6.34029e-284
4.79632e-283
3.73814e-282
3.00074e-281
2.4802e-280
2.1099e-279
1.8463e-278
1.66912e-277
1.74906e-276
1.80831e-275
1.84184e-274
1.84882e-273
1.82998e-272
1.78754e-271
1.72521e-270
1.64848e-269
1.56445e-268
1.48197e-267
1.41232e-266
1.37091e-265
1.38101e-264
1.48101e-263
1.73648e-262
2.25746e-261
3.2159e-260
4.82921e-259
7.16189e-258
9.37834e-257
8.96202e-256
5.35141e-255
3.12583e-254
4.05031e-253
8.96561e-252
2.63314e-250
1.00242e-248
1.15991e-247
1.10797e-248
3.44876e-250
1.27741e-251
6.2234e-253
4.01203e-254
3.48701e-255
4.54431e-256
8.63427e-257
1.91848e-257
4.38592e-258
1.0014e-258
2.54616e-259
6.60271e-260
1.74609e-260
4.70211e-261
1.28747e-261
3.57918e-262
1.00897e-262
2.88107e-263
8.327e-264
2.43505e-264
7.20405e-265
2.15663e-265
6.53523e-266
2.00554e-266
6.236e-267
1.96568e-267
6.28438e-268
2.03871e-268
6.71387e-269
2.24528e-269
7.62748e-270
2.63283e-270
9.23606e-271
3.29345e-271
1.19391e-271
4.40031e-272
1.64863e-272
6.26996e-273
2.39688e-273
8.60964e-274
6.5214e-298
2.62292e-297
1.01327e-296
4.01091e-296
1.63477e-295
6.8646e-295
2.9705e-294
1.32495e-293
6.09276e-293
2.88911e-292
1.41293e-291
7.12778e-291
3.70951e-290
1.99182e-289
1.10354e-288
6.30875e-288
3.72153e-287
2.26523e-286
1.42262e-285
9.2175e-285
6.16061e-284
4.24667e-283
3.01854e-282
2.21193e-281
1.67056e-280
1.30005e-279
1.0422e-278
8.60433e-278
7.31314e-277
6.39563e-276
5.78045e-275
6.05854e-274
6.26853e-273
6.39374e-272
6.432e-271
6.38638e-270
6.26485e-269
6.08041e-268
5.85168e-267
5.60206e-266
5.35928e-265
5.15556e-264
5.02888e-263
5.02605e-262
5.20802e-261
5.65533e-260
6.46659e-259
7.72856e-258
9.40103e-257
1.10029e-255
1.11214e-254
8.09588e-254
3.46728e-253
9.94598e-253
5.78113e-252
1.01089e-250
2.71488e-249
9.46012e-248
1.05133e-246
1.03945e-247
3.72777e-249
1.53691e-250
8.28069e-252
8.26595e-253
2.47647e-253
9.24278e-254
2.80739e-254
7.30082e-255
1.75176e-255
4.05755e-256
1.0365e-256
2.69257e-257
7.12581e-258
1.92001e-258
5.26137e-259
1.46454e-259
4.13602e-260
1.18382e-260
3.43132e-261
1.00673e-261
2.98936e-262
8.98473e-263
2.73414e-263
8.42765e-264
2.63247e-264
8.33681e-265
2.67806e-265
8.72998e-266
2.88901e-266
9.70905e-267
3.31456e-267
1.14976e-267
4.05327e-268
1.45243e-268
5.29095e-269
1.9595e-269
7.37682e-270
2.81887e-270
1.08264e-270
3.90583e-271
1.93691e-295
7.76067e-295
2.98493e-294
1.17615e-293
4.77123e-293
1.99383e-292
8.58514e-292
3.80984e-291
1.74285e-290
8.22034e-290
3.99829e-289
2.00577e-288
1.03791e-287
5.54068e-287
3.05152e-286
1.73395e-285
1.01656e-284
6.14889e-284
3.83711e-283
2.47012e-282
1.64017e-281
1.12316e-280
7.93052e-280
5.77254e-279
4.33049e-278
3.3474e-277
2.66548e-276
2.1859e-275
1.84559e-274
1.60354e-273
1.44009e-272
1.49982e-271
1.5425e-270
1.56449e-269
1.5658e-268
1.54772e-267
1.51272e-266
1.46442e-265
1.40769e-264
1.34857e-263
1.29417e-262
1.25277e-261
1.23405e-260
1.24959e-259
1.31319e-258
1.44008e-257
1.64278e-256
1.91834e-255
2.21751e-254
2.39045e-253
2.16665e-252
1.40576e-251
5.44791e-251
1.24315e-250
3.29262e-250
3.16332e-249
6.75517e-248
1.9915e-246
1.87149e-245
2.08939e-246
9.16402e-248
4.55213e-249
3.44021e-250
9.1734e-251
4.74954e-251
1.90771e-251
5.81838e-252
1.50896e-252
3.60843e-253
8.32966e-254
2.12353e-254
5.50937e-255
1.4574e-255
3.92935e-256
1.07881e-256
3.01271e-257
8.54715e-258
2.46053e-258
7.18093e-259
2.12332e-259
6.35939e-260
1.92918e-260
5.92885e-261
1.84647e-261
5.82981e-262
1.86675e-262
6.06469e-263
1.99982e-263
6.69545e-264
2.27671e-264
7.86477e-265
2.76064e-265
9.84811e-266
3.57089e-266
1.31621e-266
4.93193e-267
1.87834e-267
7.25994e-268
2.81901e-268
1.02669e-268
3.60812e-293
1.43807e-292
5.49768e-292
2.15264e-291
8.67649e-291
3.60204e-290
1.54063e-289
6.7904e-289
3.08481e-288
1.44473e-287
6.97663e-287
3.47435e-286
1.78455e-285
9.45483e-285
5.16753e-284
2.91365e-283
1.69482e-282
1.01703e-281
6.29585e-281
4.0202e-280
2.64769e-279
1.79825e-278
1.25928e-277
9.09058e-277
6.76337e-276
5.18488e-275
4.09471e-274
3.33055e-273
2.78931e-272
2.4042e-271
2.14231e-270
2.21379e-269
2.25983e-268
2.27586e-267
2.26274e-266
2.2232e-265
2.16158e-264
2.08375e-263
1.9971e-262
1.91075e-261
1.83535e-260
1.78335e-259
1.76945e-258
1.81097e-257
1.92753e-256
2.13796e-255
2.45065e-254
2.84016e-253
3.20246e-252
3.30368e-251
2.83149e-250
1.75775e-249
6.79479e-249
1.57328e-248
3.31502e-248
1.85742e-247
2.88586e-246
6.88324e-245
5.1502e-244
6.66079e-245
3.57e-246
2.17822e-247
2.54272e-248
1.10224e-248
5.96927e-249
2.34602e-249
7.07978e-250
1.83023e-250
4.36982e-251
1.00757e-251
2.56905e-252
6.66945e-253
1.76622e-253
4.77058e-254
1.31335e-254
3.68163e-255
1.04957e-255
3.03918e-256
8.92952e-257
2.66024e-257
8.03275e-258
2.45817e-258
7.62434e-259
2.39737e-259
7.64439e-260
2.47273e-260
8.11684e-261
2.7047e-261
9.15174e-262
3.14529e-262
1.09822e-262
3.8965e-263
1.405e-263
5.14924e-264
1.91828e-264
7.26433e-265
2.79578e-265
1.09181e-265
4.28193e-266
1.57325e-266
4.53075e-291
1.79578e-290
6.82146e-290
2.65336e-289
1.06227e-288
4.3798e-288
1.86023e-287
8.14089e-287
3.67168e-286
1.70699e-285
8.18184e-285
4.04383e-284
2.06117e-283
1.08359e-282
5.87592e-282
3.2868e-281
1.89656e-280
1.12888e-279
6.93119e-279
4.38947e-278
2.86694e-277
1.93094e-276
1.3409e-275
9.59881e-275
7.08183e-274
5.38381e-273
4.21659e-272
3.40151e-271
2.82561e-270
2.41605e-269
2.13607e-268
2.19016e-267
2.21905e-266
2.21896e-265
2.19151e-264
2.14002e-263
2.06935e-262
1.9857e-261
1.89651e-260
1.8106e-259
1.73836e-258
1.69184e-257
1.6852e-256
1.73477e-255
1.85799e-254
2.06863e-253
2.36465e-252
2.70354e-251
2.96608e-250
2.93871e-249
2.40802e-248
1.45103e-247
5.66819e-247
1.38063e-246
2.83518e-246
1.16695e-245
1.32067e-244
2.45348e-243
1.43279e-242
2.14857e-243
1.38478e-244
1.04199e-245
1.80779e-246
9.54656e-247
5.06209e-247
1.94503e-247
5.82533e-248
1.50695e-248
3.60796e-249
8.33495e-250
2.13016e-250
5.5437e-251
1.47195e-251
3.98759e-252
1.10169e-252
3.10149e-253
8.88635e-254
2.58802e-254
7.65293e-255
2.29596e-255
6.9851e-256
2.15467e-256
6.73908e-257
2.13748e-257
6.87686e-258
2.24486e-258
7.43755e-259
2.50173e-259
8.54553e-260
2.96502e-260
1.0452e-260
3.74386e-261
1.36286e-261
5.04244e-262
1.89633e-262
7.24904e-263
2.81605e-263
1.10993e-263
4.39225e-264
1.62689e-264
4.19711e-289
1.65428e-288
6.24394e-288
2.41272e-287
9.59444e-287
3.92881e-286
1.65709e-285
7.2007e-285
3.22436e-284
1.48813e-283
7.08016e-283
3.47316e-282
1.75689e-281
9.16544e-281
4.93158e-280
2.73696e-279
1.56679e-278
9.25159e-278
5.63467e-277
3.53948e-276
2.29293e-275
1.53169e-274
1.0549e-273
7.48933e-273
5.48005e-272
4.13196e-271
3.20982e-270
2.56849e-269
2.11665e-268
1.79571e-267
1.57548e-266
1.60305e-265
1.61233e-264
1.60102e-263
1.57078e-262
1.52443e-261
1.46577e-260
1.39951e-259
1.33112e-258
1.26685e-257
1.21382e-256
1.18029e-255
1.17573e-254
1.21062e-253
1.29492e-252
1.43388e-251
1.61885e-250
1.81132e-249
1.92535e-248
1.83353e-247
1.44449e-246
8.50071e-246
3.36106e-245
8.63272e-245
1.82666e-244
6.36878e-244
5.45875e-243
7.90163e-242
3.59733e-241
6.22141e-242
4.75355e-243
4.443e-244
1.0727e-244
6.12532e-245
3.14783e-245
1.18873e-245
3.5521e-246
9.22851e-247
2.22343e-247
5.16709e-248
1.3273e-248
3.46864e-249
9.24481e-250
2.51422e-250
6.97582e-251
1.97318e-251
5.68362e-252
1.665e-252
4.95496e-253
1.49671e-253
4.58653e-254
1.42552e-254
4.49356e-255
1.43677e-255
4.66071e-256
1.53425e-256
5.12665e-257
1.73934e-257
5.99309e-258
2.09764e-258
7.45939e-259
2.69547e-259
9.89866e-260
3.69461e-260
1.40164e-260
5.40478e-261
2.11786e-261
8.41933e-262
3.35984e-262
1.25411e-262
3.06147e-287
1.19997e-286
4.50049e-286
1.72765e-285
6.82435e-285
2.77554e-284
1.1626e-283
5.01664e-283
2.23043e-282
1.022e-281
4.82698e-281
2.35038e-280
1.18005e-279
6.10959e-279
3.26223e-278
1.79653e-277
1.02043e-276
5.97818e-276
3.61223e-275
2.25102e-274
1.44659e-273
9.58562e-273
6.54857e-272
4.61163e-271
3.34714e-270
2.50341e-269
1.92914e-268
1.53145e-267
1.25217e-266
1.05414e-265
9.17903e-265
9.26946e-264
9.25565e-263
9.12705e-262
8.89573e-261
8.57967e-260
8.2018e-259
7.78931e-258
7.373e-257
6.98703e-256
6.66907e-255
6.46086e-254
6.40822e-253
6.55854e-252
6.95056e-251
7.58868e-250
8.39404e-249
9.13501e-248
9.38087e-247
8.59837e-246
6.53995e-245
3.77485e-244
1.51156e-243
4.08824e-243
9.09966e-243
2.91901e-242
2.01016e-241
2.29071e-240
8.2207e-240
1.62976e-240
1.46519e-241
1.71293e-242
5.27125e-243
3.06175e-243
1.5243e-243
5.6829e-244
1.703e-244
4.46157e-245
1.08493e-245
2.54308e-246
6.58367e-247
1.73185e-247
4.64117e-248
1.2684e-248
3.5364e-249
1.00549e-249
2.91247e-250
8.58339e-251
2.57075e-251
7.81768e-252
2.41253e-252
7.55306e-253
2.39883e-253
7.72928e-254
2.52706e-254
8.38544e-255
2.82474e-255
9.66223e-256
3.35677e-256
1.18467e-256
4.24793e-257
1.54783e-257
5.73169e-258
2.15719e-258
8.25208e-259
3.20851e-259
1.26766e-259
5.08093e-260
2.04403e-260
7.68727e-261
1.84164e-285
7.17816e-285
2.67504e-284
1.02015e-283
4.00275e-283
1.61692e-282
6.72623e-282
2.88211e-281
1.27234e-280
5.78812e-280
2.71393e-279
1.31177e-278
6.53706e-278
3.3591e-277
1.78001e-276
9.72765e-276
5.48276e-275
3.18713e-274
1.91073e-273
1.18135e-272
7.53187e-272
4.95135e-271
3.35571e-270
2.34434e-269
1.68797e-268
1.25243e-267
9.57475e-267
7.54111e-266
6.11795e-265
5.11104e-264
4.41718e-263
4.42725e-262
4.3886e-261
4.29733e-260
4.16026e-259
3.98666e-258
3.78776e-257
3.57626e-256
3.36604e-255
3.17189e-254
3.0095e-253
2.89551e-252
2.8471e-251
2.88022e-250
3.00429e-249
3.21123e-248
3.45745e-247
3.64351e-246
3.60994e-245
3.18993e-244
2.35173e-243
1.33693e-242
5.4297e-242
1.54451e-241
3.6465e-241
1.13125e-240
6.58805e-240
5.99872e-239
1.73668e-238
3.92582e-239
4.14001e-240
6.00352e-241
2.16688e-241
1.2425e-241
6.00537e-242
2.21904e-242
6.69103e-243
1.77402e-243
4.36698e-244
1.03498e-244
2.70577e-245
7.17737e-246
1.93723e-246
5.32819e-247
1.49447e-247
4.27432e-248
1.24555e-248
3.69373e-249
1.11348e-249
3.40903e-250
1.0594e-250
3.3407e-251
1.06887e-251
3.47011e-252
1.1433e-252
3.82349e-253
1.2982e-253
4.4761e-254
1.56757e-254
5.57702e-255
2.01602e-255
7.40557e-256
2.76463e-256
1.04896e-256
4.04526e-257
1.58558e-257
6.31506e-258
2.55146e-258
1.03458e-258
3.92009e-259
9.46074e-284
3.66632e-283
1.35738e-282
5.14168e-282
2.00365e-281
8.03774e-281
3.32016e-280
1.41255e-279
6.19103e-279
2.79595e-278
1.30133e-277
6.2433e-277
3.08796e-276
1.57477e-275
8.2812e-275
4.49089e-274
2.51162e-273
1.44866e-272
8.61707e-272
5.28589e-271
3.34356e-270
2.18066e-269
1.46622e-268
1.01621e-267
7.25894e-267
5.34331e-266
4.05268e-265
3.16683e-264
2.54917e-263
2.11325e-262
1.81257e-261
1.80293e-260
1.77404e-259
1.72471e-258
1.6581e-257
1.57817e-256
1.48951e-255
1.39711e-254
1.30618e-253
1.22206e-252
1.1502e-251
1.09598e-250
1.06443e-249
1.05934e-248
1.08142e-247
1.12493e-246
1.17294e-245
1.1929e-244
1.1388e-243
9.71004e-243
6.95651e-242
3.90516e-241
1.60927e-240
4.80534e-240
1.20755e-239
3.73218e-239
1.92085e-238
1.42349e-237
3.42929e-237
8.79676e-238
1.08686e-238
1.91278e-239
7.59178e-240
4.23018e-240
1.98911e-240
7.3073e-241
2.22253e-241
5.98161e-242
1.49505e-242
3.59077e-243
9.49641e-244
2.5441e-244
6.92528e-245
1.91914e-245
5.42058e-246
1.56082e-246
4.57884e-247
1.36708e-247
4.14952e-248
1.27935e-248
4.00421e-249
1.27189e-249
4.09962e-250
1.34096e-250
4.45172e-251
1.50022e-251
5.13326e-252
1.78374e-252
6.29587e-253
2.25758e-253
8.22536e-254
3.0454e-254
1.14591e-254
4.38228e-255
1.70336e-255
6.7292e-256
2.70121e-256
1.09992e-256
4.4948e-257
1.71583e-257
4.2733e-282
1.64579e-281
6.05045e-281
2.27537e-280
8.80229e-280
3.50512e-279
1.43712e-278
6.06843e-278
2.63966e-277
1.18304e-276
5.46414e-276
2.60127e-275
1.27662e-274
6.45957e-274
3.37024e-273
1.81328e-272
1.00609e-271
5.75689e-271
3.39713e-270
2.06726e-269
1.29719e-268
8.39264e-268
5.59792e-267
3.84883e-266
2.72736e-265
1.99165e-264
1.49861e-263
1.1618e-262
9.27888e-262
7.63257e-261
6.49651e-260
6.41211e-259
6.2617e-258
6.04249e-257
5.76671e-256
5.44904e-255
5.10561e-254
4.75334e-253
4.40928e-252
4.09015e-251
3.81178e-250
3.58842e-249
3.43131e-248
3.34596e-247
3.32749e-246
3.35333e-245
3.37314e-244
3.30159e-243
3.03308e-242
2.49675e-241
1.7415e-240
9.67211e-240
4.04482e-239
1.26555e-238
3.39133e-238
1.06405e-237
5.00436e-237
3.07693e-236
6.36769e-236
1.8466e-236
2.67039e-237
5.54309e-238
2.31028e-238
1.24094e-238
5.68767e-239
2.08235e-239
6.40174e-240
1.75256e-240
4.45887e-241
1.08789e-241
2.91553e-242
7.89949e-243
2.17132e-243
6.06922e-244
1.72787e-244
5.01284e-245
1.4814e-245
4.45517e-246
1.36213e-246
4.2303e-247
1.33377e-247
4.26797e-248
1.38595e-248
4.56748e-249
1.5278e-249
5.18792e-250
1.78874e-250
6.2635e-251
2.22784e-251
8.05048e-252
2.95591e-252
1.10291e-252
4.18221e-253
1.6118e-253
6.31353e-254
2.51347e-254
1.01673e-254
4.17197e-255
1.71796e-255
6.60698e-256
1.74591e-280
6.67548e-280
2.43409e-279
9.07763e-279
3.48237e-278
1.37511e-277
5.59085e-277
2.34102e-276
1.00977e-275
4.48761e-275
2.0553e-274
9.70238e-274
4.72164e-273
2.36906e-272
1.22568e-271
6.53925e-271
3.59793e-270
2.04156e-269
1.19468e-268
7.20954e-268
4.48642e-267
2.87866e-266
1.90425e-265
1.29851e-264
9.12631e-264
6.61021e-263
4.93357e-262
3.79401e-261
3.00594e-260
2.45307e-259
2.07162e-258
2.0285e-257
1.96544e-256
1.88194e-255
1.78219e-254
1.67094e-253
1.55325e-252
1.43419e-251
1.3187e-250
1.21133e-249
1.11604e-248
1.03592e-247
9.72761e-247
9.26552e-246
8.94744e-245
8.70931e-244
8.42834e-243
7.92203e-242
6.99518e-241
5.55942e-240
3.77932e-239
2.07921e-238
8.82736e-238
2.89109e-237
8.25195e-237
2.65686e-236
1.17036e-235
6.10072e-235
1.11734e-234
3.65184e-235
6.16486e-236
1.4648e-236
6.21912e-237
3.20781e-237
1.43559e-237
5.24872e-238
1.63392e-238
4.55762e-239
1.18279e-239
2.93783e-240
7.99215e-241
2.19312e-241
6.09449e-242
1.7201e-242
4.94058e-243
1.44533e-243
4.30552e-244
1.30497e-244
4.02053e-245
1.25815e-245
3.99687e-246
1.28863e-246
4.21621e-247
1.39997e-247
4.71827e-248
1.61431e-248
5.60822e-249
1.97871e-249
7.09157e-250
2.58212e-250
9.55306e-251
3.59161e-251
1.3723e-251
5.32902e-252
2.10326e-252
8.43669e-253
3.43854e-253
1.42159e-253
5.89817e-254
2.28518e-254
6.66313e-279
2.52371e-278
9.10486e-278
3.35932e-277
1.27508e-276
4.9823e-276
2.00472e-275
8.30839e-275
3.54745e-274
1.56079e-273
7.07762e-273
3.30842e-272
1.59446e-271
7.92354e-271
4.06057e-270
2.1461e-269
1.16985e-268
6.57711e-268
3.81384e-267
2.28085e-266
1.40671e-265
8.94638e-265
5.8664e-264
3.96568e-263
2.76327e-262
1.98442e-261
1.4686e-260
1.11994e-259
8.79967e-259
7.12236e-258
5.96604e-257
5.79378e-256
5.56792e-255
5.28807e-254
4.96692e-253
4.61834e-252
4.25652e-251
3.8952e-250
3.5471e-249
3.22322e-248
2.93212e-247
2.67909e-246
2.46564e-245
2.28934e-244
2.14295e-243
2.01125e-242
1.86934e-241
1.6848e-240
1.42852e-239
1.09582e-238
7.26297e-238
3.96013e-237
1.7069e-236
5.84561e-236
1.77456e-235
5.90031e-235
2.47932e-234
1.11727e-233
1.86314e-233
6.84094e-234
1.34162e-234
3.54939e-235
1.50627e-235
7.45869e-236
3.26474e-236
1.19406e-236
3.76984e-237
1.07303e-237
2.84507e-238
7.20868e-239
1.99426e-239
5.55024e-240
1.56116e-240
4.45381e-241
1.29187e-241
3.81406e-242
1.1461e-242
3.50287e-243
1.08799e-243
3.43175e-244
1.09872e-244
3.56977e-245
1.17691e-245
3.93759e-246
1.3371e-246
4.60922e-247
1.61329e-247
5.73465e-248
2.0706e-248
7.59538e-249
2.83093e-249
1.07221e-249
4.12704e-250
1.61446e-250
6.41878e-251
2.59361e-251
1.06481e-251
4.43444e-252
1.85339e-252
7.23333e-253
2.47084e-277
9.23397e-277
3.28145e-276
1.19262e-275
4.46046e-275
1.71797e-274
6.8161e-274
2.78641e-273
1.17392e-272
5.09812e-272
2.28264e-271
1.05389e-270
5.0182e-270
2.46459e-269
1.24861e-268
6.52568e-268
3.51848e-267
1.95713e-266
1.12308e-265
6.64818e-265
4.05942e-264
2.55649e-263
1.6603e-262
1.1118e-261
7.67529e-261
5.46173e-260
4.00575e-259
3.02772e-258
2.3582e-257
1.89227e-256
1.57158e-255
1.51304e-254
1.44164e-253
1.35751e-252
1.26412e-251
1.16514e-250
1.06418e-249
9.6462e-249
8.69405e-248
7.80887e-247
7.00632e-246
6.29341e-245
5.66973e-244
5.1279e-243
4.65033e-242
4.20661e-241
3.75354e-240
3.24235e-239
2.63869e-238
1.95332e-237
1.26228e-236
6.82156e-236
2.98388e-235
1.06687e-234
3.43707e-234
1.18328e-233
4.80377e-233
1.90776e-232
2.97094e-232
1.22089e-232
2.76128e-233
7.95107e-234
3.33874e-234
1.59107e-234
6.82296e-235
2.50068e-235
8.01963e-236
2.33276e-236
6.32885e-237
1.63864e-237
4.61709e-238
1.30531e-238
3.7213e-239
1.07435e-239
3.15017e-240
9.3944e-241
2.84977e-241
8.78839e-242
2.75323e-242
8.7565e-243
2.82615e-243
9.25453e-244
3.07466e-244
1.0365e-244
3.546e-245
1.23141e-245
4.34166e-246
1.55451e-246
5.6533e-247
2.0886e-247
7.84e-248
2.99043e-248
1.15916e-248
4.56636e-249
1.8282e-249
7.43863e-250
3.07518e-250
1.28959e-250
5.42782e-251
2.13345e-251
9.30118e-276
3.41066e-275
1.18622e-274
4.21962e-274
1.54544e-273
5.83244e-273
2.26885e-272
9.0997e-272
3.76373e-271
1.60572e-270
7.06738e-270
3.20964e-269
1.50425e-268
7.27604e-268
3.63256e-267
1.87195e-266
9.95734e-266
5.467e-265
3.09803e-264
1.81184e-263
1.09346e-262
6.80885e-262
4.37381e-261
2.89791e-260
1.98001e-259
1.39487e-258
1.01303e-257
7.58384e-257
5.85161e-256
4.65243e-255
3.82916e-254
3.65303e-253
3.44942e-252
3.2191e-251
2.97076e-250
2.71321e-249
2.45486e-248
2.20321e-247
1.96439e-246
1.7428e-245
1.54091e-244
1.35966e-243
1.19868e-242
1.05607e-241
9.282e-241
8.09759e-240
6.94148e-239
5.75022e-238
4.49336e-237
3.21062e-236
2.02318e-235
1.08367e-234
4.80887e-234
1.79227e-233
6.10945e-233
2.1773e-232
8.61252e-232
3.07268e-231
4.56687e-231
2.09101e-231
5.40864e-232
1.66586e-232
6.89714e-233
3.17109e-233
1.33801e-233
4.92247e-234
1.60609e-234
4.78188e-235
1.3295e-235
3.52304e-236
1.01266e-236
2.91233e-237
8.42713e-238
2.46518e-238
7.31488e-239
2.20551e-239
6.75923e-240
2.10463e-240
6.65365e-241
2.13455e-241
6.94656e-242
2.29294e-242
7.67696e-243
2.60746e-243
8.98603e-244
3.143e-244
1.11597e-244
4.02343e-245
1.47322e-245
5.47962e-246
2.07066e-246
7.95052e-247
3.10207e-247
1.23e-247
4.95642e-248
2.02971e-248
8.44499e-249
3.56428e-249
1.51005e-249
5.9758e-250
3.66798e-274
1.31285e-273
4.44047e-273
1.53578e-272
5.47145e-272
2.00989e-271
7.61566e-271
2.9775e-270
1.20151e-269
5.00554e-269
2.15333e-268
9.56725e-268
4.39077e-267
2.08169e-266
1.01962e-265
5.15964e-265
2.69742e-264
1.45682e-263
8.12732e-263
4.68299e-262
2.78653e-261
1.71194e-260
1.08568e-259
7.1055e-259
4.79806e-258
3.3421e-257
2.40091e-256
1.77855e-255
1.35838e-254
1.06937e-253
8.71689e-253
8.23604e-252
7.70387e-251
7.12268e-250
6.51229e-249
5.89215e-248
5.28003e-247
4.69086e-246
4.13588e-245
3.62247e-244
3.15494e-243
2.73461e-242
2.35998e-241
2.02685e-240
1.7286e-239
1.45668e-238
1.20181e-237
9.5645e-237
7.18812e-236
4.96431e-235
3.05371e-234
1.62218e-233
7.29971e-233
2.82804e-232
1.01518e-231
3.74067e-231
1.44959e-230
4.73313e-230
6.83749e-230
3.46974e-230
1.01781e-230
3.31409e-231
1.35251e-231
6.02798e-232
2.51254e-232
9.30463e-233
3.0953e-233
9.44926e-234
2.69645e-234
7.32417e-235
2.15066e-235
6.30113e-236
1.8531e-236
5.49993e-237