/*--------------------------------*- C++ -*----------------------------------*\
  =========                 |
  \\      /  F ield         | OpenFOAM: The Open Source CFD Toolbox
   \\    /   O peration     | Website:  https://openfoam.org
    \\  /    A nd           | Version:  9
     \\/     M anipulation  |
\*---------------------------------------------------------------------------*/
FoamFile
{
    format      ascii;
    class       volScalarField;
    location    "0.05";
    object      p;
}
// * * * * * * * * * * * * * * * * * * * * * * * * * * * * * * * * * * * * * //

dimensions      [1 -1 -2 0 0 0 0];

internalField   nonuniform List<scalar> 
20000
(
0.998533
0.998487
0.99846
0.998441
0.998425
0.998409
0.998395
0.998379
0.99836
0.998339
0.998314
0.998283
0.998246
0.998201
0.998146
0.998081
0.998003
0.997909
0.997798
0.997666
0.997509
0.997323
0.997104
0.996846
0.996542
0.996184
0.995762
0.995265
0.994679
0.993988
0.993102
0.991999
0.990752
0.989349
0.987772
0.985999
0.984006
0.981763
0.979234
0.976374
0.973128
0.969432
0.965244
0.960597
0.955661
0.950685
0.945696
0.939909
0.930009
0.902301
0.836367
0.90652
0.584842
0.883458
0.905825
0.840738
0.748845
0.428618
0.87302
0.435385
0.792243
0.875034
0.947003
0.960689
0.920932
0.907014
0.931583
0.953368
0.966974
0.975814
0.981432
0.98516
0.987981
0.990203
0.991994
0.993447
0.994627
0.995582
0.996352
0.99697
0.997464
0.997856
0.998164
0.998404
0.998588
0.998727
0.998828
0.998898
0.998944
0.99897
0.99898
0.998977
0.998962
0.998938
0.998907
0.998868
0.998821
0.998767
0.998702
0.998622
0.996557
0.99649
0.99645
0.996421
0.996397
0.996378
0.996363
0.99635
0.996338
0.996326
0.996312
0.996295
0.996275
0.99625
0.996218
0.996178
0.996129
0.996068
0.995993
0.995901
0.995791
0.995656
0.995495
0.9953
0.995067
0.994787
0.994454
0.994055
0.993582
0.993019
0.992296
0.991387
0.990352
0.989179
0.987855
0.986363
0.984685
0.982799
0.980681
0.978299
0.975624
0.97263
0.969315
0.965726
0.961948
0.958008
0.953587
0.947552
0.93679
0.914346
0.898197
0.887184
0.777365
0.896192
0.896419
0.841826
0.75572
0.550209
0.820939
0.577779
0.79773
0.875026
0.926683
0.94508
0.934272
0.934249
0.948964
0.962013
0.971791
0.979142
0.984071
0.987417
0.989939
0.991887
0.993411
0.994608
0.995544
0.996272
0.99683
0.997253
0.997566
0.99779
0.997942
0.998036
0.998084
0.998094
0.998075
0.998033
0.997972
0.997897
0.99781
0.997713
0.99761
0.997499
0.997383
0.997261
0.997132
0.996997
0.996851
0.996695
0.994627
0.9946
0.994583
0.99457
0.99456
0.994553
0.994549
0.994548
0.994548
0.99455
0.994551
0.994552
0.994552
0.994548
0.994541
0.994528
0.994508
0.99448
0.994442
0.99439
0.994324
0.994239
0.994132
0.993998
0.993831
0.993625
0.993374
0.993069
0.9927
0.992258
0.991682
0.990946
0.990101
0.989138
0.988046
0.986813
0.985428
0.983877
0.982143
0.980213
0.978072
0.975717
0.973164
0.970458
0.967664
0.964794
0.96165
0.95779
0.952536
0.943061
0.948051
0.929085
0.880147
0.947754
0.925717
0.874809
0.820839
0.670076
0.832446
0.68917
0.832711
0.901474
0.940898
0.955582
0.949403
0.949953
0.959335
0.968498
0.976
0.981915
0.986012
0.988847
0.990985
0.992617
0.993867
0.994821
0.995541
0.996073
0.996455
0.996719
0.996886
0.996977
0.997007
0.996988
0.996931
0.996846
0.996738
0.996613
0.996476
0.996329
0.996175
0.996017
0.995855
0.995692
0.995528
0.995363
0.9952
0.995038
0.994878
0.994722
0.992682
0.992683
0.992687
0.992694
0.992703
0.992714
0.992728
0.992744
0.992762
0.992782
0.992803
0.992825
0.992847
0.992868
0.992887
0.992904
0.992915
0.992922
0.992921
0.992912
0.992892
0.992858
0.992807
0.992734
0.992635
0.992505
0.992339
0.992128
0.991866
0.991543
0.991115
0.990556
0.989904
0.989154
0.988298
0.987331
0.986246
0.985037
0.983699
0.982228
0.980627
0.978909
0.977108
0.975289
0.973545
0.971977
0.970647
0.969742
0.969944
0.969084
0.979356
0.968478
0.945894
0.988568
0.963976
0.922525
0.887594
0.787856
0.874811
0.793299
0.884484
0.933922
0.961372
0.969632
0.963827
0.963484
0.969141
0.97541
0.980927
0.985384
0.988532
0.990733
0.992386
0.99363
0.994556
0.995232
0.995708
0.996026
0.996217
0.996308
0.99632
0.996269
0.996169
0.996031
0.995865
0.995678
0.995477
0.995266
0.995049
0.994829
0.994606
0.994385
0.994165
0.993948
0.993736
0.99353
0.99333
0.993137
0.99295
0.992771
0.990733
0.990758
0.990782
0.990808
0.990837
0.990869
0.990903
0.99094
0.99098
0.991023
0.991068
0.991114
0.991163
0.991212
0.991261
0.99131
0.991357
0.991401
0.991443
0.991479
0.991509
0.99153
0.991539
0.991533
0.991507
0.991458
0.991381
0.991271
0.991122
0.990926
0.990652
0.990279
0.989831
0.989305
0.988698
0.98801
0.987239
0.986386
0.985456
0.984457
0.983406
0.982332
0.981289
0.980364
0.979685
0.979425
0.979795
0.981153
0.984397
0.987844
0.998846
0.997064
0.987237
1.01201
0.994298
0.966394
0.950582
0.894191
0.938255
0.888629
0.940526
0.965252
0.981061
0.983172
0.977911
0.976731
0.9793
0.982861
0.986394
0.989393
0.99156
0.993075
0.994191
0.994998
0.99556
0.995924
0.99613
0.996209
0.996189
0.996091
0.995932
0.995725
0.995482
0.995214
0.994927
0.99463
0.994327
0.994022
0.993717
0.993415
0.993117
0.992825
0.992541
0.992266
0.992
0.991744
0.991499
0.991265
0.991041
0.990826
0.988783
0.988828
0.988871
0.988917
0.988967
0.989019
0.989075
0.989135
0.989198
0.989265
0.989335
0.989409
0.989486
0.989566
0.989647
0.989731
0.989815
0.9899
0.989986
0.99007
0.990153
0.990231
0.990303
0.990366
0.990416
0.990451
0.990467
0.990461
0.990428
0.990362
0.990248
0.990066
0.989826
0.989529
0.989176
0.98877
0.988316
0.987823
0.987303
0.986774
0.986266
0.985822
0.985512
0.985443
0.985758
0.986663
0.988414
0.99136
0.996306
1.0022
1.01321
1.01657
1.01321
1.02749
1.01855
1.00395
1.00788
0.984889
1.00627
0.972681
0.995601
0.995089
0.999758
0.996507
0.990955
0.988898
0.989131
0.990439
0.992131
0.993715
0.994893
0.995699
0.996252
0.996597
0.996771
0.996803
0.99672
0.996547
0.996304
0.996006
0.995666
0.995294
0.994901
0.994494
0.994081
0.993667
0.993256
0.992851
0.992453
0.992064
0.991686
0.991319
0.990966
0.990627
0.990302
0.989991
0.989695
0.989412
0.989143
0.988885
0.986832
0.986898
0.986959
0.987024
0.987094
0.987168
0.987246
0.987329
0.987417
0.987509
0.987607
0.987709
0.987816
0.987927
0.988042
0.988162
0.988285
0.988412
0.988543
0.988677
0.988813
0.988951
0.989087
0.989219
0.989346
0.989466
0.989576
0.989674
0.989758
0.989823
0.989868
0.989877
0.989845
0.989776
0.989675
0.989549
0.98941
0.98927
0.989151
0.98908
0.989095
0.989251
0.989631
0.990351
0.991562
0.993479
0.996376
1.00057
1.00672
1.01409
1.02459
1.02996
1.03031
1.04004
1.0394
1.03599
1.05735
1.05749
1.06826
1.04305
1.04568
1.02311
1.01768
1.00945
1.00311
0.999713
0.998174
0.997736
0.997851
0.998131
0.998351
0.998453
0.998436
0.998311
0.998088
0.99778
0.997403
0.996973
0.996501
0.995998
0.995473
0.994933
0.994386
0.993838
0.993296
0.992763
0.992241
0.991732
0.991237
0.990759
0.990297
0.989853
0.989427
0.98902
0.988631
0.988261
0.987908
0.987573
0.987253
0.986947
0.984881
0.984966
0.985046
0.985131
0.985222
0.985317
0.985418
0.985525
0.985638
0.985757
0.985882
0.986013
0.986151
0.986295
0.986446
0.986602
0.986765
0.986935
0.987112
0.987297
0.987488
0.987685
0.987886
0.98809
0.988294
0.988499
0.988704
0.988907
0.989107
0.989302
0.989505
0.989702
0.989876
0.990032
0.99018
0.99033
0.990497
0.990702
0.990971
0.991339
0.991851
0.992571
0.99359
0.995027
0.997034
0.999828
1.00367
1.00885
1.01579
1.02386
1.03362
1.03976
1.04236
1.05032
1.05646
1.06172
1.0963
1.11123
1.11829
1.09851
1.0875
1.04747
1.03392
1.02156
1.0142
1.00942
1.00645
1.0046
1.00338
1.0025
1.00183
1.00125
1.00068
1.00009
0.999469
0.998821
0.998151
0.997462
0.996761
0.996052
0.99534
0.994631
0.993929
0.99324
0.992567
0.991912
0.991276
0.990662
0.990068
0.989497
0.988949
0.988423
0.987922
0.987443
0.986987
0.986552
0.986139
0.985745
0.985369
0.985011
0.98293
0.983035
0.983134
0.983239
0.98335
0.983468
0.983592
0.983723
0.983862
0.984008
0.984162
0.984323
0.984493
0.984671
0.984857
0.985052
0.985256
0.98547
0.985695
0.985931
0.986179
0.986436
0.986703
0.986978
0.987261
0.987552
0.987851
0.988159
0.988475
0.9888
0.98916
0.989543
0.98992
0.990298
0.99069
0.991109
0.991574
0.992111
0.992752
0.993537
0.994515
0.995759
0.997364
0.999444
1.00215
1.00569
1.01028
1.01615
1.02352
1.03182
1.04094
1.04746
1.05135
1.05835
1.06922
1.08078
1.12394
1.14706
1.15375
1.13884
1.11907
1.06696
1.04779
1.03264
1.02392
1.01819
1.01406
1.01101
1.00863
1.00673
1.00524
1.00403
1.00293
1.00189
1.00088
0.999902
0.998942
0.997998
0.997068
0.996154
0.995257
0.994379
0.993523
0.992692
0.991887
0.991109
0.990358
0.989636
0.988941
0.988275
0.987638
0.987029
0.986447
0.985893
0.985366
0.984863
0.984384
0.983928
0.983492
0.983077
0.980979
0.981104
0.981222
0.981347
0.98148
0.98162
0.981768
0.981924
0.982088
0.982262
0.982446
0.982638
0.982841
0.983054
0.983277
0.983511
0.983757
0.984017
0.98429
0.984579
0.984883
0.985201
0.985535
0.985882
0.986244
0.986622
0.987016
0.987428
0.98786
0.988312
0.988827
0.989394
0.98997
0.990566
0.991195
0.991875
0.992627
0.993481
0.994475
0.99565
0.997061
0.998785
1.00092
1.00357
1.00687
1.01102
1.01618
1.02251
1.0301
1.03843
1.04706
1.05371
1.05837
1.06475
1.07838
1.09446
1.1416
1.16771
1.17501
1.16503
1.1403
1.08165
1.05915
1.04213
1.03261
1.02607
1.02097
1.0169
1.01355
1.01074
1.00852
1.00673
1.00513
1.00366
1.00229
1.00099
0.999746
0.998553
0.9974
0.996285
0.995205
0.994161
0.993152
0.99218
0.991244
0.990343
0.989477
0.988646
0.98785
0.987087
0.986359
0.985663
0.985
0.984368
0.983765
0.983191
0.982643
0.98212
0.98162
0.981144
0.979028
0.979174
0.979311
0.979456
0.97961
0.979773
0.979945
0.980126
0.980318
0.98052
0.980733
0.980958
0.981194
0.981442
0.981703
0.981977
0.982266
0.982571
0.982894
0.983236
0.983597
0.983978
0.984378
0.984798
0.985239
0.985703
0.986192
0.986707
0.987253
0.987832
0.988498
0.989245
0.990015
0.990821
0.99168
0.992609
0.993635
0.994789
0.996113
0.997649
0.999455
1.00161
1.00421
1.00735
1.01116
1.0158
1.0214
1.02804
1.03574
1.044
1.05223
1.05888
1.06403
1.0702
1.08546
1.10394
1.15156
1.17703
1.18478
1.17915
1.15251
1.09226
1.06829
1.05013
1.04021
1.03302
1.02713
1.02225
1.01807
1.01448
1.01161
1.0093
1.00724
1.00537
1.00365
1.00205
1.00053
0.9991
0.997732
0.996422
0.995165
0.993959
0.992801
0.991691
0.990626
0.989604
0.988624
0.987685
0.986786
0.985926
0.985106
0.984322
0.983575
0.982862
0.982182
0.981532
0.980912
0.98032
0.979753
0.979213
0.977077
0.977243
0.9774
0.977566
0.977742
0.977928
0.978124
0.978331
0.978549
0.97878
0.979024
0.979281
0.979551
0.979835
0.980134
0.980449
0.980781
0.981133
0.981506
0.981901
0.98232
0.982763
0.98323
0.983722
0.984242
0.984792
0.985374
0.985991
0.986649
0.987351
0.988165
0.989086
0.990043
0.991052
0.99213
0.993297
0.99458
0.996017
0.997647
0.999513
1.00168
1.00422
1.00722
1.01078
1.01501
1.02004
1.02596
1.03282
1.04056
1.04869
1.0566
1.06319
1.06866
1.07488
1.0906
1.11059
1.15623
1.17897
1.18651
1.18383
1.15761
1.09958
1.07527
1.05701
1.04673
1.03904
1.03254
1.027
1.02215
1.01791
1.01446
1.01168
1.00921
1.00698
1.00494
1.00305
1.00128
0.999618
0.998043
0.996546
0.995119
0.993758
0.992456
0.991212
0.990021
0.98888
0.987788
0.986742
0.985742
0.984786
0.983873
0.983001
0.982168
0.981373
0.980613
0.979886
0.979191
0.978526
0.977889
0.977283
0.975126
0.975313
0.97549
0.975677
0.975875
0.976084
0.976304
0.976537
0.976783
0.977043
0.977318
0.977607
0.977912
0.978232
0.97857
0.978926
0.979302
0.9797
0.980123
0.980572
0.981049
0.981554
0.982088
0.982652
0.98325
0.983884
0.984558
0.985276
0.986042
0.986864
0.987822
0.98891
0.990047
0.991249
0.992535
0.993925
0.99545
0.997147
0.999059
1.00123
1.00371
1.00658
1.00993
1.01384
1.01842
1.02375
1.02992
1.03692
1.04464
1.05263
1.0603
1.0668
1.07244
1.0788
1.09455
1.11495
1.15752
1.17671
1.18323
1.18177
1.15758
1.1044
1.08064
1.06257
1.05216
1.04416
1.03722
1.03118
1.02578
1.02099
1.01705
1.01386
1.01102
1.00846
1.00612
1.00397
1.00196
1.00009
0.998316
0.996642
0.995054
0.993543
0.992104
0.990731
0.989418
0.988163
0.986961
0.985812
0.984712
0.98366
0.982655
0.981694
0.980775
0.979896
0.979055
0.978249
0.977478
0.976738
0.976029
0.975354
0.973175
0.973383
0.97358
0.973788
0.974008
0.974241
0.974486
0.974745
0.975019
0.975309
0.975614
0.975936
0.976275
0.976633
0.977009
0.977407
0.977827
0.978272
0.978745
0.979248
0.979782
0.980349
0.980949
0.981585
0.98226
0.982977
0.983741
0.984556
0.985428
0.986366
0.987461
0.98871
0.990018
0.991404
0.992884
0.994482
0.996229
0.998167
1.00033
1.00277
1.00554
1.00871
1.01235
1.01654
1.02139
1.02696
1.03329
1.04037
1.04804
1.05591
1.06338
1.06982
1.07553
1.08196
1.09732
1.11759
1.15715
1.17253
1.17717
1.17543
1.15415
1.10738
1.08425
1.06696
1.0566
1.04841
1.04119
1.03477
1.02895
1.0237
1.01936
1.01581
1.01265
1.00979
1.00719
1.00479
1.00257
1.00049
0.998537
0.996697
0.994956
0.993304
0.991733
0.990236
0.988807
0.987441
0.986134
0.984883
0.983686
0.982541
0.981444
0.980395
0.97939
0.978427
0.977504
0.976619
0.975769
0.974954
0.97417
0.973426
0.971224
0.971453
0.971671
0.9719
0.972143
0.972399
0.97267
0.972955
0.973257
0.973576
0.973912
0.974268
0.974642
0.975036
0.975452
0.975891
0.976355
0.976847
0.97737
0.977927
0.978518
0.979146
0.979811
0.980518
0.981269
0.982067
0.982918
0.983827
0.984802
0.98585
0.987076
0.988478
0.989949
0.991506
0.993169
0.994959
0.99691
0.999063
1.00146
1.00413
1.00715
1.01057
1.01445
1.01888
1.02394
1.02967
1.03611
1.04323
1.05084
1.05859
1.06592
1.07231
1.07806
1.0845
1.09926
1.11981
1.15514
1.16752
1.16972
1.16681
1.14849
1.10856
1.08676
1.07033
1.06012
1.05188
1.04449
1.0378
1.03166
1.02605
1.02137
1.01751
1.01407
1.01096
1.00812
1.0055
1.00308
1.00081
0.998694
0.996699
0.994814
0.993029
0.991334
0.989719
0.988179
0.986706
0.985297
0.983949
0.982657
0.98142
0.980235
0.979098
0.978008
0.976962
0.975957
0.974991
0.974064
0.973172
0.972313
0.971498
0.969273
0.969523
0.969762
0.970012
0.970279
0.970559
0.970854
0.971167
0.971496
0.971845
0.972213
0.972601
0.973011
0.973442
0.973897
0.974377
0.974886
0.975425
0.975998
0.976607
0.977254
0.977942
0.978672
0.979448
0.980272
0.98115
0.982086
0.983086
0.984158
0.985312
0.986663
0.988208
0.989831
0.99155
0.993382
0.995348
0.997483
0.999828
1.00242
1.0053
1.00853
1.01216
1.01625
1.02086
1.02607
1.03192
1.03842
1.04553
1.05307
1.06071
1.06795
1.07433
1.08012
1.08661
1.10064
1.12089
1.15285
1.16209
1.16166
1.15739
1.1418
1.10855
1.08814
1.07272
1.06281
1.05462
1.04716
1.0403
1.03392
1.02804
1.02307
1.01897
1.0153
1.01196
1.00891
1.00609
1.00349
1.00106
0.998779
0.996639
0.994621
0.992711
0.990897
0.989171
0.987523
0.985949
0.984443
0.983
0.981617
0.980291
0.979018
0.977797
0.976623
0.975494
0.974409
0.973364
0.972358
0.971389
0.970456
0.96957
0.967321
0.967594
0.967853
0.968126
0.968415
0.968719
0.96904
0.969379
0.969737
0.970115
0.970515
0.970936
0.971381
0.97185
0.972344
0.972865
0.973417
0.974003
0.974625
0.975287
0.97599
0.976737
0.97753
0.978372
0.979269
0.980223
0.981241
0.982328
0.983493
0.984748
0.986215
0.987894
0.989659
0.991527
0.993515
0.995643
0.997945
1.00046
1.00322
1.00628
1.00969
1.01349
1.01773
1.02248
1.0278
1.03371
1.04023
1.04731
1.05477
1.06231
1.06949
1.07591
1.08179
1.0884
1.1018
1.12136
1.15003
1.15611
1.15345
1.14806
1.1353
1.10738
1.0885
1.07424
1.06475
1.0567
1.04925
1.04229
1.03575
1.02967
1.02449
1.02019
1.01631
1.01278
1.00955
1.00656
1.00379
1.00121
0.998787
0.996514
0.99437
0.992342
0.990416
0.988583
0.986834
0.985162
0.983562
0.982028
0.980557
0.979145
0.977788
0.976484
0.975228
0.974019
0.972854
0.971731
0.970648
0.969604
0.968597
0.967642
0.96537
0.965664
0.965945
0.96624
0.966552
0.966881
0.967228
0.967593
0.967979
0.968387
0.968818
0.969272
0.969752
0.970258
0.970791
0.971354
0.97195
0.972581
0.973252
0.973965
0.974722
0.975527
0.976381
0.977289
0.978255
0.979283
0.980379
0.981549
0.982803
0.984151
0.985728
0.987532
0.989426
0.991431
0.993561
0.995837
0.99829
1.00095
1.00387
1.00707
1.01062
1.01455
1.01892
1.02376
1.02914
1.03508
1.04159
1.0486
1.05597
1.06342
1.07057
1.07706
1.0831
1.08992
1.1028
1.12135
1.14643
1.14942
1.14533
1.13918
1.12913
1.1055
1.0882
1.07507
1.06604
1.05819
1.0508
1.04382
1.03718
1.03096
1.02562
1.02116
1.01712
1.01343
1.01004
1.0069
1.00399
1.00127
0.998716
0.996319
0.994059
0.991919
0.989887
0.987952
0.986105
0.984339
0.982648
0.981027
0.979471
0.977975
0.976537
0.975152
0.973817
0.97253
0.971288
0.970089
0.968931
0.967814
0.966735
0.965712
0.963418
0.963734
0.964037
0.964354
0.96469
0.965043
0.965415
0.965808
0.966222
0.966659
0.967121
0.967609
0.968124
0.968667
0.969239
0.969843
0.970481
0.971158
0.971876
0.97264
0.97345
0.974311
0.975225
0.976196
0.977228
0.978327
0.979496
0.980745
0.982082
0.983519
0.985198
0.987116
0.989129
0.991257
0.993515
0.995922
0.99851
1.00131
1.00435
1.00767
1.01133
1.01536
1.01981
1.02472
1.03012
1.03605
1.0425
1.04942
1.05669
1.06404
1.07116
1.07776
1.084
1.09107
1.10344
1.12061
1.14227
1.14177
1.13743
1.13096
1.12331
1.10327
1.08751
1.07539
1.06679
1.05916
1.05187
1.04491
1.03823
1.03192
1.02647
1.02189
1.01773
1.01391
1.01039
1.00712
1.00408
1.00123
0.998566
0.996056
0.993686
0.99144
0.989307
0.987273
0.985332
0.983475
0.981696
0.97999
0.978352
0.976776
0.975258
0.973795
0.972384
0.971021
0.969704
0.968432
0.967203
0.966016
0.964868
0.963781
0.961466
0.961804
0.962129
0.962469
0.962829
0.963206
0.963604
0.964023
0.964465
0.964932
0.965425
0.965946
0.966496
0.967075
0.967686
0.96833
0.969011
0.969732
0.970498
0.97131
0.972172
0.973087
0.974058
0.97509
0.976186
0.977351
0.978591
0.979913
0.981328
0.982848
0.984622
0.986646
0.988766
0.991003
0.993373
0.995896
0.9986
1.00151
1.00466
1.00808
1.01183
1.01593
1.02043
1.02536
1.03075
1.03664
1.043
1.0498
1.05694
1.06418
1.07126
1.07796
1.08442
1.09169
1.10342
1.1187
1.13568
1.13522
1.13001
1.12387
1.11753
1.10082
1.08654
1.0753
1.06708
1.05967
1.05251
1.0456
1.03893
1.03258
1.02706
1.0224
1.01815
1.01423
1.01059
1.00722
1.00406
1.00111
0.998339
0.995725
0.993252
0.990906
0.988674
0.986546
0.984513
0.982568
0.980703
0.978914
0.977195
0.97554
0.973945
0.972407
0.970921
0.969486
0.968098
0.966757
0.96546
0.964207
0.962996
0.961848
0.959513
0.959875
0.960221
0.960584
0.960968
0.96137
0.961793
0.962239
0.962709
0.963205
0.963729
0.964283
0.964867
0.965482
0.966131
0.966815
0.967538
0.968303
0.969114
0.969974
0.970886
0.971853
0.972879
0.973968
0.975125
0.976354
0.977659
0.97905
0.980537
0.982133
0.983995
0.986116
0.988334
0.990669
0.993137
0.995759
0.998562
1.00157
1.00481
1.00831
1.01211
1.01626
1.02078
1.0257
1.03106
1.03686
1.04311
1.04977
1.05674
1.06385
1.07086
1.07762
1.08423
1.09159
1.1025
1.11572
1.12883
1.12791
1.12284
1.11733
1.1123
1.09831
1.08535
1.07485
1.06697
1.05977
1.05275
1.04592
1.0393
1.03296
1.02741
1.02271
1.01838
1.01439
1.01067
1.0072
1.00396
1.00091
0.998039
0.995328
0.992759
0.990317
0.987991
0.985771
0.983648
0.981615
0.979667
0.977795
0.975996
0.974264
0.972594
0.970982
0.969425
0.96792
0.966465
0.965058
0.963699
0.962385
0.961116
0.959913
0.95756
0.957945
0.958313
0.9587
0.959107
0.959534
0.959983
0.960455
0.960953
0.961479
0.962033
0.962619
0.963237
0.963889
0.964575
0.965298
0.966062
0.966869
0.967724
0.96863
0.96959
0.970607
0.971685
0.972829
0.974043
0.975331
0.976699
0.978153
0.979706
0.981372
0.983314
0.985525
0.987833
0.990255
0.992808
0.995514
0.998399
1.00149
1.0048
1.00836
1.0122
1.01637
1.02089
1.02577
1.03106
1.03676
1.04287
1.04934
1.05611
1.06304
1.06994
1.07668
1.08334
1.09062
1.10052
1.11161
1.12151
1.12028
1.11594
1.11131
1.1075
1.09574
1.08396
1.0741
1.0665
1.0595
1.05262
1.04591
1.03937
1.03308
1.02754
1.02281
1.01845
1.0144
1.01062
1.00708
1.00376
1.00063
0.99767
0.994869
0.992208
0.989675
0.987257
0.984947
0.982736
0.980617
0.978585
0.976632
0.974754
0.972945
0.9712
0.969517
0.967891
0.96632
0.964801
0.963334
0.961917
0.960549
0.959227
0.957976
0.955607
0.956014
0.956406
0.956816
0.957247
0.957699
0.958174
0.958672
0.959198
0.959752
0.960337
0.960955
0.961606
0.962293
0.963016
0.963778
0.964581
0.96543
0.966327
0.967278
0.968283
0.969348
0.970475
0.97167
0.972938
0.974282
0.975707
0.97722
0.978833
0.980562
0.982577
0.98487
0.987259
0.98976
0.992389
0.995166
0.998118
1.00127
1.00463
1.00823
1.0121
1.01627
1.02076
1.02559
1.03079
1.03636
1.04229
1.04856
1.0551
1.0618
1.06852
1.07514
1.08171
1.08871
1.09745
1.10647
1.11378
1.11269
1.10933
1.10568
1.10288
1.093
1.08231
1.07304
1.06569
1.05887
1.05217
1.04559
1.03917
1.03295
1.02745
1.02273
1.01836
1.01428
1.01045
1.00686
1.00347
1.00027
0.997233
0.994349
0.991602
0.988981
0.986474
0.984076
0.981778
0.979574
0.977458
0.975425
0.973467
0.971582
0.969764
0.96801
0.966318
0.964684
0.963107
0.961584
0.960115
0.958697
0.95733
0.956035
0.953654
0.954084
0.954499
0.954932
0.955388
0.955865
0.956365
0.95689
0.957443
0.958026
0.958641
0.95929
0.959974
0.960695
0.961454
0.962253
0.963095
0.963983
0.964922
0.965914
0.966964
0.968073
0.969247
0.970489
0.971807
0.973203
0.974681
0.976248
0.977917
0.979702
0.981783
0.984149
0.986611
0.989183
0.991879
0.994717
0.997724
1.00092
1.00432
1.00795
1.01182
1.01598
1.02042
1.02518
1.03026
1.03568
1.04142
1.04745
1.05372
1.06015
1.06662
1.07301
1.07934
1.08588
1.0934
1.10057
1.10594
1.10526
1.10296
1.10026
1.09822
1.08992
1.08033
1.07165
1.06455
1.05792
1.0514
1.04499
1.03871
1.03261
1.02717
1.02249
1.01813
1.01403
1.01018
1.00654
1.0031
0.999837
0.996732
0.993771
0.990942
0.988236
0.985644
0.98316
0.980776
0.978488
0.976289
0.974173
0.972137
0.970176
0.968286
0.966464
0.964708
0.963014
0.961382
0.959809
0.958292
0.956832
0.955424
0.954092
0.9517
0.952154
0.952591
0.953049
0.953529
0.954031
0.954557
0.955108
0.955688
0.956299
0.956943
0.957623
0.958339
0.959094
0.959888
0.960723
0.961602
0.962528
0.963506
0.964539
0.96563
0.966781
0.967998
0.969285
0.970648
0.972091
0.973619
0.975236
0.976956
0.978793
0.980931
0.983362
0.985888
0.988523
0.991278
0.99417
0.997221
1.00045
1.00388
1.00751
1.01138
1.01551
1.01989
1.02456
1.02951
1.03476
1.04028
1.04606
1.05204
1.05815
1.0643
1.07037
1.07633
1.08227
1.08859
1.09423
1.09824
1.09811
1.0968
1.0949
1.09334
1.0864
1.07792
1.06988
1.06307
1.05665
1.05034
1.04414
1.03804
1.03207
1.02673
1.0221
1.01776
1.01367
1.00981
1.00614
1.00266
0.999338
0.996168
0.993135
0.990229
0.987442
0.984767
0.982199
0.979731
0.977359
0.975077
0.972881
0.970767
0.968731
0.96677
0.964882
0.963065
0.961315
0.959631
0.958011
0.956453
0.954954
0.953511
0.952147
0.949746
0.950223
0.950684
0.951166
0.951671
0.952197
0.952748
0.953326
0.953933
0.954571
0.955244
0.955954
0.956702
0.957489
0.958317
0.959187
0.960101
0.961064
0.962079
0.96315
0.964279
0.965471
0.966727
0.968055
0.969459
0.970946
0.972519
0.974183
0.97595
0.977833
0.980024
0.982511
0.985093
0.987783
0.99059
0.993527
0.996614
0.999871
1.00331
1.00695
1.0108
1.01487
1.01919
1.02375
1.02857
1.03363
1.03893
1.04444
1.0501
1.05586
1.06163
1.06731
1.07281
1.07808
1.08332
1.08775
1.0909
1.0913
1.09081
1.0895
1.08819
1.0824
1.07504
1.06772
1.06125
1.0551
1.04904
1.04306
1.03716
1.03136
1.02613
1.02157
1.01728
1.01321
1.00934
1.00566
1.00214
0.99877
0.995541
0.99244
0.989461
0.986597
0.983843
0.981193
0.978643
0.976189
0.973826
0.97155
0.96936
0.967251
0.965222
0.963271
0.961395
0.959593
0.957861
0.956198
0.954601
0.953067
0.951594
0.9502
0.947791
0.948292
0.948777
0.949282
0.949812
0.950363
0.95094
0.951543
0.952177
0.952842
0.953544
0.954282
0.955061
0.955879
0.956739
0.957643
0.958591
0.959589
0.960639
0.961745
0.962911
0.96414
0.965433
0.966798
0.968239
0.969765
0.971378
0.973086
0.974896
0.976824
0.979062
0.9816
0.984231
0.986966
0.989817
0.992793
0.995909
0.999183
1.00263
1.00625
1.01008
1.0141
1.01834
1.02279
1.02746
1.03233
1.0374
1.04262
1.04796
1.05335
1.05872
1.06396
1.06894
1.07356
1.07787
1.08141
1.08404
1.08489
1.08499
1.08407
1.08283
1.078
1.07171
1.06516
1.05912
1.05328
1.04752
1.0418
1.03613
1.03051
1.02541
1.02094
1.0167
1.01266
1.0088
1.0051
1.00155
0.998136
0.994851
0.991687
0.988639
0.985701
0.98287
0.980141
0.977512
0.974978
0.972536
0.970185
0.967921
0.965743
0.963649
0.961638
0.959708
0.957855
0.956079
0.954376
0.952743
0.951177
0.949674
0.948252
0.945835
0.94636
0.946868
0.947398
0.947952
0.948528
0.94913
0.94976
0.950419
0.951112
0.95184
0.952607
0.953415
0.954264
0.955155
0.95609
0.957071
0.958102
0.959185
0.960324
0.961524
0.962787
0.964114
0.965512
0.966988
0.968548
0.970197
0.971944
0.973795
0.975764
0.978047
0.980631
0.983305
0.98608
0.988967
0.991973
0.995113
0.998399
1.00184
1.00545
1.00924
1.01321
1.01736
1.02169
1.02621
1.03089
1.03572
1.04067
1.04568
1.0507
1.05566
1.06045
1.06492
1.06894
1.07251
1.07542
1.07775
1.07893
1.07939
1.07866
1.07739
1.07334
1.06802
1.06227
1.05673
1.05126
1.04582
1.04039
1.03496
1.02955
1.02459
1.02021
1.01604
1.01203
1.00818
1.00447
1.00089
0.997436
0.994099
0.990875
0.987761
0.984752
0.981847
0.979043
0.976337
0.973728
0.971212
0.968788
0.966456
0.964214
0.96206
0.959993
0.958012
0.956113
0.954295
0.952553
0.950885
0.949287
0.947755
0.946305
0.943879
0.944427
0.944959
0.945512
0.94609
0.946692
0.947319
0.947974
0.94866
0.949379
0.950134
0.950928
0.951764
0.952642
0.953563
0.954528
0.95554
0.956601
0.957714
0.958885
0.960116
0.96141
0.962769
0.964198
0.965703
0.967294
0.968976
0.970757
0.972645
0.974653
0.976978
0.979606
0.982318
0.985128
0.988046
0.991078
0.994235
0.997527
1.00097
1.00455
1.0083
1.01221
1.01627
1.02049
1.02486
1.02935
1.03395
1.03863
1.04333
1.04799
1.05256
1.05691
1.06091
1.06441
1.06743
1.06992
1.07207
1.07344
1.07406
1.07336
1.07211
1.06862
1.06415
1.05916
1.05416
1.04911
1.04401
1.03888
1.03371
1.02849
1.02369
1.01941
1.0153
1.01133
1.00749
1.00377
1.00017
0.996673
0.993287
0.990005
0.986826
0.98375
0.980775
0.977899
0.975121
0.97244
0.969856
0.967366
0.964972
0.962671
0.960463
0.958346
0.956318
0.954376
0.952517
0.950738
0.949035
0.947403
0.945839
0.944359
0.941921
0.942493
0.943048
0.943625
0.944228
0.944854
0.945506
0.946187
0.946898
0.947643
0.948424
0.949245
0.950107
0.951012
0.951961
0.952955
0.953996
0.955085
0.956227
0.957426
0.958686
0.960008
0.961396
0.962853
0.964386
0.966004
0.967714
0.969526
0.971448
0.973492
0.975857
0.978525
0.981275
0.984116
0.987061
0.990113
0.993283
0.996579
1.00001
1.00357
1.00728
1.01112
1.0151
1.0192
1.02342
1.02774
1.03212
1.03654
1.04095
1.04529
1.04949
1.05345
1.05703
1.06012
1.06275
1.06497
1.067
1.06845
1.0691
1.06843
1.06703
1.06404
1.06026
1.05598
1.05151
1.04689
1.04215
1.03732
1.03239
1.02739
1.02273
1.01855
1.01451
1.01057
1.00674
1.00301
0.999384
0.995852
0.992416
0.989078
0.985839
0.982697
0.979654
0.976711
0.973866
0.97112
0.968473
0.965925
0.963475
0.961123
0.958867
0.956704
0.954634
0.952652
0.950754
0.948937
0.947197
0.945529
0.94393
0.942415
0.939964
0.940559
0.941136
0.941737
0.942363
0.943014
0.943691
0.944396
0.945133
0.945903
0.946709
0.947555
0.948443
0.949374
0.95035
0.95137
0.952438
0.953553
0.954721
0.955946
0.957231
0.958579
0.959993
0.961477
0.963036
0.964678
0.966414
0.968253
0.970205
0.972281
0.974684
0.977391
0.980176
0.983047
0.986015
0.989086
0.992266
0.995561
0.998977
1.00252
1.00618
1.00996
1.01385
1.01784
1.02193
1.02607
1.03026
1.03445
1.03859
1.04264
1.04652
1.05014
1.05339
1.05616
1.05853
1.06058
1.06251
1.06394
1.06455
1.06388
1.06241
1.05976
1.05654
1.05286
1.04889
1.04468
1.04029
1.03575
1.03107
1.02626
1.02174
1.01766
1.01367
1.00977
1.00595
1.00221
0.998549
0.994978
0.991495
0.988103
0.984804
0.9816
0.978494
0.975487
0.97258
0.969776
0.967073
0.964473
0.961975
0.959578
0.957279
0.955076
0.952966
0.950945
0.949009
0.947153
0.945373
0.943665
0.942026
0.940474
0.938005
0.938623
0.939222
0.939846
0.940496
0.941171
0.941872
0.942603
0.943364
0.944159
0.94499
0.94586
0.946771
0.947726
0.948726
0.949772
0.950864
0.952004
0.953196
0.954443
0.955751
0.957122
0.95856
0.960068
0.961651
0.963317
0.965076
0.96694
0.968918
0.971024
0.973462
0.976205
0.979023
0.981923
0.984913
0.988
0.991188
0.994482
0.997885
1.0014
1.00502
1.00874
1.01255
1.01644
1.0204
1.02439
1.02839
1.03237
1.03629
1.04008
1.04369
1.04703
1.05001
1.05257
1.05477
1.05672
1.05855
1.05992
1.06046
1.05978
1.05828
1.05591
1.05311
1.04991
1.04639
1.04255
1.03848
1.03422
1.02977
1.02514
1.02075
1.01675
1.01281
1.00893
1.00511
1.00136
0.997675
0.994065
0.990535
0.98709
0.983734
0.980471
0.977305
0.97424
0.971277
0.96842
0.965668
0.963022
0.960482
0.958044
0.955707
0.953467
0.951319
0.949259
0.947283
0.945386
0.943563
0.941812
0.940129
0.938534
0.936045
0.936685
0.937307
0.937953
0.938625
0.939324
0.94005
0.940805
0.94159
0.942409
0.943264
0.944156
0.94509
0.946068
0.94709
0.948158
0.949272
0.950435
0.951649
0.952918
0.954246
0.955637
0.957096
0.958625
0.960231
0.96192
0.963702
0.965589
0.967592
0.969725
0.972194
0.974971
0.97782
0.980747
0.983759
0.986861
0.990056
0.993348
0.996739
1.00023
1.0038
1.00747
1.01121
1.015
1.01884
1.0227
1.02655
1.03035
1.03406
1.03764
1.04103
1.04415
1.04694
1.04935
1.05145
1.05333
1.05507
1.05635
1.05681
1.05614
1.05467
1.05252
1.05004
1.04723
1.04407
1.04056
1.03679
1.03277
1.02852
1.02405
1.01977
1.01584
1.01195
1.00808
1.00426
1.00049
0.996777
0.993128
0.989552
0.986056
0.982646
0.979328
0.976108
0.972989
0.969976
0.967071
0.964275
0.961587
0.959007
0.956531
0.954156
0.951877
0.94969
0.947589
0.945571
0.94363
0.941762
0.939964
0.938235
0.936595
0.934085
0.934746
0.935389
0.936056
0.936751
0.937473
0.938222
0.939001
0.939811
0.940653
0.94153
0.942444
0.943399
0.944397
0.945439
0.946527
0.947663
0.948846
0.95008
0.951368
0.952714
0.954123
0.9556
0.95715
0.958776
0.960487
0.962292
0.964202
0.966229
0.968387
0.970885
0.973694
0.976572
0.979525
0.982557
0.985674
0.988876
0.992167
0.995546
0.999008
1.00255
1.00616
1.00983
1.01355
1.01728
1.02102
1.02473
1.02838
1.03193
1.03533
1.03854
1.0415
1.04416
1.04648
1.04852
1.05036
1.05201
1.0532
1.0536
1.05296
1.05157
1.0496
1.04738
1.04485
1.04198
1.03876
1.03523
1.03143
1.02735
1.02302
1.01884
1.01497
1.0111
1.00724
1.00341
0.999622
0.995877
0.992189
0.988569
0.985025
0.981565
0.978197
0.974927
0.97176
0.968701
0.965751
0.962912
0.960183
0.957562
0.955045
0.952629
0.950308
0.948077
0.945931
0.943866
0.941878
0.939962
0.938117
0.936341
0.934656
0.932123
0.932806
0.933468
0.934156
0.934873
0.935617
0.936389
0.937191
0.938023
0.938888
0.939787
0.940722
0.941696
0.942713
0.943773
0.944879
0.946033