/*--------------------------------*- C++ -*----------------------------------*\
  =========                 |
  \\      /  F ield         | OpenFOAM: The Open Source CFD Toolbox
   \\    /   O peration     | Website:  https://openfoam.org
    \\  /    A nd           | Version:  9
     \\/     M anipulation  |
\*---------------------------------------------------------------------------*/
FoamFile
{
    format      ascii;
    class       volScalarField;
    location    "0.05";
    object      p_rgh;
}
// * * * * * * * * * * * * * * * * * * * * * * * * * * * * * * * * * * * * * //

dimensions      [1 -1 -2 0 0 0 0];

internalField   nonuniform List<scalar> 
20000
(
-3.64556e-05
-8.29996e-05
-0.000109142
-0.000128198
-0.000144885
-0.000160038
-0.000175002
-0.000190993
-0.000209099
-0.000230361
-0.000255823
-0.000286573
-0.000323792
-0.000368793
-0.000423076
-0.000488357
-0.000566613
-0.000660122
-0.000771518
-0.000903853
-0.00106068
-0.00124615
-0.00146511
-0.00172327
-0.00202739
-0.00238547
-0.00280715
-0.00330407
-0.0038902
-0.00458177
-0.00546703
-0.00657091
-0.00781716
-0.00922014
-0.0107975
-0.0125704
-0.0145637
-0.0168069
-0.0193357
-0.0221952
-0.0254416
-0.0291373
-0.0333256
-0.0379725
-0.042909
-0.0478846
-0.0528733
-0.0586603
-0.0685605
-0.0962685
-0.162202
-0.092049
-0.413728
-0.115111
-0.0927441
-0.157831
-0.249724
-0.569952
-0.12555
-0.563185
-0.206327
-0.123535
-0.0515666
-0.0378803
-0.0776376
-0.0915556
-0.0669868
-0.0452018
-0.0315955
-0.0227555
-0.0171379
-0.01341
-0.0105888
-0.0083661
-0.00657599
-0.00512285
-0.00394301
-0.0029879
-0.00221777
-0.00159948
-0.00110561
-0.000713676
-0.000405304
-0.000165354
1.86621e-05
0.000157006
0.000258092
0.000328828
0.000374886
0.000400899
0.000410604
0.000406981
0.000392404
0.000368654
0.000336991
0.000298013
0.000251864
0.000197393
0.000132017
5.23525e-05
-5.07943e-05
-0.000117735
-0.000157051
-0.000186431
-0.000210298
-0.000229078
-0.000244242
-0.00025723
-0.00026933
-0.000281749
-0.000295649
-0.000312175
-0.000332497
-0.000357866
-0.000389656
-0.0004294
-0.000478817
-0.000539856
-0.000614753
-0.000706114
-0.000817017
-0.000951126
-0.00111281
-0.00130727
-0.00154062
-0.00182003
-0.00215389
-0.00255206
-0.00302596
-0.00358839
-0.00431127
-0.00522084
-0.00625589
-0.00742848
-0.00875258
-0.0102444
-0.0119224
-0.0138081
-0.015927
-0.0183084
-0.0209838
-0.023978
-0.0272923
-0.0308814
-0.0346595
-0.0385997
-0.0430205
-0.0490557
-0.0598177
-0.0822617
-0.0984109
-0.109424
-0.219243
-0.100416
-0.100189
-0.154781
-0.240887
-0.446398
-0.175668
-0.418828
-0.198877
-0.121582
-0.0699242
-0.0515277
-0.0623354
-0.0623588
-0.0476437
-0.0345946
-0.024816
-0.0174656
-0.0125367
-0.00919071
-0.00666845
-0.0047205
-0.00319644
-0.00199979
-0.00106324
-0.000335894
0.000222848
0.000645705
0.000958749
0.00118279
0.00133481
0.00142886
0.00147644
0.00148692
0.00146787
0.00142545
0.00136461
0.00128924
0.00120232
0.00110592
0.00100203
0.000891612
0.000775321
0.000653268
0.00052497
0.000389149
0.000243809
8.71613e-05
-1.87972e-05
-4.55084e-05
-6.2063e-05
-7.52399e-05
-8.55067e-05
-9.23877e-05
-9.62489e-05
-9.76569e-05
-9.72566e-05
-9.57939e-05
-9.41024e-05
-9.30911e-05
-9.37572e-05
-9.72072e-05
-0.000104669
-0.000117497
-0.000137174
-0.000165353
-0.00020391
-0.000255047
-0.000321413
-0.00040624
-0.000513461
-0.000647756
-0.000814556
-0.00102005
-0.00127131
-0.00157648
-0.00194509
-0.00238795
-0.00296384
-0.00369909
-0.00454404
-0.00550754
-0.00659982
-0.00783229
-0.00921733
-0.0107688
-0.0125021
-0.0144328
-0.0165738
-0.0189289
-0.021482
-0.0241875
-0.0269819
-0.0298513
-0.0329954
-0.0368555
-0.0421091
-0.0515844
-0.0465946
-0.0655604
-0.114499
-0.0468917
-0.0689287
-0.119837
-0.173806
-0.324569
-0.1622
-0.305476
-0.161935
-0.0931718
-0.0537474
-0.039064
-0.0452427
-0.0446926
-0.0353104
-0.0261478
-0.0186454
-0.0127304
-0.00863356
-0.00579861
-0.00366033
-0.00202869
-0.000778485
0.000175642
0.000895187
0.00142735
0.0018099
0.00207304
0.00224057
0.00233141
0.00236104
0.00234234
0.00228587
0.00220023
0.00209228
0.00196749
0.00183013
0.00168343
0.00152993
0.00137155
0.00120994
0.00104641
0.000882094
0.000717924
0.000554699
0.000392859
0.000232549
7.67257e-05
-1.96011e-06
-9.6488e-07
3.79358e-06
1.057e-05
1.92887e-05
3.04443e-05
4.40915e-05
6.01307e-05
7.83351e-05
9.83417e-05
0.000119662
0.000141686
0.000163671
0.000184739
0.00020389
0.000220029
0.000231971
0.000238421
0.000237903
0.000228647
0.000208437
0.000174463
0.000123234
5.06115e-05
-4.8094e-05
-0.000178049
-0.000344995
-0.000555554
-0.000817574
-0.00114026
-0.00156901
-0.00212786
-0.00277952
-0.0035299
-0.00438542
-0.00535247
-0.00643727
-0.00764614
-0.00898471
-0.0104559
-0.012057
-0.0137746
-0.0155752
-0.0173944
-0.0191389
-0.0207063
-0.022037
-0.0229413
-0.0227391
-0.0236
-0.0133277
-0.0242057
-0.0467895
-0.00411558
-0.028708
-0.0701586
-0.105089
-0.204827
-0.117872
-0.199384
-0.108199
-0.0587612
-0.0313119
-0.0230516
-0.0288565
-0.0291998
-0.0235426
-0.0172733
-0.0117563
-0.00729983
-0.00415165
-0.00195094
-0.000297029
0.000946107
0.00187224
0.00254828
0.00302492
0.00334249
0.00353374
0.00362494
0.00363681
0.00358581
0.00348556
0.00334755
0.00318136
0.00299473
0.00279372
0.00258286
0.00236578
0.00214507
0.00192289
0.00170104
0.00148114
0.00126458
0.0010526
0.000846222
0.000646271
0.000453162
0.000266559
8.74056e-05
1.19576e-05
3.61026e-05
6.04128e-05
8.69106e-05
0.000115909
0.000147501
0.000181804
0.000218883
0.000258713
0.000301164
0.000345988
0.000392812
0.000441126
0.00049029
0.000539565
0.000588153
0.000635218
0.000679872
0.000721086
0.000757552
0.000787495
0.000808531
0.000817634
0.000811254
0.000785521
0.000736349
0.000659311
0.000549281
0.000400052
0.000204139
-6.97649e-05
-0.000442486
-0.000890406
-0.00141648
-0.00202319
-0.00271191
-0.0034829
-0.00433532
-0.00526542
-0.00626424
-0.00731526
-0.0083891
-0.00943255
-0.0103575
-0.0110368
-0.0112963
-0.0109269
-0.0095684
-0.00632502
-0.00287724
0.00812496
0.00634257
-0.00348439
0.0212927
0.00357648
-0.0243278
-0.0401397
-0.0965307
-0.0524666
-0.102092
-0.0501951
-0.0254693
-0.00966027
-0.00754948
-0.0128102
-0.0139909
-0.0114215
-0.00786055
-0.00432783
-0.00132819
0.000838811
0.00235338
0.00346977
0.00427692
0.00483847
0.00520256
0.00540816
0.00548763
0.00546767
0.0053697
0.00521053
0.00500374
0.0047609
0.00449213
0.00420586
0.00390874
0.00360571
0.00330043
0.00299561
0.00269341
0.00239566
0.00210396
0.00181971
0.00154414
0.00127819
0.00102255
0.000777659
0.000543455
0.000319179
0.000104624
2.39007e-05
6.8973e-05
0.000111908
0.000157718
0.000207023
0.00025963
0.000315652
0.000375246
0.000438499
0.000505419
0.000575912
0.00064977
0.000726668
0.000806184
0.000887836
0.000971128
0.0010556
0.00114077
0.0012261
0.00131072
0.0013933
0.0014719
0.00154395
0.00160655
0.00165668
0.00169137
0.00170745
0.00170126
0.00166821
0.00160273
0.00148812
0.00130611
0.00106646
0.000769326
0.000416124
1.02538e-05
-0.000443096
-0.000936308
-0.00145684
-0.0019852
-0.00249311
-0.0029372
-0.00324713
-0.00331689
-0.0030014
-0.00209696
-0.000345306
0.00260023
0.00754665
0.0134418
0.0244463
0.0278087
0.024453
0.0387256
0.0297948
0.0151947
0.0191193
-0.00387096
0.0175056
-0.0160785
0.00684162
0.00632913
0.010998
0.00774764
0.00219525
0.000138534
0.000371686
0.00167931
0.00337106
0.00495504
0.00613335
0.00693917
0.00749207
0.00783763
0.00801119
0.0080431
0.00796071
0.00778789
0.0075445
0.00724636
0.00690613
0.0065345
0.0061411
0.00573447
0.00532163
0.00490785
0.00449686
0.00409132
0.00369328
0.00330443
0.00292622
0.00255993
0.00220664
0.00186715
0.00154198
0.00123131
0.00093511
0.00065284
0.000383286
0.00012588
3.49686e-05
0.000100067
0.000161644
0.000226897
0.000296672
0.000370609
0.000448879
0.000531741
0.000619371
0.000711871
0.000809257
0.00091145
0.00101828
0.00112951
0.0012449
0.00136424
0.00148744
0.00161446
0.0017452
0.00187926
0.0020157
0.00215301
0.00228911
0.00242176
0.00254882
0.00266839
0.00277854
0.00287694
0.00296062
0.00302588
0.00307075
0.00307914
0.00304717
0.00297808
0.00287702
0.00275171
0.00261224
0.00247258
0.00235325
0.00228243
0.00229767
0.00245372
0.00283386
0.00355352
0.00476417
0.00668152
0.00957889
0.0137709
0.0199192
0.0272963
0.0377962
0.0431598
0.043512
0.053245
0.0525997
0.0491919
0.0705482
0.0706878
0.0814609
0.0562526
0.0588852
0.0363113
0.030882
0.0226565
0.0163122
0.0129156
0.0113765
0.0109385
0.0110532
0.0113335
0.011554
0.0116551
0.011639
0.0115138
0.0112902
0.0109822
0.0106057
0.0101754
0.00970369
0.00920077
0.00867531
0.00813529
0.00758827
0.00704097
0.00649873
0.0059653
0.00544321
0.00493424
0.00443981
0.00396114
0.0034993
0.00305516
0.00262934
0.00222214
0.00183357
0.00146331
0.00111088
0.00077533
0.000455134
0.00014965
4.57287e-05
0.000130573
0.000210884
0.000295758
0.000386214
0.000481802
0.000582786
0.000689518
0.000802252
0.000921171
0.00104638
0.00117793
0.00131577
0.00145983
0.00161008
0.00176661
0.00192968
0.00209967
0.00227691
0.00246143
0.00265271
0.00284961
0.00305057
0.003254
0.00345866
0.00366367
0.00386824
0.00407129
0.0042714
0.00446671
0.00466977
0.00486681
0.00504042
0.00519672
0.00534428
0.00549451
0.0056619
0.00586636
0.0061353
0.00650348
0.0070154
0.00773512
0.00875456
0.0101912
0.0121989
0.0149927
0.0188391
0.0240108
0.0309504
0.0390258
0.0487803
0.0549295
0.0575263
0.0654815
0.0716286
0.0768808
0.111469
0.126398
0.133458
0.11367
0.102668
0.0626301
0.0490835
0.0367229
0.0293678
0.0245831
0.0216191
0.0197685
0.0185453
0.0176639
0.0169912
0.0164167
0.0158441
0.0152526
0.0146332
0.0139859
0.0133153
0.0126269
0.0119257
0.0112167
0.0105048
0.00979546
0.00909384
0.00840465
0.0077314
0.00707635
0.0064409
0.00582605
0.00523264
0.00466144
0.00411306
0.00358791
0.00308606
0.00260732
0.00215116
0.00171681
0.00130341
0.000909681
0.000533853
0.00017556
5.65414e-05
0.000161278
0.000260484
0.000365182
0.00047661
0.000594248
0.00071844
0.000849617
0.00098811
0.0011342
0.00128808
0.00144991
0.00161975
0.00179769
0.0019839
0.00217873
0.00238281
0.00259693
0.00282182
0.00305793
0.00330508
0.00356254
0.00382925
0.00410432
0.00438734
0.00467841
0.00497776
0.00528551
0.00560173
0.00592634
0.0062862
0.00666986
0.00704643
0.00742474
0.00781629
0.00823552
0.00870082
0.00923751
0.00987862
0.0106635
0.0116418
0.0128854
0.0144903
0.01657
0.0192763
0.0228143
0.0274094
0.0332757
0.0406474
0.0489502
0.0580643
0.0645831
0.0684751
0.0754724
0.0863422
0.0979031
0.141062
0.164183
0.170881
0.155971
0.136197
0.0840854
0.0649126
0.0497624
0.0410448
0.035314
0.0311842
0.0281333
0.0257594
0.0238522
0.022365
0.0211591
0.0200559
0.0190136
0.0180084
0.0170286
0.0160681
0.015124
0.0141949
0.0132809
0.0123835
0.0115054
0.0106495
0.00981814
0.00901311
0.00823522
0.00748484
0.00676226
0.00606779
0.0054017
0.00476415
0.00415501
0.00357384
0.0030199
0.00249222
0.00198962
0.00151091
0.00105458
0.000618656
0.000203364
6.75315e-05
0.000192457
0.000310717
0.000435434
0.000568123
0.000708171
0.000855981
0.00101208
0.00117688
0.00135078
0.00153406
0.00172697
0.00192967
0.00214239
0.0023655
0.00259962
0.00284573
0.00310499
0.00337854
0.00366718
0.0039711
0.00428995
0.00462318
0.00497056
0.00533252
0.00571001
0.00610423
0.00651639
0.00694802
0.00740075
0.00791545
0.00848279
0.00905858
0.00965415
0.0102834
0.0109631
0.0117151
0.0125693
0.0135631
0.0147384
0.016149
0.017873
0.0200053
0.0226538
0.0259598
0.030107
0.035272
0.0416021
0.0491918
0.0575199
0.0661461
0.0727989
0.0774574
0.0838398
0.0974675
0.113546
0.160689
0.186795
0.194102
0.184121
0.159387
0.100742
0.0782424
0.0612214
0.051694
0.0451555
0.0400548
0.0359916
0.032635
0.0298281
0.027607
0.0258204
0.0242207
0.0227512
0.0213772
0.0200767
0.0188348
0.0176411
0.0164885
0.0153732
0.0142934
0.0132491
0.0122407
0.0112684
0.0103321
0.00943146
0.00856579
0.00773475
0.0069381
0.00617564
0.00544699
0.00475152
0.00408828
0.00345606
0.00285349
0.00227906
0.00173132
0.00120858
0.000708685
0.000232804
7.86626e-05
0.000224062
0.000361581
0.000506578
0.000660815
0.000823561
0.000995299
0.00117668
0.00136823
0.00157042
0.00178365
0.00200822
0.00224443
0.00249262
0.00275336
0.00302755
0.00331646
0.00362163
0.00394457
0.00428642
0.0046477
0.00502845
0.00542861
0.00584862
0.00628965
0.00675347
0.00724206
0.00775769
0.00830333
0.0088822
0.00954877
0.0102955
0.0110653
0.0118716
0.0127302
0.0136598
0.014685
0.0158397
0.0171637
0.0186999
0.0205056
0.0226623
0.0252603
0.0284001
0.0322126
0.0368486
0.0424461
0.0490921
0.0567904
0.0650484
0.0732829
0.0799274
0.0850854
0.0912547
0.106509
0.124993
0.172612
0.198085
0.205834
0.200202
0.173557
0.11331
0.0893442
0.0711783
0.0612609
0.0540695
0.0481851
0.0432956
0.0391172
0.0355328
0.0326595
0.0303465
0.0282896
0.0264222
0.0247012
0.0230961
0.0215851
0.0201509
0.0187825
0.0174721
0.0162153
0.0150092
0.0138518
0.0127413
0.011676
0.010654
0.00967406
0.00873505
0.00783623
0.00697685
0.00615604
0.00537264
0.00462528
0.00391234
0.0032321
0.00258284
0.00196289
0.00137045
0.000803229
0.000263646
8.9803e-05
0.000255882
0.00041292
0.000578484
0.000754537
0.000940254
0.00113623
0.00134324
0.00156191
0.00179281
0.00203642
0.00229314
0.00256336
0.00284757
0.00314651
0.00346133
0.00379361
0.00414523
0.00451803
0.00491347
0.0053324
0.00577523
0.0062424
0.00673497
0.00725479
0.00780429
0.00838621
0.00900379
0.00966131
0.0103635
0.0111779
0.0120987
0.013056
0.0140649
0.0151427
0.0163096
0.0175929
0.0190293
0.0206594
0.0225259
0.0246883
0.027228
0.0302304
0.0337878
0.0380216
0.0430491
0.0489744
0.055835
0.0635694
0.071706
0.0796169
0.0862033
0.0916707
0.0978958
0.113615
0.133605
0.179239
0.201983
0.209524
0.20684
0.180618
0.122596
0.0982812
0.0800252
0.0697381
0.0620547
0.0555539
0.0500173
0.0451647
0.0409204
0.0374772
0.0346949
0.032224
0.0299914
0.0279491
0.0260587
0.0242929
0.0226303
0.0210557
0.0195587
0.0181319
0.01677
0.0154687
0.0142242
0.0130331
0.0118925
0.0108004
0.00975494
0.00875483
0.00779881
0.0068855
0.00601332
0.00518046
0.00438502
0.00362503
0.00289856
0.00220383
0.00153897
0.000901602
0.000295696
0.000100869
0.000287841
0.00046472
0.000651126
0.000849246
0.00105821
0.00127873
0.00151168
0.0017578
0.00201775
0.00229209
0.00258135
0.00288601
0.00320668
0.00354428
0.00390016
0.0042762
0.0046746
0.00509751
0.00554671
0.00602334
0.00652816
0.00706211
0.00762683
0.00822477
0.00885891
0.00953263
0.0102501
0.0110167
0.0118387
0.0127962
0.0138846
0.0150217
0.0162239
0.0175094
0.0188995
0.020424
0.0221219
0.0240333
0.0262
0.0286826
0.0315586
0.0349067
0.0388144
0.043391
0.0487263
0.054892
0.0618904
0.06961
0.0776092
0.0852722
0.0917771
0.0974152
0.103779
0.11952
0.139926
0.182496
0.201684
0.208208
0.206741
0.182551
0.129376
0.105611
0.0875437
0.0771328
0.069131
0.0621929
0.0561524
0.0507557
0.0459615
0.0420282
0.0388349
0.0359949
0.0334328
0.0310955
0.0289413
0.0269377
0.0250602
0.0232909
0.0216169
0.0200285
0.0185178
0.0170785
0.015705
0.0143925
0.013137
0.0119357
0.0107861
0.00968635
0.00863472
0.00762934
0.0066682
0.0057492
0.00487017
0.00402898
0.00322359
0.00245215
0.00171279
0.00100304
0.000328789
0.000111796
0.000319843
0.000516893
0.000724441
0.000944922
0.00117743
0.00142277
0.00168192
0.00195574
0.00224499
0.00255036
0.00287246
0.00321188
0.00356933
0.00394589
0.00434313
0.00476318
0.00520852
0.00568163
0.00618453
0.00671867
0.00728515
0.00788538
0.00852152
0.00919655
0.00991389
0.0106774
0.0114922
0.0123647
0.0133023
0.0143972
0.0156462
0.0169547
0.0183401
0.0198206
0.0214186
0.0231658
0.0251032
0.0272698
0.0297069
0.032474
0.0356429
0.0392832
0.043479
0.0483263
0.0538955
0.0602283
0.067305
0.0749809
0.082848
0.0903201
0.096756
0.102467
0.108893
0.124259
0.144529
0.184089
0.199463
0.204111
0.202367
0.181086
0.134313
0.111188
0.0938921
0.0835327
0.075351
0.0681258
0.0617083
0.0558845
0.0506404
0.0462941
0.0427446
0.0395816
0.036726
0.0341223
0.0317263
0.0295028
0.0274252
0.0254737
0.0236334
0.0218922
0.0202405
0.0186699
0.017173
0.0157438
0.0143776
0.0130706
0.0118198
0.0106228
0.00947728
0.00838097
0.00733149
0.00632646
0.00536354
0.00444047
0.00355516
0.00270576
0.00189043
0.00110672
0.000362672
0.000122547
0.000351793
0.000569304
0.000798318
0.00104147
0.00129779
0.00156818
0.00185374
0.00215546
0.00247423
0.00281085
0.00316603
0.00354043
0.00393488
0.00435059
0.00478933
0.00525347
0.00574576
0.00626894
0.00682528
0.0074165
0.00804404
0.00870973
0.00941625
0.010167
0.0109657
0.0118167
0.0127258
0.0137004
0.0147488
0.0159749
0.0173763
0.0188471
0.020405
0.0220677
0.0238576
0.0258081
0.0279613
0.030355
0.0330313
0.0360472
0.0394675
0.0433518
0.0477799
0.0528342
0.0585718
0.0650132
0.0721236
0.0797402
0.0874845
0.0948181
0.101211
0.106955
0.113396
0.128163
0.148705
0.184036
0.196417
0.198616
0.195713
0.177384
0.137458
0.115656
0.0992319
0.0890197
0.0807809
0.0733867
0.0667023
0.060555
0.0549522
0.0502637
0.0464133
0.0429711
0.0398574
0.0370157
0.0344005
0.0319756
0.0297135
0.0275928
0.0255971
0.0237126
0.0219278
0.0202324
0.0186179
0.0170773
0.0156047
0.0141959
0.0128473
0.0115558
0.0103187
0.00913324
0.00799672
0.00690653
0.00586017
0.00485532
0.00388989
0.00296205
0.00207006
0.00121153
0.000396884
0.000133165
0.000383815
0.00062211
0.000872912
0.00113898
0.00141933
0.00171493
0.00202707
0.00235683
0.00270526
0.00307325
0.00346161
0.0038711
0.00430266
0.0047576
0.00523787
0.00574604
0.00628511
0.00685803
0.00746734
0.00811497
0.0088027
0.00953276
0.0103083
0.0111329
0.0120108
0.0129466
0.0139465
0.0150189
0.0161729
0.0175233
0.0190684
0.0206915
0.0224106
0.0242426
0.0262089
0.0283439
0.0306888
0.0332812
0.0361638
0.0393927
0.0430235
0.0471079
0.0517185
0.0569262
0.0627764
0.0692789
0.0763878
0.0839337
0.0915686
0.0988079
0.105191
0.110979
0.117466
0.131504
0.151755
0.18371
0.19295
0.192516
0.188248
0.172663
0.139415
0.119
0.103582
0.0936701
0.0854849
0.0780185
0.071161
0.0647796
0.0588993
0.0539347
0.0498349
0.0461559
0.0428183
0.0397663
0.0369547
0.0343474
0.0319164
0.0296399
0.0274999
0.0254813
0.023571
0.0217575
0.0200312
0.018384
0.0168096
0.015303
0.0138601
0.0124773
0.0111513
0.00987897
0.00865728
0.00748341
0.00635476
0.00526898
0.00422399
0.00321803
0.00224951
0.00131616
0.000430889
0.000143673
0.000416006
0.000675411
0.000948263
0.00123745
0.00154197
0.00186294
0.00220176
0.00255965
0.00293779
0.00333719
0.00375876
0.00420337
0.00467204
0.00516619
0.0056879
0.0062399
0.0068254
0.00744758
0.00810916
0.00881231
0.0095591
0.0103522
0.0111949
0.0120914
0.0130458
0.0140632
0.0151503
0.0163159
0.01757
0.0190374
0.0207166
0.022481
0.0243495
0.0263377
0.0284659
0.0307678
0.0332825
0.0360467
0.0391035
0.0425093
0.0463111
0.0505549
0.0553034
0.0606188
0.066534
0.0730557
0.0801317
0.087597
0.0951354
0.102315
0.108733
0.114612
0.121224
0.134619
0.154181
0.182848
0.188935
0.186268
0.18088
0.168118
0.1402
0.121324
0.107061
0.0975703
0.0895262
0.0820677
0.0751156
0.0685764
0.0624909
0.0573108
0.0530094
0.0491334
0.0456047
0.0423694
0.0393839
0.036613
0.034029
0.0316097
0.0293363
0.0271926
0.0251642
0.0232387
0.0214057
0.0196566
0.0179845
0.016384
0.0148503
0.0133794
0.0119674
0.0106108
0.00930627
0.00805077
0.00684161
0.00567645
0.00455326
0.0034704
0.00242644
0.00141925
0.000464261
0.000154044
0.000448324
0.000729098
0.00102421
0.00133669
0.00166554
0.00201199
0.00237755
0.00276359
0.00317142
0.0036022
0.00405696
0.00453666
0.00504238
0.00557564
0.00613858
0.0067341
0.00736555
0.00803631
0.00874928
0.00950684
0.0103113
0.0111657
0.0120738
0.0130397
0.0140677
0.0151631
0.0163331
0.0175871
0.0189357
0.0205125
0.022316
0.0242104
0.0262153
0.0283458
0.0306215
0.0330741
0.0357393
0.0386513
0.0418536
0.0454019
0.0493371
0.0537017
0.0585469
0.063927
0.0698688
0.0763706
0.0833837
0.0907567
0.0982061
0.10535
0.111845
0.11788
0.124701
0.137581
0.15613
0.181213
0.184206
0.180119
0.173967
0.163915
0.140283
0.122985
0.109859
0.100823
0.0929751
0.0855841
0.0786005
0.0719681
0.0657414
0.0604005
0.0559414
0.0519054
0.0482168
0.0448243
0.041687
0.0387711
0.0360497
0.0335003
0.0311039
0.0288432
0.0267034
0.0246714
0.0227364
0.0208894
0.0191234
0.0174324
0.0158111
0.014255
0.0127598
0.0113216
0.00993665
0.00860189
0.00731452
0.00607222
0.00487303
0.00371543
0.00259819
0.00151933
0.000496646
0.000164222
0.000480659
0.00078303
0.00110062
0.00143659
0.00178991
0.00216189
0.00255419
0.00296833
0.00340578
0.00386785
0.00435571
0.00487039
0.00541304
0.00598519
0.00658905
0.00722762
0.0079044
0.00862291
0.0093862
0.0101969
0.0110574
0.0119713
0.0129423
0.0139749
0.0150733
0.0162429
0.0174913
0.0188285
0.0202656
0.0219447
0.0238629
0.0258756
0.0280032
0.0302613
0.032669
0.035256
0.0380541
0.0410933
0.0444161
0.0480766
0.0521093
0.0565586
0.061463
0.0668689
0.0727988
0.0792474
0.0861693
0.0934331
0.100791
0.107907
0.114507
0.120748
0.127815
0.140189
0.157358
0.179021
0.178516
0.174176
0.167711
0.160059
0.140019
0.124254
0.112139
0.103533
0.0959044
0.0886185
0.0816516
0.0749803
0.0686683
0.0632158
0.0586389
0.0544773
0.0506581
0.0471337
0.043866
0.0408232
0.0379794
0.0353122
0.0328023
0.0304323
0.0281869
0.0260531
0.02402
0.0220786
0.0202217
0.0184429
0.0167367
0.015098
0.013522
0.0120046
0.0105417
0.00913026
0.00776735
0.00645072
0.0051785
0.00394929
0.00276203
0.00161485
0.000527678
0.000174136
0.00051291
0.000837128
0.00117744
0.00153706
0.00191493
0.00231246
0.00273146
0.00317361
0.00364056
0.0041338
0.00465459
0.00520406
0.00578338
0.00639409
0.00703844
0.00771947
0.00844079
0.00920604
0.0100184
0.0108806
0.0117955
0.0127666
0.0137981
0.0148944
0.0160598
0.0172995
0.0186214
0.0200363
0.0215561
0.0233302
0.0253542
0.0274743
0.0297114
0.0320815
0.0346047
0.037309
0.0402223
0.0433698
0.0467908
0.0505347
0.0546391
0.0591374
0.0640657
0.0694624
0.0753459
0.0817101
0.0885129
0.0956435
0.102892
0.109972
0.116671
0.123124
0.130398
0.142133
0.157409
0.174386
0.173924
0.168723
0.162576
0.156236
0.139528
0.125247
0.114004
0.105784
0.0983768
0.0912171
0.0843042
0.0776399
0.0712916
0.0657713
0.0611129
0.0568573
0.0529351
0.0493028
0.0459254
0.0427732
0.0398212
0.0370476
0.0344331
0.0319604
0.0296146
0.0273829
0.0252549
0.0232218
0.0212763
0.0194119
0.0176227
0.0159032
0.0142484
0.0126537
0.0111153
0.00962973
0.00819425
0.00680663
0.00546508
0.00416826
0.00291524
0.00170427
0.000556921
0.000183722
0.000545028
0.000891384
0.00125465
0.00163807
0.00204056
0.00246365
0.00290929
0.00337935
0.00387566
0.00439984
0.00495331
0.00553726
0.00615288
0.0068017
0.00748595
0.00820869
0.00897359
0.00978441
0.0106444
0.0115565
0.0125236
0.0135494
0.0146386
0.0157954
0.0170242
0.0183299
0.0197203
0.0212072
0.0228033
0.0246653
0.0267868
0.0290049
0.0313393
0.0338073
0.0364293
0.0392328
0.0422429
0.0454804
0.0489796
0.0527848
0.0569327
0.0614515
0.0663731
0.0717294
0.0775354
0.0837849
0.0904394
0.0974064
0.104516
0.11153
0.118286
0.124897
0.132262
0.143171
0.156388
0.169498
0.168576
0.16351
0.158
0.15297
0.138978
0.126024
0.115521
0.107637
0.10044
0.0934189
0.086591
0.0799732
0.0736319
0.0680829
0.0633757
0.0590554
0.0550562
0.0513387
0.0478713
0.0446261
0.0415793
0.0387098
0.0359986
0.0334292
0.0309874
0.0286613
0.026441
0.0243183
0.0222858
0.020337
0.0184659
0.0166667
0.0149344
0.0132642
0.0116522
0.0100951
0.00859024
0.00713536
0.00572876
0.00436911
0.00305549
0.00178619
0.000583898
0.000192957
0.000577009
0.000945798
0.00133227
0.00173964
0.00216685
0.00261552
0.00308776
0.00358561
0.00411103
0.00466587
0.00525165
0.00586966
0.00652108
0.00720742
0.00793083
0.00869437
0.00950175
0.0103568
0.0112628
0.0122228
0.0132398
0.0143178
0.0154615
0.0166755
0.0179639
0.0193313
0.0207853
0.0223383
0.0240041
0.0259466
0.0281579
0.0304654
0.0328872
0.0354406
0.0381464
0.0410318
0.0441201
0.0474294
0.050988
0.0548347
0.0590028
0.0635177
0.0684061
0.0736943
0.0793945
0.0854998
0.091976
0.0987451
0.105674
0.112572
0.119311
0.125972
0.133255
0.143153
0.154242
0.164141
0.162914
0.158573
0.153944
0.150129
0.138374
0.126591
0.116729
0.109132
0.102128
0.095257
0.0885421
0.082006
0.0757102
0.0701677
0.0654415
0.0610835
0.0570313
0.0532499
0.0497107
0.0463877
0.0432582
0.0403021
0.0375014
0.0348407
0.032307
0.0298895
0.0275792
0.0253682
0.0232498
0.0212173
0.0192647
0.0173865
0.0155773
0.0138328
0.0121491
0.0105231
0.00895201
0.00743388
0.0059669
0.00454966
0.00318117
0.00185965
0.000608218
0.000201853
0.000608857
0.00100034
0.00141027
0.00184178
0.00229382
0.00276812
0.00326689
0.00379232
0.00434659
0.00493171
0.00554935
0.00620088
0.0068875
0.00761062
0.00837232
0.00917558
0.0100241
0.0109218
0.0118721
0.0128779
0.0139425
0.0150697
0.0162646
0.0175322
0.0188763
0.0203012
0.021814
0.0234274
0.0251564
0.0271716
0.0294646
0.0318534
0.0343542
0.0369831
0.0397603
0.0427123
0.0458617
0.0492253
0.0528255
0.0566956
0.0608643
0.0653541
0.0701866
0.0753825
0.0809514
0.0868852
0.0931538
0.0996901
0.106391
0.11311
0.119731
0.126301
0.133303
0.142043
0.151067
0.158373
0.157282
0.153922
0.150271
0.147479
0.137591
0.126905
0.117633
0.110288
0.103467
0.0967599
0.0901852
0.0837636
0.0775479
0.0720436
0.0673256
0.0629543
0.0588713
0.0550454
0.0514508
0.0480635
0.044862
0.0418276
0.0389439
0.0361968
0.033575
0.0310689
0.0286705
0.0263727
0.0241689
0.022053
0.020019
0.0180618
0.0161763
0.0143585
0.0126048
0.0109123
0.00927843
0.00770114
0.00617859
0.00470922
0.00329177
0.00192431
0.000629712
0.000210403
0.000640589
0.001055
0.00148865
0.00194448
0.00242145
0.00292136
0.00344655
0.00399934
0.00458211
0.00519705
0.00584602
0.00653044
0.00725151
0.00801055
0.0088095
0.00965127
0.0105395
0.0114782
0.0124707
0.0135202
0.0146297
0.0158032
0.0170459
0.0183631
0.019759
0.0212372
0.0228045
0.0244732
0.0262589
0.0283391
0.0307052
0.0331672
0.035739
0.0384351
0.0412737
0.04428
0.0474761
0.0508779
0.0545035
0.0583804
0.0625326
0.0669788
0.0717362
0.0768195
0.0822354
0.0879743
0.0940086
0.100279
0.106706
0.113173
0.11957
0.125899
0.132436
0.139954
0.147129
0.152492
0.151819
0.149521
0.146815
0.144777
0.136474
0.126882
0.118205
0.111107
0.104475
0.0979533
0.0915474
0.0852712
0.0791671
0.0737297
0.0690443
0.0646817
0.0605875
0.0567341
0.0530984
0.0496582
0.046394
0.0432886
0.0403275
0.0374988
0.0347926
0.0322008
0.0297164
0.0273329
0.0250444
0.0228451
0.0207299
0.0186938
0.0167326
0.0148426
0.0130207
0.0112643
0.0095709
0.0079385
0.00636507
0.00484879
0.00338805
0.00198063
0.000648503
0.000218541
0.000672201
0.00110983
0.00156738
0.00204767
0.00254961
0.00307508
0.00362652
0.0042064
0.00481728
0.00546155
0.00614121
0.00685778
0.00761242
0.00840637
0.00924142
0.0101203
0.0110467
0.0120245
0.0130572
0.014148
0.0152998
0.0165165
0.0178033
0.0191662
0.0206097
0.0221372
0.0237549
0.0254744
0.0273114
0.0294494
0.0318801
0.0344067
0.0370414
0.0397968
0.0426887
0.0457393
0.0489703
0.0523965
0.0560333
0.0599025
0.0640235
0.068411
0.0730773
0.0780323
0.083278
0.0888032
0.0945811
0.100558
0.106667
0.112816
0.11889
0.124848
0.130789
0.137112
0.142747
0.146763
0.146626
0.145322
0.143418
0.141859
0.134914
0.126437
0.118403
0.111587
0.105171
0.098863
0.0926565
0.0865553
0.0805913
0.0752459
0.0706146
0.0662798
0.0621911
0.0583245
0.0546594
0.0511758
0.0478564
0.0446863
0.0416532
0.0387473
0.0359604
0.0332858
0.0307174
0.0282497
0.0258774
0.0235955
0.0213995
0.0192853
0.0172494
0.0152888
0.0134009
0.0115832
0.00983357
0.00814985
0.00652982
0.00497128
0.00347218
0.00202988
0.00066504
0.000226153
0.000703552
0.00116464
0.00164622
0.00215102
0.00267794
0.00322891
0.00380644
0.00441315
0.00505173
0.00572476
0.00643438
0.00718222
0.00796944
0.00879717
0.00966702
0.0105816
0.0115444
0.0125593
0.0136301
0.0147598
0.0159511
0.0172078
0.0185352
0.0199396
0.0214263
0.022999
0.0246635
0.0264301
0.028314
0.030504
0.0329914
0.035574
0.0382631
0.04107
0.0440076
0.0470944
0.050351
0.0537907
0.057427
0.0612764
0.0653543
0.069671
0.0742343
0.0790491
0.0841126
0.0894111
0.0949167
0.100579
0.106338
0.112115
0.117792
0.123286
0.128565
0.133802
0.13823
0.14138
0.14178
0.141293
0.139985
0.138673
0.132883
0.12552
0.118198
0.11173
0.105576
0.0995189
0.0935435
0.0876445
0.0818451
0.0766134
0.0720543
0.067763
0.0636932
0.0598245
0.0561389
0.0526192
0.0492508
0.0460212
0.0429209
0.0399418
0.0370778
0.0343233
0.0316735
0.0291235
0.026669
0.024306
0.0220308
0.0198402
0.0177317
0.0157028
0.0137515
0.0118756
0.010073
0.00834146
0.00667845
0.00508137
0.00354763
0.00207418
0.000680073
0.000233129
0.000734363
0.00121903
0.00172468
0.002254
0.0028059
0.00338232
0.00398582
0.00461908
0.00528494
0.00598609
0.00672487
0.00750301
0.00832169
0.00918196
0.0100852
0.0110339
0.0120313
0.0130813
0.0141879
0.0153539
0.0165821
0.0178757
0.01924
0.0206819
0.0222074
0.0238209
0.0255284
0.0273389
0.0292666
0.0315043
0.0340422
0.0366732
0.0394088
0.0422592
0.045235
0.048351
0.0516256
0.0550704
0.0586972
0.0625177
0.0665435
0.0707808
0.0752328
0.0799
0.0847744
0.089839
0.0950641
0.100401
0.105792
0.111165
0.116402
0.121385
0.126005
0.130317
0.133852
0.136483
0.137337
0.137436
0.136513
0.135269
0.130442
0.124151
0.117601
0.111562
0.105725
0.0999584
0.0942436
0.0885702
0.0829553
0.0778546
0.0733819
0.0691456
0.0651045
0.0612415
0.0575418
0.0539913
0.0505783
0.0472936
0.0441299
0.0410815
0.0381437
0.0353124
0.0325838
0.0299542
0.0274202
0.0249787
0.0226272
0.0203635
0.0181856
0.0160919
0.0140807
0.01215
0.0102978
0.00852149
0.0068183
0.00518517
0.00361898
0.00211625
0.000694558
0.000239415
0.000764397
0.00127258
0.00180228
0.0023561
0.00293296
0.00353476
0.00416408
0.00482362
0.00551627
0.00624489
0.00701196
0.00781933
0.00866827
0.00955972
0.0104949
0.0114759
0.012506
0.013589
0.0147289
0.0159288
0.017191
0.0185187
0.0199167
0.0213922
0.022952
0.0246019
0.0263484
0.0281997
0.0301686
0.0324512
0.0350352
0.037709
0.0404842
0.043371
0.046378
0.049517
0.0528032
0.0562469
0.0598573
0.0636425
0.06761
0.0717625
0.0760988
0.0806149
0.0852985
0.0901286
0.0950737
0.100085
0.105107
0.110068
0.114854
0.119327
0.123342
0.126916
0.129825
0.132155
0.133336
0.133792
0.133061
0.131798
0.127742
0.122429
0.116676
0.111134
0.105669
0.100228
0.0947972
0.0893668
0.0839506
0.0789928
0.074616
0.0704422
0.0664356
0.0625829
0.0588728
0.0552948
0.0518405
0.0485038
0.0452798
0.0421651
0.0391567
0.0362517
0.0334476
0.0307418
0.028132
0.0256163
0.0231929
0.0208607
0.0186183
0.0164645
0.0143978
0.0124163
0.0105177
0.00869921
0.00695768
0.00528959
0.00369133
0.00215916
0.000709502
0.000245004
0.000793567
0.00132509
0.00187871
0.00245694