/*--------------------------------*- C++ -*----------------------------------*\
  =========                 |
  \\      /  F ield         | OpenFOAM: The Open Source CFD Toolbox
   \\    /   O peration     | Website:  https://openfoam.org
    \\  /    A nd           | Version:  9
     \\/     M anipulation  |
\*---------------------------------------------------------------------------*/
FoamFile
{
    format      ascii;
    class       surfaceScalarField;
    location    "0.05";
    object      phi;
}
// * * * * * * * * * * * * * * * * * * * * * * * * * * * * * * * * * * * * * //

dimensions      [0 3 -1 0 0 0 0];

internalField   nonuniform List<scalar> 
39700
(
1.37309e-06
1.53079e-06
1.37308e-06
1.60373e-06
1.37308e-06
1.68047e-06
1.37308e-06
1.76082e-06
1.37309e-06
1.84491e-06
1.37309e-06
1.93289e-06
1.3731e-06
2.02492e-06
1.37311e-06
2.12117e-06
1.37312e-06
2.2218e-06
1.37313e-06
2.32699e-06
1.37314e-06
2.43691e-06
1.37316e-06
2.55173e-06
1.37318e-06
2.67162e-06
1.37319e-06
2.79676e-06
1.37322e-06
2.92731e-06
1.37324e-06
3.06346e-06
1.37326e-06
3.20537e-06
1.37329e-06
3.35322e-06
1.37332e-06
3.50715e-06
1.37336e-06
3.66733e-06
1.3734e-06
3.8339e-06
1.37344e-06
4.00699e-06
1.37349e-06
4.18672e-06
1.37354e-06
4.37317e-06
1.3736e-06
4.5664e-06
1.37367e-06
4.76642e-06
1.37375e-06
4.9732e-06
1.37383e-06
5.18658e-06
1.37393e-06
5.40633e-06
1.37405e-06
5.63211e-06
1.37419e-06
6.83643e-06
1.37434e-06
6.77287e-06
1.37451e-06
6.70749e-06
1.37471e-06
6.64007e-06
1.37493e-06
6.57028e-06
1.37518e-06
6.49776e-06
1.37547e-06
6.42212e-06
1.37581e-06
6.34291e-06
1.37621e-06
6.25962e-06
1.37669e-06
6.17158e-06
1.37726e-06
6.07785e-06
1.37791e-06
5.97728e-06
1.37858e-06
5.86932e-06
1.37915e-06
5.7556e-06
1.37959e-06
5.64186e-06
1.38029e-06
5.53706e-06
1.38272e-06
5.44804e-06
1.39166e-06
5.37505e-06
1.4256e-06
5.30673e-06
1.54098e-06
5.07088e-06
1.66265e-06
3.60578e-06
1.45874e-06
-1.4845e-07
9.88253e-07
1.05003e-06
1.31051e-06
6.91093e-06
1.41019e-06
9.27943e-06
1.45062e-06
1.06592e-05
1.64428e-06
1.08224e-05
1.21722e-06
8.55247e-07
1.48193e-06
-2.62741e-06
1.09017e-06
7.40486e-07
1.28699e-06
1.04542e-05
1.31627e-06
1.03059e-05
1.36351e-06
8.55249e-06
1.40935e-06
6.63939e-06
1.39029e-06
4.98751e-06
1.35131e-06
4.58756e-06
1.34853e-06
5.08179e-06
1.35695e-06
5.58602e-06
1.36287e-06
5.91287e-06
1.36621e-06
6.13997e-06
1.36798e-06
5.15087e-06
1.3691e-06
5.0045e-06
1.36984e-06
4.84707e-06
1.37037e-06
4.6853e-06
1.37078e-06
4.52251e-06
1.37113e-06
4.36027e-06
1.37142e-06
4.19941e-06
1.37167e-06
4.04057e-06
1.37189e-06
3.88431e-06
1.37207e-06
3.73112e-06
1.37223e-06
3.58141e-06
1.37237e-06
3.43551e-06
1.37249e-06
3.29366e-06
1.37259e-06
3.15604e-06
1.37267e-06
3.02277e-06
1.37275e-06
2.89392e-06
1.37281e-06
2.76952e-06
1.37287e-06
2.64955e-06
1.37292e-06
2.53401e-06
1.37296e-06
2.42282e-06
1.373e-06
2.31593e-06
1.37303e-06
2.21325e-06
1.37306e-06
2.11468e-06
1.37308e-06
2.02011e-06
1.3731e-06
1.92945e-06
1.37312e-06
1.84257e-06
1.37314e-06
1.75936e-06
1.37316e-06
1.67968e-06
1.37319e-06
1.60341e-06
1.5305e-06
1.37301e-06
1.53079e-06
1.37302e-06
1.60372e-06
1.37303e-06
1.68046e-06
1.37304e-06
1.76081e-06
1.37305e-06
1.8449e-06
1.37306e-06
1.93288e-06
1.37308e-06
2.0249e-06
1.3731e-06
2.12114e-06
1.37313e-06
2.22178e-06
1.37316e-06
2.32696e-06
1.3732e-06
2.43688e-06
1.37324e-06
2.55169e-06
1.37328e-06
2.67158e-06
1.37333e-06
2.79671e-06
1.37339e-06
2.92726e-06
1.37345e-06
3.0634e-06
1.37352e-06
3.2053e-06
1.3736e-06
3.35314e-06
1.37369e-06
3.50706e-06
1.37378e-06
3.66723e-06
1.37389e-06
3.83379e-06
1.37401e-06
4.00687e-06
1.37414e-06
4.18658e-06
1.37429e-06
4.37302e-06
1.37446e-06
4.56623e-06
1.37465e-06
4.76624e-06
1.37486e-06
4.97298e-06
1.3751e-06
5.18634e-06
1.37538e-06
5.40605e-06
1.37569e-06
5.6318e-06
1.37608e-06
6.83603e-06
1.37651e-06
6.77244e-06
1.37699e-06
6.70701e-06
1.37753e-06
6.63953e-06
1.37814e-06
6.56967e-06
1.37884e-06
6.49706e-06
1.37965e-06
6.42131e-06
1.3806e-06
6.34196e-06
1.38171e-06
6.25851e-06
1.38303e-06
6.17026e-06
1.3846e-06
6.07628e-06
1.38641e-06
5.97547e-06
1.38841e-06
5.86732e-06
1.39058e-06
5.75343e-06
1.39336e-06
5.63908e-06
1.3986e-06
5.53182e-06
1.4113e-06
5.43535e-06
1.4446e-06
5.34174e-06
1.53473e-06
5.2166e-06
1.73718e-06
4.86843e-06
1.89619e-06
3.44676e-06
1.293e-06
4.54747e-07
8.24764e-07
1.51826e-06
1.21988e-06
6.51581e-06
1.45129e-06
9.04802e-06
1.5937e-06
1.05168e-05
1.83934e-06
1.05767e-05
1.40894e-06
1.28565e-06
1.3179e-06
-2.53637e-06
8.80357e-07
1.17803e-06
1.10757e-06
1.0227e-05
1.22299e-06
1.01905e-05
1.33229e-06
8.4432e-06
1.41661e-06
6.55507e-06
1.39346e-06
5.01066e-06
1.33447e-06
4.64655e-06
1.32269e-06
5.09356e-06
1.33413e-06
5.57459e-06
1.34599e-06
5.90101e-06
1.35415e-06
6.13181e-06
1.35878e-06
5.14624e-06
1.36191e-06
5.00137e-06
1.36407e-06
4.84491e-06
1.36566e-06
4.68371e-06
1.36689e-06
4.52128e-06
1.36789e-06
4.35927e-06
1.36872e-06
4.19857e-06
1.36943e-06
4.03986e-06
1.37004e-06
3.8837e-06
1.37056e-06
3.7306e-06
1.371e-06
3.58096e-06
1.37138e-06
3.43512e-06
1.37171e-06
3.29333e-06
1.372e-06
3.15576e-06
1.37224e-06
3.02253e-06
1.37245e-06
2.89371e-06
1.37264e-06
2.76933e-06
1.37279e-06
2.6494e-06
1.37293e-06
2.53387e-06
1.37305e-06
2.4227e-06
1.37315e-06
2.31583e-06
1.37324e-06
2.21316e-06
1.37331e-06
2.1146e-06
1.37338e-06
2.02005e-06
1.37343e-06
1.9294e-06
1.37348e-06
1.84252e-06
1.37352e-06
1.75931e-06
1.37357e-06
1.67964e-06
1.37362e-06
1.60336e-06
1.53044e-06
1.37282e-06
1.53077e-06
1.37285e-06
1.60369e-06
1.37288e-06
1.68043e-06
1.3729e-06
1.76079e-06
1.37293e-06
1.84488e-06
1.37295e-06
1.93285e-06
1.37299e-06
2.02487e-06
1.37302e-06
2.12111e-06
1.37306e-06
2.22173e-06
1.37311e-06
2.32691e-06
1.37317e-06
2.43682e-06
1.37323e-06
2.55163e-06
1.3733e-06
2.67151e-06
1.37338e-06
2.79663e-06
1.37347e-06
2.92717e-06
1.37357e-06
3.0633e-06
1.37368e-06
3.20519e-06
1.37381e-06
3.35301e-06
1.37394e-06
3.50692e-06
1.3741e-06
3.66708e-06
1.37427e-06
3.83362e-06
1.37446e-06
4.00668e-06
1.37467e-06
4.18637e-06
1.37491e-06
4.37278e-06
1.37518e-06
4.56596e-06
1.37548e-06
4.76594e-06
1.37582e-06
4.97264e-06
1.3762e-06
5.18595e-06
1.37664e-06
5.40562e-06
1.37713e-06
5.63131e-06
1.37776e-06
6.8354e-06
1.37846e-06
6.77175e-06
1.37922e-06
6.70624e-06
1.38009e-06
6.63866e-06
1.38107e-06
6.56869e-06
1.38219e-06
6.49594e-06
1.38349e-06
6.42001e-06
1.385e-06
6.34045e-06
1.38678e-06
6.25673e-06
1.38891e-06
6.16814e-06
1.39144e-06
6.07375e-06
1.39443e-06
5.97248e-06
1.39794e-06
5.86381e-06
1.4022e-06
5.74917e-06
1.40831e-06
5.63297e-06
1.41938e-06
5.52075e-06
1.4425e-06
5.41223e-06
1.49266e-06
5.29158e-06
1.60223e-06
5.10702e-06
1.80642e-06
4.66425e-06
1.90257e-06
3.35061e-06
1.2604e-06
1.09692e-06
8.18752e-07
1.95991e-06
1.19755e-06
6.13701e-06
1.49236e-06
8.75322e-06
1.70316e-06
1.0306e-05
1.96246e-06
1.03174e-05
1.51468e-06
1.73343e-06
1.23573e-06
-2.25741e-06
7.47861e-07
1.66589e-06
9.60956e-07
1.00139e-05
1.13986e-06
1.00116e-05
1.29799e-06
8.28506e-06
1.40594e-06
6.44713e-06
1.38699e-06
5.02961e-06
1.32473e-06
4.70882e-06
1.30802e-06
5.11027e-06
1.31904e-06
5.56357e-06
1.33316e-06
5.88689e-06
1.34414e-06
6.12082e-06
1.35084e-06
5.13955e-06
1.3556e-06
4.99661e-06
1.35903e-06
4.84148e-06
1.36157e-06
4.68116e-06
1.36356e-06
4.51929e-06
1.36518e-06
4.35765e-06
1.36652e-06
4.19723e-06
1.36765e-06
4.03873e-06
1.36862e-06
3.88274e-06
1.36944e-06
3.72978e-06
1.37015e-06
3.58026e-06
1.37076e-06
3.43452e-06
1.37128e-06
3.29281e-06
1.37173e-06
3.15531e-06
1.37212e-06
3.02214e-06
1.37245e-06
2.89337e-06
1.37274e-06
2.76904e-06
1.37299e-06
2.64915e-06
1.37321e-06
2.53366e-06
1.37339e-06
2.42252e-06
1.37355e-06
2.31567e-06
1.37368e-06
2.21303e-06
1.3738e-06
2.11449e-06
1.37389e-06
2.01995e-06
1.37397e-06
1.92932e-06
1.37404e-06
1.84246e-06
1.37409e-06
1.75926e-06
1.37413e-06
1.67959e-06
1.37418e-06
1.60332e-06
1.53041e-06
1.37259e-06
1.53074e-06
1.37263e-06
1.60365e-06
1.37267e-06
1.68039e-06
1.3727e-06
1.76075e-06
1.37274e-06
1.84484e-06
1.37277e-06
1.93281e-06
1.37282e-06
2.02483e-06
1.37287e-06
2.12106e-06
1.37292e-06
2.22168e-06
1.37299e-06
2.32685e-06
1.37306e-06
2.43675e-06
1.37315e-06
2.55154e-06
1.37324e-06
2.67141e-06
1.37335e-06
2.79652e-06
1.37347e-06
2.92705e-06
1.3736e-06
3.06316e-06
1.37375e-06
3.20504e-06
1.37392e-06
3.35285e-06
1.37411e-06
3.50674e-06
1.37432e-06
3.66687e-06
1.37455e-06
3.83339e-06
1.37481e-06
4.00642e-06
1.37509e-06
4.18608e-06
1.37541e-06
4.37246e-06
1.37578e-06
4.5656e-06
1.37618e-06
4.76553e-06
1.37664e-06
4.97219e-06
1.37716e-06
5.18543e-06
1.37774e-06
5.40503e-06
1.3784e-06
5.63065e-06
1.37926e-06
6.83454e-06
1.38019e-06
6.77081e-06
1.38123e-06
6.7052e-06
1.3824e-06
6.6375e-06
1.38372e-06
6.56736e-06
1.38524e-06
6.49443e-06
1.38698e-06
6.41826e-06
1.38902e-06
6.33841e-06
1.39143e-06
6.25432e-06
1.3943e-06
6.16527e-06
1.39773e-06
6.07031e-06
1.40186e-06
5.96835e-06
1.40685e-06
5.85882e-06
1.41319e-06
5.74283e-06
1.42237e-06
5.62379e-06
1.43804e-06
5.50508e-06
1.4675e-06
5.38278e-06
1.524e-06
5.23508e-06
1.63082e-06
5.0002e-06
1.79795e-06
4.49712e-06
1.82343e-06
3.32513e-06
1.26116e-06
1.6592e-06
8.69063e-07
2.352e-06
1.20288e-06
5.80319e-06
1.53011e-06
8.42599e-06
1.78705e-06
1.00491e-05
2.05047e-06
1.0054e-05
1.5851e-06
2.19881e-06
1.15897e-06
-1.83128e-06
6.46429e-07
2.17843e-06
8.52851e-07
9.80747e-06
1.07852e-06
9.7859e-06
1.27149e-06
8.09209e-06
1.39267e-06
6.32595e-06
1.37867e-06
5.04361e-06
1.31845e-06
4.76904e-06
1.29944e-06
5.12928e-06
1.30924e-06
5.55377e-06
1.32407e-06
5.87206e-06
1.33658e-06
6.10831e-06
1.34462e-06
5.13151e-06
1.35056e-06
4.99067e-06
1.35496e-06
4.83709e-06
1.35831e-06
4.67782e-06
1.36094e-06
4.51665e-06
1.36309e-06
4.3555e-06
1.36488e-06
4.19544e-06
1.36639e-06
4.03722e-06
1.36767e-06
3.88146e-06
1.36877e-06
3.72868e-06
1.36971e-06
3.57932e-06
1.37052e-06
3.43371e-06
1.37121e-06
3.29211e-06
1.37182e-06
3.1547e-06
1.37233e-06
3.02162e-06
1.37278e-06
2.89292e-06
1.37317e-06
2.76866e-06
1.3735e-06
2.64881e-06
1.37379e-06
2.53337e-06
1.37403e-06
2.42228e-06
1.37424e-06
2.31546e-06
1.37441e-06
2.21285e-06
1.37456e-06
2.11434e-06
1.37468e-06
2.01983e-06
1.37478e-06
1.92922e-06
1.37486e-06
1.84238e-06
1.37492e-06
1.7592e-06
1.37497e-06
1.67955e-06
1.375e-06
1.60328e-06
1.53038e-06
1.37232e-06
1.53073e-06
1.37236e-06
1.60362e-06
1.3724e-06
1.68035e-06
1.37244e-06
1.76071e-06
1.37248e-06
1.8448e-06
1.37252e-06
1.93277e-06
1.37258e-06
2.02477e-06
1.37264e-06
2.121e-06
1.37271e-06
2.22161e-06
1.37279e-06
2.32677e-06
1.37288e-06
2.43666e-06
1.37298e-06
2.55144e-06
1.3731e-06
2.67129e-06
1.37323e-06
2.79639e-06
1.37338e-06
2.9269e-06
1.37354e-06
3.063e-06
1.37373e-06
3.20486e-06
1.37394e-06
3.35264e-06
1.37417e-06
3.50651e-06
1.37442e-06
3.66661e-06
1.37471e-06
3.8331e-06
1.37503e-06
4.0061e-06
1.37539e-06
4.18573e-06
1.37579e-06
4.37206e-06
1.37623e-06
4.56516e-06
1.37673e-06
4.76503e-06
1.3773e-06
4.97162e-06
1.37794e-06
5.18479e-06
1.37866e-06
5.40431e-06
1.37947e-06
5.62984e-06
1.38053e-06
6.83348e-06
1.38169e-06
6.76966e-06
1.38297e-06
6.70392e-06
1.38441e-06
6.63606e-06
1.38604e-06
6.56573e-06
1.3879e-06
6.49256e-06
1.39005e-06
6.41612e-06
1.39255e-06
6.33591e-06
1.3955e-06
6.25137e-06
1.39902e-06
6.16176e-06
1.40324e-06
6.06608e-06
1.40835e-06
5.96324e-06
1.4146e-06
5.85257e-06
1.42264e-06
5.73479e-06
1.43413e-06
5.6123e-06
1.4527e-06
5.48652e-06
1.48498e-06
5.35049e-06
1.54158e-06
5.17848e-06
1.6359e-06
4.90588e-06
1.75526e-06
4.37776e-06
1.72447e-06
3.35592e-06
1.26715e-06
2.11652e-06
9.40035e-07
2.67912e-06
1.21613e-06
5.52709e-06
1.55299e-06
8.08913e-06
1.83795e-06
9.76411e-06
2.09681e-06
9.79514e-06
1.64263e-06
2.65299e-06
1.09188e-06
-1.28053e-06
5.84247e-07
2.68607e-06
7.87912e-07
9.6038e-06
1.04226e-06
9.53155e-06
1.25482e-06
7.87954e-06
1.37926e-06
6.20151e-06
1.37042e-06
5.05244e-06
1.31607e-06
4.8234e-06
1.29632e-06
5.14903e-06
1.30416e-06
5.54594e-06
1.31852e-06
5.8577e-06
1.33159e-06
6.09523e-06
1.34036e-06
5.12275e-06
1.34704e-06
4.98398e-06
1.35212e-06
4.832e-06
1.35606e-06
4.67388e-06
1.3592e-06
4.51351e-06
1.36177e-06
4.35293e-06
1.36393e-06
4.19329e-06
1.36575e-06
4.0354e-06
1.3673e-06
3.8799e-06
1.36862e-06
3.72735e-06
1.36976e-06
3.57818e-06
1.37075e-06
3.43273e-06
1.37159e-06
3.29126e-06
1.37232e-06
3.15397e-06
1.37296e-06
3.02099e-06
1.3735e-06
2.89238e-06
1.37397e-06
2.76819e-06
1.37437e-06
2.64841e-06
1.37472e-06
2.53302e-06
1.37502e-06
2.42198e-06
1.37527e-06
2.31521e-06
1.37548e-06
2.21264e-06
1.37566e-06
2.11416e-06
1.37581e-06
2.01969e-06
1.37592e-06
1.9291e-06
1.37602e-06
1.84229e-06
1.37609e-06
1.75913e-06
1.37615e-06
1.67949e-06
1.37619e-06
1.60324e-06
1.53036e-06
1.372e-06
1.53071e-06
1.37203e-06
1.60359e-06
1.37207e-06
1.68032e-06
1.37211e-06
1.76067e-06
1.37215e-06
1.84476e-06
1.3722e-06
1.93272e-06
1.37226e-06
2.02472e-06
1.37233e-06
2.12093e-06
1.37241e-06
2.22153e-06
1.3725e-06
2.32668e-06
1.3726e-06
2.43655e-06
1.37272e-06
2.55132e-06
1.37286e-06
2.67116e-06
1.37301e-06
2.79623e-06
1.37319e-06
2.92673e-06
1.37338e-06
3.0628e-06
1.3736e-06
3.20464e-06
1.37384e-06
3.3524e-06
1.37411e-06
3.50624e-06
1.37441e-06
3.66631e-06
1.37475e-06
3.83277e-06
1.37512e-06
4.00573e-06
1.37554e-06
4.18531e-06
1.37601e-06
4.37159e-06
1.37653e-06
4.56463e-06
1.37712e-06
4.76444e-06
1.37778e-06
4.97096e-06
1.37853e-06
5.18405e-06
1.37937e-06
5.40347e-06
1.38032e-06
5.6289e-06
1.38155e-06
6.83225e-06
1.3829e-06
6.76831e-06
1.3844e-06
6.70243e-06
1.38607e-06
6.63438e-06
1.38796e-06
6.56384e-06
1.39012e-06
6.49041e-06
1.3926e-06
6.41363e-06
1.39549e-06
6.33302e-06
1.39889e-06
6.24798e-06
1.40293e-06
6.15772e-06
1.40777e-06
6.06123e-06
1.41364e-06
5.95738e-06
1.42083e-06
5.84538e-06
1.43007e-06
5.72555e-06
1.44301e-06
5.59936e-06
1.463e-06
5.46653e-06
1.49558e-06
5.31791e-06
1.54819e-06
5.12587e-06
1.62536e-06
4.8287e-06
1.70059e-06
4.30253e-06
1.63692e-06
3.41959e-06
1.27248e-06
2.48096e-06
1.00808e-06
2.94352e-06
1.22842e-06
5.30675e-06
1.55651e-06
7.76104e-06
1.85086e-06
9.46976e-06
2.10065e-06
9.54534e-06
1.67192e-06
3.08173e-06
1.04154e-06
-6.50156e-07
5.62491e-07
3.16512e-06
7.6636e-07
9.39993e-06
1.03038e-06
9.26753e-06
1.24872e-06
7.6612e-06
1.37041e-06
6.07982e-06
1.36484e-06
5.05802e-06
1.31734e-06
4.87089e-06
1.29787e-06
5.1685e-06
1.3034e-06
5.54041e-06
1.3164e-06
5.84469e-06
1.32921e-06
6.08242e-06
1.33816e-06
5.1138e-06
1.34519e-06
4.97694e-06
1.35066e-06
4.82653e-06
1.35498e-06
4.66957e-06
1.35846e-06
4.51003e-06
1.36134e-06
4.35005e-06
1.36376e-06
4.19087e-06
1.36582e-06
4.03334e-06
1.36758e-06
3.87815e-06
1.36909e-06
3.72584e-06
1.37038e-06
3.57688e-06
1.37151e-06
3.43161e-06
1.37247e-06
3.29029e-06
1.37331e-06
3.15314e-06
1.37404e-06
3.02026e-06
1.37466e-06
2.89175e-06
1.3752e-06
2.76765e-06
1.37567e-06
2.64794e-06
1.37606e-06
2.53262e-06
1.37641e-06
2.42164e-06
1.3767e-06
2.31492e-06
1.37694e-06
2.21239e-06
1.37714e-06
2.11396e-06
1.37731e-06
2.01952e-06
1.37745e-06
1.92896e-06
1.37756e-06
1.84218e-06
1.37765e-06
1.75904e-06
1.37771e-06
1.67942e-06
1.37776e-06
1.60319e-06
1.53034e-06
1.37159e-06
1.5307e-06
1.37161e-06
1.60356e-06
1.37165e-06
1.68028e-06
1.37169e-06
1.76063e-06
1.37173e-06
1.84471e-06
1.37179e-06
1.93266e-06
1.37185e-06
2.02465e-06
1.37192e-06
2.12086e-06
1.37201e-06
2.22144e-06
1.37211e-06
2.32658e-06
1.37223e-06
2.43643e-06
1.37237e-06
2.55119e-06
1.37252e-06
2.671e-06
1.37269e-06
2.79606e-06
1.37289e-06
2.92653e-06
1.3731e-06
3.06259e-06
1.37335e-06
3.20439e-06
1.37362e-06
3.35212e-06
1.37393e-06
3.50593e-06
1.37427e-06
3.66597e-06
1.37465e-06
3.83239e-06
1.37507e-06
4.0053e-06
1.37555e-06
4.18483e-06
1.37608e-06
4.37106e-06
1.37667e-06
4.56404e-06
1.37733e-06
4.76378e-06
1.37808e-06
4.97021e-06
1.37892e-06
5.18321e-06
1.37986e-06
5.40252e-06
1.38092e-06
5.62784e-06
1.38231e-06
6.83086e-06
1.38382e-06
6.76679e-06
1.3855e-06
6.70075e-06
1.38737e-06
6.63251e-06
1.38947e-06
6.56174e-06
1.39187e-06
6.48801e-06
1.39462e-06
6.41089e-06
1.3978e-06
6.32984e-06
1.40153e-06
6.24425e-06
1.40594e-06
6.1533e-06
1.41122e-06
6.05596e-06
1.41757e-06
5.95103e-06
1.42535e-06
5.8376e-06
1.43524e-06
5.71566e-06
1.44878e-06
5.58582e-06
1.46884e-06
5.44647e-06
1.49966e-06
5.28709e-06
1.54557e-06
5.07996e-06
1.60475e-06
4.76952e-06
1.64583e-06
4.26145e-06
1.56682e-06
3.4986e-06
1.27497e-06
2.77281e-06
1.06101e-06
3.15748e-06
1.23311e-06
5.13465e-06
1.53985e-06
7.45429e-06
1.8286e-06
9.18102e-06
2.06783e-06
9.30611e-06
1.67226e-06
3.47729e-06
1.01133e-06
1.07777e-08
5.7636e-07
3.60009e-06
7.81627e-07
9.19467e-06
1.04111e-06
9.00804e-06
1.25421e-06
7.4481e-06
1.36722e-06
5.96681e-06
1.36352e-06
5.06171e-06
1.32205e-06
4.91236e-06
1.30308e-06
5.18747e-06
1.30626e-06
5.53723e-06
1.3174e-06
5.83355e-06
1.32931e-06
6.07051e-06
1.338e-06
5.10511e-06
1.34503e-06
4.96991e-06
1.35063e-06
4.82094e-06
1.35511e-06
4.66508e-06
1.35878e-06
4.50636e-06
1.36185e-06
4.34699e-06
1.36444e-06
4.18828e-06
1.36665e-06
4.03113e-06
1.36855e-06
3.87625e-06
1.37019e-06
3.7242e-06
1.3716e-06
3.57546e-06
1.37283e-06
3.43038e-06
1.37389e-06
3.28923e-06
1.37481e-06
3.15222e-06
1.3756e-06
3.01947e-06
1.37629e-06
2.89107e-06
1.37688e-06
2.76705e-06
1.3774e-06
2.64743e-06
1.37784e-06
2.53218e-06
1.37821e-06
2.42126e-06
1.37853e-06
2.3146e-06
1.3788e-06
2.21212e-06
1.37903e-06
2.11373e-06
1.37922e-06
2.01933e-06
1.37937e-06
1.92881e-06
1.37949e-06
1.84205e-06
1.37959e-06
1.75894e-06
1.37966e-06
1.67935e-06
1.37971e-06
1.60314e-06
1.53032e-06
1.37106e-06
1.53069e-06
1.37108e-06
1.60354e-06
1.37112e-06
1.68025e-06
1.37116e-06
1.76059e-06
1.37121e-06
1.84466e-06
1.37127e-06
1.9326e-06
1.37134e-06
2.02458e-06
1.37142e-06
2.12077e-06
1.37152e-06
2.22134e-06
1.37163e-06
2.32646e-06
1.37176e-06
2.43631e-06
1.3719e-06
2.55104e-06
1.37207e-06
2.67084e-06
1.37226e-06
2.79587e-06
1.37247e-06
2.92632e-06
1.37271e-06
3.06235e-06
1.37298e-06
3.20412e-06
1.37328e-06
3.35182e-06
1.37362e-06
3.50559e-06
1.374e-06
3.6656e-06
1.37441e-06
3.83197e-06
1.37488e-06
4.00484e-06
1.3754e-06
4.18431e-06
1.37598e-06
4.37048e-06
1.37663e-06
4.56339e-06
1.37736e-06
4.76305e-06
1.37818e-06
4.96939e-06
1.3791e-06
5.18229e-06
1.38013e-06
5.40149e-06
1.38129e-06
5.62669e-06
1.3828e-06
6.82934e-06
1.38445e-06
6.76514e-06
1.38627e-06
6.69894e-06
1.38829e-06
6.63049e-06
1.39056e-06
6.55947e-06
1.39313e-06
6.48544e-06
1.39606e-06
6.40795e-06
1.39945e-06
6.32646e-06
1.40339e-06
6.24031e-06
1.40802e-06
6.14867e-06
1.41352e-06
6.05046e-06
1.4201e-06
5.94445e-06
1.42806e-06
5.82963e-06
1.43806e-06
5.70566e-06
1.45139e-06
5.57249e-06
1.47036e-06
5.4275e-06
1.4979e-06
5.25955e-06
1.53584e-06
5.04203e-06
1.57855e-06
4.7268e-06
1.59503e-06
4.24498e-06
1.51017e-06
3.58346e-06
1.27279e-06
3.01019e-06
1.09645e-06
3.33381e-06
1.22694e-06
5.00416e-06
1.50447e-06
7.17676e-06
1.77846e-06
8.90703e-06
2.0071e-06
9.07748e-06
1.65106e-06
3.83333e-06
1.00217e-06
6.59667e-07
6.21288e-07
3.98096e-06
8.26556e-07
8.9894e-06
1.07236e-06
8.76224e-06
1.27143e-06
7.24904e-06
1.3724e-06
5.86583e-06
1.36745e-06
5.06667e-06
1.33015e-06
4.94966e-06
1.3113e-06
5.20631e-06
1.31211e-06
5.53642e-06
1.32112e-06
5.82455e-06
1.33171e-06
6.05992e-06
1.33979e-06
5.09703e-06
1.34652e-06
4.96319e-06
1.35199e-06
4.81547e-06
1.35646e-06
4.66061e-06
1.36017e-06
4.50265e-06
1.3633e-06
4.34386e-06
1.36596e-06
4.18561e-06
1.36826e-06
4.02884e-06
1.37023e-06
3.87427e-06
1.37195e-06
3.72249e-06
1.37343e-06
3.57398e-06
1.37473e-06
3.42909e-06
1.37585e-06
3.28811e-06
1.37682e-06
3.15124e-06
1.37766e-06
3.01862e-06
1.3784e-06
2.89033e-06
1.37903e-06
2.76642e-06
1.37958e-06
2.64689e-06
1.38005e-06
2.53171e-06
1.38045e-06
2.42086e-06
1.38079e-06
2.31426e-06
1.38108e-06
2.21183e-06
1.38132e-06
2.11349e-06
1.38152e-06
2.01913e-06
1.38169e-06
1.92865e-06
1.38182e-06
1.84192e-06
1.38192e-06
1.75884e-06
1.38199e-06
1.67928e-06
1.38204e-06
1.60309e-06
1.53029e-06
1.37041e-06
1.53068e-06
1.37044e-06
1.60351e-06
1.37048e-06
1.68021e-06
1.37053e-06
1.76054e-06
1.37058e-06
1.84461e-06
1.37064e-06
1.93254e-06
1.37072e-06
2.02451e-06
1.37081e-06
2.12069e-06
1.37091e-06
2.22124e-06
1.37103e-06
2.32635e-06
1.37117e-06
2.43617e-06
1.37133e-06
2.55088e-06
1.37151e-06
2.67066e-06
1.37171e-06
2.79567e-06
1.37194e-06
2.92609e-06
1.3722e-06
3.06209e-06
1.37249e-06
3.20383e-06
1.37282e-06
3.3515e-06
1.37318e-06
3.50523e-06
1.37358e-06
3.66519e-06
1.37404e-06
3.83151e-06
1.37454e-06
4.00433e-06
1.3751e-06
4.18375e-06
1.37573e-06
4.36985e-06
1.37643e-06
4.56269e-06
1.37721e-06
4.76226e-06
1.37809e-06
4.96852e-06
1.37908e-06
5.1813e-06
1.38018e-06
5.40039e-06
1.38141e-06
5.62545e-06
1.38303e-06
6.82773e-06
1.38478e-06
6.76339e-06
1.38671e-06
6.69701e-06
1.38884e-06
6.62836e-06
1.39122e-06
6.55709e-06
1.3939e-06
6.48276e-06
1.39694e-06
6.40491e-06
1.40043e-06
6.32297e-06
1.40445e-06
6.23628e-06
1.40915e-06
6.14397e-06
1.41466e-06
6.04494e-06
1.42118e-06
5.93793e-06
1.42897e-06
5.82185e-06
1.43855e-06
5.69608e-06
1.45098e-06
5.56006e-06
1.46795e-06
5.41052e-06
1.49131e-06
5.2362e-06
1.52101e-06
5.01233e-06
1.54941e-06
4.6984e-06
1.54819e-06
4.2462e-06
1.46223e-06
3.66942e-06
1.26529e-06
3.20713e-06
1.1162e-06
3.4829e-06
1.21039e-06
4.90998e-06
1.45352e-06
6.93363e-06
1.70907e-06
8.65149e-06
1.92992e-06
8.85662e-06
1.61937e-06
4.14388e-06
1.01425e-06
1.26479e-06
6.92296e-07
4.30291e-06
8.94855e-07
8.78684e-06
1.12111e-06
8.53598e-06
1.29879e-06
7.07135e-06
1.38357e-06
5.78106e-06
1.37632e-06
5.07391e-06
1.34154e-06
4.98445e-06
1.32222e-06
5.22563e-06
1.32054e-06
5.5381e-06
1.3272e-06
5.81789e-06
1.33616e-06
6.05096e-06
1.34336e-06
5.08983e-06
1.34955e-06
4.957e-06
1.3547e-06
4.81031e-06
1.35899e-06
4.65632e-06
1.3626e-06
4.49904e-06
1.36568e-06
4.34078e-06
1.36833e-06
4.18296e-06
1.37062e-06
4.02654e-06
1.37262e-06
3.87227e-06
1.37436e-06
3.72075e-06
1.37587e-06
3.57246e-06
1.3772e-06
3.42777e-06
1.37835e-06
3.28696e-06
1.37935e-06
3.15024e-06
1.38022e-06
3.01775e-06
1.38098e-06
2.88957e-06
1.38164e-06
2.76576e-06
1.38221e-06
2.64632e-06
1.3827e-06
2.53123e-06
1.38312e-06
2.42044e-06
1.38347e-06
2.3139e-06
1.38377e-06
2.21153e-06
1.38402e-06
2.11324e-06
1.38423e-06
2.01892e-06
1.3844e-06
1.92848e-06
1.38453e-06
1.84179e-06
1.38464e-06
1.75874e-06
1.38471e-06
1.6792e-06
1.38476e-06
1.60304e-06
1.53027e-06
1.36965e-06
1.53066e-06
1.36968e-06
1.60348e-06
1.36972e-06
1.68017e-06
1.36977e-06
1.76049e-06
1.36984e-06
1.84455e-06
1.36991e-06
1.93247e-06
1.36999e-06
2.02443e-06
1.37008e-06
2.12059e-06
1.37019e-06
2.22113e-06
1.37032e-06
2.32622e-06
1.37047e-06
2.43602e-06
1.37063e-06
2.55071e-06
1.37083e-06
2.67047e-06
1.37104e-06
2.79545e-06
1.37129e-06
2.92584e-06
1.37156e-06
3.06181e-06
1.37187e-06
3.20352e-06
1.37222e-06
3.35115e-06
1.37261e-06
3.50484e-06
1.37304e-06
3.66476e-06
1.37352e-06
3.83103e-06
1.37405e-06
4.0038e-06
1.37465e-06
4.18315e-06
1.37531e-06
4.36919e-06
1.37606e-06
4.56195e-06
1.37688e-06
4.76144e-06
1.37781e-06
4.96759e-06
1.37885e-06
5.18027e-06
1.38001e-06
5.39923e-06
1.3813e-06
5.62416e-06
1.38299e-06
6.82604e-06
1.38481e-06
6.76157e-06
1.38681e-06
6.69502e-06
1.38901e-06
6.62616e-06
1.39145e-06
6.55465e-06
1.39418e-06
6.48003e-06
1.39725e-06
6.40184e-06
1.40073e-06
6.31949e-06
1.40472e-06
6.23229e-06
1.40932e-06
6.13937e-06
1.41465e-06
6.03961e-06
1.42085e-06
5.93174e-06
1.42811e-06
5.81458e-06
1.43682e-06
5.68736e-06
1.44777e-06
5.54912e-06
1.46212e-06
5.39617e-06
1.4808e-06
5.21752e-06
1.50246e-06
4.99067e-06
1.51858e-06
4.68228e-06
1.5044e-06
4.26038e-06
1.41966e-06
3.75416e-06
1.25259e-06
3.37419e-06
1.1227e-06
3.6128e-06
1.1856e-06
4.84707e-06
1.38981e-06
6.72941e-06
1.6293e-06
8.41201e-06
1.84755e-06
8.63837e-06
1.58751e-06
4.40392e-06
1.04571e-06
1.80659e-06
7.82237e-07
4.56639e-06
9.79813e-07
8.58926e-06
1.18272e-06
8.33307e-06
1.33397e-06
6.9201e-06
1.40113e-06
5.7139e-06
1.38979e-06
5.08525e-06
1.35594e-06
5.0183e-06
1.33557e-06
5.24599e-06
1.33127e-06
5.54239e-06
1.33541e-06
5.81376e-06
1.34247e-06
6.04389e-06
1.34858e-06
5.08372e-06
1.35403e-06
4.95155e-06
1.35869e-06
4.80565e-06
1.36264e-06
4.65237e-06
1.36603e-06
4.49566e-06
1.36896e-06
4.33786e-06
1.37151e-06
4.18041e-06
1.37374e-06
4.02431e-06
1.3757e-06
3.87031e-06
1.37741e-06
3.71904e-06
1.37892e-06
3.57095e-06
1.38024e-06
3.42645e-06
1.38139e-06
3.28581e-06
1.3824e-06
3.14923e-06
1.38328e-06
3.01687e-06
1.38405e-06
2.88881e-06
1.38472e-06
2.76509e-06
1.38529e-06
2.64574e-06
1.38579e-06
2.53073e-06
1.38622e-06
2.42002e-06
1.38658e-06
2.31354e-06
1.38689e-06
2.21123e-06
1.38714e-06
2.11298e-06
1.38735e-06
2.01871e-06
1.38752e-06
1.92831e-06
1.38766e-06
1.84165e-06
1.38776e-06
1.75863e-06
1.38784e-06
1.67912e-06
1.38789e-06
1.60299e-06
1.53024e-06
1.36878e-06
1.53065e-06
1.36881e-06
1.60345e-06
1.36886e-06
1.68012e-06
1.36891e-06
1.76044e-06
1.36898e-06
1.84448e-06
1.36905e-06
1.93239e-06
1.36914e-06
2.02434e-06
1.36924e-06
2.12049e-06
1.36936e-06
2.22101e-06
1.36949e-06
2.32608e-06
1.36965e-06
2.43587e-06
1.36982e-06
2.55054e-06
1.37003e-06
2.67026e-06
1.37025e-06
2.79522e-06
1.37051e-06
2.92558e-06
1.3708e-06
3.06152e-06
1.37113e-06
3.2032e-06
1.37149e-06
3.35079e-06
1.3719e-06
3.50444e-06
1.37235e-06
3.66431e-06
1.37285e-06
3.83053e-06
1.37342e-06
4.00324e-06
1.37404e-06
4.18253e-06
1.37473e-06
4.36849e-06
1.37551e-06
4.56117e-06
1.37637e-06
4.76057e-06
1.37734e-06
4.96663e-06
1.37841e-06
5.17919e-06
1.37961e-06
5.39803e-06
1.38094e-06
5.62283e-06
1.38268e-06
6.8243e-06
1.38455e-06
6.7597e-06
1.38658e-06
6.69299e-06
1.3888e-06
6.62394e-06
1.39124e-06
6.5522e-06
1.39395e-06
6.47732e-06
1.39697e-06
6.39882e-06
1.40036e-06
6.3161e-06
1.40419e-06
6.22846e-06
1.40854e-06
6.13503e-06
1.41349e-06
6.03466e-06
1.41912e-06
5.92611e-06
1.42555e-06
5.80815e-06
1.43302e-06
5.67989e-06
1.44205e-06
5.54009e-06
1.45334e-06
5.38488e-06
1.4671e-06
5.20376e-06
1.48111e-06
4.97666e-06
1.4867e-06
4.67669e-06
1.46287e-06
4.28421e-06
1.38009e-06
3.83694e-06
1.23526e-06
3.51901e-06
1.11872e-06
3.72935e-06
1.15583e-06
4.80996e-06
1.32769e-06
6.55755e-06
1.54758e-06
8.19212e-06
1.76869e-06
8.41726e-06
1.56252e-06
4.61009e-06
1.09201e-06
2.2771e-06
8.82132e-07
4.77627e-06
1.07339e-06
8.39801e-06
1.25152e-06
8.15494e-06
1.37375e-06
6.79787e-06
1.42345e-06
5.6642e-06
1.40704e-06
5.10166e-06
1.37301e-06
5.05232e-06
1.35109e-06
5.26792e-06
1.34406e-06
5.54943e-06
1.34552e-06
5.8123e-06
1.35049e-06
6.03892e-06
1.35533e-06
5.07888e-06
1.35986e-06
4.94701e-06
1.36388e-06
4.80164e-06
1.36737e-06
4.64887e-06
1.37043e-06
4.4926e-06
1.37312e-06
4.33517e-06
1.37549e-06
4.17803e-06
1.3776e-06
4.0222e-06
1.37946e-06
3.86845e-06
1.38111e-06
3.71739e-06
1.38257e-06
3.5695e-06
1.38385e-06
3.42517e-06
1.38498e-06
3.28468e-06
1.38597e-06
3.14824e-06
1.38684e-06
3.016e-06
1.3876e-06
2.88805e-06
1.38827e-06
2.76443e-06
1.38884e-06
2.64517e-06
1.38934e-06
2.53023e-06
1.38976e-06
2.41959e-06
1.39012e-06
2.31318e-06
1.39043e-06
2.21092e-06
1.39069e-06
2.11273e-06
1.3909e-06
2.0185e-06
1.39107e-06
1.92814e-06
1.39121e-06
1.84152e-06
1.39131e-06
1.75853e-06
1.39139e-06
1.67905e-06
1.39144e-06
1.60294e-06
1.53022e-06
1.3678e-06
1.53063e-06
1.36783e-06
1.60341e-06
1.36788e-06
1.68007e-06
1.36794e-06
1.76038e-06
1.36801e-06
1.84441e-06
1.36809e-06
1.93231e-06
1.36818e-06
2.02425e-06
1.36828e-06
2.12038e-06
1.36841e-06
2.22089e-06
1.36855e-06
2.32594e-06
1.36871e-06
2.4357e-06
1.36889e-06
2.55035e-06
1.3691e-06
2.67005e-06
1.36934e-06
2.79499e-06
1.36961e-06
2.92532e-06
1.36991e-06
3.06122e-06
1.37025e-06
3.20286e-06
1.37063e-06
3.35041e-06
1.37105e-06
3.50402e-06
1.37152e-06
3.66384e-06
1.37204e-06
3.83001e-06
1.37262e-06
4.00265e-06
1.37327e-06
4.18188e-06
1.37399e-06
4.36778e-06
1.37479e-06
4.56038e-06
1.37567e-06
4.75969e-06
1.37666e-06
4.96564e-06
1.37776e-06
5.17809e-06
1.37898e-06
5.39681e-06
1.38034e-06
5.62147e-06
1.3821e-06
6.82255e-06
1.38397e-06
6.75782e-06
1.386e-06
6.69096e-06
1.3882e-06
6.62174e-06
1.3906e-06
6.5498e-06
1.39323e-06
6.4747e-06
1.39612e-06
6.39592e-06
1.39932e-06
6.3129e-06
1.40288e-06
6.22491e-06
1.40683e-06
6.13107e-06
1.41122e-06
6.03027e-06
1.41608e-06
5.92125e-06
1.42141e-06
5.80281e-06
1.42734e-06
5.67396e-06
1.43412e-06
5.53331e-06
1.44207e-06
5.37693e-06
1.45084e-06
5.19499e-06
1.45767e-06
4.96984e-06
1.45424e-06
4.68012e-06
1.42305e-06
4.3154e-06
1.34261e-06
3.91738e-06
1.21391e-06
3.64772e-06
1.10664e-06
3.83661e-06
1.12186e-06
4.79474e-06
1.26365e-06
6.41576e-06
1.46952e-06
7.98625e-06
1.6985e-06
8.18828e-06
1.5468e-06
4.76179e-06
1.1462e-06
2.6777e-06
9.82665e-07
4.9398e-06
1.16686e-06
8.21382e-06
1.3224e-06
7.9994e-06
1.41804e-06
6.70224e-06
1.44934e-06
5.63289e-06
1.42731e-06
5.1237e-06
1.39215e-06
5.08748e-06
1.36846e-06
5.29161e-06
1.35863e-06
5.55926e-06
1.35732e-06
5.8136e-06
1.36005e-06
6.03619e-06
1.36346e-06
5.07547e-06
1.36695e-06
4.94353e-06
1.37019e-06
4.7984e-06
1.37312e-06
4.64595e-06
1.37575e-06
4.48997e-06
1.37812e-06
4.3328e-06
1.38025e-06
4.1759e-06
1.38217e-06
4.02028e-06
1.3839e-06
3.86673e-06
1.38544e-06
3.71585e-06
1.38681e-06
3.56812e-06
1.38803e-06
3.42394e-06
1.38911e-06
3.28359e-06
1.39007e-06
3.14728e-06
1.39091e-06
3.01516e-06
1.39165e-06
2.88731e-06
1.39229e-06
2.76379e-06
1.39285e-06
2.6446e-06
1.39334e-06
2.52975e-06
1.39376e-06
2.41917e-06
1.39412e-06
2.31282e-06
1.39442e-06
2.21062e-06
1.39467e-06
2.11248e-06
1.39488e-06
2.01829e-06
1.39505e-06
1.92796e-06
1.39519e-06
1.84138e-06
1.39529e-06
1.75842e-06
1.39537e-06
1.67897e-06
1.39543e-06
1.60289e-06
1.53019e-06
1.36671e-06
1.53062e-06
1.36675e-06
1.60338e-06
1.36679e-06
1.68003e-06
1.36685e-06
1.76032e-06
1.36692e-06
1.84434e-06
1.36701e-06
1.93223e-06
1.3671e-06
2.02415e-06
1.36721e-06
2.12027e-06
1.36734e-06
2.22077e-06
1.36748e-06
2.3258e-06
1.36765e-06
2.43554e-06
1.36784e-06
2.55016e-06
1.36806e-06
2.66984e-06
1.3683e-06
2.79474e-06
1.36858e-06
2.92504e-06
1.36889e-06
3.06091e-06
1.36924e-06
3.20251e-06
1.36963e-06
3.35002e-06
1.37006e-06
3.50358e-06
1.37054e-06
3.66335e-06
1.37108e-06
3.82947e-06
1.37168e-06
4.00206e-06
1.37234e-06
4.18122e-06
1.37307e-06
4.36704e-06
1.37388e-06
4.55956e-06
1.37478e-06
4.75878e-06
1.37579e-06
4.96464e-06
1.3769e-06
5.17698e-06
1.37813e-06
5.39558e-06
1.37948e-06
5.62012e-06
1.38124e-06
6.8208e-06
1.38309e-06
6.75596e-06
1.38508e-06
6.68898e-06
1.38722e-06
6.61961e-06
1.38952e-06
6.5475e-06
1.39201e-06
6.47221e-06
1.3947e-06
6.39323e-06
1.39763e-06
6.30997e-06
1.4008e-06