/*--------------------------------*- C++ -*----------------------------------*\
  =========                 |
  \\      /  F ield         | OpenFOAM: The Open Source CFD Toolbox
   \\    /   O peration     | Website:  https://openfoam.org
    \\  /    A nd           | Version:  9
     \\/     M anipulation  |
\*---------------------------------------------------------------------------*/
FoamFile
{
    format      ascii;
    class       volScalarField;
    location    "0.05";
    object      rAU;
}
// * * * * * * * * * * * * * * * * * * * * * * * * * * * * * * * * * * * * * //

dimensions      [-1 3 1 0 0 0 0];

internalField   nonuniform List<scalar> 
20000
(
1.43642e-05
1.79264e-05
1.82269e-05
1.85135e-05
1.87866e-05
1.90465e-05
1.92937e-05
1.95287e-05
1.9752e-05
1.99643e-05
2.0166e-05
2.03579e-05
2.05404e-05
2.07143e-05
2.08801e-05
2.10385e-05
2.119e-05
2.13352e-05
2.14748e-05
2.16092e-05
2.17392e-05
2.18651e-05
2.19876e-05
2.21073e-05
2.22247e-05
2.23403e-05
2.24549e-05
2.25691e-05
2.26836e-05
2.28091e-05
2.3077e-05
2.31612e-05
2.32391e-05
2.33201e-05
2.34044e-05
2.34927e-05
2.35855e-05
2.36834e-05
2.37871e-05
2.38977e-05
2.40165e-05
2.41452e-05
2.42847e-05
2.44331e-05
2.45829e-05
2.47214e-05
2.48383e-05
2.49288e-05
2.49934e-05
2.52332e-05
2.73582e-05
3.54218e-05
3.26692e-05
2.27005e-05
2.04432e-05
1.92394e-05
1.91013e-05
3.42891e-05
3.35334e-05
3.32817e-05
1.92448e-05
1.96747e-05
2.12934e-05
2.33907e-05
2.55641e-05
2.60795e-05
2.5316e-05
2.46332e-05
2.42135e-05
2.39166e-05
2.34989e-05
2.32785e-05
2.30889e-05
2.29108e-05
2.27397e-05
2.25737e-05
2.24114e-05
2.2252e-05
2.20944e-05
2.19375e-05
2.17803e-05
2.16219e-05
2.14612e-05
2.12973e-05
2.11294e-05
2.09567e-05
2.07782e-05
2.05933e-05
2.04011e-05
2.02009e-05
1.99919e-05
1.97734e-05
1.95447e-05
1.93052e-05
1.90543e-05
1.87913e-05
1.85158e-05
1.82272e-05
1.79253e-05
1.89559e-05
1.69239e-05
2.20912e-05
2.25437e-05
2.29777e-05
2.33932e-05
2.37904e-05
2.41695e-05
2.45309e-05
2.48751e-05
2.52025e-05
2.55138e-05
2.58095e-05
2.60904e-05
2.63571e-05
2.66104e-05
2.68508e-05
2.70793e-05
2.72964e-05
2.75029e-05
2.76995e-05
2.78868e-05
2.80656e-05
2.82365e-05
2.84002e-05
2.85573e-05
2.87085e-05
2.88544e-05
2.89957e-05
2.91332e-05
2.92836e-05
2.96581e-05
2.9719e-05
2.97668e-05
2.98163e-05
2.98675e-05
2.9921e-05
2.99769e-05
3.00356e-05
3.00974e-05
3.0163e-05
3.02329e-05
3.03082e-05
3.03891e-05
3.04745e-05
3.05599e-05
3.06379e-05
3.07021e-05
3.07493e-05
3.07809e-05
3.09164e-05
3.19874e-05
3.5138e-05
3.4458e-05
2.99336e-05
2.80736e-05
2.70525e-05
2.69638e-05
3.4788e-05
3.30889e-05
3.46295e-05
2.74098e-05
2.75566e-05
2.86354e-05
2.99168e-05
3.10892e-05
3.13747e-05
3.10121e-05
3.06368e-05
3.03836e-05
3.01893e-05
2.97207e-05
2.95098e-05
2.93247e-05
2.9143e-05
2.89615e-05
2.87786e-05
2.85931e-05
2.84043e-05
2.82111e-05
2.80126e-05
2.78079e-05
2.7596e-05
2.7376e-05
2.7147e-05
2.6908e-05
2.66583e-05
2.6397e-05
2.61232e-05
2.58361e-05
2.5535e-05
2.52191e-05
2.48877e-05
2.45402e-05
2.4176e-05
2.37945e-05
2.33954e-05
2.29783e-05
2.25431e-05
2.20896e-05
2.36834e-05
1.69242e-05
2.20915e-05
2.2544e-05
2.2978e-05
2.33935e-05
2.37906e-05
2.41697e-05
2.45311e-05
2.48753e-05
2.52027e-05
2.55139e-05
2.58096e-05
2.60905e-05
2.63571e-05
2.66103e-05
2.68508e-05
2.70792e-05
2.72962e-05
2.75027e-05
2.76992e-05
2.78865e-05
2.80653e-05
2.82361e-05
2.83998e-05
2.85568e-05
2.87079e-05
2.88538e-05
2.8995e-05
2.91324e-05
2.92828e-05
2.96573e-05
2.97181e-05
2.97657e-05
2.98149e-05
2.9866e-05
2.99192e-05
2.99749e-05
3.00333e-05
3.00948e-05
3.016e-05
3.02295e-05
3.03042e-05
3.03843e-05
3.04687e-05
3.05529e-05
3.06304e-05
3.06962e-05
3.07521e-05
3.08168e-05
3.10285e-05
3.20748e-05
3.47854e-05
3.41005e-05
3.02357e-05
2.82292e-05
2.71098e-05
2.70401e-05
3.42583e-05
3.32836e-05
3.43102e-05
2.76393e-05
2.7721e-05
2.87676e-05
3.00014e-05
3.10769e-05
3.13357e-05
3.10132e-05
3.06571e-05
3.04036e-05
3.02047e-05
2.97335e-05
2.95199e-05
2.93328e-05
2.91496e-05
2.8967e-05
2.87832e-05
2.85971e-05
2.84076e-05
2.82139e-05
2.8015e-05
2.78099e-05
2.75976e-05
2.73773e-05
2.7148e-05
2.69088e-05
2.66588e-05
2.63973e-05
2.61233e-05
2.58361e-05
2.55348e-05
2.52188e-05
2.48872e-05
2.45396e-05
2.41753e-05
2.37937e-05
2.33945e-05
2.29774e-05
2.25421e-05
2.20886e-05
2.36821e-05
1.69246e-05
2.20919e-05
2.25444e-05
2.29784e-05
2.33939e-05
2.3791e-05
2.41701e-05
2.45315e-05
2.48756e-05
2.52029e-05
2.55142e-05
2.58099e-05
2.60907e-05
2.63573e-05
2.66105e-05
2.68509e-05
2.70793e-05
2.72963e-05
2.75027e-05
2.76992e-05
2.78864e-05
2.80651e-05
2.82359e-05
2.83995e-05
2.85565e-05
2.87076e-05
2.88534e-05
2.89946e-05
2.91319e-05
2.92822e-05
2.96568e-05
2.97174e-05
2.97649e-05
2.9814e-05
2.9865e-05
2.9918e-05
2.99735e-05
3.00317e-05
3.0093e-05
3.0158e-05
3.02272e-05
3.03016e-05
3.03813e-05
3.04651e-05
3.05493e-05
3.06285e-05
3.07007e-05
3.07739e-05
3.08821e-05
3.11714e-05
3.21579e-05
3.41848e-05
3.37193e-05
3.04934e-05
2.84132e-05
2.72147e-05
2.71389e-05
3.37241e-05
3.36256e-05
3.39338e-05
2.78536e-05
2.79028e-05
2.89188e-05
3.00986e-05
3.10693e-05
3.12946e-05
3.10079e-05
3.06729e-05
3.04216e-05
3.02196e-05
2.97461e-05
2.95299e-05
2.93408e-05
2.91561e-05
2.89724e-05
2.87877e-05
2.86008e-05
2.84108e-05
2.82166e-05
2.80172e-05
2.78116e-05
2.7599e-05
2.73783e-05
2.71487e-05
2.69092e-05
2.6659e-05
2.63972e-05
2.6123e-05
2.58356e-05
2.55342e-05
2.5218e-05
2.48863e-05
2.45385e-05
2.41741e-05
2.37924e-05
2.33932e-05
2.29759e-05
2.25406e-05
2.20871e-05
2.36803e-05
1.69251e-05
2.20924e-05
2.2545e-05
2.29789e-05
2.33944e-05
2.37915e-05
2.41706e-05
2.45319e-05
2.4876e-05
2.52034e-05
2.55146e-05
2.58103e-05
2.60911e-05
2.63577e-05
2.66108e-05
2.68512e-05
2.70795e-05
2.72965e-05
2.75029e-05
2.76993e-05
2.78865e-05
2.80652e-05
2.8236e-05
2.83995e-05
2.85565e-05
2.87075e-05
2.88532e-05
2.89944e-05
2.91316e-05
2.92819e-05
2.96566e-05
2.97172e-05
2.97646e-05
2.98136e-05
2.98644e-05
2.99174e-05
2.99728e-05
3.00309e-05
3.00922e-05
3.0157e-05
3.02262e-05
3.03005e-05
3.03801e-05
3.04642e-05
3.05494e-05
3.06323e-05
3.07136e-05
3.08067e-05
3.09557e-05
3.13022e-05
3.22057e-05
3.37168e-05
3.33742e-05
3.07062e-05
2.86199e-05
2.73594e-05
2.72643e-05
3.32244e-05
3.41087e-05
3.35287e-05
2.80433e-05
2.80901e-05
2.90778e-05
3.01989e-05
3.10659e-05
3.12545e-05
3.09974e-05
3.06838e-05
3.04367e-05
3.0233e-05
2.97576e-05
2.95393e-05
2.93483e-05
2.91622e-05
2.89774e-05
2.87918e-05
2.86043e-05
2.84136e-05
2.82188e-05
2.8019e-05
2.7813e-05
2.76e-05
2.7379e-05
2.7149e-05
2.69092e-05
2.66588e-05
2.63968e-05
2.61223e-05
2.58347e-05
2.55331e-05
2.52167e-05
2.48849e-05
2.45369e-05
2.41724e-05
2.37906e-05
2.33912e-05
2.29739e-05
2.25385e-05
2.20849e-05
2.36776e-05
1.69257e-05
2.20931e-05
2.25456e-05
2.29795e-05
2.3395e-05
2.37921e-05
2.41712e-05
2.45326e-05
2.48767e-05
2.5204e-05
2.55152e-05
2.58108e-05
2.60916e-05
2.63582e-05
2.66113e-05
2.68517e-05
2.708e-05
2.72969e-05
2.75033e-05
2.76997e-05
2.78869e-05
2.80655e-05
2.82363e-05
2.83998e-05
2.85567e-05
2.87077e-05
2.88534e-05
2.89945e-05
2.91317e-05
2.9282e-05
2.96568e-05
2.97172e-05
2.97646e-05
2.98136e-05
2.98644e-05
2.99173e-05
2.99727e-05
3.00308e-05
3.00921e-05
3.01571e-05
3.02265e-05
3.0301e-05
3.0381e-05
3.04658e-05
3.0553e-05
3.06407e-05
3.07322e-05
3.08449e-05
3.10274e-05
3.14064e-05
3.22159e-05
3.33573e-05
3.3088e-05
3.08787e-05
2.88403e-05
2.75363e-05
2.74133e-05
3.27814e-05
3.47102e-05
3.3124e-05
2.82065e-05
2.82712e-05
2.92347e-05
3.02937e-05
3.10624e-05
3.12164e-05
3.09831e-05
3.06896e-05
3.04484e-05
3.02444e-05
2.97675e-05
2.95474e-05
2.93549e-05
2.91675e-05
2.89817e-05
2.87953e-05
2.86071e-05
2.84159e-05
2.82206e-05
2.80202e-05
2.78139e-05
2.76004e-05
2.73791e-05
2.71488e-05
2.69087e-05
2.6658e-05
2.63957e-05
2.6121e-05
2.58332e-05
2.55313e-05
2.52148e-05
2.48828e-05
2.45347e-05
2.417e-05
2.37881e-05
2.33886e-05
2.29712e-05
2.25357e-05
2.2082e-05
2.3674e-05
1.69265e-05
2.20939e-05
2.25464e-05
2.29804e-05
2.33958e-05
2.3793e-05
2.4172e-05
2.45334e-05
2.48775e-05
2.52048e-05
2.5516e-05
2.58116e-05
2.60924e-05
2.63589e-05
2.6612e-05
2.68524e-05
2.70806e-05
2.72976e-05
2.75039e-05
2.77003e-05
2.78874e-05
2.8066e-05
2.82368e-05
2.84002e-05
2.85571e-05
2.87081e-05
2.88538e-05
2.89949e-05
2.91321e-05
2.92823e-05
2.96572e-05
2.97176e-05
2.9765e-05
2.9814e-05
2.98648e-05
2.99178e-05
2.99732e-05
3.00315e-05
3.0093e-05
3.01582e-05
3.0228e-05
3.0303e-05
3.03837e-05
3.04698e-05
3.05596e-05
3.06526e-05
3.07544e-05
3.08848e-05
3.10923e-05
3.14829e-05
3.21997e-05
3.30793e-05
3.28605e-05
3.10201e-05
2.90655e-05
2.77346e-05
2.75814e-05
3.24024e-05
3.53933e-05
3.27386e-05
2.83461e-05
2.84369e-05
2.93812e-05
3.03786e-05
3.10574e-05
3.11802e-05
3.09659e-05
3.06907e-05
3.04563e-05
3.02533e-05
2.97754e-05
2.9554e-05
2.93603e-05
2.91718e-05
2.89851e-05
2.8798e-05
2.86092e-05
2.84174e-05
2.82217e-05
2.80209e-05
2.78141e-05
2.76003e-05
2.73786e-05
2.7148e-05
2.69076e-05
2.66566e-05
2.63941e-05
2.61191e-05
2.58311e-05
2.5529e-05
2.52122e-05
2.48801e-05
2.45318e-05
2.41669e-05
2.37849e-05
2.33853e-05
2.29678e-05
2.25322e-05
2.20785e-05
2.36697e-05
1.69275e-05
2.20949e-05
2.25474e-05
2.29814e-05
2.33968e-05
2.3794e-05
2.4173e-05
2.45344e-05
2.48784e-05
2.52058e-05
2.55169e-05
2.58125e-05
2.60933e-05
2.63599e-05
2.66129e-05
2.68532e-05
2.70815e-05
2.72984e-05
2.75047e-05
2.77011e-05
2.78882e-05
2.80668e-05
2.82375e-05
2.8401e-05
2.85578e-05
2.87088e-05
2.88545e-05
2.89956e-05
2.91328e-05
2.9283e-05
2.96579e-05
2.97184e-05
2.97658e-05
2.98148e-05
2.98657e-05
2.99188e-05
2.99744e-05
3.00328e-05
3.00946e-05
3.01602e-05
3.02305e-05
3.03062e-05
3.0388e-05
3.04757e-05
3.05685e-05
3.0667e-05
3.07785e-05
3.09237e-05
3.1148e-05
3.1536e-05
3.21689e-05
3.28621e-05
3.26816e-05
3.11375e-05
2.92883e-05
2.79444e-05
2.77633e-05
3.20846e-05
3.54456e-05
3.23823e-05
2.84646e-05
2.85815e-05
2.95103e-05
3.04483e-05
3.10477e-05
3.11445e-05
3.09461e-05
3.06876e-05
3.04606e-05
3.02595e-05
2.9781e-05
2.95588e-05
2.93642e-05
2.91749e-05
2.89875e-05
2.87998e-05
2.86104e-05
2.84182e-05
2.8222e-05
2.80208e-05
2.78137e-05
2.75995e-05
2.73775e-05
2.71466e-05
2.69059e-05
2.66546e-05
2.63918e-05
2.61166e-05
2.58283e-05
2.5526e-05
2.5209e-05
2.48767e-05
2.45282e-05
2.41632e-05
2.3781e-05
2.33813e-05
2.29637e-05
2.2528e-05
2.20742e-05
2.36645e-05
1.69287e-05
2.20961e-05
2.25487e-05
2.29826e-05
2.33981e-05
2.37952e-05
2.41742e-05
2.45356e-05
2.48796e-05
2.52069e-05
2.55181e-05
2.58137e-05
2.60944e-05
2.6361e-05
2.6614e-05
2.68543e-05
2.70826e-05
2.72995e-05
2.75057e-05
2.77021e-05
2.78892e-05
2.80678e-05
2.82384e-05
2.84019e-05
2.85588e-05
2.87097e-05
2.88554e-05
2.89965e-05
2.91337e-05
2.9284e-05
2.96589e-05
2.97194e-05
2.97668e-05
2.98159e-05
2.9867e-05
2.99202e-05
2.9976e-05
3.00347e-05
3.00969e-05
3.0163e-05
3.02339e-05
3.03105e-05
3.03935e-05
3.0483e-05
3.05789e-05
3.06829e-05
3.08029e-05
3.09599e-05
3.11943e-05
3.15715e-05
3.21314e-05
3.26902e-05
3.25401e-05
3.12339e-05
2.95016e-05
2.81578e-05
2.79537e-05
3.18213e-05
3.48335e-05
3.20608e-05
2.85638e-05
2.87017e-05
2.96173e-05
3.0501e-05
3.10323e-05
3.1108e-05
3.09235e-05
3.06805e-05
3.04613e-05
3.02629e-05
2.97843e-05
2.95617e-05
2.93665e-05
2.91766e-05
2.89887e-05
2.88005e-05
2.86108e-05
2.84181e-05
2.82216e-05
2.802e-05
2.78125e-05
2.7598e-05
2.73757e-05
2.71444e-05
2.69035e-05
2.66519e-05
2.63888e-05
2.61134e-05
2.58248e-05
2.55223e-05
2.52051e-05
2.48726e-05
2.4524e-05
2.41588e-05
2.37764e-05
2.33766e-05
2.29588e-05
2.2523e-05
2.20692e-05
2.36584e-05
1.69302e-05
2.20976e-05
2.25502e-05
2.29841e-05
2.33995e-05
2.37966e-05
2.41757e-05
2.4537e-05
2.4881e-05
2.52083e-05
2.55195e-05
2.5815e-05
2.60958e-05
2.63623e-05
2.66153e-05
2.68556e-05
2.70838e-05
2.73007e-05
2.7507e-05
2.77033e-05
2.78904e-05
2.80689e-05
2.82396e-05
2.84031e-05
2.85599e-05
2.87109e-05
2.88566e-05
2.89977e-05
2.91349e-05
2.92852e-05
2.96602e-05
2.97207e-05
2.97682e-05
2.98174e-05
2.98686e-05
2.9922e-05
2.99781e-05
3.00371e-05
3.00997e-05
3.01664e-05
3.02381e-05
3.03157e-05
3.04e-05
3.04914e-05
3.05904e-05
3.06992e-05
3.08266e-05
3.09924e-05
3.1232e-05
3.1594e-05
3.20916e-05
3.25521e-05
3.24264e-05
3.13113e-05
2.96992e-05
2.83718e-05
2.81489e-05
3.16062e-05
3.42561e-05
3.17773e-05
2.86468e-05
2.87975e-05
2.96997e-05
3.0536e-05
3.10103e-05
3.10697e-05
3.0898e-05
3.06694e-05
3.04584e-05
3.02636e-05
2.97851e-05
2.95626e-05
2.93671e-05
2.91769e-05
2.89886e-05
2.88002e-05
2.86101e-05
2.84171e-05
2.82202e-05
2.80184e-05
2.78106e-05
2.75958e-05
2.73731e-05
2.71416e-05
2.69004e-05
2.66485e-05
2.63852e-05
2.61095e-05
2.58207e-05
2.5518e-05
2.52006e-05
2.48678e-05
2.4519e-05
2.41536e-05
2.37711e-05
2.33711e-05
2.29532e-05
2.25174e-05
2.20634e-05
2.36513e-05
1.69319e-05
2.20993e-05
2.25518e-05
2.29858e-05
2.34012e-05
2.37983e-05
2.41773e-05
2.45386e-05
2.48826e-05
2.52099e-05
2.5521e-05
2.58166e-05
2.60973e-05
2.63638e-05
2.66168e-05
2.68571e-05
2.70853e-05
2.73022e-05
2.75084e-05
2.77047e-05
2.78918e-05
2.80703e-05
2.8241e-05
2.84044e-05
2.85613e-05
2.87123e-05
2.8858e-05
2.89991e-05
2.91364e-05
2.92866e-05
2.96617e-05
2.97223e-05
2.97699e-05
2.98193e-05
2.98706e-05
2.99243e-05
2.99806e-05
3.004e-05
3.01031e-05
3.01704e-05
3.02429e-05
3.03215e-05
3.04071e-05
3.05004e-05
3.06023e-05
3.07154e-05
3.08488e-05
3.10209e-05
3.12619e-05
3.1607e-05
3.20519e-05
3.24393e-05
3.23328e-05
3.1371e-05
2.98733e-05
2.8576e-05
2.83468e-05
3.1435e-05
3.37518e-05
3.15337e-05
2.87188e-05
2.88713e-05
2.97578e-05
3.05541e-05
3.09816e-05
3.10292e-05
3.08693e-05
3.06546e-05
3.0452e-05
3.02613e-05
2.97834e-05
2.95614e-05
2.9366e-05
2.91757e-05
2.89872e-05
2.87986e-05
2.86083e-05
2.84151e-05
2.8218e-05
2.80159e-05
2.78078e-05
2.75927e-05
2.73698e-05
2.7138e-05
2.68965e-05
2.66444e-05
2.63808e-05
2.61049e-05
2.58158e-05
2.55129e-05
2.51952e-05
2.48623e-05
2.45133e-05
2.41477e-05
2.3765e-05
2.33649e-05
2.29469e-05
2.25109e-05
2.20568e-05
2.36433e-05
1.69338e-05
2.21012e-05
2.25537e-05
2.29877e-05
2.34031e-05
2.38001e-05
2.41792e-05
2.45404e-05
2.48845e-05
2.52117e-05
2.55228e-05
2.58184e-05
2.6099e-05
2.63655e-05
2.66185e-05
2.68588e-05
2.7087e-05
2.73038e-05
2.751e-05
2.77063e-05
2.78934e-05
2.80719e-05
2.82426e-05
2.8406e-05
2.85629e-05
2.87139e-05
2.88596e-05
2.90007e-05
2.9138e-05
2.92884e-05
2.96634e-05
2.97241e-05
2.97718e-05
2.98213e-05
2.98729e-05
2.99268e-05
2.99834e-05
3.00433e-05
3.01068e-05
3.01748e-05
3.02481e-05
3.03277e-05
3.04146e-05
3.05097e-05
3.0614e-05
3.07309e-05
3.08689e-05
3.10451e-05
3.12849e-05
3.16126e-05
3.20132e-05
3.23452e-05
3.22538e-05
3.14159e-05
3.00297e-05
2.87718e-05
2.85474e-05
3.13049e-05
3.33202e-05
3.13298e-05
2.87858e-05
2.89281e-05
2.97937e-05
3.05558e-05
3.09464e-05
3.09863e-05
3.08377e-05
3.06361e-05
3.04421e-05
3.02562e-05
2.97791e-05
2.95581e-05
2.9363e-05
2.91729e-05
2.89845e-05
2.87958e-05
2.86054e-05
2.84121e-05
2.82148e-05
2.80125e-05
2.78042e-05
2.75889e-05
2.73657e-05
2.71337e-05
2.68919e-05
2.66395e-05
2.63757e-05
2.60995e-05
2.58102e-05
2.5507e-05
2.51891e-05
2.48559e-05
2.45068e-05
2.4141e-05
2.37582e-05
2.33578e-05
2.29397e-05
2.25036e-05
2.20494e-05
2.36344e-05
1.69359e-05
2.21033e-05
2.25558e-05
2.29898e-05
2.34052e-05
2.38022e-05
2.41812e-05
2.45425e-05
2.48865e-05
2.52137e-05
2.55248e-05
2.58203e-05
2.6101e-05
2.63675e-05
2.66205e-05
2.68607e-05
2.70888e-05
2.73057e-05
2.75119e-05
2.77082e-05
2.78952e-05
2.80737e-05
2.82444e-05
2.84078e-05
2.85647e-05
2.87157e-05
2.88614e-05
2.90026e-05
2.91399e-05
2.92903e-05
2.96653e-05
2.97261e-05
2.9774e-05
2.98237e-05
2.98754e-05
2.99296e-05
2.99866e-05
3.00468e-05
3.01109e-05
3.01795e-05
3.02535e-05
3.0334e-05
3.04222e-05
3.05188e-05
3.06253e-05
3.07451e-05
3.08866e-05
3.10652e-05
3.13017e-05
3.16125e-05
3.19759e-05
3.22653e-05
3.21858e-05
3.14479e-05
3.01675e-05
2.89605e-05
2.87507e-05
3.12146e-05
3.29562e-05
3.11638e-05
2.88531e-05
2.89749e-05
2.98141e-05
3.05448e-05
3.09057e-05
3.09407e-05
3.08032e-05
3.06142e-05
3.0429e-05
3.02483e-05
2.97724e-05
2.95526e-05
2.93582e-05
2.91684e-05
2.89803e-05
2.87917e-05
2.86013e-05
2.8408e-05
2.82106e-05
2.80081e-05
2.77997e-05
2.75842e-05
2.73608e-05
2.71285e-05
2.68865e-05
2.66339e-05
2.63698e-05
2.60933e-05
2.58038e-05
2.55004e-05
2.51823e-05
2.48489e-05
2.44995e-05
2.41335e-05
2.37505e-05
2.335e-05
2.29317e-05
2.24955e-05
2.20412e-05
2.36244e-05
1.69382e-05
2.21056e-05
2.25582e-05
2.29921e-05
2.34075e-05
2.38045e-05
2.41835e-05
2.45448e-05
2.48887e-05
2.5216e-05
2.5527e-05
2.58225e-05
2.61032e-05
2.63696e-05
2.66226e-05
2.68628e-05
2.70909e-05
2.73077e-05
2.75139e-05
2.77102e-05
2.78972e-05
2.80757e-05
2.82464e-05
2.84098e-05
2.85667e-05
2.87177e-05
2.88634e-05
2.90047e-05
2.9142e-05
2.92924e-05
2.96674e-05
2.97283e-05
2.97763e-05
2.98262e-05
2.98782e-05
2.99326e-05
2.99899e-05
3.00505e-05
3.01151e-05
3.01843e-05
3.0259e-05
3.03404e-05
3.04295e-05
3.05275e-05
3.06357e-05
3.07577e-05
3.09015e-05
3.10809e-05
3.1313e-05
3.16076e-05
3.19398e-05
3.21959e-05
3.21259e-05
3.14695e-05
3.02894e-05
2.91484e-05
2.89645e-05
3.11638e-05
3.26535e-05
3.10318e-05
2.89241e-05
2.90174e-05
2.98242e-05
3.05239e-05
3.08605e-05
3.08929e-05
3.07661e-05
3.05892e-05
3.04128e-05
3.02377e-05
2.97633e-05
2.9545e-05
2.93516e-05
2.91624e-05
2.89747e-05
2.87864e-05
2.85961e-05
2.84028e-05
2.82054e-05
2.80029e-05
2.77943e-05
2.75786e-05
2.7355e-05
2.71225e-05
2.68803e-05
2.66274e-05
2.63631e-05
2.60864e-05
2.57966e-05
2.5493e-05
2.51746e-05
2.4841e-05
2.44914e-05
2.41252e-05
2.3742e-05
2.33414e-05
2.29229e-05
2.24865e-05
2.20321e-05
2.36134e-05
1.69408e-05
2.21081e-05
2.25607e-05
2.29947e-05
2.341e-05
2.38071e-05
2.4186e-05
2.45473e-05
2.48912e-05
2.52184e-05
2.55294e-05
2.58249e-05
2.61055e-05
2.6372e-05
2.66249e-05
2.68651e-05
2.70932e-05
2.731e-05
2.75161e-05
2.77124e-05
2.78994e-05
2.80779e-05
2.82486e-05
2.8412e-05
2.85689e-05
2.87199e-05
2.88657e-05
2.90069e-05
2.91443e-05
2.92948e-05
2.96697e-05
2.97307e-05
2.97789e-05
2.98289e-05
2.98811e-05
2.99358e-05
2.99934e-05
3.00544e-05
3.01194e-05
3.01891e-05
3.02644e-05
3.03465e-05
3.04365e-05
3.05354e-05
3.06448e-05
3.07684e-05
3.09135e-05
3.10924e-05
3.1319e-05
3.15986e-05
3.19042e-05
3.2134e-05
3.2072e-05
3.14831e-05
3.03982e-05
2.93337e-05
2.91893e-05
3.11502e-05
3.24062e-05
3.09293e-05
2.89994e-05
2.90588e-05
2.98267e-05
3.04953e-05
3.08117e-05
3.08431e-05
3.07266e-05
3.05613e-05
3.03937e-05
3.02246e-05
2.97519e-05
2.95355e-05
2.93433e-05
2.91549e-05
2.89677e-05
2.87798e-05
2.85898e-05
2.83966e-05
2.81992e-05
2.79967e-05
2.7788e-05
2.75722e-05
2.73484e-05
2.71158e-05
2.68733e-05
2.66202e-05
2.63556e-05
2.60787e-05
2.57887e-05
2.54848e-05
2.51662e-05
2.48324e-05
2.44825e-05
2.41161e-05
2.37328e-05
2.33319e-05
2.29133e-05
2.24768e-05
2.20223e-05
2.36014e-05
1.69436e-05
2.21109e-05
2.25635e-05
2.29975e-05
2.34128e-05
2.38099e-05
2.41888e-05
2.455e-05
2.48939e-05
2.52211e-05
2.55321e-05
2.58275e-05
2.61081e-05
2.63745e-05
2.66274e-05
2.68676e-05
2.70957e-05
2.73124e-05
2.75186e-05
2.77148e-05
2.79018e-05
2.80803e-05
2.8251e-05
2.84144e-05
2.85713e-05
2.87223e-05
2.88681e-05
2.90093e-05
2.91468e-05
2.92973e-05
2.96721e-05
2.97332e-05
2.97815e-05
2.98317e-05
2.98841e-05
2.9939e-05
2.99969e-05
3.00582e-05
3.01236e-05
3.01938e-05
3.02696e-05
3.03523e-05
3.04428e-05
3.05423e-05
3.06525e-05
3.07768e-05
3.09223e-05
3.10997e-05
3.13202e-05
3.15855e-05
3.18684e-05
3.20768e-05
3.20214e-05
3.14899e-05
3.0497e-05
2.95207e-05
2.94261e-05
3.11701e-05
3.22087e-05
3.08526e-05
2.90795e-05
2.91005e-05
2.98241e-05
3.04606e-05
3.076e-05
3.07916e-05
3.0685e-05
3.05309e-05
3.03721e-05
3.02092e-05
2.97384e-05
2.95242e-05
2.93334e-05
2.9146e-05
2.89595e-05
2.8772e-05
2.85824e-05
2.83894e-05
2.81921e-05
2.79896e-05
2.77808e-05
2.7565e-05
2.73411e-05
2.71082e-05
2.68656e-05
2.66123e-05
2.63475e-05
2.60703e-05
2.578e-05
2.54759e-05
2.51571e-05
2.4823e-05
2.44729e-05
2.41063e-05
2.37227e-05
2.33217e-05
2.2903e-05
2.24663e-05
2.20117e-05
2.35885e-05
1.69467e-05
2.2114e-05
2.25666e-05
2.30005e-05
2.34159e-05
2.38129e-05
2.41918e-05
2.45529e-05
2.48968e-05
2.5224e-05
2.55349e-05
2.58304e-05
2.61109e-05
2.63773e-05
2.66302e-05
2.68703e-05
2.70983e-05
2.73151e-05
2.75212e-05
2.77174e-05
2.79044e-05
2.80829e-05
2.82535e-05
2.84169e-05
2.85738e-05
2.87248e-05
2.88707e-05
2.90119e-05
2.91494e-05
2.92999e-05
2.96746e-05
2.97359e-05
2.97843e-05
2.98346e-05
2.98872e-05
2.99423e-05
3.00005e-05
3.00621e-05
3.01278e-05
3.01982e-05
3.02745e-05
3.03574e-05
3.04482e-05
3.0548e-05
3.06585e-05
3.0783e-05
3.09279e-05
3.11028e-05
3.13165e-05
3.15683e-05
3.18312e-05
3.20217e-05
3.19717e-05
3.14901e-05
3.05877e-05
2.97113e-05
2.96745e-05
3.12187e-05
3.20558e-05
3.08e-05
2.91681e-05
2.91467e-05
2.98188e-05
3.04215e-05
3.07058e-05
3.07386e-05
3.06416e-05
3.04983e-05
3.03483e-05
3.01917e-05
2.97231e-05
2.95111e-05
2.93219e-05
2.91357e-05
2.895e-05
2.87632e-05
2.8574e-05
2.83813e-05
2.81842e-05
2.79817e-05
2.77729e-05
2.7557e-05
2.73329e-05
2.70999e-05
2.68571e-05
2.66036e-05
2.63385e-05
2.60612e-05
2.57706e-05
2.54662e-05
2.51472e-05
2.48128e-05
2.44625e-05
2.40957e-05
2.37119e-05
2.33107e-05
2.28918e-05
2.2455e-05
2.20003e-05
2.35748e-05
1.695e-05
2.21173e-05
2.25699e-05
2.30038e-05
2.34191e-05
2.38161e-05
2.4195e-05
2.45561e-05
2.49e-05
2.52271e-05
2.5538e-05
2.58334e-05
2.61139e-05
2.63802e-05
2.66331e-05
2.68732e-05
2.71012e-05
2.73179e-05
2.7524e-05
2.77202e-05
2.79072e-05
2.80856e-05
2.82562e-05
2.84197e-05
2.85765e-05
2.87276e-05
2.88734e-05
2.90147e-05
2.91521e-05
2.93027e-05
2.96772e-05
2.97386e-05
2.97871e-05
2.98376e-05
2.98903e-05
2.99457e-05
3.0004e-05
3.00658e-05
3.01317e-05
3.02024e-05
3.02788e-05
3.03619e-05
3.04527e-05
3.05525e-05
3.06627e-05
3.07866e-05
3.09302e-05
3.11017e-05
3.13081e-05
3.15467e-05
3.17915e-05
3.19663e-05
3.19202e-05
3.14831e-05
3.06711e-05
2.99045e-05
2.99305e-05
3.12903e-05
3.19425e-05
3.07705e-05
2.92643e-05
2.91986e-05
2.98121e-05
3.03788e-05
3.06495e-05
3.06842e-05
3.05966e-05
3.04637e-05
3.03225e-05
3.01723e-05
2.97062e-05
2.94967e-05
2.93092e-05
2.91243e-05
2.89395e-05
2.87534e-05
2.85647e-05
2.83723e-05
2.81754e-05
2.7973e-05
2.77643e-05
2.75483e-05
2.73241e-05
2.7091e-05
2.6848e-05
2.65942e-05
2.6329e-05
2.60513e-05
2.57606e-05
2.54559e-05
2.51366e-05
2.4802e-05
2.44515e-05
2.40844e-05
2.37004e-05
2.3299e-05
2.288e-05
2.24431e-05
2.19882e-05
2.35601e-05
1.69535e-05
2.21208e-05
2.25734e-05
2.30073e-05
2.34226e-05
2.38196e-05
2.41984e-05
2.45595e-05
2.49033e-05
2.52304e-05
2.55413e-05
2.58367e-05
2.61171e-05
2.63834e-05
2.66362e-05
2.68762e-05
2.71042e-05
2.73209e-05
2.7527e-05
2.77231e-05
2.79101e-05
2.80885e-05
2.82591e-05
2.84225e-05
2.85794e-05
2.87304e-05
2.88762e-05
2.90175e-05
2.9155e-05
2.93056e-05
2.96799e-05
2.97413e-05
2.979e-05
2.98406e-05
2.98935e-05
2.99489e-05
3.00074e-05
3.00693e-05
3.01354e-05
3.02062e-05
3.02826e-05
3.03656e-05
3.04562e-05
3.05555e-05
3.0665e-05
3.07877e-05
3.09291e-05
3.10964e-05
3.12949e-05
3.15206e-05
3.17483e-05
3.19083e-05
3.18646e-05
3.14684e-05
3.07473e-05
3.00976e-05
3.0187e-05
3.13762e-05
3.18631e-05
3.07639e-05
2.93692e-05
2.92572e-05
2.98053e-05
3.03334e-05
3.05913e-05
3.06286e-05
3.05502e-05
3.04276e-05
3.02949e-05
3.01514e-05
2.96878e-05
2.94809e-05
2.92954e-05
2.91118e-05
2.89281e-05
2.87428e-05
2.85546e-05
2.83626e-05
2.81659e-05
2.79637e-05
2.77549e-05
2.75389e-05
2.73147e-05
2.70814e-05
2.68382e-05
2.65842e-05
2.63188e-05
2.60409e-05
2.57499e-05
2.5445e-05
2.51254e-05
2.47905e-05
2.44398e-05
2.40725e-05
2.36883e-05
2.32867e-05
2.28675e-05
2.24304e-05
2.19754e-05
2.35446e-05
1.69573e-05
2.21245e-05
2.25771e-05
2.3011e-05
2.34263e-05
2.38232e-05
2.42021e-05
2.45631e-05
2.49069e-05
2.52339e-05
2.55448e-05
2.58401e-05
2.61205e-05
2.63868e-05
2.66395e-05
2.68795e-05
2.71075e-05
2.73241e-05
2.75301e-05
2.77262e-05
2.79132e-05
2.80916e-05
2.82621e-05
2.84255e-05
2.85824e-05
2.87334e-05
2.88792e-05
2.90205e-05
2.9158e-05
2.93085e-05
2.96826e-05
2.97441e-05
2.97929e-05
2.98436e-05
2.98966e-05
2.99521e-05
3.00107e-05
3.00727e-05
3.01387e-05
3.02095e-05
3.02858e-05
3.03685e-05
3.04586e-05
3.0557e-05
3.06653e-05
3.07863e-05
3.09248e-05
3.1087e-05
3.1277e-05
3.14896e-05
3.17007e-05
3.1846e-05
3.18035e-05
3.14461e-05
3.08166e-05
3.02874e-05
3.0437e-05
3.14675e-05
3.18118e-05
3.07798e-05
2.94834e-05
2.93235e-05
2.98001e-05
3.02862e-05
3.05314e-05
3.05717e-05
3.05026e-05
3.039e-05
3.0266e-05
3.01292e-05
2.96683e-05
2.94642e-05
2.92806e-05
2.90985e-05
2.89159e-05
2.87314e-05
2.85438e-05
2.83522e-05
2.81558e-05
2.79537e-05
2.7745e-05
2.7529e-05
2.73046e-05
2.70712e-05
2.68278e-05
2.65737e-05
2.6308e-05
2.60299e-05
2.57386e-05
2.54334e-05
2.51136e-05
2.47785e-05
2.44275e-05
2.406e-05
2.36755e-05
2.32737e-05
2.28543e-05
2.24171e-05
2.1962e-05
2.35284e-05
1.69614e-05
2.21285e-05
2.25811e-05
2.30149e-05
2.34302e-05
2.38271e-05
2.42059e-05
2.45669e-05
2.49107e-05
2.52377e-05
2.55485e-05
2.58437e-05
2.61241e-05
2.63903e-05
2.6643e-05
2.68829e-05
2.71108e-05
2.73274e-05
2.75334e-05
2.77295e-05
2.79164e-05
2.80948e-05
2.82653e-05
2.84287e-05
2.85855e-05
2.87365e-05
2.88823e-05
2.90236e-05
2.9161e-05
2.93116e-05
2.96853e-05
2.9747e-05
2.97958e-05
2.98466e-05
2.98996e-05
2.99552e-05
3.00138e-05
3.00758e-05
3.01417e-05
3.02123e-05
3.02883e-05
3.03705e-05
3.04598e-05
3.05571e-05
3.06637e-05
3.07823e-05
3.09173e-05
3.10738e-05
3.12545e-05
3.14536e-05
3.1648e-05
3.17784e-05
3.17363e-05
3.14172e-05
3.08797e-05
3.04702e-05
3.06741e-05
3.15578e-05
3.17836e-05
3.08182e-05
2.96096e-05
2.93988e-05
2.9798e-05
3.02383e-05
3.04704e-05
3.0514e-05
3.04541e-05
3.03515e-05
3.0236e-05
3.01059e-05
2.96479e-05
2.94467e-05
2.92651e-05
2.90846e-05
2.89031e-05
2.87194e-05
2.85325e-05
2.83414e-05
2.81452e-05
2.79433e-05
2.77346e-05
2.75185e-05
2.72941e-05
2.70606e-05
2.6817e-05
2.65627e-05
2.62967e-05
2.60183e-05
2.57268e-05
2.54214e-05
2.51013e-05
2.47659e-05
2.44146e-05
2.40469e-05
2.36622e-05
2.32602e-05
2.28406e-05
2.24032e-05
2.1948e-05
2.35115e-05
1.69656e-05
2.21327e-05
2.25852e-05
2.30191e-05
2.34344e-05
2.38312e-05
2.421e-05
2.4571e-05
2.49147e-05
2.52416e-05
2.55523e-05
2.58475e-05
2.61279e-05
2.6394e-05
2.66466e-05
2.68865e-05
2.71144e-05
2.73309e-05
2.75369e-05
2.77329e-05
2.79198e-05
2.80981e-05
2.82686e-05
2.84319e-05
2.85887e-05
2.87397e-05
2.88854e-05
2.90267e-05
2.91642e-05
2.93147e-05
2.96881e-05
2.97498e-05
2.97987e-05
2.98495e-05
2.99025e-05
2.99581e-05
3.00167e-05
3.00786e-05
3.01444e-05
3.02147e-05
3.02902e-05
3.03716e-05
3.04599e-05
3.05557e-05
3.06603e-05
3.0776e-05
3.09067e-05
3.10567e-05
3.12276e-05
3.1413e-05
3.15903e-05
3.17055e-05
3.16637e-05
3.13835e-05
3.09375e-05
3.06427e-05
3.08908e-05
3.16416e-05
3.17727e-05
3.08741e-05
2.97468e-05
2.94842e-05
2.98011e-05
3.01914e-05
3.04088e-05
3.04557e-05
3.04051e-05
3.03123e-05
3.02053e-05
3.0082e-05
2.9627e-05
2.94286e-05
2.92492e-05
2.90701e-05
2.88899e-05
2.87071e-05
2.85207e-05
2.833e-05
2.81342e-05
2.79324e-05
2.77238e-05
2.75077e-05
2.72832e-05
2.70495e-05
2.68057e-05
2.65512e-05
2.6285e-05
2.60063e-05
2.57145e-05
2.54088e-05
2.50885e-05
2.47528e-05
2.44013e-05
2.40333e-05
2.36484e-05
2.32462e-05
2.28264e-05
2.23889e-05
2.19334e-05
2.34939e-05
1.69701e-05
2.21371e-05
2.25896e-05
2.30235e-05
2.34387e-05
2.38355e-05
2.42142e-05
2.45752e-05
2.49188e-05
2.52457e-05
2.55564e-05
2.58515e-05
2.61318e-05
2.63979e-05
2.66505e-05
2.68903e-05
2.71181e-05
2.73346e-05
2.75405e-05
2.77364e-05
2.79232e-05
2.81015e-05
2.8272e-05
2.84353e-05
2.8592e-05
2.8743e-05
2.88887e-05
2.90299e-05
2.91673e-05
2.93178e-05
2.96909e-05
2.97526e-05
2.98015e-05
2.98523e-05
2.99053e-05
2.99609e-05
3.00193e-05
3.00811e-05
3.01466e-05
3.02165e-05
3.02913e-05
3.03719e-05
3.04589e-05
3.05529e-05
3.06551e-05
3.07675e-05
3.08934e-05
3.10364e-05
3.11969e-05
3.1368e-05
3.1528e-05
3.16279e-05
3.15872e-05
3.13469e-05
3.09906e-05
3.08017e-05
3.10824e-05
3.17155e-05
3.17744e-05
3.09442e-05
2.98937e-05
2.958e-05
2.98115e-05
3.01475e-05
3.03481e-05
3.03977e-05
3.03561e-05
3.02729e-05
3.01743e-05
3.00576e-05
2.96058e-05
2.94102e-05
2.92329e-05
2.90554e-05
2.88763e-05
2.86944e-05
2.85087e-05
2.83184e-05
2.81229e-05
2.79212e-05
2.77127e-05
2.74965e-05
2.72719e-05
2.7038e-05
2.67941e-05
2.65393e-05
2.62728e-05
2.59939e-05
2.57018e-05
2.53958e-05
2.50752e-05
2.47393e-05
2.43874e-05
2.40192e-05
2.36341e-05
2.32317e-05
2.28117e-05
2.2374e-05
2.19184e-05
2.34757e-05
1.69749e-05
2.21417e-05
2.25943e-05
2.30281e-05
2.34433e-05
2.384e-05
2.42187e-05
2.45796e-05
2.49232e-05
2.525e-05
2.55606e-05
2.58557e-05
2.61359e-05
2.64019e-05
2.66544e-05
2.68942e-05
2.71219e-05
2.73384e-05
2.75442e-05
2.77401e-05
2.79269e-05
2.81051e-05
2.82755e-05
2.84387e-05
2.85954e-05
2.87463e-05
2.8892e-05
2.90332e-05
2.91706e-05
2.9321e-05
2.96937e-05
2.97554e-05
2.98043e-05
2.98551e-05
2.99081e-05
2.99635e-05
3.00218e-05
3.00833e-05
3.01484e-05
3.02178e-05
3.02919e-05
3.03714e-05
3.04568e-05
3.05488e-05
3.06483e-05
3.0757e-05
3.08777e-05
3.10131e-05
3.11629e-05
3.13194e-05
3.14622e-05
3.15474e-05
3.1509e-05
3.13095e-05
3.10391e-05
3.09445e-05
3.12461e-05
3.17777e-05
3.17848e-05
3.10243e-05
3.00478e-05
2.96865e-05
2.98315e-05
3.01092e-05
3.029e-05
3.03411e-05
3.0308e-05
3.02341e-05
3.01435e-05
3.00333e-05
2.95846e-05
2.93919e-05
2.92166e-05
2.90407e-05
2.88627e-05
2.86816e-05
2.84965e-05
2.83067e-05
2.81113e-05
2.79098e-05
2.77013e-05
2.74851e-05
2.72603e-05
2.70263e-05
2.67821e-05
2.65271e-05
2.62603e-05
2.59812e-05
2.56888e-05
2.53825e-05
2.50615e-05
2.47253e-05
2.43732e-05
2.40047e-05
2.36193e-05
2.32167e-05
2.27965e-05
2.23586e-05
2.19029e-05
2.3457e-05
1.69798e-05
2.21466e-05
2.25991e-05
2.30329e-05
2.3448e-05
2.38447e-05
2.42233e-05
2.45842e-05
2.49277e-05
2.52545e-05
2.5565e-05
2.586e-05
2.61402e-05
2.64061e-05
2.66586e-05
2.68983e-05
2.71259e-05
2.73423e-05
2.7548e-05
2.77439e-05
2.79306e-05
2.81087e-05
2.82791e-05
2.84423e-05
2.85989e-05
2.87498e-05
2.88954e-05
2.90365e-05
2.91738e-05
2.93242e-05
2.96964e-05
2.97582e-05
2.9807e-05
2.98578e-05
2.99106e-05
2.9966e-05
3.0024e-05
3.00852e-05
3.01499e-05
3.02186e-05
3.02918e-05
3.037e-05
3.04538e-05
3.05436e-05
3.06401e-05
3.07448e-05
3.08599e-05
3.09875e-05
3.11263e-05
3.12684e-05
3.13944e-05
3.14661e-05
3.14318e-05
3.12731e-05
3.10826e-05
3.10688e-05
3.13812e-05
3.18277e-05
3.18004e-05
3.11101e-05
3.02063e-05
2.98031e-05
2.9863e-05
3.00795e-05
3.02369e-05
3.02875e-05
3.02618e-05
3.01964e-05