/*--------------------------------*- C++ -*----------------------------------*\
  =========                 |
  \\      /  F ield         | OpenFOAM: The Open Source CFD Toolbox
   \\    /   O peration     | Website:  https://openfoam.org
    \\  /    A nd           | Version:  9
     \\/     M anipulation  |
\*---------------------------------------------------------------------------*/
FoamFile
{
    format      ascii;
    class       volVectorField;
    location    "0.05";
    object      U;
}
// * * * * * * * * * * * * * * * * * * * * * * * * * * * * * * * * * * * * * //

dimensions      [0 1 -1 0 0 0 0];

internalField   nonuniform List<vector> 
20000
(
(2.82795e-06 0 -0.00116294)
(5.28207e-06 0 -0.00273127)
(3.41261e-06 0 -0.00405662)
(3.36886e-06 0 -0.00541568)
(4.43107e-06 0 -0.00684803)
(5.66695e-06 0 -0.0083626)
(7.26179e-06 0 -0.00996311)
(9.22677e-06 0 -0.0116561)
(1.15638e-05 0 -0.013451)
(1.42776e-05 0 -0.0153587)
(1.73761e-05 0 -0.0173917)
(2.08751e-05 0 -0.0195629)
(2.47999e-05 0 -0.0218856)
(2.91856e-05 0 -0.0243735)
(3.40753e-05 0 -0.0270406)
(3.95186e-05 0 -0.0299016)
(4.55712e-05 0 -0.0329717)
(5.22946e-05 0 -0.0362669)
(5.9758e-05 0 -0.039804)
(6.80396e-05 0 -0.0436007)
(7.72297e-05 0 -0.0476758)
(8.74349e-05 0 -0.0520493)
(9.87839e-05 0 -0.0567433)
(0.000111436 0 -0.061782)
(0.000125597 0 -0.0671932)
(0.000141534 0 -0.0730098)
(0.000159594 0 -0.0792722)
(0.000180197 0 -0.0860306)
(0.000203773 0 -0.0933458)
(0.000230684 0 -0.101284)
(0.000262423 0 -0.110636)
(0.000299045 0 -0.121223)
(0.000339663 0 -0.132115)
(0.000385171 0 -0.143345)
(0.000436706 0 -0.154968)
(0.000495545 0 -0.167045)
(0.000563172 0 -0.179643)
(0.000641524 0 -0.192833)
(0.00073335 0 -0.2067)
(0.000842497 0 -0.221355)
(0.000973234 0 -0.236958)
(0.00112687 0 -0.253697)
(0.0012946 0 -0.271677)
(0.00145224 0 -0.290628)
(0.00157578 0 -0.309585)
(0.00170011 0 -0.327001)
(0.00202099 0 -0.3416)
(0.00316655 0 -0.352895)
(0.00737047 0 -0.360938)
(0.0219526 0 -0.389143)
(0.0606059 0 -0.628137)
(0.0816461 0 -1.32356)
(-0.0824344 0 -1.13198)
(-0.0442881 0 -0.0581422)
(0.00188644 0 0.308895)
(0.0132225 0 0.531464)
(0.0358133 0 0.577581)
(0.0254637 0 -1.16943)
(-0.0103925 0 -1.66071)
(-0.0285441 0 -1.18172)
(-0.0378145 0 0.517826)
(-0.0167028 0 0.471124)
(-0.00903327 0 0.180429)
(0.0039741 0 -0.138372)
(0.00874809 0 -0.421528)
(-0.00113407 0 -0.49016)
(-0.00666415 0 -0.403007)
(-0.00512378 0 -0.317679)
(-0.00319355 0 -0.26364)
(-0.00207917 0 -0.226171)
(-0.0014723 0 -0.199068)
(-0.00112048 0 -0.179048)
(-0.000893702 0 -0.162018)
(-0.000738183 0 -0.146877)
(-0.000621434 0 -0.133091)
(-0.000527003 0 -0.120451)
(-0.000447496 0 -0.108868)
(-0.00037959 0 -0.0982815)
(-0.000321387 0 -0.0886204)
(-0.000271454 0 -0.0798095)
(-0.000228591 0 -0.0717733)
(-0.000191774 0 -0.0644403)
(-0.000160113 0 -0.0577449)
(-0.000132836 0 -0.0516284)
(-0.000109296 0 -0.0460381)
(-8.89594e-05 0 -0.0409268)
(-7.13791e-05 0 -0.0362515)
(-5.61776e-05 0 -0.0319735)
(-4.30289e-05 0 -0.0280573)
(-3.16503e-05 0 -0.0244704)
(-2.17961e-05 0 -0.0211835)
(-1.3256e-05 0 -0.0181698)
(-5.84304e-06 0 -0.0154052)
(6.07606e-07 0 -0.0128677)
(6.26023e-06 0 -0.0105369)
(1.12187e-05 0 -0.00839385)
(1.57983e-05 0 -0.00642159)
(2.00808e-05 0 -0.00460541)
(2.48908e-05 0 -0.00294263)
(3.5631e-05 0 -0.00135249)
(-1.97326e-05 0 -0.00114764)
(-1.02253e-05 0 -0.00271508)
(-1.12733e-05 0 -0.00404251)
(-9.69997e-06 0 -0.0054061)
(-6.62209e-06 0 -0.00683936)
(-3.26331e-06 0 -0.00835533)
(8.99605e-07 0 -0.00995752)
(6.00627e-06 0 -0.0116523)
(1.21236e-05 0 -0.013449)
(1.92954e-05 0 -0.0153585)
(2.75629e-05 0 -0.0173933)
(3.6976e-05 0 -0.0195663)
(4.76033e-05 0 -0.0218909)
(5.95367e-05 0 -0.0243807)
(7.28916e-05 0 -0.02705)
(8.78033e-05 0 -0.0299132)
(0.000104426 0 -0.0329859)
(0.000122934 0 -0.0362838)
(0.000143522 0 -0.0398239)
(0.000166413 0 -0.0436238)
(0.000191863 0 -0.0477024)
(0.000220173 0 -0.0520799)
(0.0002517 0 -0.0567782)
(0.000286883 0 -0.0618217)
(0.000326272 0 -0.0672383)
(0.000370565 0 -0.073061)
(0.000420636 0 -0.0793302)
(0.000477501 0 -0.0860963)
(0.000542214 0 -0.09342)
(0.00061568 0 -0.101367)
(0.000703405 0 -0.110729)
(0.00080577 0 -0.12133)
(0.000919085 0 -0.132236)
(0.00104586 0 -0.143484)
(0.00118919 0 -0.155127)
(0.00135267 0 -0.167226)
(0.00154056 0 -0.179849)
(0.00175833 0 -0.193068)
(0.0020134 0 -0.206968)
(0.0023156 0 -0.221664)
(0.00267583 0 -0.237314)
(0.0031006 0 -0.254103)
(0.0035832 0 -0.272125)
(0.00410658 0 -0.291102)
(0.00469989 0 -0.310098)
(0.00559954 0 -0.327676)
(0.0075384 0 -0.342832)
(0.0124603 0 -0.355899)
(0.0248191 0 -0.369945)
(0.0550064 0 -0.414899)
(0.137716 0 -0.65663)
(0.0957074 0 -1.23994)
(-0.143622 0 -1.04318)
(-0.0875985 0 -0.11648)
(0.00220198 0 0.286489)
(0.0354529 0 0.520333)
(0.0863394 0 0.541043)
(0.0756908 0 -1.08105)
(-0.00180021 0 -1.68832)
(-0.0808528 0 -1.09633)
(-0.0941357 0 0.478281)
(-0.0489832 0 0.463093)
(-0.0252963 0 0.17135)
(0.00352434 0 -0.14679)
(0.0131697 0 -0.417695)
(-0.00357671 0 -0.483263)
(-0.0133938 0 -0.403316)
(-0.0114191 0 -0.32013)
(-0.0080063 0 -0.265471)
(-0.00559422 0 -0.227356)
(-0.00408177 0 -0.199921)
(-0.00313878 0 -0.179694)
(-0.00249449 0 -0.16253)
(-0.00203723 0 -0.147306)
(-0.00169174 0 -0.133467)
(-0.00141578 0 -0.120788)
(-0.00118731 0 -0.109175)
(-0.00099459 0 -0.0985613)
(-0.000830622 0 -0.0888761)
(-0.000690547 0 -0.0800435)
(-0.000570578 0 -0.0719875)
(-0.000467581 0 -0.0646365)
(-0.000378952 0 -0.0579249)
(-0.000302546 0 -0.0517935)
(-0.000236596 0 -0.0461896)
(-0.000179629 0 -0.0410657)
(-0.000130402 0 -0.0363789)
(-8.78677e-05 0 -0.0320902)
(-5.11359e-05 0 -0.028164)
(-1.94396e-05 0 -0.0245679)
(7.90828e-06 0 -0.0212724)
(3.1453e-05 0 -0.0182508)
(5.17169e-05 0 -0.0154788)
(6.91931e-05 0 -0.0129345)
(8.42789e-05 0 -0.0105974)
(9.73253e-05 0 -0.00844876)
(0.00010894 0 -0.00647239)
(0.000118881 0 -0.00465462)
(0.000128388 0 -0.00300034)
(0.000150263 0 -0.00142875)
(-6.80001e-05 0 -0.00116469)
(-5.54997e-05 0 -0.00273554)
(-5.00707e-05 0 -0.00406219)
(-4.42852e-05 0 -0.00542385)
(-3.83143e-05 0 -0.00685717)
(-3.20346e-05 0 -0.00837433)
(-2.48434e-05 0 -0.00997815)
(-1.6435e-05 0 -0.0116747)
(-6.62759e-06 0 -0.0134731)
(4.71665e-06 0 -0.0153844)
(1.7724e-05 0 -0.0174208)
(3.25198e-05 0 -0.0195954)
(4.92439e-05 0 -0.0219216)
(6.80607e-05 0 -0.024413)
(8.91631e-05 0 -0.0270838)
(0.000112772 0 -0.0299487)
(0.000139138 0 -0.033023)
(0.000168541 0 -0.0363227)
(0.000201297 0 -0.0398645)
(0.000237765 0 -0.0436663)
(0.000278358 0 -0.0477468)
(0.000323553 0 -0.0521263)
(0.000373919 0 -0.0568268)
(0.000430144 0 -0.0618728)
(0.000493082 0 -0.0672922)
(0.0005638 0 -0.0731181)
(0.000643614 0 -0.079391)
(0.000734032 0 -0.0861614)
(0.000836615 0 -0.0934895)
(0.000952724 0 -0.101441)
(0.00109259 0 -0.110805)
(0.00125702 0 -0.121411)
(0.00143875 0 -0.132325)
(0.00164182 0 -0.143583)
(0.00187123 0 -0.155238)
(0.00213281 0 -0.167353)
(0.0024335 0 -0.179995)
(0.00278227 0 -0.193238)
(0.00319108 0 -0.20717)
(0.00367562 0 -0.221906)
(0.00425428 0 -0.237603)
(0.00494369 0 -0.25444)
(0.0057541 0 -0.272502)
(0.00670585 0 -0.291527)
(0.00791935 0 -0.310685)
(0.00983519 0 -0.328837)
(0.0135545 0 -0.345617)
(0.0216133 0 -0.362899)
(0.038928 0 -0.387909)
(0.0730612 0 -0.454138)
(0.155053 0 -0.686677)
(0.0856414 0 -1.12275)
(-0.143413 0 -0.960905)
(-0.102851 0 -0.192334)
(0.00551018 0 0.239852)
(0.053365 0 0.490712)
(0.12305 0 0.493582)
(0.114044 0 -0.995507)
(0.000236841 0 -1.65328)
(-0.119015 0 -1.01099)
(-0.137525 0 0.438429)
(-0.076477 0 0.437628)
(-0.0390847 0 0.147582)
(0.000211385 0 -0.164544)
(0.0125858 0 -0.413536)
(-0.00580558 0 -0.471484)
(-0.0169427 0 -0.400448)
(-0.0153771 0 -0.322056)
(-0.011541 0 -0.267685)
(-0.00841743 0 -0.22893)
(-0.00628804 0 -0.201027)
(-0.0048892 0 -0.180477)
(-0.00389209 0 -0.163092)
(-0.00316425 0 -0.147728)
(-0.00260781 0 -0.133803)
(-0.00216323 0 -0.12107)
(-0.0017967 0 -0.109418)
(-0.00148889 0 -0.0987745)
(-0.00122784 0 -0.0890644)
(-0.00100524 0 -0.0802105)
(-0.000814727 0 -0.0721362)
(-0.000651178 0 -0.064769)
(-0.000510438 0 -0.0580432)
(-0.000389125 0 -0.0518994)
(-0.000284447 0 -0.0462844)
(-0.000194074 0 -0.0411506)
(-0.000116054 0 -0.0364549)
(-4.87554e-05 0 -0.0321581)
(9.19784e-06 0 -0.0282246)
(5.89869e-05 0 -0.024622)
(0.000101643 0 -0.0213205)
(0.000138053 0 -0.0182935)
(0.000168978 0 -0.0155167)
(0.000195057 0 -0.0129679)
(0.000216813 0 -0.0106266)
(0.000234729 0 -0.00847424)
(0.000249391 0 -0.00649533)
(0.000260633 0 -0.00467866)
(0.00026869 0 -0.00302927)
(0.000284526 0 -0.00145799)
(-0.000126104 0 -0.00118363)
(-0.000114456 0 -0.00276526)
(-0.000104954 0 -0.00408803)
(-9.61462e-05 0 -0.00544538)
(-8.75663e-05 0 -0.00687713)
(-7.85993e-05 0 -0.00839486)
(-6.8543e-05 0 -0.0100003)
(-5.69874e-05 0 -0.0116989)
(-4.36674e-05 0 -0.0134994)
(-2.83705e-05 0 -0.0154129)
(-1.08982e-05 0 -0.0174516)
(8.94702e-06 0 -0.0196284)
(3.13763e-05 0 -0.0219567)
(5.66291e-05 0 -0.0244503)
(8.49766e-05 0 -0.0271234)
(0.000116725 0 -0.0299905)
(0.000152216 0 -0.0330671)
(0.000191835 0 -0.0363691)
(0.000236012 0 -0.0399133)
(0.000285234 0 -0.0437175)
(0.000340059 0 -0.0478006)
(0.00040113 0 -0.0521828)
(0.000469208 0 -0.0568862)
(0.000545213 0 -0.0619354)
(0.000630272 0 -0.0673584)
(0.00072578 0 -0.0731884)
(0.000833432 0 -0.0794662)
(0.000955171 0 -0.0862418)
(0.00109302 0 -0.0935755)
(0.00124873 0 -0.101531)
(0.00143703 0 -0.110899)
(0.0016594 0 -0.121512)
(0.00190502 0 -0.132437)
(0.00217922 0 -0.143709)
(0.00248871 0 -0.155383)
(0.00284128 0 -0.16752)
(0.00324637 0 -0.180191)
(0.00371619 0 -0.193472)
(0.004267 0 -0.207451)
(0.00492023 0 -0.222247)
(0.0057021 0 -0.238019)
(0.00664098 0 -0.254943)
(0.00776748 0 -0.273108)
(0.0091409 0 -0.292297)
(0.0109547 0 -0.311845)
(0.0137682 0 -0.331003)
(0.018799 0 -0.350134)
(0.0285326 0 -0.372488)
(0.047464 0 -0.408015)
(0.0793529 0 -0.488926)
(0.141154 0 -0.698278)
(0.0680631 0 -1.01722)
(-0.125647 0 -0.889497)
(-0.103609 0 -0.259076)
(0.0101863 0 0.182644)
(0.0667753 0 0.448415)
(0.150031 0 0.447802)
(0.146096 0 -0.918004)
(0.000232307 0 -1.59198)
(-0.15054 0 -0.926847)
(-0.170635 0 0.401735)
(-0.096238 0 0.401598)
(-0.0492044 0 0.1161)
(-0.00305146 0 -0.185227)
(0.0104291 0 -0.410248)
(-0.00761206 0 -0.459912)
(-0.0187947 0 -0.396788)
(-0.0178216 0 -0.32368)
(-0.0139917 0 -0.27013)
(-0.01051 0 -0.230901)
(-0.00799901 0 -0.202515)
(-0.00628243 0 -0.181591)
(-0.00501717 0 -0.163928)
(-0.00407067 0 -0.148377)
(-0.00333662 0 -0.134331)
(-0.00274641 0 -0.121516)
(-0.00225896 0 -0.109806)
(-0.00184954 0 -0.0991164)
(-0.00150229 0 -0.089369)
(-0.00120607 0 -0.0804833)
(-0.000952406 0 -0.0723814)
(-0.000734539 0 -0.0649903)
(-0.000546993 0 -0.0582433)
(-0.00038529 0 -0.0520806)
(-0.000245738 0 -0.0464488)
(-0.000125268 0 -0.0412999)
(-2.13059e-05 0 -0.0365903)
(6.82579e-05 0 -0.0322808)
(0.000145232 0 -0.0283357)
(0.000211197 0 -0.0247222)
(0.000267481 0 -0.0214106)
(0.000315232 0 -0.0183741)
(0.000355434 0 -0.0155882)
(0.000388899 0 -0.0130306)
(0.000416305 0 -0.0106807)
(0.000438326 0 -0.00851995)
(0.000455798 0 -0.00653339)
(0.000468506 0 -0.00471135)
(0.000476796 0 -0.00305816)
(0.000488586 0 -0.00147789)
(-0.00019095 0 -0.00120097)
(-0.000182657 0 -0.00279595)
(-0.000172561 0 -0.00411858)
(-0.000162687 0 -0.00547302)
(-0.000152789 0 -0.00690364)
(-0.000142105 0 -0.00842239)
(-0.000129964 0 -0.0100301)
(-0.000115929 0 -0.0117315)
(-9.96876e-05 0 -0.0135352)
(-8.0985e-05 0 -0.0154519)
(-5.958e-05 0 -0.0174939)
(-3.52267e-05 0 -0.019674)
(-7.65751e-06 0 -0.0220058)
(2.34283e-05 0 -0.0245029)
(5.83699e-05 0 -0.0271795)
(9.7549e-05 0 -0.0300504)
(0.000141393 0 -0.0331307)
(0.000190378 0 -0.0364367)
(0.000245041 0 -0.039985)
(0.000305988 0 -0.0437936)
(0.000373904 0 -0.0478812)
(0.000449585 0 -0.0522683)
(0.000533964 0 -0.056977)
(0.000628164 0 -0.0620319)
(0.000733554 0 -0.0674613)
(0.000851811 0 -0.0732986)
(0.000984951 0 -0.0795844)
(0.00113528 0 -0.086369)
(0.00130521 0 -0.0937122)
(0.00149685 0 -0.101677)
(0.00172894 0 -0.111054)
(0.00200369 0 -0.121681)
(0.00230706 0 -0.132625)
(0.00264536 0 -0.14392)
(0.00302668 0 -0.155622)
(0.00346043 0 -0.167794)
(0.00395815 0 -0.180508)
(0.00453478 0 -0.193842)
(0.00521026 0 -0.207889)
(0.00601085 0 -0.222771)
(0.00696934 0 -0.23865)
(0.00812406 0 -0.255705)
(0.00952256 0 -0.274039)
(0.0112528 0 -0.293498)
(0.0135495 0 -0.313596)
(0.0170102 0 -0.33395)
(0.0228192 0 -0.355512)
(0.0331219 0 -0.382381)
(0.0514823 0 -0.425444)
(0.0784099 0 -0.512937)
(0.117341 0 -0.6956)
(0.0498389 0 -0.932333)
(-0.105105 0 -0.829243)
(-0.0969725 0 -0.309796)
(0.0131051 0 0.125413)
(0.0743053 0 0.401539)
(0.166414 0 0.403828)
(0.167673 0 -0.843553)
(-0.0013738 0 -1.50909)
(-0.173961 0 -0.842825)
(-0.191318 0 0.367619)
(-0.107447 0 0.360385)
(-0.0552109 0 0.0812638)
(-0.00557699 0 -0.206225)
(0.00766412 0 -0.40838)
(-0.00879045 0 -0.450203)
(-0.0192732 0 -0.393394)
(-0.0189394 0 -0.325107)
(-0.0154071 0 -0.272589)
(-0.0118511 0 -0.23307)
(-0.00915677 0 -0.204256)
(-0.00725032 0 -0.182961)
(-0.00580506 0 -0.165003)
(-0.00470002 0 -0.14924)
(-0.00383032 0 -0.135047)
(-0.00312499 0 -0.122129)
(-0.00253969 0 -0.110342)
(-0.00204664 0 -0.0995916)
(-0.00162753 0 -0.0897935)
(-0.00126933 0 -0.0808644)
(-0.000962078 0 -0.0727247)
(-0.000697821 0 -0.0653003)
(-0.000470075 0 -0.0585238)
(-0.000273521 0 -0.0523348)
(-0.00010376 0 -0.0466792)
(4.28489e-05 0 -0.0415086)
(0.000169364 0 -0.0367793)
(0.000278359 0 -0.0324516)
(0.000372009 0 -0.0284895)
(0.000452192 0 -0.0248601)
(0.000520522 0 -0.0215337)
(0.00057839 0 -0.0184831)
(0.00062699 0 -0.0156838)
(0.000667338 0 -0.0131132)
(0.000700313 0 -0.0107508)
(0.000726805 0 -0.00857801)
(0.000747937 0 -0.00658038)
(0.000763415 0 -0.00474857)
(0.000773393 0 -0.00308625)
(0.000784793 0 -0.00149349)
(-0.000269819 0 -0.00121367)
(-0.000264715 0 -0.00282084)
(-0.000255491 0 -0.00414654)
(-0.000245802 0 -0.00550109)
(-0.000235535 0 -0.00693239)
(-0.000223944 0 -0.00845331)
(-0.000210462 0 -0.0100642)
(-0.00019465 0 -0.0117694)
(-0.00017616 0 -0.0135772)
(-0.000154707 0 -0.0154981)
(-0.000130019 0 -0.0175443)
(-0.00010182 0 -0.0197287)
(-6.98004e-05 0 -0.0220649)
(-3.36118e-05 0 -0.0245665)
(7.14354e-06 0 -0.0272477)
(5.29119e-05 0 -0.0301233)
(0.000104194 0 -0.0332086)
(0.00016155 0 -0.0365197)
(0.000225608 0 -0.0400735)
(0.000297073 0 -0.0438876)
(0.00037675 0 -0.0479813)
(0.00046556 0 -0.0523748)
(0.000564587 0 -0.0570903)
(0.000675128 0 -0.0621528)
(0.000798758 0 -0.0675906)
(0.000937382 0 -0.0734372)
(0.00109327 0 -0.0797334)
(0.00126902 0 -0.0865295)
(0.00146735 0 -0.093885)
(0.00169063 0 -0.101862)
(0.00196122 0 -0.111252)
(0.00228202 0 -0.121898)
(0.0026359 0 -0.132865)
(0.00302989 0 -0.14419)
(0.00347308 0 -0.155927)
(0.00397609 0 -0.168142)
(0.00455201 0 -0.180909)
(0.00521782 0 -0.194307)
(0.0059961 0 -0.208436)
(0.00691637 0 -0.223422)
(0.00801574 0 -0.23943)
(0.00933903 0 -0.256648)
(0.0109447 0 -0.275196)
(0.0129371 0 -0.294987)
(0.015565 0 -0.315701)
(0.0194099 0 -0.337265)
(0.0255404 0 -0.361055)
(0.0356368 0 -0.391602)
(0.0520783 0 -0.439613)
(0.0730379 0 -0.528329)
(0.0934483 0 -0.68642)
(0.0343271 0 -0.864618)
(-0.0866662 0 -0.78005)
(-0.0877489 0 -0.349535)
(0.0126905 0 0.0700233)
(0.0754698 0 0.35283)
(0.171405 0 0.361631)
(0.176012 0 -0.770813)
(-0.00450828 0 -1.4101)
(-0.187312 0 -0.760591)
(-0.199169 0 0.334028)
(-0.110763 0 0.316781)
(-0.0569388 0 0.0450718)
(-0.00694859 0 -0.226786)
(0.00512641 0 -0.4074)
(-0.00908784 0 -0.44195)
(-0.0185962 0 -0.39023)
(-0.0188902 0 -0.326267)
(-0.0158509 0 -0.27491)
(-0.0124505 0 -0.23527)
(-0.00974138 0 -0.206102)
(-0.00775973 0 -0.184464)
(-0.00621853 0 -0.166218)
(-0.00501594 0 -0.150237)
(-0.00405555 0 -0.135887)
(-0.00326905 0 -0.122854)
(-0.00261215 0 -0.110979)
(-0.00205626 0 -0.100158)
(-0.00158203 0 -0.0903009)
(-0.00117549 0 -0.0813207)
(-0.000825847 0 -0.0731363)
(-0.000524436 0 -0.0656723)
(-0.000264164 0 -0.0588605)
(-3.91767e-05 0 -0.0526399)
(0.000155385 0 -0.0469557)
(0.000323575 0 -0.041759)
(0.000468826 0 -0.0370057)
(0.00059404 0 -0.0326559)
(0.000701683 0 -0.0286733)
(0.000793882 0 -0.0250248)
(0.000872478 0 -0.0216804)
(0.000939063 0 -0.0186128)
(0.00099502 0 -0.0157973)
(0.00104155 0 -0.0132114)
(0.00107971 0 -0.0108345)
(0.00111059 0 -0.00864808)
(0.00113548 0 -0.006638)
(0.00115405 0 -0.00479441)
(0.00116621 0 -0.00311963)
(0.00117855 0 -0.00151124)
(-0.000372687 0 -0.00122361)
(-0.000369398 0 -0.00284146)
(-0.000360535 0 -0.00417192)
(-0.000350869 0 -0.00552891)
(-0.000340226 0 -0.00696251)
(-0.000327849 0 -0.00848664)
(-0.000313265 0 -0.0101016)
(-0.00029601 0 -0.0118115)
(-0.000275681 0 -0.0136241)
(-0.000251945 0 -0.01555)
(-0.000224496 0 -0.0176012)
(-0.000193019 0 -0.0197907)
(-0.000157167 0 -0.0221319)
(-0.00011655 0 -0.0246387)
(-7.07203e-05 0 -0.0273253)
(-1.91749e-05 0 -0.0302064)
(3.86524e-05 0 -0.0332974)
(0.000103393 0 -0.0366144)
(0.000175754 0 -0.0401743)
(0.00025653 0 -0.0439949)
(0.000346619 0 -0.0480954)
(0.000447051 0 -0.0524961)
(0.000559034 0 -0.0572195)
(0.000684005 0 -0.0622905)
(0.000823703 0 -0.0677375)
(0.000980213 0 -0.0735945)
(0.001156 0 -0.0799022)
(0.00135385 0 -0.086711)
(0.00157673 0 -0.09408)
(0.00182719 0 -0.102071)
(0.00213083 0 -0.111476)
(0.00249102 0 -0.122142)
(0.00288763 0 -0.133135)
(0.0033281 0 -0.144492)
(0.00382221 0 -0.156268)
(0.00438127 0 -0.16853)
(0.00501928 0 -0.181354)
(0.00575441 0 -0.194825)
(0.00661059 0 -0.209043)
(0.00761878 0 -0.224141)
(0.00881771 0 -0.240292)
(0.0102548 0 -0.257688)
(0.0119926 0 -0.276471)
(0.0141398 0 -0.296617)
(0.016936 0 -0.317957)
(0.0209043 0 -0.340664)
(0.0269454 0 -0.366408)
(0.0362486 0 -0.399855)
(0.050062 0 -0.450879)
(0.065201 0 -0.53758)
(0.0728426 0 -0.674086)
(0.0219133 0 -0.810319)
(-0.0725523 0 -0.740372)
(-0.0794269 0 -0.381675)
(0.00861719 0 0.0169714)
(0.0703339 0 0.303851)
(0.165956 0 0.320684)
(0.172116 0 -0.702195)
(-0.00835153 0 -1.30255)
(-0.190461 0 -0.684093)
(-0.19627 0 0.299907)
(-0.107093 0 0.272702)
(-0.0544602 0 0.00879082)
(-0.00656018 0 -0.246499)
(0.00372305 0 -0.406755)
(-0.00837853 0 -0.434648)
(-0.0170137 0 -0.387087)
(-0.0178935 0 -0.32703)
(-0.0154412 0 -0.276956)
(-0.0123559 0 -0.237361)
(-0.00976531 0 -0.207929)
(-0.007807 0 -0.185992)
(-0.00624637 0 -0.167479)
(-0.00500446 0 -0.15129)
(-0.00399797 0 -0.136785)
(-0.0031649 0 -0.123636)
(-0.00246368 0 -0.111671)
(-0.00186679 0 -0.100775)
(-0.00135516 0 -0.0908552)
(-0.000914775 0 -0.0818206)
(-0.00053469 0 -0.0735883)
(-0.000206033 0 -0.0660817)
(7.85055e-05 0 -0.0592317)
(0.000325004 0 -0.0529766)
(0.000538548 0 -0.0472611)
(0.000723426 0 -0.0420359)
(0.000883285 0 -0.0372563)
(0.00102123 0 -0.0328822)
(0.00113993 0 -0.028877)
(0.00124168 0 -0.0252074)
(0.00132848 0 -0.0218431)
(0.00140206 0 -0.0187569)
(0.00146394 0 -0.0159238)
(0.00151544 0 -0.0133211)
(0.00155777 0 -0.0109284)
(0.00159212 0 -0.00872742)
(0.00161983 0 -0.00670376)
(0.0016405 0 -0.00484673)
(0.00165405 0 -0.00315728)
(0.00166692 0 -0.00153091)
(-0.00050443 0 -0.00123294)
(-0.000501884 0 -0.00286119)
(-0.000492458 0 -0.00419721)
(-0.000482169 0 -0.00555775)
(-0.000470705 0 -0.00699448)
(-0.000457263 0 -0.00852232)
(-0.000441444 0 -0.0101419)
(-0.00042275 0 -0.0118569)
(-0.000400706 0 -0.013675)
(-0.000374917 0 -0.0156064)
(-0.000345027 0 -0.0176633)
(-0.000310675 0 -0.0198585)
(-0.000271471 0 -0.0222054)
(-0.000226979 0 -0.024718)
(-0.000176704 0 -0.0274106)
(-0.00012009 0 -0.0302978)
(-5.65153e-05 0 -0.0333951)
(1.47135e-05 0 -0.0367186)
(9.43711e-05 0 -0.0402852)
(0.000183323 0 -0.0441129)
(0.000282546 0 -0.0482208)
(0.000393155 0 -0.0526294)
(0.000516455 0 -0.0573613)
(0.000653993 0 -0.0624414)
(0.000807629 0 -0.0678985)
(0.000979579 0 -0.0737665)
(0.00117244 0 -0.0800864)
(0.00138915 0 -0.0869085)
(0.00163281 0 -0.0942917)
(0.00190609 0 -0.102297)
(0.00223731 0 -0.111718)
(0.00263006 0 -0.122406)
(0.00306132 0 -0.133427)
(0.00353871 0 -0.144817)
(0.00407227 0 -0.156633)
(0.00467347 0 -0.168945)
(0.00535654 0 -0.18183)
(0.00613989 0 -0.195374)
(0.00704739 0 -0.209685)
(0.00810953 0 -0.224901)
(0.00936398 0 -0.241197)
(0.0108566 0 -0.258775)
(0.0126475 0 -0.277797)
(0.0148377 0 -0.298295)
(0.01764 0 -0.320226)
(0.0214935 0 -0.343959)
(0.0271047 0 -0.371321)
(0.0352216 0 -0.406891)
(0.0462037 0 -0.459348)
(0.0562669 0 -0.542125)
(0.0557161 0 -0.660152)
(0.0117083 0 -0.766513)
(-0.0631052 0 -0.708088)
(-0.073788 0 -0.406847)
(0.00124439 0 -0.0321751)
(0.0595337 0 0.256491)
(0.152311 0 0.281401)
(0.159209 0 -0.639679)
(-0.0117435 0 -1.19341)
(-0.184245 0 -0.616089)
(-0.184973 0 0.265312)
(-0.0970988 0 0.230115)
(-0.0481801 0 -0.0259911)
(-0.00410723 0 -0.264551)
(0.00389589 0 -0.406101)
(-0.00664089 0 -0.42811)
(-0.0146821 0 -0.383937)
(-0.016125 0 -0.327368)
(-0.0143037 0 -0.278651)
(-0.0116375 0 -0.239256)
(-0.00926489 0 -0.209656)
(-0.00741032 0 -0.187479)
(-0.00589649 0 -0.168733)
(-0.00466803 0 -0.152354)
(-0.00365729 0 -0.137704)
(-0.0028109 0 -0.124444)
(-0.00209201 0 -0.11239)
(-0.00147565 0 -0.101422)
(-0.000944181 0 -0.0914388)
(-0.000484406 0 -0.0823493)
(-8.58567e-05 0 -0.0740681)
(0.000260061 0 -0.0665178)
(0.000560512 0 -0.0596284)
(0.000821506 0 -0.0533374)
(0.00104813 0 -0.0475892)
(0.0012447 0 -0.0423339)
(0.00141495 0 -0.0375265)
(0.00156207 0 -0.0331266)
(0.00168879 0 -0.0290973)
(0.00179752 0 -0.0254051)
(0.00189032 0 -0.0220196)
(0.00196901 0 -0.0189132)
(0.00203518 0 -0.016061)
(0.00209022 0 -0.0134403)
(0.00213541 0 -0.0110305)
(0.002172 0 -0.00881355)
(0.00220131 0 -0.00677469)
(0.00222293 0 -0.00490238)
(0.00223682 0 -0.00319657)
(0.0022497 0 -0.00155113)
(-0.000665939 0 -0.00124292)
(-0.000663722 0 -0.00288236)
(-0.000653219 0 -0.00422466)
(-0.000641854 0 -0.00558942)
(-0.000629189 0 -0.00702966)
(-0.000614371 0 -0.00856139)
(-0.000597083 0 -0.0101856)
(-0.000576817 0 -0.011906)
(-0.000553036 0 -0.01373)
(-0.000525276 0 -0.0156675)
(-0.000493122 0 -0.0177305)
(-0.000456162 0 -0.0199319)
(-0.00041396 0 -0.0222852)
(-0.000366032 0 -0.0248042)
(-0.000311838 0 -0.0275033)
(-0.000250773 0 -0.0303973)
(-0.000182163 0 -0.0335015)
(-0.000105261 0 -0.0368321)
(-1.92358e-05 0 -0.0404061)
(7.68349e-05 0 -0.0442415)
(0.000183987 0 -0.0483575)
(0.0003034 0 -0.0527746)
(0.000436449 0 -0.0575156)
(0.000584763 0 -0.0626056)
(0.000750284 0 -0.0680734)
(0.000935307 0 -0.0739531)
(0.00114251 0 -0.0802859)
(0.0013749 0 -0.0871221)
(0.00163568 0 -0.0945201)
(0.00192754 0 -0.10254)
(0.00228087 0 -0.111979)
(0.00269921 0 -0.12269)
(0.00315689 0 -0.133739)
(0.00366145 0 -0.145163)
(0.0042227 0 -0.157021)
(0.00485177 0 -0.169383)
(0.00556242 0 -0.182329)
(0.00637226 0 -0.195948)
(0.00730377 0 -0.210352)
(0.00838502 0 -0.225682)
(0.00965006 0 -0.242121)
(0.0111394 0 -0.259875)
(0.0129047 0 -0.279123)
(0.0150307 0 -0.299945)
(0.0176901 0 -0.322398)
(0.0212294 0 -0.346989)
(0.026165 0 -0.375603)
(0.0328858 0 -0.412552)
(0.0411205 0 -0.465216)
(0.0469502 0 -0.543157)
(0.0412241 0 -0.645719)
(0.00278202 0 -0.730667)
(-0.0576745 0 -0.68122)
(-0.0711555 0 -0.425421)
(-0.00876043 0 -0.0758699)
(0.0442811 0 0.212149)
(0.133182 0 0.24392)
(0.141427 0 -0.584164)
(-0.0134571 0 -1.08856)
(-0.170232 0 -0.557779)
(-0.166972 0 0.230968)
(-0.0817626 0 0.190453)
(-0.0387674 0 -0.0577423)
(0.000320136 0 -0.280191)
(0.00566772 0 -0.40516)
(-0.00394439 0 -0.422146)
(-0.0116757 0 -0.380764)
(-0.0136897 0 -0.327294)
(-0.0125359 0 -0.279962)
(-0.0103636 0 -0.240898)
(-0.0082847 0 -0.211228)
(-0.00659852 0 -0.188872)
(-0.0051872 0 -0.169936)
(-0.00401836 0 -0.153394)
(-0.00304105 0 -0.138615)
(-0.00221201 0 -0.125253)
(-0.00150039 0 -0.113117)
(-0.000884931 0 -0.10208)
(-0.000350392 0 -0.0920368)
(0.000114891 0 -0.0828939)
(0.000520346 0 -0.0745648)
(0.000873856 0 -0.066971)
(0.00118209 0 -0.0600419)
(0.00145074 0 -0.0537147)
(0.00168466 0 -0.0479331)
(0.00188805 0 -0.0426469)
(0.00206455 0 -0.0378109)
(0.00221732 0 -0.0333842)
(0.00234908 0 -0.0293297)
(0.00246222 0 -0.0256138)
(0.00255883 0 -0.0222059)
(0.00264073 0 -0.0190782)
(0.00270955 0 -0.0162058)
(0.00276671 0 -0.0135657)
(0.00281351 0 -0.0111377)
(0.00285123 0 -0.00890329)
(0.0028812 0 -0.00684768)
(0.00290303 0 -0.00495866)
(0.00291673 0 -0.00323557)
(0.00292955 0 -0.00157097)
(-0.000856071 0 -0.00125378)
(-0.000854254 0 -0.00290554)
(-0.000842637 0 -0.00425497)
(-0.000830155 0 -0.0056246)
(-0.000816235 0 -0.00706873)
(-0.000799959 0 -0.00860448)
(-0.000781108 0 -0.0102334)
(-0.000759204 0 -0.0119593)
(-0.000733681 0 -0.0137893)
(-0.000704023 0 -0.0157331)
(-0.000669756 0 -0.0178027)
(-0.000630415 0 -0.0200107)
(-0.000585518 0 -0.0223708)
(-0.000534538 0 -0.0248967)
(-0.000476892 0 -0.0276029)
(-0.000411932 0 -0.0305041)
(-0.00033894 0 -0.0336157)
(-0.000257124 0 -0.036954)
(-0.000165609 0 -0.040536)
(-6.34286e-05 0 -0.0443797)
(5.0494e-05 0 -0.0485043)
(0.000177384 0 -0.0529306)
(0.000318661 0 -0.0576812)
(0.000476002 0 -0.0627816)
(0.000651393 0 -0.0682607)
(0.000847168 0 -0.0741527)
(0.00106602 0 -0.0804989)
(0.00131098 0 -0.0873497)
(0.00158525 0 -0.094763)
(0.00189143 0 -0.102799)
(0.00226136 0 -0.112255)
(0.00269823 0 -0.122989)
(0.00317401 0 -0.134067)
(0.00369581 0 -0.145526)
(0.00427282 0 -0.157425)
(0.00491527 0 -0.169837)
(0.00563575 0 -0.182842)
(0.00645015 0 -0.196533)
(0.00737817 0 -0.211025)
(0.00844377 0 -0.226463)
(0.00967505 0 -0.243033)
(0.0111038 0 -0.260946)
(0.0127688 0 -0.280392)
(0.0147325 0 -0.301489)
(0.0171223 0 -0.324371)
(0.0201933 0 -0.349627)
(0.024291 0 -0.379128)
(0.0295257 0 -0.416823)
(0.035205 0 -0.468838)
(0.0375426 0 -0.541683)
(0.0285243 0 -0.631404)
(-0.00551659 0 -0.700662)
(-0.0554892 0 -0.658194)
(-0.0711899 0 -0.438242)
(-0.0205962 0 -0.113156)
(0.0263368 0 0.171061)
(0.111093 0 0.207556)
(0.12271 0 -0.53642)
(-0.0127316 0 -0.992428)
(-0.150777 0 -0.509247)
(-0.143749 0 0.197453)
(-0.062731 0 0.154544)
(-0.0270012 0 -0.0853337)
(0.00635838 0 -0.292925)
(0.00882125 0 -0.403661)
(-0.000385303 0 -0.416488)
(-0.00804563 0 -0.377483)
(-0.0106585 0 -0.326802)
(-0.0102086 0 -0.280868)
(-0.00858932 0 -0.242243)
(-0.00686553 0 -0.212597)
(-0.00540105 0 -0.190128)
(-0.00413933 0 -0.171047)
(-0.00307015 0 -0.154373)
(-0.0021597 0 -0.139486)
(-0.00137565 0 -0.126038)
(-0.000694126 0 -0.11383)
(-9.84634e-05 0 -0.10273)
(0.000423479 0 -0.0926321)
(0.000881218 0 -0.0834394)
(0.00128266 0 -0.0750649)
(0.00163459 0 -0.0674294)
(0.0019429 0 -0.060462)
(0.00221267 0 -0.0540992)
(0.00244838 0 -0.0482846)
(0.00265391 0 -0.0429676)
(0.0028327 0 -0.0381027)
(0.00298775 0 -0.0336488)
(0.00312168 0 -0.0295688)
(0.00323681 0 -0.0258286)
(0.00333517 0 -0.0223976)
(0.00341855 0 -0.0192479)
(0.00348856 0 -0.0163544)
(0.00354664 0 -0.0136942)
(0.0035941 0 -0.011247)
(0.00363224 0 -0.00899431)
(0.00366245 0 -0.00692111)
(0.00368434 0 -0.00501476)
(0.00369781 0 -0.00327424)
(0.00371095 0 -0.00159068)
(-0.00107335 0 -0.00126522)
(-0.00107217 0 -0.00293017)
(-0.00105966 0 -0.00428757)
(-0.00104633 0 -0.00566282)
(-0.00103141 0 -0.00711138)
(-0.00101387 0 -0.0086514)
(-0.000993604 0 -0.0102851)
(-0.000970187 0 -0.0120165)
(-0.000943053 0 -0.0138525)
(-0.000911652 0 -0.0158029)
(-0.000875471 0 -0.0178792)
(-0.000834004 0 -0.0200942)
(-0.00078673 0 -0.0224613)
(-0.000733085 0 -0.0249945)
(-0.000672452 0 -0.0277081)
(-0.000604146 0 -0.0306169)
(-0.000527417 0 -0.0337365)
(-0.000441438 0 -0.0370829)
(-0.000345303 0 -0.0406733)
(-0.000238017 0 -0.0445256)
(-0.000118477 0 -0.0486593)
(1.45632e-05 0 -0.0530951)
(0.000162548 0 -0.0578559)
(0.00032717 0 -0.062967)
(0.00051042 0 -0.0684577)
(0.000714621 0 -0.0743623)
(0.000942437 0 -0.0807222)
(0.00119683 0 -0.0875877)
(0.00148091 0 -0.0950164)
(0.00179713 0 -0.103068)
(0.00217806 0 -0.112542)
(0.0026263 0 -0.123299)
(0.00311175 0 -0.134404)
(0.00364078 0 -0.145896)
(0.00422153 0 -0.157835)
(0.00486281 0 -0.170293)
(0.00557539 0 -0.183353)
(0.0063725 0 -0.197111)
(0.00726995 0 -0.211683)
(0.0082861 0 -0.227216)
(0.00944117 0 -0.243898)
(0.0107559 0 -0.261943)
(0.0122527 0 -0.281547)
(0.0139688 0 -0.302855)
(0.015986 0 -0.326054)
(0.018474 0 -0.351781)
(0.0216303 0 -0.381838)
(0.025357 0 -0.419773)
(0.028702 0 -0.470572)
(0.0281613 0 -0.538392)
(0.017023 0 -0.617422)
(-0.0135819 0 -0.674925)
(-0.0558978 0 -0.637831)
(-0.0732068 0 -0.446318)
(-0.0336945 0 -0.144283)
(0.00734632 0 0.132849)
(0.088341 0 0.171222)
(0.105877 0 -0.49726)
(-0.00946182 0 -0.907665)
(-0.128567 0 -0.470011)
(-0.117257 0 0.164999)
(-0.0420522 0 0.122794)
(-0.0137593 0 -0.108138)
(0.0135356 0 -0.302658)
(0.0130918 0 -0.401388)
(0.00392006 0 -0.410884)
(-0.00385609 0 -0.373984)
(-0.00709892 0 -0.325867)
(-0.00738184 0 -0.281343)
(-0.0063619 0 -0.243257)
(-0.00504339 0 -0.213723)
(-0.00384516 0 -0.191206)
(-0.00277319 0 -0.172029)
(-0.00183844 0 -0.155258)
(-0.00102428 0 -0.140289)
(-0.000309941 0 -0.126771)
(0.000320832 0 -0.114505)
(0.000879475 0 -0.103353)
(0.00137439 0 -0.0932075)
(0.00181249 0 -0.0839708)
(0.00219976 0 -0.0755553)
(0.00254156 0 -0.0678814)
(0.0028427 0 -0.0608781)
(0.00310749 0 -0.0544816)
(0.00333981 0 -0.0486354)
(0.00354311 0 -0.0432885)
(0.00372049 0 -0.0383955)
(0.0038747 0 -0.0339149)
(0.00400817 0 -0.0298094)
(0.00412308 0 -0.026045)
(0.00422136 0 -0.0225909)
(0.00430474 0 -0.019419)
(0.00437479 0 -0.0165042)
(0.00443293 0 -0.0138236)
(0.0044805 0 -0.011357)
(0.00451883 0 -0.0090859)
(0.00454928 0 -0.00699501)
(0.00457142 0 -0.00507131)
(0.00458476 0 -0.00331339)
(0.0045985 0 -0.00161074)
(-0.0013173 0 -0.00127688)
(-0.00131693 0 -0.00295547)
(-0.00130379 0 -0.00432145)
(-0.00128996 0 -0.00570306)
(-0.00127441 0 -0.00715668)
(-0.00125595 0 -0.00870139)
(-0.00123457 0 -0.0103401)
(-0.00120991 0 -0.012077)
(-0.00118142 0 -0.0139192)
(-0.00114854 0 -0.0158762)
(-0.00111072 0 -0.0179594)
(-0.00106744 0 -0.0201816)
(-0.00101815 0 -0.0225561)
(-0.000962259 0 -0.0250968)
(-0.00089913 0 -0.0278181)
(-0.000828054 0 -0.0307349)
(-0.000748253 0 -0.0338626)
(-0.00065888 0 -0.0372174)
(-0.000559011 0 -0.0408165)
(-0.000447639 0 -0.0446778)
(-0.000323654 0 -0.0488208)
(-0.000185806 0 -0.0532664)
(-3.26551e-05 0 -0.0580375)
(0.000137479 0 -0.0631595)
(0.000326553 0 -0.0686619)
(0.000536831 0 -0.0745791)
(0.000770886 0 -0.0809527)
(0.00103155 0 -0.0878326)
(0.00132174 0 -0.0952765)
(0.00164363 0 -0.103343)