/*--------------------------------*- C++ -*----------------------------------*\
  =========                 |
  \\      /  F ield         | OpenFOAM: The Open Source CFD Toolbox
   \\    /   O peration     | Website:  https://openfoam.org
    \\  /    A nd           | Version:  9
     \\/     M anipulation  |
\*---------------------------------------------------------------------------*/
FoamFile
{
    format      ascii;
    class       surfaceVectorField;
    location    "0.05";
    object      Uf;
}
// * * * * * * * * * * * * * * * * * * * * * * * * * * * * * * * * * * * * * //

dimensions      [0 1 -1 0 0 0 0];

internalField   nonuniform List<vector> 
39700
(
(4.28691e-06 0 -0.00192837)
(-8.45233e-06 0 -0.00115514)
(3.32706e-06 0 -0.00337811)
(-2.47159e-06 0 -0.00272274)
(3.11339e-06 0 -0.00471991)
(-3.93035e-06 0 -0.00404898)
(3.88864e-06 0 -0.00611474)
(-3.16555e-06 0 -0.00541006)
(4.97271e-06 0 -0.00758722)
(-1.09551e-06 0 -0.00684261)
(6.39426e-06 0 -0.00914373)
(1.20182e-06 0 -0.00835763)
(8.17641e-06 0 -0.0107894)
(4.0807e-06 0 -0.00995872)
(1.03262e-05 0 -0.0125321)
(7.61652e-06 0 -0.0116524)
(1.28493e-05 0 -0.014382)
(1.18437e-05 0 -0.0134478)
(1.5752e-05 0 -0.0163509)
(1.67865e-05 0 -0.0153562)
(1.90458e-05 0 -0.0184514)
(2.24695e-05 0 -0.0173899)
(2.2751e-05 0 -0.0206965)
(2.89256e-05 0 -0.0195617)
(2.68979e-05 0 -0.0230998)
(3.62016e-05 0 -0.0218851)
(3.15261e-05 0 -0.0256752)
(4.43612e-05 0 -0.0243737)
(3.66821e-05 0 -0.0284369)
(5.34834e-05 0 -0.0270415)
(4.24183e-05 0 -0.0313999)
(6.36609e-05 0 -0.0299033)
(4.87932e-05 0 -0.0345799)
(7.49986e-05 0 -0.0329744)
(5.58719e-05 0 -0.0379932)
(8.76141e-05 0 -0.0362706)
(6.37277e-05 0 -0.041657)
(0.00010164 0 -0.0398088)
(7.24442e-05 0 -0.0455896)
(0.000117226 0 -0.0436067)
(8.21192e-05 0 -0.0498103)
(0.000134546 0 -0.047683)
(9.28693e-05 0 -0.0543402)
(0.000153804 0 -0.052058)
(0.000104837 0 -0.0592025)
(0.000175242 0 -0.0567536)
(0.000118202 0 -0.064423)
(0.00019916 0 -0.0617941)
(0.000133197 0 -0.070032)
(0.000225934 0 -0.0672074)
(0.000150128 0 -0.0760662)
(0.000256049 0 -0.0730263)
(0.000169383 0 -0.0825706)
(0.000290115 0 -0.0792913)
(0.000191402 0 -0.0896008)
(0.000328849 0 -0.0860527)
(0.000216568 0 -0.0972199)
(0.000372994 0 -0.0933712)
(0.000245024 0 -0.105489)
(0.000423182 0 -0.101313)
(0.000280177 0 -0.11593)
(0.000482914 0 -0.110668)
(0.000318725 0 -0.126669)
(0.000552407 0 -0.121261)
(0.000361624 0 -0.13773)
(0.000629374 0 -0.132158)
(0.000409969 0 -0.149157)
(0.000715514 0 -0.143395)
(0.000464965 0 -0.161007)
(0.000812947 0 -0.155026)
(0.000527966 0 -0.173344)
(0.000924107 0 -0.167112)
(0.000600636 0 -0.186238)
(0.00105187 0 -0.17972)
(0.00068526 0 -0.199766)
(0.00119993 0 -0.192922)
(0.000785132 0 -0.214027)
(0.00137337 0 -0.206803)
(0.000904564 0 -0.229156)
(0.00157905 0 -0.221475)
(0.00104718 0 -0.245327)
(0.00182453 0 -0.237099)
(0.00121062 0 -0.262687)
(0.00211373 0 -0.253859)
(0.00137843 0 -0.281152)
(0.0024389 0 -0.271854)
(0.00152097 0 -0.300106)
(0.00277941 0 -0.290806)
(0.00163027 0 -0.318293)
(0.00313783 0 -0.309762)
(0.0018065 0 -0.334301)
(0.00364983 0 -0.327229)
(0.0024118 0 -0.347248)
(0.0047797 0 -0.342066)
(0.00464902 0 -0.356916)
(0.00781345 0 -0.354232)
(0.0131339 0 -0.37504)
(0.0160948 0 -0.365618)
(0.041977 0 -0.50864)
(0.0384795 0 -0.404926)
(0.0723943 0 -0.97585)
(0.099161 0 -0.64911)
(0.0214175 0 -1.22777)
(0.0886768 0 -1.27481)
(-0.0962038 0 -0.595063)
(-0.113028 0 -1.07507)
(-0.0156384 0 0.125376)
(-0.0659433 0 -0.0982518)
(0.0092812 0 0.42018)
(0.00204421 0 0.296498)
(0.0193887 0 0.554523)
(0.0243377 0 0.526463)
(0.0678017 0 -0.295925)
(0.0610763 0 0.553656)
(-0.0389612 0 -1.41507)
(0.0505772 0 -1.10753)
(0.0272149 0 -1.42121)
(-0.00609637 0 -1.68797)
(-0.0707243 0 -0.331949)
(-0.0546984 0 -1.12666)
(-0.0215196 0 0.494475)
(-0.0659751 0 0.492293)
(-0.0141999 0 0.325776)
(-0.032843 0 0.467576)
(-0.0023906 0 0.0210284)
(-0.0171648 0 0.175343)
(0.00907041 0 -0.27995)
(0.00374922 0 -0.143507)
(0.00430463 0 -0.455844)
(0.0109589 0 -0.418821)
(-0.00543856 0 -0.446583)
(-0.00235539 0 -0.485479)
(-0.00613367 0 -0.360343)
(-0.010029 0 -0.403108)
(-0.00402939 0 -0.29066)
(-0.00827144 0 -0.319069)
(-0.00254907 0 -0.244906)
(-0.00559993 0 -0.264594)
(-0.00171347 0 -0.211255)
(-0.0038367 0 -0.226745)
(-0.00127142 0 -0.188818)
(-0.00277704 0 -0.199469)
(-0.0009924 0 -0.170329)
(-0.00212963 0 -0.179343)
(-0.000807828 0 -0.154267)
(-0.0016941 0 -0.162248)
(-0.000675186 0 -0.139819)
(-0.00138771 0 -0.147068)
(-0.000571232 0 -0.12662)
(-0.00115659 0 -0.13326)
(-0.000484999 0 -0.114521)
(-0.000971391 0 -0.120603)
(-0.000411676 0 -0.103449)
(-0.000817402 0 -0.109008)
(-0.000348889 0 -0.0933355)
(-0.00068709 0 -0.0984096)
(-0.000295049 0 -0.0841097)
(-0.000576004 0 -0.088738)
(-0.000248852 0 -0.0756954)
(-0.000481 0 -0.0799177)
(-0.000209185 0 -0.0680192)
(-0.000399584 0 -0.0718728)
(-0.000175091 0 -0.0610126)
(-0.000329678 0 -0.0645318)
(-0.000145744 0 -0.0546136)
(-0.000269532 0 -0.0578292)
(-0.00012044 0 -0.0487665)
(-0.000217691 0 -0.0517061)
(-9.85907e-05 0 -0.0434214)
(-0.000172946 0 -0.0461097)
(-7.97065e-05 0 -0.0385333)
(-0.000134294 0 -0.0409927)
(-6.33795e-05 0 -0.0340614)
(-0.000100891 0 -0.0363123)
(-4.92609e-05 0 -0.0299686)
(-7.20227e-05 0 -0.0320295)
(-3.70473e-05 0 -0.026221)
(-4.70824e-05 0 -0.0281087)
(-2.64744e-05 0 -0.0227877)
(-2.55449e-05 0 -0.0245176)
(-1.7313e-05 0 -0.0196406)
(-6.94392e-06 0 -0.0212268)
(-9.37171e-06 0 -0.0167545)
(9.09851e-06 0 -0.0182095)
(-2.47113e-06 0 -0.0141061)
(2.29369e-05 0 -0.0154415)
(3.5406e-06 0 -0.0116744)
(3.49004e-05 0 -0.0129007)
(8.80343e-06 0 -0.00943975)
(4.52695e-05 0 -0.0105669)
(1.34849e-05 0 -0.00738416)
(5.4272e-05 0 -0.0084211)
(1.79039e-05 0 -0.0054918)
(6.2369e-05 0 -0.00644667)
(2.25795e-05 0 -0.00375416)
(6.94812e-05 0 -0.0046295)
(2.93098e-05 0 -0.00212856)
(7.66392e-05 0 -0.00297079)
(9.29472e-05 0 -0.00139012)
(-1.43605e-05 0 -0.00191263)
(-4.38664e-05 0 -0.00115694)
(-1.27866e-05 0 -0.00336294)
(-3.28625e-05 0 -0.00272763)
(-1.07864e-05 0 -0.00470801)
(-3.0672e-05 0 -0.0040549)
(-8.12992e-06 0 -0.00610561)
(-2.69926e-05 0 -0.00541755)
(-5.07768e-06 0 -0.00757923)
(-2.24682e-05 0 -0.00685081)
(-1.32361e-06 0 -0.00913728)
(-1.76489e-05 0 -0.00836724)
(3.30764e-06 0 -0.0107847)
(-1.19719e-05 0 -0.00997003)
(8.91096e-06 0 -0.0125292)
(-5.21435e-06 0 -0.0116654)
(1.55452e-05 0 -0.0143809)
(2.74802e-06 0 -0.0134626)
(2.32538e-05 0 -0.0163516)
(1.2006e-05 0 -0.0153726)
(3.20805e-05 0 -0.0184538)
(2.26435e-05 0 -0.0174077)
(4.20835e-05 0 -0.0207008)
(3.47479e-05 0 -0.019581)
(5.33436e-05 0 -0.0231061)
(4.84236e-05 0 -0.0219058)
(6.59651e-05 0 -0.0256834)
(6.37987e-05 0 -0.0243958)
(8.00732e-05 0 -0.0284474)
(8.10273e-05 0 -0.0270651)
(9.58123e-05 0 -0.0314128)
(0.000100288 0 -0.0299284)
(0.000113346 0 -0.0345954)
(0.000121782 0 -0.033001)
(0.000132857 0 -0.0380115)
(0.000145737 0 -0.0362988)
(0.000154554 0 -0.0416784)
(0.000172409 0 -0.0398387)
(0.000178674 0 -0.0456144)
(0.000202089 0 -0.0436384)
(0.000205496 0 -0.0498388)
(0.00023511 0 -0.0477167)
(0.000235346 0 -0.0543729)
(0.000271863 0 -0.0520937)
(0.000268624 0 -0.0592397)
(0.00031281 0 -0.0567916)
(0.000305821 0 -0.0644653)
(0.000358514 0 -0.0618345)
(0.000347558 0 -0.0700801)
(0.000409677 0 -0.0672506)
(0.000394614 0 -0.0761207)
(0.000467182 0 -0.0730728)
(0.000447943 0 -0.0826324)
(0.000532125 0 -0.0793415)
(0.000508592 0 -0.0896706)
(0.000605767 0 -0.0861071)
(0.000577459 0 -0.0972986)
(0.000689414 0 -0.0934301)
(0.000654805 0 -0.105577)
(0.000784202 0 -0.101376)
(0.000753454 0 -0.11603)
(0.000897996 0 -0.110734)
(0.000861201 0 -0.126783)
(0.0010314 0 -0.121332)
(0.000980932 0 -0.13786)
(0.00117892 0 -0.132238)
(0.00111564 0 -0.149306)
(0.00134384 0 -0.143485)
(0.00126866 0 -0.161176)
(0.00153021 0 -0.155128)
(0.00144386 0 -0.173537)
(0.00174274 0 -0.167229)
(0.00164607 0 -0.186458)
(0.00198703 0 -0.179855)
(0.0018817 0 -0.200018)
(0.0022703 0 -0.193079)
(0.0021594 0 -0.214316)
(0.00260224 0 -0.206988)
(0.00248978 0 -0.229489)
(0.00299561 0 -0.221696)
(0.00288194 0 -0.245709)
(0.00346506 0 -0.23736)
(0.00333563 0 -0.263114)
(0.00402215 0 -0.254162)
(0.0038358 0 -0.281614)
(0.00466865 0 -0.272187)
(0.00437766 0 -0.3006)
(0.00540621 0 -0.291167)
(0.00507321 0 -0.318887)
(0.00630962 0 -0.310226)
(0.00638366 0 -0.335254)
(0.00771737 0 -0.328102)
(0.00955692 0 -0.349365)
(0.0105465 0 -0.344181)
(0.0178832 0 -0.362922)
(0.0170368 0 -0.359783)
(0.0404152 0 -0.392422)
(0.0318736 0 -0.380639)
(0.0910279 0 -0.535764)
(0.0640338 0 -0.438668)
(0.130781 0 -0.948284)
(0.146385 0 -0.675612)
(-0.0200184 0 -1.14156)
(0.0906744 0 -1.17428)
(-0.137076 0 -0.579828)
(-0.143517 0 -0.997029)
(-0.0382964 0 0.0850045)
(-0.0952246 0 -0.164105)
(0.0195548 0 0.403411)
(0.00385608 0 0.257931)
(0.0551576 0 0.530688)
(0.044409 0 0.502728)
(0.116569 0 -0.270005)
(0.104695 0 0.512715)
(0.00896902 0 -1.38469)
(0.0948674 0 -1.0358)
(-0.013792 0 -1.39233)
(-0.000781685 0 -1.6728)
(-0.123178 0 -0.309025)
(-0.099934 0 -1.05373)
(-0.0663739 0 0.470687)
(-0.11583 0 0.454424)
(-0.0375195 0 0.317221)
(-0.0627301 0 0.448339)
(-0.0101954 0 0.0122799)
(-0.0321905 0 0.157126)
(0.0108842 0 -0.282243)
(0.00186786 0 -0.15756)
(0.00509688 0 -0.450479)
(0.0128778 0 -0.414962)
(-0.0096507 0 -0.44329)
(-0.00469114 0 -0.475647)
(-0.0125942 0 -0.361723)
(-0.0151682 0 -0.401146)
(-0.00973512 0 -0.292801)
(-0.0133981 0 -0.320975)
(-0.00676979 0 -0.246413)
(-0.00977367 0 -0.266571)
(-0.00472994 0 -0.212258)
(-0.00700582 0 -0.228105)
(-0.00357269 0 -0.189566)
(-0.00518491 0 -0.200413)
(-0.00279024 0 -0.170907)
(-0.00401399 0 -0.180013)
(-0.00224878 0 -0.154736)
(-0.00319329 0 -0.162734)
(-0.00185317 0 -0.140221)
(-0.00260074 0 -0.147441)
(-0.0015458 0 -0.126976)
(-0.00214978 0 -0.133563)
(-0.00129553 0 -0.114843)
(-0.0017895 0 -0.120862)
(-0.00108617 0 -0.103741)
(-0.001492 0 -0.109235)
(-0.000908714 0 -0.093603)
(-0.00124174 0 -0.0986119)
(-0.000757371 0 -0.0843542)
(-0.00102923 0 -0.088919)
(-0.000627865 0 -0.0759192)
(-0.000847894 0 -0.0800802)
(-0.000516786 0 -0.0682242)
(-0.000692652 0 -0.072019)
(-0.000421312 0 -0.0612005)
(-0.000559379 0 -0.0646636)
(-0.000339087 0 -0.0547859)
(-0.000444695 0 -0.0579483)
(-0.000268153 0 -0.0489246)
(-0.000345835 0 -0.0518138)
(-0.000206894 0 -0.0435665)
(-0.000260522 0 -0.0462073)
(-0.000153964 0 -0.0386663)
(-0.000186852 0 -0.0410812)
(-0.000108231 0 -0.0341833)
(-0.000123228 0 -0.0363925)
(-6.87314e-05 0 -0.0300802)
(-6.83116e-05 0 -0.0321021)
(-3.46375e-05 0 -0.026323)
(-2.0969e-05 0 -0.0281745)
(-5.2318e-06 0 -0.0228807)
(1.97737e-05 0 -0.0245772)
(2.01145e-05 0 -0.0197255)
(5.47758e-05 0 -0.0212806)
(4.19662e-05 0 -0.0168317)
(8.4753e-05 0 -0.0182582)
(6.07868e-05 0 -0.0141763)
(0.000110348 0 -0.0154855)
(7.70002e-05 0 -0.011738)
(0.000132125 0 -0.0129405)
(9.09882e-05 0 -0.00949742)
(0.000150546 0 -0.0106029)
(0.000103137 0 -0.00743696)
(0.000166027 0 -0.00845387)
(0.000114135 0 -0.00554178)
(0.000179165 0 -0.00647779)
(0.000125172 0 -0.00380771)
(0.000189757 0 -0.00466226)
(0.000138473 0 -0.00219577)
(0.000198539 0 -0.00301218)
(0.000217395 0 -0.00144212)
(-6.13477e-05 0 -0.00193135)
(-9.7052e-05 0 -0.00117407)
(-5.40939e-05 0 -0.00338301)
(-8.49778e-05 0 -0.00275019)
(-4.73382e-05 0 -0.00472675)
(-7.75126e-05 0 -0.00407491)
(-4.13424e-05 0 -0.00612338)
(-7.02157e-05 0 -0.00543446)
(-3.53121e-05 0 -0.00759762)
(-6.29403e-05 0 -0.00686701)
(-2.85929e-05 0 -0.00915708)
(-5.53169e-05 0 -0.00838445)
(-2.0805e-05 0 -0.0108062)
(-4.66932e-05 0 -0.00998904)
(-1.17163e-05 0 -0.0125524)
(-3.67112e-05 0 -0.0116866)
(-1.16218e-06 0 -0.0144059)
(-2.51475e-05 0 -0.013486)
(1.09911e-05 0 -0.0163783)
(-1.18269e-05 0 -0.0153983)
(2.4868e-05 0 -0.0184821)
(3.41292e-06 0 -0.0174357)
(4.06005e-05 0 -0.0207307)
(2.07334e-05 0 -0.0196113)
(5.83411e-05 0 -0.0231375)
(4.03101e-05 0 -0.0219384)
(7.82691e-05 0 -0.0257165)
(6.23449e-05 0 -0.0244307)
(0.000100591 0 -0.028482)
(8.70699e-05 0 -0.0271024)
(0.000125541 0 -0.0314491)
(0.000114749 0 -0.0299682)
(0.000153382 0 -0.0346334)
(0.000145677 0 -0.0330433)
(0.000184412 0 -0.0380513)
(0.000180188 0 -0.0363438)
(0.000218965 0 -0.04172)
(0.000218654 0 -0.0398865)
(0.000257425 0 -0.0456578)
(0.0002615 0 -0.0436891)
(0.000300238 0 -0.0498842)
(0.000309208 0 -0.0477704)
(0.000347928 0 -0.0544204)
(0.000362341 0 -0.0521508)
(0.000401126 0 -0.0592895)
(0.000421564 0 -0.0568522)
(0.0004606 0 -0.0645177)
(0.000487679 0 -0.0618992)
(0.000527307 0 -0.0701355)
(0.000561677 0 -0.0673197)
(0.000602427 0 -0.0761796)
(0.00064479 0 -0.073147)
(0.000687372 0 -0.0826953)
(0.000738523 0 -0.0794215)
(0.000783693 0 -0.0897379)
(0.000844601 0 -0.0861936)
(0.000892761 0 -0.09737)
(0.000964815 0 -0.0935234)
(0.00101509 0 -0.105652)
(0.00110073 0 -0.101476)
(0.00117382 0 -0.116108)
(0.00126481 0 -0.11084)
(0.00134685 0 -0.126868)
(0.00145821 0 -0.121448)
(0.00153895 0 -0.137954)
(0.00167188 0 -0.132366)
(0.0017549 0 -0.149411)
(0.00191052 0 -0.143629)
(0.00200007 0 -0.161295)
(0.00217997 0 -0.155292)
(0.0022808 0 -0.173674)
(0.00248704 0 -0.167416)
(0.00260504 0 -0.186616)
(0.00283994 0 -0.180071)
(0.00298319 0 -0.200204)
(0.00324923 0 -0.193331)
(0.00342909 0 -0.214538)
(0.00372904 0 -0.207285)
(0.00395983 0 -0.229754)
(0.00429792 0 -0.22205)
(0.0045929 0 -0.246021)
(0.00497819 0 -0.237782)
(0.00534113 0 -0.263471)
(0.00579233 0 -0.25466)
(0.00621705 0 -0.282015)
(0.00676079 0 -0.272771)
(0.00728373 0 -0.301106)
(0.00792337 0 -0.291878)
(0.00881058 0 -0.319761)
(0.00943703 0 -0.311244)
(0.0115775 0 -0.337227)
(0.0118017 0 -0.329947)
(0.0173568 0 -0.354258)
(0.0161768 0 -0.348034)
(0.0298968 0 -0.375404)
(0.0250729 0 -0.368143)
(0.0572916 0 -0.421024)
(0.043196 0 -0.398902)
(0.108337 0 -0.570408)
(0.0762071 0 -0.472698)
(0.132376 0 -0.904712)
(0.148104 0 -0.691638)
(-0.0281683 0 -1.04183)
(0.0768522 0 -1.06725)
(-0.138579 0 -0.57662)
(-0.13453 0 -0.923422)
(-0.0438785 0 0.023759)
(-0.10323 0 -0.227239)
(0.029823 0 0.365282)
(0.00784826 0 0.208797)
(0.0825223 0 0.492147)
(0.0600702 0 0.467595)
(0.147349 0 -0.250962)
(0.136541 0 0.469497)
(0.035403 0 -1.32439)
(0.13007 0 -0.961168)
(-0.0343354 0 -1.33214)
(0.000234574 0 -1.62631)
(-0.156302 0 -0.286282)
(-0.134777 0 -0.972424)
(-0.103028 0 0.438029)
(-0.15408 0 0.418909)
(-0.0583031 0 0.292605)
(-0.0863575 0 0.418523)
(-0.0187696 0 -0.00848087)
(-0.0441445 0 0.130771)
(0.00821727 0 -0.28904)
(-0.00142004 0 -0.175552)
(0.00348102 0 -0.44251)
(0.0115074 0 -0.411805)
(-0.0120853 0 -0.435966)
(-0.00670882 0 -0.46527)
(-0.016262 0 -0.361252)
(-0.0178687 0 -0.398361)
(-0.013508 0 -0.294871)
(-0.0165993 0 -0.322811)
(-0.00997682 0 -0.248307)
(-0.0127664 0 -0.268925)
(-0.00723111 0 -0.213574)
(-0.00946374 0 -0.229936)
(-0.00555722 0 -0.190506)
(-0.00714353 0 -0.201779)
(-0.00436605 0 -0.171577)
(-0.00558582 0 -0.181032)
(-0.00351075 0 -0.155226)
(-0.00445463 0 -0.163502)
(-0.00287345 0 -0.140599)
(-0.00361746 0 -0.148041)
(-0.00237605 0 -0.127284)
(-0.00297221 0 -0.134054)
(-0.00197252 0 -0.115105)
(-0.00245482 0 -0.12128)
(-0.00163677 0 -0.103969)
(-0.00202783 0 -0.1096)
(-0.00135343 0 -0.0938034)
(-0.00166921 0 -0.098935)
(-0.00111245 0 -0.0845317)
(-0.00136506 0 -0.0892073)
(-0.00090653 0 -0.0760769)
(-0.00110566 0 -0.0803385)
(-0.000730008 0 -0.0683646)
(-0.000883567 0 -0.0722513)
(-0.000578297 0 -0.0613257)
(-0.000692858 0 -0.0648731)
(-0.00044764 0 -0.0548979)
(-0.000528716 0 -0.0581375)
(-0.000334949 0 -0.0490248)
(-0.000387208 0 -0.0519851)
(-0.000237674 0 -0.0436562)
(-0.000265093 0 -0.0463624)
(-0.000153693 0 -0.0387466)
(-0.000159671 0 -0.0412216)
(-8.12287e-05 0 -0.0342552)
(-6.86797e-05 0 -0.0365196)
(-1.87836e-05 0 -0.0301444)
(9.75121e-06 0 -0.032217)
(3.49376e-05 0 -0.0263802)
(7.72149e-05 0 -0.0282782)
(8.1041e-05 0 -0.0229318)
(0.000135092 0 -0.0246705)
(0.000120477 0 -0.0197708)
(0.000184562 0 -0.0213644)
(0.000154059 0 -0.0168719)
(0.000226643 0 -0.018333)
(0.00018249 0 -0.0142118)
(0.000262206 0 -0.0155519)
(0.000206345 0 -0.0117693)
(0.000291978 0 -0.012999)
(0.000226104 0 -0.00952472)
(0.000316559 0 -0.0106537)
(0.000242206 0 -0.00746114)
(0.000336527 0 -0.00849731)
(0.000255268 0 -0.00556529)
(0.000352595 0 -0.00651475)
(0.000266472 0 -0.00383425)
(0.000364569 0 -0.00469551)
(0.000276775 0 -0.00222485)
(0.000372743 0 -0.00304425)
(0.000386556 0 -0.00146827)
(-0.000120046 0 -0.00195555)
(-0.000158527 0 -0.00119229)
(-0.000110282 0 -0.00341084)
(-0.000148556 0 -0.00278055)
(-0.00010071 0 -0.00475049)
(-0.000138758 0 -0.00410326)
(-9.19438e-05 0 -0.00614415)
(-0.000129417 0 -0.00545919)
(-8.32282e-05 0 -0.00761786)
(-0.000120178 0 -0.00689044)
(-7.37404e-05 0 -0.00917838)
(-0.000110352 0 -0.00840875)
(-6.2955e-05 0 -0.0108293)
(-9.92533e-05 0 -0.0100154)
(-5.05433e-05 0 -0.0125776)
(-8.64581e-05 0 -0.0117155)
(-3.62633e-05 0 -0.0144333)
(-7.16775e-05 0 -0.0135177)
(-1.99088e-05 0 -0.0164079)
(-5.46777e-05 0 -0.0154329)
(-1.28431e-06 0 -0.018514)
(-3.52391e-05 0 -0.0174733)
(1.98156e-05 0 -0.0207647)
(-1.31398e-05 0 -0.0196519)
(4.36178e-05 0 -0.0231737)
(1.18594e-05 0 -0.0219821)
(7.03775e-05 0 -0.0257549)
(4.00287e-05 0 -0.0244776)
(0.000100382 0 -0.0285227)
(7.16733e-05 0 -0.0271525)
(0.000133955 0 -0.031492)
(0.000107137 0 -0.0300217)
(0.000171457 0 -0.0346786)
(0.000146804 0 -0.0331003)
(0.000213292 0 -0.0380988)
(0.000191107 0 -0.0364044)
(0.000259916 0 -0.0417699)
(0.000240527 0 -0.0399509)
(0.000311849 0 -0.0457102)
(0.000295611 0 -0.0437575)
(0.000369695 0 -0.0499393)
(0.000356981 0 -0.047843)
(0.000434159 0 -0.0544783)
(0.000425357 0 -0.0522279)
(0.000506085 0 -0.0593505)
(0.000501586 0 -0.0569342)
(0.000586494 0 -0.0645821)
(0.000586688 0 -0.0619866)
(0.00067664 0 -0.0702038)
(0.000681913 0 -0.0674131)
(0.000778049 0 -0.0762523)
(0.000788795 0 -0.0732471)
(0.000892534 0 -0.082773)
(0.000909192 0 -0.0795293)
(0.00102209 0 -0.089821)
(0.00104523 0 -0.0863098)
(0.00116856 0 -0.0974583)
(0.00119911 0 -0.0936488)
(0.00133293 0 -0.105744)
(0.00137279 0 -0.10161)
(0.00154733 0 -0.116206)
(0.00158299 0 -0.110983)
(0.00178135 0 -0.126975)
(0.00183155 0 -0.121604)
(0.00204102 0 -0.138073)
(0.00210604 0 -0.132539)
(0.00233264 0 -0.149546)
(0.00241229 0 -0.143824)
(0.00266341 0 -0.161452)
(0.0027577 0 -0.155512)
(0.00304194 0 -0.173856)
(0.00315086 0 -0.167668)
(0.00347903 0 -0.186831)
(0.00360226 0 -0.180362)
(0.00398886 0 -0.200461)
(0.00412548 0 -0.193671)
(0.00459023 0 -0.214849)
(0.00473863 0 -0.207686)
(0.00530702 0 -0.230133)
(0.00546554 0 -0.222527)
(0.00616661 0 -0.246481)
(0.00633572 0 -0.238355)
(0.00719812 0 -0.264025)
(0.00738252 0 -0.255348)
(0.00844494 0 -0.282702)
(0.00864502 0 -0.273602)
(0.01003 0 -0.302071)
(0.0101969 0 -0.292935)
(0.0123256 0 -0.321424)
(0.0122521 0 -0.312774)
(0.0162434 0 -0.340569)
(0.0153892 0 -0.332559)
(0.0236072 0 -0.361311)
(0.0208091 0 -0.352943)
(0.0377319 0 -0.390252)
(0.0308273 0 -0.377559)
(0.0644386 0 -0.44847)
(0.0494731 0 -0.416707)
(0.106221 0 -0.593602)
(0.0788814 0 -0.500553)
(0.112591 0 -0.857748)
(0.129247 0 -0.695885)
(-0.0279774 0 -0.953357)
(0.058951 0 -0.97354)
(-0.126001 0 -0.574286)
(-0.115376 0 -0.858072)
(-0.0425463 0 -0.0382156)
(-0.100291 0 -0.282875)
(0.0392602 0 0.31553)
(0.0116457 0 0.154259)
(0.103496 0 0.448108)
(0.0705403 0 0.424772)
(0.169351 0 -0.235101)
(0.158223 0 0.425593)
(0.0530067 0 -1.25499)
(0.156884 0 -0.883604)
(-0.0535253 0 -1.25941)
(-0.000570747 0 -1.55529)
(-0.18166 0 -0.262556)
(-0.16225 0 -0.887001)
(-0.130054 0 0.401667)
(-0.180977 0 0.384505)
(-0.0736359 0 0.258849)
(-0.101843 0 0.380911)
(-0.0253936 0 -0.0345636)
(-0.0522076 0 0.0986094)
(0.00490144 0 -0.297738)
(-0.00431423 0 -0.195748)
(0.00140152 0 -0.43508)
(0.0090466 0 -0.409472)
(-0.0136541 0 -0.42835)
(-0.00820126 0 -0.455233)
(-0.0184072 0 -0.360234)
(-0.0190339 0 -0.395193)
(-0.0159572 0 -0.296905)
(-0.0183805 0 -0.324444)
(-0.01225 0 -0.250516)
(-0.0146994 0 -0.271397)
(-0.0091213 0 -0.21528)
(-0.0111806 0 -0.232021)
(-0.00711262 0 -0.191803)
(-0.00857789 0 -0.203418)
(-0.00562673 0 -0.172548)
(-0.00676638 0 -0.182304)
(-0.00452681 0 -0.155967)
(-0.00541111 0 -0.164489)
(-0.00369062 0 -0.141186)
(-0.00438535 0 -0.148828)
(-0.00303127 0 -0.12777)
(-0.00358347 0 -0.134706)
(-0.00249439 0 -0.115521)
(-0.0029357 0 -0.121837)
(-0.00204739 0 -0.104333)
(-0.00239932 0 -0.110086)
(-0.0016702 0 -0.0941262)
(-0.00194809 0 -0.099365)
(-0.00134938 0 -0.08482)
(-0.00156491 0 -0.089591)
(-0.00107517 0 -0.0763356)
(-0.0012377 0 -0.0806826)
(-0.00084 0 -0.0685975)
(-0.000957242 0 -0.0725609)
(-0.00063779 0 -0.0615361)
(-0.00071618 0 -0.0651523)
(-0.000463585 0 -0.0550883)
(-0.000508534 0 -0.0583898)
(-0.00031331 0 -0.0491974)
(-0.000329406 0 -0.0522134)
(-0.000183599 0 -0.0438128)
(-0.000174749 0 -0.0465691)
(-7.16579e-05 0 -0.0388888)
(-4.12094e-05 0 -0.0414088)
(2.48561e-05 0 -0.0343841)
(7.40292e-05 0 -0.0366888)
(0.000107936 0 -0.0302611)
(0.000173309 0 -0.0323698)
(0.000179244 0 -0.0264857)
(0.00025862 0 -0.0284157)
(0.000240227 0 -0.0230268)
(0.000331695 0 -0.0247939)
(0.000292125 0 -0.0198561)
(0.000394001 0 -0.0214745)
(0.000335998 0 -0.0169478)
(0.000446811 0 -0.0184307)
(0.000372738 0 -0.0142788)
(0.000491212 0 -0.0156377)
(0.000403095 0 -0.0118276)
(0.000528119 0 -0.0130733)
(0.000427719 0 -0.00957453)
(0.000558309 0 -0.010717)
(0.000447232 0 -0.00750293)
(0.000582565 0 -0.00854992)
(0.000462376 0 -0.0056006)
(0.000601867 0 -0.00655758)
(0.000474145 0 -0.003865)
(0.00061596 0 -0.00473041)
(0.000483207 0 -0.00224914)
(0.000625094 0 -0.00307244)
(0.000636689 0 -0.00148578)
(-0.000186602 0 -0.0019794)
(-0.000230384 0 -0.0012073)
(-0.000177653 0 -0.00344146)
(-0.000223686 0 -0.00280836)
(-0.000167763 0 -0.00477962)
(-0.000214026 0 -0.00413255)
(-0.000157883 0 -0.00617124)
(-0.000204245 0 -0.00548707)
(-0.000147607 0 -0.00764487)
(-0.000194162 0 -0.00691806)
(-0.000136216 0 -0.00920701)
(-0.000183024 0 -0.00843793)
(-0.000123156 0 -0.0108604)
(-0.000170213 0 -0.0100473)
(-0.00010805 0 -0.0126118)
(-0.000155289 0 -0.0117507)
(-9.06136e-05 0 -0.0144706)
(-0.000137924 0 -0.0135564)
(-7.05982e-05 0 -0.0164485)
(-0.000117846 0 -0.0154753)
(-4.77605e-05 0 -0.0185579)
(-9.47997e-05 0 -0.0175195)
(-2.18437e-05 0 -0.0208121)
(-6.85232e-05 0 -0.0197019)
(7.43691e-06 0 -0.0232245)
(-3.8729e-05 0 -0.0220359)
(4.04022e-05 0 -0.0258092)
(-5.09176e-06 0 -0.0245353)
(7.74119e-05 0 -0.0285806)
(3.27567e-05 0 -0.0272144)
(0.000118868 0 -0.0315538)
(7.52305e-05 0 -0.0300878)
(0.000165219 0 -0.0347442)
(0.000122793 0 -0.0331708)
(0.000216967 0 -0.0381685)
(0.000175964 0 -0.0364794)
(0.00027468 0 -0.0418438)
(0.000235325 0 -0.0400306)
(0.000339002 0 -0.0457885)
(0.00030153 0 -0.0438422)
(0.000410679 0 -0.0500223)
(0.000375327 0 -0.047933)
(0.000490581 0 -0.0545664)
(0.000457572 0 -0.0523235)
(0.00057974 0 -0.059444)
(0.000549275 0 -0.0570359)
(0.0006794 0 -0.0646817)
(0.000651646 0 -0.0620949)
(0.00079107 0 -0.0703102)
(0.000766156 0 -0.0675288)
(0.000916576 0 -0.0763664)
(0.000894596 0 -0.0733711)
(0.00105807 0 -0.0828956)
(0.00103911 0 -0.0796625)
(0.00121791 0 -0.0899529)
(0.00120215 0 -0.0864533)
(0.00139836 0 -0.0975995)
(0.00138628 0 -0.0938032)
(0.00160085 0 -0.105894)
(0.00159374 0 -0.101775)
(0.00186554 0 -0.116368)
(0.00184508 0 -0.111159)
(0.00215471 0 -0.127153)
(0.00214285 0 -0.121796)
(0.00247536 0 -0.138272)
(0.00247148 0 -0.132752)
(0.00283501 0 -0.149771)
(0.00283762 0 -0.144063)
(0.00324236 0 -0.161708)
(0.00324988 0 -0.155784)
(0.00370791 0 -0.174151)
(0.00371826 0 -0.167979)
(0.00424488 0 -0.187175)
(0.00425508 0 -0.18072)
(0.00487063 0 -0.200866)
(0.0048763 0 -0.194088)
(0.0056082 0 -0.21533)
(0.00560318 0 -0.208178)
(0.00648728 0 -0.230711)
(0.00646361 0 -0.223113)
(0.0075437 0 -0.247178)
(0.00749254 0 -0.239059)
(0.00882016 0 -0.264872)
(0.00873155 0 -0.256199)
(0.0103835 0 -0.283769)
(0.0102336 0 -0.274644)
(0.0123938 0 -0.303547)
(0.012095 0 -0.294275)
(0.0152653 0 -0.323773)
(0.0145572 0 -0.314689)
(0.019907 0 -0.344731)
(0.0182101 0 -0.335653)
(0.0279783 0 -0.368946)
(0.0241798 0 -0.358324)
(0.0421277 0 -0.403912)
(0.0343794 0 -0.386992)
(0.065708 0 -0.469191)
(0.0517803 0 -0.432427)
(0.0955482 0 -0.604269)
(0.0757239 0 -0.520447)
(0.08785 0 -0.813967)
(0.105395 0 -0.690753)
(-0.0264799 0 -0.880788)
(0.042083 0 -0.89732)
(-0.108258 0 -0.56952)
(-0.0958857 0 -0.803554)
(-0.0392345 0 -0.0921913)
(-0.0923607 0 -0.328891)
(0.044981 0 0.263476)
(0.0128978 0 0.0981153)
(0.11622 0 0.402684)
(0.0748875 0 0.377279)
(0.180935 0 -0.219862)
(0.16891 0 0.38245)
(0.0673899 0 -1.17632)
(0.171843 0 -0.807908)
(-0.0702971 0 -1.17596)
(-0.00294104 0 -1.4635)
(-0.197205 0 -0.237603)
(-0.180636 0 -0.802395)
(-0.146289 0 0.364002)
(-0.195243 0 0.350561)
(-0.0827016 0 0.220824)
(-0.109105 0 0.338519)
(-0.0295623 0 -0.0624807)
(-0.0560749 0 0.0631832)
(0.00154752 0 -0.307302)
(-0.00626279 0 -0.216488)
(-0.000661086 0 -0.429291)
(0.00639526 0 -0.407999)
(-0.0142496 0 -0.421798)
(-0.00893914 0 -0.446174)
(-0.0191863 0 -0.359251)
(-0.0189347 0 -0.391902)
(-0.017228 0 -0.298848)
(-0.0189148 0 -0.32575)
(-0.0136377 0 -0.252829)
(-0.015629 0 -0.27379)
(-0.0103684 0 -0.217213)
(-0.0121508 0 -0.234201)
(-0.00817803 0 -0.193354)
(-0.00944908 0 -0.205205)
(-0.00650602 0 -0.173768)
(-0.00750502 0 -0.183735)
(-0.00523591 0 -0.156934)
(-0.0060118 0 -0.165629)
(-0.00425203 0 -0.141974)
(-0.00485798 0 -0.149755)
(-0.003467 0 -0.128434)
(-0.00394293 0 -0.135481)
(-0.00282351 0 -0.116095)
(-0.00319702 0 -0.122503)
(-0.00228575 0 -0.104838)
(-0.00257592 0 -0.110671)
(-0.00183082 0 -0.0945755)
(-0.00205145 0 -0.0998837)
(-0.00144313 0 -0.0852222)
(-0.00160478 0 -0.0900547)
(-0.00111119 0 -0.0766973)
(-0.00122241 0 -0.0810991)
(-0.00082607 0 -0.0689238)
(-0.000893962 0 -0.0729362)
(-0.000580597 0 -0.061831)
(-0.000611128 0 -0.0654912)
(-0.000368902 0 -0.0553553)
(-0.000367119 0 -0.0586964)
(-0.000186144 0 -0.0494394)
(-0.000156349 0 -0.052491)
(-2.8311e-05 0 -0.0440321)
(2.58122e-05 0 -0.0468206)
(0.000107958 0 -0.0390874)
(0.000183212 0 -0.0416365)
(0.00022546 0 -0.0345637)
(0.000319095 0 -0.0368948)
(0.000326557 0 -0.0304232)
(0.0004362 0 -0.0325557)
(0.000413285 0 -0.0266314)
(0.000536846 0 -0.028583)
(0.00048738 0 -0.0231572)
(0.000623037 0 -0.0249438)
(0.00055034 0 -0.019972)
(0.0006965 0 -0.0216082)
(0.000603449 0 -0.01705)
(0.000758726 0 -0.0185489)
(0.000647809 0 -0.0143678)
(0.000811005 0 -0.0157413)
(0.000684372 0 -0.0119038)
(0.000854442 0 -0.0131629)
(0.000714005 0 -0.00963846)
(0.000890011 0 -0.0107931)
(0.000737561 0 -0.00755533)
(0.000918699 0 -0.0086134)
(0.000755909 0 -0.00564259)
(0.000941709 0 -0.00660945)
(0.00076982 0 -0.00389755)
(0.00095873 0 -0.00477166)
(0.000779659 0 -0.00227084)
(0.000969802 0 -0.00310304)
(0.000981672 0 -0.00150241)
(-0.000267089 0 -0.00199805)
(-0.000321253 0 -0.00121863)
(-0.000259762 0 -0.00346785)
(-0.000317057 0 -0.00283113)
(-0.000250753 0 -0.00480763)
(-0.000308013 0 -0.00415922)
(-0.000240848 0 -0.00619964)
(-0.000298336 0 -0.005515)
(-0.000229907 0 -0.00767467)
(-0.00028788 0 -0.00694746)
(-0.000217392 0 -0.00923951)
(-0.000275896 0 -0.00846999)
(-0.000202779 0 -0.0108965)
(-0.000261863 0 -0.010083)
(-0.000185666 0 -0.0126517)
(-0.00024533 0 -0.0117905)
(-0.000165737 0 -0.0145147)
(-0.000225921 0 -0.0136007)
(-0.000142712 0 -0.0164967)
(-0.000203326 0 -0.0155241)
(-0.000116318 0 -0.0186104)
(-0.000177258 0 -0.0175728)
(-8.62596e-05 0 -0.0208689)
(-0.000147419 0 -0.0197598)
(-5.22082e-05 0 -0.0232858)
(-0.000113484 0 -0.0220985)
(-1.37909e-05 0 -0.025875)
(-7.50808e-05 0 -0.0246027)
(2.94129e-05 0 -0.0286511)
(-3.17884e-05 0 -0.0272866)
(7.78751e-05 0 -0.0316291)
(1.68685e-05 0 -0.030165)
(0.000132121 0 -0.0348246)
(7.14232e-05 0 -0.0332532)
(0.000192739 0 -0.0382541)
(0.000132471 0 -0.0365673)
(0.000260393 0 -0.041935)
(0.000200681 0 -0.0401241)
(0.000335838 0 -0.0458855)
(0.000276802 0 -0.0439415)
(0.000419942 0 -0.0501255)
(0.000361684 0 -0.0480386)
(0.000513718 0 -0.0546762)
(0.000456305 0 -0.0524357)
(0.000618362 0 -0.0595611)
(0.00056181 0 -0.0571552)
(0.000735302 0 -0.0648067)
(0.000679567 0 -0.062222)
(0.000866261 0 -0.070444)
(0.00081123 0 -0.0676645)
(0.00101331 0 -0.07651)
(0.000958797 0 -0.0735163)
(0.00117886 0 -0.0830502)
(0.00112464 0 -0.0798183)
(0.00136557 0 -0.0901194)
(0.00131144 0 -0.0866209)
(0.00157601 0 -0.0977783)
(0.00152204 0 -0.0939833)
(0.00181201 0 -0.106085)
(0.00175891 0 -0.101967)
(0.002121 0 -0.116575)
(0.00204602 0 -0.111365)
(0.00245852 0 -0.127382)
(0.00238652 0 -0.122021)
(0.00283231 0 -0.138527)
(0.00276177 0 -0.133002)
(0.0032508 0 -0.150058)
(0.003179 0 -0.144342)
(0.0037238 0 -0.162034)
(0.00364764 0 -0.156099)
(0.0042632 0 -0.174525)
(0.00417868 0 -0.168338)
(0.00488404 0 -0.187608)
(0.00478564 0 -0.181134)
(0.00560596 0 -0.201372)
(0.00548612 0 -0.194569)
(0.00645497 0 -0.215929)
(0.00630334 0 -0.208744)
(0.0074647 0 -0.231426)
(0.00726758 0 -0.223787)
(0.00867649 0 -0.248039)
(0.00841672 0 -0.239867)
(0.0101417 0 -0.265922)
(0.00979689 0 -0.257176)
(0.0119408 0 -0.285091)
(0.0114686 0 -0.275844)
(0.0142504 0 -0.305344)
(0.0135385 0 -0.295815)
(0.0174855 0 -0.326483)
(0.0162505 0 -0.316845)
(0.0224821 0 -0.34916)
(0.0201571 0 -0.338985)
(0.0306277 0 -0.376329)
(0.0262429 0 -0.363755)
(0.0437808 0 -0.415608)
(0.0359427 0 -0.395761)
(0.0630739 0 -0.483971)
(0.0510701 0 -0.445289)
(0.0818798 0 -0.607375)
(0.0691195 0 -0.532984)
(0.0659629 0 -0.775519)
(0.0831455 0 -0.680141)
(-0.0251475 0 -0.822334)
(0.0281202 0 -0.83658)
(-0.0912479 0 -0.564792)
(-0.0796093 0 -0.759487)
(-0.0361622 0 -0.139756)
(-0.0835879 0 -0.365615)
(0.0458609 0 0.211427)
(0.0106538 0 0.0434332)
(0.119448 0 0.357231)
(0.0729018 0 0.328221)
(0.181896 0 -0.204591)
(0.16868 0 0.340818)
(0.0747125 0 -1.09045)
(0.174064 0 -0.736452)
(-0.082882 0 -1.08534)
(-0.00642991 0 -1.35843)
(-0.202644 0 -0.213281)
(-0.188886 0 -0.722553)
(-0.151677 0 0.325405)
(-0.197719 0 0.316582)
(-0.0856712 0 0.180926)
(-0.108928 0 0.294515)
(-0.0310868 0 -0.090857)
(-0.0556995 0 0.0267936)
(-0.000664344 0 -0.317093)
(-0.00675439 0 -0.23677)
(-0.00205812 0 -0.424675)
(0.00442473 0 -0.40707)
(-0.0139322 0 -0.41609)
(-0.00873318 0 -0.438257)
(-0.0187996 0 -0.358248)
(-0.017805 0 -0.388657)
(-0.017418 0 -0.300589)