/*--------------------------------*- C++ -*----------------------------------*\
  =========                 |
  \\      /  F ield         | OpenFOAM: The Open Source CFD Toolbox
   \\    /   O peration     | Website:  https://openfoam.org
    \\  /    A nd           | Version:  9
     \\/     M anipulation  |
\*---------------------------------------------------------------------------*/
FoamFile
{
    format      ascii;
    class       surfaceScalarField;
    location    "0.03";
    object      alphaPhi0.water;
}
// * * * * * * * * * * * * * * * * * * * * * * * * * * * * * * * * * * * * * //

dimensions      [0 3 -1 0 0 0 0];

internalField   nonuniform List<scalar> 
39700
(
-1.97303e-288
3.203e-288
-8.21498e-288
1.41648e-287
-3.51197e-287
6.18232e-287
-1.54504e-286
2.77036e-286
-6.99638e-286
1.27745e-285
-3.26139e-285
6.06281e-285
-1.5652e-284
2.96196e-284
-7.73408e-284
1.48969e-283
-3.93499e-283
7.71367e-283
-2.06153e-282
4.11239e-282
-1.11212e-281
2.2574e-281
-6.17761e-281
1.27587e-280
-3.5333e-280
7.4247e-280
-2.08066e-279
4.44842e-279
-1.26135e-278
2.74382e-278
-7.87097e-278
1.74212e-277
-5.05481e-277
1.13846e-276
-3.34023e-276
7.6559e-276
-2.27058e-275
5.29691e-275
-1.58733e-274
3.76955e-274
-1.14082e-273
2.75849e-273
-8.42616e-273
2.07501e-272
-6.39308e-272
1.60388e-271
-4.98017e-271
1.27329e-270
-3.98097e-270
1.0377e-269
-3.26344e-269
8.67668e-269
-2.74167e-268
7.43881e-268
-2.35882e-267
6.53467e-267
-2.07661e-266
5.87756e-266
-1.86906e-265
5.40822e-265
-1.94644e-264
5.93229e-264
-1.98295e-263
6.14933e-263
-1.97183e-262
6.23535e-262
-1.91194e-261
6.17097e-261
-1.80572e-260
5.95474e-260
-1.65916e-259
5.59647e-259
-1.48129e-258
5.11678e-258
-1.28325e-257
4.5453e-257
-1.07715e-256
3.91761e-256
-8.7467e-256
3.27146e-255
-6.85943e-255
2.64268e-254
-5.1858e-254
2.06157e-253
-3.77203e-253
1.55031e-252
-2.6342e-252
1.12165e-251
-1.76215e-251
7.79117e-251
-1.12636e-250
5.18402e-250
-6.86103e-250
3.29597e-249
-3.97103e-249
1.99707e-248
-2.17689e-248
1.14985e-247
-1.12642e-247
6.27127e-247
-5.48149e-247
3.22902e-246
-2.49875e-246
1.56395e-245
-1.06245e-245
7.0978e-245
-4.19413e-245
3.00568e-244
-1.52953e-244
1.18222e-243
-5.12569e-244
4.29809e-243
-1.56955e-243
1.43684e-242
-4.3656e-243
4.3924e-242
-1.09606e-242
1.22073e-241
-2.46767e-242
3.06535e-241
-4.94779e-242
6.90972e-241
-8.77196e-242
1.38866e-240
-1.365e-241
2.47051e-240
-1.85045e-241
3.86208e-240
-2.16952e-241
5.26541e-240
-2.18559e-241
6.21473e-240
-1.88318e-241
6.30841e-240
-1.38717e-241
5.4812e-240
-8.81384e-242
4.07408e-240
-5.02076e-242
2.61342e-240
-2.60609e-242
1.22753e-240
-1.24507e-242
6.12375e-241
-5.53417e-243
2.81093e-241
-2.31177e-243
1.19999e-241
-9.15899e-244
4.81257e-242
-3.46978e-244
1.82988e-242
-1.26599e-244
6.6505e-243
-4.47697e-245
2.32703e-243
-1.54302e-245
7.88891e-244
-5.20852e-246
2.60565e-244
-1.72933e-246
8.42609e-245
-5.66898e-247
2.67927e-245
-1.84098e-247
8.40891e-246
-5.94014e-248
2.61369e-246
-1.90936e-248
8.06957e-247
-6.1283e-249
2.48129e-247
-1.96812e-249
7.61652e-248
-6.33624e-250
2.33881e-248
-2.0483e-250
7.19788e-249
-6.65857e-251
2.22386e-249
-2.17954e-251
6.90796e-250
-7.19209e-252
2.16028e-250
-2.39503e-252
6.8093e-251
-8.0563e-253
2.16566e-251
-2.73956e-253
6.95641e-252
-9.4228e-254
2.25861e-252
-3.27545e-254
7.41651e-253
-1.13821e-254
2.46096e-253
-3.5973e-255
8.16266e-254
2.46227e-254
-9.70385e-286
1.57599e-285
-4.03696e-285
6.96438e-285
-1.72441e-284
3.03729e-284
-7.58009e-284
1.35998e-283
-3.42963e-283
6.26607e-283
-1.59739e-282
2.97151e-282
-7.6596e-282
1.45053e-281
-3.78152e-281
7.28933e-281
-1.92228e-280
3.77128e-280
-1.00618e-279
2.00889e-279
-5.42304e-279
1.1018e-278
-3.00966e-278
6.22199e-278
-1.7198e-277
3.61769e-277
-1.01181e-276
2.16564e-276
-6.12817e-276
1.33464e-275
-3.82051e-275
8.46681e-275
-2.45129e-274
5.52831e-274
-1.61833e-273
3.71456e-273
-1.09908e-272
2.56789e-272
-7.67654e-272
1.82596e-271
-5.51225e-271
1.33515e-270
-4.06778e-270
1.00356e-269
-3.08365e-269
7.75123e-269
-2.40013e-268
6.14917e-268
-1.91702e-267
5.008e-267
-1.57027e-266
4.18475e-266
-1.31823e-265
3.58559e-265
-1.13335e-264
3.14807e-264
-9.97103e-264
2.83013e-263
-8.96916e-263
2.60306e-262
-9.335e-262
2.85433e-261
-9.50561e-261
2.95795e-260
-9.449e-260
2.99889e-259
-9.15996e-259
2.96788e-258
-8.65034e-258
2.86424e-257
-7.94876e-257
2.69265e-256
-7.09819e-256
2.46292e-255
-6.15167e-255
2.18915e-254
-5.16661e-254
1.88829e-253
-4.19865e-253
1.57834e-252
-3.29592e-252
1.27644e-251
-2.49472e-251
9.97089e-251
-1.81719e-250
7.50968e-250
-1.27115e-249
5.44274e-249
-8.51965e-249
3.788e-248
-5.45766e-248
2.52588e-247
-3.33263e-247
1.60974e-246
-1.93418e-246
9.77879e-246
-1.06355e-245
5.64591e-245
-5.52175e-245
3.0884e-244
-2.6969e-244
1.59517e-243
-1.23426e-243
7.75137e-243
-5.2703e-243
3.52984e-242
-2.08992e-242
1.5e-241
-7.658e-242
5.92106e-241
-2.57912e-241
2.16045e-240
-7.93833e-241
7.2486e-240
-2.21964e-240
2.22393e-239
-5.60246e-240
6.20302e-239
-1.26804e-239
1.5632e-238
-2.55581e-239
3.53616e-238
-4.55438e-239
7.13177e-238
-7.12206e-239
1.27326e-237
-9.70049e-239
1.99749e-237
-1.14239e-238
2.73301e-237
-1.15563e-238
3.23731e-237
-9.9953e-239
3.29788e-237
-7.38788e-239
2.87556e-237
-4.70798e-239
2.14469e-237
-2.68685e-239
1.38019e-237
-1.39711e-239
6.49809e-238
-6.68581e-240
3.24928e-238
-2.97646e-240
1.49493e-238
-1.24531e-240
6.39642e-239
-4.94172e-241
2.57114e-239
-1.87525e-241
9.79876e-240
-6.85409e-242
3.56963e-240
-2.42831e-242
1.25203e-240
-8.38561e-243
4.25501e-241
-2.83636e-243
1.40895e-241
-9.43731e-244
4.56802e-242
-3.10052e-244
1.45634e-242
-1.00919e-244
4.583e-243
-3.26392e-245
1.42838e-243
-1.05166e-245
4.42214e-244
-3.38368e-246
1.36352e-244
-1.08938e-246
4.19706e-245
-3.51596e-247
1.29238e-245
-1.13946e-247
3.98842e-246
-3.71346e-248
1.23566e-246
-1.21858e-248
3.84882e-247
-4.03115e-249
1.20687e-247
-1.34574e-249
3.81425e-248
-4.53783e-250
1.21629e-248
-1.54683e-250
3.91695e-249
-5.333e-251
1.27496e-249
-1.85809e-251
4.19685e-250
-6.47101e-252
1.39593e-250
-2.04882e-252
4.64047e-251
1.40235e-251
-3.67178e-283
5.96332e-283
-1.52681e-282
2.63406e-282
-6.51886e-282
1.14825e-281
-2.86422e-281
5.13912e-281
-1.29533e-280
2.36679e-280
-6.03037e-280
1.12189e-279
-2.89025e-279
5.47404e-279
-1.42623e-278
2.74963e-278
-7.24661e-278
1.42195e-277
-3.79127e-277
7.57108e-277
-2.04242e-276
4.15062e-276
-1.13296e-275
2.34289e-275
-6.47097e-275
1.36166e-274
-3.80527e-274
8.14784e-274
-2.30366e-273
5.0193e-273
-1.43553e-272
3.18293e-272
-9.20654e-272
2.07747e-271
-6.07551e-271
1.39539e-270
-4.12448e-270
9.64312e-270
-2.87962e-269
6.85484e-269
-2.067e-268
5.01085e-268
-1.52483e-267
3.76546e-267
-1.15557e-266
2.90771e-266
-8.99178e-266
2.30633e-265
-7.18018e-265
1.87808e-264
-5.8803e-264
1.56922e-263
-4.93575e-263
1.34452e-262
-4.24315e-262
1.18051e-261
-3.73296e-261
1.0614e-260
-3.35803e-260
9.76427e-260
-3.49526e-259
1.07098e-258
-3.55986e-258
1.11027e-257
-3.53981e-257
1.12621e-256
-3.4331e-256
1.11527e-255
-3.24404e-255
1.07717e-254
-2.98317e-254
1.01357e-253
-2.66637e-253
9.28102e-253
-2.3133e-252
8.25965e-252
-1.94532e-251
7.13461e-251
-1.58315e-250
5.97306e-250
-1.24481e-249
4.83912e-249
-9.43966e-249
3.78752e-248
-6.89028e-248
2.85878e-247
-4.83099e-247
2.07683e-246
-3.24617e-246
1.44911e-245
-2.08533e-245
9.68945e-245
-1.27728e-244
6.19333e-244
-7.43782e-244
3.77412e-243
-4.10465e-243
2.18629e-242
-2.13939e-242
1.20012e-241
-1.04928e-241
6.22138e-241
-4.82352e-241
3.03466e-240
-2.06936e-240
1.38737e-239
-8.2468e-240
5.91942e-239
-3.03758e-239
2.34626e-238
-1.02856e-238
8.5969e-238
-3.18354e-238
2.89666e-237
-8.95256e-238
8.92544e-237
-2.27284e-237
2.50031e-236
-5.17456e-237
6.32859e-236
-1.04912e-236
1.43797e-235
-1.88047e-236
2.91316e-235
-2.95771e-236
5.22478e-235
-4.05138e-236
8.23483e-235
-4.7974e-236
1.13203e-234
-4.87854e-236
1.34732e-234
-4.24037e-236
1.37908e-234
-3.14839e-236
1.20811e-234
-2.01434e-236
9.0512e-235
-1.15282e-236
5.84926e-235
-6.01039e-237
2.76279e-235
-2.88331e-237
1.38581e-235
-1.2866e-237
6.3949e-236
-5.39499e-238
2.74415e-236
-2.14562e-238
1.10618e-236
-8.16018e-239
4.2276e-237
-2.98933e-239
1.54443e-237
-1.06153e-239
5.43237e-238
-3.6745e-240
1.85147e-238
-1.24591e-240
6.14848e-239
-4.15587e-241
1.99926e-239
-1.36887e-241
6.39278e-240
-4.46722e-242
2.01777e-240
-1.44864e-242
6.30768e-241
-4.68027e-243
1.9587e-241
-1.50997e-243
6.05772e-242
-4.87475e-244
1.87027e-242
-1.57767e-244
5.77638e-243
-5.12706e-245
1.788e-243
-1.6755e-245
5.5559e-244
-5.51323e-246
1.73563e-244
-1.82878e-246
5.4582e-245
-6.12151e-247
1.72997e-245
-2.06965e-247
5.53205e-246
-7.07334e-248
1.78646e-246
-2.44493e-248
5.83063e-247
-8.53985e-249
1.92436e-247
-2.98116e-249
6.41714e-248
-9.45743e-250
2.13844e-248
6.47522e-249
-1.3374e-280
2.17153e-280
-5.55916e-280
9.58831e-280
-2.37264e-279
4.17818e-279
-1.04208e-278
1.8693e-278
-4.71094e-278
8.60576e-278
-2.19231e-277
4.07773e-277
-1.05033e-276
1.98891e-276
-5.18099e-276
9.98672e-276
-2.63141e-275
5.16266e-275
-1.37616e-274
2.74784e-274
-7.41077e-274
1.50588e-273
-4.10928e-273
8.49727e-273
-2.34617e-272
4.93683e-272
-1.37916e-271
2.95311e-271
-8.34628e-271
1.81863e-270
-5.1992e-270
1.15292e-269
-3.33331e-269
7.5229e-269
-2.199e-268
5.05164e-268
-1.49239e-267
3.49021e-267
-1.04167e-266
2.48051e-266
-7.47529e-266
1.81292e-265
-5.51335e-265
1.36214e-264
-4.17741e-264
1.05174e-263
-3.25007e-263
8.34168e-263
-2.59499e-262
6.79265e-262
-2.12507e-261
5.6758e-261
-1.78369e-260
4.86352e-260
-1.53347e-259
4.27093e-259
-1.34923e-258
3.8409e-258
-1.21393e-257
3.53449e-257
-1.26382e-256
3.87828e-256
-1.28761e-255
4.02257e-255
-1.28095e-254
4.08283e-254
-1.24306e-253
4.04623e-253
-1.17546e-252
3.91143e-252
-1.08187e-251
3.6843e-251
-9.67962e-251
3.37757e-250
-8.40781e-250
3.00987e-249
-7.0799e-249
2.60378e-248
-5.77063e-248
2.18349e-247
-4.54519e-247
1.77221e-246
-3.45333e-246
1.38988e-245
-2.52606e-245
1.05136e-244
-1.77526e-244
7.65601e-244
-1.19595e-243
5.35567e-243
-7.70437e-243
3.59089e-242
-4.73343e-242
2.30195e-241
-2.76547e-241
1.40713e-240
-1.5316e-240
8.17798e-240
-8.01346e-240
4.5046e-239
-3.94636e-239
2.34357e-238
-1.82202e-238
1.14742e-237
-7.85268e-238
5.266e-237
-3.14459e-237
2.25578e-236
-1.16414e-236
8.97779e-236
-3.96276e-236
3.30334e-235
-1.23326e-235
1.11781e-234
-3.48772e-235
3.45943e-234
-8.9059e-235
9.73453e-234
-2.03961e-234
2.47526e-233
-4.16007e-234
5.65079e-233
-7.50191e-234
1.15035e-232
-1.18713e-233
2.07347e-232
-1.63594e-233
3.28482e-232
-1.94874e-233
4.53941e-232
-1.99318e-233
5.43166e-232
-1.74203e-233
5.58958e-232
-1.30011e-233
4.92268e-232
-8.3568e-234
3.70709e-232
-4.79937e-234
2.40725e-232
-2.51053e-234
1.1414e-232
-1.2081e-234
5.74651e-233
-5.40664e-235
2.66123e-233
-2.27356e-235
1.14591e-233
-9.06727e-236
4.63475e-234
-3.458e-236
1.77717e-234
-1.2703e-236
6.51376e-235
-4.52364e-237
2.29869e-235
-1.57033e-237
7.86031e-236
-5.33993e-238
2.61897e-236
-1.78643e-238
8.54435e-237
-5.90177e-239
2.74127e-237
-1.93181e-239
8.68144e-238
-6.28366e-240
2.72302e-238
-2.03635e-240
8.48419e-239
-6.59007e-241
2.63275e-239
-2.1341e-241
8.15561e-240
-6.92815e-242
2.52727e-240
-2.25843e-242
7.84865e-241
-7.40304e-243
2.44681e-241
-2.44338e-243
7.66838e-242
-8.12927e-244
2.41923e-242
-2.72922e-244
7.69177e-243
-9.25444e-245
2.46722e-243
-3.17196e-245
7.99147e-244
-1.09951e-245
2.61596e-244
-3.8511e-246
8.65883e-245
-1.3479e-246
2.8956e-245
-4.28541e-247
9.67506e-246
2.93611e-246
-4.86955e-278
7.90308e-278
-2.02326e-277
3.48807e-277
-8.63143e-277
1.51929e-276
-3.78927e-276
6.79427e-276
-1.71225e-275
3.12654e-275
-7.96467e-275
1.48083e-274
-3.81413e-274
7.21961e-274
-1.88056e-273
3.62355e-273
-9.547e-273
1.8724e-272
-4.99061e-272
9.96165e-272
-2.6863e-271
5.45695e-271
-1.48889e-270
3.07792e-270
-8.49704e-270
1.78752e-269
-4.99273e-269
1.06884e-268
-3.02019e-268
6.57978e-268
-1.88062e-267
4.16972e-267
-1.20523e-266
2.71983e-266
-7.94796e-266
1.82577e-265
-5.39211e-265
1.26106e-264
-3.76236e-264
8.95991e-264
-2.69912e-263
6.54686e-263
-1.99016e-262
4.91795e-262
-1.50754e-261
3.79659e-261
-1.17263e-260
3.01077e-260
-9.36113e-260
2.45146e-259
-7.66493e-259
2.04831e-258
-6.43309e-258
1.75519e-257
-5.53047e-257
1.54145e-256
-4.86616e-256
1.38644e-255
-4.37862e-255
1.27612e-254
-4.55926e-254
1.40067e-253
-4.64629e-253
1.45336e-252
-4.62397e-252
1.4759e-251
-4.48941e-251
1.4636e-250
-4.24787e-250
1.41593e-249
-3.9126e-249
1.3349e-248
-3.50381e-248
1.22504e-247
-3.04664e-247
1.09297e-246
-2.56856e-246
9.46768e-246
-2.09646e-245
7.95127e-245
-1.65383e-244
6.46425e-244
-1.25873e-243
5.07887e-243
-9.22532e-243
3.8495e-242
-6.49727e-242
2.80924e-241
-4.38739e-241
1.96974e-240
-2.83366e-240
1.32398e-239
-1.74583e-239
8.51004e-239
-1.02309e-238
5.21672e-238
-5.68478e-238
3.04095e-237
-2.98481e-237
1.6803e-236
-1.47546e-236
8.77087e-236
-6.83952e-236
4.30908e-235
-2.96031e-235
1.98471e-234
-1.19078e-234
8.53349e-234
-4.42917e-234
3.40933e-233
-1.51518e-233
1.25944e-232
-4.73986e-233
4.27938e-232
-1.34768e-232
1.33004e-231
-3.46051e-232
3.75916e-231
-7.97087e-232
9.6026e-231
-1.63541e-231
2.20267e-230
-2.96704e-231
4.5064e-230
-4.72408e-231
8.16485e-230
-6.55063e-231
1.30047e-229
-7.85165e-231
1.8072e-229
-8.07992e-231
2.17479e-229
-7.10376e-231
2.25097e-229
-5.33157e-231
1.99384e-229
-3.44479e-231
1.50995e-229
-1.98647e-231
9.85744e-230
-1.04318e-231
4.69446e-230
-5.03847e-232
2.37355e-230
-2.26285e-232
1.10371e-230
-9.54807e-233
4.77139e-231
-3.82066e-233
1.93733e-231
-1.46193e-233
7.457e-232
-5.38824e-234
2.74352e-232
-1.92518e-234
9.71838e-233
-6.70544e-235
3.3357e-233
-2.2879e-235
1.11561e-233
-7.68008e-236
3.6534e-234
-2.54594e-236
1.17654e-234
-8.36235e-237
3.7401e-235
-2.72947e-237
1.17754e-235
-8.87619e-238
3.68268e-236
-2.88251e-238
1.14706e-236
-9.367e-239
3.56651e-237
-3.05143e-239
1.10927e-237
-9.98123e-240
3.45751e-238
-3.28298e-240
1.08176e-238
-1.08722e-240
3.40237e-239
-3.62933e-241
1.07715e-239
-1.22249e-241
3.43656e-240
-4.15879e-242
1.10606e-240
-1.42999e-242
3.59451e-241
-4.97248e-243
1.18048e-241
-1.747e-243
3.9199e-242
-6.13246e-244
1.31495e-242
-1.95449e-244
4.40663e-243
1.3406e-243
-1.77973e-275
2.88664e-275
-7.39079e-275
1.27336e-274
-3.15128e-274
5.54339e-274
-1.38268e-273
2.47767e-273
-6.24449e-273
1.13955e-272
-2.90307e-272
5.39436e-272
-1.38946e-271
2.62855e-271
-6.84697e-271
1.31858e-270
-3.47408e-270
6.80986e-270
-1.81505e-269
3.62111e-269
-9.76452e-269
1.98259e-268
-5.4091e-268
1.11768e-267
-3.08529e-267
6.48765e-267
-1.81191e-266
3.87731e-266
-1.09548e-265
2.38571e-265
-6.8179e-265
1.51115e-264
-4.3672e-264
9.85246e-264
-2.87859e-263
6.61087e-263
-1.95201e-262
4.56421e-262
-1.36142e-261
3.24164e-261
-9.76272e-261
2.36775e-260
-7.19556e-260
1.77804e-259
-5.44867e-259
1.37222e-258
-4.23682e-258
1.08791e-257
-3.38127e-257
8.85621e-257
-2.76791e-256
7.39853e-256
-2.32261e-255
6.33908e-255
-1.99642e-254
5.56681e-254
-1.75646e-253
5.00707e-253
-1.58043e-252
4.60899e-252
-1.64567e-251
5.05963e-251
-1.67729e-250
5.25131e-250
-1.66961e-249
5.33466e-249
-1.62158e-248
5.29272e-248
-1.53505e-247
5.12337e-247
-1.41472e-246
4.83366e-246
-1.26783e-245
4.43961e-245
-1.10336e-244
3.96486e-244
-9.3117e-244
3.43836e-243
-7.60912e-243
2.89131e-242
-6.01066e-242
2.35392e-241
-4.58166e-241
1.85234e-240
-3.36363e-240
1.4064e-239
-2.37343e-239
1.02828e-238
-1.60604e-238
7.22465e-238
-1.03967e-237
4.8668e-237
-6.42147e-237
3.13559e-236
-3.77336e-236
1.92698e-235
-2.10284e-235
1.12629e-234
-1.10762e-234
6.24098e-234
-5.49392e-234
3.26739e-233
-2.55601e-233
1.61027e-232
-1.1106e-232
7.44102e-232
-4.4858e-232
3.2103e-231
-1.6758e-231
1.28718e-230
-5.7592e-231
4.77278e-230
-1.81037e-230
1.62806e-229
-5.17363e-230
5.08085e-229
-1.33556e-229
1.44224e-228
-3.09346e-229
3.70089e-228
-6.38381e-229
8.52997e-228
-1.16515e-228
1.75397e-227
-1.86666e-228
3.19486e-227
-2.6048e-228
5.11717e-227
-3.14217e-228
7.15257e-227
-3.25422e-228
8.65927e-227
-2.87906e-228
9.01766e-227
-2.17392e-228
8.03678e-227
-1.41255e-228
6.12329e-227
-8.18353e-229
4.02071e-227
-4.3168e-229
1.92424e-227
-2.09389e-229
9.77573e-228
-9.4426e-230
4.56683e-228
-4.00019e-230
1.98315e-228
-1.60694e-230
8.08766e-229
-6.1726e-231
3.12653e-229
-2.28381e-231
1.15523e-229
-8.19135e-232
4.10964e-230
-2.86408e-232
1.41658e-230
-9.81015e-233
4.75779e-231
-3.30589e-233
1.56468e-231
-1.10017e-233
5.06017e-232
-3.62772e-234
1.61535e-232
-1.18872e-234
5.10714e-233
-3.88077e-235
1.60389e-233
-1.26517e-235
5.01639e-234
-4.12724e-236
1.56615e-234
-1.34969e-236
4.89092e-235
-4.43173e-237
1.5306e-235
-1.46319e-237
4.80792e-236
-4.86379e-238
1.51812e-236
-1.62964e-238
4.82478e-237
-5.50929e-239
1.54516e-237
-1.88096e-239
4.99171e-238
-6.49062e-240
1.62819e-238
-2.26485e-240
5.36647e-239
-7.98441e-241
1.78829e-239
-2.81187e-241
6.01964e-240
-8.98672e-242
2.02391e-240
6.17444e-241
-6.52492e-273
1.05749e-272
-2.70792e-272
4.66181e-272
-1.15385e-271
2.02815e-271
-5.05944e-271
9.05916e-271
-2.28344e-270
4.16384e-270
-1.06088e-269
1.96979e-269
-5.0742e-269
9.59217e-269
-2.49881e-268
4.80866e-268
-1.26703e-267
2.48186e-267
-6.6153e-267
1.31887e-266
-3.55654e-266
7.2163e-266
-1.96887e-265
4.06559e-265
-1.12229e-264
2.35843e-264
-6.58668e-264
1.40863e-263
-3.9798e-263
8.66209e-263
-2.47534e-262
5.48346e-262
-1.58461e-261
3.57306e-261
-1.04385e-260
2.39613e-260
-7.07439e-260
1.65342e-259
-4.93122e-259
1.1737e-258
-3.53428e-258
8.56874e-258
-2.60359e-257
6.43166e-257
-1.97055e-256
4.96157e-256
-1.53159e-255
3.93207e-255
-1.2218e-254
3.1998e-254
-9.99791e-254
2.67232e-253
-8.38666e-253
2.28907e-252
-7.20682e-252
2.0098e-251
-6.33912e-251
1.80746e-250
-5.7029e-250
1.66364e-249
-5.93757e-249
1.82631e-248
-6.05151e-248
1.89567e-247
-6.02428e-247
1.92613e-246
-5.85205e-246
1.91156e-245
-5.54139e-245
1.85116e-244
-5.10916e-244
1.7474e-243
-4.58113e-243
1.60598e-242
-3.98953e-242
1.43536e-241
-3.36966e-241
1.24587e-240
-2.75618e-240
1.04874e-239
-2.17962e-239
8.54818e-239
-1.66355e-238
6.73558e-238
-1.22306e-237
5.12148e-237
-8.64417e-237
3.75055e-236
-5.85989e-236
2.63976e-235
-3.80096e-235
1.78163e-234
-2.35282e-234
1.15023e-233
-1.38588e-233
7.08435e-233
-7.74357e-233
4.15043e-232
-4.0903e-232
2.3056e-231
-2.03506e-231
1.21028e-230
-9.49912e-231
5.98146e-230
-4.14198e-230
2.77225e-229
-1.67929e-229
1.1998e-228
-6.29868e-229
4.82657e-228
-2.17392e-228
1.79595e-227
-6.86468e-228
6.14908e-227
-1.97125e-227
1.92661e-226
-5.11476e-227
5.4919e-226
-1.1911e-226
1.41562e-225
-2.47201e-226
3.27846e-225
-4.53879e-226
6.7759e-225
-7.31671e-226
1.24096e-224
-1.02757e-225
1.9991e-224
-1.24771e-225
2.81118e-224
-1.30079e-225
3.42477e-224
-1.15842e-225
3.58953e-224
-8.80333e-226
3.21995e-224
-5.75511e-226
2.46919e-224
-3.35143e-226
1.63148e-224
-1.77675e-226
7.85041e-225
-8.65981e-227
4.0094e-225
-3.92343e-227
1.88268e-225
-1.66965e-227
8.2166e-226
-6.7372e-228
3.36738e-226
-2.59933e-228
1.30808e-226
-9.65951e-229
4.85646e-227
-3.47975e-229
1.73588e-227
-1.222e-229
6.01191e-228
-4.20395e-230
2.02873e-228
-1.42287e-230
6.70318e-229
-4.75592e-231
2.17796e-229
-1.57507e-231
6.98509e-230
-5.18362e-232
2.21866e-230
-1.69963e-232
6.99974e-231
-5.56496e-233
2.19926e-231
-1.8232e-233
6.8973e-232
-5.98769e-234
2.16361e-232
-1.97439e-234
6.80095e-233
-6.546e-235
2.14565e-233
-2.18497e-235
6.80423e-234
-7.35084e-236
2.17166e-234
-2.49512e-236
6.98398e-235
-8.55269e-237
2.26549e-235
-2.96286e-237
7.41946e-236
-1.03786e-237
2.45517e-236
-3.67271e-238
8.21348e-237
-1.2981e-238
2.77534e-237
-4.16182e-239
9.36516e-238
2.86612e-238
-2.3967e-270
3.8807e-270
-9.93911e-270
1.70945e-269
-4.23187e-269
7.43147e-269
-1.85417e-268
3.31689e-268
-8.36186e-268
1.52337e-267
-3.88188e-267
7.20111e-267
-1.85528e-266
3.504e-266
-9.1293e-266
1.75525e-265
-4.62547e-265
9.05233e-265
-2.41314e-264
4.80678e-264
-1.29635e-263
2.62808e-263
-7.171e-263
1.47952e-262
-4.08447e-262
8.57622e-262
-2.39534e-261
5.1186e-261
-1.44622e-260
3.14528e-260
-8.98851e-260
1.98967e-259
-5.74986e-259
1.29557e-258
-3.78498e-258
8.68232e-258
-2.56336e-257
5.98714e-257
-1.78558e-256
4.24732e-256
-1.27891e-255
3.09888e-255
-9.4153e-255
2.32464e-254
-7.12173e-254
1.79229e-253
-5.53207e-253
1.41965e-252
-4.41073e-252
1.15471e-251
-3.60745e-251
9.6393e-251
-3.02467e-250
8.2536e-250
-2.59807e-249
7.24415e-249
-2.28443e-248
6.51296e-248
-2.05452e-247
5.99338e-247
-2.1385e-246
6.57833e-246
-2.17916e-245
6.8277e-245
-2.16918e-244
6.93758e-244
-2.10721e-243
6.88595e-243
-1.99559e-242
6.66984e-242
-1.84037e-241
6.29807e-241
-1.65075e-240
5.79094e-240
-1.43826e-239
5.17857e-239
-1.21552e-238
4.498e-238
-9.94966e-238
3.78932e-237
-7.87526e-237
3.09152e-236
-6.01688e-236
2.43857e-235
-4.42897e-235
1.85641e-234
-3.1345e-234
1.3613e-233
-2.12814e-233
9.59538e-233
-1.38276e-232
6.48659e-232
-8.57566e-232
4.19513e-231
-5.06188e-231
2.58872e-230
-2.8348e-230
1.51973e-229
-1.50115e-229
8.46085e-229
-7.48908e-229
4.45184e-228
-3.50603e-228
2.20574e-227
-1.53364e-227
1.02505e-226
-6.2392e-227
4.44908e-226
-2.34886e-226
1.7953e-225
-8.13907e-226
6.7023e-225
-2.58108e-225
2.30292e-224
-7.44576e-225
7.24301e-224
-1.94142e-224
2.07318e-223
-4.54482e-224
5.36774e-223
-9.48504e-224
1.24911e-222
-1.75184e-223
2.59501e-222
-2.84165e-223
4.77897e-222
-4.01684e-223
7.74406e-222
-4.91015e-223
1.09578e-221
-5.15407e-223
1.34367e-221
-4.62151e-223
1.41779e-221
-3.53588e-223
1.28052e-221
-2.32661e-223
9.88678e-222
-1.36254e-223
6.57617e-222
-7.26339e-224
3.18305e-222
-3.5591e-224
1.63509e-222
-1.62088e-224
7.7213e-223
-6.93292e-225
3.38848e-223
-2.81154e-225
1.39625e-223
-1.09013e-225
5.45294e-224
-4.07108e-226
2.03528e-224
-1.47378e-226
7.31332e-225
-5.20095e-227
2.54615e-225
-1.798e-227
8.63696e-226
-6.11527e-228
2.86862e-226
-2.05398e-228
9.36885e-227
-6.83551e-229
3.02022e-227
-2.2605e-229
9.64211e-228
-7.44764e-230
3.05748e-228
-2.45022e-230
9.65471e-229
-8.06572e-231
3.043e-229
-2.66144e-231
9.59266e-230
-8.81697e-232
3.03001e-230
-2.93679e-232
9.60553e-231
-9.8476e-233
3.06056e-231
-3.32801e-233
9.81401e-232
-1.13469e-233
3.17073e-232
-3.90663e-234
1.03321e-232
-1.35925e-234
3.39892e-233
-4.78176e-235
1.12969e-233
-1.69926e-235
3.79563e-234
-6.03022e-236
1.28799e-234
-1.94024e-236
4.36386e-235
1.34031e-235
-8.80917e-268
1.42481e-267
-3.64997e-267
6.27072e-267
-1.55272e-266
2.72367e-266
-6.7971e-266
1.21459e-265
-3.0626e-265
5.57338e-265
-1.4205e-264
2.63225e-264
-6.78297e-264
1.27969e-263
-3.33473e-263
6.40466e-263
-1.68807e-262
3.30015e-262
-8.79892e-262
1.75083e-261
-4.72264e-261
9.56415e-261
-2.61009e-260
5.37958e-260
-1.48535e-259
3.11564e-259
-8.70318e-259
1.85793e-258
-5.2501e-258
1.14069e-257
-3.26021e-257
7.20982e-257
-2.08376e-256
4.6908e-256
-1.37054e-255
3.14101e-255
-9.27426e-255
2.16426e-254
-6.45505e-254
1.53415e-253
-4.61976e-253
1.1185e-252
-3.39848e-252
8.38437e-252
-2.56872e-251
6.45985e-251
-1.99394e-250
5.11341e-250
-1.58871e-249
4.15652e-249
-1.29854e-248
3.46776e-248
-1.08811e-247
2.96765e-247
-9.34128e-247
2.60342e-246
-8.20944e-246
2.33961e-245
-7.37988e-245
2.15215e-244
-7.67845e-244
2.36145e-243
-7.82191e-243
2.45039e-242
-7.78426e-242
2.48946e-241
-7.56078e-241
2.4708e-240
-7.15997e-240
2.39335e-239
-6.60341e-239
2.26025e-238
-5.924e-238
2.07875e-237
-5.16287e-237
1.85958e-236
-4.36507e-236
1.61593e-235
-3.5749e-235
1.36211e-234
-2.83144e-234
1.11205e-233
-2.16501e-233
8.77888e-233
-1.59516e-232
6.68939e-232
-1.13018e-231
4.91052e-231
-7.6829e-231
3.46543e-230
-4.99912e-230
2.34579e-229
-3.10534e-229
1.51934e-228
-1.83625e-228
9.39059e-228
-1.03039e-227
5.52251e-227
-5.46832e-227
3.08043e-226
-2.73464e-226
1.62419e-225
-1.28359e-225
8.06535e-225
-5.63088e-225
3.75724e-224
-2.29792e-224
1.63505e-223
-8.68031e-224
6.61661e-223
-3.01893e-223
2.47781e-222
-9.6121e-223
8.54255e-222
-2.78491e-222
2.69667e-221
-7.29564e-222
7.74985e-221
-1.71658e-221
2.01536e-220
-3.60213e-221
4.71235e-220
-6.69194e-221
9.84075e-220
-1.09225e-220
1.82244e-219
-1.55407e-220
2.97092e-219
-1.91264e-220
4.23069e-219
-2.02171e-220
5.22255e-219
-1.82568e-220
5.54901e-219
-1.40669e-220
5.04747e-219
-9.3197e-221
3.92509e-219
-5.49121e-221
2.62919e-219
-2.94481e-221
1.2807e-219
-1.45141e-221
6.62006e-220
-6.64783e-222
3.14538e-220
-2.85941e-222
1.38868e-220
-1.16602e-222
5.75621e-221
-4.5459e-223
2.26128e-221
-1.70694e-223
8.48936e-222
-6.21292e-224
3.06815e-222
-2.20441e-224
1.07434e-222
-7.66198e-225
3.66521e-223
-2.62e-225
1.22427e-223
-8.84728e-226
4.0211e-224
-2.96006e-226
1.30357e-224
-9.84105e-227
4.18493e-225
-3.25948e-227
1.33438e-225
-1.07799e-227
4.23677e-226
-3.56709e-228
1.34262e-226
-1.18312e-228
4.25522e-227
-3.93962e-229
1.35124e-227
-1.31889e-229
4.30612e-228
-4.44467e-230
1.37916e-228
-1.50954e-230
4.44504e-229
-5.17201e-231
1.44336e-229
-1.78929e-231
4.72672e-230
-6.25524e-232
1.56255e-230
-2.21093e-232
5.2185e-231
-7.89316e-233
1.76169e-231
-2.81354e-233
6.00584e-232
-9.08876e-234
2.04395e-232
6.30289e-233
-3.23198e-265
5.22095e-265
-1.33776e-264
2.29541e-264
-5.68508e-264
9.95984e-264
-2.4861e-263
4.4369e-263
-1.11901e-262
2.03386e-262
-5.1848e-262
9.59576e-262
-2.47319e-261
4.66022e-261
-1.21463e-260
2.32995e-260
-6.14211e-260
1.19931e-259
-3.19816e-259
6.3561e-259
-1.71475e-258
3.46851e-258
-9.46708e-258
1.94893e-257
-5.3819e-257
1.12758e-256
-3.15017e-256
6.71713e-256
-1.89834e-255
4.11984e-255
-1.17762e-254
2.60135e-254
-7.51906e-254
1.69079e-253
-4.94047e-253
1.13105e-252
-3.33982e-252
7.78575e-252
-2.32229e-251
5.51374e-251
-1.66041e-250
4.0161e-250
-1.22031e-249
3.00777e-249
-9.21505e-249
2.31531e-248
-7.14662e-248
1.83115e-247
-5.68918e-247
1.48724e-246
-4.64615e-246
1.2398e-245
-3.89007e-245
1.06019e-244
-3.33696e-244
9.29398e-244
-2.93047e-243
8.34657e-243
-2.63251e-242
7.67296e-242
-2.73721e-241
8.41431e-241
-2.7867e-240
8.72679e-240
-2.77185e-239
8.86208e-239
-2.69108e-238
8.79246e-238
-2.5475e-237
8.51445e-237
-2.34882e-236
8.03936e-236
-2.10676e-235
7.39293e-235
-1.8359e-234
6.61326e-234
-1.55221e-233
5.74712e-233
-1.27137e-232
4.84516e-232
-1.00718e-231
3.95665e-231
-7.70376e-231
3.12461e-230
-5.67858e-230
2.38198e-229
-4.02561e-229
1.74952e-228
-2.73851e-228
1.23547e-227
-1.78339e-227
8.36946e-227
-1.10888e-226
5.42554e-226
-6.5644e-226
3.35667e-225
-3.68827e-225
1.9762e-224
-1.96021e-224
1.10367e-223
-9.81863e-224
5.82712e-223
-4.61702e-223
2.89798e-222
-2.02946e-222
1.35227e-221
-8.30045e-222
5.89554e-221
-3.14315e-221
2.39061e-220
-1.09612e-220
8.97264e-220
-3.50044e-220
3.10119e-219
-1.01753e-219
9.81698e-219
-2.6753e-219
2.83001e-218
-6.31978e-219
7.38483e-218
-1.33194e-218
1.73331e-217
-2.48617e-218
3.63486e-217
-4.07869e-218
6.76251e-217
-5.8352e-218
1.10795e-216
-7.22379e-218
1.58635e-216
-7.68343e-218
1.96973e-216
-6.98406e-218
2.10597e-216
-5.41816e-218
1.92838e-216
-3.61479e-218
1.51008e-216
-2.14381e-218
1.01881e-216
-1.15734e-218
4.99667e-217
-5.74233e-219
2.60075e-217
-2.64765e-219
1.24431e-217
-1.14639e-219
5.53198e-218
-4.70572e-220
2.30904e-218
-1.84669e-220
9.13395e-219
-6.9797e-221
3.45284e-219
-2.5571e-221
1.2565e-219
-9.13203e-222
4.4299e-220
-3.19464e-222
1.52161e-220
-1.09945e-222
5.11698e-221
-3.73643e-223
1.69194e-221
-1.25806e-223
5.52149e-222
-4.20897e-224
1.78428e-222
-1.40279e-224
5.72635e-223
-4.66809e-225
1.82989e-223
-1.55415e-225
5.8358e-224
-5.18602e-226
1.86119e-224
-1.73721e-226
5.94685e-225
-5.85015e-227
1.90673e-225
-1.98302e-227
6.14362e-226
-6.77368e-228
1.99185e-226
-2.33399e-228
6.50555e-227
-8.11979e-229
2.14269e-227
-2.8543e-229
7.12335e-228
-1.01434e-229
2.39226e-228
-3.64055e-230
8.12014e-229
-1.30434e-230
2.78311e-229
-4.23296e-231
9.52048e-230
2.94942e-230
-1.03328e-262
1.66961e-262
-4.26372e-262
7.3195e-262
-1.80618e-261
3.16616e-261
-7.87254e-261
1.40596e-260
-3.5315e-260
6.42373e-260
-1.63059e-259
3.02048e-259
-7.75019e-259
1.46182e-258
-3.79224e-258
7.28245e-258
-1.91038e-257
3.73477e-257
-9.90839e-257
1.97186e-256
-5.29117e-256
1.07185e-255
-2.90913e-255
5.99845e-255
-1.64673e-254
3.45615e-254
-9.59631e-254
2.05011e-253
-5.75663e-253
1.25189e-252
-3.55436e-252
7.86897e-252
-2.25848e-251
5.09073e-251
-1.47656e-250
3.3891e-250
-9.9304e-250
2.32138e-249
-6.86827e-249
1.63557e-248
-4.88379e-248
1.18504e-247
-3.56895e-247
8.8268e-247
-2.67926e-246
6.75649e-246
-2.06527e-245
5.31258e-245
-1.63377e-244
4.28893e-244
-1.32556e-243
3.55316e-243
-1.10237e-242
3.01888e-242
-9.39012e-242
2.62882e-241
-8.18638e-241
2.34454e-240
-7.29854e-240
2.13988e-239
-7.52763e-239
2.32917e-238
-7.5999e-238
2.39651e-237
-7.49411e-237
2.41371e-236
-7.21054e-236
2.3744e-235
-6.7623e-235
2.27904e-234
-6.17459e-234
2.13214e-233
-5.48249e-233
1.94201e-232
-4.7275e-232
1.71995e-231
-3.95326e-231
1.4792e-230
-3.20098e-230
1.23357e-229
-2.50553e-229
9.95973e-229
-1.89248e-228
7.77224e-228
-1.3767e-227
5.85154e-227
-9.62541e-227
4.24193e-226
-6.45335e-226
2.9546e-225
-4.13876e-225
1.97274e-224
-2.53228e-224
1.25946e-223
-1.47381e-223
7.6676e-223
-8.13365e-223
4.43814e-222
-4.24176e-222
2.43451e-221
-2.08265e-221
1.26121e-220
-9.5887e-221
6.14782e-220
-4.12191e-220
2.80856e-219
-1.64667e-219
1.19735e-218
-6.08298e-219
4.74188e-218
-2.06686e-218
1.73604e-217
-6.42312e-218
5.84552e-217
-1.8149e-217
1.80054e-216
-4.6339e-217
5.04497e-216
-1.06229e-216
1.27834e-215
-2.17208e-216
2.91154e-215
-3.93467e-216
5.92329e-215
-6.27159e-216
1.06944e-214
-8.7367e-216
1.70235e-214
-1.05684e-215
2.37339e-214
-1.1038e-215
2.87972e-214
-9.91455e-216
3.02364e-214
-7.65599e-216
2.73627e-214
-5.12215e-216
2.13321e-214
-3.06562e-216
1.44362e-214
-1.67868e-216
7.14716e-215
-8.48241e-217
3.77441e-215
-3.99553e-217
1.83966e-215
-1.77153e-217
8.35813e-216
-7.45918e-218
3.5736e-216
-3.00627e-218
1.45052e-216
-1.16783e-218
5.63314e-217
-4.39942e-219
2.10757e-217
-1.61584e-219
7.64282e-218
-5.81339e-220
2.70069e-218
-2.05719e-220
9.34288e-219
-7.18635e-221
3.1773e-219
-2.48613e-221
1.06607e-219
-8.54182e-222
3.54047e-220
-2.92199e-222
1.16713e-220
-9.97422e-223
3.82876e-221
-3.40419e-223
1.25274e-221
-1.16373e-223
4.09636e-222
-3.99102e-224
1.34107e-222
-1.37506e-224
4.40268e-223
-4.7656e-225
1.45152e-223
-1.66328e-225
4.81206e-224
-5.85207e-226
1.606e-224
-2.07752e-226
5.40156e-225
-7.44765e-227
1.83258e-225
-2.69741e-227
6.27663e-226
-9.8594e-228
2.17141e-226
-3.59292e-228
7.57957e-227
-1.18239e-228
2.63729e-227
8.28522e-228
-1.97308e-260
3.19765e-260