/*--------------------------------*- C++ -*----------------------------------*\
  =========                 |
  \\      /  F ield         | OpenFOAM: The Open Source CFD Toolbox
   \\    /   O peration     | Website:  https://openfoam.org
    \\  /    A nd           | Version:  9
     \\/     M anipulation  |
\*---------------------------------------------------------------------------*/
FoamFile
{
    format      ascii;
    class       volScalarField;
    location    "0.03";
    object      alpha.water;
}
// * * * * * * * * * * * * * * * * * * * * * * * * * * * * * * * * * * * * * //

dimensions      [0 0 0 0 0 0 0];

internalField   nonuniform List<scalar> 
20000
(
2.18506e-282
9.21873e-282
3.83846e-281
1.641e-280
7.21945e-280
3.26923e-279
1.52399e-278
7.31406e-278
3.61416e-277
1.83888e-276
9.63408e-276
5.19738e-275
2.88715e-274
1.65137e-273
9.72485e-273
5.89572e-272
3.67916e-271
2.36291e-270
1.5615e-269
1.06152e-268
7.42137e-268
5.33416e-267
3.94012e-266
2.98967e-265
2.32914e-264
1.862e-263
1.52655e-262
1.28262e-261
1.10364e-260
9.71724e-260
8.74724e-259
9.11091e-258
9.2834e-257
9.23301e-256
8.95423e-255
8.45839e-254
7.77342e-253
6.94146e-252
6.01469e-251
5.0497e-250
4.10132e-249
3.21703e-248
2.43258e-247
1.76973e-246
1.2361e-245
8.27003e-245
5.28681e-244
3.22061e-243
1.86408e-242
1.02184e-241
5.28685e-241
2.57223e-240
1.17221e-239
4.98215e-239
1.96572e-238
7.16398e-238
2.39888e-237
7.33912e-237
2.03933e-236
5.11476e-236
1.15032e-235
2.30407e-235
4.08099e-235
6.34511e-235
8.59577e-235
1.00728e-234
1.0144e-234
8.73916e-235
6.43749e-235
4.09097e-235
2.3311e-235
1.21042e-235
5.78514e-236
2.57247e-236
1.07503e-236
4.26089e-237
1.61482e-237
5.89405e-238
2.08506e-238
7.18869e-239
2.42732e-239
8.06147e-240
2.64336e-240
8.58633e-241
2.7711e-241
8.9091e-242
2.86e-242
9.18653e-243
2.95799e-243
9.56353e-244
3.10927e-244
1.01786e-244
3.35908e-245
1.1187e-245
3.76332e-246
1.2798e-246
4.40215e-247
1.53028e-247
5.31782e-248
1.68075e-248
1.07513e-279
4.5326e-279
1.8858e-278
8.05577e-278
3.54127e-277
1.60232e-276
7.46335e-276
3.57892e-275
1.767e-274
8.98292e-274
4.70227e-273
2.53461e-272
1.40678e-271
8.03952e-271
4.73039e-270
2.86537e-269
1.7866e-268
1.14647e-267
7.57007e-267
5.14204e-266
3.59209e-265
2.57985e-264
1.90421e-263
1.44384e-262
1.12407e-261
8.9805e-261
7.35822e-260
6.17907e-259
5.31427e-258
4.67712e-257
4.20882e-256
4.3826e-255
4.46492e-254
4.44062e-253
4.30708e-252
4.0697e-251
3.74174e-250
3.34327e-249
2.89914e-248
2.43632e-247
1.98102e-246
1.55596e-245
1.17836e-244
8.58762e-244
6.00986e-243
4.02955e-242
2.58208e-241
1.57699e-240
9.15285e-240
5.03218e-239
2.6117e-238
1.27483e-237
5.82934e-237
2.48624e-236
9.84449e-236
3.60073e-235
1.21009e-234
3.71555e-234
1.03616e-233
2.60805e-233
5.88637e-233
1.1832e-232
2.1031e-232
3.28152e-232
4.46141e-232
5.24685e-232
5.30298e-232
4.58477e-232
3.3889e-232
2.16057e-232
1.23404e-232
6.42281e-233
3.07684e-233
1.3713e-233
5.74372e-234
2.28177e-234
8.66793e-235
3.17139e-235
1.12467e-235
3.88734e-236
1.31598e-236
4.38209e-237
1.44074e-237
4.69264e-238
1.51863e-238
4.89592e-239
1.57605e-239
5.07646e-240
1.63911e-240
5.31402e-241
1.7324e-241
5.68656e-242
1.88165e-242
6.28301e-243
2.11905e-243
7.22447e-244
2.49111e-244
8.68028e-245
3.02322e-245
9.57283e-246
4.0682e-277
1.71434e-276
7.12931e-276
3.04416e-275
1.3376e-274
6.0496e-274
2.81655e-273
1.35003e-272
6.66249e-272
3.38551e-271
1.77143e-270
9.5442e-270
5.29502e-269
3.02476e-268
1.77902e-267
1.0772e-266
6.71394e-266
4.30682e-265
2.84281e-264
1.9304e-263
1.34815e-262
9.68001e-262
7.14336e-261
5.41541e-260
4.21553e-259
3.36764e-258
2.75924e-257
2.31717e-256
1.99309e-255
1.75447e-254
1.57924e-253
1.64506e-252
1.67681e-251
1.66875e-250
1.61983e-249
1.53197e-248
1.41004e-247
1.26145e-246
1.09543e-245
9.22022e-245
7.51047e-244
5.9106e-243
4.48588e-242
3.27692e-241
2.29914e-240
1.54579e-239
9.93437e-239
6.08639e-238
3.54426e-237
1.95542e-236
1.01857e-235
4.99073e-235
2.29101e-234
9.81059e-234
3.90056e-233
1.43264e-232
4.83507e-232
1.49097e-231
4.17592e-231
1.0557e-230
2.39332e-230
4.83243e-230
8.62897e-230
1.3527e-229
1.84782e-229
2.18356e-229
2.2175e-229
1.9262e-229
1.43024e-229
9.15691e-230
5.24708e-230
2.73949e-230
1.31629e-230
5.88352e-231
2.47133e-231
9.84536e-232
3.75056e-232
1.37613e-232
4.89413e-233
1.69652e-233
5.76004e-234
1.92371e-234
6.34366e-235
2.0724e-235
6.72694e-236
2.17525e-236
7.02353e-237
2.26909e-237
7.34844e-238
2.38946e-238
7.81263e-239
2.57192e-239
8.53462e-240
2.8578e-240
9.66496e-241
3.30396e-241
1.14226e-241
3.99043e-242
1.39319e-242
4.42027e-243
1.48144e-274
6.24049e-274
2.59421e-273
1.10729e-272
4.86362e-272
2.19887e-271
1.02336e-270
4.90339e-270
2.41898e-269
1.22875e-268
6.42701e-268
3.46158e-267
1.9198e-266
1.09632e-265
6.446e-265
3.90189e-264
2.43128e-263
1.5592e-262
1.02894e-261
6.98557e-261
4.87769e-260
3.5018e-259
2.58388e-258
1.95873e-257
1.52472e-256
1.21809e-255
9.98126e-255
8.38348e-254
7.21264e-253
6.35105e-252
5.719e-251
5.96033e-250
6.07914e-249
6.05446e-248
5.88217e-247
5.56885e-246
5.13166e-245
4.597e-244
3.99793e-243
3.37064e-242
2.75064e-241
2.16905e-240
1.64981e-239
1.20804e-238
8.49744e-238
5.72875e-237
3.69246e-236
2.26922e-235
1.32574e-234
7.33935e-234
3.83672e-233
1.88689e-232
8.69521e-232
3.73823e-231
1.49232e-230
5.50405e-230
1.86552e-229
5.7778e-229
1.62551e-228
4.1283e-228
9.40324e-228
1.90789e-227
3.42391e-227
5.39515e-227
7.40896e-227
8.80234e-227
8.98756e-227
7.84871e-227
5.85802e-227
3.76872e-227
2.16791e-227
1.13609e-227
5.47827e-228
2.45711e-228
1.03556e-228
4.13919e-229
1.58201e-229
5.82371e-230
2.07801e-230
7.22715e-231
2.46195e-231
8.24983e-232
2.72961e-232
8.94731e-233
2.91405e-233
9.45463e-234
3.06295e-234
9.92837e-235
3.22591e-235
1.05238e-235
3.45198e-236
1.14e-236
3.79482e-237
1.2746e-237
4.32363e-238
1.4824e-238
5.13985e-239
1.80064e-239
6.30343e-240
2.00434e-240
5.39159e-272
2.27021e-271
9.43329e-271
4.02466e-270
1.76701e-269
7.98528e-269
3.71479e-268
1.77915e-267
8.77331e-267
4.45463e-266
2.32903e-265
1.25389e-264
6.95132e-264
3.96806e-263
2.33221e-262
1.41122e-261
8.7903e-261
5.63546e-260
3.71781e-259
2.52335e-258
1.7615e-257
1.26434e-256
9.32761e-256
7.06991e-255
5.50287e-254
4.39605e-253
3.60226e-252
3.02585e-251
2.60364e-250
2.29313e-249
2.06554e-248
2.15357e-247
2.19764e-246
2.19012e-245
2.12943e-244
2.01782e-243
1.86134e-242
1.66938e-241
1.45377e-240
1.22749e-239
1.00336e-238
7.92644e-238
6.04093e-237
4.43284e-236
3.12533e-235
2.11226e-234
1.36507e-233
8.41279e-233
4.92962e-232
2.73762e-231
1.43582e-230
7.08556e-230
3.27681e-229
1.41397e-228
5.66622e-228
2.09811e-227
7.1404e-227
2.22089e-226
6.27574e-226
1.60117e-225
3.66455e-225
7.47246e-225
1.34801e-224
2.13564e-224
2.94928e-224
3.52412e-224
3.61925e-224
3.17898e-224
2.38614e-224
1.54336e-224
8.9172e-225
4.69303e-225
2.27232e-225
1.02324e-225
4.32926e-226
1.73704e-226
6.66414e-227
2.46247e-227
8.81965e-228
3.07897e-228
1.05281e-228
3.54122e-229
1.1761e-229
3.8696e-230
1.26502e-230
4.11968e-231
1.33958e-231
4.35814e-232
1.4212e-232
4.65304e-233
1.53171e-233
5.07613e-234
1.69556e-234
5.71429e-235
1.94482e-235
6.68974e-236
2.32691e-236
8.1773e-237
2.87104e-237
9.15179e-238
1.96932e-269
8.28774e-269
3.44193e-268
1.46769e-267
6.44039e-267
2.90892e-266
1.35252e-265
6.47429e-265
3.19089e-264
1.61931e-263
8.46187e-263
4.55332e-262
2.52298e-261
1.43949e-260
8.4564e-260
5.11454e-259
3.18433e-258
2.04058e-257
1.34565e-256
9.12959e-256
6.37087e-255
4.57129e-254
3.37144e-253
2.55474e-252
1.98806e-251
1.58793e-250
1.30105e-249
1.09281e-248
9.40332e-248
8.28253e-247
7.46171e-246
7.78169e-245
7.9438e-244
7.9204e-243
7.7055e-242
7.30687e-241
6.74595e-240
6.05621e-239
5.27992e-238
4.46376e-237
3.65386e-236
2.89104e-235
2.20712e-234
1.62263e-233
1.14635e-232
7.76463e-232
5.02976e-231
3.10755e-230
1.82576e-229
1.01676e-228
5.34845e-228
2.64757e-227
1.22838e-226
5.31854e-226
2.13888e-225
7.94933e-225
2.71589e-224
8.48184e-224
2.40712e-223
6.1694e-223
1.41876e-222
2.90774e-222
5.27364e-222
8.40203e-222
1.16712e-221
1.40307e-221
1.44986e-221
1.28139e-221
9.67692e-222
6.29563e-222
3.65551e-222
1.93312e-222
9.4035e-223
4.25355e-223
1.80759e-223
7.28409e-224
2.80655e-224
1.04148e-224
3.74604e-225
1.3133e-225
4.50966e-226
1.52326e-226
5.08026e-227
1.67851e-227
5.51011e-228
1.80186e-228
5.88307e-229
1.92176e-229
6.2921e-230
2.06823e-230
6.83495e-231
2.27387e-231
7.62416e-232
2.57905e-232
8.8098e-233
3.04127e-233
1.06159e-233
3.74355e-234
1.31866e-234
4.21511e-235
7.21441e-267
3.0342e-266
1.25931e-265
5.36643e-265
2.35332e-264
1.06223e-263
4.93572e-263
2.36112e-262
1.16294e-261
5.89793e-261
3.08006e-260
1.65633e-259
9.17193e-259
5.22983e-258
3.07045e-257
1.85595e-256
1.15486e-255
7.39642e-255
4.87489e-254
3.30569e-253
2.30567e-252
1.65363e-251
1.21907e-250
9.23407e-250
7.18331e-249
5.73581e-248
4.69839e-247
3.94559e-246
3.39461e-245
2.98979e-244
2.6935e-243
2.80927e-242
2.86836e-241
2.86077e-240
2.7843e-239
2.64165e-238
2.44044e-237
2.1926e-236
1.91328e-235
1.6192e-234
1.32697e-233
1.05131e-232
8.03778e-232
5.91868e-231
4.18871e-230
2.84253e-229
1.84509e-228
1.14245e-227
6.72783e-227
3.75602e-226
1.98098e-225
9.83356e-225
4.57587e-224
1.98738e-223
8.01862e-223
2.99058e-222
1.02552e-221
3.21536e-221
9.16351e-221
2.35917e-220
5.45149e-220
1.12303e-219
2.04796e-219
3.28179e-219
4.58653e-219
5.54872e-219
5.77103e-219
5.13397e-219
3.90238e-219
2.5548e-219
1.49154e-219
7.92957e-220
3.87721e-220
1.76263e-220
7.52737e-221
3.04806e-221
1.18005e-221
4.3999e-222
1.59008e-222
5.60087e-223
1.93229e-223
6.55734e-224
2.19714e-224
7.29291e-225
2.40507e-225
7.90065e-226
2.59122e-226
8.50231e-227
2.79608e-227
9.23088e-228
3.0637e-228
1.02356e-228
3.44629e-229
1.17058e-229
4.01475e-230
1.39146e-230
4.876e-231
1.72601e-231
6.10193e-232
1.95665e-232
2.64751e-264
1.11263e-263
4.61436e-263
1.96488e-262
8.60991e-262
3.88334e-261
1.80304e-260
8.6187e-260
4.24181e-259
2.14962e-258
1.12174e-257
6.02775e-257
3.33539e-256
1.90044e-255
1.11495e-254
6.73454e-254
4.18761e-253
2.68017e-252
1.7653e-251
1.19629e-250
8.33881e-250
5.97708e-249
4.40391e-248
3.33407e-247
2.59237e-246
2.06907e-245
1.69417e-244
1.42223e-243
1.22328e-242
1.07715e-241
9.70254e-241
1.01189e-239
1.0332e-238
1.03059e-237
1.00327e-236
9.52184e-236
8.80047e-235
7.91118e-234
6.90801e-233
5.85092e-232
4.79939e-231
3.80643e-230
2.91366e-229
2.14834e-228
1.52263e-227
1.03494e-226
6.72949e-226
4.17463e-225
2.4634e-224
1.37827e-223
7.28612e-223
3.62583e-222
1.6917e-221
7.36827e-221
2.98198e-220
1.11578e-219
3.83967e-219
1.20846e-218
3.45818e-218
8.94287e-218
2.07645e-217
4.29982e-217
7.88492e-217
1.27105e-216
1.78756e-216
2.17678e-216
2.27935e-216
2.04171e-216
1.56263e-216
1.02989e-216
6.04843e-217
3.2343e-217
1.59041e-217
7.27032e-218
3.12174e-218
1.27088e-218
4.94641e-219
1.85405e-219
6.73558e-220
2.38492e-220
8.27071e-221
2.82124e-221
9.5016e-222
3.16995e-222
1.05069e-222
3.46887e-223
1.14337e-223
3.77009e-224
1.24587e-224
4.13287e-225
1.37819e-225
4.62602e-226
1.56474e-226
5.33897e-227
1.8393e-227
6.40279e-228
2.2534e-228
8.01037e-229
2.84337e-229
9.15014e-230
9.72044e-262
4.08145e-261
1.69121e-260
7.19512e-260
3.15005e-259
1.41952e-258
6.585e-258
3.14491e-257
1.54645e-256
7.83002e-256
4.08238e-255
2.19178e-254
1.21175e-253
6.89837e-253
4.04368e-252
2.44044e-251
1.51624e-250
9.69648e-250
6.38155e-249
4.32126e-248
3.00991e-247
2.15589e-246
1.58736e-245
1.20095e-244
9.33206e-244
7.44394e-243
6.09189e-242
5.11156e-241
4.39458e-240
3.86818e-239
3.48319e-238
3.63181e-237
3.70776e-236
3.69821e-235
3.60031e-234
3.41746e-233
3.15931e-232
2.84105e-231
2.48192e-230
2.10333e-229
1.7265e-228
1.37041e-227
1.04997e-226
7.74996e-226
5.49926e-225
3.7428e-224
2.43722e-223
1.51433e-222
8.95137e-222
5.01768e-221
2.65799e-220
1.32563e-219
6.19981e-219
2.70735e-218
1.09877e-217
4.12394e-217
1.42391e-216
4.4979e-216
1.29232e-215
3.35664e-215
7.83124e-215
1.63013e-214
3.00617e-214
4.87531e-214
6.90058e-214
8.45992e-214
8.92071e-214
8.04804e-214
6.20409e-214
4.11802e-214
2.43395e-214
1.30971e-214
6.47996e-215
2.98015e-215
1.28725e-215
5.27136e-216
2.06365e-216
7.77993e-217
2.84264e-217
1.01228e-217
3.53049e-218
1.2111e-218
4.10178e-219
1.37608e-219
4.58631e-220
1.52248e-220
5.04546e-221
1.67261e-221
5.55669e-222
1.85296e-222
6.2111e-223
2.09545e-223
7.1235e-224
2.44264e-224
8.45615e-225
2.95786e-225
1.04593e-225
3.73533e-226
1.33181e-226
4.30297e-227
3.56189e-259
1.49403e-258
6.18443e-258
2.62843e-257
1.14955e-256
5.17488e-256
2.39809e-255
1.14411e-254
5.62009e-254
2.84264e-253
1.48055e-252
7.94067e-252
4.38556e-251
2.49411e-250
1.46052e-249
8.80562e-249
5.46547e-248
3.49178e-247
2.29582e-246
1.55313e-245
1.0808e-244
7.73433e-244
5.68966e-243
4.30094e-242
3.33929e-241
2.66154e-240
2.17646e-239
1.8249e-238
1.56787e-237
1.3792e-236
1.24122e-235
1.29352e-234
1.32e-233
1.31613e-232
1.28093e-231
1.21563e-230
1.12368e-229
1.01045e-228
8.82778e-228
7.48232e-227
6.14334e-226
4.87794e-225
3.73899e-224
2.7613e-223
1.96065e-222
1.33542e-221
8.70335e-221
5.41291e-220
3.20308e-219
1.79764e-218
9.5352e-218
4.76255e-217
2.23101e-216
9.76001e-216
3.96899e-215
1.49297e-214
5.16768e-214
1.63691e-213
4.71766e-213
1.22958e-212
2.87965e-212
6.01953e-212
1.11523e-211
1.81781e-211
2.58709e-211
3.19045e-211
3.38551e-211
3.07483e-211
2.38706e-211
1.59593e-211
9.49755e-212
5.14625e-212
2.564e-212
1.18744e-212
5.16482e-213
2.12974e-213
8.3953e-214
3.18685e-214
1.1724e-214
4.20342e-215
1.47592e-215
5.09698e-216
1.73773e-216
5.86816e-217
1.96852e-217
6.57679e-218
2.19339e-218
7.3169e-219
2.44585e-219
8.20583e-220
2.76712e-220
9.39079e-221
3.21101e-221
1.10737e-221
3.85525e-222
1.35602e-222
4.82122e-223
1.73102e-223
6.20357e-224
2.01359e-224
1.13907e-256
4.76416e-256
1.96601e-255
8.32906e-255
3.63079e-254
1.62894e-253
7.52248e-253
3.5761e-252
1.75019e-251
8.81898e-251
4.57536e-250
2.44408e-249
1.34427e-248
7.61248e-248
4.43822e-247
2.66377e-246
1.64565e-245
1.04633e-244
6.8455e-244
4.60737e-243
3.18931e-242
2.26989e-241
1.66044e-240
1.24788e-239
9.63049e-239
7.62822e-238
6.19786e-237
5.16213e-236
4.40443e-235
3.84667e-234
3.43608e-233
3.55249e-232
3.5955e-231
3.55449e-230
3.42891e-229
3.22429e-228
2.95197e-227
2.62815e-226
2.2723e-225
1.90514e-224
1.54653e-223
1.21344e-222
9.18574e-222
6.69546e-221
4.68902e-220
3.14775e-219
2.02038e-218
1.23645e-217
7.19317e-217
3.96503e-216
2.06358e-215
1.0102e-214
4.63287e-214
1.9818e-213
7.87078e-213
2.88784e-212
9.73787e-212
3.00135e-211
8.40735e-211
2.12777e-210
4.83565e-210
9.8066e-210
1.76324e-209
2.7925e-209
3.87009e-209
4.66404e-209
4.86062e-209
4.36317e-209
3.37236e-209
2.26168e-209
1.35875e-209
7.47011e-210
3.79159e-210
1.79449e-210
7.99528e-211
3.38296e-211
1.36999e-211
5.34674e-212
2.0232e-212
7.46238e-213
2.69544e-213
9.57373e-214
3.35586e-214
1.16463e-214
4.01294e-215
1.37634e-215
4.70922e-216
1.61065e-216
5.51641e-217
1.895e-217
6.53851e-218
2.26895e-218
7.92765e-219
2.79183e-219
9.91884e-220
3.55803e-220
1.28931e-220
4.71445e-221
1.71851e-221
5.65646e-222
2.18156e-254
9.07094e-254
3.71916e-253
1.56513e-252
6.77592e-252
3.01858e-251
1.38389e-250
6.52996e-250
3.17146e-249
1.58552e-248
8.1596e-248
4.3227e-247
2.35736e-246
1.32333e-245
7.64635e-245
4.5472e-244
2.78281e-243
1.7523e-242
1.13509e-241
7.56231e-241
5.1804e-240
3.64772e-239
2.6392e-238
1.96126e-237
1.49625e-236
1.17123e-235
9.40149e-235
7.73367e-234
6.51495e-233
5.61605e-232
4.94984e-231
5.04584e-230
5.0341e-229
4.90427e-228
4.66078e-227
4.31627e-226
3.89067e-225
3.40927e-224
2.90025e-223
2.39174e-222
1.90903e-221
1.47231e-220
1.09513e-219
7.84073e-219
5.39173e-218
3.55275e-217
2.23749e-216
1.34313e-215
7.6618e-215
4.13982e-214
2.11128e-213
1.0125e-212
4.54762e-212
1.90476e-211
7.4056e-211
2.65961e-210
8.77759e-210
2.64783e-209
7.25984e-209
1.79872e-208
4.00317e-208
7.95421e-208
1.40236e-207
2.1803e-207
2.97143e-207
3.53012e-207
3.63874e-207
3.24447e-207
2.50333e-207
1.68462e-207
1.01998e-207
5.67107e-208
2.91902e-208
1.40395e-208
6.36695e-209
2.74528e-209
1.13387e-209
4.51594e-210
1.74455e-210
6.57081e-211
2.42399e-211
8.79358e-212
3.14825e-212
1.11585e-212
3.9264e-213
1.37502e-213
4.80299e-214
1.67672e-214
5.86035e-215
2.05392e-215
7.22866e-216
2.55798e-216
9.11161e-217
3.27039e-217
1.18388e-217
4.32581e-218
1.59619e-218
5.94059e-219
2.20183e-219
7.34869e-220
2.6468e-252
1.09327e-251
4.44998e-251
1.85864e-250
7.98469e-250
3.52899e-249
1.60481e-248
7.50955e-248
3.61622e-247
1.79213e-246
9.14056e-246
4.79811e-245
2.59213e-244
1.44117e-243
8.24554e-243
4.85429e-242
2.94022e-241
1.83195e-240
1.17392e-239
7.73502e-239
5.23912e-238
3.64664e-237
2.6074e-236
1.91433e-235
1.4425e-234
1.11498e-233
8.83499e-233
7.17224e-232
5.96089e-231
5.06793e-230
4.40409e-229
4.42341e-228
4.3472e-227
4.17074e-226
3.90243e-225
3.55719e-224
3.15521e-223
2.71991e-222
2.27562e-221
1.84514e-220
1.44765e-219
1.09714e-218
8.01738e-218
5.63776e-217
3.80673e-216
2.46238e-215
1.52202e-214
8.96504e-214
5.01715e-213
2.6591e-212
1.33007e-211
6.25567e-211
2.75555e-210
1.13197e-209
4.31699e-209
1.52112e-208
4.92706e-208
1.45934e-207
3.9308e-207
9.57402e-207
2.09632e-206
4.1019e-206
7.12965e-206
1.09429e-205
1.47471e-205
1.73603e-205
1.77773e-205
1.5797e-205
1.21908e-205
8.23586e-206
5.02162e-206
2.81856e-206
1.4675e-206
7.15074e-207
3.2894e-207
1.44002e-207
6.04312e-208
2.44685e-208
9.61383e-209
3.68411e-209
1.38312e-209
5.10734e-210
1.86148e-210
6.71728e-211
2.40656e-211
8.58083e-212
3.05166e-212
1.08458e-212
3.85889e-213
1.3766e-213
4.93065e-214
1.77539e-214
6.43377e-215
2.34886e-215
8.64693e-216
3.21231e-216
1.2048e-216
4.55591e-217
1.71423e-217
5.79451e-218
2.28506e-250
9.3737e-250
3.78664e-249
1.56928e-248
6.68787e-248
2.93171e-247
1.32204e-246
6.13342e-246
2.92766e-245
1.43788e-244
7.2664e-244
3.77849e-243
2.02168e-242
1.11297e-241
6.30378e-241
3.67303e-240
2.20139e-239
1.3569e-238
8.59983e-238
5.60304e-237
3.7517e-236
2.58086e-235
1.82336e-234
1.32241e-233
9.84094e-233
7.51007e-232
5.87389e-231
4.70539e-230
3.8579e-229
3.23479e-228
2.77155e-227
2.74268e-226
2.65518e-225
2.50879e-224
2.31125e-223
2.07385e-222
1.81031e-221
1.53542e-220
1.26361e-219
1.00759e-218
7.77239e-218
5.79014e-217
4.15808e-216
2.87281e-215
1.90546e-214
1.21051e-213
7.34721e-213
4.24892e-212
2.33431e-211
1.21444e-210
5.96279e-210
2.75292e-209
1.19047e-208
4.80191e-208
1.79869e-207
6.22733e-207
1.98294e-206
5.77747e-206
1.532e-205
3.67676e-205
7.94105e-205
1.53452e-204
2.63758e-204
4.00933e-204
5.36025e-204
6.27207e-204
6.3983e-204
5.67842e-204
4.38894e-204
2.97817e-204
1.82813e-204
1.03494e-204
5.44326e-205
2.68268e-205
1.24942e-205
5.54228e-206
2.35832e-206
9.68751e-207
3.86337e-207
1.50325e-207
5.73221e-208
2.15045e-208
7.9643e-209
2.92079e-209
1.06356e-209
3.85453e-210
1.39335e-210
5.03335e-211
1.82011e-211
6.59852e-212
2.40156e-212
8.78565e-213
3.23418e-213
1.19922e-213
4.4829e-214
1.69074e-214
6.43627e-215
2.46944e-215
9.42031e-216
3.22206e-216
1.53268e-248
6.24272e-248
2.50224e-247
1.02869e-246
4.34801e-246
1.88999e-245
8.44953e-245
3.88552e-244
1.83797e-243
8.94373e-243
4.47718e-242
2.30567e-241
1.22149e-240
6.6568e-240
3.73156e-239
2.15141e-238
1.27557e-237
7.77618e-237
4.87325e-236
3.13877e-235
2.07715e-234
1.41189e-233
9.85375e-233
7.05797e-232
5.1859e-231
3.90656e-230
3.01526e-229
2.38302e-228
1.92707e-227
1.59326e-226
1.34567e-225
1.31181e-224
1.25081e-223
1.16377e-222
1.05551e-221
9.322e-221
8.00765e-220
6.68202e-219
5.40918e-218
4.24176e-217
3.21715e-216
2.35601e-215
1.66291e-214
1.12901e-213
7.35759e-213
4.59185e-212
2.73763e-211
1.555e-210
8.39046e-210
4.28728e-209
2.06755e-208
9.37683e-208
3.98403e-207
1.57939e-206
5.81662e-206
1.98098e-205
6.20912e-205
1.78214e-204
4.6596e-204
1.10385e-203
2.35617e-203
4.5059e-203
7.67619e-203
1.15837e-202
1.54011e-202
1.79548e-202
1.82859e-202
1.62369e-202
1.25848e-202
8.58247e-203
5.30398e-203
3.02729e-203
1.60715e-203
8.00301e-204
3.76916e-204
1.69194e-204
7.2899e-205
3.03374e-205
1.22624e-205
4.83779e-206
1.87105e-206
7.1212e-207
2.67624e-207
9.96095e-208
3.68158e-208
1.3544e-208
4.96998e-209
1.82249e-209
6.68964e-210
2.4616e-210
9.09267e-211
3.37556e-211
1.26082e-211
4.74283e-212
1.79836e-212
6.87852e-213
2.65496e-213
1.03251e-213
3.98981e-214
1.38003e-214
8.6674e-247
3.50296e-246
1.39215e-245
5.67309e-245
2.37637e-244
1.02347e-243
4.53264e-243
2.06431e-242
9.66883e-242
4.65767e-241
2.30765e-240
1.17592e-239
6.16295e-239
3.32184e-238
1.84127e-237
1.04945e-236
6.1497e-236
3.70443e-235
2.29338e-234
1.45887e-233
9.53275e-233
6.39649e-232
4.40579e-231
3.11371e-230
2.25679e-229
1.67657e-228
1.27585e-227
9.93894e-227
7.92018e-226
6.45117e-225
5.36648e-224
5.14908e-223
4.83159e-222
4.4231e-221
3.94643e-220
3.42813e-219
2.89591e-218
2.37601e-217
1.89087e-216
1.45748e-215
1.08642e-214
7.81832e-214
5.42213e-213
3.61676e-212
2.31552e-211
1.41962e-210
8.31421e-210
4.63922e-209
2.45923e-208
1.23464e-207
5.85113e-207
2.60837e-206
1.0897e-205
4.24943e-205
1.54028e-204
5.16635e-204
1.59606e-203
4.51943e-203
1.16704e-202
2.73387e-202
5.77845e-202
1.09593e-201
1.85461e-201
2.78493e-201
3.69113e-201
4.29763e-201
4.37933e-201
3.89801e-201
3.03404e-201
2.08133e-201
1.29538e-201
7.45306e-202
3.99195e-202
2.00699e-202
9.5493e-203
4.333e-203
1.88806e-203
7.94979e-204
3.25241e-204
1.29922e-204
5.08928e-205
1.96234e-205
7.47287e-206
2.81891e-206
1.05606e-206
3.93842e-207
1.46512e-207
5.44682e-208
2.02695e-208
7.56155e-209
2.83152e-209
1.06558e-209
4.03433e-210
1.53814e-210
5.91065e-211
2.29089e-211
8.95902e-212
3.52936e-212
1.38078e-212
4.82863e-213
4.7399e-245
1.89519e-244
7.44306e-244
2.99623e-243
1.23949e-242
5.27066e-242
2.30401e-241
1.03547e-240
4.78471e-240
2.27329e-239
1.11058e-238
5.57879e-238
2.88152e-237
1.5303e-236
8.35553e-236
4.69002e-235
2.70596e-234
1.60453e-233
9.77609e-233
6.11893e-232
3.93331e-231
2.59583e-230
1.7582e-229
1.22167e-228
8.70393e-228
6.35506e-227
4.75225e-226
3.6372e-225
2.84721e-224
2.27779e-223
1.86077e-222
1.75219e-221
1.61359e-220
1.44967e-219
1.26933e-218
1.08207e-217
8.97035e-217
7.22274e-216
5.641e-215
4.26727e-214
3.12187e-213
2.2051e-212
1.50111e-211
9.8295e-211
6.17844e-210
3.71946e-209
2.13934e-208
1.17259e-207
6.10731e-207
3.01353e-206
1.40416e-205
6.15714e-205
2.53151e-204
9.72153e-204
3.47262e-203
1.14885e-202
3.50421e-202
9.80797e-202
2.50668e-201
5.82016e-201
1.22124e-200
2.30329e-200
3.88312e-200
5.81982e-200
7.71312e-200
8.99611e-200
9.19854e-200
8.22794e-200
6.44411e-200
4.45263e-200
2.79267e-200
1.61994e-200
8.75106e-201
4.439e-201
2.13166e-201
9.76512e-202
4.29717e-202
1.8278e-202
7.55628e-203
3.05094e-203
1.20827e-203
4.71132e-204
1.81471e-204
6.92521e-205
2.62511e-205
9.90711e-206
3.7301e-206
1.40364e-206
5.28761e-207
1.99693e-207
7.57064e-208
2.88457e-208
1.10578e-208
4.26888e-209
1.66107e-209
6.51932e-210
2.58172e-210
1.02983e-210
4.07819e-211
1.44191e-211
3.25098e-243
1.27557e-242
4.90502e-242
1.93204e-241
7.81685e-241
3.24944e-240
1.38802e-239
6.09305e-239
2.74889e-238
1.27465e-237
6.07511e-237
2.97617e-236
1.49867e-235
7.75692e-235
4.12659e-234
2.25623e-233
1.26772e-232
7.31914e-232
4.3413e-231
2.64496e-230
1.65484e-229
1.06293e-228
7.00688e-228
4.73858e-227
3.28609e-226
2.33558e-225
1.70037e-224
1.26721e-223
9.6611e-223
7.52916e-222
5.99329e-221
5.49654e-220
4.9326e-219
4.32055e-218
3.69023e-217
3.07018e-216
2.48527e-215
1.95502e-214
1.4925e-213
1.10419e-212
7.9044e-212
5.46593e-211
3.6446e-210
2.33877e-209
1.44136e-208
8.51204e-208
4.80532e-207
2.5865e-206
1.32371e-205
6.42188e-205
2.94402e-204
1.27106e-203
5.1498e-203
1.9506e-202
6.87967e-202
2.24989e-201
6.79265e-201
1.88457e-200
4.78205e-200
1.10431e-199
2.30894e-199
4.34777e-199
7.33305e-199
1.10171e-198
1.46647e-198
1.72078e-198
1.77266e-198
1.5991e-198
1.26381e-198
8.81329e-199
5.5764e-199
3.26243e-199
1.7771e-199
9.08806e-200
4.39933e-200
2.03144e-200
9.01089e-201
3.86362e-201
1.61026e-201
6.55542e-202
2.61807e-202
1.02964e-202
4.00092e-203
1.54059e-203
5.89377e-204
2.24533e-204
8.53556e-205
3.2437e-205
1.23427e-205
4.70951e-206
1.80427e-206
6.94867e-207
2.69302e-207
1.05132e-207
4.13772e-208
1.64299e-208
6.58422e-209
2.65828e-209
1.06537e-209
3.80884e-210
3.32439e-241
1.27157e-240
4.75048e-240
1.8158e-239
7.12283e-239
2.86823e-238
1.18577e-237
5.03331e-237
2.19384e-236
9.81928e-236
4.51339e-235
2.13054e-234
1.03288e-233
5.14268e-233
2.62969e-232
1.38097e-231
7.44748e-231
4.12433e-230
2.34519e-229
1.36909e-228
8.20447e-228
5.0461e-227
3.18457e-226
2.06166e-225
1.36871e-224
9.31472e-224
6.49519e-223
4.63832e-222
3.39036e-221
2.53502e-220
1.93768e-219
1.70597e-218
1.47186e-217
1.24128e-216
1.02231e-215
8.21416e-215
6.4318e-214
4.90176e-213
3.63108e-212
2.61062e-211
1.8188e-210
1.22576e-209
7.97633e-209
5.00159e-208
3.01572e-207
1.74444e-206
9.65694e-206
5.10275e-205
2.56646e-204
1.22501e-203
5.53161e-203
2.35522e-202
9.4225e-202
3.52902e-201
1.23257e-200
3.99824e-200
1.19944e-199
3.31297e-199
8.38631e-199
1.93615e-198
4.05627e-198
7.6707e-198
1.30219e-197
1.97327e-197
2.65409e-197
3.15149e-197
3.28822e-197
3.00524e-197
2.40547e-197
1.69736e-197
1.08497e-197
6.40566e-198
3.51782e-198
1.81218e-198
8.83036e-199
4.10214e-199
1.82977e-199
7.88692e-200
3.30373e-200
1.35163e-200
5.42478e-201
2.14417e-201
8.37466e-202
3.24199e-202
1.24722e-202
4.77943e-203
1.82817e-203
6.99305e-204
2.67943e-204
1.02988e-204
3.97625e-205
1.54393e-205
6.03564e-206
2.37786e-206
9.44938e-207
3.79053e-207
1.53541e-207
6.26896e-208
2.54142e-208
9.18663e-209
4.25609e-239
1.58846e-238
5.77052e-238
2.14206e-237
8.15176e-237
3.18127e-236
1.27324e-235
5.22645e-235
2.20041e-234
9.5019e-234
4.20858e-233
1.91196e-232
8.90905e-232
4.25781e-231
2.08703e-230
1.04914e-229
5.40858e-229
2.85919e-228
1.54981e-227
8.61295e-227
4.90695e-226
2.86553e-225
1.71502e-224
1.05179e-223
6.60853e-223
4.25297e-222
2.80271e-221
1.89077e-220
1.30543e-219
9.22119e-219
6.66195e-218
5.53806e-217
4.51945e-216
3.61204e-215
2.82547e-214
2.16163e-213
1.61594e-212
1.17909e-211
8.38667e-211
5.80653e-210
3.90671e-209
2.54966e-208
1.61088e-207
9.83155e-207
5.78313e-206
3.27059e-205
1.77374e-204
9.19964e-204
4.55013e-203
2.13963e-202
9.53565e-202
4.0145e-201
1.59109e-200
5.91531e-200
2.05517e-199
6.64645e-199
1.99256e-198
5.51354e-198
1.40176e-197
3.25878e-197
6.89223e-197
1.31898e-196
2.27095e-196
3.4967e-196
4.78551e-196
5.78645e-196
6.14851e-196
5.71871e-196
4.65176e-196
3.32911e-196
2.15263e-196
1.28333e-196
7.1048e-197
3.68425e-197
1.80484e-197
8.41985e-198
3.76807e-198
1.62827e-198
6.83377e-199
2.79999e-199
1.12511e-199
4.45157e-200
1.7404e-200
6.74459e-201
2.59794e-201
9.97069e-202
3.82106e-202
1.465e-202
5.62904e-203
2.17089e-203
8.41493e-204
3.28258e-204
1.29011e-204
5.11366e-205
2.04615e-205
8.27163e-206
3.37953e-206
1.39297e-206
5.70483e-207
2.08357e-207
5.56836e-237
2.03089e-236
7.18635e-236
2.59539e-235
9.60082e-235
3.63872e-234
1.41301e-233
5.62216e-233
2.29206e-232
9.57424e-232
4.09757e-231
1.79669e-230
8.07078e-230
3.71384e-229
1.75048e-228
8.45028e-228
4.17753e-227
2.11469e-226
1.09596e-225
5.81429e-225
3.15709e-224
1.75425e-223
9.97308e-223
5.7999e-222
3.44967e-221
2.09802e-220
1.30443e-219
8.28951e-219
5.38358e-218
3.57283e-217
2.42297e-216
1.8855e-215
1.44119e-214
1.0798e-213
7.93041e-213
5.70843e-212
4.02593e-211
2.78031e-210
1.87855e-209
1.24035e-208
7.99111e-208
5.0146e-207
3.05866e-206
1.80921e-205
1.03519e-204
5.71425e-204
3.03452e-203
1.54576e-202
7.52998e-202
3.49697e-201
1.54327e-200
6.45074e-200
2.54519e-199
9.44574e-199
3.28512e-198
1.06655e-197
3.21918e-197
8.99426e-197
2.31544e-196
5.46507e-196
1.17634e-195
2.29586e-195
4.03785e-195
6.35788e-195
8.90214e-195
1.10101e-194
1.19549e-194
1.13439e-194
9.39339e-195
6.82575e-195
4.46761e-195
2.69039e-195
1.50165e-195
7.83686e-196
3.8576e-196
1.80569e-196
8.09778e-197
3.50264e-197
1.47005e-197
6.01849e-198
2.41492e-198
9.53654e-199
3.72007e-199
1.43814e-199
5.52581e-200
2.11569e-200
8.09025e-201
3.09605e-201
1.18791e-201
4.57718e-202
1.77376e-202
6.92241e-203
2.72406e-203
1.08208e-203
4.34336e-204
1.76319e-204
7.24228e-205
3.00461e-205
1.23999e-205
4.5683e-206
6.87501e-235
2.45049e-234
8.4465e-234
2.96815e-233
1.06745e-232
3.92995e-232
1.48121e-231
5.71526e-231
2.25753e-230
9.12836e-230
3.77822e-229
1.60061e-228
6.93976e-228
3.07907e-227
1.39783e-226
6.49216e-226
3.0843e-225
1.4986e-224
7.44548e-224
3.78179e-223
1.96339e-222
1.04165e-221
5.64602e-221
3.12577e-220
1.76706e-219
1.01978e-218
6.00622e-218
3.60935e-217
2.21266e-216
1.38367e-215
8.82705e-215
6.43697e-214
4.60753e-213
3.23123e-212
2.22135e-211
1.49781e-210
9.91027e-210
6.43596e-209
4.10226e-208
2.56523e-207
1.57231e-206
9.43312e-206
5.52931e-205
3.15929e-204
1.75493e-203
9.44971e-203
4.91722e-202
2.46471e-201
1.18611e-200
5.46196e-200
2.39867e-199
1.00118e-198
3.95788e-198
1.47658e-197
5.1791e-197
1.7011e-196
5.20998e-196
1.48114e-195
3.88933e-195
9.38318e-195
2.06781e-194
4.13655e-194
7.46136e-194
1.20495e-193
1.72942e-193
2.1901e-193
2.43091e-193
2.35302e-193
1.98284e-193
1.46256e-193
9.68921e-194
5.89436e-194
3.31753e-194
1.74293e-194
8.62307e-195
4.05096e-195
1.82079e-195
7.88372e-196
3.30848e-196
1.35305e-196
5.41862e-197
2.13412e-197
8.29775e-198
3.19586e-198
1.22296e-198
4.66231e-199
1.77502e-199
6.76329e-200
2.58409e-200
9.91779e-201
3.8298e-201
1.49013e-201
5.84985e-202
2.31992e-202
9.30477e-203
3.77811e-203
1.55394e-203
6.46372e-204
2.67856e-204
9.92871e-205
7.81738e-233
2.72157e-232
9.13142e-232
3.11993e-231
1.09005e-230
3.89569e-230
1.42417e-229
5.32561e-229
2.037e-228
7.96902e-228
3.18842e-227
1.30456e-226
5.45786e-226
2.33451e-225
1.02076e-224
4.56176e-224
2.0833e-223
9.72072e-223
4.63325e-222
2.25538e-221
1.12099e-220
5.68747e-220
2.94485e-219
1.55563e-218
8.38146e-218
4.60428e-217
2.57803e-216
1.47081e-215
8.54803e-215
5.0601e-214
3.05114e-213
2.09518e-212
1.41089e-211
9.29906e-211
6.00362e-210
3.80059e-209
2.36167e-208
1.44204e-207
8.65999e-207
5.11801e-206
2.977e-205
1.70346e-204
9.57714e-204
5.28033e-203
2.84776e-202
1.49776e-201
7.65612e-201
3.79002e-200
1.81025e-199
8.31161e-199
3.65485e-198
1.53347e-197
6.11605e-197
2.30975e-196
8.22607e-196
2.75092e-195
8.59845e-195
2.49954e-194
6.72163e-194
1.66245e-193
3.75815e-193
7.71338e-193
1.42712e-192
2.36244e-192
3.47203e-192
4.49575e-192
5.09312e-192
5.02146e-192
4.30083e-192
3.21741e-192
2.15667e-192
1.32537e-192
7.52422e-193
3.98142e-193