/*--------------------------------*- C++ -*----------------------------------*\
  =========                 |
  \\      /  F ield         | OpenFOAM: The Open Source CFD Toolbox
   \\    /   O peration     | Website:  https://openfoam.org
    \\  /    A nd           | Version:  9
     \\/     M anipulation  |
\*---------------------------------------------------------------------------*/
FoamFile
{
    format      ascii;
    class       volScalarField;
    location    "0.03";
    object      p;
}
// * * * * * * * * * * * * * * * * * * * * * * * * * * * * * * * * * * * * * //

dimensions      [1 -1 -2 0 0 0 0];

internalField   nonuniform List<scalar> 
20000
(
0.726624
0.726632
0.726638
0.726643
0.726647
0.726649
0.726651
0.726651
0.72665
0.726647
0.726642
0.726634
0.726623
0.726609
0.726592
0.726569
0.726542
0.726508
0.726468
0.72642
0.726363
0.726296
0.726218
0.726126
0.726019
0.725896
0.725753
0.725587
0.725397
0.725177
0.724904
0.724572
0.724208
0.723811
0.72338
0.722915
0.722413
0.721876
0.721303
0.720693
0.720049
0.719369
0.718657
0.717915
0.717145
0.716353
0.715543
0.714721
0.713898
0.713083
0.71229
0.711535
0.710833
0.710202
0.709665
0.709242
0.708955
0.708824
0.708864
0.709086
0.709495
0.710086
0.710849
0.711763
0.712805
0.713944
0.715149
0.716388
0.717633
0.718854
0.719922
0.720812
0.721608
0.722315
0.722939
0.723486
0.723963
0.724377
0.724735
0.725042
0.725306
0.72553
0.72572
0.725881
0.726016
0.726128
0.726221
0.726298
0.726361
0.726412
0.726453
0.726487
0.726513
0.726533
0.726549
0.726562
0.726572
0.72658
0.726588
0.726602
0.724667
0.724685
0.724702
0.724718
0.724733
0.724747
0.724761
0.724773
0.724785
0.724795
0.724804
0.724811
0.724816
0.724819
0.724819
0.724815
0.724808
0.724796
0.724778
0.724755
0.724724
0.724685
0.724636
0.724575
0.724502
0.724414
0.724309
0.724185
0.724038
0.723866
0.723648
0.723378
0.723078
0.722746
0.722382
0.721985
0.721555
0.721092
0.720595
0.720065
0.719503
0.718909
0.718286
0.717636
0.716962
0.716269
0.715561
0.714846
0.714132
0.713428
0.712745
0.712097
0.711498
0.710966
0.710517
0.710167
0.709936
0.709837
0.709882
0.710079
0.710432
0.710935
0.71158
0.712351
0.713227
0.714185
0.7152
0.716244
0.717293
0.718323
0.719222
0.719971
0.720642
0.721237
0.72176
0.722216
0.722612
0.722953
0.723245
0.723494
0.723705
0.723882
0.72403
0.724152
0.724253
0.724335
0.724402
0.724455
0.724497
0.72453
0.724555
0.724574
0.724588
0.724598
0.724606
0.724611
0.724616
0.72462
0.724625
0.72464
0.722701
0.722723
0.722745
0.722767
0.722789
0.722811
0.722833
0.722855
0.722876
0.722896
0.722915
0.722934
0.722951
0.722966
0.72298
0.722991
0.722998
0.723003
0.723003
0.722997
0.722986
0.722968
0.722941
0.722905
0.722858
0.722797
0.722721
0.722628
0.722515
0.722379
0.722203
0.72198
0.721727
0.721445
0.721132
0.720788
0.720412
0.720005
0.719566
0.719095
0.718595
0.718065
0.717508
0.716927
0.716324
0.715703
0.715071
0.714433
0.713798
0.713172
0.712567
0.711994
0.711467
0.711001
0.710611
0.710312
0.710118
0.710041
0.710091
0.710275
0.710593
0.711042
0.711613
0.712294
0.713065
0.713908
0.714799
0.715716
0.716636
0.717538
0.718322
0.718975
0.719558
0.720073
0.720523
0.720913
0.721249
0.721535
0.721777
0.72198
0.722149
0.722288
0.7224
0.722491
0.722563
0.722618
0.72266
0.72269
0.722711
0.722725
0.722732
0.722735
0.722733
0.72273
0.722724
0.722717
0.722709
0.722701
0.722694
0.72269
0.720741
0.720767
0.720795
0.720824
0.720853
0.720882
0.720912
0.720942
0.720973
0.721003
0.721033
0.721063
0.721091
0.721119
0.721146
0.721171
0.721194
0.721214
0.721232
0.721245
0.721253
0.721255
0.72125
0.721238
0.721215
0.721181
0.721134
0.721071
0.72099
0.720888
0.720752
0.720575
0.72037
0.720135
0.719872
0.719579
0.719255
0.718902
0.718519
0.718106
0.717664
0.717196
0.716702
0.716185
0.715648
0.715096
0.714533
0.713966
0.713402
0.712847
0.712311
0.711803
0.711338
0.710929
0.710589
0.710331
0.710166
0.710107
0.710159
0.710328
0.710616
0.711017
0.711526
0.712129
0.712811
0.713554
0.714338
0.715144
0.715951
0.71674
0.717423
0.717989
0.718492
0.718933
0.719315
0.719642
0.71992
0.720154
0.720347
0.720505
0.720632
0.720733
0.72081
0.720867
0.720908
0.720935
0.72095
0.720955
0.720953
0.720945
0.720931
0.720915
0.720895
0.720873
0.720851
0.720828
0.720804
0.720781
0.720758
0.720737
0.718782
0.718815
0.71885
0.718886
0.718923
0.718961
0.719
0.719039
0.71908
0.719121
0.719162
0.719204
0.719246
0.719287
0.719328
0.719369
0.719408
0.719446
0.719481
0.719514
0.719543
0.719567
0.719586
0.719598
0.719603
0.719597
0.71958
0.71955
0.719504
0.719439
0.719346
0.719218
0.719062
0.71888
0.718669
0.71843
0.718163
0.717867
0.717543
0.717191
0.716812
0.716408
0.71598
0.71553
0.715063
0.714582
0.714091
0.713596
0.713105
0.712623
0.712155
0.711713
0.71131
0.710957
0.710667
0.710448
0.710313
0.710268
0.710322
0.710476
0.710732
0.711086
0.711531
0.712057
0.712649
0.713293
0.71397
0.714663
0.715355
0.716028
0.716608
0.717084
0.717503
0.717867
0.718177
0.718438
0.718655
0.718832
0.718973
0.719083
0.719165
0.719223
0.719262
0.719283
0.719289
0.719284
0.71927
0.719247
0.719219
0.719185
0.719149
0.719109
0.719069
0.719027
0.718985
0.718943
0.718902
0.718861
0.718822
0.718783
0.716823
0.716863
0.716906
0.71695
0.716996
0.717043
0.717091
0.717141
0.717192
0.717244
0.717298
0.717352
0.717407
0.717463
0.71752
0.717576
0.717632
0.717688
0.717743
0.717796
0.717846
0.717894
0.717937
0.717976
0.718008
0.718032
0.718047
0.71805
0.71804
0.718014
0.717966
0.717888
0.717784
0.717655
0.717499
0.717316
0.717106
0.716869
0.716605
0.716315
0.716
0.715661
0.715299
0.714918
0.71452
0.71411
0.71369
0.713268
0.712848
0.712436
0.712037
0.711658
0.711314
0.711015
0.710771
0.71059
0.710481
0.71045
0.710503
0.710643
0.710869
0.711177
0.711561
0.712013
0.712519
0.713067
0.713641
0.714225
0.714804
0.715363
0.71584
0.716227
0.716562
0.716848
0.717085
0.71728
0.717434
0.717553
0.71764
0.717699
0.717734
0.717749
0.717746
0.717729
0.717699
0.71766
0.717614
0.717561
0.717504
0.717443
0.717381
0.717318
0.717254
0.71719
0.717127
0.717065
0.717004
0.716944
0.716887
0.716831
0.714865
0.714912
0.714963
0.715016
0.715071
0.715127
0.715185
0.715246
0.715308
0.715371
0.715437
0.715504
0.715573
0.715644
0.715715
0.715788
0.715861
0.715935
0.716009
0.716083
0.716156
0.716226
0.716295
0.716359
0.716419
0.716473
0.716519
0.716556
0.716582
0.716595
0.716592
0.716564
0.716512
0.716435
0.716334
0.716206
0.716053
0.715874
0.71567
0.715441
0.715188
0.714913
0.714616
0.714301
0.713971
0.713628
0.713277
0.712922
0.712571
0.712225
0.711888
0.711569
0.711279
0.711029
0.710826
0.710678
0.710592
0.710573
0.710625
0.710751
0.710948
0.711214
0.711544
0.711928
0.712356
0.712816
0.713294
0.713778
0.714253
0.714705
0.715084
0.715386
0.715641
0.715851
0.716019
0.716147
0.71624
0.716301
0.716334
0.716343
0.716331
0.716301
0.716256
0.716199
0.716132
0.716058
0.715977
0.715893
0.715806
0.715717
0.715627
0.715537
0.715449
0.715361
0.715275
0.715191
0.71511
0.71503
0.714953
0.714878
0.712906
0.712962
0.713022
0.713083
0.713147
0.713213
0.713282
0.713353
0.713426
0.713502
0.71358
0.713661
0.713743
0.713828
0.713916
0.714005
0.714096
0.714188
0.714282
0.714376
0.71447
0.714564
0.714657
0.714748
0.714836
0.714919
0.714997
0.715068
0.71513
0.715181
0.715222
0.715244
0.715244
0.715219
0.715171
0.715098
0.715001
0.71488
0.714734
0.714565
0.714373
0.71416
0.713926
0.713675
0.713409
0.713131
0.712845
0.712556
0.712268
0.711984
0.711706
0.711441
0.711202
0.710996
0.71083
0.710712
0.710646
0.710637
0.710687
0.710799
0.71097
0.711199
0.711478
0.7118
0.712157
0.712537
0.712929
0.713319
0.713697
0.714049
0.714336
0.714557
0.714736
0.714873
0.714972
0.715037
0.715069
0.715073
0.715052
0.715011
0.71495
0.714875
0.714788
0.71469
0.714585
0.714474
0.714359
0.714241
0.714122
0.714003
0.713885
0.713768
0.713653
0.71354
0.71343
0.713323
0.713219
0.713119
0.713022
0.712926
0.710948
0.711013
0.711081
0.711152
0.711226
0.711302
0.711381
0.711463
0.711548
0.711636
0.711727
0.711821
0.711918
0.712018
0.712121
0.712227
0.712335
0.712447
0.71256
0.712675
0.712791
0.712909
0.713027
0.713144
0.71326
0.713373
0.713483
0.713587
0.713685
0.713774
0.71386
0.713932
0.713983
0.714011
0.714016
0.713998
0.713957
0.713892
0.713804
0.713694
0.713562
0.713409
0.713238
0.713049
0.712846
0.712631
0.712408
0.712181
0.711954
0.71173
0.711508
0.711294
0.711101
0.710937
0.710806
0.710715
0.710667
0.710667
0.710716
0.710815
0.710962
0.711155
0.711388
0.711654
0.711944
0.71225
0.712559
0.712863
0.713148
0.713406
0.713605
0.713748
0.713852
0.713919
0.713951
0.713951
0.713924
0.713871
0.713796
0.713703
0.713594
0.713473
0.713341
0.713202
0.713057
0.712908
0.712757
0.712604
0.712453
0.712302
0.712154
0.712008
0.711865
0.711726
0.711591
0.711459
0.711332
0.71121
0.711091
0.710975
0.708991
0.709063
0.709141
0.709222
0.709305
0.709392
0.709482
0.709575
0.709672
0.709773
0.709877
0.709985
0.710096
0.710212
0.710331
0.710454
0.710581
0.710711
0.710844
0.71098
0.711119
0.71126
0.711403
0.711547
0.711691
0.711834
0.711976
0.712115
0.712249
0.712376
0.712506
0.712629
0.712731
0.712811
0.71287
0.712906
0.712921
0.712912
0.712882
0.71283
0.712758
0.712665
0.712555
0.712427
0.712286
0.712132
0.711971
0.711804
0.711636
0.711469
0.7113
0.711136
0.710987
0.710862
0.710764
0.710699
0.710669
0.710677
0.710724
0.710811
0.710937
0.711096
0.711286
0.711499
0.711727
0.711963
0.712195
0.712416
0.712613
0.712779
0.712893
0.71296
0.712991
0.712988
0.712954
0.712891
0.712803
0.712692
0.712563
0.712418
0.71226
0.712091
0.711914
0.711732
0.711546
0.711358
0.71117
0.710982
0.710796
0.710613
0.710433
0.710257
0.710085
0.709919
0.709757
0.7096
0.709449
0.709303
0.709162
0.709024
0.707033
0.707115
0.707202
0.707292
0.707386
0.707483
0.707584
0.707689
0.707799
0.707912
0.70803
0.708152
0.708278
0.708409
0.708545
0.708685
0.70883
0.708979
0.709133
0.709291
0.709452
0.709617
0.709786
0.709956
0.710129
0.710303
0.710476
0.710649
0.710819
0.710985
0.71116
0.711333
0.711486
0.711619
0.711731
0.711821
0.711891
0.711939
0.711965
0.711972
0.711957
0.711924
0.711874
0.711806
0.711725
0.711632
0.71153
0.711422
0.711311
0.711198
0.711081
0.710965
0.710859
0.710771
0.710705
0.710664
0.710651
0.710667
0.710714
0.710791
0.710895
0.711025
0.711174
0.711338
0.711508
0.711677
0.711837
0.711977
0.712091
0.712169
0.712199
0.712192
0.712152
0.71208
0.711979
0.711853
0.711704
0.711536
0.711351
0.711153
0.710945
0.710728
0.710505
0.710279
0.710051
0.709823
0.709596
0.709372
0.709151
0.708933
0.708721
0.708514
0.708313
0.708117
0.707928
0.707745
0.707569
0.707398
0.707234
0.707073
0.705075
0.705166
0.705263
0.705363
0.705467
0.705575
0.705688
0.705805
0.705927
0.706053
0.706185
0.706321
0.706463
0.70661
0.706762
0.70692
0.707083
0.707252
0.707426
0.707606
0.70779
0.707979
0.708173
0.708371
0.708572
0.708776
0.708982
0.709189
0.709395
0.7096
0.709819
0.710042
0.710246
0.710431
0.710596
0.710741
0.710865
0.710968
0.711052
0.711115
0.711159
0.711184
0.711192
0.711184
0.711162
0.711128
0.711084
0.711032
0.710977
0.710917
0.71085
0.71078
0.710716
0.710665
0.710629
0.710612
0.710615
0.71064
0.710687
0.710754
0.71084
0.710942
0.711054
0.711171
0.711287
0.711393
0.711483
0.711548
0.711581
0.711573
0.711523
0.711443
0.711331
0.711191
0.711025
0.710835
0.710626
0.710399
0.710159
0.709908
0.709648
0.709382
0.709113
0.708842
0.708572
0.708302
0.708036
0.707774
0.707516
0.707264
0.707018
0.706779
0.706547
0.706322
0.706105
0.705894
0.705692
0.705496
0.705308
0.705123
0.703118
0.703218
0.703324
0.703434
0.703549
0.703669
0.703793
0.703922
0.704057
0.704196
0.704342
0.704493
0.70465
0.704813
0.704982
0.705158
0.70534
0.705528
0.705723
0.705924
0.706132
0.706346
0.706565
0.70679
0.70702
0.707254
0.707492
0.707733
0.707976
0.708219
0.708483
0.708756
0.709011
0.709247
0.709465
0.709663
0.709841
0.71
0.710139
0.710259
0.71036
0.710443
0.710509
0.710559
0.710595
0.710618
0.710631
0.710635
0.710634
0.710626
0.710608
0.710582
0.710559
0.710544
0.710539
0.710545
0.710566
0.710599
0.710647
0.710706
0.710775
0.710851
0.710929
0.711003
0.711067
0.711114
0.711138
0.711131
0.711085
0.710994
0.710864
0.710712
0.710531
0.710322
0.71009
0.709837
0.709566
0.709281
0.708984
0.708679
0.708368
0.708053
0.707736
0.70742
0.707105
0.706794
0.706487
0.706186
0.705892
0.705604
0.705324
0.705052
0.704788
0.704532
0.704285
0.704047
0.703817
0.703595
0.703382
0.703172
0.70116
0.701269
0.701386
0.701507
0.701632
0.701763
0.701899
0.70204
0.702188
0.702341
0.7025
0.702666
0.702839
0.703018
0.703205
0.703398
0.703599
0.703808
0.704023
0.704247
0.704477
0.704715
0.70496
0.705212
0.705471
0.705736
0.706006
0.706281
0.70656
0.706842
0.70715
0.707473
0.707778
0.708066
0.708336
0.708587
0.708819
0.709033
0.709227
0.709403
0.70956
0.7097
0.709824
0.709931
0.710024
0.710104
0.710172
0.710231
0.710283
0.710326
0.710356
0.710375
0.710392
0.710413
0.710438
0.710469
0.710506
0.71055
0.710599
0.710652
0.710707
0.710759
0.710804
0.710837
0.710853
0.710844
0.710804
0.710727
0.710605
0.710433
0.710225
0.710002
0.70975
0.709474
0.709175
0.708858
0.708526
0.708181
0.707828
0.707468
0.707104
0.706738
0.706373
0.706011
0.705652
0.705298
0.70495
0.704609
0.704276
0.703952
0.703636
0.70333
0.703033
0.702747
0.702469
0.702202
0.701944
0.701696
0.701457
0.701222
0.699203
0.699321
0.699448
0.699579
0.699716
0.699858
0.700006
0.70016
0.70032
0.700487
0.700661
0.700842
0.70103
0.701226
0.701429
0.701641
0.701861
0.702089
0.702326
0.702571
0.702825
0.703088
0.703359
0.703638
0.703926
0.704221
0.704523
0.704832
0.705147
0.705467
0.70582
0.706191
0.706547
0.706886
0.707208
0.707511
0.707797
0.708065
0.708314
0.708546
0.708759
0.708956
0.709136
0.7093
0.709449
0.709585
0.709709
0.709821
0.709925
0.710018
0.710095
0.710159
0.710217
0.710274
0.71033
0.710385
0.710441
0.710496
0.710548
0.710597
0.710638
0.710669
0.710684
0.710679
0.710649
0.710586
0.710486
0.71034
0.710144
0.709892
0.709606
0.709312
0.708991
0.708646
0.708281
0.707899
0.707504
0.707099
0.706688
0.706273
0.705855
0.705439
0.705025
0.704614
0.70421
0.703812
0.703422
0.70304
0.702668
0.702306
0.701955
0.701614
0.701284
0.700965
0.700657
0.700359
0.700073
0.699797
0.699532
0.699272
0.697245
0.697374
0.69751
0.697652
0.6978
0.697953
0.698113
0.69828
0.698453
0.698634
0.698822
0.699018
0.699222
0.699435
0.699656
0.699886
0.700125
0.700373
0.700631
0.700899
0.701176
0.701463
0.70176
0.702066
0.702383
0.702708
0.703043
0.703386
0.703737
0.704095
0.704491
0.704911
0.705317
0.705706
0.706079
0.706435
0.706774
0.707096
0.7074
0.707686
0.707955
0.708208
0.708444
0.708664
0.70887
0.709061
0.709239
0.709405
0.709561
0.709703
0.709829
0.709938
0.710037
0.71013
0.710218
0.710299
0.710374
0.710441
0.710498
0.710544
0.710574
0.710585
0.710573
0.710533
0.710458
0.710344
0.710185
0.709973
0.709704
0.709374
0.709011
0.708646
0.708255
0.707841
0.707408
0.706961
0.706503
0.706037
0.705566
0.705094
0.704623
0.704153
0.703689
0.70323
0.702778
0.702336
0.701902
0.701479
0.701067
0.700667
0.700278
0.699902
0.699537
0.699185
0.698846
0.698518
0.698203
0.6979
0.697608
0.697321
0.695288
0.695426
0.695573
0.695725
0.695884
0.696049
0.696221
0.696401
0.696587
0.696782
0.696985
0.697196
0.697416
0.697645
0.697884
0.698132
0.69839
0.698659
0.698938
0.699228
0.699528
0.69984
0.700163
0.700497
0.700841
0.701197
0.701564
0.70194
0.702327
0.702723
0.703162
0.703631
0.704086
0.704526
0.70495
0.705357
0.705749
0.706124
0.706482
0.706823
0.707148
0.707456
0.707748
0.708025
0.708286
0.708533
0.708765
0.708985
0.709192
0.709384
0.709558
0.709712
0.709854
0.709985
0.710105
0.710213
0.710309
0.710389
0.710453
0.710497
0.710518
0.710512
0.710475
0.710401
0.710285
0.710121
0.709905
0.709629
0.709289
0.70888
0.708442
0.708006
0.707545
0.707061
0.70656
0.706046
0.705523
0.704995
0.704464
0.703933
0.703406
0.702882
0.702366
0.701857
0.701358
0.700868
0.700391
0.699925
0.699472
0.699032
0.698606
0.698193
0.697794
0.697408
0.697036
0.696678
0.696333
0.696002
0.695683
0.69537
0.69333
0.693478
0.693635
0.693799
0.693969
0.694146
0.69433
0.694522
0.694722
0.69493
0.695148
0.695374
0.69561
0.695856
0.696112
0.696379
0.696657
0.696946
0.697246
0.697558
0.697882
0.698218
0.698567
0.698928
0.699301
0.699687
0.700085
0.700495
0.700917
0.70135
0.701832
0.70235
0.702853
0.703343
0.703817
0.704277
0.70472
0.705148
0.70556
0.705956
0.706336
0.7067
0.707048
0.707381
0.707698
0.708
0.708287
0.70856
0.708819
0.709061
0.709284
0.709486
0.70967
0.70984
0.709994
0.710131
0.710248
0.710344
0.710416
0.710461
0.710475
0.710453
0.710392
0.710287
0.710132
0.709921
0.709649
0.709311
0.708901
0.708415
0.707901
0.707395
0.706862
0.706308
0.705738
0.705157
0.704568
0.703975
0.703382
0.702791
0.702205
0.701626
0.701056
0.700495
0.699946
0.69941
0.698886
0.698377
0.697882
0.697402
0.696936
0.696486
0.696052
0.695632
0.695228
0.694838
0.694464
0.694104
0.693758
0.693419
0.691373
0.691531
0.691698
0.691872
0.692053
0.692242
0.692439
0.692643
0.692857
0.693079
0.693311
0.693553
0.693805
0.694068
0.694342
0.694627
0.694924
0.695233
0.695554
0.695889
0.696236
0.696597
0.696971
0.697359
0.697761
0.698177
0.698606
0.69905
0.699507
0.699976
0.700501
0.701066
0.701618
0.702156
0.702681
0.703192
0.703687
0.704168
0.704634
0.705084
0.705519
0.705939
0.706343
0.706732
0.707105
0.707463
0.707806
0.708133
0.708444
0.708738
0.70901
0.70926
0.709489
0.7097
0.709889
0.710055
0.710196
0.710309
0.710391
0.710438
0.710447
0.710412
0.71033
0.710195
0.710003
0.709746
0.709421
0.709022
0.708543
0.707981
0.707391
0.706814
0.706211
0.705586
0.704946
0.704295
0.703638
0.70298
0.702322
0.701669
0.701023
0.700386
0.69976
0.699146
0.698546
0.69796
0.697389
0.696835
0.696296
0.695775
0.69527
0.694782
0.694311
0.693857
0.69342
0.692999
0.692594
0.692205
0.691832
0.691466
0.689416
0.689583
0.689761
0.689946
0.690138
0.690339
0.690548
0.690765
0.690992
0.691229
0.691475
0.691732
0.692001
0.69228
0.692571
0.692875
0.693191
0.69352
0.693863
0.694219
0.69459
0.694975
0.695375
0.69579
0.69622
0.696666
0.697126
0.697603
0.698094
0.6986
0.699167
0.699778
0.700378
0.700966
0.70154
0.702101
0.702649
0.703182
0.703702
0.704207
0.704697
0.705173
0.705633
0.706079
0.706509
0.706924
0.707322
0.707704
0.708069
0.708414
0.708738
0.709037
0.709313
0.709565
0.709791
0.709989
0.710156
0.710287
0.710381
0.710433
0.710438
0.710392
0.710291
0.710129
0.709901
0.709601
0.709224
0.708764
0.708218
0.707581
0.706916
0.706269
0.705594
0.704898
0.704186
0.703465
0.702738
0.702011
0.701287
0.700569
0.699861
0.699163
0.698479
0.69781
0.697156
0.696519
0.6959
0.695298
0.694716
0.694151
0.693606
0.693079
0.692571
0.692082
0.691611
0.691158
0.690723
0.690306
0.689906
0.689513
0.687459
0.687636
0.687824
0.68802
0.688224
0.688436
0.688657
0.688887
0.689128
0.689378
0.689639
0.689912
0.690196
0.690492
0.690801
0.691123
0.691458
0.691807
0.692171
0.69255
0.692943
0.693353
0.693778
0.694219
0.694678
0.695152
0.695644
0.696153
0.696678
0.69722
0.697828
0.698486
0.699133
0.699769
0.700393
0.701005
0.701604
0.70219
0.702763
0.703323
0.703869
0.704402
0.704919
0.705423
0.70591
0.706382
0.706838
0.707276
0.707695
0.708094
0.70847
0.708821
0.709144
0.70944
0.709705
0.709936
0.710129
0.710282
0.710389
0.710447
0.710451
0.710397
0.710279
0.710091
0.709829
0.709487
0.70906
0.708542
0.707929
0.707218
0.706478
0.70576
0.705013
0.704245
0.703461
0.702667
0.701869
0.701072
0.700279
0.699494
0.698721
0.69796
0.697216
0.696488
0.695779
0.695089
0.694419
0.693769
0.69314
0.692532
0.691945
0.691378
0.690833
0.690307
0.689802
0.689317
0.688851
0.688405
0.687978
0.687558
0.685501
0.685688
0.685887
0.686093
0.686308
0.686532
0.686766
0.687009
0.687263
0.687527
0.687803
0.688091
0.688391
0.688704
0.68903
0.68937
0.689724
0.690094
0.690478
0.690879
0.691295
0.691729
0.692179
0.692647
0.693133
0.693637
0.694159
0.694699
0.695258
0.695835
0.696484
0.697188
0.697882
0.698566
0.699239
0.699901
0.700552
0.701191
0.701818
0.702433
0.703036
0.703625
0.704201
0.704763
0.70531
0.705841
0.706355
0.706851
0.707326
0.70778
0.70821
0.708613
0.708986
0.709327
0.709632
0.709897
0.71012
0.710295
0.710418
0.710485
0.71049
0.710428
0.710295
0.710084
0.70979
0.709408
0.708932
0.708357
0.707679
0.706893
0.706079
0.705291
0.704472
0.703631
0.702773
0.701906
0.701035
0.700165
0.699301
0.698447
0.697606
0.69678
0.695972
0.695184
0.694417
0.693671
0.692948
0.692248
0.691571
0.690918
0.690287
0.68968
0.689095
0.688533
0.687994
0.687476
0.686979
0.686504
0.686049
0.685603
0.683544
0.683741
0.68395
0.684167
0.684393
0.684629
0.684875
0.685131
0.685398
0.685676
0.685966
0.686269
0.686585
0.686914
0.687258
0.687616
0.68799
0.688379
0.688784
0.689206
0.689645
0.690103
0.690578
0.691072
0.691585
0.692117
0.692669
0.693241
0.693832
0.694445
0.695134
0.695883
0.696624
0.697355
0.698077
0.69879
0.699492
0.700185
0.700866
0.701537
0.702197
0.702845
0.70348
0.704102
0.704709
0.705301
0.705875
0.70643
0.706963
0.707473
0.707959
0.708416
0.70884
0.709228
0.709575
0.709877
0.71013
0.71033
0.710471
0.710548
0.710556
0.71049
0.710343
0.710111
0.709788
0.709367
0.708843
0.708212
0.70747
0.706611
0.705723
0.704864
0.703972
0.703057
0.702125
0.701183
0.700237
0.699293
0.698357
0.697431
0.69652
0.695626
0.694753
0.693901
0.693073
0.692269
0.691491
0.690738
0.690011
0.68931
0.688635
0.687985
0.687361
0.686761
0.686186
0.685634
0.685106
0.684601
0.684119
0.683645
0.681587
0.681793
0.682012
0.68224
0.682478
0.682725
0.682983
0.683252
0.683532
0.683824
0.684129
0.684447
0.684778
0.685124
0.685485
0.685861
0.686253
0.686662
0.687087
0.687531
0.687993
0.688473
0.688973
0.689493
0.690033
0.690593
0.691174
0.691777
0.692401
0.693048
0.693776
0.694571
0.695357
0.696136
0.696907
0.69767
0.698425
0.69917
0.699908
0.700635
0.701353
0.702061
0.702757
0.70344
0.704109
0.704763
0.705399
0.706015
0.706609
0.707177
0.70772
0.708233
0.70871
0.709145
0.709536
0.709877
0.710163
0.710388
0.710549
0.710639
0.710652
0.710583
0.710426
0.710175
0.709823
0.709366
0.708797
0.708111
0.707305
0.706374
0.705411
0.704481
0.703517
0.702526
0.701519
0.700501
0.699479
0.69846
0.697448
0.696449
0.695466
0.694502
0.69356
0.692642
0.691751
0.690886
0.69005
0.689242
0.688463
0.687712
0.68699
0.686296
0.68563
0.684991
0.684379
0.683793
0.683233
0.682698
0.682187
0.681686
0.67963
0.679846
0.680075
0.680314
0.680562
0.680821
0.681091
0.681372
0.681666
0.681971
0.68229
0.682623
0.68297
0.683332
0.68371
0.684104
0.684514
0.684942
0.685388
0.685853
0.686337
0.686841
0.687365
0.687909
0.688475
0.689063
0.689673
0.690305
0.690962
0.691642
0.69241
0.693249
0.694082
0.694908
0.695728
0.696541
0.697348
0.698149
0.698942
0.699727
0.700505
0.701273
0.702032
0.702778
0.703512
0.70423
0.70493
0.705609
0.706265
0.706894
0.707496
0.708066
0.708597
0.709082
0.709518
0.709899
0.710219
0.710473
0.710656
0.71076
0.710781
0.710712
0.710546
0.710278
0.7099
0.709408
0.708795
0.708056
0.707187
0.706183
0.705147
0.704145
0.703107
0.702042
0.700957
0.699862
0.698764
0.697668
0.69658
0.695505
0.694447
0.693411
0.692398
0.691412
0.690454
0.689526
0.688629
0.687763
0.686929
0.686127
0.685356
0.684616
0.683906
0.683227
0.682577
0.681955
0.681361
0.680795
0.680255
0.679726
0.677672
0.677898
0.678137
0.678387
0.678646
0.678917
0.679198
0.679492
0.679798
0.680118
0.680451
0.680798
0.681161
0.681539
0.681933
0.682344
0.682773
0.68322
0.683686
0.684171
0.684677
0.685203
0.685751
0.68632
0.686912
0.687526
0.688164
0.688826
0.689514
0.690228
0.691035
0.691918
0.692797
0.69367
0.694539
0.695404
0.696264
0.697119
0.697969
0.698814
0.699653
0.700484
0.701307
0.702119
0.702919
0.703703
0.704469
0.705214
0.705934
0.706625
0.707288
0.707917
0.708503
0.70904
0.709523
0.709945
0.710302
0.710587
0.710793
0.710915
0.710945
0.710878
0.710706
0.710423
0.710022
0.709496
0.708841
0.70805
0.707119
0.706044
0.704933
0.70386
0.702747
0.701605
0.700444
0.699271
0.698094
0.69692
0.695754
0.694602
0.693468
0.692357
0.691271
0.690214
0.689188
0.688194
0.687233
0.686307
0.685415
0.684558
0.683735
0.682947
0.682192
0.68147
0.68078
0.680121
0.679492
0.678893
0.678323
0.677764
0.675715
0.67595
0.6762
0.676459
0.67673
0.677011
0.677305
0.677611
0.67793
0.678263
0.67861
0.678972
0.679349
0.679743
0.680154
0.680582
0.681028
0.681494
0.68198
0.682485
0.683012
0.68356
0.684131
0.684724
0.685341
0.685982
0.686647
0.687338
0.688057
0.688804
0.68965
0.690577
0.691501
0.692422
0.69334
0.694256
0.69517
0.696082
0.696991
0.697896
0.698798
0.699694
0.700583
0.701463
0.702331
0.703184
0.704019
0.704831
0.705617
0.706373
0.707099
0.707788
0.708431
0.709021
0.709552
0.710018
0.710413
0.71073
0.710963
0.711104
0.711147
0.711084
0.710909
0.710613
0.710191
0.709635
0.708939
0.708097
0.707105
0.705959
0.704773
0.703627
0.70244
0.701221
0.699982
0.69873
0.697473
0.696219
0.694974
0.693744
0.692532
0.691344
0.690184
0.689054
0.687956
0.686894
0.685867
0.684877
0.683925
0.683011
0.682134
0.681294
0.680491
0.679724
0.678991
0.678292
0.677626
0.676993
0.676391
0.6758
0.673757
0.674002
0.674261
0.674531
0.674812
0.675105
0.67541
0.675729
0.67606
0.676406
0.676767
0.677143
0.677535
0.677944
0.678371
0.678816
0.67928
0.679764
0.680269
0.680794
0.681342
0.681911
0.682504
0.683121
0.683762
0.684428
0.685121
0.68584
0.686589
0.687369
0.688253
0.689224
0.690193
0.691162
0.692131
0.6931
0.694068
0.695037
0.696006
0.696975
0.697941
0.698904
0.699862
0.700811
0.70175
0.702674
0.70358
0.704462
0.705317
0.706139
0.706929
0.70768
0.708382
0.709027
0.709608
0.71012
0.710555
0.710907
0.711169
0.711332
0.71139
0.711335
0.711158
0.710853
0.710412
0.709828
0.709093
0.708202
0.707149
0.705932
0.704671
0.703453
0.702189
0.700893
0.699573
0.698241
0.696903
0.695569
0.694243
0.692932
0.691642
0.690376
0.689139
0.687934
0.686764
0.685631
0.684536
0.68348
0.682465
0.68149
0.680556
0.679662
0.678808
0.677993
0.677215
0.676474
0.675767
0.675097
0.674459
0.673834
0.6718
0.672053
0.672323
0.672603
0.672894
0.673198
0.673515
0.673845
0.674189
0.674548
0.674922
0.675312
0.675718
0.676143
0.676585
0.677047
0.677528
0.67803
0.678553
0.679098
0.679665
0.680256
0.68087
0.681509
0.682174
0.682865
0.683584
0.684332
0.68511
0.685922
0.686844
0.687859
0.688875
0.689892
0.690911
0.691933
0.692958
0.693987
0.695018
0.69605
0.697084
0.698116
0.699144
0.700166
0.701178
0.702175
0.703153
0.704108
0.705033
0.705925
0.706781
0.707596
0.708358
0.709059
0.709693
0.710253
0.710731
0.711121
0.711414
0.711602
0.711678
0.711633
0.711459
0.711147
0.71069
0.710079
0.709308
0.708369
0.707257
0.705968
0.704633
0.70334
0.701999
0.700623
0.699223
0.697808
0.696388
0.69497
0.693562
0.69217
0.6908
0.689455
0.688141
0.68686
0.685616
0.68441
0.683244
0.68212
0.681039
0.680002
0.679008
0.678056
0.677148
0.676281
0.675454
0.674667
0.673917
0.673206
0.67253
0.671866
0.669842
0.670105
0.670384
0.670674
0.670976
0.67129
0.671618
0.67196
0.672316
0.672687
0.673074
0.673478
0.673899
0.674338
0.674796
0.675273
0.675771
0.67629
0.676831
0.677394
0.677981
0.678592
0.679227
0.679888
0.680576
0.681291
0.682036
0.682811
0.683619
0.684463
0.685423
0.686482
0.687544
0.68861
0.689681
0.690758
0.691841
0.69293
0.694025
0.695124
0.696226
0.69733
0.698431
0.699527
0.700614
0.701687
0.702741
0.70377
0.704768
0.705731
0.706656
0.707536
0.70836
0.70912
0.709809
0.71042
0.710944
0.711374
0.711701
0.711918
0.712016
0.711984
0.711816
0.7115
0.71103
0.710395
0.709589
0.708604
0.707434
0.706074
0.704662
0.703294
0.701875
0.700417
0.698933
0.697434
0.695929
0.694427
0.692936
0.691461
0.69001
0.688585
0.687192
0.685834
0.684514
0.683234
0.681996
0.680803
0.679654
0.678551
0.677494
0.676482
0.675515
0.674593
0.673714
0.672876
0.672079
0.671321
0.670603
0.669897
0.667885
0.668156
0.668444
0.668744
0.669056
0.669381
0.669719
0.670072
0.67044
0.670824
0.671224
0.671641
0.672075
0.672529
0.673002
0.673495
0.674008
0.674544
0.675102
0.675684
0.676289
0.676919
0.677575
0.678257
0.678967
0.679706
0.680475
0.681278
0.682115
0.682991
0.683989
0.685092
0.686201
0.687317
0.688441
0.689574
0.690716
0.691868
0.693028
0.694196
0.69537
0.696547
0.697723
0.698896
0.70006
0.701211
0.702342
0.703448
0.704521
0.705558
0.706553
0.707501
0.70839
0.709212
0.709959
0.710623
0.711196
0.71167
0.712036
0.712285
0.712408
0.712394
0.712234
0.711918
0.711437
0.710781
0.709942
0.708912
0.707684
0.706254
0.704765
0.703321
0.701822
0.70028
0.69871
0.697124
0.695532
0.693944
0.692367
0.690808
0.689274
0.687768
0.686295
0.684859
0.683462
0.682107
0.680796
0.679531
0.678312
0.677141
0.676018
0.674943
0.673915
0.672933
0.671997
0.671104
0.670254
0.669446
0.668679
0.667925
0.665927
0.666207
0.666504
0.666813
0.667135
0.66747
0.667819
0.668183
0.668562
0.668958
0.66937
0.6698
0.670248
0.670715
0.671203
0.671711
0.67224
0.672792
0.673366
0.673965
0.674588
0.675237
0.675912
0.676614
0.677346
0.678108
0.678902
0.679731
0.680597
0.681505
0.682542
0.68369
0.684846
0.686013
0.687191
0.688381
0.689585
0.690801
0.692029
0.693268
0.694515
0.695767
0.697021
0.698273
0.699516
0.700746
0.701957
0.703142
0.704293
0.705406
0.706475
0.707493
0.70845
0.709336
0.710144
0.710866
0.711492
0.712014
0.712423
0.712708
0.71286
0.712867
0.712719
0.712407
0.711918
0.711244
0.710374
0.709301
0.708016
0.706515
0.704949
0.703427
0.701845
0.700218
0.69856
0.696884
0.695203
0.693525
0.69186
0.690215
0.688595
0.687006
0.685452
0.683936
0.682461
0.68103
0.679645
0.678307
0.677017
0.675776
0.674585
0.673443
0.67235
0.671304
0.670306
0.669353
0.668445
0.667581
0.66676
0.665952
0.663969
0.664257
0.664563
0.664881
0.665212
0.665557
0.665917
0.666291
0.666682
0.667089
0.667513
0.667955
0.668416
0.668897
0.669398
0.669921
0.670465
0.671032
0.671622
0.672237
0.672877
0.673544
0.674238
0.67496
0.675712
0.676496
0.677315
0.67817
0.679065
0.680005
0.68108
0.682273
0.683479
0.684697
0.685931
0.687181
0.688447
0.68973
0.691027
0.692339
0.693661
0.694991
0.696325
0.697657
0.698982
0.700293
0.701586
0.702851
0.704083
0.705274
0.70642
0.707511
0.708539
0.709495
0.710368
0.711152
0.711836
0.712411
0.712867
0.713192
0.713377
0.71341
0.713278
0.712972
0.712479
0.711789
0.710891
0.709775
0.708435
0.706863
0.705219
0.703619
0.701953
0.700238
0.698489
0.696722
0.694947
0.693177
0.69142
0.689685
0.687977
0.686302
0.684664
0.683067
0.681513
0.680004
0.678543
0.677131
0.675769
0.674456
0.673194
0.671982
0.67082
0.669707
0.668642
0.667625
0.666653
0.665727