/*--------------------------------*- C++ -*----------------------------------*\
  =========                 |
  \\      /  F ield         | OpenFOAM: The Open Source CFD Toolbox
   \\    /   O peration     | Website:  https://openfoam.org
    \\  /    A nd           | Version:  9
     \\/     M anipulation  |
\*---------------------------------------------------------------------------*/
FoamFile
{
    format      ascii;
    class       volScalarField;
    location    "0.03";
    object      p_rgh;
}
// * * * * * * * * * * * * * * * * * * * * * * * * * * * * * * * * * * * * * //

dimensions      [1 -1 -2 0 0 0 0];

internalField   nonuniform List<scalar> 
20000
(
1.07169e-05
1.89181e-05
2.45739e-05
2.93147e-05
3.31068e-05
3.58734e-05
3.74872e-05
3.77718e-05
3.65059e-05
3.34206e-05
2.82014e-05
2.04895e-05
9.87799e-06
-4.09527e-06
-2.19559e-05
-4.42999e-05
-7.18014e-05
-0.000105224
-0.000145433
-0.000193409
-0.000250258
-0.000317235
-0.00039576
-0.000487446
-0.00059412
-0.000717861
-0.000861039
-0.00102636
-0.00121689
-0.00143612
-0.00170971
-0.00204154
-0.0024054
-0.00280228
-0.00323315
-0.00369886
-0.0042001
-0.00473733
-0.00531071
-0.00592009
-0.00656492
-0.00724415
-0.00795614
-0.00869854
-0.00946811
-0.0102607
-0.0110709
-0.0118921
-0.0127157
-0.0135306
-0.0143233
-0.0150789
-0.015781
-0.0164111
-0.0169485
-0.0173715
-0.0176585
-0.0177899
-0.0177499
-0.0175276
-0.0171189
-0.0165275
-0.0157649
-0.0148503
-0.0138088
-0.01267
-0.011465
-0.0102252
-0.00898072
-0.00775924
-0.00669175
-0.00580188
-0.00500529
-0.00429816
-0.00367458
-0.00312775
-0.00265071
-0.00223658
-0.00187877
-0.00157107
-0.0013077
-0.00108334
-0.00089312
-0.000732664
-0.00059802
-0.000485655
-0.000392431
-0.000315567
-0.000252612
-0.000201417
-0.000160107
-0.000127058
-0.000100865
-8.03048e-05
-6.42834e-05
-5.17905e-05
-4.1849e-05
-3.36348e-05
-2.54817e-05
-1.14305e-05
1.49881e-05
3.342e-05
5.00784e-05
6.61327e-05
8.12758e-05
9.5586e-05
0.000109064
0.000121641
0.000133185
0.000143516
0.000152405
0.000159577
0.000164709
0.000167425
0.000167286
0.000163787
0.00015635
0.000144305
0.000126887
0.000103217
7.22934e-05
3.29698e-05
-1.60604e-05
-7.62844e-05
-0.000149391
-0.000237299
-0.000342188
-0.000466534
-0.000613123
-0.000785076
-0.0010033
-0.00127323
-0.00157381
-0.00190569
-0.00226963
-0.00266628
-0.00309615
-0.00355952
-0.00405638
-0.00458641
-0.00514889
-0.00574261
-0.00636578
-0.00701592
-0.00768973
-0.00838298
-0.00909037
-0.00980528
-0.0105196
-0.0112239
-0.0119068
-0.0125548
-0.0131531
-0.0136856
-0.0141351
-0.0144841
-0.0147158
-0.0148149
-0.0147696
-0.0145721
-0.0142199
-0.0137165
-0.0130717
-0.0123009
-0.0114245
-0.0104662
-0.00945176
-0.00840724
-0.00735809
-0.00632831
-0.0054297
-0.00468025
-0.00400933
-0.00341461
-0.00289174
-0.00243531
-0.00203949
-0.00169837
-0.00140616
-0.00115737
-0.000946836
-0.000769818
-0.000621972
-0.000499374
-0.000398495
-0.000316191
-0.00024967
-0.000196469
-0.000154423
-0.000121635
-9.64516e-05
-7.74345e-05
-6.33365e-05
-5.30631e-05
-4.56226e-05
-4.00935e-05
-3.5651e-05
-3.17108e-05
-2.67116e-05
-1.18134e-05
1.18257e-05
3.3038e-05
5.52791e-05
7.76041e-05
9.97656e-05
0.000121779
0.000143566
0.000165011
0.000185979
0.000206306
0.000225798
0.000244222
0.000261302
0.000276713
0.000290075
0.000300945
0.000308808
0.000313067
0.000313028
0.00030789
0.000296726
0.000278473
0.000251913
0.000215655
0.000168116
0.000107496
3.17538e-05
-6.14252e-05
-0.000174641
-0.000310726
-0.00048694
-0.00070981
-0.000962207
-0.0012446
-0.00155761
-0.0019018
-0.00227753
-0.00268497
-0.00312401
-0.00359424
-0.00409485
-0.00462453
-0.00518142
-0.005763
-0.00636596
-0.00698612
-0.00761827
-0.00825606
-0.00889175
-0.00951707
-0.0101226
-0.0106958
-0.0112225
-0.0116883
-0.0120782
-0.0123773
-0.0125716
-0.0126484
-0.0125981
-0.0124147
-0.0120968
-0.0116477
-0.0110763
-0.0103959
-0.00962411
-0.00878145
-0.00789023
-0.00697336
-0.00605328
-0.0051515
-0.00436708
-0.00371428
-0.00313139
-0.00261674
-0.00216667
-0.00177646
-0.00144092
-0.00115474
-0.000912632
-0.00070957
-0.000540817
-0.000401994
-0.000289101
-0.000198517
-0.00012699
-7.16216e-05
-2.98456e-05
5.98457e-07
2.16913e-05
3.51614e-05
4.25115e-05
4.50437e-05
4.38801e-05
3.99844e-05
3.41932e-05
2.72456e-05
1.97313e-05
1.18504e-05
4.19174e-06
3.14017e-07
1.34043e-05
3.97352e-05
6.76882e-05
9.62546e-05
0.000125316
0.000154841
0.000184739
0.000214883
0.000245137
0.000275355
0.000305361
0.000334952
0.000363885
0.000391879
0.000418602
0.000443669
0.000466622
0.00048693
0.000503965
0.000516998
0.000525178
0.000527525
0.000522906
0.000510025
0.000487403
0.000453356
0.000405974
0.000343087
0.000262243
0.00016075
2.4767e-05
-0.000152509
-0.000357999
-0.000592197
-0.00085569
-0.00114893
-0.0014722
-0.00182559
-0.00220895
-0.00262177
-0.0030632
-0.0035319
-0.00402598
-0.00454293
-0.0050795
-0.0056316
-0.00619425
-0.00676141
-0.00732577
-0.00788021
-0.00841702
-0.00892473
-0.00938974
-0.00979874
-0.0101387
-0.0103968
-0.0105611
-0.010621
-0.0105686
-0.0103992
-0.0101119
-0.0097102
-0.00920193
-0.00859903
-0.00791695
-0.00717376
-0.00638914
-0.00558342
-0.00477662
-0.00398778
-0.00330427
-0.00273812
-0.00223545
-0.00179478
-0.00141274
-0.00108507
-0.000807063
-0.000573813
-0.00038048
-0.00022241
-9.52218e-05
5.13986e-06
8.23865e-05
0.000139879
0.000180638
0.000207351
0.000222399
0.00022787
0.000225587
0.00021713
0.000203861
0.000186943
0.000167357
0.000145923
0.000123316
0.000100107
7.67331e-05
5.32872e-05
3.01677e-05
9.00208e-06
1.61605e-05
4.91163e-05
8.41287e-05
0.000120191
0.000157203
0.000195177
0.000234046
0.000273722
0.000314105
0.000355079
0.000396501
0.000438201
0.000479978
0.000521596
0.000562775
0.000603207
0.000642462
0.000680092
0.00071554
0.00074815
0.000777154
0.000801659
0.000820626
0.000832863
0.000837002
0.000831481
0.000814526
0.000784125
0.000737984
0.000673555
0.000580601
0.000452117
0.000296822
0.000114165
-9.63962e-05
-0.000335235
-0.000602579
-0.000898459
-0.00122266
-0.00157465
-0.00195351
-0.00235791
-0.00278599
-0.00323526
-0.00370255
-0.00418395
-0.00467473
-0.0051692
-0.0056606
-0.00614293
-0.00661022
-0.00705214
-0.00745548
-0.00780809
-0.00809897
-0.00831729
-0.00845289
-0.00849718
-0.00844379
-0.00828922
-0.00803322
-0.00767915
-0.00723413
-0.00670869
-0.00611635
-0.0054729
-0.00479558
-0.00410227
-0.0034107
-0.00273751
-0.00215782
-0.00168136
-0.00126224
-0.000899042
-0.000588643
-0.000327173
-0.000110323
6.63865e-05
0.000207398
0.000316985
0.000399176
0.000457704
0.00049599
0.000517136
0.000523931
0.000518858
0.000504108
0.000481596
0.000452985
0.000419704
0.000382973
0.000343818
0.000303087
0.000261477
0.000219552
0.000177774
0.000136501
9.58207e-05
5.60732e-05
1.79201e-05
1.94499e-05
5.96484e-05
0.000102444
0.000146653
0.000192241
0.000239253
0.000287666
0.000337435
0.000388501
0.000440786
0.000494185
0.000548572
0.000603795
0.000659673
0.000715981
0.000772448
0.000828739
0.000884458
0.000939115
0.000992135
0.00104284
0.00109041
0.00113392
0.00117229
0.00120425
0.00122838
0.00124303
0.00124636
0.00123626
0.00121037
0.00116219
0.00108421
0.000980711
0.000851174
0.000695114
0.000512207
0.000302267
6.53018e-05
-0.000198434
-0.000488384
-0.000803626
-0.00114283
-0.00150418
-0.00188529
-0.0022831
-0.00269387
-0.00311319
-0.00353576
-0.00395538
-0.00436716
-0.00476686
-0.00514513
-0.00548917
-0.00578812
-0.00603274
-0.00621385
-0.00632306
-0.00635345
-0.00630011
-0.00616051
-0.0059349
-0.00562664
-0.00524218
-0.00479084
-0.00428445
-0.00373681
-0.00316297
-0.00257862
-0.00199944
-0.00144007
-0.000963608
-0.000576636
-0.000241214
4.40029e-05
0.000281917
0.000476072
0.000630418
0.000749056
0.000836058
0.000895344
0.00093061
0.000945288
0.000942529
0.000925191
0.000895847
0.000856786
0.000810021
0.000757306
0.00070015
0.000639844
0.000577473
0.000513947
0.000450003
0.000386237
0.000323125
0.000261047
0.000200292
0.000140911
8.32426e-05
2.7142e-05
2.30337e-05
7.08861e-05
0.000121846
0.000174582
0.000229102
0.000285494
0.00034378
0.000403951
0.000465986
0.000529847
0.000595474
0.000662788
0.000731688
0.000802043
0.000873683
0.000946394
0.0010199
0.00109388
0.00116791
0.00124149
0.00131403
0.0013848
0.00145298
0.00151759
0.00157747
0.00163133
0.00167767
0.00171479
0.00174076
0.00175343
0.00175006
0.00172249
0.0016706
0.00159393
0.00149204
0.00136463
0.00121153
0.00103277
0.000828625
0.000599652
0.000346768
7.12577e-05
-0.000225148
-0.000540154
-0.000870869
-0.00121381
-0.00156484
-0.00191913
-0.00227099
-0.00261657
-0.00295322
-0.00327257
-0.00356222
-0.00381251
-0.00401556
-0.00416359
-0.00424978
-0.00426859
-0.00421624
-0.00409099
-0.00389355
-0.00362721
-0.00329791
-0.00291399
-0.00248593
-0.00202587
-0.00154709
-0.00106342
-0.000588803
-0.000136192
0.000242544
0.000544289
0.000799489
0.00100946
0.00117696
0.0013053
0.00139812
0.00145922
0.00149234
0.00150112
0.00148895
0.00145903
0.00141427
0.00135732
0.00129057
0.00121614
0.00113589
0.00105142
0.000964107
0.000875128
0.000785455
0.000695892
0.000607089
0.00051956
0.000433712
0.000349855
0.000268216
0.000188805
0.000111914
3.67794e-05
2.68581e-05
8.27438e-05
0.000142254
0.00020391
0.000267757
0.000333914
0.000402434
0.000473345
0.000546663
0.000622394
0.000700526
0.000781029
0.000863851
0.000948909
0.00103608
0.00112522
0.0012161
0.00130847
0.00140198
0.0014962
0.00159064
0.00168465
0.00177751
0.00186833
0.00195609
0.00203961
0.00211754
0.00218831
0.00225017
0.00230115
0.00234223
0.00236468
0.002364
0.00233974
0.00229147
0.00221889
0.00212185
0.00200038
0.00185473
0.00168547
0.00149348
0.00127999
0.00104662
0.000795538
0.000529426
0.00025151
-3.44035e-05
-0.000323931
-0.000611905
-0.000895371
-0.00117325
-0.00143807
-0.00167789
-0.00188393
-0.00204945
-0.00216798
-0.00223397
-0.00224303
-0.00219226
-0.0020806
-0.0019091
-0.00168104
-0.00140191
-0.00107929
-0.000722557
-0.000342544
4.89504e-05
0.000439631
0.000817081
0.00116985
0.0014566
0.00167754
0.00185609
0.00199363
0.00209288
0.00215695
0.00218929
0.00219342
0.00217285
0.00213095
0.00207092
0.00199572
0.00190809
0.00181052
0.00170524
0.00159421
0.00147917
0.00136158
0.00124271
0.00112362
0.00100519
0.00088814
0.000773051
0.000660372
0.000550446
0.000443526
0.000339783
0.00023918
0.000141966
4.6807e-05
3.08522e-05
9.50943e-05
0.000163497
0.00023443
0.000307968
0.00038425
0.000463364
0.000545373
0.000630336
0.000718299
0.000809294
0.000903334
0.00100041
0.0011005
0.00120352
0.00130937
0.00141792
0.00152895
0.00164219
0.00175731
0.00187386
0.00199132
0.00210905
0.00222626
0.00234207
0.0024554
0.00256504
0.00266957
0.00276739
0.0028567
0.0029422
0.00301465
0.00306515
0.00309322
0.00309841
0.00308043
0.0030391
0.00297445
0.00288672
0.00277644
0.00264444
0.00249189
0.00232031
0.00213169
0.00192849
0.00171365
0.00149065
0.00126342
0.00103661
0.000812303
0.000590213
0.000376863
0.000183751
1.90605e-05
-0.000111589
-0.00020293
-0.000250476
-0.000250774
-0.000201691
-0.000102748
4.46923e-05
0.000237371
0.000470133
0.000736036
0.00102659
0.00133207
0.00164191
0.00194514
0.00223066
0.00248841
0.00268713
0.00283021
0.00293438
0.00300118
0.00303333
0.00303383
0.00300595
0.00295302
0.00287837
0.00278517
0.00267644
0.002555
0.00242343
0.00228407
0.00213902
0.00199011
0.00183895
0.00168689
0.00153509
0.00138452
0.00123598
0.0010901
0.000947411
0.000808299
0.000673058
0.000541882
0.000414894
0.000292012
0.000173435
5.72655e-05
3.49815e-05
0.00010786
0.000185452
0.000265964
0.000349489
0.000436201
0.000526221
0.000619651
0.000716589
0.000817121
0.00092132
0.00102924
0.00114091
0.00125635
0.00137555
0.00149846
0.00162499
0.00175499
0.00188829
0.00202459
0.00216356
0.00230475
0.00244761
0.00259147
0.00273557
0.00287893
0.00302049
0.00315898
0.00329294
0.00342075
0.00355084
0.00367344
0.00377521
0.00385564
0.00391426
0.00395075
0.00396494
0.00395682
0.0039266
0.00387477
0.00380212
0.00370971
0.00359896
0.00347169
0.00333009
0.00317685
0.00301506
0.00284822
0.00268043
0.002513
0.00234443
0.00218027
0.00203173
0.00190639
0.00180876
0.00174309
0.00171296
0.00172101
0.00176867
0.00185589
0.00198103
0.00214084
0.00233043
0.00254336
0.00277189
0.00300722
0.00323985
0.00345994
0.00365757
0.00382385
0.00393727
0.00400445
0.00403571
0.00403278
0.00399839
0.00393551
0.00384727
0.0037369
0.00360755
0.00346227
0.00330394
0.00313526
0.00295868
0.00277641
0.00259043
0.00240245
0.00221395
0.00202619
0.00184023
0.00165694
0.00147705
0.00130114
0.00112967
0.000962973
0.000801289
0.000644762
0.000493463
0.000347272
0.00020634
6.81647e-05
3.92189e-05
0.00012096
0.000207973
0.000298293
0.000392044
0.00048944
0.000590638
0.000695773
0.000804975
0.000918366
0.00103605
0.00115814
0.00128469
0.00141579
0.00155145
0.0016917
0.00183649
0.00198576
0.00213936
0.00229712
0.00245874
0.00262389
0.00279211
0.00296284
0.0031354
0.00330898
0.00348262
0.00365521
0.00382544
0.00399185
0.0041666
0.00433938
0.00449241
0.00462511
0.00473699
0.00482773
0.00489712
0.00494512
0.00497191
0.00497795
0.00496393
0.00493084
0.00487995
0.0048129
0.00473165
0.00463857
0.00453637
0.00442813
0.00431743
0.00420486
0.00408781
0.003971
0.00386539
0.00377782
0.00371179
0.00367073
0.00365742
0.00367375
0.0037205
0.00379713
0.00390179
0.00403118
0.0041806
0.00434404
0.00451437
0.00468357
0.00484301
0.00498388
0.00509721
0.00517518
0.00520563
0.00519854
0.00515807
0.00508616
0.00498564
0.00485944
0.00471067
0.00454245
0.00435785
0.00415982
0.00395113
0.00373437
0.00351188
0.00328575
0.00305783
0.00282973
0.00260282
0.00237826
0.00215702
0.00193991
0.00172758
0.00152056
0.00131923
0.00112389
0.000934735
0.000751844
0.000575246
0.000404787
0.000240575
7.945e-05
4.35533e-05
0.000134347
0.000230971
0.000331299
0.000435492
0.000543799
0.000656407
0.00077348
0.000895182
0.00102167
0.00115309
0.00128958
0.00143126
0.00157825
0.00173063
0.00188846
0.00205175
0.0022205
0.00239465
0.00257406
0.00275855
0.00294784
0.00314159
0.00333933
0.00354049
0.00374439
0.0039502
0.00415695
0.00436348
0.00456849
0.00478785
0.00501073
0.00521484
0.00539957
0.00556443
0.00570905
0.00583322
0.00593684
0.00602008
0.00608331
0.00612716
0.00615251
0.0061605
0.00615255
0.0061304
0.00609608
0.00605197
0.00600069
0.00594533
0.00588587
0.00581878
0.00574796
0.005684
0.00563298
0.00559759
0.00558052
0.00558382
0.00560867
0.00565523
0.00572257
0.0058086
0.00590996
0.00602209
0.0061393
0.00625497
0.00636172
0.00645168
0.00651687
0.00654916
0.00654161
0.00649113
0.00641117
0.00629992
0.0061596
0.00599317
0.00580364
0.0055941
0.00536766
0.00512732
0.00487596
0.00461627
0.00435071
0.00408153
0.00381069
0.00353994
0.00327078
0.00300448
0.00274212
0.0024846
0.00223266
0.00198688
0.00174774
0.00151558
0.00129062
0.00107301
0.000862803
0.000659969
0.000464333
0.000275969
9.10247e-05
4.79671e-05
0.000147966
0.000254364
0.000364882
0.000479716
0.000599137
0.000723357
0.00085257
0.000986973
0.00112676
0.00127212
0.00142324
0.00158027
0.00174337
0.00191267
0.00208829
0.00227029
0.00245873
0.0026536
0.00285484
0.00306236
0.00327595
0.00349535
0.00372021
0.00395007
0.00418436
0.00442238
0.0046633
0.0049061
0.00514964
0.00541348
0.00568625
0.0059412
0.00617768
0.00639516
0.00659328
0.00677177
0.00693051
0.00706962
0.00718942
0.00729043
0.00737342
0.00743939
0.00748955
0.00752539
0.00754865
0.00756133
0.00756566
0.00756422
0.00755649
0.00753823
0.00751256
0.00748943
0.00747425
0.00746908
0.00747588
0.00749596
0.00752985
0.00757719
0.00763666
0.00770592
0.00778153
0.00785903
0.00793298
0.00799717
0.00804473
0.00806845
0.00806101
0.00801501
0.00792425
0.00779444
0.00764262
0.00746121
0.00725274
0.00702039
0.00676729
0.00649662
0.00621149
0.00591487
0.00560958
0.00529822
0.00498317
0.00466652
0.00435016
0.0040357
0.00372456
0.00341792
0.00311681
0.00282205
0.00253432
0.00225416
0.00198197
0.00171804
0.00146255
0.0012156
0.00097719
0.000747258
0.000525613
0.000312298
0.000102766
5.24537e-05
0.000161802
0.000278135
0.000399009
0.000524642
0.000655334
0.000791327
0.000932849
0.00108013
0.00123341
0.0013929
0.00155882
0.00173139
0.0019108
0.00209721
0.0022908
0.00249168
0.00269997
0.00291573
0.00313896
0.00336962
0.00360763
0.00385278
0.00410484
0.00436346
0.00462817
0.00489841
0.00517347
0.00545247
0.00573441
0.00604255
0.00636495
0.00667044
0.00695833
0.00722808
0.00747928
0.00771165
0.00792505
0.00811952
0.00829533
0.00845291
0.00859288
0.00871609
0.00882355
0.00891651
0.0089964
0.00906489
0.00912378
0.00917518
0.00921815
0.00924803
0.00926707
0.00928444
0.00930499
0.00933011
0.00936107
0.00939848
0.00944224
0.00949152
0.00954464
0.00959899
0.00965104
0.00969638
0.00972977
0.00974529
0.00973653
0.00969678
0.00961929
0.00949725
0.0093251
0.0091171
0.00889402
0.00864268
0.008366
0.00806744
0.00775033
0.00741797
0.00707351
0.00671994
0.00636001
0.00599624
0.00563088
0.00526593
0.00490316
0.00454409
0.00419004
0.00384214
0.00350133
0.0031684
0.00284397
0.00252851
0.00222238
0.00192581
0.00163894
0.00136182
0.00109441
0.000836615
0.000588238
0.000349288
0.000114531
5.70068e-05
0.000175838
0.000302243
0.000433607
0.000570172
0.000712268
0.000860175
0.00101415
0.00117447
0.00134139
0.00151517
0.00169607
0.00188433
0.0020802
0.00228389
0.0024956
0.00271553
0.00294381
0.00318058
0.00342591
0.00367984
0.00394233
0.00421331
0.00449261
0.00478
0.00507513
0.00537755
0.00568666
0.00600173
0.00632188
0.00667406
0.00704579
0.00740147
0.00774039
0.00806199
0.00836586
0.00865168
0.00891929
0.00916868
0.00940003
0.00961367
0.0098101
0.00998998
0.0101541
0.0103036
0.0104394
0.010563
0.0106757
0.0107792
0.0108722
0.0109498
0.0110136
0.0110716
0.0111282
0.0111841
0.0112399
0.0112955
0.0113502
0.0114027
0.0114511
0.0114924
0.0115231
0.0115386
0.0115339
0.0115033
0.0114407
0.0113399
0.0111946
0.0109984
0.0107462
0.0104608
0.0101668
0.00984554
0.00950035
0.00913506
0.00875328
0.00835846
0.00795386
0.00754246
0.00712698
0.00670984
0.00629321
0.00587897
0.00546879
0.00506412
0.00466619
0.00427606
0.00389463
0.00352262
0.00316059
0.00280897
0.00246805
0.00213803
0.001819
0.00151097
0.00121385
0.000927533
0.000651819
0.000386682
0.000126184
6.16145e-05
0.000190029
0.000326598
0.000468542
0.000616142
0.000769762
0.00092971
0.00109628
0.00126976
0.00145046
0.00163866
0.00183467
0.00203877
0.00225123
0.00247233
0.0027023
0.00294139
0.00318979
0.00344768
0.0037152
0.00399246
0.00427951
0.00457634
0.00488289
0.00519903
0.00552452
0.00585902
0.00620204
0.00655298
0.00691109
0.00730699
0.00772767
0.00813314
0.00852266
0.00889568
0.00925178
0.00959064
0.00991204
0.0102159
0.0105024
0.0107718
0.0110242
0.0112604
0.0114808
0.0116863
0.0118776
0.0120558
0.0122219
0.0123771
0.0125198
0.0126453
0.0127541
0.0128534
0.0129468
0.0130342
0.0131157
0.0131905
0.0132574
0.0133148
0.0133601
0.0133903
0.0134016
0.0133895
0.013349
0.0132747
0.0131607
0.013001
0.0127897
0.0125209
0.01219
0.0118277
0.0114629
0.0110715
0.0106574
0.0102247
0.00977737
0.00931912
0.00885329
0.00838291
0.00791067
0.00743895
0.00696982
0.00650509
0.00604634
0.00559494
0.00515205
0.00471868
0.00429565
0.00388362
0.0034831
0.00309447
0.00271797
0.00235374
0.00200185
0.00166225
0.00133484
0.00101947
0.00071595
0.000424218
0.000137588
6.62621e-05
0.00020433
0.000351128
0.000503731
0.000662455
0.000827693
0.000999779
0.00117904
0.00136579
0.00156036
0.00176309
0.00197431
0.00219434
0.0024235
0.0026621
0.00291043
0.00316877
0.00343737
0.00371645
0.00400623
0.00430686
0.00461848
0.00494117
0.00527496
0.0056198
0.00597556
0.006342
0.00671874
0.00710529
0.00750105
0.00794028
0.00840947
0.00886429
0.00930398
0.00972798
0.0101359
0.0105274
0.0109022
0.0112603
0.0116016
0.0119263
0.0122345
0.0125267
0.0128031
0.0130644
0.0133111
0.0135438
0.0137632
0.01397
0.0141625
0.0143362
0.0144907
0.0146323
0.0147634
0.0148835
0.0149918
0.0150871
0.0151678
0.0152315
0.0152756
0.0152966
0.0152905
0.015253
0.015179
0.0150632
0.0148998
0.0146832
0.0144077
0.0140676
0.0136588
0.0132202
0.0127847
0.0123229
0.0118393
0.0113384
0.0108245
0.0103016
0.00977318
0.00924234
0.00871182
0.00818396
0.0076608
0.0071441
0.00663539
0.00613596
0.00564691
0.00516917
0.00470348
0.00425045
0.00381054
0.00338404
0.00297118
0.00257204
0.00218664
0.00181492
0.00145672
0.00111187
0.000780216
0.000461618
0.000148586
7.09357e-05
0.000218702
0.000375792
0.000539133
0.000709062
0.000885994
0.00107029
0.0012623
0.00146237
0.00167089
0.00188821
0.0021147
0.00235072
0.00259665
0.00285281
0.00311955
0.00339718
0.00368601
0.00398632
0.00429836
0.00462238
0.00495857
0.00530709
0.00566806
0.00604151
0.00642741
0.0068256
0.00723581
0.00765765
0.0080907
0.00857282
0.00909004
0.00959373
0.0100831
0.0105577
0.011017
0.0114608
0.0118887
0.0123007
0.0126966
0.0130765
0.0134404
0.0137885
0.014121
0.0144381
0.0147402
0.0150276
0.0153005
0.0155591
0.0158019
0.0160245
0.0162259
0.0164108
0.0165809
0.0167349
0.0168715
0.0169888
0.0170847
0.0171566
0.0172012
0.017215
0.0171937
0.0171329
0.0170275
0.0168722
0.0166614
0.0163896
0.0160515
0.0156415
0.0151557
0.0146412
0.0141351
0.0136026
0.0130488
0.0124788
0.0118971
0.0113081
0.0107154
0.0101223
0.00953157
0.00894567
0.00836664
0.00779622
0.0072359
0.00668692
0.00615031
0.00562691
0.00511741
0.00462233
0.00414207
0.00367687
0.00322689
0.00279217
0.00237269
0.00196834
0.00157893
0.00120428
0.000844236
0.000498603
0.000159004
7.56397e-05
0.000233163
0.000400609
0.000574742
0.000755921
0.000944587
0.00114113
0.00134593
0.00155938
0.00178188
0.00201384
0.00225564
0.00250769
0.0027704
0.00304414
0.00332928
0.0036262
0.00393525
0.00425676
0.00459104
0.0049384
0.0052991
0.00567337
0.00606141
0.00646333
0.00687916
0.00730885
0.00775222
0.00820899
0.0086789
0.00920343
0.00976816
0.0103202
0.0108588
0.0113836
0.0118939
0.0123897
0.0128705
0.0133362
0.0137867
0.0142217
0.0146414
0.0150455
0.0154343
0.0158076
0.0161656
0.016508
0.016835
0.0171462
0.01744
0.0177124
0.0179621
0.0181917
0.0184021
0.0185914
0.0187577
0.0188987
0.0190117
0.0190934
0.0191406
0.0191491
0.0191147
0.0190327
0.0188979
0.0187051
0.0184488
0.0181236
0.0177242
0.0172454
0.0166836
0.0160937
0.0155169
0.0149135
0.0142888
0.0136486
0.0129978
0.0123409
0.011682
0.0110246
0.0103715
0.00972541
0.00908838
0.00846221
0.00784838
0.00724808
0.00666229
0.00609177
0.00553714
0.00499884
0.00447719
0.00397238
0.0034845
0.00301353
0.0025594
0.00212196
0.001701
0.00129626
0.000907656
0.000534893
0.000168649
8.03746e-05
0.000247704
0.000425539
0.000610487
0.000802937
0.00100336
0.00121218
0.0014298
0.00165666
0.00189318
0.00213978
0.00239691
0.002665
0.00294448
0.00323577
0.0035393
0.00385546
0.00418467
0.0045273
0.00488374
0.00525435
0.00563945
0.00603934
0.00645427
0.00688444
0.00732995
0.00779081
0.00826695
0.00875823
0.00926454
0.00983096
0.0104426
0.0110425
0.01163
0.0122045
0.0127656
0.0133132
0.0138467
0.0143661
0.0148712
0.0153616
0.0158372
0.0162979
0.0167434
0.0171736
0.0175881
0.0179865
0.0183684
0.0187331
0.0190788
0.0194024
0.0197016
0.0199775
0.0202297
0.0204559
0.0206537
0.02082
0.0209518
0.0210454
0.021097
0.0211024
0.0210569
0.0209557
0.0207936
0.0205652
0.0202652
0.0198881
0.0194288
0.0188825
0.0182454
0.0175804
0.0169332
0.0162584
0.0155621
0.0148506
0.0141291
0.0134027
0.0126755
0.0119515
0.0112337
0.010525
0.00982767
0.00914348
0.00847398
0.00782035
0.00718352
0.0065642
0.00596293
0.00538007
0.00481587
0.00427043
0.00374377
0.00323582
0.00274645
0.00227546
0.00182258
0.0013875
0.000970189
0.000570236
0.000177325
8.512e-05
0.000262259
0.000450473
0.00064623
0.000849955
0.00106215
0.00128325
0.00151372
0.00175399
0.00200452
0.00226577
0.00253821
0.00282231
0.00311853
0.00342733
0.00374917
0.00408451
0.00443379
0.00479746
0.00517594
0.00556966
0.005979
0.00640432
0.00684592
0.00730405
0.00777889
0.00827054
0.00877902
0.00930433
0.00984654
0.0104543
0.0111124
0.0117596
0.0123955
0.0130194
0.0136311
0.0142303
0.0148166
0.0153898
0.0159497
0.0164958
0.017028
0.0175458
0.0180489
0.0185368
0.0190089
0.0194644
0.0199024
0.0203218
0.0207208
0.0210968
0.0214471
0.0217708
0.0220664
0.0223312
0.0225621
0.0227556
0.0229081
0.0230155
0.0230736
0.0230778
0.0230233
0.022905
0.0227176
0.0224555
0.0221135
0.0216861
0.0211683
0.0205554
0.0198439
0.0191043
0.0183865
0.0176399
0.0168714
0.0160874
0.0152937
0.0144959
0.0136984
0.0129055
0.0121207
0.011347
0.0105868
0.00984214
0.00911458
0.00840534
0.00771535
0.00704529
0.00639563
0.00576667
0.00515855
0.00457131
0.00400487
0.00345911
0.00293382
0.00242875
0.00194354
0.00147785
0.00103166
0.000604447
0.000184845
8.98502e-05
0.000276763
0.000475328
0.000681882
0.000896873
0.00112082
0.00135421
0.00159749
0.00185114
0.00211565
0.00239151
0.00267921
0.00297925
0.00329214
0.00361837
0.00395844
0.00431285
0.00468209
0.00506667
0.00546705
0.00588371
0.00631709
0.0067676
0.00723558
0.00772133
0.00822511
0.00874709
0.00928742
0.00984625
0.0104238
0.0110724
0.0117764
0.0124705
0.0131543
0.0138274
0.0144895
0.0151403
0.0157795
0.0164068
0.0170219
0.0176244
0.0182139
0.0187898
0.0193516
0.0198984
0.0204294
0.0209433
0.021439
0.0219145
0.0223683
0.0227983
0.0232012
0.0235742
0.023915
0.0242201
0.0244859
0.0247083
0.0248834
0.0250065
0.0250731
0.0250783
0.0250169
0.0248835
0.0246727
0.0243789
0.0239965
0.0235204
0.0229454
0.022267
0.0214818
0.0206679
0.0198794
0.0190607
0.018219
0.0173614
0.0164942
0.0156232
0.0147535
0.0138896
0.0130355
0.0121942
0.0113687
0.0105609
0.00977272
0.00900538
0.00825988
0.00753687
0.00683681
0.00615992
0.00550628
0.00487584
0.00426844
0.00368387
0.00312186
0.00258206
0.00206403
0.00156735
0.00109204
0.000637428
0.00019104
9.45641e-05
0.000291222
0.000500119
0.000717452
0.000943685
0.00117936
0.00142497
0.00168101
0.00194798
0.00222638
0.00251675
0.00281961
0.00313549
0.00346493
0.00380847
0.00416663
0.00453996
0.00492902
0.00533432
0.00575642
0.0061958
0.00665298
0.00712837
0.00762238
0.00813536
0.00866761
0.00921944
0.00979109
0.0103829
0.0109954
0.0116842
0.0124336
0.0131742
0.0139057
0.0146278
0.0153402
0.0160427
0.0167351
0.0174169
0.0180879
0.0187476
0.0193954
0.0200306
0.0206524
0.0212596
0.021851
0.0224251
0.02298
0.0235135
0.0240238
0.0245094
0.0249665
0.0253905
0.025778
0.026125
0.0264274
0.0266807
0.0268802
0.0270211
0.0270983
0.0271065
0.0270403
0.0268939
0.0266617
0.026338
0.0259171
0.0253938
0.0247629
0.02402
0.0231617
0.0222735
0.0214143
0.0205229
0.0196073
0.0186751
0.017733
0.0167874
0.0158438
0.014907
0.0139812
0.0130701
0.0121766
0.0113031
0.0104516
0.00962347
0.00881987
0.00804149
0.00728875
0.00656185
0.00586082
0.00518552
0.00453573
0.00391115
0.00331139
0.00273603
0.00218451
0.00165631
0.00115149
0.000669195
0.000195769
9.92739e-05
0.000305666
0.00052487
0.000752938
0.000990362
0.0012377
0.00149546
0.00176417
0.00204435
0.00233654
0.0026413
0.00295918
0.00329075
0.00363658
0.00399724
0.00437331
0.00476538
0.00517403
0.00559984
0.00604339
0.00650522
0.00698586
0.00748578
0.00800541
0.00854515
0.00910539
0.00968651
0.010289
0.0109132
0.0115601
0.0122887
0.013083
0.0138698
0.0146487
0.0154197
0.0161825
0.016937
0.0176829
0.01842
0.0191478
0.0198657
0.0205731
0.021269
0.0219524
0.0226218
0.0232755
0.0239116
0.0245277
0.025121
0.0256897
0.0262326
0.0267454
0.027222
0.0276578
0.0280484
0.0283892
0.028675
0.0289009
0.0290615
0.0291514
0.0291648
0.0290959
0.0289387
0.0286873
0.0283356
0.027878
0.027309
0.0266236
0.025817
0.0248861
0.0239238
0.0229935
0.0220289
0.0210387
0.020031
0.019013
0.0179915
0.0169723
0.0159608
0.0149614
0.0139781
0.0130142
0.0120723
0.0111548
0.0102632
0.0093988
0.00856241
0.00775449
0.00697524
0.00622467
0.00550259
0.0048087
0.00414261
0.00350382
0.00289179
0.00230585
0.00174535
0.00121038
0.000699896
0.000198918
0.00010397
0.000320053
0.000549501
0.000788232
0.00103676
0.00129567
0.0015655
0.00184678
0.00214006
0.00244592
0.00276493
0.00309767
0.00344475
0.00380678
0.00418436
0.00457811
0.00498866
0.00541663
0.00586266
0.00632734
0.00681127
0.00731498
0.00783898
0.00838375
0.00894972
0.00953739
0.0101473
0.0107799
0.0114361
0.0121168
0.0128848
0.0137236
0.0145563
0.0153826
0.0162025
0.0170159
0.0178228
0.018623
0.0194161
0.0202018
0.0209793
0.0217478
0.0225062
0.0232529
0.0239864
0.0247044
0.0254045
0.0260839
0.0267392
0.0273683
0.0279702
0.0285403
0.029071
0.0295567
0.0299925
0.0303733
0.0306935
0.0309478
0.0311302
0.0312349
0.0312557
0.0311863
0.0310206
0.0307521
0.0303746
0.0298822
0.0292691
0.0285303
0.027661
0.0266579
0.0256215
0.0246197
0.0235815
0.0225159
0.0214318
0.0203369
0.0192383
0.0181422
0.0170543
0.0159794
0.0149219
0.0138852
0.0128726
0.0118864
0.0109286
0.0100007
0.00910359
0.00823782
0.00740367
0.00660116
0.00583007
0.00509005
0.00438061
0.00370116
0.00305102
0.00242939
0.00183546
0.00126936
0.000729824
0.000200408
0.000108626
0.0003343
0.000573881
0.000823172
0.00108271
0.00135308
0.00163486
0.0019286
0.00223487
0.00255425
0.00288734
0.00323477
0.00359717
0.00397517
0.00436943
0.00478059
0.00520934
0.00565634
0.00612223
0.00660767
0.00711325
0.00763956
0.00818713
0.00875647
0.0093481
0.00996259
0.0106006
0.0112629
0.0119505
0.0126646
0.0134716
0.0143546
0.015233
0.0161066
0.0169756
0.0178401
0.0187
0.0195553
0.0204057
0.0212506
0.0220892
0.0229205
0.0237432
0.0245554
0.025355
0.0261395
0.0269058
0.0276507
0.0283701
0.0290616
0.0297244
0.0303533
0.0309395
0.0314766
0.0319593
0.0323818
0.0327384
0.0330229
0.0332293
0.0333511
0.0333816
0.0333143
0.0331423
0.0328591
0.032458
0.0319327
0.0312773
0.0304864
0.0295552
0.0284803
0.0273695
0.026296
0.0251835
0.0240419
0.0228806
0.0217077
0.0205308
0.0193565
0.0181907
0.0170386
0.0159049
0.0147935
0.0137079
0.0126507
0.0116243
0.0106302
0.00966961
0.00874325
0.00785148
0.00699438
0.00617176
0.00538324
0.00462825
0.00390611
0.00321599
0.00255695
0.00192803
0.00132934
0.000759403
0.000200171
0.000113227
0.000348364
0.000597942
0.00085766
0.00112807
0.00140978
0.00170337
0.00200941
0.00232849
0.00266122
0.00300821
0.00337011
0.0037476
0.00414133
0.004552
0.00498029
0.00542692
0.00589258
0.00637795
0.0068837
0.00741045
0.00795881
0.00852936
0.00912265
0.00973931
0.01038
0.0110455
0.0117369
0.0124553
0.0132025
0.014048
0.014975
0.015899
0.0168201
0.0177386
0.0186548
0.0195686
0.0204802
0.0213891
0.0222947
0.0231963
0.0240924
0.0249814
0.0258613
0.0267293
0.0275824
0.0284172
0.0292297
0.0300155
0.0307716
0.031497
0.0321861
0.0328294
0.0334195
0.0339507
0.0344168
0.0348117
0.0351288
0.0353614
0.0355026