/*--------------------------------*- C++ -*----------------------------------*\
  =========                 |
  \\      /  F ield         | OpenFOAM: The Open Source CFD Toolbox
   \\    /   O peration     | Website:  https://openfoam.org
    \\  /    A nd           | Version:  9
     \\/     M anipulation  |
\*---------------------------------------------------------------------------*/
FoamFile
{
    format      ascii;
    class       surfaceScalarField;
    location    "0.03";
    object      phi;
}
// * * * * * * * * * * * * * * * * * * * * * * * * * * * * * * * * * * * * * //

dimensions      [0 3 -1 0 0 0 0];

internalField   nonuniform List<scalar> 
39700
(
-2.14033e-07
1.4657e-06
-2.14024e-07
1.53648e-06
-2.14019e-07
1.61058e-06
-2.14015e-07
1.68816e-06
-2.14011e-07
1.7694e-06
-2.14006e-07
1.85445e-06
-2.14001e-07
1.94348e-06
-2.13996e-07
2.03668e-06
-2.1399e-07
2.13421e-06
-2.13984e-07
2.23626e-06
-2.13977e-07
2.34303e-06
-2.13969e-07
2.45471e-06
-2.13961e-07
2.5715e-06
-2.13952e-07
2.69362e-06
-2.13943e-07
2.82128e-06
-2.13932e-07
2.95472e-06
-2.13921e-07
3.09414e-06
-2.13909e-07
3.23981e-06
-2.13896e-07
3.39195e-06
-2.13883e-07
3.55081e-06
-2.13868e-07
3.71664e-06
-2.13851e-07
3.8897e-06
-2.13834e-07
4.07025e-06
-2.13815e-07
4.25853e-06
-2.13795e-07
4.45481e-06
-2.13773e-07
4.65935e-06
-2.13749e-07
4.87238e-06
-2.13723e-07
5.09414e-06
-2.13695e-07
5.32487e-06
-2.13664e-07
5.56478e-06
-2.13628e-07
6.78082e-06
-2.1359e-07
6.74827e-06
-2.1355e-07
6.71543e-06
-2.13509e-07
6.68228e-06
-2.13466e-07
6.6488e-06
-2.13423e-07
6.61498e-06
-2.13378e-07
6.58083e-06
-2.13333e-07
6.54637e-06
-2.13287e-07
6.51163e-06
-2.13242e-07
6.47665e-06
-2.13197e-07
6.44149e-06
-2.13154e-07
6.40622e-06
-2.13114e-07
6.37091e-06
-2.13077e-07
6.33566e-06
-2.13044e-07
6.3006e-06
-2.13019e-07
6.26587e-06
-2.13001e-07
6.23164e-06
-2.12994e-07
6.19808e-06
-2.13e-07
6.16547e-06
-2.13024e-07
6.13411e-06
-2.13067e-07
6.1044e-06
-2.13132e-07
6.07675e-06
-2.1322e-07
6.05155e-06
-2.13336e-07
6.02928e-06
-2.1348e-07
6.0105e-06
-2.13653e-07
5.9958e-06
-2.1385e-07
5.98581e-06
-2.14069e-07
5.98109e-06
-2.143e-07
5.98216e-06
-2.14536e-07
5.98943e-06
-2.14766e-07
6.00321e-06
-2.1498e-07
6.02359e-06
-2.15167e-07
6.05052e-06
-2.1532e-07
6.08376e-06
-2.15433e-07
6.1229e-06
-2.15506e-07
6.16742e-06
-2.15539e-07
6.21673e-06
-2.15533e-07
6.27018e-06
-2.15494e-07
6.32716e-06
-2.15426e-07
6.38701e-06
-2.15346e-07
5.26506e-06
-2.15257e-07
5.05855e-06
-2.15165e-07
4.85838e-06
-2.15073e-07
4.66437e-06
-2.14983e-07
4.4764e-06
-2.14897e-07
4.29441e-06
-2.14814e-07
4.11831e-06
-2.14736e-07
3.94804e-06
-2.14663e-07
3.78352e-06
-2.14595e-07
3.62467e-06
-2.14532e-07
3.4714e-06
-2.14473e-07
3.32362e-06
-2.14419e-07
3.18122e-06
-2.1437e-07
3.0441e-06
-2.14325e-07
2.91214e-06
-2.14284e-07
2.78522e-06
-2.14247e-07
2.66322e-06
-2.14214e-07
2.54602e-06
-2.14184e-07
2.43347e-06
-2.14158e-07
2.32545e-06
-2.14134e-07
2.22183e-06
-2.14113e-07
2.12246e-06
-2.14095e-07
2.02721e-06
-2.14079e-07
1.93596e-06
-2.14066e-07
1.84855e-06
-2.14056e-07
1.76488e-06
-2.14049e-07
1.68482e-06
-2.14046e-07
1.60824e-06
-2.14043e-07
1.53504e-06
1.46523e-06
-2.14114e-07
1.46566e-06
-2.14092e-07
1.53646e-06
-2.14078e-07
1.61057e-06
-2.14066e-07
1.68815e-06
-2.14055e-07
1.76939e-06
-2.14043e-07
1.85444e-06
-2.14031e-07
1.94347e-06
-2.14017e-07
2.03666e-06
-2.14001e-07
2.13419e-06
-2.13984e-07
2.23624e-06
-2.13965e-07
2.34301e-06
-2.13945e-07
2.45469e-06
-2.13923e-07
2.57148e-06
-2.13898e-07
2.6936e-06
-2.13872e-07
2.82126e-06
-2.13844e-07
2.95469e-06
-2.13813e-07
3.09411e-06
-2.13779e-07
3.23977e-06
-2.13743e-07
3.39191e-06
-2.13704e-07
3.55077e-06
-2.13662e-07
3.7166e-06
-2.13617e-07
3.88966e-06
-2.13567e-07
4.0702e-06
-2.13514e-07
4.25848e-06
-2.13456e-07
4.45476e-06
-2.13394e-07
4.65928e-06
-2.13326e-07
4.87231e-06
-2.13253e-07
5.09407e-06
-2.13173e-07
5.32479e-06
-2.13088e-07
5.56469e-06
-2.12983e-07
6.78072e-06
-2.12875e-07
6.74816e-06
-2.12762e-07
6.71532e-06
-2.12646e-07
6.68217e-06
-2.12527e-07
6.64868e-06
-2.12404e-07
6.61486e-06
-2.12279e-07
6.58071e-06
-2.12153e-07
6.54624e-06
-2.12026e-07
6.5115e-06
-2.11901e-07
6.47653e-06
-2.11779e-07
6.44137e-06
-2.11662e-07
6.4061e-06
-2.11552e-07
6.3708e-06
-2.11454e-07
6.33556e-06
-2.1137e-07
6.30052e-06
-2.11305e-07
6.26581e-06
-2.11264e-07
6.23159e-06
-2.11254e-07
6.19807e-06
-2.11282e-07
6.16549e-06
-2.11357e-07
6.13418e-06
-2.11484e-07
6.10453e-06
-2.1167e-07
6.07693e-06
-2.1192e-07
6.0518e-06
-2.12242e-07
6.0296e-06
-2.12637e-07
6.0109e-06
-2.13103e-07
5.99627e-06
-2.13634e-07
5.98634e-06
-2.14214e-07
5.98167e-06
-2.14827e-07
5.98277e-06
-2.15449e-07
5.99006e-06
-2.16053e-07
6.00381e-06
-2.16614e-07
6.02415e-06
-2.17107e-07
6.05101e-06
-2.17511e-07
6.08416e-06
-2.17814e-07
6.1232e-06
-2.18011e-07
6.16762e-06
-2.18101e-07
6.21682e-06
-2.1809e-07
6.27017e-06
-2.17988e-07
6.32705e-06
-2.17805e-07
6.38682e-06
-2.17595e-07
5.26485e-06
-2.1736e-07
5.05832e-06
-2.17113e-07
4.85814e-06
-2.16865e-07
4.66412e-06
-2.16621e-07
4.47616e-06
-2.16385e-07
4.29417e-06
-2.16159e-07
4.11808e-06
-2.15945e-07
3.94783e-06
-2.15745e-07
3.78332e-06
-2.15557e-07
3.62448e-06
-2.15383e-07
3.47123e-06
-2.15222e-07
3.32346e-06
-2.15075e-07
3.18107e-06
-2.14939e-07
3.04396e-06
-2.14817e-07
2.91202e-06
-2.14705e-07
2.78511e-06
-2.14605e-07
2.66312e-06
-2.14515e-07
2.54593e-06
-2.14435e-07
2.43339e-06
-2.14364e-07
2.32538e-06
-2.14301e-07
2.22177e-06
-2.14246e-07
2.12241e-06
-2.14198e-07
2.02717e-06
-2.14157e-07
1.93592e-06
-2.14124e-07
1.84852e-06
-2.14098e-07
1.76486e-06
-2.1408e-07
1.6848e-06
-2.14069e-07
1.60823e-06
-2.14057e-07
1.53503e-06
1.46522e-06
-2.14205e-07
1.46564e-06
-2.14183e-07
1.53644e-06
-2.14165e-07
1.61055e-06
-2.14151e-07
1.68814e-06
-2.14136e-07
1.76937e-06
-2.1412e-07
1.85442e-06
-2.14102e-07
1.94345e-06
-2.14082e-07
2.03664e-06
-2.14059e-07
2.13417e-06
-2.14034e-07
2.23622e-06
-2.14005e-07
2.34298e-06
-2.13974e-07
2.45466e-06
-2.1394e-07
2.57144e-06
-2.13903e-07
2.69356e-06
-2.13862e-07
2.82122e-06
-2.13817e-07
2.95464e-06
-2.13769e-07
3.09406e-06
-2.13717e-07
3.23972e-06
-2.1366e-07
3.39185e-06
-2.13598e-07
3.55071e-06
-2.13531e-07
3.71653e-06
-2.13459e-07
3.88958e-06
-2.1338e-07
4.07012e-06
-2.13295e-07
4.25839e-06
-2.13204e-07
4.45467e-06
-2.13104e-07
4.65918e-06
-2.12996e-07
4.8722e-06
-2.1288e-07
5.09395e-06
-2.12754e-07
5.32466e-06
-2.12618e-07
5.56456e-06
-2.1245e-07
6.78055e-06
-2.12277e-07
6.74799e-06
-2.12098e-07
6.71514e-06
-2.11913e-07
6.68198e-06
-2.11723e-07
6.64849e-06
-2.11529e-07
6.61466e-06
-2.11332e-07
6.58051e-06
-2.11134e-07
6.54604e-06
-2.10936e-07
6.5113e-06
-2.10741e-07
6.47633e-06
-2.10551e-07
6.44118e-06
-2.10371e-07
6.40592e-06
-2.10204e-07
6.37063e-06
-2.10055e-07
6.33541e-06
-2.09931e-07
6.3004e-06
-2.09837e-07
6.26572e-06
-2.09782e-07
6.23154e-06
-2.09777e-07
6.19807e-06
-2.09833e-07
6.16555e-06
-2.0996e-07
6.13431e-06
-2.1017e-07
6.10474e-06
-2.10468e-07
6.07723e-06
-2.10865e-07
6.0522e-06
-2.11368e-07
6.03011e-06
-2.1198e-07
6.01151e-06
-2.12696e-07
5.99699e-06
-2.13505e-07
5.98714e-06
-2.14386e-07
5.98255e-06
-2.15311e-07
5.98369e-06
-2.16247e-07
5.99099e-06
-2.17156e-07
6.00472e-06
-2.17998e-07
6.02499e-06
-2.18739e-07
6.05175e-06
-2.19349e-07
6.08477e-06
-2.19808e-07
6.12366e-06
-2.20108e-07
6.16792e-06
-2.20247e-07
6.21695e-06
-2.20233e-07
6.27016e-06
-2.20077e-07
6.3269e-06
-2.19796e-07
6.38654e-06
-2.1948e-07
5.26454e-06
-2.19122e-07
5.05796e-06
-2.18744e-07
4.85776e-06
-2.18361e-07
4.66374e-06
-2.17984e-07
4.47578e-06
-2.17618e-07
4.29381e-06
-2.17267e-07
4.11773e-06
-2.16934e-07
3.94749e-06
-2.16621e-07
3.78301e-06
-2.16328e-07
3.62419e-06
-2.16056e-07
3.47095e-06
-2.15805e-07
3.32321e-06
-2.15574e-07
3.18084e-06
-2.15364e-07
3.04375e-06
-2.15172e-07
2.91182e-06
-2.14999e-07
2.78494e-06
-2.14843e-07
2.66297e-06
-2.14703e-07
2.54579e-06
-2.14579e-07
2.43327e-06
-2.14468e-07
2.32527e-06
-2.14371e-07
2.22167e-06
-2.14287e-07
2.12232e-06
-2.14214e-07
2.02709e-06
-2.14152e-07
1.93585e-06
-2.141e-07
1.84847e-06
-2.14059e-07
1.76482e-06
-2.14028e-07
1.68477e-06
-2.14004e-07
1.6082e-06
-2.13982e-07
1.53501e-06
1.4652e-06
-2.14334e-07
1.46562e-06
-2.14314e-07
1.53642e-06
-2.14296e-07
1.61053e-06
-2.1428e-07
1.68812e-06
-2.14263e-07
1.76935e-06
-2.14244e-07
1.8544e-06
-2.14222e-07
1.94343e-06
-2.14197e-07
2.03662e-06
-2.14168e-07
2.13414e-06
-2.14135e-07
2.23619e-06
-2.14099e-07
2.34295e-06
-2.14058e-07
2.45462e-06
-2.14014e-07
2.5714e-06
-2.13965e-07
2.69351e-06
-2.13911e-07
2.82116e-06
-2.13852e-07
2.95458e-06
-2.13788e-07
3.094e-06
-2.13718e-07
3.23965e-06
-2.13643e-07
3.39178e-06
-2.1356e-07
3.55062e-06
-2.13471e-07
3.71644e-06
-2.13374e-07
3.88949e-06
-2.13269e-07
4.07001e-06
-2.13155e-07
4.25828e-06
-2.13031e-07
4.45454e-06
-2.12898e-07
4.65905e-06
-2.12753e-07
4.87206e-06
-2.12597e-07
5.09379e-06
-2.12427e-07
5.3245e-06
-2.12246e-07
5.56438e-06
-2.12019e-07
6.78032e-06
-2.11786e-07
6.74775e-06
-2.11545e-07
6.7149e-06
-2.11298e-07
6.68173e-06
-2.11044e-07
6.64824e-06
-2.10785e-07
6.6144e-06
-2.10522e-07
6.58025e-06
-2.10259e-07
6.54578e-06
-2.09996e-07
6.51104e-06
-2.09739e-07
6.47607e-06
-2.0949e-07
6.44093e-06
-2.09254e-07
6.40568e-06
-2.09037e-07
6.37041e-06
-2.08846e-07
6.33522e-06
-2.08689e-07
6.30024e-06
-2.08574e-07
6.2656e-06
-2.08512e-07
6.23148e-06
-2.08516e-07
6.19807e-06
-2.08601e-07
6.16563e-06
-2.0878e-07
6.13449e-06
-2.09066e-07
6.10502e-06
-2.09468e-07
6.07763e-06
-2.09996e-07
6.05273e-06
-2.10659e-07
6.03077e-06
-2.11459e-07
6.01231e-06
-2.12389e-07
5.99792e-06
-2.13434e-07
5.98819e-06
-2.14567e-07
5.98368e-06
-2.15753e-07
5.98488e-06
-2.16949e-07
5.99219e-06
-2.18109e-07
6.00588e-06
-2.19184e-07
6.02607e-06
-2.20129e-07
6.0527e-06
-2.20909e-07
6.08555e-06
-2.21498e-07
6.12425e-06
-2.21883e-07
6.1683e-06
-2.22062e-07
6.21713e-06
-2.22043e-07
6.27014e-06
-2.21841e-07
6.3267e-06
-2.21474e-07
6.38618e-06
-2.21064e-07
5.26413e-06
-2.20599e-07
5.0575e-06
-2.20106e-07
4.85727e-06
-2.19605e-07
4.66324e-06
-2.19108e-07
4.47529e-06
-2.18626e-07
4.29332e-06
-2.18162e-07
4.11727e-06
-2.17722e-07
3.94705e-06
-2.17307e-07
3.78259e-06
-2.1692e-07
3.6238e-06
-2.1656e-07
3.47059e-06
-2.16227e-07
3.32287e-06
-2.15922e-07
3.18054e-06
-2.15643e-07
3.04347e-06
-2.15389e-07
2.91157e-06
-2.1516e-07
2.78471e-06
-2.14954e-07
2.66276e-06
-2.1477e-07
2.5456e-06
-2.14606e-07
2.4331e-06
-2.14461e-07
2.32513e-06
-2.14334e-07
2.22154e-06
-2.14224e-07
2.12221e-06
-2.14129e-07
2.027e-06
-2.14048e-07
1.93577e-06
-2.13981e-07
1.8484e-06
-2.13927e-07
1.76476e-06
-2.13883e-07
1.68472e-06
-2.13848e-07
1.60817e-06
-2.13819e-07
1.53498e-06
1.46518e-06
-2.1452e-07
1.46561e-06
-2.14503e-07
1.5364e-06
-2.14485e-07
1.61051e-06
-2.14467e-07
1.6881e-06
-2.14447e-07
1.76933e-06
-2.14424e-07
1.85438e-06
-2.14398e-07
1.9434e-06
-2.14368e-07
2.03659e-06
-2.14334e-07
2.13411e-06
-2.14295e-07
2.23615e-06
-2.14251e-07
2.3429e-06
-2.14203e-07
2.45457e-06
-2.14149e-07
2.57135e-06
-2.1409e-07
2.69345e-06
-2.14024e-07
2.8211e-06
-2.13952e-07
2.95451e-06
-2.13874e-07
3.09392e-06
-2.13789e-07
3.23957e-06
-2.13695e-07
3.39168e-06
-2.13594e-07
3.55052e-06
-2.13484e-07
3.71633e-06
-2.13364e-07
3.88937e-06
-2.13234e-07
4.06989e-06
-2.13094e-07
4.25814e-06
-2.12941e-07
4.45439e-06
-2.12776e-07
4.65889e-06
-2.12597e-07
4.87188e-06
-2.12404e-07
5.0936e-06
-2.12195e-07
5.32429e-06
-2.1197e-07
5.56415e-06
-2.1169e-07
6.78004e-06
-2.11401e-07
6.74747e-06
-2.11104e-07
6.7146e-06
-2.10799e-07
6.68143e-06
-2.10486e-07
6.64792e-06
-2.10168e-07
6.61409e-06
-2.09846e-07
6.57992e-06
-2.09523e-07
6.54546e-06
-2.09204e-07
6.51072e-06
-2.0889e-07
6.47576e-06
-2.08589e-07
6.44063e-06
-2.08305e-07
6.4054e-06
-2.08045e-07
6.37015e-06
-2.07819e-07
6.335e-06
-2.07635e-07
6.30005e-06
-2.07504e-07
6.26547e-06
-2.07439e-07
6.23141e-06
-2.07456e-07
6.19809e-06
-2.07571e-07
6.16575e-06
-2.07799e-07
6.13472e-06
-2.08155e-07
6.10538e-06
-2.0865e-07
6.07813e-06
-2.09295e-07
6.05337e-06
-2.10097e-07
6.03157e-06
-2.11058e-07
6.01327e-06
-2.12169e-07
5.99903e-06
-2.13411e-07
5.98943e-06
-2.14752e-07
5.98502e-06
-2.16152e-07
5.98628e-06
-2.17561e-07
5.9936e-06
-2.18925e-07
6.00724e-06
-2.20188e-07
6.02733e-06
-2.21299e-07
6.05381e-06
-2.22216e-07
6.08647e-06
-2.2291e-07
6.12495e-06
-2.23362e-07
6.16876e-06
-2.23572e-07
6.21734e-06
-2.23546e-07
6.27011e-06
-2.233e-07
6.32645e-06
-2.22857e-07
6.38573e-06
-2.22363e-07
5.26363e-06
-2.21802e-07
5.05694e-06
-2.21207e-07
4.85667e-06
-2.206e-07
4.66263e-06
-2.19997e-07
4.47469e-06
-2.1941e-07
4.29274e-06
-2.18845e-07
4.11671e-06
-2.18308e-07
3.94652e-06
-2.17802e-07
3.78208e-06
-2.17328e-07
3.62333e-06
-2.16888e-07
3.47015e-06
-2.16482e-07
3.32247e-06
-2.16109e-07
3.18016e-06
-2.15768e-07
3.04313e-06
-2.15459e-07
2.91126e-06
-2.1518e-07
2.78443e-06
-2.14929e-07
2.66251e-06
-2.14705e-07
2.54538e-06
-2.14506e-07
2.4329e-06
-2.14331e-07
2.32495e-06
-2.14178e-07
2.22139e-06
-2.14045e-07
2.12208e-06
-2.13931e-07
2.02689e-06
-2.13835e-07
1.93568e-06
-2.13756e-07
1.84832e-06
-2.13691e-07
1.7647e-06
-2.13638e-07
1.68467e-06
-2.13596e-07
1.60813e-06
-2.13564e-07
1.53495e-06
1.46516e-06
-2.14767e-07
1.4656e-06
-2.14752e-07
1.53639e-06
-2.14733e-07
1.61049e-06
-2.14713e-07
1.68808e-06
-2.1469e-07
1.76931e-06
-2.14664e-07
1.85435e-06
-2.14634e-07
1.94337e-06
-2.146e-07
2.03655e-06
-2.14561e-07
2.13407e-06
-2.14517e-07
2.2361e-06
-2.14467e-07
2.34285e-06
-2.14411e-07
2.45451e-06
-2.14349e-07
2.57128e-06
-2.1428e-07
2.69338e-06
-2.14204e-07
2.82102e-06
-2.14121e-07
2.95443e-06
-2.1403e-07
3.09383e-06
-2.1393e-07
3.23947e-06
-2.13821e-07
3.39157e-06
-2.13702e-07
3.5504e-06
-2.13573e-07
3.7162e-06
-2.13433e-07
3.88923e-06
-2.13281e-07
4.06973e-06
-2.13115e-07
4.25798e-06
-2.12936e-07
4.45421e-06
-2.12742e-07
4.65869e-06
-2.12532e-07
4.87167e-06
-2.12304e-07
5.09337e-06
-2.12059e-07
5.32404e-06
-2.11795e-07
5.56389e-06
-2.11465e-07
6.77971e-06
-2.11125e-07
6.74713e-06
-2.10776e-07
6.71425e-06
-2.10418e-07
6.68107e-06
-2.10052e-07
6.64756e-06
-2.0968e-07
6.61371e-06
-2.09305e-07
6.57955e-06
-2.08929e-07
6.54508e-06
-2.08558e-07
6.51035e-06
-2.08196e-07
6.4754e-06
-2.07848e-07
6.44028e-06
-2.07523e-07
6.40507e-06
-2.07227e-07
6.36986e-06
-2.06971e-07
6.33474e-06
-2.06765e-07
6.29985e-06
-2.06623e-07
6.26533e-06
-2.06559e-07
6.23135e-06
-2.0659e-07
6.19812e-06
-2.06734e-07
6.16589e-06
-2.07009e-07
6.13499e-06
-2.07428e-07
6.1058e-06
-2.08005e-07
6.07871e-06
-2.0875e-07
6.05412e-06
-2.09671e-07
6.03249e-06
-2.10768e-07
6.01436e-06
-2.12029e-07
6.00029e-06
-2.13432e-07
5.99083e-06
-2.14941e-07
5.98653e-06
-2.16512e-07
5.98785e-06
-2.1809e-07
5.99517e-06
-2.19614e-07
6.00877e-06
-2.21025e-07
6.02874e-06
-2.22265e-07
6.05505e-06
-2.23289e-07
6.08749e-06
-2.24062e-07
6.12572e-06
-2.24565e-07
6.16926e-06
-2.24793e-07
6.21757e-06
-2.24755e-07
6.27008e-06
-2.24467e-07
6.32617e-06
-2.23954e-07
6.38522e-06
-2.23384e-07
5.26306e-06
-2.22737e-07
5.05629e-06
-2.2205e-07
4.85599e-06
-2.21348e-07
4.66193e-06
-2.20649e-07
4.47399e-06
-2.19967e-07
4.29205e-06
-2.19311e-07
4.11605e-06
-2.18686e-07
3.94589e-06
-2.18097e-07
3.7815e-06
-2.17546e-07
3.62278e-06
-2.17033e-07
3.46964e-06
-2.1656e-07
3.32199e-06
-2.16126e-07
3.17973e-06
-2.1573e-07
3.04274e-06
-2.1537e-07
2.9109e-06
-2.15046e-07
2.7841e-06
-2.14754e-07
2.66222e-06
-2.14495e-07
2.54512e-06
-2.14265e-07
2.43267e-06
-2.14063e-07
2.32475e-06
-2.13887e-07
2.22121e-06
-2.13735e-07
2.12193e-06
-2.13605e-07
2.02676e-06
-2.13496e-07
1.93557e-06
-2.13406e-07
1.84823e-06
-2.13333e-07
1.76462e-06
-2.13273e-07
1.68461e-06
-2.13226e-07
1.60808e-06
-2.13193e-07
1.53491e-06
1.46515e-06
-2.15074e-07
1.46559e-06
-2.15059e-07
1.53637e-06
-2.1504e-07
1.61048e-06
-2.15018e-07
1.68806e-06
-2.14993e-07
1.76929e-06
-2.14965e-07
1.85432e-06
-2.14932e-07
1.94334e-06
-2.14894e-07
2.03651e-06
-2.14851e-07
2.13402e-06
-2.14802e-07
2.23605e-06
-2.14746e-07
2.3428e-06
-2.14684e-07
2.45445e-06
-2.14615e-07
2.57122e-06
-2.14538e-07
2.69331e-06
-2.14453e-07
2.82094e-06
-2.14359e-07
2.95433e-06
-2.14256e-07
3.09373e-06
-2.14144e-07
3.23935e-06
-2.1402e-07
3.39145e-06
-2.13886e-07
3.55027e-06
-2.1374e-07
3.71606e-06
-2.13581e-07
3.88907e-06
-2.13408e-07
4.06956e-06
-2.1322e-07
4.25779e-06
-2.13017e-07
4.45401e-06
-2.12796e-07
4.65847e-06
-2.12557e-07
4.87143e-06
-2.12299e-07
5.09311e-06
-2.1202e-07
5.32376e-06
-2.1172e-07
5.56359e-06
-2.11345e-07
6.77934e-06
-2.10959e-07
6.74674e-06
-2.10563e-07
6.71386e-06
-2.10157e-07
6.68066e-06
-2.09742e-07
6.64714e-06
-2.09322e-07
6.61329e-06
-2.08898e-07
6.57913e-06
-2.08476e-07
6.54466e-06
-2.08059e-07
6.50993e-06
-2.07653e-07
6.47499e-06
-2.07266e-07
6.43989e-06
-2.06904e-07
6.40471e-06
-2.06577e-07
6.36953e-06
-2.06297e-07
6.33446e-06
-2.06075e-07
6.29963e-06
-2.05925e-07
6.26518e-06
-2.05863e-07
6.23129e-06
-2.05909e-07
6.19817e-06
-2.0608e-07
6.16606e-06
-2.06396e-07
6.13531e-06
-2.06871e-07
6.10628e-06
-2.07518e-07
6.07935e-06
-2.08349e-07
6.05495e-06
-2.09369e-07
6.03351e-06
-2.10576e-07
6.01557e-06
-2.11959e-07
6.00167e-06
-2.1349e-07
5.99236e-06
-2.15132e-07
5.98817e-06
-2.16836e-07
5.98955e-06
-2.18543e-07
5.99688e-06
-2.20189e-07
6.01041e-06
-2.21711e-07
6.03026e-06
-2.23047e-07
6.05639e-06
-2.24148e-07
6.0886e-06
-2.24977e-07
6.12655e-06
-2.25513e-07
6.1698e-06
-2.25748e-07
6.21781e-06
-2.25691e-07
6.27002e-06
-2.2536e-07
6.32583e-06
-2.24779e-07
6.38464e-06
-2.24138e-07
5.26242e-06
-2.23413e-07
5.05556e-06
-2.22641e-07
4.85522e-06
-2.21852e-07
4.66114e-06
-2.21067e-07
4.4732e-06
-2.20299e-07
4.29129e-06
-2.19559e-07
4.11531e-06
-2.18854e-07
3.94519e-06
-2.18189e-07
3.78083e-06
-2.17567e-07
3.62215e-06
-2.16988e-07
3.46906e-06
-2.16454e-07
3.32146e-06
-2.15965e-07
3.17924e-06
-2.15518e-07
3.04229e-06
-2.15113e-07
2.9105e-06
-2.14747e-07
2.78374e-06
-2.1442e-07
2.66189e-06
-2.14129e-07
2.54483e-06
-2.13871e-07
2.43242e-06
-2.13645e-07
2.32452e-06
-2.13448e-07
2.22102e-06
-2.13278e-07
2.12176e-06
-2.13134e-07
2.02661e-06
-2.13013e-07
1.93545e-06
-2.12913e-07
1.84813e-06
-2.12832e-07
1.76454e-06
-2.12768e-07
1.68455e-06
-2.12718e-07
1.60803e-06
-2.12684e-07
1.53488e-06
1.46513e-06
-2.15441e-07
1.46558e-06
-2.15427e-07
1.53636e-06
-2.15407e-07
1.61046e-06
-2.15384e-07
1.68804e-06
-2.15357e-07
1.76926e-06
-2.15326e-07
1.85429e-06
-2.15291e-07
1.94331e-06
-2.15251e-07
2.03647e-06
-2.15204e-07
2.13398e-06
-2.15151e-07
2.236e-06
-2.15091e-07
2.34274e-06
-2.15023e-07
2.45438e-06
-2.14947e-07
2.57114e-06
-2.14863e-07
2.69322e-06
-2.1477e-07
2.82084e-06
-2.14667e-07
2.95423e-06
-2.14554e-07
3.09361e-06
-2.1443e-07
3.23923e-06
-2.14294e-07
3.39132e-06
-2.14145e-07
3.55012e-06
-2.13984e-07
3.7159e-06
-2.13808e-07
3.88889e-06
-2.13616e-07
4.06937e-06
-2.13408e-07
4.25758e-06
-2.13183e-07
4.45378e-06
-2.12938e-07
4.65823e-06
-2.12674e-07
4.87116e-06
-2.12387e-07
5.09283e-06
-2.12078e-07
5.32345e-06
-2.11745e-07
5.56325e-06
-2.11329e-07
6.77892e-06
-2.10901e-07
6.74631e-06
-2.10462e-07
6.71342e-06
-2.10013e-07
6.68021e-06
-2.09555e-07
6.64669e-06
-2.09091e-07
6.61283e-06
-2.08625e-07
6.57866e-06
-2.0816e-07
6.5442e-06
-2.07703e-07
6.50948e-06
-2.0726e-07
6.47455e-06
-2.06837e-07
6.43947e-06
-2.06444e-07
6.40432e-06
-2.06091e-07
6.36918e-06
-2.0579e-07
6.33416e-06
-2.05554e-07
6.29939e-06
-2.05399e-07
6.26502e-06
-2.05341e-07
6.23123e-06
-2.054e-07
6.19822e-06
-2.05596e-07
6.16626e-06
-2.05947e-07
6.13566e-06
-2.0647e-07
6.1068e-06
-2.07177e-07
6.08006e-06
-2.08077e-07
6.05585e-06
-2.09177e-07
6.03461e-06
-2.10473e-07
6.01687e-06
-2.1195e-07
6.00315e-06
-2.1358e-07
5.99399e-06
-2.15322e-07
5.98991e-06
-2.17125e-07
5.99136e-06
-2.18927e-07
5.99868e-06
-2.20662e-07
6.01215e-06
-2.22262e-07
6.03186e-06
-2.23664e-07
6.05779e-06
-2.24817e-07
6.08975e-06
-2.2568e-07
6.12741e-06
-2.2623e-07
6.17035e-06
-2.26461e-07
6.21804e-06
-2.26377e-07
6.26994e-06
-2.25998e-07
6.32546e-06
-2.25349e-07
6.38399e-06
-2.24641e-07
5.26171e-06
-2.23842e-07
5.05476e-06
-2.22992e-07
4.85437e-06
-2.22122e-07
4.66027e-06
-2.21255e-07
4.47233e-06
-2.20408e-07
4.29044e-06
-2.19591e-07
4.11449e-06
-2.18812e-07
3.94441e-06
-2.18077e-07
3.78009e-06
-2.17389e-07
3.62147e-06
-2.1675e-07
3.46842e-06
-2.1616e-07
3.32087e-06
-2.15619e-07
3.1787e-06
-2.15126e-07
3.0418e-06
-2.14679e-07
2.91005e-06
-2.14276e-07
2.78334e-06
-2.13916e-07
2.66153e-06
-2.13595e-07
2.54451e-06
-2.13312e-07
2.43213e-06
-2.13063e-07
2.32428e-06
-2.12847e-07
2.2208e-06
-2.12661e-07
2.12157e-06
-2.12504e-07
2.02645e-06
-2.12372e-07
1.93532e-06
-2.12263e-07
1.84803e-06
-2.12175e-07
1.76445e-06
-2.12106e-07
1.68448e-06
-2.12055e-07
1.60798e-06
-2.1202e-07
1.53484e-06
1.46511e-06
-2.1587e-07
1.46558e-06
-2.15856e-07
1.53635e-06
-2.15837e-07
1.61044e-06
-2.15813e-07
1.68801e-06
-2.15784e-07
1.76923e-06
-2.15752e-07
1.85426e-06
-2.15715e-07
1.94327e-06
-2.15672e-07
2.03643e-06
-2.15622e-07
2.13393e-06
-2.15566e-07
2.23594e-06
-2.15501e-07
2.34267e-06
-2.15429e-07
2.45431e-06
-2.15347e-07
2.57106e-06
-2.15257e-07
2.69313e-06
-2.15156e-07
2.82074e-06
-2.15045e-07
2.95412e-06
-2.14923e-07
3.09349e-06
-2.14789e-07
3.23909e-06
-2.14642e-07
3.39117e-06
-2.14481e-07
3.54996e-06
-2.14305e-07
3.71572e-06
-2.14114e-07
3.8887e-06
-2.13906e-07
4.06916e-06
-2.1368e-07
4.25735e-06
-2.13434e-07
4.45354e-06
-2.13168e-07
4.65796e-06
-2.1288e-07
4.87087e-06
-2.12568e-07
5.09252e-06
-2.12232e-07
5.32312e-06
-2.1187e-07
5.56289e-06
-2.11416e-07
6.77847e-06
-2.10951e-07
6.74585e-06
-2.10473e-07
6.71294e-06
-2.09985e-07
6.67973e-06
-2.09488e-07
6.64619e-06
-2.08986e-07
6.61233e-06
-2.08482e-07
6.57815e-06
-2.0798e-07
6.54369e-06
-2.07488e-07
6.50898e-06
-2.07011e-07
6.47407e-06
-2.06558e-07
6.43902e-06
-2.06138e-07
6.4039e-06
-2.05763e-07
6.3688e-06
-2.05444e-07
6.33384e-06
-2.05197e-07
6.29914e-06
-2.05038e-07
6.26486e-06
-2.04983e-07
6.23118e-06
-2.05054e-07
6.19829e-06
-2.0527e-07
6.16648e-06
-2.05652e-07
6.13604e-06
-2.06213e-07
6.10736e-06
-2.06967e-07
6.08081e-06
-2.07923e-07
6.0568e-06
-2.09085e-07
6.03578e-06
-2.10449e-07
6.01823e-06
-2.11996e-07
6.0047e-06
-2.13698e-07
5.9957e-06
-2.15512e-07
5.99173e-06
-2.17384e-07
5.99323e-06
-2.1925e-07
6.00055e-06
-2.21042e-07
6.01394e-06
-2.22692e-07
6.03351e-06
-2.24133e-07
6.05923e-06
-2.25313e-07
6.09093e-06
-2.26189e-07
6.12829e-06
-2.26738e-07
6.17089e-06
-2.2695e-07
6.21825e-06
-2.26831e-07
6.26982e-06
-2.264e-07
6.32502e-06
-2.25682e-07
6.38327e-06
-2.24907e-07
5.26094e-06
-2.24036e-07
5.05389e-06
-2.23111e-07
4.85344e-06
-2.22164e-07
4.65933e-06
-2.21221e-07
4.47139e-06
-2.20298e-07
4.28951e-06
-2.19409e-07
4.1136e-06
-2.18561e-07
3.94356e-06
-2.1776e-07
3.77929e-06
-2.17011e-07
3.62072e-06
-2.16316e-07
3.46773e-06
-2.15674e-07
3.32023e-06
-2.15085e-07
3.17811e-06
-2.14548e-07
3.04126e-06
-2.14062e-07
2.90956e-06
-2.13625e-07
2.7829e-06
-2.13233e-07
2.66114e-06
-2.12885e-07
2.54416e-06
-2.12578e-07
2.43183e-06
-2.12309e-07
2.32401e-06
-2.12075e-07
2.22057e-06
-2.11874e-07
2.12137e-06
-2.11704e-07
2.02628e-06
-2.11561e-07
1.93517e-06
-2.11444e-07
1.84791e-06
-2.1135e-07
1.76436e-06
-2.11277e-07
1.6844e-06
-2.11223e-07
1.60792e-06
-2.11188e-07
1.53481e-06
1.4651e-06
-2.16366e-07
1.46557e-06
-2.16352e-07
1.53633e-06
-2.16332e-07
1.61042e-06
-2.16307e-07
1.68799e-06
-2.16278e-07
1.7692e-06
-2.16244e-07
1.85423e-06
-2.16205e-07
1.94323e-06
-2.1616e-07
2.03639e-06
-2.16108e-07
2.13388e-06
-2.16048e-07
2.23588e-06
-2.1598e-07
2.3426e-06
-2.15903e-07
2.45423e-06
-2.15817e-07
2.57097e-06
-2.15721e-07
2.69303e-06
-2.15614e-07
2.82064e-06
-2.15496e-07
2.954e-06
-2.15365e-07
3.09336e-06
-2.15222e-07
3.23895e-06
-2.15065e-07
3.39101e-06
-2.14893e-07
3.54979e-06
-2.14705e-07
3.71553e-06
-2.145e-07
3.8885e-06
-2.14277e-07
4.06894e-06
-2.14035e-07
4.25711e-06
-2.13772e-07
4.45327e-06
-2.13486e-07
4.65768e-06
-2.13177e-07
4.87057e-06
-2.12843e-07
5.09218e-06
-2.12482e-07
5.32276e-06
-2.12093e-07
5.5625e-06
-2.11607e-07
6.77798e-06
-2.11108e-07
6.74535e-06
-2.10596e-07
6.71243e-06
-2.10073e-07
6.6792e-06
-2.09542e-07
6.64566e-06
-2.09005e-07
6.61179e-06
-2.08467e-07
6.57762e-06
-2.07933e-07
6.54316e-06
-2.0741e-07
6.50846e-06
-2.06904e-07
6.47357e-06
-2.06424e-07
6.43854e-06
-2.05981e-07
6.40345e-06
-2.05586e-07
6.36841e-06
-2.05253e-07
6.33351e-06
-2.04996e-07
6.29889e-06
-2.04833e-07
6.2647e-06
-2.04781e-07
6.23112e-06
-2.04861e-07
6.19837e-06
-2.05094e-07
6.16671e-06
-2.05498e-07
6.13645e-06
-2.06089e-07
6.10795e-06
-2.06879e-07
6.0816e-06
-2.07877e-07
6.0578e-06
-2.09084e-07
6.03698e-06
-2.10495e-07
6.01964e-06
-2.12091e-07
6.00629e-06
-2.13841e-07
5.99745e-06
-2.157e-07
5.99359e-06
-2.17613e-07
5.99514e-06
-2.19516e-07
6.00245e-06
-2.21339e-07
6.01576e-06
-2.23011e-07
6.03518e-06
-2.24467e-07
6.06069e-06
-2.25651e-07
6.09211e-06
-2.26522e-07
6.12916e-06
-2.27053e-07
6.17143e-06
-2.27234e-07
6.21843e-06
-2.2707e-07
6.26965e-06
-2.26579e-07
6.32453e-06
-2.25789e-07
6.38248e-06
-2.24946e-07
5.2601e-06
-2.24003e-07
5.05295e-06
-2.23005e-07
4.85244e-06
-2.21984e-07
4.6583e-06
-2.20967e-07
4.47037e-06
-2.19973e-07
4.28852e-06
-2.19014e-07
4.11264e-06
-2.181e-07
3.94264e-06
-2.17238e-07
3.77843e-06
-2.16431e-07
3.61991e-06
-2.15681e-07
3.46698e-06
-2.1499e-07
3.31954e-06
-2.14356e-07
3.17747e-06
-2.13779e-07
3.04068e-06
-2.13256e-07
2.90904e-06
-2.12786e-07
2.78243e-06
-2.12365e-07
2.66072e-06
-2.11992e-07
2.54379e-06
-2.11662e-07
2.4315e-06
-2.11373e-07
2.32372e-06
-2.11123e-07
2.22031e-06
-2.10908e-07
2.12115e-06
-2.10725e-07
2.0261e-06
-2.10572e-07
1.93502e-06
-2.10447e-07
1.84778e-06
-2.10347e-07
1.76426e-06
-2.1027e-07
1.68433e-06
-2.10214e-07
1.60787e-06
-2.10178e-07
1.53477e-06
1.46508e-06
-2.1693e-07
1.46556e-06
-2.16916e-07
1.53632e-06
-2.16896e-07
1.6104e-06
-2.16871e-07
1.68796e-06
-2.1684e-07
1.76917e-06
-2.16805e-07
1.85419e-06
-2.16764e-07
1.94319e-06
-2.16717e-07
2.03634e-06
-2.16663e-07
2.13382e-06
-2.166e-07
2.23582e-06
-2.16529e-07
2.34253e-06
-2.16448e-07
2.45415e-06
-2.16358e-07
2.57088e-06
-2.16257e-07
2.69293e-06
-2.16144e-07
2.82052e-06
-2.16019e-07
2.95388e-06
-2.15882e-07
3.09322e-06
-2.1573e-07
3.2388e-06
-2.15564e-07
3.39085e-06
-2.15382e-07
3.54961e-06
-2.15183e-07
3.71533e-06
-2.14967e-07
3.88828e-06
-2.1473e-07
4.0687e-06
-2.14474e-07
4.25685e-06
-2.14195e-07
4.45299e-06
-2.13892e-07
4.65737e-06
-2.13564e-07
4.87024e-06
-2.1321e-07
5.09183e-06
-2.12827e-07
5.32237e-06
-2.12416e-07
5.56209e-06
-2.119e-07
6.77747e-06
-2.11371e-07
6.74482e-06
-2.10829e-07
6.71189e-06
-2.10276e-07
6.67865e-06
-2.09714e-07
6.6451e-06
-2.09147e-07
6.61122e-06
-2.0858e-07
6.57705e-06
-2.08017e-07
6.5426e-06
-2.07467e-07
6.50791e-06
-2.06935e-07
6.47303e-06
-2.06433e-07
6.43804e-06
-2.05969e-07
6.40299e-06
-2.05557e-07
6.368e-06
-2.05211e-07
6.33316e-06
-2.04946e-07
6.29862e-06
-2.04778e-07
6.26453e-06
-2.04728e-07
6.23107e-06
-2.04814e-07
6.19846e-06
-2.05058e-07
6.16695e-06
-2.05479e-07
6.13687e-06
-2.06091e-07
6.10856e-06
-2.06906e-07
6.08242e-06
-2.07931e-07
6.05882e-06
-2.09168e-07
6.03822e-06
-2.10608e-07
6.02108e-06
-2.12232e-07
6.00792e-06
-2.14006e-07
5.99922e-06
-2.15887e-07
5.99547e-06
-2.17817e-07
5.99707e-06
-2.19731e-07
6.00437e-06
-2.21559e-07
6.01759e-06
-2.23229e-07
6.03685e-06
-2.24677e-07
6.06213e-06
-2.25845e-07
6.09328e-06
-2.26691e-07
6.13e-06
-2.27188e-07
6.17192e-06
-2.27324e-07
6.21857e-06
-2.27105e-07
6.26943e-06
-2.26548e-07
6.32398e-06
-2.2568e-07
6.38162e-06
-2.24767e-07
5.25918e-06
-2.23753e-07
5.05194e-06
-2.22681e-07
4.85137e-06
-2.21587e-07
4.65721e-06
-2.20498e-07
4.46928e-06
-2.19434e-07
4.28745e-06
-2.18408e-07
4.11162e-06
-2.1743e-07
3.94167e-06
-2.16508e-07
3.77751e-06
-2.15645e-07
3.61905e-06
-2.14844e-07
3.46618e-06
-2.14106e-07
3.3188e-06
-2.13429e-07
3.1768e-06
-2.12813e-07
3.04007e-06
-2.12255e-07
2.90848e-06
-2.11753e-07
2.78193e-06
-2.11305e-07
2.66027e-06
-2.10907e-07
2.54339e-06
-2.10556e-07
2.43115e-06
-2.10249e-07
2.32341e-06
-2.09982e-07
2.22005e-06
-2.09754e-07
2.12093e-06
-2.0956e-07
2.02591e-06
-2.09398e-07
1.93486e-06
-2.09266e-07
1.84765e-06
-2.0916e-07
1.76415e-06
-2.09079e-07
1.68425e-06
-2.0902e-07
1.60781e-06
-2.08982e-07
1.53473e-06
1.46506e-06
-2.17565e-07
1.46555e-06
-2.17551e-07
1.5363e-06
-2.17531e-07
1.61038e-06
-2.17505e-07
1.68794e-06
-2.17474e-07
1.76914e-06
-2.17437e-07
1.85415e-06
-2.17395e-07
1.94315e-06
-2.17346e-07
2.03629e-06
-2.17289e-07
2.13376e-06
-2.17223e-07
2.23576e-06
-2.17149e-07
2.34246e-06
-2.17065e-07
2.45407e-06
-2.16971e-07
2.57079e-06
-2.16865e-07
2.69283e-06
-2.16748e-07
2.82041e-06
-2.16617e-07
2.95375e-06
-2.16473e-07
3.09308e-06
-2.16315e-07
3.23864e-06
-2.16141e-07
3.39067e-06
-2.1595e-07
3.54942e-06
-2.15741e-07
3.71512e-06
-2.15514e-07
3.88805e-06
-2.15266e-07
4.06845e-06
-2.14997e-07
4.25659e-06
-2.14704e-07
4.4527e-06
-2.14386e-07
4.65706e-06
-2.14042e-07
4.86989e-06
-2.1367e-07
5.09146e-06
-2.13269e-07
5.32197e-06
-2.12837e-07
5.56166e-06
-2.12295e-07
6.77692e-06
-2.1174e-07
6.74426e-06
-2.11172e-07
6.71132e-06
-2.10592e-07
6.67807e-06
-2.10004e-07
6.64451e-06
-2.09411e-07
6.61063e-06
-2.08818e-07
6.57646e-06
-2.08231e-07
6.54201e-06
-2.07657e-07
6.50734e-06
-2.07103e-07
6.47248e-06
-2.06581e-07
6.43751e-06
-2.061e-07
6.40251e-06
-2.05673e-07
6.36757e-06
-2.05315e-07
6.3328e-06
-2.05041e-07
6.29835e-06
-2.04869e-07
6.26436e-06
-2.04818e-07
6.23102e-06
-2.04907e-07
6.19855e-06
-2.05158e-07
6.1672e-06
-2.05588e-07
6.1373e-06
-2.06212e-07
6.10919e-06
-2.07041e-07
6.08325e-06
-2.0808e-07
6.05986e-06
-2.0933e-07
6.03947e-06
-2.10782e-07
6.02253e-06
-2.12414e-07
6.00955e-06
-2.14194e-07
6.001e-06
-2.16073e-07
5.99735e-06
-2.17997e-07
5.999e-06
-2.19899e-07
6.00627e-06
-2.21708e-07
6.0194e-06
-2.23355e-07
6.0385e-06
-2.24773e-07
6.06355e-06
-2.25905e-07
6.09441e-06
-2.26708e-07
6.13081e-06
-2.27155e-07
6.17237e-06
-2.27234e-07
6.21865e-06
-2.26949e-07
6.26915e-06
-2.26316e-07
6.32334e-06
-2.25366e-07
6.38066e-06
-2.24379e-07
5.2582e-06
-2.2329e-07
5.05085e-06
-2.22144e-07
4.85022e-06
-2.20977e-07
4.65604e-06
-2.19816e-07
4.46812e-06
-2.18683e-07
4.28632e-06
-2.1759e-07
4.11052e-06
-2.16551e-07
3.94063e-06
-2.1557e-07
3.77653e-06
-2.14653e-07
3.61813e-06
-2.13802e-07
3.46533e-06
-2.13017e-07
3.31801e-06
-2.12299e-07
3.17608e-06
-2.11645e-07
3.03941e-06
-2.11053e-07
2.90789e-06
-2.10521e-07
2.78139e-06
-2.10046e-07
2.6598e-06
-2.09625e-07
2.54297e-06
-2.09253e-07
2.43077e-06
-2.08928e-07