/*--------------------------------*- C++ -*----------------------------------*\
  =========                 |
  \\      /  F ield         | OpenFOAM: The Open Source CFD Toolbox
   \\    /   O peration     | Website:  https://openfoam.org
    \\  /    A nd           | Version:  9
     \\/     M anipulation  |
\*---------------------------------------------------------------------------*/
FoamFile
{
    format      ascii;
    class       volScalarField;
    location    "0.03";
    object      rAU;
}
// * * * * * * * * * * * * * * * * * * * * * * * * * * * * * * * * * * * * * //

dimensions      [-1 3 1 0 0 0 0];

internalField   nonuniform List<scalar> 
20000
(
2.51769e-05
2.32652e-05
2.36521e-05
2.40171e-05
2.43609e-05
2.46841e-05
2.49875e-05
2.52722e-05
2.5539e-05
2.5789e-05
2.60231e-05
2.62423e-05
2.64477e-05
2.66402e-05
2.68208e-05
2.69904e-05
2.71499e-05
2.73002e-05
2.74421e-05
2.75763e-05
2.77037e-05
2.7825e-05
2.79409e-05
2.8052e-05
2.8159e-05
2.82625e-05
2.83631e-05
2.84614e-05
2.8558e-05
2.86689e-05
2.88618e-05
2.8936e-05
2.89971e-05
2.9059e-05
2.91218e-05
2.91856e-05
2.92502e-05
2.93157e-05
2.93821e-05
2.94492e-05
2.95169e-05
2.95852e-05
2.96538e-05
2.97227e-05
2.97914e-05
2.98599e-05
2.99276e-05
2.99943e-05
3.00594e-05
3.01222e-05
3.0182e-05
3.02378e-05
3.02888e-05
3.0334e-05
3.03722e-05
3.04022e-05
3.04225e-05
3.04321e-05
3.04298e-05
3.04149e-05
3.03867e-05
3.03451e-05
3.02903e-05
3.0223e-05
3.01441e-05
3.00549e-05
2.99568e-05
2.98511e-05
2.97392e-05
2.9608e-05
2.93533e-05
2.919e-05
2.90435e-05
2.88974e-05
2.87513e-05
2.86047e-05
2.84572e-05
2.8308e-05
2.81566e-05
2.80021e-05
2.78439e-05
2.76811e-05
2.75129e-05
2.73383e-05
2.71565e-05
2.69665e-05
2.67673e-05
2.65579e-05
2.63372e-05
2.61041e-05
2.58576e-05
2.55966e-05
2.53199e-05
2.50265e-05
2.47154e-05
2.43855e-05
2.40359e-05
2.36656e-05
2.32739e-05
1.87172e-05
3.37501e-05
3.03947e-05
3.10517e-05
3.16764e-05
3.22688e-05
3.28292e-05
3.33582e-05
3.38566e-05
3.43252e-05
3.47653e-05
3.51779e-05
3.55643e-05
3.59258e-05
3.62638e-05
3.65796e-05
3.68747e-05
3.71502e-05
3.74076e-05
3.76481e-05
3.78729e-05
3.80833e-05
3.82804e-05
3.84653e-05
3.8639e-05
3.88027e-05
3.89571e-05
3.91033e-05
3.92421e-05
3.93743e-05
3.95303e-05
3.98334e-05
3.99028e-05
3.99465e-05
3.99906e-05
4.00354e-05
4.00806e-05
4.01264e-05
4.01728e-05
4.02196e-05
4.02668e-05
4.03144e-05
4.03622e-05
4.04102e-05
4.04582e-05
4.0506e-05
4.05535e-05
4.06003e-05
4.06463e-05
4.0691e-05
4.0734e-05
4.07748e-05
4.08127e-05
4.08472e-05
4.08776e-05
4.09031e-05
4.09228e-05
4.0936e-05
4.09418e-05
4.09395e-05
4.09287e-05
4.09088e-05
4.08799e-05
4.0842e-05
4.07957e-05
4.07414e-05
4.068e-05
4.06124e-05
4.05395e-05
4.04622e-05
4.03543e-05
4.00066e-05
3.98142e-05
3.96473e-05
3.94753e-05
3.92974e-05
3.91129e-05
3.89208e-05
3.87204e-05
3.85105e-05
3.82901e-05
3.8058e-05
3.78131e-05
3.75541e-05
3.72796e-05
3.69885e-05
3.66792e-05
3.63503e-05
3.60005e-05
3.56283e-05
3.52324e-05
3.48112e-05
3.43636e-05
3.38882e-05
3.3384e-05
3.28498e-05
3.2285e-05
3.16887e-05
3.10605e-05
3.04004e-05
2.3072e-05
3.37497e-05
3.03944e-05
3.10515e-05
3.16762e-05
3.22686e-05
3.2829e-05
3.3358e-05
3.38564e-05
3.43251e-05
3.47652e-05
3.51778e-05
3.55642e-05
3.59258e-05
3.62639e-05
3.65797e-05
3.68748e-05
3.71504e-05
3.74078e-05
3.76483e-05
3.78732e-05
3.80837e-05
3.82808e-05
3.84658e-05
3.86396e-05
3.88033e-05
3.89577e-05
3.9104e-05
3.92428e-05
3.93751e-05
3.95312e-05
3.98342e-05
3.99037e-05
3.99475e-05
3.99918e-05
4.00366e-05
4.00819e-05
4.01279e-05
4.01743e-05
4.02212e-05
4.02685e-05
4.03162e-05
4.03641e-05
4.04122e-05
4.04602e-05
4.05081e-05
4.05555e-05
4.06024e-05
4.06483e-05
4.0693e-05
4.07358e-05
4.07764e-05
4.08141e-05
4.08483e-05
4.08784e-05
4.09035e-05
4.09228e-05
4.09355e-05
4.09408e-05
4.0938e-05
4.09267e-05
4.09065e-05
4.08772e-05
4.08391e-05
4.07926e-05
4.07383e-05
4.06769e-05
4.06094e-05
4.05366e-05
4.04595e-05
4.03519e-05
4.00038e-05
3.98116e-05
3.96449e-05
3.9473e-05
3.92953e-05
3.91109e-05
3.8919e-05
3.87187e-05
3.8509e-05
3.82887e-05
3.80568e-05
3.7812e-05
3.75532e-05
3.72789e-05
3.69878e-05
3.66786e-05
3.63499e-05
3.60002e-05
3.56281e-05
3.52322e-05
3.48112e-05
3.43636e-05
3.38883e-05
3.33841e-05
3.285e-05
3.22852e-05
3.16889e-05
3.10608e-05
3.04008e-05
2.30723e-05
3.37492e-05
3.0394e-05
3.1051e-05
3.16757e-05
3.22682e-05
3.28286e-05
3.33577e-05
3.38561e-05
3.43248e-05
3.47649e-05
3.51776e-05
3.55641e-05
3.59257e-05
3.62638e-05
3.65797e-05
3.68748e-05
3.71505e-05
3.74079e-05
3.76485e-05
3.78735e-05
3.8084e-05
3.82812e-05
3.84662e-05
3.864e-05
3.88038e-05
3.89583e-05
3.91046e-05
3.92435e-05
3.93759e-05
3.9532e-05
3.9835e-05
3.99046e-05
3.99485e-05
3.99928e-05
4.00377e-05
4.00832e-05
4.01292e-05
4.01757e-05
4.02227e-05
4.02701e-05
4.03179e-05
4.03659e-05
4.0414e-05
4.04621e-05
4.05099e-05
4.05574e-05
4.06042e-05
4.065e-05
4.06946e-05
4.07373e-05
4.07777e-05
4.08151e-05
4.0849e-05
4.08787e-05
4.09033e-05
4.09222e-05
4.09345e-05
4.09393e-05
4.09362e-05
4.09245e-05
4.09039e-05
4.08744e-05
4.08362e-05
4.07896e-05
4.07353e-05
4.06741e-05
4.06067e-05
4.05341e-05
4.04573e-05
4.035e-05
4.00018e-05
3.98097e-05
3.96431e-05
3.94714e-05
3.92938e-05
3.91096e-05
3.89179e-05
3.87177e-05
3.85081e-05
3.8288e-05
3.80562e-05
3.78116e-05
3.75528e-05
3.72787e-05
3.69877e-05
3.66787e-05
3.635e-05
3.60004e-05
3.56284e-05
3.52326e-05
3.48116e-05
3.43641e-05
3.38888e-05
3.33847e-05
3.28506e-05
3.22858e-05
3.16895e-05
3.10614e-05
3.04014e-05
2.30729e-05
3.37484e-05
3.03934e-05
3.10504e-05
3.16751e-05
3.22676e-05
3.28281e-05
3.33571e-05
3.38556e-05
3.43244e-05
3.47645e-05
3.51772e-05
3.55638e-05
3.59254e-05
3.62636e-05
3.65796e-05
3.68747e-05
3.71504e-05
3.74079e-05
3.76486e-05
3.78736e-05
3.80841e-05
3.82814e-05
3.84665e-05
3.86404e-05
3.88042e-05
3.89588e-05
3.91052e-05
3.92441e-05
3.93765e-05
3.95327e-05
3.98357e-05
3.99054e-05
3.99494e-05
3.99938e-05
4.00388e-05
4.00844e-05
4.01305e-05
4.01771e-05
4.02241e-05
4.02716e-05
4.03194e-05
4.03675e-05
4.04156e-05
4.04637e-05
4.05116e-05
4.0559e-05
4.06058e-05
4.06515e-05
4.06959e-05
4.07384e-05
4.07785e-05
4.08157e-05
4.08492e-05
4.08785e-05
4.09028e-05
4.09213e-05
4.09331e-05
4.09375e-05
4.0934e-05
4.0922e-05
4.09012e-05
4.08715e-05
4.08333e-05
4.07867e-05
4.07326e-05
4.06715e-05
4.06044e-05
4.05321e-05
4.04555e-05
4.03486e-05
4.00003e-05
3.98084e-05
3.9642e-05
3.94705e-05
3.9293e-05
3.9109e-05
3.89174e-05
3.87174e-05
3.85079e-05
3.82879e-05
3.80563e-05
3.78118e-05
3.75531e-05
3.7279e-05
3.69882e-05
3.66792e-05
3.63507e-05
3.60011e-05
3.56292e-05
3.52334e-05
3.48125e-05
3.4365e-05
3.38898e-05
3.33856e-05
3.28516e-05
3.22868e-05
3.16905e-05
3.10624e-05
3.04024e-05
2.30738e-05
3.37473e-05
3.03926e-05
3.10496e-05
3.16743e-05
3.22668e-05
3.28273e-05
3.33564e-05
3.38549e-05
3.43237e-05
3.47639e-05
3.51767e-05
3.55633e-05
3.5925e-05
3.62632e-05
3.65793e-05
3.68745e-05
3.71502e-05
3.74078e-05
3.76485e-05
3.78736e-05
3.80842e-05
3.82815e-05
3.84667e-05
3.86406e-05
3.88045e-05
3.89592e-05
3.91056e-05
3.92446e-05
3.93771e-05
3.95334e-05
3.98364e-05
3.99062e-05
3.99502e-05
3.99947e-05
4.00398e-05
4.00854e-05
4.01316e-05
4.01783e-05
4.02254e-05
4.0273e-05
4.03208e-05
4.03689e-05
4.04171e-05
4.04652e-05
4.0513e-05
4.05604e-05
4.0607e-05
4.06527e-05
4.06969e-05
4.07392e-05
4.0779e-05
4.08159e-05
4.08491e-05
4.0878e-05
4.09019e-05
4.09199e-05
4.09314e-05
4.09354e-05
4.09316e-05
4.09193e-05
4.08983e-05
4.08686e-05
4.08304e-05
4.0784e-05
4.073e-05
4.06692e-05
4.06024e-05
4.05305e-05
4.04543e-05
4.03477e-05
3.99994e-05
3.98078e-05
3.96416e-05
3.94702e-05
3.92929e-05
3.9109e-05
3.89176e-05
3.87177e-05
3.85084e-05
3.82885e-05
3.8057e-05
3.78125e-05
3.7554e-05
3.728e-05
3.69893e-05
3.66804e-05
3.63519e-05
3.60024e-05
3.56305e-05
3.52348e-05
3.48139e-05
3.43664e-05
3.38912e-05
3.33871e-05
3.2853e-05
3.22882e-05
3.1692e-05
3.10639e-05
3.04038e-05
2.30751e-05
3.37459e-05
3.03915e-05
3.10486e-05
3.16733e-05
3.22658e-05
3.28264e-05
3.33555e-05
3.38541e-05
3.43229e-05
3.47632e-05
3.5176e-05
3.55626e-05
3.59244e-05
3.62627e-05
3.65788e-05
3.68741e-05
3.71499e-05
3.74075e-05
3.76483e-05
3.78734e-05
3.80841e-05
3.82815e-05
3.84667e-05
3.86408e-05
3.88047e-05
3.89594e-05
3.91059e-05
3.9245e-05
3.93776e-05
3.95339e-05
3.9837e-05
3.99069e-05
3.99509e-05
3.99956e-05
4.00407e-05
4.00864e-05
4.01327e-05
4.01794e-05
4.02266e-05
4.02742e-05
4.03221e-05
4.03702e-05
4.04184e-05
4.04664e-05
4.05142e-05
4.05615e-05
4.06081e-05
4.06536e-05
4.06976e-05
4.07397e-05
4.07792e-05
4.08158e-05
4.08486e-05
4.08772e-05
4.09007e-05
4.09183e-05
4.09293e-05
4.09331e-05
4.0929e-05
4.09165e-05
4.08954e-05
4.08657e-05
4.08276e-05
4.07814e-05
4.07277e-05
4.06672e-05
4.06008e-05
4.05292e-05
4.04534e-05
4.03472e-05
3.99991e-05
3.98077e-05
3.96417e-05
3.94705e-05
3.92934e-05
3.91097e-05
3.89184e-05
3.87187e-05
3.85095e-05
3.82897e-05
3.80583e-05
3.78139e-05
3.75555e-05
3.72816e-05
3.69909e-05
3.66821e-05
3.63537e-05
3.60042e-05
3.56324e-05
3.52367e-05
3.48158e-05
3.43684e-05
3.38932e-05
3.33891e-05
3.2855e-05
3.22902e-05
3.1694e-05
3.10658e-05
3.04057e-05
2.3077e-05
3.37443e-05
3.03903e-05
3.10474e-05
3.16721e-05
3.22647e-05
3.28252e-05
3.33544e-05
3.3853e-05
3.43219e-05
3.47622e-05
3.51751e-05
3.55618e-05
3.59237e-05
3.6262e-05
3.65781e-05
3.68735e-05
3.71494e-05
3.74071e-05
3.76479e-05
3.78731e-05
3.80839e-05
3.82814e-05
3.84666e-05
3.86408e-05
3.88048e-05
3.89596e-05
3.91062e-05
3.92453e-05
3.9378e-05
3.95344e-05
3.98375e-05
3.99074e-05
3.99516e-05
3.99963e-05
4.00415e-05
4.00873e-05
4.01336e-05
4.01804e-05
4.02276e-05
4.02753e-05
4.03232e-05
4.03713e-05
4.04195e-05
4.04675e-05
4.05153e-05
4.05625e-05
4.06089e-05
4.06542e-05
4.0698e-05
4.07398e-05
4.07791e-05
4.08153e-05
4.08479e-05
4.0876e-05
4.08991e-05
4.09164e-05
4.09271e-05
4.09306e-05
4.09262e-05
4.09136e-05
4.08925e-05
4.08629e-05
4.08249e-05
4.07789e-05
4.07256e-05
4.06655e-05
4.05995e-05
4.05284e-05
4.0453e-05
4.03472e-05
3.99993e-05
3.98082e-05
3.96424e-05
3.94715e-05
3.92945e-05
3.9111e-05
3.89198e-05
3.87202e-05
3.85112e-05
3.82915e-05
3.80602e-05
3.7816e-05
3.75576e-05
3.72838e-05
3.69932e-05
3.66844e-05
3.6356e-05
3.60067e-05
3.56349e-05
3.52392e-05
3.48184e-05
3.4371e-05
3.38958e-05
3.33917e-05
3.28576e-05
3.22928e-05
3.16965e-05
3.10684e-05
3.04082e-05
2.30794e-05
3.37423e-05
3.03888e-05
3.10459e-05
3.16707e-05
3.22633e-05
3.28239e-05
3.33531e-05
3.38518e-05
3.43207e-05
3.47611e-05
3.5174e-05
3.55608e-05
3.59227e-05
3.62611e-05
3.65773e-05
3.68728e-05
3.71487e-05
3.74065e-05
3.76474e-05
3.78727e-05
3.80835e-05
3.82811e-05
3.84664e-05
3.86406e-05
3.88047e-05
3.89596e-05
3.91063e-05
3.92455e-05
3.93782e-05
3.95347e-05
3.98379e-05
3.99079e-05
3.99522e-05
3.99969e-05
4.00422e-05
4.0088e-05
4.01344e-05
4.01813e-05
4.02285e-05
4.02762e-05
4.03241e-05
4.03722e-05
4.04204e-05
4.04684e-05
4.05161e-05
4.05632e-05
4.06095e-05
4.06546e-05
4.06982e-05
4.07398e-05
4.07788e-05
4.08147e-05
4.08468e-05
4.08747e-05
4.08974e-05
4.09143e-05
4.09247e-05
4.09279e-05
4.09233e-05
4.09107e-05
4.08896e-05
4.08601e-05
4.08223e-05
4.07767e-05
4.07237e-05
4.0664e-05
4.05985e-05
4.05278e-05
4.04529e-05
4.03476e-05
4e-05
3.98092e-05
3.96437e-05
3.94729e-05
3.92962e-05
3.91128e-05
3.89219e-05
3.87224e-05
3.85135e-05
3.82939e-05
3.80627e-05
3.78186e-05
3.75603e-05
3.72866e-05
3.69961e-05
3.66873e-05
3.6359e-05
3.60097e-05
3.5638e-05
3.52424e-05
3.48215e-05
3.43741e-05
3.3899e-05
3.33949e-05
3.28608e-05
3.2296e-05
3.16997e-05
3.10715e-05
3.04113e-05
2.30824e-05
3.37401e-05
3.03871e-05
3.10442e-05
3.16691e-05
3.22616e-05
3.28223e-05
3.33516e-05
3.38503e-05
3.43193e-05
3.47597e-05
3.51727e-05
3.55596e-05
3.59216e-05
3.626e-05
3.65763e-05
3.68718e-05
3.71479e-05
3.74058e-05
3.76468e-05
3.78721e-05
3.8083e-05
3.82807e-05
3.84661e-05
3.86404e-05
3.88045e-05
3.89595e-05
3.91063e-05
3.92456e-05
3.93784e-05
3.95349e-05
3.98383e-05
3.99084e-05
3.99526e-05
3.99975e-05
4.00428e-05
4.00887e-05
4.01351e-05
4.0182e-05
4.02293e-05
4.0277e-05
4.03249e-05
4.0373e-05
4.04211e-05
4.04691e-05
4.05167e-05
4.05637e-05
4.06098e-05
4.06548e-05
4.06981e-05
4.07395e-05
4.07782e-05
4.08138e-05
4.08456e-05
4.08731e-05
4.08954e-05
4.0912e-05
4.09221e-05
4.09251e-05
4.09204e-05
4.09077e-05
4.08867e-05
4.08574e-05
4.08199e-05
4.07746e-05
4.0722e-05
4.06628e-05
4.05978e-05
4.05277e-05
4.04533e-05
4.03484e-05
4.00011e-05
3.98107e-05
3.96455e-05
3.9475e-05
3.92985e-05
3.91153e-05
3.89245e-05
3.87252e-05
3.85164e-05
3.8297e-05
3.80659e-05
3.78218e-05
3.75636e-05
3.729e-05
3.69995e-05
3.66909e-05
3.63627e-05
3.60134e-05
3.56417e-05
3.52461e-05
3.48253e-05
3.4378e-05
3.39028e-05
3.33987e-05
3.28646e-05
3.22998e-05
3.17035e-05
3.10753e-05
3.0415e-05
2.30861e-05
3.37375e-05
3.03851e-05
3.10423e-05
3.16672e-05
3.22598e-05
3.28205e-05
3.33498e-05
3.38486e-05
3.43177e-05
3.47582e-05
3.51712e-05
3.55582e-05
3.59202e-05
3.62588e-05
3.65752e-05
3.68708e-05
3.71469e-05
3.74048e-05
3.76459e-05
3.78714e-05
3.80824e-05
3.82801e-05
3.84656e-05
3.864e-05
3.88042e-05
3.89593e-05
3.91061e-05
3.92455e-05
3.93784e-05
3.9535e-05
3.98385e-05
3.99087e-05
3.9953e-05
3.99979e-05
4.00433e-05
4.00892e-05
4.01357e-05
4.01826e-05
4.02299e-05
4.02776e-05
4.03256e-05
4.03736e-05
4.04217e-05
4.04696e-05
4.05171e-05
4.0564e-05
4.061e-05
4.06547e-05
4.06979e-05
4.07389e-05
4.07774e-05
4.08126e-05
4.08441e-05
4.08713e-05
4.08933e-05
4.09096e-05
4.09195e-05
4.09223e-05
4.09175e-05
4.09048e-05
4.08839e-05
4.08547e-05
4.08176e-05
4.07727e-05
4.07206e-05
4.06619e-05
4.05974e-05
4.05278e-05
4.04539e-05
4.03496e-05
4.00028e-05
3.98127e-05
3.96478e-05
3.94775e-05
3.93013e-05
3.91183e-05
3.89277e-05
3.87285e-05
3.85199e-05
3.83006e-05
3.80696e-05
3.78257e-05
3.75676e-05
3.7294e-05
3.70037e-05
3.66951e-05
3.63669e-05
3.60177e-05
3.56461e-05
3.52505e-05
3.48298e-05
3.43824e-05
3.39073e-05
3.34032e-05
3.28691e-05
3.23043e-05
3.1708e-05
3.10797e-05
3.04194e-05
2.30905e-05
3.37346e-05
3.03829e-05
3.10401e-05
3.1665e-05
3.22577e-05
3.28184e-05
3.33478e-05
3.38467e-05
3.43158e-05
3.47564e-05
3.51695e-05
3.55565e-05
3.59187e-05
3.62573e-05
3.65738e-05
3.68695e-05
3.71457e-05
3.74038e-05
3.76449e-05
3.78705e-05
3.80816e-05
3.82794e-05
3.8465e-05
3.86395e-05
3.88038e-05
3.8959e-05
3.91058e-05
3.92454e-05
3.93783e-05
3.9535e-05
3.98387e-05
3.99089e-05
3.99533e-05
3.99982e-05
4.00436e-05
4.00896e-05
4.01361e-05
4.01831e-05
4.02304e-05
4.02781e-05
4.0326e-05
4.03741e-05
4.04221e-05
4.04699e-05
4.05173e-05
4.05641e-05
4.06099e-05
4.06545e-05
4.06974e-05
4.07382e-05
4.07764e-05
4.08113e-05
4.08425e-05
4.08693e-05
4.08911e-05
4.09071e-05
4.09168e-05
4.09194e-05
4.09146e-05
4.09019e-05
4.08811e-05
4.08523e-05
4.08154e-05
4.0771e-05
4.07194e-05
4.06613e-05
4.05973e-05
4.05283e-05
4.0455e-05
4.03512e-05
4.00049e-05
3.98151e-05
3.96506e-05
3.94806e-05
3.93046e-05
3.91218e-05
3.89314e-05
3.87325e-05
3.85239e-05
3.83048e-05
3.8074e-05
3.78302e-05
3.75722e-05
3.72987e-05
3.70084e-05
3.66999e-05
3.63718e-05
3.60227e-05
3.56511e-05
3.52556e-05
3.48349e-05
3.43876e-05
3.39125e-05
3.34084e-05
3.28743e-05
3.23095e-05
3.17131e-05
3.10849e-05
3.04245e-05
2.30955e-05
3.37314e-05
3.03804e-05
3.10377e-05
3.16626e-05
3.22553e-05
3.28161e-05
3.33456e-05
3.38445e-05
3.43137e-05
3.47544e-05
3.51676e-05
3.55547e-05
3.59169e-05
3.62557e-05
3.65723e-05
3.6868e-05
3.71443e-05
3.74025e-05
3.76438e-05
3.78694e-05
3.80806e-05
3.82785e-05
3.84642e-05
3.86388e-05
3.88032e-05
3.89585e-05
3.91054e-05
3.9245e-05
3.93781e-05
3.95349e-05
3.98388e-05
3.9909e-05
3.99534e-05
3.99984e-05
4.00439e-05
4.00899e-05
4.01364e-05
4.01834e-05
4.02308e-05
4.02785e-05
4.03264e-05
4.03744e-05
4.04223e-05
4.04701e-05
4.05174e-05
4.0564e-05
4.06097e-05
4.0654e-05
4.06967e-05
4.07373e-05
4.07752e-05
4.08099e-05
4.08408e-05
4.08673e-05
4.08888e-05
4.09046e-05
4.0914e-05
4.09166e-05
4.09117e-05
4.08991e-05
4.08785e-05
4.08499e-05
4.08135e-05
4.07695e-05
4.07184e-05
4.06609e-05
4.05976e-05
4.05291e-05
4.04564e-05
4.03532e-05
4.00074e-05
3.98181e-05
3.96539e-05
3.94842e-05
3.93085e-05
3.9126e-05
3.89358e-05
3.8737e-05
3.85286e-05
3.83097e-05
3.80789e-05
3.78353e-05
3.75774e-05
3.7304e-05
3.70139e-05
3.67054e-05
3.63774e-05
3.60283e-05
3.56568e-05
3.52614e-05
3.48407e-05
3.43934e-05
3.39184e-05
3.34143e-05
3.28803e-05
3.23154e-05
3.1719e-05
3.10907e-05
3.04304e-05
2.31013e-05
3.37278e-05
3.03777e-05
3.1035e-05
3.166e-05
3.22527e-05
3.28136e-05
3.33431e-05
3.38421e-05
3.43114e-05
3.47521e-05
3.51655e-05
3.55527e-05
3.5915e-05
3.62538e-05
3.65705e-05
3.68664e-05
3.71428e-05
3.74011e-05
3.76424e-05
3.78682e-05
3.80795e-05
3.82775e-05
3.84633e-05
3.8638e-05
3.88025e-05
3.89578e-05
3.91049e-05
3.92446e-05
3.93777e-05
3.95346e-05
3.98387e-05
3.9909e-05
3.99535e-05
3.99985e-05
4.0044e-05
4.009e-05
4.01366e-05
4.01836e-05
4.0231e-05
4.02786e-05
4.03265e-05
4.03745e-05
4.04224e-05
4.047e-05
4.05172e-05
4.05637e-05
4.06092e-05
4.06534e-05
4.06959e-05
4.07362e-05
4.07738e-05
4.08082e-05
4.08389e-05
4.08651e-05
4.08864e-05
4.0902e-05
4.09113e-05
4.09137e-05
4.09089e-05
4.08964e-05
4.0876e-05
4.08478e-05
4.08117e-05
4.07682e-05
4.07177e-05
4.06608e-05
4.05981e-05
4.05303e-05
4.04582e-05
4.03555e-05
4.00104e-05
3.98215e-05
3.96577e-05
3.94884e-05
3.93129e-05
3.91306e-05
3.89407e-05
3.87421e-05
3.85339e-05
3.83151e-05
3.80845e-05
3.7841e-05
3.75833e-05
3.731e-05
3.70199e-05
3.67116e-05
3.63837e-05
3.60347e-05
3.56632e-05
3.52679e-05
3.48473e-05
3.44e-05
3.3925e-05
3.3421e-05
3.28869e-05
3.23221e-05
3.17257e-05
3.10974e-05
3.0437e-05
2.31079e-05
3.37239e-05
3.03747e-05
3.1032e-05
3.16571e-05
3.22499e-05
3.28108e-05
3.33404e-05
3.38395e-05
3.43089e-05
3.47497e-05
3.51631e-05
3.55504e-05
3.59128e-05
3.62518e-05
3.65686e-05
3.68646e-05
3.71411e-05
3.73994e-05
3.76409e-05
3.78668e-05
3.80782e-05
3.82763e-05
3.84622e-05
3.8637e-05
3.88016e-05
3.89571e-05
3.91042e-05
3.9244e-05
3.93772e-05
3.95342e-05
3.98385e-05
3.99089e-05
3.99534e-05
3.99984e-05
4.0044e-05
4.00901e-05
4.01366e-05
4.01836e-05
4.0231e-05
4.02787e-05
4.03265e-05
4.03744e-05
4.04223e-05
4.04698e-05
4.05169e-05
4.05633e-05
4.06086e-05
4.06526e-05
4.06949e-05
4.0735e-05
4.07724e-05
4.08065e-05
4.08369e-05
4.08629e-05
4.08839e-05
4.08993e-05
4.09085e-05
4.09109e-05
4.09062e-05
4.08938e-05
4.08737e-05
4.08458e-05
4.08102e-05
4.07672e-05
4.07173e-05
4.0661e-05
4.0599e-05
4.05319e-05
4.04603e-05
4.03582e-05
4.00139e-05
3.98254e-05
3.9662e-05
3.9493e-05
3.93179e-05
3.91359e-05
3.89461e-05
3.87478e-05
3.85398e-05
3.83212e-05
3.80908e-05
3.78474e-05
3.75898e-05
3.73167e-05
3.70267e-05
3.67185e-05
3.63907e-05
3.60418e-05
3.56704e-05
3.52751e-05
3.48546e-05
3.44074e-05
3.39324e-05
3.34284e-05
3.28944e-05
3.23296e-05
3.17332e-05
3.11049e-05
3.04445e-05
2.31153e-05
3.37197e-05
3.03715e-05
3.10289e-05
3.16539e-05
3.22468e-05
3.28078e-05
3.33375e-05
3.38366e-05
3.43061e-05
3.4747e-05
3.51605e-05
3.55479e-05
3.59105e-05
3.62495e-05
3.65664e-05
3.68625e-05
3.71392e-05
3.73976e-05
3.76392e-05
3.78652e-05
3.80767e-05
3.82749e-05
3.8461e-05
3.86358e-05
3.88006e-05
3.89561e-05
3.91034e-05
3.92433e-05
3.93766e-05
3.95337e-05
3.98383e-05
3.99086e-05
3.99532e-05
3.99983e-05
4.00438e-05
4.00899e-05
4.01365e-05
4.01835e-05
4.02309e-05
4.02785e-05
4.03263e-05
4.03742e-05
4.0422e-05
4.04695e-05
4.05164e-05
4.05627e-05
4.06079e-05
4.06517e-05
4.06937e-05
4.07336e-05
4.07708e-05
4.08047e-05
4.08348e-05
4.08606e-05
4.08814e-05
4.08967e-05
4.09058e-05
4.09082e-05
4.09035e-05
4.08914e-05
4.08715e-05
4.0844e-05
4.08089e-05
4.07665e-05
4.07172e-05
4.06616e-05
4.06002e-05
4.05337e-05
4.04629e-05
4.03614e-05
4.00178e-05
3.98298e-05
3.96668e-05
3.94982e-05
3.93234e-05
3.91417e-05
3.89522e-05
3.87541e-05
3.85463e-05
3.83279e-05
3.80977e-05
3.78545e-05
3.7597e-05
3.7324e-05
3.70342e-05
3.67261e-05
3.63984e-05
3.60496e-05
3.56783e-05
3.52831e-05
3.48627e-05
3.44156e-05
3.39406e-05
3.34367e-05
3.29028e-05
3.23379e-05
3.17416e-05
3.11132e-05
3.04528e-05
2.31235e-05
3.37152e-05
3.0368e-05
3.10254e-05
3.16506e-05
3.22435e-05
3.28046e-05
3.33343e-05
3.38335e-05
3.43031e-05
3.47441e-05
3.51577e-05
3.55452e-05
3.59079e-05
3.62471e-05
3.65641e-05
3.68603e-05
3.7137e-05
3.73956e-05
3.76374e-05
3.78635e-05
3.80751e-05
3.82734e-05
3.84596e-05
3.86345e-05
3.87994e-05
3.8955e-05
3.91024e-05
3.92424e-05
3.93758e-05
3.9533e-05
3.98379e-05
3.99083e-05
3.99529e-05
3.9998e-05
4.00436e-05
4.00897e-05
4.01362e-05
4.01832e-05
4.02306e-05
4.02782e-05
4.0326e-05
4.03738e-05
4.04215e-05
4.04689e-05
4.05158e-05
4.05619e-05
4.06069e-05
4.06506e-05
4.06924e-05
4.07321e-05
4.0769e-05
4.08027e-05
4.08327e-05
4.08583e-05
4.08789e-05
4.08941e-05
4.09031e-05
4.09056e-05
4.0901e-05
4.08891e-05
4.08696e-05
4.08425e-05
4.08079e-05
4.07661e-05
4.07174e-05
4.06625e-05
4.06018e-05
4.0536e-05
4.04658e-05
4.03649e-05
4.00221e-05
3.98346e-05
3.96721e-05
3.95039e-05
3.93295e-05
3.9148e-05
3.89589e-05
3.8761e-05
3.85535e-05
3.83353e-05
3.81052e-05
3.78622e-05
3.76049e-05
3.73321e-05
3.70424e-05
3.67345e-05
3.64069e-05
3.60582e-05
3.5687e-05
3.5292e-05
3.48716e-05
3.44246e-05
3.39497e-05
3.34458e-05
3.29119e-05
3.23472e-05
3.17508e-05
3.11225e-05
3.04619e-05
2.31327e-05
3.37103e-05
3.03643e-05
3.10217e-05
3.16469e-05
3.22399e-05
3.28011e-05
3.33309e-05
3.38302e-05
3.42999e-05
3.4741e-05
3.51547e-05
3.55423e-05
3.59051e-05
3.62444e-05
3.65615e-05
3.68579e-05
3.71348e-05
3.73935e-05
3.76353e-05
3.78615e-05
3.80733e-05
3.82717e-05
3.8458e-05
3.86331e-05
3.8798e-05
3.89538e-05
3.91013e-05
3.92414e-05
3.93749e-05
3.95322e-05
3.98374e-05
3.99078e-05
3.99524e-05
3.99975e-05
4.00431e-05
4.00892e-05
4.01358e-05
4.01828e-05
4.02302e-05
4.02778e-05
4.03255e-05
4.03733e-05
4.04209e-05
4.04682e-05
4.0515e-05
4.05609e-05
4.06058e-05
4.06493e-05
4.0691e-05
4.07305e-05
4.07672e-05
4.08007e-05
4.08304e-05
4.08559e-05
4.08764e-05
4.08915e-05
4.09006e-05
4.09031e-05
4.08986e-05
4.08869e-05
4.08678e-05
4.08412e-05
4.08071e-05
4.07659e-05
4.07179e-05
4.06637e-05
4.06037e-05
4.05386e-05
4.04691e-05
4.03688e-05
4.0027e-05
3.984e-05
3.9678e-05
3.95102e-05
3.93361e-05
3.9155e-05
3.89661e-05
3.87685e-05
3.85613e-05
3.83433e-05
3.81135e-05
3.78706e-05
3.76135e-05
3.73409e-05
3.70514e-05
3.67436e-05
3.64161e-05
3.60676e-05
3.56966e-05
3.53016e-05
3.48813e-05
3.44344e-05
3.39597e-05
3.34559e-05
3.2922e-05
3.23573e-05
3.1761e-05
3.11326e-05
3.0472e-05
2.31427e-05
3.37052e-05
3.03603e-05
3.10178e-05
3.1643e-05
3.22361e-05
3.27973e-05
3.33272e-05
3.38266e-05
3.42964e-05
3.47376e-05
3.51515e-05
3.55392e-05
3.59021e-05
3.62415e-05
3.65588e-05
3.68553e-05
3.71323e-05
3.73911e-05
3.76331e-05
3.78594e-05
3.80713e-05
3.82699e-05
3.84563e-05
3.86315e-05
3.87965e-05
3.89524e-05
3.91e-05
3.92402e-05
3.93739e-05
3.95312e-05
3.98367e-05
3.99072e-05
3.99518e-05
3.99969e-05
4.00426e-05
4.00887e-05
4.01353e-05
4.01822e-05
4.02296e-05
4.02771e-05
4.03248e-05
4.03726e-05
4.04201e-05
4.04673e-05
4.0514e-05
4.05599e-05
4.06046e-05
4.06479e-05
4.06895e-05
4.07287e-05
4.07653e-05
4.07986e-05
4.08282e-05
4.08535e-05
4.0874e-05
4.0889e-05
4.08981e-05
4.09007e-05
4.08964e-05
4.0885e-05
4.08663e-05
4.08401e-05
4.08066e-05
4.07661e-05
4.07188e-05
4.06652e-05
4.0606e-05
4.05417e-05
4.04728e-05
4.03732e-05
4.00323e-05
3.98459e-05
3.96843e-05
3.9517e-05
3.93433e-05
3.91626e-05
3.8974e-05
3.87767e-05
3.85697e-05
3.8352e-05
3.81224e-05
3.78798e-05
3.76229e-05
3.73504e-05
3.70611e-05
3.67535e-05
3.64262e-05
3.60778e-05
3.57069e-05
3.53121e-05
3.4892e-05
3.44452e-05
3.39705e-05
3.34668e-05
3.2933e-05
3.23684e-05
3.17721e-05
3.11437e-05
3.04831e-05
2.31537e-05
3.36996e-05
3.03561e-05
3.10136e-05
3.16389e-05
3.2232e-05
3.27933e-05
3.33233e-05
3.38228e-05
3.42927e-05
3.4734e-05
3.5148e-05
3.55359e-05
3.58989e-05
3.62384e-05
3.65558e-05
3.68524e-05
3.71296e-05
3.73886e-05
3.76307e-05
3.78571e-05
3.80691e-05
3.82678e-05
3.84543e-05
3.86297e-05
3.87949e-05
3.89509e-05
3.90986e-05
3.92389e-05
3.93726e-05
3.95301e-05
3.9836e-05
3.99064e-05
3.99511e-05
3.99962e-05
4.00418e-05
4.0088e-05
4.01345e-05
4.01815e-05
4.02288e-05
4.02763e-05
4.0324e-05
4.03717e-05
4.04192e-05
4.04663e-05
4.05129e-05
4.05586e-05
4.06032e-05
4.06464e-05
4.06878e-05
4.07269e-05
4.07633e-05
4.07965e-05
4.08259e-05
4.08511e-05
4.08715e-05
4.08865e-05
4.08957e-05
4.08984e-05
4.08944e-05
4.08833e-05
4.0865e-05
4.08393e-05
4.08064e-05
4.07665e-05
4.072e-05
4.06672e-05
4.06087e-05
4.05451e-05
4.0477e-05
4.0378e-05
4.00381e-05
3.98523e-05
3.96912e-05
3.95243e-05
3.93511e-05
3.91707e-05
3.89825e-05
3.87855e-05
3.85788e-05
3.83614e-05
3.8132e-05
3.78896e-05
3.7633e-05
3.73608e-05
3.70716e-05
3.67642e-05
3.64371e-05
3.60889e-05
3.57182e-05
3.53235e-05
3.49035e-05
3.44569e-05
3.39823e-05
3.34787e-05
3.2945e-05
3.23804e-05
3.17841e-05
3.11557e-05
3.04951e-05
2.31657e-05
3.36938e-05
3.03516e-05
3.10091e-05
3.16345e-05
3.22277e-05
3.27891e-05
3.33192e-05
3.38188e-05
3.42888e-05
3.47302e-05
3.51443e-05
3.55323e-05
3.58955e-05
3.62352e-05
3.65527e-05
3.68494e-05
3.71267e-05
3.73858e-05
3.76281e-05
3.78547e-05
3.80668e-05
3.82656e-05
3.84523e-05
3.86277e-05
3.87931e-05
3.89492e-05
3.9097e-05
3.92374e-05
3.93713e-05
3.95288e-05
3.98351e-05
3.99055e-05
3.99502e-05
3.99953e-05
4.0041e-05
4.00871e-05
4.01336e-05
4.01806e-05
4.02279e-05
4.02754e-05
4.0323e-05
4.03706e-05
4.0418e-05
4.04651e-05
4.05116e-05
4.05572e-05
4.06017e-05
4.06448e-05
4.0686e-05
4.0725e-05
4.07612e-05
4.07943e-05
4.08236e-05
4.08488e-05
4.08691e-05
4.08842e-05
4.08934e-05
4.08963e-05
4.08925e-05
4.08818e-05
4.08639e-05
4.08388e-05
4.08065e-05
4.07673e-05
4.07215e-05
4.06695e-05
4.06118e-05
4.05489e-05
4.04816e-05
4.03832e-05
4.00444e-05
3.98592e-05
3.96987e-05
3.95323e-05
3.93595e-05
3.91795e-05
3.89917e-05
3.8795e-05
3.85886e-05
3.83715e-05
3.81424e-05
3.79003e-05
3.76439e-05
3.73719e-05
3.7083e-05
3.67758e-05
3.64489e-05
3.61009e-05
3.57303e-05
3.53358e-05
3.4916e-05
3.44695e-05
3.39951e-05
3.34916e-05
3.2958e-05
3.23934e-05
3.17972e-05
3.11688e-05
3.05081e-05
2.31787e-05
3.36877e-05
3.03468e-05
3.10045e-05
3.16299e-05
3.22232e-05
3.27846e-05
3.33148e-05
3.38145e-05
3.42846e-05
3.47262e-05
3.51404e-05
3.55285e-05
3.58918e-05
3.62317e-05
3.65493e-05
3.68462e-05
3.71236e-05
3.73829e-05
3.76253e-05
3.7852e-05
3.80643e-05
3.82633e-05
3.845e-05
3.86256e-05
3.87911e-05
3.89473e-05
3.90953e-05
3.92358e-05
3.93697e-05
3.95274e-05
3.9834e-05
3.99045e-05
3.99492e-05
3.99943e-05
4.00399e-05
4.0086e-05
4.01326e-05
4.01795e-05
4.02268e-05
4.02743e-05
4.03218e-05
4.03694e-05
4.04167e-05
4.04637e-05
4.05101e-05
4.05556e-05
4.06001e-05
4.0643e-05
4.06841e-05
4.0723e-05
4.07591e-05
4.07921e-05
4.08213e-05
4.08464e-05
4.08668e-05
4.08819e-05
4.08912e-05
4.08944e-05
4.08909e-05
4.08806e-05
4.08631e-05
4.08386e-05
4.0807e-05
4.07685e-05
4.07234e-05
4.06722e-05
4.06153e-05
4.05532e-05
4.04866e-05
4.0389e-05
4.00513e-05
3.98666e-05
3.97067e-05
3.95408e-05
3.93685e-05
3.9189e-05
3.90015e-05
3.88052e-05
3.85992e-05
3.83823e-05
3.81535e-05
3.79117e-05
3.76556e-05
3.73838e-05
3.70952e-05
3.67882e-05
3.64616e-05
3.61138e-05
3.57434e-05
3.53491e-05
3.49295e-05
3.44831e-05
3.40089e-05
3.35055e-05
3.2972e-05
3.24075e-05
3.18113e-05
3.11829e-05
3.05222e-05
2.31927e-05
3.36812e-05
3.03419e-05
3.09995e-05
3.1625e-05
3.22184e-05
3.27799e-05
3.33102e-05
3.381e-05
3.42802e-05
3.4722e-05
3.51363e-05
3.55246e-05
3.5888e-05
3.6228e-05
3.65458e-05
3.68428e-05
3.71204e-05
3.73798e-05
3.76223e-05
3.78492e-05
3.80616e-05
3.82607e-05
3.84476e-05
3.86233e-05
3.87889e-05
3.89453e-05
3.90933e-05
3.9234e-05
3.9368e-05
3.95258e-05
3.98329e-05
3.99033e-05
3.9948e-05
3.99931e-05
4.00387e-05
4.00848e-05
4.01314e-05
4.01783e-05
4.02255e-05
4.0273e-05
4.03205e-05
4.0368e-05
4.04153e-05
4.04622e-05
4.05085e-05
4.0554e-05
4.05983e-05
4.06411e-05
4.06821e-05
4.07209e-05
4.07569e-05
4.07898e-05
4.08191e-05
4.08441e-05
4.08645e-05
4.08797e-05
4.08892e-05
4.08926e-05
4.08895e-05
4.08795e-05
4.08626e-05
4.08387e-05
4.08078e-05
4.077e-05
4.07257e-05
4.06753e-05
4.06192e-05
4.0558e-05
4.04921e-05
4.03952e-05
4.00587e-05
3.98747e-05
3.97153e-05
3.955e-05
3.93781e-05
3.91991e-05
3.9012e-05
3.88161e-05
3.86104e-05
3.83939e-05
3.81655e-05
3.79239e-05
3.76681e-05
3.73966e-05
3.71083e-05
3.68016e-05
3.64751e-05
3.61276e-05
3.57575e-05
3.53634e-05
3.49439e-05
3.44978e-05
3.40237e-05
3.35204e-05
3.29871e-05
3.24226e-05
3.18265e-05
3.11981e-05
3.05374e-05
2.32079e-05
3.36744e-05
3.03366e-05
3.09944e-05
3.16199e-05
3.22133e-05
3.2775e-05
3.33054e-05
3.38053e-05
3.42756e-05
3.47175e-05
3.5132e-05
3.55204e-05
3.58839e-05
3.6224e-05
3.6542e-05
3.68392e-05
3.71169e-05
3.73765e-05
3.76191e-05
3.78462e-05
3.80587e-05
3.8258e-05
3.8445e-05
3.86209e-05
3.87866e-05
3.89431e-05
3.90912e-05
3.9232e-05
3.93662e-05
3.9524e-05
3.98316e-05
3.9902e-05
3.99466e-05
3.99918e-05
4.00374e-05
4.00835e-05
4.013e-05
4.01769e-05
4.02241e-05
4.02715e-05
4.0319e-05
4.03664e-05
4.04137e-05
4.04605e-05
4.05067e-05
4.05521e-05
4.05963e-05
4.06391e-05
4.068e-05
4.07187e-05
4.07547e-05
4.07876e-05
4.08168e-05
4.08419e-05
4.08623e-05
4.08777e-05
4.08874e-05
4.0891e-05
4.08883e-05
4.08788e-05
4.08624e-05
4.08391e-05
4.08089e-05
4.07719e-05
4.07285e-05
4.06789e-05
4.06236e-05
4.05632e-05
4.04981e-05
4.04019e-05
4.00667e-05
3.98833e-05
3.97246e-05
3.95598e-05
3.93885e-05
3.92099e-05
3.90233e-05
3.88278e-05
3.86225e-05
3.84063e-05
3.81782e-05
3.7937e-05
3.76815e-05
3.74103e-05
3.71222e-05
3.68158e-05
3.64897e-05
3.61424e-05
3.57725e-05
3.53787e-05
3.49594e-05
3.45135e-05
3.40396e-05
3.35365e-05
3.30032e-05
3.24389e-05
3.18428e-05
3.12145e-05
3.05537e-05
2.32241e-05
3.36673e-05
3.03312e-05
3.09889e-05
3.16146e-05
3.22081e-05
3.27698e-05
3.33003e-05
3.38003e-05
3.42708e-05
3.47128e-05
3.51274e-05
3.5516e-05
3.58797e-05
3.62199e-05
3.65381e-05
3.68354e-05
3.71133e-05
3.7373e-05
3.76158e-05
3.7843e-05
3.80557e-05
3.82551e-05
3.84422e-05
3.86182e-05
3.87841e-05
3.89407e-05
3.9089e-05
3.92299e-05
3.93642e-05
3.95221e-05
3.98301e-05
3.99005e-05
3.99452e-05
3.99903e-05
4.00359e-05
4.00819e-05
4.01284e-05
4.01753e-05
4.02224e-05
4.02698e-05
4.03173e-05
4.03647e-05
4.04119e-05
4.04587e-05
4.05048e-05
4.05501e-05
4.05943e-05
4.0637e-05
4.06778e-05
4.07165e-05
4.07524e-05
4.07853e-05
4.08145e-05
4.08397e-05
4.08602e-05
4.08757e-05
4.08857e-05
4.08897e-05
4.08873e-05
4.08783e-05
4.08626e-05
4.08399e-05
4.08104e-05
4.07742e-05
4.07316e-05
4.06829e-05
4.06285e-05
4.05689e-05
4.05046e-05