/*--------------------------------*- C++ -*----------------------------------*\
  =========                 |
  \\      /  F ield         | OpenFOAM: The Open Source CFD Toolbox
   \\    /   O peration     | Website:  https://openfoam.org
    \\  /    A nd           | Version:  9
     \\/     M anipulation  |
\*---------------------------------------------------------------------------*/
FoamFile
{
    format      ascii;
    class       volVectorField;
    location    "0.03";
    object      U;
}
// * * * * * * * * * * * * * * * * * * * * * * * * * * * * * * * * * * * * * //

dimensions      [0 1 -1 0 0 0 0];

internalField   nonuniform List<vector> 
20000
(
(-8.8709e-06 0 -0.000877396)
(-4.00168e-06 0 -0.00165848)
(-2.34507e-06 0 -0.0025031)
(-1.26803e-06 0 -0.00340772)
(-2.2458e-07 0 -0.00436862)
(8.51802e-07 0 -0.00538789)
(2.01999e-06 0 -0.00646948)
(3.29287e-06 0 -0.00761782)
(4.68518e-06 0 -0.00883786)
(6.20863e-06 0 -0.0101351)
(7.87109e-06 0 -0.011515)
(9.67913e-06 0 -0.0129834)
(1.16403e-05 0 -0.0145455)
(1.37638e-05 0 -0.0162067)
(1.60603e-05 0 -0.0179725)
(1.85413e-05 0 -0.0198483)
(2.12193e-05 0 -0.0218397)
(2.41075e-05 0 -0.0239527)
(2.72207e-05 0 -0.0261935)
(3.05752e-05 0 -0.0285688)
(3.41893e-05 0 -0.0310858)
(3.8084e-05 0 -0.0337522)
(4.22831e-05 0 -0.0365763)
(4.68142e-05 0 -0.0395673)
(5.17095e-05 0 -0.0427352)
(5.70062e-05 0 -0.0460912)
(6.27468e-05 0 -0.0496476)
(6.89769e-05 0 -0.0534181)
(7.57453e-05 0 -0.0574178)
(8.31231e-05 0 -0.0616627)
(9.14859e-05 0 -0.0665507)
(0.000100759 0 -0.0719741)
(0.000110468 0 -0.0774449)
(0.000120558 0 -0.0829676)
(0.000131013 0 -0.0885456)
(0.000141796 0 -0.0941798)
(0.00015285 0 -0.0998691)
(0.000164104 0 -0.10561)
(0.000175473 0 -0.111398)
(0.000186849 0 -0.117225)
(0.000198101 0 -0.123082)
(0.000209061 0 -0.128959)
(0.000219525 0 -0.134842)
(0.000229245 0 -0.140713)
(0.000237927 0 -0.146554)
(0.000245229 0 -0.15234)
(0.000250732 0 -0.158044)
(0.000253893 0 -0.163634)
(0.000254 0 -0.169068)
(0.000250258 0 -0.174294)
(0.000241975 0 -0.179243)
(0.000228601 0 -0.183852)
(0.000209531 0 -0.188051)
(0.000184041 0 -0.191763)
(0.000151575 0 -0.194894)
(0.000111975 0 -0.197345)
(6.56116e-05 0 -0.199013)
(1.34503e-05 0 -0.199802)
(-4.2997e-05 0 -0.199625)
(-0.0001017 0 -0.198414)
(-0.000160204 0 -0.19612)
(-0.000215858 0 -0.192724)
(-0.000266093 0 -0.188236)
(-0.000308705 0 -0.182697)
(-0.000342095 0 -0.176174)
(-0.00036541 0 -0.168754)
(-0.000378513 0 -0.160538)
(-0.000381815 0 -0.151631)
(-0.000376118 0 -0.142137)
(-0.000362655 0 -0.132165)
(-0.000343967 0 -0.122774)
(-0.000322625 0 -0.114377)
(-0.000299874 0 -0.10631)
(-0.000276781 0 -0.0985982)
(-0.000254024 0 -0.0912521)
(-0.000231985 0 -0.0842722)
(-0.000210883 0 -0.0776557)
(-0.000190853 0 -0.071397)
(-0.000171978 0 -0.0654885)
(-0.000154303 0 -0.059921)
(-0.000137847 0 -0.0546838)
(-0.000122602 0 -0.0497656)
(-0.000108546 0 -0.0451542)
(-9.56435e-05 0 -0.0408371)
(-8.38516e-05 0 -0.0368018)
(-7.3121e-05 0 -0.0330354)
(-6.33988e-05 0 -0.0295252)
(-5.46294e-05 0 -0.0262583)
(-4.67553e-05 0 -0.0232221)
(-3.97168e-05 0 -0.0204041)
(-3.34516e-05 0 -0.0177922)
(-2.78987e-05 0 -0.015375)
(-2.30082e-05 0 -0.013141)
(-1.87559e-05 0 -0.0110785)
(-1.51506e-05 0 -0.00917416)
(-1.22417e-05 0 -0.00741273)
(-1.00604e-05 0 -0.00577711)
(-9.06655e-06 0 -0.00424576)
(-9.35136e-06 0 -0.00279071)
(-5.92574e-06 0 -0.0012839)
(-3.23589e-05 0 -0.000921429)
(-2.18937e-05 0 -0.00167597)
(-1.78122e-05 0 -0.00251522)
(-1.49442e-05 0 -0.00341849)
(-1.21909e-05 0 -0.00437948)
(-9.3664e-06 0 -0.00539945)
(-6.30722e-06 0 -0.00648191)
(-2.95942e-06 0 -0.00763123)
(7.29361e-07 0 -0.00885236)
(4.79564e-06 0 -0.0101507)
(9.26255e-06 0 -0.0115319)
(1.41505e-05 0 -0.0130015)
(1.94822e-05 0 -0.0145649)
(2.52852e-05 0 -0.0162276)
(3.15906e-05 0 -0.0179948)
(3.84328e-05 0 -0.0198721)
(4.5849e-05 0 -0.0218652)
(5.38791e-05 0 -0.02398)
(6.25666e-05 0 -0.0262228)
(7.19591e-05 0 -0.0286002)
(8.21092e-05 0 -0.0311193)
(9.30759e-05 0 -0.033788)
(0.000104926 0 -0.0366146)
(0.000117735 0 -0.0396083)
(0.00013159 0 -0.0427791)
(0.00014659 0 -0.0461382)
(0.000162843 0 -0.0496979)
(0.000180464 0 -0.053472)
(0.000199569 0 -0.0574756)
(0.000220328 0 -0.0617246)
(0.000244055 0 -0.0666172)
(0.000270544 0 -0.072046)
(0.000298136 0 -0.0775222)
(0.000326704 0 -0.0830506)
(0.000356205 0 -0.0886343)
(0.000386531 0 -0.0942745)
(0.000417517 0 -0.0999699)
(0.000448954 0 -0.105717)
(0.000480581 0 -0.111511)
(0.000512082 0 -0.117345)
(0.000543062 0 -0.123209)
(0.000573036 0 -0.129092)
(0.000601409 0 -0.134982)
(0.000627468 0 -0.14086)
(0.000650376 0 -0.146707)
(0.00066915 0 -0.1525)
(0.000682605 0 -0.15821)
(0.000689278 0 -0.163806)
(0.000687382 0 -0.169246)
(0.000674732 0 -0.174476)
(0.00064959 0 -0.17943)
(0.000610713 0 -0.184042)
(0.000556453 0 -0.188244)
(0.000485134 0 -0.191957)
(0.000395639 0 -0.195088)
(0.000287834 0 -0.197537)
(0.000162898 0 -0.199203)
(2.34556e-05 0 -0.199989)
(-0.000126499 0 -0.199809)
(-0.000281714 0 -0.198594)
(-0.000435945 0 -0.196296)
(-0.000582505 0 -0.192896)
(-0.000714914 0 -0.188405)
(-0.000827575 0 -0.182862)
(-0.00091634 0 -0.176334)
(-0.00097885 0 -0.16891)
(-0.00101451 0 -0.160688)
(-0.00102412 0 -0.151773)
(-0.00100953 0 -0.142271)
(-0.000973622 0 -0.13229)
(-0.000923765 0 -0.122891)
(-0.000867304 0 -0.114487)
(-0.000806644 0 -0.106411)
(-0.000744498 0 -0.0986921)
(-0.000682781 0 -0.0913384)
(-0.000622681 0 -0.0843515)
(-0.000564926 0 -0.0777284)
(-0.000509982 0 -0.0714635)
(-0.000458142 0 -0.0655493)
(-0.000409577 0 -0.0599765)
(-0.00036436 0 -0.0547345)
(-0.000322495 0 -0.0498117)
(-0.000283935 0 -0.0451961)
(-0.000248591 0 -0.0408752)
(-0.000216349 0 -0.0368363)
(-0.000187076 0 -0.0330666)
(-0.000160627 0 -0.0295533)
(-0.000136847 0 -0.0262836)
(-0.000115577 0 -0.0232447)
(-9.66522e-05 0 -0.0204243)
(-7.99006e-05 0 -0.0178102)
(-6.51568e-05 0 -0.0153909)
(-5.22847e-05 0 -0.0131549)
(-4.12116e-05 0 -0.0110903)
(-3.19294e-05 0 -0.00918349)
(-2.44787e-05 0 -0.0074191)
(-1.88942e-05 0 -0.00577984)
(-1.58978e-05 0 -0.00424395)
(-1.55524e-05 0 -0.00279017)
(-6.13932e-06 0 -0.00128575)
(-5.35793e-05 0 -0.000943425)
(-4.43726e-05 0 -0.00169262)
(-4.00881e-05 0 -0.00252609)
(-3.6498e-05 0 -0.00342605)
(-3.30009e-05 0 -0.00438605)
(-2.92207e-05 0 -0.00540606)
(-2.49714e-05 0 -0.0064888)
(-2.01759e-05 0 -0.00763846)
(-1.47758e-05 0 -0.00885994)
(-8.7303e-06 0 -0.0101586)
(-2.00924e-06 0 -0.0115401)
(5.41708e-06 0 -0.01301)
(1.3583e-05 0 -0.0145737)
(2.25302e-05 0 -0.0162365)
(3.23072e-05 0 -0.018004)
(4.29679e-05 0 -0.0198815)
(5.45713e-05 0 -0.0218748)
(6.71812e-05 0 -0.0239897)
(8.0867e-05 0 -0.0262326)
(9.57046e-05 0 -0.02861)
(0.000111777 0 -0.0311293)
(0.000129178 0 -0.033798)
(0.000148011 0 -0.0366246)
(0.000168394 0 -0.0396183)
(0.000190457 0 -0.0427892)
(0.000214351 0 -0.0461483)
(0.000240236 0 -0.049708)
(0.000268276 0 -0.0534821)
(0.000298613 0 -0.0574856)
(0.000331467 0 -0.0617344)
(0.000369339 0 -0.0666262)
(0.000411834 0 -0.0720547)
(0.000455872 0 -0.0775305)
(0.000501323 0 -0.0830585)
(0.000548142 0 -0.0886417)
(0.000596148 0 -0.0942812)
(0.000645072 0 -0.0999758)
(0.000694568 0 -0.105722)
(0.000744207 0 -0.111514)
(0.000793464 0 -0.117346)
(0.000841693 0 -0.123208)
(0.000888103 0 -0.129089)
(0.000931733 0 -0.134974)
(0.000971441 0 -0.140849)
(0.00100589 0 -0.146691)
(0.00103351 0 -0.152477)
(0.00105244 0 -0.158181)
(0.00106043 0 -0.163768)
(0.00105491 0 -0.169197)
(0.00103237 0 -0.174415)
(0.000990336 0 -0.179356)
(0.000927393 0 -0.183953)
(0.000840985 0 -0.188139)
(0.000728755 0 -0.191835)
(0.000589427 0 -0.194949)
(0.000423093 0 -0.197382)
(0.000231737 0 -0.199034)
(1.94243e-05 0 -0.199809)
(-0.000207827 0 -0.199622)
(-0.00044223 0 -0.198406)
(-0.000674629 0 -0.196114)
(-0.000895255 0 -0.192726)
(-0.00109465 0 -0.188251)
(-0.00126461 0 -0.18273)
(-0.00139895 0 -0.176228)
(-0.00149399 0 -0.16883)
(-0.00154858 0 -0.160634)
(-0.00156365 0 -0.151745)
(-0.00154165 0 -0.142267)
(-0.00148637 0 -0.132307)
(-0.00140992 0 -0.122926)
(-0.00132415 0 -0.114534)
(-0.00123146 0 -0.106468)
(-0.00113591 0 -0.0987547)
(-0.00104056 0 -0.0914052)
(-0.000947347 0 -0.0844211)
(-0.000857535 0 -0.0777998)
(-0.000771937 0 -0.0715358)
(-0.000691077 0 -0.0656218)
(-0.000615265 0 -0.0600485)
(-0.000544652 0 -0.0548054)
(-0.000479268 0 -0.0498812)
(-0.000419053 0 -0.0452638)
(-0.000363885 0 -0.0409407)
(-0.000313593 0 -0.0368994)
(-0.000267973 0 -0.033127)
(-0.000226801 0 -0.0296108)
(-0.000189837 0 -0.026338)
(-0.000156831 0 -0.023296)
(-0.000127524 0 -0.0204723)
(-0.000101653 0 -0.0178549)
(-7.89609e-05 0 -0.0154322)
(-5.92284e-05 0 -0.0131928)
(-4.23077e-05 0 -0.0111243)
(-2.81121e-05 0 -0.00921327)
(-1.65387e-05 0 -0.00744405)
(-7.43062e-06 0 -0.00579952)
(-9.04596e-07 0 -0.00425962)
(3.15614e-06 0 -0.00280608)
(1.30752e-05 0 -0.00130633)
(-8.43654e-05 0 -0.000959761)
(-7.71136e-05 0 -0.00170901)
(-7.30153e-05 0 -0.00253898)
(-6.90739e-05 0 -0.0034362)
(-6.50327e-05 0 -0.00439568)
(-6.05483e-05 0 -0.00541622)
(-5.53977e-05 0 -0.00649975)
(-4.94674e-05 0 -0.00765021)
(-4.26893e-05 0 -0.00887246)
(-3.50142e-05 0 -0.0101718)
(-2.64018e-05 0 -0.011554)
(-1.68112e-05 0 -0.0130243)
(-6.19571e-06 0 -0.0145885)
(5.50083e-06 0 -0.0162517)
(1.83427e-05 0 -0.0180195)
(3.2402e-05 0 -0.0198974)
(4.77579e-05 0 -0.0218909)
(6.44955e-05 0 -0.024006)
(8.27083e-05 0 -0.026249)
(0.000102498 0 -0.0286265)
(0.000123977 0 -0.0311458)
(0.000147269 0 -0.0338145)
(0.000172512 0 -0.036641)
(0.000199861 0 -0.0396346)
(0.000229487 0 -0.0428053)
(0.000261582 0 -0.0461642)
(0.000296354 0 -0.0497237)
(0.000334008 0 -0.0534974)
(0.000374717 0 -0.0575004)
(0.000418723 0 -0.0617485)
(0.000469672 0 -0.0666389)
(0.000527001 0 -0.0720663)
(0.000586238 0 -0.0775412)
(0.000647254 0 -0.0830682)
(0.000709981 0 -0.0886503)
(0.000774163 0 -0.0942883)
(0.000839427 0 -0.099981)
(0.000905291 0 -0.105725)
(0.000971162 0 -0.111515)
(0.00103631 0 -0.117343)
(0.00109986 0 -0.123201)
(0.00116071 0 -0.129077)
(0.00121757 0 -0.134957)
(0.0012689 0 -0.140824)
(0.0013129 0 -0.146658)
(0.00134748 0 -0.152434)
(0.0013702 0 -0.158126)
(0.00137812 0 -0.1637)
(0.00136803 0 -0.169113)
(0.00133554 0 -0.174313)
(0.00127749 0 -0.179233)
(0.00119224 0 -0.183809)
(0.00107669 0 -0.187972)
(0.000928065 0 -0.191643)
(0.000745128 0 -0.194733)
(0.000528314 0 -0.197143)
(0.000280388 0 -0.198775)
(6.65133e-06 0 -0.199534)
(-0.00028521 0 -0.199339)
(-0.000585383 0 -0.198122)
(-0.00088242 0 -0.195837)
(-0.00116416 0 -0.192465)
(-0.00141881 0 -0.188015)
(-0.00163609 0 -0.182524)
(-0.00180817 0 -0.176057)
(-0.00193022 0 -0.168697)
(-0.00200051 0 -0.160539)
(-0.00201991 0 -0.151687)
(-0.00199128 0 -0.142244)
(-0.00191894 0 -0.132316)
(-0.00181913 0 -0.122962)
(-0.00170779 0 -0.11459)
(-0.00158702 0 -0.106538)
(-0.001462 0 -0.0988352)
(-0.00133679 0 -0.0914933)
(-0.00121404 0 -0.0845145)
(-0.00109552 0 -0.0778966)
(-0.000982372 0 -0.0716347)
(-0.00087537 0 -0.0657214)
(-0.000774974 0 -0.0601478)
(-0.000681421 0 -0.0549036)
(-0.000594782 0 -0.0499775)
(-0.000515 0 -0.0453575)
(-0.000441928 0 -0.0410314)
(-0.000375351 0 -0.0369865)
(-0.000315009 0 -0.0332103)
(-0.000260607 0 -0.0296899)
(-0.00021183 0 -0.0264126)
(-0.000168346 0 -0.0233659)
(-0.000129814 0 -0.0205374)
(-9.58853e-05 0 -0.0179152)
(-6.62247e-05 0 -0.0154875)
(-4.05339e-05 0 -0.0132429)
(-1.85809e-05 0 -0.0111691)
(-1.79587e-07 0 -0.00925235)
(1.49391e-05 0 -0.00747728)
(2.72038e-05 0 -0.00582714)
(3.67938e-05 0 -0.00428281)
(4.40142e-05 0 -0.00282684)
(5.25848e-05 0 -0.00132056)
(-0.000129996 0 -0.000970924)
(-0.000124176 0 -0.00172326)
(-0.000120375 0 -0.00255235)
(-0.000116002 0 -0.00344855)
(-0.000111261 0 -0.00440824)
(-0.000105984 0 -0.00542984)
(-9.99223e-05 0 -0.00651472)
(-9.29273e-05 0 -0.0076666)
(-8.49018e-05 0 -0.00889026)
(-7.5773e-05 0 -0.010191)
(-6.54805e-05 0 -0.0115744)
(-5.3966e-05 0 -0.013046)
(-4.11662e-05 0 -0.0146113)
(-2.70086e-05 0 -0.0162756)
(-1.14147e-05 0 -0.0180445)
(5.71186e-06 0 -0.0199233)
(2.447e-05 0 -0.0219178)
(4.49609e-05 0 -0.0240338)
(6.73039e-05 0 -0.0262778)
(9.16252e-05 0 -0.0286562)
(0.000118063 0 -0.0311764)
(0.000146771 0 -0.033846)
(0.000177917 0 -0.0366734)
(0.00021169 0 -0.0396679)
(0.000248297 0 -0.0428395)
(0.000287968 0 -0.0461993)
(0.000330949 0 -0.0497596)
(0.000377492 0 -0.0535343)
(0.000427806 0 -0.0575381)
(0.000482152 0 -0.0617867)
(0.00054516 0 -0.0666773)
(0.000616133 0 -0.0721055)
(0.000689367 0 -0.0775813)
(0.000764705 0 -0.0831092)
(0.000842026 0 -0.0886919)
(0.000920989 0 -0.0943304)
(0.00100112 0 -0.100023)
(0.0010818 0 -0.105767)
(0.00116228 0 -0.111556)
(0.00124164 0 -0.117383)
(0.00131876 0 -0.123238)
(0.00139229 0 -0.129111)
(0.0014606 0 -0.134987)
(0.00152181 0 -0.140848)
(0.0015737 0 -0.146675)
(0.00161372 0 -0.152443)
(0.00163891 0 -0.158124)
(0.00164579 0 -0.163684)
(0.00163067 0 -0.169082)
(0.00158841 0 -0.174263)
(0.00151534 0 -0.179163)
(0.00140976 0 -0.183717)
(0.00126821 0 -0.187856)
(0.00108767 0 -0.191502)
(0.000867084 0 -0.194566)
(0.000607305 0 -0.196951)
(0.00031183 0 -0.198562)
(-1.29876e-05 0 -0.199305)
(-0.000358101 0 -0.199101)
(-0.000712092 0 -0.197882)
(-0.00106174 0 -0.195604)
(-0.00139303 0 -0.192248)
(-0.00169241 0 -0.187822)
(-0.00194795 0 -0.182363)
(-0.00215049 0 -0.175931)
(-0.00229421 0 -0.16861)
(-0.0023768 0 -0.160492)
(-0.00239899 0 -0.151678)
(-0.00236393 0 -0.14227)
(-0.0022763 0 -0.132374)
(-0.00215566 0 -0.123047)
(-0.00202156 0 -0.114693)
(-0.00187582 0 -0.106655)
(-0.00172452 0 -0.0989611)
(-0.00157262 0 -0.0916253)
(-0.00142337 0 -0.0846501)
(-0.001279 0 -0.0780339)
(-0.00114102 0 -0.0717721)
(-0.0010104 0 -0.0658576)
(-0.000887772 0 -0.0602818)
(-0.000773465 0 -0.0550345)
(-0.000667596 0 -0.0501045)
(-0.000570119 0 -0.04548)
(-0.000480873 0 -0.0411489)
(-0.00039961 0 -0.0370986)
(-0.000326017 0 -0.0333165)
(-0.00025974 0 -0.0297901)
(-0.000200397 0 -0.0265066)
(-0.000147585 0 -0.0234535)
(-0.000100886 0 -0.0206185)
(-5.98792e-05 0 -0.0179897)
(-2.41564e-05 0 -0.0155554)
(6.64156e-06 0 -0.0133041)
(3.28221e-05 0 -0.0112233)
(5.46807e-05 0 -0.00929946)
(7.26237e-05 0 -0.00751765)
(8.72783e-05 0 -0.00586159)
(9.90219e-05 0 -0.00431216)
(0.000108154 0 -0.00285057)
(0.000116032 0 -0.00133396)
(-0.000191294 0 -0.000979542)
(-0.00018621 0 -0.00173556)
(-0.000182664 0 -0.00256591)
(-0.000177878 0 -0.00346245)
(-0.000172468 0 -0.00442285)
(-0.000166415 0 -0.00544567)
(-0.000159495 0 -0.00653211)
(-0.000151531 0 -0.00768569)
(-0.000142392 0 -0.0089111)
(-0.000131973 0 -0.0102136)
(-0.000120193 0 -0.0115986)
(-0.000106973 0 -0.0130718)
(-9.22318e-05 0 -0.0146387)
(-7.58794e-05 0 -0.0163046)
(-5.78168e-05 0 -0.018075)
(-3.79329e-05 0 -0.0199553)
(-1.61101e-05 0 -0.0219512)
(7.77843e-06 0 -0.0240688)
(3.38716e-05 0 -0.0263142)
(6.23181e-05 0 -0.0286941)
(9.32816e-05 0 -0.0312157)
(0.000126941 0 -0.0338868)
(0.000163495 0 -0.0367157)
(0.000203161 0 -0.0397117)
(0.000246178 0 -0.0428849)
(0.00029281 0 -0.0462463)
(0.000343336 0 -0.0498084)
(0.000398045 0 -0.0535847)
(0.000457187 0 -0.0575902)
(0.00052104 0 -0.0618403)
(0.000595129 0 -0.0667322)
(0.000678634 0 -0.0721622)
(0.000764705 0 -0.07764)
(0.000853148 0 -0.0831697)
(0.000943777 0 -0.0887541)
(0.00103617 0 -0.094394)
(0.00112974 0 -0.100088)
(0.00122376 0 -0.105832)
(0.00131731 0 -0.111621)
(0.0014093 0 -0.117447)
(0.00149838 0 -0.123301)
(0.00158296 0 -0.129171)
(0.00166113 0 -0.135043)
(0.00173066 0 -0.140899)
(0.001789 0 -0.146718)
(0.00183319 0 -0.152477)
(0.00185983 0 -0.158147)
(0.00186501 0 -0.163694)
(0.00184467 0 -0.169074)
(0.00179313 0 -0.174236)
(0.00170632 0 -0.179114)
(0.00158261 0 -0.183643)
(0.00141831 0 -0.187756)
(0.0012103 0 -0.191375)
(0.000957846 0 -0.194412)
(0.00066224 0 -0.196772)
(0.000327654 0 -0.19836)
(-3.86743e-05 0 -0.199086)
(-0.000426603 0 -0.198871)
(-0.000823469 0 -0.197651)
(-0.00121472 0 -0.195381)
(-0.00158496 0 -0.192043)
(-0.00191929 0 -0.187643)
(-0.00220457 0 -0.182217)
(-0.00243057 0 -0.175824)
(-0.00259065 0 -0.168544)
(-0.00268195 0 -0.160468)
(-0.00270497 0 -0.151694)
(-0.00266305 0 -0.142325)
(-0.00256108 0 -0.132463)
(-0.00242141 0 -0.123163)
(-0.00226681 0 -0.11483)
(-0.00209863 0 -0.106805)
(-0.00192373 0 -0.099121)
(-0.00174779 0 -0.0917911)
(-0.00157464 0 -0.0848191)
(-0.00140692 0 -0.0782039)
(-0.00124646 0 -0.0719413)
(-0.00109446 0 -0.0660246)
(-0.000951693 0 -0.0604454)
(-0.000818589 0 -0.0551936)
(-0.00069531 0 -0.0502584)
(-0.000581829 0 -0.045628)
(-0.000477974 0 -0.0412904)
(-0.000383467 0 -0.0372332)
(-0.000297953 0 -0.0334438)
(-0.000221022 0 -0.0299098)
(-0.000152228 0 -0.0266185)
(-9.11023e-05 0 -0.0235575)
(-3.71579e-05 0 -0.0207144)
(1.0093e-05 0 -0.0180775)
(5.11241e-05 0 -0.0156351)
(8.63603e-05 0 -0.0133754)
(0.000116182 0 -0.0112862)
(0.000140985 0 -0.00935398)
(0.000161294 0 -0.00756436)
(0.000177816 0 -0.00590148)
(0.000190992 0 -0.00434566)
(0.000201152 0 -0.00287625)
(0.000208606 0 -0.00134739)
(-0.000267821 0 -0.000986888)
(-0.000263018 0 -0.00174692)
(-0.000259607 0 -0.00257969)
(-0.000254525 0 -0.00347755)
(-0.000248586 0 -0.00443905)
(-0.000241891 0 -0.00546321)
(-0.000234251 0 -0.00655128)
(-0.00022547 0 -0.00770671)
(-0.000215382 0 -0.00893405)
(-0.000203857 0 -0.0102385)
(-0.000190789 0 -0.0116254)
(-0.000176083 0 -0.0131005)
(-0.00015964 0 -0.0146691)
(-0.000141352 0 -0.0163368)
(-0.000121104 0 -0.0181089)
(-9.87664e-05 0 -0.0199909)
(-7.42037e-05 0 -0.0219886)
(-4.7268e-05 0 -0.0241078)
(-1.78012e-05 0 -0.0263548)
(1.43682e-05 0 -0.0287364)
(4.9427e-05 0 -0.0312597)
(8.7578e-05 0 -0.0339325)
(0.000129045 0 -0.0367631)
(0.000174073 0 -0.0397608)
(0.000222931 0 -0.0429357)
(0.000275911 0 -0.046299)
(0.00033332 0 -0.0498628)
(0.000395478 0 -0.053641)
(0.000462663 0 -0.0576483)
(0.000535172 0 -0.0619)
(0.00061939 0 -0.0667934)
(0.000714369 0 -0.0722254)
(0.000812151 0 -0.0777051)
(0.000912509 0 -0.0832367)
(0.0010152 0 -0.0888228)
(0.00111971 0 -0.094464)
(0.00122537 0 -0.100159)
(0.00133132 0 -0.105903)
(0.0014365 0 -0.111691)
(0.00153965 0 -0.117516)
(0.00163922 0 -0.123368)
(0.00173339 0 -0.129234)
(0.00182 0 -0.135101)
(0.00189655 0 -0.14095)
(0.00196014 0 -0.146761)
(0.0020075 0 -0.152509)
(0.00203489 0 -0.158165)
(0.00203802 0 -0.163695)
(0.0020126 0 -0.169057)
(0.00195256 0 -0.174196)
(0.00185356 0 -0.179048)
(0.00171407 0 -0.183551)
(0.00153034 0 -0.187635)
(0.00129923 0 -0.191224)
(0.00102041 0 -0.19423)
(0.000695643 0 -0.196562)
(0.000329681 0 -0.198126)
(-6.94874e-05 0 -0.198834)
(-0.000490854 0 -0.198609)
(-0.000920815 0 -0.197388)
(-0.00134382 0 -0.195128)
(-0.0017435 0 -0.191808)
(-0.00210397 0 -0.187438)
(-0.00241119 0 -0.182049)
(-0.00265408 0 -0.1757)
(-0.00282536 0 -0.168466)
(-0.00292167 0 -0.160437)
(-0.00294323 0 -0.15171)
(-0.00289345 0 -0.142383)
(-0.0027773 0 -0.13256)
(-0.00261972 0 -0.123292)
(-0.00244625 0 -0.114981)
(-0.00225757 0 -0.106973)
(-0.00206115 0 -0.0993002)
(-0.0018633 0 -0.0919777)
(-0.00166836 0 -0.0850098)
(-0.00147934 0 -0.0783962)
(-0.00129837 0 -0.0721331)
(-0.00112686 0 -0.0662141)
(-0.000965729 0 -0.0606312)
(-0.000815484 0 -0.0553746)
(-0.000676344 0 -0.0504335)
(-0.000548298 0 -0.0457964)
(-0.000431164 0 -0.0414514)
(-0.000324638 0 -0.0373863)
(-0.00022832 0 -0.0335887)
(-0.000141752 0 -0.030046)
(-6.44255e-05 0 -0.0267457)
(4.19168e-06 0 -0.0236755)
(6.46521e-05 0 -0.0208232)
(0.00011751 0 -0.0181768)
(0.000163305 0 -0.0157249)
(0.000202528 0 -0.0134557)
(0.000235638 0 -0.0113567)
(0.000263116 0 -0.00941496)
(0.000285557 0 -0.00761644)
(0.000303668 0 -0.00594549)
(0.000317869 0 -0.00438167)
(0.000328589 0 -0.00290273)
(0.000335643 0 -0.00136077)
(-0.000359562 0 -0.000993788)
(-0.000354803 0 -0.00175798)
(-0.000351455 0 -0.00259379)
(-0.000346165 0 -0.00349363)
(-0.000339841 0 -0.00445661)
(-0.000332653 0 -0.00548229)
(-0.000324441 0 -0.00657211)
(-0.000314995 0 -0.00772953)
(-0.000304122 0 -0.00895899)
(-0.000291663 0 -0.0102656)
(-0.000277494 0 -0.0116546)
(-0.000261502 0 -0.0131318)
(-0.000243574 0 -0.0147024)
(-0.000223588 0 -0.0163721)
(-0.000201412 0 -0.0181461)
(-0.000176901 0 -0.0200301)
(-0.000149902 0 -0.0220296)
(-0.000120248 0 -0.0241506)
(-8.77621e-05 0 -0.0263995)
(-5.22519e-05 0 -0.0287829)
(-1.35101e-05 0 -0.0313079)
(2.86895e-05 0 -0.0339825)
(7.45939e-05 0 -0.0368149)
(0.000124472 0 -0.0398145)
(0.000178618 0 -0.0429912)
(0.000237348 0 -0.0463563)
(0.000300996 0 -0.049922)
(0.000369905 0 -0.053702)
(0.000444376 0 -0.0577111)
(0.00052472 0 -0.0619644)
(0.000618129 0 -0.0668593)
(0.000723535 0 -0.072293)
(0.000831927 0 -0.0777746)
(0.000943049 0 -0.0833079)
(0.0010566 0 -0.0888954)
(0.00117199 0 -0.0945375)
(0.00128846 0 -0.100233)
(0.00140503 0 -0.105977)
(0.00152052 0 -0.111764)
(0.0016335 0 -0.117587)
(0.00174225 0 -0.123435)
(0.00184474 0 -0.129297)
(0.00193859 0 -0.135157)
(0.00202105 0 -0.140998)
(0.00208897 0 -0.146799)
(0.0021388 0 -0.152534)
(0.0021665 0 -0.158174)
(0.00216755 0 -0.163686)
(0.00213747 0 -0.169025)
(0.00206999 0 -0.174139)
(0.00196052 0 -0.178964)
(0.00180772 0 -0.183436)
(0.00160785 0 -0.187489)
(0.00135788 0 -0.191045)
(0.00105789 0 -0.194019)
(0.000710087 0 -0.196321)
(0.000319757 0 -0.19786)
(-0.000104491 0 -0.198549)
(-0.000550978 0 -0.198314)
(-0.0010054 0 -0.197093)
(-0.00145151 0 -0.194843)
(-0.00187221 0 -0.191546)
(-0.00225095 0 -0.187207)
(-0.00257303 0 -0.181859)
(-0.00282677 0 -0.175556)
(-0.00300433 0 -0.168374)
(-0.00310192 0 -0.160397)
(-0.00311949 0 -0.15172)
(-0.00306045 0 -0.142441)
(-0.00292974 0 -0.132662)
(-0.00275473 0 -0.123429)
(-0.0025634 0 -0.115144)
(-0.0023555 0 -0.107154)
(-0.00213904 0 -0.0994954)
(-0.00192087 0 -0.0921817)
(-0.00170574 0 -0.0852192)
(-0.00149703 0 -0.0786079)
(-0.0012971 0 -0.0723446)
(-0.00110757 0 -0.0664236)
(-0.000929486 0 -0.0608368)
(-0.000763437 0 -0.055575)
(-0.000609686 0 -0.0506275)
(-0.000468237 0 -0.0459831)
(-0.000338899 0 -0.04163)
(-0.000221335 0 -0.0375561)
(-0.000115107 0 -0.0337492)
(-1.97022e-05 0 -0.0301968)
(6.5443e-05 0 -0.0268865)
(0.000140925 0 -0.023806)
(0.000207361 0 -0.0209433)
(0.00026537 0 -0.0182865)
(0.000315555 0 -0.0158239)
(0.000358475 0 -0.0135439)
(0.000394659 0 -0.0114342)
(0.000424656 0 -0.00948184)
(0.000449086 0 -0.00767326)
(0.000468617 0 -0.0059928)
(0.000483652 0 -0.00441934)
(0.000494776 0 -0.00292953)
(0.000501502 0 -0.00137398)
(-0.000466971 0 -0.00100053)
(-0.000462157 0 -0.00176898)
(-0.00045886 0 -0.00260817)
(-0.000453432 0 -0.00351041)
(-0.000446834 0 -0.0044752)
(-0.000439267 0 -0.00550259)
(-0.000430593 0 -0.00659432)
(-0.000420598 0 -0.00775391)
(-0.000409064 0 -0.00898571)
(-0.000395813 0 -0.0102947)
(-0.000380698 0 -0.0116861)
(-0.000363593 0 -0.0131656)
(-0.00034437 0 -0.0147385)
(-0.000322895 0 -0.0164104)
(-0.00029902 0 -0.0181866)
(-0.000272587 0 -0.0200726)
(-0.000243426 0 -0.0220742)
(-0.000211355 0 -0.0241974)
(-0.000176176 0 -0.0264483)
(-0.00013768 0 -0.0288336)
(-9.56408e-05 0 -0.0313607)
(-4.98102e-05 0 -0.0340372)
(7.92808e-08 0 -0.0368717)
(5.43177e-05 0 -0.0398732)
(0.000113222 0 -0.0430519)
(0.00017713 0 -0.046419)
(0.000246398 0 -0.0499867)
(0.00032139 0 -0.0537687)
(0.00040243 0 -0.0577797)
(0.000489829 0 -0.0620348)
(0.000591519 0 -0.0669312)
(0.000706314 0 -0.0723668)
(0.000824245 0 -0.0778503)
(0.000945029 0 -0.0833852)
(0.00106831 0 -0.0889741)
(0.00119342 0 -0.0946171)
(0.00131951 0 -0.100312)
(0.0014455 0 -0.106056)
(0.00157008 0 -0.111842)
(0.00169169 0 -0.117662)
(0.00180846 0 -0.123506)
(0.00191817 0 -0.129363)
(0.00201825 0 -0.135216)
(0.00210575 0 -0.141048)
(0.0021773 0 -0.146837)
(0.00222913 0 -0.152558)
(0.00225699 0 -0.158181)
(0.00225616 0 -0.163672)
(0.00222207 0 -0.168988)
(0.00214835 0 -0.174075)
(0.00203027 0 -0.17887)
(0.00186667 0 -0.183311)
(0.00165393 0 -0.18733)
(0.00138915 0 -0.190852)
(0.00107287 0 -0.193793)
(0.000707685 0 -0.196065)
(0.000299364 0 -0.197577)
(-0.000142979 0 -0.198248)
(-0.00060716 0 -0.198003)
(-0.00107837 0 -0.196782)
(-0.00153986 0 -0.194544)
(-0.00197409 0 -0.19127)
(-0.00236404 0 -0.186965)
(-0.00269456 0 -0.18166)
(-0.00295351 0 -0.175408)
(-0.00313265 0 -0.168278)
(-0.00322782 0 -0.160357)
(-0.0032387 0 -0.151734)
(-0.00316867 0 -0.142506)
(-0.00302259 0 -0.132774)
(-0.00283012 0 -0.123579)
(-0.00262135 0 -0.115321)
(-0.00239498 0 -0.107353)
(-0.00215943 0 -0.0997086)
(-0.00192202 0 -0.0924049)
(-0.00168786 0 -0.0854482)
(-0.00146063 0 -0.0788396)
(-0.00124291 0 -0.0725764)
(-0.00103651 0 -0.0666531)
(-0.000842559 0 -0.0610622)
(-0.000661745 0 -0.0557946)
(-0.00049436 0 -0.0508401)
(-0.000340417 0 -0.0461876)
(-0.000199712 0 -0.0418256)
(-7.18751e-05 0 -0.037742)
(4.35692e-05 0 -0.0339248)
(0.000147186 0 -0.0303617)
(0.000239601 0 -0.0270403)
(0.000321469 0 -0.0239485)
(0.000393469 0 -0.0210743)
(0.000456284 0 -0.0184059)
(0.000510576 0 -0.0159317)
(0.000556972 0 -0.0136399)
(0.000596063 0 -0.0115184)
(0.000628445 0 -0.00955441)
(0.000654745 0 -0.00773456)
(0.000675584 0 -0.00604315)
(0.000691394 0 -0.00445854)
(0.000702946 0 -0.00295675)
(0.000709463 0 -0.00138719)
(-0.000590814 0 -0.00100719)
(-0.000585907 0 -0.00177996)
(-0.000582673 0 -0.00262273)
(-0.000577154 0 -0.00352767)
(-0.000570347 0 -0.00449454)
(-0.000562466 0 -0.00552384)
(-0.000553389 0 -0.00661767)
(-0.000542905 0 -0.0077796)
(-0.000530787 0 -0.00901395)
(-0.000516837 0 -0.0103255)
(-0.00050089 0 -0.0117196)
(-0.000482805 0 -0.0132016)
(-0.000462443 0 -0.0147771)
(-0.000439654 0 -0.0164514)
(-0.000414281 0 -0.01823)
(-0.000386149 0 -0.0201184)
(-0.000355074 0 -0.0221223)
(-0.000320857 0 -0.0242477)
(-0.000283286 0 -0.0265009)
(-0.000242132 0 -0.0288885)
(-0.000197153 0 -0.0314178)
(-0.000148081 0 -0.0340965)
(-9.46313e-05 0 -0.0369332)
(-3.64953e-05 0 -0.0399369)
(2.66653e-05 0 -0.0431178)
(9.52084e-05 0 -0.0464871)
(0.000169505 0 -0.0500571)
(0.000249942 0 -0.0538412)
(0.00033686 0 -0.0578543)
(0.000430573 0 -0.0621113)
(0.000539667 0 -0.0670095)
(0.00066285 0 -0.0724471)
(0.000789293 0 -0.0779327)
(0.00091869 0 -0.0834694)
(0.00105062 0 -0.0890597)
(0.00118435 0 -0.0947036)
(0.00131895 0 -0.100399)
(0.00145325 0 -0.106142)
(0.00158583 0 -0.111926)
(0.00171501 0 -0.117744)
(0.00183876 0 -0.123584)
(0.00195475 0 -0.129434)
(0.00206022 0 -0.13528)
(0.00215207 0 -0.141102)
(0.00222674 0 -0.146878)
(0.0022803 0 -0.152584)
(0.00230835 0 -0.15819)
(0.00230604 0 -0.163659)
(0.00226876 0 -0.16895)
(0.00219014 0 -0.174008)
(0.00206538 0 -0.178773)
(0.00189349 0 -0.183181)
(0.00167106 0 -0.187166)
(0.00139538 0 -0.190653)
(0.00106738 0 -0.19356)
(0.000690066 0 -0.195801)
(0.00026961 0 -0.197288)
(-0.000184476 0 -0.19794)
(-0.000659634 0 -0.197685)
(-0.0011407 0 -0.196466)
(-0.00161064 0 -0.194241)
(-0.00205161 0 -0.190991)
(-0.00244634 0 -0.186722)
(-0.00277937 0 -0.181462)
(-0.00303828 0 -0.17526)
(-0.00321448 0 -0.168187)
(-0.00330355 0 -0.160323)
(-0.00330492 0 -0.151757)
(-0.0032219 0 -0.142583)
(-0.00305927 0 -0.132899)
(-0.00284889 0 -0.123744)
(-0.00262266 0 -0.115515)
(-0.00237809 0 -0.107569)
(-0.00212398 0 -0.0999403)
(-0.00186801 0 -0.0926471)
(-0.00161559 0 -0.0856968)
(-0.00137065 0 -0.0790911)
(-0.00113599 0 -0.0728277)
(-0.00091353 0 -0.0669019)
(-0.000704537 0 -0.0613064)
(-0.000509738 0 -0.0560326)
(-0.000329459 0 -0.0510704)
(-0.000163715 0 -0.0464091)
(-1.22827e-05 0 -0.0420372)
(0.000125239 0 -0.0379431)
(0.00024937 0 -0.0341147)
(0.000360727 0 -0.0305398)
(0.000459989 0 -0.0272064)
(0.000547869 0 -0.0241023)
(0.000625105 0 -0.0212155)
(0.000692438 0 -0.0185345)
(0.000750593 0 -0.0160476)
(0.000800256 0 -0.0137431)
(0.000842079 0 -0.0116089)
(0.0008767 0 -0.00963233)
(0.000904751 0 -0.00780007)
(0.000926831 0 -0.00609639)
(0.000943436 0 -0.00449936)
(0.000955523 0 -0.00298468)
(0.000961954 0 -0.00140066)
(-0.00073191 0 -0.00101381)
(-0.000726894 0 -0.00179093)
(-0.000723733 0 -0.00263743)
(-0.000718138 0 -0.0035453)
(-0.000711138 0 -0.00451453)
(-0.000702955 0 -0.00554598)
(-0.000693481 0 -0.00664206)
(-0.000682518 0 -0.0078065)
(-0.000669839 0 -0.00904355)
(-0.000655236 0 -0.0103579)
(-0.000638529 0 -0.0117548)
(-0.000619563 0 -0.0132396)
(-0.000598183 0 -0.0148177)
(-0.000574228 0 -0.0164947)
(-0.000547525 0 -0.0182759)
(-0.000517888 0 -0.0201669)
(-0.000485117 0 -0.0221733)
(-0.000448999 0 -0.0243012)
(-0.000409308 0 -0.0265568)
(-0.000365798 0 -0.0289469)
(-0.000318211 0 -0.0314786)
(-0.000266264 0 -0.0341598)
(-0.000209655 0 -0.0369988)
(-0.000148057 0 -0.0400049)
(-8.11187e-05 0 -0.0431882)
(-8.46447e-06 0 -0.0465599)
(7.02951e-05 0 -0.0501323)
(0.000155561 0 -0.0539188)
(0.000247693 0 -0.0579341)
(0.000347004 0 -0.0621931)
(0.000462661 0 -0.0670933)
(0.000593276 0 -0.0725332)
(0.000727247 0 -0.0780208)
(0.000864251 0 -0.0835595)
(0.00100381 0 -0.0891512)
(0.00114512 0 -0.094796)
(0.00128719 0 -0.100492)
(0.00142876 0 -0.106234)
(0.00156833 0 -0.112016)
(0.0017041 0 -0.117831)
(0.00183393 0 -0.123666)
(0.00195537 0 -0.12951)
(0.00206553 0 -0.135347)
(0.00216117 0 -0.141159)
(0.00223861 0 -0.146922)
(0.0022938 0 -0.152612)
(0.00232223 0 -0.158199)
(0.00231898 0 -0.163646)
(0.00227946 0 -0.16891)
(0.00219736 0 -0.17394)
(0.0020679 0 -0.178673)
(0.00189023 0 -0.183048)
(0.00166122 0 -0.186998)
(0.00137836 0 -0.190449)
(0.00104299 0 -0.193323)
(0.000658445 0 -0.195532)
(0.000231276 0 -0.196994)
(-0.000228715 0 -0.197628)
(-0.000708704 0 -0.197365)
(-0.00119332 0 -0.196147)
(-0.00166535 0 -0.193936)
(-0.00210686 0 -0.190712)
(-0.00250042 0 -0.18648)
(-0.00283045 0 -0.181265)
(-0.00308434 0 -0.175117)
(-0.00325327 0 -0.168102)
(-0.00333259 0 -0.160297)
(-0.00332151 0 -0.151789)
(-0.00322329 0 -0.14267)
(-0.0030426 0 -0.133037)
(-0.00281349 0 -0.123923)
(-0.00256943 0 -0.115725)
(-0.0023066 0 -0.107801)
(-0.00203409 0 -0.10019)
(-0.00175988 0 -0.0929075)
(-0.00148964 0 -0.0859639)
(-0.0012275 0 -0.0793611)
(-0.00097644 0 -0.0730976)
(-0.000738509 0 -0.067169)
(-0.000515041 0 -0.0615686)
(-0.000306817 0 -0.0562879)
(-0.000114179 0 -0.0513174)
(6.28627e-05 0 -0.0466465)
(0.000224551 0 -0.0422641)
(0.000371323 0 -0.0381585)
(0.000503745 0 -0.034318)
(0.000622482 0 -0.0307305)
(0.000728265 0 -0.027384)
(0.000821863 0 -0.0242666)
(0.000904069 0 -0.0213664)
(0.000975679 0 -0.0186718)
(0.00103748 0 -0.0161714)
(0.00109021 0 -0.0138532)
(0.00113459 0 -0.0117054)
(0.0011713 0 -0.00971523)
(0.00120101 0 -0.00786954)