/*--------------------------------*- C++ -*----------------------------------*\
  =========                 |
  \\      /  F ield         | OpenFOAM: The Open Source CFD Toolbox
   \\    /   O peration     | Website:  https://openfoam.org
    \\  /    A nd           | Version:  9
     \\/     M anipulation  |
\*---------------------------------------------------------------------------*/
FoamFile
{
    format      ascii;
    class       surfaceVectorField;
    location    "0.03";
    object      Uf;
}
// * * * * * * * * * * * * * * * * * * * * * * * * * * * * * * * * * * * * * //

dimensions      [0 1 -1 0 0 0 0];

internalField   nonuniform List<vector> 
39700
(
(-5.32758e-06 0 -0.0012586)
(-2.06149e-05 0 -0.00089909)
(-3.13429e-06 0 -0.0020707)
(-1.29477e-05 0 -0.00166681)
(-1.81981e-06 0 -0.0029446)
(-1.00786e-05 0 -0.00250877)
(-7.51729e-07 0 -0.00387669)
(-8.10612e-06 0 -0.00341275)
(2.96008e-07 0 -0.00486607)
(-6.20772e-06 0 -0.00437369)
(1.41633e-06 0 -0.00591576)
(-4.2573e-06 0 -0.00539329)
(2.63359e-06 0 -0.00702993)
(-2.14361e-06 0 -0.00647528)
(3.96305e-06 0 -0.00821326)
(1.66723e-07 0 -0.00762405)
(5.41859e-06 0 -0.00947096)
(2.70727e-06 0 -0.00884456)
(7.00963e-06 0 -0.0108086)
(5.50214e-06 0 -0.0101423)
(8.74294e-06 0 -0.0122317)
(8.56682e-06 0 -0.0115227)
(1.06254e-05 0 -0.0137458)
(1.19148e-05 0 -0.0129916)
(1.26653e-05 0 -0.0153563)
(1.55613e-05 0 -0.0145543)
(1.48727e-05 0 -0.0170685)
(1.95245e-05 0 -0.0162161)
(1.72587e-05 0 -0.018888)
(2.38254e-05 0 -0.0179825)
(1.98352e-05 0 -0.0208202)
(2.84871e-05 0 -0.0198589)
(2.26152e-05 0 -0.0228709)
(3.35341e-05 0 -0.021851)
(2.56125e-05 0 -0.0250463)
(3.89933e-05 0 -0.0239647)
(2.88426e-05 0 -0.0273528)
(4.48937e-05 0 -0.0262063)
(3.23228e-05 0 -0.0297973)
(5.12671e-05 0 -0.0285825)
(3.60726e-05 0 -0.0323871)
(5.81492e-05 0 -0.0311004)
(4.01143e-05 0 -0.0351305)
(6.55799e-05 0 -0.0337677)
(4.44735e-05 0 -0.038036)
(7.36045e-05 0 -0.0365928)
(4.91799e-05 0 -0.0411134)
(8.22747e-05 0 -0.0395848)
(5.42682e-05 0 -0.0443731)
(9.16498e-05 0 -0.0427539)
(5.97782e-05 0 -0.0478269)
(0.000101798 0 -0.0461111)
(6.57548e-05 0 -0.0514878)
(0.000112795 0 -0.0496689)
(7.22449e-05 0 -0.0553701)
(0.000124721 0 -0.0534408)
(7.92958e-05 0 -0.0594895)
(0.000137657 0 -0.0574421)
(8.69458e-05 0 -0.0638607)
(0.000151725 0 -0.0616886)
(9.60505e-05 0 -0.0692624)
(0.00016777 0 -0.0665783)
(0.000105563 0 -0.0747095)
(0.000185652 0 -0.0720039)
(0.000115463 0 -0.0802062)
(0.000204302 0 -0.0774768)
(0.00012574 0 -0.0857566)
(0.000223631 0 -0.0830018)
(0.000136368 0 -0.0913627)
(0.000243609 0 -0.088582)
(0.000147298 0 -0.0970245)
(0.000264163 0 -0.0942186)
(0.000158466 0 -0.10274)
(0.000285184 0 -0.0999103)
(0.000169794 0 -0.108504)
(0.000306529 0 -0.105654)
(0.000181187 0 -0.114311)
(0.000328027 0 -0.111444)
(0.000192526 0 -0.120153)
(0.000349465 0 -0.117273)
(0.000203663 0 -0.126021)
(0.000370581 0 -0.123133)
(0.000214413 0 -0.1319)
(0.000391049 0 -0.129013)
(0.000224549 0 -0.137777)
(0.000410467 0 -0.134898)
(0.000233802 0 -0.143633)
(0.000428356 0 -0.140772)
(0.000241854 0 -0.149447)
(0.000444151 0 -0.146615)
(0.000248332 0 -0.155192)
(0.00045719 0 -0.152403)
(0.000252763 0 -0.160839)
(0.000466668 0 -0.158109)
(0.000254522 0 -0.166351)
(0.000471586 0 -0.163701)
(0.000252847 0 -0.171681)
(0.000470691 0 -0.169138)
(0.000246908 0 -0.176768)
(0.000462495 0 -0.174364)
(0.00023616 0 -0.181547)
(0.000445783 0 -0.179315)
(0.000220058 0 -0.185951)
(0.000419657 0 -0.183924)
(0.000197887 0 -0.189907)
(0.000382992 0 -0.188124)
(0.000168971 0 -0.193328)
(0.000334588 0 -0.191835)
(0.000132922 0 -0.196119)
(0.000273607 0 -0.194965)
(8.98327e-05 0 -0.198179)
(0.000199904 0 -0.197414)
(4.03652e-05 0 -0.199407)
(0.000114255 0 -0.199081)
(-1.42207e-05 0 -0.199713)
(1.8453e-05 0 -0.199868)
(-7.21381e-05 0 -0.199019)
(-8.47481e-05 0 -0.199689)
(-0.000131156 0 -0.197267)
(-0.000191707 0 -0.198476)
(-0.000188663 0 -0.194422)
(-0.000298074 0 -0.196181)
(-0.000242002 0 -0.19048)
(-0.000399181 0 -0.192784)
(-0.000288746 0 -0.185466)
(-0.000490504 0 -0.188295)
(-0.00032696 0 -0.179435)
(-0.00056814 0 -0.182756)
(-0.000355404 0 -0.172464)
(-0.000629217 0 -0.176232)
(-0.000373603 0 -0.164646)
(-0.00067213 0 -0.168812)
(-0.000381725 0 -0.156084)
(-0.00069651 0 -0.160594)
(-0.000380394 0 -0.146884)
(-0.000702967 0 -0.151685)
(-0.000370584 0 -0.137151)
(-0.000692825 0 -0.142189)
(-0.000353573 0 -0.126997)
(-0.000668138 0 -0.132214)
(-0.000333572 0 -0.118475)
(-0.000633866 0 -0.122821)
(-0.000311326 0 -0.110247)
(-0.000594965 0 -0.114422)
(-0.000288255 0 -0.102362)
(-0.000553259 0 -0.106351)
(-0.000265246 0 -0.0948373)
(-0.000510639 0 -0.0986369)
(-0.000242801 0 -0.0876788)
(-0.000468403 0 -0.0912879)
(-0.000221203 0 -0.0808849)
(-0.000427333 0 -0.0843053)
(-0.00020062 0 -0.0744516)
(-0.000387905 0 -0.0776862)
(-0.000181158 0 -0.0683722)
(-0.000350417 0 -0.0714251)
(-0.000162881 0 -0.0626382)
(-0.00031506 0 -0.0655143)
(-0.000145817 0 -0.0572398)
(-0.00028194 0 -0.0599447)
(-0.000129972 0 -0.0521659)
(-0.000251103 0 -0.0547055)
(-0.00011533 0 -0.0474048)
(-0.000222549 0 -0.0497855)
(-0.000101861 0 -0.0429441)
(-0.00019624 0 -0.0451723)
(-8.95249e-05 0 -0.0387712)
(-0.000172117 0 -0.0408537)
(-7.82759e-05 0 -0.0348736)
(-0.0001501 0 -0.0368169)
(-6.80622e-05 0 -0.0312384)
(-0.000130099 0 -0.0330492)
(-5.88295e-05 0 -0.0278527)
(-0.000112013 0 -0.0295377)
(-5.0521e-05 0 -0.0247039)
(-9.57382e-05 0 -0.0262696)
(-4.30783e-05 0 -0.0217794)
(-8.11664e-05 0 -0.0232322)
(-3.64401e-05 0 -0.0190669)
(-6.81845e-05 0 -0.0204132)
(-3.0544e-05 0 -0.0165547)
(-5.66761e-05 0 -0.0178004)
(-2.53327e-05 0 -0.0142313)
(-4.65277e-05 0 -0.0153823)
(-2.07674e-05 0 -0.0120851)
(-3.76464e-05 0 -0.0131475)
(-1.68412e-05 0 -0.0101036)
(-2.99838e-05 0 -0.0110841)
(-1.35828e-05 0 -0.0082724)
(-2.354e-05 0 -0.00917865)
(-1.10548e-05 0 -0.00657538)
(-1.83602e-05 0 -0.00741587)
(-9.35064e-06 0 -0.00499314)
(-1.44773e-05 0 -0.00577853)
(-8.60606e-06 0 -0.00350085)
(-1.24822e-05 0 -0.00424495)
(-7.90342e-06 0 -0.0020193)
(-1.24519e-05 0 -0.00279045)
(-6.03253e-06 0 -0.00128482)
(-2.55751e-05 0 -0.00128969)
(-4.29691e-05 0 -0.000931997)
(-2.01664e-05 0 -0.00208557)
(-3.31332e-05 0 -0.00168364)
(-1.64839e-05 0 -0.00295606)
(-2.89501e-05 0 -0.00251968)
(-1.35731e-05 0 -0.0038875)
(-2.57211e-05 0 -0.00342097)
(-1.08058e-05 0 -0.00487728)
(-2.25959e-05 0 -0.00438114)
(-7.87522e-06 0 -0.00592775)
(-1.92936e-05 0 -0.00540081)
(-4.68238e-06 0 -0.00704284)
(-1.56393e-05 0 -0.00648308)
(-1.17266e-06 0 -0.0082272)
(-1.15677e-05 0 -0.00763222)
(2.6969e-06 0 -0.00948602)
(-7.02324e-06 0 -0.00885316)
(6.95631e-06 0 -0.0108248)
(-1.96733e-06 0 -0.0101513)
(1.1627e-05 0 -0.0122491)
(3.62665e-06 0 -0.0115322)
(1.673e-05 0 -0.0137645)
(9.78377e-06 0 -0.0130014)
(2.22898e-05 0 -0.0153764)
(1.65326e-05 0 -0.0145645)
(2.8336e-05 0 -0.0170901)
(2.39077e-05 0 -0.0162267)
(3.49013e-05 0 -0.018911)
(3.19489e-05 0 -0.0179935)
(4.20217e-05 0 -0.0208449)
(4.07003e-05 0 -0.0198702)
(4.97354e-05 0 -0.0228974)
(5.02101e-05 0 -0.0218627)
(5.80843e-05 0 -0.0250746)
(6.05301e-05 0 -0.0239768)
(6.71135e-05 0 -0.0273831)
(7.17168e-05 0 -0.0262188)
(7.68731e-05 0 -0.0298296)
(8.38319e-05 0 -0.0285954)
(8.74188e-05 0 -0.0324218)
(9.69433e-05 0 -0.0311136)
(9.88133e-05 0 -0.0351675)
(0.000111127 0 -0.0337813)
(0.000111128 0 -0.0380757)
(0.000126469 0 -0.0366068)
(0.000124443 0 -0.0411558)
(0.000143064 0 -0.0395993)
(0.000138852 0 -0.0444185)
(0.000161024 0 -0.0427688)
(0.000154459 0 -0.0478755)
(0.00018047 0 -0.0461266)
(0.000171377 0 -0.0515399)
(0.00020154 0 -0.0496848)
(0.000189723 0 -0.055426)
(0.00022437 0 -0.0534573)
(0.000209597 0 -0.0595493)
(0.000249091 0 -0.0574591)
(0.000231026 0 -0.0639247)
(0.000275897 0 -0.0617061)
(0.000257176 0 -0.0693316)
(0.000306697 0 -0.0665957)
(0.000284259 0 -0.0747841)
(0.000341189 0 -0.0720219)
(0.000312333 0 -0.0802864)
(0.000377004 0 -0.0774955)
(0.000341379 0 -0.0858424)
(0.000414013 0 -0.0830211)
(0.000371313 0 -0.0914544)
(0.000452173 0 -0.0886019)
(0.000401995 0 -0.0971222)
(0.000491339 0 -0.094239)
(0.000433239 0 -0.102844)
(0.000531295 0 -0.0999311)
(0.00046481 0 -0.108614)
(0.000571761 0 -0.105675)
(0.000496422 0 -0.114428)
(0.000612394 0 -0.111465)
(0.00052772 0 -0.120277)
(0.000652773 0 -0.117294)
(0.000558267 0 -0.12615)
(0.000692378 0 -0.123154)
(0.000587523 0 -0.132037)
(0.000730569 0 -0.129032)
(0.000614836 0 -0.137921)
(0.000766571 0 -0.134916)
(0.000639432 0 -0.143783)
(0.000799454 0 -0.140788)
(0.000660404 0 -0.149603)
(0.000828132 0 -0.146629)
(0.000676674 0 -0.155355)
(0.00085133 0 -0.152414)
(0.000686918 0 -0.161008)
(0.000867523 0 -0.158116)
(0.000689477 0 -0.166526)
(0.000874856 0 -0.163703)
(0.000682427 0 -0.171861)
(0.000871147 0 -0.169133)
(0.000663768 0 -0.176953)
(0.000853551 0 -0.174352)
(0.000631943 0 -0.181736)
(0.000819963 0 -0.179294)
(0.000585521 0 -0.186143)
(0.000769053 0 -0.183893)
(0.000522842 0 -0.1901)
(0.000698719 0 -0.188082)
(0.000442479 0 -0.193522)
(0.000606944 0 -0.191781)
(0.000343747 0 -0.196313)
(0.000492533 0 -0.194899)
(0.000227142 0 -0.19837)
(0.000355463 0 -0.197337)
(9.45583e-05 0 -0.199596)
(0.000197317 0 -0.198993)
(-5.0644e-05 0 -0.199899)
(2.144e-05 0 -0.199771)
(-0.000203841 0 -0.199201)
(-0.000167163 0 -0.199587)
(-0.000359284 0 -0.197445)
(-0.000361972 0 -0.198373)
(-0.000510416 0 -0.194596)
(-0.000555287 0 -0.19608)
(-0.000650584 0 -0.190651)
(-0.00073888 0 -0.192691)
(-0.000773685 0 -0.185633)
(-0.000904784 0 -0.188213)
(-0.000874799 0 -0.179598)
(-0.00104609 0 -0.182688)
(-0.000950649 0 -0.172622)
(-0.00115764 0 -0.176181)
(-0.000999771 0 -0.164799)
(-0.00123642 0 -0.168779)
(-0.00102231 0 -0.15623)
(-0.00128154 0 -0.160579)
(-0.00101964 0 -0.147022)
(-0.00129389 0 -0.151687)
(-0.000994063 0 -0.137281)
(-0.00127559 0 -0.142206)
(-0.000948267 0 -0.127118)
(-0.00123 0 -0.132245)
(-0.000895886 0 -0.118589)
(-0.00116684 0 -0.122863)
(-0.000837042 0 -0.110353)
(-0.00109573 0 -0.114472)
(-0.000775337 0 -0.102459)
(-0.00101905 0 -0.106407)
(-0.000713212 0 -0.0949274)
(-0.000940206 0 -0.0986953)
(-0.000652185 0 -0.0877614)
(-0.000861669 0 -0.091348)
(-0.000593186 0 -0.0809608)
(-0.000785014 0 -0.0843663)
(-0.000536796 0 -0.0745211)
(-0.00071123 0 -0.0777474)
(-0.000483386 0 -0.0684358)
(-0.000640959 0 -0.0714859)
(-0.000433182 0 -0.0626963)
(-0.00057461 0 -0.0655743)
(-0.000386302 0 -0.0572929)
(-0.000512421 0 -0.0600035)
(-0.000342781 0 -0.0522143)
(-0.000454506 0 -0.0547628)
(-0.000302595 0 -0.0474488)
(-0.000400881 0 -0.049841)
(-0.000265674 0 -0.042984)
(-0.000351494 0 -0.0452259)
(-0.000231915 0 -0.0388075)
(-0.000306238 0 -0.0409051)
(-0.000201194 0 -0.0349064)
(-0.000264971 0 -0.036866)
(-0.00017337 0 -0.031268)
(-0.000227525 0 -0.0330958)
(-0.000148293 0 -0.0278794)
(-0.000193714 0 -0.0295817)
(-0.000125805 0 -0.0247278)
(-0.000163342 0 -0.026311)
(-0.000105744 0 -0.0218008)
(-0.000136204 0 -0.023271)
(-8.79404e-05 0 -0.019086)
(-0.000112088 0 -0.0204493)
(-7.2226e-05 0 -0.0165716)
(-9.07768e-05 0 -0.0178338)
(-5.84471e-05 0 -0.0142462)
(-7.20588e-05 0 -0.015413)
(-4.64964e-05 0 -0.0120979)
(-5.57565e-05 0 -0.0131754)
(-3.63379e-05 0 -0.0101141)
(-4.17597e-05 0 -0.011109)
(-2.80019e-05 0 -0.00828021)
(-3.00208e-05 0 -0.00920007)
(-2.1557e-05 0 -0.00657988)
(-2.05087e-05 0 -0.00743324)
(-1.70419e-05 0 -0.00499354)
(-1.31624e-05 0 -0.00579129)
(-1.42247e-05 0 -0.00349969)
(-8.40119e-06 0 -0.00425329)
(-1.13599e-05 0 -0.00201998)
(-6.19811e-06 0 -0.00279936)
(3.46795e-06 0 -0.00129627)
(-4.83478e-05 0 -0.00130907)
(-6.89724e-05 0 -0.000951716)
(-4.27775e-05 0 -0.0020994)
(-6.07431e-05 0 -0.00170096)
(-3.84003e-05 0 -0.00296532)
(-5.65517e-05 0 -0.00253265)
(-3.47788e-05 0 -0.00389458)
(-5.27859e-05 0 -0.00343119)
(-3.11633e-05 0 -0.00488387)
(-4.90168e-05 0 -0.00439086)
(-2.71622e-05 0 -0.00593449)
(-4.48845e-05 0 -0.00541106)
(-2.26471e-05 0 -0.00704989)
(-4.01845e-05 0 -0.00649411)
(-1.75571e-05 0 -0.0082346)
(-3.48217e-05 0 -0.00764408)
(-1.18438e-05 0 -0.00949377)
(-2.87325e-05 0 -0.00886584)
(-5.47017e-06 0 -0.0108329)
(-2.18723e-05 0 -0.0101648)
(1.59354e-06 0 -0.0122575)
(-1.42055e-05 0 -0.0115464)
(9.37895e-06 0 -0.0137731)
(-5.69708e-06 0 -0.0130164)
(1.79242e-05 0 -0.0153852)
(3.69362e-06 0 -0.0145802)
(2.72744e-05 0 -0.0170991)
(1.40155e-05 0 -0.0162431)
(3.74806e-05 0 -0.0189203)
(2.53249e-05 0 -0.0180105)
(4.85995e-05 0 -0.0208543)
(3.76849e-05 0 -0.019888)
(6.0692e-05 0 -0.022907)
(5.11646e-05 0 -0.0218811)
(7.38246e-05 0 -0.0250843)
(6.58383e-05 0 -0.0239959)
(8.807e-05 0 -0.0273929)
(8.17877e-05 0 -0.0262385)
(0.000103508 0 -0.0298395)
(9.91014e-05 0 -0.0286157)
(0.000120226 0 -0.0324317)
(0.000117877 0 -0.0311346)
(0.000138322 0 -0.0351775)
(0.000138224 0 -0.0338029)
(0.000157908 0 -0.0380857)
(0.000160262 0 -0.0366291)
(0.000179107 0 -0.0411659)
(0.000184127 0 -0.0396223)
(0.000202059 0 -0.0444286)
(0.000209972 0 -0.0427926)
(0.000226921 0 -0.0478856)
(0.000237967 0 -0.0461511)
(0.000253856 0 -0.0515499)
(0.000268295 0 -0.0497101)
(0.000283029 0 -0.055436)
(0.000301142 0 -0.0534835)
(0.000314559 0 -0.0595592)
(0.000336665 0 -0.057486)
(0.000348431 0 -0.0639341)
(0.000375095 0 -0.0617337)
(0.000390506 0 -0.0693405)
(0.000419505 0 -0.0666238)
(0.000433795 0 -0.0747926)
(0.000469417 0 -0.0720508)
(0.000478523 0 -0.0802945)
(0.000521055 0 -0.0775253)
(0.000524671 0 -0.0858501)
(0.000574288 0 -0.0830519)
(0.000572103 0 -0.0914615)
(0.000629061 0 -0.0886336)
(0.000620594 0 -0.0971285)
(0.000685156 0 -0.0942713)
(0.000669837 0 -0.102849)
(0.000742249 0 -0.0999639)
(0.000719443 0 -0.108618)
(0.000799929 0 -0.105708)
(0.000768938 0 -0.11443)
(0.000857685 0 -0.111498)
(0.000817738 0 -0.120277)
(0.000914889 0 -0.117327)
(0.000865125 0 -0.126148)
(0.000970774 0 -0.123185)
(0.000910223 0 -0.132032)
(0.0010244 0 -0.129062)
(0.000951985 0 -0.137912)
(0.00107465 0 -0.134944)
(0.000989169 0 -0.14377)
(0.00112017 0 -0.140813)
(0.00102033 0 -0.149584)
(0.00115939 0 -0.146649)
(0.00104375 0 -0.155329)
(0.0011905 0 -0.152429)
(0.00105737 0 -0.160974)
(0.00121132 0 -0.158125)
(0.00105868 0 -0.166483)
(0.00121928 0 -0.163704)
(0.00104479 0 -0.171806)
(0.00121147 0 -0.169124)
(0.00101284 0 -0.176885)
(0.00118395 0 -0.17433)
(0.000960567 0 -0.181654)
(0.00113391 0 -0.179259)
(0.000885939 0 -0.186046)
(0.00105982 0 -0.183843)
(0.000786659 0 -0.189987)
(0.000958836 0 -0.188016)
(0.000660884 0 -0.193392)
(0.00082841 0 -0.191697)
(0.000507956 0 -0.196166)
(0.000667277 0 -0.194797)
(0.000328893 0 -0.198208)
(0.000475703 0 -0.197217)
(0.000126711 0 -0.199421)
(0.000256062 0 -0.198858)
(-9.35095e-05 0 -0.199716)
(1.30378e-05 0 -0.199624)
(-0.000324872 0 -0.199014)
(-0.000246518 0 -0.199433)
(-0.000558881 0 -0.19726)
(-0.000513806 0 -0.198217)
(-0.00078601 0 -0.19442)
(-0.000778524 0 -0.195929)
(-0.000996595 0 -0.190489)
(-0.00102971 0 -0.19255)
(-0.00118175 0 -0.185491)
(-0.00125673 0 -0.18809)
(-0.00133425 0 -0.179479)
(-0.00145035 0 -0.182586)
(-0.00144914 0 -0.172529)
(-0.00160356 0 -0.176105)
(-0.00152401 0 -0.164732)
(-0.0017121 0 -0.168729)
(-0.00155878 0 -0.15619)
(-0.00177454 0 -0.160556)
(-0.00155519 0 -0.147006)
(-0.00179178 0 -0.151689)
(-0.00151637 0 -0.137287)
(-0.00176647 0 -0.142232)
(-0.00144597 0 -0.127145)
(-0.00170265 0 -0.132292)
(-0.00136694 0 -0.11863)
(-0.00161452 0 -0.122928)
(-0.00127749 0 -0.110405)
(-0.00151597 0 -0.114548)
(-0.00118305 0 -0.102519)
(-0.00140924 0 -0.106491)
(-0.00108741 0 -0.0949921)
(-0.00129896 0 -0.0987852)
(-0.000993024 0 -0.0878297)
(-0.00118867 0 -0.0914411)
(-0.000901453 0 -0.0810314)
(-0.0010807 0 -0.0844611)
(-0.000813723 0 -0.074593)
(-0.000976526 0 -0.0778427)
(-0.000730494 0 -0.0685081)
(-0.000877154 0 -0.0715808)
(-0.000652177 0 -0.0627685)
(-0.000783224 0 -0.065668)
(-0.000578996 0 -0.0573643)
(-0.000695119 0 -0.0600953)
(-0.000511038 0 -0.0522845)
(-0.000613036 0 -0.0548524)
(-0.000448287 0 -0.0475173)
(-0.000537025 0 -0.0499277)
(-0.000390648 0 -0.0430506)
(-0.000467027 0 -0.0453095)
(-0.000337973 0 -0.0388717)
(-0.000402906 0 -0.0409852)
(-0.000290073 0 -0.0349681)
(-0.000344472 0 -0.0369424)
(-0.000246733 0 -0.0313269)
(-0.000291491 0 -0.0331684)
(-0.000207721 0 -0.0279353)
(-0.000243704 0 -0.0296503)
(-0.000172791 0 -0.0247806)
(-0.000200834 0 -0.0263754)
(-0.000141686 0 -0.0218504)
(-0.000162589 0 -0.0233311)
(-0.000114147 0 -0.0191323)
(-0.000128669 0 -0.0205051)
(-8.99117e-05 0 -0.0166146)
(-9.87691e-05 0 -0.0178853)
(-6.87438e-05 0 -0.0142857)
(-7.25928e-05 0 -0.0154602)
(-5.04574e-05 0 -0.0121338)
(-4.98811e-05 0 -0.0132182)
(-3.4935e-05 0 -0.010146)
(-3.04443e-05 0 -0.011147)
(-2.20994e-05 0 -0.00830752)
(-1.41459e-05 0 -0.00923304)
(-1.18588e-05 0 -0.00660213)
(-7.99769e-07 0 -0.00746082)
(-4.02694e-06 0 -0.00501117)
(9.88658e-06 0 -0.0058134)
(2.02761e-06 0 -0.00351549)
(1.79446e-05 0 -0.00427122)
(7.53202e-06 0 -0.00203829)
(2.35852e-05 0 -0.00281646)
(3.283e-05 0 -0.00131346)
(-8.04818e-05 0 -0.00132543)
(-0.00010718 0 -0.000965382)
(-7.55733e-05 0 -0.00211408)
(-0.000100645 0 -0.00171623)
(-7.11294e-05 0 -0.00297687)
(-9.66953e-05 0 -0.00254582)
(-6.7089e-05 0 -0.00390448)
(-9.25379e-05 0 -0.00344259)
(-6.2857e-05 0 -0.00489376)
(-8.81467e-05 0 -0.00440224)
(-5.80545e-05 0 -0.00594504)
(-8.32661e-05 0 -0.00542336)
(-5.25219e-05 0 -0.00706123)
(-7.766e-05 0 -0.00650762)
(-4.6178e-05 0 -0.00824673)
(-7.11974e-05 0 -0.00765885)
(-3.89637e-05 0 -0.00950663)
(-6.37955e-05 0 -0.00888186)
(-3.08325e-05 0 -0.0108464)
(-5.53936e-05 0 -0.010182)
(-2.17436e-05 0 -0.0122716)
(-4.59412e-05 0 -0.0115648)
(-1.1654e-05 0 -0.0137877)
(-3.53886e-05 0 -0.0130359)
(-5.12315e-07 0 -0.0154002)
(-2.3681e-05 0 -0.0146006)
(1.17412e-05 0 -0.0171145)
(-1.07539e-05 0 -0.0162645)
(2.51746e-05 0 -0.018936)
(3.46399e-06 0 -0.018033)
(3.98652e-05 0 -0.0208703)
(1.90569e-05 0 -0.0199114)
(5.58932e-05 0 -0.0229231)
(3.61139e-05 0 -0.0219055)
(7.33482e-05 0 -0.0251007)
(5.47282e-05 0 -0.0240211)
(9.23279e-05 0 -0.0274093)
(7.50061e-05 0 -0.0262647)
(0.000112939 0 -0.029856)
(9.70617e-05 0 -0.0286428)
(0.000135299 0 -0.0324482)
(0.00012102 0 -0.0311627)
(0.00015954 0 -0.035194)
(0.00014702 0 -0.0338319)
(0.000185807 0 -0.0381021)
(0.000175214 0 -0.0366591)
(0.000214264 0 -0.0411821)
(0.000205775 0 -0.0396533)
(0.000245091 0 -0.0444446)
(0.000238892 0 -0.0428246)
(0.000278489 0 -0.0479014)
(0.000274775 0 -0.0461841)
(0.000314663 0 -0.0515655)
(0.000313651 0 -0.0497442)
(0.000353817 0 -0.0554511)
(0.00035575 0 -0.0535186)
(0.000396113 0 -0.0595737)
(0.000401262 0 -0.0575222)
(0.000441578 0 -0.0639476)
(0.000450437 0 -0.0617707)
(0.000498258 0 -0.0693526)
(0.000507416 0 -0.0666615)
(0.00055656 0 -0.0748037)
(0.000571567 0 -0.0720896)
(0.000616677 0 -0.0803047)
(0.000637802 0 -0.0775653)
(0.000678566 0 -0.0858592)
(0.000705979 0 -0.0830931)
(0.00074204 0 -0.0914693)
(0.000776004 0 -0.0886759)
(0.000806789 0 -0.0971347)
(0.000847576 0 -0.0943145)
(0.000872384 0 -0.102853)
(0.000920272 0 -0.100008)
(0.000938291 0 -0.10862)
(0.000993545 0 -0.105752)
(0.00100385 0 -0.114429)
(0.00106672 0 -0.111542)
(0.00106825 0 -0.120272)
(0.00113898 0 -0.11737)
(0.00113051 0 -0.126139)
(0.00120931 0 -0.123227)
(0.00118944 0 -0.132017)
(0.0012765 0 -0.129102)
(0.00124362 0 -0.13789)
(0.00133908 0 -0.13498)
(0.00129139 0 -0.143741)
(0.00139535 0 -0.140845)
(0.00133079 0 -0.149546)
(0.0014433 0 -0.146676)
(0.00135957 0 -0.15528)
(0.0014806 0 -0.152449)
(0.00137503 0 -0.160913)
(0.00150455 0 -0.158136)
(0.00137396 0 -0.166407)
(0.00151196 0 -0.163703)
(0.00135275 0 -0.171713)
(0.00149935 0 -0.16911)
(0.00130788 0 -0.176773)
(0.00146197 0 -0.174301)
(0.00123649 0 -0.181521)
(0.00139642 0 -0.179211)
(0.00113606 0 -0.18589)
(0.001301 0 -0.183776)
(0.00100394 0 -0.189808)
(0.00117245 0 -0.187928)
(0.000838148 0 -0.193188)
(0.00100787 0 -0.191587)
(0.000638168 0 -0.195938)
(0.000806106 0 -0.194664)
(0.000405598 0 -0.197959)
(0.00056781 0 -0.197062)
(0.000144455 0 -0.199155)
(0.000296109 0 -0.198684)
(-0.000138732 0 -0.199437)
(-3.16811e-06 0 -0.199435)
(-0.000435216 0 -0.198731)
(-0.000321656 0 -0.199235)
(-0.000734344 0 -0.19698)
(-0.000648737 0 -0.198017)
(-0.00102426 0 -0.194151)
(-0.00097208 0 -0.195736)
(-0.00129294 0 -0.19024)
(-0.00127859 0 -0.192371)
(-0.00152933 0 -0.185269)
(-0.00155561 0 -0.187932)
(-0.00172432 0 -0.17929)
(-0.00179202 0 -0.182456)
(-0.00187156 0 -0.172377)
(-0.00197933 0 -0.176006)
(-0.00196779 0 -0.164618)
(-0.00211221 0 -0.168665)
(-0.00201259 0 -0.156113)
(-0.00218865 0 -0.160526)
(-0.00200784 0 -0.146966)
(-0.00220945 0 -0.151692)
(-0.00195729 0 -0.13728)
(-0.00217761 0 -0.142266)
(-0.00186555 0 -0.127169)
(-0.00209762 0 -0.132353)
(-0.00176298 0 -0.118676)
(-0.00198739 0 -0.123011)
(-0.0016467 0 -0.110468)
(-0.00186467 0 -0.114648)
(-0.00152349 0 -0.102595)
(-0.00173142 0 -0.106602)
(-0.00139821 0 -0.0950765)
(-0.00159326 0 -0.098903)
(-0.00127414 0 -0.0879205)
(-0.0014547 0 -0.0915635)
(-0.00115346 0 -0.0811265)
(-0.00131871 0 -0.084586)
(-0.00103761 0 -0.0746908)
(-0.00118726 0 -0.0779685)
(-0.000927554 0 -0.0686074)
(-0.00106169 0 -0.0717062)
(-0.000823892 0 -0.062868)
(-0.000942885 0 -0.065792)
(-0.000726968 0 -0.0574631)
(-0.000831373 0 -0.060217)
(-0.000636933 0 -0.0523817)
(-0.000727443 0 -0.0549709)
(-0.000553789 0 -0.0476123)
(-0.000631189 0 -0.0500426)
(-0.000477434 0 -0.0431428)
(-0.000542559 0 -0.0454202)
(-0.000407684 0 -0.0389606)
(-0.000461401 0 -0.0410913)
(-0.000344299 0 -0.0350533)
(-0.00038748 0 -0.0370435)
(-0.000287001 0 -0.031408)
(-0.000320513 0 -0.0332642)
(-0.000235485 0 -0.0280121)
(-0.000260174 0 -0.0297407)
(-0.000189425 0 -0.0248528)
(-0.000206114 0 -0.0264601)
(-0.000148485 0 -0.0219179)
(-0.000157966 0 -0.0234101)
(-0.000112319 0 -0.0191949)
(-0.00011535 0 -0.0205783)
(-8.05852e-05 0 -0.0166723)
(-7.78822e-05 0 -0.0179527)
(-5.29679e-05 0 -0.0143384)
(-4.51906e-05 0 -0.0155217)
(-2.92028e-05 0 -0.0121812)
(-1.69462e-05 0 -0.0132736)
(-9.0761e-06 0 -0.0101878)
(7.12064e-06 0 -0.0111963)
(7.63196e-06 0 -0.00834361)
(2.72505e-05 0 -0.00927592)
(2.12372e-05 0 -0.00663249)
(4.37814e-05 0 -0.00749744)
(3.21858e-05 0 -0.00503652)
(5.72411e-05 0 -0.00584431)
(4.10356e-05 0 -0.00353743)
(6.79078e-05 0 -0.00429742)
(4.8177e-05 0 -0.0020557)
(7.6084e-05 0 -0.00283864)
(8.43084e-05 0 -0.00132727)
(-0.000127015 0 -0.0013381)
(-0.000160645 0 -0.000975242)
(-0.000122772 0 -0.0021279)
(-0.000155193 0 -0.00172942)
(-0.000118267 0 -0.00298974)
(-0.00015152 0 -0.00255916)
(-0.000113674 0 -0.00391693)
(-0.00014694 0 -0.00345555)
(-0.000108697 0 -0.00490683)
(-0.000141865 0 -0.00441561)
(-0.000103042 0 -0.00595932)
(-0.000136199 0 -0.00543785)
(-9.65245e-05 0 -0.0070769)
(-0.000129709 0 -0.00652354)
(-8.9028e-05 0 -0.00826381)
(-0.000122229 0 -0.00767631)
(-8.04659e-05 0 -0.00952509)
(-0.000113647 0 -0.00890087)
(-7.07705e-05 0 -0.0108662)
(-0.000103873 0 -0.0102025)
(-5.98827e-05 0 -0.0122926)
(-9.28368e-05 0 -0.0115868)
(-4.77422e-05 0 -0.0138099)
(-8.04695e-05 0 -0.0130592)
(-3.42815e-05 0 -0.0154235)
(-6.6699e-05 0 -0.0146254)
(-1.9423e-05 0 -0.0171389)
(-5.1444e-05 0 -0.0162906)
(-3.07994e-06 0 -0.0189614)
(-3.46157e-05 0 -0.0180603)
(1.48378e-05 0 -0.0208967)
(-1.61105e-05 0 -0.0199399)
(3.44372e-05 0 -0.0229505)
(4.17997e-06 0 -0.0219352)
(5.58294e-05 0 -0.025129)
(2.63696e-05 0 -0.0240521)
(7.91349e-05 0 -0.0274386)
(5.05877e-05 0 -0.0262969)
(0.000104486 0 -0.0298862)
(7.69716e-05 0 -0.0286762)
(0.000132028 0 -0.0324793)
(0.000105672 0 -0.0311972)
(0.000161922 0 -0.0352259)
(0.000136856 0 -0.0338677)
(0.000194346 0 -0.0381349)
(0.000170706 0 -0.0366961)
(0.000229499 0 -0.0412158)
(0.000207425 0 -0.0396915)
(0.000267598 0 -0.0444792)
(0.000247238 0 -0.042864)
(0.000308881 0 -0.0479369)
(0.000290389 0 -0.0462248)
(0.000353595 0 -0.0516019)
(0.000337143 0 -0.0497863)
(0.000401982 0 -0.0554884)
(0.000387768 0 -0.053562)
(0.000454248 0 -0.0596117)
(0.000442496 0 -0.0575669)
(0.000510463 0 -0.0639859)
(0.000501596 0 -0.0618166)
(0.000580562 0 -0.0693914)
(0.000570144 0 -0.0667082)
(0.000652685 0 -0.0748434)
(0.000647383 0 -0.0721377)
(0.000726973 0 -0.0803453)
(0.000727036 0 -0.0776149)
(0.000803322 0 -0.0859006)
(0.000808927 0 -0.083144)
(0.000881484 0 -0.0915112)
(0.000892902 0 -0.088728)
(0.000961054 0 -0.0971768)
(0.000978578 0 -0.0943676)
(0.00104149 0 -0.102895)
(0.00106543 0 -0.100061)
(0.00112211 0 -0.108661)
(0.00115278 0 -0.105806)
(0.00120208 0 -0.114469)
(0.0012398 0 -0.111595)
(0.00128037 0 -0.12031)
(0.00132547 0 -0.117422)
(0.00135575 0 -0.126174)
(0.00140857 0 -0.123277)
(0.00142674 0 -0.132049)
(0.00148762 0 -0.129149)
(0.00149159 0 -0.137917)
(0.00156086 0 -0.135023)
(0.00154822 0 -0.143762)
(0.00162624 0 -0.140883)
(0.00159428 0 -0.149559)
(0.00168135 0 -0.146706)
(0.001627 0 -0.155283)
(0.00172345 0 -0.15247)
(0.00164316 0 -0.160904)
(0.00174937 0 -0.158146)
(0.00163898 0 -0.166383)
(0.0017554 0 -0.1637)
(0.00161031 0 -0.171673)
(0.00173767 0 -0.16909)
(0.00155309 0 -0.176713)
(0.00169077 0 -0.174262)
(0.0014641 0 -0.18144)
(0.00161083 0 -0.179152)
(0.00134044 0 -0.185786)
(0.00149619 0 -0.183694)
(0.00117929 0 -0.189679)
(0.00134326 0 -0.18782)
(0.000978692 0 -0.193034)
(0.00114898 0 -0.191453)
(0.000738406 0 -0.195759)
(0.000912465 0 -0.194504)
(0.000460594 0 -0.197757)
(0.000634773 0 -0.196877)
(0.00015017 0 -0.198934)
(0.000319742 0 -0.198477)
(-0.000185135 0 -0.199203)
(-2.58309e-05 0 -0.199212)
(-0.000535088 0 -0.198491)
(-0.000392352 0 -0.199002)
(-0.00088735 0 -0.196743)
(-0.000767781 0 -0.197783)
(-0.00122827 0 -0.193926)
(-0.00113823 0 -0.195508)
(-0.00154401 0 -0.190035)
(-0.00148899 0 -0.192161)
(-0.00182183 0 -0.185092)
(-0.00180585 0 -0.187747)
(-0.00205113 0 -0.179147)
(-0.00207626 0 -0.182304)
(-0.00222442 0 -0.172271)
(-0.00229053 0 -0.175891)
(-0.00233765 0 -0.164551)
(-0.00244243 0 -0.168589)
(-0.00239 0 -0.156085)
(-0.00252937 0 -0.160491)
(-0.00238342 0 -0.146974)
(-0.00255198 0 -0.151696)
(-0.00232207 0 -0.137322)
(-0.00251349 0 -0.142306)
(-0.00221136 0 -0.127241)
(-0.00241869 0 -0.132426)
(-0.00208776 0 -0.11877)
(-0.00228853 0 -0.123112)
(-0.00194763 0 -0.110578)
(-0.00214418 0 -0.114768)
(-0.0017988 0 -0.102716)
(-0.00198722 0 -0.106735)
(-0.00164706 0 -0.0952055)
(-0.00182413 0 -0.0990458)
(-0.0014964 0 -0.0880543)
(-0.0016602 0 -0.0917123)
(-0.00134956 0 -0.0812629)
(-0.00149901 0 -0.0847382)
(-0.00120838 0 -0.0748281)
(-0.00134296 0 -0.078122)
(-0.00107411 0 -0.0687442)
(-0.00119374 0 -0.0718594)
(-0.000947547 0 -0.0630031)
(-0.00105243 0 -0.0659435)
(-0.000829148 0 -0.0575954)
(-0.000919732 0 -0.0603656)
(-0.000719139 0 -0.0525106)
(-0.000796027 0 -0.0551158)
(-0.000617551 0 -0.047737)
(-0.000681453 0 -0.0501829)
(-0.00052428 0 -0.0432627)
(-0.000575974 0 -0.0455553)
(-0.000439116 0 -0.0390753)
(-0.000479424 0 -0.0412207)
(-0.000361779 0 -0.0351624)
(-0.000391538 0 -0.0371668)
(-0.000291936 0 -0.0315112)
(-0.000311985 0 -0.033381)
(-0.000229215 0 -0.0281091)
(-0.000240381 0 -0.0298506)
(-0.000173224 0 -0.0249435)
(-0.000176313 0 -0.0265631)
(-0.00012355 0 -0.0220021)
(-0.000119344 0 -0.0235059)
(-7.97758e-05 0 -0.0192727)
(-6.90219e-05 0 -0.0206668)
(-4.14871e-05 0 -0.0167435)
(-2.48931e-05 0 -0.0180339)
(-8.29897e-06 0 -0.0144028)
(1.34838e-05 0 -0.0155955)
(2.0126e-05 0 -0.0122388)
(4.65009e-05 0 -0.01334)
(4.40868e-05 0 -0.0102384)
(7.45021e-05 0 -0.0112549)
(6.39304e-05 0 -0.00838726)
(9.7833e-05 0 -0.00932684)
(8.01525e-05 0 -0.00666983)
(0.000116959 0 -0.00754109)
(9.33643e-05 0 -0.00506836)
(0.000132547 0 -0.00588159)
(0.000104014 0 -0.0035639)
(0.000145007 0 -0.00432895)
(0.000111992 0 -0.00207415)
(0.000154653 0 -0.00286342)
(0.000162319 0 -0.00134068)
(-0.000188756 0 -0.00134852)
(-0.000229557 0 -0.000983219)
(-0.000184953 0 -0.00214081)
(-0.000224614 0 -0.00174124)
(-0.000180347 0 -0.00300347)
(-0.000221135 0 -0.0025728)
(-0.000175224 0 -0.00393117)
(-0.000216202 0 -0.00347)
(-0.000169523 0 -0.00492204)
(-0.000210527 0 -0.00443094)
(-0.000163051 0 -0.00597591)
(-0.000204153 0 -0.00545444)
(-0.000155622 0 -0.00709512)
(-0.000196873 0 -0.00654169)
(-0.000147086 0 -0.00828376)
(-0.000188501 0 -0.00769619)
(-0.000137324 0 -0.00954677)
(-0.000178887 0 -0.00892256)
(-0.000126243 0 -0.0108895)
(-0.000167915 0 -0.010226)
(-0.000113761 0 -0.0123176)
(-0.000155491 0 -0.011612)
(-9.98004e-05 0 -0.0138366)
(-0.000141528 0 -0.0130861)
(-8.42748e-05 0 -0.0154517)
(-0.000125936 0 -0.0146539)
(-6.70897e-05 0 -0.0171686)
(-0.000108616 0 -0.0163207)
(-4.81406e-05 0 -0.0189927)
(-8.94602e-05 0 -0.0180919)
(-2.73121e-05 0 -0.0209294)
(-6.83497e-05 0 -0.0199731)
(-4.48319e-06 0 -0.0229847)
(-4.51569e-05 0 -0.0219699)
(2.04779e-05 0 -0.0251646)
(-1.97448e-05 0 -0.0240883)
(4.77159e-05 0 -0.0274757)
(8.03522e-06 0 -0.0263345)
(7.73875e-05 0 -0.0299248)
(3.83432e-05 0 -0.0287153)
(0.000109663 0 -0.0325193)
(7.13543e-05 0 -0.0312377)
(0.000144732 0 -0.0352675)
(0.00010726 0 -0.0339097)
(0.0001828 0 -0.0381779)
(0.00014627 0 -0.0367395)
(0.000224097 0 -0.0412604)
(0.000188617 0 -0.0397364)
(0.000268875 0 -0.0445254)
(0.000234555 0 -0.0429104)
(0.000317405 0 -0.0479848)
(0.00028436 0 -0.0462728)
(0.000369969 0 -0.0516514)
(0.000338328 0 -0.0498357)
(0.000426844 0 -0.0555395)
(0.000396762 0 -0.053613)
(0.000488268 0 -0.0596644)
(0.000459925 0 -0.0576194)
(0.000554332 0 -0.0640401)
(0.000528106 0 -0.0618704)
(0.000636803 0 -0.0694472)
(0.000607259 0 -0.0667632)
(0.000721611 0 -0.0749011)
(0.000696501 0 -0.0721942)
(0.00080887 0 -0.0804048)
(0.000788428 0 -0.077673)
(0.000898425 0 -0.0859619)
(0.000882828 0 -0.0832037)
(0.000989953 0 -0.0915741)
(0.000979486 0 -0.088789)
(0.00108296 0 -0.097241)
(0.00107794 0 -0.0944296)
(0.00117679 0 -0.10296)
(0.00117755 0 -0.100124)
(0.00127061 0 -0.108726)
(0.00127754 0 -0.105868)
(0.00136342 0 -0.114534)
(0.00137691 0 -0.111657)
(0.001454 0 -0.120374)
(0.00147447 0 -0.117482)
(0.00154089 0 -0.126236)
(0.0015688 0 -0.123335)
(0.00162233 0 -0.132107)
(0.00165817 0 -0.129203)
(0.00169626 0 -0.137971)
(0.00174056 0 -0.135072)
(0.00176028 0 -0.143809)
(0.0018136 0 -0.140925)
(0.00181163 0 -0.149598)
(0.00187457 0 -0.146741)
(0.00184715 0 -0.155312)
(0.00192035 0 -0.152494)
(0.00186316 0 -0.16092)
(0.00194736 0 -0.158157)
(0.00185547 0 -0.166384)
(0.00195152 0 -0.163695)