/*--------------------------------*- C++ -*----------------------------------*\
  =========                 |
  \\      /  F ield         | OpenFOAM: The Open Source CFD Toolbox
   \\    /   O peration     | Website:  https://openfoam.org
    \\  /    A nd           | Version:  9
     \\/     M anipulation  |
\*---------------------------------------------------------------------------*/
FoamFile
{
    format      ascii;
    class       volScalarField;
    location    "0.18";
    object      alpha.water;
}
// * * * * * * * * * * * * * * * * * * * * * * * * * * * * * * * * * * * * * //

dimensions      [0 0 0 0 0 0 0];

internalField   nonuniform List<scalar> 
5000
(
2.10176e-319
2.02172e-319
1.94395e-319
1.86856e-319
1.79563e-319
1.72508e-319
1.6569e-319
1.59099e-319
1.52726e-319
1.46589e-319
1.4066e-319
1.34939e-319
1.29435e-319
1.24129e-319
1.1902e-319
1.14109e-319
1.09376e-319
1.04821e-319
1.00453e-319
9.62539e-320
9.22124e-320
8.83389e-320
8.46038e-320
8.09872e-320
7.74695e-320
7.40901e-320
7.12245e-320
6.96731e-320
6.9268e-320
6.55625e-320
5.08295e-320
4.85765e-320
4.72327e-320
4.77465e-320
5.86159e-320
5.81318e-320
4.76872e-320
4.71635e-320
4.78848e-320
4.82702e-320
4.83987e-320
4.83493e-320
4.79837e-320
4.71635e-320
4.76378e-320
5.92978e-320
5.83788e-320
4.75884e-320
4.67979e-320
4.72524e-320
2.10176e-319
2.02162e-319
1.94385e-319
1.86856e-319
1.79563e-319
1.72508e-319
1.6569e-319
1.59089e-319
1.52726e-319
1.46579e-319
1.40651e-319
1.34939e-319
1.29425e-319
1.24129e-319
1.19011e-319
1.1409e-319
1.09366e-319
1.04821e-319
1.00444e-319
9.6244e-320
9.22025e-320
8.83192e-320
8.4584e-320
8.09675e-320
7.743e-320
7.40703e-320
7.12047e-320
6.95941e-320
6.89123e-320
6.54341e-320
5.09678e-320
4.86161e-320
4.72129e-320
4.79145e-320
5.78057e-320
5.76871e-320
4.81615e-320
4.73315e-320
4.79738e-320
4.83196e-320
4.84184e-320
4.83591e-320
4.79738e-320
4.71536e-320
4.78256e-320
5.81812e-320
5.80033e-320
4.80726e-320
4.69461e-320
4.73117e-320
2.10176e-319
2.02162e-319
1.94385e-319
1.86856e-319
1.79563e-319
1.72508e-319
1.6569e-319
1.59089e-319
1.52726e-319
1.46579e-319
1.40651e-319
1.34939e-319
1.29425e-319
1.24119e-319
1.19011e-319
1.1409e-319
1.09356e-319
1.04801e-319
1.00434e-319
9.62242e-320
9.21926e-320
8.83093e-320
8.45643e-320
8.09477e-320
7.74398e-320
7.41e-320
7.12739e-320
6.95644e-320
6.85368e-320
6.52364e-320
5.11259e-320
4.87149e-320
4.72722e-320
4.81615e-320
5.69262e-320
5.69954e-320
4.85568e-320
4.74896e-320
4.80627e-320
4.83888e-320
4.84678e-320
4.83987e-320
4.80034e-320
4.72327e-320
4.8122e-320
5.70942e-320
5.72919e-320
4.84876e-320
4.70845e-320
4.73809e-320
2.10176e-319
2.02162e-319
1.94385e-319
1.86856e-319
1.79563e-319
1.72508e-319
1.6569e-319
1.59089e-319
1.52726e-319
1.46579e-319
1.40651e-319
1.34939e-319
1.29425e-319
1.24109e-319
1.19011e-319
1.1409e-319
1.09347e-319
1.04801e-319
1.00434e-319
9.62242e-320
9.21926e-320
8.82994e-320
8.45643e-320
8.09675e-320
7.74695e-320
7.41691e-320
7.13826e-320
6.95546e-320
6.82008e-320
6.50092e-320
5.12643e-320
4.88532e-320
4.73908e-320
4.83987e-320
5.60666e-320
5.62444e-320
4.88631e-320
4.76279e-320
4.81418e-320
4.8458e-320
4.85172e-320
4.8458e-320
4.80825e-320
4.73908e-320
4.84283e-320
5.61555e-320
5.65013e-320
4.87939e-320
4.7203e-320
4.74303e-320
2.10176e-319
2.02172e-319
1.94395e-319
1.86866e-319
1.79573e-319
1.72518e-319
1.6569e-319
1.59099e-319
1.52726e-319
1.46579e-319
1.40651e-319
1.34939e-319
1.29425e-319
1.24119e-319
1.19011e-319
1.1409e-319
1.09356e-319
1.04801e-319
1.00434e-319
9.62242e-320
9.21926e-320
8.83192e-320
8.4584e-320
8.09872e-320
7.75189e-320
7.42679e-320
7.14913e-320
6.95447e-320
6.79241e-320
6.48115e-320
5.14026e-320
4.90113e-320
4.75489e-320
4.85963e-320
5.53156e-320
5.55527e-320
4.90706e-320
4.77366e-320
4.82109e-320
4.85172e-320
4.85864e-320
4.85172e-320
4.81813e-320
4.75588e-320
4.86951e-320
5.53946e-320
5.57899e-320
4.90311e-320
4.73018e-320
4.74599e-320
2.10195e-319
2.02191e-319
1.94415e-319
1.86875e-319
1.79583e-319
1.72528e-319
1.6571e-319
1.59109e-319
1.52745e-319
1.46599e-319
1.4067e-319
1.34949e-319
1.29445e-319
1.24129e-319
1.19011e-319
1.1409e-319
1.09366e-319
1.04821e-319
1.00434e-319
9.6244e-320
9.22025e-320
8.83291e-320
8.46038e-320
8.10268e-320
7.75782e-320
7.43569e-320
7.16e-320
6.95348e-320
6.77068e-320
6.46435e-320
5.15014e-320
4.91892e-320
4.77169e-320
4.87643e-320
5.46733e-320
5.49401e-320
4.92287e-320
4.78256e-320
4.82603e-320
4.85765e-320
4.86457e-320
4.85963e-320
4.82702e-320
4.77267e-320
4.89125e-320
5.47622e-320
5.51871e-320
4.91991e-320
4.73809e-320
4.74698e-320
2.10235e-319
2.02211e-319
1.94444e-319
1.86915e-319
1.79613e-319
1.72547e-319
1.65729e-319
1.59129e-319
1.52765e-319
1.46619e-319
1.4069e-319
1.34959e-319
1.29455e-319
1.24149e-319
1.1903e-319
1.14109e-319
1.09386e-319
1.04831e-319
1.00453e-319
9.62638e-320
9.22322e-320
8.83587e-320
8.46433e-320
8.10663e-320
7.76474e-320
7.44458e-320
7.16889e-320
6.95249e-320
6.75289e-320
6.45052e-320
5.16002e-320
4.93473e-320
4.78947e-320
4.89125e-320
5.41298e-320
5.44362e-320
4.93572e-320
4.79046e-320
4.82999e-320
4.86161e-320
4.86951e-320
4.86655e-320
4.8369e-320
4.79046e-320
4.90904e-320
5.42286e-320
5.46832e-320
4.93473e-320
4.74501e-320
4.74698e-320
2.10274e-319
2.02251e-319
1.94484e-319
1.86945e-319
1.79642e-319
1.72587e-319
1.65759e-319
1.59168e-319
1.52785e-319
1.46639e-319
1.4071e-319
1.34989e-319
1.29475e-319
1.24169e-319
1.1905e-319
1.14129e-319
1.09406e-319
1.04851e-319
1.00473e-319
9.62835e-320
9.22519e-320
8.83785e-320
8.4673e-320
8.11157e-320
7.77066e-320
7.45446e-320
7.1768e-320
6.95052e-320
6.73906e-320
6.43866e-320
5.16793e-320
4.95153e-320
4.80726e-320
4.90508e-320
5.36753e-320
5.40014e-320
4.94659e-320
4.79837e-320
4.83196e-320
4.86556e-320
4.87445e-320
4.87346e-320
4.84678e-320
4.80627e-320
4.92287e-320
5.37741e-320
5.42484e-320
4.94659e-320
4.75094e-320
4.74599e-320
2.10334e-319
2.0231e-319
1.94524e-319
1.86994e-319
1.79682e-319
1.72627e-319
1.65789e-319
1.59198e-319
1.52824e-319
1.46678e-319
1.4074e-319
1.35018e-319
1.29504e-319
1.24188e-319
1.1908e-319
1.14159e-319
1.09426e-319
1.0488e-319
1.00513e-319
9.63033e-320
9.22816e-320
8.8418e-320
8.47224e-320
8.11651e-320
7.77758e-320
7.46237e-320
7.18371e-320
6.95052e-320
6.7272e-320
6.42878e-320
5.17484e-320
4.96635e-320
4.82406e-320
4.91694e-320
5.32899e-320
5.36259e-320
4.95548e-320
4.80429e-320
4.83394e-320
4.86753e-320
4.8784e-320
4.8784e-320
4.85568e-320
4.82208e-320
4.9367e-320
5.33789e-320
5.38729e-320
4.95844e-320
4.75588e-320
4.74402e-320
2.10393e-319
2.02369e-319
1.94583e-319
1.87033e-319
1.79741e-319
1.72666e-319
1.65838e-319
1.59237e-319
1.52864e-319
1.46708e-319
1.40769e-319
1.35048e-319
1.29534e-319
1.24228e-319
1.19109e-319
1.14188e-319
1.09455e-319
1.049e-319
1.00532e-319
9.63428e-320
9.23112e-320
8.84575e-320
8.47619e-320
8.12145e-320
7.7845e-320
7.46928e-320
7.18964e-320
6.94854e-320
6.71732e-320
6.42088e-320
5.17978e-320
4.98018e-320
4.84184e-320
4.9288e-320
5.29638e-320
5.32998e-320
4.96338e-320
4.81022e-320
4.83394e-320
4.86753e-320
4.88137e-320
4.88334e-320
4.86457e-320
4.83789e-320
4.94955e-320
5.30528e-320
5.35567e-320
4.96832e-320
4.76082e-320
4.74007e-320
2.10462e-319
2.02429e-319
1.94642e-319
1.87093e-319
1.7979e-319
1.72725e-319
1.65887e-319
1.59287e-319
1.52903e-319
1.46757e-319
1.40809e-319
1.35087e-319
1.29564e-319
1.24258e-319
1.19149e-319
1.14218e-319
1.09485e-319
1.0494e-319
1.00572e-319
9.63724e-320
9.23508e-320
8.8497e-320
8.48014e-320
8.12639e-320
7.79043e-320
7.4762e-320
7.19458e-320
6.94854e-320
6.70941e-320
6.41297e-320
5.18275e-320
4.99204e-320
4.85765e-320
4.94066e-320
5.26872e-320
5.30132e-320
4.9703e-320
4.81516e-320
4.83196e-320
4.86753e-320
4.88334e-320
4.8873e-320
4.87248e-320
4.85469e-320
4.9624e-320
5.27662e-320
5.32603e-320
4.97623e-320
4.76477e-320
4.73513e-320
2.10541e-319
2.02508e-319
1.94721e-319
1.87162e-319
1.7985e-319
1.72785e-319
1.65947e-319
1.59326e-319
1.52953e-319
1.46797e-319
1.40848e-319
1.35127e-319
1.29603e-319
1.24297e-319
1.19179e-319
1.14258e-319
1.09524e-319
1.04979e-319
1.00602e-319
9.6412e-320
9.23903e-320
8.85366e-320
8.4841e-320
8.13034e-320
7.79537e-320
7.48213e-320
7.19952e-320
6.94656e-320
6.70151e-320
6.40704e-320
5.18472e-320
5.00192e-320
4.87346e-320
4.95251e-320
5.24599e-320
5.27761e-320
4.97821e-320
4.8201e-320
4.82999e-320
4.86556e-320
4.88334e-320
4.88927e-320
4.87939e-320
4.8705e-320
4.97623e-320
5.25389e-320
5.30132e-320
4.98413e-320
4.76773e-320
4.7292e-320
2.1063e-319
2.02587e-319
1.9479e-319
1.87231e-319
1.79919e-319
1.72844e-319
1.66006e-319
1.59386e-319
1.53002e-319
1.46846e-319
1.40908e-319
1.35176e-319
1.29653e-319
1.24337e-319
1.19218e-319
1.14287e-319
1.09564e-319
1.05009e-319
1.00641e-319
9.64416e-320
9.24298e-320
8.85761e-320
8.48805e-320
8.13528e-320
7.80031e-320
7.48806e-320
7.20249e-320
6.94656e-320
6.69558e-320
6.40111e-320
5.18571e-320
5.0118e-320
4.88927e-320
4.96437e-320
5.22721e-320
5.25686e-320
4.98413e-320
4.82406e-320
4.82801e-320
4.86358e-320
4.88334e-320
4.89125e-320
4.88631e-320
4.88631e-320
4.99006e-320
5.23413e-320
5.27959e-320
4.99204e-320
4.77169e-320
4.72327e-320
2.10729e-319
2.02685e-319
1.94879e-319
1.8731e-319
1.79998e-319
1.72913e-319
1.66065e-319
1.59445e-319
1.53062e-319
1.46896e-319
1.40947e-319
1.35216e-319
1.29702e-319
1.24386e-319
1.19258e-319
1.14327e-319
1.09604e-319
1.05048e-319
1.00671e-319
9.64811e-320
9.24693e-320
8.86156e-320
8.492e-320
8.14023e-320
7.80525e-320
7.49201e-320
7.20545e-320
6.94656e-320
6.69064e-320
6.39519e-320
5.18571e-320
5.01971e-320
4.90508e-320
4.97623e-320
5.2114e-320
5.24006e-320
4.99105e-320
4.82801e-320
4.82406e-320
4.86161e-320
4.88236e-320
4.89224e-320
4.89323e-320
4.90212e-320
5.0039e-320
5.21832e-320
5.25883e-320
4.99797e-320
4.77564e-320
4.71734e-320
2.10838e-319
2.02784e-319
1.94968e-319
1.87399e-319
1.80077e-319
1.72982e-319
1.66135e-319
1.59514e-319
1.53121e-319
1.46955e-319
1.41006e-319
1.35275e-319
1.29742e-319
1.24425e-319
1.19307e-319
1.14376e-319
1.09643e-319
1.05088e-319
1.0071e-319
9.65207e-320
9.2499e-320
8.86453e-320
8.49595e-320
8.14418e-320
7.81019e-320
7.49596e-320
7.20941e-320
6.94459e-320
6.6857e-320
6.38926e-320
5.18571e-320
5.02761e-320
4.92089e-320
4.98809e-320
5.19955e-320
5.22524e-320
4.99698e-320
4.83394e-320
4.82208e-320
4.85765e-320
4.88038e-320
4.89323e-320
4.89915e-320
4.91892e-320
5.01971e-320
5.20646e-320
5.24006e-320
5.00192e-320
4.77959e-320
4.71141e-320
2.10946e-319
2.02893e-319
1.95077e-319
1.87488e-319
1.80156e-319
1.73061e-319
1.66204e-319
1.59583e-319
1.5319e-319
1.47014e-319
1.41066e-319
1.35325e-319
1.29801e-319
1.24465e-319
1.19346e-319
1.14416e-319
1.09683e-319
1.05127e-319
1.0075e-319
9.65602e-320
9.25385e-320
8.86848e-320
8.49991e-320
8.14813e-320
7.81414e-320
7.49992e-320
7.21138e-320
6.94459e-320
6.68174e-320
6.38333e-320
5.18374e-320
5.03552e-320
4.93572e-320
4.99994e-320
5.18967e-320
5.2114e-320
5.00192e-320
4.83789e-320
4.8201e-320
4.8537e-320
4.87742e-320
4.89323e-320
4.90706e-320
4.9367e-320
5.03552e-320
5.19856e-320
5.22227e-320
5.0039e-320
4.78256e-320
4.70746e-320
2.11065e-319
2.03002e-319
1.95176e-319
1.87587e-319
1.80255e-319
1.7315e-319
1.66283e-319
1.59662e-319
1.53259e-319
1.47073e-319
1.41125e-319
1.35374e-319
1.2984e-319
1.24524e-319
1.19386e-319
1.14465e-319
1.09722e-319
1.05167e-319
1.00789e-319
9.65997e-320
9.25681e-320
8.87144e-320
8.50386e-320
8.1511e-320
7.81711e-320
7.50387e-320
7.21336e-320
6.94261e-320
6.6768e-320
6.3774e-320
5.18374e-320
5.04342e-320
4.95153e-320
5.01279e-320
5.18176e-320
5.19955e-320
5.00587e-320
4.84382e-320
4.81813e-320
4.84975e-320
4.87445e-320
4.89323e-320
4.91398e-320
4.95449e-320
5.05528e-320
5.19461e-320
5.20646e-320
5.0039e-320
4.78651e-320
4.7035e-320
2.11203e-319
2.0312e-319
1.95284e-319
1.87686e-319
1.80344e-319
1.73239e-319
1.66362e-319
1.59731e-319
1.53318e-319
1.47143e-319
1.41184e-319
1.35433e-319
1.299e-319
1.24564e-319
1.19445e-319
1.14505e-319
1.09762e-319
1.05206e-319
1.00829e-319
9.66294e-320
9.26077e-320
8.8754e-320
8.50583e-320
8.15406e-320
7.82007e-320
7.50585e-320
7.21435e-320
6.94261e-320
6.67285e-320
6.37147e-320
5.18176e-320
5.05133e-320
4.96734e-320
5.02564e-320
5.17583e-320
5.18769e-320
5.00686e-320
4.84777e-320
4.81615e-320
4.84481e-320
4.8705e-320
4.89224e-320
4.92287e-320
4.97425e-320
5.07504e-320
5.19559e-320
5.19362e-320
5.00192e-320
4.78947e-320
4.69955e-320
2.11332e-319
2.03239e-319
1.95393e-319
1.87804e-319
1.80443e-319
1.73328e-319
1.66451e-319
1.5981e-319
1.53398e-319
1.47212e-319
1.41243e-319
1.35493e-319
1.29959e-319
1.24623e-319
1.19485e-319
1.14544e-319
1.09801e-319
1.05246e-319
1.00868e-319
9.66689e-320
9.26472e-320
8.87836e-320
8.50979e-320
8.15801e-320
7.82402e-320
7.50881e-320
7.21533e-320
6.94063e-320
6.66791e-320
6.36653e-320
5.17978e-320
5.05923e-320
4.98413e-320
5.03947e-320
5.17188e-320
5.17682e-320
5.00785e-320
4.85172e-320
4.81418e-320
4.83987e-320
4.86556e-320
4.89125e-320
4.93078e-320
4.99599e-320
5.09777e-320
5.19955e-320
5.18374e-320
4.99797e-320
4.79145e-320
4.69758e-320
2.1146e-319
2.03377e-319
1.95512e-319
1.87903e-319
1.80541e-319
1.73417e-319
1.6654e-319
1.5989e-319
1.53477e-319
1.47281e-319
1.41303e-319
1.35552e-319
1.30008e-319
1.24673e-319
1.19534e-319
1.14594e-319
1.09841e-319
1.05285e-319
1.00908e-319
9.66985e-320
9.2667e-320
8.88132e-320
8.51275e-320
8.15999e-320
7.826e-320
7.51079e-320
7.21731e-320
6.93965e-320
6.66396e-320
6.36159e-320
5.17978e-320
5.06714e-320
5.00192e-320
5.05429e-320
5.1699e-320
5.16793e-320
5.00587e-320
4.8537e-320
4.81319e-320
4.83394e-320
4.85963e-320
4.88927e-320
4.93868e-320
5.01575e-320
5.12148e-320
5.20943e-320
5.17682e-320
4.995e-320
4.79441e-320
4.69758e-320
2.11598e-319
2.03496e-319
1.9563e-319
1.88022e-319
1.8065e-319
1.73516e-319
1.66619e-319
1.59969e-319
1.53546e-319
1.4735e-319
1.41372e-319
1.35611e-319
1.30058e-319
1.24722e-319
1.19584e-319
1.14643e-319
1.0988e-319
1.05315e-319
1.00938e-319
9.67381e-320
9.27065e-320
8.88429e-320
8.51572e-320
8.16295e-320
7.82798e-320
7.51276e-320
7.21731e-320
6.93866e-320
6.66e-320
6.35566e-320
5.17781e-320
5.07702e-320
5.01971e-320
5.07109e-320
5.17089e-320
5.16002e-320
5.00587e-320
4.85667e-320
4.8122e-320
4.829e-320
4.8537e-320
4.88631e-320
4.94461e-320
5.03552e-320
5.14421e-320
5.21931e-320
5.17386e-320
4.99204e-320
4.79639e-320
4.69758e-320
2.11747e-319
2.03634e-319
1.95759e-319
1.8813e-319
1.80749e-319
1.73615e-319
1.66718e-319
1.60058e-319
1.53615e-319
1.47419e-319
1.41441e-319
1.3567e-319
1.30117e-319
1.24771e-319
1.19623e-319
1.14683e-319
1.0992e-319
1.05355e-319
1.00967e-319
9.67578e-320
9.27262e-320
8.88725e-320
8.51769e-320
8.16592e-320
7.82995e-320
7.51375e-320
7.21731e-320
6.93668e-320
6.65605e-320
6.35171e-320
5.17781e-320
5.08492e-320
5.03749e-320
5.0869e-320
5.17386e-320
5.15409e-320
5.0039e-320
4.85963e-320
4.81022e-320
4.82406e-320
4.8458e-320
4.88236e-320
4.95054e-320
5.0533e-320
5.16793e-320
5.23314e-320
5.17386e-320
4.99006e-320
4.79837e-320
4.69955e-320
2.11895e-319
2.03772e-319
1.95887e-319
1.88239e-319
1.80848e-319
1.73713e-319
1.66797e-319
1.60137e-319
1.53694e-319
1.47488e-319
1.415e-319
1.3573e-319
1.30176e-319
1.24821e-319
1.19673e-319
1.14722e-319
1.09959e-319
1.05394e-319
1.01007e-319
9.67973e-320
9.27658e-320
8.88923e-320
8.51967e-320
8.16789e-320
7.83193e-320
7.51573e-320
7.2183e-320
6.93471e-320
6.6521e-320
6.34578e-320
5.17583e-320
5.0948e-320
5.05528e-320
5.10469e-320
5.17781e-320
5.15014e-320
5.0039e-320
4.86259e-320
4.81022e-320
4.81813e-320
4.83987e-320
4.87742e-320
4.95449e-320
5.06911e-320
5.18769e-320
5.24698e-320
5.17583e-320
4.99006e-320
4.80133e-320
4.70153e-320
2.12033e-319
2.03901e-319
1.96006e-319
1.88358e-319
1.80966e-319
1.73812e-319
1.66895e-319
1.60216e-319
1.53773e-319
1.47558e-319
1.4156e-319
1.35789e-319
1.30226e-319
1.2487e-319
1.19722e-319
1.14762e-319
1.09999e-319
1.05424e-319
1.01036e-319
9.68171e-320
9.27855e-320
8.89121e-320
8.52164e-320
8.16888e-320
7.8339e-320
7.51671e-320
7.21731e-320
6.93273e-320
6.64815e-320
6.34183e-320
5.17583e-320
5.10271e-320
5.07307e-320
5.1205e-320
5.18374e-320
5.14915e-320
5.00587e-320
4.86556e-320
4.81022e-320
4.81319e-320
4.83196e-320
4.87149e-320
4.95647e-320
5.08097e-320
5.20548e-320
5.25883e-320
5.17781e-320
4.99006e-320
4.80429e-320
4.70548e-320
2.12191e-319
2.04039e-319
1.96134e-319
1.88476e-319
1.81065e-319
1.73911e-319
1.66984e-319
1.60295e-319
1.53852e-319
1.47627e-319
1.41629e-319
1.35848e-319
1.30275e-319
1.2492e-319
1.19762e-319
1.14801e-319
1.10038e-319
1.05453e-319
1.01066e-319
9.68467e-320
9.28053e-320
8.89318e-320
8.52362e-320
8.16987e-320
7.8339e-320
7.51671e-320
7.21731e-320
6.93075e-320
6.64321e-320
6.3359e-320
5.17583e-320
5.11062e-320
5.08888e-320
5.13631e-320
5.18967e-320
5.15014e-320
5.00785e-320
4.86951e-320
4.81022e-320
4.80825e-320
4.82406e-320
4.86556e-320
4.95647e-320
5.08888e-320
5.21931e-320
5.26872e-320
5.18176e-320
4.99006e-320
4.80825e-320
4.70943e-320
2.1233e-319
2.04178e-319
1.96263e-319
1.88595e-319
1.81174e-319
1.7401e-319
1.67073e-319
1.60384e-319
1.53921e-319
1.47696e-319
1.41688e-319
1.35908e-319
1.30335e-319
1.24959e-319
1.19801e-319
1.14841e-319
1.10068e-319
1.05493e-319
1.01086e-319
9.68764e-320
9.28251e-320
8.89516e-320
8.5256e-320
8.17185e-320
7.83588e-320
7.51671e-320
7.21533e-320
6.9268e-320
6.63827e-320
6.33195e-320
5.17583e-320
5.11852e-320
5.10469e-320
5.15014e-320
5.19559e-320
5.15014e-320
5.01081e-320
4.87346e-320
4.8122e-320
4.80429e-320
4.81813e-320
4.85963e-320
4.9535e-320
5.0948e-320
5.22919e-320
5.27662e-320
5.18374e-320
4.99204e-320
4.81121e-320
4.71437e-320
2.12488e-319
2.04306e-319
1.96381e-319
1.88713e-319
1.81283e-319
1.74099e-319
1.67162e-319
1.60463e-319
1.5399e-319
1.47765e-319
1.41757e-319
1.35957e-319
1.30374e-319
1.25008e-319
1.19841e-319
1.1488e-319
1.10098e-319
1.05513e-319
1.01106e-319
9.68962e-320
9.28448e-320
8.89713e-320
8.5256e-320
8.17185e-320
7.83588e-320
7.51573e-320
7.21435e-320
6.92384e-320
6.63333e-320
6.32799e-320
5.17583e-320
5.12741e-320
5.11753e-320
5.16101e-320
5.20053e-320
5.15212e-320
5.01477e-320
4.87939e-320
4.81418e-320
4.80232e-320
4.8122e-320
4.85172e-320
4.94955e-320
5.09579e-320
5.23512e-320
5.28156e-320
5.18472e-320
4.99204e-320
4.81418e-320
4.71932e-320
2.12626e-319
2.04444e-319
1.9651e-319
1.88822e-319
1.81381e-319
1.74198e-319
1.67251e-319
1.60542e-319
1.54069e-319
1.47824e-319
1.41817e-319
1.36006e-319
1.30433e-319
1.25058e-319
1.1988e-319
1.1491e-319
1.10137e-319
1.05542e-319
1.01135e-319
9.6906e-320
9.28547e-320
8.89713e-320
8.52658e-320
8.17185e-320
7.83489e-320
7.51573e-320
7.21138e-320
6.91988e-320
6.62838e-320
6.32305e-320
5.17583e-320
5.13532e-320
5.13038e-320
5.17188e-320
5.20449e-320
5.15409e-320
5.01971e-320
4.88532e-320
4.81615e-320
4.79935e-320
4.80627e-320
4.8458e-320
4.94461e-320
5.0948e-320
5.23611e-320
5.28255e-320
5.18472e-320
4.99303e-320
4.81813e-320
4.72327e-320
2.12764e-319
2.04583e-319
1.96638e-319
1.88931e-319
1.8149e-319
1.74287e-319
1.6733e-319
1.60621e-319
1.54148e-319
1.47894e-319
1.41866e-319
1.36066e-319
1.30473e-319
1.25097e-319
1.1992e-319
1.14939e-319
1.10157e-319
1.05562e-319
1.01155e-319
9.69159e-320
9.28646e-320
8.89812e-320
8.52658e-320
8.17185e-320
7.8339e-320
7.51375e-320
7.20941e-320
6.91593e-320
6.62246e-320
6.3191e-320
5.17781e-320
5.14322e-320
5.14224e-320
5.18077e-320
5.20745e-320
5.15607e-320
5.02366e-320
4.89026e-320
4.81813e-320
4.79837e-320
4.80232e-320
4.84086e-320
4.93967e-320
5.09085e-320
5.23413e-320
5.28057e-320
5.18275e-320
4.99303e-320
4.8201e-320
4.72722e-320
2.12913e-319
2.04711e-319
1.96757e-319
1.89049e-319
1.81589e-319
1.74385e-319
1.67419e-319
1.6069e-319
1.54208e-319
1.47953e-319
1.41925e-319
1.36115e-319
1.30512e-319
1.25137e-319
1.19949e-319
1.14969e-319
1.10177e-319
1.05582e-319
1.01165e-319
9.69357e-320
9.28745e-320
8.89911e-320
8.52658e-320
8.17185e-320
7.83292e-320
7.51177e-320
7.20545e-320
6.91099e-320
6.61752e-320
6.31614e-320
5.1788e-320
5.15212e-320
5.15409e-320
5.18967e-320
5.21042e-320
5.15706e-320
5.0286e-320
4.89619e-320
4.8201e-320
4.79639e-320
4.79935e-320
4.8369e-320
4.93473e-320
5.08591e-320
5.22919e-320
5.27464e-320
5.1788e-320
4.99204e-320
4.82208e-320
4.73117e-320
2.13041e-319
2.0484e-319
1.96875e-319
1.89148e-319
1.81688e-319
1.74464e-319
1.67498e-319
1.60769e-319
1.54277e-319
1.48012e-319
1.41975e-319
1.36164e-319
1.30562e-319
1.25167e-319
1.19979e-319
1.14999e-319
1.10196e-319
1.05602e-319
1.01185e-319
9.69357e-320
9.28843e-320
8.89911e-320
8.5256e-320
8.16987e-320
7.83193e-320
7.5098e-320
7.2015e-320
6.90605e-320
6.61257e-320
6.31218e-320
5.18077e-320
5.16002e-320
5.16595e-320
5.19757e-320
5.21338e-320
5.15903e-320
5.03354e-320
4.90113e-320
4.82406e-320
4.79639e-320
4.79738e-320
4.83394e-320
4.93078e-320
5.08097e-320
5.22227e-320
5.26872e-320
5.17386e-320
4.99006e-320
4.82307e-320
4.73315e-320
2.13179e-319
2.04958e-319
1.96974e-319
1.89257e-319
1.81777e-319
1.74563e-319
1.67577e-319
1.60838e-319
1.54346e-319
1.48071e-319
1.42034e-319
1.36204e-319
1.30601e-319
1.25196e-319
1.20018e-319
1.15018e-319
1.10216e-319
1.05611e-319
1.01185e-319
9.69554e-320
9.28843e-320
8.89812e-320
8.5256e-320
8.16888e-320
7.82995e-320
7.50585e-320
7.19755e-320
6.90111e-320
6.60665e-320
6.30823e-320
5.18275e-320
5.16793e-320
5.17682e-320
5.20646e-320
5.21733e-320
5.16101e-320
5.03749e-320
4.90706e-320
4.82801e-320
4.79837e-320
4.79639e-320
4.83196e-320
4.92781e-320
5.07504e-320
5.21536e-320
5.25883e-320
5.16595e-320
4.9871e-320
4.82406e-320
4.73611e-320
2.13298e-319
2.05077e-319
1.97093e-319
1.89356e-319
1.81875e-319
1.74642e-319
1.67646e-319
1.60907e-319
1.54405e-319
1.48121e-319
1.42074e-319
1.36244e-319
1.30631e-319
1.25236e-319
1.20038e-319
1.15038e-319
1.10236e-319
1.05631e-319
1.01204e-319
9.69554e-320
9.28843e-320
8.89713e-320
8.52461e-320
8.16789e-320
7.82798e-320
7.50387e-320
7.1936e-320
6.89518e-320
6.60072e-320
6.30527e-320
5.18374e-320
5.17583e-320
5.18769e-320
5.21536e-320
5.22129e-320
5.16397e-320
5.04342e-320
4.91398e-320
4.83196e-320
4.79837e-320
4.79639e-320
4.83196e-320
4.92583e-320
5.07109e-320
5.20745e-320
5.24994e-320
5.15903e-320
4.98413e-320
4.82406e-320
4.73809e-320
2.13426e-319
2.05185e-319
1.97191e-319
1.89445e-319
1.81954e-319
1.74721e-319
1.67725e-319
1.60967e-319
1.54455e-319
1.4818e-319
1.42113e-319
1.36283e-319
1.3067e-319
1.25265e-319
1.20058e-319
1.15058e-319
1.10256e-319
1.05631e-319
1.01204e-319
9.69554e-320
9.28745e-320
8.89713e-320
8.52362e-320
8.16592e-320
7.82501e-320
7.49992e-320
7.18964e-320
6.89024e-320
6.59578e-320
6.3023e-320
5.18571e-320
5.18275e-320
5.19757e-320
5.22524e-320
5.22721e-320
5.16793e-320
5.04935e-320
4.92089e-320
4.83591e-320
4.80133e-320
4.79837e-320
4.83196e-320
4.92583e-320
5.06813e-320
5.19955e-320
5.24006e-320
5.15014e-320
4.97919e-320
4.82406e-320
4.73908e-320
2.13535e-319
2.05294e-319
1.9729e-319
1.89543e-319
1.82034e-319
1.74791e-319
1.67785e-319
1.61026e-319
1.54504e-319
1.4822e-319
1.42162e-319
1.36323e-319
1.307e-319
1.25295e-319
1.20078e-319
1.15078e-319
1.10266e-319
1.05651e-319
1.01204e-319
9.69554e-320
9.28745e-320
8.89615e-320
8.52164e-320
8.16394e-320
7.82205e-320
7.49695e-320
7.18569e-320
6.8853e-320
6.59084e-320
6.29835e-320
5.18769e-320
5.18967e-320
5.20844e-320
5.23512e-320
5.23413e-320
5.17386e-320
5.05528e-320
4.92682e-320
4.84184e-320
4.80429e-320
4.80034e-320
4.83493e-320
4.92682e-320
5.06615e-320
5.19362e-320
5.22919e-320
5.14026e-320
4.97425e-320
4.82208e-320
4.74105e-320
2.13654e-319
2.05393e-319
1.97389e-319
1.89622e-319
1.82113e-319
1.7486e-319
1.67854e-319
1.61085e-319
1.54563e-319
1.48269e-319
1.42202e-319
1.36362e-319
1.3073e-319
1.25315e-319
1.20097e-319
1.15098e-319
1.10275e-319
1.05651e-319
1.01214e-319
9.69554e-320
9.28646e-320
8.89516e-320
8.52066e-320
8.16196e-320
7.82007e-320
7.49399e-320
7.18174e-320
6.87937e-320
6.58491e-320
6.29637e-320
5.18967e-320
5.19559e-320
5.21733e-320
5.24302e-320
5.24105e-320
5.17978e-320
5.06121e-320
4.93473e-320
4.84678e-320
4.80726e-320
4.80232e-320
4.83789e-320
4.92979e-320
5.06615e-320
5.18769e-320
5.21931e-320
5.13038e-320
4.96832e-320
4.8201e-320
4.74204e-320
2.13753e-319
2.05492e-319
1.97468e-319
1.89701e-319
1.82192e-319
1.74929e-319
1.67913e-319
1.61144e-319
1.54613e-319
1.48319e-319
1.42241e-319
1.36392e-319
1.30759e-319
1.25335e-319
1.20117e-319
1.15107e-319
1.10295e-319
1.05661e-319
1.01214e-319
9.69554e-320
9.28646e-320
8.89417e-320
8.51967e-320
8.15999e-320
7.81809e-320
7.49004e-320
7.17779e-320
6.87542e-320
6.58095e-320
6.29242e-320
5.18967e-320
5.20152e-320
5.22524e-320
5.25291e-320
5.24895e-320
5.18571e-320
5.06911e-320
4.94263e-320
4.85271e-320
4.81022e-320
4.80627e-320
4.84184e-320
4.93374e-320
5.06714e-320
5.18374e-320
5.21042e-320
5.1205e-320
4.9624e-320
4.81813e-320
4.74303e-320
2.13851e-319
2.05591e-319
1.97557e-319
1.8978e-319
1.82271e-319
1.74998e-319
1.67972e-319
1.61194e-319
1.54662e-319
1.48358e-319
1.42271e-319
1.36421e-319
1.30789e-319
1.25354e-319
1.20137e-319
1.15117e-319
1.10295e-319
1.05671e-319
1.01224e-319
9.69554e-320
9.28547e-320
8.89318e-320
8.51769e-320
8.15801e-320
7.81612e-320
7.48806e-320
7.17383e-320
6.87147e-320
6.577e-320
6.29044e-320
5.19164e-320
5.20548e-320
5.23314e-320
5.25982e-320
5.25488e-320
5.19164e-320
5.07702e-320
4.95054e-320
4.85963e-320
4.81418e-320
4.80923e-320
4.84678e-320
4.93967e-320
5.07109e-320
5.18077e-320
5.20152e-320
5.11062e-320
4.95449e-320
4.81615e-320
4.74303e-320
2.1395e-319
2.0567e-319
1.97646e-319
1.8986e-319
1.8233e-319
1.75057e-319
1.68022e-319
1.61243e-319
1.54702e-319
1.48398e-319
1.42311e-319
1.36451e-319
1.30809e-319
1.25374e-319
1.20157e-319
1.15137e-319
1.10305e-319
1.05671e-319
1.01224e-319
9.69456e-320
9.28448e-320
8.89318e-320
8.5167e-320
8.15702e-320
7.81315e-320
7.48411e-320
7.16988e-320
6.86751e-320
6.57305e-320
6.28847e-320
5.19263e-320
5.21042e-320
5.23907e-320
5.26674e-320
5.26081e-320
5.19856e-320
5.08492e-320
4.95844e-320
4.86556e-320
4.81912e-320
4.81319e-320
4.85172e-320
4.94659e-320
5.07504e-320
5.17978e-320
5.19263e-320
5.09876e-320
4.94659e-320
4.81319e-320
4.74402e-320
2.14049e-319
2.05768e-319
1.97725e-319
1.89939e-319
1.82399e-319
1.75117e-319
1.68081e-319
1.61293e-319
1.54741e-319
1.48427e-319
1.4234e-319
1.36481e-319
1.30829e-319
1.25394e-319
1.20177e-319
1.15147e-319
1.10315e-319
1.05671e-319
1.01224e-319
9.69456e-320
9.28448e-320
8.89121e-320
8.51572e-320
8.15604e-320
7.81118e-320
7.48213e-320
7.1679e-320
6.86356e-320
6.57107e-320
6.28748e-320
5.19362e-320
5.21338e-320
5.245e-320
5.27069e-320
5.26674e-320
5.20449e-320
5.09184e-320
4.96635e-320
4.87149e-320
4.82406e-320
4.81714e-320
4.85765e-320
4.95449e-320
5.08097e-320
5.17781e-320
5.18472e-320
5.08888e-320
4.93868e-320
4.81022e-320
4.74501e-320
2.14128e-319
2.05848e-319
1.97794e-319
1.89998e-319
1.82458e-319
1.75176e-319
1.6814e-319
1.61342e-319
1.54781e-319
1.48467e-319
1.4237e-319
1.365e-319
1.30858e-319
1.25414e-319
1.20186e-319
1.15157e-319
1.10325e-319
1.05681e-319
1.01224e-319
9.69456e-320
9.28448e-320
8.89121e-320
8.51473e-320
8.15406e-320
7.81019e-320
7.48015e-320
7.16494e-320
6.86158e-320
6.5691e-320
6.28649e-320
5.19559e-320
5.21733e-320
5.24895e-320
5.27563e-320
5.27069e-320
5.20943e-320
5.09876e-320
4.97425e-320
4.8784e-320
4.82801e-320
4.82208e-320
4.86556e-320
4.96338e-320
5.08888e-320
5.1788e-320
5.17781e-320
5.07702e-320
4.93078e-320
4.80627e-320
4.74501e-320
2.14217e-319
2.05927e-319
1.97863e-319
1.90067e-319
1.82528e-319
1.75235e-319
1.6818e-319
1.61382e-319
1.5482e-319
1.48496e-319
1.42409e-319
1.3654e-319
1.30878e-319
1.25433e-319
1.20206e-319
1.15177e-319
1.10335e-319
1.05691e-319
1.01224e-319
9.69456e-320
9.28448e-320
8.89121e-320
8.51374e-320
8.15307e-320
7.80821e-320
7.47818e-320
7.16198e-320
6.85961e-320
6.56712e-320
6.28649e-320
5.19658e-320
5.2203e-320
5.25192e-320
5.2786e-320
5.27267e-320
5.21338e-320
5.10469e-320
4.98117e-320
4.88433e-320
4.83196e-320
4.82603e-320
4.87346e-320
4.97425e-320
5.09678e-320
5.17978e-320
5.1699e-320
5.06714e-320
4.92287e-320
4.80429e-320
4.74698e-320
2.14306e-319
2.06006e-319
1.97942e-319
1.90136e-319
1.82587e-319
1.75285e-319
1.68239e-319
1.61431e-319
1.5486e-319
1.48536e-319
1.42429e-319
1.3656e-319
1.30908e-319
1.25453e-319
1.20216e-319
1.15177e-319
1.10345e-319
1.05691e-319
1.01224e-319
9.69456e-320
9.28448e-320
8.89022e-320
8.51374e-320
8.15208e-320
7.80723e-320
7.47719e-320
7.16099e-320
6.85763e-320
6.56514e-320
6.28649e-320
5.19757e-320
5.22326e-320
5.25488e-320
5.28057e-320
5.27563e-320
5.21733e-320
5.10963e-320
4.9871e-320
4.88927e-320
4.83591e-320
4.83196e-320
4.88137e-320
4.98413e-320
5.10666e-320
5.18176e-320
5.16397e-320
5.05726e-320
4.91595e-320
4.80133e-320
4.74896e-320
2.14385e-319
2.06075e-319
1.98012e-319
1.90196e-319
1.82646e-319
1.75334e-319
1.68279e-319
1.61471e-319
1.54899e-319
1.48575e-319
1.42469e-319
1.36589e-319
1.30927e-319
1.25473e-319
1.20236e-319
1.15196e-319
1.10355e-319
1.057e-319
1.01234e-319
9.69554e-320
9.28448e-320
8.89022e-320
8.51275e-320
8.15208e-320
7.80624e-320
7.4762e-320
7.16e-320
6.85565e-320
6.56514e-320
6.28649e-320
5.19955e-320
5.22524e-320
5.25686e-320
5.28255e-320
5.27662e-320
5.21931e-320
5.11457e-320
4.99303e-320
4.89421e-320
4.83987e-320
4.83591e-320
4.88927e-320
4.99599e-320
5.11654e-320
5.18472e-320
5.15805e-320
5.04935e-320
4.90904e-320
4.80034e-320
4.75094e-320
2.14464e-319
2.06144e-319
1.98081e-319
1.90255e-319
1.82696e-319
1.75393e-319
1.68328e-319
1.6152e-319
1.54939e-319
1.48605e-319
1.42498e-319
1.36619e-319
1.30947e-319
1.25493e-319
1.20256e-319
1.15216e-319
1.10364e-319
1.0571e-319
1.01244e-319
9.69554e-320
9.28448e-320
8.89022e-320
8.51275e-320
8.15208e-320
7.80624e-320
7.4762e-320
7.15901e-320
6.85565e-320
6.56514e-320
6.28649e-320
5.20152e-320
5.22721e-320
5.25883e-320
5.28255e-320
5.27761e-320
5.22129e-320
5.11852e-320
4.99797e-320
4.89915e-320
4.84382e-320
4.84184e-320
4.89915e-320
5.00785e-320
5.12643e-320
5.18769e-320
5.15409e-320
5.04145e-320
4.90311e-320
4.79837e-320
4.7539e-320
2.14543e-319
2.06223e-319
1.9814e-319
1.90324e-319
1.82755e-319
1.75433e-319
1.68378e-319
1.61559e-319
1.54979e-319
1.48635e-319
1.42528e-319
1.36639e-319
1.30967e-319
1.25512e-319
1.20275e-319
1.15226e-319
1.10374e-319
1.0572e-319
1.01244e-319
9.69554e-320
9.28448e-320
8.89022e-320
8.51275e-320