/*--------------------------------*- C++ -*----------------------------------*\
  =========                 |
  \\      /  F ield         | OpenFOAM: The Open Source CFD Toolbox
   \\    /   O peration     | Website:  https://openfoam.org
    \\  /    A nd           | Version:  9
     \\/     M anipulation  |
\*---------------------------------------------------------------------------*/
FoamFile
{
    format      ascii;
    class       volScalarField;
    location    "0.18";
    object      p;
}
// * * * * * * * * * * * * * * * * * * * * * * * * * * * * * * * * * * * * * //

dimensions      [1 -1 -2 0 0 0 0];

internalField   nonuniform List<scalar> 
5000
(
3.68017
3.67946
3.67897
3.67856
3.67817
3.67777
3.67735
3.67689
3.67636
3.67576
3.67506
3.67425
3.67328
3.67213
3.67077
3.66915
3.6672
3.66488
3.66208
3.6587
3.6546
3.6496
3.64335
3.63487
3.62078
3.59007
3.5172
3.35778
3.04962
3.16269
3.56553
3.47128
3.12034
2.66707
1.445
1.4784
2.88182
3.04626
3.27313
3.4015
3.44545
3.43272
3.33534
3.04242
2.57232
1.09
1.40719
2.76139
2.918
3.09539
3.67796
3.67689
3.67611
3.67543
3.67478
3.67416
3.67355
3.67292
3.67226
3.67154
3.67074
3.66984
3.6688
3.66758
3.66613
3.66439
3.66229
3.65971
3.65653
3.65254
3.64744
3.64069
3.63129
3.61707
3.59323
3.55002
3.47826
3.39444
3.28912
3.34916
3.55453
3.46769
3.16913
2.82138
2.20607
2.22834
3.06443
3.15766
3.29659
3.40204
3.4397
3.42422
3.33553
3.07431
2.75224
1.98544
2.19805
3.00315
3.06024
3.15911
3.67628
3.67559
3.67504
3.67449
3.67394
3.6734
3.67285
3.67228
3.67167
3.67101
3.67028
3.66945
3.66848
3.66734
3.66597
3.66431
3.66228
3.65975
3.65657
3.65251
3.6472
3.64011
3.63031
3.61634
3.59589
3.56515
3.52303
3.48097
3.41777
3.43127
3.5574
3.49739
3.30102
3.24766
2.84201
2.80313
3.34931
3.33011
3.395
3.45516
3.47389
3.45885
3.39735
3.22966
3.22541
2.72742
2.80902
3.35735
3.25329
3.27828
3.67445
3.67401
3.67366
3.6733
3.67293
3.67254
3.67214
3.67172
3.67126
3.67075
3.67017
3.6695
3.66871
3.66775
3.66659
3.66515
3.66337
3.66113
3.6583
3.65467
3.64997
3.64381
3.63567
3.62485
3.61056
3.59121
3.56635
3.54162
3.50572
3.50285
3.58414
3.55856
3.44444
3.51256
3.29272
3.25535
3.59512
3.48775
3.50188
3.52626
3.53028
3.52076
3.49333
3.40079
3.51657
3.2456
3.27665
3.63075
3.43009
3.4063
3.67257
3.67232
3.67217
3.67201
3.67183
3.67164
3.67143
3.67121
3.67095
3.67065
3.67029
3.66985
3.66931
3.66863
3.66777
3.66669
3.66531
3.66356
3.66132
3.65845
3.65476
3.65003
3.64396
3.63621
3.62654
3.61438
3.59999
3.58729
3.57145
3.56536
3.61299
3.61298
3.55641
3.6637
3.58251
3.55647
3.74541
3.60734
3.59464
3.59707
3.59266
3.58804
3.58358
3.53656
3.67133
3.55708
3.58978
3.78483
3.56881
3.51958
3.67068
3.6706
3.67065
3.6707
3.67073
3.67076
3.67078
3.67078
3.67076
3.67072
3.67063
3.67048
3.67025
3.66992
3.66945
3.66881
3.66795
3.66681
3.66531
3.66335
3.66083
3.65761
3.65355
3.64854
3.64265
3.63596
3.62911
3.62434
3.61891
3.61367
3.64224
3.65839
3.6434
3.76985
3.76239
3.74011
3.83831
3.69939
3.67171
3.66138
3.65284
3.65181
3.66052
3.64465
3.77428
3.74157
3.77952
3.88337
3.67923
3.61401
3.66879
3.6689
3.66916
3.66942
3.66968
3.66994
3.67021
3.67047
3.67072
3.67096
3.67118
3.67136
3.6715
3.67157
3.67155
3.67142
3.67114
3.67069
3.67
3.66904
3.66773
3.66604
3.66396
3.66153
3.65901
3.65671
3.65505
3.65466
3.65387
3.65072
3.67109
3.69821
3.71284
3.84973
3.87507
3.85476
3.90597
3.7758
3.73765
3.71918
3.70879
3.71088
3.72788
3.73436
3.85491
3.86326
3.89073
3.95869
3.77078
3.6937
3.66691
3.66721
3.66769
3.66818
3.66867
3.66918
3.6697
3.67024
3.67078
3.67134
3.67189
3.67243
3.67296
3.67347
3.67393
3.67435
3.67469
3.67496
3.67512
3.67516
3.67507
3.67487
3.67461
3.67446
3.67468
3.67558
3.6773
3.6796
3.68158
3.68086
3.69777
3.73182
3.76583
3.90424
3.94394
3.92904
3.95871
3.83851
3.794
3.77052
3.75969
3.76428
3.78641
3.8065
3.915
3.94
3.96529
4.0178
3.84543
3.76058
3.66504
3.66554
3.66624
3.66696
3.66769
3.66845
3.66924
3.67006
3.67091
3.67178
3.67268
3.67361
3.67455
3.6755
3.67646
3.67743
3.67841
3.6794
3.68039
3.68141
3.68245
3.68359
3.68492
3.68662
3.68892
3.69211
3.69616
3.70043
3.70436
3.70644
3.72102
3.75837
3.80397
3.93665
3.982
3.97557
3.99673
3.88689
3.84033
3.81446
3.80436
3.81029
3.8349
3.86171
3.95619
3.98698
4.01467
4.06055
3.90396
3.81448
3.66317
3.66388
3.6648
3.66575
3.66672
3.66774
3.6688
3.66991
3.67106
3.67226
3.67351
3.67481
3.67617
3.67757
3.67903
3.68055
3.68214
3.68382
3.6856
3.68751
3.68958
3.69189
3.69456
3.69774
3.70166
3.70655
3.71233
3.71814
3.72363
3.72776
3.7406
3.77888
3.8308
3.95334
3.99895
4.00127
4.02021
3.92214
3.87694
3.85054
3.84201
3.84827
3.87336
3.9027
3.9823
4.01311
4.04447
4.08833
3.94803
3.85795
3.6613
3.66221
3.66335
3.66453
3.66575
3.66702
3.66835
3.66974
3.67119
3.67272
3.67431
3.67599
3.67775
3.67959
3.68153
3.68358
3.68575
3.68808
3.69058
3.6933
3.69629
3.69961
3.70339
3.70779
3.71301
3.71921
3.72626
3.73328
3.73987
3.74541
3.75707
3.79498
3.84988
3.95974
4.00232
4.01178
4.03083
3.94622
3.90481
3.87925
3.87261
3.87865
3.903
3.93231
3.99692
4.02439
4.05976
4.1011
3.98156
3.89052
3.65942
3.66054
3.66189
3.6633
3.66475
3.66627
3.66786
3.66953
3.67127
3.67311
3.67505
3.67708
3.67923
3.6815
3.68389
3.68643
3.68915
3.69207
3.69523
3.69867
3.70245
3.70664
3.71136
3.71677
3.72301
3.73022
3.73821
3.7461
3.75351
3.76006
3.7712
3.80826
3.86326
3.95935
3.99738
4.01202
4.03103
3.96044
3.92525
3.9015
3.89663
3.90201
3.92533
3.95292
4.00325
4.02577
4.06486
4.10352
3.9991
3.91216
3.65752
3.65884
3.6604
3.66203
3.66371
3.66547
3.66731
3.66924
3.67127
3.67341
3.67566
3.67804
3.68056
3.68322
3.68604
3.68904
3.69225
3.6957
3.69945
3.70352
3.70799
3.71293
3.71844
3.72465
3.73171
3.73968
3.74835
3.75688
3.76491
3.77231
3.78342
3.81936
3.87211
3.95488
3.98831
4.00543
4.0239
3.96774
3.93764
3.91828
3.91471
3.92014
3.94055
3.96658
4.00433
4.02081
4.06041
4.09687
4.00575
3.92553
3.65561
3.65712
3.65888
3.66072
3.66261
3.6646
3.66668
3.66886
3.67116
3.67357
3.67613
3.67883
3.68168
3.68471
3.68792
3.69134
3.695
3.69893
3.70319
3.70782
3.71288
3.71844
3.7246
3.73147
3.73916
3.7477
3.75689
3.7659
3.77443
3.78254
3.79383
3.82849
3.8779
3.94839
3.97746
3.99504
4.01254
3.96834
3.94544
3.92969
3.92727
3.93264
3.95096
3.97524
4.00266
4.01265
4.05006
4.0831
4.00518
3.93217
3.65369
3.65537
3.65732
3.65935
3.66144
3.66364
3.66595
3.66837
3.67091
3.67359
3.67642
3.67941
3.68258
3.68594
3.68951
3.6933
3.69736
3.70172
3.70642
3.71152
3.71709
3.72317
3.72986
3.73725
3.74543
3.75442
3.76396
3.77334
3.78228
3.79092
3.80245
3.83567
3.8818
3.94123
3.96594
3.98347
3.99984
3.96476
3.94889
3.93621
3.93504
3.94044
3.95703
3.98018
3.99971
4.00348
4.03523
4.06308
3.99718
3.93239
3.65174
3.65359
3.65571
3.65791
3.6602
3.66259
3.6651
3.66774
3.67051
3.67343
3.67651
3.67976
3.68321
3.68687
3.69076
3.69489
3.6993
3.70403
3.70912
3.71463
3.72061
3.72712
3.73424
3.74204
3.75061
3.75991
3.76971
3.77935
3.7886
3.79763
3.8094
3.84109
3.88429
3.93431
3.95488
3.9719
3.98726
3.95884
3.9485
3.9386
3.93866
3.94413
3.9588
3.98231
3.9959
3.99392
4.01699
4.03645
3.9817
3.9267
3.64978
3.65178
3.65405
3.65641
3.65887
3.66144
3.66414
3.66698
3.66995
3.67309
3.67639
3.67988
3.68358
3.6875
3.69166
3.69609
3.70081
3.70586
3.71128
3.71713
3.72346
3.73032
3.73778
3.74591
3.75476
3.76429
3.77426
3.78407
3.79352
3.80281
3.81475
3.84483
3.88471
3.92907
3.94504
3.96056
3.97266
3.95383
3.94521
3.93747
3.93852
3.94411
3.9583
3.97971
3.9905
3.98311
3.99507
4.00425
3.95999
3.91612
3.64779
3.64993
3.65233
3.65485
3.65745
3.66019
3.66306
3.66607
3.66923
3.67255
3.67605
3.67975
3.68366
3.68781
3.69221
3.69689
3.70187
3.7072
3.7129
3.71904
3.72565
3.7328
3.74053
3.74891
3.75797
3.76765
3.77772
3.78762
3.79718
3.80659
3.81859
3.84729
3.88619
3.92277
3.93634
3.94969
3.95933
3.94592
3.939
3.9332
3.93483
3.94018
3.95348
3.9738
3.98253
3.96978
3.9692
3.96778
3.93342
3.90177
3.64578
3.64804
3.65056
3.6532
3.65594
3.65882
3.66184
3.665
3.66832
3.67181
3.67549
3.67937
3.68346
3.6878
3.6924
3.69729
3.7025
3.70805
3.71399
3.72036
3.72721
3.73458
3.74252
3.75109
3.76029
3.77007
3.78019
3.79012
3.7997
3.8091
3.82106
3.84841
3.886
3.9181
3.92872
3.93864
3.94568
3.93598
3.93041
3.92613
3.92781
3.9324
3.94432
3.96362
3.97068
3.95284
3.93962
3.92842
3.90341
3.88486
3.64375
3.64611
3.64874
3.65148
3.65434
3.65734
3.66048
3.66378
3.66724
3.67087
3.6747
3.67872
3.68298
3.68747
3.69224
3.69731
3.70269
3.70843
3.71456
3.72111
3.72814
3.73569
3.74379
3.75248
3.76178
3.77163
3.78176
3.79167
3.80122
3.81053
3.82241
3.84854
3.88473
3.91397
3.92148
3.92695
3.93112
3.92452
3.92013
3.9167
3.91777
3.9209
3.9308
3.94856
3.95415
3.93189
3.90724
3.888
3.87191
3.86679
3.64169
3.64413
3.64685
3.64969
3.65264
3.65574
3.65899
3.6624
3.66597
3.66973
3.67367
3.67783
3.68221
3.68684
3.69174
3.69694
3.70247
3.70835
3.71462
3.72132
3.72849
3.73616
3.74437
3.75315
3.7625
3.77236
3.78247
3.79236
3.80186
3.81107
3.82292
3.84803
3.88259
3.90941
3.91389
3.91441
3.91587
3.91216
3.90882
3.90544
3.90516
3.906
3.91304
3.92858
3.93292
3.90745
3.8738
3.84907
3.84137
3.84914
3.63961
3.64212
3.64491
3.64783
3.65086
3.65404
3.65737
3.66087
3.66453
3.66838
3.67242
3.67668
3.68116
3.68589
3.6909
3.69621
3.70184
3.70783
3.71421
3.721
3.72826
3.73601
3.74429
3.75311
3.76247
3.77231
3.78238
3.79223
3.80169
3.81085
3.8228
3.84698
3.87945
3.90369
3.90549
3.90153
3.9007
3.89962
3.89703
3.89297
3.89064
3.88835
3.89169
3.90448
3.9079
3.88095
3.84161
3.81421
3.81426
3.83348
3.6375
3.64007
3.64292
3.64589
3.64899
3.65223
3.65563
3.65919
3.66293
3.66684
3.67096
3.67528
3.67984
3.68465
3.68973
3.69512
3.70083
3.70689
3.71333
3.72018
3.72749
3.73528
3.74358
3.7524
3.76174
3.77152
3.78153
3.79132
3.80077
3.80995
3.82208
3.84532
3.87512
3.89645
3.89626
3.88914
3.88681
3.8878
3.8854
3.88001
3.87508
3.86898
3.86792
3.87759
3.88072
3.85447
3.81314
3.7858
3.79266
3.82112
3.63536
3.63798
3.64087
3.64389
3.64703
3.65032
3.65376
3.65737
3.66115
3.66512
3.66928
3.67366
3.67827
3.68312
3.68826
3.69369
3.69944
3.70554
3.71201
3.71889
3.72621
3.734
3.74228
3.75105
3.76032
3.77002
3.77992
3.78965
3.7991
3.80837
3.82069
3.84289
3.8696
3.88774
3.88659
3.87808
3.8753
3.87752
3.87458
3.86737
3.8595
3.84915
3.84341
3.8499
3.85351
3.83026
3.79055
3.76557
3.77797
3.81295
3.63321
3.63586
3.63877
3.64182
3.64499
3.6483
3.65178
3.65541
3.65922
3.66322
3.66741
3.67181
3.67645
3.68133
3.68648
3.69193
3.6977
3.7038
3.71028
3.71714
3.72443
3.73218
3.7404
3.7491
3.75826
3.76783
3.7776
3.78724
3.7967
3.80606
3.81853
3.83957
3.86311
3.87823
3.87691
3.86883
3.86681
3.86936
3.86514
3.85578
3.84504
3.83025
3.82012
3.82371
3.82855
3.81032
3.77529
3.75431
3.77071
3.80937
3.63103
3.63369
3.63662
3.63968
3.64286
3.64619
3.64967
3.65332
3.65714
3.66115
3.66535
3.66976
3.6744
3.67928
3.68443
3.68987
3.69563
3.70171
3.70815
3.71497
3.7222
3.72987
3.73799
3.74657
3.75558
3.76499
3.7746
3.78412
3.79357
3.80299
3.81551
3.83534
3.85592
3.86848
3.86763
3.86174
3.86122
3.86338
3.85736
3.84574
3.83203
3.81437
3.80008
3.80122
3.8079
3.79603
3.76789
3.75183
3.77063
3.81026
3.62882
3.6315
3.63443
3.63748
3.64066
3.64398
3.64746
3.65111
3.65492
3.65892
3.66311
3.66752
3.67214
3.677
3.68213
3.68754
3.69325
3.69928
3.70566
3.71241
3.71954
3.72709
3.73508
3.7435
3.75233
3.76153
3.77095
3.78033
3.78974
3.79917
3.81162
3.83026
3.84827
3.85884
3.85917
3.85632
3.85779
3.85912
3.85114
3.83755
3.82178
3.80187
3.78509
3.78437
3.79303
3.78804
3.76795
3.75708
3.77675
3.81509
3.62661
3.62928
3.63219
3.63522
3.63838
3.64169
3.64516
3.64878
3.65258
3.65656
3.66073
3.6651
3.66969
3.67452
3.6796
3.68495
3.69059
3.69655
3.70284
3.70948
3.71649
3.72389
3.73171
3.73993
3.74855
3.75752
3.76671
3.77591
3.78524
3.79463
3.80689
3.82443
3.84033
3.84947
3.85136
3.85186
3.85533
3.85567
3.84598
3.83116
3.81447
3.79382
3.77601
3.77432
3.78469
3.78621
3.77434
3.76839
3.78766
3.82303
3.62438
3.62703
3.62991
3.63292
3.63605
3.63933
3.64277
3.64636
3.65013
3.65407
3.6582
3.66253
3.66708
3.67184
3.67686
3.68213
3.68769
3.69354
3.69972
3.70622
3.71308
3.72031
3.72793
3.73592
3.74429
3.753
3.76193
3.77092
3.78013
3.78943
3.80142
3.81793
3.8322
3.84039
3.84375
3.84726
3.85237
3.85186
3.84115
3.82621
3.80997
3.79035
3.77326
3.77134
3.78282
3.7898
3.78549
3.78383
3.80178
3.83313
3.62213
3.62477
3.62761
3.63058
3.63367
3.63691
3.6403
3.64386
3.64758
3.65147
3.65555
3.65983
3.66431
3.66901
3.67394
3.67912
3.68457
3.6903
3.69634
3.70269
3.70937
3.7164
3.72378
3.73153
3.73962
3.74803
3.75667
3.76542
3.77447
3.78361
3.79527
3.81083
3.82383
3.83142
3.83585
3.84145
3.84754
3.84652
3.83591
3.82219
3.80787
3.79103
3.77633
3.77481
3.78666
3.79762
3.79966
3.80147
3.81747
3.84448
3.61988
3.62249
3.62528
3.62821
3.63125
3.63444
3.63778
3.64128
3.64495
3.64878
3.6528
3.65701
3.66141
3.66603
3.67086
3.67594
3.68126
3.68686
3.69274
3.69891
3.7054
3.7122
3.71934
3.72681
3.7346
3.74269
3.75101
3.75948
3.76831
3.77724
3.78849
3.80312
3.81509
3.82223
3.82714
3.83363
3.83983
3.83884
3.82964
3.81853
3.80757
3.79502
3.78406
3.7834
3.79486
3.80828
3.81524
3.81957
3.83347
3.85631
3.61763
3.6202
3.62294
3.62581
3.6288
3.63193
3.63521
3.63865
3.64225
3.64601
3.64996
3.65408
3.6584
3.66292
3.66766
3.67261
3.67781
3.68325
3.68896
3.69495
3.70122
3.70778
3.71465
3.72182
3.72929
3.73704
3.74502
3.75317
3.76172
3.77037
3.78113
3.79479
3.80582
3.81252
3.81725
3.82334
3.82892
3.82853
3.82193
3.81473
3.80836
3.80123
3.7949
3.79538
3.80582
3.82034
3.83079
3.83689
3.84867
3.86803
3.61537
3.61791
3.62059
3.6234
3.62633
3.6294
3.63261
3.63597
3.6395
3.64318
3.64704
3.65108
3.65531
3.65972
3.66434
3.66917
3.67423
3.67951
3.68504
3.69083
3.69687
3.70319
3.70978
3.71664
3.72377
3.73116
3.73877
3.74656
3.75477
3.76306
3.77324
3.78586
3.79594
3.80211
3.80605
3.8107
3.81512
3.8157
3.81269
3.81047
3.8096
3.80855
3.80723
3.80891
3.81793
3.83254
3.84516
3.85252
3.86228
3.87888
3.61312
3.61561
3.61823
3.62097
3.62384
3.62684
3.62998
3.63327
3.63671
3.64031
3.64408
3.64802
3.65214
3.65645
3.66095
3.66565
3.67055
3.67567
3.68102
3.6866
3.69241
3.69847
3.70478
3.71132
3.71811
3.72512
3.73234
3.73975
3.74755
3.75539
3.7649
3.77641
3.78549
3.79098
3.79372
3.79623
3.79909
3.80089
3.80218
3.80562
3.81077
3.81601
3.81959
3.82237
3.82982
3.84389
3.8577
3.86564
3.87378
3.88852
3.61086
3.61331
3.61587
3.61854
3.62134
3.62427
3.62734
3.63054
3.6339
3.63741
3.64108
3.64492
3.64894
3.65313
3.6575
3.66206
3.66682
3.67177
3.67693
3.6823
3.68789
3.69369
3.69971
3.70594
3.71238
3.71901
3.72583
3.73281
3.74015
3.74749
3.75627
3.7666
3.77463
3.77932
3.78065
3.78076
3.78187
3.78503
3.79089
3.80028
3.81158
3.82288
3.8309
3.83457
3.84047
3.85364
3.86782
3.87581
3.88285
3.89675
3.60861
3.61101
3.61351
3.61611
3.61884
3.62169
3.62468
3.62781
3.63108
3.6345
3.63807
3.64181
3.64571
3.64978
3.65402
3.65844
3.66305
3.66784
3.67281
3.67798
3.68334
3.68889
3.69463
3.70055
3.70664
3.71291
3.71931
3.72586
3.73271
3.73951
3.74752
3.75668
3.76365
3.76746
3.76737
3.7652
3.76472
3.76924
3.77953
3.79469
3.81193
3.82873
3.84049
3.84481
3.84931
3.8613
3.87513
3.88278
3.88934
3.90341
3.60636
3.60872
3.61114
3.61368
3.61634
3.61912
3.62203
3.62507
3.62825
3.63158
3.63506
3.63869
3.64247
3.64642
3.65054
3.65482
3.65928
3.6639
3.6687
3.67366
3.6788
3.68411
3.68958
3.6952
3.70097
3.70687
3.71289
3.719
3.72536
3.73161
3.73886
3.74692
3.75287
3.75582
3.75449
3.75047
3.7488
3.75457
3.76881
3.78923
3.81187
3.83343
3.84815
3.85289
3.85612
3.86662
3.87936
3.88643
3.89323
3.90847
3.60411
3.60642
3.60878
3.61125
3.61384
3.61654
3.61938
3.62234
3.62544
3.62867
3.63205
3.63558
3.63925
3.64309
3.64707
3.65122
3.65553
3.65999
3.66461
3.66939
3.67432
3.6794
3.68462
3.68996
3.69542
3.70099
3.70663
3.71234
3.71823
3.72396
3.73051
3.73757
3.74263
3.74483
3.74258
3.73735
3.73495
3.74183
3.75938
3.7843
3.81159
3.83708
3.85401
3.85899
3.861
3.86951
3.88039
3.88676
3.89461
3.91205
3.60187
3.60412
3.60642
3.60883
3.61135
3.61398
3.61674
3.61963
3.62264
3.62579
3.62907
3.63249
3.63606
3.63978
3.64364
3.64766
3.65182
3.65613
3.66059
3.66519
3.66992
3.67479
3.67977
3.68486
3.69004
3.6953
3.70061
3.70595
3.71141
3.71669
3.72263
3.72886
3.73319
3.73481
3.73205
3.72627
3.72369
3.73156
3.75172
3.78023
3.81132
3.83995
3.8585
3.86358
3.8642
3.87
3.87822
3.88393
3.89374
3.91435
3.59963
3.60183
3.60407
3.60641
3.60886
3.61143
3.61412
3.61693
3.61986
3.62292
3.62611
3.62944
3.63291
3.63651
3.64026
3.64415
3.64818
3.65235
3.65665
3.66108
3.66564
3.67031
3.67508
3.67994
3.68487
3.68986
3.69488
3.6999
3.705
3.7099
3.71536
3.72093
3.72472
3.72599
3.72312
3.71743
3.71519
3.72402
3.74607
3.77726
3.81126
3.84242
3.86214
3.8672
3.86605
3.86824
3.87306
3.87836
3.89105
3.91567
3.59739
3.59955
3.60172
3.604
3.6064
3.6089
3.61151
3.61425
3.61711
3.62009
3.62319
3.62643
3.6298
3.6333
3.63694
3.64071
3.64462
3.64865
3.65281
3.65709
3.66149
3.66598
3.67057
3.67523
3.67995
3.6847
3.68947
3.69424
3.69905
3.70367
3.70877
3.71386
3.71732
3.71845
3.71582
3.71075
3.70932
3.71909
3.74246
3.77549
3.81154
3.84492
3.86546
3.87037
3.86689
3.8645
3.8654
3.87072
3.88719
3.91647
3.59516
3.59727
3.59939
3.60161
3.60394
3.60638
3.60893
3.6116
3.61438
3.61729
3.62031
3.62347
3.62675
3.63015
3.63369
3.63735
3.64114
3.64506
3.64909
3.65323
3.65748
3.66182
3.66625
3.67074
3.67527
3.67984
3.68442
3.68898
3.69358
3.698
3.70286
3.70766
3.71096
3.71217
3.71007
3.706
3.70572
3.7164
3.74069
3.77491
3.81199
3.848
3.86888
3.87345
3.86699
3.85921
3.85602
3.86201
3.883
3.91727
3.59293
3.59499
3.59706
3.59923
3.6015
3.60388
3.60637
3.60897
3.61169
3.61452
3.61748
3.62055
3.62375
3.62707
3.63051
3.63408
3.63776
3.64157
3.64548
3.64951
3.65363
3.65784
3.66213
3.66648
3.67087
3.67529
3.67972
3.68414
3.68858
3.69289
3.69762
3.70226
3.70558
3.70704
3.70568
3.70286
3.7039
3.7155
3.74042
3.77558
3.81438
3.85006
3.87245
3.8766
3.8666
3.853
3.84605
3.85347
3.87944
3.91865
3.59071
3.59272
3.59474
3.59686
3.59908
3.6014
3.60384
3.60638
3.60903
3.6118
3.61468
3.61769
3.62081
3.62405
3.62741
3.63089
3.63448
3.63819
3.64201
3.64593
3.64994
3.65404
3.65821
3.66245
3.66673
3.67104
3.67536
3.67969
3.68404
3.6883
3.69299
3.6976
3.70105
3.70289
3.7024
3.70094
3.7034
3.7159
3.74128
3.77696
3.81668
3.85293
3.87637
3.87985
3.86599
3.84673
3.83688
3.84654
3.87752
3.92119
3.58848
3.59046
3.59243
3.5945
3.59667
3.59894
3.60132
3.60381
3.60641
3.60912
3.61194
3.61487
3.61793
3.6211
3.62438
3.62778
3.6313
3.63492
3.63865
3.64249
3.64641
3.65042
3.6545
3.65865
3.66284
3.66707
3.67132
3.6756
3.67991
3.68418
3.68888
3.69356
3.69724
3.69956
3.69999
3.69992
3.70376
3.71714
3.74286
3.77877
3.81901
3.85604
3.88043
3.88309
3.86547
3.84141
3.83006
3.84258
3.87815
3.92535
3.58626
3.58819
3.59012
3.59215
3.59428
3.59651
3.59884
3.60127
3.60382
3.60647
3.60924
3.61211
3.61511
3.61821
3.62143
3.62477
3.62821
3.63177
3.63543
3.63919
3.64304
3.64697
3.65098
3.65506
3.65919
3.66337
3.66758
3.67184
3.67615
3.68045
3.68523
3.69003
3.69401
3.69685
3.69823
3.69949
3.70465
3.71883
3.74479
3.78075
3.82125
3.85902
3.88408
3.88609
3.86546
3.83823
3.82698
3.84271
3.88201
3.93145
3.58404
3.58593
3.58782
3.58981
3.5919
3.59408
3.59637
3.59876
3.60126
3.60386
3.60658
3.60941
3.61234
3.6154
3.61856
3.62184
3.62522
3.62872
3.63232
3.63602
3.63981
3.64369
3.64764
3.65167
3.65576
3.65991
3.66411
3.66836
3.6727
3.67707
3.68194
3.68691
3.69121
3.6946
3.6969
3.69942
3.70578
3.72067
3.74678
3.78262
3.82311
3.86136
3.88705
3.88863
3.86652
3.83806
3.82861
3.84764
3.88942
3.93956
3.58181
3.58366
3.58553
3.58748
3.58953
3.59168
3.59393
3.59628
3.59873
3.60129
3.60396
3.60675
3.60964
3.61264
3.61576
3.61898
3.62232
3.62577
3.62932
3.63297
3.63672
3.64055
3.64447
3.64846
3.65252
3.65666
3.66086
3.66513
3.6695
3.67395
3.67893
3.68408
3.68871
3.69265
3.69584
3.69952
3.70695
3.72244
3.74859
3.78414
3.82435
3.86275
3.88889
3.89075
3.86836
3.84204
3.83547
3.85757
3.90031
3.94957
3.57958
3.5814
3.58323
3.58515
3.58717
3.58929
3.5915
3.59382
3.59623
3.59876
3.60139
3.60413
3.60698
3.60995
3.61302
3.61621
3.61951
3.62291
3.62642
3.63004
3.63375
3.63755
3.64144
3.64541
3.64946
3.65359
3.6578
3.6621
3.66652
3.67104
3.67613
3.68146
3.68641
3.69088
3.6949
3.69963
3.708
3.72398
3.75006
3.78514
3.82475
3.86289
3.88929
3.89208
3.87219
3.84969
3.84747
3.87209
3.91421
3.96116
3.57733
3.57911
3.58092
3.58282
3.58482
3.5869
3.58909
3.59138
3.59376
3.59626
3.59885
3.60156
3.60438
3.60731
3.61035
3.6135
3.61677
3.62014
3.62362
3.62721
3.63089
3.63467
3.63854
3.6425
3.64655
3.65068
3.6549
3.65923
3.66369
3.66829
3.67347
3.67896
3.68421
3.68915
3.69393
3.6996
3.70879
3.72514
3.75106
3.7855
3.82422
3.86164
3.88813
3.89285
3.87741
3.86099
3.86394
3.89017
3.93031
3.97391
3.57507
3.57682
3.57861
3.58049
3.58247
3.58453
3.58669
3.58895
3.59131
3.59378
3.59635
3.59903
3.60182
3.60472
3.60773
3.61086
3.6141
3.61745
3.62091
3.62447
3.62814
3.6319
3.63576
3.63971
3.64376
3.6479
3.65213
3.65649
3.66098
3.66563
3.6709
3.67652
3.68202
3.68738
3.69281
3.6993
3.70918
3.72579
3.75146
3.78517
3.82277
3.85906
3.88545
3.89293
3.88383
3.87524
3.88357
3.91046
3.94762
3.9873
3.57281
3.57453
3.5763
3.57817
3.58012
3.58217
3.58431
3.58655
3.58889
3.59133
3.59388
3.59654
3.5993
3.60218
3.60517
3.60828
3.61149
3.61482
3.61826
3.62181
3.62547
3.62922
3.63308
3.63703
3.64107
3.64522
3.64946
3.65384
3.65835
3.66305
3.66836
3.67407
3.67976
3.68546
3.69143
3.6986
3.70901
3.72578
3.75117
3.78417
3.82059
3.85545
3.88159
3.89246
3.89102
3.89115
3.90462
3.93137
3.96506
4.00085
3.57054
3.57223
3.57399
3.57584
3.57778
3.5798
3.58193
3.58415
3.58647
3.5889
3.59143
3.59407
3.59682
3.59968
3.60266
3.60574
3.60895
3.61226
3.61569
3.61923
3.62287
3.62662
3.63048
3.63442
3.63847
3.64262
3.64687
3.65125
3.65578
3.66049
3.66582
3.67158
3.67738
3.68332
3.6897
3.69737
3.70815
3.72497
3.75013
3.78259
3.81795
3.8513
3.87708
3.89161
3.89835
3.90725
3.92525
3.95131
3.98163
4.0141
3.56825
3.56991
3.57166
3.5735
3.57542
3.57744
3.57955
3.58176
3.58407
3.58649
3.58901
3.59163
3.59437
3.59722
3.60018
3.60326
3.60645
3.60975
3.61317
3.6167
3.62035
3.62409
3.62794
3.63189
3.63594
3.64008
3.64434
3.64871
3.65323
3.65794
3.66325
3.669
3.67484
3.6809
3.68754
3.69552
3.70649
3.72327
3.74829
3.78055
3.81526
3.84723
3.87256
3.89059
3.90517
3.92207
3.94373
3.96885
3.99646
4.02668
3.56592
3.56756
3.56931
3.57114
3.57306
3.57507
3.57718
3.57938
3.58168
3.58409
3.5866
3.58922
3.59194
3.59478
3.59774
3.60081
3.60399
3.60729
3.61071
3.61423
3.61787
3.62162
3.62547
3.62941
3.63346
3.6376
3.64184
3.64621
3.6507
3.65537
3.66063
3.66632
3.67211
3.67818
3.68489
3.69297
3.70394
3.72062
3.74568
3.77822
3.8129
3.8439
3.86871
3.88966
3.91088
3.93428
3.95855
3.98287
4.00892
4.03831
3.56357
3.56519
3.56693
3.56877
3.57069
3.57269
3.5748
3.577
3.57929
3.5817
3.5842
3.58681
3.58954
3.59237
3.59532
3.59839
3.60157
3.60487
3.60828
3.61181
3.61545
3.61919
3.62304
3.62698
3.63102
3.63515
3.63938
3.64371
3.64817
3.65278
3.65795
3.66351
3.66917
3.67512
3.68174
3.68972
3.7005
3.71702
3.74237
3.7758
3.81126
3.84188
3.86617
3.88906
3.91503
3.94284
3.96868
3.99269
4.01866
4.0488
3.56121
3.56281
3.56456
3.56639
3.56831
3.57031
3.57241
3.57461
3.57691
3.57931
3.58181
3.58443
3.58715
3.58998
3.59293
3.59599
3.59918
3.60247
3.60589
3.60942
3.61306
3.61681
3.62065
3.62459
3.62862
3.63273
3.63694
3.64123
3.64563
3.65016
3.65519
3.66057
3.66602
3.67173
3.6781
3.68578
3.69622
3.71258
3.7385
3.77348
3.81058
3.84154
3.86534
3.88896
3.91727
3.94712
3.97359
3.99807
4.02558
4.05805
3.55884
3.56043
3.56217
3.56401
3.56592
3.56793
3.57003
3.57222
3.57452
3.57692
3.57943
3.58204
3.58477
3.5876
3.59055
3.59362
3.59681
3.60011
3.60353
3.60706
3.6107
3.61445
3.61829
3.62223
3.62625
3.63034
3.63451
3.63876
3.64308
3.64751
3.65238
3.65751
3.66266
3.66803
3.67402
3.68125
3.69123
3.70749
3.73429
3.77143
3.81096
3.84297
3.86633
3.88934
3.91744
3.94694
3.97332
3.99922
4.02986
4.06601
3.55645
3.55802
3.55977
3.5616
3.56351
3.56552
3.56763
3.56983
3.57213
3.57453
3.57704
3.57966
3.58239
3.58523
3.58819
3.59126
3.59445
3.59776
3.60119
3.60472
3.60837
3.61212
3.61596
3.61989
3.6239
3.62797
3.63211
3.6363
3.64054
3.64483
3.6495
3.65435
3.65913
3.66406
3.66955
3.67622
3.68571
3.70198
3.72999
3.76978
3.81234
3.84594
3.86889
3.89001
3.91549
3.94259
3.96849
3.99682
4.03189
4.0727
3.55402
3.55556
3.55732
3.55916
3.56108
3.56309
3.5652
3.56741
3.56972
3.57213
3.57465
3.57728
3.58001
3.58286
3.58583
3.58891
3.59211
3.59543
3.59886
3.60241
3.60606
3.60981
3.61366
3.61758
3.62158
3.62563
3.62973
3.63385
3.63799
3.64213
3.64658
3.65109
3.65544
3.65986
3.66478
3.67085
3.67989
3.69635
3.72586
3.7686
3.81444
3.8499
3.87238
3.89056
3.91154
3.93485
3.96024
3.99187
4.03221
4.07816
3.55154
3.55306
3.55483
3.55669
3.55862
3.56064
3.56276
3.56498
3.5673
3.56972
3.57225
3.57488
3.57763
3.58049
3.58347
3.58656
3.58977
3.5931
3.59655
3.6001
3.60376
3.60752
3.61137
3.61529
3.61928
3.62331
3.62736
3.63142
3.63545
3.63943
3.64363
3.64775
3.65162
3.65547
3.65977
3.66525
3.67395
3.69086
3.72213
3.76787
3.81683
3.85408
3.87594
3.89051
3.90593
3.92487
3.95007
3.98558
4.03144
4.08241
3.54901
3.55051
3.5523
3.55418
3.55612
3.55816
3.56029
3.56252
3.56485
3.56729
3.56983
3.57248
3.57524
3.57811
3.5811
3.58421
3.58744
3.59078
3.59424
3.5978
3.60148
3.60524
3.6091
3.61302
3.617
3.62101
3.62503
3.62902
3.63293
3.63674
3.64066
3.64437
3.64769
3.65093
3.65459
3.65952
3.66809
3.68573
3.71894
3.76746
3.81897
3.85756
3.87861
3.88945
3.89926
3.91416
3.93968
3.97918
4.03013
4.08547
3.54645
3.54793
3.54974
3.55164
3.5536
3.55565
3.5578
3.56005
3.56239
3.56484
3.5674
3.57006
3.57283
3.57572
3.57873
3.58185
3.5851
3.58845
3.59193
3.59551
3.5992
3.60298
3.60684
3.61078
3.61475
3.61875
3.62273
3.62665
3.63045
3.63408
3.63771
3.64097
3.64369
3.64625
3.64925
3.65373
3.66239
3.68108
3.71635
3.76719
3.82032
3.85947
3.87952
3.88715
3.89235
3.90429
3.93066
3.97377
4.02874
4.0873
3.54386
3.54534
3.54716
3.54908
3.55105
3.55312
3.55528
3.55755
3.55991
3.56237
3.56494
3.56762
3.57041
3.57332
3.57635
3.57949
3.58275
3.58612
3.58962
3.59322
3.59692
3.60072
3.6046
3.60855
3.61253
3.61652
3.62047
3.62433
3.62802
3.63147
3.63479
3.63756
3.63963
3.64145
3.64376
3.64787
3.65688
3.67696
3.71431
3.76682
3.82041
3.85913
3.87812
3.88368
3.88615
3.89671
3.92428
3.97006
4.0275
4.08784
3.54123
3.54272
3.54456
3.54649
3.54848
3.55056
3.55274
3.55502
3.5574
3.55988
3.56247
3.56517
3.56798
3.5709
3.57394
3.57711
3.58038
3.58378
3.58729
3.59092
3.59465
3.59847
3.60237
3.60634
3.61033
3.61432
3.61825
3.62206
3.62565
3.62892
3.63193
3.63418
3.63554
3.63654
3.63811
3.64193
3.65155
3.67332
3.71272
3.76618
3.81895
3.8562
3.87424
3.87935
3.8815
3.89241
3.92125
3.96835
4.02642
4.08699
3.53859
3.54007
3.54193
3.54388
3.54588
3.54798
3.55018
3.55247
3.55487
3.55737
3.55997
3.56269
3.56552
3.56846
3.57152
3.5747
3.57801
3.58143
3.58496
3.58861
3.59237
3.59622
3.60015
3.60415
3.60817
3.61217
3.61609
3.61986
3.62337
3.62647
3.62916
3.63086
3.63144
3.63152
3.63229
3.63588
3.64636
3.67012
3.71152
3.76519
3.81593
3.85075
3.86813
3.87462
3.87893
3.89171
3.92153
3.9684
4.02528
4.08463
3.53591
3.5374
3.53928
3.54124
3.54326
3.54538
3.54759
3.5499
3.55231
3.55483
3.55745
3.56018
3.56303
3.56599
3.56908
3.57228
3.5756
3.57905
3.58261
3.58629
3.59008
3.59397
3.59794
3.60197
3.60602
3.61005
3.61399
3.61774
3.62118
3.62413
3.62652
3.62765
3.62739
3.62645
3.62633
3.62974
3.64134
3.66737
3.71073
3.76398
3.81167
3.84329
3.86037
3.86991
3.87845
3.89413
3.92436
3.9695
4.02365
4.08065
3.5332
3.53471
3.5366
3.53858
3.54061
3.54275
3.54498
3.5473
3.54973
3.55226
3.5549
3.55765
3.56052
3.5635
3.56661
3.56983
3.57318
3.57665
3.58024
3.58395
3.58778
3.59171
3.59573
3.5998
3.60391
3.60798
3.61195
3.61571
3.61911
3.62193
3.62404
3.62459
3.62346
3.62141
3.62036
3.62369
3.63667
3.66525
3.71052
3.76285
3.80673
3.83466
3.85172
3.86541
3.87942
3.89842
3.92836
3.97057
4.02097
4.07495
3.53047
3.53198
3.5339
3.53589
3.53794
3.54009
3.54234
3.54468
3.54712
3.54967
3.55233
3.5551
3.55798
3.56098
3.56411
3.56735
3.57072
3.57422
3.57784
3.58159
3.58546
3.58944
3.5935
3.59764
3.60181
3.60594
3.60997
3.61377
3.61716
3.61989
3.62177
3.62178
3.61976
3.6166
3.61464
3.61807
3.63272
3.66408
3.71122
3.76226
3.80187
3.82585
3.84292
3.86097
3.88061
3.90268
3.93171
3.97035
4.01664
4.06742
3.52772
3.52926
3.53118
3.53319
3.53526
3.53742
3.53968
3.54204
3.54449
3.54706
3.54973
3.55251
3.55541
3.55843
3.56157
3.56484
3.56823
3.57176
3.57541
3.5792
3.58311
3.58714
3.59127
3.59547
3.59972
3.60393
3.60805
3.61192
3.61535
3.61805
3.61975
3.61929
3.61646
3.61227
3.60958
3.61339
3.63003
3.66432
3.71319
3.76264
3.7978
3.81773
3.83445
3.85603
3.88031
3.9047
3.93244
3.96756
4.01006
4.05798
3.52498
3.52654
3.52847
3.53049
3.53256
3.53474
3.53701
3.53937
3.54184
3.54442
3.5471
3.5499
3.55281
3.55584
3.559
3.56229
3.5657
3.56926
3.57295
3.57677
3.58073
3.58481
3.58901
3.59329
3.59762
3.60195
3.60617
3.61015
3.61367
3.61641
3.61804
3.61723
3.61376
3.60878
3.60572
3.61031
3.62922
3.6664
3.71665
3.76425
3.79497
3.81084
3.82631
3.84959
3.87661
3.90228
3.92877
3.96111
4.00077
4.04656
3.52225
3.52383
3.52576
3.52778
3.52986
3.53204
3.53432
3.53669
3.53917
3.54175
3.54444
3.54725
3.55017
3.55322
3.55639
3.5597
3.56313
3.56671
3.57043
3.5743
3.5783
3.58244
3.58671
3.59108
3.59552
3.59996
3.60432
3.60846
3.61212
3.61498
3.61666
3.61569
3.61187
3.60654
3.60363
3.60947
3.63077
3.67047
3.72152
3.76694
3.79338
3.80506
3.81788
3.84029
3.86765
3.89359
3.91935
3.95025
3.98846
4.0331
3.51952
3.52112
3.52305
3.52507
3.52715
3.52933
3.53161
3.53399
3.53647
3.53906
3.54176
3.54457
3.5475
3.55056
3.55374
3.55706
3.56052
3.56412
3.56787
3.57177
3.57582
3.58002
3.58436
3.58882
3.59337
3.59795
3.60248
3.60681
3.61067
3.61376
3.61563
3.61476
3.611
3.60589
3.6038
3.61129
3.63481
3.67624
3.72719
3.77007
3.79239
3.79957
3.80796
3.82665
3.85198
3.87751
3.90354
3.93471
3.97305
4.01757
3.51679
3.51839
3.52033
3.52235
3.52443
3.52661
3.52889
3.53127
3.53375
3.53634
3.53904
3.54186
3.5448
3.54786
3.55105
3.55438
3.55785
3.56147
3.56525
3.56918
3.57328
3.57753
3.58195
3.5865
3.59117
3.5959
3.60062
3.60517
3.60929
3.6127
3.61494
3.61447
3.61127
3.60707
3.60643
3.61576
3.64086
3.68283
3.73256
3.77251
3.79082
3.79296
3.79506
3.80748
3.82896
3.85395
3.88156
3.91478
3.95469
3.99996
3.51405
3.51566
3.51759
3.51961
3.52169
3.52387
3.52615
3.52853
3.53101
3.5336
3.5363
3.53912
3.54205
3.54512