/*--------------------------------*- C++ -*----------------------------------*\
  =========                 |
  \\      /  F ield         | OpenFOAM: The Open Source CFD Toolbox
   \\    /   O peration     | Website:  https://openfoam.org
    \\  /    A nd           | Version:  9
     \\/     M anipulation  |
\*---------------------------------------------------------------------------*/
FoamFile
{
    format      ascii;
    class       volScalarField;
    location    "0.18";
    object      rAU;
}
// * * * * * * * * * * * * * * * * * * * * * * * * * * * * * * * * * * * * * //

dimensions      [-1 3 1 0 0 0 0];

internalField   nonuniform List<scalar> 
5000
(
6.33e-06
7.95836e-06
8.05524e-06
8.14821e-06
8.23758e-06
8.32359e-06
8.40646e-06
8.48641e-06
8.56361e-06
8.63826e-06
8.71054e-06
8.78062e-06
8.8487e-06
8.91495e-06
8.97958e-06
9.04281e-06
9.10483e-06
9.16587e-06
9.22612e-06
9.28574e-06
9.34475e-06
9.40268e-06
9.45753e-06
9.50433e-06
9.53726e-06
9.57196e-06
9.71551e-06
1.0248e-05
1.12285e-05
1.09559e-05
9.6428e-06
8.81427e-06
8.35151e-06
8.53708e-06
1.35904e-05
1.31042e-05
8.42272e-06
8.29864e-06
8.55665e-06
8.69609e-06
8.74508e-06
8.73095e-06
8.60517e-06
8.32421e-06
8.50075e-06
1.3962e-05
1.31808e-05
8.38358e-06
8.17857e-06
8.33905e-06
7.39534e-06
9.71408e-06
9.85445e-06
9.98941e-06
1.01191e-05
1.02438e-05
1.03636e-05
1.04787e-05
1.05894e-05
1.06957e-05
1.0798e-05
1.08963e-05
1.09908e-05
1.10819e-05
1.11696e-05
1.12542e-05
1.13359e-05
1.14149e-05
1.14913e-05
1.15655e-05
1.16373e-05
1.17066e-05
1.17722e-05
1.18312e-05
1.18805e-05
1.19292e-05
1.20378e-05
1.23453e-05
1.28244e-05
1.27862e-05
1.22166e-05
1.16613e-05
1.1328e-05
1.14948e-05
1.38321e-05
1.3805e-05
1.1554e-05
1.13561e-05
1.15092e-05
1.15909e-05
1.16147e-05
1.15992e-05
1.15085e-05
1.13127e-05
1.14741e-05
1.39197e-05
1.38785e-05
1.15326e-05
1.12646e-05
1.13529e-05
7.395e-06
9.71394e-06
9.85433e-06
9.98929e-06
1.0119e-05
1.02437e-05
1.03635e-05
1.04786e-05
1.05892e-05
1.06955e-05
1.07977e-05
1.08959e-05
1.09904e-05
1.10814e-05
1.1169e-05
1.12535e-05
1.13351e-05
1.14139e-05
1.14903e-05
1.15642e-05
1.16358e-05
1.17049e-05
1.17704e-05
1.18298e-05
1.18809e-05
1.19346e-05
1.20495e-05
1.23411e-05
1.27562e-05
1.27457e-05
1.22512e-05
1.16839e-05
1.13433e-05
1.15533e-05
1.36248e-05
1.36412e-05
1.16481e-05
1.1394e-05
1.15312e-05
1.16067e-05
1.16254e-05
1.16081e-05
1.15174e-05
1.13342e-05
1.15454e-05
1.36645e-05
1.37097e-05
1.16305e-05
1.12983e-05
1.13684e-05
7.395e-06
9.71399e-06
9.85439e-06
9.98937e-06
1.01191e-05
1.02438e-05
1.03636e-05
1.04787e-05
1.05892e-05
1.06955e-05
1.07977e-05
1.08959e-05
1.09903e-05
1.10812e-05
1.11688e-05
1.12533e-05
1.13348e-05
1.14135e-05
1.14898e-05
1.15636e-05
1.16353e-05
1.17045e-05
1.17704e-05
1.18312e-05
1.18856e-05
1.19461e-05
1.2067e-05
1.23391e-05
1.2695e-05
1.27035e-05
1.22854e-05
1.17167e-05
1.13718e-05
1.16081e-05
1.34229e-05
1.34649e-05
1.1719e-05
1.14258e-05
1.15498e-05
1.16227e-05
1.1639e-05
1.1622e-05
1.1535e-05
1.13696e-05
1.16167e-05
1.34437e-05
1.3525e-05
1.17045e-05
1.13264e-05
1.13797e-05
7.39557e-06
9.71436e-06
9.85478e-06
9.98977e-06
1.01195e-05
1.02442e-05
1.0364e-05
1.04791e-05
1.05897e-05
1.06959e-05
1.07981e-05
1.08962e-05
1.09907e-05
1.10816e-05
1.11691e-05
1.12535e-05
1.1335e-05
1.14138e-05
1.14901e-05
1.1564e-05
1.16358e-05
1.17055e-05
1.17723e-05
1.18348e-05
1.1893e-05
1.19605e-05
1.20857e-05
1.23375e-05
1.26443e-05
1.26648e-05
1.23163e-05
1.1755e-05
1.1408e-05
1.16558e-05
1.32445e-05
1.33004e-05
1.17694e-05
1.14521e-05
1.15643e-05
1.16375e-05
1.16535e-05
1.16385e-05
1.15564e-05
1.14101e-05
1.16796e-05
1.32634e-05
1.33566e-05
1.17583e-05
1.13492e-05
1.13865e-05
7.39687e-06
9.71519e-06
9.8556e-06
9.99061e-06
1.01204e-05
1.02451e-05
1.03648e-05
1.04799e-05
1.05905e-05
1.06968e-05
1.07989e-05
1.08971e-05
1.09915e-05
1.10824e-05
1.11699e-05
1.12544e-05
1.13359e-05
1.14147e-05
1.14911e-05
1.15653e-05
1.16375e-05
1.17076e-05
1.17755e-05
1.18399e-05
1.19022e-05
1.19758e-05
1.21033e-05
1.23357e-05
1.26035e-05
1.26319e-05
1.23429e-05
1.17953e-05
1.14481e-05
1.16961e-05
1.30932e-05
1.31579e-05
1.18064e-05
1.14744e-05
1.15758e-05
1.16503e-05
1.16677e-05
1.16555e-05
1.15791e-05
1.1451e-05
1.17306e-05
1.31148e-05
1.32145e-05
1.17993e-05
1.13679e-05
1.13897e-05
7.39894e-06
9.71649e-06
9.8569e-06
9.99191e-06
1.01217e-05
1.02464e-05
1.03662e-05
1.04813e-05
1.05918e-05
1.06981e-05
1.08002e-05
1.08984e-05
1.09928e-05
1.10837e-05
1.11713e-05
1.12558e-05
1.13374e-05
1.14164e-05
1.1493e-05
1.15674e-05
1.164e-05
1.17108e-05
1.17797e-05
1.18462e-05
1.19121e-05
1.19907e-05
1.21186e-05
1.23335e-05
1.25709e-05
1.26049e-05
1.23654e-05
1.18355e-05
1.14898e-05
1.17308e-05
1.29661e-05
1.30373e-05
1.18362e-05
1.14939e-05
1.15846e-05
1.16608e-05
1.16807e-05
1.16719e-05
1.16023e-05
1.14906e-05
1.17715e-05
1.29893e-05
1.30954e-05
1.18335e-05
1.13836e-05
1.13897e-05
7.40178e-06
9.71827e-06
9.85867e-06
9.99366e-06
1.01234e-05
1.02481e-05
1.03679e-05
1.0483e-05
1.05936e-05
1.06998e-05
1.0802e-05
1.09002e-05
1.09946e-05
1.10856e-05
1.11732e-05
1.12578e-05
1.13395e-05
1.14187e-05
1.14955e-05
1.15702e-05
1.16433e-05
1.17148e-05
1.17848e-05
1.18531e-05
1.19221e-05
1.20046e-05
1.21318e-05
1.23313e-05
1.25446e-05
1.25828e-05
1.23841e-05
1.1874e-05
1.15315e-05
1.17621e-05
1.28584e-05
1.29346e-05
1.18616e-05
1.15113e-05
1.15909e-05
1.16688e-05
1.16918e-05
1.16872e-05
1.16253e-05
1.15293e-05
1.18062e-05
1.28817e-05
1.29937e-05
1.18634e-05
1.13977e-05
1.13871e-05
7.4053e-06
9.72048e-06
9.86086e-06
9.99584e-06
1.01256e-05
1.02503e-05
1.03701e-05
1.04852e-05
1.05957e-05
1.0702e-05
1.08041e-05
1.09024e-05
1.09969e-05
1.10879e-05
1.11756e-05
1.12602e-05
1.13421e-05
1.14214e-05
1.14984e-05
1.15735e-05
1.1647e-05
1.17192e-05
1.17902e-05
1.18602e-05
1.19319e-05
1.20174e-05
1.21431e-05
1.23293e-05
1.25231e-05
1.25644e-05
1.23991e-05
1.19097e-05
1.15727e-05
1.17913e-05
1.27667e-05
1.28458e-05
1.18834e-05
1.15265e-05
1.15944e-05
1.16738e-05
1.17008e-05
1.17005e-05
1.16475e-05
1.15678e-05
1.1838e-05
1.27893e-05
1.29053e-05
1.18897e-05
1.14102e-05
1.13817e-05
7.40946e-06
9.72309e-06
9.86344e-06
9.9984e-06
1.01281e-05
1.02528e-05
1.03726e-05
1.04877e-05
1.05983e-05
1.07045e-05
1.08067e-05
1.09049e-05
1.09995e-05
1.10905e-05
1.11783e-05
1.1263e-05
1.1345e-05
1.14245e-05
1.15018e-05
1.15772e-05
1.16512e-05
1.1724e-05
1.17958e-05
1.18672e-05
1.19412e-05
1.20289e-05
1.21528e-05
1.23274e-05
1.25051e-05
1.25484e-05
1.24105e-05
1.19419e-05
1.1613e-05
1.18196e-05
1.2689e-05
1.27685e-05
1.19024e-05
1.15396e-05
1.15946e-05
1.16759e-05
1.17073e-05
1.17115e-05
1.16682e-05
1.16063e-05
1.1869e-05
1.27106e-05
1.28281e-05
1.19127e-05
1.14213e-05
1.13733e-05
7.41422e-06
9.72607e-06
9.8664e-06
1.00013e-05
1.0131e-05
1.02557e-05
1.03755e-05
1.04905e-05
1.06011e-05
1.07074e-05
1.08095e-05
1.09078e-05
1.10024e-05
1.10935e-05
1.11813e-05
1.12662e-05
1.13483e-05
1.1428e-05
1.15055e-05
1.15812e-05
1.16555e-05
1.17289e-05
1.18015e-05
1.18742e-05
1.19501e-05
1.20393e-05
1.21611e-05
1.23258e-05
1.24901e-05
1.25343e-05
1.24184e-05
1.19702e-05
1.16523e-05
1.18476e-05
1.26238e-05
1.27017e-05
1.19195e-05
1.15509e-05
1.15916e-05
1.16751e-05
1.17113e-05
1.17202e-05
1.1687e-05
1.16444e-05
1.19e-05
1.26441e-05
1.27608e-05
1.19329e-05
1.14302e-05
1.1362e-05
7.41958e-06
9.72942e-06
9.86971e-06
1.00046e-05
1.01343e-05
1.02589e-05
1.03787e-05
1.04937e-05
1.06043e-05
1.07105e-05
1.08127e-05
1.0911e-05
1.10056e-05
1.10967e-05
1.11846e-05
1.12696e-05
1.13518e-05
1.14316e-05
1.15094e-05
1.15854e-05
1.166e-05
1.17338e-05
1.18072e-05
1.18809e-05
1.19583e-05
1.20488e-05
1.21684e-05
1.23244e-05
1.24775e-05
1.25216e-05
1.24233e-05
1.19947e-05
1.16902e-05
1.18757e-05
1.257e-05
1.2645e-05
1.19356e-05
1.15614e-05
1.15863e-05
1.16718e-05
1.17129e-05
1.17266e-05
1.17038e-05
1.16818e-05
1.19314e-05
1.25885e-05
1.27017e-05
1.19518e-05
1.14387e-05
1.13486e-05
7.42554e-06
9.73314e-06
9.87339e-06
1.00082e-05
1.01379e-05
1.02625e-05
1.03822e-05
1.04972e-05
1.06078e-05
1.0714e-05
1.08162e-05
1.09144e-05
1.10091e-05
1.11002e-05
1.11882e-05
1.12732e-05
1.13556e-05
1.14355e-05
1.15134e-05
1.15897e-05
1.16646e-05
1.17388e-05
1.18128e-05
1.18874e-05
1.1966e-05
1.20572e-05
1.21747e-05
1.23232e-05
1.24665e-05
1.25098e-05
1.24257e-05
1.20166e-05
1.17272e-05
1.1904e-05
1.25259e-05
1.25972e-05
1.19514e-05
1.15718e-05
1.15797e-05
1.16664e-05
1.17124e-05
1.17311e-05
1.17194e-05
1.17189e-05
1.19637e-05
1.25427e-05
1.265e-05
1.197e-05
1.14476e-05
1.13342e-05
7.43209e-06
9.73722e-06
9.87742e-06
1.00122e-05
1.01418e-05
1.02663e-05
1.0386e-05
1.0501e-05
1.06115e-05
1.07177e-05
1.08199e-05
1.09182e-05
1.10128e-05
1.1104e-05
1.1192e-05
1.1277e-05
1.13595e-05
1.14395e-05
1.15176e-05
1.1594e-05
1.16693e-05
1.17438e-05
1.18182e-05
1.18936e-05
1.19732e-05
1.20648e-05
1.218e-05
1.23219e-05
1.24569e-05
1.24985e-05
1.2426e-05
1.20365e-05
1.17636e-05
1.19325e-05
1.24901e-05
1.25568e-05
1.19668e-05
1.15827e-05
1.15729e-05
1.16593e-05
1.17099e-05
1.17339e-05
1.17346e-05
1.17566e-05
1.19974e-05
1.25055e-05
1.26014e-05
1.19847e-05
1.14569e-05
1.13198e-05
7.43919e-06
9.74164e-06
9.88178e-06
1.00165e-05
1.0146e-05
1.02705e-05
1.03901e-05
1.05051e-05
1.06155e-05
1.07217e-05
1.08238e-05
1.09221e-05
1.10167e-05
1.11079e-05
1.11959e-05
1.1281e-05
1.13635e-05
1.14437e-05
1.15218e-05
1.15984e-05
1.16739e-05
1.17487e-05
1.18235e-05
1.18995e-05
1.19798e-05
1.20715e-05
1.21845e-05
1.23206e-05
1.2448e-05
1.24876e-05
1.24247e-05
1.20551e-05
1.17997e-05
1.19609e-05
1.24609e-05
1.25218e-05
1.1981e-05
1.15942e-05
1.15667e-05
1.1651e-05
1.17056e-05
1.17355e-05
1.17503e-05
1.17958e-05
1.20337e-05
1.24773e-05
1.25561e-05
1.19948e-05
1.14662e-05
1.13062e-05
7.4468e-06
9.74636e-06
9.88644e-06
1.00211e-05
1.01505e-05
1.02749e-05
1.03945e-05
1.05094e-05
1.06198e-05
1.07259e-05
1.0828e-05
1.09262e-05
1.10208e-05
1.1112e-05
1.12e-05
1.12851e-05
1.13676e-05
1.14479e-05
1.15261e-05
1.16028e-05
1.16784e-05
1.17534e-05
1.18285e-05
1.1905e-05
1.19858e-05
1.20774e-05
1.21883e-05
1.23191e-05
1.24396e-05
1.24767e-05
1.24222e-05
1.2073e-05
1.18361e-05
1.19893e-05
1.24369e-05
1.24903e-05
1.19927e-05
1.16059e-05
1.15612e-05
1.16417e-05
1.16995e-05
1.1736e-05
1.17672e-05
1.18375e-05
1.20736e-05
1.24584e-05
1.25143e-05
1.19992e-05
1.14751e-05
1.12943e-05
7.45486e-06
9.75136e-06
9.89137e-06
1.0026e-05
1.01553e-05
1.02796e-05
1.03991e-05
1.05139e-05
1.06242e-05
1.07303e-05
1.08323e-05
1.09305e-05
1.1025e-05
1.11162e-05
1.12042e-05
1.12893e-05
1.13718e-05
1.14521e-05
1.15304e-05
1.16071e-05
1.16828e-05
1.1758e-05
1.18333e-05
1.19101e-05
1.19912e-05
1.20826e-05
1.21915e-05
1.23174e-05
1.24316e-05
1.24659e-05
1.2419e-05
1.20909e-05
1.18733e-05
1.20185e-05
1.24177e-05
1.24608e-05
1.20009e-05
1.16173e-05
1.15566e-05
1.16315e-05
1.16915e-05
1.17355e-05
1.17853e-05
1.1882e-05
1.2118e-05
1.24495e-05
1.24772e-05
1.19982e-05
1.1483e-05
1.12844e-05
7.46332e-06
9.75659e-06
9.89652e-06
1.0031e-05
1.01603e-05
1.02845e-05
1.04039e-05
1.05186e-05
1.06289e-05
1.07348e-05
1.08368e-05
1.09349e-05
1.10294e-05
1.11205e-05
1.12084e-05
1.12935e-05
1.1376e-05
1.14563e-05
1.15346e-05
1.16114e-05
1.16872e-05
1.17624e-05
1.18379e-05
1.19149e-05
1.19962e-05
1.20871e-05
1.2194e-05
1.23155e-05
1.24237e-05
1.24552e-05
1.24157e-05
1.21092e-05
1.19115e-05
1.2049e-05
1.24032e-05
1.2433e-05
1.20049e-05
1.16273e-05
1.15525e-05
1.16205e-05
1.16817e-05
1.17338e-05
1.18043e-05
1.19291e-05
1.21671e-05
1.24509e-05
1.24462e-05
1.19929e-05
1.14896e-05
1.12771e-05
7.47211e-06
9.76202e-06
9.90187e-06
1.00363e-05
1.01655e-05
1.02896e-05
1.04089e-05
1.05235e-05
1.06336e-05
1.07395e-05
1.08414e-05
1.09394e-05
1.10338e-05
1.11248e-05
1.12127e-05
1.12978e-05
1.13802e-05
1.14604e-05
1.15387e-05
1.16155e-05
1.16913e-05
1.17666e-05
1.18422e-05
1.19193e-05
1.20007e-05
1.20911e-05
1.21961e-05
1.23135e-05
1.24161e-05
1.24447e-05
1.24126e-05
1.21284e-05
1.19511e-05
1.20817e-05
1.23939e-05
1.24074e-05
1.20055e-05
1.16359e-05
1.15489e-05
1.16088e-05
1.16701e-05
1.17306e-05
1.18235e-05
1.19776e-05
1.222e-05
1.24622e-05
1.24226e-05
1.19851e-05
1.14951e-05
1.12725e-05
7.4812e-06
9.76762e-06
9.90738e-06
1.00417e-05
1.01708e-05
1.02948e-05
1.04139e-05
1.05284e-05
1.06385e-05
1.07443e-05
1.0846e-05
1.09439e-05
1.10383e-05
1.11292e-05
1.1217e-05
1.1302e-05
1.13844e-05
1.14645e-05
1.15428e-05
1.16195e-05
1.16953e-05
1.17706e-05
1.18462e-05
1.19234e-05
1.20047e-05
1.20946e-05
1.21978e-05
1.23113e-05
1.24086e-05
1.24346e-05
1.24098e-05
1.21484e-05
1.19923e-05
1.21171e-05
1.23902e-05
1.23848e-05
1.20036e-05
1.16432e-05
1.15457e-05
1.15964e-05
1.16566e-05
1.17258e-05
1.18419e-05
1.20261e-05
1.22755e-05
1.24823e-05
1.24072e-05
1.19771e-05
1.15001e-05
1.12709e-05
7.49054e-06
9.77336e-06
9.91303e-06
1.00472e-05
1.01762e-05
1.03001e-05
1.04191e-05
1.05335e-05
1.06434e-05
1.07491e-05
1.08507e-05
1.09485e-05
1.10427e-05
1.11336e-05
1.12213e-05
1.13061e-05
1.13885e-05
1.14685e-05
1.15467e-05
1.16234e-05
1.16991e-05
1.17743e-05
1.18499e-05
1.19271e-05
1.20083e-05
1.20976e-05
1.21991e-05
1.2309e-05
1.24013e-05
1.24248e-05
1.24075e-05
1.21692e-05
1.20348e-05
1.21551e-05
1.23923e-05
1.23664e-05
1.20008e-05
1.16496e-05
1.1543e-05
1.15836e-05
1.16414e-05
1.17189e-05
1.18583e-05
1.20726e-05
1.23314e-05
1.2509e-05
1.23997e-05
1.19703e-05
1.15051e-05
1.12721e-05
7.50009e-06
9.77922e-06
9.91878e-06
1.00529e-05
1.01817e-05
1.03055e-05
1.04244e-05
1.05386e-05
1.06484e-05
1.0754e-05
1.08555e-05
1.09531e-05
1.10472e-05
1.11379e-05
1.12255e-05
1.13102e-05
1.13924e-05
1.14724e-05
1.15504e-05
1.1627e-05
1.17026e-05
1.17778e-05
1.18533e-05
1.19304e-05
1.20114e-05
1.21001e-05
1.21999e-05
1.23064e-05
1.2394e-05
1.24152e-05
1.24055e-05
1.21903e-05
1.20778e-05
1.21949e-05
1.23995e-05
1.23531e-05
1.19985e-05
1.16558e-05
1.15409e-05
1.15707e-05
1.1625e-05
1.17098e-05
1.18715e-05
1.2115e-05
1.23851e-05
1.25396e-05
1.23988e-05
1.1966e-05
1.15108e-05
1.12762e-05
7.50981e-06
9.78516e-06
9.92462e-06
1.00586e-05
1.01873e-05
1.03109e-05
1.04297e-05
1.05438e-05
1.06534e-05
1.07588e-05
1.08602e-05
1.09577e-05
1.10516e-05
1.11422e-05
1.12296e-05
1.13142e-05
1.13963e-05
1.14761e-05
1.1554e-05
1.16305e-05
1.17059e-05
1.1781e-05
1.18563e-05
1.19333e-05
1.2014e-05
1.21021e-05
1.22002e-05
1.23033e-05
1.23864e-05
1.24058e-05
1.24037e-05
1.22113e-05
1.21203e-05
1.22351e-05
1.24108e-05
1.2345e-05
1.19983e-05
1.16626e-05
1.15396e-05
1.15581e-05
1.16077e-05
1.16985e-05
1.18804e-05
1.21514e-05
1.24341e-05
1.25711e-05
1.24028e-05
1.19642e-05
1.15175e-05
1.12827e-05
7.51967e-06
9.79118e-06
9.93052e-06
1.00643e-05
1.01929e-05
1.03164e-05
1.0435e-05
1.05489e-05
1.06584e-05
1.07637e-05
1.08649e-05
1.09622e-05
1.1056e-05
1.11464e-05
1.12337e-05
1.13181e-05
1.14e-05
1.14797e-05
1.15574e-05
1.16337e-05
1.1709e-05
1.17838e-05
1.1859e-05
1.19357e-05
1.20161e-05
1.21034e-05
1.21998e-05
1.22997e-05
1.23784e-05
1.23963e-05
1.24022e-05
1.22317e-05
1.21611e-05
1.2274e-05
1.24245e-05
1.23418e-05
1.20007e-05
1.16705e-05
1.15395e-05
1.15463e-05
1.15901e-05
1.16852e-05
1.18846e-05
1.21802e-05
1.2476e-05
1.26006e-05
1.24096e-05
1.19647e-05
1.15252e-05
1.12913e-05
7.52961e-06
9.79724e-06
9.93646e-06
1.00701e-05
1.01985e-05
1.03219e-05
1.04403e-05
1.05541e-05
1.06634e-05
1.07685e-05
1.08695e-05
1.09667e-05
1.10603e-05
1.11505e-05
1.12376e-05
1.13219e-05
1.14036e-05
1.1483e-05
1.15606e-05
1.16367e-05
1.17117e-05
1.17863e-05
1.18612e-05
1.19376e-05
1.20176e-05
1.2104e-05
1.21986e-05
1.22953e-05
1.237e-05
1.2387e-05
1.24011e-05
1.22515e-05
1.21994e-05
1.23099e-05
1.24385e-05
1.23423e-05
1.20061e-05
1.16798e-05
1.15407e-05
1.15356e-05
1.15728e-05
1.16703e-05
1.18838e-05
1.22005e-05
1.25089e-05
1.26255e-05
1.24168e-05
1.19667e-05
1.15334e-05
1.13013e-05
7.53959e-06
9.80331e-06
9.9424e-06
1.00759e-05
1.02042e-05
1.03274e-05
1.04456e-05
1.05593e-05
1.06684e-05
1.07733e-05
1.08741e-05
1.09711e-05
1.10645e-05
1.11545e-05
1.12414e-05
1.13255e-05
1.1407e-05
1.14862e-05
1.15635e-05
1.16393e-05
1.17141e-05
1.17884e-05
1.1863e-05
1.1939e-05
1.20184e-05
1.21039e-05
1.21966e-05
1.229e-05
1.23612e-05
1.2378e-05
1.24007e-05
1.22706e-05
1.22347e-05
1.2342e-05
1.24516e-05
1.23451e-05
1.2014e-05
1.16906e-05
1.15432e-05
1.15264e-05
1.15566e-05
1.16547e-05
1.18786e-05
1.22121e-05
1.25317e-05
1.26438e-05
1.24228e-05
1.19691e-05
1.15418e-05
1.1312e-05
7.54954e-06
9.80936e-06
9.94832e-06
1.00817e-05
1.02098e-05
1.03328e-05
1.04509e-05
1.05643e-05
1.06733e-05
1.0778e-05
1.08786e-05
1.09754e-05
1.10686e-05
1.11584e-05
1.12451e-05
1.13289e-05
1.14101e-05
1.14891e-05
1.15662e-05
1.16417e-05
1.17162e-05
1.17901e-05
1.18643e-05
1.19399e-05
1.20186e-05
1.21029e-05
1.21937e-05
1.22839e-05
1.2352e-05
1.23693e-05
1.24013e-05
1.22895e-05
1.22671e-05
1.237e-05
1.24628e-05
1.23491e-05
1.20237e-05
1.17025e-05
1.15468e-05
1.15189e-05
1.15421e-05
1.16391e-05
1.18697e-05
1.22157e-05
1.25442e-05
1.26543e-05
1.24259e-05
1.19712e-05
1.15498e-05
1.13227e-05
7.55942e-06
9.81535e-06
9.95419e-06
1.00874e-05
1.02153e-05
1.03382e-05
1.04561e-05
1.05693e-05
1.06781e-05
1.07826e-05
1.0883e-05
1.09796e-05
1.10726e-05
1.11621e-05
1.12486e-05
1.13321e-05
1.14131e-05
1.14918e-05
1.15685e-05
1.16437e-05
1.17178e-05
1.17914e-05
1.18651e-05
1.19401e-05
1.20181e-05
1.21012e-05
1.21899e-05
1.22771e-05
1.23425e-05
1.23612e-05
1.24029e-05
1.23084e-05
1.22971e-05
1.23942e-05
1.24718e-05
1.23531e-05
1.20344e-05
1.17153e-05
1.15516e-05
1.15133e-05
1.15298e-05
1.16245e-05
1.18584e-05
1.22123e-05
1.25471e-05
1.26568e-05
1.24252e-05
1.19722e-05
1.15568e-05
1.1333e-05
7.56914e-06
9.82124e-06
9.95995e-06
1.0093e-05
1.02208e-05
1.03434e-05
1.04612e-05
1.05742e-05
1.06828e-05
1.07871e-05
1.08873e-05
1.09836e-05
1.10763e-05
1.11657e-05
1.12519e-05
1.13351e-05
1.14158e-05
1.14942e-05
1.15706e-05
1.16454e-05
1.17191e-05
1.17922e-05
1.18654e-05
1.19398e-05
1.20169e-05
1.20987e-05
1.21852e-05
1.22695e-05
1.23327e-05
1.23537e-05
1.24057e-05
1.23274e-05
1.23254e-05
1.24158e-05
1.24792e-05
1.23569e-05
1.20454e-05
1.17286e-05
1.15573e-05
1.15096e-05
1.15201e-05
1.16119e-05
1.18462e-05
1.22039e-05
1.25418e-05
1.26516e-05
1.24204e-05
1.19715e-05
1.15626e-05
1.13423e-05
7.57865e-06
9.82699e-06
9.96558e-06
1.00985e-05
1.02261e-05
1.03486e-05
1.04661e-05
1.0579e-05
1.06873e-05
1.07914e-05
1.08914e-05
1.09875e-05
1.108e-05
1.1169e-05
1.12549e-05
1.13379e-05
1.14183e-05
1.14963e-05
1.15724e-05
1.16468e-05
1.172e-05
1.17926e-05
1.18653e-05
1.19389e-05
1.20151e-05
1.20955e-05
1.21798e-05
1.22613e-05
1.23229e-05
1.23466e-05
1.24094e-05
1.23468e-05
1.23528e-05
1.24362e-05
1.24859e-05
1.23605e-05
1.20564e-05
1.17422e-05
1.15639e-05
1.15077e-05
1.15131e-05
1.16018e-05
1.18345e-05
1.21923e-05
1.25302e-05
1.26399e-05
1.24114e-05
1.19689e-05
1.15671e-05
1.13505e-05
7.58789e-06
9.83258e-06
9.97104e-06
1.01038e-05
1.02313e-05
1.03535e-05
1.04709e-05
1.05835e-05
1.06917e-05
1.07955e-05
1.08953e-05
1.09911e-05
1.10834e-05
1.11721e-05
1.12578e-05
1.13404e-05
1.14205e-05
1.14982e-05
1.15738e-05
1.16478e-05
1.17206e-05
1.17926e-05
1.18646e-05
1.19376e-05
1.20127e-05
1.20916e-05
1.21737e-05
1.22526e-05
1.23128e-05
1.23399e-05
1.24136e-05
1.23661e-05
1.23797e-05
1.24563e-05
1.24933e-05
1.23644e-05
1.20673e-05
1.1756e-05
1.15714e-05
1.15077e-05
1.15089e-05
1.15947e-05
1.18245e-05
1.21795e-05
1.25144e-05
1.2623e-05
1.23987e-05
1.19643e-05
1.157e-05
1.13576e-05
7.59683e-06
9.83797e-06
9.97631e-06
1.0109e-05
1.02362e-05
1.03583e-05
1.04755e-05
1.05879e-05
1.06959e-05
1.07995e-05
1.0899e-05
1.09946e-05
1.10865e-05
1.11751e-05
1.12604e-05
1.13427e-05
1.14224e-05
1.14998e-05
1.1575e-05
1.16486e-05
1.17208e-05
1.17923e-05
1.18636e-05
1.19357e-05
1.20099e-05
1.20873e-05
1.21672e-05
1.22435e-05
1.23028e-05
1.23333e-05
1.2418e-05
1.23852e-05
1.24063e-05
1.24771e-05
1.25023e-05
1.23696e-05
1.20785e-05
1.17701e-05
1.15799e-05
1.15094e-05
1.15073e-05
1.15908e-05
1.18171e-05
1.21672e-05
1.24964e-05
1.26024e-05
1.23829e-05
1.19579e-05
1.15715e-05
1.13634e-05
7.60543e-06
9.84315e-06
9.98137e-06
1.01139e-05
1.0241e-05
1.03629e-05
1.04799e-05
1.05921e-05
1.06998e-05
1.08032e-05
1.09025e-05
1.09979e-05
1.10895e-05
1.11778e-05
1.12628e-05
1.13448e-05
1.14241e-05
1.15011e-05
1.15759e-05
1.1649e-05
1.17207e-05
1.17916e-05
1.18623e-05
1.19336e-05
1.20067e-05
1.20825e-05
1.21602e-05
1.22342e-05
1.22927e-05
1.23269e-05
1.24223e-05
1.24037e-05
1.24324e-05
1.24988e-05
1.25135e-05
1.23767e-05
1.20904e-05
1.17848e-05
1.15895e-05
1.15128e-05
1.1508e-05
1.159e-05
1.18129e-05
1.21569e-05
1.24781e-05
1.25796e-05
1.23645e-05
1.19495e-05
1.15716e-05
1.13683e-05
7.61367e-06
9.84811e-06
9.98621e-06
1.01186e-05
1.02455e-05
1.03673e-05
1.04841e-05
1.05961e-05
1.07036e-05
1.08068e-05
1.09058e-05
1.10009e-05
1.10923e-05
1.11802e-05
1.12649e-05
1.13467e-05
1.14256e-05
1.15022e-05
1.15766e-05
1.16492e-05
1.17204e-05
1.17907e-05
1.18607e-05
1.19312e-05
1.20031e-05
1.20774e-05
1.21531e-05
1.22249e-05
1.22828e-05
1.23205e-05
1.24262e-05
1.2421e-05
1.24576e-05
1.25211e-05
1.25271e-05
1.23862e-05
1.21036e-05
1.18003e-05
1.16004e-05
1.15177e-05
1.15108e-05
1.15922e-05
1.18124e-05
1.21494e-05
1.24608e-05
1.25558e-05
1.23441e-05
1.19393e-05
1.15704e-05
1.13722e-05
7.62154e-06
9.85284e-06
9.99083e-06
1.01231e-05
1.02499e-05
1.03714e-05
1.04881e-05
1.05999e-05
1.07072e-05
1.08101e-05
1.09089e-05
1.10038e-05
1.10949e-05
1.11825e-05
1.12669e-05
1.13483e-05
1.14269e-05
1.15031e-05
1.15771e-05
1.16492e-05
1.17199e-05
1.17896e-05
1.18589e-05
1.19286e-05
1.19995e-05
1.20723e-05
1.2146e-05
1.22158e-05
1.22732e-05
1.23143e-05
1.24297e-05
1.24371e-05
1.24814e-05
1.25435e-05
1.25425e-05
1.23982e-05
1.21183e-05
1.18169e-05
1.16125e-05
1.15241e-05
1.15153e-05
1.15971e-05
1.18154e-05
1.21455e-05
1.24456e-05
1.2532e-05
1.23221e-05
1.19274e-05
1.15679e-05
1.13753e-05
7.62906e-06
9.85736e-06
9.99524e-06
1.01273e-05
1.0254e-05
1.03754e-05
1.04918e-05
1.06035e-05
1.07106e-05
1.08133e-05
1.09118e-05
1.10064e-05
1.10973e-05
1.11847e-05
1.12688e-05
1.13498e-05
1.14281e-05
1.15038e-05
1.15774e-05
1.16491e-05
1.17193e-05
1.17884e-05
1.1857e-05
1.19259e-05
1.19958e-05
1.20672e-05
1.2139e-05
1.2207e-05
1.22641e-05
1.23084e-05
1.24329e-05
1.24516e-05
1.25033e-05
1.2565e-05
1.25591e-05
1.24122e-05
1.21346e-05
1.18346e-05
1.16258e-05
1.15318e-05
1.15213e-05
1.16044e-05
1.1822e-05
1.21454e-05
1.24329e-05
1.25086e-05
1.22987e-05
1.19138e-05
1.15642e-05
1.13778e-05
7.63623e-06
9.86167e-06
9.99944e-06
1.01314e-05
1.02579e-05
1.03792e-05
1.04954e-05
1.06069e-05
1.07138e-05
1.08163e-05
1.09146e-05
1.1009e-05
1.10996e-05
1.11867e-05
1.12704e-05
1.13512e-05
1.14291e-05
1.15045e-05
1.15776e-05
1.16489e-05
1.17186e-05
1.17872e-05
1.18552e-05
1.19232e-05
1.19921e-05
1.20622e-05
1.21324e-05
1.21988e-05
1.22558e-05
1.23031e-05
1.24359e-05
1.24645e-05
1.2523e-05
1.2585e-05
1.25758e-05
1.24275e-05
1.21521e-05
1.18531e-05
1.16402e-05
1.15406e-05
1.15286e-05
1.16138e-05
1.1832e-05
1.21491e-05
1.24232e-05
1.2486e-05
1.22744e-05
1.18984e-05
1.15592e-05
1.13798e-05
7.64307e-06
9.86578e-06
1.00035e-05
1.01353e-05
1.02617e-05
1.03828e-05
1.04989e-05
1.06102e-05
1.07168e-05
1.08191e-05
1.09172e-05
1.10114e-05
1.11017e-05
1.11885e-05
1.1272e-05
1.13524e-05
1.143e-05
1.15051e-05
1.15778e-05
1.16486e-05
1.17179e-05
1.17859e-05
1.18533e-05
1.19207e-05
1.19887e-05
1.20575e-05
1.21262e-05
1.21914e-05
1.22484e-05
1.22986e-05
1.24388e-05
1.2476e-05
1.25401e-05
1.26028e-05
1.25916e-05
1.2443e-05
1.21702e-05
1.18722e-05
1.16553e-05
1.15501e-05
1.15368e-05
1.16252e-05
1.18452e-05
1.21565e-05
1.24163e-05
1.24646e-05
1.22492e-05
1.18816e-05
1.15532e-05
1.13813e-05
7.64962e-06
9.86972e-06
1.00073e-05
1.0139e-05
1.02653e-05
1.03862e-05
1.05022e-05
1.06133e-05
1.07198e-05
1.08219e-05
1.09197e-05
1.10136e-05
1.11037e-05
1.11903e-05
1.12735e-05
1.13536e-05
1.14309e-05
1.15056e-05
1.1578e-05
1.16484e-05
1.17172e-05
1.17848e-05
1.18516e-05
1.19183e-05
1.19855e-05
1.20532e-05
1.21206e-05
1.21848e-05
1.2242e-05
1.22949e-05
1.24417e-05
1.24861e-05
1.25548e-05
1.2618e-05
1.26058e-05
1.2458e-05
1.21881e-05
1.18913e-05
1.16707e-05
1.15602e-05
1.15459e-05
1.16383e-05
1.18614e-05
1.21675e-05
1.24123e-05
1.24443e-05
1.22235e-05
1.18634e-05
1.15462e-05
1.13827e-05
7.65591e-06
9.8735e-06
1.0011e-05
1.01426e-05
1.02687e-05
1.03895e-05
1.05053e-05
1.06163e-05
1.07226e-05
1.08245e-05
1.09222e-05
1.10158e-05
1.11057e-05
1.1192e-05
1.1275e-05
1.13548e-05
1.14318e-05
1.15062e-05
1.15782e-05
1.16483e-05
1.17166e-05
1.17838e-05
1.18501e-05
1.19162e-05
1.19826e-05
1.20494e-05
1.21157e-05
1.21791e-05
1.22367e-05
1.22922e-05
1.24447e-05
1.24949e-05
1.2567e-05
1.26305e-05
1.26179e-05
1.24718e-05
1.22053e-05
1.19099e-05
1.16859e-05
1.15705e-05
1.15558e-05
1.16532e-05
1.18805e-05
1.21817e-05
1.24109e-05
1.24253e-05
1.21977e-05
1.18445e-05
1.15387e-05
1.13841e-05
7.66196e-06
9.87714e-06
1.00146e-05
1.01461e-05
1.02721e-05
1.03928e-05
1.05084e-05
1.06192e-05
1.07253e-05
1.0827e-05
1.09245e-05
1.1018e-05
1.11076e-05
1.11937e-05
1.12764e-05
1.1356e-05
1.14327e-05
1.15068e-05
1.15785e-05
1.16482e-05
1.17162e-05
1.17829e-05
1.18488e-05
1.19144e-05
1.19801e-05
1.20461e-05
1.21115e-05
1.21744e-05
1.22326e-05
1.22904e-05
1.24478e-05
1.25026e-05
1.25769e-05
1.26403e-05
1.26276e-05
1.24838e-05
1.22212e-05
1.19275e-05
1.17005e-05
1.15807e-05
1.15662e-05
1.16697e-05
1.19022e-05
1.21989e-05
1.24118e-05
1.24076e-05
1.21723e-05
1.18254e-05
1.15312e-05
1.1386e-05
7.66781e-06
9.88066e-06
1.0018e-05
1.01494e-05
1.02753e-05
1.03959e-05
1.05114e-05
1.0622e-05
1.0728e-05
1.08295e-05
1.09268e-05
1.10201e-05
1.11095e-05
1.11954e-05
1.12779e-05
1.13572e-05
1.14336e-05
1.15074e-05
1.15789e-05
1.16483e-05
1.17159e-05
1.17823e-05
1.18478e-05
1.19129e-05
1.19781e-05
1.20434e-05
1.21081e-05
1.21706e-05
1.22295e-05
1.22895e-05
1.24511e-05
1.25093e-05
1.25849e-05
1.26477e-05
1.2635e-05
1.24939e-05
1.22355e-05
1.19437e-05
1.17143e-05
1.15907e-05
1.15773e-05
1.16877e-05
1.19263e-05
1.22185e-05
1.24148e-05
1.23915e-05
1.21478e-05
1.18068e-05
1.15243e-05
1.13888e-05
7.67348e-06
9.88408e-06
1.00214e-05
1.01527e-05
1.02785e-05
1.03989e-05
1.05143e-05
1.06247e-05
1.07306e-05
1.0832e-05
1.09291e-05
1.10222e-05
1.11114e-05
1.11971e-05
1.12793e-05
1.13584e-05
1.14346e-05
1.15082e-05
1.15793e-05
1.16485e-05
1.17158e-05
1.17819e-05
1.1847e-05
1.19118e-05
1.19765e-05
1.20412e-05
1.21054e-05
1.21678e-05
1.22275e-05
1.22894e-05
1.24545e-05
1.25151e-05
1.25911e-05
1.26529e-05
1.26403e-05
1.25021e-05
1.22481e-05
1.19584e-05
1.17268e-05
1.16002e-05
1.15889e-05
1.17073e-05
1.19524e-05
1.22402e-05
1.24195e-05
1.23769e-05
1.21249e-05
1.17894e-05
1.15184e-05
1.13929e-05
7.679e-06
9.88741e-06
1.00246e-05
1.01559e-05
1.02815e-05
1.04019e-05
1.05171e-05
1.06275e-05
1.07331e-05
1.08344e-05
1.09313e-05
1.10242e-05
1.11133e-05
1.11988e-05
1.12808e-05
1.13597e-05
1.14357e-05
1.1509e-05
1.15799e-05
1.16488e-05
1.17159e-05
1.17817e-05
1.18466e-05
1.1911e-05
1.19753e-05
1.20396e-05
1.21035e-05
1.21659e-05
1.22263e-05
1.22899e-05
1.24579e-05
1.25202e-05
1.25958e-05
1.26562e-05
1.26436e-05
1.25085e-05
1.22589e-05
1.19714e-05
1.17381e-05
1.16093e-05
1.16009e-05
1.17281e-05
1.198e-05
1.22632e-05
1.24255e-05
1.23641e-05
1.21039e-05
1.17739e-05
1.15143e-05
1.13985e-05
7.68438e-06
9.89067e-06
1.00278e-05
1.0159e-05
1.02846e-05
1.04048e-05
1.05199e-05
1.06301e-05
1.07357e-05
1.08368e-05
1.09336e-05
1.10263e-05
1.11152e-05
1.12005e-05
1.12824e-05
1.13611e-05
1.14368e-05
1.151e-05
1.15807e-05
1.16493e-05
1.17163e-05
1.17818e-05
1.18464e-05
1.19105e-05
1.19745e-05
1.20385e-05
1.21022e-05
1.21647e-05
1.22259e-05
1.22911e-05
1.24613e-05
1.25246e-05
1.25993e-05
1.2658e-05
1.26453e-05
1.25133e-05
1.22682e-05
1.1983e-05
1.17482e-05
1.16178e-05
1.16133e-05
1.17497e-05
1.20084e-05
1.22868e-05
1.24324e-05
1.23531e-05
1.20853e-05
1.17606e-05
1.1512e-05
1.14059e-05
7.68966e-06
9.89387e-06
1.0031e-05
1.01621e-05
1.02875e-05
1.04077e-05
1.05227e-05
1.06328e-05
1.07382e-05
1.08392e-05
1.09358e-05
1.10284e-05
1.11172e-05
1.12023e-05
1.1284e-05
1.13625e-05
1.14381e-05
1.1511e-05
1.15816e-05
1.16501e-05
1.17168e-05
1.17822e-05
1.18466e-05
1.19105e-05
1.19742e-05
1.2038e-05
1.21015e-05
1.21642e-05
1.22261e-05
1.22927e-05
1.24647e-05
1.25283e-05
1.26017e-05
1.26584e-05
1.26456e-05
1.25167e-05
1.22762e-05
1.19931e-05
1.17571e-05
1.16259e-05
1.16257e-05
1.17717e-05
1.20368e-05
1.23101e-05
1.24398e-05
1.23437e-05
1.20691e-05
1.17498e-05
1.15119e-05
1.14151e-05
7.69488e-06
9.89704e-06
1.00341e-05
1.01651e-05
1.02905e-05
1.04105e-05
1.05254e-05
1.06354e-05
1.07407e-05
1.08416e-05
1.09381e-05
1.10306e-05
1.11192e-05
1.12041e-05
1.12857e-05
1.1364e-05
1.14395e-05
1.15123e-05
1.15827e-05
1.1651e-05
1.17176e-05
1.17828e-05
1.1847e-05
1.19108e-05
1.19744e-05
1.20379e-05
1.21014e-05
1.21643e-05
1.22269e-05
1.22946e-05
1.24679e-05
1.25316e-05
1.26033e-05
1.26578e-05
1.26448e-05
1.25189e-05
1.22829e-05
1.20021e-05
1.17651e-05
1.16333e-05
1.1638e-05
1.17932e-05
1.20642e-05
1.23322e-05
1.24469e-05
1.23357e-05
1.20553e-05
1.17414e-05
1.15137e-05
1.14258e-05
7.70008e-06
9.9002e-06
1.00372e-05
1.01682e-05
1.02935e-05
1.04134e-05
1.05282e-05
1.06381e-05
1.07433e-05
1.0844e-05
1.09404e-05
1.10328e-05
1.11212e-05
1.12061e-05
1.12875e-05
1.13657e-05
1.1441e-05
1.15137e-05
1.15839e-05
1.16521e-05
1.17186e-05
1.17837e-05
1.18478e-05
1.19114e-05
1.19749e-05
1.20384e-05
1.21018e-05
1.21649e-05
1.22282e-05
1.22968e-05
1.2471e-05
1.25343e-05
1.26041e-05
1.26563e-05
1.26429e-05
1.252e-05
1.22885e-05
1.201e-05
1.17722e-05
1.16402e-05
1.16497e-05
1.18137e-05
1.20895e-05
1.23519e-05
1.2453e-05
1.23286e-05
1.20435e-05
1.1735e-05
1.15172e-05
1.14376e-05
7.7053e-06
9.90338e-06
1.00403e-05
1.01712e-05
1.02965e-05
1.04163e-05
1.0531e-05
1.06408e-05
1.07459e-05
1.08465e-05
1.09428e-05
1.1035e-05
1.11234e-05
1.12081e-05
1.12894e-05
1.13675e-05
1.14427e-05
1.15152e-05
1.15854e-05
1.16535e-05
1.17198e-05
1.17848e-05
1.18489e-05
1.19124e-05
1.19758e-05
1.20392e-05
1.21026e-05
1.2166e-05
1.22298e-05
1.22991e-05
1.2474e-05
1.25366e-05
1.26043e-05
1.2654e-05
1.26401e-05
1.25202e-05
1.2293e-05
1.20169e-05
1.17785e-05
1.16465e-05
1.16606e-05
1.18322e-05
1.21117e-05
1.23687e-05
1.24579e-05
1.2322e-05
1.20333e-05
1.17302e-05
1.15216e-05
1.14501e-05
7.71064e-06
9.90663e-06
1.00435e-05
1.01744e-05
1.02995e-05
1.04193e-05
1.05339e-05
1.06436e-05
1.07486e-05
1.08491e-05
1.09453e-05
1.10374e-05
1.11257e-05
1.12102e-05
1.12914e-05