/*--------------------------------*- C++ -*----------------------------------*\
  =========                 |
  \\      /  F ield         | OpenFOAM: The Open Source CFD Toolbox
   \\    /   O peration     | Website:  https://openfoam.org
    \\  /    A nd           | Version:  9
     \\/     M anipulation  |
\*---------------------------------------------------------------------------*/
FoamFile
{
    format      ascii;
    class       volVectorField;
    location    "0.18";
    object      U;
}
// * * * * * * * * * * * * * * * * * * * * * * * * * * * * * * * * * * * * * //

dimensions      [0 1 -1 0 0 0 0];

internalField   nonuniform List<vector> 
5000
(
(7.214e-05 0 -0.00341116)
(9.63809e-05 0 -0.00927912)
(8.97792e-05 0 -0.0146225)
(9.05481e-05 0 -0.0200563)
(0.000100591 0 -0.0257798)
(0.000115344 0 -0.0319108)
(0.00013458 0 -0.0385278)
(0.000157875 0 -0.0456853)
(0.00018505 0 -0.0534186)
(0.000216226 0 -0.0617517)
(0.000251717 0 -0.0707054)
(0.000291992 0 -0.0803025)
(0.000337685 0 -0.0905712)
(0.000389637 0 -0.101548)
(0.000448947 0 -0.113279)
(0.000517028 0 -0.12582)
(0.00059566 0 -0.139235)
(0.000687082 0 -0.153589)
(0.000794188 0 -0.168933)
(0.000920988 0 -0.185288)
(0.00107369 0 -0.202563)
(0.00126545 0 -0.220283)
(0.00154415 0 -0.236781)
(0.00211764 0 -0.247956)
(0.00373068 0 -0.248779)
(0.00852019 0 -0.250273)
(0.0225176 0 -0.33431)
(0.0512922 0 -0.703133)
(0.0319193 0 -1.34661)
(-0.0465306 0 -1.19512)
(-0.023838 0 -0.185914)
(0.018926 0 0.557063)
(0.0302911 0 1.03265)
(0.0852042 0 0.902584)
(0.261104 0 -2.32231)
(-0.221942 0 -2.34421)
(-0.082619 0 0.92361)
(-0.0229475 0 1.13582)
(-0.0171001 0 0.855012)
(-0.00805787 0 0.703402)
(-0.00132938 0 0.649991)
(0.0055959 0 0.659818)
(0.0168827 0 0.777773)
(0.029026 0 1.0668)
(0.100291 0 0.940769)
(0.264691 0 -2.49707)
(-0.297447 0 -2.37513)
(-0.0716334 0 0.966411)
(-0.0161349 0 1.26171)
(-0.0107662 0 1.07599)
(0.000213553 0 -0.00342068)
(0.000274779 0 -0.00922402)
(0.000266386 0 -0.0145376)
(0.000272165 0 -0.0199932)
(0.000299004 0 -0.025735)
(0.000337629 0 -0.0318801)
(0.000388726 0 -0.0385074)
(0.000452278 0 -0.0456728)
(0.00052844 0 -0.0534132)
(0.000618037 0 -0.0617538)
(0.00072252 0 -0.070716)
(0.000843892 0 -0.0803228)
(0.000984814 0 -0.0906029)
(0.00114886 0 -0.101593)
(0.00134084 0 -0.11334)
(0.00156738 0 -0.1259)
(0.00183767 0 -0.139337)
(0.00216502 0 -0.153718)
(0.00256987 0 -0.169098)
(0.00308609 0 -0.1855)
(0.00377472 0 -0.202851)
(0.00475384 0 -0.220712)
(0.00628246 0 -0.23755)
(0.00901636 0 -0.249698)
(0.0145299 0 -0.253334)
(0.0263179 0 -0.262094)
(0.0531099 0 -0.358845)
(0.0955662 0 -0.720058)
(0.0558733 0 -1.27173)
(-0.0695733 0 -1.15364)
(-0.04251 0 -0.230946)
(0.045074 0 0.528818)
(0.0790434 0 1.0084)
(0.194811 0 0.783326)
(0.327048 0 -2.09492)
(-0.332593 0 -2.11972)
(-0.193848 0 0.794715)
(-0.0670885 0 1.11515)
(-0.0451669 0 0.846926)
(-0.0222137 0 0.695866)
(-0.00334096 0 0.643289)
(0.0162831 0 0.650901)
(0.0444691 0 0.764183)
(0.0770249 0 1.0362)
(0.225692 0 0.805687)
(0.342751 0 -2.1856)
(-0.380922 0 -2.18782)
(-0.17904 0 0.821553)
(-0.0483027 0 1.24062)
(-0.0286927 0 1.0681)
(0.000301431 0 -0.00349721)
(0.000353081 0 -0.00931327)
(0.00035738 0 -0.0146312)
(0.000379998 0 -0.0201148)
(0.000424827 0 -0.0258957)
(0.000486808 0 -0.0320789)
(0.000568125 0 -0.0387405)
(0.000669794 0 -0.0459371)
(0.000792781 0 -0.0537075)
(0.000939043 0 -0.0620785)
(0.00111153 0 -0.0710724)
(0.00131417 0 -0.0807136)
(0.00155214 0 -0.0910322)
(0.00183244 0 -0.102067)
(0.00216456 0 -0.113867)
(0.00256167 0 -0.126492)
(0.00304248 0 -0.140012)
(0.00363435 0 -0.154502)
(0.00437919 0 -0.170032)
(0.0053447 0 -0.186654)
(0.0066458 0 -0.204348)
(0.00848349 0 -0.222796)
(0.0112366 0 -0.240762)
(0.0157384 0 -0.255353)
(0.0238001 0 -0.264612)
(0.0391277 0 -0.285126)
(0.06975 0 -0.395778)
(0.109307 0 -0.73267)
(0.0630398 0 -1.18101)
(-0.0646435 0 -1.09289)
(-0.0457942 0 -0.286048)
(0.0597473 0 0.47947)
(0.105285 0 0.961564)
(0.252094 0 0.644615)
(0.302083 0 -1.8741)
(-0.337024 0 -1.89739)
(-0.248759 0 0.653951)
(-0.0932214 0 1.06802)
(-0.0628933 0 0.825151)
(-0.0319116 0 0.678476)
(-0.00462199 0 0.627895)
(0.0237898 0 0.631908)
(0.061002 0 0.736783)
(0.100503 0 0.978959)
(0.285024 0 0.642628)
(0.329935 0 -1.92755)
(-0.342056 0 -1.97788)
(-0.235223 0 0.661296)
(-0.0628251 0 1.19277)
(-0.0386247 0 1.05018)
(0.00028522 0 -0.00352918)
(0.000323006 0 -0.00937403)
(0.000332151 0 -0.0147114)
(0.000364098 0 -0.0202322)
(0.000421815 0 -0.0260633)
(0.000502532 0 -0.0322984)
(0.000609579 0 -0.0390088)
(0.000744608 0 -0.0462519)
(0.000909357 0 -0.0540685)
(0.00110693 0 -0.0624871)
(0.00134177 0 -0.071532)
(0.00161968 0 -0.0812294)
(0.00194832 0 -0.0916118)
(0.00233796 0 -0.102721)
(0.00280247 0 -0.11461)
(0.00336096 0 -0.127347)
(0.00404028 0 -0.141009)
(0.00487914 0 -0.155687)
(0.00593515 0 -0.171477)
(0.00729707 0 -0.188473)
(0.00910694 0 -0.206734)
(0.0115965 0 -0.226093)
(0.0151682 0 -0.245639)
(0.0206681 0 -0.263249)
(0.0299599 0 -0.278647)
(0.0466962 0 -0.310104)
(0.0767383 0 -0.428464)
(0.108023 0 -0.733376)
(0.0619665 0 -1.10226)
(-0.0529901 0 -1.03727)
(-0.0438848 0 -0.337487)
(0.0648568 0 0.420078)
(0.117032 0 0.904601)
(0.271943 0 0.549234)
(0.269338 0 -1.66542)
(-0.301078 0 -1.70332)
(-0.259137 0 0.538434)
(-0.100501 0 1.0136)
(-0.0699184 0 0.798831)
(-0.0367785 0 0.656349)
(-0.00552353 0 0.607169)
(0.0269783 0 0.607343)
(0.0675388 0 0.702953)
(0.107699 0 0.914101)
(0.296409 0 0.524678)
(0.296335 0 -1.705)
(-0.284889 0 -1.78135)
(-0.24029 0 0.533686)
(-0.059838 0 1.13712)
(-0.0394017 0 1.02931)
(5.29246e-05 0 -0.00354997)
(8.58987e-05 0 -0.00942669)
(9.67249e-05 0 -0.014799)
(0.000136655 0 -0.0203707)
(0.000204186 0 -0.0262643)
(0.000299857 0 -0.0325643)
(0.000427861 0 -0.0393374)
(0.000590259 0 -0.0466413)
(0.000789603 0 -0.054519)
(0.00103 0 -0.0630015)
(0.00131713 0 -0.0721153)
(0.00165838 0 -0.0818889)
(0.0020634 0 -0.0923578)
(0.00254499 0 -0.103568)
(0.00312023 0 -0.115579)
(0.00381232 0 -0.128464)
(0.0046533 0 -0.142315)
(0.00568838 0 -0.157239)
(0.00698294 0 -0.17336)
(0.00863409 0 -0.190817)
(0.0107909 0 -0.209742)
(0.0136878 0 -0.2301)
(0.0177144 0 -0.251257)
(0.023664 0 -0.271749)
(0.0333 0 -0.292646)
(0.0498664 0 -0.332814)
(0.0766513 0 -0.453947)
(0.0988045 0 -0.727729)
(0.0565423 0 -1.03793)
(-0.0408382 0 -0.989934)
(-0.0400408 0 -0.379189)
(0.0624882 0 0.361781)
(0.119716 0 0.847426)
(0.266685 0 0.485449)
(0.237261 0 -1.47039)
(-0.254504 0 -1.52393)
(-0.243198 0 0.456146)
(-0.0966867 0 0.96366)
(-0.0692743 0 0.774114)
(-0.0377194 0 0.633795)
(-0.00605948 0 0.584936)
(0.026943 0 0.582033)
(0.0674488 0 0.670285)
(0.107778 0 0.853598)
(0.279934 0 0.443936)
(0.258708 0 -1.50579)
(-0.230409 0 -1.601)
(-0.21526 0 0.443457)
(-0.0478892 0 1.08605)
(-0.0331233 0 1.01115)
(-0.000474897 0 -0.00356861)
(-0.000435168 0 -0.009481)
(-0.000422535 0 -0.0148978)
(-0.000378018 0 -0.0205301)
(-0.00030042 0 -0.0264949)
(-0.000191598 0 -0.0328692)
(-4.68606e-05 0 -0.0397156)
(0.000136924 0 -0.0470914)
(0.000363003 0 -0.0550421)
(0.000636221 0 -0.0636011)
(0.000963153 0 -0.0727974)
(0.00135229 0 -0.0826624)
(0.00181462 0 -0.093235)
(0.00236448 0 -0.104565)
(0.00302077 0 -0.116719)
(0.00380876 0 -0.129778)
(0.00476277 0 -0.143847)
(0.00593032 0 -0.159048)
(0.00737871 0 -0.175532)
(0.00920518 0 -0.193478)
(0.0115543 0 -0.213079)
(0.0146469 0 -0.234408)
(0.0188399 0 -0.257071)
(0.0248355 0 -0.280179)
(0.0341775 0 -0.305851)
(0.0494866 0 -0.352685)
(0.0719305 0 -0.473408)
(0.0864927 0 -0.719187)
(0.0493336 0 -0.984502)
(-0.0311309 0 -0.949243)
(-0.0364045 0 -0.412536)
(0.0545527 0 0.306694)
(0.115151 0 0.792094)
(0.247853 0 0.438102)
(0.206662 0 -1.29626)
(-0.213987 0 -1.36209)
(-0.218545 0 0.395752)
(-0.0885381 0 0.920134)
(-0.0641798 0 0.752835)
(-0.0360011 0 0.613159)
(-0.00631719 0 0.563674)
(0.0248677 0 0.558125)
(0.0632409 0 0.639888)
(0.104805 0 0.798528)
(0.254285 0 0.383864)
(0.226279 0 -1.33404)
(-0.185828 0 -1.44296)
(-0.181102 0 0.373)
(-0.0324045 0 1.04154)
(-0.0217822 0 0.997116)
(-0.00133046 0 -0.0035931)
(-0.00128213 0 -0.00955004)
(-0.00126522 0 -0.0150187)
(-0.00121402 0 -0.0207162)
(-0.00112674 0 -0.0267567)
(-0.00100708 0 -0.0332109)
(-0.000849559 0 -0.0401371)
(-0.000650179 0 -0.0475925)
(-0.000405227 0 -0.0556241)
(-0.000109442 0 -0.0642682)
(0.000244246 0 -0.0735564)
(0.000664877 0 -0.0835228)
(0.00116402 0 -0.0942096)
(0.0017566 0 -0.105672)
(0.00246206 0 -0.11798)
(0.00330601 0 -0.131227)
(0.00432268 0 -0.145524)
(0.0055587 0 -0.161012)
(0.00707882 0 -0.177865)
(0.0089745 0 -0.196295)
(0.0113778 0 -0.216546)
(0.0144843 0 -0.238782)
(0.0186014 0 -0.262816)
(0.0243222 0 -0.288254)
(0.0329443 0 -0.317988)
(0.0464963 0 -0.369776)
(0.064761 0 -0.488196)
(0.0738954 0 -0.70953)
(0.0416053 0 -0.939607)
(-0.0251495 0 -0.913888)
(-0.0348015 0 -0.438739)
(0.042592 0 0.255409)
(0.103812 0 0.739077)
(0.222904 0 0.399621)
(0.17795 0 -1.14513)
(-0.183513 0 -1.22095)
(-0.195169 0 0.347074)
(-0.0788216 0 0.880584)
(-0.0564115 0 0.734156)
(-0.0325065 0 0.59511)
(-0.00639818 0 0.544443)
(0.0213914 0 0.536224)
(0.0562303 0 0.610862)
(0.0992401 0 0.747147)
(0.230187 0 0.334763)
(0.202221 0 -1.18838)
(-0.150127 0 -1.30892)
(-0.149071 0 0.312221)
(-0.0150985 0 1.00104)
(-0.00642408 0 0.985928)
(-0.00250541 0 -0.00362597)
(-0.00244971 0 -0.00963769)
(-0.00242724 0 -0.0151623)
(-0.0023688 0 -0.0209265)
(-0.00227346 0 -0.0270435)
(-0.00214576 0 -0.0335792)
(-0.00197967 0 -0.0405881)
(-0.00177063 0 -0.0481264)
(-0.00151468 0 -0.0562431)
(-0.00120641 0 -0.0649765)
(-0.000838697 0 -0.0743608)
(-0.000402492 0 -0.0844328)
(0.000113681 0 -0.0952381)
(0.000724484 0 -0.106836)
(0.00144877 0 -0.119302)
(0.00231104 0 -0.132736)
(0.00334364 0 -0.147261)
(0.00458997 0 -0.163031)
(0.00610905 0 -0.180237)
(0.00798225 0 -0.199123)
(0.0103237 0 -0.219971)
(0.0132985 0 -0.243022)
(0.0171633 0 -0.268258)
(0.0224102 0 -0.2957)
(0.0301157 0 -0.328768)
(0.0418312 0 -0.384095)
(0.056528 0 -0.499198)
(0.0618796 0 -0.699547)
(0.0336338 0 -0.901599)
(-0.0226877 0 -0.882977)
(-0.0358795 0 -0.45834)
(0.0280076 0 0.209131)
(0.0868836 0 0.6889)
(0.195517 0 0.36733)
(0.151591 0 -1.01422)
(-0.159963 0 -1.09903)
(-0.174742 0 0.304757)
(-0.067187 0 0.843476)
(-0.0467289 0 0.717646)
(-0.0277633 0 0.580067)
(-0.00639041 0 0.527875)
(0.0169275 0 0.516861)
(0.0473702 0 0.583141)
(0.090767 0 0.698096)
(0.210365 0 0.292567)
(0.184721 0 -1.06356)
(-0.119619 0 -1.1949)
(-0.120481 0 0.257567)
(0.00450992 0 0.962534)
(0.0121272 0 0.977046)
(-0.00397252 0 -0.00366655)
(-0.00391146 0 -0.00974226)
(-0.00388397 0 -0.0153258)
(-0.00381973 0 -0.0211563)
(-0.00371879 0 -0.0273479)
(-0.0035864 0 -0.0339636)
(-0.00341629 0 -0.0410546)
(-0.00320359 0 -0.0486762)
(-0.00294429 0 -0.056878)
(-0.00263315 0 -0.0657008)
(-0.00226333 0 -0.0751808)
(-0.00182625 0 -0.0853574)
(-0.00131105 0 -0.0962792)
(-0.000704036 0 -0.108009)
(1.22072e-05 0 -0.120628)
(0.000860029 0 -0.134242)
(0.00186855 0 -0.148981)
(0.00307629 0 -0.165012)
(0.00453481 0 -0.182543)
(0.00631395 0 -0.201838)
(0.00850927 0 -0.223212)
(0.0112556 0 -0.246962)
(0.0147637 0 -0.273214)
(0.0194433 0 -0.302327)
(0.0261838 0 -0.338079)
(0.0361518 0 -0.395859)
(0.0478569 0 -0.507184)
(0.0504301 0 -0.689569)
(0.0254021 0 -0.868877)
(-0.0229181 0 -0.855531)
(-0.0392534 0 -0.471789)
(0.011939 0 0.16898)
(0.066279 0 0.641671)
(0.167779 0 0.338793)
(0.128619 0 -0.900876)
(-0.139111 0 -0.99352)
(-0.154956 0 0.266575)
(-0.0527067 0 0.808378)
(-0.035509 0 0.703883)
(-0.0221465 0 0.568618)
(-0.00630905 0 0.514511)
(0.0118644 0 0.500737)
(0.0373931 0 0.557516)
(0.0795149 0 0.650447)
(0.193113 0 0.254306)
(0.171762 0 -0.956035)
(-0.0911073 0 -1.09646)
(-0.0927467 0 0.20787)
(0.0273354 0 0.925327)
(0.0331903 0 0.970568)
(-0.00570651 0 -0.00371309)
(-0.00564198 0 -0.00985978)
(-0.00561066 0 -0.0155041)
(-0.00554254 0 -0.0213992)
(-0.00543863 0 -0.027662)
(-0.00530497 0 -0.034354)
(-0.00513532 0 -0.041524)
(-0.00492469 0 -0.0492261)
(-0.00466921 0 -0.0575105)
(-0.00436401 0 -0.0664193)
(-0.00400285 0 -0.0759909)
(-0.00357794 0 -0.0862668)
(-0.0030795 0 -0.0972985)
(-0.00249529 0 -0.109152)
(-0.00180993 0 -0.121912)
(-0.00100386 0 -0.13569)
(-5.18126e-05 0 -0.150624)
(0.00107917 0 -0.166888)
(0.00243245 0 -0.184704)
(0.00406592 0 -0.204351)
(0.00605792 0 -0.226171)
(0.00851711 0 -0.250503)
(0.0116143 0 -0.277596)
(0.0156918 0 -0.308093)
(0.0214794 0 -0.345991)
(0.0298216 0 -0.405411)
(0.0389755 0 -0.512776)
(0.0394342 0 -0.679724)
(0.0168493 0 -0.840257)
(-0.0252179 0 -0.830461)
(-0.0442933 0 -0.479676)
(-0.00481126 0 0.135217)
(0.0441419 0 0.59694)
(0.14127 0 0.311319)
(0.109936 0 -0.803861)
(-0.118644 0 -0.902475)
(-0.133817 0 0.231117)
(-0.0355015 0 0.775315)
(-0.0231728 0 0.693765)
(-0.0160512 0 0.561279)
(-0.00620256 0 0.504746)
(0.00653651 0 0.488229)
(0.0268668 0 0.534758)
(0.0665326 0 0.60372)
(0.176815 0 0.217285)
(0.162709 0 -0.864214)
(-0.062723 0 -1.01172)
(-0.0641162 0 0.161888)
(0.0531241 0 0.888618)
(0.0560685 0 0.966837)
(-0.0076926 0 -0.00376397)
(-0.00762569 0 -0.00998629)
(-0.00759163 0 -0.0156918)
(-0.00752142 0 -0.0216488)
(-0.0074169 0 -0.0279779)
(-0.00728496 0 -0.0347408)
(-0.00711966 0 -0.0419847)
(-0.00691618 0 -0.0497623)
(-0.0066709 0 -0.0581239)
(-0.00637949 0 -0.0671128)
(-0.0060365 0 -0.076769)
(-0.00563514 0 -0.0871359)
(-0.00516701 0 -0.0982671)
(-0.00462163 0 -0.110231)
(-0.00398603 0 -0.123118)
(-0.00324383 0 -0.13704)
(-0.002374 0 -0.152142)
(-0.00134921 0 -0.168607)
(-0.00013409 0 -0.186664)
(0.00131776 0 -0.206607)
(0.00306847 0 -0.228793)
(0.00520387 0 -0.2536)
(0.00786128 0 -0.281382)
(0.0113259 0 -0.313014)
(0.016189 0 -0.352613)
(0.0230181 0 -0.413032)
(0.0299397 0 -0.516395)
(0.0287085 0 -0.670028)
(0.00807395 0 -0.814909)
(-0.0291165 0 -0.80689)
(-0.0506951 0 -0.482595)
(-0.0216793 0 0.107523)
(0.0224818 0 0.553834)
(0.117191 0 0.282876)
(0.0955685 0 -0.722485)
(-0.0983773 0 -0.82469)
(-0.111424 0 0.197531)
(-0.0171892 0 0.744435)
(-0.0104993 0 0.688012)
(-0.00989914 0 0.558294)
(-0.00624172 0 0.498795)
(0.00107459 0 0.479362)
(0.0163193 0 0.515083)
(0.0536239 0 0.557699)
(0.161835 0 0.179411)
(0.158075 0 -0.787631)
(-0.0332671 0 -0.939967)
(-0.0352101 0 0.117373)
(0.0798777 0 0.85295)
(0.0801395 0 0.966766)
(-0.00992563 0 -0.00381834)
(-0.0098566 0 -0.0101194)
(-0.00982055 0 -0.015885)
(-0.00974943 0 -0.0218998)
(-0.00964596 0 -0.0282893)
(-0.00951801 0 -0.035116)
(-0.00936018 0 -0.0424265)
(-0.00916796 0 -0.0502724)
(-0.00893821 0 -0.0587037)
(-0.00866721 0 -0.0677643)
(-0.00835043 0 -0.0774955)
(-0.00798227 0 -0.0879422)
(-0.00755584 0 -0.0991599)
(-0.00706265 0 -0.11122)
(-0.00649229 0 -0.124213)
(-0.00583174 0 -0.138257)
(-0.00506423 0 -0.1535)
(-0.00416811 0 -0.17013)
(-0.00311568 0 -0.188384)
(-0.00187115 0 -0.208564)
(-0.000387085 0 -0.231042)
(0.00140173 0 -0.256226)
(0.0036039 0 -0.28456)
(0.00645514 0 -0.317111)
(0.0104241 0 -0.358017)
(0.0158407 0 -0.418913)
(0.0207876 0 -0.518323)
(0.0181649 0 -0.660421)
(-0.00089372 0 -0.792027)
(-0.0343735 0 -0.784349)
(-0.0581706 0 -0.481248)
(-0.0382915 0 0.0847956)
(0.00276247 0 0.511582)
(0.0964104 0 0.252448)
(0.0847913 0 -0.655588)
(-0.0792295 0 -0.759054)
(-0.0896492 0 0.165614)
(-0.000185166 0 0.715851)
(0.0014434 0 0.686845)
(-0.00423647 0 0.559525)
(-0.00666376 0 0.496638)
(-0.0045901 0 0.4739)
(0.00615453 0 0.498081)
(0.0426139 0 0.511906)
(0.149879 0 0.139169)
(0.158609 0 -0.725919)
(-0.00246984 0 -0.880235)
(-0.00664252 0 0.0741209)
(0.105685 0 0.819678)
(0.10375 0 0.970696)
(-0.0124033 0 -0.00387596)
(-0.012332 0 -0.0102581)
(-0.0122943 0 -0.016082)
(-0.0122229 0 -0.0221495)
(-0.0121214 0 -0.0285918)
(-0.0119989 0 -0.0354738)
(-0.0118508 0 -0.0428416)
(-0.011673 0 -0.0507463)
(-0.011463 0 -0.0592376)
(-0.0112178 0 -0.0683594)
(-0.0109338 0 -0.0781538)
(-0.0106067 0 -0.0886671)
(-0.0102313 0 -0.099956)
(-0.00980105 0 -0.112093)
(-0.00930836 0 -0.125173)
(-0.00874353 0 -0.139313)
(-0.00809405 0 -0.154668)
(-0.00734366 0 -0.171427)
(-0.00647187 0 -0.189833)
(-0.00545273 0 -0.210195)
(-0.00425223 0 -0.232895)
(-0.00282327 0 -0.258366)
(-0.00108212 0 -0.28713)
(0.00116259 0 -0.320399)
(0.0042702 0 -0.362265)
(0.0083702 0 -0.423211)
(0.0115705 0 -0.518781)
(0.00778906 0 -0.650846)
(-0.0100674 0 -0.770977)
(-0.0408608 0 -0.762458)
(-0.0665605 0 -0.476385)
(-0.0540651 0 0.0655617)
(-0.0139726 0 0.469605)
(0.0792007 0 0.219842)
(0.076674 0 -0.601386)
(-0.0620584 0 -0.704026)
(-0.0706856 0 0.13567)
(0.0133661 0 0.689736)
(0.011553 0 0.689332)
(0.00034172 0 0.564643)
(-0.00768029 0 0.498137)
(-0.0105759 0 0.471534)
(-0.00340997 0 0.48267)
(0.034527 0 0.46533)
(0.142358 0 0.0954332)
(0.164136 0 -0.678216)
(0.0305812 0 -0.829535)
(0.0213934 0 0.0340617)
(0.128322 0 0.788295)
(0.125305 0 0.977855)
(-0.0151194 0 -0.00393688)
(-0.0150458 0 -0.0104024)
(-0.0150069 0 -0.0162821)
(-0.0149355 0 -0.0223963)
(-0.0148367 0 -0.0288831)
(-0.0147208 0 -0.0358102)
(-0.014584 0 -0.0432246)
(-0.0144231 0 -0.051177)
(-0.014236 0 -0.0597165)
(-0.0140208 0 -0.0688871)
(-0.0137747 0 -0.0787314)
(-0.0134949 0 -0.0892962)
(-0.0131777 0 -0.100639)
(-0.012819 0 -0.112835)
(-0.0124135 0 -0.125978)
(-0.0119551 0 -0.14019)
(-0.0114355 0 -0.155625)
(-0.0108434 0 -0.172477)
(-0.0101651 0 -0.190992)
(-0.0093834 0 -0.211483)
(-0.00847643 0 -0.234339)
(-0.00741289 0 -0.260014)
(-0.00613076 0 -0.289094)
(-0.00447889 0 -0.322903)
(-0.00219455 0 -0.365425)
(0.000687576 0 -0.426082)
(0.0023503 0 -0.517961)
(-0.00240457 0 -0.641239)
(-0.0194041 0 -0.75125)
(-0.0483417 0 -0.740882)
(-0.0755627 0 -0.468764)
(-0.0684748 0 0.0484976)
(-0.0273106 0 0.427092)
(0.0655001 0 0.185306)
(0.0706765 0 -0.557855)
(-0.0469968 0 -0.657559)
(-0.0556354 0 0.108307)
(0.022128 0 0.665934)
(0.0190506 0 0.694027)
(0.00368948 0 0.573206)
(-0.00941802 0 0.503099)
(-0.0170892 0 0.471881)
(-0.0124607 0 0.467503)
(0.0293953 0 0.4167)
(0.139447 0 0.0473802)
(0.174123 0 -0.643481)
(0.0653609 0 -0.784938)
(0.0484072 0 -0.00171425)
(0.146549 0 0.758446)
(0.143844 0 0.987142)
(-0.0180607 0 -0.00400087)
(-0.0179853 0 -0.0105517)
(-0.0179455 0 -0.0164843)
(-0.0178749 0 -0.0226387)
(-0.0177796 0 -0.0291608)
(-0.0176715 0 -0.0361222)
(-0.0175476 0 -0.0435711)
(-0.0174055 0 -0.0515585)
(-0.017244 0 -0.0601332)
(-0.0170619 0 -0.0693389)
(-0.0168577 0 -0.079218)
(-0.0166299 0 -0.0898181)
(-0.0163767 0 -0.101198)
(-0.0160956 0 -0.113431)
(-0.0157845 0 -0.126616)
(-0.0154402 0 -0.140872)
(-0.0150586 0 -0.156357)
(-0.0146334 0 -0.173266)
(-0.0141567 0 -0.191847)
(-0.0136195 0 -0.212417)
(-0.0130103 0 -0.235367)
(-0.0123116 0 -0.26117)
(-0.0114802 0 -0.290467)
(-0.0104017 0 -0.324654)
(-0.00889798 0 -0.367569)
(-0.00712422 0 -0.427677)
(-0.00680097 0 -0.516038)
(-0.0123806 0 -0.631534)
(-0.0287919 0 -0.732434)
(-0.0564605 0 -0.719431)
(-0.084751 0 -0.4592)
(-0.0812099 0 0.0324029)
(-0.0374547 0 0.38342)
(0.0550154 0 0.149175)
(0.0667823 0 -0.523149)
(-0.033412 0 -0.617476)
(-0.0442952 0 0.0843346)
(0.0261883 0 0.643942)
(0.0238605 0 0.699848)
(0.00583609 0 0.584564)
(-0.0119102 0 0.511272)
(-0.0241879 0 0.474437)
(-0.0211719 0 0.451485)
(0.0263705 0 0.364972)
(0.139907 0 -0.00554712)
(0.187053 0 -0.621055)
(0.10062 0 -0.745061)
(0.0742929 0 -0.0305903)
(0.160112 0 0.730994)
(0.158715 0 0.997545)
(-0.0212071 0 -0.00406701)
(-0.0211309 0 -0.0107039)
(-0.0210911 0 -0.0166858)
(-0.0210224 0 -0.0228734)
(-0.0209322 0 -0.0294215)
(-0.0208334 0 -0.0364058)
(-0.020724 0 -0.0438768)
(-0.0206025 0 -0.051886)
(-0.0204687 0 -0.0604819)
(-0.0203222 0 -0.0697077)
(-0.020163 0 -0.0796059)
(-0.0199908 0 -0.0902239)
(-0.0198054 0 -0.101621)
(-0.0196066 0 -0.113872)
(-0.0193946 0 -0.127073)
(-0.0191695 0 -0.141348)
(-0.018931 0 -0.156853)
(-0.0186775 0 -0.173784)
(-0.0184066 0 -0.192391)
(-0.0181166 0 -0.212991)
(-0.0178051 0 -0.235979)
(-0.0174661 0 -0.261842)
(-0.0170725 0 -0.291265)
(-0.0165429 0 -0.32569)
(-0.0157713 0 -0.368779)
(-0.0149977 0 -0.428142)
(-0.015828 0 -0.513172)
(-0.0220958 0 -0.621694)
(-0.0381025 0 -0.714237)
(-0.0648761 0 -0.698068)
(-0.0937707 0 -0.448496)
(-0.0922274 0 0.0162911)
(-0.0450603 0 0.338222)
(0.0472152 0 0.111644)
(0.0651454 0 -0.495894)
(-0.0203241 0 -0.58188)
(-0.0354357 0 0.0647554)
(0.0267369 0 0.623476)
(0.0264609 0 0.70587)
(0.00695927 0 0.598058)
(-0.0150275 0 0.522437)
(-0.0317295 0 0.478818)
(-0.0296437 0 0.433837)
(0.0242242 0 0.309674)
(0.141607 0 -0.0635805)
(0.200437 0 -0.610345)
(0.134554 0 -0.709262)
(0.0990496 0 -0.0504155)
(0.169234 0 0.707142)
(0.169412 0 1.0082)
(-0.0245347 0 -0.00413394)
(-0.0244589 0 -0.0108557)
(-0.0244203 0 -0.0168823)
(-0.0243553 0 -0.023096)
(-0.024272 0 -0.0296606)
(-0.0241843 0 -0.0366568)
(-0.0240912 0 -0.0441375)
(-0.0239921 0 -0.0521551)
(-0.0238877 0 -0.0607579)
(-0.023779 0 -0.0699888)
(-0.0236669 0 -0.0798896)
(-0.0235527 0 -0.090508)
(-0.0234378 0 -0.101903)
(-0.0233242 0 -0.11415)
(-0.0232144 0 -0.127345)
(-0.0231115 0 -0.141612)
(-0.0230188 0 -0.157107)
(-0.022939 0 -0.174027)
(-0.0228751 0 -0.192622)
(-0.0228317 0 -0.213207)
(-0.0228145 0 -0.236182)
(-0.0228271 0 -0.262045)
(-0.0228564 0 -0.291515)
(-0.0228499 0 -0.326053)
(-0.0227612 0 -0.369137)
(-0.0228861 0 -0.427619)
(-0.0247045 0 -0.509508)
(-0.0315434 0 -0.611713)
(-0.047272 0 -0.696484)
(-0.0733925 0 -0.676835)
(-0.102509 0 -0.437293)
(-0.101852 0 -0.000457345)
(-0.0510346 0 0.291291)
(0.0413792 0 0.0726055)
(0.0655505 0 -0.475291)
(-0.00702672 0 -0.549404)
(-0.027598 0 0.0503124)
(0.0252943 0 0.60473)
(0.0276053 0 0.711507)
(0.0073866 0 0.613182)
(-0.0184601 0 0.536415)
(-0.0393925 0 0.4848)
(-0.0377885 0 0.414411)
(0.0218501 0 0.250885)
(0.142278 0 -0.126462)
(0.211439 0 -0.610582)
(0.164576 0 -0.677327)
(0.121879 0 -0.0605709)
(0.174258 0 0.687903)
(0.175577 0 1.01846)
(-0.0280191 0 -0.00420009)
(-0.0279448 0 -0.0110035)
(-0.0279087 0 -0.0170692)
(-0.027849 0 -0.0233011)
(-0.0277744 0 -0.0298728)
(-0.0276997 0 -0.0368702)
(-0.0276246 0 -0.0443489)
(-0.0275495 0 -0.0523619)
(-0.0274762 0 -0.0609577)
(-0.0274066 0 -0.0701785)
(-0.0273431 0 -0.0800658)
(-0.0272883 0 -0.0906668)
(-0.0272455 0 -0.10204)
(-0.0272186 0 -0.114262)
(-0.0272125 0 -0.127428)
(-0.0272331 0 -0.141662)
(-0.0272871 0 -0.157119)
(-0.0273811 0 -0.173995)
(-0.0275232 0 -0.192541)
(-0.0277236 0 -0.213071)
(-0.0279955 0 -0.235985)
(-0.0283507 0 -0.261793)
(-0.0287886 0 -0.291237)
(-0.0292824 0 -0.325782)
(-0.0298339 0 -0.368717)
(-0.0307715 0 -0.426231)
(-0.0334474 0 -0.505164)
(-0.0407806 0 -0.601589)
(-0.0563509 0 -0.679047)
(-0.0820205 0 -0.655765)
(-0.111129 0 -0.426002)
(-0.110738 0 -0.0180812)
(-0.0564236 0 0.242785)
(0.0365649 0 0.031514)
(0.0670992 0 -0.461018)
(0.00626001 0 -0.51933)
(-0.0197749 0 0.0412562)
(0.0232237 0 0.588179)
(0.0279375 0 0.716588)
(0.00750013 0 0.629581)
(-0.0217411 0 0.552998)
(-0.0465648 0 0.492242)
(-0.0453848 0 0.393564)
(0.0184458 0 0.189416)
(0.140162 0 -0.193267)
(0.217474 0 -0.620694)
(0.187792 0 -0.649531)
(0.141044 0 -0.061635)
(0.175305 0 0.67399)
(0.176971 0 1.02797)
(-0.0316371 0 -0.00426414)
(-0.0315649 0 -0.0111441)
(-0.0315322 0 -0.0172423)
(-0.031479 0 -0.023484)
(-0.0314145 0 -0.0300533)
(-0.0313543 0 -0.0370416)
(-0.0312986 0 -0.0445068)
(-0.0312488 0 -0.0525029)
(-0.0312076 0 -0.0610781)
(-0.0311781 0 -0.0702741)
(-0.0311639 0 -0.0801318)
(-0.0311693 0 -0.0906981)
(-0.0311991 0 -0.102031)
(-0.0312593 0 -0.114207)
(-0.031357 0 -0.127321)
(-0.031501 0 -0.141496)
(-0.031701 0 -0.156887)
(-0.0319678 0 -0.173689)
(-0.0323135 0 -0.192151)
(-0.0327542 0 -0.212588)
(-0.0333096 0 -0.235398)
(-0.0339995 0 -0.261098)
(-0.0348352 0 -0.290451)
(-0.0358132 0 -0.324908)
(-0.0369744 0 -0.367575)
(-0.0386637 0 -0.424065)
(-0.0421134 0 -0.500216)
(-0.0499257 0 -0.591291)
(-0.0654978 0 -0.661787)
(-0.0909411 0 -0.634826)
(-0.119961 0 -0.414814)
(-0.119525 0 -0.0365754)
(-0.0623642 0 0.192927)
(0.0315175 0 -0.012035)
(0.0683337 0 -0.45287)
(0.0183725 0 -0.491428)
(-0.0118572 0 0.0374274)
(0.0213163 0 0.574187)
(0.0278996 0 0.721141)
(0.00767761 0 0.646937)
(-0.0242961 0 0.571866)
(-0.0524791 0 0.501025)
(-0.051916 0 0.371913)
(0.0137941 0 0.126823)
(0.134194 0 -0.262392)
(0.216714 0 -0.639125)
(0.201825 0 -0.62626)
(0.154409 0 -0.0551019)
(0.172158 0 0.665593)
(0.173453 0 1.03655)
(-0.0353673 0 -0.00432548)
(-0.0352977 0 -0.0112758)
(-0.0352687 0 -0.0173989)
(-0.0352225 0 -0.0236418)
(-0.0351689 0 -0.0301992)
(-0.0351238 0 -0.0371681)
(-0.0350883 0 -0.0446087)
(-0.0350643 0 -0.0525759)
(-0.0350557 0 -0.0611173)
(-0.0350667 0 -0.0702741)
(-0.035102 0 -0.0800867)
(-0.0351675 0 -0.0906012)
(-0.0352696 0 -0.101876)
(-0.0354163 0 -0.113985)
(-0.035617 0 -0.127025)
(-0.0358831 0 -0.141116)
(-0.0362276 0 -0.156414)
(-0.0366649 0 -0.173113)
(-0.0372116 0 -0.191458)
(-0.0378888 0 -0.211763)
(-0.038723 0 -0.234426)
(-0.0397421 0 -0.259971)
(-0.0409695 0 -0.289169)
(-0.0424241 0 -0.323449)
(-0.0441788 0 -0.365747)
(-0.0465866 0 -0.421174)
(-0.0507772 0 -0.494683)
(-0.0591221 0 -0.580729)
(-0.0749118 0 -0.644524)
(-0.10038 0 -0.613915)
(-0.129303 0 -0.403776)
(-0.128709 0 -0.0558047)
(-0.0695522 0 0.14189)
(0.0251287 0 -0.0579332)
(0.067447 0 -0.45046)
(0.0274996 0 -0.465851)
(-0.00463885 0 0.0379849)
(0.0197862 0 0.562712)
(0.0277483 0 0.725165)
(0.00829547 0 0.664852)
(-0.0254748 0 0.592542)
(-0.056242 0 0.511028)
(-0.0566269 0 0.350393)
(0.00825038 0 0.0650241)
(0.124198 0 -0.331746)
(0.208448 0 -0.663803)
(0.205382 0 -0.60766)
(0.160178 0 -0.0430483)
(0.164479 0 0.662222)
(0.165068 0 1.044)
(-0.0391909 0 -0.00438405)
(-0.0391236 0 -0.0113985)
(-0.0390983 0 -0.0175387)
(-0.0390591 0 -0.0237738)
(-0.0390162 0 -0.0303096)
(-0.0389862 0 -0.0372488)
(-0.0389708 0 -0.0446541)
(-0.0389726 0 -0.0525805)
(-0.0389964 0 -0.0610753)
(-0.0390475 0 -0.070179)
(-0.0391319 0 -0.0799311)
(-0.0392568 0 -0.0903773)
(-0.0394304 0 -0.101575)
(-0.0396623 0 -0.113598)
(-0.0399643 0 -0.126542)
(-0.0403505 0 -0.140526)
(-0.0408371 0 -0.155705)
(-0.0414422 0 -0.17227)
(-0.0421867 0 -0.190466)
(-0.043097 0 -0.210603)
(-0.0442061 0 -0.233078)
(-0.0455511 0 -0.258417)
(-0.0471681 0 -0.287395)
(-0.0490983 0 -0.321413)
(-0.0514421 0 -0.363249)
(-0.0545579 0 -0.41757)
(-0.0594992 0 -0.48853)
(-0.0684836 0 -0.569759)
(-0.0847338 0 -0.627047)
(-0.110446 0 -0.592922)
(-0.139202 0 -0.392897)
(-0.138318 0 -0.0755708)
(-0.0780708 0 0.0901275)
(0.016692 0 -0.105679)
(0.0629351 0 -0.453092)
(0.0319349 0 -0.443082)
(0.000617402 0 0.0416037)
(0.0184307 0 0.553237)
(0.0276831 0 0.728495)
(0.00974633 0 0.682774)
(-0.0245975 0 0.614358)
(-0.0569196 0 0.522081)
(-0.058617 0 0.330059)
(0.00265814 0 0.00608278)
(0.110898 0 -0.398987)
(0.193174 0 -0.692317)
(0.198547 0 -0.593461)
(0.157486 0 -0.0276633)
(0.152112 0 0.662813)
(0.152159 0 1.05011)
(-0.0430909 0 -0.00444014)
(-0.0430257 0 -0.0115128)
(-0.0430034 0 -0.0176628)
(-0.0429706 0 -0.0238813)
(-0.0429378 0 -0.0303859)
(-0.0429221 0 -0.0372852)
(-0.0429259 0 -0.0446441)
(-0.0429528 0 -0.0525181)
(-0.0430081 0 -0.0609536)
(-0.0430984 0 -0.0699904)
(-0.0432308 0 -0.0796671)
(-0.0434138 0 -0.0900287)
(-0.0436573 0 -0.101132)
(-0.0439728 0 -0.11305)
(-0.0443739 0 -0.125876)
(-0.0448775 0 -0.13973)
(-0.0455031 0 -0.154763)
(-0.0462726 0 -0.171166)
(-0.0472113 0 -0.189179)
(-0.0483508 0 -0.209111)
(-0.0497311 0 -0.231356)
(-0.0513988 0 -0.256438)
(-0.0534046 0 -0.285131)
(-0.0558112 0 -0.318801)
(-0.0587444 0 -0.36008)
(-0.0625699 0 -0.413241)
(-0.0682948 0 -0.481683)
(-0.0780447 0 -0.558215)
(-0.0949651 0 -0.609176)
(-0.121019 0 -0.57182)
(-0.149343 0 -0.382287)
(-0.147832 0 -0.0957091)
(-0.0873333 0 0.0383139)
(0.00612424 0 -0.154201)
(0.0540334 0 -0.459697)
(0.0307328 0 -0.423706)
(0.00288181 0 0.0465254)
(0.0169476 0 0.544854)
(0.0279235 0 0.73076)
(0.0124278 0 0.69998)
(-0.0210369 0 0.63648)
(-0.0536692 0 0.533921)
(-0.0569762 0 0.311921)
(-0.00179558 0 -0.048013)
(0.0957533 0 -0.461775)
(0.172415 0 -0.722124)
(0.182681 0 -0.582974)
(0.146667 0 -0.0109038)
(0.135368 0 0.665992)
(0.135426 0 1.05456)
(-0.0470515 0 -0.00449443)
(-0.0469877 0 -0.0116206)
(-0.0469679 0 -0.0177735)
(-0.0469404 0 -0.023967)
(-0.0469164 0 -0.0304308)
(-0.0469139 0 -0.0372797)
(-0.0469357 0 -0.0445813)
(-0.0469861 0 -0.052391)
(-0.0470716 0 -0.0607548)
(-0.0471994 0 -0.069711)
(-0.047378 0 -0.0792976)
(-0.0476172 0 -0.0895586)
(-0.0479285 0 -0.10055)
(-0.048325 0 -0.112343)
(-0.0488224 0 -0.125032)
(-0.0494401 0 -0.138732)
(-0.0502007 0 -0.153594)
(-0.0511301 0 -0.169805)
(-0.0522581 0 -0.187603)
(-0.0536218 0 -0.207292)
(-0.055268 0 -0.229263)
(-0.0572534 0 -0.254036)
(-0.0596441 0 -0.282376)
(-0.062524 0 -0.315612)
(-0.0660425 0 -0.356239)
(-0.0705772 0 -0.408164)
(-0.0771176 0 -0.474067)
(-0.0877347 0 -0.545963)
(-0.105439 0 -0.590829)
(-0.131745 0 -0.550748)
(-0.159122 0 -0.372233)
(-0.156382 0 -0.116158)
(-0.0963117 0 -0.0127156)
(-0.00601181 0 -0.202018)
(0.0410019 0 -0.468944)
(0.0240491 0 -0.408164)
(0.00184657 0 0.0508007)
(0.0152564 0 0.536366)
(0.0287648 0 0.731399)
(0.0167169 0 0.715646)
(-0.0143142 0 0.657939)
(-0.0458947 0 0.546178)
(-0.0509326 0 0.296805)
(-0.00379576 0 -0.0955537)
(0.0806133 0 -0.517971)
(0.148357 0 -0.750769)
(0.160104 0 -0.575191)
(0.12916 0 0.00572845)
(0.115137 0 0.670379)
(0.115905 0 1.0571)
(-0.051056 0 -0.00454792)
(-0.0509932 0 -0.0117239)
(-0.0509749 0 -0.0178737)
(-0.0509517 0 -0.0240342)
(-0.0509354 0 -0.0304479)
(-0.0509445 0 -0.0372363)
(-0.0509827 0 -0.0444695)
(-0.051055 0 -0.0522032)
(-0.0511686 0 -0.0604825)
(-0.0513319 0 -0.0693449)
(-0.0515543 0 -0.0788269)
(-0.051847 0 -0.0889718)
(-0.052223 0 -0.0998343)
(-0.052697 0 -0.111485)
(-0.0532869 0 -0.124015)
(-0.054014 0 -0.137539)
(-0.0549043 0 -0.152204)
(-0.0559874 0 -0.168195)
(-0.0572978 0 -0.185746)
(-0.0588779 0 -0.205155)
(-0.0607811 0 -0.226809)
(-0.0630746 0 -0.251219)
(-0.0658391 0 -0.279138)
(-0.0691791 0 -0.311854)
(-0.0732662 0 -0.351733)
(-0.078495 0 -0.402331)
(-0.0858584 0 -0.465634)
(-0.097384 0 -0.532939)
(-0.115855 0 -0.572058)
(-0.142131 0 -0.530025)
(-0.167849 0 -0.36321)
(-0.1631 0 -0.136984)
(-0.103944 0 -0.0620916)
(-0.0186997 0 -0.247463)
(0.0251238 0 -0.479527)
(0.0131915 0 -0.396712)
(-0.00190509 0 0.0526828)
(0.0136524 0 0.526508)
(0.0306007 0 0.729766)
(0.0229012 0 0.728939)
(-0.00422209 0 0.677731)
(-0.0333732 0 0.558382)
(-0.0400342 0 0.285228)