/*--------------------------------*- C++ -*----------------------------------*\
  =========                 |
  \\      /  F ield         | OpenFOAM: The Open Source CFD Toolbox
   \\    /   O peration     | Website:  https://openfoam.org
    \\  /    A nd           | Version:  9
     \\/     M anipulation  |
\*---------------------------------------------------------------------------*/
FoamFile
{
    format      ascii;
    class       surfaceVectorField;
    location    "0.18";
    object      Uf;
}
// * * * * * * * * * * * * * * * * * * * * * * * * * * * * * * * * * * * * * //

dimensions      [0 1 -1 0 0 0 0];

internalField   nonuniform List<vector> 
9850
(
(8.684e-05 0 -0.00627503)
(0.000142847 0 -0.00341525)
(8.80681e-05 0 -0.011887)
(0.00018558 0 -0.00925087)
(8.8305e-05 0 -0.0172744)
(0.000178083 0 -0.0145794)
(9.49583e-05 0 -0.0228496)
(0.000181357 0 -0.0200234)
(0.000107194 0 -0.028772)
(0.000199797 0 -0.025755)
(0.000124251 0 -0.0351402)
(0.000226486 0 -0.0318918)
(0.000145544 0 -0.0420211)
(0.000261653 0 -0.0385127)
(0.000170751 0 -0.0494596)
(0.000305076 0 -0.045673)
(0.000199865 0 -0.0574856)
(0.000356745 0 -0.0534085)
(0.000233114 0 -0.0661216)
(0.000417131 0 -0.0617441)
(0.00027089 0 -0.0753893)
(0.000487119 0 -0.0707006)
(0.000313737 0 -0.0853141)
(0.000567942 0 -0.080301)
(0.000362381 0 -0.0959285)
(0.00066125 0 -0.0905737)
(0.000417782 0 -0.107273)
(0.000769247 0 -0.101555)
(0.000481181 0 -0.1194)
(0.000894896 0 -0.113292)
(0.000554153 0 -0.132367)
(0.0010422 0 -0.12584)
(0.000638671 0 -0.146241)
(0.00121666 0 -0.139262)
(0.00073722 0 -0.161078)
(0.00142605 0 -0.153625)
(0.000853071 0 -0.176915)
(0.00168203 0 -0.168979)
(0.000990854 0 -0.193719)
(0.00200354 0 -0.185346)
(0.00115853 0 -0.211211)
(0.0024242 0 -0.202639)
(0.00137886 0 -0.228335)
(0.00300965 0 -0.220394)
(0.00174998 0 -0.242235)
(0.0039133 0 -0.237008)
(0.00267772 0 -0.248358)
(0.005567 0 -0.248629)
(0.00553361 0 -0.249508)
(0.00913028 0 -0.250972)
(0.0140975 0 -0.291287)
(0.017419 0 -0.256813)
(0.0348883 0 -0.514315)
(0.0378137 0 -0.34958)
(0.0555667 0 -1.01718)
(0.0734292 0 -0.716921)
(-0.0110258 0 -1.27268)
(0.0438963 0 -1.29838)
(-0.0493048 0 -0.741302)
(-0.058052 0 -1.1695)
(-2.12714e-05 0 0.185574)
(-0.033174 0 -0.214277)
(0.0269378 0 0.794856)
(0.032 0 0.541424)
(0.0478812 0 0.967616)
(0.0546672 0 1.02086)
(0.22233 0 -0.709861)
(0.140007 0 0.815522)
(0.0203229 0 -2.33326)
(0.294076 0 -2.19578)
(-0.197733 0 -0.710302)
(-0.277268 0 -2.21138)
(-0.0399612 0 1.02971)
(-0.138234 0 0.837926)
(-0.0218688 0 0.995416)
(-0.045018 0 1.12564)
(-0.0119741 0 0.779207)
(-0.0311335 0 0.850765)
(-0.00431814 0 0.676696)
(-0.0151358 0 0.699741)
(0.00174845 0 0.654904)
(-0.00233517 0 0.646914)
(0.010049 0 0.718795)
(0.0109395 0 0.655463)
(0.023578 0 0.922285)
(0.0306759 0 0.770642)
(0.052931 0 1.00378)
(0.0530254 0 1.05081)
(0.248584 0 -0.778148)
(0.162991 0 0.842531)
(-0.040283 0 -2.4361)
(0.303721 0 -2.31294)
(-0.214415 0 -0.704361)
(-0.339184 0 -2.27168)
(-0.0327232 0 1.11406)
(-0.125337 0 0.869276)
(-0.0149535 0 1.16885)
(-0.0322188 0 1.25142)
(-0.0197295 0 1.07186)
(0.000247826 0 -0.00625301)
(0.000257492 0 -0.00346303)
(0.000258355 0 -0.0118173)
(0.00031393 0 -0.00928363)
(0.000266587 0 -0.0172002)
(0.000311883 0 -0.0146038)
(0.000285298 0 -0.0227955)
(0.000326082 0 -0.0200763)
(0.000316924 0 -0.0287341)
(0.000361916 0 -0.0258402)
(0.000361616 0 -0.0351146)
(0.000412218 0 -0.0320066)
(0.000418874 0 -0.0420045)
(0.000478425 0 -0.038653)
(0.000488546 0 -0.0494505)
(0.000561036 0 -0.0458356)
(0.000571164 0 -0.0574839)
(0.00066061 0 -0.0535925)
(0.000667892 0 -0.0661278)
(0.00077854 0 -0.0619494)
(0.000780434 0 -0.0754046)
(0.000917026 0 -0.0709283)
(0.000911091 0 -0.08534)
(0.00107903 0 -0.080553)
(0.00106293 0 -0.0959666)
(0.00126848 0 -0.0908529)
(0.00124008 0 -0.107326)
(0.00149065 0 -0.101866)
(0.00144814 0 -0.11947)
(0.0017527 0 -0.113639)
(0.00169481 0 -0.132458)
(0.00206453 0 -0.126233)
(0.00199102 0 -0.146356)
(0.00244007 0 -0.139712)
(0.00235296 0 -0.161224)
(0.00289969 0 -0.154149)
(0.00280629 0 -0.177103)
(0.00347453 0 -0.169605)
(0.00339527 0 -0.193968)
(0.00421539 0 -0.186121)
(0.00420358 0 -0.211568)
(0.00521026 0 -0.203653)
(0.00540853 0 -0.22893)
(0.00661867 0 -0.221835)
(0.00743581 0 -0.243479)
(0.00875952 0 -0.239319)
(0.011392 0 -0.251472)
(0.0123774 0 -0.252929)
(0.0200909 0 -0.257609)
(0.019165 0 -0.259986)
(0.0393317 0 -0.309314)
(0.0327228 0 -0.275819)
(0.0726095 0 -0.535136)
(0.06143 0 -0.380917)
(0.0855978 0 -0.989302)
(0.102437 0 -0.728581)
(-0.00719504 0 -1.2141)
(0.0594566 0 -1.21897)
(-0.0697111 0 -0.738721)
(-0.0671084 0 -1.1185)
(0.00347582 0 0.148936)
(-0.0441521 0 -0.263069)
(0.0652685 0 0.768609)
(0.0524106 0 0.500229)
(0.125386 0 0.895863)
(0.0921643 0 0.980786)
(0.30321 0 -0.655795)
(0.223453 0 0.696973)
(-0.00466844 0 -2.10732)
(0.314566 0 -1.99052)
(-0.307803 0 -0.662502)
(-0.334809 0 -2.00929)
(-0.115887 0 0.954931)
(-0.221304 0 0.709982)
(-0.0585988 0 0.981037)
(-0.0801549 0 1.08745)
(-0.033051 0 0.771396)
(-0.0540301 0 0.833733)
(-0.0123349 0 0.669577)
(-0.0270627 0 0.68593)
(0.0058944 0 0.647095)
(-0.00398148 0 0.634761)
(0.0289282 0 0.707542)
(0.0200364 0 0.640107)
(0.0631625 0 0.90019)
(0.0527356 0 0.74782)
(0.136183 0 0.920942)
(0.0887639 0 1.00213)
(0.342542 0 -0.689956)
(0.255358 0 0.704958)
(-0.0355347 0 -2.18671)
(0.336343 0 -2.06089)
(-0.314449 0 -0.683133)
(-0.361489 0 -2.08574)
(-0.098984 0 1.03109)
(-0.207131 0 0.725632)
(-0.0413438 0 1.15436)
(-0.0555639 0 1.213)
(-0.0336587 0 1.05742)
(0.000326327 0 -0.00633575)
(0.000293326 0 -0.00351312)
(0.000345465 0 -0.0119087)
(0.000338043 0 -0.00934316)
(0.000367974 0 -0.0173075)
(0.000344766 0 -0.0146705)
(0.000402336 0 -0.0229362)
(0.000372048 0 -0.0201734)
(0.000454253 0 -0.0289134)
(0.000423321 0 -0.0259801)
(0.000525625 0 -0.0353301)
(0.00049467 0 -0.0321899)
(0.00061693 0 -0.0422528)
(0.000588852 0 -0.0388766)
(0.000728908 0 -0.0497295)
(0.000707201 0 -0.0460971)
(0.000863117 0 -0.057793)
(0.000851069 0 -0.0538912)
(0.00102202 0 -0.066468)
(0.00102299 0 -0.0622866)
(0.001209 0 -0.0757778)
(0.00122665 0 -0.0713066)
(0.00142859 0 -0.0857496)
(0.00146692 0 -0.0809765)
(0.00168679 0 -0.0964178)
(0.00175023 0 -0.0913277)
(0.00199176 0 -0.107826)
(0.0020852 0 -0.1024)
(0.00235468 0 -0.120029)
(0.00248351 0 -0.114246)
(0.00279123 0 -0.133091)
(0.00296132 0 -0.126928)
(0.00332409 0 -0.147084)
(0.00354138 0 -0.140522)
(0.00398729 0 -0.162081)
(0.00425675 0 -0.155109)
(0.00483455 0 -0.178144)
(0.00515717 0 -0.170775)
(0.00595511 0 -0.195289)
(0.00632089 0 -0.187596)
(0.00750491 0 -0.213351)
(0.00787637 0 -0.205597)
(0.00977354 0 -0.231564)
(0.01004 0 -0.224548)
(0.0133465 0 -0.247883)
(0.0132024 0 -0.243392)
(0.0195256 0 -0.259872)
(0.0182032 0 -0.259645)
(0.0313037 0 -0.274624)
(0.02688 0 -0.272189)
(0.0541306 0 -0.33913)
(0.0429119 0 -0.298366)
(0.08791 0 -0.560199)
(0.0732442 0 -0.412726)
(0.0925787 0 -0.951485)
(0.108665 0 -0.732772)
(0.000788095 0 -1.138)
(0.0625031 0 -1.14041)
(-0.0654333 0 -0.730066)
(-0.0588168 0 -1.06447)
(0.00941095 0 0.0967114)
(-0.0448395 0 -0.312965)
(0.0883298 0 0.720517)
(0.062302 0 0.447617)
(0.162753 0 0.80309)
(0.111159 0 0.93117)
(0.311536 0 -0.614745)
(0.262019 0 0.597785)
(-0.0178701 0 -1.88575)
(0.28571 0 -1.77092)
(-0.328518 0 -0.62172)
(-0.319051 0 -1.8022)
(-0.15513 0 0.860985)
(-0.253948 0 0.59439)
(-0.0822759 0 0.946585)
(-0.0968612 0 1.03888)
(-0.0473988 0 0.751814)
(-0.0664059 0 0.810482)
(-0.0180156 0 0.653186)
(-0.0343451 0 0.666341)
(0.00922509 0 0.629902)
(-0.00507276 0 0.616601)
(0.0418023 0 0.684346)
(0.025384 0 0.618389)
(0.0866756 0 0.857871)
(0.0642704 0 0.717904)
(0.173151 0 0.810794)
(0.104101 0 0.944482)
(0.353288 0 -0.642463)
(0.290717 0 0.584867)
(-0.0149569 0 -1.95272)
(0.313135 0 -1.81539)
(-0.322174 0 -0.65829)
(-0.313473 0 -1.88093)
(-0.130248 0 0.927031)
(-0.237757 0 0.597681)
(-0.0557377 0 1.12147)
(-0.0613316 0 1.16332)
(-0.0390132 0 1.03838)
(0.000301507 0 -0.00638177)
(0.000169072 0 -0.00353924)
(0.000319481 0 -0.0119789)
(0.000204452 0 -0.00939907)
(0.000347768 0 -0.0174058)
(0.000214438 0 -0.0147544)
(0.000392676 0 -0.0230781)
(0.000250377 0 -0.0203003)
(0.000460451 0 -0.0291063)
(0.000313001 0 -0.0261627)
(0.000554037 0 -0.0355734)
(0.000401195 0 -0.0324304)
(0.000674762 0 -0.0425438)
(0.00051872 0 -0.0391723)
(0.000824168 0 -0.0500668)
(0.000667433 0 -0.046446)
(0.0010048 0 -0.0581772)
(0.00084948 0 -0.0542933)
(0.0012204 0 -0.0669015)
(0.00106847 0 -0.0627441)
(0.00147605 0 -0.0762648)
(0.00132945 0 -0.0718238)
(0.00177844 0 -0.0862966)
(0.00163903 0 -0.0815598)
(0.00213647 0 -0.0970336)
(0.00200586 0 -0.0919861)
(0.0025621 0 -0.108524)
(0.00244147 0 -0.103147)
(0.00307167 0 -0.120826)
(0.00296135 0 -0.115098)
(0.003688 0 -0.134015)
(0.00358664 0 -0.12791)
(0.00444361 0 -0.148173)
(0.00434679 0 -0.141669)
(0.00538634 0 -0.163393)
(0.00528376 0 -0.156474)
(0.00658891 0 -0.179772)
(0.00645905 0 -0.172435)
(0.00816563 0 -0.197385)
(0.00796558 0 -0.189671)
(0.0103023 0 -0.216182)
(0.00994892 0 -0.208278)
(0.0133184 0 -0.235632)
(0.0126421 0 -0.228155)
(0.017821 0 -0.254233)
(0.0164413 0 -0.248526)
(0.02512 0 -0.270764)
(0.022166 0 -0.267578)
(0.0381325 0 -0.294)
(0.0316299 0 -0.285672)
(0.0614102 0 -0.36787)
(0.0482813 0 -0.32136)
(0.0914072 0 -0.577277)
(0.0766948 0 -0.440973)
(0.0887235 0 -0.91341)
(0.103414 0 -0.730363)
(0.00656888 0 -1.07054)
(0.0592544 0 -1.0701)
(-0.0554534 0 -0.722594)
(-0.0469142 0 -1.01387)
(0.0122834 0 0.0412952)
(-0.0419628 0 -0.358123)
(0.0972342 0 0.662339)
(0.0636725 0 0.390983)
(0.179397 0 0.726918)
(0.118374 0 0.876395)
(0.295424 0 -0.558095)
(0.269314 0 0.520433)
(-0.0162413 0 -1.68437)
(0.253299 0 -1.56314)
(-0.306032 0 -0.582444)
(-0.277791 0 -1.609)
(-0.164645 0 0.776015)
(-0.251168 0 0.500131)
(-0.0899575 0 0.906213)
(-0.0985938 0 0.989092)
(-0.0535505 0 0.72759)
(-0.0695964 0 0.78621)
(-0.0209849 0 0.631759)
(-0.037249 0 0.644631)
(0.0105489 0 0.607256)
(-0.0057915 0 0.595578)
(0.0467698 0 0.655148)
(0.0269607 0 0.594242)
(0.0940452 0 0.808527)
(0.0674938 0 0.686387)
(0.184061 0 0.719389)
(0.107739 0 0.884472)
(0.328503 0 -0.590161)
(0.288172 0 0.488572)
(0.00242989 0 -1.74317)
(0.277521 0 -1.59801)
(-0.289395 0 -0.623831)
(-0.257649 0 -1.68638)
(-0.131756 0 0.835404)
(-0.227775 0 0.492588)
(-0.0549125 0 1.08321)
(-0.0538636 0 1.11209)
(-0.0362625 0 1.01999)
(6.76229e-05 0 -0.00641811)
(-0.000210986 0 -0.00355923)
(8.52041e-05 0 -0.0120487)
(-0.000174635 0 -0.00945375)
(0.000116671 0 -0.0175183)
(-0.000162905 0 -0.0148477)
(0.000169701 0 -0.0232471)
(-0.000120681 0 -0.0204502)
(0.000250187 0 -0.029339)
(-4.81172e-05 0 -0.0263796)
(0.000361726 0 -0.0358699)
(5.41294e-05 0 -0.0327169)
(0.000506498 0 -0.0429021)
(0.0001905 0 -0.0395269)
(0.000686805 0 -0.050486)
(0.000363591 0 -0.046867)
(0.000906062 0 -0.0586589)
(0.000576303 0 -0.0547814)
(0.00116913 0 -0.0674495)
(0.000833112 0 -0.0633024)
(0.0014825 0 -0.0768853)
(0.00114014 0 -0.0724579)
(0.00185466 0 -0.0869982)
(0.00150534 0 -0.0822776)
(0.00229675 0 -0.0978289)
(0.00193901 0 -0.092799)
(0.00282363 0 -0.10943)
(0.00245473 0 -0.10407)
(0.00345531 0 -0.121867)
(0.0030705 0 -0.116153)
(0.00421932 0 -0.135224)
(0.00381054 0 -0.129127)
(0.00515411 0 -0.149599)
(0.00470803 0 -0.143089)
(0.00631477 0 -0.165107)
(0.00580935 0 -0.158155)
(0.00778224 0 -0.18188)
(0.00718083 0 -0.17446)
(0.00967867 0 -0.200053)
(0.00891964 0 -0.192166)
(0.0121942 0 -0.219677)
(0.0111726 0 -0.211433)
(0.0156425 0 -0.240426)
(0.0141674 0 -0.232279)
(0.0206071 0 -0.261259)
(0.0182771 0 -0.254186)
(0.0283322 0 -0.281948)
(0.0242498 0 -0.275974)
(0.0414255 0 -0.31225)
(0.0337388 0 -0.299239)
(0.0630547 0 -0.391933)
(0.0496765 0 -0.342724)
(0.0871461 0 -0.587566)
(0.0742909 0 -0.463659)
(0.0793975 0 -0.879122)
(0.0926486 0 -0.723407)
(0.0101485 0 -1.0145)
(0.052938 0 -1.01084)
(-0.0444277 0 -0.715294)
(-0.0359846 0 -0.969343)
(0.0120531 0 -0.00870393)
(-0.0382227 0 -0.395777)
(0.0966969 0 0.604604)
(0.0585204 0 0.334553)
(0.181012 0 0.666437)
(0.117434 0 0.820184)
(0.267527 0 -0.492473)
(0.257269 0 0.462757)
(-0.00919863 0 -1.49716)
(0.221961 0 -1.37866)
(-0.265781 0 -0.533893)
(-0.234246 0 -1.43795)
(-0.157316 0 0.709903)
(-0.230871 0 0.427821)
(-0.0874428 0 0.868887)
(-0.0926124 0 0.94251)
(-0.0535885 0 0.703954)
(-0.066727 0 0.763641)
(-0.0217607 0 0.609366)
(-0.0368603 0 0.623412)
(0.0103359 0 0.583485)
(-0.00618833 0 0.574181)
(0.0466383 0 0.626159)
(0.0259053 0 0.570041)
(0.0932103 0 0.761942)
(0.0653449 0 0.655339)
(0.180029 0 0.648767)
(0.106292 0 0.826593)
(0.289632 0 -0.530926)
(0.26711 0 0.415503)
(0.0135603 0 -1.5534)
(0.242493 0 -1.41396)
(-0.240782 0 -0.578774)
(-0.208118 0 -1.51681)
(-0.116673 0 0.764754)
(-0.198181 0 0.409849)
(-0.0450035 0 1.0486)
(-0.0401468 0 1.06431)
(-0.0274528 0 1.00435)
(-0.000458508 0 -0.00645416)
(-0.00090268 0 -0.00358084)
(-0.000438609 0 -0.0121247)
(-0.000858649 0 -0.00951564)
(-0.000401069 0 -0.0176467)
(-0.000843876 0 -0.014959)
(-0.000339575 0 -0.0234412)
(-0.000796018 0 -0.0206241)
(-0.000247818 0 -0.0296059)
(-0.000713579 0 -0.0266269)
(-0.000121492 0 -0.0362106)
(-0.000599337 0 -0.0330415)
(4.23308e-05 0 -0.0433154)
(-0.00044821 0 -0.0399281)
(0.000246663 0 -0.0509718)
(-0.000256628 0 -0.0473441)
(0.000495645 0 -0.0592193)
(-2.11124e-05 0 -0.0553356)
(0.000794974 0 -0.0680893)
(0.00026339 0 -0.0639377)
(0.00115215 0 -0.077612)
(0.0006037 0 -0.0731805)
(0.00157687 0 -0.0878224)
(0.00100859 0 -0.0830969)
(0.00208171 0 -0.0987648)
(0.00148932 0 -0.0937274)
(0.00268322 0 -0.110497)
(0.00206054 0 -0.105125)
(0.00340338 0 -0.123093)
(0.00274142 0 -0.117357)
(0.00427194 0 -0.136644)
(0.00355739 0 -0.130511)
(0.0053297 0 -0.151266)
(0.00454272 0 -0.144696)
(0.00663388 0 -0.167093)
(0.00574451 0 -0.160043)
(0.00826649 0 -0.184291)
(0.00722877 0 -0.176714)
(0.0103477 0 -0.203045)
(0.00908984 0 -0.194905)
(0.013059 0 -0.223489)
(0.011466 0 -0.214834)
(0.0166907 0 -0.245469)
(0.0145656 0 -0.236622)
(0.0217707 0 -0.268349)
(0.0187206 0 -0.259978)
(0.029398 0 -0.292708)
(0.0245789 0 -0.284264)
(0.0417032 0 -0.328708)
(0.0335609 0 -0.311989)
(0.0605303 0 -0.411604)
(0.0479915 0 -0.361321)
(0.0788097 0 -0.593361)
(0.0683458 0 -0.480873)
(0.0686448 0 -0.848674)
(0.0801941 0 -0.714282)
(0.0111441 0 -0.967294)
(0.0454694 0 -0.96163)
(-0.0356068 0 -0.707896)
(-0.0281402 0 -0.931201)
(0.00930163 0 -0.052921)
(-0.035603 0 -0.425715)
(0.0895477 0 0.549394)
(0.0485724 0 0.281056)
(0.171353 0 0.615098)
(0.109482 0 0.765647)
(0.237091 0 -0.429081)
(0.235379 0 0.418931)
(-0.00359608 0 -1.32917)
(0.192306 0 -1.2182)
(-0.227347 0 -0.483167)
(-0.19875 0 -1.28878)
(-0.143338 0 0.657943)
(-0.206857 0 0.371815)
(-0.0802196 0 0.836484)
(-0.0836799 0 0.900431)
(-0.0500436 0 0.682997)
(-0.0602956 0 0.743523)
(-0.0210732 0 0.588417)
(-0.0342538 0 0.604099)
(0.00919703 0 0.5609)
(-0.00635769 0 0.554001)
(0.0435779 0 0.599006)
(0.0231296 0 0.54712)
(0.0884842 0 0.719208)
(0.0597356 0 0.625402)
(0.169091 0 0.591196)
(0.102023 0 0.772855)
(0.253257 0 -0.475086)
(0.242236 0 0.359393)
(0.0201788 0 -1.3885)
(0.21425 0 -1.25857)
(-0.195619 0 -0.534979)
(-0.167978 0 -1.37295)
(-0.0949231 0 0.707272)
(-0.165086 0 0.342719)
(-0.030563 0 1.01933)
(-0.0237515 0 1.02141)
(-0.0141031 0 0.991543)
(-0.00131022 0 -0.00650039)
(-0.00191794 0 -0.00360961)
(-0.001285 0 -0.012219)
(-0.00186592 0 -0.0095941)
(-0.0012405 0 -0.0177994)
(-0.00184623 0 -0.0150909)
(-0.00117048 0 -0.0236643)
(-0.00179141 0 -0.020822)
(-0.00106877 0 -0.0299066)
(-0.0017001 0 -0.026901)
(-0.000930676 0 -0.0365912)
(-0.00157642 0 -0.0333962)
(-0.00075264 0 -0.0437757)
(-0.00141462 0 -0.0403642)
(-0.000531085 0 -0.0515123)
(-0.00121041 0 -0.0478614)
(-0.000261394 0 -0.0598428)
(-0.000959951 0 -0.055936)
(6.25984e-05 0 -0.0688013)
(-0.000657925 0 -0.0646253)
(0.0004489 0 -0.0784205)
(-0.000297226 0 -0.0739621)
(0.000907772 0 -0.0887385)
(0.000131193 0 -0.083982)
(0.00145239 0 -0.0998038)
(0.000638849 0 -0.0947289)
(0.00209987 0 -0.111679)
(0.00124054 0 -0.10626)
(0.00287266 0 -0.124445)
(0.00195542 0 -0.118649)
(0.00380067 0 -0.138204)
(0.00280852 0 -0.13199)
(0.00492428 0 -0.153083)
(0.00383316 0 -0.146402)
(0.00629902 0 -0.169237)
(0.00507433 0 -0.162034)
(0.00800282 0 -0.18686)
(0.00659394 0 -0.179066)
(0.0101471 0 -0.206178)
(0.00847837 0 -0.197727)
(0.0128947 0 -0.227398)
(0.0108507 0 -0.218281)
(0.0164979 0 -0.250512)
(0.0138914 0 -0.240931)
(0.021407 0 -0.275231)
(0.0178824 0 -0.265574)
(0.0285468 0 -0.302766)
(0.0233662 0 -0.292024)
(0.0395895 0 -0.343263)
(0.03153 0 -0.32343)
(0.0554398 0 -0.427571)
(0.0441638 0 -0.376978)
(0.069059 0 -0.596218)
(0.0606445 0 -0.493697)
(0.0581138 0 -0.821819)
(0.0678875 0 -0.704456)
(0.00993422 0 -0.927054)
(0.0376195 0 -0.920397)
(-0.0304641 0 -0.700222)
(-0.0239186 0 -0.898241)
(0.00384454 0 -0.0916651)
(-0.0353405 0 -0.448588)
(0.0770643 0 0.497243)
(0.0352998 0 0.232243)
(0.154461 0 0.569349)
(0.095348 0 0.71405)
(0.207299 0 -0.372752)
(0.20921 0 0.383706)
(-0.00244156 0 -1.18304)
(0.164771 0 -1.07838)
(-0.19738 0 -0.436936)
(-0.171738 0 -1.15882)
(-0.12848 0 0.613829)
(-0.184956 0 0.325881)
(-0.0708136 0 0.80737)
(-0.0730043 0 0.861987)
(-0.0442997 0 0.664633)
(-0.0515702 0 0.725847)
(-0.0194359 0 0.569777)
(-0.0301349 0 0.587523)
(0.00743845 0 0.540334)
(-0.0063943 0 0.536085)
(0.0384362 0 0.573543)
(0.0191595 0 0.526455)
(0.0811608 0 0.679004)
(0.0518003 0 0.596919)
(0.156521 0 0.540955)
(0.0950035 0 0.722615)
(0.225037 0 -0.426809)
(0.220276 0 0.313715)
(0.0241986 0 -1.24865)
(0.193471 0 -1.12468)
(-0.159175 0 -0.498348)
(-0.134873 0 -1.2507)
(-0.0723989 0 0.656632)
(-0.134776 0 0.284868)
(-0.0129194 0 0.993486)
(-0.0052943 0 0.981754)
(0.00285155 0 0.981539)
(-0.00248167 0 -0.00655999)
(-0.00323896 0 -0.00364635)
(-0.00245075 0 -0.012334)
(-0.00318058 0 -0.00969027)
(-0.00239897 0 -0.0179756)
(-0.00315561 0 -0.0152445)
(-0.00232114 0 -0.0239119)
(-0.00309426 0 -0.021042)
(-0.00221149 0 -0.0302332)
(-0.00299612 0 -0.0271965)
(-0.00206509 0 -0.0369999)
(-0.00286608 0 -0.0337724)
(-0.00187792 0 -0.0442672)
(-0.00269798 0 -0.0408226)
(-0.00164602 0 -0.0520878)
(-0.00248711 0 -0.0484029)
(-0.00136458 0 -0.0605054)
(-0.00222948 0 -0.0565625)
(-0.00102731 0 -0.0695565)
(-0.00191978 0 -0.0653411)
(-0.000626165 0 -0.0792764)
(-0.00155102 0 -0.0747737)
(-0.000150943 0 -0.0897063)
(-0.00111437 0 -0.0848986)
(0.000411353 0 -0.100898)
(-0.000598685 0 -0.0957629)
(0.00107741 0 -0.11292)
(1.02238e-05 0 -0.107427)
(0.0018689 0 -0.125859)
(0.000730488 0 -0.119971)
(0.00281429 0 -0.139825)
(0.00158553 0 -0.133496)
(0.00395141 0 -0.154957)
(0.0026061 0 -0.148129)
(0.00533131 0 -0.171428)
(0.00383313 0 -0.164032)
(0.00702402 0 -0.189454)
(0.00532193 0 -0.181402)
(0.0091272 0 -0.209298)
(0.0071481 0 -0.200495)
(0.0117798 0 -0.231221)
(0.00941647 0 -0.221609)
(0.015192 0 -0.255339)
(0.0122771 0 -0.245012)
(0.0197383 0 -0.281651)
(0.0159635 0 -0.270758)
(0.0261877 0 -0.311839)
(0.0209267 0 -0.299033)
(0.0358423 0 -0.35577)
(0.0281497 0 -0.333434)
(0.0489936 0 -0.440271)
(0.0389915 0 -0.389969)
(0.0590398 0 -0.596979)
(0.0521924 0 -0.503158)
(0.0479563 0 -0.798159)
(0.0561548 0 -0.694506)
(0.00681071 0 -0.892511)
(0.0295179 0 -0.885184)
(-0.0288256 0 -0.692025)
(-0.0228029 0 -0.869167)
(-0.00414178 0 -0.124604)
(-0.0375664 0 -0.465044)
(0.0605204 0 0.449016)
(0.0199733 0 0.189134)
(0.133414 0 0.528115)
(0.0765813 0 0.665454)
(0.178785 0 -0.323445)
(0.181648 0 0.353459)
(-0.00388653 0 -1.05662)
(0.140105 0 -0.956595)
(-0.173768 0 -0.397134)
(-0.149537 0 -1.04557)
(-0.113569 0 0.574116)
(-0.164849 0 0.285749)
(-0.0595929 0 0.780561)
(-0.0599469 0 0.826003)
(-0.0369715 0 0.648856)
(-0.0411189 0 0.710766)
(-0.0171602 0 0.553971)
(-0.0249549 0 0.574316)
(0.00526026 0 0.522368)
(-0.00634973 0 0.521138)
(0.031789 0 0.550001)
(0.0143959 0 0.508769)
(0.0716742 0 0.640618)
(0.0423817 0 0.570329)
(0.14401 0 0.495332)
(0.085141 0 0.674391)
(0.204068 0 -0.385495)
(0.201739 0 0.273677)
(0.0304928 0 -1.12923)
(0.178241 0 -1.00896)
(-0.128163 0 -0.468667)
(-0.105363 0 -1.14493)
(-0.0501482 0 0.61005)
(-0.106614 0 0.232858)
(0.00645113 0 0.96979)
(0.0159227 0 0.944021)
(0.0226588 0 0.973876)
(-0.00394617 0 -0.00663181)
(-0.00483951 0 -0.00368992)
(-0.00391046 0 -0.0124673)
(-0.00477672 0 -0.00980134)
(-0.00385283 0 -0.0181714)
(-0.00474731 0 -0.0154154)
(-0.00376921 0 -0.0241781)
(-0.00468113 0 -0.0212784)
(-0.00365446 0 -0.0305767)
(-0.00457871 0 -0.0275057)
(-0.00350368 0 -0.0374243)
(-0.00444569 0 -0.0341598)
(-0.00331264 0 -0.0447743)
(-0.0042758 0 -0.0412906)
(-0.00307722 0 -0.0526791)
(-0.00406414 0 -0.0489527)
(-0.00279262 0 -0.061184)
(-0.00380675 0 -0.0571961)
(-0.00245281 0 -0.0703275)
(-0.00349858 0 -0.0660623)
(-0.00205011 0 -0.0801475)
(-0.00313309 0 -0.0755885)
(-0.00157487 0 -0.0906878)
(-0.00270209 0 -0.0858153)
(-0.00101488 0 -0.102004)
(-0.00219528 0 -0.0967926)
(-0.000354641 0 -0.114168)
(-0.00159966 0 -0.108585)
(0.000425771 0 -0.127272)
(-0.000898861 0 -0.121276)
(0.00135215 0 -0.141435)
(-7.19152e-05 0 -0.134972)
(0.0024583 0 -0.156805)
(0.000908371 0 -0.14981)
(0.00378913 0 -0.173568)
(0.00207773 0 -0.165959)
(0.00540515 0 -0.19196)
(0.00348363 0 -0.183633)
(0.00738885 0 -0.212269)
(0.00518994 0 -0.203105)
(0.00985493 0 -0.234803)
(0.0072836 0 -0.224702)
(0.0129753 0 -0.259774)
(0.00988637 0 -0.248743)
(0.0170598 0 -0.287423)
(0.013189 0 -0.275414)
(0.0227478 0 -0.319776)
(0.0175675 0 -0.305215)
(0.031047 0 -0.366278)
(0.0238316 0 -0.342033)
(0.0418328 0 -0.450191)
(0.0329867 0 -0.400622)
(0.0490515 0 -0.596197)
(0.0434162 0 -0.509955)
(0.0380262 0 -0.777081)
(0.0449322 0 -0.684608)
(0.0021456 0 -0.862363)
(0.0211257 0 -0.854477)
(-0.0299329 0 -0.682969)
(-0.024068 0 -0.842995)
(-0.0139709 0 -0.151405)
(-0.0417734 0 -0.475685)
(0.0414234 0 0.405325)
(0.00356389 0 0.152205)
(0.110372 0 0.490232)
(0.0552104 0 0.619488)
(0.152447 0 -0.281042)
(0.154524 0 0.325409)
(-0.00505951 0 -0.947198)
(0.119278 0 -0.851591)
(-0.152362 0 -0.363473)
(-0.128878 0 -0.947365)
(-0.097317 0 0.537476)
(-0.144387 0 0.249052)
(-0.0462766 0 0.75613)
(-0.0441041 0 0.791976)
(-0.028441 0 0.636251)
(-0.0293409 0 0.698876)
(-0.0144354 0 0.541565)
(-0.0190988 0 0.564979)
(0.00285213 0 0.507624)
(-0.00625581 0 0.509613)
(0.0242347 0 0.529126)
(0.00920046 0 0.494514)
(0.060406 0 0.603981)
(0.03213 0 0.546215)
(0.13112 0 0.452376)
(0.0730237 0 0.627249)
(0.187507 0 -0.350865)
(0.184964 0 0.236085)
(0.038224 0 -1.02625)
(0.167236 0 -0.909443)
(-0.0989199 0 -0.444297)
(-0.0769152 0 -1.0535)
(-0.0270755 0 0.566599)
(-0.0784315 0 0.184962)
(0.0282247 0 0.947948)
(0.0402298 0 0.907155)
(0.0446294 0 0.968687)
(-0.00567846 0 -0.00671299)
(-0.00669956 0 -0.00373862)
(-0.00563925 0 -0.0126145)
(-0.00663383 0 -0.00992331)
(-0.00557756 0 -0.0183812)
(-0.00660115 0 -0.0155984)
(-0.00549048 0 -0.0244558)
(-0.00653198 0 -0.0215246)
(-0.00537362 0 -0.030928)
(-0.00642776 0 -0.0278207)
(-0.0052224 0 -0.0378533)
(-0.00629497 0 -0.0345484)
(-0.00503258 0 -0.045283)
(-0.00612749 0 -0.0417556)
(-0.00480006 0 -0.0532693)
(-0.00592044 0 -0.0494957)
(-0.00452029 0 -0.0618584)
(-0.00567006 0 -0.057819)
(-0.0041877 0 -0.0710907)
(-0.00537175 0 -0.0667682)
(-0.00379534 0 -0.0810061)
(-0.00501967 0 -0.0763824)
(-0.00333448 0 -0.0916508)
(-0.00460654 0 -0.0867043)
(-0.00279419 0 -0.103083)
(-0.00412326 0 -0.0977862)
(-0.00216068 0 -0.11538)
(-0.00355846 0 -0.109695)
(-0.00141639 0 -0.128636)
(-0.00289798 0 -0.122519)
(-0.000538854 0 -0.142978)
(-0.00212385 0 -0.13637)
(0.000500976 0 -0.158562)
(-0.0012129 0 -0.151389)
(0.00174117 0 -0.175583)
(-0.00013502 0 -0.167754)
(0.00323227 0 -0.194293)
(0.00114918 0 -0.185691)
(0.00504214 0 -0.215)
(0.00269184 0 -0.205486)
(0.00726364 0 -0.238046)
(0.0045632 0 -0.227489)
(0.0100357 0 -0.263726)
(0.00686049 0 -0.252058)
(0.0136143 0 -0.29248)
(0.00973779 0 -0.279494)
(0.0185285 0 -0.326589)
(0.0135088 0 -0.310556)
(0.0255436 0 -0.374991)
(0.0188342 0 -0.349302)
(0.0342435 0 -0.457811)
(0.0264199 0 -0.409216)
(0.0391462 0 -0.594255)
(0.0344576 0 -0.514572)
(0.0282823 0 -0.758072)
(0.0340713 0 -0.674856)
(-0.00317751 0 -0.835476)
(0.0124616 0 -0.827554)
(-0.0330665 0 -0.67272)
(-0.0271672 0 -0.81861)
(-0.0249654 0 -0.172229)
(-0.0474942 0 -0.481086)
(0.0212418 0 0.366079)
(-0.0132453 0 0.1214)
(0.0871337 0 0.454129)
(0.0333118 0 0.57556)
(0.129233 0 -0.246271)
(0.12923 0 0.297342)
(-0.00418438 0 -0.853168)
(0.102752 0 -0.762646)
(-0.130719 0 -0.335679)
(-0.108511 0 -0.863009)
(-0.0790043 0 0.503216)
(-0.12262 0 0.214575)
(-0.0310363 0 0.73454)
(-0.0263453 0 0.759997)
(-0.0191536 0 0.627522)
(-0.0168361 0 0.690954)
(-0.0114504 0 0.533013)
(-0.0129752 0 0.559843)
(0.000261633 0 0.496488)
(-0.00622214 0 0.501805)
(0.0162865 0 0.511494)
(0.00380555 0 0.483831)
(0.0480936 0 0.569239)
(0.0215931 0 0.52501)
(0.117675 0 0.410502)
(0.0600782 0 0.580862)
(0.173881 0 -0.323465)
(0.169325 0 0.198615)
(0.0477917 0 -0.937969)
(0.160392 0 -0.825383)
(-0.0693857 0 -0.424918)
(-0.0479951 0 -0.975382)
(-0.00201976 0 0.525253)
(-0.0496632 0 0.140051)
(0.0528146 0 0.927728)
(0.0665009 0 0.870598)
(0.068104 0 0.966839)
(-0.00766337 0 -0.00680079)
(-0.00880912 0 -0.00379122)
(-0.00762167 0 -0.0127709)
(-0.00874114 0 -0.010053)
(-0.00755748 0 -0.0185991)
(-0.00870609 0 -0.0157887)
(-0.00746899 0 -0.0247377)
(-0.00863542 0 -0.0217748)
(-0.00735267 0 -0.0312786)
(-0.00853143 0 -0.0281343)
(-0.00720445 0 -0.0382762)
(-0.00840149 0 -0.0349293)
(-0.00702033 0 -0.0457806)
(-0.00823992 0 -0.0422066)
(-0.00679643 0 -0.0538432)
(-0.00804207 0 -0.0500186)
(-0.00652859 0 -0.062511)
(-0.00780456 0 -0.0584153)
(-0.00621188 0 -0.0718255)
(-0.00752335 0 -0.0674404)
(-0.00584028 0 -0.0818286)
(-0.00719346 0 -0.0771343)
(-0.00540626 0 -0.0925685)
(-0.00680871 0 -0.0875415)
(-0.00490045 0 -0.104106)
(-0.00636143 0 -0.0987163)
(-0.00431111 0 -0.11652)
(-0.00584214 0 -0.110729)
(-0.00362343 0 -0.129912)
(-0.00523916 0 -0.123669)
(-0.00281864 0 -0.144411)
(-0.00453779 0 -0.137652)
(-0.0018727 0 -0.160178)
(-0.00371911 0 -0.152825)
(-0.000754425 0 -0.17742)
(-0.00275866 0 -0.169373)
(0.000577106 0 -0.196397)
(-0.00162489 0 -0.187529)
(0.00217617 0 -0.217434)
(-0.000276693 0 -0.20759)
(0.00411605 0 -0.2409)
(0.00134069 0 -0.229923)
(0.00650723 0 -0.267159)
(0.0033028 0 -0.254918)
(0.00956012 0 -0.29682)
(0.00573259 0 -0.282975)
(0.0137077 0 -0.33234)
(0.00889051 0 -0.315064)
(0.0195102 0 -0.3821)
(0.0133066 0 -0.355314)
(0.0263451 0 -0.463479)
(0.0194294 0 -0.415967)
(0.0292917 0 -0.591376)
(0.0253637 0 -0.517347)
(0.0185377 0 -0.740737)
(0.0234367 0 -0.665202)
(-0.00964203 0 -0.810995)
(0.00359012 0 -0.803437)
(-0.0378836 0 -0.66106)
(-0.031745 0 -0.795568)
(-0.0366866 0 -0.187536)
(-0.0544329 0 -0.481884)
(0.000985909 0 0.330678)
(-0.0299854 0 0.0962849)
(0.0652592 0 0.418355)
(0.0126221 0 0.532711)
(0.10954 0 -0.219805)
(0.106801 0 0.267822)
(-0.00136073 0 -0.773588)
(0.0901799 0 -0.688712)
(-0.108693 0 -0.31358)
(-0.0888034 0 -0.791454)
(-0.0595715 0 0.470983)
(-0.100536 0 0.181828)
(-0.0149418 0 0.716224)
(-0.00868716 0 0.730244)
(-0.00976686 0 0.623153)
(-0.00452797 0 0.687504)
(-0.00845139 0 0.528545)
(-0.00706781 0 0.558966)
(-0.00237984 0 0.489079)
(-0.00645274 0 0.497757)
(0.00831775 0 0.497222)
(-0.00175775 0 0.476699)
(0.0358777 0 0.536391)
(0.0112369 0 0.506637)
(0.104783 0 0.368555)
(0.0481189 0 0.534925)
(0.163446 0 -0.30411)
(0.155857 0 0.159506)
(0.0599619 0 -0.863799)
(0.158342 0 -0.756394)
(-0.0386979 0 -0.411297)
(-0.0178685 0 -0.909609)
(0.0278955 0 0.485162)
(-0.0209263 0 0.0956559)
(0.0788832 0 0.909858)
(0.0927812 0 0.836607)
(0.091945 0 0.968871)
(-0.00989537 0 -0.00689356)
(-0.0111645 0 -0.0038472)
(-0.00985171 0 -0.0129333)
(-0.0110943 0 -0.0101889)
(-0.00978595 0 -0.0188206)
(-0.0110574 0 -0.0159838)
(-0.00969744 0 -0.0250182)
(-0.0109862 0 -0.0220251)
(-0.00958362 0 -0.0316211)
(-0.0108837 0 -0.0284411)
(-0.00944108 0 -0.0386839)
(-0.0107585 0 -0.0352956)
(-0.00926628 0 -0.0462557)
(-0.0106055 0 -0.0426349)
(-0.00905572 0 -0.0543873)
(-0.0104205 0 -0.0505104)
(-0.00880575 0 -0.0631258)
(-0.0102006 0 -0.0589719)
(-0.00851225 0 -0.0725136)
(-0.0099425 0 -0.0680634)
(-0.00817024 0 -0.082594)
(-0.0096421 0 -0.0778264)
(-0.00777357 0 -0.093417)
(-0.00929448 0 -0.0883067)
(-0.00731462 0 -0.105046)
(-0.00889355 0 -0.0995603)
(-0.00678386 0 -0.117561)
(-0.00843185 0 -0.111659)
(-0.0061694 0 -0.131067)
(-0.00790033 0 -0.124695)
(-0.00545628 0 -0.145696)
(-0.00728764 0 -0.138788)
(-0.00462548 0 -0.161616)
(-0.00657914 0 -0.154087)
(-0.00365257 0 -0.179039)
(-0.00575588 0 -0.170782)
(-0.00250569 0 -0.198233)
(-0.00479378 0 -0.189112)
(-0.0011432 0 -0.219534)
(-0.00366194 0 -0.209383)
(0.000490754 0 -0.243333)
(-0.00231966 0 -0.231972)
(0.00248213 0 -0.270055)
(-0.000710771 0 -0.257299)
(0.00500155 0 -0.300447)
(0.00126089 0 -0.285847)
(0.00839701 0 -0.337075)
(0.00380887 0 -0.318755)
(0.0130525 0 -0.387737)
(0.00734717 0 -0.360138)
(0.0182025 0 -0.46743)
(0.0121055 0 -0.421055)
(0.0194685 0 -0.587674)
(0.0161791 0 -0.518539)
(0.00878902 0 -0.724651)
(0.012977 0 -0.655615)
(-0.0168746 0 -0.78828)
(-0.00548057 0 -0.781474)
(-0.0440758 0 -0.64805)
(-0.0376172 0 -0.773376)
(-0.0486809 0 -0.198226)
(-0.0623655 0 -0.478814)
(-0.0170221 0 0.298189)
(-0.0461783 0 0.075179)
(0.0459976 0 0.382015)
(-0.00560505 0 0.490698)
(0.0933159 0 -0.20157)
(0.0878056 0 0.236277)
(0.00267797 0 -0.707321)
(0.0807326 0 -0.628287)
(-0.0875801 0 -0.29672)
(-0.070644 0 -0.731282)
(-0.0411326 0 0.440732)
(-0.0801674 0 0.150863)
(-0.000100976 0 0.701348)
(0.00659047 0 0.702889)
(-0.0011745 0 0.623185)
(0.00649819 0 0.68822)
(-0.00583896 0 0.528081)
(-0.00194738 0 0.562076)
(-0.00533189 0 0.485269)
(-0.00717202 0 0.497419)
(0.000618838 0 0.485991)
(-0.00758299 0 0.472732)
(0.0248794 0 0.504993)
(0.00137228 0 0.490463)
(0.0941991 0 0.325538)
(0.0385705 0 0.488711)
(0.157299 0 -0.293375)
(0.146118 0 0.11744)
(0.0754937 0 -0.803077)
(0.161373 0 -0.701858)
(-0.00647172 0 -0.403057)
(0.0140557 0 -0.854965)
(0.0552535 0 0.4469)
(0.00737546 0 0.0545058)
(0.103897 0 0.895187)
(0.117003 0 0.804177)
(0.114528 0 0.974356)
(-0.012372 0 -0.00699077)
(-0.0137614 0 -0.00390647)
(-0.0123265 0 -0.0131005)