/*--------------------------------*- C++ -*----------------------------------*\
  =========                 |
  \\      /  F ield         | OpenFOAM: The Open Source CFD Toolbox
   \\    /   O peration     | Website:  https://openfoam.org
    \\  /    A nd           | Version:  9
     \\/     M anipulation  |
\*---------------------------------------------------------------------------*/
FoamFile
{
    format      ascii;
    class       volScalarField;
    location    "0.17";
    object      alpha.water;
}
// * * * * * * * * * * * * * * * * * * * * * * * * * * * * * * * * * * * * * //

dimensions      [0 0 0 0 0 0 0];

internalField   nonuniform List<scalar> 
20000
(
3.7383e-319
3.56725e-319
3.40391e-319
3.24799e-319
3.09917e-319
2.95688e-319
2.82111e-319
2.69157e-319
2.56776e-319
2.44968e-319
2.33693e-319
2.22922e-319
2.12656e-319
2.02863e-319
1.93516e-319
1.84603e-319
1.76095e-319
1.67992e-319
1.60265e-319
1.52903e-319
1.45888e-319
1.39198e-319
1.32825e-319
1.26757e-319
1.20977e-319
1.15473e-319
1.10216e-319
1.05196e-319
1.00414e-319
9.58487e-320
7.84774e-320
7.85564e-320
7.86553e-320
7.87639e-320
7.88924e-320
7.90307e-320
7.92086e-320
7.94556e-320
7.9841e-320
8.05129e-320
8.16592e-320
8.32303e-320
8.43666e-320
8.43864e-320
8.42777e-320
8.52263e-320
8.64813e-320
8.43074e-320
7.96434e-320
7.6343e-320
7.39122e-320
7.1679e-320
6.80822e-320
1.01442e-319
1.01204e-319
6.70447e-320
7.24893e-320
1.01372e-319
7.76869e-320
7.26276e-320
7.30229e-320
7.27067e-320
7.16988e-320
7.02561e-320
6.77858e-320
1.01185e-319
9.64317e-320
6.7272e-320
6.99399e-320
7.17383e-320
8.93271e-320
9.50187e-320
1.00967e-319
1.0737e-319
1.14564e-319
1.22726e-319
1.31076e-319
1.38081e-319
1.43902e-319
1.49771e-319
1.56184e-319
1.6317e-319
1.70631e-319
1.78516e-319
1.86836e-319
1.95571e-319
2.04761e-319
2.14405e-319
2.24523e-319
2.35136e-319
2.46262e-319
2.57942e-319
2.70185e-319
2.83021e-319
2.96469e-319
3.1056e-319
3.25322e-319
3.40787e-319
3.56972e-319
3.73919e-319
3.7381e-319
3.56715e-319
3.40391e-319
3.24799e-319
3.09908e-319
2.95688e-319
2.82111e-319
2.69147e-319
2.56776e-319
2.44958e-319
2.33683e-319
2.22922e-319
2.12656e-319
2.02863e-319
1.93516e-319
1.84593e-319
1.76095e-319
1.67982e-319
1.60265e-319
1.52903e-319
1.45888e-319
1.39198e-319
1.32825e-319
1.26757e-319
1.20987e-319
1.15473e-319
1.10216e-319
1.05196e-319
1.00414e-319
9.58487e-320
7.84774e-320
7.85663e-320
7.86553e-320
7.87738e-320
7.88924e-320
7.90406e-320
7.92284e-320
7.94853e-320
7.99003e-320
8.06118e-320
8.17777e-320
8.33093e-320
8.43864e-320
8.44259e-320
8.43568e-320
8.52164e-320
8.62342e-320
8.41493e-320
7.97521e-320
7.65505e-320
7.41494e-320
7.17779e-320
6.84182e-320
9.87242e-320
9.81412e-320
6.72621e-320
7.29439e-320
9.98408e-320
7.81711e-320
7.26869e-320
7.30921e-320
7.2845e-320
7.19261e-320
7.03648e-320
6.79439e-320
9.86155e-320
9.44258e-320
6.72028e-320
6.98411e-320
7.16395e-320
8.92184e-320
9.49397e-320
1.00898e-319
1.07351e-319
1.14594e-319
1.22775e-319
1.31046e-319
1.37983e-319
1.43832e-319
1.49722e-319
1.56145e-319
1.63121e-319
1.70591e-319
1.78476e-319
1.86796e-319
1.95551e-319
2.04741e-319
2.14385e-319
2.24503e-319
2.35116e-319
2.46252e-319
2.57932e-319
2.70175e-319
2.83011e-319
2.96459e-319
3.1055e-319
3.25313e-319
3.40787e-319
3.56972e-319
3.73909e-319
3.7379e-319
3.56696e-319
3.40372e-319
3.24779e-319
3.09898e-319
2.95669e-319
2.82102e-319
2.69137e-319
2.56766e-319
2.44958e-319
2.33673e-319
2.22922e-319
2.12646e-319
2.02853e-319
1.93506e-319
1.84593e-319
1.76085e-319
1.67982e-319
1.60255e-319
1.52903e-319
1.45888e-319
1.39198e-319
1.32825e-319
1.26757e-319
1.20987e-319
1.15473e-319
1.10216e-319
1.05206e-319
1.00414e-319
9.58487e-320
7.84774e-320
7.85762e-320
7.8675e-320
7.87738e-320
7.89122e-320
7.90604e-320
7.9258e-320
7.95347e-320
7.99695e-320
8.07007e-320
8.18766e-320
8.3339e-320
8.43568e-320
8.44259e-320
8.44062e-320
8.51572e-320
8.59477e-320
8.40504e-320
7.99695e-320
7.68569e-320
7.43865e-320
7.20348e-320
6.8932e-320
9.57894e-320
9.52559e-320
6.77858e-320
7.36355e-320
9.7657e-320
7.87343e-320
7.29142e-320
7.32601e-320
7.30624e-320
7.20941e-320
7.0513e-320
6.82502e-320
9.57499e-320
9.24594e-320
6.74696e-320
6.99795e-320
7.16593e-320
8.92085e-320
9.49199e-320
1.00888e-319
1.0737e-319
1.14663e-319
1.22825e-319
1.30987e-319
1.37864e-319
1.43753e-319
1.49682e-319
1.56125e-319
1.63121e-319
1.70571e-319
1.78466e-319
1.86786e-319
1.95531e-319
2.04721e-319
2.14365e-319
2.24494e-319
2.35116e-319
2.46252e-319
2.57932e-319
2.70175e-319
2.83021e-319
2.96459e-319
3.1056e-319
3.25322e-319
3.40787e-319
3.56972e-319
3.73919e-319
3.73761e-319
3.56676e-319
3.40352e-319
3.24759e-319
3.09878e-319
2.95659e-319
2.82092e-319
2.69127e-319
2.56756e-319
2.44938e-319
2.33673e-319
2.22903e-319
2.12646e-319
2.02844e-319
1.93496e-319
1.84583e-319
1.76085e-319
1.67982e-319
1.60255e-319
1.52894e-319
1.45878e-319
1.39198e-319
1.32825e-319
1.26757e-319
1.20987e-319
1.15473e-319
1.10216e-319
1.05206e-319
1.00414e-319
9.58487e-320
7.84774e-320
7.85762e-320
7.8675e-320
7.87936e-320
7.8922e-320
7.90801e-320
7.92877e-320
7.95841e-320
8.00386e-320
8.07896e-320
8.19556e-320
8.33588e-320
8.42975e-320
8.44062e-320
8.44259e-320
8.50583e-320
8.56512e-320
8.39516e-320
8.02165e-320
7.71829e-320
7.47027e-320
7.23707e-320
6.94557e-320
9.30622e-320
9.29634e-320
6.84479e-320
7.43865e-320
9.57302e-320
7.93272e-320
7.32403e-320
7.34972e-320
7.32996e-320
7.23213e-320
7.07304e-320
6.85961e-320
9.30326e-320
9.07105e-320
6.78846e-320
7.02067e-320
7.17877e-320
8.92875e-320
9.49594e-320
1.00947e-319
1.07449e-319
1.14762e-319
1.22884e-319
1.30908e-319
1.37746e-319
1.43684e-319
1.49662e-319
1.56135e-319
1.63121e-319
1.70581e-319
1.78476e-319
1.86796e-319
1.95541e-319
2.04731e-319
2.14385e-319
2.24503e-319
2.35126e-319
2.46262e-319
2.57952e-319
2.70195e-319
2.8304e-319
2.96489e-319
3.10589e-319
3.25352e-319
3.40826e-319
3.57012e-319
3.73958e-319
3.73731e-319
3.56636e-319
3.40312e-319
3.24739e-319
3.09848e-319
2.95629e-319
2.82062e-319
2.69108e-319
2.56736e-319
2.44928e-319
2.33654e-319
2.22903e-319
2.12626e-319
2.02834e-319
1.93496e-319
1.84583e-319
1.76085e-319
1.67982e-319
1.60255e-319
1.52894e-319
1.45878e-319
1.39188e-319
1.32825e-319
1.26757e-319
1.20987e-319
1.15473e-319
1.10216e-319
1.05206e-319
1.00424e-319
9.58487e-320
7.84774e-320
7.85762e-320
7.8675e-320
7.87936e-320
7.89319e-320
7.91098e-320
7.93272e-320
7.96335e-320
8.01177e-320
8.08884e-320
8.20248e-320
8.3339e-320
8.42283e-320
8.43666e-320
8.44161e-320
8.49398e-320
8.53745e-320
8.38726e-320
8.04734e-320
7.7509e-320
7.50486e-320
7.27561e-320
6.99597e-320
9.07895e-320
9.11452e-320
6.91297e-320
7.50782e-320
9.40503e-320
7.99003e-320
7.36355e-320
7.37739e-320
7.35367e-320
7.25585e-320
7.10071e-320
6.89518e-320
9.06413e-320
8.9169e-320
6.83392e-320
7.04735e-320
7.19755e-320
8.94259e-320
9.50582e-320
1.01046e-319
1.07568e-319
1.1489e-319
1.22943e-319
1.30848e-319
1.37637e-319
1.43635e-319
1.49662e-319
1.56154e-319
1.6314e-319
1.70611e-319
1.78496e-319
1.86816e-319
1.95571e-319
2.04761e-319
2.14405e-319
2.24533e-319
2.35155e-319
2.46302e-319
2.57981e-319
2.70234e-319
2.8308e-319
2.96538e-319
3.10639e-319
3.25411e-319
3.40886e-319
3.57071e-319
3.74027e-319
3.73682e-319
3.56597e-319
3.40283e-319
3.247e-319
3.09819e-319
2.95609e-319
2.82032e-319
2.69088e-319
2.56717e-319
2.44908e-319
2.33634e-319
2.22883e-319
2.12616e-319
2.02824e-319
1.93476e-319
1.84563e-319
1.76065e-319
1.67972e-319
1.60255e-319
1.52884e-319
1.45868e-319
1.39188e-319
1.32825e-319
1.26757e-319
1.20987e-319
1.15473e-319
1.10216e-319
1.05216e-319
1.00424e-319
9.58586e-320
7.84873e-320
7.85861e-320
7.86948e-320
7.88134e-320
7.89517e-320
7.91296e-320
7.93667e-320
7.96829e-320
8.0177e-320
8.09576e-320
8.20742e-320
8.33192e-320
8.41295e-320
8.43074e-320
8.43765e-320
8.48014e-320
8.51077e-320
8.37738e-320
8.06908e-320
7.78055e-320
7.54043e-320
7.3181e-320
7.04241e-320
8.89713e-320
8.96334e-320
6.97522e-320
7.56513e-320
9.25484e-320
8.04734e-320
7.40901e-320
7.40506e-320
7.37838e-320
7.28154e-320
7.12937e-320
6.9268e-320
8.86354e-320
8.78053e-320
6.87739e-320
7.07502e-320
7.2183e-320
8.96037e-320
9.52064e-320
1.01175e-319
1.07706e-319
1.15038e-319
1.23022e-319
1.30789e-319
1.37548e-319
1.43595e-319
1.49682e-319
1.56184e-319
1.6319e-319
1.7065e-319
1.78536e-319
1.86856e-319
1.9561e-319
2.048e-319
2.14454e-319
2.24582e-319
2.35215e-319
2.46361e-319
2.58041e-319
2.70303e-319
2.83149e-319
2.96617e-319
3.10718e-319
3.2549e-319
3.40965e-319
3.5717e-319
3.74136e-319
3.73632e-319
3.56557e-319
3.40233e-319
3.2466e-319
3.09779e-319
2.9557e-319
2.82013e-319
2.69058e-319
2.56697e-319
2.44889e-319
2.33614e-319
2.22863e-319
2.12606e-319
2.02804e-319
1.93466e-319
1.84563e-319
1.76065e-319
1.67963e-319
1.60235e-319
1.52884e-319
1.45868e-319
1.39188e-319
1.32825e-319
1.26757e-319
1.20977e-319
1.15473e-319
1.10216e-319
1.05216e-319
1.00424e-319
9.58586e-320
7.84971e-320
7.8596e-320
7.86948e-320
7.88232e-320
7.89715e-320
7.91493e-320
7.93963e-320
7.97422e-320
8.02461e-320
8.10268e-320
8.21038e-320
8.32797e-320
8.40307e-320
8.42283e-320
8.43074e-320
8.46631e-320
8.48706e-320
8.36848e-320
8.08884e-320
7.80821e-320
7.576e-320
7.3596e-320
7.08787e-320
8.75484e-320
8.83389e-320
7.02957e-320
7.60663e-320
9.12243e-320
8.10465e-320
7.45644e-320
7.43371e-320
7.40308e-320
7.30822e-320
7.15901e-320
6.95743e-320
8.69753e-320
8.65801e-320
6.91494e-320
7.10071e-320
7.23905e-320
8.97915e-320
9.53646e-320
1.01333e-319
1.07874e-319
1.15196e-319
1.23101e-319
1.30769e-319
1.37489e-319
1.43575e-319
1.49702e-319
1.56233e-319
1.63239e-319
1.7071e-319
1.78595e-319
1.86915e-319
1.9567e-319
2.04859e-319
2.14523e-319
2.24652e-319
2.35274e-319
2.4643e-319
2.5812e-319
2.70392e-319
2.83238e-319
2.96716e-319
3.10827e-319
3.25609e-319
3.41093e-319
3.57308e-319
3.74284e-319
3.73573e-319
3.56498e-319
3.40194e-319
3.24611e-319
3.0974e-319
2.9553e-319
2.81973e-319
2.69029e-319
2.56657e-319
2.44859e-319
2.33594e-319
2.22843e-319
2.12587e-319
2.02794e-319
1.93456e-319
1.84543e-319
1.76045e-319
1.67953e-319
1.60235e-319
1.52874e-319
1.45868e-319
1.39188e-319
1.32815e-319
1.26757e-319
1.20977e-319
1.15473e-319
1.10216e-319
1.05216e-319
1.00434e-319
9.58685e-320
7.84971e-320
7.8596e-320
7.87047e-320
7.88331e-320
7.89912e-320
7.9179e-320
7.9426e-320
7.97817e-320
8.02955e-320
8.10762e-320
8.21236e-320
8.32204e-320
8.39319e-320
8.41394e-320
8.42283e-320
8.45149e-320
8.46433e-320
8.35761e-320
8.10366e-320
7.83193e-320
7.6096e-320
7.4011e-320
7.13431e-320
8.6501e-320
8.72026e-320
7.077e-320
7.63628e-320
9.0078e-320
8.16098e-320
7.50881e-320
7.46237e-320
7.42679e-320
7.33292e-320
7.18668e-320
6.98609e-320
8.56216e-320
8.54635e-320
6.94854e-320
7.12245e-320
7.25881e-320
8.99792e-320
9.55424e-320
1.01501e-319
1.08052e-319
1.15364e-319
1.232e-319
1.3075e-319
1.37449e-319
1.43575e-319
1.49741e-319
1.56293e-319
1.63308e-319
1.70769e-319
1.78674e-319
1.86994e-319
1.95749e-319
2.04938e-319
2.14602e-319
2.24741e-319
2.35373e-319
2.46529e-319
2.58228e-319
2.70491e-319
2.83357e-319
2.96835e-319
3.10965e-319
3.25757e-319
3.41251e-319
3.57476e-319
3.74462e-319
3.73494e-319
3.56429e-319
3.40135e-319
3.24562e-319
3.0969e-319
2.95491e-319
2.81934e-319
2.68989e-319
2.56628e-319
2.44829e-319
2.33574e-319
2.22824e-319
2.12567e-319
2.02774e-319
1.93437e-319
1.84524e-319
1.76036e-319
1.67943e-319
1.60216e-319
1.52864e-319
1.45848e-319
1.39168e-319
1.32805e-319
1.26748e-319
1.20967e-319
1.15473e-319
1.10216e-319
1.05206e-319
1.00434e-319
9.58685e-320
7.84971e-320
7.8596e-320
7.87145e-320
7.88529e-320
7.9011e-320
7.92086e-320
7.94655e-320
7.98212e-320
8.03548e-320
8.11256e-320
8.21236e-320
8.31611e-320
8.38232e-320
8.40307e-320
8.41295e-320
8.43666e-320
8.44457e-320
8.34773e-320
8.11453e-320
7.84971e-320
7.63825e-320
7.43766e-320
7.18075e-320
8.575e-320
8.61848e-320
7.1185e-320
7.65802e-320
8.91097e-320
8.21335e-320
7.56118e-320
7.48806e-320
7.44853e-320
7.35565e-320
7.21138e-320
7.01376e-320
8.45149e-320
8.44655e-320
6.97621e-320
7.14122e-320
7.27759e-320
9.0167e-320
9.57203e-320
1.01679e-319
1.0824e-319
1.15532e-319
1.23289e-319
1.3075e-319
1.3741e-319
1.43575e-319
1.49781e-319
1.56362e-319
1.63388e-319
1.70848e-319
1.78753e-319
1.87073e-319
1.95828e-319
2.05037e-319
2.14701e-319
2.24839e-319
2.35472e-319
2.46638e-319
2.58357e-319
2.70629e-319
2.83495e-319
2.96983e-319
3.11123e-319
3.25925e-319
3.41439e-319
3.57684e-319
3.7469e-319
3.73415e-319
3.5636e-319
3.40056e-319
3.24502e-319
3.09641e-319
2.95441e-319
2.81894e-319
2.6895e-319
2.56598e-319
2.448e-319
2.33535e-319
2.22784e-319
2.12537e-319
2.02745e-319
1.93417e-319
1.84514e-319
1.76026e-319
1.67923e-319
1.60216e-319
1.52854e-319
1.45848e-319
1.39168e-319
1.32805e-319
1.26738e-319
1.20967e-319
1.15463e-319
1.10216e-319
1.05206e-319
1.00434e-319
9.58685e-320
7.84971e-320
7.86058e-320
7.87145e-320
7.88529e-320
7.90209e-320
7.92284e-320
7.94853e-320
7.98608e-320
8.03944e-320
8.11453e-320
8.21137e-320
8.30821e-320
8.37145e-320
8.3922e-320
8.40109e-320
8.42085e-320
8.42382e-320
8.33489e-320
8.12046e-320
7.86454e-320
7.65209e-320
7.45841e-320
7.22818e-320
8.52263e-320
8.5256e-320
7.15407e-320
7.6758e-320
8.82599e-320
8.25979e-320
7.61158e-320
7.51177e-320
7.4683e-320
7.3764e-320
7.23411e-320
7.03945e-320
8.35959e-320
8.35663e-320
6.99992e-320
7.15703e-320
7.2934e-320
9.0335e-320
9.58883e-320
1.01857e-319
1.08428e-319
1.1571e-319
1.23388e-319
1.30759e-319
1.3741e-319
1.43595e-319
1.4984e-319
1.56431e-319
1.63467e-319
1.70947e-319
1.78852e-319
1.87172e-319
1.95927e-319
2.05136e-319
2.148e-319
2.24958e-319
2.356e-319
2.46776e-319
2.58495e-319
2.70778e-319
2.83653e-319
2.97161e-319
3.11311e-319
3.26133e-319
3.41656e-319
3.57921e-319
3.74946e-319
3.73336e-319
3.56281e-319
3.39996e-319
3.24433e-319
3.09582e-319
2.95392e-319
2.81835e-319
2.6891e-319
2.56558e-319
2.4476e-319
2.33505e-319
2.22764e-319
2.12508e-319
2.02725e-319
1.93397e-319
1.84494e-319
1.76006e-319
1.67903e-319
1.60196e-319
1.52844e-319
1.45828e-319
1.39159e-319
1.32795e-319
1.26738e-319
1.20967e-319
1.15453e-319
1.10216e-319
1.05196e-319
1.00424e-319
9.58685e-320
7.84971e-320
7.86058e-320
7.87343e-320
7.88726e-320
7.90307e-320
7.92481e-320
7.95149e-320
7.98904e-320
8.0424e-320
8.11651e-320
8.20939e-320
8.3003e-320
8.35959e-320
8.38133e-320
8.38923e-320
8.40504e-320
8.40504e-320
8.32204e-320
8.12442e-320
7.87541e-320
7.65999e-320
7.45841e-320
7.2598e-320
8.48311e-320
8.44457e-320
7.18569e-320
7.68964e-320
8.75287e-320
8.29734e-320
7.65802e-320
7.53351e-320
7.48411e-320
7.39419e-320
7.25288e-320
7.06514e-320
8.2835e-320
8.27758e-320
7.01968e-320
7.16988e-320
7.30723e-320
9.05029e-320
9.60661e-320
1.02034e-319
1.08615e-319
1.15868e-319
1.23477e-319
1.30779e-319
1.374e-319
1.43615e-319
1.499e-319
1.5651e-319
1.63555e-319
1.71046e-319
1.78951e-319
1.87271e-319
1.96045e-319
2.05255e-319
2.14928e-319
2.25077e-319
2.35738e-319
2.46914e-319
2.58653e-319
2.70946e-319
2.83841e-319
2.97348e-319
3.11518e-319
3.2636e-319
3.41913e-319
3.58198e-319
3.75233e-319
3.73237e-319
3.56192e-319
3.39917e-319
3.24364e-319
3.09512e-319
2.95333e-319
2.81785e-319
2.68851e-319
2.56509e-319
2.44721e-319
2.33466e-319
2.22725e-319
2.12478e-319
2.02705e-319
1.93367e-319
1.84464e-319
1.75986e-319
1.67893e-319
1.60176e-319
1.52824e-319
1.45828e-319
1.39149e-319
1.32785e-319
1.26728e-319
1.20957e-319
1.15453e-319
1.10206e-319
1.05196e-319
1.00424e-319
9.58685e-320
7.84971e-320
7.86157e-320
7.87343e-320
7.88726e-320
7.90505e-320
7.9258e-320
7.95347e-320
7.99201e-320
8.04536e-320
8.11849e-320
8.20742e-320
8.2924e-320
8.34773e-320
8.36848e-320
8.37738e-320
8.38923e-320
8.38528e-320
8.30821e-320
8.12244e-320
7.88134e-320
7.66395e-320
7.45249e-320
7.28846e-320
8.44753e-320
8.37639e-320
7.21632e-320
7.7015e-320
8.6837e-320
8.32599e-320
7.70248e-320
7.55328e-320
7.49893e-320
7.40802e-320
7.26869e-320
7.08688e-320
8.2173e-320
8.20841e-320
7.03648e-320
7.18174e-320
7.31909e-320
9.06512e-320
9.62143e-320
1.02193e-319
1.08793e-319
1.16026e-319
1.23576e-319
1.30799e-319
1.3741e-319
1.43645e-319
1.49959e-319
1.56599e-319
1.63654e-319
1.71144e-319
1.79049e-319
1.87389e-319
1.96164e-319
2.05373e-319
2.15057e-319
2.25215e-319
2.35887e-319
2.47072e-319
2.58821e-319
2.71123e-319
2.84038e-319
2.97566e-319
3.11755e-319
3.26617e-319
3.4219e-319
3.58494e-319
3.75569e-319
3.73138e-319
3.56103e-319
3.39818e-319
3.24285e-319
3.09443e-319
2.95264e-319
2.81726e-319
2.68801e-319
2.5646e-319
2.44681e-319
2.33426e-319
2.22685e-319
2.12448e-319
2.02666e-319
1.93338e-319
1.84445e-319
1.75966e-319
1.67874e-319
1.60156e-319
1.52805e-319
1.45809e-319
1.39129e-319
1.32775e-319
1.26718e-319
1.20947e-319
1.15443e-319
1.10196e-319
1.05196e-319
1.00414e-319
9.58586e-320
7.84971e-320
7.86157e-320
7.87343e-320
7.88726e-320
7.90505e-320
7.92679e-320
7.95545e-320
7.99398e-320
8.04734e-320
8.11849e-320
8.20347e-320
8.28449e-320
8.33588e-320
8.35564e-320
8.36354e-320
8.37342e-320
8.36651e-320
8.2924e-320
8.12046e-320
7.88529e-320
7.66493e-320
7.4426e-320
7.30229e-320
8.39714e-320
8.32501e-320
7.24893e-320
7.71138e-320
8.62046e-320
8.34773e-320
7.743e-320
7.57304e-320
7.51079e-320
7.41889e-320
7.28055e-320
7.10664e-320
8.159e-320
8.15011e-320
7.05328e-320
7.19162e-320
7.32996e-320
9.07895e-320
9.63626e-320
1.02351e-319
1.08951e-319
1.16184e-319
1.23655e-319
1.30829e-319
1.3741e-319
1.43674e-319
1.50018e-319
1.56678e-319
1.63753e-319
1.71243e-319
1.79168e-319
1.87508e-319
1.96282e-319
2.05512e-319
2.15195e-319
2.25373e-319
2.36045e-319
2.4725e-319
2.59009e-319
2.71331e-319
2.84256e-319
2.97803e-319
3.12012e-319
3.26894e-319
3.42486e-319
3.5883e-319
3.75925e-319
3.7302e-319
3.55994e-319
3.39729e-319
3.24196e-319
3.09364e-319
2.95194e-319
2.81657e-319
2.68742e-319
2.564e-319
2.44622e-319
2.33377e-319
2.22646e-319
2.12409e-319
2.02636e-319
1.93318e-319
1.84425e-319
1.75937e-319
1.67844e-319
1.60137e-319
1.52795e-319
1.45789e-319
1.39119e-319
1.32765e-319
1.26708e-319
1.20937e-319
1.15433e-319
1.10196e-319
1.05196e-319
1.00414e-319
9.58487e-320
7.84971e-320
7.86157e-320
7.87343e-320
7.88825e-320
7.90604e-320
7.92877e-320
7.95643e-320
7.99596e-320
8.04833e-320
8.11849e-320
8.19951e-320
8.2756e-320
8.32402e-320
8.34279e-320
8.34971e-320
8.35761e-320
8.34773e-320
8.27758e-320
8.11453e-320
7.88726e-320
7.66296e-320
7.43272e-320
7.3181e-320
8.35169e-320
8.29141e-320
7.28944e-320
7.72126e-320
8.56315e-320
8.36552e-320
7.7845e-320
7.5928e-320
7.52166e-320
7.42679e-320
7.28846e-320
7.12245e-320
8.10564e-320
8.10268e-320
7.06909e-320
7.2015e-320
7.33885e-320
9.09081e-320
9.65009e-320
1.02509e-319
1.09119e-319
1.16323e-319
1.23734e-319
1.30848e-319
1.37429e-319
1.43714e-319
1.50077e-319
1.56767e-319
1.63852e-319
1.71352e-319
1.79287e-319
1.87626e-319
1.96421e-319
2.0565e-319
2.15353e-319
2.25531e-319
2.36223e-319
2.47438e-319
2.59207e-319
2.71548e-319
2.84493e-319
2.9806e-319
3.12289e-319
3.272e-319
3.42822e-319
3.59186e-319
3.7632e-319
3.72901e-319
3.55885e-319
3.39631e-319
3.24107e-319
3.09285e-319
2.95115e-319
2.81598e-319
2.68673e-319
2.56351e-319
2.44582e-319
2.33337e-319
2.22606e-319
2.12369e-319
2.02606e-319
1.93278e-319
1.84385e-319
1.75907e-319
1.67824e-319
1.60117e-319
1.52775e-319
1.45769e-319
1.39109e-319
1.32746e-319
1.26698e-319
1.20928e-319
1.15433e-319
1.10187e-319
1.05177e-319
1.00414e-319
9.58487e-320
7.84971e-320
7.86157e-320
7.87343e-320
7.88924e-320
7.90703e-320
7.92877e-320
7.95841e-320
7.99596e-320
8.04932e-320
8.11651e-320
8.19556e-320
8.26671e-320
8.31216e-320
8.32995e-320
8.33686e-320
8.3418e-320
8.32995e-320
8.26275e-320
8.10663e-320
7.88726e-320
7.65901e-320
7.42482e-320
7.33391e-320
8.30821e-320
8.27758e-320
7.33984e-320
7.73114e-320
8.50781e-320
8.38133e-320
7.82402e-320
7.61256e-320
7.53055e-320
7.43272e-320
7.29439e-320
7.1353e-320
8.05525e-320
8.06513e-320
7.08688e-320
7.20941e-320
7.34774e-320
9.10267e-320
9.66195e-320
1.02647e-319
1.09268e-319
1.16441e-319
1.23813e-319
1.30868e-319
1.37449e-319
1.43753e-319
1.50156e-319
1.56856e-319
1.63951e-319
1.71461e-319
1.79405e-319
1.87765e-319
1.96559e-319
2.05798e-319
2.15511e-319
2.25709e-319
2.36401e-319
2.47636e-319
2.59424e-319
2.71776e-319
2.8474e-319
2.98337e-319
3.12585e-319
3.27526e-319
3.43178e-319
3.59561e-319
3.76735e-319
3.72763e-319
3.55767e-319
3.39522e-319
3.24008e-319
3.09186e-319
2.95036e-319
2.81519e-319
2.68614e-319
2.56282e-319
2.44523e-319
2.33288e-319
2.22567e-319
2.1233e-319
2.02567e-319
1.93249e-319
1.84366e-319
1.75887e-319
1.67804e-319
1.60097e-319
1.52755e-319
1.45749e-319
1.39089e-319
1.32736e-319
1.26678e-319
1.20908e-319
1.15414e-319
1.10177e-319
1.05177e-319
1.00394e-319
9.58487e-320
7.84971e-320
7.86157e-320
7.87343e-320
7.88924e-320
7.90703e-320
7.92877e-320
7.95841e-320
7.99695e-320
8.04932e-320
8.11552e-320
8.19062e-320
8.25683e-320
8.3003e-320
8.3171e-320
8.32303e-320
8.32599e-320
8.31315e-320
8.24694e-320
8.09872e-320
7.88529e-320
7.65604e-320
7.42087e-320
7.3517e-320
8.26868e-320
8.28153e-320
7.40308e-320
7.743e-320
8.45742e-320
8.39418e-320
7.86553e-320
7.63331e-320
7.53944e-320
7.4347e-320
7.29636e-320
7.14419e-320
8.0088e-320
8.03548e-320
7.10664e-320
7.21731e-320
7.35565e-320
9.11353e-320
9.67381e-320
1.02785e-319
1.09406e-319
1.1656e-319
1.23882e-319
1.30908e-319
1.37469e-319
1.43803e-319
1.50226e-319
1.56945e-319
1.64059e-319
1.71579e-319
1.79524e-319
1.87893e-319
1.96697e-319
2.05946e-319
2.1567e-319
2.25887e-319
2.36598e-319
2.47843e-319
2.59641e-319
2.72033e-319
2.85017e-319
2.98633e-319
3.12902e-319
3.27862e-319
3.43553e-319
3.59976e-319
3.7718e-319
3.72634e-319
3.55648e-319
3.39403e-319
3.23909e-319
3.09097e-319
2.94957e-319
2.8144e-319
2.68544e-319
2.56222e-319
2.44464e-319
2.33239e-319
2.22507e-319
2.1229e-319
2.02527e-319
1.93209e-319
1.84326e-319
1.75848e-319
1.67775e-319
1.60077e-319
1.52726e-319
1.4573e-319
1.3907e-319
1.32726e-319
1.26669e-319
1.20908e-319
1.15404e-319
1.10157e-319
1.05157e-319
1.00394e-319
9.58389e-320
7.84971e-320
7.86058e-320
7.87343e-320
7.88825e-320
7.90703e-320
7.92877e-320
7.95841e-320
7.99695e-320
8.04833e-320
8.11256e-320
8.18469e-320
8.24793e-320
8.28746e-320
8.30426e-320
8.3092e-320
8.31018e-320
8.29635e-320
8.23212e-320
8.09082e-320
7.88331e-320
7.65406e-320
7.42284e-320
7.36948e-320
8.23509e-320
8.30228e-320
7.46928e-320
7.73509e-320
8.39714e-320
8.40307e-320
7.90703e-320
7.65406e-320
7.54537e-320
7.43668e-320
7.29834e-320
7.15012e-320
7.96236e-320
8.01572e-320
7.1264e-320
7.22522e-320
7.36158e-320
9.1244e-320
9.68566e-320
1.02904e-319
1.09544e-319
1.16679e-319
1.23951e-319
1.30927e-319
1.37489e-319
1.43852e-319
1.50295e-319
1.57044e-319
1.64168e-319
1.71698e-319
1.79662e-319
1.88041e-319
1.96856e-319
2.06114e-319
2.15847e-319
2.26065e-319
2.36796e-319
2.4806e-319
2.59888e-319
2.72289e-319
2.85293e-319
2.98929e-319
3.13238e-319
3.28237e-319
3.43949e-319
3.60411e-319
3.77654e-319
3.72486e-319
3.5551e-319
3.39285e-319
3.23791e-319
3.08999e-319
2.94858e-319
2.81361e-319
2.68465e-319
2.56153e-319
2.44404e-319
2.33179e-319
2.22468e-319
2.12231e-319
2.02478e-319
1.9317e-319
1.84286e-319
1.75828e-319
1.67745e-319
1.60048e-319
1.52706e-319
1.4571e-319
1.3905e-319
1.32706e-319
1.26649e-319
1.20888e-319
1.15394e-319
1.10157e-319
1.05157e-319
1.00374e-319
9.5829e-320
7.84873e-320
7.8596e-320
7.87343e-320
7.88825e-320
7.90703e-320
7.92877e-320
7.95841e-320
7.99695e-320
8.04734e-320
8.11058e-320
8.17876e-320
8.23904e-320
8.2756e-320
8.29042e-320
8.29536e-320
8.29536e-320
8.27955e-320
8.2173e-320
8.08291e-320
7.88232e-320
7.65505e-320
7.43075e-320
7.38925e-320
8.20939e-320
8.33588e-320
7.54339e-320
7.72126e-320
8.33192e-320
8.40702e-320
7.94655e-320
7.67383e-320
7.55031e-320
7.43668e-320
7.29834e-320
7.15407e-320
7.91888e-320
7.99991e-320
7.14913e-320
7.23114e-320
7.36751e-320
9.1333e-320
9.69554e-320
1.03023e-319
1.09663e-319
1.16777e-319
1.2401e-319
1.30957e-319
1.37528e-319
1.43902e-319
1.50374e-319
1.57133e-319
1.64277e-319
1.71826e-319
1.7979e-319
1.8818e-319
1.97004e-319
2.06282e-319
2.16025e-319
2.26262e-319
2.37013e-319
2.48298e-319
2.60135e-319
2.72566e-319
2.8559e-319
2.99265e-319
3.13593e-319
3.28623e-319
3.44374e-319
3.60885e-319
3.78158e-319
3.72338e-319
3.55372e-319
3.39166e-319
3.23682e-319
3.0889e-319
2.9476e-319
2.81272e-319
2.68386e-319
2.56084e-319
2.44335e-319
2.3312e-319
2.22409e-319
2.12191e-319
2.02429e-319
1.9313e-319
1.84247e-319
1.75789e-319
1.67716e-319
1.60018e-319
1.52686e-319
1.4569e-319
1.3903e-319
1.32686e-319
1.26639e-319
1.20868e-319
1.15374e-319
1.10137e-319
1.05137e-319
1.00374e-319
9.58191e-320
7.84774e-320
7.8596e-320
7.87244e-320
7.88726e-320
7.90604e-320
7.92877e-320
7.95841e-320
7.99596e-320
8.04536e-320
8.10663e-320
8.17283e-320
8.22916e-320
8.26275e-320
8.27758e-320
8.28054e-320
8.28054e-320
8.26374e-320
8.20347e-320
8.07303e-320
7.87936e-320
7.65802e-320
7.4426e-320
7.41494e-320
8.19556e-320
8.37639e-320
7.6264e-320
7.71533e-320
8.27066e-320
8.40406e-320
7.98114e-320
7.69161e-320
7.5513e-320
7.43569e-320
7.29735e-320
7.15605e-320
7.87738e-320
7.99003e-320
7.17285e-320
7.23707e-320
7.37344e-320
9.14219e-320
9.70543e-320
1.03141e-319
1.09781e-319
1.16876e-319
1.2406e-319
1.30987e-319
1.37548e-319
1.43951e-319
1.50453e-319
1.57231e-319
1.64386e-319
1.71955e-319
1.79929e-319
1.88328e-319
1.97172e-319
2.0646e-319
2.16223e-319
2.2647e-319
2.37231e-319
2.48535e-319
2.60392e-319
2.72843e-319
2.85906e-319
2.99601e-319
3.13969e-319
3.29028e-319
3.44818e-319
3.6136e-319
3.78691e-319
3.7217e-319
3.55233e-319
3.39028e-319
3.23564e-319
3.08781e-319
2.94661e-319
2.81183e-319
2.68297e-319
2.56005e-319
2.44266e-319
2.33051e-319
2.22349e-319
2.12132e-319
2.02389e-319
1.93081e-319
1.84207e-319
1.75749e-319
1.67686e-319
1.59988e-319
1.52656e-319
1.4567e-319
1.3901e-319
1.32667e-319
1.26619e-319
1.20848e-319
1.15354e-319
1.10117e-319
1.05117e-319
1.00355e-319
9.58092e-320
7.84774e-320
7.85861e-320
7.87145e-320
7.88726e-320
7.90505e-320
7.92778e-320
7.95643e-320
7.99497e-320
8.04339e-320
8.10268e-320
8.16592e-320
8.21928e-320
8.2509e-320
8.26473e-320
8.26671e-320
8.26473e-320
8.24793e-320
8.18864e-320
8.06315e-320
7.87738e-320
7.65999e-320
7.45841e-320
7.44557e-320
8.19754e-320
8.41789e-320
7.71138e-320
7.71731e-320
8.21631e-320
8.39121e-320
8.01078e-320
7.70644e-320
7.55328e-320
7.4347e-320
7.29636e-320
7.15802e-320
7.83786e-320
7.9841e-320
7.19755e-320
7.24103e-320
7.37739e-320
9.14911e-320
9.71432e-320
1.0324e-319
1.0988e-319
1.16955e-319
1.24109e-319
1.31016e-319
1.37587e-319
1.4401e-319
1.50532e-319
1.5734e-319
1.64504e-319
1.72083e-319
1.80067e-319
1.88476e-319
1.9733e-319
2.06638e-319
2.16421e-319
2.26677e-319
2.37468e-319
2.48792e-319
2.60669e-319
2.73139e-319
2.86222e-319
2.99957e-319
3.14364e-319
3.29463e-319
3.45293e-319
3.61873e-319
3.79245e-319
3.72012e-319
3.55075e-319
3.3889e-319
3.23435e-319
3.08672e-319
2.94562e-319
2.81084e-319
2.68218e-319
2.55926e-319
2.44187e-319
2.32982e-319
2.2229e-319
2.12083e-319
2.0233e-319
1.93041e-319
1.84168e-319
1.7571e-319
1.67646e-319
1.59959e-319
1.52627e-319
1.45641e-319
1.38981e-319
1.32637e-319
1.26599e-319
1.20829e-319
1.15335e-319
1.10107e-319
1.05108e-319
1.00335e-319
9.57894e-320
7.84576e-320
7.85762e-320
7.87145e-320
7.88529e-320
7.90406e-320
7.92679e-320
7.95643e-320
7.99398e-320
8.04141e-320
8.09872e-320
8.159e-320
8.20939e-320
8.23904e-320
8.2509e-320
8.25287e-320
8.24991e-320
8.23212e-320
8.17382e-320
8.05228e-320
7.87145e-320
7.66098e-320
7.47423e-320
7.48411e-320
8.21532e-320
8.45248e-320
7.78845e-320
7.72916e-320
8.16098e-320
8.36157e-320
8.03351e-320
7.72126e-320
7.55328e-320
7.43272e-320
7.29636e-320
7.15802e-320
7.8013e-320
7.97817e-320
7.22324e-320
7.243e-320
7.37936e-320
9.15602e-320
9.72222e-320
1.03339e-319
1.09979e-319
1.17034e-319
1.24169e-319
1.31046e-319
1.37627e-319
1.4407e-319
1.50611e-319
1.57439e-319
1.64623e-319
1.72212e-319
1.80215e-319
1.88634e-319
1.97498e-319
2.06816e-319
2.16618e-319
2.26895e-319
2.37705e-319
2.49049e-319
2.60956e-319
2.73455e-319
2.86568e-319
3.00333e-319
3.14759e-319
3.29898e-319
3.45777e-319
3.62407e-319
3.79838e-319
3.71834e-319
3.54917e-319
3.38751e-319
3.23297e-319
3.08554e-319
2.94453e-319
2.80985e-319
2.6812e-319
2.55847e-319
2.44118e-319
2.32922e-319
2.22231e-319
2.12023e-319
2.0229e-319
1.92992e-319
1.84128e-319
1.7567e-319
1.67607e-319
1.59919e-319
1.52587e-319
1.45611e-319
1.38951e-319
1.32607e-319
1.2657e-319
1.20809e-319
1.15325e-319
1.10088e-319
1.05098e-319
1.00325e-319
9.57697e-320
7.84576e-320
7.85663e-320
7.86948e-320
7.88529e-320
7.90307e-320
7.9258e-320
7.95446e-320
7.99201e-320
8.03944e-320
8.09477e-320
8.15208e-320
8.19853e-320
8.22619e-320
8.23706e-320
8.23805e-320
8.23509e-320
8.21532e-320
8.15801e-320
8.03845e-320
7.86157e-320
7.65802e-320
7.49201e-320
7.53549e-320
8.2509e-320
8.47619e-320
7.85367e-320
7.74695e-320
8.12244e-320
8.33192e-320
8.04734e-320
7.73015e-320
7.55525e-320
7.43272e-320
7.29636e-320
7.16e-320
7.76968e-320
7.97323e-320
7.243e-320
7.23707e-320
7.37936e-320
9.16097e-320
9.72914e-320
1.03418e-319
1.10078e-319
1.17113e-319
1.24208e-319
1.31085e-319
1.37666e-319
1.44129e-319
1.5069e-319
1.57538e-319
1.64741e-319
1.7234e-319
1.80354e-319
1.88792e-319
1.97666e-319
2.07004e-319
2.16816e-319
2.27122e-319
2.37942e-319
2.49306e-319
2.61242e-319
2.73772e-319
2.86914e-319
3.00708e-319
3.15174e-319
3.30362e-319
3.46281e-319
3.6296e-319
3.80431e-319
3.71656e-319
3.54759e-319
3.38603e-319
3.23168e-319
3.08425e-319
2.94345e-319
2.80886e-319
2.68031e-319
2.55758e-319
2.44039e-319
2.32843e-319
2.22162e-319
2.11964e-319
2.02231e-319
1.92943e-319
1.84079e-319
1.7563e-319
1.67567e-319
1.5988e-319
1.52567e-319
1.45581e-319
1.38931e-319
1.32587e-319
1.2654e-319
1.20789e-319
1.15295e-319
1.10068e-319
1.05078e-319
1.00315e-319
9.57598e-320
7.84379e-320
7.85564e-320
7.86849e-320
7.88331e-320
7.9011e-320
7.92481e-320
7.95248e-320
7.99003e-320
8.03548e-320
8.08983e-320
8.14418e-320
8.18766e-320
8.21335e-320
8.22323e-320
8.22323e-320
8.21829e-320
8.19754e-320
8.14023e-320
8.01967e-320
7.84379e-320
7.64814e-320
7.5098e-320
7.60071e-320
8.28054e-320
8.4673e-320
7.9011e-320
7.77066e-320
8.09872e-320
8.30623e-320
8.05426e-320
7.73904e-320
7.55723e-320
7.43272e-320
7.29636e-320
7.16395e-320
7.74003e-320
7.96434e-320
7.26276e-320
7.22917e-320
7.37146e-320
9.158e-320
9.73013e-320
1.03418e-319