/*--------------------------------*- C++ -*----------------------------------*\
  =========                 |
  \\      /  F ield         | OpenFOAM: The Open Source CFD Toolbox
   \\    /   O peration     | Website:  https://openfoam.org
    \\  /    A nd           | Version:  9
     \\/     M anipulation  |
\*---------------------------------------------------------------------------*/
FoamFile
{
    format      ascii;
    class       volScalarField;
    location    "0.17";
    object      p;
}
// * * * * * * * * * * * * * * * * * * * * * * * * * * * * * * * * * * * * * //

dimensions      [1 -1 -2 0 0 0 0];

internalField   nonuniform List<scalar> 
20000
(
3.41897
3.41904
3.41911
3.41919
3.41926
3.41935
3.41943
3.41952
3.41962
3.41972
3.41982
3.41992
3.42003
3.42015
3.42026
3.42037
3.42047
3.42057
3.42066
3.42072
3.42075
3.42075
3.42069
3.42055
3.42033
3.42
3.41955
3.41899
3.41831
3.41751
3.41646
3.41507
3.4133
3.41097
3.40781
3.40339
3.39691
3.38672
3.36941
3.33819
3.28211
3.19643
3.11962
3.10325
3.09709
3.03665
2.95123
3.10166
3.30281
3.32569
3.20722
2.93341
1.99336
1.25258
2.87485
2.32829
3.45959
3.17089
3.4133
3.16598
3.20649
3.14822
2.99555
2.69744
1.85567
0.863082
1.1997
1.92976
2.7168
3.02044
3.18559
3.27903
3.33878
3.37601
3.39249
3.38495
3.36193
3.35384
3.36478
3.37876
3.38976
3.39751
3.40297
3.40691
3.40983
3.41204
3.41374
3.41504
3.41605
3.41682
3.41741
3.41785
3.41818
3.41842
3.41859
3.41871
3.41879
3.41884
3.41888
3.41892
3.41706
3.41723
3.41741
3.41759
3.41778
3.41799
3.4182
3.41842
3.41865
3.4189
3.41915
3.41942
3.41969
3.41997
3.42026
3.42056
3.42086
3.42116
3.42145
3.42173
3.422
3.42224
3.42245
3.42261
3.4227
3.42271
3.42263
3.42243
3.42211
3.42163
3.42089
3.41971
3.418
3.41552
3.4119
3.40655
3.39851
3.38613
3.36681
3.33713
3.2945
3.24076
3.19315
3.17241
3.1593
3.13736
3.10917
3.18285
3.28086
3.2985
3.22371
3.07885
2.57965
2.23931
2.84994
2.93204
3.86551
3.23124
3.62842
3.27826
3.2915
3.19404
3.03554
2.78786
2.17469
1.55248
1.67319
2.1249
2.77716
3.02508
3.18268
3.27144
3.32703
3.36081
3.37816
3.38268
3.38006
3.38027
3.38455
3.38999
3.39555
3.40051
3.40457
3.40776
3.41022
3.4121
3.41353
3.41462
3.41542
3.41601
3.41643
3.41672
3.4169
3.417
3.41705
3.41706
3.41704
3.41702
3.417
3.41699
3.41513
3.41537
3.41562
3.41589
3.41617
3.41646
3.41677
3.41709
3.41742
3.41778
3.41814
3.41853
3.41892
3.41934
3.41976
3.42019
3.42064
3.42108
3.42154
3.42199
3.42244
3.42287
3.42329
3.42368
3.42402
3.4243
3.4245
3.42459
3.42456
3.42436
3.42391
3.42301
3.42151
3.41916
3.41557
3.41019
3.40214
3.39012
3.37236
3.34703
3.31354
3.27374
3.23897
3.22313
3.2143
3.20592
3.19589
3.25014
3.32495
3.35044
3.31792
3.301
3.17595
2.98029
3.26458
3.45416
4.09945
3.45541
3.82812
3.42895
3.4153
3.28477
3.13934
2.96807
2.62226
2.20408
2.24615
2.52413
2.94321
3.08408
3.21534
3.28738
3.33449
3.36451
3.38172
3.38845
3.38893
3.39069
3.39447
3.39837
3.40208
3.40534
3.40805
3.41023
3.41194
3.41326
3.41425
3.41498
3.41549
3.41582
3.41601
3.41608
3.41606
3.41599
3.41587
3.41573
3.41557
3.41541
3.41525
3.41509
3.4132
3.41351
3.41384
3.41419
3.41455
3.41493
3.41533
3.41575
3.41618
3.41664
3.41712
3.41762
3.41814
3.41868
3.41923
3.4198
3.42039
3.42098
3.42159
3.42221
3.42284
3.42348
3.42411
3.42473
3.42531
3.42586
3.42633
3.42671
3.42698
3.42709
3.42698
3.42644
3.42529
3.42329
3.42009
3.41522
3.408
3.39748
3.38247
3.36181
3.33542
3.30501
3.27927
3.26855
3.26454
3.26409
3.26638
3.31335
3.38307
3.42726
3.43544
3.49182
3.56986
3.51154
3.727
3.7979
4.17753
3.66674
3.92582
3.56805
3.54779
3.40049
3.27627
3.15994
3.00719
2.75949
2.80274
2.92659
3.12395
3.17493
3.27133
3.31934
3.35464
3.37811
3.39187
3.3978
3.39847
3.39999
3.40292
3.40591
3.4086
3.41077
3.41245
3.41373
3.41468
3.41537
3.41583
3.41611
3.41623
3.41622
3.41609
3.41588
3.41561
3.41529
3.41495
3.4146
3.41424
3.41389
3.41354
3.41321
3.41127
3.41166
3.41208
3.41251
3.41296
3.41343
3.41393
3.41445
3.41499
3.41557
3.41616
3.41679
3.41744
3.41811
3.41881
3.41952
3.42026
3.42102
3.4218
3.4226
3.42342
3.42427
3.42513
3.42599
3.42684
3.42766
3.42843
3.42913
3.42972
3.43019
3.43048
3.43038
3.42968
3.42816
3.42555
3.42146
3.41536
3.40658
3.39436
3.37811
3.35838
3.33697
3.31968
3.31322
3.31334
3.32045
3.33275
3.374
3.43633
3.49498
3.53487
3.62341
3.79787
3.85635
4.05642
3.99763
4.17957
3.82909
3.97817
3.67883
3.65991
3.5137
3.4137
3.32979
3.2898
3.17657
3.23105
3.23755
3.27296
3.27141
3.33319
3.35726
3.38016
3.39553
3.4046
3.40897
3.41001
3.4113
3.41292
3.41444
3.41578
3.41679
3.41747
3.4179
3.41811
3.41816
3.41807
3.41785
3.41752
3.4171
3.41661
3.41606
3.41548
3.41487
3.41426
3.41365
3.41305
3.41246
3.41189
3.41135
3.40935
3.40982
3.41031
3.41083
3.41137
3.41194
3.41254
3.41317
3.41383
3.41452
3.41524
3.416
3.41678
3.4176
3.41844
3.41931
3.42021
3.42114
3.4221
3.42309
3.42412
3.42519
3.42629
3.42741
3.42854
3.42966
3.43074
3.43177
3.43272
3.43357
3.43431
3.43472
3.43457
3.43367
3.4318
3.42868
3.42392
3.41706
3.40771
3.39575
3.38215
3.36845
3.35821
3.35585
3.36003
3.37252
3.39196
3.4293
3.48461
3.55101
3.61373
3.71718
3.94082
4.07043
4.22831
4.10986
4.16799
3.94691
4.02263
3.77194
3.75094
3.61453
3.53863
3.47574
3.49756
3.46641
3.52147
3.45635
3.39055
3.36127
3.39188
3.39638
3.40824
3.41561
3.41997
3.42209
3.42259
3.42312
3.42344
3.42354
3.42351
3.42331
3.42298
3.42253
3.422
3.42138
3.4207
3.41995
3.41914
3.41828
3.41739
3.41648
3.41556
3.41464
3.41373
3.41283
3.41196
3.41111
3.41029
3.4095
3.40743
3.40797
3.40855
3.40915
3.40979
3.41045
3.41115
3.41189
3.41266
3.41347
3.41432
3.4152
3.41613
3.41709
3.41808
3.41911
3.42017
3.42127
3.42241
3.4236
3.42484
3.42613
3.42748
3.42887
3.43028
3.4317
3.43311
3.43448
3.43581
3.43707
3.4383
3.43929
3.43977
3.43961
3.43864
3.43668
3.43345
3.42869
3.42227
3.41436
3.4059
3.39808
3.39331
3.39485
3.40276
3.41888
3.44195
3.47824
3.52968
3.60024
3.67919
3.78768
4.0324
4.18962
4.30872
4.17621
4.16089
4.02936
4.0663
3.85522
3.82681
3.70273
3.64795
3.59924
3.65325
3.66678
3.71094
3.61016
3.48579
3.44085
3.44474
3.43463
3.43702
3.43706
3.4369
3.43633
3.43539
3.43466
3.43374
3.43264
3.43143
3.43014
3.42883
3.42752
3.42623
3.42494
3.42364
3.42233
3.42102
3.4197
3.41839
3.4171
3.41582
3.41456
3.41333
3.41213
3.41096
3.40982
3.40872
3.40767
3.4055
3.40613
3.40679
3.40748
3.4082
3.40896
3.40976
3.41061
3.41149
3.41242
3.41339
3.41441
3.41547
3.41657
3.41772
3.4189
3.42013
3.4214
3.42273
3.42411
3.42557
3.42709
3.42868
3.43034
3.43204
3.43377
3.4355
3.43724
3.43896
3.44066
3.44242
3.44404
3.44523
3.44589
3.44593
3.44524
3.44367
3.44107
3.4375
3.43321
3.42898
3.42568
3.42519
3.43013
3.4411
3.45964
3.4849
3.52124
3.57065
3.64281
3.73287
3.83878
4.09
4.25496
4.3328
4.2084
4.15333
4.08293
4.1005
3.92633
3.88957
3.7785
3.74056
3.70043
3.77062
3.8063
3.83236
3.71762
3.56311
3.50901
3.49149
3.47084
3.46504
3.45862
3.45434
3.451
3.44826
3.44606
3.44385
3.4416
3.43931
3.43703
3.43482
3.43269
3.43065
3.42868
3.42676
3.42489
3.42306
3.42128
3.41954
3.41785
3.4162
3.4146
3.41303
3.41151
3.41002
3.40858
3.40718
3.40584
3.40358
3.40428
3.40502
3.4058
3.40662
3.40747
3.40838
3.40933
3.41032
3.41137
3.41247
3.41362
3.41482
3.41607
3.41736
3.41871
3.4201
3.42155
3.42306
3.42465
3.42631
3.42807
3.42992
3.43185
3.43384
3.43588
3.43795
3.44006
3.44219
3.44434
3.44666
3.44895
3.4509
3.45245
3.45357
3.45422
3.45431
3.45383
3.45288
3.45177
3.45108
3.45149
3.4545
3.46228
3.47568
3.49599
3.52268
3.55895
3.6066
3.67737
3.77456
3.87122
4.12477
4.28557
4.32006
4.21323
4.14378
4.1125
4.1196
3.98124
3.93881
3.84127
3.81613
3.78044
3.85637
3.89941
3.906
3.7886
3.62392
3.56514
3.53191
3.50391
3.49119
3.47938
3.47153
3.46564
3.46109
3.45737
3.45386
3.45044
3.44709
3.44387
3.4408
3.43789
3.43512
3.43248
3.42994
3.42751
3.42517
3.42293
3.42077
3.41868
3.41666
3.4147
3.41279
3.41093
3.40912
3.40736
3.40565
3.40401
3.40165
3.40243
3.40326
3.40412
3.40503
3.40599
3.40699
3.40805
3.40916
3.41033
3.41156
3.41284
3.41418
3.41558
3.41703
3.41853
3.42009
3.42172
3.42342
3.42521
3.42709
3.42908
3.43118
3.43339
3.43568
3.43804
3.44046
3.44294
3.44549
3.44812
3.45101
3.454
3.45674
3.45921
3.46144
3.46342
3.46515
3.46665
3.46808
3.46974
3.47208
3.4756
3.48154
3.49167
3.50701
3.52866
3.55612
3.59189
3.63771
3.70459
3.80538
3.88712
4.1462
4.29036
4.28455
4.20037
4.13368
4.12386
4.1244
4.01941
3.97515
3.89122
3.87521
3.84149
3.91593
3.9564
3.94507
3.83161
3.66993
3.60965
3.56582
3.53302
3.51478
3.49878
3.48797
3.47981
3.47357
3.46842
3.46364
3.45909
3.45474
3.45061
3.44671
3.44303
3.43955
3.43624
3.43311
3.43013
3.4273
3.4246
3.42202
3.41954
3.41714
3.41482
3.41256
3.41036
3.40822
3.40614
3.40412
3.40218
3.39973
3.40059
3.4015
3.40245
3.40345
3.4045
3.40561
3.40677
3.408
3.40929
3.41064
3.41206
3.41354
3.41509
3.41669
3.41836
3.42009
3.4219
3.42379
3.42578
3.42788
3.43011
3.43247
3.43495
3.43754
3.44022
3.44299
3.44586
3.44884
3.45195
3.45544
3.45915
3.46269
3.46609
3.46942
3.47271
3.47599
3.47933
3.48292
3.48699
3.49187
3.49798
3.50633
3.51842
3.53525
3.55784
3.58558
3.62066
3.66473
3.72644
3.82856
3.89436
4.15891
4.27287
4.24164
4.17851
4.12267
4.1233
4.11939
4.04215
4.00186
3.92982
3.91956
3.88659
3.95519
3.98728
3.96125
3.85521
3.7038
3.64399
3.59349
3.55791
3.53556
3.51647
3.50329
3.49318
3.48542
3.47893
3.473
3.46742
3.46213
3.45715
3.45245
3.44803
3.44385
3.43992
3.4362
3.4327
3.42938
3.42624
3.42325
3.42037
3.4176
3.41491
3.4123
3.40977
3.4073
3.4049
3.40258
3.40034
3.3978
3.39874
3.39973
3.40077
3.40186
3.40301
3.40422
3.40549
3.40683
3.40824
3.40973
3.41128
3.4129
3.4146
3.41636
3.41819
3.42009
3.42208
3.42416
3.42635
3.42867
3.43114
3.43375
3.43651
3.4394
3.44241
3.44554
3.44879
3.45221
3.45581
3.45989
3.46432
3.46867
3.473
3.4774
3.48195
3.4867
3.49174
3.49724
3.50339
3.51041
3.51862
3.52893
3.54257
3.56055
3.58372
3.61143
3.64569
3.68825
3.74435
3.8417
3.90507
4.16613
4.23842
4.20078
4.15318
4.10777
4.11566
4.11031
4.0572
4.01816
3.95862
3.95173
3.91899
3.97918
3.99984
3.96517
3.86682
3.72825
3.67005
3.61567
3.57882
3.55357
3.5323
3.51725
3.50553
3.49643
3.48877
3.48181
3.47531
3.46917
3.46339
3.45794
3.45281
3.44798
3.44344
3.43917
3.43517
3.43139
3.42782
3.42441
3.42115
3.418
3.41495
3.41199
3.40912
3.40633
3.40362
3.40101
3.39849
3.39588
3.39689
3.39796
3.39909
3.40027
3.40151
3.40282
3.4042
3.40566
3.40719
3.4088
3.41049
3.41226
3.4141
3.41602
3.41802
3.42009
3.42226
3.42453
3.42692
3.42946
3.43216
3.43503
3.43807
3.44126
3.44459
3.44807
3.45172
3.45557
3.45965
3.46433
3.46948
3.47463
3.47987
3.4853
3.49104
3.49714
3.50372
3.51093
3.51888
3.52768
3.53762
3.54949
3.56434
3.58312
3.6066
3.63406
3.66737
3.7086
3.76036
3.85305
3.91819
4.1556
4.19456
4.17062
4.12877
4.08824
4.10212
4.1008
4.0651
4.03046
3.98002
3.97436
3.94147
3.99174
3.99977
3.96354
3.87152
3.74547
3.68962
3.63319
3.59614
3.56894
3.54622
3.52971
3.51673
3.50652
3.49786
3.49
3.48268
3.47577
3.46925
3.4631
3.45731
3.45187
3.44677
3.442
3.43751
3.43329
3.42929
3.42547
3.42182
3.41829
3.41489
3.41159
3.40839
3.40529
3.40229
3.3994
3.39661
3.39395
3.39505
3.3962
3.3974
3.39867
3.40001
3.40142
3.40291
3.40448
3.40613
3.40787
3.4097
3.41161
3.4136
3.41568
3.41784
3.42009
3.42243
3.42489
3.42748
3.43023
3.43316
3.43629
3.4396
3.44309
3.44675
3.45058
3.45461
3.45889
3.46346
3.46873
3.47458
3.48051
3.48663
3.49305
3.49989
3.50723
3.51518
3.52389
3.53338
3.54368
3.55505
3.56819
3.58396
3.60326
3.62679
3.65384
3.68609
3.726
3.77428
3.86163
3.9209
4.13484
4.1549
4.14812
4.10931
4.06433
4.08575
4.0933
4.07007
4.03953
3.99549
3.98954
3.95619
3.99583
3.99134
3.95931
3.87232
3.75713
3.70423
3.64673
3.61031
3.58183
3.55823
3.54069
3.52674
3.51565
3.50616
3.49754
3.48948
3.48187
3.47468
3.46789
3.4615
3.45551
3.4499
3.44465
3.43971
3.43505
3.43063
3.42641
3.42236
3.41846
3.4147
3.41106
3.40755
3.40415
3.40088
3.39774
3.3947
3.39203
3.39319
3.39442
3.39571
3.39707
3.3985
3.40001
3.40161
3.40329
3.40506
3.40693
3.40889
3.41094
3.41309
3.41532
3.41765
3.42006
3.42259
3.42523
3.42802
3.43099
3.43415
3.43752
3.44111
3.44489
3.44887
3.45304
3.45745
3.46216
3.4672
3.47304
3.47959
3.48627
3.49322
3.50058
3.50845
3.51691
3.52607
3.53606
3.54685
3.55842
3.57099
3.58513
3.60161
3.6212
3.64458
3.67109
3.70218
3.74059
3.78539
3.86643
3.91872
4.10367
4.11906
4.13236
4.09699
4.04308
4.06915
4.08835
4.07416
4.04574
4.00606
3.99873
3.9647
3.99361
3.97781
3.95354
3.87111
3.7647
3.71505
3.65688
3.62174
3.59247
3.56843
3.55021
3.53558
3.52382
3.51365
3.50438
3.49569
3.48745
3.47965
3.4723
3.46538
3.4589
3.45282
3.44711
3.44174
3.43665
3.43181
3.42718
3.42274
3.41847
3.41436
3.4104
3.40659
3.40292
3.3994
3.39602
3.39277
3.3901
3.39134
3.39265
3.39402
3.39547
3.39699
3.3986
3.4003
3.40209
3.40398
3.40597
3.40807
3.41026
3.41256
3.41495
3.41744
3.42002
3.42273
3.42555
3.42854
3.43171
3.43509
3.43871
3.44256
3.44664
3.45093
3.45544
3.46023
3.46535
3.47085
3.47726
3.48446
3.49187
3.49961
3.50784
3.51666
3.52613
3.53635
3.54743
3.55931
3.57192
3.58546
3.60042
3.61741
3.63715
3.66019
3.68605
3.71585
3.75258
3.79394
3.86839
3.91544
4.06719
4.08339
4.12075
4.09662
4.02787
4.05425
4.085
4.07752
4.04929
4.01248
4.00303
3.96831
3.98687
3.96168
3.94667
3.86905
3.76985
3.7227
3.66423
3.63081
3.60116
3.57703
3.55841
3.54332
3.53106
3.52034
3.51051
3.50126
3.49248
3.48417
3.47633
3.46895
3.46203
3.45552
3.44938
3.44358
3.43807
3.43281
3.42778
3.42295
3.41832
3.41387
3.4096
3.4055
3.40158
3.39783
3.39425
3.3908
3.38817
3.38949
3.39087
3.39232
3.39385
3.39547
3.39717
3.39897
3.40087
3.40288
3.405
3.40723
3.40956
3.412
3.41455
3.4172
3.41996
3.42284
3.42585
3.42903
3.4324
3.436
3.43986
3.44397
3.44833
3.45292
3.45777
3.46292
3.46843
3.47438
3.48133
3.48917
3.49725
3.50573
3.51477
3.52447
3.53486
3.54602
3.55802
3.57079
3.58423
3.59854
3.61413
3.63148
3.65123
3.67381
3.69886
3.72728
3.76214
3.8002
3.86797
3.9106
4.02804
4.0483
4.11033
4.10535
4.02262
4.0438
4.08223
4.07935
4.05023
4.01528
4.00335
3.96815
3.97711
3.94458
3.93909
3.86618
3.77431
3.72552
3.67143
3.63818
3.60827
3.58426
3.56543
3.55005
3.5374
3.52624
3.51594
3.50622
3.49699
3.48825
3.48
3.47222
3.4649
3.45799
3.45145
3.44522
3.43929
3.43362
3.42819
3.42298
3.418
3.41323
3.40866
3.40431
3.40015
3.39619
3.39242
3.38879
3.38625
3.38763
3.38909
3.39062
3.39223
3.39393
3.39573
3.39763
3.39964
3.40177
3.40401
3.40636
3.40884
3.41143
3.41413
3.41694
3.41987
3.42292
3.42611
3.42947
3.43304
3.43686
3.44094
3.4453
3.44994
3.45484
3.46
3.4655
3.4714
3.47778
3.48524
3.49369
3.50241
3.51157
3.52134
3.53183
3.54306
3.55506
3.56787
3.58136
3.59547
3.61035
3.62639
3.64397
3.66359
3.68559
3.70971
3.73658
3.76932
3.80415
3.86522
3.90416
3.99027
4.01515
4.09855
4.11566
4.02592
4.03985
4.07956
4.07872
4.04843
4.01481
4.00047
3.96515
3.96561
3.92768
3.93079
3.86254
3.77729
3.72774
3.67619
3.64378
3.61405
3.59033
3.57141
3.55585
3.5429
3.53137
3.52069
3.5106
3.50101
3.49192
3.48332
3.4752
3.46752
3.46023
3.45328
3.44665
3.44031
3.43424
3.42842
3.42285
3.41753
3.41245
3.40762
3.40302
3.39865
3.39449
3.39055
3.38676
3.38432
3.38577
3.3873
3.38891
3.3906
3.39239
3.39428
3.39628
3.3984
3.40063
3.40299
3.40547
3.40808
3.41082
3.41368
3.41665
3.41974
3.42297
3.42633
3.42988
3.43364
3.43765
3.44196
3.44657
3.45147
3.45665
3.46213
3.46796
3.47423
3.48101
3.48897
3.498
3.50732
3.51709
3.52752
3.53872
3.5507
3.56345
3.57696
3.59108
3.60571
3.62103
3.63736
3.65505
3.67445
3.69578
3.71883
3.744
3.77433
3.80595
3.86065
3.89758
3.95931
3.98609
4.08414
4.12081
4.03238
4.0442
4.07221
4.07483
4.04365
4.01137
3.99494
3.9599
3.95339
3.91207
3.92139
3.85965
3.77714
3.72952
3.67944
3.64797
3.61871
3.5954
3.57648
3.5608
3.54761
3.5358
3.52483
3.51445
3.50458
3.49522
3.48633
3.4779
3.46988
3.46222
3.45489
3.44786
3.44112
3.43466
3.42847
3.42257
3.41693
3.41158
3.40649
3.40166
3.39709
3.39275
3.38864
3.38469
3.38239
3.38391
3.38551
3.38719
3.38897
3.39084
3.39282
3.39491
3.39713
3.39947
3.40195
3.40456
3.4073
3.41018
3.41319
3.41632
3.41958
3.42297
3.42651
3.43023
3.43417
3.43839
3.4429
3.44774
3.4529
3.45837
3.46415
3.47029
3.4769
3.48407
3.4925
3.50208
3.51196
3.5223
3.5333
3.5451
3.55773
3.57115
3.58529
3.59995
3.61503
3.63069
3.64722
3.66492
3.68404
3.70465
3.72655
3.74993
3.77766
3.80625
3.85542
3.89276
3.93943
3.96424
4.06742
4.11684
4.03657
4.04956
4.06467
4.06574
4.03571
4.00516
3.98712
3.95274
3.94102
3.89851
3.9107
3.85667
3.77504
3.7303
3.68163
3.65119
3.62249
3.5996
3.58072
3.56499
3.55163
3.5396
3.52842
3.51784
3.50776
3.49817
3.48903
3.48031
3.47196
3.46395
3.45625
3.44884
3.44173
3.43491
3.42839
3.42217
3.41625
3.41064
3.40532
3.40028
3.39551
3.39099
3.38671
3.3826
3.38046
3.38205
3.38372
3.38547
3.38732
3.38928
3.39135
3.39353
3.39584
3.39829
3.40088
3.40361
3.40648
3.4095
3.41266
3.41594
3.41936
3.42292
3.42663
3.43053
3.43465
3.43905
3.44377
3.44882
3.45423
3.45996
3.46603
3.47248
3.47941
3.48693
3.4958
3.5059
3.51632
3.52718
3.53868
3.551
3.56416
3.57815
3.59284
3.60798
3.62345
3.63938
3.65606
3.67374
3.69258
3.7125
3.73327
3.7549
3.78007
3.80609
3.85109
3.89185
3.93297
3.95024
4.05095
4.1036
4.03614
4.05282
4.0539
4.0536
4.02513
3.9964
3.97731
3.94393
3.92867
3.88696
3.89854
3.85275
3.77179
3.73011
3.68295
3.65367
3.62556
3.60308
3.58427
3.56852
3.55504
3.54288
3.53156
3.52083
3.51059
3.50081
3.49143
3.48243
3.47377
3.46542
3.45736
3.44961
3.44216
3.43502
3.4282
3.42171
3.41554
3.4097
3.40416
3.39892
3.39395
3.38925
3.38478
3.38049
3.37853
3.38018
3.38192
3.38375
3.38567
3.38771
3.38986
3.39213
3.39454
3.39709
3.39978
3.40263
3.40563
3.40878
3.41208
3.41552
3.4191
3.42283
3.4267
3.43077
3.43506
3.43964
3.44454
3.44981
3.45544
3.46143
3.46778
3.47451
3.48174
3.48959
3.49886
3.50944
3.52038
3.53173
3.54369
3.55643
3.57002
3.58447
3.5996
3.61517
3.63098
3.64715
3.66395
3.68161
3.70021
3.71957
3.73937
3.75948
3.78239
3.80665
3.8494
3.8972
3.94315
3.95528
4.02787
4.07777
4.03006
4.05121
4.04058
4.03867
4.01226
3.9854
3.96584
3.93381
3.91647
3.87729
3.88515
3.84744
3.76813
3.72925
3.68367
3.65556
3.62802
3.60596
3.58724
3.57151
3.55797
3.54573
3.53432
3.52348
3.5131
3.50313
3.49352
3.48425
3.47528
3.46661
3.45824
3.45018
3.44243
3.43502
3.42795
3.42122
3.41485
3.4088
3.40307
3.39764
3.39249
3.38758
3.3829
3.37838
3.3766
3.37831
3.38012
3.38202
3.38402
3.38613
3.38836
3.39072
3.39321
3.39586
3.39866
3.40162
3.40474
3.40802
3.41146
3.41505
3.41878
3.42267
3.42671
3.43094
3.4354
3.44014
3.44522
3.45068
3.45653
3.46277
3.46938
3.47639
3.4839
3.49204
3.50166
3.51269
3.52411
3.53593
3.54831
3.56141
3.57535
3.59014
3.60562
3.62152
3.63762
3.654
3.67092
3.68859
3.70703
3.72599
3.74509
3.7641
3.78537
3.80905
3.85165
3.9088
3.96337
3.96598
4.00741
4.04689
4.01954
4.04372
4.02537
4.02174
3.99759
3.97269
3.95318
3.92283
3.9046
3.86922
3.87062
3.8405
3.76462
3.728
3.684
3.65697
3.63
3.60835
3.58975
3.57408
3.56053
3.54825
3.53678
3.52584
3.51531
3.50515
3.49531
3.48576
3.47651
3.46755
3.4589
3.45057
3.44258
3.43494
3.42767
3.42077
3.41422
3.40802
3.40214
3.39655
3.39124
3.38615
3.38124
3.37639
3.37467
3.37644
3.37831
3.38028
3.38235
3.38453
3.38684
3.38929
3.39187
3.39461
3.3975
3.40057
3.4038
3.40721
3.41078
3.41451
3.41841
3.42245
3.42666
3.43105
3.43567
3.44057
3.44581
3.45145
3.4575
3.46396
3.47082
3.4781
3.48587
3.49428
3.50422
3.51564
3.52749
3.53975
3.55253
3.56596
3.58018
3.59522
3.61095
3.62709
3.64343
3.65998
3.67699
3.69469
3.71306
3.73183
3.75057
3.76905
3.78954
3.81399
3.85828
3.92436
3.98972
3.9763
3.98785
4.01336
4.00617
4.03068
4.00891
4.00371
3.98193
3.95901
3.93995
3.91148
3.89321
3.86204
3.85584
3.83206
3.761
3.72645
3.68403
3.65797
3.63158
3.61036
3.59193
3.57636
3.56281
3.55051
3.53898
3.52792
3.51724
3.50687
3.49678
3.48698
3.47747
3.46826
3.45936
3.45082
3.44263
3.43483
3.4274
3.42035
3.41368
3.40736
3.4014
3.39576
3.39044
3.38545
3.38082
3.37637
3.37273
3.37457
3.37651
3.37854
3.38068
3.38293
3.38532
3.38784
3.39051
3.39333
3.39632
3.39948
3.40283
3.40635
3.41005
3.41392
3.41796
3.42216
3.42653
3.43108
3.43586
3.44091
3.4463
3.4521
3.45833
3.46501
3.4721
3.47963
3.48765
3.4963
3.50652
3.51828
3.53051
3.54317
3.55632
3.57006
3.58453
3.59976
3.61566
3.63196
3.64846
3.66514
3.68223
3.69997
3.71834
3.73708
3.7558
3.77436
3.79503
3.82131
3.8679
3.93892
4.01403
3.98154
3.96759
3.98169
3.99153
4.01327
3.99198
3.98559
3.96621
3.94512
3.92674
3.90024
3.88236
3.85517
3.84152
3.82264
3.75707
3.72454
3.68377
3.65862
3.63287
3.6121
3.5939
3.57845
3.56491
3.55257
3.54094
3.52975
3.51888
3.50829
3.49797
3.48793
3.47818
3.46875
3.45967
3.45095
3.44261
3.43467
3.42711
3.41994
3.41314
3.4067
3.40061
3.39484
3.38937
3.38421
3.37939
3.37468
3.3708
3.3727
3.37469
3.37679
3.379
3.38133
3.38378
3.38638
3.38912
3.39203
3.39511
3.39836
3.40181
3.40544
3.40926
3.41327
3.41745
3.4218
3.42632
3.43103
3.43596
3.44116
3.4467
3.45264
3.45903
3.46589
3.47321
3.48098
3.48925
3.49812
3.50858
3.52062
3.53316
3.54618
3.55967
3.57369
3.58838
3.60376
3.61978
3.63618
3.65278
3.66955
3.68669
3.70446
3.72287
3.74172
3.76069
3.77984
3.80141
3.82975
3.8774
3.94664
4.02745
3.97815
3.94689
3.95609
3.97697
3.99318
3.97525
3.96843
3.95122
3.93166
3.91403
3.88942
3.87214
3.84841
3.82835
3.81227
3.75269
3.72226
3.68323
3.659
3.63395
3.61368
3.59573
3.58041
3.56687
3.55445
3.54269
3.53132
3.52025
3.50943
3.49889
3.48863
3.47868
3.46908
3.45985
3.451
3.44254
3.43448
3.4268
3.41951
3.41257
3.40598
3.39972
3.39376
3.38808
3.38266
3.37751
3.37261
3.36887
3.37082
3.37288
3.37504
3.37731
3.37971
3.38223
3.3849
3.38772
3.3907
3.39386
3.3972
3.40074
3.40448
3.40841
3.41254
3.41686
3.42136
3.42604
3.4309
3.43598
3.44132
3.44699
3.45306
3.45959
3.46662
3.47414
3.48213
3.49063
3.49973
3.51041
3.52268
3.53548
3.54878
3.56255
3.57683
3.5917
3.60721
3.62331
3.63978
3.65643
3.67325
3.69043
3.70822
3.72668
3.74568
3.76505
3.78505
3.8078
3.83725
3.88295
3.94413
4.02513
3.96467
3.92838
3.93867
3.96324
3.97259
3.95937
3.95282
3.93743
3.919
3.90209
3.87917
3.8625
3.84153
3.8169
3.80094
3.74794
3.71965
3.6825
3.65921
3.63493
3.61517
3.59749
3.58228
3.5687
3.55616
3.54422
3.53265
3.52136
3.51033
3.49957
3.48913
3.47903
3.46929
3.45994
3.45099
3.44243
3.43426
3.42647
3.41904
3.41196
3.40521
3.39876
3.3926
3.38672
3.38108
3.3757
3.37061
3.36693
3.36894
3.37106
3.37329
3.37562
3.37808
3.38068
3.38341
3.3863
3.38935
3.39259
3.39601
3.39963
3.40346
3.4075
3.41175
3.4162
3.42084
3.42566
3.43068
3.43591
3.44139
3.44719
3.45337
3.46003
3.46719
3.47488
3.48308
3.49181
3.50112
3.51201
3.52448
3.53748
3.55099
3.56498
3.57946
3.5945
3.61011
3.62625
3.64274
3.65942
3.67627
3.69347
3.71125
3.72973
3.74887
3.76861
3.7894
3.81305
3.84167
3.88158
3.93137
4.00183
3.94946
3.91561
3.92814
3.95117
3.95343
3.94479
3.93887
3.92488
3.90719
3.89091
3.86945
3.85328
3.83417
3.8068
3.78943
3.74306
3.71682
3.68167
3.65934
3.63587
3.61662
3.5992
3.58406
3.5704
3.55769
3.54555
3.53376
3.52225
3.51102
3.50009
3.48949
3.47927
3.46943
3.45998
3.45094
3.44229
3.43402
3.42612
3.41856
3.41133
3.40442
3.39779
3.39145
3.38538
3.37956
3.37398
3.36868
3.365
3.36706
3.36924
3.37153
3.37393
3.37645
3.3791
3.3819
3.38486
3.38798
3.39129
3.39478
3.39849
3.4024
3.40654
3.41089
3.41546
3.42023
3.4252
3.43037
3.43574
3.44136
3.44728
3.45358
3.46033
3.46761
3.47545
3.48383
3.49276
3.50228
3.51337
3.52603
3.53918
3.55285
3.56699
3.58162
3.59676
3.61243
3.62858
3.64507
3.66175
3.6786
3.69579
3.71354
3.73199
3.75117
3.77111
3.79234
3.81613
3.84181
3.87247
3.91101
3.96929
3.9307
3.9078
3.92405
3.94073
3.93697
3.93158
3.92623
3.91326
3.89601
3.88031
3.86007
3.84426
3.82612
3.79768
3.77856
3.73836
3.71396
3.68086
3.65948
3.63683
3.61805
3.60085
3.58574
3.57196
3.55906
3.5467
3.53468
3.52297
3.51156
3.50048
3.48977
3.47945
3.46952
3.46
3.45088
3.44214
3.43377
3.42575
3.41806
3.41069
3.40361
3.39682
3.3903
3.38404
3.37803
3.37228
3.36678
3.36306
3.36518
3.36742
3.36976
3.37222
3.3748
3.37752
3.38039
3.3834
3.38659
3.38996
3.39352
3.3973
3.40129
3.40551
3.40996
3.41463
3.41953
3.42464
3.42995
3.43547
3.44123
3.44727
3.45367
3.46052
3.46789
3.47584
3.48437
3.49347
3.50319
3.51449
3.52732
3.54061
3.55438
3.56862
3.58333
3.59852
3.6142
3.63032
3.64676
3.6634
3.68022
3.69737
3.71504
3.73337
3.75245
3.77234
3.79349
3.81646
3.83767
3.85753
3.88537
3.93242
3.91206
3.90361
3.92239
3.93194
3.9235
3.91946
3.91423
3.90201
3.88508
3.87001
3.85081
3.83529
3.81751
3.78939
3.76898
3.73405
3.71126
3.68019
3.65969
3.63782
3.61947
3.60244
3.58731
3.57337
3.56027
3.54768
3.53546
3.52357
3.51202
3.50082
3.49002
3.47962
3.46962
3.46003
3.45082
3.44199
3.43351
3.42536
3.41753
3.41
3.40276
3.39579
3.3891
3.38266
3.37648
3.37055
3.36488
3.36112
3.3633
3.36559
3.36799
3.37051
3.37315
3.37593
3.37885
3.38193
3.38517
3.3886
3.39223
3.39607
3.40013
3.40442
3.40896
3.41373
3.41874
3.42397
3.42943
3.43509
3.44099
3.44715
3.45366
3.46059
3.46804
3.47606
3.4847
3.49396
3.50385
3.51534
3.52833
3.54175
3.55561
3.5699
3.58465
3.59984
3.61548
3.63151
3.64785
3.66438
3.68112
3.69818
3.71571
3.73384
3.75265
3.77219
3.79271
3.81401
3.83018
3.83961
3.85768
3.89586
3.89489
3.90061
3.92061
3.92335
3.9122
3.90781
3.90213
3.89052
3.87401
3.85973
3.84153
3.82633
3.80861
3.78195
3.76106
3.7303
3.7089
3.67972
3.66002
3.63886
3.62085
3.60395
3.58877
3.57466
3.56135
3.54857
3.53617
3.52413
3.51246
3.50117
3.49029
3.47981
3.46974
3.46006
3.45076
3.44182
3.43321
3.42493
3.41694
3.40925
3.40185
3.39471
3.38784
3.38124
3.37489
3.3688
3.36299
3.35919
3.36141
3.36376
3.36621
3.36879
3.37149
3.37432
3.3773
3.38044
3.38374
3.38722
3.3909
3.3948
3.39892
3.40328
3.40789
3.41275
3.41786
3.42321
3.42879
3.43459
3.44063
3.44692
3.45353
3.46054
3.46805
3.47614
3.48486
3.49422
3.50426
3.51591
3.52906
3.5426
3.55654
3.57087
3.58562
3.60077
3.61631
3.63221
3.64838
3.66476
3.68135
3.69825
3.71557
3.7334
3.75177
3.77071
3.79016
3.80927
3.82076
3.82179
3.83149
3.86348
3.87851
3.89564
3.91574
3.91425
3.90174
3.89588
3.8893
3.87832
3.86253
3.84928
3.83218
3.81745
3.79983
3.77541
3.75492
3.72722
3.70701
3.67952
3.66049
3.63994
3.6222
3.60539
3.59013
3.57587
3.56237
3.54941
3.53687
3.52471
3.51294
3.50157
3.49061
3.48006
3.4699
3.46012
3.4507
3.44163
3.43288
3.42444
3.4163
3.40844
3.40087
3.39357
3.38654
3.37977
3.37327
3.36704
3.36108
3.35725
3.35952
3.36192
3.36443
3.36706
3.36981
3.3727
3.37574
3.37892
3.38228
3.38581
3.38955
3.39349
3.39767
3.40209
3.40676
3.41169
3.41689
3.42234
3.42804
3.43398
3.44015
3.44657
3.45329
3.46039
3.46795
3.47608
3.48484
3.49427
3.50441
3.5162
3.52949
3.54314
3.55715
3.57152
3.58626
3.60134
3.61676
3.63248
3.64844
3.6646
3.68098
3.69764
3.71467
3.7321
3.74992
3.76806
3.7862
3.80298
3.81086
3.80632
3.80946
3.83678
3.8624
3.88708
3.9069
3.90307
3.89063
3.88306
3.87543
3.86519
3.85051
3.8386
3.82282
3.80885
3.79155
3.76982
3.75049
3.72486
3.70564
3.67958
3.66109
3.64106
3.62352
3.60677
3.59144
3.57704
3.5634
3.5503
3.53764
3.52538
3.51353
3.50207
3.49102
3.48037
3.4701
3.4602
3.45064
3.44141
3.4325
3.4239
3.41559
3.40756
3.39982
3.39236
3.38518
3.37827
3.37163
3.36526
3.35918
3.35531
3.35763
3.36008
3.36264
3.36532
3.36812
3.37107
3.37415
3.37739
3.3808
3.38438
3.38816
3.39215
3.39637
3.40084
3.40556
3.41056
3.41583
3.42137
3.42717
3.43323
3.43953
3.44608
3.45292
3.46011
3.46773
3.47589
3.48467
3.49414
3.50433
3.51621
3.52961
3.54336
3.55744
3.57184
3.58657
3.60159
3.61687
3.6324
3.64812
3.66401
3.68011
3.69647
3.71313
3.73009
3.74727
3.76451
3.7813
3.79597
3.80155
3.79428
3.79292
3.81599
3.84667
3.87499
3.89401
3.88955
3.87801
3.86909
3.86057
3.8512
3.83807
3.8278
3.8136
3.80074
3.78415
3.7652
3.74754
3.72321
3.70481
3.67992
3.66185
3.64223
3.62485
3.60815
3.59276
3.57827
3.56451
3.5513
3.53854
3.5262
3.51425
3.5027
3.49154
3.48077
3.47036
3.4603
3.45058
3.44118
3.43209
3.42331
3.41482
3.40663
3.39872
3.39111
3.38378
3.37673
3.36996
3.36347
3.35728
3.35337
3.35574
3.35823
3.36084
3.36357
3.36642
3.36941
3.37255
3.37584
3.37929
3.38292
3.38674
3.39078
3.39504
3.39954
3.40431
3.40936
3.41468
3.4203
3.4262
3.43236
3.43878
3.44546
3.45242
3.4597
3.46739
3.47558
3.48437
3.49383
3.50405
3.51597
3.52943
3.54325
3.55738
3.57182
3.58654
3.6015
3.61666
3.63199
3.64746
3.66307
3.67885
3.69486
3.7111
3.72754
3.74404
3.76038
3.77591
3.78891
3.79345
3.78582
3.78194
3.80076
3.83194
3.86056
3.87814
3.87411
3.8638
3.85416
3.84508
3.83669
3.82543
3.81704
3.80473
3.79336
3.77789
3.76153
3.74576
3.72221
3.70448
3.68052
3.66277
3.6435
3.62625
3.60961
3.59419
3.57963
3.56578
3.55249
3.53964
3.5272
3.51515
3.50348
3.49219
3.48126
3.47068
3.46044
3.45053
3.44094
3.43166
3.42269
3.41402
3.40565
3.39758
3.38982
3.38235
3.37517
3.36828
3.36168
3.35537
3.35143
3.35384
3.35637
3.35903
3.3618
3.36471
3.36774
3.37093
3.37426
3.37776
3.38143
3.38529
3.38937
3.39366
3.3982
3.403
3.40809
3.41346
3.41914
3.42511
3.43136
3.4379
3.44469
3.45177
3.45916
3.46692
3.47514
3.48393
3.49338
3.50358
3.51549
3.52897
3.54282
3.55699
3.57145
3.58616
3.60107
3.61612
3.63128
3.64651
3.66184
3.6773
3.69293
3.70874
3.72464
3.74047
3.75598
3.77045
3.78228
3.78673
3.78041
3.77568
3.79037
3.8189
3.84539
3.8609
3.85769
3.84859
3.83878
3.82951
3.82216
3.81297
3.80659
3.79641
3.7869
3.77295
3.75877
3.74485
3.72181
3.70462
3.6814
3.6639
3.64494
3.6278
3.61123
3.59581
3.58121
3.5673
3.55392
3.54098
3.52843
3.51625
3.50444
3.49298
3.48186
3.47109
3.46064
3.45052
3.44071
3.43122
3.42205
3.4132
3.40466
3.39643
3.38852
3.38091
3.3736
3.36659
3.35988
3.35347
3.34948
3.35193
3.35451
3.35721
3.36002
3.36297
3.36605
3.36928
3.37266
3.37619
3.37991
3.38381
3.38792
3.39224
3.39681
3.40164
3.40676
3.41217
3.41788
3.42391
3.43025
3.43687
3.44378
3.45097
3.45846
3.46631
3.47458
3.48338
3.4928
3.50295
3.51482
3.52827
3.5421
3.55626
3.57072
3.58542
3.60028
3.61524
3.63025
3.64529
3.66036
3.67551
3.69078
3.70615
3.72154
3.73676
3.75154
3.76518
3.77631
3.78126
3.77715
3.77277
3.78377
3.80797
3.83081
3.84382
3.84131
3.83321
3.82362
3.81447
3.80816
3.80105
3.79672
3.78884
3.78148
3.7694
3.75685
3.74458
3.72194
3.70522
3.68259
3.66531
3.64662
3.6296
3.61312
3.59771
3.58308
3.56911
3.55565
3.5426
3.52992
3.51759
3.50559
3.49393
3.4826
3.47159
3.46091
3.45055
3.44052
3.43082
3.42145
3.4124
3.40368
3.39529
3.38722
3.37948
3.37204
3.36491
3.35808
3.35156
3.34754
3.35002
3.35264
3.35537
3.35823
3.36122
3.36434
3.36761
3.37102
3.3746
3.37835
3.38229
3.38643
3.39078
3.39538
3.40023
3.40537
3.4108
3.41655
3.42262