/*--------------------------------*- C++ -*----------------------------------*\
  =========                 |
  \\      /  F ield         | OpenFOAM: The Open Source CFD Toolbox
   \\    /   O peration     | Website:  https://openfoam.org
    \\  /    A nd           | Version:  9
     \\/     M anipulation  |
\*---------------------------------------------------------------------------*/
FoamFile
{
    format      ascii;
    class       volScalarField;
    location    "0.17";
    object      p_rgh;
}
// * * * * * * * * * * * * * * * * * * * * * * * * * * * * * * * * * * * * * //

dimensions      [1 -1 -2 0 0 0 0];

internalField   nonuniform List<scalar> 
20000
(
3.64253e-05
0.000106661
0.000178602
0.000253131
0.000330958
0.000412571
0.000498278
0.000588279
0.000682666
0.000781402
0.000884284
0.000990882
0.00110048
0.00121199
0.00132389
0.00143411
0.00153982
0.00163725
0.00172135
0.00178518
0.00181969
0.0018132
0.00175109
0.00161651
0.00139195
0.00106212
0.000617538
5.60437e-05
-0.000621466
-0.00142376
-0.00246986
-0.00386278
-0.00563179
-0.00796282
-0.0111215
-0.015539
-0.0220218
-0.0322119
-0.049524
-0.0807435
-0.136819
-0.222502
-0.299311
-0.315685
-0.321846
-0.382289
-0.467705
-0.317277
-0.116123
-0.0932403
-0.211718
-0.485528
-1.42557
-2.16636
-0.544081
-1.09064
0.0406558
-0.248045
-0.00563379
-0.252958
-0.212439
-0.270716
-0.423382
-0.721493
-1.56327
-2.55585
-2.21923
-1.48917
-0.70213
-0.398496
-0.233347
-0.139904
-0.08015
-0.0429205
-0.0264469
-0.0339862
-0.0570042
-0.0650908
-0.0541569
-0.0401717
-0.0291773
-0.0214212
-0.0159649
-0.0120248
-0.00910161
-0.00688954
-0.00519535
-0.00389057
-0.00288516
-0.00211319
-0.00152472
-0.001081
-0.000751425
-0.000511446
-0.000341101
-0.000223919
-0.00014601
-9.45932e-05
-5.50899e-05
-1.29194e-05
8.45776e-05
0.000255437
0.000433305
0.000618568
0.000811863
0.00101403
0.00122578
0.00144774
0.00168033
0.00192381
0.00217819
0.00244314
0.00271797
0.00300155
0.00329232
0.00358822
0.00388671
0.00418463
0.00447805
0.00476184
0.00502937
0.00527219
0.00547886
0.00563605
0.00572832
0.00573956
0.00565449
0.00545887
0.00513612
0.00465851
0.00391357
0.00273524
0.00102802
-0.00145306
-0.00507518
-0.0104201
-0.0184603
-0.030838
-0.0501641
-0.0798425
-0.12247
-0.176215
-0.223822
-0.244557
-0.257674
-0.279609
-0.307805
-0.234121
-0.136114
-0.118475
-0.193267
-0.338121
-0.837322
-1.17766
-0.567034
-0.48493
0.448533
-0.185736
0.211451
-0.138707
-0.125475
-0.222929
-0.381428
-0.62911
-1.24228
-1.86449
-1.74378
-1.29207
-0.639813
-0.391895
-0.234297
-0.145533
-0.0899448
-0.0561668
-0.0388094
-0.0342936
-0.0369161
-0.0367039
-0.032426
-0.0269838
-0.0214245
-0.0164641
-0.0123998
-0.00920989
-0.00675138
-0.00487049
-0.00343868
-0.00235678
-0.0015496
-0.000959309
-0.000540183
-0.000255088
-7.33407e-05
3.06304e-05
7.82005e-05
8.72903e-05
7.28878e-05
4.80744e-05
2.62096e-05
1.4265e-05
0.000117734
0.000359237
0.000613701
0.000880019
0.00115875
0.0014508
0.00175696
0.00207791
0.00241417
0.0027661
0.00313374
0.0035168
0.00391456
0.00432592
0.00474938
0.00518316
0.00562525
0.00607344
0.00652518
0.00697729
0.00742543
0.00786345
0.00828249
0.00867052
0.00901231
0.00929015
0.00948527
0.00957812
0.00954551
0.00935249
0.00890323
0.00800004
0.00650127
0.00414812
0.000562961
-0.00482074
-0.0128731
-0.0248938
-0.0426507
-0.0679782
-0.101473
-0.141267
-0.176043
-0.191878
-0.200712
-0.20909
-0.219118
-0.164874
-0.0900584
-0.0645678
-0.0970943
-0.114014
-0.239056
-0.434719
-0.150425
0.0391465
0.684436
0.0404036
0.413109
0.0139387
0.000294712
-0.130243
-0.275673
-0.446943
-0.792747
-1.21093
-1.16886
-0.890884
-0.471799
-0.330933
-0.19967
-0.127633
-0.0805163
-0.050504
-0.0332929
-0.0265647
-0.0260811
-0.0243181
-0.0205409
-0.0166379
-0.0129333
-0.00967378
-0.00696249
-0.00478364
-0.00307269
-0.00175433
-0.00075959
-3.09608e-05
0.000478671
0.000809081
0.000995146
0.00106796
0.00105498
0.000979875
0.000862331
0.000718313
0.000560408
0.000397963
0.000238149
7.83889e-05
0.000151959
0.000465039
0.000795257
0.00114088
0.00150294
0.00188267
0.00228101
0.00269876
0.00313658
0.0035949
0.0040738
0.00457298
0.00509171
0.00562887
0.00618311
0.00675297
0.00733711
0.00793437
0.00854377
0.0091641
0.00979332
0.0104275
0.0110593
0.0116776
0.0122667
0.0128075
0.0132794
0.013661
0.0139277
0.0140426
0.0139359
0.0133969
0.0122469
0.010242
0.00704416
0.00217654
-0.00504633
-0.0155675
-0.0305734
-0.051234
-0.0776312
-0.108039
-0.133773
-0.144497
-0.148508
-0.148955
-0.14667
-0.0997011
-0.0299782
0.0142088
0.0223896
0.0787732
0.156811
0.0984923
0.313953
0.384848
0.764483
0.25369
0.512768
0.155003
0.134744
-0.0125565
-0.136782
-0.253104
-0.405855
-0.653558
-0.610312
-0.486463
-0.2891
-0.238113
-0.141715
-0.0937081
-0.0584051
-0.0349405
-0.0211735
-0.0152431
-0.0145793
-0.0130598
-0.0101294
-0.00713333
-0.00444631
-0.00227405
-0.000594674
0.000680138
0.00163053
0.00231745
0.00278472
0.00306475
0.00318443
0.00316915
0.00304416
0.00283407
0.00256164
0.00224668
0.00190542
0.00155084
0.00119278
0.000838617
0.00049353
0.00015834
0.000188218
0.000578201
0.000989164
0.00141932
0.00187026
0.00234352
0.00284025
0.0033615
0.0039081
0.00448058
0.00507906
0.00570322
0.00635226
0.00702506
0.00772034
0.00843698
0.0091743
0.00993226
0.0107115
0.0115129
0.0123367
0.0131812
0.0140407
0.0149047
0.0157572
0.0165785
0.0173472
0.018042
0.018639
0.0191013
0.0193912
0.0192921
0.0185926
0.0170772
0.0144637
0.0103718
0.00427581
-0.00450233
-0.0167233
-0.032979
-0.0527059
-0.0741131
-0.0914061
-0.0978696
-0.0977471
-0.0906354
-0.0783384
-0.0370833
0.0252428
0.083899
0.123781
0.212323
0.386788
0.445264
0.645334
0.586545
0.768482
0.418001
0.567087
0.267746
0.248824
0.102618
0.0026108
-0.0812984
-0.121285
-0.234518
-0.18004
-0.173532
-0.138122
-0.139675
-0.0778981
-0.0538276
-0.0309256
-0.015555
-0.00648167
-0.00211964
-0.00107753
0.000211717
0.00183499
0.00335624
0.00469362
0.00570114
0.00638849
0.00681262
0.00702828
0.00707596
0.00698143
0.00676212
0.00643364
0.0060132
0.00551982
0.00497282
0.00439012
0.00378706
0.00317591
0.00256621
0.00196527
0.00137825
0.000808886
0.000261417
0.000225684
0.000694533
0.00118852
0.00170572
0.00224823
0.00281791
0.00341622
0.0040445
0.00470382
0.00539485
0.00611783
0.00687242
0.00765781
0.00847288
0.00931647
0.0101878
0.0110868
0.0120147
0.0129738
0.013967
0.0149969
0.016064
0.0171641
0.0182872
0.0194171
0.0205336
0.0216159
0.0226448
0.0235987
0.0244444
0.0251823
0.0255955
0.0254423
0.0245443
0.0226797
0.0195605
0.0147989
0.00793831
-0.00141772
-0.0133703
-0.0269693
-0.0406737
-0.0509097
-0.0532763
-0.0490972
-0.0366051
-0.0171687
0.0201801
0.0754906
0.141886
0.204608
0.308056
0.5317
0.661309
0.819188
0.700734
0.758866
0.537785
0.613511
0.362818
0.34182
0.205409
0.129505
0.0666172
0.0884366
0.0572857
0.112349
0.0472308
-0.0185722
-0.047849
-0.0172434
-0.0127438
-0.000883645
0.00648589
0.0108441
0.0129703
0.0134669
0.0139941
0.0143117
0.0144129
0.0143856
0.0141894
0.0138532
0.0134069
0.0128721
0.0122608
0.0115782
0.0108283
0.0100184
0.00916017
0.00826737
0.00735404
0.00643265
0.0055133
0.0046038
0.00371018
0.00283726
0.00198852
0.00116702
0.000378084
0.000263167
0.000810479
0.00138714
0.00199108
0.0026249
0.00329081
0.00399063
0.00472599
0.00549821
0.00630815
0.00715614
0.00804189
0.00896461
0.00992318
0.0109166
0.0119444
0.0130073
0.0141077
0.0152496
0.0164382
0.0176785
0.0189729
0.0203188
0.0217067
0.0231203
0.0245395
0.0259442
0.0273217
0.0286522
0.0299106
0.0311406
0.0321313
0.0326128
0.0324492
0.0314827
0.0295145
0.0262843
0.0215239
0.0151062
0.00719514
-0.00126046
-0.00908543
-0.0138523
-0.0123104
-0.00440186
0.0117186
0.0347886
0.071074
0.122519
0.193078
0.27203
0.380518
0.625236
0.782455
0.901554
0.769047
0.753727
0.6222
0.659137
0.448053
0.419652
0.295563
0.240785
0.192076
0.246085
0.259614
0.303777
0.203001
0.0786261
0.0336881
0.0375826
0.0274695
0.0298625
0.0298959
0.0297422
0.0291632
0.0282269
0.0275028
0.0265794
0.0254776
0.0242699
0.0229808
0.0216692
0.0203623
0.019066
0.0177742
0.0164777
0.0151717
0.0138576
0.0125414
0.011231
0.00993359
0.00865504
0.00739947
0.00616984
0.00496874
0.00379886
0.00266245
0.00156224
0.000505477
0.00030068
0.000926221
0.0015853
0.00227571
0.00300052
0.00376238
0.00456344
0.00540566
0.00629062
0.00721939
0.0081924
0.00920943
0.0102697
0.0113721
0.0125158
0.0137007
0.0149282
0.016202
0.0175279
0.0189134
0.0203659
0.02189
0.0234845
0.0251405
0.0268418
0.0285689
0.0303046
0.0320386
0.0337636
0.0354585
0.0372162
0.0388378
0.0400256
0.0406891
0.040734
0.040044
0.0384664
0.0358736
0.032302
0.0280092
0.0237752
0.0204761
0.0199892
0.0249326
0.0359026
0.0544416
0.0797001
0.11604
0.165452
0.237612
0.327669
0.433577
0.684803
0.849756
0.927599
0.803202
0.748127
0.677733
0.695304
0.521133
0.484365
0.373304
0.335362
0.29523
0.365423
0.401096
0.427165
0.312419
0.157906
0.103808
0.0862907
0.0656356
0.0598409
0.0534158
0.0491399
0.0458012
0.0430587
0.0408558
0.0386535
0.0363987
0.0341094
0.0318298
0.0296187
0.0274942
0.0254522
0.0234784
0.0215594
0.0196872
0.0178598
0.0160775
0.0143412
0.0126504
0.0110033
0.00939801
0.00783277
0.0063072
0.00482241
0.00337997
0.00198246
0.000639171
0.000338398
0.00104242
0.00178417
0.00256135
0.00337753
0.00423577
0.00513859
0.00608827
0.00708669
0.00813512
0.00923415
0.0103836
0.0115828
0.0128305
0.0141261
0.0154698
0.0168639
0.018313
0.0198249
0.0214096
0.0230768
0.0248335
0.02668
0.028608
0.0306017
0.0326425
0.0347165
0.0368194
0.0389525
0.0411048
0.0434187
0.0457116
0.0476571
0.0492091
0.0503317
0.050978
0.0510749
0.0505882
0.0496456
0.0485291
0.0478457
0.0482524
0.0512647
0.0590426
0.0724446
0.0927509
0.119447
0.155708
0.20336
0.274128
0.37132
0.467982
0.72153
0.882327
0.916821
0.80999
0.740542
0.709266
0.716367
0.578
0.535572
0.438034
0.412896
0.377203
0.453135
0.496172
0.502763
0.385357
0.220682
0.161903
0.128676
0.100671
0.0879489
0.076143
0.0682952
0.0624003
0.0578506
0.0541339
0.0506215
0.0472002
0.0438559
0.0406324
0.0375653
0.0346543
0.031885
0.0292396
0.0267047
0.024272
0.0219359
0.0196906
0.017529
0.0154423
0.0134216
0.011459
0.00954908
0.00768899
0.00587885
0.0041201
0.00241546
0.000774645
0.000376212
0.00115879
0.00198331
0.00284743
0.00375525
0.00471027
0.00571538
0.00677323
0.00788598
0.00905515
0.0102815
0.0115648
0.0129045
0.0142995
0.0157491
0.0172538
0.0188165
0.0204432
0.0221434
0.0239294
0.0258137
0.0278057
0.0299073
0.0321112
0.0344019
0.0367621
0.0391815
0.0416633
0.0442181
0.0468424
0.0497346
0.0527272
0.0554627
0.0579357
0.0601609
0.0621463
0.0638742
0.0653696
0.0668087
0.0684669
0.0708065
0.0743277
0.080263
0.0903985
0.105735
0.12738
0.154841
0.190619
0.23643
0.303312
0.404108
0.485844
0.744927
0.889082
0.883274
0.799096
0.732407
0.722583
0.723127
0.61813
0.573873
0.489947
0.473932
0.440217
0.514651
0.555125
0.54379
0.430338
0.268656
0.208379
0.164547
0.131745
0.113504
0.0975004
0.0866939
0.0785335
0.0722977
0.0671392
0.0623649
0.0578154
0.0534623
0.0493322
0.0454348
0.0417548
0.038272
0.034969
0.0318331
0.0288544
0.0260221
0.023323
0.0207411
0.0182598
0.0158638
0.0135404
0.0112812
0.00908187
0.00694192
0.00486317
0.00284875
0.000906593
0.000413962
0.00127486
0.00218188
0.00313273
0.00413206
0.00518379
0.00629125
0.00745745
0.00868489
0.00997535
0.0113297
0.012748
0.0142295
0.0157732
0.0173783
0.0190456
0.0207785
0.0225842
0.024474
0.0264626
0.0285652
0.0307938
0.0331523
0.0356344
0.0382252
0.0409086
0.0436786
0.0465459
0.0495309
0.0526387
0.0561224
0.0598317
0.0633734
0.0667777
0.0701019
0.0733956
0.0766798
0.080019
0.0836043
0.0876721
0.09256
0.0986659
0.107018
0.119101
0.135938
0.158523
0.186267
0.221342
0.265418
0.32713
0.429247
0.495045
0.759592
0.873558
0.842328
0.779195
0.723355
0.723981
0.720073
0.642835
0.602545
0.530504
0.520249
0.48728
0.555878
0.587966
0.56194
0.455897
0.304485
0.244679
0.194181
0.1586
0.13625
0.117156
0.103973
0.0938686
0.0861038
0.0796198
0.0736863
0.0681052
0.062821
0.0578358
0.0531407
0.0487151
0.0445405
0.0406022
0.0368876
0.033383
0.0300705
0.026928
0.0239316
0.0210577
0.0182859
0.0156004
0.0129908
0.0104519
0.00798342
0.00558753
0.00326789
0.00102858
0.000451496
0.00139017
0.00237915
0.0034162
0.00450654
0.00565456
0.00686404
0.00813838
0.00948043
0.0108923
0.012375
0.0139287
0.0155527
0.0172459
0.0190076
0.0208385
0.0227425
0.0247279
0.0268076
0.0289988
0.0313196
0.0337845
0.0364
0.0391609
0.0420529
0.0450613
0.0481844
0.0514405
0.0548597
0.0584558
0.0625372
0.0669691
0.0713199
0.0756495
0.0800492
0.0845983
0.0893458
0.0943832
0.0998917
0.106041
0.113056
0.121272
0.13158
0.145221
0.163193
0.186366
0.21408
0.248336
0.290903
0.347002
0.444344
0.507721
0.768777
0.84107
0.803433
0.755833
0.71042
0.718308
0.712962
0.659846
0.620806
0.561268
0.554382
0.521635
0.581827
0.602484
0.567815
0.469468
0.330899
0.272696
0.21832
0.181464
0.156222
0.134947
0.119898
0.108181
0.0990824
0.0914188
0.0844569
0.0779534
0.0718199
0.0660372
0.060588
0.0554551
0.0506249
0.0460856
0.0418228
0.0378164
0.0340404
0.0304646
0.0270584
0.0237932
0.0206457
0.0175983
0.0146402
0.0117661
0.00897582
0.00627208
0.00365863
0.00113411
0.000488718
0.00150445
0.00257459
0.00369708
0.00487769
0.00612132
0.00743218
0.00881414
0.0102704
0.0118034
0.0134144
0.0151037
0.0168707
0.018714
0.0206329
0.022628
0.0247036
0.0268687
0.029138
0.0315308
0.0340684
0.0367683
0.0396394
0.0426781
0.0458706
0.0492038
0.0526801
0.0563254
0.0601786
0.0642623
0.0689402
0.0740911
0.0792419
0.0844775
0.0899148
0.0956496
0.101751
0.10833
0.115544
0.123487
0.132286
0.142227
0.154104
0.168955
0.18773
0.211207
0.238667
0.271978
0.313206
0.36497
0.457655
0.522796
0.760206
0.799166
0.775235
0.733377
0.692854
0.706733
0.705406
0.669711
0.635067
0.584631
0.578971
0.546084
0.596353
0.604382
0.568146
0.476133
0.350085
0.294226
0.237799
0.200749
0.173555
0.150827
0.134325
0.121339
0.111134
0.102467
0.0946126
0.0872876
0.0803792
0.0738575
0.067707
0.0619174
0.0564802
0.0513832
0.0466068
0.0421234
0.0378991
0.0338977
0.0300842
0.0264281
0.022905
0.0194979
0.0161962
0.0129954
0.00989527
0.00689865
0.00400874
0.00121737
0.000525529
0.0016174
0.00276772
0.00397466
0.00524458
0.00658288
0.00799426
0.00948302
0.0110528
0.0127064
0.0144454
0.0162702
0.0181802
0.0201739
0.0222504
0.0244101
0.0266572
0.0290017
0.0314595
0.0340523
0.0368043
0.0397365
0.0428608
0.0461749
0.0496659
0.0533217
0.0571491
0.0611807
0.0654642
0.0700307
0.075298
0.0811556
0.087087
0.0931989
0.099625
0.106467
0.113802
0.121757
0.130464
0.139949
0.150254
0.161625
0.174759
0.190533
0.209828
0.233362
0.260411
0.292661
0.332568
0.380855
0.4682
0.52747
0.741414
0.761467
0.754695
0.715884
0.670906
0.692318
0.699875
0.676646
0.646103
0.602063
0.596112
0.56276
0.602398
0.597913
0.565885
0.478888
0.363702
0.310802
0.253304
0.21688
0.1884
0.1648
0.147257
0.133309
0.122224
0.11273
0.104111
0.0960564
0.0884451
0.0812485
0.0744591
0.0680737
0.0620849
0.0564759
0.0512198
0.0462812
0.0416205
0.037198
0.032978
0.0289306
0.0250331
0.0212703
0.0176331
0.0141177
0.0107238
0.00745356
0.00430884
0.00127351
0.000561825
0.00172871
0.00295802
0.00424821
0.00560623
0.00703799
0.00854869
0.0101431
0.0118254
0.0135986
0.0154649
0.0174247
0.0194774
0.0216215
0.0238555
0.0261797
0.0285983
0.0311212
0.033766
0.0365563
0.0395195
0.0426804
0.0460538
0.0496396
0.0534254
0.0574004
0.0615746
0.0659868
0.0706932
0.0757341
0.0815786
0.0881235
0.094808
0.101758
0.109118
0.116986
0.125439
0.134603
0.144594
0.155388
0.166956
0.179522
0.193666
0.210141
0.229737
0.253115
0.279629
0.31071
0.349124
0.393928
0.474963
0.527249
0.712204
0.727591
0.740895
0.705526
0.651611
0.677686
0.696882
0.682697
0.654274
0.614591
0.607265
0.573233
0.602147
0.586343
0.562074
0.479645
0.373234
0.32358
0.265416
0.230278
0.201003
0.176968
0.158743
0.144114
0.132355
0.122188
0.112916
0.10422
0.0959822
0.0881851
0.0808298
0.0739161
0.0674326
0.061355
0.0556483
0.0502713
0.0451818
0.0403405
0.035714
0.0312758
0.0270072
0.0228958
0.0189345
0.0151202
0.0114517
0.00792969
0.00455372
0.0012991
0.000597528
0.00183814
0.0031451
0.00451716
0.00596182
0.00748557
0.00909409
0.0107927
0.012586
0.0144776
0.0164699
0.0185637
0.0207585
0.0230524
0.0254436
0.0279319
0.0305211
0.0332214
0.0360509
0.0390356
0.0422059
0.0455905
0.049208
0.0530603
0.057136
0.061425
0.0659396
0.0707238
0.0758425
0.0813456
0.0877512
0.0949589
0.102362
0.110103
0.118337
0.127156
0.136623
0.146846
0.157925
0.169805
0.182412
0.195955
0.210914
0.227904
0.247644
0.27069
0.296544
0.326349
0.363081
0.404433
0.478883
0.525934
0.677691
0.693883
0.731249
0.707115
0.638362
0.664742
0.695494
0.688012
0.659784
0.622979
0.613524
0.578803
0.597366
0.572174
0.557168
0.479548
0.380344
0.3332
0.274723
0.241305
0.211653
0.187527
0.168903
0.15382
0.141553
0.130839
0.121011
0.111758
0.102978
0.0946646
0.0868225
0.0794486
0.0725237
0.0660147
0.0598804
0.054077
0.0485637
0.0433051
0.0382733
0.0334479
0.0288149
0.0243656
0.020095
0.0159998
0.0120774
0.00832598
0.00474191
0.00129192
0.000632569
0.00194552
0.00332863
0.00478099
0.00631068
0.00792469
0.00962925
0.0114302
0.0133327
0.0153409
0.0174576
0.0196839
0.0220195
0.0244622
0.0270098
0.0296614
0.0324202
0.0352962
0.0383081
0.0414834
0.0448559
0.0484583
0.0523133
0.0564255
0.0607847
0.0653811
0.070228
0.0753733
0.0808907
0.0868405
0.0937875
0.10163
0.109713
0.118191
0.127232
0.136928
0.147317
0.158476
0.170481
0.183248
0.196689
0.210997
0.226587
0.243939
0.263684
0.286263
0.311322
0.339735
0.374597
0.412659
0.480429
0.523061
0.640495
0.660757
0.722792
0.717807
0.635077
0.656256
0.694685
0.691804
0.66269
0.627741
0.61581
0.58061
0.589563
0.557042
0.551545
0.478639
0.386764
0.337977
0.283886
0.250642
0.220723
0.19672
0.177886
0.162511
0.149858
0.138694
0.128399
0.118679
0.109448
0.100705
0.0924533
0.0846813
0.0773598
0.0704486
0.0639035
0.0576827
0.0517504
0.0460786
0.0406472
0.0354429
0.0304573
0.0256853
0.0211228
0.016766
0.0126099
0.00864924
0.00487689
0.00125148
0.000666902
0.00205069
0.00350835
0.00503932
0.00665223
0.0083546
0.0101531
0.0120543
0.0140638
0.0161863
0.0184253
0.0207822
0.0232567
0.0258467
0.0285493
0.031363
0.0342902
0.03734
0.0405314
0.0438932
0.0474622
0.0512757
0.0553604
0.0597245
0.0643594
0.0692554
0.0744251
0.0799187
0.0858185
0.0921967
0.0996633
0.108112
0.116833
0.125988
0.135762
0.146255
0.157483
0.169482
0.182287
0.195783
0.209887
0.224769
0.240809
0.258388
0.278012
0.30001
0.32413
0.351004
0.383739
0.418569
0.479639
0.518585
0.604688
0.62957
0.712971
0.730078
0.640337
0.654266
0.693978
0.693143
0.662853
0.629231
0.614888
0.579569
0.580029
0.5421
0.545208
0.476961
0.391713
0.342159
0.290612
0.258195
0.228467
0.204752
0.185833
0.170272
0.157318
0.145789
0.135113
0.125017
0.115427
0.106337
0.0977444
0.0896245
0.0819401
0.0746475
0.0677042
0.0610745
0.054731
0.0486555
0.0428367
0.0372688
0.0319483
0.0268726
0.0220378
0.0174385
0.0130664
0.00891266
0.00496633
0.00117884
0.000700497
0.00215358
0.00368415
0.00529196
0.00698617
0.00877478
0.0106651
0.0126639
0.0147778
0.017012
0.0193705
0.0218554
0.0244665
0.0272016
0.0300575
0.0330317
0.0361255
0.0393471
0.0427149
0.0462589
0.0500185
0.0540352
0.0583407
0.0629475
0.0678491
0.0730356
0.078517
0.0843446
0.0906086
0.0973941
0.105356
0.114382
0.123703
0.133475
0.143901
0.155099
0.167078
0.179833
0.193345
0.207459
0.222092
0.237412
0.253746
0.271434
0.290834
0.312159
0.335208
0.360385
0.390708
0.422329
0.477036
0.513965
0.575687
0.602468
0.700525
0.737193
0.648758
0.660581
0.688592
0.691212
0.660035
0.62775
0.61132
0.576281
0.569774
0.528454
0.53777
0.476037
0.393521
0.345903
0.29582
0.264348
0.235094
0.211778
0.192857
0.177184
0.163997
0.15218
0.14121
0.130829
0.120963
0.111597
0.102715
0.0942832
0.086259
0.0786
0.0712703
0.0642435
0.0575033
0.0510418
0.0448564
0.0389475
0.0333153
0.0279581
0.0228709
0.0180456
0.0134708
0.00913398
0.00502082
0.0010761
0.000733335
0.00225414
0.00385597
0.00553883
0.00731235
0.00918498
0.0111645
0.0132584
0.0154736
0.0178164
0.0202912
0.0229008
0.0256454
0.0285229
0.0315296
0.0346623
0.0379208
0.0413119
0.0448532
0.0485749
0.0525187
0.0567303
0.0612466
0.0660853
0.0712434
0.07671
0.0824915
0.0886375
0.0952453
0.102414
0.110844
0.120421
0.130307
0.140644
0.151641
0.163446
0.176073
0.189497
0.203636
0.218297
0.233373
0.24903
0.265559
0.283268
0.302388
0.322995
0.344892
0.368275
0.396007
0.424596
0.473766
0.511106
0.557773
0.582588
0.685761
0.735182
0.65491
0.667903
0.683015
0.684083
0.654052
0.623509
0.605468
0.571087
0.559363
0.516849
0.529044
0.475014
0.393381
0.348641
0.29997
0.26953
0.240836
0.217944
0.199069
0.183335
0.169974
0.157946
0.146767
0.13618
0.126105
0.116515
0.107378
0.098656
0.0903066
0.082294
0.0745926
0.0671877
0.0600747
0.053255
0.0467334
0.0405141
0.0345986
0.0289843
0.023664
0.018626
0.0138554
0.00933705
0.00505453
0.000947045
0.000765432
0.00235245
0.00402392
0.00578003
0.00763083
0.00958516
0.0116512
0.0138371
0.0161504
0.018598
0.0211854
0.0239159
0.0267903
0.0298067
0.0329613
0.0362498
0.0396707
0.0432292
0.0469409
0.0508359
0.0549574
0.059355
0.0640713
0.0691301
0.074533
0.0802685
0.0863377
0.0927863
0.0997159
0.107239
0.116106
0.126205
0.136629
0.147488
0.15899
0.171303
0.184469
0.198459
0.213142
0.22829
0.243755
0.259691
0.276364
0.294051
0.312886
0.332809
0.35358
0.375211
0.400379
0.426395
0.471401
0.512157
0.553271
0.570549
0.671253
0.723903
0.656447
0.673125
0.674203
0.673911
0.645437
0.61671
0.597615
0.56424
0.548975
0.507265
0.51885
0.473058
0.392091
0.350419
0.303258
0.273974
0.245862
0.223388
0.204581
0.188828
0.17535
0.163184
0.151866
0.141135
0.130898
0.121111
0.111737
0.102736
0.0940726
0.0857214
0.0776695
0.069915
0.0624633
0.0553235
0.0485047
0.0420121
0.0358461
0.0300011
0.0244661
0.0192256
0.0142608
0.00955391
0.00508768
0.00079788
0.000796815
0.00244859
0.00418814
0.00601573
0.00794175
0.00997538
0.0121252
0.0143999
0.0168076
0.0193561
0.0220517
0.0248986
0.0278984
0.0310496
0.0343483
0.0377895
0.0413703
0.0450934
0.0489728
0.053037
0.05733
0.0619044
0.0668087
0.0720746
0.0777094
0.0837017
0.0900466
0.0967829
0.104012
0.11186
0.121126
0.131713
0.142648
0.154001
0.165957
0.178694
0.192292
0.206736
0.221868
0.237434
0.253243
0.26942
0.286218
0.303882
0.322481
0.341836
0.361636
0.381745
0.404658
0.428915
0.471663
0.519464
0.565421
0.577546
0.650135
0.700042
0.652331
0.673481
0.662849
0.660942
0.634527
0.607666
0.588104
0.556078
0.538738
0.499557
0.507418
0.469707
0.390399
0.351521
0.305938
0.27783
0.250293
0.22823
0.20951
0.193776
0.180238
0.167996
0.15659
0.14575
0.135371
0.125398
0.115791
0.106516
0.0975504
0.0888813
0.0805093
0.0724436
0.0646976
0.0572849
0.0502153
0.0434928
0.0371143
0.0310695
0.0253425
0.0199126
0.0147557
0.00984895
0.0051704
0.000647883
0.000827498
0.00254262
0.00434876
0.0062461
0.0082453
0.0103558
0.0125865
0.0149466
0.0174449
0.02009
0.022889
0.0258472
0.0289673
0.0322483
0.0356866
0.0392767
0.0430142
0.0468996
0.0509438
0.0551736
0.0596322
0.0643743
0.0694543
0.0749126
0.0807645
0.0870005
0.0936093
0.10062
0.108129
0.11627
0.125894
0.136925
0.148339
0.160161
0.172539
0.185642
0.199584
0.214371
0.229849
0.245749
0.26185
0.278234
0.295148
0.312816
0.331259
0.35022
0.369322
0.38833
0.4096
0.433279
0.475882
0.533032
0.587595
0.590207
0.631637
0.671121
0.64377
0.667947
0.649596
0.645974
0.62182
0.596918
0.577415
0.547056
0.528832
0.493446
0.494847
0.464725
0.388849
0.352231
0.308233
0.281205
0.254231
0.232581
0.213982
0.198309
0.184756
0.172478
0.161008
0.150068
0.139544
0.129379
0.119536
0.109994
0.100742
0.0917831
0.0831296
0.0747989
0.0668089
0.0591744
0.051904
0.0449986
0.0384513
0.032248
0.026368
0.0207847
0.0154662
0.0103774
0.00547112
0.000616119
0.000857495
0.00263462
0.00450592
0.00647136
0.00854176
0.0107267
0.0130355
0.0154775
0.0180623
0.0207992
0.0236964
0.0267605
0.0299949
0.0334
0.0369726
0.0407071
0.0445976
0.0486423
0.052849
0.0572412
0.0618602
0.0667615
0.0720046
0.0776395
0.0836917
0.0901559
0.0970163
0.104291
0.112063
0.120468
0.130408
0.141831
0.15368
0.165945
0.178722
0.192154
0.206377
0.221417
0.237145
0.253287
0.269617
0.286172
0.303187
0.320884
0.339257
0.358018
0.376761
0.395238
0.415735
0.440187
0.484471
0.550553
0.61591
0.602495
0.614042
0.639554
0.632361
0.656875
0.635103
0.629904
0.608124
0.585198
0.566144
0.537676
0.519401
0.488235
0.482035
0.45825
0.387195
0.352639
0.310225
0.284166
0.257774
0.236552
0.218125
0.202552
0.189006
0.176704
0.165167
0.154115
0.14343
0.133059
0.122976
0.113175
0.103661
0.0944479
0.085557
0.07701
0.0688258
0.0610175
0.0535907
0.0465441
0.0398699
0.0335559
0.0275876
0.0219505
0.0166335
0.0116445
0.0070094
0.00256122
0.000886837
0.00272471
0.00465986
0.00669183
0.00883152
0.0110886
0.0134725
0.0159929
0.01866
0.0214839
0.0244738
0.0276375
0.0309799
0.0345027
0.0382034
0.0420767
0.0461157
0.0503164
0.054683
0.0592351
0.0640105
0.0690636
0.0744578
0.0802528
0.0864861
0.0931604
0.100258
0.107786
0.115809
0.124458
0.134671
0.14643
0.15866
0.171327
0.184477
0.198218
0.212684
0.227913
0.243813
0.260118
0.27661
0.293292
0.310386
0.328122
0.346493
0.365233
0.383958
0.402515
0.423179
0.449463
0.496058
0.567071
0.642181
0.609695
0.595746
0.609843
0.61968
0.641422
0.620133
0.613747
0.594365
0.573274
0.554896
0.52839
0.510517
0.48332
0.469673
0.45079
0.38522
0.352694
0.311922
0.286777
0.26102
0.240256
0.22205
0.206603
0.193068
0.180724
0.169096
0.157903
0.147033
0.136443
0.126123
0.116081
0.106334
0.0969068
0.0878234
0.0791055
0.0707689
0.0628218
0.0552652
0.0480931
0.0412947
0.0348554
0.0287594
0.0229894
0.0175267
0.0123629
0.00754901
0.00283105
0.000915562
0.00281301
0.00481078
0.00690779
0.00911493
0.0114418
0.0138979
0.0164933
0.0192384
0.0221442
0.0252211
0.028478
0.0319215
0.0355547
0.0393765
0.0433821
0.0475643
0.0519168
0.0564406
0.0611503
0.066079
0.071278
0.076813
0.0827521
0.089146
0.0960089
0.103327
0.111096
0.119361
0.128239
0.138695
0.150733
0.16328
0.176296
0.189782
0.203809
0.218493
0.233875
0.249892
0.266298
0.282892
0.299661
0.316809
0.334578
0.352989
0.371832
0.390809
0.409955
0.431525
0.459867
0.50752
0.576756
0.65757
0.608269
0.577011
0.586208
0.607086
0.6233
0.605363
0.598543
0.581341
0.56178
0.54415
0.519532
0.502256
0.478523
0.458468
0.442386
0.382807
0.352374
0.313351
0.28912
0.264068
0.243795
0.225845
0.210527
0.196987
0.184566
0.172805
0.161439
0.150363
0.139549
0.129002
0.118743
0.1088
0.0991995
0.089965
0.0811141
0.0726562
0.0645929
0.0569187
0.0496224
0.0426889
0.0361001
0.0298368
0.0238784
0.0181997
0.0127738
0.00762665
0.00272453
0.000943684
0.00289956
0.00495874
0.00711934
0.00939212
0.0117866
0.0143121
0.0169789
0.019798
0.0227808
0.0259388
0.0292823
0.0328195
0.0365552
0.0404902
0.0446207
0.0489394
0.0534388
0.0581163
0.0629814
0.0680611
0.0734021
0.0790695
0.0851384
0.0916721
0.0986997
0.106216
0.114212
0.122711
0.131809
0.142487
0.154758
0.167559
0.180855
0.194624
0.208905
0.223782
0.239292
0.255387
0.271854
0.288506
0.30533
0.32251
0.340297
0.358754
0.377757
0.397124
0.417124
0.439876
0.469324
0.515031
0.576212
0.657206
0.596745
0.560455
0.570749
0.595316
0.604665
0.591449
0.5849
0.569509
0.551082
0.534165
0.511249
0.494581
0.473613
0.448975
0.433018
0.380016
0.351725
0.314581
0.29129
0.267007
0.247246
0.229566
0.214357
0.200778
0.188237
0.176303
0.164732
0.153437
0.142405
0.131652
0.121209
0.111107
0.101371
0.0920197
0.0830637
0.0745045
0.0663363
0.0585474
0.051122
0.044042
0.037288
0.0308409
0.0246828
0.0187959
0.013157
0.00777686
0.0026871
0.00097118
0.00298427
0.00510363
0.00732634
0.00966296
0.0121228
0.0147151
0.0174502
0.0203392
0.0233942
0.0266277
0.0300511
0.0336744
0.0375044
0.0415438
0.0457905
0.0502382
0.054878
0.0597048
0.0647228
0.0699519
0.0754322
0.0812263
0.0874131
0.0940671
0.101234
0.108923
0.117125
0.125847
0.135161
0.146049
0.15852
0.171519
0.185029
0.199016
0.213502
0.228536
0.244145
0.260288
0.276782
0.293462
0.310315
0.32751
0.345293
0.363771
0.38291
0.402647
0.423442
0.447089
0.475712
0.515618
0.565413
0.635873
0.583505
0.549647
0.562178
0.585212
0.587468
0.578825
0.572913
0.55892
0.541232
0.524949
0.50349
0.487323
0.46821
0.440839
0.423466
0.377104
0.350864
0.315714
0.293383
0.269911
0.250659
0.233236
0.218099
0.204437
0.191735
0.179594
0.167803
0.156291
0.145056
0.134126
0.123533
0.113306
0.103465
0.0940228
0.0849796
0.0763297
0.068061
0.0601576
0.0526012
0.0453734
0.0384562
0.0318333
0.0254906
0.0194163
0.0135952
0.00802318
0.00272087
0.000997998
0.003067
0.00524519
0.00752846
0.00992715
0.0124502
0.0151068
0.017907
0.0208622
0.023985
0.0272885
0.0307854
0.0344872
0.0384028
0.0425372
0.0468907
0.0514581
0.0562308
0.0612012
0.0663687
0.0717457
0.0773643
0.083282
0.0895781
0.0963357
0.103617
0.11145
0.119831
0.128759
0.138281
0.149376
0.162029
0.175186
0.188848
0.202988
0.217619
0.23276
0.24843
0.264584
0.281072
0.29775
0.314606
0.331795
0.349544
0.367989
0.38717
0.407111
0.428346
0.452132
0.477812
0.508469
0.547015
0.60529
0.566701
0.543798
0.560054
0.576729
0.572972
0.567579
0.562231
0.54926
0.53201
0.516314
0.49607
0.480267
0.462127
0.43368
0.414564
0.374361
0.349966
0.316867
0.295483
0.272827
0.254054
0.236855
0.221742
0.207957
0.19506
0.182697
0.170685
0.158971
0.14756
0.136484
0.125772
0.115449
0.105526
0.096006
0.0868832
0.0781449
0.0697748
0.0617545
0.0540653
0.0466898
0.0396123
0.0328189
0.0262979
0.0200398
0.0140347
0.00827804
0.0027831
0.00102408
0.00314755
0.00538311
0.00772534
0.0101843
0.0127685
0.0154868
0.0183493
0.0213673
0.0245536
0.027922
0.0314862
0.0352591
0.0392516
0.0434713
0.047921
0.0525978
0.057494
0.0626009
0.0679135
0.0734366
0.0791934
0.0852341
0.0916349
0.0984833
0.105856
0.113801
0.12233
0.131438
0.141158
0.152454
0.165279
0.178572
0.192344
0.206581
0.221297
0.236488
0.252168
0.268289
0.284726
0.301362
0.318185
0.335333
0.353004
0.371339
0.390416
0.410302
0.431451
0.454421
0.475638
0.495493
0.523337
0.570385
0.550021
0.541571
0.560352
0.569906
0.561465
0.557422
0.552197
0.539971
0.523041
0.507975
0.488776
0.473257
0.45547
0.427352
0.406949
0.372015
0.349229
0.318152
0.297659
0.275783
0.257431
0.240407
0.225274
0.211337
0.19823
0.185646
0.173429
0.161537
0.149981
0.138789
0.127983
0.117581
0.107585
0.0979903
0.0887847
0.0799512
0.0714708
0.0633246
0.0554949
0.0479659
0.0407242
0.033759
0.0270612
0.0206235
0.0144397
0.0085094
0.00284716
0.00104938
0.00322575
0.0055171
0.00791656
0.0104338
0.0130771