/*--------------------------------*- C++ -*----------------------------------*\
  =========                 |
  \\      /  F ield         | OpenFOAM: The Open Source CFD Toolbox
   \\    /   O peration     | Website:  https://openfoam.org
    \\  /    A nd           | Version:  9
     \\/     M anipulation  |
\*---------------------------------------------------------------------------*/
FoamFile
{
    format      ascii;
    class       surfaceScalarField;
    location    "0.17";
    object      phi;
}
// * * * * * * * * * * * * * * * * * * * * * * * * * * * * * * * * * * * * * //

dimensions      [0 3 -1 0 0 0 0];

internalField   nonuniform List<scalar> 
39700
(
-2.68739e-07
3.20993e-06
-2.68735e-07
3.36658e-06
-2.68734e-07
3.53079e-06
-2.68734e-07
3.70293e-06
-2.68734e-07
3.88343e-06
-2.68735e-07
4.07272e-06
-2.68735e-07
4.27123e-06
-2.68735e-07
4.47943e-06
-2.68734e-07
4.69777e-06
-2.68733e-07
4.92672e-06
-2.68731e-07
5.16675e-06
-2.68728e-07
5.41832e-06
-2.68723e-07
5.68186e-06
-2.68717e-07
5.95781e-06
-2.68708e-07
6.24654e-06
-2.68697e-07
6.54842e-06
-2.68682e-07
6.86378e-06
-2.68662e-07
7.1929e-06
-2.68637e-07
7.53603e-06
-2.68605e-07
7.89338e-06
-2.68564e-07
8.2651e-06
-2.68514e-07
8.65132e-06
-2.68453e-07
9.05214e-06
-2.68384e-07
9.46776e-06
-2.68309e-07
9.89859e-06
-2.68234e-07
1.03454e-05
-2.68166e-07
1.08097e-05
-2.68105e-07
1.12934e-05
-2.68044e-07
1.17986e-05
-2.67968e-07
1.23269e-05
-2.67841e-07
1.50196e-05
-2.67644e-07
1.49474e-05
-2.67349e-07
1.48713e-05
-2.66911e-07
1.47871e-05
-2.66233e-07
1.46913e-05
-2.65086e-07
1.4579e-05
-2.62934e-07
1.444e-05
-2.58587e-07
1.42497e-05
-2.49714e-07
1.39535e-05
-2.33539e-07
1.34459e-05
-2.14523e-07
1.25906e-05
-2.18693e-07
1.14425e-05
-2.51705e-07
1.06114e-05
-2.56984e-07
1.05807e-05
-2.26754e-07
1.06642e-05
-2.34904e-07
9.99742e-06
-3.6099e-07
9.09093e-06
-3.83019e-07
1.05528e-05
-2.8484e-07
1.40521e-05
-2.10935e-07
1.68164e-05
-1.26345e-07
1.89921e-05
8.30005e-08
2.10527e-05
8.66283e-07
2.41105e-05
-5.48531e-07
7.35828e-07
-8.95466e-07
1.63897e-06
-5.4546e-07
2.49163e-05
-2.84723e-07
1.9842e-05
-7.41856e-07
8.28281e-07
-3.77724e-07
1.51176e-05
-2.95364e-07
1.99135e-05
-2.52292e-07
1.96605e-05
-2.11761e-07
2.00247e-05
-1.49159e-07
2.10225e-05
2.54369e-09
2.25119e-05
5.77127e-07
2.47575e-05
-2.74138e-07
9.26988e-07
-8.74889e-07
3.35273e-06
-5.18541e-07
2.49891e-05
-3.91504e-07
2.24565e-05
-3.41216e-07
2.08172e-05
-3.17708e-07
1.60162e-05
-3.0305e-07
1.45432e-05
-2.91823e-07
1.32345e-05
-2.78831e-07
1.19812e-05
-2.61258e-07
1.06789e-05
-2.49435e-07
9.32145e-06
-2.60971e-07
8.19106e-06
-2.78689e-07
7.63358e-06
-2.83551e-07
7.47587e-06
-2.81059e-07
7.37079e-06
-2.77697e-07
7.20082e-06
-2.75193e-07
6.97888e-06
-2.73521e-07
6.73274e-06
-2.72396e-07
6.47882e-06
-2.71602e-07
6.22491e-06
-2.71013e-07
5.97463e-06
-2.70558e-07
5.72978e-06
-2.70196e-07
5.49136e-06
-2.69903e-07
5.25994e-06
-2.69661e-07
5.03586e-06
-2.69461e-07
4.8193e-06
-2.69294e-07
4.61036e-06
-2.69155e-07
4.40903e-06
-2.6904e-07
4.21529e-06
-2.68946e-07
4.02905e-06
-2.68871e-07
3.85022e-06
-2.68814e-07
3.67867e-06
-2.68778e-07
3.51429e-06
-2.68761e-07
3.35699e-06
3.20671e-06
-2.69238e-07
3.20991e-06
-2.69224e-07
3.36656e-06
-2.69217e-07
3.53078e-06
-2.69214e-07
3.70293e-06
-2.69213e-07
3.88343e-06
-2.69212e-07
4.07272e-06
-2.69211e-07
4.27123e-06
-2.6921e-07
4.47943e-06
-2.69208e-07
4.69776e-06
-2.69203e-07
4.92671e-06
-2.69196e-07
5.16674e-06
-2.69185e-07
5.4183e-06
-2.6917e-07
5.68185e-06
-2.69149e-07
5.95779e-06
-2.6912e-07
6.24651e-06
-2.69083e-07
6.54838e-06
-2.69036e-07
6.86373e-06
-2.68975e-07
7.19283e-06
-2.68897e-07
7.53595e-06
-2.688e-07
7.89328e-06
-2.6868e-07
8.26498e-06
-2.68533e-07
8.65117e-06
-2.6836e-07
9.05197e-06
-2.68161e-07
9.46756e-06
-2.67944e-07
9.89837e-06
-2.67719e-07
1.03452e-05
-2.67496e-07
1.08095e-05
-2.67272e-07
1.12932e-05
-2.67027e-07
1.17984e-05
-2.66716e-07
1.23266e-05
-2.66206e-07
1.50191e-05
-2.65453e-07
1.49466e-05
-2.64342e-07
1.48702e-05
-2.62689e-07
1.47854e-05
-2.6014e-07
1.46887e-05
-2.55967e-07
1.45748e-05
-2.4871e-07
1.44327e-05
-2.35634e-07
1.42366e-05
-2.12693e-07
1.39306e-05
-1.78248e-07
1.34115e-05
-1.46812e-07
1.25592e-05
-1.58345e-07
1.1454e-05
-2.12402e-07
1.06654e-05
-2.27349e-07
1.05957e-05
-1.96369e-07
1.06332e-05
-2.33708e-07
1.00348e-05
-4.23703e-07
9.28093e-06
-4.68362e-07
1.05975e-05
-2.9755e-07
1.38813e-05
-1.12841e-07
1.66317e-05
9.77748e-08
1.87815e-05
4.5597e-07
2.06945e-05
1.14094e-06
2.34255e-05
-3.65725e-07
2.24249e-06
-1.51563e-06
2.78887e-06
-8.99441e-07
2.43001e-05
-2.0805e-07
1.91506e-05
-1.12367e-06
1.7439e-06
-5.89985e-07
1.45839e-05
-3.63072e-07
1.96866e-05
-2.28414e-07
1.95259e-05
-1.10786e-07
1.99071e-05
4.60903e-08
2.08657e-05
3.19958e-07
2.2238e-05
8.35404e-07
2.4242e-05
-4.92246e-07
2.25464e-06
-1.39759e-06
4.25808e-06
-9.06782e-07
2.44983e-05
-6.14702e-07
2.21644e-05
-4.81621e-07
2.06841e-05
-4.11549e-07
1.59461e-05
-3.67356e-07
1.4499e-05
-3.33351e-07
1.32005e-05
-2.99158e-07
1.1947e-05
-2.64277e-07
1.0644e-05
-2.44694e-07
9.30186e-06
-2.60386e-07
8.20676e-06
-2.86133e-07
7.65933e-06
-2.96392e-07
7.48613e-06
-2.94997e-07
7.3694e-06
-2.90189e-07
7.19601e-06
-2.85543e-07
6.97424e-06
-2.81859e-07
6.72906e-06
-2.79063e-07
6.47603e-06
-2.76932e-07
6.22278e-06
-2.75278e-07
5.97297e-06
-2.73968e-07
5.72847e-06
-2.72914e-07
5.49031e-06
-2.72056e-07
5.25908e-06
-2.71352e-07
5.03516e-06
-2.70772e-07
4.81872e-06
-2.70294e-07
4.60988e-06
-2.69902e-07
4.40864e-06
-2.69586e-07
4.21497e-06
-2.69337e-07
4.0288e-06
-2.6915e-07
3.85003e-06
-2.69023e-07
3.67854e-06
-2.6896e-07
3.51423e-06
-2.68952e-07
3.35699e-06
3.20669e-06
-2.69994e-07
3.20989e-06
-2.69976e-07
3.36654e-06
-2.69966e-07
3.53077e-06
-2.69959e-07
3.70292e-06
-2.69955e-07
3.88343e-06
-2.69952e-07
4.07272e-06
-2.69948e-07
4.27123e-06
-2.69944e-07
4.47942e-06
-2.69938e-07
4.69776e-06
-2.69929e-07
4.9267e-06
-2.69916e-07
5.16673e-06
-2.69897e-07
5.41829e-06
-2.6987e-07
5.68182e-06
-2.69834e-07
5.95775e-06
-2.69786e-07
6.24646e-06
-2.69723e-07
6.54832e-06
-2.69643e-07
6.86365e-06
-2.69541e-07
7.19273e-06
-2.69412e-07
7.53582e-06
-2.69253e-07
7.89312e-06
-2.69056e-07
8.26478e-06
-2.68818e-07
8.65093e-06
-2.68538e-07
9.05169e-06
-2.68216e-07
9.46724e-06
-2.67861e-07
9.89802e-06
-2.67483e-07
1.03448e-05
-2.67089e-07
1.08091e-05
-2.66673e-07
1.12928e-05
-2.66196e-07
1.17979e-05
-2.65589e-07
1.2326e-05
-2.64597e-07
1.50181e-05
-2.63165e-07
1.49452e-05
-2.61078e-07
1.48681e-05
-2.57996e-07
1.47824e-05
-2.53313e-07
1.4684e-05
-2.45908e-07
1.45674e-05
-2.33767e-07
1.44206e-05
-2.13626e-07
1.42165e-05
-1.81618e-07
1.38986e-05
-1.38415e-07
1.33683e-05
-1.03602e-07
1.25244e-05
-1.1989e-07
1.14703e-05
-1.82007e-07
1.07276e-05
-2.06969e-07
1.06207e-05
-1.89031e-07
1.06153e-05
-2.43685e-07
1.00894e-05
-4.44083e-07
9.48133e-06
-4.97006e-07
1.06504e-05
-2.94499e-07
1.36788e-05
-4.66729e-08
1.63839e-05
2.27609e-07
1.85072e-05
5.82661e-07
2.03394e-05
1.17474e-06
2.28334e-05
-4.11495e-07
3.82873e-06
-1.70845e-06
4.08582e-06
-1.02721e-06
2.36189e-05
-2.6218e-07
1.83856e-05
-1.23151e-06
2.71323e-06
-7.01684e-07
1.40541e-05
-4.02687e-07
1.93876e-05
-2.14136e-07
1.93373e-05
-3.89941e-08
1.97319e-05
1.75736e-07
2.06509e-05
4.6762e-07
2.19461e-05
9.30515e-07
2.37792e-05
-5.81408e-07
3.76656e-06
-1.62047e-06
5.29714e-06
-1.09854e-06
2.39763e-05
-7.78072e-07
2.1844e-05
-5.91547e-07
2.04976e-05
-4.88735e-07
1.58433e-05
-4.2193e-07
1.44322e-05
-3.69964e-07
1.31486e-05
-3.21242e-07
1.18983e-05
-2.734e-07
1.05962e-05
-2.48398e-07
9.27686e-06
-2.63933e-07
8.22229e-06
-2.91545e-07
7.68694e-06
-3.03425e-07
7.49801e-06
-3.02591e-07
7.36856e-06
-2.97537e-07
7.19096e-06
-2.92175e-07
6.96887e-06
-2.87564e-07
6.72445e-06
-2.8381e-07
6.47227e-06
-2.80788e-07
6.21976e-06
-2.7835e-07
5.97053e-06
-2.76369e-07
5.72649e-06
-2.74749e-07
5.48869e-06
-2.73417e-07
5.25775e-06
-2.7232e-07
5.03406e-06
-2.71416e-07
4.81782e-06
-2.70673e-07
4.60914e-06
-2.70069e-07
4.40804e-06
-2.69587e-07
4.21449e-06
-2.69212e-07
4.02843e-06
-2.68937e-07
3.84975e-06
-2.68756e-07
3.67836e-06
-2.68666e-07
3.51414e-06
-2.68653e-07
3.35697e-06
3.20669e-06
-2.70996e-07
3.20987e-06
-2.70981e-07
3.36653e-06
-2.7097e-07
3.53076e-06
-2.70963e-07
3.70291e-06
-2.70957e-07
3.88342e-06
-2.70952e-07
4.07271e-06
-2.70945e-07
4.27122e-06
-2.70937e-07
4.47941e-06
-2.70925e-07
4.69775e-06
-2.70909e-07
4.92669e-06
-2.70887e-07
5.1667e-06
-2.70857e-07
5.41825e-06
-2.70816e-07
5.68178e-06
-2.70762e-07
5.9577e-06
-2.70692e-07
6.24639e-06
-2.70603e-07
6.54823e-06
-2.7049e-07
6.86354e-06
-2.70347e-07
7.19259e-06
-2.70171e-07
7.53564e-06
-2.69952e-07
7.8929e-06
-2.69686e-07
8.26451e-06
-2.69365e-07
8.65061e-06
-2.68987e-07
9.05131e-06
-2.68553e-07
9.46681e-06
-2.68069e-07
9.89753e-06
-2.67543e-07
1.03443e-05
-2.66979e-07
1.08085e-05
-2.66359e-07
1.12921e-05
-2.65629e-07
1.17972e-05
-2.64694e-07
1.2325e-05
-2.63176e-07
1.50166e-05
-2.61016e-07
1.4943e-05
-2.57906e-07
1.4865e-05
-2.53374e-07
1.47778e-05
-2.46627e-07
1.46773e-05
-2.36296e-07
1.45571e-05
-2.20112e-07
1.44044e-05
-1.94743e-07
1.41911e-05
-1.56923e-07
1.38608e-05
-1.09399e-07
1.33208e-05
-7.50668e-08
1.249e-05
-9.59391e-08
1.14912e-05
-1.62453e-07
1.07941e-05
-1.96148e-07
1.06543e-05
-1.9247e-07
1.06116e-05
-2.60562e-07
1.01575e-05
-4.54745e-07
9.67551e-06
-5.12434e-07
1.07081e-05
-3.00769e-07
1.34671e-05
-2.46576e-08
1.61077e-05
2.73298e-07
1.82092e-05
6.23456e-07
1.99892e-05
1.11223e-06
2.23446e-05
-4.15491e-07
5.35646e-06
-1.64165e-06
5.31197e-06
-1.02082e-06
2.2998e-05
-3.3777e-07
1.77026e-05
-1.25459e-06
3.63005e-06
-7.58714e-07
1.35582e-05
-4.15289e-07
1.90442e-05
-1.98428e-07
1.91205e-05
6.60588e-09
1.95269e-05
2.47029e-07
2.04105e-05
5.45297e-07
2.16478e-05
9.39275e-07
2.33852e-05
-5.8213e-07
5.28797e-06
-1.62867e-06
6.34368e-06
-1.16305e-06
2.35107e-05
-8.6259e-07
2.15435e-05
-6.57528e-07
2.02925e-05
-5.41233e-07
1.5727e-05
-4.61838e-07
1.43528e-05
-3.97875e-07
1.30846e-05
-3.38155e-07
1.18386e-05
-2.82877e-07
1.05409e-05
-2.54728e-07
9.24871e-06
-2.69245e-07
8.23681e-06
-2.96143e-07
7.71383e-06
-3.08071e-07
7.50993e-06
-3.07202e-07
7.3677e-06
-3.01794e-07
7.18555e-06
-2.95907e-07
6.96299e-06
-2.90711e-07
6.71925e-06
-2.86364e-07
6.46792e-06
-2.82772e-07
6.21617e-06
-2.79806e-07
5.96757e-06
-2.7735e-07
5.72404e-06
-2.75313e-07
5.48665e-06
-2.7362e-07
5.25606e-06
-2.72214e-07
5.03265e-06
-2.71048e-07
4.81665e-06
-2.70088e-07
4.60818e-06
-2.69304e-07
4.40725e-06
-2.68675e-07
4.21386e-06
-2.68182e-07
4.02793e-06
-2.67813e-07
3.84939e-06
-2.67557e-07
3.67811e-06
-2.67403e-07
3.51398e-06
-2.67335e-07
3.3569e-06
3.20667e-06
-2.72275e-07
3.20986e-06
-2.72263e-07
3.36652e-06
-2.72255e-07
3.53075e-06
-2.72248e-07
3.70291e-06
-2.72242e-07
3.88341e-06
-2.72234e-07
4.0727e-06
-2.72224e-07
4.27121e-06
-2.72211e-07
4.4794e-06
-2.72192e-07
4.69773e-06
-2.72168e-07
4.92666e-06
-2.72135e-07
5.16667e-06
-2.72091e-07
5.41821e-06
-2.72034e-07
5.68172e-06
-2.71961e-07
5.95762e-06
-2.71868e-07
6.2463e-06
-2.71751e-07
6.54812e-06
-2.71606e-07
6.86339e-06
-2.71425e-07
7.19241e-06
-2.71203e-07
7.53542e-06
-2.70931e-07
7.89263e-06
-2.70601e-07
8.26418e-06
-2.70206e-07
8.65022e-06
-2.69741e-07
9.05084e-06
-2.69205e-07
9.46627e-06
-2.68603e-07
9.89693e-06
-2.67938e-07
1.03436e-05
-2.67208e-07
1.08078e-05
-2.66383e-07
1.12913e-05
-2.65394e-07
1.17962e-05
-2.64121e-07
1.23238e-05
-2.62065e-07
1.50145e-05
-2.59176e-07
1.49402e-05
-2.55072e-07
1.48609e-05
-2.49179e-07
1.47719e-05
-2.40579e-07
1.46687e-05
-2.27767e-07
1.45442e-05
-2.08395e-07
1.4385e-05
-1.79313e-07
1.4162e-05
-1.38164e-07
1.38196e-05
-8.98577e-08
1.32725e-05
-5.90843e-08
1.24593e-05
-8.38844e-08
1.1516e-05
-1.51295e-07
1.08615e-05
-1.92394e-07
1.06954e-05
-2.04198e-07
1.06234e-05
-2.79815e-07
1.02331e-05
-4.60628e-07
9.85632e-06
-5.20313e-07
1.07678e-05
-3.18272e-07
1.32651e-05
-3.59924e-08
1.58255e-05
2.70472e-07
1.79028e-05
6.08193e-07
1.96515e-05
1.00089e-06
2.19519e-05
-3.39091e-07
6.69643e-06
-1.4482e-06
6.42109e-06
-9.23182e-07
2.2473e-05
-3.84884e-07
1.71643e-05
-1.2478e-06
4.49296e-06
-7.90269e-07
1.31007e-05
-4.16085e-07
1.867e-05
-1.84612e-07
1.8889e-05
3.28426e-08
1.93095e-05
2.81418e-07
2.01619e-05
5.72635e-07
2.13566e-05
8.90044e-07
2.30678e-05
-5.25108e-07
6.70312e-06
-1.52316e-06
7.34173e-06
-1.13977e-06
2.31273e-05
-8.8483e-07
2.12886e-05
-6.84678e-07
2.00924e-05
-5.69017e-07
1.56113e-05
-4.85002e-07
1.42688e-05
-4.14504e-07
1.30141e-05
-3.48648e-07
1.17727e-05
-2.90334e-07
1.04826e-05
-2.61742e-07
9.22012e-06
-2.74355e-07
8.24942e-06
-2.98599e-07
7.73808e-06
-3.09659e-07
7.521e-06
-3.08752e-07
7.36679e-06
-3.03244e-07
7.18004e-06
-2.97085e-07
6.95682e-06
-2.91526e-07
6.71369e-06
-2.8679e-07
6.46319e-06
-2.82816e-07
6.21219e-06
-2.7949e-07
5.96424e-06
-2.76703e-07
5.72125e-06
-2.74367e-07
5.48432e-06
-2.7241e-07
5.2541e-06
-2.70772e-07
5.03101e-06
-2.69406e-07
4.81529e-06
-2.68274e-07
4.60704e-06
-2.67344e-07
4.40632e-06
-2.66592e-07
4.21311e-06
-2.65995e-07
4.02734e-06
-2.65537e-07
3.84893e-06
-2.65203e-07
3.67777e-06
-2.64978e-07
3.51376e-06
-2.64847e-07
3.35677e-06
3.20662e-06
-2.7386e-07
3.20986e-06
-2.73852e-07
3.36651e-06
-2.73844e-07
3.53074e-06
-2.73837e-07
3.7029e-06
-2.73829e-07
3.88341e-06
-2.73819e-07
4.07269e-06
-2.73806e-07
4.2712e-06
-2.73787e-07
4.47938e-06
-2.73762e-07
4.6977e-06
-2.73729e-07
4.92663e-06
-2.73685e-07
5.16663e-06
-2.73628e-07
5.41815e-06
-2.73556e-07
5.68165e-06
-2.73465e-07
5.95753e-06
-2.7335e-07
6.24619e-06
-2.73208e-07
6.54797e-06
-2.73033e-07
6.86321e-06
-2.72817e-07
7.19219e-06
-2.72554e-07
7.53516e-06
-2.72233e-07
7.89231e-06
-2.71846e-07
8.2638e-06
-2.71383e-07
8.64975e-06
-2.7084e-07
9.0503e-06
-2.70212e-07
9.46564e-06
-2.69501e-07
9.89622e-06
-2.68707e-07
1.03429e-05
-2.67817e-07
1.08069e-05
-2.66794e-07
1.12903e-05
-2.65553e-07
1.17949e-05
-2.63951e-07
1.23222e-05
-2.61379e-07
1.5012e-05
-2.57807e-07
1.49366e-05
-2.52793e-07
1.48558e-05
-2.45698e-07
1.47648e-05
-2.35531e-07
1.46585e-05
-2.20744e-07
1.45295e-05
-1.99055e-07
1.43633e-05
-1.67707e-07
1.41307e-05
-1.25443e-07
1.37773e-05
-7.89818e-08
1.3226e-05
-5.31997e-08
1.24335e-05
-8.09904e-08
1.15438e-05
-1.47808e-07
1.09283e-05
-1.95268e-07
1.07429e-05
-2.21512e-07
1.06496e-05
-3.01295e-07
1.03129e-05
-4.65177e-07
1.00202e-05
-5.2486e-07
1.08274e-05
-3.43138e-07
1.30833e-05
-6.99603e-08
1.55523e-05
2.31105e-07
1.76017e-05
5.4418e-07
1.93385e-05
8.75341e-07
2.16208e-05
-2.57699e-07
7.82948e-06
-1.23043e-06
7.39381e-06
-7.90913e-07
2.20335e-05
-4.13132e-07
1.67865e-05
-1.22529e-06
5.30512e-06
-8.018e-07
1.26772e-05
-4.06089e-07
1.82743e-05
-1.71299e-07
1.86542e-05
4.70957e-08
1.90911e-05
2.9145e-07
1.99176e-05
5.6199e-07
2.10861e-05
8.22514e-07
2.28072e-05
-4.34062e-07
7.9597e-06
-1.37235e-06
8.28002e-06
-1.0679e-06
2.28229e-05
-8.64185e-07
2.10849e-05
-6.83201e-07
1.99114e-05
-5.75949e-07
1.55041e-05
-4.92651e-07
1.41855e-05
-4.2025e-07
1.29417e-05
-3.52295e-07
1.17048e-05
-2.93815e-07
1.04241e-05
-2.66195e-07
9.1925e-06
-2.76843e-07
8.26007e-06
-2.98043e-07
7.75928e-06
-3.07959e-07
7.53091e-06
-3.07085e-07
7.36592e-06
-3.01756e-07
7.17471e-06
-2.95628e-07
6.9507e-06
-2.89965e-07
6.70803e-06
-2.8505e-07
6.45827e-06
-2.80864e-07
6.20801e-06
-2.77319e-07
5.9607e-06
-2.7432e-07
5.71825e-06
-2.71787e-07
5.48178e-06
-2.69649e-07
5.25196e-06
-2.67849e-07
5.02921e-06
-2.66341e-07
4.81378e-06
-2.65085e-07
4.60579e-06
-2.64047e-07
4.40529e-06
-2.63202e-07
4.21226e-06
-2.62526e-07
4.02666e-06
-2.62001e-07
3.8484e-06
-2.61608e-07
3.67738e-06
-2.6133e-07
3.51348e-06
-2.61157e-07
3.3566e-06
3.20655e-06
-2.75761e-07
3.20985e-06
-2.75754e-07
3.3665e-06
-2.75746e-07
3.53074e-06
-2.75738e-07
3.70289e-06
-2.75728e-07
3.8834e-06
-2.75716e-07
4.07268e-06
-2.75699e-07
4.27118e-06
-2.75676e-07
4.47936e-06
-2.75645e-07
4.69767e-06
-2.75604e-07
4.92659e-06
-2.75551e-07
5.16657e-06
-2.75484e-07
5.41809e-06
-2.75398e-07
5.68156e-06
-2.7529e-07
5.95742e-06
-2.75157e-07
6.24605e-06
-2.74993e-07
6.54781e-06
-2.74791e-07
6.86301e-06
-2.74545e-07
7.19195e-06
-2.74245e-07
7.53486e-06
-2.73882e-07
7.89194e-06
-2.73445e-07
8.26336e-06
-2.72923e-07
8.64923e-06
-2.72311e-07
9.04969e-06
-2.71601e-07
9.46493e-06
-2.70792e-07
9.89541e-06
-2.69879e-07
1.03419e-05
-2.68843e-07
1.08059e-05
-2.67637e-07
1.12891e-05
-2.66163e-07
1.17935e-05
-2.64262e-07
1.23203e-05
-2.61225e-07
1.50089e-05
-2.57048e-07
1.49324e-05
-2.51253e-07
1.485e-05
-2.43164e-07
1.47567e-05
-2.31767e-07
1.46471e-05
-2.15548e-07
1.45132e-05
-1.92407e-07
1.43402e-05
-1.60097e-07
1.40984e-05
-1.18424e-07
1.37357e-05
-7.53602e-08
1.31829e-05
-5.49465e-08
1.24131e-05
-8.51542e-08
1.1574e-05
-1.51178e-07
1.09943e-05
-2.03896e-07
1.07956e-05
-2.41825e-07
1.06876e-05
-3.23846e-07
1.03949e-05
-4.71638e-07
1.0168e-05
-5.31431e-07
1.08872e-05
-3.74599e-07
1.29265e-05
-1.20752e-07
1.52985e-05
1.63265e-07
1.73177e-05
4.43296e-07
1.90584e-05
7.44994e-07
2.13191e-05
-1.73508e-07
8.74799e-06
-1.03185e-06
8.25216e-06
-6.61267e-07
2.16629e-05
-4.20323e-07
1.65455e-05
-1.17982e-06
6.06462e-06
-7.90406e-07
1.22878e-05
-3.83237e-07
1.78671e-05
-1.56416e-07
1.84274e-05
5.35041e-08
1.88812e-05
2.83813e-07
1.96873e-05
5.25323e-07
2.08446e-05
7.5003e-07
2.25825e-05
-3.3009e-07
9.03982e-06
-1.20986e-06
9.15979e-06
-9.71819e-07
2.25848e-05
-8.15857e-07
2.09289e-05
-6.61511e-07
1.9757e-05
-5.66298e-07
1.54089e-05
-4.87218e-07
1.41064e-05
-4.16315e-07
1.28708e-05
-3.49073e-07
1.16375e-05
-2.92374e-07
1.03674e-05
-2.66454e-07
9.16658e-06
-2.75637e-07
8.26925e-06
-2.94281e-07
7.77792e-06
-3.03225e-07
7.53986e-06
-3.02465e-07
7.36516e-06
-2.97456e-07
7.1697e-06
-2.91549e-07
6.94479e-06
-2.85984e-07
6.70246e-06
-2.81075e-07
6.45336e-06
-2.76837e-07
6.20377e-06
-2.73208e-07
5.95707e-06
-2.70112e-07
5.71515e-06
-2.67475e-07
5.47914e-06
-2.65237e-07
5.24972e-06
-2.63342e-07
5.02732e-06
-2.61746e-07
4.81218e-06
-2.60411e-07
4.60445e-06
-2.59304e-07
4.40418e-06
-2.58397e-07
4.21135e-06
-2.57668e-07
4.02593e-06
-2.57096e-07
3.84783e-06
-2.56663e-07
3.67694e-06
-2.56352e-07
3.51317e-06
-2.56155e-07
3.3564e-06
3.20647e-06
-2.77977e-07
3.20985e-06
-2.7797e-07
3.36649e-06
-2.77962e-07
3.53073e-06
-2.77952e-07
3.70288e-06
-2.77941e-07
3.88339e-06
-2.77926e-07
4.07266e-06
-2.77906e-07
4.27116e-06
-2.77879e-07
4.47933e-06
-2.77843e-07
4.69763e-06
-2.77796e-07
4.92654e-06
-2.77736e-07
5.16651e-06
-2.77659e-07
5.41801e-06
-2.77563e-07
5.68147e-06
-2.77442e-07
5.9573e-06
-2.77294e-07
6.24591e-06
-2.77111e-07
6.54763e-06
-2.76888e-07
6.86279e-06
-2.76616e-07
7.19168e-06
-2.76286e-07
7.53453e-06
-2.75887e-07
7.89154e-06
-2.75408e-07
8.26288e-06
-2.74837e-07
8.64866e-06
-2.74166e-07
9.04901e-06
-2.73386e-07
9.46415e-06
-2.72493e-07
9.89451e-06
-2.71477e-07
1.03409e-05
-2.70314e-07
1.08047e-05
-2.68949e-07
1.12877e-05
-2.67273e-07
1.17918e-05
-2.65115e-07
1.23181e-05
-2.61684e-07
1.50055e-05
-2.57011e-07
1.49277e-05
-2.50595e-07
1.48436e-05
-2.4175e-07
1.47479e-05
-2.29485e-07
1.46348e-05
-2.12374e-07
1.44961e-05
-1.8856e-07
1.43164e-05
-1.56323e-07
1.40661e-05
-1.16379e-07
1.36957e-05
-7.74903e-08
1.31441e-05
-6.23958e-08
1.2398e-05
-9.47206e-08
1.16063e-05
-1.60046e-07
1.10596e-05
-2.16929e-07
1.08525e-05
-2.63727e-07
1.07344e-05
-3.47039e-07
1.04782e-05
-4.81801e-07
1.03028e-05
-5.43144e-07
1.09486e-05
-4.12991e-07
1.27963e-05
-1.85189e-07
1.50706e-05
7.59055e-08
1.70566e-05
3.15746e-07
1.88186e-05
6.05428e-07
2.10294e-05
-9.63597e-08
9.44977e-06
-8.66284e-07
9.02209e-06
-5.48711e-07
2.13453e-05
-4.03845e-07
1.64007e-05
-1.10342e-06
6.7642e-06
-7.56416e-07
1.19408e-05
-3.49603e-07
1.74603e-05
-1.3912e-07
1.82169e-05
5.45161e-08
1.86875e-05
2.6319e-07
1.94786e-05
4.71533e-07
2.06362e-05
6.72552e-07
2.23815e-05
-2.46154e-07
9.95852e-06
-1.05263e-06
9.96626e-06
-8.66779e-07
2.2399e-05
-7.51876e-07
2.0814e-05
-6.25878e-07
1.9631e-05
-5.43857e-07
1.53269e-05
-4.71239e-07
1.40338e-05
-4.04119e-07
1.28037e-05
-3.39507e-07
1.15729e-05
-2.8597e-07
1.03139e-05
-2.62382e-07
9.14299e-06
-2.70649e-07
8.27752e-06
-2.87445e-07
7.79472e-06
-2.9574e-07
7.54815e-06
-2.95229e-07
7.36464e-06
-2.90641e-07
7.16511e-06
-2.85069e-07
6.93922e-06
-2.79725e-07
6.69712e-06
-2.74949e-07
6.44859e-06
-2.70781e-07
6.1996e-06
-2.67178e-07
5.95346e-06
-2.64079e-07
5.71205e-06
-2.61422e-07
5.47649e-06
-2.59152e-07
5.24745e-06
-2.57221e-07
5.02539e-06
-2.55587e-07
4.81055e-06
-2.54213e-07
4.60308e-06
-2.53069e-07
4.40304e-06
-2.52129e-07
4.21041e-06
-2.51369e-07
4.02517e-06
-2.50769e-07
3.84723e-06
-2.5031e-07
3.67649e-06
-2.49978e-07
3.51284e-06
-2.49766e-07
3.35619e-06
3.20639e-06
-2.80506e-07
3.20984e-06
-2.80499e-07
3.36649e-06
-2.8049e-07
3.53072e-06
-2.80479e-07
3.70287e-06
-2.80466e-07
3.88337e-06
-2.80449e-07
4.07265e-06
-2.80426e-07
4.27114e-06
-2.80396e-07
4.4793e-06
-2.80356e-07
4.6976e-06
-2.80305e-07
4.92649e-06
-2.80239e-07
5.16645e-06
-2.80155e-07
5.41793e-06
-2.8005e-07
5.68136e-06
-2.7992e-07
5.95717e-06
-2.7976e-07
6.24574e-06
-2.79563e-07
6.54743e-06
-2.79323e-07
6.86255e-06
-2.79032e-07
7.19138e-06
-2.78678e-07
7.53417e-06
-2.78251e-07
7.89112e-06
-2.77739e-07
8.26237e-06
-2.77129e-07
8.64805e-06
-2.76411e-07
9.0483e-06
-2.75575e-07
9.46332e-06
-2.74614e-07
9.89355e-06
-2.73514e-07
1.03398e-05
-2.72248e-07
1.08035e-05
-2.70754e-07
1.12862e-05
-2.68915e-07
1.179e-05
-2.66553e-07
1.23157e-05
-2.62817e-07
1.50018e-05
-2.57768e-07
1.49227e-05
-2.50906e-07
1.48368e-05
-2.41556e-07
1.47386e-05
-2.28775e-07
1.46221e-05
-2.1126e-07
1.44786e-05
-1.87416e-07
1.42925e-05
-1.56018e-07
1.40347e-05
-1.18524e-07
1.36582e-05
-8.41672e-08
1.31097e-05
-7.41795e-08
1.2388e-05
-1.08413e-07
1.16405e-05
-1.7315e-07
1.11244e-05
-2.33365e-07
1.09127e-05
-2.87356e-07
1.07883e-05
-3.71474e-07
1.05624e-05
-4.96205e-07
1.04275e-05
-5.60419e-07
1.10128e-05
-4.57201e-07
1.26931e-05
-2.56888e-07
1.48703e-05
-2.47911e-08
1.68245e-05
1.69247e-07
1.86245e-05
4.55652e-07
2.0743e-05
-5.25938e-08
9.95801e-06
-7.39871e-07
9.70937e-06
-4.58481e-07
2.10639e-05
-3.69228e-07
1.63114e-05
-1.00166e-06
7.39663e-06
-7.06172e-07
1.16453e-05
-3.11447e-07
1.70656e-05
-1.20794e-07
1.80262e-05
5.13039e-08
1.85154e-05
2.32842e-07
1.92971e-05
4.06744e-07
2.04623e-05
5.90754e-07
2.21975e-05
-1.8337e-07
1.07326e-05
-9.10906e-07
1.06938e-05
-7.64354e-07
2.22524e-05
-6.81895e-07
2.07315e-05
-5.81599e-07
1.95307e-05
-5.1229e-07
1.52575e-05
-4.47312e-07
1.39688e-05
-3.85324e-07
1.27417e-05
-3.24643e-07
1.15122e-05
-2.75228e-07
1.02645e-05
-2.54508e-07
9.12227e-06
-2.62523e-07
8.28553e-06
-2.77935e-07
7.81013e-06
-2.85839e-07
7.55605e-06
-2.85698e-07
7.3645e-06
-2.81625e-07
7.16104e-06
-2.76478e-07
6.93407e-06
-2.71444e-07
6.69208e-06
-2.66887e-07
6.44403e-06
-2.6287e-07
6.19558e-06
-2.59369e-07
5.94996e-06
-2.56336e-07
5.70902e-06
-2.5372e-07
5.47387e-06
-2.51473e-07
5.24521e-06
-2.49552e-07
5.02347e-06
-2.47918e-07
4.80892e-06
-2.46539e-07
4.6017e-06
-2.45386e-07
4.40188e-06
-2.44435e-07
4.20946e-06
-2.43662e-07
4.0244e-06
-2.43048e-07
3.84662e-06
-2.42575e-07
3.67601e-06
-2.42229e-07
3.51249e-06
-2.42007e-07
3.35597e-06
3.20629e-06
-2.83343e-07
3.20984e-06
-2.83336e-07
3.36648e-06
-2.83327e-07
3.53071e-06
-2.83315e-07
3.70286e-06
-2.83301e-07
3.88336e-06
-2.83282e-07
4.07263e-06
-2.83258e-07
4.27111e-06
-2.83225e-07
4.47927e-06
-2.83183e-07
4.69755e-06
-2.83128e-07
4.92643e-06
-2.83058e-07
5.16638e-06
-2.8297e-07
5.41784e-06
-2.8286e-07
5.68125e-06
-2.82723e-07
5.95704e-06
-2.82555e-07
6.24558e-06
-2.82348e-07
6.54722e-06
-2.82097e-07
6.8623e-06
-2.81791e-07
7.19108e-06
-2.81421e-07
7.5338e-06
-2.80975e-07
7.89067e-06
-2.80439e-07
8.26183e-06
-2.79801e-07
8.64741e-06
-2.79049e-07
9.04754e-06
-2.78173e-07
9.46244e-06
-2.77161e-07
9.89254e-06
-2.76e-07
1.03387e-05
-2.74658e-07
1.08021e-05
-2.73068e-07
1.12846e-05
-2.71113e-07
1.1788e-05
-2.68604e-07
1.23132e-05
-2.64657e-07
1.49978e-05
-2.59362e-07
1.49174e-05
-2.52229e-07
1.48296e-05
-2.42613e-07
1.47289e-05
-2.29638e-07
1.46091e-05
-2.12137e-07
1.44611e-05
-1.88773e-07
1.42692e-05
-1.58768e-07
1.40047e-05
-1.24185e-07
1.36237e-05
-9.44813e-08
1.308e-05
-8.93086e-08
1.23828e-05
-1.25286e-07
1.16765e-05
-1.89562e-07
1.11887e-05
-2.52445e-07
1.09756e-05
-3.12038e-07
1.08479e-05
-3.97085e-07
1.06474e-05
-5.14531e-07
1.05449e-05
-5.82632e-07
1.10809e-05
-5.06286e-07
1.26168e-05
-3.37545e-07
1.47016e-05
-1.36511e-07
1.66235e-05
1.04355e-08
1.84776e-05
2.99953e-07
2.04535e-05
-6.17014e-08
1.03197e-05
-6.55443e-07
1.03031e-05
-3.9343e-07
2.08019e-05
-3.27366e-07
1.62454e-05
-8.92498e-07
7.96175e-06
-6.51459e-07
1.14043e-05
-2.75625e-07
1.66898e-05
-1.03946e-07
1.78546e-05
4.47751e-08
1.83667e-05
1.96221e-07
1.91456e-05
3.36653e-07
2.03219e-05
5.06247e-07
2.20279e-05
-1.43099e-07
1.1382e-05
-7.9207e-07
1.13428e-05
-6.72e-07
2.21323e-05
-6.12219e-07
2.06718e-05
-5.33218e-07
1.94517e-05
-4.75175e-07
1.51995e-05
-4.18081e-07
1.39117e-05
-3.61779e-07
1.26854e-05
-3.05796e-07
1.14562e-05
-2.61096e-07
1.02198e-05
-2.43515e-07
9.10469e-06
-2.51658e-07
8.29367e-06
-2.6618e-07
7.82465e-06
-2.73914e-07
7.56379e-06
-2.74226e-07
7.36482e-06
-2.70728e-07
7.15754e-06
-2.66068e-07
6.92941e-06
-2.61408e-07
6.68742e-06
-2.57128e-07
6.43975e-06
-2.53319e-07
6.19177e-06
-2.49972e-07
5.94662e-06
-2.47054e-07
5.7061e-06
-2.44521e-07
5.47134e-06
-2.42335e-07
5.24302e-06
-2.40456e-07
5.02159e-06
-2.38851e-07
4.80731e-06
-2.37491e-07
4.60034e-06
-2.3635e-07
4.40074e-06
-2.35404e-07
4.20852e-06
-2.34632e-07
4.02363e-06
-2.34014e-07
3.846e-06
-2.33534e-07
3.67553e-06
-2.3318e-07
3.51213e-06
-2.3295e-07
3.35574e-06
3.2062e-06
-2.86485e-07
3.20983e-06
-2.86478e-07
3.36647e-06
-2.86469e-07
3.5307e-06
-2.86457e-07
3.70285e-06
-2.86442e-07
3.88334e-06
-2.86422e-07
4.07261e-06
-2.86397e-07
4.27109e-06
-2.86363e-07
4.47923e-06
-2.86319e-07
4.69751e-06
-2.86263e-07
4.92638e-06
-2.86191e-07
5.16631e-06
-2.86101e-07
5.41775e-06
-2.85988e-07
5.68114e-06
-2.85847e-07
5.9569e-06
-2.85675e-07
6.2454e-06
-2.85464e-07
6.54701e-06
-2.85206e-07
6.86204e-06
-2.84893e-07
7.19076e-06
-2.84514e-07
7.53342e-06
-2.84056e-07
7.89021e-06
-2.83507e-07
8.26128e-06
-2.82853e-07
8.64676e-06
-2.82081e-07
9.04677e-06
-2.8118e-07
9.46154e-06
-2.80138e-07
9.8915e-06
-2.78939e-07
1.03375e-05
-2.7755e-07
1.08007e-05
-2.75903e-07
1.1283e-05
-2.73876e-07
1.1786e-05
-2.71284e-07
1.23106e-05
-2.67221e-07
1.49937e-05
-2.61809e-07
1.4912e-05
-2.54573e-07
1.48224e-05
-2.44911e-07
1.47193e-05
-2.32023e-07
1.45962e-05
-2.14882e-07
1.4444e-05
-1.924e-07
1.42467e-05
-1.64192e-07
1.39765e-05
-1.32797e-07
1.35923e-05
-1.07716e-07
1.30549e-05
-1.07023e-07
1.23821e-05
-1.44606e-07
1.17141e-05
-2.08547e-07
1.12526e-05
-2.73548e-07
1.10406e-05
-3.37636e-07
1.0912e-05
-4.23621e-07
1.07334e-05
-5.36031e-07
1.06573e-05
-6.08651e-07
1.11535e-05
-5.57747e-07
1.25659e-05
-4.19028e-07
1.45629e-05
-2.65238e-07
1.64697e-05
-1.48955e-07
1.83613e-05
1.45081e-07
2.01594e-05
-1.20881e-07
1.05856e-05
-6.10131e-07
1.07924e-05
-3.51466e-07
2.05433e-05
-2.89718e-07
1.61836e-05
-7.96201e-07
8.46824e-06
-6.0485e-07
1.12129e-05
-2.50729e-07
1.63356e-05
-9.07529e-08
1.76946e-05
3.59962e-08
1.82399e-05
1.57286e-07
1.90243e-05
2.6686e-07
2.02123e-05
4.21675e-07
2.18731e-05
-1.29889e-07
1.19336e-05
-6.98327e-07
1.19112e-05
-5.92825e-07
2.20268e-05
-5.46552e-07
2.06255e-05
-4.84261e-07
1.93894e-05
-4.35556e-07
1.51508e-05
-3.85879e-07
1.3862e-05
-3.35193e-07
1.26347e-05
-2.84185e-07
1.14052e-05
-2.44427e-07
1.018e-05
-2.30102e-07
9.09036e-06
-2.38693e-07
8.30226e-06
-2.52648e-07
7.83861e-06
-2.60356e-07
7.5715e-06
-2.61153e-07
7.36561e-06
-2.5825e-07
7.15464e-06
-2.54107e-07
6.92526e-06
-2.49855e-07
6.68317e-06
-2.45892e-07
6.43579e-06
-2.42326e-07
6.18821e-06
-2.39168e-07
5.94346e-06
-2.36395e-07
5.70333e-06
-2.33974e-07
5.46892e-06
-2.31873e-07
5.24092e-06
-2.30059e-07
5.01978e-06
-2.28503e-07
4.80576e-06
-2.27179e-07
4.59902e-06
-2.26063e-07
4.39963e-06
-2.25133e-07
4.20759e-06
-2.2437e-07
4.02286e-06
-2.23755e-07
3.84538e-06
-2.23272e-07
3.67505e-06
-2.22912e-07
3.51178e-06
-2.22675e-07
3.3555e-06
3.2061e-06
-2.89926e-07
3.20983e-06
-2.8992e-07
3.36647e-06
-2.89911e-07
3.53069e-06
-2.89899e-07
3.70284e-06
-2.89884e-07
3.88333e-06
-2.89864e-07
4.07259e-06
-2.89839e-07
4.27106e-06
-2.89805e-07
4.4792e-06
-2.89761e-07
4.69746e-06
-2.89705e-07
4.92632e-06
-2.89634e-07
5.16623e-06
-2.89543e-07
5.41766e-06
-2.8943e-07
5.68103e-06
-2.8929e-07
5.95676e-06
-2.89117e-07
6.24523e-06
-2.88906e-07
6.5468e-06
-2.88648e-07
6.86178e-06
-2.88334e-07
7.19045e-06
-2.87953e-07
7.53304e-06
-2.87493e-07
7.88975e-06
-2.86941e-07
8.26073e-06
-2.86283e-07
8.6461e-06
-2.85505e-07
9.04599e-06
-2.84596e-07
9.46063e-06
-2.83545e-07
9.89045e-06
-2.82333e-07
1.03363e-05
-2.80928e-07
1.07993e-05
-2.79261e-07
1.12813e-05
-2.77211e-07
1.17839e-05
-2.74597e-07
1.2308e-05
-2.70515e-07
1.49897e-05
-2.65107e-07
1.49066e-05
-2.57926e-07
1.48152e-05
-2.48416e-07
1.47098e-05
-2.35857e-07
1.45836e-05
-2.19362e-07
1.44275e-05
-1.9807e-07
1.42254e-05
-1.7194e-07
1.39504e-05
-1.43877e-07
1.35642e-05
-1.23285e-07
1.30343e-05
-1.2672e-07
1.23856e-05
-1.65783e-07
1.17532e-05
-2.29487e-07
1.13163e-05
-2.96166e-07
1.11073e-05
-3.63798e-07
1.09797e-05
-4.50682e-07
1.08203e-05
-5.59688e-07
1.07664e-05
-6.36771e-07
1.12306e-05
-6.09024e-07
1.25381e-05
-4.9619e-07
1.445e-05
-3.70532e-07
1.6344e-05
-3.00707e-07
1.82915e-05
-7.39691e-09
1.98661e-05
-2.20688e-07
1.07989e-05
-5.95534e-07
1.11672e-05
-3.24182e-07
2.02719e-05
-2.67126e-07
1.61266e-05
-7.25648e-07
8.92677e-06
-5.73435e-07
1.10607e-05
-2.39164e-07
1.60014e-05
-8.17792e-08
1.75372e-05
2.63869e-08
1.81318e-05
1.20174e-07
1.89306e-05
2.02595e-07
2.01299e-05
3.41405e-07
2.17343e-05
-1.38039e-07
1.2413e-05
-6.26134e-07
1.23993e-05
-5.25656e-07
2.19264e-05
-4.86401e-07
2.05862e-05
-4.36729e-07
1.93398e-05
-3.95478e-07
1.51095e-05
-3.52348e-07
1.38189e-05
-3.06865e-07
1.25892e-05
-2.60818e-07
1.13592e-05
-2.25954e-07
1.01451e-05
-2.14833e-07
9.07924e-06
-2.24055e-07
8.31148e-06
-2.37684e-07
7.85224e-06
-2.4546e-07
7.57927e-06
-2.4675e-07
7.3669e-06
-2.44437e-07
7.15232e-06
-2.40814e-07
6.92164e-06
-2.36983e-07
6.67934e-06
-2.33353e-07
6.43216e-06
-2.30051e-07
6.18491e-06
-2.27101e-07
5.94051e-06
-2.24492e-07
5.70072e-06
-2.222e-07
5.46662e-06
-2.202e-07
5.23892e-06
-2.18466e-07
5.01804e-06
-2.16971e-07