/*--------------------------------*- C++ -*----------------------------------*\
  =========                 |
  \\      /  F ield         | OpenFOAM: The Open Source CFD Toolbox
   \\    /   O peration     | Website:  https://openfoam.org
    \\  /    A nd           | Version:  9
     \\/     M anipulation  |
\*---------------------------------------------------------------------------*/
FoamFile
{
    format      ascii;
    class       volScalarField;
    location    "0.17";
    object      rAU;
}
// * * * * * * * * * * * * * * * * * * * * * * * * * * * * * * * * * * * * * //

dimensions      [-1 3 1 0 0 0 0];

internalField   nonuniform List<scalar> 
20000
(
1.24303e-05
1.19463e-05
1.20482e-05
1.21428e-05
1.22306e-05
1.23119e-05
1.2387e-05
1.24566e-05
1.25208e-05
1.25801e-05
1.2635e-05
1.26858e-05
1.27329e-05
1.27768e-05
1.2818e-05
1.28568e-05
1.28937e-05
1.29292e-05
1.29636e-05
1.29975e-05
1.30311e-05
1.30651e-05
1.30995e-05
1.31349e-05
1.31711e-05
1.32081e-05
1.32455e-05
1.32826e-05
1.33187e-05
1.33571e-05
1.34153e-05
1.34471e-05
1.34778e-05
1.35119e-05
1.3551e-05
1.35972e-05
1.36549e-05
1.37346e-05
1.38603e-05
1.40801e-05
1.44653e-05
1.50169e-05
1.54408e-05
1.54484e-05
1.5398e-05
1.57534e-05
1.62748e-05
1.54558e-05
1.38031e-05
1.27358e-05
1.19955e-05
1.13418e-05
1.04047e-05
2.34584e-05
2.41653e-05
1.02067e-05
1.1569e-05
2.42047e-05
1.32071e-05
1.16669e-05
1.17671e-05
1.16678e-05
1.13767e-05
1.09571e-05
1.03147e-05
2.33383e-05
2.09653e-05
1.02605e-05
1.09387e-05
1.14176e-05
1.17641e-05
1.20509e-05
1.23238e-05
1.26245e-05
1.30142e-05
1.35234e-05
1.39867e-05
1.40956e-05
1.39121e-05
1.36924e-05
1.35268e-05
1.34057e-05
1.3309e-05
1.32243e-05
1.31459e-05
1.30708e-05
1.29973e-05
1.29244e-05
1.28513e-05
1.27771e-05
1.27013e-05
1.26231e-05
1.2542e-05
1.24575e-05
1.23688e-05
1.22754e-05
1.21767e-05
1.20721e-05
1.19607e-05
1.0607e-05
1.70932e-05
1.61902e-05
1.6377e-05
1.65512e-05
1.67134e-05
1.68643e-05
1.70044e-05
1.71344e-05
1.72548e-05
1.73663e-05
1.74695e-05
1.75651e-05
1.76536e-05
1.77356e-05
1.78117e-05
1.78826e-05
1.79488e-05
1.80109e-05
1.80694e-05
1.81249e-05
1.81779e-05
1.82287e-05
1.8278e-05
1.83259e-05
1.83728e-05
1.84187e-05
1.84632e-05
1.85062e-05
1.85473e-05
1.85929e-05
1.86739e-05
1.87008e-05
1.87234e-05
1.87485e-05
1.87774e-05
1.88119e-05
1.88555e-05
1.89163e-05
1.90124e-05
1.91767e-05
1.9449e-05
1.98058e-05
2.00567e-05
2.00654e-05
2.00496e-05
2.02502e-05
2.04858e-05
2.00032e-05
1.89772e-05
1.82309e-05
1.76679e-05
1.71152e-05
1.63262e-05
2.33789e-05
2.32443e-05
1.60565e-05
1.73867e-05
2.36384e-05
1.86083e-05
1.73261e-05
1.74219e-05
1.73651e-05
1.71493e-05
1.6784e-05
1.62174e-05
2.33525e-05
2.23846e-05
1.60429e-05
1.66626e-05
1.70778e-05
1.7334e-05
1.75574e-05
1.77671e-05
1.79946e-05
1.82829e-05
1.86381e-05
1.89261e-05
1.89645e-05
1.88145e-05
1.86384e-05
1.84951e-05
1.83795e-05
1.82777e-05
1.81814e-05
1.80861e-05
1.79898e-05
1.78909e-05
1.77884e-05
1.76816e-05
1.75695e-05
1.74515e-05
1.73266e-05
1.71943e-05
1.70537e-05
1.69041e-05
1.67448e-05
1.65748e-05
1.63936e-05
1.62003e-05
1.38208e-05
1.70923e-05
1.61895e-05
1.63763e-05
1.65505e-05
1.67127e-05
1.68636e-05
1.70038e-05
1.71338e-05
1.72542e-05
1.73658e-05
1.7469e-05
1.75646e-05
1.76531e-05
1.77351e-05
1.78113e-05
1.78822e-05
1.79485e-05
1.80106e-05
1.80692e-05
1.81247e-05
1.81777e-05
1.82287e-05
1.8278e-05
1.8326e-05
1.8373e-05
1.84189e-05
1.84635e-05
1.85066e-05
1.85477e-05
1.85934e-05
1.86745e-05
1.87017e-05
1.87247e-05
1.87504e-05
1.87802e-05
1.88161e-05
1.8862e-05
1.89267e-05
1.90284e-05
1.91989e-05
1.94719e-05
1.98147e-05
2.00497e-05
2.00672e-05
2.00615e-05
2.02357e-05
2.04181e-05
1.99792e-05
1.90282e-05
1.83019e-05
1.77247e-05
1.71738e-05
1.64481e-05
2.26998e-05
2.25767e-05
1.61801e-05
1.75503e-05
2.31324e-05
1.8741e-05
1.73806e-05
1.74624e-05
1.74139e-05
1.71881e-05
1.68175e-05
1.62883e-05
2.26926e-05
2.19303e-05
1.61035e-05
1.6692e-05
1.70833e-05
1.73319e-05
1.7554e-05
1.77661e-05
1.7999e-05
1.82932e-05
1.86451e-05
1.89173e-05
1.89492e-05
1.88054e-05
1.86349e-05
1.84935e-05
1.83782e-05
1.82764e-05
1.81801e-05
1.8085e-05
1.79888e-05
1.78901e-05
1.77878e-05
1.76812e-05
1.75693e-05
1.74514e-05
1.73267e-05
1.71945e-05
1.7054e-05
1.69044e-05
1.67451e-05
1.65752e-05
1.63939e-05
1.62005e-05
1.3821e-05
1.70912e-05
1.61885e-05
1.63753e-05
1.65495e-05
1.67118e-05
1.68627e-05
1.70029e-05
1.71329e-05
1.72534e-05
1.7365e-05
1.74683e-05
1.75639e-05
1.76525e-05
1.77345e-05
1.78108e-05
1.78818e-05
1.79481e-05
1.80102e-05
1.80689e-05
1.81245e-05
1.81775e-05
1.82285e-05
1.82779e-05
1.8326e-05
1.83731e-05
1.8419e-05
1.84637e-05
1.85069e-05
1.85481e-05
1.8594e-05
1.86752e-05
1.87028e-05
1.87262e-05
1.87527e-05
1.87836e-05
1.88211e-05
1.88696e-05
1.89383e-05
1.90453e-05
1.92207e-05
1.94914e-05
1.98173e-05
2.00363e-05
2.00626e-05
2.0066e-05
2.02128e-05
2.03496e-05
1.99568e-05
1.90863e-05
1.83786e-05
1.77984e-05
1.7252e-05
1.65714e-05
2.20704e-05
2.20457e-05
1.63346e-05
1.77255e-05
2.26888e-05
1.88777e-05
1.74586e-05
1.75176e-05
1.74712e-05
1.72417e-05
1.68694e-05
1.63702e-05
2.20628e-05
2.15241e-05
1.62018e-05
1.67462e-05
1.71123e-05
1.73471e-05
1.75628e-05
1.77746e-05
1.8011e-05
1.83089e-05
1.86532e-05
1.89073e-05
1.8933e-05
1.87967e-05
1.86327e-05
1.84939e-05
1.83791e-05
1.82772e-05
1.81808e-05
1.80856e-05
1.79894e-05
1.78908e-05
1.77886e-05
1.7682e-05
1.75702e-05
1.74524e-05
1.73278e-05
1.71956e-05
1.70552e-05
1.69057e-05
1.67464e-05
1.65765e-05
1.63953e-05
1.62019e-05
1.38228e-05
1.70897e-05
1.61873e-05
1.63741e-05
1.65483e-05
1.67106e-05
1.68616e-05
1.70018e-05
1.71319e-05
1.72524e-05
1.7364e-05
1.74674e-05
1.7563e-05
1.76516e-05
1.77338e-05
1.78101e-05
1.78811e-05
1.79475e-05
1.80097e-05
1.80684e-05
1.81241e-05
1.81772e-05
1.82283e-05
1.82778e-05
1.83259e-05
1.8373e-05
1.84191e-05
1.84639e-05
1.85071e-05
1.85485e-05
1.85945e-05
1.8676e-05
1.8704e-05
1.8728e-05
1.87552e-05
1.87873e-05
1.88267e-05
1.88779e-05
1.89503e-05
1.90621e-05
1.92409e-05
1.95069e-05
1.98146e-05
2.00187e-05
2.00528e-05
2.00634e-05
2.01851e-05
2.02849e-05
1.99355e-05
1.91442e-05
1.8454e-05
1.78794e-05
1.73433e-05
1.66882e-05
2.15443e-05
2.16263e-05
1.64936e-05
1.78878e-05
2.23004e-05
1.90134e-05
1.75503e-05
1.75802e-05
1.75268e-05
1.72975e-05
1.69331e-05
1.64519e-05
2.15089e-05
2.11672e-05
1.63086e-05
1.68103e-05
1.71554e-05
1.7374e-05
1.75812e-05
1.77912e-05
1.80297e-05
1.83285e-05
1.86626e-05
1.8898e-05
1.89185e-05
1.87898e-05
1.86323e-05
1.84961e-05
1.83818e-05
1.82798e-05
1.81832e-05
1.80879e-05
1.79916e-05
1.78929e-05
1.77908e-05
1.76842e-05
1.75724e-05
1.74546e-05
1.73301e-05
1.7198e-05
1.70576e-05
1.69082e-05
1.67489e-05
1.65791e-05
1.63979e-05
1.62045e-05
1.38261e-05
1.70879e-05
1.61857e-05
1.63725e-05
1.65468e-05
1.67092e-05
1.68602e-05
1.70004e-05
1.71305e-05
1.72511e-05
1.73628e-05
1.74662e-05
1.75619e-05
1.76506e-05
1.77328e-05
1.78092e-05
1.78803e-05
1.79467e-05
1.8009e-05
1.80678e-05
1.81235e-05
1.81768e-05
1.82279e-05
1.82775e-05
1.83257e-05
1.83729e-05
1.84191e-05
1.84639e-05
1.85073e-05
1.85488e-05
1.8595e-05
1.86768e-05
1.87052e-05
1.87298e-05
1.8758e-05
1.87913e-05
1.88325e-05
1.88863e-05
1.89623e-05
1.90782e-05
1.92587e-05
1.95182e-05
1.98077e-05
1.99982e-05
2.00385e-05
2.00539e-05
2.01539e-05
2.02245e-05
1.99146e-05
1.91971e-05
1.85248e-05
1.79632e-05
1.74417e-05
1.67978e-05
2.11226e-05
2.12758e-05
1.66402e-05
1.80193e-05
2.19526e-05
1.9147e-05
1.76539e-05
1.76465e-05
1.75841e-05
1.73572e-05
1.70019e-05
1.65277e-05
2.10422e-05
2.08513e-05
1.64095e-05
1.68743e-05
1.72044e-05
1.74072e-05
1.76063e-05
1.78142e-05
1.80534e-05
1.83511e-05
1.86735e-05
1.88911e-05
1.89069e-05
1.87851e-05
1.86338e-05
1.85e-05
1.83862e-05
1.82841e-05
1.81873e-05
1.80917e-05
1.79953e-05
1.78966e-05
1.77943e-05
1.76878e-05
1.7576e-05
1.74582e-05
1.73337e-05
1.72017e-05
1.70613e-05
1.69119e-05
1.67527e-05
1.65829e-05
1.64017e-05
1.62084e-05
1.3831e-05
1.70856e-05
1.61838e-05
1.63706e-05
1.6545e-05
1.67074e-05
1.68585e-05
1.69988e-05
1.7129e-05
1.72496e-05
1.73614e-05
1.74648e-05
1.75606e-05
1.76493e-05
1.77316e-05
1.7808e-05
1.78792e-05
1.79457e-05
1.80081e-05
1.8067e-05
1.81228e-05
1.81761e-05
1.82274e-05
1.8277e-05
1.83254e-05
1.83727e-05
1.84189e-05
1.84639e-05
1.85074e-05
1.8549e-05
1.85955e-05
1.86776e-05
1.87065e-05
1.87318e-05
1.87608e-05
1.87954e-05
1.88384e-05
1.88946e-05
1.89739e-05
1.90928e-05
1.92738e-05
1.95256e-05
1.97975e-05
1.99755e-05
2.00202e-05
2.00387e-05
2.01208e-05
2.01691e-05
1.9893e-05
1.92419e-05
1.85881e-05
1.80459e-05
1.75417e-05
1.69045e-05
2.07924e-05
2.09736e-05
1.67688e-05
1.81167e-05
2.16452e-05
1.92798e-05
1.77679e-05
1.77139e-05
1.76417e-05
1.74182e-05
1.70704e-05
1.65981e-05
2.0659e-05
2.05671e-05
1.64994e-05
1.69335e-05
1.7254e-05
1.74431e-05
1.76357e-05
1.78413e-05
1.80806e-05
1.83759e-05
1.86859e-05
1.88868e-05
1.88984e-05
1.87825e-05
1.86368e-05
1.85054e-05
1.83921e-05
1.82899e-05
1.81928e-05
1.80971e-05
1.80005e-05
1.79016e-05
1.77993e-05
1.76927e-05
1.75809e-05
1.74632e-05
1.73387e-05
1.72067e-05
1.70664e-05
1.6917e-05
1.67579e-05
1.65881e-05
1.6407e-05
1.62137e-05
1.38376e-05
1.7083e-05
1.61816e-05
1.63685e-05
1.65429e-05
1.67054e-05
1.68565e-05
1.69969e-05
1.71271e-05
1.72478e-05
1.73597e-05
1.74632e-05
1.75591e-05
1.76479e-05
1.77302e-05
1.78067e-05
1.7878e-05
1.79446e-05
1.80071e-05
1.8066e-05
1.8122e-05
1.81754e-05
1.82267e-05
1.82765e-05
1.83249e-05
1.83723e-05
1.84186e-05
1.84637e-05
1.85073e-05
1.85492e-05
1.85959e-05
1.86784e-05
1.87077e-05
1.87336e-05
1.87636e-05
1.87994e-05
1.88441e-05
1.89026e-05
1.89845e-05
1.91059e-05
1.92862e-05
1.95295e-05
1.97849e-05
1.99514e-05
1.99988e-05
2.00191e-05
2.00867e-05
2.01177e-05
1.98696e-05
1.9277e-05
1.86418e-05
1.81241e-05
1.76382e-05
1.70117e-05
2.05484e-05
2.07111e-05
1.68802e-05
1.8187e-05
2.13794e-05
1.94104e-05
1.78886e-05
1.77795e-05
1.76971e-05
1.74772e-05
1.71352e-05
1.66652e-05
2.03443e-05
2.03073e-05
1.65769e-05
1.69854e-05
1.73009e-05
1.74795e-05
1.76672e-05
1.78709e-05
1.81101e-05
1.84021e-05
1.86994e-05
1.88851e-05
1.88926e-05
1.87819e-05
1.86412e-05
1.8512e-05
1.83993e-05
1.82971e-05
1.81998e-05
1.81038e-05
1.8007e-05
1.7908e-05
1.78057e-05
1.7699e-05
1.75872e-05
1.74695e-05
1.7345e-05
1.7213e-05
1.70728e-05
1.69235e-05
1.67644e-05
1.65947e-05
1.64137e-05
1.62205e-05
1.3846e-05
1.708e-05
1.6179e-05
1.6366e-05
1.65405e-05
1.6703e-05
1.68542e-05
1.69947e-05
1.7125e-05
1.72458e-05
1.73577e-05
1.74613e-05
1.75573e-05
1.76462e-05
1.77286e-05
1.78052e-05
1.78766e-05
1.79433e-05
1.80058e-05
1.80649e-05
1.81209e-05
1.81744e-05
1.82259e-05
1.82757e-05
1.83243e-05
1.83718e-05
1.84182e-05
1.84634e-05
1.85072e-05
1.85492e-05
1.85961e-05
1.8679e-05
1.87089e-05
1.87354e-05
1.87662e-05
1.88032e-05
1.88494e-05
1.89099e-05
1.89941e-05
1.91171e-05
1.92959e-05
1.95304e-05
1.97702e-05
1.9926e-05
1.99749e-05
1.99961e-05
2.00516e-05
2.00691e-05
1.98438e-05
1.93021e-05
1.86859e-05
1.81904e-05
1.77223e-05
1.71212e-05
2.03751e-05
2.04734e-05
1.69758e-05
1.82386e-05
2.11526e-05
1.95331e-05
1.80107e-05
1.78409e-05
1.7748e-05
1.75317e-05
1.71943e-05
1.67299e-05
2.0086e-05
2.00741e-05
1.66423e-05
1.70293e-05
1.73432e-05
1.75148e-05
1.76994e-05
1.79016e-05
1.81407e-05
1.84289e-05
1.87137e-05
1.88852e-05
1.88891e-05
1.87827e-05
1.86466e-05
1.85196e-05
1.84075e-05
1.83053e-05
1.82078e-05
1.81116e-05
1.80147e-05
1.79156e-05
1.78132e-05
1.77065e-05
1.75947e-05
1.7477e-05
1.73525e-05
1.72206e-05
1.70805e-05
1.69313e-05
1.67722e-05
1.66027e-05
1.64217e-05
1.62286e-05
1.38561e-05
1.70767e-05
1.61762e-05
1.63632e-05
1.65378e-05
1.67004e-05
1.68517e-05
1.69922e-05
1.71226e-05
1.72435e-05
1.73555e-05
1.74592e-05
1.75553e-05
1.76443e-05
1.77268e-05
1.78035e-05
1.78749e-05
1.79417e-05
1.80044e-05
1.80635e-05
1.81197e-05
1.81733e-05
1.82249e-05
1.82748e-05
1.83235e-05
1.83711e-05
1.84176e-05
1.8463e-05
1.85069e-05
1.85491e-05
1.85962e-05
1.86796e-05
1.87099e-05
1.8737e-05
1.87686e-05
1.88067e-05
1.88543e-05
1.89165e-05
1.90026e-05
1.91266e-05
1.93032e-05
1.95287e-05
1.97539e-05
1.98998e-05
1.99491e-05
1.99704e-05
2.00159e-05
2.00224e-05
1.98153e-05
1.93174e-05
1.87192e-05
1.8222e-05
1.77722e-05
1.72329e-05
2.0252e-05
2.02578e-05
1.70585e-05
1.82783e-05
2.09577e-05
1.96405e-05
1.81292e-05
1.78965e-05
1.77932e-05
1.75798e-05
1.72464e-05
1.67917e-05
1.98737e-05
1.98662e-05
1.66969e-05
1.70659e-05
1.73804e-05
1.7548e-05
1.77308e-05
1.79323e-05
1.81714e-05
1.84554e-05
1.8728e-05
1.88867e-05
1.88873e-05
1.87849e-05
1.86529e-05
1.8528e-05
1.84165e-05
1.83143e-05
1.82167e-05
1.81204e-05
1.80234e-05
1.79242e-05
1.78217e-05
1.7715e-05
1.76033e-05
1.74856e-05
1.73612e-05
1.72294e-05
1.70893e-05
1.69402e-05
1.67813e-05
1.66119e-05
1.64311e-05
1.62381e-05
1.3868e-05
1.7073e-05
1.6173e-05
1.63601e-05
1.65348e-05
1.66975e-05
1.68489e-05
1.69895e-05
1.712e-05
1.7241e-05
1.73531e-05
1.74569e-05
1.7553e-05
1.76421e-05
1.77248e-05
1.78016e-05
1.78731e-05
1.794e-05
1.80028e-05
1.8062e-05
1.81183e-05
1.8172e-05
1.82237e-05
1.82738e-05
1.83225e-05
1.83702e-05
1.84169e-05
1.84624e-05
1.85064e-05
1.85488e-05
1.85962e-05
1.868e-05
1.87107e-05
1.87384e-05
1.87708e-05
1.88098e-05
1.88586e-05
1.89223e-05
1.90099e-05
1.91344e-05
1.93081e-05
1.95247e-05
1.97362e-05
1.9873e-05
1.99217e-05
1.99426e-05
1.99795e-05
1.9977e-05
1.97845e-05
1.93237e-05
1.87432e-05
1.82404e-05
1.77694e-05
1.73063e-05
2.01599e-05
2.00688e-05
1.71328e-05
1.83111e-05
2.07853e-05
1.97276e-05
1.8239e-05
1.79459e-05
1.78321e-05
1.76205e-05
1.72906e-05
1.68495e-05
1.96958e-05
1.96815e-05
1.6743e-05
1.70966e-05
1.74126e-05
1.75786e-05
1.77607e-05
1.79621e-05
1.82015e-05
1.84811e-05
1.87421e-05
1.88891e-05
1.88869e-05
1.87879e-05
1.86597e-05
1.85369e-05
1.84262e-05
1.83241e-05
1.82264e-05
1.81301e-05
1.8033e-05
1.79337e-05
1.78312e-05
1.77246e-05
1.76128e-05
1.74952e-05
1.7371e-05
1.72392e-05
1.70993e-05
1.69503e-05
1.67916e-05
1.66223e-05
1.64416e-05
1.62488e-05
1.38814e-05
1.70689e-05
1.61695e-05
1.63567e-05
1.65315e-05
1.66943e-05
1.68458e-05
1.69865e-05
1.71171e-05
1.72382e-05
1.73504e-05
1.74543e-05
1.75506e-05
1.76398e-05
1.77225e-05
1.77994e-05
1.78711e-05
1.79381e-05
1.8001e-05
1.80603e-05
1.81167e-05
1.81705e-05
1.82223e-05
1.82725e-05
1.83214e-05
1.83692e-05
1.8416e-05
1.84616e-05
1.85057e-05
1.85483e-05
1.85959e-05
1.86802e-05
1.87113e-05
1.87396e-05
1.87725e-05
1.88124e-05
1.88623e-05
1.89273e-05
1.90159e-05
1.91404e-05
1.93109e-05
1.95187e-05
1.97175e-05
1.98456e-05
1.98933e-05
1.99132e-05
1.99427e-05
1.99327e-05
1.97516e-05
1.93223e-05
1.87598e-05
1.82523e-05
1.77582e-05
1.73723e-05
2.00776e-05
1.99119e-05
1.72049e-05
1.83379e-05
2.0627e-05
1.97946e-05
1.83408e-05
1.79926e-05
1.78654e-05
1.76535e-05
1.73265e-05
1.69019e-05
1.95424e-05
1.95209e-05
1.67837e-05
1.71233e-05
1.74405e-05
1.76066e-05
1.77887e-05
1.79907e-05
1.82304e-05
1.85056e-05
1.87555e-05
1.88921e-05
1.88874e-05
1.87917e-05
1.86671e-05
1.85463e-05
1.84363e-05
1.83344e-05
1.82368e-05
1.81403e-05
1.80432e-05
1.7944e-05
1.78415e-05
1.77349e-05
1.76233e-05
1.75058e-05
1.73816e-05
1.72501e-05
1.71103e-05
1.69615e-05
1.6803e-05
1.66338e-05
1.64534e-05
1.62607e-05
1.38964e-05
1.70645e-05
1.61658e-05
1.63531e-05
1.65279e-05
1.66908e-05
1.68424e-05
1.69832e-05
1.7114e-05
1.72352e-05
1.73475e-05
1.74515e-05
1.75479e-05
1.76372e-05
1.772e-05
1.77971e-05
1.78688e-05
1.79359e-05
1.7999e-05
1.80584e-05
1.81149e-05
1.81689e-05
1.82208e-05
1.82711e-05
1.83201e-05
1.8368e-05
1.84149e-05
1.84606e-05
1.85049e-05
1.85476e-05
1.85955e-05
1.86802e-05
1.87117e-05
1.87404e-05
1.87739e-05
1.88146e-05
1.88653e-05
1.89313e-05
1.90208e-05
1.91448e-05
1.93117e-05
1.95109e-05
1.96979e-05
1.98178e-05
1.9864e-05
1.98827e-05
1.99056e-05
1.98892e-05
1.97172e-05
1.93145e-05
1.87693e-05
1.82539e-05
1.77345e-05
1.74048e-05
1.99607e-05
1.97917e-05
1.72825e-05
1.83612e-05
2.04805e-05
1.98459e-05
1.84371e-05
1.8038e-05
1.7894e-05
1.7679e-05
1.73539e-05
1.69475e-05
1.94062e-05
1.93851e-05
1.68223e-05
1.71473e-05
1.74649e-05
1.76323e-05
1.78149e-05
1.80178e-05
1.8258e-05
1.85287e-05
1.87682e-05
1.88954e-05
1.88888e-05
1.8796e-05
1.86748e-05
1.8556e-05
1.84468e-05
1.83452e-05
1.82476e-05
1.81512e-05
1.80542e-05
1.7955e-05
1.78526e-05
1.77461e-05
1.76345e-05
1.75172e-05
1.73932e-05
1.72618e-05
1.71223e-05
1.69737e-05
1.68154e-05
1.66465e-05
1.64662e-05
1.62737e-05
1.39128e-05
1.70598e-05
1.61617e-05
1.63491e-05
1.65241e-05
1.66871e-05
1.68388e-05
1.69797e-05
1.71106e-05
1.72319e-05
1.73443e-05
1.74485e-05
1.7545e-05
1.76344e-05
1.77174e-05
1.77945e-05
1.78664e-05
1.79336e-05
1.79967e-05
1.80563e-05
1.81129e-05
1.8167e-05
1.8219e-05
1.82695e-05
1.83186e-05
1.83666e-05
1.84136e-05
1.84594e-05
1.85039e-05
1.85467e-05
1.85948e-05
1.868e-05
1.87118e-05
1.87409e-05
1.87749e-05
1.88162e-05
1.88677e-05
1.89345e-05
1.90244e-05
1.91477e-05
1.93108e-05
1.95015e-05
1.96775e-05
1.97899e-05
1.98341e-05
1.98513e-05
1.98685e-05
1.98465e-05
1.96818e-05
1.93016e-05
1.87726e-05
1.82484e-05
1.77108e-05
1.74422e-05
1.98538e-05
1.97145e-05
1.73761e-05
1.8384e-05
2.03444e-05
1.98873e-05
1.85315e-05
1.80838e-05
1.79185e-05
1.76975e-05
1.73735e-05
1.69852e-05
1.92818e-05
1.92739e-05
1.68614e-05
1.71693e-05
1.74868e-05
1.7656e-05
1.78394e-05
1.80436e-05
1.82841e-05
1.85502e-05
1.878e-05
1.8899e-05
1.88907e-05
1.88008e-05
1.86828e-05
1.85659e-05
1.84577e-05
1.83564e-05
1.8259e-05
1.81627e-05
1.80657e-05
1.79666e-05
1.78643e-05
1.7758e-05
1.76466e-05
1.75294e-05
1.74057e-05
1.72745e-05
1.71352e-05
1.69868e-05
1.68288e-05
1.66601e-05
1.64801e-05
1.62878e-05
1.39306e-05
1.70547e-05
1.61573e-05
1.63449e-05
1.65199e-05
1.66831e-05
1.68349e-05
1.69759e-05
1.71069e-05
1.72284e-05
1.73409e-05
1.74452e-05
1.75418e-05
1.76313e-05
1.77144e-05
1.77917e-05
1.78637e-05
1.79311e-05
1.79943e-05
1.8054e-05
1.81107e-05
1.81649e-05
1.82171e-05
1.82676e-05
1.83169e-05
1.8365e-05
1.84121e-05
1.84581e-05
1.85026e-05
1.85456e-05
1.85938e-05
1.86796e-05
1.87116e-05
1.8741e-05
1.87755e-05
1.88173e-05
1.88694e-05
1.89367e-05
1.90269e-05
1.91492e-05
1.93083e-05
1.94908e-05
1.96565e-05
1.97618e-05
1.98039e-05
1.98194e-05
1.98317e-05
1.98048e-05
1.96461e-05
1.92853e-05
1.87718e-05
1.82403e-05
1.7693e-05
1.74817e-05
1.97537e-05
1.96816e-05
1.74937e-05
1.84078e-05
2.0218e-05
1.99227e-05
1.86265e-05
1.8131e-05
1.794e-05
1.771e-05
1.73861e-05
1.70147e-05
1.91657e-05
1.9186e-05
1.69029e-05
1.71896e-05
1.75066e-05
1.76782e-05
1.78625e-05
1.8068e-05
1.83087e-05
1.85702e-05
1.8791e-05
1.89026e-05
1.88932e-05
1.8806e-05
1.86911e-05
1.85762e-05
1.84689e-05
1.8368e-05
1.82708e-05
1.81746e-05
1.80778e-05
1.79788e-05
1.78767e-05
1.77705e-05
1.76594e-05
1.75425e-05
1.74189e-05
1.7288e-05
1.7149e-05
1.70009e-05
1.68431e-05
1.66748e-05
1.6495e-05
1.6303e-05
1.39498e-05
1.70493e-05
1.61527e-05
1.63403e-05
1.65155e-05
1.66788e-05
1.68307e-05
1.69719e-05
1.7103e-05
1.72246e-05
1.73373e-05
1.74417e-05
1.75384e-05
1.76281e-05
1.77113e-05
1.77887e-05
1.78609e-05
1.79283e-05
1.79917e-05
1.80516e-05
1.81084e-05
1.81627e-05
1.8215e-05
1.82656e-05
1.8315e-05
1.83632e-05
1.84104e-05
1.84565e-05
1.85011e-05
1.85442e-05
1.85926e-05
1.86789e-05
1.87111e-05
1.87408e-05
1.87756e-05
1.88178e-05
1.88703e-05
1.89381e-05
1.90283e-05
1.91492e-05
1.93043e-05
1.9479e-05
1.9635e-05
1.97336e-05
1.97735e-05
1.97873e-05
1.97952e-05
1.97643e-05
1.96107e-05
1.92668e-05
1.87686e-05
1.82329e-05
1.76849e-05
1.75216e-05
1.96609e-05
1.96913e-05
1.76416e-05
1.84351e-05
2.00998e-05
1.99526e-05
1.87227e-05
1.81798e-05
1.79587e-05
1.77174e-05
1.7393e-05
1.7036e-05
1.90552e-05
1.91191e-05
1.69473e-05
1.72089e-05
1.75243e-05
1.76988e-05
1.7884e-05
1.8091e-05
1.83317e-05
1.85887e-05
1.88011e-05
1.89063e-05
1.88961e-05
1.88116e-05
1.86997e-05
1.85867e-05
1.84803e-05
1.838e-05
1.8283e-05
1.81871e-05
1.80904e-05
1.79916e-05
1.78897e-05
1.77838e-05
1.76729e-05
1.75562e-05
1.7433e-05
1.73024e-05
1.71636e-05
1.70159e-05
1.68584e-05
1.66904e-05
1.6511e-05
1.63193e-05
1.39704e-05
1.70435e-05
1.61478e-05
1.63355e-05
1.65108e-05
1.66742e-05
1.68263e-05
1.69676e-05
1.70989e-05
1.72206e-05
1.73334e-05
1.74379e-05
1.75348e-05
1.76246e-05
1.7708e-05
1.77855e-05
1.78578e-05
1.79254e-05
1.79889e-05
1.80489e-05
1.81058e-05
1.81603e-05
1.82127e-05
1.82634e-05
1.83129e-05
1.83612e-05
1.84085e-05
1.84547e-05
1.84994e-05
1.85426e-05
1.85912e-05
1.86779e-05
1.87103e-05
1.87402e-05
1.87752e-05
1.88177e-05
1.88706e-05
1.89386e-05
1.90286e-05
1.91481e-05
1.9299e-05
1.94661e-05
1.96131e-05
1.97054e-05
1.97429e-05
1.97551e-05
1.97592e-05
1.9725e-05
1.9576e-05
1.92473e-05
1.87645e-05
1.82292e-05
1.76892e-05
1.75634e-05
1.95814e-05
1.97393e-05
1.77968e-05
1.8419e-05
1.99616e-05
1.99743e-05
1.88184e-05
1.82296e-05
1.79751e-05
1.77205e-05
1.73958e-05
1.70502e-05
1.8949e-05
1.90703e-05
1.69958e-05
1.72258e-05
1.75396e-05
1.77184e-05
1.79043e-05
1.81126e-05
1.83532e-05
1.86057e-05
1.88104e-05
1.89102e-05
1.88994e-05
1.88176e-05
1.87086e-05
1.85975e-05
1.84921e-05
1.83923e-05
1.82957e-05
1.82e-05
1.81035e-05
1.8005e-05
1.79034e-05
1.77977e-05
1.76871e-05
1.75707e-05
1.74478e-05
1.73175e-05
1.71791e-05
1.70318e-05
1.68747e-05
1.6707e-05
1.65279e-05
1.63365e-05
1.39922e-05
1.70374e-05
1.61426e-05
1.63305e-05
1.65059e-05
1.66694e-05
1.68216e-05
1.69631e-05
1.70945e-05
1.72163e-05
1.73293e-05
1.7434e-05
1.7531e-05
1.7621e-05
1.77045e-05
1.77821e-05
1.78545e-05
1.79222e-05
1.79859e-05
1.8046e-05
1.81031e-05
1.81576e-05
1.82101e-05
1.8261e-05
1.83106e-05
1.8359e-05
1.84064e-05
1.84526e-05
1.84974e-05
1.85408e-05
1.85894e-05
1.86766e-05
1.87091e-05
1.87392e-05
1.87744e-05
1.88171e-05
1.88702e-05
1.89383e-05
1.90279e-05
1.91457e-05
1.92924e-05
1.94522e-05
1.95908e-05
1.96772e-05
1.97123e-05
1.97229e-05
1.97237e-05
1.96869e-05
1.95421e-05
1.92272e-05
1.87603e-05
1.82305e-05
1.77062e-05
1.76107e-05
1.95223e-05
1.9817e-05
1.7971e-05
1.83858e-05
1.98085e-05
1.99829e-05
1.89095e-05
1.82758e-05
1.7986e-05
1.77205e-05
1.73958e-05
1.70588e-05
1.88463e-05
1.90361e-05
1.70479e-05
1.72403e-05
1.75538e-05
1.77361e-05
1.79231e-05
1.81328e-05
1.83733e-05
1.86215e-05
1.88192e-05
1.89141e-05
1.89032e-05
1.8824e-05
1.87178e-05
1.86085e-05
1.85042e-05
1.8405e-05
1.83087e-05
1.82133e-05
1.81171e-05
1.80189e-05
1.79176e-05
1.78122e-05
1.77019e-05
1.75859e-05
1.74634e-05
1.73335e-05
1.71955e-05
1.70485e-05
1.68918e-05
1.67245e-05
1.65459e-05
1.63548e-05
1.40154e-05
1.7031e-05
1.61371e-05
1.63251e-05
1.65007e-05
1.66643e-05
1.68167e-05
1.69583e-05
1.70898e-05
1.72118e-05
1.7325e-05
1.74298e-05
1.7527e-05
1.76171e-05
1.77007e-05
1.77785e-05
1.7851e-05
1.79189e-05
1.79827e-05
1.80429e-05
1.81001e-05
1.81548e-05
1.82074e-05
1.82584e-05
1.83081e-05
1.83566e-05
1.84041e-05
1.84504e-05
1.84952e-05
1.85387e-05
1.85874e-05
1.86751e-05
1.87076e-05
1.87378e-05
1.87731e-05
1.88159e-05
1.88691e-05
1.89372e-05
1.90262e-05
1.91422e-05
1.92847e-05
1.94375e-05
1.95681e-05
1.96488e-05
1.96815e-05
1.96905e-05
1.96886e-05
1.96497e-05
1.95088e-05
1.92064e-05
1.87555e-05
1.82361e-05
1.77344e-05
1.76681e-05
1.94916e-05
1.99116e-05
1.81642e-05
1.83697e-05
1.96668e-05
1.99758e-05
1.89915e-05
1.83148e-05
1.79896e-05
1.77183e-05
1.73945e-05
1.70637e-05
1.87481e-05
1.90124e-05
1.71031e-05
1.72522e-05
1.75658e-05
1.77522e-05
1.79404e-05
1.81517e-05
1.83919e-05
1.8636e-05
1.88274e-05
1.89183e-05
1.89075e-05
1.88308e-05
1.87272e-05
1.86198e-05
1.85165e-05
1.84179e-05
1.83221e-05
1.8227e-05
1.81312e-05
1.80333e-05
1.79323e-05
1.78273e-05
1.77174e-05
1.76018e-05
1.74796e-05
1.73502e-05
1.72126e-05
1.70661e-05
1.69098e-05
1.6743e-05
1.65647e-05
1.6374e-05
1.40399e-05
1.70243e-05
1.61313e-05
1.63195e-05
1.64952e-05
1.6659e-05
1.68115e-05
1.69533e-05
1.7085e-05
1.72071e-05
1.73204e-05
1.74254e-05
1.75227e-05
1.76129e-05
1.76967e-05
1.77747e-05
1.78473e-05
1.79154e-05
1.79793e-05
1.80396e-05
1.8097e-05
1.81518e-05
1.82045e-05
1.82556e-05
1.83054e-05
1.8354e-05
1.84015e-05
1.84479e-05
1.84928e-05
1.85363e-05
1.85851e-05
1.86733e-05
1.87058e-05
1.8736e-05
1.87714e-05
1.88142e-05
1.88674e-05
1.89353e-05
1.90237e-05
1.91377e-05
1.9276e-05
1.9422e-05
1.9545e-05
1.96203e-05
1.96504e-05
1.96578e-05
1.96535e-05
1.96128e-05
1.94753e-05
1.91839e-05
1.87483e-05
1.82426e-05
1.77703e-05
1.77406e-05
1.94965e-05
2.00087e-05
1.83609e-05
1.83756e-05
1.9539e-05
1.99464e-05
1.90605e-05
1.83508e-05
1.79918e-05
1.77153e-05
1.73928e-05
1.70668e-05
1.8656e-05
1.89969e-05
1.71614e-05
1.72617e-05
1.75754e-05
1.77665e-05
1.79563e-05
1.81692e-05
1.84091e-05
1.86494e-05
1.88352e-05
1.89226e-05
1.89121e-05
1.88379e-05
1.87369e-05
1.86312e-05
1.85291e-05
1.84311e-05
1.83357e-05
1.8241e-05
1.81456e-05
1.80481e-05
1.79475e-05
1.78429e-05
1.77334e-05
1.76182e-05
1.74965e-05
1.73675e-05
1.72304e-05
1.70844e-05
1.69286e-05
1.67623e-05
1.65845e-05
1.63942e-05
1.40655e-05
1.70173e-05
1.61253e-05
1.63136e-05
1.64895e-05
1.66534e-05
1.68061e-05
1.6948e-05
1.70799e-05
1.72022e-05
1.73156e-05
1.74208e-05
1.75182e-05
1.76086e-05
1.76926e-05
1.77706e-05
1.78435e-05
1.79116e-05
1.79757e-05
1.80361e-05
1.80936e-05
1.81485e-05
1.82014e-05
1.82526e-05
1.83025e-05
1.83512e-05
1.83988e-05
1.84452e-05
1.84901e-05
1.85337e-05
1.85825e-05
1.86712e-05
1.87037e-05
1.87338e-05
1.87692e-05
1.8812e-05
1.88651e-05
1.89327e-05
1.90203e-05
1.91323e-05
1.92663e-05
1.94057e-05
1.95215e-05
1.95914e-05
1.96188e-05
1.96245e-05
1.96179e-05
1.95756e-05
1.94406e-05
1.91577e-05
1.8735e-05
1.82447e-05
1.78095e-05
1.78319e-05
1.95381e-05
2.00891e-05
1.85424e-05
1.84023e-05
1.94102e-05
1.98765e-05
1.91145e-05
1.83835e-05
1.79936e-05
1.77123e-05
1.73917e-05
1.70697e-05
1.85719e-05
1.89848e-05
1.72198e-05
1.72682e-05
1.75822e-05
1.77787e-05
1.79707e-05
1.81853e-05
1.84251e-05
1.86618e-05
1.88425e-05
1.8927e-05
1.89169e-05
1.88451e-05
1.87466e-05
1.86427e-05
1.85416e-05
1.84444e-05
1.83495e-05
1.82553e-05
1.81603e-05
1.80632e-05
1.7963e-05
1.78589e-05
1.77498e-05
1.76352e-05
1.7514e-05
1.73855e-05
1.72489e-05
1.71034e-05
1.69482e-05
1.67823e-05
1.6605e-05
1.64152e-05
1.40923e-05
1.701e-05
1.61191e-05
1.63075e-05
1.64835e-05
1.66476e-05
1.68005e-05
1.69426e-05
1.70745e-05
1.7197e-05
1.73106e-05
1.74159e-05
1.75135e-05
1.76041e-05
1.76882e-05
1.77664e-05
1.78394e-05
1.79077e-05
1.79719e-05
1.80325e-05
1.80901e-05
1.81451e-05
1.81981e-05
1.82494e-05
1.82994e-05
1.83481e-05
1.83958e-05
1.84422e-05
1.84872e-05
1.85308e-05
1.85797e-05
1.86688e-05
1.87012e-05
1.87313e-05
1.87666e-05
1.88093e-05
1.88622e-05
1.89294e-05
1.90161e-05
1.91259e-05
1.92557e-05
1.93887e-05
1.94974e-05
1.95621e-05
1.95867e-05
1.95903e-05
1.95813e-05
1.95371e-05
1.9403e-05
1.9125e-05
1.8711e-05
1.82368e-05
1.78495e-05
1.79511e-05
1.96184e-05
2.01441e-05
1.86941e-05
1.84448e-05
1.93191e-05
1.981e-05
1.91458e-05
1.84056e-05
1.79963e-05
1.77105e-05
1.73916e-05
1.70741e-05
1.84979e-05
1.89731e-05
1.72662e-05
1.72547e-05
1.75798e-05
1.7789e-05
1.79836e-05
1.82001e-05
1.84398e-05
1.86732e-05
1.88495e-05
1.89313e-05
1.89218e-05
1.88523e-05
1.87562e-05
1.86541e-05
1.85542e-05
1.84577e-05
1.83634e-05
1.82697e-05
1.81752e-05
1.80785e-05
1.79788e-05
1.78752e-05
1.77667e-05
1.76525e-05
1.75318e-05
1.74039e-05
1.72679e-05
1.71229e-05
1.69683e-05
1.6803e-05
1.66263e-05
1.6437e-05
1.41203e-05
1.70024e-05
1.61126e-05
1.63012e-05
1.64773e-05
1.66416e-05
1.67946e-05
1.69368e-05
1.7069e-05
1.71917e-05
1.73054e-05
1.74109e-05
1.75087e-05
1.75994e-05
1.76836e-05
1.7762e-05
1.78351e-05
1.79035e-05
1.79679e-05
1.80286e-05
1.80863e-05
1.81415e-05
1.81946e-05
1.8246e-05
1.8296e-05
1.83449e-05
1.83926e-05
1.84391e-05
1.84841e-05
1.85277e-05
1.85766e-05
1.86661e-05
1.86985e-05
1.87284e-05
1.87636e-05
1.88061e-05
1.88588e-05
1.89255e-05
1.90111e-05
1.91186e-05
1.92442e-05
1.93709e-05
1.94727e-05
1.95322e-05
1.95538e-05
1.95551e-05
1.95432e-05
1.94963e-05
1.93609e-05
1.90827e-05
1.86718e-05
1.82153e-05
1.78908e-05
1.81021e-05
1.96895e-05
2.01229e-05
1.88042e-05
1.84987e-05
1.92645e-05
1.97492e-05
1.9162e-05
1.84254e-05
1.80004e-05
1.77103e-05
1.7393e-05
1.7081e-05
1.84294e-05
1.89537e-05
1.73126e-05
1.7236e-05
1.75619e-05
1.7784e-05
1.79849e-05
1.82008e-05
1.84351e-05
1.86627e-05
1.8839e-05
1.89292e-05
1.89267e-05
1.88594e-05
1.87657e-05
1.86654e-05
1.85666e-05
1.84709e-05
1.83773e-05
1.82841e-05
1.81901e-05
1.8094e-05
1.79948e-05
1.78917e-05
1.77837e-05
1.767e-05
1.755e-05
1.74226e-05
1.72872e-05
1.71428e-05
1.69888e-05
1.68242e-05
1.66481e-05
1.64596e-05
1.41497e-05
1.69945e-05
1.61058e-05
1.62946e-05
1.64709e-05
1.66354e-05
1.67885e-05
1.69309e-05
1.70633e-05
1.71861e-05
1.73e-05
1.74056e-05
1.75036e-05
1.75944e-05
1.76789e-05
1.77574e-05
1.78307e-05
1.78992e-05
1.79637e-05
1.80246e-05
1.80824e-05
1.81377e-05
1.81909e-05
1.82424e-05
1.82926e-05
1.83415e-05
1.83892e-05
1.84357e-05
1.84808e-05
1.85244e-05
1.85733e-05
1.86632e-05
1.86954e-05
1.87252e-05
1.87602e-05
1.88024e-05
1.88548e-05
1.89209e-05
1.90054e-05
1.91106e-05
1.92319e-05
1.93523e-05
1.94475e-05
1.95018e-05
1.952e-05
1.95186e-05
1.95034e-05
1.94526e-05
1.93125e-05
1.90284e-05
1.86153e-05
1.81812e-05
1.79394e-05
1.82886e-05
1.97757e-05
2.00527e-05
1.88652e-05
1.85621e-05
1.92423e-05
1.96941e-05
1.91655e-05
1.84448e-05
1.80062e-05
1.77118e-05
1.73956e-05
1.70912e-05
1.83637e-05
1.89216e-05
1.73578e-05
1.72199e-05
1.75407e-05
1.77694e-05
1.79742e-05
1.81924e-05
1.84267e-05
1.86513e-05
1.88233e-05
1.89115e-05
1.89168e-05
1.88624e-05
1.87749e-05
1.86763e-05
1.85788e-05
1.8484e-05
1.8391e-05
1.82985e-05
1.8205e-05
1.81094e-05
1.80108e-05
1.79082e-05
1.78008e-05
1.76877e-05
1.75682e-05
1.74414e-05
1.73066e-05
1.71628e-05
1.70094e-05
1.68454e-05
1.667e-05
1.64823e-05
1.41796e-05
1.69864e-05
1.60989e-05
1.62878e-05
1.64643e-05
1.66289e-05
1.67822e-05
1.69248e-05
1.70573e-05
1.71803e-05
1.72944e-05
1.74002e-05
1.74983e-05
1.75893e-05
1.76739e-05
1.77526e-05
1.7826e-05
1.78947e-05
1.79593e-05
1.80204e-05
1.80783e-05
1.81338e-05
1.81871e-05
1.82387e-05
1.82889e-05
1.83379e-05
1.83857e-05
1.84322e-05
1.84772e-05
1.85208e-05
1.85697e-05
1.866e-05
1.8692e-05
1.87216e-05
1.87564e-05
1.87983e-05
1.88503e-05
1.89158e-05
1.8999e-05
1.91018e-05
1.92187e-05
1.93331e-05
1.94218e-05
1.94709e-05
1.94855e-05
1.94808e-05
1.94616e-05
1.94054e-05
1.92573e-05
1.89617e-05
1.85436e-05
1.81421e-05
1.80052e-05
1.85067e-05
1.98818e-05
1.99792e-05
1.89009e-05
1.86346e-05
1.92462e-05
1.96558e-05
1.91697e-05
1.84643e-05
1.80136e-05
1.77146e-05
1.73993e-05
1.71048e-05
1.83113e-05