/*--------------------------------*- C++ -*----------------------------------*\
  =========                 |
  \\      /  F ield         | OpenFOAM: The Open Source CFD Toolbox
   \\    /   O peration     | Website:  https://openfoam.org
    \\  /    A nd           | Version:  9
     \\/     M anipulation  |
\*---------------------------------------------------------------------------*/
FoamFile
{
    format      ascii;
    class       volVectorField;
    location    "0.17";
    object      U;
}
// * * * * * * * * * * * * * * * * * * * * * * * * * * * * * * * * * * * * * //

dimensions      [0 1 -1 0 0 0 0];

internalField   nonuniform List<vector> 
20000
(
(-2.67999e-05 0 -0.000478102)
(-2.4873e-05 0 -0.000886164)
(-2.43208e-05 0 -0.00135484)
(-2.42575e-05 0 -0.0018761)
(-2.43388e-05 0 -0.00242101)
(-2.4458e-05 0 -0.00297377)
(-2.45495e-05 0 -0.00352575)
(-2.45771e-05 0 -0.00407466)
(-2.45048e-05 0 -0.00462547)
(-2.42919e-05 0 -0.00519179)
(-2.38888e-05 0 -0.00579763)
(-2.32364e-05 0 -0.00647882)
(-2.2266e-05 0 -0.00728368)
(-2.08964e-05 0 -0.00827272)
(-1.90291e-05 0 -0.00951733)
(-1.65387e-05 0 -0.0110977)
(-1.32624e-05 0 -0.0131004)
(-8.98924e-06 0 -0.0156167)
(-3.44662e-06 0 -0.0187406)
(3.68563e-06 0 -0.0225682)
(1.27807e-05 0 -0.0271959)
(2.41818e-05 0 -0.0327157)
(3.80835e-05 0 -0.0392042)
(5.44065e-05 0 -0.0467021)
(7.25665e-05 0 -0.0551831)
(9.13923e-05 0 -0.0645203)
(0.000109391 0 -0.0744696)
(0.00012554 0 -0.0847032)
(0.000140466 0 -0.0949178)
(0.000157241 0 -0.104998)
(0.00018217 0 -0.115991)
(0.000222054 0 -0.128018)
(0.000282907 0 -0.140695)
(0.000373344 0 -0.154713)
(0.000509843 0 -0.170668)
(0.000730132 0 -0.189345)
(0.00112238 0 -0.21242)
(0.00188712 0 -0.243895)
(0.00345103 0 -0.292727)
(0.00652549 0 -0.376396)
(0.0112554 0 -0.518441)
(0.013851 0 -0.712368)
(0.00848011 0 -0.854173)
(0.00225714 0 -0.855655)
(0.00607771 0 -0.83724)
(0.0132564 0 -0.952902)
(-0.00592381 0 -1.11891)
(-0.0309995 0 -0.863151)
(-0.0161195 0 -0.265851)
(0.00629478 0 0.191734)
(0.0229596 0 0.556084)
(0.0633164 0 0.916215)
(0.0892665 0 1.49724)
(0.338602 0 -2.68207)
(-0.314301 0 -2.46837)
(-0.0641441 0 1.58721)
(-0.00323695 0 0.739286)
(-0.0536118 0 -2.59128)
(-0.0766329 0 -0.0465982)
(-0.00320765 0 0.710471)
(-0.00151288 0 0.662647)
(0.00915524 0 0.722962)
(0.0207505 0 0.892058)
(0.0500262 0 1.1516)
(0.0735928 0 1.57553)
(0.250514 0 -2.5949)
(-0.21531 0 -2.1617)
(-0.0612268 0 1.5871)
(-0.0484055 0 1.13964)
(-0.0231998 0 0.8564)
(-0.015043 0 0.650885)
(-0.0103831 0 0.494407)
(-0.00723706 0 0.352553)
(-0.00433644 0 0.203303)
(-0.000482835 0 0.0207909)
(0.00373384 0 -0.202581)
(0.00395947 0 -0.395998)
(-0.000456159 0 -0.447169)
(-0.00346963 0 -0.385018)
(-0.00351323 0 -0.306907)
(-0.00267619 0 -0.24947)
(-0.00192807 0 -0.210298)
(-0.00141282 0 -0.181697)
(-0.00107032 0 -0.158928)
(-0.000834761 0 -0.139699)
(-0.000664318 0 -0.122926)
(-0.000535157 0 -0.108047)
(-0.000433773 0 -0.0947259)
(-0.000352218 0 -0.082736)
(-0.000285537 0 -0.0719059)
(-0.000230454 0 -0.0620987)
(-0.000184685 0 -0.0531997)
(-0.000146587 0 -0.0451081)
(-0.000114942 0 -0.037731)
(-8.88418e-05 0 -0.0309788)
(-6.76342e-05 0 -0.0247631)
(-5.099e-05 0 -0.0189942)
(-3.9222e-05 0 -0.0135691)
(-3.27251e-05 0 -0.00833508)
(-2.61344e-05 0 -0.0030925)
(-0.000154292 0 -0.000490275)
(-0.000147538 0 -0.00089786)
(-0.000145474 0 -0.00136414)
(-0.000144622 0 -0.00188629)
(-0.000144178 0 -0.0024338)
(-0.000143965 0 -0.00299004)
(-0.000143818 0 -0.00354605)
(-0.000143588 0 -0.00409947)
(-0.000143127 0 -0.00465523)
(-0.000142278 0 -0.00522693)
(-0.000140854 0 -0.00583856)
(-0.000138643 0 -0.00652592)
(-0.000135405 0 -0.00733729)
(-0.000130873 0 -0.00833317)
(-0.000124738 0 -0.00958494)
(-0.000116635 0 -0.0111728)
(-0.000106111 0 -0.0131834)
(-9.26028e-05 0 -0.015708)
(-7.54111e-05 0 -0.0188408)
(-5.37259e-05 0 -0.0226778)
(-2.66336e-05 0 -0.0273156)
(6.70722e-06 0 -0.0328458)
(4.68504e-05 0 -0.039345)
(9.36943e-05 0 -0.0468533)
(0.000146096 0 -0.0553437)
(0.000201846 0 -0.0646892)
(0.000258258 0 -0.0746459)
(0.000313988 0 -0.0848873)
(0.000371659 0 -0.0951123)
(0.000439911 0 -0.105206)
(0.000540168 0 -0.116218)
(0.000695208 0 -0.128267)
(0.000925135 0 -0.140968)
(0.00126464 0 -0.155014)
(0.00177595 0 -0.171014)
(0.00258272 0 -0.189779)
(0.00393464 0 -0.213053)
(0.00631453 0 -0.244984)
(0.0105555 0 -0.294766)
(0.0176887 0 -0.37993)
(0.0272269 0 -0.522601)
(0.0316346 0 -0.712602)
(0.0211782 0 -0.849762)
(0.00908404 0 -0.85682)
(0.0132763 0 -0.845058)
(0.0225201 0 -0.953497)
(-0.0119297 0 -1.09769)
(-0.0578336 0 -0.859358)
(-0.0314363 0 -0.284167)
(0.0182363 0 0.175794)
(0.0584811 0 0.53634)
(0.146103 0 0.87092)
(0.183216 0 1.3646)
(0.44034 0 -2.35635)
(-0.434198 0 -2.23365)
(-0.203809 0 1.50912)
(0.00334474 0 0.654636)
(-0.0591176 0 -2.41802)
(-0.2066 0 -0.118921)
(-0.0169087 0 0.689768)
(-0.00872911 0 0.651253)
(0.0253141 0 0.71239)
(0.0546112 0 0.876156)
(0.120221 0 1.11722)
(0.149106 0 1.47875)
(0.32824 0 -2.34208)
(-0.401359 0 -1.97635)
(-0.148614 0 1.52142)
(-0.131205 0 1.10812)
(-0.0641279 0 0.843364)
(-0.0435147 0 0.643136)
(-0.0299427 0 0.489527)
(-0.0205091 0 0.348843)
(-0.0123724 0 0.199234)
(-0.00343289 0 0.0155133)
(0.00496305 0 -0.20595)
(0.00566146 0 -0.392637)
(-0.00153528 0 -0.442017)
(-0.00661576 0 -0.383858)
(-0.00710669 0 -0.308213)
(-0.00599431 0 -0.251135)
(-0.00474515 0 -0.211659)
(-0.00371442 0 -0.182717)
(-0.00292263 0 -0.159699)
(-0.00231938 0 -0.140302)
(-0.00185371 0 -0.123415)
(-0.00148756 0 -0.108454)
(-0.00119475 0 -0.0950719)
(-0.00095742 0 -0.0830337)
(-0.000763234 0 -0.0721639)
(-0.000603425 0 -0.062323)
(-0.000471662 0 -0.0533947)
(-0.000363327 0 -0.045277)
(-0.000275058 0 -0.0378759)
(-0.000204453 0 -0.0311009)
(-0.000149805 0 -0.0248628)
(-0.000110185 0 -0.01907)
(-8.61587e-05 0 -0.0136153)
(-7.86659e-05 0 -0.00835385)
(-7.59459e-05 0 -0.00313108)
(-0.000344562 0 -0.000507071)
(-0.000335543 0 -0.000910683)
(-0.000333023 0 -0.00136945)
(-0.000331334 0 -0.00188735)
(-0.000330064 0 -0.00243246)
(-0.000329149 0 -0.00298713)
(-0.000328364 0 -0.00354207)
(-0.000327476 0 -0.00409483)
(-0.000326257 0 -0.00465031)
(-0.000324445 0 -0.00522212)
(-0.000321732 0 -0.00583429)
(-0.000317757 0 -0.00652263)
(-0.000312109 0 -0.00733546)
(-0.000304325 0 -0.00833328)
(-0.000293879 0 -0.00958751)
(-0.000280155 0 -0.0111784)
(-0.000262416 0 -0.0131928)
(-0.000239768 0 -0.0157219)
(-0.000211135 0 -0.01886)
(-0.000175281 0 -0.0227032)
(-0.000130852 0 -0.0273477)
(-7.6616e-05 0 -0.032885)
(-1.16787e-05 0 -0.0393907)
(6.40564e-05 0 -0.0469038)
(0.000149363 0 -0.0553963)
(0.000241782 0 -0.06474)
(0.000338555 0 -0.0746921)
(0.000439068 0 -0.0849296)
(0.000548451 0 -0.0951567)
(0.000680533 0 -0.105264)
(0.000873702 0 -0.116305)
(0.0011682 0 -0.128408)
(0.00159793 0 -0.141193)
(0.0022262 0 -0.155365)
(0.00316158 0 -0.171573)
(0.00460212 0 -0.190704)
(0.00691157 0 -0.214651)
(0.010723 0 -0.2478)
(0.0169852 0 -0.299566)
(0.0265847 0 -0.386941)
(0.0382823 0 -0.528797)
(0.042828 0 -0.709911)
(0.0298728 0 -0.83835)
(0.0149117 0 -0.852865)
(0.016773 0 -0.849991)
(0.0234214 0 -0.944928)
(-0.0153482 0 -1.05927)
(-0.0676463 0 -0.849716)
(-0.0385512 0 -0.318672)
(0.0267632 0 0.137964)
(0.078137 0 0.494487)
(0.182375 0 0.805712)
(0.238418 0 1.2348)
(0.418561 0 -2.09568)
(-0.461149 0 -2.01257)
(-0.276067 0 1.37803)
(-0.00789043 0 0.509813)
(-0.0657939 0 -2.24331)
(-0.26086 0 -0.230392)
(-0.0240945 0 0.643721)
(-0.0168213 0 0.624186)
(0.0380226 0 0.68806)
(0.0759194 0 0.844674)
(0.156951 0 1.0669)
(0.203626 0 1.38502)
(0.338392 0 -2.09716)
(-0.46583 0 -1.79436)
(-0.200561 0 1.4276)
(-0.184571 0 1.05259)
(-0.0914567 0 0.815874)
(-0.0665992 0 0.625146)
(-0.0459059 0 0.477397)
(-0.0316462 0 0.338948)
(-0.0195944 0 0.188956)
(-0.00700601 0 0.00425241)
(0.00399697 0 -0.212527)
(0.00511865 0 -0.387672)
(-0.00269493 0 -0.433064)
(-0.00828316 0 -0.379973)
(-0.00903097 0 -0.30857)
(-0.00793361 0 -0.252905)
(-0.00652771 0 -0.213504)
(-0.00526405 0 -0.184284)
(-0.00422406 0 -0.16097)
(-0.00338617 0 -0.141333)
(-0.00271118 0 -0.124263)
(-0.0021642 0 -0.109162)
(-0.00171798 0 -0.0956715)
(-0.00135187 0 -0.0835462)
(-0.00105031 0 -0.0726047)
(-0.000801552 0 -0.0627031)
(-0.000596716 0 -0.0537218)
(-0.000429088 0 -0.0455562)
(-0.000293633 0 -0.0381104)
(-0.000186642 0 -0.031292)
(-0.000105399 0 -0.0250098)
(-4.7931e-05 0 -0.0191696)
(-1.32049e-05 0 -0.0136611)
(-3.23931e-06 0 -0.00834789)
(-5.90192e-06 0 -0.00312686)
(-0.000594092 0 -0.0005225)
(-0.000586106 0 -0.000923218)
(-0.00058434 0 -0.00137559)
(-0.000582493 0 -0.00188905)
(-0.000580872 0 -0.00243129)
(-0.000579496 0 -0.00298391)
(-0.000578044 0 -0.00353736)
(-0.000576239 0 -0.00408907)
(-0.000573811 0 -0.00464393)
(-0.000570437 0 -0.00521559)
(-0.000565729 0 -0.0058281)
(-0.000559233 0 -0.00651729)
(-0.000550424 0 -0.0073315)
(-0.000538702 0 -0.00833129)
(-0.000523379 0 -0.00958812)
(-0.000503644 0 -0.0111823)
(-0.000478525 0 -0.0132008)
(-0.00044685 0 -0.0157349)
(-0.000407226 0 -0.018879)
(-0.000358057 0 -0.0227292)
(-0.000297613 0 -0.0273815)
(-0.000224278 0 -0.032927)
(-0.000136823 0 -0.0394402)
(-3.48863e-05 0 -0.046959)
(8.06189e-05 0 -0.0554539)
(0.000207584 0 -0.0647964)
(0.000343921 0 -0.074745)
(0.000490614 0 -0.0849812)
(0.000655877 0 -0.0952164)
(0.000858377 0 -0.105349)
(0.0011536 0 -0.116439)
(0.00159922 0 -0.128633)
(0.00224062 0 -0.141556)
(0.00316643 0 -0.15594)
(0.00452356 0 -0.172485)
(0.00656348 0 -0.192179)
(0.00971741 0 -0.217082)
(0.0146826 0 -0.2518)
(0.0223985 0 -0.305808)
(0.0334706 0 -0.39511)
(0.0459316 0 -0.534902)
(0.0497536 0 -0.706014)
(0.0353269 0 -0.82584)
(0.018847 0 -0.846761)
(0.0178747 0 -0.851238)
(0.0205296 0 -0.932612)
(-0.0187363 0 -1.02205)
(-0.0717308 0 -0.83928)
(-0.0442733 0 -0.357075)
(0.0296149 0 0.0897583)
(0.0849287 0 0.442212)
(0.191154 0 0.740512)
(0.264171 0 1.13648)
(0.377282 0 -1.84782)
(-0.425344 0 -1.82711)
(-0.295309 0 1.25936)
(-0.00862359 0 0.37821)
(-0.081361 0 -2.08808)
(-0.28235 0 -0.32329)
(-0.0250874 0 0.585534)
(-0.0221528 0 0.587503)
(0.0487663 0 0.654403)
(0.0883338 0 0.804537)
(0.173732 0 1.01399)
(0.237073 0 1.30633)
(0.325243 0 -1.85771)
(-0.456586 0 -1.64082)
(-0.223598 0 1.33622)
(-0.207665 0 0.995168)
(-0.105454 0 0.781245)
(-0.0826101 0 0.601483)
(-0.0569598 0 0.460927)
(-0.0398991 0 0.325243)
(-0.0251182 0 0.175363)
(-0.0100652 0 -0.00917924)
(0.00239117 0 -0.21987)
(0.00375408 0 -0.382994)
(-0.00395137 0 -0.42425)
(-0.00942297 0 -0.375699)
(-0.0101995 0 -0.308559)
(-0.00906694 0 -0.254591)
(-0.00754387 0 -0.215494)
(-0.00613263 0 -0.186119)
(-0.00493945 0 -0.162556)
(-0.00395253 0 -0.142685)
(-0.0031384 0 -0.125415)
(-0.00246545 0 -0.11015)
(-0.0019077 0 -0.0965225)
(-0.00144448 0 -0.0842828)
(-0.00105946 0 -0.0732436)
(-0.000739805 0 -0.0632568)
(-0.000475412 0 -0.0541994)
(-0.000258322 0 -0.0459643)
(-8.22972e-05 0 -0.0384532)
(5.75301e-05 0 -0.0315716)
(0.00016499 0 -0.0252263)
(0.000243161 0 -0.0193212)
(0.000294263 0 -0.0137454)
(0.000317528 0 -0.00837229)
(0.000329759 0 -0.00312426)
(-0.000912593 0 -0.000532341)
(-0.000906121 0 -0.000933187)
(-0.000905469 0 -0.00138227)
(-0.000903775 0 -0.00189345)
(-0.00090208 0 -0.00243466)
(-0.000900374 0 -0.00298714)
(-0.000898248 0 -0.00354107)
(-0.000895392 0 -0.00409382)
(-0.000891496 0 -0.00465024)
(-0.000886188 0 -0.00522401)
(-0.00087903 0 -0.00583923)
(-0.000869508 0 -0.00653176)
(-0.000857028 0 -0.00734997)
(-0.000840908 0 -0.00835445)
(-0.000820349 0 -0.00961673)
(-0.000794401 0 -0.0112173)
(-0.000761911 0 -0.013243)
(-0.000721485 0 -0.0157856)
(-0.000671458 0 -0.0189393)
(-0.000609933 0 -0.0228004)
(-0.000534857 0 -0.0274646)
(-0.000444264 0 -0.0330225)
(-0.000336583 0 -0.0395476)
(-0.000211105 0 -0.0470768)
(-6.82846e-05 0 -0.0555794)
(9.05348e-05 0 -0.0649266)
(0.000264545 0 -0.0748791)
(0.00045685 0 -0.0851235)
(0.00067913 0 -0.095379)
(0.000954479 0 -0.105552)
(0.00135448 0 -0.116713)
(0.00195305 0 -0.129031)
(0.00280376 0 -0.142136)
(0.00401516 0 -0.156793)
(0.00576247 0 -0.173758)
(0.00833105 0 -0.194123)
(0.0121844 0 -0.220098)
(0.0180263 0 -0.256449)
(0.0267071 0 -0.312563)
(0.0384722 0 -0.403271)
(0.0507045 0 -0.540348)
(0.0533342 0 -0.701994)
(0.0382117 0 -0.814377)
(0.0210482 0 -0.840189)
(0.0171532 0 -0.850122)
(0.0152914 0 -0.91993)
(-0.0224165 0 -0.990431)
(-0.0727274 0 -0.829402)
(-0.0498674 0 -0.392654)
(0.0269843 0 0.0411368)
(0.0830549 0 0.389493)
(0.185003 0 0.681786)
(0.267316 0 1.06599)
(0.336228 0 -1.61411)
(-0.357041 0 -1.64675)
(-0.276266 0 1.16295)
(-0.00160093 0 0.276657)
(-0.101168 0 -1.9428)
(-0.289625 0 -0.400803)
(-0.0242126 0 0.524312)
(-0.0254164 0 0.548427)
(0.0573995 0 0.617561)
(0.0944647 0 0.762057)
(0.179341 0 0.963358)
(0.249671 0 1.24717)
(0.304093 0 -1.62044)
(-0.410811 0 -1.48255)
(-0.225004 0 1.26183)
(-0.207154 0 0.947005)
(-0.109711 0 0.745855)
(-0.0913043 0 0.576659)
(-0.0628258 0 0.442775)
(-0.044889 0 0.309682)
(-0.0284363 0 0.16022)
(-0.0120598 0 -0.0233743)
(0.000780416 0 -0.227262)
(0.00220283 0 -0.379252)
(-0.00489817 0 -0.416879)
(-0.00988056 0 -0.372155)
(-0.0105948 0 -0.308754)
(-0.00945506 0 -0.256349)
(-0.00787749 0 -0.217572)
(-0.00638323 0 -0.188088)
(-0.00509503 0 -0.164311)
(-0.00401091 0 -0.144223)
(-0.00310327 0 -0.126759)
(-0.00234349 0 -0.111324)
(-0.00170689 0 -0.0975503)
(-0.00117326 0 -0.0851824)
(-0.000726247 0 -0.0740301)
(-0.00035268 0 -0.0639424)
(-4.1908e-05 0 -0.0547937)
(0.000214731 0 -0.0464745)
(0.000424242 0 -0.0388846)
(0.000592299 0 -0.0319281)
(0.000723605 0 -0.0255101)
(0.00082226 0 -0.0195339)
(0.000891528 0 -0.0138897)
(0.000931547 0 -0.00845464)
(0.00096013 0 -0.00315588)
(-0.00130848 0 -0.000538772)
(-0.00130264 0 -0.000940675)
(-0.0013028 0 -0.00138864)
(-0.0013011 0 -0.00189907)
(-0.00129919 0 -0.00244055)
(-0.00129702 0 -0.00299422)
(-0.00129415 0 -0.00355007)
(-0.00129021 0 -0.00410537)
(-0.00128484 0 -0.00466495)
(-0.00127763 0 -0.00524252)
(-0.00126809 0 -0.00586222)
(-0.00125564 0 -0.00655996)
(-0.00123964 0 -0.00738415)
(-0.00121932 0 -0.00839544)
(-0.0011938 0 -0.00966547)
(-0.00116201 0 -0.0112748)
(-0.00112265 0 -0.0133106)
(-0.00107414 0 -0.0158645)
(-0.0010146 0 -0.0190311)
(-0.000941856 0 -0.0229065)
(-0.000853587 0 -0.0275863)
(-0.0007475 0 -0.0331604)
(-0.000621671 0 -0.0397018)
(-0.000474957 0 -0.0472459)
(-0.000307208 0 -0.0557612)
(-0.000118883 0 -0.0651191)
(9.07029e-05 0 -0.0750827)
(0.000326916 0 -0.0853443)
(0.000604726 0 -0.0956316)
(0.000951099 0 -0.105859)
(0.00145225 0 -0.117114)
(0.00219629 0 -0.129585)
(0.00324159 0 -0.142913)
(0.00471087 0 -0.157894)
(0.00679775 0 -0.175346)
(0.00980426 0 -0.196454)
(0.0141977 0 -0.22356)
(0.0206423 0 -0.261534)
(0.0298398 0 -0.319563)
(0.041657 0 -0.411204)
(0.0529934 0 -0.545099)
(0.0542764 0 -0.697752)
(0.0390117 0 -0.80346)
(0.0216106 0 -0.832974)
(0.0149423 0 -0.847)
(0.00885592 0 -0.907188)
(-0.026223 0 -0.962381)
(-0.0720131 0 -0.81969)
(-0.0551768 0 -0.424515)
(0.019916 0 -0.00523694)
(0.0751827 0 0.338672)
(0.168146 0 0.628236)
(0.254535 0 1.00881)
(0.301456 0 -1.40634)
(-0.279513 0 -1.47218)
(-0.241474 0 1.08505)
(0.0103463 0 0.203327)
(-0.116588 0 -1.80366)
(-0.289579 0 -0.471886)
(-0.0212835 0 0.460367)
(-0.0264006 0 0.509043)
(0.0643901 0 0.58054)
(0.096608 0 0.720289)
(0.17827 0 0.916304)
(0.24746 0 1.20063)
(0.284105 0 -1.39619)
(-0.350719 0 -1.32146)
(-0.213073 0 1.20522)
(-0.19188 0 0.909131)
(-0.107766 0 0.713307)
(-0.093539 0 0.553322)
(-0.0641813 0 0.424492)
(-0.0467898 0 0.293355)
(-0.0295329 0 0.14427)
(-0.012738 0 -0.0379192)
(-0.000191934 0 -0.234605)
(0.00119427 0 -0.37623)
(-0.00509448 0 -0.410578)
(-0.00949832 0 -0.369131)
(-0.0101614 0 -0.309082)
(-0.00907414 0 -0.258147)
(-0.00751841 0 -0.219697)
(-0.00601051 0 -0.190123)
(-0.00468424 0 -0.16615)
(-0.0035497 0 -0.145857)
(-0.00258751 0 -0.128205)
(-0.00177357 0 -0.112602)
(-0.00108558 0 -0.0986792)
(-0.000504581 0 -0.0861783)
(-1.47938e-05 0 -0.0749065)
(0.000396793 0 -0.0647106)
(0.000740935 0 -0.0554629)
(0.00102655 0 -0.0470522)
(0.00126098 0 -0.0393765)
(0.00145034 0 -0.0323387)
(0.00159983 0 -0.0258432)
(0.00171424 0 -0.0197931)
(0.00179738 0 -0.0140791)
(0.00184913 0 -0.00857708)
(0.00188711 0 -0.00320734)
(-0.00178364 0 -0.000543442)
(-0.00177778 0 -0.00094663)
(-0.00177843 0 -0.00139433)
(-0.00177656 0 -0.00190459)
(-0.00177428 0 -0.00244673)
(-0.00177158 0 -0.00300197)
(-0.00176795 0 -0.00356019)
(-0.00176301 0 -0.00411854)
(-0.00175634 0 -0.00468184)
(-0.00174747 0 -0.00526382)
(-0.00173587 0 -0.00588862)
(-0.0017209 0 -0.00659223)
(-0.00170186 0 -0.00742311)
(-0.00167791 0 -0.00844197)
(-0.00164808 0 -0.00972057)
(-0.00161119 0 -0.0113396)
(-0.00156583 0 -0.0133864)
(-0.00151024 0 -0.0159529)
(-0.00144235 0 -0.0191336)
(-0.0013598 0 -0.0230248)
(-0.00125998 0 -0.0277219)
(-0.00114031 0 -0.0333143)
(-0.000998514 0 -0.039874)
(-0.000832999 0 -0.0474355)
(-0.000642953 0 -0.0559667)
(-0.000427864 0 -0.0653393)
(-0.000185736 0 -0.0753193)
(9.08871e-05 0 -0.0856051)
(0.00041999 0 -0.0959337)
(0.000831608 0 -0.106229)
(0.00142465 0 -0.117595)
(0.0022989 0 -0.130245)
(0.00351413 0 -0.14383)
(0.00520166 0 -0.159179)
(0.0075642 0 -0.177165)
(0.0109052 0 -0.199064)
(0.0156731 0 -0.227327)
(0.0224614 0 -0.266876)
(0.0317974 0 -0.326599)
(0.0432097 0 -0.418707)
(0.053297 0 -0.548994)
(0.0532523 0 -0.693002)
(0.0381036 0 -0.792528)
(0.0206496 0 -0.824742)
(0.0115529 0 -0.841741)
(0.00208323 0 -0.893905)
(-0.0302911 0 -0.936649)
(-0.0713383 0 -0.809885)
(-0.0606107 0 -0.452767)
(0.00915487 0 -0.0491798)
(0.0628441 0 0.289909)
(0.143446 0 0.579004)
(0.230264 0 0.957594)
(0.271359 0 -1.23204)
(-0.207513 0 -1.31553)
(-0.205434 0 1.01889)
(0.0242181 0 0.153617)
(-0.12168 0 -1.67154)
(-0.281819 0 -0.539884)
(-0.0157333 0 0.39321)
(-0.0244236 0 0.470365)
(0.0698642 0 0.544581)
(0.096125 0 0.680404)
(0.172433 0 0.87352)
(0.236068 0 1.16152)
(0.26672 0 -1.19811)
(-0.288709 0 -1.16696)
(-0.193069 0 1.16139)
(-0.16887 0 0.879822)
(-0.10172 0 0.685168)
(-0.0905092 0 0.53255)
(-0.061971 0 0.406975)
(-0.0459586 0 0.27711)
(-0.0285488 0 0.128219)
(-0.0120027 0 -0.0522497)
(-0.000135502 0 -0.241599)
(0.00112203 0 -0.373599)
(-0.00441078 0 -0.404975)
(-0.00831966 0 -0.366374)
(-0.00896768 0 -0.309387)
(-0.00796719 0 -0.259886)
(-0.0064809 0 -0.221803)
(-0.00501004 0 -0.192177)
(-0.00369363 0 -0.168033)
(-0.00255139 0 -0.147549)
(-0.0015713 0 -0.129717)
(-0.000734057 0 -0.11395)
(-2.056e-05 0 -0.0998782)
(0.00058613 0 -0.0872431)
(0.00110058 0 -0.0758492)
(0.00153511 0 -0.0655415)
(0.00190012 0 -0.0561906)
(0.00220435 0 -0.0476836)
(0.00245516 0 -0.0399175)
(0.00265875 0 -0.032794)
(0.00282058 0 -0.0262167)
(0.00294573 0 -0.0200888)
(0.00303818 0 -0.0143006)
(0.00309666 0 -0.00872361)
(0.00314013 0 -0.00326919)
(-0.0023377 0 -0.000547465)
(-0.00233153 0 -0.000952105)
(-0.0023325 0 -0.0014001)
(-0.00233038 0 -0.0019106)
(-0.00232766 0 -0.00245361)
(-0.00232442 0 -0.00301058)
(-0.0023201 0 -0.00357134)
(-0.00231428 0 -0.00413296)
(-0.00230651 0 -0.00470022)
(-0.00229628 0 -0.00528686)
(-0.00228299 0 -0.00591708)
(-0.00226598 0 -0.00662688)
(-0.00224448 0 -0.00746479)
(-0.00221758 0 -0.00849162)
(-0.00218423 0 -0.00977921)
(-0.00214316 0 -0.0114085)
(-0.00209284 0 -0.0134669)
(-0.00203138 0 -0.0160465)
(-0.00195657 0 -0.0192423)
(-0.00186583 0 -0.0231502)
(-0.00175635 0 -0.0278656)
(-0.00162527 0 -0.0334775)
(-0.00147 0 -0.0400571)
(-0.00128852 0 -0.047638)
(-0.0010794 0 -0.0561874)
(-0.000841233 0 -0.0655779)
(-0.000570671 0 -0.0755785)
(-0.00025881 0 -0.0858943)
(0.000114698 0 -0.0962718)
(0.000582608 0 -0.106645)
(0.0012539 0 -0.118137)
(0.00223701 0 -0.130987)
(0.00359031 0 -0.144854)
(0.00544849 0 -0.160599)
(0.00801505 0 -0.179151)
(0.011583 0 -0.201862)
(0.0165664 0 -0.231271)
(0.0234744 0 -0.272298)
(0.0326626 0 -0.333453)
(0.043387 0 -0.425585)
(0.0520903 0 -0.551968)
(0.0508086 0 -0.68777)
(0.0358444 0 -0.781552)
(0.0184018 0 -0.815559)
(0.00730146 0 -0.834597)
(-0.00475234 0 -0.880069)
(-0.0348925 0 -0.913091)
(-0.0718 0 -0.79983)
(-0.0667438 0 -0.476847)
(-0.00476059 0 -0.0896663)
(0.0470705 0 0.244182)
(0.113454 0 0.535292)
(0.197438 0 0.90891)
(0.241504 0 -1.09544)
(-0.148443 0 -1.17875)
(-0.17279 0 0.962158)
(0.037537 0 0.123005)
(-0.115304 0 -1.54902)
(-0.264963 0 -0.602455)
(-0.0084068 0 0.32449)
(-0.0192505 0 0.433618)
(0.0738118 0 0.510659)
(0.0940084 0 0.643496)
(0.162614 0 0.83589)
(0.219563 0 1.1266)
(0.249866 0 -1.03093)
(-0.231752 0 -1.02419)
(-0.168627 0 1.12683)
(-0.143109 0 0.857623)
(-0.0927848 0 0.661822)
(-0.0834898 0 0.514508)
(-0.0570672 0 0.39067)
(-0.0427929 0 0.261504)
(-0.0257307 0 0.112583)
(-0.00991996 0 -0.0659559)
(0.00104036 0 -0.248057)
(0.00205651 0 -0.371245)
(-0.00288796 0 -0.399935)
(-0.00642773 0 -0.363798)
(-0.00710328 0 -0.309593)
(-0.00621387 0 -0.26148)
(-0.00482618 0 -0.223803)
(-0.00342401 0 -0.194171)
(-0.00215003 0 -0.169889)
(-0.00103161 0 -0.149239)
(-6.24312e-05 0 -0.131241)
(0.000772631 0 -0.115319)
(0.00148956 0 -0.101106)
(0.00210311 0 -0.0883395)
(0.0026263 0 -0.0768251)
(0.00307043 0 -0.0664057)
(0.00344517 0 -0.0569507)
(0.00375879 0 -0.0483462)
(0.00401836 0 -0.0404878)
(0.00423 0 -0.0332763)
(0.00439915 0 -0.0266151)
(0.00453099 0 -0.0204073)
(0.00462944 0 -0.0145417)
(0.00469205 0 -0.00888425)
(0.0047391 0 -0.00333725)
(-0.00296993 0 -0.00055124)
(-0.00296338 0 -0.000957588)
(-0.00296464 0 -0.0014064)
(-0.00296227 0 -0.00191761)
(-0.00295916 0 -0.00246182)
(-0.00295544 0 -0.00302078)
(-0.00295053 0 -0.00358433)
(-0.00294399 0 -0.00414951)
(-0.00293534 0 -0.00472106)
(-0.00292404 0 -0.00531274)
(-0.00290947 0 -0.00594877)
(-0.0028909 0 -0.00666521)
(-0.00286753 0 -0.00751064)
(-0.00283838 0 -0.00854597)
(-0.00280236 0 -0.00984316)
(-0.00275809 0 -0.0114833)
(-0.00270396 0 -0.0135541)
(-0.00263797 0 -0.0161478)
(-0.00255777 0 -0.0193594)
(-0.00246064 0 -0.0232851)
(-0.00234357 0 -0.0280201)
(-0.0022035 0 -0.0336528)
(-0.00203753 0 -0.0402539)
(-0.00184329 0 -0.0478562)
(-0.00161883 0 -0.0564263)
(-0.00136199 0 -0.0658377)
(-0.00106836 0 -0.075863)
(-0.000727751 0 -0.0862139)
(-0.000318261 0 -0.0966466)
(0.000194663 0 -0.107105)
(0.000927511 0 -0.118734)
(0.00199429 0 -0.131799)
(0.00344977 0 -0.145964)
(0.00542758 0 -0.162123)
(0.00812553 0 -0.18125)
(0.011818 0 -0.204767)
(0.0168773 0 -0.235271)
(0.0237257 0 -0.277639)
(0.0325625 0 -0.339948)
(0.042434 0 -0.431715)
(0.0497311 0 -0.55405)
(0.0473239 0 -0.682188)
(0.032537 0 -0.770667)
(0.0151152 0 -0.805716)
(0.00240539 0 -0.826071)
(-0.0116324 0 -0.866018)
(-0.0401383 0 -0.891492)
(-0.0737329 0 -0.789392)
(-0.0736741 0 -0.496362)
(-0.0212046 0 -0.125592)
(0.0288831 0 0.202721)
(0.0797563 0 0.498588)
(0.158869 0 0.861242)
(0.208641 0 -0.995741)
(-0.105364 0 -1.05683)
(-0.144661 0 0.912925)
(0.0486163 0 0.105159)
(-0.100633 0 -1.43763)
(-0.24007 0 -0.656762)
(-0.00128192 0 0.256891)
(-0.0115573 0 0.399998)
(0.0760758 0 0.47991)
(0.0909405 0 0.610677)
(0.149568 0 0.803945)
(0.200355 0 1.09461)
(0.231449 0 -0.890674)
(-0.183552 0 -0.895706)
(-0.143239 0 1.0997)
(-0.11769 0 0.841463)
(-0.0819931 0 0.64305)
(-0.073768 0 0.49911)
(-0.050252 0 0.37588)
(-0.0377523 0 0.246929)
(-0.0214275 0 0.0977466)
(-0.00668952 0 -0.0787363)
(0.0032134 0 -0.253833)
(0.00389853 0 -0.369062)
(-0.000626253 0 -0.395364)
(-0.00392035 0 -0.361378)
(-0.00465399 0 -0.309691)
(-0.00389684 0 -0.262904)
(-0.00263116 0 -0.225656)
(-0.0013204 0 -0.196055)
(-0.000111151 0 -0.171669)
(0.000962064 0 -0.150877)
(0.00190035 0 -0.132733)
(0.00271495 0 -0.116671)
(0.00341898 0 -0.102325)
(0.00402504 0 -0.0894351)
(0.00454457 0 -0.077805)
(0.00498766 0 -0.0672774)
(0.00536311 0 -0.0577207)
(0.00567854 0 -0.04902)
(0.00594063 0 -0.04107)
(0.00615523 0 -0.0337712)
(0.00632765 0 -0.0270266)
(0.00646298 0 -0.0207388)
(0.00656509 0 -0.0147948)
(0.00663075 0 -0.00905427)
(0.00667988 0 -0.00341017)
(-0.00367937 0 -0.000554859)
(-0.00367248 0 -0.000963103)
(-0.00367401 0 -0.00141315)
(-0.00367148 0 -0.00192549)
(-0.00366809 0 -0.00247122)
(-0.00366401 0 -0.00303242)
(-0.00365867 0 -0.00359901)
(-0.00365162 0 -0.00416802)
(-0.00364236 0 -0.00474416)
(-0.00363032 0 -0.00534122)
(-0.00361487 0 -0.00598345)
(-0.00359525 0 -0.00670697)
(-0.00357062 0 -0.00756041)
(-0.00353997 0 -0.00860477)
(-0.00350213 0 -0.00991217)
(-0.00345569 0 -0.0115638)
(-0.00339895 0 -0.0136477)
(-0.00332983 0 -0.0162562)
(-0.00324588 0 -0.0194846)
(-0.00314426 0 -0.0234292)
(-0.00302182 0 -0.0281849)
(-0.00287531 0 -0.0338398)
(-0.00270166 0 -0.040464)
(-0.00249818 0 -0.0480894)
(-0.00226253 0 -0.0566824)
(-0.00199197 0 -0.0661175)
(-0.00168138 0 -0.0761708)
(-0.00131962 0 -0.0865611)
(-0.000883627 0 -0.097054)
(-0.000338207 0 -0.107604)
(0.000437703 0 -0.119377)
(0.00156121 0 -0.132665)
(0.00308185 0 -0.147137)
(0.0051288 0 -0.163712)
(0.00788966 0 -0.183409)
(0.0116156 0 -0.207703)
(0.0166345 0 -0.239228)
(0.0232852 0 -0.282781)
(0.0316287 0 -0.345975)
(0.0405536 0 -0.437059)
(0.0464744 0 -0.5553)
(0.0430519 0 -0.676327)
(0.0284137 0 -0.759911)
(0.0110092 0 -0.795418)
(-0.00300445 0 -0.816534)
(-0.0185796 0 -0.851903)
(-0.0459569 0 -0.871402)
(-0.0770913 0 -0.778399)
(-0.0813085 0 -0.511296)
(-0.0392513 0 -0.15641)
(0.00959958 0 0.166322)
(0.0431397 0 0.469817)
(0.116817 0 0.813796)
(0.171924 0 -0.925391)
(-0.0789541 0 -0.948928)
(-0.122299 0 0.868492)
(0.056408 0 0.0934285)
(-0.0832855 0 -1.33767)
(-0.211268 0 -0.701459)
(0.0035399 0 0.192338)
(-0.00267967 0 0.369839)
(0.0766173 0 0.453071)
(0.0874496 0 0.582773)
(0.134412 0 0.777784)
(0.180298 0 1.06517)
(0.210393 0 -0.772902)
(-0.145667 0 -0.780807)
(-0.119818 0 1.07804)
(-0.0941739 0 0.829982)
(-0.0703745 0 0.628257)
(-0.0625237 0 0.486173)
(-0.0422446 0 0.362786)
(-0.0313577 0 0.233614)
(-0.0160456 0 0.0839662)
(-0.00257008 0 -0.0903934)
(0.00619362 0 -0.258816)
(0.00647481 0 -0.366902)
(0.00223446 0 -0.391131)
(-0.000899377 0 -0.359056)
(-0.00171067 0 -0.309668)
(-0.00110084 0 -0.26415)
(2.66417e-05 0 -0.227349)
(0.00123011 0 -0.197812)
(0.0023591 0 -0.17335)
(0.00337244 0 -0.15244)
(0.00426624 0 -0.134168)
(0.00504794 0 -0.11798)
(0.00572782 0 -0.103513)
(0.00631637 0 -0.0905085)
(0.00682339 0 -0.0787699)
(0.00725773 0 -0.0681396)
(0.00762723 0 -0.0584854)
(0.00793887 0 -0.0496919)
(0.00819883 0 -0.0416533)
(0.00841268 0 -0.0342694)
(0.00858552 0 -0.0274434)
(0.00872213 0 -0.0210773)
(0.00882632 0 -0.0150554)
(0.00889468 0 -0.00923099)
(0.00894468 0 -0.00348715)
(-0.00446485 0 -0.000558326)
(-0.00445766 0 -0.000968538)
(-0.0044595 0 -0.00142008)
(-0.0044569 0 -0.00193384)
(-0.00445337 0 -0.00248131)
(-0.0044491 0 -0.00304489)
(-0.00444354 0 -0.00361466)
(-0.00443621 0 -0.00418762)
(-0.00442664 0 -0.00476852)
(-0.00441423 0 -0.00537115)
(-0.00439834 0 -0.0060198)
(-0.0043782 0 -0.00675064)
(-0.00435295 0 -0.00761238)
(-0.00432155 0 -0.00866612)
(-0.0042828 0 -0.00998409)
(-0.00423524 0 -0.0116477)
(-0.00417713 0 -0.0137451)
(-0.00410633 0 -0.0163691)
(-0.00402033 0 -0.0196149)
(-0.0039162 0 -0.023579)
(-0.00379069 0 -0.0283562)
(-0.00364047 0 -0.0340343)
(-0.00346231 0 -0.0406826)
(-0.00325335 0 -0.0483325)
(-0.00301097 0 -0.05695)
(-0.00273209 0 -0.0664108)
(-0.00241109 0 -0.0764945)
(-0.00203637 0 -0.0869269)
(-0.00158424 0 -0.0974831)
(-0.00101951 0 -0.108128)
(-0.00021957 0 -0.120049)
(0.000933346 0 -0.133563)
(0.00248292 0 -0.148342)
(0.00455137 0 -0.165329)
(0.00731323 0 -0.185577)
(0.0109944 0 -0.210605)
(0.0158783 0 -0.243065)
(0.0222262 0 -0.287647)
(0.0299797 0 -0.351482)
(0.0379112 0 -0.441621)
(0.042514 0 -0.555778)
(0.0381794 0 -0.670199)
(0.0236568 0 -0.749241)
(0.00626495 0 -0.784751)
(-0.00880742 0 -0.806196)
(-0.0255811 0 -0.837669)
(-0.0522024 0 -0.852343)
(-0.0816437 0 -0.766694)
(-0.0893894 0 -0.521822)
(-0.0580625 0 -0.181958)
(-0.0098297 0 0.136545)
(0.00453871 0 0.449022)
(0.0736827 0 0.765229)
(0.132142 0 -0.875751)
(-0.0686131 0 -0.857499)
(-0.106068 0 0.825932)
(0.0606126 0 0.083029)
(-0.0685184 0 -1.24847)
(-0.184051 0 -0.736935)
(0.00493892 0 0.131552)
(0.00608748 0 0.342527)
(0.0755766 0 0.430204)
(0.0839918 0 0.560079)
(0.118553 0 0.757098)
(0.160846 0 1.03815)
(0.187263 0 -0.673668)
(-0.117575 0 -0.678917)
(-0.0999155 0 1.05984)
(-0.0731818 0 0.821529)
(-0.0587601 0 0.616673)
(-0.0506979 0 0.475377)
(-0.033647 0 0.351384)
(-0.0241062 0 0.221614)
(-0.00996054 0 0.0713585)
(0.0021871 0 -0.100834)
(0.00979277 0 -0.262957)
(0.00962559 0 -0.364653)
(0.00556768 0 -0.387103)
(0.0025372 0 -0.356765)
(0.00163677 0 -0.309501)
(0.00209329 0 -0.265207)
(0.00307608 0 -0.228871)
(0.00416406 0 -0.199428)
(0.00520356 0 -0.174918)
(0.00614781 0 -0.153912)
(0.00698833 0 -0.135531)
(0.00772895 0 -0.119232)
(0.00837723 0 -0.104655)
(0.00894154 0 -0.0915457)
(0.00943005 0 -0.0797065)
(0.00985033 0 -0.0689801)
(0.0102093 0 -0.0592342)
(0.0105134 0 -0.0503527)
(0.0107681 0 -0.0422295)
(0.0109789 0 -0.0347643)
(0.0111503 0 -0.0278602)
(0.011287 0 -0.0214185)
(0.0113924 0 -0.0153207)
(0.0114634 0 -0.00941288)
(0.0115136 0 -0.00356776)
(-0.00532528 0 -0.000561629)
(-0.00531784 0 -0.000973794)
(-0.00532 0 -0.00142694)
(-0.00531742 0 -0.00194227)
(-0.00531388 0 -0.0024916)
(-0.00530961 0 -0.00305762)
(-0.00530403 0 -0.00363057)
(-0.0052967 0 -0.00420751)
(-0.00528713 0 -0.00479319)
(-0.00527474 0 -0.00540141)
(-0.00525888 0 -0.00605652)
(-0.00523878 0 -0.00679475)
(-0.00521357 0 -0.00766488)
(-0.00518221 0 -0.0087281)
(-0.00514347 0 -0.0100568)
(-0.00509588 0 -0.0117326)
(-0.00503767 0 -0.0138438)
(-0.00496669 0 -0.0164834)
(-0.00488038 0 -0.019747)
(-0.00477577 0 -0.0237309)
(-0.00464959 0 -0.02853)
(-0.00449844 0 -0.0342317)
(-0.00431908 0 -0.0409048)
(-0.00410853 0 -0.0485798)
(-0.00386409 0 -0.0572228)
(-0.00358252 0 -0.0667103)
(-0.00325799 0 -0.0768257)
(-0.0028788 0 -0.0873014)
(-0.00242122 0 -0.0979222)
(-0.0018507 0 -0.108662)
(-0.00104565 0 -0.120732)
(0.000110032 0 -0.13447)
(0.00165408 0 -0.14955)
(0.00370027 0 -0.166935)
(0.00640841 0 -0.187708)
(0.00997854 0 -0.21342)
(0.0146513 0 -0.246726)
(0.0206183 0 -0.292187)
(0.027719 0 -0.356443)
(0.0346449 0 -0.445423)
(0.0380055 0 -0.555539)
(0.0328547 0 -0.663811)
(0.0184172 0 -0.738614)
(0.00103745 0 -0.773769)
(-0.0148839 0 -0.795194)
(-0.0325927 0 -0.823269)
(-0.0586981 0 -0.833952)
(-0.0870555 0 -0.754213)
(-0.0975579 0 -0.528265)