/*--------------------------------*- C++ -*----------------------------------*\
  =========                 |
  \\      /  F ield         | OpenFOAM: The Open Source CFD Toolbox
   \\    /   O peration     | Website:  https://openfoam.org
    \\  /    A nd           | Version:  9
     \\/     M anipulation  |
\*---------------------------------------------------------------------------*/
FoamFile
{
    format      ascii;
    class       surfaceVectorField;
    location    "0.17";
    object      Uf;
}
// * * * * * * * * * * * * * * * * * * * * * * * * * * * * * * * * * * * * * //

dimensions      [0 1 -1 0 0 0 0];

internalField   nonuniform List<vector> 
39700
(
(-2.56773e-05 0 -0.000677258)
(-9.05461e-05 0 -0.000483961)
(-2.45717e-05 0 -0.0011149)
(-8.62054e-05 0 -0.000891555)
(-2.42706e-05 0 -0.00160924)
(-8.48977e-05 0 -0.00135887)
(-2.42924e-05 0 -0.00214204)
(-8.44398e-05 0 -0.00188042)
(-2.44051e-05 0 -0.00269079)
(-8.42584e-05 0 -0.00242642)
(-2.45167e-05 0 -0.00324316)
(-8.42115e-05 0 -0.00298064)
(-2.45822e-05 0 -0.00379365)
(-8.41837e-05 0 -0.0035343)
(-2.45662e-05 0 -0.00434348)
(-8.40824e-05 0 -0.00408509)
(-2.44313e-05 0 -0.00490186)
(-8.38161e-05 0 -0.00463795)
(-2.41326e-05 0 -0.00548747)
(-8.32848e-05 0 -0.00520649)
(-2.36158e-05 0 -0.00613009)
(-8.23712e-05 0 -0.00581474)
(-2.2817e-05 0 -0.00687164)
(-8.09395e-05 0 -0.00649849)
(-2.16621e-05 0 -0.00776638)
(-7.88357e-05 0 -0.00730606)
(-2.00624e-05 0 -0.00888015)
(-7.58849e-05 0 -0.00829796)
(-1.79081e-05 0 -0.0102886)
(-7.18838e-05 0 -0.00954558)
(-1.5057e-05 0 -0.0120751)
(-6.65867e-05 0 -0.0111291)
(-1.13228e-05 0 -0.0143285)
(-5.96867e-05 0 -0.0131352)
(-6.46402e-06 0 -0.0171413)
(-5.0796e-05 0 -0.0156551)
(-1.85581e-07 0 -0.0206086)
(-3.94288e-05 0 -0.0187828)
(7.86535e-06 0 -0.0248267)
(-2.50201e-05 0 -0.0226146)
(1.80422e-05 0 -0.0298898)
(-6.92645e-06 0 -0.0272467)
(3.0664e-05 0 -0.0358824)
(1.54445e-05 0 -0.0327711)
(4.58145e-05 0 -0.0428635)
(4.2467e-05 0 -0.0392643)
(6.31882e-05 0 -0.0508412)
(7.40504e-05 0 -0.0467666)
(8.1904e-05 0 -0.0597401)
(0.000109331 0 -0.0552514)
(0.000100546 0 -0.069376)
(0.000146619 0 -0.0645916)
(0.000117679 0 -0.0794641)
(0.000183824 0 -0.0745431)
(0.000132903 0 -0.0896884)
(0.000219764 0 -0.084779)
(0.000147994 0 -0.0998372)
(0.000256062 0 -0.0949971)
(0.00016708 0 -0.109941)
(0.000298576 0 -0.105083)
(0.000198905 0 -0.122004)
(0.000361169 0 -0.116083)
(0.000248068 0 -0.134356)
(0.000458631 0 -0.128119)
(0.000321776 0 -0.147704)
(0.000604021 0 -0.140806)
(0.000431255 0 -0.162691)
(0.000818992 0 -0.154835)
(0.000600774 0 -0.180007)
(0.00114289 0 -0.170808)
(0.000887639 0 -0.200882)
(0.00165643 0 -0.189523)
(0.0014255 0 -0.228157)
(0.00252851 0 -0.212692)
(0.00251232 0 -0.268311)
(0.00410083 0 -0.2444)
(0.00473061 0 -0.334561)
(0.00700325 0 -0.293763)
(0.00877438 0 -0.447418)
(0.0121071 0 -0.37836)
(0.0135284 0 -0.615405)
(0.0192412 0 -0.520913)
(0.0124859 0 -0.783271)
(0.0227428 0 -0.71227)
(0.00423295 0 -0.854914)
(0.0148292 0 -0.850788)
(0.00291316 0 -0.846448)
(0.00567059 0 -0.855893)
(0.0104707 0 -0.895071)
(0.009677 0 -0.841989)
(0.00843305 0 -1.0359)
(0.0178883 0 -0.953114)
(-0.0230883 0 -0.991029)
(-0.00892677 0 -1.1042)
(-0.0285955 0 -0.564501)
(-0.0444165 0 -0.86055)
(-0.00405092 0 -0.0370585)
(-0.0237779 0 -0.27734)
(0.0144253 0 0.373909)
(0.0122655 0 0.183384)
(0.0355729 0 0.736149)
(0.0407204 0 0.545995)
(0.0879092 0 1.20673)
(0.10471 0 0.889424)
(0.28373 0 -0.592415)
(0.136241 0 1.39906)
(-0.0699736 0 -2.57522)
(0.389471 0 -2.49671)
(-0.156708 0 -0.440577)
(-0.374249 0 -2.34619)
(-0.0692058 0 1.16325)
(-0.133977 0 1.53337)
(-0.00402158 0 -0.925998)
(5.38977e-05 0 0.687654)
(-0.118305 0 -1.31894)
(-0.0563647 0 -2.4813)
(-0.0272718 0 0.331936)
(-0.141616 0 -0.0997489)
(-0.00668177 0 0.686559)
(-0.0100582 0 0.699568)
(0.00408622 0 0.692805)
(-0.005121 0 0.657402)
(0.0142189 0 0.80751)
(0.0172347 0 0.718103)
(0.0298694 0 1.02183)
(0.0376808 0 0.884407)
(0.067795 0 1.36357)
(0.0851237 0 1.13263)
(0.211441 0 -0.509686)
(0.11135 0 1.5069)
(-0.00137541 0 -2.3783)
(0.289377 0 -2.46485)
(-0.151563 0 -0.287297)
(-0.308334 0 -2.06056)
(-0.062476 0 1.36337)
(-0.10492 0 1.54549)
(-0.0307168 0 0.998019)
(-0.0898053 0 1.1234)
(-0.018145 0 0.743301)
(-0.0436639 0 0.850179)
(-0.012268 0 0.570776)
(-0.0292789 0 0.647409)
(-0.00860351 0 0.421785)
(-0.0201629 0 0.492213)
(-0.00579675 0 0.276145)
(-0.0138731 0 0.350867)
(-0.00254858 0 0.109866)
(-0.00835443 0 0.201244)
(0.00184463 0 -0.093564)
(-0.00195786 0 0.0177569)
(0.00480041 0 -0.3016)
(0.00434845 0 -0.204752)
(0.00191641 0 -0.422195)
(0.00481046 0 -0.393671)
(-0.0025132 0 -0.415351)
(-0.000995722 0 -0.44359)
(-0.00372869 0 -0.345029)
(-0.00504269 0 -0.384207)
(-0.0031056 0 -0.277502)
(-0.00530996 0 -0.307719)
(-0.00226501 0 -0.229416)
(-0.00433525 0 -0.25045)
(-0.00163908 0 -0.195656)
(-0.00333661 0 -0.211046)
(-0.00122123 0 -0.17004)
(-0.00256362 0 -0.182222)
(-0.000939818 0 -0.149084)
(-0.00199647 0 -0.159304)
(-0.000741349 0 -0.131112)
(-0.00157707 0 -0.139983)
(-0.000594181 0 -0.115308)
(-0.00125902 0 -0.123151)
(-0.000480483 0 -0.101227)
(-0.00101136 0 -0.108232)
(-0.000390004 0 -0.0885877)
(-0.000814259 0 -0.094882)
(-0.000316547 0 -0.0771916)
(-0.000654819 0 -0.0828699)
(-0.000256128 0 -0.0668851)
(-0.000524386 0 -0.0720219)
(-0.000206041 0 -0.0575429)
(-0.000416939 0 -0.0621997)
(-0.000164364 0 -0.0490572)
(-0.000328174 0 -0.0532878)
(-0.000129692 0 -0.0413314)
(-0.000254957 0 -0.0451847)
(-0.00010098 0 -0.0342742)
(-0.000195 0 -0.037797)
(-7.74592e-05 0 -0.0277967)
(-0.000146647 0 -0.031035)
(-5.86123e-05 0 -0.0218097)
(-0.00010872 0 -0.0248095)
(-4.43366e-05 0 -0.0162169)
(-8.05873e-05 0 -0.01903)
(-3.53334e-05 0 -0.0108896)
(-6.26904e-05 0 -0.0135914)
(-3.11024e-05 0 -0.00565115)
(-5.56955e-05 0 -0.00834457)
(-5.10402e-05 0 -0.00311187)
(-0.000150298 0 -0.000689197)
(-0.000249427 0 -0.000498081)
(-0.000146769 0 -0.00112543)
(-0.00024154 0 -0.00090253)
(-0.000145107 0 -0.00161898)
(-0.000239249 0 -0.0013638)
(-0.000144386 0 -0.00215351)
(-0.000237978 0 -0.00188245)
(-0.000144075 0 -0.00270527)
(-0.000237121 0 -0.00242725)
(-0.000143916 0 -0.0032614)
(-0.000236557 0 -0.00298104)
(-0.000143747 0 -0.00381615)
(-0.000236091 0 -0.00353472)
(-0.000143422 0 -0.00437071)
(-0.000235532 0 -0.00408586)
(-0.000142792 0 -0.00493425)
(-0.000234692 0 -0.00463937)
(-0.000141683 0 -0.00552543)
(-0.000233362 0 -0.00520887)
(-0.000139898 0 -0.00617403)
(-0.000231293 0 -0.00581837)
(-0.00013721 0 -0.00692191)
(-0.0002282 0 -0.00650369)
(-0.000133364 0 -0.00782334)
(-0.000223757 0 -0.00731313)
(-0.000128073 0 -0.0089441)
(-0.000217599 0 -0.00830722)
(-0.000121004 0 -0.0103599)
(-0.000209309 0 -0.00955738)
(-0.000111753 0 -0.0121541)
(-0.000198395 0 -0.0111438)
(-9.98174e-05 0 -0.0144156)
(-0.000184264 0 -0.0131534)
(-8.45711e-05 0 -0.017237)
(-0.000166185 0 -0.0156772)
(-6.52496e-05 0 -0.0207134)
(-0.000143273 0 -0.0188095)
(-4.09792e-05 0 -0.0249413)
(-0.000114504 0 -0.0226465)
(-1.08678e-05 0 -0.0300146)
(-7.8743e-05 0 -0.0272845)
(2.57845e-05 0 -0.0360178)
(-3.49544e-05 0 -0.032815)
(6.92021e-05 0 -0.0430094)
(1.75858e-05 0 -0.0393138)
(0.00011887 0 -0.050997)
(7.88753e-05 0 -0.0468206)
(0.00017308 0 -0.0599048)
(0.00014773 0 -0.0553076)
(0.000229251 0 -0.0695486)
(0.000221814 0 -0.0646471)
(0.000285134 0 -0.0796442)
(0.000298406 0 -0.0745958)
(0.000341079 0 -0.0898777)
(0.000376528 0 -0.0848293)
(0.000402463 0 -0.100039)
(0.000460055 0 -0.0950497)
(0.000480227 0 -0.110158)
(0.000560222 0 -0.105146)
(0.000607702 0 -0.122242)
(0.000706935 0 -0.116168)
(0.000795983 0 -0.134617)
(0.000931703 0 -0.128244)
(0.00107362 0 -0.147991)
(0.00126153 0 -0.140992)
(0.00148678 0 -0.163014)
(0.00174542 0 -0.155111)
(0.00212419 0 -0.180396)
(0.00246876 0 -0.171233)
(0.0031673 0 -0.201416)
(0.00359242 0 -0.190218)
(0.00498164 0 -0.229019)
(0.00542311 0 -0.213901)
(0.00825061 0 -0.269875)
(0.00851878 0 -0.24658)
(0.013986 0 -0.337348)
(0.0137703 0 -0.297587)
(0.0225972 0 -0.451265)
(0.0221367 0 -0.384101)
(0.0304561 0 -0.617601)
(0.0327546 0 -0.526152)
(0.0275729 0 -0.781182)
(0.0372313 0 -0.710348)
(0.0140587 0 -0.853291)
(0.0255255 0 -0.841778)
(0.0103219 0 -0.850939)
(0.0119979 0 -0.853402)
(0.0180669 0 -0.899278)
(0.0150247 0 -0.847152)
(0.00873211 0 -1.0256)
(0.0229708 0 -0.94689)
(-0.0387666 0 -0.978526)
(-0.013639 0 -1.07253)
(-0.0499313 0 -0.571763)
(-0.0627399 0 -0.853107)
(-0.00722829 0 -0.0541862)
(-0.0349938 0 -0.305808)
(0.0389489 0 0.356067)
(0.0224997 0 0.152598)
(0.0916028 0 0.70363)
(0.068309 0 0.510893)
(0.181152 0 1.11776)
(0.164239 0 0.829725)
(0.352395 0 -0.495878)
(0.210817 0 1.2849)
(-0.024272 0 -2.295)
(0.42945 0 -2.2456)
(-0.311748 0 -0.362265)
(-0.447674 0 -2.15454)
(-0.157701 0 1.08188)
(-0.239938 0 1.43067)
(0.0151466 0 -0.881693)
(-0.00227284 0 0.572422)
(-0.213758 0 -1.26847)
(-0.0624557 0 -2.3287)
(-0.080337 0 0.285423)
(-0.23373 0 -0.188696)
(-0.023609 0 0.67051)
(-0.0205016 0 0.661748)
(0.0100555 0 0.681821)
(-0.0127752 0 0.63496)
(0.0394625 0 0.794273)
(0.0316683 0 0.698498)
(0.0786817 0 0.996688)
(0.0652653 0 0.858261)
(0.147149 0 1.29798)
(0.138586 0 1.08698)
(0.27601 0 -0.431666)
(0.176366 0 1.42099)
(-0.0559025 0 -2.15922)
(0.333316 0 -2.24358)
(-0.282238 0 -0.227466)
(-0.433594 0 -1.90967)
(-0.159536 0 1.31477)
(-0.174587 0 1.46369)
(-0.0865163 0 0.975743)
(-0.157888 0 1.07472)
(-0.0532462 0 0.733175)
(-0.0777923 0 0.827998)
(-0.0357281 0 0.564496)
(-0.055057 0 0.633117)
(-0.0246799 0 0.417504)
(-0.0379243 0 0.482758)
(-0.0161786 0 0.272251)
(-0.0260777 0 0.343236)
(-0.00763032 0 0.105178)
(-0.0159834 0 0.193193)
(0.00108983 0 -0.0978644)
(-0.00521945 0 0.00914303)
(0.00598551 0 -0.301524)
(0.00448001 0 -0.209825)
(0.00206256 0 -0.417917)
(0.00539005 0 -0.389407)
(-0.00437409 0 -0.412243)
(-0.0021151 0 -0.436251)
(-0.00693889 0 -0.345132)
(-0.00744946 0 -0.381141)
(-0.00659004 0 -0.278992)
(-0.00806883 0 -0.308157)
(-0.00538808 0 -0.230925)
(-0.00696396 0 -0.252031)
(-0.00422675 0 -0.196842)
(-0.00563643 0 -0.212648)
(-0.00330573 0 -0.170933)
(-0.00448924 0 -0.183556)
(-0.00260671 0 -0.149769)
(-0.00357334 0 -0.160366)
(-0.00207393 0 -0.131657)
(-0.00285278 0 -0.140832)
(-0.00166031 0 -0.115756)
(-0.00228245 0 -0.123842)
(-0.00133287 0 -0.101603)
(-0.00182588 0 -0.108805)
(-0.00106943 0 -0.088909)
(-0.00145636 0 -0.0953663)
(-0.000854915 0 -0.0774689)
(-0.00115464 0 -0.0832837)
(-0.000678858 0 -0.0671259)
(-0.000906771 0 -0.0723782)
(-0.000533795 0 -0.0577522)
(-0.000702488 0 -0.0625077)
(-0.000414319 0 -0.0492389)
(-0.000534189 0 -0.0535538)
(-0.000316488 0 -0.041488)
(-0.000396207 0 -0.0454132)
(-0.000237448 0 -0.0344074)
(-0.000284346 0 -0.0379907)
(-0.000175187 0 -0.0279073)
(-0.000195547 0 -0.0311949)
(-0.000128424 0 -0.0218972)
(-0.000127602 0 -0.0249355)
(-9.67457e-05 0 -0.0162775)
(-7.90578e-05 0 -0.0191195)
(-8.09345e-05 0 -0.0109217)
(-4.96818e-05 0 -0.0136382)
(-7.89833e-05 0 -0.00568006)
(-4.09526e-05 0 -0.0083506)
(-4.09239e-05 0 -0.00312796)
(-0.000339453 0 -0.000704054)
(-0.000469327 0 -0.000514633)
(-0.00033495 0 -0.00113459)
(-0.000460825 0 -0.000916534)
(-0.000332277 0 -0.00162221)
(-0.000458681 0 -0.00137172)
(-0.000330686 0 -0.00215339)
(-0.000456914 0 -0.00188693)
(-0.000329627 0 -0.00270317)
(-0.000455468 0 -0.00243009)
(-0.000328798 0 -0.00325797)
(-0.000454323 0 -0.00298317)
(-0.000327976 0 -0.00381185)
(-0.000453204 0 -0.00353673)
(-0.000326943 0 -0.00436593)
(-0.000451858 0 -0.00408829)
(-0.000325454 0 -0.00492938)
(-0.000450034 0 -0.00464271)
(-0.000323225 0 -0.00552089)
(-0.000447441 0 -0.00521363)
(-0.000319918 0 -0.00617024)
(-0.000443731 0 -0.00582509)
(-0.000315148 0 -0.00691933)
(-0.000438495 0 -0.0065129)
(-0.000308477 0 -0.00782245)
(-0.000431266 0 -0.00732539)
(-0.000299411 0 -0.00894541)
(-0.000421514 0 -0.0083231)
(-0.000287383 0 -0.010364)
(-0.000408629 0 -0.00957746)
(-0.00027172 0 -0.0121615)
(-0.000391899 0 -0.0111688)
(-0.000251615 0 -0.0144271)
(-0.000370471 0 -0.0131839)
(-0.000226089 0 -0.0172534)
(-0.000343309 0 -0.0157142)
(-0.000193987 0 -0.0207356)
(-0.000309181 0 -0.0188539)
(-0.000154017 0 -0.0249699)
(-0.000266669 0 -0.0226992)
(-0.000104881 0 -0.0300502)
(-0.000214233 0 -0.0273462)
(-4.54597e-05 0 -0.0360601)
(-0.000150447 0 -0.0328861)
(2.47324e-05 0 -0.0430575)
(-7.42511e-05 0 -0.0393938)
(0.00010511 0 -0.0510486)
(1.4585e-05 0 -0.046908)
(0.000193915 0 -0.0599565)
(0.000114991 0 -0.0553996)
(0.000288425 0 -0.0695971)
(0.000224683 0 -0.0647405)
(0.000386751 0 -0.0796886)
(0.000341238 0 -0.0746884)
(0.000490882 0 -0.089921)
(0.000464841 0 -0.0849228)
(0.000610049 0 -0.10009)
(0.000602164 0 -0.0951517)
(0.000761865 0 -0.110229)
(0.000769455 0 -0.10527)
(0.00100991 0 -0.122357)
(0.00101365 0 -0.116334)
(0.00136777 0 -0.1348)
(0.00138371 0 -0.128483)
(0.00188954 0 -0.148279)
(0.00191927 0 -0.141339)
(0.00266018 0 -0.163469)
(0.00269632 0 -0.155624)
(0.00383093 0 -0.181139)
(0.00384257 0 -0.172014)
(0.00568216 0 -0.202678)
(0.0055828 0 -0.191452)
(0.00871742 0 -0.231226)
(0.00831449 0 -0.215925)
(0.0137526 0 -0.273683)
(0.0127028 0 -0.249936)
(0.0217547 0 -0.343254)
(0.0196919 0 -0.302921)
(0.0325553 0 -0.457869)
(0.0300276 0 -0.391301)
(0.0412587 0 -0.619354)
(0.0421069 0 -0.531954)
(0.0371866 0 -0.774131)
(0.0462908 0 -0.707633)
(0.0216574 0 -0.845608)
(0.0325998 0 -0.831426)
(0.0154168 0 -0.851428)
(0.0168794 0 -0.849242)
(0.0199014 0 -0.897459)
(0.0173239 0 -0.850142)
(0.00623777 0 -1.0021)
(0.0219755 0 -0.937781)
(-0.0438615 0 -0.954494)
(-0.0170422 0 -1.03913)
(-0.0570924 0 -0.584194)
(-0.0696885 0 -0.844287)
(-0.00646553 0 -0.0903537)
(-0.0414123 0 -0.339559)
(0.0554909 0 0.316226)
(0.028189 0 0.111292)
(0.124061 0 0.650099)
(0.0815328 0 0.465181)
(0.212824 0 1.02025)
(0.186765 0 0.77055)
(0.360845 0 -0.430442)
(0.251295 0 1.18622)
(-0.0357147 0 -2.05413)
(0.397921 0 -1.98123)
(-0.359954 0 -0.31727)
(-0.443246 0 -1.93838)
(-0.189643 0 0.943923)
(-0.285688 0 1.31713)
(0.0016141 0 -0.866747)
(-0.00825701 0 0.444917)
(-0.240718 0 -1.23685)
(-0.0735775 0 -2.16715)
(-0.108262 0 0.206664)
(-0.271605 0 -0.277001)
(-0.0335125 0 0.633953)
(-0.024591 0 0.611916)
(0.013625 0 0.656123)
(-0.019487 0 0.603535)
(0.0574106 0 0.766367)
(0.0433944 0 0.669306)
(0.111093 0 0.955786)
(0.0821266 0 0.822472)
(0.184064 0 1.22596)
(0.165341 0 1.03834)
(0.299788 0 -0.356072)
(0.220349 0 1.34384)
(-0.0781928 0 -1.94576)
(0.331818 0 -1.99159)
(-0.337957 0 -0.18338)
(-0.461208 0 -1.73649)
(-0.207476 0 1.24009)
(-0.21208 0 1.3767)
(-0.127359 0 0.934233)
(-0.196118 0 1.02131)
(-0.0807277 0 0.710913)
(-0.0984552 0 0.796911)
(-0.0550246 0 0.549507)
(-0.0746047 0 0.612147)
(-0.0383233 0 0.406519)
(-0.0514329 0 0.468465)
(-0.0253319 0 0.26216)
(-0.0357726 0 0.331573)
(-0.0131514 0 0.0943973)
(-0.0223563 0 0.181723)
(-0.00119079 0 -0.106727)
(-0.00853559 0 -0.00267134)
(0.00505971 0 -0.302192)
(0.00319407 0 -0.216301)
(0.00117598 0 -0.410911)
(0.00443636 0 -0.385186)
(-0.00572706 0 -0.405884)
(-0.00332315 0 -0.428382)
(-0.00869721 0 -0.343418)
(-0.00885307 0 -0.377589)
(-0.00848857 0 -0.280073)
(-0.00961523 0 -0.308418)
(-0.00722522 0 -0.232734)
(-0.00850027 0 -0.253694)
(-0.00588454 0 -0.198545)
(-0.00703579 0 -0.214499)
(-0.00473176 0 -0.172349)
(-0.00569834 0 -0.185226)
(-0.00379336 0 -0.150917)
(-0.00458176 0 -0.161792)
(-0.00303799 0 -0.132594)
(-0.00366935 0 -0.142036)
(-0.00242833 0 -0.116532)
(-0.00292479 0 -0.124861)
(-0.00193306 0 -0.102256)
(-0.00231483 0 -0.109673)
(-0.00152809 0 -0.089464)
(-0.00181284 0 -0.096111)
(-0.00119525 0 -0.0779448)
(-0.00139817 0 -0.0839258)
(-0.000920922 0 -0.0675356)
(-0.00105488 0 -0.0729334)
(-0.000694827 0 -0.0581052)
(-0.000770679 0 -0.0629877)
(-0.000509214 0 -0.0495414)
(-0.000536064 0 -0.0539671)
(-0.000358239 0 -0.0417443)
(-0.000343705 0 -0.0457657)
(-0.000237531 0 -0.0346197)
(-0.000187965 0 -0.0382863)
(-0.000143882 0 -0.0280759)
(-6.45557e-05 0 -0.0314355)
(-7.5055e-05 0 -0.0220199)
(2.97958e-05 0 -0.0251209)
(-2.97952e-05 0 -0.0163495)
(9.76149e-05 0 -0.0192474)
(-7.46305e-06 0 -0.010941)
(0.000140529 0 -0.0137044)
(-4.1282e-06 0 -0.00567499)
(0.000157144 0 -0.00836092)
(0.000161929 0 -0.00312607)
(-0.000589909 0 -0.000718071)
(-0.000753343 0 -0.000527517)
(-0.000586059 0 -0.001144)
(-0.000746113 0 -0.000928503)
(-0.000583452 0 -0.00162618)
(-0.000744904 0 -0.00137943)
(-0.000581659 0 -0.00215369)
(-0.000743134 0 -0.00189198)
(-0.000580222 0 -0.002701)
(-0.000741476 0 -0.00243394)
(-0.000578826 0 -0.00325402)
(-0.000739935 0 -0.00298674)
(-0.000577213 0 -0.00380662)
(-0.000738146 0 -0.00354069)
(-0.00057512 0 -0.00435987)
(-0.000735816 0 -0.0040932)
(-0.00057225 0 -0.00492293)
(-0.000732653 0 -0.00464914)
(-0.000568246 0 -0.00551452)
(-0.000728312 0 -0.00522218)
(-0.000562686 0 -0.00616446)
(-0.00072238 0 -0.00583638)
(-0.000555079 0 -0.00691467)
(-0.00071437 0 -0.00652759)
(-0.000544862 0 -0.00781945)
(-0.000703726 0 -0.00734418)
(-0.000531392 0 -0.00894469)
(-0.000689805 0 -0.0083467)
(-0.000513922 0 -0.0103662)
(-0.000671864 0 -0.00960665)
(-0.000491568 0 -0.0121674)
(-0.000649022 0 -0.0112044)
(-0.000463267 0 -0.0144376)
(-0.000620218 0 -0.013227)
(-0.000427748 0 -0.0172694)
(-0.000584168 0 -0.0157657)
(-0.00038352 0 -0.0207581)
(-0.000539342 0 -0.018915)
(-0.000328933 0 -0.0249998)
(-0.000483995 0 -0.0227711)
(-0.000262306 0 -0.030088)
(-0.000416235 0 -0.0274298)
(-0.000182181 0 -0.0361058)
(-0.000334271 0 -0.0329819)
(-8.77389e-05 0 -0.0431097)
(-0.000236703 0 -0.0395015)
(2.07993e-05 0 -0.0511049)
(-0.000122996 0 -0.0470259)
(0.000141851 0 -0.0600135)
(6.16717e-06 0 -0.0555251)
(0.000273309 0 -0.0696518)
(0.000149059 0 -0.0648704)
(0.000414413 0 -0.0797408)
(0.000304233 0 -0.0748213)
(0.000569431 0 -0.0899765)
(0.000473732 0 -0.085062)
(0.000751746 0 -0.100162)
(0.000667504 0 -0.0953077)
(0.000985493 0 -0.110336)
(0.000906428 0 -0.105461)
(0.00136519 0 -0.122536)
(0.00125404 0 -0.116587)
(0.00190521 0 -0.135094)
(0.00177614 0 -0.128843)
(0.00268268 0 -0.148748)
(0.00252219 0 -0.141858)
(0.00381562 0 -0.164212)
(0.0035908 0 -0.15638)
(0.00550231 0 -0.182332)
(0.00514301 0 -0.173138)
(0.00808507 0 -0.20463)
(0.00744727 0 -0.193174)
(0.0121312 0 -0.234441)
(0.0109509 0 -0.218622)
(0.0184733 0 -0.278804)
(0.0163544 0 -0.254165)
(0.0279285 0 -0.350459)
(0.0245528 0 -0.309225)
(0.0398092 0 -0.465006)
(0.0359714 0 -0.399222)
(0.0483924 0 -0.620458)
(0.048318 0 -0.537676)
(0.0431743 0 -0.765927)
(0.0515439 0 -0.704155)
(0.0265459 0 -0.836301)
(0.0367693 0 -0.82034)
(0.0181221 0 -0.848999)
(0.0199476 0 -0.843626)
(0.0190415 0 -0.891925)
(0.017514 0 -0.850755)
(0.0020185 0 -0.977331)
(0.0179105 0 -0.926433)
(-0.0465271 0 -0.930665)
(-0.0205764 0 -1.00677)
(-0.0609493 0 -0.598177)
(-0.0722291 0 -0.834672)
(-0.00803301 0 -0.133658)
(-0.0470704 0 -0.374836)
(0.0609947 0 0.265985)
(0.0282996 0 0.0652736)
(0.135484 0 0.591362)
(0.0839918 0 0.415521)
(0.223023 0 0.938495)
(0.188078 0 0.71219)
(0.345216 0 -0.355669)
(0.265744 0 1.10475)
(-0.0367138 0 -1.83746)
(0.356755 0 -1.72661)
(-0.343253 0 -0.283873)
(-0.391192 0 -1.73402)
(-0.188045 0 0.818786)
(-0.285788 0 1.21365)
(-0.0172834 0 -0.854937)
(-0.00511226 0 0.331075)
(-0.246488 0 -1.20569)
(-0.0912647 0 -2.01434)
(-0.122519 0 0.131122)
(-0.285988 0 -0.359646)
(-0.036663 0 0.586518)
(-0.02465 0 0.554679)
(0.0175521 0 0.620953)
(-0.0237846 0 0.567392)
(0.0688106 0 0.72947)
(0.0530829 0 0.635134)
(0.128916 0 0.909263)
(0.0913993 0 0.782402)
(0.203483 0 1.16016)
(0.176536 0 0.988623)
(0.301978 0 -0.275691)
(0.243372 0 1.27818)
(-0.0783734 0 -1.74926)
(0.314668 0 -1.73802)
(-0.340009 0 -0.152298)
(-0.433698 0 -1.56207)
(-0.223604 0 1.16569)
(-0.224301 0 1.2991)
(-0.148488 0 0.888206)
(-0.20741 0 0.971235)
(-0.0972229 0 0.682319)
(-0.107582 0 0.762734)
(-0.0681491 0 0.529526)
(-0.0869572 0 0.588427)
(-0.0483005 0 0.391464)
(-0.0598928 0 0.451478)
(-0.0323097 0 0.248512)
(-0.042394 0 0.317217)
(-0.0173797 0 0.080887)
(-0.0267772 0 0.167664)
(-0.00356024 0 -0.117042)
(-0.0110625 0 -0.0163215)
(0.00347713 0 -0.303381)
(0.00158579 0 -0.223593)
(-0.000152069 0 -0.404115)
(0.00297845 0 -0.381242)
(-0.00687662 0 -0.399394)
(-0.00442477 0 -0.420715)
(-0.00985863 0 -0.341327)
(-0.00965177 0 -0.374022)
(-0.0096415 0 -0.28093)
(-0.0103972 0 -0.30869)
(-0.00828937 0 -0.234575)
(-0.009261 0 -0.255473)
(-0.00681775 0 -0.200456)
(-0.00771068 0 -0.216531)
(-0.00551872 0 -0.174056)
(-0.00625793 0 -0.187107)
(-0.00443194 0 -0.152383)
(-0.00501724 0 -0.163443)
(-0.0035339 0 -0.133843)
(-0.00398172 0 -0.143466)
(-0.00279228 0 -0.1176)
(-0.00312084 0 -0.1261)
(-0.00217842 0 -0.103173)
(-0.00240447 0 -0.11075)
(-0.00166908 0 -0.0902564)
(-0.0018073 0 -0.0970477)
(-0.00124588 0 -0.0786313)
(-0.00130887 0 -0.0847423)
(-0.000894319 0 -0.0681308)
(-0.000892852 0 -0.0736449)
(-0.000603 0 -0.0586199)
(-0.000546243 0 -0.0636061)
(-0.000362918 0 -0.0499835)
(-0.00025866 0 -0.0545017)
(-0.000166977 0 -0.042119)
(-2.17956e-05 0 -0.0462233)
(-9.60439e-06 0 -0.0349302)
(0.000170972 0 -0.0386718)
(0.000113552 0 -0.0283231)
(0.000324915 0 -0.0317519)
(0.000205857 0 -0.0222032)
(0.000444298 0 -0.0253696)
(0.000269953 0 -0.0164667)
(0.000532711 0 -0.0194286)
(0.00030834 0 -0.0109946)
(0.000592896 0 -0.0138182)
(0.000325348 0 -0.00568557)
(0.000624537 0 -0.00841384)
(0.000644944 0 -0.00314029)
(-0.00090952 0 -0.000727974)
(-0.00111054 0 -0.000535617)
(-0.000906751 0 -0.00115236)
(-0.00110438 0 -0.000937105)
(-0.000904604 0 -0.00163175)
(-0.00110413 0 -0.00138577)
(-0.000902902 0 -0.00215759)
(-0.00110244 0 -0.00189676)
(-0.000901271 0 -0.0027043)
(-0.00110063 0 -0.0024383)
(-0.000899373 0 -0.00325749)
(-0.0010987 0 -0.0029916)
(-0.000896904 0 -0.00381084)
(-0.0010962 0 -0.00354675)
(-0.000893561 0 -0.00436538)
(-0.0010928 0 -0.00410105)
(-0.000888998 0 -0.00493027)
(-0.00108817 0 -0.00465936)
(-0.00088281 0 -0.00552427)
(-0.00108191 0 -0.00523537)
(-0.000874519 0 -0.00617722)
(-0.00107356 0 -0.0058532)
(-0.000863568 0 -0.00693109)
(-0.00106257 0 -0.00654874)
(-0.000849318 0 -0.0078402)
(-0.00104833 0 -0.00737038)
(-0.000831031 0 -0.00897051)
(-0.00103011 0 -0.00837875)
(-0.000807836 0 -0.0103979)
(-0.00100708 0 -0.00964541)
(-0.00077869 0 -0.0122059)
(-0.000978207 0 -0.0112509)
(-0.000742332 0 -0.0144839)
(-0.000942282 0 -0.0132822)
(-0.000697246 0 -0.0173248)
(-0.000897813 0 -0.0158311)
(-0.000641665 0 -0.0208237)
(-0.000843027 0 -0.0189918)
(-0.000573624 0 -0.0250768)
(-0.000775895 0 -0.0228607)
(-0.000491109 0 -0.0301771)
(-0.000694222 0 -0.0275334)
(-0.000392325 0 -0.0362071)
(-0.000595882 0 -0.0331001)
(-0.000276087 0 -0.0432223)
(-0.000479127 0 -0.0396341)
(-0.000142219 0 -0.0512265)
(-0.000343031 0 -0.0471714)
(8.40399e-06 0 -0.0601413)
(-0.000187746 0 -0.0556812)
(0.000174544 0 -0.069784)
(-1.41739e-05 0 -0.0650345)
(0.00035717 0 -0.0798789)
(0.000177624 0 -0.0749934)
(0.000563332 0 -0.0901287)
(0.000391883 0 -0.0852471)
(0.000810557 0 -0.100344)
(0.000641928 0 -0.0955194)
(0.00112893 0 -0.110571)
(0.000952789 0 -0.10572)
(0.00164292 0 -0.122872)
(0.00140336 0 -0.11693)
(0.00236505 0 -0.135583)
(0.00207467 0 -0.129324)
(0.00339123 0 -0.149464)
(0.00302267 0 -0.142542)
(0.0048644 0 -0.165276)
(0.00436301 0 -0.157362)
(0.00701438 0 -0.183941)
(0.00628011 0 -0.174572)
(0.0102174 0 -0.207111)
(0.00906766 0 -0.195309)
(0.0150603 0 -0.238274)
(0.0131911 0 -0.221851)
(0.0223309 0 -0.284506)
(0.0193343 0 -0.259012)
(0.032618 0 -0.357917)
(0.0282734 0 -0.316083)
(0.0446947 0 -0.47181)
(0.0400646 0 -0.407273)
(0.052388 0 -0.621171)
(0.0518489 0 -0.542805)
(0.046188 0 -0.758185)
(0.0538053 0 -0.700021)
(0.0293354 0 -0.827283)
(0.0386117 0 -0.809105)
(0.0190606 0 -0.845156)
(0.0213294 0 -0.836776)
(0.0161095 0 -0.885026)
(0.0160478 0 -0.848788)
(-0.00279474 0 -0.955181)
(0.0120737 0 -0.91383)
(-0.0479979 0 -0.909916)
(-0.0243198 0 -0.976631)
(-0.0629191 0 -0.611028)
(-0.0723703 0 -0.824724)
(-0.0124088 0 -0.175759)
(-0.0525221 0 -0.408509)
(0.058161 0 0.215315)
(0.0234501 0 0.0182275)
(0.134777 0 0.53564)
(0.0791188 0 0.364444)
(0.219207 0 0.873887)
(0.176574 0 0.655904)
(0.317382 0 -0.27406)
(0.260926 0 1.0393)
(-0.0176136 0 -1.63043)
(0.318842 0 -1.50328)
(-0.29489 0 -0.241901)
(-0.318277 0 -1.54917)
(-0.163636 0 0.719802)
(-0.25887 0 1.12615)
(-0.029062 0 -0.833071)
(0.00437266 0 0.241358)
(-0.244791 0 -1.1718)
(-0.108878 0 -1.87052)
(-0.130408 0 0.0617547)
(-0.289602 0 -0.435902)
(-0.0368621 0 0.53637)
(-0.022748 0 0.492315)
(0.021006 0 0.582994)
(-0.0259085 0 0.528813)
(0.0753698 0 0.689809)
(0.0608948 0 0.598893)
(0.137514 0 0.862708)
(0.0955363 0 0.740972)
(0.210318 0 1.10526)
(0.178805 0 0.940086)
(0.28967 0 -0.186637)
(0.248565 0 1.22528)
(-0.0641178 0 -1.5515)
(0.294099 0 -1.50216)
(-0.313631 0 -0.11036)
(-0.380765 0 -1.39573)
(-0.217784 0 1.10442)
(-0.219039 0 1.2352)
(-0.154048 0 0.84643)
(-0.199517 0 0.928744)
(-0.10401 0 0.652743)
(-0.108738 0 0.729375)
(-0.075095 0 0.508118)
(-0.0924217 0 0.564836)
(-0.0540913 0 0.374638)
(-0.0635035 0 0.433503)
(-0.0364669 0 0.233165)
(-0.0458394 0 0.301395)
(-0.0200028 0 0.0662291)
(-0.0289846 0 0.15216)
(-0.00542449 0 -0.127754)
(-0.0123989 0 -0.0307214)
(0.00172356 0 -0.305073)
(0.000294241 0 -0.230999)
(-0.00142967 0 -0.398515)
(0.00169855 0 -0.377815)
(-0.00749075 0 -0.393982)
(-0.00499632 0 -0.413805)
(-0.0102557 0 -0.339697)
(-0.00968944 0 -0.370715)
(-0.0100289 0 -0.281926)
(-0.0103781 0 -0.308974)
(-0.00865199 0 -0.236498)
(-0.0092646 0 -0.257285)
(-0.00711217 0 -0.202478)
(-0.00769795 0 -0.218657)
(-0.00572239 0 -0.175915)
(-0.00619687 0 -0.189119)
(-0.00453847 0 -0.154027)
(-0.00488964 0 -0.165241)
(-0.00354494 0 -0.135282)
(-0.0037803 0 -0.145049)
(-0.00271326 0 -0.118857)
(-0.00284539 0 -0.12749)
(-0.00201663 0 -0.104273)
(-0.00205853 0 -0.111971)
(-0.00143271 0 -0.0912186)
(-0.00139623 0 -0.0981216)
(-0.000943342 0 -0.079473)
(-0.00083892 0 -0.0856864)
(-0.000533885 0 -0.0688657)
(-0.000370521 0 -0.0744735)
(-0.000192458 0 -0.0592587)
(2.20565e-05 0 -0.0643308)
(9.05697e-05 0 -0.0505347)
(0.000349513 0 -0.0551318)
(0.00032301 0 -0.0425889)
(0.000620641 0 -0.0467661)
(0.00051122 0 -0.0353232)
(0.000842613 0 -0.0391328)
(0.000660383 0 -0.0286424)
(0.00102132 0 -0.0321351)
(0.000774801 0 -0.0224506)
(0.00116172 0 -0.025678)
(0.000858253 0 -0.0166444)
(0.00126825 0 -0.0196645)
(0.000914495 0 -0.0111072)
(0.00134445 0 -0.0139851)
(0.000947398 0 -0.00574195)
(0.00139034 0 -0.0085163)
(0.00142362 0 -0.00318174)
(-0.00130593 0 -0.000734921)
(-0.00154606 0 -0.0005411)
(-0.00130383 0 -0.0011593)
(-0.00154021 0 -0.000943621)
(-0.00130191 0 -0.00163775)
(-0.00154061 0 -0.00139143)
(-0.00130012 0 -0.00216334)
(-0.00153883 0 -0.00190176)
(-0.00129816 0 -0.00271077)
(-0.00153673 0 -0.00244356)
(-0.00129566 0 -0.0032655)
(-0.0015343 0 -0.00299801)
(-0.00129228 0 -0.00382108)
(-0.00153105 0 -0.00355505)
(-0.00128766 0 -0.00437847)
(-0.00152661 0 -0.00411188)
(-0.00128142 0 -0.00494684)
(-0.00152059 0 -0.00467333)
(-0.0012731 0 -0.00554497)
(-0.00151255 0 -0.00525313)
(-0.00126216 0 -0.00620275)
(-0.00150198 0 -0.00587541)
(-0.00124799 0 -0.0069622)
(-0.00148827 0 -0.00657612)
(-0.00122988 0 -0.00787771)
(-0.00147075 0 -0.0074037)
(-0.00120702 0 -0.00901528)
(-0.00144861 0 -0.00841884)
(-0.00117842 0 -0.0104509)
(-0.00142094 0 -0.00969321)
(-0.00114292 0 -0.0122684)
(-0.0013866 0 -0.0113075)
(-0.00109908 0 -0.014557)
(-0.00134424 0 -0.0133489)
(-0.0010452 0 -0.01741)
(-0.00129219 0 -0.0159092)
(-0.000979273 0 -0.0209225)
(-0.00122847 0 -0.0190829)
(-0.000899067 0 -0.0251905)
(-0.00115083 0 -0.0229663)
(-0.000802262 0 -0.0303068)
(-0.00105678 0 -0.0276549)
(-0.000686722 0 -0.0363529)
(-0.000943904 0 -0.0332383)
(-0.000550859 0 -0.0433837)
(-0.000810092 0 -0.039789)
(-0.000393983 0 -0.0514018)
(-0.000653978 0 -0.047342)
(-0.00021623 0 -0.0603283)
(-0.000475081 0 -0.0558654)
(-1.75422e-05 0 -0.0699819)
(-0.000273373 0 -0.0652308)
(0.000204755 0 -0.0800909)
(-4.75167e-05 0 -0.0752028)
(0.000460498 0 -0.090365)
(0.000208901 0 -0.0854767)
(0.000770921 0 -0.100623)
(0.000512358 0 -0.0957851)
(0.00117135 0 -0.11092)
(0.000891353 0 -0.106047)
(0.00181425 0 -0.123349)
(0.00143845 0 -0.117358)
(0.0027074 0 -0.136249)
(0.0022476 0 -0.12992)
(0.00396093 0 -0.150404)
(0.00337786 0 -0.143377)
(0.00573473 0 -0.16662)
(0.00495626 0 -0.158544)
(0.0082764 0 -0.1859)
(0.00718097 0 -0.176266)
(0.0119732 0 -0.210007)
(0.0103547 0 -0.197774)
(0.0173953 0 -0.242547)
(0.0149354 0 -0.225465)
(0.0252324 0 -0.290548)
(0.0215518 0 -0.264236)
(0.0357983 0 -0.365383)
(0.0308186 0 -0.323127)
(0.0474137 0 -0.478151)
(0.0424333 0 -0.415016)
(0.0538592 0 -0.621426)
(0.0531452 0 -0.547102)
(0.0469115 0 -0.750606)
(0.0537643 0 -0.695389)
(0.0302072 0 -0.818217)
(0.0385577 0 -0.797968)
(0.0183421 0 -0.839987)
(0.0211301 0 -0.828866)
(0.0117811 0 -0.877094)
(0.0132476 0 -0.844413)
(-0.00816451 0 -0.934785)
(0.00546958 0 -0.900533)
(-0.0491351 0 -0.891036)
(-0.0282571 0 -0.949317)
(-0.0640559 0 -0.622103)
(-0.0716757 0 -0.814778)
(-0.0186253 0 -0.214876)
(-0.0578937 0 -0.438796)
(0.049669 0 0.166717)
(0.0145354 0 -0.027301)
(0.124935 0 0.483454)
(0.0690134 0 0.314265)
(0.203204 0 0.818522)
(0.155796 0 0.603725)
(0.285994 0 -0.198767)
(0.242399 0 0.98411)
(0.00273443 0 -1.43926)
(0.286408 0 -1.31444)
(-0.240449 0 -0.19356)
(-0.243513 0 -1.38705)
(-0.130569 0 0.644191)
(-0.223454 0 1.0529)
(-0.0361238 0 -0.800168)
(0.0172822 0 0.178396)
(-0.239163 0 -1.13777)
(-0.119134 0 -1.73516)
(-0.133291 0 -0.0057594)
(-0.285699 0 -0.506484)
(-0.034363 0 0.484705)
(-0.0185084 0 0.426362)
(0.0243343 0 0.544792)
(-0.0254121 0 0.489681)
(0.078933 0 0.650415)
(0.0671271 0 0.562494)
(0.140022 0 0.818297)
(0.0963665 0 0.700248)
(0.207657 0 1.05847)
(0.175351 0 0.894996)
(0.272788 0 -0.09778)
(0.241764 0 1.18186)
(-0.0413564 0 -1.35883)
(0.275413 0 -1.29273)
(-0.275929 0 -0.0581192)
(-0.319714 0 -1.23935)
(-0.199815 0 1.05718)
(-0.203071 0 1.18446)
(-0.148887 0 0.811219)
(-0.180375 0 0.894792)
(-0.103641 0 0.625264)
(-0.104743 0 0.699211)
(-0.0768281 0 0.487368)
(-0.0920241 0 0.54296)
(-0.0560035 0 0.357357)
(-0.0630762 0 0.415681)
(-0.0379033 0 0.217031)
(-0.0463742 0 0.285146)
(-0.0209147 0 0.0509987)
(-0.0290409 0 0.136163)
(-0.0062947 0 -0.138612)
(-0.0123704 0 -0.0451629)