/*--------------------------------*- C++ -*----------------------------------*\
  =========                 |
  \\      /  F ield         | OpenFOAM: The Open Source CFD Toolbox
   \\    /   O peration     | Website:  https://openfoam.org
    \\  /    A nd           | Version:  9
     \\/     M anipulation  |
\*---------------------------------------------------------------------------*/
FoamFile
{
    format      ascii;
    class       volScalarField;
    location    "0.18";
    object      alpha.water;
}
// * * * * * * * * * * * * * * * * * * * * * * * * * * * * * * * * * * * * * //

dimensions      [0 0 0 0 0 0 0];

internalField   nonuniform List<scalar> 
5000
(
4.73117e-320
4.72524e-320
4.93078e-320
5.62247e-320
5.19757e-320
4.80429e-320
4.75291e-320
4.77169e-320
4.78552e-320
4.79046e-320
4.78848e-320
4.7786e-320
4.75686e-320
4.74303e-320
4.95251e-320
5.61851e-320
5.14224e-320
4.80232e-320
4.76872e-320
4.79244e-320
5.8359e-320
6.12641e-320
6.42681e-320
6.74202e-320
7.08293e-320
7.46632e-320
7.87936e-320
8.26868e-320
8.60465e-320
8.93666e-320
9.3082e-320
9.72124e-320
1.01639e-319
1.06313e-319
1.11204e-319
1.16323e-319
1.21659e-319
1.27212e-319
1.33002e-319
1.3901e-319
1.45216e-319
1.51619e-319
1.5822e-319
1.64998e-319
1.71974e-319
1.79168e-319
1.86559e-319
1.94178e-319
2.02033e-319
2.10116e-319
4.73414e-320
4.72821e-320
4.93967e-320
5.58294e-320
5.21931e-320
4.81615e-320
4.75291e-320
4.77267e-320
4.78651e-320
4.79145e-320
4.78848e-320
4.7786e-320
4.75489e-320
4.74303e-320
4.95943e-320
5.57701e-320
5.16397e-320
4.81319e-320
4.76872e-320
4.79441e-320
5.83788e-320
6.12839e-320
6.42878e-320
6.74498e-320
7.08688e-320
7.47027e-320
7.88331e-320
8.27066e-320
8.60662e-320
8.93666e-320
9.30622e-320
9.71926e-320
1.01639e-319
1.06323e-319
1.11224e-319
1.16343e-319
1.21698e-319
1.27261e-319
1.33052e-319
1.3905e-319
1.45255e-319
1.51658e-319
1.58249e-319
1.65038e-319
1.72014e-319
1.79188e-319
1.86589e-319
1.94207e-319
2.02063e-319
2.10156e-319
4.7371e-320
4.73315e-320
4.95054e-320
5.53354e-320
5.23512e-320
4.83196e-320
4.75489e-320
4.77267e-320
4.7875e-320
4.79244e-320
4.79046e-320
4.7786e-320
4.75291e-320
4.74698e-320
4.96832e-320
5.52563e-320
5.18176e-320
4.82603e-320
4.7707e-320
4.79441e-320
5.84084e-320
6.13037e-320
6.43076e-320
6.74696e-320
7.08984e-320
7.47521e-320
7.88924e-320
8.2756e-320
8.60959e-320
8.93864e-320
9.30622e-320
9.71926e-320
1.01639e-319
1.06333e-319
1.11244e-319
1.16372e-319
1.21718e-319
1.27291e-319
1.33091e-319
1.39089e-319
1.45305e-319
1.51698e-319
1.58299e-319
1.65077e-319
1.72053e-319
1.79237e-319
1.86638e-319
1.94257e-319
2.02112e-319
2.10205e-319
4.74007e-320
4.74105e-320
4.96042e-320
5.48413e-320
5.24698e-320
4.84777e-320
4.75686e-320
4.77267e-320
4.78848e-320
4.79441e-320
4.79046e-320
4.7786e-320
4.75291e-320
4.75094e-320
4.97623e-320
5.47326e-320
5.19559e-320
4.84086e-320
4.77169e-320
4.79441e-320
5.84183e-320
6.13234e-320
6.43273e-320
6.74894e-320
7.09281e-320
7.48015e-320
7.89418e-320
8.28054e-320
8.61453e-320
8.94061e-320
9.30622e-320
9.71728e-320
1.01639e-319
1.06333e-319
1.11254e-319
1.16392e-319
1.21748e-319
1.27331e-319
1.33131e-319
1.39139e-319
1.45354e-319
1.51747e-319
1.58338e-319
1.65117e-319
1.72093e-319
1.79287e-319
1.86678e-319
1.94306e-319
2.02152e-319
2.10255e-319
4.74105e-320
4.74797e-320
4.96635e-320
5.43769e-320
5.25291e-320
4.86161e-320
4.75785e-320
4.77267e-320
4.79046e-320
4.7954e-320
4.79244e-320
4.7786e-320
4.75291e-320
4.75686e-320
4.98117e-320
5.42484e-320
5.20251e-320
4.8537e-320
4.77267e-320
4.79441e-320
5.84381e-320
6.13432e-320
6.43372e-320
6.74894e-320
7.09478e-320
7.48411e-320
7.90011e-320
8.28647e-320
8.61848e-320
8.94259e-320
9.30622e-320
9.71629e-320
1.01619e-319
1.06333e-319
1.11264e-319
1.16402e-319
1.21777e-319
1.2736e-319
1.33161e-319
1.39178e-319
1.45394e-319
1.51797e-319
1.58378e-319
1.65166e-319
1.72142e-319
1.79326e-319
1.86717e-319
1.94346e-319
2.02201e-319
2.10294e-319
4.74303e-320
4.7539e-320
4.96832e-320
5.39717e-320
5.25291e-320
4.87544e-320
4.75884e-320
4.77169e-320
4.79046e-320
4.79639e-320
4.79342e-320
4.77959e-320
4.75291e-320
4.76279e-320
4.98315e-320
5.38433e-320
5.20548e-320
4.86655e-320
4.77465e-320
4.79441e-320
5.84381e-320
6.13531e-320
6.43471e-320
6.75091e-320
7.09775e-320
7.49004e-320
7.90604e-320
8.2924e-320
8.62342e-320
8.94456e-320
9.30622e-320
9.71531e-320
1.0161e-319
1.06333e-319
1.11264e-319
1.16422e-319
1.21797e-319
1.2739e-319
1.332e-319
1.39218e-319
1.45433e-319
1.51836e-319
1.58427e-319
1.65206e-319
1.72182e-319
1.79366e-319
1.86757e-319
1.94385e-319
2.02251e-319
2.10344e-319
4.74303e-320
4.75884e-320
4.96931e-320
5.36259e-320
5.25093e-320
4.8873e-320
4.76082e-320
4.7707e-320
4.79145e-320
4.79837e-320
4.79441e-320
4.78058e-320
4.75291e-320
4.76773e-320
4.98413e-320
5.34974e-320
5.20548e-320
4.87742e-320
4.77465e-320
4.79244e-320
5.84381e-320
6.1363e-320
6.43471e-320
6.75091e-320
7.09972e-320
7.49399e-320
7.91296e-320
8.29833e-320
8.62836e-320
8.94753e-320
9.30622e-320
9.71333e-320
1.016e-319
1.06323e-319
1.11273e-319
1.16441e-319
1.21817e-319
1.2742e-319
1.3324e-319
1.39247e-319
1.45473e-319
1.51876e-319
1.58467e-319
1.65245e-319
1.72221e-319
1.79405e-319
1.86796e-319
1.94425e-319
2.0229e-319
2.10383e-319
4.74303e-320
4.7618e-320
4.96832e-320
5.33196e-320
5.24599e-320
4.89718e-320
4.76279e-320
4.76971e-320
4.79244e-320
4.80034e-320
4.79639e-320
4.78058e-320
4.7539e-320
4.77267e-320
4.98413e-320
5.3201e-320
5.2035e-320
4.88532e-320
4.77663e-320
4.79145e-320
5.84381e-320
6.1363e-320
6.4357e-320
6.7519e-320
7.1017e-320
7.49794e-320
7.91888e-320
8.30426e-320
8.6333e-320
8.95049e-320
9.30622e-320
9.71333e-320
1.0159e-319
1.06323e-319
1.11283e-319
1.16451e-319
1.21837e-319
1.27449e-319
1.33259e-319
1.39287e-319
1.45512e-319
1.51915e-319
1.58496e-319
1.65275e-319
1.72251e-319
1.79445e-319
1.86836e-319
1.94464e-319
2.0232e-319
2.10413e-319
4.74105e-320
4.76477e-320
4.96635e-320
5.30627e-320
5.23907e-320
4.90607e-320
4.76477e-320
4.76872e-320
4.79244e-320
4.80133e-320
4.79837e-320
4.78157e-320
4.75489e-320
4.77663e-320
4.98216e-320
5.29638e-320
5.19955e-320
4.89323e-320
4.77663e-320
4.79046e-320
5.84381e-320
6.1363e-320
6.4357e-320
6.7519e-320
7.10368e-320
7.50387e-320
7.92481e-320
8.31018e-320
8.63824e-320
8.95247e-320
9.30622e-320
9.71135e-320
1.0158e-319
1.06323e-319
1.11283e-319
1.16461e-319
1.21856e-319
1.27469e-319
1.33299e-319
1.39327e-319
1.45542e-319
1.51945e-319
1.58536e-319
1.65314e-319
1.72291e-319
1.79474e-319
1.86875e-319
1.94494e-319
2.0235e-319
2.10452e-319
4.73809e-320
4.76477e-320
4.96437e-320
5.28453e-320
5.23216e-320
4.91299e-320
4.76675e-320
4.76872e-320
4.79244e-320
4.80232e-320
4.79935e-320
4.78256e-320
4.75489e-320
4.78058e-320
4.98216e-320
5.27662e-320
5.19559e-320
4.90014e-320
4.77761e-320
4.78848e-320
5.84381e-320
6.1363e-320
6.4357e-320
6.75289e-320
7.10565e-320
7.50782e-320
7.93074e-320
8.31611e-320
8.6422e-320
8.95445e-320
9.30622e-320
9.70938e-320
1.0156e-319
1.06323e-319
1.11293e-319
1.16481e-319
1.21876e-319
1.27499e-319
1.33329e-319
1.39356e-319
1.45572e-319
1.51975e-319
1.58575e-319
1.65354e-319
1.7232e-319
1.79504e-319
1.86895e-319
1.94524e-319
2.02379e-319
2.10472e-319
4.73513e-320
4.76477e-320
4.96042e-320
5.26476e-320
5.22326e-320
4.91892e-320
4.76872e-320
4.76773e-320
4.79342e-320
4.80429e-320
4.80034e-320
4.78256e-320
4.75489e-320
4.78256e-320
4.98216e-320
5.25883e-320
5.18967e-320
4.90508e-320
4.7786e-320
4.7875e-320
5.84282e-320
6.1363e-320
6.4357e-320
6.75289e-320
7.10763e-320
7.51276e-320
7.93667e-320
8.32204e-320
8.64714e-320
8.95642e-320
9.30523e-320
9.70839e-320
1.0155e-319
1.06313e-319
1.11303e-319
1.16501e-319
1.21906e-319
1.27528e-319
1.33358e-319
1.39386e-319
1.45611e-319
1.52014e-319
1.58605e-319
1.65374e-319
1.7235e-319
1.79534e-319
1.86925e-319
1.94543e-319
2.02409e-319
2.10511e-319
4.7292e-320
4.76477e-320
4.95745e-320
5.24599e-320
5.21536e-320
4.92386e-320
4.7707e-320
4.76675e-320
4.79441e-320
4.80528e-320
4.80232e-320
4.78256e-320
4.75489e-320
4.78453e-320
4.98117e-320
5.24401e-320
5.18374e-320
4.91002e-320
4.78058e-320
4.78651e-320
5.84183e-320
6.1363e-320
6.43471e-320
6.75289e-320
7.1096e-320
7.5177e-320
7.94359e-320
8.32797e-320
8.65208e-320
8.95939e-320
9.30523e-320
9.7074e-320
1.0154e-319
1.06303e-319
1.11303e-319
1.16511e-319
1.21935e-319
1.27558e-319
1.33398e-319
1.39425e-319
1.45651e-319
1.52054e-319
1.58635e-319
1.65413e-319
1.7238e-319
1.79563e-319
1.86954e-319
1.94573e-319
2.02429e-319
2.10531e-319
4.72327e-320
4.76279e-320
4.95251e-320
5.22919e-320
5.20548e-320
4.9288e-320
4.77267e-320
4.76675e-320
4.79441e-320
4.80627e-320
4.80232e-320
4.78256e-320
4.75489e-320
4.78651e-320
4.98018e-320
5.23018e-320
5.17781e-320
4.91497e-320
4.78058e-320
4.78552e-320
5.84183e-320
6.1363e-320
6.43471e-320
6.7519e-320
7.11059e-320
7.52166e-320
7.9505e-320
8.3339e-320
8.65603e-320
8.96136e-320
9.30424e-320
9.70543e-320
1.01521e-319
1.06303e-319
1.11303e-319
1.1652e-319
1.21955e-319
1.27588e-319
1.33427e-319
1.39465e-319
1.4568e-319
1.52083e-319
1.58674e-319
1.65443e-319
1.72409e-319
1.79583e-319
1.86974e-319
1.94593e-319
2.02448e-319
2.10551e-319
4.71734e-320
4.75983e-320
4.94856e-320
5.21239e-320
5.19658e-320
4.93275e-320
4.77465e-320
4.76675e-320
4.79441e-320
4.80825e-320
4.80429e-320
4.78256e-320
4.75489e-320
4.78848e-320
4.97821e-320
5.21733e-320
5.17188e-320
4.91892e-320
4.78256e-320
4.78453e-320
5.84183e-320
6.1363e-320
6.43471e-320
6.7519e-320
7.11257e-320
7.52561e-320
7.95643e-320
8.33983e-320
8.65998e-320
8.96433e-320
9.30424e-320
9.70345e-320
1.01501e-319
1.06303e-319
1.11323e-319
1.1654e-319
1.21975e-319
1.27617e-319
1.33457e-319
1.39494e-319
1.4571e-319
1.52113e-319
1.58694e-319
1.65472e-319
1.72429e-319
1.79603e-319
1.86994e-319
1.94612e-319
2.02468e-319
2.10561e-319
4.70943e-320
4.75686e-320
4.94263e-320
5.19757e-320
5.18769e-320
4.93572e-320
4.77761e-320
4.76576e-320
4.7954e-320
4.81022e-320
4.80627e-320
4.78256e-320
4.7539e-320
4.78848e-320
4.97623e-320
5.20548e-320
5.16595e-320
4.92188e-320
4.78453e-320
4.78354e-320
5.84084e-320
6.1363e-320
6.43372e-320
6.75091e-320
7.11455e-320
7.52956e-320
7.96137e-320
8.34576e-320
8.66492e-320
8.9663e-320
9.30424e-320
9.70246e-320
1.01501e-319
1.06293e-319
1.11323e-319
1.1656e-319
1.21995e-319
1.27647e-319
1.33497e-319
1.39524e-319
1.45749e-319
1.52152e-319
1.58724e-319
1.65492e-319
1.72449e-319
1.79623e-319
1.87014e-319
1.94622e-319
2.02468e-319
2.10571e-319
4.7035e-320
4.75291e-320
4.93769e-320
5.18176e-320
5.17781e-320
4.93868e-320
4.78058e-320
4.76675e-320
4.79639e-320
4.8122e-320
4.80726e-320
4.78256e-320
4.75291e-320
4.78947e-320
4.97326e-320
5.19362e-320
5.15903e-320
4.92485e-320
4.78651e-320
4.78256e-320
5.83986e-320
6.1363e-320
6.43273e-320
6.75091e-320
7.11455e-320
7.53351e-320
7.96631e-320
8.34971e-320
8.66789e-320
8.96828e-320
9.30424e-320
9.70147e-320
1.01481e-319
1.06283e-319
1.11333e-319
1.1658e-319
1.22024e-319
1.27676e-319
1.33526e-319
1.39564e-319
1.45779e-319
1.52172e-319
1.58753e-319
1.65512e-319
1.72468e-319
1.79642e-319
1.87014e-319
1.94632e-319
2.02478e-319
2.10571e-319
4.69758e-320
4.74896e-320
4.93078e-320
5.16595e-320
5.16694e-320
4.94066e-320
4.78354e-320
4.76675e-320
4.79639e-320
4.81418e-320
4.80825e-320
4.78256e-320
4.75291e-320
4.78947e-320
4.96931e-320
5.17978e-320
5.15113e-320
4.92682e-320
4.78848e-320
4.78256e-320
5.83986e-320
6.13531e-320
6.43175e-320
6.74894e-320
7.11553e-320
7.53648e-320
7.97027e-320
8.35366e-320
8.67184e-320
8.97026e-320
9.30523e-320
9.70048e-320
1.01481e-319
1.06283e-319
1.11343e-319
1.16599e-319
1.22054e-319
1.27706e-319
1.33556e-319
1.39593e-319
1.45809e-319
1.52202e-319
1.58773e-319
1.65532e-319
1.72488e-319
1.79642e-319
1.87033e-319
1.94642e-319
2.02478e-319
2.10571e-319
4.69165e-320
4.74501e-320
4.92485e-320
5.15113e-320
5.15607e-320
4.94263e-320
4.78651e-320
4.76773e-320
4.79837e-320
4.81615e-320
4.81022e-320
4.78354e-320
4.75291e-320
4.78947e-320
4.96437e-320
5.16793e-320
5.14224e-320
4.9288e-320
4.79046e-320
4.78256e-320
5.83788e-320
6.13432e-320
6.43076e-320
6.74795e-320
7.11553e-320
7.53944e-320
7.97422e-320
8.35761e-320
8.6748e-320
8.97223e-320
9.30622e-320
9.6995e-320
1.01461e-319
1.06283e-319
1.11353e-319
1.16619e-319
1.22074e-319
1.27736e-319
1.33595e-319
1.39623e-319
1.45828e-319
1.52222e-319
1.58793e-319
1.65552e-319
1.72488e-319
1.79652e-319
1.87033e-319
1.94632e-319
2.02468e-319
2.10551e-319
4.68769e-320
4.74303e-320
4.91892e-320
5.13631e-320
5.14421e-320
4.94362e-320
4.79046e-320
4.76872e-320
4.79935e-320
4.81813e-320
4.81319e-320
4.78453e-320
4.75291e-320
4.78848e-320
4.95943e-320
5.15409e-320
5.13334e-320
4.93078e-320
4.79244e-320
4.78256e-320
5.83788e-320
6.13432e-320
6.42878e-320
6.74696e-320
7.11553e-320
7.53944e-320
7.9762e-320
8.35959e-320
8.67678e-320
8.97421e-320
9.30622e-320
9.6995e-320
1.01461e-319
1.06293e-319
1.11362e-319
1.16639e-319
1.22103e-319
1.27765e-319
1.33615e-319
1.39643e-319
1.45858e-319
1.52241e-319
1.58812e-319
1.65552e-319
1.72498e-319
1.79652e-319
1.87024e-319
1.94622e-319
2.02458e-319
2.10531e-319
4.68473e-320
4.74105e-320
4.91299e-320
5.12148e-320
5.13235e-320
4.94362e-320
4.79342e-320
4.7707e-320
4.80034e-320
4.8201e-320
4.81516e-320
4.78651e-320
4.75489e-320
4.78947e-320
4.9535e-320
5.14026e-320
5.12445e-320
4.93078e-320
4.79441e-320
4.78256e-320
5.83689e-320
6.13333e-320
6.42681e-320
6.74498e-320
7.11455e-320
7.53944e-320
7.9762e-320
8.36058e-320
8.67777e-320
8.97421e-320
9.30721e-320
9.6995e-320
1.01461e-319
1.06303e-319
1.11382e-319
1.16659e-319
1.22133e-319
1.27785e-319
1.33635e-319
1.39672e-319
1.45878e-319
1.52251e-319
1.58812e-319
1.65552e-319
1.72498e-319
1.79642e-319
1.87014e-319
1.94603e-319
2.02429e-319
2.10511e-319
4.68374e-320
4.73908e-320
4.90805e-320
5.10864e-320
5.1205e-320
4.94263e-320
4.79639e-320
4.77267e-320
4.80232e-320
4.82307e-320
4.81813e-320
4.78848e-320
4.75588e-320
4.79046e-320
4.94856e-320
5.12643e-320
5.11358e-320
4.93078e-320
4.79738e-320
4.78256e-320
5.8359e-320
6.13234e-320
6.42582e-320
6.74301e-320
7.11257e-320
7.53944e-320
7.9762e-320
8.36058e-320
8.67876e-320
8.97618e-320
9.3082e-320
9.6995e-320
1.01461e-319
1.06303e-319
1.11382e-319
1.16669e-319
1.22153e-319
1.27815e-319
1.33665e-319
1.39692e-319
1.45888e-319
1.52271e-319
1.58812e-319
1.65552e-319
1.72488e-319
1.79623e-319
1.86994e-319
1.94583e-319
2.02399e-319
2.10472e-319
4.68374e-320
4.73908e-320
4.90311e-320
5.0948e-320
5.10864e-320
4.94066e-320
4.80034e-320
4.77465e-320
4.80429e-320
4.82505e-320
4.8201e-320
4.79046e-320
4.75785e-320
4.79046e-320
4.94263e-320
5.11457e-320
5.1037e-320
4.92979e-320
4.79935e-320
4.78256e-320
5.8359e-320
6.13135e-320
6.42483e-320
6.74103e-320
7.11059e-320
7.53747e-320
7.97323e-320
8.3586e-320
8.67777e-320
8.97618e-320
9.3082e-320
9.6995e-320
1.01461e-319
1.06303e-319
1.11392e-319
1.16679e-319
1.22163e-319
1.27825e-319
1.33674e-319
1.39702e-319
1.45907e-319
1.52271e-319
1.58812e-319
1.65552e-319
1.72468e-319
1.79603e-319
1.86954e-319
1.94543e-319
2.0235e-319
2.10413e-319
4.68473e-320
4.74105e-320
4.90113e-320
5.08394e-320
5.09777e-320
4.93868e-320
4.80232e-320
4.77663e-320
4.80627e-320
4.82801e-320
4.82208e-320
4.79244e-320
4.76082e-320
4.79145e-320
4.93769e-320
5.10073e-320
5.09382e-320
4.9288e-320
4.80232e-320
4.78354e-320
5.83492e-320
6.13037e-320
6.42285e-320
6.73906e-320
7.10862e-320
7.53351e-320
7.97027e-320
8.35564e-320
8.67678e-320
8.97618e-320
9.3082e-320
9.6995e-320
1.01461e-319
1.06303e-319
1.11392e-319
1.16688e-319
1.22173e-319
1.27844e-319
1.33694e-319
1.39712e-319
1.45907e-319
1.52271e-319
1.58812e-319
1.65532e-319
1.72449e-319
1.79573e-319
1.86915e-319
1.94484e-319
2.023e-319
2.10353e-319
4.68769e-320
4.74303e-320
4.89915e-320
5.07307e-320
5.0869e-320
4.9367e-320
4.80627e-320
4.77959e-320
4.80825e-320
4.82999e-320
4.82603e-320
4.79441e-320
4.76279e-320
4.79244e-320
4.93275e-320
5.08888e-320
5.08492e-320
4.9288e-320
4.80429e-320
4.78453e-320
5.83393e-320
6.12938e-320
6.42187e-320
6.73708e-320
7.10664e-320
7.52956e-320
7.96434e-320
8.35169e-320
8.67382e-320
8.9752e-320
9.3082e-320
9.6995e-320
1.01442e-319
1.06283e-319
1.11392e-319
1.16698e-319
1.22173e-319
1.27844e-319
1.33694e-319
1.39712e-319
1.45898e-319
1.52251e-319
1.58793e-319
1.65502e-319
1.72409e-319
1.79524e-319
1.86866e-319
1.94425e-319
2.02231e-319
2.10274e-319
4.69165e-320
4.74698e-320
4.89817e-320
5.06516e-320
5.07702e-320
4.93473e-320
4.80825e-320
4.78256e-320
4.81022e-320
4.83196e-320
4.82801e-320
4.79738e-320
4.76576e-320
4.79441e-320
4.9288e-320
5.07801e-320
5.07504e-320
4.92682e-320
4.80627e-320
4.78552e-320
5.83393e-320
6.12839e-320
6.42088e-320
6.7351e-320
7.10269e-320
7.52561e-320
7.95841e-320
8.34576e-320
8.66986e-320
8.97322e-320
9.30721e-320
9.69752e-320
1.01432e-319
1.06274e-319
1.11382e-319
1.16679e-319
1.22173e-319
1.27844e-319
1.33694e-319
1.39702e-319
1.45888e-319
1.52232e-319
1.58753e-319
1.65463e-319
1.7237e-319
1.79474e-319
1.86796e-319
1.94356e-319
2.02152e-319
2.10176e-319
4.6956e-320
4.75094e-320
4.89817e-320
5.05726e-320
5.06813e-320
4.93275e-320
4.8122e-320
4.78552e-320
4.8122e-320
4.83493e-320
4.82999e-320
4.80034e-320
4.76872e-320
4.7954e-320
4.92287e-320
5.06714e-320
5.06714e-320
4.92682e-320
4.80825e-320
4.78651e-320
5.83294e-320
6.1274e-320
6.4189e-320
6.73313e-320
7.09972e-320
7.51968e-320
7.9505e-320
8.33785e-320
8.66591e-320
8.97124e-320
9.30622e-320
9.69554e-320
1.01402e-319
1.06244e-319
1.11362e-319
1.16669e-319
1.22163e-319
1.27835e-319
1.33674e-319
1.39682e-319
1.45868e-319
1.52202e-319
1.58714e-319
1.65413e-319
1.7231e-319
1.79405e-319
1.86727e-319
1.94267e-319
2.02053e-319
2.10057e-319
4.69955e-320
4.75588e-320
4.89915e-320
5.04935e-320
5.05923e-320
4.93078e-320
4.81418e-320
4.78848e-320
4.81516e-320
4.83789e-320
4.83295e-320
4.80232e-320
4.7707e-320
4.79639e-320
4.91892e-320
5.05528e-320
5.05824e-320
4.92583e-320
4.81022e-320
4.7875e-320
5.83195e-320
6.12641e-320
6.4189e-320
6.73214e-320
7.09676e-320
7.51375e-320
7.9426e-320
8.33093e-320
8.66097e-320
8.96828e-320
9.30424e-320
9.69357e-320
1.01382e-319
1.06224e-319
1.11323e-319
1.16639e-319
1.22133e-319
1.27805e-319
1.33655e-319
1.39662e-319
1.45828e-319
1.52162e-319
1.58674e-319
1.65354e-319
1.72241e-319
1.79326e-319
1.86638e-319
1.94168e-319
2.01935e-319
2.09938e-319
4.70548e-320
4.76082e-320
4.89915e-320
5.04342e-320
5.05133e-320
4.9288e-320
4.81714e-320
4.79244e-320
4.81813e-320
4.83987e-320
4.83591e-320
4.80528e-320
4.77366e-320
4.79738e-320
4.91299e-320
5.0454e-320
5.04935e-320
4.92485e-320
4.8122e-320
4.78848e-320
5.83195e-320
6.12543e-320
6.41692e-320
6.73016e-320
7.09281e-320
7.50782e-320
7.93469e-320
8.32303e-320
8.65504e-320
8.96433e-320
9.30029e-320
9.6906e-320
1.01343e-319
1.06175e-319
1.11283e-319
1.16609e-319
1.22113e-319
1.27785e-319
1.33615e-319
1.39623e-319
1.45779e-319
1.52113e-319
1.58605e-319
1.65295e-319
1.72162e-319
1.79237e-319
1.8653e-319
1.94049e-319
2.01796e-319
2.0978e-319
4.70943e-320
4.76477e-320
4.90113e-320
5.03749e-320
5.04441e-320
4.92682e-320
4.8201e-320
4.7954e-320
4.8201e-320
4.84184e-320
4.83789e-320
4.80825e-320
4.77663e-320
4.79837e-320
4.90805e-320
5.03552e-320
5.04145e-320
4.92386e-320
4.81418e-320
4.78848e-320
5.83096e-320
6.12444e-320
6.41692e-320
6.72917e-320
7.08885e-320
7.5009e-320
7.92679e-320
8.31414e-320
8.64911e-320
8.96136e-320
9.29832e-320
9.68665e-320
1.01283e-319
1.06125e-319
1.11244e-319
1.1656e-319
1.22064e-319
1.27736e-319
1.33576e-319
1.39564e-319
1.4573e-319
1.52044e-319
1.58536e-319
1.65206e-319
1.72073e-319
1.79128e-319
1.86411e-319
1.93911e-319
2.01658e-319
2.09622e-319
4.71339e-320
4.76971e-320
4.90113e-320
5.03156e-320
5.03749e-320
4.92485e-320
4.82208e-320
4.79837e-320
4.82208e-320
4.84382e-320
4.83987e-320
4.81022e-320
4.7786e-320
4.79837e-320
4.90311e-320
5.02465e-320
5.03354e-320
4.92287e-320
4.81615e-320
4.78947e-320
5.82997e-320
6.12246e-320
6.41495e-320
6.7272e-320
7.0849e-320
7.49399e-320
7.91691e-320
8.30623e-320
8.64318e-320
8.95741e-320
9.29436e-320
9.68171e-320
1.01234e-319
1.06066e-319
1.11185e-319
1.16501e-319
1.22014e-319
1.27686e-319
1.33516e-319
1.39504e-319
1.4566e-319
1.51975e-319
1.58457e-319
1.65117e-319
1.71964e-319
1.7901e-319
1.86283e-319
1.93773e-319
2.0149e-319
2.09444e-319
4.71734e-320
4.77465e-320
4.90311e-320
5.02761e-320
5.03058e-320
4.92287e-320
4.82406e-320
4.80232e-320
4.82603e-320
4.84678e-320
4.84184e-320
4.8122e-320
4.78157e-320
4.80034e-320
4.89915e-320
5.01575e-320
5.02564e-320
4.92089e-320
4.81813e-320
4.79046e-320
5.828e-320
6.12147e-320
6.41396e-320
6.72522e-320
7.08194e-320
7.48806e-320
7.909e-320
8.29833e-320
8.63726e-320
8.95445e-320
9.2914e-320
9.67776e-320
1.01175e-319
1.05997e-319
1.11105e-319
1.16441e-319
1.21945e-319
1.27617e-319
1.33457e-319
1.39445e-319
1.45581e-319
1.51886e-319
1.58358e-319
1.65008e-319
1.71846e-319
1.78891e-319
1.86144e-319
1.93614e-319
2.01312e-319
2.09247e-319
4.72129e-320
4.7786e-320
4.9041e-320
5.02168e-320
5.02465e-320
4.92089e-320
4.82603e-320
4.80429e-320
4.82801e-320
4.84975e-320
4.84481e-320
4.81615e-320
4.78453e-320
4.80034e-320
4.8952e-320
5.00686e-320
5.01872e-320
4.91892e-320
4.81912e-320
4.79046e-320
5.828e-320
6.12049e-320
6.41297e-320
6.72325e-320
7.07798e-320
7.48015e-320
7.89912e-320
8.29042e-320
8.63231e-320
8.95049e-320
9.28843e-320
9.67381e-320
1.01106e-319
1.05928e-319
1.11026e-319
1.16362e-319
1.21876e-319
1.27548e-319
1.33378e-319
1.39366e-319
1.45492e-319
1.51797e-319
1.58259e-319
1.64899e-319
1.71717e-319
1.78753e-319
1.85986e-319
1.93437e-319
2.01124e-319
2.09029e-319
4.72524e-320
4.78256e-320
4.90508e-320
5.01773e-320
5.01872e-320
4.91892e-320
4.829e-320
4.80825e-320
4.82999e-320
4.85172e-320
4.84777e-320
4.81813e-320
4.7875e-320
4.80232e-320
4.89224e-320
4.99896e-320
5.0118e-320
4.91793e-320
4.8201e-320
4.79145e-320
5.82602e-320
6.11851e-320
6.411e-320
6.72127e-320
7.07304e-320
7.47423e-320
7.89122e-320
8.28252e-320
8.62639e-320
8.94753e-320
9.28448e-320
9.66788e-320
1.01046e-319
1.05849e-319
1.10947e-319
1.16283e-319
1.21797e-319
1.27469e-319
1.33299e-319
1.39267e-319
1.45404e-319
1.51698e-319
1.58141e-319
1.64771e-319
1.71579e-319
1.78595e-319
1.85818e-319
1.93259e-319
2.00917e-319
2.08812e-319
4.7292e-320
4.78651e-320
4.90706e-320
5.01477e-320
5.01378e-320
4.91793e-320
4.83196e-320
4.81121e-320
4.83394e-320
4.8537e-320
4.84975e-320
4.82109e-320
4.79046e-320
4.80429e-320
4.89026e-320
4.99204e-320
5.00587e-320
4.91694e-320
4.82208e-320
4.79244e-320
5.82602e-320
6.11653e-320
6.41001e-320
6.71929e-320
7.06909e-320
7.46632e-320
7.88331e-320
8.27461e-320
8.62243e-320
8.94456e-320
9.28251e-320
9.66392e-320
1.00977e-319
1.0576e-319
1.10868e-319
1.16194e-319
1.21708e-319
1.2738e-319
1.332e-319
1.39178e-319
1.45305e-319
1.51579e-319
1.58022e-319
1.64642e-319
1.71441e-319
1.78437e-319
1.8564e-319
1.93061e-319
2.00699e-319
2.08565e-319
4.73117e-320
4.79145e-320
4.90904e-320
5.0118e-320
5.00884e-320
4.91694e-320
4.83394e-320
4.81418e-320
4.83591e-320
4.85568e-320
4.85172e-320
4.82406e-320
4.79441e-320
4.80726e-320
4.88829e-320
4.98611e-320
4.99994e-320
4.91595e-320
4.82406e-320
4.79244e-320
5.82405e-320
6.11554e-320
6.40803e-320
6.71534e-320
7.06415e-320
7.45841e-320
7.87343e-320
8.26769e-320
8.61848e-320
8.94259e-320
9.28053e-320
9.65997e-320
1.00908e-319
1.05671e-319
1.1077e-319
1.16105e-319
1.21619e-319
1.27291e-319
1.33111e-319
1.39079e-319
1.45196e-319
1.51461e-319
1.57893e-319
1.64494e-319
1.71283e-319
1.78259e-319
1.85452e-319
1.92844e-319
2.00472e-319
2.08308e-319
4.73513e-320
4.79639e-320
4.91101e-320
5.00983e-320
5.00488e-320
4.91497e-320
4.83591e-320
4.81813e-320
4.83987e-320
4.85963e-320
4.85469e-320
4.82702e-320
4.79837e-320
4.81022e-320
4.8873e-320
4.98117e-320
4.99599e-320
4.91497e-320
4.82603e-320
4.79342e-320
5.82405e-320
6.11456e-320
6.40704e-320
6.71336e-320
7.05921e-320
7.45051e-320
7.86553e-320
8.26078e-320
8.61453e-320
8.94061e-320
9.27855e-320
9.65602e-320
1.00849e-319
1.05592e-319
1.10681e-319
1.16007e-319
1.2152e-319
1.27192e-319
1.33002e-319
1.38971e-319
1.45077e-319
1.51342e-319
1.57755e-319
1.64346e-319
1.71125e-319
1.78081e-319
1.85255e-319
1.92626e-319
2.00225e-319
2.08041e-319
4.73809e-320
4.80034e-320
4.91497e-320
5.00785e-320
5.00093e-320
4.91497e-320
4.83888e-320
4.82208e-320
4.84184e-320
4.86161e-320
4.85765e-320
4.82999e-320
4.80034e-320
4.8122e-320
4.8873e-320
4.97623e-320
4.99204e-320
4.91497e-320
4.82702e-320
4.79441e-320
5.82306e-320
6.11258e-320
6.40507e-320
6.70941e-320
7.05328e-320
7.4426e-320
7.85564e-320
8.25287e-320
8.61058e-320
8.93962e-320
9.27658e-320
9.65207e-320
1.00789e-319
1.05513e-319
1.10582e-319
1.15908e-319
1.21422e-319
1.27084e-319
1.32894e-319
1.38852e-319
1.44959e-319
1.51204e-319
1.57607e-319
1.64188e-319
1.70947e-319
1.77893e-319
1.85037e-319
1.92399e-319
1.99968e-319
2.07755e-319
4.74105e-320
4.80528e-320
4.91694e-320
5.00587e-320
4.99797e-320
4.91497e-320
4.84184e-320
4.82603e-320
4.8458e-320
4.86358e-320
4.85963e-320
4.83196e-320
4.80429e-320
4.81418e-320
4.88631e-320
4.97228e-320
4.98809e-320
4.91497e-320
4.829e-320
4.79639e-320
5.82207e-320
6.1106e-320
6.40309e-320
6.70744e-320
7.04735e-320
7.43272e-320
7.84477e-320
8.24398e-320
8.60564e-320
8.93864e-320
9.27559e-320
9.6491e-320
1.0073e-319
1.05424e-319
1.10473e-319
1.15799e-319
1.21303e-319
1.26975e-319
1.32785e-319
1.38734e-319
1.44821e-319
1.51066e-319
1.57459e-319
1.6402e-319
1.70759e-319
1.77686e-319
1.8482e-319
1.92152e-319
1.99701e-319
2.07448e-319
4.74501e-320
4.81022e-320
4.92089e-320
5.00488e-320
4.99599e-320
4.91497e-320
4.84481e-320
4.82999e-320
4.84975e-320
4.86753e-320
4.86161e-320
4.83493e-320
4.80627e-320
4.81714e-320
4.88532e-320
4.96931e-320
4.98413e-320
4.91497e-320
4.83097e-320
4.79639e-320
5.82207e-320
6.1106e-320
6.40111e-320
6.70348e-320
7.04142e-320
7.42284e-320
7.83292e-320
8.2341e-320
8.60069e-320
8.93666e-320
9.2746e-320
9.64614e-320
1.00661e-319
1.05335e-319
1.10374e-319
1.1569e-319
1.21184e-319
1.26856e-319
1.32657e-319
1.38595e-319
1.44682e-319
1.50907e-319
1.57291e-319
1.63842e-319
1.70571e-319
1.77478e-319
1.84583e-319
1.91895e-319
1.99425e-319
2.07132e-319
4.74797e-320
4.81516e-320
4.92287e-320
5.0039e-320
4.99402e-320
4.91497e-320
4.84777e-320
4.83394e-320
4.85172e-320
4.86951e-320
4.86457e-320
4.83789e-320
4.81022e-320
4.81912e-320
4.88532e-320
4.96635e-320
4.98216e-320
4.91497e-320
4.83394e-320
4.79837e-320
5.82108e-320
6.10863e-320
6.39914e-320
6.70052e-320
7.03451e-320
7.41296e-320
7.82106e-320
8.22323e-320
8.59378e-320
8.9337e-320
9.27262e-320
9.64317e-320
1.00602e-319
1.05246e-319
1.10266e-319
1.15572e-319
1.21066e-319
1.26718e-319
1.32528e-319
1.38457e-319
1.44534e-319
1.50749e-319
1.57133e-319
1.63654e-319
1.70374e-319
1.77261e-319
1.84346e-319
1.91638e-319
1.99128e-319
2.06816e-319
4.75192e-320
4.8201e-320
4.92682e-320
5.0039e-320
4.99204e-320
4.91497e-320
4.85074e-320
4.83789e-320
4.85568e-320
4.87149e-320
4.86655e-320
4.83987e-320
4.8122e-320
4.82208e-320
4.88532e-320
4.96338e-320
4.98018e-320
4.91497e-320
4.83591e-320
4.79935e-320
5.82009e-320
6.10764e-320
6.39716e-320
6.69755e-320
7.02759e-320
7.40308e-320
7.80821e-320
8.21236e-320
8.58686e-320
8.93073e-320
9.27065e-320
9.64021e-320
1.00542e-319
1.05157e-319
1.10157e-319
1.15443e-319
1.20928e-319
1.26589e-319
1.3239e-319
1.38319e-319
1.44386e-319
1.50591e-319
1.56955e-319
1.63467e-319
1.70156e-319
1.77034e-319
1.84089e-319
1.91362e-319
1.98812e-319
2.0646e-319
4.75588e-320
4.82603e-320
4.93078e-320
5.0039e-320
4.99006e-320
4.91595e-320
4.8537e-320
4.84184e-320
4.85963e-320
4.87544e-320
4.86951e-320
4.84184e-320
4.81516e-320
4.82406e-320
4.88532e-320
4.96042e-320
4.97821e-320
4.91595e-320
4.83789e-320
4.80034e-320
5.82009e-320
6.10665e-320
6.39617e-320
6.69459e-320
7.02265e-320
7.3932e-320
7.79537e-320
8.19951e-320
8.57797e-320
8.92678e-320
9.26867e-320
9.63626e-320
1.00473e-319
1.05058e-319
1.10038e-319
1.15315e-319
1.20789e-319
1.26441e-319
1.32232e-319
1.38161e-319
1.44218e-319
1.50413e-319
1.56757e-319
1.63259e-319
1.69939e-319
1.76796e-319
1.83832e-319
1.91065e-319
1.98496e-319
2.06104e-319
4.76082e-320
4.83196e-320
4.93572e-320
5.00488e-320
4.98907e-320
4.91694e-320
4.85765e-320
4.8458e-320
4.86358e-320
4.87742e-320
4.87149e-320
4.84481e-320
4.81813e-320
4.82603e-320
4.88532e-320
4.95844e-320
4.97623e-320
4.91694e-320
4.83987e-320
4.80232e-320
5.82009e-320
6.10468e-320
6.39519e-320
6.69261e-320
7.01771e-320
7.38332e-320
7.78252e-320
8.18766e-320
8.56907e-320
8.92085e-320
9.2667e-320
9.6323e-320
1.00414e-319
1.04969e-319
1.0992e-319
1.15177e-319
1.20651e-319
1.26293e-319
1.32074e-319
1.37993e-319
1.4404e-319
1.50235e-319
1.5656e-319
1.63052e-319
1.69712e-319
1.7654e-319
1.83565e-319
1.90769e-319
1.9817e-319
2.05749e-319
4.76675e-320
4.83888e-320
4.94066e-320
5.00587e-320
4.98809e-320
4.91892e-320
4.86161e-320
4.84975e-320
4.86655e-320
4.88038e-320
4.87346e-320
4.84777e-320
4.8201e-320
4.82801e-320
4.88532e-320
4.95647e-320
4.97425e-320
4.91892e-320
4.84184e-320
4.80429e-320
5.82009e-320
6.10468e-320
6.3942e-320
6.69064e-320
7.01178e-320
7.37344e-320
7.77066e-320
8.17382e-320
8.55919e-320
8.91492e-320
9.26274e-320
9.62835e-320
1.00355e-319
1.0487e-319
1.09791e-319
1.15028e-319
1.20493e-319
1.26125e-319
1.31906e-319
1.37815e-319
1.43852e-319
1.50038e-319
1.56362e-319
1.62824e-319
1.69465e-319
1.76283e-319
1.83279e-319
1.90462e-319
1.97824e-319
2.05353e-319
4.77267e-320
4.8458e-320
4.94461e-320
5.00686e-320
4.98809e-320
4.91991e-320
4.86556e-320
4.85469e-320
4.8705e-320
4.88334e-320
4.87643e-320
4.84975e-320
4.82406e-320
4.82999e-320
4.88532e-320
4.95449e-320
4.97326e-320
4.91892e-320
4.84481e-320
4.80528e-320
5.82009e-320
6.10369e-320
6.39321e-320
6.68965e-320
7.00783e-320
7.36553e-320
7.75782e-320
8.16196e-320
8.54832e-320
8.90899e-320
9.25879e-320
9.6244e-320
1.00285e-319
1.04762e-319
1.09663e-319
1.1488e-319
1.20325e-319
1.25947e-319
1.31718e-319
1.37627e-319
1.43655e-319
1.4982e-319
1.56135e-319
1.62587e-319
1.69208e-319
1.76006e-319
1.82982e-319
1.90136e-319
1.97468e-319
2.04958e-319
4.7786e-320
4.8537e-320
4.95054e-320
5.00884e-320
4.98907e-320
4.92287e-320
4.86951e-320
4.85963e-320
4.87445e-320
4.8873e-320
4.87939e-320
4.85271e-320
4.82603e-320
4.83295e-320
4.88631e-320
4.95449e-320
4.97228e-320
4.92089e-320
4.84777e-320
4.80825e-320
5.82009e-320
6.10369e-320
6.39321e-320