/*--------------------------------*- C++ -*----------------------------------*\
  =========                 |
  \\      /  F ield         | OpenFOAM: The Open Source CFD Toolbox
   \\    /   O peration     | Website:  https://openfoam.org
    \\  /    A nd           | Version:  9
     \\/     M anipulation  |
\*---------------------------------------------------------------------------*/
FoamFile
{
    format      ascii;
    class       volScalarField;
    location    "0.18";
    object      p;
}
// * * * * * * * * * * * * * * * * * * * * * * * * * * * * * * * * * * * * * //

dimensions      [1 -1 -2 0 0 0 0];

internalField   nonuniform List<scalar> 
5000
(
3.16871
3.11388
3.38305
2.497
3.45368
3.41351
3.29846
3.31745
3.34567
3.35946
3.35656
3.33529
3.29166
3.17889
3.41712
2.50966
3.51861
3.41376
3.34049
3.37769
3.42121
3.4558
3.48593
3.51468
3.54621
3.58154
3.61295
3.63443
3.64431
3.63859
3.62689
3.61974
3.61888
3.62208
3.62733
3.63342
3.63969
3.64572
3.65128
3.65623
3.66054
3.66424
3.6674
3.67009
3.67237
3.67431
3.67597
3.67743
3.67875
3.68
3.23134
3.13527
3.34494
2.832
3.47674
3.43654
3.37242
3.37094
3.37985
3.38639
3.3836
3.36899
3.34866
3.1874
3.3789
2.8462
3.52859
3.44169
3.40651
3.42492
3.45046
3.47664
3.50169
3.52444
3.54504
3.5651
3.58671
3.61042
3.63068
3.63751
3.63406
3.62911
3.62659
3.62655
3.62819
3.63081
3.63401
3.63755
3.64132
3.64523
3.64923
3.65321
3.65708
3.66076
3.66417
3.66729
3.67014
3.67276
3.6752
3.67753
3.31809
3.22577
3.45591
3.10271
3.49093
3.43663
3.41655
3.4153
3.4137
3.41442
3.40938
3.39391
3.38702
3.26115
3.47712
3.11342
3.52904
3.443
3.44795
3.46385
3.4796
3.49953
3.51951
3.53835
3.55684
3.57579
3.59359
3.60904
3.62145
3.62722
3.62826
3.62837
3.62905
3.63051
3.63265
3.63531
3.63833
3.64158
3.64494
3.64834
3.6517
3.65498
3.65812
3.6611
3.66391
3.66655
3.66903
3.67136
3.67358
3.6757
3.41754
3.33485
3.51776
3.30161
3.5312
3.47622
3.46183
3.45477
3.44727
3.44451
3.43839
3.42308
3.42969
3.34255
3.52924
3.30923
3.55465
3.4765
3.48693
3.49559
3.5054
3.5208
3.53655
3.55228
3.56863
3.58548
3.60007
3.6109
3.61886
3.62336
3.62584
3.62806
3.63036
3.63283
3.63553
3.63842
3.64144
3.64451
3.64756
3.65054
3.65342
3.65617
3.6588
3.66129
3.66366
3.6659
3.66803
3.67005
3.672
3.67386
3.50869
3.43491
3.5546
3.43478
3.56842
3.52665
3.50811
3.4936
3.482
3.47641
3.47012
3.45656
3.47183
3.41459
3.55487
3.43613
3.57662
3.51825
3.52412
3.52509
3.53066
3.54199
3.55413
3.56701
3.58045
3.59362
3.60442
3.61227
3.61848
3.62312
3.62672
3.62991
3.63278
3.6355
3.63823
3.64099
3.64375
3.64647
3.64912
3.65169
3.65415
3.65652
3.65878
3.66093
3.66299
3.66496
3.66683
3.66862
3.67034
3.67199
3.58602
3.51682
3.58526
3.52179
3.60217
3.57342
3.549
3.52987
3.51605
3.50821
3.5021
3.49065
3.50865
3.47236
3.57244
3.51327
3.59517
3.55519
3.55461
3.55111
3.55403
3.56184
3.57077
3.58087
3.59132
3.60115
3.60903
3.61497
3.62018
3.6247
3.62865
3.63216
3.6352
3.63793
3.64054
3.64307
3.64553
3.64792
3.65022
3.65244
3.65457
3.65661
3.65857
3.66044
3.66224
3.66395
3.66559
3.66716
3.66867
3.67013
3.65013
3.58575
3.61709
3.58321
3.63394
3.61317
3.58389
3.56254
3.54782
3.53847
3.53259
3.52288
3.54002
3.51794
3.58939
3.56254
3.61219
3.58463
3.57851
3.57291
3.57422
3.57926
3.58556
3.59322
3.60124
3.60871
3.61468
3.61928
3.62343
3.62729
3.63093
3.6343
3.63727
3.63993
3.6424
3.64474
3.64696
3.64908
3.65111
3.65304
3.65489
3.65665
3.65833
3.65994
3.66148
3.66295
3.66436
3.66571
3.66701
3.66826
3.7065
3.6426
3.64953
3.63008
3.66267
3.64643
3.61453
3.5922
3.57715
3.56683
3.56106
3.55263
3.56751
3.55468
3.60613
3.59622
3.6268
3.60744
3.59795
3.59137
3.59152
3.59443
3.59869
3.60436
3.61046
3.61618
3.62071
3.62419
3.62738
3.63048
3.63359
3.63661
3.63935
3.6418
3.64406
3.64618
3.64816
3.65004
3.6518
3.65347
3.65505
3.65654
3.65797
3.65933
3.66064
3.66188
3.66308
3.66422
3.66532
3.66639
3.75475
3.69018
3.68071
3.66728
3.68755
3.67408
3.64169
3.61945
3.60431
3.59332
3.5875
3.5799
3.59203
3.58466
3.62154
3.61992
3.63827
3.62474
3.61418
3.60742
3.60667
3.60791
3.61057
3.61461
3.61909
3.6233
3.62659
3.6291
3.63147
3.63392
3.63654
3.63916
3.64156
3.64371
3.64569
3.64752
3.64923
3.65083
3.65233
3.65373
3.65505
3.6563
3.65749
3.65862
3.65971
3.66075
3.66174
3.66269
3.66362
3.66451
3.79408
3.72981
3.70958
3.69789
3.70913
3.69705
3.66556
3.64448
3.62941
3.61797
3.61196
3.60474
3.61392
3.60922
3.63534
3.63728
3.64744
3.6379
3.62774
3.62146
3.62008
3.62001
3.62137
3.62401
3.62708
3.62999
3.6322
3.63387
3.63555
3.63742
3.63956
3.64177
3.6438
3.64561
3.64727
3.6488
3.65022
3.65153
3.65275
3.65389
3.65496
3.65597
3.65693
3.65785
3.65873
3.65957
3.66037
3.66114
3.6619
3.66263
3.82498
3.76232
3.73562
3.72398
3.72821
3.71631
3.68647
3.66745
3.65247
3.64078
3.6345
3.62729
3.63351
3.62958
3.64771
3.65091
3.65548
3.64837
3.63922
3.63381
3.63196
3.63087
3.63115
3.63257
3.63442
3.63621
3.63752
3.63849
3.63953
3.64085
3.64252
3.64431
3.64597
3.64745
3.64878
3.65
3.65112
3.65215
3.6531
3.65399
3.65481
3.65559
3.65633
3.65703
3.65771
3.65836
3.65898
3.65958
3.66017
3.66075
3.84852
3.78855
3.75862
3.74675
3.74519
3.73277
3.70492
3.68857
3.6736
3.66187
3.65525
3.64781
3.65125
3.64679
3.65884
3.66241
3.6632
3.65736
3.64935
3.64489
3.64259
3.64067
3.64003
3.64036
3.64113
3.64196
3.6425
3.64288
3.64336
3.64415
3.64536
3.64676
3.64806
3.6492
3.65021
3.65112
3.65195
3.6527
3.65339
3.65402
3.6546
3.65516
3.65568
3.65618
3.65666
3.65712
3.65757
3.658
3.65843
3.65886
3.86558
3.80936
3.77853
3.7666
3.7607
3.74742
3.72195
3.70754
3.69296
3.68142
3.67446
3.66666
3.66756
3.66177
3.66898
3.67271
3.6712
3.66588
3.65885
3.65515
3.65231
3.64966
3.64817
3.6475
3.64726
3.64722
3.64711
3.64698
3.64696
3.64728
3.64807
3.6491
3.65007
3.65087
3.65156
3.65216
3.6527
3.65318
3.6536
3.65398
3.65434
3.65467
3.65498
3.65528
3.65558
3.65587
3.65614
3.65641
3.65669
3.65697
3.87699
3.82563
3.79559
3.78413
3.77512
3.76103
3.73791
3.72479
3.71087
3.69963
3.69235
3.68415
3.68279
3.6753
3.67851
3.68255
3.68
3.6748
3.6683
3.66495
3.66143
3.65808
3.65576
3.6541
3.65288
3.65202
3.65136
3.65081
3.65035
3.65023
3.65064
3.65134
3.65198
3.65247
3.65284
3.65313
3.65338
3.65358
3.65375
3.65389
3.65401
3.65413
3.65425
3.65436
3.65447
3.65459
3.6547
3.65481
3.65494
3.65508
3.88349
3.83816
3.81021
3.79962
3.78898
3.77417
3.75319
3.7407
3.7276
3.71672
3.70916
3.7006
3.69727
3.6881
3.68795
3.69249
3.69001
3.68474
3.67817
3.67458
3.6702
3.66612
3.66292
3.66026
3.65807
3.65644
3.6553
3.65441
3.65356
3.65303
3.6531
3.65348
3.65381
3.65398
3.65404
3.65403
3.65399
3.65392
3.65384
3.65374
3.65365
3.65356
3.65348
3.65341
3.65335
3.6533
3.65325
3.65321
3.65319
3.65319
3.88576
3.8476
3.82287
3.81355
3.80238
3.78717
3.7677
3.75594
3.74344
3.73289
3.72511
3.71628
3.71133
3.70076
3.69788
3.70298
3.7014
3.69601
3.6887
3.68426
3.67881
3.67393
3.66979
3.66611
3.66295
3.66057
3.65903
3.65785
3.65664
3.65574
3.65547
3.65555
3.65557
3.65543
3.65517
3.65487
3.65454
3.65421
3.65388
3.65355
3.65325
3.65296
3.65268
3.65243
3.6522
3.65199
3.65178
3.65159
3.65143
3.65129
3.88453
3.85459
3.834
3.82623
3.81538
3.80019
3.78178
3.77057
3.75853
3.74829
3.74038
3.73141
3.72524
3.71376
3.70884
3.71436
3.71407
3.70854
3.69998
3.6941
3.68741
3.68164
3.67652
3.67178
3.66763
3.66455
3.66266
3.66124
3.6597
3.65844
3.65785
3.65761
3.6573
3.65683
3.65626
3.65566
3.65505
3.65445
3.65387
3.65332
3.6528
3.65232
3.65186
3.65143
3.65103
3.65066
3.6503
3.64997
3.64967
3.64939
3.88063
3.85973
3.84402
3.83791
3.82791
3.81311
3.7955
3.78461
3.77296
3.76305
3.7551
3.74616
3.73921
3.72741
3.72121
3.72686
3.72772
3.72196
3.71191
3.70416
3.69608
3.68935
3.68321
3.6774
3.67226
3.6685
3.66631
3.66468
3.66285
3.66125
3.6603
3.65971
3.65905
3.65823
3.65733
3.65641
3.65552
3.65465
3.65383
3.65305
3.65233
3.65164
3.65101
3.65041
3.64984
3.64931
3.64881
3.64833
3.6479
3.6475
3.87492
3.86358
3.8533
3.84881
3.83977
3.82558
3.80875
3.79805
3.7868
3.77724
3.76937
3.76063
3.75333
3.74186
3.73518
3.74053
3.74195
3.7358
3.72427
3.71442
3.70488
3.69715
3.68996
3.6831
3.67698
3.67259
3.67012
3.66831
3.66621
3.66426
3.66292
3.66192
3.66086
3.65965
3.6584
3.65715
3.65596
3.65482
3.65375
3.65275
3.65182
3.65095
3.65013
3.64936
3.64864
3.64796
3.64731
3.64669
3.64612
3.64559
3.86829
3.86666
3.86212
3.85907
3.85076
3.83725
3.82136
3.8109
3.80007
3.79092
3.78323
3.77486
3.76761
3.75703
3.75061
3.75523
3.75636
3.74964
3.73686
3.72484
3.71382
3.70508
3.69688
3.68898
3.68193
3.67693
3.6742
3.67223
3.66989
3.66757
3.66579
3.6643
3.66276
3.66112
3.65948
3.65789
3.65638
3.65497
3.65365
3.65243
3.65129
3.65023
3.64924
3.6483
3.64742
3.64659
3.6458
3.64505
3.64435
3.64369
3.86163
3.86936
3.87057
3.86874
3.86073
3.84789
3.83321
3.82311
3.81281
3.80412
3.7967
3.78882
3.78193
3.77269
3.76705
3.77057
3.77066
3.76325
3.74951
3.73538
3.72293
3.7132
3.70402
3.69515
3.68723
3.68166
3.67866
3.67653
3.67394
3.67125
3.66895
3.66688
3.66479
3.66267
3.6606
3.65864
3.65681
3.65511
3.65354
3.65209
3.65075
3.6495
3.64833
3.64723
3.6462
3.64522
3.64429
3.6434
3.64257
3.64179
3.85578
3.872
3.87862
3.87778
3.86968
3.85746
3.84425
3.83473
3.82502
3.81685
3.80978
3.80247
3.79612
3.7884
3.78382
3.78606
3.78468
3.77658
3.76214
3.74602
3.73222
3.72154
3.71143
3.70166
3.69296
3.68685
3.68356
3.68123
3.67841
3.6753
3.67242
3.66968
3.66696
3.6643
3.66177
3.65942
3.65725
3.65526
3.65343
3.65175
3.6502
3.64876
3.64742
3.64616
3.64497
3.64384
3.64277
3.64175
3.64079
3.63988
3.85142
3.87476
3.88611
3.88606
3.87769
3.86612
3.85455
3.84579
3.83674
3.82913
3.82248
3.81574
3.80998
3.80371
3.80013
3.80112
3.79836
3.78976
3.77473
3.75675
3.74167
3.73009
3.71913
3.70855
3.69915
3.69254
3.68892
3.68635
3.68326
3.67972
3.67618
3.6727
3.66928
3.66602
3.663
3.66023
3.65771
3.65542
3.65332
3.65141
3.64965
3.64802
3.6465
3.64508
3.64373
3.64246
3.64125
3.6401
3.63901
3.63797
3.84899
3.87772
3.89282
3.89346
3.88491
3.87415
3.86427
3.85638
3.84801
3.84102
3.83479
3.82861
3.82336
3.81821
3.81533
3.81531
3.81168
3.8029
3.78731
3.76755
3.75129
3.73885
3.7271
3.71581
3.70578
3.69869
3.69469
3.69182
3.68844
3.68443
3.68019
3.6759
3.67172
3.66783
3.66428
3.66108
3.65819
3.65559
3.65323
3.65108
3.64911
3.64729
3.64559
3.644
3.6425
3.64108
3.63973
3.63845
3.63723
3.63607
3.8487
3.88087
3.89858
3.8999
3.89157
3.88185
3.87357
3.86653
3.85896
3.85255
3.84674
3.84105
3.83616
3.83167
3.82903
3.82832
3.82467
3.81609
3.79985
3.77841
3.76103
3.74779
3.73531
3.72339
3.7128
3.70524
3.7008
3.69756
3.69385
3.68936
3.68438
3.67924
3.67428
3.66972
3.66562
3.66197
3.6587
3.65578
3.65314
3.65076
3.64858
3.64656
3.64469
3.64294
3.64128
3.63971
3.63822
3.6368
3.63545
3.63416
3.85053
3.8842
3.90336
3.90541
3.89786
3.88946
3.88262
3.87632
3.86967
3.86376
3.85836
3.85309
3.84839
3.84408
3.8412
3.8401
3.83733
3.82925
3.81229
3.78927
3.77087
3.75686
3.74371
3.7312
3.72015
3.71207
3.70716
3.70348
3.69941
3.6944
3.68867
3.68268
3.67691
3.67167
3.66701
3.6629
3.65925
3.656
3.65309
3.65046
3.64807
3.64586
3.64381
3.64189
3.64008
3.63836
3.63672
3.63517
3.63368
3.63226
3.85429
3.88777
3.9073
3.91016
3.90396
3.89712
3.89151
3.88593
3.88007
3.87471
3.86972
3.86479
3.86016
3.85564
3.85214
3.85066
3.84975
3.8422
3.8245
3.80006
3.78075
3.76603
3.75225
3.73921
3.7277
3.71912
3.71362
3.70949
3.705
3.69947
3.69302
3.68618
3.67962
3.67369
3.66847
3.66388
3.65985
3.65627
3.65309
3.65021
3.6476
3.6452
3.64296
3.64087
3.6389
3.63702
3.63524
3.63354
3.63191
3.63035
3.85968
3.89164
3.91072
3.91443
3.91
3.90484
3.90029
3.89538
3.89026
3.88546
3.88087
3.87625
3.8716
3.8667
3.86245
3.86123
3.86096
3.8546
3.83629
3.81071
3.79063
3.77523
3.76088
3.74734
3.73535
3.72626
3.72015
3.7155
3.71055
3.70451
3.69735
3.68971
3.68238
3.67578
3.66999
3.66494
3.66052
3.65661
3.65314
3.65002
3.64718
3.64458
3.64216
3.63989
3.63774
3.63571
3.63378
3.63193
3.63016
3.62845
3.86637
3.89599
3.91407
3.91859
3.91606
3.91253
3.90893
3.9047
3.9003
3.89606
3.89189
3.88755
3.88289
3.87761
3.87259
3.87132
3.87188
3.86632
3.84754
3.82118
3.80045
3.78443
3.76955
3.75552
3.74306
3.73343
3.72669
3.72143
3.71602
3.70945
3.70163
3.69326
3.68519
3.67794
3.6716
3.66608
3.66127
3.65703
3.65326
3.64989
3.64682
3.64401
3.64139
3.63894
3.63663
3.63443
3.63233
3.63034
3.62841
3.62656
3.87406
3.90096
3.91781
3.92301
3.9222
3.9201
3.91739
3.91393
3.91026
3.90659
3.90284
3.89879
3.89419
3.88869
3.88307
3.88148
3.88239
3.8772
3.85811
3.83155
3.81018
3.79361
3.77823
3.76374
3.75079
3.74057
3.73317
3.7273
3.72139
3.71429
3.70586
3.6968
3.68807
3.6802
3.67331
3.66733
3.66211
3.65753
3.65347
3.64983
3.64653
3.6435
3.64068
3.63804
3.63554
3.63317
3.63091
3.62876
3.62668
3.62467
3.88244
3.90669
3.92233
3.92798
3.92846
3.92749
3.92569
3.9231
3.9202
3.91711
3.91379
3.91005
3.90562
3.90015
3.89422
3.89206
3.89248
3.88737
3.86822
3.84164
3.81985
3.80281
3.78694
3.77196
3.75851
3.74768
3.73961
3.73311
3.72662
3.719
3.71003
3.70037
3.69102
3.68255
3.67514
3.66869
3.66307
3.65814
3.65377
3.64986
3.64631
3.64305
3.64002
3.63718
3.6345
3.63195
3.62952
3.6272
3.62495
3.62278
3.89103
3.91321
3.92786
3.93368
3.93487
3.93471
3.93386
3.93228
3.93019
3.92769
3.92482
3.92141
3.91725
3.91207
3.90612
3.90322
3.90268
3.89665
3.87798
3.85158
3.82952
3.81205
3.7957
3.78022
3.76622
3.75477
3.74602
3.73886
3.73178
3.72365
3.71417
3.70398
3.69405
3.68502
3.67709
3.67018
3.66415
3.65886
3.65417
3.64997
3.64617
3.64267
3.63943
3.63638
3.6335
3.63076
3.62815
3.62565
3.62323
3.6209
3.89969
3.92047
3.93443
3.94015
3.9415
3.94185
3.94201
3.94154
3.9403
3.9384
3.93597
3.93292
3.92911
3.9244
3.91868
3.9149
3.91283
3.90586
3.88755
3.86155
3.8393
3.8214
3.80456
3.78854
3.77395
3.76186
3.75243
3.74461
3.73695
3.72831
3.71836
3.70766
3.6972
3.68763
3.67918
3.6718
3.66535
3.65969
3.65468
3.65018
3.64611
3.64237
3.63889
3.63563
3.63254
3.6296
3.6268
3.62412
3.62153
3.61902
3.90817
3.92826
3.94186
3.9473
3.94838
3.94909
3.95029
3.95097
3.95059
3.94929
3.94732
3.94463
3.94122
3.93705
3.93167
3.927
3.9232
3.91523
3.89728
3.87173
3.84927
3.83093
3.81359
3.797
3.78176
3.76898
3.75889
3.75044
3.74221
3.73307
3.72266
3.71149
3.70052
3.69041
3.68143
3.67357
3.66669
3.66065
3.65529
3.65049
3.64614
3.64214
3.63842
3.63493
3.63162
3.62848
3.62548
3.62261
3.61983
3.61714
3.9162
3.93634
3.9499
3.95494
3.95558
3.9566
3.95884
3.96064
3.96111
3.96043
3.95891
3.95659
3.95357
3.9499
3.94485
3.9394
3.934
3.9251
3.90749
3.88228
3.85955
3.84075
3.82288
3.80567
3.78972
3.77622
3.76547
3.75644
3.74767
3.73804
3.72717
3.71553
3.70403
3.69337
3.68386
3.6755
3.66819
3.66175
3.65603
3.65091
3.64626
3.64199
3.63801
3.63428
3.63075
3.62739
3.62418
3.62112
3.61815
3.61527
3.92364
3.94435
3.95821
3.96285
3.96316
3.96455
3.96778
3.97064
3.97194
3.97186
3.9708
3.96885
3.96617
3.96288
3.95805
3.95199
3.94535
3.93577
3.9184
3.89335
3.87027
3.85097
3.83254
3.81467
3.79796
3.78369
3.77227
3.76268
3.75342
3.74332
3.73198
3.71984
3.7078
3.69657
3.6865
3.67763
3.66984
3.66299
3.6569
3.65144
3.64648
3.64192
3.63768
3.6337
3.62993
3.62634
3.62292
3.61965
3.61648
3.61341
3.93028
3.95218
3.96648
3.97088
3.97116
3.97297
3.97717
3.98102
3.9831
3.98362
3.98303
3.98145
3.97905
3.97596
3.9712
3.96472
3.95734
3.94738
3.93015
3.90506
3.88152
3.86171
3.84268
3.82413
3.80661
3.79152
3.77939
3.76927
3.75955
3.74899
3.73716
3.72449
3.71186
3.70003
3.68937
3.67996
3.67168
3.66439
3.65791
3.6521
3.64681
3.64195
3.63743
3.63319
3.62917
3.62535
3.6217
3.61821
3.61482
3.61155
3.93615
3.9596
3.97448
3.979
3.97945
3.98189
3.98705
3.99179
3.99463
3.99577
3.99564
3.99444
3.99227
3.98921
3.98436
3.97764
3.97
3.95996
3.94278
3.91747
3.89342
3.87306
3.85342
3.83416
3.81583
3.79986
3.78698
3.7763
3.76613
3.75511
3.74277
3.72953
3.71628
3.7038
3.69251
3.68252
3.67373
3.66598
3.65908
3.65289
3.64726
3.64209
3.63727
3.63275
3.62848
3.6244
3.62052
3.6168
3.61319
3.60969
3.94134
3.96657
3.98217
3.98707
3.98802
3.99131
3.99739
4.00297
4.00656
4.00833
4.00869
4.00786
4.00589
4.00274
3.99768
3.99088
3.98334
3.97345
3.95625
3.93064
3.90604
3.88511
3.86486
3.8449
3.82574
3.80886
3.79516
3.78386
3.77322
3.76173
3.74886
3.73501
3.72109
3.70791
3.69596
3.68535
3.67601
3.66777
3.66043
3.65385
3.64786
3.64235
3.63722
3.63241
3.62786
3.62352
3.61938
3.61542
3.61157
3.60785
3.946
3.97319
3.98964
3.99508
3.99684
4.00115
4.00814
4.01456
4.01892
4.02132
4.02221
4.02177
4.01998
4.01669
4.01139
4.0046
3.99737
3.98773
3.9705
3.94457
3.91944
3.89794
3.87708
3.85644
3.83647
3.81866
3.80406
3.79206
3.78087
3.76888
3.75544
3.74095
3.72632
3.71241
3.69975
3.68848
3.67855
3.66979
3.66199
3.65498
3.64861
3.64274
3.63729
3.63216
3.62732
3.6227
3.61829
3.61408
3.60998
3.60602
3.95038
3.97959
3.99696
4.00312
4.00593
4.01131
4.01926
4.02657
4.03171
4.03479
4.03623
4.03622
4.03463
4.03123
4.0257
4.01898
4.0121
4.00271
3.98544
3.95926
3.93364
3.9116
3.89014
3.86885
3.8481
3.82936
3.8138
3.80097
3.78914
3.77658
3.76256
3.7474
3.73202
3.71733
3.70391
3.69195
3.68139
3.67206
3.66376
3.65631
3.64952
3.64328
3.63747
3.63202
3.62686
3.62195
3.61725
3.61276
3.6084
3.60419
3.95478
3.98595
4.00428
4.01134
4.01525
4.02173
4.03071
4.03899
4.04498
4.04876
4.05079
4.05125
4.04992
4.04649
4.04082
4.03418
4.02758
4.01834
4.00105
3.97472
3.94871
3.92614
3.90409
3.88217
3.86067
3.84101
3.82443
3.81066
3.79807
3.78488
3.77023
3.75437
3.73821
3.7227
3.70848
3.69577
3.68454
3.67462
3.66579
3.65785
3.65063
3.64398
3.6378
3.63199
3.6265
3.62127
3.61628
3.6115
3.60685
3.60238
3.95952
3.99247
4.01177
4.01981
4.0248
4.03239
4.04249
4.05186
4.05874
4.06327
4.06594
4.06691
4.06592
4.06258
4.05689
4.05033
4.04386
4.03462
4.01733
3.99099
3.96467
3.9416
3.91897
3.89643
3.87421
3.85363
3.83599
3.82118
3.80772
3.79382
3.7785
3.76191
3.74494
3.72857
3.71349
3.69999
3.68805
3.67749
3.66808
3.65963
3.65194
3.64486
3.63828
3.63211
3.62626
3.6207
3.61538
3.61029
3.60534
3.60058
3.96488
3.99932
4.01955
4.02859
4.03462
4.04331
4.05465
4.06519
4.07303
4.07835
4.08171
4.08326
4.08269
4.07958
4.07401
4.06754
4.06105
4.05167
4.03438
4.00814
3.98159
3.95805
3.93483
3.91167
3.88872
3.86722
3.84848
3.83255
3.81811
3.80342
3.78739
3.77006
3.75224
3.73497
3.71899
3.70465
3.69194
3.68069
3.67067
3.66167
3.65348
3.64594
3.63893
3.63235
3.62613
3.62021
3.61454
3.60912
3.60385
3.59878
3.97105
4.00656
4.02766
4.0377
4.04475
4.0546
4.06726
4.07904
4.08789
4.09405
4.09816
4.10035
4.10029
4.09755
4.09223
4.08586
4.07925
4.06963
4.05236
4.0263
3.99955
3.97553
3.95172
3.92791
3.90422
3.88178
3.8619
3.84478
3.82928
3.81372
3.79695
3.77884
3.76016
3.74194
3.72502
3.70977
3.69624
3.68426
3.67359
3.66399
3.65526
3.64723
3.63977
3.63276
3.62613
3.61981
3.61378
3.60801
3.6024
3.59699
3.97812
4.0142
4.03608
4.04717
4.05529
4.06635
4.08038
4.09346
4.10337
4.11042
4.11533
4.11824
4.11878
4.11652
4.11156
4.10536
4.0986
4.0887
4.07144
4.04558
4.01865
3.99415
3.96972
3.94521
3.92074
3.89732
3.87626
3.85789
3.84126
3.82478
3.80721
3.78831
3.76873
3.74954
3.73162
3.71542
3.70101
3.68824
3.67686
3.66663
3.65733
3.64877
3.64081
3.63334
3.62628
3.61955
3.61313
3.60697
3.60099
3.59522
3.9861
4.02219
4.04476
4.057
4.06632
4.07867
4.09411
4.10849
4.11949
4.1275
4.13329
4.137
4.13823
4.13654
4.13205
4.12608
4.11921
4.10908
4.09183
4.06614
4.03901
4.01399
3.98889
3.96365
3.93833
3.91388
3.89159
3.87193
3.8541
3.83663
3.81823
3.7985
3.77802
3.75782
3.73886
3.72165
3.7063
3.69268
3.68054
3.66963
3.6597
3.65057
3.64209
3.63412
3.62659
3.61942
3.61257
3.606
3.59962
3.59347
3.9949
4.03047
4.05365
4.06718
4.07789
4.09165
4.10849
4.12417
4.13632
4.14534
4.15209
4.15668
4.1587
4.15768
4.15375
4.1481
4.14122
4.13092
4.1137
4.08814
4.06074
4.03518
4.00937
3.98333
3.95709
3.93155
3.90797
3.88695
3.86787
3.84935
3.83006
3.80948
3.78806
3.76684
3.7468
3.72852
3.71218
3.69764
3.68468
3.67302
3.66242
3.65267
3.64361
3.63511
3.62707
3.61942
3.61211
3.6051
3.59829
3.59173
4.00438
4.03904
4.06277
4.07776
4.09007
4.10532
4.12356
4.14056
4.15388
4.164
4.17179
4.17736
4.18026
4.18001
4.17672
4.1715
4.16473
4.15437
4.13721
4.11172
4.08399
4.05783
4.03127
4.00436
3.97713
3.95042
3.92549
3.90305
3.88266
3.86301
3.84277
3.8213
3.79893
3.77666
3.7555
3.73611
3.71869
3.70317
3.68931
3.67684
3.6655
3.65508
3.6454
3.63631
3.62772
3.61955
3.61175
3.60427
3.59701
3.59001
4.01442
4.04791
4.07218
4.08878
4.10286
4.11967
4.13934
4.15766
4.17223
4.18351
4.19243
4.19909
4.20299
4.20361
4.20107
4.19639
4.18985
4.17954
4.16246
4.137
4.10889
4.08208
4.05472
4.02688
3.9986
3.97064
3.94429
3.92036
3.89857
3.87773
3.85647
3.83406
3.81071
3.78737
3.76505
3.74447
3.72592
3.70933
3.69449
3.68113
3.66899
3.65782
3.64746
3.63774
3.62856
3.61983
3.61149
3.6035
3.59576
3.5883
4.02491
4.0572
4.08203
4.1003
4.11625
4.13467
4.15578
4.17549
4.19137
4.20391
4.21407
4.22192
4.22693
4.22855
4.22689
4.22287
4.21666
4.2065
4.18954
4.16409
4.13555
4.10806
4.07985
4.05104
4.02163
3.99236
3.96452
3.93903
3.91576
3.89363
3.87127
3.84785
3.82348
3.79903
3.77551
3.75369
3.73392
3.71617
3.70027
3.68594
3.67291
3.66093
3.64982
3.6394
3.62958
3.62025
3.61134
3.60281
3.59456
3.58661
4.03578
4.06705
4.09247
4.11237
4.13017
4.15025
4.17288
4.19406
4.21133
4.22521
4.23671
4.24587
4.25213
4.25491
4.25427
4.25102
4.24525
4.23531
4.21854
4.19309
4.1641
4.1359
4.1068
4.07696
4.04636
4.01572
3.98632
3.95919
3.93436
3.91084
3.88729
3.8628
3.83736
3.81174
3.78697
3.76384
3.74276
3.72377
3.70671
3.69131
3.67731
3.66445
3.65251
3.64135
3.63082
3.62084
3.61132
3.60221
3.59341
3.58493
4.04698
4.0776
4.10365
4.12503
4.14457
4.16632
4.19058
4.21333
4.23209
4.2474
4.26035
4.27095
4.27861
4.2827
4.28325
4.28091
4.27568
4.26605
4.24953
4.2241
4.19464
4.16571
4.13568
4.10477
4.07294
4.04086
4.00984
3.98101
3.95452
3.92952
3.90468
3.87903
3.85245
3.82562
3.79952
3.775
3.75252
3.73218
3.71386
3.69731
3.68224
3.66841
3.65559
3.64361
3.63232
3.62163
3.61145
3.60172
3.59232
3.58328
4.05844
4.08892
4.11564
4.13828
4.15937
4.1828
4.20883
4.23327
4.25358
4.27044
4.28495
4.29712
4.30635
4.31195
4.31386
4.31259
4.30801
4.2988
4.2826
4.25722
4.22728
4.1976
4.16662
4.13458
4.10146
4.06789
4.0352
4.00459
3.97638
3.9498
3.92357
3.89667
3.86888
3.84077
3.81327
3.78727
3.76329
3.7415
3.72182
3.704
3.68778
3.6729
3.65911
3.64624
3.63413
3.62267
3.61176
3.60135
3.59131
3.58166
4.07007
4.10102
4.12844
4.15204
4.17448
4.19964
4.22757
4.25381
4.27576
4.29425
4.31042
4.32433
4.33531
4.34263
4.34611
4.34607
4.3423
4.33365
4.31786
4.29256
4.26215
4.23168
4.1997
4.16649
4.13204
4.09692
4.06249
4.03004
4.00002
3.97178
3.94408
3.91585
3.88678
3.85731
3.82834
3.80077
3.77518
3.75183
3.73067
3.71149
3.69402
3.67798
3.66315
3.64931
3.6363
3.624
3.61231
3.60114
3.59039
3.58006
4.08174
4.11374
4.14189
4.1662
4.18982
4.21677
4.24672
4.27483
4.29848
4.31868
4.33667
4.35248
4.36544
4.37473
4.38
4.38139
4.37864
4.37072
4.35545
4.33025
4.29935
4.26806
4.23503
4.2006
4.16476
4.12804
4.09181
4.05744
4.02553
3.99554
3.96628
3.93667
3.90625
3.87537
3.84485
3.81561
3.78832
3.76329
3.74054
3.71988
3.70105
3.68378
3.66779
3.65289
3.6389
3.62567
3.61311
3.60112
3.58958
3.57851
4.09324
4.12681
4.15572
4.18054
4.20526
4.23408
4.26615
4.29617
4.32158
4.34359
4.36354
4.38148
4.3967
4.40824
4.41557
4.41862
4.41713
4.41016
4.39553
4.37045
4.33903
4.30687
4.27273
4.23703
4.19973
4.16134
4.12322
4.08685
4.05296
4.02113
3.99024
3.95917
3.92737
3.89503
3.86291
3.83193
3.80282
3.77601
3.75155
3.7293
3.709
3.69037
3.67315
3.65709
3.64202
3.62778
3.61426
3.60135
3.58892
3.577
4.10432
4.13985
4.16954
4.19481
4.22066
4.25147
4.28568
4.31762
4.34485
4.3688
4.39089
4.41122
4.42903
4.44319
4.45289
4.45788
4.45792
4.45214
4.43826
4.41332
4.38135
4.34828
4.31296
4.27591
4.23708
4.19694
4.15683
4.11835
4.08235
4.04858
4.01599
3.98341
3.95018
3.91635
3.88258
3.84979
3.8188
3.79008
3.76379
3.73982
3.71793
3.69784
3.67926
3.66194
3.64569
3.63034
3.61575
3.60183
3.58842
3.57554
4.11467
4.15238
4.1829
4.20868
4.23583
4.26873
4.30509
4.33894
4.36806
4.39408
4.41856
4.44162
4.46243
4.47965
4.49212
4.49935
4.50119
4.49684
4.48386
4.45909
4.42654
4.39249
4.35592
4.31742
4.27697
4.23498
4.19278
4.15205
4.11381
4.07796
4.04355
4.00938
3.97469
3.93935
3.90391
3.86927
3.83629
3.80556
3.7773
3.75147
3.72786
3.70617
3.68611
3.66742
3.64988
3.63331
3.61757
3.60253
3.58805
3.57416
4.12396
4.16389
4.19532
4.22182
4.25051
4.28562
4.32409
4.35985
4.39094
4.41923
4.44641
4.47261
4.49692
4.51776
4.53346
4.54327
4.54719
4.54449
4.53254
4.50798
4.47482
4.43973
4.40183
4.3618
4.31963
4.27567
4.23125
4.18811
4.14745
4.10936
4.07298
4.03712
4.00089
3.96401
3.92688
3.89036
3.85532
3.82246
3.79209
3.76424
3.73874
3.71529
3.69362
3.67344
3.65451
3.63664
3.61966
3.60343
3.5878
3.57285
4.13183
4.17388
4.20633
4.23388
4.26443
4.30182
4.34235
4.38003
4.41324
4.44405
4.4743
4.50416
4.5326
4.55768
4.57718
4.58997
4.5962
4.59533
4.58454
4.56025
4.52648
4.49029
4.45096
4.4093
4.36529
4.31925
4.27247
4.22675
4.18347
4.14291
4.10437
4.06666
4.0288
3.99033
3.95151
3.91306
3.8759
3.84078
3.80814
3.77808
3.75049
3.72511
3.70165
3.67984
3.65941
3.64015
3.62188
3.60444
3.58764
3.57154
4.13797
4.18188
4.21553
4.24454
4.27726
4.31697
4.35951
4.39919
4.43472
4.46838
4.50218
4.53629
4.56955
4.59963
4.62356
4.63976
4.64855
4.64964
4.6401
4.61618
4.58179
4.54445
4.5036
4.46018
4.41421
4.36597
4.31668
4.26819
4.22206
4.17879
4.13783
4.09808
4.05845
4.01833
3.97777
3.93738
3.89803
3.86054
3.82545
3.79297
3.76305
3.7355
3.71003
3.68639
3.66433
3.64362
3.62409
3.60556
3.58777
3.57054
4.14207
4.18754
4.2226
4.25349
4.28865
4.33071
4.37527
4.41705
4.45515
4.49206
4.52997
4.56906
4.60794
4.6438
4.67288
4.69297
4.70454
4.70769
4.6995
4.67603
4.64103
4.60247
4.55998
4.51466
4.4666
4.41601
4.36407
4.31263
4.26341
4.21714
4.1735
4.13144
4.08986
4.04798
4.00564
3.96329
3.92172
3.88178
3.84408
3.80898
3.7765
3.74651
3.71877
3.69299
3.66894
3.64639
3.62519
3.60522
3.58653
3.57011
4.14395
4.19066
4.22732
4.2605
4.2983
4.34271
4.38931
4.43339
4.47437
4.51501
4.55768
4.60252
4.64787
4.69037
4.72536
4.74987
4.76447
4.76975
4.763
4.74008
4.70447
4.66459
4.62032
4.57294
4.52261
4.46952
4.41475
4.36018
4.30761
4.25806
4.2114
4.16675
4.12299
4.0792
4.03502
3.9907
3.94692
3.90449
3.86413
3.82629
3.79113
3.75861
3.72854
3.70069
3.67481
3.65069
3.62811
3.60681
3.58661
3.56732
4.14349
4.19114
4.22961
4.26537
4.30593
4.35269
4.40143
4.44802
4.49226
4.53715
4.58528
4.63671
4.68944
4.73947
4.78114
4.81065
4.82857
4.8361
4.8309
4.80862
4.77236
4.73104
4.68481
4.63514
4.58233
4.52653
4.46875
4.41081
4.35465
4.30149
4.25148
4.20392
4.15768
4.11179
4.06569
4.01941
3.97345
3.92858
3.88555
3.84492
3.80697
3.77178
3.73922
3.70912
3.68123
3.6553
3.6311
3.60835
3.58669
3.56585
4.14068
4.18903
4.22945
4.26798
4.31134
4.36046
4.41147
4.46083
4.50871
4.55842
4.61276
4.67164
4.73268
4.79112
4.84028
4.87543
4.89705
4.90703
4.90353
4.88198
4.84501
4.80207
4.75361
4.70139
4.64581
4.58705
4.526
4.46444
4.4044
4.3473
4.29357
4.2427
4.19368
4.14546
4.09732
4.04906
4.001
3.95379
3.90818
3.86478
3.82399
3.786
3.75076
3.71812
3.68787
3.65975
3.63353
3.60899
3.58588
3.56419
4.13562
4.18448
4.22691
4.26827
4.31442
4.36592
4.41933
4.47173
4.52364
4.57874
4.64004
4.70721
4.77757
4.84526
4.90272
4.94425
4.97009
4.98285
4.98126
4.96054
4.92276
4.87797
4.82697
4.77184
4.71316
4.65108
4.58644
4.52095
4.45668
4.39527
4.33741
4.28284
4.23066
4.17983
4.1295
4.07926
4.02921
3.97985
3.93185
3.88588
3.84241
3.80171
3.76385
3.72873
3.69615
3.66586
3.63761
3.61118
3.58626
3.563
4.12846
4.1777
4.22212
4.26627
4.31512
4.36899
4.42495
4.48062
4.53694
4.59798
4.66699
4.74347
4.82384
4.90173
4.96841
5.01713
5.04787
5.06391
5.06457
5.04479
5.00606
4.95914
4.90522
4.84676
4.78453
4.71872
4.65009
4.58028
4.51139
4.44523
4.38279
4.32406
4.26832
4.21456
4.16185
4.1096
4.0577
4.00643
3.95636
3.90812
3.86223
3.81904
3.7787
3.74117
3.70628
3.67378
3.64338
3.61483
3.5879
3.56177
4.11939
4.16893
4.21523
4.26201
4.31341
4.36964
4.42823
4.48737
4.54843
4.61594
4.69335
4.77997
4.87144
4.96043
5.03733
5.09411
5.13059
5.15059
5.15396
5.13527
5.09545
5.04608
4.98879
4.92648
4.86019
4.79016
4.71706
4.64247
4.56849
4.49711
4.42959
4.36619
4.30642
4.24936
4.19404
4.13972
4.08607
4.03316
3.98136
3.93121
3.88321
3.83777
3.79508
3.75517
3.71792
3.68306
3.65029
3.61931
3.58999
3.56015
4.10856
4.15838
4.20637
4.25552
4.30926
4.36776
4.42902
4.49175
4.55785
4.63232
4.71885
4.81643
4.92003
5.02128
5.10941
5.17523
5.21846
5.24329
5.24995
5.23258
5.19152
5.13935
5.07815
5.01142
4.94049
4.86565
4.78754
4.70763
4.62804
4.55092
4.47776
4.40916
4.34487
4.28409
4.22586
4.16933
4.11396
4.05958
4.00635
3.95459
3.90473
3.85713
3.81201
3.76946
3.72942
3.69171
3.65608
3.62231
3.59051
3.55804
4.09609
4.14617
4.19561
4.24679
4.30258
4.3632
4.42708
4.49346
4.56484
4.64676
4.74312
4.85259
4.96939
5.08415
5.18445
5.26053
5.31167
5.34236
5.35303
5.33726
5.29485
5.23948
5.17379
5.10195
5.02569
4.9454
4.86166
4.77586
4.69011
4.60668
4.52733
4.45298
4.38363
4.31867
4.25715
4.19817
4.141
4.08523
4.03074
3.97764
3.92616
3.87657
3.82911
3.78395
3.74118
3.7008
3.66274
3.62677
3.59278
3.5584
4.08202
4.13235
4.18293
4.23571
4.29319
4.35567
4.42202
4.49207
4.56896
4.6588
4.76575
4.88811
5.01927
5.14865
5.26245
5.35003
5.41033
5.44805
5.46356
5.44977
5.40593
5.34696
5.2761
5.19836
5.11597
5.02949
4.93944
4.84712
4.75462
4.66432
4.57825
4.4976
4.42267
4.35301
4.28779
4.22603
4.16684
4.10958
4.05387
3.99953
3.94657
3.89509
3.84523
3.79708
3.75075
3.70634
3.66403
3.62423
3.5881
3.55519
4.06631
4.11684
4.16819
4.22208
4.28079
4.34478
4.4134
4.48706
4.56966
4.66794
4.78624
4.92253
5.06927
5.21455
5.34317
5.44356
5.5144
5.56043
5.58175
5.57047
5.52519
5.4622
5.38541
5.30085
5.2114
5.11785
5.02072
4.92121
4.82137
4.72366
4.63033
4.54286
4.46182
4.38697
4.31756
4.25259
4.19104
4.13206
4.07502
4.01954
3.96545
3.91271
3.86137
3.81164
3.76378
3.71809
3.67487
3.6341
3.59567
3.55755
4.04884
4.09945
4.15113
4.20558
4.26497
4.33005
4.40065
4.47786
4.56637
4.67358
4.804
4.95524
5.11882
5.28136
5.42618
5.54082
5.62366
5.6794
5.70767
5.69962
5.65302
5.58561
5.50208
5.40964
5.31201
5.21037
5.10527
4.99783
4.89002
4.78436
4.68327
4.58848
4.50083
4.42027
4.34614
4.27745
4.21306
4.15195
4.09327
4.03645
3.98116
3.92724
3.87469
3.82363
3.77421
3.72658
3.68081
3.63691
3.59494
3.55541
4.02946
4.07989
4.13143
4.18582
4.24528
4.31095
4.38321
4.46384
4.55841
4.675
4.81824
4.98539
5.16703
5.34824
5.51075
5.64124
5.7377
5.80473