/*--------------------------------*- C++ -*----------------------------------*\
  =========                 |
  \\      /  F ield         | OpenFOAM: The Open Source CFD Toolbox
   \\    /   O peration     | Website:  https://openfoam.org
    \\  /    A nd           | Version:  9
     \\/     M anipulation  |
\*---------------------------------------------------------------------------*/
FoamFile
{
    format      ascii;
    class       volScalarField;
    location    "0.18";
    object      p_rgh;
}
// * * * * * * * * * * * * * * * * * * * * * * * * * * * * * * * * * * * * * //

dimensions      [1 -1 -2 0 0 0 0];

internalField   nonuniform List<scalar> 
5000
(
-0.51191
-0.566737
-0.297563
-1.18362
-0.226935
-0.267106
-0.382157
-0.363162
-0.334948
-0.321157
-0.32405
-0.345329
-0.38896
-0.501723
-0.263496
-1.17096
-0.162005
-0.266853
-0.340124
-0.302927
-0.259404
-0.224812
-0.194683
-0.165931
-0.134406
-0.0990746
-0.0676664
-0.0461842
-0.0363039
-0.0420214
-0.0537274
-0.0608749
-0.0617372
-0.0585318
-0.053284
-0.0471939
-0.0409299
-0.0348951
-0.0293377
-0.0243868
-0.0200755
-0.016372
-0.013213
-0.0105274
-0.00824728
-0.00630744
-0.0046436
-0.0031893
-0.00186953
-0.000618765
-0.447308
-0.543383
-0.333714
-0.846656
-0.201913
-0.242108
-0.306234
-0.307711
-0.298806
-0.292259
-0.295053
-0.309658
-0.329993
-0.491252
-0.299752
-0.832453
-0.150065
-0.236961
-0.272148
-0.253738
-0.228194
-0.202015
-0.176958
-0.154209
-0.133616
-0.113549
-0.0919466
-0.0682328
-0.0479713
-0.041142
-0.0445915
-0.0495381
-0.0520657
-0.0521048
-0.0504658
-0.0478388
-0.044643
-0.0411027
-0.0373364
-0.0334197
-0.0294258
-0.0254432
-0.0215704
-0.0178971
-0.0144852
-0.0113593
-0.0085091
-0.00589722
-0.00345115
-0.00111932
-0.358597
-0.450926
-0.220783
-0.573983
-0.185762
-0.240066
-0.260143
-0.261391
-0.262989
-0.262276
-0.267312
-0.28278
-0.289673
-0.415538
-0.199575
-0.563272
-0.147655
-0.233689
-0.228746
-0.212839
-0.197093
-0.177158
-0.157185
-0.138338
-0.119854
-0.100904
-0.0831038
-0.0676468
-0.05524
-0.049466
-0.0484264
-0.0483246
-0.0476364
-0.0461773
-0.0440362
-0.0413762
-0.038358
-0.0351137
-0.0317493
-0.0283508
-0.0249877
-0.0217153
-0.0185744
-0.0155917
-0.0127796
-0.0101378
-0.00765967
-0.00533019
-0.00310613
-0.00098966
-0.257187
-0.339876
-0.156973
-0.373119
-0.143524
-0.198513
-0.2129
-0.219963
-0.227464
-0.230217
-0.236337
-0.251649
-0.245043
-0.332178
-0.145491
-0.365499
-0.120077
-0.19823
-0.1878
-0.179138
-0.169326
-0.153933
-0.138177
-0.12245
-0.106102
-0.0892518
-0.0746566
-0.0638253
-0.0558735
-0.0513669
-0.0488869
-0.0466709
-0.0443649
-0.041897
-0.0392017
-0.0363079
-0.0332892
-0.0302213
-0.0271707
-0.0241887
-0.02131
-0.0185542
-0.0159292
-0.013436
-0.0110705
-0.00882568
-0.00669669
-0.00467665
-0.00273249
-0.000870172
-0.164077
-0.237861
-0.11817
-0.237992
-0.104346
-0.146112
-0.164655
-0.179167
-0.190766
-0.196358
-0.202652
-0.216209
-0.200939
-0.258182
-0.117896
-0.23664
-0.0961486
-0.154515
-0.148646
-0.147682
-0.142102
-0.130773
-0.118641
-0.105754
-0.0923211
-0.0791495
-0.0683476
-0.0605018
-0.0542831
-0.0496493
-0.0460466
-0.0428619
-0.0399913
-0.0372668
-0.0345362
-0.0317768
-0.0290192
-0.0262986
-0.0236451
-0.0210793
-0.0186127
-0.0162499
-0.013991
-0.011834
-0.00977515
-0.00780957
-0.00593536
-0.00414967
-0.00242698
-0.000772648
-0.0847857
-0.153981
-0.085548
-0.149016
-0.0686307
-0.0973851
-0.121808
-0.140932
-0.154755
-0.162599
-0.168703
-0.180155
-0.162158
-0.198448
-0.0983657
-0.157538
-0.0756341
-0.115611
-0.11619
-0.119694
-0.116778
-0.10897
-0.100039
-0.0899343
-0.0794803
-0.069651
-0.0617778
-0.0558335
-0.0506282
-0.0461063
-0.0421529
-0.0386468
-0.0356088
-0.0328702
-0.0302642
-0.0277352
-0.0252756
-0.0228897
-0.0205847
-0.0183657
-0.0162349
-0.0141919
-0.0122347
-0.010361
-0.00856768
-0.00685106
-0.00521032
-0.0036441
-0.00213207
-0.000678251
-0.0187102
-0.0830888
-0.0517535
-0.085631
-0.0348992
-0.0556769
-0.0849524
-0.106307
-0.121022
-0.130373
-0.136254
-0.145963
-0.128822
-0.150906
-0.0794556
-0.1063
-0.0566563
-0.084212
-0.0903309
-0.0959293
-0.0946242
-0.089586
-0.0832876
-0.0756275
-0.0676076
-0.0601307
-0.0541622
-0.0495667
-0.045408
-0.0415499
-0.0379145
-0.0345435
-0.0315702
-0.0289114
-0.0264425
-0.0241068
-0.0218818
-0.0197582
-0.0177317
-0.0157987
-0.0139545
-0.0121942
-0.0105124
-0.00890434
-0.00736566
-0.00589225
-0.00448289
-0.00313637
-0.00183548
-0.000582652
0.0396198
-0.0242845
-0.0173541
-0.0368043
-0.0042094
-0.020447
-0.052351
-0.0746838
-0.0897357
-0.100055
-0.105825
-0.114256
-0.0993705
-0.1122
-0.0607551
-0.0706636
-0.0400835
-0.0594406
-0.0689305
-0.0755076
-0.0753601
-0.0724525
-0.0681951
-0.0625184
-0.0564192
-0.0507009
-0.0461662
-0.0426877
-0.0395043
-0.0364059
-0.0332898
-0.0302666
-0.0275359
-0.0250816
-0.0228194
-0.0207046
-0.018717
-0.0168453
-0.0150807
-0.0134139
-0.0118356
-0.0103367
-0.00890932
-0.00754702
-0.00624439
-0.00499695
-0.00380329
-0.00266217
-0.00155798
-0.000492222
0.0898285
0.0252582
0.015792
0.00236106
0.0226293
0.00916569
-0.0232331
-0.0454685
-0.0606129
-0.0716004
-0.0774152
-0.085018
-0.0728863
-0.0802591
-0.0433778
-0.0450029
-0.0266453
-0.0401794
-0.0507396
-0.0575039
-0.058249
-0.0570095
-0.0543515
-0.0503098
-0.0458296
-0.0416143
-0.0383288
-0.0358202
-0.0334489
-0.0309967
-0.0283786
-0.025758
-0.0233634
-0.0212097
-0.0192334
-0.0173976
-0.0156858
-0.0140877
-0.0125931
-0.0111907
-0.0098692
-0.00861832
-0.00742938
-0.0062955
-0.00521125
-0.00417231
-0.00317752
-0.00222589
-0.00130218
-0.000407812
0.131123
0.0668521
0.0466196
0.0349314
0.0461763
0.0340903
0.00260609
-0.0184726
-0.0335517
-0.0449902
-0.050992
-0.058213
-0.0490354
-0.0537327
-0.0276174
-0.0256796
-0.0155182
-0.0250593
-0.0352219
-0.0414989
-0.0428818
-0.0429477
-0.0415883
-0.0389496
-0.035878
-0.0329689
-0.030762
-0.0290841
-0.0274099
-0.0255356
-0.0233948
-0.0211877
-0.0191593
-0.0173431
-0.0156873
-0.0141584
-0.0127413
-0.0114269
-0.0102051
-0.00906459
-0.00799384
-0.00698267
-0.0060226
-0.00510705
-0.00423088
-0.00339015
-0.00258426
-0.0018126
-0.00105949
-0.000326895
0.163984
0.101321
0.0746293
0.062987
0.0672108
0.0553102
0.0254738
0.00645959
-0.00852644
-0.0202121
-0.0264981
-0.0337097
-0.0274821
-0.0314165
-0.0132862
-0.0100814
-0.00551784
-0.0126295
-0.0217794
-0.0271828
-0.0290395
-0.0301272
-0.0298462
-0.0284284
-0.0265787
-0.024782
-0.0234771
-0.0225054
-0.0214608
-0.0201426
-0.018476
-0.0166818
-0.0150219
-0.0135479
-0.012217
-0.0109973
-0.00987526
-0.00884274
-0.0078903
-0.00700679
-0.00618108
-0.00540327
-0.00466532
-0.0039611
-0.00328595
-0.00263644
-0.0020127
-0.0014146
-0.000825551
-0.000248467
0.189487
0.129516
0.0995904
0.0877134
0.0861582
0.0737371
0.0458824
0.0295332
0.0145673
0.0028396
-0.00377936
-0.0112243
-0.00778248
-0.0122421
-0.000190591
0.00337216
0.0041677
-0.00167269
-0.0096811
-0.0141387
-0.0164464
-0.0183627
-0.0190061
-0.0186714
-0.0179034
-0.0170737
-0.0165282
-0.0161554
-0.0156776
-0.0148848
-0.0136724
-0.0122733
-0.0109712
-0.00983496
-0.00882681
-0.00791477
-0.0070859
-0.00633272
-0.00564607
-0.00501501
-0.00442877
-0.00387799
-0.0033553
-0.00285533
-0.00237415
-0.00190903
-0.00146093
-0.00103028
-0.000599553
-0.000172662
0.208512
0.152286
0.12146
0.109529
0.103629
0.0903532
0.0648747
0.0504735
0.0358937
0.0243492
0.0173873
0.00958517
0.0104848
0.0046971
0.0119128
0.0156418
0.0141285
0.00881231
0.00177753
-0.00192386
-0.00476549
-0.00740674
-0.00889698
-0.0095693
-0.00980672
-0.00985426
-0.00995755
-0.0100869
-0.0101086
-0.00979565
-0.00900068
-0.0079668
-0.00700491
-0.00619914
-0.00551163
-0.00490714
-0.00437125
-0.00389593
-0.00347188
-0.00308844
-0.00273552
-0.00240476
-0.00208992
-0.00178678
-0.00149245
-0.00120504
-0.000926446
-0.000657661
-0.000380389
-9.94045e-05
0.221883
0.170521
0.140478
0.129017
0.120008
0.105926
0.0828053
0.0696858
0.0557602
0.0445229
0.0372421
0.0290454
0.0276776
0.0201926
0.0234033
0.0274433
0.0248917
0.0196862
0.0131942
0.00983629
0.00631602
0.00297524
0.000646207
-0.00101207
-0.00222569
-0.00309146
-0.00374982
-0.00429595
-0.00475701
-0.00488045
-0.00446535
-0.00376669
-0.00312718
-0.00264335
-0.00227291
-0.0019743
-0.0017295
-0.00152885
-0.00136267
-0.00122084
-0.0010944
-0.000976469
-0.000862348
-0.000749245
-0.000635467
-0.000520098
-0.00040588
-0.000294349
-0.000166728
-2.83859e-05
0.230346
0.185011
0.157065
0.146471
0.135829
0.121021
0.100043
0.0875496
0.074457
0.0635752
0.0560178
0.0474576
0.0441267
0.0349517
0.034798
0.0393468
0.0368669
0.0315918
0.0250189
0.0214323
0.0170501
0.0129742
0.00976951
0.00711322
0.00492722
0.00328808
0.00215608
0.00126372
0.000409995
-0.000115416
-5.06564e-05
0.000334154
0.000663481
0.000832188
0.000889977
0.000886407
0.000844262
0.000775321
0.000689545
0.000596169
0.000502655
0.000414134
0.000333553
0.000262171
0.000200444
0.00014835
0.000102388
6.0582e-05
4.18821e-05
4.05293e-05
0.234573
0.196418
0.171688
0.162369
0.151192
0.135981
0.116517
0.104754
0.0922562
0.0817026
0.0739281
0.0650949
0.0601485
0.049579
0.0466914
0.051793
0.0502188
0.0448277
0.0375181
0.0330728
0.0276291
0.0227453
0.0186092
0.0149281
0.0117616
0.00938565
0.00784887
0.00666707
0.00545704
0.00455561
0.00428798
0.00436655
0.00438723
0.00424161
0.00398828
0.00368493
0.00335919
0.00302489
0.00269201
0.00236859
0.00206033
0.0017704
0.00149994
0.00124862
0.00101567
0.000800172
0.000597956
0.000406669
0.000245124
0.000107271
0.235305
0.205365
0.184778
0.177011
0.166161
0.150969
0.132554
0.121345
0.109306
0.0990664
0.0911551
0.0821865
0.0760201
0.0645411
0.0596127
0.0651333
0.0648501
0.0593174
0.0507603
0.0448816
0.0381906
0.0324167
0.0272948
0.0225612
0.0184049
0.0153242
0.0134392
0.0120144
0.0104794
0.00922001
0.00862204
0.00838303
0.00808116
0.00761147
0.00704153
0.00643581
0.00582604
0.00522756
0.00464994
0.00409966
0.00358032
0.00309294
0.00263665
0.0022095
0.00180943
0.00143459
0.00108017
0.00074346
0.000442757
0.000171784
0.233368
0.212465
0.196758
0.19065
0.180653
0.16585
0.148234
0.137345
0.125702
0.115787
0.107838
0.0988999
0.0919455
0.0801533
0.0739512
0.0795958
0.0804602
0.0747005
0.0646453
0.0569028
0.0488231
0.0420905
0.0359453
0.0301434
0.0249971
0.0212428
0.0190533
0.0174233
0.0155926
0.0139846
0.013038
0.0124468
0.0117895
0.0109725
0.0100711
0.00915388
0.00825502
0.00739032
0.00656814
0.00579272
0.00506506
0.00438361
0.00374525
0.00314619
0.00258298
0.00205273
0.00155003
0.00107176
0.000635288
0.0002342
0.229622
0.218286
0.208004
0.203507
0.194474
0.180284
0.163448
0.152756
0.141501
0.131944
0.124067
0.115334
0.10803
0.0965578
0.0898806
0.0952338
0.096648
0.0905009
0.0789729
0.0691231
0.059578
0.0518463
0.0446655
0.0378003
0.031682
0.0272862
0.0248216
0.0230144
0.0209149
0.0189578
0.0176228
0.0166209
0.0155561
0.0143548
0.0130978
0.011854
0.0106571
0.00952174
0.00845365
0.0074539
0.00652008
0.0056475
0.00483039
0.00406291
0.00334002
0.00265774
0.00201004
0.00139344
0.0008238
0.000294779
0.224953
0.223322
0.218779
0.215729
0.207419
0.193914
0.178026
0.167558
0.156736
0.147587
0.139891
0.131522
0.124269
0.113698
0.107273
0.111891
0.113022
0.106304
0.0935259
0.0815034
0.0704836
0.0617445
0.0535433
0.045646
0.038596
0.0335934
0.0308663
0.0288962
0.026549
0.0242324
0.0224505
0.0209599
0.0194202
0.0177866
0.0161427
0.0145526
0.013046
0.0116336
0.010317
0.00909261
0.00795379
0.00689204
0.00589854
0.00496511
0.00408504
0.00325316
0.00246289
0.00171036
0.00100933
0.000353741
0.220259
0.227989
0.229194
0.227364
0.219359
0.206513
0.191835
0.181739
0.17143
0.162743
0.155325
0.147446
0.140553
0.131314
0.125679
0.1292
0.129286
0.121872
0.108139
0.0940058
0.0815558
0.0718282
0.0626467
0.0537742
0.0458561
0.0402832
0.0372882
0.0351506
0.0325662
0.0298703
0.0275715
0.0255029
0.0234118
0.0212916
0.0192249
0.0172659
0.0154358
0.0137385
0.0121694
0.0107188
0.00937478
0.00812447
0.00695564
0.00585759
0.00482178
0.00384181
0.0029106
0.00202392
0.00119262
0.000411223
0.21637
0.232592
0.239208
0.238364
0.23027
0.218048
0.204837
0.195313
0.185603
0.177434
0.170371
0.163056
0.156707
0.148991
0.144403
0.146645
0.145269
0.137171
0.122729
0.106607
0.0928022
0.082124
0.07202
0.0622502
0.0535443
0.0474371
0.0441504
0.0418195
0.0389932
0.0358912
0.0330033
0.030267
0.0275472
0.0248848
0.0223582
0.0200064
0.0178379
0.0158467
0.0140197
0.01234
0.0107893
0.00934998
0.00800592
0.00674373
0.00555294
0.00442579
0.00335476
0.00233524
0.00137435
0.000467411
0.213966
0.237314
0.248657
0.24861
0.240237
0.228672
0.217103
0.208337
0.199285
0.191684
0.185026
0.178294
0.172532
0.166261
0.162675
0.163674
0.160905
0.152306
0.137283
0.119296
0.104221
0.09264
0.0816806
0.0711025
0.0616943
0.0550844
0.051467
0.0488967
0.0458088
0.0422703
0.038728
0.0352443
0.0318262
0.0285699
0.0255483
0.0227807
0.0202589
0.0179644
0.0158737
0.0139614
0.0122022
0.0105728
0.00905318
0.00762698
0.00628159
0.00500776
0.00379755
0.00264595
0.00155554
0.000522693
0.213498
0.242228
0.257329
0.257974
0.249424
0.238663
0.228782
0.220896
0.212519
0.205528
0.199298
0.193118
0.187869
0.182724
0.179837
0.179818
0.176194
0.167416
0.151817
0.132063
0.115799
0.103364
0.0916158
0.080318
0.0702901
0.0632016
0.0592016
0.0563297
0.0529489
0.0489452
0.0446984
0.0404061
0.0362343
0.0323414
0.0287947
0.025591
0.0227029
0.0200966
0.0177369
0.0155887
0.0136191
0.0117988
0.0101032
0.00851279
0.0070127
0.00559207
0.00424252
0.00295868
0.00173786
0.000577746
0.21517
0.247338
0.265055
0.266377
0.258041
0.248324
0.240045
0.233007
0.225438
0.219018
0.21321
0.207519
0.202631
0.198147
0.195502
0.194796
0.191146
0.182564
0.166321
0.144883
0.127506
0.114266
0.101787
0.0898624
0.0792684
0.0717142
0.067275
0.0640336
0.0603251
0.0558315
0.050849
0.0457112
0.0407494
0.0361895
0.032095
0.0284397
0.0251749
0.0222502
0.0196174
0.0172308
0.0150492
0.0130368
0.0111645
0.00940903
0.00775327
0.00618463
0.00469432
0.00327674
0.00192337
0.000633494
0.218962
0.25264
0.271797
0.273849
0.266293
0.257899
0.25105
0.244759
0.238103
0.232199
0.226799
0.221522
0.216827
0.212518
0.209638
0.208535
0.205769
0.197685
0.180727
0.157704
0.139302
0.125298
0.112147
0.0996324
0.0885862
0.0805074
0.0755979
0.0719194
0.0678411
0.0628362
0.0571091
0.0511156
0.045349
0.0401059
0.0354497
0.0313328
0.0276843
0.0244366
0.0215274
0.0189
0.0165045
0.0142983
0.0122471
0.0103245
0.00851085
0.00679158
0.00515769
0.00360343
0.00211414
0.000690886
0.224685
0.258163
0.277699
0.280557
0.274356
0.267519
0.261909
0.256326
0.25047
0.245111
0.240118
0.23519
0.230552
0.226039
0.22254
0.221057
0.220146
0.212593
0.194898
0.170455
0.151144
0.136425
0.122648
0.10961
0.0980923
0.0895214
0.0840126
0.0798844
0.0753948
0.0698701
0.0634129
0.0565796
0.0500152
0.0440875
0.0388648
0.0342812
0.0302452
0.0266709
0.023482
0.0206107
0.017998
0.0155947
0.013361
0.0112677
0.00929212
0.00741831
0.00563674
0.00394147
0.00231184
0.000750648
0.232038
0.264001
0.283083
0.286791
0.282358
0.277195
0.272649
0.267739
0.262619
0.257816
0.25323
0.248608
0.243959
0.239057
0.234811
0.233589
0.233319
0.226958
0.208647
0.183071
0.162984
0.147586
0.133238
0.119699
0.107707
0.0986182
0.0925116
0.0878549
0.0829067
0.0768645
0.0697081
0.0620731
0.054738
0.0481375
0.0423509
0.0372995
0.0328748
0.02897
0.0254968
0.0223766
0.0195414
0.0169353
0.0145144
0.0122451
0.0101026
0.00806906
0.00613458
0.00429303
0.0025179
0.000813582
0.240689
0.270306
0.288393
0.292914
0.290384
0.28685
0.283247
0.279023
0.274622
0.270379
0.266207
0.261871
0.257215
0.251933
0.246911
0.24564
0.246196
0.24064
0.221857
0.1955
0.174766
0.158747
0.143866
0.129845
0.117382
0.107747
0.101014
0.0957539
0.0903389
0.0837729
0.075955
0.0675772
0.0595156
0.0522645
0.0459209
0.0403988
0.0355943
0.0313499
0.0275847
0.0242083
0.0211436
0.0183284
0.0157135
0.0132619
0.0109462
0.00874705
0.00665363
0.00465966
0.00273324
0.000880139
0.250339
0.277244
0.294095
0.299293
0.298486
0.296386
0.293674
0.290211
0.286544
0.282869
0.279119
0.275073
0.270477
0.264976
0.259352
0.257761
0.25867
0.253482
0.23439
0.20783
0.186467
0.169897
0.154516
0.140019
0.127072
0.116852
0.109457
0.10358
0.0976744
0.0905685
0.0821405
0.0730873
0.0643528
0.0564806
0.0495955
0.0436129
0.0383974
0.0338155
0.029754
0.026114
0.0228119
0.0197795
0.0169631
0.0143221
0.0118266
0.00945506
0.00719592
0.00504272
0.00295864
0.000950649
0.260689
0.284938
0.300578
0.306226
0.306704
0.305737
0.30393
0.301345
0.298448
0.295352
0.292036
0.288298
0.283866
0.278398
0.272462
0.270306
0.270727
0.265611
0.246468
0.219881
0.198091
0.181054
0.165189
0.150207
0.136751
0.125929
0.11786
0.111356
0.104863
0.0972447
0.0882705
0.0786188
0.0692606
0.060797
0.0533814
0.0469353
0.0413165
0.0363849
0.0320159
0.0281022
0.0245531
0.0212946
0.0182683
0.0154299
0.0127466
0.0101949
0.0077625
0.0054427
0.00319425
0.00102517
0.271233
0.293422
0.308071
0.31389
0.315082
0.314916
0.314065
0.312485
0.310401
0.307897
0.305023
0.301617
0.297457
0.292276
0.286329
0.283427
0.282883
0.276858
0.258191
0.231783
0.209729
0.192257
0.175909
0.160425
0.146424
0.134981
0.126231
0.119065
0.11199
0.103862
0.094379
0.0841842
0.0742556
0.0652304
0.0572939
0.0503825
0.0443549
0.039064
0.0343772
0.0301795
0.0263733
0.0228788
0.0196329
0.0165876
0.0137074
0.0109669
0.00835314
0.00585917
0.00343966
0.00110358
0.281856
0.302642
0.316596
0.322321
0.323665
0.324023
0.324183
0.323708
0.322469
0.320566
0.318142
0.315088
0.311282
0.306573
0.300848
0.297067
0.294996
0.288025
0.26972
0.243715
0.221469
0.203565
0.186728
0.170711
0.156118
0.144028
0.134602
0.12678
0.119119
0.110482
0.100524
0.0898336
0.0793716
0.0698022
0.0613478
0.0539662
0.0475209
0.0418603
0.0368449
0.032352
0.0282775
0.0245357
0.0210591
0.0177962
0.0147091
0.0117708
0.00896736
0.00629176
0.00369471
0.00118587
0.292299
0.312393
0.325993
0.331431
0.332508
0.333219
0.334424
0.335098
0.334717
0.333421
0.33145
0.328761
0.325348
0.321185
0.315798
0.311134
0.307331
0.299364
0.281412
0.255859
0.233404
0.21506
0.197718
0.181128
0.165886
0.153115
0.143023
0.134575
0.126342
0.117203
0.106788
0.0956257
0.084646
0.0745368
0.0655601
0.0576991
0.0508246
0.0447824
0.0394258
0.0346251
0.0302695
0.0262679
0.0225485
0.0190568
0.0157526
0.0126073
0.00960618
0.00674155
0.0039602
0.00127239
0.302289
0.322434
0.335994
0.341031
0.34167
0.342697
0.344934
0.346738
0.347207
0.346519
0.345002
0.342685
0.339658
0.335998
0.330942
0.325496
0.320091
0.311197
0.293584
0.268375
0.245647
0.226844
0.20897
0.191762
0.175814
0.162317
0.151565
0.142531
0.133762
0.124134
0.113263
0.101625
0.0901226
0.0794642
0.0699521
0.0615971
0.0542785
0.0478397
0.0421273
0.0370043
0.0323535
0.0280788
0.0241044
0.0203728
0.0168416
0.0134804
0.0102732
0.00721152
0.00423803
0.00136368
0.311697
0.332408
0.346267
0.350903
0.351215
0.352601
0.355831
0.358699
0.359991
0.359911
0.35885
0.356904
0.354223
0.350933
0.346103
0.340041
0.333406
0.323822
0.306456
0.281407
0.258321
0.239029
0.220592
0.202725
0.186016
0.171744
0.160321
0.150738
0.141477
0.131375
0.120034
0.107899
0.0958508
0.0846203
0.0745506
0.0656802
0.0578976
0.0510437
0.0449583
0.0394969
0.0345363
0.0299752
0.0257338
0.0217515
0.0179833
0.0143966
0.010974
0.0077059
0.0045308
0.00146056
0.320297
0.342195
0.356499
0.360894
0.361174
0.362988
0.367186
0.371033
0.373113
0.373642
0.373043
0.371466
0.369071
0.365978
0.361216
0.354734
0.347354
0.337393
0.320165
0.295074
0.271541
0.251725
0.232699
0.214143
0.196632
0.181533
0.169407
0.159287
0.149569
0.139008
0.127178
0.114511
0.10188
0.0900446
0.0793863
0.0699722
0.0617005
0.0544093
0.0479311
0.0421141
0.0368283
0.0319673
0.0274467
0.0232022
0.0191858
0.0153626
0.0117136
0.00822805
0.0048403
0.00156359
0.328131
0.351574
0.366457
0.370982
0.371433
0.37387
0.379027
0.383767
0.386609
0.387749
0.387624
0.386416
0.384251
0.381189
0.376337
0.369621
0.361974
0.351937
0.334755
0.309454
0.285404
0.265036
0.245401
0.226144
0.207808
0.191835
0.178954
0.168276
0.15811
0.147092
0.134751
0.121513
0.108259
0.0957767
0.084492
0.0745005
0.06571
0.0579559
0.0510631
0.0448715
0.0392439
0.0340678
0.0292537
0.0247335
0.0204559
0.0163834
0.0124954
0.00878009
0.00516763
0.00167355
0.335282
0.360507
0.376115
0.381016
0.381956
0.385248
0.39133
0.396911
0.400503
0.402267
0.402634
0.401804
0.39983
0.396679
0.391623
0.384823
0.377279
0.367388
0.350194
0.324583
0.299984
0.279051
0.258801
0.238846
0.219684
0.202802
0.189099
0.177802
0.167158
0.155671
0.142797
0.128949
0.115027
0.101855
0.089902
0.079295
0.0699525
0.061707
0.0543751
0.0477875
0.0417987
0.0362893
0.0311646
0.0263521
0.0217975
0.0174607
0.0133196
0.00936112
0.00551183
0.0017908
0.341901
0.369093
0.385541
0.390985
0.392747
0.397053
0.404046
0.410467
0.414819
0.417226
0.418113
0.417678
0.415886
0.412597
0.407289
0.400503
0.393273
0.383637
0.366404
0.340471
0.315338
0.293842
0.272981
0.252345
0.232376
0.214567
0.199968
0.187959
0.176771
0.164779
0.151345
0.136855
0.122223
0.108316
0.095651
0.0843879
0.0744572
0.0656887
0.0578899
0.0508812
0.0445084
0.0386448
0.0331902
0.0280678
0.0232201
0.0186042
0.0141961
0.00998109
0.00588173
0.00191883
0.348241
0.377458
0.394829
0.400987
0.403794
0.409179
0.417123
0.424434
0.42958
0.432656
0.434096
0.434085
0.4325
0.429098
0.423564
0.416841
0.409969
0.40058
0.38331
0.357121
0.331509
0.309465
0.288003
0.266712
0.245965
0.227226
0.211664
0.198832
0.187001
0.174449
0.160423
0.14526
0.129881
0.115196
0.101774
0.089812
0.079254
0.0699272
0.0616295
0.0541708
0.0473874
0.0411454
0.0353385
0.0298854
0.0247246
0.0198108
0.0151175
0.0106278
0.00626186
0.00205247
0.354606
0.385777
0.404104
0.411169
0.415079
0.421559
0.430534
0.438821
0.444808
0.448588
0.450621
0.451076
0.44975
0.44632
0.440646
0.434002
0.427407
0.418165
0.400873
0.374543
0.348535
0.325967
0.303917
0.281993
0.2605
0.240837
0.224255
0.210486
0.197898
0.184712
0.17006
0.154198
0.138037
0.122531
0.108306
0.0955996
0.0843716
0.0744477
0.0656162
0.057676
0.0504539
0.0438079
0.0376257
0.0318209
0.0263281
0.021099
0.0161044
0.0113233
0.00667695
0.00220684
0.361308
0.394261
0.413555
0.421601
0.426593
0.434175
0.444281
0.453647
0.460531
0.465057
0.467729
0.468701
0.467708
0.464373
0.458682
0.452119
0.445652
0.436413
0.419116
0.392776
0.36646
0.343394
0.320763
0.298219
0.276
0.255421
0.237774
0.222967
0.209506
0.195606
0.180287
0.163701
0.146728
0.130359
0.115283
0.101783
0.0898389
0.0792756
0.0698728
0.0614183
0.0537286
0.0466531
0.0400725
0.0338948
0.02805
0.0224859
0.01717
0.012078
0.00713057
0.002369
0.368626
0.403067
0.4233
0.432337
0.438367
0.447065
0.458404
0.468944
0.476785
0.482101
0.485464
0.487012
0.486438
0.483335
0.477765
0.471288
0.464801
0.455421
0.438133
0.411896
0.385344
0.361798
0.338585
0.315417
0.292474
0.270976
0.252227
0.236297
0.22186
0.207167
0.191142
0.173808
0.155992
0.13872
0.122744
0.108399
0.0956875
0.0844388
0.0744236
0.0654181
0.0572277
0.0496922
0.0426843
0.0361057
0.0298816
0.023956
0.0182939
0.0128701
0.00760155
0.0025263
0.376759
0.41227
0.433376
0.443415
0.450465
0.460312
0.47297
0.484755
0.493607
0.499764
0.503873
0.506065
0.506001
0.50326
0.497942
0.491576
0.484966
0.475347
0.458071
0.43201
0.405267
0.381248
0.357438
0.333623
0.309935
0.287497
0.267612
0.250491
0.234992
0.219435
0.202661
0.184555
0.165872
0.147657
0.130731
0.115486
0.101955
0.0899714
0.0792993
0.069703
0.0609754
0.0529461
0.0454793
0.0384703
0.0318396
0.0255278
0.0194971
0.0137209
0.00810939
0.00269827
0.385799
0.421871
0.443757
0.454846
0.462966
0.474024
0.488057
0.501132
0.511041
0.518092
0.523009
0.525918
0.526456
0.524191
0.519239
0.513034
0.506274
0.49638
0.479118
0.453254
0.426328
0.401825
0.37739
0.352889
0.328413
0.304998
0.283935
0.265567
0.248936
0.232452
0.214886
0.195984
0.176409
0.157219
0.139296
0.123096
0.108687
0.0959153
0.0845378
0.0743072
0.0650036
0.0564452
0.0484873
0.041018
0.0339525
0.0272272
0.0208008
0.0146439
0.00866186
0.00289166
0.395741
0.431824
0.454394
0.466632
0.475952
0.488307
0.503744
0.518123
0.529129
0.537135
0.542928
0.546636
0.547866
0.546178
0.54169
0.535717
0.52885
0.518713
0.501468
0.475781
0.448644
0.423629
0.398532
0.373291
0.347969
0.323521
0.301232
0.281564
0.26374
0.246268
0.227865
0.208139
0.187654
0.167459
0.148496
0.131286
0.11594
0.10232
0.0901818
0.0792662
0.0693408
0.0602118
0.0517247
0.04376
0.0362268
0.0290566
0.0222041
0.0156366
0.00925626
0.00310275
0.406496
0.442074
0.465248
0.478783
0.489493
0.503244
0.52009
0.535773
0.547916
0.556942
0.56369
0.568282
0.570298
0.569279
0.565345
0.559696
0.552818
0.542517
0.525301
0.499742
0.472343
0.446777
0.42097
0.394928
0.36869
0.343144
0.31957
0.298547
0.27947
0.260947
0.241656
0.221076
0.199661
0.178439
0.158396
0.140121
0.123775
0.109241
0.0962782
0.0846191
0.0740183
0.0642699
0.0552088
0.0467073
0.0386679
0.0310173
0.0237061
0.0166975
0.00989145
0.00332885
0.417939
0.452597
0.476327
0.491325
0.503634
0.518876
0.537126
0.554118
0.567444
0.577561
0.585349
0.590921
0.593823
0.593569
0.590281
0.58506
0.578291
0.567932
0.550767
0.52528
0.497556
0.471392
0.444829
0.417922
0.390695
0.36398
0.339054
0.316613
0.296216
0.276572
0.256334
0.234861
0.212496
0.190224
0.169064
0.149668
0.132252
0.116732
0.102873
0.0904031
0.0790659
0.0686427
0.0589575
0.0498731
0.0412855
0.033116
0.0253107
0.0178286
0.0105681
0.00356933
0.429939
0.463433
0.487707
0.504306
0.518387
0.535196
0.554858
0.573182
0.587748
0.599037
0.607958
0.614612
0.618509
0.61913
0.616593
0.611911
0.605372
0.595062
0.577979
0.55252
0.524412
0.497606
0.470239
0.442406
0.414121
0.386163
0.359816
0.335887
0.314095
0.293252
0.271995
0.24958
0.226235
0.202888
0.180573
0.159998
0.141439
0.124851
0.110015
0.0966567
0.0845111
0.0733478
0.0629795
0.0532602
0.0440783
0.0353495
0.0270146
0.0190274
0.0112847
0.00382373
0.442394
0.474686
0.499517
0.517784
0.533731
0.552159
0.57327
0.592978
0.608855
0.621399
0.631554
0.639402
0.644414
0.646037
0.644378
0.64035
0.634149
0.623983
0.607028
0.581572
0.553035
0.525549
0.497334
0.468521
0.439112
0.409842
0.382003
0.356513
0.333243
0.311111
0.288752
0.265334
0.240969
0.216512
0.192997
0.17118
0.151401
0.133659
0.117758
0.103428
0.0903948
0.0784187
0.0673021
0.0568899
0.0470628
0.03773
0.0288259
0.0202987
0.0120436
0.00409301
0.455229
0.486497
0.511919
0.531816
0.549616
0.569694
0.592327
0.613505
0.630774
0.64466
0.656157
0.665316
0.671579
0.674352
0.673715
0.670466
0.664699
0.654761
0.637989
0.612535
0.583543
0.555347
0.526246
0.496403
0.46581
0.435164
0.405767
0.378641
0.353808
0.33029
0.306738
0.282242
0.256804
0.23119
0.206418
0.183288
0.162204
0.143215
0.126155
0.110761
0.0967568
0.0838927
0.0719609
0.0607967
0.0502714
0.0402863
0.030769
0.021661
0.0128565
0.00438161
0.468389
0.499005
0.525057
0.546439
0.565978
0.587724
0.611988
0.634742
0.653495
0.668808
0.681758
0.692355
0.700017
0.704109
0.704658
0.702321
0.697089
0.687463
0.670941
0.645507
0.616046
0.587116
0.557094
0.526175
0.494345
0.462265
0.431248
0.402415
0.375934
0.350933
0.32609
0.300436
0.273857
0.247026
0.220931
0.196409
0.173927
0.153591
0.13527
0.118715
0.10365
0.0898165
0.076997
0.0650149
0.0537317
0.0430401
0.0328604
0.0231271
0.0137315
0.00469243
0.481812
0.512294
0.539014
0.561647
0.582739
0.606174
0.632202
0.656645
0.676953
0.693816
0.708317
0.72049
0.729717
0.735316
0.737232
0.735956
0.73138
0.722171
0.705973
0.680587
0.650655
0.620968
0.589987
0.557948
0.524832
0.491263
0.458567
0.427961
0.399749
0.373171
0.346942
0.320044
0.292253
0.264137
0.236644
0.210641
0.186661
0.164873
0.145187
0.127372
0.111153
0.0962663
0.082481
0.0696082
0.0574988
0.0460371
0.0351358
0.0247212
0.0146814
0.005029
0.495408
0.526349
0.553771
0.577376
0.599816
0.624976
0.652907
0.679143
0.701089
0.719578
0.735756
0.749658
0.760642
0.767959
0.771443
0.7714
0.767637
0.758982
0.743197
0.71789
0.68748
0.65701
0.625028
0.591824
0.55737
0.522258
0.487823
0.455376
0.425355
0.397112
0.369409
0.341187
0.312114
0.282645
0.253675
0.226098
0.200514
0.177162
0.155999
0.136819
0.119349
0.103317
0.0884808
0.0746392
0.0616306
0.0493293
0.037639
0.0264766
0.0157265
0.00539784
0.509036
0.541031
0.569182
0.593495
0.617115
0.644061
0.674016
0.702122
0.725773
0.745976
0.763962
0.779775
0.792739
0.802021
0.807296
0.808687
0.805939
0.798017
0.782749
0.757545
0.726643
0.695354
0.662323
0.6279
0.592054
0.55534
0.519101
0.484738
0.452825
0.422833
0.393576
0.363962
0.333548
0.302666
0.272148
0.242908
0.215614
0.190585
0.167832
0.147176
0.128348
0.11107
0.0950878
0.0801868
0.0661932
0.0529689
0.0404075
0.0284167
0.0168779
0.00580076
0.522498
0.556067
0.584972
0.6098
0.634519
0.663341
0.695406
0.725423
0.750836
0.772851
0.7928
0.810738
0.825953
0.837495
0.844825
0.847882
0.846391
0.83942
0.824785
0.799704
0.768284
0.73613
0.70199
0.666288
0.628986
0.5906
0.552478
0.51611
0.482213
0.450383
0.419496
0.388431
0.35663
0.32429
0.292166
0.261183
0.232081
0.205264
0.180804
0.158555
0.138259
0.119631
0.102404
0.0863492
0.0712775
0.0570383
0.0435139
0.0306027
0.01818
0.00625201
0.535537
0.57107
0.600759
0.626025
0.651881
0.682687
0.716903
0.74884
0.776071
0.800015
0.822114
0.842444
0.860246
0.874408
0.884111
0.889101
0.889137
0.883356
0.869483
0.844543
0.812573
0.7795
0.744183
0.707129
0.668296
0.628156
0.588053
0.549569
0.513573
0.479803
0.447204
0.414627
0.3814
0.347571
0.313803
0.281013
0.250014
0.221296
0.195004
0.171036
0.149149
0.129056
0.110476
0.0931622
0.0769113
0.0615583
0.0469737
0.0330455
0.0196358
0.00676093
0.547851
0.585565
0.616085
0.641858
0.669008
0.701911
0.738274
0.772124
0.801238
0.82726
0.851746
0.874801
0.895606
0.912836
0.925301
0.932528
0.934368
0.93002
0.917042
0.892271
0.859718
0.825667
0.789097
0.750605
0.710152
0.66816
0.625963
0.585228
0.546989
0.511146
0.476728
0.442565
0.407866
0.372526
0.337089
0.302448
0.26947
0.238738
0.210482
0.184655
0.161039
0.139348
0.119291
0.100604
0.0830645
0.066494
0.050752
0.0357144
0.0212262
0.00734449
0.5591
0.599038
0.630467
0.65696
0.685657
0.720762
0.759233
0.794991
0.826085
0.854375
0.88155
0.907749
0.932066
0.952904
0.968603
0.978416
0.98233
0.979632
0.967682
0.943123
0.909964
0.874875
0.836969
0.796944
0.754769
0.710815
0.666394
0.623251
0.582594
0.544504
0.50812
0.472263
0.436029
0.39915
0.362028
0.325499
0.290465
0.257599
0.227232
0.199385
0.173878
0.150437
0.128765
0.108585
0.0896559
0.0717783
0.0547984
0.0385759
0.0229427
0.00799261
0.568938
0.61098
0.643438
0.670985
0.701538
0.738922
0.77945
0.817136
0.85035
0.881159
0.911409
0.941264
0.9697