/*--------------------------------*- C++ -*----------------------------------*\
  =========                 |
  \\      /  F ield         | OpenFOAM: The Open Source CFD Toolbox
   \\    /   O peration     | Website:  https://openfoam.org
    \\  /    A nd           | Version:  9
     \\/     M anipulation  |
\*---------------------------------------------------------------------------*/
FoamFile
{
    format      ascii;
    class       volScalarField;
    location    "0.18";
    object      rAU;
}
// * * * * * * * * * * * * * * * * * * * * * * * * * * * * * * * * * * * * * //

dimensions      [-1 3 1 0 0 0 0];

internalField   nonuniform List<scalar> 
5000
(
8.36383e-06
8.34671e-06
9.08354e-06
1.2139e-05
1.0091e-05
8.61464e-06
8.44145e-06
8.50539e-06
8.55415e-06
8.57344e-06
8.567e-06
8.5324e-06
8.45451e-06
8.40638e-06
9.16566e-06
1.21134e-05
9.86235e-06
8.60769e-06
8.49515e-06
8.57823e-06
8.58223e-06
8.61443e-06
8.63982e-06
8.66726e-06
8.72156e-06
8.83276e-06
8.97318e-06
9.01513e-06
8.90385e-06
8.75989e-06
8.66807e-06
8.62421e-06
8.60255e-06
8.58797e-06
8.57538e-06
8.56343e-06
8.55131e-06
8.53782e-06
8.52132e-06
8.49985e-06
8.4715e-06
8.43479e-06
8.38894e-06
8.33394e-06
8.27038e-06
8.19913e-06
8.12108e-06
8.03699e-06
7.94743e-06
8.10974e-06
1.13583e-05
1.13445e-05
1.18455e-05
1.33676e-05
1.25064e-05
1.15541e-05
1.14046e-05
1.14487e-05
1.1483e-05
1.1495e-05
1.1489e-05
1.14636e-05
1.14081e-05
1.13799e-05
1.18929e-05
1.33528e-05
1.23763e-05
1.15459e-05
1.14424e-05
1.14986e-05
1.14269e-05
1.1425e-05
1.14185e-05
1.14125e-05
1.14233e-05
1.14684e-05
1.15257e-05
1.1517e-05
1.14135e-05
1.12873e-05
1.11929e-05
1.11291e-05
1.10782e-05
1.10296e-05
1.09795e-05
1.09272e-05
1.0872e-05
1.08131e-05
1.07495e-05
1.06799e-05
1.06033e-05
1.05188e-05
1.0426e-05
1.0325e-05
1.0216e-05
1.00995e-05
9.97611e-06
9.84608e-06
9.70974e-06
9.95143e-06
1.13658e-05
1.13581e-05
1.18721e-05
1.32503e-05
1.25463e-05
1.15897e-05
1.14075e-05
1.14494e-05
1.14856e-05
1.14974e-05
1.14907e-05
1.14634e-05
1.14049e-05
1.13875e-05
1.19147e-05
1.32307e-05
1.24198e-05
1.15778e-05
1.14453e-05
1.15002e-05
1.14309e-05
1.14291e-05
1.14221e-05
1.14158e-05
1.1428e-05
1.14757e-05
1.15334e-05
1.15229e-05
1.14178e-05
1.12889e-05
1.11922e-05
1.11279e-05
1.10778e-05
1.10301e-05
1.0981e-05
1.09293e-05
1.08746e-05
1.08161e-05
1.07526e-05
1.06831e-05
1.06064e-05
1.05218e-05
1.04288e-05
1.03275e-05
1.02184e-05
1.01018e-05
9.97821e-06
9.84809e-06
9.71168e-06
9.9535e-06
1.13723e-05
1.13747e-05
1.1894e-05
1.31319e-05
1.25724e-05
1.16271e-05
1.1411e-05
1.14496e-05
1.14883e-05
1.15006e-05
1.14933e-05
1.14639e-05
1.14032e-05
1.13996e-05
1.19323e-05
1.31071e-05
1.24502e-05
1.16115e-05
1.14482e-05
1.15008e-05
1.14342e-05
1.14327e-05
1.1425e-05
1.14186e-05
1.14325e-05
1.14831e-05
1.15417e-05
1.15298e-05
1.1423e-05
1.12912e-05
1.11917e-05
1.11266e-05
1.10771e-05
1.10304e-05
1.09821e-05
1.09311e-05
1.0877e-05
1.08189e-05
1.07557e-05
1.06862e-05
1.06095e-05
1.05247e-05
1.04316e-05
1.03301e-05
1.02208e-05
1.01041e-05
9.98041e-06
9.85019e-06
9.71372e-06
9.95566e-06
1.13769e-05
1.13915e-05
1.19082e-05
1.3023e-05
1.25851e-05
1.16626e-05
1.14147e-05
1.14488e-05
1.14908e-05
1.1504e-05
1.14965e-05
1.14651e-05
1.14027e-05
1.14133e-05
1.19434e-05
1.29943e-05
1.24677e-05
1.16435e-05
1.14507e-05
1.14999e-05
1.14365e-05
1.14355e-05
1.14273e-05
1.14208e-05
1.14365e-05
1.14903e-05
1.15502e-05
1.15373e-05
1.14291e-05
1.12941e-05
1.11915e-05
1.11252e-05
1.10761e-05
1.10304e-05
1.0983e-05
1.09327e-05
1.08791e-05
1.08214e-05
1.07585e-05
1.06892e-05
1.06125e-05
1.05276e-05
1.04343e-05
1.03327e-05
1.02233e-05
1.01064e-05
9.98262e-06
9.85231e-06
9.71576e-06
9.95782e-06
1.1379e-05
1.14058e-05
1.1915e-05
1.29276e-05
1.25872e-05
1.16945e-05
1.14186e-05
1.14473e-05
1.14929e-05
1.15076e-05
1.14999e-05
1.14666e-05
1.14031e-05
1.14265e-05
1.19486e-05
1.28969e-05
1.2475e-05
1.16724e-05
1.14531e-05
1.1498e-05
1.14377e-05
1.14377e-05
1.1429e-05
1.14225e-05
1.14401e-05
1.14974e-05
1.15588e-05
1.15453e-05
1.14354e-05
1.12973e-05
1.11915e-05
1.11238e-05
1.10749e-05
1.10301e-05
1.09836e-05
1.0934e-05
1.0881e-05
1.08238e-05
1.07611e-05
1.0692e-05
1.06153e-05
1.05303e-05
1.04369e-05
1.03352e-05
1.02256e-05
1.01086e-05
9.98472e-06
9.85431e-06
9.71769e-06
9.95984e-06
1.13794e-05
1.14168e-05
1.19162e-05
1.28455e-05
1.25813e-05
1.17222e-05
1.14229e-05
1.14455e-05
1.14945e-05
1.1511e-05
1.15033e-05
1.14682e-05
1.14042e-05
1.14386e-05
1.19499e-05
1.2815e-05
1.24747e-05
1.16974e-05
1.14554e-05
1.14954e-05
1.14381e-05
1.14391e-05
1.14301e-05
1.14237e-05
1.14435e-05
1.15043e-05
1.15675e-05
1.15534e-05
1.14418e-05
1.13006e-05
1.11916e-05
1.11224e-05
1.10738e-05
1.10297e-05
1.09841e-05
1.09353e-05
1.08828e-05
1.0826e-05
1.07637e-05
1.06946e-05
1.06179e-05
1.05329e-05
1.04393e-05
1.03375e-05
1.02278e-05
1.01106e-05
9.98664e-06
9.85613e-06
9.71943e-06
9.96165e-06
1.13782e-05
1.14249e-05
1.19139e-05
1.27751e-05
1.257e-05
1.17457e-05
1.14273e-05
1.14435e-05
1.14958e-05
1.15144e-05
1.15066e-05
1.14697e-05
1.14057e-05
1.14494e-05
1.19493e-05
1.27466e-05
1.24695e-05
1.17187e-05
1.14578e-05
1.14925e-05
1.14379e-05
1.14401e-05
1.14308e-05
1.14246e-05
1.14468e-05
1.15112e-05
1.15763e-05
1.15616e-05
1.14481e-05
1.13037e-05
1.11917e-05
1.11211e-05
1.10726e-05
1.10294e-05
1.09846e-05
1.09365e-05
1.08846e-05
1.08282e-05
1.07661e-05
1.06972e-05
1.06205e-05
1.05353e-05
1.04416e-05
1.03396e-05
1.02297e-05
1.01125e-05
9.98837e-06
9.85777e-06
9.72098e-06
9.96324e-06
1.13747e-05
1.14302e-05
1.19094e-05
1.27142e-05
1.25549e-05
1.17656e-05
1.14318e-05
1.14416e-05
1.1497e-05
1.15177e-05
1.15098e-05
1.14711e-05
1.14072e-05
1.14589e-05
1.1948e-05
1.26896e-05
1.24609e-05
1.17366e-05
1.14601e-05
1.14894e-05
1.14373e-05
1.14406e-05
1.14311e-05
1.14252e-05
1.14499e-05
1.15181e-05
1.15852e-05
1.15698e-05
1.14543e-05
1.13067e-05
1.11917e-05
1.11197e-05
1.10714e-05
1.1029e-05
1.09851e-05
1.09378e-05
1.08865e-05
1.08305e-05
1.07686e-05
1.06998e-05
1.0623e-05
1.05377e-05
1.04439e-05
1.03417e-05
1.02316e-05
1.01142e-05
9.98996e-06
9.85925e-06
9.72237e-06
9.96465e-06
1.13685e-05
1.14328e-05
1.19032e-05
1.26609e-05
1.25372e-05
1.17822e-05
1.14363e-05
1.14398e-05
1.1498e-05
1.15209e-05
1.15128e-05
1.14721e-05
1.14084e-05
1.14672e-05
1.19467e-05
1.26417e-05
1.245e-05
1.17518e-05
1.14624e-05
1.14864e-05
1.14364e-05
1.1441e-05
1.14311e-05
1.14255e-05
1.1453e-05
1.15252e-05
1.15943e-05
1.15781e-05
1.14603e-05
1.13095e-05
1.11915e-05
1.11181e-05
1.107e-05
1.10286e-05
1.09857e-05
1.09391e-05
1.08884e-05
1.08328e-05
1.07711e-05
1.07023e-05
1.06255e-05
1.05401e-05
1.0446e-05
1.03436e-05
1.02334e-05
1.01158e-05
9.99144e-06
9.86061e-06
9.72363e-06
9.96593e-06
1.13594e-05
1.14328e-05
1.18959e-05
1.26132e-05
1.25176e-05
1.17963e-05
1.14407e-05
1.14381e-05
1.14989e-05
1.15242e-05
1.15157e-05
1.14728e-05
1.1409e-05
1.14742e-05
1.19454e-05
1.26008e-05
1.24377e-05
1.17646e-05
1.14647e-05
1.14835e-05
1.14355e-05
1.14411e-05
1.14309e-05
1.14257e-05
1.14561e-05
1.15324e-05
1.16034e-05
1.15865e-05
1.14664e-05
1.13123e-05
1.11912e-05
1.11164e-05
1.10686e-05
1.10282e-05
1.09863e-05
1.09405e-05
1.08904e-05
1.08351e-05
1.07737e-05
1.07049e-05
1.0628e-05
1.05424e-05
1.04481e-05
1.03455e-05
1.02351e-05
1.01174e-05
9.99283e-06
9.86187e-06
9.72479e-06
9.96707e-06
1.13476e-05
1.14303e-05
1.18874e-05
1.25698e-05
1.24968e-05
1.18082e-05
1.14453e-05
1.14366e-05
1.14999e-05
1.15276e-05
1.15186e-05
1.14732e-05
1.14088e-05
1.14799e-05
1.1944e-05
1.25653e-05
1.24244e-05
1.17758e-05
1.14672e-05
1.14806e-05
1.14344e-05
1.1441e-05
1.14303e-05
1.14255e-05
1.1459e-05
1.15395e-05
1.16125e-05
1.15948e-05
1.14723e-05
1.1315e-05
1.11909e-05
1.11147e-05
1.1067e-05
1.10277e-05
1.09868e-05
1.09419e-05
1.08924e-05
1.08375e-05
1.07763e-05
1.07075e-05
1.06304e-05
1.05447e-05
1.04502e-05
1.03473e-05
1.02367e-05
1.01188e-05
9.9941e-06
9.86302e-06
9.72582e-06
9.96808e-06
1.13336e-05
1.14256e-05
1.18778e-05
1.25297e-05
1.24755e-05
1.18187e-05
1.14502e-05
1.14354e-05
1.1501e-05
1.15312e-05
1.15216e-05
1.14732e-05
1.1408e-05
1.14843e-05
1.19419e-05
1.25333e-05
1.24105e-05
1.17858e-05
1.147e-05
1.1478e-05
1.14333e-05
1.14409e-05
1.14295e-05
1.14251e-05
1.14617e-05
1.15464e-05
1.16214e-05
1.16028e-05
1.14782e-05
1.13177e-05
1.11906e-05
1.11128e-05
1.10654e-05
1.10271e-05
1.09874e-05
1.09434e-05
1.08944e-05
1.08399e-05
1.07789e-05
1.07101e-05
1.06329e-05
1.05469e-05
1.04521e-05
1.03491e-05
1.02382e-05
1.01201e-05
9.99525e-06
9.86403e-06
9.72671e-06
9.96892e-06
1.13181e-05
1.14192e-05
1.18668e-05
1.24915e-05
1.24536e-05
1.1828e-05
1.14557e-05
1.14345e-05
1.15023e-05
1.1535e-05
1.15248e-05
1.14732e-05
1.14066e-05
1.14873e-05
1.19384e-05
1.25036e-05
1.2396e-05
1.17949e-05
1.14733e-05
1.14756e-05
1.14321e-05
1.14405e-05
1.14285e-05
1.14244e-05
1.14642e-05
1.1553e-05
1.16299e-05
1.16106e-05
1.14838e-05
1.13204e-05
1.11903e-05
1.11111e-05
1.10638e-05
1.10266e-05
1.0988e-05
1.09449e-05
1.08965e-05
1.08424e-05
1.07814e-05
1.07126e-05
1.06352e-05
1.0549e-05
1.0454e-05
1.03507e-05
1.02396e-05
1.01213e-05
9.99622e-06
9.86486e-06
9.72741e-06
9.96955e-06
1.1302e-05
1.14113e-05
1.18544e-05
1.24544e-05
1.24311e-05
1.18363e-05
1.14618e-05
1.14343e-05
1.15038e-05
1.15391e-05
1.15282e-05
1.14733e-05
1.14051e-05
1.1489e-05
1.19331e-05
1.24747e-05
1.23807e-05
1.18031e-05
1.14772e-05
1.14736e-05
1.14309e-05
1.144e-05
1.14271e-05
1.14234e-05
1.14662e-05
1.15591e-05
1.16378e-05
1.16178e-05
1.14892e-05
1.1323e-05
1.11903e-05
1.11096e-05
1.10624e-05
1.10261e-05
1.09887e-05
1.09464e-05
1.08987e-05
1.08448e-05
1.0784e-05
1.07151e-05
1.06375e-05
1.0551e-05
1.04557e-05
1.03521e-05
1.02407e-05
1.01222e-05
9.997e-06
9.86548e-06
9.72789e-06
9.96994e-06
1.12861e-05
1.14026e-05
1.18407e-05
1.2418e-05
1.24078e-05
1.18433e-05
1.14687e-05
1.14348e-05
1.15056e-05
1.15434e-05
1.15319e-05
1.14737e-05
1.14037e-05
1.14897e-05
1.19256e-05
1.24455e-05
1.23643e-05
1.18103e-05
1.14817e-05
1.1472e-05
1.14296e-05
1.14393e-05
1.14255e-05
1.14219e-05
1.14678e-05
1.15644e-05
1.16448e-05
1.16244e-05
1.14941e-05
1.13256e-05
1.11905e-05
1.11083e-05
1.10612e-05
1.10259e-05
1.09895e-05
1.09481e-05
1.09009e-05
1.08473e-05
1.07865e-05
1.07175e-05
1.06397e-05
1.05528e-05
1.04572e-05
1.03533e-05
1.02417e-05
1.0123e-05
9.99755e-06
9.86586e-06
9.72813e-06
9.97006e-06
1.12714e-05
1.13937e-05
1.1826e-05
1.23817e-05
1.23834e-05
1.1849e-05
1.14761e-05
1.14361e-05
1.15077e-05
1.15481e-05
1.1536e-05
1.14747e-05
1.14029e-05
1.14898e-05
1.1916e-05
1.24156e-05
1.23461e-05
1.18162e-05
1.14866e-05
1.14709e-05
1.14282e-05
1.14383e-05
1.14236e-05
1.14202e-05
1.14687e-05
1.15687e-05
1.16508e-05
1.163e-05
1.14985e-05
1.13282e-05
1.11909e-05
1.11075e-05
1.10603e-05
1.10258e-05
1.09904e-05
1.09498e-05
1.09031e-05
1.08498e-05
1.07889e-05
1.07198e-05
1.06417e-05
1.05545e-05
1.04586e-05
1.03544e-05
1.02425e-05
1.01235e-05
9.99785e-06
9.86598e-06
9.7281e-06
9.96987e-06
1.12586e-05
1.13854e-05
1.18108e-05
1.23458e-05
1.23577e-05
1.18529e-05
1.14838e-05
1.14382e-05
1.15102e-05
1.1553e-05
1.15406e-05
1.14764e-05
1.1403e-05
1.14895e-05
1.19046e-05
1.23846e-05
1.23262e-05
1.18206e-05
1.14919e-05
1.14703e-05
1.14268e-05
1.14371e-05
1.14214e-05
1.1418e-05
1.14689e-05
1.15719e-05
1.16554e-05
1.16346e-05
1.15023e-05
1.13305e-05
1.11915e-05
1.11069e-05
1.10597e-05
1.10259e-05
1.09915e-05
1.09516e-05
1.09053e-05
1.08522e-05
1.07913e-05
1.07219e-05
1.06435e-05
1.0556e-05
1.04598e-05
1.03552e-05
1.0243e-05
1.01237e-05
9.99787e-06
9.86581e-06
9.72777e-06
9.96935e-06
1.12486e-05
1.13784e-05
1.17959e-05
1.23104e-05
1.23308e-05
1.18548e-05
1.14917e-05
1.14412e-05
1.15131e-05
1.15582e-05
1.15456e-05
1.14789e-05
1.14042e-05
1.14893e-05
1.18921e-05
1.23529e-05
1.23044e-05
1.18233e-05
1.14973e-05
1.14701e-05
1.14254e-05
1.14356e-05
1.1419e-05
1.14155e-05
1.14683e-05
1.15737e-05
1.16583e-05
1.16377e-05
1.15051e-05
1.13326e-05
1.11923e-05
1.11068e-05
1.10593e-05
1.10261e-05
1.09925e-05
1.09534e-05
1.09075e-05
1.08545e-05
1.07935e-05
1.07239e-05
1.06452e-05
1.05573e-05
1.04607e-05
1.03557e-05
1.02432e-05
1.01237e-05
9.99758e-06
9.86532e-06
9.7271e-06
9.96845e-06
1.12417e-05
1.13735e-05
1.17822e-05
1.22763e-05
1.2303e-05
1.18548e-05
1.14996e-05
1.14449e-05
1.15164e-05
1.15636e-05
1.1551e-05
1.14824e-05
1.14066e-05
1.14896e-05
1.1879e-05
1.23208e-05
1.22813e-05
1.18244e-05
1.15027e-05
1.14704e-05
1.14239e-05
1.1434e-05
1.14165e-05
1.14127e-05
1.14668e-05
1.15739e-05
1.16593e-05
1.16391e-05
1.1507e-05
1.13343e-05
1.11932e-05
1.11068e-05
1.10592e-05
1.10265e-05
1.09936e-05
1.0955e-05
1.09095e-05
1.08566e-05
1.07955e-05
1.07256e-05
1.06466e-05
1.05583e-05
1.04613e-05
1.0356e-05
1.02431e-05
1.01233e-05
9.99694e-06
9.86447e-06
9.72606e-06
9.96714e-06
1.12384e-05
1.13711e-05
1.17703e-05
1.22439e-05
1.22749e-05
1.18529e-05
1.15072e-05
1.14494e-05
1.15202e-05
1.15691e-05
1.15567e-05
1.14867e-05
1.14102e-05
1.14906e-05
1.18659e-05
1.22891e-05
1.22574e-05
1.1824e-05
1.15081e-05
1.14712e-05
1.14225e-05
1.14323e-05
1.14139e-05
1.14097e-05
1.14645e-05
1.15724e-05
1.16582e-05
1.16387e-05
1.15076e-05
1.13355e-05
1.1194e-05
1.11069e-05
1.10591e-05
1.10268e-05
1.09945e-05
1.09565e-05
1.09113e-05
1.08584e-05
1.07972e-05
1.07271e-05
1.06476e-05
1.0559e-05
1.04615e-05
1.03558e-05
1.02426e-05
1.01225e-05
9.99591e-06
9.8632e-06
9.72459e-06
9.96535e-06
1.12386e-05
1.13716e-05
1.17608e-05
1.2214e-05
1.22471e-05
1.18495e-05
1.15146e-05
1.14545e-05
1.15243e-05
1.15747e-05
1.15627e-05
1.14917e-05
1.1415e-05
1.14924e-05
1.18533e-05
1.22582e-05
1.22335e-05
1.18227e-05
1.15135e-05
1.14724e-05
1.14212e-05
1.14305e-05
1.14113e-05
1.14066e-05
1.14615e-05
1.15693e-05
1.1655e-05
1.16363e-05
1.15069e-05
1.13359e-05
1.11945e-05
1.11069e-05
1.10589e-05
1.10268e-05
1.09952e-05
1.09576e-05
1.09127e-05
1.08599e-05
1.07985e-05
1.07281e-05
1.06483e-05
1.05592e-05
1.04613e-05
1.03553e-05
1.02417e-05
1.01213e-05
9.99442e-06
9.86147e-06
9.72264e-06
9.96303e-06
1.12422e-05
1.13749e-05
1.17539e-05
1.21868e-05
1.22202e-05
1.1845e-05
1.15218e-05
1.14604e-05
1.15288e-05
1.15804e-05
1.15688e-05
1.14972e-05
1.14206e-05
1.1495e-05
1.18413e-05
1.22286e-05
1.22101e-05
1.18209e-05
1.15189e-05
1.14741e-05
1.14199e-05
1.14287e-05
1.14089e-05
1.14035e-05
1.14578e-05
1.15647e-05
1.16497e-05
1.1632e-05
1.15048e-05
1.13356e-05
1.11946e-05
1.11067e-05
1.10584e-05
1.10266e-05
1.09954e-05
1.09583e-05
1.09137e-05
1.08609e-05
1.07993e-05
1.07286e-05
1.06484e-05
1.05589e-05
1.04607e-05
1.03543e-05
1.02403e-05
1.01196e-05
9.99241e-06
9.85921e-06
9.72015e-06
9.96009e-06
1.12486e-05
1.1381e-05
1.17497e-05
1.21626e-05
1.21948e-05
1.184e-05
1.15288e-05
1.14668e-05
1.15338e-05
1.15861e-05
1.1575e-05
1.15031e-05
1.14268e-05
1.14979e-05
1.18296e-05
1.22002e-05
1.21878e-05
1.18189e-05
1.15244e-05
1.14761e-05
1.14187e-05
1.14269e-05
1.14066e-05
1.14004e-05
1.14535e-05
1.15586e-05
1.16425e-05
1.16257e-05
1.15013e-05
1.13345e-05
1.11942e-05
1.1106e-05
1.10574e-05
1.10257e-05
1.0995e-05
1.09584e-05
1.09141e-05
1.08613e-05
1.07996e-05
1.07286e-05
1.0648e-05
1.05582e-05
1.04595e-05
1.03527e-05
1.02384e-05
1.01173e-05
9.98984e-06
9.85636e-06
9.71705e-06
9.95649e-06
1.12572e-05
1.13892e-05
1.17478e-05
1.21412e-05
1.21712e-05
1.18348e-05
1.15357e-05
1.14737e-05
1.15391e-05
1.15918e-05
1.1581e-05
1.15091e-05
1.14333e-05
1.1501e-05
1.18182e-05
1.2173e-05
1.21665e-05
1.1817e-05
1.15299e-05
1.14783e-05
1.14176e-05
1.14251e-05
1.14044e-05
1.13974e-05
1.14488e-05
1.15514e-05
1.16336e-05
1.16179e-05
1.14966e-05
1.13325e-05
1.11932e-05
1.11047e-05
1.10558e-05
1.10242e-05
1.0994e-05
1.09578e-05
1.09137e-05
1.0861e-05
1.07992e-05
1.07279e-05
1.0647e-05
1.05568e-05
1.04577e-05
1.03505e-05
1.02359e-05
1.01144e-05
9.98664e-06
9.85288e-06
9.71331e-06
9.95216e-06
1.12674e-05
1.13991e-05
1.17477e-05
1.21223e-05
1.21494e-05
1.18297e-05
1.15425e-05
1.1481e-05
1.15447e-05
1.15975e-05
1.1587e-05
1.15151e-05
1.14398e-05
1.15038e-05
1.18067e-05
1.21466e-05
1.2146e-05
1.18151e-05
1.15353e-05
1.14807e-05
1.14164e-05
1.14234e-05
1.14025e-05
1.13944e-05
1.14437e-05
1.15432e-05
1.16234e-05
1.16087e-05
1.14908e-05
1.13296e-05
1.11914e-05
1.11027e-05
1.10533e-05
1.10218e-05
1.0992e-05
1.09564e-05
1.09127e-05
1.086e-05
1.07981e-05
1.07266e-05
1.06453e-05
1.05547e-05
1.04552e-05
1.03477e-05
1.02327e-05
1.01109e-05
9.98279e-06
9.84874e-06
9.70888e-06
9.94707e-06
1.12783e-05
1.14099e-05
1.17489e-05
1.21056e-05
1.21293e-05
1.18248e-05
1.15491e-05
1.14885e-05
1.15505e-05
1.16031e-05
1.15928e-05
1.15211e-05
1.14462e-05
1.15062e-05
1.17949e-05
1.21208e-05
1.21263e-05
1.18131e-05
1.15405e-05
1.14829e-05
1.14151e-05
1.14215e-05
1.14006e-05
1.13916e-05
1.14384e-05
1.15343e-05
1.1612e-05
1.15985e-05
1.14841e-05
1.13261e-05
1.1189e-05
1.10999e-05
1.105e-05
1.10186e-05
1.09892e-05
1.09541e-05
1.09107e-05
1.08582e-05
1.07962e-05
1.07244e-05
1.06429e-05
1.05519e-05
1.04521e-05
1.03442e-05
1.02288e-05
1.01067e-05
9.97827e-06
9.8439e-06
9.70375e-06
9.9412e-06
1.12895e-05
1.14211e-05
1.17509e-05
1.20905e-05
1.21107e-05
1.18201e-05
1.15555e-05
1.14961e-05
1.15565e-05
1.16087e-05
1.15984e-05
1.1527e-05
1.14524e-05
1.15082e-05
1.1783e-05
1.20956e-05
1.21069e-05
1.18109e-05
1.15454e-05
1.14849e-05
1.14136e-05
1.14196e-05
1.13988e-05
1.13888e-05
1.14328e-05
1.15248e-05
1.16e-05
1.15874e-05
1.14768e-05
1.1322e-05
1.1186e-05
1.10963e-05
1.10459e-05
1.10143e-05
1.09854e-05
1.09508e-05
1.09078e-05
1.08555e-05
1.07935e-05
1.07216e-05
1.06397e-05
1.05484e-05
1.04483e-05
1.034e-05
1.02243e-05
1.01018e-05
9.97306e-06
9.83838e-06
9.69792e-06
9.93455e-06
1.13004e-05
1.14324e-05
1.17533e-05
1.20767e-05
1.20933e-05
1.18154e-05
1.15616e-05
1.15037e-05
1.15626e-05
1.16143e-05
1.16041e-05
1.15329e-05
1.14585e-05
1.151e-05
1.17711e-05
1.2071e-05
1.20878e-05
1.18083e-05
1.15497e-05
1.14867e-05
1.14118e-05
1.14175e-05
1.13969e-05
1.1386e-05
1.14271e-05
1.15149e-05
1.15875e-05
1.1576e-05
1.14691e-05
1.13175e-05
1.11824e-05
1.10921e-05
1.10408e-05
1.10091e-05
1.09805e-05
1.09466e-05
1.09041e-05
1.0852e-05
1.079e-05
1.07179e-05
1.06358e-05
1.05442e-05
1.04438e-05
1.03351e-05
1.02191e-05
1.00963e-05
9.96719e-06
9.83218e-06
9.69139e-06
9.92714e-06
1.13106e-05
1.14433e-05
1.17558e-05
1.20639e-05
1.20769e-05
1.18108e-05
1.15674e-05
1.15113e-05
1.15687e-05
1.16198e-05
1.16097e-05
1.15389e-05
1.14648e-05
1.15119e-05
1.17598e-05
1.20473e-05
1.20689e-05
1.18052e-05
1.15537e-05
1.14882e-05
1.14098e-05
1.14153e-05
1.1395e-05
1.13831e-05
1.14211e-05
1.15048e-05
1.15748e-05
1.15645e-05
1.14614e-05
1.13129e-05
1.11785e-05
1.10873e-05
1.1035e-05
1.10029e-05
1.09748e-05
1.09415e-05
1.08994e-05
1.08476e-05
1.07857e-05
1.07135e-05
1.06312e-05
1.05394e-05
1.04386e-05
1.03296e-05
1.02132e-05
1.00901e-05
9.96067e-06
9.82532e-06
9.6842e-06
9.91898e-06
1.13203e-05
1.14539e-05
1.17585e-05
1.20521e-05
1.20614e-05
1.18063e-05
1.15729e-05
1.15187e-05
1.15748e-05
1.16254e-05
1.16154e-05
1.15452e-05
1.14714e-05
1.15142e-05
1.17495e-05
1.20249e-05
1.20507e-05
1.18017e-05
1.15573e-05
1.14894e-05
1.14077e-05
1.14128e-05
1.13929e-05
1.13801e-05
1.14151e-05
1.14945e-05
1.15621e-05
1.15532e-05
1.14538e-05
1.13083e-05
1.11745e-05
1.10822e-05
1.10286e-05
1.0996e-05
1.09682e-05
1.09355e-05
1.0894e-05
1.08425e-05
1.07806e-05
1.07084e-05
1.06259e-05
1.05338e-05
1.04327e-05
1.03234e-05
1.02067e-05
1.00833e-05
9.95352e-06
9.81783e-06
9.67636e-06
9.9101e-06
1.13292e-05
1.14642e-05
1.17616e-05
1.20413e-05
1.20468e-05
1.18019e-05
1.15782e-05
1.15261e-05
1.15811e-05
1.16311e-05
1.16212e-05
1.15517e-05
1.14784e-05
1.15173e-05
1.17407e-05
1.20044e-05
1.20333e-05
1.17981e-05
1.15607e-05
1.14907e-05
1.14055e-05
1.14102e-05
1.13907e-05
1.13769e-05
1.14087e-05
1.14842e-05
1.15496e-05
1.15423e-05
1.14466e-05
1.1304e-05
1.11706e-05
1.10769e-05
1.10217e-05
1.09886e-05
1.09609e-05
1.09287e-05
1.08878e-05
1.08366e-05
1.07749e-05
1.07026e-05
1.062e-05
1.05276e-05
1.04263e-05
1.03167e-05
1.01997e-05
1.00759e-05
9.94576e-06
9.80973e-06
9.66789e-06
9.90052e-06
1.13376e-05
1.14744e-05
1.1765e-05
1.20316e-05
1.20332e-05
1.17979e-05
1.15836e-05
1.15336e-05
1.15874e-05
1.16368e-05
1.16271e-05
1.15584e-05
1.14858e-05
1.15213e-05
1.17336e-05
1.1986e-05
1.20172e-05
1.17947e-05
1.1564e-05
1.1492e-05
1.14033e-05
1.14075e-05
1.13882e-05
1.13733e-05
1.1402e-05
1.14737e-05
1.15374e-05
1.15318e-05
1.14401e-05
1.13003e-05
1.1167e-05
1.10716e-05
1.10147e-05
1.09806e-05
1.0953e-05
1.09213e-05
1.08809e-05
1.08301e-05
1.07685e-05
1.06962e-05
1.06134e-05
1.05209e-05
1.04193e-05
1.03094e-05
1.0192e-05
1.00679e-05
9.93743e-06
9.80103e-06
9.65881e-06
9.89026e-06
1.13456e-05
1.14845e-05
1.17691e-05
1.20232e-05
1.20207e-05
1.17942e-05
1.1589e-05
1.15413e-05
1.1594e-05
1.16426e-05
1.1633e-05
1.15652e-05
1.14935e-05
1.15261e-05
1.17283e-05
1.19698e-05
1.20025e-05
1.17916e-05
1.15675e-05
1.14936e-05
1.14013e-05
1.14047e-05
1.13855e-05
1.13694e-05
1.13949e-05
1.14629e-05
1.15251e-05
1.15218e-05
1.14342e-05
1.12972e-05
1.11639e-05
1.10666e-05
1.10077e-05
1.09724e-05
1.09446e-05
1.09134e-05
1.08735e-05
1.0823e-05
1.07616e-05
1.06892e-05
1.06064e-05
1.05136e-05
1.04117e-05
1.03015e-05
1.01839e-05
1.00594e-05
9.92854e-06
9.79176e-06
9.64914e-06
9.87934e-06
1.13533e-05
1.14948e-05
1.17738e-05
1.2016e-05
1.20095e-05
1.17911e-05
1.15947e-05
1.15493e-05
1.16009e-05
1.16485e-05
1.16389e-05
1.1572e-05
1.15014e-05
1.15317e-05
1.17246e-05
1.19559e-05
1.19896e-05
1.17892e-05
1.15712e-05
1.14954e-05
1.13995e-05
1.14019e-05
1.13825e-05
1.1365e-05
1.13872e-05
1.14515e-05
1.15126e-05
1.15119e-05
1.14287e-05
1.12947e-05
1.11614e-05
1.1062e-05
1.10007e-05
1.09641e-05
1.09359e-05
1.0905e-05
1.08655e-05
1.08154e-05
1.07541e-05
1.06817e-05
1.05987e-05
1.05057e-05
1.04036e-05
1.02931e-05
1.01751e-05
1.00503e-05
9.9191e-06
9.78194e-06
9.6389e-06
9.86777e-06
1.13608e-05
1.15054e-05
1.17793e-05
1.20102e-05
1.19997e-05
1.17888e-05
1.16007e-05
1.15576e-05
1.1608e-05
1.16546e-05
1.16448e-05
1.15787e-05
1.15093e-05
1.15376e-05
1.17221e-05
1.1944e-05
1.19783e-05
1.17875e-05
1.15752e-05
1.14977e-05
1.13979e-05
1.13992e-05
1.13794e-05
1.13602e-05
1.13788e-05
1.14394e-05
1.14995e-05
1.15019e-05
1.14235e-05
1.12927e-05
1.11593e-05
1.10577e-05
1.09938e-05
1.09556e-05
1.09269e-05
1.08961e-05
1.0857e-05
1.08072e-05
1.07461e-05
1.06737e-05
1.05906e-05
1.04974e-05
1.0395e-05
1.02842e-05
1.01659e-05
1.00407e-05
9.90913e-06
9.77156e-06
9.62808e-06
9.85555e-06
1.13683e-05
1.15162e-05
1.17855e-05
1.20056e-05
1.19911e-05
1.17872e-05
1.16071e-05
1.15662e-05
1.16155e-05
1.16607e-05
1.16506e-05
1.15853e-05
1.1517e-05
1.15437e-05
1.17206e-05
1.19336e-05
1.19685e-05
1.17865e-05
1.15795e-05
1.15001e-05
1.13966e-05
1.13965e-05
1.13762e-05
1.13551e-05
1.13698e-05
1.14263e-05
1.14854e-05
1.14912e-05
1.14182e-05
1.12909e-05
1.11577e-05
1.10538e-05
1.09872e-05
1.09469e-05
1.09175e-05
1.08868e-05
1.0848e-05
1.07985e-05
1.07375e-05
1.06651e-05
1.05819e-05
1.04885e-05
1.03859e-05
1.02748e-05
1.01562e-05
1.00306e-05
9.89864e-06
9.76064e-06
9.6167e-06
9.84269e-06
1.13758e-05
1.15273e-05
1.17923e-05
1.20023e-05
1.19839e-05
1.17863e-05
1.16138e-05
1.15752e-05
1.16231e-05
1.16669e-05
1.16563e-05
1.15915e-05
1.15244e-05
1.15497e-05
1.17195e-05
1.19245e-05
1.196e-05
1.17862e-05
1.1584e-05
1.15028e-05
1.13954e-05
1.13939e-05
1.13729e-05
1.13497e-05
1.13601e-05
1.14123e-05
1.14703e-05
1.14794e-05
1.14122e-05
1.1289e-05
1.11563e-05
1.10502e-05
1.09806e-05
1.09382e-05
1.09078e-05
1.0877e-05
1.08385e-05
1.07893e-05
1.07284e-05
1.0656e-05
1.05727e-05
1.04792e-05
1.03763e-05
1.02649e-05
1.01459e-05
1.002e-05
9.8876e-06
9.74917e-06
9.60473e-06
9.82914e-06
1.13836e-05
1.15388e-05
1.17996e-05
1.19999e-05
1.19777e-05
1.17862e-05
1.16208e-05
1.15843e-05
1.1631e-05
1.16732e-05
1.16619e-05
1.15976e-05
1.15314e-05
1.15553e-05
1.17187e-05
1.19163e-05
1.19526e-05
1.17864e-05
1.15887e-05
1.15056e-05
1.13942e-05
1.13913e-05
1.13698e-05
1.13443e-05
1.13502e-05
1.13975e-05
1.14539e-05
1.14664e-05
1.14051e-05
1.12866e-05
1.11549e-05
1.10467e-05
1.09741e-05
1.09294e-05
1.08978e-05
1.08667e-05
1.08284e-05
1.07794e-05
1.07187e-05
1.06464e-05
1.0563e-05
1.04693e-05
1.03662e-05
1.02545e-05
1.01352e-05
1.00088e-05
9.87605e-06
9.73714e-06
9.59218e-06
9.81491e-06
1.13918e-05
1.15508e-05
1.18076e-05
1.19984e-05
1.19726e-05
1.17867e-05
1.1628e-05
1.15937e-05
1.1639e-05
1.16795e-05
1.16674e-05
1.16034e-05
1.15381e-05
1.15607e-05
1.17179e-05
1.19088e-05
1.1946e-05
1.17871e-05
1.15936e-05
1.15085e-05
1.13931e-05
1.13889e-05
1.13668e-05
1.1339e-05
1.13401e-05
1.13822e-05
1.14365e-05
1.1452e-05
1.13969e-05
1.12834e-05
1.11532e-05
1.10432e-05
1.09677e-05
1.09204e-05
1.08874e-05
1.08559e-05
1.08177e-05
1.0769e-05
1.07085e-05
1.06362e-05
1.05527e-05
1.04589e-05
1.03555e-05
1.02436e-05
1.01239e-05
9.99721e-06
9.86399e-06
9.7246e-06
9.57907e-06
9.80003e-06
1.14008e-05
1.15634e-05
1.18162e-05
1.19979e-05
1.19685e-05
1.17878e-05
1.16356e-05
1.16032e-05
1.16472e-05
1.1686e-05
1.16729e-05
1.16092e-05
1.15447e-05
1.15658e-05
1.17172e-05
1.1902e-05
1.19402e-05
1.17883e-05
1.15986e-05
1.15114e-05
1.13921e-05
1.13867e-05
1.13641e-05
1.13341e-05
1.13303e-05
1.13668e-05
1.14183e-05
1.14363e-05
1.13872e-05
1.12793e-05
1.11511e-05
1.10397e-05
1.09612e-05
1.09113e-05
1.08767e-05
1.08446e-05
1.08064e-05
1.07579e-05
1.06976e-05
1.06254e-05
1.05419e-05
1.04479e-05
1.03444e-05
1.02322e-05
1.01122e-05
9.98506e-06
9.85141e-06
9.71152e-06
9.56539e-06
9.78443e-06
1.14108e-05
1.15769e-05
1.18256e-05
1.19983e-05
1.19654e-05
1.17896e-05
1.16434e-05
1.16128e-05
1.16555e-05
1.16925e-05
1.16785e-05
1.1615e-05
1.15511e-05
1.15708e-05
1.17166e-05
1.18958e-05
1.19352e-05
1.179e-05
1.16038e-05
1.15145e-05
1.13912e-05
1.13846e-05
1.13617e-05
1.13297e-05
1.1321e-05
1.13516e-05
1.13998e-05
1.14196e-05
1.13763e-05
1.12741e-05
1.11483e-05
1.1036e-05
1.09546e-05
1.09019e-05
1.08656e-05
1.08327e-05
1.07945e-05
1.07461e-05
1.0686e-05
1.06139e-05
1.05304e-05
1.04364e-05
1.03326e-05
1.02202e-05
1.00999e-05
9.97243e-06
9.83836e-06
9.698e-06
9.55129e-06
9.76834e-06
1.1422e-05
1.15914e-05
1.18359e-05
1.19996e-05
1.19632e-05
1.17921e-05
1.16517e-05
1.16228e-05
1.1664e-05
1.16991e-05
1.16841e-05
1.16208e-05
1.15576e-05
1.15759e-05
1.17164e-05
1.18903e-05
1.1931e-05
1.17921e-05
1.16093e-05
1.15178e-05
1.13906e-05
1.13828e-05
1.13597e-05
1.1326e-05
1.13126e-05
1.1337e-05
1.13814e-05
1.14023e-05
1.13643e-05
1.12678e-05
1.1145e-05
1.10319e-05
1.09479e-05
1.08923e-05
1.0854e-05
1.08202e-05
1.07818e-05
1.07336e-05
1.06737e-05
1.06017e-05
1.05183e-05
1.04242e-05
1.03203e-05
1.02076e-05
1.00871e-05
9.95925e-06
9.82479e-06
9.68398e-06
9.53671e-06
9.75175e-06
1.14347e-05
1.16071e-05
1.1847e-05
1.2002e-05
1.1962e-05
1.17953e-05
1.16605e-05
1.16331e-05
1.16728e-05
1.17059e-05
1.16899e-05
1.16268e-05
1.15642e-05
1.15812e-05
1.17168e-05
1.18857e-05
1.19277e-05
1.17948e-05
1.16151e-05
1.15215e-05
1.13904e-05
1.13813e-05
1.13582e-05
1.13229e-05
1.1305e-05
1.13233e-05
1.13633e-05
1.13846e-05
1.13514e-05
1.12607e-05
1.1141e-05
1.10276e-05
1.09409e-05
1.08824e-05
1.08419e-05
1.0807e-05
1.07682e-05
1.07202e-05
1.06605e-05
1.05887e-05
1.05054e-05
1.04112e-05
1.03073e-05
1.01944e-05
1.00735e-05
9.94539e-06
9.81053e-06
9.66926e-06
9.52142e-06
9.73436e-06
1.14489e-05
1.16239e-05
1.18591e-05
1.20053e-05
1.19619e-05
1.17994e-05
1.16699e-05
1.16439e-05
1.16819e-05
1.17129e-05
1.16958e-05
1.16329e-05
1.1571e-05
1.15867e-05
1.17177e-05
1.18821e-05
1.19253e-05
1.17982e-05
1.16215e-05
1.15257e-05
1.13906e-05
1.13803e-05
1.13571e-05
1.13205e-05
1.12983e-05
1.13106e-05
1.1346e-05
1.13669e-05
1.13379e-05
1.12528e-05
1.11364e-05
1.10229e-05
1.09337e-05
1.08721e-05
1.08291e-05
1.07929e-05
1.07537e-05
1.07057e-05
1.06463e-05
1.05748e-05
1.04916e-05
1.03975e-05
1.02934e-05
1.01804e-05
1.00593e-05
9.9308e-06
9.79553e-06
9.65377e-06
9.50532e-06
9.71603e-06
1.14645e-05
1.16417e-05
1.1872e-05
1.20096e-05
1.19629e-05
1.18045e-05
1.168e-05
1.16553e-05
1.16915e-05
1.17202e-05
1.17019e-05
1.16393e-05
1.1578e-05
1.15926e-05
1.17192e-05
1.18794e-05
1.19237e-05
1.18021e-05
1.16284e-05
1.15306e-05
1.13915e-05
1.13798e-05
1.13565e-05
1.13187e-05
1.12926e-05
1.1299e-05
1.13294e-05
1.13495e-05
1.13241e-05
1.12443e-05
1.11314e-05
1.1018e-05
1.09263e-05
1.08613e-05
1.08157e-05
1.0778e-05
1.07382e-05
1.06902e-05
1.06311e-05
1.05598e-05
1.04768e-05
1.03828e-05
1.02787e-05
1.01656e-05
1.00443e-05
9.91546e-06
9.7798e-06
9.63756e-06
9.48846e-06
9.69682e-06
1.14813e-05
1.16601e-05
1.18853e-05
1.20146e-05
1.19649e-05
1.18105e-05
1.16909e-05
1.16674e-05
1.17017e-05
1.17279e-05
1.17083e-05
1.16458e-05
1.15852e-05
1.15987e-05
1.17213e-05
1.18775e-05
1.19229e-05
1.18065e-05
1.16358e-05
1.1536e-05
1.13932e-05
1.13798e-05
1.13563e-05
1.13175e-05
1.12878e-05
1.12884e-05
1.13138e-05
1.13325e-05
1.13102e-05
1.12354e-05
1.1126e-05
1.10128e-05
1.09187e-05
1.08502e-05
1.08017e-05
1.07621e-05
1.07216e-05
1.06736e-05
1.06147e-05
1.05438e-05
1.0461e-05
1.03672e-05
1.02632e-05
1.01499e-05
1.00284e-05
9.89937e-06
9.76336e-06
9.62066e-06
9.47092e-06
9.67684e-06
1.14987e-05
1.16787e-05
1.18987e-05
1.20202e-05
1.19678e-05
1.18174e-05
1.17027e-05
1.16802e-05
1.17123e-05
1.17359e-05
1.17149e-05
1.16525e-05
1.15926e-05
1.16051e-05
1.17238e-05
1.18764e-05
1.19229e-05
1.18113e-05
1.16436e-05
1.15422e-05
1.13955e-05
1.13805e-05
1.13567e-05
1.13169e-05
1.12838e-05
1.12788e-05
1.12991e-05
1.1316e-05
1.12962e-05
1.12262e-05
1.11204e-05
1.10076e-05
1.09109e-05
1.08389e-05
1.0787e-05
1.07453e-05
1.07039e-05
1.06557e-05
1.05971e-05
1.05266e-05
1.04442e-05
1.03505e-05
1.02466e-05
1.01334e-05
1.00118e-05
9.88251e-06
9.7462e-06
9.60308e-06
9.45273e-06
9.65613e-06
1.15162e-05
1.16971e-05
1.19117e-05
1.20258e-05
1.19714e-05
1.18251e-05
1.17151e-05
1.16936e-05
1.17236e-05
1.17444e-05
1.17218e-05
1.16593e-05
1.16e-05
1.16116e-05
1.17268e-05
1.18759e-05
1.19233e-05
1.18165e-05
1.16518e-05
1.15489e-05
1.13986e-05
1.13817e-05
1.13575e-05
1.13168e-05
1.12805e-05
1.12702e-05
1.12852e-05
1.13001e-05
1.12823e-05
1.12168e-05
1.11146e-05
1.10023e-05
1.09032e-05
1.08274e-05
1.07719e-05
1.07278e-05
1.06851e-05
1.06367e-05
1.05783e-05
1.05082e-05
1.04262e-05
1.03329e-05
1.02292e-05
1.0116e-05
9.99431e-06
9.86488e-06
9.72831e-06
9.58482e-06
9.43389e-06
9.63472e-06
1.15334e-05
1.17146e-05
1.1924e-05
1.20313e-05
1.19753e-05
1.18334e-05
1.17283e-05
1.17078e-05
1.17354e-05
1.17533e-05
1.17289e-05
1.16664e-05
1.16075e-05
1.16182e-05
1.17301e-05