/*--------------------------------*- C++ -*----------------------------------*\
  =========                 |
  \\      /  F ield         | OpenFOAM: The Open Source CFD Toolbox
   \\    /   O peration     | Website:  https://openfoam.org
    \\  /    A nd           | Version:  9
     \\/     M anipulation  |
\*---------------------------------------------------------------------------*/
FoamFile
{
    format      ascii;
    class       surfaceScalarField;
    location    "0.03";
    object      alphaPhi0.water;
}
// * * * * * * * * * * * * * * * * * * * * * * * * * * * * * * * * * * * * * //

dimensions      [0 3 -1 0 0 0 0];

internalField   nonuniform List<scalar> 
9850
(
4.05411e-71
-5.17052e-71
1.89139e-70
-1.94805e-70
9.20065e-70
-9.52724e-70
4.64512e-69
-4.85838e-69
2.43537e-68
-2.57133e-68
1.32685e-67
-1.41321e-67
7.51769e-67
-8.07104e-67
4.43265e-66
-4.79321e-66
2.72193e-65
-2.96211e-65
1.74194e-64
-1.90616e-64
1.16258e-63
-1.2782e-63
8.09636e-63
-8.93715e-63
5.88607e-62
-6.5192e-62
4.4681e-61
-4.96318e-61
3.54127e-60
-3.94438e-60
2.92935e-59
-3.27201e-59
2.52715e-58
-2.83195e-58
2.27113e-57
-2.55536e-57
2.12294e-56
-2.40103e-56
2.06011e-55
-2.3455e-55
2.0707e-54
-2.37745e-54
2.15032e-53
-2.49471e-53
2.30037e-52
-2.70281e-52
2.5271e-51
-3.0145e-51
2.84093e-50
-3.4499e-50
3.2556e-49
-4.03672e-49
3.78652e-48
-4.8101e-48
4.4475e-47
-5.81081e-47
5.24454e-46
-7.08022e-46
6.16701e-45
-8.64901e-45
8.23663e-44
-1.22721e-43
1.02705e-42
-1.60891e-42
1.17946e-41
-1.96628e-41
1.22665e-40
-2.20967e-40
1.13175e-39
-2.24523e-39
9.05798e-39
-2.02057e-38
6.21053e-38
-1.57476e-37
3.78996e-37
-1.04963e-36
2.40756e-36
-6.21615e-36
1.92553e-35
-3.82552e-35
2.04216e-34
-2.95896e-34
2.67321e-33
-3.02973e-33
3.03939e-32
-3.8224e-32
2.37557e-31
-4.18167e-31
2.74568e-31
-3.13969e-30
-2.19878e-30
-3.4806e-30
-2.94403e-29
2.3478e-29
-1.75162e-28
7.87176e-28
-4.15041e-27
2.39838e-26
6.95186e-25
1.70736e-70
-2.22888e-70
7.85391e-70
-8.26756e-70
3.76444e-69
-3.98679e-69
1.87068e-68
-2.00321e-68
9.6423e-68
-1.04356e-67
5.15827e-67
-5.63876e-67
2.86573e-66
-3.16212e-66
1.65442e-65
-1.84143e-65
9.93161e-65
-1.11424e-64
6.20355e-64
-7.00991e-64
4.03455e-63
-4.58816e-63
2.73375e-62
-3.1263e-62
1.93097e-61
-2.21897e-61
1.42244e-60
-1.64147e-60
1.09305e-59
-1.26606e-59
8.76168e-59
-1.01838e-58
7.3234e-58
-8.54223e-58
6.37804e-57
-7.46906e-57
5.78083e-56
-6.80214e-56
5.44383e-55
-6.44421e-55
5.31523e-54
-6.34016e-54
5.36727e-53
-6.46403e-53
5.58904e-52
-6.81179e-52
5.98207e-51
-7.39746e-51
6.55706e-50
-8.25104e-50
7.33075e-49
-9.41705e-49
8.32132e-48
-1.0952e-47
9.54089e-47
-1.29186e-46
1.0983e-45
-1.53735e-45
1.26065e-44
-1.83437e-44
1.64241e-43
-2.54233e-43
1.99778e-42
-3.25405e-42
2.23776e-41
-3.88286e-41
2.26869e-40
-4.26012e-40
2.03577e-39
-4.22388e-39
1.5724e-38
-3.70088e-38
1.01529e-37
-2.78658e-37
5.453e-37
-1.75113e-36
2.70967e-36
-9.13814e-36
1.66613e-35
-4.40455e-35
1.56281e-34
-2.62256e-34
2.00193e-33
-2.37806e-33
2.13712e-32
-2.94001e-32
1.41933e-31
-3.02419e-31
1.23028e-31
-1.93225e-30
-1.8817e-30
-1.60898e-30
-3.34421e-29
1.85648e-29
-2.28923e-28
6.68129e-28
-5.04987e-27
2.65935e-26
9.64357e-25
6.75894e-70
-9.02173e-70
3.06919e-69
-3.29908e-69
1.45137e-68
-1.57045e-68
7.10931e-68
-7.78522e-68
3.6085e-67
-3.99774e-67
1.89887e-66
-2.12718e-66
1.03646e-65
-1.17342e-65
5.87122e-65
-6.71381e-65
3.45344e-64
-3.98628e-64
2.11042e-63
-2.45739e-63
1.3407e-62
-1.57369e-62
8.85923e-62
-1.04748e-61
6.09278e-61
-7.25103e-61
4.36335e-60
-5.22304e-60
3.25531e-59
-3.91683e-59
2.53069e-58
-3.05919e-58
2.04999e-57
-2.48902e-57
1.72969e-56
-2.10948e-56
1.51896e-55
-1.86155e-55
1.38654e-54
-1.70908e-54
1.31327e-53
-1.63028e-53
1.2877e-52
-1.61279e-52
1.30348e-51
-1.65078e-51
1.3577e-50
-1.74323e-50
1.44978e-49
-1.89289e-49
1.58046e-48
-2.10546e-48
1.75068e-47
-2.3887e-47
1.96001e-46
-2.75095e-46
2.20431e-45
-3.19847e-45
2.47309e-44
-3.7309e-44
3.14939e-43
-5.05778e-43
3.74819e-42
-6.33353e-42
4.11341e-41
-7.4016e-41
4.09339e-40
-7.96449e-40
3.61353e-39
-7.75964e-39
2.74938e-38
-6.69617e-38
1.73923e-37
-4.9726e-37
8.83758e-37
-3.06525e-36
3.66603e-36
-1.5153e-35
1.54562e-35
-6.10529e-35
1.06627e-34
-2.49603e-34
1.25144e-33
-1.66704e-33
1.12234e-32
-1.89113e-32
5.6136e-32
-1.63677e-31
3.32279e-32
-7.88864e-31
-2.8406e-30
-4.49319e-31
-3.93577e-29
2.79092e-29
-6.08663e-28
1.16606e-27
-1.78618e-26
4.88554e-26
1.83354e-24
2.52441e-69
-3.44214e-69
1.13264e-68
-1.24229e-68
5.2898e-68
-5.84316e-68
2.55705e-67
-2.86082e-67
1.27973e-66
-1.44974e-66
6.63381e-66
-7.60623e-66
3.56331e-65
-4.13335e-65
1.98414e-64
-2.32736e-64
1.1458e-63
-1.35839e-63
6.86519e-63
-8.22173e-63
4.26982e-62
-5.16251e-62
2.758e-61
-3.36444e-61
1.8511e-60
-2.27678e-60
1.29163e-59
-1.60067e-59
9.37411e-59
-1.16968e-58
7.07898e-58
-8.88811e-58
5.56358e-57
-7.02566e-57
4.55054e-56
-5.77801e-56
3.8719e-55
-4.94367e-55
3.42426e-54
-4.39855e-54
3.14339e-53
-4.06602e-53
2.98934e-52
-3.89954e-52
2.93768e-51
-3.87235e-51
2.97398e-50
-3.97126e-50
3.09021e-49
-4.19274e-49
3.28194e-48
-4.54004e-48
3.54561e-47
-5.02051e-47
3.87536e-46
-5.64211e-46
4.25884e-45
-6.40816e-45
4.67315e-44
-7.30909e-44
5.82294e-43
-9.69821e-43
6.79124e-42
-1.18946e-41
7.31869e-41
-1.36364e-40
7.1732e-40
-1.44251e-39
6.26382e-39
-1.38584e-38
4.74197e-38
-1.18444e-37
3.00188e-37
-8.76302e-37
1.51916e-36
-5.41301e-36
5.89353e-36
-2.66884e-35
1.80491e-35
-1.00711e-34
6.77191e-35
-2.9954e-34
6.32049e-34
-1.08974e-33
4.32985e-33
-9.84688e-33
1.97983e-32
-6.52079e-32
-3.88205e-32
-2.87812e-31
-3.2875e-30
5.60653e-31
-3.88543e-29
4.42801e-29
-7.91238e-28
2.01695e-27
-2.24665e-26
8.52133e-26
3.23582e-24
8.9244e-69
-1.24219e-68
3.95942e-68
-4.42866e-68
1.82781e-67
-2.05977e-67
8.72742e-67
-9.96829e-67
4.31116e-66
-4.9898e-66
2.20402e-65
-2.58405e-65
1.16654e-64
-1.38491e-64
6.39436e-64
-7.68413e-64
3.63121e-63
-4.41523e-63
2.13702e-62
-2.62805e-62
1.30383e-61
-1.62096e-61
8.25e-61
-1.03636e-60
5.416e-60
-6.87078e-60
3.69047e-59
-4.72519e-59
2.61128e-58
-3.37231e-58
1.91942e-57
-2.49866e-57
1.46614e-56
-1.92277e-56
1.16396e-55
-1.53714e-55
9.60343e-55
-1.27681e-54
8.23066e-54
-1.10182e-53
7.32082e-53
-9.8729e-53
6.74762e-52
-9.17712e-52
6.43107e-51
-8.83528e-51
6.32045e-50
-8.79096e-50
6.38334e-49
-9.01393e-49
6.59785e-48
-9.49128e-48
6.9462e-47
-1.02199e-46
7.40818e-46
-1.1199e-45
7.95373e-45
-1.24192e-44
8.53689e-44
-1.3849e-43
1.04128e-42
-1.79892e-42
1.19101e-41
-2.16206e-41
1.26173e-40
-2.43359e-40
1.2197e-39
-2.53371e-39
1.05563e-38
-2.40387e-38
7.97781e-38
-2.03903e-37
5.09173e-37
-1.5081e-36
2.62373e-36
-9.40602e-36
1.02715e-35
-4.72935e-35
2.80106e-35
-1.80384e-34
5.12524e-35
-4.78525e-34
2.41144e-34
-8.50456e-34
1.54538e-33
-3.88076e-33
6.05415e-33
-2.40848e-32
-1.12943e-31
-9.12486e-32
-2.49715e-30
1.26031e-30
-3.93178e-29
6.6926e-29
-8.2812e-28
3.2513e-27
-1.95098e-26
1.36018e-25
5.18534e-24
2.99561e-68
-4.25375e-68
1.31503e-67
-1.49928e-67
6.00469e-67
-6.89976e-67
2.83422e-66
-3.30292e-66
1.38305e-65
-1.63439e-65
6.97977e-65
-8.3614e-65
3.64398e-64
-4.42383e-64
1.96861e-63
-2.42123e-63
1.1008e-62
-1.37121e-62
6.37268e-62
-8.0371e-62
3.82044e-61
-4.87669e-61
2.37241e-60
-3.06391e-60
1.52642e-59
-1.99368e-59
1.01788e-58
-1.34392e-58
7.03732e-58
-9.38758e-58
5.04604e-57
-6.79723e-57
3.7538e-56
-5.10326e-56
2.89787e-55
-3.97401e-55
2.32174e-54
-3.2105e-54
1.9302e-53
-2.69095e-53
1.66421e-52
-2.33958e-52
1.48654e-51
-2.10868e-51
1.37335e-50
-1.96811e-50
1.30919e-49
-1.89891e-49
1.28381e-48
-1.88942e-48
1.29003e-47
-1.93262e-47
1.32223e-46
-2.0242e-46
1.37493e-45
-2.16079e-45
1.44145e-44
-2.33796e-44
1.51302e-43
-2.54775e-43
1.80663e-42
-3.23925e-42
2.02714e-41
-3.81544e-41
2.11201e-40
-4.21812e-40
2.01462e-39
-4.32465e-39
1.72872e-38
-4.05427e-38
1.30442e-37
-3.41455e-37
8.39824e-37
-2.52537e-36
4.42682e-36
-1.59142e-35
1.79746e-35
-8.19892e-35
5.02269e-35
-3.24909e-34
6.99101e-35
-8.84792e-34
8.64597e-35
-1.19842e-33
5.55896e-34
-1.44019e-33
-7.97098e-36
-8.98513e-33
-2.02388e-31
1.76208e-34
-1.77745e-30
1.85239e-30
-3.29323e-29
1.04256e-28
-6.1967e-28
4.93966e-27
-2.50093e-26
2.02167e-25
7.83377e-24
9.57463e-68
-1.38632e-67
4.16114e-67
-4.83396e-67
1.88056e-66
-2.20241e-66
8.78009e-66
-1.04349e-65
4.23551e-65
-5.10766e-65
2.11169e-64
-2.5832e-64
1.08839e-63
-1.35024e-63
5.80057e-63
-7.29601e-63
3.19722e-62
-4.07636e-62
1.82292e-61
-2.35532e-61
1.07529e-60
-1.40761e-60
6.56309e-60
-8.70232e-60
4.14563e-59
-5.56624e-59
2.7105e-58
-3.68405e-58
1.83473e-57
-2.52345e-57
1.28606e-56
-1.78917e-56
9.33741e-56
-1.31336e-55
7.02369e-55
-9.98371e-55
5.47455e-54
-7.86071e-54
4.42154e-53
-6.41135e-53
3.69936e-52
-5.41674e-52
3.20416e-51
-4.73909e-51
2.86956e-50
-4.29052e-50
2.65228e-49
-4.01455e-49
2.5234e-48
-3.87472e-48
2.46273e-47
-3.84725e-47
2.45497e-46
-3.91598e-46
2.48669e-45
-4.06822e-45
2.54377e-44
-4.29091e-44
2.60989e-43
-4.56627e-43
3.04986e-42
-5.68002e-42
3.35701e-41
-6.55554e-41
3.44014e-40
-7.11875e-40
3.23835e-39
-7.18872e-39
2.75448e-38
-6.66048e-38
2.07337e-37
-5.56919e-37
1.34406e-36
-4.11569e-36
7.2302e-36
-2.61595e-35
3.05288e-35
-1.3779e-34
9.10183e-35
-5.68904e-34
1.38144e-34
-1.6562e-33
3.04231e-35
-2.45112e-33
2.44236e-34
-5.2563e-34
-3.73073e-33
-4.10337e-33
-1.20642e-31
5.37349e-32
-9.96183e-31
2.94025e-30
-1.91096e-29
1.52509e-28
-8.38989e-28
7.04132e-27
-3.32363e-26
2.79675e-25
1.11897e-23
2.92182e-67
-4.31177e-67
1.25776e-66
-1.48828e-66
5.62883e-66
-6.71643e-66
2.60104e-65
-3.15121e-65
1.24114e-64
-1.52663e-64
6.11718e-64
-7.6374e-64
3.11485e-63
-3.94653e-63
1.63895e-62
-2.10687e-62
8.9125e-62
-1.16221e-61
5.00952e-61
-6.62552e-61
2.91068e-60
-3.90378e-60
1.74833e-59
-2.37746e-59
1.08571e-58
-1.49668e-58
6.97088e-58
-9.73972e-58
4.6279e-57
-6.55224e-57
3.17721e-56
-4.55705e-56
2.25596e-55
-3.27691e-55
1.6569e-54
-2.43656e-54
1.25893e-53
-1.87359e-53
9.89603e-53
-1.49002e-52
8.04688e-52
-1.22559e-51
6.76593e-51
-1.04246e-50
5.87764e-50
-9.1653e-50
5.26801e-49
-8.32208e-49
4.86118e-48
-7.79262e-48
4.60476e-47
-7.50859e-47
4.46034e-46
-7.42244e-46
4.39665e-45
-7.49792e-45
4.38445e-44
-7.70196e-44
4.39372e-43
-7.99704e-43
5.02197e-42
-9.72557e-42
5.42082e-41
-1.0993e-40
5.46313e-40
-1.17228e-39
5.07454e-39
-1.16595e-38
4.27715e-38
-1.06765e-37
3.20855e-37
-8.86113e-37
2.08964e-36
-6.53783e-36
1.14262e-35
-4.18268e-35
4.99078e-35
-2.24389e-34
1.58642e-34
-9.60333e-34
2.79374e-34
-2.98714e-33
1.2375e-35
-5.14085e-33
1.39e-34
-2.22243e-34
-6.43408e-33
-2.43316e-33
-6.42068e-32
7.96303e-32
-4.81309e-31
4.11453e-30
-2.37779e-29
2.15998e-28
-1.04694e-27
9.17554e-27
-4.42692e-26
3.96335e-25
1.64119e-23
8.53436e-67
-1.28304e-66
3.64049e-66
-4.38629e-66
1.61409e-65
-1.96155e-65
7.38566e-65
-9.11781e-65
3.48788e-64
-4.37407e-64
1.70038e-63
-2.16572e-63
8.5591e-63
-1.10697e-62
4.44922e-62
-5.84211e-62
2.38872e-61
-3.18395e-61
1.32468e-60
-1.79214e-60
7.58815e-60
-1.04188e-59
4.49001e-59
-6.25617e-59
2.74433e-58
-3.88013e-58
1.73256e-57
-2.48551e-57
1.12978e-56
-1.64436e-56
7.60913e-56
-1.12348e-55
5.29317e-55
-7.92689e-55
3.80314e-54
-5.77566e-54
2.82244e-53
-4.34569e-53
2.16354e-52
-3.37655e-52
1.71289e-51
-2.70917e-51
1.40025e-50
-2.24439e-50
1.18128e-49
-1.91926e-49
1.02738e-48
-1.6931e-48
9.19663e-48
-1.53917e-47
8.45283e-47
-1.4395e-46
7.95073e-46
-1.38162e-45
7.61995e-45
-1.35625e-44
7.40039e-44
-1.35564e-43
7.23656e-43
-1.37209e-42
8.08329e-42
-1.62997e-41
8.55108e-41
-1.80297e-40
8.47159e-40
-1.88706e-39
7.76226e-39
-1.84795e-38
6.48055e-38
-1.67204e-37
4.84078e-37
-1.37708e-36
3.16152e-36
-1.01365e-35
1.75092e-35
-6.51646e-35
7.86217e-35
-3.54834e-34
2.63864e-34
-1.56469e-33
5.29433e-34
-5.15068e-33
9.44587e-36
-1.01241e-32
1.84648e-34
-1.7673e-34
-8.35745e-33
-3.37596e-33
-5.79934e-32
8.72026e-32
-6.2819e-31
5.92439e-30
-2.94478e-29
2.89889e-28
-1.50764e-27
1.28077e-26
-6.40274e-26
6.18733e-25
2.29726e-23
2.39161e-66
-3.66127e-66
1.01133e-65
-1.2403e-65
4.44419e-65
-5.49856e-65
2.01455e-64
-2.53324e-64
9.42008e-64
-1.20393e-63
4.54474e-63
-5.90244e-63
2.26267e-62
-2.98571e-62
1.16266e-61
-1.55857e-61
6.16664e-61
-8.39688e-61
3.37623e-60
-4.66943e-60
1.90813e-59
-2.68026e-59
1.11316e-58
-1.58802e-58
6.70267e-58
-9.71129e-58
4.16519e-57
-6.12916e-57
2.67094e-56
-3.99186e-56
1.76716e-55
-2.6825e-55
1.20619e-54
-1.85964e-54
8.49241e-54
-1.32977e-53
6.16711e-53
-9.80687e-53
4.61874e-52
-7.4582e-52
3.56697e-51
-5.84838e-51
2.83996e-50
-4.72788e-50
2.33013e-49
-3.93927e-49
1.9687e-48
-3.38133e-48
1.7107e-47
-2.98773e-47
1.52591e-46
-2.71406e-46
1.39331e-45
-2.52969e-45
1.29744e-44
-2.41248e-44
1.22601e-43
-2.34497e-43
1.16863e-42
-2.31153e-42
1.27431e-41
-2.67966e-41
1.31989e-40
-2.89773e-40
1.28444e-39
-2.97418e-39
1.16021e-38
-2.86574e-38
9.5888e-38
-2.56084e-37
7.1262e-37
-2.09192e-36
4.66027e-36
-1.5352e-35
2.60672e-35
-9.90406e-35
1.19713e-34
-5.45943e-34
4.20184e-34
-2.46819e-33
9.40611e-34
-8.51893e-33
3.70851e-34
-1.87314e-32
2.73164e-34
-7.24561e-33
-1.10372e-32
-5.23012e-33
-4.10187e-32
1.18918e-31
-8.0784e-31
8.40253e-30
-4.01032e-29
4.04789e-28
-2.15199e-27
1.88963e-26
-8.5529e-26
8.22823e-25
2.65197e-23
6.44388e-66
-1.00405e-65
2.70222e-65
-3.37198e-65
1.17737e-64
-1.48245e-64
5.28933e-64
-6.77188e-64
2.44999e-63
-3.18966e-63
1.17027e-62
-1.54908e-62
5.76548e-62
-7.75837e-62
2.92998e-61
-4.00776e-61
1.53606e-60
-2.13557e-60
8.30773e-60
-1.17391e-59
4.6353e-59
-6.65687e-59
2.66787e-58
-3.89412e-58
1.58376e-57
-2.3497e-57
9.69582e-57
-1.46226e-56
6.12016e-56
-9.38361e-56
3.98223e-55
-6.20805e-55
2.67039e-54
-4.23331e-54
1.84502e-53
-2.97464e-53
1.31313e-52
-2.15332e-52
9.62495e-52
-1.60544e-51
7.26387e-51
-1.23249e-50
5.64285e-50
-9.74029e-50
4.51045e-49
-7.92178e-49
3.70739e-48
-6.62762e-48
3.13058e-47
-5.7003e-47
2.71165e-46
-5.0351e-46
2.40394e-45
-4.56054e-45
2.17423e-44
-4.22598e-44
1.99753e-43
-3.99333e-43
1.85414e-42
-3.83106e-42
1.97129e-41
-4.32978e-41
1.99672e-40
-4.57215e-40
1.90652e-39
-4.59679e-39
1.69602e-38
-4.35366e-38
1.38633e-37
-3.83894e-37
1.02405e-36
-3.10805e-36
6.69653e-36
-2.27213e-35
3.7746e-35
-1.46923e-34
1.76586e-34
-8.1819e-34
6.43217e-34
-3.77815e-33
1.57284e-33
-1.35707e-32
1.28084e-33
-3.26897e-32
4.44905e-34
-2.61972e-32
-1.46179e-32
-8.94538e-33
-2.44115e-32
1.67099e-31
-1.13523e-30
1.24347e-29
-5.80067e-29
5.82899e-28
-2.81686e-27
2.49271e-26
-9.37641e-26
9.10532e-25
2.72988e-23
1.67264e-65
-2.65134e-65
6.95802e-65
-8.83094e-65
3.00694e-64
-3.85142e-64
1.33928e-63
-1.74503e-63
6.14749e-63
-8.14912e-63
2.90849e-62
-3.92204e-62
1.41854e-61
-1.94569e-61
7.13294e-61
-9.95062e-61
3.69805e-60
-5.24666e-60
1.97679e-59
-2.85227e-59
1.08947e-58
-1.59873e-58
6.19005e-58
-9.23876e-58
3.62523e-57
-5.50375e-57
2.188e-56
-3.37942e-56
1.36058e-55
-2.1383e-55
8.7144e-55
-1.39389e-54
5.74706e-54
-9.3581e-54
3.90123e-53
-6.46847e-53
2.72489e-52
-4.60168e-52
1.95766e-51
-3.368e-51
1.44614e-50
-2.53519e-50
1.098e-49
-1.96186e-49
8.56484e-49
-1.56016e-48
6.85987e-48
-1.27444e-47
5.63681e-47
-1.0687e-46
4.74611e-46
-9.19191e-46
4.08734e-45
-8.09893e-45
3.59081e-44
-7.29648e-44
3.20607e-43
-6.70344e-43
2.89545e-42
-6.25661e-42
2.99786e-41
-6.88824e-41
2.96543e-40
-7.09491e-40
2.77427e-39
-6.97838e-39
2.42728e-38
-6.48819e-38
1.95977e-37
-5.63845e-37
1.43698e-36
-4.51911e-36
9.38227e-36
-3.28725e-35
5.31849e-35
-2.12781e-34
2.52655e-34
-1.19493e-33
9.49278e-34
-5.61929e-33
2.49006e-33
-2.08832e-32
2.87724e-33
-5.41371e-32
1.9154e-34
-6.17668e-32
-1.89641e-32
-4.05628e-33
-2.84042e-32
2.47943e-31
-1.5891e-30
1.71453e-29
-7.04482e-29
6.87134e-28
-2.88106e-27
2.65365e-26
-8.83154e-26
8.79307e-25
2.44444e-23
4.19031e-65
-6.75412e-65
1.7297e-64
-2.2319e-64
7.41643e-64
-9.65909e-64
3.27608e-63
-4.34222e-63
1.49073e-62
-2.01114e-62
6.98852e-62
-9.59572e-62
3.37571e-61
-4.71707e-61
1.68025e-60
-2.38932e-60
8.6185e-60
-1.24714e-59
4.55551e-59
-6.70823e-59
2.48122e-58
-3.71831e-58
1.39241e-57
-2.12373e-57
8.04944e-57
-1.24973e-56
4.79251e-56
-7.57554e-56
2.93786e-55
-4.72924e-55
1.85362e-54
-3.03962e-54
1.20327e-53
-2.01069e-53
8.03288e-53
-1.36834e-52
5.51249e-52
-9.57584e-52
3.88675e-51
-6.88802e-51
2.81435e-50
-5.09021e-50
2.09172e-49
-3.86264e-49
1.59488e-48
-3.00829e-48
1.24675e-47
-2.40325e-47
9.98438e-47
-1.96809e-46
8.18246e-46
-1.65086e-45
6.85183e-45
-1.41684e-44
5.84969e-44
-1.24223e-43
5.07562e-43
-1.11016e-42
4.45751e-42
-1.00807e-41
4.48966e-41
-1.08061e-40
4.33113e-40
-1.0846e-39
3.96389e-39
-1.04231e-38
3.40533e-38
-9.49955e-38
2.71127e-37
-8.12387e-37
1.9701e-36
-6.43609e-36
1.28206e-35
-4.65147e-35
7.29372e-35
-3.00921e-34
3.50854e-34
-1.70103e-33
1.35319e-33
-8.12578e-33
3.75638e-33
-3.11036e-32
5.34017e-33
-8.56345e-32
-6.00671e-35
-1.20658e-31
-1.63587e-32
1.49518e-33
-3.28477e-32
2.82293e-31
-1.67562e-30
1.79099e-29
-6.81674e-29
7.03401e-28
-2.59783e-27
2.43075e-26
-7.14578e-26
7.54245e-25
1.89285e-23
1.0149e-64
-1.6627e-64
4.15819e-64
-5.4528e-64
1.76946e-63
-2.34231e-63
7.75445e-63
-1.04506e-62
3.49916e-62
-4.80213e-62
1.62602e-61
-2.27223e-61
7.78173e-61
-1.10723e-60
3.83569e-60
-5.55692e-60
1.94732e-59
-2.87249e-59
1.01824e-58
-1.52939e-58
5.48341e-58
-8.38686e-58
3.04075e-57
-4.7366e-57
1.73603e-56
-2.75462e-56
1.02017e-55
-1.64929e-55
6.16858e-55
-1.01639e-54
3.83646e-54
-6.4448e-54
2.45311e-53
-4.2032e-53
1.61188e-52
-2.81824e-52
1.08777e-51
-1.94172e-51
7.53512e-51
-1.37395e-50
5.35456e-50
-9.97883e-50
3.90093e-49
-7.43447e-49
2.91164e-48
-5.67815e-48
2.22495e-47
-4.44286e-47
1.73923e-46
-3.5588e-46
1.38933e-45
-2.91585e-45
1.13259e-44
-2.44119e-44
9.40454e-44
-2.08553e-43
7.93289e-43
-1.81462e-42
6.77366e-42
-1.60372e-41
6.63203e-41
-1.67369e-40
6.23181e-40
-1.63587e-39
5.57067e-39
-1.53428e-38
4.69058e-38
-1.36872e-37
3.67562e-37
-1.14993e-36
2.64146e-36
-8.98934e-36
1.70969e-35
-6.4431e-35
9.7393e-35
-4.15823e-34
4.73101e-34
-2.36124e-33
1.86552e-33
-1.143e-32
5.42786e-33
-4.48967e-32
8.89884e-33
-1.30073e-31
-9.49571e-35
-2.12244e-31
-1.06865e-32
2.25292e-33
-2.95535e-32
2.5494e-31
-1.5313e-30
1.58774e-29
-5.74864e-29
6.07711e-28
-1.97342e-27
1.88866e-26
-4.89926e-26
5.44649e-25
1.37263e-23
2.38031e-64
-3.96204e-64
9.68223e-64
-1.28984e-63
4.09016e-63
-5.50079e-63
1.7788e-62
-2.43645e-62
7.96246e-62
-1.11106e-61
3.66887e-61
-5.21524e-61
1.74025e-60
-2.52e-60
8.49768e-60
-1.25356e-59
4.27173e-59
-6.41971e-59
2.21057e-58
-3.38465e-58
1.1775e-57
-1.83704e-57
6.45525e-57
-1.02633e-56
3.64141e-56
-5.90137e-56
2.11306e-55
-3.49161e-55
1.26094e-54
-2.12513e-54
7.73462e-54
-1.3301e-53
4.87457e-53
-8.55747e-53
3.15466e-52
-5.65665e-52
2.0952e-51
-3.83965e-51
1.42716e-50
-2.67474e-50
9.96291e-50
-1.91093e-49
7.12277e-49
-1.39919e-48
5.211e-48
-1.04921e-47
3.89801e-47
-8.05115e-47
2.97863e-46
-6.31696e-46
2.32266e-45
-5.0631e-45
1.8458e-44
-4.14121e-44
1.49235e-43
-3.45204e-43
1.22468e-42
-2.9277e-42
1.01698e-41
-2.5203e-41
9.6757e-41
-2.56152e-40
8.8477e-40
-2.43739e-39
7.71396e-39
-2.22921e-38
6.35465e-38
-1.944e-37
4.8908e-37
-1.60187e-36
3.46824e-36
-1.23324e-35
2.22737e-35
-8.74817e-35
1.26726e-34
-5.62012e-34
6.19869e-34
-3.19859e-33
2.48971e-33
-1.56502e-32
7.53859e-33
-6.28736e-32
1.37924e-32
-1.904e-31
2.33437e-33
-3.48345e-31
-1.13934e-32
-5.89437e-32
-2.09886e-32
1.93262e-31
-1.12614e-30
1.10689e-29
-3.94228e-29
4.10306e-28
-1.27229e-27
1.2512e-26
-2.97699e-26
3.73797e-25
1.01026e-23
5.41448e-64
-9.15313e-64
2.18698e-63
-2.95856e-63
9.17357e-63
-1.25291e-62
3.9602e-62
-5.51047e-62
1.75901e-61
-2.49441e-61
8.0392e-61
-1.16184e-60
3.78064e-60
-5.56863e-60
1.8295e-59
-2.74652e-59
9.10977e-59
-1.39398e-58
4.66728e-58
-7.28038e-58
2.46011e-57
-3.91246e-57
1.33386e-56
-2.16319e-56
7.43765e-56
-1.23031e-55
4.26387e-55
-7.19639e-55
2.51224e-54
-4.32781e-54
1.52062e-53
-2.67499e-53
9.45066e-53
-1.6986e-52
6.02749e-52
-1.10753e-51
3.94239e-51
-7.41088e-51
2.64254e-50
-5.08571e-50
1.81377e-49
-3.57678e-49
1.27374e-48
-2.57608e-48
9.14392e-48
-1.89841e-47
6.70386e-47
-1.43024e-46
5.01437e-46
-1.10055e-45
3.82221e-45
-8.64076e-45
2.96514e-44
-6.9144e-44
2.33724e-43
-5.63186e-43
1.86788e-42
-4.66173e-42
1.5094e-41
-3.91301e-41
1.39557e-40
-3.87566e-40
1.24122e-39
-3.59079e-39
1.0543e-38
-3.20111e-38
8.4831e-38
-2.72613e-37
6.3992e-37
-2.19986e-36
4.46717e-36
-1.66476e-35
2.83915e-35
-1.16622e-34
1.60878e-34
-7.44033e-34
7.89953e-34
-4.23347e-33
3.21997e-33
-2.08801e-32
1.00855e-32
-8.55163e-32
2.0173e-32
-2.69207e-31
9.92966e-33
-5.41334e-31
-5.76964e-33
-2.6793e-31
-1.4475e-32
1.19114e-31
-6.43617e-31
6.26098e-30
-2.1936e-29
2.34728e-28
-7.53121e-28
8.01337e-27
-1.82922e-26
2.76377e-25
8.39154e-24
1.19632e-63
-2.05317e-63
4.79899e-63
-6.59005e-63
1.9992e-62
-2.77171e-62
8.56891e-62
-1.21069e-61
3.77764e-61
-5.44136e-61
1.71296e-60
-2.51559e-60
7.98925e-60
-1.19629e-59
3.83261e-59
-5.85187e-59
1.891e-58
-2.94449e-58
9.59543e-58
-1.52391e-57
5.00675e-57
-8.11158e-57
2.6859e-56
-4.44009e-56
1.48102e-55
-2.49884e-55
8.39151e-55
-1.44559e-54
4.88387e-54
-8.59365e-54
2.91836e-53
-5.24782e-53
1.78952e-52
-3.29046e-52
1.12537e-51
-2.11732e-51
7.253e-51
-1.39736e-50
4.78706e-50
-9.45218e-50
3.23285e-49
-6.54828e-49
2.23189e-48
-4.64235e-48
1.57363e-47
-3.36491e-47
1.13193e-46
-2.49126e-46
8.29733e-46
-1.88204e-45
6.1904e-45
-1.44918e-44
4.69418e-44
-1.136e-43
3.61205e-43
-9.0534e-43
2.81448e-42
-7.3237e-42
2.21519e-41
-6.00145e-41
1.99127e-40
-5.79818e-40
1.7224e-39
-5.2334e-39
1.4243e-38
-4.54753e-38
1.11785e-37
-3.77971e-37
8.24914e-37
-2.98334e-36
5.6554e-36
-2.21537e-35
3.54736e-35
-1.52932e-34
1.99589e-34
-9.66555e-34
9.8055e-34
-5.48342e-33
4.04066e-33
-2.7183e-32
1.30182e-32
-1.13116e-31
2.79998e-32
-3.68305e-31
2.18488e-32
-8.01193e-31
-1.87112e-33
-6.32809e-31
-7.26643e-32
5.48938e-32
-3.02634e-31
3.00004e-30
-1.19051e-29
1.38329e-28
-4.72472e-28
6.10172e-27
-1.27495e-26
2.38924e-25
7.90978e-24
2.57122e-63
-4.47836e-63
1.02449e-62
-1.42747e-62
4.23929e-62
-5.96336e-62
1.80441e-61
-2.58737e-61
7.89713e-61
-1.15481e-60
3.55374e-60
-5.30021e-60
1.64427e-59
-2.50144e-59
7.82189e-59
-1.21393e-58
3.82537e-58
-6.05731e-58
1.92314e-57
-3.10756e-57
9.93711e-57
-1.63894e-56
5.27636e-56
-8.88481e-56
2.87822e-55
-4.94978e-55
1.61246e-54
-2.83314e-54
9.27392e-54
-1.66555e-53
5.47323e-53
-1.00528e-52
3.3128e-52
-6.2268e-52
2.05516e-51
-3.956e-51
1.30583e-50
-2.5763e-50
8.49118e-50
-1.71863e-49
5.64555e-49
-1.17348e-48
3.83423e-48
-8.19401e-48
2.65722e-47
-5.84572e-47
1.87697e-46
-4.25651e-46
1.3497e-45
-3.15982e-45
9.86702e-45
-2.38863e-44
7.32257e-44
-1.83634e-43
5.50728e-43
-1.4337e-42
4.189e-42
-1.1349e-41
3.21472e-41
-9.09051e-41
2.81165e-40
-8.57645e-40
2.36592e-39
-7.54754e-39
1.9041e-38
-6.39507e-38
1.45631e-37
-5.18665e-37
1.04963e-36
-4.00111e-36
7.05155e-36
-2.91137e-35
4.35349e-35
-1.97659e-34
2.42456e-34
-1.23456e-33
1.1876e-33
-6.96391e-33
4.92746e-33
-3.45921e-32
1.62385e-32
-1.45744e-31
3.70363e-32
-4.88413e-31
3.73486e-32
-1.13444e-30
1.54105e-34
-1.16683e-30
-9.1117e-32
-4.91823e-33
-1.29564e-31
1.31655e-30
-7.43094e-30
9.96013e-29
-3.57106e-28
5.7035e-27
-1.00697e-26
2.34112e-25
7.92943e-24
5.38329e-63
-9.51191e-63
2.13063e-62
-3.01088e-62
8.75838e-62
-1.24944e-61
3.70257e-61
-5.38536e-61
1.609e-60
-2.38732e-60
7.18716e-60
-1.08798e-59
3.29973e-59
-5.09697e-59
1.55699e-58
-2.4545e-58
7.54985e-58
-1.21489e-57
3.76166e-57
-6.1801e-57
1.92545e-56
-3.23055e-56
1.01229e-55
-1.73502e-55
5.46478e-55
-9.57167e-55
3.02826e-54
-5.42259e-54
1.72183e-53
-3.1537e-53
1.00406e-52
-1.88216e-52
6.00136e-52
-1.15216e-51
3.6744e-51
-7.23024e-51
2.30277e-50
-4.64841e-50
1.47598e-49
-3.05956e-49
9.66663e-49
-2.05999e-48
6.46239e-48
-1.41755e-47
4.40504e-47
-9.95968e-47
3.05788e-46
-7.13712e-46
2.15891e-45
-5.2103e-45
1.548e-44
-3.87007e-44
1.12551e-43
-2.92075e-43
8.28327e-43
-2.23637e-42
6.15767e-42
-1.73434e-41
4.61273e-41
-1.35956e-40
3.92905e-40
-1.25403e-39
3.21825e-39
-1.07709e-38
2.52105e-38
-8.90507e-38
1.87805e-37
-7.04912e-37
1.32048e-36
-5.31275e-36
8.67658e-36
-3.78417e-35
5.25908e-35
-2.52254e-34
2.89014e-34
-1.55356e-33
1.40632e-33
-8.68971e-33
5.8501e-33
-4.31164e-32
1.96093e-32
-1.83261e-31
4.68644e-32
-6.29027e-31
5.56254e-32
-1.54306e-30
9.70862e-34
-1.88477e-30
-4.49509e-32
-3.39447e-32
-6.69306e-32
9.64186e-31
-5.95576e-30
9.46268e-29
-3.12199e-28
6.00974e-27
-8.88851e-27
2.52607e-25
9.04455e-24
1.09943e-62
-1.97001e-62
4.32244e-62
-6.19206e-62
1.76524e-61
-2.55246e-61
7.41256e-61
-1.09301e-60
3.19894e-60
-4.81294e-60
1.41863e-59
-2.17826e-59
6.46417e-59
-1.01316e-58
3.02617e-58
-4.84248e-58
1.4553e-57
-2.37814e-57
7.18823e-57
-1.19985e-56
3.64599e-56
-6.21826e-56
1.89857e-55
-3.30962e-55
1.01468e-54
-1.80863e-54
5.56374e-54
-1.01452e-53
3.12864e-53
-5.83925e-53
1.80336e-52
-3.44718e-52
1.06486e-51
-2.08628e-51
6.43728e-51
-1.29372e-50
3.98091e-50
-8.21469e-50
2.5163e-49
-5.33711e-49
1.62416e-48
-3.54512e-48
1.06936e-47
-2.40529e-47
7.17373e-47
-1.66523e-46
4.89709e-46
-1.17508e-45
3.39707e-45
-8.4416e-45
2.39104e-44
-6.16552e-44
1.70478e-43
-4.57175e-43
1.22898e-42
-3.43624e-42
8.9387e-42
-2.61346e-41
6.54343e-41
-2.00722e-40
5.43365e-40
-1.81215e-39
4.33582e-39
-1.52073e-38
3.30745e-38
-1.22793e-37
2.3996e-37
-9.49208e-37
1.64465e-36
-6.98967e-36
1.0554e-35
-4.87075e-35
6.26635e-35
-3.184e-34
3.38808e-34
-1.92984e-33
1.6318e-33
-1.06765e-32
6.776e-33
-5.27511e-32
2.29709e-32
-2.25359e-31
5.69311e-32
-7.88498e-31
7.56265e-32
-2.0241e-30
1.1861e-33
-2.79595e-30
-2.87977e-32
-4.57988e-32
-6.29173e-32
8.99873e-31
-5.89918e-30
1.09238e-28
-2.92756e-28
7.5464e-27
-8.65252e-27
3.04544e-25
1.15033e-23
2.19316e-62
-3.98384e-62
8.56483e-62
-1.24319e-61
3.47506e-61
-5.09037e-61
1.44959e-60
-2.16565e-60
6.21316e-60
-9.47323e-60
2.7359e-59
-4.25832e-59
1.2375e-58
-1.96672e-58
5.74895e-58
-9.3315e-58
2.74257e-57
-4.54782e-57
1.34329e-56
-2.2763e-56
6.75348e-56
-1.16989e-55
3.4843e-55
-6.17248e-55
1.84414e-54
-3.34238e-54
1.00092e-53
-1.85694e-53
5.56853e-53
-1.05811e-52
3.17389e-52
-6.18115e-52
1.85224e-51
-3.69995e-51
1.10601e-50
-2.26811e-50
6.7521e-50
-1.42295e-49
4.21078e-49
-9.1296e-49
2.6798e-48
-5.9853e-48
1.73856e-47
-4.00578e-47
1.14842e-46
-2.73405e-46
7.71379e-46
-1.90085e-45
5.26093e-45
-1.34453e-44
3.63749e-44
-9.66235e-44
2.54526e-43
-7.04438e-43
1.79895e-42
-5.20171e-42
1.2814e-41
-3.88341e-41
9.176e-41
-2.92509e-40
7.43606e-40
-2.58752e-39
5.78581e-39
-2.12386e-38
4.30066e-38
-1.67651e-37
3.03954e-37
-1.26653e-36
2.03008e-36
-9.11563e-36
1.27095e-35
-6.2137e-35
7.37843e-35
-3.98007e-34
3.91442e-34
-2.37049e-33
1.85954e-33
-1.29419e-32
7.67404e-33
-6.34888e-32
2.61608e-32
-2.71631e-31
6.66187e-32
-9.64275e-31
9.61115e-32
-2.57007e-30
1.43825e-33
-3.90347e-30
-2.40536e-32
-6.19091e-32
-2.47051e-31
8.38414e-31
-6.8201e-30
1.64808e-28
-3.11005e-28
1.05898e-26
-9.17591e-27
4.06988e-25
1.48556e-23
4.27875e-62
-7.87686e-62
1.65963e-61
-2.43969e-61
6.68983e-61
-9.92193e-61
2.7722e-60
-4.19372e-60
1.1802e-59
-1.82241e-59
5.16082e-59
-8.13692e-59
2.31755e-58
-3.73208e-58
1.06859e-57
-1.75809e-57
5.05798e-57
-8.50458e-57
2.45716e-56
-4.2238e-56
1.22481e-55
-2.15326e-55
6.26263e-55
-1.12649e-54
3.28357e-54
-6.04601e-54
1.76467e-53
-3.32796e-53
9.71643e-53
-1.87797e-52
5.47828e-52
-1.08594e-51
3.16088e-51
-6.43148e-51
1.86506e-50
-3.89892e-50
1.12449e-49
-2.41778e-49
6.92165e-49
-1.53251e-48
4.34528e-48
-9.92042e-48
2.77906e-47
-6.55221e-47
1.80848e-46
-4.41082e-46
1.19586e-45
-3.02287e-45
8.0233e-45
-2.10637e-44
5.4528e-44
-1.49026e-43
3.74716e-43
-1.06891e-42
2.59857e-42
-7.75975e-42
1.8143e-41
-5.69098e-41
1.27208e-40
-4.2076e-40
1.00699e-39
-3.65035e-39
7.64704e-39
-2.93358e-38
5.54309e-38
-2.26603e-37
3.81827e-37
-1.67445e-36
2.48518e-36
-1.17866e-35
1.51699e-35
-7.86079e-35
8.59878e-35
-4.93187e-34
4.46602e-34
-2.88337e-33
2.08573e-33
-1.55066e-32
8.51736e-33
-7.5328e-32
2.90318e-32
-3.21639e-31
7.53215e-32
-1.15326e-30
1.15776e-31
-3.16984e-30
1.78319e-33
-5.20523e-30
-2.2386e-32
-8.65158e-32
-7.91052e-31
7.36904e-31
-8.5476e-30
2.78384e-28
-3.39343e-28
1.51211e-26
-9.21816e-27
5.37915e-25
1.79591e-23
8.17446e-62
-1.52477e-61
3.14868e-61
-4.6856e-61
1.26084e-60
-1.89237e-60
5.19033e-60
-7.94587e-60
2.19485e-59
-3.4302e-59
9.53176e-59
-1.52132e-58
4.25009e-58
-6.92995e-58
1.94528e-57
-3.24153e-57
9.13741e-57
-1.55663e-56
4.40364e-56
-7.67248e-56
2.17684e-55
-3.88056e-55
1.10338e-54
-2.01345e-54
5.73254e-54
-1.07137e-53
3.05147e-53
-5.84436e-53
1.66341e-52
-3.26706e-52
9.28053e-52
-1.87067e-51
5.2961e-51
-1.09654e-50
3.08912e-50
-6.57629e-50
1.84015e-49
-4.03243e-49
1.11845e-48
-2.52608e-48
6.92914e-48
-1.61527e-47
4.37066e-47
-1.05328e-46
2.80332e-46
-6.99648e-46
1.82581e-45
-4.72866e-45
1.20568e-44
-3.24756e-44
8.0588e-44
-2.2632e-43
5.44217e-43
-1.59794e-42
3.70546e-42
-1.14114e-41
2.53774e-41
-8.22704e-41
1.74359e-40
-5.97502e-40
1.34947e-39
-5.08808e-39
1.00107e-38
-4.00709e-38
7.08219e-38
-3.03174e-37
4.75774e-37
-2.19322e-36
3.01861e-36
-1.51101e-35
1.79618e-35
-9.86415e-35
9.93189e-35
-6.06198e-34
5.04043e-34
-3.47676e-33
2.30744e-33
-1.83927e-32
9.28538e-33
-8.82772e-32
3.14664e-32
-3.74975e-31
8.25087e-32
-1.35219e-30
1.33312e-31
-3.80973e-30
9.92228e-33
-6.69328e-30
-2.55635e-32
-5.49838e-31
-6.63372e-31
8.97589e-31
-1.03663e-29
4.47011e-28
-3.33976e-28
2.05242e-26
-7.35635e-27
6.5421e-25
1.95272e-23
1.53127e-61
-2.89372e-61
5.85592e-61
-8.81795e-61
2.32916e-60
-3.53576e-60
9.52419e-60
-1.47467e-59
4.00049e-59
-6.32373e-59
1.72546e-58
-2.78585e-58
7.63972e-58
-1.26038e-57
3.47146e-57
-5.85445e-57
1.61842e-56
-2.79121e-56
7.7391e-56
-1.36554e-55
3.79464e-55
-6.85334e-55
1.90713e-54
-3.52737e-54
9.82083e-54
-1.86125e-53
5.17937e-53
-1.00647e-52
2.79605e-52
-5.57504e-52
1.54418e-51
-3.16183e-51
8.71871e-51
-1.83498e-50
5.02902e-50
-1.08908e-49
2.96093e-49
-6.60563e-49
1.77778e-48
-4.09123e-48
1.08737e-47
-2.58522e-47
6.76742e-47
-1.66501e-46
4.28012e-46
-1.09179e-45
2.747e-45
-7.28028e-45
1.7863e-44
-4.93028e-44
1.17488e-43
-3.38599e-43
7.80117e-43
-2.35455e-42
5.21834e-42
-1.65499e-41
3.50797e-41
-1.17361e-40
2.36352e-40
-8.37819e-40
1.7899e-39
-7.00797e-39
1.29812e-38
-5.41289e-38
8.97042e-38
-4.01469e-37
5.88124e-37
-2.84575e-36
3.63912e-36
-1.92041e-35
2.11097e-35
-1.22791e-34
1.13801e-34
-7.39357e-34
5.63554e-34
-4.15902e-33
2.52254e-33
-2.1623e-32
9.96426e-33
-1.02353e-31
3.33846e-32
-4.31293e-31
8.777e-32
-1.55792e-30
1.4735e-31
-4.47451e-30
2.88626e-32
-8.3454e-30