/*--------------------------------*- C++ -*----------------------------------*\
  =========                 |
  \\      /  F ield         | OpenFOAM: The Open Source CFD Toolbox
   \\    /   O peration     | Website:  https://openfoam.org
    \\  /    A nd           | Version:  9
     \\/     M anipulation  |
\*---------------------------------------------------------------------------*/
FoamFile
{
    format      ascii;
    class       volScalarField;
    location    "0.03";
    object      alpha.water;
}
// * * * * * * * * * * * * * * * * * * * * * * * * * * * * * * * * * * * * * //

dimensions      [0 0 0 0 0 0 0];

internalField   nonuniform List<scalar> 
5000
(
-3.78052e-65
-1.26788e-64
-5.91446e-64
-2.87661e-63
-1.452e-62
-7.61052e-62
-4.14498e-61
-2.34745e-60
-1.38339e-59
-8.48939e-59
-5.42865e-58
-3.61968e-57
-2.51797e-56
-1.82813e-55
-1.38556e-54
-1.09614e-53
-9.04798e-53
-7.78643e-52
-6.97766e-51
-6.50099e-50
-6.28483e-49
-6.28993e-48
-6.49961e-47
-6.91411e-46
-7.54702e-45
-8.42258e-44
-9.5722e-43
-1.10288e-41
-1.28163e-40
-1.49309e-39
-1.73172e-38
-2.27092e-37
-2.77566e-36
-3.11913e-35
-3.16869e-34
-2.85051e-33
-2.22028e-32
-1.47868e-31
-8.74771e-31
-5.37626e-30
-4.15157e-29
-4.24245e-28
-5.33981e-27
-5.82559e-26
-4.35994e-25
-4.8154e-25
-3.24957e-26
6.66086e-24
6.82423e-22
3.40708e-21
-1.62883e-64
-5.38078e-64
-2.47489e-63
-1.18604e-62
-5.89255e-62
-3.03645e-61
-1.62384e-60
-9.01761e-60
-5.20332e-59
-3.12164e-58
-1.9484e-57
-1.26602e-56
-8.56917e-56
-6.04512e-55
-4.44648e-54
-3.41089e-53
-2.72855e-52
-2.27529e-51
-1.9762e-50
-1.78556e-49
-1.67544e-48
-1.62915e-47
-1.63738e-46
-1.6959e-45
-1.80409e-44
-1.96377e-43
-2.17815e-42
-2.4503e-41
-2.78082e-40
-3.16417e-39
-3.58435e-38
-4.58849e-37
-5.47522e-36
-6.0063e-35
-5.95324e-34
-5.21338e-33
-3.92252e-32
-2.46256e-31
-1.28347e-30
-6.17683e-30
-3.67101e-29
-3.32143e-28
-4.09569e-27
-4.20025e-26
-2.67433e-25
-2.218e-25
-2.93936e-26
1.48741e-24
2.17531e-22
3.35686e-21
-6.58937e-64
-2.14709e-63
-9.74862e-63
-4.60921e-62
-2.25725e-61
-1.14542e-60
-6.02543e-60
-3.28755e-59
-1.86137e-58
-1.09421e-57
-6.68202e-57
-4.24131e-56
-2.79978e-55
-1.9232e-54
-1.37536e-53
-1.02441e-52
-7.94859e-52
-6.42447e-51
-5.4068e-50
-4.73407e-49
-4.30672e-48
-4.06329e-47
-3.96648e-46
-3.99471e-45
-4.13683e-44
-4.3883e-43
-4.748e-42
-5.21457e-41
-5.78159e-40
-6.43076e-39
-7.12489e-38
-8.92261e-37
-1.04264e-35
-1.12164e-34
-1.0923e-33
-9.41984e-33
-6.98907e-32
-4.3034e-31
-2.12438e-30
-8.54475e-30
-3.48623e-29
-2.32276e-28
-2.62761e-27
-2.26679e-26
-1.08843e-25
-6.17302e-26
-1.4366e-26
2.45664e-24
4.55504e-22
1.20068e-20
-2.51273e-63
-8.08483e-63
-3.62705e-62
-1.69367e-61
-8.18535e-61
-4.09548e-60
-2.12232e-59
-1.13956e-58
-6.34243e-58
-3.66058e-57
-2.19182e-56
-1.36212e-55
-8.78998e-55
-5.893e-54
-4.10652e-53
-2.97575e-52
-2.24315e-51
-1.7593e-50
-1.4355e-49
-1.21804e-48
-1.0738e-47
-9.82125e-47
-9.30098e-46
-9.09667e-45
-9.159e-44
-9.458e-43
-9.97392e-42
-1.06887e-40
-1.15761e-39
-1.25896e-38
-1.36514e-37
-1.67427e-36
-1.91907e-35
-2.02934e-34
-1.94853e-33
-1.66408e-32
-1.22991e-31
-7.58767e-31
-3.73521e-30
-1.40688e-29
-4.17514e-29
-1.51499e-28
-1.36482e-27
-9.00671e-27
-3.95958e-26
-2.26404e-28
2.80545e-26
1.14924e-23
1.0583e-21
3.37784e-20
-9.06283e-63
-2.8821e-62
-1.27853e-61
-5.90123e-61
-2.81716e-60
-1.39128e-59
-7.11061e-59
-3.76217e-58
-2.06135e-57
-1.16999e-56
-6.88134e-56
-4.19533e-55
-2.65227e-54
-1.73937e-53
-1.18377e-52
-8.36409e-52
-6.13782e-51
-4.67931e-50
-3.70663e-49
-3.05035e-48
-2.60659e-47
-2.3106e-46
-2.12142e-45
-2.01293e-44
-1.96828e-43
-1.97638e-42
-2.02934e-41
-2.12046e-40
-2.24217e-39
-2.3839e-38
-2.53039e-37
-3.04086e-36
-3.42182e-35
-3.56097e-34
-3.37627e-33
-2.86133e-32
-2.11389e-31
-1.31659e-30
-6.60858e-30
-2.5155e-29
-6.65727e-29
-1.17988e-28
-5.36671e-28
-3.31848e-27
-1.252e-26
-9.02108e-28
1.08989e-25
3.29486e-23
2.0878e-21
6.25081e-20
-3.10172e-62
-9.75688e-62
-4.28267e-61
-1.95527e-60
-9.22715e-60
-4.50167e-59
-2.27123e-58
-1.18537e-57
-6.40135e-57
-3.5778e-56
-2.07008e-55
-1.24019e-54
-7.69516e-54
-4.94642e-53
-3.29482e-52
-2.27497e-51
-1.62877e-50
-1.20952e-49
-9.31822e-49
-7.44806e-48
-6.17524e-47
-5.3077e-46
-4.72413e-45
-4.34661e-44
-4.12421e-43
-4.02268e-42
-4.0176e-41
-4.08933e-40
-4.2187e-39
-4.38298e-38
-4.55341e-37
-5.3624e-36
-5.92626e-35
-6.07262e-34
-5.68866e-33
-4.78633e-32
-3.53555e-31
-2.22462e-30
-1.14402e-29
-4.52375e-29
-1.22879e-28
-1.65947e-28
-1.98752e-28
-1.2352e-27
-1.43924e-30
-3.63492e-28
6.02337e-25
7.91673e-23
3.32434e-21
9.29209e-20
-1.0103e-61
-3.14573e-61
-1.367e-60
-6.17704e-60
-2.88349e-59
-1.3907e-58
-6.93191e-58
-3.57175e-57
-1.9029e-56
-1.04842e-55
-5.97465e-55
-3.52215e-54
-2.14823e-53
-1.3558e-52
-8.85561e-52
-5.98732e-51
-4.1911e-50
-3.03809e-49
-2.28107e-48
-1.77417e-47
-1.4294e-46
-1.19256e-45
-1.02958e-44
-9.18649e-44
-8.45487e-43
-8.00499e-42
-7.76925e-41
-7.6958e-40
-7.73896e-39
-7.85137e-38
-7.97973e-37
-9.20744e-36
-9.99423e-35
-1.00862e-33
-9.33718e-33
-7.7989e-32
-5.75575e-31
-3.65242e-30
-1.9201e-29
-7.9095e-29
-2.29648e-28
-3.38823e-28
-7.24023e-29
-5.62943e-28
-7.20493e-29
8.78988e-27
2.31461e-24
1.61751e-22
4.70004e-21
1.24582e-19
-3.14044e-61
-9.68489e-61
-4.16866e-60
-1.86534e-59
-8.61819e-59
-4.11156e-58
-2.02601e-57
-1.03137e-56
-5.42508e-56
-2.94904e-55
-1.65686e-54
-9.62173e-54
-5.77576e-53
-3.58404e-52
-2.29914e-51
-1.5248e-50
-1.04556e-49
-7.41346e-49
-5.43598e-48
-4.12249e-47
-3.23349e-46
-2.62269e-45
-2.19883e-44
-1.90383e-43
-1.6999e-42
-1.56181e-41
-1.47208e-40
-1.41782e-39
-1.38851e-38
-1.37439e-37
-1.36561e-36
-1.5431e-35
-1.64474e-34
-1.63471e-33
-1.49552e-32
-1.23979e-31
-9.13422e-31
-5.83368e-30
-3.12318e-29
-1.33344e-28
-4.13611e-28
-7.09533e-28
-3.05611e-29
-3.33193e-28
-9.46872e-29
5.15452e-26
5.39093e-24
2.28958e-22
8.43758e-21
3.2732e-19
-9.33957e-61
-2.8543e-60
-1.21744e-59
-5.39709e-59
-2.46919e-58
-1.16587e-57
-5.68259e-57
-2.85976e-56
-1.48617e-55
-7.97646e-55
-4.42171e-54
-2.53174e-53
-1.49725e-52
-9.14548e-52
-5.7694e-51
-3.75878e-50
-2.52893e-49
-1.75707e-48
-1.26067e-47
-9.34052e-47
-7.14643e-46
-5.64552e-45
-4.6035e-44
-3.87239e-43
-3.35672e-42
-2.99337e-41
-2.7393e-40
-2.56374e-39
-2.44305e-38
-2.35714e-37
-2.28768e-36
-2.52957e-35
-2.6461e-34
-2.58928e-33
-2.3405e-32
-1.92524e-31
-1.41501e-30
-9.08016e-30
-4.93371e-29
-2.17014e-28
-7.12298e-28
-1.39542e-27
-2.42664e-29
-4.61552e-28
-2.52281e-30
1.31006e-25
9.12137e-24
3.69911e-22
2.42658e-20
9.54479e-19
-2.6636e-60
-8.07092e-60
-3.41261e-59
-1.49946e-58
-6.7961e-58
-3.17736e-57
-1.53265e-56
-7.62904e-56
-3.91925e-55
-2.07818e-54
-1.13745e-53
-6.42604e-53
-3.74714e-52
-2.25508e-51
-1.40048e-50
-8.97397e-50
-5.93225e-49
-4.04499e-48
-2.8446e-47
-2.06288e-46
-1.5425e-45
-1.18905e-44
-9.44697e-44
-7.73213e-43
-6.51444e-42
-5.64242e-41
-5.01427e-40
-4.55906e-39
-4.22463e-38
-3.96965e-37
-3.75949e-36
-4.06378e-35
-4.16849e-34
-4.01325e-33
-3.58251e-32
-2.92271e-31
-2.1415e-30
-1.37895e-29
-7.58426e-29
-3.41993e-28
-1.17684e-27
-2.57876e-27
-9.93608e-28
-7.14051e-28
-7.77704e-31
2.7402e-25
1.50593e-23
7.81237e-22
4.90798e-20
1.75688e-18
-7.30038e-60
-2.19418e-59
-9.20048e-59
-4.00828e-58
-1.8005e-57
-8.3387e-57
-3.9825e-56
-1.96171e-55
-9.96749e-55
-5.22445e-54
-2.82494e-53
-1.57572e-52
-9.06599e-52
-5.37976e-51
-3.29189e-50
-2.07669e-49
-1.35033e-48
-9.04769e-48
-6.24536e-47
-4.44006e-46
-3.2503e-45
-2.44935e-44
-1.8995e-43
-1.51531e-42
-1.24268e-41
-1.04658e-40
-9.03787e-40
-7.98434e-39
-7.19244e-38
-6.57736e-37
-6.07267e-36
-6.40974e-35
-6.44016e-34
-6.0943e-33
-5.36792e-32
-4.34005e-31
-3.16759e-30
-2.04426e-29
-1.1358e-28
-5.23079e-28
-1.87305e-27
-4.49601e-27
-3.58864e-27
-1.21985e-27
1.23827e-27
5.3614e-25
2.96259e-23
1.5901e-21
7.25702e-20
2.14319e-18
-1.92671e-59
-5.74631e-59
-2.39025e-58
-1.03287e-57
-4.59992e-57
-2.1112e-56
-9.98737e-56
-4.87053e-55
-2.44876e-54
-1.26937e-53
-6.78427e-53
-3.73828e-52
-2.12348e-51
-1.24326e-50
-7.50113e-50
-4.66256e-49
-2.98486e-48
-1.96734e-47
-1.33455e-46
-9.31396e-46
-6.68517e-45
-4.93294e-44
-3.74059e-43
-2.91349e-42
-2.32949e-41
-1.91033e-40
-1.60476e-39
-1.37832e-38
-1.20713e-37
-1.07394e-36
-9.65869e-36
-9.94374e-35
-9.77383e-34
-9.07917e-33
-7.88117e-32
-6.3078e-31
-4.58063e-30
-2.95905e-29
-1.65783e-28
-7.77486e-28
-2.88031e-27
-7.44001e-27
-8.45392e-27
-5.5262e-28
5.48334e-27
1.11716e-24
5.03785e-23
2.17793e-21
7.9969e-20
2.18676e-18
-4.90551e-59
-1.45229e-58
-5.99451e-58
-2.57009e-57
-1.13521e-56
-5.16524e-56
-2.42129e-55
-1.16949e-54
-5.8207e-54
-2.98539e-53
-1.57786e-52
-8.59311e-52
-4.82165e-51
-2.78693e-50
-1.65897e-49
-1.01672e-48
-6.41306e-48
-4.16154e-47
-2.77702e-46
-1.90474e-45
-1.34219e-44
-9.71174e-44
-7.21206e-43
-5.49362e-42
-4.28957e-41
-3.43062e-40
-2.80709e-39
-2.34632e-38
-1.99889e-37
-1.73008e-36
-1.51498e-35
-1.51982e-34
-1.45953e-33
-1.32899e-32
-1.13521e-31
-8.98081e-31
-6.47941e-30
-4.18322e-29
-2.35901e-28
-1.12376e-27
-4.28773e-27
-1.17619e-26
-1.65037e-26
0
1.21742e-26
1.46236e-24
5.95605e-23
2.27412e-21
7.58691e-20
1.93744e-18
-1.20698e-58
-3.54808e-58
-1.45365e-57
-6.18551e-57
-2.71061e-56
-1.2231e-55
-5.68345e-55
-2.71991e-54
-1.34066e-53
-6.80628e-53
-3.55894e-52
-1.91654e-51
-1.06277e-50
-6.06746e-50
-3.56536e-49
-2.1557e-48
-1.34059e-47
-8.57103e-47
-5.63094e-46
-3.7993e-45
-2.63117e-44
-1.86918e-43
-1.36124e-42
-1.01556e-41
-7.75629e-41
-6.05909e-40
-4.83631e-39
-3.9389e-38
-3.26705e-37
-2.75215e-36
-2.34625e-35
-2.29206e-34
-2.14818e-33
-1.91458e-32
-1.60664e-31
-1.25413e-30
-8.97328e-30
-5.77917e-29
-3.27373e-28
-1.58025e-27
-6.18709e-27
-1.78588e-26
-2.90187e-26
-4.03893e-44
1.45775e-26
1.44008e-24
5.90988e-23
2.04115e-21
6.28437e-20
1.44272e-18
-2.87463e-58
-8.3928e-58
-3.41379e-57
-1.44208e-56
-6.27147e-56
-2.80728e-55
-1.29353e-54
-6.13575e-54
-2.99626e-53
-1.5063e-52
-7.79552e-52
-4.15281e-51
-2.27687e-50
-1.28452e-49
-7.45479e-49
-4.44907e-48
-2.7294e-47
-1.72036e-46
-1.1135e-45
-7.39636e-45
-5.03868e-44
-3.51789e-43
-2.51531e-42
-1.84037e-41
-1.37677e-40
-1.05211e-39
-8.20427e-39
-6.51979e-38
-5.27102e-37
-4.32504e-36
-3.59079e-35
-3.415e-34
-3.12107e-33
-2.71919e-32
-2.23796e-31
-1.72043e-30
-1.21827e-29
-7.81026e-29
-4.43422e-28
-2.16345e-27
-8.66321e-27
-2.61372e-26
-4.76174e-26
-8.01902e-27
6.68041e-27
1.2019e-24
4.8971e-23
1.51502e-21
4.40738e-20
9.98584e-19
-6.63766e-58
-1.92509e-57
-7.77557e-57
-3.26153e-56
-1.40799e-55
-6.25407e-55
-2.85843e-54
-1.34435e-53
-6.50618e-53
-3.24011e-52
-1.6603e-51
-8.75307e-51
-4.74691e-50
-2.64754e-49
-1.51821e-48
-8.9479e-48
-5.41785e-47
-3.36846e-46
-2.14924e-45
-1.40639e-44
-9.43154e-44
-6.4771e-43
-4.55135e-42
-3.26946e-41
-2.39873e-40
-1.79563e-39
-1.3699e-38
-1.06373e-37
-8.39344e-37
-6.71543e-36
-5.4333e-35
-5.03134e-34
-4.4821e-33
-3.81345e-32
-3.07361e-31
-2.32258e-30
-1.62418e-29
-1.03405e-28
-5.86923e-28
-2.88658e-27
-1.17837e-26
-3.69569e-26
-7.40001e-26
-3.6451e-26
1.45829e-27
7.75067e-25
3.01381e-23
9.56257e-22
3.08252e-20
7.34685e-19
-1.4882e-57
-4.28804e-57
-1.72012e-56
-7.16582e-56
-3.07145e-55
-1.35413e-54
-6.14076e-54
-2.8644e-53
-1.37433e-52
-6.78231e-52
-3.44236e-51
-1.79669e-50
-9.64169e-50
-5.31854e-49
-3.01482e-48
-1.7555e-47
-1.04958e-46
-6.44003e-46
-4.05277e-45
-2.61405e-44
-1.72682e-43
-1.16733e-42
-8.06786e-42
-5.6954e-41
-4.10244e-40
-3.01182e-39
-2.25092e-38
-1.71018e-37
-1.31879e-36
-1.03009e-35
-8.1296e-35
-7.33401e-34
-6.36833e-33
-5.28814e-32
-4.16903e-31
-3.09136e-30
-2.1303e-29
-1.34359e-28
-7.60386e-28
-3.75881e-27
-1.55905e-26
-5.05738e-26
-1.09551e-25
-8.61136e-26
6.46229e-43
3.87074e-25
1.65981e-23
6.49055e-22
2.45026e-20
6.67635e-19
-3.24457e-57
-9.28829e-57
-3.70086e-56
-1.53142e-55
-6.51859e-55
-2.85312e-54
-1.28406e-53
-5.94216e-53
-2.82733e-52
-1.38311e-51
-6.9556e-51
-3.59545e-50
-1.90996e-49
-1.04242e-48
-5.84344e-48
-3.3631e-47
-1.98636e-46
-1.20335e-45
-7.4727e-45
-4.75343e-44
-3.09485e-43
-2.06063e-42
-1.40176e-41
-9.73226e-41
-6.88867e-40
-4.96501e-39
-3.63917e-38
-2.7087e-37
-2.044e-36
-1.5606e-35
-1.20276e-34
-1.05795e-33
-8.95785e-33
-7.25855e-32
-5.59294e-31
-4.06385e-30
-2.75427e-29
-1.71676e-28
-9.66061e-28
-4.7853e-27
-2.00964e-26
-6.70974e-26
-1.55192e-25
-1.58865e-25
-6.66036e-28
1.39631e-25
9.66917e-24
5.64794e-22
2.39258e-20
6.90847e-19
-6.8884e-57
-1.95914e-56
-7.75405e-56
-3.18754e-55
-1.34759e-54
-5.85675e-54
-2.6165e-53
-1.20152e-52
-5.67094e-52
-2.75077e-51
-1.37111e-50
-7.02162e-50
-3.69366e-49
-1.99533e-48
-1.10654e-47
-6.2972e-47
-3.67578e-46
-2.19956e-45
-1.34845e-44
-8.46327e-44
-5.43364e-43
-3.56537e-42
-2.38863e-41
-1.63214e-40
-1.1361e-39
-8.0459e-39
-5.78944e-38
-4.22616e-37
-3.12439e-36
-2.33462e-35
-1.75915e-34
-1.51024e-33
-1.2478e-32
-9.8687e-32
-7.42943e-31
-5.28447e-30
-3.5167e-29
-2.16147e-28
-1.20614e-27
-5.96804e-27
-2.52855e-26
-8.64732e-26
-2.11244e-25
-2.56807e-25
-4.60053e-27
2.16223e-26
8.16438e-24
6.10514e-22
2.61128e-20
8.02008e-19
-1.42608e-56
-4.02909e-56
-1.58408e-55
-6.46947e-55
-2.71686e-54
-1.17263e-53
-5.20117e-53
-2.37058e-52
-1.11013e-51
-5.34085e-51
-2.63933e-50
-1.3395e-49
-6.98001e-49
-3.73343e-48
-2.04904e-47
-1.15346e-46
-6.65675e-46
-3.93624e-45
-2.38333e-44
-1.47656e-43
-9.3525e-43
-6.05079e-42
-3.9945e-41
-2.68777e-40
-1.84109e-39
-1.28213e-38
-9.06438e-38
-6.49544e-37
-4.70956e-36
-3.44793e-35
-2.543e-34
-2.13314e-33
-1.72135e-32
-1.32951e-31
-9.77954e-31
-6.80569e-30
-4.44156e-29
-2.68677e-28
-1.48296e-27
-7.30729e-27
-3.11199e-26
-1.08492e-25
-2.77361e-25
-3.81345e-25
-6.21379e-27
6.67835e-28
9.55909e-24
7.61193e-22
3.15767e-20
1.07522e-18
-2.88283e-56
-8.08929e-56
-3.15915e-55
-1.28186e-54
-5.34768e-54
-2.29246e-53
-1.00968e-52
-4.56836e-52
-2.12309e-51
-1.01331e-50
-4.96599e-50
-2.49841e-49
-1.29004e-48
-6.83431e-48
-3.71344e-47
-2.06855e-46
-1.18072e-45
-6.90196e-45
-4.12911e-44
-2.52625e-43
-1.57931e-42
-1.00792e-41
-6.55985e-41
-4.3489e-40
-2.93317e-39
-2.00988e-38
-1.39712e-37
-9.83601e-37
-7.00064e-36
-5.02662e-35
-3.63267e-34
-2.98059e-33
-2.35143e-32
-1.77499e-31
-1.27621e-30
-8.6881e-30
-5.5562e-29
-3.30294e-28
-1.79922e-27
-8.80308e-27
-3.75481e-26
-1.32825e-25
-3.52593e-25
-5.33078e-25
-8.41095e-27
-1.74525e-28
1.44241e-23
1.05924e-21
4.19856e-20
1.51027e-18
-5.69803e-56
-1.58749e-55
-6.15776e-55
-2.48234e-54
-1.02879e-53
-4.38066e-53
-1.91608e-52
-8.60745e-52
-3.97052e-51
-1.8804e-50
-9.14103e-50
-4.5601e-49
-2.33382e-48
-1.22498e-47
-6.59164e-47
-3.63471e-46
-2.05273e-45
-1.18667e-44
-7.01725e-44
-4.24148e-43
-2.61825e-42
-1.64904e-41
-1.05858e-40
-6.91793e-40
-4.5966e-39
-3.10096e-38
-2.12075e-37
-1.46789e-36
-1.02635e-35
-7.23392e-35
-5.12742e-34
-4.11925e-33
-3.18024e-32
-2.34827e-31
-1.65138e-30
-1.1e-29
-6.891e-29
-4.02141e-28
-2.158e-27
-1.04564e-26
-4.45151e-26
-1.59066e-25
-4.35495e-25
-7.11938e-25
-1.17732e-26
-4.01231e-42
2.51215e-23
1.56735e-21
5.84185e-20
2.0161e-18
-1.10268e-55
-3.04892e-55
-1.17446e-54
-4.70342e-54
-1.93648e-53
-8.19065e-53
-3.55809e-52
-1.58713e-51
-7.26798e-51
-3.41604e-50
-1.64754e-49
-8.1515e-49
-4.13611e-48
-2.15153e-47
-1.14691e-46
-6.26226e-46
-3.50047e-45
-2.00195e-44
-1.17061e-43
-6.99302e-43
-4.2642e-42
-2.65161e-41
-1.67963e-40
-1.08252e-39
-7.08945e-39
-4.71111e-38
-3.1717e-37
-2.15963e-36
-1.48445e-35
-1.0278e-34
-7.15105e-34
-5.63027e-33
-4.25788e-32
-3.07819e-31
-2.11882e-30
-1.38162e-29
-8.47863e-29
-4.85437e-28
-2.56273e-27
-1.227e-26
-5.19703e-26
-1.86789e-25
-5.24272e-25
-9.17096e-25
-7.49664e-26
0
4.39425e-23
2.27591e-21
7.67998e-20
2.43885e-18
-2.09213e-55
-5.73792e-55
-2.19445e-54
-8.72928e-54
-3.57013e-53
-1.49995e-52
-6.47166e-52
-2.86669e-51
-1.30334e-50
-6.08044e-50
-2.91e-49
-1.42824e-48
-7.18652e-48
-3.70576e-47
-1.95746e-46
-1.05865e-45
-5.85899e-45
-3.3161e-44
-1.91806e-43
-1.13289e-42
-6.82673e-42
-4.1929e-41
-2.62192e-40
-1.66726e-39
-1.07671e-38
-7.05134e-38
-4.67563e-37
-3.13368e-36
-2.11877e-35
-1.44204e-34
-9.85579e-34
-7.611e-33
-5.64284e-32
-3.99751e-31
-2.69548e-30
-1.72167e-29
-1.03529e-28
-5.81421e-28
-3.01691e-27
-1.42475e-26
-5.98717e-26
-2.15584e-25
-6.16915e-25
-1.14579e-24
-2.53702e-25
2.20956e-26
7.01656e-23
2.96844e-21
9.0888e-20
2.5905e-18
-3.89727e-55
-1.05946e-54
-4.02155e-54
-1.58868e-53
-6.45349e-53
-2.69309e-52
-1.15406e-51
-5.07664e-51
-2.29173e-50
-1.06134e-49
-5.04103e-49
-2.45477e-48
-1.22511e-47
-6.26371e-47
-3.27937e-46
-1.75723e-45
-9.63164e-45
-5.39664e-44
-3.08877e-43
-1.80441e-42
-1.07493e-41
-6.5236e-41
-4.02878e-40
-2.52877e-39
-1.61107e-38
-1.04029e-37
-6.79729e-37
-4.48641e-36
-2.98545e-35
-1.99854e-34
-1.34263e-33
-1.01767e-32
-7.4026e-32
-5.14289e-31
-3.39968e-30
-2.12846e-29
-1.25476e-28
-6.91276e-28
-3.52382e-27
-1.6393e-26
-6.81863e-26
-2.45087e-25
-7.11356e-25
-1.39263e-24
-5.61001e-25
8.56139e-26
9.3087e-23
3.41822e-21
9.44461e-20
2.55679e-18
-7.13845e-55
-1.92178e-54
-7.23707e-54
-2.83841e-53
-1.145e-52
-4.7454e-52
-2.01959e-51
-8.82258e-51
-3.95465e-50
-1.81823e-49
-8.57165e-49
-4.14188e-48
-2.05058e-47
-1.03973e-46
-5.39655e-46
-2.86575e-45
-1.55607e-44
-8.63375e-44
-4.89134e-43
-2.82718e-42
-1.66562e-41
-9.99202e-41
-6.09671e-40
-3.7789e-39
-2.37615e-38
-1.51348e-37
-9.74932e-37
-6.34017e-36
-4.15447e-35
-2.73691e-34
-1.80836e-33
-1.3462e-32
-9.61397e-32
-6.55484e-31
-4.25094e-30
-2.61048e-29
-1.50951e-28
-8.16057e-28
-4.08611e-27
-1.87093e-26
-7.68861e-26
-2.74994e-25
-8.05619e-25
-1.64987e-24
-9.9102e-25
1.79119e-25
1.06589e-22
3.46097e-21
9.2751e-20
2.40998e-18
-1.28761e-54
-3.42918e-54
-1.28046e-53
-4.98408e-53
-1.99606e-52
-8.21445e-52
-3.47166e-51
-1.50602e-50
-6.70299e-50
-3.05966e-49
-1.43176e-48
-6.86578e-48
-3.37245e-47
-1.69606e-46
-8.72885e-46
-4.5947e-45
-2.47213e-44
-1.35864e-43
-7.62125e-43
-4.35979e-42
-2.54106e-41
-1.50738e-40
-9.09055e-40
-5.56635e-39
-3.45594e-38
-2.17233e-37
-1.3802e-36
-8.84784e-36
-5.71178e-35
-3.70496e-34
-2.40891e-33
-1.76228e-32
-1.23635e-31
-8.27764e-31
-5.26984e-30
-3.17622e-29
-1.80256e-28
-9.56631e-28
-4.70545e-27
-2.11957e-26
-8.5942e-26
-3.05056e-25
-8.97965e-25
-1.90847e-24
-1.51859e-24
1.2972e-25
1.06839e-22
3.36396e-21
8.65094e-20
2.11711e-18
-2.29082e-54
-6.02764e-54
-2.23022e-53
-8.61132e-53
-3.42268e-52
-1.39831e-51
-5.86759e-51
-2.52739e-50
-1.1169e-49
-5.06153e-49
-2.35114e-48
-1.11896e-47
-5.45366e-47
-2.72077e-46
-1.38866e-45
-7.2469e-45
-3.86442e-44
-2.10419e-43
-1.169e-42
-6.62055e-42
-3.81864e-41
-2.24076e-40
-1.33613e-39
-8.08556e-39
-4.95877e-38
-3.07736e-37
-1.92933e-36
-1.21977e-35
-7.76143e-35
-4.95949e-34
-3.17477e-33
-2.28366e-32
-1.57476e-31
-1.03593e-30
-6.47783e-30
-3.83409e-29
-2.13665e-28
-1.11364e-27
-5.38229e-27
-2.38473e-26
-9.53165e-26
-3.35054e-25
-9.86965e-25
-2.15939e-24
-2.10457e-24
3.76922e-26
1.02504e-22
3.06333e-21
7.45829e-20
1.70255e-18
-4.02665e-54
-1.04519e-53
-3.82885e-53
-1.46569e-52
-5.77909e-52
-2.34309e-51
-9.75989e-51
-4.1736e-50
-1.83113e-49
-8.23816e-49
-3.79861e-48
-1.79428e-47
-8.67786e-47
-4.29503e-46
-2.17427e-45
-1.1251e-44
-5.94726e-44
-3.20903e-43
-1.76609e-42
-9.9049e-42
-5.65531e-41
-3.28369e-40
-1.93665e-39
-1.15866e-38
-7.022e-38
-4.30422e-37
-2.66397e-36
-1.66179e-35
-1.04275e-34
-6.56708e-34
-4.14098e-33
-2.93036e-32
-1.98724e-31
-1.2851e-30
-7.89712e-30
-4.59233e-29
-2.51417e-28
-1.28748e-27
-6.11582e-27
-2.66536e-26
-1.04958e-25
-3.64782e-25
-1.07152e-24
-2.39483e-24
-2.7081e-24
0
9.07075e-23
2.54886e-21
5.86559e-20
1.26363e-18
-7.00462e-54
-1.79054e-53
-6.488e-53
-2.46055e-52
-9.61912e-52
-3.86885e-51
-1.59922e-50
-6.7879e-50
-2.95629e-49
-1.32028e-48
-6.04287e-48
-2.83296e-47
-1.35964e-46
-6.67659e-46
-3.35261e-45
-1.72043e-44
-9.01613e-44
-4.82182e-43
-2.62936e-42
-1.46064e-41
-8.25762e-41
-4.74576e-40
-2.7693e-39
-1.63859e-38
-9.81707e-38
-5.94595e-37
-3.63455e-36
-2.23806e-35
-1.38554e-34
-8.6045e-34
-5.34725e-33
-3.72461e-32
-2.4853e-31
-1.58073e-30
-9.55043e-30
-5.45894e-29
-2.93723e-28
-1.47834e-27
-6.90398e-27
-2.95987e-26
-1.14797e-25
-3.94017e-25
-1.15077e-24
-2.60885e-24
-3.2906e-24
-2.54131e-26
7.20043e-23
1.93804e-21
4.25956e-20
8.7816e-19
-1.20804e-53
-3.03519e-53
-1.08662e-52
-4.07928e-52
-1.58012e-51
-6.30139e-51
-2.58386e-50
-1.08828e-49
-4.70406e-49
-2.08518e-48
-9.47254e-48
-4.40735e-47
-2.09905e-46
-1.02269e-45
-5.09426e-45
-2.59267e-44
-1.34723e-43
-7.14211e-43
-3.85958e-42
-2.12411e-41
-1.18931e-40
-6.76716e-40
-3.90817e-39
-2.28776e-38
-1.35545e-37
-8.11512e-37
-4.90117e-36
-2.9805e-35
-1.82133e-34
-1.11588e-33
-6.83779e-33
-4.69065e-32
-3.08127e-31
-1.92847e-30
-1.14607e-29
-6.44165e-29
-3.40762e-28
-1.68621e-27
-7.74371e-27
-3.26622e-26
-1.24748e-25
-4.22507e-25
-1.22405e-24
-2.79744e-24
-3.82214e-24
-7.75868e-26
5.14184e-23
1.36698e-21
2.90975e-20
5.83135e-19
-2.06931e-53
-5.0992e-53
-1.80137e-52
-6.68754e-52
-2.56471e-51
-1.01349e-50
-4.1206e-50
-1.72157e-49
-7.38357e-49
-3.24795e-48
-1.46429e-47
-6.76114e-47
-3.1953e-46
-1.54463e-45
-7.63273e-45
-3.85287e-44
-1.98528e-43
-1.04341e-42
-5.58859e-42
-3.0476e-41
-1.69032e-40
-9.52443e-40
-5.44531e-39
-3.15447e-38
-1.84885e-37
-1.09457e-36
-6.53428e-36
-3.92591e-35
-2.36913e-34
-1.4327e-33
-8.66089e-33
-5.85444e-32
-3.78802e-31
-2.33411e-30
-1.36507e-29
-7.54777e-29
-3.92685e-28
-1.91092e-27
-8.63124e-27
-3.58205e-26
-1.34713e-25
-4.49963e-25
-1.29075e-24
-2.95876e-24
-4.28262e-24
-1.11144e-25
3.30851e-23
9.1325e-22
1.91183e-20
3.77982e-19
-3.52709e-53
-8.50472e-53
-2.96035e-52
-1.08561e-51
-4.11826e-51
-1.61145e-50
-6.4926e-50
-2.68961e-49
-1.1442e-48
-4.99366e-48
-2.23387e-47
-1.02349e-46
-4.79943e-46
-2.30186e-45
-1.12837e-44
-5.64945e-44
-2.88677e-43
-1.50426e-42
-7.98645e-42
-4.31606e-41
-2.37172e-40
-1.32367e-39
-7.49342e-39
-4.29698e-38
-2.49213e-37
-1.45946e-36
-8.61496e-36
-5.11596e-35
-3.05012e-34
-1.82148e-33
-1.08682e-32
-7.24313e-32
-4.61871e-31
-2.80339e-30
-1.61423e-29
-8.78398e-29
-4.49612e-28
-2.15218e-27
-9.56238e-27
-3.90485e-26
-1.44587e-25
-4.76072e-25
-1.35027e-24
-3.09201e-24
-4.65998e-24
-6.89047e-25
1.95621e-23
5.91181e-22
1.23481e-20
2.43871e-19
-5.99321e-53
-1.41063e-52
-4.83045e-52
-1.74755e-51
-6.55053e-51
-2.53588e-50
-1.01181e-49
-4.15387e-49
-1.75213e-48
-7.5845e-48
-3.36584e-47
-1.52998e-46
-7.11802e-46
-3.38683e-45
-1.64691e-44
-8.17844e-44
-4.14434e-43
-2.14124e-42
-1.12697e-41
-6.03627e-41
-3.28677e-40
-1.81719e-39
-1.01884e-38
-5.78452e-38
-3.32066e-37
-1.92421e-36
-1.1235e-35
-6.59693e-35
-3.88736e-34
-2.2935e-33
-1.35135e-32
-8.88433e-32
-5.58635e-31
-3.34182e-30
-1.89555e-29
-1.0156e-28
-5.11622e-28
-2.40959e-27
-1.05327e-26
-4.23211e-26
-1.54264e-25
-5.00511e-25
-1.40199e-24
-3.19648e-24
-4.94877e-24
-1.48533e-24
1.07365e-23
3.78991e-22
7.99017e-21
1.58949e-19
-1.01707e-52
-2.33095e-52
-7.83893e-52
-2.79377e-51
-1.03351e-50
-3.9544e-50
-1.56126e-49
-6.34803e-49
-2.65367e-48
-1.13892e-47
-5.01269e-47
-2.26017e-46
-1.04308e-45
-4.92328e-45
-2.37468e-44
-1.1696e-43
-5.87755e-43
-3.01103e-42
-1.57107e-41
-8.3408e-41
-4.50065e-40
-2.46536e-39
-1.36917e-38
-7.69812e-38
-4.37513e-37
-2.50925e-36
-1.44962e-35
-8.41923e-35
-4.90544e-34
-2.86053e-33
-1.66515e-32
-1.08052e-31
-6.70328e-31
-3.95438e-30
-2.21075e-29
-1.16682e-28
-5.78742e-28
-2.68259e-27
-1.15377e-26
-4.56142e-26
-1.63647e-25
-5.22973e-25
-1.44542e-24
-3.27145e-24
-5.14792e-24
-2.2711e-24
4.80251e-24
2.44885e-22
5.24961e-21
1.0528e-19
-1.7269e-52
-3.84422e-52
-1.26737e-51
-4.44272e-51
-1.61977e-50
-6.11828e-50
-2.38802e-49
-9.6093e-49
-3.97873e-48
-1.69235e-47
-7.38467e-47
-3.30195e-46
-1.51138e-45
-7.07535e-45
-3.38478e-44
-1.65334e-43
-8.23911e-43
-4.18508e-42
-2.16484e-41
-1.13922e-40
-6.09218e-40
-3.30669e-39
-1.81928e-38
-1.01312e-37
-5.70168e-37
-3.23729e-36
-1.85098e-35
-1.06366e-34
-6.12993e-34
-3.53444e-33
-2.03355e-32
-1.30313e-31
-7.98057e-31
-4.64525e-30
-2.56108e-29
-1.33227e-28
-6.50922e-28
-2.97043e-27
-1.25726e-26
-4.89053e-26
-1.72648e-25
-5.43184e-25
-1.48016e-24
-3.31629e-24
-5.25908e-24
-2.92891e-24
1.34043e-24
1.6126e-22
3.51289e-21
7.03715e-20
-2.93868e-52
-6.33915e-52
-2.04503e-51
-7.03934e-51
-2.52554e-50
-9.40511e-50
-3.62502e-49
-1.44236e-48
-5.91119e-48
-2.49051e-47
-1.07701e-46
-4.77416e-46
-2.16682e-45
-1.00592e-44
-4.77218e-44
-2.31157e-43
-1.14223e-42
-5.75258e-42
-2.94999e-41
-1.53879e-40
-8.15561e-40
-4.38653e-39
-2.39109e-38
-1.31901e-37
-7.35177e-37
-4.13317e-36
-2.33946e-35
-1.33051e-34
-7.58676e-34
-4.32689e-33
-2.46158e-32
-1.55854e-31
-9.42732e-31
-5.41741e-30
-2.94721e-29
-1.51192e-28
-7.28011e-28
-3.27202e-27
-1.36319e-26
-5.21725e-26
-1.81192e-25
-5.60922e-25
-1.50556e-24
-3.33093e-24
-5.28585e-24
-3.41261e-24
8.20867e-26
1.08121e-22
2.37059e-21
4.64873e-20
-5.02004e-52
-1.04711e-51
-3.29954e-51
-1.11329e-50
-3.92391e-50
-1.43851e-49
-5.46825e-49
-2.14918e-48
-8.71104e-48
-3.63311e-47
-1.55631e-46
-6.83673e-46
-3.07591e-45
-1.41574e-44
-6.65944e-44
-3.19839e-43
-1.56698e-42
-7.824e-42
-3.97742e-41
-2.0565e-40
-1.08024e-39
-5.75761e-39
-3.10966e-38
-1.69939e-37
-9.38199e-37
-5.22355e-36
-2.92748e-35
-1.64818e-34
-9.30139e-34
-5.24882e-33
-2.95368e-32
-1.8486e-31
-1.10499e-30
-6.27234e-30
-3.36902e-29
-1.70538e-28
-8.09721e-28
-3.58588e-27
-1.47093e-26
-5.53933e-26
-1.8921e-25
-5.76012e-25
-1.52118e-24
-3.31562e-24
-5.2332e-24
-3.71492e-24
0
7.28595e-23
1.57603e-21
2.99286e-20
-8.62136e-52
-1.73564e-51
-5.33309e-51
-1.76069e-50
-6.08557e-50
-2.19258e-49
-8.20817e-49
-3.18281e-48
-1.27464e-47
-5.25856e-47
-2.23006e-46
-9.70412e-46
-4.32648e-45
-1.97378e-44
-9.2038e-44
-4.38222e-43
-2.12842e-42
-1.0535e-41
-5.30874e-41
-2.7206e-40
-1.41632e-39
-7.48069e-39
-4.0033e-38
-2.16747e-37
-1.18536e-36
-6.53661e-36
-3.62782e-35
-2.02231e-34
-1.12979e-33
-6.31001e-33
-3.51348e-32
-2.17459e-31
-1.28512e-30
-7.2096e-30
-3.82545e-29
-1.91185e-28
-8.95598e-28
-3.90992e-27
-1.57971e-26
-5.8543e-26
-1.9664e-25
-5.88326e-25
-1.52681e-24
-3.27108e-24
-5.10702e-24
-3.84346e-24
-6.85471e-26
4.79459e-23
1.00263e-21
2.05829e-20
-1.4905e-51
-2.89185e-51
-8.65162e-51
-2.78991e-50
-9.43849e-50
-3.33594e-49
-1.22786e-48
-4.69082e-48
-1.85401e-47
-7.55924e-47
-3.17149e-46
-1.36635e-45
-6.03419e-45
-2.72776e-44
-1.2606e-43
-5.94915e-43
-2.86405e-42
-1.40513e-41
-7.018e-41
-3.56452e-40
-1.83899e-39
-9.62506e-39
-5.10371e-38
-2.73769e-37
-1.48319e-36
-8.10157e-36
-4.45326e-35
-2.45832e-34
-1.35983e-33
-7.51856e-33
-4.14352e-32
-2.53711e-31
-1.48301e-30
-8.22654e-30
-4.31437e-29
-2.13001e-28
-9.84997e-28
-4.24141e-27
-1.68853e-26
-6.15929e-26
-2.03415e-25
-5.97769e-25
-1.52237e-24
-3.19863e-24
-4.91392e-24
-3.81237e-24
-1.19616e-25
2.93414e-23
6.50845e-22
1.88365e-20
-2.59691e-51
-4.85096e-51
-1.4113e-50
-4.4381e-50
-1.46681e-49
-5.07572e-49
-1.83344e-48
-6.88968e-48
-2.68393e-47
-1.08035e-46
-4.48055e-46
-1.90993e-45
-8.35115e-45
-3.73933e-44
-1.71218e-43
-8.00707e-43
-3.82017e-42
-1.85742e-41
-9.19374e-41
-4.62752e-40
-2.36577e-39
-1.22692e-38
-6.44598e-38
-3.42567e-37
-1.83859e-36
-9.94822e-36
-5.41633e-35
-2.96123e-34
-1.62211e-33
-8.88042e-33
-4.84505e-32
-2.93592e-31
-1.69807e-30
-9.31804e-30
-4.83243e-29
-2.35806e-28
-1.07706e-27
-4.57685e-27
-1.79619e-26
-6.45081e-26
-2.0946e-25
-6.0426e-25
-1.50802e-24
-3.10004e-24
-4.66112e-24
-3.63849e-24
-1.46113e-25
1.71527e-23
5.63245e-22
2.02788e-20
-4.56382e-51
-8.20391e-51
-2.31907e-50
-7.1018e-50
-2.28882e-49
-7.73836e-49
-2.73762e-48
-1.01004e-47
-3.87208e-47
-1.53681e-46
-6.29423e-46
-2.65271e-45
-1.14774e-44
-5.08822e-44
-2.30757e-43
-1.06909e-42
-5.05371e-42
-2.43473e-41
-1.19413e-40
-5.95552e-40
-3.01677e-39
-1.55013e-38
-8.06868e-38
-4.24815e-37
-2.25869e-36
-1.21063e-35
-6.52893e-35
-3.5355e-34
-1.91808e-33
-1.03989e-32
-5.61781e-32
-3.36987e-31
-1.92919e-30
-1.04763e-29
-5.37501e-29
-2.5936e-28
-1.17069e-27
-4.9119e-27
-1.90119e-26
-6.72467e-26
-2.14688e-25
-6.07715e-25
-1.48412e-24
-2.97747e-24
-4.35639e-24
-3.34072e-24
-1.3255e-25
1.34473e-23
6.04382e-22
2.62842e-20
-8.09441e-51
-1.40038e-50
-3.84485e-50
-1.14538e-49
-3.59361e-49
-1.18465e-48
-4.09563e-48
-1.48054e-47
-5.57539e-47
-2.17864e-46
-8.80147e-46
-3.66416e-45
-1.56768e-44
-6.87744e-44
-3.088e-43
-1.41688e-42
-6.63452e-42
-3.16644e-41
-1.53856e-40
-7.60199e-40
-3.81497e-39
-1.942e-38
-1.0014e-37
-5.22291e-37
-2.75085e-36
-1.46052e-35
-7.80207e-35
-4.18481e-34
-2.24869e-33
-1.20745e-32
-6.45987e-32
-3.83682e-31
-2.17472e-30
-1.16908e-29
-5.93622e-29
-2.8337e-28
-1.2646e-27
-5.24146e-27
-2.0018e-26
-6.97594e-26
-2.18993e-25
-6.08031e-25
-1.45113e-24
-2.83327e-24
-4.00793e-24
-2.93996e-24
-1.1453e-25
1.4878e-23
8.01708e-22
4.14508e-20
-1.44911e-50
-2.41457e-50
-6.44005e-50
-1.86512e-49
-5.68909e-49
-1.82508e-48
-6.15235e-48
-2.17414e-47
-8.02578e-47
-3.08227e-46
-1.22652e-45
-5.03841e-45
-2.12985e-44
-9.24056e-44
-4.10589e-43
-1.86511e-42
-8.6483e-42
-4.08799e-41
-1.96745e-40
-9.62909e-40
-4.78654e-39
-2.41353e-38
-1.23276e-37
-6.3687e-37
-3.32253e-36
-1.74732e-35
-9.24555e-35
-4.91198e-34
-2.61435e-33
-1.39041e-32
-7.36751e-32
-4.33362e-31
-2.43248e-30
-1.29482e-29
-6.50894e-29
-3.07491e-28
-1.35728e-27
-5.5597e-27
-2.09605e-26
-7.19903e-26
-2.22254e-25
-6.05072e-25
-1.40951e-24
-2.66996e-24
-3.62383e-24
-2.45909e-24
-3.65817e-26
2.24161e-23
1.3558e-21
6.94417e-20
-2.61794e-50
-4.20671e-50
-1.09078e-49
-3.07102e-49
-9.09881e-49
-2.83584e-48
-9.30078e-48
-3.20529e-47
-1.15718e-46
-4.35878e-46
-1.70558e-45
-6.90428e-45
-2.88079e-44
-1.23514e-43
-5.42802e-43
-2.44001e-42
-1.12002e-41
-5.24206e-41
-2.49831e-40
-1.2109e-39
-5.96124e-39
-2.97693e-38
-1.50591e-37
-7.70518e-37
-3.98124e-36
-2.07369e-35
-1.08677e-34
-5.71879e-34
-3.01482e-33
-1.58816e-32
-8.33522e-32
-4.85609e-31
-2.69975e-30
-1.4233e-29
-7.08496e-29
-3.31334e-28
-1.44706e-27
-5.86023e-27
-2.18179e-26
-7.38784e-26
-2.24336e-25
-5.98678e-25
-1.35986e-24
-2.48975e-24
-3.21129e-24
-1.92447e-24
4.7128e-25
4.58056e-23
2.48696e-21
1.1054e-19
-4.76928e-50
-7.40406e-50
-1.86889e-49
-5.11804e-49
-1.47248e-48
-4.45342e-48
-1.41827e-47
-4.75507e-47
-1.67466e-46
-6.17239e-46
-2.37027e-45
-9.44017e-45
-3.88313e-44
-1.6438e-43
-7.13993e-43
-3.17451e-42
-1.44193e-41
-6.68012e-41
-3.15184e-40
-1.51254e-39
-7.37293e-39
-3.64578e-38
-1.82622e-37
-9.25294e-37
-4.73447e-36
-2.44214e-35
-1.26752e-34
-6.60592e-34
-3.44923e-33
-1.79971e-32
-9.35572e-32
-5.39912e-31
-2.97334e-30
-1.55272e-29
-7.65514e-29
-3.54474e-28
-1.53216e-27
-6.13631e-27
-2.25678e-26
-7.53602e-26
-2.25101e-25
-5.88667e-25
-1.3022e-24
-2.29523e-24