/*--------------------------------*- C++ -*----------------------------------*\
  =========                 |
  \\      /  F ield         | OpenFOAM: The Open Source CFD Toolbox
   \\    /   O peration     | Website:  https://openfoam.org
    \\  /    A nd           | Version:  9
     \\/     M anipulation  |
\*---------------------------------------------------------------------------*/
FoamFile
{
    format      ascii;
    class       volScalarField;
    location    "0.03";
    object      p;
}
// * * * * * * * * * * * * * * * * * * * * * * * * * * * * * * * * * * * * * //

dimensions      [1 -1 -2 0 0 0 0];

internalField   nonuniform List<scalar> 
5000
(
0.53022
0.529804
0.529353
0.528891
0.528418
0.527932
0.527435
0.526926
0.526406
0.525875
0.525333
0.524781
0.524218
0.523643
0.523056
0.522453
0.521833
0.521189
0.520516
0.519805
0.519048
0.518233
0.517348
0.516379
0.515314
0.514141
0.512852
0.511441
0.509913
0.508275
0.506383
0.504263
0.502084
0.499794
0.497327
0.494611
0.491599
0.488282
0.484693
0.480864
0.476784
0.472369
0.467484
0.462003
0.455861
0.449044
0.441503
0.43307
0.423461
0.412425
0.528251
0.527821
0.527357
0.52688
0.526391
0.525888
0.525372
0.524843
0.524302
0.523748
0.523182
0.522603
0.522012
0.521406
0.520786
0.520149
0.51949
0.518806
0.518089
0.517333
0.516527
0.51566
0.51472
0.513692
0.512563
0.511322
0.509958
0.508468
0.506852
0.505117
0.503108
0.500848
0.498517
0.496063
0.493416
0.490505
0.487282
0.483743
0.479915
0.475826
0.471457
0.46672
0.461482
0.455623
0.449078
0.441826
0.433806
0.424854
0.414697
0.403073
0.526283
0.525841
0.525365
0.524875
0.524372
0.523854
0.523322
0.522776
0.522215
0.521641
0.521052
0.520449
0.51983
0.519196
0.518543
0.51787
0.517174
0.516448
0.515687
0.514882
0.514025
0.513103
0.512105
0.511018
0.509828
0.508523
0.507094
0.505536
0.503848
0.502032
0.499919
0.497524
0.495034
0.492402
0.489563
0.486458
0.483045
0.479315
0.475283
0.470956
0.466304
0.461243
0.455662
0.449458
0.442566
0.43494
0.42649
0.417063
0.406442
0.394364
0.524316
0.523863
0.523376
0.522874
0.522358
0.521826
0.521279
0.520717
0.520139
0.519545
0.518934
0.518308
0.517663
0.517
0.516317
0.51561
0.514876
0.514109
0.513305
0.512453
0.511546
0.510572
0.509519
0.508374
0.507125
0.50576
0.50427
0.50265
0.500895
0.499003
0.496791
0.494267
0.491625
0.48882
0.485798
0.482509
0.478918
0.475011
0.470788
0.466237
0.461318
0.455957
0.450062
0.443545
0.436335
0.428367
0.419539
0.409703
0.398692
0.386272
0.522348
0.521886
0.521388
0.520876
0.520348
0.519803
0.519242
0.518664
0.518069
0.517456
0.516826
0.516176
0.515507
0.514817
0.514104
0.513364
0.512595
0.51179
0.510943
0.510048
0.509093
0.508069
0.506964
0.505766
0.504461
0.50304
0.501493
0.499812
0.497991
0.496025
0.493719
0.491072
0.488288
0.485325
0.482135
0.478676
0.474917
0.47084
0.466432
0.461668
0.456506
0.450877
0.444701
0.437899
0.430397
0.422119
0.412963
0.402787
0.391447
0.378758
0.520382
0.51991
0.519403
0.51888
0.518341
0.517784
0.51721
0.516617
0.516006
0.515376
0.514726
0.514055
0.513363
0.512647
0.511905
0.511135
0.510331
0.50949
0.508604
0.507667
0.506668
0.505597
0.504444
0.503195
0.50184
0.500365
0.498763
0.497025
0.495141
0.493103
0.490706
0.487944
0.485029
0.48192
0.478577
0.474962
0.471046
0.466806
0.462222
0.457261
0.451877
0.446009
0.439583
0.432525
0.42476
0.416208
0.406771
0.396318
0.384715
0.371812
0.518415
0.517935
0.517419
0.516887
0.516338
0.51577
0.515183
0.514577
0.513951
0.513304
0.512636
0.511945
0.51123
0.51049
0.509721
0.508922
0.508086
0.507211
0.506289
0.505312
0.504272
0.503158
0.50196
0.500665
0.499261
0.497737
0.496084
0.49429
0.492347
0.490241
0.487758
0.484888
0.481851
0.47861
0.475128
0.471371
0.467309
0.462917
0.458168
0.453025
0.447441
0.441359
0.434711
0.427424
0.419425
0.410634
0.400959
0.390279
0.378475
0.365413
0.516449
0.515961
0.515438
0.514897
0.514338
0.51376
0.513162
0.512543
0.511903
0.511241
0.510555
0.509846
0.50911
0.508347
0.507553
0.506726
0.505862
0.504954
0.503998
0.502985
0.501907
0.500753
0.499513
0.498175
0.496727
0.495157
0.493455
0.49161
0.48961
0.487441
0.484878
0.481909
0.478761
0.4754
0.471792
0.467904
0.463709
0.459177
0.454276
0.448967
0.443205
0.436933
0.430088
0.422599
0.414394
0.405397
0.395519
0.384652
0.37269
0.359519
0.514484
0.513988
0.513458
0.512909
0.512342
0.511754
0.511146
0.510515
0.509862
0.509186
0.508485
0.507758
0.507003
0.506218
0.505401
0.504549
0.503657
0.502721
0.501733
0.500687
0.499574
0.498384
0.497105
0.495728
0.494239
0.492627
0.49088
0.488987
0.486935
0.484706
0.482069
0.47901
0.475761
0.472292
0.468571
0.464566
0.46025
0.455591
0.450552
0.445095
0.439174
0.432736
0.425718
0.418052
0.409668
0.400495
0.390446
0.379425
0.36734
0.35409
0.512518
0.512017
0.51148
0.510924
0.510349
0.509753
0.509135
0.508494
0.50783
0.50714
0.506425
0.505681
0.504909
0.504105
0.503267
0.502391
0.501474
0.500511
0.499495
0.498419
0.497274
0.49605
0.494737
0.493324
0.491797
0.490147
0.488359
0.486423
0.484322
0.48204
0.479336
0.476194
0.472856
0.469291
0.465468
0.46136
0.456935
0.452161
0.447
0.441412
0.435352
0.428769
0.421602
0.413784
0.405248
0.395926
0.385734
0.374588
0.362403
0.349096
0.510553
0.510046
0.509504
0.508942
0.50836
0.507757
0.50713
0.50648
0.505805
0.505104
0.504375
0.503617
0.502829
0.502007
0.50115
0.500253
0.499314
0.498326
0.497284
0.496181
0.495007
0.493754
0.49241
0.490964
0.489404
0.487718
0.485894
0.483918
0.481775
0.479443
0.47668
0.473465
0.470048
0.466398
0.462487
0.458287
0.453767
0.448892
0.443624
0.437922
0.431743
0.425036
0.417741
0.409795
0.401132
0.391685
0.381376
0.370127
0.357863
0.34451
0.508589
0.508077
0.50753
0.506963
0.506375
0.505765
0.505131
0.504473
0.503788
0.503077
0.502336
0.501566
0.500763
0.499925
0.499051
0.498136
0.497176
0.496167
0.495102
0.493974
0.492775
0.491496
0.490124
0.48865
0.48706
0.485343
0.483486
0.481475
0.479293
0.476919
0.474103
0.470825
0.467338
0.463615
0.459628
0.455349
0.450748
0.445787
0.440427
0.434628
0.428349
0.421538
0.414137
0.406085
0.397318
0.387769
0.377365
0.366032
0.353704
0.34031
0.506625
0.506109
0.505558
0.504987
0.504394
0.503778
0.503138
0.502472
0.50178
0.501059
0.500309
0.499527
0.498711
0.49786
0.49697
0.496039
0.495061
0.494033
0.492948
0.491799
0.490579
0.489276
0.487881
0.486381
0.484766
0.483022
0.481137
0.479095
0.47688
0.474469
0.471608
0.468275
0.46473
0.460946
0.456894
0.45255
0.44788
0.442846
0.437411
0.431533
0.425172
0.418277
0.410791
0.402654
0.393804
0.384175
0.373694
0.362296
0.349913
0.336481
0.504661
0.504142
0.503588
0.503013
0.502416
0.501796
0.50115
0.500479
0.49978
0.499051
0.498292
0.4975
0.496674
0.495811
0.494908
0.493963
0.49297
0.491925
0.490824
0.489657
0.488417
0.487095
0.48568
0.484159
0.482522
0.480755
0.478846
0.476779
0.474537
0.472095
0.469195
0.465818
0.462225
0.45839
0.454287
0.449889
0.445164
0.440073
0.434577
0.428638
0.422213
0.415252
0.407701
0.399501
0.39059
0.3809
0.370362
0.358912
0.346485
0.333012
0.502697
0.502177
0.50162
0.501042
0.500442
0.499818
0.499169
0.498492
0.497788
0.497053
0.496287
0.495487
0.494652
0.493779
0.492865
0.491908
0.490902
0.489845
0.488729
0.487547
0.486292
0.484954
0.483522
0.481984
0.480329
0.478544
0.476615
0.474528
0.472263
0.469796
0.466867
0.463454
0.459824
0.455949
0.451806
0.447368
0.442601
0.437467
0.431927
0.425943
0.419472
0.412465
0.404868
0.396625
0.387674
0.377944
0.367367
0.355881
0.343416
0.329905
0.500734
0.500212
0.499654
0.499074
0.498472
0.497846
0.497193
0.496513
0.495805
0.495065
0.494294
0.493488
0.492645
0.491764
0.490842
0.489875
0.488859
0.487791
0.486663
0.48547
0.484203
0.482852
0.481407
0.479856
0.478187
0.476388
0.474445
0.472342
0.47006
0.467575
0.464623
0.461185
0.457527
0.453624
0.449454
0.444987
0.440192
0.435029
0.429461
0.423449
0.41695
0.409915
0.402292
0.394026
0.385054
0.375305
0.364709
0.353202
0.340711
0.327165
0.498772
0.498249
0.49769
0.49711
0.496506
0.495878
0.495224
0.494542
0.49383
0.493087
0.492312
0.491501
0.490654
0.489767
0.488838
0.487863
0.48684
0.485763
0.484627
0.483426
0.482149
0.480789
0.479335
0.477775
0.476097
0.474288
0.472335
0.470222
0.467929
0.465431
0.462466
0.45901
0.455335
0.451416
0.447229
0.442747
0.437936
0.43276
0.427179
0.421156
0.414647
0.407603
0.399972
0.391702
0.382729
0.37298
0.362386
0.350876
0.338374
0.324799
0.49681
0.496287
0.495728
0.495148
0.494544
0.493916
0.49326
0.492577
0.491864
0.49112
0.490342
0.489528
0.488677
0.487786
0.486853
0.485873
0.484845
0.483763
0.482622
0.481414
0.480132
0.478767
0.477307
0.475742
0.474058
0.472244
0.470286
0.468167
0.465869
0.463366
0.460393
0.456931
0.453248
0.449323
0.445131
0.440646
0.435834
0.430657
0.42508
0.419062
0.412561
0.405526
0.397908
0.389653
0.380698
0.37097
0.360396
0.348904
0.336409
0.32282
0.494848
0.494326
0.493768
0.493189
0.492586
0.491958
0.491303
0.49062
0.489907
0.489162
0.488383
0.487569
0.486716
0.485823
0.484887
0.483905
0.482874
0.481789
0.480645
0.479435
0.478151
0.476783
0.475322
0.473755
0.472071
0.470256
0.468297
0.466178
0.46388
0.461378
0.458406
0.454946
0.451266
0.447345
0.443161
0.438685
0.433884
0.428722
0.423162
0.417166
0.41069
0.403684
0.396098
0.387878
0.378961
0.369273
0.358741
0.347288
0.334819
0.321236
0.492886
0.492366
0.49181
0.491233
0.490632
0.490005
0.489352
0.488671
0.487959
0.487215
0.486437
0.485623
0.48477
0.483877
0.482941
0.481959
0.480928
0.479843
0.478698
0.477489
0.476205
0.474839
0.47338
0.471815
0.470134
0.468323
0.466368
0.464255
0.461963
0.459467
0.456505
0.453055
0.449388
0.445483
0.441317
0.436862
0.432085
0.426951
0.421424
0.415466
0.409033
0.402075
0.39454
0.386376
0.377518
0.367892
0.357423
0.346028
0.33361
0.320058
0.490925
0.490408
0.489855
0.48928
0.488681
0.488058
0.487407
0.486728
0.486019
0.485277
0.484502
0.48369
0.48284
0.481949
0.481014
0.480034
0.479005
0.477922
0.476781
0.475574
0.474295
0.472934
0.47148
0.469922
0.468247
0.466444
0.464499
0.462396
0.460116
0.457634
0.454687
0.451258
0.447613
0.443734
0.439597
0.435175
0.430435
0.425343
0.419864
0.413959
0.407586
0.400693
0.393231
0.385145
0.376369
0.366827
0.356444
0.345132
0.332789
0.319298
0.488965
0.48845
0.487901
0.487329
0.486735
0.486115
0.485468
0.484793
0.484088
0.48335
0.482578
0.48177
0.480924
0.480037
0.479107
0.478131
0.477106
0.476028
0.474892
0.473692
0.47242
0.471066
0.469621
0.468073
0.466411
0.46462
0.462689
0.460602
0.458339
0.455876
0.452953
0.449552
0.44594
0.442097
0.438
0.433623
0.428933
0.423896
0.418478
0.412643
0.406346
0.399537
0.392167
0.38418
0.375508
0.366078
0.355806
0.344605
0.332366
0.318966
0.487005
0.486494
0.485949
0.485382
0.484792
0.484177
0.483535
0.482865
0.482165
0.481433
0.480666
0.479864
0.479023
0.478142
0.477218
0.476248
0.47523
0.47416
0.473032
0.471841
0.470579
0.469237
0.467804
0.46627
0.464623
0.46285
0.460937
0.45887
0.456631
0.454193
0.451302
0.447938
0.444367
0.44057
0.436523
0.432202
0.427575
0.422607
0.417266
0.411514
0.405309
0.398602
0.391343
0.383476
0.374933
0.365639
0.355509
0.344449
0.332348
0.319077
0.485045
0.484539
0.483999
0.483437
0.482853
0.482243
0.481608
0.480944
0.48025
0.479525
0.478766
0.477971
0.477137
0.476264
0.475348
0.474387
0.473378
0.472317
0.4712
0.470021
0.468772
0.467444
0.466028
0.464511
0.462883
0.461131
0.459242
0.457201
0.454989
0.452584
0.44973
0.446413
0.442893
0.439151
0.435165
0.430911
0.426358
0.421472
0.416221
0.410569
0.404473
0.397885
0.390756
0.383029
0.374638
0.365506
0.355548
0.344664
0.332739
0.31964
0.483085
0.482586
0.482051
0.481495
0.480917
0.480314
0.479686
0.47903
0.478344
0.477627
0.476876
0.47609
0.475266
0.474402
0.473496
0.472546
0.471548
0.470499
0.469395
0.468231
0.466998
0.465688
0.464291
0.462796
0.461191
0.459464
0.457603
0.455592
0.453414
0.451046
0.448238
0.444975
0.441514
0.437837
0.433923
0.429747
0.425279
0.420488
0.415341
0.409803
0.403832
0.39738
0.3904
0.382834
0.374617
0.365673
0.355916
0.345244
0.333538
0.320658
0.481126
0.480633
0.480105
0.479556
0.478985
0.47839
0.477769
0.477122
0.476445
0.475738
0.474997
0.474221
0.473408
0.472556
0.471662
0.470725
0.46974
0.468706
0.467618
0.46647
0.465256
0.463966
0.462592
0.461122
0.459544
0.457847
0.456018
0.454042
0.451903
0.449577
0.446821
0.443621
0.440228
0.436626
0.432792
0.428705
0.424334
0.419649
0.41462
0.409211
0.40338
0.397083
0.39027
0.382887
0.374867
0.366136
0.356608
0.346182
0.334736
0.322125
0.479167
0.478681
0.478161
0.477619
0.477056
0.47647
0.475859
0.475221
0.474554
0.473858
0.473129
0.472365
0.471565
0.470726
0.469846
0.468923
0.467954
0.466937
0.465866
0.464738
0.463545
0.46228
0.460931
0.459489
0.457942
0.456279
0.454486
0.45255
0.450454
0.448177
0.44548
0.442349
0.439032
0.435513
0.43177
0.427781
0.423518
0.418952
0.414053
0.408786
0.403111
0.396984
0.390358
0.383179
0.37538
0.366887
0.357617
0.347469
0.336323
0.324033
0.477209
0.47673
0.476218
0.475685
0.475131
0.474554
0.473953
0.473326
0.472671
0.471986
0.47127
0.47052
0.469734
0.46891
0.468047
0.46714
0.466189
0.465191
0.464141
0.463034
0.461866
0.460626
0.459306
0.457895
0.456383
0.454757
0.453004
0.451113
0.449066
0.446842
0.44421
0.441157
0.437924
0.434496
0.430853
0.426972
0.422828
0.418391
0.413635
0.408523
0.403018
0.397078
0.390656
0.3837
0.376146
0.367919
0.358935
0.3491
0.338293
0.32637
0.475251
0.474781
0.474277
0.473753
0.473209
0.472642
0.472052
0.471436
0.470794
0.470123
0.469422
0.468687
0.467917
0.46711
0.466264
0.465376
0.464445
0.463467
0.462439
0.461358
0.460215
0.459004
0.457716
0.45634
0.454865
0.45328
0.451572
0.449729
0.447736
0.445571
0.443009
0.44004
0.436899
0.43357
0.430035
0.426273
0.422256
0.41796
0.413358
0.408415
0.403094
0.397355
0.391154
0.38444
0.377153
0.369218
0.360552
0.351062
0.340633
0.329124
0.473293
0.472832
0.472337
0.471823
0.471289
0.470734
0.470156
0.469553
0.468925
0.468268
0.467582
0.466864
0.466112
0.465323
0.464497
0.46363
0.46272
0.461765
0.460762
0.459707
0.458593
0.457414
0.45616
0.454821
0.453387
0.451846
0.450186
0.448396
0.446461
0.44436
0.441874
0.438997
0.435954
0.432732
0.429313
0.425677
0.421798
0.417653
0.413215
0.408453
0.40333
0.397806
0.391841
0.385387
0.378387
0.370768
0.362449
0.353339
0.343327
0.332278
0.471335
0.470884
0.470399
0.469896
0.469373
0.468829
0.468264
0.467675
0.467062
0.466421
0.465752
0.465052
0.464318
0.46355
0.462745
0.4619
0.461014
0.460084
0.459108
0.458081
0.456998
0.455853
0.454636
0.453338
0.451948
0.450454
0.448846
0.447112
0.445239
0.443206
0.440803
0.438023
0.435085
0.431977
0.428682
0.42518
0.421448
0.417463
0.413199
0.408629
0.403716
0.398423
0.392709
0.38653
0.379834
0.372553
0.364607
0.355909
0.346352
0.335806
0.469378
0.468937
0.468463
0.46797
0.467459
0.466929
0.466377
0.465803
0.465205
0.464582
0.46393
0.463249
0.462537
0.46179
0.461007
0.460187
0.459326
0.458423
0.457475
0.456479
0.455429
0.45432
0.453142
0.451887
0.450544
0.449101
0.447549
0.445875
0.444067
0.442107
0.439791
0.437114
0.434287
0.4313
0.428136
0.424776
0.421199
0.417382
0.413302
0.408934
0.404243
0.399193
0.393744
0.387856
0.38148
0.374554
0.367004
0.358746
0.349679
0.339678
0.467421
0.466991
0.466528
0.466047
0.465549
0.465031
0.464494
0.463936
0.463355
0.462749
0.462117
0.461456
0.460765
0.460042
0.459284
0.458489
0.457655
0.456781
0.455863
0.4549
0.453885
0.452814
0.451677
0.450468
0.449174
0.447786
0.446291
0.444681
0.442943
0.441059
0.438836
0.436267
0.433557
0.430696
0.42767
0.424459
0.421044
0.417403
0.413515
0.409357
0.404899
0.400104
0.394934
0.389351
0.38331
0.376756
0.36962
0.361825
0.353276
0.343855
0.465464
0.465045
0.464594
0.464126
0.463641
0.463138
0.462616
0.462073
0.46151
0.460923
0.460311
0.459672
0.459004
0.458305
0.457573
0.456806
0.456001
0.455157
0.454272
0.453342
0.452365
0.451333
0.45024
0.449078
0.447837
0.446505
0.445072
0.443528
0.441863
0.440059
0.437933
0.435478
0.432891
0.430162
0.427278
0.424223
0.420977
0.417519
0.41383
0.40989
0.405671
0.401141
0.396263
0.390999
0.385308
0.37914
0.372434
0.365121
0.357112
0.348301
0.463508
0.463101
0.462662
0.462207
0.461735
0.461247
0.460741
0.460216
0.459671
0.459104
0.458513
0.457897
0.457253
0.45658
0.455875
0.455136
0.454362
0.45355
0.452698
0.451805
0.450866
0.449876
0.448829
0.447716
0.446529
0.445256
0.443888
0.442414
0.440824
0.439104
0.437079
0.434743
0.432282
0.42969
0.426954
0.42406
0.42099
0.417722
0.414239
0.410522
0.40655
0.402292
0.397715
0.39278
0.387452
0.381684
0.375423
0.368607
0.361156
0.352978
0.461552
0.461157
0.460731
0.46029
0.459833
0.45936
0.45887
0.458363
0.457837
0.45729
0.456722
0.456129
0.455511
0.454864
0.454188
0.453479
0.452737
0.451958
0.451142
0.450286
0.449388
0.448441
0.447441
0.44638
0.445249
0.444037
0.442736
0.441335
0.439824
0.438191
0.436269
0.434056
0.431728
0.429277
0.426693
0.423965
0.421075
0.418003
0.414732
0.411245
0.407524
0.403544
0.399273
0.394677
0.389722
0.384365
0.378561
0.372254
0.365376
0.357846
0.459596
0.459215
0.458802
0.458374
0.457932
0.457475
0.457003
0.456514
0.456008
0.455483
0.454937
0.454369
0.453777
0.453158
0.452512
0.451835
0.451125
0.450381
0.449602
0.448786
0.447929
0.447027
0.446076
0.445068
0.443994
0.442846
0.441614
0.440288
0.438859
0.437315
0.435501
0.433415
0.431222
0.428916
0.426488
0.423929
0.421224
0.418353
0.4153
0.412049
0.408584
0.404884
0.400924
0.396672
0.392095
0.387158
0.38182
0.376032
0.369736
0.362864
0.45764
0.457273
0.456873
0.456461
0.456035
0.455594
0.45514
0.45467
0.454184
0.453681
0.453159
0.452616
0.45205
0.451461
0.450845
0.450201
0.449525
0.448818
0.448077
0.447301
0.446487
0.445632
0.444731
0.443777
0.442763
0.441679
0.440518
0.43927
0.437925
0.436473
0.43477
0.432814
0.43076
0.428602
0.426333
0.423947
0.421429
0.418764
0.415933
0.412923
0.409718
0.406302
0.402654
0.398747
0.394552
0.390039
0.38517
0.379905
0.374197
0.367987
0.455685
0.455331
0.454947
0.454549
0.454139
0.453716
0.45328
0.45283
0.452365
0.451884
0.451386
0.450869
0.450331
0.449772
0.449187
0.448576
0.447937
0.447267
0.446566
0.445831
0.445061
0.444254
0.443404
0.442506
0.441552
0.440535
0.439447
0.438277
0.437019
0.435662
0.434071
0.432248
0.430336
0.42833
0.426223
0.42401
0.421682
0.419224
0.41662
0.413854
0.410913
0.407784
0.404449
0.400888
0.397075
0.392984
0.388585
0.383843
0.37872
0.373169
0.45373
0.453391
0.453021
0.45264
0.452246
0.451841
0.451424
0.450994
0.450551
0.450093
0.449619
0.449129
0.448619
0.44809
0.447538
0.446961
0.446358
0.445727
0.445066
0.444375
0.44365
0.442891
0.442094
0.441252
0.44036
0.439411
0.438396
0.437307
0.436137
0.434876
0.433401
0.431714
0.429947
0.428095
0.426152
0.424115
0.421976
0.419726
0.417349
0.41483
0.412156
0.409317
0.406296
0.403079
0.399645
0.395973
0.392038
0.387813
0.383268
0.378367
0.451775
0.451451
0.451097
0.450732
0.450356
0.449969
0.449571
0.449162
0.448741
0.448306
0.447858
0.447394
0.446913
0.446414
0.445895
0.445354
0.444788
0.444196
0.443577
0.44293
0.442252
0.441542
0.440798
0.440014
0.439185
0.438304
0.437364
0.436357
0.435276
0.434113
0.432755
0.431206
0.429586
0.427891
0.426113
0.424253
0.422305
0.420262
0.418111
0.415839
0.413434
0.410884
0.408178
0.405303
0.402244
0.398984
0.395506
0.391787
0.387807
0.383539
0.449821
0.449512
0.449174
0.448826
0.448468
0.4481
0.447722
0.447334
0.446935
0.446524
0.446101
0.445664
0.445213
0.444745
0.444259
0.443753
0.443225
0.442673
0.442097
0.441495
0.440864
0.440205
0.439515
0.438789
0.438024
0.437211
0.436347
0.435423
0.434433
0.433368
0.432129
0.430718
0.429247
0.427711
0.426101
0.424419
0.422661
0.420824
0.418898
0.416871
0.414732
0.412471
0.410078
0.407542
0.404853
0.401998
0.398965
0.395739
0.392305
0.388648
0.447866
0.447574
0.447253
0.446922
0.446582
0.446233
0.445876
0.445509
0.445133
0.444746
0.444349
0.44394
0.443517
0.443081
0.442629
0.442159
0.441669
0.441158
0.440624
0.440068
0.439486
0.438878
0.438242
0.437576
0.436874
0.436132
0.435343
0.434502
0.433603
0.432638
0.431517
0.430247
0.428926
0.427549
0.42611
0.424606
0.423039
0.421405
0.419701
0.417916
0.41604
0.414064
0.41198
0.409778
0.407452
0.404993
0.402393
0.399642
0.396734
0.393659
0.445912
0.445636
0.445332
0.44502
0.444698
0.444369
0.444033
0.443688
0.443335
0.442973
0.442601
0.442219
0.441827
0.441422
0.441004
0.44057
0.440118
0.439648
0.439158
0.438647
0.438114
0.437558
0.436978
0.436371
0.435733
0.435061
0.434349
0.433591
0.432783
0.431919
0.430917
0.429786
0.428615
0.427399
0.426131
0.424808
0.423431
0.422
0.420514
0.418965
0.417347
0.415651
0.413869
0.411995
0.410023
0.407948
0.405765
0.403471
0.401063
0.39854
0.443958
0.443699
0.443413
0.443119
0.442817
0.442508
0.442192
0.44187
0.44154
0.441203
0.440857
0.440503
0.44014
0.439767
0.439382
0.438985
0.438572
0.438143
0.437696
0.437232
0.436748
0.436245
0.43572
0.435173
0.4346
0.433998
0.433362
0.432688
0.431971
0.431206
0.430323
0.429332
0.42831
0.427254
0.426157
0.425016
0.42383
0.422601
0.42133
0.420013
0.418646
0.417221
0.415733
0.414176
0.412547
0.410842
0.40906
0.407201
0.405266
0.403261
0.442004
0.441763
0.441495
0.441219
0.440937
0.440648
0.440354
0.440054
0.439748
0.439436
0.439117
0.438791
0.438457
0.438115
0.437765
0.437403
0.437029
0.436641
0.436238
0.43582
0.435386
0.434935
0.434466
0.433979
0.433471
0.432939
0.43238
0.431789
0.431163
0.430497
0.429732
0.428879
0.428005
0.427108
0.426181
0.425221
0.424227
0.4232
0.422142
0.421052
0.419928
0.418766
0.417562
0.416311
0.415011
0.41366
0.412259
0.41081
0.409319
0.407794
0.440051
0.439827
0.439577
0.439321
0.439058
0.438791
0.438519
0.438242
0.43796
0.437672
0.43738
0.437082
0.436778
0.436467
0.436149
0.435824
0.435488
0.435141
0.434782
0.43441
0.434026
0.433627
0.433215
0.432787
0.432344
0.431882
0.431399
0.430891
0.430356
0.429789
0.429141
0.428424
0.427696
0.426956
0.426197
0.425417
0.424613
0.423786
0.422939
0.422073
0.421187
0.420279
0.419347
0.418389
0.417403
0.416388
0.415346
0.414282
0.413202
0.412118
0.438098
0.437892
0.43766
0.437423
0.437181
0.436935
0.436685
0.436431
0.436173
0.435911
0.435645
0.435375
0.4351
0.434821
0.434537
0.434246
0.433948
0.433642
0.433327
0.433001
0.432665
0.432319
0.431963
0.431595
0.431216
0.430824
0.430417
0.429992
0.429547
0.429078
0.428546
0.427964
0.427379
0.426792
0.426198
0.425595
0.424979
0.424351
0.423713
0.423066
0.422412
0.42175
0.421081
0.420402
0.419714
0.419015
0.41831
0.417602
0.4169
0.416217
0.436144
0.435956
0.435744
0.435527
0.435305
0.435081
0.434853
0.434622
0.434388
0.434152
0.433913
0.43367
0.433425
0.433177
0.432925
0.432669
0.432409
0.432143
0.43187
0.431591
0.431304
0.43101
0.430708
0.4304
0.430085
0.429763
0.429431
0.429088
0.428732
0.42836
0.427944
0.427495
0.42705
0.426613
0.42618
0.425749
0.425318
0.424886
0.424453
0.424022
0.423595
0.423171
0.422754
0.422341
0.421934
0.421533
0.42114
0.420761
0.420402
0.420079
0.434191
0.434021
0.433828
0.43363
0.43343
0.433227
0.433022
0.432814
0.432605
0.432394
0.432181
0.431967
0.431751
0.431533
0.431314
0.431093
0.430869
0.430643
0.430413
0.430178
0.429939
0.429696
0.42945
0.429201
0.428949
0.428695
0.428437
0.428175
0.427908
0.427633
0.42733
0.427012
0.426706
0.426415
0.426138
0.425875
0.425623
0.425381
0.42515
0.424931
0.424724
0.424532
0.424356
0.424198
0.424057
0.423933
0.42383
0.42375
0.423702
0.423695
0.432237
0.432086
0.431912
0.431735
0.431555
0.431374
0.431191
0.431007
0.430822
0.430637
0.43045
0.430264
0.430077
0.42989
0.429703
0.429515
0.429328
0.42914
0.428952
0.428762
0.42857
0.428378
0.428185
0.427994
0.427804
0.427618
0.427434
0.427252
0.427072
0.426892
0.426702
0.426514
0.426343
0.426195
0.426069
0.425968
0.425889
0.425832
0.425796
0.425782
0.42579
0.425821
0.425878
0.425962
0.426071
0.426207
0.42637
0.426564
0.426791
0.427063
0.430283
0.43015
0.429996
0.429839
0.42968
0.429521
0.429361
0.429201
0.42904
0.42888
0.42872
0.428561
0.428402
0.428245
0.42809
0.427936
0.427785
0.427635
0.427487
0.427341
0.427196
0.427053
0.426913
0.426779
0.42665
0.426529
0.426417
0.426314
0.426219
0.426133
0.426055
0.425994
0.425957
0.425949
0.42597
0.426025
0.426113
0.426233
0.426385
0.426568
0.426783
0.42703
0.42731
0.427623
0.427969
0.428347
0.428755
0.429195
0.429668
0.430178
0.42833
0.428215
0.42808
0.427943
0.427805
0.427668
0.42753
0.427394
0.427257
0.427122
0.426989
0.426857
0.426727
0.426599
0.426475
0.426354
0.426238
0.426125
0.426017
0.425913
0.425813
0.425719
0.425632
0.425553
0.425484
0.425427
0.425385
0.425358
0.425348
0.425354
0.425385
0.42545
0.425544
0.425672
0.425838
0.426043
0.426291
0.426581
0.426913
0.427285
0.427698
0.42815
0.428643
0.429174
0.429742
0.430344
0.430977
0.431638
0.432327
0.433041
0.426376
0.42628
0.426164
0.426047
0.42593
0.425814
0.425699
0.425585
0.425473
0.425363
0.425256
0.425151
0.425049
0.424951
0.424857
0.424769
0.424686
0.42461
0.42454
0.424477
0.424422
0.424376
0.424339
0.424314
0.424304
0.42431
0.424336
0.424383
0.424455
0.424551
0.424688
0.424877
0.4251
0.425362
0.425667
0.426019
0.42642
0.426873
0.427375
0.427928
0.428529
0.429177
0.42987
0.430607
0.431383
0.432192
0.43303
0.433891
0.434766
0.435651
0.424422
0.424344
0.424248
0.42415
0.424054
0.423959
0.423866
0.423775
0.423687
0.423602
0.42352
0.423442
0.423368
0.423299
0.423235
0.423178
0.423129
0.423088
0.423056
0.423033
0.423021
0.423021
0.423033
0.423061
0.423107
0.423175
0.423266
0.423386
0.423537
0.42372
0.423961
0.42427
0.424619
0.425013
0.425454
0.425948
0.426498
0.427106
0.427771
0.428495
0.429273
0.430106
0.430989
0.431918
0.432888
0.433889
0.434912
0.435949
0.436987
0.438012
0.422469
0.422409
0.422331
0.422253
0.422176
0.422102
0.422031
0.421963
0.421899
0.421838
0.421782
0.42173
0.421683
0.421642
0.421608
0.421582
0.421565
0.421558
0.421563
0.421579
0.421608
0.421653
0.421713
0.421793
0.421894
0.42202
0.422176
0.422364
0.422591
0.422858
0.423201
0.423626
0.424098
0.424619
0.425194
0.425826
0.42652
0.427277
0.428098
0.428983
0.42993
0.430936
0.431997
0.433106
0.434254
0.435431
0.436623
0.437816
0.438991
0.44013
0.420515
0.420472
0.420413
0.420354
0.420298
0.420244
0.420194
0.420149
0.420107
0.420071
0.420039
0.420013
0.419993
0.419979
0.419975
0.419979
0.419994
0.42002
0.42006
0.420114
0.420183
0.420271
0.420378
0.420507
0.420661
0.420844
0.421061
0.421317
0.421617
0.421965
0.422403
0.422942
0.423531
0.424177
0.424882
0.425649
0.426481
0.427382
0.428352
0.429391
0.430497
0.431666
0.432893
0.434169
0.435483
0.43682
0.438163
0.439493
0.440785
0.442012
0.418561
0.418536
0.418494
0.418454
0.418417
0.418384
0.418355
0.418331
0.418312
0.418299
0.418291
0.41829
0.418296
0.41831
0.418334
0.418368
0.418414
0.418472
0.418546
0.418636
0.418744
0.418873
0.419025
0.419201
0.419407
0.419645
0.419921
0.420241
0.420611
0.421036
0.421567
0.422213
0.422916
0.423682
0.424512
0.425409
0.426377
0.427416
0.42853
0.429716
0.430972
0.432295
0.433677
0.435108
0.436575
0.438058
0.439537
0.440986
0.442375
0.443669
0.416607
0.416598
0.416574
0.416552
0.416534
0.41652
0.416512
0.416509
0.416512
0.416522
0.416538
0.416561
0.416593
0.416634
0.416685
0.416747
0.416823
0.416913
0.41702
0.417145
0.417291
0.417459
0.417653
0.417876
0.41813
0.418421
0.418754
0.419135
0.419572
0.42007
0.420689
0.421437
0.422249
0.42313
0.424081
0.425104
0.426201
0.427375
0.428626
0.429953
0.431353
0.432821
0.434348
0.435924
0.437531
0.439149
0.440749
0.442303
0.443771
0.445113
0.414653
0.41466
0.414653
0.414649
0.414649
0.414654
0.414666
0.414683
0.414708
0.414739
0.414778
0.414826
0.414882
0.414949
0.415026
0.415117
0.415221
0.415342
0.41548
0.415639
0.41582
0.416027
0.416262
0.416528
0.41683
0.417171
0.417559
0.417998
0.418499
0.419066
0.419768
0.420613
0.421528
0.422518
0.423584
0.424727
0.42595
0.427252
0.428635
0.430097
0.431634
0.43324
0.434905
0.436616
0.438353
0.440093
0.441804
0.443448
0.444982
0.446356
0.412698
0.412721
0.41273
0.412743
0.412761
0.412785
0.412815
0.412853
0.412897
0.41295
0.413012
0.413082
0.413162
0.413254
0.413357
0.413475
0.413607
0.413757
0.413926
0.414117
0.414333
0.414576
0.41485
0.415158
0.415504
0.415894
0.416333
0.416828
0.417389
0.418022
0.418802
0.419738
0.42075
0.421843
0.423018
0.424275
0.425617
0.427043
0.428553
0.430144
0.431812
0.433549
0.435344
0.437182
0.439041
0.440893
0.442704
0.444429
0.446017
0.447411
0.410743
0.410781
0.410806
0.410835
0.41087
0.410911
0.41096
0.411017
0.411081
0.411155
0.411237
0.41133
0.411433
0.411549
0.411677
0.41182
0.41198
0.412158
0.412356
0.412578
0.412826
0.413104
0.413415
0.413762
0.414151
0.414587
0.415075
0.415623
0.416241
0.416936
0.41779
0.418811
0.419914
0.421103
0.42238
0.423746
0.4252
0.426743
0.428374
0.430089
0.431881
0.433743
0.435662
0.437619
0.439592
0.44155
0.443451
0.445249
0.446882
0.448286
0.408788
0.40884
0.408881
0.408925
0.408976
0.409034
0.409101
0.409175
0.409259
0.409352
0.409455
0.409569
0.409694
0.409833
0.409985
0.410153
0.410338
0.410543
0.410769
0.41102
0.4113
0.41161
0.411956
0.412341
0.41277
0.413249
0.413784
0.414382
0.415054
0.415807
0.41673
0.417831
0.419019
0.420298
0.42167
0.423136
0.424696
0.426349
0.428094
0.429926
0.431837
0.433817
0.435853
0.437924
0.440005
0.442061
0.444047
0.44591
0.447583
0.44899
0.406833
0.406898
0.406953
0.407013
0.407079
0.407153
0.407236
0.407328
0.407429
0.407541
0.407663
0.407797
0.407944
0.408104
0.408279
0.408471
0.40868
0.408911
0.409164
0.409443
0.409752
0.410093
0.410472
0.410892
0.411359
0.411879
0.412458
0.413103
0.413825
0.414634
0.415621
0.416797
0.418063
0.419425
0.420885
0.422444
0.424103
0.425859
0.42771
0.429652
0.431675
0.433768
0.435914
0.438093
0.440275
0.442424
0.444489
0.446413
0.448121
0.449527
0.404878
0.404956
0.405025
0.405098
0.405179
0.405268
0.405366
0.405474
0.405593
0.405722
0.405862
0.406015
0.406182
0.406363
0.406559
0.406773
0.407006
0.407261
0.407539
0.407845
0.408182
0.408552
0.408962
0.409415
0.409917
0.410475
0.411095
0.411785
0.412554
0.413414
0.414461
0.415706
0.417045
0.418484
0.420025
0.42167
0.423419
0.42527
0.42722
0.429264
0.431391
0.43359
0.435841
0.438121
0.4404
0.442635
0.444776
0.446757
0.448497
0.449901
0.402924
0.403013
0.403094
0.403181
0.403275
0.403378
0.403491
0.403614
0.403748
0.403894
0.404052
0.404223
0.404408
0.404608
0.404825
0.40506
0.405315
0.405592
0.405895
0.406226
0.406588
0.406986
0.407424
0.407908
0.408444
0.409037
0.409695
0.410425
0.411239
0.412146
0.41325
0.414559
0.415965
0.417474
0.419089
0.420813
0.422644
0.424582
0.426623
0.428761
0.430985
0.433281
0.43563
0.438005
0.440374
0.442692
0.444904
0.446939
0.448711
0.450113
0.400968