/*--------------------------------*- C++ -*----------------------------------*\
  =========                 |
  \\      /  F ield         | OpenFOAM: The Open Source CFD Toolbox
   \\    /   O peration     | Website:  https://openfoam.org
    \\  /    A nd           | Version:  9
     \\/     M anipulation  |
\*---------------------------------------------------------------------------*/
FoamFile
{
    format      ascii;
    class       volScalarField;
    location    "0.03";
    object      p_rgh;
}
// * * * * * * * * * * * * * * * * * * * * * * * * * * * * * * * * * * * * * //

dimensions      [1 -1 -2 0 0 0 0];

internalField   nonuniform List<scalar> 
5000
(
-0.000193381
-0.000609975
-0.00106026
-0.00152217
-0.00199591
-0.00248149
-0.00297881
-0.00348762
-0.00400764
-0.00453857
-0.0050802
-0.00563244
-0.00619554
-0.00677015
-0.00735761
-0.00796008
-0.00858092
-0.00922483
-0.00989806
-0.0106085
-0.0113657
-0.0121807
-0.0130658
-0.0140343
-0.0150992
-0.0162723
-0.0175621
-0.0189721
-0.0205002
-0.0221383
-0.0240304
-0.0261501
-0.02833
-0.0306196
-0.0330867
-0.0358023
-0.0388149
-0.0421316
-0.045721
-0.0495494
-0.0536292
-0.0580444
-0.0629296
-0.0684109
-0.0745526
-0.0813691
-0.0889104
-0.097344
-0.106953
-0.117988
-0.000200198
-0.000630224
-0.00109443
-0.00157129
-0.00206105
-0.00256386
-0.00307969
-0.00360836
-0.00414971
-0.00470355
-0.00526978
-0.00584847
-0.00643998
-0.00704513
-0.00766537
-0.00830303
-0.00896158
-0.00964583
-0.0103621
-0.0111184
-0.0119243
-0.0127913
-0.0137318
-0.0147597
-0.0158883
-0.0171299
-0.0184937
-0.0199838
-0.0215993
-0.0233341
-0.0253436
-0.0276032
-0.0299345
-0.0323884
-0.0350351
-0.0379463
-0.0411691
-0.044709
-0.048537
-0.0526255
-0.0569943
-0.0617312
-0.0669692
-0.072829
-0.0793736
-0.0866256
-0.094646
-0.103598
-0.113755
-0.125379
-0.00020629
-0.000648116
-0.00112438
-0.00161415
-0.00211777
-0.00263553
-0.00316753
-0.00371372
-0.00427409
-0.00484863
-0.00543744
-0.00604079
-0.00665926
-0.00729388
-0.00794633
-0.00861918
-0.00931605
-0.0100419
-0.010803
-0.0116075
-0.0124649
-0.0133862
-0.0143841
-0.0154716
-0.0166619
-0.017967
-0.0193958
-0.0209535
-0.0226414
-0.0244575
-0.026571
-0.028966
-0.0314556
-0.0340881
-0.0369261
-0.0400317
-0.043445
-0.0471746
-0.0512066
-0.0555331
-0.0601856
-0.0652463
-0.0708277
-0.0770318
-0.0839233
-0.0915499
-0.0999992
-0.109427
-0.120048
-0.132126
-0.000211886
-0.000664488
-0.00115175
-0.00165335
-0.00216973
-0.0027013
-0.00324828
-0.00381077
-0.00438893
-0.00498295
-0.00559312
-0.00621993
-0.00686418
-0.00752714
-0.00821072
-0.00891767
-0.00965178
-0.0104181
-0.011223
-0.0120744
-0.0129818
-0.013956
-0.015009
-0.0161538
-0.0174028
-0.0187676
-0.0202572
-0.0218776
-0.0236327
-0.0255247
-0.0277362
-0.0302604
-0.0329028
-0.0357079
-0.0387297
-0.042019
-0.0456101
-0.0495161
-0.0537392
-0.0582903
-0.0632095
-0.0685704
-0.0744657
-0.0809829
-0.0881922
-0.0961608
-0.104989
-0.114825
-0.125836
-0.138255
-0.000217069
-0.000679657
-0.00117711
-0.00168972
-0.00221803
-0.00276257
-0.00332369
-0.00390165
-0.00449675
-0.00510936
-0.00573995
-0.00638922
-0.00705818
-0.0077483
-0.00846169
-0.00920123
-0.00997087
-0.0107757
-0.0116221
-0.012518
-0.0134725
-0.0144965
-0.0156015
-0.0167999
-0.0181041
-0.0195253
-0.0210727
-0.0227536
-0.0245742
-0.0265403
-0.0288467
-0.0314932
-0.0342774
-0.0372409
-0.0404307
-0.0438899
-0.0476489
-0.0517258
-0.056134
-0.0608971
-0.0660597
-0.0716889
-0.0778647
-0.0846666
-0.0921683
-0.100446
-0.109603
-0.119779
-0.131119
-0.143808
-0.000221844
-0.000693666
-0.00120053
-0.00172335
-0.00226274
-0.00281939
-0.00339377
-0.00398628
-0.00459737
-0.00522758
-0.00587758
-0.00654822
-0.00724071
-0.00795671
-0.00869845
-0.00946898
-0.0102723
-0.0111136
-0.0119992
-0.0129368
-0.0139357
-0.0150061
-0.0161596
-0.0174083
-0.0187641
-0.0202381
-0.0218403
-0.0235791
-0.0254626
-0.0275003
-0.0298974
-0.0326592
-0.0355749
-0.0386833
-0.0420263
-0.0456415
-0.0495578
-0.0537972
-0.0583817
-0.0633424
-0.0687261
-0.0745949
-0.0810208
-0.088079
-0.095844
-0.104395
-0.113832
-0.124285
-0.135888
-0.148791
-0.00022625
-0.000706571
-0.00122209
-0.00175432
-0.00230395
-0.00287183
-0.00345855
-0.00406465
-0.00469073
-0.0053375
-0.00600578
-0.0066966
-0.00741134
-0.00815178
-0.0089203
-0.00972004
-0.0105551
-0.0114305
-0.0123528
-0.0133295
-0.0143696
-0.0154833
-0.0166818
-0.017977
-0.0193807
-0.0209043
-0.022558
-0.0243515
-0.026295
-0.0284009
-0.0308839
-0.0337535
-0.0367905
-0.0400313
-0.0435134
-0.0472709
-0.0513326
-0.0557241
-0.0604736
-0.0656169
-0.0712006
-0.0772827
-0.0839308
-0.0912177
-0.099217
-0.108007
-0.117683
-0.128362
-0.140167
-0.153228
-0.00023031
-0.000718386
-0.00124179
-0.00178261
-0.00234164
-0.00291986
-0.00351798
-0.00413668
-0.0047767
-0.00543891
-0.00612427
-0.00683398
-0.00756954
-0.00833286
-0.00912642
-0.00995344
-0.010818
-0.0117253
-0.0126817
-0.0136945
-0.0147727
-0.0159262
-0.0171663
-0.0185045
-0.0199528
-0.0215224
-0.0232243
-0.0250692
-0.0270692
-0.0292389
-0.031802
-0.034771
-0.0379189
-0.0412798
-0.044888
-0.0487752
-0.0529703
-0.0575021
-0.0624032
-0.0677123
-0.073475
-0.0797464
-0.0865913
-0.0940805
-0.102286
-0.111283
-0.121161
-0.132027
-0.143989
-0.157161
-0.000234029
-0.000729107
-0.00125963
-0.00180822
-0.0023758
-0.00296345
-0.00357199
-0.00420225
-0.00485511
-0.00553157
-0.00623274
-0.00695994
-0.00771479
-0.00849932
-0.00931609
-0.0101684
-0.0110603
-0.011997
-0.0129846
-0.0140306
-0.0151437
-0.0163339
-0.0176121
-0.0189898
-0.0204789
-0.0220911
-0.0238376
-0.0257303
-0.0277827
-0.0300114
-0.0326482
-0.0357079
-0.0389562
-0.0424253
-0.0461469
-0.0501511
-0.0544673
-0.0591268
-0.0641654
-0.0696228
-0.0755439
-0.0819818
-0.0889996
-0.0966657
-0.105049
-0.114223
-0.124271
-0.135292
-0.147378
-0.160627
-0.000237383
-0.000738697
-0.00127556
-0.00183111
-0.00240636
-0.00300251
-0.0036205
-0.00426126
-0.00492581
-0.00561528
-0.00633091
-0.00707413
-0.00784668
-0.00865066
-0.00948871
-0.0103641
-0.0112811
-0.0122446
-0.0132608
-0.014337
-0.0154819
-0.0167053
-0.0180181
-0.0194318
-0.0209581
-0.022609
-0.0243965
-0.0263329
-0.0284332
-0.030716
-0.0334197
-0.0365613
-0.0398995
-0.0434649
-0.0472873
-0.0513959
-0.0558203
-0.0605943
-0.0657554
-0.0713438
-0.0774034
-0.0839861
-0.0911536
-0.098972
-0.107507
-0.11683
-0.127021
-0.138168
-0.150352
-0.163659
-0.000240342
-0.000747121
-0.00128954
-0.00185123
-0.00243326
-0.00303696
-0.00366336
-0.00431352
-0.00498858
-0.00568978
-0.00641848
-0.00717621
-0.00796479
-0.00878642
-0.00964377
-0.0105402
-0.0114797
-0.0124675
-0.0135094
-0.0146129
-0.0157863
-0.0170396
-0.0183834
-0.0198294
-0.0213893
-0.0230751
-0.0248994
-0.0268754
-0.0290189
-0.0313502
-0.0341139
-0.0373283
-0.040746
-0.044396
-0.0483069
-0.0525069
-0.0570265
-0.0619012
-0.0671696
-0.0728717
-0.0790505
-0.0857571
-0.0930521
-0.100999
-0.109662
-0.119109
-0.129417
-0.140667
-0.15293
-0.166284
-0.00024289
-0.000754367
-0.00130157
-0.00186856
-0.00245648
-0.00306677
-0.00370054
-0.00435898
-0.00504333
-0.00575493
-0.00649524
-0.0072659
-0.0080688
-0.00890619
-0.00978079
-0.0106959
-0.0116557
-0.012665
-0.0137298
-0.0148574
-0.0160562
-0.0173359
-0.0187073
-0.0201818
-0.0217713
-0.0234882
-0.0253453
-0.0273563
-0.0295381
-0.0319122
-0.0347286
-0.0380066
-0.0414932
-0.0452163
-0.0492034
-0.0534821
-0.0580837
-0.0630448
-0.0684049
-0.0742033
-0.0804825
-0.0872931
-0.0946941
-0.102747
-0.111514
-0.121062
-0.131467
-0.142799
-0.155128
-0.168522
-0.000245023
-0.000760418
-0.0013116
-0.00188303
-0.00247593
-0.00309182
-0.00373191
-0.00439748
-0.00508987
-0.00581052
-0.00656098
-0.00734295
-0.00815841
-0.00900965
-0.00989941
-0.010831
-0.0118085
-0.0128367
-0.0139215
-0.0150701
-0.0162909
-0.0175937
-0.018989
-0.0204883
-0.0221036
-0.0238475
-0.0257329
-0.0277743
-0.0299892
-0.0324003
-0.0352619
-0.0385941
-0.0421392
-0.045924
-0.0499752
-0.0543198
-0.0589899
-0.0640232
-0.069459
-0.0753365
-0.0816976
-0.0885926
-0.0960789
-0.104216
-0.113066
-0.122695
-0.133175
-0.144574
-0.156956
-0.170389
-0.000246756
-0.00076528
-0.00131963
-0.00189463
-0.00249157
-0.00311205
-0.00375738
-0.00442889
-0.00512805
-0.00585636
-0.00661544
-0.00740709
-0.00823333
-0.00909647
-0.00999928
-0.010945
-0.0119377
-0.0129821
-0.014084
-0.0152506
-0.0164902
-0.0178125
-0.019228
-0.0207483
-0.0223855
-0.0241521
-0.0260615
-0.0281284
-0.030371
-0.0328131
-0.0357123
-0.0390893
-0.0426824
-0.0465177
-0.0506207
-0.0550186
-0.0597439
-0.0648348
-0.0703306
-0.0762698
-0.0826948
-0.0896552
-0.0972065
-0.105407
-0.114318
-0.124007
-0.134545
-0.145995
-0.158423
-0.171895
-0.000248105
-0.00076896
-0.00132566
-0.00190336
-0.00250339
-0.00312745
-0.00377689
-0.00445317
-0.00515778
-0.00589233
-0.0066585
-0.00745815
-0.00829333
-0.00916641
-0.0100801
-0.0110377
-0.0120431
-0.0131009
-0.014217
-0.0153985
-0.0166536
-0.0179919
-0.0194241
-0.0209615
-0.0226164
-0.0244015
-0.0263302
-0.0284177
-0.0306826
-0.0331494
-0.0360787
-0.0394911
-0.0431219
-0.0469962
-0.0511391
-0.0555776
-0.0603447
-0.0654788
-0.0710185
-0.0770025
-0.0834734
-0.0904804
-0.0980771
-0.10632
-0.115272
-0.125002
-0.135579
-0.147065
-0.159529
-0.173041
-0.000249079
-0.000771453
-0.00132966
-0.00190915
-0.00251132
-0.00313792
-0.00379037
-0.00447018
-0.00517893
-0.00591828
-0.00668999
-0.00749594
-0.00833825
-0.00921929
-0.0101418
-0.0111089
-0.0121244
-0.013193
-0.0143204
-0.0155137
-0.0167809
-0.0181318
-0.0195768
-0.0211275
-0.0227961
-0.0245953
-0.0265387
-0.0286417
-0.0309233
-0.0334086
-0.0363601
-0.0397986
-0.0434568
-0.0473591
-0.0515298
-0.0559962
-0.0607917
-0.0659544
-0.0715224
-0.0775343
-0.0840333
-0.0910682
-0.0986912
-0.106957
-0.115929
-0.125679
-0.136275
-0.147782
-0.160272
-0.173819
-0.000249684
-0.000772763
-0.00133163
-0.00191202
-0.00251536
-0.00314345
-0.00379777
-0.00447988
-0.00519143
-0.00593414
-0.0067098
-0.00752036
-0.00836796
-0.00925496
-0.0101841
-0.0111583
-0.0121815
-0.0132582
-0.0143941
-0.015596
-0.0168722
-0.0182321
-0.0196863
-0.0212463
-0.0229244
-0.0247333
-0.0266866
-0.0288
-0.0310927
-0.0335901
-0.036556
-0.0400112
-0.0436867
-0.047606
-0.0517928
-0.0562746
-0.0610852
-0.066262
-0.0718425
-0.0778655
-0.0843747
-0.0914189
-0.0990492
-0.107319
-0.116292
-0.126041
-0.136636
-0.148145
-0.160647
-0.174222
-0.000249909
-0.000772863
-0.00133155
-0.00191193
-0.00251548
-0.00314402
-0.00379907
-0.00448226
-0.00519527
-0.00593986
-0.00671789
-0.00753134
-0.00838238
-0.00927337
-0.0102069
-0.0111861
-0.0122145
-0.0132966
-0.014438
-0.0156456
-0.0169274
-0.0182929
-0.0197525
-0.0213179
-0.0230013
-0.0248155
-0.0267739
-0.0288925
-0.0311906
-0.0336937
-0.0366663
-0.0401288
-0.0438115
-0.0477369
-0.0519283
-0.0564133
-0.0612256
-0.0664021
-0.0719798
-0.0779973
-0.0844987
-0.0915333
-0.0991516
-0.107406
-0.116361
-0.12609
-0.136663
-0.148155
-0.160651
-0.17424
-0.000249747
-0.000771749
-0.00132941
-0.00190888
-0.00251167
-0.00313962
-0.00379427
-0.00447729
-0.00519041
-0.00593542
-0.00671424
-0.00752887
-0.00838151
-0.00927449
-0.0102104
-0.0111921
-0.0122232
-0.0133081
-0.0144523
-0.0156625
-0.0169467
-0.0183142
-0.0197756
-0.0213425
-0.023027
-0.0248419
-0.0268007
-0.0289193
-0.0312171
-0.0337197
-0.0366911
-0.0401517
-0.0438315
-0.0477521
-0.0519367
-0.0564127
-0.0612137
-0.0663759
-0.0719357
-0.0779313
-0.0844072
-0.0914131
-0.0989996
-0.107219
-0.116136
-0.125824
-0.136356
-0.14781
-0.160278
-0.173862
-0.000249181
-0.000769408
-0.00132521
-0.00190289
-0.00250396
-0.00313026
-0.00378338
-0.00446499
-0.00517686
-0.00592083
-0.00669885
-0.00751296
-0.00836535
-0.00925833
-0.0101944
-0.0111764
-0.0122078
-0.0132929
-0.0144371
-0.0156469
-0.0169302
-0.0182964
-0.0197559
-0.0213204
-0.0230019
-0.024813
-0.0267673
-0.0288807
-0.0311725
-0.0336682
-0.0366309
-0.0400804
-0.0437474
-0.0476526
-0.0518191
-0.056274
-0.0610507
-0.0661846
-0.0717117
-0.0776695
-0.0841026
-0.091061
-0.0985953
-0.106759
-0.115617
-0.125243
-0.135713
-0.147107
-0.159525
-0.173078
-0.000248205
-0.000765846
-0.00131897
-0.00189397
-0.00249236
-0.00311598
-0.00376643
-0.00444539
-0.00515467
-0.00589615
-0.00667179
-0.00748367
-0.00833399
-0.00922501
-0.0101592
-0.0111392
-0.0121686
-0.0132513
-0.0143927
-0.0155991
-0.0168785
-0.0182399
-0.0196939
-0.0212521
-0.0229263
-0.0247292
-0.0266742
-0.0287772
-0.0310574
-0.0335398
-0.0364863
-0.0399159
-0.0435603
-0.0474396
-0.0515768
-0.0559987
-0.0607383
-0.0658303
-0.07131
-0.0772143
-0.0835879
-0.0904803
-0.0979424
-0.106029
-0.114805
-0.124346
-0.13473
-0.146041
-0.158384
-0.171876
-0.000246828
-0.000761096
-0.00131073
-0.00188217
-0.00247693
-0.00309684
-0.00374348
-0.00441857
-0.00512393
-0.00586146
-0.00663316
-0.00744113
-0.00828755
-0.00917466
-0.0101048
-0.0110807
-0.0121056
-0.0131834
-0.0143193
-0.0155196
-0.0167918
-0.0181451
-0.0195901
-0.0211381
-0.022801
-0.0245912
-0.0265222
-0.0286097
-0.0308725
-0.0333355
-0.0362582
-0.0396591
-0.0432714
-0.0471147
-0.0512118
-0.055589
-0.0602788
-0.0653153
-0.0707331
-0.0765685
-0.082866
-0.0896745
-0.0970447
-0.105032
-0.113703
-0.123134
-0.133405
-0.144607
-0.156846
-0.170245
-0.00024506
-0.000755182
-0.00130053
-0.00186755
-0.00245776
-0.00307293
-0.00371465
-0.00438465
-0.00508476
-0.00581691
-0.00658311
-0.00738549
-0.00822621
-0.00910747
-0.0100316
-0.0110011
-0.0120191
-0.0130896
-0.0142175
-0.0154086
-0.0166707
-0.0180127
-0.0194451
-0.0209791
-0.0226266
-0.0243998
-0.0263123
-0.0283792
-0.0306189
-0.0330564
-0.035948
-0.0393114
-0.0428823
-0.0466797
-0.0507261
-0.0550473
-0.0596747
-0.0646428
-0.069984
-0.0757353
-0.0819403
-0.0886472
-0.0959065
-0.103774
-0.112316
-0.121611
-0.13174
-0.1428
-0.154902
-0.168172
-0.000242916
-0.000748133
-0.00128841
-0.00185018
-0.0024349
-0.00304434
-0.00368004
-0.00434376
-0.00503732
-0.00576266
-0.00652183
-0.00731695
-0.00815017
-0.00902367
-0.00993966
-0.0109006
-0.0119096
-0.0129704
-0.0140875
-0.0152669
-0.0165159
-0.0178434
-0.0192597
-0.0207761
-0.0224041
-0.0241561
-0.0260453
-0.0280868
-0.0302981
-0.032704
-0.0355573
-0.0388746
-0.042395
-0.0461368
-0.0501222
-0.0543762
-0.0589296
-0.0638156
-0.0690663
-0.0747184
-0.0808147
-0.0874025
-0.0945319
-0.102259
-0.11065
-0.119781
-0.12974
-0.140623
-0.152548
-0.165647
-0.00024041
-0.000739976
-0.00127442
-0.00183011
-0.00240846
-0.00301118
-0.0036398
-0.00429605
-0.00498178
-0.00569892
-0.00644953
-0.00723575
-0.00805973
-0.00892356
-0.00982944
-0.0107798
-0.0117775
-0.0128261
-0.0139301
-0.015095
-0.016328
-0.0176379
-0.0190348
-0.0205299
-0.0221346
-0.0238611
-0.0257227
-0.0277337
-0.0299115
-0.03228
-0.035088
-0.0383509
-0.041812
-0.0454884
-0.0494027
-0.053579
-0.0580467
-0.0628379
-0.0679845
-0.0735225
-0.079494
-0.0859451
-0.0929255
-0.100491
-0.108708
-0.117652
-0.127409
-0.138081
-0.149788
-0.162668
-0.000237553
-0.00073074
-0.00125862
-0.00180742
-0.00237853
-0.00297358
-0.00359408
-0.00424173
-0.00491836
-0.00562592
-0.00636649
-0.0071422
-0.00795517
-0.00880749
-0.0097013
-0.0106389
-0.0116232
-0.0126574
-0.0137457
-0.0148935
-0.0161078
-0.0173971
-0.0187715
-0.0202418
-0.0218193
-0.0235163
-0.0253456
-0.0273215
-0.0294606
-0.0317862
-0.0345422
-0.0377427
-0.041136
-0.0447376
-0.0485712
-0.052659
-0.0570298
-0.0617141
-0.0667433
-0.0721529
-0.0779838
-0.084281
-0.0910934
-0.0984768
-0.106497
-0.115228
-0.124756
-0.135182
-0.146628
-0.159238
-0.00023436
-0.000720471
-0.00124106
-0.00178221
-0.00234524
-0.0029317
-0.00354305
-0.00418098
-0.00484729
-0.00554394
-0.00627301
-0.00703662
-0.00783688
-0.00867586
-0.00955566
-0.0104786
-0.0114472
-0.0124648
-0.0135351
-0.0146633
-0.0158561
-0.017122
-0.0184707
-0.0199128
-0.0214595
-0.023123
-0.0249159
-0.0268519
-0.0289471
-0.0312245
-0.033922
-0.0370523
-0.0403692
-0.0438885
-0.0476313
-0.0516203
-0.0558833
-0.0604492
-0.0653483
-0.0706155
-0.0762907
-0.0824173
-0.0890431
-0.096223
-0.104022
-0.112514
-0.121785
-0.131932
-0.143078
-0.155368
-0.000230841
-0.000709202
-0.00122182
-0.00175456
-0.00230869
-0.00288567
-0.0034869
-0.00411402
-0.00476882
-0.00545327
-0.00616941
-0.00691937
-0.00770526
-0.00852912
-0.00939303
-0.0102992
-0.0112502
-0.0122489
-0.013299
-0.0144052
-0.015574
-0.0168136
-0.0181336
-0.0195442
-0.0210567
-0.022683
-0.0244353
-0.0263269
-0.0283734
-0.0305972
-0.0332298
-0.0362828
-0.0395156
-0.0429437
-0.0465868
-0.0504674
-0.054612
-0.0590482
-0.063805
-0.0689166
-0.0744216
-0.0803619
-0.0867835
-0.0937395
-0.101294
-0.109521
-0.118504
-0.12834
-0.139147
-0.15107
-0.000227001
-0.000696957
-0.00120093
-0.00172455
-0.002269
-0.00283564
-0.00342579
-0.00404106
-0.00468323
-0.0053542
-0.00605604
-0.00679086
-0.00756076
-0.00836777
-0.00921396
-0.0101015
-0.0110328
-0.0120106
-0.0130382
-0.0141201
-0.0152624
-0.0164732
-0.0177615
-0.0191375
-0.0206124
-0.0221979
-0.0239057
-0.0257486
-0.0277417
-0.0299068
-0.0324686
-0.0354372
-0.0385786
-0.0419073
-0.0454422
-0.049205
-0.0532214
-0.0575171
-0.06212
-0.067063
-0.0723839
-0.078123
-0.0843239
-0.0910374
-0.0983249
-0.10626
-0.114926
-0.124415
-0.134845
-0.146354
-0.000222847
-0.000683764
-0.00117845
-0.00169226
-0.00222628
-0.00278175
-0.00335991
-0.00396235
-0.00459077
-0.00524707
-0.00593329
-0.00665152
-0.00740386
-0.00819234
-0.00901902
-0.00988605
-0.0107957
-0.0117505
-0.0127535
-0.0138089
-0.0149225
-0.0161018
-0.0173557
-0.0186942
-0.0201282
-0.0216694
-0.0233291
-0.0251193
-0.0270546
-0.029156
-0.0316411
-0.0345187
-0.0375617
-0.0407835
-0.0442021
-0.0478385
-0.0517171
-0.0558623
-0.0603004
-0.0650627
-0.0701859
-0.0757092
-0.0816742
-0.0881281
-0.0951287
-0.102747
-0.111066
-0.120176
-0.130188
-0.141238
-0.000218389
-0.000669655
-0.00115443
-0.00165776
-0.00218061
-0.00272412
-0.00328943
-0.00387808
-0.00449172
-0.0051322
-0.00580154
-0.00650181
-0.00723509
-0.00800343
-0.00880889
-0.00965358
-0.0105397
-0.0114696
-0.012446
-0.0134728
-0.0145554
-0.015701
-0.0169179
-0.0182159
-0.0196059
-0.0210995
-0.0227074
-0.0244412
-0.0263145
-0.0283478
-0.0307506
-0.0335309
-0.036469
-0.0395769
-0.0428716
-0.0463733
-0.0501054
-0.0540908
-0.0583541
-0.0629245
-0.0678372
-0.0731306
-0.0788446
-0.0850233
-0.0917195
-0.0990009
-0.106947
-0.115644
-0.125201
-0.135747
-0.000213632
-0.000654653
-0.00112892
-0.0016211
-0.0021321
-0.00266288
-0.00321453
-0.00378848
-0.00438635
-0.00500993
-0.00566119
-0.00634219
-0.00705499
-0.00780165
-0.00858423
-0.00940485
-0.0102656
-0.0111687
-0.0121165
-0.0131127
-0.0141623
-0.0152719
-0.0164495
-0.0177045
-0.0190476
-0.0204902
-0.022043
-0.0237167
-0.0255243
-0.0274849
-0.0298003
-0.0324775
-0.0353044
-0.0382918
-0.0414558
-0.0448153
-0.0483927
-0.0522098
-0.0562894
-0.0606578
-0.0653484
-0.0703985
-0.0758471
-0.0817354
-0.0881114
-0.0950374
-0.102587
-0.110845
-0.119913
-0.129914
-0.000208581
-0.000638781
-0.00110194
-0.00158236
-0.00208082
-0.00259815
-0.00313535
-0.00369377
-0.00427494
-0.0048806
-0.00551266
-0.00617316
-0.00686415
-0.00758766
-0.0083458
-0.00914068
-0.00997433
-0.0108487
-0.0117661
-0.0127298
-0.0137444
-0.014816
-0.0159521
-0.0171617
-0.0184553
-0.0198439
-0.0213382
-0.0229484
-0.0246866
-0.0265706
-0.0287938
-0.0313622
-0.0340722
-0.0369331
-0.03996
-0.0431704
-0.0465856
-0.0502266
-0.0541144
-0.0582724
-0.0627309
-0.0675258
-0.0726952
-0.0782784
-0.0843192
-0.0908737
-0.0980093
-0.105804
-0.114354
-0.123774
-0.00020325
-0.000622065
-0.00107355
-0.00154159
-0.00202686
-0.00253004
-0.00305204
-0.00359412
-0.00415772
-0.00474451
-0.00535635
-0.00599522
-0.00666313
-0.00736213
-0.00809435
-0.00886191
-0.0096668
-0.0105108
-0.011396
-0.0123253
-0.013303
-0.0143347
-0.0154273
-0.0165894
-0.017831
-0.019163
-0.0205957
-0.0221391
-0.0238045
-0.0256082
-0.0277347
-0.0301891
-0.0327768
-0.0355058
-0.0383898
-0.0414448
-0.0446909
-0.0481487
-0.0518374
-0.0557777
-0.0599963
-0.0645262
-0.0694044
-0.0746688
-0.0803599
-0.086528
-0.0932332
-0.100547
-0.108556
-0.117366
-0.000197645
-0.00060452
-0.00104375
-0.00149881
-0.00197025
-0.00245863
-0.00296473
-0.00348971
-0.00403494
-0.00460199
-0.00519265
-0.00580884
-0.00645253
-0.00712576
-0.00783067
-0.00856943
-0.00934398
-0.010156
-0.0110074
-0.0119007
-0.0128397
-0.0138296
-0.0148767
-0.0159893
-0.0171768
-0.0184497
-0.019818
-0.0212917
-0.0228811
-0.0246012
-0.0266269
-0.0289627
-0.0314231
-0.0340152
-0.0367512
-0.0396452
-0.042716
-0.0459838
-0.0494668
-0.0531832
-0.0571556
-0.0614132
-0.0659909
-0.0709251
-0.0762536
-0.0820216
-0.0882821
-0.095099
-0.10255
-0.110728
-0.000191772
-0.000586158
-0.00101256
-0.00145404
-0.00191105
-0.00238398
-0.00287351
-0.0033807
-0.00390681
-0.00445332
-0.00502194
-0.00561451
-0.00623294
-0.00687924
-0.00755558
-0.00826414
-0.00900689
-0.00978543
-0.0106014
-0.0114571
-0.0123558
-0.0133022
-0.0143022
-0.0153633
-0.0164949
-0.0177065
-0.0190079
-0.020409
-0.0219195
-0.0235529
-0.0254744
-0.0276872
-0.0300159
-0.0324668
-0.0350504
-0.0377788
-0.0406689
-0.0437406
-0.0470115
-0.0504981
-0.0542193
-0.0581996
-0.0624706
-0.0670661
-0.0720219
-0.0773783
-0.0831822
-0.0894894
-0.0963674
-0.103897
-0.000185634
-0.000566988
-0.000979994
-0.00140732
-0.00184929
-0.00230617
-0.0027785
-0.00326724
-0.00377355
-0.0042988
-0.00484461
-0.00541271
-0.00600495
-0.00662329
-0.00726991
-0.00794701
-0.00865658
-0.00940016
-0.0101792
-0.0109959
-0.011853
-0.0127544
-0.0137056
-0.0147137
-0.0157875
-0.0169358
-0.018168
-0.019494
-0.0209229
-0.0224667
-0.0242807
-0.0263668
-0.02856
-0.0308658
-0.0332935
-0.0358524
-0.0385577
-0.0414281
-0.0444811
-0.0477324
-0.0511977
-0.0548972
-0.0588578
-0.0631099
-0.0676864
-0.0726233
-0.0779618
-0.0837499
-0.0900455
-0.0969175
-0.000179232
-0.000547019
-0.000946072
-0.00135867
-0.00178502
-0.00222524
-0.00267977
-0.00314946
-0.00363534
-0.00413869
-0.004661
-0.00520391
-0.00576915
-0.00635864
-0.00697452
-0.00761903
-0.00829416
-0.00900142
-0.00974225
-0.0105185
-0.0113326
-0.0121878
-0.0130888
-0.0140424
-0.0150568
-0.0161402
-0.0173014
-0.01855
-0.0198947
-0.0213464
-0.0230499
-0.025006
-0.02706
-0.0292174
-0.0314861
-0.033873
-0.0363906
-0.0390559
-0.0418862
-0.044897
-0.048102
-0.0515176
-0.0551658
-0.0590726
-0.0632671
-0.0677809
-0.0726496
-0.0779141
-0.0836227
-0.0898327
-0.000172567
-0.000526255
-0.000910799
-0.0013081
-0.00171827
-0.00214126
-0.00257742
-0.00302749
-0.00349238
-0.00397324
-0.00447146
-0.00498854
-0.00552611
-0.00608597
-0.00667026
-0.0072812
-0.0079208
-0.00859053
-0.00929178
-0.0100263
-0.0107961
-0.0116039
-0.0124537
-0.0133516
-0.0143053
-0.0153224
-0.016411
-0.0175803
-0.0188386
-0.0201959
-0.0217864
-0.0236093
-0.0255212
-0.0275271
-0.0296343
-0.0318471
-0.0341753
-0.0366333
-0.0392376
-0.0420038
-0.0449446
-0.0480734
-0.0514081
-0.0549697
-0.0587826
-0.0628737
-0.0672731
-0.0720148
-0.0771379
-0.0826885
-0.000165641
-0.000504706
-0.000874191
-0.00125564
-0.00164907
-0.00205429
-0.00247154
-0.00290146
-0.00334483
-0.00380271
-0.00427632
-0.00476705
-0.00527636
-0.00580597
-0.00635794
-0.00693452
-0.00753766
-0.00816883
-0.00882934
-0.00952083
-0.0102452
-0.0110045
-0.011802
-0.0126432
-0.0135352
-0.0144848
-0.0154996
-0.0165882
-0.0177583
-0.0190192
-0.0204943
-0.0221816
-0.0239485
-0.0258004
-0.0277437
-0.029781
-0.0319191
-0.0341693
-0.0365463
-0.0390654
-0.0417391
-0.044579
-0.0475993
-0.0508167
-0.0542508
-0.057923
-0.0618578
-0.0660827
-0.070628
-0.0755288
-0.000158459
-0.000482393
-0.000836277
-0.00120134
-0.00157748
-0.00196441
-0.00236224
-0.00277151
-0.00319291
-0.00362734
-0.00407592
-0.00453984
-0.00502043
-0.00551928
-0.00603837
-0.00657992
-0.00714588
-0.00773766
-0.00835646
-0.00900385
-0.0096816
-0.0103914
-0.0111357
-0.0119194
-0.0127487
-0.0136299
-0.0145698
-0.0155767
-0.0166573
-0.0178203
-0.0191784
-0.020728
-0.0223477
-0.024043
-0.0258202
-0.0276808
-0.0296288
-0.0316719
-0.0338222
-0.0360941
-0.0384995
-0.0410495
-0.0437556
-0.0466307
-0.0496897
-0.0529492
-0.0564277
-0.0601462
-0.064127
-0.0683947
-0.000151033
-0.000459343
-0.000797097
-0.00114524
-0.00150358
-0.00187169
-0.00224961
-0.00263779
-0.00303679
-0.00344739
-0.00387056
-0.00430734
-0.00475886
-0.00522656
-0.00571231
-0.00621833
-0.00674653
-0.00729827
-0.00787463
-0.00847705
-0.00910718
-0.00976645
-0.0104568
-0.0111822
-0.0119481
-0.0127601
-0.0136245
-0.0145488
-0.0155391
-0.0166031
-0.017843
-0.0192535
-0.0207243
-0.0222609
-0.0238701
-0.0255527
-0.0273106
-0.029148
-0.0310739
-0.0331005
-0.0352392
-0.0375003
-0.0398937
-0.0424295
-0.0451187
-0.0479732
-0.0510062
-0.0542323
-0.0576664
-0.0613236
-0.000143373
-0.000435587
-0.000756698
-0.00108741
-0.00142743
-0.00177625
-0.00213381
-0.00250047
-0.00287669
-0.00326312
-0.00366059
-0.00406995
-0.00449216
-0.00492845
-0.00538057
-0.00585066
-0.00634066
-0.00685187
-0.00738524
-0.00794204
-0.00852379
-0.00913174
-0.00976741
-0.0104339
-0.0111358
-0.011878
-0.0126664
-0.0135076
-0.0144069
-0.0153714
-0.0164924
-0.017763
-0.019084
-0.0204606
-0.0219
-0.0234033
-0.0249709
-0.0266042
-0.0283087
-0.030094
-0.0319697
-0.0339455
-0.0360299
-0.0382312
-0.0405574
-0.0430164
-0.0456167
-0.0483671
-0.051276
-0.0543503
-0.000135487
-0.000411158
-0.000715139
-0.00102793
-0.00134917
-0.00167823
-0.002015
-0.00235976
-0.00271285
-0.00307482
-0.00344633
-0.00382809
-0.00422084
-0.0046256
-0.00504394
-0.00547787
-0.00592935
-0.00639966
-0.00688965
-0.00740039
-0.00793322
-0.00848923
-0.00906959
-0.0096767
-0.0103142
-0.0109864
-0.0116984
-0.0124561
-0.0132643
-0.014129
-0.0151309
-0.0162616
-0.0174326
-0.0186486
-0.0199171
-0.0212397
-0.0226167
-0.0240471
-0.0255335
-0.0270821
-0.0287006
-0.0303971
-0.0321789
-0.0340528
-0.036025
-0.0381
-0.0402825
-0.0425765
-0.0449847
-0.0475074
-0.000127381
-0.0003861
-0.000672502
-0.00096692
-0.00126893
-0.00157781
-0.0018934
-0.00221589
-0.00254556
-0.0028828
-0.00322815
-0.00358215
-0.00394538
-0.00431862
-0.00470318
-0.00510091
-0.00551371
-0.00594288
-0.00638922
-0.00685364
-0.00733722
-0.00784086
-0.00836549
-0.00891288
-0.0094858
-0.0100877
-0.0107232
-0.0113974
-0.0121144
-0.0128795
-0.0137625
-0.014754
-0.0157757
-0.0168314
-0.0179286
-0.01907
-0.0202558
-0.0214841
-0.0227552
-0.0240722
-0.02544
-0.026865
-0.0283529
-0.0299092
-0.0315386
-0.0332435
-0.0350254
-0.0368847
-0.0388196
-0.040825
-0.00011907
-0.000360484
-0.0006289
-0.000904536
-0.0011869
-0.00147521
-0.00176925
-0.00206917
-0.00237514
-0.00268742
-0.00300643
-0.00333258
-0.00366627
-0.00400807
-0.004359
-0.00472068
-0.00509484
-0.0054828
-0.00588538
-0.00630334
-0.00673754
-0.00718862
-0.00765724
-0.00814469
-0.00865291
-0.00918457
-0.00974357
-0.0103345
-0.0109604
-0.0116263
-0.0123911
-0.0132445
-0.0141185
-0.0150152
-0.0159421
-0.0169024
-0.0178969
-0.0189238
-0.0199817
-0.0210715
-0.0221955
-0.0233576
-0.0245619
-0.0258125
-0.0271127
-0.0284636
-0.0298646
-0.0313133
-0.0328046
-0.0343297
-0.000110597
-0.000334406
-0.000584472
-0.000840953
-0.0011033
-0.00137067
-0.00164286
-0.00191994
-0.00220198
-0.00248913
-0.00278165
-0.00307985
-0.00338402
-0.00369451
-0.00401207
-0.00433799
-0.00467377
-0.00502066
-0.00537953
-0.00575108
-0.00613593
-0.00653445
-0.00694702
-0.00737446
-0.00781803
-0.00827958
-0.00876234
-0.00927015
-0.00980559
-0.0103727
-0.0110203
-0.0117372
-0.0124654
-0.0132056
-0.0139643
-0.0147449
-0.0155491
-0.0163753
-0.0172221
-0.0180887
-0.018975
-0.0198829
-0.0208145
-0.0217723
-0.0227586
-0.0237736
-0.0248154
-0.0258797
-0.0269595
-0.0280433
-0.000102036
-0.000307992
-0.00053938
-0.000776374
-0.00101837
-0.00126451
-0.00151456
-0.00176857
-0.00202651
-0.00228838
-0.00255433
-0.00282455
-0.00309922
-0.00337855
-0.00366304
-0.00395359
-0.00425141
-0.00455759
-0.004873
-0.00519835
-0.0055341
-0.00588031
-0.00623699
-0.00660457
-0.00698369
-0.00737547
-0.00778236
-0.00820755
-0.00865294
-0.00912198
-0.0096535
-0.0102355
-0.0108205
-0.0114074
-0.0120012
-0.0126049
-0.0132208
-0.0138484
-0.0144863
-0.0151331
-0.0157875
-0.0164492
-0.0171188
-0.0177973
-0.0184859
-0.0191843
-0.0198898
-0.0205975
-0.0212995
-0.0219825
-9.34826e-05
-0.000281373
-0.000493796
-0.000711019
-0.000932391
-0.00115704
-0.00138474
-0.00161549
-0.00184919
-0.00208571
-0.00232505
-0.0025673
-0.00281256
-0.00306092
-0.00331262
-0.00356826
-0.00382864
-0.00409465
-0.00436707
-0.00464662
-0.00493368
-0.005228
-0.00552924
-0.00583737
-0.00615249
-0.00647502
-0.00680664
-0.00714979
-0.00750581
-0.00787756
-0.00829403
-0.00874303
-0.00918748
-0.0096245
-0.0100575
-0.0104886
-0.01092
-0.0113521
-0.0117842
-0.0122151
-0.0126429
-0.0130661
-0.0134838
-0.0138961
-0.0143031
-0.0147044
-0.0150973
-0.0154767
-0.0158351
-0.016159
-8.50057e-05
-0.000254659
-0.000447884
-0.000645119
-0.000845667
-0.00104863
-0.0012538
-0.00146116
-0.00167053
-0.00188166
-0.00209443
-0.00230881
-0.00252481
-0.0027424
-0.00296164
-0.00318281
-0.00340635
-0.00363284
-0.0038629
-0.00409726
-0.00433619
-0.00457925
-0.0048257
-0.00507504
-0.00532689
-0.00558098
-0.00583818
-0.00610016
-0.00636763
-0.00664297
-0.0069455
-0.00726321
-0.00756967
-0.00786051
-0.00813736
-0.00840094
-0.00865304
-0.00889434
-0.00912523
-0.0093449
-0.00955171
-0.00974364
-0.00991917
-0.0100777
-0.0102189
-0.0103423
-0.0104459
-0.0105253
-0.010574
-0.0105801
-7.66205e-05
-0.000227911
-0.00040178
-0.000578898
-0.000758506
-0.000939683
-0.00112222
-0.0013061
-0.00149107
-0.00167682
-0.00186309
-0.00204976
-0.00223673
-0.00242385
-0.00261099
-0.00279815
-0.00298548
-0.0031732
-0.0033617
-0.0035516
-0.00374312
-0.00393567
-0.00412815
-0.00431962
-0.00450919
-0.00469594
-0.00487989
-0.00506188
-0.00524193
-0.00542193
-0.00561177
-0.00579987
-0.00597072
-0.00611881
-0.00624414
-0.00634585
-0.00642478
-0.00648159
-0.00651726
-0.00653175
-0.00652404
-0.00649236
-0.00643517
-0.00635183
-0.0062423
-0.00610633
-0.00594321
-0.0057499
-0.00552209
-0.0052506
-6.82878e-05
-0.000201155
-0.0003556
-0.000512568
-0.000671222
-0.000830599
-0.000990483
-0.00115085
-0.00131142
-0.00147181
-0.00163171
-0.00179089
-0.00194914
-0.00210614
-0.00226159
-0.00241527
-0.00256703
-0.00271679
-0.00286465
-0.003011
-0.00315597
-0.00329887
-0.00343834
-0.003573
-0.0037015
-0.00382229
-0.00393449
-0.00403801
-0.00413216
-0.0042182
-0.00429683
-0.00435711
-0.00439457
-0.00440304
-0.0043812
-0.00432665
-0.00423905
-0.00411859
-0.00396641
-0.00378314
-0.00356858
-0.0033217
-0.0030416
-0.00272823
-0.00238244
-0.00200502
-0.0015966
-0.00115674
-0.000683889
-0.000173146
-5.99506e-05
-0.000174406
-0.000309457
-0.000446341