/*--------------------------------*- C++ -*----------------------------------*\
  =========                 |
  \\      /  F ield         | OpenFOAM: The Open Source CFD Toolbox
   \\    /   O peration     | Website:  https://openfoam.org
    \\  /    A nd           | Version:  9
     \\/     M anipulation  |
\*---------------------------------------------------------------------------*/
FoamFile
{
    format      ascii;
    class       surfaceScalarField;
    location    "0.03";
    object      phi;
}
// * * * * * * * * * * * * * * * * * * * * * * * * * * * * * * * * * * * * * //

dimensions      [0 3 -1 0 0 0 0];

internalField   nonuniform List<scalar> 
9850
(
-3.19589e-07
1.46554e-06
-3.19626e-07
1.53643e-06
-3.19678e-07
1.61081e-06
-3.19748e-07
1.6889e-06
-3.19837e-07
1.77087e-06
-3.19949e-07
1.8569e-06
-3.20088e-07
1.94717e-06
-3.20259e-07
2.04186e-06
-3.20469e-07
2.14118e-06
-3.20723e-07
2.24533e-06
-3.21029e-07
2.35454e-06
-3.21393e-07
2.46903e-06
-3.21825e-07
2.58906e-06
-3.22334e-07
2.71488e-06
-3.2293e-07
2.84677e-06
-3.23624e-07
2.98501e-06
-3.24431e-07
3.12992e-06
-3.25365e-07
3.28181e-06
-3.26443e-07
3.44102e-06
-3.27685e-07
3.6079e-06
-3.29113e-07
3.78283e-06
-3.30754e-07
3.96619e-06
-3.32635e-07
4.15842e-06
-3.34792e-07
4.35994e-06
-3.37262e-07
4.57122e-06
-3.4009e-07
4.79275e-06
-3.43329e-07
5.02508e-06
-3.47042e-07
5.26877e-06
-3.51301e-07
5.52443e-06
-3.56193e-07
5.79273e-06
-3.62809e-07
7.0867e-06
-3.70167e-07
7.08489e-06
-3.78326e-07
7.08407e-06
-3.87351e-07
7.08433e-06
-3.97316e-07
7.08577e-06
-4.08299e-07
7.08854e-06
-4.20389e-07
7.09275e-06
-4.33687e-07
7.09858e-06
-4.48301e-07
7.10619e-06
-4.6435e-07
7.11577e-06
-4.81961e-07
7.12753e-06
-5.01271e-07
7.14171e-06
-5.22433e-07
7.15858e-06
-5.4561e-07
7.17844e-06
-5.70969e-07
7.20162e-06
-5.98682e-07
7.22853e-06
-6.2893e-07
7.25962e-06
-6.61878e-07
7.29541e-06
-6.97646e-07
7.33657e-06
7.38398e-06
-3.17109e-07
1.46557e-06
-3.17146e-07
1.53646e-06
-3.17199e-07
1.61087e-06
-3.17268e-07
1.68897e-06
-3.17356e-07
1.77096e-06
-3.17465e-07
1.85701e-06
-3.17599e-07
1.9473e-06
-3.17763e-07
2.04203e-06
-3.17963e-07
2.14138e-06
-3.18204e-07
2.24558e-06
-3.18494e-07
2.35483e-06
-3.18839e-07
2.46938e-06
-3.19247e-07
2.58947e-06
-3.19728e-07
2.71536e-06
-3.2029e-07
2.84733e-06
-3.20946e-07
2.98567e-06
-3.21708e-07
3.13068e-06
-3.2259e-07
3.28269e-06
-3.23608e-07
3.44204e-06
-3.24781e-07
3.60907e-06
-3.2613e-07
3.78418e-06
-3.2768e-07
3.96774e-06
-3.29457e-07
4.16019e-06
-3.31495e-07
4.36197e-06
-3.3383e-07
4.57355e-06
-3.36505e-07
4.79543e-06
-3.3957e-07
5.02815e-06
-3.43084e-07
5.27228e-06
-3.47117e-07
5.52846e-06
-3.5175e-07
5.79737e-06
-3.58018e-07
7.09297e-06
-3.64991e-07
7.09186e-06
-3.72725e-07
7.0918e-06
-3.81285e-07
7.09289e-06
-3.90737e-07
7.09523e-06
-4.0116e-07
7.09896e-06
-4.12637e-07
7.10423e-06
-4.25262e-07
7.1112e-06
-4.39137e-07
7.12006e-06
-4.54371e-07
7.131e-06
-4.71083e-07
7.14424e-06
-4.89403e-07
7.16003e-06
-5.09467e-07
7.17865e-06
-5.31421e-07
7.20039e-06
-5.55412e-07
7.22561e-06
-5.81581e-07
7.2547e-06
-6.10072e-07
7.28811e-06
-6.41022e-07
7.32636e-06
-6.74464e-07
7.37001e-06
7.42004e-06
-3.14563e-07
1.46559e-06
-3.14601e-07
1.5365e-06
-3.14654e-07
1.61092e-06
-3.14722e-07
1.68904e-06
-3.14808e-07
1.77104e-06
-3.14913e-07
1.85711e-06
-3.15041e-07
1.94743e-06
-3.15197e-07
2.04218e-06
-3.15386e-07
2.14157e-06
-3.15613e-07
2.2458e-06
-3.15885e-07
2.3551e-06
-3.16209e-07
2.4697e-06
-3.16592e-07
2.58985e-06
-3.17042e-07
2.71581e-06
-3.1757e-07
2.84786e-06
-3.18184e-07
2.98628e-06
-3.18898e-07
3.1314e-06
-3.19725e-07
3.28352e-06
-3.20679e-07
3.44299e-06
-3.21779e-07
3.61017e-06
-3.23044e-07
3.78544e-06
-3.24497e-07
3.9692e-06
-3.26165e-07
4.16186e-06
-3.28077e-07
4.36388e-06
-3.30268e-07
4.57574e-06
-3.32779e-07
4.79794e-06
-3.35658e-07
5.03103e-06
-3.3896e-07
5.27558e-06
-3.42751e-07
5.53225e-06
-3.47109e-07
5.80173e-06
-3.53008e-07
7.09887e-06
-3.59573e-07
7.09843e-06
-3.66856e-07
7.09909e-06
-3.74918e-07
7.10095e-06
-3.83822e-07
7.10413e-06
-3.93643e-07
7.10878e-06
-4.04463e-07
7.11505e-06
-4.16368e-07
7.12311e-06
-4.29455e-07
7.13315e-06
-4.43822e-07
7.14537e-06
-4.59579e-07
7.16e-06
-4.76845e-07
7.1773e-06
-4.95744e-07
7.19755e-06
-5.16408e-07
7.22106e-06
-5.3896e-07
7.24817e-06
-5.63521e-07
7.27926e-06
-5.90196e-07
7.31478e-06
-6.19092e-07
7.35525e-06
-6.50236e-07
7.40116e-06
7.45333e-06
-3.1197e-07
1.46561e-06
-3.12008e-07
1.53654e-06
-3.1206e-07
1.61097e-06
-3.12126e-07
1.68911e-06
-3.12208e-07
1.77113e-06
-3.12308e-07
1.85721e-06
-3.12428e-07
1.94755e-06
-3.12574e-07
2.04233e-06
-3.1275e-07
2.14175e-06
-3.12962e-07
2.24601e-06
-3.13214e-07
2.35535e-06
-3.13515e-07
2.47e-06
-3.1387e-07
2.59021e-06
-3.14289e-07
2.71623e-06
-3.14778e-07
2.84835e-06
-3.15349e-07
2.98685e-06
-3.16012e-07
3.13206e-06
-3.1678e-07
3.28429e-06
-3.17666e-07
3.44388e-06
-3.18689e-07
3.61119e-06
-3.19865e-07
3.78662e-06
-3.21217e-07
3.97055e-06
-3.22768e-07
4.16341e-06
-3.24548e-07
4.36566e-06
-3.26588e-07
4.57778e-06
-3.28927e-07
4.80028e-06
-3.3161e-07
5.03371e-06
-3.34688e-07
5.27866e-06
-3.38224e-07
5.53579e-06
-3.4229e-07
5.80579e-06
-3.47795e-07
7.10437e-06
-3.53925e-07
7.10456e-06
-3.6073e-07
7.10589e-06
-3.68264e-07
7.10848e-06
-3.76591e-07
7.11246e-06
-3.85778e-07
7.11797e-06
-3.95901e-07
7.12517e-06
-4.07042e-07
7.13425e-06
-4.19289e-07
7.14539e-06
-4.32735e-07
7.15882e-06
-4.47482e-07
7.17475e-06
-4.6364e-07
7.19345e-06
-4.81319e-07
7.21523e-06
-5.00632e-07
7.24037e-06
-5.21689e-07
7.26922e-06
-5.44592e-07
7.30216e-06
-5.69424e-07
7.33961e-06
-5.96243e-07
7.38207e-06
-6.25069e-07
7.42998e-06
7.48396e-06
-3.09342e-07
1.46563e-06
-3.09378e-07
1.53658e-06
-3.09427e-07
1.61102e-06
-3.0949e-07
1.68917e-06
-3.09567e-07
1.7712e-06
-3.09659e-07
1.85731e-06
-3.09771e-07
1.94766e-06
-3.09905e-07
2.04246e-06
-3.10066e-07
2.14191e-06
-3.1026e-07
2.24621e-06
-3.10492e-07
2.35559e-06
-3.10768e-07
2.47028e-06
-3.11094e-07
2.59053e-06
-3.11478e-07
2.71661e-06
-3.11927e-07
2.8488e-06
-3.12451e-07
2.98738e-06
-3.13061e-07
3.13267e-06
-3.13767e-07
3.28499e-06
-3.14582e-07
3.44469e-06
-3.15523e-07
3.61214e-06
-3.16606e-07
3.7877e-06
-3.17851e-07
3.97179e-06
-3.19281e-07
4.16484e-06
-3.20921e-07
4.3673e-06
-3.22803e-07
4.57966e-06
-3.24962e-07
4.80244e-06
-3.27438e-07
5.03618e-06
-3.30281e-07
5.28151e-06
-3.33548e-07
5.53905e-06
-3.37306e-07
5.80955e-06
-3.42398e-07
7.10946e-06
-3.48071e-07
7.11023e-06
-3.54371e-07
7.11219e-06
-3.61351e-07
7.11546e-06
-3.69068e-07
7.12018e-06
-3.77587e-07
7.12649e-06
-3.86976e-07
7.13456e-06
-3.97311e-07
7.14459e-06
-4.08675e-07
7.15676e-06
-4.21153e-07
7.17129e-06
-4.34842e-07
7.18844e-06
-4.49838e-07
7.20845e-06
-4.66241e-07
7.23163e-06
-4.84151e-07
7.25828e-06
-5.03664e-07
7.28874e-06
-5.2487e-07
7.32337e-06
-5.47835e-07
7.36258e-06
-5.72582e-07
7.40682e-06
-5.99117e-07
7.45652e-06
7.51211e-06
-3.06682e-07
1.46565e-06
-3.06716e-07
1.53661e-06
-3.06762e-07
1.61107e-06
-3.0682e-07
1.68923e-06
-3.06891e-07
1.77127e-06
-3.06975e-07
1.85739e-06
-3.07076e-07
1.94776e-06
-3.07197e-07
2.04259e-06
-3.07343e-07
2.14205e-06
-3.07518e-07
2.24638e-06
-3.07728e-07
2.3558e-06
-3.07977e-07
2.47053e-06
-3.08272e-07
2.59083e-06
-3.0862e-07
2.71696e-06
-3.09027e-07
2.8492e-06
-3.09503e-07
2.98785e-06
-3.10056e-07
3.13322e-06
-3.10697e-07
3.28563e-06
-3.11438e-07
3.44544e-06
-3.12294e-07
3.61299e-06
-3.1328e-07
3.78869e-06
-3.14413e-07
3.97293e-06
-3.15715e-07
4.16614e-06
-3.17211e-07
4.3688e-06
-3.18927e-07
4.58138e-06
-3.20896e-07
4.80441e-06
-3.23158e-07
5.03845e-06
-3.25755e-07
5.2841e-06
-3.28741e-07
5.54204e-06
-3.32178e-07
5.81299e-06
-3.36837e-07
7.11412e-06
-3.4203e-07
7.11543e-06
-3.47802e-07
7.11796e-06
-3.54201e-07
7.12186e-06
-3.61279e-07
7.12726e-06
-3.69097e-07
7.1343e-06
-3.77718e-07
7.14318e-06
-3.8721e-07
7.15408e-06
-3.97651e-07
7.1672e-06
-4.09119e-07
7.18276e-06
-4.21701e-07
7.20102e-06
-4.35487e-07
7.22224e-06
-4.50567e-07
7.24671e-06
-4.67028e-07
7.27474e-06
-4.84958e-07
7.30667e-06
-5.04432e-07
7.34284e-06
-5.25508e-07
7.38366e-06
-5.48199e-07
7.42951e-06
-5.72496e-07
7.48081e-06
7.53788e-06
-3.03992e-07
1.46567e-06
-3.04024e-07
1.53664e-06
-3.04067e-07
1.61111e-06
-3.04121e-07
1.68928e-06
-3.04185e-07
1.77134e-06
-3.04261e-07
1.85747e-06
-3.04351e-07
1.94785e-06
-3.04459e-07
2.04269e-06
-3.04589e-07
2.14218e-06
-3.04744e-07
2.24654e-06
-3.04931e-07
2.35598e-06
-3.05153e-07
2.47075e-06
-3.05415e-07
2.59109e-06
-3.05725e-07
2.71727e-06
-3.06089e-07
2.84957e-06
-3.06514e-07
2.98828e-06
-3.07009e-07
3.13372e-06
-3.07583e-07
3.28621e-06
-3.08247e-07
3.4461e-06
-3.09014e-07
3.61376e-06
-3.09898e-07
3.78957e-06
-3.10916e-07
3.97394e-06
-3.12086e-07
4.16732e-06
-3.1343e-07
4.37014e-06
-3.14974e-07
4.58292e-06
-3.16747e-07
4.80618e-06
-3.18784e-07
5.04048e-06
-3.21125e-07
5.28644e-06
-3.23818e-07
5.54473e-06
-3.26921e-07
5.81609e-06
-3.31129e-07
7.11833e-06
-3.35825e-07
7.12012e-06
-3.41046e-07
7.12319e-06
-3.46839e-07
7.12765e-06
-3.53252e-07
7.13367e-06
-3.60338e-07
7.14139e-06
-3.68158e-07
7.151e-06
-3.76773e-07
7.16269e-06
-3.86253e-07
7.17668e-06
-3.96671e-07
7.19318e-06
-4.08106e-07
7.21245e-06
-4.20639e-07
7.23477e-06
-4.34352e-07
7.26042e-06
-4.49324e-07
7.28971e-06
-4.65634e-07
7.32298e-06
-4.8335e-07
7.36056e-06
-5.02524e-07
7.40283e-06
-5.23172e-07
7.45016e-06
-5.45277e-07
7.50292e-06
7.56136e-06
-3.01278e-07
1.46569e-06
-3.01308e-07
1.53667e-06
-3.01349e-07
1.61115e-06
-3.01399e-07
1.68933e-06
-3.01457e-07
1.77139e-06
-3.01525e-07
1.85753e-06
-3.01605e-07
1.94793e-06
-3.017e-07
2.04279e-06
-3.01814e-07
2.1423e-06
-3.0195e-07
2.24668e-06
-3.02112e-07
2.35614e-06
-3.02306e-07
2.47094e-06
-3.02535e-07
2.59132e-06
-3.02807e-07
2.71754e-06
-3.03125e-07
2.84989e-06
-3.03498e-07
2.98865e-06
-3.03932e-07
3.13415e-06
-3.04436e-07
3.28671e-06
-3.05021e-07
3.44668e-06
-3.05696e-07
3.61443e-06
-3.06475e-07
3.79035e-06
-3.07373e-07
3.97484e-06
-3.08406e-07
4.16835e-06
-3.09594e-07
4.37133e-06
-3.1096e-07
4.58429e-06
-3.1253e-07
4.80775e-06
-3.14334e-07
5.04229e-06
-3.1641e-07
5.28852e-06
-3.188e-07
5.54712e-06
-3.21555e-07
5.81885e-06
-3.25297e-07
7.12207e-06
-3.29476e-07
7.1243e-06
-3.34127e-07
7.12784e-06
-3.39291e-07
7.13282e-06
-3.45013e-07
7.13939e-06
-3.51342e-07
7.14772e-06
-3.5833e-07
7.15799e-06
-3.66036e-07
7.1704e-06
-3.74521e-07
7.18516e-06
-3.83852e-07
7.20251e-06
-3.94102e-07
7.2227e-06
-4.05343e-07
7.24601e-06
-4.17649e-07
7.27273e-06
-4.31095e-07
7.30316e-06
-4.45752e-07
7.33763e-06
-4.61685e-07
7.37649e-06
-4.78945e-07
7.42009e-06
-4.97555e-07
7.46877e-06
-5.1751e-07
7.52287e-06
7.58261e-06
-2.98554e-07
1.46571e-06
-2.98583e-07
1.5367e-06
-2.98621e-07
1.61119e-06
-2.98667e-07
1.68938e-06
-2.9872e-07
1.77145e-06
-2.98781e-07
1.85759e-06
-2.98851e-07
1.948e-06
-2.98933e-07
2.04287e-06
-2.9903e-07
2.1424e-06
-2.99146e-07
2.24679e-06
-2.99285e-07
2.35628e-06
-2.99449e-07
2.47111e-06
-2.99645e-07
2.59151e-06
-2.99876e-07
2.71777e-06
-3.00148e-07
2.85016e-06
-3.00466e-07
2.98897e-06
-3.00838e-07
3.13452e-06
-3.01271e-07
3.28715e-06
-3.01773e-07
3.44719e-06
-3.02354e-07
3.61502e-06
-3.03025e-07
3.79102e-06
-3.03799e-07
3.97562e-06
-3.04691e-07
4.16924e-06
-3.05718e-07
4.37236e-06
-3.069e-07
4.58547e-06
-3.0826e-07
4.80911e-06
-3.09825e-07
5.04385e-06
-3.11627e-07
5.29032e-06
-3.13704e-07
5.5492e-06
-3.16102e-07
5.82124e-06
-3.19362e-07
7.12533e-06
-3.23007e-07
7.12794e-06
-3.27069e-07
7.1319e-06
-3.31584e-07
7.13733e-06
-3.36593e-07
7.1444e-06
-3.42138e-07
7.15327e-06
-3.48269e-07
7.16412e-06
-3.55035e-07
7.17717e-06
-3.62494e-07
7.19262e-06
-3.70706e-07
7.21072e-06
-3.79735e-07
7.23173e-06
-3.89647e-07
7.25592e-06
-4.00511e-07
7.28359e-06
-4.12394e-07
7.31504e-06
-4.25367e-07
7.35061e-06
-4.39491e-07
7.39062e-06
-4.5482e-07
7.43542e-06
-4.71392e-07
7.48534e-06
-4.8922e-07
7.5407e-06
7.6017e-06
-2.95838e-07
1.46572e-06
-2.95866e-07
1.53673e-06
-2.95901e-07
1.61123e-06
-2.95943e-07
1.68942e-06
-2.95991e-07
1.7715e-06
-2.96044e-07
1.85765e-06
-2.96104e-07
1.94806e-06
-2.96172e-07
2.04294e-06
-2.96253e-07
2.14248e-06
-2.96348e-07
2.24689e-06
-2.96461e-07
2.3564e-06
-2.96596e-07
2.47124e-06
-2.96756e-07
2.59167e-06
-2.96946e-07
2.71796e-06
-2.9717e-07
2.85038e-06
-2.97433e-07
2.98923e-06
-2.97741e-07
3.13483e-06
-2.981e-07
3.2875e-06
-2.98517e-07
3.4476e-06
-2.99001e-07
3.6155e-06
-2.99562e-07
3.79158e-06
-3.00209e-07
3.97626e-06
-3.00956e-07
4.16999e-06
-3.01818e-07
4.37322e-06
-3.02811e-07
4.58646e-06
-3.03955e-07
4.81025e-06
-3.05274e-07
5.04517e-06
-3.06795e-07
5.29184e-06
-3.08551e-07
5.55096e-06
-3.10581e-07
5.82327e-06
-3.13345e-07
7.1281e-06
-3.16442e-07
7.13104e-06
-3.19898e-07
7.13535e-06
-3.23746e-07
7.14118e-06
-3.28021e-07
7.14867e-06
-3.32761e-07
7.15801e-06
-3.38008e-07
7.16937e-06
-3.43809e-07
7.18297e-06
-3.50213e-07
7.19903e-06
-3.57275e-07
7.21778e-06
-3.65051e-07
7.23951e-06
-3.73601e-07
7.26447e-06
-3.82988e-07
7.29298e-06
-3.93276e-07
7.32533e-06
-4.04532e-07
7.36186e-06
-4.16818e-07
7.4029e-06
-4.30195e-07
7.4488e-06
-4.44716e-07
7.49986e-06
-4.60421e-07
7.55641e-06
7.61864e-06
-2.93152e-07
1.46574e-06
-2.93177e-07
1.53675e-06
-2.93208e-07
1.61126e-06
-2.93245e-07
1.68945e-06
-2.93285e-07
1.77154e-06
-2.93329e-07
1.85769e-06
-2.93378e-07
1.94811e-06
-2.93432e-07
2.04299e-06
-2.93495e-07
2.14254e-06
-2.93568e-07
2.24696e-06
-2.93656e-07
2.35648e-06
-2.9376e-07
2.47135e-06
-2.93884e-07
2.5918e-06
-2.94031e-07
2.71811e-06
-2.94206e-07
2.85056e-06
-2.94412e-07
2.98944e-06
-2.94654e-07
3.13507e-06
-2.94937e-07
3.28779e-06
-2.95268e-07
3.44794e-06
-2.95653e-07
3.61588e-06
-2.961e-07
3.79203e-06
-2.96617e-07
3.97678e-06
-2.97216e-07
4.17059e-06
-2.97909e-07
4.37391e-06
-2.98709e-07
4.58726e-06
-2.99632e-07
4.81118e-06
-3.007e-07
5.04624e-06
-3.01933e-07
5.29308e-06
-3.0336e-07
5.55238e-06
-3.05013e-07
5.82493e-06
-3.07271e-07
7.13036e-06
-3.09805e-07
7.13358e-06
-3.12641e-07
7.13819e-06
-3.15805e-07
7.14434e-06
-3.19327e-07
7.1522e-06
-3.23242e-07
7.16192e-06
-3.27585e-07
7.17371e-06
-3.32397e-07
7.18778e-06
-3.3772e-07
7.20435e-06
-3.43603e-07
7.22367e-06
-3.50097e-07
7.246e-06
-3.57254e-07
7.27163e-06
-3.65133e-07
7.30086e-06
-3.73793e-07
7.33399e-06
-3.83298e-07
7.37137e-06
-3.93715e-07
7.41332e-06
-4.0511e-07
7.46019e-06
-4.17554e-07
7.5123e-06
-4.31115e-07
7.56997e-06
7.63341e-06
-2.9051e-07
1.46575e-06
-2.9053e-07
1.53677e-06
-2.90557e-07
1.61128e-06
-2.90586e-07
1.68948e-06
-2.90618e-07
1.77157e-06
-2.90652e-07
1.85772e-06
-2.90687e-07
1.94815e-06
-2.90726e-07
2.04303e-06
-2.90769e-07
2.14258e-06
-2.9082e-07
2.24701e-06
-2.90881e-07
2.35654e-06
-2.90953e-07
2.47142e-06
-2.9104e-07
2.59189e-06
-2.91144e-07
2.71821e-06
-2.91268e-07
2.85068e-06
-2.91416e-07
2.98959e-06
-2.91591e-07
3.13525e-06
-2.91797e-07
3.28799e-06
-2.9204e-07
3.44818e-06
-2.92323e-07
3.61617e-06
-2.92654e-07
3.79236e-06
-2.9304e-07
3.97717e-06
-2.93488e-07
4.17103e-06
-2.94008e-07
4.37443e-06
-2.94611e-07
4.58787e-06
-2.9531e-07
4.81188e-06
-2.9612e-07
5.04705e-06
-2.97061e-07
5.29402e-06
-2.98152e-07
5.55347e-06
-2.99421e-07
5.8262e-06
-3.01161e-07
7.1321e-06
-3.03122e-07
7.13554e-06
-3.05324e-07
7.14039e-06
-3.0779e-07
7.14681e-06
-3.10545e-07
7.15495e-06
-3.13617e-07
7.16499e-06
-3.17036e-07
7.17713e-06
-3.20837e-07
7.19158e-06
-3.25057e-07
7.20857e-06
-3.29737e-07
7.22835e-06
-3.34921e-07
7.25118e-06
-3.40657e-07
7.27737e-06
-3.46996e-07
7.30719e-06
-3.53996e-07
7.34099e-06
-3.61717e-07
7.37909e-06
-3.70229e-07
7.42183e-06
-3.79605e-07
7.46957e-06
-3.89932e-07
7.52263e-06
-4.01304e-07
7.58134e-06
7.64597e-06
-2.8792e-07
1.46576e-06
-2.87936e-07
1.53679e-06
-2.87957e-07
1.6113e-06
-2.87979e-07
1.68951e-06
-2.88001e-07
1.77159e-06
-2.88022e-07
1.85775e-06
-2.88044e-07
1.94817e-06
-2.88065e-07
2.04305e-06
-2.88089e-07
2.14261e-06
-2.88116e-07
2.24704e-06
-2.88149e-07
2.35658e-06
-2.88189e-07
2.47146e-06
-2.88237e-07
2.59193e-06
-2.88297e-07
2.71827e-06
-2.8837e-07
2.85075e-06
-2.88459e-07
2.98968e-06
-2.88566e-07
3.13536e-06
-2.88694e-07
3.28812e-06
-2.88847e-07
3.44833e-06
-2.89028e-07
3.61635e-06
-2.89241e-07
3.79257e-06
-2.89492e-07
3.97742e-06
-2.89786e-07
4.17133e-06
-2.90131e-07
4.37478e-06
-2.90534e-07
4.58827e-06
-2.91005e-07
4.81235e-06
-2.91555e-07
5.0476e-06
-2.92198e-07
5.29466e-06
-2.92948e-07
5.55423e-06
-2.93827e-07
5.82708e-06
-2.95041e-07
7.13331e-06
-2.96419e-07
7.13691e-06
-2.97977e-07
7.14195e-06
-2.99732e-07
7.14857e-06
-3.01706e-07
7.15692e-06
-3.0392e-07
7.16721e-06
-3.06399e-07
7.17961e-06
-3.09171e-07
7.19435e-06
-3.12267e-07
7.21167e-06
-3.15722e-07
7.2318e-06
-3.19572e-07
7.25504e-06
-3.2386e-07
7.28165e-06
-3.28631e-07
7.31197e-06
-3.33938e-07
7.3463e-06
-3.3984e-07
7.38499e-06
-3.46407e-07
7.4284e-06
-3.53719e-07
7.47688e-06
-3.61876e-07
7.53079e-06
-3.70997e-07
7.59046e-06
7.65622e-06
-2.85389e-07
1.46577e-06
-2.85401e-07
1.5368e-06
-2.85415e-07
1.61132e-06
-2.85429e-07
1.68952e-06
-2.85441e-07
1.7716e-06
-2.85451e-07
1.85776e-06
-2.85457e-07
1.94818e-06
-2.85462e-07
2.04306e-06
-2.85465e-07
2.14261e-06
-2.85468e-07
2.24704e-06
-2.85473e-07
2.35658e-06
-2.85479e-07
2.47146e-06
-2.8549e-07
2.59194e-06
-2.85505e-07
2.71829e-06
-2.85526e-07
2.85078e-06
-2.85555e-07
2.98971e-06
-2.85593e-07
3.13539e-06
-2.85642e-07
3.28817e-06
-2.85704e-07
3.44839e-06
-2.85781e-07
3.61643e-06
-2.85875e-07
3.79267e-06
-2.8599e-07
3.97753e-06
-2.86129e-07
4.17147e-06
-2.86297e-07
4.37495e-06
-2.86498e-07
4.58847e-06
-2.86738e-07
4.81259e-06
-2.87024e-07
5.04789e-06
-2.87364e-07
5.295e-06
-2.8777e-07
5.55463e-06
-2.88254e-07
5.82756e-06
-2.88935e-07
7.13399e-06
-2.89722e-07
7.1377e-06
-2.90627e-07
7.14285e-06
-2.91662e-07
7.1496e-06
-2.92843e-07
7.15811e-06
-2.94187e-07
7.16855e-06
-2.95712e-07
7.18114e-06
-2.9744e-07
7.19608e-06
-2.99395e-07
7.21362e-06
-3.01605e-07
7.23401e-06
-3.04099e-07
7.25753e-06
-3.06914e-07
7.28447e-06
-3.1009e-07
7.31514e-06
-3.13673e-07
7.34988e-06
-3.17721e-07
7.38904e-06
-3.223e-07
7.43298e-06
-3.27497e-07
7.48208e-06
-3.3342e-07
7.53671e-06
-3.40207e-07
7.59725e-06
7.66407e-06
-2.82923e-07
1.46578e-06
-2.82931e-07
1.53681e-06
-2.8294e-07
1.61133e-06
-2.82946e-07
1.68953e-06
-2.82948e-07
1.7716e-06
-2.82946e-07
1.85775e-06
-2.82939e-07
1.94817e-06
-2.82926e-07
2.04305e-06
-2.82909e-07
2.14259e-06
-2.82888e-07
2.24702e-06
-2.82864e-07
2.35656e-06
-2.82838e-07
2.47144e-06
-2.82809e-07
2.59192e-06
-2.82779e-07
2.71826e-06
-2.82749e-07
2.85075e-06
-2.82717e-07
2.98968e-06
-2.82686e-07
3.13536e-06
-2.82655e-07
3.28814e-06
-2.82626e-07
3.44836e-06
-2.82598e-07
3.6164e-06
-2.82572e-07
3.79264e-06
-2.8255e-07
3.97751e-06
-2.82533e-07
4.17145e-06
-2.82522e-07
4.37493e-06
-2.82518e-07
4.58847e-06
-2.82525e-07
4.8126e-06
-2.82545e-07
5.0479e-06
-2.82581e-07
5.29504e-06
-2.82639e-07
5.55469e-06
-2.82724e-07
5.82764e-06
-2.82867e-07
7.13413e-06
-2.83058e-07
7.13789e-06
-2.83303e-07
7.1431e-06
-2.8361e-07
7.14991e-06
-2.83991e-07
7.15849e-06
-2.84454e-07
7.16901e-06
-2.85014e-07
7.1817e-06
-2.85685e-07
7.19675e-06
-2.86485e-07
7.21442e-06
-2.87433e-07
7.23496e-06
-2.88554e-07
7.25865e-06
-2.89874e-07
7.28579e-06
-2.91428e-07
7.3167e-06
-2.93258e-07
7.35171e-06
-2.95415e-07
7.39119e-06
-2.97963e-07
7.43553e-06
-3.00988e-07
7.4851e-06
-3.04604e-07
7.54032e-06
-3.08962e-07
7.60161e-06
7.66938e-06
-2.8053e-07
1.46578e-06
-2.80535e-07
1.53682e-06
-2.80539e-07
1.61133e-06
-2.80538e-07
1.68953e-06
-2.80532e-07
1.7716e-06
-2.80519e-07
1.85774e-06
-2.80498e-07
1.94815e-06
-2.80469e-07
2.04302e-06
-2.80433e-07
2.14256e-06
-2.80388e-07
2.24698e-06
-2.80336e-07
2.3565e-06
-2.80277e-07
2.47138e-06
-2.8021e-07
2.59185e-06
-2.80135e-07
2.71818e-06
-2.80052e-07
2.85066e-06
-2.7996e-07
2.98958e-06
-2.79859e-07
3.13526e-06
-2.79749e-07
3.28803e-06
-2.79627e-07
3.44824e-06
-2.79494e-07
3.61626e-06
-2.79348e-07
3.7925e-06
-2.79188e-07
3.97735e-06
-2.79014e-07
4.17128e-06
-2.78823e-07
4.37474e-06
-2.78615e-07
4.58826e-06
-2.78387e-07
4.81237e-06
-2.78139e-07
5.04766e-06
-2.7787e-07
5.29477e-06
-2.77577e-07
5.5544e-06
-2.77261e-07
5.82733e-06
-2.76863e-07
7.13374e-06
-2.76453e-07
7.13748e-06
-2.76034e-07
7.14268e-06
-2.75609e-07
7.14948e-06
-2.75183e-07
7.15806e-06
-2.74759e-07
7.16859e-06
-2.74346e-07
7.18128e-06
-2.7395e-07
7.19636e-06
-2.73583e-07
7.21405e-06
-2.73257e-07
7.23463e-06
-2.72988e-07
7.25838e-06
-2.72795e-07
7.2856e-06
-2.72705e-07
7.31661e-06
-2.72753e-07
7.35176e-06
-2.72983e-07
7.39142e-06
-2.73455e-07
7.436e-06
-2.74251e-07
7.4859e-06
-2.75482e-07
7.54156e-06
-2.77305e-07
7.60343e-06
7.672e-06
-2.78222e-07
1.46578e-06
-2.78225e-07
1.53682e-06
-2.78224e-07
1.61133e-06
-2.78218e-07
1.68952e-06
-2.78204e-07
1.77158e-06
-2.78181e-07
1.85772e-06
-2.78148e-07
1.94811e-06
-2.78104e-07
2.04297e-06
-2.78048e-07
2.1425e-06
-2.77981e-07
2.24691e-06
-2.77902e-07
2.35642e-06
-2.7781e-07
2.47129e-06
-2.77704e-07
2.59174e-06
-2.77585e-07
2.71806e-06
-2.7745e-07
2.85053e-06
-2.77298e-07
2.98943e-06
-2.77127e-07
3.13509e-06
-2.76937e-07
3.28784e-06
-2.76723e-07
3.44803e-06
-2.76485e-07
3.61603e-06
-2.76218e-07
3.79223e-06
-2.75921e-07
3.97705e-06
-2.75589e-07
4.17094e-06
-2.75218e-07
4.37437e-06
-2.74804e-07
4.58785e-06
-2.74343e-07
4.81191e-06
-2.73827e-07
5.04714e-06
-2.7325e-07
5.29419e-06
-2.72607e-07
5.55375e-06
-2.71889e-07
5.82661e-06
-2.70948e-07
7.1328e-06
-2.69937e-07
7.13647e-06
-2.68851e-07
7.1416e-06
-2.67691e-07
7.14832e-06
-2.66454e-07
7.15682e-06
-2.65139e-07
7.16728e-06
-2.63747e-07
7.17989e-06
-2.62278e-07
7.19489e-06
-2.60737e-07
7.21251e-06
-2.59126e-07
7.23302e-06
-2.57455e-07
7.25671e-06
-2.55733e-07
7.28387e-06
-2.5398e-07
7.31485e-06
-2.5222e-07
7.35e-06
-2.5049e-07
7.38969e-06
-2.48843e-07
7.43435e-06
-2.4735e-07
7.4844e-06
-2.46118e-07
7.54032e-06
-2.45297e-07
7.60261e-06
7.6718e-06
-2.76016e-07
1.46579e-06
-2.76016e-07
1.53682e-06
-2.76012e-07
1.61133e-06
-2.76001e-07
1.68951e-06
-2.7598e-07
1.77156e-06
-2.75948e-07
1.85769e-06
-2.75903e-07
1.94807e-06
-2.75844e-07
2.04291e-06
-2.7577e-07
2.14243e-06
-2.75681e-07
2.24682e-06
-2.75574e-07
2.35632e-06
-2.7545e-07
2.47116e-06
-2.75307e-07
2.5916e-06
-2.75143e-07
2.7179e-06
-2.74956e-07
2.85034e-06
-2.74744e-07
2.98922e-06
-2.74505e-07
3.13485e-06
-2.74234e-07
3.28757e-06
-2.73929e-07
3.44772e-06
-2.73586e-07
3.61568e-06
-2.73199e-07
3.79184e-06
-2.72764e-07
3.97662e-06
-2.72275e-07
4.17046e-06
-2.71725e-07
4.37382e-06
-2.71106e-07
4.58723e-06
-2.7041e-07
4.81121e-06
-2.69627e-07
5.04636e-06
-2.68745e-07
5.29331e-06
-2.67751e-07
5.55276e-06
-2.66631e-07
5.82549e-06
-2.65149e-07
7.13131e-06
-2.63536e-07
7.13486e-06
-2.61784e-07
7.13984e-06
-2.59888e-07
7.14643e-06
-2.57839e-07
7.15477e-06
-2.55632e-07
7.16507e-06
-2.53259e-07
7.17752e-06
-2.50714e-07
7.19234e-06
-2.47993e-07
7.20979e-06
-2.45092e-07
7.23012e-06
-2.4201e-07
7.25363e-06
-2.38748e-07
7.28061e-06
-2.35315e-07
7.31142e-06
-2.31726e-07
7.34641e-06
-2.28007e-07
7.38598e-06
-2.24198e-07
7.43054e-06
-2.20362e-07
7.48057e-06
-2.16591e-07
7.53655e-06
-2.1302e-07
7.59904e-06
7.66862e-06
-2.73928e-07
1.46579e-06
-2.73926e-07
1.53682e-06
-2.73918e-07
1.61132e-06
-2.73902e-07
1.68949e-06
-2.73875e-07
1.77154e-06
-2.73834e-07
1.85764e-06
-2.73778e-07
1.94801e-06
-2.73704e-07
2.04284e-06
-2.73612e-07
2.14233e-06
-2.73501e-07
2.24671e-06
-2.73368e-07
2.35619e-06
-2.73212e-07
2.47101e-06
-2.73031e-07
2.59142e-06
-2.72823e-07
2.71769e-06
-2.72585e-07
2.8501e-06
-2.72313e-07
2.98895e-06
-2.72005e-07
3.13454e-06
-2.71655e-07
3.28722e-06
-2.7126e-07
3.44733e-06
-2.70812e-07
3.61524e-06
-2.70306e-07
3.79134e-06
-2.69735e-07
3.97605e-06
-2.69089e-07
4.16981e-06
-2.68361e-07
4.3731e-06
-2.67539e-07
4.58641e-06
-2.6661e-07
4.81028e-06
-2.6556e-07
5.04531e-06
-2.64374e-07
5.29212e-06
-2.63031e-07
5.55142e-06
-2.61512e-07
5.82397e-06
-2.5949e-07
7.12929e-06
-2.57277e-07
7.13265e-06
-2.54862e-07
7.13743e-06
-2.52232e-07
7.1438e-06
-2.49374e-07
7.15192e-06
-2.46276e-07
7.16197e-06
-2.42923e-07
7.17417e-06
-2.39303e-07
7.18872e-06
-2.35401e-07
7.20589e-06
-2.31207e-07
7.22593e-06
-2.2671e-07
7.24913e-06
-2.219e-07
7.2758e-06
-2.16776e-07
7.30629e-06
-2.11341e-07
7.34097e-06
-2.05608e-07
7.38024e-06
-1.99604e-07
7.42454e-06
-1.93374e-07
7.47434e-06
-1.86994e-07
7.53017e-06
-1.80575e-07
7.59262e-06
7.66233e-06
-2.71978e-07
1.46578e-06
-2.71973e-07
1.53681e-06
-2.71961e-07
1.61131e-06
-2.7194e-07
1.68947e-06
-2.71905e-07
1.7715e-06
-2.71855e-07
1.85759e-06
-2.71787e-07
1.94794e-06
-2.71699e-07
2.04275e-06
-2.71589e-07
2.14222e-06
-2.71455e-07
2.24657e-06
-2.71296e-07
2.35603e-06
-2.71108e-07
2.47082e-06
-2.7089e-07
2.5912e-06
-2.70639e-07
2.71744e-06
-2.7035e-07
2.84981e-06
-2.7002e-07
2.98862e-06
-2.69643e-07
3.13417e-06
-2.69215e-07
3.28679e-06
-2.6873e-07
3.44684e-06
-2.68179e-07
3.61468e-06
-2.67555e-07
3.79071e-06
-2.66848e-07
3.97534e-06
-2.66048e-07
4.16901e-06
-2.65143e-07
4.37219e-06
-2.64119e-07
4.58538e-06
-2.6296e-07
4.80912e-06
-2.61647e-07
5.044e-06
-2.60159e-07
5.29063e-06
-2.58471e-07
5.54973e-06
-2.56555e-07
5.82205e-06
-2.53998e-07
7.12674e-06
-2.51191e-07
7.12984e-06
-2.48116e-07
7.13435e-06
-2.44757e-07
7.14044e-06
-2.41095e-07
7.14825e-06
-2.3711e-07
7.15799e-06
-2.32782e-07
7.16984e-06
-2.28089e-07
7.18403e-06
-2.2301e-07
7.20081e-06
-2.17525e-07
7.22044e-06
-2.11612e-07
7.24322e-06
-2.05254e-07
7.26944e-06
-1.98433e-07
7.29947e-06
-1.9114e-07
7.33368e-06
-1.83373e-07
7.37248e-06
-1.75145e-07
7.41631e-06
-1.6648e-07
7.46567e-06
-1.5743e-07
7.52112e-06
-1.4808e-07
7.58327e-06
7.6528e-06
-2.70179e-07
1.46578e-06
-2.70171e-07
1.5368e-06
-2.70155e-07
1.61129e-06
-2.70127e-07
1.68944e-06
-2.70085e-07
1.77146e-06
-2.70025e-07
1.85753e-06
-2.69945e-07
1.94786e-06
-2.69842e-07
2.04265e-06
-2.69714e-07
2.1421e-06
-2.69558e-07
2.24642e-06
-2.69372e-07
2.35584e-06
-2.69153e-07
2.4706e-06
-2.68898e-07
2.59095e-06
-2.68604e-07
2.71715e-06
-2.68265e-07
2.84948e-06
-2.67877e-07
2.98823e-06
-2.67433e-07
3.13372e-06
-2.66928e-07
3.28629e-06
-2.66354e-07
3.44627e-06
-2.65701e-07
3.61403e-06
-2.6496e-07
3.78997e-06
-2.64121e-07
3.9745e-06
-2.63168e-07
4.16806e-06
-2.62089e-07
4.37111e-06
-2.60866e-07
4.58416e-06
-2.59479e-07
4.80774e-06
-2.57906e-07
5.04242e-06
-2.5612e-07
5.28885e-06
-2.54091e-07
5.5477e-06
-2.51784e-07
5.81975e-06
-2.48698e-07
7.12365e-06
-2.45303e-07
7.12644e-06
-2.41576e-07
7.13063e-06
-2.37495e-07
7.13636e-06
-2.33036e-07
7.14379e-06
-2.28172e-07
7.15312e-06
-2.22877e-07
7.16454e-06
-2.17119e-07
7.17827e-06
-2.10871e-07
7.19456e-06
-2.04101e-07
7.21367e-06
-1.96777e-07
7.23589e-06
-1.88871e-07
7.26154e-06
-1.80353e-07
7.29096e-06
-1.71198e-07
7.32453e-06
-1.61388e-07
7.36267e-06
-1.50916e-07
7.40584e-06
-1.39784e-07
7.45454e-06
-1.28018e-07
7.50936e-06
-1.15667e-07
7.57092e-06
7.63995e-06
-2.68543e-07
1.46578e-06
-2.68532e-07
1.53679e-06
-2.68511e-07
1.61127e-06
-2.68477e-07
1.68941e-06
-2.68427e-07
1.77141e-06
-2.68357e-07
1.85746e-06
-2.68264e-07
1.94777e-06
-2.68145e-07
2.04253e-06
-2.67999e-07
2.14195e-06
-2.67821e-07
2.24624e-06
-2.67609e-07
2.35563e-06
-2.67359e-07
2.47035e-06
-2.67068e-07
2.59066e-06
-2.66731e-07
2.71681e-06
-2.66343e-07
2.84909e-06
-2.65898e-07
2.98779e-06
-2.65389e-07
3.13322e-06
-2.64808e-07
3.28571e-06
-2.64146e-07
3.44561e-06
-2.63394e-07
3.61328e-06
-2.62539e-07
3.78912e-06
-2.61568e-07
3.97353e-06
-2.60466e-07
4.16696e-06
-2.59216e-07
4.36986e-06
-2.57797e-07
4.58274e-06
-2.56187e-07
4.80612e-06
-2.54358e-07
5.04059e-06
-2.52279e-07
5.28677e-06
-2.49915e-07
5.54534e-06
-2.47223e-07
5.81706e-06
-2.43616e-07
7.12004e-06
-2.39641e-07
7.12247e-06
-2.35272e-07
7.12626e-06
-2.3048e-07
7.13156e-06
-2.25234e-07
7.13855e-06
-2.19502e-07
7.14739e-06
-2.13247e-07
7.15829e-06
-2.0644e-07
7.17146e-06
-1.99033e-07
7.18716e-06
-1.90988e-07
7.20563e-06
-1.82264e-07
7.22717e-06
-1.72819e-07
7.25209e-06
-1.6261e-07
7.28075e-06
-1.51596e-07
7.31351e-06
-1.3974e-07
7.35081e-06
-1.27014e-07
7.39311e-06
-1.13398e-07
7.44093e-06
-9.88839e-08
7.49484e-06
-8.34837e-08
7.55552e-06
7.6237e-06
-2.6708e-07
1.46577e-06
-2.67066e-07
1.53678e-06
-2.6704e-07
1.61124e-06
-2.66999e-07
1.68937e-06
-2.6694e-07
1.77135e-06
-2.6686e-07
1.85738e-06
-2.66754e-07
1.94767e-06
-2.6662e-07
2.0424e-06
-2.66455e-07
2.14178e-06
-2.66256e-07
2.24604e-06
-2.66018e-07
2.35539e-06
-2.65738e-07
2.47007e-06
-2.65412e-07
2.59033e-06
-2.65033e-07
2.71643e-06
-2.64597e-07
2.84865e-06
-2.64096e-07
2.98728e-06
-2.63523e-07
3.13264e-06
-2.62868e-07
3.28505e-06
-2.62121e-07
3.44486e-06
-2.61271e-07
3.61243e-06
-2.60304e-07
3.78815e-06
-2.59206e-07
3.97243e-06
-2.57958e-07
4.16571e-06
-2.5654e-07
4.36844e-06
-2.5493e-07
4.58113e-06
-2.53101e-07
4.8043e-06
-2.51022e-07
5.03851e-06
-2.48657e-07
5.2844e-06
-2.45964e-07
5.54264e-06
-2.42894e-07
5.81399e-06
-2.38777e-07
7.11593e-06
-2.34234e-07
7.11792e-06
-2.29234e-07
7.12126e-06
-2.23743e-07
7.12607e-06
-2.17724e-07
7.13253e-06
-2.11139e-07
7.14081e-06
-2.03946e-07
7.15109e-06
-1.96098e-07
7.16362e-06
-1.87548e-07
7.17861e-06
-1.78245e-07
7.19632e-06
-1.68135e-07
7.21706e-06
-1.57165e-07
7.24112e-06
-1.45278e-07
7.26886e-06
-1.32415e-07
7.30065e-06
-1.18521e-07
7.33692e-06
-1.03544e-07
7.37813e-06
-8.74374e-08
7.42482e-06
-7.0161e-08
7.47757e-06
-5.1686e-08
7.53704e-06
7.60401e-06
-2.65797e-07
1.46576e-06
-2.65779e-07
1.53676e-06
-2.65748e-07
1.61121e-06
-2.65701e-07
1.68932e-06
-2.65634e-07
1.77128e-06
-2.65544e-07
1.85729e-06
-2.65426e-07
1.94755e-06
-2.65277e-07
2.04225e-06
-2.65095e-07
2.1416e-06
-2.64874e-07
2.24582e-06
-2.64611e-07
2.35513e-06
-2.64302e-07
2.46976e-06
-2.63941e-07
2.58997e-06
-2.63523e-07
2.71601e-06
-2.6304e-07
2.84817e-06
-2.62485e-07
2.98673e-06
-2.61849e-07
3.13201e-06
-2.61122e-07
3.28432e-06
-2.60293e-07
3.44403e-06
-2.59348e-07
3.61148e-06
-2.58272e-07
3.78708e-06
-2.57049e-07
3.97121e-06
-2.55659e-07
4.16432e-06
-2.54079e-07
4.36686e-06
-2.52283e-07
4.57933e-06
-2.5024e-07
4.80225e-06
-2.47917e-07
5.03619e-06
-2.45273e-07
5.28176e-06
-2.4226e-07
5.53963e-06
-2.38822e-07
5.81055e-06
-2.34206e-07
7.11131e-06
-2.29108e-07
7.11283e-06
-2.23492e-07
7.11564e-06
-2.17317e-07
7.1199e-06
-2.10541e-07
7.12576e-06
-2.0312e-07
7.13338e-06
-1.95004e-07
7.14298e-06
-1.86138e-07
7.15475e-06
-1.76465e-07
7.16893e-06
-1.65925e-07
7.18578e-06
-1.54451e-07
7.20559e-06
-1.41978e-07
7.22865e-06
-1.28432e-07
7.25531e-06
-1.1374e-07
7.28596e-06
-9.78253e-08
7.321e-06
-8.06113e-08