/*--------------------------------*- C++ -*----------------------------------*\
  =========                 |
  \\      /  F ield         | OpenFOAM: The Open Source CFD Toolbox
   \\    /   O peration     | Website:  https://openfoam.org
    \\  /    A nd           | Version:  9
     \\/     M anipulation  |
\*---------------------------------------------------------------------------*/
FoamFile
{
    format      ascii;
    class       surfaceVectorField;
    location    "0.03";
    object      Uf;
}
// * * * * * * * * * * * * * * * * * * * * * * * * * * * * * * * * * * * * * //

dimensions      [0 1 -1 0 0 0 0];

internalField   nonuniform List<vector> 
9850
(
(-0.0263944 0 -0.00137399)
(-0.0260736 0 -0.00103019)
(-0.0264036 0 -0.00203292)
(-0.0260993 0 -0.00171094)
(-0.0264166 0 -0.00262886)
(-0.0260994 0 -0.00233621)
(-0.026434 0 -0.00315707)
(-0.0261144 0 -0.00289106)
(-0.0264562 0 -0.0036266)
(-0.026134 0 -0.00338084)
(-0.0264842 0 -0.00405149)
(-0.0261587 0 -0.00381788)
(-0.026519 0 -0.004447)
(-0.0261893 0 -0.00421758)
(-0.0265619 0 -0.00482674)
(-0.0262271 0 -0.00459477)
(-0.0266143 0 -0.00520154)
(-0.0262734 0 -0.00496164)
(-0.0266778 0 -0.00557973)
(-0.0263297 0 -0.00532762)
(-0.0267542 0 -0.00596752)
(-0.0263975 0 -0.00569985)
(-0.0268454 0 -0.00636947)
(-0.0264787 0 -0.00608363)
(-0.0269534 0 -0.00678869)
(-0.0265752 0 -0.00648272)
(-0.0270805 0 -0.00722715)
(-0.0266892 0 -0.00689957)
(-0.0272294 0 -0.00768584)
(-0.0268229 0 -0.00733554)
(-0.0274031 0 -0.00816503)
(-0.0269793 0 -0.00779117)
(-0.0276047 0 -0.00866442)
(-0.0271612 0 -0.00826633)
(-0.0278382 0 -0.00918324)
(-0.0273721 0 -0.00876038)
(-0.0281077 0 -0.00972033)
(-0.0276159 0 -0.00927228)
(-0.0284183 0 -0.0102741)
(-0.027897 0 -0.00980057)
(-0.0287754 0 -0.0108427)
(-0.0282207 0 -0.0103433)
(-0.0291855 0 -0.0114234)
(-0.0285926 0 -0.0108982)
(-0.0296559 0 -0.0120131)
(-0.0290194 0 -0.0114622)
(-0.030195 0 -0.012608)
(-0.0295088 0 -0.0120316)
(-0.0308124 0 -0.0132029)
(-0.0300696 0 -0.0126017)
(-0.0315195 0 -0.0137918)
(-0.030712 0 -0.0131667)
(-0.0323294 0 -0.0143666)
(-0.0314478 0 -0.0137192)
(-0.0332576 0 -0.0149171)
(-0.0322908 0 -0.0142497)
(-0.0343224 0 -0.0154299)
(-0.033258 0 -0.0147464)
(-0.0355453 0 -0.0158861)
(-0.0343663 0 -0.0151932)
(-0.0371993 0 -0.0163187)
(-0.0357509 0 -0.0155988)
(-0.0390388 0 -0.0166005)
(-0.0374462 0 -0.0159003)
(-0.0410785 0 -0.0167144)
(-0.0393307 0 -0.0160372)
(-0.0433349 0 -0.0166447)
(-0.0414181 0 -0.0159941)
(-0.045826 0 -0.0163731)
(-0.0437271 0 -0.0157528)
(-0.0485717 0 -0.0158787)
(-0.0462752 0 -0.0152926)
(-0.0515944 0 -0.0151375)
(-0.049082 0 -0.0145899)
(-0.0549188 0 -0.014122)
(-0.0521684 0 -0.0136188)
(-0.0585724 0 -0.0128017)
(-0.0555594 0 -0.0123507)
(-0.0625846 0 -0.0111438)
(-0.059284 0 -0.0107541)
(-0.0669872 0 -0.00911274)
(-0.0633748 0 -0.00879358)
(-0.0718148 0 -0.00666862)
(-0.0678647 0 -0.00642977)
(-0.0771053 0 -0.00376508)
(-0.0727859 0 -0.00361819)
(-0.0828994 0 -0.000347868)
(-0.0781719 0 -0.000308735)
(-0.0892393 0 0.00364486)
(-0.0840616 0 0.00355542)
(-0.0961675 0 0.00828301)
(-0.0904998 0 0.00803974)
(-0.10373 0 0.0136477)
(-0.0975294 0 0.013221)
(-0.111967 0 0.0198422)
(-0.105181 0 0.0191857)
(-0.120909 0 0.0269909)
(-0.113501 0 0.026046)
(-0.122479 0 0.0339479)
(-0.0257743 0 -0.0013508)
(-0.0254454 0 -0.00101214)
(-0.0257837 0 -0.00199915)
(-0.0254708 0 -0.00168189)
(-0.0257969 0 -0.00258494)
(-0.0254713 0 -0.00229704)
(-0.0258141 0 -0.00310284)
(-0.0254863 0 -0.00284213)
(-0.025836 0 -0.00356134)
(-0.0255057 0 -0.00332184)
(-0.0258632 0 -0.00397404)
(-0.0255298 0 -0.00374794)
(-0.0258967 0 -0.00435593)
(-0.0255593 0 -0.0041354)
(-0.0259378 0 -0.0047205)
(-0.0255955 0 -0.00449887)
(-0.0259878 0 -0.00507858)
(-0.0256395 0 -0.00485047)
(-0.0260481 0 -0.00543848)
(-0.0256928 0 -0.00519961)
(-0.0261205 0 -0.00580648)
(-0.0257568 0 -0.00555347)
(-0.0262067 0 -0.00618711)
(-0.0258334 0 -0.00591738)
(-0.0263088 0 -0.0065835)
(-0.0259243 0 -0.00629509)
(-0.0264289 0 -0.00699752)
(-0.0260316 0 -0.00668902)
(-0.0265696 0 -0.00743009)
(-0.0261575 0 -0.00710048)
(-0.0267336 0 -0.00788137)
(-0.0263045 0 -0.00752989)
(-0.026924 0 -0.00835091)
(-0.0264756 0 -0.00797703)
(-0.0271444 0 -0.00883777)
(-0.0266741 0 -0.00844109)
(-0.027399 0 -0.0093406)
(-0.0269035 0 -0.00892084)
(-0.0276923 0 -0.00985759)
(-0.0271681 0 -0.0094146)
(-0.0280296 0 -0.0103865)
(-0.0274726 0 -0.00992021)
(-0.028417 0 -0.0109244)
(-0.0278227 0 -0.010435)
(-0.0288614 0 -0.0114679)
(-0.0282245 0 -0.0109556)
(-0.0293708 0 -0.0120124)
(-0.0286854 0 -0.011478)
(-0.0299545 0 -0.0125524)
(-0.0292135 0 -0.0119969)
(-0.0306232 0 -0.0130812)
(-0.0298187 0 -0.0125061)
(-0.0313895 0 -0.0135898)
(-0.0305123 0 -0.0129975)
(-0.0322681 0 -0.0140673)
(-0.0313072 0 -0.0134609)
(-0.0332762 0 -0.0144992)
(-0.0322196 0 -0.0138834)
(-0.0344345 0 -0.0148657)
(-0.0332655 0 -0.0142481)
(-0.0360014 0 -0.0151816)
(-0.0345725 0 -0.014554)
(-0.0377447 0 -0.0153389)
(-0.036174 0 -0.0147381)
(-0.0396784 0 -0.015319)
(-0.0379545 0 -0.014748)
(-0.0418182 0 -0.0151044)
(-0.0399272 0 -0.0145676)
(-0.0441814 0 -0.0146742)
(-0.0421097 0 -0.0141773)
(-0.0467871 0 -0.0140055)
(-0.044519 0 -0.0135554)
(-0.0496564 0 -0.0130733)
(-0.0471737 0 -0.0126769)
(-0.0528126 0 -0.0118502)
(-0.050094 0 -0.0115146)
(-0.0562812 0 -0.0103062)
(-0.0533032 0 -0.0100383)
(-0.0600897 0 -0.00840713)
(-0.0568283 0 -0.00821504)
(-0.0642678 0 -0.00611392)
(-0.0606991 0 -0.00600815)
(-0.0688477 0 -0.00338259)
(-0.0649458 0 -0.00337656)
(-0.0738638 0 -0.000164748)
(-0.0695981 0 -0.000274176)
(-0.0793524 0 0.00359272)
(-0.0746867 0 0.00335028)
(-0.0853501 0 0.00795019)
(-0.0802461 0 0.00755381)
(-0.0918924 0 0.0129792)
(-0.0863142 0 0.0124012)
(-0.0990149 0 0.0187623)
(-0.0929273 0 0.0179694)
(-0.106752 0 0.0253977)
(-0.100106 0 0.024344)
(-0.115113 0 0.0330132)
(-0.107874 0 0.0316198)
(-0.116249 0 0.0399574)
(-0.0251379 0 -0.00132719)
(-0.0248032 0 -0.000993833)
(-0.0251473 0 -0.00196501)
(-0.0248281 0 -0.0016525)
(-0.0251606 0 -0.00254108)
(-0.024829 0 -0.00225779)
(-0.0251777 0 -0.00304947)
(-0.0248437 0 -0.00279375)
(-0.025199 0 -0.00349798)
(-0.0248627 0 -0.00326428)
(-0.0252252 0 -0.00389968)
(-0.0248858 0 -0.00368049)
(-0.0252573 0 -0.00426923)
(-0.0249139 0 -0.0040569)
(-0.0252963 0 -0.00461995)
(-0.0249481 0 -0.00440787)
(-0.0253434 0 -0.00496263)
(-0.0249895 0 -0.00474545)
(-0.0254003 0 -0.0053056)
(-0.0250395 0 -0.00507905)
(-0.0254683 0 -0.00565515)
(-0.0250994 0 -0.00541589)
(-0.0255492 0 -0.00601585)
(-0.0251709 0 -0.00576132)
(-0.025645 0 -0.0063908)
(-0.0252558 0 -0.0061191)
(-0.0257576 0 -0.00678184)
(-0.0253558 0 -0.00649163)
(-0.0258894 0 -0.00718982)
(-0.0254733 0 -0.00688015)
(-0.0260431 0 -0.00761479)
(-0.0256105 0 -0.00728503)
(-0.0262216 0 -0.00805616)
(-0.0257701 0 -0.0077059)
(-0.0264282 0 -0.00851285)
(-0.0259553 0 -0.00814184)
(-0.0266668 0 -0.00898329)
(-0.0261694 0 -0.00859141)
(-0.0269417 0 -0.00946548)
(-0.0264164 0 -0.00905274)
(-0.027258 0 -0.00995688)
(-0.0267008 0 -0.00952344)
(-0.0276214 0 -0.0104543)
(-0.0270277 0 -0.0100006)
(-0.0280382 0 -0.010954)
(-0.0274031 0 -0.0104804)
(-0.0285162 0 -0.0114509)
(-0.0278338 0 -0.0109585)
(-0.029064 0 -0.0119392)
(-0.0283275 0 -0.0114294)
(-0.0296919 0 -0.0124113)
(-0.0288934 0 -0.011886)
(-0.0304116 0 -0.0128577)
(-0.0295421 0 -0.0123197)
(-0.0312371 0 -0.0132666)
(-0.030286 0 -0.0127197)
(-0.0321849 0 -0.0136225)
(-0.0311401 0 -0.0130722)
(-0.0332743 0 -0.0139041)
(-0.0321198 0 -0.0133591)
(-0.034749 0 -0.0141091)
(-0.0333445 0 -0.0135709)
(-0.0363902 0 -0.0141472)
(-0.0348461 0 -0.0136439)
(-0.0382111 0 -0.0139988)
(-0.0365162 0 -0.0135341)
(-0.0402264 0 -0.013645)
(-0.0383672 0 -0.013224)
(-0.0424525 0 -0.0130641)
(-0.0404153 0 -0.0126932)
(-0.0449078 0 -0.0122314)
(-0.0426768 0 -0.0119185)
(-0.0476127 0 -0.0111204)
(-0.0451694 0 -0.0108737)
(-0.0505891 0 -0.0097026)
(-0.0479126 0 -0.00953032)
(-0.0538607 0 -0.00794682)
(-0.0509284 0 -0.00785725)
(-0.0574526 0 -0.00581793)
(-0.0542415 0 -0.00582045)
(-0.0613919 0 -0.00327546)
(-0.0578787 0 -0.00338195)
(-0.0657082 0 -0.000273782)
(-0.0618674 0 -0.000499048)
(-0.0704331 0 0.0032366)
(-0.0662353 0 0.00287574)
(-0.075599 0 0.00730883)
(-0.0710109 0 0.00679411)
(-0.0812371 0 0.0120025)
(-0.0762247 0 0.0113126)
(-0.0873772 0 0.0173889)
(-0.0819077 0 0.0164946)
(-0.0940459 0 0.0235504)
(-0.0880892 0 0.0224152)
(-0.10127 0 0.0305739)
(-0.0947869 0 0.0291601)
(-0.109056 0 0.0385832)
(-0.102 0 0.0368106)
(-0.109768 0 0.0455056)
(-0.0244896 0 -0.00130341)
(-0.0241508 0 -0.00097564)
(-0.024499 0 -0.00193083)
(-0.0241749 0 -0.0016234)
(-0.024512 0 -0.00249765)
(-0.0241759 0 -0.00221923)
(-0.0245286 0 -0.0029973)
(-0.0241901 0 -0.00274676)
(-0.024549 0 -0.00343683)
(-0.0242082 0 -0.00320908)
(-0.0245739 0 -0.00382868)
(-0.02423 0 -0.00361651)
(-0.0246041 0 -0.00418712)
(-0.0242563 0 -0.00398303)
(-0.0246406 0 -0.00452526)
(-0.0242881 0 -0.00432272)
(-0.0246846 0 -0.00485386)
(-0.0243264 0 -0.00464753)
(-0.0247374 0 -0.00518125)
(-0.0243726 0 -0.00496688)
(-0.0248006 0 -0.00551377)
(-0.024428 0 -0.00528804)
(-0.0248758 0 -0.00585599)
(-0.024494 0 -0.00561639)
(-0.0249647 0 -0.00621103)
(-0.0245723 0 -0.00595571)
(-0.0250692 0 -0.00658069)
(-0.0246647 0 -0.00630839)
(-0.0251916 0 -0.00696575)
(-0.0247731 0 -0.00667562)
(-0.0253343 0 -0.00736618)
(-0.0248998 0 -0.00705769)
(-0.0255 0 -0.00778126)
(-0.0250473 0 -0.00745412)
(-0.0256919 0 -0.00820977)
(-0.0252184 0 -0.00786385)
(-0.0259137 0 -0.00864996)
(-0.0254163 0 -0.0082853)
(-0.0261692 0 -0.00909959)
(-0.0256448 0 -0.0087164)
(-0.0264633 0 -0.00955589)
(-0.0259079 0 -0.00915453)
(-0.0268012 0 -0.0100154)
(-0.0262105 0 -0.00959646)
(-0.0271891 0 -0.0104739)
(-0.0265581 0 -0.0100383)
(-0.027634 0 -0.0109262)
(-0.026957 0 -0.0104751)
(-0.0281441 0 -0.0113658)
(-0.0274145 0 -0.0109009)
(-0.0287289 0 -0.0117846)
(-0.0279391 0 -0.0113083)
(-0.0293995 0 -0.0121727)
(-0.0285408 0 -0.0116881)
(-0.0301691 0 -0.0125173)
(-0.0292309 0 -0.0120288)
(-0.031053 0 -0.012802)
(-0.0300237 0 -0.0123157)
(-0.0320695 0 -0.0130043)
(-0.0309335 0 -0.0125298)
(-0.0334458 0 -0.0131052)
(-0.032071 0 -0.0126533)
(-0.0349783 0 -0.0130308)
(-0.033467 0 -0.0126222)
(-0.0366794 0 -0.0127604)
(-0.0350201 0 -0.0124)
(-0.038563 0 -0.0122745)
(-0.0367424 0 -0.0119683)
(-0.0406447 0 -0.0115507)
(-0.038649 0 -0.0113055)
(-0.0429415 0 -0.0105638)
(-0.0407548 0 -0.0103872)
(-0.0454724 0 -0.00928573)
(-0.0430765 0 -0.00918643)
(-0.0482576 0 -0.00768611)
(-0.0456324 0 -0.00767344)
(-0.0513192 0 -0.00573174)
(-0.0484432 0 -0.00581617)
(-0.0546808 0 -0.00338604)
(-0.0515318 0 -0.00357943)
(-0.0583676 0 -0.000608173)
(-0.0549225 0 -0.000924031)
(-0.062407 0 0.00264734)
(-0.0586402 0 0.00219385)
(-0.0668268 0 0.00643028)
(-0.0627104 0 0.00582227)
(-0.0716552 0 0.0107948)
(-0.067159 0 0.010013)
(-0.0769193 0 0.0158008)
(-0.072013 0 0.014822)
(-0.0826451 0 0.0215166)
(-0.0772982 0 0.0203119)
(-0.0888531 0 0.0280209)
(-0.0830379 0 0.0265538)
(-0.0955578 0 0.0353928)
(-0.0892502 0 0.0336299)
(-0.102764 0 0.0437344)
(-0.0959172 0 0.041615)
(-0.103075 0 0.0506117)
(-0.0238325 0 -0.00128016)
(-0.0234901 0 -0.000958059)
(-0.0238415 0 -0.00189759)
(-0.0235133 0 -0.0015954)
(-0.0238539 0 -0.00245578)
(-0.0235141 0 -0.00218242)
(-0.0238696 0 -0.00294754)
(-0.0235275 0 -0.00270235)
(-0.0238887 0 -0.00337908)
(-0.0235444 0 -0.00315741)
(-0.0239118 0 -0.00376217)
(-0.0235645 0 -0.00355713)
(-0.0239397 0 -0.00411061)
(-0.0235886 0 -0.00391487)
(-0.0239732 0 -0.00443735)
(-0.0236176 0 -0.00424443)
(-0.0240136 0 -0.00475306)
(-0.0236525 0 -0.00455765)
(-0.0240621 0 -0.00506615)
(-0.0236946 0 -0.004864)
(-0.02412 0 -0.00538299)
(-0.023745 0 -0.00517079)
(-0.024189 0 -0.00570819)
(-0.0238051 0 -0.00548346)
(-0.0242705 0 -0.00604484)
(-0.0238765 0 -0.00580582)
(-0.0243664 0 -0.00639475)
(-0.0239607 0 -0.00614022)
(-0.0244788 0 -0.00675864)
(-0.0240596 0 -0.00648783)
(-0.0246099 0 -0.00713637)
(-0.0241753 0 -0.00684885)
(-0.0247622 0 -0.00752713)
(-0.0243099 0 -0.00722272)
(-0.0249387 0 -0.00792954)
(-0.0244663 0 -0.00760826)
(-0.0251426 0 -0.00834168)
(-0.0246473 0 -0.00800373)
(-0.0253778 0 -0.00876112)
(-0.0248563 0 -0.00840687)
(-0.0256486 0 -0.00918484)
(-0.0250972 0 -0.00881487)
(-0.0259598 0 -0.00960911)
(-0.0253743 0 -0.00922425)
(-0.0263172 0 -0.0100294)
(-0.0256928 0 -0.0096308)
(-0.0267274 0 -0.0104401)
(-0.0260584 0 -0.0100293)
(-0.0271978 0 -0.0108343)
(-0.0264779 0 -0.0104134)
(-0.0277375 0 -0.0112034)
(-0.0269593 0 -0.0107753)
(-0.0283566 0 -0.0115369)
(-0.0275116 0 -0.0111051)
(-0.0290673 0 -0.0118212)
(-0.0281454 0 -0.0113907)
(-0.029884 0 -0.0120393)
(-0.0288739 0 -0.0116167)
(-0.0308236 0 -0.0121674)
(-0.0297104 0 -0.0117632)
(-0.0320966 0 -0.0121713)
(-0.0307566 0 -0.0118047)
(-0.0335147 0 -0.0119924)
(-0.0320416 0 -0.0116767)
(-0.0350898 0 -0.0116088)
(-0.033472 0 -0.01135)
(-0.0368347 0 -0.0110002)
(-0.0350591 0 -0.010805)
(-0.0387641 0 -0.0101431)
(-0.0368168 0 -0.0100192)
(-0.0408938 0 -0.00901138)
(-0.0387591 0 -0.00896746)
(-0.0432411 0 -0.00757614)
(-0.0409013 0 -0.00762153)
(-0.0458249 0 -0.00580584)
(-0.0432607 0 -0.00595086)
(-0.0486657 0 -0.00366612)
(-0.0458563 0 -0.00392233)
(-0.0517853 0 -0.00111921)
(-0.0487093 0 -0.00149966)
(-0.0552074 0 0.0018767)
(-0.0518417 0 0.00135737)
(-0.0589565 0 0.00536762)
(-0.0552763 0 0.0046932)
(-0.0630574 0 0.0094036)
(-0.0590361 0 0.00855616)
(-0.0675348 0 0.0140388)
(-0.063145 0 0.0129979)
(-0.072413 0 0.0193325)
(-0.0676269 0 0.0180741)
(-0.0777145 0 0.02535)
(-0.0725039 0 0.0238462)
(-0.0834557 0 0.0321652)
(-0.0777943 0 0.0303813)
(-0.0896425 0 0.0398537)
(-0.0835157 0 0.0377545)
(-0.0962763 0 0.0484938)
(-0.0896479 0 0.0460375)
(-0.0962129 0 0.0553028)
(-0.0231675 0 -0.00125807)
(-0.0228218 0 -0.000941375)
(-0.023176 0 -0.00186621)
(-0.022844 0 -0.00156899)
(-0.0231876 0 -0.00241658)
(-0.0228446 0 -0.00214799)
(-0.0232021 0 -0.00290137)
(-0.022857 0 -0.00266122)
(-0.0232197 0 -0.00332594)
(-0.0228725 0 -0.00311003)
(-0.0232408 0 -0.00370133)
(-0.0228908 0 -0.00350307)
(-0.023266 0 -0.00404087)
(-0.0229126 0 -0.00385312)
(-0.0232963 0 -0.00435732)
(-0.0229386 0 -0.00417366)
(-0.0233327 0 -0.00466135)
(-0.02297 0 -0.00447646)
(-0.0233765 0 -0.00496141)
(-0.0230076 0 -0.00477106)
(-0.0234289 0 -0.00526392)
(-0.0230528 0 -0.00506482)
(-0.0234913 0 -0.00557354)
(-0.0231068 0 -0.00536324)
(-0.0235651 0 -0.00589336)
(-0.0231708 0 -0.00567015)
(-0.023652 0 -0.00622517)
(-0.0232465 0 -0.00598789)
(-0.0237538 0 -0.00656962)
(-0.0233355 0 -0.00631759)
(-0.0238727 0 -0.00692651)
(-0.0234396 0 -0.00665941)
(-0.024011 0 -0.00729491)
(-0.0235609 0 -0.00701268)
(-0.0241713 0 -0.00767331)
(-0.0237019 0 -0.0073761)
(-0.0243567 0 -0.00805964)
(-0.0238652 0 -0.00774781)
(-0.0245706 0 -0.00845128)
(-0.024054 0 -0.00812538)
(-0.0248169 0 -0.00884497)
(-0.0242716 0 -0.00850579)
(-0.0251003 0 -0.00923674)
(-0.0245222 0 -0.00888537)
(-0.0254259 0 -0.00962175)
(-0.0248103 0 -0.00925961)
(-0.0257997 0 -0.00999406)
(-0.0251413 0 -0.00962302)
(-0.0262287 0 -0.0103464)
(-0.0255213 0 -0.00996887)
(-0.0267211 0 -0.0106697)
(-0.0259575 0 -0.0102889)
(-0.0272864 0 -0.0109527)
(-0.0264583 0 -0.0105728)
(-0.0279357 0 -0.0111815)
(-0.0270335 0 -0.0108078)
(-0.0286822 0 -0.0113379)
(-0.027695 0 -0.0109779)
(-0.0295414 0 -0.0113974)
(-0.028455 0 -0.0110622)
(-0.0307062 0 -0.0113115)
(-0.0294059 0 -0.0110282)
(-0.0320046 0 -0.0110359)
(-0.030575 0 -0.0108111)
(-0.0334476 0 -0.0105476)
(-0.0318772 0 -0.0103881)
(-0.0350472 0 -0.0098253)
(-0.0333229 0 -0.00973859)
(-0.0368169 0 -0.0088447)
(-0.0349251 0 -0.00883945)
(-0.0387713 0 -0.00757876)
(-0.0366965 0 -0.0076645)
(-0.0409265 0 -0.00599774)
(-0.0386513 0 -0.00618473)
(-0.0432997 0 -0.00406927)
(-0.0408055 0 -0.0043687)
(-0.0459097 0 -0.00175801)
(-0.0431766 0 -0.00218233)
(-0.0487767 0 0.000974902)
(-0.0457839 0 0.000411685)
(-0.0519223 0 0.00417223)
(-0.0486473 0 0.00345443)
(-0.0553688 0 0.00788046)
(-0.0517873 0 0.00699087)
(-0.0591387 0 0.0121495)
(-0.0552255 0 0.0110694)
(-0.0632541 0 0.0170329)
(-0.0589835 0 0.0157415)
(-0.0677364 0 0.0225888)
(-0.0630827 0 0.0210623)
(-0.072605 0 0.0288804)
(-0.0675426 0 0.0270919)
(-0.0778741 0 0.0359763)
(-0.0723782 0 0.033894)
(-0.0835467 0 0.0439476)
(-0.0776057 0 0.0415363)
(-0.089621 0 0.052858)
(-0.0832098 0 0.0500871)
(-0.0892026 0 0.0595978)
(-0.0224951 0 -0.00123729)
(-0.0221467 0 -0.00092554)
(-0.0225031 0 -0.00183694)
(-0.022168 0 -0.00154412)
(-0.0225139 0 -0.00238038)
(-0.0221684 0 -0.00211592)
(-0.0225273 0 -0.00285917)
(-0.0221799 0 -0.00262336)
(-0.0225433 0 -0.0032778)
(-0.0221941 0 -0.00306691)
(-0.0225622 0 -0.00364655)
(-0.0222107 0 -0.00345438)
(-0.0225848 0 -0.00397831)
(-0.0222302 0 -0.00379789)
(-0.0226117 0 -0.00428565)
(-0.0222533 0 -0.00411062)
(-0.0226442 0 -0.00457923)
(-0.022281 0 -0.00440428)
(-0.0226831 0 -0.00486756)
(-0.0223142 0 -0.00468845)
(-0.0227297 0 -0.00515714)
(-0.022354 0 -0.00497059)
(-0.0227852 0 -0.00545266)
(-0.0224016 0 -0.00525625)
(-0.0228509 0 -0.00575724)
(-0.0224581 0 -0.00554928)
(-0.0229284 0 -0.00607262)
(-0.0225249 0 -0.00585204)
(-0.0230193 0 -0.00639943)
(-0.0226036 0 -0.00616563)
(-0.0231255 0 -0.00673737)
(-0.0226957 0 -0.00649013)
(-0.0232492 0 -0.00708545)
(-0.0228032 0 -0.00682482)
(-0.0233927 0 -0.00744201)
(-0.0229283 0 -0.00716829)
(-0.0235588 0 -0.00780485)
(-0.0230733 0 -0.00751854)
(-0.0237505 0 -0.00817118)
(-0.023241 0 -0.00787301)
(-0.0239716 0 -0.00853754)
(-0.0234346 0 -0.0082285)
(-0.024226 0 -0.00889973)
(-0.0236576 0 -0.00858111)
(-0.0245185 0 -0.00925265)
(-0.0239142 0 -0.00892612)
(-0.0248545 0 -0.00959003)
(-0.0242093 0 -0.00925774)
(-0.0252405 0 -0.0099042)
(-0.0245482 0 -0.00956893)
(-0.0256838 0 -0.0101857)
(-0.0249376 0 -0.009851)
(-0.026193 0 -0.0104228)
(-0.0253851 0 -0.0100933)
(-0.0267783 0 -0.0106007)
(-0.0258993 0 -0.0102824)
(-0.0274516 0 -0.0107008)
(-0.0264911 0 -0.0104016)
(-0.0282272 0 -0.0106973)
(-0.0271716 0 -0.0104294)
(-0.0292794 0 -0.010529)
(-0.0280236 0 -0.0103267)
(-0.0304532 0 -0.0101646)
(-0.0290723 0 -0.0100286)
(-0.0317586 0 -0.00958036)
(-0.0302412 0 -0.00951779)
(-0.0332067 0 -0.00875396)
(-0.0315402 0 -0.00877316)
(-0.03481 0 -0.00766035)
(-0.0329807 0 -0.00777064)
(-0.0365817 0 -0.00627154)
(-0.0345743 0 -0.00648334)
(-0.0385365 0 -0.00455692)
(-0.0363343 0 -0.00488148)
(-0.0406903 0 -0.00248323)
(-0.0382751 0 -0.00293281)
(-0.0430603 0 -1.42995e-05)
(-0.0404131 0 -0.000602375)
(-0.0456648 0 0.00288952)
(-0.0427653 0 0.00214803)
(-0.0485235 0 0.00627157)
(-0.0453498 0 0.00536025)
(-0.0516568 0 0.0101787)
(-0.0481853 0 0.00907969)
(-0.055085 0 0.0146607)
(-0.0512915 0 0.0133548)
(-0.0588281 0 0.0197708)
(-0.0546885 0 0.0182369)
(-0.0629056 0 0.0255661)
(-0.0583955 0 0.0237806)
(-0.0673346 0 0.0321074)
(-0.0624302 0 0.0300446)
(-0.0721282 0 0.0394579)
(-0.0668062 0 0.0370897)
(-0.0772899 0 0.0476832)
(-0.0715387 0 0.0449775)
(-0.0828164 0 0.0568383)
(-0.0766194 0 0.0537714)
(-0.082055 0 0.0635106)
(-0.0218165 0 -0.00121758)
(-0.0214672 0 -0.000910354)
(-0.0218241 0 -0.00180944)
(-0.0214876 0 -0.00152045)
(-0.0218343 0 -0.00234678)
(-0.0214879 0 -0.00208576)
(-0.0218467 0 -0.00282052)
(-0.0214987 0 -0.00258827)
(-0.0218613 0 -0.00323427)
(-0.0215118 0 -0.00302759)
(-0.0218783 0 -0.00359756)
(-0.0215268 0 -0.00341063)
(-0.0218983 0 -0.00392279)
(-0.0215441 0 -0.00374889)
(-0.0219221 0 -0.00422233)
(-0.0215644 0 -0.00405518)
(-0.0219504 0 -0.00450682)
(-0.0215884 0 -0.00434112)
(-0.0219844 0 -0.00478486)
(-0.0216172 0 -0.00461634)
(-0.0220251 0 -0.005063)
(-0.0216515 0 -0.00488838)
(-0.0220735 0 -0.00534601)
(-0.0216925 0 -0.00516287)
(-0.0221309 0 -0.00563701)
(-0.0217412 0 -0.0054437)
(-0.0221987 0 -0.00593773)
(-0.0217989 0 -0.00573323)
(-0.0222783 0 -0.00624877)
(-0.0218669 0 -0.00603255)
(-0.0223714 0 -0.00656978)
(-0.0219467 0 -0.00634172)
(-0.02248 0 -0.00689966)
(-0.0220399 0 -0.00665991)
(-0.0226061 0 -0.00723667)
(-0.0221485 0 -0.00698566)
(-0.0227522 0 -0.00757846)
(-0.0222746 0 -0.00731684)
(-0.0229211 0 -0.00792208)
(-0.0224206 0 -0.00765076)
(-0.0231159 0 -0.00826392)
(-0.0225893 0 -0.00798406)
(-0.0233403 0 -0.00859955)
(-0.0227839 0 -0.00831267)
(-0.0235986 0 -0.00892362)
(-0.0230081 0 -0.00863163)
(-0.0238956 0 -0.00922958)
(-0.023266 0 -0.00893492)
(-0.024237 0 -0.00950941)
(-0.0235625 0 -0.00921518)
(-0.0246294 0 -0.00975326)
(-0.0239036 0 -0.00946339)
(-0.0250805 0 -0.00994891)
(-0.0242958 0 -0.00966845)
(-0.0255995 0 -0.0100811)
(-0.024747 0 -0.00981653)
(-0.026197 0 -0.0101303)
(-0.0252669 0 -0.00989029)
(-0.0268858 0 -0.0100699)
(-0.0258653 0 -0.00986736)
(-0.0278213 0 -0.00982713)
(-0.0266149 0 -0.00970306)
(-0.0288659 0 -0.00938257)
(-0.027539 0 -0.00933211)
(-0.0300287 0 -0.00871145)
(-0.0285701 0 -0.00874258)
(-0.0313198 0 -0.00779075)
(-0.0297171 0 -0.00791244)
(-0.0327504 0 -0.00659464)
(-0.0309902 0 -0.00681696)
(-0.0343325 0 -0.00509441)
(-0.0324 0 -0.00542856)
(-0.0360796 0 -0.00325863)
(-0.0339583 0 -0.00371676)
(-0.038006 0 -0.00105326)
(-0.0356784 0 -0.00164856)
(-0.0401272 0 0.00155869)
(-0.0375751 0 0.000811806)
(-0.0424601 0 0.0046176)
(-0.0396638 0 0.00370332)
(-0.0450225 0 0.00816736)
(-0.0419604 0 0.00706848)
(-0.0478327 0 0.012255)
(-0.044482 0 0.0109531)
(-0.0509093 0 0.0169305)
(-0.0472468 0 0.0154058)
(-0.0542707 0 0.0222467)
(-0.0502734 0 0.0204779)
(-0.0579351 0 0.0282597)
(-0.0535793 0 0.0262235)
(-0.0619184 0 0.0350284)
(-0.0571809 0 0.0327001)
(-0.0662333 0 0.0426119)
(-0.0610924 0 0.0399663)
(-0.0708858 0 0.0510702)
(-0.0653282 0 0.0480791)
(-0.0758745 0 0.0604515)
(-0.0698883 0 0.0570972)
(-0.074778 0 0.0670535)
(-0.0211354 0 -0.00119865)
(-0.0207877 0 -0.000895775)
(-0.0211427 0 -0.00178328)
(-0.0208071 0 -0.00149786)
(-0.0211523 0 -0.00231526)
(-0.0208073 0 -0.0020573)
(-0.0211638 0 -0.00278487)
(-0.0208173 0 -0.00255569)
(-0.0211771 0 -0.00319484)
(-0.0208293 0 -0.00299176)
(-0.0211923 0 -0.00355393)
(-0.0208427 0 -0.00337158)
(-0.0212098 0 -0.00387402)
(-0.0208578 0 -0.00370594)
(-0.0212303 0 -0.00416722)
(-0.0208752 0 -0.00400725)
(-0.0212546 0 -0.00444415)
(-0.0208956 0 -0.00428702)
(-0.0212836 0 -0.00471346)
(-0.0209197 0 -0.00455488)
(-0.0213182 0 -0.0049818)
(-0.0209484 0 -0.00481845)
(-0.0213594 0 -0.00525397)
(-0.0209827 0 -0.00508345)
(-0.0214082 0 -0.00553314)
(-0.0210234 0 -0.00535382)
(-0.021466 0 -0.00582105)
(-0.0210717 0 -0.00563196)
(-0.0215339 0 -0.00611827)
(-0.0211287 0 -0.00591895)
(-0.0216136 0 -0.00642442)
(-0.0211958 0 -0.0062148)
(-0.0217065 0 -0.00673831)
(-0.0212743 0 -0.00651867)
(-0.0218147 0 -0.00705812)
(-0.0213659 0 -0.00682899)
(-0.0219402 0 -0.00738138)
(-0.0214725 0 -0.00714357)
(-0.0220855 0 -0.007705)
(-0.0215962 0 -0.00745957)
(-0.0222533 0 -0.00802521)
(-0.0217394 0 -0.00777351)
(-0.0224469 0 -0.0083374)
(-0.0219048 0 -0.00808116)
(-0.0226699 0 -0.00863599)
(-0.0220955 0 -0.00837736)
(-0.0229266 0 -0.00891416)
(-0.0223152 0 -0.00865586)
(-0.0232221 0 -0.00916361)
(-0.0225681 0 -0.00890905)
(-0.023562 0 -0.0093741)
(-0.0228594 0 -0.0091276)
(-0.0239532 0 -0.00953301)
(-0.0231949 0 -0.00930003)
(-0.0244037 0 -0.00962454)
(-0.0235813 0 -0.00941208)
(-0.024923 0 -0.00962856)
(-0.0240271 0 -0.00944587)
(-0.0255224 0 -0.00951772)
(-0.0245408 0 -0.00937833)
(-0.0263374 0 -0.00920875)
(-0.025185 0 -0.00915971)
(-0.0272487 0 -0.00869284)
(-0.0259808 0 -0.00872458)
(-0.0282643 0 -0.00794431)
(-0.0268698 0 -0.00806554)
(-0.0293931 0 -0.00693945)
(-0.0278602 0 -0.00715987)
(-0.0306453 0 -0.00565177)
(-0.0289609 0 -0.00598219)
(-0.0320316 0 -0.00405192)
(-0.0301811 0 -0.00450429)
(-0.0335642 0 -0.00210779)
(-0.0315316 0 -0.00269506)
(-0.0352558 0 0.000215377)
(-0.0330244 0 -0.000520814)
(-0.0371205 0 0.00295535)
(-0.0346726 0 0.00205496)
(-0.0391734 0 0.00615323)
(-0.0364898 0 0.00507195)
(-0.0414307 0 0.00985345)
(-0.0384903 0 0.00857329)
(-0.0439088 0 0.0141033)
(-0.0406894 0 0.0126052)
(-0.0466247 0 0.0189528)
(-0.0431041 0 0.0172164)
(-0.0495956 0 0.0244547)
(-0.0457514 0 0.0224585)
(-0.0528388 0 0.0306646)
(-0.0486476 0 0.0283856)
(-0.0563698 0 0.0376397)
(-0.0518086 0 0.0350541)
(-0.0602021 0 0.0454363)
(-0.0552493 0 0.0425212)
(-0.0643451 0 0.0541103)
(-0.0589852 0 0.0508411)
(-0.0688021 0 0.0637054)
(-0.0630243 0 0.0600685)
(-0.0673739 0 0.070235)
(-0.0204566 0 -0.00118061)
(-0.020113 0 -0.00088206)
(-0.0204634 0 -0.00175853)
(-0.0201312 0 -0.0014767)
(-0.0204723 0 -0.00228584)
(-0.0201312 0 -0.00203092)
(-0.0204828 0 -0.00275219)
(-0.0201402 0 -0.00252596)
(-0.0204947 0 -0.00315946)
(-0.0201508 0 -0.00295975)
(-0.020508 0 -0.00351564)
(-0.0201624 0 -0.0033375)
(-0.0205229 0 -0.00383203)
(-0.0201751 0 -0.0036693)
(-0.0205401 0 -0.00412043)
(-0.0201895 0 -0.00396712)
(-0.0205602 0 -0.00439142)
(-0.020206 0 -0.00424227)
(-0.020584 0 -0.00465365)
(-0.0202253 0 -0.00450439)
(-0.0206123 0 -0.00491387)
(-0.0202482 0 -0.00476118)
(-0.0206461 0 -0.00517695)
(-0.0202755 0 -0.00501842)
(-0.0206861 0 -0.00544612)
(-0.020308 0 -0.00528013)
(-0.0207336 0 -0.00572312)
(-0.0203466 0 -0.00554875)
(-0.0207895 0 -0.00600854)
(-0.0203924 0 -0.00582537)
(-0.0208553 0 -0.00630194)
(-0.0204463 0 -0.00611)
(-0.0209323 0 -0.00660211)
(-0.0205098 0 -0.00640176)
(-0.021022 0 -0.00690712)
(-0.020584 0 -0.00669902)
(-0.0211264 0 -0.00721442)
(-0.0206706 0 -0.0069995)
(-0.0212474 0 -0.00752081)
(-0.0207714 0 -0.00730029)
(-0.0213874 0 -0.00782236)
(-0.0208884 0 -0.00759777)
(-0.0215493 0 -0.00811431)
(-0.0210237 0 -0.00788757)
(-0.0217361 0 -0.00839088)
(-0.0211802 0 -0.00816438)
(-0.0219515 0 -0.00864503)
(-0.0213607 0 -0.00842175)
(-0.0221997 0 -0.00886817)
(-0.021569 0 -0.00865182)
(-0.0224858 0 -0.00904978)
(-0.0218093 0 -0.00884502)
(-0.0228155 0 -0.00917683)
(-0.0220866 0 -0.00898952)
(-0.0231958 0 -0.00923307)
(-0.0224066 0 -0.00907071)
(-0.0236347 0 -0.00919779)
(-0.0227765 0 -0.0090702)
(-0.0241422 0 -0.00904293)
(-0.0232034 0 -0.00896431)
(-0.0248333 0 -0.00867621)
(-0.0237394 0 -0.00869891)
(-0.0256075 0 -0.00809801)
(-0.0244036 0 -0.00820849)
(-0.0264715 0 -0.00728185)
(-0.0251467 0 -0.0074895)
(-0.0274335 0 -0.00620337)
(-0.0259763 0 -0.00651856)
(-0.0285022 0 -0.00483549)
(-0.0268999 0 -0.00526973)
(-0.0296872 0 -0.00314827)
(-0.0279256 0 -0.00371426)
(-0.0309991 0 -0.00110898)
(-0.0290628 0 -0.00182045)
(-0.0324493 0 0.00131782)
(-0.0303222 0 0.000446004)
(-0.0340504 0 0.00417059)
(-0.0317153 0 0.0031223)
(-0.0358157 0 0.00749111)
(-0.033254 0 0.00624883)
(-0.0377597 0 0.0113243)
(-0.0349507 0 0.00986927)
(-0.0398973 0 0.0157178)
(-0.0368196 0 0.0140303)
(-0.0422441 0 0.0207219)
(-0.038876 0 0.0187809)
(-0.0448161 0 0.0263894)
(-0.0411357 0 0.0241732)
(-0.04763 0 0.0327757)
(-0.0436138 0 0.0302615)
(-0.0507016 0 0.0399372)
(-0.046326 0 0.0371019)
(-0.0540458 0 0.0479286)
(-0.049289 0 0.0447508)
(-0.0576761 0 0.0568032)
(-0.0525192 0 0.0532613)
(-0.0616022 0 0.0666033)
(-0.0560325 0 0.062686)
(-0.0598415 0 0.0730582)
(-0.0197851 0 -0.00116396)
(-0.0194475 0 -0.000869671)
(-0.0197912 0 -0.00173587)
(-0.0194643 0 -0.00145771)
(-0.0197991 0 -0.00225923)
(-0.0194638 0 -0.00200749)
(-0.0198083 0 -0.00272317)
(-0.0194715 0 -0.0025)
(-0.0198184 0 -0.00312878)
(-0.0194804 0 -0.00293244)
(-0.0198294 0 -0.00348326)
(-0.0194897 0 -0.0033092)
(-0.0198415 0 -0.00379732)
(-0.0194997 0 -0.00363969)
(-0.0198551 0 -0.00408243)
(-0.0195107 0 -0.00393539)
(-0.0198707 0 -0.00434904)
(-0.019523 0 -0.00420743)
(-0.0198891 0 -0.00460585)
(-0.0195373 0 -0.00446538)
(-0.0199109 0 -0.00485966)
(-0.0195541 0 -0.00471703)
(-0.0199369 0 -0.00511543)
(-0.0195742 0 -0.00496823)
(-0.0199679 0 -0.00537644)
(-0.0195983 0 -0.00522309)
(-0.0200048 0 -0.00564449)
(-0.019627 0 -0.00548409)
(-0.0200485 0 -0.00592014)
(-0.0196612 0 -0.00575235)
(-0.0201 0 -0.00620298)
(-0.0197017 0 -0.00602788)
(-0.0201605 0 -0.00649171)
(-0.0197497 0 -0.00630979)
(-0.0202314 0 -0.00678439)
(-0.0198062 0 -0.00659639)
(-0.0203141 0 -0.00707836)
(-0.0198724 0 -0.00688535)
(-0.0204103 0 -0.00737034)
(-0.0199498 0 -0.00717366)
(-0.0205219 0 -0.00765627)
(-0.0200399 0 -0.00745764)
(-0.0206514 0 -0.00793126)
(-0.0201447 0 -0.00773278)
(-0.0208011 0 -0.00818935)
(-0.0202661 0 -0.00799363)
(-0.0209742 0 -0.00842332)
(-0.0204067 0 -0.00823359)
(-0.0211742 0 -0.00862435)
(-0.0205693 0 -0.00844461)
(-0.0214051 0 -0.00878164)
(-0.0207576 0 -0.00861686)
(-0.0216719 0 -0.00888183)
(-0.0209755 0 -0.00873827)
(-0.0219803 0 -0.00890827)
(-0.0212277 0 -0.00879388)
(-0.0223371 0 -0.00883973)
(-0.0215199 0 -0.00876489)
(-0.0227504 0 -0.00864754)
(-0.0218583 0 -0.00862709)
(-0.0233147 0 -0.00823178)
(-0.0222837 0 -0.00832266)
(-0.0239483 0 -0.0076006)
(-0.0228132 0 -0.00778606)
(-0.0246572 0 -0.00672685)
(-0.0234073 0 -0.0070169)
(-0.0254482 0 -0.00558558)
(-0.0240724 0 -0.00599123)
(-0.0263289 0 -0.00414918)
(-0.0248149 0 -0.00468261)
(-0.0273075 0 -0.00238715)
(-0.0256416 0 -0.0030618)
(-0.0283934 0 -0.000266214)
(-0.0265606 0 -0.00109658)
(-0.0295962 0 0.0022497)
(-0.0275812 0 0.00124793)
(-0.0309271 0 0.00519972)
(-0.0287134 0 0.00400955)
(-0.0323979 0 0.00862622)
(-0.0299671 0 0.00722932)
(-0.0340213 0 0.0125746)
(-0.0313534 0 0.0109515)
(-0.0358107 0 0.017093)
(-0.0328846 0 0.0152232)
(-0.0377803 0 0.0222321)
(-0.0345751 0 0.020094)
(-0.0399452 0 0.0280453)
(-0.036439 0 0.0256165)
(-0.0423216 0 0.034588)
(-0.0384907 0 0.0318457)
(-0.0449258 0 0.0419165)
(-0.0407459 0 0.0388381)
(-0.0477747 0 0.0500852)
(-0.0432225 0 0.04665)
(-0.0508856 0 0.0591468)
(-0.0459388 0 0.0553352)
(-0.0542757 0 0.0691445)
(-0.0489174 0 0.064946)
(-0.0521779 0 0.0755201)
(-0.0191245 0 -0.00114938)
(-0.0187942 0 -0.000859055)
(-0.0191296 0 -0.00171621)
(-0.0188094 0 -0.00144161)
(-0.0191362 0 -0.00223651)
(-0.0188081 0 -0.00198797)
(-0.0191437 0 -0.00269895)
(-0.0188142 0 -0.00247889)
(-0.0191516 0 -0.00310388)
(-0.018821 0 -0.00291093)
(-0.01916 0 -0.00345777)
(-0.0188278 0 -0.00328772)
(-0.0191688 0 -0.00377074)
(-0.0188348 0 -0.00361801)
(-0.0191785 0 -0.00405393)
(-0.018842 0 -0.00391286)
(-0.0191894 0 -0.00431765)
(-0.0188499 0 -0.00418314)
(-0.0192021 0 -0.0045706)
(-0.0188589 0 -0.00443842)
(-0.0192172 0 -0.00481966)
(-0.0188694 0 -0.00468651)
(-0.0192353 0 -0.00506988)
(-0.0188821 0 -0.00493337)
(-0.0192569 0 -0.00532458)
(-0.0188974 0 -0.00518316)