/*--------------------------------*- C++ -*----------------------------------*\
  =========                 |
  \\      /  F ield         | OpenFOAM: The Open Source CFD Toolbox
   \\    /   O peration     | Website:  https://openfoam.org
    \\  /    A nd           | Version:  9
     \\/     M anipulation  |
\*---------------------------------------------------------------------------*/
FoamFile
{
    format      ascii;
    class       volScalarField;
    location    "0.12";
    object      alpha.water;
}
// * * * * * * * * * * * * * * * * * * * * * * * * * * * * * * * * * * * * * //

dimensions      [0 0 0 0 0 0 0];

internalField   nonuniform List<scalar> 
5000
(
-1.97716e-62
-6.94185e-62
-3.30888e-61
-1.66429e-60
-8.75031e-60
-4.80183e-59
-2.74681e-58
-1.63597e-57
-1.01335e-56
-6.52144e-56
-4.35618e-55
-3.01757e-54
-2.16583e-53
-1.60932e-52
-1.23693e-51
-9.82566e-51
-8.05936e-50
-6.81945e-49
-5.9465e-48
-5.33764e-47
-4.9258e-46
-4.66706e-45
-4.53284e-44
-4.5049e-43
-4.57189e-42
-4.72682e-41
-4.96485e-40
-5.28114e-39
-5.66855e-38
-6.11538e-37
-6.62057e-36
-8.14261e-35
-9.46444e-34
-1.03208e-32
-1.04705e-31
-9.77935e-31
-8.2997e-30
-6.29742e-29
-4.18742e-28
-2.38317e-27
-1.1318e-26
-4.39718e-26
-1.39492e-25
-3.522e-25
-4.08477e-25
-1.54133e-26
1.29301e-24
4.46323e-23
1.25546e-21
1.73691e-20
-6.27743e-62
-2.15008e-61
-1.00459e-60
-4.95909e-60
-2.56104e-59
-1.38153e-58
-7.77428e-58
-4.5578e-57
-2.78044e-56
-1.76293e-55
-1.16053e-54
-7.92382e-54
-5.60604e-53
-4.10599e-52
-3.11047e-51
-2.43491e-50
-1.96779e-49
-1.64017e-48
-1.40851e-47
-1.2448e-46
-1.13076e-45
-1.05434e-44
-1.00754e-43
-9.85021e-43
-9.83241e-42
-9.99742e-41
-1.03265e-39
-1.08019e-38
-1.14024e-37
-1.20996e-36
-1.28886e-35
-1.55984e-34
-1.78531e-33
-1.91861e-32
-1.92018e-31
-1.77145e-30
-1.48716e-29
-1.11782e-28
-7.36933e-28
-4.15136e-27
-1.93399e-26
-7.1647e-26
-2.02281e-25
-4.09337e-25
-3.67841e-25
-1.32106e-26
5.32499e-25
1.68224e-23
4.06171e-22
7.07461e-21
-1.89153e-61
-6.32154e-61
-2.89487e-60
-1.40209e-59
-7.10934e-59
-3.76819e-58
-2.08498e-57
-1.20269e-56
-7.22297e-56
-4.51065e-55
-2.92555e-54
-1.96849e-53
-1.37264e-52
-9.90906e-52
-7.39835e-51
-5.70737e-50
-4.54472e-49
-3.73167e-48
-3.15616e-47
-2.7465e-46
-2.45599e-45
-2.25376e-44
-2.11914e-43
-2.03814e-42
-2.00109e-41
-2.00109e-40
-2.03272e-39
-2.09111e-38
-2.17107e-37
-2.26643e-36
-2.37603e-35
-2.83082e-34
-3.19235e-33
-3.38401e-32
-3.34547e-31
-3.05435e-30
-2.54367e-29
-1.90239e-28
-1.25243e-27
-7.07234e-27
-3.31004e-26
-1.22551e-25
-3.35491e-25
-5.98422e-25
-3.59409e-25
-1.47709e-26
3.59973e-25
1.53826e-23
4.42372e-22
8.32589e-21
-5.42903e-61
-1.77157e-60
-7.95261e-60
-3.77897e-59
-1.88095e-58
-9.79276e-58
-5.32586e-57
-3.02161e-56
-1.78589e-55
-1.09812e-54
-7.01556e-54
-4.65113e-53
-3.19617e-52
-2.27402e-51
-1.67334e-50
-1.27216e-49
-9.98183e-49
-8.07467e-48
-6.72676e-47
-5.7643e-46
-5.07463e-45
-4.58339e-44
-4.2407e-43
-4.0125e-42
-3.87502e-41
-3.81099e-40
-3.80698e-39
-3.85135e-38
-3.93264e-37
-4.03853e-36
-4.16674e-35
-4.88702e-34
-5.43057e-33
-5.67941e-32
-5.5483e-31
-5.01615e-30
-4.14832e-29
-3.09224e-28
-2.0389e-27
-1.16034e-26
-5.51475e-26
-2.08903e-25
-5.85726e-25
-1.03838e-24
-4.82528e-25
-2.65902e-26
8.66219e-25
4.77751e-23
1.06211e-21
2.78365e-20
-1.4875e-60
-4.74368e-60
-2.08824e-59
-9.73712e-59
-4.75743e-58
-2.43248e-57
-1.29998e-56
-7.25194e-56
-4.21692e-55
-2.55239e-54
-1.60587e-53
-1.04883e-52
-7.10206e-52
-4.97987e-51
-3.6116e-50
-2.70606e-49
-2.0924e-48
-1.66776e-47
-1.36868e-46
-1.15513e-45
-1.0013e-44
-8.90258e-44
-8.10629e-43
-7.5466e-42
-7.16916e-41
-6.93451e-40
-6.81229e-39
-6.77708e-38
-6.80545e-37
-6.87416e-36
-6.97898e-35
-8.05656e-34
-8.81996e-33
-9.09846e-32
-8.78142e-31
-7.86031e-30
-6.45411e-29
-4.7949e-28
-3.16707e-27
-1.81789e-26
-8.79367e-26
-3.43024e-25
-1.00394e-24
-1.87885e-24
-9.29592e-25
-5.95003e-26
2.13114e-24
1.5138e-22
2.67821e-21
7.42611e-20
-3.8991e-60
-1.21656e-59
-5.25493e-59
-2.40524e-58
-1.15373e-57
-5.7933e-57
-3.04198e-56
-1.66822e-55
-9.54155e-55
-5.68365e-54
-3.5209e-53
-2.26508e-52
-1.51121e-51
-1.04426e-50
-7.46428e-50
-5.51231e-49
-4.20075e-48
-3.29951e-47
-2.66795e-46
-2.21807e-45
-1.89355e-44
-1.65759e-43
-1.48566e-42
-1.36104e-41
-1.27205e-40
-1.21026e-39
-1.16926e-38
-1.14388e-37
-1.12957e-36
-1.12214e-35
-1.12082e-34
-1.27316e-33
-1.37265e-32
-1.39608e-31
-1.33047e-30
-1.17828e-29
-9.59785e-29
-7.09912e-28
-4.691e-27
-2.71133e-26
-1.33228e-25
-5.34167e-25
-1.63253e-24
-3.26702e-24
-1.97288e-24
-1.22958e-25
4.09301e-24
3.31363e-22
6.17135e-21
2.1866e-19
-9.7963e-60
-2.99429e-59
-1.27004e-58
-5.70926e-58
-2.68951e-57
-1.32648e-56
-6.84344e-56
-3.68898e-55
-2.07504e-54
-1.21622e-53
-7.41702e-53
-4.69929e-52
-3.08884e-51
-2.10335e-50
-1.48181e-49
-1.07863e-48
-8.10215e-48
-6.27225e-47
-4.99798e-46
-4.09405e-45
-3.44284e-44
-2.96805e-43
-2.61908e-42
-2.36166e-41
-2.17196e-40
-2.03291e-39
-1.93179e-38
-1.85853e-37
-1.80474e-36
-1.76312e-35
-1.73225e-34
-1.93563e-33
-2.05441e-32
-2.05897e-31
-1.93614e-30
-1.69492e-29
-1.36802e-28
-1.00588e-27
-6.63613e-27
-3.85186e-26
-1.91569e-25
-7.85668e-25
-2.4927e-24
-5.30954e-24
-3.92761e-24
-2.97385e-25
7.50025e-24
6.04759e-22
1.49579e-20
8.95152e-19
-2.36302e-59
-7.08491e-59
-2.95333e-58
-1.30477e-57
-6.03917e-57
-2.92642e-56
-1.48359e-55
-7.86111e-55
-4.34835e-54
-2.50749e-53
-1.50517e-52
-9.39101e-52
-6.0808e-51
-4.08029e-50
-2.83322e-49
-2.03294e-48
-1.50533e-47
-1.14874e-46
-9.02236e-46
-7.28347e-45
-6.03497e-44
-5.12506e-43
-4.4538e-42
-3.95394e-41
-3.57909e-40
-3.29634e-39
-3.08146e-38
-2.91586e-37
-2.78454e-36
-2.67513e-35
-2.58504e-34
-2.84079e-33
-2.96707e-32
-2.9287e-31
-2.71544e-30
-2.3475e-29
-1.87506e-28
-1.36824e-27
-8.99238e-27
-5.22617e-26
-2.6203e-25
-1.09342e-24
-3.57658e-24
-8.04306e-24
-7.10955e-24
-3.96003e-25
1.50286e-23
1.35579e-21
4.93802e-20
3.12605e-18
-5.48068e-59
-1.61401e-58
-6.61796e-58
-2.87558e-57
-1.3085e-56
-6.23224e-56
-3.1055e-55
-1.61767e-54
-8.79952e-54
-4.99201e-53
-2.94929e-52
-1.81187e-51
-1.15566e-50
-7.64118e-50
-5.22951e-49
-3.69905e-48
-2.70039e-47
-2.03167e-46
-1.57312e-45
-1.25183e-44
-1.02228e-43
-8.55436e-43
-7.32327e-42
-6.40281e-41
-5.70629e-40
-5.17281e-39
-4.75825e-38
-4.42941e-37
-4.16043e-36
-3.93086e-35
-3.73585e-34
-4.03703e-33
-4.14813e-32
-4.03078e-31
-3.68258e-30
-3.1411e-29
-2.47988e-28
-1.79297e-27
-1.17139e-26
-6.79716e-26
-3.42275e-25
-1.44608e-24
-4.84591e-24
-1.14148e-23
-1.17448e-23
-4.84424e-25
3.73865e-23
3.21965e-21
1.35478e-19
6.26609e-18
-1.22404e-58
-3.54496e-58
-1.43106e-57
-6.12041e-57
-2.73979e-56
-1.28328e-55
-6.2874e-55
-3.22041e-54
-1.72285e-53
-9.61549e-53
-5.59102e-52
-3.38188e-51
-2.12468e-50
-1.38423e-49
-9.33732e-49
-6.5112e-48
-4.6867e-47
-3.47691e-46
-2.65461e-45
-2.08279e-44
-1.67679e-43
-1.383e-42
-1.16672e-41
-1.00495e-40
-8.821e-40
-7.87319e-39
-7.12858e-38
-6.53001e-37
-6.03411e-36
-5.60779e-35
-5.24216e-34
-5.57016e-33
-5.62977e-32
-5.38366e-31
-4.84414e-30
-4.07365e-29
-3.17552e-28
-2.27158e-27
-1.47242e-26
-8.50888e-26
-4.28891e-25
-1.82668e-24
-6.23702e-24
-1.52814e-23
-1.79153e-23
-9.17076e-25
8.86606e-23
5.60646e-21
2.2718e-19
8.24801e-18
-2.63614e-58
-7.51669e-58
-2.99005e-57
-1.25971e-56
-5.55138e-56
-2.5585e-55
-1.23307e-54
-6.21208e-54
-3.26901e-53
-1.79507e-52
-1.02726e-51
-6.11776e-51
-3.78567e-50
-2.43015e-49
-1.6157e-48
-1.11078e-47
-7.88392e-47
-5.76801e-46
-4.34317e-45
-3.36059e-44
-2.66791e-43
-2.16957e-42
-1.80422e-41
-1.53157e-40
-1.32452e-39
-1.16443e-38
-1.03814e-37
-9.36117e-37
-8.51278e-36
-7.78377e-35
-7.1582e-34
-7.4797e-33
-7.43579e-32
-6.99662e-31
-6.19794e-30
-5.13572e-29
-3.94953e-28
-2.79194e-27
-1.79257e-26
-1.02938e-25
-5.17875e-25
-2.21528e-24
-7.67067e-24
-1.94293e-23
-2.54441e-23
-2.0397e-24
1.56982e-22
7.61512e-21
2.7441e-19
8.65556e-18
-5.48239e-58
-1.54069e-57
-6.04405e-57
-2.51032e-56
-1.08985e-55
-4.94543e-55
-2.34572e-54
-1.16277e-53
-6.02032e-53
-3.25299e-52
-1.83227e-51
-1.07435e-50
-6.54793e-50
-4.14154e-49
-2.71397e-48
-1.83955e-47
-1.28755e-46
-9.29084e-46
-6.90052e-45
-5.26676e-44
-4.12412e-43
-3.30766e-42
-2.7124e-41
-2.26999e-40
-1.93491e-39
-1.67614e-38
-1.47204e-37
-1.30715e-36
-1.17023e-35
-1.05311e-34
-9.53028e-34
-9.79478e-33
-9.57853e-32
-8.86792e-31
-7.73247e-30
-6.31089e-29
-4.78489e-28
-3.33941e-27
-2.12092e-26
-1.20805e-25
-6.05135e-25
-2.59157e-24
-9.06319e-24
-2.36008e-23
-3.39641e-23
-1.64118e-24
1.8431e-22
8.46176e-21
2.86721e-19
8.23396e-18
-1.10258e-57
-3.05657e-57
-1.18341e-56
-4.8492e-56
-2.07553e-55
-9.2789e-55
-4.33384e-54
-2.11467e-53
-1.07758e-52
-5.73056e-52
-3.17726e-51
-1.83433e-50
-1.10114e-49
-6.86216e-49
-4.43217e-48
-2.96191e-47
-2.0445e-46
-1.45522e-45
-1.06626e-44
-8.02894e-44
-6.20269e-43
-4.90767e-42
-3.96972e-41
-3.27648e-40
-2.75377e-39
-2.35152e-38
-2.0352e-37
-1.78046e-36
-1.56986e-35
-1.39099e-34
-1.23915e-33
-1.25299e-32
-1.20561e-31
-1.09834e-30
-9.42666e-30
-7.57635e-29
-5.66102e-28
-3.89788e-27
-2.44633e-26
-1.38006e-25
-6.86913e-25
-2.93725e-24
-1.03373e-23
-2.75361e-23
-4.30766e-23
-6.76341e-25
1.85635e-22
8.24019e-21
2.65075e-19
6.91163e-18
-2.14735e-57
-5.87658e-57
-2.24702e-56
-9.09045e-56
-3.83854e-55
-1.6918e-54
-7.78539e-54
-3.74117e-53
-1.87694e-52
-9.82628e-52
-5.36366e-51
-3.04917e-50
-1.80287e-49
-1.107e-48
-7.04717e-48
-4.64328e-47
-3.16097e-46
-2.21944e-45
-1.60448e-44
-1.19217e-43
-9.08829e-43
-7.09565e-42
-5.66315e-41
-4.61135e-40
-3.82288e-39
-3.21928e-38
-2.74694e-37
-2.36856e-36
-2.05776e-35
-1.79599e-34
-1.57563e-33
-1.56812e-32
-1.485e-31
-1.33156e-30
-1.125e-29
-8.90373e-29
-6.55488e-28
-4.45077e-27
-2.75817e-26
-1.53932e-25
-7.60071e-25
-3.23761e-24
-1.14298e-23
-3.09939e-23
-5.21284e-23
-9.90415e-25
1.59279e-22
7.17276e-21
2.08715e-19
4.91192e-18
-4.05554e-57
-1.0963e-56
-4.14237e-56
-1.65558e-55
-6.90148e-55
-3.00069e-54
-1.36132e-53
-6.44563e-53
-3.18507e-52
-1.64201e-51
-8.82571e-51
-4.94103e-50
-2.87768e-49
-1.74098e-48
-1.09238e-47
-7.09645e-47
-4.76463e-46
-3.30034e-45
-2.35423e-44
-1.72629e-43
-1.29886e-42
-1.00089e-41
-7.88401e-41
-6.33541e-40
-5.18243e-39
-4.3054e-38
-3.62344e-37
-3.08077e-36
-2.63845e-35
-2.26939e-34
-1.96157e-33
-1.92227e-32
-1.79234e-31
-1.58234e-30
-1.31634e-29
-1.02601e-28
-7.44189e-28
-4.98178e-27
-3.04685e-26
-1.68079e-25
-8.22235e-25
-3.4823e-24
-1.22966e-23
-3.37831e-23
-6.03927e-23
-9.5416e-24
1.06998e-22
5.19308e-21
1.3943e-19
3.10129e-18
-7.43802e-57
-1.98691e-56
-7.42252e-56
-2.93242e-55
-1.20753e-54
-5.18254e-54
-2.31926e-53
-1.08257e-52
-5.27123e-52
-2.67692e-51
-1.41714e-50
-7.81433e-50
-4.48326e-49
-2.67257e-48
-1.65282e-47
-1.05865e-46
-7.01034e-46
-4.79064e-45
-3.3722e-44
-2.44057e-43
-1.81262e-42
-1.37888e-41
-1.07224e-40
-8.50548e-40
-6.86742e-39
-5.63049e-38
-4.67566e-37
-3.92168e-36
-3.31239e-35
-2.80904e-34
-2.39335e-33
-2.31052e-32
-2.1221e-31
-1.84528e-30
-1.51199e-29
-1.16091e-28
-8.29697e-28
-5.47552e-27
-3.30407e-26
-1.80058e-25
-8.71824e-25
-3.66544e-24
-1.29144e-23
-3.57824e-23
-6.70235e-23
-3.25334e-23
6.50413e-23
3.26029e-21
8.41239e-20
1.86091e-18
-1.3266e-56
-3.50275e-56
-1.2942e-55
-5.05667e-55
-2.05808e-54
-8.72424e-54
-3.85347e-53
-1.77417e-52
-8.51632e-52
-4.26189e-51
-2.22282e-50
-1.20747e-49
-6.825e-49
-4.00909e-48
-2.44381e-47
-1.54332e-46
-1.00796e-45
-6.79572e-45
-4.72074e-44
-3.37239e-43
-2.47273e-42
-1.85723e-41
-1.42601e-40
-1.11691e-39
-8.90386e-39
-7.20692e-38
-5.90745e-37
-4.88991e-36
-4.07515e-35
-3.40895e-34
-2.8644e-33
-2.72548e-32
-2.46693e-31
-2.11383e-30
-1.70668e-29
-1.29126e-28
-9.09541e-28
-5.918e-27
-3.52304e-26
-1.89598e-25
-9.07984e-25
-3.78509e-24
-1.32786e-23
-3.69528e-23
-7.15216e-23
-5.3012e-23
3.56605e-23
1.89394e-21
4.86928e-20
1.10152e-18
-2.30419e-56
-6.01387e-56
-2.19829e-55
-8.49792e-55
-3.42018e-54
-1.43276e-53
-6.24966e-53
-2.83968e-52
-1.34441e-51
-6.6326e-51
-3.40914e-50
-1.82476e-49
-1.01629e-48
-5.88302e-48
-3.53478e-47
-2.20098e-46
-1.41779e-45
-9.4307e-45
-6.46529e-44
-4.55927e-43
-3.30066e-42
-2.44806e-41
-1.8563e-40
-1.43592e-39
-1.13049e-38
-9.03631e-38
-7.31385e-37
-5.97706e-36
-4.91686e-35
-4.05906e-34
-3.36521e-33
-3.15749e-32
-2.81795e-31
-2.38052e-30
-1.89473e-29
-1.41318e-28
-9.81383e-28
-6.297e-27
-3.69849e-26
-1.96531e-25
-9.30489e-25
-3.84258e-24
-1.34003e-23
-3.73269e-23
-7.38093e-23
-6.729e-23
1.46927e-23
1.05941e-21
2.79144e-20
6.55697e-19
-3.90326e-56
-1.00683e-55
-3.64153e-55
-1.39319e-54
-5.54715e-54
-2.29755e-53
-9.90227e-53
-4.44263e-52
-2.0755e-51
-1.00985e-50
-5.11709e-50
-2.69948e-49
-1.48167e-48
-8.45314e-48
-5.00657e-47
-3.07375e-46
-1.95285e-45
-1.28159e-44
-8.67108e-44
-6.03644e-43
-4.31507e-42
-3.16074e-41
-2.36729e-40
-1.80886e-39
-1.40677e-38
-1.11075e-37
-8.88e-37
-7.16722e-36
-5.82214e-35
-4.74536e-34
-3.88357e-33
-3.59498e-32
-3.16507e-31
-2.63734e-30
-2.07036e-29
-1.52294e-28
-1.04311e-27
-6.60246e-27
-3.82674e-26
-2.00786e-25
-9.39614e-25
-3.84157e-24
-1.33006e-23
-3.69861e-23
-7.40927e-23
-7.55186e-23
1.37443e-24
5.84977e-22
1.62243e-20
3.99344e-19
-6.45841e-56
-1.64575e-55
-5.88965e-55
-2.23051e-54
-8.78875e-54
-3.60063e-53
-1.53406e-52
-6.79922e-52
-3.13593e-51
-1.50547e-50
-7.52316e-50
-3.9127e-49
-2.11685e-48
-1.1904e-47
-6.95033e-47
-4.20744e-46
-2.6365e-45
-1.70709e-44
-1.1399e-43
-7.83411e-43
-5.53e-42
-4.0008e-41
-2.96006e-40
-2.23456e-39
-1.71703e-38
-1.33952e-37
-1.05806e-36
-8.43701e-36
-6.77038e-35
-5.45038e-34
-4.4051e-33
-4.02496e-32
-3.49751e-31
-2.87612e-30
-2.22796e-29
-1.61712e-28
-1.09292e-27
-6.82673e-27
-3.90567e-26
-2.02378e-25
-9.36028e-25
-3.78735e-24
-1.30072e-23
-3.6037e-23
-7.27075e-23
-7.89207e-23
-9.50572e-41
3.23204e-22
9.81086e-21
2.53085e-19
-1.04544e-55
-2.63e-55
-9.31113e-55
-3.49088e-54
-1.36152e-53
-5.51931e-53
-2.32558e-52
-1.01873e-51
-4.64083e-51
-2.19917e-50
-1.08421e-49
-5.56084e-49
-2.96616e-48
-1.64437e-47
-9.4653e-47
-5.64999e-46
-3.49198e-45
-2.23073e-44
-1.4701e-43
-9.97458e-43
-6.95307e-42
-4.96879e-41
-3.63196e-40
-2.70915e-39
-2.05714e-38
-1.58599e-37
-1.23806e-36
-9.7563e-36
-7.73657e-35
-6.15394e-34
-4.91392e-33
-4.43376e-32
-3.8044e-31
-3.08896e-30
-2.3624e-29
-1.69279e-28
-1.12942e-27
-6.96486e-27
-3.93468e-26
-2.01395e-25
-9.20699e-25
-3.68614e-24
-1.25501e-23
-3.45938e-23
-7.0018e-23
-7.89191e-23
-1.15055e-24
1.83255e-22
6.31674e-21
1.68811e-19
-1.65834e-55
-4.11456e-55
-1.44059e-54
-5.34638e-54
-2.06428e-53
-8.2823e-53
-3.45252e-52
-1.49541e-51
-6.73165e-51
-3.15016e-50
-1.53279e-49
-7.7553e-49
-4.07943e-48
-2.22986e-47
-1.26555e-46
-7.44931e-46
-4.5411e-45
-2.8621e-44
-1.86154e-43
-1.24695e-42
-8.58403e-42
-6.05956e-41
-4.37627e-40
-3.22587e-39
-2.42094e-38
-1.8449e-37
-1.42359e-36
-1.10894e-35
-8.69249e-35
-6.83425e-34
-5.39361e-33
-4.80777e-32
-4.07542e-31
-3.26876e-30
-2.46932e-29
-1.74764e-28
-1.15165e-27
-7.01472e-27
-3.91468e-26
-1.9799e-25
-8.94813e-25
-3.5447e-24
-1.19597e-23
-3.27671e-23
-6.63591e-23
-7.66074e-23
-1.71979e-24
1.08744e-22
4.37026e-21
1.18764e-19
-2.58235e-55
-6.31098e-55
-2.18393e-54
-8.02138e-54
-3.066e-53
-1.21771e-52
-5.02337e-52
-2.15219e-51
-9.57735e-51
-4.42779e-50
-2.12717e-49
-1.06207e-48
-5.51084e-48
-2.97066e-47
-1.66256e-46
-9.65074e-46
-5.80277e-45
-3.60833e-44
-2.31622e-43
-1.53175e-42
-1.04135e-41
-7.26173e-41
-5.18209e-40
-3.77519e-39
-2.80053e-38
-2.10982e-37
-1.6096e-36
-1.23972e-35
-9.60832e-35
-7.46917e-34
-5.82809e-33
-5.1343e-32
-4.30137e-31
-3.40957e-30
-2.54537e-29
-1.78017e-28
-1.15919e-27
-6.97709e-27
-3.84798e-26
-1.92371e-25
-8.59718e-25
-3.36999e-24
-1.12654e-23
-3.06575e-23
-6.20148e-23
-7.27656e-23
-1.69939e-24
6.78245e-23
3.21611e-21
8.75201e-20
-3.95497e-55
-9.50488e-55
-3.24839e-54
-1.1803e-53
-4.46537e-53
-1.75566e-52
-7.16873e-52
-3.03894e-51
-1.33738e-50
-6.11087e-50
-2.89971e-49
-1.4292e-48
-7.31718e-48
-3.89069e-47
-2.14749e-46
-1.22941e-45
-7.29148e-45
-4.47338e-44
-2.83395e-43
-1.85023e-42
-1.24225e-41
-8.55767e-41
-6.03454e-40
-4.34513e-39
-3.18649e-38
-2.37354e-37
-1.7906e-36
-1.36388e-35
-1.04543e-34
-8.03749e-34
-6.20267e-33
-5.40231e-32
-4.4748e-31
-3.50694e-30
-2.58839e-29
-1.78968e-28
-1.1521e-27
-6.85554e-27
-3.73816e-26
-1.84794e-25
-8.1687e-25
-3.16892e-24
-1.04946e-23
-2.83545e-23
-5.72173e-23
-6.7933e-23
-1.59472e-24
4.45449e-23
2.46037e-21
6.63307e-20
-5.96951e-55
-1.40797e-54
-4.74721e-54
-1.70531e-53
-6.38366e-53
-2.4844e-52
-1.00419e-51
-4.21298e-51
-1.83415e-50
-8.2861e-50
-3.88511e-49
-1.89097e-48
-9.55544e-48
-5.01281e-47
-2.7292e-46
-1.54108e-45
-9.0158e-45
-5.45728e-44
-3.41201e-43
-2.19921e-42
-1.4582e-41
-9.92382e-41
-6.91524e-40
-4.92173e-39
-3.56841e-38
-2.62836e-37
-1.96102e-36
-1.47743e-35
-1.12025e-34
-8.52022e-34
-6.50486e-33
-5.60308e-32
-4.59033e-31
-3.55821e-30
-2.59754e-29
-1.77635e-28
-1.131e-27
-6.65626e-27
-3.58991e-26
-1.7555e-25
-7.67792e-25
-2.94823e-24
-9.67254e-24
-2.59352e-23
-5.2152e-23
-6.24491e-23
-1.48213e-24
3.01093e-23
1.89408e-21
4.96641e-20
-8.89913e-55
-2.05505e-54
-6.82664e-54
-2.42239e-53
-8.96764e-53
-3.45371e-52
-1.38183e-51
-5.73836e-51
-2.47206e-50
-1.10456e-49
-5.11919e-49
-2.46137e-48
-1.22799e-47
-6.35746e-47
-3.41479e-46
-1.90206e-45
-1.09771e-44
-6.55563e-44
-4.04503e-43
-2.5739e-42
-1.68543e-41
-1.13315e-40
-7.80307e-40
-5.4897e-39
-3.93536e-38
-2.86658e-37
-2.11548e-36
-1.57671e-35
-1.18285e-34
-8.90168e-34
-6.72513e-33
-5.73066e-32
-4.64502e-31
-3.56256e-30
-2.57328e-29
-1.7412e-28
-1.09692e-27
-6.38767e-27
-3.40885e-26
-1.64955e-25
-7.14026e-25
-2.71436e-24
-8.82188e-24
-2.34659e-23
-4.69662e-23
-5.65416e-23
-1.80835e-24
1.99881e-23
1.39303e-21
3.52228e-20
-1.31337e-54
-2.96136e-54
-9.676e-54
-3.38779e-53
-1.23933e-52
-4.72122e-52
-1.86949e-51
-7.68466e-51
-3.27643e-50
-1.44833e-49
-6.63725e-49
-3.15362e-48
-1.55388e-47
-7.94106e-47
-4.20893e-46
-2.31289e-45
-1.31683e-44
-7.75928e-44
-4.72494e-43
-2.96806e-42
-1.91934e-41
-1.27479e-40
-8.67515e-40
-6.03322e-39
-4.2765e-38
-3.08087e-37
-2.24913e-36
-1.65856e-35
-1.23127e-34
-9.17037e-34
-6.85735e-33
-5.78216e-32
-4.63839e-31
-3.52102e-30
-2.51732e-29
-1.68599e-28
-1.05134e-27
-6.06001e-27
-3.20117e-26
-1.53339e-25
-6.57093e-25
-2.47335e-24
-7.9629e-24
-2.10022e-23
-4.17759e-23
-5.03377e-23
-3.16686e-24
1.30276e-23
9.62063e-22
2.29015e-20
-1.92377e-54
-4.2223e-54
-1.35428e-53
-4.6719e-53
-1.68714e-52
-6.35307e-52
-2.48881e-51
-1.01255e-50
-4.27303e-50
-1.86913e-49
-8.47218e-49
-3.97929e-48
-1.93707e-47
-9.77456e-47
-5.11324e-46
-2.77247e-45
-1.55735e-44
-9.05426e-44
-5.44118e-43
-3.37416e-42
-2.15473e-41
-1.4138e-40
-9.50792e-40
-6.53668e-39
-4.58165e-38
-3.2647e-37
-2.35786e-36
-1.72053e-35
-1.26411e-34
-9.31946e-34
-6.89905e-33
-5.75779e-32
-4.57236e-31
-3.43633e-30
-2.43248e-29
-1.61312e-28
-9.96012e-28
-5.68472e-27
-2.97345e-26
-1.41034e-25
-5.98448e-25
-2.23071e-24
-7.11325e-24
-1.85905e-23
-3.66732e-23
-4.39361e-23
-3.79708e-24
5.4046e-24
5.87576e-22
1.32432e-20
-2.80429e-54
-5.97102e-54
-1.87562e-53
-6.36402e-53
-2.26563e-52
-8.42511e-52
-3.2634e-51
-1.31371e-50
-5.48714e-50
-2.37544e-49
-1.06524e-48
-4.94742e-48
-2.38004e-47
-1.18619e-46
-6.12575e-46
-3.27784e-45
-1.81674e-44
-1.0422e-43
-6.18092e-43
-3.78364e-42
-2.38601e-41
-1.54656e-40
-1.02783e-39
-6.98557e-39
-4.84181e-38
-3.41263e-37
-2.43857e-36
-1.76095e-35
-1.28065e-34
-9.34699e-34
-6.85137e-33
-5.66066e-32
-4.45105e-31
-3.31272e-30
-2.32245e-29
-1.52544e-28
-9.32907e-28
-5.27392e-27
-2.73233e-26
-1.2836e-25
-5.39442e-25
-1.99134e-24
-6.28794e-24
-1.62681e-23
-3.17319e-23
-3.74381e-23
-3.07887e-24
4.51999e-25
2.63449e-22
4.7776e-21
-4.07997e-54
-8.39789e-54
-2.57655e-53
-8.58027e-53
-3.00616e-52
-1.10255e-51
-4.21902e-51
-1.67971e-50
-6.94268e-50
-2.97463e-49
-1.31996e-48
-6.06363e-48
-2.88361e-47
-1.41987e-46
-7.24049e-46
-3.82414e-45
-2.09157e-44
-1.18397e-43
-6.92956e-43
-4.1873e-42
-2.60746e-41
-1.66955e-40
-1.0965e-39
-7.36711e-39
-5.04958e-38
-3.52062e-37
-2.48923e-36
-1.77904e-35
-1.28079e-34
-9.25572e-34
-6.71882e-33
-5.49649e-32
-4.28039e-31
-3.15554e-30
-2.19156e-29
-1.4261e-28
-8.64095e-28
-4.83981e-27
-2.48421e-26
-1.15616e-25
-4.8129e-25
-1.75946e-24
-5.49924e-24
-1.40648e-23
-2.70151e-23
-3.10076e-23
-1.46179e-24
0
9.49225e-23
4.69878e-21
-5.94274e-54
-1.17824e-53
-3.52026e-53
-1.14768e-52
-3.94872e-52
-1.42599e-51
-5.38433e-51
-2.11849e-50
-8.66162e-50
-3.67256e-49
-1.61272e-48
-7.32936e-48
-3.44659e-47
-1.67714e-46
-8.44719e-46
-4.40454e-45
-2.37755e-44
-1.32812e-43
-7.67126e-43
-4.57569e-42
-2.81347e-41
-1.77948e-40
-1.15491e-39
-7.67089e-39
-5.19955e-38
-3.58615e-37
-2.50899e-36
-1.77484e-35
-1.26503e-34
-9.05275e-34
-6.50879e-33
-5.27311e-32
-4.06768e-31
-2.97096e-30
-2.04451e-29
-1.31839e-28
-7.9164e-28
-4.39412e-27
-2.23506e-26
-1.03068e-25
-4.25034e-25
-1.53855e-24
-4.75677e-24
-1.20027e-23
-2.25789e-23
-2.48396e-23
-7.38105e-25
4.7767e-25
1.14503e-22
8.56752e-21
-8.69354e-54
-1.65467e-53
-4.79878e-53
-1.5272e-52
-5.14664e-52
-1.8261e-51
-6.79275e-51
-2.6384e-50
-1.0664e-49
-4.47332e-49
-1.9439e-48
-8.74128e-48
-4.06556e-47
-1.95564e-46
-9.73128e-46
-5.01043e-45
-2.66967e-44
-1.47176e-43
-8.38958e-43
-4.93947e-42
-2.99882e-41
-1.87349e-40
-1.20153e-39
-7.8893e-39
-5.2884e-38
-3.60828e-37
-2.49814e-36
-1.74924e-35
-1.23446e-34
-8.74876e-34
-6.23099e-33
-4.99989e-32
-3.82115e-31
-2.76555e-30
-1.88615e-29
-1.20552e-28
-7.17511e-28
-3.94767e-27
-1.99019e-26
-9.0948e-26
-3.71536e-25
-1.33131e-24
-4.06755e-24
-1.00982e-23
-1.84732e-23
-1.90792e-23
-5.47815e-25
3.07546e-24
2.14011e-22
1.90017e-20
-1.28134e-53
-2.33459e-53
-6.55081e-53
-2.02851e-52
-6.67484e-52
-2.32062e-51
-8.48602e-51
-3.24893e-50
-1.2969e-49
-5.37936e-49
-2.31284e-48
-1.02911e-47
-4.73487e-47
-2.25202e-46
-1.1074e-45
-5.6315e-45
-2.96233e-44
-1.61185e-43
-9.06808e-43
-5.26984e-42
-3.15886e-41
-1.94922e-40
-1.23525e-39
-8.0178e-39
-5.31507e-38
-3.58763e-37
-2.45804e-36
-1.70379e-35
-1.19059e-34
-8.35728e-34
-5.89676e-33
-4.68714e-32
-3.54941e-31
-2.54596e-30
-1.72117e-29
-1.09056e-28
-6.43506e-28
-3.51001e-27
-1.75413e-26
-7.94418e-26
-3.21457e-25
-1.13969e-24
-3.43617e-24
-8.36218e-24
-1.47402e-23
-1.377e-23
-4.58509e-25
9.09613e-24
4.28983e-22
4.10601e-20
-1.90849e-53
-3.3222e-53
-8.9922e-53
-2.70012e-52
-8.64413e-52
-2.93487e-51
-1.0521e-50
-3.96215e-50
-1.5598e-49
-6.39208e-49
-2.71801e-48
-1.19656e-47
-5.4466e-47
-2.56199e-46
-1.24528e-45
-6.2561e-45
-3.24952e-44
-1.74532e-43
-9.69102e-43
-5.55889e-42
-3.28977e-41
-2.00493e-40
-1.25541e-39
-8.055e-39
-5.2806e-38
-3.52624e-37
-2.39096e-36
-1.64067e-35
-1.13531e-34
-7.89373e-34
-5.51836e-33
-4.34555e-32
-3.26109e-31
-2.31859e-30
-1.55396e-29
-9.76247e-29
-5.71192e-28
-3.08919e-27
-1.53051e-26
-6.86931e-26
-2.75269e-25
-9.64895e-25
-2.86509e-24
-6.80147e-24
-1.14084e-23
-8.79386e-24
-2.47938e-25
1.99323e-23
8.25707e-22
8.42089e-20
-2.87983e-53
-4.78677e-53
-1.24683e-52
-3.6185e-52
-1.1226e-51
-3.70727e-51
-1.2982e-50
-4.7954e-50
-1.85807e-49
-7.51319e-49
-3.15729e-48
-1.37478e-47
-6.19098e-47
-2.88044e-46
-1.38422e-45
-6.87159e-45
-3.52504e-44
-1.86913e-43
-1.02439e-42
-5.79991e-42
-3.38862e-41
-2.03954e-40
-1.26178e-39
-8.00253e-39
-5.18802e-38
-3.42739e-37
-2.29994e-36
-1.56244e-35
-1.07071e-34
-7.37459e-34
-5.10836e-33
-3.98562e-32
-2.96435e-31
-2.08935e-30
-1.38844e-29
-8.64968e-29
-5.01877e-28
-2.69159e-27
-1.32209e-26
-5.88015e-26
-2.33255e-25
-8.07487e-25
-2.355e-24
-5.41994e-24
-8.50636e-24
-4.18209e-24
-1.22423e-25
3.8498e-23
1.5174e-21
1.66722e-19
-4.41022e-53
-7.00757e-53
-1.75433e-52
-4.90743e-52
-1.46958e-51
-4.6989e-51
-1.60023e-50
-5.77629e-50
-2.19665e-49
-8.74739e-49
-3.62866e-48
-1.56187e-47
-6.95686e-47
-3.20168e-46
-1.52143e-45
-7.46479e-45
-3.78272e-44
-1.98045e-43
-1.07142e-42
-5.98761e-42
-3.45352e-41
-2.05267e-40
-1.25459e-39
-7.86484e-39
-5.04207e-38
-3.29536e-37
-2.18856e-36
-1.47198e-35
-9.99004e-35
-6.81645e-34
-4.67897e-33
-3.61728e-32
-2.66668e-31
-1.86344e-30
-1.22794e-29
-7.5867e-29
-4.36583e-28
-2.32198e-27
-1.13074e-26
-4.98254e-26
-1.95533e-25
-6.67465e-25
-1.9052e-24
-4.21896e-24
-6.06445e-24
-7.16487e-25
1.59817e-26
6.92783e-23
2.70552e-21
3.25339e-19
-6.85947e-53
-1.04503e-52
-2.51537e-52
-6.77137e-52
-1.9506e-51
-6.01012e-51
-1.98016e-50
-6.95125e-50
-2.58443e-49
-1.01072e-48
-4.1314e-48
-1.75602e-47
-7.73274e-47
-3.51974e-46
-1.65406e-45
-8.02249e-45
-4.01665e-44
-2.07673e-43
-1.10913e-42
-6.11829e-42
-3.48362e-41
-2.04459e-40
-1.2345e-39
-7.64878e-39
-4.84885e-38
-3.13518e-37
-2.06075e-36
-1.37226e-35
-9.22404e-35
-6.23539e-34
-4.24162e-33
-3.24946e-32
-2.37459e-31
-1.64525e-30
-1.07518e-29
-6.58859e-29
-3.76057e-28
-1.98349e-27
-9.57505e-27
-4.17865e-26
-1.62079e-25
-5.44377e-25
-1.51387e-24
-3.19403e-24
-4.04181e-24
-1.79943e-25
3.37909e-24
1.21499e-22
4.74249e-21
6.67031e-19
-1.08311e-52
-1.58958e-52
-3.68661e-52
-9.55203e-52
-2.64133e-51
-7.80897e-51
-2.47513e-50
-8.40053e-50
-3.03781e-49
-1.16213e-48
-4.66811e-48
-1.95607e-47
-8.50822e-47
-3.82885e-46
-1.77932e-45
-8.53213e-45
-4.22141e-44
-2.15578e-43
-1.13675e-42
-6.18989e-42
-3.47909e-41
-2.01619e-40
-1.20249e-39
-7.36317e-39
-4.61549e-38
-2.95229e-37
-1.92059e-36
-1.26627e-35
-8.43036e-35
-5.64626e-34
-3.80653e-33
-2.8899e-32
-2.09352e-31
-1.43829e-30
-9.32198e-30
-5.66609e-29
-3.20776e-28
-1.67782e-27
-8.02736e-27
-3.46755e-26
-1.32753e-25
-4.37447e-25
-1.17828e-24
-2.3337e-24
-2.31873e-24
-7.80878e-26
9.44622e-24
2.12047e-22
8.21913e-21
1.64301e-18
-1.73357e-52
-2.46544e-52
-5.53117e-52
-1.38236e-51
-3.6691e-51
-1.03795e-50
-3.14844e-50
-1.02637e-49
-3.5866e-49
-1.33487e-48
-5.24819e-48
-2.16237e-47
-9.2763e-47
-4.12409e-46
-1.89471e-45
-8.98242e-45
-4.39237e-44
-2.21588e-43
-1.15377e-42
-6.20202e-42
-3.44108e-41
-1.96889e-40
-1.15985e-39
-7.01826e-39
-4.34972e-38
-2.75237e-37
-1.77211e-36
-1.15684e-35
-7.62857e-35
-5.06232e-34
-3.38251e-33
-2.54499e-32
-1.82775e-31
-1.24519e-30
-8.00439e-30
-4.82588e-29
-2.70985e-28
-1.40539e-27
-6.66163e-27
-2.84578e-26
-1.07332e-25
-3.4569e-25
-8.95268e-25
-1.62828e-24
-8.89905e-25
1.50537e-25
1.77588e-23
3.75439e-22
1.423e-20
4.31625e-18
-2.80563e-52
-3.89191e-52
-8.49024e-52
-2.05509e-51
-5.24849e-51
-1.42026e-50
-4.10818e-50
-1.27828e-49
-4.28418e-49
-1.54027e-48
-5.89362e-48
-2.37822e-47
-1.00371e-46
-4.40239e-46
-1.99828e-45
-9.36424e-45
-4.52587e-44
-2.25584e-43
-1.15998e-42
-6.15589e-42
-3.37157e-41
-1.90457e-40
-1.10807e-39
-6.62521e-39
-4.05955e-38
-2.54102e-37
-1.61918e-36
-1.04658e-35
-6.83602e-35
-4.49488e-34
-2.97677e-33
-2.21974e-32
-1.58046e-31
-1.06773e-30
-6.80755e-30
-4.07105e-29
-2.26718e-28
-1.16557e-27
-5.47044e-27
-2.30811e-26
-8.5541e-26
-2.67988e-25
-6.60659e-25
-1.06224e-24
-1.46999e-25
1.53442e-24
3.13816e-23
6.74809e-22
2.51625e-20
1.08438e-17
-4.57765e-52
-6.23377e-52
-1.33001e-51
-3.13489e-51
-7.73998e-51
-2.00899e-50
-5.53813e-50
-1.63743e-49
-5.22438e-49
-1.79909e-48
-6.64852e-48
-2.61215e-47
-1.08034e-46
-4.66397e-46
-2.08904e-45
-9.67169e-45
-4.61958e-44
-2.27506e-43
-1.15545e-42
-6.05418e-42
-3.27328e-41
-1.82543e-40
-1.04879e-39
-6.19556e-39
-3.7529e-38
-2.32357e-37
-1.46532e-36
-9.37791e-36
-6.06748e-35
-3.95315e-34
-2.59491e-33
-1.91778e-32
-1.35375e-31
-9.06933e-31
-5.73499e-30
-3.40161e-29
-1.87844e-28
-9.56914e-28
-4.44288e-27
-1.8481e-26
-6.70758e-26
-2.03119e-25
-4.68753e-25
-5.95279e-25
-3.24264e-26
5.81181e-24
5.6616e-23
1.22478e-21
4.70845e-20
2.57725e-17
-7.50577e-52
-1.00929e-51
-2.11802e-51
-4.89016e-51
-1.1745e-50
-2.94023e-50
-7.74834e-50
-2.17474e-49
-6.56938e-49
-2.14816e-48
-7.59499e-48
-2.8818e-47
-1.16104e-46
-4.91467e-46
-2.16752e-45
-9.90356e-45
-4.67281e-44
-2.27363e-43
-1.14057e-42
-5.9009e-42
-3.14952e-41
-1.73392e-40
-9.83705e-40
-5.74077e-39
-3.43733e-38
-2.10493e-37
-1.31368e-36
-8.32439e-36
-5.33495e-35
-3.44425e-34
-2.24095e-33
-1.64147e-32
-1.14875e-31
-7.63154e-31
-4.78598e-30
-2.81512e-29
-1.54102e-28
-7.77365e-28
-3.56584e-27
-1.4588e-26
-5.16279e-26
-1.49866e-25
-3.15099e-25
-2.20987e-25
1.61569e-25
1.42191e-23
1.01827e-22
2.22135e-21
9.36524e-20
5.77581e-17
-1.23297e-51
-1.64524e-51
-3.41312e-51
-7.76286e-51
-1.82578e-50
-4.44e-50
-1.12567e-49
-3.0096e-49
-8.59507e-49
-2.65116e-48
-8.87898e-48
-3.2201e-47
-1.25301e-46
-5.16955e-46
-2.23666e-45
-1.00654e-44
-4.68703e-44
-2.25238e-43
-1.11599e-42
-5.70123e-42
-3.00403e-41
-1.63259e-40
-9.1451e-40
-5.2718e-39
-3.11979e-38
-1.88944e-37
-1.1669e-36
-7.32113e-36
-4.64762e-35
-2.97322e-34
-1.91746e-33
-1.39203e-32
-9.65795e-32
-6.36197e-31
-3.95636e-30
-2.30722e-29
-1.25138e-28
-6.24498e-28
-2.82509e-27
-1.13307e-26
-3.88852e-26
-1.06874e-25
-1.94664e-25
-3.52885e-26
9.73818e-25
2.82191e-23
1.80412e-22
3.97178e-21
1.92099e-19
1.21539e-16
-2.02358e-51
-2.69011e-51
-5.53999e-51
-1.2473e-50
-2.8905e-50
-6.8797e-50
-1.69188e-49
-4.34039e-49
-1.17637e-48
-3.41599e-48
-1.07519e-47
-3.68527e-47
-1.36959e-46
-5.45871e-46
-2.3032e-45
-1.01728e-44
-4.66655e-44
-2.21304e-43
-1.08269e-42
-5.46137e-42
-2.84083e-41
-1.52402e-40
-8.42841e-40
-4.79876e-39
-2.80645e-38
-1.68077e-37
-1.02715e-36
-6.3803e-36
-4.01201e-35
-2.54326e-34
-1.62573e-33
-1.16971e-32
-8.04509e-32
-5.25423e-31
-3.23945e-30
-1.87226e-29
-1.00539e-28
-4.95695e-28
-2.20619e-27
-8.63995e-27
-2.85405e-26
-7.27454e-26
-1.00028e-25
-6.93243e-27
2.98391e-24
5.17434e-23
3.15523e-22
6.94529e-21
3.95303e-19
2.39584e-16
-3.31043e-51
-4.39765e-51
-9.01947e-51
-2.01799e-50
-4.63157e-50
-1.08623e-49
-2.61301e-49
-6.49256e-49
-1.68385e-48
-4.62227e-48
-1.3637e-47
-4.37684e-47
-1.5341e-46
-5.83651e-46
-2.37984e-45
-1.02566e-44
-4.6197e-44
-2.15847e-43
-1.04196e-42
-5.18839e-42
-2.66413e-41
-1.41077e-40
-7.70218e-40
-4.33069e-39
-2.5026e-38
-1.48196e-37
-8.96067e-37
-5.51051e-36
-3.43217e-35
-2.15586e-34
-1.36592e-33
-9.73961e-33
-6.63996e-32
-4.29871e-31
-2.62675e-30
-1.50371e-29
-7.98643e-29
-3.88303e-28
-1.6951e-27
-6.44888e-27
-2.02929e-26
-4.6322e-26
-3.29191e-26
2.479e-26
6.45463e-24
9.24889e-23
5.44515e-22
1.18677e-20
8.0842e-19
4.4279e-16
-5.38808e-51
-7.16828e-51
-1.46769e-50
-3.27277e-50
-7.46882e-50
-1.73544e-49
-4.11377e-49
-9.99269e-49
-2.50613e-48
-6.56414e-48
-1.82325e-47
-5.46064e-47
-1.78586e-46
-6.39614e-46
-2.48877e-45
-1.03707e-44
-4.56059e-44
-2.09297e-43
-9.95471e-43
-4.89024e-42
-2.4782e-41
-1.29523e-40
-6.98017e-40
-3.87539e-39
-2.21253e-38
-1.2953e-37
-7.74837e-37
-4.71706e-36
-2.90995e-35
-1.8111e-34
-1.13729e-33
-8.03595e-33
-5.42958e-32
-3.48352e-31
-2.10871e-30
-1.19469e-29
-6.26668e-29
-2.99749e-28