/*--------------------------------*- C++ -*----------------------------------*\
  =========                 |
  \\      /  F ield         | OpenFOAM: The Open Source CFD Toolbox
   \\    /   O peration     | Website:  https://openfoam.org
    \\  /    A nd           | Version:  9
     \\/     M anipulation  |
\*---------------------------------------------------------------------------*/
FoamFile
{
    format      ascii;
    class       surfaceScalarField;
    location    "0.12";
    object      alphaPhi0.water;
}
// * * * * * * * * * * * * * * * * * * * * * * * * * * * * * * * * * * * * * //

dimensions      [0 3 -1 0 0 0 0];

internalField   nonuniform List<scalar> 
9850
(
-2.87466e-68
-5.68237e-68
-1.00904e-67
-2.09782e-67
-4.80816e-67
-1.04995e-66
-2.41755e-66
-5.54369e-66
-1.27057e-65
-3.05908e-65
-6.96944e-65
-1.76161e-64
-3.98491e-64
-1.05733e-63
-2.37216e-63
-6.60661e-63
-1.46857e-62
-4.29269e-62
-9.44533e-62
-2.89743e-61
-6.30518e-61
-2.0296e-60
-4.36455e-60
-1.47411e-59
-3.13015e-59
-1.10917e-58
-2.32382e-58
-8.63879e-58
-1.78435e-57
-6.95886e-57
-1.41583e-56
-5.79286e-56
-1.15985e-55
-4.97903e-55
-9.7998e-55
-4.4147e-54
-8.5311e-54
-4.034e-53
-7.64298e-53
-3.79474e-52
-7.03787e-52
-3.67039e-51
-6.65169e-51
-3.64522e-50
-6.44239e-50
-3.71124e-49
-6.38271e-49
-3.86627e-48
-6.45508e-48
-4.11251e-47
-6.64789e-47
-4.45548e-46
-6.95223e-46
-4.90273e-45
-7.35878e-45
-5.4623e-44
-7.85458e-44
-6.14035e-43
-8.42009e-43
-6.9382e-42
-9.03907e-42
-9.17941e-41
-1.10161e-40
-1.12765e-39
-1.26801e-39
-1.30948e-38
-1.36849e-38
-1.42658e-37
-1.37318e-37
-1.4455e-36
-1.26771e-36
-1.34796e-35
-1.06272e-35
-1.14189e-34
-7.95928e-35
-8.64731e-34
-5.22142e-34
-5.73982e-33
-2.93142e-33
-3.26208e-32
-1.37417e-32
-1.54746e-31
-5.27785e-32
-6.00316e-31
-1.6588e-31
-1.89833e-30
-4.15634e-31
-4.76112e-30
-4.77927e-31
-5.45961e-30
-1.77784e-32
-2.02931e-31
2.87583e-30
1.67379e-29
9.3908e-29
5.76676e-28
2.43818e-27
1.62818e-26
1.91076e-25
-9.16523e-68
-1.80428e-67
-3.1384e-67
-6.4983e-67
-1.46593e-66
-3.18813e-66
-7.23401e-66
-1.6521e-65
-3.73447e-65
-8.95471e-65
-2.0137e-64
-5.06913e-64
-1.13266e-63
-2.99305e-63
-6.63717e-63
-1.84092e-62
-4.04681e-62
-1.17804e-61
-2.56441e-61
-7.83407e-61
-1.68709e-60
-5.40811e-60
-1.15112e-59
-3.87165e-59
-8.13793e-59
-2.87159e-58
-5.95543e-58
-2.20459e-57
-4.50728e-57
-1.75034e-56
-3.52461e-56
-1.43591e-55
-2.84501e-55
-1.21603e-54
-2.36807e-54
-1.06212e-53
-2.03038e-53
-9.55828e-53
-1.79115e-52
-8.85299e-52
-1.62371e-51
-8.42906e-51
-1.51045e-50
-8.2385e-50
-1.43961e-49
-8.25293e-49
-1.40332e-48
-8.45793e-48
-1.39622e-47
-8.84903e-47
-1.41449e-46
-9.42869e-46
-1.4551e-45
-1.02032e-44
-1.51511e-44
-1.11794e-43
-1.59104e-43
-1.23598e-42
-1.6784e-42
-1.37375e-41
-1.77393e-41
-1.78839e-40
-2.12891e-40
-2.16199e-39
-2.41488e-39
-2.47229e-38
-2.57073e-38
-2.65443e-37
-2.54726e-37
-2.65345e-36
-2.32533e-36
-2.44417e-35
-1.93057e-35
-2.04821e-34
-1.43427e-34
-1.53662e-33
-9.34219e-34
-1.01127e-32
-5.19952e-33
-5.68871e-32
-2.39473e-32
-2.64701e-31
-8.7835e-32
-9.79028e-31
-2.46009e-31
-2.75478e-30
-4.94536e-31
-5.5368e-30
-4.40968e-31
-4.91991e-30
-1.56285e-32
-1.74139e-31
1.20845e-30
5.16579e-30
3.62441e-29
2.01793e-28
8.26111e-28
5.30394e-27
9.56715e-26
-2.77354e-67
-5.43711e-67
-9.26704e-67
-1.91081e-66
-4.24251e-66
-9.18824e-66
-2.05413e-65
-4.67168e-65
-1.04117e-64
-2.48617e-64
-5.51638e-64
-1.38285e-63
-3.05097e-63
-8.02838e-63
-1.75908e-62
-4.85857e-62
-1.05591e-61
-3.06083e-61
-6.59043e-61
-2.00479e-60
-4.27192e-60
-1.36357e-59
-2.87254e-59
-9.62008e-59
-2.0016e-58
-7.03251e-58
-1.44381e-57
-5.32151e-57
-1.07702e-56
-4.16421e-56
-8.30022e-56
-3.36658e-55
-6.60183e-55
-2.80925e-54
-5.4137e-54
-2.41722e-53
-4.57196e-53
-2.14249e-52
-3.97175e-52
-1.95399e-51
-3.54475e-51
-1.83146e-50
-3.24574e-50
-1.76177e-49
-3.04438e-49
-1.73658e-48
-2.91999e-48
-1.75086e-47
-2.85819e-47
-1.80183e-46
-2.8485e-46
-1.88822e-45
-2.88258e-45
-2.00955e-44
-2.95277e-44
-2.16545e-43
-3.05095e-43
-2.35482e-42
-3.16766e-42
-2.57496e-41
-3.29705e-41
-3.2993e-40
-3.89793e-40
-3.92661e-39
-4.35992e-39
-4.42434e-38
-4.58208e-38
-4.68581e-37
-4.48914e-37
-4.62711e-36
-4.0598e-36
-4.21815e-35
-3.34751e-35
-3.50666e-34
-2.4777e-34
-2.61772e-33
-1.61388e-33
-1.7204e-32
-9.0174e-33
-9.70099e-32
-4.17878e-32
-4.53455e-31
-1.53406e-31
-1.67592e-30
-4.17155e-31
-4.57172e-30
-7.39947e-31
-8.09855e-30
-4.41372e-31
-4.81018e-30
-1.79214e-32
-1.94924e-31
8.88351e-31
4.83843e-30
3.47684e-29
2.01649e-28
9.42493e-28
6.28763e-27
1.28234e-25
-7.99544e-67
-1.56066e-66
-2.60843e-66
-5.35552e-66
-1.17061e-65
-2.52446e-65
-5.56082e-65
-1.25931e-64
-2.76688e-64
-6.57876e-64
-1.43997e-63
-3.59429e-63
-7.82811e-63
-2.05108e-62
-4.43927e-62
-1.22085e-61
-2.62251e-61
-7.56919e-61
-1.6117e-60
-4.8815e-60
-1.02908e-59
-3.27047e-59
-6.81833e-59
-2.27344e-58
-4.68224e-58
-1.63783e-57
-3.32882e-57
-1.22148e-56
-2.44745e-56
-9.42057e-56
-1.85892e-55
-7.50579e-55
-1.457e-54
-6.17169e-54
-1.17718e-53
-5.23188e-53
-9.79293e-53
-4.56768e-52
-8.37834e-52
-4.10233e-51
-7.36252e-51
-3.78555e-50
-6.6362e-50
-3.58421e-49
-6.12595e-49
-3.47655e-48
-5.78153e-48
-3.44841e-47
-5.56764e-47
-3.49073e-46
-5.45844e-46
-3.59775e-45
-5.4336e-45
-3.7655e-44
-5.47531e-44
-3.99043e-43
-5.56611e-43
-4.26797e-42
-5.68745e-42
-4.59116e-41
-5.82949e-41
-5.7897e-40
-6.78927e-40
-6.78356e-39
-7.48862e-39
-7.53191e-38
-7.7712e-38
-7.87028e-37
-7.53053e-37
-7.67997e-36
-6.7509e-36
-6.93319e-35
-5.53386e-35
-5.72372e-34
-4.08744e-34
-4.25874e-33
-2.67008e-33
-2.80324e-32
-1.50569e-32
-1.593e-31
-7.09597e-32
-7.56088e-31
-2.66908e-31
-2.85871e-30
-7.44322e-31
-7.98569e-30
-1.31363e-30
-1.40584e-29
-6.06869e-31
-6.46151e-30
-3.30826e-32
-3.51256e-31
2.20451e-30
1.65983e-29
1.14218e-28
9.8035e-28
2.40434e-27
2.04031e-26
5.72141e-25
-2.20043e-66
-4.27635e-66
-7.01571e-66
-1.43418e-65
-3.08761e-65
-6.62969e-65
-1.43927e-64
-3.24524e-64
-7.02971e-64
-1.66418e-63
-3.59298e-63
-8.92939e-63
-1.91942e-62
-5.00722e-62
-1.07029e-61
-2.93053e-61
-6.22074e-61
-1.78756e-60
-3.76337e-60
-1.13481e-59
-2.36649e-59
-7.48743e-59
-1.54471e-58
-5.12754e-58
-1.04531e-57
-3.64002e-57
-7.32431e-57
-2.67543e-56
-5.30767e-56
-2.03368e-55
-3.97332e-55
-1.59694e-54
-3.06917e-54
-1.29403e-53
-2.44348e-53
-1.08088e-52
-2.00265e-52
-9.29639e-52
-1.68766e-51
-8.22333e-51
-1.46044e-50
-7.47197e-50
-1.296e-49
-6.9643e-49
-1.17757e-48
-6.64811e-48
-1.09367e-47
-6.48826e-47
-1.03626e-46
-6.46091e-46
-9.99435e-46
-6.54941e-45
-9.78652e-45
-6.74124e-44
-9.70077e-44
-7.02535e-43
-9.7018e-43
-7.38969e-42
-9.75503e-42
-7.81928e-41
-9.84459e-41
-9.70324e-40
-1.12925e-39
-1.11903e-38
-1.22802e-38
-1.2241e-37
-1.25803e-37
-1.2617e-36
-1.20548e-36
-1.2164e-35
-1.071e-35
-1.08723e-34
-8.72618e-35
-8.91194e-34
-6.43143e-34
-6.60884e-33
-4.214e-33
-4.35773e-32
-2.40006e-32
-2.49761e-31
-1.15286e-31
-1.20645e-30
-4.47158e-31
-4.69661e-30
-1.3033e-30
-1.36929e-29
-2.43085e-30
-2.54457e-29
-1.19694e-30
-1.24539e-29
-7.58912e-32
-7.86719e-31
5.50529e-30
3.86947e-29
3.67459e-28
2.89603e-27
6.21819e-27
5.07404e-26
1.49904e-24
-5.79393e-66
-1.12101e-65
-1.80739e-65
-3.67847e-65
-7.80505e-65
-1.66852e-64
-3.57143e-64
-8.01735e-64
-1.71257e-63
-4.03638e-63
-8.59639e-63
-2.12696e-62
-4.51214e-62
-1.17187e-61
-2.47344e-61
-6.74235e-61
-1.41408e-60
-4.0453e-60
-8.41934e-60
-2.52739e-59
-5.21292e-59
-1.6419e-58
-3.35173e-58
-1.10754e-57
-2.23483e-57
-7.74676e-57
-1.54325e-56
-5.61132e-56
-1.10228e-55
-4.20393e-55
-8.13343e-55
-3.25369e-54
-6.19234e-54
-2.5985e-53
-4.85858e-53
-2.13895e-52
-3.92379e-52
-1.81262e-51
-3.2576e-51
-1.5795e-50
-2.77661e-50
-1.41345e-49
-2.42632e-49
-1.29713e-48
-2.17037e-48
-1.21884e-47
-1.98398e-47
-1.1706e-46
-1.8498e-46
-1.14683e-45
-1.75526e-45
-1.14352e-44
-1.6908e-44
-1.15757e-43
-1.64863e-43
-1.18633e-42
-1.62198e-42
-1.22714e-41
-1.60463e-41
-1.27708e-40
-1.59409e-40
-1.5592e-39
-1.80041e-39
-1.76941e-38
-1.92957e-38
-1.90623e-37
-1.95047e-37
-1.93717e-36
-1.84708e-36
-1.84414e-35
-1.62517e-35
-1.63085e-34
-1.31498e-34
-1.32617e-33
-9.6602e-34
-9.79138e-33
-6.34009e-33
-6.45891e-32
-3.64085e-32
-3.72748e-31
-1.77894e-31
-1.82884e-30
-7.10158e-31
-7.31679e-30
-2.1641e-30
-2.22727e-29
-4.32092e-30
-4.42559e-29
-2.5996e-30
-2.64407e-29
-1.60717e-31
-1.62706e-30
1.08115e-29
7.10197e-29
8.22417e-28
5.82987e-27
1.4892e-26
1.16488e-25
4.66603e-24
-1.46235e-65
-2.81666e-65
-4.46885e-65
-9.05462e-65
-1.89502e-64
-4.03301e-64
-8.51641e-64
-1.9033e-63
-4.01065e-63
-9.41059e-63
-1.97741e-62
-4.87071e-62
-1.0198e-61
-2.63669e-61
-5.49511e-61
-1.49117e-60
-3.08968e-60
-8.79878e-60
-1.81011e-59
-5.40909e-59
-1.10334e-58
-3.45931e-58
-6.9869e-58
-2.29815e-57
-4.58985e-57
-1.58367e-56
-3.12349e-56
-1.13043e-55
-2.19896e-55
-8.34721e-55
-1.5994e-54
-6.36799e-54
-1.20033e-53
-5.0129e-53
-9.28298e-53
-4.06701e-52
-7.38862e-52
-3.39649e-51
-6.04451e-51
-2.91617e-50
-5.07566e-50
-2.57067e-49
-4.36856e-49
-2.32333e-48
-3.84795e-48
-2.14941e-47
-3.4628e-47
-2.0319e-46
-3.17764e-46
-1.95885e-45
-2.96699e-45
-1.92153e-44
-2.81182e-44
-1.91323e-43
-2.69709e-43
-1.92831e-42
-2.61026e-42
-1.96151e-41
-2.54054e-41
-2.00753e-40
-2.48397e-40
-2.41099e-39
-2.76149e-39
-2.69152e-38
-2.91555e-38
-2.85454e-37
-2.90632e-37
-2.85856e-36
-2.71799e-36
-2.68514e-35
-2.36609e-35
-2.34726e-34
-1.89891e-34
-1.89133e-33
-1.38827e-33
-1.38814e-32
-9.10765e-33
-9.14222e-32
-5.25902e-32
-5.29819e-31
-2.6042e-31
-2.63082e-30
-1.06479e-30
-1.0765e-29
-3.37254e-30
-3.40138e-29
-7.17508e-30
-7.1933e-29
-5.29365e-30
-5.26521e-29
-3.98166e-31
-3.93785e-30
2.0468e-29
1.31641e-28
1.55828e-27
1.0725e-26
3.80139e-26
2.97459e-25
1.96414e-23
-3.54365e-65
-6.79461e-65
-1.06227e-64
-2.14265e-64
-4.42704e-64
-9.37935e-64
-1.95532e-63
-4.35022e-63
-9.04762e-63
-2.11337e-62
-4.38283e-62
-1.0747e-61
-2.22116e-61
-5.71683e-61
-1.17649e-60
-3.17807e-60
-6.50516e-60
-1.84409e-59
-3.74962e-59
-1.11535e-58
-2.24976e-58
-7.0212e-58
-1.40296e-57
-4.59329e-57
-9.07946e-57
-3.11815e-56
-6.08883e-56
-2.19329e-55
-4.22512e-55
-1.59626e-54
-3.02946e-54
-1.20042e-53
-2.24138e-53
-9.3155e-53
-1.70885e-52
-7.45018e-52
-1.34073e-51
-6.13277e-51
-1.08104e-50
-5.18926e-50
-8.94537e-50
-4.50733e-49
-7.58528e-49
-4.01292e-48
-6.58086e-48
-3.6562e-47
-5.83162e-47
-3.40292e-46
-5.26819e-46
-3.22897e-45
-4.84133e-45
-3.11679e-44
-4.51475e-44
-3.05296e-43
-4.26059e-43
-3.02649e-42
-4.05648e-42
-3.02765e-41
-3.88409e-41
-3.04727e-40
-3.73713e-40
-3.59953e-39
-4.08846e-39
-3.952e-38
-4.25062e-38
-4.12461e-37
-4.17618e-37
-4.06798e-36
-3.85401e-36
-3.76771e-35
-3.31615e-35
-3.25257e-34
-2.63629e-34
-2.59356e-33
-1.91476e-33
-1.8891e-32
-1.25282e-32
-1.23939e-31
-7.25217e-32
-7.19143e-31
-3.62492e-31
-3.59958e-30
-1.50992e-30
-1.49845e-29
-4.93633e-30
-4.88065e-29
-1.10996e-29
-1.08968e-28
-9.79636e-30
-9.5323e-29
-5.42826e-31
-5.24654e-30
4.20525e-29
2.78008e-28
3.64562e-27
2.538e-26
1.31187e-25
1.00525e-24
6.06613e-23
-8.25706e-65
-1.576e-64
-2.43119e-64
-4.88161e-64
-9.96644e-64
-2.10199e-63
-4.32943e-63
-9.58857e-63
-1.9695e-62
-4.57957e-62
-9.37763e-62
-2.28902e-61
-4.67129e-61
-1.19682e-60
-2.43244e-60
-6.54075e-60
-1.32265e-59
-3.73228e-59
-7.50046e-59
-2.22079e-58
-4.42938e-58
-1.37595e-57
-2.71988e-57
-8.86341e-57
-1.73394e-56
-5.92695e-56
-1.14584e-55
-4.10801e-55
-7.83719e-55
-2.94682e-54
-5.53983e-54
-2.18461e-53
-4.04112e-53
-1.6714e-52
-3.03778e-52
-1.3179e-51
-2.34987e-51
-1.06953e-50
-1.86788e-50
-8.92094e-50
-1.5235e-49
-7.63695e-49
-1.27311e-48
-6.69981e-48
-1.08825e-47
-6.01344e-47
-9.49897e-47
-5.51209e-46
-8.45033e-46
-5.14961e-45
-7.64517e-45
-4.89258e-44
-7.01715e-44
-4.71576e-43
-6.51646e-43
-4.59904e-42
-6.10439e-42
-4.5253e-41
-5.75052e-41
-4.47938e-40
-5.44457e-40
-5.20405e-39
-5.86056e-39
-5.61844e-38
-5.99811e-38
-5.76881e-37
-5.8055e-37
-5.60107e-36
-5.28334e-36
-5.1117e-35
-4.48914e-35
-4.35388e-34
-3.53075e-34
-3.4315e-33
-2.54343e-33
-2.47646e-32
-1.65608e-32
-1.61504e-31
-9.58271e-32
-9.35588e-31
-4.81641e-31
-4.70283e-30
-2.03366e-30
-1.98185e-29
-6.81906e-30
-6.61238e-29
-1.60779e-29
-1.54633e-28
-1.65356e-29
-1.57479e-28
-6.79449e-31
-6.42058e-30
1.06927e-28
7.14302e-28
8.87591e-27
5.68608e-26
3.66626e-25
2.40795e-24
1.00735e-22
-1.85267e-64
-3.51999e-64
-5.36461e-64
-1.07227e-63
-2.16517e-63
-4.54578e-63
-9.25783e-63
-2.04107e-62
-4.14314e-62
-9.59004e-62
-1.94001e-61
-4.71387e-61
-9.50207e-61
-2.42339e-60
-4.86533e-60
-1.30227e-59
-2.60192e-59
-7.30832e-59
-1.45162e-58
-4.27819e-58
-8.43714e-58
-2.60875e-57
-5.1012e-57
-1.65459e-56
-3.20334e-56
-1.08982e-55
-2.08591e-55
-7.4429e-55
-1.40626e-54
-5.26237e-54
-9.80015e-54
-3.84603e-53
-7.04911e-53
-2.90132e-52
-5.22539e-52
-2.25581e-51
-3.98602e-51
-1.80515e-50
-3.12428e-50
-1.48458e-49
-2.51245e-49
-1.25293e-48
-2.06968e-48
-1.08343e-47
-1.74364e-47
-9.58281e-47
-1.49965e-46
-8.65375e-46
-1.31419e-45
-7.9626e-45
-1.17091e-44
-7.44873e-44
-1.05812e-43
-7.06698e-43
-9.67209e-43
-6.78215e-42
-8.91657e-42
-6.56541e-41
-8.26519e-41
-6.39246e-40
-7.70097e-40
-7.30486e-39
-8.15549e-39
-7.75488e-38
-8.21538e-38
-7.83208e-37
-7.83069e-37
-7.48357e-36
-7.02371e-36
-6.72625e-35
-5.88859e-35
-5.64826e-34
-4.57703e-34
-4.39541e-33
-3.26533e-33
-3.13839e-32
-2.11165e-32
-2.03059e-31
-1.21821e-31
-1.1714e-30
-6.13605e-31
-5.89337e-30
-2.61482e-30
-2.50333e-29
-8.94316e-30
-8.50907e-29
-2.19552e-29
-2.0697e-28
-2.57566e-29
-2.40198e-28
-1.31534e-30
-1.21581e-29
2.57283e-28
1.57555e-27
1.56767e-26
8.84231e-26
6.22552e-25
3.4212e-24
1.15568e-22
-4.0085e-64
-7.58118e-64
-1.14279e-63
-2.27383e-63
-4.54498e-63
-9.49884e-63
-1.91435e-62
-4.20138e-62
-8.43414e-62
-1.94336e-61
-3.88601e-61
-9.39925e-61
-1.8723e-60
-4.75327e-60
-9.42946e-60
-2.51235e-59
-4.96042e-59
-1.38688e-58
-2.72287e-58
-7.9877e-58
-1.55762e-57
-4.79377e-57
-9.27251e-57
-2.9935e-56
-5.73531e-56
-1.94205e-55
-3.67995e-55
-1.30685e-54
-2.44537e-54
-9.10713e-54
-1.6802e-53
-6.56211e-53
-1.19178e-52
-4.88134e-52
-8.71298e-52
-3.7429e-51
-6.55536e-51
-2.95392e-50
-5.0677e-50
-2.39583e-49
-4.01909e-49
-1.99392e-48
-3.26472e-48
-1.69998e-47
-2.71164e-47
-1.48222e-46
-2.2988e-46
-1.31915e-45
-1.98517e-45
-1.19591e-44
-1.74251e-44
-1.10193e-43
-1.55089e-43
-1.02943e-42
-1.39587e-42
-9.72522e-42
-1.26678e-41
-9.2649e-41
-1.15572e-40
-8.87549e-40
-1.05986e-39
-9.97781e-39
-1.10436e-38
-1.04165e-37
-1.09488e-37
-1.03476e-36
-1.02753e-36
-9.72835e-36
-9.08013e-36
-8.60827e-35
-7.50692e-35
-7.12257e-34
-5.76121e-34
-5.46794e-33
-4.06543e-33
-3.85804e-32
-2.60675e-32
-2.47245e-31
-1.49597e-31
-1.41722e-30
-7.52907e-31
-7.1158e-30
-3.22596e-30
-3.03534e-29
-1.12009e-29
-1.04619e-28
-2.84561e-29
-2.63063e-28
-3.73306e-29
-3.41074e-28
-2.98961e-30
-2.70442e-29
4.58822e-28
2.32672e-27
2.1646e-26
1.08073e-25
7.69832e-25
3.77057e-24
1.16737e-22
-8.37507e-64
-1.57674e-63
-2.35324e-63
-4.66102e-63
-9.22984e-63
-1.92026e-62
-3.83264e-62
-8.37328e-62
-1.66353e-61
-3.81563e-61
-7.54657e-61
-1.81702e-60
-3.57847e-60
-9.04332e-60
-1.7733e-59
-4.70311e-59
-9.1785e-59
-2.55442e-58
-4.9578e-58
-1.44769e-57
-2.79151e-57
-8.55136e-57
-1.63619e-56
-5.25758e-56
-9.96814e-56
-3.35949e-55
-6.30204e-55
-2.22745e-54
-4.12778e-54
-1.52996e-53
-2.79637e-53
-1.08689e-52
-1.95611e-52
-7.97302e-52
-1.41059e-51
-6.02982e-51
-1.04691e-50
-4.69402e-50
-7.98391e-50
-3.75544e-49
-6.24611e-49
-3.08282e-48
-5.00455e-48
-2.59224e-47
-4.09945e-47
-2.22876e-46
-3.42678e-46
-1.95556e-45
-2.91726e-45
-1.74741e-44
-2.52368e-44
-1.58652e-43
-2.21312e-43
-1.46002e-42
-1.96207e-42
-1.3583e-41
-1.75348e-41
-1.27393e-40
-1.57502e-40
-1.20112e-39
-1.42201e-39
-1.32876e-38
-1.45813e-38
-1.36439e-37
-1.42286e-37
-1.33325e-36
-1.31468e-36
-1.23329e-35
-1.14433e-35
-1.07416e-34
-9.32523e-35
-8.75381e-34
-7.06153e-34
-6.62533e-33
-4.92392e-33
-4.615e-32
-3.12608e-32
-2.92544e-31
-1.78125e-31
-1.66315e-30
-8.93544e-31
-8.3135e-30
-3.83702e-30
-3.5499e-29
-1.34691e-29
-1.23561e-28
-3.52134e-29
-3.19403e-28
-5.08187e-29
-4.5514e-28
-2.45652e-30
-2.17593e-29
5.47548e-28
2.45744e-27
2.46183e-26
1.11425e-25
8.28309e-25
3.81081e-24
1.06886e-22
-1.69209e-63
-3.17119e-63
-4.6901e-63
-9.24766e-63
-1.81552e-62
-3.76015e-62
-7.43781e-62
-1.61763e-61
-3.18274e-61
-7.26727e-61
-1.42252e-60
-3.40955e-60
-6.64229e-60
-1.67098e-59
-3.24014e-59
-8.55426e-59
-1.65059e-58
-4.57268e-58
-8.77506e-58
-2.55056e-57
-4.86364e-57
-1.48302e-56
-2.80693e-56
-8.97765e-56
-1.68435e-55
-5.65013e-55
-1.04925e-54
-3.6911e-54
-6.77398e-54
-2.49887e-53
-4.52471e-53
-1.75025e-52
-3.1216e-52
-1.2662e-51
-2.22055e-51
-9.44578e-51
-1.62596e-50
-7.2542e-50
-1.22345e-49
-5.7259e-49
-9.44404e-49
-4.63733e-48
-7.46567e-48
-3.84684e-47
-6.03307e-47
-3.26247e-46
-4.97439e-46
-2.82315e-45
-4.17623e-45
-2.48737e-44
-3.56203e-44
-2.22619e-43
-3.079e-43
-2.01896e-42
-2.68996e-42
-1.85049e-41
-2.36833e-41
-1.70932e-40
-2.09521e-40
-1.5868e-39
-1.86297e-39
-1.72803e-38
-1.8804e-38
-1.74573e-37
-1.80635e-37
-1.6784e-36
-1.64333e-36
-1.52772e-35
-1.40883e-35
-1.30967e-34
-1.13137e-34
-1.05101e-33
-8.44949e-34
-7.83887e-33
-5.81755e-33
-5.38683e-32
-3.65302e-32
-3.3741e-31
-2.06356e-31
-1.89968e-30
-1.02962e-30
-9.43449e-30
-4.4189e-30
-4.02179e-29
-1.56251e-29
-1.40858e-28
-4.1827e-29
-3.72457e-28
-6.5686e-29
-5.77e-28
-1.03308e-30
-8.96543e-30
5.65835e-28
2.46105e-27
2.46162e-26
1.06732e-25
7.84144e-25
3.31014e-24
8.23377e-23
-3.31051e-63
-6.17635e-63
-9.05848e-63
-1.77809e-62
-3.46307e-62
-7.14028e-62
-1.40072e-61
-3.03275e-61
-5.91336e-61
-1.34416e-60
-2.60563e-60
-6.2172e-60
-1.19876e-59
-3.00209e-59
-5.75894e-59
-1.51353e-58
-2.88844e-58
-7.96556e-58
-1.51172e-57
-4.37394e-57
-8.24916e-57
-2.5038e-56
-4.68801e-56
-1.49249e-55
-2.77091e-55
-9.25183e-55
-1.70076e-54
-5.95509e-54
-1.08228e-53
-3.97365e-53
-7.12789e-53
-2.74411e-52
-4.85009e-52
-1.95789e-51
-3.40363e-51
-1.44081e-50
-2.45912e-50
-1.09174e-49
-1.82599e-49
-8.5032e-49
-1.39102e-48
-6.79569e-48
-1.08519e-47
-5.56272e-47
-8.65388e-47
-4.65492e-46
-7.04039e-46
-3.97396e-45
-5.83114e-45
-3.4536e-44
-4.90559e-44
-3.04818e-43
-4.18145e-43
-2.72547e-42
-3.60144e-42
-2.46213e-41
-3.12514e-41
-2.24093e-40
-2.72419e-40
-2.04916e-39
-2.38643e-39
-2.19761e-38
-2.37189e-38
-2.18509e-37
-2.24366e-37
-2.0676e-36
-2.01015e-36
-1.85228e-35
-1.69747e-35
-1.56308e-34
-1.34323e-34
-1.23516e-33
-9.89123e-34
-9.07635e-33
-6.72108e-33
-6.15042e-32
-4.17083e-32
-3.80364e-31
-2.33294e-31
-2.11838e-30
-1.15583e-30
-1.04354e-29
-4.9462e-30
-4.43077e-29
-1.75602e-29
-1.55646e-28
-4.78965e-29
-4.18949e-28
-8.09509e-29
-6.97852e-28
-1.54262e-30
-1.31241e-29
4.9387e-28
1.86333e-27
2.18683e-26
8.53995e-26
6.3056e-25
2.35555e-24
5.35836e-23
-6.28058e-63
-1.16653e-62
-1.69755e-62
-3.31732e-62
-6.41312e-62
-1.31641e-61
-2.56263e-61
-5.52382e-61
-1.06804e-60
-2.41696e-60
-4.64264e-60
-1.10283e-59
-2.10572e-59
-5.24985e-59
-9.96768e-59
-2.6079e-58
-4.92417e-58
-1.35184e-57
-2.53787e-57
-7.30974e-57
-1.3637e-56
-4.12031e-56
-7.63228e-56
-2.41874e-55
-4.44367e-55
-1.47688e-54
-2.68749e-54
-9.36647e-54
-1.68567e-53
-6.16015e-53
-1.09464e-52
-4.19433e-52
-7.34635e-52
-2.9515e-51
-5.08624e-51
-2.14275e-50
-3.62628e-50
-1.60208e-49
-2.65753e-49
-1.23144e-48
-1.99827e-48
-9.71335e-48
-1.53881e-47
-7.84759e-47
-1.21126e-46
-6.48126e-46
-9.72613e-46
-5.46044e-45
-7.94983e-45
-4.68244e-44
-6.5991e-44
-4.07713e-43
-5.54908e-43
-3.59559e-42
-4.71379e-42
-3.2029e-41
-4.03325e-41
-2.87369e-40
-3.46578e-40
-2.58961e-39
-2.99248e-39
-2.73623e-38
-2.92991e-38
-2.67885e-37
-2.73014e-37
-2.49569e-36
-2.40953e-36
-2.20121e-35
-2.00461e-35
-1.82891e-34
-1.56321e-34
-1.42325e-33
-1.13489e-33
-1.03035e-32
-7.60844e-33
-6.88309e-32
-4.66345e-32
-4.20073e-31
-2.58056e-31
-2.31227e-30
-1.26779e-30
-1.12835e-29
-5.39898e-30
-4.76268e-29
-1.91891e-29
-1.67326e-28
-5.30749e-29
-4.56295e-28
-9.54394e-29
-8.07928e-28
-1.51426e-29
-1.26373e-28
3.53185e-28
1.11128e-27
1.61744e-26
5.56519e-26
4.33134e-25
1.45421e-24
3.23157e-23
-1.15703e-62
-2.13955e-62
-3.09038e-62
-6.01266e-62
-1.15429e-61
-2.35901e-61
-4.55943e-61
-9.7848e-61
-1.87713e-60
-4.22925e-60
-8.05462e-60
-1.90489e-59
-3.60373e-59
-8.94489e-59
-1.68173e-58
-4.3805e-58
-8.18658e-58
-2.23748e-57
-4.15636e-57
-1.19179e-56
-2.19976e-56
-6.61654e-56
-1.21265e-55
-3.82562e-55
-6.9552e-55
-2.3011e-54
-4.14489e-54
-1.43797e-53
-2.56254e-53
-9.32142e-53
-1.64076e-52
-6.25769e-52
-1.08609e-51
-4.34304e-51
-7.41892e-51
-3.11063e-50
-5.21992e-50
-2.29506e-49
-3.77594e-49
-1.74115e-48
-2.8029e-48
-1.3557e-47
-2.13097e-47
-1.08126e-46
-1.65608e-46
-8.81561e-46
-1.31286e-45
-7.33163e-45
-1.05934e-44
-6.20554e-44
-8.67966e-44
-5.33253e-43
-7.20293e-43
-4.6402e-42
-6.03729e-42
-4.07756e-41
-5.09578e-41
-3.60807e-40
-4.31851e-40
-3.2057e-39
-3.67689e-39
-3.33879e-38
-3.54794e-38
-3.22007e-37
-3.25803e-37
-2.95491e-36
-2.83358e-36
-2.56694e-35
-2.32319e-35
-2.10061e-34
-1.78565e-34
-1.61019e-33
-1.2782e-33
-1.14854e-32
-8.45376e-33
-7.56343e-32
-5.1162e-32
-4.55386e-31
-2.79901e-31
-2.47598e-30
-1.36217e-30
-1.19571e-29
-5.76347e-30
-5.00949e-29
-2.04558e-29
-1.75583e-28
-5.71089e-29
-4.82868e-28
-1.07705e-28
-8.95899e-28
-5.25652e-29
-4.30601e-28
2.63639e-28
6.47701e-28
1.04638e-26
3.28902e-26
2.69917e-25
8.44972e-25
1.90849e-23
-2.07271e-62
-3.8161e-62
-5.47212e-62
-1.06004e-61
-2.02155e-61
-4.1135e-61
-7.89716e-61
-1.68743e-60
-3.21354e-60
-7.20883e-60
-1.36195e-59
-3.20695e-59
-6.01438e-59
-1.48633e-58
-2.76846e-58
-7.17961e-58
-1.32859e-57
-3.61523e-57
-6.64719e-57
-1.89759e-56
-3.46603e-56
-1.03791e-55
-1.88232e-55
-5.91182e-55
-1.06367e-54
-3.50332e-54
-6.24641e-54
-2.15725e-53
-3.80651e-53
-1.37835e-52
-2.40315e-52
-9.12333e-52
-1.56901e-51
-6.24505e-51
-1.05745e-50
-4.41294e-50
-7.34279e-50
-3.21314e-49
-5.24328e-49
-2.40616e-48
-3.84276e-48
-1.84958e-47
-2.88486e-47
-1.45649e-46
-2.21393e-46
-1.17253e-45
-1.73317e-45
-9.62854e-45
-1.38096e-44
-8.04642e-44
-1.11721e-43
-6.82609e-43
-9.15316e-43
-5.8631e-42
-7.57289e-42
-5.08464e-41
-6.30815e-41
-4.4392e-40
-5.27472e-40
-3.89055e-39
-4.43061e-39
-3.99607e-38
-4.21534e-38
-3.79842e-37
-3.81642e-37
-3.43499e-36
-3.2723e-36
-2.94029e-35
-2.64495e-35
-2.37079e-34
-2.00438e-34
-1.79066e-33
-1.41492e-33
-1.25876e-32
-9.23236e-33
-8.17203e-32
-5.51613e-32
-4.85365e-31
-2.98243e-31
-2.60578e-30
-1.43668e-30
-1.24446e-29
-6.03193e-30
-5.16874e-29
-2.13333e-29
-1.80363e-28
-5.98686e-29
-4.98161e-28
-1.1678e-28
-9.5512e-28
-8.71307e-29
-7.01077e-28
2.03264e-28
3.24484e-28
6.26245e-27
1.85347e-26
1.60961e-25
4.83042e-25
1.1274e-23
-3.61574e-62
-6.62846e-62
-9.43592e-62
-1.82009e-61
-3.44868e-61
-6.98753e-61
-1.33294e-60
-2.83601e-60
-5.36375e-60
-1.19808e-59
-2.24651e-59
-5.26714e-59
-9.79721e-59
-2.41077e-58
-4.45064e-58
-1.14923e-57
-2.10665e-57
-5.70757e-57
-1.03907e-56
-2.95338e-56
-5.33959e-56
-1.59196e-55
-2.85737e-55
-8.93475e-55
-1.59102e-54
-5.21705e-54
-9.20772e-54
-3.16582e-53
-5.53098e-53
-1.99381e-52
-3.44301e-52
-1.3012e-51
-2.2172e-51
-8.78483e-51
-1.47436e-50
-6.12448e-50
-1.01042e-49
-4.4009e-49
-7.1228e-49
-3.25324e-48
-5.15455e-48
-2.46906e-47
-3.82156e-47
-1.91999e-46
-2.89663e-46
-1.52645e-45
-2.23978e-45
-1.23795e-44
-1.7627e-44
-1.02169e-43
-1.40847e-43
-8.55932e-43
-1.13961e-42
-7.25933e-42
-9.3104e-42
-6.21536e-41
-7.65701e-41
-5.35631e-40
-6.32007e-40
-4.63261e-39
-5.23963e-39
-4.69474e-38
-4.91755e-38
-4.40037e-37
-4.39158e-37
-3.92347e-36
-3.71391e-36
-3.31086e-35
-2.96068e-35
-2.63154e-34
-2.21292e-34
-1.95927e-33
-1.54096e-33
-1.35777e-32
-9.92152e-33
-8.69198e-32
-5.85237e-32
-5.09286e-31
-3.1265e-31
-2.69939e-30
-1.49005e-30
-1.27433e-29
-6.20191e-30
-5.24238e-29
-2.18203e-29
-1.81823e-28
-6.13416e-29
-5.02644e-28
-1.22353e-28
-9.84614e-28
-1.12409e-28
-8.89037e-28
1.56612e-28
1.03069e-28
3.60206e-27
1.02286e-26
9.47035e-26
2.77411e-25
6.7613e-24
-6.15113e-62
-1.12289e-61
-1.58649e-61
-3.04731e-61
-5.73731e-61
-1.15758e-60
-2.19467e-60
-4.64985e-60
-8.7368e-60
-1.94331e-59
-3.618e-59
-8.44696e-59
-1.55903e-58
-3.82005e-58
-6.99316e-58
-1.7981e-57
-3.26638e-57
-8.81198e-57
-1.58895e-56
-4.497e-56
-8.04982e-56
-2.38969e-55
-4.24572e-55
-1.32187e-54
-2.32985e-54
-7.60655e-54
-1.32892e-53
-4.54917e-53
-7.86907e-53
-2.82416e-52
-4.83001e-52
-1.81729e-51
-3.06789e-51
-1.21009e-50
-2.01281e-50
-8.32343e-50
-1.36146e-49
-5.90276e-49
-9.47508e-49
-4.30755e-48
-6.77103e-48
-3.22811e-47
-4.95815e-47
-2.4791e-46
-3.71235e-46
-1.94676e-45
-2.8358e-45
-1.55955e-44
-2.20485e-44
-1.27143e-43
-1.74051e-43
-1.05215e-42
-1.39122e-42
-8.81405e-42
-1.12273e-41
-7.45312e-41
-9.11977e-41
-6.34255e-40
-7.43352e-40
-5.41585e-39
-6.08526e-39
-5.41773e-38
-5.63647e-38
-5.00972e-37
-4.96744e-37
-4.40626e-36
-4.14535e-36
-3.66743e-35
-3.26072e-35
-2.87482e-34
-2.4048e-34
-2.11082e-33
-1.65248e-33
-1.44263e-32
-1.05013e-32
-9.10943e-32
-6.11635e-32
-5.26648e-31
-3.22846e-31
-2.75591e-30
-1.52181e-30
-1.28573e-29
-6.27521e-30
-5.23567e-29
-2.19349e-29
-1.80262e-28
-6.16039e-29
-4.97447e-28
-1.24591e-28
-9.87211e-28
-1.28108e-28
-9.96636e-28
1.23731e-28
4.34124e-29
2.04313e-27
5.62859e-27
5.63192e-26
1.63746e-25
4.18712e-24
-1.02204e-61
-1.858e-61
-2.60414e-61
-4.98137e-61
-9.31826e-61
-1.87234e-60
-3.52846e-60
-7.44493e-60
-1.39008e-59
-3.07915e-59
-5.69398e-59
-1.32387e-58
-2.4255e-58
-5.91848e-58
-1.07482e-57
-2.7521e-57
-4.95634e-57
-1.33152e-56
-2.37893e-56
-6.70451e-56
-1.18858e-55
-3.51356e-55
-6.18043e-55
-1.91607e-54
-3.34309e-54
-1.08681e-53
-1.87961e-53
-6.40669e-53
-1.09722e-52
-3.92084e-52
-6.64072e-52
-2.4877e-51
-4.16038e-51
-1.63381e-50
-2.69317e-50
-1.10875e-49
-1.79793e-49
-7.76019e-49
-1.23535e-48
-5.59065e-48
-8.71803e-48
-4.1372e-47
-6.30575e-47
-3.13814e-46
-4.66438e-46
-2.43433e-45
-3.52048e-45
-1.92665e-44
-2.70471e-44
-1.55189e-43
-2.10983e-43
-1.26888e-42
-1.66645e-42
-1.05021e-41
-1.32886e-41
-8.77353e-41
-1.0665e-40
-7.37542e-40
-8.58788e-40
-6.22026e-39
-6.94478e-39
-6.14489e-38
-6.35126e-38
-5.60834e-37
-5.52638e-37
-4.86833e-36
-4.55293e-36
-3.99862e-35
-3.5354e-35
-3.09281e-34
-2.57388e-34
-2.24058e-33
-1.74602e-33
-1.51088e-32
-1.09554e-32
-9.41394e-32
-6.30192e-32
-5.37168e-31
-3.28696e-31
-2.77561e-30
-1.53226e-30
-1.27962e-29
-6.25688e-30
-5.15606e-29
-2.17084e-29
-1.76065e-28
-6.07858e-29
-4.8404e-28
-1.23917e-28
-9.67477e-28
-1.35828e-28
-1.04021e-27
4.17601e-29
9.27884e-30
1.15445e-27
3.13622e-27
3.47496e-26
1.01905e-25
2.71732e-24
-1.66119e-61
-3.00768e-61
-4.17865e-61
-7.96087e-61
-1.47922e-60
-2.96021e-60
-5.54504e-60
-1.16525e-59
-2.16237e-59
-4.77044e-59
-8.76432e-59
-2.02947e-58
-3.69224e-58
-8.9728e-58
-1.61712e-57
-4.12376e-57
-7.36548e-57
-1.97064e-56
-3.48969e-56
-9.79452e-56
-1.72015e-55
-5.06393e-55
-8.82094e-55
-2.72333e-54
-4.70428e-54
-1.52293e-53
-2.60749e-53
-8.85035e-53
-1.50066e-52
-5.33985e-52
-8.9561e-52
-3.34078e-51
-5.53433e-51
-2.16404e-50
-3.53476e-50
-1.44892e-49
-2.32905e-49
-1.00086e-48
-1.57995e-48
-7.11845e-48
-1.10115e-47
-5.20207e-47
-7.86764e-47
-3.89754e-46
-5.75005e-46
-2.98697e-45
-4.28862e-45
-2.33589e-44
-3.2563e-44
-1.85931e-43
-2.51054e-43
-1.50235e-42
-1.95994e-42
-1.22886e-41
-1.54476e-41
-1.01452e-40
-1.22532e-40
-8.42759e-40
-9.75102e-40
-7.02276e-39
-7.79253e-39
-6.85404e-38
-7.03944e-38
-6.17712e-37
-6.05017e-37
-5.29451e-36
-4.92311e-36
-4.29347e-35
-3.77557e-35
-3.2784e-34
-2.71465e-34
-2.34449e-33
-1.81871e-33
-1.56058e-32
-1.12714e-32
-9.59884e-32
-6.40553e-32
-5.40779e-31
-3.302e-31
-2.7598e-30
-1.5223e-30
-1.25739e-29
-6.15429e-30
-5.01232e-29
-2.11802e-29
-1.69651e-28
-5.90436e-29
-4.63995e-28
-1.20841e-28
-9.30354e-28
-1.37673e-28
-1.03872e-27
-2.02895e-30
-1.5035e-29
6.69156e-28
1.81581e-27
2.27625e-26
6.80186e-26
1.86058e-24
-2.64565e-61
-4.77107e-61
-6.56367e-61
-1.24551e-60
-2.29782e-60
-4.58018e-60
-8.52668e-60
-1.78473e-59
-3.29174e-59
-7.23321e-59
-1.32051e-58
-3.04564e-58
-5.50372e-58
-1.33218e-57
-2.38347e-57
-6.05375e-57
-1.07275e-56
-2.85864e-56
-5.01923e-56
-1.40308e-55
-2.44184e-55
-7.15946e-55
-1.23527e-54
-3.79822e-54
-6.49673e-54
-2.09463e-53
-3.55064e-53
-1.20021e-52
-2.01486e-52
-7.13993e-52
-1.18581e-51
-4.40487e-51
-7.22762e-51
-2.81431e-50
-4.55464e-50
-1.85907e-49
-2.96195e-49
-1.2674e-48
-1.98378e-48
-8.89925e-48
-1.36546e-47
-6.42247e-47
-9.63786e-47
-4.75325e-46
-6.96004e-46
-3.59916e-45
-5.1303e-45
-2.78142e-44
-3.85032e-44
-2.18811e-43
-2.93448e-43
-1.74757e-42
-2.2648e-42
-1.41297e-41
-1.76476e-41
-1.15309e-40
-1.38392e-40
-9.4683e-40
-1.08874e-39
-7.79845e-39
-8.60134e-39
-7.52222e-38
-7.6781e-38
-6.69709e-37
-6.52101e-37
-5.67042e-36
-5.24324e-36
-4.54209e-35
-3.97315e-35
-3.42555e-34
-2.82257e-34
-2.4194e-33
-1.86842e-33
-1.59046e-32
-1.14419e-32
-9.66143e-32
-6.42625e-32
-5.37622e-31
-3.27486e-31
-2.71066e-30
-1.49331e-30
-1.22071e-29
-5.97644e-30
-4.81392e-29
-2.03936e-29
-1.61441e-28
-5.65406e-29
-4.38826e-28
-1.15869e-28
-8.80373e-28
-1.35326e-28
-1.00673e-27
-3.07435e-30
-2.24374e-29
4.04858e-28
1.10497e-27
1.59826e-26
4.86478e-26
1.34015e-24
-4.13594e-61
-7.42962e-61
-1.0107e-60
-1.91046e-60
-3.49719e-60
-6.94391e-60
-1.28433e-59
-2.67786e-59
-4.90841e-59
-1.07439e-58
-1.94918e-58
-4.47816e-58
-8.03961e-58
-1.93842e-57
-3.44391e-57
-8.71304e-57
-1.53232e-56
-4.06733e-56
-7.08312e-56
-1.97224e-55
-3.40232e-55
-9.93625e-55
-1.69849e-54
-5.20184e-54
-8.81183e-54
-2.82973e-53
-4.74943e-53
-1.59901e-52
-2.65772e-52
-9.38005e-52
-1.54255e-51
-5.70679e-51
-9.27389e-51
-3.59633e-50
-5.7661e-50
-2.34386e-49
-3.70091e-49
-1.577e-48
-2.44721e-48
-1.0932e-47
-1.66359e-47
-7.79141e-47
-1.16002e-46
-5.69632e-46
-8.27802e-46
-4.2619e-45
-6.03087e-45
-3.25504e-44
-4.47437e-44
-2.53114e-43
-3.37151e-43
-1.99845e-42
-2.57291e-42
-1.5975e-41
-1.9825e-41
-1.28899e-40
-1.53739e-40
-1.0465e-39
-1.19603e-39
-8.52202e-39
-9.34406e-39
-8.12702e-38
-8.24536e-38
-7.15057e-37
-6.92265e-37
-5.98332e-36
-5.50237e-36
-4.73624e-35
-4.12158e-35
-3.52966e-34
-2.89428e-34
-2.46325e-33
-1.89382e-33
-1.59995e-32
-1.14644e-32
-9.60303e-32
-6.36579e-32
-5.28031e-31
-3.20796e-31
-2.63118e-30
-1.44711e-30
-1.17149e-29
-5.73343e-30
-4.57055e-29
-1.93933e-29
-1.51842e-28
-5.34354e-29
-4.09916e-28
-1.09451e-28
-8.21378e-28
-1.30032e-28
-9.54636e-28
-3.07619e-30
-2.21319e-29
2.5683e-28
7.07299e-28
1.19183e-26
3.66148e-26
1.00287e-24
-6.35859e-61
-1.1379e-60
-1.52803e-60
-2.87743e-60
-5.22172e-60
-1.03289e-59
-1.89708e-59