/*--------------------------------*- C++ -*----------------------------------*\
  =========                 |
  \\      /  F ield         | OpenFOAM: The Open Source CFD Toolbox
   \\    /   O peration     | Website:  https://openfoam.org
    \\  /    A nd           | Version:  9
     \\/     M anipulation  |
\*---------------------------------------------------------------------------*/
FoamFile
{
    format      ascii;
    class       volScalarField;
    location    "0.12";
    object      p;
}
// * * * * * * * * * * * * * * * * * * * * * * * * * * * * * * * * * * * * * //

dimensions      [1 -1 -2 0 0 0 0];

internalField   nonuniform List<scalar> 
5000
(
2.04566
2.04571
2.04562
2.04555
2.04551
2.04549
2.04551
2.04556
2.04566
2.04581
2.04602
2.0463
2.04665
2.04707
2.04755
2.04809
2.04868
2.04929
2.0499
2.05048
2.05098
2.05136
2.05159
2.05163
2.05147
2.05112
2.0506
2.04995
2.04924
2.04849
2.04757
2.04636
2.04474
2.0425
2.03952
2.03584
2.0316
2.02693
2.02185
2.01614
2.00947
2.00159
1.99251
1.98248
1.97179
1.9605
1.94842
1.9351
1.91985
1.90155
2.04388
2.04394
2.04385
2.04378
2.04374
2.04372
2.04373
2.04379
2.04388
2.04403
2.04424
2.04451
2.04485
2.04526
2.04573
2.04627
2.04685
2.04745
2.04805
2.04862
2.04912
2.0495
2.04972
2.04977
2.04962
2.04929
2.0488
2.04819
2.04752
2.04681
2.04594
2.04478
2.04321
2.04104
2.03816
2.03461
2.03054
2.0261
2.02128
2.01587
2.00956
2.00211
1.99356
1.98421
1.97436
1.96412
1.95331
1.94159
1.92844
1.91298
2.0421
2.04218
2.04211
2.04205
2.04202
2.04202
2.04204
2.04209
2.0422
2.04235
2.04255
2.04282
2.04316
2.04355
2.04401
2.04453
2.04509
2.04566
2.04624
2.04678
2.04726
2.04762
2.04785
2.04791
2.0478
2.04752
2.0471
2.04658
2.04599
2.04533
2.0445
2.04335
2.0418
2.0397
2.03697
2.03365
2.02984
2.02564
2.02104
2.01587
2.00989
2.00294
1.99506
1.98651
1.97756
1.96837
1.9589
1.94889
1.93787
1.92511
2.04033
2.04043
2.04038
2.04034
2.04033
2.04033
2.04037
2.04044
2.04055
2.04071
2.04092
2.04118
2.04151
2.0419
2.04234
2.04284
2.04338
2.04393
2.04448
2.045
2.04545
2.04581
2.04604
2.04613
2.04606
2.04585
2.04552
2.04509
2.04458
2.04399
2.04319
2.04207
2.04057
2.03857
2.03602
2.03294
2.0294
2.02546
2.02109
2.01617
2.01055
2.00413
1.99696
1.98924
1.98123
1.97313
1.96501
1.95671
1.94779
1.93766
2.03856
2.03869
2.03865
2.03863
2.03864
2.03867
2.03872
2.0388
2.03892
2.03908
2.0393
2.03957
2.03989
2.04027
2.0407
2.04119
2.04171
2.04224
2.04278
2.04328
2.04372
2.04408
2.04433
2.04445
2.04444
2.0443
2.04405
2.04372
2.04329
2.04276
2.04203
2.04095
2.03952
2.03765
2.03529
2.03245
2.02917
2.0255
2.0214
2.01679
2.01157
2.00567
1.99918
1.99226
1.98518
1.97817
1.97137
1.96471
1.95781
1.95022
2.0368
2.03694
2.03693
2.03694
2.03696
2.03701
2.03708
2.03718
2.03731
2.03748
2.0377
2.03797
2.03829
2.03867
2.0391
2.03957
2.04008
2.0406
2.04113
2.04162
2.04207
2.04243
2.0427
2.04286
2.04291
2.04285
2.04269
2.04245
2.04211
2.04165
2.04099
2.03999
2.03866
2.03693
2.03476
2.03215
2.02914
2.02575
2.02196
2.0177
2.01289
2.00753
2.00168
1.99553
1.98935
1.9834
1.97787
1.97276
1.96774
1.96247
2.03503
2.03521
2.03522
2.03525
2.0353
2.03536
2.03545
2.03557
2.03572
2.0359
2.03613
2.0364
2.03673
2.0371
2.03753
2.03799
2.03849
2.03901
2.03953
2.04003
2.04048
2.04087
2.04117
2.04137
2.04148
2.0415
2.04143
2.04127
2.04102
2.04065
2.04007
2.03917
2.03797
2.0364
2.03443
2.03206
2.02931
2.0262
2.02273
2.01883
2.01446
2.00963
2.00441
1.99901
1.99369
1.98874
1.98439
1.98068
1.97736
1.97417
2.03327
2.03347
2.03351
2.03356
2.03364
2.03373
2.03384
2.03397
2.03414
2.03433
2.03457
2.03485
2.03518
2.03556
2.03598
2.03645
2.03695
2.03747
2.038
2.0385
2.03896
2.03937
2.03971
2.03996
2.04014
2.04023
2.04025
2.04019
2.04003
2.03975
2.03927
2.0385
2.03744
2.03604
2.03428
2.03214
2.02966
2.02685
2.0237
2.02017
2.01624
2.01192
2.00732
2.00263
1.99812
1.9941
1.99081
1.98835
1.98653
1.98511
2.0315
2.03173
2.0318
2.03188
2.03198
2.0321
2.03223
2.03238
2.03257
2.03278
2.03303
2.03332
2.03366
2.03404
2.03447
2.03494
2.03545
2.03598
2.03651
2.03703
2.03751
2.03795
2.03832
2.03863
2.03888
2.03906
2.03917
2.0392
2.03913
2.03895
2.03859
2.03795
2.03705
2.03584
2.03429
2.0324
2.03019
2.02767
2.02486
2.0217
2.0182
2.01438
2.01037
2.00634
2.00258
1.9994
1.99706
1.99568
1.99511
1.99515
2.02973
2.02999
2.03009
2.0302
2.03033
2.03047
2.03063
2.03081
2.03101
2.03124
2.03151
2.03181
2.03216
2.03255
2.03299
2.03347
2.03399
2.03452
2.03507
2.03561
2.03612
2.03659
2.03701
2.03738
2.0377
2.03796
2.03816
2.03829
2.03833
2.03825
2.03801
2.03753
2.0368
2.03578
2.03445
2.03281
2.03087
2.02866
2.02617
2.02339
2.02031
2.01698
2.01351
2.0101
2.00702
2.00459
2.00307
2.00259
2.00302
2.0042
2.02796
2.02825
2.02838
2.02852
2.02868
2.02885
2.02903
2.02923
2.02946
2.02971
2.02999
2.03031
2.03067
2.03108
2.03153
2.03203
2.03256
2.03311
2.03368
2.03424
2.03479
2.0353
2.03577
2.0362
2.03659
2.03694
2.03724
2.03747
2.03762
2.03765
2.03754
2.03722
2.03667
2.03586
2.03476
2.03336
2.0317
2.02979
2.02764
2.02522
2.02255
2.01967
2.01672
2.01387
2.0114
2.00962
2.00879
2.00902
2.01023
2.01223
2.02619
2.02651
2.02667
2.02684
2.02703
2.02723
2.02744
2.02767
2.02791
2.02819
2.02849
2.02883
2.02921
2.02963
2.0301
2.03061
2.03116
2.03174
2.03234
2.03293
2.03351
2.03406
2.03459
2.03509
2.03556
2.036
2.03639
2.03673
2.03698
2.03714
2.03718
2.03703
2.03667
2.03607
2.03519
2.03405
2.03267
2.03106
2.02923
2.02717
2.02489
2.02245
2.01997
2.01763
2.01569
2.01446
2.01419
2.01497
2.01671
2.01924
2.02441
2.02477
2.02496
2.02516
2.02538
2.02561
2.02585
2.0261
2.02638
2.02667
2.027
2.02736
2.02775
2.0282
2.02869
2.02922
2.0298
2.03041
2.03103
2.03166
2.03228
2.03289
2.03347
2.03404
2.03459
2.03512
2.03562
2.03606
2.03643
2.03671
2.0369
2.03694
2.03678
2.03639
2.03575
2.03486
2.03376
2.03245
2.03094
2.02923
2.02732
2.02529
2.02325
2.02136
2.01988
2.01911
2.01926
2.02043
2.0225
2.02528
2.02263
2.02302
2.02324
2.02347
2.02373
2.02399
2.02426
2.02454
2.02484
2.02516
2.02551
2.02589
2.02631
2.02678
2.0273
2.02786
2.02846
2.0291
2.02977
2.03044
2.0311
2.03176
2.03241
2.03305
2.03368
2.03431
2.03491
2.03547
2.03596
2.03637
2.03672
2.03694
2.03699
2.03682
2.03641
2.03578
2.03496
2.03395
2.03276
2.03138
2.02983
2.02818
2.02654
2.02505
2.02396
2.02355
2.02402
2.02542
2.02763
2.03043
2.02085
2.02127
2.02152
2.02179
2.02207
2.02237
2.02267
2.02298
2.02331
2.02366
2.02403
2.02444
2.02489
2.02538
2.02592
2.02652
2.02716
2.02783
2.02854
2.02925
2.02997
2.03069
2.0314
2.03212
2.03284
2.03356
2.03427
2.03494
2.03556
2.03611
2.03662
2.03704
2.03729
2.03734
2.03718
2.03681
2.03627
2.03555
2.03467
2.03361
2.03241
2.03112
2.02984
2.02871
2.02795
2.02781
2.02848
2.02999
2.03218
2.03481
2.01906
2.01952
2.0198
2.0201
2.02042
2.02074
2.02108
2.02142
2.02178
2.02216
2.02256
2.02299
2.02347
2.02399
2.02457
2.02519
2.02587
2.02659
2.02734
2.0281
2.02888
2.02966
2.03044
2.03124
2.03205
2.03287
2.03369
2.03448
2.03522
2.03591
2.0366
2.03722
2.03768
2.03796
2.03804
2.03794
2.03767
2.03725
2.03667
2.03592
2.03505
2.03409
2.03314
2.03233
2.03184
2.0319
2.03268
2.03419
2.03623
2.03853
2.01727
2.01776
2.01808
2.01841
2.01876
2.01912
2.01949
2.01986
2.02025
2.02066
2.02109
2.02155
2.02206
2.02261
2.02322
2.02389
2.02461
2.02537
2.02617
2.02699
2.02782
2.02867
2.02952
2.0304
2.03131
2.03223
2.03316
2.03408
2.03495
2.03579
2.03664
2.03747
2.03815
2.03867
2.039
2.03915
2.03916
2.03903
2.03875
2.03831
2.03775
2.0371
2.03645
2.03592
2.03567
2.03588
2.03668
2.03808
2.03988
2.04172
2.01547
2.016
2.01635
2.01671
2.0171
2.01749
2.01789
2.0183
2.01872
2.01916
2.01962
2.02012
2.02066
2.02125
2.02189
2.0226
2.02336
2.02418
2.02503
2.02591
2.0268
2.02772
2.02865
2.02962
2.03062
2.03165
2.03269
2.03373
2.03474
2.03572
2.03676
2.03779
2.0387
2.03945
2.04003
2.04045
2.04073
2.04089
2.0409
2.04077
2.04051
2.04016
2.03979
2.03951
2.03945
2.03976
2.04054
2.04176
2.04322
2.04452
2.01367
2.01423
2.01461
2.01502
2.01544
2.01586
2.0163
2.01674
2.01719
2.01767
2.01816
2.01869
2.01926
2.01989
2.02057
2.02132
2.02213
2.023
2.02391
2.02485
2.02581
2.0268
2.02782
2.02887
2.02997
2.03111
2.03227
2.03343
2.03458
2.03571
2.03693
2.03818
2.03931
2.0403
2.04113
2.04182
2.04238
2.04282
2.04313
2.0433
2.04333
2.04326
2.04315
2.0431
2.04321
2.0436
2.04431
2.04531
2.04637
2.04708
2.01187
2.01246
2.01288
2.01331
2.01377
2.01423
2.0147
2.01518
2.01566
2.01617
2.0167
2.01726
2.01787
2.01854
2.01926
2.02006
2.02092
2.02184
2.02281
2.02382
2.02485
2.02592
2.02701
2.02816
2.02936
2.03061
2.03189
2.03318
2.03447
2.03576
2.03716
2.03863
2.03999
2.04122
2.04231
2.04326
2.04411
2.04483
2.04543
2.04589
2.04622
2.04643
2.04657
2.04672
2.04698
2.04743
2.04806
2.04881
2.04945
2.04954
2.01006
2.01068
2.01113
2.0116
2.0121
2.01259
2.0131
2.01361
2.01413
2.01467
2.01524
2.01584
2.01649
2.01719
2.01796
2.0188
2.01972
2.0207
2.02173
2.02281
2.02392
2.02506
2.02624
2.02748
2.02878
2.03014
2.03155
2.03297
2.03441
2.03585
2.03744
2.03913
2.04072
2.04219
2.04354
2.04477
2.04589
2.04691
2.0478
2.04855
2.04917
2.04966
2.05005
2.0504
2.0508
2.05129
2.05184
2.05234
2.05255
2.05205
2.00824
2.0089
2.00938
2.00989
2.01042
2.01095
2.01149
2.01204
2.0126
2.01318
2.01378
2.01442
2.0151
2.01585
2.01666
2.01756
2.01853
2.01957
2.02067
2.02182
2.023
2.02423
2.0255
2.02683
2.02824
2.02971
2.03124
2.0328
2.03438
2.03599
2.03777
2.03967
2.0415
2.04322
2.04483
2.04634
2.04774
2.04904
2.05023
2.05128
2.0522
2.05296
2.0536
2.05415
2.05469
2.05522
2.05571
2.05598
2.0558
2.05471
2.00642
2.00711
2.00763
2.00817
2.00873
2.0093
2.00988
2.01047
2.01106
2.01168
2.01232
2.01299
2.01372
2.01451
2.01537
2.01632
2.01734
2.01845
2.01962
2.02084
2.02211
2.02342
2.02478
2.02621
2.02772
2.02931
2.03097
2.03266
2.03439
2.03616
2.03813
2.04026
2.04232
2.0443
2.04617
2.04795
2.04965
2.05125
2.05273
2.05408
2.05529
2.05635
2.05725
2.05801
2.05868
2.05928
2.05971
2.0598
2.05926
2.05767
2.00459
2.00532
2.00587
2.00644
2.00704
2.00765
2.00826
2.00889
2.00952
2.01018
2.01086
2.01157
2.01234
2.01317
2.01408
2.01508
2.01616
2.01733
2.01857
2.01987
2.02122
2.02262
2.02408
2.02561
2.02723
2.02894
2.03072
2.03255
2.03443
2.03636
2.03853
2.04088
2.04318
2.04541
2.04755
2.04962
2.0516
2.0535
2.05529
2.05695
2.05847
2.05982
2.06099
2.06198
2.06282
2.0635
2.06391
2.06386
2.06304
2.06101
2.00276
2.00352
2.0041
2.00471
2.00535
2.00599
2.00664
2.0073
2.00798
2.00867
2.00939
2.01015
2.01096
2.01184
2.0128
2.01385
2.01499
2.01623
2.01754
2.01892
2.02036
2.02185
2.0234
2.02503
2.02676
2.02858
2.03049
2.03247
2.0345
2.03659
2.03895
2.04153
2.04408
2.04656
2.04898
2.05132
2.0536
2.05581
2.05792
2.0599
2.06172
2.06338
2.06484
2.06609
2.06712
2.06791
2.06835
2.06821
2.06719
2.06483
2.00092
2.00171
2.00233
2.00297
2.00364
2.00432
2.00501
2.00571
2.00642
2.00716
2.00792
2.00872
2.00958
2.0105
2.01151
2.01262
2.01382
2.01513
2.01651
2.01797
2.0195
2.02108
2.02273
2.02446
2.0263
2.02824
2.03028
2.0324
2.03458
2.03684
2.0394
2.04221
2.04499
2.04774
2.05043
2.05306
2.05564
2.05816
2.06059
2.0629
2.06505
2.06703
2.06881
2.07034
2.07159
2.07254
2.07306
2.07291
2.07178
2.0692
1.99908
1.9999
2.00055
2.00122
2.00192
2.00264
2.00337
2.00411
2.00486
2.00564
2.00645
2.00729
2.00819
2.00917
2.01023
2.01139
2.01266
2.01403
2.01549
2.01703
2.01864
2.02032
2.02207
2.0239
2.02585
2.02791
2.03008
2.03234
2.03468
2.03711
2.03986
2.0429
2.04593
2.04894
2.05191
2.05484
2.05772
2.06056
2.06332
2.06597
2.06847
2.07078
2.07289
2.07474
2.07627
2.07742
2.07808
2.078
2.07686
2.07419
1.99723
1.99808
1.99876
1.99946
2.0002
2.00095
2.00172
2.0025
2.00329
2.00412
2.00497
2.00586
2.00681
2.00783
2.00895
2.01016
2.01149
2.01293
2.01447
2.01609
2.01779
2.01956
2.02141
2.02335
2.02541
2.02759
2.02989
2.03229
2.03479
2.03739
2.04034
2.0436
2.04688
2.05016
2.05341
2.05664
2.05983
2.06298
2.06609
2.06909
2.07195
2.07463
2.0771
2.0793
2.08114
2.08257
2.08344
2.08351
2.08246
2.07985
1.99538
1.99625
1.99696
1.99769
1.99846
1.99925
2.00005
2.00087
2.00172
2.00258
2.00348
2.00442
2.00542
2.00649
2.00766
2.00894
2.01032
2.01183
2.01345
2.01516
2.01695
2.01881
2.02076
2.0228
2.02497
2.02727
2.0297
2.03224
2.0349
2.03767
2.04082
2.04431
2.04784
2.05138
2.05492
2.05845
2.06196
2.06544
2.06889
2.07226
2.0755
2.07857
2.08143
2.08401
2.08622
2.08798
2.08914
2.08946
2.08863
2.08622
1.99352
1.99441
1.99515
1.99591
1.99671
1.99753
1.99838
1.99924
2.00012
2.00104
2.00198
2.00298
2.00403
2.00515
2.00638
2.00771
2.00916
2.01073
2.01242
2.01422
2.0161
2.01806
2.0201
2.02225
2.02453
2.02694
2.0295
2.03219
2.03501
2.03794
2.0413
2.04502
2.04879
2.0526
2.05643
2.06027
2.0641
2.06792
2.07173
2.07548
2.07911
2.08259
2.08587
2.08887
2.09151
2.09366
2.09519
2.09586
2.09537
2.09331
1.99165
1.99257
1.99333
1.99412
1.99495
1.99581
1.99668
1.99759
1.99852
1.99948
2.00048
2.00152
2.00263
2.00381
2.00509
2.00647
2.00799
2.00963
2.01139
2.01327
2.01524
2.0173
2.01944
2.0217
2.02408
2.02661
2.0293
2.03213
2.0351
2.03821
2.04177
2.04572
2.04974
2.05381
2.05793
2.06208
2.06625
2.07042
2.07459
2.07872
2.08277
2.08668
2.09041
2.09388
2.09699
2.0996
2.10158
2.10271
2.10269
2.10114
1.98978
1.99072
1.9915
1.99232
1.99318
1.99406
1.99498
1.99592
1.9969
1.99791
1.99896
2.00006
2.00122
2.00246
2.00379
2.00524
2.00681
2.00852
2.01036
2.01232
2.01438
2.01653
2.01878
2.02113
2.02362
2.02627
2.02909
2.03206
2.03518
2.03847
2.04222
2.04641
2.05067
2.055
2.05941
2.06388
2.06838
2.07291
2.07746
2.082
2.08647
2.09084
2.09505
2.09902
2.10264
2.10579
2.10831
2.10999
2.11055
2.10966
1.98791
1.98886
1.98966
1.9905
1.99139
1.99231
1.99326
1.99425
1.99527
1.99633
1.99744
1.99859
1.99981
2.00111
2.0025
2.004
2.00563
2.00741
2.00932
2.01135
2.0135
2.01575
2.0181
2.02055
2.02315
2.02591
2.02885
2.03196
2.03524
2.0387
2.04265
2.04707
2.05157
2.05617
2.06087
2.06565
2.0705
2.07539
2.08033
2.08528
2.0902
2.09505
2.09977
2.10427
2.10846
2.1122
2.11533
2.11767
2.11894
2.11886
1.98603
1.987
1.98781
1.98868
1.98959
1.99053
1.99152
1.99255
1.99362
1.99474
1.9959
1.99711
1.99839
1.99975
2.0012
2.00276
2.00445
2.00629
2.00826
2.01038
2.01261
2.01496
2.0174
2.01996
2.02266
2.02553
2.02859
2.03184
2.03528
2.0389
2.04305
2.0477
2.05245
2.05731
2.06229
2.06738
2.07257
2.07784
2.08318
2.08856
2.09395
2.09929
2.10454
2.10962
2.11442
2.11881
2.12264
2.12571
2.12781
2.12867
1.98414
1.98513
1.98596
1.98684
1.98777
1.98875
1.98977
1.99084
1.99196
1.99312
1.99434
1.99562
1.99696
1.99838
1.99989
2.00151
2.00326
2.00516
2.0072
2.00939
2.01171
2.01414
2.01669
2.01935
2.02215
2.02513
2.02831
2.03169
2.03527
2.03906
2.04341
2.04829
2.05328
2.0584
2.06366
2.06906
2.0746
2.08024
2.08599
2.09181
2.09768
2.10354
2.10936
2.11504
2.1205
2.12559
2.13018
2.13409
2.13712
2.13905
1.98225
1.98325
1.98409
1.98499
1.98595
1.98695
1.98801
1.98912
1.99028
1.9915
1.99278
1.99411
1.99552
1.997
1.99857
2.00025
2.00206
2.00402
2.00612
2.00838
2.01078
2.01331
2.01595
2.01871
2.02161
2.0247
2.02799
2.0315
2.03522
2.03918
2.04373
2.04883
2.05406
2.05944
2.06498
2.07068
2.07656
2.08258
2.08874
2.09501
2.10137
2.10777
2.11418
2.1205
2.12665
2.13251
2.13792
2.14275
2.14681
2.14994
1.98035
1.98136
1.98222
1.98313
1.98411
1.98514
1.98623
1.98738
1.98859
1.98986
1.9912
1.9926
1.99407
1.99561
1.99725
1.99899
2.00085
2.00286
2.00503
2.00736
2.00984
2.01245
2.01518
2.01804
2.02104
2.02423
2.02763
2.03126
2.03513
2.03924
2.04398
2.04931
2.05478
2.06041
2.06623
2.07224
2.07844
2.08484
2.09141
2.09813
2.105
2.11196
2.11897
2.12596
2.13285
2.1395
2.1458
2.15162
2.15682
2.16123
1.97845
1.97947
1.98034
1.98127
1.98227
1.98332
1.98444
1.98562
1.98688
1.9882
1.9896
1.99106
1.9926
1.99421
1.99591
1.99771
1.99963
2.0017
2.00393
2.00632
2.00886
2.01156
2.01438
2.01733
2.02044
2.02372
2.02723
2.03098
2.03498
2.03924
2.04417
2.04972
2.05543
2.06131
2.0674
2.0737
2.08024
2.087
2.09397
2.10116
2.10853
2.11605
2.12369
2.13137
2.13902
2.14652
2.15377
2.16064
2.16704
2.17285
1.97655
1.97758
1.97846
1.9794
1.98041
1.98149
1.98264
1.98386
1.98516
1.98654
1.98799
1.98952
1.99112
1.9928
1.99456
1.99642
1.9984
2.00052
2.0028
2.00525
2.00786
2.01063
2.01354
2.01659
2.01979
2.02318
2.02678
2.03064
2.03477
2.03918
2.04429
2.05006
2.05599
2.06212
2.06848
2.07507
2.08193
2.08905
2.09642
2.10406
2.11193
2.12002
2.1283
2.13669
2.14512
2.1535
2.16173
2.16972
2.1774
2.18468
1.97464
1.97568
1.97657
1.97753
1.97856
1.97966
1.98083
1.98209
1.98343
1.98486
1.98636
1.98795
1.98962
1.99137
1.9932
1.99512
1.99716
1.99933
2.00166
2.00416
2.00683
2.00967
2.01267
2.01581
2.0191
2.02258
2.02628
2.03025
2.03449
2.03904
2.04433
2.0503
2.05646
2.06284
2.06945
2.07633
2.0835
2.09097
2.09873
2.10681
2.11518
2.12384
2.13275
2.14186
2.1511
2.16038
2.16963
2.17877
2.18778
2.19661
1.97273
1.97378
1.97468
1.97565
1.9767
1.97782
1.97902
1.98031
1.98169
1.98316
1.98473
1.98637
1.98811
1.98992
1.99181
1.9938
1.9959
1.99812
2.0005
2.00304
2.00577
2.00867
2.01174
2.01497
2.01836
2.02193
2.02573
2.02979
2.03415
2.03883
2.04427
2.05044
2.05682
2.06343
2.0703
2.07747
2.08494
2.09274
2.10089
2.1094
2.11826
2.12748
2.13702
2.14684
2.15689
2.16708
2.17737
2.18771
2.19809
2.20851
1.97082
1.97187
1.97279
1.97378
1.97484
1.97599
1.97721
1.97853
1.97995
1.98146
1.98308
1.98478
1.98657
1.98845
1.99041
1.99246
1.99462
1.99689
1.99931
2.0019
2.00468
2.00763
2.01077
2.01408
2.01756
2.02122
2.02511
2.02927
2.03373
2.03852
2.04412
2.05048
2.05706
2.0639
2.07102
2.07845
2.08622
2.09435
2.10287
2.1118
2.12114
2.13089
2.14105
2.15158
2.16243
2.17355
2.18488
2.19643
2.2082
2.22026
1.96891
1.96997
1.9709
1.97191
1.97299
1.97415
1.97541
1.97676
1.97821
1.97976
1.98141
1.98317
1.98502
1.98696
1.98899
1.9911
1.99331
1.99564
1.9981
2.00073
2.00355
2.00655
2.00975
2.01313
2.01669
2.02045
2.02443
2.02868
2.03323
2.03813
2.04387
2.0504
2.05718
2.06423
2.07159
2.07928
2.08734
2.09578
2.10466
2.11398
2.12378
2.13406
2.14483
2.15604
2.16768
2.17971
2.19209
2.20484
2.21803
2.23173
1.96699
1.96807
1.96902
1.97004
1.97115
1.97233
1.97361
1.97498
1.97646
1.97805
1.97975
1.98155
1.98345
1.98545
1.98754
1.98971
1.99198
1.99436
1.99687
1.99953
2.00238
2.00543
2.00868
2.01212
2.01576
2.01961
2.02367
2.02801
2.03265
2.03765
2.04351
2.05019
2.05715
2.06441
2.07199
2.07993
2.08826
2.09701
2.10622
2.11593
2.12617
2.13695
2.14829
2.16018
2.17259
2.1855
2.19891
2.21286
2.22744
2.24279
1.96508
1.96618
1.96714
1.96818
1.96931
1.97052
1.97181
1.97321
1.97472
1.97634
1.97807
1.97991
1.98186
1.98391
1.98606
1.98829
1.99062
1.99305
1.9956
1.9983
2.00118
2.00426
2.00755
2.01105
2.01476
2.01868
2.02283
2.02725
2.03198
2.03707
2.04304
2.04987
2.05699
2.06443
2.07222
2.08038
2.08896
2.098
2.10753
2.11761
2.12826
2.13953
2.15142
2.16394
2.17709
2.19086
2.20527
2.22039
2.23634
2.2533
1.96316
1.96428
1.96527
1.96634
1.96749
1.96871
1.97003
1.97146
1.97299
1.97463
1.97639
1.97827
1.98026
1.98235
1.98455
1.98684
1.98922
1.9917
1.9943
1.99704
1.99995
2.00305
2.00637
2.00991
2.01368
2.01768
2.02191
2.02641
2.03122
2.03639
2.04246
2.04941
2.05667
2.06428
2.07225
2.08062
2.08944
2.09874
2.10857
2.11899
2.13003
2.14174
2.15415
2.16728
2.18112
2.19571
2.21108
2.22732
2.2446
2.26313
1.96125
1.96239
1.96341
1.9645
1.96567
1.96692
1.96827
1.96971
1.97126
1.97293
1.97471
1.97661
1.97864
1.98077
1.98301
1.98535
1.98778
1.99031
1.99296
1.99573
1.99867
2.00179
2.00514
2.00871
2.01253
2.01658
2.02089
2.02546
2.03035
2.03561
2.04177
2.04882
2.05621
2.06395
2.07209
2.08064
2.08967
2.09921
2.10931
2.12004
2.13144
2.14357
2.15646
2.17014
2.18464
2.19999
2.21626
2.23357
2.25211
2.27213
1.95933
1.96051
1.96155
1.96267
1.96387
1.96515
1.96651
1.96798
1.96954
1.97123
1.97303
1.97495
1.977
1.97916
1.98144
1.98382
1.9863
1.98888
1.99157
1.99438
1.99735
2.00049
2.00385
2.00745
2.0113
2.0154
2.01977
2.02441
2.02938
2.03471
2.04095
2.0481
2.0556
2.06346
2.07172
2.08044
2.08964
2.09939
2.10974
2.12075
2.13247
2.14496
2.15828
2.17247
2.18757
2.20363
2.22074
2.23904
2.25875
2.28015
1.95742
1.95863
1.9597
1.96085
1.96208
1.96338
1.96477
1.96625
1.96784
1.96953
1.97135
1.97329
1.97535
1.97754
1.97984
1.98226
1.98478
1.9874
1.99013
1.99298
1.99598
1.99914
2.00251
2.00613
2.00999
2.01413
2.01854
2.02325
2.02828
2.03368
2.04
2.04724
2.05482
2.06278
2.07116
2.08
2.08936
2.09928
2.10984
2.12108
2.13308
2.1459
2.1596
2.17423
2.18986
2.20656
2.22442
2.24362
2.2644
2.28706
1.9555
1.95674
1.95786
1.95904
1.9603
1.96163
1.96304
1.96454
1.96614
1.96785
1.96967
1.97162
1.97369
1.97589
1.97821
1.98065
1.98321
1.98587
1.98864
1.99153
1.99455
1.99774
2.00112
2.00474
2.00862
2.01278
2.01722
2.02198
2.02706
2.03252
2.03891
2.04623
2.05389
2.06193
2.07039
2.07933
2.08881
2.09887
2.1096
2.12104
2.13326
2.14635
2.16037
2.17538
2.19147
2.20872
2.22724
2.24723
2.26895
2.29273
1.95359
1.95486
1.95601
1.95723
1.95852
1.95988
1.96131
1.96284
1.96445
1.96617
1.968
1.96994
1.97202
1.97422
1.97655
1.97901
1.98159
1.98429
1.98709
1.99001
1.99307
1.99627
1.99967
2.00329
2.00717
2.01134
2.0158
2.02059
2.02572
2.03123
2.03768
2.04506
2.05278
2.06088
2.06941
2.07843
2.08799
2.09816
2.10901
2.1206
2.133
2.1463
2.16057
2.1759
2.19236
2.21006
2.22913
2.24979
2.2723
2.29703
1.95167
1.95298
1.95417
1.95542
1.95674
1.95813
1.95959
1.96114
1.96276
1.96449
1.96632
1.96827
1.97034
1.97254
1.97487
1.97734
1.97993
1.98265
1.98548
1.98843
1.99152
1.99475
1.99816
2.00178
2.00566
2.00982
2.01429
2.01909
2.02424
2.02979
2.03629
2.04372
2.05149
2.05963
2.06821
2.07728
2.0869
2.09715
2.10808
2.11977
2.13229
2.14574
2.16019
2.17574
2.19249
2.21054
2.23005
2.25123
2.27438
2.29986
1.94975
1.9511
1.95232
1.95361
1.95497
1.95639
1.95787
1.95943
1.96108
1.96281
1.96464
1.96659
1.96865
1.97084
1.97317
1.97563
1.97823
1.98096
1.98381
1.98679
1.9899
1.99315
1.99658
2.0002
2.00407
2.00822
2.01268
2.01748
2.02265
2.02822
2.03474
2.0422
2.05
2.05818
2.06678
2.07588
2.08554
2.09582
2.10679
2.11853
2.13113
2.14466
2.15922
2.17492
2.19185
2.21014
2.22996
2.25151
2.27511
2.30112
1.94783
1.94922
1.95048
1.9518
1.95319
1.95464
1.95615
1.95773
1.95939
1.96113
1.96296
1.9649
1.96695
1.96913
1.97144
1.97389
1.97648
1.97921
1.98208
1.98507
1.98821
1.99148
1.99492
1.99855
2.00242
2.00655
2.01099
2.01577
2.02093
2.0265
2.03304
2.04051
2.04832
2.05651
2.06512
2.07423
2.08389
2.09417
2.10515
2.1169
2.1295
2.14305
2.15765
2.1734
2.19042
2.20884
2.22882
2.25059
2.27444
2.30074
1.94591
1.94732
1.94862
1.94998
1.9514
1.95288
1.95441
1.95601
1.95769
1.95943
1.96127
1.9632
1.96524
1.9674
1.9697
1.97213
1.9747
1.97742
1.98029
1.98329
1.98644
1.98973
1.99318
1.99682
2.00068
2.00479
2.00921
2.01397
2.0191
2.02465
2.03118
2.03864
2.04645
2.05462
2.06323
2.07232
2.08195
2.09221
2.10315
2.11486
2.12741
2.14092
2.15548
2.1712
2.1882
2.20662
2.22662
2.24843
2.27233
2.29867
1.94399
1.94543
1.94676
1.94814
1.9496
1.9511
1.95266
1.95428
1.95597
1.95773
1.95956
1.96149
1.96352
1.96566
1.96793
1.97034
1.97289
1.97559
1.97844
1.98145
1.9846
1.9879
1.99136
1.99501
1.99886
2.00296
2.00734
2.01206
2.01716
2.02268
2.02917
2.0366
2.04437
2.05252
2.06109
2.07014
2.07973
2.08992
2.10078
2.1124
2.12487
2.13827
2.15271
2.16831
2.18519
2.20349
2.22337
2.24504
2.26876
2.29488
1.94206
1.94352
1.94488
1.9463
1.94778
1.94931
1.95089
1.95253
1.95423
1.956
1.95784
1.95976
1.96178
1.9639
1.96615
1.96853
1.97105
1.97372
1.97655
1.97954
1.98268
1.98599
1.98946
1.9931
1.99695
2.00103
2.00539
2.01007
2.01512
2.02059
2.02702
2.0344
2.04211
2.0502
2.05871
2.06769
2.0772
2.0873
2.09805
2.10955
2.12186
2.13509
2.14935
2.16474
2.1814
2.19945
2.21906
2.24041
2.26374
2.28936
1.94012
1.94161
1.94299
1.94444
1.94594
1.94749
1.9491
1.95075
1.95247
1.95424
1.95609
1.95801
1.96001
1.96212
1.96434
1.96669
1.96918
1.97181
1.97461
1.97758
1.9807
1.984
1.98746
1.9911
1.99494
1.99901
2.00334
2.00798
2.01298
2.01838
2.02474
2.03204
2.03968
2.04769
2.05611
2.06499
2.07439
2.08436
2.09497
2.10628
2.1184
2.1314
2.1454
2.16051
2.17684
2.19452
2.21371
2.23456
2.25729
2.28213
1.93819
1.93969
1.9411
1.94256
1.94408
1.94565
1.94728
1.94895
1.95068
1.95246
1.95431
1.95622
1.95822
1.96031
1.96251
1.96483
1.96728
1.96988
1.97264
1.97556
1.97866
1.98193
1.98538
1.98901
1.99284
1.99689
2.00119
2.00579
2.01073
2.01607
2.02234
2.02954
2.03708
2.04498
2.05329
2.06205
2.0713
2.08111
2.09153
2.10263
2.11449
2.12721
2.14089
2.15562
2.17153
2.18874
2.20736
2.22754
2.24944
2.27324
1.93625
1.93776
1.93918
1.94066
1.9422
1.94379
1.94542
1.94711
1.94885
1.95064
1.95249
1.95441
1.9564
1.95848
1.96065
1.96294
1.96535
1.96791
1.97062
1.97351
1.97656
1.9798
1.98322
1.98683
1.99064
1.99466
1.99894
2.00349
2.00838
2.01364
2.01982
2.02691
2.03433
2.0421
2.05027
2.05887
2.06795
2.07756
2.08775
2.09859
2.11016
2.12255
2.13583
2.15012
2.16552
2.18213
2.20006
2.2194
2.24027
2.26278
1.9343
1.93583
1.93725
1.93875
1.9403
1.94189
1.94354
1.94523
1.94698
1.94878
1.95063
1.95255
1.95454
1.9566
1.95876
1.96102
1.96339
1.96591
1.96857
1.97141
1.97442
1.97761
1.98099
1.98457
1.98834
1.99234
1.99658
2.00109
2.00591
2.0111
2.01719
2.02415
2.03143
2.03906
2.04706
2.05548
2.06436
2.07374
2.08367
2.09421
2.10544
2.11743
2.13027
2.14405
2.15885
2.17476
2.19187
2.21022
2.22988
2.25085
1.93235
1.93388
1.93531
1.93681
1.93837
1.93997
1.94162
1.94332
1.94507
1.94688
1.94874
1.95065
1.95264
1.95469
1.95683
1.95906
1.9614
1.96387
1.96649
1.96927
1.97222
1.97536
1.97869
1.98222
1.98596
1.98992
1.99411
1.99857
2.00334
2.00845
2.01443
2.02127
2.0284
2.03586
2.04369
2.0519
2.06055
2.06966
2.0793
2.08951
2.10036
2.11192
2.12425
2.13745
2.15157
2.1667
2.18287
2.20011
2.21837
2.23761
1.9304
1.93192
1.93336
1.93486
1.93641
1.93802
1.93967
1.94137
1.94313
1.94493
1.94679
1.94871
1.95069
1.95273
1.95485
1.95706
1.95938
1.96181
1.96438
1.9671
1.96999
1.97306
1.97633
1.9798
1.98349
1.9874
1.99154
1.99595
2.00065
2.00568
2.01156
2.01826
2.02524
2.03253
2.04015
2.04814
2.05653
2.06536
2.07468
2.08453
2.09496
2.10604
2.11782
2.13038
2.14377
2.15803
2.17317
2.18916
2.20591
2.22322
1.92845
1.92996
1.93139
1.93289
1.93444
1.93604
1.93769
1.93939
1.94114
1.94294
1.9448
1.94672
1.94869
1.95073
1.95283
1.95502
1.95731
1.9597
1.96222
1.96489
1.96772
1.97072
1.97392
1.97732
1.98094
1.98479
1.98887
1.99322
1.99785
2.0028
2.00856
2.01512
2.02195
2.02905
2.03646
2.04421
2.05233
2.06086
2.06983
2.07929
2.08928
2.09984
2.11104
2.12291
2.13551
2.14884
2.16288
2.17753
2.19264
2.20791
1.92649
1.92799
1.92941
1.9309
1.93244
1.93403
1.93567
1.93737
1.93911
1.94091
1.94277
1.94467
1.94664
1.94867
1.95076
1.95293
1.95519
1.95755
1.96003
1.96264
1.96541
1.96834
1.97146
1.97479
1.97833
1.9821
1.98612
1.99038
1.99493
1.99979
2.00545
2.01187
2.01852
2.02544
2.03263
2.04013
2.04797
2.05618
2.06479
2.07383
2.08335
2.09338
2.10395
2.11511
2.12687
2.13922
2.1521
2.16536
2.17875
2.19189
1.92453
1.92601
1.92742
1.92889
1.93042
1.932
1.93363
1.93531
1.93705
1.93884
1.94068
1.94258
1.94454
1.94656
1.94864
1.95079
1.95303
1.95536
1.95779
1.96035
1.96306
1.96592
1.96896
1.97221
1.97566
1.97935
1.98328
1.98746
1.99192
1.99668
2.00221
2.00848
2.01497
2.02169
2.02866
2.0359
2.04345
2.05133
2.05957
2.06819
2.07722
2.0867
2.09663
2.10705
2.11795
2.12929
2.14097
2.15279
2.16443
2.17539
1.92256
1.92403
1.92542
1.92687
1.92838
1.92994
1.93155
1.93322
1.93494
1.93672
1.93855
1.94044
1.94238
1.94439
1.94646
1.9486
1.95081
1.95311
1.95551
1.95802
1.96066
1.96346
1.96642
1.96958
1.97295
1.97653
1.98036
1.98445
1.9888
1.99346
1.99886
2.00498
2.01129
2.0178
2.02455
2.03153
2.03879
2.04634
2.0542
2.06239
2.07093
2.07984
2.08912
2.09879
2.10881
2.11913
2.1296
2.13998
2.14987
2.15867
1.92059
1.92203
1.9234
1.92484
1.92632
1.92786
1.92945
1.9311
1.9328
1.93456
1.93638
1.93825
1.94018
1.94217
1.94422
1.94634
1.94854
1.95081
1.95317
1.95564
1.95823
1.96096
1.96384
1.96691
1.97018
1.97367
1.97739
1.98136
1.98561
1.99015
1.99541
2.00136
2.00749
2.0138
2.02031
2.02704
2.034
2.04121
2.04869
2.05646
2.0645
2.07285
2.08148
2.09039
2.09954
2.10884
2.11812
2.12707
2.13524
2.14195
1.91862
1.92003
1.92138
1.92279
1.92425
1.92576
1.92733
1.92895
1.93063
1.93237
1.93416
1.93601
1.93793
1.9399
1.94193
1.94403
1.94621
1.94845
1.95078
1.95321
1.95574
1.95841
1.96122
1.9642
1.96738
1.97076
1.97436
1.97822
1.98234
1.98675
1.99187
1.99764
2.00357
2.00967
2.01595
2.02242
2.02908
2.03597
2.04308
2.05041
2.05797
2.06575
2.07375
2.08192
2.09021
2.09851
2.10662
2.1142
2.12073
2.12545
1.91665
1.91803
1.91935
1.92073
1.92216
1.92364
1.92518
1.92678
1.92843
1.93014
1.93191
1.93374
1.93562
1.93758
1.93959
1.94167
1.94382
1.94604
1.94833
1.95072
1.95321
1.95581
1.95856
1.96145
1.96453
1.9678
1.97129
1.97502
1.97901
1.98328
1.98824
1.99383
1.99956
2.00544
2.01148
2.01769
2.02406
2.03062
2.03736
2.04427
2.05136
2.0586
2.06596
2.07342
2.08088
2.08823
2.09522
2.1015
2.10649
2.10937
1.91467
1.91601
1.91731
1.91865
1.92006
1.92151
1.92302
1.92458
1.9262
1.92788
1.92962
1.93142
1.93328
1.93521
1.93719
1.93925
1.94137
1.94356
1.94583
1.94818
1.95062
1.95317
1.95584
1.95866
1.96164
1.96481
1.96818
1.97178
1.97563
1.97976
1.98454
1.98993
1.99546
2.00112
2.00692
2.01286
2.01895
2.02519
2.03156
2.03807
2.04469
2.0514
2.05817
2.06494
2.07161
2.07805
2.084
2.08907
2.09265
2.09388
1.91268
1.91399
1.91525
1.91657
1.91794
1.91936
1.92083
1.92236
1.92395
1.92559
1.9273
1.92907
1.9309
1.93279
1.93475
1.93677
1.93887
1.94103
1.94326
1.94557
1.94797
1.95047
1.95308
1.95582
1.95871
1.96178
1.96503
1.9685
1.97221
1.97618
1.98079
1.98598
1.99129
1.99673
2.00228
2.00796
2.01377
2.01968
2.02571
2.03182
2.038
2.0442
2.0504
2.05652
2.06245
2.06805
2.07303
2.077
2.07932
2.0791
1.9107
1.91197
1.9132
1.91448
1.91581
1.91719
1.91863
1.92012
1.92167
1.92328
1.92495
1.92668
1.92848
1.93034
1.93226
1.93425
1.93631
1.93844
1.94063
1.94291
1.94526
1.94771
1.95026
1.95293
1.95574
1.9587
1.96184
1.96519
1.96875
1.97257
1.977
1.98198
1.98707
1.99228
1.99759
2.00301
2.00853
2.01413
2.01981
2.02554
2.0313
2.03703
2.04268
2.0482
2.05345
2.05827
2.06238
2.06537
2.06659
2.06516
1.90871
1.90994
1.91113
1.91238
1.91367
1.91502
1.91642
1.91787
1.91938
1.92095
1.92257
1.92427
1.92602
1.92784
1.92973
1.93168
1.9337
1.93579
1.93795
1.94018
1.94249
1.94489
1.94739
1.94999
1.95271
1.95558
1.95861
1.96183
1.96526
1.96892
1.97317
1.97794
1.98281
1.98779
1.99285
1.99801
2.00325
2.00855
2.0139
2.01927
2.02462
2.0299
2.03506
2.04001
2.04464
2.04876
2.0521
2.05424
2.05454
2.05211
1.90671
1.9079
1.90906
1.91027
1.91153
1.91283
1.91419
1.9156
1.91707
1.91859
1.92018
1.92183
1.92354
1.92532
1.92716
1.92907
1.93105