/*--------------------------------*- C++ -*----------------------------------*\
  =========                 |
  \\      /  F ield         | OpenFOAM: The Open Source CFD Toolbox
   \\    /   O peration     | Website:  https://openfoam.org
    \\  /    A nd           | Version:  9
     \\/     M anipulation  |
\*---------------------------------------------------------------------------*/
FoamFile
{
    format      ascii;
    class       volScalarField;
    location    "0.12";
    object      p_rgh;
}
// * * * * * * * * * * * * * * * * * * * * * * * * * * * * * * * * * * * * * //

dimensions      [1 -1 -2 0 0 0 0];

internalField   nonuniform List<scalar> 
5000
(
-0.00663377
-0.00658025
-0.0066675
-0.00674036
-0.00678203
-0.00680003
-0.00678654
-0.00673372
-0.00663418
-0.00648079
-0.00626715
-0.00598809
-0.00564036
-0.00522337
-0.00474016
-0.00419842
-0.00361145
-0.00299905
-0.0023881
-0.00181248
-0.00131163
-0.00092741
-0.00069921
-0.000657715
-0.000818074
-0.0011741
-0.00169628
-0.00233712
-0.00304934
-0.00380562
-0.0047198
-0.00593523
-0.00755461
-0.00979309
-0.0127673
-0.0164509
-0.0206969
-0.0253597
-0.03044
-0.03615
-0.0428218
-0.0507029
-0.0597838
-0.0698121
-0.0805056
-0.0917911
-0.103876
-0.117188
-0.132438
-0.150741
-0.00645338
-0.00639294
-0.00647758
-0.00654844
-0.00658918
-0.00660741
-0.00659526
-0.00654493
-0.00644907
-0.0063005
-0.00609274
-0.00582045
-0.00548017
-0.00507112
-0.00459618
-0.00406293
-0.00348456
-0.00288071
-0.00227801
-0.00170989
-0.00121503
-0.000834205
-0.000605459
-0.00055802
-0.000705658
-0.0010411
-0.00153446
-0.00213907
-0.00280983
-0.00352257
-0.0043889
-0.00555373
-0.00712056
-0.00929217
-0.0121703
-0.0157177
-0.0197852
-0.0242298
-0.0290527
-0.0344608
-0.0407751
-0.0482241
-0.0567697
-0.066124
-0.0759723
-0.0862145
-0.0970197
-0.108739
-0.121889
-0.137353
-0.00626573
-0.00618845
-0.00625959
-0.0063172
-0.00634558
-0.00635274
-0.00633111
-0.00627327
-0.00617223
-0.00602118
-0.0058139
-0.00554532
-0.00521222
-0.00481404
-0.00435379
-0.00383896
-0.00328246
-0.00270328
-0.00212687
-0.00158458
-0.00111197
-0.000745663
-0.000518917
-0.000456202
-0.000567675
-0.000845562
-0.00126418
-0.00178652
-0.0023809
-0.00303696
-0.00386961
-0.0050221
-0.00656705
-0.00866579
-0.0113935
-0.0147183
-0.0185289
-0.022727
-0.0273275
-0.0324966
-0.0384762
-0.0454274
-0.0533031
-0.0618595
-0.0708096
-0.0799966
-0.0894671
-0.099477
-0.110501
-0.123255
-0.00607409
-0.00597571
-0.00602884
-0.00606864
-0.00608006
-0.00607162
-0.00603616
-0.00596674
-0.00585682
-0.00570002
-0.00549045
-0.00522338
-0.00489582
-0.0045074
-0.00406113
-0.00356433
-0.0030294
-0.00247448
-0.0019235
-0.0014054
-0.000952252
-0.000596167
-0.000365258
-0.000279063
-0.000344486
-0.000553821
-0.000886784
-0.00131715
-0.00182747
-0.00242086
-0.0032125
-0.00433846
-0.00583947
-0.00783684
-0.0103849
-0.0134642
-0.017004
-0.0209479
-0.0253185
-0.0302355
-0.0358582
-0.0422806
-0.0494487
-0.0571654
-0.065176
-0.0732751
-0.0813948
-0.0896956
-0.0986173
-0.10875
-0.00588014
-0.00575845
-0.00579133
-0.00581112
-0.00580347
-0.00577745
-0.00572634
-0.00564367
-0.00552334
-0.00535932
-0.00514604
-0.00487896
-0.00455522
-0.00417436
-0.00373918
-0.00325656
-0.00273821
-0.00220118
-0.00166775
-0.00116446
-0.000720121
-0.000362861
-0.000116445
3.48056e-06
-7.83774e-06
-0.000143833
-0.000389659
-0.00072879
-0.00115531
-0.0016818
-0.00241891
-0.00349311
-0.00492131
-0.00679542
-0.00915709
-0.0119968
-0.0152701
-0.0189443
-0.0230423
-0.0276514
-0.0328782
-0.038772
-0.0452668
-0.0521802
-0.0592629
-0.0662736
-0.0730701
-0.0797292
-0.08663
-0.0942285
-0.00568473
-0.00553789
-0.0055484
-0.00554603
-0.00551718
-0.00547151
-0.00540271
-0.00530479
-0.00517205
-0.0049988
-0.0047797
-0.00451034
-0.00418781
-0.00381144
-0.00338365
-0.00291074
-0.00240362
-0.0018782
-0.00135509
-0.000858568
-0.000414525
-4.7558e-05
0.00022232
0.000382659
0.000430196
0.000370031
0.000211857
-3.61057e-05
-0.00037686
-0.000829043
-0.00149513
-0.00249169
-0.00382037
-0.00555297
-0.00772363
-0.0103292
-0.0133393
-0.0167315
-0.020525
-0.0247859
-0.0295889
-0.0349546
-0.0408029
-0.0469482
-0.0531321
-0.0590833
-0.0646114
-0.069727
-0.0747431
-0.0800115
-0.0054886
-0.00531497
-0.00530121
-0.00527476
-0.00522275
-0.00515542
-0.0050669
-0.00495167
-0.00480441
-0.00461972
-0.00439246
-0.00411822
-0.00379393
-0.00341862
-0.00299423
-0.00252639
-0.00202514
-0.0015052
-0.000985667
-0.00048878
-3.78134e-05
0.000345749
0.000645171
0.000850709
0.000960178
0.000977107
0.000906539
0.000749828
0.000497422
0.000127462
-0.000451349
-0.00134538
-0.00254899
-0.00412117
-0.00609261
-0.00846424
-0.0112124
-0.0143176
-0.017793
-0.0216886
-0.0260556
-0.030893
-0.0361079
-0.0415104
-0.0468333
-0.0517835
-0.0561345
-0.059843
-0.0631562
-0.0663511
-0.00529252
-0.00509077
-0.00505116
-0.00499897
-0.00492208
-0.00483129
-0.0047212
-0.00458673
-0.00442294
-0.00422467
-0.0039869
-0.00370514
-0.00337612
-0.00299845
-0.00257349
-0.00210613
-0.00160548
-0.00108515
-0.000562813
-5.88639e-05
0.000405779
0.000812456
0.00114738
0.00140315
0.00157837
0.00167494
0.00169368
0.00163014
0.00146994
0.00118988
0.000711725
-6.10559e-05
-0.00112105
-0.00251859
-0.00428255
-0.00641595
-0.00889796
-0.0117096
-0.0148592
-0.0183839
-0.0223157
-0.026634
-0.0312353
-0.0359268
-0.0404381
-0.0444618
-0.0477454
-0.0502047
-0.0520317
-0.0534492
-0.00509721
-0.0048662
-0.00479935
-0.00471996
-0.00461664
-0.0045008
-0.00436744
-0.00421193
-0.00402967
-0.0038157
-0.00356504
-0.00327309
-0.00293624
-0.00255263
-0.00212294
-0.00165127
-0.00114586
-0.000619266
-8.78964e-05
0.000429488
0.000914103
0.00134986
0.00172564
0.00203612
0.00228053
0.00245919
0.00256919
0.0026013
0.00253773
0.00235529
0.00199005
0.00135429
0.00045271
-0.000759163
-0.00230882
-0.00419934
-0.00641024
-0.00892232
-0.0117408
-0.0148935
-0.0183963
-0.0222125
-0.0262296
-0.0302539
-0.0340145
-0.0371966
-0.0395332
-0.0409144
-0.0414895
-0.0414477
-0.00490332
-0.00464207
-0.00454674
-0.00443883
-0.00430773
-0.00416536
-0.00400718
-0.00382895
-0.00362637
-0.00339465
-0.00312878
-0.00282395
-0.00247616
-0.00208293
-0.00164426
-0.00116345
-0.000647896
-0.00010925
0.000437181
0.000974075
0.00148456
0.00195486
0.00237629
0.0027454
0.00306196
0.00332491
0.00352815
0.00365864
0.00369644
0.00361934
0.00337861
0.00289411
0.0021637
0.00114664
-0.000183204
-0.00182733
-0.00376402
-0.00597363
-0.00845949
-0.0112421
-0.0143247
-0.0176586
-0.021126
-0.0245342
-0.0276132
-0.0300469
-0.0315648
-0.032047
-0.0316118
-0.0304321
-0.00471144
-0.00441912
-0.0042942
-0.00415663
-0.00399652
-0.00382632
-0.0036419
-0.0034394
-0.00321477
-0.00296335
-0.00268003
-0.00235971
-0.00199789
-0.00159145
-0.00113963
-0.000644961
-0.000114067
0.000442192
0.00100945
0.00157164
0.00211358
0.0026236
0.00309522
0.00352674
0.00391845
0.00426813
0.00456698
0.00479898
0.00494302
0.00497861
0.00487277
0.00455161
0.00400289
0.00318829
0.00208324
0.000688782
-0.000971651
-0.00287829
-0.00503343
-0.00745166
-0.0101262
-0.0130002
-0.0159547
-0.0188009
-0.0212718
-0.0230544
-0.0238856
-0.0236494
-0.0224451
-0.0204418
-0.00452213
-0.00419803
-0.00404259
-0.00387436
-0.00368415
-0.00348492
-0.00327295
-0.00304473
-0.00279644
-0.00252346
-0.00222052
-0.00188216
-0.0015033
-0.00108013
-0.000611111
-9.80436e-05
0.000453166
0.00103235
0.00162593
0.00221893
0.00279764
0.00335229
0.00387845
0.00437604
0.00484595
0.00528499
0.00568211
0.00601899
0.00627409
0.0064291
0.00646717
0.00631939
0.00596099
0.0053554
0.0044799
0.00333843
0.00195582
0.000351155
-0.00147759
-0.0035401
-0.00582152
-0.00826031
-0.0107406
-0.0130801
-0.0150178
-0.016248
-0.0165228
-0.0157415
-0.0139991
-0.0114699
-0.00433591
-0.00397947
-0.00379271
-0.00359294
-0.00337168
-0.00314237
-0.00290166
-0.00264638
-0.00237287
-0.0020765
-0.00175181
-0.00139288
-0.000994031
-0.000550717
-6.06224e-05
0.000475198
0.00105148
0.00165865
0.00228381
0.00291284
0.00353336
0.00413729
0.00472209
0.00528931
0.00584042
0.00637149
0.00686963
0.00731478
0.00768558
0.00796619
0.00815609
0.00819022
0.00802941
0.00763853
0.00699695
0.0061114
0.00500746
0.00370274
0.00219475
0.00047775
-0.00142723
-0.00345683
-0.00550134
-0.00738853
-0.00886678
-0.00964242
-0.00948653
-0.00832077
-0.0062517
-0.00346761
-0.00415319
-0.00376398
-0.00354524
-0.00331319
-0.00306006
-0.00279972
-0.00252918
-0.00224555
-0.00194531
-0.00162379
-0.00127525
-0.00089332
-0.000471653
-4.93195e-06
0.000509946
0.00107265
0.00167851
0.00231847
0.00298015
0.00365018
0.00431727
0.00497489
0.00562228
0.00626252
0.0068978
0.00752362
0.00812557
0.00868238
0.00917333
0.0095852
0.0099339
0.0101573
0.0102003
0.0100291
0.00962528
0.00899796
0.00817284
0.00716538
0.00597201
0.00458976
0.00304387
0.00139722
-0.000248506
-0.00173377
-0.00282204
-0.00323735
-0.00276991
-0.00136561
0.000844626
0.00364856
-0.00397435
-0.00355204
-0.00330079
-0.00303587
-0.00275014
-0.00245791
-0.00215651
-0.00184329
-0.00151488
-0.00116649
-0.000792099
-0.000384827
6.23549e-05
0.000555563
0.0010987
0.00169216
0.00233182
0.00300907
0.00371194
0.00442766
0.00514585
0.00586138
0.00657514
0.00729174
0.00801414
0.00873742
0.009446
0.0101178
0.0107331
0.0112814
0.011795
0.0122138
0.0124661
0.0125191
0.0123564
0.0119891
0.0114424
0.0107293
0.00984467
0.00878682
0.00758283
0.00629326
0.00501153
0.00388304
0.00312281
0.00298223
0.00365197
0.00516401
0.00735733
0.00998582
-0.00379968
-0.00334404
-0.00305988
-0.00276158
-0.00244262
-0.00211772
-0.00178448
-0.00144053
-0.00108254
-0.00070564
-0.000303494
0.000131321
0.000606546
0.00112912
0.00170376
0.00233155
0.00300896
0.00372771
0.00447617
0.00524201
0.00601564
0.00679313
0.00757692
0.00837313
0.00918551
0.0100089
0.0108269
0.0116169
0.0123605
0.0130497
0.0137335
0.0143532
0.0148195
0.0151008
0.0151823
0.0150765
0.0148077
0.0143861
0.0138049
0.0130624
0.0121845
0.0112275
0.0102776
0.00946618
0.00898143
0.0090428
0.00981928
0.0113241
0.0133695
0.0156659
-0.00362941
-0.00314029
-0.00282286
-0.00249075
-0.00213801
-0.00177971
-0.00141376
-0.00103797
-0.000649097
-0.000242158
0.000189531
0.000653942
0.00115955
0.00171412
0.00232322
0.00298866
0.00370743
0.00447162
0.00526982
0.00609003
0.00692324
0.00776658
0.00862394
0.00950287
0.010408
0.0113342
0.0122643
0.0131756
0.0140511
0.0148854
0.0157439
0.016569
0.0172536
0.0177671
0.0180958
0.0182529
0.0182612
0.0181285
0.0178463
0.0174119
0.016847
0.016201
0.0155537
0.0150243
0.0147719
0.0149779
0.0157832
0.0171842
0.0189757
0.0208194
-0.00346374
-0.00294102
-0.00259006
-0.00222377
-0.00183674
-0.00144441
-0.00104491
-0.000636261
-0.000215287
0.000223132
0.000686019
0.00118191
0.00172003
0.00230899
0.00295523
0.00366131
0.00442477
0.00523805
0.00608991
0.00696851
0.00786528
0.00877823
0.00971255
0.0106772
0.0116778
0.0127092
0.013754
0.0147895
0.0158004
0.0167833
0.0178203
0.0188549
0.0197615
0.0205108
0.0210899
0.0215116
0.0217967
0.0219507
0.021964
0.0218321
0.0215702
0.0212182
0.0208488
0.0205707
0.0205156
0.0208249
0.0216019
0.0228249
0.0242801
0.0255851
-0.00330281
-0.00274642
-0.00236173
-0.00196095
-0.00153921
-0.00111224
-0.000678428
-0.000235988
0.000218222
0.000689448
0.00118506
0.00171414
0.00228668
0.00291218
0.00359795
0.00434737
0.00515857
0.00602431
0.00693349
0.00787432
0.00883847
0.00982462
0.0108391
0.0118924
0.0129909
0.0141299
0.0152918
0.0164544
0.0176037
0.0187384
0.0199575
0.0212048
0.0223368
0.0233252
0.0241577
0.0248462
0.0254087
0.025848
0.0261542
0.0263211
0.0263558
0.0262865
0.0261765
0.0261239
0.0262384
0.0266228
0.0273361
0.0283331
0.0293941
0.0301074
-0.00314673
-0.00255667
-0.00213809
-0.00170259
-0.00124576
-0.00078363
-0.000314812
0.000162302
0.000650807
0.00115608
0.0016858
0.00224964
0.00285831
0.00352223
0.00424965
0.00504481
0.00590648
0.00682781
0.00779773
0.0088044
0.00983954
0.0109023
0.0120001
0.0131446
0.0143433
0.0155922
0.0168736
0.0181659
0.0194563
0.0207459
0.0221499
0.023613
0.0249734
0.026204
0.0272928
0.0282505
0.0290919
0.0298167
0.0304145
0.0308778
0.0312058
0.031414
0.0315527
0.0317071
0.0319701
0.0324118
0.0330452
0.0337945
0.0344317
0.0345305
-0.00299562
-0.00237197
-0.00191943
-0.00144903
-0.000956814
-0.000459071
4.53828e-05
0.000557991
0.00108179
0.00162227
0.00218742
0.00278744
0.0034338
0.00413782
0.00490876
0.00575177
0.00666636
0.00764606
0.00867987
0.00975574
0.0108653
0.0120079
0.0131918
0.01443
0.0157312
0.0170919
0.018495
0.0199194
0.0213537
0.0228004
0.0243921
0.0260738
0.0276654
0.0291411
0.0304891
0.0317188
0.0328414
0.0338534
0.0347433
0.0355019
0.0361222
0.036608
0.036993
0.0373454
0.0377441
0.0382339
0.0387866
0.0392892
0.0395027
0.0389933
-0.00284958
-0.0021925
-0.00170604
-0.00120071
-0.000672901
-0.00013917
0.000401488
0.000950357
0.00151042
0.00208723
0.00268907
0.00332662
0.0040121
0.00475775
0.00557385
0.00646656
0.00743621
0.00847677
0.00957728
0.0107254
0.0119124
0.0131379
0.0144107
0.0157448
0.0171504
0.0186248
0.0201517
0.0217105
0.0232908
0.024897
0.0266785
0.0285814
0.0304072
0.0321308
0.0337407
0.0352452
0.0366521
0.0379548
0.0391395
0.0401941
0.0411077
0.0418748
0.042511
0.0430633
0.043595
0.0441326
0.044616
0.0448917
0.0447075
0.0436242
-0.00270872
-0.00201853
-0.00149834
-0.000958152
-0.00039468
0.000175321
0.000752694
0.00133856
0.00193583
0.0025501
0.00318988
0.00386631
0.00459228
0.00538095
0.00624367
0.00718768
0.0082142
0.00931777
0.0104875
0.0117106
0.012978
0.014289
0.015653
0.0170851
0.0185968
0.0201867
0.0218392
0.0235345
0.0252631
0.0270304
0.0290037
0.0311302
0.0331928
0.0351675
0.0370422
0.0388241
0.0405189
0.0421173
0.0436018
0.044956
0.0461659
0.0472202
0.0481178
0.0488816
0.0495553
0.0501513
0.0505866
0.0506713
0.0501361
0.0485391
-0.00257313
-0.00185034
-0.0012968
-0.000721996
-0.00012292
0.000483525
0.00109805
0.00172163
0.00235707
0.00300996
0.00368898
0.00440563
0.00517345
0.00600647
0.00691711
0.00791376
0.00899868
0.010167
0.011408
0.0127086
0.0140589
0.0154579
0.0169152
0.018447
0.0200662
0.0217729
0.0235528
0.0253866
0.0272654
0.0291957
0.0313622
0.0337141
0.0360163
0.0382453
0.0403879
0.0424501
0.0444362
0.046336
0.0481277
0.0497886
0.051301
0.0526504
0.0538232
0.0548176
0.0556532
0.0563297
0.0567482
0.0566915
0.0558701
0.0538435
-0.00244292
-0.00168824
-0.00110193
-0.000492961
0.000141499
0.00078444
0.00143648
0.00209844
0.00277302
0.00346575
0.00418539
0.0049437
0.00575476
0.00663341
0.00759316
0.0086436
0.00978813
0.0110227
0.0123367
0.0137167
0.0151521
0.0166412
0.0181938
0.0198266
0.0215544
0.0233791
0.0252877
0.0272618
0.0292927
0.0313875
0.0337487
0.0363274
0.0388714
0.0413581
0.0437724
0.046118
0.0483988
0.0506054
0.0527129
0.0546909
0.0565161
0.0581718
0.0596361
0.0608853
0.0619122
0.0627029
0.0631457
0.0630091
0.0619819
0.0596237
-0.00231817
-0.00153257
-0.000914301
-0.000271838
0.000397595
0.00107694
0.00176676
0.00246776
0.00318248
0.00391636
0.00467808
0.0054796
0.00633536
0.00726094
0.00827089
0.00937606
0.0105811
0.011883
0.0132714
0.0147324
0.0162548
0.0178358
0.0194851
0.0212202
0.0230573
0.0250006
0.0270391
0.0291549
0.0313397
0.0336007
0.0361576
0.0389642
0.0417519
0.0444994
0.0471897
0.0498226
0.0524018
0.0549202
0.0573519
0.0596595
0.0618118
0.0637891
0.0655645
0.0670964
0.0683518
0.0693001
0.069819
0.0696716
0.0685364
0.0659538
-0.00219896
-0.00138364
-0.000734488
-5.9432e-05
0.000644353
0.00135985
0.00208762
0.00282827
0.00358417
0.00436056
0.00516598
0.00601235
0.00691438
0.00788823
0.00894942
0.0101101
0.0113763
0.0127461
0.0142098
0.0157532
0.0173639
0.0190385
0.0207857
0.0226238
0.0245707
0.026633
0.0288019
0.0310607
0.0334007
0.0358294
0.0385835
0.0416186
0.0446512
0.0476622
0.0506328
0.0535581
0.0564403
0.0592753
0.062039
0.0646889
0.0671854
0.0695035
0.0716133
0.0734595
0.0749862
0.0761436
0.076801
0.0767167
0.0755796
0.0729065
-0.00208532
-0.00124172
-0.000563037
0.000143467
0.000880776
0.001632
0.00239778
0.00317864
0.00397677
0.0047971
0.00564792
0.00654095
0.00749093
0.00851445
0.0096279
0.0108447
0.0121725
0.0136106
0.01515
0.0167765
0.0184767
0.0202459
0.022092
0.0240337
0.0260905
0.0282719
0.0305714
0.0329737
0.0354702
0.0380679
0.0410204
0.0442848
0.0475627
0.050839
0.0540939
0.0573175
0.0605088
0.0636661
0.0667688
0.0697732
0.0726318
0.0753129
0.0777837
0.0799786
0.081824
0.0832488
0.0841171
0.084191
0.0831431
0.0805303
-0.00197726
-0.00110707
-0.000400451
0.00033612
0.00110592
0.00189229
0.00269601
0.00351758
0.00435896
0.00522475
0.00612277
0.00706437
0.0080641
0.00913877
0.0103055
0.011579
0.0129684
0.0144748
0.01609
0.0177999
0.0195904
0.021455
0.0234007
0.0254461
0.0276126
0.0299126
0.0323426
0.0348886
0.0375422
0.0403102
0.0434622
0.0469564
0.0504799
0.0540222
0.0575644
0.0610922
0.0646004
0.068087
0.0715363
0.0749064
0.0781445
0.0812124
0.0840729
0.0866537
0.0888677
0.0906235
0.0917802
0.0921046
0.0912723
0.0888619
-0.00187477
-0.000979903
-0.000247165
0.000517888
0.00131897
0.00213973
0.00298119
0.00384388
0.00472952
0.00564226
0.00658936
0.00758154
0.00863294
0.00976031
0.0109813
0.0123119
0.0137629
0.0153371
0.0170277
0.018821
0.0207019
0.0226625
0.0247081
0.0268572
0.0291328
0.0315507
0.0341105
0.0368
0.039611
0.0425498
0.0459024
0.0496272
0.053396
0.0572043
0.0610354
0.0648726
0.0687056
0.0725305
0.0763352
0.0800821
0.0837166
0.0871949
0.090475
0.0934803
0.0961139
0.0982671
0.0997936
0.10047
0.0999776
0.0979203
-0.00177783
-0.000860379
-0.000103517
0.000688266
0.00151923
0.00237348
0.00325237
0.00415646
0.00508727
0.00604844
0.0070465
0.00809136
0.00919645
0.0103782
0.0116546
0.0130426
0.0145549
0.0161961
0.0179613
0.0198373
0.0218084
0.0238652
0.0260109
0.0282633
0.0306471
0.0331815
0.0358699
0.0387022
0.0416704
0.0447804
0.048334
0.05229
0.0563041
0.0603775
0.0644977
0.0686481
0.0728137
0.0769868
0.0811573
0.0852927
0.0893398
0.0932517
0.0969812
0.10045
0.103553
0.106171
0.10815
0.109282
0.109254
0.107704
-0.00168639
-0.000748589
3.0284e-05
0.000846932
0.00170627
0.00259295
0.00350877
0.00445442
0.0054312
0.00644221
0.00749309
0.00859275
0.00975361
0.0109915
0.0123244
0.0137702
0.0153432
0.0170504
0.0188887
0.0208463
0.0229071
0.0250597
0.0273053
0.0296606
0.0321515
0.0348006
0.0376157
0.0405895
0.0437143
0.0469951
0.05075
0.0549373
0.0591965
0.0635339
0.0679423
0.0724076
0.076912
0.0814433
0.0859913
0.090528
0.0950042
0.099372
0.10358
0.10755
0.111172
0.11432
0.116837
0.118519
0.119083
0.118191
-0.00160036
-0.000644481
0.000154243
0.000993828
0.00187993
0.00279787
0.00374998
0.00473716
0.00576054
0.00682262
0.0079281
0.00908463
0.0103034
0.0115992
0.0129898
0.0144937
0.0161268
0.0178985
0.0198082
0.0218456
0.0239948
0.0262426
0.0285879
0.0310455
0.0336421
0.0364037
0.039343
0.0424561
0.0457361
0.0491872
0.0531427
0.0575613
0.0620651
0.0666651
0.0713599
0.07614
0.0809873
0.0858854
0.0908227
0.0957745
0.100697
0.105542
0.110258
0.114765
0.118953
0.122693
0.125826
0.128159
0.129434
0.129348
-0.00151955
-0.000547812
0.000268633
0.00112921
0.00204041
0.00298831
0.0039759
0.00500438
0.00607475
0.00718893
0.00835058
0.00956596
0.0108447
0.0122003
0.0136499
0.0152121
0.0169047
0.0187392
0.0207181
0.0228329
0.0250685
0.0274103
0.0298546
0.0324139
0.0351147
0.0379864
0.0410466
0.0442961
0.0477292
0.0513494
0.0555047
0.0601536
0.0649012
0.0697621
0.0747409
0.0798341
0.0850257
0.090297
0.0956341
0.101015
0.1064
0.111745
0.116996
0.122076
0.126876
0.131266
0.135089
0.138169
0.140269
0.141126
-0.00144372
-0.000458177
0.000373971
0.00125366
0.00218827
0.00316476
0.00418687
0.00525618
0.00637364
0.00754063
0.00875974
0.0100357
0.0113764
0.0127937
0.0143035
0.0159246
0.0176757
0.0195712
0.0216165
0.0238059
0.0261253
0.0285594
0.0311015
0.0337615
0.0365653
0.0395444
0.0427219
0.0461038
0.049687
0.0534741
0.0578277
0.0627058
0.0676958
0.0728157
0.0780756
0.0834788
0.0890134
0.0946609
0.100406
0.106228
0.112092
0.117958
0.123772
0.129459
0.134914
0.140009
0.144595
0.148507
0.151541
0.153471
-0.00137259
-0.000375074
0.000470969
0.00136802
0.00232443
0.00332811
0.00438362
0.00549302
0.00665732
0.00787744
0.00915492
0.0104929
0.0118973
0.013378
0.0149494
0.0166298
0.0184389
0.0203934
0.022502
0.0247624
0.0271624
0.029686
0.0323244
0.0350841
0.0379893
0.0410734
0.0443641
0.0478736
0.0516025
0.0555536
0.0601033
0.0652086
0.0704393
0.075816
0.0813539
0.0870628
0.0929369
0.0989601
0.105117
0.111389
0.117747
0.124153
0.130555
0.136882
0.143032
0.148884
0.154298
0.159125
0.163193
0.166314
-0.0013059
-0.000297956
0.000560502
0.00147342
0.00245018
0.00347966
0.00456732
0.00571581
0.00692631
0.00819939
0.00953563
0.0109366
0.0124061
0.0139517
0.0155861
0.0173264
0.019193
0.0212044
0.0233731
0.0257004
0.0281768
0.0307868
0.0335191
0.0363771
0.0393824
0.0425689
0.0459686
0.0496002
0.0534693
0.0575801
0.0623225
0.0676523
0.0731214
0.0787525
0.0845652
0.0905751
0.0967832
0.103178
0.109747
0.116474
0.123335
0.130295
0.137308
0.144303
0.151186
0.157842
0.164144
0.169962
0.175155
0.179573
-0.00124344
-0.000226217
0.000643622
0.00157129
0.00256716
0.00362113
0.00473961
0.00592592
0.00718155
0.00850687
0.00990165
0.0113659
0.0129014
0.0145133
0.0162119
0.0180129
0.0199364
0.022003
0.0242283
0.0266179
0.0291659
0.031858
0.0346814
0.0376359
0.0407397
0.0440263
0.0475309
0.0512786
0.0552814
0.059546
0.0644762
0.0700267
0.0757311
0.0816138
0.0876978
0.0940038
0.100539
0.107299
0.114276
0.121459
0.128827
0.136352
0.14399
0.151676
0.159324
0.166825
0.174068
0.180944
0.187343
0.193154
-0.00118495
-0.000159136
0.000721585
0.00166332
0.00267738
0.00375469
0.00490261
0.00612521
0.00742444
0.00880067
0.010253
0.0117802
0.013382
0.015061
0.0168247
0.0186872
0.0206676
0.0227877
0.0250662
0.0275133
0.0301272
0.0328963
0.035807
0.0388555
0.0420562
0.0454407
0.0490465
0.0529043
0.0570331
0.0614443
0.0665557
0.0723214
0.0782569
0.0843877
0.0907393
0.097336
0.104192
0.111309
0.118687
0.126319
0.134194
0.142287
0.15056
0.158953
0.167389
0.175769
0.183997
0.191987
0.199661
0.206947
-0.00113012
-9.57909e-05
0.000795906
0.00175154
0.00278325
0.00388294
0.0050589
0.00631604
0.00765688
0.009082
0.0105902
0.0121791
0.0138465
0.0155927
0.0174224
0.019347
0.0213845
0.0235569
0.0258855
0.028385
0.0310587
0.0338986
0.0368916
0.040031
0.0433267
0.0468071
0.0505105
0.0544726
0.0587194
0.0632685
0.0685526
0.0745262
0.080687
0.0870613
0.0936759
0.100558
0.107726
0.115192
0.12296
0.131035
0.13941
0.148068
0.156977
0.166086
0.175324
0.184606
0.193852
0.203001
0.212007
0.220838
-0.00107844
-3.49897e-05
0.000868384
0.00183828
0.0028875
0.00400884
0.0052115
0.00650122
0.00788125
0.00935259
0.010914
0.0125623
0.0142939
0.0161066
0.0180024
0.0199898
0.0220846
0.0243085
0.0266846
0.0292316
0.0319585
0.0348621
0.0379314
0.0411575
0.0445457
0.0481201
0.0519182
0.0559789
0.0603356
0.0650129
0.0704594
0.0766311
0.0830096
0.089621
0.0964926
0.103653
0.111126
0.11893
0.127079
0.135584
0.144449
0.153663
0.163204
0.173028
0.183073
0.19327
0.203556
0.213894
0.224274
0.234701
-0.00102925
2.47019e-05
0.000941037
0.00192607
0.00299307
0.00413561
0.00536369
0.0066839
0.0081003
0.00961457
0.0112257
0.0129302
0.0147233
0.0166008
0.0185621
0.0206124
0.022765
0.0250402
0.0274618
0.0300521
0.0328255
0.0357849
0.0389229
0.0422302
0.0457076
0.049374
0.0532641
0.0574189
0.0618776
0.0666728
0.0722696
0.0786274
0.0852134
0.0920531
0.0991738
0.106605
0.114374
0.122505
0.131022
0.139945
0.149285
0.159043
0.169203
0.179732
0.190582
0.201696
0.21303
0.224575
0.236353
0.248413
-0.000981746
8.48254e-05
0.00101594
0.00201746
0.00310292
0.0042665
0.00551886
0.0068674
0.00831708
0.0098704
0.0115269
0.0132833
0.0151341
0.0170736
0.0190987
0.0212115
0.0234223
0.0257489
0.0282149
0.0308448
0.0336585
0.0366654
0.0398635
0.0432449
0.0468068
0.0505625
0.0545426
0.0587876
0.0633414
0.0682442
0.073978
0.0805078
0.0872883
0.0943446
0.101704
0.109395
0.117448
0.125896
0.134768
0.144093
0.153893
0.164176
0.174937
0.186156
0.197796
0.209818
0.222198
0.234952
0.248138
0.261845
-0.000935104
0.000146831
0.001095
0.0021148
0.0032198
0.00440455
0.00568024
0.007055
0.0085347
0.0101228
0.0118197
0.0136228
0.0155263
0.0175237
0.0196097
0.0217838
0.0240525
0.0264309
0.0289408
0.0316081
0.0344566
0.0375029
0.0407515
0.044198
0.0478381
0.0516794
0.055747
0.0600795
0.0647226
0.0697236
0.0755809
0.0822668
0.0892262
0.0964841
0.104067
0.112004
0.12033
0.12908
0.138292
0.148002
0.158241
0.169027
0.180368
0.192253
0.204662
0.217572
0.230982
0.244933
0.259517
0.274865
-0.000888621
0.000211879
0.00117979
0.00222002
0.00334599
0.00455238
0.0058507
0.0072497
0.00875611
0.0103745
0.0121063
0.0139499
0.0159001
0.01795
0.0200929
0.0223258
0.0246517
0.027082
0.0296361
0.0323394
0.0352189
0.038297
0.0415863
0.0450876
0.048797
0.0527183
0.0568704
0.0612877
0.066016
0.0711073
0.0770756
0.0839011
0.0910215
0.0984626
0.106251
0.114418
0.122998
0.132034
0.141567
0.151643
0.162298
0.173562
0.185454
0.197976
0.211124
0.224893
0.239303
0.254422
0.270377
0.287339
-0.000841804
0.000280693
0.00127131
0.00233443
0.0034831
0.0047119
0.00603245
0.00745396
0.00898394
0.010628
0.012389
0.0142665
0.0162564
0.0183522
0.0205466
0.0228345
0.0252157
0.0276977
0.0302963
0.0330355
0.0359434
0.0390476
0.042368
0.0459127
0.0496808
0.0536738
0.0579054
0.0624047
0.0672149
0.0723904
0.0784588
0.085408
0.0926706
0.100274
0.108246
0.11662
0.125435
0.134735
0.144569
0.154985
0.16603
0.177742
0.190151
0.203274
0.217122
0.231709
0.247078
0.263322
0.280602
0.299127
-0.000794432
0.000353483
0.00136992
0.00245856
0.00363188
0.00488414
0.00622685
0.00766948
0.00922018
0.0108856
0.0126699
0.0145743
0.0165963
0.0187305
0.0209697
0.0233075
0.0257408
0.0282732
0.0309166
0.0336921
0.0366277
0.0397539
0.0430973
0.046674
0.0504884
0.0545425
0.0588459
0.0634226
0.0683115
0.0735664
0.079726
0.0867845
0.0941704
0.101914
0.110046
0.118603
0.127627
0.137167
0.147274
0.158002
0.169404
0.181529
0.194415
0.208096
0.222597
0.237952
0.254225
0.271535
0.290073
0.310085
-0.000746561
0.000429955
0.00147532
0.00259216
0.00379218
0.00506915
0.00643426
0.00789702
0.00946604
0.0111488
0.012951
0.0148754
0.0169215
0.0190857
0.0213618
0.0237428
0.0262236
0.028804
0.0314919
0.0343045
0.0372679
0.0404141
0.0437744
0.0473727
0.0512205
0.0553226
0.0596875
0.0643344
0.0692973
0.0746273
0.0808709
0.0880261
0.0955179
0.103379
0.111646
0.120359
0.129564
0.139314
0.149662
0.160669
0.172391
0.184886
0.198205
0.212392
0.22749
0.243551
0.26066
0.27896
0.298671
0.320072
-0.000698474
0.00050939
0.00158659
0.00273417
0.00396292
0.00526595
0.00665396
0.00813628
0.00972174
0.0114185
0.0132335
0.0151713
0.0172337
0.0194192
0.0217234
0.0241397
0.0266617
0.0292863
0.032017
0.034867
0.0378594
0.0410251
0.0443988
0.0480103
0.0518789
0.056015
0.0604281
0.065135
0.0701649
0.0755646
0.0818855
0.0891263
0.0967081
0.104667
0.113044
0.121885
0.131241
0.141167
0.151721
0.162966
0.174966
0.187784
0.201481
0.216117
0.231746
0.24844
0.266304
0.285502
0.30628
0.328946
-0.000650604
0.000590762
0.0017023
0.00288285
0.00414215
0.00547259
0.00688417
0.00838585
0.00998641
0.0116945
0.0135181
0.0154634
0.0175346
0.0197328
0.0220557
0.0244984
0.0270539
0.029717
0.0324875
0.0353744
0.0383967
0.041583
0.0449683
0.048587
0.0524658
0.0566216
0.0610681
0.0658218
0.0709084
0.0763702
0.0827606
0.0900764
0.0977339
0.105771
0.114236
0.123177
0.132653
0.14272
0.153441
0.164881
0.17711
0.190197
0.204214
0.219231
0.235317
0.252561
0.271085
0.291074
0.312793
0.336575
-0.000603454
0.000672851
0.00182063
0.00303589
0.00432721
0.00568623
0.00712211
0.00864322
0.0102581
0.0119756
0.0138044
0.0157524
0.0178257
0.0200283
0.0223608
0.0248199
0.0273999
0.0300942
0.0328999
0.0358217
0.0388742
0.0420824
0.0454795
0.0491021
0.0529827
0.0571455
0.0616099
0.0663949
0.0715248
0.077038
0.0834877
0.0908672
0.0985865
0.106686
0.115216
0.124234
0.133798
0.143971
0.154817
0.166406
0.178811
0.192109
0.20638
0.221704
0.238165
0.255864
0.274941
0.295596
0.318111
0.342838
-0.000557549
0.000754321
0.00193947
0.00319052
0.00451483
0.00590328
0.00736411
0.00890494
0.0105338
0.0122595
0.0140912
0.0160379
0.018108
0.0203078
0.0226407
0.0251065
0.0277009
0.0304175
0.0332518
0.0362048
0.0392867
0.0425178
0.0459279
0.0495532
0.05343
0.0575893
0.0620571
0.066857
0.0720141
0.0775644
0.0840602
0.0914895
0.0992565
0.107402
0.115979
0.125048
0.134672
0.144915
0.155845
0.167535
0.180062
0.193509
0.207963
0.223514
0.240259
0.258311
0.277821
0.299004
0.32215
0.347626
-0.000513425
0.000833754
0.00205654
0.00334369
0.00470131
0.00611962
0.00760583
0.00916669
0.0108096
0.0125429
0.014376
0.0163189
0.0183815
0.0205724
0.0228979
0.0253605
0.0279589
0.0306879
0.0335424
0.0365209
0.0396296
0.0428835
0.0463078
0.0499363
0.0538066
0.0579548
0.0624136
0.0672123
0.072379
0.0779495
0.0844742
0.0919367
0.0997353
0.10791
0.116516
0.125614
0.13527
0.145549
0.156522
0.168264
0.180857
0.194389
0.208953
0.224648
0.24158
0.259872
0.279687
0.301245
0.324841
0.350848
-0.000471616
0.000909702
0.00216945
0.00349217
0.00488274
0.00633077
0.00784245
0.00942358
0.0110806
0.0128215
0.0146555
0.0165932
0.0186455
0.0208229
0.0231343
0.0255851
0.0281771
0.0309077
0.0337725
0.0367688
0.0398994
0.0431744
0.0466135
0.0502463
0.0541095
0.0582422
0.0626824
0.0674656
0.0726246
0.0781963
0.0847299
0.0922055
0.100017
0.108204
0.116819
0.125924
0.135585
0.145867
0.156844
0.168591
0.181194
0.194745
0.209344
0.225096
0.242114
0.26053
0.280512
0.30228
0.326131
0.352431
-0.000432617
0.000980777
0.00227588
0.00363277
0.00505516
0.00653214
0.00806892
0.00967029
0.0113418
0.0130906
0.0149257
0.0168576
0.0188981
0.0210591
0.0233512
0.0257829
0.0283589
0.0310803
0.0339446
0.0369493
0.0400946
0.0433866
0.0468394
0.0504773
0.0543342
0.0584495
0.062865
0.0676214
0.0727565
0.0783107
0.0848314
0.0922973
0.100101
0.108279
0.116883
0.125972
0.135611
0.145864
0.156805
0.168511
0.18107
0.194577
0.209136
0.224856
0.241857
0.260275
0.280279
0.302087
0.325984
0.352323
-0.000396817
0.00104577
0.0023737
0.00376254
0.00521484
0.0067193
0.00828025
0.00990147
0.0115876
0.0133448
0.0151815
0.0171081
0.0191366
0.0212796
0.0235491
0.0259558
0.0285079
0.03121
0.0340627
0.0370647
0.0402155
0.0435179
0.0469811
0.0506237
0.0544751
0.0585731
0.0629607
0.0676823
0.0727804
0.0782994
0.0847853
0.0922176
0.0999901
0.108136
0.116706
0.125755
0.135344
0.145536
0.156402
0.168022
0.180484
0.193884
0.208329
0.223929
0.240809
0.259106
0.278985
0.300654
0.324381
0.350494
-0.000364452