/*--------------------------------*- C++ -*----------------------------------*\
  =========                 |
  \\      /  F ield         | OpenFOAM: The Open Source CFD Toolbox
   \\    /   O peration     | Website:  https://openfoam.org
    \\  /    A nd           | Version:  9
     \\/     M anipulation  |
\*---------------------------------------------------------------------------*/
FoamFile
{
    format      ascii;
    class       surfaceScalarField;
    location    "0.12";
    object      phi;
}
// * * * * * * * * * * * * * * * * * * * * * * * * * * * * * * * * * * * * * //

dimensions      [0 3 -1 0 0 0 0];

internalField   nonuniform List<scalar> 
9850
(
1.45278e-06
2.87149e-06
1.45241e-06
3.02136e-06
1.45197e-06
3.17279e-06
1.45146e-06
3.33065e-06
1.45089e-06
3.4957e-06
1.45027e-06
3.66837e-06
1.4496e-06
3.84907e-06
1.44887e-06
4.03815e-06
1.44808e-06
4.23595e-06
1.44721e-06
4.44279e-06
1.44627e-06
4.65902e-06
1.44524e-06
4.885e-06
1.44411e-06
5.12115e-06
1.44284e-06
5.36793e-06
1.44143e-06
5.62586e-06
1.43982e-06
5.8956e-06
1.438e-06
6.17787e-06
1.43591e-06
6.47356e-06
1.43351e-06
6.78363e-06
1.43077e-06
7.10911e-06
1.42764e-06
7.45097e-06
1.4241e-06
7.81004e-06
1.42012e-06
8.18687e-06
1.41567e-06
8.5817e-06
1.41073e-06
8.9945e-06
1.40522e-06
9.4252e-06
1.39908e-06
9.87408e-06
1.39217e-06
1.03421e-05
1.38438e-06
1.08313e-05
1.37557e-06
1.13442e-05
1.36396e-06
1.38631e-05
1.35149e-06
1.38466e-05
1.33828e-06
1.38335e-05
1.3244e-06
1.382e-05
1.30984e-06
1.3803e-05
1.29458e-06
1.37811e-05
1.2786e-06
1.37554e-05
1.26195e-06
1.37286e-05
1.24487e-06
1.37041e-05
1.22787e-06
1.36846e-05
1.21185e-06
1.36691e-05
1.19789e-06
1.36492e-05
1.18672e-06
1.36063e-05
1.1777e-06
1.35166e-05
1.16777e-06
1.33646e-05
1.15147e-06
1.31637e-05
1.12265e-06
1.29678e-05
1.07768e-06
1.28559e-05
1.01779e-06
1.28929e-05
1.30948e-05
1.45884e-06
2.87167e-06
1.45849e-06
3.02172e-06
1.45806e-06
3.17323e-06
1.45756e-06
3.33115e-06
1.45701e-06
3.49624e-06
1.45641e-06
3.66897e-06
1.45576e-06
3.84972e-06
1.45505e-06
4.03886e-06
1.45429e-06
4.23672e-06
1.45345e-06
4.44362e-06
1.45255e-06
4.65992e-06
1.45156e-06
4.88599e-06
1.45046e-06
5.12224e-06
1.44925e-06
5.36914e-06
1.44789e-06
5.62722e-06
1.44636e-06
5.89713e-06
1.44462e-06
6.17962e-06
1.44263e-06
6.47555e-06
1.44034e-06
6.78591e-06
1.43774e-06
7.11172e-06
1.43477e-06
7.45394e-06
1.43141e-06
7.8134e-06
1.42765e-06
8.19064e-06
1.42345e-06
8.5859e-06
1.41878e-06
8.99916e-06
1.4136e-06
9.43038e-06
1.40782e-06
9.87986e-06
1.40134e-06
1.03486e-05
1.39403e-06
1.08386e-05
1.38579e-06
1.13524e-05
1.37494e-06
1.3874e-05
1.36334e-06
1.38582e-05
1.35109e-06
1.38458e-05
1.33826e-06
1.38328e-05
1.32485e-06
1.38164e-05
1.31085e-06
1.37951e-05
1.29623e-06
1.377e-05
1.28105e-06
1.37438e-05
1.26554e-06
1.37196e-05
1.25018e-06
1.37e-05
1.23579e-06
1.36835e-05
1.22337e-06
1.36616e-05
1.21351e-06
1.36162e-05
1.20546e-06
1.35247e-05
1.19621e-06
1.33738e-05
1.18061e-06
1.31793e-05
1.1532e-06
1.29952e-05
1.11121e-06
1.28979e-05
1.0564e-06
1.29477e-05
1.31574e-05
1.46508e-06
2.87185e-06
1.46474e-06
3.02206e-06
1.46432e-06
3.17364e-06
1.46384e-06
3.33163e-06
1.46331e-06
3.49678e-06
1.46273e-06
3.66955e-06
1.4621e-06
3.85035e-06
1.46142e-06
4.03955e-06
1.46068e-06
4.23746e-06
1.45988e-06
4.44442e-06
1.45901e-06
4.66079e-06
1.45805e-06
4.88694e-06
1.45701e-06
5.12329e-06
1.45585e-06
5.3703e-06
1.45455e-06
5.62852e-06
1.45309e-06
5.89859e-06
1.45143e-06
6.18128e-06
1.44953e-06
6.47745e-06
1.44737e-06
6.78808e-06
1.44489e-06
7.11419e-06
1.44209e-06
7.45675e-06
1.43892e-06
7.81657e-06
1.43537e-06
8.19419e-06
1.43142e-06
8.58985e-06
1.42704e-06
9.00354e-06
1.42218e-06
9.43524e-06
1.41677e-06
9.88527e-06
1.41071e-06
1.03547e-05
1.40389e-06
1.08454e-05
1.39622e-06
1.13601e-05
1.38615e-06
1.38841e-05
1.37541e-06
1.3869e-05
1.36412e-06
1.3857e-05
1.35233e-06
1.38446e-05
1.34006e-06
1.38286e-05
1.32728e-06
1.38079e-05
1.314e-06
1.37833e-05
1.30027e-06
1.37575e-05
1.28631e-06
1.37336e-05
1.27259e-06
1.37137e-05
1.25987e-06
1.36962e-05
1.24903e-06
1.36724e-05
1.24055e-06
1.36247e-05
1.23357e-06
1.35316e-05
1.22515e-06
1.33822e-05
1.21048e-06
1.3194e-05
1.18476e-06
1.3021e-05
1.146e-06
1.29367e-05
1.09642e-06
1.29973e-05
1.32128e-05
1.47147e-06
2.87202e-06
1.47115e-06
3.02238e-06
1.47074e-06
3.17404e-06
1.47028e-06
3.33209e-06
1.46977e-06
3.49729e-06
1.46921e-06
3.67011e-06
1.4686e-06
3.85096e-06
1.46794e-06
4.0402e-06
1.46723e-06
4.23817e-06
1.46646e-06
4.44519e-06
1.46562e-06
4.66163e-06
1.46471e-06
4.88786e-06
1.46371e-06
5.12429e-06
1.46261e-06
5.3714e-06
1.46137e-06
5.62975e-06
1.45998e-06
5.89998e-06
1.45841e-06
6.18285e-06
1.45661e-06
6.47924e-06
1.45456e-06
6.79013e-06
1.45223e-06
7.11652e-06
1.44959e-06
7.45939e-06
1.44661e-06
7.81955e-06
1.44328e-06
8.19752e-06
1.43958e-06
8.59355e-06
1.43548e-06
9.00764e-06
1.43095e-06
9.43978e-06
1.4259e-06
9.89032e-06
1.42026e-06
1.03603e-05
1.41393e-06
1.08517e-05
1.40682e-06
1.13672e-05
1.39751e-06
1.38934e-05
1.38764e-06
1.38788e-05
1.37729e-06
1.38674e-05
1.36653e-06
1.38554e-05
1.35539e-06
1.38398e-05
1.34384e-06
1.38194e-05
1.33189e-06
1.37953e-05
1.31959e-06
1.37698e-05
1.30717e-06
1.3746e-05
1.29507e-06
1.37258e-05
1.28399e-06
1.37073e-05
1.27475e-06
1.36817e-05
1.2677e-06
1.36317e-05
1.2619e-06
1.35374e-05
1.25447e-06
1.33897e-05
1.24094e-06
1.32075e-05
1.21716e-06
1.30447e-05
1.18183e-06
1.2972e-05
1.13756e-06
1.30415e-05
1.32611e-05
1.47801e-06
2.87218e-06
1.47769e-06
3.0227e-06
1.47731e-06
3.17443e-06
1.47686e-06
3.33253e-06
1.47636e-06
3.49779e-06
1.47582e-06
3.67065e-06
1.47524e-06
3.85155e-06
1.4746e-06
4.04084e-06
1.47392e-06
4.23885e-06
1.47318e-06
4.44593e-06
1.47238e-06
4.66243e-06
1.47151e-06
4.88873e-06
1.47056e-06
5.12524e-06
1.46951e-06
5.37246e-06
1.46834e-06
5.63092e-06
1.46702e-06
5.9013e-06
1.46553e-06
6.18434e-06
1.46384e-06
6.48094e-06
1.46191e-06
6.79206e-06
1.45972e-06
7.11872e-06
1.45724e-06
7.46188e-06
1.45444e-06
7.82234e-06
1.45133e-06
8.20063e-06
1.44788e-06
8.597e-06
1.44407e-06
9.01145e-06
1.43986e-06
9.44399e-06
1.43518e-06
9.89499e-06
1.42996e-06
1.03655e-05
1.42411e-06
1.08576e-05
1.41756e-06
1.13738e-05
1.40901e-06
1.39019e-05
1.39998e-06
1.38879e-05
1.39056e-06
1.38768e-05
1.38083e-06
1.38651e-05
1.37081e-06
1.38498e-05
1.36047e-06
1.38298e-05
1.34984e-06
1.38059e-05
1.33897e-06
1.37806e-05
1.32807e-06
1.37569e-05
1.31757e-06
1.37363e-05
1.30814e-06
1.37167e-05
1.30051e-06
1.36893e-05
1.29492e-06
1.36373e-05
1.29039e-06
1.3542e-05
1.28408e-06
1.3396e-05
1.27188e-06
1.32197e-05
1.25022e-06
1.30664e-05
1.21844e-06
1.30038e-05
1.17948e-06
1.30805e-05
1.33025e-05
1.48466e-06
2.87233e-06
1.48436e-06
3.023e-06
1.48399e-06
3.1748e-06
1.48356e-06
3.33296e-06
1.48308e-06
3.49826e-06
1.48256e-06
3.67117e-06
1.482e-06
3.85211e-06
1.48139e-06
4.04145e-06
1.48074e-06
4.23951e-06
1.48003e-06
4.44664e-06
1.47927e-06
4.66319e-06
1.47844e-06
4.88955e-06
1.47754e-06
5.12615e-06
1.47654e-06
5.37345e-06
1.47543e-06
5.63203e-06
1.47419e-06
5.90254e-06
1.47279e-06
6.18574e-06
1.4712e-06
6.48253e-06
1.46939e-06
6.79387e-06
1.46733e-06
7.12077e-06
1.46501e-06
7.4642e-06
1.46241e-06
7.82494e-06
1.45951e-06
8.20353e-06
1.45631e-06
8.6002e-06
1.45278e-06
9.01498e-06
1.44889e-06
9.44788e-06
1.44457e-06
9.89931e-06
1.43977e-06
1.03703e-05
1.4344e-06
1.08629e-05
1.4284e-06
1.13798e-05
1.42061e-06
1.39097e-05
1.41241e-06
1.38961e-05
1.40392e-06
1.38853e-05
1.3952e-06
1.38738e-05
1.38627e-06
1.38587e-05
1.37713e-06
1.38389e-05
1.3678e-06
1.38152e-05
1.35834e-06
1.37901e-05
1.34895e-06
1.37663e-05
1.34004e-06
1.37452e-05
1.33226e-06
1.37245e-05
1.32625e-06
1.36953e-05
1.32217e-06
1.36414e-05
1.31896e-06
1.35452e-05
1.31388e-06
1.34011e-05
1.30315e-06
1.32305e-05
1.28377e-06
1.30858e-05
1.25563e-06
1.30319e-05
1.22189e-06
1.31142e-05
1.33372e-05
1.49143e-06
2.87248e-06
1.49114e-06
3.02329e-06
1.49078e-06
3.17516e-06
1.49037e-06
3.33338e-06
1.48991e-06
3.49872e-06
1.48941e-06
3.67167e-06
1.48886e-06
3.85265e-06
1.48828e-06
4.04203e-06
1.48766e-06
4.24013e-06
1.48698e-06
4.44731e-06
1.48626e-06
4.66392e-06
1.48547e-06
4.89034e-06
1.48461e-06
5.127e-06
1.48367e-06
5.37439e-06
1.48263e-06
5.63307e-06
1.48146e-06
5.90371e-06
1.48015e-06
6.18706e-06
1.47866e-06
6.48402e-06
1.47697e-06
6.79556e-06
1.47505e-06
7.12269e-06
1.47289e-06
7.46636e-06
1.47047e-06
7.82736e-06
1.46779e-06
8.20621e-06
1.46483e-06
8.60316e-06
1.46158e-06
9.01823e-06
1.45801e-06
9.45146e-06
1.45405e-06
9.90326e-06
1.44966e-06
1.03747e-05
1.44476e-06
1.08678e-05
1.43931e-06
1.13852e-05
1.43226e-06
1.39168e-05
1.42489e-06
1.39034e-05
1.4173e-06
1.38929e-05
1.40958e-06
1.38816e-05
1.40173e-06
1.38666e-05
1.39378e-06
1.38469e-05
1.38572e-06
1.38233e-05
1.37765e-06
1.37982e-05
1.36975e-06
1.37742e-05
1.36243e-06
1.37525e-05
1.35629e-06
1.37307e-05
1.35191e-06
1.36997e-05
1.34936e-06
1.36439e-05
1.34753e-06
1.3547e-05
1.34377e-06
1.34048e-05
1.33463e-06
1.32396e-05
1.31765e-06
1.31028e-05
1.29318e-06
1.30564e-05
1.26455e-06
1.31429e-05
1.33656e-05
1.49828e-06
2.87262e-06
1.498e-06
3.02356e-06
1.49766e-06
3.17551e-06
1.49726e-06
3.33377e-06
1.49682e-06
3.49917e-06
1.49634e-06
3.67216e-06
1.49582e-06
3.85317e-06
1.49526e-06
4.04259e-06
1.49466e-06
4.24073e-06
1.49402e-06
4.44795e-06
1.49333e-06
4.66461e-06
1.49259e-06
4.89108e-06
1.49178e-06
5.12781e-06
1.49089e-06
5.37528e-06
1.48991e-06
5.63405e-06
1.48882e-06
5.9048e-06
1.48759e-06
6.18829e-06
1.4862e-06
6.48541e-06
1.48463e-06
6.79713e-06
1.48285e-06
7.12447e-06
1.48085e-06
7.46836e-06
1.47862e-06
7.82959e-06
1.47615e-06
8.20868e-06
1.47343e-06
8.60588e-06
1.47045e-06
9.0212e-06
1.46719e-06
9.45473e-06
1.46359e-06
9.90686e-06
1.4596e-06
1.03787e-05
1.45517e-06
1.08723e-05
1.45026e-06
1.13901e-05
1.44394e-06
1.39231e-05
1.43738e-06
1.391e-05
1.43069e-06
1.38996e-05
1.42394e-06
1.38883e-05
1.41716e-06
1.38734e-05
1.41036e-06
1.38536e-05
1.40357e-06
1.38301e-05
1.39685e-06
1.38049e-05
1.39043e-06
1.37806e-05
1.38468e-06
1.37583e-05
1.38017e-06
1.37352e-05
1.37743e-06
1.37024e-05
1.37643e-06
1.36449e-05
1.37602e-06
1.35474e-05
1.37367e-06
1.34072e-05
1.36623e-06
1.32471e-05
1.35173e-06
1.31173e-05
1.33093e-06
1.30772e-05
1.30726e-06
1.31665e-05
1.33878e-05
1.5052e-06
2.87275e-06
1.50494e-06
3.02383e-06
1.50461e-06
3.17584e-06
1.50422e-06
3.33416e-06
1.5038e-06
3.49959e-06
1.50333e-06
3.67262e-06
1.50283e-06
3.85367e-06
1.5023e-06
4.04312e-06
1.50173e-06
4.2413e-06
1.50112e-06
4.44856e-06
1.50047e-06
4.66526e-06
1.49977e-06
4.89178e-06
1.49901e-06
5.12857e-06
1.49817e-06
5.37611e-06
1.49726e-06
5.63497e-06
1.49624e-06
5.90582e-06
1.49509e-06
6.18943e-06
1.4938e-06
6.4867e-06
1.49235e-06
6.79859e-06
1.4907e-06
7.12611e-06
1.48886e-06
7.4702e-06
1.48681e-06
7.83164e-06
1.48455e-06
8.21094e-06
1.48207e-06
8.60835e-06
1.47937e-06
9.02391e-06
1.47641e-06
9.45769e-06
1.47316e-06
9.91011e-06
1.46957e-06
1.03823e-05
1.4656e-06
1.08762e-05
1.46121e-06
1.13945e-05
1.45561e-06
1.39287e-05
1.44984e-06
1.39158e-05
1.44402e-06
1.39054e-05
1.43823e-06
1.38941e-05
1.4325e-06
1.38791e-05
1.42684e-06
1.38593e-05
1.42128e-06
1.38356e-05
1.41591e-06
1.38103e-05
1.41094e-06
1.37856e-05
1.40674e-06
1.37625e-05
1.40386e-06
1.37381e-05
1.40274e-06
1.37035e-05
1.4033e-06
1.36444e-05
1.40435e-06
1.35464e-05
1.40347e-06
1.34081e-05
1.39783e-06
1.32527e-05
1.38588e-06
1.31292e-05
1.36871e-06
1.30944e-05
1.34984e-06
1.31854e-05
1.34043e-05
1.51218e-06
2.87287e-06
1.51192e-06
3.02408e-06
1.5116e-06
3.17616e-06
1.51123e-06
3.33453e-06
1.51082e-06
3.5e-06
1.51038e-06
3.67306e-06
1.5099e-06
3.85415e-06
1.50939e-06
4.04363e-06
1.50885e-06
4.24184e-06
1.50827e-06
4.44914e-06
1.50766e-06
4.66588e-06
1.50699e-06
4.89245e-06
1.50628e-06
5.12929e-06
1.5055e-06
5.37689e-06
1.50465e-06
5.63583e-06
1.5037e-06
5.90677e-06
1.50264e-06
6.19049e-06
1.50145e-06
6.48789e-06
1.50011e-06
6.79993e-06
1.4986e-06
7.12762e-06
1.49691e-06
7.47189e-06
1.49504e-06
7.83351e-06
1.49298e-06
8.213e-06
1.49074e-06
8.6106e-06
1.4883e-06
9.02635e-06
1.48564e-06
9.46034e-06
1.48273e-06
9.91302e-06
1.47953e-06
1.03855e-05
1.47601e-06
1.08798e-05
1.47214e-06
1.13984e-05
1.46723e-06
1.39336e-05
1.46224e-06
1.39208e-05
1.45728e-06
1.39104e-05
1.45242e-06
1.3899e-05
1.44771e-06
1.38838e-05
1.44317e-06
1.38639e-05
1.43882e-06
1.384e-05
1.43477e-06
1.38143e-05
1.43123e-06
1.37891e-05
1.42856e-06
1.37651e-05
1.42728e-06
1.37394e-05
1.42777e-06
1.37031e-05
1.4299e-06
1.36422e-05
1.43244e-06
1.35438e-05
1.4331e-06
1.34074e-05
1.42933e-06
1.32565e-05
1.41997e-06
1.31386e-05
1.4064e-06
1.31079e-05
1.39217e-06
1.31996e-05
1.34152e-05
1.51918e-06
2.87299e-06
1.51894e-06
3.02432e-06
1.51863e-06
3.17646e-06
1.51828e-06
3.33488e-06
1.51788e-06
3.50039e-06
1.51746e-06
3.67349e-06
1.517e-06
3.85461e-06
1.51652e-06
4.04411e-06
1.516e-06
4.24236e-06
1.51545e-06
4.44969e-06
1.51487e-06
4.66646e-06
1.51425e-06
4.89307e-06
1.51358e-06
5.12995e-06
1.51286e-06
5.37761e-06
1.51206e-06
5.63662e-06
1.51119e-06
5.90764e-06
1.51021e-06
6.19147e-06
1.50911e-06
6.48899e-06
1.50788e-06
6.80116e-06
1.5065e-06
7.129e-06
1.50497e-06
7.47342e-06
1.50327e-06
7.8352e-06
1.50141e-06
8.21486e-06
1.4994e-06
8.61262e-06
1.49721e-06
9.02854e-06
1.49485e-06
9.46271e-06
1.49228e-06
9.91559e-06
1.48946e-06
1.03883e-05
1.48637e-06
1.08829e-05
1.48301e-06
1.14017e-05
1.47878e-06
1.39378e-05
1.47455e-06
1.3925e-05
1.47042e-06
1.39145e-05
1.46647e-06
1.39029e-05
1.46276e-06
1.38875e-05
1.4593e-06
1.38673e-05
1.45614e-06
1.38431e-05
1.45338e-06
1.38171e-05
1.45124e-06
1.37913e-05
1.45008e-06
1.37663e-05
1.45037e-06
1.37391e-05
1.45247e-06
1.3701e-05
1.45616e-06
1.36386e-05
1.46022e-06
1.35398e-05
1.46246e-06
1.34052e-05
1.46062e-06
1.32583e-05
1.45388e-06
1.31453e-05
1.44387e-06
1.31179e-05
1.43411e-06
1.32094e-05
1.34209e-05
1.5262e-06
2.8731e-06
1.52597e-06
3.02456e-06
1.52568e-06
3.17676e-06
1.52534e-06
3.33522e-06
1.52496e-06
3.50077e-06
1.52455e-06
3.6739e-06
1.52411e-06
3.85504e-06
1.52365e-06
4.04458e-06
1.52316e-06
4.24285e-06
1.52264e-06
4.4502e-06
1.52209e-06
4.66701e-06
1.52151e-06
4.89365e-06
1.52089e-06
5.13058e-06
1.52022e-06
5.37828e-06
1.51948e-06
5.63735e-06
1.51868e-06
5.90845e-06
1.51778e-06
6.19237e-06
1.51678e-06
6.48999e-06
1.51566e-06
6.80229e-06
1.51441e-06
7.13025e-06
1.51302e-06
7.47481e-06
1.51149e-06
7.83673e-06
1.50983e-06
8.21652e-06
1.50803e-06
8.61441e-06
1.5061e-06
9.03047e-06
1.50402e-06
9.46479e-06
1.50177e-06
9.91784e-06
1.49933e-06
1.03908e-05
1.49666e-06
1.08855e-05
1.49379e-06
1.14046e-05
1.49023e-06
1.39414e-05
1.48672e-06
1.39285e-05
1.4834e-06
1.39178e-05
1.48034e-06
1.3906e-05
1.4776e-06
1.38903e-05
1.4752e-06
1.38697e-05
1.4732e-06
1.38451e-05
1.4717e-06
1.38186e-05
1.47093e-06
1.3792e-05
1.47124e-06
1.3766e-05
1.47309e-06
1.37372e-05
1.47677e-06
1.36973e-05
1.48201e-06
1.36333e-05
1.4876e-06
1.35342e-05
1.49147e-06
1.34013e-05
1.49161e-06
1.32582e-05
1.48751e-06
1.31494e-05
1.48099e-06
1.31245e-05
1.47555e-06
1.32148e-05
1.34216e-05
1.53322e-06
2.87321e-06
1.533e-06
3.02478e-06
1.53271e-06
3.17704e-06
1.53239e-06
3.33555e-06
1.53203e-06
3.50113e-06
1.53164e-06
3.67429e-06
1.53122e-06
3.85546e-06
1.53078e-06
4.04502e-06
1.53031e-06
4.24331e-06
1.52983e-06
4.45069e-06
1.52931e-06
4.66752e-06
1.52877e-06
4.89419e-06
1.52819e-06
5.13116e-06
1.52757e-06
5.37891e-06
1.52689e-06
5.63802e-06
1.52615e-06
5.90919e-06
1.52534e-06
6.19318e-06
1.52443e-06
6.4909e-06
1.52341e-06
6.8033e-06
1.52229e-06
7.13138e-06
1.52104e-06
7.47606e-06
1.51968e-06
7.83809e-06
1.5182e-06
8.21799e-06
1.51662e-06
8.61599e-06
1.51493e-06
9.03216e-06
1.51313e-06
9.46659e-06
1.51119e-06
9.91978e-06
1.50911e-06
1.03929e-05
1.50686e-06
1.08878e-05
1.50445e-06
1.1407e-05
1.50153e-06
1.39443e-05
1.49874e-06
1.39313e-05
1.4962e-06
1.39204e-05
1.494e-06
1.39082e-05
1.4922e-06
1.38921e-05
1.49082e-06
1.38711e-05
1.48994e-06
1.3846e-05
1.48968e-06
1.38188e-05
1.49024e-06
1.37915e-05
1.492e-06
1.37642e-05
1.49536e-06
1.37339e-05
1.50059e-06
1.3692e-05
1.50737e-06
1.36265e-05
1.5145e-06
1.35271e-05
1.52003e-06
1.33958e-05
1.5222e-06
1.3256e-05
1.52075e-06
1.31509e-05
1.51764e-06
1.31276e-05
1.51639e-06
1.32161e-05
1.34174e-05
1.54021e-06
2.87331e-06
1.54e-06
3.02499e-06
1.53973e-06
3.17731e-06
1.53942e-06
3.33586e-06
1.53907e-06
3.50148e-06
1.5387e-06
3.67466e-06
1.5383e-06
3.85586e-06
1.53789e-06
4.04544e-06
1.53745e-06
4.24375e-06
1.53699e-06
4.45115e-06
1.5365e-06
4.668e-06
1.536e-06
4.8947e-06
1.53546e-06
5.13169e-06
1.53489e-06
5.37948e-06
1.53427e-06
5.63864e-06
1.5336e-06
5.90986e-06
1.53286e-06
6.19392e-06
1.53204e-06
6.49172e-06
1.53113e-06
6.80421e-06
1.53012e-06
7.13239e-06
1.52901e-06
7.47716e-06
1.52781e-06
7.8393e-06
1.52652e-06
8.21929e-06
1.52514e-06
8.61737e-06
1.52369e-06
9.03361e-06
1.52215e-06
9.46813e-06
1.52052e-06
9.92141e-06
1.51878e-06
1.03946e-05
1.51692e-06
1.08896e-05
1.51498e-06
1.1409e-05
1.51267e-06
1.39466e-05
1.51057e-06
1.39334e-05
1.50878e-06
1.39221e-05
1.50741e-06
1.39095e-05
1.50651e-06
1.3893e-05
1.50613e-06
1.38715e-05
1.50634e-06
1.38458e-05
1.50726e-06
1.38179e-05
1.50913e-06
1.37896e-05
1.51228e-06
1.37611e-05
1.51712e-06
1.3729e-05
1.52387e-06
1.36853e-05
1.53218e-06
1.36182e-05
1.54085e-06
1.35184e-05
1.54807e-06
1.33885e-05
1.55228e-06
1.32518e-05
1.55348e-06
1.31497e-05
1.55372e-06
1.31273e-05
1.5565e-06
1.32133e-05
1.34087e-05
1.54717e-06
2.8734e-06
1.54697e-06
3.02519e-06
1.54672e-06
3.17756e-06
1.54642e-06
3.33616e-06
1.54609e-06
3.50181e-06
1.54573e-06
3.67502e-06
1.54535e-06
3.85623e-06
1.54496e-06
4.04583e-06
1.54454e-06
4.24417e-06
1.54411e-06
4.45158e-06
1.54366e-06
4.66845e-06
1.54319e-06
4.89517e-06
1.54269e-06
5.13219e-06
1.54217e-06
5.38e-06
1.54161e-06
5.6392e-06
1.541e-06
5.91047e-06
1.54033e-06
6.19459e-06
1.5396e-06
6.49245e-06
1.53879e-06
6.80502e-06
1.53789e-06
7.13328e-06
1.53692e-06
7.47814e-06
1.53587e-06
7.84035e-06
1.53475e-06
8.2204e-06
1.53358e-06
8.61854e-06
1.53235e-06
9.03484e-06
1.53107e-06
9.46941e-06
1.52972e-06
9.92275e-06
1.52831e-06
1.0396e-05
1.52684e-06
1.08911e-05
1.52533e-06
1.14105e-05
1.52362e-06
1.39483e-05
1.52217e-06
1.39348e-05
1.52111e-06
1.39232e-05
1.52054e-06
1.39101e-05
1.52051e-06
1.3893e-05
1.52109e-06
1.38709e-05
1.52234e-06
1.38446e-05
1.52442e-06
1.38158e-05
1.52753e-06
1.37865e-05
1.53204e-06
1.37566e-05
1.53832e-06
1.37227e-05
1.54655e-06
1.36771e-05
1.55635e-06
1.36084e-05
1.56657e-06
1.35082e-05
1.57548e-06
1.33796e-05
1.58177e-06
1.32455e-05
1.58558e-06
1.31458e-05
1.58911e-06
1.31238e-05
1.59576e-06
1.32067e-05
1.33956e-05
1.55408e-06
2.87349e-06
1.55389e-06
3.02538e-06
1.55365e-06
3.17781e-06
1.55336e-06
3.33644e-06
1.55305e-06
3.50213e-06
1.55271e-06
3.67536e-06
1.55235e-06
3.85659e-06
1.55197e-06
4.04621e-06
1.55158e-06
4.24456e-06
1.55118e-06
4.45199e-06
1.55076e-06
4.66887e-06
1.55032e-06
4.89561e-06
1.54987e-06
5.13264e-06
1.54939e-06
5.38048e-06
1.54888e-06
5.63971e-06
1.54833e-06
5.91102e-06
1.54774e-06
6.19519e-06
1.54709e-06
6.4931e-06
1.54637e-06
6.80574e-06
1.54559e-06
7.13406e-06
1.54474e-06
7.47899e-06
1.54384e-06
7.84125e-06
1.54289e-06
8.22135e-06
1.5419e-06
8.61953e-06
1.54089e-06
9.03585e-06
1.53985e-06
9.47045e-06
1.53879e-06
9.92382e-06
1.53769e-06
1.03971e-05
1.53659e-06
1.08922e-05
1.5355e-06
1.14116e-05
1.53435e-06
1.39495e-05
1.53353e-06
1.39357e-05
1.53316e-06
1.39236e-05
1.53335e-06
1.39099e-05
1.53415e-06
1.38922e-05
1.53565e-06
1.38694e-05
1.53791e-06
1.38423e-05
1.54108e-06
1.38127e-05
1.54541e-06
1.37822e-05
1.55123e-06
1.37507e-05
1.55889e-06
1.37151e-05
1.56855e-06
1.36674e-05
1.57982e-06
1.35972e-05
1.59156e-06
1.34964e-05
1.60219e-06
1.3369e-05
1.61054e-06
1.32372e-05
1.61696e-06
1.31394e-05
1.62367e-06
1.31171e-05
1.63406e-06
1.31963e-05
1.33784e-05
1.56093e-06
2.87357e-06
1.56075e-06
3.02556e-06
1.56052e-06
3.17804e-06
1.56025e-06
3.33671e-06
1.55995e-06
3.50243e-06
1.55962e-06
3.67568e-06
1.55928e-06
3.85693e-06
1.55893e-06
4.04656e-06
1.55856e-06
4.24493e-06
1.55818e-06
4.45237e-06
1.55779e-06
4.66926e-06
1.55739e-06
4.89601e-06
1.55697e-06
5.13306e-06
1.55654e-06
5.38091e-06
1.55608e-06
5.64017e-06
1.55559e-06
5.91151e-06
1.55506e-06
6.19571e-06
1.55449e-06
6.49368e-06
1.55387e-06
6.80636e-06
1.55319e-06
7.13474e-06
1.55247e-06
7.47971e-06
1.5517e-06
7.84202e-06
1.55091e-06
8.22215e-06
1.5501e-06
8.62034e-06
1.54929e-06
9.03666e-06
1.54849e-06
9.47125e-06
1.54769e-06
9.92462e-06
1.5469e-06
1.03979e-05
1.54613e-06
1.0893e-05
1.54544e-06
1.14123e-05
1.54483e-06
1.39501e-05
1.54461e-06
1.39359e-05
1.5449e-06
1.39233e-05
1.54581e-06
1.3909e-05
1.54741e-06
1.38906e-05
1.54977e-06
1.3867e-05
1.553e-06
1.38391e-05
1.55723e-06
1.38084e-05
1.56271e-06
1.37767e-05
1.56978e-06
1.37437e-05
1.57877e-06
1.37061e-05
1.58982e-06
1.36564e-05
1.60251e-06
1.35845e-05
1.61576e-06
1.34832e-05
1.62809e-06
1.33567e-05
1.6385e-06
1.32267e-05
1.64748e-06
1.31305e-05
1.6573e-06
1.31073e-05
1.67127e-06
1.31823e-05
1.33571e-05
1.5677e-06
2.87364e-06
1.56753e-06
3.02573e-06
1.56731e-06
3.17825e-06
1.56706e-06
3.33697e-06
1.56677e-06
3.50271e-06
1.56646e-06
3.67599e-06
1.56614e-06
3.85726e-06
1.56581e-06
4.0469e-06
1.56546e-06
4.24527e-06
1.56511e-06
4.45272e-06
1.56474e-06
4.66962e-06
1.56437e-06
4.89638e-06
1.56399e-06
5.13344e-06
1.5636e-06
5.38131e-06
1.56319e-06
5.64058e-06
1.56276e-06
5.91194e-06
1.56229e-06
6.19618e-06
1.5618e-06
6.49418e-06
1.56126e-06
6.8069e-06
1.56068e-06
7.13531e-06
1.56007e-06
7.48032e-06
1.55944e-06
7.84265e-06
1.5588e-06
8.22279e-06
1.55816e-06
8.62097e-06
1.55755e-06
9.03728e-06
1.55696e-06
9.47184e-06
1.55641e-06
9.92517e-06
1.5559e-06
1.03984e-05
1.55547e-06
1.08934e-05
1.55515e-06
1.14126e-05
1.55505e-06
1.39502e-05
1.55539e-06
1.39355e-05
1.5563e-06
1.39224e-05
1.55789e-06
1.39074e-05
1.56024e-06
1.38882e-05
1.56343e-06
1.38638e-05
1.56757e-06
1.38349e-05
1.5728e-06
1.38032e-05
1.57938e-06
1.37701e-05
1.58764e-06
1.37354e-05
1.5979e-06
1.36958e-05
1.61027e-06
1.3644e-05
1.62435e-06
1.35704e-05
1.63907e-06
1.34685e-05
1.65309e-06
1.33427e-05
1.66554e-06
1.32143e-05
1.67703e-06
1.3119e-05
1.68985e-06
1.30945e-05
1.70726e-06
1.31649e-05
1.33321e-05
1.57438e-06
2.87371e-06
1.57423e-06
3.02588e-06
1.57402e-06
3.17846e-06
1.57378e-06
3.33721e-06
1.57351e-06
3.50298e-06
1.57322e-06
3.67628e-06
1.57291e-06
3.85756e-06
1.57259e-06
4.04722e-06
1.57227e-06
4.2456e-06
1.57194e-06
4.45305e-06
1.5716e-06
4.66996e-06
1.57126e-06
4.89672e-06
1.57092e-06
5.13378e-06
1.57057e-06
5.38166e-06
1.5702e-06
5.64095e-06
1.56982e-06
5.91232e-06
1.56942e-06
6.19658e-06
1.56899e-06
6.4946e-06
1.56853e-06
6.80735e-06
1.56805e-06
7.1358e-06
1.56755e-06
7.48082e-06
1.56704e-06
7.84316e-06
1.56654e-06
8.22329e-06
1.56606e-06
8.62145e-06
1.56563e-06
9.03771e-06
1.56525e-06
9.47222e-06
1.56493e-06
9.92549e-06
1.56469e-06
1.03986e-05
1.56456e-06
1.08935e-05
1.5646e-06
1.14125e-05
1.56497e-06
1.39498e-05
1.56584e-06
1.39347e-05
1.56734e-06
1.39209e-05
1.56957e-06
1.39052e-05
1.57262e-06
1.38852e-05
1.57659e-06
1.38599e-05
1.58158e-06
1.383e-05
1.58775e-06
1.3797e-05
1.59537e-06
1.37625e-05
1.60475e-06
1.3726e-05
1.61622e-06
1.36843e-05
1.62985e-06
1.36304e-05
1.64525e-06
1.3555e-05
1.66142e-06
1.34523e-05
1.67709e-06
1.3327e-05
1.69155e-06
1.31998e-05
1.70549e-06
1.3105e-05
1.72121e-06
1.30787e-05
1.7419e-06
1.31442e-05
1.33035e-05
1.58098e-06
2.87378e-06
1.58083e-06
3.02603e-06
1.58063e-06
3.17865e-06
1.5804e-06
3.33744e-06
1.58015e-06
3.50324e-06
1.57987e-06
3.67655e-06
1.57958e-06
3.85785e-06
1.57928e-06
4.04752e-06
1.57898e-06
4.2459e-06
1.57867e-06
4.45336e-06
1.57836e-06
4.67027e-06
1.57805e-06
4.89703e-06
1.57773e-06
5.13409e-06
1.57742e-06
5.38198e-06
1.5771e-06
5.64127e-06
1.57677e-06
5.91265e-06
1.57642e-06
6.19692e-06
1.57606e-06
6.49497e-06
1.57568e-06
6.80773e-06
1.57528e-06
7.13619e-06
1.57488e-06
7.48122e-06
1.57449e-06
7.84355e-06
1.57412e-06
8.22366e-06
1.57379e-06
8.62177e-06
1.57353e-06
9.03798e-06
1.57334e-06
9.47241e-06
1.57324e-06
9.92558e-06
1.57325e-06
1.03986e-05
1.5734e-06
1.08934e-05
1.57377e-06
1.14122e-05
1.57459e-06
1.3949e-05
1.57595e-06
1.39333e-05
1.57798e-06
1.39188e-05
1.58081e-06
1.39024e-05
1.58452e-06
1.38815e-05
1.58921e-06
1.38552e-05
1.59499e-06
1.38242e-05
1.60205e-06
1.379e-05
1.61063e-06
1.37539e-05
1.62107e-06
1.37156e-05
1.63366e-06
1.36717e-05
1.64849e-06
1.36155e-05
1.66516e-06
1.35383e-05
1.68271e-06
1.34347e-05
1.69999e-06
1.33097e-05
1.71641e-06
1.31834e-05
1.73273e-06
1.30887e-05
1.75123e-06
1.30602e-05
1.77505e-06
1.31204e-05
1.32714e-05
1.58746e-06
2.87384e-06
1.58732e-06
3.02617e-06
1.58714e-06
3.17884e-06
1.58692e-06
3.33766e-06
1.58668e-06
3.50348e-06
1.58642e-06
3.67682e-06
1.58614e-06
3.85812e-06
1.58586e-06
4.0478e-06
1.58558e-06
4.24619e-06
1.58529e-06
4.45365e-06
1.585e-06
4.67056e-06
1.58472e-06
4.89731e-06
1.58443e-06
5.13438e-06
1.58415e-06
5.38226e-06
1.58387e-06
5.64155e-06
1.58358e-06
5.91294e-06
1.58329e-06
6.19722e-06
1.58299e-06
6.49527e-06
1.58268e-06
6.80804e-06
1.58237e-06
7.1365e-06
1.58206e-06
7.48153e-06
1.58177e-06
7.84384e-06
1.58153e-06
8.22391e-06
1.58134e-06
8.62196e-06
1.58123e-06
9.03809e-06
1.58122e-06
9.47242e-06
1.58132e-06
9.92548e-06
1.58156e-06
1.03984e-05
1.58197e-06
1.0893e-05
1.58264e-06
1.14115e-05
1.58387e-06
1.39477e-05
1.58568e-06
1.39315e-05
1.58821e-06
1.39163e-05
1.59159e-06
1.3899e-05
1.5959e-06
1.38772e-05
1.60126e-06
1.38498e-05
1.60778e-06
1.38177e-05
1.61565e-06
1.37821e-05
1.62512e-06
1.37444e-05
1.63654e-06
1.37042e-05
1.65018e-06
1.36581e-05
1.66613e-06
1.35996e-05
1.68398e-06
1.35205e-05
1.70286e-06
1.34159e-05
1.7217e-06
1.32909e-05
1.74002e-06
1.31651e-05
1.75862e-06
1.30701e-05
1.77979e-06
1.30391e-05
1.80658e-06
1.30936e-05
1.32362e-05
1.59384e-06
2.87389e-06
1.59371e-06
3.0263e-06
1.59353e-06
3.17901e-06
1.59333e-06
3.33787e-06
1.5931e-06
3.50371e-06
1.59285e-06
3.67706e-06
1.59259e-06
3.85838e-06
1.59232e-06
4.04806e-06
1.59206e-06
4.24646e-06
1.59179e-06
4.45392e-06
1.59152e-06
4.67082e-06
1.59126e-06
4.89757e-06
1.59101e-06
5.13463e-06
1.59076e-06
5.38251e-06
1.59051e-06
5.6418e-06
1.59026e-06
5.91318e-06
1.59002e-06
6.19746e-06
1.58977e-06
6.49551e-06
1.58953e-06
6.80829e-06
1.58929e-06
7.13674e-06
1.58907e-06
7.48175e-06
1.58888e-06
7.84403e-06
1.58875e-06
8.22404e-06
1.58868e-06
8.62202e-06
1.58872e-06
9.03805e-06
1.58887e-06
9.47227e-06
1.58915e-06
9.9252e-06
1.5896e-06
1.03979e-05
1.59026e-06
1.08923e-05
1.5912e-06
1.14106e-05
1.5928e-06
1.39461e-05
1.59502e-06
1.39293e-05
1.59801e-06
1.39133e-05
1.60188e-06
1.38951e-05
1.60675e-06
1.38723e-05
1.61271e-06
1.38439e-05
1.6199e-06
1.38105e-05
1.62851e-06
1.37735e-05
1.6388e-06
1.37341e-05
1.65111e-06
1.36919e-05
1.66572e-06
1.36435e-05
1.68269e-06
1.35826e-05
1.70166e-06
1.35015e-05
1.72179e-06
1.33957e-05
1.74211e-06
1.32705e-05
1.76225e-06
1.31449e-05
1.78304e-06
1.30493e-05
1.80674e-06
1.30154e-05
1.83634e-06
1.3064e-05
1.31979e-05
1.60009e-06
2.87394e-06
1.59997e-06
3.02641e-06
1.59981e-06
3.17917e-06
1.59961e-06
3.33806e-06
1.59939e-06
3.50393e-06
1.59916e-06
3.6773e-06
1.59891e-06
3.85863e-06
1.59866e-06
4.04831e-06
1.59841e-06
4.24671e-06
1.59816e-06
4.45417e-06
1.59791e-06
4.67107e-06
1.59767e-06
4.89781e-06
1.59744e-06
5.13486e-06
1.59722e-06
5.38273e-06
1.597e-06
5.64201e-06
1.5968e-06
5.91339e-06
1.5966e-06
6.19766e-06
1.5964e-06
6.49571e-06
1.59622e-06
6.80847e-06
1.59605e-06
7.13691e-06
1.5959e-06
7.48189e-06
1.5958e-06
7.84413e-06
1.59577e-06
8.22408e-06
1.59582e-06
8.62197e-06
1.59599e-06
9.03789e-06
1.59628e-06
9.47198e-06
1.59673e-06
9.92475e-06
1.59737e-06
1.03973e-05
1.59824e-06
1.08914e-05
1.59943e-06
1.14094e-05
1.60136e-06
1.39442e-05
1.60396e-06
1.39267e-05
1.60735e-06
1.39099e-05
1.61167e-06
1.38908e-05
1.61702e-06
1.38669e-05
1.62353e-06
1.38374e-05
1.63132e-06
1.38027e-05
1.64059e-06
1.37642e-05
1.65162e-06
1.37231e-05
1.66474e-06
1.36788e-05
1.68021e-06
1.3628e-05
1.69812e-06
1.35647e-05
1.71811e-06
1.34815e-05
1.7394e-06
1.33744e-05
1.76113e-06
1.32488e-05
1.78299e-06
1.31231e-05
1.80585e-06
1.30264e-05
1.83195e-06
1.29893e-05
1.86419e-06
1.30317e-05
1.31568e-05
1.60621e-06
2.87398e-06
1.6061e-06
3.02653e-06
1.60595e-06
3.17932e-06
1.60576e-06
3.33824e-06
1.60555e-06
3.50414e-06
1.60533e-06
3.67752e-06
1.6051e-06
3.85886e-06
1.60486e-06
4.04855e-06
1.60462e-06
4.24695e-06
1.60439e-06
4.4544e-06
1.60416e-06
4.6713e-06
1.60394e-06
4.89803e-06
1.60373e-06
5.13507e-06
1.60353e-06
5.38293e-06
1.60335e-06
5.64219e-06
1.60318e-06
5.91356e-06
1.60302e-06
6.19783e-06
1.60287e-06
6.49586e-06
1.60273e-06
6.80861e-06
1.60262e-06
7.13702e-06
1.60255e-06
7.48197e-06
1.60253e-06
7.84415e-06
1.60259e-06
8.22402e-06
1.60274e-06
8.62182e-06
1.60302e-06
9.03761e-06
1.60345e-06
9.47155e-06
1.60404e-06
9.92415e-06
1.60485e-06
1.03965e-05
1.60591e-06
1.08904e-05
1.60732e-06
1.1408e-05
1.60955e-06
1.3942e-05
1.61247e-06
1.39238e-05
1.61622e-06
1.39062e-05
1.62093e-06
1.38861e-05
1.62672e-06
1.38611e-05
1.63369e-06
1.38304e-05
1.64201e-06
1.37944e-05
1.65187e-06
1.37544e-05
1.66355e-06
1.37114e-05
1.67737e-06
1.36649e-05
1.69362e-06
1.36118e-05
1.71236e-06
1.3546e-05
1.73327e-06
1.34606e-05
1.75563e-06
1.33521e-05
1.77866e-06
1.32258e-05
1.80212e-06
1.30996e-05
1.82693e-06
1.30016e-05
1.85526e-06
1.29609e-05
1.88996e-06
1.2997e-05
1.3113e-05
1.6122e-06
2.87402e-06
1.61209e-06
3.02663e-06
1.61195e-06
3.17947e-06
1.61178e-06
3.33842e-06
1.61158e-06
3.50434e-06
1.61137e-06
3.67773e-06
1.61115e-06
3.85908e-06
1.61092e-06
4.04878e-06
1.61069e-06
4.24717e-06
1.61047e-06
4.45463e-06
1.61026e-06
4.67151e-06
1.61006e-06
4.89823e-06
1.60987e-06
5.13526e-06
1.6097e-06
5.3831e-06
1.60954e-06
5.64235e-06
1.60939e-06
5.91371e-06
1.60927e-06
6.19795e-06
1.60916e-06
6.49597e-06
1.60907e-06
6.80869e-06
1.60902e-06
7.13708e-06
1.609e-06
7.48198e-06
1.60906e-06
7.84409e-06
1.60919e-06
8.22389e-06
1.60944e-06
8.62157e-06
1.60981e-06
9.03723e-06
1.61035e-06
9.47102e-06
1.61108e-06
9.92342e-06
1.61203e-06
1.03955e-05
1.61326e-06
1.08891e-05
1.61486e-06
1.14064e-05
1.61734e-06
1.39395e-05
1.62054e-06
1.39206e-05
1.6246e-06
1.39021e-05
1.62965e-06
1.3881e-05
1.6358e-06
1.3855e-05
1.64319e-06
1.3823e-05
1.65195e-06
1.37856e-05
1.66232e-06
1.3744e-05
1.67455e-06
1.36992e-05
1.68898e-06
1.36505e-05
1.70589e-06
1.35949e-05
1.72535e-06
1.35265e-05
1.74707e-06
1.34389e-05
1.77039e-06
1.33287e-05
1.7946e-06
1.32016e-05