/*--------------------------------*- C++ -*----------------------------------*\
  =========                 |
  \\      /  F ield         | OpenFOAM: The Open Source CFD Toolbox
   \\    /   O peration     | Website:  https://openfoam.org
    \\  /    A nd           | Version:  9
     \\/     M anipulation  |
\*---------------------------------------------------------------------------*/
FoamFile
{
    format      ascii;
    class       volScalarField;
    location    "0.12";
    object      rAU;
}
// * * * * * * * * * * * * * * * * * * * * * * * * * * * * * * * * * * * * * //

dimensions      [-1 3 1 0 0 0 0];

internalField   nonuniform List<scalar> 
5000
(
9.7422e-06
1.12838e-05
1.14005e-05
1.15105e-05
1.1614e-05
1.17114e-05
1.18029e-05
1.18889e-05
1.19696e-05
1.20456e-05
1.2117e-05
1.21841e-05
1.22473e-05
1.23068e-05
1.23628e-05
1.24156e-05
1.24652e-05
1.25119e-05
1.25557e-05
1.25967e-05
1.26351e-05
1.26711e-05
1.27048e-05
1.27366e-05
1.27667e-05
1.27956e-05
1.28233e-05
1.285e-05
1.28754e-05
1.29027e-05
1.29715e-05
1.29783e-05
1.29819e-05
1.29858e-05
1.29902e-05
1.29954e-05
1.30012e-05
1.30073e-05
1.30131e-05
1.30182e-05
1.30226e-05
1.30275e-05
1.30352e-05
1.30493e-05
1.30724e-05
1.31033e-05
1.31351e-05
1.3157e-05
1.31595e-05
1.31397e-05
9.73818e-06
1.12806e-05
1.13973e-05
1.15074e-05
1.1611e-05
1.17084e-05
1.18e-05
1.1886e-05
1.19668e-05
1.20428e-05
1.21143e-05
1.21815e-05
1.22447e-05
1.23043e-05
1.23603e-05
1.24131e-05
1.24627e-05
1.25094e-05
1.25532e-05
1.25942e-05
1.26326e-05
1.26685e-05
1.27022e-05
1.27339e-05
1.27641e-05
1.27928e-05
1.28205e-05
1.28471e-05
1.28724e-05
1.28996e-05
1.29684e-05
1.2975e-05
1.29784e-05
1.2982e-05
1.29862e-05
1.29911e-05
1.29967e-05
1.30025e-05
1.3008e-05
1.30129e-05
1.30172e-05
1.30221e-05
1.303e-05
1.30442e-05
1.3067e-05
1.30968e-05
1.31267e-05
1.31461e-05
1.3146e-05
1.3124e-05
9.73406e-06
1.12773e-05
1.13941e-05
1.15042e-05
1.16078e-05
1.17053e-05
1.1797e-05
1.18831e-05
1.1964e-05
1.204e-05
1.21115e-05
1.21788e-05
1.22421e-05
1.23017e-05
1.23578e-05
1.24106e-05
1.24602e-05
1.25069e-05
1.25507e-05
1.25917e-05
1.26301e-05
1.26659e-05
1.26996e-05
1.27313e-05
1.27614e-05
1.27901e-05
1.28177e-05
1.28442e-05
1.28695e-05
1.28965e-05
1.29654e-05
1.29718e-05
1.2975e-05
1.29784e-05
1.29823e-05
1.2987e-05
1.29923e-05
1.29978e-05
1.30031e-05
1.30078e-05
1.3012e-05
1.30169e-05
1.3025e-05
1.30392e-05
1.30616e-05
1.30904e-05
1.31184e-05
1.31354e-05
1.3133e-05
1.31093e-05
9.72985e-06
1.1274e-05
1.13908e-05
1.15009e-05
1.16047e-05
1.17022e-05
1.17939e-05
1.18801e-05
1.19611e-05
1.20372e-05
1.21088e-05
1.21761e-05
1.22394e-05
1.22991e-05
1.23552e-05
1.2408e-05
1.24577e-05
1.25044e-05
1.25482e-05
1.25892e-05
1.26275e-05
1.26634e-05
1.2697e-05
1.27287e-05
1.27587e-05
1.27874e-05
1.2815e-05
1.28414e-05
1.28666e-05
1.28935e-05
1.29625e-05
1.29687e-05
1.29717e-05
1.29749e-05
1.29786e-05
1.29831e-05
1.29881e-05
1.29934e-05
1.29984e-05
1.30029e-05
1.30071e-05
1.3012e-05
1.30201e-05
1.30343e-05
1.30564e-05
1.30841e-05
1.31103e-05
1.31251e-05
1.31207e-05
1.30955e-05
9.72555e-06
1.12706e-05
1.13874e-05
1.14976e-05
1.16014e-05
1.16991e-05
1.17909e-05
1.18771e-05
1.19581e-05
1.20343e-05
1.2106e-05
1.21733e-05
1.22367e-05
1.22964e-05
1.23526e-05
1.24054e-05
1.24552e-05
1.25019e-05
1.25456e-05
1.25866e-05
1.2625e-05
1.26608e-05
1.26944e-05
1.27261e-05
1.27561e-05
1.27848e-05
1.28123e-05
1.28386e-05
1.28637e-05
1.28905e-05
1.29597e-05
1.29657e-05
1.29685e-05
1.29715e-05
1.2975e-05
1.29793e-05
1.29841e-05
1.29891e-05
1.2994e-05
1.29983e-05
1.30023e-05
1.30073e-05
1.30155e-05
1.30297e-05
1.30512e-05
1.30779e-05
1.31024e-05
1.31153e-05
1.31091e-05
1.30826e-05
9.72118e-06
1.12671e-05
1.1384e-05
1.14943e-05
1.15982e-05
1.16959e-05
1.17877e-05
1.1874e-05
1.19552e-05
1.20314e-05
1.21031e-05
1.21705e-05
1.2234e-05
1.22937e-05
1.235e-05
1.24029e-05
1.24526e-05
1.24993e-05
1.25431e-05
1.25841e-05
1.26224e-05
1.26583e-05
1.26919e-05
1.27235e-05
1.27535e-05
1.27822e-05
1.28096e-05
1.28359e-05
1.2861e-05
1.28877e-05
1.2957e-05
1.29628e-05
1.29655e-05
1.29683e-05
1.29716e-05
1.29757e-05
1.29803e-05
1.29851e-05
1.29897e-05
1.29939e-05
1.29979e-05
1.30028e-05
1.30111e-05
1.30252e-05
1.30463e-05
1.30719e-05
1.30948e-05
1.31059e-05
1.30983e-05
1.30708e-05
9.71676e-06
1.12636e-05
1.13806e-05
1.14909e-05
1.15949e-05
1.16926e-05
1.17846e-05
1.1871e-05
1.19522e-05
1.20285e-05
1.21002e-05
1.21678e-05
1.22313e-05
1.22911e-05
1.23473e-05
1.24003e-05
1.245e-05
1.24968e-05
1.25406e-05
1.25816e-05
1.26199e-05
1.26558e-05
1.26894e-05
1.2721e-05
1.2751e-05
1.27796e-05
1.2807e-05
1.28333e-05
1.28583e-05
1.28849e-05
1.29544e-05
1.296e-05
1.29625e-05
1.29652e-05
1.29684e-05
1.29722e-05
1.29766e-05
1.29813e-05
1.29857e-05
1.29897e-05
1.29936e-05
1.29986e-05
1.30069e-05
1.30209e-05
1.30415e-05
1.30661e-05
1.30876e-05
1.30971e-05
1.30881e-05
1.30598e-05
9.71228e-06
1.12601e-05
1.13771e-05
1.14875e-05
1.15915e-05
1.16894e-05
1.17814e-05
1.18678e-05
1.19491e-05
1.20255e-05
1.20974e-05
1.21649e-05
1.22285e-05
1.22884e-05
1.23447e-05
1.23977e-05
1.24475e-05
1.24942e-05
1.25381e-05
1.25791e-05
1.26174e-05
1.26533e-05
1.26869e-05
1.27185e-05
1.27485e-05
1.27771e-05
1.28045e-05
1.28307e-05
1.28556e-05
1.28822e-05
1.29519e-05
1.29574e-05
1.29597e-05
1.29622e-05
1.29653e-05
1.2969e-05
1.29732e-05
1.29776e-05
1.29819e-05
1.29858e-05
1.29897e-05
1.29947e-05
1.30029e-05
1.30168e-05
1.30369e-05
1.30605e-05
1.30806e-05
1.30887e-05
1.30787e-05
1.30499e-05
9.70777e-06
1.12565e-05
1.13736e-05
1.14841e-05
1.15881e-05
1.16861e-05
1.17782e-05
1.18647e-05
1.19461e-05
1.20226e-05
1.20945e-05
1.21621e-05
1.22258e-05
1.22857e-05
1.23421e-05
1.23951e-05
1.24449e-05
1.24917e-05
1.25356e-05
1.25766e-05
1.2615e-05
1.26508e-05
1.26844e-05
1.27161e-05
1.2746e-05
1.27746e-05
1.2802e-05
1.28282e-05
1.28531e-05
1.28796e-05
1.29495e-05
1.29548e-05
1.29571e-05
1.29594e-05
1.29623e-05
1.29659e-05
1.29699e-05
1.29742e-05
1.29783e-05
1.29821e-05
1.29859e-05
1.2991e-05
1.29993e-05
1.3013e-05
1.30326e-05
1.30552e-05
1.30741e-05
1.30809e-05
1.30701e-05
1.30408e-05
9.70323e-06
1.12529e-05
1.13701e-05
1.14806e-05
1.15848e-05
1.16828e-05
1.1775e-05
1.18616e-05
1.1943e-05
1.20196e-05
1.20916e-05
1.21593e-05
1.2223e-05
1.2283e-05
1.23394e-05
1.23925e-05
1.24424e-05
1.24892e-05
1.25331e-05
1.25742e-05
1.26125e-05
1.26484e-05
1.2682e-05
1.27137e-05
1.27437e-05
1.27722e-05
1.27996e-05
1.28258e-05
1.28506e-05
1.28771e-05
1.29472e-05
1.29524e-05
1.29545e-05
1.29568e-05
1.29596e-05
1.2963e-05
1.29669e-05
1.2971e-05
1.2975e-05
1.29787e-05
1.29825e-05
1.29875e-05
1.29958e-05
1.30094e-05
1.30285e-05
1.30503e-05
1.3068e-05
1.30737e-05
1.30621e-05
1.30326e-05
9.69868e-06
1.12494e-05
1.13666e-05
1.14772e-05
1.15814e-05
1.16795e-05
1.17717e-05
1.18585e-05
1.194e-05
1.20166e-05
1.20887e-05
1.21565e-05
1.22203e-05
1.22803e-05
1.23368e-05
1.23899e-05
1.24399e-05
1.24868e-05
1.25307e-05
1.25717e-05
1.26101e-05
1.2646e-05
1.26797e-05
1.27113e-05
1.27413e-05
1.27699e-05
1.27973e-05
1.28234e-05
1.28483e-05
1.28747e-05
1.2945e-05
1.29501e-05
1.29521e-05
1.29543e-05
1.29569e-05
1.29602e-05
1.2964e-05
1.2968e-05
1.29719e-05
1.29756e-05
1.29793e-05
1.29844e-05
1.29927e-05
1.30061e-05
1.30247e-05
1.30456e-05
1.30622e-05
1.3067e-05
1.30549e-05
1.30253e-05
9.69413e-06
1.12458e-05
1.1363e-05
1.14737e-05
1.1578e-05
1.16762e-05
1.17685e-05
1.18553e-05
1.19369e-05
1.20137e-05
1.20858e-05
1.21537e-05
1.22176e-05
1.22777e-05
1.23342e-05
1.23874e-05
1.24374e-05
1.24843e-05
1.25283e-05
1.25694e-05
1.26078e-05
1.26437e-05
1.26774e-05
1.2709e-05
1.2739e-05
1.27676e-05
1.2795e-05
1.28211e-05
1.2846e-05
1.28724e-05
1.29429e-05
1.29479e-05
1.29499e-05
1.29519e-05
1.29545e-05
1.29577e-05
1.29614e-05
1.29653e-05
1.29691e-05
1.29727e-05
1.29764e-05
1.29815e-05
1.29898e-05
1.3003e-05
1.30212e-05
1.30413e-05
1.30569e-05
1.30609e-05
1.30484e-05
1.30188e-05
9.68959e-06
1.12422e-05
1.13595e-05
1.14703e-05
1.15747e-05
1.16729e-05
1.17653e-05
1.18522e-05
1.19339e-05
1.20107e-05
1.2083e-05
1.21509e-05
1.22148e-05
1.2275e-05
1.23316e-05
1.23849e-05
1.24349e-05
1.24819e-05
1.25259e-05
1.2567e-05
1.26055e-05
1.26414e-05
1.26751e-05
1.27068e-05
1.27368e-05
1.27655e-05
1.27928e-05
1.2819e-05
1.28438e-05
1.28702e-05
1.29409e-05
1.29459e-05
1.29477e-05
1.29497e-05
1.29522e-05
1.29553e-05
1.29589e-05
1.29628e-05
1.29665e-05
1.297e-05
1.29738e-05
1.2979e-05
1.29873e-05
1.30003e-05
1.3018e-05
1.30373e-05
1.30521e-05
1.30554e-05
1.30426e-05
1.30131e-05
9.68507e-06
1.12386e-05
1.1356e-05
1.14669e-05
1.15713e-05
1.16697e-05
1.17622e-05
1.18491e-05
1.19309e-05
1.20078e-05
1.20801e-05
1.21481e-05
1.22122e-05
1.22724e-05
1.23291e-05
1.23824e-05
1.24325e-05
1.24795e-05
1.25235e-05
1.25647e-05
1.26032e-05
1.26392e-05
1.26729e-05
1.27046e-05
1.27347e-05
1.27633e-05
1.27907e-05
1.28169e-05
1.28417e-05
1.28681e-05
1.29391e-05
1.29439e-05
1.29457e-05
1.29477e-05
1.29501e-05
1.29532e-05
1.29567e-05
1.29604e-05
1.29641e-05
1.29677e-05
1.29715e-05
1.29767e-05
1.2985e-05
1.29978e-05
1.30151e-05
1.30337e-05
1.30477e-05
1.30504e-05
1.30374e-05
1.30082e-05
9.68059e-06
1.12351e-05
1.13526e-05
1.14635e-05
1.1568e-05
1.16664e-05
1.1759e-05
1.18461e-05
1.19279e-05
1.20049e-05
1.20773e-05
1.21454e-05
1.22095e-05
1.22698e-05
1.23266e-05
1.238e-05
1.24301e-05
1.24772e-05
1.25212e-05
1.25625e-05
1.2601e-05
1.2637e-05
1.26708e-05
1.27025e-05
1.27326e-05
1.27613e-05
1.27887e-05
1.28148e-05
1.28397e-05
1.28661e-05
1.29373e-05
1.29421e-05
1.29439e-05
1.29458e-05
1.29482e-05
1.29512e-05
1.29547e-05
1.29584e-05
1.2962e-05
1.29656e-05
1.29694e-05
1.29747e-05
1.2983e-05
1.29957e-05
1.30125e-05
1.30305e-05
1.30437e-05
1.3046e-05
1.30329e-05
1.30041e-05
9.67614e-06
1.12316e-05
1.13491e-05
1.14601e-05
1.15647e-05
1.16632e-05
1.17559e-05
1.1843e-05
1.1925e-05
1.2002e-05
1.20745e-05
1.21427e-05
1.22069e-05
1.22673e-05
1.23241e-05
1.23776e-05
1.24278e-05
1.24749e-05
1.2519e-05
1.25603e-05
1.25988e-05
1.26349e-05
1.26687e-05
1.27005e-05
1.27306e-05
1.27593e-05
1.27867e-05
1.28129e-05
1.28378e-05
1.28642e-05
1.29356e-05
1.29404e-05
1.29422e-05
1.2944e-05
1.29464e-05
1.29494e-05
1.29528e-05
1.29565e-05
1.29601e-05
1.29637e-05
1.29677e-05
1.2973e-05
1.29813e-05
1.29939e-05
1.30103e-05
1.30276e-05
1.30403e-05
1.30422e-05
1.30291e-05
1.30007e-05
9.67174e-06
1.12282e-05
1.13457e-05
1.14568e-05
1.15615e-05
1.16601e-05
1.17528e-05
1.184e-05
1.19221e-05
1.19992e-05
1.20718e-05
1.21401e-05
1.22043e-05
1.22648e-05
1.23217e-05
1.23752e-05
1.24255e-05
1.24726e-05
1.25168e-05
1.25581e-05
1.25967e-05
1.26328e-05
1.26667e-05
1.26985e-05
1.27287e-05
1.27574e-05
1.27849e-05
1.28111e-05
1.2836e-05
1.28625e-05
1.29341e-05
1.29389e-05
1.29406e-05
1.29424e-05
1.29448e-05
1.29477e-05
1.29512e-05
1.29549e-05
1.29585e-05
1.29621e-05
1.29662e-05
1.29716e-05
1.298e-05
1.29924e-05
1.30085e-05
1.30252e-05
1.30373e-05
1.30389e-05
1.3026e-05
1.29981e-05
9.66739e-06
1.12247e-05
1.13424e-05
1.14535e-05
1.15583e-05
1.16569e-05
1.17498e-05
1.18371e-05
1.19192e-05
1.19964e-05
1.20691e-05
1.21375e-05
1.22018e-05
1.22623e-05
1.23193e-05
1.23729e-05
1.24232e-05
1.24704e-05
1.25147e-05
1.2556e-05
1.25947e-05
1.26308e-05
1.26647e-05
1.26966e-05
1.27268e-05
1.27556e-05
1.27831e-05
1.28093e-05
1.28342e-05
1.28608e-05
1.29327e-05
1.29374e-05
1.29391e-05
1.2941e-05
1.29433e-05
1.29463e-05
1.29497e-05
1.29534e-05
1.29571e-05
1.29608e-05
1.2965e-05
1.29705e-05
1.29789e-05
1.29913e-05
1.3007e-05
1.30232e-05
1.30349e-05
1.30362e-05
1.30235e-05
1.29962e-05
9.66311e-06
1.12214e-05
1.13391e-05
1.14503e-05
1.15551e-05
1.16539e-05
1.17468e-05
1.18342e-05
1.19164e-05
1.19937e-05
1.20664e-05
1.21349e-05
1.21993e-05
1.22599e-05
1.2317e-05
1.23706e-05
1.2421e-05
1.24683e-05
1.25126e-05
1.2554e-05
1.25927e-05
1.26289e-05
1.26628e-05
1.26948e-05
1.2725e-05
1.27539e-05
1.27814e-05
1.28077e-05
1.28326e-05
1.28592e-05
1.29314e-05
1.29361e-05
1.29378e-05
1.29397e-05
1.2942e-05
1.2945e-05
1.29485e-05
1.29522e-05
1.2956e-05
1.29598e-05
1.2964e-05
1.29697e-05
1.29782e-05
1.29904e-05
1.30059e-05
1.30217e-05
1.30329e-05
1.30341e-05
1.30217e-05
1.2995e-05
9.65889e-06
1.12181e-05
1.13358e-05
1.14471e-05
1.1552e-05
1.16508e-05
1.17438e-05
1.18313e-05
1.19136e-05
1.1991e-05
1.20638e-05
1.21324e-05
1.21969e-05
1.22576e-05
1.23147e-05
1.23684e-05
1.24188e-05
1.24662e-05
1.25105e-05
1.2552e-05
1.25908e-05
1.2627e-05
1.2661e-05
1.2693e-05
1.27233e-05
1.27522e-05
1.27798e-05
1.28061e-05
1.28311e-05
1.28577e-05
1.29301e-05
1.29349e-05
1.29366e-05
1.29385e-05
1.29409e-05
1.29439e-05
1.29475e-05
1.29513e-05
1.29551e-05
1.2959e-05
1.29634e-05
1.29693e-05
1.29778e-05
1.299e-05
1.30051e-05
1.30205e-05
1.30314e-05
1.30326e-05
1.30205e-05
1.29945e-05
9.65475e-06
1.12148e-05
1.13326e-05
1.14439e-05
1.1549e-05
1.16479e-05
1.1741e-05
1.18285e-05
1.19109e-05
1.19884e-05
1.20613e-05
1.21299e-05
1.21945e-05
1.22552e-05
1.23124e-05
1.23662e-05
1.24168e-05
1.24642e-05
1.25086e-05
1.25501e-05
1.25889e-05
1.26252e-05
1.26593e-05
1.26913e-05
1.27217e-05
1.27506e-05
1.27783e-05
1.28046e-05
1.28297e-05
1.28563e-05
1.2929e-05
1.29338e-05
1.29355e-05
1.29375e-05
1.29399e-05
1.2943e-05
1.29466e-05
1.29505e-05
1.29544e-05
1.29585e-05
1.2963e-05
1.29691e-05
1.29777e-05
1.29898e-05
1.30048e-05
1.30199e-05
1.30305e-05
1.30317e-05
1.30199e-05
1.29947e-05
9.65068e-06
1.12116e-05
1.13295e-05
1.14409e-05
1.1546e-05
1.1645e-05
1.17381e-05
1.18258e-05
1.19082e-05
1.19858e-05
1.20588e-05
1.21275e-05
1.21921e-05
1.2253e-05
1.23103e-05
1.23641e-05
1.24147e-05
1.24622e-05
1.25067e-05
1.25483e-05
1.25871e-05
1.26235e-05
1.26576e-05
1.26897e-05
1.27201e-05
1.27491e-05
1.27768e-05
1.28032e-05
1.28283e-05
1.28551e-05
1.2928e-05
1.29328e-05
1.29346e-05
1.29366e-05
1.29391e-05
1.29423e-05
1.29459e-05
1.29499e-05
1.2954e-05
1.29582e-05
1.2963e-05
1.29692e-05
1.2978e-05
1.29901e-05
1.30048e-05
1.30196e-05
1.30301e-05
1.30313e-05
1.302e-05
1.29956e-05
9.6467e-06
1.12085e-05
1.13265e-05
1.14379e-05
1.1543e-05
1.16421e-05
1.17354e-05
1.18231e-05
1.19056e-05
1.19833e-05
1.20564e-05
1.21251e-05
1.21899e-05
1.22508e-05
1.23081e-05
1.23621e-05
1.24127e-05
1.24603e-05
1.25048e-05
1.25465e-05
1.25854e-05
1.26218e-05
1.2656e-05
1.26882e-05
1.27187e-05
1.27477e-05
1.27755e-05
1.28019e-05
1.28271e-05
1.28539e-05
1.29271e-05
1.29319e-05
1.29338e-05
1.29359e-05
1.29385e-05
1.29417e-05
1.29455e-05
1.29495e-05
1.29538e-05
1.29582e-05
1.29631e-05
1.29696e-05
1.29785e-05
1.29906e-05
1.30053e-05
1.30199e-05
1.30301e-05
1.30315e-05
1.30208e-05
1.29972e-05
9.6428e-06
1.12054e-05
1.13235e-05
1.1435e-05
1.15402e-05
1.16393e-05
1.17326e-05
1.18205e-05
1.19031e-05
1.19808e-05
1.2054e-05
1.21228e-05
1.21876e-05
1.22487e-05
1.23061e-05
1.23601e-05
1.24108e-05
1.24584e-05
1.2503e-05
1.25447e-05
1.25837e-05
1.26202e-05
1.26545e-05
1.26867e-05
1.27173e-05
1.27464e-05
1.27742e-05
1.28007e-05
1.28259e-05
1.28528e-05
1.29263e-05
1.29312e-05
1.29331e-05
1.29352e-05
1.29379e-05
1.29413e-05
1.29452e-05
1.29494e-05
1.29538e-05
1.29584e-05
1.29636e-05
1.29702e-05
1.29794e-05
1.29915e-05
1.30061e-05
1.30205e-05
1.30308e-05
1.30323e-05
1.30221e-05
1.29995e-05
9.639e-06
1.12025e-05
1.13205e-05
1.14321e-05
1.15374e-05
1.16366e-05
1.173e-05
1.18179e-05
1.19006e-05
1.19784e-05
1.20517e-05
1.21206e-05
1.21855e-05
1.22466e-05
1.23041e-05
1.23581e-05
1.24089e-05
1.24566e-05
1.25013e-05
1.25431e-05
1.25821e-05
1.26187e-05
1.2653e-05
1.26853e-05
1.27159e-05
1.27451e-05
1.2773e-05
1.27996e-05
1.28249e-05
1.28518e-05
1.29256e-05
1.29305e-05
1.29325e-05
1.29347e-05
1.29375e-05
1.2941e-05
1.2945e-05
1.29494e-05
1.2954e-05
1.29588e-05
1.29643e-05
1.29712e-05
1.29805e-05
1.29928e-05
1.30073e-05
1.30217e-05
1.30319e-05
1.30337e-05
1.30241e-05
1.30025e-05
9.63529e-06
1.11996e-05
1.13177e-05
1.14293e-05
1.15347e-05
1.1634e-05
1.17274e-05
1.18154e-05
1.18982e-05
1.19761e-05
1.20494e-05
1.21184e-05
1.21834e-05
1.22446e-05
1.23021e-05
1.23563e-05
1.24071e-05
1.24549e-05
1.24996e-05
1.25415e-05
1.25806e-05
1.26172e-05
1.26516e-05
1.2684e-05
1.27146e-05
1.27439e-05
1.27718e-05
1.27985e-05
1.28239e-05
1.28509e-05
1.29249e-05
1.29299e-05
1.2932e-05
1.29344e-05
1.29373e-05
1.29409e-05
1.2945e-05
1.29496e-05
1.29544e-05
1.29594e-05
1.29652e-05
1.29724e-05
1.2982e-05
1.29944e-05
1.30089e-05
1.30232e-05
1.30335e-05
1.30357e-05
1.30268e-05
1.30061e-05
9.63168e-06
1.11967e-05
1.13149e-05
1.14266e-05
1.1532e-05
1.16314e-05
1.17249e-05
1.1813e-05
1.18958e-05
1.19738e-05
1.20472e-05
1.21163e-05
1.21814e-05
1.22426e-05
1.23002e-05
1.23545e-05
1.24054e-05
1.24532e-05
1.2498e-05
1.25399e-05
1.25791e-05
1.26158e-05
1.26502e-05
1.26827e-05
1.27134e-05
1.27428e-05
1.27708e-05
1.27975e-05
1.2823e-05
1.28501e-05
1.29243e-05
1.29294e-05
1.29316e-05
1.29341e-05
1.29371e-05
1.29409e-05
1.29452e-05
1.29499e-05
1.29549e-05
1.29603e-05
1.29663e-05
1.29739e-05
1.29837e-05
1.29963e-05
1.30109e-05
1.30252e-05
1.30356e-05
1.30382e-05
1.303e-05
1.30104e-05
9.62817e-06
1.1194e-05
1.13122e-05
1.1424e-05
1.15294e-05
1.16289e-05
1.17225e-05
1.18106e-05
1.18935e-05
1.19716e-05
1.20451e-05
1.21142e-05
1.21794e-05
1.22407e-05
1.22984e-05
1.23527e-05
1.24037e-05
1.24516e-05
1.24965e-05
1.25384e-05
1.25777e-05
1.26145e-05
1.2649e-05
1.26815e-05
1.27123e-05
1.27417e-05
1.27698e-05
1.27966e-05
1.28221e-05
1.28494e-05
1.29239e-05
1.2929e-05
1.29313e-05
1.29339e-05
1.29371e-05
1.2941e-05
1.29455e-05
1.29505e-05
1.29557e-05
1.29613e-05
1.29677e-05
1.29756e-05
1.29857e-05
1.29985e-05
1.30132e-05
1.30277e-05
1.30382e-05
1.30412e-05
1.30339e-05
1.30154e-05
9.62477e-06
1.11913e-05
1.13096e-05
1.14214e-05
1.15269e-05
1.16264e-05
1.17201e-05
1.18083e-05
1.18913e-05
1.19695e-05
1.2043e-05
1.21123e-05
1.21775e-05
1.22389e-05
1.22966e-05
1.2351e-05
1.24021e-05
1.245e-05
1.2495e-05
1.2537e-05
1.25764e-05
1.26132e-05
1.26478e-05
1.26803e-05
1.27112e-05
1.27407e-05
1.27689e-05
1.27958e-05
1.28214e-05
1.28487e-05
1.29234e-05
1.29287e-05
1.29311e-05
1.29339e-05
1.29372e-05
1.29412e-05
1.29459e-05
1.29511e-05
1.29566e-05
1.29626e-05
1.29693e-05
1.29775e-05
1.2988e-05
1.3001e-05
1.30159e-05
1.30305e-05
1.30413e-05
1.30448e-05
1.30383e-05
1.3021e-05
9.62147e-06
1.11887e-05
1.13071e-05
1.14189e-05
1.15245e-05
1.16241e-05
1.17178e-05
1.18061e-05
1.18892e-05
1.19674e-05
1.2041e-05
1.21103e-05
1.21756e-05
1.22371e-05
1.22949e-05
1.23494e-05
1.24005e-05
1.24485e-05
1.24935e-05
1.25357e-05
1.25751e-05
1.2612e-05
1.26466e-05
1.26793e-05
1.27102e-05
1.27398e-05
1.2768e-05
1.2795e-05
1.28207e-05
1.28481e-05
1.29231e-05
1.29285e-05
1.2931e-05
1.29339e-05
1.29374e-05
1.29416e-05
1.29465e-05
1.29519e-05
1.29577e-05
1.2964e-05
1.2971e-05
1.29796e-05
1.29905e-05
1.30038e-05
1.30189e-05
1.30337e-05
1.30449e-05
1.30489e-05
1.30433e-05
1.30273e-05
9.61828e-06
1.11862e-05
1.13046e-05
1.14165e-05
1.15222e-05
1.16218e-05
1.17156e-05
1.1804e-05
1.18871e-05
1.19654e-05
1.20391e-05
1.21085e-05
1.21738e-05
1.22354e-05
1.22933e-05
1.23478e-05
1.2399e-05
1.24471e-05
1.24922e-05
1.25344e-05
1.25738e-05
1.26108e-05
1.26455e-05
1.26782e-05
1.27093e-05
1.27389e-05
1.27672e-05
1.27943e-05
1.28201e-05
1.28476e-05
1.29228e-05
1.29283e-05
1.29309e-05
1.2934e-05
1.29376e-05
1.2942e-05
1.29471e-05
1.29528e-05
1.29589e-05
1.29655e-05
1.2973e-05
1.2982e-05
1.29932e-05
1.30068e-05
1.30223e-05
1.30373e-05
1.30489e-05
1.30535e-05
1.30489e-05
1.30342e-05
9.61519e-06
1.11838e-05
1.13023e-05
1.14142e-05
1.15199e-05
1.16196e-05
1.17135e-05
1.18019e-05
1.18851e-05
1.19634e-05
1.20372e-05
1.21067e-05
1.21721e-05
1.22337e-05
1.22917e-05
1.23463e-05
1.23976e-05
1.24457e-05
1.24909e-05
1.25331e-05
1.25726e-05
1.26097e-05
1.26445e-05
1.26773e-05
1.27084e-05
1.27381e-05
1.27665e-05
1.27936e-05
1.28195e-05
1.28471e-05
1.29226e-05
1.29282e-05
1.29309e-05
1.29341e-05
1.29379e-05
1.29426e-05
1.29479e-05
1.29538e-05
1.29602e-05
1.29672e-05
1.2975e-05
1.29845e-05
1.29961e-05
1.30101e-05
1.30259e-05
1.30412e-05
1.30532e-05
1.30586e-05
1.3055e-05
1.30417e-05
9.61222e-06
1.11815e-05
1.13e-05
1.1412e-05
1.15177e-05
1.16175e-05
1.17114e-05
1.17999e-05
1.18831e-05
1.19616e-05
1.20354e-05
1.21049e-05
1.21704e-05
1.22321e-05
1.22902e-05
1.23448e-05
1.23962e-05
1.24444e-05
1.24896e-05
1.25319e-05
1.25715e-05
1.26086e-05
1.26435e-05
1.26764e-05
1.27075e-05
1.27373e-05
1.27658e-05
1.2793e-05
1.2819e-05
1.28467e-05
1.29224e-05
1.29281e-05
1.2931e-05
1.29343e-05
1.29383e-05
1.29432e-05
1.29487e-05
1.29549e-05
1.29616e-05
1.29689e-05
1.29772e-05
1.29871e-05
1.29992e-05
1.30136e-05
1.30297e-05
1.30455e-05
1.3058e-05
1.30641e-05
1.30616e-05
1.30497e-05
9.60935e-06
1.11793e-05
1.12978e-05
1.14098e-05
1.15156e-05
1.16154e-05
1.17094e-05
1.17979e-05
1.18813e-05
1.19597e-05
1.20337e-05
1.21033e-05
1.21688e-05
1.22306e-05
1.22887e-05
1.23434e-05
1.23948e-05
1.24431e-05
1.24884e-05
1.25308e-05
1.25704e-05
1.26076e-05
1.26425e-05
1.26755e-05
1.27068e-05
1.27366e-05
1.27651e-05
1.27925e-05
1.28185e-05
1.28463e-05
1.29222e-05
1.2928e-05
1.29311e-05
1.29346e-05
1.29388e-05
1.29438e-05
1.29496e-05
1.29561e-05
1.29631e-05
1.29708e-05
1.29795e-05
1.29898e-05
1.30024e-05
1.30173e-05
1.30338e-05
1.305e-05
1.3063e-05
1.30699e-05
1.30685e-05
1.30582e-05
9.6066e-06
1.11771e-05
1.12957e-05
1.14077e-05
1.15136e-05
1.16134e-05
1.17075e-05
1.1796e-05
1.18795e-05
1.1958e-05
1.2032e-05
1.21016e-05
1.21673e-05
1.22291e-05
1.22873e-05
1.23421e-05
1.23936e-05
1.24419e-05
1.24872e-05
1.25297e-05
1.25694e-05
1.26067e-05
1.26416e-05
1.26747e-05
1.2706e-05
1.27359e-05
1.27645e-05
1.2792e-05
1.28181e-05
1.2846e-05
1.29221e-05
1.2928e-05
1.29312e-05
1.29349e-05
1.29393e-05
1.29445e-05
1.29506e-05
1.29573e-05
1.29647e-05
1.29727e-05
1.29819e-05
1.29927e-05
1.30057e-05
1.30211e-05
1.3038e-05
1.30547e-05
1.30683e-05
1.30761e-05
1.30759e-05
1.30671e-05
9.60396e-06
1.11751e-05
1.12936e-05
1.14057e-05
1.15116e-05
1.16115e-05
1.17056e-05
1.17942e-05
1.18777e-05
1.19563e-05
1.20304e-05
1.21001e-05
1.21658e-05
1.22277e-05
1.22859e-05
1.23408e-05
1.23923e-05
1.24407e-05
1.24861e-05
1.25286e-05
1.25684e-05
1.26057e-05
1.26408e-05
1.26739e-05
1.27053e-05
1.27353e-05
1.2764e-05
1.27915e-05
1.28177e-05
1.28457e-05
1.2922e-05
1.2928e-05
1.29314e-05
1.29352e-05
1.29398e-05
1.29452e-05
1.29515e-05
1.29586e-05
1.29663e-05
1.29747e-05
1.29843e-05
1.29956e-05
1.30091e-05
1.3025e-05
1.30424e-05
1.30596e-05
1.30739e-05
1.30825e-05
1.30836e-05
1.30764e-05
9.60143e-06
1.11731e-05
1.12917e-05
1.14038e-05
1.15097e-05
1.16097e-05
1.17038e-05
1.17925e-05
1.1876e-05
1.19547e-05
1.20288e-05
1.20986e-05
1.21644e-05
1.22263e-05
1.22846e-05
1.23395e-05
1.23911e-05
1.24396e-05
1.24851e-05
1.25276e-05
1.25675e-05
1.26049e-05
1.264e-05
1.26731e-05
1.27046e-05
1.27347e-05
1.27635e-05
1.2791e-05
1.28173e-05
1.28454e-05
1.29219e-05
1.29281e-05
1.29316e-05
1.29355e-05
1.29403e-05
1.2946e-05
1.29525e-05
1.29598e-05
1.29679e-05
1.29767e-05
1.29868e-05
1.29985e-05
1.30126e-05
1.30289e-05
1.30469e-05
1.30646e-05
1.30796e-05
1.30892e-05
1.30915e-05
1.3086e-05
9.59901e-06
1.11712e-05
1.12898e-05
1.1402e-05
1.1508e-05
1.16079e-05
1.17021e-05
1.17908e-05
1.18744e-05
1.19531e-05
1.20273e-05
1.20972e-05
1.2163e-05
1.2225e-05
1.22834e-05
1.23383e-05
1.239e-05
1.24385e-05
1.2484e-05
1.25267e-05
1.25666e-05
1.2604e-05
1.26392e-05
1.26724e-05
1.2704e-05
1.27341e-05
1.2763e-05
1.27906e-05
1.2817e-05
1.28451e-05
1.29218e-05
1.29281e-05
1.29317e-05
1.29359e-05
1.29408e-05
1.29467e-05
1.29535e-05
1.29611e-05
1.29695e-05
1.29787e-05
1.29892e-05
1.30015e-05
1.3016e-05
1.30329e-05
1.30514e-05
1.30697e-05
1.30854e-05
1.3096e-05
1.30996e-05
1.30959e-05
9.59671e-06
1.11694e-05
1.12881e-05
1.14003e-05
1.15062e-05
1.16062e-05
1.17005e-05
1.17892e-05
1.18729e-05
1.19516e-05
1.20259e-05
1.20958e-05
1.21617e-05
1.22237e-05
1.22822e-05
1.23372e-05
1.23889e-05
1.24375e-05
1.24831e-05
1.25257e-05
1.25657e-05
1.26032e-05
1.26385e-05
1.26717e-05
1.27034e-05
1.27336e-05
1.27625e-05
1.27902e-05
1.28167e-05
1.28449e-05
1.29218e-05
1.29282e-05
1.29319e-05
1.29362e-05
1.29413e-05
1.29474e-05
1.29545e-05
1.29623e-05
1.2971e-05
1.29807e-05
1.29916e-05
1.30044e-05
1.30194e-05
1.30369e-05
1.30559e-05
1.30748e-05
1.30913e-05
1.31028e-05
1.31078e-05
1.31058e-05
9.59452e-06
1.11677e-05
1.12864e-05
1.13986e-05
1.15046e-05
1.16046e-05
1.16989e-05
1.17877e-05
1.18714e-05
1.19502e-05
1.20245e-05
1.20945e-05
1.21604e-05
1.22225e-05
1.2281e-05
1.23361e-05
1.23879e-05
1.24365e-05
1.24821e-05
1.25249e-05
1.25649e-05
1.26024e-05
1.26377e-05
1.26711e-05
1.27028e-05
1.2733e-05
1.2762e-05
1.27898e-05
1.28163e-05
1.28447e-05
1.29217e-05
1.29282e-05
1.29321e-05
1.29365e-05
1.29418e-05
1.29481e-05
1.29554e-05
1.29635e-05
1.29726e-05
1.29826e-05
1.2994e-05
1.30072e-05
1.30228e-05
1.30408e-05
1.30603e-05
1.30799e-05
1.30971e-05
1.31097e-05
1.3116e-05
1.31157e-05
9.59245e-06
1.11661e-05
1.12848e-05
1.13971e-05
1.15031e-05
1.16031e-05
1.16974e-05
1.17863e-05
1.187e-05
1.19488e-05
1.20232e-05
1.20932e-05
1.21592e-05
1.22213e-05
1.22799e-05
1.2335e-05
1.23869e-05
1.24355e-05
1.24812e-05
1.2524e-05
1.25641e-05
1.26017e-05
1.26371e-05
1.26705e-05
1.27022e-05
1.27325e-05
1.27616e-05
1.27894e-05
1.2816e-05
1.28445e-05
1.29216e-05
1.29282e-05
1.29322e-05
1.29368e-05
1.29423e-05
1.29488e-05
1.29562e-05
1.29647e-05
1.2974e-05
1.29844e-05
1.29962e-05
1.30099e-05
1.3026e-05
1.30445e-05
1.30647e-05
1.30848e-05
1.31028e-05
1.31164e-05
1.31241e-05
1.31255e-05
9.59051e-06
1.11646e-05
1.12833e-05
1.13956e-05
1.15016e-05
1.16017e-05
1.1696e-05
1.17849e-05
1.18686e-05
1.19475e-05
1.20219e-05
1.2092e-05
1.2158e-05
1.22202e-05
1.22788e-05
1.2334e-05
1.23859e-05
1.24346e-05
1.24803e-05
1.25232e-05
1.25633e-05
1.2601e-05
1.26364e-05
1.26699e-05
1.27017e-05
1.2732e-05
1.27611e-05
1.27891e-05
1.28157e-05
1.28442e-05
1.29215e-05
1.29282e-05
1.29324e-05
1.29371e-05
1.29427e-05
1.29494e-05
1.29571e-05
1.29657e-05
1.29753e-05
1.29861e-05
1.29983e-05
1.30125e-05
1.30291e-05
1.30481e-05
1.30688e-05
1.30896e-05
1.31083e-05
1.31229e-05
1.31319e-05
1.31351e-05
9.58867e-06
1.11632e-05
1.1282e-05
1.13942e-05
1.15003e-05
1.16003e-05
1.16947e-05
1.17836e-05
1.18673e-05
1.19463e-05
1.20207e-05
1.20908e-05
1.21569e-05
1.22192e-05
1.22778e-05
1.2333e-05
1.2385e-05
1.24337e-05
1.24795e-05
1.25224e-05
1.25626e-05
1.26003e-05
1.26358e-05
1.26693e-05
1.27011e-05
1.27315e-05
1.27607e-05
1.27887e-05
1.28154e-05
1.2844e-05
1.29214e-05
1.29282e-05
1.29324e-05
1.29373e-05
1.2943e-05
1.29499e-05
1.29578e-05
1.29667e-05
1.29766e-05
1.29876e-05
1.30002e-05
1.30149e-05
1.3032e-05
1.30515e-05
1.30727e-05
1.30941e-05
1.31135e-05
1.31291e-05
1.31394e-05
1.31444e-05
9.58693e-06
1.11619e-05
1.12806e-05
1.13929e-05
1.1499e-05
1.1599e-05
1.16934e-05
1.17823e-05
1.18661e-05
1.19451e-05
1.20195e-05
1.20897e-05
1.21558e-05
1.22181e-05
1.22768e-05
1.23321e-05
1.23841e-05
1.24329e-05
1.24787e-05
1.25216e-05
1.25619e-05
1.25996e-05
1.26351e-05
1.26687e-05
1.27006e-05
1.27311e-05
1.27603e-05
1.27883e-05
1.28151e-05
1.28437e-05
1.29212e-05
1.29281e-05
1.29325e-05
1.29374e-05
1.29433e-05
1.29503e-05
1.29584e-05
1.29675e-05
1.29777e-05
1.2989e-05
1.3002e-05
1.3017e-05
1.30346e-05
1.30546e-05
1.30763e-05
1.30982e-05
1.31184e-05
1.31349e-05
1.31465e-05
1.31531e-05
9.58527e-06
1.11606e-05
1.12794e-05
1.13917e-05
1.14977e-05
1.15978e-05
1.16922e-05
1.17811e-05
1.1865e-05
1.1944e-05
1.20184e-05
1.20886e-05
1.21548e-05
1.22171e-05
1.22759e-05
1.23312e-05
1.23832e-05
1.24321e-05
1.24779e-05
1.25209e-05
1.25612e-05
1.2599e-05
1.26345e-05
1.26681e-05
1.27001e-05
1.27306e-05
1.27599e-05
1.27879e-05
1.28148e-05
1.28435e-05
1.29211e-05
1.2928e-05
1.29324e-05
1.29375e-05
1.29435e-05
1.29506e-05
1.29589e-05
1.29682e-05
1.29786e-05
1.29903e-05
1.30035e-05
1.3019e-05
1.30369e-05
1.30573e-05
1.30795e-05
1.3102e-05
1.31228e-05
1.31401e-05
1.31529e-05
1.31612e-05
9.58368e-06
1.11594e-05
1.12782e-05
1.13905e-05
1.14966e-05
1.15967e-05
1.1691e-05
1.178e-05
1.18638e-05
1.19429e-05
1.20174e-05
1.20876e-05
1.21538e-05
1.22162e-05
1.2275e-05
1.23303e-05
1.23824e-05
1.24313e-05
1.24771e-05
1.25202e-05
1.25605e-05
1.25983e-05
1.26339e-05
1.26676e-05
1.26995e-05
1.27301e-05
1.27594e-05
1.27875e-05
1.28144e-05
1.28432e-05
1.29208e-05
1.29279e-05
1.29324e-05
1.29375e-05
1.29436e-05
1.29509e-05
1.29592e-05
1.29687e-05
1.29793e-05
1.29912e-05
1.30048e-05
1.30206e-05
1.30389e-05
1.30597e-05
1.30823e-05
1.31052e-05
1.31266e-05
1.31448e-05
1.31587e-05
1.31686e-05
9.58213e-06
1.11582e-05
1.1277e-05
1.13893e-05
1.14954e-05
1.15955e-05
1.16899e-05
1.17789e-05
1.18628e-05
1.19418e-05
1.20164e-05
1.20866e-05
1.21529e-05
1.22153e-05
1.22741e-05
1.23295e-05
1.23815e-05
1.24305e-05
1.24764e-05
1.25195e-05
1.25598e-05
1.25977e-05
1.26333e-05
1.2667e-05
1.2699e-05
1.27296e-05
1.2759e-05
1.27871e-05
1.28141e-05
1.28428e-05
1.29206e-05
1.29276e-05
1.29322e-05
1.29374e-05
1.29436e-05
1.2951e-05
1.29595e-05
1.29691e-05
1.29799e-05
1.2992e-05
1.30058e-05
1.30219e-05
1.30405e-05
1.30616e-05
1.30846e-05
1.31079e-05
1.31299e-05
1.31487e-05
1.31636e-05
1.31749e-05
9.58061e-06
1.11571e-05
1.12759e-05
1.13882e-05
1.14944e-05
1.15945e-05
1.16889e-05
1.17779e-05
1.18617e-05
1.19408e-05
1.20154e-05
1.20857e-05
1.21519e-05
1.22144e-05
1.22732e-05
1.23286e-05
1.23808e-05
1.24297e-05
1.24757e-05
1.25188e-05
1.25592e-05
1.25971e-05
1.26327e-05
1.26664e-05
1.26985e-05
1.27291e-05
1.27585e-05
1.27867e-05
1.28137e-05
1.28425e-05
1.29203e-05
1.29274e-05
1.2932e-05
1.29373e-05
1.29435e-05
1.2951e-05
1.29596e-05
1.29693e-05
1.29802e-05
1.29925e-05
1.30066e-05
1.30228e-05
1.30417e-05
1.30631e-05
1.30863e-05
1.311e-05
1.31323e-05
1.31518e-05
1.31676e-05
1.31802e-05
9.57912e-06
1.11559e-05
1.12748e-05
1.13872e-05
1.14933e-05
1.15934e-05
1.16878e-05
1.17768e-05
1.18608e-05
1.19399e-05
1.20144e-05
1.20848e-05
1.2151e-05
1.22135e-05
1.22724e-05
1.23278e-05
1.238e-05
1.2429e-05
1.2475e-05
1.25181e-05
1.25585e-05
1.25964e-05
1.26321e-05
1.26659e-05
1.2698e-05
1.27286e-05
1.2758e-05
1.27862e-05
1.28132e-05
1.28421e-05
1.29199e-05
1.29271e-05
1.29317e-05
1.2937e-05
1.29433e-05
1.29508e-05
1.29595e-05
1.29693e-05
1.29803e-05
1.29927e-05
1.30069e-05
1.30234e-05
1.30425e-05
1.3064e-05
1.30875e-05
1.31114e-05
1.3134e-05
1.3154e-05
1.31705e-05
1.31842e-05
9.57767e-06
1.11548e-05
1.12737e-05
1.13861e-05
1.14923e-05
1.15924e-05
1.16868e-05
1.17759e-05
1.18598e-05
1.19389e-05
1.20135e-05
1.20839e-05
1.21502e-05
1.22127e-05
1.22716e-05
1.23271e-05
1.23792e-05
1.24283e-05
1.24743e-05
1.25174e-05