/*--------------------------------*- C++ -*----------------------------------*\
  =========                 |
  \\      /  F ield         | OpenFOAM: The Open Source CFD Toolbox
   \\    /   O peration     | Website:  https://openfoam.org
    \\  /    A nd           | Version:  9
     \\/     M anipulation  |
\*---------------------------------------------------------------------------*/
FoamFile
{
    format      ascii;
    class       volVectorField;
    location    "0.12";
    object      U;
}
// * * * * * * * * * * * * * * * * * * * * * * * * * * * * * * * * * * * * * //

dimensions      [0 1 -1 0 0 0 0];

internalField   nonuniform List<vector> 
5000
(
(-0.115798 0 0.0100187)
(-0.115934 0 0.0171684)
(-0.116009 0 0.0197339)
(-0.116125 0 0.0214905)
(-0.116261 0 0.0228)
(-0.11641 0 0.0237596)
(-0.116571 0 0.0244159)
(-0.116747 0 0.0247702)
(-0.116937 0 0.0248031)
(-0.117144 0 0.0244923)
(-0.117368 0 0.02382)
(-0.117614 0 0.022777)
(-0.117884 0 0.0213662)
(-0.118183 0 0.0196074)
(-0.118516 0 0.0175419)
(-0.118892 0 0.0152359)
(-0.119318 0 0.0127805)
(-0.119806 0 0.0102865)
(-0.120364 0 0.00787114)
(-0.121005 0 0.00563739)
(-0.121738 0 0.00364567)
(-0.122571 0 0.00188606)
(-0.123511 0 0.000260156)
(-0.124565 0 -0.00141424)
(-0.125738 0 -0.00336573)
(-0.127041 0 -0.00579961)
(-0.128493 0 -0.0088125)
(-0.130119 0 -0.0123254)
(-0.131952 0 -0.016075)
(-0.13402 0 -0.0196852)
(-0.136559 0 -0.0230606)
(-0.139574 0 -0.0258803)
(-0.142792 0 -0.0281293)
(-0.146182 0 -0.0304338)
(-0.149737 0 -0.0333297)
(-0.153458 0 -0.0370296)
(-0.157358 0 -0.0413684)
(-0.161436 0 -0.0458867)
(-0.165669 0 -0.0499921)
(-0.169973 0 -0.0532233)
(-0.174177 0 -0.0557207)
(-0.17801 0 -0.0588863)
(-0.181183 0 -0.0658093)
(-0.183603 0 -0.0806083)
(-0.185677 0 -0.10604)
(-0.18852 0 -0.140039)
(-0.193771 0 -0.173698)
(-0.202882 0 -0.193628)
(-0.216217 0 -0.188626)
(-0.2328 0 -0.155693)
(-0.114284 0 0.0101719)
(-0.114417 0 0.0174472)
(-0.114488 0 0.0200591)
(-0.114601 0 0.0218456)
(-0.114733 0 0.0231765)
(-0.114877 0 0.0241528)
(-0.115034 0 0.0248237)
(-0.115204 0 0.0251921)
(-0.115388 0 0.0252394)
(-0.115587 0 0.0249443)
(-0.115804 0 0.0242899)
(-0.116041 0 0.0232678)
(-0.1163 0 0.0218821)
(-0.116587 0 0.0201537)
(-0.116907 0 0.0181253)
(-0.117267 0 0.015864)
(-0.117674 0 0.0134614)
(-0.118139 0 0.011028)
(-0.118672 0 0.00868031)
(-0.119281 0 0.00651892)
(-0.119977 0 0.00460166)
(-0.120768 0 0.00291582)
(-0.121658 0 0.00136113)
(-0.122653 0 -0.000244574)
(-0.12376 0 -0.00212736)
(-0.124988 0 -0.00448772)
(-0.126355 0 -0.00741676)
(-0.127883 0 -0.0108315)
(-0.129603 0 -0.0144684)
(-0.131541 0 -0.0179558)
(-0.133914 0 -0.021196)
(-0.136724 0 -0.0238799)
(-0.139715 0 -0.0260092)
(-0.142853 0 -0.0282039)
(-0.146133 0 -0.0309916)
(-0.149555 0 -0.0345805)
(-0.153128 0 -0.0388092)
(-0.156852 0 -0.0432323)
(-0.160703 0 -0.0472835)
(-0.164605 0 -0.0505439)
(-0.168394 0 -0.0532056)
(-0.171822 0 -0.0566986)
(-0.17463 0 -0.064051)
(-0.17676 0 -0.0791622)
(-0.178637 0 -0.104412)
(-0.181339 0 -0.137356)
(-0.186381 0 -0.168997)
(-0.195001 0 -0.186371)
(-0.20735 0 -0.179053)
(-0.22238 0 -0.144658)
(-0.112726 0 0.0103187)
(-0.112857 0 0.0177158)
(-0.112923 0 0.020373)
(-0.113033 0 0.0221886)
(-0.113161 0 0.0235402)
(-0.1133 0 0.0245321)
(-0.113452 0 0.0252164)
(-0.113616 0 0.0255975)
(-0.113794 0 0.025658)
(-0.113986 0 0.025377)
(-0.114194 0 0.0247387)
(-0.114422 0 0.0237357)
(-0.114671 0 0.022373)
(-0.114945 0 0.0206731)
(-0.115251 0 0.0186793)
(-0.115595 0 0.01646)
(-0.115983 0 0.0141072)
(-0.116426 0 0.0117313)
(-0.116931 0 0.00944748)
(-0.11751 0 0.0073546)
(-0.118169 0 0.00550775)
(-0.118916 0 0.00389158)
(-0.119756 0 0.00240401)
(-0.120693 0 0.000862909)
(-0.121733 0 -0.000955453)
(-0.122885 0 -0.00324723)
(-0.124165 0 -0.00609851)
(-0.125595 0 -0.00942293)
(-0.127201 0 -0.012957)
(-0.129008 0 -0.0163339)
(-0.131215 0 -0.0194543)
(-0.133821 0 -0.0220206)
(-0.136583 0 -0.024049)
(-0.139472 0 -0.0261528)
(-0.142479 0 -0.0288509)
(-0.145606 0 -0.0323461)
(-0.148859 0 -0.0364801)
(-0.152237 0 -0.0408202)
(-0.155714 0 -0.0448269)
(-0.159214 0 -0.0481233)
(-0.162584 0 -0.0509517)
(-0.165595 0 -0.0547648)
(-0.168023 0 -0.062522)
(-0.169844 0 -0.0779011)
(-0.171497 0 -0.102924)
(-0.174017 0 -0.134814)
(-0.178783 0 -0.16455)
(-0.18683 0 -0.179622)
(-0.198133 0 -0.17034)
(-0.211595 0 -0.13482)
(-0.111129 0 0.0104589)
(-0.111258 0 0.0179745)
(-0.11132 0 0.0206761)
(-0.111425 0 0.0225203)
(-0.111549 0 0.0238918)
(-0.111684 0 0.0248986)
(-0.11183 0 0.0255954)
(-0.111989 0 0.0259884)
(-0.11216 0 0.0260608)
(-0.112345 0 0.0257927)
(-0.112545 0 0.025169)
(-0.112762 0 0.0241833)
(-0.113 0 0.0228419)
(-0.113263 0 0.021168)
(-0.113554 0 0.0192065)
(-0.113881 0 0.0170262)
(-0.114249 0 0.0147199)
(-0.114669 0 0.0123975)
(-0.115148 0 0.0101734)
(-0.115694 0 0.00814437)
(-0.116316 0 0.006363)
(-0.117019 0 0.00481143)
(-0.117808 0 0.00338594)
(-0.118686 0 0.00190443)
(-0.11966 0 0.00014544)
(-0.120737 0 -0.0020831)
(-0.121931 0 -0.00486274)
(-0.123262 0 -0.00810413)
(-0.124756 0 -0.0115444)
(-0.126432 0 -0.0148212)
(-0.128475 0 -0.0178349)
(-0.130878 0 -0.0203)
(-0.133415 0 -0.0222449)
(-0.136055 0 -0.0242767)
(-0.138792 0 -0.0269048)
(-0.141625 0 -0.0303262)
(-0.144559 0 -0.0343829)
(-0.147593 0 -0.0386537)
(-0.150699 0 -0.0426243)
(-0.153803 0 -0.0459608)
(-0.156759 0 -0.0489555)
(-0.159356 0 -0.0530822)
(-0.161395 0 -0.0612266)
(-0.162888 0 -0.0768436)
(-0.164284 0 -0.101613)
(-0.166574 0 -0.132468)
(-0.171005 0 -0.160422)
(-0.17842 0 -0.173442)
(-0.188639 0 -0.162521)
(-0.200533 0 -0.12619)
(-0.109497 0 0.0105929)
(-0.109623 0 0.0182233)
(-0.109681 0 0.0209686)
(-0.109783 0 0.0228409)
(-0.109903 0 0.0242318)
(-0.110032 0 0.0252529)
(-0.110173 0 0.0259616)
(-0.110326 0 0.0263656)
(-0.11049 0 0.026449)
(-0.110668 0 0.0261927)
(-0.110859 0 0.0255825)
(-0.111067 0 0.0246128)
(-0.111294 0 0.0232909)
(-0.111544 0 0.0216412)
(-0.11182 0 0.0197095)
(-0.11213 0 0.0175655)
(-0.112479 0 0.0153022)
(-0.112875 0 0.0130294)
(-0.113326 0 0.0108603)
(-0.113841 0 0.00888974)
(-0.114425 0 0.00716794)
(-0.115084 0 0.00567462)
(-0.115822 0 0.00430456)
(-0.116642 0 0.00287585)
(-0.117549 0 0.00116926)
(-0.118551 0 -0.00100329)
(-0.119659 0 -0.00371901)
(-0.120893 0 -0.00688587)
(-0.122274 0 -0.0102417)
(-0.123821 0 -0.0134287)
(-0.125701 0 -0.0163475)
(-0.127903 0 -0.0187235)
(-0.130217 0 -0.0205971)
(-0.132613 0 -0.0225692)
(-0.135082 0 -0.0251414)
(-0.137623 0 -0.0285051)
(-0.140242 0 -0.0325038)
(-0.142935 0 -0.0367266)
(-0.145673 0 -0.0406826)
(-0.148384 0 -0.0440759)
(-0.15093 0 -0.0472429)
(-0.153112 0 -0.0516711)
(-0.154759 0 -0.0601702)
(-0.155908 0 -0.0759806)
(-0.157019 0 -0.100467)
(-0.159038 0 -0.13032)
(-0.163083 0 -0.156629)
(-0.169821 0 -0.167845)
(-0.178941 0 -0.155585)
(-0.18929 0 -0.118727)
(-0.107834 0 0.0107206)
(-0.107958 0 0.0184623)
(-0.108012 0 0.0212504)
(-0.10811 0 0.0231501)
(-0.108225 0 0.0245598)
(-0.10835 0 0.0255943)
(-0.108486 0 0.026314)
(-0.108632 0 0.026728)
(-0.10879 0 0.0268213)
(-0.10896 0 0.0265756)
(-0.109143 0 0.0259774)
(-0.109341 0 0.025022)
(-0.109557 0 0.0237178)
(-0.109794 0 0.0220901)
(-0.110055 0 0.0201856)
(-0.110348 0 0.0180749)
(-0.110677 0 0.0158512)
(-0.11105 0 0.0136241)
(-0.111474 0 0.0115056)
(-0.111956 0 0.00958866)
(-0.112502 0 0.00792126)
(-0.113118 0 0.00648084)
(-0.113805 0 0.00516078)
(-0.114568 0 0.0037794)
(-0.115409 0 0.00211965)
(-0.116335 0 -2.84283e-06)
(-0.117358 0 -0.00266133)
(-0.118495 0 -0.00576147)
(-0.119765 0 -0.00904203)
(-0.121183 0 -0.01215)
(-0.122901 0 -0.0149869)
(-0.124905 0 -0.0172884)
(-0.126999 0 -0.0191047)
(-0.129153 0 -0.0210312)
(-0.131359 0 -0.0235614)
(-0.133614 0 -0.0268825)
(-0.135922 0 -0.0308398)
(-0.138276 0 -0.0350333)
(-0.14065 0 -0.0389942)
(-0.142972 0 -0.0424617)
(-0.145108 0 -0.0458101)
(-0.146875 0 -0.0505339)
(-0.148124 0 -0.0593626)
(-0.148918 0 -0.0753295)
(-0.149724 0 -0.0995105)
(-0.151438 0 -0.128401)
(-0.155056 0 -0.153203)
(-0.161082 0 -0.16285)
(-0.169098 0 -0.149532)
(-0.177946 0 -0.112393)
(-0.106144 0 0.0108421)
(-0.106266 0 0.0186917)
(-0.106316 0 0.0215215)
(-0.10641 0 0.0234479)
(-0.106522 0 0.0248757)
(-0.106642 0 0.0259229)
(-0.106772 0 0.0266526)
(-0.106913 0 0.0270756)
(-0.107064 0 0.0271777)
(-0.107226 0 0.0269413)
(-0.107401 0 0.0263536)
(-0.107589 0 0.0254109)
(-0.107794 0 0.0241224)
(-0.108017 0 0.0225145)
(-0.108264 0 0.0206348)
(-0.10854 0 0.0185545)
(-0.108848 0 0.016367)
(-0.109198 0 0.0141817)
(-0.109595 0 0.0121095)
(-0.110045 0 0.0102415)
(-0.110554 0 0.00862346)
(-0.111126 0 0.00723074)
(-0.111763 0 0.00595544)
(-0.112468 0 0.00461613)
(-0.113244 0 0.00299785)
(-0.114096 0 0.000919724)
(-0.115035 0 -0.00168792)
(-0.116075 0 -0.00472883)
(-0.117235 0 -0.00794306)
(-0.118527 0 -0.0109824)
(-0.120085 0 -0.0137502)
(-0.121894 0 -0.0159918)
(-0.123771 0 -0.0177659)
(-0.125688 0 -0.0196614)
(-0.127634 0 -0.0221647)
(-0.129607 0 -0.0254584)
(-0.131608 0 -0.0293902)
(-0.13363 0 -0.0335708)
(-0.135644 0 -0.0375534)
(-0.13758 0 -0.0411106)
(-0.139309 0 -0.0446506)
(-0.14066 0 -0.0496689)
(-0.141507 0 -0.0588103)
(-0.141937 0 -0.0749066)
(-0.14242 0 -0.0987694)
(-0.143799 0 -0.126739)
(-0.146957 0 -0.150168)
(-0.152248 0 -0.158466)
(-0.159166 0 -0.144342)
(-0.166564 0 -0.10715)
(-0.104433 0 0.0109578)
(-0.104552 0 0.0189116)
(-0.104598 0 0.0217823)
(-0.104689 0 0.0237348)
(-0.104796 0 0.0251797)
(-0.104912 0 0.0262388)
(-0.105037 0 0.0269776)
(-0.105172 0 0.0274085)
(-0.105317 0 0.0275183)
(-0.105471 0 0.0272898)
(-0.105637 0 0.0267112)
(-0.105816 0 0.0257796)
(-0.106009 0 0.024505)
(-0.10622 0 0.0229148)
(-0.106452 0 0.0210574)
(-0.10671 0 0.0190046)
(-0.106999 0 0.0168502)
(-0.107325 0 0.014703)
(-0.107695 0 0.0126728)
(-0.108113 0 0.0108492)
(-0.108585 0 0.00927556)
(-0.109114 0 0.00792534)
(-0.109702 0 0.00668944)
(-0.110351 0 0.00538672)
(-0.111062 0 0.00380425)
(-0.111841 0 0.00176441)
(-0.112697 0 -0.000799137)
(-0.113642 0 -0.00378851)
(-0.114694 0 -0.00694524)
(-0.115861 0 -0.00992601)
(-0.117262 0 -0.0126366)
(-0.118878 0 -0.0148317)
(-0.120542 0 -0.016577)
(-0.122225 0 -0.0184559)
(-0.123917 0 -0.0209473)
(-0.125612 0 -0.0242297)
(-0.127311 0 -0.0281531)
(-0.129006 0 -0.0323384)
(-0.130666 0 -0.0363598)
(-0.13222 0 -0.0400218)
(-0.133545 0 -0.0437631)
(-0.134481 0 -0.0490751)
(-0.134925 0 -0.0585149)
(-0.134985 0 -0.0747189)
(-0.135128 0 -0.0982577)
(-0.136148 0 -0.125354)
(-0.138815 0 -0.147541)
(-0.143357 0 -0.154694)
(-0.149194 0 -0.13999)
(-0.155196 0 -0.102948)
(-0.102704 0 0.0110677)
(-0.10282 0 0.0191224)
(-0.102863 0 0.0220331)
(-0.10295 0 0.0240108)
(-0.103054 0 0.0254723)
(-0.103165 0 0.0265423)
(-0.103285 0 0.0272893)
(-0.103414 0 0.0277271)
(-0.103552 0 0.0278432)
(-0.1037 0 0.0276214)
(-0.103857 0 0.0270505)
(-0.104026 0 0.0261282)
(-0.104208 0 0.0248657)
(-0.104407 0 0.0232911)
(-0.104624 0 0.0214536)
(-0.104865 0 0.0194255)
(-0.105134 0 0.0173009)
(-0.105438 0 0.0151881)
(-0.10578 0 0.0131958)
(-0.106167 0 0.011412)
(-0.106602 0 0.00987792)
(-0.107089 0 0.00856515)
(-0.107629 0 0.00736347)
(-0.108221 0 0.00609206)
(-0.108869 0 0.00453992)
(-0.109576 0 0.00253252)
(-0.11035 0 6.53861e-06)
(-0.111203 0 -0.00293876)
(-0.112147 0 -0.00604655)
(-0.113192 0 -0.00897842)
(-0.114439 0 -0.0116434)
(-0.115867 0 -0.0138051)
(-0.117322 0 -0.0155351)
(-0.118777 0 -0.0174113)
(-0.120218 0 -0.0199056)
(-0.121641 0 -0.0231928)
(-0.123044 0 -0.0271247)
(-0.124417 0 -0.0313327)
(-0.125727 0 -0.0354111)
(-0.126905 0 -0.039194)
(-0.12783 0 -0.0431471)
(-0.128355 0 -0.0487527)
(-0.128395 0 -0.0584781)
(-0.128079 0 -0.0747714)
(-0.127869 0 -0.0979859)
(-0.128506 0 -0.124261)
(-0.13066 0 -0.145335)
(-0.134445 0 -0.151532)
(-0.139222 0 -0.136453)
(-0.143887 0 -0.0997349)
(-0.100962 0 0.0111721)
(-0.101076 0 0.0193244)
(-0.101115 0 0.0222741)
(-0.101199 0 0.0242765)
(-0.101299 0 0.0257537)
(-0.101406 0 0.0268338)
(-0.101521 0 0.0275879)
(-0.101644 0 0.0280315)
(-0.101776 0 0.0281529)
(-0.101916 0 0.0279364)
(-0.102065 0 0.0273715)
(-0.102225 0 0.026457)
(-0.102396 0 0.0252047)
(-0.102582 0 0.0236435)
(-0.102785 0 0.0218234)
(-0.103009 0 0.0198173)
(-0.103259 0 0.0177192)
(-0.103539 0 0.0156371)
(-0.103855 0 0.0136788)
(-0.104211 0 0.0119303)
(-0.104611 0 0.0104312)
(-0.105056 0 0.00915098)
(-0.105548 0 0.00797853)
(-0.106086 0 0.00673335)
(-0.106671 0 0.00520627)
(-0.107308 0 0.00322566)
(-0.108002 0 0.000730952)
(-0.108763 0 -0.00217752)
(-0.109603 0 -0.00524474)
(-0.110528 0 -0.00813721)
(-0.111625 0 -0.0107681)
(-0.112869 0 -0.0129094)
(-0.11412 0 -0.0146374)
(-0.115351 0 -0.0165246)
(-0.116548 0 -0.0190362)
(-0.117705 0 -0.0223434)
(-0.118817 0 -0.0263005)
(-0.119874 0 -0.030549)
(-0.120842 0 -0.0347027)
(-0.121649 0 -0.0386235)
(-0.122178 0 -0.0428001)
(-0.122296 0 -0.0487012)
(-0.121935 0 -0.0587018)
(-0.121239 0 -0.0750701)
(-0.120664 0 -0.0979649)
(-0.1209 0 -0.123474)
(-0.122521 0 -0.143557)
(-0.125545 0 -0.148974)
(-0.129287 0 -0.133702)
(-0.132668 0 -0.0974648)
(-0.0992114 0 0.0112713)
(-0.0993234 0 0.0195179)
(-0.0993596 0 0.0225056)
(-0.0994401 0 0.0245319)
(-0.0995358 0 0.0260241)
(-0.0996386 0 0.0271134)
(-0.0997491 0 0.0278738)
(-0.099867 0 0.028322)
(-0.0999923 0 0.0284474)
(-0.100125 0 0.028235)
(-0.100266 0 0.0276748)
(-0.100416 0 0.0267664)
(-0.100577 0 0.0255223)
(-0.10075 0 0.0239724)
(-0.100939 0 0.0221673)
(-0.101147 0 0.0201804)
(-0.101378 0 0.0181058)
(-0.101636 0 0.016051)
(-0.101926 0 0.0141226)
(-0.102252 0 0.0124053)
(-0.102616 0 0.0109364)
(-0.103021 0 0.00968404)
(-0.103465 0 0.00853596)
(-0.10395 0 0.00731203)
(-0.104475 0 0.00580484)
(-0.105043 0 0.00384546)
(-0.105659 0 0.0013758)
(-0.106331 0 -0.00150295)
(-0.107069 0 -0.00453779)
(-0.107877 0 -0.0074001)
(-0.108827 0 -0.0100079)
(-0.109891 0 -0.0121415)
(-0.110944 0 -0.0138805)
(-0.111958 0 -0.0157921)
(-0.112917 0 -0.0183351)
(-0.113813 0 -0.0216775)
(-0.114642 0 -0.0256762)
(-0.11539 0 -0.0299827)
(-0.116021 0 -0.03423)
(-0.116464 0 -0.0383059)
(-0.116605 0 -0.0427186)
(-0.11632 0 -0.0489183)
(-0.11556 0 -0.0591866)
(-0.114483 0 -0.0756198)
(-0.113534 0 -0.0982043)
(-0.113351 0 -0.123004)
(-0.114426 0 -0.142215)
(-0.116688 0 -0.147012)
(-0.11942 0 -0.131711)
(-0.121572 0 -0.0960924)
(-0.0974578 0 0.0113653)
(-0.0975675 0 0.0197029)
(-0.0976004 0 0.0227279)
(-0.0976776 0 0.0247774)
(-0.0977696 0 0.0262838)
(-0.0978682 0 0.0273816)
(-0.097974 0 0.0281472)
(-0.0980865 0 0.028599)
(-0.0982056 0 0.0287273)
(-0.0983315 0 0.0285175)
(-0.0984645 0 0.0279605)
(-0.0986055 0 0.0270565)
(-0.0987557 0 0.0258189)
(-0.098917 0 0.0242783)
(-0.0990918 0 0.0224859)
(-0.0992834 0 0.0205155)
(-0.0994954 0 0.0184612)
(-0.0997318 0 0.0164303)
(-0.0999964 0 0.0145281)
(-0.100293 0 0.0128377)
(-0.100623 0 0.0113948)
(-0.100988 0 0.0101656)
(-0.101387 0 0.00903721)
(-0.10182 0 0.00782969)
(-0.102286 0 0.00633734)
(-0.102787 0 0.00439375)
(-0.103327 0 0.00194308)
(-0.103913 0 -0.000912904)
(-0.104552 0 -0.0039233)
(-0.105245 0 -0.00676436)
(-0.106053 0 -0.00935979)
(-0.106943 0 -0.0114979)
(-0.107804 0 -0.0132605)
(-0.108605 0 -0.0152096)
(-0.109333 0 -0.0177979)
(-0.109976 0 -0.0211905)
(-0.110529 0 -0.0252472)
(-0.110975 0 -0.0296294)
(-0.111278 0 -0.0339885)
(-0.111364 0 -0.0382367)
(-0.111124 0 -0.0428981)
(-0.110443 0 -0.0494005)
(-0.109289 0 -0.0599314)
(-0.10783 0 -0.0764237)
(-0.106498 0 -0.0987119)
(-0.105884 0 -0.122861)
(-0.106399 0 -0.141312)
(-0.107903 0 -0.145637)
(-0.109651 0 -0.130452)
(-0.110623 0 -0.0955754)
(-0.0957052 0 0.0114542)
(-0.0958126 0 0.0198795)
(-0.0958422 0 0.0229408)
(-0.0959162 0 0.0250129)
(-0.0960044 0 0.0265329)
(-0.0960989 0 0.0276383)
(-0.0962 0 0.0284083)
(-0.0963072 0 0.0288628)
(-0.0964204 0 0.0289927)
(-0.0965394 0 0.0287843)
(-0.0966646 0 0.0282291)
(-0.0967966 0 0.027328)
(-0.0969366 0 0.0260951)
(-0.0970861 0 0.0245617)
(-0.0972473 0 0.0227796)
(-0.0974231 0 0.0208231)
(-0.0976169 0 0.0187863)
(-0.097832 0 0.0167758)
(-0.0980719 0 0.0148962)
(-0.0983395 0 0.0132288)
(-0.0986364 0 0.0118076)
(-0.0989629 0 0.0105972)
(-0.0993182 0 0.0094839)
(-0.0997007 0 0.00828812)
(-0.10011 0 0.00680574)
(-0.100546 0 0.00487268)
(-0.101012 0 0.00243512)
(-0.101514 0 -0.000404802)
(-0.102057 0 -0.00339842)
(-0.10264 0 -0.00622686)
(-0.10331 0 -0.00882023)
(-0.104032 0 -0.0109747)
(-0.104706 0 -0.0127732)
(-0.105303 0 -0.0147725)
(-0.105806 0 -0.0174198)
(-0.106204 0 -0.0208776)
(-0.106489 0 -0.0250084)
(-0.106642 0 -0.0294838)
(-0.106624 0 -0.033973)
(-0.106362 0 -0.0384106)
(-0.105749 0 -0.0433336)
(-0.104682 0 -0.0501439)
(-0.103139 0 -0.0609344)
(-0.101298 0 -0.0774836)
(-0.0995781 0 -0.0994938)
(-0.0985218 0 -0.123053)
(-0.0984688 0 -0.140851)
(-0.0992193 0 -0.144838)
(-0.100011 0 -0.129902)
(-0.0998508 0 -0.0958746)
(-0.0939578 0 0.011538)
(-0.0940627 0 0.0200478)
(-0.0940892 0 0.0231445)
(-0.0941598 0 0.0252386)
(-0.0942444 0 0.0267716)
(-0.0943347 0 0.0278839)
(-0.0944312 0 0.0286573)
(-0.0945333 0 0.0291135)
(-0.0946406 0 0.029244)
(-0.0947529 0 0.0290358)
(-0.0948705 0 0.0284809)
(-0.0949938 0 0.0275811)
(-0.0951238 0 0.0263512)
(-0.0952618 0 0.024823)
(-0.0954098 0 0.0230492)
(-0.0955703 0 0.021104)
(-0.0957463 0 0.0190818)
(-0.0959408 0 0.0170887)
(-0.0961568 0 0.015228)
(-0.0963966 0 0.0135797)
(-0.0966613 0 0.0121761)
(-0.0969507 0 0.0109804)
(-0.0972634 0 0.00987783)
(-0.0975974 0 0.00868931)
(-0.0979513 0 0.00721221)
(-0.098325 0 0.0052846)
(-0.0987207 0 0.00285448)
(-0.0991419 0 2.41438e-05)
(-0.0995919 0 -0.00296011)
(-0.100069 0 -0.00578427)
(-0.100606 0 -0.00838557)
(-0.101166 0 -0.0105678)
(-0.10166 0 -0.012414)
(-0.102059 0 -0.0144761)
(-0.102346 0 -0.0171957)
(-0.102507 0 -0.0207331)
(-0.102532 0 -0.024954)
(-0.102401 0 -0.0295398)
(-0.102072 0 -0.0341771)
(-0.101472 0 -0.0388213)
(-0.100497 0 -0.0440192)
(-0.099051 0 -0.0511434)
(-0.0971271 0 -0.0621929)
(-0.0949064 0 -0.0788008)
(-0.0927945 0 -0.100555)
(-0.0912875 0 -0.123584)
(-0.0906614 0 -0.140831)
(-0.0906654 0 -0.144604)
(-0.0905275 0 -0.130035)
(-0.0892813 0 -0.0969542)
(-0.0922194 0 0.0116167)
(-0.0923219 0 0.0202076)
(-0.0923451 0 0.0233388)
(-0.0924125 0 0.0254543)
(-0.0924934 0 0.0269997)
(-0.0925796 0 0.0281183)
(-0.0926716 0 0.0288945)
(-0.0927685 0 0.0293515)
(-0.0928701 0 0.0294816)
(-0.0929759 0 0.0292723)
(-0.0930861 0 0.0287165)
(-0.093201 0 0.0278165)
(-0.0933212 0 0.0265879)
(-0.0934481 0 0.0250631)
(-0.0935834 0 0.0232952)
(-0.0937291 0 0.0213591)
(-0.0938879 0 0.0193487)
(-0.0940625 0 0.0173698)
(-0.0942554 0 0.0155247)
(-0.0944684 0 0.013892)
(-0.0947021 0 0.0125021)
(-0.0949558 0 0.0113169)
(-0.0952276 0 0.0102209)
(-0.0955151 0 0.00903541)
(-0.0958161 0 0.00755908)
(-0.0961298 0 0.00563205)
(-0.0964575 0 0.00320391)
(-0.0968012 0 0.000376931)
(-0.0971623 0 -0.00260508)
(-0.0975377 0 -0.00543298)
(-0.0979466 0 -0.00805185)
(-0.0983506 0 -0.0102729)
(-0.098672 0 -0.0121783)
(-0.0988819 0 -0.0143151)
(-0.0989603 0 -0.0171199)
(-0.0988932 0 -0.0207511)
(-0.0986683 0 -0.0250777)
(-0.0982635 0 -0.029791)
(-0.0976348 0 -0.0345942)
(-0.0967073 0 -0.0394619)
(-0.0953808 0 -0.0449479)
(-0.0935676 0 -0.0523931)
(-0.0912708 0 -0.0637033)
(-0.0886747 0 -0.0803753)
(-0.0861684 0 -0.101899)
(-0.0842053 0 -0.124458)
(-0.0830038 0 -0.14125)
(-0.0822712 0 -0.144923)
(-0.0812311 0 -0.130828)
(-0.0789444 0 -0.0987803)
(-0.0904935 0 0.0116903)
(-0.0905936 0 0.0203589)
(-0.0906136 0 0.0235238)
(-0.0906777 0 0.0256602)
(-0.0907549 0 0.0272175)
(-0.0908371 0 0.0283417)
(-0.0909246 0 0.02912)
(-0.0910166 0 0.0295769)
(-0.0911125 0 0.0297057)
(-0.091212 0 0.0294943)
(-0.0913151 0 0.0289363)
(-0.0914218 0 0.0280348)
(-0.0915327 0 0.0268058)
(-0.0916489 0 0.0252826)
(-0.0917718 0 0.0235187)
(-0.0919033 0 0.0215892)
(-0.0920456 0 0.0195881)
(-0.0922011 0 0.0176204)
(-0.0923719 0 0.0157877)
(-0.0925591 0 0.014167)
(-0.0927631 0 0.0127872)
(-0.0929826 0 0.0116086)
(-0.0932154 0 0.0105153)
(-0.0934583 0 0.00932871)
(-0.0937088 0 0.00784887)
(-0.0939653 0 0.00591776)
(-0.094228 0 0.00348638)
(-0.0944976 0 0.000656788)
(-0.0947738 0 -0.0023298)
(-0.0950518 0 -0.00516913)
(-0.0953388 0 -0.00781477)
(-0.0955939 0 -0.0100852)
(-0.0957505 0 -0.0120606)
(-0.0957792 0 -0.0142838)
(-0.0956586 0 -0.0171865)
(-0.0953731 0 -0.0209253)
(-0.0949086 0 -0.0253728)
(-0.0942407 0 -0.0302301)
(-0.0933234 0 -0.0352167)
(-0.0920809 0 -0.0403246)
(-0.0904157 0 -0.046112)
(-0.0882476 0 -0.0538859)
(-0.0855878 0 -0.0654608)
(-0.0826219 0 -0.0822057)
(-0.0797215 0 -0.103528)
(-0.0772995 0 -0.125678)
(-0.0755236 0 -0.142105)
(-0.0740669 0 -0.145781)
(-0.0721531 0 -0.132255)
(-0.0688706 0 -0.101319)
(-0.0887834 0 0.011759)
(-0.088881 0 0.0205019)
(-0.0888978 0 0.0236995)
(-0.0889586 0 0.0258562)
(-0.0890322 0 0.0274249)
(-0.0891104 0 0.0285543)
(-0.0891935 0 0.0293341)
(-0.0892807 0 0.0297902)
(-0.0893712 0 0.0299167)
(-0.0894647 0 0.0297023)
(-0.0895608 0 0.029141)
(-0.0896597 0 0.0282365)
(-0.0897616 0 0.0270057)
(-0.0898676 0 0.0254823)
(-0.0899787 0 0.0237205)
(-0.0900966 0 0.0217954)
(-0.0902232 0 0.019801)
(-0.0903604 0 0.0178419)
(-0.09051 0 0.0160184)
(-0.0906727 0 0.0144064)
(-0.0908484 0 0.0130331)
(-0.0910354 0 0.0118577)
(-0.0912309 0 0.0107633)
(-0.0914315 0 0.00957168)
(-0.091634 0 0.00808425)
(-0.0918361 0 0.00614464)
(-0.0920371 0 0.00370504)
(-0.0922363 0 0.000867164)
(-0.0924319 0 -0.00213049)
(-0.0926174 0 -0.00498857)
(-0.0927886 0 -0.00766976)
(-0.0929022 0 -0.00999961)
(-0.0929022 0 -0.0120556)
(-0.0927587 0 -0.0143763)
(-0.0924487 0 -0.0173888)
(-0.0919553 0 -0.0212486)
(-0.0912625 0 -0.0258318)
(-0.0903435 0 -0.0308494)
(-0.0891502 0 -0.0360362)
(-0.087606 0 -0.0414006)
(-0.0856163 0 -0.0475028)
(-0.0831069 0 -0.0556138)
(-0.0800959 0 -0.0674594)
(-0.0767676 0 -0.0842894)
(-0.0734755 0 -0.105441)
(-0.0705948 0 -0.127242)
(-0.0682488 0 -0.14339)
(-0.0660831 0 -0.147162)
(-0.0633254 0 -0.134292)
(-0.0590915 0 -0.104538)
(-0.0870919 0 0.0118227)
(-0.087187 0 0.0206364)
(-0.0872007 0 0.0238659)
(-0.0872583 0 0.0260424)
(-0.0873283 0 0.0276221)
(-0.0874027 0 0.0287563)
(-0.0874815 0 0.029537)
(-0.087564 0 0.0299917)
(-0.0876493 0 0.0301152)
(-0.0877369 0 0.0298967)
(-0.0878265 0 0.029331)
(-0.0879179 0 0.0284224)
(-0.0880113 0 0.0271883)
(-0.0881075 0 0.0256632)
(-0.0882074 0 0.0239016)
(-0.0883123 0 0.0219788)
(-0.088424 0 0.0199888)
(-0.0885439 0 0.0180355)
(-0.0886734 0 0.0162185)
(-0.0888129 0 0.014612)
(-0.0889618 0 0.013242)
(-0.089118 0 0.0120662)
(-0.0892783 0 0.0109671)
(-0.0894388 0 0.00976693)
(-0.0895959 0 0.00826807)
(-0.0897467 0 0.00631577)
(-0.0898894 0 0.00386326)
(-0.0900221 0 0.00101172)
(-0.0901415 0 -0.00200315)
(-0.0902396 0 -0.00488691)
(-0.0903015 0 -0.00761197)
(-0.0902816 0 -0.0100107)
(-0.0901337 0 -0.0121573)
(-0.0898275 0 -0.014586)
(-0.0893386 0 -0.0177201)
(-0.0886486 0 -0.0217136)
(-0.0877394 0 -0.0264466)
(-0.0865822 0 -0.0316401)
(-0.0851268 0 -0.0370437)
(-0.0832959 0 -0.0426805)
(-0.0809971 0 -0.0491105)
(-0.0781617 0 -0.0575679)
(-0.0748128 0 -0.069692)
(-0.0711316 0 -0.0866221)
(-0.0674528 0 -0.107637)
(-0.0641167 0 -0.129149)
(-0.0612078 0 -0.145098)
(-0.0583511 0 -0.149053)
(-0.0547808 0 -0.136914)
(-0.0496394 0 -0.108404)
(-0.0854216 0 0.0118816)
(-0.0855144 0 0.0207628)
(-0.085525 0 0.0240232)
(-0.0855795 0 0.0262191)
(-0.085646 0 0.0278095)
(-0.0857166 0 0.028948)
(-0.0857914 0 0.0297292)
(-0.0858694 0 0.0301819)
(-0.0859497 0 0.0303017)
(-0.0860318 0 0.0300783)
(-0.0861151 0 0.0295072)
(-0.0861994 0 0.0285932)
(-0.0862848 0 0.0273546)
(-0.0863717 0 0.0258263)
(-0.086461 0 0.0240631)
(-0.0865538 0 0.0221407)
(-0.0866513 0 0.0201528)
(-0.086755 0 0.0182029)
(-0.0868655 0 0.0163896)
(-0.0869832 0 0.0147857)
(-0.0871068 0 0.0134158)
(-0.087234 0 0.0122364)
(-0.0873612 0 0.0111294)
(-0.0874842 0 0.0099172)
(-0.0875986 0 0.00840332)
(-0.0877012 0 0.0064344)
(-0.0877891 0 0.00396457)
(-0.0878596 0 0.0010943)
(-0.0879075 0 -0.00194355)
(-0.0879236 0 -0.0048595)
(-0.087883 0 -0.00763625)
(-0.0877379 0 -0.0101129)
(-0.0874513 0 -0.0123594)
(-0.0869927 0 -0.0149062)
(-0.086336 0 -0.0181727)
(-0.0854613 0 -0.0223121)
(-0.0843488 0 -0.0272087)
(-0.0829674 0 -0.032593)
(-0.0812648 0 -0.0382292)
(-0.0791632 0 -0.0441536)
(-0.0765722 0 -0.0509244)
(-0.0734276 0 -0.0597382)
(-0.069756 0 -0.0721505)
(-0.0657337 0 -0.0891981)
(-0.0616762 0 -0.110112)
(-0.0578911 0 -0.131395)
(-0.0544298 0 -0.147221)
(-0.0509025 0 -0.151435)
(-0.0465525 0 -0.140095)
(-0.0405472 0 -0.112882)
(-0.0837752 0 0.0119359)
(-0.0838656 0 0.0208811)
(-0.0838733 0 0.0241716)
(-0.0839247 0 0.0263865)
(-0.0839879 0 0.0279872)
(-0.0840549 0 0.0291298)
(-0.0841257 0 0.029911)
(-0.0841994 0 0.0303613)
(-0.0842751 0 0.0304767)
(-0.0843519 0 0.0302477)
(-0.0844293 0 0.0296703)
(-0.0845069 0 0.02875)
(-0.0845848 0 0.0275056)
(-0.0846631 0 0.0259726)
(-0.0847425 0 0.0242062)
(-0.0848238 0 0.0222823)
(-0.0849082 0 0.0202945)
(-0.0849966 0 0.0183457)
(-0.0850895 0 0.0165334)
(-0.0851867 0 0.0149294)
(-0.0852868 0 0.0135568)
(-0.0853869 0 0.0123708)
(-0.0854832 0 0.0112528)
(-0.0855711 0 0.0100254)
(-0.0856458 0 0.00849312)
(-0.0857035 0 0.00650394)
(-0.0857405 0 0.00401267)
(-0.0857529 0 0.00111897)
(-0.0857342 0 -0.00194726)
(-0.0856742 0 -0.00490146)
(-0.0855381 0 -0.00773718)
(-0.0852765 0 -0.0103001)
(-0.0848611 0 -0.0126553)
(-0.0842608 0 -0.0153295)
(-0.083448 0 -0.0187387)
(-0.0824015 0 -0.0230356)
(-0.0810995 0 -0.0281087)
(-0.0795089 0 -0.0336981)
(-0.0775754 0 -0.0395818)
(-0.0752206 0 -0.0458085)
(-0.0723557 0 -0.052933)
(-0.0689204 0 -0.0621134)
(-0.064943 0 -0.0748251)
(-0.0605938 0 -0.0920098)
(-0.0561686 0 -0.112861)
(-0.0519445 0 -0.133971)
(-0.0479447 0 -0.149746)
(-0.0437697 0 -0.154292)
(-0.038674 0 -0.143811)
(-0.0318485 0 -0.117942)
(-0.0821548 0 0.0119858)
(-0.0822429 0 0.0209918)
(-0.0822478 0 0.0243115)
(-0.0822963 0 0.0265449)
(-0.0823563 0 0.0281557)
(-0.0824198 0 0.0293021)
(-0.0824869 0 0.0300831)
(-0.0825566 0 0.0305304)
(-0.0826278 0 0.030641)
(-0.0826997 0 0.0304057)
(-0.0827717 0 0.0298211)
(-0.0828431 0 0.0288935)
(-0.082914 0 0.0276422)
(-0.0829843 0 0.0261033)
(-0.0830545 0 0.0243322)
(-0.0831253 0 0.0224051)
(-0.0831974 0 0.0204154)
(-0.0832717 0 0.0184655)
(-0.0833482 0 0.016652)
(-0.0834265 0 0.0150453)
(-0.0835047 0 0.0136672)
(-0.0835798 0 0.0124718)
(-0.0836475 0 0.01134)
(-0.0837029 0 0.0100945)
(-0.0837409 0 0.00854076)
(-0.083757 0 0.00652795)
(-0.0837471 0 0.00401145)
(-0.0837059 0 0.00108997)
(-0.0836259 0 -0.00200962)
(-0.0834955 0 -0.00500767)
(-0.0832716 0 -0.00790908)
(-0.0829027 0 -0.010566)
(-0.0823687 0 -0.0130379)
(-0.0816378 0 -0.0158483)
(-0.0806815 0 -0.0194098)
(-0.0794768 0 -0.023875)
(-0.0780001 0 -0.0291366)
(-0.0762162 0 -0.0349445)
(-0.0740693 0 -0.04109)
(-0.0714801 0 -0.0476329)
(-0.0683613 0 -0.0551232)
(-0.0646553 0 -0.0646812)
(-0.0603911 0 -0.0777048)
(-0.0557317 0 -0.0950483)
(-0.050953 0 -0.115874)
(-0.0463036 0 -0.136869)
(-0.0417829 0 -0.15266)
(-0.0369861 0 -0.157603)
(-0.03118 0 -0.148036)
(-0.0235775 0 -0.123553)
(-0.0805626 0 0.0120314)
(-0.0806486 0 0.0210951)
(-0.0806508 0 0.0244431)
(-0.0806965 0 0.0266948)
(-0.0807534 0 0.0283154)
(-0.0808136 0 0.0294654)
(-0.0808773 0 0.030246)
(-0.0809432 0 0.0306901)
(-0.0810103 0 0.0307953)
(-0.0810777 0 0.0305532)
(-0.0811446 0 0.0299607)
(-0.0812103 0 0.0290249)
(-0.0812747 0 0.0277657)
(-0.0813377 0 0.0262195)
(-0.0813995 0 0.0244424)
(-0.0814606 0 0.0225106)
(-0.0815215 0 0.0205172)
(-0.0815828 0 0.0185641)
(-0.0816443 0 0.0167471)
(-0.0817052 0 0.0151354)
(-0.0817633 0 0.0137494)
(-0.0818154 0 0.0125421)
(-0.0818569 0 0.0113939)
(-0.0818826 0 0.0101276)
(-0.081887 0 0.00854963)
(-0.0818652 0 0.00651013)
(-0.0818123 0 0.00396494)
(-0.0817223 0 0.0010117)
(-0.0815863 0 -0.00212578)
(-0.0813917 0 -0.00517281)
(-0.0810876 0 -0.00814604)
(-0.080621 0 -0.0109039)
(-0.079979 0 -0.0134999)
(-0.0791296 0 -0.0164544)
(-0.0780428 0 -0.020177)
(-0.0766942 0 -0.0248204)
(-0.0750584 0 -0.0302819)
(-0.0730985 0 -0.0363207)
(-0.0707568 0 -0.0427412)
(-0.0679534 0 -0.0496132)
(-0.0646022 0 -0.0574812)
(-0.0606473 0 -0.0674278)
(-0.0561173 0 -0.080777)
(-0.0511669 0 -0.0983022)
(-0.0460522 0 -0.119141)
(-0.0409954 0 -0.140076)
(-0.0359752 0 -0.155948)
(-0.0305853 0 -0.161348)
(-0.0241061 0 -0.152742)
(-0.01577 0 -0.129686)
(-0.0790008 0 0.012073)
(-0.0790847 0 0.0211913)
(-0.0790844 0 0.0245669)
(-0.0791274 0 0.0268364)
(-0.0791813 0 0.0284669)
(-0.0792385 0 0.0296203)
(-0.0792989 0 0.0304002)
(-0.0793613 0 0.0308409)
(-0.0794246 0 0.0309404)
(-0.0794878 0 0.0306908)
(-0.0795501 0 0.0300899)
(-0.0796107 0 0.0291451)
(-0.0796692 0 0.027877)
(-0.0797255 0 0.0263226)
(-0.0797797 0 0.0245382)
(-0.079832 0 0.0226001)
(-0.0798828 0 0.0206014)
(-0.0799323 0 0.0186434)
(-0.0799802 0 0.0168209)
(-0.0800252 0 0.015202)
(-0.0800652 0 0.0138058)
(-0.0800964 0 0.0125844)
(-0.0801142 0 0.0114174)
(-0.0801128 0 0.010128)
(-0.0800869 0 0.00852323)
(-0.0800308 0 0.00645431)
(-0.0799391 0 0.00387731)
(-0.0798051 0 0.000888741)
(-0.0796187 0 -0.00229073)
(-0.0793664 0 -0.00539134)
(-0.0789902 0 -0.00844188)
(-0.0784358 0 -0.011307)
(-0.077697 0 -0.0140337)
(-0.0767413 0 -0.0171394)
(-0.0755377 0 -0.021031)
(-0.0740604 0 -0.0258615)
(-0.0722821 0 -0.0315331)
(-0.0701641 0 -0.0378144)
(-0.0676474 0 -0.044522)
(-0.0646515 0 -0.0517352)
(-0.0610908 0 -0.0599921)
(-0.0569107 0 -0.0703382)
(-0.0521382 0 -0.0840275)
(-0.0469188 0 -0.101758)
(-0.0414891 0 -0.12265)
(-0.0360465 0 -0.143579)
(-0.0305524 0 -0.159591)
(-0.0246017 0 -0.165504)
(-0.0174894 0 -0.157903)
(-0.00846408 0 -0.136309)
(-0.0774712 0 0.0121108)
(-0.0775532 0 0.0212807)
(-0.0775504 0 0.0246832)
(-0.0775908 0 0.0269704)
(-0.0776421 0 0.0286104)
(-0.0776963 0 0.0297673)
(-0.0777537 0 0.0305466)
(-0.0778128 0 0.0309835)
(-0.0778727 0 0.031077)
(-0.0779322 0 0.0308197)
(-0.0779903 0 0.0302097)
(-0.0780462 0 0.0292552)
(-0.0780995 0 0.0279775)
(-0.0781499 0 0.0264139)
(-0.0781972 0 0.0246211)
(-0.0782417 0 0.0226754)
(-0.0782834 0 0.0206699)
(-0.0783223 0 0.0187053)
(-0.078358 0 0.0168755)
(-0.0783889 0 0.0152475)
(-0.0784126 0 0.0138391)
(-0.0784251 0 0.0126014)
(-0.0784215 0 0.0114136)
(-0.0783961 0 0.0100989)
(-0.078343 0 0.00846517)
(-0.0782564 0 0.0063644)
(-0.0781303 0 0.00375286)
(-0.0779572 0 0.000725805)
(-0.0777261 0 -0.00249928)
(-0.0774227 0 -0.00565752)
(-0.0769827 0 -0.00879021)