/*--------------------------------*- C++ -*----------------------------------*\
  =========                 |
  \\      /  F ield         | OpenFOAM: The Open Source CFD Toolbox
   \\    /   O peration     | Website:  https://openfoam.org
    \\  /    A nd           | Version:  9
     \\/     M anipulation  |
\*---------------------------------------------------------------------------*/
FoamFile
{
    format      ascii;
    class       surfaceVectorField;
    location    "0.12";
    object      Uf;
}
// * * * * * * * * * * * * * * * * * * * * * * * * * * * * * * * * * * * * * //

dimensions      [0 1 -1 0 0 0 0];

internalField   nonuniform List<vector> 
9850
(
(-0.115863 0 0.0135081)
(-0.115041 0 0.0100952)
(-0.115954 0 0.0184205)
(-0.115176 0 0.0173076)
(-0.116065 0 0.0205912)
(-0.115248 0 0.0198962)
(-0.116192 0 0.0221296)
(-0.115363 0 0.0216676)
(-0.116333 0 0.0232683)
(-0.115497 0 0.0229877)
(-0.116488 0 0.0240799)
(-0.115643 0 0.0239557)
(-0.116657 0 0.0245889)
(-0.115803 0 0.0246192)
(-0.116839 0 0.0247863)
(-0.115975 0 0.0249805)
(-0.117038 0 0.0246514)
(-0.116162 0 0.0250206)
(-0.117253 0 0.0241642)
(-0.116366 0 0.0247175)
(-0.117488 0 0.023311)
(-0.116586 0 0.0240542)
(-0.117746 0 0.0220885)
(-0.116827 0 0.0230216)
(-0.11803 0 0.0205078)
(-0.117092 0 0.0216234)
(-0.118346 0 0.0185993)
(-0.117385 0 0.0198799)
(-0.1187 0 0.0164164)
(-0.117712 0 0.017833)
(-0.119101 0 0.0140375)
(-0.118079 0 0.0155494)
(-0.119557 0 0.0115633)
(-0.118496 0 0.0131205)
(-0.12008 0 0.00910766)
(-0.118972 0 0.0106569)
(-0.120678 0 0.00678096)
(-0.119518 0 0.00827556)
(-0.121364 0 0.00466533)
(-0.120143 0 0.00607816)
(-0.122146 0 0.00278689)
(-0.120858 0 0.00412385)
(-0.123032 0 0.00109254)
(-0.121669 0 0.0024013)
(-0.124027 0 -0.000557034)
(-0.122585 0 0.000811175)
(-0.125138 0 -0.00236667)
(-0.123609 0 -0.000828713)
(-0.126375 0 -0.00455359)
(-0.124749 0 -0.0027457)
(-0.127751 0 -0.00727005)
(-0.126015 0 -0.00514271)
(-0.129288 0 -0.010527)
(-0.127424 0 -0.00811363)
(-0.131014 0 -0.0141554)
(-0.129001 0 -0.0115775)
(-0.132963 0 -0.017837)
(-0.130778 0 -0.0152709)
(-0.135163 0 -0.0212031)
(-0.13278 0 -0.0188201)
(-0.138068 0 -0.0244705)
(-0.135236 0 -0.0221283)
(-0.141184 0 -0.0270048)
(-0.138149 0 -0.0248804)
(-0.144486 0 -0.0292816)
(-0.141253 0 -0.0270695)
(-0.147958 0 -0.0318817)
(-0.144517 0 -0.0293186)
(-0.151597 0 -0.0351797)
(-0.147935 0 -0.0321595)
(-0.155412 0 -0.039199)
(-0.151507 0 -0.035803)
(-0.159407 0 -0.0436276)
(-0.155243 0 -0.0400861)
(-0.163569 0 -0.0479394)
(-0.159144 0 -0.044557)
(-0.167839 0 -0.0516077)
(-0.163186 0 -0.0486365)
(-0.172088 0 -0.054472)
(-0.167289 0 -0.051884)
(-0.176095 0 -0.0573035)
(-0.171286 0 -0.0544649)
(-0.179585 0 -0.0623478)
(-0.174916 0 -0.057794)
(-0.182377 0 -0.0732088)
(-0.177906 0 -0.0649302)
(-0.184633 0 -0.0933241)
(-0.180181 0 -0.0798835)
(-0.187114 0 -0.123039)
(-0.182157 0 -0.105224)
(-0.191189 0 -0.156868)
(-0.18493 0 -0.138696)
(-0.198396 0 -0.183663)
(-0.190076 0 -0.171347)
(-0.209636 0 -0.191127)
(-0.198942 0 -0.189999)
(-0.224608 0 -0.172159)
(-0.211783 0 -0.183841)
(-0.22759 0 -0.150183)
(-0.114347 0 0.0137226)
(-0.113505 0 0.0102452)
(-0.114435 0 0.0187219)
(-0.113637 0 0.0175813)
(-0.114543 0 0.020931)
(-0.113706 0 0.0202157)
(-0.114666 0 0.0224952)
(-0.113817 0 0.0220166)
(-0.114803 0 0.023653)
(-0.113947 0 0.0233577)
(-0.114953 0 0.0244803)
(-0.114089 0 0.0243416)
(-0.115117 0 0.0250035)
(-0.114243 0 0.025019)
(-0.115294 0 0.0252152)
(-0.11441 0 0.0253936)
(-0.115485 0 0.0250954)
(-0.114591 0 0.0254473)
(-0.115693 0 0.0246249)
(-0.114787 0 0.0251591)
(-0.11592 0 0.023791)
(-0.114999 0 0.0245125)
(-0.116168 0 0.0225915)
(-0.115231 0 0.0234998)
(-0.116441 0 0.0210385)
(-0.115486 0 0.0221256)
(-0.116744 0 0.0191638)
(-0.115766 0 0.0204114)
(-0.117083 0 0.0170217)
(-0.116079 0 0.0184003)
(-0.117467 0 0.0146914)
(-0.116431 0 0.0161601)
(-0.117902 0 0.0122738)
(-0.116829 0 0.0137825)
(-0.118401 0 0.00988223)
(-0.117282 0 0.0113782)
(-0.118971 0 0.00762544)
(-0.117802 0 0.00906288)
(-0.119623 0 0.0055832)
(-0.118396 0 0.00693632)
(-0.120365 0 0.00377888)
(-0.119073 0 0.00505498)
(-0.121204 0 0.00215705)
(-0.119842 0 0.00340479)
(-0.122145 0 0.000577462)
(-0.120707 0 0.00188455)
(-0.123195 0 -0.00116347)
(-0.121673 0 0.000312044)
(-0.124361 0 -0.00327934)
(-0.122747 0 -0.00153768)
(-0.125656 0 -0.00591724)
(-0.123937 0 -0.00386303)
(-0.127101 0 -0.00908334)
(-0.12526 0 -0.00675267)
(-0.128723 0 -0.0126065)
(-0.126739 0 -0.010122)
(-0.13055 0 -0.0161704)
(-0.128402 0 -0.0137074)
(-0.132609 0 -0.0194129)
(-0.130274 0 -0.0171397)
(-0.135321 0 -0.022538)
(-0.132564 0 -0.0203206)
(-0.138221 0 -0.0249446)
(-0.135272 0 -0.0229471)
(-0.141283 0 -0.0271065)
(-0.138149 0 -0.0250279)
(-0.144492 0 -0.0295977)
(-0.141162 0 -0.0271796)
(-0.147844 0 -0.032786)
(-0.144306 0 -0.029925)
(-0.151345 0 -0.0366949)
(-0.14758 0 -0.0334687)
(-0.155 0 -0.0410208)
(-0.150993 0 -0.0376495)
(-0.158794 0 -0.0452579)
(-0.154545 0 -0.0420277)
(-0.162672 0 -0.0489137)
(-0.158209 0 -0.046051)
(-0.166512 0 -0.0518747)
(-0.161909 0 -0.049324)
(-0.170109 0 -0.0549521)
(-0.165489 0 -0.0520671)
(-0.173214 0 -0.0603748)
(-0.168709 0 -0.055724)
(-0.175678 0 -0.0716066)
(-0.171327 0 -0.0632875)
(-0.177691 0 -0.0917873)
(-0.173302 0 -0.0785415)
(-0.180004 0 -0.120884)
(-0.175067 0 -0.103682)
(-0.183904 0 -0.153177)
(-0.177678 0 -0.136096)
(-0.190756 0 -0.177684)
(-0.182582 0 -0.166779)
(-0.201254 0 -0.182712)
(-0.190915 0 -0.183)
(-0.214957 0 -0.161856)
(-0.202742 0 -0.174706)
(-0.216988 0 -0.139754)
(-0.112787 0 0.0139289)
(-0.111927 0 0.0103888)
(-0.112872 0 0.0190126)
(-0.112057 0 0.0178451)
(-0.112976 0 0.0212591)
(-0.112122 0 0.0205244)
(-0.113096 0 0.0228482)
(-0.112229 0 0.0223542)
(-0.113229 0 0.0240243)
(-0.112355 0 0.0237157)
(-0.113374 0 0.024866)
(-0.112492 0 0.024715)
(-0.113532 0 0.0254024)
(-0.112641 0 0.0254055)
(-0.113702 0 0.025627)
(-0.112802 0 0.0257925)
(-0.113887 0 0.0255208)
(-0.112977 0 0.0258589)
(-0.114088 0 0.0250655)
(-0.113165 0 0.0255843)
(-0.114305 0 0.0242492)
(-0.11337 0 0.0249532)
(-0.114543 0 0.0230706)
(-0.113592 0 0.0239588)
(-0.114805 0 0.0215434)
(-0.113836 0 0.0226068)
(-0.115095 0 0.0197)
(-0.114104 0 0.0209199)
(-0.115419 0 0.0175962)
(-0.114403 0 0.0189423)
(-0.115785 0 0.0153117)
(-0.114738 0 0.0167426)
(-0.1162 0 0.0129476)
(-0.115116 0 0.0144131)
(-0.116674 0 0.0106167)
(-0.115547 0 0.0120641)
(-0.117215 0 0.00842604)
(-0.11604 0 0.00981038)
(-0.117833 0 0.00645324)
(-0.116602 0 0.00774966)
(-0.118535 0 0.00471897)
(-0.117242 0 0.00593583)
(-0.119328 0 0.00316557)
(-0.117967 0 0.00435226)
(-0.120215 0 0.00165187)
(-0.118782 0 0.00289604)
(-0.121202 0 -2.45454e-05)
(-0.11969 0 0.00138502)
(-0.122297 0 -0.00207396)
(-0.120696 0 -0.000403434)
(-0.123511 0 -0.0046388)
(-0.121811 0 -0.00266338)
(-0.124864 0 -0.007721)
(-0.123048 0 -0.00547869)
(-0.126379 0 -0.0111478)
(-0.124428 0 -0.00876146)
(-0.128084 0 -0.0146051)
(-0.125979 0 -0.0122485)
(-0.130002 0 -0.0177371)
(-0.12772 0 -0.0155751)
(-0.13252 0 -0.0207374)
(-0.129845 0 -0.018642)
(-0.135204 0 -0.0230348)
(-0.132349 0 -0.0211579)
(-0.138027 0 -0.0251009)
(-0.134999 0 -0.0231453)
(-0.140975 0 -0.0275018)
(-0.137763 0 -0.0252145)
(-0.144043 0 -0.0305985)
(-0.140636 0 -0.0278795)
(-0.147237 0 -0.0344131)
(-0.143615 0 -0.0313395)
(-0.150558 0 -0.0386501)
(-0.146709 0 -0.0354354)
(-0.15399 0 -0.0428235)
(-0.149915 0 -0.0397394)
(-0.15748 0 -0.0464751)
(-0.153207 0 -0.0437247)
(-0.16091 0 -0.0495375)
(-0.156508 0 -0.0470373)
(-0.164091 0 -0.0528583)
(-0.159671 0 -0.0499467)
(-0.1668 0 -0.0586434)
(-0.162475 0 -0.053918)
(-0.16892 0 -0.0702116)
(-0.164709 0 -0.0618739)
(-0.170665 0 -0.0904127)
(-0.166366 0 -0.0773782)
(-0.172771 0 -0.118869)
(-0.167891 0 -0.102278)
(-0.176438 0 -0.149682)
(-0.170295 0 -0.133651)
(-0.182866 0 -0.172086)
(-0.174894 0 -0.162494)
(-0.192556 0 -0.174981)
(-0.182625 0 -0.17654)
(-0.204951 0 -0.15258)
(-0.193386 0 -0.166442)
(-0.206064 0 -0.130521)
(-0.111189 0 0.0141269)
(-0.110313 0 0.0105259)
(-0.111271 0 0.019293)
(-0.11044 0 0.0180989)
(-0.111371 0 0.0215761)
(-0.110501 0 0.0208223)
(-0.111486 0 0.0231897)
(-0.110604 0 0.0226806)
(-0.111615 0 0.0243832)
(-0.110726 0 0.0240618)
(-0.111755 0 0.0252387)
(-0.110858 0 0.0250758)
(-0.111907 0 0.0257872)
(-0.111002 0 0.0257785)
(-0.112072 0 0.0260237)
(-0.111157 0 0.026177)
(-0.11225 0 0.0259299)
(-0.111325 0 0.0262549)
(-0.112442 0 0.0254883)
(-0.111506 0 0.0259927)
(-0.112651 0 0.0246879)
(-0.111702 0 0.0253758)
(-0.112879 0 0.0235286)
(-0.111915 0 0.0243981)
(-0.113129 0 0.022025)
(-0.112147 0 0.0230665)
(-0.113405 0 0.0202107)
(-0.112403 0 0.0214047)
(-0.113714 0 0.0181424)
(-0.112687 0 0.0194581)
(-0.114061 0 0.0159006)
(-0.113005 0 0.017296)
(-0.114455 0 0.0135864)
(-0.113364 0 0.0150112)
(-0.114904 0 0.0113121)
(-0.113772 0 0.0127137)
(-0.115416 0 0.00918314)
(-0.114237 0 0.0105171)
(-0.115999 0 0.00727497)
(-0.114767 0 0.0085173)
(-0.116661 0 0.00560576)
(-0.11537 0 0.0067657)
(-0.117406 0 0.00411572)
(-0.116051 0 0.00524321)
(-0.118238 0 0.00266289)
(-0.116815 0 0.00384537)
(-0.119163 0 0.00104595)
(-0.117664 0 0.00239016)
(-0.120187 0 -0.000942204)
(-0.118605 0 0.000657256)
(-0.12132 0 -0.00343971)
(-0.119644 0 -0.00154341)
(-0.122581 0 -0.0064447)
(-0.120795 0 -0.00429118)
(-0.123992 0 -0.00978315)
(-0.122077 0 -0.00749537)
(-0.125575 0 -0.0131436)
(-0.123515 0 -0.0108934)
(-0.127352 0 -0.0161764)
(-0.125127 0 -0.0141252)
(-0.129678 0 -0.0190675)
(-0.127088 0 -0.0170913)
(-0.132148 0 -0.0212725)
(-0.129391 0 -0.0195115)
(-0.134735 0 -0.0232608)
(-0.131816 0 -0.0214204)
(-0.137424 0 -0.0255907)
(-0.134334 0 -0.0234221)
(-0.14021 0 -0.0286155)
(-0.136937 0 -0.0260222)
(-0.143097 0 -0.0323545)
(-0.139624 0 -0.0294149)
(-0.146085 0 -0.0365183)
(-0.142401 0 -0.033443)
(-0.149159 0 -0.040639)
(-0.145264 0 -0.0376906)
(-0.152264 0 -0.0442925)
(-0.148186 0 -0.0416546)
(-0.15529 0 -0.0474581)
(-0.151094 0 -0.0450201)
(-0.158058 0 -0.0510188)
(-0.153845 0 -0.0481009)
(-0.160369 0 -0.0571544)
(-0.156234 0 -0.0523776)
(-0.162132 0 -0.0690351)
(-0.158077 0 -0.0606984)
(-0.163582 0 -0.0892281)
(-0.159398 0 -0.0764116)
(-0.165439 0 -0.117041)
(-0.160652 0 -0.10104)
(-0.168821 0 -0.146445)
(-0.162806 0 -0.131396)
(-0.174767 0 -0.166932)
(-0.167044 0 -0.15853)
(-0.1836 0 -0.167982)
(-0.174121 0 -0.170652)
(-0.194667 0 -0.144355)
(-0.18379 0 -0.159064)
(-0.194911 0 -0.122472)
(-0.109555 0 0.0143169)
(-0.108665 0 0.0106567)
(-0.109634 0 0.0195631)
(-0.10879 0 0.0183428)
(-0.109731 0 0.0218824)
(-0.108847 0 0.0211094)
(-0.109842 0 0.0235197)
(-0.108946 0 0.0229954)
(-0.109966 0 0.0247302)
(-0.109064 0 0.0243958)
(-0.110101 0 0.0255988)
(-0.109191 0 0.0254236)
(-0.110248 0 0.0261588)
(-0.10933 0 0.0261378)
(-0.110406 0 0.0264063)
(-0.109479 0 0.0265467)
(-0.110577 0 0.0263239)
(-0.10964 0 0.0266351)
(-0.110761 0 0.0258949)
(-0.109814 0 0.0263841)
(-0.110961 0 0.0251092)
(-0.110001 0 0.0257799)
(-0.111178 0 0.0239676)
(-0.110204 0 0.0248174)
(-0.111416 0 0.0224858)
(-0.110426 0 0.0235043)
(-0.111679 0 0.0206984)
(-0.110669 0 0.0218656)
(-0.111972 0 0.0186631)
(-0.110938 0 0.0199475)
(-0.112301 0 0.0164609)
(-0.111239 0 0.0178201)
(-0.112673 0 0.014193)
(-0.111578 0 0.0155766)
(-0.113097 0 0.0119708)
(-0.111962 0 0.0133267)
(-0.113579 0 0.00989856)
(-0.1124 0 0.0111828)
(-0.114127 0 0.00804941)
(-0.112898 0 0.00923908)
(-0.114748 0 0.00643912)
(-0.113463 0 0.00754448)
(-0.115446 0 0.00500596)
(-0.114101 0 0.00607763)
(-0.116224 0 0.00360728)
(-0.114814 0 0.00473261)
(-0.117086 0 0.00204294)
(-0.115605 0 0.00332761)
(-0.118039 0 0.000108943)
(-0.116479 0 0.00164452)
(-0.119093 0 -0.0023287)
(-0.117443 0 -0.00050291)
(-0.120262 0 -0.0052646)
(-0.118509 0 -0.00318993)
(-0.121568 0 -0.00852367)
(-0.119694 0 -0.00632338)
(-0.12303 0 -0.0117971)
(-0.121019 0 -0.00964156)
(-0.124668 0 -0.0147412)
(-0.122502 0 -0.0127892)
(-0.126804 0 -0.0175355)
(-0.124301 0 -0.0156672)
(-0.129062 0 -0.0196603)
(-0.126404 0 -0.0180062)
(-0.131416 0 -0.0215832)
(-0.128608 0 -0.0198512)
(-0.133848 0 -0.0238553)
(-0.130883 0 -0.0218003)
(-0.136355 0 -0.0268232)
(-0.133221 0 -0.024351)
(-0.138938 0 -0.0305044)
(-0.135619 0 -0.0276927)
(-0.141597 0 -0.0346152)
(-0.138082 0 -0.0316704)
(-0.144315 0 -0.0387046)
(-0.140605 0 -0.0358788)
(-0.147039 0 -0.0423792)
(-0.143162 0 -0.0398383)
(-0.149664 0 -0.0456594)
(-0.145678 0 -0.0432702)
(-0.152022 0 -0.049457)
(-0.148019 0 -0.046529)
(-0.153931 0 -0.0559206)
(-0.149994 0 -0.0511052)
(-0.155326 0 -0.0680754)
(-0.151442 0 -0.0597682)
(-0.15646 0 -0.0882235)
(-0.152413 0 -0.0756557)
(-0.158036 0 -0.115393)
(-0.153372 0 -0.0999889)
(-0.161087 0 -0.143474)
(-0.155238 0 -0.129362)
(-0.166502 0 -0.162237)
(-0.15907 0 -0.15492)
(-0.174446 0 -0.161715)
(-0.165452 0 -0.165355)
(-0.184188 0 -0.137156)
(-0.17402 0 -0.152569)
(-0.183618 0 -0.115574)
(-0.107891 0 0.0144989)
(-0.106989 0 0.0107813)
(-0.107966 0 0.019823)
(-0.107112 0 0.018577)
(-0.108059 0 0.0221775)
(-0.107164 0 0.0213859)
(-0.108167 0 0.0238381)
(-0.10726 0 0.023299)
(-0.108286 0 0.0250647)
(-0.107373 0 0.0247177)
(-0.108416 0 0.0259456)
(-0.107496 0 0.0257586)
(-0.108557 0 0.0265161)
(-0.107629 0 0.0264833)
(-0.108709 0 0.0267735)
(-0.107773 0 0.0269017)
(-0.108873 0 0.0267014)
(-0.107927 0 0.0269994)
(-0.109049 0 0.0262837)
(-0.108093 0 0.0267584)
(-0.10924 0 0.0255111)
(-0.108272 0 0.0261654)
(-0.109447 0 0.0243855)
(-0.108465 0 0.0252164)
(-0.109673 0 0.0229234)
(-0.108675 0 0.0239201)
(-0.109922 0 0.0211606)
(-0.108906 0 0.0223023)
(-0.110199 0 0.0191555)
(-0.10916 0 0.0204102)
(-0.110509 0 0.0169896)
(-0.109444 0 0.0183147)
(-0.11086 0 0.0147643)
(-0.109763 0 0.0161091)
(-0.111258 0 0.0125902)
(-0.110124 0 0.0139029)
(-0.11171 0 0.01057)
(-0.110534 0 0.0118075)
(-0.112224 0 0.00877488)
(-0.111 0 0.00991508)
(-0.112804 0 0.00721826)
(-0.111528 0 0.00827237)
(-0.113455 0 0.00583658)
(-0.112122 0 0.00685581)
(-0.114179 0 0.00448659)
(-0.112784 0 0.00555816)
(-0.11498 0 0.00296935)
(-0.113518 0 0.00419785)
(-0.115862 0 0.00108376)
(-0.114326 0 0.00255888)
(-0.116835 0 -0.00130032)
(-0.115216 0 0.000458623)
(-0.117914 0 -0.00417435)
(-0.116197 0 -0.00217439)
(-0.119115 0 -0.00736255)
(-0.117285 0 -0.00524489)
(-0.120458 0 -0.0105589)
(-0.1185 0 -0.0084923)
(-0.121957 0 -0.0134257)
(-0.119855 0 -0.011566)
(-0.123905 0 -0.0161376)
(-0.121493 0 -0.0143685)
(-0.125954 0 -0.0181966)
(-0.1234 0 -0.0166403)
(-0.128077 0 -0.020068)
(-0.125385 0 -0.0184356)
(-0.130258 0 -0.0222963)
(-0.127421 0 -0.0203466)
(-0.132489 0 -0.0252219)
(-0.129497 0 -0.0228632)
(-0.134773 0 -0.0288611)
(-0.13161 0 -0.0261702)
(-0.137107 0 -0.0329366)
(-0.133765 0 -0.0301144)
(-0.139473 0 -0.0370137)
(-0.135953 0 -0.0343014)
(-0.14182 0 -0.0407279)
(-0.138147 0 -0.0382734)
(-0.144046 0 -0.0441359)
(-0.140276 0 -0.0417864)
(-0.145993 0 -0.048172)
(-0.142209 0 -0.0452314)
(-0.147496 0 -0.0549483)
(-0.143767 0 -0.0501032)
(-0.148515 0 -0.067346)
(-0.144815 0 -0.0590887)
(-0.149318 0 -0.08742)
(-0.145428 0 -0.0751205)
(-0.150587 0 -0.113956)
(-0.146072 0 -0.0991427)
(-0.15327 0 -0.140802)
(-0.147618 0 -0.127573)
(-0.158115 0 -0.158027)
(-0.151007 0 -0.15169)
(-0.16515 0 -0.156191)
(-0.156665 0 -0.160665)
(-0.173585 0 -0.130962)
(-0.164132 0 -0.146947)
(-0.172255 0 -0.109785)
(-0.1062 0 0.0146731)
(-0.105289 0 0.0108999)
(-0.106272 0 0.0200728)
(-0.105409 0 0.0188016)
(-0.106362 0 0.0224617)
(-0.105457 0 0.0216519)
(-0.106465 0 0.0241447)
(-0.10555 0 0.0235913)
(-0.10658 0 0.0253868)
(-0.105659 0 0.0250277)
(-0.106705 0 0.026279)
(-0.105777 0 0.0260808)
(-0.106841 0 0.026859)
(-0.105905 0 0.0268151)
(-0.106987 0 0.0271254)
(-0.106043 0 0.027242)
(-0.107143 0 0.0270623)
(-0.10619 0 0.0273479)
(-0.107311 0 0.0266544)
(-0.106349 0 0.0271155)
(-0.107493 0 0.0258935)
(-0.106519 0 0.0265323)
(-0.107689 0 0.024782)
(-0.106702 0 0.0255952)
(-0.107903 0 0.0233377)
(-0.106901 0 0.0243137)
(-0.108138 0 0.0215971)
(-0.107119 0 0.0227147)
(-0.108399 0 0.0196195)
(-0.107358 0 0.0208461)
(-0.108691 0 0.0174869)
(-0.107625 0 0.0187796)
(-0.10902 0 0.0153005)
(-0.107924 0 0.0166087)
(-0.109393 0 0.0131704)
(-0.108262 0 0.0144425)
(-0.109816 0 0.0111978)
(-0.108645 0 0.0123912)
(-0.110295 0 0.00945181)
(-0.109079 0 0.0105454)
(-0.110834 0 0.00794374)
(-0.109569 0 0.00894963)
(-0.111438 0 0.00660833)
(-0.11012 0 0.00757815)
(-0.112109 0 0.00530179)
(-0.110733 0 0.00632253)
(-0.112848 0 0.00382633)
(-0.11141 0 0.00500148)
(-0.113661 0 0.00198362)
(-0.112153 0 0.00340107)
(-0.114555 0 -0.000352941)
(-0.112968 0 0.00134204)
(-0.115544 0 -0.00317204)
(-0.113866 0 -0.00124361)
(-0.116642 0 -0.00629754)
(-0.114859 0 -0.00425878)
(-0.117867 0 -0.00942644)
(-0.115964 0 -0.00744428)
(-0.119229 0 -0.0122271)
(-0.117194 0 -0.0104543)
(-0.120992 0 -0.014871)
(-0.118674 0 -0.0131935)
(-0.122834 0 -0.0168788)
(-0.120386 0 -0.0154118)
(-0.124731 0 -0.0187136)
(-0.122157 0 -0.0171714)
(-0.126663 0 -0.0209131)
(-0.123957 0 -0.0190587)
(-0.128623 0 -0.0238115)
(-0.125775 0 -0.021556)
(-0.130612 0 -0.0274243)
(-0.127609 0 -0.0248442)
(-0.132626 0 -0.0314805)
(-0.129459 0 -0.0287719)
(-0.134646 0 -0.0355621)
(-0.131318 0 -0.032955)
(-0.13662 0 -0.039332)
(-0.133155 0 -0.0369571)
(-0.138449 0 -0.0428806)
(-0.1349 0 -0.0405668)
(-0.139985 0 -0.0471598)
(-0.136427 0 -0.0442077)
(-0.14108 0 -0.0542396)
(-0.13757 0 -0.0493731)
(-0.141717 0 -0.0668585)
(-0.138216 0 -0.0586643)
(-0.142175 0 -0.086838)
(-0.138461 0 -0.0748151)
(-0.143114 0 -0.112754)
(-0.138774 0 -0.0985167)
(-0.145398 0 -0.138453)
(-0.139973 0 -0.12605)
(-0.149644 0 -0.154317)
(-0.142886 0 -0.14886)
(-0.155762 0 -0.151404)
(-0.147802 0 -0.156587)
(-0.16292 0 -0.125746)
(-0.15418 0 -0.142175)
(-0.16088 0 -0.105061)
(-0.104487 0 0.0148396)
(-0.103568 0 0.0110127)
(-0.104556 0 0.0203127)
(-0.103686 0 0.019017)
(-0.104642 0 0.0227352)
(-0.103731 0 0.0219077)
(-0.104742 0 0.02444)
(-0.10382 0 0.0238728)
(-0.104852 0 0.0256966)
(-0.103925 0 0.025326)
(-0.104973 0 0.0265994)
(-0.104039 0 0.0263905)
(-0.105103 0 0.0271879)
(-0.104161 0 0.0271334)
(-0.105242 0 0.0274621)
(-0.104293 0 0.0275678)
(-0.105392 0 0.0274068)
(-0.104434 0 0.0276807)
(-0.105552 0 0.0270074)
(-0.104585 0 0.0274556)
(-0.105724 0 0.0262565)
(-0.104747 0 0.0268808)
(-0.10591 0 0.0251575)
(-0.104921 0 0.0259539)
(-0.106112 0 0.0237289)
(-0.105109 0 0.0246853)
(-0.106334 0 0.0220083)
(-0.105313 0 0.0231029)
(-0.106579 0 0.0200556)
(-0.105538 0 0.0212555)
(-0.106852 0 0.0179532)
(-0.105788 0 0.0192151)
(-0.107159 0 0.0158023)
(-0.106067 0 0.0170756)
(-0.107507 0 0.0137122)
(-0.106381 0 0.0149456)
(-0.1079 0 0.0117828)
(-0.106737 0 0.0129343)
(-0.108345 0 0.0100812)
(-0.10714 0 0.0111306)
(-0.108845 0 0.00861659)
(-0.107594 0 0.00957676)
(-0.109403 0 0.00732216)
(-0.108102 0 0.00824526)
(-0.11002 0 0.00605365)
(-0.108665 0 0.00702646)
(-0.110699 0 0.0046144)
(-0.109286 0 0.00573938)
(-0.111443 0 0.00280871)
(-0.109965 0 0.00417205)
(-0.11226 0 0.000513269)
(-0.110708 0 0.00214841)
(-0.113159 0 -0.0022581)
(-0.111523 0 -0.000396374)
(-0.114156 0 -0.00532916)
(-0.112423 0 -0.00336372)
(-0.115264 0 -0.00840001)
(-0.11342 0 -0.00649599)
(-0.116492 0 -0.0111449)
(-0.114526 0 -0.0094523)
(-0.118072 0 -0.0137341)
(-0.115851 0 -0.0121401)
(-0.119712 0 -0.0157043)
(-0.117373 0 -0.0143184)
(-0.121385 0 -0.0175165)
(-0.118932 0 -0.016056)
(-0.123073 0 -0.0197016)
(-0.120501 0 -0.0179336)
(-0.124767 0 -0.0225885)
(-0.122068 0 -0.0204265)
(-0.126466 0 -0.0261914)
(-0.123627 0 -0.0237114)
(-0.128165 0 -0.0302457)
(-0.125178 0 -0.0276392)
(-0.129844 0 -0.0343491)
(-0.126711 0 -0.0318362)
(-0.13145 0 -0.0381908)
(-0.128196 0 -0.0358864)
(-0.132887 0 -0.0418925)
(-0.129563 0 -0.039609)
(-0.134014 0 -0.0464191)
(-0.130687 0 -0.0434563)
(-0.1347 0 -0.053795)
(-0.131418 0 -0.0489152)
(-0.13495 0 -0.0666169)
(-0.13166 0 -0.058498)
(-0.135052 0 -0.0864883)
(-0.131532 0 -0.0747471)
(-0.13564 0 -0.111806)
(-0.131499 0 -0.0981245)
(-0.137499 0 -0.136447)
(-0.132327 0 -0.124811)
(-0.141124 0 -0.151118)
(-0.134738 0 -0.146443)
(-0.146325 0 -0.147342)
(-0.138901 0 -0.153119)
(-0.152243 0 -0.121469)
(-0.144208 0 -0.13823)
(-0.149541 0 -0.101351)
(-0.102756 0 0.0149988)
(-0.101833 0 0.0111199)
(-0.102823 0 0.020543)
(-0.101948 0 0.0192234)
(-0.102906 0 0.0229983)
(-0.101989 0 0.0221536)
(-0.103001 0 0.0247241)
(-0.102075 0 0.0241436)
(-0.103108 0 0.0259945)
(-0.102176 0 0.0256129)
(-0.103224 0 0.0269069)
(-0.102285 0 0.026688)
(-0.103348 0 0.027503)
(-0.102403 0 0.0274386)
(-0.103482 0 0.0277838)
(-0.102529 0 0.0278792)
(-0.103624 0 0.027735)
(-0.102664 0 0.027998)
(-0.103776 0 0.0273428)
(-0.102808 0 0.0277789)
(-0.10394 0 0.0266004)
(-0.102961 0 0.027211)
(-0.104115 0 0.0255121)
(-0.103125 0 0.0262926)
(-0.104305 0 0.0240972)
(-0.103302 0 0.0250352)
(-0.104513 0 0.0223943)
(-0.103494 0 0.0234672)
(-0.104742 0 0.0204638)
(-0.103704 0 0.0216384)
(-0.104997 0 0.0183886)
(-0.103937 0 0.0196213)
(-0.105283 0 0.0162697)
(-0.104197 0 0.01751)
(-0.105606 0 0.0142157)
(-0.104488 0 0.0154126)
(-0.10597 0 0.0123252)
(-0.104818 0 0.0134373)
(-0.106381 0 0.0106633)
(-0.105189 0 0.0116711)
(-0.106841 0 0.00923722)
(-0.105607 0 0.0101545)
(-0.107354 0 0.00797867)
(-0.106073 0 0.00885801)
(-0.107919 0 0.00674296)
(-0.106588 0 0.00767095)
(-0.108539 0 0.00533454)
(-0.107153 0 0.00641265)
(-0.109215 0 0.0035602)
(-0.10777 0 0.00487305)
(-0.109955 0 0.00129971)
(-0.108442 0 0.00287904)
(-0.110767 0 -0.00143092)
(-0.109176 0 0.000368698)
(-0.111664 0 -0.00445552)
(-0.109983 0 -0.00255819)
(-0.112658 0 -0.00747745)
(-0.110875 0 -0.00564571)
(-0.113754 0 -0.0101768)
(-0.11186 0 -0.0085579)
(-0.115155 0 -0.0127243)
(-0.113032 0 -0.0112059)
(-0.116597 0 -0.0146701)
(-0.114368 0 -0.0133574)
(-0.118051 0 -0.0164732)
(-0.115721 0 -0.0150865)
(-0.119499 0 -0.0186585)
(-0.117064 0 -0.0169682)
(-0.120933 0 -0.0215492)
(-0.118383 0 -0.0194711)
(-0.122347 0 -0.0251587)
(-0.119673 0 -0.0227683)
(-0.123737 0 -0.0292287)
(-0.120931 0 -0.0267129)
(-0.125079 0 -0.0333719)
(-0.122145 0 -0.0309413)
(-0.126322 0 -0.0373026)
(-0.123284 0 -0.0350576)
(-0.127371 0 -0.0411706)
(-0.124277 0 -0.0389098)
(-0.128093 0 -0.0459499)
(-0.125004 0 -0.0429749)
(-0.128373 0 -0.0536154)
(-0.125325 0 -0.0487285)
(-0.128233 0 -0.0666247)
(-0.125165 0 -0.0585917)
(-0.127969 0 -0.0863787)
(-0.124659 0 -0.0749228)
(-0.128189 0 -0.111123)
(-0.124267 0 -0.097978)
(-0.129599 0 -0.134798)
(-0.124703 0 -0.123871)
(-0.132588 0 -0.148433)
(-0.126591 0 -0.14445)
(-0.136879 0 -0.143992)
(-0.129995 0 -0.150259)
(-0.141596 0 -0.118094)
(-0.134255 0 -0.135084)
(-0.138277 0 -0.0986082)
(-0.101013 0 0.0151509)
(-0.100086 0 0.0112217)
(-0.101076 0 0.020764)
(-0.1002 0 0.0194211)
(-0.101156 0 0.0232514)
(-0.100238 0 0.0223898)
(-0.101248 0 0.0249974)
(-0.10032 0 0.0244042)
(-0.101351 0 0.0262808)
(-0.100417 0 0.0258888)
(-0.101462 0 0.0272018)
(-0.100522 0 0.0269736)
(-0.101581 0 0.0278044)
(-0.100635 0 0.0277308)
(-0.101709 0 0.0280907)
(-0.100756 0 0.0281767)
(-0.101844 0 0.0280472)
(-0.100884 0 0.0283001)
(-0.101989 0 0.0276607)
(-0.101021 0 0.0280856)
(-0.102143 0 0.0269252)
(-0.101166 0 0.0275231)
(-0.102308 0 0.0258458)
(-0.10132 0 0.0266117)
(-0.102487 0 0.0244427)
(-0.101487 0 0.0253635)
(-0.102681 0 0.0227552)
(-0.101666 0 0.0238079)
(-0.102895 0 0.0208443)
(-0.101862 0 0.0219953)
(-0.103132 0 0.0187933)
(-0.102078 0 0.0199988)
(-0.103397 0 0.016703)
(-0.102318 0 0.0179124)
(-0.103695 0 0.0146814)
(-0.102587 0 0.015844)
(-0.10403 0 0.0128255)
(-0.102891 0 0.0139006)
(-0.104408 0 0.0111987)
(-0.103232 0 0.0121677)
(-0.10483 0 0.00980638)
(-0.103614 0 0.0106837)
(-0.105297 0 0.00857877)
(-0.104038 0 0.00941744)
(-0.105812 0 0.00737082)
(-0.104507 0 0.00825717)
(-0.106373 0 0.00598806)
(-0.105018 0 0.00702261)
(-0.106983 0 0.00423963)
(-0.105573 0 0.00550547)
(-0.107648 0 0.00200812)
(-0.106175 0 0.00353546)
(-0.108375 0 -0.00068853)
(-0.10683 0 0.00105327)
(-0.109174 0 -0.00367448)
(-0.107547 0 -0.00184036)
(-0.110056 0 -0.00665642)
(-0.108336 0 -0.00489142)
(-0.111023 0 -0.00932027)
(-0.109202 0 -0.00776884)
(-0.112249 0 -0.0118387)
(-0.110226 0 -0.0103882)
(-0.113497 0 -0.0137734)
(-0.11138 0 -0.0125257)
(-0.114737 0 -0.015581)
(-0.112532 0 -0.0142593)
(-0.115952 0 -0.0177804)
(-0.113654 0 -0.0161587)
(-0.117129 0 -0.0206898)
(-0.114732 0 -0.0186859)
(-0.118266 0 -0.0243219)
(-0.115759 0 -0.0220107)
(-0.119352 0 -0.0284247)
(-0.11673 0 -0.0259887)
(-0.120364 0 -0.0326258)
(-0.117632 0 -0.0302663)
(-0.12125 0 -0.0366631)
(-0.118431 0 -0.0344671)
(-0.121916 0 -0.0407118)
(-0.119056 0 -0.0384657)
(-0.122238 0 -0.0457507)
(-0.119392 0 -0.0427606)
(-0.122114 0 -0.0537015)
(-0.119308 0 -0.0488113)
(-0.121582 0 -0.0668859)
(-0.118748 0 -0.058946)
(-0.120946 0 -0.0865175)
(-0.117861 0 -0.0753471)
(-0.120782 0 -0.110719)
(-0.117099 0 -0.0980871)
(-0.121725 0 -0.133515)
(-0.117126 0 -0.123242)
(-0.124065 0 -0.146266)
(-0.118474 0 -0.14289)
(-0.127456 0 -0.141338)
(-0.121117 0 -0.147998)
(-0.131015 0 -0.115583)
(-0.124353 0 -0.132712)
(-0.12712 0 -0.0967849)
(-0.0992614 0 0.0152961)
(-0.0983346 0 0.0113183)
(-0.0993223 0 0.0209761)
(-0.0984455 0 0.0196104)
(-0.0993988 0 0.0234946)
(-0.09848 0 0.0226167)
(-0.0994874 0 0.0252602)
(-0.0985589 0 0.0246546)
(-0.0995857 0 0.0265558)
(-0.0986527 0 0.0261539)
(-0.0996923 0 0.0274845)
(-0.0987534 0 0.0272475)
(-0.0998065 0 0.0280926)
(-0.0988615 0 0.0280104)
(-0.0999281 0 0.0283832)
(-0.0989768 0 0.0284605)
(-0.100057 0 0.0283437)
(-0.099099 0 0.0285873)
(-0.100194 0 0.0279616)
(-0.0992283 0 0.0283762)
(-0.100339 0 0.0272314)
(-0.0993654 0 0.0278176)
(-0.100495 0 0.0261592)
(-0.0995109 0 0.0269114)
(-0.100662 0 0.0247659)
(-0.0996663 0 0.0256706)
(-0.100843 0 0.0230914)
(-0.0998337 0 0.0241253)
(-0.101041 0 0.0211976)
(-0.100015 0 0.0223266)
(-0.10126 0 0.0191679)
(-0.100215 0 0.0203479)
(-0.101504 0 0.0171029)
(-0.100436 0 0.0182834)
(-0.101778 0 0.0151098)
(-0.100684 0 0.0162406)
(-0.102086 0 0.0132845)
(-0.100961 0 0.0143253)
(-0.102431 0 0.0116884)
(-0.101272 0 0.0126214)
(-0.102815 0 0.0103252)
(-0.101619 0 0.0111655)
(-0.103239 0 0.00912372)
(-0.102004 0 0.00992475)
(-0.103703 0 0.00793862)
(-0.102426 0 0.00878648)
(-0.104208 0 0.00657644)
(-0.102885 0 0.00757074)
(-0.104753 0 0.00484856)
(-0.103381 0 0.00607096)
(-0.105344 0 0.00264014)
(-0.103915 0 0.00411945)
(-0.105988 0 -2.91782e-05)
(-0.104493 0 0.00165927)
(-0.106692 0 -0.00298411)
(-0.105122 0 -0.00120812)
(-0.107464 0 -0.00593475)
(-0.10581 0 -0.00423077)
(-0.108305 0 -0.00857279)
(-0.106561 0 -0.00708248)
(-0.109362 0 -0.0110747)
(-0.10744 0 -0.00968413)
(-0.11042 0 -0.013011)
(-0.108417 0 -0.01182)
(-0.111453 0 -0.0148363)
(-0.109374 0 -0.0135709)
(-0.112439 0 -0.0170636)
(-0.110281 0 -0.0155012)
(-0.113368 0 -0.0200063)
(-0.111125 0 -0.0180668)
(-0.114232 0 -0.0236768)
(-0.111895 0 -0.0214344)
(-0.115022 0 -0.0278294)
(-0.112586 0 -0.0254622)
(-0.115711 0 -0.0321063)
(-0.113183 0 -0.0298067)
(-0.116247 0 -0.036268)
(-0.113649 0 -0.0341101)
(-0.116537 0 -0.0405122)
(-0.113914 0 -0.0382723)
(-0.116463 0 -0.0458184)
(-0.113864 0 -0.0428096)
(-0.115939 0 -0.0540525)
(-0.113382 0 -0.0491609)
(-0.115017 0 -0.0674032)
(-0.112425 0 -0.0595607)
(-0.114002 0 -0.0869121)
(-0.111156 0 -0.0760237)
(-0.113442 0 -0.110604)
(-0.110016 0 -0.0984603)
(-0.113902 0 -0.132609)
(-0.109618 0 -0.122935)
(-0.115586 0 -0.144614)
(-0.110412 0 -0.141767)
(-0.11809 0 -0.139362)
(-0.112296 0 -0.146329)
(-0.120529 0 -0.113902)
(-0.114536 0 -0.131086)
(-0.116098 0 -0.0958382)
(-0.0975065 0 0.0154345)
(-0.0965815 0 0.0114097)
(-0.0975646 0 0.0211792)
(-0.09669 0 0.0197912)
(-0.097638 0 0.0237281)
(-0.0967213 0 0.0228343)
(-0.0977231 0 0.0255126)
(-0.0967969 0 0.0248951)
(-0.0978175 0 0.0268196)
(-0.096887 0 0.0264083)
(-0.0979196 0 0.0277552)
(-0.0969835 0 0.0275099)
(-0.0980287 0 0.0283677)
(-0.097087 0 0.0282777)
(-0.0981445 0 0.0286616)
(-0.0971969 0 0.0287309)
(-0.098267 0 0.0286249)
(-0.097313 0 0.02886)
(-0.0983964 0 0.0282456)
(-0.0974355 0 0.0286509)
(-0.0985334 0 0.0275193)
(-0.0975646 0 0.0280947)
(-0.098679 0 0.0264525)
(-0.0977011 0 0.0271922)
(-0.0988347 0 0.025067)
(-0.0978461 0 0.025957)
(-0.0990027 0 0.0234035)
(-0.0980015 0 0.0244199)
(-0.0991859 0 0.0215242)
(-0.0981696 0 0.0226327)
(-0.0993876 0 0.0195129)
(-0.0983533 0 0.0206692)
(-0.0996116 0 0.01747)
(-0.0985561 0 0.0186237)
(-0.0998619 0 0.0155019)
(-0.0987819 0 0.016603)
(-0.100142 0 0.0137031)
(-0.0990342 0 0.014712)
(-0.100455 0 0.0121335)
(-0.0993161 0 0.0130331)
(-0.100802 0 0.0107949)
(-0.0996296 0 0.0116011)
(-0.101184 0 0.00961491)
(-0.0999754 0 0.0103813)
(-0.1016 0 0.00844788)
(-0.100353 0 0.00926042)
(-0.102049 0 0.00710135)
(-0.10076 0 0.00805875)
(-0.102532 0 0.00538877)
(-0.101198 0 0.00657137)
(-0.103051 0 0.0031977)
(-0.101666 0 0.00463302)
(-0.103614 0 0.000549213)
(-0.10217 0 0.00218889)
(-0.104225 0 -0.00238213)
(-0.102714 0 -0.000659087)
(-0.104891 0 -0.00530988)
(-0.103304 0 -0.00366112)
(-0.10561 0 -0.00793148)
(-0.103943 0 -0.0064959)
(-0.106501 0 -0.0104288)
(-0.104681 0 -0.00909033)
(-0.107376 0 -0.0123792)
(-0.105488 0 -0.0112366)
(-0.108206 0 -0.0142351)
(-0.106255 0 -0.0130172)
(-0.108971 0 -0.0165037)
(-0.106954 0 -0.0149915)
(-0.109657 0 -0.0194942)
(-0.107569 0 -0.0176093)
(-0.110257 0 -0.0232189)
(-0.10809 0 -0.0210346)
(-0.110758 0 -0.0274383)
(-0.108509 0 -0.0251284)
(-0.111132 0 -0.031809)
(-0.108809 0 -0.0295573)
(-0.111325 0 -0.0361126)
(-0.108951 0 -0.0339817)
(-0.111246 0 -0.0405674)
(-0.108863 0 -0.0383247)
(-0.110785 0 -0.0461493)
(-0.108437 0 -0.0431171)
(-0.109865 0 -0.054666)
(-0.107562 0 -0.0497737)
(-0.108555 0 -0.0681775)
(-0.106214 0 -0.0604345)
(-0.107157 0 -0.0875678)
(-0.104564 0 -0.0769553)
(-0.10619 0 -0.110787)
(-0.103038 0 -0.0991047)
(-0.106155 0 -0.132087)
(-0.102203 0 -0.122959)
(-0.107179 0 -0.143475)
(-0.102434 0 -0.141085)
(-0.10881 0 -0.138045)
(-0.103561 0 -0.145241)
(-0.110168 0 -0.113014)
(-0.104831 0 -0.13018)
(-0.105237 0 -0.0957277)
(-0.0957526 0 0.0155662)
(-0.0948315 0 0.0114961)
(-0.095808 0 0.0213736)
(-0.0949376 0 0.0199636)
(-0.0958782 0 0.0239521)
(-0.0949657 0 0.0230426)
(-0.0959598 0 0.0257548)
(-0.095038 0 0.0251257)
(-0.0960503 0 0.0270724)
(-0.0951244 0 0.0266522)
(-0.096148 0 0.0280141)
(-0.0952168 0 0.0277611)