/*--------------------------------*- C++ -*----------------------------------*\
  =========                 |
  \\      /  F ield         | OpenFOAM: The Open Source CFD Toolbox
   \\    /   O peration     | Website:  https://openfoam.org
    \\  /    A nd           | Version:  9
     \\/     M anipulation  |
\*---------------------------------------------------------------------------*/
FoamFile
{
    format      ascii;
    class       volScalarField;
    location    "0.11";
    object      p_rgh;
}
// * * * * * * * * * * * * * * * * * * * * * * * * * * * * * * * * * * * * * //

dimensions      [1 -1 -2 0 0 0 0];

internalField   nonuniform List<scalar> 
5000
(
-0.000355397
-0.00109093
-0.00188356
-0.00270858
-0.00356893
-0.00446654
-0.0054035
-0.00638203
-0.00740436
-0.00847257
-0.00958843
-0.0107533
-0.0119682
-0.0132332
-0.014548
-0.0159113
-0.0173211
-0.0187756
-0.020273
-0.0218129
-0.0233974
-0.0250327
-0.0267311
-0.0285129
-0.0304077
-0.0324556
-0.034708
-0.0372274
-0.040087
-0.043361
-0.0474462
-0.0524434
-0.0579311
-0.0638727
-0.0702162
-0.0769444
-0.0841114
-0.0918583
-0.100387
-0.109907
-0.120578
-0.132475
-0.145615
-0.160051
-0.175979
-0.193759
-0.213834
-0.236627
-0.262539
-0.292143
-0.00037093
-0.00114026
-0.00196878
-0.00283127
-0.00373083
-0.00466947
-0.00564934
-0.00667271
-0.00774192
-0.00885913
-0.0100263
-0.011245
-0.0125163
-0.0138409
-0.0152186
-0.0166483
-0.0181288
-0.0196585
-0.0212363
-0.0228625
-0.02454
-0.026276
-0.0280837
-0.0299842
-0.0320078
-0.0341952
-0.0365984
-0.0392812
-0.0423188
-0.0457882
-0.0501073
-0.0553785
-0.0611568
-0.0674072
-0.074083
-0.0811733
-0.0887379
-0.0969232
-0.105936
-0.115985
-0.127224
-0.139721
-0.153503
-0.16864
-0.185338
-0.203948
-0.224892
-0.248572
-0.275388
-0.305923
-0.000385712
-0.00118718
-0.00204962
-0.00294739
-0.00388372
-0.00486062
-0.00588024
-0.00694486
-0.00805681
-0.00921829
-0.0104313
-0.0116976
-0.0130184
-0.0143945
-0.015826
-0.0173126
-0.0188537
-0.0204486
-0.0220973
-0.0238016
-0.0255659
-0.0273991
-0.029316
-0.0313389
-0.0334984
-0.0358351
-0.0384002
-0.0412561
-0.0444761
-0.0481356
-0.0526673
-0.058168
-0.0641774
-0.0706732
-0.0776272
-0.0850472
-0.0930033
-0.101637
-0.111133
-0.121675
-0.133399
-0.146386
-0.1607
-0.176451
-0.193848
-0.213199
-0.234868
-0.25923
-0.286698
-0.317863
-0.000399261
-0.00123038
-0.00212431
-0.00305491
-0.00402551
-0.00503806
-0.00609465
-0.00719753
-0.00834898
-0.00955121
-0.0108063
-0.012116
-0.0134818
-0.0149045
-0.0163849
-0.0179231
-0.0195192
-0.0211737
-0.022888
-0.024665
-0.0265112
-0.028437
-0.0304589
-0.0325997
-0.0348905
-0.0373713
-0.0400921
-0.0431131
-0.0465053
-0.0503412
-0.0550664
-0.0607715
-0.0669844
-0.0736966
-0.0808998
-0.0886204
-0.096937
-0.105981
-0.115915
-0.126891
-0.139036
-0.152446
-0.167222
-0.183503
-0.201492
-0.221453
-0.2437
-0.268588
-0.296523
-0.328069
-0.00041174
-0.00127025
-0.00219322
-0.00315416
-0.00415645
-0.00520202
-0.00629292
-0.00743132
-0.00861946
-0.00985956
-0.0111537
-0.0125037
-0.013911
-0.0153771
-0.0169027
-0.0184887
-0.0201362
-0.0218463
-0.0236218
-0.025467
-0.0273899
-0.0294025
-0.0315221
-0.0337723
-0.036184
-0.0387966
-0.041659
-0.0448298
-0.048378
-0.0523741
-0.0572763
-0.0631705
-0.0695729
-0.076486
-0.0839167
-0.091906
-0.100539
-0.109939
-0.120248
-0.1316
-0.144112
-0.157894
-0.173071
-0.189796
-0.208259
-0.22869
-0.251373
-0.276648
-0.304892
-0.336603
-0.000423108
-0.00130677
-0.00225647
-0.00324534
-0.0042768
-0.00535278
-0.00647525
-0.00764635
-0.0088683
-0.0101432
-0.0114733
-0.0128602
-0.0143058
-0.0158116
-0.0173788
-0.019009
-0.0207036
-0.0224651
-0.0242972
-0.0262057
-0.0281999
-0.0302927
-0.0325025
-0.034853
-0.0373749
-0.0401069
-0.0430967
-0.0464018
-0.0500895
-0.0542294
-0.0592915
-0.0653578
-0.0719332
-0.0790283
-0.0866626
-0.0948882
-0.103795
-0.1135
-0.124128
-0.135798
-0.148622
-0.162721
-0.178233
-0.195318
-0.214148
-0.234926
-0.257916
-0.28344
-0.31184
-0.343544
-0.000433364
-0.00133993
-0.00231397
-0.00332827
-0.0043863
-0.00548995
-0.00664115
-0.007842
-0.00909464
-0.0104012
-0.0117638
-0.0131842
-0.0146645
-0.0162063
-0.0178113
-0.0194815
-0.0212192
-0.0230277
-0.0249118
-0.0268786
-0.0289385
-0.0311054
-0.0333979
-0.0358399
-0.0384616
-0.0413009
-0.0444044
-0.0478284
-0.0516393
-0.0559059
-0.0611093
-0.0673281
-0.0740568
-0.0813128
-0.0891254
-0.0975557
-0.106696
-0.116657
-0.12755
-0.139481
-0.15256
-0.166916
-0.182698
-0.20006
-0.219159
-0.240177
-0.263357
-0.289003
-0.317427
-0.348988
-0.000442511
-0.00136974
-0.00236576
-0.00340301
-0.00448502
-0.00561365
-0.00679075
-0.00801833
-0.00929852
-0.0106334
-0.0120251
-0.0134755
-0.0149868
-0.0165607
-0.0181995
-0.0199055
-0.0216818
-0.0235327
-0.025464
-0.0274839
-0.0296035
-0.0318378
-0.0342053
-0.0367299
-0.039441
-0.0423757
-0.0455795
-0.0491076
-0.0530259
-0.0574029
-0.062729
-0.0690798
-0.0759407
-0.0833344
-0.0912984
-0.0999006
-0.109234
-0.119404
-0.130508
-0.142644
-0.15592
-0.170475
-0.186459
-0.20402
-0.223297
-0.244456
-0.267727
-0.293391
-0.321726
-0.353039
-0.000450553
-0.00139625
-0.00241193
-0.00346971
-0.00457316
-0.00572408
-0.00692426
-0.00817564
-0.00948028
-0.0108403
-0.0122577
-0.0137346
-0.015273
-0.0168752
-0.0185436
-0.0202811
-0.0220916
-0.02398
-0.0259532
-0.0280205
-0.0301937
-0.032488
-0.0349225
-0.0375202
-0.0403102
-0.0433282
-0.0466189
-0.0502367
-0.054247
-0.0587183
-0.0641488
-0.0706109
-0.0775819
-0.085089
-0.0931762
-0.101917
-0.111404
-0.121735
-0.133
-0.145286
-0.158705
-0.173398
-0.189518
-0.2072
-0.226571
-0.247786
-0.271059
-0.296649
-0.324806
-0.355789
-0.000457506
-0.0014195
-0.00245256
-0.00352845
-0.0046508
-0.00582134
-0.00704178
-0.00831401
-0.00964003
-0.0110219
-0.0124616
-0.0139613
-0.0155232
-0.0171497
-0.0188436
-0.0206082
-0.0224481
-0.0243691
-0.026379
-0.0284876
-0.0307078
-0.0330549
-0.0355479
-0.0382095
-0.0410675
-0.0441569
-0.0475212
-0.0512143
-0.0553013
-0.0598508
-0.0653671
-0.0719194
-0.0789779
-0.0865732
-0.0947545
-0.103599
-0.1132
-0.123649
-0.135024
-0.147409
-0.160916
-0.175689
-0.191879
-0.209611
-0.228998
-0.250188
-0.273383
-0.29882
-0.326726
-0.35732
-0.000463385
-0.00143951
-0.00248765
-0.00357924
-0.00471794
-0.00590543
-0.00714333
-0.00843346
-0.00977776
-0.0111782
-0.0126368
-0.0141557
-0.0157373
-0.0173841
-0.0190992
-0.0208865
-0.0227511
-0.0246996
-0.0267405
-0.0288846
-0.031145
-0.0335375
-0.0360807
-0.0387966
-0.0417123
-0.0448612
-0.048286
-0.0520401
-0.0561886
-0.0608002
-0.0663835
-0.0730043
-0.0801272
-0.0877849
-0.0960311
-0.104946
-0.114622
-0.125144
-0.136583
-0.149016
-0.162558
-0.177355
-0.193551
-0.211263
-0.230595
-0.251688
-0.27473
-0.299945
-0.327539
-0.357705
-0.000468193
-0.00145626
-0.00251717
-0.00362204
-0.00477454
-0.00597632
-0.0072289
-0.00853399
-0.00989345
-0.0113092
-0.0127833
-0.0143179
-0.0159153
-0.0175784
-0.0193105
-0.021116
-0.0230005
-0.0249712
-0.0270376
-0.0292109
-0.0315048
-0.0339351
-0.0365202
-0.0392812
-0.042244
-0.0454408
-0.0489133
-0.0527146
-0.0569096
-0.061567
-0.0671984
-0.0738659
-0.0810296
-0.088724
-0.0970056
-0.105958
-0.115671
-0.126224
-0.137679
-0.150112
-0.163637
-0.178401
-0.194542
-0.212168
-0.231378
-0.252306
-0.27513
-0.300059
-0.327289
-0.356995
-0.000471935
-0.00146977
-0.00254115
-0.00365687
-0.00482065
-0.00603404
-0.00729848
-0.0086156
-0.00998716
-0.011415
-0.0129012
-0.0144479
-0.0160575
-0.0177329
-0.0194778
-0.0212969
-0.0231964
-0.0251842
-0.0272703
-0.0294666
-0.0317871
-0.0342477
-0.0368662
-0.0396631
-0.0426627
-0.045896
-0.0494037
-0.0532386
-0.0574653
-0.0621525
-0.067813
-0.0745053
-0.0816864
-0.0893914
-0.0976794
-0.106635
-0.116348
-0.12689
-0.138318
-0.150703
-0.164161
-0.178837
-0.194863
-0.21234
-0.231366
-0.252067
-0.274611
-0.299197
-0.326017
-0.355234
-0.000474609
-0.00148
-0.00255954
-0.00368366
-0.00485617
-0.00607852
-0.00735203
-0.00867826
-0.0100589
-0.0114957
-0.0129907
-0.014546
-0.016164
-0.0178479
-0.0196014
-0.0214297
-0.0233393
-0.0253389
-0.0274389
-0.0296519
-0.0319921
-0.0344754
-0.0371191
-0.0399426
-0.0429689
-0.0462276
-0.0497584
-0.0536134
-0.0578573
-0.0625584
-0.0682293
-0.0749245
-0.0820995
-0.0897895
-0.0980549
-0.106982
-0.116658
-0.127149
-0.138505
-0.150797
-0.16414
-0.178675
-0.194528
-0.211797
-0.230578
-0.250994
-0.273202
-0.297393
-0.323757
-0.352457
-0.000476217
-0.00148696
-0.00257231
-0.00370239
-0.00488103
-0.00610966
-0.00738948
-0.00872195
-0.0101087
-0.0115514
-0.0130519
-0.0146124
-0.0162353
-0.0179238
-0.0196818
-0.0215148
-0.0234299
-0.025436
-0.0275442
-0.0297676
-0.0321205
-0.034619
-0.0372796
-0.0401207
-0.0431639
-0.0464371
-0.049979
-0.0538411
-0.0580878
-0.0627871
-0.0684497
-0.0751263
-0.0822721
-0.0899215
-0.0981361
-0.107002
-0.116605
-0.127005
-0.13825
-0.150405
-0.163585
-0.177927
-0.193551
-0.210555
-0.229031
-0.249103
-0.270924
-0.294672
-0.320536
-0.348691
-0.000476748
-0.00149059
-0.00257939
-0.00371297
-0.00489521
-0.00612745
-0.00741085
-0.00874674
-0.0101366
-0.0115821
-0.0130851
-0.0146475
-0.0162718
-0.0179611
-0.0197197
-0.0215532
-0.0234689
-0.0254764
-0.0275871
-0.0298145
-0.0321734
-0.0346794
-0.0373488
-0.0401987
-0.0432491
-0.0465263
-0.0500677
-0.0539243
-0.0581598
-0.0628417
-0.0684778
-0.0751144
-0.0822081
-0.0897922
-0.0979282
-0.106702
-0.116197
-0.126469
-0.13756
-0.149537
-0.162508
-0.176606
-0.191949
-0.208631
-0.226746
-0.246416
-0.267794
-0.291052
-0.316376
-0.343949
-0.000476205
-0.00149093
-0.00258081
-0.00371542
-0.00489869
-0.00613193
-0.00741617
-0.00875266
-0.0101428
-0.0115882
-0.0130905
-0.0146516
-0.0162739
-0.0179606
-0.0197159
-0.0215456
-0.0234574
-0.0254611
-0.0275687
-0.029794
-0.0321519
-0.0346581
-0.0373283
-0.0401783
-0.0432265
-0.0464975
-0.0500274
-0.0538661
-0.0580766
-0.0627261
-0.0683176
-0.0748934
-0.0819127
-0.0894069
-0.0974375
-0.10609
-0.115443
-0.125549
-0.136449
-0.148204
-0.160922
-0.174728
-0.189738
-0.206046
-0.223742
-0.242952
-0.26383
-0.286548
-0.311289
-0.33824
-0.000474581
-0.00148794
-0.00257656
-0.00370973
-0.00489149
-0.0061231
-0.0074055
-0.00873986
-0.0101275
-0.0115699
-0.0130685
-0.0146252
-0.0162423
-0.0179229
-0.0196712
-0.021493
-0.0233965
-0.0253915
-0.0274904
-0.0297074
-0.0320577
-0.0345569
-0.0372199
-0.0400616
-0.0430986
-0.0463537
-0.0498613
-0.0536701
-0.0578423
-0.0624446
-0.0679739
-0.0744686
-0.0813918
-0.0887726
-0.0966716
-0.105172
-0.114351
-0.124257
-0.134927
-0.146422
-0.158842
-0.172309
-0.186937
-0.202818
-0.220043
-0.238734
-0.259051
-0.281173
-0.30528
-0.331563
-0.000471881
-0.00148164
-0.00256663
-0.00369595
-0.00487369
-0.00610108
-0.007379
-0.00870853
-0.0100909
-0.0115274
-0.0130195
-0.0145689
-0.0161777
-0.0178488
-0.0195865
-0.0213967
-0.0232874
-0.0252689
-0.0273538
-0.0295565
-0.0318926
-0.0343776
-0.0370259
-0.0398511
-0.0428681
-0.0460979
-0.0495731
-0.0533405
-0.0574615
-0.0620022
-0.0674524
-0.0738463
-0.0806523
-0.0878971
-0.0956393
-0.10396
-0.112933
-0.122604
-0.133009
-0.144205
-0.156286
-0.169367
-0.183562
-0.198967
-0.215668
-0.233783
-0.253477
-0.274938
-0.298353
-0.323912
-0.000468124
-0.0014721
-0.00255114
-0.00367419
-0.00484542
-0.00606603
-0.00733687
-0.00865895
-0.0100334
-0.0114613
-0.0129442
-0.0144833
-0.0160808
-0.0177394
-0.0194631
-0.0212579
-0.0231318
-0.0250951
-0.0271606
-0.0293432
-0.0316587
-0.0341226
-0.0367488
-0.0395497
-0.0425384
-0.045734
-0.0491668
-0.0528821
-0.0569394
-0.0614047
-0.0667592
-0.0730332
-0.079702
-0.0867893
-0.0943507
-0.102465
-0.111201
-0.120605
-0.13071
-0.14157
-0.153271
-0.165921
-0.179635
-0.19451
-0.210635
-0.22812
-0.247127
-0.267858
-0.290511
-0.315279
-0.000463322
-0.00145935
-0.00253018
-0.00364459
-0.00480687
-0.00601825
-0.00727948
-0.00859151
-0.00995538
-0.0113722
-0.012843
-0.0143691
-0.0159524
-0.0175954
-0.019302
-0.0210779
-0.0229309
-0.0248716
-0.0269129
-0.0290698
-0.0313585
-0.0337946
-0.0363915
-0.0391604
-0.0421129
-0.0452659
-0.0486471
-0.0522998
-0.0562819
-0.0606585
-0.0659014
-0.072037
-0.0785493
-0.0854586
-0.0928169
-0.100698
-0.109169
-0.118274
-0.128045
-0.138534
-0.149817
-0.161995
-0.175179
-0.189472
-0.204967
-0.221765
-0.240022
-0.259952
-0.281762
-0.305657
-0.000457513
-0.0014435
-0.00250389
-0.00360735
-0.00475833
-0.00595804
-0.0072072
-0.00850669
-0.00985747
-0.0112605
-0.0127167
-0.0142272
-0.0157936
-0.0174181
-0.0191045
-0.0208581
-0.0226867
-0.0246005
-0.0266128
-0.0287387
-0.0309947
-0.0333965
-0.0359571
-0.0386868
-0.0415956
-0.0446978
-0.0480189
-0.0515992
-0.0554951
-0.0597707
-0.0648867
-0.0708661
-0.0772033
-0.0839154
-0.0910495
-0.0986745
-0.106853
-0.115628
-0.125034
-0.135117
-0.145946
-0.157613
-0.170221
-0.183879
-0.198686
-0.21474
-0.232185
-0.251238
-0.272118
-0.295046
-0.000450733
-0.00142462
-0.00247241
-0.0035627
-0.00470007
-0.00588576
-0.00712045
-0.00840499
-0.00974024
-0.011127
-0.0125661
-0.0140584
-0.0156053
-0.0172086
-0.0188719
-0.0206001
-0.0224007
-0.0242838
-0.0262625
-0.0283523
-0.03057
-0.0329312
-0.035449
-0.0381326
-0.0409904
-0.0440345
-0.0472873
-0.0507863
-0.0545857
-0.0587487
-0.0637237
-0.0695299
-0.0756744
-0.0821707
-0.089061
-0.0964079
-0.104269
-0.112687
-0.121695
-0.131338
-0.141679
-0.152798
-0.164788
-0.177761
-0.191823
-0.20707
-0.223637
-0.241737
-0.261597
-0.283454
-0.000443007
-0.00140282
-0.00243591
-0.00351088
-0.00463243
-0.00580183
-0.00701976
-0.00828702
-0.00960438
-0.0109725
-0.0123921
-0.0138638
-0.0153887
-0.0169683
-0.0186057
-0.0203056
-0.022075
-0.0239237
-0.0258646
-0.0279136
-0.0300875
-0.0324023
-0.0348708
-0.0375017
-0.0403019
-0.043281
-0.046458
-0.0498673
-0.0535607
-0.0576003
-0.0624212
-0.0680387
-0.0739737
-0.0802366
-0.0868646
-0.0939134
-0.101436
-0.10947
-0.11805
-0.127221
-0.13704
-0.147576
-0.15891
-0.171149
-0.184408
-0.198785
-0.214407
-0.231475
-0.25022
-0.270894
-0.000434393
-0.00137826
-0.00239466
-0.00345224
-0.00455585
-0.00570679
-0.00690574
-0.00815345
-0.00945064
-0.0107979
-0.0121957
-0.0136444
-0.0151449
-0.0166984
-0.0183075
-0.0199764
-0.0217116
-0.0235224
-0.0254218
-0.0274254
-0.0295505
-0.0318133
-0.0342265
-0.0367985
-0.0395347
-0.0424422
-0.0455367
-0.0488487
-0.0524275
-0.0563339
-0.0609885
-0.0664032
-0.0721134
-0.0781265
-0.0844746
-0.0912069
-0.0983702
-0.105999
-0.114126
-0.122793
-0.132055
-0.141973
-0.152615
-0.164079
-0.176481
-0.189923
-0.204529
-0.220483
-0.238017
-0.257389
-0.000424953
-0.00135112
-0.00234896
-0.00338716
-0.00447078
-0.00560118
-0.00677901
-0.00800501
-0.00927983
-0.010604
-0.0119777
-0.0134014
-0.0148753
-0.0164004
-0.0179789
-0.0196143
-0.0213125
-0.0230824
-0.0249366
-0.0268908
-0.0289624
-0.0311679
-0.0335202
-0.0360273
-0.0386936
-0.0415237
-0.0445295
-0.0477374
-0.0511938
-0.0549578
-0.0594352
-0.0646342
-0.070106
-0.0758544
-0.0819063
-0.0883049
-0.0950918
-0.102297
-0.109947
-0.118082
-0.126756
-0.136023
-0.145938
-0.156586
-0.16808
-0.180527
-0.194044
-0.208803
-0.225025
-0.242971
-0.00041473
-0.00132151
-0.002299
-0.00331599
-0.00437771
-0.00548558
-0.00664027
-0.00784249
-0.00909286
-0.0103918
-0.0117394
-0.0131358
-0.014581
-0.0160758
-0.0176214
-0.0192211
-0.0208799
-0.0226062
-0.0244121
-0.0263131
-0.0283269
-0.0304702
-0.0327561
-0.0351928
-0.0377836
-0.0405309
-0.0434425
-0.0465406
-0.0498676
-0.053481
-0.057771
-0.0627429
-0.0679644
-0.073435
-0.0791759
-0.0852251
-0.0916193
-0.0983834
-0.105538
-0.113119
-0.121176
-0.129759
-0.138913
-0.148709
-0.15925
-0.170644
-0.183003
-0.196482
-0.211293
-0.227687
-0.000403775
-0.00128959
-0.00224504
-0.00323909
-0.00427711
-0.0053606
-0.00649022
-0.0076667
-0.00889063
-0.0101623
-0.0114818
-0.0128489
-0.0142635
-0.0157258
-0.0172368
-0.0187987
-0.020416
-0.0220963
-0.0238511
-0.0256957
-0.0276478
-0.0297243
-0.0319388
-0.0342998
-0.0368099
-0.0394693
-0.0422821
-0.0452653
-0.0484573
-0.0519129
-0.0560064
-0.0607408
-0.0657017
-0.0708835
-0.0763007
-0.081986
-0.0879729
-0.0942813
-0.100926
-0.107933
-0.115349
-0.123219
-0.131581
-0.14049
-0.150036
-0.160323
-0.171457
-0.183577
-0.196879
-0.211597
-0.000392151
-0.00125555
-0.00218739
-0.00315685
-0.00416947
-0.00522682
-0.00632958
-0.00747847
-0.00867407
-0.00991662
-0.0112061
-0.012542
-0.0139241
-0.0153522
-0.0168267
-0.0183491
-0.019923
-0.0215553
-0.0232566
-0.025042
-0.0269289
-0.0289345
-0.0310731
-0.0333534
-0.0357778
-0.0383448
-0.0410543
-0.0439188
-0.0469712
-0.0502633
-0.0541522
-0.0586401
-0.0633313
-0.0682153
-0.0732986
-0.0786081
-0.0841741
-0.0900137
-0.0961344
-0.102554
-0.10931
-0.116442
-0.123983
-0.131975
-0.14049
-0.149621
-0.159469
-0.170156
-0.181854
-0.194777
-0.000379905
-0.00121955
-0.00212633
-0.00306969
-0.00405534
-0.00508491
-0.00615911
-0.00727868
-0.00844416
-0.00965577
-0.0109133
-0.0122163
-0.0135642
-0.0149564
-0.0163927
-0.0178741
-0.0194031
-0.0209856
-0.0226316
-0.0243554
-0.0261742
-0.0281054
-0.0301638
-0.0323589
-0.0346931
-0.0371631
-0.0397657
-0.042508
-0.0454175
-0.0485414
-0.0522196
-0.0564529
-0.060867
-0.0654461
-0.0701879
-0.0751123
-0.0802465
-0.0856055
-0.0911914
-0.0970121
-0.103094
-0.109471
-0.116168
-0.123213
-0.130662
-0.1386
-0.14711
-0.156294
-0.166303
-0.177319
-0.000367087
-0.00118174
-0.00206216
-0.00297805
-0.00393529
-0.00493557
-0.00597964
-0.00706825
-0.00820194
-0.00938088
-0.0106048
-0.0118732
-0.0131852
-0.0145399
-0.0159367
-0.0173756
-0.0188584
-0.0203899
-0.0219791
-0.0236394
-0.0253877
-0.0272414
-0.029216
-0.0313217
-0.0335614
-0.0359306
-0.0384227
-0.04104
-0.043804
-0.0467569
-0.0502194
-0.0541915
-0.0583221
-0.062591
-0.0669866
-0.0715201
-0.0762146
-0.0810835
-0.0861253
-0.0913386
-0.0967376
-0.102346
-0.108181
-0.114261
-0.120621
-0.127329
-0.134454
-0.142078
-0.15032
-0.159329
-0.000353768
-0.00114233
-0.00199521
-0.00288238
-0.00380989
-0.0047795
-0.00579199
-0.00684812
-0.00794844
-0.0090931
-0.0102818
-0.011514
-0.0127885
-0.0141043
-0.0154602
-0.0168555
-0.0182911
-0.0197706
-0.0213019
-0.0228975
-0.0245734
-0.0263471
-0.0282346
-0.0302473
-0.0323887
-0.0346534
-0.0370321
-0.0395223
-0.0421392
-0.044919
-0.0481625
-0.0518686
-0.0557104
-0.0596649
-0.0637117
-0.0678521
-0.0721029
-0.0764757
-0.0809664
-0.085566
-0.0902761
-0.0951076
-0.100071
-0.10517
-0.110424
-0.115879
-0.121585
-0.1276
-0.134012
-0.14093
-0.000340023
-0.00110152
-0.00192579
-0.00278311
-0.0036797
-0.00461739
-0.00559697
-0.00661923
-0.00768472
-0.00879362
-0.00994562
-0.01114
-0.0123757
-0.0136512
-0.0149649
-0.0163156
-0.0177031
-0.01913
-0.0206028
-0.0221328
-0.0237352
-0.025427
-0.0272249
-0.0291414
-0.0311809
-0.0333379
-0.0356007
-0.0379622
-0.0404312
-0.0430373
-0.0460603
-0.0494968
-0.0530456
-0.0566826
-0.0603799
-0.0641278
-0.0679351
-0.0718101
-0.0757463
-0.079729
-0.0837475
-0.0877996
-0.0918853
-0.0959965
-0.100134
-0.104322
-0.108586
-0.11296
-0.117494
-0.122253
-0.000325913
-0.00105952
-0.00185423
-0.00268071
-0.00354532
-0.00444997
-0.00539545
-0.00638257
-0.00741192
-0.00848367
-0.00959753
-0.0107528
-0.0119482
-0.0131821
-0.0144526
-0.0157578
-0.0170966
-0.0184704
-0.0198845
-0.0213487
-0.022877
-0.0244858
-0.026192
-0.0280094
-0.0299439
-0.0319903
-0.0341351
-0.0363669
-0.0386883
-0.0411213
-0.043924
-0.0470894
-0.0503421
-0.0536594
-0.0570073
-0.0603658
-0.0637339
-0.0671142
-0.0704974
-0.0738638
-0.0771921
-0.0804666
-0.0836755
-0.0867979
-0.0898167
-0.0927328
-0.0955467
-0.0982604
-0.100886
-0.103444
-0.000311491
-0.00101649
-0.00178087
-0.00257568
-0.00340742
-0.00427803
-0.00518835
-0.00613919
-0.00713119
-0.00816454
-0.00923899
-0.0103538
-0.0115076
-0.0126988
-0.013925
-0.0151839
-0.0164735
-0.0177941
-0.0191495
-0.0205481
-0.0220024
-0.0235278
-0.0251411
-0.0268572
-0.0286839
-0.0306168
-0.0326417
-0.0347435
-0.0369182
-0.0391802
-0.0417648
-0.0446598
-0.0476152
-0.0506111
-0.0536107
-0.0565844
-0.0595205
-0.062414
-0.0652512
-0.0680074
-0.0706518
-0.073156
-0.0754953
-0.0776356
-0.0795421
-0.0811923
-0.0825587
-0.0836105
-0.0843192
-0.084656
-0.000296822
-0.000972631
-0.00170605
-0.00246852
-0.00326663
-0.00410237
-0.0049766
-0.00589017
-0.00684375
-0.0078376
-0.00887144
-0.00994455
-0.0110556
-0.0122029
-0.0133839
-0.0145958
-0.0158358
-0.0171031
-0.0184002
-0.0197338
-0.0211148
-0.0225572
-0.0240773
-0.0256909
-0.0274071
-0.0292238
-0.0311269
-0.0330984
-0.035128
-0.0372223
-0.0395929
-0.0422207
-0.0448799
-0.0475546
-0.0502073
-0.0528016
-0.0553151
-0.0577336
-0.060037
-0.0621952
-0.0641685
-0.0659162
-0.0674007
-0.068574
-0.0693845
-0.0697851
-0.0697201
-0.0691249
-0.067928
-0.0660506
-0.000281974
-0.000928152
-0.00163013
-0.00235971
-0.00312359
-0.00392378
-0.00476115
-0.00563661
-0.00655088
-0.00750422
-0.00849643
-0.00952678
-0.010594
-0.0116963
-0.0128312
-0.0139953
-0.0151853
-0.0163994
-0.0176387
-0.0189083
-0.0202172
-0.0215778
-0.0230055
-0.024516
-0.0261203
-0.0278184
-0.0295976
-0.0314381
-0.0333244
-0.035255
-0.0374175
-0.0397841
-0.042151
-0.0445065
-0.046815
-0.0490358
-0.0511374
-0.0530954
-0.0548818
-0.0564599
-0.0577815
-0.0587941
-0.0594467
-0.0596781
-0.0594195
-0.0585987
-0.0571332
-0.0549239
-0.0518554
-0.0477982
-0.000267021
-0.000883259
-0.00155343
-0.00224974
-0.00297893
-0.00374306
-0.00454299
-0.00537966
-0.00625385
-0.00716587
-0.00811553
-0.00910215
-0.0101245
-0.0111809
-0.0122687
-0.0133844
-0.0145241
-0.0156851
-0.0168672
-0.0180739
-0.0193122
-0.0205929
-0.0219297
-0.0233381
-0.0248299
-0.0264076
-0.0280608
-0.0297696
-0.0315142
-0.0332852
-0.0352467
-0.0373605
-0.0394421
-0.0414834
-0.0434521
-0.0453063
-0.0470071
-0.0485206
-0.0498099
-0.0508308
-0.0515263
-0.0518327
-0.0516856
-0.0510098
-0.0497198
-0.0477205
-0.0449016
-0.0411303
-0.0362483
-0.0300746
-0.000252034
-0.000838164
-0.00147633
-0.00213911
-0.00283332
-0.00356102
-0.00432308
-0.00512046
-0.00595399
-0.006824
-0.00773036
-0.00867242
-0.00964907
-0.0106586
-0.0116985
-0.0127651
-0.0138542
-0.0149623
-0.0160879
-0.0172329
-0.0184025
-0.0196054
-0.0208537
-0.0221618
-0.023542
-0.0249986
-0.0265243
-0.0281002
-0.029704
-0.0313197
-0.0330877
-0.034959
-0.0367653
-0.0385008
-0.0401371
-0.0416328
-0.0429448
-0.0440307
-0.0448449
-0.0453351
-0.0454352
-0.0450709
-0.0441646
-0.0426269
-0.0403555
-0.0372348
-0.0331267
-0.027866
-0.0212535
-0.0130573
-0.000237082
-0.000793074
-0.00139916
-0.00202832
-0.0026874
-0.00337847
-0.00410239
-0.00486015
-0.00565259
-0.0064801
-0.00734256
-0.00823938
-0.00916952
-0.0101314
-0.0111226
-0.0121395
-0.0131776
-0.0142329
-0.0153028
-0.0163875
-0.0174903
-0.0186179
-0.0197807
-0.0209913
-0.0222617
-0.0235978
-0.0249952
-0.0264375
-0.0279012
-0.029365
-0.0309471
-0.0325875
-0.0341312
-0.0355728
-0.0368874
-0.0380355
-0.0389719
-0.0396478
-0.0400103
-0.0399984
-0.0395378
-0.038544
-0.0369263
-0.0345817
-0.0313915
-0.02722
-0.0219039
-0.0152475
-0.00701309
0.00308051
-0.000222227
-0.00074817
-0.00132225
-0.00191783
-0.00254178
-0.00319616
-0.00388184
-0.00459981
-0.00535094
-0.00613561
-0.00695375
-0.0078048
-0.00868781
-0.00960134
-0.0105431
-0.0115096
-0.0124965
-0.013499
-0.0145138
-0.0155397
-0.0165779
-0.017633
-0.0187134
-0.0198299
-0.0209936
-0.0222111
-0.0234806
-0.0247889
-0.026113
-0.027428
-0.0288311
-0.0302526
-0.0315484
-0.0327114
-0.0337188
-0.0345336
-0.0351099
-0.0353952
-0.0353301
-0.0348467
-0.0338627
-0.0322843
-0.0300091
-0.0269206
-0.0228847
-0.0177465
-0.0113201
-0.00338192
0.00634052
0.0181749
-0.000207519
-0.000703611
-0.00124587
-0.00180804
-0.002397
-0.00301482
-0.00366232
-0.00434051
-0.00505025
-0.00579194
-0.00656552
-0.00737045
-0.00820587
-0.0090705
-0.00996225
-0.0108778
-0.0118129
-0.0127625
-0.0137229
-0.0146913
-0.0156672
-0.0166528
-0.0176544
-0.0186809
-0.0197417
-0.0208437
-0.0219869
-0.0231615
-0.0243466
-0.0255152
-0.0267456
-0.0279599
-0.0290235
-0.0299259
-0.0306445
-0.031144
-0.0313792
-0.0312953
-0.0308288
-0.0299058
-0.0284378
-0.026323
-0.0234484
-0.0196852
-0.0148853
-0.00887634
-0.00145247
0.00763454
0.0186875
0.0320756
-0.000193006
-0.000659543
-0.00117028
-0.00169934
-0.00225362
-0.00283513
-0.00344468
-0.00408326
-0.0047517
-0.00545043
-0.00617937
-0.00693801
-0.00772558
-0.00854093
-0.0093822
-0.0102463
-0.0111291
-0.0120257
-0.0129318
-0.013844
-0.0147598
-0.0156791
-0.0166058
-0.0175467
-0.0185095
-0.0195
-0.0205198
-0.0215623
-0.0226091
-0.0236334
-0.0246965
-0.0257143
-0.0265615
-0.027223
-0.0276741
-0.0278804
-0.0277971
-0.0273689
-0.0265296
-0.0252012
-0.0232906
-0.0206898
-0.0172773
-0.0129136
-0.00743833
-0.000664121
0.00763159
0.0177176
0.0299219
0.0446482
-0.000178735
-0.000616108
-0.00109573
-0.00159211
-0.00211211
-0.00265773
-0.0032297
-0.00382899
-0.00445641
-0.00511236
-0.00579676
-0.00650912
-0.00724875
-0.00801464
-0.00880515
-0.00961746
-0.0104475
-0.0112908
-0.0121427
-0.0129994
-0.0138571
-0.0147134
-0.0155694
-0.0164295
-0.0172995
-0.0181838
-0.0190846
-0.0199975
-0.0209077
-0.0217897
-0.0226899
-0.0235208
-0.0241667
-0.0246071
-0.0248141
-0.0247523
-0.0243772
-0.0236332
-0.0224529
-0.020756
-0.0184467
-0.015413
-0.0115269
-0.00664073
-0.000584067
0.00684211
0.0158735
0.0267946
0.0399522
0.055776
-0.000164752
-0.000573438
-0.00102244
-0.00148666
-0.00197293
-0.00248319
-0.00301811
-0.00357858
-0.00416538
-0.00477889
-0.00541902
-0.0060853
-0.00677708
-0.00749353
-0.00823319
-0.00899349
-0.00977061
-0.0105602
-0.0113579
-0.0121595
-0.0129605
-0.0137566
-0.014546
-0.0153307
-0.0161138
-0.0168982
-0.0176853
-0.0184729
-0.0192492
-0.0199913
-0.0207324
-0.0213846
-0.0218429
-0.0220815
-0.0220682
-0.0217655
-0.0211282
-0.0201004
-0.0186145
-0.0165895
-0.0139285
-0.0105175
-0.00622497
-0.000897576
0.00564216
0.0136012
0.023224
0.0348046
0.048702
0.0653613
-0.000151095
-0.000531642
-0.000950599
-0.00138327
-0.00183646
-0.00231201
-0.00281053
-0.0033328
-0.00387954
-0.00445111
-0.00504739
-0.00566793
-0.00631216
-0.00697934
-0.00766827
-0.0083766
-0.00910073
-0.00983642
-0.0105797
-0.0113264
-0.0120717
-0.0128098
-0.0135364
-0.0142508
-0.0149534
-0.0156448
-0.0163252
-0.0169931
-0.0176398
-0.0182451
-0.0188312
-0.019312
-0.0195947
-0.0196492
-0.0194385
-0.0189225
-0.0180543
-0.0167776
-0.0150248
-0.0127152
-0.00975263
-0.00602322
-0.00139414
0.0042904
0.0112115
0.0195799
0.0296432
0.0416995
0.0561113
0.0733275
-0.000137801
-0.000490814
-0.000880367
-0.00128219
-0.00170303
-0.00214465
-0.00260752
-0.00309233
-0.00359971
-0.00412997
-0.00468299
-0.00525833
-0.00585544
-0.00647372
-0.00711218
-0.00776875
-0.00844005
-0.00912198
-0.0098107
-0.0105025
-0.0111925
-0.0118742
-0.0125412
-0.01319
-0.0138184
-0.0144242
-0.0150058
-0.0155615
-0.0160843
-0.0165575
-0.0169934
-0.0173096
-0.0174273
-0.0173132
-0.0169266
-0.016224
-0.0151564
-0.0136668
-0.0116879
-0.00914
-0.0059288
-0.0019425
0.00295056
0.00890571
0.0161039
0.0247549
0.0351043
0.0474466
0.0621394
0.0796225
-0.000124902
-0.00045104
-0.00081189
-0.00118363
-0.00157293
-0.00198147
-0.00240956
-0.00285775
-0.00332657
-0.0038163
-0.00432681
-0.00485765
-0.00540829
-0.0059782
-0.00656658
-0.00717172
-0.00779053
-0.00841903
-0.00905344
-0.00969034
-0.0103253
-0.0109515
-0.0115613
-0.0121485
-0.0127085
-0.0132362
-0.0137275
-0.0141794
-0.0145862
-0.0149336
-0.0152254
-0.0153842
-0.0153466
-0.0150778
-0.0145342
-0.0136697
-0.012433
-0.0107664
-0.0086027
-0.00586414
-0.00245908
0.00172066
0.00680336
0.0129409
0.0203104
0.0291159
0.0395949
0.0520313
0.0667677
0.0842226
-0.000112432
-0.000412406
-0.000745311
-0.00108778
-0.00144643
-0.0018228
-0.00221703
-0.00262952
-0.0030607
-0.0035108
-0.0039797
-0.00446694
-0.00497194
-0.00549418
-0.00603306
-0.0065872
-0.00715392
-0.00772946
-0.00831002
-0.00889233
-0.0094724
-0.0100437
-0.0105979
-0.0111269
-0.0116235
-0.01208
-0.0124895
-0.0128471
-0.0131469
-0.0133765
-0.0135321
-0.0135419
-0.0133585
-0.0129474
-0.0122636
-0.0112593
-0.0098816
-0.00807197
-0.00576408
-0.00288217
0.000661747
0.00497097
0.0101685
0.0164001
0.0238351
0.0326674
0.0431205
0.0554598
0.0700037
0.087136
-0.000100422
-0.000374993
-0.000680757
-0.000994838
-0.00132375
-0.00166889
-0.00203024
-0.00240801
-0.00280254
-0.00321402
-0.00364234
-0.00408704
-0.00454744
-0.00502296
-0.00551307
-0.00601678
-0.00653188
-0.00705497
-0.0075823
-0.00811057
-0.00863615
-0.00915312
-0.00965281
-0.0101259
-0.0105633
-0.0109548
-0.0112907
-0.0115635
-0.0117662
-0.0118877
-0.0119167
-0.0117873
-0.0114681
-0.0109264
-0.0101175
-0.00899299
-0.00749934
-0.00557811
-0.00316413
-0.000184289
0.00344499
0.00782105
0.0130598
0.0192985
0.0266955
0.0354298
0.0457052
0.0577614
0.0718823
0.0884054
-8.88965e-05
-0.000338871
-0.000618342
-0.000904934
-0.00120504
-0.00151993
-0.0018494
-0.00219348
-0.0025524
-0.00292635
-0.00331524
-0.0037186
-0.00413564
-0.0045656
-0.00500795
-0.00546196
-0.00592601
-0.0063972
-0.00687193
-0.00734684
-0.00781852
-0.00828162
-0.00872773
-0.00914682
-0.00952825
-0.00985991
-0.0101294
-0.0103266
-0.0104427
-0.0104667
-0.0103803
-0.0101229
-0.009679
-0.00901844
-0.00809828
-0.00687093
-0.00528361
-0.0032789
-0.000793576
0.00224207
0.00590639
0.0102898
0.0154996
0.0216623
0.028922
0.0374389
0.047392
0.0589881
0.0724671
0.0881083
-7.78804e-05
-0.000304104
-0.000558165
-0.000818198
-0.00109046
-0.00137608
-0.00167468
-0.00198613
-0.00231054
-0.0026481
-0.00299877
-0.00336207
-0.0037371
-0.0041229
-0.00451876
-0.00492412
-0.00533786
-0.00575773
-0.00618048
-0.00660275
-0.00702122
-0.00743108
-0.0078244
-0.00819091
-0.008519
-0.00879506
-0.00900448
-0.0091344
-0.00917393
-0.00911155
-0.008922
-0.00854945
-0.00799292
-0.00722563
-0.00620747
-0.00489311
-0.00323181
-0.00116838
0.00135742
0.00441097
0.00806455
0.0124006
0.0175165
0.0235259
0.0305561
0.0387447
0.0482415
0.0592137
0.0718488
0.0863565
-6.73957e-05
-0.000270753
-0.000500319
-0.000734739
-0.000980123
-0.00123746
-0.00150622
-0.00178612
-0.00207717
-0.00237953
-0.0026932
-0.00301775
-0.00335219
-0.00369533
-0.00404623
-0.0044043
-0.0047688
-0.00513813
-0.00550956
-0.00587988
-0.00624587
-0.00660314
-0.00694439
-0.00725948
-0.00753627
-0.00776011
-0.00791469
-0.00798476
-0.00795717
-0.00781929
-0.0075393
-0.00706523
-0.00640924
-0.00554801
-0.00444507
-0.00305851
-0.00134089
0.000759547
0.00329888
0.00633717
0.00993961
0.0141798
0.0191437
0.0249304
0.031648
0.0394089
0.0483292
0.0585314
0.0701427
0.0832932
-5.74639e-05
-0.000238874
-0.000444886
-0.000654649
-0.000874109
-0.00110414
-0.0013441
-0.00159357
-0.00185245
-0.00212084
-0.00239877
-0.00268586
-0.00298111
-0.00328315
-0.00359078
-0.00390321