/*--------------------------------*- C++ -*----------------------------------*\
  =========                 |
  \\      /  F ield         | OpenFOAM: The Open Source CFD Toolbox
   \\    /   O peration     | Website:  https://openfoam.org
    \\  /    A nd           | Version:  9
     \\/     M anipulation  |
\*---------------------------------------------------------------------------*/
FoamFile
{
    format      ascii;
    class       surfaceScalarField;
    location    "0.11";
    object      phi;
}
// * * * * * * * * * * * * * * * * * * * * * * * * * * * * * * * * * * * * * //

dimensions      [0 3 -1 0 0 0 0];

internalField   nonuniform List<scalar> 
9850
(
-8.49507e-07
2.43951e-06
-8.49849e-07
2.57181e-06
-8.50343e-07
2.70856e-06
-8.50962e-07
2.84999e-06
-8.51683e-07
2.99687e-06
-8.52484e-07
3.14984e-06
-8.53352e-07
3.30941e-06
-8.54275e-07
3.47596e-06
-8.55245e-07
3.64981e-06
-8.56256e-07
3.83119e-06
-8.57301e-07
4.02029e-06
-8.58378e-07
4.21727e-06
-8.59487e-07
4.42228e-06
-8.60635e-07
4.63551e-06
-8.6184e-07
4.85726e-06
-8.63133e-07
5.08802e-06
-8.64564e-07
5.32855e-06
-8.66203e-07
5.57999e-06
-8.68137e-07
5.84389e-06
-8.70461e-07
6.12215e-06
-8.73262e-07
6.41678e-06
-8.76601e-07
6.72957e-06
-8.80499e-07
7.06154e-06
-8.84936e-07
7.41261e-06
-8.89862e-07
7.78149e-06
-8.95233e-07
8.16614e-06
-9.01057e-07
8.56466e-06
-9.07424e-07
8.97653e-06
-9.14515e-07
9.40346e-06
-9.22564e-07
9.8493e-06
-9.33423e-07
1.20377e-05
-9.45425e-07
1.20281e-05
-9.58471e-07
1.20243e-05
-9.72422e-07
1.20211e-05
-9.87199e-07
1.20134e-05
-1.00282e-06
1.19988e-05
-1.0194e-06
1.19777e-05
-1.03708e-06
1.19519e-05
-1.056e-06
1.19234e-05
-1.07628e-06
1.18935e-05
-1.09804e-06
1.18628e-05
-1.12137e-06
1.18311e-05
-1.14641e-06
1.17977e-05
-1.17337e-06
1.17627e-05
-1.20264e-06
1.17277e-05
-1.23473e-06
1.16966e-05
-1.27026e-06
1.16761e-05
-1.30978e-06
1.16745e-05
-1.35357e-06
1.16996e-05
1.17568e-05
-8.47118e-07
2.43968e-06
-8.47454e-07
2.57215e-06
-8.4794e-07
2.70905e-06
-8.48552e-07
2.85061e-06
-8.49266e-07
2.99758e-06
-8.50061e-07
3.15063e-06
-8.50922e-07
3.31027e-06
-8.51837e-07
3.47688e-06
-8.52798e-07
3.65077e-06
-8.53797e-07
3.83219e-06
-8.5483e-07
4.02133e-06
-8.55892e-07
4.21833e-06
-8.56985e-07
4.42337e-06
-8.58114e-07
4.63664e-06
-8.59299e-07
4.85844e-06
-8.60569e-07
5.08929e-06
-8.61976e-07
5.32995e-06
-8.63588e-07
5.5816e-06
-8.65491e-07
5.84579e-06
-8.67779e-07
6.12444e-06
-8.70534e-07
6.41954e-06
-8.73817e-07
6.73285e-06
-8.77645e-07
7.06536e-06
-8.81994e-07
7.41696e-06
-8.86815e-07
7.78632e-06
-8.92065e-07
8.17139e-06
-8.9775e-07
8.57034e-06
-9.0396e-07
8.98275e-06
-9.10872e-07
9.41037e-06
-9.18713e-07
9.85715e-06
-9.2928e-07
1.20483e-05
-9.40941e-07
1.20397e-05
-9.53589e-07
1.20369e-05
-9.67081e-07
1.20346e-05
-9.81334e-07
1.20276e-05
-9.96366e-07
1.20139e-05
-1.01227e-06
1.19936e-05
-1.02918e-06
1.19688e-05
-1.04722e-06
1.19415e-05
-1.0665e-06
1.19128e-05
-1.0871e-06
1.18834e-05
-1.1091e-06
1.1853e-05
-1.1326e-06
1.18212e-05
-1.15778e-06
1.17879e-05
-1.18498e-06
1.17549e-05
-1.21467e-06
1.17263e-05
-1.24737e-06
1.17088e-05
-1.28347e-06
1.17107e-05
-1.32312e-06
1.17393e-05
1.17998e-05
-8.44538e-07
2.43984e-06
-8.44866e-07
2.57248e-06
-8.45344e-07
2.70953e-06
-8.45949e-07
2.85121e-06
-8.46655e-07
2.99829e-06
-8.47443e-07
3.15142e-06
-8.48297e-07
3.31112e-06
-8.49204e-07
3.47778e-06
-8.50155e-07
3.65172e-06
-8.51143e-07
3.83318e-06
-8.52162e-07
4.02235e-06
-8.53209e-07
4.21938e-06
-8.54284e-07
4.42445e-06
-8.55394e-07
4.63775e-06
-8.56557e-07
4.85961e-06
-8.57804e-07
5.09054e-06
-8.59185e-07
5.33134e-06
-8.6077e-07
5.58319e-06
-8.62641e-07
5.84767e-06
-8.64889e-07
6.12668e-06
-8.67597e-07
6.42225e-06
-8.7082e-07
6.73607e-06
-8.74573e-07
7.06912e-06
-8.7883e-07
7.42121e-06
-8.83541e-07
7.79103e-06
-8.88662e-07
8.17651e-06
-8.942e-07
8.57588e-06
-9.00244e-07
8.98879e-06
-9.06965e-07
9.41709e-06
-9.14584e-07
9.86476e-06
-9.24842e-07
1.20586e-05
-9.36144e-07
1.2051e-05
-9.48376e-07
1.20492e-05
-9.61389e-07
1.20476e-05
-9.75099e-07
1.20414e-05
-9.89513e-07
1.20283e-05
-1.00472e-06
1.20088e-05
-1.02082e-06
1.1985e-05
-1.03795e-06
1.19586e-05
-1.05618e-06
1.1931e-05
-1.07558e-06
1.19028e-05
-1.0962e-06
1.18737e-05
-1.11812e-06
1.18431e-05
-1.14149e-06
1.18113e-05
-1.16659e-06
1.178e-05
-1.19385e-06
1.17535e-05
-1.22369e-06
1.17387e-05
-1.2564e-06
1.17434e-05
-1.292e-06
1.17749e-05
1.18378e-05
-8.41774e-07
2.44e-06
-8.42095e-07
2.5728e-06
-8.42565e-07
2.71e-06
-8.43162e-07
2.85181e-06
-8.43861e-07
2.99899e-06
-8.44641e-07
3.1522e-06
-8.45487e-07
3.31197e-06
-8.46385e-07
3.47868e-06
-8.47325e-07
3.65266e-06
-8.48301e-07
3.83416e-06
-8.49307e-07
4.02335e-06
-8.50338e-07
4.22041e-06
-8.51395e-07
4.4255e-06
-8.52485e-07
4.63884e-06
-8.53626e-07
4.86075e-06
-8.54849e-07
5.09176e-06
-8.56203e-07
5.33269e-06
-8.57758e-07
5.58474e-06
-8.59594e-07
5.8495e-06
-8.61801e-07
6.12889e-06
-8.64458e-07
6.4249e-06
-8.67616e-07
6.73923e-06
-8.71289e-07
7.07279e-06
-8.7545e-07
7.42538e-06
-8.80045e-07
7.79562e-06
-8.85033e-07
8.1815e-06
-8.90419e-07
8.58127e-06
-8.9629e-07
8.99466e-06
-9.02814e-07
9.42361e-06
-9.10204e-07
9.87215e-06
-9.20141e-07
1.20685e-05
-9.31067e-07
1.2062e-05
-9.42864e-07
1.2061e-05
-9.55378e-07
1.20601e-05
-9.6852e-07
1.20545e-05
-9.82291e-07
1.2042e-05
-9.96768e-07
1.20233e-05
-1.01205e-06
1.20002e-05
-1.02824e-06
1.19748e-05
-1.0454e-06
1.19482e-05
-1.06357e-06
1.1921e-05
-1.08278e-06
1.18929e-05
-1.10308e-06
1.18634e-05
-1.1246e-06
1.18328e-05
-1.14761e-06
1.1803e-05
-1.17244e-06
1.17784e-05
-1.19945e-06
1.17657e-05
-1.22884e-06
1.17728e-05
-1.26051e-06
1.18065e-05
1.18713e-05
-8.38839e-07
2.44015e-06
-8.39152e-07
2.57311e-06
-8.39614e-07
2.71046e-06
-8.40201e-07
2.85239e-06
-8.40892e-07
2.99968e-06
-8.41664e-07
3.15298e-06
-8.42501e-07
3.3128e-06
-8.4339e-07
3.47957e-06
-8.4432e-07
3.65359e-06
-8.45284e-07
3.83512e-06
-8.46275e-07
4.02434e-06
-8.47289e-07
4.22143e-06
-8.48328e-07
4.42654e-06
-8.49397e-07
4.63991e-06
-8.50515e-07
4.86187e-06
-8.51712e-07
5.09296e-06
-8.53038e-07
5.33402e-06
-8.54561e-07
5.58626e-06
-8.5636e-07
5.8513e-06
-8.58523e-07
6.13105e-06
-8.61125e-07
6.42751e-06
-8.64216e-07
6.74232e-06
-8.67807e-07
7.07638e-06
-8.71866e-07
7.42943e-06
-8.76342e-07
7.8001e-06
-8.81192e-07
8.18635e-06
-8.86421e-07
8.5865e-06
-8.92115e-07
9.00035e-06
-8.98435e-07
9.42993e-06
-9.05588e-07
9.87931e-06
-9.15193e-07
1.20781e-05
-9.25732e-07
1.20725e-05
-9.37078e-07
1.20723e-05
-9.49077e-07
1.20721e-05
-9.61636e-07
1.20671e-05
-9.74749e-07
1.20552e-05
-9.88483e-07
1.20371e-05
-1.00293e-06
1.20147e-05
-1.01815e-06
1.199e-05
-1.03422e-06
1.19643e-05
-1.05114e-06
1.19379e-05
-1.06892e-06
1.19107e-05
-1.08759e-06
1.18821e-05
-1.10727e-06
1.18525e-05
-1.12818e-06
1.18239e-05
-1.15061e-06
1.18008e-05
-1.17484e-06
1.17899e-05
-1.20101e-06
1.17989e-05
-1.22894e-06
1.18344e-05
1.19003e-05
-8.35744e-07
2.4403e-06
-8.36048e-07
2.57341e-06
-8.365e-07
2.71091e-06
-8.37078e-07
2.85297e-06
-8.37759e-07
3.00036e-06
-8.38523e-07
3.15374e-06
-8.3935e-07
3.31363e-06
-8.40229e-07
3.48045e-06
-8.41148e-07
3.65451e-06
-8.42098e-07
3.83607e-06
-8.43074e-07
4.02532e-06
-8.44072e-07
4.22242e-06
-8.45091e-07
4.42756e-06
-8.46139e-07
4.64096e-06
-8.47233e-07
4.86296e-06
-8.48404e-07
5.09413e-06
-8.49701e-07
5.33531e-06
-8.5119e-07
5.58775e-06
-8.5295e-07
5.85306e-06
-8.55067e-07
6.13317e-06
-8.57612e-07
6.43005e-06
-8.60633e-07
6.74534e-06
-8.64137e-07
7.07988e-06
-8.68093e-07
7.43339e-06
-8.72446e-07
7.80445e-06
-8.77154e-07
8.19106e-06
-8.82223e-07
8.59157e-06
-8.87734e-07
9.00586e-06
-8.93846e-07
9.43604e-06
-9.00755e-07
9.88622e-06
-9.10018e-07
1.20874e-05
-9.2016e-07
1.20826e-05
-9.31047e-07
1.20832e-05
-9.42521e-07
1.20836e-05
-9.54486e-07
1.2079e-05
-9.66931e-07
1.20676e-05
-9.79909e-07
1.205e-05
-9.93497e-07
1.20283e-05
-1.00775e-06
1.20042e-05
-1.02271e-06
1.19792e-05
-1.03837e-06
1.19536e-05
-1.05472e-06
1.1927e-05
-1.07177e-06
1.18991e-05
-1.08962e-06
1.18703e-05
-1.10844e-06
1.18427e-05
-1.12851e-06
1.18209e-05
-1.15005e-06
1.18115e-05
-1.17313e-06
1.1822e-05
-1.1975e-06
1.18588e-05
1.19254e-05
-8.32498e-07
2.44044e-06
-8.32792e-07
2.57371e-06
-8.33234e-07
2.71135e-06
-8.33801e-07
2.85354e-06
-8.34472e-07
3.00103e-06
-8.35225e-07
3.15449e-06
-8.36043e-07
3.31445e-06
-8.36911e-07
3.48132e-06
-8.37818e-07
3.65542e-06
-8.38755e-07
3.83701e-06
-8.39715e-07
4.02628e-06
-8.40695e-07
4.2234e-06
-8.41694e-07
4.42856e-06
-8.4272e-07
4.64198e-06
-8.43789e-07
4.86403e-06
-8.44933e-07
5.09527e-06
-8.462e-07
5.33658e-06
-8.47655e-07
5.5892e-06
-8.49375e-07
5.85478e-06
-8.51444e-07
6.13524e-06
-8.53931e-07
6.43254e-06
-8.56879e-07
6.74829e-06
-8.60294e-07
7.0833e-06
-8.64143e-07
7.43724e-06
-8.68371e-07
7.80868e-06
-8.72934e-07
8.19562e-06
-8.77839e-07
8.59647e-06
-8.83165e-07
9.01119e-06
-8.89064e-07
9.44194e-06
-8.95725e-07
9.89288e-06
-9.0464e-07
1.20963e-05
-9.14377e-07
1.20924e-05
-9.24798e-07
1.20936e-05
-9.35741e-07
1.20945e-05
-9.47106e-07
1.20904e-05
-9.58875e-07
1.20794e-05
-9.71093e-07
1.20623e-05
-9.83819e-07
1.2041e-05
-9.97099e-07
1.20175e-05
-1.01095e-06
1.19931e-05
-1.02535e-06
1.1968e-05
-1.04027e-06
1.19419e-05
-1.05571e-06
1.19146e-05
-1.07174e-06
1.18864e-05
-1.08853e-06
1.18595e-05
-1.1063e-06
1.18386e-05
-1.12523e-06
1.18304e-05
-1.14535e-06
1.18421e-05
-1.16638e-06
1.18799e-05
1.19467e-05
-8.2911e-07
2.44057e-06
-8.29394e-07
2.57399e-06
-8.29824e-07
2.71178e-06
-8.3038e-07
2.8541e-06
-8.3104e-07
3.00169e-06
-8.31782e-07
3.15523e-06
-8.32589e-07
3.31525e-06
-8.33445e-07
3.48217e-06
-8.34339e-07
3.65631e-06
-8.35262e-07
3.83793e-06
-8.36206e-07
4.02722e-06
-8.37168e-07
4.22437e-06
-8.38147e-07
4.42954e-06
-8.3915e-07
4.64299e-06
-8.40195e-07
4.86507e-06
-8.41311e-07
5.09639e-06
-8.42547e-07
5.33782e-06
-8.43966e-07
5.59062e-06
-8.45646e-07
5.85646e-06
-8.47665e-07
6.13726e-06
-8.50091e-07
6.43496e-06
-8.52966e-07
6.75117e-06
-8.5629e-07
7.08662e-06
-8.6003e-07
7.44098e-06
-8.6413e-07
7.81278e-06
-8.68547e-07
8.20004e-06
-8.73287e-07
8.60121e-06
-8.78425e-07
9.01633e-06
-8.84109e-07
9.44763e-06
-8.90519e-07
9.89929e-06
-8.99082e-07
1.21049e-05
-9.0841e-07
1.21017e-05
-9.18361e-07
1.21036e-05
-9.2877e-07
1.21049e-05
-9.39532e-07
1.21011e-05
-9.50625e-07
1.20905e-05
-9.6208e-07
1.20737e-05
-9.73945e-07
1.20529e-05
-9.8625e-07
1.20298e-05
-9.98994e-07
1.20058e-05
-1.01214e-06
1.19811e-05
-1.02565e-06
1.19554e-05
-1.03951e-06
1.19284e-05
-1.05377e-06
1.19006e-05
-1.06856e-06
1.18743e-05
-1.08409e-06
1.18542e-05
-1.10052e-06
1.18468e-05
-1.11781e-06
1.18594e-05
-1.1357e-06
1.18977e-05
1.19646e-05
-8.25588e-07
2.4407e-06
-8.25861e-07
2.57427e-06
-8.26279e-07
2.7122e-06
-8.26822e-07
2.85464e-06
-8.2747e-07
3.00234e-06
-8.282e-07
3.15596e-06
-8.28995e-07
3.31605e-06
-8.29839e-07
3.48302e-06
-8.3072e-07
3.65719e-06
-8.31628e-07
3.83884e-06
-8.32556e-07
4.02815e-06
-8.335e-07
4.22531e-06
-8.34458e-07
4.4305e-06
-8.35439e-07
4.64397e-06
-8.36458e-07
4.86609e-06
-8.37547e-07
5.09748e-06
-8.38751e-07
5.33902e-06
-8.40135e-07
5.59201e-06
-8.41773e-07
5.8581e-06
-8.43742e-07
6.13923e-06
-8.46106e-07
6.43733e-06
-8.48905e-07
6.75396e-06
-8.52137e-07
7.08986e-06
-8.55767e-07
7.44461e-06
-8.59739e-07
7.81675e-06
-8.64009e-07
8.20431e-06
-8.68581e-07
8.60578e-06
-8.73531e-07
9.02128e-06
-8.78999e-07
9.45309e-06
-8.85156e-07
9.90544e-06
-8.93366e-07
1.21131e-05
-9.02284e-07
1.21106e-05
-9.11765e-07
1.21131e-05
-9.2164e-07
1.21148e-05
-9.31802e-07
1.21113e-05
-9.4222e-07
1.21009e-05
-9.52917e-07
1.20844e-05
-9.63927e-07
1.20639e-05
-9.75266e-07
1.20412e-05
-9.86917e-07
1.20175e-05
-9.98832e-07
1.1993e-05
-1.01095e-06
1.19676e-05
-1.02326e-06
1.19407e-05
-1.03578e-06
1.19131e-05
-1.04864e-06
1.18872e-05
-1.06201e-06
1.18675e-05
-1.07602e-06
1.18608e-05
-1.09063e-06
1.1874e-05
-1.10556e-06
1.19127e-05
1.19793e-05
-8.21938e-07
2.44082e-06
-8.22201e-07
2.57453e-06
-8.22605e-07
2.7126e-06
-8.23135e-07
2.85517e-06
-8.2377e-07
3.00297e-06
-8.24488e-07
3.15668e-06
-8.2527e-07
3.31683e-06
-8.26101e-07
3.48385e-06
-8.26969e-07
3.65806e-06
-8.27862e-07
3.83973e-06
-8.28774e-07
4.02906e-06
-8.29699e-07
4.22624e-06
-8.30638e-07
4.43144e-06
-8.31596e-07
4.64493e-06
-8.3259e-07
4.86709e-06
-8.33651e-07
5.09854e-06
-8.34825e-07
5.34019e-06
-8.36173e-07
5.59336e-06
-8.37768e-07
5.85969e-06
-8.39686e-07
6.14114e-06
-8.41988e-07
6.43963e-06
-8.4471e-07
6.75669e-06
-8.47849e-07
7.093e-06
-8.51368e-07
7.44813e-06
-8.5521e-07
7.82059e-06
-8.59333e-07
8.20843e-06
-8.63739e-07
8.61019e-06
-8.685e-07
9.02604e-06
-8.73752e-07
9.45835e-06
-8.79657e-07
9.91135e-06
-8.87514e-07
1.21209e-05
-8.96025e-07
1.21191e-05
-9.05037e-07
1.21221e-05
-9.14383e-07
1.21242e-05
-9.23949e-07
1.21209e-05
-9.33701e-07
1.21106e-05
-9.43649e-07
1.20944e-05
-9.53816e-07
1.2074e-05
-9.64204e-07
1.20516e-05
-9.74782e-07
1.2028e-05
-9.85487e-07
1.20037e-05
-9.96253e-07
1.19783e-05
-1.00704e-06
1.19515e-05
-1.01787e-06
1.1924e-05
-1.02886e-06
1.18982e-05
-1.04014e-06
1.18788e-05
-1.05184e-06
1.18725e-05
-1.06389e-06
1.18861e-05
-1.07601e-06
1.19248e-05
1.1991e-05
-8.18168e-07
2.44093e-06
-8.18419e-07
2.57478e-06
-8.1881e-07
2.71299e-06
-8.19326e-07
2.85569e-06
-8.19947e-07
3.00359e-06
-8.20652e-07
3.15739e-06
-8.21422e-07
3.3176e-06
-8.2224e-07
3.48467e-06
-8.23094e-07
3.65891e-06
-8.23972e-07
3.84061e-06
-8.24868e-07
4.02996e-06
-8.25775e-07
4.22714e-06
-8.26694e-07
4.43236e-06
-8.2763e-07
4.64586e-06
-8.286e-07
4.86806e-06
-8.29633e-07
5.09957e-06
-8.30776e-07
5.34134e-06
-8.32088e-07
5.59467e-06
-8.33642e-07
5.86125e-06
-8.35508e-07
6.14301e-06
-8.37748e-07
6.44187e-06
-8.40393e-07
6.75933e-06
-8.43438e-07
7.09604e-06
-8.46846e-07
7.45154e-06
-8.50559e-07
7.82431e-06
-8.54535e-07
8.2124e-06
-8.58776e-07
8.61443e-06
-8.6335e-07
9.03061e-06
-8.68388e-07
9.46338e-06
-8.74043e-07
9.917e-06
-8.8155e-07
1.21284e-05
-8.89656e-07
1.21272e-05
-8.98206e-07
1.21306e-05
-9.0703e-07
1.2133e-05
-9.16011e-07
1.21299e-05
-9.25107e-07
1.21197e-05
-9.3432e-07
1.21036e-05
-9.43662e-07
1.20834e-05
-9.53119e-07
1.2061e-05
-9.62648e-07
1.20376e-05
-9.72176e-07
1.20133e-05
-9.81622e-07
1.19878e-05
-9.90936e-07
1.19608e-05
-1.00013e-06
1.19332e-05
-1.00931e-06
1.19073e-05
-1.01859e-06
1.18881e-05
-1.02807e-06
1.1882e-05
-1.03766e-06
1.18957e-05
-1.04711e-06
1.19342e-05
1.19998e-05
-8.14284e-07
2.44104e-06
-8.14523e-07
2.57502e-06
-8.14899e-07
2.71337e-06
-8.15401e-07
2.85619e-06
-8.16009e-07
3.0042e-06
-8.167e-07
3.15808e-06
-8.17457e-07
3.31836e-06
-8.18263e-07
3.48547e-06
-8.19103e-07
3.65975e-06
-8.19967e-07
3.84147e-06
-8.20846e-07
4.03084e-06
-8.21736e-07
4.22803e-06
-8.22635e-07
4.43326e-06
-8.2355e-07
4.64678e-06
-8.24496e-07
4.869e-06
-8.25504e-07
5.10058e-06
-8.26616e-07
5.34245e-06
-8.27893e-07
5.59595e-06
-8.29405e-07
5.86276e-06
-8.3122e-07
6.14483e-06
-8.33397e-07
6.44405e-06
-8.35965e-07
6.7619e-06
-8.38917e-07
7.09899e-06
-8.42214e-07
7.45483e-06
-8.458e-07
7.82789e-06
-8.4963e-07
8.21624e-06
-8.53707e-07
8.61851e-06
-8.58097e-07
9.035e-06
-8.62923e-07
9.46821e-06
-8.68331e-07
9.92241e-06
-8.75494e-07
1.21356e-05
-8.83203e-07
1.21349e-05
-8.91299e-07
1.21387e-05
-8.99611e-07
1.21413e-05
-9.0802e-07
1.21383e-05
-9.16476e-07
1.21282e-05
-9.24974e-07
1.21121e-05
-9.33511e-07
1.20919e-05
-9.42065e-07
1.20696e-05
-9.50577e-07
1.20461e-05
-9.58962e-07
1.20216e-05
-9.67132e-07
1.19959e-05
-9.75026e-07
1.19687e-05
-9.82648e-07
1.19408e-05
-9.90077e-07
1.19148e-05
-9.9743e-07
1.18954e-05
-1.00477e-06
1.18893e-05
-1.01202e-06
1.19029e-05
-1.01891e-06
1.19411e-05
1.2006e-05
-8.10292e-07
2.44114e-06
-8.10519e-07
2.57525e-06
-8.10882e-07
2.71373e-06
-8.11369e-07
2.85668e-06
-8.11963e-07
3.00479e-06
-8.12641e-07
3.15876e-06
-8.13385e-07
3.3191e-06
-8.14178e-07
3.48626e-06
-8.15005e-07
3.66058e-06
-8.15855e-07
3.84232e-06
-8.16719e-07
4.0317e-06
-8.17592e-07
4.22891e-06
-8.18472e-07
4.43414e-06
-8.19366e-07
4.64767e-06
-8.2029e-07
4.86993e-06
-8.21271e-07
5.10156e-06
-8.22354e-07
5.34353e-06
-8.23597e-07
5.59719e-06
-8.25067e-07
5.86423e-06
-8.26832e-07
6.14659e-06
-8.28947e-07
6.44616e-06
-8.31438e-07
6.76439e-06
-8.34298e-07
7.10185e-06
-8.37485e-07
7.45802e-06
-8.40945e-07
7.83135e-06
-8.44632e-07
8.21992e-06
-8.48549e-07
8.62242e-06
-8.52757e-07
9.03921e-06
-8.57377e-07
9.47283e-06
-8.62543e-07
9.92758e-06
-8.69368e-07
1.21424e-05
-8.76688e-07
1.21423e-05
-8.84342e-07
1.21464e-05
-8.92157e-07
1.21491e-05
-9.0001e-07
1.21461e-05
-9.07846e-07
1.2136e-05
-9.15651e-07
1.21199e-05
-9.23411e-07
1.20997e-05
-9.31092e-07
1.20773e-05
-9.38623e-07
1.20536e-05
-9.45908e-07
1.20289e-05
-9.5285e-07
1.20029e-05
-9.59379e-07
1.19753e-05
-9.65487e-07
1.19469e-05
-9.71242e-07
1.19205e-05
-9.76739e-07
1.19009e-05
-9.82025e-07
1.18946e-05
-9.87008e-07
1.19079e-05
-9.91434e-07
1.19456e-05
1.20094e-05
-8.062e-07
2.44123e-06
-8.06416e-07
2.57546e-06
-8.06765e-07
2.71408e-06
-8.07238e-07
2.85715e-06
-8.07818e-07
3.00537e-06
-8.08483e-07
3.15942e-06
-8.09214e-07
3.31983e-06
-8.09994e-07
3.48704e-06
-8.10808e-07
3.66139e-06
-8.11644e-07
3.84316e-06
-8.12493e-07
4.03255e-06
-8.1335e-07
4.22976e-06
-8.14213e-07
4.435e-06
-8.15087e-07
4.64854e-06
-8.15989e-07
4.87083e-06
-8.16945e-07
5.10252e-06
-8.18e-07
5.34459e-06
-8.19209e-07
5.5984e-06
-8.20639e-07
5.86566e-06
-8.22355e-07
6.14831e-06
-8.24407e-07
6.44822e-06
-8.26823e-07
6.7668e-06
-8.29591e-07
7.10462e-06
-8.32672e-07
7.4611e-06
-8.36007e-07
7.83469e-06
-8.39555e-07
8.22347e-06
-8.43315e-07
8.62618e-06
-8.47347e-07
9.04325e-06
-8.51764e-07
9.47725e-06
-8.56695e-07
9.93251e-06
-8.63192e-07
1.21489e-05
-8.70135e-07
1.21492e-05
-8.77361e-07
1.21536e-05
-8.84694e-07
1.21564e-05
-8.92012e-07
1.21534e-05
-8.99251e-07
1.21433e-05
-9.0639e-07
1.2127e-05
-9.13405e-07
1.21067e-05
-9.20249e-07
1.20841e-05
-9.2684e-07
1.20602e-05
-9.33074e-07
1.20352e-05
-9.38842e-07
1.20086e-05
-9.44065e-07
1.19805e-05
-9.48726e-07
1.19516e-05
-9.52876e-07
1.19247e-05
-9.56594e-07
1.19047e-05
-9.59904e-07
1.18979e-05
-9.62703e-07
1.19107e-05
-9.64737e-07
1.19476e-05
1.20103e-05
-8.02018e-07
2.44131e-06
-8.02222e-07
2.57566e-06
-8.02557e-07
2.71442e-06
-8.03016e-07
2.85761e-06
-8.03582e-07
3.00594e-06
-8.04234e-07
3.16008e-06
-8.04953e-07
3.32055e-06
-8.0572e-07
3.48781e-06
-8.06522e-07
3.6622e-06
-8.07345e-07
3.84398e-06
-8.0818e-07
4.03339e-06
-8.09021e-07
4.2306e-06
-8.09867e-07
4.43584e-06
-8.10722e-07
4.6494e-06
-8.11603e-07
4.87171e-06
-8.12536e-07
5.10345e-06
-8.13563e-07
5.34561e-06
-8.1474e-07
5.59957e-06
-8.16131e-07
5.86705e-06
-8.17797e-07
6.14997e-06
-8.1979e-07
6.45021e-06
-8.22131e-07
6.76915e-06
-8.2481e-07
7.1073e-06
-8.27785e-07
7.46408e-06
-8.30999e-07
7.8379e-06
-8.34411e-07
8.22688e-06
-8.38019e-07
8.62979e-06
-8.4188e-07
9.04711e-06
-8.46102e-07
9.48147e-06
-8.50806e-07
9.93721e-06
-8.56986e-07
1.21551e-05
-8.63565e-07
1.21558e-05
-8.70378e-07
1.21604e-05
-8.77251e-07
1.21633e-05
-8.84055e-07
1.21602e-05
-8.90726e-07
1.21499e-05
-8.9723e-07
1.21335e-05
-9.03535e-07
1.2113e-05
-9.09582e-07
1.20901e-05
-9.15281e-07
1.20659e-05
-9.20515e-07
1.20404e-05
-9.25168e-07
1.20133e-05
-9.2915e-07
1.19845e-05
-9.32433e-07
1.19549e-05
-9.35053e-07
1.19273e-05
-9.37067e-07
1.19067e-05
-9.38478e-07
1.18993e-05
-9.39166e-07
1.19114e-05
-9.3887e-07
1.19473e-05
1.20087e-05
-7.97755e-07
2.44139e-06
-7.97947e-07
2.57586e-06
-7.98268e-07
2.71474e-06
-7.98712e-07
2.85805e-06
-7.99264e-07
3.00649e-06
-7.99903e-07
3.16071e-06
-8.0061e-07
3.32126e-06
-8.01365e-07
3.48857e-06
-8.02155e-07
3.66299e-06
-8.02965e-07
3.84479e-06
-8.03787e-07
4.03421e-06
-8.04613e-07
4.23143e-06
-8.05443e-07
4.43667e-06
-8.06281e-07
4.65024e-06
-8.07142e-07
4.87257e-06
-8.08052e-07
5.10436e-06
-8.09053e-07
5.34662e-06
-8.10199e-07
5.60072e-06
-8.11551e-07
5.8684e-06
-8.1317e-07
6.15159e-06
-8.15103e-07
6.45214e-06
-8.17372e-07
6.77141e-06
-8.19963e-07
7.10989e-06
-8.22835e-07
7.46695e-06
-8.25933e-07
7.841e-06
-8.29213e-07
8.23016e-06
-8.32675e-07
8.63325e-06
-8.36372e-07
9.0508e-06
-8.40407e-07
9.4855e-06
-8.44891e-07
9.9417e-06
-8.50767e-07
1.2161e-05
-8.56998e-07
1.2162e-05
-8.63418e-07
1.21668e-05
-8.69852e-07
1.21697e-05
-8.7617e-07
1.21666e-05
-8.82301e-07
1.21561e-05
-8.88205e-07
1.21394e-05
-8.93839e-07
1.21186e-05
-8.99136e-07
1.20954e-05
-9.03993e-07
1.20708e-05
-9.08286e-07
1.20447e-05
-9.11887e-07
1.20169e-05
-9.14697e-07
1.19873e-05
-9.16677e-07
1.19568e-05
-9.17845e-07
1.19284e-05
-9.18233e-07
1.19071e-05
-9.17821e-07
1.18989e-05
-9.16467e-07
1.19101e-05
-9.139e-07
1.19447e-05
1.20046e-05
-7.93421e-07
2.44146e-06
-7.93601e-07
2.57604e-06
-7.93908e-07
2.71504e-06
-7.94337e-07
2.85848e-06
-7.94874e-07
3.00703e-06
-7.955e-07
3.16134e-06
-7.96194e-07
3.32195e-06
-7.96938e-07
3.48931e-06
-7.97716e-07
3.66376e-06
-7.98514e-07
3.84559e-06
-7.99323e-07
4.03502e-06
-8.00136e-07
4.23224e-06
-8.00951e-07
4.43749e-06
-8.01772e-07
4.65106e-06
-8.02614e-07
4.87341e-06
-8.03503e-07
5.10525e-06
-8.0448e-07
5.34759e-06
-8.05595e-07
5.60184e-06
-8.0691e-07
5.86972e-06
-8.08483e-07
6.15317e-06
-8.10359e-07
6.45402e-06
-8.12556e-07
6.77361e-06
-8.15062e-07
7.1124e-06
-8.17835e-07
7.46972e-06
-8.2082e-07
7.84399e-06
-8.23974e-07
8.23332e-06
-8.27295e-07
8.63658e-06
-8.30835e-07
9.05434e-06
-8.34691e-07
9.48936e-06
-8.38967e-07
9.94597e-06
-8.44554e-07
1.21666e-05
-8.50454e-07
1.21679e-05
-8.56501e-07
1.21729e-05
-8.6252e-07
1.21758e-05
-8.6838e-07
1.21724e-05
-8.74005e-07
1.21617e-05
-8.79348e-07
1.21448e-05
-8.84356e-07
1.21236e-05
-8.88951e-07
1.21e-05
-8.93023e-07
1.20748e-05
-8.96437e-07
1.20481e-05
-8.99055e-07
1.20195e-05
-9.00768e-07
1.1989e-05
-9.01525e-07
1.19576e-05
-9.01322e-07
1.19282e-05
-9.00166e-07
1.19059e-05
-8.98009e-07
1.18968e-05
-8.94686e-07
1.19067e-05
-8.89904e-07
1.194e-05
1.1998e-05
-7.89025e-07
2.44152e-06
-7.89193e-07
2.57621e-06
-7.89485e-07
2.71534e-06
-7.89899e-07
2.8589e-06
-7.90422e-07
3.00755e-06
-7.91034e-07
3.16195e-06
-7.91716e-07
3.32264e-06
-7.92448e-07
3.49004e-06
-7.93214e-07
3.66453e-06
-7.94001e-07
3.84638e-06
-7.94797e-07
4.03581e-06
-7.95597e-07
4.23304e-06
-7.96398e-07
4.43829e-06
-7.97204e-07
4.65187e-06
-7.98029e-07
4.87424e-06
-7.98898e-07
5.10612e-06
-7.99851e-07
5.34855e-06
-8.00938e-07
5.60292e-06
-8.02217e-07
5.871e-06
-8.03745e-07
6.15469e-06
-8.05565e-07
6.45584e-06
-8.07693e-07
6.77574e-06
-8.10117e-07
7.11482e-06
-8.12794e-07
7.4724e-06
-8.15671e-07
7.84686e-06
-8.18704e-07
8.23635e-06
-8.21892e-07
8.63976e-06
-8.25283e-07
9.05774e-06
-8.28969e-07
9.49304e-06
-8.33048e-07
9.95005e-06
-8.38361e-07
1.21719e-05
-8.43949e-07
1.21735e-05
-8.49647e-07
1.21786e-05
-8.55278e-07
1.21814e-05
-8.60712e-07
1.21778e-05
-8.65867e-07
1.21668e-05
-8.7069e-07
1.21496e-05
-8.75119e-07
1.21281e-05
-8.79066e-07
1.2104e-05
-8.82413e-07
1.20782e-05
-8.85015e-07
1.20507e-05
-8.86725e-07
1.20212e-05
-8.87423e-07
1.19897e-05
-8.8704e-07
1.19572e-05
-8.85554e-07
1.19268e-05
-8.82944e-07
1.19033e-05
-8.79128e-07
1.18929e-05
-8.7391e-07
1.19015e-05
-8.66975e-07
1.1933e-05
1.1989e-05
-7.84577e-07
2.44158e-06
-7.84733e-07
2.57636e-06
-7.8501e-07
2.71561e-06
-7.85408e-07
2.85929e-06
-7.85916e-07
3.00806e-06
-7.86514e-07
3.16255e-06
-7.87183e-07
3.3233e-06
-7.87903e-07
3.49076e-06
-7.88658e-07
3.66528e-06
-7.89433e-07
3.84715e-06
-7.90219e-07
4.0366e-06
-7.91006e-07
4.23383e-06
-7.91794e-07
4.43908e-06
-7.92585e-07
4.65266e-06
-7.93394e-07
4.87505e-06
-7.94245e-07
5.10697e-06
-7.95175e-07
5.34948e-06
-7.96235e-07
5.60398e-06
-7.9748e-07
5.87224e-06
-7.98965e-07
6.15618e-06
-8.00731e-07
6.4576e-06
-8.02793e-07
6.7778e-06
-8.05138e-07
7.11717e-06
-8.07723e-07
7.47498e-06
-8.10495e-07
7.84963e-06
-8.13414e-07
8.23927e-06
-8.16476e-07
8.64282e-06
-8.19728e-07
9.06099e-06
-8.23254e-07
9.49657e-06
-8.27148e-07
9.95394e-06
-8.32204e-07
1.21769e-05
-8.37501e-07
1.21788e-05
-8.42873e-07
1.21839e-05
-8.48145e-07
1.21867e-05
-8.53186e-07
1.21829e-05
-8.57911e-07
1.21716e-05
-8.62258e-07
1.21539e-05
-8.66158e-07
1.2132e-05
-8.69516e-07
1.21073e-05
-8.72203e-07
1.20809e-05
-8.74067e-07
1.20526e-05
-8.74948e-07
1.20221e-05
-8.74717e-07
1.19895e-05
-8.73288e-07
1.19558e-05
-8.70614e-07
1.19241e-05
-8.66645e-07
1.18993e-05
-8.61264e-07
1.18876e-05
-8.54237e-07
1.18945e-05
-8.4522e-07
1.1924e-05
1.19776e-05
-7.80085e-07
2.44163e-06
-7.80228e-07
2.57651e-06
-7.8049e-07
2.71587e-06
-7.80872e-07
2.85968e-06
-7.81364e-07
3.00855e-06
-7.81948e-07
3.16314e-06
-7.82604e-07
3.32396e-06
-7.83312e-07
3.49147e-06
-7.84056e-07
3.66603e-06
-7.8482e-07
3.84792e-06
-7.85594e-07
4.03737e-06
-7.86371e-07
4.23461e-06
-7.87146e-07
4.43985e-06
-7.87924e-07
4.65343e-06
-7.88718e-07
4.87584e-06
-7.89551e-07
5.1078e-06
-7.90461e-07
5.35039e-06
-7.91496e-07
5.60502e-06
-7.92708e-07
5.87345e-06
-7.94152e-07
6.15762e-06
-7.95866e-07
6.45932e-06
-7.97864e-07
6.7798e-06
-8.00133e-07
7.11944e-06
-8.0263e-07
7.47748e-06
-8.05304e-07
7.85231e-06
-8.08115e-07
8.24208e-06
-8.11058e-07
8.64577e-06
-8.14179e-07
9.06411e-06
-8.17557e-07
9.49995e-06
-8.21277e-07
9.95766e-06
-8.26095e-07
1.21817e-05
-8.31122e-07
1.21838e-05
-8.36195e-07
1.2189e-05
-8.41139e-07
1.21916e-05
-8.45823e-07
1.21876e-05
-8.50158e-07
1.21759e-05
-8.54078e-07
1.21578e-05
-8.57504e-07
1.21354e-05
-8.60333e-07
1.21102e-05
-8.6243e-07
1.2083e-05
-8.63632e-07
1.20538e-05
-8.63772e-07
1.20223e-05
-8.62705e-07
1.19884e-05
-8.60328e-07
1.19534e-05
-8.56572e-07
1.19203e-05
-8.51351e-07
1.18941e-05
-8.44509e-07
1.18807e-05
-8.35774e-07
1.18857e-05
-8.24758e-07
1.1913e-05
1.19638e-05
-7.75555e-07
2.44167e-06
-7.75687e-07
2.57664e-06
-7.75933e-07
2.71612e-06
-7.76298e-07
2.86004e-06
-7.76774e-07
3.00903e-06
-7.77344e-07
3.1637e-06
-7.77986e-07
3.3246e-06
-7.78682e-07
3.49217e-06
-7.79415e-07
3.66676e-06
-7.80169e-07
3.84867e-06
-7.80932e-07
4.03814e-06
-7.81698e-07
4.23537e-06
-7.82462e-07
4.44062e-06
-7.83228e-07
4.6542e-06
-7.84008e-07
4.87662e-06
-7.84826e-07
5.10862e-06
-7.85716e-07
5.35128e-06
-7.86727e-07
5.60603e-06
-7.87909e-07
5.87464e-06
-7.89313e-07
6.15903e-06
-7.90977e-07
6.46098e-06
-7.92915e-07
6.78174e-06
-7.95111e-07
7.12163e-06
-7.97525e-07
7.47989e-06
-8.00106e-07
7.85489e-06
-8.02815e-07
8.24479e-06
-8.05648e-07
8.6486e-06
-8.08646e-07
9.06711e-06
-8.11887e-07
9.50319e-06
-8.15448e-07
9.96123e-06
-8.20047e-07
1.21863e-05
-8.24827e-07
1.21886e-05
-8.29627e-07
1.21938e-05
-8.34276e-07
1.21963e-05
-8.3864e-07
1.21919e-05
-8.42629e-07
1.21799e-05
-8.4617e-07
1.21614e-05
-8.4918e-07
1.21384e-05
-8.51546e-07
1.21125e-05
-8.53127e-07
1.20845e-05
-8.5375e-07
1.20544e-05
-8.5324e-07
1.20217e-05
-8.51438e-07
1.19866e-05
-8.48222e-07
1.19502e-05
-8.43497e-07
1.19156e-05
-8.37143e-07
1.18878e-05
-8.28961e-07
1.18725e-05
-8.18633e-07
1.18754e-05
-8.05724e-07
1.19001e-05
1.19478e-05
-7.70995e-07
2.4417e-06
-7.71114e-07
2.57676e-06
-7.71345e-07
2.71635e-06
-7.71694e-07
2.86039e-06
-7.72153e-07
3.00949e-06
-7.72708e-07
3.16426e-06
-7.73337e-07
3.32523e-06
-7.74021e-07
3.49285e-06
-7.74742e-07
3.66748e-06
-7.75486e-07
3.84941e-06
-7.7624e-07
4.03889e-06
-7.76995e-07
4.23613e-06
-7.77749e-07
4.44137e-06
-7.78504e-07
4.65496e-06
-7.79271e-07
4.87739e-06
-7.80075e-07
5.10942e-06
-7.80948e-07
5.35215e-06
-7.81936e-07
5.60702e-06
-7.83089e-07
5.87579e-06
-7.84456e-07
6.16039e-06
-7.86073e-07
6.4626e-06
-7.87952e-07
6.78362e-06
-7.90079e-07
7.12376e-06
-7.92414e-07
7.48223e-06
-7.94908e-07
7.85738e-06
-7.97522e-07
8.2474e-06
-8.00253e-07
8.65133e-06
-8.03139e-07
9.06999e-06
-8.06253e-07
9.5063e-06
-8.0967e-07
9.96464e-06
-8.14069e-07
1.21907e-05
-8.18626e-07
1.21932e-05
-8.23181e-07
1.21984e-05
-8.27567e-07
1.22006e-05
-8.31651e-07
1.2196e-05
-8.3534e-07
1.21836e-05
-8.38555e-07
1.21646e-05
-8.41208e-07
1.21411e-05
-8.4318e-07
1.21145e-05
-8.44321e-07
1.20857e-05
-8.44454e-07
1.20545e-05
-8.43391e-07
1.20207e-05
-8.40963e-07
1.19842e-05
-8.37026e-07
1.19463e-05
-8.31457e-07
1.191e-05
-8.24103e-07
1.18804e-05
-8.14718e-07
1.18632e-05
-8.02936e-07
1.18636e-05
-7.88264e-07
1.18854e-05
1.19297e-05
-7.66411e-07
2.44173e-06
-7.66517e-07
2.57686e-06
-7.66732e-07
2.71657e-06
-7.67064e-07
2.86072e-06
-7.67507e-07
3.00993e-06
-7.68046e-07
3.1648e-06
-7.68662e-07
3.32585e-06
-7.69334e-07
3.49352e-06
-7.70045e-07
3.66819e-06
-7.70779e-07
3.85015e-06
-7.71523e-07
4.03963e-06
-7.72269e-07
4.23687e-06
-7.73014e-07
4.44211e-06
-7.73758e-07
4.6557e-06
-7.74515e-07
4.87814e-06
-7.75305e-07
5.11021e-06
-7.76162e-07
5.35301e-06
-7.77129e-07
5.60798e-06
-7.78255e-07
5.87692e-06
-7.79587e-07
6.16173e-06
-7.81158e-07
6.46417e-06
-7.82983e-07
6.78544e-06
-7.85044e-07
7.12582e-06
-7.87305e-07
7.48449e-06
-7.89717e-07
7.85979e-06
-7.92244e-07
8.24993e-06
-7.94881e-07
8.65397e-06
-7.97665e-07
9.07278e-06
-8.00665e-07
9.5093e-06
-8.03949e-07
9.96793e-06
-8.08169e-07
1.2195e-05
-8.12527e-07
1.21975e-05
-8.16867e-07
1.22027e-05
-8.21024e-07
1.22048e-05
-8.24868e-07
1.21999e-05
-8.28303e-07
1.2187e-05
-8.31246e-07
1.21675e-05
-8.33605e-07
1.21434e-05
-8.35255e-07
1.21162e-05
-8.36039e-07
1.20865e-05
-8.35773e-07
1.20543e-05
-8.34263e-07
1.20192e-05
-8.31323e-07
1.19812e-05
-8.26793e-07
1.19417e-05
-8.20519e-07
1.19038e-05
-8.12313e-07
1.18722e-05
-8.01882e-07
1.18527e-05
-7.88805e-07
1.18506e-05
-7.72531e-07
1.18691e-05
1.19096e-05
-7.61806e-07
2.44175e-06
-7.619e-07
2.57696e-06
-7.621e-07
2.71676e-06
-7.62415e-07
2.86104e-06
-7.62842e-07
3.01036e-06
-7.63366e-07
3.16532e-06
-7.63968e-07
3.32645e-06
-7.64629e-07
3.49418e-06
-7.65329e-07
3.66889e-06
-7.66053e-07
3.85087e-06
-7.66789e-07
4.04037e-06
-7.67526e-07
4.23761e-06
-7.68262e-07
4.44285e-06
-7.68998e-07
4.65644e-06
-7.69744e-07
4.87889e-06
-7.70522e-07
5.11099e-06
-7.71364e-07
5.35385e-06
-7.72312e-07
5.60893e-06
-7.73413e-07
5.87802e-06
-7.74711e-07
6.16302e-06
-7.76241e-07
6.4657e-06
-7.78013e-07
6.78721e-06
-7.80013e-07
7.12782e-06
-7.82205e-07
7.48668e-06
-7.84541e-07
7.86213e-06
-7.86987e-07
8.25238e-06
-7.89538e-07
8.65652e-06
-7.9223e-07
9.07547e-06
-7.95127e-07
9.5122e-06
-7.98294e-07
9.97109e-06
-8.02355e-07
1.2199e-05
-8.06539e-07
1.22017e-05
-8.10692e-07
1.22069e-05
-8.14655e-07
1.22088e-05
-8.183e-07
1.22035e-05
-8.21528e-07
1.21902e-05
-8.24256e-07
1.21703e-05
-8.26384e-07
1.21455e-05
-8.27786e-07
1.21176e-05
-8.28299e-07
1.2087e-05
-8.27732e-07
1.20537e-05
-8.25884e-07
1.20173e-05
-8.22557e-07
1.19779e-05
-8.1757e-07
1.19367e-05
-8.10744e-07
1.18969e-05
-8.0185e-07
1.18633e-05
-7.90551e-07