/*--------------------------------*- C++ -*----------------------------------*\
  =========                 |
  \\      /  F ield         | OpenFOAM: The Open Source CFD Toolbox
   \\    /   O peration     | Website:  https://openfoam.org
    \\  /    A nd           | Version:  9
     \\/     M anipulation  |
\*---------------------------------------------------------------------------*/
FoamFile
{
    format      ascii;
    class       volVectorField;
    location    "0.11";
    object      U;
}
// * * * * * * * * * * * * * * * * * * * * * * * * * * * * * * * * * * * * * //

dimensions      [0 1 -1 0 0 0 0];

internalField   nonuniform List<vector> 
5000
(
(-0.0751035 0 0.0121774)
(-0.075193 0 0.0221106)
(-0.075288 0 0.0300837)
(-0.0754291 0 0.036276)
(-0.0755984 0 0.0411902)
(-0.0757899 0 0.0451781)
(-0.0759996 0 0.0484379)
(-0.0762243 0 0.0510684)
(-0.0764615 0 0.0531007)
(-0.0767096 0 0.0545207)
(-0.0769669 0 0.0552883)
(-0.0772323 0 0.0553538)
(-0.0775055 0 0.0546738)
(-0.0777871 0 0.0532296)
(-0.0780799 0 0.0510478)
(-0.0783897 0 0.0482243)
(-0.0787267 0 0.0449442)
(-0.0791059 0 0.0414924)
(-0.0795474 0 0.0382401)
(-0.0800747 0 0.0355984)
(-0.0807115 0 0.0339331)
(-0.0814777 0 0.0334521)
(-0.082384 0 0.0340979)
(-0.0834301 0 0.0354944)
(-0.0846054 0 0.0369976)
(-0.0858957 0 0.0378695)
(-0.0872939 0 0.0375355)
(-0.0888107 0 0.0358274)
(-0.0904825 0 0.0330868)
(-0.0923607 0 0.0300503)
(-0.0946967 0 0.0273323)
(-0.0975556 0 0.0256244)
(-0.100697 0 0.0249103)
(-0.104077 0 0.024301)
(-0.107668 0 0.0229527)
(-0.111461 0 0.0204594)
(-0.115477 0 0.0168699)
(-0.11975 0 0.0124831)
(-0.124318 0 0.00762928)
(-0.129213 0 0.00253894)
(-0.134463 0 -0.00269884)
(-0.140089 0 -0.00811882)
(-0.146119 0 -0.0138106)
(-0.152596 0 -0.0197877)
(-0.159593 0 -0.0258075)
(-0.167223 0 -0.0312098)
(-0.175635 0 -0.0348872)
(-0.18498 0 -0.0354585)
(-0.195363 0 -0.0316037)
(-0.20684 0 -0.0223788)
(-0.0745074 0 0.0123164)
(-0.0745954 0 0.0223743)
(-0.0746881 0 0.0304475)
(-0.0748274 0 0.0367114)
(-0.0749951 0 0.0416734)
(-0.075185 0 0.0456911)
(-0.075393 0 0.0489677)
(-0.0756158 0 0.0516056)
(-0.075851 0 0.0536386)
(-0.0760965 0 0.0550545)
(-0.0763508 0 0.0558146)
(-0.0766129 0 0.0558706)
(-0.0768821 0 0.0551812)
(-0.0771593 0 0.0537303)
(-0.0774472 0 0.0515485)
(-0.0777516 0 0.0487365)
(-0.0780828 0 0.0454849)
(-0.0784556 0 0.0420828)
(-0.07889 0 0.0389042)
(-0.079409 0 0.0363586)
(-0.0800358 0 0.0348058)
(-0.0807894 0 0.0344431)
(-0.08168 0 0.0351997)
(-0.0827064 0 0.0366882)
(-0.0838576 0 0.0382593)
(-0.0851196 0 0.0391795)
(-0.0864851 0 0.0388881)
(-0.087965 0 0.0372359)
(-0.089595 0 0.0345816)
(-0.0914254 0 0.0316685)
(-0.0937001 0 0.0291173)
(-0.0964807 0 0.0275987)
(-0.0995299 0 0.0270563)
(-0.102803 0 0.0265939)
(-0.106271 0 0.0253771)
(-0.109925 0 0.0230169)
(-0.113784 0 0.0195764)
(-0.117878 0 0.015362)
(-0.122242 0 0.0107056)
(-0.126903 0 0.00583525)
(-0.131883 0 0.000835205)
(-0.137199 0 -0.00433362)
(-0.142871 0 -0.00975836)
(-0.148936 0 -0.0154379)
(-0.155457 0 -0.0211027)
(-0.162535 0 -0.0260641)
(-0.170298 0 -0.0292025)
(-0.178871 0 -0.0291532)
(-0.188323 0 -0.0246434)
(-0.198671 0 -0.0147954)
(-0.0738633 0 0.0124514)
(-0.0739498 0 0.0226323)
(-0.0740401 0 0.0308054)
(-0.0741774 0 0.0371415)
(-0.0743433 0 0.0421519)
(-0.0745314 0 0.0461996)
(-0.0747376 0 0.0494928)
(-0.0749585 0 0.0521377)
(-0.0751914 0 0.0541708)
(-0.0754343 0 0.0555819)
(-0.0756855 0 0.0563337)
(-0.075944 0 0.0563795)
(-0.0762091 0 0.0556798)
(-0.0764817 0 0.0542216)
(-0.0767645 0 0.0520393)
(-0.0770634 0 0.0492384)
(-0.0773885 0 0.0460146)
(-0.0777547 0 0.0426617)
(-0.0781816 0 0.0395558)
(-0.0786919 0 0.037105)
(-0.0793081 0 0.0356628)
(-0.0800484 0 0.0354158)
(-0.0809222 0 0.0362804)
(-0.0819278 0 0.0378578)
(-0.0830537 0 0.0394941)
(-0.0842857 0 0.0404601)
(-0.0856168 0 0.0402092)
(-0.0870575 0 0.0386108)
(-0.0886431 0 0.0360396)
(-0.0904224 0 0.0332449)
(-0.0926319 0 0.0308525)
(-0.0953294 0 0.0295125)
(-0.0982818 0 0.0291303)
(-0.101444 0 0.0288038)
(-0.104785 0 0.0277086)
(-0.108294 0 0.0254719)
(-0.111989 0 0.0221697)
(-0.115896 0 0.0181146)
(-0.120046 0 0.0136379)
(-0.124462 0 0.00896379)
(-0.129161 0 0.00417193)
(-0.134157 0 -0.000778744)
(-0.139463 0 -0.00597071)
(-0.145107 0 -0.0113885)
(-0.151143 0 -0.0167399)
(-0.157658 0 -0.0213154)
(-0.164764 0 -0.0239903)
(-0.172565 0 -0.0234221)
(-0.181098 0 -0.018384)
(-0.190349 0 -0.00805912)
(-0.0731734 0 0.0125821)
(-0.0732585 0 0.0228845)
(-0.0733463 0 0.0311573)
(-0.0734816 0 0.037566)
(-0.0736455 0 0.0426252)
(-0.0738318 0 0.0467032)
(-0.0740361 0 0.0500129)
(-0.0742549 0 0.0526643)
(-0.0744854 0 0.0546969)
(-0.0747255 0 0.0561025)
(-0.0749736 0 0.0568453)
(-0.0752283 0 0.0568801)
(-0.0754892 0 0.0561695)
(-0.075757 0 0.0547032)
(-0.0760345 0 0.0525199)
(-0.0763276 0 0.0497296)
(-0.0766464 0 0.0465331)
(-0.0770056 0 0.0432288)
(-0.0774245 0 0.0401946)
(-0.0779253 0 0.0378371)
(-0.0785301 0 0.0365035)
(-0.0792561 0 0.0363695)
(-0.0801122 0 0.0373388)
(-0.0810958 0 0.039002)
(-0.0821951 0 0.0407005)
(-0.083396 0 0.0417099)
(-0.0846913 0 0.0414972)
(-0.0860915 0 0.0399502)
(-0.0876311 0 0.0374588)
(-0.0893576 0 0.0347777)
(-0.0914993 0 0.0325366)
(-0.0941102 0 0.0313647)
(-0.0969616 0 0.0311312)
(-0.100007 0 0.0309291)
(-0.103215 0 0.0299444)
(-0.106575 0 0.0278203)
(-0.110099 0 0.0246447)
(-0.113813 0 0.0207342)
(-0.117743 0 0.0164183)
(-0.121908 0 0.0119164)
(-0.126321 0 0.00730392)
(-0.130988 0 0.00253917)
(-0.135919 0 -0.0024544)
(-0.141134 0 -0.00764724)
(-0.146679 0 -0.012728)
(-0.152631 0 -0.0169711)
(-0.159087 0 -0.0192508)
(-0.166128 0 -0.018249)
(-0.173763 0 -0.0127873)
(-0.181955 0 -0.00211268)
(-0.0724408 0 0.0127086)
(-0.0725241 0 0.0231308)
(-0.0726094 0 0.0315029)
(-0.0727425 0 0.0379846)
(-0.0729044 0 0.0430933)
(-0.0730886 0 0.0472019)
(-0.0732908 0 0.0505281)
(-0.0735074 0 0.0531858)
(-0.0737355 0 0.0552175)
(-0.0739727 0 0.0566169)
(-0.0742174 0 0.05735)
(-0.0744683 0 0.0573731)
(-0.0747248 0 0.056651)
(-0.0749876 0 0.0551764)
(-0.0752596 0 0.0529915)
(-0.0755467 0 0.0502114)
(-0.0758588 0 0.0470419)
(-0.0762105 0 0.0437853)
(-0.0766209 0 0.0408217)
(-0.0771117 0 0.0385558)
(-0.0777043 0 0.0373281)
(-0.0784154 0 0.0373039)
(-0.0792527 0 0.0383743)
(-0.0802133 0 0.0401193)
(-0.0812852 0 0.041876)
(-0.0824538 0 0.0429253)
(-0.0837122 0 0.0427477)
(-0.0850708 0 0.041249)
(-0.086563 0 0.038834)
(-0.0882349 0 0.0362621)
(-0.0903067 0 0.0341663)
(-0.0928281 0 0.0331545)
(-0.0955749 0 0.0330605)
(-0.0985002 0 0.0329726)
(-0.101572 0 0.0320869)
(-0.104777 0 0.030062)
(-0.108127 0 0.0269969)
(-0.111644 0 0.0232126)
(-0.115349 0 0.0190369)
(-0.119259 0 0.0146849)
(-0.123379 0 0.0102273)
(-0.127714 0 0.00562093)
(-0.132265 0 0.000793334)
(-0.137049 0 -0.00421359)
(-0.142103 0 -0.00907032)
(-0.147496 0 -0.0130353)
(-0.15331 0 -0.0149829)
(-0.159609 0 -0.0136216)
(-0.166378 0 -0.00782645)
(-0.173564 0 0.00308536)
(-0.0716681 0 0.0128306)
(-0.0717496 0 0.0233706)
(-0.0718321 0 0.0318417)
(-0.0719628 0 0.0383969)
(-0.0721223 0 0.0435556)
(-0.0723043 0 0.0476953)
(-0.0725043 0 0.0510381)
(-0.0727185 0 0.0537019)
(-0.0729439 0 0.0557322)
(-0.0731781 0 0.057125)
(-0.0734193 0 0.0578477)
(-0.0736662 0 0.0578586)
(-0.0739181 0 0.0571244)
(-0.0741758 0 0.0556407)
(-0.0744421 0 0.0534539)
(-0.0747229 0 0.0506834)
(-0.075028 0 0.0475402)
(-0.075372 0 0.0443306)
(-0.0757736 0 0.0414362)
(-0.0762539 0 0.0392599)
(-0.0768338 0 0.0381356)
(-0.0775292 0 0.0382178)
(-0.0783471 0 0.0393854)
(-0.0792839 0 0.0412083)
(-0.0803273 0 0.0430196)
(-0.0814628 0 0.0441053)
(-0.0826835 0 0.0439598)
(-0.0839992 0 0.0425063)
(-0.0854429 0 0.040164)
(-0.0870588 0 0.0376965)
(-0.0890587 0 0.0357392)
(-0.0914884 0 0.0348786)
(-0.0941282 0 0.0349143)
(-0.0969306 0 0.0349297)
(-0.0998628 0 0.0341315)
(-0.102911 0 0.0321927)
(-0.106084 0 0.0292236)
(-0.109401 0 0.0255488)
(-0.112879 0 0.0214943)
(-0.116529 0 0.0172702)
(-0.120355 0 0.0129423)
(-0.124354 0 0.0084651)
(-0.128526 0 0.0037706)
(-0.13288 0 -0.00108698)
(-0.137447 0 -0.00576079)
(-0.142287 0 -0.00949629)
(-0.147473 0 -0.0111708)
(-0.153054 0 -0.00952125)
(-0.158999 0 -0.00347412)
(-0.165238 0 0.00758407)
(-0.0708578 0 0.0129478)
(-0.0709373 0 0.0236034)
(-0.0710169 0 0.032173)
(-0.0711448 0 0.0388021)
(-0.0713018 0 0.0440114)
(-0.0714813 0 0.0481826)
(-0.0716788 0 0.0515421)
(-0.0718904 0 0.0542119)
(-0.0721129 0 0.0562404)
(-0.0723439 0 0.0576259)
(-0.0725815 0 0.0583377)
(-0.0728242 0 0.0583356)
(-0.0730715 0 0.0575887)
(-0.0733239 0 0.0560954)
(-0.0735844 0 0.053906)
(-0.0738588 0 0.0511448)
(-0.0741568 0 0.0480272)
(-0.0744928 0 0.0448636)
(-0.0748851 0 0.0420372)
(-0.0753546 0 0.0399485)
(-0.0759214 0 0.0389249)
(-0.0766004 0 0.0391104)
(-0.0773983 0 0.0403717)
(-0.0783107 0 0.0422687)
(-0.0793251 0 0.0441311)
(-0.0804267 0 0.0452501)
(-0.0816088 0 0.0451337)
(-0.0828811 0 0.0437224)
(-0.0842753 0 0.0414488)
(-0.0858341 0 0.0390803)
(-0.0877608 0 0.0372542)
(-0.090097 0 0.0365352)
(-0.092628 0 0.0366902)
(-0.095306 0 0.0367982)
(-0.0980972 0 0.0360758)
(-0.100987 0 0.0342107)
(-0.103982 0 0.0313233)
(-0.107096 0 0.0277418)
(-0.110345 0 0.0237895)
(-0.113735 0 0.0196712)
(-0.117266 0 0.0154476)
(-0.120931 0 0.0110712)
(-0.124725 0 0.00647848)
(-0.128653 0 0.00173583)
(-0.13274 0 -0.00279385)
(-0.13704 0 -0.00634555)
(-0.141616 0 -0.00780197)
(-0.146505 0 -0.00592848)
(-0.151668 0 0.000300413)
(-0.157022 0 0.011437)
(-0.0700121 0 0.0130597)
(-0.0700895 0 0.0238286)
(-0.0701659 0 0.0324961)
(-0.0702909 0 0.0391994)
(-0.070445 0 0.04446)
(-0.0706217 0 0.0486631)
(-0.0708165 0 0.0520396)
(-0.0710253 0 0.0547153)
(-0.0712448 0 0.0567416)
(-0.0714725 0 0.0581193)
(-0.0717063 0 0.0588195)
(-0.0719448 0 0.0588038)
(-0.0721872 0 0.0580435)
(-0.0724344 0 0.0565401)
(-0.0726889 0 0.0543476)
(-0.0729567 0 0.0515949)
(-0.0732474 0 0.0485024)
(-0.0735753 0 0.0453838)
(-0.0739582 0 0.0426239)
(-0.0744166 0 0.040621)
(-0.0749697 0 0.0396955)
(-0.0756321 0 0.039981)
(-0.0764094 0 0.0413324)
(-0.0772969 0 0.0432999)
(-0.0782817 0 0.04521)
(-0.079349 0 0.0463593)
(-0.0804922 0 0.0462691)
(-0.0817204 0 0.0448968)
(-0.0830646 0 0.0426881)
(-0.0845658 0 0.0404135)
(-0.0864183 0 0.0387109)
(-0.08866 0 0.0381241)
(-0.0910813 0 0.0383879)
(-0.093634 0 0.0385776)
(-0.0962836 0 0.0379198)
(-0.0990141 0 0.0361159)
(-0.10183 0 0.033296)
(-0.104742 0 0.029791)
(-0.107762 0 0.0259216)
(-0.110893 0 0.0218871)
(-0.11413 0 0.0177431)
(-0.117465 0 0.0134403)
(-0.120886 0 0.00891958)
(-0.124394 0 0.00425892)
(-0.128011 0 -0.000163618)
(-0.131786 0 -0.00357366)
(-0.135771 0 -0.00486048)
(-0.139997 0 -0.00281749)
(-0.144417 0 0.00353438)
(-0.148943 0 0.0146945)
(-0.069133 0 0.0131662)
(-0.0692081 0 0.0240457)
(-0.0692812 0 0.0328102)
(-0.069403 0 0.0395881)
(-0.069554 0 0.0449006)
(-0.0697277 0 0.0491363)
(-0.0699195 0 0.0525301)
(-0.0701254 0 0.0552117)
(-0.0703418 0 0.0572356)
(-0.070566 0 0.0586051)
(-0.0707959 0 0.0592931)
(-0.0710301 0 0.0592632)
(-0.0712677 0 0.058489)
(-0.0715095 0 0.0569748)
(-0.0717581 0 0.0547787)
(-0.0720193 0 0.052034)
(-0.0723027 0 0.0489657)
(-0.0726222 0 0.0458911)
(-0.0729956 0 0.0431963)
(-0.0734425 0 0.041277)
(-0.0739819 0 0.0404469)
(-0.0746272 0 0.0408291)
(-0.0753836 0 0.042267)
(-0.0762458 0 0.0443013)
(-0.0772006 0 0.0462556)
(-0.0782334 0 0.0474321)
(-0.0793374 0 0.0473653)
(-0.0805214 0 0.046029)
(-0.0818153 0 0.0438812)
(-0.0832586 0 0.0416952)
(-0.0850366 0 0.0401088)
(-0.0871834 0 0.0396447)
(-0.0894948 0 0.0400072)
(-0.0919222 0 0.0402681)
(-0.0944304 0 0.0396635)
(-0.0970022 0 0.0379084)
(-0.0996399 0 0.0351419)
(-0.102352 0 0.0316971)
(-0.105144 0 0.0278916)
(-0.108018 0 0.0239194)
(-0.110966 0 0.0198309)
(-0.113974 0 0.0155754)
(-0.117029 0 0.0110981)
(-0.120126 0 0.00648835)
(-0.123286 0 0.00213856)
(-0.126551 0 -0.00116822)
(-0.129967 0 -0.00232873)
(-0.133557 0 -0.000163911)
(-0.137272 0 0.00626117)
(-0.141023 0 0.0173996)
(-0.0682221 0 0.013267)
(-0.0682948 0 0.0242542)
(-0.0683644 0 0.0331149)
(-0.0684828 0 0.0399676)
(-0.0686305 0 0.0453327)
(-0.0688011 0 0.0496017)
(-0.0689898 0 0.0530132)
(-0.0691926 0 0.0557008)
(-0.0694057 0 0.0577222)
(-0.0696264 0 0.0590831)
(-0.0698525 0 0.0597585)
(-0.0700823 0 0.0597139)
(-0.0703151 0 0.0589251)
(-0.0705515 0 0.0573997)
(-0.0707942 0 0.0551994)
(-0.0710489 0 0.0524621)
(-0.071325 0 0.0494171)
(-0.0716362 0 0.0463855)
(-0.072 0 0.0437542)
(-0.0724354 0 0.0419163)
(-0.0729607 0 0.0411787)
(-0.0735888 0 0.0416544)
(-0.074324 0 0.0431751)
(-0.0751607 0 0.0452725)
(-0.0760854 0 0.0472677)
(-0.0770836 0 0.0484684)
(-0.0781483 0 0.0484222)
(-0.0792882 0 0.0471187)
(-0.0805319 0 0.045028)
(-0.0819174 0 0.0429254)
(-0.083621 0 0.0414477)
(-0.0856732 0 0.0410971)
(-0.087875 0 0.0415483)
(-0.0901779 0 0.0418698)
(-0.0925459 0 0.0413074)
(-0.0949609 0 0.039589)
(-0.0974224 0 0.0368621)
(-0.0999359 0 0.0334615)
(-0.102505 0 0.0297016)
(-0.105127 0 0.0257709)
(-0.10779 0 0.0217149)
(-0.110479 0 0.0174814)
(-0.113175 0 0.0130204)
(-0.115873 0 0.00843219)
(-0.118588 0 0.00412294)
(-0.12136 0 0.000883593)
(-0.124228 0 -0.000190557)
(-0.127209 0 0.00205283)
(-0.130254 0 0.00850818)
(-0.133273 0 0.0195886)
(-0.0672811 0 0.0133619)
(-0.0673513 0 0.0244539)
(-0.0674172 0 0.0334096)
(-0.0675322 0 0.0403375)
(-0.0676764 0 0.0457559)
(-0.0678437 0 0.0500589)
(-0.0680293 0 0.0534886)
(-0.0682288 0 0.0561823)
(-0.0684386 0 0.0582012)
(-0.0686558 0 0.0595532)
(-0.068878 0 0.0602156)
(-0.0691036 0 0.0601558)
(-0.0693317 0 0.059352)
(-0.0695628 0 0.0578148)
(-0.0697997 0 0.0556097)
(-0.070048 0 0.0528792)
(-0.0703169 0 0.0498568)
(-0.0706199 0 0.046867)
(-0.0709741 0 0.0442975)
(-0.071398 0 0.0425388)
(-0.0719092 0 0.0418909)
(-0.0725199 0 0.0424567)
(-0.0732338 0 0.0440565)
(-0.0740449 0 0.0462136)
(-0.0749396 0 0.0482463)
(-0.0759032 0 0.0494683)
(-0.0769289 0 0.04944)
(-0.0780249 0 0.0481663)
(-0.0792188 0 0.0461287)
(-0.0805469 0 0.0441042)
(-0.0821767 0 0.042728)
(-0.0841352 0 0.0424817)
(-0.0862287 0 0.0430117)
(-0.0884087 0 0.0433837)
(-0.0906387 0 0.0428527)
(-0.0928992 0 0.0411591)
(-0.0951878 0 0.0384583)
(-0.0975069 0 0.0350865)
(-0.099857 0 0.0313546)
(-0.102232 0 0.0274454)
(-0.104618 0 0.0233997)
(-0.106995 0 0.0191641)
(-0.109344 0 0.0146936)
(-0.111654 0 0.0100992)
(-0.11394 0 0.00580011)
(-0.116236 0 0.00259446)
(-0.118577 0 0.00156953)
(-0.120974 0 0.00385196)
(-0.123379 0 0.0102997)
(-0.125703 0 0.0212919)
(-0.0663114 0 0.0134509)
(-0.0663792 0 0.0246444)
(-0.0664414 0 0.0336942)
(-0.0665528 0 0.0406973)
(-0.0666935 0 0.0461699)
(-0.0668574 0 0.0505076)
(-0.0670398 0 0.0539561)
(-0.0672361 0 0.0566563)
(-0.0674426 0 0.0586725)
(-0.0676563 0 0.0600155)
(-0.0678747 0 0.0606645)
(-0.0680961 0 0.060589)
(-0.0683196 0 0.0597698)
(-0.0685456 0 0.0582203)
(-0.0687769 0 0.05601)
(-0.0690189 0 0.0532855)
(-0.0692808 0 0.0502849)
(-0.0695758 0 0.0473356)
(-0.0699204 0 0.0448262)
(-0.0703329 0 0.0431444)
(-0.07083 0 0.0425835)
(-0.0714233 0 0.0432359)
(-0.0721161 0 0.0449113)
(-0.0729016 0 0.0471246)
(-0.0737664 0 0.0491917)
(-0.0746958 0 0.0504321)
(-0.0756829 0 0.050419)
(-0.0767356 0 0.0491721)
(-0.0778804 0 0.0471838)
(-0.0791518 0 0.0452322)
(-0.080709 0 0.0439503)
(-0.0825751 0 0.0437993)
(-0.0845622 0 0.0443986)
(-0.0866216 0 0.0448112)
(-0.0887165 0 0.0443014)
(-0.0908263 0 0.0426211)
(-0.0929462 0 0.0399335)
(-0.0950759 0 0.0365755)
(-0.0972131 0 0.0328544)
(-0.0993486 0 0.0289475)
(-0.101466 0 0.0248909)
(-0.103542 0 0.0206303)
(-0.105553 0 0.0161256)
(-0.107489 0 0.0114986)
(-0.109362 0 0.00718091)
(-0.1112 0 0.00397716)
(-0.113034 0 0.0029666)
(-0.11487 0 0.00525134)
(-0.116661 0 0.0116566)
(-0.11832 0 0.0225328)
(-0.0653149 0 0.013534)
(-0.0653803 0 0.0248258)
(-0.0654388 0 0.0339685)
(-0.0655465 0 0.0410471)
(-0.0656838 0 0.0465745)
(-0.0658443 0 0.0509478)
(-0.0660234 0 0.0544157)
(-0.0662165 0 0.0571227)
(-0.0664198 0 0.0591364)
(-0.06663 0 0.0604701)
(-0.0668447 0 0.0611054)
(-0.0670621 0 0.061014)
(-0.0672811 0 0.0601788)
(-0.0675023 0 0.0586165)
(-0.0677281 0 0.0564004)
(-0.0679641 0 0.0536814)
(-0.0682192 0 0.0507016)
(-0.0685063 0 0.0477917)
(-0.0688416 0 0.0453407)
(-0.0692427 0 0.0437334)
(-0.0697259 0 0.0432563)
(-0.070302 0 0.0439922)
(-0.0709736 0 0.0457396)
(-0.0717339 0 0.0480056)
(-0.0725691 0 0.0501041)
(-0.0734648 0 0.0513603)
(-0.074414 0 0.0513597)
(-0.0754242 0 0.0501368)
(-0.0765208 0 0.0481941)
(-0.0777368 0 0.0463104)
(-0.0792227 0 0.0451157)
(-0.0809984 0 0.0450513)
(-0.0828816 0 0.0457107)
(-0.0848237 0 0.0461545)
(-0.0867873 0 0.0456559)
(-0.0887507 0 0.0439781)
(-0.0907072 0 0.0412911)
(-0.0926538 0 0.0379326)
(-0.0945853 0 0.034206)
(-0.0964899 0 0.0302829)
(-0.0983479 0 0.0261951)
(-0.100133 0 0.0218876)
(-0.101821 0 0.0173251)
(-0.103398 0 0.0126403)
(-0.104873 0 0.00827672)
(-0.106271 0 0.0050446)
(-0.107618 0 0.00401494)
(-0.108915 0 0.0062666)
(-0.110113 0 0.0125958)
(-0.11113 0 0.0233283)
(-0.0642935 0 0.0136113)
(-0.0643565 0 0.0249982)
(-0.0644113 0 0.0342324)
(-0.0645154 0 0.0413867)
(-0.0646491 0 0.0469698)
(-0.0648062 0 0.0513795)
(-0.0649821 0 0.0548675)
(-0.0651721 0 0.0575816)
(-0.0653722 0 0.0595928)
(-0.0655792 0 0.0609172)
(-0.0657903 0 0.0615387)
(-0.0660038 0 0.0614309)
(-0.0662186 0 0.0605794)
(-0.0664351 0 0.0590039)
(-0.0666557 0 0.0567815)
(-0.0668859 0 0.0540673)
(-0.0671344 0 0.0511074)
(-0.0674138 0 0.0482354)
(-0.06774 0 0.045841)
(-0.0681301 0 0.0443058)
(-0.0685994 0 0.0439098)
(-0.0691585 0 0.0447256)
(-0.0698092 0 0.0465417)
(-0.0705446 0 0.0488571)
(-0.0713509 0 0.050984)
(-0.0722135 0 0.0522534)
(-0.0731257 0 0.0522631)
(-0.0740944 0 0.0510613)
(-0.0751441 0 0.0491605)
(-0.0763061 0 0.0473398)
(-0.0777227 0 0.0462255)
(-0.0794106 0 0.0462394)
(-0.081193 0 0.0469502)
(-0.0830215 0 0.0474162)
(-0.0848583 0 0.0469193)
(-0.0866809 0 0.0452335)
(-0.0884802 0 0.0425353)
(-0.090251 0 0.0391626)
(-0.0919853 0 0.0354148)
(-0.0936686 0 0.0314581)
(-0.0952785 0 0.0273198)
(-0.0967863 0 0.0229444)
(-0.0981646 0 0.0183018)
(-0.0993982 0 0.013535)
(-0.100493 0 0.00909919)
(-0.10147 0 0.00580933)
(-0.102348 0 0.00472787)
(-0.103124 0 0.00691142)
(-0.10375 0 0.0131304)
(-0.104143 0 0.0236903)
(-0.0632494 0 0.0136827)
(-0.0633101 0 0.0251614)
(-0.0633611 0 0.034486)
(-0.0634616 0 0.0417161)
(-0.0635918 0 0.0473557)
(-0.0637455 0 0.0518028)
(-0.0639182 0 0.0553115)
(-0.0641052 0 0.0580333)
(-0.0643022 0 0.0600422)
(-0.0645059 0 0.0613573)
(-0.0647137 0 0.0619646)
(-0.0649235 0 0.0618401)
(-0.0651342 0 0.060972)
(-0.0653463 0 0.0593829)
(-0.065562 0 0.0571537)
(-0.0657866 0 0.0544435)
(-0.0660288 0 0.0515026)
(-0.0663009 0 0.0486673)
(-0.0666182 0 0.0463275)
(-0.0669974 0 0.0448621)
(-0.0674532 0 0.0445441)
(-0.0679955 0 0.0454366)
(-0.0686258 0 0.047318)
(-0.0693367 0 0.0496796)
(-0.0701146 0 0.0518322)
(-0.0709451 0 0.0531125)
(-0.0718213 0 0.0531301)
(-0.0727499 0 0.0519469)
(-0.0737542 0 0.0500844)
(-0.0748639 0 0.0483218)
(-0.0762136 0 0.0472815)
(-0.0778167 0 0.0473657)
(-0.079502 0 0.0481195)
(-0.0812214 0 0.0485992)
(-0.0829368 0 0.0480951)
(-0.0846246 0 0.0463917)
(-0.0862741 0 0.0436709)
(-0.0878773 0 0.040271)
(-0.089424 0 0.0364873)
(-0.0908969 0 0.0324804)
(-0.0922709 0 0.0282734)
(-0.0935149 0 0.0238102)
(-0.0945991 0 0.0190661)
(-0.0955062 0 0.014194)
(-0.0962385 0 0.00966021)
(-0.0968127 0 0.00628375)
(-0.0972418 0 0.00511812)
(-0.0975167 0 0.00719856)
(-0.0975875 0 0.013272)
(-0.0973704 0 0.0236278)
(-0.0621851 0 0.0137484)
(-0.0622434 0 0.0253156)
(-0.0622906 0 0.0347293)
(-0.0623875 0 0.0420353)
(-0.062514 0 0.0477322)
(-0.0626644 0 0.0522176)
(-0.0628339 0 0.055748)
(-0.0630179 0 0.0584778)
(-0.0632119 0 0.0604848)
(-0.0634126 0 0.0617905)
(-0.0636171 0 0.0623835)
(-0.0638234 0 0.0622421)
(-0.0640303 0 0.061357)
(-0.0642382 0 0.0597539)
(-0.0644492 0 0.0575173)
(-0.0646686 0 0.0548105)
(-0.0649048 0 0.0518877)
(-0.0651698 0 0.0490876)
(-0.0654786 0 0.0468006)
(-0.0658471 0 0.0454025)
(-0.0662897 0 0.0451596)
(-0.0668156 0 0.0461256)
(-0.0674258 0 0.048069)
(-0.068113 0 0.0504739)
(-0.0688633 0 0.0526495)
(-0.0696626 0 0.0539385)
(-0.0705041 0 0.0539619)
(-0.0713941 0 0.0527947)
(-0.0723548 0 0.0509672)
(-0.0734143 0 0.0492584)
(-0.0746998 0 0.0482857)
(-0.0762216 0 0.0484326)
(-0.077814 0 0.0492216)
(-0.0794294 0 0.0497071)
(-0.0810294 0 0.0491876)
(-0.0825895 0 0.0474573)
(-0.0840971 0 0.0447036)
(-0.0855422 0 0.0412644)
(-0.0869117 0 0.0374308)
(-0.0881863 0 0.033358)
(-0.0893381 0 0.0290649)
(-0.0903333 0 0.0244953)
(-0.0911402 0 0.0196292)
(-0.0917389 0 0.0146294)
(-0.0921279 0 0.00997238)
(-0.0923188 0 0.00648059)
(-0.0923186 0 0.00519821)
(-0.0921106 0 0.00713998)
(-0.0916422 0 0.0130307)
(-0.090828 0 0.023147)
(-0.061103 0 0.0138083)
(-0.0611589 0 0.0254605)
(-0.0612023 0 0.034962)
(-0.0612954 0 0.0423442)
(-0.0614183 0 0.0480992)
(-0.0615652 0 0.052624)
(-0.0617316 0 0.0561768)
(-0.0619125 0 0.0589155)
(-0.0621037 0 0.0609207)
(-0.0623014 0 0.0622171)
(-0.0625028 0 0.0627957)
(-0.0627058 0 0.0626373)
(-0.0629091 0 0.0617348)
(-0.063113 0 0.0601174)
(-0.0633197 0 0.0578729)
(-0.0635341 0 0.0551689)
(-0.0637646 0 0.052263)
(-0.0640229 0 0.0494968)
(-0.0643234 0 0.0472607)
(-0.0646817 0 0.0459274)
(-0.0651114 0 0.0457567)
(-0.0656212 0 0.0467931)
(-0.0662119 0 0.0487953)
(-0.066876 0 0.0512407)
(-0.0675996 0 0.053437)
(-0.0683689 0 0.0547327)
(-0.0691772 0 0.05476)
(-0.0700303 0 0.0536065)
(-0.0709493 0 0.0518108)
(-0.071961 0 0.0501512)
(-0.0731852 0 0.0492403)
(-0.0746297 0 0.0494428)
(-0.0761339 0 0.0502597)
(-0.077651 0 0.0507438)
(-0.0791422 0 0.0502013)
(-0.0805823 0 0.0484356)
(-0.081957 0 0.0456393)
(-0.0832541 0 0.0421495)
(-0.0844584 0 0.0382531)
(-0.0855477 0 0.0340997)
(-0.0864919 0 0.0297045)
(-0.0872549 0 0.0250107)
(-0.0878025 0 0.0200032)
(-0.0881122 0 0.0148541)
(-0.0881781 0 0.0100491)
(-0.0880064 0 0.00641311)
(-0.0875972 0 0.00498081)
(-0.0869257 0 0.00674717)
(-0.0859344 0 0.0124156)
(-0.084535 0 0.0222523)
(-0.0600056 0 0.0138624)
(-0.060059 0 0.0255962)
(-0.0600986 0 0.035184)
(-0.0601879 0 0.0426423)
(-0.060307 0 0.0484564)
(-0.0604503 0 0.0530218)
(-0.0606134 0 0.0565981)
(-0.0607914 0 0.0593463)
(-0.0609796 0 0.0613502)
(-0.0611745 0 0.0626375)
(-0.0613729 0 0.0632017)
(-0.0615728 0 0.063026)
(-0.0617727 0 0.062106)
(-0.061973 0 0.0604738)
(-0.0621756 0 0.058221)
(-0.0623854 0 0.055519)
(-0.0626105 0 0.0526292)
(-0.0628623 0 0.0498954)
(-0.063155 0 0.0477082)
(-0.0635033 0 0.0464374)
(-0.0639206 0 0.046336)
(-0.0644148 0 0.0474397)
(-0.0649867 0 0.0494978)
(-0.0656283 0 0.0519809)
(-0.0663263 0 0.0541958)
(-0.0670669 0 0.0554963)
(-0.0678434 0 0.0555258)
(-0.0686615 0 0.0543839)
(-0.0695411 0 0.052617)
(-0.0705075 0 0.0510027)
(-0.0716737 0 0.050148)
(-0.0730451 0 0.0503994)
(-0.0744665 0 0.0512375)
(-0.0758913 0 0.0517135)
(-0.077281 0 0.0511411)
(-0.0786095 0 0.0493325)
(-0.0798611 0 0.0464847)
(-0.0810213 0 0.042934)
(-0.0820729 0 0.0389628)
(-0.0829913 0 0.0347154)
(-0.0837439 0 0.0302029)
(-0.0842923 0 0.0253683)
(-0.0846001 0 0.020201)
(-0.0846417 0 0.0148817)
(-0.0844063 0 0.00990443)
(-0.0838941 0 0.00609541)
(-0.0830976 0 0.00447931)
(-0.0819833 0 0.00603207)
(-0.0804869 0 0.0114364)
(-0.0785148 0 0.0209486)
(-0.0588951 0 0.0139107)
(-0.0589461 0 0.0257224)
(-0.0589817 0 0.0353949)
(-0.059067 0 0.0429295)
(-0.0591822 0 0.0488036)
(-0.0593219 0 0.0534107)
(-0.0594817 0 0.0570116)
(-0.0596566 0 0.0597701)
(-0.059842 0 0.0617734)
(-0.060034 0 0.0630518)
(-0.0602297 0 0.0636017)
(-0.0604265 0 0.0634086)
(-0.0606234 0 0.0624709)
(-0.0608201 0 0.0608237)
(-0.061019 0 0.0585621)
(-0.0612245 0 0.0558615)
(-0.0614446 0 0.0529867)
(-0.0616904 0 0.0502839)
(-0.0619754 0 0.0481438)
(-0.0623143 0 0.0469329)
(-0.0627195 0 0.0468981)
(-0.0631988 0 0.0480661)
(-0.0637523 0 0.0501772)
(-0.0643725 0 0.0526956)
(-0.0650459 0 0.0549271)
(-0.0657592 0 0.0562309)
(-0.0665056 0 0.056261)
(-0.0672907 0 0.0551288)
(-0.0681331 0 0.053388)
(-0.0690569 0 0.0518151)
(-0.0701688 0 0.0510114)
(-0.0714718 0 0.0513057)
(-0.0728159 0 0.0521589)
(-0.0741552 0 0.052621)
(-0.0754511 0 0.0520127)
(-0.076677 0 0.0501543)
(-0.0778157 0 0.047247)
(-0.078851 0 0.0436261)
(-0.0797635 0 0.0395693)
(-0.0805264 0 0.0352156)
(-0.0811045 0 0.0305719)
(-0.0814574 0 0.0255809)
(-0.0815464 0 0.0202364)
(-0.0813424 0 0.014727)
(-0.0808294 0 0.00955376)
(-0.0800007 0 0.00554291)
(-0.0788407 0 0.00370859)
(-0.0773066 0 0.00500797)
(-0.0753254 0 0.0101038)
(-0.0727953 0 0.0192425)
(-0.0577735 0 0.0139531)
(-0.0578221 0 0.0258391)
(-0.0578536 0 0.0355946)
(-0.0579349 0 0.0432054)
(-0.0580461 0 0.0491404)
(-0.0581821 0 0.0537904)
(-0.0583384 0 0.0574173)
(-0.0585102 0 0.0601871)
(-0.0586927 0 0.0621903)
(-0.0588821 0 0.0634603)
(-0.059075 0 0.063996)
(-0.0592691 0 0.0637855)
(-0.0594629 0 0.06283)
(-0.0596566 0 0.0611675)
(-0.0598519 0 0.0588968)
(-0.0600534 0 0.0561968)
(-0.0602689 0 0.053336)
(-0.060509 0 0.0506628)
(-0.0607869 0 0.0485678)
(-0.0611167 0 0.0474146)
(-0.0615103 0 0.0474435)
(-0.0619751 0 0.048673)
(-0.0625112 0 0.0508344)
(-0.0631108 0 0.0533858)
(-0.0637608 0 0.0556321)
(-0.0644482 0 0.056938)
(-0.0651663 0 0.0569675)
(-0.0659203 0 0.0558433)
(-0.0667281 0 0.0541259)
(-0.0676122 0 0.052591)
(-0.0686736 0 0.0518335)
(-0.0699131 0 0.0521651)
(-0.0711859 0 0.0530282)
(-0.0724466 0 0.0534712)
(-0.073657 0 0.0528217)
(-0.0747899 0 0.0509077)
(-0.0758268 0 0.0479339)
(-0.0767499 0 0.0442344)
(-0.0775379 0 0.0400825)
(-0.0781616 0 0.0356114)
(-0.0785836 0 0.030824)
(-0.0787613 0 0.0256624)
(-0.0786539 0 0.0201243)
(-0.0782286 0 0.0144058)
(-0.0774637 0 0.00901372)
(-0.0763452 0 0.00477263)
(-0.0748483 0 0.00268539)
(-0.0729201 0 0.00369024)
(-0.070478 0 0.00843058)
(-0.0674085 0 0.0171427)
(-0.0566427 0 0.0139897)
(-0.0566888 0 0.025946)
(-0.0567163 0 0.0357828)
(-0.0567934 0 0.0434697)
(-0.0569006 0 0.0494666)
(-0.0570327 0 0.0541609)
(-0.0571855 0 0.0578148)
(-0.0573542 0 0.060597)
(-0.0575338 0 0.0626009)
(-0.0577205 0 0.063863)
(-0.0579108 0 0.0643848)
(-0.0581022 0 0.0641571)
(-0.0582934 0 0.0631837)
(-0.0584841 0 0.0615057)
(-0.0586762 0 0.0592254)
(-0.0588741 0 0.0565255)
(-0.0590853 0 0.0536778)
(-0.05932 0 0.0510327)
(-0.0595913 0 0.0489809)
(-0.0599124 0 0.0478829)
(-0.060295 0 0.047973)
(-0.060746 0 0.0492612)
(-0.0612653 0 0.0514704)
(-0.0618453 0 0.0540528)
(-0.0624732 0 0.0563124)
(-0.0631361 0 0.0576192)
(-0.0638277 0 0.0576471)
(-0.0645529 0 0.0565293)
(-0.0653285 0 0.0548332)
(-0.066176 0 0.053333)
(-0.0671908 0 0.0526175)
(-0.0683721 0 0.0529814)
(-0.0695797 0 0.0538497)
(-0.0707693 0 0.0542693)
(-0.0719029 0 0.0535743)
(-0.0729528 0 0.0515996)
(-0.0738995 0 0.0485535)
(-0.0747238 0 0.0447684)
(-0.0754024 0 0.040513)
(-0.0759044 0 0.0359149)
(-0.0761899 0 0.0309727)
(-0.0762143 0 0.0256277)
(-0.0759344 0 0.019881)
(-0.0753138 0 0.0139354)
(-0.0743252 0 0.00830237)
(-0.0729465 0 0.00380327)
(-0.0711427 0 0.0014285)
(-0.0688502 0 0.0020968)
(-0.0659754 0 0.00643222)
(-0.0623909 0 0.0146607)
(-0.0555042 0 0.0140205)
(-0.0555478 0 0.0260432)
(-0.0555713 0 0.0359594)
(-0.0556443 0 0.0437223)
(-0.0557473 0 0.0497819)
(-0.0558754 0 0.0545218)
(-0.0560247 0 0.0582042)
(-0.0561902 0 0.061)
(-0.0563671 0 0.0630055)
(-0.0565511 0 0.0642602)
(-0.0567388 0 0.0647685)
(-0.0569278 0 0.0645237)
(-0.0571164 0 0.0635324)
(-0.0573045 0 0.0618388)
(-0.0574937 0 0.0595487)
(-0.0576883 0 0.0568482)
(-0.0578955 0 0.0540126)
(-0.0581254 0 0.0513942)
(-0.0583903 0 0.0493838)
(-0.0587032 0 0.0483387)
(-0.0590753 0 0.0484873)
(-0.0595132 0 0.0498316)
(-0.0600166 0 0.0520862)
(-0.060578 0 0.0546977)
(-0.0611849 0 0.0569693)
(-0.0618249 0 0.0582761)
(-0.062492 0 0.0583015)
(-0.0631905 0 0.0571891)
(-0.0639366 0 0.0555123)
(-0.0647505 0 0.0540439)
(-0.0657229 0 0.0533666)
(-0.0668513 0 0.0537586)
(-0.0680002 0 0.0546281)
(-0.0691263 0 0.0550208)
(-0.070192 0 0.0542768)
(-0.0711696 0 0.0522377)
(-0.0720382 0 0.0491143)
(-0.0727776 0 0.0452378)
(-0.073363 0 0.0408719)
(-0.0737614 0 0.0361386)
(-0.0739312 0 0.0310322)
(-0.0738256 0 0.0254926)
(-0.073399 0 0.0195238)
(-0.0726111 0 0.0133344)
(-0.0714294 0 0.00743946)
(-0.0698231 0 0.00265553)
(-0.0677463 0 -4.08505e-05)
(-0.0651242 0 0.000248649)
(-0.0618506 0 0.00412817)
(-0.0577825 0 0.0118123)
(-0.0543594 0 0.0140456)
(-0.0544007 0 0.0261308)
(-0.0544201 0 0.0361244)
(-0.0544889 0 0.0439631)
(-0.0545877 0 0.0500861)
(-0.0547119 0 0.054873)
(-0.0548577 0 0.0585854)
(-0.05502 0 0.0613959)
(-0.055194 0 0.063404)
(-0.0553754 0 0.064652)
(-0.0555608 0 0.0651473)
(-0.0557475 0 0.0648857)
(-0.0559338 0 0.0638766)
(-0.0561194 0 0.0621673)
(-0.056306 0 0.059867)
(-0.0564976 0 0.0571654)
(-0.0567012 0 0.0543409)
(-0.0569265 0 0.0517479)
(-0.0571855 0 0.0497769)
(-0.0574908 0 0.0487825)
(-0.0578529 0 0.0489871)
(-0.0582783 0 0.050385)
(-0.0587666 0 0.0526828)
(-0.0593105 0 0.0553218)
(-0.0598978 0 0.0576044)
(-0.0605165 0 0.0589105)
(-0.0611609 0 0.0589329)
(-0.061835 0 0.0578248)
(-0.0625543 0 0.0561656)
(-0.0633378 0 0.0547266)
(-0.064272 0 0.0540841)
(-0.065353 0 0.0545005)
(-0.0664498 0 0.0553681)
(-0.0675202 0 0.0557314)
(-0.0685273 0 0.0549359)
(-0.0694432 0 0.0528294)
(-0.0702464 0 0.0496254)
(-0.0709153 0 0.0456528)
(-0.0714241 0 0.0411708)
(-0.0717382 0 0.0362958)
(-0.0718142 0 0.0310175)
(-0.0716033 0 0.0252739)
(-0.0710574 0 0.0190715)
(-0.0701324 0 0.0126234)
(-0.0687908 0 0.00644685)
(-0.066993 0 0.00135259)
(-0.0646817 0 -0.00169841)
(-0.0617702 0 -0.00182946)
(-0.0581383 0 0.00154265)
(-0.0536264 0 0.00861892)
(-0.0532097 0 0.014065)
(-0.0532487 0 0.0262088)
(-0.0532641 0 0.0362778)
(-0.0533287 0 0.0441919)
(-0.0534233 0 0.0503794)
(-0.0535436 0 0.0552146)
(-0.0536858 0 0.0589583)
(-0.053845 0 0.0617849)
(-0.0540162 0 0.0637965)
(-0.0541952 0 0.0650387)
(-0.0543783 0 0.0655214)
(-0.0545628 0 0.0652434)
(-0.054747 0 0.0642167)
(-0.0549304 0 0.0624917)
(-0.0551146 0 0.0601809)
(-0.0553035 0 0.0574777)
(-0.0555038 0 0.0546633)
(-0.055725 0 0.0520943)
(-0.0559785 0 0.050161)
(-0.0562765 0 0.049215)
(-0.0566293 0 0.0494733)
(-0.0570429 0 0.0509223)
(-0.0575169 0 0.0532614)
(-0.0580443 0 0.0559263)
(-0.0586133 0 0.058219)
(-0.0592124 0 0.0595241)
(-0.059836 0 0.0595432)
(-0.060488 0 0.0584387)
(-0.0611831 0 0.0567957)
(-0.0619394 0 0.0553839)
(-0.0628396 0 0.0547735)
(-0.0638788 0 0.0552114)
(-0.0649303 0 0.0560746)