/*--------------------------------*- C++ -*----------------------------------*\
  =========                 |
  \\      /  F ield         | OpenFOAM: The Open Source CFD Toolbox
   \\    /   O peration     | Website:  https://openfoam.org
    \\  /    A nd           | Version:  9
     \\/     M anipulation  |
\*---------------------------------------------------------------------------*/
FoamFile
{
    format      ascii;
    class       surfaceVectorField;
    location    "0.11";
    object      Uf;
}
// * * * * * * * * * * * * * * * * * * * * * * * * * * * * * * * * * * * * * //

dimensions      [0 1 -1 0 0 0 0];

internalField   nonuniform List<vector> 
9850
(
(-0.0751479 0 0.0170253)
(-0.0748055 0 0.0122469)
(-0.0752335 0 0.0260019)
(-0.0748942 0 0.0222424)
(-0.075357 0 0.0331059)
(-0.074988 0 0.0302656)
(-0.0755118 0 0.0386744)
(-0.0751282 0 0.0364937)
(-0.0756919 0 0.0431365)
(-0.0752968 0 0.0414318)
(-0.0758922 0 0.0467691)
(-0.0754875 0 0.0454346)
(-0.0761092 0 0.0497218)
(-0.0756963 0 0.0487028)
(-0.0763401 0 0.0520603)
(-0.07592 0 0.051337)
(-0.0765826 0 0.0537937)
(-0.0761563 0 0.0533696)
(-0.0768351 0 0.0548953)
(-0.076403 0 0.0547876)
(-0.0770964 0 0.0553203)
(-0.0766588 0 0.0555515)
(-0.0773657 0 0.0550219)
(-0.0769226 0 0.0556122)
(-0.077643 0 0.053969)
(-0.0771938 0 0.0549275)
(-0.0779301 0 0.0521648)
(-0.0774732 0 0.0534799)
(-0.0782312 0 0.0496698)
(-0.0777635 0 0.0512982)
(-0.0785544 0 0.0466234)
(-0.0780707 0 0.0484804)
(-0.0789121 0 0.0432596)
(-0.0784047 0 0.0452146)
(-0.0793219 0 0.0399051)
(-0.0787808 0 0.0417876)
(-0.0798055 0 0.0369508)
(-0.0792187 0 0.0385721)
(-0.0803864 0 0.0347856)
(-0.0797418 0 0.0359785)
(-0.0810866 0 0.0336983)
(-0.0803737 0 0.0343695)
(-0.0819214 0 0.0337673)
(-0.0811335 0 0.0339477)
(-0.0828961 0 0.0347795)
(-0.082032 0 0.034649)
(-0.0840053 0 0.036228)
(-0.0830683 0 0.0360915)
(-0.0852366 0 0.0374231)
(-0.0842315 0 0.0376288)
(-0.0865795 0 0.0377065)
(-0.0855077 0 0.0385249)
(-0.0880355 0 0.0367019)
(-0.0868895 0 0.0382122)
(-0.0896273 0 0.0344898)
(-0.0883879 0 0.036532)
(-0.0913999 0 0.0316048)
(-0.0900387 0 0.0338344)
(-0.0934121 0 0.0288281)
(-0.091893 0 0.0308596)
(-0.0961269 0 0.0264784)
(-0.0941984 0 0.0282251)
(-0.0991275 0 0.0252674)
(-0.0970182 0 0.0266121)
(-0.102389 0 0.0246057)
(-0.100113 0 0.0259841)
(-0.105877 0 0.0236268)
(-0.10344 0 0.0254482)
(-0.109571 0 0.021706)
(-0.10697 0 0.0241655)
(-0.113477 0 0.0186647)
(-0.110693 0 0.0217388)
(-0.117622 0 0.0146765)
(-0.11463 0 0.018224)
(-0.122041 0 0.0100562)
(-0.118814 0 0.013924)
(-0.12677 0 0.00508411)
(-0.12328 0 0.00916947)
(-0.131842 0 -7.99469e-05)
(-0.128058 0 0.00418977)
(-0.137281 0 -0.00540883)
(-0.133173 0 -0.000928799)
(-0.143114 0 -0.0109647)
(-0.138644 0 -0.00622324)
(-0.149374 0 -0.0167991)
(-0.144495 0 -0.0117819)
(-0.156115 0 -0.0227976)
(-0.150766 0 -0.0176103)
(-0.16343 0 -0.0285087)
(-0.157525 0 -0.0234521)
(-0.171453 0 -0.0330485)
(-0.164879 0 -0.0286341)
(-0.180336 0 -0.0351728)
(-0.172966 0 -0.0320436)
(-0.190215 0 -0.0335311)
(-0.181925 0 -0.032308)
(-0.201165 0 -0.0269912)
(-0.191843 0 -0.0281291)
(-0.202756 0 -0.0185934)
(-0.0745508 0 0.0172252)
(-0.0741853 0 0.0123839)
(-0.0746346 0 0.0263144)
(-0.0742726 0 0.0225033)
(-0.0747563 0 0.0335046)
(-0.0743641 0 0.0306264)
(-0.0749093 0 0.0391331)
(-0.0745024 0 0.0369264)
(-0.0750877 0 0.0436343)
(-0.0746692 0 0.0419126)
(-0.0752865 0 0.0472903)
(-0.0748582 0 0.0459453)
(-0.0755017 0 0.0502552)
(-0.0750653 0 0.0492301)
(-0.0757306 0 0.0525978)
(-0.0752872 0 0.0518714)
(-0.0759708 0 0.0543296)
(-0.0755212 0 0.0539044)
(-0.0762206 0 0.0554255)
(-0.0757654 0 0.0553178)
(-0.0764787 0 0.055842)
(-0.0760182 0 0.0560737)
(-0.0767443 0 0.0555342)
(-0.0762784 0 0.0561245)
(-0.0770174 0 0.0544731)
(-0.0765456 0 0.0554299)
(-0.0772998 0 0.0526655)
(-0.0768205 0 0.0539752)
(-0.0775959 0 0.0501761)
(-0.0771058 0 0.0517931)
(-0.0779135 0 0.0471496)
(-0.0774075 0 0.0489865)
(-0.0782651 0 0.0438245)
(-0.0777356 0 0.0457488)
(-0.0786682 0 0.0405315)
(-0.0781052 0 0.0423713)
(-0.0791441 0 0.0376618)
(-0.0785358 0 0.039229)
(-0.0797159 0 0.0356008)
(-0.0790504 0 0.036731)
(-0.0804048 0 0.0346288)
(-0.0796719 0 0.0352337)
(-0.0812255 0 0.0348124)
(-0.0804189 0 0.0349291)
(-0.0821824 0 0.0359262)
(-0.0813011 0 0.0357401)
(-0.0832698 0 0.037455)
(-0.0823171 0 0.0372735)
(-0.084475 0 0.0387084)
(-0.0834557 0 0.0388778)
(-0.0857874 0 0.0390373)
(-0.0847027 0 0.0398214)
(-0.0872087 0 0.0380817)
(-0.086051 0 0.0395507)
(-0.0887613 0 0.0359405)
(-0.0875113 0 0.0379258)
(-0.0904891 0 0.0331599)
(-0.089119 0 0.0353131)
(-0.0924494 0 0.0305213)
(-0.0909239 0 0.0324589)
(-0.0950912 0 0.028358)
(-0.093166 0 0.0299863)
(-0.0980065 0 0.0273275)
(-0.095905 0 0.0285557)
(-0.101168 0 0.0268251)
(-0.0989058 0 0.0280922)
(-0.104541 0 0.0259855)
(-0.102124 0 0.0276971)
(-0.108105 0 0.024197)
(-0.105528 0 0.0265414)
(-0.111863 0 0.0212966)
(-0.10911 0 0.0242444)
(-0.115839 0 0.0174692)
(-0.112886 0 0.0208751)
(-0.120066 0 0.0130338)
(-0.116887 0 0.0167422)
(-0.124577 0 0.00827044)
(-0.121144 0 0.0121763)
(-0.129397 0 0.00333523)
(-0.125683 0 0.0074029)
(-0.134547 0 -0.00174921)
(-0.130522 0 0.00250451)
(-0.140046 0 -0.00704599)
(-0.135678 0 -0.00255734)
(-0.14592 0 -0.0125981)
(-0.141167 0 -0.007866)
(-0.152216 0 -0.0182703)
(-0.147021 0 -0.0134129)
(-0.159017 0 -0.0235834)
(-0.1533 0 -0.0189184)
(-0.166439 0 -0.0276333)
(-0.160097 0 -0.023686)
(-0.174613 0 -0.0291778)
(-0.167531 0 -0.0265947)
(-0.183639 0 -0.0268983)
(-0.175718 0 -0.0262904)
(-0.193552 0 -0.0197194)
(-0.184711 0 -0.0215207)
(-0.19451 0 -0.0114356)
(-0.0739057 0 0.0174202)
(-0.0735184 0 0.0125167)
(-0.0739877 0 0.0266212)
(-0.0736041 0 0.0227584)
(-0.0741074 0 0.0338977)
(-0.0736932 0 0.0309813)
(-0.0742585 0 0.0395868)
(-0.0738295 0 0.0373537)
(-0.0744351 0 0.0441274)
(-0.0739944 0 0.0423885)
(-0.0746321 0 0.0478069)
(-0.0741816 0 0.0464513)
(-0.0748454 0 0.0507837)
(-0.0743869 0 0.0497527)
(-0.0750722 0 0.0531299)
(-0.0746067 0 0.0524008)
(-0.0753099 0 0.0548595)
(-0.0748384 0 0.0544337)
(-0.0755569 0 0.0559488)
(-0.0750799 0 0.0558419)
(-0.0758116 0 0.0563561)
(-0.0753295 0 0.0565892)
(-0.0760734 0 0.056038)
(-0.0755861 0 0.0566294)
(-0.0763422 0 0.0549681)
(-0.0758492 0 0.0559242)
(-0.0766198 0 0.0531565)
(-0.0761194 0 0.0544619)
(-0.0769105 0 0.0506723)
(-0.0763995 0 0.0522791)
(-0.0772223 0 0.047665)
(-0.0766955 0 0.0494834)
(-0.0775676 0 0.0443782)
(-0.0770174 0 0.0462733)
(-0.0779636 0 0.0411458)
(-0.0773801 0 0.0429447)
(-0.0784314 0 0.0383597)
(-0.077803 0 0.0398747)
(-0.0789936 0 0.0364012)
(-0.0783086 0 0.0374707)
(-0.0796706 0 0.0355423)
(-0.0789191 0 0.0360829)
(-0.0804762 0 0.0358377)
(-0.0796523 0 0.0358925)
(-0.0814144 0 0.0370502)
(-0.0805172 0 0.0368097)
(-0.0824788 0 0.0386564)
(-0.0815118 0 0.0384303)
(-0.0836564 0 0.0399655)
(-0.0826244 0 0.040098)
(-0.0849367 0 0.0403376)
(-0.0838408 0 0.0410861)
(-0.0863213 0 0.0394291)
(-0.085154 0 0.0408546)
(-0.0878322 0 0.037356)
(-0.0865745 0 0.0392822)
(-0.0895124 0 0.0346757)
(-0.0881371 0 0.036751)
(-0.0914173 0 0.0321691)
(-0.08989 0 0.034013)
(-0.0939818 0 0.0301825)
(-0.0920656 0 0.031696)
(-0.0968073 0 0.0293214)
(-0.0947198 0 0.0304393)
(-0.0998651 0 0.0289671)
(-0.0976217 0 0.0301308)
(-0.103119 0 0.0282562)
(-0.100725 0 0.0298662)
(-0.106546 0 0.0265903)
(-0.104 0 0.0288265)
(-0.11015 0 0.0238208)
(-0.107435 0 0.0266469)
(-0.11395 0 0.0201422)
(-0.111044 0 0.0234089)
(-0.117977 0 0.0158763)
(-0.114855 0 0.0194268)
(-0.122258 0 0.0113009)
(-0.118894 0 0.0150304)
(-0.126816 0 0.00656786)
(-0.123185 0 0.0104413)
(-0.131666 0 0.00169659)
(-0.127741 0 0.00573782)
(-0.136821 0 -0.00337473)
(-0.132573 0 0.000879288)
(-0.1423 0 -0.0086796)
(-0.137691 0 -0.00421338)
(-0.148143 0 -0.0140642)
(-0.143121 0 -0.00951808)
(-0.15442 0 -0.0190277)
(-0.148911 0 -0.0147339)
(-0.161233 0 -0.0226529)
(-0.155145 0 -0.0191437)
(-0.168693 0 -0.0237062)
(-0.161926 0 -0.0216217)
(-0.176872 0 -0.020903)
(-0.169346 0 -0.0208373)
(-0.18577 0 -0.0132215)
(-0.177431 0 -0.015589)
(-0.186152 0 -0.00509261)
(-0.0732148 0 0.0176102)
(-0.0728071 0 0.0126454)
(-0.0732949 0 0.0269221)
(-0.0728913 0 0.0230076)
(-0.0734126 0 0.034285)
(-0.0729778 0 0.0313301)
(-0.0735617 0 0.0400351)
(-0.073112 0 0.0377753)
(-0.0737364 0 0.0446155)
(-0.0732749 0 0.0428593)
(-0.0739315 0 0.0483185)
(-0.0734602 0 0.0469526)
(-0.0741429 0 0.0513069)
(-0.0736635 0 0.0502705)
(-0.0743674 0 0.0536563)
(-0.0738812 0 0.0529251)
(-0.0746026 0 0.0553829)
(-0.0741104 0 0.0549573)
(-0.0748466 0 0.056465)
(-0.0743491 0 0.0563598)
(-0.0750979 0 0.0568623)
(-0.0745955 0 0.0570977)
(-0.0753557 0 0.0565333)
(-0.0748483 0 0.0571267)
(-0.07562 0 0.0554539)
(-0.075107 0 0.0564104)
(-0.0758926 0 0.0536376)
(-0.0753723 0 0.0549399)
(-0.0761778 0 0.051158)
(-0.0756471 0 0.0527558)
(-0.0764835 0 0.0481695)
(-0.0759372 0 0.0499706)
(-0.0768221 0 0.0449204)
(-0.0762526 0 0.0467877)
(-0.0772106 0 0.0417479)
(-0.076608 0 0.0435072)
(-0.0776697 0 0.039044)
(-0.0770227 0 0.0405083)
(-0.0782215 0 0.0371862)
(-0.0775185 0 0.0381967)
(-0.0788856 0 0.0364381)
(-0.0781172 0 0.036916)
(-0.0796753 0 0.0368426)
(-0.0788358 0 0.0368369)
(-0.0805936 0 0.0381506)
(-0.0796825 0 0.0378568)
(-0.0816337 0 0.039831)
(-0.0806545 0 0.0395608)
(-0.0827825 0 0.0411931)
(-0.0817402 0 0.0412884)
(-0.0840294 0 0.0416061)
(-0.0829249 0 0.0423177)
(-0.0853759 0 0.0407421)
(-0.0842018 0 0.0421226)
(-0.0868438 0 0.0387343)
(-0.0855812 0 0.0405998)
(-0.0884747 0 0.0361503)
(-0.0870971 0 0.0381467)
(-0.0903222 0 0.0337699)
(-0.0887962 0 0.0355203)
(-0.0928065 0 0.0319507)
(-0.090903 0 0.0333521)
(-0.0955381 0 0.031248)
(-0.0934692 0 0.0322605)
(-0.0984872 0 0.0310302)
(-0.0962682 0 0.0320969)
(-0.101616 0 0.0304368)
(-0.0992536 0 0.0319519)
(-0.104901 0 0.0288824)
(-0.102393 0 0.0310168)
(-0.108344 0 0.0262325)
(-0.105676 0 0.0289423)
(-0.111963 0 0.0226895)
(-0.109113 0 0.0258217)
(-0.115784 0 0.0185763)
(-0.112729 0 0.0219741)
(-0.119831 0 0.0141674)
(-0.116546 0 0.0177281)
(-0.12412 0 0.00961018)
(-0.120583 0 0.013301)
(-0.128663 0 0.00492155)
(-0.12485 0 0.0087661)
(-0.133465 0 4.23868e-05)
(-0.129351 0 0.00408071)
(-0.13854 0 -0.00505082)
(-0.134092 0 -0.00082991)
(-0.143922 0 -0.0101876)
(-0.139092 0 -0.00593035)
(-0.149673 0 -0.0148495)
(-0.144391 0 -0.0109001)
(-0.15588 0 -0.0181109)
(-0.150064 0 -0.0150053)
(-0.162634 0 -0.0187499)
(-0.156198 0 -0.0171196)
(-0.169982 0 -0.0155182)
(-0.162868 0 -0.0159381)
(-0.177899 0 -0.00745001)
(-0.170071 0 -0.0103113)
(-0.17776 0 0.00047677)
(-0.0724811 0 0.0177952)
(-0.0720544 0 0.0127696)
(-0.0725592 0 0.0272168)
(-0.0721369 0 0.0232507)
(-0.0726746 0 0.0346663)
(-0.0722208 0 0.0316723)
(-0.0728216 0 0.0404779)
(-0.0723526 0 0.0381908)
(-0.0729942 0 0.0450985)
(-0.0725133 0 0.0433245)
(-0.0731873 0 0.0488253)
(-0.0726965 0 0.0474486)
(-0.0733965 0 0.0518252)
(-0.0728976 0 0.0507831)
(-0.0736187 0 0.0541774)
(-0.073113 0 0.053444)
(-0.0738513 0 0.0559005)
(-0.0733397 0 0.055475)
(-0.0740921 0 0.0569747)
(-0.0735754 0 0.0568711)
(-0.0743399 0 0.0573613)
(-0.0738183 0 0.057599)
(-0.0745935 0 0.0570207)
(-0.0740672 0 0.057616)
(-0.0748532 0 0.0559313)
(-0.0743214 0 0.0568879)
(-0.0751205 0 0.05411)
(-0.0745817 0 0.0554087)
(-0.0753999 0 0.0516347)
(-0.0748509 0 0.0532229)
(-0.0756993 0 0.0486645)
(-0.0751348 0 0.0504477)
(-0.0760309 0 0.0454525)
(-0.0754434 0 0.0472913)
(-0.0764114 0 0.0423389)
(-0.0757913 0 0.0440582)
(-0.0768613 0 0.0397158)
(-0.0761972 0 0.0411293)
(-0.077402 0 0.0379566)
(-0.0766828 0 0.0389081)
(-0.0780525 0 0.0373163)
(-0.0772691 0 0.0377321)
(-0.0788253 0 0.0378263)
(-0.0779723 0 0.0377611)
(-0.0797229 0 0.0392259)
(-0.0787999 0 0.0388801)
(-0.0807378 0 0.0409767)
(-0.0797486 0 0.0406639)
(-0.0818568 0 0.0423881)
(-0.0808063 0 0.0424479)
(-0.0830692 0 0.0428386)
(-0.0819583 0 0.0435153)
(-0.0843765 0 0.0420162)
(-0.0831979 0 0.0433537)
(-0.0858 0 0.0400703)
(-0.084535 0 0.0418776)
(-0.0873801 0 0.0375788)
(-0.086003 0 0.039499)
(-0.0891683 0 0.0353197)
(-0.0876469 0 0.0369793)
(-0.0915695 0 0.0336604)
(-0.0896827 0 0.0349529)
(-0.0942041 0 0.0331075)
(-0.0921583 0 0.0340169)
(-0.0970407 0 0.0330165)
(-0.0948515 0 0.033988)
(-0.100041 0 0.0325297)
(-0.0977154 0 0.0339519)
(-0.10318 0 0.0310745)
(-0.100717 0 0.0331099)
(-0.106459 0 0.0285295)
(-0.103844 0 0.0311279)
(-0.109892 0 0.0251048)
(-0.107106 0 0.0281107)
(-0.113502 0 0.0211248)
(-0.110523 0 0.0243811)
(-0.11731 0 0.0168609)
(-0.114114 0 0.0202662)
(-0.121326 0 0.0124561)
(-0.117894 0 0.0159784)
(-0.125555 0 0.00792411)
(-0.121867 0 0.0115858)
(-0.13 0 0.00320713)
(-0.126034 0 0.00704404)
(-0.134669 0 -0.00171013)
(-0.130396 0 0.00228268)
(-0.13959 0 -0.00664196)
(-0.134964 0 -0.00265012)
(-0.144816 0 -0.0110528)
(-0.139775 0 -0.00741609)
(-0.150423 0 -0.0140091)
(-0.144892 0 -0.0112674)
(-0.156482 0 -0.0143022)
(-0.150391 0 -0.0130799)
(-0.163025 0 -0.010724)
(-0.156331 0 -0.0115764)
(-0.170005 0 -0.00237054)
(-0.162689 0 -0.00565761)
(-0.169401 0 0.00532324)
(-0.0717072 0 0.0179747)
(-0.0712629 0 0.0128892)
(-0.0717832 0 0.0275049)
(-0.0713434 0 0.023487)
(-0.0718962 0 0.035041)
(-0.0714245 0 0.0320074)
(-0.0720407 0 0.0409146)
(-0.0715538 0 0.0385995)
(-0.0722111 0 0.045576)
(-0.071712 0 0.0437835)
(-0.0724019 0 0.0493267)
(-0.0718928 0 0.0479389)
(-0.0726088 0 0.0523382)
(-0.0720915 0 0.0512901)
(-0.0728285 0 0.0546928)
(-0.0723044 0 0.0539569)
(-0.0730582 0 0.0564119)
(-0.0725284 0 0.0559863)
(-0.0732958 0 0.0574777)
(-0.072761 0 0.0573754)
(-0.0735398 0 0.057853)
(-0.0730004 0 0.0580927)
(-0.0737892 0 0.0575003)
(-0.0732452 0 0.0580971)
(-0.074044 0 0.0564003)
(-0.0734948 0 0.0573565)
(-0.074306 0 0.0545734)
(-0.0737499 0 0.0558681)
(-0.0745794 0 0.0521017)
(-0.0740133 0 0.05368)
(-0.0748722 0 0.0491494)
(-0.0742908 0 0.0509142)
(-0.0751964 0 0.0459738)
(-0.0745924 0 0.0477838)
(-0.0755686 0 0.042918)
(-0.0749324 0 0.0445972)
(-0.0760088 0 0.0403741)
(-0.0753293 0 0.0417368)
(-0.076538 0 0.0387112)
(-0.0758043 0 0.0396044)
(-0.0771743 0 0.0381757)
(-0.0763776 0 0.0385304)
(-0.0779296 0 0.0387877)
(-0.0770648 0 0.0386643)
(-0.0788056 0 0.0402751)
(-0.0778727 0 0.0398788)
(-0.0797945 0 0.0420923)
(-0.0787973 0 0.0417387)
(-0.0808828 0 0.0435495)
(-0.0798262 0 0.0435756)
(-0.0820597 0 0.0440343)
(-0.0809448 0 0.0446779)
(-0.0833269 0 0.0432504)
(-0.0821461 0 0.0445469)
(-0.0847048 0 0.0413632)
(-0.0834402 0 0.0431145)
(-0.0862327 0 0.0389597)
(-0.0848591 0 0.0408066)
(-0.08796 0 0.0368163)
(-0.0864465 0 0.0383885)
(-0.0902759 0 0.0353089)
(-0.0884097 0 0.0364968)
(-0.0928111 0 0.0348964)
(-0.0907927 0 0.0357071)
(-0.0955329 0 0.034922)
(-0.0933781 0 0.0358025)
(-0.0984015 0 0.0345306)
(-0.0961183 0 0.0358643)
(-0.101393 0 0.0331621)
(-0.09898 0 0.0351041)
(-0.104504 0 0.0307081)
(-0.101949 0 0.0332021)
(-0.107749 0 0.0273862)
(-0.105033 0 0.0302738)
(-0.111145 0 0.0235216)
(-0.108249 0 0.0266456)
(-0.11471 0 0.0193823)
(-0.111612 0 0.0226423)
(-0.118449 0 0.0151062)
(-0.115132 0 0.0184712)
(-0.122364 0 0.0107037)
(-0.11881 0 0.0141955)
(-0.126451 0 0.00611785)
(-0.122643 0 0.00976867)
(-0.130714 0 0.00134181)
(-0.126626 0 0.00512484)
(-0.135175 0 -0.00342388)
(-0.130766 0 0.000324272)
(-0.139882 0 -0.00762854)
(-0.135094 0 -0.00427819)
(-0.144899 0 -0.0103336)
(-0.139664 0 -0.00792289)
(-0.150284 0 -0.010346)
(-0.144544 0 -0.00949)
(-0.156053 0 -0.00649768)
(-0.149779 0 -0.00773068)
(-0.162147 0 0.00205498)
(-0.155334 0 -0.0015948)
(-0.16113 0 0.00949977)
(-0.0708957 0 0.0181483)
(-0.0704349 0 0.0130038)
(-0.0709693 0 0.0277858)
(-0.0705134 0 0.023716)
(-0.0710796 0 0.0354084)
(-0.0705914 0 0.0323345)
(-0.0712215 0 0.0413445)
(-0.0707179 0 0.0390008)
(-0.0713893 0 0.0460472)
(-0.0708734 0 0.0442357)
(-0.0715776 0 0.0498222)
(-0.0710515 0 0.0484228)
(-0.071782 0 0.0528451)
(-0.0712476 0 0.0517908)
(-0.071999 0 0.0552019)
(-0.0714578 0 0.0544636)
(-0.0722257 0 0.0569166)
(-0.0716789 0 0.056491)
(-0.0724599 0 0.0579733)
(-0.0719082 0 0.0578726)
(-0.0727 0 0.0583367)
(-0.0721439 0 0.0585786)
(-0.072945 0 0.057971)
(-0.0723845 0 0.0585697)
(-0.0731948 0 0.0568599)
(-0.0726294 0 0.0578161)
(-0.0734512 0 0.0550269)
(-0.0728792 0 0.0563177)
(-0.0737186 0 0.0525584)
(-0.0731367 0 0.0541268)
(-0.0740045 0 0.0496232)
(-0.0734077 0 0.0513699)
(-0.0743212 0 0.0464832)
(-0.0737021 0 0.0482648)
(-0.0746849 0 0.0434842)
(-0.074034 0 0.0451237)
(-0.0751151 0 0.0410178)
(-0.0744217 0 0.0423306)
(-0.0756322 0 0.039449)
(-0.0748856 0 0.0402848)
(-0.0762539 0 0.0390154)
(-0.0754455 0 0.0393103)
(-0.076991 0 0.039726)
(-0.0761163 0 0.0395458)
(-0.0778449 0 0.0412975)
(-0.0769038 0 0.0408522)
(-0.078807 0 0.0431776)
(-0.0778038 0 0.0427845)
(-0.0798639 0 0.0446772)
(-0.0788034 0 0.0446707)
(-0.0810048 0 0.0451933)
(-0.0798879 0 0.0458049)
(-0.082231 0 0.0444449)
(-0.0810505 0 0.0457016)
(-0.0835625 0 0.0426127)
(-0.0823007 0 0.0443098)
(-0.0850373 0 0.0402929)
(-0.0836699 0 0.0420687)
(-0.0867025 0 0.0382591)
(-0.0852 0 0.0397471)
(-0.0889314 0 0.0368947)
(-0.0870895 0 0.0379828)
(-0.0913655 0 0.0366127)
(-0.0893785 0 0.0373299)
(-0.0939707 0 0.0367442)
(-0.0918547 0 0.0375393)
(-0.0967065 0 0.036437)
(-0.09447 0 0.0376883)
(-0.0995477 0 0.0351433)
(-0.0971904 0 0.0369982)
(-0.10249 0 0.032767)
(-0.1 0 0.0351637)
(-0.105544 0 0.0295325)
(-0.102906 0 0.03231)
(-0.108726 0 0.0257656)
(-0.105919 0 0.0287666)
(-0.112046 0 0.0217304)
(-0.109054 0 0.0248557)
(-0.115508 0 0.0175594)
(-0.112314 0 0.0207792)
(-0.119108 0 0.0132594)
(-0.115698 0 0.0165952)
(-0.122838 0 0.00877483)
(-0.119198 0 0.0122556)
(-0.126699 0 0.00410715)
(-0.122806 0 0.00769869)
(-0.130707 0 -0.000529013)
(-0.126523 0 0.00299657)
(-0.134904 0 -0.0045697)
(-0.130376 0 -0.00148026)
(-0.139346 0 -0.00707376)
(-0.134413 0 -0.00496199)
(-0.144079 0 -0.00686522)
(-0.138693 0 -0.00633461)
(-0.149108 0 -0.00281403)
(-0.143251 0 -0.00437766)
(-0.154367 0 0.00586873)
(-0.148043 0 0.00191086)
(-0.152982 0 0.0130567)
(-0.0700487 0 0.0183155)
(-0.0695726 0 0.013113)
(-0.0701198 0 0.0280588)
(-0.0696488 0 0.0239372)
(-0.0702272 0 0.0357676)
(-0.0697235 0 0.0326531)
(-0.0703662 0 0.0417668)
(-0.069847 0 0.0393938)
(-0.0705311 0 0.0465113)
(-0.0699995 0 0.0446803)
(-0.0707167 0 0.050311)
(-0.0701747 0 0.0488997)
(-0.0709184 0 0.0533455)
(-0.070368 0 0.0522849)
(-0.0711324 0 0.0557042)
(-0.0705753 0 0.0549635)
(-0.071356 0 0.057414)
(-0.0707933 0 0.0569886)
(-0.0715867 0 0.058461)
(-0.0710192 0 0.0583622)
(-0.0718228 0 0.0588118)
(-0.0712511 0 0.0590563)
(-0.0720632 0 0.0584327)
(-0.0714874 0 0.0590335)
(-0.072308 0 0.0573097)
(-0.0717275 0 0.0582662)
(-0.0725588 0 0.05547)
(-0.0719719 0 0.0567575)
(-0.0728199 0 0.0530042)
(-0.0722235 0 0.0545632)
(-0.073099 0 0.0500856)
(-0.072488 0 0.0518145)
(-0.0734079 0 0.0469803)
(-0.0727751 0 0.048734)
(-0.0737628 0 0.0440369)
(-0.0730987 0 0.0456375)
(-0.0741827 0 0.0416464)
(-0.0734769 0 0.0429102)
(-0.0746875 0 0.0401693)
(-0.0739296 0 0.040949)
(-0.0752941 0 0.0398348)
(-0.0744758 0 0.0400712)
(-0.0760126 0 0.0406406)
(-0.0751296 0 0.0404051)
(-0.0768438 0 0.0422927)
(-0.0758965 0 0.0417998)
(-0.0777787 0 0.0442321)
(-0.0767713 0 0.0438007)
(-0.0788038 0 0.0457709)
(-0.0777411 0 0.0457329)
(-0.0799081 0 0.0463153)
(-0.0787912 0 0.0468957)
(-0.0810929 0 0.0455993)
(-0.0799148 0 0.0468173)
(-0.0823775 0 0.0438188)
(-0.0811209 0 0.045463)
(-0.0837985 0 0.0415779)
(-0.08244 0 0.0432848)
(-0.0854009 0 0.0396478)
(-0.0839122 0 0.0410545)
(-0.0875417 0 0.0384175)
(-0.0857274 0 0.03941)
(-0.0898738 0 0.038256)
(-0.0879217 0 0.0388846)
(-0.0923615 0 0.0384828)
(-0.090288 0 0.0391978)
(-0.0949638 0 0.0382487)
(-0.0927781 0 0.0394231)
(-0.0976543 0 0.0370178)
(-0.095357 0 0.0387919)
(-0.100427 0 0.0347059)
(-0.0980082 0 0.0370124)
(-0.103291 0 0.0315435)
(-0.100735 0 0.0342192)
(-0.106257 0 0.0278563)
(-0.103547 0 0.0307441)
(-0.109334 0 0.0239044)
(-0.106453 0 0.0269066)
(-0.11252 0 0.0198151)
(-0.109456 0 0.0229031)
(-0.115807 0 0.0155917)
(-0.112548 0 0.0187866)
(-0.119184 0 0.0111799)
(-0.11572 0 0.0145073)
(-0.122649 0 0.00658925)
(-0.118957 0 0.0100081)
(-0.126213 0 0.00204765)
(-0.12226 0 0.00537249)
(-0.129912 0 -0.00186864)
(-0.125649 0 0.000985745)
(-0.133795 0 -0.00421707)
(-0.129168 0 -0.00237327)
(-0.1379 0 -0.00383899)
(-0.132869 0 -0.00359763)
(-0.142225 0 0.000358442)
(-0.136777 0 -0.00149464)
(-0.146697 0 0.00911444)
(-0.140845 0 0.00489219)
(-0.144983 0 0.0160393)
(-0.0691682 0 0.018476)
(-0.0686776 0 0.0132166)
(-0.0692366 0 0.0283232)
(-0.0687514 0 0.02415)
(-0.0693409 0 0.0361182)
(-0.0688228 0 0.0329625)
(-0.0694767 0 0.0421809)
(-0.0689429 0 0.0397779)
(-0.0696386 0 0.0469678)
(-0.0690922 0 0.0451167)
(-0.0698213 0 0.0507927)
(-0.0692644 0 0.049369)
(-0.07002 0 0.0538388)
(-0.0694547 0 0.0527717)
(-0.070231 0 0.0561995)
(-0.069659 0 0.0554562)
(-0.0704512 0 0.057904)
(-0.0698737 0 0.0574789)
(-0.0706783 0 0.0589409)
(-0.0700962 0 0.0588441)
(-0.0709103 0 0.0592785)
(-0.0703242 0 0.0595258)
(-0.0711462 0 0.0588854)
(-0.0705562 0 0.0594886)
(-0.0713859 0 0.05775)
(-0.0707914 0 0.058707)
(-0.071631 0 0.055903)
(-0.0710305 0 0.0571873)
(-0.0718858 0 0.0534392)
(-0.0712761 0 0.0549891)
(-0.0721579 0 0.0505365)
(-0.0715341 0 0.0522481)
(-0.0724591 0 0.0474651)
(-0.0718138 0 0.0491914)
(-0.072805 0 0.0445759)
(-0.0721292 0 0.0461384)
(-0.0732145 0 0.0422596)
(-0.0724978 0 0.0434753)
(-0.0737067 0 0.0408718)
(-0.072939 0 0.0415967)
(-0.0742979 0 0.0406334)
(-0.0734713 0 0.0408128)
(-0.0749975 0 0.0415309)
(-0.074108 0 0.0412418)
(-0.0758055 0 0.0432598)
(-0.0748538 0 0.0427211)
(-0.076713 0 0.0452551)
(-0.0757032 0 0.0447869)
(-0.0777059 0 0.0468298)
(-0.076643 0 0.0467617)
(-0.0787734 0 0.0473995)
(-0.0776585 0 0.0479502)
(-0.0799165 0 0.0467131)
(-0.0787428 0 0.0478938)
(-0.081154 0 0.0449808)
(-0.0799048 0 0.0465739)
(-0.0825209 0 0.0428143)
(-0.0811736 0 0.0444546)
(-0.0840602 0 0.0409818)
(-0.082588 0 0.0423103)
(-0.0861127 0 0.0398767)
(-0.0843288 0 0.0407783)
(-0.0883423 0 0.039826)
(-0.0864283 0 0.040371)
(-0.0907124 0 0.0401376)
(-0.0886849 0 0.0407779)
(-0.0931812 0 0.0399658)
(-0.09105 0 0.041069)
(-0.0957216 0 0.038786)
(-0.0934881 0 0.0404856)
(-0.0983262 0 0.0365252)
(-0.0959815 0 0.0387487)
(-0.101 0 0.0334195)
(-0.0985311 0 0.036002)
(-0.103753 0 0.0297944)
(-0.101144 0 0.0325792)
(-0.106588 0 0.0259055)
(-0.103825 0 0.0287964)
(-0.109501 0 0.0218752)
(-0.106572 0 0.0248448)
(-0.112479 0 0.0177031)
(-0.109378 0 0.0207724)
(-0.11551 0 0.0133367)
(-0.112227 0 0.0165278)
(-0.118585 0 0.00879324)
(-0.115102 0 0.0120584)
(-0.121715 0 0.00431345)
(-0.117999 0 0.00745909)
(-0.124931 0 0.000485168)
(-0.120937 0 0.00312908)
(-0.128274 0 -0.00174848)
(-0.123955 0 -0.000144556)
(-0.131776 0 -0.00124632)
(-0.127097 0 -0.00126255)
(-0.135429 0 0.00304863)
(-0.130383 0 0.000940677)
(-0.139161 0 0.0118304)
(-0.133763 0 0.00737975)
(-0.137148 0 0.0184879)
(-0.0682558 0 0.0186293)
(-0.0677516 0 0.0133145)
(-0.0683214 0 0.0285787)
(-0.0678231 0 0.024354)
(-0.0684225 0 0.0364594)
(-0.0678908 0 0.0332623)
(-0.068555 0 0.0425861)
(-0.0680075 0 0.0401525)
(-0.0687136 0 0.0474162)
(-0.0681535 0 0.0455443)
(-0.0688931 0 0.0512667)
(-0.0683224 0 0.0498303)
(-0.0690888 0 0.0543249)
(-0.0685095 0 0.0532509)
(-0.0692966 0 0.0566873)
(-0.0687107 0 0.0559416)
(-0.0695134 0 0.0583864)
(-0.0689221 0 0.0579617)
(-0.0697368 0 0.0594127)
(-0.0691411 0 0.0593181)
(-0.0699647 0 0.0597367)
(-0.0693652 0 0.059987)
(-0.070196 0 0.0593289)
(-0.0695929 0 0.0599348)
(-0.0704307 0 0.0581806)
(-0.0698234 0 0.0591385)
(-0.0706702 0 0.0563258)
(-0.0700572 0 0.0576072)
(-0.0709188 0 0.0538634)
(-0.070297 0 0.0554045)
(-0.071184 0 0.050976)
(-0.0705484 0 0.0526706)
(-0.0714774 0 0.0479376)
(-0.0708209 0 0.049637)
(-0.0718144 0 0.0451013)
(-0.0711281 0 0.0466263)
(-0.0722132 0 0.0428572)
(-0.071487 0 0.0440259)
(-0.0726927 0 0.0415563)
(-0.0719167 0 0.0422275)
(-0.0732683 0 0.0414109)
(-0.072435 0 0.0415349)
(-0.0739487 0 0.0423966)
(-0.0730543 0 0.0420556)
(-0.0747335 0 0.0441987)
(-0.0737789 0 0.0436158)
(-0.0756132 0 0.0462463)
(-0.0746028 0 0.0457431)
(-0.0765738 0 0.0478537)
(-0.0755125 0 0.047757)
(-0.0776044 0 0.0484458)
(-0.0764934 0 0.0489683)
(-0.078706 0 0.047786)
(-0.0775386 0 0.0489311)
(-0.0798963 0 0.0460983)
(-0.0786566 0 0.0476425)
(-0.0812093 0 0.0440018)
(-0.0798754 0 0.0455783)
(-0.0826856 0 0.0422609)
(-0.0812321 0 0.0435148)
(-0.0846499 0 0.0412724)
(-0.0828989 0 0.0420879)
(-0.0867774 0 0.0413227)
(-0.0849042 0 0.0417893)
(-0.0890305 0 0.041709)
(-0.0870519 0 0.0422799)
(-0.0913669 0 0.0415886)
(-0.0892933 0 0.0426267)
(-0.0937586 0 0.0404482)
(-0.0915923 0 0.04208)
(-0.0961964 0 0.0382255)
(-0.09393 0 0.0403739)
(-0.0986834 0 0.0351618)
(-0.0963051 0 0.03766)
(-0.101225 0 0.0315816)
(-0.0987214 0 0.0342737)
(-0.103822 0 0.0277363)
(-0.101181 0 0.0305277)
(-0.106467 0 0.0237429)
(-0.103679 0 0.0266077)
(-0.109143 0 0.0195981)
(-0.106204 0 0.0225567)
(-0.111834 0 0.0152509)
(-0.108737 0 0.0183221)
(-0.114531 0 0.0107263)
(-0.111259 0 0.0138561)
(-0.117239 0 0.00627757)
(-0.113763 0 0.00926448)
(-0.119985 0 0.00250327)
(-0.116264 0 0.00495991)
(-0.122807 0 0.000346518)
(-0.118798 0 0.0017369)
(-0.125732 0 0.000931137)
(-0.121402 0 0.000686801)
(-0.128744 0 0.00528051)
(-0.124092 0 0.00294911)
(-0.131774 0 0.0140484)
(-0.126816 0 0.00940008)
(-0.129488 0 0.0204359)
(-0.0673133 0 0.0187754)
(-0.0667962 0 0.0134064)
(-0.067376 0 0.0288247)
(-0.0668653 0 0.0245491)
(-0.0674736 0 0.0367908)
(-0.0669293 0 0.0335519)
(-0.0676027 0 0.042982)
(-0.0670425 0 0.0405174)
(-0.0677579 0 0.047856)
(-0.067185 0 0.0459629)
(-0.0679342 0 0.0517328)
(-0.0673506 0 0.0502833)
(-0.0681266 0 0.0548033)
(-0.0675345 0 0.0537224)
(-0.0683312 0 0.0571676)
(-0.0677324 0 0.0564193)
(-0.0685446 0 0.058861)
(-0.0679406 0 0.0584368)
(-0.0687643 0 0.0598765)
(-0.068156 0 0.0597843)
(-0.0689882 0 0.0601864)
(-0.0683763 0 0.06044)
(-0.069215 0 0.0597635)
(-0.0685998 0 0.0603724)
(-0.0694447 0 0.0586017)
(-0.0688256 0 0.0595608)
(-0.0696787 0 0.0567386)
(-0.0690542 0 0.0580175)
(-0.0699212 0 0.0542771)
(-0.0692883 0 0.0558098)
(-0.0701796 0 0.0514041)
(-0.0695334 0 0.0530823)
(-0.0704653 0 0.0483976)
(-0.0697988 0 0.0500708)
(-0.0707934 0 0.0456129)
(-0.0700979 0 0.0471013)
(-0.0711817 0 0.0434391)
(-0.0704472 0 0.0445618)
(-0.0716483 0 0.0422226)
(-0.0708654 0 0.0428416)
(-0.0722082 0 0.0421671)
(-0.0713696 0 0.0422372)
(-0.0728694 0 0.0432375)
(-0.0719716 0 0.0428463)
(-0.0736308 0 0.0451093)
(-0.0726749 0 0.0444839)
(-0.0744827 0 0.0472057)
(-0.0734733 0 0.0466691)
(-0.0754111 0 0.0488427)
(-0.074353 0 0.048719)
(-0.076405 0 0.0494545)
(-0.0752995 0 0.0499501)
(-0.0774652 0 0.0488183)
(-0.0763059 0 0.0499294)
(-0.0786088 0 0.0471718)
(-0.0773803 0 0.0486691)
(-0.0798682 0 0.0451406)
(-0.0785496 0 0.0466562)
(-0.0812819 0 0.0434854)
(-0.0798493 0 0.0446681)
(-0.0831587 0 0.0426048)
(-0.0814429 0 0.0433391)
(-0.0851853 0 0.0427467)
(-0.0833551 0 0.0431403)
(-0.0873228 0 0.0431977)
(-0.0853954 0 0.043705)
(-0.0895287 0 0.0431182)
(-0.0875152 0 0.0440973)
(-0.091774 0 0.0420059)
(-0.0896776 0 0.0435769)
(-0.094048 0 0.0398087)
(-0.0918627 0 0.0418899)
(-0.0963513 0 0.0367724)
(-0.094067 0 0.0391955)
(-0.0986866 0 0.0332205)
(-0.0962914 0 0.0358306)
(-0.101051 0 0.0294)
(-0.098535 0 0.032104)
(-0.103433 0 0.0254225)
(-0.10079 0 0.0281958)
(-0.105815 0 0.0212819)
(-0.103042 0 0.0241445)
(-0.108177 0 0.0169289)
(-0.105269 0 0.0198964)
(-0.110505 0 0.0123964)
(-0.107448 0 0.0154085)
(-0.112805 0 0.00794966)
(-0.109572 0 0.0107975)
(-0.115098 0 0.00419728)
(-0.111651 0 0.00648889)
(-0.117419 0 0.002082)
(-0.113718 0 0.00328385)
(-0.119788 0 0.00271075)
(-0.115805 0 0.00226568)
(-0.122187 0 0.00707582)
(-0.117922 0 0.00454889)
(-0.12455 0 0.0157958)
(-0.12002 0 0.0109751)
(-0.122012 0 0.0219093)
(-0.0663421 0 0.0189139)
(-0.0658131 0 0.0134925)
(-0.0664019 0 0.0290612)
(-0.0658797 0 0.0247351)
(-0.0664961 0 0.0371121)
(-0.0659401 0 0.0338313)
(-0.0666216 0 0.0433682)
(-0.0660497 0 0.0408722)
(-0.0667734 0 0.0482869)
(-0.0661887 0 0.0463722)
(-0.0669463 0 0.0521907)
(-0.0663508 0 0.0507277)
(-0.0671356 0 0.0552739)
(-0.0665316 0 0.0541859)
(-0.0673369 0 0.0576403)
(-0.0667263 0 0.0568895)
(-0.0675469 0 0.059328)
(-0.0669312 0 0.0589044)
(-0.0677629 0 0.0603322)
(-0.0671431 0 0.0602428)
(-0.0679828 0 0.0606276)
(-0.0673597 0 0.0608849)
(-0.0682053 0 0.0601892)
(-0.0675791 0 0.0608015)
(-0.0684301 0 0.0590135)
(-0.0678003 0 0.0599742)
(-0.0686588 0 0.0571415)
(-0.068024 0 0.0584184)
(-0.0688954 0 0.0546803)
(-0.0682525 0 0.0562052)
(-0.0691471 0 0.051821)
(-0.0684915 0 0.0534834)
(-0.0694253 0 0.0488455)
(-0.06875 0 0.0504932)
(-0.0697446 0 0.0461109)
(-0.069041 0 0.0475636)
(-0.0701224 0 0.0440054)
(-0.069381 0 0.0450834)
(-0.0705763 0 0.0428706)
(-0.0697878 0 0.0434389)
(-0.0711205 0 0.0429019)
(-0.0702779 0 0.0429198)
(-0.0717624 0 0.0440536)
(-0.0708627 0 0.043614)
(-0.0725005 0 0.0459915)
(-0.0715448 0 0.0453254)
(-0.0733248 0 0.0481334)
(-0.0723178 0 0.047565)
(-0.0742212 0 0.0497971)
(-0.0731678 0 0.0496478)
(-0.0751788 0 0.0504257)
(-0.0740803 0 0.0508961)
(-0.0761981 0 0.0498104)
(-0.0750485 0 0.0508892)
(-0.0772955 0 0.0482017)
(-0.0760799 0 0.0496543)
(-0.0785021 0 0.0462314)
(-0.0772006 0 0.0476888)
(-0.0798541 0 0.0446558)
(-0.0784443 0 0.0457712)
(-0.0816448 0 0.0438748)
(-0.0799658 0 0.0445328)
(-0.0835719 0 0.0440989)
(-0.0817868 0 0.0444251)
(-0.0855961 0 0.0446049)
(-0.0837219 0 0.0450544)
(-0.0876741 0 0.0445563)
(-0.0857227 0 0.0454826)
(-0.0897763 0 0.0434613)
(-0.0877519 0 0.0449783)
(-0.0918904 0 0.0412773)
(-0.0897885 0 0.0432992)
(-0.0940147 0 0.0382545)
(-0.0918267 0 0.0406118)
(-0.0961491 0 0.0347149)
(-0.0938649 0 0.0372535)
(-0.0982875 0 0.030901)
(-0.0958992 0 0.0335295)
(-0.100415 0 0.0269192)
(-0.0979192 0 0.0296144)
(-0.102512 0 0.0227606)
(-0.0999069 0 0.0255421)
(-0.104554 0 0.018378)
(-0.101838 0 0.0212579)
(-0.106528 0 0.0138121)
(-0.103687 0 0.0167241)
(-0.108433 0 0.00933973)
(-0.105444 0 0.012068)
(-0.110291 0 0.00557904)
(-0.107117 0 0.00772721)
(-0.112129 0 0.00347188)
(-0.108736 0 0.00450914)
(-0.113963 0 0.00410897)
(-0.110326 0 0.00348879)
(-0.115775 0 0.00845398)
(-0.111892 0 0.00575678)
(-0.117498 0 0.0170947)
(-0.113387 0 0.012124)
(-0.114725 0 0.0229286)