/*--------------------------------*- C++ -*----------------------------------*\
  =========                 |
  \\      /  F ield         | OpenFOAM: The Open Source CFD Toolbox
   \\    /   O peration     | Website:  https://openfoam.org
    \\  /    A nd           | Version:  9
     \\/     M anipulation  |
\*---------------------------------------------------------------------------*/
FoamFile
{
    format      ascii;
    class       surfaceScalarField;
    location    "0.05";
    object      alphaPhi0.water;
}
// * * * * * * * * * * * * * * * * * * * * * * * * * * * * * * * * * * * * * //

dimensions      [0 3 -1 0 0 0 0];

internalField   nonuniform List<scalar> 
9850
(
-9.18115e-25
-8.09842e-24
2.14144e-22
8.5737e-22
3.87042e-21
1.77173e-20
5.57595e-20
2.81886e-19
7.56634e-19
4.01506e-18
1.65072e-17
6.3435e-17
5.37711e-16
9.4911e-16
8.94955e-15
1.44306e-14
1.41124e-13
2.25457e-13
8.77763e-12
3.59394e-12
1.03182e-10
2.19754e-10
2.32759e-09
1.53173e-10
3.6601e-07
-3.99738e-09
1.37469e-06
-8.36231e-07
1.28994e-06
-1.27888e-06
1.26685e-06
-1.36586e-06
1.29527e-06
-1.43854e-06
1.33533e-06
-1.46881e-06
1.36407e-06
-1.45964e-06
1.37849e-06
-1.44121e-06
1.38351e-06
-1.17265e-06
1.38573e-06
-1.1239e-06
1.38601e-06
-1.08309e-06
1.38418e-06
-1.04544e-06
1.38227e-06
-1.00641e-06
1.38487e-06
-9.60148e-07
1.39511e-06
-9.00458e-07
1.40786e-06
-8.21154e-07
1.3971e-06
-7.12057e-07
7.0037e-07
-4.9788e-07
9.86395e-09
-5.88458e-08
0
-9.75488e-10
0
4.98091e-10
0
2.03127e-10
0
6.27422e-11
0
1.92703e-11
0
5.11398e-12
0
1.36191e-12
0
3.66622e-13
1.17495e-15
9.99975e-14
1.11073e-15
2.84684e-14
9.28377e-16
8.3433e-15
7.00806e-16
2.62806e-15
5.99166e-16
1.01649e-15
4.82681e-16
5.3273e-16
3.53827e-16
3.3586e-16
2.3492e-16
2.15015e-16
1.41544e-16
1.28286e-16
7.81135e-17
7.40992e-17
3.10322e-17
-3.41445e-25
-2.92494e-24
1.7013e-22
7.59388e-22
3.29188e-21
1.69214e-20
4.68878e-20
2.6145e-19
6.33398e-19
3.28128e-18
1.36033e-17
5.07038e-17
4.66177e-16
7.67513e-16
8.21026e-15
1.14675e-14
1.83739e-13
1.62769e-13
1.531e-11
4.34641e-12
1.3914e-10
1.62209e-10
9.84451e-10
1.21758e-10
3.32103e-07
-1.71684e-09
1.3446e-06
-6.1914e-07
1.25551e-06
-1.18026e-06
1.25973e-06
-1.3698e-06
1.30182e-06
-1.48061e-06
1.34104e-06
-1.50803e-06
1.3645e-06
-1.4831e-06
1.374e-06
-1.45071e-06
1.37616e-06
-1.17481e-06
1.37704e-06
-1.12478e-06
1.37652e-06
-1.08257e-06
1.37103e-06
-1.03995e-06
1.35863e-06
-9.94008e-07
1.34467e-06
-9.46195e-07
1.33966e-06
-8.95484e-07
1.34755e-06
-8.29993e-07
1.33986e-06
-7.20199e-07
5.22068e-07
-4.38471e-07
6.58622e-09
-2.04067e-08
0
-7.82538e-10
0
1.94621e-10
0
1.21413e-10
0
4.39017e-11
0
1.58623e-11
0
5.14575e-12
0
1.46059e-12
0
4.11716e-13
0
1.14909e-13
0
3.28787e-14
6.37375e-16
9.37587e-15
6.67425e-16
2.82243e-15
6.20643e-16
1.09374e-15
5.26958e-16
5.91346e-16
4.05865e-16
3.89941e-16
2.81962e-16
2.59695e-16
1.78718e-16
1.62123e-16
1.05505e-16
9.91298e-17
4.45319e-17
7.88263e-25
6.23935e-24
1.6856e-22
7.28532e-22
3.63155e-21
1.77369e-20
5.76448e-20
3.06477e-19
5.64116e-19
2.79657e-18
1.09964e-17
4.0356e-17
3.79625e-16
5.96027e-16
7.87232e-15
8.32699e-15
3.43491e-13
1.30912e-13
1.04285e-11
6.53807e-12
7.54581e-11
1.16457e-10
1.26039e-09
8.51865e-11
1.39925e-07
-2.01344e-10
1.25469e-06
-2.76201e-07
1.26864e-06
-1.09561e-06
1.30034e-06
-1.40088e-06
1.34135e-06
-1.52161e-06
1.36378e-06
-1.53046e-06
1.37184e-06
-1.49116e-06
1.37098e-06
-1.44985e-06
1.36716e-06
-1.17099e-06
1.36528e-06
-1.12289e-06
1.36599e-06
-1.08328e-06
1.36205e-06
-1.03601e-06
1.34223e-06
-9.74192e-07
1.30624e-06
-9.10212e-07
1.27339e-06
-8.62736e-07
1.26892e-06
-8.28025e-07
1.21702e-06
-7.21472e-07
2.11645e-07
-3.25464e-07
3.20444e-09
-1.02053e-08
0
-5.70471e-10
0
6.38052e-11
0
8.56972e-11
0
3.50648e-11
0
1.17039e-11
0
4.30032e-12
0
1.42027e-12
0
4.24414e-13
0
1.22154e-13
0
3.54383e-14
3.62311e-16
1.04652e-14
6.04417e-16
2.90855e-15
6.31588e-16
1.14062e-15
5.63656e-16
6.47174e-16
4.48634e-16
4.43994e-16
3.19869e-16
3.02917e-16
2.12397e-16
1.96401e-16
1.33958e-16
1.26735e-16
6.04502e-17
1.69924e-24
8.16096e-24
1.41383e-22
5.37658e-22
3.27958e-21
1.39224e-20
5.2739e-20
2.39518e-19
4.75279e-19
2.18947e-18
8.29712e-18
2.99722e-17
2.44744e-16
4.41958e-16
5.05947e-15
6.00316e-15
2.90316e-13
6.55292e-14
1.42381e-11
5.17326e-12
1.08295e-10
1.9031e-10
5.49233e-10
7.45194e-11
1.06451e-08
-1.02695e-10
1.10053e-06
-3.13507e-08
1.39073e-06
-9.83938e-07
1.41053e-06
-1.41901e-06
1.41486e-06
-1.52588e-06
1.40082e-06
-1.51642e-06
1.38633e-06
-1.47666e-06
1.37167e-06
-1.43519e-06
1.35894e-06
-1.15826e-06
1.35186e-06
-1.11581e-06
1.35627e-06
-1.0877e-06
1.36588e-06
-1.04562e-06
1.35795e-06
-9.66266e-07
1.31884e-06
-8.71117e-07
1.27429e-06
-8.18697e-07
1.25752e-06
-8.17521e-07
9.0616e-07
-7.50124e-07
2.5307e-08
-9.49051e-08
1.12979e-09
-3.61396e-09
0
-3.68697e-10
0
2.29966e-11
1.53043e-11
6.73389e-11
0
3.59999e-11
0
9.99448e-12
0
3.31952e-12
0
1.19598e-12
0
3.83444e-13
0
1.17865e-13
0
3.53273e-14
1.72854e-16
1.06114e-14
5.66784e-16
2.8996e-15
6.43144e-16
1.15693e-15
5.9536e-16
6.91613e-16
4.83058e-16
4.93809e-16
3.51207e-16
3.45043e-16
2.44138e-16
2.32766e-16
1.63208e-16
1.57616e-16
7.83456e-17
2.04889e-24
9.2393e-24
1.0657e-22
4.4999e-22
2.67949e-21
1.20922e-20
3.71357e-20
1.79056e-19
3.92287e-19
1.79865e-18
6.25509e-18
2.38385e-17
1.68414e-16
3.7252e-16
3.70336e-15
5.33636e-15
3.14234e-13
9.46666e-14
2.5951e-11
1.22275e-11
1.2711e-10
9.22667e-11
2.91639e-10
5.54139e-11
4.6458e-09
-5.35242e-11
8.05171e-07
-1.30625e-09
1.59434e-06
-8.20302e-07
1.55537e-06
-1.37346e-06
1.4932e-06
-1.46349e-06
1.43568e-06
-1.45888e-06
1.40264e-06
-1.44362e-06
1.37818e-06
-1.41074e-06
1.35661e-06
-1.13669e-06
1.34205e-06
-1.10125e-06
1.34921e-06
-1.09485e-06
1.37989e-06
-1.07631e-06
1.40423e-06
-9.90609e-07
1.39452e-06
-8.61514e-07
1.3739e-06
-7.99494e-07
1.28284e-06
-7.64704e-07
2.7069e-07
-3.077e-07
6.42968e-09
-1.33065e-08
0
-1.19802e-09
0
-3.89501e-10
0
1.01981e-11
2.23148e-11
3.27946e-11
0
3.52891e-11
0
9.91129e-12
0
2.79441e-12
0
9.1022e-13
0
3.17348e-13
0
1.02655e-13
0
3.16847e-14
0
9.73532e-15
5.11054e-16
2.71863e-15
6.37637e-16
1.11219e-15
6.12142e-16
7.11988e-16
5.06428e-16
5.30194e-16
3.77865e-16
3.83411e-16
2.74511e-16
2.70612e-16
1.91589e-16
1.90599e-16
9.65928e-17
3.01249e-24
1.40464e-23
1.1757e-22
5.0465e-22
5.8238e-21
3.5475e-20
4.18341e-20
2.20276e-19
3.6746e-19
1.75461e-18
5.91538e-18
2.31293e-17
1.73682e-16
3.67624e-16
6.44578e-15
5.50953e-15
4.26156e-13
5.2761e-14
2.18391e-11
4.10356e-11
8.37038e-11
5.28239e-11
1.6241e-10
5.49166e-11
2.44023e-09
-5.36205e-11
3.64298e-07
-1.84254e-10
1.61434e-06
-4.93053e-07
1.62145e-06
-1.31156e-06
1.51822e-06
-1.3587e-06
1.44613e-06
-1.38671e-06
1.4148e-06
-1.41227e-06
1.39139e-06
-1.38733e-06
1.36595e-06
-1.11125e-06
1.34454e-06
-1.07984e-06
1.3474e-06
-1.09772e-06
1.38644e-06
-1.11536e-06
1.43366e-06
-1.03785e-06
1.44697e-06
-8.7557e-07
1.37061e-06
-7.31832e-07
5.99428e-07
-3.61219e-07
1.82687e-08
-4.0506e-08
0
-1.21873e-09
3.93163e-11
-1.59971e-10
1.34426e-10
-1.66171e-10
0
-6.62499e-12
3.62946e-12
1.16868e-11
1.149e-11
2.35407e-11
0
1.44405e-11
0
2.72811e-12
0
7.93979e-13
0
2.44348e-13
0
8.17e-14
0
2.63292e-14
0
8.27475e-15
4.74909e-16
2.37826e-15
6.22564e-16
1.02871e-15
6.0965e-16
7.10107e-16
5.14508e-16
5.46978e-16
3.96465e-16
4.12921e-16
2.9908e-16
3.05332e-16
2.1419e-16
2.21622e-16
1.11952e-16
4.52627e-24
2.06358e-23
3.20554e-22
1.83303e-21
1.29228e-20
7.37487e-20
7.56958e-20
4.74758e-19
4.0901e-19
2.07138e-18
6.26043e-18
2.51822e-17
2.72751e-16
3.9154e-16
1.65892e-14
3.79667e-15
3.60868e-12
5.11831e-13
2.03037e-11
3.69707e-11
5.96841e-11
3.46991e-11
2.42159e-10
6.24427e-11
6.60643e-10
-3.5661e-11
1.43211e-08
-1.7562e-10
7.9174e-07
-4.51097e-08
1.51606e-06
-9.83922e-07
1.46681e-06
-1.29353e-06
1.43001e-06
-1.34882e-06
1.42116e-06
-1.40336e-06
1.40873e-06
-1.3749e-06
1.3885e-06
-1.09102e-06
1.36703e-06
-1.0584e-06
1.35902e-06
-1.08973e-06
1.37497e-06
-1.13101e-06
1.3878e-06
-1.05067e-06
1.27945e-06
-7.73979e-07
5.91728e-07
-2.95111e-07
4.30006e-08
-3.71842e-08
1.33391e-09
-2.11814e-09
1.02782e-11
-9.20349e-11
6.75179e-11
-1.11319e-11
9.5407e-11
-4.70759e-11
5.34135e-11
-1.48649e-11
0
1.75197e-11
9.8304e-14
1.0432e-11
1.18484e-15
1.35842e-11
0
3.30902e-12
0
7.73073e-13
0
2.25352e-13
0
6.63199e-14
0
2.11953e-14
1.78135e-17
6.6937e-15
4.49926e-16
1.90089e-15
5.99775e-16
9.19857e-16
5.86497e-16
6.86978e-16
5.00941e-16
5.48643e-16
4.0256e-16
4.31949e-16
3.1488e-16
3.34611e-16
2.33695e-16
2.44538e-16
1.22966e-16
6.90201e-24
3.06636e-23
8.68641e-22
4.59279e-21
2.25013e-20
1.15245e-19
1.38117e-19
8.46721e-19
4.71446e-19
2.60676e-18
6.53057e-18
2.55513e-17
2.44916e-16
4.04414e-16
1.36603e-14
3.49496e-15
2.25984e-12
2.21032e-13
1.78761e-11
1.80274e-11
7.51604e-11
9.75228e-11
2.01171e-10
3.78549e-11
3.75532e-10
-2.62391e-11
3.19331e-09
-2.50451e-10
8.31783e-08
-1.78224e-09
9.75562e-07
-1.14923e-07
1.40412e-06
-9.44271e-07
1.41081e-06
-1.33947e-06
1.42111e-06
-1.41135e-06
1.42118e-06
-1.37424e-06
1.41774e-06
-1.08714e-06
1.41633e-06
-1.05638e-06
1.40024e-06
-1.0713e-06
1.35323e-06
-1.07754e-06
1.08256e-06
-7.16621e-07
3.21388e-07
-1.89959e-07
3.94788e-08
-2.08952e-08
2.23683e-09
-1.52083e-09
1.04632e-10
-8.80249e-11
1.57416e-11
-4.82448e-12
2.02362e-11
-1.177e-12
1.07107e-10
-3.56939e-11
1.01928e-10
-1.87137e-11
1.41076e-11
2.39607e-11
2.25515e-13
6.20787e-12
6.50216e-12
7.75854e-12
0
4.6931e-12
0
7.64143e-13
0
2.22684e-13
0
6.26488e-14
0
1.88723e-14
4.82219e-17
5.73256e-15
4.45066e-16
1.56621e-15
5.56258e-16
8.5926e-16
5.44579e-16
6.48131e-16
4.76181e-16
5.40083e-16
3.99851e-16
4.44811e-16
3.18979e-16
3.54856e-16
2.42145e-16
2.52056e-16
1.26066e-16
1.0213e-23
4.62041e-23
1.70286e-21
8.16778e-21
3.27418e-20
1.5683e-19
2.24655e-19
1.21802e-18
8.815e-19
5.00229e-18
6.52056e-18
2.57997e-17
2.2267e-16
4.20101e-16
1.16284e-14
2.98088e-15
1.26196e-12
3.68715e-13
2.27592e-11
1.89101e-11
7.24992e-11
1.13714e-10
8.659e-11
1.10991e-11
4.05687e-10
-1.55089e-11
9.03541e-10
-2.54507e-10
2.3159e-09
-1.73926e-10
6.75235e-08
-3.36682e-09
8.74929e-07
-5.34269e-08
1.34196e-06
-5.90378e-07
1.38793e-06
-1.07968e-06
1.39982e-06
-1.27174e-06
1.42563e-06
-1.01234e-06
1.42822e-06
-8.56992e-07
1.1712e-06
-6.07812e-07
6.10293e-07
-2.96753e-07
1.05146e-07
-4.82985e-08
2.19736e-08
-4.33304e-09
1.55166e-09
-3.5209e-10
8.79336e-11
-2.49708e-11
3.50388e-12
-1.71286e-12
2.7312e-12
-4.25605e-13
2.05059e-11
-3.19903e-13
1.01264e-10
-3.64424e-11
1.27785e-10
-1.50505e-11
3.72065e-11
2.25591e-11
0
4.59867e-12
1.43884e-12
7.56207e-13
1.63312e-14
3.93838e-12
0
7.59496e-13
0
2.10865e-13
0
5.97554e-14
0
1.7315e-14
3.76563e-17
5.07646e-15
4.66951e-16
1.33601e-15
4.90402e-16
7.7538e-16
4.92963e-16
6.05962e-16
4.4632e-16
5.29906e-16
3.83485e-16
4.47823e-16
3.02398e-16
3.57695e-16
2.06584e-16
2.55365e-16
1.12529e-16
2.16144e-23
1.04535e-22
2.78229e-21
1.26798e-20
4.47908e-20
2.07721e-19
3.023e-19
1.46507e-18
1.1527e-18
5.54374e-18
6.29107e-18
2.53021e-17
1.76798e-16
3.33718e-16
1.03287e-14
4.34724e-15
5.85536e-13
1.45948e-13
6.93495e-12
5.59197e-11
7.59573e-11
1.00643e-10
6.19803e-11
2.38777e-11
1.0177e-10
-9.83206e-12
1.24937e-10
-4.78349e-11
8.226e-11
-2.86116e-11
7.35815e-10
-1.74365e-10
1.00047e-08
-2.23223e-09
3.17858e-07
-5.39295e-09
6.14773e-07
-8.07089e-09
6.51431e-07
-5.03629e-08
6.03402e-07
-2.99069e-08
3.40864e-07
-3.79511e-09
1.19632e-07
-1.2892e-09
4.72349e-08
-8.10126e-10
3.35676e-09
-1.49669e-09
2.31946e-10
-2.35809e-10
2.12699e-11
-2.61353e-11
1.18852e-12
-2.0504e-12
1.50316e-13
-2.75492e-13
6.01214e-13
-1.09681e-13
6.07977e-12
-1.12657e-13
8.99977e-11
-1.35714e-11
1.10481e-10
-1.21785e-11
1.83036e-11
1.711e-11
2.31137e-13
2.69277e-12
0
1.91037e-13
1.49513e-12
1.0656e-12
0
1.05635e-12
0
1.72173e-13
0
5.41138e-14
0
1.51347e-14
3.36348e-17
4.29272e-15
4.36557e-16
1.21254e-15
4.31211e-16
7.0933e-16
4.40024e-16
5.78725e-16
4.12982e-16
5.22717e-16
3.52134e-16
4.45849e-16
2.72543e-16
3.53132e-16
1.76771e-16
2.46439e-16
9.68142e-17
4.89433e-23
2.33623e-22
4.39918e-21
1.96866e-20
5.94024e-20
2.75273e-19
3.26207e-19
1.55177e-18
1.07132e-18
4.75374e-18
8.72937e-18
3.49059e-17
3.27575e-16
4.89801e-16
2.2326e-14
1.17517e-14
1.25813e-12
4.30745e-13
4.61527e-11
8.23488e-11
7.04679e-11
3.7299e-11
4.69887e-11
2.89153e-11
5.51628e-11
-6.29124e-12
2.52685e-12
-2.07391e-11
2.55912e-11
-2.84115e-12
1.30281e-10
-2.85938e-11
3.48905e-10
-3.43646e-10
3.6027e-10
-5.33596e-10
4.24565e-10
-6.44718e-10
2.11815e-09
-7.93256e-10
1.62166e-09
-4.04469e-10
2.77447e-10
-2.91585e-10
1.40027e-10
-1.76507e-10
7.13039e-11
-9.83541e-11
8.90412e-11
-5.35074e-11
6.99043e-11
-3.84655e-11
1.68051e-12
-4.97192e-12
2.9134e-13
-5.33516e-13
2.30936e-13
-1.49266e-13
1.82623e-13
-1.13104e-13
1.06871e-12
-7.15723e-14
6.94384e-11
-1.19215e-12
6.43639e-11
-2.86441e-12
0
2.62073e-12
1.54396e-13
9.13655e-13
3.62489e-13
1.81087e-13
8.76321e-13
0
0
8.10873e-13
0
1.28129e-13
0
4.40055e-14
0
1.19905e-14
2.00097e-16
3.20084e-15
3.92432e-16
1.01646e-15
3.9268e-16
6.64263e-16
3.97243e-16
5.72601e-16
3.73645e-16
5.17391e-16
3.13463e-16
4.364e-16
2.35422e-16
3.37365e-16
1.43805e-16
2.23589e-16
7.76994e-17
1.08374e-22
5.04956e-22
7.01062e-21
3.08199e-20
8.03678e-20
3.75816e-19
3.35777e-19
1.63193e-18
9.48145e-19
4.38562e-18
1.45678e-17
5.67645e-17
1.16745e-15
7.43822e-16
6.84646e-14
1.67583e-14
9.36679e-13
1.24513e-11
2.6101e-11
8.77974e-11
3.1121e-11
3.85235e-11
7.90226e-11
8.21053e-11
6.0224e-11
-2.32702e-11
4.98625e-12
-8.14765e-12
2.43392e-12
-7.1316e-13
2.09605e-11
-5.56787e-12
1.0891e-10
-4.71207e-11
1.34009e-10
-1.04561e-10
1.18454e-10
-1.35284e-10
2.99884e-11
-6.09724e-11
3.32898e-11
-4.35967e-11
8.60919e-11
-5.63166e-11
4.1526e-11
-4.04123e-11
2.10188e-11
-2.19486e-11
9.84829e-12
-9.22237e-12
2.98315e-12
-3.22849e-12
7.30381e-13
-1.34907e-12
0
-4.21003e-13
1.24616e-13
-1.93725e-13
2.20912e-13
-9.01028e-14
1.9346e-13
-6.75945e-14
3.28914e-12
-2.88884e-13
1.23649e-11
-2.05545e-14
6.99526e-12
3.28932e-12
1.662e-13
7.11824e-13
9.3386e-14
1.45404e-13
2.56358e-13
1.36199e-14
2.68588e-13
3.22911e-13
0
1.4859e-13
0
2.59693e-14
0
8.60785e-15
3.09885e-16
2.12391e-15
3.71621e-16
8.41796e-16
3.59911e-16
6.31449e-16
3.61332e-16
5.72927e-16
3.29199e-16
5.10101e-16
2.67996e-16
4.16451e-16
1.93807e-16
3.10696e-16
1.09125e-16
1.93154e-16
5.77942e-17
2.35379e-22
1.0548e-21
1.07841e-20
4.47377e-20
1.05836e-19
4.91323e-19
3.70215e-19
1.7639e-18
1.43309e-18
6.99122e-18
3.14874e-17
9.02416e-17
2.20308e-15
1.53608e-15
1.32136e-13
1.76038e-14
8.98931e-12
1.70223e-11
2.24481e-11
1.95925e-11
1.09419e-11
2.76273e-11
1.17692e-10
1.31764e-10
9.20157e-11
-1.15718e-11
1.61471e-12
-1.47474e-12
3.66298e-13
-4.34541e-13
1.88477e-12
-9.12828e-13
3.80863e-12
-4.50637e-12
5.74602e-12
-7.24151e-12
9.31738e-12
-1.0773e-11
1.16595e-11
-1.50963e-11
6.97859e-12
-8.74205e-12
3.60376e-12
-4.5492e-12
2.45787e-12
-2.57065e-12
1.60395e-12
-1.39228e-12
1.1113e-12
-7.81796e-13
5.049e-13
-4.02925e-13
3.20556e-13
-2.39999e-13
2.51557e-13
-2.45258e-13
7.77783e-14
-1.06464e-13
2.54106e-13
-7.46603e-14
4.24822e-13
-6.80184e-14
1.37677e-11
-2.53377e-12
1.6985e-11
1.62198e-12
3.78727e-13
6.27558e-12
0
4.75249e-13
2.74722e-14
1.01387e-13
7.25814e-14
2.79922e-14
1.14648e-13
0
0
1.1524e-13
0
1.56382e-14
3.35462e-16
5.12665e-15
2.75217e-16
1.40545e-15
3.35781e-16
7.12964e-16
3.26612e-16
6.11113e-16
3.25308e-16
5.68791e-16
2.84179e-16
4.94982e-16
2.2001e-16
3.862e-16
1.53125e-16
2.77451e-16
7.78027e-17
1.59519e-16
4.04322e-17
4.56686e-22
1.90289e-21
1.41612e-20
5.35115e-20
1.35052e-19
5.85558e-19
4.72144e-19
2.34665e-18
2.08107e-18
9.24471e-18
9.39896e-17
1.11266e-16
8.30689e-15
2.07836e-15
1.10658e-12
3.66449e-13
5.65684e-12
7.84304e-12
1.84812e-11
1.11548e-11
8.09695e-11
2.59454e-10
1.04652e-10
1.19495e-10
7.40418e-12
-4.68519e-12
7.18683e-13
-9.06879e-13
2.85665e-13
-3.39372e-13
3.21849e-13
-3.71155e-13
6.51614e-13
-5.9453e-13
6.69078e-13
-1.2028e-12
7.25537e-13
-2.00268e-12
3.21577e-13
-8.29043e-13
3.22097e-13
-4.12221e-13
2.96784e-13
-3.02678e-13
2.62763e-13
-2.14621e-13
2.30533e-13
-1.48299e-13
1.31968e-13
-8.06986e-14
1.19821e-13
-5.04322e-14
1.59439e-13
-7.73159e-14
1.48244e-13
-1.64473e-13
1.23677e-13
-1.07258e-13
2.14715e-13
-7.64602e-14
9.53369e-13
-5.63262e-14
1.5431e-11
-2.21737e-12
2.54333e-11
3.84849e-12
3.1701e-12
1.20203e-11
3.66534e-14
7.53229e-13
1.956e-14
8.08326e-14
1.49294e-14
1.93317e-14
2.76111e-14
1.0135e-14
2.65334e-14
3.10838e-14
0
1.35729e-14
1.366e-17
2.26353e-15
2.48429e-16
9.40638e-16
2.98645e-16
6.53578e-16
2.93513e-16
5.96093e-16
2.90233e-16
5.62757e-16
2.36248e-16
4.66172e-16
1.75524e-16
3.50127e-16
1.17314e-16
2.42025e-16
5.20062e-17
1.25757e-16
2.6641e-17
7.27595e-22
2.69274e-21
1.57881e-20
5.51359e-20
1.55838e-19
6.07223e-19
6.5408e-19
3.2182e-18
2.35274e-18
1.03302e-17
1.87139e-16
1.03843e-16
1.38787e-14
1.78514e-15
2.81259e-13
4.63179e-13
2.30994e-12
9.71323e-13
3.84507e-11
7.40709e-12
1.15122e-10
1.95442e-10
1.35888e-10
1.26542e-10
3.08709e-11
3.75678e-12
4.73172e-13
-1.27539e-12
3.58935e-13
-2.79327e-13
2.47145e-13
-3.35233e-13
2.51715e-13
-6.25111e-13
2.15674e-13
-6.67362e-13
1.91716e-13
0
1.04803e-14
-1.7466e-13
1.75521e-14
-4.49815e-14
1.76874e-14
-2.02678e-14
1.4586e-14
-2.02401e-14
1.04565e-14
-1.2659e-14
1.16999e-14
-5.81857e-15
5.22876e-14
-4.93006e-15
2.32087e-13
-4.84132e-14
1.89902e-13
-9.85971e-14
8.52004e-14
-7.04009e-14
2.62739e-13
-5.75442e-14
1.18168e-12
-3.39781e-14
1.54036e-11
-1.06011e-12
2.59633e-11
6.25941e-12
4.71826e-12
1.49586e-11
3.28332e-14
8.87287e-13
3.06426e-15
8.2713e-14
2.71369e-15
2.1766e-14
5.09718e-15
6.78522e-15
7.02715e-15
1.42554e-15
8.59453e-16
8.1044e-15
4.15965e-17
1.66207e-15
2.3698e-16
7.71706e-16
2.63026e-16
6.49636e-16
2.60851e-16
5.96101e-16
2.45974e-16
5.37464e-16
1.90606e-16
4.26573e-16
1.38113e-16
3.13502e-16
8.67225e-17
2.05313e-16
3.2149e-17
9.34844e-17
1.64055e-17
8.90823e-22
3.00069e-21
1.59353e-20
5.4518e-20
1.62436e-19
6.04324e-19
8.45621e-19
3.80067e-18
3.0626e-18
1.31097e-17
2.78299e-16
1.01953e-16
2.52086e-14
5.35596e-15
1.83524e-13
2.51469e-13
1.62824e-12
4.70582e-13
3.25475e-11
2.53515e-11
9.01204e-11
4.75881e-11
9.6532e-11
1.33227e-10
9.98575e-11
1.91814e-11
6.23604e-13
-7.72496e-13
2.15885e-13
-2.27829e-13
2.6897e-13
-4.61185e-13
4.66162e-13
-1.0582e-12
7.15897e-13
-1.81667e-12
1.66033e-12
-4.16891e-11
8.07301e-15
-2.21236e-12
4.47877e-15
-5.38451e-14
4.09469e-15
-1.02411e-14
4.07543e-15
-7.57409e-15
3.53315e-15
-4.71779e-15
6.10426e-15
-2.41553e-15
5.34399e-14
-5.25386e-15
1.84119e-13
-9.91647e-14
2.12738e-13
-9.84246e-14
1.51152e-13
-7.61818e-14
2.12616e-13
-3.09923e-14
9.73001e-13
-1.54082e-14
1.27353e-11
2.00506e-13
2.3377e-11
8.53758e-12
5.54684e-12
2.01892e-11
3.46764e-14
1.05195e-12
0
9.13171e-14
4.06594e-15
2.74615e-14
6.09435e-16
5.39084e-15
1.23193e-15
7.45278e-16
1.12182e-15
1.17249e-15
1.8606e-16
1.33748e-15
2.28213e-16
7.66896e-16
2.39604e-16
6.59006e-16
2.28651e-16
5.94529e-16
1.9882e-16
4.99262e-16
1.51429e-16
3.85338e-16
1.06708e-16
2.76736e-16
6.03149e-17
1.66437e-16
1.80053e-17
6.44012e-17
9.34137e-18
9.54052e-22
3.04789e-21
1.56958e-20
5.18839e-20
1.60164e-19
5.63766e-19
9.78141e-19
3.93292e-18
4.95912e-18
1.86557e-17
3.16847e-16
2.2708e-16
6.30781e-15
7.15153e-15
6.35758e-14
3.77051e-14
2.80618e-12
4.74646e-13
1.71354e-11
2.92781e-11
6.10787e-11
7.70028e-11
1.09705e-10
1.35704e-10
4.69734e-11
1.33281e-11
1.72614e-12
-2.00062e-13
3.23183e-13
-1.99523e-13
7.31685e-13
-1.15846e-12
7.34675e-12
-1.02477e-10
1.39952e-11
-1.76729e-10
1.95457e-11
-3.27859e-11
4.08786e-14
-8.41228e-13
6.4552e-15
-4.75257e-14
1.32125e-15
-3.07124e-15
2.64832e-15
0
3.63265e-15
-3.11091e-15
3.84222e-15
-2.25173e-15
8.59714e-14
-1.83837e-15
2.09198e-13
-1.07108e-13
2.25109e-13
-8.56697e-14
1.27075e-13
-5.82354e-14
9.0025e-14
-1.66069e-14
3.50723e-13
-5.65525e-15
1.08988e-11
9.62217e-14
4.71763e-11
6.0619e-12
1.79352e-11
3.54863e-11
9.83623e-14
2.60389e-12
0
1.49434e-13
9.44422e-16
3.12201e-14
2.12348e-17
4.64007e-15
3.09925e-16
1.91121e-15
2.99429e-16
7.77068e-16
3.02446e-16
7.87187e-16
2.27065e-16
7.60789e-16
2.14564e-16
6.61607e-16
1.95442e-16
5.76612e-16
1.58419e-16
4.58746e-16
1.1887e-16
3.45987e-16
7.93155e-17
2.37076e-16
3.8514e-17
1.2628e-16
9.07523e-18
4.06349e-17
4.90885e-18
9.59326e-22
3.00218e-21
1.48213e-20
4.70618e-20
1.51096e-19
5.10866e-19
1.04251e-18
3.95026e-18
6.77029e-18
2.30618e-17
1.63287e-16
2.72981e-16
3.16731e-15
4.99867e-15
7.08123e-14
1.41525e-14
2.27591e-12
1.07794e-12
2.6196e-11
2.21075e-11
6.06454e-11
3.57124e-10
1.1081e-10
1.47532e-10
0
3.899e-14
9.31942e-13
-6.06775e-14
8.77742e-13
-1.83427e-12
9.5747e-11
-5.43827e-11
2.3636e-10
-3.65432e-10
1.61271e-10
-5.85173e-10
2.14147e-13
-5.23376e-11
7.37578e-14
-1.2363e-12
8.38579e-15
-4.36966e-14
6.19781e-15
-1.58849e-14
5.80599e-15
-2.84993e-14
4.7445e-15
-7.91133e-15
3.30894e-15
-2.44386e-15
6.22429e-15
-1.71367e-15
1.82141e-13
-2.86082e-14
1.71395e-13
-4.61312e-14
1.68769e-14
-2.53063e-14
7.0201e-14
-8.9682e-15
1.85989e-13
1.04456e-15
1.47296e-12
3.42351e-14
3.50158e-11
5.38548e-12
1.8808e-11
3.92816e-11
1.26866e-13
3.73488e-12
0
1.74691e-13
4.97889e-16
2.85905e-14
2.19497e-17
4.58433e-15
3.34128e-16
2.26547e-15
1.7583e-16
6.78053e-16
2.06418e-16
5.78863e-16
2.24197e-16
7.01314e-16
1.91362e-16
6.49453e-16
1.62466e-16
5.44226e-16
1.25375e-16
4.19128e-16
9.07924e-17
3.05515e-16
5.50402e-17
1.92847e-16
2.21102e-17
8.81862e-17
4.09755e-18
2.33425e-17
2.38468e-18
9.27749e-22
2.7863e-21
1.352e-20
4.13563e-20
1.42386e-19
4.68508e-19
1.06645e-18
3.86244e-18
6.90723e-18
2.40076e-17
8.74588e-17
2.22074e-16
1.28044e-15
1.71881e-15
2.82171e-14
8.43981e-15
3.7235e-12
9.35591e-13
6.56924e-11
5.33773e-11
1.25641e-10
3.43814e-10
8.2002e-11
1.47997e-10
2.59787e-12
2.21666e-12
1.11541e-12
1.38917e-14
8.01542e-11
-2.37297e-12
2.54212e-10
-1.95737e-10
2.77469e-10
-4.41421e-10
3.42983e-10
-6.47615e-10
1.50428e-12
-3.10801e-11
1.18767e-13
-1.30946e-12
3.33964e-14
-1.05706e-13
5.54163e-14
-3.36119e-13
2.54519e-14
-9.21799e-14
4.20429e-15
-6.46097e-15
3.57628e-15
-2.44549e-15
3.93948e-15
-1.64899e-15
3.8995e-14
-1.02215e-14
6.14786e-14
-2.67233e-14
7.78553e-14
-6.47203e-15
8.82501e-14
-1.21543e-15
1.54293e-13
6.41198e-15
1.13746e-12
4.01641e-14
3.20262e-11
9.77833e-12
1.98377e-11
4.14435e-11
1.80781e-13
8.92357e-12
1.10919e-16
2.79516e-13
7.59458e-17
1.97305e-14
2.70144e-16
4.61074e-15
2.17076e-16
2.08446e-15
1.38276e-16
6.2507e-16
1.61543e-16
5.56836e-16
1.86451e-16
6.37538e-16
1.67079e-16
6.11649e-16
1.32378e-16
5.06677e-16
9.72153e-17
3.78097e-16
6.59437e-17
2.6011e-16
3.48692e-17
1.4596e-16
1.13756e-17
5.60905e-17
1.68291e-18
1.2197e-17
1.07961e-18
8.48119e-22
2.42065e-21
1.20168e-20
3.54676e-20
1.33844e-19
4.26446e-19
1.0612e-18
3.70942e-18
6.36211e-18
2.24433e-17
5.52971e-17
1.38115e-16
7.96362e-16
1.09706e-15
2.88342e-14
1.0775e-14
1.44719e-12
3.0966e-13
4.13028e-11
9.41118e-11
1.22381e-10
2.96957e-10
1.05605e-10
1.67201e-10
2.54661e-12
4.99411e-12
1.56641e-11
2.46274e-13
1.73051e-10
-1.35553e-11
3.36372e-10
-3.21669e-10
4.08194e-10
-5.06007e-10
1.78241e-10
-3.9283e-10
4.61692e-12
-7.56162e-12
2.52192e-14
-1.77486e-12
3.49449e-13
-1.64042e-12
2.48466e-13
-8.21671e-13
8.07769e-15
-4.29446e-14
3.99454e-15
-5.22742e-15
3.35017e-15
-2.2483e-15
3.70647e-15
-1.57878e-15
6.01883e-14
-5.91741e-15
1.42136e-13
-2.52697e-14
7.2886e-14
-1.71703e-14
9.10577e-14
7.47001e-16
3.18226e-13
1.60662e-14
5.20492e-12
2.77881e-13
3.89422e-11
3.32281e-11
2.50113e-11
4.46039e-11
9.62497e-13
3.78238e-11
4.83595e-14
9.52572e-13
1.18187e-16
5.93297e-14
1.20948e-16
3.91994e-15
1.83524e-16
1.11844e-15
1.28634e-16
6.02907e-16
1.38268e-16
5.54367e-16
1.50463e-16
5.90177e-16
1.41918e-16
5.78387e-16
1.04008e-16
4.66459e-16
7.16398e-17
3.31819e-16
4.39576e-17
2.09032e-16
1.95591e-17
1.01169e-16
5.13299e-18
3.22184e-17
6.15344e-19
5.76582e-18
4.49804e-19
7.26154e-22
1.96028e-21
1.04597e-20
3.01585e-20
1.23244e-19
3.78981e-19
9.94702e-19
3.31492e-18
5.32243e-18
1.77184e-17
3.86374e-17
9.39192e-17
7.34729e-16
9.64424e-16
2.34993e-14
1.21278e-14
1.07754e-12
2.3426e-13
7.01928e-11
9.49857e-11
1.08826e-10
1.14394e-10
5.28034e-11
6.76791e-11
6.13614e-12
6.08993e-12
6.608e-11
3.35305e-12
2.52319e-10
-9.09658e-11
3.16628e-10
-3.78403e-10
4.09288e-10
-6.22436e-10
1.63868e-11
-6.56773e-11
3.82707e-13
-1.02676e-11
1.77875e-12
-4.40985e-12
1.97142e-12
-6.82373e-12
4.84398e-14
-3.25114e-13
6.14155e-15
-1.9591e-14
3.5106e-15
-3.92926e-15
3.09895e-15
-2.14015e-15
3.23434e-15
-1.50666e-15
8.22576e-14
-1.61283e-15
1.10688e-13
-3.10088e-14
1.17225e-13
-1.00434e-14
1.68837e-13
6.80554e-15
7.0654e-13
3.23882e-14
2.71543e-11
8.67948e-12
4.33904e-11
3.49937e-11
2.92379e-11
4.97474e-11
8.00926e-12
4.73507e-11
6.47454e-14
1.9549e-12
1.36924e-15
9.95957e-14
2.92392e-17
5.68139e-15
8.51663e-17
8.87349e-16
1.18308e-16
5.83816e-16
1.17201e-16
5.54554e-16
1.20807e-16
5.64546e-16
1.12974e-16
5.5011e-16
7.64525e-17
4.21599e-16
4.8226e-17
2.78539e-16
2.57888e-17
1.55769e-16
9.38974e-18
6.3532e-17
1.9722e-18
1.66149e-17
1.93762e-19
2.45313e-18
1.68113e-19
5.86852e-22
1.52599e-21
9.33869e-21
2.735e-20
1.11174e-19
3.3533e-19
8.76945e-19
2.80124e-18
4.26786e-18
1.36856e-17
3.20769e-17
7.55956e-17
7.55403e-16
9.25174e-16
2.37182e-14
1.24194e-14
1.03344e-12
2.25388e-13
6.61097e-11
9.00141e-11
7.86502e-11
3.04069e-10
6.27498e-11
1.54695e-10
8.87257e-12
7.66277e-12
2.04449e-10
3.49496e-11
3.33722e-10
-1.9773e-10
3.97824e-10
-4.34942e-10
1.8625e-10
-4.08797e-10
0
-3.21737e-11
1.46981e-11
-1.60543e-10
1.68788e-11
-7.42573e-11
3.03006e-13
-3.63268e-12
1.97247e-14
-1.82473e-13
4.57483e-15
-1.38404e-14
2.85802e-15
-2.96701e-15
2.67849e-15
-2.14062e-15
2.50602e-15
-1.45011e-15
2.49703e-14
-1.22419e-15
1.75e-13
-1.89592e-14
1.85083e-13
-4.34676e-15
4.97347e-13
1.55732e-14
1.65103e-11
5.02695e-13
3.89511e-11
3.64141e-11
3.37307e-11
4.1008e-11
3.0043e-11
5.36173e-11
4.16823e-12
2.92224e-11
5.59784e-15
1.4978e-12
0
8.48189e-14
5.28091e-17
5.77785e-15
6.98902e-17
7.81572e-16
9.81111e-17
5.59422e-16
9.65517e-17
5.56949e-16
9.21813e-17
5.53681e-16
8.45066e-17
5.20338e-16
5.06233e-17
3.68694e-16
2.83327e-17
2.19706e-16
1.27556e-17
1.06131e-16
3.72442e-18
3.58598e-17
6.23557e-19
7.65052e-18
5.03375e-20
9.28233e-19
5.55002e-20
4.86336e-22
1.31367e-21
9.11972e-21
2.70528e-20
1.02611e-19
3.13771e-19
7.48883e-19
2.33316e-18
3.43109e-18
1.07244e-17
2.83667e-17
6.20695e-17
7.87597e-16
9.22929e-16
2.47754e-14
1.22084e-14
1.03713e-12
2.26439e-13
8.82832e-11
8.92796e-11
1.02944e-10
3.74735e-10
6.75076e-11
1.80413e-10
4.59891e-11
1.23435e-11
1.98657e-10
6.64764e-11
2.42891e-10
-2.31418e-10
3.21693e-10
-5.14493e-10
4.44073e-11
-1.66308e-10
1.99987e-11
-7.54581e-11
7.16755e-11
-1.58705e-10
8.54482e-12
-8.53953e-11
2.51912e-13
-1.20981e-12
1.65093e-14
-9.97859e-14
1.32887e-15
-1.42717e-14
2.60997e-15
-1.37992e-14
2.80872e-15
-2.61581e-15
2.62239e-15
-1.43442e-15
9.39194e-15
-8.43844e-16
6.52282e-14
-2.5515e-15
1.21516e-13
1.00231e-16
7.71041e-13
1.74749e-14
3.4155e-11
4.81449e-12
3.98648e-11
3.47044e-11
3.49848e-11
4.61502e-11
3.00293e-11
5.93541e-11
0
3.30349e-12
0
3.45888e-13
0
2.97875e-14
0
3.28595e-15
7.30219e-17
6.34445e-16
7.57229e-17
5.52985e-16
7.33804e-17
5.59986e-16
6.65903e-17
5.50965e-16
5.36095e-17
4.78671e-16
2.82856e-17
3.04495e-16
1.35465e-17
1.59729e-16
4.94364e-18
6.51293e-17
1.13149e-18
1.79667e-17
1.48957e-19
3.09656e-18
9.72107e-21
3.04614e-19
1.54441e-20
4.68873e-22
1.29539e-21
9.7202e-21
2.90786e-20
1.00557e-19
3.11607e-19
6.36391e-19
1.96497e-18
2.76293e-18
8.09747e-18
2.60334e-17
5.23883e-17
8.24304e-16
9.27108e-16
2.40246e-14
1.21833e-14
9.36611e-13
2.06178e-13
5.73994e-11
1.03813e-10
1.12087e-10
3.32682e-10
9.50901e-11
2.10244e-10
6.91391e-11
2.5254e-11
1.98849e-10
8.55457e-11
2.97701e-10
-2.56195e-10
1.54669e-10
-7.1835e-10
7.38148e-14
-1.11519e-10
1.98887e-11
-1.96426e-10
7.02163e-11
-1.45159e-10
2.70104e-12
-1.48382e-11
1.70761e-13
-8.64877e-13
7.96735e-14
-4.98129e-13
4.97821e-14
-5.48743e-13
2.63298e-15
-2.42396e-14
2.54628e-15
-3.63252e-15
2.48172e-15
-1.38848e-15
2.44917e-15
-7.506e-16
4.40005e-15
-4.56163e-16
4.95782e-14
4.07854e-16
8.33348e-13
2.00115e-14
4.09072e-11
1.5793e-11
3.73022e-11
3.71141e-11
3.22499e-11
5.23778e-11
4.45069e-12
1.97758e-11
0
5.47419e-13
0
6.352e-14
0
7.23483e-15
3.13853e-17
1.23722e-15
5.65222e-17
5.74045e-16
5.22454e-17
5.5583e-16
4.78823e-17
5.64904e-16
4.07544e-17
5.43827e-16
2.62814e-17
4.18743e-16
1.14494e-17
2.31695e-16
4.39247e-18
1.04722e-16
1.20573e-18
3.53317e-17
2.01957e-19
7.83691e-18
1.94627e-20
1.07477e-18
9.4561e-22
8.37886e-20
3.44042e-21
5.1685e-22
1.45896e-21
1.1556e-20
3.60665e-20
1.05275e-19
3.33455e-19
5.32246e-19
1.71109e-18
1.84411e-18
5.20064e-18
2.24314e-17
5.02047e-17
6.64141e-16
9.75772e-16
2.34927e-14
8.42369e-15
9.78017e-13
2.0811e-13
3.14058e-11
1.89816e-10
1.12148e-10
3.09986e-10
8.9008e-11
5.31146e-11
1.26889e-10
5.12409e-11
2.4472e-10
1.28885e-10
3.55422e-10
-2.65873e-10
1.68213e-10
-4.0406e-10
0
-9.83911e-11
8.28711e-11
-1.90918e-10
1.69516e-11
-5.41716e-11
5.17729e-14
-6.90868e-12
1.29318e-12
-4.63942e-12
1.26787e-12
-7.56333e-12
1.61778e-14
-6.61262e-13
5.04104e-15
-2.53798e-14
2.8083e-15
-3.56896e-15
2.40819e-15
-1.3112e-15
2.72387e-15
-6.50139e-16
8.91906e-15
-1.57041e-16
1.66404e-13
3.14231e-15
1.6123e-11
8.87107e-13
3.53918e-11
3.91898e-11
3.37538e-11
4.42648e-11
1.17256e-11
3.14286e-11
0
4.1239e-13
0
9.25784e-14
0
1.2296e-14
0
2.76536e-15
2.87546e-17
6.3816e-16
3.49512e-17
5.64671e-16
2.75587e-17
5.61782e-16
2.15705e-17
5.68084e-16
1.47939e-17
5.20178e-16
5.92995e-18
3.34915e-16
1.50789e-18
1.57948e-16
2.21144e-19
6.04851e-17
-8.54175e-21
1.65763e-17
-6.38859e-21
2.91473e-18
-6.95797e-22
3.14584e-19
-4.13917e-23
1.92246e-20
6.48943e-22
6.7434e-22
2.0256e-21
1.55604e-20
5.03892e-20
1.16207e-19
3.81916e-19
4.75763e-19
1.65143e-18
1.40925e-18
4.68084e-18
2.39807e-17
5.21447e-17
1.40196e-15
7.79481e-16
7.03166e-14
1.95366e-14
7.02265e-12
8.48811e-13
7.94446e-11
2.65725e-10
1.13393e-10
3.4005e-10
6.30921e-11
6.5298e-11
2.73191e-10
1.24392e-10
3.98976e-10
9.90889e-11
3.23407e-10
-2.1848e-10
7.35503e-11
-1.43081e-10
0
-1.83155e-10
5.5874e-11
-1.64679e-10
1.81024e-12
-1.81582e-11
5.21514e-12
-2.05036e-11
8.38064e-12
-1.51603e-11
1.23653e-12
-1.48785e-11