/*--------------------------------*- C++ -*----------------------------------*\
  =========                 |
  \\      /  F ield         | OpenFOAM: The Open Source CFD Toolbox
   \\    /   O peration     | Website:  https://openfoam.org
    \\  /    A nd           | Version:  9
     \\/     M anipulation  |
\*---------------------------------------------------------------------------*/
FoamFile
{
    format      ascii;
    class       volScalarField;
    location    "0.05";
    object      p;
}
// * * * * * * * * * * * * * * * * * * * * * * * * * * * * * * * * * * * * * //

dimensions      [1 -1 -2 0 0 0 0];

internalField   nonuniform List<scalar> 
5000
(
0.803343
0.799313
0.79419
0.787837
0.780146
0.770759
0.759262
0.745364
0.729648
0.712706
0.705365
0.768027
0.620926
21.8234
26.3542
26.575
26.8842
27.3778
27.7766
27.973
28.1975
28.4124
28.5878
28.7633
28.9392
29.0621
29.0492
28.9651
28.9748
26.2024
2.29291
0.150359
0.20204
0.248939
0.289511
0.330477
0.374359
0.419142
0.462646
0.503806
0.542223
0.577883
0.610987
0.641818
0.670655
0.697735
0.723237
0.747284
0.770126
0.791507
0.80174
0.798694
0.795096
0.791021
0.786431
0.781436
0.77644
0.771764
0.769544
0.774167
0.790833
0.896168
1.05918
18.8342
25.0024
26.0184
26.6699
27.3103
27.7602
27.9597
28.1702
28.3696
28.5338
28.7124
28.9352
29.1702
29.2805
29.2832
29.5864
22.8698
0.969459
0.292538
0.303563
0.318763
0.341747
0.368981
0.401825
0.438236
0.475892
0.513115
0.548855
0.582625
0.61433
0.644074
0.672019
0.698317
0.723093
0.746451
0.76863
0.7896
0.800228
0.798206
0.796085
0.79409
0.792406
0.791561
0.792461
0.796009
0.805699
0.830545
0.870803
1.02844
1.57039
10.8326
22.6016
24.2601
26.1326
27.2524
27.7637
27.9645
28.1492
28.312
28.4483
28.6312
28.9294
29.3606
29.785
30.2862
31.8919
13.2794
0.546682
0.361196
0.369052
0.372393
0.38467
0.40223
0.426543
0.456088
0.488722
0.522413
0.555664
0.58763
0.61797
0.646622
0.673643
0.69913
0.723181
0.745896
0.767466
0.787901
0.798651
0.797625
0.796873
0.796716
0.797591
0.800334
0.806213
0.816629
0.835789
0.875712
0.943417
1.1028
1.44111
3.78777
23.5849
23.4706
26.0582
27.5457
27.9218
28.0133
28.1347
28.2309
28.3088
28.4829
28.7885
29.0869
29.2204
29.8726
29.5417
3.89251
0.394115
0.367277
0.392566
0.402802
0.408677
0.422996
0.442958
0.46862
0.4982
0.529588
0.561128
0.591806
0.621127
0.648916
0.675164
0.699936
0.723316
0.745401
0.766358
0.786242
0.796876
0.796731
0.797185
0.798624
0.801638
0.8072
0.816859
0.832334
0.857693
0.905011
0.985486
1.11741
1.27848
1.4317
23.1887
26.5411
26.8209
28.0666
28.2135
28.0843
28.1063
28.1086
28.0682
28.1457
28.2702
28.0862
27.5092
27.7049
12.4569
0.900307
0.371555
0.396906
0.395282
0.405125
0.41423
0.429957
0.449926
0.474885
0.503502
0.533937
0.564656
0.59464
0.623343
0.650544
0.676213
0.70041
0.723224
0.744759
0.76515
0.784422
0.794836
0.795432
0.796861
0.799574
0.804256
0.811878
0.824048
0.842654
0.871272
0.920573
0.993067
1.10059
1.17534
1.3235
11.4907
30.1804
27.1595
27.9076
28.2686
28.0693
28.0165
27.9347
27.7119
27.6008
27.3838
26.4782
25.9299
20.5539
2.22823
0.458549
0.386764
0.447362
0.394669
0.40565
0.417594
0.43266
0.453778
0.478756
0.507003
0.536962
0.567201
0.59672
0.624955
0.651669
0.676827
0.700494
0.722774
0.743792
0.763662
0.782444
0.792463
0.793631
0.795794
0.799428
0.805266
0.814211
0.827727
0.847643
0.876962
0.924007
0.985779
1.06471
1.09535
1.10583
3.57152
22.7755
26.2402
27.0711
27.9278
27.8597
27.7684
27.6364
27.3275
27.5995
27.7008
25.5056
19.6017
3.30924
0.357541
0.407539
0.409533
0.402365
0.427218
0.423282
0.431406
0.444368
0.46263
0.485687
0.512397
0.541177
0.5705
0.599275
0.626867
0.652994
0.677595
0.70072
0.72247
0.742973
0.76236
0.780749
0.789692
0.791249
0.793907
0.798123
0.804608
0.814182
0.828039
0.847704
0.875616
0.916366
0.964423
1.01743
1.02466
1.04687
0.877298
7.30751
23.9553
27.2129
28.2231
27.9549
27.5947
27.3354
27.0646
28.5715
26.8107
11.2988
1.46849
0.479379
0.466899
0.449669
0.452428
0.438308
0.465257
0.437239
0.446779
0.457889
0.473435
0.494746
0.519718
0.546991
0.57506
0.602795
0.62951
0.654873
0.678784
0.701268
0.722404
0.742311
0.761142
0.77907
0.786486
0.788249
0.791166
0.795644
0.80232
0.811919
0.825324
0.84368
0.868754
0.903174
0.938832
0.967696
0.967676
1.04995
0.929852
0.877242
7.31148
19.6738
28.8343
29.2138
28.279
27.8153
24.3333
12.5729
2.87013
0.696303
0.613609
0.565781
0.529205
0.498021
0.484063
0.473012
0.483481
0.466441
0.465019
0.472289
0.486174
0.505156
0.528326
0.554007
0.580683
0.607209
0.63287
0.657297
0.680352
0.702036
0.72242
0.741629
0.759811
0.777189
0.78283
0.784629
0.787578
0.792034
0.798527
0.807665
0.820078
0.836549
0.858161
0.886385
0.915385
0.933497
0.930831
0.902437
0.893937
0.848873
0.806482
2.12143
5.40635
11.7027
11.7941
6.04643
1.69214
0.5692
0.57563
0.607314
0.602988
0.573947
0.54207
0.519263
0.50297
0.492318
0.510556
0.486974
0.481224
0.487636
0.499942
0.51633
0.537906
0.562035
0.587269
0.612488
0.636969
0.660328
0.682405
0.703183
0.722726
0.741177
0.758691
0.775502
0.778725
0.780405
0.78318
0.787368
0.793387
0.801714
0.81279
0.827168
0.845503
0.869816
0.890584
0.903384
0.905598
0.883631
0.86869
0.830621
0.795422
0.757641
0.72613
0.695544
0.636327
0.602129
0.589407
0.574749
0.580448
0.600684
0.584158
0.568811
0.548704
0.531928
0.517057
0.504554
0.524279
0.495472
0.493053
0.499719
0.511566
0.528013
0.548386
0.571118
0.594895
0.618701
0.641864
0.664011
0.684979
0.704742
0.723359
0.740979
0.757784
0.774019
0.774185
0.775611
0.77803
0.781736
0.787056
0.794339
0.80386
0.81605
0.831362
0.852815
0.870232
0.87635
0.88471
0.855592
0.843287
0.810113
0.770368
0.745879
0.717477
0.678344
0.643431
0.619087
0.602136
0.58947
0.587439
0.58479
0.578136
0.567705
0.555147
0.543059
0.531106
0.520065
0.512068
0.508635
0.508122
0.514815
0.526105
0.541915
0.560647
0.581728
0.603798
0.625955
0.647583
0.66833
0.688031
0.706654
0.724255
0.740974
0.757001
0.772578
0.769242
0.770294
0.772204
0.775249
0.779685
0.785755
0.793589
0.80354
0.816513
0.832031
0.847478
0.859602
0.856687
0.835815
0.819906
0.791989
0.757286
0.727287
0.698633
0.673468
0.64525
0.622501
0.606412
0.597565
0.592558
0.586034
0.578536
0.570647
0.56225
0.553828
0.545371
0.537508
0.534433
0.528578
0.528923
0.534173
0.543998
0.557871
0.574808
0.593805
0.61384
0.634086
0.653973
0.673156
0.691466
0.708857
0.725377
0.741148
0.756329
0.771114
0.763934
0.764508
0.76579
0.768023
0.771423
0.776129
0.782183
0.789873
0.800255
0.812914
0.823494
0.845367
0.832024
0.816706
0.798104
0.773183
0.742668
0.714025
0.68789
0.665221
0.644613
0.627038
0.613128
0.603433
0.595759
0.588101
0.580965
0.574672
0.56896
0.563461
0.557897
0.552838
0.555842
0.549052
0.549683
0.554122
0.562547
0.574576
0.589476
0.606282
0.624194
0.64246
0.660551
0.678132
0.695026
0.711172
0.726601
0.741408
0.755708
0.769636
0.758305
0.75831
0.758866
0.76017
0.76241
0.76562
0.769805
0.775277
0.782926
0.793538
0.815673
0.825863
0.810644
0.793864
0.776334
0.753682
0.726549
0.699581
0.675967
0.657328
0.641373
0.627354
0.615347
0.605584
0.597115
0.58941
0.582976
0.578066
0.574363
0.571268
0.568302
0.566238
0.570876
0.566531
0.567671
0.571593
0.579034
0.589608
0.602721
0.617654
0.63367
0.650139
0.666583
0.682684
0.698262
0.713247
0.727653
0.741549
0.755005
0.76811
0.752407
0.751768
0.751518
0.751802
0.752779
0.754398
0.75662
0.759817
0.765389
0.775309
0.78594
0.803037
0.795043
0.769195
0.755006
0.734778
0.710332
0.684491
0.66289
0.647422
0.635462
0.624235
0.61383
0.604576
0.596294
0.589129
0.583622
0.580004
0.577926
0.57679
0.575948
0.575301
0.581972
0.579396
0.58044
0.584539
0.591644
0.601339
0.613233
0.626754
0.641298
0.656329
0.671427
0.686301
0.700779
0.714789
0.728332
0.741448
0.754164
0.766533
0.746294
0.74496
0.743842
0.743038
0.742657
0.742602
0.742736
0.74346
0.74654
0.755016
0.770853
0.774656
0.768087
0.746651
0.735332
0.717644
0.695402
0.668236
0.653122
0.635827
0.627282
0.618533
0.609497
0.601021
0.593369
0.587008
0.582496
0.580002
0.57929
0.579865
0.581263
0.583353
0.585792
0.597474
0.586024
0.592074
0.599637
0.609141
0.620397
0.633019
0.646551
0.660551
0.674657
0.688611
0.702255
0.715519
0.728398
0.740908
0.753045
0.764838
0.740021
0.737961
0.735931
0.733995
0.732182
0.730367
0.728257
0.726124
0.725608
0.728484
0.736873
0.747431
0.733929
0.72773
0.718125
0.70265
0.708929
0.700326
0.63127
0.623662
0.617697
0.610974
0.603009
0.595286
0.58836
0.582818
0.579165
0.577577
0.5778
0.579491
0.582181
0.585513
0.58843
0.605317
0.591868
0.597633
0.604778
0.613804
0.624487
0.636465
0.649315
0.662634
0.676088
0.68944
0.702548
0.715345
0.727816
0.739948
0.7517
0.763083
0.73364
0.730829
0.727864
0.724771
0.721498
0.717866
0.713442
0.70824
0.703758
0.701995
0.726131
0.724114
0.71588
0.710467
0.701156
0.697483
0.707917
0.698015
0.616832
0.614127
0.608583
0.602309
0.594869
0.587617
0.581257
0.576384
0.573409
0.57242
0.573218
0.575435
0.578667
0.582523
0.586198
0.604895
0.592932
0.59886
0.605912
0.614749
0.625192
0.636891
0.649434
0.662433
0.675576
0.688646
0.701513
0.714116
0.726431
0.738426
0.750033
0.76124
0.727208
0.723615
0.719706
0.715455
0.710741
0.705303
0.698671
0.690733
0.683217
0.680033
0.703233
0.70363
0.694491
0.692522
0.680103
0.692446
0.684092
0.653239
0.614854
0.608584
0.60071
0.593113
0.585317
0.57813
0.572063
0.567637
0.565132
0.564538
0.565637
0.568064
0.571463
0.575538
0.579839
0.594191
0.587641
0.594116
0.601921
0.611288
0.622109
0.634054
0.646739
0.659809
0.672989
0.686092
0.69901
0.711693
0.724115
0.736232
0.747968
0.759299
0.720786
0.716389
0.711536
0.706138
0.700035
0.69287
0.684203
0.674068
0.664697
0.661412
0.664807
0.675091
0.675161
0.668219
0.660147
0.678314
0.662967
0.642881
0.617399
0.603782
0.592713
0.582836
0.574339
0.566855
0.560826
0.556629
0.554403
0.554053
0.555301
0.557806
0.561315
0.565795
0.571026
0.578362
0.580507
0.585203
0.593931
0.604162
0.615732
0.628276
0.641427
0.654865
0.66836
0.681767
0.695011
0.708054
0.720868
0.733391
0.745533
0.757236
0.714441
0.709238
0.703446
0.696924
0.689481
0.680682
0.67007
0.657836
0.646611
0.641155
0.64503
0.644286
0.656329
0.642639
0.665047
0.658496
0.637701
0.639352
0.6131
0.596179
0.582017
0.571259
0.561851
0.553872
0.54769
0.543551
0.54145
0.541193
0.542446
0.544799
0.547758
0.551969
0.559345
0.563999
0.568754
0.57431
0.583684
0.594702
0.607026
0.620222
0.633909
0.647797
0.661704
0.675534
0.689251
0.702842
0.716282
0.729508
0.742418
0.754913
0.708232
0.702246
0.69553
0.687914
0.679167
0.668801
0.656261
0.641686
0.627811
0.618442
0.629487
0.62925
0.632937
0.614663
0.656182
0.638896
0.626495
0.628931
0.605615
0.590737
0.569987
0.558244
0.548001
0.539401
0.53294
0.528736
0.526649
0.526418
0.527714
0.530204
0.533448
0.538062
0.542788
0.547519
0.553235
0.561448
0.571673
0.583538
0.596585
0.61035
0.624461
0.63867
0.652851
0.666975
0.681065
0.695165
0.709311
0.723506
0.737718
0.751926
0.70221
0.695475
0.687868
0.679202
0.669189
0.657319
0.642937
0.626112
0.609727
0.5991
0.610793
0.608569
0.610616
0.597068
0.632583
0.621118
0.60876
0.600583
0.592689
0.570145
0.55733
0.544295
0.532975
0.523768
0.516998
0.512643
0.510455
0.510131
0.511389
0.513975
0.517531
0.52185
0.527345
0.529215
0.536999
0.546782
0.558265
0.571116
0.58486
0.599052
0.613357
0.627579
0.641651
0.655603
0.669533
0.683572
0.697937
0.712907
0.7289
0.746778
0.696424
0.688979
0.680527
0.670863
0.659653
0.646375
0.630321
0.611592
0.592943
0.581328
0.591519
0.580254
0.581491
0.587633
0.614565
0.583978
0.588801
0.586077
0.571614
0.559041
0.543728
0.529507
0.51724
0.507495
0.500442
0.495873
0.493465
0.492889
0.493868
0.49619
0.499768
0.505736
0.508201
0.513726
0.522078
0.532639
0.54499
0.558551
0.572741
0.587081
0.601236
0.615007
0.628297
0.641046
0.653182
0.664592
0.675048
0.684252
0.691686
0.696252
0.690922
0.68281
0.673567
0.662964
0.650647
0.636083
0.618523
0.59812
0.57748
0.571013
0.572302
0.567747
0.555858
0.602045
0.607767
0.560758
0.572385
0.566565
0.562918
0.547138
0.529944
0.515365
0.501484
0.491368
0.484002
0.479121
0.476368
0.475427
0.476018
0.477516
0.486509
0.490101
0.489995
0.498045
0.507787
0.519475
0.532678
0.5468
0.561256
0.575582
0.58948
0.602792
0.615444
0.627399
0.63862
0.649057
0.65867
0.667464
0.675522
0.682733
0.68575
0.677022
0.667044
0.655569
0.642242
0.626513
0.607632
0.585819
0.564042
0.559906
0.545618
0.54924
0.53337
0.599172
0.592369
0.549556
0.552396
0.559587
0.552109
0.534057
0.517871
0.500308
0.486705
0.476174
0.468441
0.463138
0.459894
0.458492
0.458987
0.462938
0.470289
0.468519
0.475479
0.484342
0.495307
0.508062
0.522044
0.536618
0.551231
0.56549
0.579173
0.592189
0.604515
0.616156
0.627115
0.637391
0.646993
0.655959
0.664295
0.671707
0.680948
0.671659
0.661004
0.648729
0.634487
0.617719
0.597727
0.574856
0.553237
0.538162
0.537585
0.529965
0.551134
0.541414
0.527483
0.538683
0.543387
0.54244
0.533541
0.519911
0.502019
0.486661
0.473283
0.462528
0.45448
0.448749
0.444955
0.442826
0.441387
0.451321
0.453245
0.455558
0.463458
0.473511
0.485603
0.499243
0.513785
0.528602
0.543198
0.557267
0.570666
0.583351
0.59533
0.606617
0.617222
0.627149
0.63642
0.645092
0.653188
0.660466
0.676551
0.666753
0.655484
0.642491
0.627422
0.609708
0.588716
0.564784
0.541905
0.525289
0.519395
0.517768
0.516082
0.519719
0.524395
0.521157
0.531005
0.528624
0.525686
0.50625
0.490461
0.475178
0.461791
0.451088
0.44291
0.436883
0.432749
0.430618
0.433717
0.437929
0.438541
0.445693
0.454823
0.46614
0.479245
0.493536
0.508353
0.523124
0.537454
0.551131
0.564071
0.576267
0.587733
0.598491
0.608556
0.617941
0.626686
0.634868
0.642517
0.649411
0.67259
0.662335
0.650522
0.636896
0.621077
0.602482
0.580474
0.555283
0.530358
0.511304
0.508584
0.508272
0.496609
0.509498
0.509909
0.509562
0.516199
0.520891
0.505522
0.496369
0.480828
0.466021
0.452976
0.442542
0.434453
0.428336
0.42397
0.421121
0.427517
0.427953
0.432451
0.440469
0.450765
0.463052
0.476793
0.491323
0.506015
0.520396
0.534176
0.547221
0.559496
0.571008
0.581778
0.59183
0.601187
0.609875
0.617941
0.625465
0.632481
0.638797
0.669091
0.658439
0.64616
0.631982
0.615494
0.596095
0.573109
0.546682
0.520043
0.499686
0.500376
0.49793
0.487586
0.494554
0.491723
0.498357
0.503939
0.507876
0.49877
0.488986
0.473739
0.459677
0.447406
0.437551
0.429825
0.42385
0.419146
0.424246
0.422604
0.426495
0.432154
0.440781
0.451802
0.464584
0.478441
0.492706
0.506836
0.520467
0.533405
0.545575
0.556966
0.567593
0.57748
0.586655
0.595151
0.603004
0.610265
0.617008
0.623272
0.628924
0.666079
0.655102
0.642441
0.627793
0.610724
0.590622
0.566761
0.53922
0.510913
0.489059
0.490958
0.488606
0.47689
0.480871
0.475595
0.488617
0.493797
0.491543
0.492941
0.483576
0.469564
0.45673
0.445617
0.436667
0.429703
0.42466
0.421728
0.425866
0.424196
0.429459
0.436681
0.446213
0.457685
0.470484
0.483942
0.497472
0.510645
0.523209
0.535042
0.546109
0.556412
0.565972
0.574815
0.582975
0.590495
0.597417
0.603792
0.609681
0.615128
0.620075
0.663575
0.652353
0.639393
0.624362
0.606811
0.586116
0.561487
0.532925
0.503056
0.480737
0.482434
0.478058
0.463241
0.467393
0.462824
0.479607
0.483992
0.488126
0.486822
0.481066
0.468667
0.457664
0.448069
0.440305
0.434256
0.429563
0.431689
0.43119
0.433686
0.438917
0.446717
0.456621
0.468027
0.480308
0.492871
0.505249
0.517136
0.528368
0.538879
0.548654
0.557704
0.566053
0.573732
0.580783
0.58725
0.593183
0.598625
0.603618
0.608213
0.612431
0.661593
0.65021
0.637034
0.621714
0.603791
0.58262
0.557351
0.527894
0.496753
0.473791
0.459766
0.456937
0.450162
0.453151
0.44774
0.467241
0.474793
0.478143
0.482246
0.479445
0.471459
0.462744
0.454997
0.448767
0.444171
0.442163
0.443462
0.443107
0.447491
0.453635
0.461749
0.471467
0.482229
0.493467
0.504701
0.51559
0.525933
0.535631
0.54465
0.55299
0.560666
0.567707
0.574149
0.580034
0.585408
0.59032
0.594804
0.598883
0.602612
0.606086
0.660148
0.648681
0.635376
0.619872
0.601697
0.580175
0.554408
0.524139
0.491908
0.464714
0.449124
0.444547
0.43811
0.439448
0.438505
0.453565
0.45559
0.470422
0.479426
0.48235
0.478047
0.472017
0.466428
0.461927
0.458453
0.460159
0.459795
0.462468
0.466729
0.473013
0.480899
0.489897
0.499504
0.509269
0.518843
0.527999
0.536615
0.544638
0.552052
0.558865
0.565098
0.57078
0.57595
0.580648
0.584916
0.588799
0.592322
0.595485
0.59835
0.601077
0.659248
0.647773
0.634432
0.618859
0.600564
0.578825
0.552698
0.521654
0.487813
0.457467
0.438651
0.434567
0.427536
0.427461
0.426225
0.44151
0.447615
0.468439
0.482717
0.488745
0.488191
0.48538
0.482361
0.480035
0.479614
0.481335
0.481694
0.485436
0.490058
0.496108
0.503228
0.511002
0.519037
0.527013
0.534702
0.541972
0.548754
0.555021
0.560772
0.566018
0.570783
0.575098
0.578997
0.582514
0.585687
0.588552
0.591125
0.593388
0.595404
0.59739
0.658896
0.647493
0.634218
0.618699
0.600424
0.578632
0.552307
0.520639
0.484794
0.450339
0.423178
0.414447
0.415632
0.418369
0.412297
0.430388
0.445719
0.466775
0.485572
0.497612
0.501901
0.502736
0.502605
0.50276
0.505048
0.507421
0.507795
0.511734
0.51642
0.521832
0.527747
0.533906
0.54007
0.546052
0.551731
0.557036
0.561938
0.566427
0.570507
0.574193
0.577508
0.58048
0.583136
0.585501
0.587605
0.58948
0.59113
0.592518
0.593712
0.594972
0.659087
0.647842
0.634742
0.619407
0.601308
0.579671
0.553411
0.521568
0.484446
0.447576
0.436531
0.414591
0.404316
0.413011
0.405641
0.426985
0.44693
0.476458
0.492049
0.510142
0.519423
0.524009
0.526797
0.529308
0.533795
0.537317
0.537181
0.540923
0.545011
0.549264
0.553573
0.557828
0.561934
0.565819
0.569438
0.572768
0.5758
0.578534
0.58098
0.58315
0.585063
0.586741
0.588201
0.589459
0.590537
0.59146
0.592222
0.592772
0.593179
0.593733
0.659808
0.648812
0.635997
0.620978
0.603227
0.581985
0.556134
0.52471
0.487546
0.449932
0.433098
0.411597
0.399402
0.396775
0.40427
0.431985
0.449013
0.483094
0.501014
0.526918
0.540773
0.54889
0.554428
0.558745
0.565711
0.569796
0.569043
0.572068
0.574963
0.577592
0.579969
0.582122
0.584072
0.585831
0.587406
0.588799
0.590015
0.591059
0.591939
0.592664
0.593246
0.593695
0.59402
0.594228
0.59433
0.594347
0.594265
0.594021
0.593681
0.593556
0.661036
0.65038
0.637957
0.623387
0.606156
0.585547
0.560453
0.529941
0.493765
0.456715
0.426041
0.412733
0.401811
0.402992
0.407994
0.429944
0.460499
0.478536
0.514995
0.546301
0.565262
0.576959
0.585124
0.591039
0.597146
0.602592
0.602087
0.604127
0.605411
0.606082
0.606313
0.606259
0.60603
0.605692
0.605281
0.604815
0.604302
0.603749
0.603156
0.602525
0.601858
0.601155
0.600416
0.599636
0.598822
0.597986
0.597109
0.596119
0.595077
0.594304
0.662743
0.65251
0.640578
0.626583
0.610038
0.590275
0.566227
0.536938
0.502119
0.465394
0.434418
0.418249
0.406686
0.400455
0.409826
0.434517
0.457025
0.492367
0.532965
0.571666
0.592585
0.607875
0.618456
0.6258
0.63091
0.634376
0.635967
0.636373
0.635654
0.634121
0.632085
0.629798
0.627426
0.625066
0.622766
0.620548
0.618419
0.616378
0.614419
0.612531
0.610707
0.608935
0.607206
0.605509
0.603841
0.60221
0.600592
0.598908
0.597216
0.595828
0.664894
0.655158
0.643807
0.630506
0.614799
0.596062
0.573292
0.545469
0.51214
0.475757
0.442752
0.419095
0.415858
0.414388
0.420759
0.444608
0.469434
0.5079
0.55279
0.596803
0.62258
0.641046
0.653625
0.661968
0.667094
0.669556
0.669733
0.668077
0.665066
0.661182
0.656846
0.652369
0.647942
0.643671
0.639607
0.635766
0.632149
0.628743
0.62553
0.622491
0.619604
0.616851
0.614212
0.611669
0.609215
0.606851
0.604549
0.602228
0.599939
0.597976
0.667448
0.658273
0.647587
0.635087
0.620352
0.602802
0.581519
0.555468
0.524046
0.488902
0.455963
0.429464
0.418192
0.425941
0.430407
0.456751
0.481919
0.527052
0.574837
0.620736
0.654175
0.675483
0.68962
0.698468
0.703103
0.704208
0.702424
0.69847
0.693046
0.686796
0.680219
0.673656
0.667305
0.661269
0.655587
0.650268
0.645299
0.640656
0.636309
0.632225
0.628374
0.624727
0.62126
0.617949
0.614778
0.611746
0.608822
0.605923
0.603093
0.600598
0.670361
0.661805
0.651856
0.640249
0.626599
0.61038
0.590777
0.566804
0.537802
0.504816
0.472925
0.446789
0.434371
0.432895
0.442454
0.473438
0.500413
0.547306
0.600589
0.649483
0.686498
0.710142
0.725391
0.734244
0.737939
0.737328
0.733327
0.726951
0.719116
0.710583
0.701897
0.693404
0.685296
0.67766
0.670523
0.66388
0.657702
0.651954
0.646591
0.64157
0.636854
0.632406
0.628194
0.624191
0.620376
0.616743
0.613259
0.609845
0.606532
0.603553
0.673582
0.665693
0.656545
0.645903
0.633428
0.618656
0.600886
0.579222
0.552986
0.522705
0.492355
0.466386
0.451168
0.446862
0.469058
0.498361
0.523478
0.572318
0.626208
0.678815
0.718642
0.744137
0.759994
0.768395
0.770752
0.768166
0.761843
0.753063
0.742923
0.732263
0.721649
0.711418
0.701741
0.692686
0.684266
0.676456
0.669215
0.662492
0.656232
0.650385
0.644902
0.639743
0.634873
0.630256
0.625871
0.621705
0.617727
0.613858
0.610122
0.606708
0.677058
0.669875
0.661573
0.651948
0.640711
0.627468
0.611636
0.592433
0.569205
0.542116
0.514193
0.489546
0.473545
0.477796
0.4997
0.524759
0.55225
0.599397
0.653269
0.708409
0.750192
0.776721
0.792636
0.800168
0.800882
0.796173
0.787533
0.776467
0.764204
0.751631
0.739309
0.727553
0.716509
0.706227
0.696697
0.68788
0.67972
0.672152
0.665114
0.658547
0.652398
0.646621
0.641176
0.636025
0.631143
0.626514
0.622106
0.617844
0.613744
0.609943
0.680734
0.674283
0.666855
0.658278
0.648315
0.636647
0.622811
0.606155
0.586117
0.562673
0.538153
0.516575
0.502165
0.501381
0.525306
0.544805
0.580929
0.627439
0.680678
0.738658
0.780528
0.807315
0.822691
0.828979
0.827835
0.820956
0.810099
0.796938
0.78279
0.768552
0.754764
0.741711
0.729512
0.718194
0.70773
0.698063
0.689124
0.680841
0.673142
0.665962
0.659245
0.65294
0.647004
0.641398
0.636093
0.631068
0.626293
0.621699
0.617291
0.613156
0.684555
0.678848
0.672302
0.664781
0.656102
0.646019
0.634186
0.620094
0.603306
0.583746
0.563241
0.545277
0.534555
0.532942
0.54788
0.573603
0.610628
0.656341
0.710656
0.768003
0.808811
0.83523
0.849644
0.85439
0.85127
0.842266
0.829366
0.814354
0.79859
0.782956
0.767955
0.753837
0.740694
0.728532
0.717303
0.70694
0.697362
0.688489
0.680243
0.672556
0.665366
0.658622
0.652278
0.646294
0.640636
0.635283
0.630203
0.625334
0.620674
0.616255
0.688466
0.683499
0.677828
0.671352
0.66394
0.655416
0.64554
0.633943
0.620322
0.604628
0.588278
0.573836
0.565699
0.566327
0.580049
0.6053
0.641021
0.685447
0.738133
0.793647
0.834355
0.859992
0.873113
0.8761
0.870984
0.859979
0.845257
0.828673
0.811584
0.794829
0.778868
0.763916
0.750036
0.737213
0.725387
0.714476
0.704393
0.69505
0.686367
0.678273
0.670705
0.663608
0.656936
0.650647
0.644706
0.639089
0.633764
0.628678
0.623819
0.619164
0.692416
0.688172
0.683353
0.677892
0.671705
0.664681
0.656667
0.647426
0.636784
0.624756
0.612439
0.601862
0.596575
0.599043
0.612618
0.636895
0.671048
0.713573
0.763347
0.816836
0.85739
0.881408
0.892915
0.893971
0.886897
0.874073
0.857787
0.839926
0.821803
0.804201
0.78753
0.771965
0.757547
0.744241
0.731975
0.720657
0.710195
0.700499
0.691485
0.683081
0.675223
0.667856
0.660933
0.65441
0.648252
0.642432
0.636921
0.631671
0.626665
0.621822
0.696354
0.692805
0.688803
0.684311
0.679287
0.673671
0.667389
0.660319
0.652401
0.643726
0.635161
0.62831
0.625956
0.630363
0.644019
0.66724
0.699544
0.739706
0.786602
0.837845
0.876635
0.899179
0.908893
0.907965
0.899031
0.884604
0.867039
0.848199
0.829328
0.811143
0.793998
0.778033
0.763264
0.749641
0.737083
0.725492
0.714771
0.70483
0.695585
0.686963
0.6789
0.671341
0.664238
0.657549
0.651237
0.645273
0.63963
0.634268
0.629163
0.624179
0.700231
0.697342
0.694113
0.69053
0.686586
0.682266
0.677558
0.672439
0.666948
0.661247
0.656041
0.652589
0.653011
0.659199
0.673075
0.69529
0.725602
0.763164
0.807307
0.855976
0.892118
0.913272
0.92101
0.918115
0.90747
0.89169
0.873142
0.85362
0.834278
0.815758
0.798362
0.782193
0.767247
0.753463
0.740749
0.729008
0.718141
0.708057
0.698673
0.689918
0.681729
0.67405
0.666836
0.660044
0.653637
0.647585
0.641862
0.636436
0.631279
0.626199
0.704003
0.701734
0.699221
0.696476
0.693516
0.690361
0.687055
0.683649
0.680262
0.677117
0.674801
0.674296
0.677177
0.684946
0.699095
0.720338
0.748609
0.78349
0.825392
0.870748
0.904324
0.923644
0.92929
0.924497
0.912345
0.895494
0.876264
0.856349
0.836798
0.818176
0.800732
0.78454
0.769577
0.755772
0.74303
0.731251
0.72034
0.710206
0.700769
0.691961
0.683718
0.675988
0.668725
0.661889
0.655442
0.649354
0.643599
0.638154
0.632987
0.627853
0.707629
0.705932
0.704075
0.702087
0.700002
0.697876
0.695788
0.693849
0.692237
0.691218
0.691299
0.693241
0.698193
0.707288
0.721643
0.741925
0.768223
0.800487
0.840347
0.880899
0.913234
0.930319
0.933814
0.927262
0.91385
0.896218
0.876604
0.856571
0.837056
0.818544
0.801238
0.785185
0.770349
0.75665
0.743994
0.732281
0.721418
0.71132
0.701909
0.693118
0.684889
0.67717
0.669917
0.66309
0.656654
0.650577
0.644836
0.639412
0.634275
0.629124
0.711076
0.709898
0.708629
0.707308
0.705988
0.704745
0.70369
0.702974
0.702814
0.703504
0.705492
0.709371
0.715959
0.726062
0.74048
0.759803
0.784267
0.814183
0.851855
0.888874
0.918808
0.933369
0.934844
0.926655
0.912241
0.89411
0.874391
0.854493
0.835235
0.817025
0.800024
0.784255
0.769672
0.756193
0.743723
0.732168
0.721438
0.711452
0.702137
0.69343
0.685275
0.677623
0.670432
0.663664
0.657284
0.651261
0.645573
0.640209
0.635135
0.630003
0.714313
0.713598
0.712845
0.7121
0.71143
0.710926
0.71072
0.710989
0.711973
0.713979
0.717409
0.722728
0.730501
0.741262
0.755557
0.773893
0.796659
0.824449
0.859998
0.893661
0.92109
0.933039
0.933378
0.923024
0.907811
0.88944
0.869869
0.850331
0.831527
0.81379
0.797239
0.781881
0.767662
0.754502
0.742308
0.730992
0.720469
0.710664
0.701509
0.692944
0.684918
0.677384
0.670302
0.663636
0.657353
0.651422
0.645822
0.640549
0.635569
0.630485
0.717317
0.717006
0.716694
0.716433
0.716298
0.716392
0.716856
0.717883
0.719724
0.722686
0.727131
0.733427
0.74195
0.753019
0.766987
0.784272
0.805424
0.831575
0.864049
0.895866
0.920208
0.929784
0.927965
0.91643
0.900764
0.882448
0.863272
0.844304
0.826129
0.809011
0.793038
0.778201
0.764443
0.751687
0.739846
0.72884
0.718589
0.709025
0.700086
0.691715
0.683866
0.676494
0.669563
0.663037
0.656887
0.65108
0.645598
0.640443
0.635582
0.630572
0.720073
0.720104
0.720157
0.720289
0.720579
0.721132
0.722096
0.723668
0.7261
0.729694
0.734776
0.741637
0.750511
0.76156
0.774996
0.791162
0.810764
0.835917
0.865316
0.895196
0.916149
0.923095
0.91948
0.907492
0.891364
0.873388
0.854838
0.83663
0.819238
0.802867
0.787578
0.773354
0.760139
0.74786
0.736439
0.725803
0.71588
0.706609
0.697934
0.689802
0.682171
0.675
0.668255
0.661902
0.655914
0.650259
0.644921
0.639907
0.635187
0.630271
0.722565
0.722879
0.723225
0.723661
0.724266
0.725147
0.72645
0.72837
0.731156
0.735097
0.740486
0.747553
0.756429
0.767164
0.779879
0.794903
0.813101
0.837448
0.864109
0.891667
0.909236
0.913856
0.908532
0.896272
0.879923
0.862534
0.844817
0.827533
0.811054
0.795535
0.781019
0.767484
0.754877
0.743135
0.732189
0.721973
0.712426
0.703492
0.69512
0.687266
0.679888
0.67295
0.66642
0.660268
0.654466
0.648986
0.643812
0.638958
0.634394
0.629591
0.724788
0.725326
0.725894
0.726549
0.727366
0.728449
0.729939
0.732027
0.734955
0.738996
0.744412
0.75138
0.759956
0.770123
0.781951
0.795826
0.812776
0.83562
0.860517
0.885279
0.899693
0.901916
0.895357
0.882653
0.866747
0.850164
0.833462
0.817239
0.801777
0.787193
0.773518
0.76073
0.748785
0.737627
0.727199
0.717445
0.708311
0.699749
0.691715
0.684168
0.677072
0.670393
0.664101
0.658171
0.652576
0.647288
0.642294
0.637615
0.633221
0.628542
0.726737
0.727443
0.728166
0.728958
0.729889
0.731056
0.732594
0.73469
0.737574
0.741502
0.746706
0.753318
0.761341
0.77072
0.781516
0.794203
0.810171
0.831363
0.854345
0.876487
0.887714
0.887638
0.880057
0.867319
0.852098
0.836559
0.82103
0.805975
0.791606
0.778018
0.765233
0.753234
0.741987
0.731449
0.721572
0.712311
0.703619
0.695457
0.687785
0.680568
0.673775
0.667375
0.66134
0.655649
0.650275
0.645193
0.640392
0.635898
0.631683
0.62714
0.728411
0.729233
0.730047
0.730899
0.731851
0.732993
0.734455
0.736414
0.739092
0.742726
0.747517
0.753556
0.760812
0.769212
0.778869
0.790451
0.805427
0.825114
0.845904
0.865395
0.87325
0.871917
0.863073
0.850369
0.836428
0.822041
0.807781
0.79396
0.780734
0.768179
0.756321
0.745132
0.734607
0.724713
0.715409
0.706661
0.698433
0.690689
0.683397
0.676527
0.670052
0.663944
0.658179
0.652737
0.647596
0.642729
0.638129
0.633828
0.629799
0.6254
0.729815
0.730703
0.731548
0.732388
0.733276
0.734294
0.735566
0.737263
0.739593
0.742776
0.746982
0.752265
0.758569
0.765831
0.774244
0.784566
0.798697
0.81695
0.835816
0.851833
0.856551
0.853893
0.844521
0.832772
0.819907
0.806841
0.793935
0.781397
0.769343
0.757833
0.746892
0.736547
0.726763
0.717524
0.708807
0.700585
0.692831
0.685517
0.678615
0.672103
0.665954
0.660147
0.654659
0.649474
0.644571
0.639926
0.635532
0.631428
0.627589
0.623338
0.730954
0.731862
0.732683
0.733443
0.734189
0.734995
0.735978
0.7373
0.739161
0.741757
0.745228
0.749596
0.754787
0.760779
0.767902
0.777045
0.790245
0.806219
0.823845
0.836133
0.838212
0.834132
0.825039
0.814108
0.802732
0.791167
0.779699
0.768478
0.757608
0.747153
0.737154
0.727628
0.718578
0.709995
0.701865
0.694171
0.686894
0.680012
0.673505
0.667352
0.661534
0.65603
0.650823
0.645897
0.641234
0.636812
0.632627
0.628722
0.625074
0.620974
0.731837
0.732723
0.733467
0.734089
0.734624
0.735138
0.735743
0.736594
0.737875
0.739764
0.742368
0.745674
0.749609
0.75423
0.760078
0.768381
0.780274
0.794398
0.809662
0.818523
0.818459
0.813291
0.80498
0.79504
0.78529
0.775307
0.765303
0.755397
0.745696
0.736279
0.727197
0.718485
0.710158
0.702221
0.694672
0.687501
0.680696
0.674243
0.668127
0.662332
0.656841
0.651639
0.64671
0.642042
0.637619
0.633419
0.629442
0.625734
0.622275
0.618327
0.732475
0.7333
0.733923
0.734353
0.734615
0.73477
0.734919
0.735211
0.735814
0.736883
0.738496
0.740605
0.743141
0.746287
0.750371
0.757985
0.768483
0.781199
0.793353
0.799048
0.797218
0.791999
0.78423
0.776193
0.767994
0.759559
0.750974
0.742339
0.733767
0.725349
0.717154
0.70923
0.701606
0.694298
0.687313
0.680652
0.674309
0.668275
0.662541
0.657095
0.651925
0.647019
0.642364
0.637949
0.633761
0.629779
0.626005
0.622492
0.619217
0.61542
0.73288
0.733611
0.734073
0.734265
0.734202
0.733936
0.733562
0.733215
0.733047
0.733187
0.733688
0.734459
0.735464