/*--------------------------------*- C++ -*----------------------------------*\
  =========                 |
  \\      /  F ield         | OpenFOAM: The Open Source CFD Toolbox
   \\    /   O peration     | Website:  https://openfoam.org
    \\  /    A nd           | Version:  9
     \\/     M anipulation  |
\*---------------------------------------------------------------------------*/
FoamFile
{
    format      ascii;
    class       surfaceScalarField;
    location    "0.05";
    object      phi;
}
// * * * * * * * * * * * * * * * * * * * * * * * * * * * * * * * * * * * * * //

dimensions      [0 3 -1 0 0 0 0];

internalField   nonuniform List<scalar> 
9850
(
7.60705e-07
6.71986e-06
7.14085e-07
6.76156e-06
6.65276e-07
6.82212e-06
6.15501e-07
6.90426e-06
5.66691e-07
7.01e-06
5.18627e-07
7.14842e-06
4.64193e-07
7.36173e-06
4.04795e-07
7.7104e-06
4.06066e-07
8.06137e-06
6.04751e-07
7.77386e-06
1.02367e-06
5.95303e-06
1.4623e-06
2.65364e-06
1.47605e-06
5.11673e-08
1.38767e-06
-1.12619e-06
1.29159e-06
-1.28199e-06
1.26556e-06
-1.36513e-06
1.29297e-06
-1.43991e-06
1.33338e-06
-1.47265e-06
1.36283e-06
-1.46419e-06
1.37776e-06
-1.44493e-06
1.38294e-06
-1.17471e-06
1.3852e-06
-1.12518e-06
1.38551e-06
-1.08392e-06
1.38359e-06
-1.04599e-06
1.3812e-06
-1.00707e-06
1.38289e-06
-9.61673e-07
1.39229e-06
-9.03697e-07
1.40568e-06
-8.26776e-07
1.4077e-06
-7.21199e-07
1.38628e-06
-5.83935e-07
1.38293e-06
-4.44854e-07
1.46324e-06
-2.54301e-07
1.70711e-06
4.25736e-07
1.99843e-06
1.09443e-06
2.2755e-06
1.68152e-06
2.49978e-06
2.12755e-06
2.65573e-06
2.39983e-06
2.74739e-06
2.51232e-06
2.79027e-06
2.50627e-06
2.80229e-06
2.42767e-06
2.79809e-06
2.31355e-06
2.78721e-06
2.18789e-06
2.77476e-06
2.06345e-06
2.76294e-06
1.94561e-06
2.75239e-06
1.83579e-06
2.74307e-06
1.7337e-06
2.73477e-06
1.63856e-06
2.72728e-06
1.54966e-06
2.72054e-06
1.46745e-06
1.41091e-06
7.87255e-07
6.76029e-06
7.45101e-07
6.80372e-06
7.01996e-07
6.86523e-06
6.59524e-07
6.94673e-06
6.1975e-07
7.04978e-06
5.82e-07
7.18617e-06
5.40485e-07
7.40325e-06
5.04184e-07
7.7467e-06
5.43803e-07
8.02175e-06
7.78109e-07
7.53955e-06
1.2002e-06
5.53094e-06
1.59102e-06
2.26282e-06
1.59431e-06
4.7882e-08
1.36214e-06
-8.94028e-07
1.25706e-06
-1.17691e-06
1.25878e-06
-1.36684e-06
1.30061e-06
-1.48174e-06
1.34013e-06
-1.51217e-06
1.36388e-06
-1.48794e-06
1.37353e-06
-1.45458e-06
1.37563e-06
-1.17682e-06
1.37642e-06
-1.12597e-06
1.376e-06
-1.0835e-06
1.37079e-06
-1.04078e-06
1.35828e-06
-9.94562e-07
1.34317e-06
-9.46562e-07
1.33611e-06
-8.96644e-07
1.3435e-06
-8.34164e-07
1.35608e-06
-7.33774e-07
1.34885e-06
-5.76709e-07
1.3807e-06
-4.767e-07
1.41355e-06
-2.87152e-07
1.59848e-06
2.40802e-07
1.84712e-06
8.45791e-07
2.0973e-06
1.43133e-06
2.31163e-06
1.91321e-06
2.47143e-06
2.24003e-06
2.57447e-06
2.40928e-06
2.63016e-06
2.45058e-06
2.6527e-06
2.40513e-06
2.65553e-06
2.31071e-06
2.64862e-06
2.1948e-06
2.63805e-06
2.07402e-06
2.62693e-06
1.95673e-06
2.61652e-06
1.84619e-06
2.60714e-06
1.74308e-06
2.59872e-06
1.64698e-06
2.59107e-06
1.55732e-06
2.58405e-06
1.47446e-06
1.41829e-06
8.14142e-07
6.7973e-06
7.76058e-07
6.8418e-06
7.38102e-07
6.90318e-06
7.02092e-07
6.98274e-06
6.70003e-07
7.08187e-06
6.40633e-07
7.21554e-06
6.09836e-07
7.43404e-06
5.92746e-07
7.76379e-06
6.58972e-07
7.95552e-06
9.04421e-07
7.2941e-06
1.32922e-06
5.10615e-06
1.62529e-06
1.96675e-06
1.75126e-06
-7.80873e-08
1.36447e-06
-5.07242e-07
1.27248e-06
-1.08491e-06
1.3013e-06
-1.39567e-06
1.34242e-06
-1.52286e-06
1.36462e-06
-1.53437e-06
1.37225e-06
-1.49558e-06
1.37104e-06
-1.45338e-06
1.36688e-06
-1.17265e-06
1.3646e-06
-1.12369e-06
1.36531e-06
-1.08422e-06
1.36225e-06
-1.03772e-06
1.34375e-06
-9.76058e-07
1.3079e-06
-9.10716e-07
1.27293e-06
-8.61674e-07
1.26768e-06
-8.2891e-07
1.30173e-06
-7.67824e-07
1.37432e-06
-6.49298e-07
1.46494e-06
-5.67318e-07
1.49177e-06
-3.13979e-07
1.59944e-06
1.33129e-07
1.77878e-06
6.66448e-07
1.9786e-06
1.23152e-06
2.16394e-06
1.72787e-06
2.31159e-06
2.09239e-06
2.41395e-06
2.30692e-06
2.47477e-06
2.38975e-06
2.50384e-06
2.37606e-06
2.51216e-06
2.30239e-06
2.50893e-06
2.19803e-06
2.50045e-06
2.08251e-06
2.49035e-06
1.96683e-06
2.48038e-06
1.85616e-06
2.4712e-06
1.75226e-06
2.46292e-06
1.65526e-06
2.45541e-06
1.56483e-06
2.44852e-06
1.48135e-06
1.42531e-06
8.40959e-07
6.83121e-06
8.06603e-07
6.87616e-06
7.73165e-07
6.93662e-06
7.42583e-07
7.01332e-06
7.16657e-07
7.10779e-06
6.93789e-07
7.23841e-06
6.71619e-07
7.45621e-06
6.69977e-07
7.76543e-06
7.5436e-07
7.87114e-06
9.99218e-07
7.04925e-06
1.3795e-06
4.72587e-06
1.72306e-06
1.62318e-06
1.92861e-06
-2.83635e-07
1.50858e-06
-8.72155e-08
1.40054e-06
-9.76867e-07
1.41568e-06
-1.41082e-06
1.41904e-06
-1.52622e-06
1.4035e-06
-1.51883e-06
1.38775e-06
-1.47983e-06
1.37249e-06
-1.43812e-06
1.35927e-06
-1.15943e-06
1.35138e-06
-1.1158e-06
1.35522e-06
-1.08806e-06
1.36577e-06
-1.04826e-06
1.36078e-06
-9.7107e-07
1.32448e-06
-8.74418e-07
1.28013e-06
-8.17318e-07
1.27324e-06
-8.22023e-07
1.35119e-06
-8.4578e-07
1.47773e-06
-7.75836e-07
1.57135e-06
-6.60935e-07
1.66755e-06
-4.10181e-07
1.71436e-06
8.63194e-08
1.78841e-06
5.92396e-07
1.91242e-06
1.10751e-06
2.05039e-06
1.5899e-06
2.17256e-06
1.97022e-06
2.26437e-06
2.21511e-06
2.32358e-06
2.33054e-06
2.35526e-06
2.34438e-06
2.36731e-06
2.29035e-06
2.36732e-06
2.19802e-06
2.36112e-06
2.08872e-06
2.35241e-06
1.97554e-06
2.34323e-06
1.86533e-06
2.3345e-06
1.76099e-06
2.32651e-06
1.66326e-06
2.31921e-06
1.57212e-06
2.31244e-06
1.48812e-06
1.43192e-06
8.67476e-07
6.8624e-06
8.36386e-07
6.90725e-06
8.06765e-07
6.96624e-06
7.80586e-07
7.0395e-06
7.59353e-07
7.12903e-06
7.41244e-07
7.25651e-06
7.2574e-07
7.47172e-06
7.36261e-07
7.75491e-06
8.34421e-07
7.77298e-06
1.07616e-06
6.80751e-06
1.41286e-06
4.38917e-06
1.74085e-06
1.29519e-06
1.80266e-06
-3.45447e-07
1.70277e-06
1.26801e-08
1.61019e-06
-8.84284e-07
1.56312e-06
-1.36375e-06
1.49917e-06
-1.46227e-06
1.4391e-06
-1.45875e-06
1.40447e-06
-1.4452e-06
1.37972e-06
-1.41337e-06
1.35792e-06
-1.13763e-06
1.34232e-06
-1.10021e-06
1.34787e-06
-1.09361e-06
1.37823e-06
-1.07862e-06
1.40532e-06
-9.98154e-07
1.39949e-06
-8.68587e-07
1.38454e-06
-8.02369e-07
1.42518e-06
-8.62668e-07
1.5082e-06
-9.28798e-07
1.5137e-06
-7.81331e-07
1.52849e-06
-6.75725e-07
1.68492e-06
-5.66618e-07
1.73636e-06
3.48851e-08
1.77624e-06
5.52512e-07
1.84884e-06
1.03491e-06
1.9442e-06
1.49454e-06
2.03989e-06
1.87453e-06
2.11828e-06
2.13672e-06
2.17292e-06
2.2759e-06
2.2051e-06
2.3122e-06
2.21982e-06
2.27563e-06
2.22289e-06
2.19494e-06
2.21928e-06
2.09233e-06
2.21249e-06
1.98233e-06
2.20463e-06
1.87319e-06
2.19681e-06
1.76882e-06
2.18946e-06
1.67061e-06
2.18264e-06
1.57894e-06
2.17562e-06
1.49514e-06
1.44044e-06
8.93539e-07
6.89123e-06
8.65192e-07
6.93559e-06
8.38649e-07
6.99279e-06
8.1583e-07
7.06232e-06
7.97864e-07
7.14699e-06
7.82873e-07
7.2715e-06
7.72032e-07
7.48256e-06
7.90617e-07
7.73632e-06
8.95252e-07
7.66834e-06
1.11878e-06
6.58399e-06
1.39089e-06
4.11706e-06
1.52928e-06
1.1568e-06
1.5018e-06
-3.17973e-07
1.63369e-06
-1.19204e-07
1.68584e-06
-9.3644e-07
1.62538e-06
-1.30328e-06
1.52199e-06
-1.35888e-06
1.44829e-06
-1.38506e-06
1.41609e-06
-1.41299e-06
1.39325e-06
-1.39053e-06
1.36823e-06
-1.11261e-06
1.34607e-06
-1.07805e-06
1.34661e-06
-1.09415e-06
1.38337e-06
-1.11539e-06
1.43096e-06
-1.04573e-06
1.45068e-06
-8.8831e-07
1.46434e-06
-8.16031e-07
1.49232e-06
-8.90653e-07
1.67643e-06
-1.11291e-06
1.59469e-06
-6.9959e-07
1.43901e-06
-5.20045e-07
1.43217e-06
-5.59775e-07
1.58701e-06
-1.19958e-07
1.68071e-06
4.58812e-07
1.74894e-06
9.66688e-07
1.82506e-06
1.41842e-06
1.90249e-06
1.7971e-06
1.96981e-06
2.06941e-06
2.02003e-06
2.22568e-06
2.05225e-06
2.27998e-06
2.06932e-06
2.25855e-06
2.0755e-06
2.18876e-06
2.07486e-06
2.09297e-06
2.07054e-06
1.98665e-06
2.06464e-06
1.87909e-06
2.05836e-06
1.77509e-06
2.0523e-06
1.67667e-06
2.04648e-06
1.58476e-06
2.03964e-06
1.50199e-06
1.45013e-06
9.19026e-07
6.918e-06
8.92906e-07
6.96171e-06
8.6873e-07
7.01696e-06
8.48253e-07
7.08279e-06
8.32167e-07
7.16308e-06
8.18625e-07
7.28505e-06
8.10132e-07
7.49105e-06
8.32449e-07
7.71401e-06
9.35674e-07
7.56512e-06
1.13678e-06
6.38288e-06
1.3611e-06
3.89274e-06
1.38011e-06
1.13778e-06
1.34606e-06
-2.83915e-07
1.51447e-06
-2.87619e-07
1.50842e-06
-9.30387e-07
1.52332e-06
-1.31818e-06
1.46681e-06
-1.30237e-06
1.43008e-06
-1.34833e-06
1.42148e-06
-1.40439e-06
1.41031e-06
-1.37936e-06
1.3911e-06
-1.0934e-06
1.3699e-06
-1.05685e-06
1.36066e-06
-1.08491e-06
1.37466e-06
-1.12939e-06
1.39323e-06
-1.06431e-06
1.38169e-06
-8.76764e-07
1.38411e-06
-8.1845e-07
1.37101e-06
-8.77553e-07
1.31138e-06
-1.05328e-06
1.41705e-06
-8.05258e-07
1.49417e-06
-5.97172e-07
1.44068e-06
-5.06282e-07
1.51626e-06
-1.95539e-07
1.5956e-06
3.79472e-07
1.65366e-06
9.08629e-07
1.70947e-06
1.36261e-06
1.76838e-06
1.73819e-06
1.82347e-06
2.01431e-06
1.8678e-06
2.18135e-06
1.89876e-06
2.24902e-06
1.9173e-06
2.24001e-06
1.92616e-06
2.17991e-06
1.92839e-06
2.09074e-06
1.92663e-06
1.98841e-06
1.92277e-06
1.88294e-06
1.91801e-06
1.77986e-06
1.91291e-06
1.68177e-06
1.90738e-06
1.59029e-06
1.90025e-06
1.50912e-06
1.459e-06
9.43881e-07
6.94306e-06
9.195e-07
6.98609e-06
8.97023e-07
7.03944e-06
8.77956e-07
7.10186e-06
8.62496e-07
7.17854e-06
8.48748e-07
7.29879e-06
8.40289e-07
7.49951e-06
8.62622e-07
7.69168e-06
9.59625e-07
7.46812e-06
1.14058e-06
6.20193e-06
1.31963e-06
3.71369e-06
1.30285e-06
1.15456e-06
1.20037e-06
-1.8144e-07
1.38717e-06
-4.74419e-07
1.37365e-06
-9.16867e-07
1.40284e-06
-1.34737e-06
1.40828e-06
-1.30781e-06
1.4119e-06
-1.35195e-06
1.42135e-06
-1.41384e-06
1.42226e-06
-1.38026e-06
1.42003e-06
-1.09116e-06
1.42087e-06
-1.05769e-06
1.41225e-06
-1.0763e-06
1.38681e-06
-1.10394e-06
1.33058e-06
-1.00809e-06
1.27076e-06
-8.16942e-07
1.12237e-06
-6.70056e-07
1.21275e-06
-9.67931e-07
1.23351e-06
-1.07405e-06
1.30542e-06
-8.77163e-07
1.37879e-06
-6.70543e-07
1.40971e-06
-5.37208e-07
1.41612e-06
-2.01943e-07
1.49138e-06
3.04212e-07
1.54798e-06
8.52029e-07
1.59208e-06
1.3185e-06
1.63701e-06
1.69327e-06
1.68053e-06
1.97078e-06
1.71804e-06
2.14385e-06
1.74648e-06
2.22057e-06
1.76546e-06
2.22103e-06
1.77633e-06
2.16904e-06
1.78117e-06
2.0859e-06
1.782e-06
1.98758e-06
1.78043e-06
1.88452e-06
1.77748e-06
1.7828e-06
1.7736e-06
1.68566e-06
1.76837e-06
1.59551e-06
1.76043e-06
1.51706e-06
1.46825e-06
9.68118e-07
6.96674e-06
9.45034e-07
7.00918e-06
9.23653e-07
7.06082e-06
9.05173e-07
7.12034e-06
8.89265e-07
7.19445e-06
8.73886e-07
7.31417e-06
8.63454e-07
7.50994e-06
8.83436e-07
7.67169e-06
9.73979e-07
7.37757e-06
1.14315e-06
6.03276e-06
1.28604e-06
3.5708e-06
1.29464e-06
1.14596e-06
1.30262e-06
-1.89415e-07
1.40934e-06
-5.81147e-07
1.36965e-06
-8.77172e-07
1.30523e-06
-1.28295e-06
1.41105e-06
-1.41363e-06
1.40686e-06
-1.34776e-06
1.40458e-06
-1.41156e-06
1.41639e-06
-1.39207e-06
1.44573e-06
-1.1205e-06
1.49117e-06
-1.10313e-06
1.52764e-06
-1.11277e-06
1.47632e-06
-1.05262e-06
1.40305e-06
-9.34818e-07
1.37883e-06
-7.92724e-07
1.45024e-06
-7.41463e-07
1.42528e-06
-9.42977e-07
1.36984e-06
-1.0186e-06
1.37304e-06
-8.80362e-07
1.40626e-06
-7.03763e-07
1.38978e-06
-5.20727e-07
1.39109e-06
-2.03255e-07
1.41177e-06
2.83526e-07
1.44531e-06
8.18497e-07
1.47497e-06
1.28884e-06
1.50688e-06
1.66136e-06
1.53965e-06
1.93801e-06
1.57029e-06
2.11321e-06
1.59568e-06
2.19518e-06
1.61449e-06
2.20223e-06
1.62697e-06
2.15655e-06
1.63431e-06
2.07857e-06
1.63791e-06
1.98398e-06
1.63902e-06
1.88341e-06
1.63845e-06
1.78337e-06
1.63627e-06
1.68784e-06
1.63145e-06
1.60032e-06
1.62219e-06
1.52632e-06
1.47912e-06
9.91812e-07
6.98932e-06
9.69644e-07
7.03135e-06
9.48847e-07
7.08162e-06
9.3026e-07
7.13893e-06
9.1302e-07
7.21169e-06
8.94883e-07
7.33231e-06
8.80974e-07
7.52385e-06
8.97521e-07
7.65515e-06
9.84204e-07
7.29089e-06
1.14479e-06
5.87217e-06
1.25493e-06
3.46066e-06
1.25135e-06
1.14954e-06
1.27916e-06
-2.17228e-07
1.30552e-06
-6.07509e-07
1.35349e-06
-9.25136e-07
1.41374e-06
-1.34321e-06
1.48797e-06
-1.48785e-06
1.39311e-06
-1.2529e-06
1.35212e-06
-1.37058e-06
1.38456e-06
-1.42451e-06
1.47179e-06
-1.20772e-06
1.58421e-06
-1.21555e-06
1.64864e-06
-1.17721e-06
1.57769e-06
-9.81663e-07
1.49526e-06
-8.52387e-07
1.47097e-06
-7.6844e-07
1.51539e-06
-7.85882e-07
1.49272e-06
-9.20306e-07
1.43742e-06
-9.63304e-07
1.4279e-06
-8.70835e-07
1.43611e-06
-7.11981e-07
1.40989e-06
-4.94505e-07
1.37737e-06
-1.70733e-07
1.353e-06
3.07901e-07
1.35031e-06
8.21178e-07
1.36083e-06
1.27832e-06
1.37791e-06
1.64429e-06
1.40034e-06
1.91558e-06
1.42434e-06
2.08922e-06
1.44657e-06
2.17294e-06
1.46493e-06
2.18387e-06
1.47873e-06
2.14276e-06
1.48831e-06
2.06899e-06
1.4945e-06
1.97779e-06
1.49814e-06
1.87977e-06
1.4997e-06
1.7818e-06
1.49887e-06
1.68867e-06
1.49428e-06
1.60491e-06
1.48472e-06
1.53588e-06
1.48938e-06
1.01508e-06
7.01102e-06
9.93521e-07
7.0529e-06
9.72896e-07
7.10224e-06
9.53657e-07
7.15817e-06
9.34402e-07
7.23094e-06
9.12716e-07
7.354e-06
8.94457e-07
7.54211e-06
9.06886e-07
7.64272e-06
9.89423e-07
7.20835e-06
1.13163e-06
5.72996e-06
1.2283e-06
3.364e-06
1.25899e-06
1.11885e-06
1.25143e-06
-2.09671e-07
1.25978e-06
-6.15857e-07
1.28301e-06
-9.48366e-07
1.27042e-06
-1.33062e-06
1.23018e-06
-1.44762e-06
1.26319e-06
-1.28591e-06
1.27796e-06
-1.38534e-06
1.33616e-06
-1.48272e-06
1.43208e-06
-1.30364e-06
1.50903e-06
-1.2925e-06
1.51816e-06
-1.18634e-06
1.5013e-06
-9.64799e-07
1.46627e-06
-8.1736e-07
1.4886e-06
-7.90773e-07
1.52305e-06
-8.20336e-07
1.49891e-06
-8.96158e-07
1.45137e-06
-9.15767e-07
1.4261e-06
-8.45571e-07
1.40978e-06
-6.95652e-07
1.37159e-06
-4.56318e-07
1.29905e-06
-9.81914e-08
1.25875e-06
3.48193e-07
1.24113e-06
8.38806e-07
1.23969e-06
1.27975e-06
1.24719e-06
1.63679e-06
1.2621e-06
1.90067e-06
1.28103e-06
2.07029e-06
1.3007e-06
2.15327e-06
1.31861e-06
2.16596e-06
1.33343e-06
2.12794e-06
1.34484e-06
2.05758e-06
1.35312e-06
1.96952e-06
1.35866e-06
1.87423e-06
1.36158e-06
1.77888e-06
1.36132e-06
1.68894e-06
1.35682e-06
1.60941e-06
1.34822e-06
1.54448e-06
1.49729e-06
1.03807e-06
7.03203e-06
1.01689e-06
7.07408e-06
9.96136e-07
7.123e-06
9.75862e-07
7.17844e-06
9.54157e-07
7.25265e-06
9.28534e-07
7.37962e-06
9.05746e-07
7.5649e-06
9.13994e-07
7.63447e-06
9.89755e-07
7.13259e-06
1.10993e-06
5.60979e-06
1.20449e-06
3.26944e-06
1.25678e-06
1.06656e-06
1.18518e-06
-1.38067e-07
1.19837e-06
-6.29056e-07
1.16675e-06
-9.16743e-07
1.06073e-06
-1.2246e-06
9.54369e-07
-1.34125e-06
9.72102e-07
-1.30364e-06
1.03873e-06
-1.45197e-06
1.14405e-06
-1.58804e-06
1.23542e-06
-1.395e-06
1.31811e-06
-1.37519e-06
1.37611e-06
-1.24435e-06
1.4351e-06
-1.02379e-06
1.49068e-06
-8.72936e-07
1.52459e-06
-8.24682e-07
1.53971e-06
-8.35459e-07
1.50632e-06
-8.62764e-07
1.44646e-06
-8.55909e-07
1.38681e-06
-7.8592e-07
1.32908e-06
-6.37923e-07
1.26474e-06
-3.91976e-07
1.20623e-06
-3.9686e-08
1.15218e-06
4.02243e-07
1.12814e-06
8.6285e-07
1.11954e-06
1.28835e-06
1.1207e-06
1.63563e-06
1.1299e-06
1.89148e-06
1.14482e-06
2.05536e-06
1.16227e-06
2.13582e-06
1.17955e-06
2.14868e-06
1.19492e-06
2.11257e-06
1.20756e-06
2.04493e-06
1.21728e-06
1.9598e-06
1.22405e-06
1.86746e-06
1.22761e-06
1.77532e-06
1.22737e-06
1.68917e-06
1.22294e-06
1.61385e-06
1.21558e-06
1.55183e-06
1.5032e-06
1.06096e-06
7.05246e-06
1.04001e-06
7.09502e-06
1.01894e-06
7.14408e-06
9.97414e-07
7.19996e-06
9.73114e-07
7.27695e-06
9.43623e-07
7.40911e-06
9.16551e-07
7.59197e-06
9.20208e-07
7.63081e-06
9.85405e-07
7.06739e-06
1.09551e-06
5.49968e-06
1.19715e-06
3.1678e-06
1.22501e-06
1.0387e-06
1.17785e-06
-9.09122e-08
1.10222e-06
-5.53425e-07
1.00821e-06
-8.22729e-07
8.53418e-07
-1.06981e-06
7.23745e-07
-1.21158e-06
7.23001e-07
-1.3029e-06
7.88961e-07
-1.51793e-06
9.41118e-07
-1.7402e-06
1.0804e-06
-1.53428e-06
1.19148e-06
-1.48627e-06
1.28846e-06
-1.34133e-06
1.40231e-06
-1.13764e-06
1.50448e-06
-9.75109e-07
1.56331e-06
-8.83511e-07
1.57046e-06
-8.42611e-07
1.52707e-06
-8.19365e-07
1.45098e-06
-7.79822e-07
1.362e-06
-6.96942e-07
1.27092e-06
-5.46846e-07
1.18432e-06
-3.05371e-07
1.11592e-06
2.87066e-08
1.06438e-06
4.53782e-07
1.03118e-06
8.96052e-07
1.01413e-06
1.3054e-06
1.00829e-06
1.64146e-06
1.01177e-06
1.888e-06
1.02235e-06
2.04478e-06
1.03696e-06
2.12121e-06
1.05277e-06
2.13286e-06
1.06775e-06
2.09759e-06
1.08068e-06
2.032e-06
1.09093e-06
1.94955e-06
1.09808e-06
1.86031e-06
1.1016e-06
1.7718e-06
1.10097e-06
1.6898e-06
1.09641e-06
1.61841e-06
1.08983e-06
1.55841e-06
1.50796e-06
1.08392e-06
7.07236e-06
1.06315e-06
7.1158e-06
1.04168e-06
7.16555e-06
1.01887e-06
7.22277e-06
9.92102e-07
7.30372e-06
9.59222e-07
7.44199e-06
9.28538e-07
7.62265e-06
9.2777e-07
7.63158e-06
9.85733e-07
7.00943e-06
1.09656e-06
5.38885e-06
1.20244e-06
3.06193e-06
1.19826e-06
1.04288e-06
1.13799e-06
-3.06447e-08
1.00245e-06
-4.17883e-07
8.64511e-07
-6.84789e-07
7.11719e-07
-9.17019e-07
6.07265e-07
-1.10713e-06
6.08607e-07
-1.30424e-06
6.91909e-07
-1.60123e-06
8.66479e-07
-1.91477e-06
1.02532e-06
-1.69312e-06
1.1615e-06
-1.62245e-06
1.28611e-06
-1.46594e-06
1.41475e-06
-1.26629e-06
1.52392e-06
-1.08428e-06
1.58696e-06
-9.46552e-07
1.59313e-06
-8.48772e-07
1.54647e-06
-7.72711e-07
1.46262e-06
-6.95972e-07
1.36031e-06
-5.94631e-07
1.2539e-06
-4.40435e-07
1.15443e-06
-2.05905e-07
1.06328e-06
1.1986e-07
1.00097e-06
5.16094e-07
9.58237e-07
9.38783e-07
9.31171e-07
1.33247e-06
9.16942e-07
1.65569e-06
9.13508e-07
1.89144e-06
9.1852e-07
2.03977e-06
9.28992e-07
2.11074e-06
9.41981e-07
2.11987e-06
9.55198e-07
2.08438e-06
9.67103e-07
2.0201e-06
9.7669e-07
1.93996e-06
9.83173e-07
1.85383e-06
9.85831e-07
1.76914e-06
9.84299e-07
1.69134e-06
9.79304e-07
1.6234e-06
9.731e-07
1.56461e-06
1.51205e-06
1.10715e-06
7.09173e-06
1.08656e-06
7.13639e-06
1.06474e-06
7.18737e-06
1.04076e-06
7.24676e-06
1.01187e-06
7.3326e-06
9.76286e-07
7.47757e-06
9.42733e-07
7.65621e-06
9.37907e-07
7.63641e-06
9.90996e-07
6.95634e-06
1.10022e-06
5.27963e-06
1.18055e-06
2.9816e-06
1.13115e-06
1.09228e-06
1.02359e-06
7.69228e-08
8.97994e-07
-2.9229e-07
7.70691e-07
-5.57486e-07
6.56293e-07
-8.02622e-07
5.93906e-07
-1.04474e-06
6.10331e-07
-1.32066e-06
7.04734e-07
-1.69564e-06
8.91388e-07
-2.10142e-06
1.05749e-06
-1.85922e-06
1.20188e-06
-1.76684e-06
1.33013e-06
-1.59419e-06
1.44847e-06
-1.38463e-06
1.54311e-06
-1.17892e-06
1.59624e-06
-9.99675e-07
1.59865e-06
-8.51189e-07
1.55249e-06
-7.26553e-07
1.46903e-06
-6.12508e-07
1.3636e-06
-4.89199e-07
1.25065e-06
-3.27489e-07
1.13984e-06
-9.5093e-08
1.04268e-06
2.17018e-07
9.67807e-07
5.90969e-07
9.10781e-07
9.9581e-07
8.7136e-07
1.37189e-06
8.47288e-07
1.67976e-06
8.35793e-07
1.90293e-06
8.34118e-07
2.04144e-06
8.39182e-07
2.10568e-06
8.47985e-07
2.11107e-06
8.58063e-07
2.0743e-06
8.67602e-07
2.01056e-06
8.75263e-07
1.9323e-06
8.79961e-07
1.84913e-06
8.80883e-07
1.76822e-06
8.7791e-07
1.69431e-06
8.7219e-07
1.62912e-06
8.66095e-07
1.57071e-06
1.51574e-06
1.13082e-06
7.11052e-06
1.1105e-06
7.15671e-06
1.08845e-06
7.20941e-06
1.06354e-06
7.27167e-06
1.033e-06
7.36314e-06
9.95435e-07
7.51514e-06
9.59583e-07
7.69206e-06
9.50403e-07
7.64559e-06
9.9339e-07
6.91335e-06
1.07307e-06
5.19995e-06
1.11027e-06
2.9444e-06
1.04159e-06
1.16095e-06
9.07591e-07
2.1092e-07
8.19988e-07
-2.04687e-07
7.31689e-07
-4.69187e-07
6.64123e-07
-7.35056e-07
6.34506e-07
-1.01512e-06
6.6576e-07
-1.35192e-06
7.72418e-07
-1.8023e-06
9.67922e-07
-2.29693e-06
1.13237e-06
-2.02367e-06
1.27237e-06
-1.90684e-06
1.39077e-06
-1.71259e-06
1.48988e-06
-1.48374e-06
1.56258e-06
-1.25161e-06
1.59907e-06
-1.03616e-06
1.59363e-06
-8.45752e-07
1.54712e-06
-6.80044e-07
1.46665e-06
-5.32041e-07
1.36307e-06
-3.8562e-07
1.24907e-06
-2.13483e-07
1.13821e-06
1.57611e-08
1.03202e-06
3.23215e-07
9.49836e-07
6.73149e-07
8.78624e-07
1.06702e-06
8.28003e-07
1.42251e-06
7.94514e-07
1.71325e-06
7.74878e-07
1.92257e-06
7.66065e-07
2.05026e-06
7.6498e-07
2.10676e-06
7.68636e-07
2.10741e-06
7.74475e-07
2.06846e-06
7.80466e-07
2.00457e-06
7.8499e-07
1.92778e-06
7.86752e-07
1.84737e-06
7.84974e-07
1.77e-06
7.7985e-07
1.69943e-06
7.72873e-07
1.6361e-06
7.66387e-07
1.57719e-06
1.51939e-06
1.15509e-06
7.12864e-06
1.13517e-06
7.17663e-06
1.11311e-06
7.23148e-06
1.0876e-06
7.29718e-06
1.05597e-06
7.39477e-06
1.01716e-06
7.55394e-06
9.79639e-07
7.72958e-06
9.65158e-07
7.66007e-06
9.90833e-07
6.88768e-06
1.0241e-06
5.16668e-06
1.03028e-06
2.93822e-06
9.71095e-07
1.22014e-06
8.55539e-07
3.26476e-07
7.8553e-07
-1.34678e-07
7.274e-07
-4.11056e-07
6.87216e-07
-6.94872e-07
6.67927e-07
-9.95834e-07
7.05609e-07
-1.3896e-06
8.62252e-07
-1.95894e-06
1.07413e-06
-2.5088e-06
1.22668e-06
-2.17622e-06
1.35315e-06
-2.03331e-06
1.45599e-06
-1.81543e-06
1.53461e-06
-1.56235e-06
1.58521e-06
-1.30222e-06
1.60354e-06
-1.05449e-06
1.58742e-06
-8.29633e-07
1.53795e-06
-6.30572e-07
1.45907e-06
-4.53163e-07
1.35699e-06
-2.83547e-07
1.24011e-06
-9.65972e-08
1.11794e-06
1.3793e-07
1.00739e-06
4.33761e-07
9.12209e-07
7.68336e-07
8.44348e-07
1.13488e-06
7.90841e-07
1.47602e-06
7.51488e-07
1.75261e-06
7.25059e-07
1.949e-06
7.0947e-07
2.06585e-06
7.02092e-07
2.11414e-06
7.00158e-07
2.10935e-06
7.01122e-07
2.0675e-06
7.02811e-07
2.00288e-06
7.03414e-07
1.92718e-06
7.01563e-07
1.84922e-06
6.96652e-07
1.77491e-06
6.89219e-07
1.70687e-06
6.80963e-07
1.64436e-06
6.74027e-07
1.58413e-06
1.5231e-06
1.18009e-06
7.14593e-06
1.16077e-06
7.19595e-06
1.13896e-06
7.2533e-06
1.11327e-06
7.32287e-06
1.08118e-06
7.42686e-06
1.04202e-06
7.5931e-06
1.00396e-06
7.76764e-06
9.85245e-07
7.67878e-06
9.96168e-07
6.87676e-06
1.01501e-06
5.14784e-06
1.01208e-06
2.94115e-06
9.62098e-07
1.27012e-06
8.68207e-07
4.20367e-07
7.79351e-07
-4.5822e-08
7.17846e-07
-3.49552e-07
6.94684e-07
-6.71709e-07
6.4727e-07
-9.4842e-07
7.2726e-07
-1.46959e-06
9.95077e-07
-2.22676e-06
1.1966e-06
-2.71033e-06
1.32687e-06
-2.30649e-06
1.43456e-06
-2.141e-06
1.52014e-06
-1.90102e-06
1.57966e-06
-1.62187e-06
1.61057e-06
-1.33312e-06
1.61206e-06
-1.05599e-06
1.58486e-06
-8.0243e-07
1.53096e-06
-5.76673e-07
1.4534e-06
-3.75605e-07
1.35624e-06
-1.86386e-07
1.24513e-06
1.45117e-08
1.12894e-06
2.54125e-07
1.01713e-06
5.45564e-07
9.09787e-07
8.75683e-07
8.28829e-07
1.21584e-06
7.65996e-07
1.53885e-06
7.17999e-07
1.8006e-06
6.83484e-07
1.98351e-06
6.60467e-07
2.08886e-06
6.46405e-07
2.1282e-06
6.38552e-07
2.1172e-06
6.34287e-07
2.07176e-06
6.31273e-07
2.0059e-06
6.27566e-07
1.93088e-06
6.21834e-07
1.85495e-06
6.13723e-07
1.78302e-06
6.04067e-07
1.71652e-06
5.94619e-07
1.6538e-06
5.87237e-07
1.59151e-06
1.52687e-06
1.20595e-06
7.16223e-06
1.18745e-06
7.21445e-06
1.16621e-06
7.27454e-06
1.1408e-06
7.34827e-06
1.10897e-06
7.45869e-06
1.07049e-06
7.63159e-06
1.03337e-06
7.80476e-06
1.01388e-06
7.69828e-06
1.02131e-06
6.86932e-06
1.05267e-06
5.11648e-06
1.03524e-06
2.95858e-06
9.66275e-07
1.33909e-06
8.61263e-07
5.2538e-07
7.69342e-07
4.60992e-08
7.14142e-07
-2.94352e-07
7.26894e-07
-6.84462e-07
7.63799e-07
-9.85325e-07
8.78334e-07
-1.58412e-06
1.15377e-06
-2.50219e-06
1.31386e-06
-2.87041e-06
1.41721e-06
-2.40984e-06
1.50763e-06
-2.23142e-06
1.57779e-06
-1.97118e-06
1.62076e-06
-1.66485e-06
1.63494e-06
-1.3473e-06
1.62193e-06
-1.04297e-06
1.58454e-06
-7.65039e-07
1.52583e-06
-5.17962e-07
1.44871e-06
-2.98489e-07
1.35655e-06
-9.42249e-08
1.25403e-06
1.17039e-07
1.14636e-06
3.6179e-07
1.03733e-06
6.54592e-07
9.20748e-07
9.92267e-07
8.25586e-07
1.311e-06
7.48883e-07
1.61555e-06
6.89382e-07
1.8601e-06
6.45297e-07
2.0276e-06
6.14203e-07
2.11996e-06
5.93251e-07
2.14915e-06
5.79469e-07
2.13098e-06
5.70028e-07
2.0812e-06
5.62415e-07
2.01351e-06
5.54642e-07
1.93866e-06
5.45562e-07
1.86403e-06
5.35178e-07
1.7934e-06
5.24607e-07
1.72709e-06
5.15541e-07
1.66287e-06
5.09366e-07
1.59768e-06
1.52976e-06
1.23275e-06
7.17734e-06
1.21532e-06
7.23188e-06
1.19499e-06
7.29488e-06
1.17036e-06
7.3729e-06
1.13948e-06
7.48958e-06
1.10259e-06
7.66848e-06
1.06741e-06
7.83993e-06
1.04893e-06
7.71676e-06
1.05742e-06
6.86083e-06
1.07896e-06
5.09494e-06
1.03265e-06
3.0049e-06
9.00384e-07
1.47135e-06
8.03901e-07
6.21863e-07
6.6096e-07
1.89039e-07
6.89962e-07
-3.23354e-07
7.79714e-07
-7.74213e-07
9.33977e-07
-1.13959e-06
1.17035e-06
-1.8205e-06
1.31215e-06
-2.64399e-06
1.40368e-06
-2.96194e-06
1.4855e-06
-2.49166e-06
1.56535e-06
-2.31126e-06
1.62411e-06
-2.02995e-06
1.65341e-06
-1.69415e-06
1.65373e-06
-1.34762e-06
1.62874e-06
-1.01798e-06
1.5826e-06
-7.18899e-07
1.51874e-06
-4.54108e-07
1.43975e-06
-2.19498e-07
1.34835e-06
-2.82467e-09
1.24809e-06
2.173e-07
1.14353e-06
4.66349e-07
1.03131e-06
7.66809e-07
9.18362e-07
1.10522e-06
8.13067e-07
1.4163e-06
7.24808e-07
1.70381e-06
6.55006e-07
1.92991e-06
6.02274e-07
2.08033e-06
5.63957e-07
2.15828e-06
5.36904e-07
2.17621e-06
5.17872e-07
2.15001e-06
5.03795e-07
2.09528e-06
4.92027e-07
2.02528e-06
4.80646e-07
1.95004e-06
4.68797e-07
1.87588e-06
4.56844e-07
1.80535e-06
4.46061e-07
1.73788e-06
4.37871e-07
1.67106e-06
4.32995e-07
1.60256e-06
1.53169e-06
1.26054e-06
7.19106e-06
1.24445e-06
7.24796e-06
1.22538e-06
7.31395e-06
1.20199e-06
7.39629e-06
1.17262e-06
7.51894e-06
1.13789e-06
7.70321e-06
1.10473e-06
7.87309e-06
1.08535e-06
7.73614e-06
1.08578e-06
6.8604e-06
1.07208e-06
5.10863e-06
1.02107e-06
3.05591e-06
9.13027e-07
1.57939e-06
7.89488e-07
7.45402e-07
7.00977e-07
2.7755e-07
8.14847e-07
-4.37224e-07
8.79041e-07
-8.38407e-07
1.07524e-06
-1.33579e-06
1.30396e-06
-2.04922e-06
1.37823e-06
-2.71825e-06
1.44207e-06
-3.02579e-06
1.52584e-06
-2.57542e-06
1.60557e-06
-2.391e-06
1.65614e-06
-2.08052e-06
1.67408e-06
-1.71209e-06
1.66298e-06
-1.33653e-06
1.6284e-06
-9.83393e-07
1.57529e-06
-6.65792e-07
1.50692e-06
-3.85734e-07
1.42504e-06
-1.37618e-07
1.33119e-06
9.10247e-08
1.22708e-06
3.21407e-07
1.11495e-06
5.7848e-07
1.00014e-06
8.8162e-07
8.87928e-07
1.21743e-06
7.78178e-07
1.52605e-06
6.83147e-07
1.79884e-06
6.06476e-07
2.00658e-06
5.47626e-07
2.13918e-06
5.04058e-07
2.20184e-06
4.72454e-07
2.20781e-06
4.49323e-07
2.17315e-06
4.31393e-07
2.11321e-06
4.1597e-07
2.0407e-06
4.01322e-07
1.96469e-06
3.86966e-07
1.89023e-06
3.73595e-07
1.81873e-06
3.6252e-07
1.74895e-06
3.54823e-07
1.67876e-06
3.50653e-07
1.60673e-06
1.5332e-06
1.28935e-06
7.20317e-06
1.27488e-06
7.26243e-06
1.25741e-06
7.33143e-06
1.23569e-06
7.418e-06
1.20835e-06
7.54628e-06
1.17617e-06
7.73539e-06
1.14507e-06
7.9042e-06
1.12359e-06
7.75762e-06
1.11071e-06
6.87328e-06
1.07842e-06
5.14092e-06
1.0286e-06
3.10573e-06
9.45925e-07
1.66207e-06
7.76584e-07
9.14744e-07
7.14797e-07
3.39337e-07
7.72916e-07
-4.95342e-07
9.01617e-07
-9.67108e-07
1.08725e-06
-1.52142e-06
1.25124e-06
-2.21322e-06
1.32513e-06
-2.79215e-06
1.43182e-06
-3.13247e-06
1.54768e-06
-2.69128e-06
1.63e-06
-2.47332e-06
1.67282e-06
-2.12334e-06
1.68046e-06
-1.71972e-06
1.65987e-06
-1.31594e-06
1.6179e-06
-9.41421e-07
1.55979e-06
-6.07681e-07
1.48838e-06
-3.14331e-07
1.40459e-06
-5.38195e-08
1.30942e-06
1.86188e-07
1.20534e-06
4.25484e-07
1.0906e-06
6.93228e-07
9.65404e-07
1.00681e-06
8.42851e-07
1.33998e-06
7.24944e-07
1.64396e-06
6.23781e-07
1.9e-06
5.4214e-07
2.08822e-06
4.79216e-07
2.2021e-06
4.32285e-07
2.24877e-06
3.97717e-07
2.24238e-06
3.71705e-07
2.19916e-06
3.50788e-07
2.13413e-06
3.32323e-07
2.05916e-06
3.1489e-07
1.98212e-06
2.98423e-07
1.9067e-06
2.83871e-07
1.83328e-06
2.72446e-07
1.76037e-06
2.64847e-07
1.68636e-06
2.60833e-07
1.61074e-06
1.53467e-06
1.31919e-06
7.21346e-06
1.30661e-06
7.27502e-06
1.29108e-06
7.34696e-06
1.27149e-06
7.43759e-06
1.24673e-06
7.57103e-06
1.21775e-06
7.76437e-06
1.1895e-06
7.93245e-06
1.16733e-06
7.77978e-06
1.14576e-06
6.89486e-06
1.1137e-06
5.17298e-06
1.05156e-06
3.16786e-06
9.08516e-07
1.80511e-06
7.47865e-07
1.0754e-06
7.83798e-07
3.03404e-07
7.89279e-07
-5.00824e-07
8.95331e-07
-1.07316e-06
1.0306e-06
-1.65669e-06
1.12948e-06
-2.31209e-06
1.23144e-06
-2.89411e-06
1.43012e-06
-3.33115e-06
1.56394e-06
-2.82511e-06
1.64159e-06
-2.55098e-06
1.67368e-06
-2.15542e-06
1.67121e-06
-1.71726e-06
1.64272e-06
-1.28744e-06
1.59527e-06
-8.93977e-07
1.53372e-06
-5.46126e-07
1.45992e-06
-2.40538e-07
1.37346e-06
3.26406e-08
1.27353e-06
2.86124e-07
1.16037e-06
5.38646e-07
1.03839e-06
8.1521e-07
9.08484e-07
1.13671e-06
7.76702e-07
1.47177e-06
6.53109e-07
1.76755e-06
5.47293e-07
2.00582e-06
4.62418e-07
2.17309e-06
3.97289e-07
2.26723e-06
3.4875e-07
2.29731e-06
3.12711e-07
2.27842e-06
2.84992e-07
2.22688e-06
2.61989e-07
2.15713e-06
2.41226e-07
2.07993e-06
2.21671e-07
2.00167e-06
2.03622e-07
1.92475e-06
1.88095e-07
1.84881e-06
1.76004e-07
1.77247e-06
1.67634e-07
1.69473e-06
1.62376e-07
1.616e-06
1.53724e-06
1.35004e-06
7.22169e-06
1.33961e-06
7.28544e-06
1.32638e-06
7.36019e-06
1.30937e-06
7.45461e-06
1.28783e-06
7.59257e-06
1.2629e-06
7.78931e-06
1.23837e-06
7.95698e-06
1.21636e-06
7.80178e-06
1.18848e-06
6.92274e-06
1.15249e-06
5.20897e-06
1.07166e-06
3.24869e-06
8.85106e-07
1.99167e-06
7.00442e-07
1.26006e-06
7.35529e-07
2.68316e-07
7.90025e-07
-5.5532e-07
8.3211e-07
-1.11525e-06
9.20319e-07
-1.7449e-06
1.05054e-06
-2.44231e-06
1.22392e-06
-3.06749e-06
1.45476e-06
-3.56199e-06
1.57528e-06
-2.94562e-06
1.63722e-06
-2.61292e-06
1.65698e-06
-2.17519e-06
1.64549e-06
-1.70577e-06
1.61084e-06
-1.25279e-06
1.55973e-06
-8.42871e-07
1.49619e-06
-4.82579e-07
1.42114e-06
-1.65487e-07
1.33345e-06
1.20328e-07
1.23158e-06
3.87994e-07
1.11516e-06
6.5507e-07
9.7585e-07
9.54516e-07
8.24704e-07
1.28786e-06
6.85979e-07
1.61049e-06
5.59642e-07
1.89389e-06
4.52615e-07
2.11285e-06
3.67336e-07
2.25837e-06
3.02435e-07
2.33213e-06
2.54306e-07
2.34544e-06
2.18388e-07
2.31433e-06
1.90194e-07
2.25507e-06
1.66122e-07
2.1812e-06
1.4399e-07
2.10206e-06
1.23145e-07
2.02252e-06
1.04063e-07
1.94383e-06
8.74093e-08
1.86546e-06
7.34455e-08
1.78643e-06
6.16027e-08
1.70657e-06
5.09205e-08
1.62668e-06
1.54626e-06
1.38185e-06
7.22766e-06
1.37385e-06
7.29344e-06
1.36325e-06
7.37079e-06
1.34925e-06
7.4686e-06
1.33151e-06
7.61032e-06
1.31131e-06
7.8095e-06
1.29111e-06
7.97719e-06
1.26993e-06
7.82296e-06
1.24044e-06
6.95223e-06
1.20996e-06
5.23945e-06
1.09383e-06
3.36482e-06
9.1389e-07
2.17161e-06
7.78168e-07
1.39578e-06
7.8622e-07
2.60264e-07
8.14866e-07
-5.83966e-07
8.21696e-07
-1.12207e-06
8.91313e-07
-1.81452e-06
1.04391e-06
-2.59491e-06
1.28973e-06
-3.31331e-06
1.46979e-06
-3.74204e-06
1.56396e-06
-3.03979e-06
1.60981e-06
-2.65876e-06
1.62108e-06
-2.18645e-06
1.60325e-06
-1.68795e-06
1.56443e-06
-1.21397e-06
1.51114e-06
-7.89574e-07
1.44623e-06