/*--------------------------------*- C++ -*----------------------------------*\
  =========                 |
  \\      /  F ield         | OpenFOAM: The Open Source CFD Toolbox
   \\    /   O peration     | Website:  https://openfoam.org
    \\  /    A nd           | Version:  9
     \\/     M anipulation  |
\*---------------------------------------------------------------------------*/
FoamFile
{
    format      ascii;
    class       volScalarField;
    location    "0.05";
    object      rAU;
}
// * * * * * * * * * * * * * * * * * * * * * * * * * * * * * * * * * * * * * //

dimensions      [-1 3 1 0 0 0 0];

internalField   nonuniform List<scalar> 
5000
(
3.02087e-05
3.02104e-05
3.0199e-05
3.01713e-05
3.01243e-05
3.00506e-05
2.99222e-05
2.96943e-05
2.94284e-05
2.94879e-05
2.97155e-05
3.04966e-05
2.13312e-06
4.94967e-08
3.56234e-08
3.56189e-08
3.55663e-08
3.55045e-08
3.54721e-08
3.54599e-08
3.51203e-08
3.50155e-08
3.49034e-08
3.47873e-08
3.46737e-08
3.45694e-08
3.44785e-08
3.44093e-08
3.44102e-08
4.04786e-08
2.34836e-07
1.59403e-05
2.30471e-05
2.69072e-05
2.68773e-05
2.58622e-05
2.49277e-05
2.4227e-05
2.37198e-05
2.33308e-05
2.29976e-05
2.26789e-05
2.23524e-05
2.20081e-05
2.16431e-05
2.12574e-05
2.08523e-05
2.04286e-05
1.99846e-05
2.11435e-05
3.01576e-05
3.01547e-05
3.01383e-05
3.01058e-05
3.00543e-05
2.99747e-05
2.98345e-05
2.95962e-05
2.93638e-05
2.95413e-05
2.97517e-05
3.09504e-05
3.18996e-06
5.47182e-08
3.57606e-08
3.56511e-08
3.55295e-08
3.54565e-08
3.54416e-08
3.54495e-08
3.51233e-08
3.5024e-08
3.4916e-08
3.48086e-08
3.47117e-08
3.46277e-08
3.45516e-08
3.44889e-08
3.4514e-08
4.45921e-08
4.29405e-07
1.7941e-05
2.33899e-05
2.76817e-05
2.75469e-05
2.64201e-05
2.53947e-05
2.45971e-05
2.40097e-05
2.3566e-05
2.32015e-05
2.28688e-05
2.25388e-05
2.21964e-05
2.18351e-05
2.14533e-05
2.10515e-05
2.06304e-05
2.01885e-05
2.1381e-05
3.01093e-05
3.01025e-05
3.00825e-05
3.00469e-05
2.9993e-05
2.99097e-05
2.97616e-05
2.95223e-05
2.93361e-05
2.96316e-05
3.04741e-05
3.18133e-05
6.65013e-06
6.93942e-08
3.59489e-08
3.56042e-08
3.54439e-08
3.53917e-08
3.54093e-08
3.54427e-08
3.51319e-08
3.50383e-08
3.49312e-08
3.48293e-08
3.47546e-08
3.47092e-08
3.46676e-08
3.46071e-08
3.47255e-08
5.98131e-08
2.37076e-06
2.14094e-05
2.46257e-05
2.81106e-05
2.81124e-05
2.69399e-05
2.5836e-05
2.4964e-05
2.43098e-05
2.38156e-05
2.34188e-05
2.30693e-05
2.27331e-05
2.23906e-05
2.2032e-05
2.16537e-05
2.1255e-05
2.08362e-05
2.03962e-05
2.16243e-05
3.00636e-05
3.00538e-05
3.00314e-05
2.99942e-05
2.99397e-05
2.98545e-05
2.97019e-05
2.94697e-05
2.93372e-05
2.97583e-05
3.04863e-05
3.1939e-05
2.44305e-05
1.10485e-07
3.65526e-08
3.54569e-08
3.53245e-08
3.53298e-08
3.53858e-08
3.54429e-08
3.5147e-08
3.50584e-08
3.49435e-08
3.48294e-08
3.47607e-08
3.47458e-08
3.47196e-08
3.46313e-08
3.68211e-08
1.28398e-07
1.06741e-05
2.41601e-05
2.81003e-05
2.782e-05
2.83492e-05
2.73667e-05
2.62327e-05
2.53145e-05
2.4611e-05
2.40747e-05
2.3648e-05
2.32808e-05
2.29365e-05
2.25922e-05
2.22351e-05
2.18596e-05
2.14639e-05
2.10477e-05
2.06098e-05
2.1876e-05
3.00205e-05
3.00085e-05
2.99846e-05
2.99471e-05
2.98934e-05
2.98078e-05
2.96538e-05
2.94351e-05
2.93608e-05
2.98797e-05
3.03927e-05
3.26552e-05
2.89823e-05
2.4131e-07
4.01273e-08
3.5293e-08
3.52392e-08
3.53082e-08
3.53839e-08
3.54514e-08
3.5166e-08
3.50807e-08
3.49471e-08
3.47957e-08
3.47036e-08
3.46887e-08
3.46293e-08
3.46231e-08
5.80258e-08
1.17238e-06
1.87115e-05
2.25385e-05
2.89619e-05
2.8189e-05
2.84634e-05
2.77033e-05
2.65943e-05
2.5652e-05
2.49133e-05
2.4343e-05
2.38895e-05
2.35047e-05
2.3151e-05
2.2803e-05
2.2446e-05
2.20722e-05
2.16787e-05
2.12644e-05
2.0828e-05
2.21357e-05
2.99797e-05
2.99662e-05
2.99417e-05
2.9905e-05
2.98531e-05
2.97682e-05
2.96156e-05
2.9416e-05
2.94037e-05
2.99662e-05
3.10865e-05
3.34159e-05
3.17094e-05
1.1236e-06
5.6832e-08
3.53415e-08
3.52797e-08
3.53574e-08
3.54058e-08
3.54632e-08
3.51815e-08
3.50966e-08
3.49398e-08
3.47427e-08
3.46239e-08
3.46224e-08
3.46803e-08
4.5348e-08
3.16988e-07
1.54403e-05
2.53167e-05
2.38458e-05
3.01421e-05
2.98545e-05
2.86514e-05
2.79639e-05
2.69424e-05
2.59865e-05
2.52211e-05
2.46221e-05
2.41444e-05
2.37422e-05
2.33778e-05
2.30247e-05
2.2666e-05
2.22925e-05
2.19e-05
2.14865e-05
2.10489e-05
2.23927e-05
2.9941e-05
2.99266e-05
2.99021e-05
2.98669e-05
2.98175e-05
2.97343e-05
2.95854e-05
2.94087e-05
2.94568e-05
3.00136e-05
3.18453e-05
3.24987e-05
3.14828e-05
2.24143e-05
1.64703e-07
4.03237e-08
3.54602e-08
3.54521e-08
3.54322e-08
3.54697e-08
3.51853e-08
3.50953e-08
3.49201e-08
3.47041e-08
3.46238e-08
3.48827e-08
4.55129e-08
2.70648e-07
9.78766e-06
3.0081e-05
3.08537e-05
2.96534e-05
2.966e-05
3.03063e-05
2.9249e-05
2.82053e-05
2.72594e-05
2.6309e-05
2.55286e-05
2.49085e-05
2.44106e-05
2.39925e-05
2.36174e-05
2.32582e-05
2.2897e-05
2.25233e-05
2.21318e-05
2.17198e-05
2.12817e-05
2.26638e-05
2.99043e-05
2.98893e-05
2.98653e-05
2.9832e-05
2.97853e-05
2.97043e-05
2.95609e-05
2.94093e-05
2.95208e-05
3.0235e-05
3.19045e-05
3.25418e-05
3.26139e-05
2.47158e-05
6.87813e-06
9.68311e-08
3.79174e-08
3.55311e-08
3.54442e-08
3.54706e-08
3.51745e-08
3.50596e-08
3.48795e-08
3.47282e-08
3.61814e-08
5.77259e-08
3.80964e-07
1.08821e-05
2.90174e-05
3.21575e-05
3.21588e-05
3.07473e-05
2.96615e-05
3.02806e-05
2.98174e-05
2.84687e-05
2.75344e-05
2.66166e-05
2.58304e-05
2.51974e-05
2.46845e-05
2.4253e-05
2.38679e-05
2.35022e-05
2.31372e-05
2.27617e-05
2.23695e-05
2.19569e-05
2.15169e-05
2.2944e-05
2.98691e-05
2.98539e-05
2.98306e-05
2.97995e-05
2.97555e-05
2.96767e-05
2.95397e-05
2.94139e-05
2.95842e-05
3.04357e-05
3.14627e-05
3.39839e-05
3.27986e-05
2.46742e-05
2.73474e-05
5.2737e-06
1.06465e-07
4.39923e-08
3.62297e-08
3.56225e-08
3.53051e-08
3.54257e-08
3.84755e-08
5.05457e-08
1.1381e-07
1.17421e-06
1.60314e-05
3.01547e-05
3.19511e-05
3.21176e-05
3.20469e-05
3.00756e-05
2.97245e-05
2.97847e-05
3.01397e-05
2.88678e-05
2.78103e-05
2.69114e-05
2.61267e-05
2.54872e-05
2.49642e-05
2.45222e-05
2.41282e-05
2.37556e-05
2.33858e-05
2.30069e-05
2.26118e-05
2.21958e-05
2.17511e-05
2.32259e-05
2.98353e-05
2.98199e-05
2.97975e-05
2.97684e-05
2.97267e-05
2.96498e-05
2.95195e-05
2.942e-05
2.96468e-05
3.05156e-05
3.15862e-05
3.40299e-05
3.37519e-05
3.20622e-05
3.32385e-05
2.94653e-05
1.12025e-05
2.88645e-07
1.04051e-07
7.28091e-08
7.4364e-08
1.0175e-07
1.98457e-07
8.60765e-07
1.0072e-05
2.72206e-05
3.22614e-05
3.22509e-05
3.20325e-05
3.19994e-05
3.19657e-05
3.06262e-05
2.97981e-05
2.99969e-05
3.03814e-05
2.91993e-05
2.80724e-05
2.71876e-05
2.64165e-05
2.57765e-05
2.5248e-05
2.47985e-05
2.43971e-05
2.40185e-05
2.36441e-05
2.32617e-05
2.28632e-05
2.24421e-05
2.19894e-05
2.35099e-05
2.98025e-05
2.97869e-05
2.97653e-05
2.9738e-05
2.9698e-05
2.96223e-05
2.94985e-05
2.94256e-05
2.97075e-05
3.03131e-05
3.17405e-05
3.40469e-05
3.26462e-05
3.4577e-05
3.46822e-05
3.29696e-05
2.71272e-05
2.60053e-05
2.3554e-05
1.26035e-05
1.47301e-05
2.52889e-05
2.86032e-05
3.09957e-05
3.06143e-05
3.07776e-05
3.24049e-05
3.23143e-05
3.20807e-05
3.19972e-05
3.19978e-05
3.17986e-05
3.0335e-05
3.11431e-05
3.06061e-05
2.94294e-05
2.83525e-05
2.74574e-05
2.66987e-05
2.6062e-05
2.55317e-05
2.50776e-05
2.46707e-05
2.42871e-05
2.39088e-05
2.35233e-05
2.31213e-05
2.26943e-05
2.22332e-05
2.38014e-05
2.97705e-05
2.97547e-05
2.97336e-05
2.97076e-05
2.96686e-05
2.95931e-05
2.94753e-05
2.9429e-05
2.97409e-05
3.04122e-05
3.24662e-05
3.38776e-05
3.25896e-05
3.45586e-05
3.48859e-05
3.44536e-05
3.27265e-05
3.06382e-05
3.01915e-05
3.32039e-05
3.30099e-05
3.14989e-05
3.16522e-05
3.21339e-05
3.26282e-05
3.28054e-05
3.25996e-05
3.23428e-05
3.21554e-05
3.20937e-05
3.21624e-05
3.24058e-05
3.27091e-05
3.16751e-05
3.07766e-05
2.96426e-05
2.86127e-05
2.7711e-05
2.69653e-05
2.63361e-05
2.58072e-05
2.53511e-05
2.49408e-05
2.45533e-05
2.41716e-05
2.37827e-05
2.33767e-05
2.2944e-05
2.24768e-05
2.40964e-05
2.9739e-05
2.97227e-05
2.9702e-05
2.96768e-05
2.96376e-05
2.95613e-05
2.9449e-05
2.94291e-05
2.97451e-05
3.06768e-05
3.25999e-05
3.17938e-05
3.26053e-05
3.51233e-05
3.50923e-05
3.4908e-05
3.48251e-05
3.47545e-05
3.4418e-05
3.39798e-05
3.35313e-05
3.33708e-05
3.32836e-05
3.32532e-05
3.31049e-05
3.28664e-05
3.26033e-05
3.23693e-05
3.22382e-05
3.22287e-05
3.23602e-05
3.26043e-05
3.23812e-05
3.17907e-05
3.09207e-05
2.98136e-05
2.88124e-05
2.79396e-05
2.72042e-05
2.65865e-05
2.60631e-05
2.56085e-05
2.51973e-05
2.48078e-05
2.44234e-05
2.40313e-05
2.3621e-05
2.31834e-05
2.27129e-05
2.4386e-05
2.97078e-05
2.9691e-05
2.96702e-05
2.96449e-05
2.96047e-05
2.95266e-05
2.9419e-05
2.94231e-05
2.97959e-05
3.09966e-05
3.18192e-05
3.11907e-05
3.35055e-05
3.54719e-05
3.53447e-05
3.52523e-05
3.52057e-05
3.51035e-05
3.47983e-05
3.44083e-05
3.37667e-05
3.34499e-05
3.32693e-05
3.3144e-05
3.29788e-05
3.27732e-05
3.25697e-05
3.24148e-05
3.23427e-05
3.23752e-05
3.25437e-05
3.25239e-05
3.22898e-05
3.15789e-05
3.09792e-05
2.99239e-05
2.8958e-05
2.8118e-05
2.7403e-05
2.68017e-05
2.6289e-05
2.58402e-05
2.54315e-05
2.50426e-05
2.46572e-05
2.42627e-05
2.38488e-05
2.34076e-05
2.29363e-05
2.46623e-05
2.96769e-05
2.96591e-05
2.96378e-05
2.96118e-05
2.95696e-05
2.94887e-05
2.93853e-05
2.94133e-05
2.98871e-05
3.11024e-05
3.02404e-05
3.11579e-05
3.28977e-05
3.57005e-05
3.55903e-05
3.54725e-05
3.53461e-05
3.51269e-05
3.47296e-05
3.42312e-05
3.35618e-05
3.32512e-05
3.30681e-05
3.29404e-05
3.28131e-05
3.26789e-05
3.25582e-05
3.24775e-05
3.24642e-05
3.25367e-05
3.27314e-05
3.26939e-05
3.21422e-05
3.14439e-05
3.09624e-05
2.99669e-05
2.9046e-05
2.82422e-05
2.75571e-05
2.69768e-05
2.64795e-05
2.6041e-05
2.56386e-05
2.52529e-05
2.48685e-05
2.44731e-05
2.4057e-05
2.36142e-05
2.31442e-05
2.49218e-05
2.96461e-05
2.96271e-05
2.96047e-05
2.95774e-05
2.95323e-05
2.94479e-05
2.9348e-05
2.93991e-05
2.99324e-05
3.11229e-05
3.15698e-05
3.11869e-05
3.21726e-05
3.58426e-05
3.57677e-05
3.55852e-05
3.53665e-05
3.50473e-05
3.45042e-05
3.39699e-05
3.32871e-05
3.29984e-05
3.28365e-05
3.27366e-05
3.26633e-05
3.26047e-05
3.25635e-05
3.25569e-05
3.25988e-05
3.27119e-05
3.29318e-05
3.29632e-05
3.19668e-05
3.13065e-05
3.08916e-05
2.99584e-05
2.90858e-05
2.83214e-05
2.76686e-05
2.71137e-05
2.66357e-05
2.62111e-05
2.58183e-05
2.54388e-05
2.50578e-05
2.46635e-05
2.42477e-05
2.38062e-05
2.33405e-05
2.517e-05
2.96154e-05
2.95948e-05
2.9571e-05
2.95416e-05
2.94928e-05
2.94045e-05
2.93073e-05
2.93805e-05
2.99541e-05
3.11313e-05
3.28862e-05
3.12085e-05
3.24676e-05
3.60304e-05
3.5866e-05
3.56297e-05
3.52478e-05
3.45581e-05
3.36439e-05
3.36556e-05
3.29961e-05
3.2742e-05
3.26144e-05
3.25554e-05
3.2539e-05
3.25504e-05
3.25816e-05
3.26429e-05
3.27395e-05
3.28958e-05
3.31502e-05
3.31622e-05
3.19171e-05
3.07899e-05
3.08025e-05
2.99293e-05
2.90951e-05
2.83673e-05
2.77468e-05
2.72192e-05
2.67628e-05
2.63546e-05
2.59737e-05
2.56023e-05
2.52262e-05
2.48346e-05
2.44208e-05
2.39825e-05
2.35225e-05
2.54025e-05
2.95848e-05
2.95624e-05
2.95365e-05
2.95045e-05
2.94515e-05
2.93586e-05
2.92632e-05
2.93537e-05
2.99559e-05
3.12014e-05
3.16753e-05
3.11925e-05
3.48854e-05
3.61615e-05
3.59366e-05
3.49486e-05
2.67202e-05
2.59512e-05
3.35641e-05
3.33705e-05
3.27164e-05
3.25036e-05
3.2415e-05
3.24013e-05
3.24404e-05
3.25149e-05
3.26124e-05
3.273e-05
3.28775e-05
3.30701e-05
3.32956e-05
3.29395e-05
3.19566e-05
3.05472e-05
3.06673e-05
2.98605e-05
2.9071e-05
2.83833e-05
2.77979e-05
2.72998e-05
2.68671e-05
2.64772e-05
2.61099e-05
2.5748e-05
2.53779e-05
2.49903e-05
2.458e-05
2.41469e-05
2.36943e-05
2.5624e-05
2.95543e-05
2.95297e-05
2.95015e-05
2.94663e-05
2.94086e-05
2.93107e-05
2.92163e-05
2.93199e-05
2.99442e-05
3.10787e-05
2.97147e-05
3.11631e-05
3.55827e-05
3.62438e-05
3.58592e-05
2.7711e-05
2.48905e-05
2.44595e-05
3.29903e-05
3.30778e-05
3.24753e-05
3.22975e-05
3.22448e-05
3.22771e-05
3.2369e-05
3.25e-05
3.26545e-05
3.28242e-05
3.30119e-05
3.32357e-05
3.32384e-05
3.27069e-05
3.17811e-05
3.02697e-05
3.04697e-05
2.97534e-05
2.9018e-05
2.83764e-05
2.783e-05
2.73638e-05
2.69567e-05
2.65865e-05
2.62336e-05
2.58814e-05
2.55176e-05
2.51339e-05
2.4727e-05
2.42978e-05
2.38498e-05
2.58216e-05
2.95241e-05
2.94971e-05
2.94661e-05
2.94273e-05
2.93644e-05
2.92615e-05
2.91676e-05
2.92824e-05
2.99269e-05
3.08555e-05
2.97092e-05
3.10808e-05
3.54267e-05
3.62671e-05
3.33162e-05
2.50616e-05
2.46769e-05
2.54006e-05
3.3098e-05
3.28474e-05
3.22833e-05
3.21221e-05
3.21085e-05
3.21846e-05
3.23267e-05
3.25089e-05
3.27119e-05
3.29251e-05
3.31513e-05
3.33933e-05
3.30679e-05
3.25133e-05
3.11804e-05
3.00381e-05
3.00394e-05
2.96385e-05
2.89583e-05
2.83637e-05
2.78571e-05
2.74237e-05
2.70425e-05
2.66924e-05
2.6354e-05
2.60121e-05
2.56553e-05
2.52771e-05
2.48755e-05
2.44524e-05
2.40109e-05
2.6026e-05
2.94941e-05
2.94645e-05
2.94305e-05
2.93877e-05
2.93196e-05
2.92117e-05
2.9118e-05
2.92433e-05
2.99073e-05
3.07502e-05
3.12173e-05
3.12701e-05
3.53342e-05
3.60404e-05
2.91492e-05
2.48918e-05
2.44808e-05
3.26333e-05
3.30366e-05
3.27148e-05
3.20895e-05
3.19889e-05
3.20049e-05
3.2124e-05
3.23145e-05
3.25437e-05
3.27898e-05
3.30415e-05
3.33057e-05
3.34024e-05
3.29191e-05
3.22534e-05
3.06008e-05
2.98741e-05
2.93884e-05
2.95331e-05
2.89134e-05
2.83624e-05
2.78935e-05
2.74914e-05
2.71353e-05
2.68044e-05
2.64805e-05
2.61492e-05
2.58009e-05
2.54306e-05
2.50375e-05
2.46234e-05
2.41907e-05
2.62546e-05
2.94646e-05
2.94321e-05
2.93949e-05
2.93479e-05
2.92744e-05
2.91617e-05
2.90679e-05
2.92012e-05
2.98791e-05
3.07174e-05
3.14135e-05
3.22846e-05
3.516e-05
3.44598e-05
2.52444e-05
2.47728e-05
2.53071e-05
3.33071e-05
3.27017e-05
3.21947e-05
3.19643e-05
3.18849e-05
3.19283e-05
3.20949e-05
3.23331e-05
3.26056e-05
3.28903e-05
3.31777e-05
3.34765e-05
3.32742e-05
3.27446e-05
3.12611e-05
3.04311e-05
2.97393e-05
2.94202e-05
2.94698e-05
2.8889e-05
2.83793e-05
2.79464e-05
2.75738e-05
2.72411e-05
2.69282e-05
2.66178e-05
2.62971e-05
2.59581e-05
2.55974e-05
2.52147e-05
2.48114e-05
2.43885e-05
2.65064e-05
2.94357e-05
2.94003e-05
2.93596e-05
2.93082e-05
2.92294e-05
2.91118e-05
2.90169e-05
2.91545e-05
2.98363e-05
3.06641e-05
2.99096e-05
3.12653e-05
3.49693e-05
3.17027e-05
2.51919e-05
2.47229e-05
3.19975e-05
3.32058e-05
3.12361e-05
3.14976e-05
3.18979e-05
3.17848e-05
3.18793e-05
3.20972e-05
3.2382e-05
3.26947e-05
3.30143e-05
3.33361e-05
3.3597e-05
3.31636e-05
3.24931e-05
3.09365e-05
3.02981e-05
2.96246e-05
2.98435e-05
2.94326e-05
2.88866e-05
2.84172e-05
2.80186e-05
2.76739e-05
2.73627e-05
2.70659e-05
2.67678e-05
2.64572e-05
2.61281e-05
2.5778e-05
2.5407e-05
2.50159e-05
2.46042e-05
2.6783e-05
2.94077e-05
2.93691e-05
2.93248e-05
2.92689e-05
2.91848e-05
2.90624e-05
2.89656e-05
2.91042e-05
2.97834e-05
3.06698e-05
2.98017e-05
3.09998e-05
3.46474e-05
3.06976e-05
2.51704e-05
2.48259e-05
3.25931e-05
3.2001e-05
3.11657e-05
3.20852e-05
3.17563e-05
3.1706e-05
3.18604e-05
3.21314e-05
3.24604e-05
3.28099e-05
3.31616e-05
3.35162e-05
3.35885e-05
3.30598e-05
3.22158e-05
3.08053e-05
3.01826e-05
2.99115e-05
2.99857e-05
2.94183e-05
2.89109e-05
2.84792e-05
2.81126e-05
2.77931e-05
2.75008e-05
2.72179e-05
2.69305e-05
2.66294e-05
2.63104e-05
2.59718e-05
2.5614e-05
2.52369e-05
2.4839e-05
2.70879e-05
2.93806e-05
2.93389e-05
2.92909e-05
2.92305e-05
2.91412e-05
2.90142e-05
2.89147e-05
2.90514e-05
2.97229e-05
3.05258e-05
2.97485e-05
3.18205e-05
3.40948e-05
2.77011e-05
2.51118e-05
2.66516e-05
3.2544e-05
3.12247e-05
3.15252e-05
3.214e-05
3.16288e-05
3.16413e-05
3.18703e-05
3.21973e-05
3.25664e-05
3.29496e-05
3.33323e-05
3.37218e-05
3.35287e-05
3.29544e-05
3.143e-05
3.07001e-05
3.02192e-05
3.05048e-05
2.99656e-05
2.94273e-05
2.89608e-05
2.85654e-05
2.82282e-05
2.79309e-05
2.76543e-05
2.73821e-05
2.71024e-05
2.68078e-05
2.64948e-05
2.61582e-05
2.57835e-05
2.53819e-05
2.49725e-05
2.0057e-05
2.93546e-05
2.93098e-05
2.92581e-05
2.91933e-05
2.90992e-05
2.89679e-05
2.88651e-05
2.89971e-05
2.96532e-05
2.93833e-05
2.96412e-05
3.28624e-05
3.29894e-05
2.54649e-05
2.51277e-05
3.10947e-05
3.24319e-05
3.11829e-05
3.24356e-05
3.19829e-05
3.13774e-05
3.15235e-05
3.19238e-05
3.22894e-05
3.26965e-05
3.31116e-05
3.35262e-05
3.39479e-05
3.34822e-05
3.27023e-05
3.12088e-05
3.0614e-05
3.08874e-05
3.052e-05
2.996e-05
2.94627e-05
2.90361e-05
2.86749e-05
2.83643e-05
2.8086e-05
2.77829e-05
2.74324e-05
2.70681e-05
2.66963e-05
2.63182e-05
2.59367e-05
2.55519e-05
2.51606e-05
2.47569e-05
1.98143e-05
2.93301e-05
2.92821e-05
2.92267e-05
2.91576e-05
2.90591e-05
2.89241e-05
2.88177e-05
2.89432e-05
2.9558e-05
2.94518e-05
3.13727e-05
3.27847e-05
3.18026e-05
2.54259e-05
2.53981e-05
3.32918e-05
3.08016e-05
3.23538e-05
3.22722e-05
3.16269e-05
3.12565e-05
3.15685e-05
3.19941e-05
3.2403e-05
3.28474e-05
3.32945e-05
3.37437e-05
3.4064e-05
3.34192e-05
3.1899e-05
3.1157e-05
3.10959e-05
3.10674e-05
3.05014e-05
2.99804e-05
2.95244e-05
2.91359e-05
2.87242e-05
2.82808e-05
2.78856e-05
2.75206e-05
2.71637e-05
2.68042e-05
2.644e-05
2.60726e-05
2.57024e-05
2.53271e-05
2.49411e-05
2.4538e-05
1.95684e-05
2.93071e-05
2.9256e-05
2.9197e-05
2.91239e-05
2.90214e-05
2.8883e-05
2.87729e-05
2.88907e-05
2.94799e-05
3.05622e-05
3.20143e-05
3.24592e-05
2.91154e-05
2.85634e-05
3.33042e-05
3.36099e-05
3.04037e-05
3.21877e-05
3.15186e-05
3.14831e-05
3.14556e-05
3.17122e-05
3.20808e-05
3.25368e-05
3.30193e-05
3.35026e-05
3.39966e-05
3.4078e-05
3.3158e-05
3.18563e-05
3.12997e-05
3.15863e-05
3.10466e-05
3.05085e-05
3.00267e-05
2.95068e-05
2.89281e-05
2.84152e-05
2.79886e-05
2.76115e-05
2.72558e-05
2.69053e-05
2.65533e-05
2.61993e-05
2.58434e-05
2.54836e-05
2.51151e-05
2.47316e-05
2.43272e-05
1.93336e-05
2.92859e-05
2.92317e-05
2.91692e-05
2.90922e-05
2.89861e-05
2.88447e-05
2.87301e-05
2.88363e-05
2.94148e-05
3.06447e-05
3.14021e-05
3.0413e-05
3.11109e-05
3.49182e-05
3.55031e-05
3.35788e-05
3.01926e-05
3.01718e-05
3.05367e-05
3.18255e-05
3.15311e-05
3.17612e-05
3.21869e-05
3.269e-05
3.32121e-05
3.37381e-05
3.42892e-05
3.40544e-05
3.25401e-05
3.18396e-05
3.1997e-05
3.16036e-05
3.10488e-05
3.05306e-05
2.98797e-05
2.91589e-05
2.85823e-05
2.8114e-05
2.77154e-05
2.73539e-05
2.70076e-05
2.66654e-05
2.63235e-05
2.5981e-05
2.5636e-05
2.52842e-05
2.49196e-05
2.45364e-05
2.41299e-05
1.91156e-05
2.92666e-05
2.92096e-05
2.91437e-05
2.9063e-05
2.89535e-05
2.88092e-05
2.86889e-05
2.87797e-05
2.93528e-05
3.04767e-05
2.94108e-05
3.02603e-05
3.21655e-05
3.49014e-05
3.56286e-05
3.13482e-05
3.01192e-05
2.92221e-05
3.16311e-05
3.17506e-05
3.15286e-05
3.18288e-05
3.23121e-05
3.28618e-05
3.34281e-05
3.4009e-05
3.464e-05
3.37191e-05
3.25789e-05
3.21357e-05
3.21802e-05
3.16058e-05
3.10065e-05
3.02423e-05
2.94378e-05
2.8791e-05
2.82719e-05
2.78426e-05
2.74677e-05
2.71203e-05
2.67843e-05
2.64526e-05
2.61225e-05
2.57915e-05
2.54556e-05
2.51092e-05
2.47463e-05
2.43619e-05
2.39529e-05
1.89207e-05
2.92496e-05
2.91897e-05
2.91206e-05
2.90364e-05
2.89238e-05
2.87766e-05
2.86497e-05
2.87217e-05
2.92573e-05
3.02504e-05
2.89303e-05
3.01634e-05
3.3354e-05
3.47733e-05
3.51984e-05
3.11341e-05
3.00624e-05
2.91811e-05
3.19595e-05
3.16994e-05
3.15537e-05
3.19175e-05
3.24548e-05
3.30511e-05
3.36664e-05
3.43113e-05
3.47175e-05
3.33134e-05
3.26517e-05
3.2765e-05
3.21877e-05
3.15177e-05
3.06578e-05
2.97706e-05
2.90492e-05
2.84715e-05
2.80029e-05
2.76066e-05
2.72519e-05
2.6918e-05
2.65938e-05
2.62744e-05
2.59563e-05
2.56355e-05
2.53063e-05
2.49627e-05
2.45994e-05
2.42129e-05
2.38008e-05
1.87531e-05
2.92349e-05
2.91724e-05
2.91002e-05
2.90128e-05
2.88973e-05
2.87474e-05
2.86133e-05
2.8664e-05
2.91558e-05
2.98531e-05
2.89249e-05
3.00705e-05
3.36054e-05
3.4672e-05
3.41694e-05
3.11091e-05
3.00499e-05
3.07992e-05
3.18996e-05
3.16344e-05
3.16026e-05
3.20231e-05
3.26124e-05
3.32589e-05
3.39339e-05
3.46573e-05
3.43146e-05
3.33414e-05
3.30098e-05
3.27942e-05
3.20692e-05
3.11333e-05
3.01638e-05
2.93642e-05
2.8721e-05
2.82046e-05
2.77786e-05
2.74097e-05
2.70727e-05
2.67527e-05
2.64416e-05
2.61347e-05
2.58275e-05
2.55142e-05
2.51887e-05
2.48455e-05
2.44803e-05
2.40906e-05
2.36751e-05
1.86143e-05
2.92228e-05
2.91579e-05
2.90829e-05
2.89924e-05
2.88744e-05
2.87219e-05
2.85805e-05
2.86085e-05
2.90553e-05
2.9536e-05
2.88555e-05
3.00124e-05
3.3378e-05
3.45954e-05
3.36054e-05
3.11621e-05
3.01432e-05
3.2379e-05
3.16654e-05
3.15297e-05
3.16658e-05
3.21383e-05
3.27814e-05
3.34832e-05
3.42252e-05
3.48412e-05
3.41439e-05
3.34169e-05
3.34123e-05
3.26673e-05
3.16768e-05
3.06246e-05
2.97432e-05
2.90279e-05
2.84551e-05
2.79908e-05
2.75999e-05
2.72539e-05
2.69334e-05
2.66275e-05
2.63294e-05
2.60338e-05
2.57347e-05
2.54258e-05
2.51012e-05
2.47562e-05
2.43879e-05
2.39945e-05
2.35754e-05
1.85037e-05
2.92134e-05
2.91464e-05
2.90688e-05
2.89757e-05
2.88554e-05
2.87007e-05
2.8552e-05
2.85569e-05
2.89568e-05
2.9509e-05
3.04641e-05
3.0596e-05
3.32757e-05
3.45132e-05
3.40999e-05
3.12442e-05
3.0101e-05
3.24403e-05
3.16238e-05
3.16184e-05
3.17294e-05
3.22594e-05
3.29606e-05
3.37267e-05
3.4513e-05
3.48182e-05
3.41287e-05
3.36529e-05
3.3315e-05
3.22983e-05
3.11618e-05
3.01937e-05
2.93992e-05
2.87614e-05
2.82493e-05
2.78279e-05
2.74658e-05
2.71396e-05
2.68347e-05
2.65422e-05
2.62557e-05
2.59686e-05
2.56744e-05
2.53667e-05
2.50407e-05
2.46927e-05
2.43206e-05
2.39233e-05
2.35005e-05
1.84201e-05
2.92071e-05
2.91382e-05
2.90583e-05
2.89628e-05
2.88406e-05
2.8684e-05
2.85281e-05
2.85091e-05
2.88612e-05
2.97125e-05
3.10484e-05
3.22514e-05
3.33384e-05
3.43707e-05
3.4974e-05
3.13003e-05
3.12632e-05
3.2482e-05
3.16345e-05
3.17086e-05
3.17991e-05
3.23877e-05
3.31495e-05
3.39845e-05
3.46213e-05
3.4944e-05
3.41263e-05
3.39685e-05
3.3003e-05
3.17821e-05
3.07238e-05
2.98424e-05
2.91299e-05
2.85601e-05
2.80987e-05
2.77124e-05
2.73741e-05
2.70655e-05
2.67748e-05
2.64942e-05
2.62164e-05
2.59346e-05
2.56421e-05
2.53334e-05
2.50044e-05
2.46526e-05
2.42765e-05
2.38754e-05
2.34493e-05
1.8362e-05
2.92039e-05
2.91334e-05
2.90517e-05
2.89541e-05
2.88304e-05
2.86721e-05
2.85092e-05
2.8465e-05
2.87632e-05
2.95833e-05
3.08187e-05
3.21195e-05
3.32e-05
3.41986e-05
3.49384e-05
3.13468e-05
3.31434e-05
3.25387e-05
3.18827e-05
3.17359e-05
3.18763e-05
3.25256e-05
3.33499e-05
3.42284e-05
3.4713e-05
3.48731e-05
3.41463e-05
3.37029e-05
3.24946e-05
3.1341e-05
3.03653e-05
2.95679e-05
2.89292e-05
2.84173e-05
2.79975e-05
2.76398e-05
2.73217e-05
2.70285e-05
2.67501e-05
2.64787e-05
2.62068e-05
2.59272e-05
2.5634e-05
2.53225e-05
2.49898e-05
2.46339e-05
2.4254e-05
2.38494e-05
2.34202e-05
1.83279e-05
2.92039e-05
2.91323e-05
2.90491e-05
2.895e-05
2.88253e-05
2.86657e-05
2.84959e-05
2.84262e-05
2.86649e-05
2.93916e-05
2.97396e-05
2.96033e-05
3.28076e-05
3.39672e-05
3.25618e-05
3.13589e-05
3.30357e-05
3.2007e-05
3.18113e-05
3.17853e-05
3.19699e-05
3.26729e-05
3.35612e-05
3.44454e-05
3.50152e-05
3.47677e-05
3.40618e-05
3.33063e-05
3.20538e-05
3.09759e-05
3.00831e-05
2.93634e-05
2.87889e-05
2.83251e-05
2.79393e-05
2.76051e-05
2.73043e-05
2.70243e-05
2.67559e-05
2.64909e-05
2.62218e-05
2.59421e-05
2.56465e-05
2.53314e-05
2.49947e-05
2.4635e-05
2.42515e-05
2.38437e-05
2.34117e-05
1.83159e-05
2.92075e-05
2.91351e-05
2.90509e-05
2.89508e-05
2.88255e-05
2.86655e-05
2.84898e-05
2.83962e-05
2.85758e-05
2.91774e-05
2.7422e-05
2.83438e-05
3.09071e-05
3.35728e-05
3.1662e-05
3.13719e-05
3.29796e-05
3.04799e-05
3.15722e-05
3.18437e-05
3.20726e-05
3.2826e-05
3.37805e-05
3.47446e-05
3.53728e-05
3.46363e-05
3.38505e-05
3.2871e-05
3.16831e-05
3.06838e-05
2.98701e-05
2.92198e-05
2.87e-05
2.8276e-05
2.79179e-05
2.76035e-05
2.73172e-05
2.7048e-05
2.67868e-05
2.65256e-05
2.6257e-05
2.59754e-05
2.56766e-05
2.53578e-05
2.50172e-05
2.46539e-05
2.42671e-05
2.38566e-05
2.34221e-05
1.83244e-05
2.92146e-05
2.9142e-05
2.90573e-05
2.89568e-05
2.88317e-05
2.86723e-05
2.84924e-05
2.83778e-05
2.85037e-05
2.9025e-05
2.73989e-05
2.80413e-05
2.91674e-05
3.06169e-05
3.13412e-05
3.22208e-05
3.11768e-05
3.02705e-05
3.15332e-05
3.19045e-05
3.21823e-05
3.29858e-05
3.40076e-05
3.51165e-05
3.54761e-05
3.44227e-05
3.36189e-05
3.24972e-05
3.13802e-05
3.04585e-05
2.97176e-05
2.91278e-05
2.86539e-05
2.82626e-05
2.79275e-05
2.76296e-05
2.73554e-05
2.70945e-05
2.68381e-05
2.65783e-05
2.63086e-05
2.60243e-05
2.5722e-05
2.53994e-05
2.50553e-05
2.46887e-05
2.42991e-05
2.38861e-05
2.34496e-05
1.83514e-05
2.92255e-05
2.9153e-05
2.90684e-05
2.89683e-05
2.88442e-05
2.86864e-05
2.85045e-05
2.83721e-05
2.84496e-05
2.89118e-05
2.90755e-05
2.78466e-05
2.88837e-05
2.99535e-05
3.11051e-05
3.13838e-05
3.04141e-05
3.13623e-05
3.16412e-05
3.18809e-05
3.2297e-05
3.31536e-05
3.42408e-05
3.54683e-05
3.55773e-05
3.4255e-05
3.3429e-05
3.21841e-05
3.11401e-05
3.02921e-05
2.96164e-05
2.90785e-05
2.86427e-05
2.82785e-05
2.79626e-05
2.76785e-05
2.74139e-05
2.7159e-05
2.69051e-05
2.66451e-05
2.63734e-05
2.6086e-05
2.57802e-05
2.54542e-05
2.5107e-05
2.47376e-05
2.43456e-05
2.39306e-05
2.34923e-05
1.8395e-05
2.924e-05
2.91683e-05
2.90844e-05
2.89853e-05
2.88631e-05
2.87081e-05
2.85261e-05
2.8379e-05
2.84118e-05
2.87994e-05
2.95108e-05
2.77021e-05
2.86358e-05
3.0446e-05
3.09191e-05
3.14438e-05
3.12782e-05
3.27393e-05
3.16243e-05
3.15595e-05
3.2405e-05
3.33217e-05
3.44751e-05
3.57885e-05
3.56685e-05
3.44149e-05
3.31196e-05
3.193e-05
3.09567e-05
3.01763e-05
2.95575e-05
2.90635e-05
2.86596e-05
2.83179e-05
2.8018e-05
2.77452e-05
2.7488e-05
2.7237e-05
2.69841e-05
2.67229e-05
2.64487e-05
2.61582e-05
2.58491e-05
2.55202e-05
2.51703e-05
2.47986e-05
2.44047e-05
2.3988e-05
2.35483e-05
1.84532e-05
2.92584e-05
2.91879e-05
2.91054e-05
2.9008e-05
2.88886e-05
2.87375e-05
2.85574e-05
2.8399e-05
2.83908e-05
2.87003e-05
2.93824e-05
2.92942e-05
2.84464e-05
3.23964e-05
3.24506e-05
3.15116e-05
3.29616e-05
3.28613e-05
3.17249e-05
3.16691e-05
3.25251e-05
3.34877e-05
3.47065e-05
3.61e-05
3.54356e-05
3.41891e-05
3.28551e-05
3.17296e-05
3.08224e-05
3.01023e-05
2.95327e-05
2.90756e-05
2.86982e-05
2.83754e-05
2.80889e-05
2.78252e-05
2.75734e-05
2.73247e-05
2.70717e-05
2.68087e-05
2.6532e-05
2.62386e-05
2.59268e-05
2.55954e-05
2.52434e-05
2.48699e-05
2.44744e-05
2.40565e-05
2.36158e-05
1.8524e-05
2.92805e-05
2.92117e-05
2.91313e-05
2.90363e-05
2.89205e-05
2.87745e-05
2.85983e-05
2.84324e-05
2.83888e-05
2.86246e-05
2.92268e-05
3.01954e-05
3.04206e-05
3.24206e-05
3.24602e-05
3.15652e-05
3.29222e-05
3.29903e-05
3.2236e-05
3.2196e-05
3.26466e-05
3.36519e-05
3.49325e-05
3.61869e-05
3.5159e-05
3.39287e-05
3.26386e-05
3.15751e-05
3.07287e-05
3.00618e-05
2.95342e-05
2.91083e-05
2.87533e-05
2.84463e-05
2.81708e-05
2.79143e-05
2.76664e-05
2.74188e-05
2.71651e-05
2.69003e-05
2.66211e-05
2.63254e-05
2.60114e-05
2.5678e-05
2.53243e-05
2.49495e-05
2.4553e-05
2.41342e-05
2.36928e-05
1.86055e-05
2.93064e-05
2.92398e-05
2.9162e-05
2.90703e-05
2.89589e-05
2.8819e-05
2.86486e-05
2.84793e-05
2.84068e-05
2.85759e-05
2.90859e-05
2.99645e-05
3.10133e-05
3.21425e-05
3.05622e-05
3.14942e-05
3.27836e-05
3.31264e-05
3.24799e-05
3.24025e-05
3.27652e-05
3.38145e-05
3.5152e-05
3.59617e-05
3.48596e-05
3.36805e-05
3.24628e-05
3.14583e-05
3.0667e-05
3.00468e-05
2.95554e-05
2.91559e-05
2.88198e-05
2.85262e-05
2.82599e-05
2.8009e-05
2.77638e-05
2.75167e-05
2.72619e-05
2.69954e-05
2.67143e-05
2.64166e-05
2.6101e-05
2.57662e-05
2.54114e-05
2.50357e-05
2.46386e-05
2.42193e-05
2.37776e-05
1.86958e-05
2.93359e-05
2.92721e-05
2.91974e-05
2.91096e-05
2.90035e-05
2.88707e-05
2.87079e-05
2.8539e-05
2.84444e-05
2.85547e-05
2.89735e-05
2.97417e-05
3.07213e-05
3.09614e-05
2.98985e-05
3.12052e-05
3.31235e-05
3.32295e-05
3.26052e-05
3.25347e-05
3.29016e-05
3.39797e-05
3.53654e-05
3.563e-05
3.4544e-05
3.34432e-05
3.23201e-05
3.1371e-05
3.06297e-05
3.00504e-05
2.95901e-05
2.92133e-05
2.88935e-05
2.86114e-05
2.83527e-05
2.81061e-05
2.78628e-05
2.76158e-05
2.73602e-05
2.70923e-05
2.68097e-05
2.65107e-05
2.6194e-05
2.58583e-05
2.55029e-05
2.51268e-05
2.47294e-05
2.43101e-05
2.38684e-05
1.87931e-05
2.93689e-05
2.93083e-05
2.92374e-05
2.91541e-05
2.9054e-05
2.89292e-05
2.87756e-05
2.86106e-05
2.85006e-05
2.85613e-05
2.88965e-05
2.95247e-05
3.04398e-05
2.97255e-05
2.9625e-05
3.11047e-05
3.3889e-05
3.33479e-05
3.27373e-05
3.26778e-05
3.30427e-05
3.41469e-05
3.55746e-05
3.52811e-05
3.42174e-05
3.32152e-05
3.2203e-05
3.13056e-05
3.06095e-05
3.00665e-05
2.96334e-05
2.92764e-05
2.89707e-05
2.86985e-05
2.84462e-05
2.82032e-05
2.79614e-05
2.77145e-05
2.74581e-05
2.71893e-05
2.69058e-05
2.66061e-05
2.62888e-05
2.59528e-05
2.55972e-05
2.52212e-05
2.48239e-05
2.44048e-05
2.39633e-05
1.88955e-05
2.94053e-05
2.93483e-05
2.92816e-05
2.92035e-05
2.91099e-05
2.8994e-05
2.8851e-05
2.86929e-05
2.85742e-05
2.85954e-05
2.88578e-05
2.9348e-05
3.01724e-05
3.05341e-05
2.98424e-05
3.29021e-05
3.43182e-05
3.34815e-05
3.27579e-05
3.25777e-05
3.317e-05
3.43186e-05
3.57823e-05
3.49203e-05
3.38842e-05
3.29947e-05
3.21045e-05
3.12555e-05
3.06006e-05
3.00898e-05
2.96809e-05
2.93414e-05
2.90484e-05
2.87848e-05
2.8538e-05
2.82981e-05
2.80576e-05
2.7811e-05
2.75543e-05
2.72851e-05
2.70012e-05
2.67012e-05
2.63839e-05
2.60481e-05
2.56928e-05
2.53172e-05
2.49204e-05
2.45018e-05
2.40609e-05
1.90013e-05
2.94449e-05
2.93919e-05
2.93299e-05
2.92574e-05
2.91709e-05
2.90645e-05
2.8933e-05
2.87846e-05
2.8663e-05
2.86546e-05
2.88563e-05
2.92713e-05
2.99916e-05
3.107e-05
3.20361e-05
3.35834e-05
3.44578e-05
3.36249e-05
3.26647e-05
3.25338e-05
3.32621e-05
3.44963e-05
3.56923e-05
3.45525e-05
3.35484e-05
3.27159e-05
3.1954e-05
3.12147e-05
3.05976e-05
3.01162e-05
2.9729e-05
2.94054e-05
2.91238e-05
2.8868e-05
2.86262e-05
2.83891e-05
2.815e-05
2.79039e-05
2.76474e-05
2.73783e-05
2.70946e-05
2.67949e-05
2.6478e-05
2.61427e-05
2.57881e-05
2.54133e-05
2.50174e-05
2.45996e-05
2.41595e-05
1.91088e-05
2.94874e-05
2.94388e-05
2.93819e-05
2.93153e-05
2.92365e-05
2.91399e-05
2.90206e-05
2.8884e-05
2.87644e-05
2.87354e-05
2.88877e-05
2.92823e-05
2.99415e-05
3.08901e-05
3.20163e-05
3.33107e-05
3.45319e-05
3.37879e-05
3.27827e-05
3.27105e-05
3.33403e-05
3.46845e-05
3.52974e-05
3.4182e-05
3.32135e-05
3.24207e-05
3.17883e-05
3.11784e-05
3.05963e-05
3.01419e-05
2.97747e-05
2.94659e-05
2.91947e-05
2.89462e-05
2.8709e-05
2.84747e-05
2.82372e-05
2.7992e-05
2.77362e-05
2.74676e-05
2.71846e-05
2.68857e-05
2.65697e-05
2.62354e-05
2.58819e-05
2.55081e-05
2.51133e-05
2.46967e-05
2.42575e-05
1.92162e-05
2.95328e-05
2.94888e-05
2.94372e-05
2.93769e-05
2.93059e-05
2.92194e-05
2.91127e-05
2.89892e-05
2.88756e-05
2.88336e-05
2.89466e-05
2.92874e-05
2.98791e-05
3.07245e-05
3.17789e-05
3.30039e-05
3.43477e-05