/*--------------------------------*- C++ -*----------------------------------*\
  =========                 |
  \\      /  F ield         | OpenFOAM: The Open Source CFD Toolbox
   \\    /   O peration     | Website:  https://openfoam.org
    \\  /    A nd           | Version:  9
     \\/     M anipulation  |
\*---------------------------------------------------------------------------*/
FoamFile
{
    format      ascii;
    class       volVectorField;
    location    "0.05";
    object      U;
}
// * * * * * * * * * * * * * * * * * * * * * * * * * * * * * * * * * * * * * //

dimensions      [0 1 -1 0 0 0 0];

internalField   nonuniform List<vector> 
5000
(
(-0.147383 0 -0.133608)
(-0.158699 0 -0.126831)
(-0.170663 0 -0.11686)
(-0.18307 0 -0.103158)
(-0.195508 0 -0.085342)
(-0.207387 0 -0.0621228)
(-0.21941 0 -0.0269683)
(-0.234427 0 0.0311948)
(-0.248248 0 0.0955684)
(-0.235988 0 0.0644697)
(-0.161209 0 -0.222466)
(0.00457121 0 -0.772883)
(0.0301572 0 -1.2485)
(0.0172822 0 -1.44796)
(-0.0112507 0 -1.47207)
(-0.0285129 0 -1.47861)
(-0.0251515 0 -1.487)
(-0.0146112 0 -1.49192)
(-0.00527513 0 -1.49169)
(5.12749e-05 0 -1.48975)
(0.00209829 0 -1.48923)
(0.00283999 0 -1.49062)
(0.0032074 0 -1.49337)
(0.00303111 0 -1.49678)
(0.002289 0 -1.49958)
(0.00180246 0 -1.49968)
(0.00303709 0 -1.49498)
(0.00661091 0 -1.4842)
(0.00963 0 -1.46586)
(0.00697662 0 -1.43684)
(0.00115976 0 -1.39819)
(0.000714602 0 -1.32608)
(0.0482733 0 -1.05348)
(0.116861 0 -0.781178)
(0.191549 0 -0.526012)
(0.257222 0 -0.313781)
(0.305474 0 -0.162389)
(0.335738 0 -0.0717233)
(0.351434 0 -0.0289302)
(0.357244 0 -0.0173046)
(0.357461 0 -0.0224583)
(0.355132 0 -0.0346783)
(0.352005 0 -0.0486245)
(0.348896 0 -0.0619702)
(0.346087 0 -0.0740448)
(0.343615 0 -0.0848971)
(0.341422 0 -0.0947941)
(0.33946 0 -0.103909)
(0.337977 0 -0.111525)
(0.335147 0 -0.102115)
(-0.141246 0 -0.126557)
(-0.151588 0 -0.119431)
(-0.162297 0 -0.109208)
(-0.173116 0 -0.0955038)
(-0.183514 0 -0.07802)
(-0.192918 0 -0.055033)
(-0.202263 0 -0.019025)
(-0.213788 0 0.03907)
(-0.219966 0 0.0917623)
(-0.194412 0 0.0274275)
(-0.115899 0 -0.292782)
(0.0408064 0 -0.84302)
(0.07636 0 -1.23143)
(0.0162315 0 -1.4216)
(-0.0231484 0 -1.4554)
(-0.0333614 0 -1.4764)
(-0.0236924 0 -1.49326)
(-0.0122578 0 -1.49923)
(-0.00429021 0 -1.49658)
(-0.000431357 0 -1.49206)
(0.000562445 0 -1.49012)
(0.000725882 0 -1.49099)
(0.000925991 0 -1.49329)
(0.000544985 0 -1.49585)
(-0.00160154 0 -1.49793)
(-0.00565336 0 -1.49864)
(-0.00937277 0 -1.49623)
(-0.00928039 0 -1.4874)
(-0.00518995 0 -1.46603)
(-0.0038085 0 -1.42831)
(-0.00591564 0 -1.39576)
(0.00307744 0 -1.34155)
(0.0255365 0 -1.13115)
(0.0832365 0 -0.884303)
(0.149597 0 -0.632117)
(0.210397 0 -0.406946)
(0.258153 0 -0.233205)
(0.290825 0 -0.117807)
(0.309902 0 -0.0535583)
(0.318772 0 -0.0264863)
(0.321181 0 -0.0222636)
(0.320162 0 -0.0297617)
(0.317697 0 -0.0419014)
(0.31486 0 -0.0549439)
(0.312128 0 -0.0673151)
(0.30965 0 -0.078588)
(0.307429 0 -0.0888342)
(0.305435 0 -0.0981691)
(0.303813 0 -0.10597)
(0.301103 0 -0.0958683)
(-0.134989 0 -0.120125)
(-0.14443 0 -0.112763)
(-0.154002 0 -0.102472)
(-0.163402 0 -0.0890013)
(-0.172016 0 -0.0721096)
(-0.179367 0 -0.0495602)
(-0.186553 0 -0.0131155)
(-0.1951 0 0.0433575)
(-0.195249 0 0.0824875)
(-0.161298 0 -0.0134309)
(-0.0861496 0 -0.363533)
(0.0496192 0 -0.894648)
(0.127772 0 -1.2413)
(0.020217 0 -1.37285)
(-0.0253368 0 -1.44148)
(-0.0239292 0 -1.4811)
(-0.0113934 0 -1.50151)
(-0.00383218 0 -1.50526)
(-0.00054672 0 -1.49964)
(7.3765e-05 0 -1.49298)
(-0.000984893 0 -1.49009)
(-0.00209067 0 -1.49094)
(-0.0021836 0 -1.49317)
(-0.00173986 0 -1.49429)
(-0.00359081 0 -1.49327)
(-0.0108716 0 -1.49139)
(-0.0219551 0 -1.49006)
(-0.0285801 0 -1.48648)
(-0.0231927 0 -1.46994)
(-0.0104007 0 -1.43455)
(0.00648448 0 -1.41713)
(0.0352007 0 -1.35256)
(0.0370179 0 -1.18694)
(0.0734666 0 -0.969351)
(0.124939 0 -0.725035)
(0.175904 0 -0.492807)
(0.218771 0 -0.302453)
(0.250264 0 -0.16649)
(0.270251 0 -0.0826775)
(0.280789 0 -0.0401446)
(0.284781 0 -0.0255087)
(0.284908 0 -0.0270243)
(0.283129 0 -0.0363259)
(0.280641 0 -0.0483994)
(0.278062 0 -0.060723)
(0.275647 0 -0.0722922)
(0.27346 0 -0.0828911)
(0.27151 0 -0.0925123)
(0.269875 0 -0.100532)
(0.267308 0 -0.0900046)
(-0.128715 0 -0.114241)
(-0.137311 0 -0.106756)
(-0.145868 0 -0.0965601)
(-0.15404 0 -0.0834899)
(-0.161193 0 -0.0673227)
(-0.166961 0 -0.045285)
(-0.17245 0 -0.00881663)
(-0.178462 0 0.0447401)
(-0.174016 0 0.0696248)
(-0.134765 0 -0.0546109)
(-0.0617794 0 -0.430411)
(0.0658859 0 -0.949275)
(0.165497 0 -1.28901)
(0.0560721 0 -1.30638)
(0.00540381 0 -1.42313)
(0.00931252 0 -1.48673)
(0.0133771 0 -1.50654)
(0.00957701 0 -1.50631)
(0.00528871 0 -1.49902)
(0.00189717 0 -1.49159)
(-0.00181813 0 -1.4884)
(-0.00503976 0 -1.49001)
(-0.00585505 0 -1.49358)
(-0.00312383 0 -1.49435)
(-0.0004671 0 -1.48867)
(-0.00552318 0 -1.48)
(-0.0194155 0 -1.47759)
(-0.0286373 0 -1.4851)
(-0.0173563 0 -1.48995)
(0.00499143 0 -1.47372)
(0.0353285 0 -1.45684)
(0.0724514 0 -1.37695)
(0.078814 0 -1.21718)
(0.0894917 0 -1.02157)
(0.11622 0 -0.793319)
(0.151721 0 -0.562928)
(0.186053 0 -0.36332)
(0.213488 0 -0.212376)
(0.232286 0 -0.112522)
(0.243189 0 -0.0560985)
(0.248112 0 -0.031239)
(0.249165 0 -0.0262698)
(0.248078 0 -0.0320652)
(0.246032 0 -0.0426153)
(0.243705 0 -0.0545356)
(0.24143 0 -0.0662234)
(0.239327 0 -0.0771189)
(0.237437 0 -0.0870247)
(0.235803 0 -0.0952152)
(0.233382 0 -0.0843596)
(-0.122463 0 -0.108821)
(-0.130311 0 -0.101314)
(-0.138001 0 -0.0913366)
(-0.145136 0 -0.0788115)
(-0.151132 0 -0.0634558)
(-0.155764 0 -0.0419317)
(-0.160017 0 -0.00576929)
(-0.163883 0 0.0438493)
(-0.155926 0 0.0542205)
(-0.11304 0 -0.0954179)
(-0.0413238 0 -0.491687)
(0.065239 0 -1.0068)
(0.121805 0 -1.30872)
(0.0970663 0 -1.24468)
(0.0580512 0 -1.39591)
(0.0562527 0 -1.48122)
(0.0418741 0 -1.50108)
(0.021953 0 -1.49942)
(0.0106663 0 -1.49415)
(0.00487825 0 -1.48785)
(-0.000926888 0 -1.48468)
(-0.00658342 0 -1.48758)
(-0.00883578 0 -1.49487)
(-0.00369617 0 -1.49927)
(0.00629862 0 -1.49116)
(0.00961571 0 -1.47365)
(0.00255456 0 -1.46834)
(0.00385643 0 -1.48879)
(0.0201205 0 -1.51422)
(0.0401771 0 -1.50895)
(0.0341856 0 -1.48025)
(0.0525544 0 -1.42319)
(0.0881903 0 -1.23322)
(0.0958107 0 -1.03731)
(0.106698 0 -0.829381)
(0.129309 0 -0.611084)
(0.155232 0 -0.411208)
(0.177945 0 -0.251851)
(0.194752 0 -0.140347)
(0.205369 0 -0.0725514)
(0.210841 0 -0.0385284)
(0.212688 0 -0.027211)
(0.212335 0 -0.0292026)
(0.21085 0 -0.0378294)
(0.208917 0 -0.0490085)
(0.20691 0 -0.0605841)
(0.205002 0 -0.0716374)
(0.203267 0 -0.0817441)
(0.201573 0 -0.0900793)
(0.198758 0 -0.0792639)
(-0.116269 0 -0.103829)
(-0.123481 0 -0.09638)
(-0.130455 0 -0.086685)
(-0.136767 0 -0.0747757)
(-0.141903 0 -0.0602607)
(-0.145798 0 -0.0392578)
(-0.149278 0 -0.00368875)
(-0.151508 0 0.0412198)
(-0.141234 0 0.0369981)
(-0.0980744 0 -0.134812)
(-0.0322464 0 -0.544727)
(0.0466958 0 -1.05404)
(0.012531 0 -1.31408)
(0.0613946 0 -1.25378)
(0.0753208 0 -1.38958)
(0.0746 0 -1.46964)
(0.0517027 0 -1.48517)
(0.0246015 0 -1.48663)
(0.0128784 0 -1.4876)
(0.00841241 0 -1.48337)
(0.00238605 0 -1.47951)
(-0.00470181 0 -1.48335)
(-0.00889118 0 -1.4962)
(-0.00409815 0 -1.5093)
(0.00937663 0 -1.50368)
(0.0184716 0 -1.47767)
(0.0197926 0 -1.4685)
(0.0250391 0 -1.49662)
(0.0370929 0 -1.53439)
(0.0822986 0 -1.48666)
(0.0447839 0 -1.45012)
(0.00234665 0 -1.44421)
(0.0313586 0 -1.2607)
(0.0672539 0 -1.05263)
(0.0852498 0 -0.850772)
(0.102451 0 -0.643612)
(0.122682 0 -0.447771)
(0.14171 0 -0.284855)
(0.156717 0 -0.165515)
(0.166936 0 -0.0888551)
(0.172829 0 -0.0469995)
(0.175436 0 -0.0297944)
(0.175879 0 -0.0279316)
(0.175084 0 -0.034372)
(0.173699 0 -0.0445245)
(0.172119 0 -0.0557717)
(0.170561 0 -0.066845)
(0.169156 0 -0.0770505)
(0.167637 0 -0.0844663)
(0.164565 0 -0.0707407)
(-0.11017 0 -0.0992149)
(-0.116847 0 -0.0918681)
(-0.123251 0 -0.0824908)
(-0.128953 0 -0.0712124)
(-0.133521 0 -0.0574876)
(-0.137054 0 -0.0369685)
(-0.140242 0 -0.00220243)
(-0.141514 0 0.037547)
(-0.130019 0 0.019214)
(-0.0888736 0 -0.170722)
(-0.0312486 0 -0.585973)
(0.0310369 0 -1.06703)
(-0.0324928 0 -1.30212)
(0.0256089 0 -1.27593)
(0.034157 0 -1.41309)
(0.0402956 0 -1.46714)
(0.0316182 0 -1.46988)
(0.0164065 0 -1.47621)
(0.0121793 0 -1.48421)
(0.0116566 0 -1.4806)
(0.00750704 0 -1.47463)
(0.00159091 0 -1.4782)
(-0.00334232 0 -1.49543)
(-0.00255428 0 -1.51703)
(0.0036466 0 -1.51359)
(0.00409683 0 -1.48079)
(0.00200316 0 -1.47321)
(0.00300477 0 -1.50724)
(-0.0111035 0 -1.58199)
(-0.0132321 0 -1.46715)
(0.0257092 0 -1.42264)
(0.0224877 0 -1.43403)
(0.0201762 0 -1.3096)
(0.0455807 0 -1.09224)
(0.0637214 0 -0.876341)
(0.0766003 0 -0.66993)
(0.0912376 0 -0.476871)
(0.106259 0 -0.312642)
(0.119072 0 -0.18822)
(0.128508 0 -0.10485)
(0.13453 0 -0.0564887)
(0.137729 0 -0.0339984)
(0.138906 0 -0.0283859)
(0.138809 0 -0.032479)
(0.138005 0 -0.0413511)
(0.136867 0 -0.0520225)
(0.135613 0 -0.0629074)
(0.134373 0 -0.0728929)
(0.132891 0 -0.0790625)
(0.129901 0 -0.0629701)
(-0.104178 0 -0.0949119)
(-0.110422 0 -0.0876828)
(-0.116391 0 -0.078635)
(-0.121681 0 -0.0679615)
(-0.12595 0 -0.0549186)
(-0.129459 0 -0.0347774)
(-0.132816 0 -0.000901577)
(-0.133867 0 0.0336252)
(-0.122283 0 0.00226685)
(-0.0841895 0 -0.202427)
(-0.0323271 0 -0.618122)
(0.0112559 0 -1.06163)
(-0.0570489 0 -1.28853)
(-0.00386023 0 -1.3195)
(-0.000993235 0 -1.40718)
(0.00448283 0 -1.46597)
(0.00915375 0 -1.46353)
(0.00929129 0 -1.47336)
(0.0107786 0 -1.48479)
(0.0127596 0 -1.47993)
(0.0120077 0 -1.472)
(0.0113095 0 -1.47481)
(0.0113333 0 -1.49164)
(0.00988641 0 -1.51312)
(-0.00338261 0 -1.506)
(-0.0168705 0 -1.47366)
(-0.0321322 0 -1.46987)
(-0.0595076 0 -1.50473)
(-0.0487082 0 -1.58775)
(-0.0287597 0 -1.51134)
(-0.00385488 0 -1.4569)
(0.00734974 0 -1.43105)
(0.00652069 0 -1.32507)
(0.0187856 0 -1.12313)
(0.0370812 0 -0.900675)
(0.0492913 0 -0.69114)
(0.0601852 0 -0.499543)
(0.071679 0 -0.335283)
(0.0821883 0 -0.208011)
(0.0905334 0 -0.119972)
(0.0963823 0 -0.0665294)
(0.0999579 0 -0.0395374)
(0.10176 0 -0.0304565)
(0.102338 0 -0.0321607)
(0.102153 0 -0.0395387)
(0.101536 0 -0.0493346)
(0.100677 0 -0.0596512)
(0.0996494 0 -0.0689241)
(0.0980417 0 -0.0735704)
(0.0948332 0 -0.0564946)
(-0.0982927 0 -0.0908638)
(-0.104196 0 -0.0837457)
(-0.109857 0 -0.075007)
(-0.114909 0 -0.064871)
(-0.119116 0 -0.052355)
(-0.122898 0 -0.0324184)
(-0.126808 0 0.000585919)
(-0.128264 0 0.0300224)
(-0.11726 0 -0.0132972)
(-0.081471 0 -0.231097)
(-0.0333728 0 -0.644532)
(-0.00622253 0 -1.05693)
(-0.0357037 0 -1.27932)
(0.0017998 0 -1.34216)
(0.0140779 0 -1.38981)
(-0.0254124 0 -1.46978)
(0.00494615 0 -1.47033)
(0.0113087 0 -1.47436)
(0.00735018 0 -1.48343)
(0.00773149 0 -1.47855)
(0.0128981 0 -1.47216)
(0.0230344 0 -1.47638)
(0.0371887 0 -1.49038)
(0.0388983 0 -1.50219)
(0.0119834 0 -1.49081)
(-3.61266e-05 0 -1.45552)
(0.00771778 0 -1.42762)
(0.0257362 0 -1.53153)
(0.00136762 0 -1.57023)
(-0.00454676 0 -1.52965)
(0.00576015 0 -1.47995)
(0.00836449 0 -1.4339)
(0.00232262 0 -1.32621)
(0.00464253 0 -1.1411)
(0.0137288 0 -0.919761)
(0.0218191 0 -0.707019)
(0.0292866 0 -0.51632)
(0.0376241 0 -0.352796)
(0.0458668 0 -0.224461)
(0.0530031 0 -0.133652)
(0.0585172 0 -0.0766209)
(0.0623381 0 -0.046087)
(0.0647003 0 -0.0340286)
(0.0659626 0 -0.0335025)
(0.0664724 0 -0.0393451)
(0.0664963 0 -0.0480923)
(0.0661784 0 -0.0574586)
(0.0654853 0 -0.0651893)
(0.0637199 0 -0.0667456)
(0.0599427 0 -0.0479415)
(-0.0925006 0 -0.0870215)
(-0.0981462 0 -0.0799903)
(-0.103607 0 -0.0715132)
(-0.108567 0 -0.0618108)
(-0.112911 0 -0.0496289)
(-0.117213 0 -0.0296701)
(-0.121985 0 0.00256183)
(-0.124272 0 0.0269814)
(-0.114088 0 -0.0279159)
(-0.0789241 0 -0.258554)
(-0.0355524 0 -0.665489)
(-0.0233297 0 -1.05834)
(-0.0351322 0 -1.28337)
(-0.0181123 0 -1.35186)
(-0.00975487 0 -1.39842)
(0.000460917 0 -1.47155)
(0.0308529 0 -1.49361)
(0.0116271 0 -1.47347)
(-0.00321235 0 -1.4818)
(-0.00561339 0 -1.48026)
(0.0107557 0 -1.48)
(0.0377536 0 -1.49005)
(0.0627775 0 -1.50182)
(0.0653503 0 -1.49236)
(0.0435794 0 -1.47437)
(0.0191527 0 -1.45046)
(0.0285317 0 -1.44395)
(0.0388982 0 -1.51814)
(0.0215504 0 -1.5459)
(0.0120228 0 -1.5264)
(0.015612 0 -1.48554)
(0.0145254 0 -1.42787)
(0.00495847 0 -1.32095)
(-0.00362286 0 -1.14267)
(-0.00654115 0 -0.927103)
(-0.00495092 0 -0.715953)
(-0.00131862 0 -0.527197)
(0.00387874 0 -0.365427)
(0.00996578 0 -0.237572)
(0.0159224 0 -0.145683)
(0.0210443 0 -0.0865031)
(0.0250271 0 -0.0534442)
(0.0278775 0 -0.0390166)
(0.0297744 0 -0.0365542)
(0.0309454 0 -0.0409408)
(0.0315696 0 -0.0485328)
(0.0317061 0 -0.0565255)
(0.0312173 0 -0.0617359)
(0.0294016 0 -0.059073)
(0.0257334 0 -0.0386398)
(-0.0867809 0 -0.0833418)
(-0.0922345 0 -0.0763601)
(-0.0975823 0 -0.0680785)
(-0.102569 0 -0.05868)
(-0.107204 0 -0.0466128)
(-0.112215 0 -0.0263758)
(-0.118073 0 0.00522311)
(-0.121408 0 0.024571)
(-0.112086 0 -0.0419844)
(-0.0788394 0 -0.283876)
(-0.0412368 0 -0.681723)
(-0.0289717 0 -1.06089)
(-0.0313533 0 -1.28653)
(-0.0292284 0 -1.35373)
(-0.0243114 0 -1.4079)
(-0.0202842 0 -1.47669)
(-0.0353875 0 -1.507)
(-0.0317467 0 -1.45819)
(-0.0245148 0 -1.47913)
(-0.0226557 0 -1.49221)
(0.000693405 0 -1.50569)
(0.0281068 0 -1.51884)
(0.0393863 0 -1.51735)
(0.0351493 0 -1.474)
(0.0261181 0 -1.44629)
(0.0242313 0 -1.45032)
(0.0341219 0 -1.47001)
(0.0377256 0 -1.51023)
(0.0254451 0 -1.53124)
(0.0149997 0 -1.5213)
(0.0117424 0 -1.48446)
(0.00684472 0 -1.41656)
(-0.00892222 0 -1.30059)
(-0.025307 0 -1.12732)
(-0.0324287 0 -0.921364)
(-0.033938 0 -0.717114)
(-0.032865 0 -0.532232)
(-0.0298652 0 -0.373719)
(-0.0254008 0 -0.247742)
(-0.0203873 0 -0.156197)
(-0.0156045 0 -0.0961115)
(-0.0115044 0 -0.0614434)
(-0.00825751 0 -0.0452119)
(-0.00584021 0 -0.0410743)
(-0.00414281 0 -0.0440102)
(-0.00308492 0 -0.0501948)
(-0.00270778 0 -0.0562843)
(-0.00319306 0 -0.0583922)
(-0.00494608 0 -0.0518933)
(-0.00787561 0 -0.0312054)
(-0.0811051 0 -0.07979)
(-0.0864164 0 -0.0728095)
(-0.0917147 0 -0.0646433)
(-0.0968152 0 -0.0554022)
(-0.101848 0 -0.0432143)
(-0.107674 0 -0.0224401)
(-0.11471 0 0.00865024)
(-0.119144 0 0.022826)
(-0.110524 0 -0.0553835)
(-0.0809689 0 -0.306117)
(-0.049713 0 -0.697623)
(-0.0304307 0 -1.06733)
(-0.0371905 0 -1.28037)
(-0.0466053 0 -1.35488)
(-0.0429687 0 -1.40849)
(-0.0612055 0 -1.46586)
(-0.0997929 0 -1.48569)
(-0.10623 0 -1.46039)
(-0.0941545 0 -1.4825)
(-0.0726583 0 -1.50611)
(-0.0455094 0 -1.53138)
(-0.022539 0 -1.54275)
(-0.00652166 0 -1.52494)
(0.00782476 0 -1.47747)
(0.0228499 0 -1.45363)
(0.0345014 0 -1.4572)
(0.0423528 0 -1.47608)
(0.0402451 0 -1.50143)
(0.0268579 0 -1.51606)
(0.0108443 0 -1.50813)
(-0.00387147 0 -1.47186)
(-0.0190228 0 -1.39745)
(-0.0349848 0 -1.27513)
(-0.05013 0 -1.10717)
(-0.0595627 0 -0.911192)
(-0.0630951 0 -0.713973)
(-0.0637206 0 -0.533501)
(-0.0622818 0 -0.378902)
(-0.0590718 0 -0.255705)
(-0.0548439 0 -0.165506)
(-0.0503934 0 -0.105452)
(-0.0462676 0 -0.0698998)
(-0.0427637 0 -0.0523177)
(-0.0399829 0 -0.0466815)
(-0.0379275 0 -0.0480692)
(-0.0366157 0 -0.0524787)
(-0.0361635 0 -0.0561677)
(-0.0367237 0 -0.0550866)
(-0.038376 0 -0.0457434)
(-0.0406079 0 -0.0257798)
(-0.0754389 0 -0.0763418)
(-0.0806402 0 -0.069306)
(-0.0859294 0 -0.0611655)
(-0.0911963 0 -0.051927)
(-0.096684 0 -0.0393827)
(-0.103344 0 -0.0178366)
(-0.111492 0 0.0128268)
(-0.116991 0 0.0218216)
(-0.109675 0 -0.0671896)
(-0.0837068 0 -0.324732)
(-0.0542399 0 -0.713482)
(-0.0329982 0 -1.07498)
(-0.0419349 0 -1.27005)
(-0.0575969 0 -1.35031)
(-0.0739691 0 -1.3973)
(-0.11027 0 -1.44213)
(-0.154013 0 -1.46217)
(-0.167888 0 -1.46723)
(-0.158963 0 -1.49657)
(-0.129325 0 -1.52545)
(-0.0901434 0 -1.54716)
(-0.0588145 0 -1.5542)
(-0.0337303 0 -1.53737)
(-0.00710865 0 -1.5021)
(0.0212812 0 -1.47684)
(0.0426138 0 -1.47038)
(0.0518491 0 -1.47765)
(0.0470866 0 -1.48982)
(0.0308036 0 -1.49524)
(0.00905247 0 -1.48387)
(-0.0141113 0 -1.44639)
(-0.0372602 0 -1.37152)
(-0.0572513 0 -1.25156)
(-0.072099 0 -1.08715)
(-0.0826096 0 -0.899571)
(-0.0883995 0 -0.708469)
(-0.0910096 0 -0.532322)
(-0.0911781 0 -0.381727)
(-0.0892475 0 -0.261837)
(-0.0859208 0 -0.173663)
(-0.0819905 0 -0.11433)
(-0.0780703 0 -0.0784714)
(-0.0745526 0 -0.0599215)
(-0.0716431 0 -0.0529367)
(-0.0694492 0 -0.0526714)
(-0.068082 0 -0.0549765)
(-0.0676988 0 -0.0559297)
(-0.068384 0 -0.0517978)
(-0.0699861 0 -0.0404261)
(-0.071801 0 -0.0215628)
(-0.0697452 0 -0.0729833)
(-0.0748512 0 -0.0658318)
(-0.0801486 0 -0.0576228)
(-0.0855994 0 -0.0482335)
(-0.0915447 0 -0.0351182)
(-0.0989754 0 -0.012614)
(-0.108057 0 0.0176716)
(-0.114448 0 0.0216094)
(-0.108554 0 -0.0772741)
(-0.0845029 0 -0.342479)
(-0.0517628 0 -0.730374)
(-0.03486 0 -1.07761)
(-0.0500382 0 -1.2608)
(-0.0737408 0 -1.33257)
(-0.106792 0 -1.37635)
(-0.148488 0 -1.41495)
(-0.185069 0 -1.44231)
(-0.197128 0 -1.46784)
(-0.186184 0 -1.51034)
(-0.151169 0 -1.55376)
(-0.106317 0 -1.57777)
(-0.0693485 0 -1.58108)
(-0.0374571 0 -1.56406)
(-0.00561856 0 -1.53306)
(0.0254706 0 -1.50466)
(0.0484142 0 -1.48723)
(0.057824 0 -1.47978)
(0.0524838 0 -1.47682)
(0.0350823 0 -1.47073)
(0.0106477 0 -1.45298)
(-0.0161899 0 -1.41312)
(-0.0428314 0 -1.3392)
(-0.0676131 0 -1.22433)
(-0.0868007 0 -1.06669)
(-0.0996674 0 -0.885461)
(-0.107959 0 -0.699802)
(-0.112907 0 -0.528255)
(-0.114977 0 -0.381953)
(-0.114604 0 -0.265785)
(-0.112489 0 -0.180194)
(-0.109415 0 -0.122168)
(-0.106047 0 -0.0865174)
(-0.102852 0 -0.0673685)
(-0.100128 0 -0.0592032)
(-0.0980795 0 -0.0572268)
(-0.0968985 0 -0.0572016)
(-0.0967546 0 -0.0552572)
(-0.0976469 0 -0.0483056)
(-0.099274 0 -0.0355104)
(-0.100843 0 -0.0180069)
(-0.063986 0 -0.0697101)
(-0.0689947 0 -0.0623831)
(-0.0742965 0 -0.0540128)
(-0.0799167 0 -0.0443285)
(-0.0862745 0 -0.0304646)
(-0.0943504 0 -0.00687828)
(-0.104154 0 0.023059)
(-0.111322 0 0.0221117)
(-0.106716 0 -0.0864183)
(-0.0832177 0 -0.361072)
(-0.0510879 0 -0.747398)
(-0.0475778 0 -1.0735)
(-0.0732531 0 -1.24695)
(-0.101927 0 -1.30941)
(-0.134048 0 -1.35291)
(-0.168159 0 -1.392)
(-0.192171 0 -1.42834)
(-0.198082 0 -1.46884)
(-0.184552 0 -1.52486)
(-0.146059 0 -1.5845)
(-0.0990073 0 -1.61233)
(-0.0600567 0 -1.61276)
(-0.0263787 0 -1.59398)
(0.00454259 0 -1.56324)
(0.0320728 0 -1.53081)
(0.0516647 0 -1.5031)
(0.0592832 0 -1.48142)
(0.0537264 0 -1.46365)
(0.0367734 0 -1.44543)
(0.0121278 0 -1.41994)
(-0.0160207 0 -1.37659)
(-0.0447678 0 -1.30246)
(-0.0716338 0 -1.19013)
(-0.0934167 0 -1.04115)
(-0.109712 0 -0.866222)
(-0.121483 0 -0.686395)
(-0.129223 0 -0.5202)
(-0.133494 0 -0.378777)
(-0.134955 0 -0.266809)
(-0.134349 0 -0.184333)
(-0.132464 0 -0.128159)
(-0.129994 0 -0.0932121)
(-0.127466 0 -0.0738397)
(-0.125256 0 -0.0646931)
(-0.123656 0 -0.0610143)
(-0.122917 0 -0.0585714)
(-0.123192 0 -0.0537791)
(-0.124385 0 -0.0444063)
(-0.126096 0 -0.0307883)
(-0.127505 0 -0.0148816)
(-0.0581246 0 -0.0665271)
(-0.0630194 0 -0.058969)
(-0.0683017 0 -0.0503503)
(-0.0740503 0 -0.0402424)
(-0.0807407 0 -0.0254933)
(-0.0893056 0 -0.000755393)
(-0.0996293 0 0.0288629)
(-0.107485 0 0.0232536)
(-0.10454 0 -0.0947181)
(-0.0846643 0 -0.378067)
(-0.0626203 0 -0.758434)
(-0.0695472 0 -1.0638)
(-0.0997112 0 -1.22686)
(-0.128085 0 -1.29079)
(-0.149997 0 -1.33446)
(-0.171628 0 -1.3769)
(-0.184529 0 -1.42101)
(-0.186005 0 -1.47159)
(-0.169694 0 -1.53923)
(-0.126588 0 -1.61632)
(-0.0797357 0 -1.64654)
(-0.0416553 0 -1.64378)
(-0.00955532 0 -1.6221)
(0.0176934 0 -1.58902)
(0.0396717 0 -1.55163)
(0.0540321 0 -1.51494)
(0.0584334 0 -1.48126)
(0.0520013 0 -1.4506)
(0.0357178 0 -1.42091)
(0.0119275 0 -1.38699)
(-0.0160533 0 -1.33906)
(-0.0449657 0 -1.26396)
(-0.0729152 0 -1.15283)
(-0.0967012 0 -1.01084)
(-0.115853 0 -0.840351)
(-0.130978 0 -0.667304)
(-0.141331 0 -0.507517)
(-0.147769 0 -0.371655)
(-0.151138 0 -0.264363)
(-0.152196 0 -0.185455)
(-0.151718 0 -0.131604)
(-0.150409 0 -0.0977991)
(-0.148836 0 -0.078545)
(-0.147442 0 -0.0686045)
(-0.146593 0 -0.0632639)
(-0.146568 0 -0.0584289)
(-0.147471 0 -0.0510226)
(-0.149108 0 -0.0397809)
(-0.151027 0 -0.0259831)
(-0.152429 0 -0.0119599)
(-0.0521275 0 -0.0634476)
(-0.0568788 0 -0.0556098)
(-0.0621003 0 -0.0466653)
(-0.0679147 0 -0.036026)
(-0.074833 0 -0.0202911)
(-0.0837127 0 0.00563351)
(-0.0943529 0 0.0349884)
(-0.10276 0 0.0251432)
(-0.101885 0 -0.100858)
(-0.0898879 0 -0.388457)
(-0.0813508 0 -0.761699)
(-0.0890265 0 -1.05233)
(-0.11521 0 -1.20555)
(-0.139939 0 -1.27802)
(-0.155229 0 -1.32256)
(-0.167589 0 -1.36836)
(-0.177064 0 -1.41676)
(-0.179722 0 -1.47557)
(-0.153154 0 -1.56022)
(-0.0984408 0 -1.65109)
(-0.0544206 0 -1.67971)
(-0.0198208 0 -1.67273)
(0.00892275 0 -1.64707)
(0.0316983 0 -1.60986)
(0.0481168 0 -1.5667)
(0.0571142 0 -1.52198)
(0.0577064 0 -1.47841)
(0.0496 0 -1.43709)
(0.0333869 0 -1.39719)
(0.0103605 0 -1.35466)
(-0.0176602 0 -1.3008)
(-0.0483441 0 -1.22347)
(-0.0782774 0 -1.11346)
(-0.104451 0 -0.976916)
(-0.124817 0 -0.811896)
(-0.139864 0 -0.64503)
(-0.151283 0 -0.491315)
(-0.159367 0 -0.36098)
(-0.164465 0 -0.258468)
(-0.16717 0 -0.183345)
(-0.168181 0 -0.13212)
(-0.168173 0 -0.0997739)
(-0.167733 0 -0.0808855)
(-0.167356 0 -0.070279)
(-0.167449 0 -0.0633263)
(-0.168285 0 -0.0562307)
(-0.169888 0 -0.0466058)
(-0.171988 0 -0.0341458)
(-0.174122 0 -0.0207919)
(-0.17553 0 -0.00898838)
(-0.045966 0 -0.0604915)
(-0.0505336 0 -0.0523336)
(-0.0556384 0 -0.0429984)
(-0.0614381 0 -0.0317432)
(-0.0684588 0 -0.0149562)
(-0.0774553 0 0.0121616)
(-0.0881403 0 0.0413194)
(-0.0967925 0 0.0279115)
(-0.0975309 0 -0.103807)
(-0.0911298 0 -0.391501)
(-0.0868523 0 -0.760513)
(-0.0919544 0 -1.04229)
(-0.114128 0 -1.18741)
(-0.139336 0 -1.26544)
(-0.157545 0 -1.31292)
(-0.166568 0 -1.36307)
(-0.181287 0 -1.41197)
(-0.182244 0 -1.48885)
(-0.13028 0 -1.60066)
(-0.0638765 0 -1.68689)
(-0.026543 0 -1.70899)
(0.00254739 0 -1.69785)
(0.0271783 0 -1.66816)
(0.0455111 0 -1.62598)
(0.0569512 0 -1.57659)
(0.0611562 0 -1.52442)
(0.0580716 0 -1.47253)
(0.0479774 0 -1.42247)
(0.0314665 0 -1.37393)
(0.0093667 0 -1.32342)
(-0.0170818 0 -1.26305)
(-0.0459274 0 -1.18201)
(-0.0750476 0 -1.07282)
(-0.103315 0 -0.938883)
(-0.127304 0 -0.782808)
(-0.144904 0 -0.621211)
(-0.158555 0 -0.472423)
(-0.168763 0 -0.347101)
(-0.175812 0 -0.249228)
(-0.180289 0 -0.177959)
(-0.182877 0 -0.129548)
(-0.184256 0 -0.0988794)
(-0.185047 0 -0.0805226)
(-0.185792 0 -0.0693395)
(-0.186919 0 -0.0608669)
(-0.188659 0 -0.0517659)
(-0.190951 0 -0.040438)
(-0.193479 0 -0.0274235)
(-0.195818 0 -0.0150526)
(-0.197242 0 -0.00579273)
(-0.0396165 0 -0.057685)
(-0.0439515 0 -0.0491735)
(-0.0488732 0 -0.0393977)
(-0.054565 0 -0.0274668)
(-0.0615471 0 -0.00960016)
(-0.0704482 0 0.0186741)
(-0.080858 0 0.0476494)
(-0.0893588 0 0.031272)
(-0.0907314 0 -0.104715)
(-0.0840253 0 -0.394107)
(-0.0780533 0 -0.758668)
(-0.0886476 0 -1.03267)
(-0.114099 0 -1.17123)
(-0.141876 0 -1.24969)
(-0.161701 0 -1.30211)
(-0.16496 0 -1.36027)
(-0.164238 0 -1.4083)
(-0.146542 0 -1.50445)
(-0.0856957 0 -1.64738)
(-0.0305495 0 -1.71763)
(-0.00151812 0 -1.73234)
(0.0227526 0 -1.71861)
(0.0435955 0 -1.68537)
(0.0579842 0 -1.63785)
(0.0651665 0 -1.58198)
(0.0653104 0 -1.5228)
(0.0590013 0 -1.46371)
(0.0469659 0 -1.40649)
(0.0299153 0 -1.35099)
(0.00855483 0 -1.29398)
(-0.0161228 0 -1.22817)
(-0.042558 0 -1.14362)
(-0.0696726 0 -1.03293)
(-0.0986931 0 -0.896536)
(-0.126212 0 -0.748431)
(-0.147573 0 -0.592721)
(-0.164377 0 -0.449264)
(-0.177187 0 -0.329236)
(-0.186424 0 -0.236264)
(-0.192763 0 -0.169121)
(-0.196945 0 -0.123795)
(-0.199702 0 -0.0950388)
(-0.201708 0 -0.0773845)
(-0.203539 0 -0.0657642)
(-0.205612 0 -0.0560031)
(-0.20808 0 -0.0453665)
(-0.21078 0 -0.033063)
(-0.213367 0 -0.0202961)
(-0.215467 0 -0.00952229)
(-0.216504 0 -0.00292192)
(-0.0330601 0 -0.0550591)
(-0.037108 0 -0.0461686)
(-0.0417744 0 -0.0359177)
(-0.0472596 0 -0.0232766)
(-0.0540589 0 -0.00434342)
(-0.0626739 0 0.0249983)
(-0.0725707 0 0.0537327)
(-0.0806609 0 0.0345958)
(-0.0823326 0 -0.105734)
(-0.0747219 0 -0.399271)
(-0.0729903 0 -0.754441)
(-0.0982944 0 -1.01748)
(-0.130578 0 -1.15513)
(-0.164814 0 -1.23023)
(-0.181267 0 -1.3006)
(-0.163542 0 -1.36948)
(-0.134562 0 -1.42277)
(-0.0804574 0 -1.53075)
(-0.0253713 0 -1.67928)
(-0.00339828 0 -1.73719)
(0.0168842 0 -1.75002)
(0.0386315 0 -1.73617)
(0.0568481 0 -1.69955)
(0.0680039 0 -1.64619)
(0.0716251 0 -1.58363)
(0.0684194 0 -1.51775)
(0.0594324 0 -1.45228)
(0.0456315 0 -1.38903)
(0.0277216 0 -1.32778)
(0.00626279 0 -1.26547)
(-0.0179812 0 -1.19524)
(-0.0438526 0 -1.10743)
(-0.0706895 0 -0.993126)
(-0.0991888 0 -0.852296)
(-0.127621 0 -0.708091)
(-0.152128 0 -0.558021)
(-0.171766 0 -0.420803)
(-0.186931 0 -0.306879)
(-0.19814 0 -0.219422)
(-0.206133 0 -0.156872)
(-0.211722 0 -0.114991)
(-0.215705 0 -0.0884129)
(-0.218807 0 -0.0716598)
(-0.221621 0 -0.0598324)
(-0.224515 0 -0.0492012)
(-0.227549 0 -0.037751)
(-0.230478 0 -0.0254412)
(-0.23295 0 -0.0138726)
(-0.234696 0 -0.0052747)
(-0.23539 0 -0.00105126)
(-0.0262838 0 -0.0526477)
(-0.0299863 0 -0.0433637)
(-0.0343235 0 -0.0326175)
(-0.0395048 0 -0.0192545)
(-0.0459874 0 0.000702178)
(-0.0541666 0 0.0309944)
(-0.0634657 0 0.0594376)
(-0.0711697 0 0.0376779)
(-0.0737188 0 -0.106906)
(-0.0707399 0 -0.400999)
(-0.0764616 0 -0.74535)
(-0.0991549 0 -0.996447)
(-0.13123 0 -1.13651)
(-0.16449 0 -1.21023)
(-0.15967 0 -1.31103)
(-0.135166 0 -1.3837)
(-0.103242 0 -1.45572)
(-0.0392081 0 -1.57306)
(-0.0023269 0 -1.69748)
(0.0058829 0 -1.7474)
(0.0267842 0 -1.76553)
(0.0494199 0 -1.75278)
(0.0662487 0 -1.7117)
(0.0747416 0 -1.65168)
(0.0753728 0 -1.58221)
(0.0694504 0 -1.50993)
(0.0583491 0 -1.43871)
(0.0431219 0 -1.37013)
(0.0243393 0 -1.30375)
(0.00229146 0 -1.23652)
(-0.0226482 0 -1.16183)
(-0.0499273 0 -1.0703)
(-0.0784326 0 -0.952384)
(-0.107056 0 -0.809324)
(-0.135363 0 -0.664615)
(-0.161588 0 -0.519074)
(-0.183033 0 -0.388211)
(-0.199852 0 -0.280867)
(-0.21249 0 -0.199395)
(-0.221701 0 -0.141812)
(-0.228361 0 -0.103634)
(-0.23333 0 -0.0793838)
(-0.237375 0 -0.0636387)
(-0.241073 0 -0.0518011)
(-0.244714 0 -0.0407385)
(-0.248254 0 -0.029202)
(-0.251393 0 -0.017758)
(-0.253795 0 -0.00810405)
(-0.255317 0 -0.00193225)
(-0.255904 0 0.000229442)
(-0.019281 0 -0.0504864)
(-0.0225782 0 -0.0408057)
(-0.0265119 0 -0.0295568)
(-0.0312943 0 -0.0154777)
(-0.0373357 0 0.00544716)
(-0.0449413 0 0.0365852)
(-0.0535692 0 0.0647801)
(-0.0609484 0 0.0409347)
(-0.0645973 0 -0.10629)
(-0.0675711 0 -0.397142)
(-0.0774143 0 -0.736298)
(-0.0913202 0 -0.979293)
(-0.128613 0 -1.11211)
(-0.167244 0 -1.19784)
(-0.162184 0 -1.32677)
(-0.136108 0 -1.4003)
(-0.0966115 0 -1.48926)
(-0.0446101 0 -1.60673)
(-0.0214677 0 -1.70837)
(-0.00203575 0 -1.7599)
(0.0301085 0 -1.78563)
(0.0561295 0 -1.77036)
(0.0717173 0 -1.72235)
(0.0776942 0 -1.65472)
(0.075746 0 -1.57824)
(0.0676574 0 -1.49993)
(0.0549911 0 -1.42351)
(0.0387837 0 -1.35017)
(0.0194383 0 -1.27899)
(-0.00294728 0 -1.20698)
(-0.0279542 0 -1.12777)
(-0.055364 0 -1.03147)
(-0.0857972 0 -0.909216)
(-0.1172 0 -0.76545)
(-0.147751 0 -0.619436)
(-0.175648 0 -0.477881)
(-0.198492 0 -0.353224)
(-0.216463 0 -0.252575)
(-0.230029 0 -0.177302)
(-0.24002 0 -0.124847)
(-0.247398 0 -0.0904167)
(-0.253097 0 -0.0684373)
(-0.257908 0 -0.0536377)
(-0.262359 0 -0.041877)
(-0.266636 0 -0.0307399)
(-0.270597 0 -0.0197135)
(-0.273915 0 -0.00976695)
(-0.276308 0 -0.00244274)
(-0.277747 0 0.00122719)
(-0.278359 0 0.00143633)
(-0.0120516 0 -0.0486113)
(-0.0148825 0 -0.03854)
(-0.0183377 0 -0.0267927)
(-0.0226252 0 -0.0120182)
(-0.0280983 0 0.00981012)
(-0.0349671 0 0.0417042)
(-0.0427227 0 0.0697479)
(-0.0496071 0 0.0445988)
(-0.054087 0 -0.103235)
(-0.0596994 0 -0.390688)
(-0.0696052 0 -0.727802)
(-0.0909016 0 -0.962447)
(-0.140264 0 -1.08469)
(-0.161059 0 -1.19573)
(-0.150989 0 -1.33459)
(-0.134529 0 -1.4216)
(-0.101592 0 -1.517)
(-0.0718421 0 -1.62725)
(-0.0534417 0 -1.72084)
(-0.012235 0 -1.78714)
(0.0341527 0 -1.8126)
(0.060341 0 -1.7883)
(0.0732767 0 -1.73101)
(0.0765781 0 -1.65536)
(0.0723593 0 -1.57213)
(0.0625852 0 -1.48827)
(0.0488205 0 -1.40719)
(0.0319268 0 -1.32943)
(0.0120264 0 -1.25351)
(-0.0111978 0 -1.17632)
(-0.0379525 0 -1.09205)
(-0.067426 0 -0.99067)
(-0.099407 0 -0.863213)
(-0.132574 0 -0.717378)
(-0.165139 0 -0.571483)
(-0.194236 0 -0.43464)
(-0.218061 0 -0.316611)
(-0.236704 0 -0.22295)
(-0.250724 0 -0.154081)
(-0.261078 0 -0.106807)
(-0.26884 0 -0.0760129)
(-0.275015 0 -0.0560936)
(-0.280393 0 -0.042077)
(-0.285425 0 -0.0304465)
(-0.290183 0 -0.0195714)
(-0.29446 0 -0.00956291)
(-0.297963 0 -0.00156102)
(-0.300499 0 0.00322589)
(-0.302171 0 0.00438816)
(-0.303163 0 0.00269258)
(-0.0046007 0 -0.047059)
(-0.00690447 0 -0.0366114)
(-0.00980613 0 -0.024382)
(-0.0135007 0 -0.00894899)
(-0.0182739 0 0.0136945)
(-0.0242305 0 0.0462336)
(-0.0308676 0 0.0741967)
(-0.0370355 0 0.0483977)
(-0.0425305 0 -0.0987823)
(-0.0498876 0 -0.384797)
(-0.0588729 0 -0.716566)
(-0.0924638 0 -0.935784)
(-0.154446 0 -1.05596)
(-0.172748 0 -1.2029)
(-0.15183 0 -1.34071)
(-0.140617 0 -1.43562)
(-0.125276 0 -1.53527)
(-0.101806 0 -1.64592)
(-0.0636254 0 -1.74469)
(-0.005407 0 -1.82555)
(0.0390946 0 -1.84017)
(0.0609737 0 -1.80359)
(0.0704504 0 -1.73685)
(0.0711416 0 -1.65367)
(0.0650429 0 -1.56426)
(0.0540615 0 -1.47543)
(0.0396288 0 -1.39015)
(0.0223659 0 -1.30825)
(0.00215369 0 -1.22757)
(-0.0212636 0 -1.14488)
(-0.0482803 0 -1.05466)
(-0.0806465 0 -0.946282)
(-0.117882 0 -0.812865)
(-0.154775 0 -0.665838)
(-0.188376 0 -0.521356)
(-0.21777 0 -0.389941)
(-0.241824 0 -0.279091)
(-0.260471 0 -0.192831)
(-0.274384 0 -0.130565)
(-0.284648 0 -0.0884343)
(-0.292443 0 -0.0610344)
(-0.29882 0 -0.0428558)
(-0.304528 0 -0.0294005)
(-0.309915 0 -0.0178947)
(-0.314967 0 -0.00743701)
(-0.319495 0 0.00147979)
(-0.323337 0 0.00787359)
(-0.326498 0 0.0110223)
(-0.329353 0 0.0112405)
(-0.332022 0 0.00882897)
(0.00306128 0 -0.0458661)
(0.00134423 0 -0.0350647)
(-0.000930703 0 -0.0223819)
(-0.00393839 0 -0.00634583)
(-0.00788854 0 0.0169938)
(-0.0127786 0 0.050028)
(-0.0181182 0 0.0779611)
(-0.023357 0 0.0520685)
(-0.0295065 0 -0.0938309)
(-0.0357739 0 -0.379608)
(-0.0467931 0 -0.700348)
(-0.089795 0 -0.90286)
(-0.143034 0 -1.02738)
(-0.154357 0 -1.20704)
(-0.136812 0 -1.34777)
(-0.140857 0 -1.43786)
(-0.13509 0 -1.54645)
(-0.107809 0 -1.66902)
(-0.0514245 0 -1.78309)