/*--------------------------------*- C++ -*----------------------------------*\
  =========                 |
  \\      /  F ield         | OpenFOAM: The Open Source CFD Toolbox
   \\    /   O peration     | Website:  https://openfoam.org
    \\  /    A nd           | Version:  9
     \\/     M anipulation  |
\*---------------------------------------------------------------------------*/
FoamFile
{
    format      ascii;
    class       volScalarField;
    location    "0.11";
    object      alpha.water;
}
// * * * * * * * * * * * * * * * * * * * * * * * * * * * * * * * * * * * * * //

dimensions      [0 0 0 0 0 0 0];

internalField   nonuniform List<scalar> 
20000
(
4.29264e-319
4.09986e-319
3.91537e-319
3.73889e-319
3.57012e-319
3.40866e-319
3.25451e-319
3.10708e-319
2.96617e-319
2.83159e-319
2.70313e-319
2.58041e-319
2.46321e-319
2.35136e-319
2.24454e-319
2.14266e-319
2.04553e-319
1.95294e-319
1.8645e-319
1.78022e-319
1.69988e-319
1.6231e-319
1.54959e-319
1.47923e-319
1.41174e-319
1.34702e-319
1.28516e-319
1.22627e-319
1.17034e-319
1.11718e-319
9.15998e-320
9.16986e-320
9.17974e-320
9.18567e-320
9.1916e-320
9.19555e-320
9.20148e-320
9.20938e-320
9.21926e-320
9.23112e-320
9.24298e-320
9.25484e-320
9.2667e-320
9.27756e-320
9.28646e-320
9.29436e-320
9.30029e-320
9.30622e-320
9.32104e-320
9.36452e-320
9.49001e-320
9.77262e-320
1.00908e-319
9.97519e-320
9.64416e-320
9.46235e-320
9.38922e-320
9.35464e-320
9.32203e-320
9.28053e-320
9.21729e-320
9.11848e-320
8.9663e-320
8.79536e-320
9.1501e-320
1.15888e-319
9.83388e-320
8.78646e-320
8.8754e-320
9.03152e-320
1.11382e-319
1.1737e-319
1.23378e-319
1.29495e-319
1.35789e-319
1.42311e-319
1.49099e-319
1.56184e-319
1.63575e-319
1.71302e-319
1.79385e-319
1.87854e-319
1.96717e-319
2.05996e-319
2.15709e-319
2.25897e-319
2.36559e-319
2.47715e-319
2.59404e-319
2.71627e-319
2.84424e-319
2.97823e-319
3.11834e-319
3.26479e-319
3.41795e-319
3.57822e-319
3.74561e-319
3.92051e-319
4.10331e-319
4.29432e-319
4.29264e-319
4.09976e-319
3.91537e-319
3.73889e-319
3.57012e-319
3.40866e-319
3.25441e-319
3.10698e-319
2.96617e-319
2.83159e-319
2.70303e-319
2.58031e-319
2.46311e-319
2.35126e-319
2.24454e-319
2.14266e-319
2.04553e-319
1.95284e-319
1.8645e-319
1.78022e-319
1.69988e-319
1.6231e-319
1.54959e-319
1.47923e-319
1.41174e-319
1.34702e-319
1.28516e-319
1.22627e-319
1.17034e-319
1.11718e-319
9.15998e-320
9.16986e-320
9.17974e-320
9.18567e-320
9.1916e-320
9.19555e-320
9.20148e-320
9.20938e-320
9.21926e-320
9.23112e-320
9.24298e-320
9.25484e-320
9.2667e-320
9.27855e-320
9.28745e-320
9.29436e-320
9.30128e-320
9.31017e-320
9.32796e-320
9.37737e-320
9.51076e-320
9.78843e-320
1.00661e-319
9.94851e-320
9.63823e-320
9.45839e-320
9.38725e-320
9.35167e-320
9.32104e-320
9.28053e-320
9.21926e-320
9.1244e-320
8.98409e-320
8.83192e-320
9.22223e-320
1.15048e-319
9.81807e-320
8.78844e-320
8.87342e-320
9.03152e-320
1.11382e-319
1.1737e-319
1.23378e-319
1.29495e-319
1.35789e-319
1.42311e-319
1.49099e-319
1.56184e-319
1.63575e-319
1.71302e-319
1.79385e-319
1.87854e-319
1.96717e-319
2.06006e-319
2.15729e-319
2.25907e-319
2.36559e-319
2.47725e-319
2.59404e-319
2.71637e-319
2.84443e-319
2.97833e-319
3.11844e-319
3.26498e-319
3.41824e-319
3.57842e-319
3.74581e-319
3.9209e-319
4.10371e-319
4.29472e-319
4.29254e-319
4.09976e-319
3.91527e-319
3.73879e-319
3.57002e-319
3.40866e-319
3.25431e-319
3.10688e-319
2.96607e-319
2.83159e-319
2.70293e-319
2.58021e-319
2.46302e-319
2.35126e-319
2.24444e-319
2.14266e-319
2.04543e-319
1.95284e-319
1.8645e-319
1.78022e-319
1.69988e-319
1.6231e-319
1.54959e-319
1.47923e-319
1.41164e-319
1.34702e-319
1.28516e-319
1.22627e-319
1.17034e-319
1.11718e-319
9.15998e-320
9.16986e-320
9.17974e-320
9.18567e-320
9.1916e-320
9.19555e-320
9.20148e-320
9.20938e-320
9.21926e-320
9.23112e-320
9.24298e-320
9.25484e-320
9.26768e-320
9.27855e-320
9.28843e-320
9.29634e-320
9.30424e-320
9.31413e-320
9.33586e-320
9.3912e-320
9.52855e-320
9.7904e-320
1.00285e-319
9.92084e-320
9.63724e-320
9.46235e-320
9.38824e-320
9.35167e-320
9.32005e-320
9.28053e-320
9.22322e-320
9.13429e-320
9.00188e-320
8.87144e-320
9.28646e-320
1.12074e-319
9.80819e-320
8.81808e-320
8.8833e-320
9.03547e-320
1.11402e-319
1.1737e-319
1.23378e-319
1.29495e-319
1.35789e-319
1.42321e-319
1.49109e-319
1.56184e-319
1.63575e-319
1.71302e-319
1.79405e-319
1.87864e-319
1.96737e-319
2.06015e-319
2.15729e-319
2.25916e-319
2.36578e-319
2.47744e-319
2.59424e-319
2.71657e-319
2.84463e-319
2.97862e-319
3.11874e-319
3.26538e-319
3.41854e-319
3.57881e-319
3.7463e-319
3.9213e-319
4.1042e-319
4.29521e-319
4.29244e-319
4.09956e-319
3.91517e-319
3.73869e-319
3.56992e-319
3.40846e-319
3.25431e-319
3.10688e-319
2.96597e-319
2.83139e-319
2.70293e-319
2.58021e-319
2.46302e-319
2.35116e-319
2.24444e-319
2.14257e-319
2.04543e-319
1.95275e-319
1.86441e-319
1.78022e-319
1.69978e-319
1.6231e-319
1.54959e-319
1.47923e-319
1.41164e-319
1.34702e-319
1.28516e-319
1.22627e-319
1.17034e-319
1.11718e-319
9.15998e-320
9.16986e-320
9.17974e-320
9.18567e-320
9.1916e-320
9.19555e-320
9.20148e-320
9.21037e-320
9.22025e-320
9.23112e-320
9.24298e-320
9.25583e-320
9.26867e-320
9.27954e-320
9.28942e-320
9.29832e-320
9.30622e-320
9.31907e-320
9.34377e-320
9.40405e-320
9.54337e-320
9.78645e-320
9.98803e-320
9.89119e-320
9.63823e-320
9.46827e-320
9.3912e-320
9.35266e-320
9.32104e-320
9.28251e-320
9.22717e-320
9.14219e-320
9.01769e-320
8.90702e-320
9.34377e-320
1.09524e-319
9.7993e-320
8.85959e-320
8.89911e-320
9.04239e-320
1.11441e-319
1.174e-319
1.23398e-319
1.29504e-319
1.35809e-319
1.4233e-319
1.49109e-319
1.56194e-319
1.63595e-319
1.71322e-319
1.79405e-319
1.87883e-319
1.96747e-319
2.06025e-319
2.15749e-319
2.25936e-319
2.36598e-319
2.47764e-319
2.59464e-319
2.71697e-319
2.84503e-319
2.97902e-319
3.11914e-319
3.26577e-319
3.41903e-319
3.57931e-319
3.7468e-319
3.92189e-319
4.1049e-319
4.296e-319
4.29224e-319
4.09936e-319
3.91498e-319
3.7385e-319
3.56972e-319
3.40846e-319
3.25411e-319
3.10668e-319
2.96588e-319
2.83139e-319
2.70284e-319
2.58011e-319
2.46292e-319
2.35116e-319
2.24434e-319
2.14247e-319
2.04543e-319
1.95275e-319
1.86441e-319
1.78022e-319
1.69978e-319
1.6231e-319
1.54959e-319
1.47923e-319
1.41164e-319
1.34702e-319
1.28516e-319
1.22627e-319
1.17034e-319
1.11718e-319
9.15998e-320
9.16986e-320
9.17974e-320
9.18567e-320
9.1916e-320
9.19555e-320
9.20247e-320
9.21037e-320
9.22025e-320
9.23112e-320
9.24397e-320
9.25681e-320
9.26867e-320
9.28053e-320
9.29041e-320
9.30029e-320
9.31017e-320
9.32401e-320
9.35167e-320
9.41689e-320
9.55523e-320
9.77855e-320
9.94752e-320
9.86254e-320
9.63823e-320
9.47618e-320
9.39614e-320
9.35563e-320
9.32203e-320
9.28448e-320
9.23112e-320
9.1501e-320
9.02954e-320
8.93962e-320
9.39318e-320
1.0744e-319
9.7825e-320
8.90306e-320
8.91887e-320
9.05227e-320
1.1152e-319
1.17449e-319
1.23418e-319
1.29524e-319
1.35819e-319
1.4234e-319
1.49129e-319
1.56204e-319
1.63605e-319
1.71342e-319
1.79425e-319
1.87903e-319
1.96767e-319
2.06055e-319
2.15778e-319
2.25966e-319
2.36638e-319
2.47804e-319
2.59493e-319
2.71736e-319
2.84542e-319
2.97941e-319
3.11963e-319
3.26627e-319
3.41963e-319
3.58e-319
3.74759e-319
3.92268e-319
4.10569e-319
4.29699e-319
4.29195e-319
4.09916e-319
3.91478e-319
3.7383e-319
3.56953e-319
3.40826e-319
3.25392e-319
3.10659e-319
2.96578e-319
2.83119e-319
2.70274e-319
2.58001e-319
2.46282e-319
2.35096e-319
2.24424e-319
2.14247e-319
2.04533e-319
1.95275e-319
1.86441e-319
1.78022e-319
1.69978e-319
1.62301e-319
1.54959e-319
1.47923e-319
1.41164e-319
1.34702e-319
1.28516e-319
1.22627e-319
1.17034e-319
1.11718e-319
9.15998e-320
9.16986e-320
9.17974e-320
9.18567e-320
9.1916e-320
9.19555e-320
9.20247e-320
9.21136e-320
9.22124e-320
9.23211e-320
9.24496e-320
9.25681e-320
9.26966e-320
9.28152e-320
9.29239e-320
9.30227e-320
9.31314e-320
9.32994e-320
9.35958e-320
9.42677e-320
9.56313e-320
9.76669e-320
9.90997e-320
9.83586e-320
9.63626e-320
9.48211e-320
9.40108e-320
9.3576e-320
9.32401e-320
9.28547e-320
9.23508e-320
9.15602e-320
9.04041e-320
8.96828e-320
9.41986e-320
1.05631e-319
9.76076e-320
8.94358e-320
8.93864e-320
9.06314e-320
1.116e-319
1.17509e-319
1.23457e-319
1.29544e-319
1.35838e-319
1.4235e-319
1.49149e-319
1.56224e-319
1.63625e-319
1.71362e-319
1.79445e-319
1.87923e-319
1.96796e-319
2.06085e-319
2.15808e-319
2.26005e-319
2.36677e-319
2.47843e-319
2.59543e-319
2.71776e-319
2.84592e-319
2.98001e-319
3.12032e-319
3.26696e-319
3.42042e-319
3.58079e-319
3.74848e-319
3.92367e-319
4.10687e-319
4.29817e-319
4.29165e-319
4.09887e-319
3.91448e-319
3.7381e-319
3.56933e-319
3.40806e-319
3.25382e-319
3.10639e-319
2.96558e-319
2.831e-319
2.70254e-319
2.57981e-319
2.46272e-319
2.35096e-319
2.24424e-319
2.14237e-319
2.04523e-319
1.95265e-319
1.86431e-319
1.78012e-319
1.69978e-319
1.62301e-319
1.54959e-319
1.47913e-319
1.41164e-319
1.34702e-319
1.28516e-319
1.22627e-319
1.17034e-319
1.11718e-319
9.15998e-320
9.16986e-320
9.17974e-320
9.18567e-320
9.1916e-320
9.19654e-320
9.20345e-320
9.21136e-320
9.22124e-320
9.2331e-320
9.24496e-320
9.2578e-320
9.27065e-320
9.28251e-320
9.29337e-320
9.30424e-320
9.3161e-320
9.33389e-320
9.36748e-320
9.43665e-320
9.56709e-320
9.75286e-320
9.87538e-320
9.81116e-320
9.63428e-320
9.48804e-320
9.40701e-320
9.35958e-320
9.32499e-320
9.28646e-320
9.23705e-320
9.16097e-320
9.04931e-320
8.99397e-320
9.43665e-320
1.0411e-319
9.73705e-320
8.98014e-320
8.9584e-320
9.07401e-320
1.11698e-319
1.17568e-319
1.23497e-319
1.29584e-319
1.35868e-319
1.4238e-319
1.49168e-319
1.56243e-319
1.63654e-319
1.71381e-319
1.79484e-319
1.87952e-319
1.96826e-319
2.06124e-319
2.15847e-319
2.26045e-319
2.36717e-319
2.47892e-319
2.59592e-319
2.71835e-319
2.84661e-319
2.9807e-319
3.12101e-319
3.26775e-319
3.42131e-319
3.58178e-319
3.74956e-319
3.92486e-319
4.10816e-319
4.29956e-319
4.29126e-319
4.09857e-319
3.91419e-319
3.7378e-319
3.56913e-319
3.40777e-319
3.25352e-319
3.10619e-319
2.96538e-319
2.8309e-319
2.70234e-319
2.57971e-319
2.46262e-319
2.35076e-319
2.24405e-319
2.14227e-319
2.04523e-319
1.95255e-319
1.86421e-319
1.78002e-319
1.69968e-319
1.62291e-319
1.54949e-319
1.47903e-319
1.41164e-319
1.34692e-319
1.28516e-319
1.22627e-319
1.17034e-319
1.11718e-319
9.15998e-320
9.16986e-320
9.17974e-320
9.18567e-320
9.1916e-320
9.19654e-320
9.20345e-320
9.21136e-320
9.22124e-320
9.2331e-320
9.24496e-320
9.25879e-320
9.27065e-320
9.28349e-320
9.29436e-320
9.30622e-320
9.32005e-320
9.33883e-320
9.37341e-320
9.44357e-320
9.57005e-320
9.73803e-320
9.84475e-320
9.78843e-320
9.63033e-320
9.49298e-320
9.41096e-320
9.36254e-320
9.32598e-320
9.28843e-320
9.23903e-320
9.16393e-320
9.05721e-320
9.01769e-320
9.45049e-320
1.02845e-319
9.71333e-320
9.01571e-320
8.97915e-320
9.08488e-320
1.11787e-319
1.17627e-319
1.23546e-319
1.29623e-319
1.35888e-319
1.42409e-319
1.49188e-319
1.56283e-319
1.63674e-319
1.71421e-319
1.79514e-319
1.87982e-319
1.96865e-319
2.06164e-319
2.15897e-319
2.26084e-319
2.36766e-319
2.47942e-319
2.59661e-319
2.71914e-319
2.8473e-319
2.98159e-319
3.1219e-319
3.26874e-319
3.42229e-319
3.58296e-319
3.75085e-319
3.92624e-319
4.10964e-319
4.30114e-319
4.29086e-319
4.09818e-319
3.91379e-319
3.73751e-319
3.56873e-319
3.40747e-319
3.25332e-319
3.10599e-319
2.96518e-319
2.8307e-319
2.70224e-319
2.57962e-319
2.46242e-319
2.35067e-319
2.24395e-319
2.14217e-319
2.04504e-319
1.95255e-319
1.86421e-319
1.78002e-319
1.69959e-319
1.62291e-319
1.54939e-319
1.47903e-319
1.41155e-319
1.34692e-319
1.28516e-319
1.22627e-319
1.17034e-319
1.11718e-319
9.15998e-320
9.16986e-320
9.17974e-320
9.18567e-320
9.1916e-320
9.19654e-320
9.20345e-320
9.21136e-320
9.22124e-320
9.2331e-320
9.24594e-320
9.25879e-320
9.27164e-320
9.28448e-320
9.29634e-320
9.3082e-320
9.32203e-320
9.34377e-320
9.37934e-320
9.45049e-320
9.57104e-320
9.72321e-320
9.8161e-320
9.76669e-320
9.62539e-320
9.49594e-320
9.41491e-320
9.36551e-320
9.32796e-320
9.28843e-320
9.24002e-320
9.16591e-320
9.06314e-320
9.03943e-320
9.46037e-320
1.01817e-319
9.6906e-320
9.04733e-320
8.99792e-320
9.09575e-320
1.11876e-319
1.17686e-319
1.23595e-319
1.29653e-319
1.35927e-319
1.42439e-319
1.49228e-319
1.56303e-319
1.63714e-319
1.71451e-319
1.79543e-319
1.88022e-319
1.96915e-319
2.06203e-319
2.15946e-319
2.26144e-319
2.36835e-319
2.48021e-319
2.5972e-319
2.71983e-319
2.84819e-319
2.98238e-319
3.12289e-319
3.26992e-319
3.42358e-319
3.58425e-319
3.75233e-319
3.92782e-319
4.11142e-319
4.30311e-319
4.29027e-319
4.09768e-319
3.9134e-319
3.73711e-319
3.56854e-319
3.40727e-319
3.25303e-319
3.1057e-319
2.96499e-319
2.8304e-319
2.70205e-319
2.57942e-319
2.46223e-319
2.35057e-319
2.24385e-319
2.14207e-319
2.04504e-319
1.95235e-319
1.86411e-319
1.77992e-319
1.69959e-319
1.62281e-319
1.54939e-319
1.47903e-319
1.41145e-319
1.34682e-319
1.28506e-319
1.22627e-319
1.17034e-319
1.11718e-319
9.15998e-320
9.16986e-320
9.17974e-320
9.18567e-320
9.1916e-320
9.19654e-320
9.20345e-320
9.21136e-320
9.22223e-320
9.2331e-320
9.24693e-320
9.25879e-320
9.27262e-320
9.28547e-320
9.29832e-320
9.31017e-320
9.32598e-320
9.34673e-320
9.38527e-320
9.45444e-320
9.57005e-320
9.70938e-320
9.79139e-320
9.74693e-320
9.61946e-320
9.49792e-320
9.41788e-320
9.36748e-320
9.32796e-320
9.28843e-320
9.23903e-320
9.16788e-320
9.06808e-320
9.06116e-320
9.46827e-320
1.00947e-319
9.67183e-320
9.07895e-320
9.01769e-320
9.10563e-320
1.11955e-319
1.17746e-319
1.23635e-319
1.29692e-319
1.35957e-319
1.42469e-319
1.49257e-319
1.56342e-319
1.63743e-319
1.7148e-319
1.79583e-319
1.88071e-319
1.96954e-319
2.06263e-319
2.16006e-319
2.26203e-319
2.36895e-319
2.4808e-319
2.59799e-319
2.72072e-319
2.84908e-319
2.98346e-319
3.12408e-319
3.27111e-319
3.42486e-319
3.58573e-319
3.75391e-319
3.9296e-319
4.11329e-319
4.30519e-319
4.28977e-319
4.09719e-319
3.913e-319
3.73672e-319
3.56814e-319
3.40688e-319
3.25273e-319
3.1055e-319
2.96469e-319
2.83021e-319
2.70175e-319
2.57922e-319
2.46203e-319
2.35037e-319
2.24365e-319
2.14187e-319
2.04484e-319
1.95235e-319
1.86401e-319
1.77982e-319
1.69959e-319
1.62271e-319
1.54939e-319
1.47894e-319
1.41145e-319
1.34682e-319
1.28506e-319
1.22627e-319
1.17034e-319
1.11718e-319
9.15998e-320
9.16986e-320
9.17974e-320
9.18567e-320
9.1916e-320
9.19654e-320
9.20345e-320
9.21136e-320
9.22223e-320
9.23409e-320
9.24693e-320
9.25978e-320
9.27262e-320
9.28646e-320
9.29832e-320
9.31215e-320
9.32796e-320
9.3497e-320
9.38922e-320
9.45839e-320
9.56906e-320
9.69554e-320
9.76867e-320
9.72914e-320
9.61254e-320
9.49891e-320
9.41986e-320
9.36748e-320
9.32796e-320
9.28843e-320
9.23903e-320
9.16788e-320
9.075e-320
9.08389e-320
9.47618e-320
1.00236e-319
9.65602e-320
9.10958e-320
9.03547e-320
9.11452e-320
1.12024e-319
1.17805e-319
1.23675e-319
1.29722e-319
1.35987e-319
1.42508e-319
1.49287e-319
1.56372e-319
1.63773e-319
1.7152e-319
1.79632e-319
1.8812e-319
1.97014e-319
2.06322e-319
2.16065e-319
2.26272e-319
2.36974e-319
2.48159e-319
2.59888e-319
2.72171e-319
2.85017e-319
2.98455e-319
3.12526e-319
3.27249e-319
3.42644e-319
3.58731e-319
3.75569e-319
3.93158e-319
4.11537e-319
4.30746e-319
4.28918e-319
4.09659e-319
3.91241e-319
3.73632e-319
3.56775e-319
3.40648e-319
3.25234e-319
3.1051e-319
2.96439e-319
2.83001e-319
2.70155e-319
2.57892e-319
2.46183e-319
2.35017e-319
2.24345e-319
2.14177e-319
2.04464e-319
1.95215e-319
1.86391e-319
1.77982e-319
1.69939e-319
1.62271e-319
1.54919e-319
1.47884e-319
1.41145e-319
1.34682e-319
1.28497e-319
1.22617e-319
1.17024e-319
1.11718e-319
9.15899e-320
9.16986e-320
9.17974e-320
9.18567e-320
9.1916e-320
9.19654e-320
9.20345e-320
9.21235e-320
9.22322e-320
9.23508e-320
9.24693e-320
9.26077e-320
9.27361e-320
9.28646e-320
9.30029e-320
9.31413e-320
9.32994e-320
9.35365e-320
9.39318e-320
9.46037e-320
9.56511e-320
9.6827e-320
9.74693e-320
9.71135e-320
9.60661e-320
9.49891e-320
9.42084e-320
9.36946e-320
9.32796e-320
9.28646e-320
9.23705e-320
9.16788e-320
9.08093e-320
9.10563e-320
9.4831e-320
9.96234e-320
9.64317e-320
9.13824e-320
9.05326e-320
9.12243e-320
1.12084e-319
1.17845e-319
1.23714e-319
1.29761e-319
1.36026e-319
1.42528e-319
1.49326e-319
1.56411e-319
1.63812e-319
1.71569e-319
1.79682e-319
1.8817e-319
1.97063e-319
2.06381e-319
2.16124e-319
2.26341e-319
2.37043e-319
2.48248e-319
2.59977e-319
2.7227e-319
2.85125e-319
2.98574e-319
3.12665e-319
3.27388e-319
3.42803e-319
3.58909e-319
3.75757e-319
3.93365e-319
4.11774e-319
4.31003e-319
4.28859e-319
4.0961e-319
3.91201e-319
3.73573e-319
3.56725e-319
3.40609e-319
3.25204e-319
3.10471e-319
2.9641e-319
2.82961e-319
2.70135e-319
2.57873e-319
2.46163e-319
2.34997e-319
2.24326e-319
2.14158e-319
2.04464e-319
1.95205e-319
1.86381e-319
1.77962e-319
1.69939e-319
1.62261e-319
1.54919e-319
1.47884e-319
1.41135e-319
1.34672e-319
1.28497e-319
1.22607e-319
1.17024e-319
1.11718e-319
9.15899e-320
9.16986e-320
9.17875e-320
9.18567e-320
9.1916e-320
9.19654e-320
9.20345e-320
9.21235e-320
9.22322e-320
9.23508e-320
9.24693e-320
9.26077e-320
9.2746e-320
9.28843e-320
9.30128e-320
9.31511e-320
9.33191e-320
9.35563e-320
9.39515e-320
9.46235e-320
9.56215e-320
9.66985e-320
9.72815e-320
9.69554e-320
9.59871e-320
9.49792e-320
9.42282e-320
9.36946e-320
9.32697e-320
9.28547e-320
9.23606e-320
9.16788e-320
9.08883e-320
9.12836e-320
9.491e-320
9.91293e-320
9.63329e-320
9.16689e-320
9.06907e-320
9.13033e-320
1.12133e-319
1.17884e-319
1.23754e-319
1.29791e-319
1.36046e-319
1.42568e-319
1.49356e-319
1.56441e-319
1.63852e-319
1.71609e-319
1.79721e-319
1.88219e-319
1.97112e-319
2.0644e-319
2.16203e-319
2.2642e-319
2.37132e-319
2.48337e-319
2.60076e-319
2.72369e-319
2.85244e-319
2.98712e-319
3.12803e-319
3.27546e-319
3.4297e-319
3.59097e-319
3.75964e-319
3.93592e-319
4.12021e-319
4.3128e-319
4.2879e-319
4.09541e-319
3.91142e-319
3.73524e-319
3.56676e-319
3.40569e-319
3.25154e-319
3.10441e-319
2.9638e-319
2.82942e-319
2.70096e-319
2.57843e-319
2.46144e-319
2.34978e-319
2.24306e-319
2.14148e-319
2.04444e-319
1.95195e-319
1.86362e-319
1.77953e-319
1.69919e-319
1.62251e-319
1.54909e-319
1.47874e-319
1.41125e-319
1.34663e-319
1.28497e-319
1.22607e-319
1.17015e-319
1.11708e-319
9.15899e-320
9.16986e-320
9.17875e-320
9.18567e-320
9.1916e-320
9.19654e-320
9.20345e-320
9.21235e-320
9.22322e-320
9.23508e-320
9.24792e-320
9.26077e-320
9.2746e-320
9.28843e-320
9.30227e-320
9.3161e-320
9.33389e-320
9.3576e-320
9.39812e-320
9.46432e-320
9.55918e-320
9.658e-320
9.71037e-320
9.67973e-320
9.59179e-320
9.49594e-320
9.42282e-320
9.36946e-320
9.32598e-320
9.28448e-320
9.23409e-320
9.16689e-320
9.09674e-320
9.15108e-320
9.49891e-320
9.87143e-320
9.62638e-320
9.19357e-320
9.08587e-320
9.13626e-320
1.12183e-319
1.17924e-319
1.23783e-319
1.29821e-319
1.36085e-319
1.42587e-319
1.49386e-319
1.5648e-319
1.63891e-319
1.71658e-319
1.79781e-319
1.88279e-319
1.97172e-319
2.065e-319
2.16262e-319
2.26499e-319
2.37211e-319
2.48436e-319
2.60185e-319
2.72487e-319
2.85372e-319
2.9885e-319
3.12961e-319
3.27714e-319
3.43158e-319
3.59304e-319
3.76182e-319
3.9383e-319
4.12288e-319
4.31566e-319
4.28711e-319
4.09482e-319
3.91073e-319
3.73464e-319
3.56617e-319
3.4051e-319
3.25115e-319
3.10402e-319
2.96341e-319
2.82902e-319
2.70076e-319
2.57813e-319
2.46124e-319
2.34948e-319
2.24286e-319
2.14128e-319
2.04425e-319
1.95176e-319
1.86362e-319
1.77943e-319
1.69919e-319
1.62241e-319
1.54899e-319
1.47864e-319
1.41125e-319
1.34663e-319
1.28487e-319
1.22607e-319
1.17015e-319
1.11708e-319
9.158e-320
9.16986e-320
9.17875e-320
9.18567e-320
9.1916e-320
9.19654e-320
9.20345e-320
9.21235e-320
9.22322e-320
9.23508e-320
9.24792e-320
9.26175e-320
9.2746e-320
9.28843e-320
9.30227e-320
9.31709e-320
9.33488e-320
9.35958e-320
9.40009e-320
9.46432e-320
9.55523e-320
9.64614e-320
9.69357e-320
9.6659e-320
9.58487e-320
9.49397e-320
9.42282e-320
9.36946e-320
9.32499e-320
9.28251e-320
9.23211e-320
9.16788e-320
9.10662e-320
9.1748e-320
9.5078e-320
9.83685e-320
9.62045e-320
9.21926e-320
9.10168e-320
9.1412e-320
1.12212e-319
1.17943e-319
1.23803e-319
1.2984e-319
1.36105e-319
1.42617e-319
1.49415e-319
1.5651e-319
1.63931e-319
1.71698e-319
1.7982e-319
1.88328e-319
1.97231e-319
2.06569e-319
2.16341e-319
2.26579e-319
2.3731e-319
2.48535e-319
2.60294e-319
2.72606e-319
2.85501e-319
2.98989e-319
3.13119e-319
3.27882e-319
3.43336e-319
3.59502e-319
3.76419e-319
3.94087e-319
4.12565e-319
4.31873e-319
4.28632e-319
4.09403e-319
3.91004e-319
3.73405e-319
3.56567e-319
3.40471e-319
3.25075e-319
3.10352e-319
2.96301e-319
2.82862e-319
2.70037e-319
2.57784e-319
2.46084e-319
2.34918e-319
2.24266e-319
2.14108e-319
2.04405e-319
1.95156e-319
1.86342e-319
1.77933e-319
1.69899e-319
1.62231e-319
1.5489e-319
1.47854e-319
1.41105e-319
1.34653e-319
1.28477e-319
1.22607e-319
1.17015e-319
1.11698e-319
9.158e-320
9.16986e-320
9.17776e-320
9.18567e-320
9.1916e-320
9.19654e-320
9.20345e-320
9.21235e-320
9.22322e-320
9.23508e-320
9.24891e-320
9.26175e-320
9.27559e-320
9.28942e-320
9.30326e-320
9.31808e-320
9.33586e-320
9.36156e-320
9.40108e-320
9.46432e-320
9.55029e-320
9.63626e-320
9.67875e-320
9.65207e-320
9.57697e-320
9.49199e-320
9.42183e-320
9.36847e-320
9.32401e-320
9.28053e-320
9.23112e-320
9.16788e-320
9.11848e-320
9.19851e-320
9.51669e-320
9.80819e-320
9.61649e-320
9.24298e-320
9.1165e-320
9.14614e-320
1.12232e-319
1.17963e-319
1.23813e-319
1.2986e-319
1.36125e-319
1.42637e-319
1.49445e-319
1.5654e-319
1.63971e-319
1.71737e-319
1.7987e-319
1.88377e-319
1.973e-319
2.06638e-319
2.16421e-319
2.26658e-319
2.37389e-319
2.48634e-319
2.60412e-319
2.72724e-319
2.85629e-319
2.99147e-319
3.13277e-319
3.2806e-319
3.43534e-319
3.59719e-319
3.76656e-319
3.94343e-319
4.12841e-319
4.32189e-319
4.28553e-319
4.09324e-319
3.90934e-319
3.73336e-319
3.56508e-319
3.40411e-319
3.25016e-319
3.10313e-319
2.96262e-319
2.82823e-319
2.69997e-319
2.57754e-319
2.46064e-319
2.34899e-319
2.24247e-319
2.14089e-319
2.04385e-319
1.95136e-319
1.86322e-319
1.77923e-319
1.69889e-319
1.62222e-319
1.5488e-319
1.47844e-319
1.41105e-319
1.34643e-319
1.28477e-319
1.22597e-319
1.17015e-319
1.11698e-319
9.158e-320
9.16887e-320
9.17776e-320
9.18567e-320
9.19061e-320
9.19654e-320
9.20345e-320
9.21235e-320
9.22322e-320
9.23508e-320
9.24891e-320
9.26175e-320
9.27559e-320
9.28942e-320
9.30424e-320
9.31907e-320
9.33784e-320
9.36353e-320
9.40306e-320
9.46432e-320
9.54535e-320
9.62539e-320
9.66392e-320
9.64021e-320
9.57005e-320
9.49001e-320
9.42084e-320
9.36748e-320
9.32401e-320
9.28053e-320
9.22915e-320
9.16986e-320
9.13033e-320
9.22223e-320
9.52559e-320
9.78448e-320
9.61155e-320
9.26472e-320
9.13033e-320
9.1501e-320
1.12242e-319
1.17963e-319
1.23823e-319
1.2986e-319
1.36125e-319
1.42657e-319
1.49465e-319
1.56569e-319
1.6401e-319
1.71777e-319
1.79919e-319
1.88437e-319
1.97359e-319
2.06697e-319
2.165e-319
2.26746e-319
2.37487e-319
2.48732e-319
2.60521e-319
2.72863e-319
2.85768e-319
2.99285e-319
3.13445e-319
3.28257e-319
3.43741e-319
3.59947e-319
3.76893e-319
3.9462e-319
4.13138e-319
4.32505e-319
4.28454e-319
4.09244e-319
3.90865e-319
3.73276e-319
3.56439e-319
3.40352e-319
3.24967e-319
3.10263e-319
2.96212e-319
2.82783e-319
2.69957e-319
2.57724e-319
2.46025e-319
2.34869e-319
2.24227e-319
2.14059e-319
2.04365e-319
1.95126e-319
1.86312e-319
1.77903e-319
1.6988e-319
1.62212e-319
1.5487e-319
1.47844e-319
1.41095e-319
1.34643e-319
1.28467e-319
1.22588e-319
1.17005e-319
1.11698e-319
9.158e-320
9.16887e-320
9.17776e-320
9.18468e-320
9.19061e-320
9.19654e-320
9.20345e-320
9.21235e-320
9.22322e-320
9.23508e-320
9.24891e-320
9.26274e-320
9.27658e-320
9.29041e-320
9.30424e-320
9.32005e-320
9.33784e-320
9.36353e-320
9.40405e-320
9.46432e-320
9.5414e-320
9.61551e-320
9.65108e-320
9.62835e-320
9.56313e-320
9.48606e-320
9.42084e-320
9.36748e-320
9.32203e-320
9.27855e-320
9.22915e-320
9.17381e-320
9.14417e-320
9.24496e-320
9.53349e-320
9.76471e-320
9.6076e-320
9.28448e-320
9.14417e-320
9.15306e-320
1.12252e-319
1.17963e-319
1.23823e-319
1.2986e-319
1.36145e-319
1.42666e-319
1.49485e-319
1.56599e-319
1.6403e-319
1.71816e-319
1.79958e-319
1.88486e-319
1.97409e-319
2.06776e-319
2.16569e-319
2.26835e-319
2.37586e-319
2.48841e-319
2.6063e-319
2.72981e-319
2.85906e-319
2.99443e-319
3.13613e-319
3.28435e-319
3.43949e-319
3.60174e-319
3.7715e-319
3.94887e-319
4.13444e-319
4.32841e-319
4.28365e-319
4.09156e-319
3.90786e-319
3.73197e-319
3.56379e-319
3.40293e-319
3.24917e-319
3.10214e-319
2.96163e-319
2.82744e-319
2.69918e-319
2.57685e-319
2.45995e-319
2.34839e-319
2.24187e-319
2.14029e-319
2.04346e-319
1.95107e-319
1.86292e-319
1.77883e-319
1.6986e-319
1.62192e-319
1.5486e-319
1.47824e-319
1.41085e-319
1.34623e-319
1.28457e-319
1.22588e-319
1.16995e-319
1.11688e-319
9.158e-320
9.16788e-320
9.17776e-320
9.18468e-320
9.18962e-320
9.19555e-320
9.20345e-320
9.21235e-320
9.22322e-320
9.23508e-320
9.24891e-320
9.26274e-320
9.27658e-320
9.29041e-320
9.30424e-320
9.32005e-320
9.33883e-320
9.36551e-320
9.40503e-320
9.46235e-320
9.53744e-320
9.60661e-320
9.63922e-320
9.61847e-320
9.55721e-320
9.48408e-320
9.41887e-320
9.36748e-320
9.32203e-320
9.27855e-320
9.23013e-320
9.17875e-320
9.158e-320
9.2667e-320
9.5414e-320
9.74693e-320
9.60266e-320
9.30029e-320
9.15602e-320
9.15602e-320
1.12252e-319
1.17963e-319
1.23813e-319
1.2986e-319
1.36145e-319
1.42686e-319
1.49494e-319
1.56619e-319
1.64069e-319
1.71856e-319
1.79998e-319
1.88535e-319
1.97468e-319
2.06836e-319
2.16638e-319
2.26914e-319
2.37675e-319
2.4895e-319
2.60748e-319
2.7311e-319
2.86054e-319
2.99601e-319
3.13791e-319
3.28633e-319
3.44156e-319
3.60401e-319
3.77387e-319
3.95164e-319
4.1375e-319
4.33167e-319
4.28266e-319
4.09067e-319
3.90697e-319
3.73118e-319
3.563e-319
3.40233e-319
3.24858e-319
3.10155e-319
2.96113e-319
2.82704e-319
2.69878e-319
2.57645e-319
2.45966e-319
2.3481e-319
2.24167e-319
2.14009e-319
2.04326e-319
1.95087e-319
1.86273e-319
1.77864e-319
1.6985e-319
1.62182e-319
1.5484e-319
1.47815e-319
1.41076e-319
1.34623e-319
1.28457e-319
1.22578e-319
1.16995e-319
1.11679e-319
9.158e-320
9.16788e-320
9.17776e-320
9.18369e-320
9.18962e-320
9.19555e-320
9.20345e-320
9.21235e-320
9.22322e-320
9.23508e-320
9.24891e-320
9.26274e-320
9.27658e-320
9.29041e-320
9.30424e-320
9.32005e-320
9.33982e-320
9.36551e-320
9.40503e-320
9.46235e-320
9.5325e-320
9.59772e-320
9.62835e-320
9.60859e-320
9.55029e-320
9.48112e-320
9.41887e-320
9.36748e-320
9.32203e-320
9.27954e-320
9.23211e-320
9.18567e-320
9.17381e-320
9.28843e-320
9.54732e-320
9.73211e-320
9.59871e-320
9.31413e-320
9.16788e-320
9.15998e-320
1.12252e-319
1.17953e-319
1.23813e-319
1.2986e-319
1.36145e-319
1.42686e-319
1.49504e-319
1.56639e-319
1.64089e-319
1.71885e-319
1.80038e-319
1.88585e-319
1.97527e-319
2.06895e-319
2.16717e-319
2.26994e-319
2.37764e-319
2.49049e-319
2.60867e-319
2.73238e-319
2.86192e-319
2.9976e-319
3.13949e-319
3.28811e-319
3.44364e-319
3.60628e-319
3.77644e-319
3.9544e-319
4.14047e-319
4.33503e-319
4.28157e-319
4.08968e-319
3.90608e-319
3.73039e-319
3.56231e-319
3.40154e-319
3.24789e-319
3.10095e-319
2.96064e-319
2.82645e-319
2.69839e-319
2.57606e-319
2.45926e-319
2.3478e-319
2.24128e-319
2.1399e-319
2.04306e-319
1.95057e-319
1.86263e-319
1.77854e-319
1.6984e-319
1.62172e-319
1.5484e-319
1.47805e-319
1.41066e-319
1.34603e-319
1.28437e-319
1.22568e-319
1.16985e-319
1.11679e-319
9.15701e-320
9.16788e-320
9.17678e-320
9.18369e-320
9.18962e-320
9.19555e-320
9.20345e-320
9.21235e-320
9.22322e-320
9.23508e-320
9.24891e-320
9.26274e-320
9.27658e-320
9.29041e-320
9.30424e-320
9.32005e-320
9.33982e-320
9.3665e-320
9.40503e-320
9.46037e-320
9.52855e-320
9.58883e-320
9.61649e-320
9.59871e-320
9.54535e-320
9.47816e-320
9.41887e-320
9.36748e-320
9.32401e-320
9.28053e-320
9.23508e-320
9.19259e-320
9.18962e-320
9.3082e-320
9.55227e-320
9.71728e-320
9.59278e-320
9.32697e-320
9.17974e-320
9.16393e-320
1.12252e-319
1.17943e-319
1.23813e-319
1.2986e-319
1.36145e-319
1.42686e-319
1.49524e-319
1.56658e-319
1.64109e-319
1.71915e-319
1.80077e-319
1.88634e-319
1.97587e-319
2.06964e-319
2.16786e-319
2.27073e-319
2.37863e-319
2.49147e-319
2.60985e-319
2.73367e-319
2.86341e-319
2.99918e-319
3.14127e-319
3.29008e-319
3.44581e-319
3.60866e-319
3.77901e-319
3.95727e-319
4.14363e-319
4.33839e-319
4.28058e-319
4.08869e-319
3.90509e-319
3.7296e-319
3.56162e-319
3.40095e-319
3.2472e-319
3.10036e-319
2.96005e-319
2.82606e-319
2.69799e-319
2.57566e-319
2.45887e-319
2.3474e-319
2.24108e-319
2.1395e-319
2.04267e-319
1.95037e-319
1.86243e-319
1.77834e-319
1.6982e-319
1.62152e-319
1.5482e-319
1.47785e-319
1.41046e-319
1.34603e-319
1.28437e-319
1.22568e-319
1.16975e-319
1.11679e-319
9.15602e-320
9.16788e-320
9.17579e-320
9.18369e-320
9.18962e-320
9.19555e-320
9.20345e-320
9.21136e-320
9.22322e-320
9.23508e-320
9.24891e-320
9.26175e-320
9.27658e-320
9.29041e-320
9.30424e-320
9.32104e-320
9.33982e-320
9.36748e-320
9.40503e-320
9.46037e-320
9.52361e-320
9.58092e-320
9.6076e-320
9.58981e-320
9.53942e-320
9.47618e-320
9.41788e-320
9.36748e-320
9.32401e-320
9.28251e-320
9.23903e-320
9.20148e-320
9.20543e-320
9.32598e-320
9.55622e-320
9.70543e-320
9.58883e-320
9.33784e-320
9.19061e-320
9.16788e-320
1.12252e-319
1.17943e-319
1.23793e-319
1.2986e-319
1.36145e-319
1.42706e-319
1.49534e-319
1.56678e-319
1.64138e-319
1.71955e-319
1.80117e-319
1.88674e-319
1.97646e-319
2.07023e-319
2.16855e-319
2.27162e-319
2.37952e-319
2.49246e-319
2.61094e-319
2.73495e-319
2.86479e-319
3.00076e-319
3.14305e-319
3.29196e-319
3.44779e-319
3.61093e-319
3.78158e-319
3.96003e-319
4.14659e-319
4.34175e-319
4.2794e-319
4.0877e-319
3.90421e-319
3.72861e-319
3.56073e-319
3.40016e-319
3.2466e-319
3.09977e-319
2.95945e-319
2.82546e-319
2.6974e-319
2.57527e-319
2.45847e-319
2.34701e-319
2.24069e-319
2.1393e-319
2.04247e-319
1.95018e-319
1.86213e-319
1.77824e-319
1.698e-319
1.62133e-319
1.54801e-319
1.47775e-319
1.41046e-319
1.34583e-319
1.28427e-319
1.22548e-319
1.16975e-319
1.11669e-319
9.15602e-320
9.16689e-320
9.17579e-320
9.18369e-320
9.18962e-320
9.19555e-320
9.20247e-320
9.21136e-320
9.22322e-320
9.23508e-320
9.24792e-320
9.26175e-320
9.27658e-320
9.29041e-320
9.30523e-320
9.32104e-320
9.34081e-320
9.36748e-320
9.40602e-320
9.45839e-320
9.51966e-320
9.574e-320
9.59871e-320
9.58191e-320
9.53349e-320
9.4742e-320
9.41788e-320
9.36946e-320
9.32598e-320
9.28547e-320
9.24298e-320
9.21037e-320
9.22124e-320
9.34179e-320
9.55918e-320
9.69258e-320
9.5829e-320
9.34772e-320
9.20148e-320
9.17381e-320
1.12271e-319
1.17943e-319