/*--------------------------------*- C++ -*----------------------------------*\
  =========                 |
  \\      /  F ield         | OpenFOAM: The Open Source CFD Toolbox
   \\    /   O peration     | Website:  https://openfoam.org
    \\  /    A nd           | Version:  9
     \\/     M anipulation  |
\*---------------------------------------------------------------------------*/
FoamFile
{
    format      ascii;
    class       volScalarField;
    location    "0.11";
    object      p;
}
// * * * * * * * * * * * * * * * * * * * * * * * * * * * * * * * * * * * * * //

dimensions      [1 -1 -2 0 0 0 0];

internalField   nonuniform List<scalar> 
20000
(
2.04151
2.04148
2.04147
2.04147
2.04147
2.04147
2.04148
2.0415
2.04152
2.04154
2.04158
2.04162
2.04168
2.04175
2.04184
2.04194
2.04204
2.04216
2.04227
2.04236
2.04243
2.04246
2.04246
2.04245
2.04246
2.04248
2.04253
2.04258
2.04258
2.04249
2.04228
2.04192
2.04153
2.04119
2.04091
2.04061
2.0402
2.03962
2.03882
2.0378
2.03657
2.03515
2.03359
2.03194
2.03021
2.02836
2.02608
2.02257
2.01578
2.00053
1.96337
1.87671
1.74925
1.79185
1.90813
1.97108
2.00022
2.01535
2.02565
2.03442
2.04169
2.04439
2.03453
1.99137
2.023
1.89637
1.93546
1.94912
2.0176
2.04209
2.04785
2.04814
2.04704
2.04586
2.04498
2.04441
2.04407
2.04387
2.04377
2.0437
2.04366
2.04361
2.04355
2.04348
2.04339
2.04329
2.04318
2.04306
2.04293
2.0428
2.04267
2.04254
2.04241
2.04228
2.04215
2.04203
2.04192
2.04181
2.0417
2.0416
2.03956
2.03956
2.03958
2.03961
2.03965
2.03971
2.03978
2.03986
2.03995
2.04004
2.04015
2.04027
2.0404
2.04054
2.04069
2.04085
2.04101
2.04118
2.04135
2.0415
2.04163
2.04173
2.04181
2.04188
2.04196
2.04207
2.0422
2.04234
2.04246
2.04252
2.04248
2.04232
2.04211
2.0419
2.04171
2.04149
2.04118
2.04072
2.04007
2.03921
2.03814
2.03685
2.03534
2.03357
2.03147
2.02878
2.025
2.01903
2.00873
1.99028
1.95879
1.91019
1.84764
1.86611
1.92309
1.96656
1.99716
2.01735
2.03178
2.04334
2.05254
2.05838
2.06517
2.046
2.16233
1.90193
2.04802
1.97981
2.04404
2.0559
2.05983
2.05972
2.05806
2.05609
2.05417
2.05257
2.05123
2.0501
2.04914
2.04831
2.04758
2.04692
2.04631
2.04575
2.04522
2.04473
2.04425
2.0438
2.04337
2.04296
2.04256
2.04218
2.04182
2.04148
2.04115
2.04083
2.04053
2.04025
2.03998
2.03972
2.03765
2.0377
2.03776
2.03782
2.0379
2.03798
2.03808
2.03818
2.0383
2.03842
2.03856
2.03871
2.03887
2.03904
2.03922
2.03941
2.03961
2.03981
2.04001
2.04021
2.0404
2.04058
2.04074
2.0409
2.04107
2.04125
2.04145
2.04164
2.04182
2.04196
2.04205
2.04205
2.04199
2.04191
2.04182
2.04168
2.04145
2.04108
2.04053
2.03979
2.03884
2.03766
2.03621
2.03444
2.0322
2.02922
2.02497
2.01852
2.00833
1.99214
1.96817
1.9363
1.89703
1.90962
1.94686
1.97755
2.0033
2.02303
2.03885
2.05276
2.0655
2.07697
2.10266
2.0883
2.22859
2.02919
2.13204
2.0421
2.08155
2.07307
2.07217
2.06965
2.06651
2.06349
2.06071
2.05832
2.05625
2.05445
2.05289
2.05151
2.05029
2.04917
2.04816
2.04723
2.04636
2.04555
2.04479
2.04407
2.04339
2.04275
2.04214
2.04156
2.04101
2.04049
2.03999
2.03952
2.03907
2.03865
2.03824
2.03784
2.03571
2.0358
2.03589
2.03599
2.0361
2.03622
2.03634
2.03648
2.03662
2.03678
2.03694
2.03712
2.03731
2.03752
2.03773
2.03795
2.03819
2.03843
2.03868
2.03893
2.03918
2.03942
2.03966
2.0399
2.04015
2.0404
2.04066
2.04092
2.04117
2.0414
2.04159
2.04173
2.04182
2.04187
2.04188
2.04184
2.04171
2.04144
2.04101
2.04039
2.03957
2.03851
2.03716
2.03546
2.03326
2.03031
2.02619
2.02022
2.01148
1.99859
1.98067
1.95843
1.93289
1.94187
1.96831
1.99173
2.01318
2.03132
2.04747
2.06319
2.07966
2.09495
2.13571
2.12448
2.26602
2.1478
2.19441
2.10485
2.11842
2.0929
2.08636
2.08034
2.07509
2.07069
2.06691
2.06368
2.06089
2.05847
2.05635
2.05447
2.05278
2.05126
2.04987
2.04859
2.0474
2.04629
2.04526
2.04428
2.04337
2.0425
2.04169
2.04091
2.04018
2.03949
2.03883
2.0382
2.0376
2.03703
2.03649
2.03595
2.03377
2.03389
2.03402
2.03415
2.0343
2.03445
2.03461
2.03478
2.03496
2.03515
2.03535
2.03557
2.0358
2.03604
2.03629
2.03655
2.03683
2.03712
2.03741
2.03772
2.03802
2.03833
2.03865
2.03897
2.03929
2.03962
2.03996
2.0403
2.04064
2.04095
2.04127
2.04155
2.04177
2.04196
2.04209
2.04217
2.04214
2.042
2.0417
2.04123
2.04055
2.03964
2.03844
2.03689
2.03484
2.03209
2.02832
2.02307
2.01577
2.00567
1.9927
1.97846
1.96389
1.96991
1.9874
2.00532
2.02367
2.0406
2.05685
2.07373
2.09305
2.10979
2.15834
2.15374
2.28099
2.21481
2.22695
2.1488
2.1442
2.11054
2.10011
2.09098
2.08378
2.07802
2.0732
2.06912
2.06561
2.06256
2.05988
2.0575
2.05536
2.05342
2.05165
2.05002
2.04851
2.0471
2.04579
2.04456
2.0434
2.04231
2.04128
2.04031
2.03938
2.03851
2.03768
2.03689
2.03614
2.03542
2.03474
2.03406
2.03182
2.03197
2.03213
2.0323
2.03248
2.03267
2.03286
2.03307
2.03329
2.03352
2.03376
2.03402
2.03429
2.03457
2.03487
2.03517
2.0355
2.03583
2.03618
2.03654
2.03691
2.03728
2.03767
2.03806
2.03847
2.03888
2.0393
2.03973
2.04016
2.04058
2.04101
2.04143
2.0418
2.04212
2.04239
2.04259
2.0427
2.04269
2.04254
2.04222
2.04171
2.04098
2.03997
2.03862
2.03681
2.03438
2.0311
2.02667
2.02079
2.01322
2.00447
1.99622
1.98878
1.99313
2.00473
2.0185
2.03424
2.05006
2.06617
2.08352
2.10453
2.12147
2.17148
2.17369
2.28198
2.2426
2.23923
2.17441
2.15968
2.12424
2.11179
2.10042
2.09178
2.08489
2.07915
2.07429
2.07011
2.06647
2.06326
2.0604
2.05783
2.05549
2.05336
2.05139
2.04956
2.04787
2.04628
2.0448
2.0434
2.04209
2.04085
2.03968
2.03857
2.03751
2.03651
2.03556
2.03466
2.0338
2.03298
2.03217
2.02987
2.03005
2.03024
2.03045
2.03066
2.03088
2.03111
2.03135
2.03161
2.03188
2.03216
2.03246
2.03277
2.03309
2.03343
2.03379
2.03416
2.03455
2.03495
2.03536
2.03579
2.03624
2.03669
2.03716
2.03764
2.03814
2.03865
2.03917
2.03969
2.04021
2.04076
2.04132
2.04183
2.04229
2.0427
2.04304
2.04328
2.04342
2.04343
2.04329
2.04297
2.04243
2.04165
2.04055
2.03905
2.03704
2.03437
2.03087
2.02648
2.02124
2.0158
2.01131
2.00782
2.01149
2.02004
2.03113
2.04473
2.05936
2.07501
2.0922
2.11344
2.13113
2.17889
2.18659
2.27691
2.2525
2.24318
2.19003
2.16928
2.13452
2.1211
2.10818
2.09864
2.0909
2.0844
2.07888
2.07413
2.06997
2.06629
2.063
2.06003
2.05733
2.05486
2.05258
2.05046
2.0485
2.04666
2.04493
2.04331
2.04178
2.04034
2.03898
2.03769
2.03647
2.03531
2.0342
2.03315
2.03216
2.03121
2.03027
2.02792
2.02813
2.02835
2.02858
2.02883
2.02908
2.02935
2.02963
2.02992
2.03023
2.03055
2.03088
2.03124
2.03161
2.03199
2.0324
2.03282
2.03326
2.03371
2.03419
2.03468
2.03519
2.03572
2.03626
2.03682
2.0374
2.03799
2.0386
2.03922
2.03985
2.04053
2.04122
2.04187
2.04247
2.04302
2.0435
2.0439
2.0442
2.04437
2.04441
2.04429
2.04398
2.04345
2.04265
2.04152
2.03999
2.03799
2.03548
2.0325
2.02923
2.02619
2.02406
2.02287
2.02631
2.0333
2.04276
2.05474
2.06825
2.08323
2.09993
2.12089
2.13836
2.18311
2.19439
2.26815
2.25363
2.24258
2.19964
2.17544
2.14213
2.12838
2.1144
2.10434
2.09597
2.08889
2.08285
2.07762
2.07302
2.06894
2.06527
2.06196
2.05893
2.05615
2.05358
2.0512
2.04898
2.0469
2.04496
2.04312
2.0414
2.03977
2.03822
2.03676
2.03538
2.03406
2.03281
2.03163
2.0305
2.02942
2.02836
2.02597
2.02621
2.02646
2.02672
2.027
2.02728
2.02758
2.0279
2.02823
2.02857
2.02893
2.02931
2.02971
2.03012
2.03056
2.03101
2.03148
2.03197
2.03249
2.03302
2.03358
2.03415
2.03475
2.03537
2.03601
2.03667
2.03735
2.03805
2.03877
2.0395
2.0403
2.04114
2.04193
2.04268
2.04337
2.044
2.04455
2.04502
2.04537
2.04561
2.0457
2.04563
2.04537
2.04489
2.04416
2.04315
2.04184
2.04025
2.03851
2.0368
2.03553
2.03505
2.0354
2.03878
2.04484
2.05321
2.06397
2.0765
2.09075
2.10672
2.12708
2.14494
2.18343
2.19786
2.25696
2.24911
2.2384
2.20412
2.17868
2.14727
2.1338
2.11941
2.10898
2.10015
2.09266
2.08623
2.08061
2.07565
2.07123
2.06724
2.06361
2.06029
2.05724
2.05441
2.05179
2.04933
2.04703
2.04488
2.04285
2.04093
2.03912
2.03741
2.03579
2.03425
2.03278
2.03139
2.03007
2.02882
2.02763
2.02645
2.02403
2.02429
2.02457
2.02486
2.02516
2.02548
2.02582
2.02617
2.02654
2.02692
2.02732
2.02774
2.02818
2.02864
2.02912
2.02962
2.03015
2.0307
2.03127
2.03186
2.03248
2.03312
2.03379
2.03448
2.0352
2.03595
2.03672
2.03751
2.03833
2.03917
2.0401
2.04107
2.04201
2.0429
2.04374
2.04453
2.04525
2.04589
2.04643
2.04686
2.04718
2.04736
2.04739
2.04725
2.04693
2.04643
2.04577
2.04502
2.04432
2.04386
2.04393
2.04467
2.04609
2.04951
2.05497
2.06254
2.07233
2.08398
2.09745
2.11252
2.13177
2.14886
2.18275
2.19831
2.24483
2.24117
2.23174
2.20455
2.17949
2.15124
2.13669
2.1229
2.11251
2.10346
2.09573
2.08902
2.08312
2.07787
2.07316
2.06889
2.065
2.06142
2.05812
2.05506
2.05221
2.04954
2.04704
2.04469
2.04248
2.04039
2.03841
2.03653
2.03476
2.03307
2.03147
2.02995
2.0285
2.02713
2.02582
2.02454
2.02208
2.02237
2.02267
2.02299
2.02333
2.02368
2.02405
2.02444
2.02484
2.02527
2.02571
2.02617
2.02665
2.02716
2.02769
2.02824
2.02882
2.02942
2.03005
2.03071
2.03139
2.0321
2.03284
2.03361
2.0344
2.03523
2.03609
2.03698
2.0379
2.03885
2.03991
2.04103
2.04211
2.04315
2.04415
2.04509
2.04598
2.0468
2.04753
2.04818
2.04872
2.04916
2.04949
2.04969
2.04978
2.04977
2.04972
2.0497
2.04988
2.05042
2.0515
2.05312
2.05527
2.05878
2.0639
2.07087
2.07988
2.0907
2.10333
2.11737
2.13525
2.15102
2.18035
2.19761
2.23285
2.2317
2.22383
2.2023
2.17836
2.15318
2.13868
2.12533
2.11506
2.10597
2.09812
2.09125
2.08514
2.07967
2.07473
2.07023
2.06611
2.06231
2.05879
2.05552
2.05247
2.04961
2.04692
2.04439
2.04201
2.03975
2.03762
2.03559
2.03367
2.03184
2.03011
2.02847
2.0269
2.02542
2.02401
2.02261
2.02013
2.02044
2.02078
2.02113
2.0215
2.02188
2.02229
2.02271
2.02315
2.02361
2.02409
2.0246
2.02513
2.02568
2.02626
2.02686
2.02749
2.02815
2.02884
2.02955
2.0303
2.03108
2.03189
2.03274
2.03361
2.03453
2.03548
2.03647
2.03749
2.03855
2.03973
2.04099
2.04222
2.04341
2.04457
2.04568
2.04674
2.04774
2.04867
2.04953
2.0503
2.051
2.05162
2.05217
2.05265
2.05311
2.05361
2.05425
2.05515
2.05648
2.05831
2.06057
2.06323
2.06685
2.07177
2.07831
2.08665
2.09671
2.10849
2.12147
2.13793
2.15244
2.17793
2.19471
2.22134
2.22187
2.21549
2.19855
2.17608
2.15357
2.13969
2.12685
2.11679
2.10777
2.0999
2.09294
2.0867
2.08107
2.07595
2.07126
2.06695
2.06296
2.05925
2.0558
2.05256
2.04953
2.04667
2.04398
2.04144
2.03903
2.03675
2.03458
2.03253
2.03057
2.02872
2.02696
2.02528
2.02369
2.02218
2.02069
2.01818
2.01852
2.01889
2.01927
2.01967
2.02008
2.02052
2.02098
2.02146
2.02196
2.02248
2.02303
2.0236
2.0242
2.02483
2.02548
2.02617
2.02688
2.02763
2.0284
2.02922
2.03006
2.03095
2.03187
2.03283
2.03383
2.03487
2.03595
2.03708
2.03825
2.03956
2.04097
2.04235
2.04369
2.045
2.04628
2.04751
2.0487
2.04983
2.0509
2.05192
2.05288
2.05379
2.05466
2.05551
2.05641
2.05741
2.0586
2.06012
2.06207
2.06446
2.06718
2.07019
2.07392
2.07873
2.08494
2.09271
2.10206
2.113
2.12494
2.13999
2.15331
2.17546
2.19043
2.21063
2.21224
2.20708
2.19378
2.17321
2.1529
2.13977
2.12757
2.1178
2.10894
2.10114
2.09415
2.08783
2.08209
2.07683
2.072
2.06753
2.06338
2.05951
2.05589
2.05249
2.0493
2.0463
2.04345
2.04077
2.03822
2.0358
2.03351
2.03133
2.02926
2.02729
2.02542
2.02364
2.02195
2.02034
2.01875
2.01623
2.0166
2.01699
2.0174
2.01783
2.01828
2.01875
2.01925
2.01976
2.0203
2.02087
2.02146
2.02208
2.02272
2.0234
2.0241
2.02484
2.02561
2.02642
2.02726
2.02813
2.02905
2.03001
2.031
2.03204
2.03313
2.03426
2.03545
2.03668
2.03796
2.03939
2.04095
2.04248
2.04398
2.04545
2.04689
2.0483
2.04968
2.05101
2.0523
2.05354
2.05476
2.05595
2.05714
2.05835
2.05964
2.06108
2.06276
2.06477
2.0672
2.07002
2.07307
2.07635
2.08017
2.0849
2.09083
2.09812
2.1068
2.11692
2.12786
2.14151
2.15358
2.17271
2.18574
2.20095
2.20307
2.19879
2.1883
2.1698
2.15153
2.13915
2.12763
2.11822
2.10959
2.1019
2.09493
2.08859
2.08277
2.07742
2.07247
2.06787
2.06358
2.05957
2.05581
2.05227
2.04894
2.0458
2.04282
2.04
2.03732
2.03478
2.03237
2.03008
2.0279
2.02582
2.02385
2.02197
2.02019
2.01849
2.01681
2.01428
2.01468
2.0151
2.01554
2.016
2.01648
2.01699
2.01752
2.01807
2.01865
2.01925
2.01989
2.02055
2.02124
2.02197
2.02272
2.02352
2.02434
2.02521
2.02611
2.02705
2.02804
2.02907
2.03014
2.03126
2.03244
2.03366
2.03494
2.03628
2.03767
2.03924
2.04094
2.04261
2.04427
2.0459
2.04751
2.0491
2.05066
2.05219
2.0537
2.05517
2.05664
2.0581
2.05959
2.06113
2.06278
2.06461
2.06669
2.06911
2.07192
2.07506
2.07838
2.08185
2.08576
2.09043
2.0961
2.10295
2.11101
2.12033
2.13031
2.14259
2.15342
2.16978
2.181
2.19232
2.1945
2.19074
2.18237
2.16594
2.14964
2.13803
2.1272
2.11818
2.1098
2.10225
2.09535
2.08901
2.08316
2.07774
2.07269
2.06799
2.06359
2.05946
2.05557
2.05191
2.04846
2.04518
2.04208
2.03914
2.03635
2.0337
2.03117
2.02878
2.02649
2.02432
2.02225
2.02028
2.01841
2.01662
2.01486
2.01233
2.01275
2.0132
2.01367
2.01417
2.01468
2.01522
2.01578
2.01638
2.01699
2.01764
2.01832
2.01902
2.01976
2.02054
2.02135
2.02219
2.02307
2.024
2.02496
2.02597
2.02702
2.02813
2.02928
2.03048
2.03174
2.03306
2.03444
2.03588
2.03738
2.03908
2.04092
2.04275
2.04456
2.04636
2.04814
2.0499
2.05165
2.05338
2.05509
2.05679
2.0585
2.06023
2.06199
2.06383
2.06581
2.06798
2.07041
2.07316
2.07627
2.07966
2.08318
2.0868
2.09077
2.09538
2.10084
2.10728
2.11476
2.12333
2.1324
2.14339
2.15303
2.16684
2.17632
2.18465
2.18659
2.18301
2.17622
2.16178
2.14738
2.13655
2.12641
2.11777
2.10966
2.10228
2.09546
2.08915
2.08329
2.07782
2.07271
2.06793
2.06343
2.05919
2.0552
2.05142
2.04785
2.04447
2.04125
2.0382
2.0353
2.03254
2.02992
2.02743
2.02505
2.02279
2.02063
2.01857
2.01661
2.01475
2.0129
2.01038
2.01083
2.01131
2.01181
2.01233
2.01288
2.01345
2.01405
2.01468
2.01534
2.01603
2.01675
2.0175
2.01829
2.01911
2.01997
2.02087
2.02181
2.02279
2.02382
2.02489
2.02601
2.02719
2.02841
2.0297
2.03105
2.03246
2.03394
2.03548
2.03709
2.03892
2.04091
2.04289
2.04485
2.04681
2.04876
2.0507
2.05263
2.05455
2.05647
2.0584
2.06034
2.06231
2.06434
2.06646
2.06873
2.0712
2.07393
2.07695
2.08028
2.08386
2.08753
2.09127
2.09529
2.09985
2.10511
2.11119
2.11813
2.126
2.13422
2.144
2.1525
2.16396
2.17178
2.17784
2.17942
2.17575
2.17008
2.15759
2.14491
2.13483
2.12536
2.11709
2.10926
2.10205
2.09533
2.08907
2.08321
2.07771
2.07255
2.0677
2.06312
2.05879
2.0547
2.05082
2.04714
2.04365
2.04034
2.03719
2.03419
2.03134
2.02862
2.02603
2.02357
2.02122
2.01898
2.01684
2.0148
2.01286
2.01094
2.00843
2.00891
2.00941
2.00994
2.0105
2.01108
2.01169
2.01232
2.01299
2.01368
2.01441
2.01517
2.01597
2.01681
2.01768
2.01859
2.01954
2.02054
2.02158
2.02267
2.0238
2.025
2.02624
2.02755
2.02892
2.03035
2.03185
2.03343
2.03508
2.0368
2.03876
2.04089
2.04302
2.04514
2.04725
2.04937
2.05149
2.0536
2.05572
2.05784
2.05997
2.06214
2.06435
2.06662
2.06899
2.07152
2.07426
2.07724
2.08048
2.084
2.08771
2.09149
2.09531
2.09939
2.10389
2.10897
2.11472
2.12116
2.12837
2.13579
2.14444
2.15186
2.16122
2.16748
2.17184
2.17302
2.16911
2.1642
2.15353
2.14237
2.13299
2.12413
2.11622
2.10866
2.10162
2.09501
2.0888
2.08296
2.07745
2.07225
2.06734
2.06269
2.05828
2.05409
2.05012
2.04635
2.04276
2.03935
2.03611
2.03302
2.03008
2.02727
2.0246
2.02205
2.01962
2.0173
2.01509
2.01298
2.01097
2.00897
2.00648
2.00699
2.00752
2.00808
2.00866
2.00928
2.00992
2.01059
2.01129
2.01203
2.0128
2.0136
2.01444
2.01532
2.01624
2.01721
2.01821
2.01926
2.02036
2.02151
2.02272
2.02398
2.0253
2.02668
2.02813
2.02965
2.03124
2.03292
2.03467
2.0365
2.03859
2.04087
2.04314
2.04542
2.04769
2.04997
2.05226
2.05456
2.05686
2.05918
2.06152
2.0639
2.06633
2.06883
2.07143
2.0742
2.07717
2.08036
2.08379
2.08745
2.09126
2.09512
2.09901
2.10311
2.10756
2.11245
2.1179
2.12389
2.13048
2.13717
2.14477
2.15117
2.15867
2.16353
2.16664
2.16748
2.16323
2.15884
2.14974
2.13988
2.13114
2.12284
2.11525
2.10794
2.10107
2.09456
2.08841
2.08259
2.07707
2.07184
2.06687
2.06215
2.05767
2.0534
2.04935
2.04548
2.04181
2.03831
2.03498
2.0318
2.02877
2.02589
2.02314
2.02051
2.018
2.01561
2.01332
2.01114
2.00906
2.007
2.00453
2.00506
2.00563
2.00621
2.00683
2.00747
2.00815
2.00886
2.0096
2.01037
2.01118
2.01203
2.01291
2.01384
2.01481
2.01582
2.01688
2.01799
2.01915
2.02036
2.02163
2.02296
2.02435
2.02581
2.02734
2.02894
2.03063
2.0324
2.03425
2.0362
2.03841
2.04083
2.04326
2.04568
2.04811
2.05056
2.05302
2.05549
2.05798
2.06048
2.06302
2.0656
2.06825
2.07096
2.07378
2.07676
2.07992
2.0833
2.0869
2.09067
2.09456
2.09846
2.1024
2.10651
2.11089
2.11562
2.12078
2.12636
2.13237
2.13838
2.14503
2.15049
2.15639
2.16005
2.16222
2.1628
2.15823
2.15419
2.14636
2.13754
2.12936
2.12154
2.11424
2.10716
2.10044
2.09403
2.08793
2.08212
2.0766
2.07134
2.06633
2.06155
2.05699
2.05265
2.04851
2.04456
2.0408
2.03722
2.0338
2.03054
2.02744
2.02447
2.02164
2.01894
2.01635
2.01389
2.01153
2.00929
2.00714
2.00501
2.00258
2.00314
2.00373
2.00435
2.00499
2.00567
2.00638
2.00712
2.0079
2.00871
2.00956
2.01045
2.01138
2.01235
2.01337
2.01443
2.01555
2.01671
2.01793
2.0192
2.02053
2.02193
2.02339
2.02493
2.02654
2.02823
2.03
2.03187
2.03383
2.03588
2.03822
2.04079
2.04335
2.04593
2.04852
2.05113
2.05376
2.0564
2.05906
2.06175
2.06448
2.06726
2.0701
2.07301
2.07603
2.0792
2.08254
2.08608
2.08981
2.09368
2.09763
2.10157
2.10554
2.10964
2.11395
2.11852
2.12342
2.12861
2.13411
2.1395
2.14529
2.14989
2.15445
2.15711
2.15854
2.15879
2.15431
2.15039
2.14347
2.13543
2.12772
2.12031
2.11325
2.10637
2.09978
2.09345
2.0874
2.08161
2.07608
2.07079
2.06573
2.06089
2.05627
2.05185
2.04763
2.0436
2.03976
2.0361
2.0326
2.02926
2.02607
2.02303
2.02012
2.01734
2.01469
2.01215
2.00973
2.00742
2.00522
2.00302
2.00063
2.00122
2.00183
2.00248
2.00316
2.00387
2.00461
2.00539
2.0062
2.00705
2.00794
2.00887
2.00984
2.01086
2.01193
2.01304
2.01421
2.01543
2.0167
2.01803
2.01943
2.02089
2.02243
2.02404
2.02573
2.0275
2.02937
2.03133
2.03339
2.03555
2.03801
2.04072
2.04344
2.04616
2.0489
2.05167
2.05446
2.05728
2.06012
2.06298
2.06589
2.06885
2.07188
2.07499
2.07819
2.08153
2.08503
2.08871
2.09255
2.0965
2.1005
2.10447
2.10847
2.11255
2.11678
2.12122
2.12587
2.13071
2.13573
2.14056
2.14558
2.14943
2.15291
2.15475
2.15561
2.15546
2.15136
2.1474
2.1411
2.13363
2.12627
2.11919
2.11234
2.10562
2.09914
2.09288
2.08686
2.08108
2.07554
2.07021
2.0651
2.0602
2.05551
2.05102
2.04673
2.04262
2.0387
2.03495
2.03137
2.02795
2.02468
2.02156
2.01858
2.01573
2.013
2.0104
2.00791
2.00554
2.00328
2.00103
1.99868
1.99929
1.99994
2.00061
2.00132
2.00206
2.00283
2.00365
2.0045
2.00538
2.00631
2.00729
2.0083
2.00937
2.01048
2.01165
2.01286
2.01414
2.01547
2.01686
2.01832
2.01985
2.02146
2.02314
2.02491
2.02677
2.02872
2.03078
2.03294
2.0352
2.03779
2.04064
2.0435
2.04637
2.04926
2.05218
2.05514
2.05812
2.06113
2.06417
2.06725
2.07039
2.0736
2.07688
2.08026
2.08375
2.0874
2.0912
2.09513
2.09916
2.1032
2.1072
2.11121
2.11527
2.11943
2.12374
2.12817
2.13268
2.13728
2.14161
2.14594
2.14915
2.15177
2.15299
2.15338
2.15289
2.14915
2.14515
2.13925
2.13216
2.12507
2.11824
2.11155
2.10495
2.09855
2.09235
2.08635
2.08057
2.07499
2.06963
2.06447
2.05951
2.05475
2.05019
2.04582
2.04163
2.03763
2.0338
2.03013
2.02663
2.02328
2.02008
2.01702
2.0141
2.0113
2.00863
2.00608
2.00365
2.00134
1.99902
1.99673
1.99737
1.99804
1.99874
1.99948
2.00025
2.00106
2.00191
2.00279
2.00372
2.00469
2.0057
2.00676
2.00787
2.00903
2.01024
2.01151
2.01284
2.01423
2.01568
2.01721
2.0188
2.02047
2.02223
2.02407
2.02602
2.02806
2.03021
2.03246
2.03484
2.03755
2.04054
2.04353
2.04655
2.04959
2.05267
2.05578
2.05892
2.0621
2.0653
2.06855
2.07186
2.07524
2.0787
2.08224
2.08588
2.08966
2.09357
2.09759
2.10167
2.10575
2.10979
2.1138
2.11784
2.12193
2.12611
2.13034
2.13457
2.13879
2.14268
2.14642
2.14908
2.15104
2.15177
2.1518
2.15105
2.14754
2.14354
2.13789
2.13103
2.12412
2.11748
2.1109
2.1044
2.09806
2.09188
2.08589
2.08008
2.07448
2.06906
2.06385
2.05882
2.054
2.04936
2.04491
2.04064
2.03656
2.03264
2.02889
2.02531
2.02188
2.01859
2.01546
2.01246
2.0096
2.00686
2.00425
2.00176
1.99939
1.99701
1.99478
1.99544
1.99614
1.99687
1.99764
1.99844
1.99928
2.00016
2.00108
2.00205
2.00305
2.00411
2.00521
2.00637
2.00757
2.00884
2.01016
2.01154
2.01298
2.0145
2.01608
2.01774
2.01948
2.02131
2.02323
2.02525
2.02738
2.02962
2.03198
2.03445
2.03728
2.04041
2.04354
2.0467
2.04989
2.05311
2.05638
2.05968
2.06302
2.06639
2.0698
2.07328
2.07682
2.08043
2.08413
2.08792
2.09182
2.09583
2.09993
2.10407
2.10818
2.11224
2.11625
2.12027
2.12431
2.12837
2.13243
2.1364
2.14029
2.1438
2.14704
2.14924
2.1507
2.15105
2.15078
2.14983
2.14645
2.14248
2.13697
2.13025
2.12346
2.11694
2.11044
2.104
2.09768
2.09151
2.0855
2.07966
2.07401
2.06854
2.06326
2.05817
2.05327
2.04855
2.04402
2.03967
2.0355
2.03149
2.02766
2.02398
2.02047
2.01711
2.01389
2.01082
2.00788
2.00508
2.0024
1.99985
1.99742
1.99499
1.99283
1.99352
1.99424
1.995
1.9958
1.99663
1.9975
1.99841
1.99937
2.00037
2.00142
2.00251
2.00366
2.00486
2.00611
2.00742
2.00879
2.01023
2.01173
2.0133
2.01494
2.01667
2.01847
2.02037
2.02237
2.02447
2.02668
2.02901
2.03146
2.03405
2.03699
2.04025
2.04352
2.04682
2.05015
2.05352
2.05694
2.0604
2.06389
2.06742
2.071
2.07463
2.07833
2.0821
2.08594
2.08987
2.09389
2.098
2.10218
2.10636
2.11051
2.11459
2.1186
2.1226
2.12659
2.13055
2.13446
2.13822
2.14181
2.145
2.14782
2.14965
2.15071
2.15078
2.15025
2.14904
2.14595
2.14191
2.13646
2.12982
2.12308
2.11663
2.11017
2.10376
2.09744
2.09125
2.08521
2.07933
2.07362
2.06809
2.06274
2.05757
2.05258
2.04778
2.04316
2.03872
2.03446
2.03036
2.02643
2.02267
2.01907
2.01562
2.01233
2.00918
2.00617
2.00329
2.00055
1.99794
1.99546
1.99297
1.99088
1.99159
1.99234
1.99313
1.99395
1.99481
1.99572
1.99666
1.99765
1.99869
1.99977
2.00091
2.0021
2.00334
2.00464
2.006
2.00742
2.00891
2.01046
2.01209
2.01379
2.01558
2.01745
2.01942
2.02149
2.02367
2.02596
2.02838
2.03093
2.03361
2.03667
2.04006
2.04347
2.0469
2.05038
2.05389
2.05746
2.06107
2.06472
2.0684
2.07213
2.07592
2.07977
2.08369
2.08768
2.09174
2.09588
2.10009
2.10434
2.10858
2.11276
2.11686
2.12088
2.12486
2.12881
2.13269
2.13646
2.14004
2.14339
2.1463
2.14878
2.15031
2.15106
2.15091
2.15018
2.14878
2.14581
2.14175
2.13634
2.12971
2.12299
2.11658
2.11013
2.10371
2.09737
2.09114
2.08505
2.07911
2.07333
2.06772
2.06228
2.05703
2.05196
2.04706
2.04235
2.03781
2.03344
2.02925
2.02523
2.02138
2.01768
2.01415
2.01077
2.00754
2.00446
2.00151
1.9987
1.99603
1.99349
1.99094
1.98893
1.98967
1.99044
1.99125
1.9921
1.993
1.99393
1.99491
1.99593
1.997
1.99813
1.9993
2.00053
2.00182
2.00316
2.00457
2.00604
2.00758
2.00919
2.01087
2.01263
2.01448
2.01641
2.01845
2.02059
2.02284
2.02522
2.02773
2.03037
2.03315
2.03633
2.03984
2.04338
2.04695
2.05056
2.05422
2.05792
2.06168
2.06548
2.06933
2.07321
2.07715
2.08115
2.08521
2.08934
2.09353
2.09779
2.1021
2.10643
2.11073
2.11496
2.11908
2.12311
2.12709
2.131
2.13482
2.13848
2.1419
2.14505
2.14773
2.14992
2.15122
2.15174
2.15142
2.15051
2.14896
2.14604
2.14198
2.13657
2.12994
2.1232
2.11678
2.11032
2.10387
2.09748
2.0912
2.08503
2.07901
2.07315
2.06745
2.06192
2.05657
2.0514
2.0464
2.04158
2.03694
2.03247
2.02818
2.02405
2.0201
2.01632
2.01269
2.00923
2.00592
2.00276
1.99974
1.99686
1.99412
1.99151
1.9889
1.98698
1.98774
1.98854
1.98938
1.99025
1.99117
1.99214
1.99315
1.9942
1.99531
1.99647
1.99768
1.99895
2.00028
2.00168
2.00313
2.00465
2.00624
2.0079
2.00964
2.01146
2.01336
2.01536
2.01746
2.01967
2.022
2.02446
2.02705
2.02978
2.03266
2.03594
2.03958
2.04325
2.04695
2.0507
2.05449
2.05834
2.06225
2.0662
2.07019
2.07423
2.07832
2.08247
2.08667
2.09094
2.09526
2.09964
2.10405
2.10847
2.11283
2.11711
2.12126
2.12532
2.1293
2.13319
2.13695
2.14052
2.14383
2.14681
2.14931
2.15128
2.15239
2.15273
2.15227
2.15122
2.14954
2.14663
2.14256
2.13714
2.13049
2.12371
2.11726
2.11075
2.10425
2.09779
2.09143
2.08518
2.07907
2.07311
2.0673
2.06167
2.0562
2.05092
2.04581
2.04087
2.03612
2.03154
2.02714
2.02291
2.01886
2.01498
2.01126
2.00771
2.00431
2.00107
1.99797
1.99502
1.9922
1.98953
1.98685
1.98503
1.98581
1.98663
1.9875
1.9884
1.98935
1.99034
1.99138
1.99247
1.99361
1.99481
1.99606
1.99737
1.99874
2.00018
2.00168
2.00325
2.00489
2.0066
2.00839
2.01026
2.01222
2.01428
2.01645
2.01872
2.02113
2.02366
2.02634
2.02916
2.03213
2.03552
2.03929
2.04308
2.04691
2.05079
2.05472
2.05871
2.06276
2.06686
2.071
2.07519
2.07943
2.08373
2.08808
2.09248
2.09694
2.10143
2.10595
2.11045
2.11489
2.11922
2.12343
2.12752
2.13151
2.13539
2.13911
2.14262
2.14583
2.14869
2.15104
2.15284
2.15381
2.15401
2.15344
2.15227
2.15048
2.14756
2.14348
2.13804
2.13135
2.12452
2.11802
2.11144
2.10486
2.09833
2.09187
2.08552
2.07929
2.07322
2.06729
2.06153
2.05595
2.05053
2.0453
2.04024
2.03536
2.03066
2.02615
2.02181
2.01765
2.01367
2.00985
2.00621
2.00272
1.99939
1.99621
1.99318
1.99029
1.98754
1.98479
1.98308
1.98388
1.98473
1.98561
1.98654
1.98752
1.98854
1.98961
1.99073
1.99191
1.99314
1.99443
1.99578
1.99719
1.99867
2.00021
2.00183
2.00352
2.00528
2.00712
2.00905
2.01107
2.01319
2.01541
2.01776
2.02023
2.02284
2.0256
2.0285
2.03156
2.03507
2.03895
2.04286
2.04682
2.05083
2.0549
2.05903
2.06321
2.06746
2.07175
2.0761
2.08049
2.08493
2.08942
2.09397
2.09856
2.10318
2.10781
2.11241
2.11692
2.12132
2.12558
2.12971
2.13373
2.13761
2.14132
2.14479
2.14794
2.1507
2.15295
2.15461
2.15548
2.15558
2.15492
2.15365
2.15177
2.14884
2.14475
2.13928
2.13254
2.12562
2.11906
2.1124
2.10573
2.09909
2.09252
2.08605
2.0797
2.07349
2.06743
2.06154
2.05581
2.05026
2.04488
2.03969
2.03468
2.02986
2.02522
2.02076
2.01649
2.0124
2.00848
2.00473
2.00115
1.99773
1.99446
1.99134
1.98837
1.98554
1.98272
1.98113
1.98195
1.98282
1.98373
1.98469
1.98569
1.98674
1.98784
1.98899
1.9902
1.99146
1.99279
1.99418
1.99563
1.99715
1.99874
2.0004
2.00213
2.00394
2.00584
2.00782
2.00989
2.01207
2.01435
2.01676
2.0193
2.02199
2.02482
2.02781
2.03096
2.03457
2.03856
2.0426
2.04668
2.05082
2.05502
2.05929
2.06362
2.068
2.07245
2.07694
2.08149
2.08608
2.09072
2.09541
2.10014
2.10489
2.10964
2.11434
2.11894
2.12342
2.12774
2.13193
2.13598
2.13988
2.14359
2.14704
2.15015
2.15286
2.15503
2.15661
2.1574
2.15743
2.15671
2.15536
2.15339
2.15045
2.14633
2.14083
2.13403
2.12704
2.12038
2.11363
2.10685
2.1001
2.0934
2.0868
2.08031
2.07395
2.06774
2.06169
2.05581
2.05011
2.04458
2.03924
2.03409
2.02913
2.02436
2.01978
2.01538
2.01118
2.00715
2.00329
1.9996
1.99608
1.99272
1.98951
1.98645
1.98354
1.98064
1.97917
1.98002
1.98091
1.98184
1.98282
1.98385
1.98493
1.98606
1.98724
1.98848
1.98978
1.99114
1.99256
1.99405
1.99561
1.99725
1.99895
2.00073
2.00259
2.00454
2.00657
2.0087
2.01093
2.01327
2.01574
2.01835
2.0211
2.02401
2.02708
2.03032
2.03402
2.03813
2.04228
2.04649
2.05076
2.05509
2.05949
2.06396
2.06849
2.07308
2.07773
2.08243
2.08718
2.09198
2.09681
2.10169
2.10657
2.11144
2.11626
2.12096
2.12552
2.12993
2.13417
2.13827
2.14221
2.14593
2.14939
2.15249
2.15516
2.1573
2.15883
2.15958
2.15957
2.1588
2.15738
2.15535
2.15239
2.14825
2.14271
2.13585
2.12876
2.12201
2.11514
2.10825
2.10136
2.09453
2.08777
2.08113
2.07461
2.06823
2.06202
2.05597
2.0501
2.04441
2.03891
2.03361
2.0285
2.02358
2.01887
2.01434
2.01
2.00585
2.00188
1.99808
1.99445
1.99098
1.98768
1.98452
1.98153
1.97854
1.97722
1.97809
1.979
1.97996
1.98096
1.98201
1.98311
1.98427
1.98548
1.98675
1.98808
1.98948
1.99094
1.99247
1.99407
1.99574
1.99749
1.99931
2.00122
2.00321
2.00529
2.00747
2.00976
2.01216
2.01469
2.01735
2.02018
2.02316
2.02631
2.02963
2.03343
2.03765
2.04192
2.04624
2.05063
2.0551
2.05964
2.06425
2.06892
2.07366
2.07846
2.08332
2.08823
2.09318
2.09818
2.1032
2.10823
2.11324
2.11817
2.12298
2.12764
2.13213
2.13646
2.14062
2.1446
2.14837
2.15185
2.15496
2.15763
2.15976
2.16127
2.16202
2.16198
2.16119
2.15972
2.15764
2.15466
2.15049
2.14491
2.13798
2.13079
2.12394
2.11695
2.10993
2.1029
2.09591
2.08899
2.08217
2.07548
2.06892
2.06253
2.0563
2.05025
2.04438
2.03871
2.03324
2.02797
2.02291
2.01804
2.01337
2.00889
2.00461
2.00051
1.99659
1.99284
1.98926
1.98585
1.9826
1.97951
1.97643
1.97527
1.97615
1.97709
1.97806
1.97909
1.98016
1.98129
1.98247
1.98371
1.98501
1.98638
1.9878
1.9893
1.99086
1.9925
1.99421
1.996
1.99787
1.99982
2.00186
2.00399
2.00622
2.00856
2.01101
2.0136
2.01633
2.01921
2.02226
2.02549
2.02889
2.03279
2.03711
2.04149
2.04594
2.05045
2.05505
2.05972
2.06447
2.06929
2.07419
2.07914
2.08416
2.08923
2.09435
2.0995
2.10469
2.10987
2.11502
2.12008
2.12502
2.12979
2.13438
2.13879
2.14302
2.14707
2.15089
2.15442
2.15758
2.16028
2.16243
2.16395
2.16471
2.16468
2.16388
2.16238
2.16026
2.15725
2.15306
2.14744
2.14044
2.13315
2.12618
2.11906
2.11189
2.1047
2.09755
2.09045
2.08345
2.07657
2.06983
2.06323
2.05681
2.05057
2.04452
2.03867
2.03302
2.02757
2.02234
2.01731
2.01248
2.00785
2.00342
1.99918
1.99513
1.99125
1.98755
1.98403
1.98067
1.97747
1.9743
1.97332
1.97422
1.97517
1.97617
1.97722
1.97831
1.97947
1.98067
1.98194
1.98327
1.98466
1.98612
1.98765
1.98925
1.99092
1.99267
1.9945
1.99641
1.99841
2.00049
2.00267
2.00495
2.00733
2.00984
2.01248
2.01526
2.01821
2.02133
2.02462
2.0281
2.03209
2.03653
2.04102
2.04558
2.05021
2.05494
2.05975
2.06464
2.06961
2.07465
2.07977
2.08495
2.09019
2.09547
2.1008
2.10615
2.11149
2.11679
2.122
2.12707
2.13196
2.13666
2.14117
2.1455
2.14963
2.15353
2.15713
2.16034
2.1631
2.1653
2.16687
2.16767
2.16767
2.16687
2.16537
2.16321
2.16019
2.15597
2.15032
2.14324
2.13583
2.12874
2.12148
2.11416
2.1068
2.09946
2.09218
2.08499
2.0779
2.07095
2.06416
2.05753
2.05108
2.04483
2.03878
2.03294
2.02731
2.02189
2.01669
2.01169
2.00689
2.0023
1.99791
1.99371
1.9897
1.98587
1.98221
1.97874
1.97543
1.97215
1.97136
1.97228
1.97325
1.97427
1.97534
1.97646
1.97763
1.97886
1.98016
1.98151
1.98293
1.98442
1.98598
1.98761
1.98932
1.99111
1.99298
1.99493
1.99696
1.99909
2.00131
2.00364
2.00607
2.00863
2.01132
2.01416
2.01716
2.02034
2.02371
2.02726
2.03134
2.03588
2.04048
2.04515
2.04991
2.05476
2.05971
2.06474
2.06987
2.07507
2.08035
2.08569
2.0911
2.09656
2.10206
2.10759
2.1131
2.11856
2.12393
2.12914
2.13417
2.13899
2.14361
2.14805
2.15229
2.15628
2.15997
2.16328
2.16612
2.1684
2.17003
2.1709
2.17095
2.17019
2.16868
2.16651
2.16347
2.15923
2.15354
2.14639
2.13886
2.13164
2.12423
2.11673
2.10919
2.10166
2.09418
2.08678
2.07948
2.07232
2.0653
2.05846
2.0518
2.04534
2.03908
2.03304
2.0272
2.02159
2.01619
2.011
2.00603
2.00126
1.9967
1.99234
1.98818
1.98421
1.98042
1.97681
1.97338
1.96998
1.96941
1.97034
1.97133
1.97237
1.97346
1.9746
1.97579
1.97705
1.97837
1.97975
1.98119
1.98271
1.9843
1.98596
1.9877
1.98953
1.99143
1.99342
1.9955
1.99766