/*--------------------------------*- C++ -*----------------------------------*\
  =========                 |
  \\      /  F ield         | OpenFOAM: The Open Source CFD Toolbox
   \\    /   O peration     | Website:  https://openfoam.org
    \\  /    A nd           | Version:  9
     \\/     M anipulation  |
\*---------------------------------------------------------------------------*/
FoamFile
{
    format      ascii;
    class       volScalarField;
    location    "0.11";
    object      p_rgh;
}
// * * * * * * * * * * * * * * * * * * * * * * * * * * * * * * * * * * * * * //

dimensions      [1 -1 -2 0 0 0 0];

internalField   nonuniform List<scalar> 
20000
(
-4.70691e-05
-7.49094e-05
-8.73093e-05
-9.10746e-05
-8.98309e-05
-8.45407e-05
-7.5314e-05
-6.15732e-05
-4.22049e-05
-1.57232e-05
1.95564e-05
6.53818e-05
0.000123313
0.000194533
0.000279507
0.000377505
0.000485923
0.00059945
0.000709408
0.000804038
0.000871022
0.000903107
0.000904822
0.000894889
0.000897131
0.000925607
0.000973908
0.00101703
0.00101754
0.000934647
0.00071819
0.00035974
-3.00808e-05
-0.000367088
-0.00064834
-0.000947003
-0.00135449
-0.00193897
-0.00273625
-0.00375559
-0.00498678
-0.0064032
-0.00796351
-0.00961975
-0.0113455
-0.0132028
-0.0154815
-0.0189907
-0.0257758
-0.0410298
-0.0781891
-0.164848
-0.292311
-0.249706
-0.133432
-0.0704743
-0.0413419
-0.0262078
-0.0159121
-0.00713837
0.000134387
0.00282886
-0.00702992
-0.0501877
-0.0185606
-0.145185
-0.106101
-0.0924362
-0.023962
0.000533948
0.00628782
0.00658427
0.00548654
0.00430118
0.00342257
0.00285561
0.00251251
0.00231626
0.00220773
0.00214447
0.00209785
0.00205012
0.00199185
0.00191935
0.00183228
0.00173196
0.00162028
0.00149992
0.00137329
0.00124285
0.00111074
0.000978712
0.000848147
0.000720137
0.000595555
0.000475103
0.000359355
0.000248926
0.000144523
4.61245e-05
-3.29041e-05
-3.725e-05
-2.06864e-05
1.09472e-05
5.65318e-05
0.000114394
0.000183109
0.000261733
0.000349786
0.000447221
0.000554343
0.000671688
0.000799823
0.000939087
0.00108926
0.00124913
0.001416
0.00158519
0.00174972
0.00190082
0.00202979
0.00213184
0.0022109
0.00228123
0.00236261
0.00247054
0.0026047
0.00274638
0.00286389
0.00292081
0.00288288
0.00272608
0.00251399
0.00230698
0.00211582
0.00189709
0.00158556
0.00112372
0.000473583
-0.00038431
-0.00145705
-0.00274646
-0.00425867
-0.00602286
-0.00813084
-0.0108158
-0.0146008
-0.0205693
-0.0308702
-0.0493203
-0.0808013
-0.12941
-0.191953
-0.173489
-0.116506
-0.0730354
-0.0424355
-0.0222497
-0.00781677
0.00374422
0.0129468
0.0187821
0.0255747
0.00640037
0.122734
-0.137668
0.00842298
-0.059787
0.0044465
0.0163014
0.0202362
0.0201288
0.0184626
0.0164902
0.0145749
0.0129788
0.0116333
0.0105017
0.00954105
0.00871129
0.00797933
0.00732006
0.00671593
0.00615505
0.00562897
0.00513149
0.00465819
0.00420624
0.00377396
0.00336037
0.00296475
0.00258649
0.00222505
0.00187995
0.00155077
0.00123715
0.000938744
0.000655775
0.000387963
0.000129
1.71586e-05
6.87739e-05
0.000125237
0.000190076
0.000264515
0.000348787
0.00044317
0.000547881
0.000663085
0.000788955
0.000925689
0.00107348
0.00123244
0.00140252
0.00158326
0.00177365
0.00197178
0.00217465
0.00237805
0.00257681
0.00276585
0.00294235
0.00310807
0.00326966
0.00343723
0.00361872
0.00381356
0.00401045
0.00418998
0.00432917
0.00441244
0.00441104
0.0043544
0.0042786
0.00418677
0.00404756
0.00381433
0.00344256
0.00289831
0.00215839
0.00120568
2.17816e-05
-0.00142441
-0.00319757
-0.00543469
-0.00841368
-0.0126638
-0.0191157
-0.0293072
-0.0454987
-0.0694685
-0.101339
-0.140603
-0.128015
-0.0907788
-0.0600822
-0.0343346
-0.0146033
0.00121675
0.0151228
0.0278642
0.0393377
0.0650217
0.0506628
0.19096
-0.00844277
0.0944049
0.00446222
0.0439159
0.0354406
0.0345329
0.0320155
0.0288736
0.0258589
0.0230754
0.020686
0.0186138
0.0168204
0.0152575
0.0138803
0.0126512
0.0115408
0.0105273
0.00959385
0.00872702
0.00791645
0.00715456
0.00643596
0.00575671
0.0051137
0.00450429
0.00392615
0.00337725
0.00285574
0.00235997
0.00188842
0.00143964
0.00101312
0.00060751
0.000206814
3.94145e-05
0.00012783
0.000221544
0.000322085
0.000430005
0.000545971
0.000670833
0.000805333
0.000950101
0.00110568
0.00127252
0.00145096
0.0016412
0.00184325
0.00205685
0.00228135
0.00251558
0.00275769
0.00300514
0.0032548
0.00350338
0.00374854
0.00399032
0.00423145
0.00447683
0.0047303
0.00499123
0.00525287
0.00550274
0.00572601
0.00592173
0.00605973
0.00614384
0.00619499
0.006212
0.00617032
0.00603396
0.00576662
0.00533757
0.00472188
0.00389652
0.00283376
0.00149066
-0.000209516
-0.002408
-0.00535731
-0.00948491
-0.0154482
-0.0241934
-0.0370818
-0.0550011
-0.0772457
-0.102778
-0.0938066
-0.06736
-0.0439445
-0.0224882
-0.00435012
0.0117955
0.0275226
0.0439887
0.0592768
0.100034
0.0888121
0.230344
0.112126
0.158742
0.0691731
0.0827513
0.0572289
0.050689
0.0446696
0.0394173
0.0350168
0.0312422
0.0280093
0.0252226
0.0228028
0.0206802
0.0187982
0.017112
0.0155866
0.0141946
0.0129137
0.0117266
0.01062
0.00958393
0.00861092
0.00769491
0.00683083
0.0060143
0.00524155
0.00450923
0.00381433
0.00315409
0.00252606
0.00192803
0.0013593
0.000817791
0.000279001
5.61732e-05
0.000177497
0.000306343
0.000442253
0.000585712
0.000737401
0.00089809
0.00106847
0.00124918
0.00144086
0.00164407
0.00185926
0.00208679
0.00232685
0.0025794
0.00284414
0.00312038
0.00340704
0.00370259
0.00400517
0.00431281
0.00462388
0.004938
0.00525624
0.00558077
0.00591307
0.00625203
0.00659285
0.00692682
0.00724375
0.00755661
0.0078351
0.00806123
0.00824525
0.00838338
0.00845599
0.00843475
0.00828966
0.00799308
0.00751957
0.00684281
0.00593024
0.00473423
0.00317694
0.00112855
-0.00161986
-0.00539106
-0.0106382
-0.0179352
-0.0280421
-0.0410132
-0.0552495
-0.0698231
-0.0637985
-0.0463106
-0.0283859
-0.0100365
0.00688986
0.0231388
0.0400214
0.0593437
0.0760796
0.124631
0.120027
0.247281
0.181098
0.193239
0.115089
0.110494
0.0768274
0.066402
0.0572736
0.0500664
0.0443059
0.0394915
0.0354101
0.0319038
0.0288547
0.0261727
0.0237886
0.0216484
0.0197098
0.0179389
0.016309
0.0147993
0.0133937
0.0120802
0.0108486
0.0096909
0.00860009
0.00757037
0.00659668
0.00567451
0.00479979
0.00396884
0.00317843
0.00242575
0.00171004
0.00102879
0.000350481
7.14092e-05
0.000223777
0.000385237
0.000554618
0.000732569
0.000919772
0.00111686
0.00132443
0.00154308
0.00177339
0.00201594
0.00227123
0.0025397
0.00282164
0.00311722
0.00342637
0.00374885
0.0040841
0.00443132
0.00478948
0.00515746
0.00553434
0.0059198
0.00631426
0.00671858
0.00713301
0.00755609
0.00798397
0.00841021
0.00882758
0.00926162
0.00968128
0.01005
0.0103713
0.0106399
0.0108394
0.0109474
0.0109389
0.0107894
0.0104742
0.00996595
0.00923127
0.00822332
0.00687001
0.00506024
0.00263092
-0.000650434
-0.00508073
-0.0109537
-0.0185298
-0.0272739
-0.0355233
-0.0429707
-0.0386183
-0.0270197
-0.0132508
0.00249486
0.0183129
0.0344202
0.0517679
0.0727865
0.0897256
0.139737
0.141945
0.250229
0.210853
0.207483
0.14266
0.127935
0.0924949
0.0800406
0.068668
0.0600276
0.0531448
0.0474003
0.0425413
0.0383638
0.0347225
0.0315121
0.0286518
0.0260789
0.0237437
0.0216073
0.0196394
0.0178165
0.0161201
0.0145354
0.0130503
0.0116547
0.0103403
0.00910003
0.0079276
0.00681752
0.00576477
0.00476496
0.00381426
0.00290934
0.0020493
0.00123126
0.000417998
8.56005e-05
0.000266722
0.000458499
0.000659323
0.000869963
0.00109106
0.00132319
0.00156692
0.00182286
0.0020916
0.00237372
0.00266978
0.00298025
0.00330554
0.00364598
0.00400175
0.00437294
0.00475943
0.0051609
0.00557682
0.00600659
0.00644964
0.00690576
0.00737508
0.00785795
0.00835427
0.00886268
0.00938019
0.00990197
0.0104226
0.010979
0.0115383
0.0120481
0.0125083
0.0129134
0.0132492
0.0134972
0.0136368
0.0136462
0.0135023
0.0131792
0.0126462
0.0118615
0.010764
0.00926668
0.00725498
0.00458172
0.00108646
-0.00330436
-0.00854529
-0.0139907
-0.0184767
-0.0219675
-0.0182994
-0.00974957
0.00134564
0.0149434
0.0295783
0.0452199
0.0624124
0.0836572
0.101339
0.149107
0.156806
0.247124
0.222709
0.213396
0.16024
0.139497
0.104737
0.0913122
0.0783966
0.0688499
0.0611101
0.0546107
0.049098
0.0443407
0.0401799
0.0365004
0.0332127
0.0302467
0.0275479
0.0250742
0.022793
0.0206786
0.01871
0.0168704
0.0151458
0.0135249
0.0119982
0.0105574
0.00919541
0.00790574
0.00668271
0.00552138
0.0044175
0.00336733
0.00236976
0.00142145
0.000480347
9.9147e-05
0.000307864
0.000528813
0.000760068
0.00100242
0.00125651
0.00152288
0.00180213
0.00209489
0.00240179
0.00272344
0.00306046
0.00341339
0.00378275
0.00416903
0.00457266
0.00499396
0.00543316
0.00589027
0.00636511
0.00685736
0.00736673
0.00789306
0.00843647
0.00899721
0.00957519
0.0101695
0.0107779
0.0113969
0.0120221
0.0127011
0.0133992
0.0140496
0.0146507
0.0151972
0.0156766
0.0160738
0.0163713
0.01655
0.0165892
0.0164664
0.016156
0.0156239
0.0148228
0.0136925
0.0121656
0.0101707
0.00765507
0.00467848
0.00140786
-0.00163644
-0.00376745
-0.00495602
-0.00151672
0.00547508
0.0149386
0.0269132
0.0404246
0.0554092
0.072107
0.0930649
0.110532
0.155285
0.166567
0.240329
0.225806
0.214755
0.171819
0.147614
0.114303
0.100559
0.08658
0.0765166
0.0681421
0.0610648
0.0550308
0.049795
0.0451956
0.0411121
0.037449
0.0341326
0.0311064
0.028327
0.02576
0.0233777
0.0211574
0.0190805
0.0171321
0.0152998
0.013573
0.0119427
0.0104009
0.00894031
0.00755497
0.00623961
0.0049897
0.00380113
0.00267256
0.00160015
0.000537576
0.000112402
0.000348414
0.000598238
0.000859627
0.00113342
0.00142027
0.00172078
0.00203557
0.00236529
0.0027106
0.00307217
0.00345064
0.00384665
0.00426084
0.00469385
0.00514629
0.00561873
0.00611161
0.00662521
0.00715961
0.0077148
0.0082907
0.00888739
0.0095051
0.0101442
0.0108047
0.0114861
0.0121871
0.0129049
0.013636
0.0144384
0.015276
0.0160685
0.0168135
0.0175058
0.0181355
0.0186896
0.0191536
0.0195108
0.0197435
0.0198341
0.0197634
0.0195061
0.0190292
0.0182975
0.0172845
0.0159754
0.0143874
0.0126433
0.0109429
0.00966686
0.00918815
0.0095334
0.0129207
0.0189797
0.0273462
0.0381055
0.0506366
0.064886
0.0808587
0.101214
0.119077
0.157567
0.171999
0.231097
0.223243
0.212534
0.178263
0.152822
0.121404
0.10794
0.0935479
0.0831143
0.074286
0.066797
0.0603676
0.0547515
0.0497916
0.0453654
0.0413762
0.0377506
0.0344323
0.0313776
0.028551
0.0259231
0.0234702
0.0211729
0.0190156
0.0169851
0.0150701
0.0132605
0.0115477
0.00992445
0.00838436
0.0069221
0.00553292
0.00421235
0.00295874
0.00176783
0.000589503
0.000125459
0.000388607
0.000667139
0.000958505
0.00126361
0.00158318
0.00191786
0.00226831
0.00263522
0.00301927
0.00342118
0.00384164
0.00428139
0.00474118
0.00522177
0.00572395
0.00624845
0.00679592
0.00736682
0.00796151
0.00858021
0.00922314
0.00989066
0.0105832
0.0113014
0.0120456
0.0128157
0.013611
0.0144293
0.0152679
0.0161952
0.0171737
0.0181102
0.0190022
0.0198449
0.0206302
0.0213479
0.0219856
0.0225291
0.0229641
0.0232781
0.0234589
0.0234904
0.0233528
0.0230321
0.0225315
0.0218746
0.0211205
0.020417
0.0199639
0.0200286
0.0207721
0.0221874
0.025609
0.0310745
0.0386369
0.0484311
0.0600768
0.0735502
0.0886176
0.107866
0.124961
0.158853
0.174407
0.22093
0.217272
0.207842
0.180649
0.155588
0.12734
0.112788
0.0990031
0.0886076
0.0795637
0.0718278
0.065122
0.0592186
0.0539712
0.0492602
0.0449926
0.0410984
0.037523
0.0342228
0.0311617
0.02831
0.0256435
0.0231429
0.020792
0.0185768
0.0164852
0.0145067
0.0126326
0.0108555
0.00916895
0.00756761
0.00604644
0.00460059
0.00322807
0.0019242
0.000635704
0.000138362
0.00042848
0.00073556
0.00105676
0.00139308
0.00174531
0.00211415
0.0025003
0.00290448
0.00332743
0.00376991
0.0042327
0.00471663
0.00522254
0.00575134
0.00630393
0.0068812
0.00748396
0.00811286
0.00876847
0.00945127
0.0101618
0.0109007
0.0116687
0.0124667
0.0132954
0.0141553
0.0150463
0.0159666
0.0169141
0.0179678
0.0190888
0.0201711
0.0212125
0.0222091
0.0231545
0.0240411
0.0248584
0.0255945
0.0262382
0.0267823
0.0272213
0.0275474
0.0277523
0.0278396
0.0278333
0.0277813
0.0277663
0.02794
0.0284819
0.0295592
0.0311867
0.0333354
0.0368446
0.0419585
0.048932
0.057937
0.0687604
0.0813967
0.0954365
0.113314
0.129078
0.158416
0.175671
0.210907
0.209763
0.201892
0.18036
0.15642
0.131241
0.116742
0.103391
0.0931209
0.0840334
0.0761862
0.0693088
0.063202
0.0577337
0.0527926
0.0482932
0.0441704
0.0403722
0.0368555
0.0335848
0.0305312
0.0276709
0.0249846
0.0224555
0.0200692
0.0178132
0.015677
0.0136519
0.0117306
0.00990679
0.00817484
0.00652941
0.00496527
0.00348012
0.00206893
0.000675746
0.000151173
0.00046817
0.000803703
0.00115466
0.00152214
0.00190699
0.00230995
0.00273178
0.00317325
0.00363517
0.00411837
0.00462369
0.00515205
0.00570441
0.00628177
0.00688518
0.00751566
0.00817417
0.00886154
0.00957854
0.0103259
0.0111045
0.0119153
0.0127593
0.0136376
0.0145516
0.0155022
0.0164897
0.0175131
0.0185705
0.0197515
0.0210162
0.0222458
0.0234385
0.0245917
0.0257007
0.0267599
0.027761
0.028694
0.0295509
0.0303289
0.0310281
0.0316482
0.0321909
0.0326732
0.0331336
0.0336349
0.0342691
0.0351776
0.0365069
0.0383387
0.0405962
0.0432493
0.0468713
0.0517919
0.0583351
0.0666744
0.0767346
0.0885133
0.101492
0.117959
0.132468
0.157959
0.174737
0.201362
0.201891
0.195512
0.17857
0.156108
0.133591
0.119718
0.106878
0.0968094
0.0877912
0.0799286
0.0729627
0.0667228
0.0610923
0.0559714
0.0512841
0.0469705
0.0429814
0.0392758
0.0358199
0.0325861
0.0295514
0.0266965
0.0240045
0.0214606
0.0190526
0.0167702
0.014605
0.0125498
0.0105981
0.00874419
0.00698221
0.00530666
0.00371501
0.00220201
0.000709331
0.000163925
0.000507773
0.000871724
0.0012524
0.00165101
0.00206846
0.00250554
0.00296307
0.00344188
0.00394285
0.00446687
0.00501488
0.00558786
0.00618688
0.00681304
0.00746754
0.00815152
0.00886607
0.00961222
0.0103909
0.0112033
0.0120503
0.0129333
0.0138537
0.0148129
0.0158127
0.0168546
0.0179394
0.0190666
0.0202346
0.0215438
0.022953
0.0243311
0.0256767
0.0269884
0.0282633
0.0294976
0.0306849
0.0318173
0.0328898
0.0339032
0.034862
0.0357715
0.0366419
0.0375
0.0383935
0.0393928
0.040589
0.042105
0.0440518
0.046447
0.0491612
0.0521736
0.0559047
0.060711
0.0669227
0.0746964
0.084046
0.0949839
0.106926
0.121981
0.135298
0.157449
0.172417
0.192612
0.194222
0.18907
0.175761
0.155192
0.134882
0.121756
0.109554
0.0997871
0.0909297
0.083124
0.0761343
0.069818
0.0640753
0.0588192
0.0539829
0.049512
0.0453611
0.041492
0.0378737
0.0344801
0.0312891
0.0282816
0.0254406
0.0227522
0.0202043
0.0177873
0.0154929
0.013314
0.0112438
0.00927626
0.00740522
0.00562494
0.0039328
0.00232347
0.000736212
0.000176619
0.000547285
0.000939642
0.00135004
0.00177976
0.00222978
0.00270099
0.00319425
0.00371047
0.00425059
0.00481555
0.00540637
0.0060241
0.00666991
0.00734505
0.0080508
0.00878845
0.00955923
0.0103643
0.011205
0.0120825
0.0129983
0.0139539
0.014951
0.0159916
0.0170777
0.0182114
0.019394
0.0206255
0.0219046
0.0233426
0.0248971
0.0264245
0.0279242
0.0293959
0.0308384
0.0322493
0.0336238
0.0349562
0.0362446
0.0374924
0.0387076
0.0398994
0.0410842
0.0422949
0.043585
0.0450266
0.046703
0.0487167
0.0511472
0.0539667
0.0570213
0.0602977
0.0641225
0.0688515
0.0747815
0.082067
0.0907502
0.100867
0.111808
0.125453
0.137532
0.156659
0.169689
0.184896
0.187018
0.182741
0.172251
0.153749
0.135473
0.123095
0.111578
0.102171
0.0935387
0.085844
0.0788802
0.0725332
0.06672
0.0613662
0.056414
0.0518145
0.0475271
0.0435175
0.0397574
0.0362223
0.032891
0.0297449
0.0267682
0.0239475
0.0212715
0.0187311
0.016318
0.014025
0.0118452
0.00977182
0.0077988
0.00592019
0.00413347
0.0024333
0.000756178
0.000189278
0.000586743
0.0010075
0.00144762
0.00190845
0.00239106
0.0028964
0.00342541
0.00397907
0.00455837
0.00516432
0.005798
0.00646055
0.00715324
0.00787743
0.00863453
0.00942593
0.010253
0.0111172
0.0120199
0.0129627
0.0139474
0.0149759
0.0160501
0.0171723
0.0183451
0.019571
0.0208519
0.0221879
0.0235784
0.0251455
0.0268457
0.028523
0.0301776
0.0318103
0.0334214
0.0350095
0.036571
0.0381028
0.0396051
0.041084
0.0425498
0.0440144
0.0454977
0.0470363
0.0486865
0.0505179
0.052602
0.0550218
0.0578316
0.0609732
0.0642902
0.0677633
0.0716664
0.0763354
0.0820129
0.0888583
0.0969183
0.10624
0.116221
0.1285
0.139333
0.155691
0.166914
0.17823
0.180407
0.176646
0.168275
0.151849
0.135548
0.12394
0.113114
0.104086
0.0957116
0.0881621
0.0812602
0.0749178
0.0690673
0.0636462
0.0586048
0.0539009
0.049499
0.0453688
0.0414845
0.0378234
0.0343655
0.0310937
0.0279932
0.0250518
0.0222589
0.0196057
0.0170837
0.0146856
0.0124039
0.0102321
0.00816367
0.00619285
0.00431729
0.00253169
0.000769172
0.000201962
0.000626248
0.00107541
0.00154521
0.00203713
0.00255232
0.0030918
0.00365658
0.00424767
0.00486613
0.00551305
0.00618957
0.00689695
0.00763655
0.00840983
0.0092183
0.0100635
0.0109469
0.0118701
0.0128349
0.0138431
0.0148968
0.0159982
0.0171496
0.0183536
0.0196133
0.0209317
0.0223109
0.0237516
0.0252536
0.0269498
0.0287958
0.0306232
0.0324329
0.0342271
0.0360071
0.0377722
0.03952
0.041249
0.042962
0.0446666
0.0463749
0.0481007
0.0498651
0.0517062
0.0536815
0.0558554
0.0582852
0.0610364
0.0641422
0.0675301
0.0710511
0.0746719
0.0786418
0.0832558
0.0887105
0.095152
0.102633
0.111204
0.120275
0.131264
0.1409
0.154708
0.164194
0.172519
0.174467
0.170885
0.164095
0.149655
0.135248
0.124422
0.114284
0.105638
0.0975367
0.0901514
0.0833354
0.0770231
0.07116
0.0656946
0.0605855
0.0557972
0.0512991
0.0470647
0.0430707
0.0392963
0.0357237
0.0323373
0.029124
0.0260726
0.023173
0.0204163
0.0177941
0.0152985
0.0129223
0.0106585
0.00850083
0.00644357
0.00448469
0.002619
0.000775247
0.000214678
0.000665757
0.00114326
0.00164269
0.00216567
0.00271343
0.00328703
0.00388752
0.00451601
0.00517358
0.00586141
0.00658074
0.0073329
0.00811938
0.00894171
0.00980151
0.0107004
0.0116401
0.0126224
0.0136492
0.0147228
0.0158455
0.0170198
0.0182484
0.0195342
0.0208808
0.0222916
0.0237691
0.0253143
0.0269276
0.0287529
0.0307445
0.0327216
0.0346862
0.0366418
0.0385906
0.0405319
0.0424642
0.0443878
0.046307
0.0482308
0.0501725
0.0521468
0.0541742
0.0562929
0.0585607
0.0610348
0.0637591
0.0667815
0.0701173
0.0736913
0.0773655
0.0810991
0.0851272
0.0896867
0.0949449
0.101021
0.107966
0.115832
0.124051
0.13383
0.14233
0.153798
0.161612
0.167672
0.169251
0.165585
0.159914
0.147423
0.134741
0.124663
0.11519
0.106919
0.0990935
0.0918818
0.0851663
0.0789006
0.0730418
0.0675489
0.0623886
0.0575314
0.0529515
0.0486256
0.0445331
0.040656
0.0369786
0.0334877
0.0301714
0.0270193
0.0240217
0.0211695
0.0184542
0.0158679
0.0134031
0.0110532
0.00881182
0.00667343
0.0046364
0.00269563
0.000774522
0.000227373
0.000705114
0.00121086
0.00173987
0.00229387
0.00287414
0.00348179
0.00411793
0.00478371
0.0054803
0.00620894
0.00697097
0.00776782
0.00860108
0.00947238
0.0103834
0.011336
0.0123319
0.0133731
0.0144618
0.0156007
0.0167923
0.0180395
0.0193451
0.0207126
0.0221459
0.0236489
0.0252244
0.0268739
0.0285982
0.0305522
0.032689
0.0348153
0.0369341
0.0390505
0.0411671
0.0432834
0.045398
0.0475128
0.0496329
0.0517688
0.0539344
0.0561442
0.0584168
0.0607898
0.0633199
0.0660572
0.0690335
0.0722801
0.0757955
0.0795067
0.0832902
0.0871103
0.0911847
0.0956892
0.100765
0.106511
0.11296
0.120166
0.12759
0.136239
0.143658
0.153014
0.159272
0.163638
0.16482
0.160908
0.155994
0.145323
0.134165
0.124787
0.115931
0.108015
0.100457
0.0934194
0.0868103
0.0805998
0.0747558
0.0692469
0.0640473
0.0591327
0.0544812
0.0500729
0.0458905
0.041919
0.0381455
0.0345586
0.0311476
0.0279026
0.0248139
0.0218724
0.0190697
0.016398
0.0138499
0.0114188
0.0090986
0.00688381
0.00477327
0.002762
0.000767119
0.000240015
0.000744279
0.00127818
0.0018367
0.00242163
0.0030343
0.00367588
0.00434754
0.00505048
0.00578595
0.00655528
0.00735987
0.00820127
0.00908114
0.0100013
0.0109634
0.0119695
0.0130214
0.0141213
0.0152718
0.0164758
0.0177361
0.0190559
0.0204382
0.0218871
0.0234068
0.0250015
0.0266746
0.0284278
0.0302628
0.0323451
0.0346265
0.0369011
0.0391732
0.0414491
0.0437322
0.0460215
0.0483159
0.0506177
0.0529331
0.0552733
0.0576532
0.0600859
0.0625871
0.0651929
0.0679577
0.0709253
0.0741186
0.0775524
0.0812109
0.0850224
0.0888792
0.0927664
0.0968677
0.101313
0.106213
0.111657
0.117648
0.124237
0.130924
0.138529
0.144929
0.152424
0.157289
0.160397
0.16124
0.156993
0.152595
0.143498
0.133635
0.124897
0.116595
0.109004
0.101697
0.0948257
0.0883213
0.0821679
0.0763436
0.0708257
0.065594
0.060629
0.0559123
0.051428
0.0471623
0.0431035
0.039241
0.035565
0.0320656
0.0287332
0.0255583
0.0225322
0.0196464
0.0168935
0.0142662
0.0117581
0.00936319
0.00707607
0.00489606
0.00281834
0.000753066
0.000252632
0.000783365
0.00134533
0.00193324
0.00254895
0.00319385
0.00386918
0.00457618
0.00531613
0.00609032
0.00690015
0.00774711
0.00863285
0.00955913
0.0105278
0.0115408
0.0126001
0.0137078
0.0148663
0.0160783
0.0173471
0.0186757
0.0200676
0.0215263
0.023056
0.0246616
0.0263475
0.0281174
0.0299737
0.0319187
0.0341286
0.0365538
0.0389758
0.0413998
0.0438336
0.0462811
0.0487412
0.0512126
0.0536972
0.0562016
0.0587384
0.0613227
0.0639662
0.066681
0.0695006
0.0724753
0.0756443
0.0790244
0.0826159
0.0863917
0.0902789
0.0941841
0.0981204
0.102229
0.106608
0.11134
0.116503
0.122075
0.128093
0.134103
0.140753
0.146211
0.152108
0.155769
0.157936
0.158524
0.15395
0.149914
0.142076
0.133257
0.125077
0.117259
0.109957
0.102877
0.0961565
0.0897484
0.0836491
0.0778449
0.0723201
0.0670592
0.0620467
0.0572684
0.0527124
0.0483686
0.044228
0.0402821
0.0365219
0.0329383
0.029522
0.0262642
0.0231563
0.0201905
0.0173593
0.0146559
0.012074
0.00960763
0.00725148
0.00500538
0.00286471
0.000732286
0.000265215
0.000822343
0.00141225
0.00202935
0.00267562
0.00335254
0.00406141
0.00480353
0.00558026
0.00639295
0.00724308
0.0081322
0.00906206
0.0100345
0.0110516
0.0121152
0.0132275
0.0143906
0.0156073
0.0168805
0.0182136
0.0196101
0.0210735
0.0226078
0.0242177
0.0259085
0.0276849
0.0295508
0.0315093
0.0335635
0.0359001
0.0384681
0.0410362
0.0436105
0.0462001
0.0488094
0.0514375
0.0540829
0.0567462
0.0594338
0.0621593
0.0649385
0.0677811
0.070697
0.0737137
0.0768772
0.0802228
0.0837636
0.0874883
0.0913629
0.0953097
0.0992493
0.103222
0.107322
0.111628
0.116206
0.121107
0.126293
0.13179
0.137182
0.142967
0.147573
0.152136
0.154791
0.156226
0.156469
0.151995
0.148069
0.141148
0.133116
0.125399
0.117988
0.110934
0.104051
0.0974608
0.0911365
0.0850838
0.0792957
0.0737617
0.0684706
0.0634107
0.0585724
0.0539477
0.0495296
0.0453112
0.0412853
0.0374436
0.0337779
0.0302795
0.0269403
0.0237523
0.020708
0.0178004
0.0150229
0.0123693
0.00983387
0.00741127
0.00510182
0.00290111
0.000704634
0.000277675
0.000860959
0.00147855
0.00212461
0.00280121
0.0035099
0.00425206
0.00502906
0.00584232
0.00669327
0.00758343
0.00851447
0.00948822
0.0105066
0.0115718
0.0126858
0.0138508
0.0150691
0.0163436
0.0176775
0.0190744
0.020538
0.0220721
0.0236813
0.0253706
0.0271457
0.0290117
0.0309728
0.0330325
0.0351948
0.037657
0.0403665
0.0430795
0.0458025
0.0485453
0.0513131
0.0541061
0.0569219
0.0597598
0.062625
0.065532
0.0684972
0.0715284
0.0746332
0.0778346
0.0811696
0.0846719
0.0883515
0.0921891
0.0961469
0.100143
0.104114
0.108111
0.112194
0.116425
0.120861
0.125518
0.130352
0.135375
0.140208
0.14522
0.149072
0.152554
0.154398
0.155252
0.155109
0.151002
0.147046
0.140746
0.133274
0.125918
0.118835
0.111986
0.105266
0.0987821
0.0925257
0.0865085
0.0807284
0.0751792
0.0698536
0.0647447
0.0598467
0.0551549
0.0506646
0.0463704
0.0422657
0.0383434
0.0345959
0.0310157
0.0275953
0.0243274
0.0212051
0.0182218
0.0153711
0.0126471
0.010044
0.00755681
0.0051861
0.00292767
0.000669955
0.000289962
0.000899069
0.00154403
0.00221878
0.00292542
0.0036656
0.00444076
0.00525235
0.00610182
0.0069907
0.00792059
0.00889325
0.00991061
0.0109747
0.0120877
0.0132518
0.0144692
0.0157424
0.0170743
0.0184683
0.0199283
0.0214582
0.0230622
0.0247452
0.0265128
0.0283713
0.0303259
0.0323812
0.0345411
0.0368102
0.0393965
0.042246
0.0451024
0.0479724
0.0508659
0.053789
0.0567429
0.0597253
0.0627335
0.0657712
0.068853
0.0719956
0.0752059
0.0784896
0.0818643
0.0853587
0.0890027
0.0928036
0.0967379
0.100765
0.104805
0.108809
0.112818
0.116879
0.121039
0.125342
0.129777
0.134289
0.138886
0.14322
0.147551
0.150753
0.153381
0.154592
0.154985
0.1545
0.150756
0.146757
0.140859
0.133764
0.126674
0.119843
0.113154
0.106561
0.100159
0.0939519
0.0879556
0.0821719
0.0765986
0.0712328
0.0660717
0.0611129
0.056354
0.0517916
0.0474212
0.0432372
0.0392333
0.0354031
0.03174
0.0282374
0.0248889
0.0216881
0.0186286
0.0157047
0.0129105
0.0102407
0.00768995
0.00525937
0.00294483
0.000628155
0.000302093
0.000936718
0.00160875
0.00231183
0.00304819
0.00381951
0.00462731
0.00547308
0.00635838
0.0072848
0.00825405
0.00926799
0.0103286
0.0114381
0.0125987
0.0138125
0.0150819
0.0164095
0.0177982
0.0192517
0.020774
0.0223693
0.0240421
0.0257978
0.0276427
0.0295834
0.0316255
0.0337739
0.0360328
0.0384074
0.041116
0.0441035
0.0471015
0.0501167
0.0531586
0.0562338
0.0593448
0.0624896
0.0656639
0.0688692
0.0721197
0.0754317
0.0788123
0.082266
0.0858049
0.0894496
0.0932252
0.0971352
0.101155
0.10524
0.10932
0.113355
0.117365
0.121403
0.125499
0.129679
0.133912
0.138139
0.142357
0.14625
0.149993
0.152647
0.154611
0.155337
0.155364
0.154618
0.151106
0.147104
0.141457
0.1346
0.127693
0.121045
0.114472
0.107971
0.101625
0.0954461
0.0894535
0.0836524
0.0780447
0.0726317
0.067414
0.0623915
0.0575632
0.0529265
0.0484776
0.0442119
0.0401241
0.0362091
0.0324611
0.0288746
0.0254438
0.022163
0.0190264
0.0160284
0.0131638
0.0104271
0.00781326
0.00532338
0.00295341
0.000579227
0.000314081
0.000973912
0.00167266
0.00240371
0.00316937
0.00397142
0.00481142
0.00569096
0.00661165
0.0075752
0.00858341
0.00963823
0.0107418
0.0118963
0.013104
0.0143672
0.0156881
0.0170694
0.0185143
0.0200265
0.0216102
0.0232698
0.0250103
0.0268376
0.0287585
0.0307801
0.0329086
0.0351488
0.0375055
0.039984
0.0428128
0.0459359
0.0490732
0.0522317
0.0554198
0.0586442
0.0619088
0.0652121
0.0685485
0.0719173
0.0753313
0.0788058
0.0823485
0.0859642
0.0896595
0.0934481
0.0973488
0.101361
0.105459
0.109596
0.113711
0.117772
0.121778
0.125796
0.129835
0.133902
0.137957
0.141935
0.14582
0.149331
0.152573
0.154774
0.156227
0.15658
0.156309
0.155358
0.151985
0.148006
0.142501
0.135782
0.128989
0.122465
0.115969
0.109526
0.103208
0.0970357
0.0910281
0.0851947
0.0795417
0.0740734
0.068793
0.0637017
0.0587993
0.0540837
0.0495521
0.0452009
0.0410259
0.0370229
0.0331874
0.0295144
0.0259991
0.0226362
0.0194208
0.0163476
0.0134115
0.0106074
0.00792995
0.00538036
0.00295459
0.000523229
0.000325899
0.00101054
0.00173556
0.00249412
0.00328863
0.00412093
0.00499268
0.00590552
0.00686118
0.00786144
0.00890819
0.0100035
0.0111495
0.0123486
0.013603
0.014915
0.0162869
0.0177213
0.0192216
0.0207916
0.0224356
0.0241584
0.0259653
0.0278628
0.0298583
0.0319596
0.034173
0.0365037
0.0389567
0.0415376
0.0444845
0.0477404
0.0510145
0.0543135
0.0576454
0.0610165
0.0644315
0.0678898
0.0713846
0.0749138
0.0784874
0.0821191
0.0858174
0.0895877
0.0934326
0.0973604
0.101383
0.105493
0.109668
0.113856
0.118003
0.122083
0.12609
0.13009
0.134081
0.138047
0.141947
0.14571
0.149307
0.15249
0.155312
0.157144
0.158201
0.158273
0.157743
0.156533
0.153438
0.1494
0.143956
0.137307
0.130571
0.124122
0.117666
0.11125
0.104934
0.0987449
0.0927037
0.0868232
0.0811129
0.0755798
0.0702283
0.0650606
0.0600769
0.0552761
0.050656
0.0462142
0.0419476
0.0378528
0.0339262
0.0301638
0.0265612
0.0231142
0.019818
0.0166679
0.013659
0.0107861
0.0080436
0.00543284
0.00294968
0.000460195
0.000337484
0.00104642
0.00179719
0.00258274
0.00340557
0.00426761
0.00517058
0.00611625
0.00710641
0.00814292
0.00922777
0.0103631
0.0115512
0.0127943
0.0140949
0.0154551
0.0168772
0.0183641
0.0199189
0.0215457
0.0232489
0.0250337
0.0269056
0.0288718
0.0309406
0.0331199
0.0354167
0.0378363
0.0403841
0.0430657
0.0461285
0.0495145
0.0529223
0.0563589
0.0598318
0.063347
0.0669095
0.0705194
0.0741696
0.0778564
0.081587
0.0853722
0.0892216
0.0931406
0.0971293
0.101192
0.105334
0.109542
0.113794
0.118036
0.122219
0.126316
0.130332
0.134319
0.138266
0.142147
0.145916
0.149496
0.152847
0.155754
0.15823
0.159763
0.160517
0.160369
0.15963
0.158234
0.15526
0.151208
0.145791
0.139167
0.132446
0.12603
0.119583
0.113163
0.106824
0.100596
0.0945034
0.0885607
0.0827805
0.0771711
0.071738
0.0664839
0.0614099
0.0565156
0.0517999
0.0472613
0.0428976
0.0387064
0.0346847
0.0308294
0.0271368
0.0236031
0.020224
0.016995
0.0139113
0.0109673
0.00815751
0.00548302
0.00293972
0.000389969
0.000348781
0.00108146
0.0018574
0.00266935
0.00351991
0.0044111
0.00534475
0.0063227
0.00734682
0.00841907
0.0095415
0.0107163
0.0119459
0.0132326
0.0145787
0.0159864
0.0174581
0.0189965
0.0206048
0.0222874
0.0240487
0.0258941
0.0278296
0.0298631
0.0320034
0.0342592
0.0366376
0.0391444
0.041785
0.0445653
0.0477419
0.0512555
0.0547941
0.0583653
0.0619763
0.0656327
0.0693399
0.0730981
0.0769006
0.0807429
0.0846284
0.0885653
0.092563
0.0966267
0.100755
0.104951
0.10921
0.113518
0.11785
0.12215
0.126374
0.130496
0.134529
0.138508
0.142421
0.146232
0.149891
0.153319
0.156467
0.159145
0.16134
0.162636
0.163156
0.162835
0.161926
0.160379
0.157452
0.153393
0.147983
0.141354
0.134617
0.128199
0.121733
0.115282
0.108898
0.102611
0.0964492
0.0904291
0.0845649
0.0788659
0.0733385
0.0679864
0.0628113
0.057814
0.0529943
0.0483516
0.0438844
0.0395913
0.0354699
0.0315179
0.0277321
0.024109
0.0206445
0.017334
0.0141725
0.0111544
0.00827404
0.00553224
0.00292507
0.000312014
0.000359791
0.00111564
0.00191616
0.0027539
0.00363157
0.0045513
0.005515
0.00652459
0.00758205
0.0086894
0.00984881
0.0110625
0.012333
0.0136625
0.0150534
0.0165079
0.0180283
0.0196172
0.0212782
0.0230154
0.0248337
0.0267383
0.0287359
0.030835
0.0330451
0.0353755
0.0378336
0.0404255
0.0431569
0.0460337
0.0493216
0.0529602
0.0566271
0.06033
0.0640764
0.0678717
0.0717208
0.0756243
0.0795761
0.0835715
0.0876107
0.0916984
0.0958435
0.10005
0.104316
0.108643
0.11302
0.11743
0.121845
0.126211
0.130484
0.134642
0.138699
0.142678
0.146567
0.150326
0.153898
0.157204
0.160188
0.162683
0.164654
0.165764
0.166104
0.165646
0.164593
0.162917
0.160004
0.155937
0.150516
0.143864
0.137087
0.13064
0.124129
0.117624
0.111173
0.104809
0.0985612
0.0924479
0.0864843
0.080681
0.0750454
0.0695822
0.0642942
0.0591832
0.05425
0.0494946
0.0449168
0.0405155
0.0362895
0.0322364