/*--------------------------------*- C++ -*----------------------------------*\
  =========                 |
  \\      /  F ield         | OpenFOAM: The Open Source CFD Toolbox
   \\    /   O peration     | Website:  https://openfoam.org
    \\  /    A nd           | Version:  9
     \\/     M anipulation  |
\*---------------------------------------------------------------------------*/
FoamFile
{
    format      ascii;
    class       surfaceScalarField;
    location    "0.11";
    object      phi;
}
// * * * * * * * * * * * * * * * * * * * * * * * * * * * * * * * * * * * * * //

dimensions      [0 3 -1 0 0 0 0];

internalField   nonuniform List<scalar> 
39700
(
-5.48891e-07
2.42821e-06
-5.48901e-07
2.55151e-06
-5.48896e-07
2.68106e-06
-5.48891e-07
2.81697e-06
-5.48888e-07
2.95947e-06
-5.48888e-07
3.10881e-06
-5.48893e-07
3.26523e-06
-5.48901e-07
3.42895e-06
-5.48913e-07
3.60023e-06
-5.48929e-07
3.77931e-06
-5.48947e-07
3.96644e-06
-5.48967e-07
4.16186e-06
-5.48988e-07
4.36581e-06
-5.49007e-07
4.57848e-06
-5.49024e-07
4.79999e-06
-5.49035e-07
5.03043e-06
-5.49039e-07
5.26977e-06
-5.49031e-07
5.51797e-06
-5.4901e-07
5.77502e-06
-5.48979e-07
6.04117e-06
-5.48944e-07
6.31728e-06
-5.48918e-07
6.60524e-06
-5.48911e-07
6.90813e-06
-5.48921e-07
7.22962e-06
-5.48937e-07
7.57259e-06
-5.4894e-07
7.93748e-06
-5.48919e-07
8.32159e-06
-5.48874e-07
8.72004e-06
-5.48805e-07
9.12784e-06
-5.48725e-07
9.54215e-06
-5.48658e-07
1.16206e-05
-5.48645e-07
1.15562e-05
-5.4868e-07
1.15021e-05
-5.48709e-07
1.14636e-05
-5.48688e-07
1.14357e-05
-5.48607e-07
1.14083e-05
-5.48482e-07
1.1373e-05
-5.48334e-07
1.13266e-05
-5.4818e-07
1.12696e-05
-5.48033e-07
1.12049e-05
-5.47905e-07
1.11355e-05
-5.47809e-07
1.10648e-05
-5.4775e-07
1.09964e-05
-5.47716e-07
1.09341e-05
-5.4764e-07
1.08815e-05
-5.47347e-07
1.08407e-05
-5.46418e-07
1.08093e-05
-5.4378e-07
1.07743e-05
-5.36469e-07
1.06959e-05
-5.16939e-07
1.04596e-05
-4.75119e-07
9.77734e-06
-4.56146e-07
8.26269e-06
-5.77483e-07
6.62765e-06
-6.42013e-07
7.14035e-06
-6.02525e-07
8.83845e-06
-5.72413e-07
9.86327e-06
-5.60074e-07
1.02829e-05
-5.55887e-07
1.04868e-05
-5.54424e-07
1.06678e-05
-5.52783e-07
1.09107e-05
-5.4803e-07
1.12818e-05
-5.36852e-07
1.1869e-05
-5.11503e-07
1.28003e-05
-4.47162e-07
1.38879e-05
-1.94966e-07
1.18297e-05
-6.58104e-07
2.2274e-07
-7.09857e-07
7.68346e-06
-5.98767e-07
1.37565e-05
-5.68361e-07
1.3274e-05
-5.5534e-07
1.23469e-05
-5.50534e-07
9.65924e-06
-5.48893e-07
8.99756e-06
-5.48543e-07
8.46992e-06
-5.48617e-07
8.02727e-06
-5.48796e-07
7.63958e-06
-5.48947e-07
7.28855e-06
-5.49047e-07
6.96356e-06
-5.49099e-07
6.65835e-06
-5.49115e-07
6.36916e-06
-5.49104e-07
6.09353e-06
-5.49076e-07
5.8298e-06
-5.49038e-07
5.57682e-06
-5.48996e-07
5.33379e-06
-5.48953e-07
5.10012e-06
-5.48913e-07
4.87543e-06
-5.48876e-07
4.6594e-06
-5.48844e-07
4.4518e-06
-5.48816e-07
4.2524e-06
-5.48793e-07
4.06101e-06
-5.48773e-07
3.87743e-06
-5.48757e-07
3.70146e-06
-5.48744e-07
3.5329e-06
-5.48733e-07
3.37152e-06
-5.48725e-07
3.2171e-06
-5.48718e-07
3.06942e-06
-5.48713e-07
2.92823e-06
-5.48709e-07
2.7933e-06
-5.48706e-07
2.66439e-06
-5.48702e-07
2.54125e-06
2.42372e-06
-5.49019e-07
2.42831e-06
-5.49041e-07
2.55153e-06
-5.49039e-07
2.68106e-06
-5.49033e-07
2.81696e-06
-5.4903e-07
2.95947e-06
-5.49032e-07
3.10882e-06
-5.4904e-07
3.26524e-06
-5.49057e-07
3.42897e-06
-5.49082e-07
3.60026e-06
-5.49115e-07
3.77934e-06
-5.49154e-07
3.96648e-06
-5.49197e-07
4.16191e-06
-5.49241e-07
4.36586e-06
-5.49283e-07
4.57852e-06
-5.49316e-07
4.80003e-06
-5.49336e-07
5.03045e-06
-5.49337e-07
5.26977e-06
-5.49313e-07
5.51795e-06
-5.49262e-07
5.77497e-06
-5.49191e-07
6.0411e-06
-5.49117e-07
6.3172e-06
-5.49065e-07
6.60519e-06
-5.49054e-07
6.90812e-06
-5.49079e-07
7.22964e-06
-5.49106e-07
7.57261e-06
-5.49098e-07
7.93747e-06
-5.4903e-07
8.32152e-06
-5.48899e-07
8.71991e-06
-5.48718e-07
9.12766e-06
-5.48522e-07
9.54195e-06
-5.48353e-07
1.16204e-05
-5.48307e-07
1.15561e-05
-5.48353e-07
1.15022e-05
-5.48377e-07
1.14637e-05
-5.48283e-07
1.14356e-05
-5.48047e-07
1.1408e-05
-5.47702e-07
1.13727e-05
-5.47293e-07
1.13262e-05
-5.46857e-07
1.12692e-05
-5.46424e-07
1.12044e-05
-5.46013e-07
1.11351e-05
-5.45636e-07
1.10644e-05
-5.45268e-07
1.0996e-05
-5.44806e-07
1.09336e-05
-5.43973e-07
1.08807e-05
-5.42144e-07
1.08389e-05
-5.37969e-07
1.08052e-05
-5.28469e-07
1.07648e-05
-5.07049e-07
1.06745e-05
-4.62318e-07
1.04148e-05
-3.95335e-07
9.71035e-06
-3.96494e-07
8.26385e-06
-5.91927e-07
6.82308e-06
-7.14163e-07
7.26259e-06
-6.73752e-07
8.79804e-06
-6.18204e-07
9.80772e-06
-5.87223e-07
1.02519e-05
-5.73192e-07
1.04728e-05
-5.66035e-07
1.06606e-05
-5.5831e-07
1.0903e-05
-5.4289e-07
1.12663e-05
-5.13148e-07
1.18393e-05
-4.46739e-07
1.27339e-05
-3.09157e-07
1.37503e-05
5.26621e-08
1.14679e-05
-9.28344e-07
1.20375e-06
-9.12862e-07
7.66798e-06
-6.97874e-07
1.35415e-05
-6.08783e-07
1.31849e-05
-5.72535e-07
1.23106e-05
-5.57586e-07
9.64429e-06
-5.51086e-07
8.99106e-06
-5.48751e-07
8.46758e-06
-5.48105e-07
8.02663e-06
-5.48062e-07
7.63954e-06
-5.48205e-07
7.2887e-06
-5.48355e-07
6.96371e-06
-5.48458e-07
6.65846e-06
-5.48503e-07
6.36921e-06
-5.48499e-07
6.09353e-06
-5.48456e-07
5.82976e-06
-5.48388e-07
5.57676e-06
-5.48306e-07
5.3337e-06
-5.4822e-07
5.10004e-06
-5.48136e-07
4.87535e-06
-5.48058e-07
4.65933e-06
-5.47988e-07
4.45173e-06
-5.47927e-07
4.25234e-06
-5.47873e-07
4.06096e-06
-5.47828e-07
3.87739e-06
-5.4779e-07
3.70142e-06
-5.47759e-07
3.53287e-06
-5.47733e-07
3.37149e-06
-5.47713e-07
3.21708e-06
-5.47697e-07
3.0694e-06
-5.47684e-07
2.92822e-06
-5.47673e-07
2.79329e-06
-5.47664e-07
2.66438e-06
-5.47651e-07
2.54124e-06
2.42371e-06
-5.49304e-07
2.42836e-06
-5.49324e-07
2.55155e-06
-5.49322e-07
2.68105e-06
-5.49315e-07
2.81695e-06
-5.4931e-07
2.95946e-06
-5.49312e-07
3.10882e-06
-5.49324e-07
3.26525e-06
-5.49347e-07
3.42899e-06
-5.4938e-07
3.60029e-06
-5.49424e-07
3.77939e-06
-5.49476e-07
3.96653e-06
-5.49533e-07
4.16196e-06
-5.49591e-07
4.36592e-06
-5.49644e-07
4.57857e-06
-5.49687e-07
4.80007e-06
-5.49711e-07
5.03047e-06
-5.49709e-07
5.26977e-06
-5.49675e-07
5.51791e-06
-5.49606e-07
5.7749e-06
-5.49514e-07
6.041e-06
-5.4942e-07
6.31711e-06
-5.49355e-07
6.60513e-06
-5.49339e-07
6.9081e-06
-5.49362e-07
7.22966e-06
-5.49383e-07
7.57263e-06
-5.4935e-07
7.93744e-06
-5.49233e-07
8.3214e-06
-5.49032e-07
8.71971e-06
-5.48766e-07
9.1274e-06
-5.48484e-07
9.54167e-06
-5.48232e-07
1.16201e-05
-5.48141e-07
1.1556e-05
-5.4816e-07
1.15022e-05
-5.48139e-07
1.14636e-05
-5.4795e-07
1.14354e-05
-5.47563e-07
1.14077e-05
-5.47018e-07
1.13721e-05
-5.46372e-07
1.13255e-05
-5.45673e-07
1.12685e-05
-5.44953e-07
1.12037e-05
-5.44229e-07
1.11343e-05
-5.43488e-07
1.10637e-05
-5.42653e-07
1.09952e-05
-5.41501e-07
1.09325e-05
-5.3953e-07
1.08787e-05
-5.35703e-07
1.08351e-05
-5.28001e-07
1.07975e-05
-5.12523e-07
1.07494e-05
-4.82043e-07
1.0644e-05
-4.27136e-07
1.03599e-05
-3.58713e-07
9.64193e-06
-3.80068e-07
8.28521e-06
-5.94875e-07
7.03789e-06
-7.39592e-07
7.4073e-06
-7.11798e-07
8.77025e-06
-6.51813e-07
9.74773e-06
-6.12203e-07
1.02123e-05
-5.90785e-07
1.04514e-05
-5.77661e-07
1.06475e-05
-5.63621e-07
1.08889e-05
-5.38509e-07
1.12412e-05
-4.95913e-07
1.17967e-05
-4.12163e-07
1.26502e-05
-2.13943e-07
1.35521e-05
1.21126e-07
1.11328e-05
-9.73563e-07
2.29843e-06
-1.01846e-06
7.71288e-06
-7.47493e-07
1.32705e-05
-6.40134e-07
1.30776e-05
-5.88367e-07
1.22589e-05
-5.65026e-07
9.62095e-06
-5.53936e-07
8.97997e-06
-5.4927e-07
8.46291e-06
-5.47513e-07
8.02487e-06
-5.46965e-07
7.63899e-06
-5.469e-07
7.28863e-06
-5.4698e-07
6.96379e-06
-5.47069e-07
6.65855e-06
-5.47119e-07
6.36926e-06
-5.47119e-07
6.09353e-06
-5.47075e-07
5.82972e-06
-5.46999e-07
5.57668e-06
-5.46905e-07
5.33361e-06
-5.46803e-07
5.09994e-06
-5.46701e-07
4.87525e-06
-5.46604e-07
4.65923e-06
-5.46515e-07
4.45164e-06
-5.46436e-07
4.25226e-06
-5.46367e-07
4.06089e-06
-5.46309e-07
3.87733e-06
-5.46259e-07
3.70138e-06
-5.46219e-07
3.53283e-06
-5.46186e-07
3.37146e-06
-5.46159e-07
3.21706e-06
-5.46138e-07
3.06938e-06
-5.4612e-07
2.9282e-06
-5.46105e-07
2.79328e-06
-5.4609e-07
2.66436e-06
-5.46072e-07
2.54122e-06
2.42369e-06
-5.49689e-07
2.4284e-06
-5.49716e-07
2.55158e-06
-5.49726e-07
2.68106e-06
-5.49726e-07
2.81695e-06
-5.49725e-07
2.95946e-06
-5.49731e-07
3.10882e-06
-5.49747e-07
3.26527e-06
-5.49776e-07
3.42902e-06
-5.49816e-07
3.60033e-06
-5.49868e-07
3.77944e-06
-5.4993e-07
3.96659e-06
-5.49996e-07
4.16203e-06
-5.50063e-07
4.36598e-06
-5.50125e-07
4.57863e-06
-5.50173e-07
4.80012e-06
-5.502e-07
5.0305e-06
-5.50196e-07
5.26977e-06
-5.50153e-07
5.51787e-06
-5.50072e-07
5.77482e-06
-5.49962e-07
6.04089e-06
-5.49849e-07
6.317e-06
-5.49767e-07
6.60505e-06
-5.49738e-07
6.90808e-06
-5.49751e-07
7.22968e-06
-5.49758e-07
7.57264e-06
-5.49702e-07
7.93738e-06
-5.49547e-07
8.32125e-06
-5.4929e-07
8.71945e-06
-5.48955e-07
9.12706e-06
-5.48599e-07
9.54131e-06
-5.48268e-07
1.16198e-05
-5.4812e-07
1.15559e-05
-5.48092e-07
1.15022e-05
-5.48007e-07
1.14636e-05
-5.47718e-07
1.14351e-05
-5.47186e-07
1.14071e-05
-5.46454e-07
1.13714e-05
-5.45584e-07
1.13246e-05
-5.44628e-07
1.12675e-05
-5.43618e-07
1.12027e-05
-5.42558e-07
1.11333e-05
-5.41407e-07
1.10625e-05
-5.40029e-07
1.09938e-05
-5.381e-07
1.09305e-05
-5.34941e-07
1.08755e-05
-5.29263e-07
1.08294e-05
-5.18737e-07
1.07869e-05
-4.99262e-07
1.07299e-05
-4.63965e-07
1.06087e-05
-4.05802e-07
1.03017e-05
-3.43272e-07
9.5794e-06
-3.808e-07
8.32273e-06
-5.93539e-07
7.25063e-06
-7.45498e-07
7.55926e-06
-7.32483e-07
8.75723e-06
-6.75078e-07
9.69033e-06
-6.32334e-07
1.01696e-05
-6.06609e-07
1.04256e-05
-5.89178e-07
1.06301e-05
-5.70752e-07
1.08705e-05
-5.40045e-07
1.12105e-05
-4.91279e-07
1.17479e-05
-4.04872e-07
1.25638e-05
-1.84918e-07
1.33321e-05
9.60462e-08
1.08518e-05
-9.2033e-07
3.31481e-06
-1.02881e-06
7.82135e-06
-7.63131e-07
1.30048e-05
-6.53397e-07
1.29678e-05
-5.96497e-07
1.2202e-05
-5.69121e-07
9.59357e-06
-5.55351e-07
8.9662e-06
-5.49061e-07
8.45662e-06
-5.46358e-07
8.02217e-06
-5.45336e-07
7.63797e-06
-5.45034e-07
7.28833e-06
-5.45009e-07
6.96376e-06
-5.45061e-07
6.6586e-06
-5.45104e-07
6.3693e-06
-5.45109e-07
6.09353e-06
-5.45071e-07
5.82968e-06
-5.45e-07
5.57661e-06
-5.44907e-07
5.33352e-06
-5.44804e-07
5.09983e-06
-5.44698e-07
4.87514e-06
-5.44596e-07
4.65913e-06
-5.44501e-07
4.45155e-06
-5.44416e-07
4.25218e-06
-5.44342e-07
4.06082e-06
-5.44279e-07
3.87727e-06
-5.44225e-07
3.70132e-06
-5.4418e-07
3.53278e-06
-5.44144e-07
3.37142e-06
-5.44114e-07
3.21703e-06
-5.4409e-07
3.06936e-06
-5.4407e-07
2.92818e-06
-5.44052e-07
2.79326e-06
-5.44035e-07
2.66435e-06
-5.44018e-07
2.5412e-06
2.42368e-06
-5.5022e-07
2.42842e-06
-5.50251e-07
2.55161e-06
-5.50272e-07
2.68109e-06
-5.50281e-07
2.81696e-06
-5.50287e-07
2.95947e-06
-5.50299e-07
3.10884e-06
-5.50321e-07
3.26529e-06
-5.50355e-07
3.42906e-06
-5.50401e-07
3.60038e-06
-5.50459e-07
3.7795e-06
-5.50526e-07
3.96666e-06
-5.50599e-07
4.1621e-06
-5.50673e-07
4.36606e-06
-5.50739e-07
4.5787e-06
-5.50791e-07
4.80017e-06
-5.50818e-07
5.03053e-06
-5.5081e-07
5.26976e-06
-5.50761e-07
5.51782e-06
-5.50667e-07
5.77473e-06
-5.50542e-07
6.04077e-06
-5.50411e-07
6.31687e-06
-5.50311e-07
6.60495e-06
-5.50264e-07
6.90803e-06
-5.50261e-07
7.22967e-06
-5.50251e-07
7.57263e-06
-5.50173e-07
7.9373e-06
-5.49987e-07
8.32106e-06
-5.49685e-07
8.71915e-06
-5.49294e-07
9.12667e-06
-5.48874e-07
9.54089e-06
-5.48469e-07
1.16194e-05
-5.48255e-07
1.15557e-05
-5.48162e-07
1.15021e-05
-5.48002e-07
1.14634e-05
-5.47611e-07
1.14347e-05
-5.4694e-07
1.14065e-05
-5.46032e-07
1.13705e-05
-5.4495e-07
1.13236e-05
-5.43746e-07
1.12663e-05
-5.42448e-07
1.12014e-05
-5.41045e-07
1.11319e-05
-5.39469e-07
1.10609e-05
-5.37535e-07
1.09919e-05
-5.34839e-07
1.09278e-05
-5.30594e-07
1.08713e-05
-5.23384e-07
1.08222e-05
-5.10786e-07
1.07743e-05
-4.88764e-07
1.07079e-05
-4.51162e-07
1.05711e-05
-3.94006e-07
1.02446e-05
-3.42283e-07
9.52768e-06
-3.92139e-07
8.37259e-06
-5.90563e-07
7.44905e-06
-7.39517e-07
7.70822e-06
-7.4172e-07
8.75943e-06
-6.91511e-07
9.64012e-06
-6.48945e-07
1.0127e-05
-6.21138e-07
1.03978e-05
-6.01161e-07
1.06101e-05
-5.8057e-07
1.08499e-05
-5.49472e-07
1.11794e-05
-4.98609e-07
1.1697e-05
-4.15475e-07
1.24806e-05
-2.01384e-07
1.3118e-05
2.17253e-08
1.06287e-05
-8.48357e-07
4.18489e-06
-9.95499e-07
7.96849e-06
-7.60275e-07
1.27696e-05
-6.52465e-07
1.286e-05
-5.96203e-07
1.21457e-05
-5.68474e-07
9.56585e-06
-5.54074e-07
8.9518e-06
-5.47136e-07
8.44969e-06
-5.43993e-07
8.01902e-06
-5.42715e-07
7.63669e-06
-5.42289e-07
7.2879e-06
-5.42221e-07
6.9637e-06
-5.42272e-07
6.65865e-06
-5.42334e-07
6.36936e-06
-5.42366e-07
6.09356e-06
-5.42356e-07
5.82967e-06
-5.4231e-07
5.57656e-06
-5.42239e-07
5.33345e-06
-5.42152e-07
5.09975e-06
-5.42058e-07
4.87505e-06
-5.41966e-07
4.65904e-06
-5.41878e-07
4.45146e-06
-5.41799e-07
4.2521e-06
-5.41728e-07
4.06075e-06
-5.41667e-07
3.8772e-06
-5.41615e-07
3.70127e-06
-5.41572e-07
3.53274e-06
-5.41536e-07
3.37139e-06
-5.41506e-07
3.217e-06
-5.41482e-07
3.06934e-06
-5.41461e-07
2.92816e-06
-5.41443e-07
2.79324e-06
-5.41425e-07
2.66433e-06
-5.41409e-07
2.54119e-06
2.42367e-06
-5.50927e-07
2.42844e-06
-5.50955e-07
2.55164e-06
-5.50977e-07
2.68111e-06
-5.50991e-07
2.81698e-06
-5.51002e-07
2.95948e-06
-5.51018e-07
3.10885e-06
-5.51044e-07
3.26531e-06
-5.51081e-07
3.42909e-06
-5.51132e-07
3.60043e-06
-5.51193e-07
3.77956e-06
-5.51265e-07
3.96673e-06
-5.51341e-07
4.16218e-06
-5.51417e-07
4.36613e-06
-5.51486e-07
4.57877e-06
-5.51538e-07
4.80022e-06
-5.51564e-07
5.03055e-06
-5.51553e-07
5.26975e-06
-5.51496e-07
5.51777e-06
-5.51394e-07
5.77463e-06
-5.51257e-07
6.04063e-06
-5.51112e-07
6.31672e-06
-5.50997e-07
6.60483e-06
-5.50933e-07
6.90797e-06
-5.50911e-07
7.22965e-06
-5.50881e-07
7.5726e-06
-5.5078e-07
7.9372e-06
-5.50563e-07
8.32085e-06
-5.50222e-07
8.71881e-06
-5.49784e-07
9.12623e-06
-5.4931e-07
9.54042e-06
-5.48838e-07
1.16189e-05
-5.48556e-07
1.15554e-05
-5.4839e-07
1.15019e-05
-5.48144e-07
1.14631e-05
-5.47648e-07
1.14343e-05
-5.46844e-07
1.14057e-05
-5.45771e-07
1.13694e-05
-5.4449e-07
1.13223e-05
-5.43053e-07
1.12649e-05
-5.41479e-07
1.11998e-05
-5.39744e-07
1.11301e-05
-5.37757e-07
1.1059e-05
-5.35294e-07
1.09894e-05
-5.31897e-07
1.09244e-05
-5.26721e-07
1.08661e-05
-5.18308e-07
1.08138e-05
-5.04266e-07
1.07603e-05
-4.8082e-07
1.06844e-05
-4.42899e-07
1.05332e-05
-3.89812e-07
1.01915e-05
-3.50362e-07
9.48823e-06
-4.07805e-07
8.43003e-06
-5.87938e-07
7.62919e-06
-7.28583e-07
7.84886e-06
-7.43254e-07
8.77411e-06
-7.02577e-07
9.59944e-06
-6.62814e-07
1.00872e-05
-6.34825e-07
1.03698e-05
-6.13864e-07
1.05891e-05
-5.92506e-07
1.08286e-05
-5.61957e-07
1.11489e-05
-5.13714e-07
1.16488e-05
-4.34795e-07
1.24017e-05
-2.36102e-07
1.29194e-05
-5.99756e-08
1.04526e-05
-7.90106e-07
4.91502e-06
-9.52427e-07
8.13081e-06
-7.47428e-07
1.25646e-05
-6.42869e-07
1.27555e-05
-5.89649e-07
1.20925e-05
-5.63542e-07
9.53974e-06
-5.49881e-07
8.93814e-06
-5.43103e-07
8.44291e-06
-5.40019e-07
8.01594e-06
-5.38789e-07
7.63546e-06
-5.38421e-07
7.28754e-06
-5.38422e-07
6.9637e-06
-5.38549e-07
6.65878e-06
-5.38686e-07
6.3695e-06
-5.38787e-07
6.09367e-06
-5.3884e-07
5.82972e-06
-5.38849e-07
5.57657e-06
-5.38824e-07
5.33342e-06
-5.38775e-07
5.0997e-06
-5.38714e-07
4.87499e-06
-5.38647e-07
4.65897e-06
-5.3858e-07
4.45139e-06
-5.38518e-07
4.25203e-06
-5.38461e-07
4.06069e-06
-5.3841e-07
3.87715e-06
-5.38367e-07
3.70123e-06
-5.3833e-07
3.5327e-06
-5.383e-07
3.37136e-06
-5.38274e-07
3.21697e-06
-5.38253e-07
3.06931e-06
-5.38234e-07
2.92814e-06
-5.38216e-07
2.79322e-06
-5.38199e-07
2.66431e-06
-5.38185e-07
2.54117e-06
2.42366e-06
-5.51799e-07
2.42846e-06
-5.5182e-07
2.55166e-06
-5.51838e-07
2.68113e-06
-5.51852e-07
2.81699e-06
-5.51865e-07
2.95949e-06
-5.51882e-07
3.10887e-06
-5.5191e-07
3.26534e-06
-5.51949e-07
3.42913e-06
-5.52001e-07
3.60048e-06
-5.52065e-07
3.77962e-06
-5.52138e-07
3.9668e-06
-5.52217e-07
4.16226e-06
-5.52294e-07
4.36621e-06
-5.52364e-07
4.57884e-06
-5.52416e-07
4.80027e-06
-5.52439e-07
5.03057e-06
-5.52425e-07
5.26973e-06
-5.52363e-07
5.5177e-06
-5.52254e-07
5.77452e-06
-5.52108e-07
6.04049e-06
-5.51955e-07
6.31657e-06
-5.51827e-07
6.6047e-06
-5.51748e-07
6.90789e-06
-5.51707e-07
7.22961e-06
-5.51655e-07
7.57255e-06
-5.51527e-07
7.93707e-06
-5.51281e-07
8.3206e-06
-5.50905e-07
8.71843e-06
-5.50426e-07
9.12575e-06
-5.49907e-07
9.5399e-06
-5.49375e-07
1.16184e-05
-5.49026e-07
1.1555e-05
-5.48783e-07
1.15017e-05
-5.48448e-07
1.14628e-05
-5.47845e-07
1.14336e-05
-5.46915e-07
1.14047e-05
-5.45688e-07
1.13682e-05
-5.44225e-07
1.13208e-05
-5.42573e-07
1.12632e-05
-5.40743e-07
1.1198e-05
-5.38703e-07
1.11281e-05
-5.36339e-07
1.10566e-05
-5.33403e-07
1.09865e-05
-5.29408e-07
1.09205e-05
-5.2349e-07
1.08602e-05
-5.1421e-07
1.08045e-05
-4.99306e-07
1.07454e-05
-4.75413e-07
1.06605e-05
-4.38666e-07
1.04965e-05
-3.91141e-07
1.0144e-05
-3.62913e-07
9.46e-06
-4.24068e-07
8.49119e-06
-5.86392e-07
7.79151e-06
-7.17077e-07
7.97955e-06
-7.40742e-07
8.79777e-06
-7.09714e-07
9.56842e-06
-6.74343e-07
1.00519e-05
-6.4771e-07
1.03432e-05
-6.27086e-07
1.05685e-05
-6.06151e-07
1.08076e-05
-5.77107e-07
1.11198e-05
-5.33148e-07
1.16048e-05
-4.59312e-07
1.23279e-05
-2.75092e-07
1.27351e-05
-1.33847e-07
1.03113e-05
-7.47064e-07
5.52824e-06
-9.09083e-07
8.29283e-06
-7.26568e-07
1.23821e-05
-6.2708e-07
1.2656e-05
-5.78366e-07
1.20438e-05
-5.55144e-07
9.51652e-06
-5.42982e-07
8.92598e-06
-5.36976e-07
8.4369e-06
-5.34376e-07
8.01334e-06
-5.33473e-07
7.63456e-06
-5.33351e-07
7.28741e-06
-5.33552e-07
6.9639e-06
-5.33846e-07
6.65907e-06
-5.34126e-07
6.36978e-06
-5.34348e-07
6.09389e-06
-5.34504e-07
5.82988e-06
-5.346e-07
5.57667e-06
-5.34648e-07
5.33347e-06
-5.34661e-07
5.09971e-06
-5.3465e-07
4.87498e-06
-5.34626e-07
4.65895e-06
-5.34594e-07
4.45136e-06
-5.3456e-07
4.252e-06
-5.34527e-07
4.06066e-06
-5.34496e-07
3.87712e-06
-5.34469e-07
3.7012e-06
-5.34445e-07
3.53268e-06
-5.34424e-07
3.37134e-06
-5.34407e-07
3.21696e-06
-5.34391e-07
3.0693e-06
-5.34376e-07
2.92813e-06
-5.34362e-07
2.79321e-06
-5.34347e-07
2.6643e-06
-5.34336e-07
2.54116e-06
2.42366e-06
-5.52815e-07
2.42847e-06
-5.5283e-07
2.55167e-06
-5.52844e-07
2.68114e-06
-5.52856e-07
2.817e-06
-5.52869e-07
2.95951e-06
-5.52887e-07
3.10889e-06
-5.52915e-07
3.26537e-06
-5.52955e-07
3.42917e-06
-5.53008e-07
3.60053e-06
-5.53073e-07
3.77969e-06
-5.53147e-07
3.96688e-06
-5.53226e-07
4.16234e-06
-5.53304e-07
4.36629e-06
-5.53374e-07
4.57891e-06
-5.53425e-07
4.80032e-06
-5.53447e-07
5.0306e-06
-5.53429e-07
5.26972e-06
-5.53364e-07
5.51764e-06
-5.5325e-07
5.7744e-06
-5.53099e-07
6.04034e-06
-5.52938e-07
6.31641e-06
-5.52801e-07
6.60457e-06
-5.52708e-07
6.90779e-06
-5.52648e-07
7.22955e-06
-5.52573e-07
7.57247e-06
-5.5242e-07
7.93692e-06
-5.52144e-07
8.32033e-06
-5.51736e-07
8.71803e-06
-5.51222e-07
9.12524e-06
-5.50664e-07
9.53934e-06
-5.50078e-07
1.16178e-05
-5.49666e-07
1.15546e-05
-5.49347e-07
1.15014e-05
-5.48922e-07
1.14624e-05
-5.48218e-07
1.14329e-05
-5.47168e-07
1.14037e-05
-5.45801e-07
1.13668e-05
-5.44173e-07
1.13192e-05
-5.42327e-07
1.12614e-05
-5.4027e-07
1.11959e-05
-5.37958e-07
1.11258e-05
-5.35267e-07
1.10539e-05
-5.31935e-07
1.09831e-05
-5.27468e-07
1.0916e-05
-5.21013e-07
1.08537e-05
-5.11202e-07
1.07947e-05
-4.95959e-07
1.07301e-05
-4.72377e-07
1.06369e-05
-4.37702e-07
1.04618e-05
-3.96085e-07
1.01024e-05
-3.77295e-07
9.44121e-06
-4.39674e-07
8.55357e-06
-5.85966e-07
7.9378e-06
-7.06734e-07
8.10032e-06
-7.36676e-07
8.82771e-06
-7.14409e-07
9.54615e-06
-6.84077e-07
1.00215e-05
-6.59841e-07
1.0319e-05
-6.40636e-07
1.05493e-05
-6.21346e-07
1.07883e-05
-5.95697e-07
1.10942e-05
-5.54658e-07
1.15638e-05
-4.87317e-07
1.22605e-05
-3.13375e-07
1.25612e-05
-1.98191e-07
1.01962e-05
-7.14822e-07
6.04487e-06
-8.66594e-07
8.44461e-06
-6.99547e-07
1.22151e-05
-6.06338e-07
1.25628e-05
-5.6304e-07
1.20005e-05
-5.4392e-07
9.4974e-06
-5.33678e-07
8.91573e-06
-5.28911e-07
8.43213e-06
-5.27142e-07
8.01157e-06
-5.26809e-07
7.63422e-06
-5.27107e-07
7.28771e-06
-5.27632e-07
6.96442e-06
-5.28184e-07
6.65962e-06
-5.28674e-07
6.37027e-06
-5.2907e-07
6.09428e-06
-5.2937e-07
5.83018e-06
-5.29586e-07
5.57688e-06
-5.29733e-07
5.33362e-06
-5.29829e-07
5.09981e-06
-5.29888e-07
4.87503e-06
-5.29922e-07
4.65898e-06
-5.29938e-07
4.45138e-06
-5.29944e-07
4.25201e-06
-5.29943e-07
4.06065e-06
-5.2994e-07
3.87712e-06
-5.29934e-07
3.7012e-06
-5.29929e-07
3.53267e-06
-5.29923e-07
3.37133e-06
-5.29916e-07
3.21695e-06
-5.29909e-07
3.06929e-06
-5.29901e-07
2.92812e-06
-5.29891e-07
2.7932e-06
-5.2988e-07
2.66429e-06
-5.29871e-07
2.54115e-06
2.42365e-06
-5.53965e-07
2.42847e-06
-5.53977e-07
2.55168e-06
-5.53989e-07
2.68115e-06
-5.54001e-07
2.81701e-06
-5.54014e-07
2.95952e-06
-5.54032e-07
3.10891e-06
-5.5406e-07
3.2654e-06
-5.541e-07
3.42921e-06
-5.54154e-07
3.60059e-06
-5.54219e-07
3.77975e-06
-5.54294e-07
3.96695e-06
-5.54374e-07
4.16242e-06
-5.54452e-07
4.36637e-06
-5.54521e-07
4.57898e-06
-5.54572e-07
4.80037e-06
-5.54592e-07
5.03062e-06
-5.54572e-07
5.2697e-06
-5.54503e-07
5.51757e-06
-5.54385e-07
5.77428e-06
-5.54229e-07
6.04018e-06
-5.54062e-07
6.31624e-06
-5.53916e-07
6.60442e-06
-5.53811e-07
6.90769e-06
-5.53733e-07
7.22947e-06
-5.53637e-07
7.57238e-06
-5.53459e-07
7.93674e-06
-5.53158e-07
8.32002e-06
-5.52722e-07
8.71759e-06
-5.52176e-07
9.12469e-06
-5.51583e-07
9.53875e-06
-5.50949e-07
1.16172e-05
-5.50476e-07
1.15541e-05
-5.50085e-07
1.1501e-05
-5.49576e-07
1.14619e-05
-5.48775e-07
1.14321e-05
-5.47617e-07
1.14025e-05
-5.46124e-07
1.13653e-05
-5.44351e-07
1.13174e-05
-5.42336e-07
1.12594e-05
-5.40081e-07
1.11937e-05
-5.3754e-07
1.11232e-05
-5.34581e-07
1.10509e-05
-5.3094e-07
1.09795e-05
-5.26132e-07
1.09112e-05
-5.19342e-07
1.0847e-05
-5.09298e-07
1.07846e-05
-4.94129e-07
1.0715e-05
-4.71372e-07
1.06142e-05
-4.39238e-07
1.04297e-05
-4.03378e-07
1.00665e-05
-3.92352e-07
9.43018e-06
-4.54422e-07
8.61564e-06
-5.86549e-07
8.06993e-06
-6.97994e-07
8.21176e-06
-7.32291e-07
8.86201e-06
-7.17728e-07
9.53159e-06
-6.92587e-07
9.99639e-06
-6.71382e-07
1.02978e-05
-6.54388e-07
1.05323e-05
-6.37631e-07
1.07716e-05
-6.16558e-07
1.10731e-05
-5.84274e-07
1.15315e-05
-5.17334e-07
1.21936e-05
-3.49795e-07
1.23937e-05
-2.53751e-07
1.01001e-05
-6.90237e-07
6.48136e-06
-8.25515e-07
8.57988e-06
-6.69142e-07
1.20587e-05
-5.82276e-07
1.24759e-05
-5.43762e-07
1.1962e-05
-5.29587e-07
9.48322e-06
-5.22173e-07
8.90832e-06
-5.19116e-07
8.42908e-06
-5.18459e-07
8.01091e-06
-5.18897e-07
7.63466e-06
-5.19761e-07
7.28857e-06
-5.2072e-07
6.96538e-06
-5.21612e-07
6.66052e-06
-5.22374e-07
6.37103e-06
-5.22992e-07
6.0949e-06
-5.23473e-07
5.83066e-06
-5.23838e-07
5.57725e-06
-5.2411e-07
5.33389e-06
-5.24309e-07
5.1e-06
-5.24454e-07
4.87518e-06
-5.24558e-07
4.65908e-06
-5.24634e-07
4.45145e-06
-5.24689e-07
4.25206e-06
-5.2473e-07
4.06069e-06
-5.2476e-07
3.87715e-06
-5.24782e-07
3.70122e-06
-5.24798e-07
3.53269e-06
-5.2481e-07
3.37134e-06
-5.24818e-07
3.21696e-06
-5.24821e-07
3.06929e-06
-5.2482e-07
2.92812e-06
-5.24816e-07
2.79319e-06
-5.24809e-07
2.66428e-06
-5.24803e-07
2.54114e-06
2.42365e-06
-5.55248e-07
2.42848e-06
-5.5526e-07
2.5517e-06
-5.55272e-07
2.68117e-06
-5.55285e-07
2.81703e-06
-5.55299e-07
2.95953e-06
-5.55319e-07
3.10893e-06
-5.55348e-07
3.26543e-06
-5.55389e-07
3.42925e-06
-5.55443e-07
3.60064e-06
-5.55508e-07
3.77982e-06
-5.55584e-07
3.96703e-06
-5.55664e-07
4.1625e-06
-5.55742e-07
4.36645e-06
-5.55811e-07
4.57905e-06
-5.55861e-07
4.80042e-06
-5.5588e-07
5.03064e-06
-5.55857e-07
5.26967e-06
-5.55785e-07
5.5175e-06
-5.55663e-07
5.77416e-06
-5.55503e-07
6.04002e-06
-5.5533e-07
6.31607e-06
-5.55175e-07
6.60426e-06
-5.55058e-07
6.90757e-06
-5.54964e-07
7.22938e-06
-5.54849e-07
7.57226e-06
-5.54651e-07
7.93655e-06
-5.54327e-07
8.3197e-06
-5.53866e-07
8.71713e-06
-5.53292e-07
9.12412e-06
-5.52668e-07
9.53813e-06
-5.51989e-07
1.16165e-05
-5.51462e-07
1.15536e-05
-5.51003e-07
1.15005e-05
-5.50417e-07
1.14613e-05
-5.4953e-07
1.14313e-05
-5.48275e-07
1.14013e-05
-5.46672e-07
1.13637e-05
-5.44774e-07
1.13155e-05
-5.42615e-07
1.12572e-05
-5.40198e-07
1.11913e-05
-5.37471e-07
1.11205e-05
-5.34307e-07
1.10478e-05
-5.30444e-07
1.09756e-05
-5.25421e-07
1.09062e-05
-5.18473e-07
1.084e-05
-5.08435e-07
1.07746e-05
-4.93644e-07
1.07002e-05
-4.72045e-07
1.05926e-05
-4.4268e-07
1.04003e-05
-4.1224e-07
1.00361e-05
-4.07541e-07
9.42549e-06
-4.68333e-07
8.67643e-06
-5.88025e-07
8.18962e-06
-6.90901e-07
8.31464e-06
-7.28149e-07
8.89926e-06
-7.20278e-07
9.52372e-06
-7.00244e-07
9.97636e-06
-6.82403e-07
1.02799e-05
-6.68099e-07
1.0518e-05
-6.54367e-07
1.07578e-05
-6.37575e-07
1.10563e-05
-6.10424e-07
1.15044e-05
-5.48574e-07
1.21318e-05
-3.83473e-07
1.22286e-05
-3.01079e-07
1.00177e-05
-6.70957e-07
6.85124e-06
-7.86884e-07
8.69581e-06
-6.37808e-07
1.19096e-05
-5.57122e-07
1.23952e-05
-5.25359e-07
1.19302e-05
-5.14208e-07
9.47207e-06
-5.09193e-07
8.9033e-06
-5.07933e-07
8.42782e-06
-5.08538e-07
8.01152e-06
-5.09884e-07
7.63601e-06
-5.11425e-07
7.29011e-06
-5.12901e-07
6.96685e-06
-5.14198e-07
6.66181e-06
-5.15284e-07
6.37212e-06
-5.16162e-07
6.09578e-06
-5.16856e-07
5.83135e-06
-5.17396e-07
5.57779e-06
-5.17812e-07
5.3343e-06
-5.18131e-07
5.10032e-06
-5.18375e-07
4.87542e-06
-5.18562e-07
4.65927e-06
-5.18707e-07
4.4516e-06
-5.18819e-07
4.25217e-06
-5.18907e-07
4.06078e-06
-5.18975e-07
3.87722e-06
-5.19029e-07
3.70127e-06
-5.19071e-07
3.53273e-06
-5.19103e-07
3.37137e-06
-5.19126e-07
3.21698e-06
-5.19142e-07
3.06931e-06
-5.1915e-07
2.92813e-06
-5.19152e-07
2.7932e-06
-5.1915e-07
2.66428e-06
-5.19145e-07
2.54114e-06
2.42364e-06
-5.56667e-07
2.42849e-06
-5.5668e-07
2.55171e-06
-5.56695e-07
2.68118e-06
-5.5671e-07
2.81704e-06
-5.56727e-07
2.95955e-06
-5.56749e-07
3.10895e-06
-5.5678e-07
3.26546e-06
-5.56822e-07
3.4293e-06
-5.56877e-07
3.60069e-06
-5.56943e-07
3.77988e-06
-5.57019e-07
3.9671e-06
-5.571e-07
4.16258e-06
-5.57178e-07
4.36652e-06
-5.57247e-07
4.57911e-06
-5.57296e-07
4.80047e-06
-5.57313e-07
5.03065e-06
-5.57288e-07
5.26965e-06
-5.57213e-07
5.51742e-06
-5.57087e-07
5.77404e-06
-5.56922e-07
6.03985e-06
-5.56743e-07
6.31589e-06
-5.5658e-07
6.6041e-06
-5.56451e-07
6.90744e-06
-5.56344e-07
7.22927e-06
-5.56213e-07
7.57213e-06
-5.55997e-07
7.93633e-06
-5.55654e-07
8.31936e-06
-5.55172e-07
8.71665e-06
-5.54575e-07
9.12352e-06
-5.53923e-07
9.53747e-06
-5.53203e-07
1.16158e-05
-5.52626e-07
1.1553e-05
-5.52106e-07
1.15e-05
-5.51451e-07
1.14606e-05
-5.50488e-07
1.14303e-05
-5.4915e-07
1.13999e-05
-5.47455e-07
1.1362e-05
-5.45454e-07
1.13135e-05
-5.43179e-07
1.12549e-05
-5.40633e-07
1.11887e-05
-5.37767e-07
1.11176e-05
-5.34457e-07
1.10445e-05
-5.30455e-07
1.09716e-05
-5.25327e-07
1.0901e-05
-5.18369e-07
1.08331e-05
-5.08522e-07
1.07647e-05
-4.94324e-07
1.0686e-05
-4.74092e-07
1.05723e-05
-4.47569e-07
1.03738e-05
-4.2211e-07
1.00106e-05
-4.22508e-07
9.42588e-06
-4.81442e-07
8.73536e-06
-5.90278e-07
8.29846e-06
-6.85395e-07
8.40976e-06
-7.24533e-07
8.9384e-06
-7.22395e-07
9.52158e-06
-7.07218e-07
9.96118e-06
-6.92842e-07
1.02655e-05
-6.81421e-07
1.05066e-05
-6.70832e-07
1.07473e-05
-6.58088e-07
1.10436e-05
-6.34935e-07
1.14812e-05
-5.7087e-07
1.20677e-05
-4.1269e-07
1.20704e-05
-3.40407e-07
9.94543e-06
-6.54796e-07
7.16562e-06
-7.51407e-07
8.79242e-06
-6.06995e-07
1.17652e-05
-5.29817e-07
1.2318e-05
-5.04256e-07
1.19046e-05
-4.97362e-07
9.46518e-06
-4.95111e-07
8.90105e-06
-4.95714e-07
8.42842e-06
-4.97642e-07
8.01344e-06
-4.99965e-07
7.63833e-06
-5.02245e-07
7.2924e-06
-5.04291e-07
6.9689e-06
-5.06036e-07
6.66356e-06
-5.07479e-07
6.37356e-06
-5.08646e-07
6.09694e-06
-5.09575e-07
5.83228e-06
-5.10308e-07
5.57852e-06
-5.10883e-07
5.33488e-06
-5.11334e-07
5.10077e-06
-5.11688e-07
4.87577e-06
-5.11966e-07
4.65955e-06
-5.12186e-07
4.45182e-06
-5.12361e-07
4.25235e-06
-5.12501e-07
4.06092e-06
-5.12612e-07
3.87733e-06
-5.12701e-07
3.70136e-06
-5.12771e-07
3.5328e-06
-5.12825e-07
3.37143e-06
-5.12865e-07
3.21702e-06
-5.12893e-07
3.06934e-06
-5.12911e-07
2.92814e-06
-5.12919e-07
2.7932e-06
-5.12921e-07
2.66428e-06
-5.12919e-07
2.54114e-06
2.42364e-06
-5.58224e-07
2.4285e-06
-5.58239e-07
2.55172e-06
-5.58257e-07
2.6812e-06
-5.58276e-07
2.81706e-06
-5.58297e-07
2.95957e-06
-5.58323e-07
3.10897e-06
-5.58357e-07
3.26549e-06
-5.58401e-07
3.42934e-06
-5.58458e-07
3.60075e-06
-5.58525e-07
3.77995e-06
-5.58602e-07
3.96718e-06
-5.58683e-07
4.16266e-06
-5.58762e-07
4.3666e-06
-5.58831e-07
4.57918e-06
-5.58878e-07
4.80052e-06
-5.58894e-07
5.03067e-06
-5.58867e-07
5.26962e-06
-5.58789e-07
5.51735e-06
-5.58659e-07
5.77391e-06
-5.58489e-07
6.03968e-06
-5.58303e-07
6.3157e-06
-5.58132e-07
6.60393e-06
-5.57993e-07
6.9073e-06
-5.57874e-07
7.22916e-06
-5.5773e-07
7.57199e-06
-5.57501e-07
7.9361e-06
-5.57143e-07
8.319e-06
-5.56644e-07
8.71615e-06
-5.56027e-07
9.12291e-06
-5.55351e-07
9.5368e-06
-5.54595e-07
1.1615e-05
-5.53973e-07
1.15524e-05
-5.53399e-07
1.14994e-05
-5.52684e-07
1.14599e-05
-5.51657e-07
1.14293e-05
-5.5025e-07
1.13985e-05
-5.48481e-07
1.13603e-05
-5.46398e-07
1.13114e-05
-5.44035e-07
1.12526e-05
-5.41395e-07
1.11861e-05
-5.38433e-07
1.11147e-05
-5.35033e-07
1.10411e-05
-5.30965e-07
1.09676e-05
-5.25827e-07
1.08959e-05
-5.18975e-07
1.08262e-05
-5.09458e-07
1.07552e-05
-4.95997e-07
1.06725e-05
-4.77243e-07
1.05536e-05
-4.53514e-07
1.035e-05
-4.32535e-07
9.98963e-06
-4.36999e-07
9.43035e-06
-4.93779e-07
8.79214e-06
-5.93182e-07
8.39786e-06
-6.81344e-07
8.49792e-06
-7.21567e-07
8.97862e-06
-7.24262e-07
9.52427e-06
-7.1357e-07
9.95049e-06
-7.02594e-07
1.02546e-05
-6.9408e-07
1.04981e-05
-6.8659e-07
1.07398e-05
-6.77691e-07
1.10347e-05
-6.58099e-07
1.14616e-05
-5.93388e-07
1.2003e-05
-4.37953e-07
1.19149e-05
-3.72112e-07
9.87959e-06
-6.39865e-07
7.43338e-06
-7.18996e-07
8.87155e-06
-5.78158e-07
1.16244e-05
-5.03373e-07
1.22433e-05
-4.82904e-07
1.18842e-05
-4.79773e-07
9.46205e-06
-4.80284e-07
8.90157e-06
-4.82772e-07
8.43091e-06
-4.86039e-07
8.01671e-06
-4.89359e-07
7.64165e-06
-4.92399e-07
7.29544e-06
-4.95034e-07
6.97153e-06
-4.97245e-07
6.66577e-06
-4.99061e-07
6.37537e-06
-5.0053e-07
6.09841e-06
-5.01706e-07
5.83346e-06
-5.02642e-07
5.57946e-06
-5.03384e-07
5.33562e-06
-5.03973e-07
5.10136e-06
-5.04442e-07
4.87624e-06
-5.04816e-07
4.65992e-06
-5.05116e-07
4.45212e-06
-5.05357e-07
4.25259e-06
-5.05551e-07
4.06111e-06