/*--------------------------------*- C++ -*----------------------------------*\
  =========                 |
  \\      /  F ield         | OpenFOAM: The Open Source CFD Toolbox
   \\    /   O peration     | Website:  https://openfoam.org
    \\  /    A nd           | Version:  9
     \\/     M anipulation  |
\*---------------------------------------------------------------------------*/
FoamFile
{
    format      ascii;
    class       volScalarField;
    location    "0.11";
    object      rAU;
}
// * * * * * * * * * * * * * * * * * * * * * * * * * * * * * * * * * * * * * //

dimensions      [-1 3 1 0 0 0 0];

internalField   nonuniform List<scalar> 
20000
(
1.467e-05
1.40004e-05
1.41403e-05
1.42704e-05
1.43913e-05
1.45036e-05
1.46081e-05
1.47055e-05
1.47963e-05
1.48812e-05
1.49608e-05
1.50357e-05
1.51064e-05
1.51736e-05
1.52379e-05
1.52999e-05
1.53604e-05
1.54199e-05
1.54791e-05
1.55382e-05
1.55967e-05
1.56532e-05
1.57056e-05
1.57515e-05
1.57895e-05
1.58207e-05
1.58486e-05
1.58779e-05
1.59126e-05
1.59593e-05
1.60508e-05
1.60921e-05
1.61233e-05
1.61455e-05
1.61617e-05
1.61775e-05
1.6198e-05
1.6225e-05
1.62583e-05
1.62964e-05
1.63374e-05
1.63794e-05
1.64203e-05
1.64578e-05
1.64898e-05
1.65149e-05
1.65345e-05
1.65566e-05
1.66052e-05
1.67501e-05
1.71787e-05
1.82245e-05
1.95388e-05
1.90961e-05
1.77978e-05
1.71169e-05
1.6855e-05
1.67289e-05
1.6617e-05
1.64691e-05
1.62485e-05
1.59118e-05
1.54024e-05
1.48311e-05
1.58423e-05
2.76028e-05
1.85841e-05
1.4858e-05
1.51298e-05
1.56299e-05
1.58687e-05
1.60002e-05
1.60634e-05
1.60795e-05
1.60662e-05
1.60346e-05
1.59916e-05
1.59411e-05
1.58855e-05
1.58263e-05
1.57642e-05
1.56999e-05
1.56335e-05
1.55651e-05
1.54946e-05
1.54215e-05
1.53456e-05
1.52664e-05
1.51834e-05
1.50961e-05
1.50039e-05
1.49062e-05
1.48025e-05
1.46922e-05
1.45747e-05
1.44494e-05
1.43157e-05
1.41731e-05
1.4021e-05
1.20849e-05
1.94033e-05
1.8259e-05
1.85076e-05
1.87407e-05
1.89591e-05
1.91633e-05
1.93543e-05
1.95327e-05
1.96994e-05
1.98552e-05
2.00007e-05
2.01368e-05
2.02642e-05
2.03837e-05
2.04961e-05
2.0602e-05
2.07024e-05
2.0798e-05
2.08895e-05
2.09772e-05
2.10611e-05
2.11406e-05
2.12142e-05
2.12806e-05
2.13391e-05
2.13907e-05
2.14378e-05
2.14839e-05
2.15318e-05
2.15918e-05
2.17222e-05
2.17554e-05
2.17767e-05
2.1792e-05
2.18031e-05
2.1814e-05
2.1828e-05
2.18466e-05
2.18694e-05
2.18953e-05
2.19232e-05
2.19516e-05
2.19793e-05
2.20046e-05
2.20264e-05
2.20439e-05
2.20589e-05
2.20777e-05
2.21193e-05
2.22347e-05
2.25428e-05
2.31837e-05
2.38266e-05
2.35553e-05
2.28368e-05
2.24234e-05
2.22575e-05
2.21767e-05
2.21045e-05
2.20091e-05
2.18676e-05
2.16505e-05
2.13219e-05
2.09715e-05
2.18757e-05
2.71333e-05
2.32544e-05
2.0871e-05
2.10671e-05
2.14251e-05
2.15268e-05
2.15908e-05
2.16101e-05
2.15951e-05
2.15578e-05
2.15059e-05
2.14439e-05
2.13743e-05
2.12985e-05
2.12173e-05
2.1131e-05
2.10397e-05
2.09434e-05
2.08418e-05
2.07344e-05
2.06208e-05
2.05004e-05
2.03727e-05
2.02368e-05
2.00921e-05
1.99379e-05
1.97735e-05
1.9598e-05
1.94108e-05
1.92111e-05
1.89982e-05
1.87715e-05
1.85302e-05
1.82738e-05
1.51194e-05
1.94029e-05
1.82587e-05
1.85073e-05
1.87404e-05
1.89587e-05
1.9163e-05
1.9354e-05
1.95324e-05
1.96991e-05
1.98548e-05
2.00003e-05
2.01364e-05
2.02638e-05
2.03833e-05
2.04957e-05
2.06017e-05
2.07021e-05
2.07978e-05
2.08893e-05
2.0977e-05
2.1061e-05
2.11404e-05
2.1214e-05
2.12804e-05
2.1339e-05
2.13906e-05
2.14378e-05
2.14839e-05
2.15319e-05
2.15919e-05
2.17223e-05
2.17555e-05
2.17768e-05
2.17921e-05
2.18032e-05
2.18143e-05
2.18285e-05
2.18471e-05
2.187e-05
2.18961e-05
2.1924e-05
2.19526e-05
2.19805e-05
2.20062e-05
2.20285e-05
2.20473e-05
2.20645e-05
2.20879e-05
2.21377e-05
2.22664e-05
2.25848e-05
2.31907e-05
2.37396e-05
2.34895e-05
2.28359e-05
2.24317e-05
2.22599e-05
2.21755e-05
2.21032e-05
2.20108e-05
2.18767e-05
2.16709e-05
2.13635e-05
2.10623e-05
2.20233e-05
2.64518e-05
2.32319e-05
2.09379e-05
2.10903e-05
2.14335e-05
2.15305e-05
2.15927e-05
2.16111e-05
2.15957e-05
2.15584e-05
2.15065e-05
2.14446e-05
2.1375e-05
2.12993e-05
2.12182e-05
2.11319e-05
2.10408e-05
2.09445e-05
2.08429e-05
2.07356e-05
2.06221e-05
2.05018e-05
2.0374e-05
2.02382e-05
2.00936e-05
1.99395e-05
1.97751e-05
1.95997e-05
1.94125e-05
1.92129e-05
1.9e-05
1.87733e-05
1.85321e-05
1.82758e-05
1.51217e-05
1.94023e-05
1.82582e-05
1.85068e-05
1.87399e-05
1.89583e-05
1.91625e-05
1.93535e-05
1.95319e-05
1.96986e-05
1.98543e-05
1.99998e-05
2.01359e-05
2.02633e-05
2.03828e-05
2.04952e-05
2.06013e-05
2.07017e-05
2.07974e-05
2.0889e-05
2.09768e-05
2.10607e-05
2.11402e-05
2.12138e-05
2.12802e-05
2.13387e-05
2.13904e-05
2.14377e-05
2.14839e-05
2.15319e-05
2.1592e-05
2.17224e-05
2.17555e-05
2.17768e-05
2.17921e-05
2.18034e-05
2.18146e-05
2.18289e-05
2.18477e-05
2.18707e-05
2.18969e-05
2.1925e-05
2.19538e-05
2.19819e-05
2.2008e-05
2.20312e-05
2.20514e-05
2.20713e-05
2.20993e-05
2.2157e-05
2.22969e-05
2.26192e-05
2.31817e-05
2.36451e-05
2.34221e-05
2.28373e-05
2.24462e-05
2.22678e-05
2.21781e-05
2.21043e-05
2.20143e-05
2.18871e-05
2.16908e-05
2.13998e-05
2.11463e-05
2.21569e-05
2.58645e-05
2.32099e-05
2.10357e-05
2.11276e-05
2.14509e-05
2.154e-05
2.15977e-05
2.16138e-05
2.15974e-05
2.15596e-05
2.15076e-05
2.14457e-05
2.13762e-05
2.13006e-05
2.12195e-05
2.11334e-05
2.10423e-05
2.09461e-05
2.08446e-05
2.07373e-05
2.06239e-05
2.05036e-05
2.03759e-05
2.02402e-05
2.00956e-05
1.99416e-05
1.97772e-05
1.96019e-05
1.94148e-05
1.92152e-05
1.90024e-05
1.87758e-05
1.85346e-05
1.82783e-05
1.51248e-05
1.94014e-05
1.82575e-05
1.85061e-05
1.87393e-05
1.89576e-05
1.91619e-05
1.93528e-05
1.95312e-05
1.96979e-05
1.98536e-05
1.99992e-05
2.01353e-05
2.02627e-05
2.03822e-05
2.04946e-05
2.06007e-05
2.07012e-05
2.0797e-05
2.08886e-05
2.09764e-05
2.10604e-05
2.11399e-05
2.12135e-05
2.12799e-05
2.13384e-05
2.13901e-05
2.14375e-05
2.14838e-05
2.15319e-05
2.1592e-05
2.17225e-05
2.17556e-05
2.17768e-05
2.17922e-05
2.18036e-05
2.18149e-05
2.18294e-05
2.18483e-05
2.18714e-05
2.18978e-05
2.1926e-05
2.1955e-05
2.19834e-05
2.20101e-05
2.20342e-05
2.2056e-05
2.20787e-05
2.21112e-05
2.21762e-05
2.23251e-05
2.26456e-05
2.31612e-05
2.35521e-05
2.33568e-05
2.28375e-05
2.24625e-05
2.22785e-05
2.21828e-05
2.21069e-05
2.20183e-05
2.18961e-05
2.17077e-05
2.14293e-05
2.12207e-05
2.22699e-05
2.53876e-05
2.31731e-05
2.1136e-05
2.11713e-05
2.14738e-05
2.15539e-05
2.16057e-05
2.16184e-05
2.16003e-05
2.15618e-05
2.15095e-05
2.14475e-05
2.1378e-05
2.13024e-05
2.12214e-05
2.11354e-05
2.10443e-05
2.09482e-05
2.08468e-05
2.07396e-05
2.06262e-05
2.05061e-05
2.03785e-05
2.02428e-05
2.00983e-05
1.99443e-05
1.978e-05
1.96048e-05
1.94178e-05
1.92183e-05
1.90055e-05
1.8779e-05
1.85379e-05
1.82816e-05
1.51287e-05
1.94003e-05
1.82565e-05
1.85052e-05
1.87384e-05
1.89567e-05
1.9161e-05
1.9352e-05
1.95304e-05
1.96971e-05
1.98528e-05
1.99983e-05
2.01345e-05
2.02619e-05
2.03815e-05
2.04939e-05
2.06001e-05
2.07006e-05
2.07964e-05
2.08881e-05
2.0976e-05
2.106e-05
2.11395e-05
2.12131e-05
2.12795e-05
2.13381e-05
2.13899e-05
2.14373e-05
2.14837e-05
2.15319e-05
2.1592e-05
2.17225e-05
2.17555e-05
2.17768e-05
2.17922e-05
2.18037e-05
2.18152e-05
2.18298e-05
2.18489e-05
2.18722e-05
2.18987e-05
2.19271e-05
2.19563e-05
2.19851e-05
2.20124e-05
2.20374e-05
2.20609e-05
2.20863e-05
2.21232e-05
2.21946e-05
2.23499e-05
2.26638e-05
2.31333e-05
2.34655e-05
2.32953e-05
2.28348e-05
2.24782e-05
2.22902e-05
2.21887e-05
2.21101e-05
2.20222e-05
2.19041e-05
2.17221e-05
2.1454e-05
2.12865e-05
2.23336e-05
2.49702e-05
2.31224e-05
2.1229e-05
2.12176e-05
2.14989e-05
2.15701e-05
2.16155e-05
2.16245e-05
2.16045e-05
2.1565e-05
2.15122e-05
2.145e-05
2.13805e-05
2.13049e-05
2.12239e-05
2.11379e-05
2.1047e-05
2.0951e-05
2.08496e-05
2.07425e-05
2.06292e-05
2.05091e-05
2.03816e-05
2.0246e-05
2.01016e-05
1.99477e-05
1.97836e-05
1.96084e-05
1.94215e-05
1.9222e-05
1.90094e-05
1.87829e-05
1.85419e-05
1.82858e-05
1.51337e-05
1.9399e-05
1.82554e-05
1.85041e-05
1.87373e-05
1.89557e-05
1.916e-05
1.9351e-05
1.95294e-05
1.96961e-05
1.98518e-05
1.99974e-05
2.01335e-05
2.0261e-05
2.03806e-05
2.04931e-05
2.05993e-05
2.06999e-05
2.07958e-05
2.08875e-05
2.09755e-05
2.10596e-05
2.1139e-05
2.12126e-05
2.1279e-05
2.13376e-05
2.13895e-05
2.1437e-05
2.14835e-05
2.15318e-05
2.1592e-05
2.17225e-05
2.17555e-05
2.17767e-05
2.17922e-05
2.18038e-05
2.18155e-05
2.18303e-05
2.18495e-05
2.18729e-05
2.18996e-05
2.19282e-05
2.19577e-05
2.19869e-05
2.20147e-05
2.20408e-05
2.20659e-05
2.20939e-05
2.21348e-05
2.22116e-05
2.2371e-05
2.2675e-05
2.31019e-05
2.33866e-05
2.32379e-05
2.28286e-05
2.24917e-05
2.23017e-05
2.2195e-05
2.21135e-05
2.20255e-05
2.19104e-05
2.17334e-05
2.14747e-05
2.13455e-05
2.23728e-05
2.46193e-05
2.3066e-05
2.13148e-05
2.12649e-05
2.15248e-05
2.15872e-05
2.16263e-05
2.16316e-05
2.16096e-05
2.1569e-05
2.15156e-05
2.14531e-05
2.13835e-05
2.13079e-05
2.1227e-05
2.11411e-05
2.10502e-05
2.09543e-05
2.0853e-05
2.0746e-05
2.06328e-05
2.05128e-05
2.03854e-05
2.02499e-05
2.01056e-05
1.99518e-05
1.97878e-05
1.96127e-05
1.94259e-05
1.92266e-05
1.90141e-05
1.87877e-05
1.85468e-05
1.82907e-05
1.51396e-05
1.93974e-05
1.82541e-05
1.85028e-05
1.8736e-05
1.89545e-05
1.91588e-05
1.93498e-05
1.95282e-05
1.9695e-05
1.98507e-05
1.99963e-05
2.01325e-05
2.026e-05
2.03797e-05
2.04922e-05
2.05984e-05
2.06991e-05
2.07951e-05
2.08869e-05
2.09749e-05
2.1059e-05
2.11385e-05
2.1212e-05
2.12784e-05
2.13371e-05
2.13891e-05
2.14367e-05
2.14833e-05
2.15316e-05
2.15919e-05
2.17224e-05
2.17553e-05
2.17766e-05
2.17921e-05
2.18039e-05
2.18158e-05
2.18307e-05
2.18501e-05
2.18737e-05
2.19005e-05
2.19293e-05
2.19591e-05
2.19886e-05
2.20171e-05
2.20442e-05
2.20709e-05
2.21013e-05
2.21456e-05
2.22267e-05
2.23884e-05
2.26809e-05
2.3069e-05
2.33153e-05
2.31846e-05
2.28195e-05
2.25022e-05
2.23121e-05
2.22009e-05
2.21164e-05
2.20278e-05
2.19144e-05
2.17417e-05
2.14917e-05
2.13999e-05
2.24024e-05
2.43306e-05
2.30104e-05
2.13952e-05
2.13117e-05
2.15505e-05
2.16042e-05
2.16375e-05
2.16394e-05
2.16153e-05
2.15735e-05
2.15196e-05
2.14568e-05
2.13871e-05
2.13115e-05
2.12306e-05
2.11448e-05
2.1054e-05
2.09582e-05
2.0857e-05
2.07501e-05
2.0637e-05
2.05171e-05
2.03898e-05
2.02545e-05
2.01103e-05
1.99566e-05
1.97927e-05
1.96177e-05
1.94311e-05
1.92319e-05
1.90195e-05
1.87932e-05
1.85524e-05
1.82965e-05
1.51465e-05
1.93956e-05
1.82526e-05
1.85013e-05
1.87346e-05
1.89531e-05
1.91574e-05
1.93484e-05
1.95269e-05
1.96937e-05
1.98495e-05
1.99951e-05
2.01313e-05
2.02589e-05
2.03785e-05
2.04912e-05
2.05974e-05
2.06982e-05
2.07942e-05
2.08861e-05
2.09742e-05
2.10583e-05
2.11378e-05
2.12114e-05
2.12778e-05
2.13366e-05
2.13886e-05
2.14363e-05
2.1483e-05
2.15314e-05
2.15917e-05
2.17223e-05
2.17552e-05
2.17764e-05
2.1792e-05
2.1804e-05
2.1816e-05
2.18311e-05
2.18507e-05
2.18744e-05
2.19014e-05
2.19304e-05
2.19604e-05
2.19904e-05
2.20194e-05
2.20474e-05
2.20756e-05
2.21081e-05
2.21555e-05
2.22401e-05
2.24024e-05
2.26825e-05
2.3036e-05
2.32508e-05
2.31351e-05
2.28079e-05
2.25096e-05
2.23209e-05
2.22061e-05
2.21186e-05
2.2029e-05
2.19162e-05
2.17461e-05
2.15056e-05
2.14517e-05
2.24256e-05
2.40916e-05
2.29595e-05
2.14715e-05
2.13572e-05
2.15752e-05
2.16204e-05
2.16488e-05
2.16474e-05
2.16213e-05
2.15785e-05
2.1524e-05
2.1461e-05
2.13911e-05
2.13155e-05
2.12347e-05
2.1149e-05
2.10583e-05
2.09625e-05
2.08615e-05
2.07547e-05
2.06418e-05
2.0522e-05
2.03948e-05
2.02596e-05
2.01156e-05
1.9962e-05
1.97983e-05
1.96235e-05
1.94369e-05
1.92379e-05
1.90257e-05
1.87995e-05
1.85589e-05
1.8303e-05
1.51543e-05
1.93937e-05
1.82509e-05
1.84997e-05
1.8733e-05
1.89515e-05
1.91559e-05
1.93469e-05
1.95255e-05
1.96922e-05
1.98481e-05
1.99937e-05
2.013e-05
2.02576e-05
2.03773e-05
2.049e-05
2.05963e-05
2.06972e-05
2.07933e-05
2.08852e-05
2.09734e-05
2.10575e-05
2.11371e-05
2.12107e-05
2.12771e-05
2.13359e-05
2.1388e-05
2.14358e-05
2.14826e-05
2.15311e-05
2.15914e-05
2.17221e-05
2.1755e-05
2.17762e-05
2.17919e-05
2.1804e-05
2.18162e-05
2.18315e-05
2.18512e-05
2.18751e-05
2.19023e-05
2.19315e-05
2.19617e-05
2.1992e-05
2.20216e-05
2.20505e-05
2.20799e-05
2.21144e-05
2.21643e-05
2.22517e-05
2.24134e-05
2.26808e-05
2.30035e-05
2.31923e-05
2.30893e-05
2.27944e-05
2.25142e-05
2.23279e-05
2.22102e-05
2.21199e-05
2.20289e-05
2.1916e-05
2.17482e-05
2.15187e-05
2.15024e-05
2.2445e-05
2.38927e-05
2.29154e-05
2.15444e-05
2.14006e-05
2.15978e-05
2.16351e-05
2.16594e-05
2.16552e-05
2.16274e-05
2.15836e-05
2.15287e-05
2.14654e-05
2.13955e-05
2.13199e-05
2.12392e-05
2.11535e-05
2.1063e-05
2.09674e-05
2.08665e-05
2.07598e-05
2.0647e-05
2.05274e-05
2.04004e-05
2.02653e-05
2.01214e-05
1.99681e-05
1.98045e-05
1.96298e-05
1.94435e-05
1.92446e-05
1.90325e-05
1.88066e-05
1.85661e-05
1.83104e-05
1.51631e-05
1.93915e-05
1.8249e-05
1.84979e-05
1.87312e-05
1.89498e-05
1.91542e-05
1.93453e-05
1.95238e-05
1.96906e-05
1.98465e-05
1.99922e-05
2.01285e-05
2.02561e-05
2.03759e-05
2.04887e-05
2.05951e-05
2.06961e-05
2.07922e-05
2.08843e-05
2.09725e-05
2.10567e-05
2.11362e-05
2.12099e-05
2.12763e-05
2.13352e-05
2.13873e-05
2.14353e-05
2.14822e-05
2.15308e-05
2.15912e-05
2.17219e-05
2.17547e-05
2.17759e-05
2.17917e-05
2.1804e-05
2.18163e-05
2.18318e-05
2.18517e-05
2.18758e-05
2.1903e-05
2.19325e-05
2.19629e-05
2.19936e-05
2.20237e-05
2.20533e-05
2.20839e-05
2.212e-05
2.21722e-05
2.22616e-05
2.24219e-05
2.26766e-05
2.29719e-05
2.31391e-05
2.30466e-05
2.27796e-05
2.25163e-05
2.23331e-05
2.22132e-05
2.21203e-05
2.20277e-05
2.19143e-05
2.1749e-05
2.15333e-05
2.15543e-05
2.24627e-05
2.37268e-05
2.28789e-05
2.16145e-05
2.14426e-05
2.16187e-05
2.16487e-05
2.16692e-05
2.16625e-05
2.16332e-05
2.15887e-05
2.15334e-05
2.147e-05
2.14001e-05
2.13246e-05
2.12439e-05
2.11584e-05
2.1068e-05
2.09726e-05
2.08718e-05
2.07654e-05
2.06527e-05
2.05333e-05
2.04065e-05
2.02716e-05
2.01279e-05
1.99747e-05
1.98113e-05
1.96368e-05
1.94507e-05
1.9252e-05
1.90401e-05
1.88143e-05
1.8574e-05
1.83185e-05
1.51728e-05
1.93891e-05
1.8247e-05
1.84959e-05
1.87293e-05
1.89479e-05
1.91523e-05
1.93434e-05
1.9522e-05
1.96889e-05
1.98448e-05
1.99905e-05
2.01269e-05
2.02546e-05
2.03744e-05
2.04872e-05
2.05938e-05
2.06948e-05
2.07911e-05
2.08832e-05
2.09714e-05
2.10557e-05
2.11353e-05
2.1209e-05
2.12755e-05
2.13344e-05
2.13866e-05
2.14347e-05
2.14817e-05
2.15304e-05
2.15908e-05
2.17217e-05
2.17544e-05
2.17756e-05
2.17915e-05
2.18039e-05
2.18164e-05
2.18321e-05
2.18521e-05
2.18763e-05
2.19038e-05
2.19333e-05
2.1964e-05
2.1995e-05
2.20255e-05
2.20559e-05
2.20875e-05
2.21251e-05
2.21791e-05
2.227e-05
2.2428e-05
2.26704e-05
2.29414e-05
2.30904e-05
2.30068e-05
2.27638e-05
2.25161e-05
2.23366e-05
2.2215e-05
2.21197e-05
2.20255e-05
2.19113e-05
2.17486e-05
2.15487e-05
2.16055e-05
2.24799e-05
2.35883e-05
2.28496e-05
2.16823e-05
2.14829e-05
2.16372e-05
2.16605e-05
2.16779e-05
2.16691e-05
2.16387e-05
2.15936e-05
2.1538e-05
2.14746e-05
2.14047e-05
2.13294e-05
2.12489e-05
2.11636e-05
2.10734e-05
2.09781e-05
2.08776e-05
2.07713e-05
2.06588e-05
2.05396e-05
2.0413e-05
2.02783e-05
2.01348e-05
1.99819e-05
1.98187e-05
1.96444e-05
1.94585e-05
1.926e-05
1.90483e-05
1.88228e-05
1.85826e-05
1.83273e-05
1.51833e-05
1.93865e-05
1.82448e-05
1.84937e-05
1.87272e-05
1.89458e-05
1.91503e-05
1.93414e-05
1.95201e-05
1.96869e-05
1.98429e-05
1.99887e-05
2.01251e-05
2.02529e-05
2.03728e-05
2.04857e-05
2.05923e-05
2.06934e-05
2.07898e-05
2.0882e-05
2.09703e-05
2.10547e-05
2.11343e-05
2.1208e-05
2.12745e-05
2.13335e-05
2.13858e-05
2.1434e-05
2.14811e-05
2.15299e-05
2.15903e-05
2.17214e-05
2.17541e-05
2.17753e-05
2.17912e-05
2.18038e-05
2.18165e-05
2.18323e-05
2.18525e-05
2.18768e-05
2.19044e-05
2.19341e-05
2.1965e-05
2.19962e-05
2.20272e-05
2.20581e-05
2.20906e-05
2.21295e-05
2.2185e-05
2.22769e-05
2.24323e-05
2.26628e-05
2.29122e-05
2.30457e-05
2.29696e-05
2.27473e-05
2.25139e-05
2.23385e-05
2.22157e-05
2.21183e-05
2.20224e-05
2.19074e-05
2.17479e-05
2.15659e-05
2.16577e-05
2.24976e-05
2.34728e-05
2.2827e-05
2.17475e-05
2.15217e-05
2.16534e-05
2.16704e-05
2.16852e-05
2.16749e-05
2.16436e-05
2.15981e-05
2.15425e-05
2.14791e-05
2.14094e-05
2.13342e-05
2.1254e-05
2.11689e-05
2.10789e-05
2.09839e-05
2.08836e-05
2.07776e-05
2.06653e-05
2.05463e-05
2.04199e-05
2.02855e-05
2.01422e-05
1.99895e-05
1.98265e-05
1.96526e-05
1.94668e-05
1.92686e-05
1.90572e-05
1.88318e-05
1.85919e-05
1.83367e-05
1.51947e-05
1.93837e-05
1.82424e-05
1.84913e-05
1.87248e-05
1.89435e-05
1.9148e-05
1.93393e-05
1.95179e-05
1.96849e-05
1.98409e-05
1.99867e-05
2.01232e-05
2.0251e-05
2.0371e-05
2.0484e-05
2.05907e-05
2.06919e-05
2.07884e-05
2.08807e-05
2.09691e-05
2.10535e-05
2.11332e-05
2.12069e-05
2.12734e-05
2.13325e-05
2.13849e-05
2.14332e-05
2.14804e-05
2.15293e-05
2.15898e-05
2.1721e-05
2.17537e-05
2.17749e-05
2.17909e-05
2.18036e-05
2.18164e-05
2.18324e-05
2.18527e-05
2.18772e-05
2.19049e-05
2.19348e-05
2.19658e-05
2.19972e-05
2.20286e-05
2.206e-05
2.20934e-05
2.21333e-05
2.21901e-05
2.22826e-05
2.24349e-05
2.26541e-05
2.28843e-05
2.30046e-05
2.29348e-05
2.27304e-05
2.25103e-05
2.2339e-05
2.22156e-05
2.21163e-05
2.20189e-05
2.1903e-05
2.17474e-05
2.15855e-05
2.17111e-05
2.25164e-05
2.33768e-05
2.28099e-05
2.18105e-05
2.15596e-05
2.16675e-05
2.16783e-05
2.16911e-05
2.16796e-05
2.16478e-05
2.16022e-05
2.15466e-05
2.14834e-05
2.1414e-05
2.13391e-05
2.12591e-05
2.11743e-05
2.10846e-05
2.09899e-05
2.08898e-05
2.07841e-05
2.06721e-05
2.05534e-05
2.04272e-05
2.0293e-05
2.01501e-05
1.99976e-05
1.98349e-05
1.96612e-05
1.94757e-05
1.92777e-05
1.90665e-05
1.88414e-05
1.86017e-05
1.83467e-05
1.52067e-05
1.93806e-05
1.82398e-05
1.84888e-05
1.87223e-05
1.8941e-05
1.91456e-05
1.93369e-05
1.95156e-05
1.96826e-05
1.98387e-05
1.99846e-05
2.01211e-05
2.0249e-05
2.03691e-05
2.04822e-05
2.0589e-05
2.06903e-05
2.07869e-05
2.08793e-05
2.09678e-05
2.10523e-05
2.1132e-05
2.12057e-05
2.12723e-05
2.13314e-05
2.13839e-05
2.14323e-05
2.14797e-05
2.15286e-05
2.15892e-05
2.17205e-05
2.17532e-05
2.17744e-05
2.17905e-05
2.18033e-05
2.18163e-05
2.18325e-05
2.18529e-05
2.18775e-05
2.19053e-05
2.19353e-05
2.19665e-05
2.19981e-05
2.20298e-05
2.20617e-05
2.20957e-05
2.21366e-05
2.21945e-05
2.22872e-05
2.24363e-05
2.26447e-05
2.28578e-05
2.29666e-05
2.29022e-05
2.27135e-05
2.25054e-05
2.23385e-05
2.22148e-05
2.21139e-05
2.20151e-05
2.18987e-05
2.17481e-05
2.16079e-05
2.17654e-05
2.25362e-05
2.32974e-05
2.2797e-05
2.187e-05
2.15957e-05
2.16797e-05
2.16841e-05
2.16953e-05
2.16832e-05
2.16511e-05
2.16056e-05
2.15502e-05
2.14874e-05
2.14183e-05
2.13438e-05
2.12642e-05
2.11797e-05
2.10904e-05
2.09959e-05
2.08962e-05
2.07908e-05
2.06791e-05
2.05606e-05
2.04348e-05
2.03009e-05
2.01582e-05
2.0006e-05
1.98436e-05
1.96702e-05
1.9485e-05
1.92873e-05
1.90763e-05
1.88515e-05
1.8612e-05
1.83573e-05
1.52194e-05
1.93774e-05
1.8237e-05
1.84861e-05
1.87196e-05
1.89384e-05
1.91431e-05
1.93344e-05
1.95132e-05
1.96802e-05
1.98363e-05
1.99823e-05
2.01189e-05
2.02469e-05
2.03671e-05
2.04802e-05
2.05871e-05
2.06886e-05
2.07852e-05
2.08777e-05
2.09664e-05
2.10509e-05
2.11307e-05
2.12044e-05
2.12711e-05
2.13302e-05
2.13829e-05
2.14314e-05
2.14788e-05
2.15279e-05
2.15886e-05
2.172e-05
2.17527e-05
2.17738e-05
2.179e-05
2.18029e-05
2.18161e-05
2.18324e-05
2.1853e-05
2.18777e-05
2.19056e-05
2.19357e-05
2.1967e-05
2.19988e-05
2.20307e-05
2.20631e-05
2.20977e-05
2.21394e-05
2.21982e-05
2.22909e-05
2.24366e-05
2.26349e-05
2.28326e-05
2.29314e-05
2.28716e-05
2.26967e-05
2.24998e-05
2.23373e-05
2.22137e-05
2.21116e-05
2.20116e-05
2.1895e-05
2.17506e-05
2.16334e-05
2.18203e-05
2.25565e-05
2.32316e-05
2.27865e-05
2.1925e-05
2.16301e-05
2.16901e-05
2.1688e-05
2.1698e-05
2.16856e-05
2.16535e-05
2.16083e-05
2.15533e-05
2.14909e-05
2.14223e-05
2.13482e-05
2.12691e-05
2.1185e-05
2.10961e-05
2.1002e-05
2.09027e-05
2.07975e-05
2.06862e-05
2.05681e-05
2.04425e-05
2.03089e-05
2.01666e-05
2.00147e-05
1.98526e-05
1.96795e-05
1.94946e-05
1.92972e-05
1.90865e-05
1.88619e-05
1.86227e-05
1.83682e-05
1.52325e-05
1.93739e-05
1.82341e-05
1.84831e-05
1.87168e-05
1.89356e-05
1.91403e-05
1.93317e-05
1.95106e-05
1.96777e-05
1.98339e-05
1.99799e-05
2.01166e-05
2.02447e-05
2.03649e-05
2.04782e-05
2.05852e-05
2.06867e-05
2.07835e-05
2.08761e-05
2.09648e-05
2.10495e-05
2.11293e-05
2.12031e-05
2.12698e-05
2.1329e-05
2.13817e-05
2.14303e-05
2.14779e-05
2.15271e-05
2.15879e-05
2.17195e-05
2.17521e-05
2.17732e-05
2.17895e-05
2.18025e-05
2.18159e-05
2.18323e-05
2.1853e-05
2.18778e-05
2.19058e-05
2.1936e-05
2.19674e-05
2.19994e-05
2.20315e-05
2.20642e-05
2.20994e-05
2.21418e-05
2.22013e-05
2.22938e-05
2.2436e-05
2.26248e-05
2.28086e-05
2.28987e-05
2.28431e-05
2.26804e-05
2.24937e-05
2.23356e-05
2.22126e-05
2.21096e-05
2.20088e-05
2.18927e-05
2.17557e-05
2.16621e-05
2.1875e-05
2.25767e-05
2.31768e-05
2.2777e-05
2.19746e-05
2.16625e-05
2.16991e-05
2.16902e-05
2.16991e-05
2.16868e-05
2.1655e-05
2.16102e-05
2.15559e-05
2.1494e-05
2.1426e-05
2.13524e-05
2.12738e-05
2.11902e-05
2.11017e-05
2.10081e-05
2.09091e-05
2.08043e-05
2.06934e-05
2.05756e-05
2.04504e-05
2.03172e-05
2.01751e-05
2.00236e-05
1.98618e-05
1.9689e-05
1.95044e-05
1.93073e-05
1.90969e-05
1.88726e-05
1.86336e-05
1.83794e-05
1.5246e-05
1.93702e-05
1.82309e-05
1.848e-05
1.87137e-05
1.89326e-05
1.91374e-05
1.93289e-05
1.95078e-05
1.9675e-05
1.98312e-05
1.99773e-05
2.01141e-05
2.02423e-05
2.03626e-05
2.0476e-05
2.05831e-05
2.06847e-05
2.07817e-05
2.08744e-05
2.09632e-05
2.10479e-05
2.11278e-05
2.12016e-05
2.12684e-05
2.13277e-05
2.13805e-05
2.14292e-05
2.14769e-05
2.15262e-05
2.1587e-05
2.17189e-05
2.17514e-05
2.17726e-05
2.17888e-05
2.1802e-05
2.18155e-05
2.18321e-05
2.18529e-05
2.18778e-05
2.19059e-05
2.19362e-05
2.19677e-05
2.19998e-05
2.20321e-05
2.20651e-05
2.21008e-05
2.21439e-05
2.2204e-05
2.22961e-05
2.24348e-05
2.26146e-05
2.27859e-05
2.28683e-05
2.28164e-05
2.26647e-05
2.24874e-05
2.23338e-05
2.22116e-05
2.21081e-05
2.20071e-05
2.18924e-05
2.17639e-05
2.16937e-05
2.19284e-05
2.25958e-05
2.31304e-05
2.27674e-05
2.20185e-05
2.16929e-05
2.17072e-05
2.16909e-05
2.16989e-05
2.16869e-05
2.16557e-05
2.16115e-05
2.15578e-05
2.14967e-05
2.14293e-05
2.13563e-05
2.12783e-05
2.11952e-05
2.11072e-05
2.1014e-05
2.09154e-05
2.08111e-05
2.07005e-05
2.05831e-05
2.04583e-05
2.03254e-05
2.01838e-05
2.00326e-05
1.98711e-05
1.96986e-05
1.95144e-05
1.93176e-05
1.91075e-05
1.88835e-05
1.86448e-05
1.83907e-05
1.52597e-05
1.93663e-05
1.82276e-05
1.84768e-05
1.87105e-05
1.89295e-05
1.91343e-05
1.93259e-05
1.95049e-05
1.96721e-05
1.98285e-05
1.99747e-05
2.01115e-05
2.02398e-05
2.03602e-05
2.04737e-05
2.05809e-05
2.06827e-05
2.07797e-05
2.08726e-05
2.09615e-05
2.10463e-05
2.11262e-05
2.12001e-05
2.12669e-05
2.13262e-05
2.13792e-05
2.1428e-05
2.14759e-05
2.15253e-05
2.15862e-05
2.17182e-05
2.17507e-05
2.17719e-05
2.17882e-05
2.18015e-05
2.18151e-05
2.18318e-05
2.18528e-05
2.18778e-05
2.19059e-05
2.19362e-05
2.19678e-05
2.2e-05
2.20325e-05
2.20658e-05
2.21019e-05
2.21456e-05
2.22062e-05
2.22978e-05
2.24329e-05
2.26043e-05
2.27644e-05
2.28401e-05
2.27915e-05
2.26496e-05
2.24812e-05
2.2332e-05
2.2211e-05
2.21076e-05
2.20068e-05
2.18943e-05
2.17753e-05
2.17277e-05
2.19799e-05
2.26131e-05
2.30902e-05
2.27572e-05
2.20566e-05
2.17217e-05
2.1715e-05
2.16909e-05
2.16979e-05
2.16862e-05
2.16557e-05
2.16122e-05
2.15593e-05
2.14989e-05
2.14322e-05
2.13599e-05
2.12825e-05
2.12e-05
2.11125e-05
2.10198e-05
2.09217e-05
2.08178e-05
2.07077e-05
2.05907e-05
2.04663e-05
2.03337e-05
2.01924e-05
2.00416e-05
1.98805e-05
1.97084e-05
1.95244e-05
1.9328e-05
1.91182e-05
1.88945e-05
1.8656e-05
1.84022e-05
1.52735e-05
1.93622e-05
1.82241e-05
1.84733e-05
1.87071e-05
1.89262e-05
1.91311e-05
1.93227e-05
1.95018e-05
1.96691e-05
1.98255e-05
1.99718e-05
2.01088e-05
2.02371e-05
2.03577e-05
2.04713e-05
2.05786e-05
2.06805e-05
2.07776e-05
2.08706e-05
2.09597e-05
2.10445e-05
2.11245e-05
2.11985e-05
2.12653e-05
2.13247e-05
2.13778e-05
2.14268e-05
2.14747e-05
2.15242e-05
2.15852e-05
2.17175e-05
2.17499e-05
2.17711e-05
2.17874e-05
2.18009e-05
2.18146e-05
2.18315e-05
2.18525e-05
2.18776e-05
2.19058e-05
2.19362e-05
2.19678e-05
2.20001e-05
2.20328e-05
2.20664e-05
2.21028e-05
2.21471e-05
2.22081e-05
2.2299e-05
2.24307e-05
2.25942e-05
2.27441e-05
2.28139e-05
2.27683e-05
2.26353e-05
2.24752e-05
2.23304e-05
2.2211e-05
2.21081e-05
2.20082e-05
2.18987e-05
2.17898e-05
2.17635e-05
2.20285e-05
2.26279e-05
2.30546e-05
2.27461e-05
2.20896e-05
2.17492e-05
2.17231e-05
2.16908e-05
2.16964e-05
2.16851e-05
2.16552e-05
2.16125e-05
2.15604e-05
2.15007e-05
2.14348e-05
2.13632e-05
2.12864e-05
2.12046e-05
2.11176e-05
2.10255e-05
2.09279e-05
2.08245e-05
2.07147e-05
2.05982e-05
2.04742e-05
2.03421e-05
2.02011e-05
2.00507e-05
1.98899e-05
1.97182e-05
1.95346e-05
1.93384e-05
1.9129e-05
1.89055e-05
1.86674e-05
1.84138e-05
1.52875e-05
1.93579e-05
1.82205e-05
1.84697e-05
1.87036e-05
1.89227e-05
1.91277e-05
1.93194e-05
1.94986e-05
1.9666e-05
1.98225e-05
1.99689e-05
2.01059e-05
2.02344e-05
2.0355e-05
2.04687e-05
2.05762e-05
2.06782e-05
2.07755e-05
2.08686e-05
2.09577e-05
2.10427e-05
2.11227e-05
2.11967e-05
2.12636e-05
2.13231e-05
2.13763e-05
2.14254e-05
2.14735e-05
2.15231e-05
2.15842e-05
2.17166e-05
2.17491e-05
2.17702e-05
2.17866e-05
2.18002e-05
2.18141e-05
2.1831e-05
2.18522e-05
2.18773e-05
2.19056e-05
2.1936e-05
2.19677e-05
2.20001e-05
2.20329e-05
2.20667e-05
2.21036e-05
2.21483e-05
2.22096e-05
2.22999e-05
2.24281e-05
2.25843e-05
2.2725e-05
2.27895e-05
2.27467e-05
2.26219e-05
2.24695e-05
2.23292e-05
2.22117e-05
2.21098e-05
2.20112e-05
2.19055e-05
2.18071e-05
2.18002e-05
2.20736e-05
2.26398e-05
2.30223e-05
2.27345e-05
2.21184e-05
2.17757e-05
2.17321e-05
2.1691e-05
2.16949e-05
2.16838e-05
2.16545e-05
2.16126e-05
2.15612e-05
2.15024e-05
2.14373e-05
2.13664e-05
2.12903e-05
2.1209e-05
2.11227e-05
2.10311e-05
2.0934e-05
2.0831e-05
2.07218e-05
2.06057e-05
2.04821e-05
2.03504e-05
2.02098e-05
2.00598e-05
1.98994e-05
1.9728e-05
1.95447e-05
1.93489e-05
1.91398e-05
1.89167e-05
1.86788e-05
1.84255e-05
1.53016e-05
1.93534e-05
1.82166e-05
1.84659e-05
1.86999e-05
1.89191e-05
1.91242e-05
1.93159e-05
1.94952e-05
1.96627e-05
1.98193e-05
1.99658e-05
2.01029e-05
2.02315e-05
2.03523e-05
2.04661e-05
2.05736e-05
2.06758e-05
2.07732e-05
2.08665e-05
2.09557e-05
2.10408e-05
2.11209e-05
2.11949e-05
2.12619e-05
2.13215e-05
2.13747e-05
2.14239e-05
2.14722e-05
2.15219e-05
2.15831e-05
2.17158e-05
2.17482e-05
2.17693e-05
2.17858e-05
2.17994e-05
2.18134e-05
2.18305e-05
2.18518e-05
2.1877e-05
2.19053e-05
2.19358e-05
2.19675e-05
2.2e-05
2.2033e-05
2.2067e-05
2.21042e-05
2.21494e-05
2.22109e-05
2.23004e-05
2.24253e-05
2.25745e-05
2.27069e-05
2.27669e-05
2.27267e-05
2.26093e-05
2.24642e-05
2.23285e-05
2.22132e-05
2.21125e-05
2.20157e-05
2.19145e-05
2.18266e-05
2.18368e-05
2.21148e-05
2.26486e-05
2.29923e-05
2.27225e-05
2.21438e-05
2.18016e-05
2.17422e-05
2.16923e-05
2.1694e-05
2.16827e-05
2.16539e-05
2.16127e-05
2.15621e-05
2.15041e-05
2.14396e-05
2.13695e-05
2.12941e-05
2.12134e-05
2.11277e-05
2.10366e-05
2.09401e-05
2.08376e-05
2.07288e-05
2.06132e-05
2.049e-05
2.03587e-05
2.02186e-05
2.00689e-05
1.99089e-05
1.97379e-05
1.9555e-05
1.93595e-05
1.91507e-05
1.89279e-05
1.86902e-05
1.84372e-05
1.53158e-05
1.93487e-05
1.82126e-05
1.8462e-05
1.8696e-05
1.89153e-05
1.91205e-05
1.93123e-05
1.94917e-05
1.96593e-05
1.9816e-05
1.99625e-05
2.00998e-05
2.02284e-05
2.03494e-05
2.04633e-05
2.0571e-05
2.06733e-05
2.07709e-05
2.08642e-05
2.09536e-05
2.10387e-05
2.11189e-05
2.1193e-05
2.126e-05
2.13197e-05
2.1373e-05
2.14224e-05
2.14708e-05
2.15206e-05
2.15819e-05
2.17148e-05
2.17472e-05
2.17683e-05
2.17848e-05
2.17985e-05
2.18127e-05
2.18299e-05
2.18512e-05
2.18765e-05
2.19049e-05
2.19354e-05
2.19673e-05
2.19998e-05
2.20329e-05
2.20671e-05
2.21047e-05
2.21503e-05
2.2212e-05
2.23006e-05
2.24223e-05
2.25651e-05
2.26899e-05
2.27459e-05
2.27081e-05
2.25976e-05
2.24594e-05
2.23282e-05
2.22153e-05
2.21163e-05
2.20217e-05
2.19252e-05
2.18475e-05
2.18727e-05
2.21518e-05
2.26542e-05
2.29641e-05
2.27106e-05
2.21665e-05
2.18271e-05
2.17537e-05
2.16947e-05
2.16938e-05
2.16822e-05
2.16537e-05
2.1613e-05
2.15631e-05
2.15058e-05
2.14421e-05
2.13727e-05
2.12979e-05
2.12179e-05
2.11327e-05
2.10422e-05
2.09462e-05
2.08442e-05
2.07359e-05
2.06207e-05
2.0498e-05
2.03671e-05
2.02274e-05
2.00781e-05
1.99185e-05
1.97478e-05
1.95653e-05
1.93702e-05
1.91617e-05
1.89391e-05
1.87018e-05
1.84491e-05
1.53301e-05
1.93438e-05
1.82085e-05
1.84579e-05
1.8692e-05
1.89113e-05
1.91166e-05
1.93086e-05
1.9488e-05
1.96557e-05
1.98125e-05
1.99592e-05
2.00965e-05
2.02253e-05
2.03463e-05
2.04604e-05
2.05682e-05
2.06707e-05
2.07684e-05
2.08619e-05
2.09514e-05
2.10366e-05
2.11169e-05
2.11911e-05
2.12581e-05
2.13179e-05
2.13713e-05
2.14208e-05
2.14693e-05
2.15193e-05
2.15806e-05
2.17138e-05
2.17461e-05
2.17672e-05
2.17838e-05
2.17976e-05
2.18119e-05
2.18292e-05
2.18506e-05
2.1876e-05
2.19044e-05
2.1935e-05
2.19669e-05
2.19995e-05
2.20327e-05
2.20672e-05
2.21051e-05
2.2151e-05
2.2213e-05
2.23007e-05
2.24192e-05
2.2556e-05
2.26739e-05
2.27263e-05
2.26909e-05
2.25867e-05
2.24551e-05
2.23283e-05
2.2218e-05
2.2121e-05
2.20289e-05
2.19373e-05
2.18693e-05
2.19073e-05
2.21848e-05
2.26571e-05
2.29375e-05
2.2699e-05
2.21871e-05
2.18522e-05
2.17665e-05
2.16985e-05
2.16946e-05
2.16824e-05
2.1654e-05
2.16138e-05
2.15644e-05
2.15078e-05
2.14448e-05
2.1376e-05
2.13018e-05
2.12224e-05
2.11379e-05
2.10479e-05
2.09524e-05
2.0851e-05
2.07431e-05
2.06284e-05
2.05061e-05
2.03756e-05
2.02363e-05
2.00875e-05
1.99282e-05
1.97579e-05
1.95758e-05
1.9381e-05
1.91728e-05
1.89506e-05
1.87135e-05
1.8461e-05
1.53445e-05
1.93387e-05
1.82041e-05
1.84536e-05
1.86878e-05
1.89072e-05
1.91126e-05
1.93047e-05
1.94842e-05
1.9652e-05
1.98089e-05
1.99557e-05
2.00931e-05
2.0222e-05
2.03432e-05
2.04574e-05
2.05654e-05
2.0668e-05
2.07658e-05
2.08594e-05
2.09491e-05
2.10344e-05
2.11148e-05
2.1189e-05
2.12561e-05
2.13159e-05
2.13695e-05
2.14191e-05
2.14677e-05
2.15178e-05
2.15793e-05
2.17128e-05
2.1745e-05
2.17661e-05
2.17827e-05
2.17966e-05
2.1811e-05
2.18284e-05
2.185e-05
2.18754e-05
2.19039e-05
2.19345e-05
2.19664e-05
2.19991e-05
2.20324e-05
2.20671e-05
2.21054e-05
2.21517e-05
2.22137e-05
2.23005e-05
2.2416e-05
2.25472e-05
2.26589e-05
2.27082e-05
2.26749e-05
2.25767e-05
2.24512e-05
2.23289e-05
2.22214e-05
2.21264e-05
2.2037e-05
2.19504e-05
2.18915e-05
2.19401e-05
2.22139e-05
2.26576e-05
2.29123e-05
2.26879e-05