/*--------------------------------*- C++ -*----------------------------------*\
  =========                 |
  \\      /  F ield         | OpenFOAM: The Open Source CFD Toolbox
   \\    /   O peration     | Website:  https://openfoam.org
    \\  /    A nd           | Version:  9
     \\/     M anipulation  |
\*---------------------------------------------------------------------------*/
FoamFile
{
    format      ascii;
    class       volVectorField;
    location    "0.11";
    object      U;
}
// * * * * * * * * * * * * * * * * * * * * * * * * * * * * * * * * * * * * * //

dimensions      [0 1 -1 0 0 0 0];

internalField   nonuniform List<vector> 
20000
(
(1.49342e-05 0 0.00296554)
(3.80053e-06 0 0.00643784)
(4.35563e-06 0 0.00987231)
(5.61415e-06 0 0.0131481)
(6.57497e-06 0 0.0162302)
(6.86543e-06 0 0.0190783)
(6.26332e-06 0 0.0216469)
(4.66129e-06 0 0.0238924)
(2.05162e-06 0 0.0257748)
(-1.48189e-06 0 0.0272586)
(-5.7772e-06 0 0.028311)
(-1.06058e-05 0 0.0288974)
(-1.56913e-05 0 0.0289764)
(-2.07088e-05 0 0.0284949)
(-2.52527e-05 0 0.0273841)
(-2.88016e-05 0 0.0255583)
(-3.06954e-05 0 0.022918)
(-3.01852e-05 0 0.0193649)
(-2.66482e-05 0 0.0148368)
(-2.00467e-05 0 0.0093714)
(-1.15341e-05 0 0.00319647)
(-3.58414e-06 0 -0.00319175)
(8.02627e-07 0 -0.00904999)
(1.08369e-07 0 -0.0136104)
(-3.65994e-06 0 -0.0164666)
(-6.26674e-06 0 -0.0179181)
(-4.28095e-06 0 -0.0189795)
(4.05715e-06 0 -0.020993)
(1.86829e-05 0 -0.0250869)
(3.77763e-05 0 -0.0317383)
(5.69068e-05 0 -0.0412541)
(6.70984e-05 0 -0.0519955)
(6.35685e-05 0 -0.0610034)
(5.43903e-05 0 -0.0674194)
(5.27625e-05 0 -0.0720645)
(6.57114e-05 0 -0.0766256)
(9.19263e-05 0 -0.0824931)
(0.000126468 0 -0.0902302)
(0.000164563 0 -0.0997183)
(0.000202509 0 -0.110512)
(0.000237171 0 -0.122077)
(0.000265489 0 -0.133858)
(0.000284977 0 -0.145264)
(0.000296168 0 -0.155656)
(0.000308035 0 -0.164423)
(0.000348268 0 -0.171209)
(0.000484612 0 -0.176386)
(0.000882027 0 -0.18204)
(0.00197651 0 -0.19455)
(0.00498724 0 -0.232379)
(0.0125749 0 -0.343083)
(0.0236686 0 -0.598111)
(0.0104736 0 -0.888599)
(-0.0195363 0 -0.79599)
(-0.0191312 0 -0.499899)
(-0.00895581 0 -0.330415)
(-0.00396022 0 -0.262721)
(-0.00213948 0 -0.229718)
(-0.00153441 0 -0.199857)
(-0.0012051 0 -0.159333)
(-0.000541675 0 -0.0971067)
(0.00131037 0 0.00155396)
(0.00594589 0 0.158723)
(0.00970272 0 0.345924)
(0.0549277 0 0.0285451)
(0.0580885 0 -2.03869)
(-0.0788527 0 -0.698341)
(-0.0147734 0 0.329135)
(-0.00803415 0 0.238605)
(-0.0030596 0 0.0816031)
(-0.000882645 0 -0.0069792)
(-0.000139801 0 -0.0525618)
(7.83265e-05 0 -0.0769327)
(9.24171e-05 0 -0.0881481)
(5.25099e-05 0 -0.0913883)
(9.4673e-06 0 -0.089953)
(-2.19214e-05 0 -0.0858213)
(-4.05482e-05 0 -0.0801683)
(-4.87568e-05 0 -0.0737117)
(-4.91282e-05 0 -0.0669191)
(-4.41187e-05 0 -0.0601111)
(-3.57461e-05 0 -0.0535091)
(-2.55961e-05 0 -0.0472597)
(-1.48701e-05 0 -0.0414519)
(-4.41212e-06 0 -0.0361309)
(5.26489e-06 0 -0.0313106)
(1.3886e-05 0 -0.0269825)
(2.13698e-05 0 -0.0231238)
(2.77586e-05 0 -0.0197021)
(3.31303e-05 0 -0.0166802)
(3.75924e-05 0 -0.0140186)
(4.12571e-05 0 -0.0116777)
(4.42284e-05 0 -0.00961974)
(4.65997e-05 0 -0.00780939)
(4.84592e-05 0 -0.00621503)
(4.9897e-05 0 -0.00480961)
(5.09845e-05 0 -0.0035713)
(5.17945e-05 0 -0.00248183)
(5.27965e-05 0 -0.00152412)
(5.42245e-05 0 -0.000634371)
(-9.49371e-06 0 0.00308667)
(-3.17841e-05 0 0.0064651)
(-3.20114e-05 0 0.00987692)
(-2.99632e-05 0 0.0131492)
(-2.87123e-05 0 0.0162296)
(-2.8477e-05 0 0.0190761)
(-2.97748e-05 0 0.0216434)
(-3.29939e-05 0 0.0238875)
(-3.82987e-05 0 0.0257681)
(-4.56449e-05 0 0.0272497)
(-5.47673e-05 0 0.0282991)
(-6.51824e-05 0 0.0288816)
(-7.62168e-05 0 0.0289558)
(-8.70196e-05 0 0.0284684)
(-9.65328e-05 0 0.0273508)
(-0.000103461 0 0.025517)
(-0.000106291 0 0.0228675)
(-0.000103482 0 0.0193047)
(-9.39968e-05 0 0.0147677)
(-7.82649e-05 0 0.00929644)
(-5.92617e-05 0 0.00312134)
(-4.25814e-05 0 -0.00326019)
(-3.44222e-05 0 -0.00910789)
(-3.70176e-05 0 -0.0136602)
(-4.50756e-05 0 -0.0165171)
(-4.86305e-05 0 -0.0179795)
(-3.94889e-05 0 -0.0190578)
(-1.43993e-05 0 -0.0210891)
(2.54281e-05 0 -0.0251984)
(7.47458e-05 0 -0.031859)
(0.000123371 0 -0.041373)
(0.00015108 0 -0.0521052)
(0.000148053 0 -0.0611055)
(0.000134598 0 -0.0675271)
(0.000141001 0 -0.0721896)
(0.000182921 0 -0.0767712)
(0.000257331 0 -0.0826559)
(0.000353237 0 -0.0904055)
(0.000460059 0 -0.0999022)
(0.000569785 0 -0.110701)
(0.000676412 0 -0.122268)
(0.000775894 0 -0.134047)
(0.000869002 0 -0.145447)
(0.000969461 0 -0.155832)
(0.00112051 0 -0.164601)
(0.00142565 0 -0.171422)
(0.00210873 0 -0.176727)
(0.00364827 0 -0.182761)
(0.00706592 0 -0.196335)
(0.0144728 0 -0.236846)
(0.0292424 0 -0.351853)
(0.0465727 0 -0.601776)
(0.0188533 0 -0.86544)
(-0.0359301 0 -0.783275)
(-0.0398386 0 -0.507248)
(-0.0227009 0 -0.336836)
(-0.0123251 0 -0.265716)
(-0.00737824 0 -0.230992)
(-0.00506652 0 -0.200554)
(-0.00343885 0 -0.160104)
(-0.000949606 0 -0.0985826)
(0.00407779 0 -0.00126546)
(0.0175715 0 0.152168)
(0.0218921 0 0.329796)
(0.135487 0 -0.0304223)
(0.0687628 0 -1.85615)
(-0.182552 0 -0.694674)
(-0.0353766 0 0.30498)
(-0.0253194 0 0.229535)
(-0.00953755 0 0.0778547)
(-0.0035722 0 -0.00898166)
(-0.00115413 0 -0.053635)
(-0.000153836 0 -0.0775546)
(0.000166548 0 -0.0885745)
(0.000222527 0 -0.0917302)
(0.000194467 0 -0.090255)
(0.000155395 0 -0.0860989)
(0.000123718 0 -0.0804271)
(0.000105707 0 -0.0739536)
(0.00010136 0 -0.0671451)
(0.000108094 0 -0.0603216)
(0.000122609 0 -0.053704)
(0.000141744 0 -0.0474391)
(0.000162908 0 -0.0416159)
(0.00018424 0 -0.03628)
(0.000204544 0 -0.0314452)
(0.000223133 0 -0.0271034)
(0.000239673 0 -0.0232316)
(0.00025407 0 -0.0197975)
(0.000266382 0 -0.016764)
(0.000276751 0 -0.0140914)
(0.000285365 0 -0.0117402)
(0.000292418 0 -0.00967243)
(0.000298104 0 -0.00785294)
(0.00030263 0 -0.0062501)
(0.00030624 0 -0.00483693)
(0.000309047 0 -0.00359158)
(0.000311554 0 -0.00249589)
(0.000316087 0 -0.00153538)
(0.00031824 0 -0.000639744)
(-8.68805e-05 0 0.00313559)
(-0.000102992 0 0.00647288)
(-0.000102949 0 0.00986739)
(-0.000100743 0 0.0131386)
(-9.9027e-05 0 0.0162232)
(-9.85533e-05 0 0.019076)
(-0.000100218 0 0.0216506)
(-0.000104505 0 0.0239019)
(-0.000111572 0 0.0257893)
(-0.000121349 0 0.0272766)
(-0.000133482 0 0.0283303)
(-0.00014732 0 0.0289153)
(-0.000161939 0 0.0289901)
(-0.000176154 0 0.0285013)
(-0.000188502 0 0.0273799)
(-0.000197228 0 0.02554)
(-0.000200348 0 0.0228823)
(-0.000195939 0 0.0193097)
(-0.00018283 0 0.0147631)
(-0.00016181 0 0.00928548)
(-0.000136964 0 0.00311084)
(-0.000115575 0 -0.00326198)
(-0.000105152 0 -0.00909646)
(-0.000107761 0 -0.0136388)
(-0.000116017 0 -0.0164961)
(-0.00011652 0 -0.0179694)
(-9.82972e-05 0 -0.0190632)
(-5.77758e-05 0 -0.0211082)
(2.40946e-06 0 -0.0252257)
(7.47702e-05 0 -0.0318855)
(0.000146605 0 -0.0413839)
(0.000190402 0 -0.0520903)
(0.000193432 0 -0.0610724)
(0.000185509 0 -0.0674989)
(0.000207854 0 -0.0721855)
(0.00028097 0 -0.076795)
(0.000400546 0 -0.0827007)
(0.000552173 0 -0.0904622)
(0.000722305 0 -0.0999633)
(0.000901191 0 -0.110761)
(0.00108271 0 -0.122324)
(0.00126546 0 -0.134099)
(0.0014584 0 -0.145502)
(0.00169421 0 -0.155917)
(0.00205474 0 -0.164783)
(0.00271556 0 -0.171843)
(0.00402351 0 -0.177678)
(0.00664875 0 -0.18485)
(0.0118484 0 -0.200833)
(0.0217835 0 -0.245818)
(0.0390704 0 -0.364705)
(0.0556502 0 -0.6003)
(0.0211888 0 -0.825925)
(-0.0409934 0 -0.758159)
(-0.049726 0 -0.514565)
(-0.0319224 0 -0.347685)
(-0.0194046 0 -0.271979)
(-0.0124658 0 -0.233956)
(-0.00865318 0 -0.202136)
(-0.00566699 0 -0.161796)
(-0.00141617 0 -0.10191)
(0.00553228 0 -0.00753251)
(0.0267229 0 0.139045)
(0.0254036 0 0.300785)
(0.181837 0 -0.0945186)
(0.0734251 0 -1.68086)
(-0.223428 0 -0.694655)
(-0.0457318 0 0.261181)
(-0.037536 0 0.212659)
(-0.0140814 0 0.0704517)
(-0.00606578 0 -0.0127989)
(-0.00226376 0 -0.0553614)
(-0.000479269 0 -0.0781843)
(0.000220415 0 -0.0887187)
(0.000454592 0 -0.0916844)
(0.000504258 0 -0.0901447)
(0.000494583 0 -0.0859833)
(0.00047016 0 -0.0803286)
(0.000451876 0 -0.073879)
(0.000446177 0 -0.0670939)
(0.000452619 0 -0.0602907)
(0.000468345 0 -0.0536892)
(0.000490058 0 -0.0474359)
(0.000514898 0 -0.0416204)
(0.000540676 0 -0.0362891)
(0.000565812 0 -0.0314565)
(0.000589244 0 -0.0271153)
(0.000610347 0 -0.0232431)
(0.000628852 0 -0.0198081)
(0.000644743 0 -0.0167732)
(0.000658162 0 -0.0140993)
(0.000669324 0 -0.0117468)
(0.000678477 0 -0.00967789)
(0.000685877 0 -0.00785749)
(0.000691804 0 -0.00625409)
(0.000696625 0 -0.00484091)
(0.000700542 0 -0.00359623)
(0.000704379 0 -0.00250253)
(0.000712399 0 -0.0015468)
(0.000711865 0 -0.000654172)
(-0.0001865 0 0.00316668)
(-0.000198616 0 0.0064921)
(-0.000202503 0 0.00987199)
(-0.000202903 0 0.0131376)
(-0.000202358 0 0.0162241)
(-0.000202719 0 0.019083)
(-0.000205382 0 0.0216652)
(-0.000210954 0 0.0239244)
(-0.000219633 0 0.0258193)
(-0.000231347 0 0.0273129)
(-0.000245693 0 0.0283712)
(-0.000261924 0 0.0289588)
(-0.00027897 0 0.0290336)
(-0.000295447 0 0.0285423)
(-0.000309638 0 0.0274156)
(-0.000319493 0 0.0255673)
(-0.00032271 0 0.0228986)
(-0.000317079 0 0.0193133)
(-0.000301268 0 0.0147546)
(-0.000276166 0 0.00926929)
(-0.000246384 0 0.00309533)
(-0.000220185 0 -0.00326669)
(-0.000205961 0 -0.00908462)
(-0.000205993 0 -0.013614)
(-0.000212019 0 -0.0164706)
(-0.000208643 0 -0.0179563)
(-0.000182879 0 -0.0190687)
(-0.000130291 0 -0.0211311)
(-5.40748e-05 0 -0.0252594)
(3.70776e-05 0 -0.031918)
(0.000129709 0 -0.0413968)
(0.000190799 0 -0.0520708)
(0.000204844 0 -0.06103)
(0.000208278 0 -0.0674622)
(0.000249769 0 -0.0721787)
(0.000353639 0 -0.0768247)
(0.000515494 0 -0.0827597)
(0.000719216 0 -0.0905398)
(0.000949749 0 -0.10005)
(0.00119692 0 -0.110852)
(0.00145595 0 -0.122415)
(0.00172975 0 -0.134195)
(0.00203679 0 -0.145623)
(0.0024281 0 -0.156111)
(0.00301777 0 -0.165156)
(0.00403257 0 -0.172605)
(0.00588918 0 -0.179227)
(0.00933475 0 -0.187925)
(0.0156745 0 -0.206756)
(0.0268896 0 -0.256147)
(0.0445478 0 -0.376721)
(0.0579137 0 -0.59477)
(0.0209678 0 -0.786738)
(-0.0411371 0 -0.73082)
(-0.0539223 0 -0.518243)
(-0.0379672 0 -0.358447)
(-0.0249246 0 -0.279413)
(-0.0169101 0 -0.238065)
(-0.0120741 0 -0.20468)
(-0.00806798 0 -0.1645)
(-0.00240539 0 -0.106714)
(0.00489109 0 -0.0156782)
(0.0309049 0 0.123459)
(0.0237846 0 0.263291)
(0.194086 0 -0.150671)
(0.0723297 0 -1.51125)
(-0.217008 0 -0.686725)
(-0.0503749 0 0.211456)
(-0.0424573 0 0.192842)
(-0.0157551 0 0.0607808)
(-0.00746465 0 -0.0181548)
(-0.00285626 0 -0.0579981)
(-0.000547159 0 -0.0792901)
(0.000428782 0 -0.089086)
(0.000822024 0 -0.0917175)
(0.000954229 0 -0.0900405)
(0.000980016 0 -0.0858385)
(0.000969827 0 -0.0801864)
(0.000955772 0 -0.0737568)
(0.000949997 0 -0.0669974)
(0.000954716 0 -0.0602193)
(0.000968662 0 -0.0536397)
(0.000989357 0 -0.0474037)
(0.00101417 0 -0.0416009)
(0.00104073 0 -0.0362784)
(0.00106713 0 -0.0314518)
(0.00109202 0 -0.0271143)
(0.0011146 0 -0.0232442)
(0.00113451 0 -0.0198104)
(0.00115171 0 -0.016776)
(0.0011663 0 -0.0141021)
(0.0011785 0 -0.0117495)
(0.00118855 0 -0.00968051)
(0.00119673 0 -0.00786004)
(0.00120333 0 -0.00625683)
(0.00120876 0 -0.00484437)
(0.00121326 0 -0.00360124)
(0.00121796 0 -0.00251025)
(0.00122844 0 -0.00155832)
(0.00122315 0 -0.000664643)
(-0.000320808 0 0.00319013)
(-0.000330352 0 0.00651687)
(-0.000337559 0 0.00988505)
(-0.000340771 0 0.0131416)
(-0.000342153 0 0.0162265)
(-0.000344047 0 0.0190891)
(-0.00034808 0 0.0216772)
(-0.000354985 0 0.0239431)
(-0.000365047 0 0.0258442)
(-0.000378231 0 0.0273431)
(-0.000394135 0 0.028405)
(-0.000411975 0 0.0289939)
(-0.000430596 0 0.0290676)
(-0.00044848 0 0.0285723)
(-0.000463733 0 0.0274385)
(-0.00047409 0 0.0255802)
(-0.000477016 0 0.0228985)
(-0.000470091 0 0.0192988)
(-0.00045186 0 0.0147266)
(-0.000423246 0 0.00923275)
(-0.000389101 0 0.00305952)
(-0.000358181 0 -0.00329113)
(-0.000339406 0 -0.00909197)
(-0.000335368 0 -0.0136087)
(-0.000337633 0 -0.0164664)
(-0.000329879 0 -0.0179681)
(-0.000297739 0 -0.019104)
(-0.000235591 0 -0.0211887)
(-0.000146437 0 -0.0253316)
(-3.96707e-05 0 -0.031991)
(7.13644e-05 0 -0.0414508)
(0.000150247 0 -0.0520924)
(0.000179228 0 -0.0610305)
(0.000198493 0 -0.0674725)
(0.000261251 0 -0.0722253)
(0.000395039 0 -0.0769151)
(0.000596479 0 -0.0828869)
(0.000849056 0 -0.0906927)
(0.00113717 0 -0.10022)
(0.00145097 0 -0.111033)
(0.00178773 0 -0.122609)
(0.00215507 0 -0.13441)
(0.00258039 0 -0.145886)
(0.00312974 0 -0.156485)
(0.00394009 0 -0.165768)
(0.00526871 0 -0.173691)
(0.00756315 0 -0.1812)
(0.0115834 0 -0.191494)
(0.0185937 0 -0.21304)
(0.0302667 0 -0.266041)
(0.0469444 0 -0.386347)
(0.0561048 0 -0.587072)
(0.0192706 0 -0.752121)
(-0.0388617 0 -0.705279)
(-0.0545809 0 -0.51888)
(-0.0417762 0 -0.367598)
(-0.0292426 0 -0.286765)
(-0.0208172 0 -0.242695)
(-0.0154092 0 -0.207916)
(-0.0108521 0 -0.167903)
(-0.00418097 0 -0.112161)
(0.00226822 0 -0.0243656)
(0.0298813 0 0.108534)
(0.0211087 0 0.225339)
(0.182273 0 -0.191856)
(0.0661691 0 -1.3541)
(-0.190915 0 -0.665398)
(-0.0524496 0 0.16765)
(-0.0420647 0 0.173803)
(-0.0150023 0 0.0508353)
(-0.00750396 0 -0.0240683)
(-0.00260312 0 -0.0611719)
(-9.5893e-05 0 -0.08084)
(0.000986895 0 -0.0897924)
(0.00146 0 -0.092)
(0.00163435 0 -0.0901254)
(0.00167628 0 -0.0858395)
(0.00166981 0 -0.0801598)
(0.00165253 0 -0.0737298)
(0.0016401 0 -0.066982)
(0.00163715 0 -0.060219)
(0.00164398 0 -0.0536534)
(0.00165879 0 -0.0474284)
(0.00167901 0 -0.0416332)
(0.00170207 0 -0.036315)
(0.00172579 0 -0.03149)
(0.00174863 0 -0.0271523)
(0.00176966 0 -0.0232807)
(0.00178844 0 -0.0198444)
(0.00180483 0 -0.0168071)
(0.00181887 0 -0.01413)
(0.00183071 0 -0.0117741)
(0.00184056 0 -0.00970183)
(0.00184866 0 -0.00787839)
(0.00185529 0 -0.00627267)
(0.00186085 0 -0.00485845)
(0.00186551 0 -0.00361458)
(0.00187061 0 -0.00252367)
(0.00188284 0 -0.00157131)
(0.00187352 0 -0.000672923)
(-0.000499126 0 0.00320873)
(-0.000505734 0 0.00654077)
(-0.000513425 0 0.00990201)
(-0.000517714 0 0.0131502)
(-0.000520303 0 0.0162323)
(-0.000523339 0 0.0190973)
(-0.000528382 0 0.0216906)
(-0.000536231 0 0.0239625)
(-0.000547226 0 0.0258693)
(-0.000561349 0 0.0273728)
(-0.000578201 0 0.0284377)
(-0.000596974 0 0.0290273)
(-0.000616459 0 0.0290991)
(-0.000635045 0 0.0285988)
(-0.000650711 0 0.0274569)
(-0.000661044 0 0.0255872)
(-0.000663361 0 0.0228913)
(-0.00065513 0 0.0192758)
(-0.000634866 0 0.014689)
(-0.000603557 0 0.00918572)
(-0.000566165 0 0.00301271)
(-0.000531553 0 -0.0033269)
(-0.000508696 0 -0.00911093)
(-0.000500209 0 -0.0136155)
(-0.000497708 0 -0.0164752)
(-0.000484669 0 -0.0179945)
(-0.000446053 0 -0.0191565)
(-0.000375369 0 -0.0212666)
(-0.000275272 0 -0.0254266)
(-0.000155608 0 -0.0320887)
(-2.89902e-05 0 -0.0415305)
(6.68255e-05 0 -0.0521404)
(0.000112868 0 -0.061059)
(0.000151122 0 -0.0675138)
(0.000236984 0 -0.0723074)
(0.000400235 0 -0.0770465)
(0.0006389 0 -0.0830611)
(0.000936928 0 -0.0908989)
(0.00127893 0 -0.10045)
(0.00165595 0 -0.111283)
(0.00206747 0 -0.12288)
(0.00252557 0 -0.134717)
(0.00306505 0 -0.146264)
(0.00376304 0 -0.157006)
(0.0047709 0 -0.16657)
(0.0063608 0 -0.175015)
(0.00898619 0 -0.183451)
(0.0133803 0 -0.195322)
(0.0206995 0 -0.219369)
(0.0322171 0 -0.275225)
(0.0470797 0 -0.393839)
(0.0520823 0 -0.578066)
(0.0168512 0 -0.720981)
(-0.0357262 0 -0.681367)
(-0.0531839 0 -0.517339)
(-0.0439221 0 -0.37512)
(-0.0326112 0 -0.293666)
(-0.0243139 0 -0.247427)
(-0.0187126 0 -0.211428)
(-0.0140043 0 -0.171518)
(-0.00682153 0 -0.11747)
(-0.00178119 0 -0.0327298)
(0.0254112 0 0.0950551)
(0.0185089 0 0.190845)
(0.16173 0 -0.223306)
(0.0582056 0 -1.21778)
(-0.163688 0 -0.637667)
(-0.0523632 0 0.131546)
(-0.0387655 0 0.156124)
(-0.0126153 0 0.041573)
(-0.00635551 0 -0.0297291)
(-0.00146325 0 -0.0643121)
(0.000953139 0 -0.0824747)
(0.00198766 0 -0.0905969)
(0.0024523 0 -0.0923646)
(0.00261266 0 -0.0902721)
(0.0026371 0 -0.0858846)
(0.00261195 0 -0.0801645)
(0.00257519 0 -0.0737257)
(0.00254374 0 -0.0669839)
(0.00252357 0 -0.0602323)
(0.00251557 0 -0.0536781)
(0.0025179 0 -0.0474625)
(0.00252773 0 -0.0416736)
(0.00254215 0 -0.036359)
(0.00255873 0 -0.0315352)
(0.00257571 0 -0.0271966)
(0.002592 0 -0.0233228)
(0.00260696 0 -0.0198834)
(0.00262028 0 -0.0168425)
(0.00263188 0 -0.0141615)
(0.00264179 0 -0.0118017)
(0.00265015 0 -0.00972578)
(0.00265713 0 -0.00789892)
(0.00266296 0 -0.00629033)
(0.00266798 0 -0.00487407)
(0.00267228 0 -0.00362912)
(0.00267723 0 -0.00253752)
(0.00269058 0 -0.00158329)
(0.00267823 0 -0.0006797)
(-0.000718639 0 0.00322177)
(-0.000722433 0 0.00655933)
(-0.000728935 0 0.00991754)
(-0.000732856 0 0.0131604)
(-0.000735689 0 0.0162406)
(-0.000739139 0 0.0191084)
(-0.000744599 0 0.0217069)
(-0.000752888 0 0.0239848)
(-0.000764363 0 0.0258975)
(-0.000778997 0 0.0274058)
(-0.00079637 0 0.0284736)
(-0.000815643 0 0.0290639)
(-0.000835554 0 0.0291336)
(-0.00085442 0 0.028628)
(-0.000870137 0 0.0274774)
(-0.000880198 0 0.0255956)
(-0.000881845 0 0.0228847)
(-0.000872508 0 0.0192526)
(-0.000850728 0 0.0146504)
(-0.000817567 0 0.00913716)
(-0.000778018 0 0.00296379)
(-0.000740809 0 -0.00336542)
(-0.000714611 0 -0.00913335)
(-0.000701795 0 -0.0136262)
(-0.000694034 0 -0.0164883)
(-0.000674983 0 -0.0180254)
(-0.000629498 0 -0.0192142)
(-0.000550699 0 -0.0213506)
(-0.000441029 0 -0.025529)
(-0.000310596 0 -0.0321944)
(-0.000170852 0 -0.0416191)
(-5.94428e-05 0 -0.0521981)
(4.25076e-06 0 -0.0610983)
(6.29755e-05 0 -0.0675676)
(0.000172854 0 -0.0724049)
(0.00036492 0 -0.0771973)
(0.000638474 0 -0.0832594)
(0.000978325 0 -0.0911344)
(0.00136979 0 -0.100714)
(0.00180506 0 -0.111574)
(0.00228575 0 -0.123203)
(0.00282754 0 -0.135089)
(0.00347065 0 -0.146723)
(0.00429931 0 -0.157633)
(0.00547193 0 -0.167508)
(0.007263 0 -0.176507)
(0.0101131 0 -0.185886)
(0.0147024 0 -0.199293)
(0.0220389 0 -0.225618)
(0.0329837 0 -0.283626)
(0.0457192 0 -0.399445)
(0.0472444 0 -0.568145)
(0.0142654 0 -0.692562)
(-0.0326888 0 -0.658812)
(-0.0509302 0 -0.514087)
(-0.0449442 0 -0.381086)
(-0.0352161 0 -0.299957)
(-0.0274506 0 -0.252024)
(-0.0219722 0 -0.214943)
(-0.0174275 0 -0.175079)
(-0.0101942 0 -0.122441)
(-0.00675209 0 -0.0404055)
(0.0190104 0 0.0825025)
(0.0153812 0 0.159249)
(0.140547 0 -0.249114)
(0.0502137 0 -1.10459)
(-0.140215 0 -0.609454)
(-0.0497728 0 0.0999729)
(-0.0335784 0 0.139282)
(-0.00905313 0 0.0330829)
(-0.00421128 0 -0.0348172)
(0.000486232 0 -0.0671223)
(0.00256782 0 -0.0839561)
(0.00344391 0 -0.091308)
(0.0038204 0 -0.092662)
(0.00391005 0 -0.0903625)
(0.00387948 0 -0.0858785)
(0.00380891 0 -0.0801217)
(0.00373298 0 -0.0736778)
(0.00366796 0 -0.0669455)
(0.00361955 0 -0.0602086)
(0.00358792 0 -0.0536694)
(0.00357047 0 -0.0474664)
(0.00356369 0 -0.0416872)
(0.00356416 0 -0.0363792)
(0.00356908 0 -0.0315592)
(0.0035764 0 -0.0272224)
(0.0035847 0 -0.0233487)
(0.0035931 0 -0.0199082)
(0.00360104 0 -0.0168655)
(0.00360825 0 -0.0141824)
(0.00361461 0 -0.0118203)
(0.00362013 0 -0.00974208)
(0.00362488 0 -0.00791318)
(0.003629 0 -0.00630302)
(0.00363279 0 -0.00488594)
(0.00363616 0 -0.00364091)
(0.00364048 0 -0.0025492)
(0.00365449 0 -0.0015934)
(0.00363962 0 -0.000685494)
(-0.000973547 0 0.00323061)
(-0.000975465 0 0.00657237)
(-0.000980762 0 0.00992957)
(-0.000984034 0 0.0131696)
(-0.000986748 0 0.0162494)
(-0.000990255 0 0.0191202)
(-0.000995795 0 0.0217243)
(-0.0010042 0 0.0240085)
(-0.00101586 0 0.0259273)
(-0.00103073 0 0.0274406)
(-0.00104838 0 0.0285116)
(-0.00106792 0 0.0291027)
(-0.00108805 0 0.0291701)
(-0.00110702 0 0.0286591)
(-0.00112266 0 0.0274996)
(-0.00113242 0 0.0256053)
(-0.00113348 0 0.022879)
(-0.00112327 0 0.01923)
(-0.00110038 0 0.0146121)
(-0.00106591 0 0.00908867)
(-0.00102482 0 0.00291459)
(-0.000985612 0 -0.00340488)
(-0.00095653 0 -0.00915767)
(-0.000939611 0 -0.0136398)
(-0.000926576 0 -0.0165046)
(-0.0009014 0 -0.0180598)
(-0.00084911 0 -0.0192753)
(-0.000762729 0 -0.0214383)
(-0.000644601 0 -0.0256352)
(-0.00050493 0 -0.0323043)
(-0.000353777 0 -0.0417124)
(-0.000227988 0 -0.0522616)
(-0.000146962 0 -0.0611451)
(-6.77169e-05 0 -0.0676308)
(6.58468e-05 0 -0.0725138)
(0.000285367 0 -0.0773625)
(0.000591129 0 -0.083476)
(0.000968899 0 -0.0913924)
(0.00140488 0 -0.101007)
(0.00189237 0 -0.111899)
(0.00243472 0 -0.123567)
(0.00305008 0 -0.135512)
(0.00378191 0 -0.147248)
(0.00471768 0 -0.158343)
(0.00601656 0 -0.168547)
(0.0079456 0 -0.178111)
(0.0109194 0 -0.188419)
(0.0155512 0 -0.203281)
(0.0226922 0 -0.231616)
(0.0328333 0 -0.291095)
(0.0434681 0 -0.403332)
(0.0423249 0 -0.557749)
(0.0117491 0 -0.666792)
(-0.0301337 0 -0.637783)
(-0.0485382 0 -0.509537)
(-0.0453175 0 -0.385528)
(-0.0372618 0 -0.305476)
(-0.03028 0 -0.256307)
(-0.0251744 0 -0.218299)
(-0.0210629 0 -0.178461)
(-0.0141217 0 -0.127017)
(-0.0122777 0 -0.0475058)
(0.0115939 0 0.070724)
(0.0114121 0 0.129517)
(0.121232 0 -0.270248)
(0.0426607 0 -1.01064)
(-0.120441 0 -0.582871)
(-0.0449887 0 0.0710751)
(-0.0269671 0 0.123223)
(-0.00456871 0 0.0253872)
(-0.00119882 0 -0.0391871)
(0.00314588 0 -0.0695341)
(0.00469304 0 -0.0851869)
(0.00533493 0 -0.0918414)
(0.00555209 0 -0.0928285)
(0.00551923 0 -0.0903496)
(0.00539782 0 -0.0857865)
(0.00525526 0 -0.0800056)
(0.00512054 0 -0.0735661)
(0.00500746 0 -0.0668512)
(0.00491968 0 -0.0601356)
(0.00485552 0 -0.053617)
(0.00481098 0 -0.047432)
(0.00478152 0 -0.0416672)
(0.00476299 0 -0.0363699)
(0.00475203 0 -0.0315576)
(0.00474613 0 -0.0272258)
(0.00474347 0 -0.0233552)
(0.00474279 0 -0.0199163)
(0.00474325 0 -0.0168742)
(0.00474433 0 -0.0141911)
(0.00474569 0 -0.0118286)
(0.00474719 0 -0.00974985)
(0.00474876 0 -0.00792052)
(0.00475042 0 -0.00631029)
(0.00475237 0 -0.00489371)
(0.00475438 0 -0.00364961)
(0.00475775 0 -0.00255851)
(0.00477207 0 -0.00160177)
(0.00475496 0 -0.000690466)
(-0.00126137 0 0.00323724)
(-0.00126234 0 0.00658218)
(-0.00126712 0 0.00993916)
(-0.00127012 0 0.0131777)
(-0.00127287 0 0.0162579)
(-0.00127649 0 0.0191319)
(-0.00128211 0 0.0217415)
(-0.00129057 0 0.0240321)
(-0.0013023 0 0.0259571)
(-0.00131729 0 0.0274755)
(-0.00133507 0 0.0285497)
(-0.00135476 0 0.0291415)
(-0.00137499 0 0.0292066)
(-0.00139398 0 0.02869)
(-0.00140952 0 0.0275213)
(-0.00141898 0 0.0256143)
(-0.00141953 0 0.0228724)
(-0.0014086 0 0.0192062)
(-0.00138478 0 0.0145726)
(-0.00134922 0 0.0090389)
(-0.00130682 0 0.00286385)
(-0.0012658 0 -0.00344654)
(-0.00123406 0 -0.00918522)
(-0.00121332 0 -0.0136577)
(-0.00119537 0 -0.0165261)
(-0.00116448 0 -0.0180997)
(-0.00110593 0 -0.0193423)
(-0.00101272 0 -0.021532)
(-0.0008871 0 -0.0257476)
(-0.000739291 0 -0.0324204)
(-0.000577929 0 -0.0418128)
(-0.000438858 0 -0.0523339)
(-0.000341384 0 -0.0612029)
(-0.000242454 0 -0.0677069)
(-8.65299e-05 0 -0.0726376)
(0.000158327 0 -0.0775451)
(0.000493217 0 -0.0837129)
(0.000904662 0 -0.0916746)
(0.00137975 0 -0.101327)
(0.00191266 0 -0.112257)
(0.00250785 0 -0.123971)
(0.0031848 0 -0.135982)
(0.0039881 0 -0.147831)
(0.00500515 0 -0.159119)
(0.0063909 0 -0.169657)
(0.00839838 0 -0.179777)
(0.0114093 0 -0.190972)
(0.0159676 0 -0.20717)
(0.0227741 0 -0.237216)
(0.0320046 0 -0.297562)
(0.0406989 0 -0.405756)
(0.037577 0 -0.54729)
(0.00934166 0 -0.643582)
(-0.0281202 0 -0.618393)
(-0.0463147 0 -0.504097)
(-0.0453594 0 -0.388568)
(-0.0389346 0 -0.310122)
(-0.032875 0 -0.260132)
(-0.0283217 0 -0.221357)
(-0.0248385 0 -0.181515)
(-0.018541 0 -0.130979)
(-0.0179097 0 -0.0537265)
(0.00391162 0 0.0595935)
(0.00679261 0 0.10115)
(0.104072 0 -0.287571)
(0.035733 0 -0.931688)
(-0.10366 0 -0.558798)
(-0.0388521 0 0.044222)
(-0.0194373 0 0.108182)
(0.000592386 0 0.0185557)
(0.0025063 0 -0.0426147)
(0.00636154 0 -0.0714496)
(0.00728414 0 -0.0860868)
(0.00762328 0 -0.0921412)
(0.00761753 0 -0.0928249)
(0.007419 0 -0.0902055)
(0.00717574 0 -0.0855895)
(0.00693759 0 -0.079803)
(0.00672664 0 -0.0733815)
(0.00655238 0 -0.0666943)
(0.00641493 0 -0.0600086)
(0.00630995 0 -0.053518)
(0.00623157 0 -0.047357)
(0.0061739 0 -0.0416118)
(0.00613183 0 -0.0363299)
(0.00610124 0 -0.0315293)
(0.00607902 0 -0.0272061)
(0.0060628 0 -0.0233416)
(0.0060509 0 -0.0199072)
(0.00604211 0 -0.0168681)
(0.0060356 0 -0.0141871)
(0.0060308 0 -0.0118262)
(0.00602734 0 -0.00974876)
(0.00602499 0 -0.00792068)
(0.00602364 0 -0.0063119)
(0.00602333 0 -0.00489713)
(0.00602366 0 -0.00365499)
(0.00602587 0 -0.00256527)
(0.00604022 0 -0.00160832)
(0.00602114 0 -0.000694605)
(-0.00158232 0 0.00324318)
(-0.00158293 0 0.00659102)
(-0.0015878 0 0.0099482)
(-0.00159099 0 0.013186)
(-0.0015941 0 0.0162668)
(-0.00159809 0 0.0191439)
(-0.00160397 0 0.0217587)
(-0.0016126 0 0.0240557)
(-0.00162447 0 0.0259869)
(-0.00163957 0 0.0275103)
(-0.00165747 0 0.0285877)
(-0.00167725 0 0.02918)
(-0.00169754 0 0.0292427)
(-0.00171651 0 0.0287202)
(-0.00173191 0 0.0275421)
(-0.00174108 0 0.0256222)
(-0.00174116 0 0.0228643)
(-0.00172955 0 0.0191808)
(-0.00170486 0 0.0145313)
(-0.00166825 0 0.00898704)
(-0.00162454 0 0.00281067)
(-0.00158175 0 -0.00349133)
(-0.00154747 0 -0.00921686)
(-0.00152325 0 -0.0136808)
(-0.00150091 0 -0.0165536)
(-0.00146502 0 -0.018146)
(-0.00140103 0 -0.0194159)
(-0.00130187 0 -0.0216326)
(-0.0011697 0 -0.0258671)
(-0.00101467 0 -0.0325443)
(-0.000844085 0 -0.041922)
(-0.000692803 0 -0.0524168)
(-0.00058007 0 -0.0612734)
(-0.000462915 0 -0.0677978)
(-0.000286516 0 -0.0727781)
(-1.89566e-05 0 -0.0777461)
(0.000341504 0 -0.0839708)
(0.000782068 0 -0.0919808)
(0.00129047 0 -0.101676)
(0.00186144 0 -0.112647)
(0.00249994 0 -0.124411)
(0.00322564 0 -0.136494)
(0.00408252 0 -0.148459)
(0.00515538 0 -0.159943)
(0.00659172 0 -0.170809)
(0.00862672 0 -0.181461)
(0.011607 0 -0.193482)
(0.0160093 0 -0.210883)
(0.0223959 0 -0.242352)
(0.0306784 0 -0.303071)
(0.0376279 0 -0.407005)
(0.0330653 0 -0.53701)
(0.00702984 0 -0.622651)
(-0.0266045 0 -0.600552)
(-0.0443653 0 -0.498073)
(-0.0452501 0 -0.390391)
(-0.0403608 0 -0.313882)
(-0.0352867 0 -0.263402)
(-0.0313943 0 -0.22399)
(-0.0286308 0 -0.184085)
(-0.0231541 0 -0.134158)
(-0.0235424 0 -0.0587198)
(-0.00372243 0 0.0489435)
(0.00212551 0 0.0735778)
(0.0890118 0 -0.302172)
(0.0296633 0 -0.864835)
(-0.0893551 0 -0.537778)
(-0.032194 0 0.0189119)
(-0.0115448 0 0.0942327)
(0.00625761 0 0.0126872)
(0.00680085 0 -0.0451612)
(0.00990393 0 -0.0727921)
(0.0102377 0 -0.0865858)
(0.0102417 0 -0.0921579)
(0.00997155 0 -0.0926132)
(0.00957772 0 -0.0899007)
(0.009189 0 -0.0852644)
(0.00883685 0 -0.0794957)
(0.00853585 0 -0.0731094)
(0.00828969 0 -0.0664632)
(0.00809392 0 -0.0598181)
(0.00794109 0 -0.0533642)
(0.00782315 0 -0.0472346)
(0.00773263 0 -0.0415153)
(0.00766323 0 -0.0362542)
(0.00760993 0 -0.0314698)
(0.00756883 0 -0.0271592)
(0.00753695 0 -0.0233045)
(0.0075121 0 -0.0198775)
(0.00749265 0 -0.0168443)
(0.0074774 0 -0.014168)
(0.00746551 0 -0.011811)
(0.00745636 0 -0.00973696)
(0.00744954 0 -0.00791209)
(0.00744475 0 -0.00630659)
(0.00744188 0 -0.0048952)
(0.00744035 0 -0.00365632)
(0.00744126 0 -0.00256905)
(0.00745546 0 -0.00161289)
(0.00743468 0 -0.000697878)
(-0.00193713 0 0.00324928)
(-0.00193774 0 0.00660024)
(-0.00194312 0 0.0099581)
(-0.00194687 0 0.0131956)
(-0.00195067 0 0.0162771)
(-0.00195532 0 0.0191571)
(-0.00196172 0 0.0217768)
(-0.00197075 0 0.0240798)
(-0.00198289 0 0.026017)
(-0.0019982 0 0.0275454)
(-0.00201626 0 0.0286258)
(-0.00203616 0 0.0292187)
(-0.00205651 0 0.0292788)
(-0.00207547 0 0.0287503)
(-0.00209074 0 0.0275625)
(-0.00209962 0 0.0256293)
(-0.00209923 0 0.0228552)
(-0.00208695 0 0.0191541)
(-0.0020614 0 0.0144883)
(-0.00202372 0 0.00893338)
(-0.00197866 0 0.00275526)
(-0.00193409 0 -0.00353896)
(-0.00189738 0 -0.00925213)
(-0.00187 0 -0.0137082)
(-0.00184387 0 -0.0165859)
(-0.00180379 0 -0.0181974)
(-0.0017353 0 -0.0194949)
(-0.0016312 0 -0.021739)
(-0.00149345 0 -0.0259929)
(-0.00133208 0 -0.0326749)
(-0.00115324 0 -0.0420391)
(-0.00099084 0 -0.0525094)
(-0.000864195 0 -0.0613556)
(-0.000730624 0 -0.0679018)
(-0.000536049 0 -0.072933)
(-0.000248792 0 -0.0779631)
(0.000133363 0 -0.0842466)
(0.000598242 0 -0.092307)
(0.00113392 0 -0.102047)
(0.00173536 0 -0.113063)
(0.00240741 0 -0.124879)
(0.00316902 0 -0.137037)
(0.00406224 0 -0.149118)
(0.00516752 0 -0.160795)
(0.00662295 0 -0.171975)
(0.00864425 0 -0.183127)
(0.0115429 0 -0.195908)
(0.0157329 0 -0.214377)
(0.0216515 0 -0.24701)
(0.028993 0 -0.307708)
(0.0344026 0 -0.407316)
(0.0288133 0 -0.527018)
(0.00480159 0 -0.603671)
(-0.0255313 0 -0.584087)
(-0.0427262 0 -0.491667)
(-0.0450908 0 -0.391181)
(-0.041611 0 -0.316798)
(-0.0375315 0 -0.266084)
(-0.0343486 0 -0.226136)
(-0.0323259 0 -0.186108)
(-0.0277305 0 -0.136587)
(-0.0289416 0 -0.0627915)
(-0.0112225 0 0.0385338)
(-0.00226646 0 0.0466471)
(0.076193 0 -0.314878)
(0.0246781 0 -0.808065)
(-0.0770641 0 -0.520032)
(-0.0255526 0 -0.00540801)
(-0.00366457 0 0.0811758)
(0.0120885 0 0.00789415)
(0.0114882 0 -0.0469801)
(0.0137148 0 -0.0735668)
(0.0134726 0 -0.0866615)
(0.0131145 0 -0.0918639)
(0.0125588 0 -0.0921653)
(0.0119541 0 -0.0894108)
(0.0114054 0 -0.0847909)
(0.0109276 0 -0.0790665)
(0.0105274 0 -0.0727352)
(0.0102018 0 -0.0661457)
(0.00994147 0 -0.0595537)
(0.00973565 0 -0.0531468)
(0.00957395 0 -0.0470572)
(0.00944717 0 -0.041371)
(0.00934769 0 -0.0361367)
(0.00926942 0 -0.0313739)
(0.00920759 0 -0.0270807)
(0.00915853 0 -0.0232397)
(0.00911948 0 -0.0198239)
(0.00908833 0 -0.0167999)
(0.00906352 0 -0.0141312)
(0.00904389 0 -0.0117808)
(0.00902855 0 -0.00971271)
(0.00901687 0 -0.0078934)
(0.00900836 0 -0.00629328)
(0.00900274 0 -0.00488714)
(0.00899924 0 -0.00365308)
(0.00899882 0 -0.00256959)
(0.00901277 0 -0.00161543)
(0.00899053 0 -0.000700307)
(-0.00232617 0 0.00325609)
(-0.00232706 0 0.00661076)
(-0.00233328 0 0.00996986)
(-0.00233795 0 0.0132075)
(-0.00234279 0 0.0162897)
(-0.00234844 0 0.0191723)
(-0.00235568 0 0.0217964)
(-0.00236533 0 0.024105)
(-0.00237795 0 0.0260478)
(-0.00239361 0 0.027581)
(-0.00241193 0 0.0286644)
(-0.00243201 0 0.0292576)
(-0.00245247 0 0.029315)
(-0.00247144 0 0.0287803)
(-0.00248659 0 0.0275826)
(-0.0024952 0 0.025636)
(-0.00249434 0 0.0228454)
(-0.00248139 0 0.0191263)
(-0.00245495 0 0.0144442)
(-0.00241616 0 0.00887822)
(-0.00236972 0 0.00269799)
(-0.00232334 0 -0.00358899)
(-0.00228433 0 -0.00929038)
(-0.00225412 0 -0.0137391)
(-0.00222481 0 -0.0166219)
(-0.00218139 0 -0.0182527)