/*--------------------------------*- C++ -*----------------------------------*\
  =========                 |
  \\      /  F ield         | OpenFOAM: The Open Source CFD Toolbox
   \\    /   O peration     | Website:  https://openfoam.org
    \\  /    A nd           | Version:  9
     \\/     M anipulation  |
\*---------------------------------------------------------------------------*/
FoamFile
{
    format      ascii;
    class       surfaceVectorField;
    location    "0.11";
    object      Uf;
}
// * * * * * * * * * * * * * * * * * * * * * * * * * * * * * * * * * * * * * //

dimensions      [0 1 -1 0 0 0 0];

internalField   nonuniform List<vector> 
39700
(
(5.9357e-06 0 0.0046602)
(2.72023e-06 0 0.00302471)
(3.61869e-06 0 0.00811404)
(-1.39918e-05 0 0.00645016)
(4.85865e-06 0 0.011471)
(-1.38279e-05 0 0.00987371)
(6.09573e-06 0 0.0146523)
(-1.21745e-05 0 0.0131485)
(6.77956e-06 0 0.0176202)
(-1.10686e-05 0 0.0162306)
(6.66509e-06 0 0.0203319)
(-1.08058e-05 0 0.0190787)
(5.5896e-06 0 0.0227428)
(-1.17557e-05 0 0.0216474)
(3.49417e-06 0 0.0248111)
(-1.41663e-05 0 0.0238927)
(4.16781e-07 0 0.026499)
(-1.81235e-05 0 0.0257747)
(-3.5163e-06 0 0.0277723)
(-2.35634e-05 0 0.0272577)
(-8.10658e-06 0 0.0285972)
(-3.02723e-05 0 0.0283089)
(-1.3105e-05 0 0.0289359)
(-3.78941e-05 0 0.0288935)
(-1.82125e-05 0 0.0287414)
(-4.5954e-05 0 0.0289703)
(-2.30679e-05 0 0.0279528)
(-5.38642e-05 0 0.028486)
(-2.72135e-05 0 0.0264931)
(-6.08928e-05 0 0.027372)
(-3.00591e-05 0 0.0242697)
(-6.61313e-05 0 0.0255423)
(-3.08832e-05 0 0.0211839)
(-6.84931e-05 0 0.0228974)
(-2.89487e-05 0 0.0171549)
(-6.68335e-05 0 0.0193394)
(-2.38299e-05 0 0.0121694)
(-6.03225e-05 0 0.0148065)
(-1.59773e-05 0 0.00635772)
(-4.91558e-05 0 0.00933778)
(-7.25808e-06 0 7.86861e-05)
(-3.53979e-05 0 0.00316238)
(-7.67091e-07 0 -0.00605087)
(-2.30828e-05 0 -0.00322251)
(1.06601e-06 0 -0.0112757)
(-1.68098e-05 0 -0.00907505)
(-1.54595e-06 0 -0.0150043)
(-1.84546e-05 0 -0.0136307)
(-5.42713e-06 0 -0.017175)
(-2.43678e-05 0 -0.0164862)
(-6.15246e-06 0 -0.0184361)
(-2.74486e-05 0 -0.0179422)
(-1.00109e-06 0 -0.0199622)
(-2.18849e-05 0 -0.0190111)
(1.03563e-05 0 -0.022991)
(-5.17105e-06 0 -0.0210327)
(2.7583e-05 0 -0.0283331)
(2.20555e-05 0 -0.0251341)
(4.75329e-05 0 -0.0360174)
(5.62611e-05 0 -0.03179)
(6.43811e-05 0 -0.0466248)
(9.01389e-05 0 -0.0413042)
(6.74271e-05 0 -0.0564995)
(0.000109089 0 -0.0520399)
(5.87579e-05 0 -0.0642114)
(0.000105811 0 -0.0610425)
(5.14135e-05 0 -0.0697419)
(9.4494e-05 0 -0.0674602)
(5.67339e-05 0 -0.0743451)
(9.68817e-05 0 -0.0721135)
(7.69877e-05 0 -0.0795594)
(0.000124316 0 -0.0766847)
(0.000108245 0 -0.0863617)
(0.000174628 0 -0.0825605)
(0.000145278 0 -0.0949743)
(0.000239852 0 -0.0903033)
(0.000183837 0 -0.105115)
(0.000312311 0 -0.0997949)
(0.000220614 0 -0.116294)
(0.000386147 0 -0.11059)
(0.000252535 0 -0.127967)
(0.000456792 0 -0.122155)
(0.000276599 0 -0.139561)
(0.000520692 0 -0.133933)
(0.000291197 0 -0.15046)
(0.000576989 0 -0.145333)
(0.000299841 0 -0.160039)
(0.000632814 0 -0.155718)
(0.000318842 0 -0.167816)
(0.000714271 0 -0.164481)
(0.000391953 0 -0.173797)
(0.000886962 0 -0.171278)
(0.000624276 0 -0.179213)
(0.00129667 0 -0.17651)
(0.00128388 0 -0.188295)
(0.00226515 0 -0.182344)
(0.0031116 0 -0.213465)
(0.00452121 0 -0.195411)
(0.00799396 0 -0.287731)
(0.00973001 0 -0.234807)
(0.0184489 0 -0.470597)
(0.0209087 0 -0.348509)
(0.0231924 0 -0.743355)
(0.0351207 0 -0.60095)
(-0.00714207 0 -0.842295)
(0.0146635 0 -0.873457)
(-0.0232746 0 -0.647945)
(-0.0277332 0 -0.788007)
(-0.0134024 0 -0.415157)
(-0.0294849 0 -0.50499)
(-0.00587454 0 -0.296568)
(-0.0158284 0 -0.334188)
(-0.00278982 0 -0.24622)
(-0.00814265 0 -0.264249)
(-0.00174299 0 -0.214787)
(-0.00475886 0 -0.230265)
(-0.00137716 0 -0.179595)
(-0.00330047 0 -0.200102)
(-0.000967051 0 -0.12822)
(-0.00232197 0 -0.159616)
(0.000221235 0 -0.0477764)
(-0.000745641 0 -0.0977726)
(0.00301588 0 0.0801386)
(0.00269408 0 0.000100399)
(0.009353 0 0.252324)
(0.0117587 0 0.155326)
(0.0254381 0 0.187235)
(0.0157974 0 0.336584)
(0.0884872 0 -1.00507)
(0.0952074 0 -0.00645367)
(-0.0272973 0 -1.36851)
(0.0634256 0 -1.94094)
(-0.0402356 0 -0.184603)
(-0.130702 0 -0.697488)
(-0.0124631 0 0.28387)
(-0.025075 0 0.31468)
(-0.00486144 0 0.160104)
(-0.0166768 0 0.234271)
(-0.00160617 0 0.0328546)
(-0.00629857 0 0.0797469)
(-0.00040486 0 -0.0303152)
(-0.00222742 0 -0.00790681)
(5.59593e-06 0 -0.0650384)
(-0.000646966 0 -0.0530084)
(9.30303e-05 0 -0.0826744)
(-3.77548e-05 0 -0.0771682)
(7.45473e-05 0 -0.0898069)
(0.000129482 0 -0.0882987)
(2.97695e-05 0 -0.0906535)
(0.000137518 0 -0.0915063)
(-7.94673e-06 0 -0.0878378)
(0.000101967 0 -0.0900612)
(-3.29554e-05 0 -0.0829272)
(6.6737e-05 0 -0.0859246)
(-4.60796e-05 0 -0.0768628)
(4.15849e-05 0 -0.0802677)
(-4.99693e-05 0 -0.0702342)
(2.84753e-05 0 -0.0738068)
(-4.7285e-05 0 -0.0634338)
(2.61158e-05 0 -0.0670093)
(-4.02953e-05 0 -0.0567312)
(3.19877e-05 0 -0.0601962)
(-3.08088e-05 0 -0.0503097)
(4.34313e-05 0 -0.0535886)
(-2.02141e-05 0 -0.0442864)
(5.80739e-05 0 -0.0473333)
(-9.52352e-06 0 -0.0387278)
(7.40191e-05 0 -0.0415194)
(5.93278e-07 0 -0.0336632)
(8.99141e-05 0 -0.0361924)
(9.75706e-06 0 -0.0290949)
(0.000104905 0 -0.0313661)
(1.78226e-05 0 -0.0250071)
(0.00011851 0 -0.0270323)
(2.47541e-05 0 -0.021372)
(0.000130522 0 -0.023168)
(3.06154e-05 0 -0.018155)
(0.000140915 0 -0.0197412)
(3.55099e-05 0 -0.0153176)
(0.000149756 0 -0.0167144)
(3.95523e-05 0 -0.0128202)
(0.000157172 0 -0.0140482)
(4.28525e-05 0 -0.0106241)
(0.000163311 0 -0.0117031)
(4.55094e-05 0 -0.00869293)
(0.000168323 0 -0.00964106)
(4.76115e-05 0 -0.00699316)
(0.000172352 0 -0.00782694)
(4.92466e-05 0 -0.00549553)
(0.000175545 0 -0.00622911)
(5.0506e-05 0 -0.00417566)
(0.000178069 0 -0.00482053)
(5.1466e-05 0 -0.00301355)
(0.000180016 0 -0.00357936)
(5.2214e-05 0 -0.00199154)
(0.000181674 0 -0.00248742)
(5.32271e-05 0 -0.00106862)
(0.000184442 0 -0.0015289)
(0.000186232 0 -0.000636796)
(-2.58629e-05 0 0.00473552)
(-4.81871e-05 0 0.00310994)
(-3.15887e-05 0 0.00813024)
(-6.73881e-05 0 0.00646797)
(-3.09327e-05 0 0.011474)
(-6.74804e-05 0 0.00987177)
(-2.95178e-05 0 0.0146526)
(-6.5353e-05 0 0.0131445)
(-2.86879e-05 0 0.0176188)
(-6.38696e-05 0 0.0162284)
(-2.91317e-05 0 0.0203291)
(-6.35151e-05 0 0.0190798)
(-3.13196e-05 0 0.0227386)
(-6.49966e-05 0 0.0216527)
(-3.55197e-05 0 0.0248053)
(-6.87493e-05 0 0.0239025)
(-4.18044e-05 0 0.0264912)
(-7.49355e-05 0 0.0257887)
(-5.0027e-05 0 0.0277618)
(-8.34971e-05 0 0.0272752)
(-5.98161e-05 0 0.0285834)
(-9.41248e-05 0 0.0283287)
(-7.05955e-05 0 0.0289178)
(-0.000106251 0 0.0289143)
(-8.16034e-05 0 0.0287179)
(-0.000119078 0 0.0289905)
(-9.18844e-05 0 0.027923)
(-0.000131587 0 0.0285041)
(-0.000100259 0 0.0264558)
(-0.000142518 0 0.027386)
(-0.00010531 0 0.0242239)
(-0.000150344 0 0.0255503)
(-0.000105475 0 0.0211287)
(-0.000153319 0 0.0228977)
(-9.93966e-05 0 0.0170904)
(-0.00014971 0 0.0193306)
(-8.6668e-05 0 0.0120974)
(-0.000138413 0 0.014789)
(-6.89037e-05 0 0.00628267)
(-0.000120038 0 0.0093144)
(-5.04418e-05 0 6.82438e-06)
(-9.8113e-05 0 0.00313922)
(-3.75419e-05 0 -0.00611417)
(-7.90782e-05 0 -0.00323794)
(-3.48106e-05 0 -0.0113297)
(-6.97868e-05 0 -0.00907816)
(-4.08902e-05 0 -0.0150545)
(-7.23891e-05 0 -0.0136241)
(-4.78162e-05 0 -0.0172308)
(-8.05461e-05 0 -0.016479)
(-4.57858e-05 0 -0.0185058)
(-8.25753e-05 0 -0.0179442)
(-2.87752e-05 0 -0.0200492)
(-6.8893e-05 0 -0.0190271)
(4.0902e-06 0 -0.0230946)
(-3.60875e-05 0 -0.0210622)
(4.91404e-05 0 -0.0284491)
(1.39188e-05 0 -0.0251726)
(9.82844e-05 0 -0.0361373)
(7.4758e-05 0 -0.0318301)
(0.000140615 0 -0.0467391)
(0.000134988 0 -0.0413324)
(0.000152126 0 -0.0566054)
(0.000170741 0 -0.0520476)
(0.000140546 0 -0.0643163)
(0.000170743 0 -0.0610347)
(0.000134412 0 -0.0698583)
(0.000160053 0 -0.0674561)
(0.000158018 0 -0.0744804)
(0.000174428 0 -0.0721293)
(0.000216947 0 -0.0797135)
(0.000231946 0 -0.076724)
(0.000303226 0 -0.0865307)
(0.000328939 0 -0.082618)
(0.00040554 0 -0.0951539)
(0.000452705 0 -0.0903715)
(0.000514438 0 -0.105302)
(0.000591182 0 -0.0998675)
(0.000622842 0 -0.116485)
(0.000735488 0 -0.110663)
(0.000725432 0 -0.128158)
(0.00087956 0 -0.122223)
(0.000819806 0 -0.139747)
(0.00102068 0 -0.133996)
(0.000911731 0 -0.150639)
(0.0011637 0 -0.145395)
(0.00102717 0 -0.160216)
(0.00133183 0 -0.155795)
(0.00123539 0 -0.168011)
(0.00158762 0 -0.16462)
(0.00169286 0 -0.174075)
(0.00207061 0 -0.171583)
(0.00273655 0 -0.179744)
(0.00306612 0 -0.177205)
(0.0051114 0 -0.189548)
(0.00514851 0 -0.183928)
(0.0104664 0 -0.21659)
(0.00945716 0 -0.198981)
(0.0216494 0 -0.294349)
(0.0181281 0 -0.242262)
(0.0383951 0 -0.476815)
(0.0341564 0 -0.359673)
(0.0381053 0 -0.733608)
(0.0511115 0 -0.600757)
(-0.010753 0 -0.824357)
(0.0200211 0 -0.840885)
(-0.041312 0 -0.645261)
(-0.0384617 0 -0.767634)
(-0.0312091 0 -0.422042)
(-0.0447823 0 -0.511725)
(-0.0173221 0 -0.301276)
(-0.0273117 0 -0.343446)
(-0.00957711 0 -0.248354)
(-0.0158648 0 -0.269413)
(-0.00606929 0 -0.215773)
(-0.00992202 0 -0.232604)
(-0.00427998 0 -0.180329)
(-0.00685985 0 -0.201295)
(-0.00234875 0 -0.129343)
(-0.00455292 0 -0.160903)
(0.00150634 0 -0.049924)
(-0.00118289 0 -0.100343)
(0.00894165 0 0.0754513)
(0.00480504 0 -0.00485648)
(0.0255441 0 0.240982)
(0.0221472 0 0.144257)
(0.0599396 0 0.149687)
(0.0236478 0 0.313654)
(0.150394 0 -0.943286)
(0.158662 0 -0.0667567)
(-0.0948572 0 -1.27541)
(0.0710939 0 -1.77744)
(-0.0909866 0 -0.194847)
(-0.20299 0 -0.700069)
(-0.0372397 0 0.267257)
(-0.0405542 0 0.278849)
(-0.014967 0 0.153695)
(-0.0314277 0 0.219422)
(-0.00590491 0 0.030067)
(-0.0118095 0 0.0737055)
(-0.00216783 0 -0.0318419)
(-0.00481899 0 -0.0109559)
(-0.000542777 0 -0.0658806)
(-0.00170895 0 -0.0543991)
(4.10754e-05 0 -0.0831962)
(-0.000316552 0 -0.0776923)
(0.000202504 0 -0.0901901)
(0.000193481 0 -0.0884507)
(0.000213166 0 -0.090975)
(0.00033856 0 -0.0915168)
(0.000177581 0 -0.0881273)
(0.000349363 0 -0.0900242)
(0.000139981 0 -0.0831952)
(0.000324989 0 -0.0858836)
(0.000114265 0 -0.077113)
(0.000296939 0 -0.0802382)
(0.000102894 0 -0.070468)
(0.000278792 0 -0.073793)
(0.000104072 0 -0.0636518)
(0.000273768 0 -0.0670107)
(0.0001148 0 -0.0569337)
(0.000280357 0 -0.0602101)
(0.000131847 0 -0.0504967)
(0.000295477 0 -0.0536119)
(0.000152266 0 -0.0444579)
(0.000315901 0 -0.0473627)
(0.000173733 0 -0.0388842)
(0.000338903 0 -0.0415519)
(0.000194672 0 -0.0338048)
(0.000362458 0 -0.0362256)
(0.000214152 0 -0.0292224)
(0.000385178 0 -0.0313985)
(0.000231694 0 -0.0251212)
(0.000406189 0 -0.0270629)
(0.000247124 0 -0.0214735)
(0.00042501 0 -0.0231962)
(0.000260442 0 -0.0182445)
(0.000441461 0 -0.0197666)
(0.000271759 0 -0.0153957)
(0.000455563 0 -0.0167371)
(0.00028124 0 -0.0128877)
(0.000467456 0 -0.0140681)
(0.000289069 0 -0.0106816)
(0.000477344 0 -0.0117202)
(0.000295435 0 -0.00874094)
(0.000485448 0 -0.00965563)
(0.00030053 0 -0.00703237)
(0.00049199 0 -0.00783914)
(0.000304567 0 -0.00552663)
(0.000497217 0 -0.00623922)
(0.000307794 0 -0.00419938)
(0.000501433 0 -0.00482899)
(0.000310456 0 -0.00303064)
(0.000504794 0 -0.00358669)
(0.000312881 0 -0.00200416)
(0.000507967 0 -0.00249445)
(0.000316009 0 -0.00107686)
(0.000514243 0 -0.00153851)
(0.000515053 0 -0.000646313)
(-9.7142e-05 0 0.00476436)
(-0.00013669 0 0.00315172)
(-0.000102131 0 0.00812958)
(-0.000150804 0 0.0064835)
(-0.000101813 0 0.0114639)
(-0.000152726 0 0.00987083)
(-0.0001 0 0.014644)
(-0.000151823 0 0.0131394)
(-9.8793e-05 0 0.0176155)
(-0.000150693 0 0.0162251)
(-9.93523e-05 0 0.0203325)
(-0.000150636 0 0.0190813)
(-0.000102302 0 0.0227493)
(-0.0001528 0 0.02166)
(-0.000107942 0 0.024823)
(-0.000157729 0 0.0239157)
(-0.000116333 0 0.0265152)
(-0.000165603 0 0.0258074)
(-0.00012727 0 0.0277909)
(-0.000176348 0 0.0272984)
(-0.000140254 0 0.0286158)
(-0.000189587 0 0.0283549)
(-0.000154505 0 0.0289518)
(-0.000204622 0 0.0289418)
(-0.000168972 0 0.0287515)
(-0.000220455 0 0.0290171)
(-0.000182334 0 0.027954)
(-0.000235801 0 0.0285275)
(-0.000192982 0 0.0264819)
(-0.00024907 0 0.0274038)
(-0.000199038 0 0.0242429)
(-0.00025836 0 0.02556)
(-0.000198532 0 0.0211387)
(-0.000261529 0 0.0228969)
(-0.000189879 0 0.0170907)
(-0.000256509 0 0.0193181)
(-0.000172823 0 0.0120897)
(-0.000242049 0 0.0147654)
(-0.000149688 0 0.00627194)
(-0.000218988 0 0.00928395)
(-0.000126207 0 5.75082e-07)
(-0.000191674 0 0.00310975)
(-0.000110012 0 -0.00610951)
(-0.00016788 0 -0.00325731)
(-0.000105959 0 -0.0113134)
(-0.000155556 0 -0.00908278)
(-0.000111753 0 -0.0150333)
(-0.000156877 0 -0.0136178)
(-0.000116869 0 -0.0172152)
(-0.000164018 0 -0.0164737)
(-0.000108657 0 -0.0185033)
(-0.000162582 0 -0.0179523)
(-7.9569e-05 0 -0.0200613)
(-0.000140588 0 -0.0190545)
(-2.91597e-05 0 -0.0231178)
(-9.40335e-05 0 -0.0211074)
(3.73079e-05 0 -0.028476)
(-2.58327e-05 0 -0.0252294)
(0.000107828 0 -0.0361567)
(5.59239e-05 0 -0.0318876)
(0.000170744 0 -0.0467371)
(0.000138157 0 -0.0413744)
(0.000193448 0 -0.0565813)
(0.000190601 0 -0.0520627)
(0.000188703 0 -0.0642856)
(0.000199138 0 -0.0610316)
(0.000194102 0 -0.0698422)
(0.000196893 0 -0.0674597)
(0.000241356 0 -0.0744902)
(0.000228811 0 -0.0721608)
(0.00033808 0 -0.0797479)
(0.000317304 0 -0.0767885)
(0.000474336 0 -0.0865815)
(0.00045802 0 -0.0827089)
(0.000635773 0 -0.0952128)
(0.000635694 0 -0.0904792)
(0.000810536 0 -0.105362)
(0.000836027 0 -0.0999841)
(0.00099049 0 -0.116543)
(0.00104905 0 -0.110783)
(0.00117151 0 -0.128211)
(0.00126933 0 -0.122344)
(0.00135667 0 -0.1398)
(0.0014976 0 -0.13412)
(0.00156556 0 -0.150709)
(0.0017476 0 -0.145534)
(0.00185347 0 -0.16035)
(0.00206115 0 -0.155987)
(0.00234637 0 -0.168313)
(0.00253626 0 -0.164949)
(0.00330293 0 -0.174761)
(0.00337406 0 -0.172221)
(0.00522858 0 -0.181264)
(0.00495634 0 -0.178489)
(0.00909799 0 -0.192841)
(0.00799175 0 -0.186507)
(0.016718 0 -0.223326)
(0.0137615 0 -0.204061)
(0.0304447 0 -0.305261)
(0.0243365 0 -0.251414)
(0.0475504 0 -0.482502)
(0.0418091 0 -0.371077)
(0.0422118 0 -0.713113)
(0.0567819 0 -0.597198)
(-0.01149 0 -0.792042)
(0.0210783 0 -0.805084)
(-0.0476692 0 -0.636362)
(-0.0410653 0 -0.743515)
(-0.0407207 0 -0.431125)
(-0.0518242 0 -0.516358)
(-0.0257245 0 -0.309832)
(-0.0349448 0 -0.353443)
(-0.0158219 0 -0.252968)
(-0.0221646 0 -0.276015)
(-0.0104674 0 -0.218046)
(-0.0146879 0 -0.236173)
(-0.00718638 0 -0.181966)
(-0.0103636 0 -0.203482)
(-0.00367642 0 -0.131853)
(-0.00686748 0 -0.163243)
(0.00260154 0 -0.0547213)
(-0.00191078 0 -0.104528)
(0.0132504 0 0.0657561)
(0.00521169 0 -0.0119558)
(0.0341881 0 0.219915)
(0.0288139 0 0.130299)
(0.083743 0 0.103133)
(0.0245941 0 0.280617)
(0.16751 0 -0.887688)
(0.187961 0 -0.122602)
(-0.106162 0 -1.18776)
(0.0728774 0 -1.59499)
(-0.117386 0 -0.216737)
(-0.220218 0 -0.692586)
(-0.0496445 0 0.23692)
(-0.0480533 0 0.233688)
(-0.0228048 0 0.141555)
(-0.0399966 0 0.201529)
(-0.00986295 0 0.0246373)
(-0.0149182 0 0.0650775)
(-0.00402763 0 -0.0345887)
(-0.00676521 0 -0.0157167)
(-0.00125534 0 -0.0670456)
(-0.00256001 0 -0.0567718)
(-8.87597e-05 0 -0.0835774)
(-0.000513214 0 -0.0787396)
(0.000350573 0 -0.090237)
(0.000324598 0 -0.0888644)
(0.000487477 0 -0.0908962)
(0.000638308 0 -0.0916519)
(0.000503799 0 -0.0880143)
(0.000729244 0 -0.090041)
(0.000483881 0 -0.0830884)
(0.000737299 0 -0.0858618)
(0.000461635 0 -0.0770267)
(0.000719993 0 -0.0802127)
(0.000449057 0 -0.0704054)
(0.000703824 0 -0.0737778)
(0.000448957 0 -0.063611)
(0.000698087 0 -0.0670104)
(0.000459939 0 -0.0569111)
(0.000703668 0 -0.0602244)
(0.000478895 0 -0.0504878)
(0.000718504 0 -0.0536379)
(0.000502521 0 -0.0444587)
(0.000739708 0 -0.0473967)
(0.000528087 0 -0.038891)
(0.000764533 0 -0.0415905)
(0.000553635 0 -0.033815)
(0.000790704 0 -0.0362661)
(0.000577883 0 -0.029234)
(0.000816473 0 -0.0314388)
(0.000600064 0 -0.0251329)
(0.000840634 0 -0.0271015)
(0.000619793 0 -0.0214845)
(0.000862474 0 -0.0232322)
(0.000636953 0 -0.0182544)
(0.000881682 0 -0.0197994)
(0.000651606 0 -0.0154043)
(0.000898225 0 -0.0167664)
(0.000663912 0 -0.0128949)
(0.00091223 0 -0.0140938)
(0.000674084 0 -0.0106876)
(0.000923911 0 -0.0117424)
(0.000682367 0 -0.00874594)
(0.000933515 0 -0.00967454)
(0.000689026 0 -0.00703663)
(0.000941304 0 -0.00785505)
(0.000694368 0 -0.00553061)
(0.000947568 0 -0.00625259)
(0.000698749 0 -0.00420369)
(0.000952693 0 -0.00484049)
(0.000702569 0 -0.00303631)
(0.0009569 0 -0.00359722)
(0.000706345 0 -0.00201324)
(0.00096117 0 -0.00250543)
(0.000710756 0 -0.00108982)
(0.000970418 0 -0.00155207)
(0.000967508 0 -0.000659274)
(-0.000193517 0 0.00478966)
(-0.000253654 0 0.00317848)
(-0.000200239 0 0.00814166)
(-0.000264484 0 0.00650441)
(-0.000202744 0 0.0114658)
(-0.000270031 0 0.00987826)
(-0.000202666 0 0.014644)
(-0.000271837 0 0.0131392)
(-0.000202489 0 0.0176194)
(-0.000272255 0 0.0162247)
(-0.000203986 0 0.0203433)
(-0.000273383 0 0.0190851)
(-0.000208081 0 0.0227678)
(-0.000276731 0 0.02167)
(-0.000215175 0 0.0248492)
(-0.000282969 0 0.0239323)
(-0.000225345 0 0.0265483)
(-0.00029234 0 0.02583)
(-0.000238357 0 0.0278294)
(-0.000304789 0 0.027326)
(-0.00025364 0 0.028658)
(-0.000319914 0 0.0283859)
(-0.00027029 0 0.0289953)
(-0.00033695 0 0.0289739)
(-0.000287087 0 0.0287938)
(-0.000354783 0 0.029048)
(-0.000302484 0 0.0279924)
(-0.000371963 0 0.0285545)
(-0.0003146 0 0.0265135)
(-0.000386686 0 0.0274241)
(-0.000321258 0 0.0242648)
(-0.000396791 0 0.0255706)
(-0.000320192 0 0.0211488)
(-0.000399863 0 0.0228953)
(-0.000309608 0 0.0170885)
(-0.000393585 0 0.0193027)
(-0.00028924 0 0.0120775)
(-0.000376564 0 0.0147373)
(-0.00026175 0 0.00625608)
(-0.000349706 0 0.00924777)
(-0.000233531 0 -9.66283e-06)
(-0.000317743 0 0.00307435)
(-0.000213042 0 -0.00610614)
(-0.000289183 0 -0.00328182)
(-0.000205726 0 -0.0112952)
(-0.000272683 0 -0.00909112)
(-0.000208893 0 -0.0150082)
(-0.000270681 0 -0.0136143)
(-0.000210681 0 -0.0171957)
(-0.000274826 0 -0.0164718)
(-0.000196667 0 -0.0184992)
(-0.000269261 0 -0.0179661)
(-0.000157936 0 -0.0200753)
(-0.000240309 0 -0.0190909)
(-9.36561e-05 0 -0.0231459)
(-0.000182941 0 -0.021165)
(-1.00203e-05 0 -0.0285091)
(-0.000100256 0 -0.025301)
(7.89733e-05 0 -0.0361805)
(-1.29653e-06 0 -0.0319602)
(0.000161678 0 -0.0467338)
(0.000100536 0 -0.0414295)
(0.000198706 0 -0.0565504)
(0.000170523 0 -0.0520874)
(0.000205872 0 -0.0642461)
(0.000192036 0 -0.0610364)
(0.000226991 0 -0.0698204)
(0.000203385 0 -0.0674738)
(0.000299198 0 -0.0745017)
(0.00025551 0 -0.072209)
(0.000432191 0 -0.0797922)
(0.000374339 0 -0.0768773)
(0.000615357 0 -0.0866497)
(0.000555986 0 -0.082831)
(0.000832802 0 -0.095295)
(0.000784136 0 -0.0906242)
(0.00107168 0 -0.105451)
(0.00104346 0 -0.100143)
(0.00132429 0 -0.116634)
(0.00132395 0 -0.110951)
(0.00158937 0 -0.128305)
(0.00162184 0 -0.122521)
(0.0018771 0 -0.139909)
(0.00194241 0 -0.134311)
(0.00222144 0 -0.150867)
(0.00230859 0 -0.145763)
(0.00270383 0 -0.160634)
(0.00277892 0 -0.156308)
(0.00349351 0 -0.168881)
(0.00347893 0 -0.165475)
(0.00491298 0 -0.175916)
(0.00465064 0 -0.173167)
(0.00754444 0 -0.183576)
(0.00672616 0 -0.180243)
(0.0124132 0 -0.197341)
(0.0104591 0 -0.189753)
(0.0212376 0 -0.231452)
(0.0171341 0 -0.209944)
(0.0357783 0 -0.316434)
(0.0285781 0 -0.261107)
(0.0514109 0 -0.485745)
(0.0457461 0 -0.381499)
(0.0420288 0 -0.690754)
(0.0570092 0 -0.590943)
(-0.0111559 0 -0.758779)
(0.0201192 0 -0.769627)
(-0.0491458 0 -0.624531)
(-0.0399994 0 -0.718188)
(-0.045892 0 -0.438345)
(-0.0542516 0 -0.518527)
(-0.0315408 0 -0.31893)
(-0.0398717 0 -0.363011)
(-0.0208547 0 -0.258739)
(-0.0270836 0 -0.283139)
(-0.0144236 0 -0.221373)
(-0.0188636 0 -0.240461)
(-0.0100656 0 -0.18459)
(-0.0137416 0 -0.206387)
(-0.00545927 0 -0.135607)
(-0.00946002 0 -0.166314)
(0.00221761 0 -0.061196)
(-0.00329318 0 -0.109646)
(0.0144089 0 0.0538902)
(0.00357966 0 -0.0200833)
(0.0360108 0 0.193375)
(0.0303931 0 0.115897)
(0.0909994 0 0.0563096)
(0.0224466 0 0.243958)
(0.16124 0 -0.830959)
(0.188179 0 -0.169429)
(-0.0928538 0 -1.09899)
(0.0692494 0 -1.4256)
(-0.119973 0 -0.237635)
(-0.203961 0 -0.674507)
(-0.053554 0 0.202149)
(-0.0514122 0 0.189408)
(-0.0261204 0 0.126812)
(-0.042261 0 0.18324)
(-0.0118954 0 0.017341)
(-0.0153787 0 0.0555941)
(-0.00505146 0 -0.0385525)
(-0.0074843 0 -0.0213005)
(-0.00160909 0 -0.0688985)
(-0.00272969 0 -0.0597178)
(-3.63903e-05 0 -0.0843051)
(-0.000321526 0 -0.0801514)
(0.000639332 0 -0.0904332)
(0.000707839 0 -0.0895007)
(0.000894774 0 -0.090859)
(0.00114101 0 -0.0919043)
(0.000970245 0 -0.0878893)
(0.00129429 0 -0.0901191)
(0.000976448 0 -0.0829449)
(0.00132815 0 -0.0858684)
(0.000963435 0 -0.0768948)
(0.00131982 0 -0.0801977)
(0.000952646 0 -0.0702963)
(0.00130415 0 -0.0737648)
(0.000951583 0 -0.0635274)
(0.00129505 0 -0.0670089)
(0.000960997 0 -0.0568509)
(0.00129593 0 -0.0602366)
(0.000978754 0 -0.0504472)
(0.00130632 0 -0.0536622)
(0.00100194 0 -0.044433)
(0.00132407 0 -0.0474302)
(0.00102785 0 -0.0388761)
(0.00134659 0 -0.0416297)
(0.00105434 0 -0.0338074)
(0.0013714 0 -0.0363081)
(0.00107987 0 -0.0292312)
(0.00139646 0 -0.0314812)
(0.00110348 0 -0.025133)
(0.00142032 0 -0.0271426)
(0.00112465 0 -0.0214863)
(0.00144213 0 -0.0232708)
(0.0011432 0 -0.0182569)
(0.00146148 0 -0.0198349)
(0.00115913 0 -0.0154071)
(0.00147827 0 -0.0167982)
(0.00117257 0 -0.0128977)
(0.00149259 0 -0.0141219)
(0.00118372 0 -0.0106903)
(0.0015046 0 -0.0117668)
(0.00119284 0 -0.00874852)
(0.00151456 0 -0.0096954)
(0.00120023 0 -0.00703928)
(0.0015227 0 -0.00787273)
(0.00120621 0 -0.00553372)
(0.00152931 0 -0.00626759)
(0.00121121 0 -0.00420795)
(0.0015348 0 -0.00485361)
(0.00121567 0 -0.00304271)
(0.00153938 0 -0.00360952)
(0.00122 0 -0.00202291)
(0.00154428 0 -0.00251804)
(0.00122435 0 -0.0011008)
(0.00155564 0 -0.00156542)
(0.00154834 0 -0.000668954)
(-0.000326257 0 0.00481375)
(-0.000409967 0 0.00319941)
(-0.000334065 0 0.00816071)
(-0.000418043 0 0.0065287)
(-0.000339149 0 0.0114744)
(-0.000425492 0 0.00989334)
(-0.000341434 0 0.0146472)
(-0.000429242 0 0.0131457)
(-0.000343052 0 0.0176236)
(-0.000431228 0 0.016229)
(-0.000346004 0 0.0203522)
(-0.000433693 0 0.0190927)
(-0.000351442 0 0.0227831)
(-0.000438231 0 0.0216833)
(-0.000359889 0 0.024871)
(-0.000445608 0 0.023952)
(-0.000371479 0 0.0265758)
(-0.000456137 0 0.0258558)
(-0.000385999 0 0.0278614)
(-0.00046979 0 0.0273568)
(-0.00040286 0 0.0286924)
(-0.000486168 0 0.02842)
(-0.000421099 0 0.0290299)
(-0.000504475 0 0.0290091)
(-0.000439382 0 0.0288259)
(-0.000523528 0 0.0290817)
(-0.000456009 0 0.028019)
(-0.000541762 0 0.0285836)
(-0.000468902 0 0.0265316)
(-0.000557222 0 0.0274456)
(-0.000475662 0 0.0242714)
(-0.000567567 0 0.0255814)
(-0.000473802 0 0.0211417)
(-0.000570189 0 0.0228925)
(-0.000461365 0 0.0170673)
(-0.000562611 0 0.0192847)
(-0.000438055 0 0.0120453)
(-0.000543363 0 0.0147051)
(-0.000406696 0 0.0062199)
(-0.000513401 0 0.0092065)
(-0.000374021 0 -3.9925e-05)
(-0.000477633 0 0.00303335)
(-0.000348938 0 -0.00612224)
(-0.000444867 0 -0.00331182)
(-0.000337326 0 -0.0112964)
(-0.000424051 0 -0.00910435)
(-0.000336486 0 -0.0150034)
(-0.000417789 0 -0.0136152)
(-0.00033407 0 -0.0171993)
(-0.00041767 0 -0.0164743)
(-0.000314608 0 -0.0185225)
(-0.000407274 0 -0.0179852)
(-0.000267946 0 -0.0201215)
(-0.000371896 0 -0.0191348)
(-0.000192513 0 -0.0232106)
(-0.00030548 0 -0.0212327)
(-9.4699e-05 0 -0.0285817)
(-0.000210854 0 -0.0253846)
(1.02795e-05 0 -0.0362449)
(-9.76392e-05 0 -0.0320458)
(0.000111618 0 -0.0467716)
(2.11871e-05 0 -0.041497)
(0.000165097 0 -0.0565614)
(0.000108536 0 -0.052123)
(0.000188195 0 -0.0642515)
(0.000146048 0 -0.0610518)
(0.000228236 0 -0.0698489)
(0.000174807 0 -0.0675005)
(0.000326076 0 -0.0745702)
(0.000249117 0 -0.0722743)
(0.000493669 0 -0.079901)
(0.000397637 0 -0.076989)
(0.000720856 0 -0.0867898)
(0.000617689 0 -0.0829826)
(0.000991336 0 -0.0954564)
(0.000892992 0 -0.0908046)
(0.00129217 0 -0.105627)
(0.00120805 0 -0.100344)
(0.00161683 0 -0.116821)
(0.00155346 0 -0.111168)
(0.00196753 0 -0.128509)
(0.0019276 0 -0.122754)
(0.00236145 0 -0.140148)
(0.00234032 0 -0.134574)
(0.00284496 0 -0.151185)
(0.00282272 0 -0.146086)
(0.00351907 0 -0.161127)
(0.00344639 0 -0.156758)
(0.00458034 0 -0.169729)
(0.00435549 0 -0.166183)
(0.00638272 0 -0.177445)
(0.00581475 0 -0.174369)
(0.00953225 0 -0.186347)
(0.00827467 0 -0.182343)
(0.0150378 0 -0.202267)
(0.0124818 0 -0.193423)
(0.0244383 0 -0.239541)
(0.0196466 0 -0.216211)
(0.0387272 0 -0.326194)
(0.0312419 0 -0.270633)
(0.0516581 0 -0.486709)
(0.0470121 0 -0.390119)
(0.0391941 0 -0.669596)
(0.0540936 0 -0.582634)
(-0.010412 0 -0.7287)
(0.0180609 0 -0.736557)
(-0.0476505 0 -0.612079)
(-0.0372939 0 -0.693363)
(-0.0482012 0 -0.443239)
(-0.0538824 0 -0.51816)
(-0.0356489 0 -0.327181)
(-0.0428492 0 -0.371379)
(-0.0250076 0 -0.26473)
(-0.0309269 0 -0.290233)
(-0.0180557 0 -0.225305)
(-0.0225656 0 -0.245095)
(-0.0130614 0 -0.187909)
(-0.0170609 0 -0.209717)
(-0.00791377 0 -0.140032)
(-0.0124282 0 -0.169746)
(-0.000139307 0 -0.0682631)
(-0.00550125 0 -0.114829)
(0.0125764 0 0.042084)
(0.000243519 0 -0.0285605)
(0.0333601 0 0.166936)
(0.0276462 0 0.102041)
(0.0868827 0 0.0167419)
(0.0198088 0 0.208276)
(0.14266 0 -0.772979)
(0.172001 0 -0.206614)
(-0.0748605 0 -1.00975)
(0.0621873 0 -1.28058)
(-0.111646 0 -0.248874)
(-0.177301 0 -0.649983)
(-0.0528399 0 0.170726)
(-0.0524064 0 0.150204)
(-0.0258874 0 0.112319)
(-0.0404151 0 0.165272)
(-0.0118221 0 0.00961447)
(-0.0138088 0 0.0462171)
(-0.00488967 0 -0.0430634)
(-0.00692973 0 -0.0269565)
(-0.0012897 0 -0.071241)
(-0.00203318 0 -0.0627987)
(0.000444643 0 -0.0854232)
(0.000428623 0 -0.0817084)
(0.00123043 0 -0.0909226)
(0.00148728 0 -0.0902407)
(0.0015501 0 -0.0910403)
(0.00195615 0 -0.09222)
(0.0016564 0 -0.0879312)
(0.0021235 0 -0.0902292)
(0.00167354 0 -0.0829318)
(0.00215669 0 -0.085887)
(0.0016608 0 -0.076868)
(0.00214088 0 -0.0801832)
(0.00164516 0 -0.0702753)
(0.00211386 0 -0.073746)
(0.00163733 0 -0.0635197)
(0.00209192 0 -0.066999)
(0.00163974 0 -0.0568577)
(0.00208036 0 -0.0602397)
(0.00165118 0 -0.0504665)
(0.00207977 0 -0.053678)
(0.00166911 0 -0.0444615)
(0.00208834 0 -0.0474561)
(0.00169087 0 -0.0389105)
(0.00210337 0 -0.0416627)
(0.00171417 0 -0.0338448)
(0.00212211 0 -0.0363451)
(0.0017373 0 -0.0292694)
(0.00214226 0 -0.0315197)
(0.00175914 0 -0.0251703)
(0.00216217 0 -0.0271807)
(0.00177904 0 -0.0215215)
(0.00218083 0 -0.0233072)
(0.00179667 0 -0.0182895)
(0.0021977 0 -0.0198686)
(0.00181196 0 -0.0154365)
(0.00221256 0 -0.0168288)
(0.00182496 0 -0.0129239)
(0.00222537 0 -0.0141491)
(0.00183584 0 -0.0107132)
(0.00223625 0 -0.0117906)
(0.00184482 0 -0.00876832)
(0.00224535 0 -0.00971601)
(0.00185217 0 -0.00705634)
(0.0022529 0 -0.0078904)
(0.00185823 0 -0.00554867)
(0.00225912 0 -0.00628283)
(0.00186341 0 -0.00422165)
(0.00226442 0 -0.00486724)
(0.00186811 0 -0.00305609)
(0.0022689 0 -0.00362253)
(0.00187257 0 -0.00203611)
(0.00227392 0 -0.00253102)
(0.00187651 0 -0.00111138)
(0.00228671 0 -0.00157752)
(0.00227588 0 -0.000676371)
(-0.000503048 0 0.00483494)
(-0.000608883 0 0.00321526)
(-0.000509927 0 0.00818123)
(-0.000614083 0 0.0065501)
(-0.000515499 0 0.0114873)
(-0.00062118 0 0.00990988)
(-0.000518955 0 0.0146544)
(-0.000625285 0 0.0131554)
(-0.000521781 0 0.0176306)
(-0.000627996 0 0.0162366)
(-0.000525804 0 0.020363)
(-0.000631239 0 0.0191031)
(-0.000532217 0 0.0227994)
(-0.00063649 0 0.0216991)
(-0.000541603 0 0.0248931)
(-0.00064456 0 0.023974)
(-0.000554127 0 0.0266031)
(-0.000655794 0 0.0258837)
(-0.000569586 0 0.0278925)
(-0.000670173 0 0.0273897)
(-0.000587384 0 0.0287254)
(-0.000687286 0 0.0284561)
(-0.000606517 0 0.0290624)
(-0.000706309 0 0.029046)
(-0.000625579 0 0.0288549)
(-0.000726007 0 0.0291167)
(-0.000642758 0 0.0280415)
(-0.000744733 0 0.0286138)
(-0.000655842 0 0.0265444)
(-0.000760424 0 0.0274675)
(-0.000662282 0 0.0242715)
(-0.000770621 0 0.0255916)
(-0.000659465 0 0.0211267)
(-0.000772603 0 0.0228882)
(-0.000645362 0 0.0170372)
(-0.000763819 0 0.0192643)
(-0.000619694 0 0.0120031)
(-0.000742797 0 0.0146697)
(-0.000585388 0 0.00617297)
(-0.000710562 0 0.00916135)
(-0.000549294 0 -8.13496e-05)
(-0.000672091 0 0.00298807)
(-0.000520373 0 -0.00614981)
(-0.000636181 0 -0.0033464)
(-0.00050452 0 -0.0113094)
(-0.000611653 0 -0.00912241)
(-0.000499041 0 -0.0150112)
(-0.000601002 0 -0.0136211)
(-0.000491544 0 -0.0172167)
(-0.000595871 0 -0.016482)
(-0.000466162 0 -0.0185616)
(-0.000579826 0 -0.0180102)
(-0.00041199 0 -0.0201863)
(-0.000537776 0 -0.0191857)
(-0.000326859 0 -0.0232969)
(-0.000463034 0 -0.021309)
(-0.000217175 0 -0.0286781)
(-0.00035815 0 -0.0254784)
(-9.87807e-05 0 -0.0363345)
(-0.000233102 0 -0.0321423)
(1.92591e-05 0 -0.0468355)
(-9.9921e-05 0 -0.0415757)
(8.98596e-05 0 -0.0565997)
(3.69137e-06 0 -0.0521701)
(0.000131346 0 -0.0642864)
(5.85592e-05 0 -0.0610794)
(0.000192698 0 -0.0699106)
(0.000107049 0 -0.0675415)
(0.00031688 0 -0.074677)
(0.000204919 0 -0.0723571)
(0.000517739 0 -0.0800538)
(0.000382577 0 -0.077123)
(0.000786134 0 -0.08698)
(0.000638687 0 -0.0831616)
(0.00110617 0 -0.0956743)
(0.000957626 0 -0.091018)
(0.00146546 0 -0.105866)
(0.00132436 0 -0.100584)
(0.00185908 0 -0.117082)
(0.0017305 0 -0.11143)
(0.00229264 0 -0.128799)
(0.00217661 0 -0.123044)
(0.00278943 0 -0.140491)
(0.00267655 0 -0.134905)
(0.00340536 0 -0.151635)
(0.00326785 0 -0.146496)
(0.00425456 0 -0.161788)
(0.00403117 0 -0.157324)
(0.00554847 0 -0.170792)
(0.00512142 0 -0.167045)
(0.00765167 0 -0.179233)
(0.0068119 0 -0.175771)
(0.0111624 0 -0.189387)
(0.00954966 0 -0.184684)
(0.0170238 0 -0.207346)
(0.0140413 0 -0.197331)
(0.026504 0 -0.247297)
(0.0213692 0 -0.222531)
(0.0397757 0 -0.334532)
(0.0326004 0 -0.279481)
(0.0496383 0 -0.485952)
(0.0463995 0 -0.396694)
(0.0352776 0 -0.649524)
(0.0496634 0 -0.57306)
(-0.00975572 0 -0.701174)
(0.0155583 0 -0.706535)
(-0.044917 0 -0.599353)
(-0.0342075 0 -0.669922)
(-0.0485848 0 -0.446229)
(-0.052057 0 -0.515715)
(-0.0384156 0 -0.334393)
(-0.0444331 0 -0.378158)
(-0.0284748 0 -0.270547)
(-0.0339137 0 -0.29686)
(-0.0214775 0 -0.229428)
(-0.0258822 0 -0.24976)
(-0.0162373 0 -0.191473)
(-0.0203424 0 -0.21321)
(-0.0108976 0 -0.144494)
(-0.0157159 0 -0.173306)
(-0.00326059 0 -0.0750999)
(-0.00850787 0 -0.11992)
(0.00880026 0 0.0311626)
(-0.00426664 0 -0.0366009)