/*--------------------------------*- C++ -*----------------------------------*\
  =========                 |
  \\      /  F ield         | OpenFOAM: The Open Source CFD Toolbox
   \\    /   O peration     | Website:  https://openfoam.org
    \\  /    A nd           | Version:  9
     \\/     M anipulation  |
\*---------------------------------------------------------------------------*/
FoamFile
{
    format      ascii;
    class       surfaceScalarField;
    location    "0.04";
    object      alphaPhi0.water;
}
// * * * * * * * * * * * * * * * * * * * * * * * * * * * * * * * * * * * * * //

dimensions      [0 3 -1 0 0 0 0];

internalField   nonuniform List<scalar> 
9850
(
-6.60376e-22
3.04282e-21
-1.79927e-20
9.28349e-20
-3.29254e-19
1.42637e-18
-2.72143e-18
1.41028e-17
-9.7049e-18
7.50425e-17
-3.14425e-17
2.89155e-16
-5.57443e-17
2.0829e-15
0
1.95852e-14
0
2.69902e-13
0
6.9855e-12
0
2.36016e-10
2.1196e-10
1.08795e-09
-2.01633e-08
1.84671e-09
-2.02743e-07
-1.4402e-07
-2.6405e-07
-3.56813e-07
-2.63045e-07
-4.35045e-07
-2.21721e-07
-4.98028e-07
-1.73189e-07
-5.10988e-07
-1.40311e-07
-4.85255e-07
-1.25154e-07
-4.5822e-07
-1.20008e-07
-3.6627e-07
-1.17243e-07
-3.50652e-07
-1.15659e-07
-3.40807e-07
-1.14597e-07
-3.365e-07
-1.11327e-07
-3.354e-07
-1.0209e-07
-3.27533e-07
-8.7377e-08
-2.99132e-07
-7.60361e-08
-2.43836e-07
-8.44854e-08
-1.61222e-07
-5.61242e-08
-4.21743e-08
-4.52864e-11
3.59927e-09
0
9.06649e-12
8.0404e-12
1.31212e-10
0
5.79912e-11
0
1.19512e-11
0
2.34527e-12
0
4.15665e-13
0
7.88328e-14
0
1.75655e-14
1.25504e-16
4.02724e-15
1.33908e-16
6.95193e-16
1.37448e-16
3.48802e-16
1.13929e-16
2.7534e-16
7.60842e-17
2.00037e-16
4.36792e-17
1.24239e-16
2.24534e-17
6.72629e-17
1.04346e-17
3.25352e-17
4.36982e-18
1.42491e-17
1.44837e-18
5.65516e-18
1.2582e-18
-1.30944e-21
5.89969e-21
-3.12499e-20
1.64214e-19
-4.65847e-19
2.18479e-18
-3.46829e-18
1.89873e-17
-1.22651e-17
1.01317e-16
-2.95869e-17
4.58608e-16
0
4.56901e-15
0
4.75016e-14
0
6.54082e-13
0
1.58553e-11
-1.69137e-11
3.36264e-10
1.48006e-10
3.53888e-10
9.60288e-09
1.93782e-10
-2.24831e-07
3.126e-08
-2.80166e-07
-3.01478e-07
-2.6856e-07
-4.46651e-07
-2.21784e-07
-5.44804e-07
-1.71121e-07
-5.61651e-07
-1.38544e-07
-5.17832e-07
-1.25365e-07
-4.71399e-07
-1.21746e-07
-3.69889e-07
-1.19265e-07
-3.53133e-07
-1.18061e-07
-3.42011e-07
-1.21504e-07
-3.33057e-07
-1.30447e-07
-3.26457e-07
-1.39109e-07
-3.18871e-07
-1.40215e-07
-2.98021e-07
-1.343e-07
-2.49719e-07
-1.33403e-07
-1.62033e-07
-5.1276e-08
-1.79455e-08
-6.08416e-11
7.50936e-10
-1.10691e-11
1.971e-12
8.36543e-12
1.62986e-10
0
5.09393e-11
0
1.2131e-11
0
3.0124e-12
0
6.4237e-13
0
1.23916e-13
0
2.57316e-14
0
5.87601e-15
1.07235e-16
9.70876e-16
1.23594e-16
3.63873e-16
1.15751e-16
2.97494e-16
8.59404e-17
2.36381e-16
5.32948e-17
1.59917e-16
2.90938e-17
9.29183e-17
1.43614e-17
4.78715e-17
6.46307e-18
2.23465e-17
2.36764e-18
9.56903e-18
2.35195e-18
-2.3688e-21
1.07712e-20
-4.84226e-20
2.59004e-19
-5.78876e-19
2.99003e-18
-3.77473e-18
2.30264e-17
-1.36584e-17
1.26133e-16
-6.82549e-18
7.39712e-16
0
9.35528e-15
0
1.12816e-13
0
1.70151e-12
0
2.62419e-11
-1.45119e-11
2.52434e-10
9.25401e-11
2.50659e-11
3.21841e-10
1.22258e-11
-1.657e-07
1.48743e-07
-2.40384e-07
-2.26791e-07
-2.3067e-07
-4.56365e-07
-1.92882e-07
-5.82592e-07
-1.55088e-07
-5.99445e-07
-1.32024e-07
-5.40897e-07
-1.25038e-07
-4.78385e-07
-1.24995e-07
-3.69932e-07
-1.23408e-07
-3.54719e-07
-1.2072e-07
-3.44699e-07
-1.25665e-07
-3.28113e-07
-1.48779e-07
-3.03343e-07
-1.86373e-07
-2.81276e-07
-2.19176e-07
-2.65209e-07
-2.24412e-07
-2.44452e-07
-1.87784e-07
-1.88015e-07
-1.12045e-09
-5.38357e-08
0
-2.93898e-10
6.63082e-14
1.61799e-11
8.09256e-12
1.26176e-10
0
4.28583e-11
0
1.07876e-11
0
3.04126e-12
0
7.41901e-13
0
1.68301e-13
0
3.54792e-14
0
7.78796e-15
1.19322e-16
1.40404e-15
1.07554e-16
3.96424e-16
1.05846e-16
3.18445e-16
8.61297e-17
2.64738e-16
5.73395e-17
1.90028e-16
3.32009e-17
1.17141e-16
1.73878e-17
6.39823e-17
8.32477e-18
3.16118e-17
3.29557e-18
1.43783e-17
3.8256e-18
-3.74446e-21
1.72152e-20
-6.54425e-20
3.50165e-19
-6.4915e-19
3.60624e-18
-3.77284e-18
2.58607e-17
-1.34514e-17
1.50016e-16
0
1.14971e-15
0
1.5829e-14
0
2.10099e-13
0
2.70683e-12
-8.47755e-12
3.35009e-11
-3.46287e-12
3.95617e-11
2.67652e-11
2.59128e-11
1.35086e-10
7.10258e-12
1.09994e-08
1.05971e-07
-1.10059e-07
-1.02432e-07
-1.18509e-07
-4.47915e-07
-1.18027e-07
-5.83074e-07
-1.17675e-07
-5.99797e-07
-1.17114e-07
-5.41457e-07
-1.22841e-07
-4.72658e-07
-1.3005e-07
-3.62723e-07
-1.31822e-07
-3.52947e-07
-1.24587e-07
-3.51934e-07
-1.17841e-07
-3.34859e-07
-1.35601e-07
-2.85583e-07
-1.85487e-07
-2.31389e-07
-2.34172e-07
-2.1653e-07
-2.36098e-07
-2.42564e-07
-9.48658e-08
-2.39547e-07
0
-4.17989e-08
0
-1.03619e-10
3.24631e-13
2.85541e-11
1.15596e-11
9.58653e-11
0
3.76787e-11
0
9.1596e-12
0
2.94061e-12
0
7.16608e-13
0
1.74325e-13
0
4.20973e-14
0
9.52105e-15
9.12153e-17
1.79431e-15
9.04848e-17
4.23497e-16
9.34606e-17
3.42021e-16
7.97876e-17
2.91078e-16
5.55994e-17
2.15759e-16
3.38323e-17
1.38567e-16
1.86508e-17
7.9181e-17
9.37414e-18
4.08421e-17
3.93376e-18
1.94221e-17
5.4954e-18
-4.81723e-21
2.21751e-20
-7.34195e-20
3.89898e-19
-6.54694e-19
3.79133e-18
-3.66792e-18
2.70118e-17
-1.1698e-17
1.69161e-16
0
1.50608e-15
0
2.06377e-14
0
2.61574e-13
0
2.73439e-12
-2.33194e-12
3.96116e-11
-3.31071e-12
1.95425e-10
4.83043e-12
1.10936e-10
1.82804e-10
8.54866e-12
6.65025e-08
2.38958e-08
9.9428e-08
-3.60422e-08
4.69464e-08
-3.95403e-07
-1.28503e-08
-5.23277e-07
-6.63013e-08
-5.46347e-07
-9.51728e-08
-5.12585e-07
-1.16359e-07
-4.51472e-07
-1.34554e-07
-3.44528e-07
-1.44666e-07
-3.42835e-07
-1.34645e-07
-3.61955e-07
-1.0508e-07
-3.64424e-07
-8.862e-08
-3.02043e-07
-1.13742e-07
-2.06268e-07
-1.37215e-07
-1.93065e-07
-8.26202e-08
-2.91188e-07
1.3136e-09
-1.10454e-07
0
-2.91372e-09
0
-2.59812e-10
6.7417e-13
2.26972e-11
0
6.65083e-11
0
3.13883e-11
0
6.65209e-12
0
2.85095e-12
0
6.8743e-13
0
1.68536e-13
0
4.21764e-14
0
1.00389e-14
5.82158e-17
1.98439e-15
7.29438e-17
4.35171e-16
7.84551e-17
3.63121e-16
6.81438e-17
3.13151e-16
4.87905e-17
2.36467e-16
3.07774e-17
1.55916e-16
1.75831e-17
9.1673e-17
9.12505e-18
4.85548e-17
3.98302e-18
2.37767e-17
7.03285e-18
-5.03535e-21
2.3379e-20
-7.16521e-20
3.93446e-19
-6.14587e-19
3.80489e-18
-3.52697e-18
2.71465e-17
-1.03861e-17
1.76628e-16
0
1.60523e-15
0
2.12936e-14
0
2.55408e-13
0
2.51653e-12
-1.29178e-12
4.05556e-11
-7.28393e-12
4.12056e-10
0
6.43836e-10
0
1.61153e-10
5.29461e-09
1.32629e-09
1.5966e-07
-8.44352e-08
1.43232e-07
-3.62135e-07
5.21993e-08
-4.32233e-07
-3.25477e-08
-4.61599e-07
-7.36812e-08
-4.71452e-07
-1.02865e-07
-4.22288e-07
-1.31908e-07
-3.15485e-07
-1.56076e-07
-3.18668e-07
-1.55356e-07
-3.62674e-07
-1.11871e-07
-4.07909e-07
-5.76675e-08
-3.56247e-07
-4.76234e-08
-2.16281e-07
-3.18077e-08
-2.08379e-07
3.81472e-09
-1.35393e-07
2.39016e-09
-4.30309e-09
-8.04615e-11
-8.43382e-11
-1.5097e-10
-1.17071e-10
0
-7.81966e-11
0
3.61575e-11
0
2.80701e-11
0
4.21054e-12
0
2.6055e-12
0
6.54863e-13
0
1.58463e-13
0
3.99706e-14
0
9.92992e-15
2.80247e-17
2.01579e-15
5.32128e-17
4.30227e-16
5.85798e-17
3.72513e-16
5.14105e-17
3.24821e-16
3.74823e-17
2.4935e-16
2.41388e-17
1.67452e-16
1.40492e-17
9.99782e-17
7.41109e-18
5.36774e-17
3.31587e-18
2.67807e-17
8.11675e-18
-4.80915e-21
2.34445e-20
-6.69493e-20
3.82137e-19
-5.69835e-19
3.6705e-18
-3.34583e-18
2.65928e-17
-1.00187e-17
1.77343e-16
0
1.60176e-15
0
2.08835e-14
0
2.28253e-13
0
2.342e-12
0
3.90042e-11
-3.24211e-11
3.7285e-10
0
6.54923e-10
-3.83889e-12
1.82341e-10
0
1.30741e-10
-1.91783e-08
-9.60974e-09
4.31056e-08
-3.01018e-07
5.80287e-09
-3.94463e-07
-4.57445e-08
-4.10048e-07
-6.12652e-08
-4.55932e-07
-8.20875e-08
-4.01466e-07
-1.148e-07
-2.82773e-07
-1.49744e-07
-2.83724e-07
-1.66523e-07
-3.4589e-07
-1.35622e-07
-4.38804e-07
-8.63064e-08
-4.05447e-07
-8.9532e-08
-2.11277e-07
-2.02395e-08
-1.04683e-07
4.23139e-09
-3.809e-11
-1.48731e-11
-3.70246e-12
-1.06453e-12
-1.28576e-11
-4.88509e-12
-2.59305e-12
-2.56925e-11
-1.06252e-11
-1.48952e-12
2.94074e-11
0
1.84004e-11
0
3.21506e-12
0
2.0078e-12
0
6.07129e-13
0
1.49181e-13
0
3.66248e-14
0
9.24136e-15
8.01439e-18
1.89486e-15
3.12392e-17
4.22862e-16
3.45762e-17
3.74732e-16
3.07482e-17
3.27562e-16
2.28622e-17
2.54016e-16
1.49452e-17
1.71954e-16
8.73195e-18
1.0317e-16
4.6207e-18
5.58667e-17
2.07562e-18
2.82766e-17
8.56213e-18
-4.37442e-21
2.24264e-20
-5.92816e-20
3.46985e-19
-5.08444e-19
3.35405e-18
-3.12077e-18
2.50405e-17
-1.02234e-17
1.73539e-16
0
1.50602e-15
0
1.847e-14
0
1.78627e-13
0
2.26155e-12
0
3.44422e-11
-4.7877e-11
3.1251e-10
-2.46196e-12
6.26726e-10
-1.15849e-10
1.50318e-10
-1.9804e-11
9.05128e-12
-5.14259e-09
-2.22607e-10
-9.47717e-08
-4.17733e-08
-9.3225e-08
-2.95182e-07
-8.36183e-08
-4.19195e-07
-6.12167e-08
-4.78297e-07
-6.20651e-08
-4.0062e-07
-8.10651e-08
-2.63773e-07
-1.0043e-07
-2.64344e-07
-1.13612e-07
-3.32437e-07
-1.19073e-07
-4.31866e-07
-1.33332e-07
-3.28145e-07
-5.86677e-08
-6.55334e-08
-2.15349e-11
-2.20495e-10
-6.08293e-13
-3.29063e-12
-2.42692e-13
-2.0487e-12
-3.96248e-14
-1.2017e-12
-3.12568e-13
-5.898e-13
-6.43604e-12
3.08334e-14
-6.05184e-12
3.85236e-11
-7.76536e-13
1.62711e-11
-1.80415e-13
2.33413e-12
-4.6873e-14
1.0392e-12
-5.65892e-15
4.72901e-13
0
1.30249e-13
0
3.14865e-14
0
7.9598e-15
2.57507e-18
1.65504e-15
8.43117e-18
4.13685e-16
9.6529e-18
3.74545e-16
8.75464e-18
3.28113e-16
6.57744e-18
2.54301e-16
4.25054e-18
1.72114e-16
2.43836e-18
1.03334e-16
1.25226e-18
5.61723e-17
5.19242e-19
2.86456e-17
8.68828e-18
-3.69141e-21
1.97376e-20
-4.94345e-20
2.94549e-19
-4.3546e-19
2.92972e-18
-2.85626e-18
2.26039e-17
-1.12688e-17
1.59335e-16
0
1.25317e-15
0
1.35539e-14
0
1.40213e-13
0
2.20308e-12
0
2.81056e-11
-2.11466e-11
3.00629e-10
-5.44849e-12
1.25372e-10
2.21123e-12
6.47416e-11
1.88646e-10
-5.79632e-11
0
-1.63637e-12
-2.1252e-08
-1.89924e-10
-6.01666e-08
-2.0905e-09
-8.30135e-08
-2.16295e-07
-8.22827e-08
-4.28796e-07
-6.10257e-08
-4.20711e-07
-3.34015e-08
-2.90684e-07
1.27789e-08
-2.91394e-07
5.59416e-08
-2.74564e-07
1.25176e-08
-1.72134e-07
-4.65785e-08
-2.91831e-08
-2.84467e-10
0
-2.84588e-12
-2.5195e-10
-6.41578e-13
-1.22735e-11
-2.92908e-13
-1.08058e-12
0
-6.92499e-13
0
-2.21289e-13
-5.56551e-12
1.00097e-12
-3.63953e-12
4.42051e-11
-1.55454e-12
2.58721e-11
-1.97905e-13
9.12104e-13
-1.06671e-13
5.64322e-13
-3.13331e-14
2.90529e-13
-6.82879e-15
9.74793e-14
-1.43655e-15
2.31689e-14
-2.55643e-16
5.68535e-15
-3.4656e-17
1.17984e-15
-1.83157e-17
3.9511e-16
-1.57202e-17
3.73188e-16
-1.3527e-17
3.28292e-16
-1.0194e-17
2.5187e-16
-6.77934e-18
1.68842e-16
-4.12118e-18
1.01291e-16
-2.4768e-18
5.62996e-17
-1.15508e-18
2.8788e-17
7.44642e-18
-2.93675e-21
1.63994e-20
-4.01231e-20
2.44297e-19
-3.67518e-19
2.5273e-18
-2.50683e-18
1.96731e-17
-1.12316e-17
1.33497e-16
0
9.46999e-16
0
9.5603e-15
0
1.22603e-13
0
2.03509e-12
-1.77889e-11
4.2135e-11
-3.95993e-12
2.50773e-10
-2.43354e-11
1.03686e-10
-3.71515e-13
5.03418e-11
-3.46001e-13
-1.0385e-11
-2.58662e-13
-1.24561e-13
3.52196e-12
-4.45209e-12
1.49324e-10
-1.44251e-10
-1.36468e-08
-1.50065e-09
-7.75013e-08
-2.85051e-08
-5.65545e-08
-1.07477e-07
2.39146e-08
-9.30839e-08
7.18869e-08
-2.92445e-08
4.5306e-08
-1.39148e-09
9.19413e-09
-7.05831e-10
4.97872e-11
-3.34032e-11
4.5165e-11
0
0
-1.59685e-10
0
-1.30483e-11
-3.4946e-15
-7.06067e-13
0
-4.63668e-13
0
-2.15655e-13
-5.12243e-12
4.88452e-12
-7.48948e-12
5.20028e-11
-7.69529e-13
3.9772e-11
-8.43727e-14
3.55074e-13
-7.66315e-14
5.40999e-13
-3.66563e-14
1.27952e-13
-1.00325e-14
6.72451e-14
-2.13223e-15
1.5119e-14
-3.75812e-16
3.57894e-15
-5.49483e-17
7.74696e-16
-4.43669e-17
3.84655e-16
-4.0704e-17
3.71961e-16
-3.52394e-17
3.26438e-16
-2.62783e-17
2.46521e-16
-1.73108e-17
1.63459e-16
-1.05429e-17
9.82502e-17
-6.14747e-18
5.49683e-17
-2.34652e-18
2.6854e-17
5.34522e-18
-2.30281e-21
1.34696e-20
-3.30938e-20
2.06539e-19
-3.1003e-19
2.20586e-18
-2.07124e-18
1.66323e-17
-9.43177e-18
1.04593e-16
0
6.94184e-16
0
7.30003e-15
0
1.1138e-13
0
1.74176e-12
-1.32934e-11
4.9427e-11
0
1.7527e-10
-1.5125e-11
7.68464e-11
-4.29831e-12
5.79376e-11
-9.10144e-13
-3.98079e-12
0
-4.30612e-15
-8.43531e-13
-9.87966e-13
-1.37014e-11
-4.93482e-11
-1.15128e-10
-5.22218e-11
-1.05407e-09
-2.8772e-10
-2.01938e-10
-1.16332e-10
3.67199e-10
-6.19024e-11
2.56825e-10
-3.6417e-11
2.26753e-11
-8.33542e-11
2.45987e-11
-6.87313e-11
8.67231e-11
-1.61666e-11
7.43371e-11
0
9.42915e-12
-2.89502e-11
0
-5.09407e-12
0
-1.19749e-12
0
-1.52765e-13
-6.41179e-13
-6.65961e-13
-6.55978e-12
1.40987e-11
-1.80002e-11
5.71749e-11
-3.20213e-13
3.90014e-11
-2.75917e-13
3.59109e-13
-1.03342e-13
1.21212e-12
-2.56076e-14
4.68489e-14
-9.68282e-15
3.14034e-14
-1.9473e-15
8.68201e-15
-3.26798e-16
2.06696e-15
-7.16594e-17
5.40722e-16
-6.80362e-17
3.80626e-16
-6.39964e-17
3.70545e-16
-5.51611e-17
3.22003e-16
-4.05199e-17
2.37438e-16
-2.6639e-17
1.5611e-16
-1.63072e-17
9.40059e-17
-8.97547e-18
5.19587e-17
-2.64301e-18
2.28196e-17
3.22439e-18
-1.85702e-21
1.13712e-20
-2.8433e-20
1.814e-19
-2.64199e-19
1.96563e-18
-1.62151e-18
1.3945e-17
-7.01969e-18
7.94204e-17
0
5.14932e-16
0
6.10152e-15
0
1.00928e-13
0
1.56796e-12
-6.0838e-13
4.22426e-11
0
7.35839e-11
4.76316e-13
2.94333e-10
-1.00797e-12
7.19263e-11
-2.24115e-13
-1.5132e-13
-1.62083e-13
-1.32294e-15
0
-1.54838e-13
-2.34746e-11
-5.27374e-12
-1.98773e-11
-1.82433e-11
-1.62405e-12
-2.3067e-11
1.241e-12
-2.25963e-11
3.02872e-12
-1.99463e-11
6.63707e-12
-1.61577e-11
3.2909e-11
-1.85317e-11
2.71631e-11
-7.15827e-12
2.54505e-11
-5.22049e-12
1.45948e-11
0
1.62227e-12
-1.02158e-12
1.07312e-12
-9.22933e-13
1.22203e-13
-3.9816e-13
2.12789e-14
-3.75454e-15
-5.67636e-12
-3.16737e-13
-1.24832e-11
2.13412e-11
-2.40793e-11
6.01624e-11
-3.40873e-13
2.81088e-11
-4.20705e-13
3.80554e-13
-6.66545e-14
1.24295e-12
-1.68092e-14
4.7507e-14
-5.70948e-15
5.23061e-15
-1.37716e-15
4.72498e-15
-2.01139e-16
1.07685e-15
-9.06461e-17
4.3142e-16
-8.92953e-17
3.78452e-16
-8.45684e-17
3.68724e-16
-7.23274e-17
3.1287e-16
-5.22869e-17
2.24883e-16
-3.42505e-17
1.46373e-16
-2.06904e-17
8.72733e-17
-1.02013e-17
4.61059e-17
-2.10897e-18
1.71272e-17
1.55901e-18
-1.56221e-21
1.00195e-20
-2.51783e-20
1.63791e-19
-2.28626e-19
1.77649e-18
-1.24994e-18
1.19093e-17
-5.013e-18
6.17993e-17
0
3.99963e-16
0
5.51089e-15
0
9.37925e-14
0
1.48966e-12
0
2.82475e-11
-1.07851e-11
8.58058e-11
2.29768e-12
3.28607e-10
-1.12854e-12
3.11354e-11
-4.78862e-14
1.10637e-13
-5.14014e-14
5.61776e-15
-6.05801e-14
-2.29704e-14
-8.53886e-13
-3.36381e-13
-9.18492e-13
-1.48709e-12
-6.63791e-13
-3.14293e-12
3.01682e-12
-2.52734e-12
3.01106e-12
-1.56988e-12
4.3943e-12
-2.40317e-12
1.34435e-12
-2.2231e-12
6.29751e-13
-1.17112e-12
7.27615e-13
-3.5351e-13
1.96813e-12
-1.29426e-13
1.18962e-12
-1.01181e-13
6.87479e-14
-4.95384e-14
9.62635e-14
-2.05429e-14
2.16722e-13
-1.33284e-16
-4.86851e-12
9.85556e-13
-1.6799e-11
3.37074e-11
-1.74106e-11
6.11893e-11
-3.40177e-13
1.12818e-11
-5.05443e-13
3.87841e-13
-6.83431e-14
1.19218e-12
-5.90018e-15
1.8488e-14
-2.02586e-15
1.78552e-15
-5.21843e-16
3.12e-15
-1.39589e-16
6.26223e-16
-1.10363e-16
4.03396e-16
-1.10135e-16
3.77355e-16
-1.04521e-16
3.65448e-16
-8.59172e-17
2.96971e-16
-6.10106e-17
2.09108e-16
-3.93473e-17
1.33337e-16
-2.25831e-17
7.68164e-17
-9.3422e-18
3.68405e-17
-1.21642e-18
1.08536e-17
5.67931e-19
-1.35206e-21
9.11529e-21
-2.22563e-20
1.48745e-19
-1.99074e-19
1.60592e-18
-9.97895e-19
1.05066e-17
-3.72176e-18
5.1933e-17
0
3.35061e-16
0
5.25645e-15
0
9.10621e-14
0
1.49085e-12
0
1.07723e-11
-1.11608e-11
7.90868e-11
-9.23532e-13
3.26089e-10
-1.11699e-13
2.28267e-11
-1.91608e-14
2.33323e-14
-2.77994e-14
1.35632e-14
-4.10882e-14
-6.25748e-15
-1.82204e-13
-1.49238e-13
-3.16017e-13
-5.19331e-13
-8.0213e-15
-2.28222e-12
6.57069e-14
-8.6472e-13
9.89668e-14
-4.62466e-13
1.99368e-13
-1.44545e-12
8.62152e-13
-1.92392e-12
2.74929e-13
-5.13478e-13
1.90206e-13
-7.59999e-14
1.84905e-13
-1.43505e-14
1.09077e-13
0
2.02415e-14
0
6.36186e-15
0
7.23109e-15
3.24203e-16
-1.4135e-12
2.24392e-12
-1.47649e-11
4.74944e-11
-1.0557e-11
3.34146e-11
-4.75662e-13
1.24895e-12
-5.77631e-13
3.6015e-13
-1.68929e-14
1.01222e-12
-1.79473e-15
5.49683e-15
-1.24265e-15
1.16784e-15
-2.95037e-16
3.22467e-15
-1.39996e-16
4.74956e-16
-1.28591e-16
3.94753e-16
-1.2903e-16
3.76567e-16
-1.21738e-16
3.58092e-16
-9.5207e-17
2.77253e-16
-6.57049e-17
1.88661e-16
-4.07236e-17
1.15692e-16
-2.10868e-17
6.21601e-17
-6.81982e-18
2.55079e-17
-4.92847e-19
5.6122e-18
1.44682e-19
-1.17547e-21
8.37443e-21
-1.91248e-20
1.33067e-19
-1.71516e-19
1.43116e-18
-8.40175e-19
9.49025e-18
-3.00631e-18
4.69765e-17
0
3.00634e-16
0
5.09791e-15
0
9.01449e-14
-4.34996e-14
1.24585e-12
0
7.10846e-12
-1.32485e-11
9.05259e-11
-4.35063e-12
3.24911e-10
-1.60552e-14
4.69289e-11
-2.59502e-14
3.30855e-14
-3.06124e-14
1.86982e-14
-3.94001e-14
-2.64267e-15
-9.17506e-15
0
-1.53688e-13
-4.18549e-16
9.39343e-15
-2.33717e-12
4.44276e-14
-2.2687e-13
3.40156e-13
-4.86078e-14
7.09426e-13
-3.28151e-13
8.52293e-13
-1.28107e-12
1.96522e-13
-7.94769e-13
0
-9.0026e-14
1.28615e-14
-8.26527e-16
1.22163e-14
0
3.55639e-15
4.43497e-16
3.12206e-15
2.39748e-16
4.14714e-15
6.76037e-16
-3.1542e-12
3.90572e-12
-7.07813e-12
5.15328e-11
-1.43389e-12
6.75334e-12
-2.19559e-13
1.53083e-13
-3.12384e-13
2.60361e-13
-4.79075e-15
6.2992e-13
-1.12876e-15
2.03655e-15
-1.19048e-15
9.63271e-16
-2.04239e-16
3.02552e-15
-1.50317e-16
4.21615e-16
-1.46045e-16
3.91656e-16
-1.46391e-16
3.75659e-16
-1.33336e-16
3.45207e-16
-9.89618e-17
2.52974e-16
-6.50478e-17
1.61877e-16
-3.73733e-17
9.31552e-17
-1.64448e-17
4.46244e-17
-3.91117e-18
1.47778e-17
-1.30416e-19
2.32748e-18
2.77784e-20
-1.00417e-21
7.59397e-21
-1.57875e-20
1.15381e-19
-1.44742e-19
1.24269e-18
-7.29616e-19
8.59217e-18
-2.58795e-18
4.38952e-17
0
2.78791e-16
0
4.89744e-15
0
8.52236e-14
0
7.71089e-13
-3.8424e-12
1.85863e-11
-1.71454e-11
5.92321e-10
-1.76762e-11
3.33161e-10
-3.29389e-14
4.53037e-11
-3.87674e-14
3.78382e-14
-4.50372e-14
2.46966e-14
-6.34811e-14
0
-1.16336e-13
0
-2.60113e-13
0
1.94932e-13
-2.50172e-12
2.51747e-14
-9.64316e-14
1.95742e-14
-6.99613e-14
4.51317e-13
-4.36797e-14
9.82262e-13
-1.13401e-12
1.05581e-12
-7.20002e-13
0
-1.02341e-13
0
3.96743e-16
8.30006e-16
3.20891e-16
8.01887e-16
6.35885e-16
1.11036e-15
5.83871e-16
1.60352e-15
9.83656e-16
-7.3558e-12
7.14879e-12
-6.14827e-12
4.93347e-11
-2.12493e-13
1.53832e-12
-7.97513e-14
4.3543e-14
-1.18824e-13
2.31629e-14
-3.91312e-15
0
-7.84391e-16
1.28316e-15
-9.44804e-16
8.54928e-16
-1.82052e-16
1.68999e-15
-1.66389e-16
4.07182e-16
-1.63167e-16
3.90811e-16
-1.61972e-16
3.73637e-16
-1.38695e-16
3.27097e-16
-9.53045e-17
2.1894e-16
-5.81795e-17
1.28992e-16
-2.9615e-17
6.76056e-17
-1.04451e-17
2.74472e-17
-1.75553e-18
6.99699e-18
-2.28259e-20
7.74776e-19
5.63728e-21
-8.29172e-22
6.64903e-21
-1.24985e-20
9.60762e-20
-1.18649e-19
1.04307e-18
-6.31431e-19
7.61229e-18
-2.27218e-18
4.08188e-17
0
2.60711e-16
0
4.55575e-15
0
6.48058e-14
0
4.50299e-13
-2.12797e-11
4.66503e-11
-1.67046e-11
5.96362e-10
-1.75725e-11
3.42915e-10
-4.61641e-14
1.50308e-11
-4.57027e-14
3.81494e-14
-5.4663e-14
3.18902e-14
-3.84855e-13
0
-2.57883e-12
-4.51275e-11
-4.3514e-14
-1.13476e-12
4.44562e-14
-1.47221e-12
1.97438e-14
-1.38257e-13
3.0134e-14
-1.04076e-13
2.94005e-14
-7.37988e-14
7.11244e-13
-3.56697e-14
5.57815e-13
-4.09609e-13
2.8805e-15
-7.63217e-14
1.3988e-15
1.44246e-15
1.13415e-15
7.58445e-16
6.32627e-16
8.57101e-16
5.49795e-16
1.00526e-15
0
1.37879e-15
-7.00038e-12
1.00075e-11
-1.41165e-12
1.22994e-11
-4.50205e-14
2.06763e-13
-2.72019e-14
3.27259e-14
-3.06914e-14
0
-1.55321e-14
0
-7.99424e-16
1.49947e-14
-5.22641e-16
6.01296e-16
-1.87344e-16
6.4204e-16
-1.8492e-16
4.08699e-16
-1.80098e-16
3.91334e-16
-1.74456e-16
3.70066e-16
-1.33835e-16
2.94233e-16
-8.33868e-17
1.74461e-16
-4.59336e-17
9.33414e-17
-1.97087e-17
4.29655e-17
-5.31591e-18
1.40745e-17
-6.22304e-19
2.67784e-18
-4.50114e-21
2.08672e-19
1.13075e-21
-6.55947e-22
5.5242e-21
-9.52244e-21
7.66696e-20
-9.3293e-20
8.41385e-19
-5.23668e-19
6.44606e-18
-2.00998e-18
3.66115e-17
0
2.45041e-16
0
3.85891e-15
0
3.34207e-14
0
4.12217e-13
-1.08426e-11
4.49484e-11
-1.88879e-11
8.62352e-11
-1.42564e-11
1.87267e-11
-1.93847e-13
0
-1.99094e-13
4.34527e-14
-1.31549e-12
1.11558e-12
-3.70951e-11
-4.16311e-11
-1.2616e-11
-2.20851e-10
0
-7.30436e-11
0
-3.82107e-12
2.8756e-14
-1.16882e-12
2.92282e-14
-4.30618e-13
4.48082e-14
-1.78685e-13
2.80045e-14
-8.73794e-14
5.26629e-14
-9.85648e-15
8.80035e-14
-1.2664e-14
1.58822e-15
9.06086e-15
8.96241e-16
1.1303e-15
4.98325e-16
1.12751e-15
5.99501e-16
1.33328e-15
-4.01758e-14
4.24959e-14
-7.67961e-12
1.18717e-11
-1.96588e-13
0
-1.44239e-14
4.08502e-14
-9.50114e-15
4.38652e-14
-1.85804e-14
1.61331e-14
-2.89254e-14
8.2461e-15
-4.5509e-16
2.96831e-14
-3.47802e-16
4.77338e-16
-1.9687e-16
4.93052e-16
-1.96808e-16
4.12975e-16
-1.96508e-16
3.95283e-16
-1.77849e-16
3.5739e-16
-1.16392e-16
2.39258e-16
-6.50483e-17
1.25441e-16
-3.12763e-17
6.02005e-17
-1.07823e-17
2.33227e-17
-2.15646e-18
5.92121e-18
-1.75973e-19
8.26606e-19
-9.05339e-22
4.54856e-20
2.2409e-22
-4.96242e-22
4.32311e-21
-7.00427e-21
5.87781e-20
-6.9641e-20
6.50187e-19
-4.06208e-19
5.15244e-18
-1.78026e-18
3.10922e-17
-8.15908e-18
2.27056e-16
0
2.91342e-15
0
2.33833e-14
-4.02757e-13
8.92509e-13
-1.92305e-12
3.39517e-11
-2.42971e-12
4.41439e-11
-1.31404e-12
1.37571e-10
0
1.09775e-12
-1.30861e-13
2.0172e-13
-6.27045e-11
5.24365e-12
-1.39852e-11
-9.37458e-11
4.41723e-11
-2.78993e-10
4.20977e-12
-2.84278e-10
0
-1.31923e-11
8.39496e-15
-1.74877e-12
1.88354e-13
-1.47964e-12
1.86906e-13
-8.15604e-13
7.41052e-14
-2.46764e-13
1.02434e-14
-1.382e-14
1.33869e-14
3.84672e-16
6.61879e-15
1.10571e-15
6.2822e-16
1.6405e-15
4.2176e-16
1.40192e-15
5.3284e-17
1.61383e-15
-8.83201e-14
3.64351e-13
-2.51608e-12
2.16163e-11
-5.58457e-14
0
-2.9225e-14
1.94779e-14
-1.79516e-14
7.13059e-14
-1.06923e-14
2.48797e-14
-1.89834e-14
2.5221e-15
-2.0333e-16
3.50874e-14
-2.71344e-16
4.47973e-16
-2.12147e-16
4.33387e-16
-2.12933e-16
4.15602e-16
-2.09475e-16
3.93605e-16
-1.60134e-16
3.17537e-16
-8.97178e-17
1.72114e-16
-4.45973e-17
8.07416e-17
-1.80016e-17
3.40251e-17
-4.79293e-18
1.06096e-17
-6.99046e-19
2.03148e-18
-3.97659e-20
2.06233e-19
-1.79945e-22
8.1688e-21
4.38366e-23
-3.59848e-22
3.20574e-21
-4.99512e-21
4.36735e-20
-4.9646e-20
4.87932e-19
-3.00826e-19
3.96508e-18
-1.51695e-18
2.5366e-17
-6.84845e-18
1.9659e-16
0
2.22805e-15
0
2.23208e-14
-3.63846e-13
1.04792e-12
-1.75403e-16
2.17492e-11
-1.43796e-11
4.80322e-11
-4.90342e-12
2.7297e-10
-3.13337e-15
3.87595e-12
-3.12679e-12
1.64639e-12
-5.303e-12
-1.03228e-11
6.17174e-11
-1.60757e-10
1.28809e-10
-3.45986e-10
2.93867e-11
-5.40488e-10
0
-7.72276e-12
2.04213e-14
-4.36131e-13
3.98332e-13
-1.31288e-13
5.15012e-13
-4.02222e-13
1.21359e-13
-3.3183e-13
1.17437e-14
-3.71653e-14
1.81348e-15
6.60839e-16
1.85749e-15
8.88554e-16
5.80184e-16
1.57637e-15
1.90332e-16
1.66062e-15
-1.0489e-14
1.23104e-14
-4.01912e-12
5.03256e-12
-7.07132e-12
3.83424e-11
-4.61427e-14
5.07769e-12
-4.03654e-14
1.6598e-14
-2.37359e-14
7.21311e-14
-7.68586e-15
3.83626e-14
-1.12867e-14
4.6063e-15
-2.62048e-16
5.38933e-15
-2.42637e-16
4.26298e-16
-2.24791e-16
4.12178e-16
-2.23344e-16
4.16028e-16
-2.06933e-16
3.80615e-16
-1.24508e-16
2.41495e-16
-6.10407e-17
1.0923e-16
-2.6537e-17
4.64098e-17
-8.61865e-18
1.65403e-17
-1.72482e-18
3.99174e-18
-1.81659e-19
5.67372e-19
-6.80301e-21
4.13395e-20
-3.53099e-23
1.60614e-21
8.4567e-24
-2.51986e-22
2.30186e-21
-3.52318e-21
3.22167e-20
-3.52564e-20
3.71716e-19
-2.21177e-19
3.10959e-18
-1.21973e-18
2.07132e-17
-3.87037e-18
1.67749e-16
0
1.91223e-15
0
2.32932e-14
0
7.04523e-13
0
2.41807e-11
-4.30563e-14
4.31319e-10
-4.77978e-13
2.72836e-10
3.29877e-13
1.53712e-11
1.3114e-11
4.8501e-12
5.1346e-11
-3.43277e-11
1.29511e-10
-2.38824e-10
1.99828e-10
-4.16288e-10
6.08005e-12
-3.15463e-10
3.31935e-13
-3.63141e-12
1.10486e-13
-2.09545e-13
2.86383e-14
-3.84059e-14
3.14912e-13
-7.32226e-15
2.97777e-13
-2.97036e-13
1.46e-15
-1.86071e-14
8.69547e-16
1.61644e-15
3.90041e-16
9.52932e-16
3.6181e-16
1.52273e-15
0
2.2185e-15
-5.88736e-14
7.29662e-14
-9.05624e-12
1.72026e-11
-6.71345e-12
4.59217e-11
-4.90249e-14
2.61202e-11
-4.64358e-14
1.49452e-14
-2.6048e-14
6.91509e-14
-5.43498e-15
4.27802e-14
-2.83522e-15
2.03033e-15
-2.29062e-16
1.26334e-15
-2.36062e-16
4.28534e-16
-2.38509e-16
4.09418e-16
-2.32325e-16
4.1176e-16
-1.7206e-16
3.22131e-16
-8.38113e-17
1.54925e-16
-3.66977e-17
6.21166e-17
-1.34926e-17
2.359e-17
-3.3903e-18
6.77355e-18
-5.0115e-19
1.23084e-18
-3.69207e-20
1.2891e-19
-1.30704e-21
7.83886e-21
-6.83203e-24
3.12478e-22
1.60925e-24
-1.74034e-22
1.65224e-21
-2.55433e-21
2.43634e-20
-2.64869e-20
2.98772e-19
-1.67372e-19
2.58032e-18
-9.49198e-19
1.73264e-17
-2.33984e-18
1.4835e-16
0
1.8337e-15
0
2.27708e-14
0
3.1038e-13
5.06993e-12
2.6561e-11
1.69527e-11
4.82717e-10
2.23087e-11
2.68182e-10
6.27835e-12
2.78305e-11
4.55027e-11
8.85235e-12
1.01426e-10
-8.97419e-11
1.84502e-10
-3.21967e-10
2.20561e-10
-4.51666e-10
1.93119e-12
-7.02301e-11
0
-2.02087e-12
1.29218e-15
-2.34874e-13
1.07092e-14
-1.32954e-14
4.47755e-15
-4.21061e-15
1.89724e-13
-9.73204e-14
1.89951e-15
5.49688e-15
9.0469e-16
2.17663e-15
3.33057e-16
1.34224e-15
5.82098e-17
1.62345e-15
-1.62971e-15
4.62692e-15
-6.99809e-13
7.61405e-13
-1.25255e-11
3.35902e-11
-1.14943e-11
5.0517e-11
-5.40249e-14
2.56363e-11
-5.17681e-14
1.28252e-14
-2.86246e-14
6.34085e-14
-2.03987e-15
3.15639e-14
-8.93755e-16
9.18065e-16
-2.73669e-16
6.73765e-16
-2.42857e-16
4.3878e-16
-2.46263e-16
4.06078e-16
-2.20015e-16
3.84401e-16
-1.1827e-16
2.20721e-16
-4.98386e-17
8.64508e-17
-1.93667e-17
3.19565e-17
-5.74774e-18
1.03651e-17
-1.08561e-18
2.29233e-18
-1.17887e-19
3.08875e-19
-6.7657e-21
2.38126e-20
-2.55044e-22
1.56654e-21
-1.30365e-24
6.01342e-23
3.02284e-25
-1.22088e-22
1.20779e-21
-1.93734e-21
1.90146e-20
-2.11888e-20
2.4927e-19
-1.30018e-19
2.21574e-18
-7.43021e-19
1.48095e-17
-2.41978e-18
1.37953e-16
0
1.8293e-15
0
1.82663e-14
7.38703e-14
1.36487e-13
2.6947e-12
4.43394e-11
3.27777e-11
4.53336e-10
3.73463e-11
2.64316e-10
1.16605e-11
4.003e-11
4.93728e-11
6.99189e-12
1.30239e-10
-1.08181e-10
2.14165e-10
-4.05472e-10
7.43583e-11
-5.29924e-10
0
-1.44291e-11
0
-2.6188e-12
2.37573e-15
-8.37849e-13
5.93446e-15
-1.86862e-14
3.08648e-15
-2.15728e-15
1.95807e-14
-8.72878e-16
2.82439e-14
0
1.03902e-15
8.16411e-15
2.15898e-16
1.74998e-15
-5.15182e-16
2.17947e-15
-4.74569e-14
5.27614e-14
-8.43112e-12
1.06218e-11
-1.81764e-11
4.70503e-11
-1.53741e-11
5.02558e-11
-4.61338e-14
9.83003e-12
-4.03015e-14
8.31359e-15
-2.89189e-14
1.48038e-14
-8.38249e-16
1.08068e-14
-5.00003e-16
5.84712e-16
-3.04033e-16
5.53293e-16
-2.5839e-16
4.92829e-16
-2.43139e-16
3.77715e-16
-1.6538e-16
3.02055e-16
-6.95068e-17
1.26992e-16
-2.65278e-17
4.34549e-17
-8.79345e-18
1.46922e-17
-2.01298e-18
3.82584e-18
-2.80838e-19
6.3207e-19
-2.15336e-20
6.26241e-20
-1.33933e-21
4.85922e-21
-4.92403e-23
3.10346e-22
-2.45492e-25
1.14327e-23
5.60916e-26
-8.74904e-23
8.88555e-22
-1.49435e-21
1.4926e-20
-1.70437e-20
2.06539e-19
-1.02281e-19
1.89018e-18
-6.08872e-19
1.3048e-17
-4.67895e-18
1.31998e-16
-1.34408e-16
1.83431e-15
0
1.07779e-14
1.18413e-13
4.52876e-14
1.29571e-11
6.30318e-11
2.98738e-11
1.22941e-10
3.80478e-11
2.56844e-10
1.29899e-11
5.0287e-11
3.80284e-11
6.34279e-12
1.27919e-10
-1.10211e-10
2.22308e-10
-4.98527e-10
6.12342e-12
-4.00535e-10
0
-7.71613e-12
9.01352e-14
-1.57276e-12
2.09385e-15
-8.14363e-13
0
-3.1051e-14
1.80212e-15
-1.27845e-15
1.01613e-15
-1.04456e-16
6.24505e-15
2.51841e-16
9.64251e-16
3.44702e-15
-3.66365e-17
2.06751e-15
-6.65059e-15
6.01672e-15
-1.85818e-13
2.39633e-13
-1.55832e-11
2.76616e-11
-2.04331e-11
5.56154e-11
-7.87127e-12
4.03426e-11
-1.56668e-14
1.9526e-12
-9.37463e-15
3.95381e-15
-4.50378e-15
2.44868e-15
-5.07125e-16
1.24232e-15
-4.2335e-16
5.10989e-16
-3.29495e-16
5.85955e-16
-2.59761e-16
4.94739e-16
-2.06656e-16
3.05345e-16
-1.01649e-16
1.92082e-16
-3.63745e-17
6.38222e-17
-1.25269e-17
2.00021e-17
-3.34395e-18
5.85123e-18
-5.71215e-19
1.15958e-18
-5.76007e-20
1.41582e-19
-4.29686e-21
1.22236e-20
-2.67483e-22
9.87283e-22
-9.38845e-24
6.09858e-23
-4.56572e-26
2.14841e-24
1.02892e-26
-6.27145e-23
6.46161e-22
-1.13859e-21
1.16895e-20
-1.31747e-20
1.70283e-19
-8.32159e-20
1.61474e-18
-5.17665e-19
1.21897e-17
-6.60859e-18
1.26441e-16
-1.04602e-16
1.87377e-15
0
1.27442e-14
3.07902e-14
1.68131e-14
5.70273e-12
5.26491e-11
2.10601e-11
9.76244e-11
2.51545e-11
2.54369e-10
7.64036e-12
3.81477e-11
3.04447e-11
5.14134e-12
1.43792e-10
-1.21882e-10
2.29247e-10
-5.76746e-10
1.97945e-12
-3.11085e-10
6.74493e-13
-5.58596e-12
5.55835e-14
-4.1391e-13
4.73119e-14
-9.67384e-14
1.13524e-15
-1.79758e-14
1.13169e-15
-1.29438e-15
6.35326e-16
2.06353e-16
4.88194e-16
8.81319e-16
2.50003e-16
1.23122e-15
-1.96844e-17
2.43002e-15
-1.18868e-14
1.8138e-14
-2.86852e-13
4.79445e-13
-1.8241e-11
3.31485e-11
-1.54969e-11
5.65855e-11
-1.67193e-12
1.54659e-11
-5.35557e-15
3.05003e-13
-2.35026e-15
2.71775e-15
-9.97357e-16
1.41215e-15
-3.519e-16
6.02753e-16
-3.81314e-16
4.97702e-16
-3.25338e-16
5.94077e-16
-2.26261e-16
4.18729e-16
-1.41892e-16
2.10423e-16
-5.33601e-17
1.01548e-16
-1.72491e-17
2.89073e-17
-5.10596e-18
8.30111e-18
-1.04154e-18
1.9509e-18
-1.31419e-19
2.86034e-19
-1.10801e-20
2.69031e-20
-8.77815e-22
2.50508e-21
-5.27567e-23
1.98668e-22
-1.76903e-24
1.18493e-23
-8.39253e-27
3.99317e-25
1.86701e-27
-4.57678e-23
4.83319e-22
-9.11846e-22
1.00373e-20
-1.07498e-20
1.55821e-19
-7.40371e-20
1.5128e-18
-4.43869e-19
1.19884e-17
-4.15991e-18
1.20439e-16
-1.836e-16
2.11674e-15
0
2.32663e-14
1.01748e-14
1.12801e-14
7.88839e-12
3.10053e-11
2.54269e-11
4.70653e-10
4.69435e-11
2.29173e-10
2.60121e-11
2.0631e-11
8.19674e-11
1.07008e-12
2.38065e-10
-1.83248e-10
2.26809e-10
-5.57625e-10
2.93429e-12
-1.80395e-10
3.18181e-13
-3.13214e-12
8.35005e-14
-1.84393e-13
4.48186e-15
-2.45822e-14
4.64804e-15
-6.40953e-15
8.28148e-16
-4.09406e-16
4.34362e-16
5.18882e-16
1.58406e-16
1.13941e-15
-6.08408e-17
1.59281e-15
-3.4585e-16
3.17343e-15
-4.50661e-14
6.4732e-14
-1.50521e-12
1.24714e-12
-1.81814e-11
2.45995e-11
-1.31741e-11
3.61449e-11
-2.61468e-13
2.3866e-12
-4.00606e-15
4.90289e-14
-1.79167e-15
2.52927e-15
-4.43934e-16
1.74484e-15
-3.00753e-16