/*--------------------------------*- C++ -*----------------------------------*\
  =========                 |
  \\      /  F ield         | OpenFOAM: The Open Source CFD Toolbox
   \\    /   O peration     | Website:  https://openfoam.org
    \\  /    A nd           | Version:  9
     \\/     M anipulation  |
\*---------------------------------------------------------------------------*/
FoamFile
{
    format      ascii;
    class       volScalarField;
    location    "0.04";
    object      alpha.water;
}
// * * * * * * * * * * * * * * * * * * * * * * * * * * * * * * * * * * * * * //

dimensions      [0 0 0 0 0 0 0];

internalField   nonuniform List<scalar> 
5000
(
1.65371e-16
7.25667e-15
1.30383e-13
1.44105e-12
7.66242e-12
2.61017e-11
1.35733e-10
6.66532e-10
4.57394e-09
1.98714e-07
2.24815e-05
0.000329992
0.0115217
0.682722
1
1
1
1
1
1
1
1
1
1
1
0.999999
0.999994
0.999941
0.999925
0.832721
0.0980883
8.18089e-05
8.09656e-05
3.06808e-05
3.64692e-06
4.76187e-07
6.85879e-08
1.32161e-08
3.29439e-09
7.89937e-10
1.59436e-10
1.30902e-10
1.12995e-10
8.33313e-11
5.20681e-11
2.86917e-11
1.41759e-11
6.31452e-12
2.52545e-12
4.77493e-13
3.61237e-16
1.40578e-14
2.14627e-13
2.06459e-12
1.08047e-11
4.06435e-11
2.91438e-10
1.98304e-09
1.95518e-08
8.41693e-07
4.19159e-05
0.000353358
0.000181406
0.605533
1
1
1
1
1
1
1
1
1
1
1
0.999999
0.999989
0.999859
0.999822
0.746159
0.0436524
8.35703e-05
0.000129544
3.77994e-05
5.32371e-06
8.98576e-07
1.43825e-07
2.43509e-08
5.34395e-09
1.32667e-09
2.11366e-10
1.2598e-10
1.23334e-10
1.0234e-10
7.03734e-11
4.17425e-11
2.19671e-11
1.04617e-11
4.5641e-12
1.00547e-12
7.53971e-16
2.41807e-14
3.13176e-13
2.59997e-12
1.36078e-11
6.11291e-11
6.13947e-10
5.6708e-09
8.03326e-08
2.07506e-06
6.31997e-05
0.00020195
2.78623e-05
0.468082
1
1
1
1
1
1
1
1
1
1
1
0.999998
0.999976
0.999771
0.996511
0.531377
0.000184931
0.000184236
0.000214965
3.76575e-05
5.81247e-06
1.15981e-06
2.29684e-07
4.26198e-08
8.3851e-09
1.94305e-09
3.29626e-10
1.31167e-10
1.31801e-10
1.15981e-10
8.61521e-11
5.46415e-11
3.06176e-11
1.55174e-11
7.25048e-12
1.79564e-12
1.39968e-15
3.62479e-14
4.0714e-13
3.00508e-12
1.60832e-11
9.48271e-11
1.16169e-09
1.38047e-08
2.19985e-07
3.29622e-06
3.53015e-05
2.4167e-05
2.45236e-05
0.271418
0.97621
1
1
1
1
1
1
1
1
1
1
0.999996
0.999951
0.999925
0.903553
0.246085
0.000347188
0.000219061
0.000217102
3.62413e-05
5.63728e-06
1.25766e-06
2.61807e-07
5.74726e-08
1.21769e-08
2.69072e-09
4.91025e-10
1.40816e-10
1.40988e-10
1.28082e-10
9.94968e-11
6.63517e-11
3.9217e-11
2.09215e-11
1.02989e-11
2.79362e-12
2.1236e-15
4.50052e-14
4.58465e-13
3.22802e-12
1.82237e-11
1.36167e-10
1.79881e-09
2.34554e-08
2.78192e-07
4.53767e-06
1.042e-05
1.69165e-05
2.04427e-05
0.103312
0.83508
0.999999
1
1
1
1
1
1
1
1
0.999999
0.999993
0.999978
0.999564
0.554709
0.0336725
0.000481344
0.000331426
0.000171217
3.02311e-05
4.77249e-06
1.33163e-06
2.6716e-07
5.9756e-08
1.43072e-08
3.32049e-09
6.33734e-10
1.50288e-10
1.51311e-10
1.39343e-10
1.10754e-10
7.63798e-11
4.68692e-11
2.58943e-11
1.32064e-11
3.82832e-12
2.51857e-15
4.67778e-14
4.61227e-13
3.25839e-12
1.963e-11
1.62451e-10
2.16871e-09
2.65422e-08
2.54705e-07
5.15826e-06
4.99368e-05
9.78625e-05
0.00014587
0.0234137
0.523692
0.998184
0.999999
0.999999
1
1
1
1
1
1
0.999995
0.999993
0.999959
0.771349
0.0920118
9.40677e-05
0.000780806
0.000380508
0.000102903
2.95386e-05
3.21344e-06
1.36992e-06
2.72295e-07
5.98604e-08
1.46058e-08
3.53593e-09
7.08364e-10
1.57708e-10
1.5857e-10
1.47282e-10
1.1891e-10
8.37312e-11
5.2514e-11
2.95932e-11
1.54432e-11
4.72873e-12
2.55337e-15
4.59888e-14
4.51649e-13
3.21567e-12
1.9926e-11
1.65635e-10
2.1966e-09
2.53501e-08
2.24719e-07
5.1461e-06
8.06006e-05
0.00035271
0.000336187
0.00123104
0.163382
0.831663
0.999982
0.999999
0.999996
0.999999
0.999999
0.999997
0.999982
0.999962
0.999989
0.999886
0.811901
0.132233
2.36273e-06
9.19602e-05
8.47305e-05
0.000264032
6.55285e-05
2.31859e-05
2.51348e-06
1.28342e-06
2.72365e-07
6.00468e-08
1.43697e-08
3.55281e-09
7.2859e-10
1.6328e-10
1.61428e-10
1.50168e-10
1.23083e-10
8.83405e-11
5.60738e-11
3.18833e-11
1.686e-11
5.24695e-12
2.51033e-15
4.31795e-14
4.23881e-13
3.08668e-12
1.98261e-11
1.61842e-10
2.10734e-09
2.12296e-08
2.26085e-07
4.88849e-06
7.31714e-05
0.000352574
0.000351501
0.0011952
0.000173121
0.294836
0.943528
0.999982
0.999995
0.99999
0.999987
0.999996
0.999982
0.999907
0.979929
0.682228
0.126883
2.36273e-06
2.2679e-06
1.51324e-06
1.30399e-06
1.52331e-05
8.65925e-05
1.48074e-05
1.99691e-06
1.02035e-06
2.4519e-07
5.73768e-08
1.35681e-08
3.40216e-09
7.02949e-10
1.69741e-10
1.62615e-10
1.50435e-10
1.23878e-10
8.88312e-11
5.64243e-11
3.23443e-11
1.73254e-11
5.45925e-12
2.33835e-15
3.7882e-14
3.77918e-13
2.85344e-12
1.90962e-11
1.47148e-10
1.76512e-09
1.59636e-08
2.36074e-07
3.59797e-06
7.26952e-05
0.000266355
0.000216716
0.000850475
0.000162997
1.55848e-05
0.28919
0.856695
0.998131
0.999948
0.999958
0.999084
0.963789
0.779361
0.435727
0.0715794
3.42933e-06
3.15738e-06
2.56309e-06
1.40743e-06
1.2705e-06
1.82086e-05
8.71029e-05
1.89256e-05
5.07526e-07
5.85287e-07
1.97121e-07
4.69958e-08
1.10534e-08
2.7397e-09
5.65871e-10
1.63341e-10
1.62482e-10
1.50993e-10
1.2319e-10
8.78058e-11
5.57104e-11
3.23521e-11
1.73649e-11
4.99112e-12
2.01135e-15
3.16725e-14
3.27805e-13
2.54176e-12
1.70313e-11
1.18798e-10
1.2476e-09
1.288e-08
2.26966e-07
5.04837e-06
7.24585e-05
4.29603e-05
0.000211932
0.000170539
2.9034e-05
1.23435e-05
1.55848e-05
0.146452
0.446843
0.627394
0.623445
0.504368
0.288032
0.110877
0.0085378
0.000894309
0.000428336
2.31933e-05
1.56902e-06
7.4062e-07
9.68852e-07
2.9725e-05
8.73531e-05
3.08164e-05
1.53729e-07
1.161e-07
1.14671e-07
3.68673e-08
7.68572e-09
1.84904e-09
3.80379e-10
1.58518e-10
1.62399e-10
1.50772e-10
1.21428e-10
8.56022e-11
5.42896e-11
3.18673e-11
1.66499e-11
3.87693e-12
1.6622e-15
2.64447e-14
2.85161e-13
2.19286e-12
1.39874e-11
8.89414e-11
8.74666e-10
1.1548e-08
1.85422e-07
7.4943e-06
7.17301e-05
4.30026e-05
0.00023124
3.58121e-05
2.69398e-07
9.19045e-06
8.25369e-05
7.94736e-05
7.02019e-05
0.00518709
0.000643014
1.27266e-05
3.34826e-05
6.15419e-05
0.000194601
0.000301126
0.000214225
2.74661e-05
1.29971e-06
4.42562e-07
1.47672e-06
5.72371e-05
8.8458e-05
3.57772e-05
2.06419e-07
4.49642e-07
2.44988e-08
2.89103e-08
4.61743e-09
1.10625e-09
2.54505e-10
1.58186e-10
1.62378e-10
1.49821e-10
1.18111e-10
8.23411e-11
5.2263e-11
3.05584e-11
1.47589e-11
2.5125e-12
1.38124e-15
2.28577e-14
2.533e-13
1.85594e-12
1.08284e-11
6.50343e-11
6.75577e-10
1.05947e-08
1.5393e-07
7.65427e-06
2.52073e-05
5.34618e-05
0.00023122
2.00175e-05
8.3038e-08
1.5561e-06
2.08765e-05
0.000102234
6.56805e-05
1.36074e-05
1.27265e-05
1.2073e-05
5.13982e-05
6.82818e-05
6.35e-05
4.0821e-05
3.49508e-06
4.81299e-06
2.78709e-06
2.44019e-07
5.8911e-06
8.98313e-05
8.96501e-05
3.05613e-05
2.15772e-07
5.6453e-07
1.53982e-08
1.08402e-08
2.74494e-09
6.24493e-10
1.58076e-10
1.58005e-10
1.62235e-10
1.47221e-10
1.12972e-10
7.79487e-11
4.91945e-11
2.7882e-11
1.1703e-11
1.3327e-12
1.19424e-15
2.05121e-14
2.2937e-13
1.57856e-12
8.28981e-12
4.84913e-11
5.80477e-10
9.74218e-09
1.52388e-07
6.82191e-06
2.52816e-05
0.000226985
0.000199656
1.05781e-06
8.23206e-08
2.24153e-07
2.91173e-07
3.01852e-06
4.9045e-06
1.36254e-05
1.31688e-05
1.19745e-05
2.4713e-06
1.0934e-06
9.67496e-07
2.9522e-06
2.92704e-06
5.03996e-07
3.11246e-07
2.64261e-09
8.86243e-06
8.98313e-05
8.98313e-05
1.59474e-05
2.1206e-07
5.6259e-07
1.54286e-09
8.58891e-10
1.50449e-09
2.15969e-10
1.57706e-10
1.57939e-10
1.61761e-10
1.41654e-10
1.06239e-10
7.20802e-11
4.4399e-11
2.33571e-11
7.997e-12
5.43717e-13
1.07867e-15
1.87121e-14
2.08816e-13
1.37898e-12
6.6964e-12
3.84995e-11
5.44244e-10
9.44069e-09
1.71451e-07
4.37206e-06
2.16963e-05
0.00022967
7.74411e-05
8.22535e-08
8.22967e-08
8.23206e-08
3.68302e-07
7.98178e-07
1.15178e-06
2.15471e-07
1.83645e-07
2.15471e-07
1.30308e-06
1.21626e-06
5.42734e-07
3.62875e-07
2.66377e-07
1.42181e-07
1.67763e-08
2.34835e-09
8.2482e-06
8.98313e-05
6.82512e-05
1.32975e-07
2.15139e-07
5.60525e-07
7.76727e-10
5.2964e-10
1.30047e-09
1.5792e-10
1.57077e-10
1.57993e-10
1.59991e-10
1.33752e-10
9.74774e-11
6.40753e-11
3.73753e-11
1.72667e-11
4.52851e-12
1.56054e-13
9.97832e-16
1.69546e-14
1.88177e-13
1.23903e-12
5.8913e-12
3.33249e-11
5.33526e-10
9.63873e-09
1.81819e-07
8.71363e-07
1.20534e-06
0.00022967
8.56535e-05
8.22413e-08
8.22535e-08
8.24628e-08
2.96358e-07
3.03932e-07
1.17461e-06
3.71159e-07
1.71201e-07
9.36358e-07
1.50345e-06
1.18635e-06
1.32259e-07
2.60714e-08
2.55886e-08
1.43854e-08
8.31757e-09
2.23813e-09
8.43359e-06
8.96886e-05
1.00293e-05
3.32924e-08
1.86153e-07
5.51555e-07
4.76869e-10
4.48641e-10
1.33745e-09
1.57337e-10
1.56734e-10
1.57913e-10
1.56173e-10
1.23794e-10
8.58136e-11
5.34903e-11
2.83684e-11
1.08459e-11
2.06337e-12
2.49912e-14
9.21853e-16
1.49844e-14
1.65796e-13
1.12558e-12
5.47732e-12
3.06362e-11
5.23382e-10
1.00832e-08
1.2715e-07
1.74292e-06
0.000120755
0.00022967
9.19687e-05
8.22528e-08
8.22464e-08
1.751e-07
2.5907e-07
4.25431e-07
1.90625e-06
7.20981e-08
3.61981e-08
5.51834e-08
1.51912e-06
1.56019e-06
4.58872e-07
7.77743e-09
2.42014e-09
2.07777e-09
2.32194e-09
2.17463e-09
9.93568e-06
8.88632e-05
1.27443e-07
1.75723e-08
9.99767e-08
1.43982e-07
3.1785e-10
2.66081e-10
1.00892e-09
1.56734e-10
1.5642e-10
1.57688e-10
1.49877e-10
1.10075e-10
7.08772e-11
4.07679e-11
1.87281e-11
5.61411e-12
7.4492e-13
6.8384e-16
8.3081e-16
1.2764e-14
1.41626e-13
1.01065e-12
5.14116e-12
2.87576e-11
5.09079e-10
9.53201e-09
4.60818e-08
6.93454e-06
0.000228726
0.000229392
5.57824e-05
8.22406e-08
8.22672e-08
9.49291e-08
2.57497e-06
1.39836e-05
1.70067e-06
3.77867e-08
3.58693e-08
3.63508e-08
3.72814e-07
1.45558e-06
5.03674e-07
2.52392e-09
2.07775e-09
2.07632e-09
2.0628e-09
2.11508e-09
1.27393e-05
7.43163e-05
1.5193e-08
1.48406e-08
1.8082e-08
2.12402e-08
2.60595e-09
1.67452e-10
2.9646e-10
1.56766e-10
1.56497e-10
1.5709e-10
1.38695e-10
9.12401e-11
5.36538e-11
2.75386e-11
1.04139e-11
2.34316e-12
2.10726e-13
-1.2363e-18
7.15641e-16
1.04279e-14
1.16604e-13
8.76357e-13
4.711e-12
2.76025e-11
4.74599e-10
5.76606e-09
2.18003e-08
8.32351e-06
0.000159534
0.000129296
1.34819e-05
8.22672e-08
8.38698e-08
9.66753e-05
0.000289773
7.11135e-05
5.56849e-07
2.65295e-07
7.85507e-08
4.00355e-08
3.93121e-08
4.6242e-08
2.08291e-07
4.58729e-08
2.0779e-09
2.06136e-09
2.06089e-09
2.06877e-09
1.19581e-05
3.65322e-05
8.84475e-09
1.25138e-08
1.14344e-08
1.68726e-08
9.62216e-09
1.5924e-10
1.55155e-10
1.57582e-10
1.57971e-10
1.54184e-10
1.18353e-10
6.87789e-11
3.6462e-11
1.60358e-11
4.75928e-12
7.75238e-13
4.52783e-14
-2.45822e-19
5.81465e-16
8.17443e-15
9.2063e-14
7.20538e-13
4.1155e-12
2.6839e-11
3.94594e-10
2.62636e-09
8.28325e-08
8.56669e-06
8.45276e-06
3.98164e-06
1.08382e-06
8.94685e-08
3.10166e-05
0.000357868
0.000357868
0.00018306
2.25861e-06
7.40924e-07
5.98221e-07
5.00659e-07
8.54693e-08
2.23116e-08
2.68233e-08
2.70023e-08
2.99828e-09
2.04841e-09
2.05193e-09
6.65931e-08
3.21098e-06
6.35568e-06
6.96479e-09
2.00223e-08
7.65667e-09
5.70551e-09
1.21527e-08
1.66925e-10
1.51426e-10
1.58646e-10
1.58531e-10
1.43343e-10
8.99767e-11
4.64962e-11
2.18447e-11
7.86025e-12
1.75654e-12
1.99209e-13
6.72394e-15
-4.7791e-20
4.44909e-16
6.17607e-15
6.99194e-14
5.62905e-13
3.42361e-12
2.4475e-11
2.97357e-10
2.16216e-09
1.39643e-07
5.86597e-06
5.85028e-06
0.000129836
2.32065e-06
1.59297e-06
0.000183426
0.000357868
0.000357868
0.000266262
4.52314e-06
4.98308e-07
5.33128e-07
6.30519e-07
5.02235e-07
2.58914e-08
6.17465e-09
6.50148e-09
2.90766e-09
2.05865e-09
2.05193e-09
1.9631e-06
2.57353e-05
1.19747e-06
5.63376e-09
2.77535e-08
1.05778e-08
6.74544e-10
7.68717e-09
1.50034e-10
1.49337e-10
1.58527e-10
1.56487e-10
1.17219e-10
6.02597e-11
2.80602e-11
1.13208e-11
3.17872e-12
5.14954e-13
3.79481e-14
2.67145e-16
-9.11162e-21
3.24795e-16
4.56649e-15
5.26431e-14
4.35317e-13
2.79641e-12
2.12363e-11
2.37145e-10
2.39526e-09
1.13692e-07
4.24378e-06
3.07143e-05
0.000152104
1.0331e-05
6.36494e-06
0.000357615
0.000357868
0.000357868
0.00017414
4.50675e-07
1.2728e-08
8.24463e-09
3.19515e-07
4.94612e-07
1.80749e-07
1.90033e-09
1.69333e-09
1.79287e-09
2.09526e-09
2.23466e-09
5.5051e-06
2.62725e-05
8.39498e-06
4.1854e-09
2.77534e-08
1.58467e-08
2.32009e-10
2.94478e-10
1.49337e-10
1.49446e-10
1.58155e-10
1.41689e-10
8.10792e-11
3.58225e-11
1.50215e-11
4.96153e-12
1.03931e-12
1.15845e-13
4.41901e-15
3.11292e-18
-1.70865e-21
2.32723e-16
3.40827e-15
4.13118e-14
3.5265e-13
2.32001e-12
1.8516e-11
2.1537e-10
2.79295e-09
6.76313e-08
4.47446e-06
0.000149735
0.000152172
2.16125e-05
2.38119e-05
0.000357843
0.000357868
0.000357843
5.72412e-05
1.12592e-07
1.15745e-08
5.12645e-09
2.67357e-09
3.64803e-07
1.73722e-07
1.69329e-09
1.64636e-09
1.64638e-09
1.69919e-09
4.27182e-09
1.47356e-05
2.65924e-05
1.37637e-05
2.58194e-09
2.77654e-08
1.44721e-08
1.77428e-10
1.50438e-10
1.49367e-10
1.48547e-10
1.52838e-10
1.06907e-10
4.79174e-11
1.91727e-11
7.00157e-12
1.79113e-12
2.67432e-13
1.90536e-14
2.3624e-16
6.97411e-19
-3.15794e-22
1.68543e-16
2.62781e-15
3.41698e-14
3.00781e-13
1.96592e-12
1.69049e-11
2.18345e-10
2.73507e-09
1.46142e-08
6.30752e-06
0.000152172
0.000152172
3.0425e-05
2.48998e-05
0.000332326
0.000357843
0.000277277
7.7141e-06
5.75355e-07
2.38209e-07
3.46785e-09
2.20809e-09
1.16816e-08
8.69388e-08
1.22094e-08
1.69336e-09
1.64638e-09
1.80814e-09
2.72029e-06
2.79554e-05
2.74208e-05
5.13105e-06
1.37928e-09
2.02763e-08
8.5262e-09
1.69004e-10
1.59541e-10
1.6558e-10
1.42219e-10
1.31445e-10
6.62496e-11
2.50058e-11
9.21714e-12
2.75512e-12
5.16528e-13
5.10861e-14
1.48993e-15
2.62465e-17
1.29479e-19
-5.76091e-23
1.23703e-16
2.06357e-15
2.85458e-14
2.58562e-13
1.70054e-12
1.62067e-11
2.26556e-10
1.92846e-09
1.69944e-09
1.21686e-05
0.000108328
0.000152172
4.53229e-05
2.68065e-05
0.000194959
0.000357639
0.000168139
9.71847e-07
8.64251e-07
4.07204e-07
3.92722e-09
1.47978e-09
1.28491e-09
1.83555e-08
9.49552e-09
1.77525e-09
1.6343e-09
3.67683e-09
1.08422e-05
2.79554e-05
2.72466e-05
-2.04963e-10
9.46935e-10
1.87174e-09
1.59153e-09
1.60709e-10
1.82972e-10
1.71597e-10
1.23177e-10
9.18913e-11
3.50298e-11
1.18606e-11
3.87758e-12
8.82709e-13
1.13605e-13
6.32967e-15
1.3332e-16
5.92694e-18
2.36065e-20
-1.03857e-23
8.99929e-17
1.60292e-15
2.33238e-14
2.18372e-13
1.54187e-12
1.57184e-11
2.29852e-10
1.2893e-09
1.38956e-09
1.26401e-05
1.27048e-05
0.000151954
5.39201e-05
2.73365e-05
0.000162214
0.000356002
0.000128882
2.96114e-07
8.9498e-08
1.08777e-07
2.15175e-08
1.2849e-09
1.26397e-09
1.24029e-09
4.73822e-09
1.89631e-09
1.87815e-09
1.20666e-08
1.45525e-05
2.79554e-05
1.33176e-05
-2.49273e-09
7.24028e-10
4.21051e-10
1.4357e-10
1.60673e-10
1.95298e-10
1.56899e-10
9.13024e-11
5.25706e-11
1.6396e-11
5.10799e-12
1.37029e-12
2.21552e-13
1.81959e-14
5.39642e-16
3.05323e-17
1.09439e-18
4.28584e-21
-1.85219e-24
6.48483e-17
1.28195e-15
1.99029e-14
1.93232e-13
1.49027e-12
1.49392e-11
2.50994e-10
1.8371e-09
1.36881e-09
7.27175e-06
5.603e-05
0.000151774
4.40852e-05
2.88841e-05
0.000215707
0.000353279
8.38624e-05
1.17198e-07
9.44923e-09
6.26505e-09
8.31853e-09
2.64729e-09
1.24029e-09
1.23276e-09
1.24169e-09
1.46886e-09
1.63563e-09
3.01928e-07
1.79753e-05
2.72977e-05
2.35901e-08
6.9839e-10
6.38535e-10
4.92627e-10
1.17638e-10
1.57163e-10
1.8842e-10
1.17996e-10
5.77653e-11
2.52933e-11
6.96837e-12
1.93306e-12
3.89483e-13
4.14181e-14
1.67744e-15
8.65382e-17
5.89075e-18
2.00811e-19
7.77015e-22
-3.27068e-25
5.04299e-17
1.19108e-15
1.94631e-14
1.90502e-13
1.49403e-12
1.43713e-11
2.92428e-10
3.43634e-09
1.24391e-09
6.24234e-06
0.000150937
0.000151521
2.36807e-05
3.90169e-05
0.000236596
0.0002339
3.07506e-05
5.63953e-08
6.26505e-09
4.56176e-09
4.15612e-09
1.95743e-09
1.23275e-09
1.23276e-09
1.23274e-09
1.24211e-09
1.52178e-09
4.17533e-08
1.50011e-05
4.52989e-06
-2.49668e-09
8.1062e-10
7.41761e-10
5.72221e-10
9.75338e-11
1.43984e-10
1.59177e-10
7.48535e-11
3.12965e-11
1.0687e-11
2.67809e-12
6.12488e-13
8.47462e-14
5.16903e-15
2.09602e-16
1.9249e-17
1.11552e-18
3.66981e-20
1.40509e-22
-5.7234e-26
4.63495e-17
1.22528e-15
2.01897e-14
1.95907e-13
1.5072e-12
1.42956e-11
3.29847e-10
3.55319e-09
1.18878e-09
6.48298e-06
0.00014947
0.000120598
1.33632e-05
6.97728e-05
0.000237453
0.000132953
5.22435e-07
2.27557e-08
1.08869e-08
1.07392e-08
2.08185e-08
4.58754e-09
1.23525e-09
1.23276e-09
1.23137e-09
1.5184e-09
1.35487e-06
7.14512e-06
2.77602e-06
2.5953e-08
-5.56108e-10
5.2818e-10
1.57214e-09
5.81673e-10
8.32469e-11
1.18469e-10
1.19414e-10
4.18357e-11
1.45127e-11
4.07489e-12
9.00004e-13
1.54646e-13
1.37599e-14
5.39712e-16
4.94036e-17
3.74972e-18
2.10235e-19
6.68843e-21
2.53929e-23
-9.9323e-27
4.66413e-17
1.36903e-15
2.25735e-14
2.11337e-13
1.51128e-12
1.43245e-11
3.59401e-10
3.55942e-09
1.17363e-09
1.6606e-06
0.000147208
3.96396e-05
1.31924e-05
0.000165301
0.000237453
0.000106305
1.94978e-07
2.6012e-08
1.75501e-08
1.79236e-08
4.15687e-08
8.34045e-09
1.25452e-09
1.23522e-09
1.25057e-09
2.23156e-09
1.41812e-06
1.53786e-05
2.59461e-06
5.08788e-09
5.43551e-10
4.53966e-10
1.59414e-09
5.50687e-10
7.72371e-11
9.99184e-11
7.69406e-11
2.02469e-11
5.82523e-12
1.39447e-12
2.51841e-13
2.95172e-14
1.40413e-15
1.00668e-16
9.88321e-18
7.26468e-19
3.94616e-20
1.21585e-21
4.56311e-24
-1.71032e-27
4.8954e-17
1.70894e-15
2.69371e-14
2.30545e-13
1.49988e-12
1.42048e-11
3.55845e-10
3.5533e-09
1.17114e-09
1.33886e-08
0.000146563
3.40692e-05
1.31056e-05
0.000152436
0.000237453
5.94191e-05
1.38576e-07
2.66271e-08
2.33201e-08
2.38861e-08
4.17064e-08
3.5941e-08
1.28587e-09
1.24783e-09
1.72306e-09
9.06934e-07
1.33184e-05
1.613e-05
3.57814e-06
9.22065e-10
3.49576e-10
3.29752e-10
1.40811e-09
2.57256e-10
7.53142e-11
8.38268e-11
3.98704e-11
8.38617e-12
2.06196e-12
4.13342e-13
5.55837e-14
4.02003e-15
1.94898e-16
2.24523e-17
1.96087e-18
1.40141e-19
7.38665e-21
2.20632e-22
8.15098e-25
-2.9317e-28
5.68432e-17
2.26432e-15
3.20115e-14
2.36807e-13
1.46971e-12
1.4611e-11
3.15615e-10
2.5747e-09
1.17207e-09
6.68536e-05
0.000145691
2.45709e-05
1.31056e-05
0.000146492
0.000208734
2.63284e-05
1.37928e-07
3.15771e-08
2.87229e-08
2.89034e-08
4.17283e-08
4.17028e-08
1.28823e-09
1.3077e-09
2.91216e-09
2.04393e-06
1.71701e-05
1.66816e-05
1.1797e-07
2.9795e-10
1.66542e-10
2.38096e-10
5.20539e-10
9.98868e-11
7.18091e-11
5.75381e-11
1.64217e-11
3.00862e-12
6.43811e-13
1.01255e-13
9.45727e-15
4.57294e-16
4.66588e-17
4.54965e-18
3.87399e-19
2.69396e-20
1.37926e-21
3.99676e-23
1.45216e-25
-5.00884e-29
7.29332e-17
2.92101e-15
3.56964e-14
2.35928e-13
1.47733e-12
1.74853e-11
2.50599e-10
7.16601e-10
8.86931e-08
9.20845e-05
7.85449e-05
1.3841e-05
1.38185e-05
0.000164395
0.000133345
1.68996e-05
1.75286e-06
5.50576e-07
2.86385e-08
2.01004e-08
4.1739e-08
4.17286e-08
1.40608e-09
1.92007e-09
6.79448e-07
1.36908e-05
1.71725e-05
1.61686e-05
6.37943e-10
1.66464e-10
1.35406e-10
1.81115e-10
1.41242e-10
7.82805e-11
6.07944e-11
2.91803e-11
5.5456e-12
9.52614e-13
1.72785e-13
1.94831e-14
1.10163e-15
8.45897e-17
9.65571e-18
9.18108e-19
7.62711e-20
5.1666e-21
2.57105e-22
7.23281e-24
2.54536e-26
-8.48225e-30
9.84204e-17
3.56175e-15
3.7458e-14
2.36161e-13
1.55894e-12
2.05563e-11
2.04272e-10
8.95199e-10
8.04213e-07
8.31059e-05
1.38741e-05
1.38109e-05
3.93716e-05
0.000164395
6.2239e-05
7.34988e-06
7.29513e-06
3.22629e-06
2.00411e-08
1.92763e-08
4.17283e-08
2.79527e-08
1.99589e-09
3.86603e-09
1.45738e-06
1.76689e-05
1.74219e-05
1.02592e-05
4.93656e-11
1.13674e-10
1.25325e-10
1.64562e-10
1.04112e-10
6.19479e-11
3.88408e-11
1.12592e-11
1.63287e-12
2.66724e-13
3.83825e-14
2.9037e-15
1.58415e-16
1.9419e-17
1.98389e-18
1.84666e-19
1.49763e-20
9.88946e-22
4.78656e-23
1.30526e-24
4.57984e-27
-1.42583e-30
1.35906e-16
4.17374e-15
3.83705e-14
2.41868e-13
2.10959e-12
2.36203e-11
8.22853e-11
2.02992e-08
5.94978e-06
9.02942e-06
3.99302e-05
1.38109e-05
0.000147218
0.000164395
3.07716e-05
7.49616e-06
8.88583e-06
4.17647e-06
1.92565e-08
1.8891e-08
2.86224e-08
2.0791e-08
3.86444e-09
5.88276e-07
1.40498e-05
1.76689e-05
1.76689e-05
1.99271e-07
6.3652e-12
8.71199e-11
1.23053e-10
1.50317e-10
8.03254e-11
4.10426e-11
1.8163e-11
3.48558e-12
4.38221e-13
6.48966e-14
6.91574e-15
3.54874e-16
3.69433e-17
4.05647e-18
4.0646e-19
3.70512e-20
2.93616e-21
1.89082e-22
8.90803e-24
2.39193e-25
8.19419e-28
-2.37739e-31
1.89701e-16
4.84491e-15
3.99087e-14
2.68767e-13
3.05812e-12
2.45167e-11
5.92209e-11
1.05421e-07
5.91232e-06
1.17583e-06
4.5584e-05
3.43118e-05
0.000149152
7.87812e-05
3.53161e-06
3.31755e-06
8.97213e-06
4.54987e-06
2.02612e-08
1.88548e-08
1.88107e-08
1.91082e-08
1.38297e-08
1.23133e-06
1.77955e-05
1.77322e-05
1.55684e-05
-1.20195e-09
8.86603e-11
7.96403e-11
1.21379e-10
1.28024e-10
5.2297e-11
2.14861e-11
6.46833e-12
9.25975e-13
1.07539e-13
1.33968e-14
9.92835e-16
6.36498e-17
7.95681e-18
8.44667e-19
8.3096e-20
7.42127e-21
5.7503e-22
3.61355e-23
1.65893e-24
4.3827e-26
1.4761e-28
-3.93352e-32
2.6661e-16
5.75227e-15
4.41335e-14
3.32918e-13
3.75129e-12
2.21722e-11
1.11406e-09
2.25472e-07
1.47578e-06
1.06535e-06
4.53501e-05
3.79475e-05
0.000149152
8.2502e-05
3.58773e-06
3.18637e-06
8.07333e-06
6.86734e-06
6.48762e-08
1.88341e-08
1.88428e-08
1.95046e-08
7.18126e-07
1.65579e-05
1.77955e-05
1.77955e-05
3.85386e-06
-1.36189e-09
5.91222e-11
7.78793e-11
1.15475e-10
9.1955e-11
2.74855e-11
8.9323e-12
1.91269e-12
2.21345e-13
2.36178e-14
2.35625e-15
1.36389e-16
1.50865e-17
1.68159e-18
1.75532e-19
1.6965e-20
1.48571e-21
1.1259e-22
6.90779e-24
3.09171e-25
8.01669e-27
2.66481e-29
-6.45655e-33
3.76086e-16
7.0738e-15
5.32959e-14
4.26084e-13
4.6083e-12
2.89203e-11
1.9723e-09
2.10804e-07
3.41187e-07
3.1811e-05
3.43381e-05
3.41206e-05
0.000149152
5.62574e-05
3.87276e-06
3.06426e-06
3.1957e-06
7.88572e-06
2.24784e-08
1.88452e-08
1.89695e-08
2.54003e-08
6.25031e-06
1.78238e-05
1.78097e-05
1.6338e-05
-2.21327e-09
4.30396e-11
4.78604e-11
7.39224e-11
1.02062e-10
5.22794e-11
1.17601e-11
3.07591e-12
5.0015e-13
4.82318e-14
4.54539e-15
3.54386e-16
2.70789e-17
3.23755e-18
3.5507e-19
3.64415e-20
3.46188e-21
2.97438e-22
2.20578e-23
1.32233e-24
5.7731e-26
1.46424e-27
4.82244e-30
-1.06036e-33
5.05608e-16
8.59032e-15
6.6625e-14
5.19563e-13
5.20334e-12
4.68724e-11
1.76709e-09
1.1252e-07
1.01488e-06
4.46629e-05
2.9819e-05
0.000132177
0.000133317
9.1913e-06
2.60157e-06
2.88927e-06
9.16644e-06
7.75081e-06
1.95614e-08
1.89993e-08
2.11395e-08
2.1905e-06
1.78238e-05
1.78311e-05
1.78238e-05
3.03045e-06
8.76657e-10
-1.44253e-10
4.33237e-11
7.02891e-11
7.7956e-11
2.36181e-11
4.2527e-12
9.20337e-13
1.17951e-13
9.50324e-15
7.81328e-16
5.62837e-17
6.27697e-18
6.93449e-19
7.49596e-20
7.56464e-21
7.06824e-22
5.95986e-23
4.32738e-24
2.53638e-25
1.08121e-26
2.6712e-28
8.75505e-31
-1.74306e-34
5.87085e-16
9.36692e-15
7.68489e-14
5.81893e-13
5.30901e-12
6.72822e-11
1.38526e-09
4.41712e-09
6.35142e-06
2.22691e-05
2.84966e-05
0.00014754
7.70648e-06
2.48084e-06
2.48084e-06
6.10819e-06
1.43358e-05
6.2034e-06
1.97998e-08
2.11575e-08
1.97506e-06
6.7447e-06
1.72136e-05
1.77743e-05
6.3717e-06
1.54184e-08
1.06479e-10
4.13762e-11
4.11062e-11
6.22908e-11
4.79745e-11
8.61731e-12
1.35853e-12
2.4639e-13
2.49525e-14
1.69105e-15
1.26274e-16
1.1858e-17
1.36028e-18
1.48688e-19
1.58246e-20
1.5717e-21
1.44528e-22
1.19636e-23
8.51073e-25
4.87952e-26
2.03285e-27
4.86813e-29
1.5842e-31
-2.85999e-35
5.8936e-16
9.26315e-15
8.06287e-14
6.22666e-13
5.38861e-12
6.53844e-11
5.63479e-10
1.46259e-09
1.73597e-05
4.06107e-05
2.90703e-05
0.00014754
1.68299e-05
2.9643e-06
2.49406e-06
1.44457e-05
1.44111e-05
6.77624e-06
2.14855e-08
1.97502e-06
5.89103e-06
6.72026e-06
3.20504e-06
2.60431e-06
8.13812e-08
3.02673e-09
6.21842e-11
3.37554e-11
3.73174e-11
5.07153e-11
2.27366e-11
2.63487e-12
3.94566e-13
5.96918e-14
4.72769e-15
2.83142e-16
2.35794e-17
2.6967e-18
2.94829e-19
3.19251e-20
3.3452e-21
3.27153e-22
2.96239e-23
2.40807e-24
1.67961e-25
9.42693e-27
3.84082e-28
8.8665e-30
2.84126e-32
-4.68571e-36
5.62901e-16
8.71946e-15
8.203e-14
6.7821e-13
6.21534e-12
7.76838e-11
2.61302e-10
1.68662e-09
1.70242e-05
0.000109399
9.70925e-05
0.000138047
7.88943e-06
5.27936e-06
4.45195e-06
1.44457e-05
1.44467e-05
5.49141e-06
1.90685e-07
5.4944e-06
5.77104e-06
4.83929e-06
6.81029e-08
7.23011e-08
1.53089e-08
6.26104e-10
3.76861e-11
2.87803e-11
3.33721e-11
3.58242e-11
8.42921e-12
7.13738e-13
1.05679e-13
1.31593e-14
8.23907e-16
4.99928e-17
5.35404e-18
5.95639e-19
6.41667e-20
6.86536e-21
7.09064e-22
6.83696e-23
6.09138e-24
4.86476e-25
3.32888e-26
1.83087e-27
7.29983e-29
1.62054e-30
5.8339e-33
-7.6694e-37
5.04518e-16
7.89151e-15
8.41539e-14
8.5093e-13
8.33308e-12
6.9665e-11
1.58922e-10
1.71116e-09
1.17417e-05
0.000109399
0.000109399
1.08535e-05
3.31384e-06
2.64825e-07
5.45576e-06
1.44467e-05
1.44445e-05
3.82692e-06
1.82573e-06
5.40002e-06
5.51613e-06
5.48643e-07
1.34719e-08
1.34914e-08
3.55896e-09
1.45151e-10
2.58323e-11
2.4397e-11
2.91638e-11
1.92457e-11
2.48964e-12
1.81699e-13
2.63766e-14
2.67026e-15
1.41222e-16
1.07266e-17
1.25298e-18
1.32024e-19
1.40485e-20
1.48445e-21
1.50905e-22
1.43609e-23
1.25793e-24
9.87482e-26
6.63401e-27
3.57867e-28
1.3972e-29
3.03121e-31
1.09974e-33
-1.25455e-37
4.66867e-16
7.70471e-15
9.52859e-14
9.9938e-13
5.38068e-12
2.27679e-11
3.34284e-10
5.17077e-07
4.91255e-06
7.92266e-05
8.47541e-05
4.46962e-08
1.34677e-07
2.18896e-07
6.40615e-06
1.44467e-05
1.4445e-05
9.088e-06
1.48017e-06
5.28753e-06
3.80732e-06
1.40116e-08
3.01197e-09
2.716e-09
5.34407e-10
5.0146e-11
2.10744e-11
2.0796e-11
2.19913e-11
7.57286e-12
6.08179e-13
4.50438e-14
6.21502e-15
5.12903e-16
2.62956e-17
2.6394e-18
2.9311e-19
2.94644e-20
3.11032e-21
3.23382e-22
3.22823e-23
3.03215e-24
2.61167e-25
2.01611e-26
1.33089e-27
7.04761e-29
2.69652e-30
5.71894e-32
2.08685e-34
-2.04974e-38
4.72792e-16
7.99639e-15
1.08853e-13
9.20725e-13
2.40366e-12
2.96024e-11
1.61494e-09
6.09876e-06
3.88137e-05
1.62398e-06
2.75842e-06
4.45138e-08
4.43042e-08
9.91712e-08
8.24608e-06
1.4445e-05
1.44467e-05
1.3884e-05
3.39498e-08
2.46853e-06
9.27967e-07
2.86012e-09
7.14759e-10
6.53622e-10
1.59896e-10
2.58904e-11
1.78892e-11
1.77126e-11
1.24377e-11
2.31674e-12
1.32085e-13
1.10199e-14
1.40555e-15
9.8212e-17
5.77307e-18
6.61527e-19
6.86467e-20
6.69998e-21
6.99039e-22
7.10943e-23
6.96715e-24
6.44418e-25
5.46185e-26
4.14436e-27
2.69072e-28
1.3999e-29
5.25301e-31
1.08964e-32
3.95147e-35
-6.17885e-39
5.30846e-16
9.40529e-15
1.35483e-13
1.23252e-12
3.63903e-12
5.90838e-11
2.49711e-09
5.39949e-06
5.34632e-05
1.29098e-07
4.25866e-08
4.25859e-08
4.25866e-08
5.11179e-08
7.46651e-06
1.44467e-05
1.44362e-05
5.72486e-06
5.96978e-09
2.34046e-08
2.79361e-09
5.46983e-10
2.7067e-10
2.44107e-10
5.97754e-11
1.78138e-11
1.47436e-11
1.24699e-11
5.13038e-12
5.77539e-13
2.78176e-14
2.68812e-15
3.11832e-16
2.00289e-17
1.47647e-18
1.67389e-19
1.63841e-20
1.59011e-21
1.58638e-22
1.59136e-23
1.52179e-24
1.38029e-25
1.15319e-26
8.5853e-28
5.48796e-29
2.80762e-30
1.03417e-31
2.09913e-33
7.35426e-36
-6.19415e-40
7.01231e-16
1.37082e-14
1.99912e-13
1.28409e-12
2.36318e-12
8.70077e-11
1.30102e-09
9.55445e-07
5.40355e-05
1.95987e-05
4.36873e-06
4.25853e-08
4.49295e-08
4.26177e-08
4.30615e-06
1.44358e-05
1.07916e-05
6.13979e-09
1.23573e-09
3.5097e-09
5.71117e-10
1.97841e-10
1.20107e-10
9.62809e-11
2.71691e-11
1.43808e-11
1.12022e-11
6.7342e-12
1.63629e-12
1.24269e-13
6.06532e-15
6.63324e-16
6.99085e-17
4.56539e-18
4.07302e-19
4.33793e-20
4.0501e-21
3.91144e-22
3.69431e-23
3.62446e-24
3.39143e-25
2.99417e-26
2.4587e-27
1.79524e-28
1.1303e-29
5.69152e-31
2.05944e-32
4.09777e-34
1.30343e-36
-7.77238e-41
9.94156e-16
2.22547e-14
2.37628e-13
6.50294e-13
5.60222e-12
3.48036e-10
7.37237e-07
3.90279e-05
5.42301e-05
5.44136e-05
3.39511e-05
4.49287e-08
2.5013e-06
1.17154e-08
7.19425e-07
2.91234e-06
2.01867e-06
1.21337e-09
3.49582e-10
8.27185e-10
1.80696e-10
9.9326e-11
7.95933e-11
7.38097e-11
2.37435e-11
1.13752e-11
6.8575e-12
2.76864e-12
4.29772e-13
2.51631e-14
1.42577e-15
1.67741e-16
1.6359e-17
1.16525e-18
1.14454e-19
1.15442e-20
1.06014e-21
9.71643e-23
8.99998e-24
8.3951e-25
7.74436e-26
6.62075e-27
5.29629e-28
3.79892e-29
2.35301e-30
1.16729e-31
4.15312e-33
8.1026e-35
1.98407e-37
-6.70927e-41
1.48118e-15
3.17075e-14
2.29694e-13
6.09771e-13
2.00396e-11
1.08153e-09
2.09245e-06
5.39947e-05
5.40355e-05
5.41893e-05
1.94723e-05
3.84927e-06
1.16937e-05
1.16067e-09
2.54788e-08
4.63456e-08
3.96034e-09
5.09466e-10
2.16234e-10
2.87535e-10
9.93584e-11
6.67731e-11
6.65559e-11
5.49203e-11
1.93177e-11
7.52493e-12
3.37411e-12
9.07614e-13
1.00152e-13
5.34285e-15
3.68016e-16
4.37801e-17
4.08135e-18
3.21529e-19
3.22298e-20
3.16569e-21
2.91367e-22
2.51436e-23
2.26497e-24
2.03788e-25
1.79241e-26
1.50759e-27
1.16067e-28
8.17185e-30
4.95538e-31
2.42434e-32
8.48877e-34
1.62445e-35
2.88898e-38
-1.64219e-41
2.60237e-15
4.2739e-14
1.23716e-13
1.11161e-12
7.32294e-11
6.73464e-09
1.26001e-05
5.28489e-05
4.62032e-05
5.36614e-05
1.19353e-05
1.50519e-05
1.17763e-05
1.11418e-09
2.31668e-09
2.98832e-09
5.09079e-10
1.58202e-10
1.5332e-10
1.42999e-10
6.37379e-11
5.68395e-11
5.38736e-11
3.50561e-11
1.18724e-11
4.06201e-12
1.33853e-12
2.54161e-13
2.26608e-14
1.27838e-15
1.03064e-16
1.18208e-17
1.08666e-18
9.22701e-20
9.13001e-21
8.89897e-22
8.18322e-23
6.95172e-24
5.81927e-25
5.19601e-26
4.32263e-27
3.52612e-28
2.62855e-29
1.78743e-30
1.05642e-31
5.10289e-33
1.76026e-34
3.30539e-36
-1.23216e-39
-4.13964e-41
4.10041e-15
5.14626e-14
1.36644e-13
3.44134e-12
2.53098e-10
6.44004e-07
2.77877e-05
3.49401e-05
2.6505e-05
3.8051e-05
1.01136e-05
1.50702e-05
5.20927e-06
1.08347e-09
9.19299e-10
6.20741e-10
1.16397e-10
9.91293e-11
1.36795e-10
1.14475e-10
5.28703e-11
4.83403e-11
3.9411e-11
2.01981e-11
6.28887e-12
1.841e-12
4.50109e-13
6.63458e-14
5.42771e-15
3.46159e-16
3.03658e-17
3.30021e-18
3.04786e-19
2.69541e-20
2.61862e-21
2.55352e-22
2.33958e-23
2.00489e-24
1.59747e-25
1.33777e-26
1.10509e-27
8.4916e-29
6.17448e-30
3.99041e-31
2.29662e-32
1.08942e-33
3.70591e-35
6.84254e-37
-1.32852e-39
-5.25114e-42
7.41702e-15
6.43121e-14
1.83667e-13
7.0111e-12
2.42535e-09
2.229e-06
1.351e-05
1.02587e-05
4.02518e-05
3.25739e-05
5.93909e-06
6.49161e-06
1.40901e-08
1.35982e-08
3.86125e-08
9.04788e-09
7.03434e-11
7.97947e-11
1.19412e-10
9.3823e-11
4.73219e-11
3.88238e-11
2.63524e-11
1.0739e-11
2.96154e-12
7.2319e-13
1.38887e-13
1.75377e-14
1.43796e-15
1.02316e-16
9.17983e-18
9.51181e-19