/*--------------------------------*- C++ -*----------------------------------*\
  =========                 |
  \\      /  F ield         | OpenFOAM: The Open Source CFD Toolbox
   \\    /   O peration     | Website:  https://openfoam.org
    \\  /    A nd           | Version:  9
     \\/     M anipulation  |
\*---------------------------------------------------------------------------*/
FoamFile
{
    format      ascii;
    class       volScalarField;
    location    "0.04";
    object      p_rgh;
}
// * * * * * * * * * * * * * * * * * * * * * * * * * * * * * * * * * * * * * //

dimensions      [1 -1 -2 0 0 0 0];

internalField   nonuniform List<scalar> 
5000
(
-0.123876
-0.139438
-0.157688
-0.179298
-0.205052
-0.236029
-0.27389
-0.32122
-0.382942
-0.470698
-0.594867
-0.843316
-8.37236
-431.616
-632.36
-632.677
-632.436
-632.17
-632.1
-632.15
-632.189
-632.218
-632.226
-632.208
-632.173
-632.148
-632.134
-632.047
-631.858
-525.092
-64.1601
-0.484486
-0.475124
-0.426523
-0.389818
-0.360474
-0.327351
-0.292277
-0.257736
-0.225143
-0.195005
-0.167322
-0.141878
-0.118412
-0.0966851
-0.0764985
-0.0576874
-0.0401236
-0.023751
-0.00842464
-0.129928
-0.145883
-0.164435
-0.186118
-0.211581
-0.241621
-0.277571
-0.32154
-0.375759
-0.446908
-0.564749
-0.764936
-0.743391
-383.953
-631.235
-631.387
-630.871
-630.369
-630.175
-630.19
-630.212
-630.233
-630.237
-630.211
-630.171
-630.156
-630.211
-630.14
-629.868
-472.575
-28.9495
-0.425499
-0.46106
-0.399913
-0.367838
-0.344893
-0.31757
-0.286733
-0.254838
-0.223734
-0.19438
-0.167097
-0.141854
-0.118486
-0.0968008
-0.0766221
-0.0577967
-0.0402035
-0.0237919
-0.00838927
-0.135228
-0.151387
-0.169993
-0.191471
-0.216313
-0.245019
-0.278476
-0.318231
-0.364373
-0.417605
-0.508022
-0.605094
-0.533144
-299.496
-630.025
-630.408
-629.467
-628.599
-628.239
-628.221
-628.237
-628.262
-628.272
-628.23
-628.153
-628.088
-628.044
-627.529
-624.478
-340.426
-0.425282
-0.464357
-0.469372
-0.376048
-0.34727
-0.329709
-0.30741
-0.280482
-0.251209
-0.221676
-0.193202
-0.166394
-0.141413
-0.118197
-0.0966064
-0.0764901
-0.0577062
-0.0401405
-0.0237452
-0.00831515
-0.139758
-0.155969
-0.17445
-0.195529
-0.219544
-0.246734
-0.277533
-0.312835
-0.351022
-0.388296
-0.437372
-0.396501
-0.461961
-176.352
-613.97
-629.006
-627.745
-626.666
-626.242
-626.22
-626.256
-626.309
-626.345
-626.276
-626.223
-626.329
-626.544
-625.823
-566.854
-158.444
-0.510898
-0.47039
-0.459754
-0.352876
-0.330553
-0.317758
-0.299366
-0.275463
-0.248236
-0.219954
-0.192181
-0.165749
-0.140971
-0.117874
-0.0963677
-0.0763179
-0.0575897
-0.0400712
-0.0237146
-0.00827235
-0.143498
-0.159659
-0.177907
-0.198475
-0.221571
-0.247237
-0.275572
-0.307016
-0.338841
-0.365442
-0.38331
-0.333106
-0.394713
-67.6915
-528.173
-625.928
-625.455
-624.567
-624.186
-624.197
-624.269
-624.377
-624.48
-624.368
-624.537
-625.179
-626.096
-625.183
-352.086
-21.6073
-0.612918
-0.532219
-0.439239
-0.347032
-0.326427
-0.314146
-0.296475
-0.273514
-0.247065
-0.219292
-0.191798
-0.165496
-0.140774
-0.117711
-0.0962374
-0.0762276
-0.0575433
-0.0400645
-0.0237334
-0.00826375
-0.146509
-0.162543
-0.180485
-0.200493
-0.222673
-0.246957
-0.27328
-0.302084
-0.330934
-0.355811
-0.400302
-0.397741
-0.447761
-15.2748
-333.581
-621.167
-623.456
-622.725
-622.222
-622.208
-622.299
-622.47
-622.661
-622.706
-622.997
-624.29
-625.381
-483.606
-58.3597
-0.366312
-0.733187
-0.542544
-0.406304
-0.35574
-0.330491
-0.316511
-0.297401
-0.273826
-0.247169
-0.219325
-0.191786
-0.16544
-0.140683
-0.117605
-0.0961402
-0.0761588
-0.0575168
-0.0400809
-0.0237569
-0.00822528
-0.148849
-0.164697
-0.18229
-0.201731
-0.22306
-0.246175
-0.270976
-0.298085
-0.326299
-0.352032
-0.418812
-0.567754
-0.576465
-1.13951
-103.464
-521.097
-622.371
-621.359
-620.426
-620.298
-620.399
-620.687
-621.117
-620.912
-620.409
-623.041
-506.185
-83.0989
-0.346732
-0.392932
-0.391707
-0.460121
-0.382648
-0.353182
-0.330641
-0.316069
-0.296472
-0.272772
-0.246204
-0.218508
-0.191109
-0.164881
-0.140233
-0.117266
-0.0959233
-0.0760774
-0.0575859
-0.0403348
-0.024223
-0.00865656
-0.150561
-0.166183
-0.183408
-0.2023
-0.22285
-0.244975
-0.2686
-0.294292
-0.321845
-0.348087
-0.410837
-0.57516
-0.57849
-1.04421
-0.391171
-185.803
-587.966
-619.915
-618.247
-618.234
-618.496
-618.954
-619.433
-617.357
-604.991
-426.443
-79.5377
-0.342366
-0.325698
-0.319273
-0.321043
-0.334724
-0.36658
-0.334935
-0.320246
-0.307878
-0.290033
-0.267698
-0.242267
-0.215469
-0.188793
-0.163134
-0.138941
-0.116358
-0.0953629
-0.0758513
-0.0576916
-0.0408253
-0.0252886
-0.00976507
-0.151686
-0.167057
-0.18391
-0.20228
-0.222122
-0.243373
-0.266003
-0.290307
-0.316156
-0.340503
-0.394062
-0.533108
-0.500087
-0.853495
-0.400714
-0.303397
-181.111
-530.468
-613.864
-615.505
-616.198
-616.206
-594.901
-484.672
-273.376
-45.0482
-0.263633
-0.298634
-0.304325
-0.305105
-0.306387
-0.322629
-0.338715
-0.326057
-0.307692
-0.296837
-0.28053
-0.259774
-0.235924
-0.210236
-0.184784
-0.160085
-0.136642
-0.114648
-0.0941161
-0.0749633
-0.0570453
-0.0402408
-0.0246536
-0.00987708
-0.15226
-0.167367
-0.183851
-0.201733
-0.220941
-0.24141
-0.263154
-0.286263
-0.310057
-0.33373
-0.381204
-0.368574
-0.477972
-0.458358
-0.333169
-0.316139
-0.371007
-91.9387
-279.226
-386.613
-383.37
-313.753
-181.916
-70.5358
-5.59748
-0.778737
-0.512942
-0.299186
-0.290671
-0.29215
-0.294852
-0.316902
-0.326811
-0.319103
-0.294837
-0.284932
-0.270019
-0.250613
-0.228151
-0.204155
-0.179916
-0.156278
-0.13373
-0.112468
-0.0925131
-0.073795
-0.0561745
-0.0394516
-0.0235447
-0.0084647
-0.152316
-0.16715
-0.18328
-0.200713
-0.219366
-0.239167
-0.260145
-0.282337
-0.304568
-0.327034
-0.380079
-0.361963
-0.470294
-0.355438
-0.316852
-0.310716
-0.374114
-0.323559
-0.338724
-3.60964
-0.648512
-0.240351
-0.261757
-0.270237
-0.349296
-0.427827
-0.391261
-0.301589
-0.282093
-0.280229
-0.282717
-0.317333
-0.321535
-0.311021
-0.28359
-0.274133
-0.259598
-0.241297
-0.220137
-0.197531
-0.174629
-0.152221
-0.130762
-0.110448
-0.0913146
-0.0733129
-0.0563311
-0.0401813
-0.0246858
-0.00982002
-0.151878
-0.166438
-0.182231
-0.199258
-0.217439
-0.236706
-0.257077
-0.27856
-0.299773
-0.320536
-0.345682
-0.367103
-0.458186
-0.337026
-0.315824
-0.305579
-0.331416
-0.352184
-0.333178
-0.294079
-0.283693
-0.268598
-0.28026
-0.28288
-0.28056
-0.277925
-0.275814
-0.275546
-0.269727
-0.265825
-0.271191
-0.311091
-0.310504
-0.295146
-0.271414
-0.262621
-0.248923
-0.231773
-0.21199
-0.190835
-0.169366
-0.148309
-0.128083
-0.108874
-0.090726
-0.0735992
-0.0573909
-0.0419222
-0.027016
-0.0126295
-0.150966
-0.165252
-0.180728
-0.197395
-0.215185
-0.234054
-0.254008
-0.275015
-0.295747
-0.315218
-0.340397
-0.434565
-0.441251
-0.316644
-0.312969
-0.307093
-0.312883
-0.29925
-0.291823
-0.289557
-0.281023
-0.271222
-0.257642
-0.251907
-0.249452
-0.255373
-0.263065
-0.261974
-0.258513
-0.256472
-0.262906
-0.290364
-0.294832
-0.2679
-0.2563
-0.249625
-0.237623
-0.222079
-0.203905
-0.184346
-0.16441
-0.144783
-0.12586
-0.107826
-0.0907274
-0.0745281
-0.0591305
-0.0443759
-0.0301353
-0.0164208
-0.149594
-0.163607
-0.178783
-0.195134
-0.212608
-0.231204
-0.250938
-0.271666
-0.292224
-0.309345
-0.328854
-0.420633
-0.356317
-0.312168
-0.311872
-0.310339
-0.311763
-0.301426
-0.290934
-0.280073
-0.272364
-0.265749
-0.26088
-0.257135
-0.254937
-0.255921
-0.257585
-0.2561
-0.25304
-0.25127
-0.25646
-0.277466
-0.280397
-0.246714
-0.245045
-0.238872
-0.228057
-0.213671
-0.196852
-0.178735
-0.160239
-0.141985
-0.124336
-0.107461
-0.0914031
-0.0761284
-0.0615461
-0.0475256
-0.0340011
-0.0210449
-0.147773
-0.16151
-0.176399
-0.192468
-0.209694
-0.228122
-0.247824
-0.26847
-0.288809
-0.303578
-0.30128
-0.417447
-0.359859
-0.311413
-0.313334
-0.314508
-0.314653
-0.306846
-0.295024
-0.282374
-0.273769
-0.268671
-0.264675
-0.261719
-0.259249
-0.258214
-0.256925
-0.254205
-0.251113
-0.249251
-0.254777
-0.263555
-0.251739
-0.243901
-0.240275
-0.232982
-0.22185
-0.20781
-0.191771
-0.174698
-0.157364
-0.140292
-0.12378
-0.107966
-0.0928758
-0.0784706
-0.0646717
-0.0513791
-0.0385806
-0.0264009
-0.145505
-0.158959
-0.173567
-0.189381
-0.206411
-0.22476
-0.244614
-0.265625
-0.286401
-0.304715
-0.375066
-0.41471
-0.36413
-0.31398
-0.316415
-0.319421
-0.319536
-0.314437
-0.301397
-0.286621
-0.277001
-0.271337
-0.268469
-0.265951
-0.263565
-0.261099
-0.258297
-0.254719
-0.251206
-0.24872
-0.253632
-0.260318
-0.245227
-0.243085
-0.238114
-0.229756
-0.218167
-0.20417
-0.188604
-0.172297
-0.155893
-0.139811
-0.124283
-0.109402
-0.0951728
-0.0815554
-0.0684874
-0.055897
-0.0438085
-0.0323825
-0.142792
-0.155947
-0.170271
-0.185841
-0.202711
-0.221052
-0.241191
-0.263018
-0.284926
-0.308801
-0.402747
-0.416404
-0.346191
-0.316888
-0.319404
-0.324322
-0.326093
-0.331061
-0.309403
-0.292325
-0.281483
-0.275354
-0.272035
-0.270008
-0.267419
-0.264388
-0.260878
-0.256861
-0.253076
-0.250199
-0.255733
-0.262296
-0.246176
-0.242772
-0.236728
-0.227664
-0.215823
-0.201933
-0.186814
-0.171194
-0.155611
-0.140403
-0.125742
-0.111685
-0.0982205
-0.0853156
-0.0729274
-0.0610064
-0.0495975
-0.0388833
-0.139632
-0.152465
-0.166488
-0.181805
-0.198524
-0.216885
-0.237314
-0.259883
-0.282738
-0.305257
-0.386694
-0.386958
-0.326005
-0.319267
-0.32093
-0.384515
-0.488875
-0.370973
-0.316278
-0.298448
-0.286509
-0.279901
-0.276203
-0.273741
-0.27137
-0.268215
-0.264399
-0.260277
-0.256502
-0.253598
-0.258076
-0.262929
-0.248361
-0.24366
-0.23655
-0.22677
-0.214641
-0.200853
-0.186156
-0.171169
-0.156335
-0.141913
-0.128025
-0.1147
-0.101922
-0.0896681
-0.0779159
-0.0666281
-0.0558593
-0.0458073
-0.13602
-0.148497
-0.162187
-0.177222
-0.19376
-0.212113
-0.232769
-0.255832
-0.279571
-0.300773
-0.312804
-0.297264
-0.315343
-0.321303
-0.339565
-0.519155
-0.517566
-0.437654
-0.322353
-0.304014
-0.291804
-0.285055
-0.281102
-0.278515
-0.275923
-0.272694
-0.268823
-0.264759
-0.261072
-0.258091
-0.257167
-0.256643
-0.250446
-0.245182
-0.237316
-0.226954
-0.214583
-0.200893
-0.186573
-0.172152
-0.157981
-0.144254
-0.131046
-0.118368
-0.106205
-0.0945495
-0.0833912
-0.0726954
-0.0625197
-0.0530785
-0.131956
-0.144033
-0.15734
-0.172038
-0.188333
-0.206611
-0.227469
-0.251163
-0.276575
-0.301766
-0.316514
-0.403431
-0.31841
-0.325487
-0.436059
-0.525594
-0.52371
-0.479833
-0.327889
-0.308121
-0.296701
-0.290289
-0.286774
-0.28402
-0.281328
-0.278034
-0.274212
-0.270323
-0.266906
-0.26558
-0.269167
-0.257682
-0.253382
-0.24751
-0.238961
-0.228096
-0.215527
-0.20194
-0.187966
-0.174049
-0.160463
-0.147341
-0.134727
-0.12262
-0.111012
-0.0999087
-0.0893033
-0.0791553
-0.0695235
-0.0606451
-0.127438
-0.139063
-0.151923
-0.166206
-0.182166
-0.200259
-0.221238
-0.245698
-0.273348
-0.3035
-0.342445
-0.406863
-0.325343
-0.329369
-0.527492
-0.527274
-0.532955
-0.437546
-0.325812
-0.311072
-0.301242
-0.296007
-0.292987
-0.290522
-0.287688
-0.28434
-0.280573
-0.276855
-0.273584
-0.274345
-0.275915
-0.26885
-0.258591
-0.251313
-0.241745
-0.230231
-0.217395
-0.203877
-0.190206
-0.176735
-0.163661
-0.151069
-0.138977
-0.127383
-0.116284
-0.105695
-0.0956056
-0.0859644
-0.0768311
-0.0684752
-0.12247
-0.133585
-0.145923
-0.159689
-0.17518
-0.192898
-0.213674
-0.23831
-0.266935
-0.298931
-0.389407
-0.404825
-0.327999
-0.336429
-0.523343
-0.52577
-0.536524
-0.364883
-0.325164
-0.314675
-0.306969
-0.302679
-0.300334
-0.297966
-0.295059
-0.291605
-0.287835
-0.28426
-0.281264
-0.287201
-0.284323
-0.27886
-0.264519
-0.255933
-0.245296
-0.233109
-0.22
-0.206536
-0.193138
-0.180065
-0.167446
-0.155323
-0.143703
-0.132579
-0.121958
-0.111854
-0.102251
-0.0930825
-0.0844108
-0.0765442
-0.117058
-0.127603
-0.139335
-0.152469
-0.167317
-0.18439
-0.204459
-0.228273
-0.255755
-0.286965
-0.374345
-0.392141
-0.324469
-0.327395
-0.511005
-0.520618
-0.49423
-0.330286
-0.326053
-0.319581
-0.314011
-0.310846
-0.30875
-0.306468
-0.303402
-0.299759
-0.295935
-0.292485
-0.291459
-0.297881
-0.294113
-0.280287
-0.269879
-0.260361
-0.248935
-0.236279
-0.223025
-0.209678
-0.196568
-0.183876
-0.171676
-0.159986
-0.148806
-0.13813
-0.127966
-0.118327
-0.109187
-0.100465
-0.0922272
-0.0848215
-0.111215
-0.121126
-0.132166
-0.144547
-0.158573
-0.174719
-0.19362
-0.215624
-0.240505
-0.269944
-0.344226
-0.37471
-0.326628
-0.316544
-0.432919
-0.50932
-0.430921
-0.326611
-0.328546
-0.32564
-0.322313
-0.3202
-0.318375
-0.315891
-0.312524
-0.308617
-0.304735
-0.301426
-0.305353
-0.305941
-0.302968
-0.282799
-0.274777
-0.264441
-0.252442
-0.239511
-0.226255
-0.213108
-0.200321
-0.188011
-0.176217
-0.164946
-0.154193
-0.143955
-0.134238
-0.12505
-0.116355
-0.108059
-0.100234
-0.0932636
-0.104959
-0.114172
-0.124437
-0.135954
-0.149008
-0.164012
-0.181508
-0.201507
-0.223406
-0.25027
-0.257327
-0.355943
-0.323107
-0.305473
-0.409677
-0.495023
-0.410521
-0.329123
-0.331935
-0.332454
-0.33153
-0.330397
-0.328727
-0.325933
-0.32212
-0.31784
-0.31374
-0.310333
-0.315616
-0.313204
-0.305491
-0.289839
-0.280082
-0.268605
-0.255973
-0.242816
-0.229626
-0.216725
-0.204279
-0.192353
-0.180962
-0.170106
-0.159779
-0.149977
-0.140701
-0.131952
-0.123688
-0.115803
-0.108374
-0.101815
-0.0983146
-0.106766
-0.116178
-0.126735
-0.138705
-0.152448
-0.168489
-0.186996
-0.207247
-0.233467
-0.279005
-0.343769
-0.302243
-0.300722
-0.432197
-0.489568
-0.382746
-0.332304
-0.33631
-0.339877
-0.341222
-0.341015
-0.339399
-0.336207
-0.33185
-0.327112
-0.322741
-0.319368
-0.323356
-0.320589
-0.304419
-0.295679
-0.28477
-0.272426
-0.259343
-0.246087
-0.233044
-0.22043
-0.208341
-0.196804
-0.18582
-0.175384
-0.165488
-0.156121
-0.147281
-0.138963
-0.131115
-0.123625
-0.116577
-0.11041
-0.0913151
-0.0989409
-0.107424
-0.116935
-0.127728
-0.140131
-0.154664
-0.171988
-0.191696
-0.218393
-0.30765
-0.329148
-0.268472
-0.300021
-0.427671
-0.448007
-0.348909
-0.33449
-0.341009
-0.347655
-0.351053
-0.351651
-0.350009
-0.346371
-0.341471
-0.336291
-0.331531
-0.327405
-0.3288
-0.32061
-0.30991
-0.299909
-0.2882
-0.275436
-0.262247
-0.249119
-0.236353
-0.224094
-0.212396
-0.201269
-0.190707
-0.180703
-0.171244
-0.162316
-0.153908
-0.146012
-0.138569
-0.131464
-0.124785
-0.118992
-0.083999
-0.0907356
-0.0982183
-0.106598
-0.116107
-0.127054
-0.139892
-0.155567
-0.174278
-0.199729
-0.28501
-0.301245
-0.245701
-0.312322
-0.416351
-0.391822
-0.325736
-0.336139
-0.346241
-0.355745
-0.360817
-0.362
-0.360245
-0.356172
-0.3508
-0.345224
-0.340918
-0.338153
-0.33053
-0.322197
-0.31357
-0.302889
-0.290715
-0.277802
-0.264724
-0.251877
-0.239481
-0.227632
-0.216361
-0.205669
-0.195549
-0.185991
-0.176978
-0.16849
-0.160511
-0.15303
-0.145985
-0.139256
-0.132937
-0.127503
-0.0764119
-0.0821988
-0.0886091
-0.0957718
-0.10388
-0.113209
-0.124141
-0.137566
-0.15463
-0.173206
-0.263024
-0.234215
-0.231879
-0.35684
-0.39989
-0.373318
-0.322699
-0.338233
-0.352243
-0.364101
-0.370322
-0.371837
-0.369886
-0.365417
-0.359701
-0.353737
-0.348792
-0.346316
-0.336165
-0.326487
-0.316728
-0.3053
-0.292783
-0.279837
-0.266954
-0.254439
-0.242443
-0.231024
-0.220195
-0.209953
-0.200289
-0.191188
-0.182626
-0.174578
-0.167025
-0.159953
-0.153299
-0.14694
-0.140975
-0.13589
-0.0686049
-0.0733885
-0.0786604
-0.0845265
-0.0911268
-0.0986873
-0.107601
-0.118583
-0.13424
-0.149562
-0.234445
-0.212094
-0.213277
-0.335215
-0.382458
-0.337522
-0.320122
-0.340523
-0.358572
-0.372417
-0.379371
-0.381028
-0.378815
-0.374035
-0.367993
-0.36224
-0.361471
-0.354035
-0.342159
-0.330565
-0.319578
-0.307388
-0.294563
-0.281634
-0.268982
-0.256813
-0.245222
-0.234236
-0.223858
-0.214076
-0.204876
-0.196236
-0.188126
-0.180517
-0.173387
-0.166721
-0.160453
-0.154461
-0.148848
-0.144105
-0.0606344
-0.0643716
-0.0684499
-0.0729502
-0.0779588
-0.0836261
-0.0904399
-0.0989794
-0.11292
-0.164128
-0.212115
-0.179545
-0.190611
-0.309522
-0.361573
-0.307681
-0.317309
-0.343286
-0.364979
-0.380419
-0.38782
-0.389466
-0.387023
-0.382041
-0.375795
-0.370611
-0.368774
-0.361177
-0.343826
-0.333531
-0.321694
-0.308964
-0.295957
-0.283121
-0.270735
-0.258929
-0.247751
-0.237207
-0.227287
-0.217975
-0.209245
-0.201069
-0.193414
-0.186243
-0.179535
-0.173273
-0.167391
-0.161766
-0.156504
-0.152101
-0.0525602
-0.0552211
-0.058065
-0.0611434
-0.0644927
-0.0681614
-0.0727162
-0.0789064
-0.090835
-0.141399
-0.161591
-0.144725
-0.170319
-0.290519
-0.319493
-0.292888
-0.316251
-0.346852
-0.371257
-0.387897
-0.395562
-0.397123
-0.394555
-0.389426
-0.383396
-0.383896
-0.376111
-0.366654
-0.347431
-0.335793
-0.323112
-0.309971
-0.296887
-0.28421
-0.272122
-0.260696
-0.249944
-0.239855
-0.230408
-0.221575
-0.213323
-0.205617
-0.198418
-0.191688
-0.185405
-0.17955
-0.174056
-0.168802
-0.163893
-0.159834
-0.0444444
-0.0460137
-0.0475991
-0.0492155
-0.0508498
-0.0524369
-0.0544623
-0.0579693
-0.0648898
-0.114915
-0.0961735
-0.122697
-0.169657
-0.264835
-0.270347
-0.279175
-0.318826
-0.351662
-0.377056
-0.394668
-0.402505
-0.404038
-0.40139
-0.396146
-0.390264
-0.391649
-0.381787
-0.368468
-0.350439
-0.3374
-0.323883
-0.310381
-0.297281
-0.284805
-0.273045
-0.262019
-0.251712
-0.242097
-0.233138
-0.224797
-0.217032
-0.209803
-0.203067
-0.196784
-0.190931
-0.185488
-0.180389
-0.175512
-0.170966
-0.167253
-0.0363506
-0.0368285
-0.0371501
-0.0372885
-0.0371759
-0.0366631
-0.0360744
-0.0365671
-0.0431663
-0.0566354
-0.0986545
-0.105117
-0.210194
-0.252869
-0.23761
-0.272403
-0.318601
-0.355443
-0.382151
-0.400599
-0.408586
-0.410202
-0.407543
-0.402581
-0.403841
-0.396547
-0.386388
-0.364448
-0.351537
-0.3377
-0.32366
-0.309983
-0.296976
-0.284767
-0.273378
-0.262788
-0.252957
-0.24384
-0.23539
-0.227556
-0.220292
-0.213551
-0.207288
-0.201461
-0.196046
-0.191025
-0.18633
-0.181841
-0.177666
-0.174307
-0.0283429
-0.0277455
-0.0268178
-0.025493
-0.0236467
-0.0210908
-0.0180516
-0.016289
-0.0216438
-0.0291835
-0.0804146
-0.101563
-0.187406
-0.201964
-0.207416
-0.263896
-0.317827
-0.358607
-0.386426
-0.405511
-0.41383
-0.415557
-0.412904
-0.407991
-0.41031
-0.400335
-0.387786
-0.365395
-0.351138
-0.33654
-0.322211
-0.308562
-0.295789
-0.28394
-0.27299
-0.262888
-0.253574
-0.244989
-0.237073
-0.229768
-0.223021
-0.216782
-0.211004
-0.205646
-0.200682
-0.196094
-0.191815
-0.187726
-0.183935
-0.180936
-0.0204854
-0.0188433
-0.0166996
-0.0139525
-0.010426
-0.00591892
-0.000712595
0.00316108
0.00139195
-0.00790471
-0.0574747
-0.0801984
-0.16664
-0.191798
-0.198905
-0.259586
-0.317779
-0.361719
-0.389651
-0.409276
-0.417986
-0.419895
-0.417633
-0.421015
-0.413089
-0.402203
-0.381149
-0.364271
-0.349026
-0.333895
-0.319463
-0.306002
-0.293589
-0.282198
-0.271765
-0.262212
-0.253465
-0.245451
-0.2381
-0.231348
-0.225139
-0.21942
-0.214144
-0.209269
-0.20477
-0.200629
-0.196778
-0.193103
-0.18971
-0.187077
-0.0128407
-0.0101976
-0.00688679
-0.00277471
0.00236096
0.00874392
0.0159821
0.0215846
0.0226742
-0.00609663
-0.027512
-0.0542872
-0.147335
-0.164356
-0.192483
-0.255666
-0.313472
-0.362208
-0.391212
-0.411526
-0.420685
-0.42283
-0.423549
-0.42339
-0.41366
-0.400578
-0.376442
-0.360719
-0.344843
-0.329541
-0.315273
-0.302186
-0.290269
-0.279443
-0.26961
-0.260675
-0.252548
-0.245146
-0.238392
-0.232221
-0.226572
-0.221394
-0.216637
-0.212263
-0.208244
-0.204562
-0.201153
-0.197908
-0.194925
-0.192662
-0.00546954
-0.00188073
0.00253434
0.00794057
0.0146015
0.0227802
0.0320329
0.0397911
0.0418149
0.00965706
-0.00222946
-0.0827923
-0.131824
-0.124079
-0.18419
-0.251232
-0.315172
-0.360993
-0.390354
-0.411577
-0.421232
-0.424905
-0.428737
-0.422038
-0.411334
-0.389011
-0.371219
-0.354633
-0.338473
-0.323346
-0.309518
-0.297011
-0.285743
-0.275597
-0.266455
-0.258207
-0.250754
-0.244006
-0.237885
-0.232322
-0.227257
-0.222639
-0.218421
-0.214563
-0.211038
-0.207829
-0.204874
-0.202072
-0.199514
-0.197621
0.0015696
0.00603786
0.01148
0.0180932
0.0261779
0.0360425
0.0472456
0.0570617
0.0578754
0.0423256
0.0181753
-0.0639521
-0.0445996
-0.105891
-0.176107
-0.247917
-0.312806
-0.356752
-0.386835
-0.408722
-0.419989
-0.424807
-0.4245
-0.416628
-0.398777
-0.379559
-0.362634
-0.345787
-0.329852
-0.315274
-0.302158
-0.290431
-0.279962
-0.270613
-0.262251
-0.25476
-0.248034
-0.241982
-0.236527
-0.231599
-0.227142
-0.223104
-0.219441
-0.216113
-0.213095
-0.21037
-0.20788
-0.205534
-0.20341
-0.201885
0.00822112
0.0134917
0.0198692
0.0275826
0.0369668
0.0483583
0.061297
0.0728188
0.0692277
0.0471973
0.0369129
-0.0448289
-0.0420343
-0.0944816
-0.167193
-0.243815
-0.307019
-0.350983
-0.380127
-0.403832
-0.415778
-0.417352
-0.411119
-0.400084
-0.384442
-0.367864
-0.350725
-0.334228
-0.319028
-0.305363
-0.293216
-0.282457
-0.27293
-0.264484
-0.256985
-0.250312
-0.244361
-0.239044
-0.234284
-0.230017
-0.226187
-0.222746
-0.219652
-0.216867
-0.214367
-0.212133
-0.210115
-0.208234
-0.206553
-0.205389
0.0144335
0.0204187
0.0276253
0.0363105
0.0468391
0.0595748
0.0740099
0.087247
0.084404
0.040068
0.0221823
-0.0335457
-0.019792
-0.0847209
-0.159146
-0.235205
-0.296804
-0.340188
-0.369961
-0.395203
-0.404202
-0.404285
-0.395019
-0.383573
-0.368688
-0.3522
-0.335687
-0.320192
-0.30618
-0.293742
-0.282787
-0.273157
-0.264692
-0.257241
-0.250673
-0.24487
-0.239734
-0.235183
-0.231143
-0.227556
-0.224369
-0.221538
-0.219022
-0.216789
-0.214812
-0.213075
-0.211534
-0.210122
-0.208888
-0.208076
0.0201604
0.0267625
0.0346784
0.0441872
0.0556748
0.0695522
0.0853675
0.10024
0.101764
0.0617376
0.0443838
0.0543455
-0.00124841
-0.0689882
-0.148752
-0.223499
-0.284006
-0.324759
-0.35708
-0.37929
-0.387226
-0.383553
-0.375841
-0.363786
-0.349
-0.333295
-0.318063
-0.30407
-0.29159
-0.280615
-0.27102
-0.262644
-0.255333
-0.248946
-0.243358
-0.238464
-0.234174
-0.23041
-0.227109
-0.224215
-0.221681
-0.219467
-0.217536
-0.215857
-0.214406
-0.213165
-0.2121
-0.21116
-0.210372
-0.209899
0.0253624
0.0324747
0.0409681
0.0511354
0.063368
0.0780946
0.0950133
0.110667
0.120571
0.080835
0.063715
0.074679
0.0148038
-0.0573617
-0.136387
-0.209012
-0.267169
-0.310252
-0.337629
-0.358638
-0.364077
-0.359973
-0.351952
-0.340014
-0.326116
-0.311896
-0.298453
-0.286304
-0.275582
-0.266227
-0.258104
-0.251065
-0.244967
-0.239686
-0.235112
-0.23115
-0.227721
-0.224758
-0.222203
-0.220009
-0.218132
-0.216536
-0.215189
-0.214063
-0.213135
-0.212387
-0.211793
-0.211321
-0.210975
-0.210825
0.0300079
0.0375168
0.0464463
0.057092
0.0698373
0.0850488
0.102614
0.115899
0.111612
0.135343
0.117612
0.0859865
0.0264564
-0.0459935
-0.122944
-0.191406
-0.246785
-0.28934
-0.312522
-0.331363
-0.33543
-0.332225
-0.32427
-0.313235
-0.300934
-0.288731
-0.277419
-0.267325
-0.258491
-0.250839
-0.244245
-0.238579
-0.233724
-0.229569
-0.22602
-0.222999
-0.220436
-0.218276
-0.216468
-0.21497
-0.213746
-0.212763
-0.211994
-0.211415
-0.211002
-0.210736
-0.210604
-0.210593
-0.21068
-0.210835
0.0340748
0.0418618
0.0510799
0.0620157
0.0750514
0.0905038
0.108606
0.123733
0.115839
0.147887
0.132412
0.096263
0.0365891
-0.0341733
-0.107124
-0.171248
-0.223269
-0.259677
-0.284017
-0.299466
-0.303602
-0.300979
-0.293925
-0.284518
-0.274354
-0.264497
-0.255494
-0.247539
-0.240636
-0.234708
-0.229654
-0.225367
-0.221751
-0.218716
-0.216187
-0.214098
-0.212394
-0.211026
-0.209955
-0.209144
-0.208561
-0.208181
-0.207978
-0.207932
-0.208021
-0.208225
-0.208542
-0.208979
-0.209486
-0.209927
0.0375501
0.0454948
0.0548515
0.0658848
0.078972
0.0944638
0.112668
0.132153
0.122859
0.140486
0.13614
0.104177
0.0456433
-0.0220972
-0.0887798
-0.149522
-0.195667
-0.227005
-0.252275
-0.266106
-0.2697
-0.267722
-0.262172
-0.254898
-0.247181
-0.239806
-0.233145
-0.227317
-0.222315
-0.21808
-0.214534
-0.211597
-0.209193
-0.207254
-0.205722
-0.204544
-0.203678
-0.203085
-0.202732
-0.202589
-0.20263
-0.202833
-0.203179
-0.203649
-0.204222
-0.204879
-0.205626
-0.206495
-0.207407
-0.208111
0.0404315
0.0484133
0.0577576
0.068693
0.0815439
0.0967407
0.114093
0.112586
0.124713
0.130533
0.129285
0.11058
0.0521214
-0.0099255
-0.0693668
-0.121677
-0.163822
-0.195634
-0.218447
-0.230914
-0.23457
-0.233773
-0.230145
-0.22526
-0.220076
-0.21516
-0.210767
-0.20698
-0.203798
-0.201183
-0.199081
-0.197437
-0.196197
-0.195312
-0.194739
-0.194441
-0.194382
-0.194535
-0.194873
-0.195373
-0.196013
-0.196777
-0.197647
-0.198611
-0.199647
-0.200735
-0.201893
-0.203173
-0.204468
-0.205416
0.0427267
0.0506292
0.0598132
0.0704634
0.0828039
0.097305
0.113484
0.10789
0.125321
0.132364
0.136844
0.112682
0.0556438
0.00231891
-0.0506024
-0.0961835
-0.133861
-0.163136
-0.18368
-0.195231
-0.199471
-0.200218
-0.198727
-0.196274
-0.193547
-0.190955
-0.188682
-0.186798
-0.185316
-0.184217
-0.183472
-0.183046
-0.182905
-0.183019
-0.183356
-0.183892
-0.184602
-0.185464
-0.18646
-0.18757
-0.18878
-0.190075
-0.191444
-0.192876
-0.194349
-0.195843
-0.197387
-0.199055
-0.200713
-0.201882
0.0444542
0.052168
0.0610552
0.0712503
0.0828859
0.0963189
0.105599
0.107804
0.125256
0.130536
0.141641
0.108732
0.0624173
0.0151858
-0.0317699
-0.0717883
-0.104755
-0.130579
-0.14914
-0.160243
-0.165451
-0.167899
-0.168557
-0.168418
-0.16796
-0.167486
-0.16714
-0.16699
-0.167062
-0.167356
-0.167863
-0.168567
-0.16945
-0.170495
-0.171685
-0.173004
-0.174435
-0.175963
-0.177577
-0.179262
-0.181006
-0.1828
-0.184636
-0.186506
-0.188388
-0.190262
-0.192167
-0.194196
-0.196191
-0.197559
0.045642
0.0530675
0.0615395
0.0711346
0.0819336
0.0938631
0.0988425
0.110413
0.134446
0.133259
0.141031
0.110761
0.0714732
0.0281907
-0.0129679
-0.0476702
-0.0762299
-0.0989387
-0.115863
-0.126883
-0.13326
-0.137391
-0.140057
-0.142006
-0.143565
-0.144967
-0.146332
-0.147731
-0.149197
-0.15075
-0.152394
-0.15413
-0.155952
-0.157856
-0.159834
-0.161877
-0.163976
-0.166124
-0.168311
-0.170529
-0.17277
-0.175027
-0.177296
-0.179572
-0.181833
-0.184058
-0.186295
-0.188659
-0.190964
-0.192511
0.0463248
0.0533748
0.0613303
0.070224
0.0801023
0.0904968
0.0996128
0.119367
0.117855
0.130656
0.140721
0.114579
0.0807028
0.0406615
0.00511934
-0.024542
-0.0490543
-0.0690176
-0.0846272
-0.0957933
-0.103364
-0.109032
-0.113467
-0.117223
-0.120521
-0.123544
-0.126397
-0.129151
-0.13185
-0.134522
-0.137185
-0.139849
-0.142522
-0.145206
-0.147902
-0.150608
-0.15332
-0.156034
-0.158748
-0.161456
-0.164153
-0.166835
-0.169502
-0.172149
-0.174757
-0.177303
-0.179843
-0.182511
-0.1851
-0.186805
0.046547
0.0531434
0.0604901
0.0685833
0.077395
0.0867379
0.100852
0.112391
0.106861
0.116501
0.136659
0.115939
0.0861624
0.0519443
0.0219142
-0.0030015
-0.0238375
-0.0413967
-0.0559352
-0.0673382
-0.0759934
-0.0829713
-0.0888948
-0.0941597
-0.0989149
-0.103308
-0.10743
-0.111352
-0.115121
-0.118773
-0.122335
-0.125825
-0.129257
-0.132641
-0.135983
-0.139287
-0.142552
-0.145781
-0.148972
-0.152124
-0.155235
-0.158303
-0.16133
-0.164315
-0.167237
-0.170073
-0.172886
-0.175829
-0.178672
-0.180516
0.0463547
0.052432
0.0590862
0.0662539
0.0738718
0.0820872
0.0934775
0.108806
0.0966828
0.109507
0.11434
0.117205
0.0902226
0.0615732
0.0370528
0.0165461
-0.000975692
-0.0164202
-0.0300424
-0.0416601
-0.0512062
-0.0592337
-0.0663529
-0.0728365
-0.0787823
-0.0843075
-0.0894917
-0.0944006
-0.0990845
-0.103583
-0.107926
-0.11214
-0.116241
-0.120245
-0.124161
-0.127997
-0.131757
-0.135445
-0.139064
-0.142614
-0.146096
-0.149509
-0.152859
-0.156145
-0.159348
-0.162443
-0.165499
-0.168687
-0.171758
-0.173722
0.0458024
0.0513081
0.057204
0.0633432
0.0695638
0.0762715
0.0842147
0.0857363
0.0862116
0.0990312
0.108012
0.114158
0.0927332
0.0698047
0.0502956
0.033873
0.0193385
0.00577609
-0.00700876
-0.0187413
-0.028945
-0.0377588
-0.045795
-0.0532294
-0.0601208
-0.0665601
-0.0726143
-0.0783434
-0.0837961
-0.0890128
-0.0940264
-0.0988637
-0.103546
-0.10809
-0.112509
-0.116813
-0.121009
-0.125103
-0.129099
-0.133001
-0.136811
-0.14053
-0.144165
-0.147718
-0.151168
-0.154491
-0.157761
-0.161163
-0.164434
-0.166501
0.0449497
0.0498494
0.0549464
0.0600101
0.0647207
0.0692656
0.072919
0.0634213
0.0761092
0.1058
0.109478
0.100757
0.0935671
0.0763103
0.0616847
0.0489135
0.0370671
0.0252129
0.0132444
0.0015391
-0.0090831
-0.018437
-0.0271376
-0.0352833
-0.0429016
-0.0500591
-0.0568097
-0.0632059
-0.0692926
-0.0751087
-0.0806867
-0.0860539
-0.0912327
-0.0962414
-0.101095
-0.105804
-0.110378
-0.114824
-0.119149
-0.123358
-0.127453
-0.131439
-0.135322
-0.139107
-0.142772
-0.146293
-0.149748
-0.153335
-0.156778
-0.158932
0.0438591
0.0481409
0.0524322
0.0564411
0.0597203
0.0622633
0.061018
0.0551569
0.0660083
0.0974881
0.1024
0.0954357
0.0928645
0.0814791
0.0710717
0.0616802
0.0522776
0.0420143
0.030881
0.0193596
0.0085432
-0.00113194
-0.0102762
-0.0189246
-0.0270781
-0.0347808
-0.0420731
-0.0489986
-0.0555966
-0.0619025
-0.0679467
-0.0737555
-0.079351
-0.0847519
-0.0899732
-0.0950273
-0.0999242
-0.104672
-0.109279
-0.11375
-0.118091
-0.122305
-0.1264
-0.130383
-0.134233
-0.137922
-0.141534
-0.145277
-0.148867
-0.151092
0.0425928
0.0462665
0.0497799
0.052806
0.0548485
0.0558028
0.0536701
0.0457314
0.0617979
0.0829755
0.0904599
0.0887643
0.0921179
0.0850619
0.0785073
0.072247
0.0651088
0.0563656
0.0461098
0.0349248
0.0241121
0.0143033
0.00490389
-0.00406886
-0.0125925
-0.0206898
-0.0283877
-0.0357198
-0.0427187
-0.0494147
-0.055835
-0.0620037
-0.0679417
-0.0736669
-0.0791943
-0.0845364
-0.0897036
-0.0947047
-0.0995479
-0.10424
-0.108787
-0.113193
-0.117466
-0.121615
-0.125618
-0.129449
-0.133191
-0.137063
-0.140773
-0.143056
0.0412089
0.0443001
0.0470832
0.0492074
0.0501655
0.0497241
0.0478258
0.0516884
0.0630495
0.0632057
0.0556908
0.0835052
0.0891323
0.086778
0.0840348
0.0807496
0.0757485
0.0684842
0.0591568
0.0484447
0.0378028
0.0280169
0.0185199
0.00937285
0.000619589
-0.00774279
-0.0157278
-0.0233586
-0.03066
-0.0376564
-0.044371
-0.0508249
-0.0570369
-0.0630236
-0.0687993
-0.074376
-0.0797641
-0.0849725
-0.0900098
-0.0948833
-0.0995988
-0.104162
-0.108582
-0.112865
-0.116994
-0.120939
-0.124786
-0.128761
-0.132568
-0.134897
0.0397599
0.0423046
0.0444128
0.0457144
0.0456862
0.0440846
0.0425057
0.0448422
0.0512048
0.048863
0.0281225
0.0511941
0.0842805
0.086765
0.0878202
0.087386
0.0844136
0.0785995
0.0702472
0.0601226
0.0497878
0.0401524
0.0306871
0.0214904
0.0126255
0.00410821
-0.00406191
-0.0118972
-0.0194142
-0.0266313
-0.0335666
-0.0402378
-0.0466613
-0.0528519
-0.0588225
-0.0645844
-0.0701476
-0.0755208
-0.0807124
-0.08573
-0.0905799
-0.0952675
-0.0998025
-0.104193
-0.10842
-0.112455