/*--------------------------------*- C++ -*----------------------------------*\
  =========                 |
  \\      /  F ield         | OpenFOAM: The Open Source CFD Toolbox
   \\    /   O peration     | Website:  https://openfoam.org
    \\  /    A nd           | Version:  9
     \\/     M anipulation  |
\*---------------------------------------------------------------------------*/
FoamFile
{
    format      ascii;
    class       surfaceScalarField;
    location    "0.04";
    object      phi;
}
// * * * * * * * * * * * * * * * * * * * * * * * * * * * * * * * * * * * * * //

dimensions      [0 3 -1 0 0 0 0];

internalField   nonuniform List<scalar> 
9850
(
-7.74379e-07
7.51118e-06
-8.13545e-07
7.56291e-06
-8.54798e-07
7.62811e-06
-8.97275e-07
7.70859e-06
-9.3948e-07
7.80569e-06
-9.82071e-07
7.92878e-06
-1.03158e-06
8.11926e-06
-1.08397e-06
8.4295e-06
-1.07166e-06
8.7171e-06
-8.56616e-07
8.38212e-06
-4.06471e-07
6.63799e-06
4.40488e-08
3.3164e-06
-8.63772e-08
2.1182e-07
-2.04094e-07
-2.05378e-07
-2.64625e-07
-3.58749e-07
-2.63171e-07
-4.37793e-07
-2.21616e-07
-5.01379e-07
-1.73024e-07
-5.14321e-07
-1.40186e-07
-4.88289e-07
-1.25098e-07
-4.61019e-07
-1.19992e-07
-3.68504e-07
-1.17252e-07
-3.5279e-07
-1.15709e-07
-3.42858e-07
-1.14737e-07
-3.38449e-07
-1.1161e-07
-3.37233e-07
-1.02529e-07
-3.29221e-07
-8.79585e-08
-3.00592e-07
-7.67645e-08
-2.44936e-07
-8.54985e-08
-1.61763e-07
-1.307e-07
-4.94206e-08
-1.3862e-07
4.51729e-08
9.48425e-09
9.4254e-08
3.02377e-07
8.08992e-07
5.97548e-07
1.58442e-06
8.56605e-07
2.20785e-06
1.04749e-06
2.62633e-06
1.16526e-06
2.83852e-06
1.22251e-06
2.88516e-06
1.23866e-06
2.82195e-06
1.23171e-06
2.6993e-06
1.2145e-06
2.55295e-06
1.19443e-06
2.40362e-06
1.17494e-06
2.26098e-06
1.1572e-06
2.12819e-06
1.14132e-06
2.00542e-06
1.12701e-06
1.89174e-06
1.11396e-06
1.7861e-06
1.10186e-06
1.68765e-06
1.09038e-06
1.59603e-06
1.51192e-06
-7.48907e-07
7.54415e-06
-7.8345e-07
7.59745e-06
-8.18901e-07
7.66356e-06
-8.54038e-07
7.74373e-06
-8.87189e-07
7.83884e-06
-9.19271e-07
7.96086e-06
-9.54805e-07
8.15479e-06
-9.81109e-07
8.4558e-06
-9.25804e-07
8.6618e-06
-6.69773e-07
8.12609e-06
-1.71723e-07
6.13994e-06
1.67238e-07
2.97744e-06
4.33091e-08
3.35748e-07
-2.25759e-07
6.36907e-08
-2.801e-07
-3.04409e-07
-2.68173e-07
-4.49719e-07
-2.21364e-07
-5.48188e-07
-1.70823e-07
-5.64862e-07
-1.38393e-07
-5.20719e-07
-1.25327e-07
-4.74084e-07
-1.21759e-07
-3.72072e-07
-1.19297e-07
-3.55252e-07
-1.18134e-07
-3.44021e-07
-1.2173e-07
-3.34853e-07
-1.31016e-07
-3.27947e-07
-1.40157e-07
-3.2008e-07
-1.41693e-07
-2.99057e-07
-1.35884e-07
-2.50745e-07
-1.34475e-07
-1.63171e-07
-1.59515e-07
-2.43808e-08
-1.13353e-07
-9.88457e-10
-3.44465e-08
1.53477e-08
1.53151e-07
6.21396e-07
3.99513e-07
1.33806e-06
6.34154e-07
1.97321e-06
8.2117e-07
2.43931e-06
9.48663e-07
2.71102e-06
1.02134e-06
2.81248e-06
1.05271e-06
2.79058e-06
1.05788e-06
2.69413e-06
1.04916e-06
2.56167e-06
1.03467e-06
2.41811e-06
1.01885e-06
2.27679e-06
1.00368e-06
2.14336e-06
9.89773e-07
2.01932e-06
9.7714e-07
1.90437e-06
9.65562e-07
1.79767e-06
9.54748e-07
1.69846e-06
9.44345e-07
1.60644e-06
1.52232e-06
-7.22994e-07
7.57347e-06
-7.53103e-07
7.62756e-06
-7.83201e-07
7.69366e-06
-8.11798e-07
7.77232e-06
-8.37346e-07
7.86439e-06
-8.61212e-07
7.98473e-06
-8.86139e-07
8.17972e-06
-8.92794e-07
8.46246e-06
-8.0733e-07
8.57633e-06
-5.33359e-07
7.85212e-06
-8.07529e-08
5.68734e-06
2.79982e-07
2.6167e-06
3.06498e-07
3.09231e-07
-1.69004e-07
5.39193e-07
-2.3889e-07
-2.34523e-07
-2.29236e-07
-4.59373e-07
-1.91825e-07
-5.856e-07
-1.5452e-07
-6.02167e-07
-1.31799e-07
-5.43439e-07
-1.25012e-07
-4.80872e-07
-1.25055e-07
-3.72029e-07
-1.2349e-07
-3.56817e-07
-1.20787e-07
-3.46724e-07
-1.25776e-07
-3.29864e-07
-1.49193e-07
-3.04529e-07
-1.8737e-07
-2.81903e-07
-2.20732e-07
-2.65695e-07
-2.25952e-07
-2.45525e-07
-1.97263e-07
-1.9186e-07
-9.95318e-08
-1.22112e-07
2.97723e-08
-1.30292e-07
-8.3896e-10
4.59582e-08
8.47404e-08
5.35817e-07
2.70417e-07
1.15239e-06
4.64764e-07
1.77886e-06
6.3144e-07
2.27263e-06
7.54015e-07
2.58845e-06
8.31288e-07
2.73521e-06
8.71193e-07
2.75068e-06
8.85075e-07
2.68025e-06
8.83487e-07
2.56326e-06
8.74221e-07
2.42738e-06
8.62085e-07
2.28893e-06
8.49576e-07
2.15587e-06
8.37736e-07
2.03116e-06
8.26836e-07
1.91527e-06
8.16787e-07
1.80772e-06
8.07324e-07
1.70792e-06
7.98061e-07
1.6157e-06
1.5318e-06
-6.96931e-07
7.59934e-06
-7.22937e-07
7.65357e-06
-7.48206e-07
7.71893e-06
-7.71171e-07
7.79529e-06
-7.90686e-07
7.8839e-06
-8.08779e-07
8.00282e-06
-8.27039e-07
8.19798e-06
-8.23048e-07
8.45847e-06
-7.28248e-07
8.48153e-06
-4.7384e-07
7.59772e-06
-1.04103e-07
5.3176e-06
3.58459e-07
2.15414e-06
4.34572e-07
2.33118e-07
1.89822e-08
9.54782e-07
-1.07329e-07
-1.08211e-07
-1.15673e-07
-4.51029e-07
-1.16195e-07
-5.85078e-07
-1.16818e-07
-6.01543e-07
-1.16792e-07
-5.43466e-07
-1.22795e-07
-4.74868e-07
-1.30148e-07
-3.64676e-07
-1.31975e-07
-3.5499e-07
-1.24663e-07
-3.54035e-07
-1.17646e-07
-3.36882e-07
-1.35266e-07
-2.8691e-07
-1.85344e-07
-2.31824e-07
-2.34061e-07
-2.16978e-07
-2.35656e-07
-2.4393e-07
-1.45375e-07
-2.82142e-07
1.2367e-07
-3.91157e-07
1.90284e-07
-1.96906e-07
1.53366e-07
8.28761e-08
1.48908e-07
5.40275e-07
2.25982e-07
1.07531e-06
3.52722e-07
1.65212e-06
4.80508e-07
2.14485e-06
5.84073e-07
2.48488e-06
6.55404e-07
2.66388e-06
6.96742e-07
2.70934e-06
7.15138e-07
2.66185e-06
7.18566e-07
2.55983e-06
7.13661e-07
2.43229e-06
7.04974e-07
2.29762e-06
6.95154e-07
2.16569e-06
6.855e-07
2.04082e-06
6.76488e-07
1.92429e-06
6.68124e-07
1.81609e-06
6.60111e-07
1.71594e-06
6.51911e-07
1.6239e-06
1.54066e-06
-6.70982e-07
7.62197e-06
-6.93253e-07
7.67584e-06
-7.14252e-07
7.73993e-06
-7.32507e-07
7.81354e-06
-7.47461e-07
7.89885e-06
-7.61923e-07
8.01728e-06
-7.76825e-07
8.21288e-06
-7.69388e-07
8.45103e-06
-6.82192e-07
8.39434e-06
-4.76924e-07
7.39245e-06
-2.11062e-07
5.05174e-06
1.27564e-07
1.81551e-06
2.60716e-08
3.34611e-07
1.6157e-07
8.19283e-07
1.02176e-07
-4.88165e-08
4.98479e-08
-3.98701e-07
-1.11581e-08
-5.24072e-07
-6.55987e-08
-5.47103e-07
-9.48386e-08
-5.14226e-07
-1.16241e-07
-4.53466e-07
-1.34624e-07
-3.46293e-07
-1.44859e-07
-3.44755e-07
-1.34698e-07
-3.64196e-07
-1.04721e-07
-3.66859e-07
-8.7609e-08
-3.04022e-07
-1.12469e-07
-2.06965e-07
-1.35366e-07
-1.94081e-07
-8.38321e-08
-2.95464e-07
1.09131e-08
-3.76887e-07
7.4915e-08
-4.55159e-07
2.08384e-07
-3.30375e-07
2.37813e-07
5.34468e-08
2.01271e-07
5.76817e-07
2.04926e-07
1.07166e-06
2.66746e-07
1.5903e-06
3.51189e-07
2.0604e-06
4.29735e-07
2.40634e-06
4.89277e-07
2.60434e-06
5.27325e-07
2.67129e-06
5.47051e-07
2.64212e-06
5.53703e-07
2.55318e-06
5.52363e-07
2.43363e-06
5.46908e-07
2.30307e-06
5.39837e-07
2.17276e-06
5.32522e-07
2.04813e-06
5.25551e-07
1.93126e-06
5.18981e-07
1.82266e-06
5.12434e-07
1.72248e-06
5.05231e-07
1.6311e-06
1.54896e-06
-6.45356e-07
7.64157e-06
-6.64252e-07
7.69473e-06
-6.81512e-07
7.75719e-06
-6.95878e-07
7.82791e-06
-7.0742e-07
7.9104e-06
-7.19609e-07
8.02947e-06
-7.32622e-07
8.22589e-06
-7.23144e-07
8.44155e-06
-6.42377e-07
8.31357e-06
-4.64874e-07
7.21495e-06
-2.66895e-07
4.85376e-06
-2.68515e-07
1.81713e-06
-3.90149e-07
4.56247e-07
2.32838e-08
4.0585e-07
1.76999e-07
-2.02531e-07
1.43484e-07
-3.65187e-07
5.20027e-08
-4.32591e-07
-3.27299e-08
-4.6237e-07
-7.35171e-08
-4.73439e-07
-1.0264e-07
-4.24343e-07
-1.31825e-07
-3.17109e-07
-1.56173e-07
-3.20407e-07
-1.55538e-07
-3.64831e-07
-1.11762e-07
-4.10634e-07
-5.69429e-08
-3.58841e-07
-4.66806e-08
-2.17227e-07
-3.00847e-08
-2.10677e-07
1.26387e-08
-3.38188e-07
1.83464e-07
-5.47712e-07
-3.14236e-08
-2.40271e-07
-1.36841e-07
-2.24958e-07
8.38035e-08
-1.67197e-07
1.27328e-07
5.33293e-07
1.34388e-07
1.0646e-06
1.66149e-07
1.55854e-06
2.20152e-07
2.0064e-06
2.77431e-07
2.34906e-06
3.25161e-07
2.55661e-06
3.58614e-07
2.63784e-06
3.78326e-07
2.62241e-06
3.87296e-07
2.54421e-06
3.89086e-07
2.43184e-06
3.86746e-07
2.30541e-06
3.82434e-07
2.17707e-06
3.7745e-07
2.05312e-06
3.72405e-07
1.9363e-06
3.67363e-07
1.8277e-06
3.61915e-07
1.72793e-06
3.55451e-07
1.63757e-06
1.55636e-06
-6.20202e-07
7.6584e-06
-6.36055e-07
7.71059e-06
-6.50043e-07
7.77118e-06
-6.61169e-07
7.83903e-06
-6.70083e-07
7.91931e-06
-6.80507e-07
8.0399e-06
-6.91478e-07
8.23687e-06
-6.7841e-07
8.42848e-06
-5.9641e-07
8.23157e-06
-4.27829e-07
7.04636e-06
-2.04126e-07
4.63005e-06
-2.39154e-07
1.85216e-06
-3.18392e-07
5.35486e-07
-1.30963e-08
1.00554e-07
-3.80772e-08
-1.7755e-07
4.08287e-08
-4.44093e-07
3.53627e-09
-3.95298e-07
-4.68721e-08
-4.11962e-07
-6.13672e-08
-4.58944e-07
-8.17865e-08
-4.03924e-07
-1.14427e-07
-2.84468e-07
-1.49363e-07
-2.8547e-07
-1.66142e-07
-3.48053e-07
-1.34916e-07
-4.41861e-07
-8.60163e-08
-4.07741e-07
-9.01216e-08
-2.13122e-07
-4.5195e-08
-2.55603e-07
4.22241e-08
-4.25607e-07
-5.41143e-08
-4.51374e-07
-1.15972e-08
-2.82789e-07
-1.62945e-08
-2.20261e-07
-1.14399e-07
-6.90922e-08
-1.7172e-08
4.36066e-07
1.96775e-08
1.02775e-06
4.61895e-08
1.53203e-06
8.24128e-08
1.97018e-06
1.23505e-07
2.30797e-06
1.6084e-07
2.51927e-06
1.8955e-07
2.60913e-06
2.08616e-07
2.60335e-06
2.19344e-07
2.53348e-06
2.23934e-07
2.42725e-06
2.24579e-07
2.30477e-06
2.23005e-07
2.17865e-06
2.20342e-07
2.05578e-06
2.17164e-07
1.93948e-06
2.13541e-07
1.83132e-06
2.09078e-07
1.73239e-06
2.02905e-07
1.64374e-06
1.56589e-06
-5.95617e-07
7.67268e-06
-6.08725e-07
7.7237e-06
-6.19835e-07
7.78229e-06
-6.28227e-07
7.84743e-06
-6.35019e-07
7.9261e-06
-6.43793e-07
8.04867e-06
-6.52097e-07
8.24517e-06
-6.34228e-07
8.41061e-06
-5.46242e-07
8.14359e-06
-3.70111e-07
6.87023e-06
-1.37793e-07
4.39774e-06
-1.70215e-07
1.88458e-06
-1.76863e-07
5.42134e-07
-1.70355e-07
9.40461e-08
-7.46111e-08
-2.73295e-07
-1.30214e-07
-3.8849e-07
-9.69179e-08
-4.28594e-07
-8.46785e-08
-4.24201e-07
-6.15468e-08
-4.82075e-07
-6.18497e-08
-4.03621e-07
-8.03376e-08
-2.6598e-07
-9.91295e-08
-2.66678e-07
-1.11903e-07
-3.35279e-07
-1.1796e-07
-4.35804e-07
-1.38602e-07
-3.87098e-07
-1.47444e-07
-2.04281e-07
-2.73538e-07
-1.29508e-07
-1.95637e-07
-5.03508e-07
-1.25632e-07
-5.21379e-07
-3.26496e-08
-3.75771e-07
-2.62213e-08
-2.26689e-07
-1.01675e-07
6.36122e-09
-7.80214e-08
4.12412e-07
-6.75439e-08
1.01727e-06
-6.17373e-08
1.52622e-06
-4.70433e-08
1.95548e-06
-2.37425e-08
2.28467e-06
1.68649e-09
2.49384e-06
2.40811e-08
2.58674e-06
4.1154e-08
2.58627e-06
5.25623e-08
2.52207e-06
5.92023e-08
2.42061e-06
6.23841e-08
2.30159e-06
6.33145e-08
2.17772e-06
6.2875e-08
2.05622e-06
6.15448e-08
1.94081e-06
5.93675e-08
1.8335e-06
5.582e-08
1.73594e-06
4.90927e-08
1.65047e-06
1.5814e-06
-5.71666e-07
7.68462e-06
-5.82291e-07
7.73432e-06
-5.90859e-07
7.79086e-06
-5.96919e-07
7.85349e-06
-6.01971e-07
7.93116e-06
-6.09244e-07
8.05594e-06
-6.14694e-07
8.25062e-06
-5.92277e-07
8.3882e-06
-4.99658e-07
8.05097e-06
-3.21813e-07
6.69239e-06
-1.36917e-07
4.21284e-06
-1.31457e-07
1.87912e-06
1.51643e-08
3.95513e-07
2.01313e-07
-9.21022e-08
-8.05616e-08
8.57902e-09
-3.66744e-07
-1.02308e-07
-9.61376e-08
-6.99201e-07
-8.62902e-08
-4.34049e-07
-8.32766e-08
-4.85089e-07
-6.12261e-08
-4.25671e-07
-3.2053e-08
-2.95153e-07
1.5614e-08
-3.14345e-07
6.69069e-08
-3.86572e-07
2.59047e-08
-3.94802e-07
-1.93475e-07
-1.67718e-07
-4.61805e-07
6.40495e-08
-1.97453e-07
-3.93861e-07
-1.24332e-07
-5.76629e-07
-8.25436e-08
-5.63167e-07
-3.66367e-08
-4.21678e-07
-3.71349e-08
-2.26191e-07
-6.84506e-08
3.76769e-08
-1.45951e-07
4.89913e-07
-1.5229e-07
1.02361e-06
-1.62429e-07
1.53636e-06
-1.66885e-07
1.95994e-06
-1.61064e-07
2.27884e-06
-1.484e-07
2.48118e-06
-1.33613e-07
2.57195e-06
-1.20243e-07
2.5729e-06
-1.09673e-07
2.5115e-06
-1.02178e-07
2.41311e-06
-9.73899e-08
2.2968e-06
-9.47148e-08
2.17504e-06
-9.36334e-08
2.05514e-06
-9.38852e-08
1.94106e-06
-9.56218e-08
1.83523e-06
-9.96744e-08
1.73999e-06
-1.07942e-07
1.65873e-06
1.59595e-06
-5.48393e-07
7.69439e-06
-5.56761e-07
7.74269e-06
-5.63069e-07
7.79716e-06
-5.67136e-07
7.85755e-06
-5.7078e-07
7.9348e-06
-5.76843e-07
8.062e-06
-5.79772e-07
8.25355e-06
-5.53148e-07
8.36157e-06
-4.57181e-07
7.955e-06
-2.81691e-07
6.5169e-06
-1.93107e-07
4.12426e-06
-1.77995e-07
1.86401e-06
-7.07041e-09
2.24588e-07
-2.42828e-08
-7.48901e-08
-9.37185e-09
-6.33139e-09
9.93346e-08
-2.11014e-07
2.26154e-07
-8.26019e-07
-5.03516e-08
-1.57544e-07
-1.35751e-07
-3.9969e-07
-8.99156e-08
-4.71506e-07
4.41409e-08
-4.2921e-07
2.05554e-07
-4.75759e-07
3.2682e-07
-5.07837e-07
2.95953e-07
-3.63936e-07
1.26577e-07
1.65915e-09
1.27107e-07
6.35192e-08
1.68241e-07
-4.34995e-07
5.97654e-08
-4.68154e-07
2.61251e-09
-5.06015e-07
-9.069e-09
-4.09996e-07
-1.90683e-08
-2.16191e-07
-6.92908e-08
8.78994e-08
-1.52987e-07
5.73609e-07
-2.1228e-07
1.0829e-06
-2.52041e-07
1.57612e-06
-2.77901e-07
1.9858e-06
-2.89633e-07
2.29058e-06
-2.89905e-07
2.48145e-06
-2.83503e-07
2.56555e-06
-2.7445e-07
2.56385e-06
-2.65521e-07
2.50257e-06
-2.58079e-07
2.40567e-06
-2.52566e-07
2.29129e-06
-2.48963e-07
2.17144e-06
-2.47152e-07
2.05333e-06
-2.47179e-07
1.94109e-06
-2.49456e-07
1.83751e-06
-2.54803e-07
1.74534e-06
-2.63513e-07
1.66744e-06
1.60374e-06
-5.25822e-07
7.70217e-06
-5.32123e-07
7.74899e-06
-5.36407e-07
7.80145e-06
-5.38762e-07
7.85991e-06
-5.41276e-07
7.93731e-06
-5.46404e-07
8.06713e-06
-5.47296e-07
8.25444e-06
-5.17143e-07
8.33142e-06
-4.20159e-07
7.85801e-06
-2.66371e-07
6.36311e-06
-1.79235e-07
4.03712e-06
-7.46006e-08
1.75938e-06
-1.01435e-07
2.51421e-07
-8.01516e-08
-9.61738e-08
-5.01137e-08
-3.63685e-08
-3.9554e-08
-2.21575e-07
-1.69865e-07
-6.95708e-07
-1.16922e-07
-2.10488e-07
-1.14762e-07
-4.0185e-07
-3.71234e-08
-5.49144e-07
1.08893e-07
-5.75226e-07
2.13783e-07
-5.80649e-07
2.39021e-07
-5.33075e-07
2.75914e-07
-4.00828e-07
3.43522e-07
-6.59493e-08
2.95546e-07
1.11495e-07
1.46186e-07
-2.85635e-07
1.13145e-07
-4.35112e-07
4.10581e-08
-4.33928e-07
-1.54569e-08
-3.53481e-07
-6.80137e-08
-1.63635e-07
-1.28875e-07
1.48761e-07
-2.04817e-07
6.49551e-07
-2.82006e-07
1.16009e-06
-3.42393e-07
1.63651e-06
-3.86134e-07
2.02954e-06
-4.12472e-07
2.31691e-06
-4.23871e-07
2.49285e-06
-4.24958e-07
2.56663e-06
-4.20365e-07
2.55926e-06
-4.13594e-07
2.4958e-06
-4.06812e-07
2.39889e-06
-4.01153e-07
2.28563e-06
-3.97129e-07
2.16742e-06
-3.9504e-07
2.05124e-06
-3.95297e-07
1.94134e-06
-3.98516e-07
1.84073e-06
-4.05018e-07
1.75184e-06
-4.13156e-07
1.67558e-06
1.60826e-06
-5.03962e-07
7.70807e-06
-5.08351e-07
7.75338e-06
-5.10796e-07
7.80389e-06
-5.11654e-07
7.86077e-06
-5.13231e-07
7.93889e-06
-5.17601e-07
8.0715e-06
-5.16846e-07
8.25369e-06
-4.84357e-07
8.29893e-06
-3.90728e-07
7.76439e-06
-2.55202e-07
6.22758e-06
-1.43832e-07
3.92575e-06
7.43645e-09
1.60811e-06
-5.45108e-08
3.13369e-07
-1.07832e-07
-4.28537e-08
-1.24439e-07
-1.97603e-08
-1.73572e-07
-1.72442e-07
-3.16028e-07
-5.53251e-07
-2.09817e-07
-3.16699e-07
-9.76509e-08
-5.14016e-07
7.09386e-08
-7.17734e-07
2.05458e-07
-7.09745e-07
3.11238e-07
-6.8643e-07
3.81637e-07
-6.03475e-07
4.23529e-07
-4.4272e-07
5.12809e-07
-1.55229e-07
6.24813e-07
-5.09606e-10
4.77635e-07
-1.38457e-07
3.01171e-07
-2.58648e-07
1.50148e-07
-2.82905e-07
8.02918e-09
-2.11362e-07
-1.16799e-07
-3.88062e-08
-2.06478e-07
2.3844e-07
-2.90626e-07
7.33698e-07
-3.68198e-07
1.23766e-06
-4.38854e-07
1.70716e-06
-4.94316e-07
2.085e-06
-5.31407e-07
2.354e-06
-5.51495e-07
2.51294e-06
-5.58782e-07
2.57392e-06
-5.58089e-07
2.55856e-06
-5.53429e-07
2.49114e-06
-5.47559e-07
2.39302e-06
-5.42139e-07
2.28021e-06
-5.38145e-07
2.16342e-06
-5.36298e-07
2.04939e-06
-5.37324e-07
1.94237e-06
-5.41764e-07
1.84517e-06
-5.49045e-07
1.75912e-06
-5.5632e-07
1.68286e-06
1.61127e-06
-4.82817e-07
7.71222e-06
-4.85412e-07
7.75597e-06
-4.86147e-07
7.80463e-06
-4.85642e-07
7.86026e-06
-4.86369e-07
7.93962e-06
-4.89978e-07
8.07511e-06
-4.87675e-07
8.25138e-06
-4.533e-07
8.26456e-06
-3.63098e-07
7.67418e-06
-2.35968e-07
6.10045e-06
-9.06233e-08
3.7804e-06
5.76229e-08
1.45986e-06
-1.28796e-08
3.83871e-07
-1.57492e-07
1.01759e-07
-2.40894e-07
6.36415e-08
-2.95454e-07
-1.17883e-07
-4.12472e-07
-4.36233e-07
-2.73082e-07
-4.5609e-07
-5.64157e-08
-7.30682e-07
1.89983e-07
-9.64133e-07
3.60074e-07
-8.79836e-07
4.82479e-07
-8.08834e-07
5.40453e-07
-6.61449e-07
5.5708e-07
-4.59348e-07
6.22928e-07
-2.21077e-07
6.81508e-07
-5.909e-08
5.97654e-07
-5.4603e-08
4.34078e-07
-9.50712e-08
2.57535e-07
-1.06362e-07
9.49651e-08
-4.87928e-08
-5.22849e-08
1.08444e-07
-1.89597e-07
3.75752e-07
-3.18532e-07
8.62633e-07
-4.32422e-07
1.35155e-06
-5.24779e-07
1.79952e-06
-5.95066e-07
2.15529e-06
-6.43267e-07
2.40221e-06
-6.71412e-07
2.54108e-06
-6.843e-07
2.58681e-06
-6.87248e-07
2.56151e-06
-6.8477e-07
2.48866e-06
-6.80122e-07
2.38837e-06
-6.75429e-07
2.27551e-06
-6.72105e-07
2.1601e-06
-6.71221e-07
2.04851e-06
-6.73564e-07
1.94471e-06
-6.79163e-07
1.85077e-06
-6.86497e-07
1.76646e-06
-6.9248e-07
1.68884e-06
1.61327e-06
-4.62389e-07
7.7147e-06
-4.63269e-07
7.75685e-06
-4.62372e-07
7.80373e-06
-4.60552e-07
7.85844e-06
-4.60381e-07
7.93945e-06
-4.63009e-07
8.07774e-06
-4.58993e-07
8.24737e-06
-4.23357e-07
8.22892e-06
-3.36451e-07
7.58728e-06
-2.18811e-07
5.98281e-06
-4.6775e-08
3.60837e-06
-1.16624e-08
1.42475e-06
-6.24709e-08
4.34679e-07
-2.27697e-07
2.66984e-07
-3.26771e-07
1.62716e-07
-3.80819e-07
-6.38343e-08
-4.30431e-07
-3.86622e-07
-2.77705e-07
-6.08816e-07
-3.01557e-08
-9.78231e-07
2.37731e-07
-1.23202e-06
4.19266e-07
-1.06137e-06
5.46285e-07
-9.35853e-07
6.16031e-07
-7.31195e-07
6.44736e-07
-4.88052e-07
6.69471e-07
-2.45812e-07
6.74092e-07
-6.37112e-08
6.00373e-07
1.91161e-08
4.64643e-07
4.06584e-08
3.03876e-07
5.44054e-08
1.41643e-07
1.1344e-07
-1.89434e-08
2.6903e-07
-1.78753e-07
5.35561e-07
-3.50459e-07
1.03434e-06
-4.91856e-07
1.49295e-06
-6.05091e-07
1.91276e-06
-6.903e-07
2.2405e-06
-7.4861e-07
2.46051e-06
-7.83947e-07
2.57642e-06
-8.01842e-07
2.6047e-06
-8.08181e-07
2.56785e-06
-8.07962e-07
2.48844e-06
-8.04879e-07
2.38529e-06
-8.0148e-07
2.27211e-06
-7.99542e-07
2.15816e-06
-8.00289e-07
2.04925e-06
-8.04213e-07
1.94864e-06
-8.10603e-07
1.85716e-06
-8.17371e-07
1.77323e-06
-8.21992e-07
1.69346e-06
1.61458e-06
-4.4268e-07
7.71557e-06
-4.41896e-07
7.75607e-06
-4.39393e-07
7.80123e-06
-4.36225e-07
7.85527e-06
-4.34988e-07
7.93821e-06
-4.36287e-07
8.07903e-06
-4.30285e-07
8.24137e-06
-3.9461e-07
8.19325e-06
-3.15311e-07
7.50798e-06
-2.13992e-07
5.8815e-06
-5.74789e-08
3.45185e-06
-4.67332e-08
1.414e-06
-1.69049e-07
5.56995e-07
-3.0288e-07
4.00815e-07
-3.6622e-07
2.26056e-07
-3.94254e-07
-3.58008e-08
-3.88218e-07
-3.92658e-07
-2.37733e-07
-7.59301e-07
1.2607e-08
-1.22857e-06
2.75019e-07
-1.49443e-06
4.53716e-07
-1.24007e-06
5.77686e-07
-1.05982e-06
6.47761e-07
-8.0127e-07
6.74294e-07
-5.14586e-07
6.71778e-07
-2.43296e-07
6.39214e-07
-3.11472e-08
5.58904e-07
9.94262e-08
4.35432e-07
1.6413e-07
2.86855e-07
2.02983e-07
1.27022e-07
2.73273e-07
-4.10039e-08
4.37057e-07
-2.4899e-07
7.43548e-07
-4.15585e-07
1.20093e-06
-5.68454e-07
1.64582e-06
-6.92845e-07
2.03715e-06
-7.86842e-07
2.33449e-06
-8.51848e-07
2.52552e-06
-8.92044e-07
2.61662e-06
-9.13491e-07
2.62615e-06
-9.22453e-07
2.57681e-06
-9.24251e-07
2.49024e-06
-9.22894e-07
2.38393e-06
-9.21235e-07
2.27046e-06
-9.21229e-07
2.15815e-06
-9.23942e-07
2.05197e-06
-9.2931e-07
1.95401e-06
-9.35989e-07
1.86384e-06
-9.41873e-07
1.77911e-06
-9.45318e-07
1.69691e-06
1.61542e-06
-4.23706e-07
7.71488e-06
-4.21281e-07
7.75364e-06
-4.17156e-07
7.7971e-06
-4.12534e-07
7.85065e-06
-4.09957e-07
7.93564e-06
-4.09448e-07
8.07852e-06
-4.00811e-07
8.23273e-06
-3.6413e-07
8.15657e-06
-2.88676e-07
7.43252e-06
-1.84186e-07
5.77701e-06
-7.67417e-08
3.34441e-06
-1.6813e-07
1.50539e-06
-2.85609e-07
6.74473e-07
-3.44425e-07
4.59631e-07
-3.49493e-07
2.31123e-07
-3.42616e-07
-4.26769e-08
-2.93164e-07
-4.42111e-07
-1.3632e-07
-9.16145e-07
1.00647e-07
-1.46554e-06
3.47058e-07
-1.74084e-06
5.09186e-07
-1.4022e-06
6.14994e-07
-1.16563e-06
6.66831e-07
-8.53107e-07
6.74569e-07
-5.22324e-07
6.48168e-07
-2.16896e-07
5.90297e-07
2.67242e-08
4.98784e-07
1.90939e-07
3.77114e-07
2.85801e-07
2.32518e-07
3.47579e-07
6.82931e-08
4.37497e-07
-1.16742e-07
6.22092e-07
-3.08414e-07
9.3522e-07
-4.9325e-07
1.38577e-06
-6.55483e-07
1.80805e-06
-7.8732e-07
2.16898e-06
-8.86664e-07
2.43384e-06
-9.55133e-07
2.59399e-06
-9.9776e-07
2.65924e-06
-1.0211e-06
2.64949e-06
-1.0317e-06
2.58741e-06
-1.03509e-06
2.49364e-06
-1.03548e-06
2.38432e-06
-1.03584e-06
2.27081e-06
-1.038e-06
2.16031e-06
-1.04259e-06
2.05656e-06
-1.04894e-06
1.96035e-06
-1.05539e-06
1.87029e-06
-1.06025e-06
1.78397e-06
-1.06273e-06
1.69939e-06
1.61595e-06
-4.05494e-07
7.71266e-06
-4.01433e-07
7.74958e-06
-3.95639e-07
7.79131e-06
-3.89406e-07
7.84442e-06
-3.85108e-07
7.93134e-06
-3.82127e-07
8.07554e-06
-3.69778e-07
8.22038e-06
-3.28983e-07
8.11577e-06
-2.48255e-07
7.35179e-06
-1.20003e-07
5.64876e-06
-7.58299e-08
3.30024e-06
-2.22375e-07
1.65194e-06
-3.23606e-07
7.75705e-07
-3.27626e-07
4.63651e-07
-2.83138e-07
1.86635e-07
-2.56923e-07
-6.88913e-08
-1.70611e-07
-5.28423e-07
-8.25795e-09
-1.0785e-06
2.36494e-07
-1.71029e-06
4.53449e-07
-1.9578e-06
5.86233e-07
-1.53498e-06
6.62979e-07
-1.24238e-06
6.87181e-07
-8.77308e-07
6.67639e-07
-5.02782e-07
6.15319e-07
-1.64575e-07
5.35684e-07
1.0636e-07
4.32059e-07
2.94564e-07
3.07906e-07
4.09954e-07
1.64645e-07
4.9084e-07
-3.76761e-10
6.0252e-07
-1.89628e-07
8.11343e-07
-3.9333e-07
1.13892e-06
-5.82719e-07
1.57516e-06
-7.50684e-07
1.97602e-06
-8.86905e-07
2.3052e-06
-9.88613e-07
2.53555e-06
-1.0582e-06
2.66358e-06
-1.10141e-06
2.70246e-06
-1.12534e-06
2.67342e-06
-1.13682e-06
2.59889e-06
-1.14152e-06
2.49834e-06
-1.1437e-06
2.38649e-06
-1.14619e-06
2.2733e-06
-1.15044e-06
2.16457e-06
-1.15648e-06
2.06259e-06
-1.16317e-06
1.96704e-06
-1.16896e-06
1.87608e-06
-1.17275e-06
1.78776e-06
-1.17445e-06
1.70109e-06
1.61625e-06
-3.8809e-07
7.70897e-06
-3.8239e-07
7.74388e-06
-3.74864e-07
7.78378e-06
-3.66833e-07
7.83639e-06
-3.60407e-07
7.92491e-06
-3.5431e-07
8.06945e-06
-3.37618e-07
8.20369e-06
-2.92154e-07
8.07031e-06
-2.08554e-07
7.26819e-06
-1.02247e-07
5.54245e-06
-1.13567e-07
3.31156e-06
-2.21824e-07
1.76019e-06
-2.79402e-07
8.33283e-07
-2.74773e-07
4.59023e-07
-1.99924e-07
1.11785e-07
-1.50014e-07
-1.18801e-07
-6.23594e-08
-6.16077e-07
1.6992e-07
-1.31078e-06
3.97737e-07
-1.93811e-06
5.76524e-07
-2.13659e-06
6.74032e-07
-1.63249e-06
7.16779e-07
-1.28513e-06
7.08594e-07
-8.69123e-07
6.58806e-07
-4.52994e-07
5.79091e-07
-8.48605e-08
4.7865e-07
2.068e-07
3.6268e-07
4.10534e-07
2.33822e-07
5.38811e-07
8.92893e-08
6.35373e-07
-7.85748e-08
7.70384e-07
-2.72846e-07
1.00561e-06
-4.90597e-07
1.35667e-06
-6.84047e-07
1.76861e-06
-8.54263e-07
2.14623e-06
-9.91243e-07
2.44218e-06
-1.09241e-06
2.63671e-06
-1.16086e-06
2.73203e-06
-1.20307e-06
2.74467e-06
-1.22657e-06
2.69692e-06
-1.23841e-06
2.61073e-06
-1.24428e-06
2.50421e-06
-1.24827e-06
2.39049e-06
-1.25284e-06
2.27787e-06
-1.25881e-06
2.17054e-06
-1.26566e-06
2.06944e-06
-1.27209e-06
1.97347e-06
-1.27692e-06
1.8809e-06
-1.27969e-06
1.79053e-06
-1.28077e-06
1.70217e-06
1.6164e-06
-3.71556e-07
7.70382e-06
-3.64221e-07
7.73655e-06
-3.54902e-07
7.77446e-06
-3.44894e-07
7.82638e-06
-3.35998e-07
7.91602e-06
-3.26348e-07
8.0598e-06
-3.05282e-07
8.18262e-06
-2.57165e-07
8.02219e-06
-1.79694e-07
7.19072e-06
-1.27796e-07
5.49055e-06
-1.79373e-07
3.36313e-06
-1.87592e-07
1.76841e-06
-2.29746e-07
8.75437e-07
-2.5224e-07
4.81517e-07
-1.77465e-07
3.70099e-08
-3.65139e-08
-2.59753e-07
1.24277e-07
-7.76868e-07
3.81683e-07
-1.56818e-06
5.58992e-07
-2.11542e-06
6.98074e-07
-2.27567e-06
7.6131e-07
-1.69572e-06
7.68319e-07
-1.29213e-06
7.25483e-07
-8.26288e-07
6.44484e-07
-3.71995e-07
5.38457e-07
2.11665e-08
4.18264e-07
3.26993e-07
2.90093e-07
5.38705e-07
1.54614e-07
6.7429e-07
5.04664e-09
7.84941e-07
-1.71665e-07
9.47095e-07
-3.75288e-07
1.20924e-06
-5.9153e-07
1.57291e-06
-7.91575e-07
1.96865e-06
-9.63455e-07
2.31811e-06
-1.09916e-06
2.57789e-06
-1.19756e-06
2.73511e-06
-1.26304e-06
2.79752e-06
-1.30294e-06
2.78456e-06
-1.32525e-06
2.71923e-06
-1.33712e-06
2.6226e-06
-1.34408e-06
2.51117e-06
-1.34981e-06
2.39622e-06
-1.35614e-06
2.28419e-06
-1.36323e-06
2.17763e-06
-1.37019e-06
2.07641e-06
-1.37589e-06
1.97917e-06
-1.37964e-06
1.88465e-06
-1.38152e-06
1.79241e-06
-1.38213e-06
1.70278e-06
1.61645e-06
-3.55976e-07
7.69729e-06
-3.47026e-07
7.7276e-06
-3.3587e-07
7.76331e-06
-3.23729e-07
7.81424e-06
-3.12049e-07
7.90434e-06
-2.98384e-07
8.04613e-06
-2.72302e-07
8.15654e-06
-2.20998e-07
7.97089e-06
-1.49363e-07
7.11909e-06
-1.11638e-07
5.45283e-06
-1.31377e-07
3.38287e-06
-1.3721e-07
1.77425e-06
-1.33833e-07
8.7206e-07
-1.16997e-07
4.64681e-07
-1.57411e-08
-6.42468e-08
1.74016e-07
-4.4951e-07
3.55886e-07
-9.58738e-07
5.38664e-07
-1.75096e-06
7.07194e-07
-2.28395e-06
8.14402e-07
-2.38288e-06
8.43039e-07
-1.72436e-06
8.12117e-07
-1.26121e-06
7.3294e-07
-7.47111e-07
6.20702e-07
-2.59757e-07
4.90071e-07
1.51797e-07
3.52304e-07
4.6476e-07
2.13257e-07
6.77753e-07
7.13573e-08
8.1619e-07
-8.33772e-08
9.39675e-07
-2.65265e-07
1.12898e-06
-4.77126e-07
1.4211e-06
-6.99766e-07
1.79555e-06
-9.05385e-07
2.17427e-06
-1.07747e-06
2.49019e-06
-1.20988e-06
2.7103e-06
-1.3036e-06
2.82883e-06
-1.36463e-06
2.85855e-06
-1.40128e-06
2.82121e-06
-1.42193e-06
2.73988e-06
-1.43367e-06
2.63434e-06
-1.44164e-06
2.51914e-06
-1.44885e-06
2.40343e-06
-1.45637e-06
2.29171e-06
-1.46384e-06
2.1851e-06
-1.4703e-06
2.08287e-06
-1.47496e-06
1.98383e-06
-1.47767e-06
1.88736e-06
-1.47883e-06
1.79357e-06
-1.47912e-06
1.70307e-06
1.61643e-06
-3.4145e-07
7.68943e-06
-3.30932e-07
7.71708e-06
-3.17924e-07
7.7503e-06
-3.03522e-07
7.79984e-06
-2.88717e-07
7.88953e-06
-2.70336e-07
8.02775e-06
-2.37578e-07
8.12378e-06
-1.78875e-07
7.91219e-06
-1.00748e-07
7.04096e-06
-3.86734e-08
5.39075e-06
-1.54054e-09
3.34574e-06
-2.4272e-08
1.79698e-06
2.23617e-08
8.25425e-07
7.76379e-08
4.09405e-07
1.46529e-07
-1.33138e-07
3.65103e-07
-6.68083e-07
5.73771e-07
-1.16741e-06
7.2861e-07
-1.9058e-06
8.63898e-07
-2.41924e-06
9.30782e-07
-2.44976e-06
9.16453e-07
-1.71003e-06
8.42876e-07
-1.18764e-06
7.25987e-07
-6.30223e-07
5.83731e-07
-1.17501e-07
4.30927e-07
3.04601e-07
2.78385e-07
6.17303e-07
1.30434e-07
8.25704e-07
-1.7481e-08
9.64105e-07
-1.79925e-07
1.10212e-06
-3.6856e-07
1.31762e-06
-5.96581e-07
1.64912e-06
-8.24441e-07
2.02341e-06
-1.02976e-06
2.3796e-06
-1.19782e-06
2.65825e-06
-1.32374e-06
2.83623e-06
-1.41053e-06
2.91562e-06
-1.46572e-06
2.91374e-06
-1.49842e-06
2.85391e-06
-1.51717e-06
2.75864e-06
-1.52873e-06
2.64589e-06
-1.53753e-06
2.52794e-06
-1.54575e-06
2.41165e-06
-1.55374e-06
2.29971e-06
-1.56087e-06
2.19224e-06
-1.56636e-06
2.08836e-06
-1.56987e-06
1.98734e-06
-1.57164e-06
1.88913e-06
-1.57226e-06
1.79419e-06
-1.57233e-06
1.70314e-06
1.61639e-06
-3.28097e-07
7.68035e-06
-3.1609e-07
7.70507e-06
-3.01269e-07
7.73548e-06
-2.84539e-07
7.78311e-06
-2.66349e-07
7.87134e-06
-2.42638e-07
8.00404e-06
-2.01889e-07
8.08303e-06
-1.32321e-07
7.84262e-06
-3.8884e-08
6.94752e-06
6.59134e-08
5.28595e-06
1.16192e-07
3.29546e-06
1.48966e-07
1.7642e-06
1.45206e-07
8.29186e-07
2.32567e-07
3.22045e-07
2.87893e-07
-1.88465e-07
5.20801e-07
-9.00991e-07
7.38294e-07
-1.3849e-06
9.13622e-07
-2.08113e-06
1.01751e-06
-2.52313e-06
1.0331e-06
-2.46535e-06
9.71065e-07
-1.64799e-06
8.53638e-07
-1.07021e-06
7.00245e-07
-4.76829e-07
5.30295e-07
5.24491e-08
3.58498e-07
4.76398e-07
1.93886e-07
7.81915e-07
3.77596e-08
9.8183e-07
-1.19779e-07
1.12164e-06
-2.97674e-07
1.28001e-06
-5.03802e-07
1.52375e-06
-7.36136e-07
1.88145e-06
-9.64164e-07
2.25144e-06
-1.16461e-06
2.58004e-06
-1.32412e-06
2.81775e-06
-1.44023e-06
2.95234e-06
-1.51799e-06
2.99338e-06
-1.56626e-06
2.962e-06
-1.59462e-06
2.88227e-06
-1.61143e-06
2.77545e-06
-1.62274e-06
2.6572e-06
-1.63204e-06
2.53724e-06
-1.64061e-06
2.42022e-06
-1.64831e-06
2.30741e-06
-1.6545e-06
2.19842e-06
-1.65874e-06
2.09259e-06
-1.6611e-06
1.98971e-06
-1.66209e-06
1.89011e-06
-1.66229e-06
1.79439e-06
-1.66221e-06
1.70306e-06
1.61631e-06
-3.16043e-07
7.67019e-06
-3.02681e-07
7.69171e-06
-2.86157e-07
7.71895e-06
-2.67174e-07
7.76412e-06
-2.45611e-07
7.84978e-06
-2.16538e-07
7.97497e-06
-1.67893e-07
8.03439e-06
-8.6934e-08
7.76166e-06
2.5681e-08
6.83491e-06
1.64066e-07
5.14757e-06
2.19838e-07
3.23969e-06
2.48948e-07
1.73509e-06
2.23066e-07
8.55068e-07
2.91631e-07
2.53479e-07
3.83726e-07
-2.80559e-07
6.20346e-07
-1.13761e-06
8.72399e-07
-1.63695e-06
1.05056e-06
-2.25928e-06
1.13112e-06
-2.60369e-06
1.10092e-06
-2.43515e-06
9.94734e-07
-1.54181e-06
8.36836e-07
-9.1231e-07
6.51229e-07
-2.91222e-07
4.58054e-07
2.45624e-07
2.71577e-07
6.62876e-07
9.86357e-08
9.54856e-07
-6.3042e-08
1.14351e-06
-2.28947e-07
1.28755e-06
-4.1886e-07
1.46993e-06
-6.44742e-07
1.74963e-06
-8.84653e-07
2.12137e-06
-1.11299e-06
2.47978e-06
-1.30553e-06
2.77258e-06
-1.45335e-06
2.96558e-06
-1.55736e-06
3.05635e-06
-1.62483e-06
3.06085e-06
-1.66573e-06
3.0029e-06
-1.6898e-06
2.90634e-06
-1.70479e-06
2.79043e-06
-1.71571e-06
2.66813e-06
-1.72501e-06
2.54654e-06
-1.73322e-06
2.42843e-06
-1.73995e-06
2.31415e-06
-1.74478e-06
2.20325e-06
-1.74766e-06
2.09548e-06
-1.74898e-06
1.99103e-06
-1.74931e-06
1.89045e-06
-1.74921e-06
1.79428e-06
-1.74902e-06
1.70287e-06
1.61623e-06
-3.05425e-07
7.6591e-06
-2.90895e-07
7.67718e-06
-2.72875e-07
7.70093e-06
-2.51875e-07
7.74312e-06
-2.27307e-07
7.82521e-06
-1.93594e-07
7.94125e-06
-1.38668e-07
7.97946e-06
-5.08359e-08
7.67383e-06
7.15981e-08
6.71247e-06
1.96486e-07
5.02268e-06
2.68853e-07
3.16732e-06
2.81495e-07
1.72245e-06
2.62867e-07
8.73696e-07
3.03355e-07
2.12991e-07
5.1311e-07
-4.90314e-07
7.08748e-07
-1.33325e-06
9.48991e-07
-1.8772e-06
1.12987e-06
-2.44016e-06
1.19505e-06
-2.66887e-06
1.12716e-06
-2.36726e-06
9.8221e-07
-1.39686e-06
7.89263e-07
-7.19363e-07
5.76953e-07
-7.89122e-08
3.6634e-07
4.56236e-07
1.70021e-07
8.59195e-07
-7.67791e-09
1.13255e-06
-1.7391e-07
1.30974e-06
-3.48985e-07
1.46262e-06
-5.5363e-07
1.67457e-06
-7.92679e-07
1.98868e-06
-1.04137e-06
2.37006e-06
-1.26667e-06
2.70508e-06
-1.44832e-06
2.95423e-06
-1.58216e-06
3.09942e-06
-1.67276e-06
3.14695e-06
-1.72958e-06
3.11767e-06
-1.76337e-06
3.03669e-06
-1.78356e-06
2.92654e-06
-1.79691e-06
2.80377e-06
-1.80721e-06
2.67843e-06
-1.81591e-06
2.55524e-06
-1.82306e-06
2.43558e-06
-1.82833e-06
2.31941e-06
-1.8316e-06
2.20653e-06
-1.83318e-06
2.09705e-06
-1.83359e-06
1.99145e-06