/*--------------------------------*- C++ -*----------------------------------*\
  =========                 |
  \\      /  F ield         | OpenFOAM: The Open Source CFD Toolbox
   \\    /   O peration     | Website:  https://openfoam.org
    \\  /    A nd           | Version:  9
     \\/     M anipulation  |
\*---------------------------------------------------------------------------*/
FoamFile
{
    format      ascii;
    class       volScalarField;
    location    "0.04";
    object      rAU;
}
// * * * * * * * * * * * * * * * * * * * * * * * * * * * * * * * * * * * * * //

dimensions      [-1 3 1 0 0 0 0];

internalField   nonuniform List<scalar> 
5000
(
3.28944e-05
3.2815e-05
3.27218e-05
3.26139e-05
3.24909e-05
3.23467e-05
3.21458e-05
3.18401e-05
3.15545e-05
3.18314e-05
3.28037e-05
2.83593e-05
3.47119e-06
6.41251e-08
4.33948e-08
4.32707e-08
4.32369e-08
4.32924e-08
4.33841e-08
4.34483e-08
4.34135e-08
4.33961e-08
4.33672e-08
4.33244e-08
4.32774e-08
4.32592e-08
4.3308e-08
4.34294e-08
4.35911e-08
5.24732e-08
4.25731e-07
3.42756e-05
3.46585e-05
3.3492e-05
3.19579e-05
3.034e-05
2.91948e-05
2.84516e-05
2.79743e-05
2.76434e-05
2.73734e-05
2.71118e-05
2.68317e-05
2.6522e-05
2.61797e-05
2.58054e-05
2.54003e-05
2.49654e-05
2.45014e-05
2.65815e-05
3.2884e-05
3.28066e-05
3.27168e-05
3.26142e-05
3.24995e-05
3.23639e-05
3.21688e-05
3.18821e-05
3.16842e-05
3.21484e-05
3.28488e-05
2.88158e-05
2.52921e-05
7.24882e-08
4.34572e-08
4.3244e-08
4.31641e-08
4.32166e-08
4.33359e-08
4.34272e-08
4.34032e-08
4.33871e-08
4.33596e-08
4.33167e-08
4.32539e-08
4.31906e-08
4.31768e-08
4.3261e-08
4.34576e-08
5.8403e-08
9.01826e-07
3.59158e-05
3.39213e-05
3.43028e-05
3.2879e-05
3.1148e-05
2.98513e-05
2.89709e-05
2.83909e-05
2.79942e-05
2.76887e-05
2.74125e-05
2.71299e-05
2.68234e-05
2.64862e-05
2.61168e-05
2.57157e-05
2.52838e-05
2.48214e-05
2.69742e-05
3.28774e-05
3.28026e-05
3.27167e-05
3.26202e-05
3.25138e-05
3.23862e-05
3.21968e-05
3.19334e-05
3.1826e-05
3.24483e-05
3.29357e-05
3.25885e-05
3.63476e-05
9.36185e-08
4.36401e-08
4.32879e-08
4.31503e-08
4.31828e-08
4.331e-08
4.34168e-08
4.33969e-08
4.33755e-08
4.33483e-08
4.33185e-08
4.32649e-08
4.31673e-08
4.30607e-08
4.30397e-08
4.33515e-08
8.10889e-08
2.3785e-05
3.46216e-05
3.22892e-05
3.50269e-05
3.36673e-05
3.18799e-05
3.04813e-05
2.94954e-05
2.88278e-05
2.83691e-05
2.80265e-05
2.77324e-05
2.74443e-05
2.7139e-05
2.68059e-05
2.64411e-05
2.60439e-05
2.56148e-05
2.51537e-05
2.73832e-05
3.28743e-05
3.28024e-05
3.27208e-05
3.26305e-05
3.2532e-05
3.24107e-05
3.22256e-05
3.19854e-05
3.19588e-05
3.27027e-05
3.42355e-05
3.79992e-05
3.81108e-05
1.60444e-07
4.50917e-08
4.34773e-08
4.3266e-08
4.32405e-08
4.33324e-08
4.34292e-08
4.3401e-08
4.33622e-08
4.33249e-08
4.33208e-08
4.33366e-08
4.32902e-08
4.31469e-08
4.30105e-08
4.75669e-08
1.71887e-07
2.6115e-05
3.33101e-05
3.21611e-05
3.53658e-05
3.42228e-05
3.24801e-05
3.10474e-05
2.99976e-05
2.92665e-05
2.87577e-05
2.83818e-05
2.80696e-05
2.77746e-05
2.74692e-05
2.71392e-05
2.67783e-05
2.63846e-05
2.59577e-05
2.54973e-05
2.78069e-05
3.28741e-05
3.28055e-05
3.27283e-05
3.26442e-05
3.25526e-05
3.24355e-05
3.22526e-05
3.20333e-05
3.20764e-05
3.28938e-05
3.50224e-05
3.87332e-05
3.99565e-05
4.11665e-07
5.26868e-08
4.35919e-08
4.34509e-08
4.34044e-08
4.34121e-08
4.34728e-08
4.34273e-08
4.33567e-08
4.32827e-08
4.32837e-08
4.34075e-08
4.35268e-08
4.34525e-08
4.33041e-08
7.68341e-08
1.16091e-06
2.71325e-05
3.063e-05
3.31625e-05
3.56112e-05
3.46005e-05
3.29568e-05
3.15474e-05
3.0472e-05
2.97016e-05
2.91562e-05
2.87534e-05
2.84252e-05
2.81231e-05
2.78166e-05
2.74889e-05
2.71315e-05
2.6741e-05
2.63159e-05
2.58554e-05
2.82485e-05
3.28766e-05
3.28113e-05
3.27385e-05
3.26602e-05
3.25744e-05
3.24596e-05
3.22776e-05
3.20787e-05
3.21862e-05
3.3076e-05
3.39712e-05
3.57057e-05
3.61529e-05
1.78582e-06
8.3531e-08
4.36072e-08
4.34629e-08
4.35088e-08
4.35107e-08
4.35401e-08
4.34884e-08
4.33823e-08
4.32377e-08
4.31732e-08
4.33536e-08
4.36648e-08
4.36954e-08
5.59637e-08
4.38008e-07
2.95091e-05
2.31367e-05
2.95488e-05
3.52894e-05
3.5836e-05
3.49708e-05
3.33833e-05
3.20123e-05
3.09319e-05
3.01387e-05
2.95678e-05
2.91441e-05
2.88021e-05
2.84932e-05
2.81853e-05
2.78594e-05
2.75055e-05
2.71186e-05
2.6696e-05
2.62357e-05
2.87192e-05
3.28814e-05
3.28194e-05
3.27509e-05
3.2678e-05
3.2597e-05
3.2483e-05
3.23018e-05
3.2125e-05
3.22969e-05
3.32756e-05
3.34772e-05
2.96317e-05
3.13472e-05
1.89056e-05
2.6482e-07
5.23929e-08
4.36841e-08
4.36429e-08
4.35549e-08
4.36059e-08
4.35847e-08
4.34657e-08
4.32502e-08
4.30552e-08
4.31742e-08
4.35865e-08
5.34294e-08
3.07858e-07
2.86579e-05
3.69763e-05
3.7064e-05
3.22384e-05
3.65891e-05
3.63776e-05
3.53561e-05
3.37988e-05
3.24579e-05
3.13831e-05
3.05792e-05
2.99922e-05
2.95533e-05
2.92004e-05
2.88855e-05
2.85758e-05
2.82512e-05
2.79001e-05
2.75163e-05
2.70955e-05
2.66346e-05
2.9216e-05
3.28881e-05
3.28294e-05
3.27652e-05
3.26972e-05
3.26199e-05
3.25059e-05
3.23263e-05
3.21742e-05
3.24123e-05
3.34977e-05
3.39968e-05
2.96564e-05
3.10758e-05
1.96949e-05
2.53922e-05
1.44528e-07
4.61791e-08
4.35815e-08
4.35197e-08
4.36394e-08
4.36876e-08
4.3605e-08
4.33902e-08
4.3111e-08
4.39742e-08
6.31412e-08
3.20608e-07
3.47089e-05
3.96009e-05
3.9935e-05
4.01347e-05
3.9762e-05
3.60837e-05
3.6545e-05
3.53331e-05
3.38935e-05
3.26927e-05
3.17531e-05
3.10096e-05
3.04187e-05
2.99729e-05
2.96136e-05
2.92949e-05
2.89842e-05
2.86607e-05
2.83122e-05
2.79309e-05
2.75114e-05
2.70493e-05
2.9724e-05
3.28966e-05
3.28412e-05
3.27809e-05
3.27173e-05
3.26429e-05
3.25284e-05
3.23514e-05
3.22257e-05
3.25303e-05
3.37489e-05
3.4247e-05
3.19136e-05
3.45665e-05
2.32668e-05
3.62041e-05
1.5561e-05
1.47018e-07
5.07777e-08
4.35791e-08
4.36179e-08
4.37368e-08
4.37672e-08
4.51315e-08
5.52609e-08
9.75856e-08
5.57716e-07
3.54036e-05
3.95982e-05
3.95505e-05
3.98287e-05
4.01082e-05
3.976e-05
3.59563e-05
3.62229e-05
3.51439e-05
3.36562e-05
3.24294e-05
3.14714e-05
3.07588e-05
3.02359e-05
2.98383e-05
2.95098e-05
2.92078e-05
2.89036e-05
2.85792e-05
2.82238e-05
2.78294e-05
2.7387e-05
2.68827e-05
2.10714e-05
3.29066e-05
3.28543e-05
3.27979e-05
3.27383e-05
3.26659e-05
3.25503e-05
3.23768e-05
3.22788e-05
3.26503e-05
3.39058e-05
3.44094e-05
3.79993e-05
3.48441e-05
3.63896e-05
4.13216e-05
4.14314e-05
3.23953e-05
2.85091e-07
9.57014e-08
6.87053e-08
6.92766e-08
8.49662e-08
1.45445e-07
3.64548e-07
3.86186e-06
2.20189e-05
2.87213e-05
3.90696e-05
3.97972e-05
3.99457e-05
4.01863e-05
3.92554e-05
3.5736e-05
3.56702e-05
3.49125e-05
3.33969e-05
3.2151e-05
3.11809e-05
3.04538e-05
2.99138e-05
2.9499e-05
2.91544e-05
2.88379e-05
2.85209e-05
2.81849e-05
2.78179e-05
2.74107e-05
2.69528e-05
2.64319e-05
2.06055e-05
3.2918e-05
3.28687e-05
3.28159e-05
3.27597e-05
3.26887e-05
3.25715e-05
3.24022e-05
3.23329e-05
3.27697e-05
3.40175e-05
3.461e-05
3.82002e-05
3.44144e-05
4.08464e-05
4.23728e-05
4.17598e-05
3.81455e-05
3.49003e-05
1.82184e-05
4.19001e-06
7.05099e-06
1.6006e-05
3.27828e-05
3.54424e-05
3.45084e-05
3.18399e-05
3.34325e-05
3.90245e-05
3.98453e-05
3.99851e-05
4.01732e-05
3.80227e-05
3.53785e-05
3.51955e-05
3.45965e-05
3.30758e-05
3.18504e-05
3.08834e-05
3.01544e-05
2.96069e-05
2.91811e-05
2.88239e-05
2.84948e-05
2.81655e-05
2.78174e-05
2.74376e-05
2.70154e-05
2.6541e-05
2.60086e-05
2.01776e-05
3.29305e-05
3.28842e-05
3.28348e-05
3.27816e-05
3.27112e-05
3.25921e-05
3.24277e-05
3.23874e-05
3.28837e-05
3.41798e-05
3.61681e-05
3.78169e-05
3.44268e-05
4.1499e-05
4.22997e-05
4.19387e-05
4.03923e-05
3.79871e-05
3.88142e-05
4.0653e-05
4.02881e-05
3.99792e-05
3.82849e-05
3.77701e-05
3.82968e-05
3.88547e-05
3.96543e-05
3.94997e-05
3.97055e-05
4.01174e-05
4.01932e-05
3.66364e-05
3.49586e-05
3.49661e-05
3.42243e-05
3.27277e-05
3.15301e-05
3.05815e-05
2.98612e-05
2.93144e-05
2.88833e-05
2.85173e-05
2.81776e-05
2.78367e-05
2.74759e-05
2.70816e-05
2.66431e-05
2.61537e-05
2.56163e-05
1.97858e-05
3.2944e-05
3.29007e-05
3.28546e-05
3.28039e-05
3.27335e-05
3.26124e-05
3.24536e-05
3.24428e-05
3.29933e-05
3.43675e-05
3.63378e-05
3.30548e-05
3.52614e-05
4.22272e-05
4.21479e-05
4.18904e-05
4.12524e-05
4.12978e-05
4.11445e-05
4.05425e-05
3.98723e-05
3.95504e-05
3.97429e-05
3.9893e-05
4.01503e-05
4.00939e-05
3.9787e-05
3.97561e-05
3.98947e-05
4.02631e-05
4.01218e-05
3.6443e-05
3.4695e-05
3.5095e-05
3.38637e-05
3.23818e-05
3.12092e-05
3.02836e-05
2.95782e-05
2.90376e-05
2.86054e-05
2.82332e-05
2.7884e-05
2.75314e-05
2.71566e-05
2.67463e-05
2.62916e-05
2.57913e-05
2.5255e-05
1.94278e-05
3.29585e-05
3.29181e-05
3.2875e-05
3.28267e-05
3.27558e-05
3.26329e-05
3.24806e-05
3.24991e-05
3.30991e-05
3.45934e-05
3.66644e-05
3.31138e-05
3.89713e-05
4.20068e-05
4.19202e-05
4.18468e-05
4.12985e-05
4.11848e-05
4.1005e-05
4.07007e-05
3.99979e-05
3.96851e-05
3.95849e-05
3.9711e-05
3.99545e-05
4.00886e-05
4.00112e-05
3.99726e-05
4.00814e-05
4.02629e-05
3.9819e-05
3.61319e-05
3.49971e-05
3.51703e-05
3.34755e-05
3.20245e-05
3.08856e-05
2.99901e-05
2.93055e-05
2.87756e-05
2.83454e-05
2.79688e-05
2.76108e-05
2.72458e-05
2.68559e-05
2.6429e-05
2.59605e-05
2.54542e-05
2.49226e-05
1.90993e-05
3.29739e-05
3.29364e-05
3.28963e-05
3.28499e-05
3.27785e-05
3.26541e-05
3.25092e-05
3.25559e-05
3.31985e-05
3.48171e-05
3.7471e-05
3.31121e-05
3.84597e-05
4.16541e-05
4.17176e-05
4.18648e-05
4.13504e-05
4.10459e-05
4.0691e-05
4.03147e-05
3.96522e-05
3.93997e-05
3.94058e-05
3.96089e-05
3.99179e-05
4.01642e-05
4.00465e-05
3.99729e-05
4.00167e-05
4.00157e-05
3.93726e-05
3.56112e-05
3.61965e-05
3.46956e-05
3.30359e-05
3.16423e-05
3.0552e-05
2.96966e-05
2.90397e-05
2.8525e-05
2.80997e-05
2.77204e-05
2.73538e-05
2.69758e-05
2.65702e-05
2.61283e-05
2.56497e-05
2.5142e-05
2.46166e-05
1.87967e-05
3.299e-05
3.29555e-05
3.29184e-05
3.28739e-05
3.28018e-05
3.26766e-05
3.25404e-05
3.26148e-05
3.32994e-05
3.49186e-05
3.36933e-05
3.29973e-05
3.79484e-05
4.14039e-05
4.16505e-05
4.19241e-05
4.14154e-05
4.09601e-05
4.0337e-05
3.98781e-05
3.92879e-05
3.91695e-05
3.92553e-05
3.95475e-05
3.99599e-05
4.02703e-05
3.99781e-05
3.98287e-05
3.98007e-05
3.97507e-05
3.88471e-05
3.50585e-05
3.5928e-05
3.41609e-05
3.25707e-05
3.12531e-05
3.02119e-05
2.94037e-05
2.87794e-05
2.82834e-05
2.78653e-05
2.74841e-05
2.71088e-05
2.67176e-05
2.62974e-05
2.58434e-05
2.53593e-05
2.48535e-05
2.43343e-05
1.85177e-05
3.30069e-05
3.29754e-05
3.29413e-05
3.28986e-05
3.28261e-05
3.27012e-05
3.25754e-05
3.2679e-05
3.34106e-05
3.49205e-05
3.12143e-05
3.28623e-05
3.89973e-05
4.13462e-05
4.17399e-05
4.20107e-05
4.13709e-05
4.04018e-05
4.00128e-05
3.94167e-05
3.89159e-05
3.89228e-05
3.91741e-05
3.95538e-05
4.00779e-05
4.02736e-05
3.98979e-05
3.97045e-05
3.96224e-05
3.95118e-05
3.82838e-05
3.4955e-05
3.53157e-05
3.36004e-05
3.20912e-05
3.08505e-05
2.98724e-05
2.91155e-05
2.85264e-05
2.80507e-05
2.76404e-05
2.72572e-05
2.68729e-05
2.6469e-05
2.60364e-05
2.55744e-05
2.50889e-05
2.45871e-05
2.40736e-05
1.82601e-05
3.30245e-05
3.29961e-05
3.29651e-05
3.29243e-05
3.28519e-05
3.27284e-05
3.26146e-05
3.27484e-05
3.35236e-05
3.50295e-05
3.32783e-05
3.56764e-05
4.04498e-05
4.14183e-05
4.19211e-05
3.85605e-05
3.25957e-05
3.81168e-05
3.95286e-05
3.89721e-05
3.85772e-05
3.87139e-05
3.91127e-05
3.96599e-05
4.02672e-05
4.01815e-05
3.97977e-05
3.95822e-05
3.94612e-05
3.91048e-05
3.76595e-05
3.53898e-05
3.46763e-05
3.30283e-05
3.16051e-05
3.04469e-05
2.95385e-05
2.88354e-05
2.82824e-05
2.7827e-05
2.74238e-05
2.70378e-05
2.66444e-05
2.62292e-05
2.57875e-05
2.53217e-05
2.48379e-05
2.43409e-05
2.38322e-05
1.80218e-05
3.30426e-05
3.30175e-05
3.29897e-05
3.29511e-05
3.28794e-05
3.27585e-05
3.26579e-05
3.28202e-05
3.36265e-05
3.51144e-05
3.74878e-05
3.94357e-05
4.09129e-05
4.14543e-05
4.08565e-05
3.13363e-05
3.08078e-05
3.43341e-05
3.89626e-05
3.85778e-05
3.8282e-05
3.85495e-05
3.90984e-05
3.9783e-05
4.04621e-05
4.00585e-05
3.96794e-05
3.94579e-05
3.93106e-05
3.8684e-05
3.723e-05
3.55655e-05
3.40342e-05
3.24584e-05
3.11243e-05
3.00518e-05
2.92149e-05
2.85655e-05
2.8048e-05
2.76115e-05
2.72141e-05
2.68244e-05
2.64223e-05
2.59984e-05
2.55514e-05
2.50854e-05
2.46052e-05
2.41129e-05
2.36076e-05
1.78003e-05
3.30612e-05
3.30395e-05
3.30151e-05
3.2979e-05
3.29086e-05
3.27918e-05
3.27057e-05
3.2896e-05
3.3727e-05
3.52745e-05
3.75792e-05
3.53773e-05
4.09397e-05
4.1557e-05
3.60303e-05
3.11659e-05
3.04249e-05
3.17057e-05
3.84694e-05
3.82736e-05
3.80695e-05
3.84656e-05
3.91469e-05
3.99813e-05
4.04561e-05
3.99119e-05
3.9548e-05
3.93296e-05
3.89672e-05
3.79961e-05
3.58372e-05
3.49915e-05
3.33869e-05
3.18944e-05
3.06543e-05
2.96696e-05
2.89047e-05
2.83076e-05
2.78233e-05
2.74034e-05
2.70097e-05
2.66157e-05
2.62065e-05
2.57769e-05
2.53283e-05
2.48647e-05
2.43888e-05
2.39004e-05
2.33974e-05
1.75933e-05
3.30801e-05
3.30619e-05
3.30412e-05
3.3008e-05
3.29399e-05
3.28289e-05
3.27598e-05
3.29807e-05
3.38435e-05
3.54382e-05
3.65032e-05
3.48809e-05
4.08184e-05
4.15074e-05
3.14525e-05
3.07723e-05
3.0021e-05
3.33709e-05
3.82191e-05
3.80229e-05
3.79413e-05
3.84796e-05
3.92976e-05
4.02604e-05
4.02693e-05
3.9752e-05
3.94117e-05
3.91596e-05
3.85602e-05
3.72257e-05
3.51104e-05
3.4041e-05
3.2732e-05
3.13374e-05
3.01983e-05
2.93037e-05
2.86098e-05
2.80622e-05
2.76078e-05
2.72013e-05
2.68096e-05
2.64115e-05
2.59974e-05
2.55655e-05
2.51182e-05
2.46584e-05
2.41866e-05
2.37012e-05
2.31994e-05
1.73988e-05
3.30991e-05
3.30847e-05
3.30678e-05
3.30379e-05
3.29731e-05
3.28699e-05
3.28209e-05
3.30767e-05
3.39809e-05
3.5532e-05
3.31644e-05
3.4739e-05
4.02294e-05
4.06985e-05
3.12138e-05
3.03775e-05
2.9681e-05
3.64538e-05
3.78859e-05
3.78202e-05
3.78837e-05
3.85928e-05
3.95531e-05
4.05227e-05
4.0073e-05
3.95903e-05
3.92799e-05
3.88182e-05
3.7943e-05
3.62208e-05
3.43527e-05
3.31771e-05
3.20827e-05
3.07959e-05
2.97627e-05
2.89579e-05
2.8332e-05
2.78299e-05
2.74009e-05
2.70045e-05
2.66134e-05
2.62124e-05
2.5796e-05
2.53648e-05
2.49208e-05
2.44652e-05
2.39968e-05
2.35133e-05
2.30121e-05
1.72153e-05
3.31181e-05
3.31075e-05
3.30947e-05
3.30685e-05
3.30079e-05
3.29143e-05
3.28877e-05
3.31817e-05
3.4114e-05
3.55564e-05
3.30782e-05
3.46592e-05
3.97521e-05
4.06657e-05
3.15843e-05
3.00395e-05
3.11701e-05
3.79138e-05
3.76108e-05
3.77126e-05
3.79407e-05
3.88093e-05
3.99266e-05
4.05058e-05
3.98778e-05
3.94349e-05
3.90172e-05
3.83267e-05
3.72039e-05
3.51087e-05
3.35981e-05
3.2702e-05
3.14572e-05
3.0283e-05
2.93555e-05
2.8637e-05
2.80736e-05
2.7611e-05
2.72023e-05
2.68131e-05
2.64221e-05
2.60198e-05
2.56039e-05
2.51756e-05
2.47358e-05
2.4284e-05
2.3818e-05
2.33355e-05
2.28343e-05
1.70417e-05
3.31367e-05
3.31301e-05
3.31215e-05
3.30993e-05
3.30435e-05
3.29607e-05
3.29573e-05
3.32887e-05
3.42256e-05
3.54604e-05
3.45521e-05
3.46468e-05
3.91438e-05
4.06488e-05
3.47499e-05
2.97321e-05
3.34278e-05
3.78892e-05
3.74304e-05
3.77119e-05
3.81173e-05
3.91449e-05
4.0399e-05
4.02815e-05
3.96942e-05
3.92702e-05
3.8653e-05
3.7735e-05
3.62658e-05
3.43683e-05
3.28919e-05
3.21557e-05
3.08664e-05
2.98082e-05
2.89831e-05
2.83443e-05
2.78359e-05
2.74056e-05
2.70122e-05
2.66278e-05
2.62375e-05
2.5836e-05
2.54228e-05
2.49985e-05
2.45628e-05
2.4114e-05
2.36495e-05
2.31672e-05
2.26656e-05
1.68776e-05
3.31548e-05
3.31521e-05
3.31477e-05
3.31296e-05
3.30791e-05
3.30074e-05
3.30269e-05
3.33919e-05
3.43458e-05
3.55769e-05
3.74723e-05
3.46671e-05
3.88203e-05
4.06084e-05
3.53061e-05
2.95229e-05
3.4294e-05
3.76446e-05
3.7348e-05
3.78188e-05
3.84078e-05
3.95965e-05
4.06752e-05
4.00709e-05
3.95289e-05
3.89121e-05
3.80653e-05
3.70952e-05
3.54346e-05
3.36006e-05
3.2533e-05
3.14944e-05
3.03148e-05
2.93748e-05
2.86476e-05
2.80806e-05
2.76185e-05
2.72135e-05
2.68311e-05
2.64504e-05
2.60619e-05
2.56631e-05
2.52539e-05
2.48339e-05
2.44016e-05
2.39547e-05
2.34907e-05
2.3008e-05
2.25059e-05
1.67227e-05
3.3172e-05
3.31731e-05
3.31729e-05
3.3159e-05
3.31139e-05
3.30537e-05
3.3096e-05
3.34933e-05
3.44596e-05
3.58275e-05
3.58284e-05
3.46775e-05
3.91119e-05
4.04424e-05
3.34803e-05
2.93712e-05
3.52917e-05
3.73864e-05
3.73012e-05
3.80131e-05
3.88119e-05
4.01583e-05
4.05738e-05
3.98802e-05
3.92372e-05
3.84071e-05
3.74536e-05
3.64059e-05
3.46111e-05
3.28915e-05
3.21478e-05
3.0874e-05
2.98163e-05
2.89894e-05
2.83509e-05
2.78455e-05
2.74205e-05
2.70344e-05
2.66599e-05
2.62827e-05
2.58974e-05
2.55027e-05
2.50979e-05
2.46816e-05
2.42516e-05
2.38054e-05
2.33412e-05
2.28578e-05
2.23548e-05
1.65076e-05
3.3188e-05
3.31929e-05
3.31967e-05
3.31868e-05
3.31474e-05
3.3099e-05
3.31651e-05
3.35915e-05
3.45649e-05
3.59266e-05
3.33262e-05
3.4701e-05
3.9874e-05
4.00656e-05
3.27661e-05
3.17661e-05
3.66287e-05
3.71476e-05
3.73252e-05
3.83047e-05
3.93265e-05
4.07765e-05
4.03611e-05
3.96904e-05
3.88378e-05
3.78015e-05
3.68208e-05
3.56941e-05
3.39473e-05
3.27546e-05
3.14918e-05
3.03163e-05
2.93792e-05
2.86552e-05
2.80932e-05
2.76377e-05
2.72407e-05
2.68681e-05
2.64998e-05
2.61267e-05
2.57456e-05
2.53554e-05
2.49546e-05
2.45409e-05
2.4112e-05
2.36657e-05
2.32007e-05
2.27162e-05
2.22123e-05
1.62907e-05
3.32025e-05
3.3211e-05
3.32186e-05
3.32126e-05
3.31789e-05
3.31428e-05
3.32336e-05
3.3683e-05
3.46684e-05
3.60393e-05
3.3443e-05
3.58155e-05
4.03323e-05
3.87581e-05
3.24848e-05
3.406e-05
3.73565e-05
3.69859e-05
3.74594e-05
3.87099e-05
3.99481e-05
4.09763e-05
4.017e-05
3.92811e-05
3.82113e-05
3.71951e-05
3.61229e-05
3.47061e-05
3.34996e-05
3.21656e-05
3.08827e-05
2.98262e-05
2.90025e-05
2.83693e-05
2.78709e-05
2.74541e-05
2.70776e-05
2.67149e-05
2.63521e-05
2.59835e-05
2.56071e-05
2.52211e-05
2.48232e-05
2.4411e-05
2.39821e-05
2.35349e-05
2.30687e-05
2.2583e-05
2.20781e-05
1.60891e-05
3.32152e-05
3.32269e-05
3.32381e-05
3.32357e-05
3.32076e-05
3.31843e-05
3.33002e-05
3.37801e-05
3.47868e-05
3.63328e-05
3.35596e-05
3.83479e-05
4.03532e-05
3.53835e-05
3.2151e-05
3.45771e-05
3.71085e-05
3.6967e-05
3.77363e-05
3.92346e-05
4.06678e-05
4.07596e-05
3.98438e-05
3.87371e-05
3.76018e-05
3.65851e-05
3.54363e-05
3.37429e-05
3.27569e-05
3.15012e-05
3.0335e-05
2.94e-05
2.86806e-05
2.81257e-05
2.76784e-05
2.72908e-05
2.69293e-05
2.65745e-05
2.62171e-05
2.58536e-05
2.54816e-05
2.50989e-05
2.47028e-05
2.42907e-05
2.3861e-05
2.34126e-05
2.29449e-05
2.24579e-05
2.19521e-05
1.59019e-05
3.32258e-05
3.32404e-05
3.32547e-05
3.32556e-05
3.32329e-05
3.32226e-05
3.33641e-05
3.3881e-05
3.49179e-05
3.6554e-05
3.36304e-05
3.85092e-05
4.03843e-05
3.5358e-05
3.18387e-05
3.5651e-05
3.69453e-05
3.7096e-05
3.81508e-05
3.98678e-05
4.12154e-05
4.05543e-05
3.94133e-05
3.80988e-05
3.70019e-05
3.59238e-05
3.43841e-05
3.29923e-05
3.20257e-05
3.08939e-05
2.98502e-05
2.90326e-05
2.84068e-05
2.79173e-05
2.75102e-05
2.71446e-05
2.67946e-05
2.64468e-05
2.60951e-05
2.57364e-05
2.53682e-05
2.49876e-05
2.4592e-05
2.41793e-05
2.37482e-05
2.32981e-05
2.28289e-05
2.23406e-05
2.1834e-05
1.57283e-05
3.3234e-05
3.32511e-05
3.32679e-05
3.32716e-05
3.32541e-05
3.3257e-05
3.34257e-05
3.39846e-05
3.50623e-05
3.45421e-05
3.37472e-05
3.89021e-05
4.0516e-05
3.5142e-05
3.23587e-05
3.65004e-05
3.69062e-05
3.73644e-05
3.86875e-05
4.059e-05
4.12675e-05
4.00876e-05
3.87334e-05
3.74909e-05
3.64108e-05
3.52383e-05
3.35695e-05
3.2283e-05
3.14632e-05
3.03495e-05
2.94283e-05
2.8719e-05
2.81744e-05
2.77381e-05
2.7362e-05
2.70133e-05
2.66729e-05
2.63319e-05
2.59857e-05
2.56312e-05
2.52656e-05
2.48859e-05
2.44898e-05
2.40758e-05
2.3643e-05
2.31912e-05
2.27205e-05
2.2231e-05
2.17234e-05
1.55676e-05
3.32395e-05
3.32586e-05
3.32774e-05
3.32831e-05
3.32704e-05
3.32869e-05
3.3485e-05
3.40922e-05
3.52183e-05
3.39369e-05
3.61107e-05
3.94505e-05
4.0735e-05
3.45569e-05
3.39015e-05
3.66716e-05
3.69461e-05
3.77472e-05
3.93297e-05
4.13798e-05
4.09267e-05
3.95223e-05
3.80948e-05
3.69043e-05
3.57901e-05
3.42366e-05
3.28688e-05
3.16489e-05
3.08841e-05
2.98681e-05
2.90658e-05
2.84535e-05
2.7977e-05
2.7583e-05
2.72309e-05
2.68956e-05
2.65639e-05
2.62293e-05
2.58881e-05
2.55368e-05
2.51726e-05
2.47928e-05
2.43955e-05
2.39798e-05
2.35452e-05
2.30917e-05
2.26194e-05
2.21288e-05
2.16204e-05
1.54193e-05
3.3242e-05
3.32625e-05
3.32825e-05
3.32896e-05
3.3281e-05
3.33109e-05
3.35392e-05
3.42087e-05
3.53794e-05
3.4602e-05
3.83125e-05
3.96906e-05
3.98633e-05
3.43914e-05
3.59278e-05
3.69117e-05
3.69817e-05
3.81759e-05
4.00569e-05
4.18721e-05
4.04485e-05
3.88355e-05
3.74874e-05
3.63214e-05
3.51268e-05
3.34427e-05
3.2179e-05
3.11661e-05
3.0344e-05
2.94486e-05
2.87578e-05
2.82299e-05
2.78092e-05
2.74483e-05
2.71151e-05
2.67912e-05
2.64675e-05
2.61387e-05
2.58014e-05
2.54522e-05
2.50883e-05
2.47075e-05
2.43086e-05
2.38911e-05
2.34546e-05
2.29994e-05
2.25257e-05
2.2034e-05
2.15248e-05
1.52828e-05
3.32414e-05
3.32626e-05
3.3283e-05
3.32904e-05
3.3285e-05
3.33276e-05
3.35858e-05
3.43148e-05
3.54025e-05
3.70243e-05
3.75365e-05
3.99009e-05
3.61038e-05
3.42235e-05
3.67893e-05
3.69267e-05
3.72695e-05
3.87615e-05
4.08456e-05
4.16018e-05
3.97515e-05
3.81905e-05
3.68967e-05
3.57062e-05
3.41144e-05
3.276e-05
3.15279e-05
3.08238e-05
2.98676e-05
2.90911e-05
2.85001e-05
2.80429e-05
2.76667e-05
2.73318e-05
2.70139e-05
2.67e-05
2.63833e-05
2.60595e-05
2.57249e-05
2.53765e-05
2.5012e-05
2.46298e-05
2.42291e-05
2.38096e-05
2.33713e-05
2.29145e-05
2.24395e-05
2.19466e-05
2.14367e-05
1.51579e-05
3.32376e-05
3.32586e-05
3.32783e-05
3.3285e-05
3.32818e-05
3.33366e-05
3.36245e-05
3.43977e-05
3.55666e-05
3.74546e-05
3.75092e-05
3.93304e-05
3.58203e-05
3.6565e-05
3.76221e-05
3.72315e-05
3.77448e-05
3.94525e-05
4.16754e-05
4.11105e-05
3.90524e-05
3.75717e-05
3.63034e-05
3.50431e-05
3.33347e-05
3.20827e-05
3.09768e-05
3.03126e-05
2.9456e-05
2.87924e-05
2.82878e-05
2.78882e-05
2.75469e-05
2.72325e-05
2.69273e-05
2.6622e-05
2.63112e-05
2.59909e-05
2.56578e-05
2.53093e-05
2.49436e-05
2.45596e-05
2.41569e-05
2.37355e-05
2.32955e-05
2.28372e-05
2.23608e-05
2.18669e-05
2.13562e-05
1.50447e-05
3.32303e-05
3.32503e-05
3.32685e-05
3.32731e-05
3.32711e-05
3.33376e-05
3.36556e-05
3.44715e-05
3.58752e-05
3.76714e-05
3.76998e-05
3.94983e-05
3.57032e-05
3.61225e-05
3.761e-05
3.75485e-05
3.83679e-05
4.01343e-05
4.19735e-05
4.0372e-05
3.83873e-05
3.69598e-05
3.56582e-05
3.39499e-05
3.26559e-05
3.14405e-05
3.06836e-05
2.98514e-05
2.91102e-05
2.85481e-05
2.81159e-05
2.7762e-05
2.74479e-05
2.71498e-05
2.68552e-05
2.6557e-05
2.62507e-05
2.59326e-05
2.55998e-05
2.52504e-05
2.4883e-05
2.44971e-05
2.40925e-05
2.36692e-05
2.32275e-05
2.27676e-05
2.229e-05
2.17951e-05
2.12836e-05
1.4943e-05
3.32196e-05
3.32378e-05
3.32532e-05
3.32547e-05
3.32527e-05
3.33308e-05
3.36799e-05
3.45449e-05
3.60641e-05
3.67925e-05
3.83477e-05
4.00155e-05
3.56386e-05
3.67421e-05
3.76883e-05
3.79826e-05
3.92186e-05
4.07922e-05
4.16407e-05
3.96749e-05
3.77366e-05
3.63337e-05
3.48348e-05
3.32302e-05
3.19819e-05
3.08855e-05
3.02675e-05
2.9457e-05
2.88289e-05
2.83543e-05
2.79804e-05
2.7662e-05
2.73689e-05
2.70838e-05
2.67977e-05
2.65049e-05
2.62015e-05
2.58842e-05
2.55509e-05
2.51999e-05
2.48306e-05
2.44427e-05
2.40361e-05
2.36109e-05
2.31676e-05
2.27062e-05
2.22273e-05
2.17314e-05
2.12192e-05
1.48532e-05
3.32055e-05
3.3221e-05
3.32325e-05
3.32296e-05
3.32267e-05
3.33163e-05
3.36984e-05
3.46187e-05
3.61644e-05
3.65252e-05
3.87258e-05
3.70569e-05
3.59911e-05
3.82273e-05
3.79305e-05
3.8528e-05
3.9766e-05
4.13091e-05
4.08515e-05
3.90002e-05
3.70768e-05
3.55995e-05
3.38244e-05
3.25424e-05
3.13481e-05
3.06531e-05
2.98333e-05
2.9135e-05
2.86089e-05
2.82064e-05
2.78779e-05
2.75865e-05
2.73094e-05
2.70345e-05
2.67547e-05
2.64655e-05
2.61634e-05
2.58458e-05
2.5511e-05
2.51582e-05
2.47868e-05
2.43968e-05
2.39882e-05
2.35613e-05
2.31162e-05
2.26534e-05
2.21733e-05
2.16763e-05
2.11633e-05
1.47755e-05
3.31881e-05
3.31999e-05
3.32065e-05
3.31979e-05
3.31932e-05
3.32943e-05
3.37106e-05
3.46868e-05
3.60323e-05
3.73035e-05
3.89746e-05
3.68556e-05
3.99945e-05
3.85424e-05
3.82929e-05
3.90643e-05
4.00697e-05
4.1439e-05
4.00985e-05
3.83284e-05
3.63192e-05
3.47856e-05
3.31665e-05
3.19189e-05
3.10541e-05
3.02435e-05
2.94723e-05
2.88863e-05
2.84461e-05
2.81002e-05
2.78059e-05
2.75343e-05
2.72692e-05
2.70016e-05
2.6726e-05
2.64385e-05
2.61363e-05
2.58173e-05
2.54806e-05
2.51256e-05
2.4752e-05
2.43599e-05
2.39493e-05
2.35205e-05
2.30739e-05
2.26096e-05
2.21282e-05
2.16301e-05
2.11162e-05
1.47101e-05
3.31676e-05
3.31749e-05
3.31754e-05
3.31599e-05
3.31523e-05
3.32647e-05
3.37163e-05
3.47448e-05
3.57968e-05
3.67158e-05
3.91297e-05
3.69645e-05
3.94432e-05
3.86746e-05
3.8789e-05
3.93004e-05
4.03569e-05
4.0946e-05
3.93554e-05
3.75727e-05
3.55027e-05
3.40928e-05
3.28885e-05
3.16972e-05
3.07031e-05
2.98495e-05
2.91949e-05
2.87071e-05
2.83352e-05
2.80317e-05
2.77619e-05
2.75044e-05
2.72476e-05
2.69846e-05
2.67111e-05
2.64236e-05
2.612e-05
2.57991e-05
2.546e-05
2.51026e-05
2.47267e-05
2.43324e-05
2.39198e-05
2.34892e-05
2.30408e-05
2.25751e-05
2.20923e-05
2.15932e-05
2.10784e-05
1.46574e-05
3.31443e-05
3.31463e-05
3.31396e-05
3.3116e-05
3.31045e-05
3.32279e-05
3.37143e-05
3.47916e-05
3.5894e-05
3.47849e-05
3.70132e-05
3.72652e-05
3.96815e-05
3.89e-05
3.92359e-05
3.9616e-05
4.04592e-05
4.01841e-05
3.86058e-05
3.67762e-05
3.47996e-05
3.34551e-05
3.23263e-05
3.12083e-05
3.02758e-05
2.95457e-05
2.89993e-05
2.8591e-05
2.82703e-05
2.79969e-05
2.77438e-05
2.74957e-05
2.72439e-05
2.6983e-05
2.67094e-05
2.64206e-05
2.61148e-05
2.57912e-05
2.54495e-05
2.50895e-05
2.47112e-05
2.43146e-05
2.39e-05
2.34675e-05
2.30174e-05
2.25502e-05
2.20661e-05
2.15658e-05
2.10501e-05
1.46176e-05
3.31186e-05
3.31145e-05
3.30996e-05
3.30668e-05
3.30506e-05
3.31841e-05
3.37029e-05
3.48185e-05
3.61141e-05
3.47916e-05
3.67021e-05
4.15457e-05
3.99594e-05
3.94565e-05
3.94639e-05
3.96934e-05
4.04841e-05
3.94404e-05
3.78187e-05
3.60976e-05
3.41235e-05
3.29232e-05
3.17629e-05
3.0756e-05
2.99483e-05
2.93339e-05
2.88773e-05
2.85295e-05
2.82451e-05
2.79917e-05
2.77492e-05
2.75064e-05
2.72567e-05
2.69958e-05
2.67205e-05
2.64291e-05
2.61204e-05
2.57938e-05
2.54492e-05
2.50865e-05
2.47057e-05
2.43069e-05
2.38901e-05
2.34557e-05
2.30039e-05
2.25351e-05
2.20497e-05
2.15482e-05
2.10315e-05
1.4591e-05
3.30909e-05
3.308e-05
3.30562e-05
3.30134e-05
3.29918e-05
3.31349e-05
3.36842e-05
3.48075e-05
3.62782e-05
3.59358e-05
3.75953e-05
4.17548e-05
4.01586e-05
3.9554e-05
3.94793e-05
3.97772e-05
4.00458e-05
3.84726e-05
3.71084e-05
3.54395e-05
3.35326e-05
3.23698e-05
3.12937e-05
3.04085e-05
2.97201e-05
2.92045e-05
2.8818e-05
2.85137e-05
2.82535e-05
2.80124e-05
2.77757e-05
2.75349e-05
2.72848e-05
2.70218e-05
2.67437e-05
2.64489e-05
2.61367e-05
2.58069e-05
2.54593e-05
2.50938e-05
2.47104e-05
2.43092e-05
2.38904e-05
2.3454e-05
2.30005e-05
2.253e-05
2.20432e-05
2.15405e-05
2.10227e-05
1.45776e-05
3.30618e-05
3.30436e-05
3.30103e-05
3.29569e-05
3.29296e-05
3.30821e-05
3.36611e-05
3.46509e-05
3.51484e-05
3.83777e-05
4.04704e-05
4.14328e-05
4.00117e-05
3.95486e-05
3.94876e-05
3.98674e-05
3.92291e-05
3.75867e-05
3.64718e-05
3.49197e-05
3.30429e-05
3.18943e-05
3.09312e-05
3.01651e-05
2.95816e-05
2.91452e-05
2.88103e-05
2.85353e-05
2.82899e-05
2.80553e-05
2.78205e-05
2.7579e-05
2.73266e-05
2.70602e-05
2.67782e-05
2.64795e-05
2.61637e-05
2.58304e-05
2.54796e-05
2.51113e-05
2.47253e-05
2.43217e-05
2.39007e-05
2.34624e-05
2.3007e-05
2.2535e-05
2.20468e-05
2.15429e-05
2.1024e-05
1.45777e-05
3.30318e-05
3.30059e-05
3.29628e-05
3.28986e-05
3.28652e-05
3.3026e-05
3.36311e-05
3.46673e-05
3.47185e-05
3.8398e-05
4.05258e-05
4.11481e-05
3.98898e-05
3.9568e-05
3.96058e-05
3.98233e-05
3.84673e-05
3.71617e-05
3.58524e-05
3.44424e-05
3.25897e-05
3.15226e-05
3.06746e-05
3.00163e-05
2.95195e-05
2.91428e-05
2.88435e-05
2.85868e-05
2.83493e-05
2.81169e-05
2.78812e-05
2.76369e-05
2.73806e-05
2.71099e-05
2.68234e-05
2.65205e-05
2.62008e-05
2.5864e-05
2.551e-05
2.51388e-05
2.47501e-05
2.43442e-05
2.3921e-05
2.34808e-05
2.30237e-05
2.255e-05
2.20604e-05
2.15552e-05
2.10352e-05
1.45911e-05
3.30015e-05
3.29679e-05
3.29148e-05
3.28398e-05
3.28e-05
3.29673e-05
3.35927e-05
3.46961e-05
3.4649e-05
3.75359e-05
4.01916e-05
4.08862e-05
3.98028e-05
3.96103e-05
3.98248e-05
3.93457e-05
3.78875e-05
3.67192e-05
3.52904e-05
3.39741e-05
3.22102e-05
3.1255e-05
3.0515e-05
2.99484e-05
2.9519e-05
2.9185e-05
2.89087e-05
2.86621e-05
2.84275e-05
2.81941e-05
2.79553e-05
2.77067e-05
2.74455e-05
2.71698e-05
2.68787e-05
2.65714e-05
2.62477e-05
2.59074e-05
2.55502e-05
2.51761e-05
2.47848e-05
2.43765e-05
2.39512e-05
2.3509e-05
2.30502e-05
2.2575e-05
2.20839e-05
2.15774e-05
2.10562e-05
1.46178e-05
3.29717e-05
3.29304e-05
3.28676e-05
3.27822e-05
3.27359e-05
3.29081e-05
3.3519e-05
3.34801e-05
3.45531e-05
3.62996e-05
3.8932e-05
4.06957e-05
3.96625e-05
3.9671e-05
4.00775e-05
3.9038e-05
3.75379e-05
3.61488e-05
3.48039e-05
3.35938e-05
3.19314e-05
3.10837e-05
3.04386e-05
2.99459e-05
2.95663e-05
2.92609e-05
2.8998e-05
2.87558e-05
2.85206e-05
2.8284e-05
2.80406e-05
2.77868e-05
2.75201e-05
2.72392e-05
2.69432e-05
2.66316e-05
2.6304e-05
2.59602e-05
2.55998e-05
2.52228e-05
2.4829e-05
2.44184e-05
2.3991e-05
2.35469e-05
2.30864e-05
2.26096e-05
2.21171e-05
2.16094e-05
2.10871e-05
1.46578e-05
3.2943e-05
3.28942e-05
3.28222e-05
3.27271e-05
3.26751e-05
3.28516e-05
3.34051e-05
3.30188e-05
3.44447e-05
3.61633e-05
3.92823e-05
4.04063e-05
3.92915e-05
3.97375e-05
3.98898e-05
3.84735e-05
3.702e-05
3.56489e-05
3.44017e-05
3.33036e-05
3.17463e-05
3.09958e-05
3.04296e-05
2.99937e-05
2.96491e-05
2.93616e-05
2.91055e-05
2.88637e-05
2.86255e-05
2.83843e-05
2.81353e-05
2.78756e-05
2.76033e-05
2.73172e-05
2.70164e-05
2.67005e-05
2.63691e-05
2.60218e-05
2.56584e-05
2.52786e-05
2.48824e-05
2.44695e-05
2.40401e-05
2.35942e-05
2.3132e-05
2.26537e-05
2.21599e-05
2.16509e-05
2.11274e-05
1.47108e-05
3.2916e-05
3.28602e-05
3.27797e-05
3.26759e-05
3.26188e-05
3.27967e-05
3.2976e-05
3.2963e-05
3.45638e-05
3.60158e-05
3.9266e-05
3.99114e-05
3.92854e-05
3.982e-05
3.93089e-05
3.78849e-05
3.65101e-05
3.52299e-05
3.40849e-05
3.30981e-05
3.1643e-05
3.09759e-05
3.04728e-05
3.00786e-05
2.97574e-05
2.94801e-05
2.92262e-05
2.89822e-05
2.87396e-05
2.84928e-05
2.82378e-05
2.79721e-05
2.76942e-05
2.74029e-05
2.70975e-05
2.67775e-05
2.64424e-05
2.60918e-05
2.57255e-05
2.53431e-05
2.49445e-05
2.45295e-05
2.40982e-05
2.36506e-05
2.31868e-05
2.27071e-05
2.22119e-05
2.17017e-05
2.1177e-05
1.47766e-05
3.28914e-05
3.2829e-05
3.2741e-05
3.26295e-05
3.25673e-05
3.27195e-05
3.26172e-05
3.35205e-05
3.50186e-05
3.63121e-05
3.90155e-05
3.98771e-05
3.95846e-05
3.98155e-05
3.87355e-05
3.73747e-05
3.60803e-05