/*--------------------------------*- C++ -*----------------------------------*\
  =========                 |
  \\      /  F ield         | OpenFOAM: The Open Source CFD Toolbox
   \\    /   O peration     | Website:  https://openfoam.org
    \\  /    A nd           | Version:  9
     \\/     M anipulation  |
\*---------------------------------------------------------------------------*/
FoamFile
{
    format      ascii;
    class       surfaceVectorField;
    location    "0.04";
    object      Uf;
}
// * * * * * * * * * * * * * * * * * * * * * * * * * * * * * * * * * * * * * //

dimensions      [0 1 -1 0 0 0 0];

internalField   nonuniform List<vector> 
9850
(
(-0.159966 0 -0.0625304)
(-0.152255 0 -0.063863)
(-0.169758 0 -0.052928)
(-0.16123 0 -0.0552408)
(-0.180071 0 -0.0408598)
(-0.17065 0 -0.0443742)
(-0.19069 0 -0.026013)
(-0.180377 0 -0.0309613)
(-0.201242 0 -0.00756654)
(-0.190012 0 -0.0147784)
(-0.211889 0 0.0184097)
(-0.199128 0 0.00573722)
(-0.224267 0 0.0601059)
(-0.208548 0 0.0374837)
(-0.237363 0 0.113293)
(-0.220177 0 0.0891899)
(-0.234286 0 0.121444)
(-0.227363 0 0.137124)
(-0.180526 0 -0.0337931)
(-0.204992 0 0.0812946)
(-0.0679893 0 -0.44836)
(-0.122588 0 -0.209394)
(0.0446406 0 -1.01428)
(0.0634021 0 -0.762993)
(0.0120341 0 -1.33104)
(0.0520518 0 -1.28042)
(-0.0173951 0 -1.3702)
(-0.00498902 0 -1.34996)
(-0.032528 0 -1.38404)
(-0.0335173 0 -1.37552)
(-0.0321643 0 -1.39161)
(-0.0367224 0 -1.38869)
(-0.0217756 0 -1.3962)
(-0.0280943 0 -1.39929)
(-0.00962763 0 -1.39567)
(-0.0149071 0 -1.40145)
(-0.00141807 0 -1.3928)
(-0.00397007 0 -1.39711)
(0.00235385 0 -1.39083)
(0.00144135 0 -1.39256)
(0.00363047 0 -1.39068)
(0.00304486 0 -1.39089)
(0.00431545 0 -1.39175)
(0.00373264 0 -1.39121)
(0.00470117 0 -1.39406)
(0.00433674 0 -1.39267)
(0.00494414 0 -1.39737)
(0.00445915 0 -1.3954)
(0.00572594 0 -1.39986)
(0.00375687 0 -1.399)
(0.00799608 0 -1.39831)
(0.00292528 0 -1.40101)
(0.0116387 0 -1.39033)
(0.00353723 0 -1.3974)
(0.0144373 0 -1.37554)
(0.00605577 0 -1.38554)
(0.0122537 0 -1.35282)
(0.00795219 0 -1.36409)
(0.000953469 0 -1.32152)
(0.00417471 0 -1.33123)
(-0.00102662 0 -1.28245)
(-0.00723036 0 -1.30087)
(0.0359994 0 -1.11438)
(0.00806211 0 -1.2832)
(0.109223 0 -0.814216)
(0.0546802 0 -1.02289)
(0.183015 0 -0.520699)
(0.122777 0 -0.714111)
(0.24778 0 -0.279471)
(0.191201 0 -0.436345)
(0.295501 0 -0.1092)
(0.247659 0 -0.218447)
(0.324942 0 -0.00790779)
(0.286764 0 -0.0717258)
(0.339255 0 0.0391066)
(0.30932 0 0.0106304)
(0.343293 0 0.0504814)
(0.319247 0 0.0450924)
(0.341557 0 0.0424631)
(0.321116 0 0.0496803)
(0.337253 0 0.0262307)
(0.31872 0 0.0388822)
(0.332235 0 0.0080494)
(0.314573 0 0.0220977)
(0.327364 0 -0.00929361)
(0.310046 0 0.0043211)
(0.322929 0 -0.0249636)
(0.305732 0 -0.0123642)
(0.318957 0 -0.0389889)
(0.301812 0 -0.0274175)
(0.315381 0 -0.0516559)
(0.29828 0 -0.0409409)
(0.312119 0 -0.0632266)
(0.295079 0 -0.0531985)
(0.309094 0 -0.0737605)
(0.292143 0 -0.064378)
(0.306223 0 -0.0827645)
(0.289298 0 -0.0743614)
(0.28565 0 -0.0822071)
(-0.153598 0 -0.0565634)
(-0.146346 0 -0.0583679)
(-0.162234 0 -0.0466716)
(-0.154303 0 -0.0494838)
(-0.171097 0 -0.0344481)
(-0.162484 0 -0.0384654)
(-0.179881 0 -0.0196763)
(-0.170675 0 -0.0251052)
(-0.188169 0 -0.00138241)
(-0.178399 0 -0.00925314)
(-0.196189 0 0.0249744)
(-0.185273 0 0.0110841)
(-0.205073 0 0.0668091)
(-0.192272 0 0.0434059)
(-0.211649 0 0.113429)
(-0.2005 0 0.0935742)
(-0.197823 0 0.0981647)
(-0.200201 0 0.127907)
(-0.133815 0 -0.0931585)
(-0.165397 0 0.0386229)
(-0.0093025 0 -0.519843)
(-0.0779917 0 -0.292402)
(0.0754379 0 -1.02169)
(0.0906048 0 -0.819487)
(0.0444556 0 -1.29105)
(0.117963 0 -1.25977)
(-0.0228114 0 -1.35099)
(-0.000717923 0 -1.30511)
(-0.0363966 0 -1.38068)
(-0.0309377 0 -1.36646)
(-0.033415 0 -1.39641)
(-0.0323061 0 -1.39068)
(-0.0217127 0 -1.40462)
(-0.0236014 0 -1.40709)
(-0.00907734 0 -1.40295)
(-0.0118821 0 -1.40987)
(-0.000969879 0 -1.39691)
(-0.00239764 0 -1.40251)
(0.00229657 0 -1.39247)
(0.00195905 0 -1.39474)
(0.00318868 0 -1.39143)
(0.00263797 0 -1.39162)
(0.0038041 0 -1.39216)
(0.00287718 0 -1.39173)
(0.00409484 0 -1.39408)
(0.00361291 0 -1.39293)
(0.00319586 0 -1.39715)
(0.00389803 0 -1.39456)
(0.000874303 0 -1.40026)
(0.00160162 0 -1.39671)
(-0.00141099 0 -1.4002)
(-0.00417628 0 -1.39864)
(-0.00179478 0 -1.39298)
(-0.0106472 0 -1.39699)
(-0.000342514 0 -1.37494)
(-0.0131191 0 -1.38719)
(9.65484e-06 0 -1.34312)
(-0.0100519 0 -1.36451)
(-0.00625029 0 -1.31199)
(-0.00441518 0 -1.32337)
(0.00529004 0 -1.29813)
(0.00399867 0 -1.31605)
(0.0250168 0 -1.17563)
(0.0346599 0 -1.31043)
(0.071916 0 -0.909297)
(0.0367437 0 -1.09079)
(0.133507 0 -0.621651)
(0.0863944 0 -0.807656)
(0.192167 0 -0.369053)
(0.144566 0 -0.529802)
(0.238921 0 -0.176745)
(0.195904 0 -0.296583)
(0.270794 0 -0.0507462)
(0.234315 0 -0.1276)
(0.288964 0 0.0177574)
(0.258914 0 -0.0227822)
(0.296806 0 0.0446251)
(0.271888 0 0.029966)
(0.298098 0 0.0460047)
(0.276667 0 0.0470665)
(0.295918 0 0.0344718)
(0.276551 0 0.04351)
(0.292295 0 0.0180397)
(0.27401 0 0.0301641)
(0.28834 0 0.000924926)
(0.270564 0 0.0135563)
(0.284548 0 -0.015122)
(0.266998 0 -0.00307347)
(0.281072 0 -0.0296512)
(0.263633 0 -0.0184858)
(0.277913 0 -0.042747)
(0.260556 0 -0.032428)
(0.275019 0 -0.0545971)
(0.257752 0 -0.0450145)
(0.272315 0 -0.0652036)
(0.25517 0 -0.0563599)
(0.269715 0 -0.0739788)
(0.25261 0 -0.06627)
(0.24931 0 -0.0737204)
(-0.14712 0 -0.0512857)
(-0.140338 0 -0.0534819)
(-0.154648 0 -0.0412605)
(-0.147321 0 -0.0444659)
(-0.162172 0 -0.0290863)
(-0.154356 0 -0.0334492)
(-0.169321 0 -0.0146217)
(-0.16116 0 -0.020339)
(-0.175708 0 0.00331226)
(-0.167251 0 -0.00499518)
(-0.181675 0 0.0296897)
(-0.172373 0 0.0150619)
(-0.187906 0 0.070465)
(-0.177645 0 0.0475602)
(-0.18957 0 0.108489)
(-0.183523 0 0.0946835)
(-0.168204 0 0.069289)
(-0.17862 0 0.113663)
(-0.0997115 0 -0.156115)
(-0.137976 0 -0.00703884)
(0.0134401 0 -0.5893)
(-0.0568449 0 -0.367837)
(0.103624 0 -1.05849)
(0.0873784 0 -0.879609)
(0.110253 0 -1.2728)
(0.172445 0 -1.26419)
(-0.00862261 0 -1.32167)
(0.0310235 0 -1.22586)
(-0.0260941 0 -1.37921)
(-0.00760253 0 -1.35481)
(-0.0236807 0 -1.40268)
(-0.010993 0 -1.39229)
(-0.0143278 0 -1.41307)
(-0.00678642 0 -1.41333)
(-0.00500152 0 -1.40971)
(-0.00244465 0 -1.41609)
(0.000678539 0 -1.40043)
(0.00162642 0 -1.4063)
(0.00237532 0 -1.39361)
(0.00323319 0 -1.39587)
(0.00236456 0 -1.39193)
(0.0021564 0 -1.39161)
(0.00275592 0 -1.39252)
(0.00128041 0 -1.39207)
(0.00343167 0 -1.39341)
(0.00202631 0 -1.39354)
(0.00218438 0 -1.39404)
(0.00385387 0 -1.39338)
(-0.00366994 0 -1.39465)
(0.0026898 0 -1.39093)
(-0.0132142 0 -1.39417)
(-0.00628472 0 -1.38875)
(-0.0215547 0 -1.38888)
(-0.0202661 0 -1.38792)
(-0.0228597 0 -1.37256)
(-0.0271812 0 -1.38571)
(-0.0156874 0 -1.34267)
(-0.0190328 0 -1.37309)
(0.00874543 0 -1.32508)
(0.00201856 0 -1.35402)
(0.0410714 0 -1.31504)
(0.0489582 0 -1.35859)
(0.0334186 0 -1.20687)
(0.0796291 0 -1.29987)
(0.0548135 0 -0.977398)
(0.0474276 0 -1.12177)
(0.101233 0 -0.707051)
(0.0728952 0 -0.878158)
(0.149819 0 -0.450234)
(0.114393 0 -0.60721)
(0.191488 0 -0.24244)
(0.155672 0 -0.36622)
(0.222132 0 -0.0965231)
(0.189316 0 -0.18132)
(0.24145 0 -0.00892413)
(0.21277 0 -0.0583059)
(0.251427 0 0.0330731)
(0.226608 0 0.0107226)
(0.254897 0 0.0446618)
(0.23302 0 0.0400442)
(0.2545 0 0.0390071)
(0.23456 0 0.0443529)
(0.252184 0 0.0253748)
(0.233379 0 0.0353215)
(0.24915 0 0.00922904)
(0.230954 0 0.0206417)
(0.246022 0 -0.00675203)
(0.22814 0 0.00458725)
(0.243062 0 -0.0215524)
(0.225355 0 -0.0108793)
(0.240337 0 -0.034961)
(0.222757 0 -0.0250829)
(0.237825 0 -0.0470201)
(0.220379 0 -0.0379112)
(0.235459 0 -0.0576419)
(0.218178 0 -0.049343)
(0.233144 0 -0.0661694)
(0.215914 0 -0.0590657)
(0.212925 0 -0.0659822)
(-0.140605 0 -0.0466496)
(-0.134291 0 -0.0491693)
(-0.147106 0 -0.036629)
(-0.140373 0 -0.0401318)
(-0.153423 0 -0.0246589)
(-0.146361 0 -0.0292377)
(-0.159164 0 -0.0106451)
(-0.151943 0 -0.0165115)
(-0.164043 0 0.00685975)
(-0.156687 0 -0.00174272)
(-0.168566 0 0.0331079)
(-0.160534 0 0.0180773)
(-0.173131 0 0.0721027)
(-0.164747 0 0.0506037)
(-0.172134 0 0.100493)
(-0.169337 0 0.0940181)
(-0.148434 0 0.0385306)
(-0.162543 0 0.0978629)
(-0.0848318 0 -0.214972)
(-0.12304 0 -0.0494401)
(0.0076025 0 -0.657204)
(-0.059708 0 -0.42946)
(0.123243 0 -1.0876)
(0.0635554 0 -0.956703)
(0.142271 0 -1.23028)
(0.109697 0 -1.27687)
(0.0383739 0 -1.27256)
(0.069463 0 -1.1566)
(0.00679603 0 -1.37049)
(0.0337097 0 -1.33376)
(0.0047101 0 -1.40531)
(0.029923 0 -1.3909)
(0.00457967 0 -1.41696)
(0.0231304 0 -1.41324)
(0.00442375 0 -1.41281)
(0.0131911 0 -1.41598)
(0.00443047 0 -1.40176)
(0.00818707 0 -1.4063)
(0.00292963 0 -1.39343)
(0.0057649 0 -1.39487)
(0.00109134 0 -1.39175)
(0.0020865 0 -1.39011)
(0.000634602 0 -1.3931)
(-0.00097541 0 -1.39168)
(0.00246249 0 -1.39345)
(-0.00108112 0 -1.39518)
(0.00421685 0 -1.39)
(0.00345441 0 -1.39503)
(-0.000188017 0 -1.38436)
(0.00838864 0 -1.38658)
(-0.0127076 0 -1.3814)
(0.00320967 0 -1.37578)
(-0.0248868 0 -1.38317)
(-0.0114904 0 -1.37468)
(-0.0252856 0 -1.38495)
(-0.0140168 0 -1.38525)
(-0.00271529 0 -1.38418)
(0.0020028 0 -1.40008)
(0.0645459 0 -1.38562)
(0.0301082 0 -1.4384)
(0.0811994 0 -1.34187)
(0.0713159 0 -1.3805)
(0.0719699 0 -1.21147)
(0.102573 0 -1.28713)
(0.0708553 0 -1.01265)
(0.0753832 0 -1.12016)
(0.0901239 0 -0.76752)
(0.0759342 0 -0.907424)
(0.121809 0 -0.515424)
(0.0963493 0 -0.65769)
(0.153755 0 -0.299624)
(0.124368 0 -0.419609)
(0.179647 0 -0.139577)
(0.150529 0 -0.226708)
(0.197479 0 -0.0366746)
(0.170502 0 -0.0910978)
(0.207814 0 0.0185934)
(0.18342 0 -0.00921151)
(0.212413 0 0.039962)
(0.190287 0 0.030739)
(0.21327 0 0.0405309)
(0.19282 0 0.042534)
(0.212044 0 0.0302908)
(0.192692 0 0.0380513)
(0.209872 0 0.015653)
(0.191182 0 0.0257137)
(0.207417 0 0.000115393)
(0.189113 0 0.0106011)
(0.205003 0 -0.0147335)
(0.186937 0 -0.00467744)
(0.20275 0 -0.0283321)
(0.184859 0 -0.0190096)
(0.200659 0 -0.0405076)
(0.182943 0 -0.0319994)
(0.198656 0 -0.0510083)
(0.181151 0 -0.0434015)
(0.196606 0 -0.0590758)
(0.179192 0 -0.0526877)
(0.176458 0 -0.0587577)
(-0.134117 0 -0.0426303)
(-0.128265 0 -0.0453981)
(-0.139685 0 -0.0327112)
(-0.133516 0 -0.0364199)
(-0.144935 0 -0.0210475)
(-0.138563 0 -0.0257378)
(-0.149498 0 -0.00754592)
(-0.143089 0 -0.013469)
(-0.153237 0 0.00957145)
(-0.146746 0 0.000749715)
(-0.156852 0 0.0357241)
(-0.149706 0 0.0204878)
(-0.160578 0 0.0727696)
(-0.153316 0 0.0530873)
(-0.158719 0 0.0918954)
(-0.157221 0 0.0927787)
(-0.13692 0 0.0108213)
(-0.149843 0 0.0833302)
(-0.0856026 0 -0.262904)
(-0.113425 0 -0.0836514)
(-0.0191372 0 -0.722739)
(-0.0657916 0 -0.47377)
(0.0655194 0 -1.13292)
(0.0308593 0 -1.01314)
(0.0401463 0 -1.21138)
(-0.0408237 0 -1.25996)
(0.074021 0 -1.23008)
(0.0539556 0 -1.17918)
(0.0591723 0 -1.34957)
(0.0620926 0 -1.32386)
(0.0460903 0 -1.39669)
(0.0668224 0 -1.38218)
(0.0308389 0 -1.41108)
(0.0516488 0 -1.40307)
(0.0172287 0 -1.40887)
(0.0277402 0 -1.40691)
(0.00991871 0 -1.39917)
(0.0149233 0 -1.40143)
(0.00456807 0 -1.39096)
(0.00975777 0 -1.3913)
(-2.75074e-05 0 -1.39003)
(0.00344623 0 -1.38636)
(-0.00258628 0 -1.39376)
(-0.00268863 0 -1.38949)
(-4.61335e-05 0 -1.39657)
(-0.00544599 0 -1.39746)
(0.00744808 0 -1.39133)
(0.000296468 0 -1.40209)
(0.0117261 0 -1.37806)
(0.0131115 0 -1.3908)
(0.00551122 0 -1.37063)
(0.0170799 0 -1.36934)
(-0.000213247 0 -1.38178)
(0.0100565 0 -1.36846)
(0.0126703 0 -1.40437)
(0.0150448 0 -1.39994)
(0.0363567 0 -1.43879)
(0.0329207 0 -1.42841)
(0.0523571 0 -1.4345)
(0.0644133 0 -1.45847)
(0.0857244 0 -1.35256)
(0.0258861 0 -1.42441)
(0.0930817 0 -1.20696)
(0.0585701 0 -1.29728)
(0.0839461 0 -1.01607)
(0.0792619 0 -1.10693)
(0.0848599 0 -0.79454)
(0.0725539 0 -0.908812)
(0.100315 0 -0.55745)
(0.0786544 0 -0.682312)
(0.121426 0 -0.342675)
(0.0954814 0 -0.45489)
(0.141062 0 -0.17529)
(0.114255 0 -0.261131)
(0.155948 0 -0.0618446)
(0.130088 0 -0.11847)
(0.16546 0 0.00378691)
(0.141268 0 -0.0275592)
(0.170391 0 0.0335243)
(0.147913 0 0.0207605)
(0.172054 0 0.0398995)
(0.150998 0 0.0390043)
(0.171719 0 0.0331457)
(0.151698 0 0.0387971)
(0.170355 0 0.0202771)
(0.151026 0 0.0288984)
(0.168588 0 0.00542677)
(0.149701 0 0.0149316)
(0.166759 0 -0.0093069)
(0.148156 0 2.19741e-05)
(0.165016 0 -0.0229934)
(0.146612 0 -0.0143126)
(0.163374 0 -0.0351664)
(0.145151 0 -0.0273552)
(0.161737 0 -0.0452973)
(0.143729 0 -0.0385474)
(0.159936 0 -0.052499)
(0.142036 0 -0.0470851)
(0.139567 0 -0.051985)
(-0.127711 0 -0.03917)
(-0.122303 0 -0.0421303)
(-0.132435 0 -0.0294221)
(-0.126794 0 -0.0332706)
(-0.13675 0 -0.0181243)
(-0.130999 0 -0.0228611)
(-0.140341 0 -0.00512668)
(-0.134616 0 -0.0110749)
(-0.143227 0 0.0117284)
(-0.137398 0 0.00267334)
(-0.146274 0 0.037928)
(-0.139732 0 0.0225192)
(-0.149527 0 0.0731387)
(-0.142927 0 0.0552562)
(-0.147158 0 0.084062)
(-0.146136 0 0.0911989)
(-0.126966 0 -0.0120803)
(-0.138177 0 0.0698692)
(-0.08259 0 -0.297798)
(-0.103125 0 -0.113235)
(-0.0330953 0 -0.761306)
(-0.0581567 0 -0.506767)
(-0.0335005 0 -1.14193)
(0.0158431 0 -1.01287)
(-0.0639088 0 -1.21953)
(-0.0967288 0 -1.23968)
(0.0394493 0 -1.25013)
(0.0243327 0 -1.24808)
(0.077878 0 -1.34571)
(0.0400545 0 -1.34948)
(0.0694994 0 -1.38405)
(0.0597046 0 -1.37659)
(0.046629 0 -1.39707)
(0.0531867 0 -1.38782)
(0.0254459 0 -1.39869)
(0.0298689 0 -1.39279)
(0.0152491 0 -1.39325)
(0.0181427 0 -1.39463)
(0.0079684 0 -1.38603)
(0.0147234 0 -1.38645)
(0.000672158 0 -1.38572)
(0.00727917 0 -1.38041)
(-0.00541499 0 -1.39307)
(-0.00138375 0 -1.38428)
(-0.0052561 0 -1.40314)
(-0.0080279 0 -1.3976)
(0.00568785 0 -1.40269)
(-0.00459153 0 -1.4124)
(0.0193926 0 -1.38343)
(0.0103839 0 -1.40434)
(0.0219582 0 -1.3689)
(0.0182044 0 -1.372)
(0.0261072 0 -1.38408)
(0.0170913 0 -1.37297)
(0.0367881 0 -1.4181)
(0.0272564 0 -1.41212)
(0.0794944 0 -1.43722)
(0.0419676 0 -1.47948)
(0.0257725 0 -1.42195)
(0.052029 0 -1.39108)
(-0.000581801 0 -1.36594)
(0.013078 0 -1.38973)
(0.0545792 0 -1.21698)
(0.011308 0 -1.37342)
(0.0654603 0 -1.00886)
(0.0409456 0 -1.12268)
(0.0672253 0 -0.798963)
(0.0516265 0 -0.911493)
(0.0751655 0 -0.578494)
(0.0545648 0 -0.694963)
(0.0886663 0 -0.370965)
(0.0647503 0 -0.477452)
(0.102986 0 -0.202153)
(0.0778252 0 -0.286234)
(0.114919 0 -0.0827334)
(0.0899504 0 -0.140412)
(0.123282 0 -0.00986578)
(0.0992869 0 -0.043691)
(0.12821 0 0.0264005)
(0.105447 0 0.0107893)
(0.130452 0 0.0377177)
(0.108854 0 0.034245)
(0.1309 0 0.0341976)
(0.110247 0 0.0378009)
(0.130315 0 0.0231475)
(0.110361 0 0.0302648)
(0.129237 0 0.00913214)
(0.109772 0 0.0175721)
(0.127991 0 -0.00533777)
(0.108863 0 0.00322404)
(0.12673 0 -0.0189738)
(0.107849 0 -0.0109128)
(0.125469 0 -0.0309648)
(0.106812 0 -0.0237913)
(0.124107 0 -0.0404628)
(0.105691 0 -0.0345082)
(0.122491 0 -0.0465732)
(0.104103 0 -0.0420571)
(0.101711 0 -0.0459507)
(-0.121422 0 -0.0362161)
(-0.116437 0 -0.0393256)
(-0.125385 0 -0.0266889)
(-0.120234 0 -0.0306284)
(-0.128882 0 -0.0157839)
(-0.123687 0 -0.0205298)
(-0.131664 0 -0.00324169)
(-0.126519 0 -0.00922053)
(-0.133892 0 0.0134956)
(-0.128584 0 0.00415902)
(-0.136498 0 0.039858)
(-0.13045 0 0.0242566)
(-0.139241 0 0.07324)
(-0.133261 0 0.0570848)
(-0.135974 0 0.0765798)
(-0.13549 0 0.0890208)
(-0.115474 0 -0.0324604)
(-0.126532 0 0.0562026)
(-0.0733288 0 -0.3267)
(-0.0915968 0 -0.141332)
(-0.0174031 0 -0.772001)
(-0.0392152 0 -0.544051)
(-0.0261602 0 -1.12824)
(0.0201797 0 -1.00703)
(-0.0459697 0 -1.26535)
(-0.0531821 0 -1.22648)
(0.0303543 0 -1.32934)
(0.00518126 0 -1.29897)
(0.0241091 0 -1.37409)
(0.0158278 0 -1.34532)
(0.0438356 0 -1.38267)
(0.016683 0 -1.38974)
(0.0345124 0 -1.38505)
(0.0267216 0 -1.38161)
(0.0219103 0 -1.38974)
(0.0188091 0 -1.38439)
(0.0182866 0 -1.38845)
(0.0166203 0 -1.39222)
(0.0131817 0 -1.38034)
(0.0187926 0 -1.38305)
(0.00502169 0 -1.37902)
(0.0132639 0 -1.37375)
(-0.00371248 0 -1.38938)
(0.00552793 0 -1.3768)
(-0.00790712 0 -1.40867)
(-0.00144869 0 -1.39384)
(-0.000100531 0 -1.41619)
(0.000392886 0 -1.41975)
(0.0121243 0 -1.39197)
(0.00405041 0 -1.41642)
(0.011098 0 -1.37253)
(0.00476458 0 -1.37093)
(0.0223296 0 -1.39473)
(0.00372833 0 -1.38518)
(0.0441844 0 -1.44349)
(-0.00459778 0 -1.43703)
(0.0200998 0 -1.42773)
(0.0124683 0 -1.45068)
(0.0307291 0 -1.38781)
(0.0198918 0 -1.40441)
(0.0295547 0 -1.37385)
(0.0347663 0 -1.38819)
(0.0050285 0 -1.24441)
(0.0113158 0 -1.33957)
(0.0293354 0 -1.02167)
(0.00816076 0 -1.15788)
(0.0385477 0 -0.804413)
(0.0271771 0 -0.925485)
(0.0451757 0 -0.590529)
(0.0288121 0 -0.705523)
(0.0542316 0 -0.389406)
(0.0339449 0 -0.492587)
(0.0645046 0 -0.221839)
(0.0420022 0 -0.304243)
(0.0738384 0 -0.0996095)
(0.0505382 0 -0.157576)
(0.0810158 0 -0.0221018)
(0.0578583 0 -0.0575355)
(0.0857823 0 0.0189439)
(0.0632669 0 0.0011449)
(0.0884644 0 0.0342396)
(0.0667538 0 0.0285523)
(0.0896118 0 0.0335678)
(0.068667 0 0.0352464)
(0.0897731 0 0.024301)
(0.0694673 0 0.0298881)
(0.0893795 0 0.011258)
(0.0695691 0 0.0185362)
(0.0887138 0 -0.00274096)
(0.0692781 0 0.00493474)
(0.0879193 0 -0.0160899)
(0.0687827 0 -0.00877116)
(0.0870137 0 -0.0276549)
(0.0681716 0 -0.0212308)
(0.0858978 0 -0.0363647)
(0.0673646 0 -0.0311985)
(0.0843547 0 -0.0415744)
(0.065739 0 -0.0372561)
(0.0627812 0 -0.0381744)
(-0.115276 0 -0.0337238)
(-0.11069 0 -0.0369457)
(-0.118553 0 -0.0244508)
(-0.113854 0 -0.0284435)
(-0.121331 0 -0.0139438)
(-0.116634 0 -0.0186779)
(-0.123428 0 -0.00179458)
(-0.118784 0 -0.00782182)
(-0.125126 0 0.0149389)
(-0.120254 0 0.00529103)
(-0.12732 0 0.0414755)
(-0.121747 0 0.0257187)
(-0.129396 0 0.0728151)
(-0.124188 0 0.0584689)
(-0.124929 0 0.0684603)
(-0.125302 0 0.0860427)
(-0.102932 0 -0.0532331)
(-0.115038 0 0.0415382)
(-0.0588994 0 -0.358841)
(-0.0800333 0 -0.170687)
(-0.00081986 0 -0.783042)
(-0.0216488 0 -0.58277)
(-0.00892535 0 -1.1145)
(0.0171518 0 -1.00163)
(-0.0105874 0 -1.26814)
(-0.0170506 0 -1.22537)
(-0.00896049 0 -1.33394)
(0.0335408 0 -1.30005)
(0.0149756 0 -1.37263)
(0.042458 0 -1.36128)
(0.00107493 0 -1.38371)
(-0.0387902 0 -1.38047)
(0.00939889 0 -1.38098)
(0.00756456 0 -1.38716)
(0.0124588 0 -1.3886)
(0.0130619 0 -1.38643)
(0.0182417 0 -1.38845)
(0.0125798 0 -1.39607)
(0.0181659 0 -1.3765)
(0.0172218 0 -1.383)
(0.013544 0 -1.3726)
(0.0188862 0 -1.36998)
(0.008846 0 -1.38315)
(0.0199926 0 -1.37278)
(0.00565253 0 -1.40572)
(0.0249551 0 -1.39097)
(0.00413846 0 -1.4158)
(0.0323086 0 -1.41832)
(-0.00102225 0 -1.39164)
(0.0124002 0 -1.41132)
(-0.00323258 0 -1.3788)
(-0.0255269 0 -1.36864)
(-0.0347561 0 -1.41526)
(-0.0358611 0 -1.35092)
(-0.0152808 0 -1.45855)
(-0.016698 0 -1.45924)
(0.00222049 0 -1.44299)
(-0.00398755 0 -1.47161)
(0.025466 0 -1.40012)
(0.0178281 0 -1.43358)
(0.027073 0 -1.35902)
(0.0306022 0 -1.3903)
(0.00820969 0 -1.24726)
(0.0202829 0 -1.31353)
(0.014123 0 -1.04442)
(0.00363978 0 -1.16644)
(0.0167424 0 -0.815316)
(0.00615538 0 -0.929463)
(0.0181941 0 -0.599556)
(0.00535943 0 -0.707835)
(0.0218675 0 -0.401602)
(0.00538585 0 -0.498726)
(0.0276928 0 -0.235898)
(0.00836473 0 -0.314455)
(0.03405 0 -0.112864)
(0.0130617 0 -0.169266)
(0.0396486 0 -0.0327983)
(0.0179778 0 -0.0683348)
(0.0439169 0 0.011423)
(0.0222482 0 -0.00749116)
(0.0467689 0 0.0297093)
(0.0254986 0 0.0224991)
(0.048429 0 0.031416)
(0.0276612 0 0.0315506)
(0.0492244 0 0.0238196)
(0.0289458 0 0.0280304)
(0.049457 0 0.0118437)
(0.0295953 0 0.0179662)
(0.0493471 0 -0.00148504)
(0.0298141 0 0.005217)
(0.0490146 0 -0.0143002)
(0.029737 0 -0.0078748)
(0.0484703 0 -0.0251536)
(0.0294375 0 -0.0196918)
(0.0475834 0 -0.0324749)
(0.0288472 0 -0.028568)
(0.0459015 0 -0.0342242)
(0.0272426 0 -0.0320237)
(0.0234755 0 -0.0255201)
(-0.109288 0 -0.0316527)
(-0.10508 0 -0.0349564)
(-0.111944 0 -0.0226548)
(-0.107663 0 -0.0266727)
(-0.114086 0 -0.0125374)
(-0.109838 0 -0.01725)
(-0.115601 0 -0.000715412)
(-0.111394 0 -0.00681177)
(-0.116864 0 0.0160913)
(-0.112372 0 0.00613315)
(-0.118683 0 0.042723)
(-0.113562 0 0.0269307)
(-0.120045 0 0.0717202)
(-0.115677 0 0.0593772)
(-0.114441 0 0.0592828)
(-0.115797 0 0.0823067)
(-0.0912861 0 -0.0754608)
(-0.104107 0 0.0261015)
(-0.046825 0 -0.391936)
(-0.0686174 0 -0.200328)
(-0.000600999 0 -0.797812)
(-0.0144015 0 -0.613586)
(0.000764171 0 -1.11312)
(-0.00302832 0 -1.00254)
(0.0374194 0 -1.26982)
(-0.00176894 0 -1.24981)
(0.0839565 0 -1.32475)
(0.0621793 0 -1.33108)
(0.013488 0 -1.35261)
(0.0477011 0 -1.3143)
(-0.0580577 0 -1.37832)
(-0.0128758 0 -1.33278)
(0.00959398 0 -1.38762)
(0.0538963 0 -1.43226)
(0.0120558 0 -1.38901)
(0.0247265 0 -1.38807)
(0.0128092 0 -1.38754)
(0.0065894 0 -1.39657)
(0.0183218 0 -1.37428)
(0.00562055 0 -1.38667)
(0.0256151 0 -1.36981)
(0.0229276 0 -1.37593)
(0.0375319 0 -1.3797)
(0.0455789 0 -1.38298)
(0.0503551 0 -1.39799)
(0.0728175 0 -1.40248)
(0.0401045 0 -1.40151)
(0.0887524 0 -1.40867)
(-0.0147405 0 -1.37637)
(0.0568825 0 -1.35714)
(-0.081823 0 -1.36899)
(0.000574185 0 -1.29913)
(-0.0157349 0 -1.43488)
(0.00664399 0 -1.42275)
(0.00254537 0 -1.48609)
(0.0340638 0 -1.48008)
(0.0129925 0 -1.46411)
(0.0226896 0 -1.4841)
(0.0244692 0 -1.41749)
(0.0251734 0 -1.44797)
(0.0243446 0 -1.34946)
(0.02959 0 -1.39014)
(0.0165157 0 -1.23183)
(0.0247585 0 -1.30272)
(-0.00285939 0 -1.04221)
(0.00386488 0 -1.13839)
(-0.00444401 0 -0.81732)
(-0.009811 0 -0.927056)
(-0.00697887 0 -0.601469)
(-0.0156909 0 -0.703797)
(-0.008093 0 -0.406467)
(-0.0209486 0 -0.496864)
(-0.00663774 0 -0.243783)
(-0.0229176 0 -0.317006)
(-0.00347153 0 -0.12193)
(-0.0221031 0 -0.175088)
(0.000225017 0 -0.0412892)
(-0.0197679 0 -0.075465)
(0.0035677 0 0.00451977)
(-0.0169285 0 -0.0142545)
(0.00621009 0 0.0247068)
(-0.0142482 0 0.0168909)
(0.00808388 0 0.0281853)
(-0.0121213 0 0.027379)
(0.00928088 0 0.0220199)
(-0.0105976 0 0.025235)
(0.00994968 0 0.011114)
(-0.00960653 0 0.016328)
(0.01022 0 -0.00139583)
(-0.00906197 0 0.00452247)
(0.0101571 0 -0.0134291)
(-0.00890926 0 -0.00770492)
(0.00972292 0 -0.0231373)
(-0.00913823 0 -0.0184642)
(0.00870976 0 -0.0279295)
(-0.00981949 0 -0.025563)
(0.00664296 0 -0.0229246)
(-0.0114584 0 -0.0255937)
(-0.0150772 0 -0.0136433)
(-0.10347 0 -0.0299658)
(-0.0996177 0 -0.0333272)
(-0.105562 0 -0.0212549)
(-0.101668 0 -0.025278)
(-0.107139 0 -0.0115093)
(-0.103294 0 -0.0161988)
(-0.108156 0 5.4046e-05)
(-0.104329 0 -0.00613386)
(-0.109067 0 0.0169947)
(-0.104901 0 0.00674062)
(-0.110582 0 0.0436138)
(-0.105856 0 0.027941)
(-0.111315 0 0.0700012)
(-0.107694 0 0.0598654)
(-0.104659 0 0.0492662)
(-0.107026 0 0.0778694)
(-0.080667 0 -0.0984864)
(-0.0940666 0 0.0101071)
(-0.0367944 0 -0.41996)
(-0.0580726 0 -0.229576)
(-0.0146483 0 -0.814383)
(-0.0139312 0 -0.62835)
(-0.0108705 0 -1.13373)
(-0.0110462 0 -1.00506)
(0.0318608 0 -1.29876)
(0.0137869 0 -1.27829)
(0.0275577 0 -1.32365)
(0.023151 0 -1.32821)
(0.0312854 0 -1.31588)
(0.0223927 0 -1.31678)
(0.058462 0 -1.3797)
(0.0406014 0 -1.3509)
(0.0901668 0 -1.41181)
(0.0481006 0 -1.4534)
(0.0210405 0 -1.38555)
(0.0166156 0 -1.34198)
(-0.000309293 0 -1.38498)
(0.00368392 0 -1.38234)
(0.0111495 0 -1.37816)
(0.000572998 0 -1.39431)
(0.0446636 0 -1.37965)
(0.0332714 0 -1.40327)
(0.085017 0 -1.394)
(0.069991 0 -1.41752)
(0.115333 0 -1.40586)
(0.0981507 0 -1.4297)
(0.107617 0 -1.37994)
(0.108979 0 -1.4014)
(0.0652725 0 -1.32193)
(0.100076 0 -1.31532)
(0.0654051 0 -1.35724)
(0.0799097 0 -1.29927)
(0.0756886 0 -1.44552)
(0.0884895 0 -1.43392)
(0.0485697 0 -1.47533)
(0.0652457 0 -1.44916)
(0.0342815 0 -1.46538)
(0.044953 0 -1.46701)
(0.0313611 0 -1.42124)
(0.0334921 0 -1.44431)
(0.0288613 0 -1.34299)
(0.0267192 0 -1.38685)
(0.0163057 0 -1.20952)
(0.0176618 0 -1.28539)
(-0.0046183 0 -1.021)
(-0.000960068 0 -1.10809)
(-0.0194416 0 -0.806647)
(-0.0214732 0 -0.904542)
(-0.0293818 0 -0.593859)
(-0.0354456 0 -0.68796)
(-0.035847 0 -0.40291)
(-0.0460233 0 -0.486059)
(-0.0387798 0 -0.244708)
(-0.0525318 0 -0.311865)
(-0.0388479 0 -0.126031)
(-0.055291 0 -0.174963)
(-0.0372473 0 -0.0468001)
(-0.0553992 0 -0.0785524)
(-0.0349841 0 -0.00102402)
(-0.0540442 0 -0.018834)
(-0.0327519 0 0.019921)
(-0.052124 0 0.0121531)
(-0.0308913 0 0.0244862)
(-0.0502313 0 0.0232366)
(-0.0295131 0 0.0194425)
(-0.0486566 0 0.0220163)
(-0.0286125 0 0.00957467)
(-0.0474954 0 0.0141216)
(-0.0281597 0 -0.00194293)
(-0.0467789 0 0.00335887)
(-0.0281663 0 -0.0128384)
(-0.0465439 0 -0.00768692)
(-0.0287355 0 -0.0208691)
(-0.0468729 0 -0.016855)
(-0.0300723 0 -0.0229741)
(-0.0478701 0 -0.0215983)
(-0.03225 0 -0.0157253)
(-0.0496943 0 -0.0188185)
(-0.0523961 0 -0.00729261)
(-0.097827 0 -0.028631)
(-0.094312 0 -0.0320316)
(-0.0994023 0 -0.0202118)
(-0.0958682 0 -0.0242278)
(-0.100473 0 -0.0108118)
(-0.0969926 0 -0.0154849)
(-0.101062 0 0.000565407)
(-0.0975642 0 -0.00574118)
(-0.101691 0 0.0177028)
(-0.0977977 0 0.00715949)
(-0.102973 0 0.0442174)
(-0.0985727 0 0.0287958)
(-0.103196 0 0.0677594)
(-0.100171 0 0.0600141)
(-0.0956575 0 0.0387324)
(-0.09887 0 0.072844)
(-0.0714115 0 -0.12066)
(-0.0850982 0 -0.00605692)
(-0.0329644 0 -0.440425)
(-0.0501223 0 -0.255208)
(-0.0111803 0 -0.824524)
(-0.0155389 0 -0.642873)
(0.0149782 0 -1.14641)
(0.00550735 0 -1.0225)
(0.0082696 0 -1.30824)
(0.0341688 0 -1.27382)
(0.0135905 0 -1.32596)
(0.00489228 0 -1.33176)
(0.0211 0 -1.33268)
(0.00773209 0 -1.32179)
(0.0237399 0 -1.41324)
(0.0231342 0 -1.35266)
(-0.00883799 0 -1.40919)
(-0.021582 0 -1.43168)
(0.00439798 0 -1.36198)
(-0.0200838 0 -1.35081)
(0.00493798 0 -1.39154)
(-0.000258712 0 -1.3827)
(0.0243475 0 -1.41065)
(0.0150454 0 -1.40725)
(0.0608515 0 -1.42303)
(0.0552805 0 -1.43305)
(0.0870741 0 -1.42833)
(0.0898191 0 -1.43996)
(0.0933837 0 -1.41561)
(0.109678 0 -1.43536)
(0.102607 0 -1.3432)
(0.116145 0 -1.41009)
(0.119509 0 -1.27647)
(0.129233 0 -1.33201)
(0.107515 0 -1.34118)
(0.144381 0 -1.28684)
(0.070175 0 -1.43129)
(0.139118 0 -1.39334)
(0.0619146 0 -1.45433)
(0.10034 0 -1.43974)
(0.0438929 0 -1.4491)
(0.0702689 0 -1.44546)
(0.0297642 0 -1.40937)
(0.0439052 0 -1.42658)
(0.0166249 0 -1.32758)
(0.0202588 0 -1.36956)
(0.00140963 0 -1.18359)
(0.000734296 0 -1.26439)
(-0.0175758 0 -0.991168)
(-0.0179736 0 -1.0806)
(-0.0368732 0 -0.782635)
(-0.038882 0 -0.875233)
(-0.05197 0 -0.57604)
(-0.0569108 0 -0.663908)
(-0.0629051 0 -0.391118)
(-0.0712606 0 -0.467784)
(-0.0694895 0 -0.23896)
(-0.0812984 0 -0.300322)
(-0.0723394 0 -0.1252)
(-0.08695 0 -0.169722)
(-0.0726111 0 -0.0491221)
(-0.089153 0 -0.0780284)
(-0.0714628 0 -0.00484601)
(-0.0891353 0 -0.0211574)
(-0.06977 0 0.0158082)
(-0.0879602 0 0.00856035)
(-0.0680746 0 0.020805)
(-0.0863892 0 0.0194621)
(-0.0666599 0 0.0165636)
(-0.0848794 0 0.0187125)
(-0.0656539 0 0.00769221)
(-0.0836693 0 0.011657)
(-0.0651317 0 -0.00262323)
(-0.0828996 0 0.00201708)
(-0.0651958 0 -0.0119229)
(-0.0827041 0 -0.00751405)
(-0.0660006 0 -0.0177388)
(-0.0832444 0 -0.0145797)
(-0.067626 0 -0.0174747)
(-0.0845971 0 -0.0167775)
(-0.0696606 0 -0.0102276)
(-0.0865499 0 -0.0124888)
(-0.0884948 0 -0.003604)
(-0.0923621 0 -0.0276219)
(-0.0891682 0 -0.031047)
(-0.0934594 0 -0.0194936)
(-0.0902619 0 -0.0234964)
(-0.0940705 0 -0.0104064)
(-0.0909203 0 -0.0150775)
(-0.094285 0 0.000860426)
(-0.0910707 0 -0.00559817)
(-0.0946795 0 0.0182595)
(-0.0910097 0 0.00742256)
(-0.0957719 0 0.0446031)
(-0.0916355 0 0.0295241)
(-0.095583 0 0.0651154)
(-0.0930057 0 0.0598883)
(-0.0874608 0 0.0280697)
(-0.0911342 0 0.0674291)
(-0.0640537 0 -0.140717)
(-0.0769592 0 -0.0216616)
(-0.0301722 0 -0.459045)
(-0.0436361 0 -0.277795)
(-0.00232962 0 -0.841164)
(-0.0140593 0 -0.661435)
(0.0354875 0 -1.15176)
(0.0261331 0 -1.04771)
(0.0200007 0 -1.30039)
(0.0480884 0 -1.2635)
(0.00667049 0 -1.32522)
(0.00903301 0 -1.32287)
(0.00251851 0 -1.33631)
(-0.0104703 0 -1.31902)
(-0.0097646 0 -1.3859)
(-0.00844105 0 -1.34447)
(-0.0453787 0 -1.38032)
(-0.0513333 0 -1.40793)
(-0.0188259 0 -1.35967)
(-0.0503464 0 -1.36851)
(0.00921565 0 -1.40023)
(-0.00724821 0 -1.4014)
(0.051363 0 -1.44053)
(0.0380393 0 -1.43535)
(0.0849928 0 -1.4644)
(0.0865615 0 -1.46049)
(0.111438 0 -1.46555)
(0.121855 0 -1.46259)
(0.129038 0 -1.43756)
(0.144586 0 -1.45116)
(0.139511 0 -1.37615)
(0.15357 0 -1.41995)
(0.161831 0 -1.31849)
(0.163728 0 -1.35406)
(0.189832 0 -1.33725)
(0.187535 0 -1.31586)
(0.153037 0 -1.39355)
(0.191034 0 -1.35335)
(0.108921 0 -1.41951)
(0.152602 0 -1.38945)
(0.0711654 0 -1.41576)
(0.105396 0 -1.40031)
(0.0356357 0 -1.37835)
(0.0646745 0 -1.38201)
(0.00442854 0 -1.29885)
(0.0285002 0 -1.32849)
(-0.0179912 0 -1.15436)
(-0.00277691 0 -1.23344)
(-0.0390281 0 -0.959659)
(-0.0301521 0 -1.05014)
(-0.0584212 0 -0.752756)
(-0.0555261 0 -0.845778)
(-0.0760851 0 -0.551502)
(-0.07771 0 -0.635766)
(-0.0899505 0 -0.373194)
(-0.0957591 0 -0.444612)
(-0.0992234 0 -0.228016)
(-0.108891 0 -0.284066)
(-0.104245 0 -0.120344)
(-0.116995 0 -0.160487)
(-0.106067 0 -0.048662)
(-0.120986 0 -0.0745148)
(-0.105894 0 -0.00699072)
(-0.12215 0 -0.0215076)
(-0.104729 0 0.0125209)
(-0.121679 0 0.00608772)
(-0.103261 0 0.0173873)
(-0.120476 0 0.0161946)
(-0.101906 0 0.0136583)
(-0.119127 0 0.0155481)
(-0.100908 0 0.00575556)
(-0.117993 0 0.00921104)
(-0.100446 0 -0.00311569)
(-0.11732 0 0.000830734)
(-0.100703 0 -0.0103716)
(-0.117325 0 -0.00682238)
(-0.101813 0 -0.0137182)
(-0.11818 0 -0.0114415)
(-0.103633 0 -0.0117494)
(-0.119813 0 -0.0113786)
(-0.105452 0 -0.00570789)
(-0.121706 0 -0.00683087)
(-0.123118 0 -0.00114843)
(-0.087076 0 -0.026917)
(-0.0841905 0 -0.0303555)
(-0.0877245 0 -0.0190758)
(-0.084846 0 -0.0230641)
(-0.0879084 0 -0.0102652)
(-0.0850637 0 -0.0149548)
(-0.0877821 0 0.000966315)
(-0.0848188 0 -0.0056824)
(-0.087964 0 0.0186862)
(-0.084481 0 0.00754389)
(-0.0888661 0 0.0448054)
(-0.08495 0 0.0301254)
(-0.0882903 0 0.062186)
(-0.0860575 0 0.0595044)
(-0.0796966 0 0.017616)
(-0.0835967 0 0.0617)
(-0.0571461 0 -0.159008)
(-0.0693826 0 -0.0366953)
(-0.0253635 0 -0.480066)
(-0.0381356 0 -0.298984)
(0.0109725 0 -0.866203)
(-0.00722154 0 -0.685659)
(0.0480341 0 -1.15953)
(0.0388028 0 -1.07242)
(0.0304085 0 -1.28495)
(0.0418538 0 -1.25175)
(-0.00574463 0 -1.31245)
(0.00375923 0 -1.29877)
(-0.0265951 0 -1.32687)
(-0.0301914 0 -1.30512)
(-0.0402352 0 -1.36777)
(-0.0401205 0 -1.33537)
(-0.0694897 0 -1.38566)
(-0.0714023 0 -1.38843)
(-0.034642 0 -1.39578)
(-0.0627026 0 -1.39174)
(0.0195244 0 -1.4345)
(-0.00808428 0 -1.43751)
(0.0811242 0 -1.46675)