/*--------------------------------*- C++ -*----------------------------------*\
  =========                 |
  \\      /  F ield         | OpenFOAM: The Open Source CFD Toolbox
   \\    /   O peration     | Website:  https://openfoam.org
    \\  /    A nd           | Version:  9
     \\/     M anipulation  |
\*---------------------------------------------------------------------------*/
FoamFile
{
    format      ascii;
    class       surfaceScalarField;
    location    "0.06";
    object      alphaPhi0.water;
}
// * * * * * * * * * * * * * * * * * * * * * * * * * * * * * * * * * * * * * //

dimensions      [0 3 -1 0 0 0 0];

internalField   nonuniform List<scalar> 
9850
(
4.16128e-268
8.52007e-267
5.45681e-266
2.17523e-265
4.95674e-266
7.40934e-265
1.07101e-267
4.82891e-266
5.97738e-266
2.0556e-264
5.79578e-264
1.66076e-262
8.61012e-262
1.68257e-260
1.87206e-259
4.81731e-259
1.61429e-260
2.91879e-259
1.13683e-262
5.67008e-261
1.02566e-264
3.79026e-263
1.0447e-266
3.31836e-265
1.17684e-268
3.36281e-267
2.12635e-270
5.39602e-269
8.43101e-269
1.57444e-267
1.41912e-266
4.59146e-266
7.07487e-268
1.91667e-266
5.0005e-270
2.42266e-268
4.82957e-272
1.60577e-270
6.15169e-274
1.48591e-272
1.73389e-275
1.74248e-274
3.82487e-276
1.24131e-276
-2.72625e-282
3.70941e-277
1.74157e-282
6.25816e-281
1.98029e-283
3.63142e-282
2.20054e-284
3.15283e-283
2.52073e-285
3.19134e-284
2.61396e-286
3.08143e-285
2.50033e-287
2.8048e-286
2.30693e-288
2.48288e-287
2.12841e-289
2.20368e-288
2.01003e-290
2.00303e-289
1.96886e-291
1.88786e-290
2.01344e-292
1.85661e-291
2.15544e-293
1.91016e-292
2.41712e-294
2.05737e-293
2.83869e-295
2.31926e-294
3.48918e-296
2.73486e-295
4.48541e-297
3.37109e-296
6.02612e-298
4.34068e-297
8.45531e-299
5.83463e-298
1.23822e-299
8.18227e-299
1.89142e-300
1.19644e-299
3.01201e-301
1.82322e-300
4.99794e-302
2.89403e-301
8.63768e-303
4.78297e-302
1.55421e-303
8.22727e-303
2.91046e-304
1.47234e-303
5.66282e-305
2.73653e-304
5.12198e-305
4.56845e-268
6.59308e-267
1.37091e-265
8.05619e-265
-9.58545e-268
2.68469e-264
1.24192e-267
8.65063e-266
9.70564e-266
3.27553e-264
7.89489e-264
1.78204e-262
8.92931e-262
1.24344e-260
4.63945e-259
1.41205e-258
-2.8796e-263
9.13673e-259
1.46646e-263
1.96225e-261
3.69257e-265
1.74092e-263
7.02618e-267
2.25504e-265
1.34433e-268
3.31922e-267
3.81148e-270
7.21732e-269
9.36137e-269
1.23614e-267
3.06045e-266
1.31642e-265
-1.43685e-270
5.35859e-266
6.38177e-271
8.14761e-269
1.89167e-272
7.1286e-271
4.96109e-274
1.02346e-272
2.33184e-275
1.83036e-274
6.58833e-276
2.28983e-275
-9.41365e-281
2.01566e-276
-2.7329e-283
1.06458e-279
1.35406e-282
3.86855e-281
2.1735e-283
3.65129e-282
2.74437e-284
3.73028e-283
3.25728e-285
3.98171e-284
3.63266e-286
4.16006e-285
3.86323e-287
4.21171e-286
4.02362e-288
4.20146e-287
4.19949e-289
4.20884e-288
4.46311e-290
4.2954e-289
4.87896e-291
4.50859e-290
5.51904e-292
4.89519e-291
6.48203e-293
5.51597e-292
7.91867e-294
6.46213e-293
1.0071e-294
7.87812e-294
1.33393e-295
9.99846e-295
1.84019e-296
1.32114e-295
2.64373e-297
1.81735e-296
3.95466e-298
2.60211e-297
6.15787e-299
3.87712e-298
9.97839e-300
6.01001e-299
1.6822e-300
9.68959e-300
2.94966e-301
1.62438e-300
5.37834e-302
2.8309e-301
1.01956e-302
5.12746e-302
2.00641e-303
9.63666e-303
1.82243e-303
3.58437e-268
4.51384e-267
2.53681e-265
1.94188e-264
-2.93469e-267
6.36945e-264
2.01864e-267
1.71703e-265
1.31541e-265
4.41014e-264
7.7738e-264
1.64399e-262
6.18742e-262
7.82455e-261
6.36804e-259
2.80569e-258
-1.64472e-263
1.81878e-258
2.32189e-265
6.67696e-262
9.63735e-266
5.79099e-264
3.14812e-267
1.02745e-265
9.05017e-269
2.05346e-267
3.54167e-270
6.04431e-269
6.89248e-269
8.14446e-268
4.33465e-266
2.55483e-265
-7.11739e-271
1.01142e-265
2.71695e-272
2.69051e-269
4.95716e-273
2.32686e-271
2.09806e-274
4.57204e-273
1.48446e-275
1.17941e-274
1.16546e-275
1.14279e-274
-1.10076e-279
8.39187e-276
-4.51407e-282
1.17236e-278
1.13552e-281
3.75796e-280
1.81002e-282
3.26129e-281
2.33429e-283
3.30233e-282
2.78791e-284
3.48276e-283
3.28814e-285
3.80574e-284
3.78834e-286
4.14689e-285
4.28065e-287
4.47058e-286
4.81062e-288
4.81059e-287
5.45177e-289
5.2271e-288
6.2967e-290
5.79046e-289
7.46611e-291
6.58467e-290
9.13169e-292
7.72172e-291
1.15557e-292
9.36564e-292
1.51582e-293
1.1771e-292
2.06348e-294
1.53476e-293
2.91703e-295
2.0774e-294
4.28381e-296
2.92021e-295
6.53638e-297
4.26388e-296
1.03629e-297
6.46717e-297
1.70701e-298
1.01889e-297
2.92127e-299
1.66726e-298
5.19326e-300
2.83337e-299
9.58976e-301
5.00013e-300
1.83924e-301
9.16171e-301
3.65872e-302
1.74038e-301
3.32451e-302
3.04334e-268
3.6633e-267
4.24316e-265
3.86505e-264
-6.00033e-267
1.26852e-263
3.92332e-267
3.49709e-265
2.01219e-265
6.75268e-264
9.00315e-264
1.89362e-262
4.89705e-262
6.23152e-261
6.96171e-259
4.76679e-258
-6.36349e-264
2.98506e-258
-7.00197e-267
2.23606e-262
2.65894e-266
1.88782e-264
1.23779e-267
4.13715e-266
4.82506e-269
1.06793e-267
2.63819e-270
4.39907e-269
4.71086e-269
5.48979e-268
5.66551e-266
4.28703e-265
-2.46399e-271
1.6252e-265
-2.28176e-274
8.77119e-270
1.20375e-273
7.39668e-272
7.91254e-275
1.87419e-273
1.5755e-275
1.36602e-274
2.65762e-275
4.23261e-274
-7.58595e-279
3.45464e-275
-1.27502e-281
1.00174e-277
1.09586e-280
3.03026e-279
1.50699e-281
2.55979e-280
1.81747e-282
2.50996e-281
2.09932e-283
2.58796e-282
2.4547e-284
2.81192e-283
2.90261e-285
3.1459e-284
3.42475e-286
3.54013e-285
4.03699e-287
3.99402e-286
4.79194e-288
4.54401e-287
5.7759e-289
5.25177e-288
7.11718e-290
6.20492e-289
9.00968e-291
7.5297e-290
1.17574e-291
9.41637e-291
1.58537e-292
1.21635e-291
2.21231e-293
1.6255e-292
3.19824e-294
2.24974e-293
4.79316e-295
3.22699e-294
7.45018e-296
4.7993e-295
1.20131e-296
7.40271e-296
2.00976e-297
1.1844e-296
3.48872e-298
1.96577e-297
6.28396e-299
3.38456e-298
1.17452e-299
6.04523e-299
2.27796e-300
1.12007e-299
4.57853e-301
2.14979e-300
4.14733e-301
2.96916e-268
3.59725e-267
6.56437e-265
6.83047e-264
-8.84195e-267
2.30904e-263
7.96565e-267
6.57458e-265
3.2502e-265
1.09609e-263
1.23037e-263
2.65684e-262
5.12431e-262
6.94256e-261
7.45855e-259
7.41087e-258
-2.06771e-264
4.44808e-258
-3.10742e-267
7.51096e-263
8.43919e-267
6.44952e-265
5.11121e-268
1.75365e-266
2.798e-269
6.26191e-268
2.46107e-270
4.19202e-269
3.27197e-269
3.96626e-268
7.24838e-266
6.7153e-265
-7.53815e-272
2.37977e-265
-1.363e-274
2.9664e-270
3.88312e-274
2.94632e-272
5.2227e-275
1.29431e-273
4.58429e-275
4.31581e-274
8.89627e-275
1.39118e-273
-3.05579e-278
1.37385e-274
6.88558e-279
6.83641e-277
9.89078e-280
2.18825e-278
1.13753e-280
1.76299e-279
1.25737e-281
1.65118e-280
1.40095e-282
1.67176e-281
1.60324e-283
1.79292e-282
1.89749e-284
2.01584e-283
2.28317e-285
2.31824e-284
2.77093e-286
2.69568e-285
3.3973e-287
3.16955e-286
4.2294e-288
3.78475e-287
5.3746e-289
4.61238e-288
7.00191e-290
5.76075e-289
9.38237e-291
7.39778e-290
1.29621e-291
9.79106e-291
1.84948e-292
1.33789e-291
2.7288e-293
1.8898e-292
4.16689e-294
2.76185e-293
6.5892e-295
4.17874e-294
1.07947e-295
6.54838e-295
1.83256e-296
1.06313e-295
3.22448e-297
1.7885e-296
5.88129e-298
3.1181e-297
1.11211e-298
5.63428e-298
2.18032e-299
1.05523e-298
4.42633e-300
2.04576e-299
3.98552e-300
3.04914e-268
3.79977e-267
9.83713e-265
1.12447e-263
-9.39731e-267
3.95007e-263
1.68718e-266
1.18285e-264
6.58169e-265
2.21733e-263
3.43737e-263
7.74773e-262
3.60777e-261
5.34153e-260
7.61136e-259
1.07944e-257
-7.08556e-265
6.27378e-258
-1.15731e-267
2.96273e-263
4.41257e-267
3.32981e-265
3.67017e-268
1.28978e-266
3.13716e-269
7.27827e-268
4.09226e-270
7.37435e-269
2.38452e-269
3.09546e-268
8.98876e-266
1.01367e-264
-3.13713e-272
3.30832e-265
-1.20684e-274
1.4885e-270
3.58012e-274
2.9909e-272
9.86308e-275
2.46964e-273
1.68029e-274
1.65477e-273
3.17289e-274
4.19063e-273
-4.61171e-278
5.12423e-274
1.05386e-277
4.00042e-276
8.20835e-279
1.52243e-277
7.62191e-280
1.09254e-278
7.62923e-281
9.5599e-280
8.19855e-282
9.46378e-281
9.22553e-283
1.00474e-281
1.0883e-283
1.13004e-282
1.32384e-284
1.31632e-283
1.63862e-285
1.5629e-284
2.05747e-286
1.88327e-285
2.62669e-287
2.30712e-286
3.42242e-288
2.88362e-287
4.56727e-289
3.68998e-288
6.26099e-290
4.84829e-289
8.83638e-291
6.55574e-290
1.28615e-291
9.13855e-291
1.93308e-292
1.31499e-291
3.00301e-293
1.95516e-292
4.82517e-294
3.00586e-293
8.02297e-295
4.78085e-294
1.38096e-295
7.86964e-295
2.46131e-296
1.34102e-295
4.54341e-297
2.36612e-296
8.68779e-298
4.32349e-297
1.7211e-298
8.18222e-298
3.52823e-299
1.60183e-298
3.15139e-299
3.1002e-268
3.98985e-267
1.44944e-264
1.76994e-263
-4.5754e-267
6.50235e-263
3.60187e-266
2.10373e-264
1.49634e-264
4.98176e-263
9.44286e-263
2.22084e-261
1.02237e-260
1.65529e-259
7.75192e-259
1.50796e-257
-4.8401e-265
8.54775e-258
-2.47806e-268
2.54715e-263
6.54969e-267
4.59071e-265
6.36624e-268
2.27773e-266
6.51991e-269
1.59396e-267
1.18142e-269
2.30469e-268
4.11278e-268
5.80999e-267
1.10184e-265
1.48977e-264
-3.46155e-272
4.49853e-265
-1.28758e-274
2.09186e-270
7.99679e-274
6.46759e-272
2.70523e-274
6.68618e-273
6.11441e-274
6.17161e-273
1.03825e-273
1.19914e-272
4.04434e-275
1.80972e-273
1.33626e-276
3.24945e-275
6.621e-278
1.08233e-276
4.70983e-279
6.36439e-278
4.18433e-280
5.05558e-279
4.28169e-281
4.8097e-280
4.7416e-282
5.04499e-281
5.58566e-283
5.67615e-282
6.85331e-284
6.67534e-283
8.61242e-285
8.05093e-284
1.10186e-285
9.88781e-285
1.43561e-286
1.23645e-285
1.90973e-287
1.578e-286
2.60118e-288
2.06112e-287
3.63688e-289
2.76224e-288
5.23041e-290
3.80615e-289
7.74983e-291
5.4012e-290
1.18452e-291
7.90377e-291
1.86939e-292
1.19385e-291
3.04849e-293
1.8628e-292
5.13969e-294
3.00424e-293
8.96265e-295
5.01001e-294
1.61706e-295
8.64215e-295
3.01938e-296
1.54241e-295
5.83601e-297
2.84883e-296
1.16787e-297
5.44614e-297
2.417e-298
1.0764e-297
2.13855e-298
3.07657e-268
4.08386e-267
2.10827e-264
2.70482e-263
8.03742e-265
1.04059e-262
8.00601e-266
3.95331e-264
3.24436e-264
1.05487e-262
2.0845e-262
5.05685e-261
1.97413e-260
3.44731e-259
8.58268e-259
2.04425e-257
-6.73375e-265
1.13977e-257
1.6223e-265
5.03891e-263
1.67882e-266
1.05856e-264
1.51049e-267
5.45382e-266
1.56074e-268
4.05759e-267
3.55493e-269
7.5857e-268
1.48084e-267
2.3094e-266
1.29161e-265
2.14917e-264
-5.8946e-272
6.11952e-265
5.37944e-273
4.82829e-270
2.18481e-273
1.52811e-271
7.85898e-274
1.8851e-272
2.13859e-273
2.20381e-272
3.12402e-273
3.32433e-272
2.82748e-274
5.89892e-273
1.02692e-275
1.93234e-274
4.44939e-277
6.65192e-276
2.64393e-278
3.4177e-277
2.10495e-279
2.47264e-278
2.04398e-280
2.24619e-279
2.22819e-281
2.32408e-280
2.62449e-282
2.61604e-281
3.24295e-283
3.09848e-282
4.12319e-284
3.78037e-283
5.35309e-285
4.71078e-284
7.08993e-286
5.98732e-285
9.59504e-287
7.77283e-286
1.32979e-287
1.03293e-286
1.89132e-288
1.40806e-287
2.76551e-289
1.97252e-288
4.16343e-290
2.84396e-289
6.46108e-291
4.22529e-290
1.03453e-291
6.47497e-291
1.71033e-292
1.02423e-291
2.92124e-293
1.67337e-292
5.157e-294
2.82501e-293
9.41295e-295
4.9299e-294
1.77698e-295
8.89562e-295
3.47046e-296
1.66015e-295
7.01333e-297
3.205e-296
1.46505e-297
6.39388e-297
1.28287e-297
3.07294e-267
4.19967e-266
3.03517e-264
4.04797e-263
2.91404e-264
1.62764e-262
1.77315e-265
7.57921e-264
6.45038e-264
2.0279e-262
3.94973e-262
9.72892e-261
3.22078e-260
5.94764e-259
1.04686e-258
2.70839e-257
-8.52917e-265
1.49737e-257
8.51121e-265
1.14534e-262
4.72672e-266
2.64985e-264
3.70874e-267
1.33531e-265
3.81201e-268
1.05944e-266
9.58415e-269
2.23002e-267
3.377e-267
5.86404e-266
1.44682e-265
3.07527e-264
-8.81407e-272
8.44977e-265
5.72716e-272
1.12198e-269
6.53326e-273
3.68399e-271
2.45056e-273
5.58855e-272
7.15271e-273
7.50931e-272
8.808e-273
9.03501e-272
1.15956e-273
1.8035e-272
5.14731e-275
8.2481e-274
2.31655e-276
3.24311e-275
1.30239e-277
1.62589e-276
9.74023e-279
1.11799e-277
9.10302e-280
9.81502e-279
9.81267e-281
1.00529e-279
1.15553e-281
1.13128e-280
1.43365e-282
1.34485e-281
1.83651e-283
1.65239e-282
2.40928e-284
2.07973e-283
3.23113e-285
2.67559e-284
4.43344e-286
3.52062e-285
6.23348e-287
4.74529e-286
8.99585e-288
6.56237e-287
1.33452e-288
9.32546e-288
2.03767e-289
1.3635e-288
3.20575e-290
2.05349e-289
5.20104e-291
3.18835e-290
8.708e-292
5.1073e-291
1.50542e-292
8.44536e-292
2.68847e-293
1.44227e-292
4.96157e-294
2.54473e-293
9.46544e-295
4.64018e-294
1.86721e-295
8.74679e-295
3.80952e-296
1.70478e-295
8.03099e-297
3.43225e-296
6.95483e-297
1.06347e-266
1.49372e-265
4.34876e-264
5.97245e-263
6.46666e-264
2.50226e-262
3.65036e-265
1.38152e-263
1.18982e-263
3.59903e-262
6.79814e-262
1.67687e-260
4.82946e-260
9.23569e-259
1.37578e-258
3.52329e-257
-3.78269e-265
1.94493e-257
2.84934e-264
2.41967e-262
1.28185e-265
6.37925e-264
9.20182e-267
3.24969e-265
9.90672e-268
2.86422e-266
2.42514e-268
6.04835e-267
6.24324e-267
1.20143e-265
1.6577e-265
4.39129e-264
-1.51385e-271
1.19509e-264
4.99335e-271
4.90764e-269
3.41313e-272
1.51397e-270
9.71772e-273
2.0596e-271
2.33239e-272
2.47321e-271
2.40734e-272
2.42855e-271
3.97343e-273
5.298e-272
2.11728e-274
3.03828e-273
1.03468e-275
1.37331e-274
5.88393e-277
7.12645e-276
4.28739e-278
4.81846e-277
3.91338e-279
4.14384e-278
4.16703e-280
4.19509e-279
4.87622e-281
4.69e-280
6.0362e-282
5.55973e-281
7.74694e-283
6.84005e-282
1.02201e-283
8.65281e-283
1.3822e-284
1.12208e-283
1.91614e-285
1.49119e-284
2.72511e-286
2.03241e-285
3.98046e-287
2.84409e-286
5.97812e-288
4.09087e-287
9.24113e-289
6.05461e-288
1.47165e-289
9.22895e-289
2.41622e-290
1.44995e-289
4.09255e-291
2.3495e-290
7.15491e-292
3.92868e-291
1.29168e-292
6.78203e-292
2.40882e-293
1.20913e-292
4.64184e-294
2.22699e-293
9.24565e-295
4.23859e-294
1.90389e-295
8.33811e-295
4.04988e-296
1.69387e-295
3.46646e-296
2.40515e-266
3.46259e-265
6.2458e-264
8.73318e-263
1.22111e-263
3.79296e-262
7.08565e-265
2.42277e-263
2.08254e-263
6.0552e-262
1.102e-261
2.6985e-260
6.91978e-260
1.34575e-258
1.87833e-258
4.51344e-257
1.75851e-259
2.49814e-257
1.08948e-261
6.79344e-260
9.08324e-264
4.02825e-262
1.11265e-265
3.80262e-264
3.75301e-267
1.10514e-265
6.26631e-268
1.63143e-266
1.03406e-266
2.16014e-265
2.05085e-265
6.27418e-264
6.46849e-267
1.73364e-264
3.93639e-269
2.40851e-267
6.54548e-271
2.30063e-269
6.47671e-272
1.2575e-270
7.74967e-272
8.18587e-271
6.57541e-272
6.51581e-271
1.256e-272
1.51755e-271
8.38294e-274
1.10427e-272
4.46376e-275
5.63971e-274
2.62696e-276
3.08684e-275
1.90399e-277
2.09332e-276
1.6941e-278
1.76001e-277
1.75675e-279
1.73645e-278
2.01432e-280
1.90191e-279
2.4621e-281
2.22521e-280
3.14225e-282
2.72095e-281
4.14525e-283
3.44025e-282
5.62836e-284
4.47697e-283
7.85459e-285
5.98717e-284
1.12651e-285
8.22668e-285
1.66118e-286
1.16193e-285
2.52037e-287
1.68804e-286
3.93722e-288
2.52434e-287
6.33713e-289
3.88846e-288
1.05157e-289
6.17374e-289
1.79995e-290
1.01088e-289
3.1795e-291
1.70776e-290
5.79829e-292
2.97789e-291
1.09203e-292
5.36152e-292
2.12465e-293
9.9699e-293
4.27151e-294
1.91529e-293
8.8759e-295
3.80192e-294
1.90482e-295
7.7922e-295
1.61059e-295
4.7179e-266
6.93888e-265
9.03239e-264
1.27104e-262
2.12298e-263
5.68322e-262
1.32284e-264
4.16668e-263
3.53283e-263
9.90345e-262
1.72285e-261
4.17595e-260
9.66315e-260
1.8873e-258
2.58135e-258
5.70266e-257
4.94775e-259
3.17854e-257
4.94701e-261
2.46626e-259
5.23756e-263
2.08603e-261
6.62277e-265
2.16714e-263
1.55695e-266
4.55873e-265
1.72234e-267
4.53458e-266
1.62421e-266
3.5574e-265
2.84076e-265
8.97468e-264
3.36529e-266
2.5643e-264
4.19379e-268
1.78813e-266
8.68166e-270
2.46426e-268
5.43273e-271
9.63566e-270
2.72828e-271
2.83378e-270
1.8148e-271
1.76013e-270
3.80669e-272
4.26984e-271
3.20615e-273
3.92234e-272
1.97522e-274
2.37442e-273
1.23726e-275
1.40641e-274
8.92564e-277
9.57065e-276
7.6157e-278
7.7429e-277
7.52485e-279
7.2879e-278
8.29828e-280
7.67906e-279
9.88167e-281
8.75149e-280
1.24241e-281
1.05389e-280
1.62794e-282
1.32306e-281
2.20795e-283
1.71931e-282
3.08958e-284
2.30481e-283
4.45425e-285
3.18268e-284
6.61371e-286
4.5253e-285
1.01148e-286
6.62578e-286
1.59385e-287
9.99321e-287
2.58883e-288
1.55323e-287
4.33617e-289
2.48899e-288
7.49265e-290
4.11381e-289
1.33614e-290
7.0156e-290
2.4598e-291
1.2349e-290
4.67649e-292
2.2443e-291
9.18431e-293
4.21255e-292
1.8639e-293
8.16886e-293
3.91013e-294
1.63707e-293
8.47534e-295
3.38882e-294
7.08794e-295
9.06317e-266
1.35883e-264
1.31567e-263
1.84818e-262
3.50213e-263
8.43486e-262
2.40359e-264
7.12014e-263
5.89844e-263
1.60442e-261
2.63826e-261
6.3419e-260
1.32944e-259
2.59063e-258
3.50288e-258
7.11781e-257
9.15542e-259
4.01128e-257
1.26875e-260
5.34861e-259
1.63213e-262
5.89804e-261
2.30816e-264
7.17495e-263
5.36831e-266
1.52998e-264
4.91902e-267
1.26907e-265
2.50705e-266
5.52717e-265
4.36771e-265
1.28395e-263
8.86419e-266
3.85429e-264
1.78855e-267
5.76309e-266
5.22141e-269
1.24625e-267
3.42075e-270
5.56967e-269
9.97367e-271
1.00922e-269
5.08358e-271
4.80048e-270
1.1268e-271
1.18665e-270
1.15288e-272
1.31773e-271
8.37625e-274
9.56399e-273
5.75177e-275
6.29932e-274
4.23255e-276
4.40842e-275
3.50224e-277
3.47265e-276
3.28636e-278
3.10989e-277
3.44805e-279
3.11996e-278
3.95328e-280
3.42425e-279
4.84816e-281
4.02215e-280
6.26161e-282
4.97655e-281
8.43409e-283
6.42148e-282
1.17811e-283
8.59175e-283
1.70143e-284
1.1883e-283
2.53669e-285
1.6963e-284
3.90188e-286
2.49768e-285
6.19106e-287
3.79278e-286
1.01343e-287
5.9405e-287
1.71187e-288
9.5996e-288
2.98522e-289
1.60112e-288
5.37693e-290
2.75782e-289
1.00109e-290
4.90911e-290
1.92874e-291
9.04109e-291
3.8522e-292
1.72577e-291
7.99832e-293
3.42377e-292
1.73403e-293
7.09079e-293
3.94693e-294
1.5414e-293
3.45226e-294
1.76439e-265
2.69901e-264
1.92398e-263
2.69335e-262
5.55455e-263
1.24174e-261
4.30461e-264
1.21758e-262
9.77438e-263
2.60289e-261
3.99266e-261
9.56824e-260
1.81282e-259
3.51905e-258
4.65143e-258
8.79117e-257
1.44188e-258
5.0174e-257
2.51657e-260
9.3385e-259
3.80096e-262
1.26098e-260
6.11012e-264
1.79508e-262
1.60362e-265
4.33348e-264
1.4138e-266
3.4859e-265
3.88807e-266
8.32442e-265
7.1728e-265
1.8334e-263
1.93732e-265
5.855e-264
5.69983e-267
1.45467e-265
2.29514e-268
4.71001e-267
1.67421e-269
2.51961e-268
3.59118e-270
3.51963e-269
1.43657e-270
1.31489e-269
3.27951e-271
3.25852e-270
3.90513e-272
4.18554e-271
3.30389e-273
3.57755e-272
2.51464e-274
2.64375e-273
1.93691e-275
1.95181e-274
1.59709e-276
1.53886e-275
1.44681e-277
1.33357e-276
1.44877e-278
1.27845e-277
1.59092e-279
1.34475e-278
1.88788e-280
1.52888e-279
2.38512e-281
1.85066e-280
3.17094e-282
2.35708e-281
4.40122e-283
3.13367e-282
6.34701e-284
4.32763e-283
9.48452e-285
6.19155e-284
1.46689e-285
9.16614e-285
2.34792e-286
1.40405e-285
3.8931e-287
2.22748e-286
6.70204e-288
3.66824e-287
1.20277e-288
6.29629e-288
2.26553e-289
1.13407e-288
4.52611e-290
2.16613e-289
9.7316e-291
4.45193e-290
2.29055e-291
1.00143e-290
5.98804e-292
2.50146e-291
1.74749e-292
6.9735e-292
5.62933e-293
2.14542e-292
6.79819e-293
3.45172e-265
5.41219e-264
2.81303e-263
3.9407e-262
8.51307e-263
1.81417e-261
7.6643e-264
2.09566e-262
1.60906e-262
4.24289e-261
5.98982e-261
1.44159e-259
2.45494e-259
4.76001e-258
5.9729e-258
1.07611e-256
2.06743e-258
6.21591e-257
4.29442e-260
1.44695e-258
7.48216e-262
2.30858e-260
1.38343e-263
3.84632e-262
4.31449e-265
1.10372e-263
3.96365e-266
9.23379e-265
6.16125e-266
1.25187e-264
1.20883e-264
2.61058e-263
3.80291e-265
8.87964e-264
1.63224e-266
3.45715e-265
8.59097e-268
1.55416e-266
6.75817e-269
9.47948e-268
1.21679e-269
1.152e-268
4.04109e-270
3.57688e-269
9.37158e-271
8.82647e-270
1.2574e-271
1.26828e-270
1.21476e-272
1.24703e-271
1.02508e-273
1.03182e-272
8.40758e-275
8.16961e-274
7.09429e-276
6.62078e-275
6.36434e-277
5.697e-276
6.18213e-278
5.30638e-277
6.54062e-279
5.3827e-278
7.50646e-280
5.92209e-279
9.25782e-281
7.00036e-280
1.21482e-281
8.80219e-281
1.68337e-282
1.16846e-281
2.45393e-283
1.63129e-282
3.76467e-284
2.3962e-283
6.1087e-285
3.72188e-284
1.05904e-285
6.1751e-285
1.99107e-286
1.1108e-285
4.12898e-287
2.20356e-286
9.56924e-288
4.88435e-287
2.48501e-288
1.21289e-287
7.16103e-289
3.34158e-288
2.25061e-289
1.00387e-288
7.57587e-290
3.22939e-289
2.69121e-290
1.09612e-289
9.97989e-291
3.88295e-290
3.81936e-291
1.41922e-290
5.04663e-291
6.65306e-265
1.07783e-263
4.09107e-263
5.79015e-262
1.26397e-262
2.63444e-261
1.33648e-263
3.61389e-262
2.61979e-262
6.9331e-261
8.89368e-261
2.16782e-259
3.29904e-259
6.42259e-258
7.45063e-258
1.30649e-256
2.78696e-258
7.63392e-257
6.64258e-260
2.08385e-258
1.32432e-261
3.84722e-260
2.85615e-263
7.55426e-262
1.08638e-264
2.63539e-263
1.06328e-265
2.34165e-264
1.01378e-265
1.93973e-264
1.98465e-264
3.71375e-263
6.89109e-265
1.32912e-263
4.13473e-266
7.60119e-265
2.6779e-267
4.37364e-266
2.2526e-268
2.97321e-267
3.77931e-269
3.45786e-268
1.13291e-269
9.69671e-269
2.69489e-270
2.4161e-269
4.02466e-271
3.83558e-270
4.41475e-272
4.30025e-271
4.17515e-273
4.01789e-272
3.74962e-274
3.50493e-273
3.37851e-275
3.04592e-274
3.16133e-276
2.74122e-275
3.14552e-277
2.62002e-276
3.38035e-278
2.70272e-277
3.95728e-279
3.03555e-278
5.06617e-280
3.72671e-279
7.11207e-281
5.01504e-280
1.09978e-281
7.43116e-281
1.88593e-282
1.22067e-281
3.60868e-283
2.23669e-282
7.71612e-284
4.57845e-283
1.83269e-284
1.04077e-283
4.77639e-285
2.59544e-284
1.34592e-285
6.99644e-285
4.04443e-286
2.01082e-285
1.28178e-286
6.09396e-286
4.2497e-287
1.93165e-286
1.46556e-287
6.36753e-287
5.23634e-288
2.17422e-287
1.9329e-288
7.66842e-288
7.3541e-289
2.7871e-288
2.86828e-289
1.03817e-288
3.7631e-289
1.24279e-264
2.10141e-263
5.89124e-263
8.53425e-262
1.82438e-262
3.80673e-261
2.28126e-263
6.21179e-262
4.19736e-262
1.12874e-260
1.30213e-260
3.24018e-259
4.38706e-259
8.63139e-258
9.06116e-258
1.57375e-256
3.5978e-258
9.30716e-257
9.61007e-260
2.86287e-258
2.1831e-261
6.05691e-260
5.58903e-263
1.41615e-261
2.60341e-264
6.03234e-263
2.69785e-265
5.66681e-264
1.75458e-265
3.16994e-264
3.1985e-264
5.28742e-263
1.17526e-264
1.96672e-263
9.18778e-266
1.51832e-264
7.00059e-267
1.05391e-265
6.39687e-268
8.02147e-267
1.164e-268
1.03175e-267
3.93317e-269
3.26101e-268
1.09306e-269
9.37104e-269
1.98001e-270
1.79064e-269
2.68342e-271
2.48476e-270
3.13809e-272
2.8864e-271
3.4576e-273
3.10475e-272
3.77352e-274
3.28045e-273
4.20837e-275
3.52793e-274
4.90599e-276
3.95783e-275
6.09002e-277
4.72204e-276
8.17646e-278
6.08795e-277
1.20247e-278
8.5916e-278
1.95477e-279
1.3395e-278
3.52836e-280
2.31765e-279
7.0645e-281
4.44633e-280
1.55938e-281
9.40049e-281
3.75792e-282
2.16911e-281
9.77784e-283
5.40229e-282
2.7178e-283
1.43694e-282
7.99684e-284
4.04497e-283
2.47269e-284
1.19631e-283
7.98941e-285
3.69635e-284
2.68581e-285
1.18803e-284
9.36319e-286
3.95892e-285
3.37647e-286
1.36435e-285
1.25698e-286
4.85306e-286
4.82204e-287
1.77846e-286
1.89743e-287
6.68362e-287
2.45549e-287
2.23455e-264
3.98536e-263
8.3954e-263
1.26281e-261
2.56929e-262
5.47998e-261
3.82326e-263
1.06077e-261
6.58972e-262
1.81801e-260
1.87381e-260
4.78786e-259
5.75526e-259
1.15174e-257
1.0752e-257
1.88135e-256
4.5042e-258
1.12811e-256
1.331e-259
3.81788e-258
3.45652e-261
9.26139e-260
1.06605e-262
2.60981e-261
5.98289e-264
1.33815e-262
6.44514e-265
1.30809e-263
3.20878e-265
5.52341e-264
5.13972e-264
7.65324e-263
2.00987e-264
3.01478e-263
1.90643e-265
2.90924e-264
1.67561e-266
2.36581e-265
1.92085e-267
2.30819e-266
7.04446e-268
6.06977e-267
4.28283e-268
3.44906e-267
1.61514e-268
1.33009e-267
3.70109e-269
3.19018e-268
6.18739e-270
5.45993e-269
8.70801e-271
7.66028e-270
1.12394e-271
9.69019e-271
1.39844e-272
1.17099e-271
1.73292e-273
1.40261e-272
2.1931e-274
1.71118e-273
2.89686e-275
2.17521e-274
4.07192e-276
2.93889e-275
6.19197e-277
4.29164e-276
1.03128e-277
6.85897e-277
1.89417e-278
1.20815e-277
3.83938e-279
2.34723e-278
8.54718e-280
5.00626e-279
2.07208e-280
1.16231e-279
5.41578e-281
2.90837e-280
1.5113e-281
7.76744e-281
4.46453e-282
2.19544e-281
1.38647e-282
6.52177e-282
4.50158e-283
2.025e-282
1.52153e-283
6.5441e-283
5.33606e-284
2.19382e-283
1.93669e-284
7.60955e-284
7.25961e-285
2.72544e-284
2.80528e-285
1.00608e-284
1.11291e-285
3.81207e-285
1.41864e-285
4.00778e-264
7.61085e-263
1.23438e-262
1.95545e-261
3.57069e-262
7.92383e-261
6.31513e-263
1.80184e-261
1.012e-261
2.88168e-260
2.64682e-260
6.96269e-259
7.43733e-259
1.52098e-257
1.25096e-257
2.23334e-256
5.5313e-258
1.36191e-256
1.79819e-259
5.01228e-258
5.39391e-261
1.40579e-259
2.01925e-262
4.81605e-261
1.3219e-263
2.88824e-262
1.45074e-264
2.88608e-263
6.49879e-265
1.07899e-263
1.0117e-263
1.39052e-262
5.86343e-264
8.10646e-263
6.27565e-265
9.02222e-264
6.92243e-266
9.29023e-265
1.75496e-266
2.03525e-265
1.51838e-266
1.27621e-265
1.13466e-266
8.90176e-266
4.6751e-267
3.71342e-266
1.17531e-267
9.69486e-267
2.15909e-268
1.82045e-267
3.31212e-269
2.78972e-268
4.60315e-270
3.81095e-269
6.08833e-271
4.90822e-270
7.9216e-272
6.18567e-271
1.04057e-272
7.84537e-272
1.41174e-273
1.02557e-272
2.01964e-274
1.41159e-273
3.10263e-275
2.08402e-274
5.1918e-276
3.34837e-275
9.54625e-277
5.90709e-276
1.93335e-277
1.14712e-276
4.29784e-278
2.44384e-277
1.04079e-278
5.66913e-278
2.71988e-279
1.41859e-278
7.5976e-280
3.79305e-279
2.24937e-280
1.07459e-279
7.00879e-281
3.20311e-280
2.28546e-281
9.98933e-281
7.76485e-282
3.24506e-281
2.73918e-282
1.0943e-281
1.0006e-282
3.82036e-282
3.77671e-283
1.37782e-282
1.47015e-283
5.12372e-283
5.88013e-284
1.95733e-283
7.37677e-284
1.05532e-263
2.14899e-262
2.8759e-262
4.85888e-261
5.3845e-262
1.25972e-260
1.04169e-262
3.07464e-261
1.52305e-261
4.4839e-260
3.67559e-260
9.9455e-259
9.48065e-259
1.98527e-257
1.43899e-257
2.63976e-256
6.74604e-258
1.64359e-256
2.431e-259
6.60547e-258
8.50502e-261
2.16627e-259
3.83634e-262
8.98288e-261
2.81168e-263
6.07352e-262
3.11298e-264
6.15495e-263
2.31479e-264
3.75491e-263
6.42812e-263
8.35209e-262
7.61748e-263
9.93334e-262
8.9048e-264
1.22333e-262
1.24921e-264
1.60847e-263
4.76462e-265
5.36002e-264
4.37251e-265
3.59523e-264
3.17631e-265
2.43369e-264
1.33847e-265
1.02887e-264
3.56496e-266
2.8238e-265
7.01751e-267
5.66743e-266
1.15236e-267
9.30554e-267
1.704e-268
1.35532e-267
2.379e-269
1.84637e-268
3.23932e-270
2.43947e-269
4.41395e-271
3.21409e-270
6.15807e-272
4.32554e-271
8.98567e-273
6.0781e-272
1.39808e-273
9.09504e-273
2.35649e-274
1.47279e-273
4.34811e-275
2.60862e-274
8.81799e-276
5.07464e-275
1.96119e-276
1.08198e-275
4.75174e-277
2.51185e-276
1.24311e-277
6.29355e-277
3.47924e-278
1.68635e-277
1.0331e-278
4.79216e-278
3.23156e-279
1.43414e-278
1.05878e-279
4.49421e-279
3.6171e-280
1.46811e-279
1.28387e-280
4.98155e-280
4.72133e-281
1.75086e-280
1.79479e-281
6.35984e-281
7.03914e-282
2.38291e-281
2.83865e-282
9.17846e-282
3.50261e-282
9.93024e-263
2.17666e-261
2.51092e-261
4.56819e-260
1.58671e-261
3.93985e-260
1.88471e-262
5.74955e-261
2.26333e-261
6.86934e-260
5.05611e-260
1.40134e-258
1.20396e-258
2.57862e-257
1.67374e-257
3.15789e-256
8.39074e-258
2.02208e-256
3.40362e-259
8.97587e-258
1.3954e-260
3.48058e-259
7.39719e-262
1.71138e-260
5.80834e-263
1.25394e-261
6.98069e-264
1.38835e-262
2.79114e-263
4.47829e-262
1.10097e-261
1.383e-260
1.6434e-261
2.06057e-260
2.13909e-262
2.834e-261
3.47545e-263
4.31608e-262
1.41473e-263
1.54808e-262
1.19285e-263
9.61008e-263
8.22585e-264
6.16508e-263
3.50547e-264
2.61384e-263
9.78835e-265
7.46443e-264
2.0477e-265
1.58723e-264
3.57747e-266
2.77313e-265
5.60545e-267
4.28598e-266
8.24814e-268
6.16414e-267
1.17681e-268
8.54665e-268
1.66949e-269
1.17387e-268
2.40779e-270
1.63485e-269
3.60456e-271
2.3589e-270
5.71124e-272
3.59709e-271
9.73943e-273
5.89674e-272
1.80932e-273
1.05205e-272
3.68316e-274
2.05513e-273
8.21117e-275
4.3937e-274
1.99372e-275
1.02245e-274
5.22886e-276
2.56878e-275
1.46811e-276
6.90605e-276
4.37642e-277
1.9705e-276
1.37537e-277
5.92532e-277
4.53051e-278
1.867e-277
1.55705e-278
6.13595e-278
5.56289e-279
2.09578e-278
2.06005e-279
7.41793e-279
7.88898e-280
2.71448e-279
3.11791e-280
1.02494e-279
1.26782e-280
3.98088e-280
1.538e-280
1.77435e-261
4.18794e-260
3.94355e-260
7.77741e-259
1.50937e-260
3.97541e-259
6.0024e-262
1.88234e-260
3.40636e-261
1.05923e-259
7.11731e-260
2.00785e-258
1.60457e-258
3.50096e-257
2.18211e-257
4.21493e-256
1.20409e-257
2.85992e-256
5.47424e-259
1.40026e-257
2.59928e-260
6.35422e-259
1.54373e-261
3.54537e-260
1.22973e-262
2.67656e-261
2.77126e-263
5.59579e-262
5.33265e-262
8.5576e-261
2.07307e-260
2.56998e-259
3.47509e-260
4.25727e-259
5.09268e-261
6.53913e-260
9.43699e-262
1.13211e-260
3.91693e-262
4.16997e-261
3.01578e-262
2.38035e-261
1.97398e-262
1.44756e-261
8.45847e-263
6.12523e-262
2.45713e-263
1.80698e-262
5.42207e-264
4.03977e-263
1.00213e-264
7.46459e-264
1.65831e-265
1.21968e-264
2.5679e-266
1.84855e-265
3.8391e-267
2.68927e-266
5.68026e-268
3.85677e-267
8.50043e-269
5.57887e-268
1.31289e-269
8.31169e-269
2.13267e-270
1.30031e-269
3.70463e-271
2.17256e-270
6.96975e-272
3.92729e-271
1.43042e-272
7.73761e-272
3.20596e-273
1.66359e-272
7.81513e-274
3.88773e-273
2.05715e-274
9.80525e-274
5.79865e-275
2.64696e-274
1.73636e-275
7.58764e-275
5.48489e-276
2.29362e-275
1.81717e-276
7.26925e-276
6.28484e-277
2.40436e-276
2.26071e-277
8.26876e-277
8.43246e-278
2.948e-277
3.25366e-278
1.08698e-277
1.29602e-278
4.13662e-278
5.31403e-279
1.62018e-278
6.33596e-279
3.32223e-260
8.40298e-259
6.45451e-259
1.36907e-257
2.0877e-259
5.78566e-258
5.34182e-261
1.70717e-259
5.84771e-261
1.84847e-259
1.20235e-259
3.42899e-258
2.87748e-258
6.35771e-257
4.71933e-257
9.25142e-256
3.1386e-257
7.30286e-256
1.53084e-258
3.78609e-257
7.83567e-260
1.87657e-258
4.67163e-261
1.06815e-259
3.43409e-262
7.57941e-261
3.23432e-262
6.66892e-261
1.02194e-260
1.65589e-259
3.7028e-259
4.61404e-258
6.92514e-259
8.39698e-258
1.15976e-259
1.44549e-258
2.43355e-260
2.81605e-259
1.01401e-260
1.04801e-259
7.1509e-261
5.51921e-260
4.44619e-261
3.18672e-260
1.90599e-261
1.34054e-260
5.71989e-262
4.05993e-261
1.32221e-262
9.47849e-262
2.57026e-263
1.84121e-262
4.47242e-264
3.16603e-263
7.26932e-265
5.04271e-264
1.13802e-265
7.69124e-265
1.75824e-266
1.15304e-265
2.73811e-267
1.73728e-266
4.38228e-268
2.68421e-267
7.33937e-269
4.33234e-268
1.30699e-269
7.42472e-269
2.50617e-270
1.36857e-269
5.21493e-271
2.73488e-270
1.18025e-271
5.93948e-271
2.8977e-272
1.39833e-271
7.67198e-273
3.54806e-272
2.17431e-273
9.6318e-273
6.54707e-274
2.77676e-273
2.08041e-274
8.44455e-274
6.93662e-275
2.69373e-274
2.4155e-275
8.97127e-275
8.75153e-276
3.10773e-275
3.28895e-276
1.11638e-275