/*--------------------------------*- C++ -*----------------------------------*\
  =========                 |
  \\      /  F ield         | OpenFOAM: The Open Source CFD Toolbox
   \\    /   O peration     | Website:  https://openfoam.org
    \\  /    A nd           | Version:  9
     \\/     M anipulation  |
\*---------------------------------------------------------------------------*/
FoamFile
{
    format      ascii;
    class       volScalarField;
    location    "0.06";
    object      rAU;
}
// * * * * * * * * * * * * * * * * * * * * * * * * * * * * * * * * * * * * * //

dimensions      [-1 3 1 0 0 0 0];

internalField   nonuniform List<scalar> 
5000
(
1.68118e-05
3.58919e-05
3.61042e-05
1.67199e-05
1.71364e-05
1.70836e-05
1.66329e-05
3.61762e-05
3.62464e-05
1.68804e-05
1.76699e-05
1.81004e-05
1.81477e-05
1.77701e-05
1.70007e-05
3.61383e-05
3.59553e-05
1.72517e-05
1.81991e-05
1.87258e-05
1.92411e-05
3.95463e-05
3.94474e-05
2.10562e-05
2.13776e-05
2.18798e-05
2.2176e-05
2.22421e-05
2.21699e-05
2.20316e-05
2.18659e-05
2.16906e-05
2.15129e-05
2.13354e-05
2.11585e-05
2.09818e-05
2.08043e-05
2.06252e-05
2.04433e-05
2.02575e-05
2.00668e-05
1.98702e-05
1.96666e-05
1.94551e-05
1.92348e-05
1.90049e-05
1.87645e-05
1.8513e-05
1.82497e-05
1.93763e-05
2.64913e-05
3.75897e-05
3.81852e-05
2.67208e-05
2.69458e-05
2.67846e-05
2.63622e-05
3.7772e-05
3.77894e-05
2.68569e-05
2.74836e-05
2.7748e-05
2.7722e-05
2.73435e-05
2.66553e-05
3.76357e-05
3.78011e-05
2.72146e-05
2.79717e-05
2.83038e-05
2.87321e-05
3.8348e-05
3.80176e-05
3.0553e-05
3.05523e-05
3.05848e-05
3.05721e-05
3.04808e-05
3.03286e-05
3.01411e-05
2.99349e-05
2.97179e-05
2.94933e-05
2.9262e-05
2.90236e-05
2.87773e-05
2.8522e-05
2.82564e-05
2.79794e-05
2.76897e-05
2.73859e-05
2.7067e-05
2.67318e-05
2.63792e-05
2.60081e-05
2.56178e-05
2.52075e-05
2.47764e-05
2.43242e-05
2.63872e-05
2.66587e-05
3.6697e-05
3.7421e-05
2.69527e-05
2.71065e-05
2.6919e-05
2.65937e-05
3.71246e-05
3.67313e-05
2.70584e-05
2.76691e-05
2.78709e-05
2.78089e-05
2.74352e-05
2.68383e-05
3.68066e-05
3.68205e-05
2.74428e-05
2.81929e-05
2.85239e-05
2.92237e-05
3.71903e-05
3.68652e-05
3.10883e-05
3.08527e-05
3.07798e-05
3.06762e-05
3.05345e-05
3.0356e-05
3.01552e-05
2.9942e-05
2.97212e-05
2.94943e-05
2.92614e-05
2.90219e-05
2.87747e-05
2.85186e-05
2.82523e-05
2.79746e-05
2.76842e-05
2.73799e-05
2.70604e-05
2.67247e-05
2.63716e-05
2.60001e-05
2.56095e-05
2.51988e-05
2.47674e-05
2.4315e-05
2.63755e-05
2.68751e-05
3.58359e-05
3.66691e-05
2.72131e-05
2.72738e-05
2.70794e-05
2.6878e-05
3.649e-05
3.57892e-05
2.72524e-05
2.78165e-05
2.8012e-05
2.79326e-05
2.75665e-05
2.70785e-05
3.60226e-05
3.58858e-05
2.76615e-05
2.8377e-05
2.87641e-05
2.97151e-05
3.61462e-05
3.60124e-05
3.16862e-05
3.11478e-05
3.09069e-05
3.07405e-05
3.05667e-05
3.03714e-05
3.01615e-05
2.99432e-05
2.97195e-05
2.94907e-05
2.92566e-05
2.90162e-05
2.87682e-05
2.85114e-05
2.82445e-05
2.79662e-05
2.76753e-05
2.73704e-05
2.70504e-05
2.67142e-05
2.63606e-05
2.59887e-05
2.55976e-05
2.51866e-05
2.47549e-05
2.43024e-05
2.63597e-05
2.70984e-05
3.50724e-05
3.59909e-05
2.74669e-05
2.74327e-05
2.72423e-05
2.71606e-05
3.58708e-05
3.49941e-05
2.74661e-05
2.7973e-05
2.81553e-05
2.80716e-05
2.77127e-05
2.73311e-05
3.53374e-05
3.50564e-05
2.7871e-05
2.85431e-05
2.89979e-05
3.01284e-05
3.5268e-05
3.53901e-05
3.21735e-05
3.13616e-05
3.09971e-05
3.078e-05
3.05821e-05
3.03753e-05
3.01597e-05
2.99386e-05
2.97131e-05
2.94832e-05
2.92483e-05
2.90072e-05
2.87586e-05
2.85012e-05
2.82337e-05
2.79549e-05
2.76634e-05
2.7358e-05
2.70375e-05
2.67007e-05
2.63467e-05
2.59743e-05
2.55828e-05
2.51714e-05
2.47394e-05
2.42866e-05
2.63402e-05
2.73045e-05
3.4411e-05
3.54019e-05
2.76938e-05
2.75712e-05
2.7393e-05
2.74124e-05
3.53042e-05
3.43583e-05
2.7681e-05
2.81295e-05
2.82899e-05
2.82114e-05
2.78601e-05
2.7575e-05
3.47603e-05
3.43537e-05
2.80604e-05
2.86949e-05
2.92236e-05
3.04657e-05
3.4568e-05
3.49218e-05
3.25165e-05
3.15055e-05
3.10695e-05
3.08113e-05
3.0592e-05
3.03747e-05
3.01544e-05
2.99308e-05
2.97039e-05
2.94732e-05
2.92376e-05
2.89958e-05
2.87467e-05
2.84888e-05
2.82208e-05
2.79414e-05
2.76494e-05
2.73434e-05
2.70223e-05
2.66851e-05
2.63305e-05
2.59577e-05
2.55657e-05
2.51539e-05
2.47216e-05
2.42685e-05
2.63176e-05
2.74851e-05
3.3841e-05
3.48941e-05
2.78896e-05
2.76851e-05
2.75226e-05
2.76218e-05
3.47782e-05
3.38653e-05
2.78872e-05
2.82749e-05
2.84089e-05
2.83411e-05
2.79974e-05
2.78017e-05
3.42723e-05
3.37678e-05
2.82275e-05
2.88305e-05
2.94387e-05
3.07531e-05
3.40396e-05
3.44469e-05
3.26431e-05
3.16153e-05
3.11312e-05
3.08403e-05
3.06019e-05
3.03746e-05
3.01491e-05
2.99227e-05
2.96942e-05
2.94623e-05
2.92258e-05
2.89834e-05
2.87336e-05
2.84751e-05
2.82064e-05
2.79265e-05
2.76338e-05
2.73272e-05
2.70056e-05
2.66678e-05
2.63126e-05
2.59393e-05
2.55469e-05
2.51346e-05
2.4702e-05
2.42486e-05
2.62929e-05
2.76411e-05
3.33495e-05
3.44127e-05
2.80309e-05
2.77755e-05
2.76291e-05
2.77899e-05
3.42841e-05
3.34823e-05
2.80538e-05
2.83743e-05
2.85093e-05
2.84536e-05
2.81181e-05
2.80074e-05
3.38632e-05
3.3297e-05
2.83707e-05
2.89415e-05
2.9637e-05
3.10012e-05
3.36554e-05
3.40234e-05
3.26506e-05
3.16971e-05
3.11852e-05
3.08682e-05
3.06129e-05
3.03762e-05
3.01453e-05
2.99156e-05
2.9685e-05
2.94516e-05
2.9214e-05
2.89706e-05
2.872e-05
2.84607e-05
2.81913e-05
2.79106e-05
2.76173e-05
2.731e-05
2.69878e-05
2.66493e-05
2.62936e-05
2.59197e-05
2.55268e-05
2.5114e-05
2.4681e-05
2.42272e-05
2.62663e-05
2.77751e-05
3.29241e-05
3.39705e-05
2.81374e-05
2.78461e-05
2.77147e-05
2.79226e-05
3.38275e-05
3.31808e-05
2.81983e-05
2.84453e-05
2.85899e-05
2.85443e-05
2.82213e-05
2.81856e-05
3.35085e-05
3.29401e-05
2.84855e-05
2.90161e-05
2.9811e-05
3.12057e-05
3.33791e-05
3.37022e-05
3.26305e-05
3.17563e-05
3.12326e-05
3.0895e-05
3.06248e-05
3.03792e-05
3.01428e-05
2.99096e-05
2.96766e-05
2.94415e-05
2.92024e-05
2.89579e-05
2.87062e-05
2.84459e-05
2.81757e-05
2.78942e-05
2.76e-05
2.7292e-05
2.6969e-05
2.66299e-05
2.62735e-05
2.5899e-05
2.55055e-05
2.50923e-05
2.46588e-05
2.42047e-05
2.62383e-05
2.78894e-05
3.25543e-05
3.35847e-05
2.82322e-05
2.79013e-05
2.77835e-05
2.80276e-05
3.34117e-05
3.29371e-05
2.83274e-05
2.84952e-05
2.86512e-05
2.86095e-05
2.83024e-05
2.83303e-05
3.31821e-05
3.26826e-05
2.85967e-05
2.90743e-05
2.99559e-05
3.13589e-05
3.31698e-05
3.34543e-05
3.25943e-05
3.17964e-05
3.12728e-05
3.09197e-05
3.06369e-05
3.0383e-05
3.01412e-05
2.99043e-05
2.96687e-05
2.94316e-05
2.9191e-05
2.8945e-05
2.86922e-05
2.84308e-05
2.81596e-05
2.78771e-05
2.75821e-05
2.72733e-05
2.69495e-05
2.66096e-05
2.62525e-05
2.58774e-05
2.54833e-05
2.50696e-05
2.46356e-05
2.41811e-05
2.62089e-05
2.79858e-05
3.22319e-05
3.32441e-05
2.83176e-05
2.79448e-05
2.78398e-05
2.81128e-05
3.30386e-05
3.26865e-05
2.84078e-05
2.85277e-05
2.86956e-05
2.86551e-05
2.83638e-05
2.84401e-05
3.28739e-05
3.24817e-05
2.86903e-05
2.91183e-05
3.00714e-05
3.14596e-05
3.29971e-05
3.32521e-05
3.25465e-05
3.18193e-05
3.13041e-05
3.09408e-05
3.06477e-05
3.03865e-05
3.01396e-05
2.98992e-05
2.96608e-05
2.94217e-05
2.91793e-05
2.89319e-05
2.86778e-05
2.84153e-05
2.8143e-05
2.78595e-05
2.75635e-05
2.72538e-05
2.69291e-05
2.65884e-05
2.62306e-05
2.58548e-05
2.546e-05
2.50457e-05
2.46113e-05
2.41563e-05
2.61782e-05
2.80664e-05
3.19508e-05
3.29386e-05
2.83946e-05
2.79804e-05
2.78874e-05
2.81856e-05
3.27091e-05
3.24504e-05
2.84662e-05
2.85471e-05
2.87257e-05
2.86846e-05
2.84088e-05
2.8518e-05
3.25797e-05
3.23051e-05
2.87589e-05
2.91498e-05
3.01577e-05
3.15136e-05
3.28451e-05
3.30785e-05
3.24896e-05
3.18265e-05
3.13251e-05
3.09563e-05
3.06558e-05
3.03884e-05
3.01371e-05
2.98934e-05
2.96525e-05
2.94112e-05
2.91672e-05
2.89183e-05
2.86628e-05
2.8399e-05
2.81256e-05
2.7841e-05
2.7544e-05
2.72333e-05
2.69078e-05
2.65662e-05
2.62076e-05
2.5831e-05
2.54357e-05
2.50207e-05
2.45857e-05
2.41303e-05
2.61458e-05
2.81345e-05
3.17084e-05
3.26605e-05
2.84636e-05
2.80118e-05
2.79288e-05
2.82523e-05
3.24237e-05
3.22386e-05
2.85176e-05
2.85578e-05
2.87445e-05
2.87024e-05
2.84421e-05
2.85701e-05
3.22994e-05
3.21699e-05
2.88314e-05
2.91731e-05
3.02204e-05
3.15298e-05
3.2704e-05
3.29229e-05
3.24251e-05
3.18199e-05
3.13353e-05
3.09652e-05
3.06598e-05
3.03878e-05
3.01327e-05
2.98861e-05
2.96429e-05
2.93998e-05
2.9154e-05
2.89036e-05
2.86468e-05
2.83818e-05
2.81072e-05
2.78215e-05
2.75235e-05
2.72118e-05
2.68853e-05
2.65428e-05
2.61834e-05
2.58061e-05
2.541e-05
2.49944e-05
2.45588e-05
2.41029e-05
2.61118e-05
2.81951e-05
3.15037e-05
3.24059e-05
2.8524e-05
2.80406e-05
2.79661e-05
2.83174e-05
3.21811e-05
3.20459e-05
2.85643e-05
2.85639e-05
2.87555e-05
2.87125e-05
2.84658e-05
2.86041e-05
3.20356e-05
3.20609e-05
2.89082e-05
2.9184e-05
3.02598e-05
3.15161e-05
3.25691e-05
3.27786e-05
3.23541e-05
3.18009e-05
3.13352e-05
3.0967e-05
3.06589e-05
3.03837e-05
3.01258e-05
2.98768e-05
2.96316e-05
2.93867e-05
2.91394e-05
2.88877e-05
2.86295e-05
2.83633e-05
2.80875e-05
2.78007e-05
2.75017e-05
2.7189e-05
2.68615e-05
2.65181e-05
2.61578e-05
2.57796e-05
2.53828e-05
2.49666e-05
2.45304e-05
2.40739e-05
2.60758e-05
2.82535e-05
3.1336e-05
3.21734e-05
2.85769e-05
2.80672e-05
2.80009e-05
2.83841e-05
3.19795e-05
3.18721e-05
2.86085e-05
2.8569e-05
2.87626e-05
2.87226e-05
2.84872e-05
2.86291e-05
3.17943e-05
3.19645e-05
2.89934e-05
2.91869e-05
3.02788e-05
3.148e-05
3.24385e-05
3.26427e-05
3.22781e-05
3.17718e-05
3.13256e-05
3.09617e-05
3.06529e-05
3.03757e-05
3.01157e-05
2.98649e-05
2.96181e-05
2.93717e-05
2.9123e-05
2.88699e-05
2.86106e-05
2.83432e-05
2.80663e-05
2.77784e-05
2.74783e-05
2.71646e-05
2.68361e-05
2.64918e-05
2.61306e-05
2.57516e-05
2.5354e-05
2.49371e-05
2.45003e-05
2.40432e-05
2.60377e-05
2.83147e-05
3.12044e-05
3.19634e-05
2.86251e-05
2.80945e-05
2.80351e-05
2.84541e-05
3.18129e-05
3.17164e-05
2.86522e-05
2.85758e-05
2.87687e-05
2.87344e-05
2.85104e-05
2.86538e-05
3.15843e-05
3.18777e-05
2.90875e-05
2.91884e-05
3.02822e-05
3.14283e-05
3.23118e-05
3.25133e-05
3.21988e-05
3.17345e-05
3.13079e-05
3.09499e-05
3.06418e-05
3.03636e-05
3.01024e-05
2.98502e-05
2.9602e-05
2.93544e-05
2.91045e-05
2.88503e-05
2.85898e-05
2.83213e-05
2.80433e-05
2.77544e-05
2.74532e-05
2.71384e-05
2.6809e-05
2.64637e-05
2.61016e-05
2.57218e-05
2.53234e-05
2.49057e-05
2.44683e-05
2.40106e-05
2.59972e-05
2.83825e-05
3.11067e-05
3.17762e-05
2.86684e-05
2.81231e-05
2.80697e-05
2.85278e-05
3.16758e-05
3.15778e-05
2.86968e-05
2.85866e-05
2.87764e-05
2.87499e-05
2.85381e-05
2.86848e-05
3.14055e-05
3.1796e-05
2.91872e-05
2.91936e-05
3.02748e-05
3.13669e-05
3.21898e-05
3.23901e-05
3.21179e-05
3.16909e-05
3.12835e-05
3.09324e-05
3.0626e-05
3.03477e-05
3.00857e-05
2.98325e-05
2.95834e-05
2.93347e-05
2.90838e-05
2.88285e-05
2.85669e-05
2.82974e-05
2.80184e-05
2.77284e-05
2.74262e-05
2.71105e-05
2.67801e-05
2.64338e-05
2.60708e-05
2.56901e-05
2.52909e-05
2.48725e-05
2.44344e-05
2.39761e-05
2.59544e-05
2.84588e-05
3.10388e-05
3.16122e-05
2.87077e-05
2.81524e-05
2.81048e-05
2.86043e-05
3.15633e-05
3.14561e-05
2.87428e-05
2.86014e-05
2.8787e-05
2.87695e-05
2.85708e-05
2.87266e-05
3.12609e-05
3.17156e-05
2.92874e-05
2.9206e-05
3.02612e-05
3.13003e-05
3.20731e-05
3.22731e-05
3.20365e-05
3.1643e-05
3.12537e-05
3.09101e-05
3.06061e-05
3.03282e-05
3.00659e-05
2.98121e-05
2.95622e-05
2.93126e-05
2.90608e-05
2.88046e-05
2.85421e-05
2.82716e-05
2.79916e-05
2.77006e-05
2.73974e-05
2.70807e-05
2.67493e-05
2.64021e-05
2.60382e-05
2.56567e-05
2.52566e-05
2.48374e-05
2.43986e-05
2.39397e-05
2.59093e-05
2.85434e-05
3.09954e-05
3.14706e-05
2.87451e-05
2.81819e-05
2.81404e-05
2.86817e-05
3.14694e-05
3.13506e-05
2.87905e-05
2.86195e-05
2.88004e-05
2.87926e-05
2.8608e-05
2.87813e-05
3.11535e-05
3.1639e-05
2.93851e-05
2.92268e-05
3.02447e-05
3.12314e-05
3.1962e-05
3.21621e-05
3.1956e-05
3.15919e-05
3.12197e-05
3.08837e-05
3.05826e-05
3.03056e-05
3.00432e-05
2.97891e-05
2.95386e-05
2.92883e-05
2.90358e-05
2.87787e-05
2.85153e-05
2.82439e-05
2.79629e-05
2.7671e-05
2.73669e-05
2.70492e-05
2.67168e-05
2.63687e-05
2.60039e-05
2.56214e-05
2.52206e-05
2.48006e-05
2.43611e-05
2.39015e-05
2.5862e-05
2.86347e-05
3.09702e-05
3.13499e-05
2.87821e-05
2.82114e-05
2.81759e-05
2.87577e-05
3.13886e-05
3.126e-05
2.88394e-05
2.86397e-05
2.88153e-05
2.88175e-05
2.86484e-05
2.8849e-05
3.10816e-05
3.15698e-05
2.94789e-05
2.92563e-05
3.02276e-05
3.1162e-05
3.18564e-05
3.2057e-05
3.18768e-05
3.15388e-05
3.11825e-05
3.08541e-05
3.05561e-05
3.02801e-05
3.0018e-05
2.97637e-05
2.95127e-05
2.92619e-05
2.90087e-05
2.87509e-05
2.84867e-05
2.82144e-05
2.79326e-05
2.76397e-05
2.73346e-05
2.7016e-05
2.66827e-05
2.63337e-05
2.59679e-05
2.55846e-05
2.51829e-05
2.47622e-05
2.4322e-05
2.38618e-05
2.58128e-05
2.87293e-05
3.0957e-05
3.12481e-05
2.88193e-05
2.824e-05
2.82108e-05
2.88303e-05
3.13163e-05
3.11826e-05
2.88888e-05
2.86595e-05
2.88298e-05
2.8842e-05
2.86902e-05
2.89283e-05
3.10415e-05
3.15122e-05
2.95702e-05
2.92938e-05
3.02107e-05
3.10923e-05
3.17554e-05
3.1957e-05
3.17992e-05
3.14842e-05
3.11426e-05
3.08215e-05
3.05268e-05
3.02522e-05
2.99905e-05
2.97361e-05
2.94848e-05
2.92335e-05
2.89797e-05
2.87213e-05
2.84563e-05
2.81833e-05
2.79006e-05
2.76069e-05
2.73009e-05
2.69813e-05
2.66471e-05
2.62972e-05
2.59306e-05
2.55464e-05
2.51439e-05
2.47224e-05
2.42814e-05
2.38206e-05
2.57618e-05
2.88257e-05
3.09503e-05
3.11634e-05
2.88574e-05
2.82674e-05
2.82447e-05
2.88984e-05
3.12495e-05
3.11164e-05
2.89396e-05
2.86778e-05
2.8842e-05
2.88637e-05
2.87317e-05
2.90165e-05
3.10274e-05
3.14698e-05
2.96618e-05
2.9339e-05
3.0194e-05
3.10213e-05
3.16574e-05
3.1861e-05
3.17229e-05
3.14283e-05
3.11001e-05
3.07862e-05
3.04949e-05
3.02218e-05
2.99607e-05
2.97064e-05
2.9455e-05
2.92034e-05
2.89491e-05
2.86901e-05
2.84245e-05
2.81507e-05
2.78672e-05
2.75727e-05
2.72658e-05
2.69454e-05
2.66103e-05
2.62595e-05
2.5892e-05
2.55069e-05
2.51036e-05
2.46814e-05
2.42397e-05
2.37782e-05
2.57094e-05
2.89209e-05
3.09448e-05
3.10909e-05
2.88963e-05
2.82932e-05
2.82774e-05
2.89614e-05
3.11864e-05
3.10593e-05
2.89908e-05
2.86936e-05
2.885e-05
2.88803e-05
2.8771e-05
2.911e-05
3.10324e-05
3.14455e-05
2.97582e-05
2.9392e-05
3.01772e-05
3.09475e-05
3.15598e-05
3.1767e-05
3.16471e-05
3.13709e-05
3.10552e-05
3.07483e-05
3.04605e-05
3.01891e-05
2.99288e-05
2.96749e-05
2.94234e-05
2.91716e-05
2.8917e-05
2.86574e-05
2.83912e-05
2.81168e-05
2.78326e-05
2.75372e-05
2.72295e-05
2.69083e-05
2.65723e-05
2.62206e-05
2.58523e-05
2.54664e-05
2.50623e-05
2.46393e-05
2.41969e-05
2.37348e-05
2.56557e-05
2.90136e-05
3.09403e-05
3.10281e-05
2.89357e-05
2.83173e-05
2.8309e-05
2.90201e-05
3.1127e-05
3.10093e-05
2.90417e-05
2.87062e-05
2.88525e-05
2.88902e-05
2.88067e-05
2.92044e-05
3.10493e-05
3.14403e-05
2.98641e-05
2.94536e-05
3.01603e-05
3.08692e-05
3.14603e-05
3.16729e-05
3.15705e-05
3.13114e-05
3.10076e-05
3.07076e-05
3.04236e-05
3.01542e-05
2.98949e-05
2.96414e-05
2.93902e-05
2.91383e-05
2.88834e-05
2.86235e-05
2.83568e-05
2.80817e-05
2.77968e-05
2.75007e-05
2.71923e-05
2.68702e-05
2.65334e-05
2.61808e-05
2.58117e-05
2.5425e-05
2.50201e-05
2.45964e-05
2.41533e-05
2.36904e-05
2.5601e-05
2.91041e-05
3.09372e-05
3.09739e-05
2.89752e-05
2.83397e-05
2.83395e-05
2.90758e-05
3.1072e-05
3.09651e-05
2.90919e-05
2.87157e-05
2.88488e-05
2.88925e-05
2.88372e-05
2.92951e-05
3.10708e-05
3.14536e-05
2.99838e-05
2.95258e-05
3.01441e-05
3.07858e-05
3.13565e-05
3.15763e-05
3.14917e-05
3.12493e-05
3.0957e-05
3.06641e-05
3.03841e-05
3.0117e-05
2.9859e-05
2.96063e-05
2.93554e-05
2.91035e-05
2.88485e-05
2.85883e-05
2.83212e-05
2.80456e-05
2.77601e-05
2.74633e-05
2.71541e-05
2.68313e-05
2.64937e-05
2.61403e-05
2.57703e-05
2.53829e-05
2.49772e-05
2.45527e-05
2.41089e-05
2.36454e-05
2.55454e-05
2.91933e-05
3.09355e-05
3.09269e-05
2.90145e-05
2.83608e-05
2.83694e-05
2.91301e-05
3.10231e-05
3.09259e-05
2.91407e-05
2.87228e-05
2.88392e-05
2.88873e-05
2.88619e-05
2.93777e-05
3.10902e-05
3.1483e-05
3.01202e-05
2.96111e-05
3.01311e-05
3.06982e-05
3.12472e-05
3.14754e-05
3.14094e-05
3.11838e-05
3.09032e-05
3.06176e-05
3.0342e-05
3.00776e-05
2.98213e-05
2.95695e-05
2.93191e-05
2.90675e-05
2.88125e-05
2.85521e-05
2.82847e-05
2.80086e-05
2.77226e-05
2.74252e-05
2.71153e-05
2.67917e-05
2.64534e-05
2.60993e-05
2.57285e-05
2.53403e-05
2.49338e-05
2.45086e-05
2.4064e-05
2.35998e-05
2.54892e-05
2.92839e-05
3.09373e-05
3.08862e-05
2.90532e-05
2.8381e-05
2.8399e-05
2.91845e-05
3.09818e-05
3.08925e-05
2.91892e-05
2.87289e-05
2.88249e-05
2.88755e-05
2.88803e-05
2.94487e-05
3.11022e-05
3.15238e-05
3.02738e-05
2.97121e-05
3.0125e-05
3.06091e-05
3.11329e-05
3.13694e-05
3.13228e-05
3.11145e-05
3.08461e-05
3.05682e-05
3.02975e-05
3.00361e-05
2.97817e-05
2.95312e-05
2.92816e-05
2.90304e-05
2.87755e-05
2.85151e-05
2.82474e-05
2.7971e-05
2.76845e-05
2.73866e-05
2.7076e-05
2.67518e-05
2.64127e-05
2.60578e-05
2.56863e-05
2.52973e-05
2.48902e-05
2.44642e-05
2.4019e-05
2.3554e-05
2.54327e-05
2.93785e-05
3.09449e-05
3.08514e-05
2.90911e-05
2.84008e-05
2.8429e-05
2.92402e-05
3.09492e-05
3.08639e-05
2.9237e-05
2.87353e-05
2.88076e-05
2.8859e-05
2.88931e-05
2.95062e-05
3.11033e-05
3.157e-05
3.04423e-05
2.98307e-05
3.013e-05
3.05232e-05
3.10161e-05
3.12587e-05
3.12316e-05
3.10413e-05
3.07856e-05
3.0516e-05
3.02507e-05
2.99928e-05
2.97407e-05
2.94917e-05
2.9243e-05
2.89924e-05
2.87378e-05
2.84774e-05
2.82096e-05
2.79329e-05
2.7646e-05
2.73476e-05
2.70365e-05
2.67116e-05
2.63718e-05
2.60162e-05
2.5644e-05
2.52543e-05
2.48465e-05
2.44198e-05
2.39739e-05
2.35083e-05
2.53763e-05
2.948e-05
3.09599e-05
3.08224e-05
2.91281e-05
2.84207e-05
2.84597e-05
2.92979e-05
3.09258e-05
3.08415e-05
2.92848e-05
2.87433e-05
2.87894e-05
2.88402e-05
2.89016e-05
2.95501e-05
3.10921e-05
3.16151e-05
3.06204e-05
2.99669e-05
3.01502e-05
3.04462e-05
3.09009e-05
3.11453e-05
3.11367e-05
3.09646e-05
3.07221e-05
3.04614e-05
3.02019e-05
2.99479e-05
2.96984e-05
2.94511e-05
2.92037e-05
2.89538e-05
2.86996e-05
2.84394e-05
2.81715e-05
2.78946e-05
2.76073e-05
2.73085e-05
2.69968e-05
2.66713e-05
2.63309e-05
2.59746e-05
2.56017e-05
2.52114e-05
2.48028e-05
2.43756e-05
2.39291e-05
2.34628e-05
2.53201e-05
2.95908e-05
3.09832e-05
3.07992e-05
2.91641e-05
2.84409e-05
2.84913e-05
2.93574e-05
3.09111e-05
3.08257e-05
2.93334e-05
2.87543e-05
2.87724e-05
2.88215e-05
2.89078e-05
2.95825e-05
3.10698e-05
3.16532e-05
3.08002e-05
3.01183e-05
3.01882e-05
3.03833e-05
3.07923e-05
3.10325e-05
3.10396e-05
3.08854e-05
3.06565e-05
3.04049e-05
3.01516e-05
2.99018e-05
2.96553e-05
2.941e-05
2.91638e-05
2.89148e-05
2.86611e-05
2.84011e-05
2.81333e-05
2.78562e-05
2.75686e-05
2.72694e-05
2.69572e-05
2.66311e-05
2.62901e-05
2.59332e-05
2.55596e-05
2.51686e-05
2.47594e-05
2.43315e-05
2.38844e-05
2.34175e-05
2.52643e-05
2.97121e-05
3.10147e-05
3.07812e-05
2.9199e-05
2.84615e-05
2.8524e-05
2.94176e-05
3.09034e-05
3.08167e-05
2.93833e-05
2.87692e-05
2.87585e-05
2.88055e-05
2.89143e-05
2.9607e-05
3.10397e-05
3.16805e-05
3.09733e-05
3.02802e-05
3.02446e-05
3.03387e-05
3.06952e-05
3.0924e-05
3.09428e-05
3.08052e-05
3.05896e-05
3.03474e-05
3.01005e-05
2.98551e-05
2.96116e-05
2.93685e-05
2.91238e-05
2.88758e-05
2.86227e-05
2.83629e-05
2.80952e-05
2.7818e-05
2.75302e-05
2.72305e-05
2.69179e-05
2.65912e-05
2.62496e-05
2.58921e-05
2.55178e-05
2.51261e-05
2.47162e-05
2.42876e-05
2.38397e-05
2.3372e-05
2.52078e-05
2.98441e-05
3.10535e-05
3.07676e-05
2.92325e-05
2.84823e-05
2.85574e-05
2.94769e-05
3.09005e-05
3.08135e-05
2.94348e-05
2.87885e-05
2.87491e-05
2.8794e-05
2.89237e-05
2.96281e-05
3.10067e-05
3.1696e-05
3.11317e-05
3.04461e-05
3.03177e-05
3.03145e-05
3.06135e-05
3.08237e-05
3.0849e-05
3.07255e-05
3.05226e-05
3.02897e-05
3.00492e-05
2.98084e-05
2.9568e-05
2.93271e-05
2.90839e-05
2.88369e-05
2.85844e-05
2.8325e-05
2.80573e-05
2.77801e-05
2.7492e-05
2.7192e-05
2.6879e-05
2.65518e-05
2.62097e-05
2.58515e-05
2.54767e-05
2.50843e-05
2.46739e-05
2.42448e-05
2.37964e-05
2.33281e-05
2.51535e-05
2.99859e-05
3.10975e-05
3.07574e-05
2.92641e-05
2.85033e-05
2.8591e-05
2.95336e-05
3.08995e-05
3.08144e-05
2.94871e-05
2.88121e-05
2.87448e-05
2.87886e-05
2.89383e-05
2.96506e-05
3.09764e-05
3.17015e-05
3.12703e-05
3.06093e-05
3.04042e-05
3.03105e-05
3.05494e-05
3.07346e-05
3.07608e-05
3.06485e-05
3.0457e-05
3.02328e-05
2.99986e-05
2.97622e-05
2.9525e-05
2.92862e-05
2.90445e-05
2.87985e-05
2.85467e-05
2.82876e-05
2.802e-05
2.77427e-05
2.74544e-05
2.71541e-05
2.68406e-05
2.6513e-05
2.61703e-05
2.58117e-05
2.54363e-05
2.50435e-05
2.46325e-05
2.4203e-05
2.37542e-05
2.32857e-05
2.51017e-05
3.0136e-05
3.11446e-05
3.07491e-05
2.92937e-05
2.85244e-05
2.86245e-05
2.95858e-05
3.08979e-05
3.08168e-05
2.95391e-05
2.8839e-05
2.87459e-05
2.87898e-05
2.89598e-05
2.96788e-05
3.09542e-05
3.17008e-05
3.13872e-05
3.0764e-05
3.04997e-05
3.03251e-05
3.05037e-05
3.06589e-05
3.06805e-05
3.05758e-05
3.03941e-05
3.01778e-05
2.99495e-05
2.97172e-05
2.94829e-05
2.92462e-05
2.9006e-05
2.87609e-05
2.85096e-05
2.82508e-05
2.79833e-05
2.77059e-05
2.74174e-05
2.71167e-05
2.68029e-05
2.64748e-05
2.61316e-05
2.57725e-05
2.53966e-05
2.50032e-05
2.45917e-05
2.41616e-05
2.37123e-05
2.32434e-05
2.50499e-05
3.02925e-05
3.11924e-05
3.07413e-05
2.93212e-05
2.85462e-05
2.86577e-05
2.96328e-05
3.08934e-05
3.08179e-05
2.95887e-05
2.8868e-05
2.87516e-05
2.87974e-05
2.89891e-05
2.97156e-05
3.0944e-05
3.16988e-05
3.14837e-05
3.09064e-05
3.05999e-05
3.03551e-05
3.04755e-05
3.05973e-05
3.06096e-05
3.05089e-05
3.03349e-05
3.01256e-05
2.99025e-05
2.9674e-05
2.94424e-05
2.92076e-05
2.89686e-05
2.87244e-05
2.84736e-05
2.8215e-05
2.79475e-05
2.76699e-05
2.73811e-05
2.70801e-05
2.67658e-05
2.64373e-05
2.60936e-05
2.5734e-05
2.53576e-05
2.49637e-05
2.45518e-05
2.41213e-05
2.36717e-05
2.32023e-05
2.49986e-05
3.04536e-05
3.12391e-05
3.0733e-05
2.93469e-05
2.85694e-05
2.86911e-05
2.96746e-05
3.08853e-05
3.0815e-05
2.96337e-05
2.88977e-05
2.8761e-05
2.88107e-05
2.90261e-05
2.97628e-05
3.09485e-05
3.17002e-05
3.15638e-05
3.10353e-05
3.0701e-05
3.03971e-05
3.04629e-05
3.05498e-05
3.0549e-05
3.0449e-05
3.02805e-05
3.0077e-05
2.98584e-05
2.96332e-05
2.94039e-05
2.91707e-05
2.89328e-05
2.86891e-05
2.84386e-05
2.81802e-05
2.79126e-05
2.76347e-05
2.73456e-05
2.70442e-05
2.67294e-05
2.64004e-05
2.60563e-05
2.56962e-05
2.53195e-05
2.49254e-05
2.45135e-05
2.40833e-05
2.36347e-05
2.31674e-05
2.49631e-05
3.06176e-05
3.12839e-05
3.07243e-05
2.93717e-05
2.85952e-05
2.87257e-05
2.97124e-05
3.08738e-05
3.08063e-05
2.96721e-05
2.89263e-05
2.87727e-05
2.88285e-05
2.90703e-05
2.98202e-05
3.09681e-05
3.17086e-05
3.16328e-05
3.11515e-05
3.08008e-05
3.04478e-05
3.04636e-05
3.05154e-05
3.04989e-05
3.03966e-05
3.02316e-05
3.00325e-05
2.98176e-05
2.95951e-05
2.93677e-05
2.91358e-05
2.88986e-05
2.86554e-05
2.84051e-05
2.81465e-05
2.78787e-05
2.76005e-05
2.7311e-05
2.7009e-05
2.66937e-05
2.63642e-05
2.60195e-05
2.56588e-05
2.52815e-05
2.48869e-05
2.44744e-05
2.40436e-05
2.35941e-05
2.31261e-05
2.49155e-05
3.07829e-05
3.13275e-05
3.07165e-05
2.93969e-05
2.86249e-05
2.87621e-05
2.97474e-05
3.08602e-05
3.07917e-05
2.97025e-05
2.89528e-05
2.87855e-05
2.88494e-05
2.91201e-05
2.98867e-05
3.10017e-05
3.17261e-05
3.16956e-05
3.12573e-05
3.08978e-05
3.05044e-05
3.0475e-05
3.04928e-05
3.04588e-05
3.03519e-05
3.01886e-05
2.99926e-05
2.97805e-05
2.95601e-05
2.93342e-05
2.91031e-05
2.88665e-05
2.86234e-05
2.8373e-05
2.81142e-05
2.7846e-05
2.75673e-05
2.72772e-05
2.69746e-05
2.66587e-05
2.63284e-05
2.5983e-05
2.56217e-05
2.52438e-05
2.48485e-05
2.44354e-05
2.40041e-05
2.35543e-05
2.30862e-05
2.48685e-05
3.09482e-05
3.13714e-05
3.07122e-05
2.94244e-05
2.86597e-05
2.88022e-05
2.97817e-05
3.08467e-05
3.07724e-05
2.9725e-05
2.89761e-05
2.87982e-05
2.88719e-05
2.91738e-05
2.99596e-05
3.10466e-05
3.17534e-05
3.17564e-05
3.13556e-05
3.09918e-05
3.05646e-05
3.04948e-05
3.04801e-05
3.0428e-05
3.03149e-05
3.01515e-05
2.99575e-05
2.97474e-05
2.95285e-05
2.93035e-05
2.90729e-05
2.88364e-05
2.85933e-05
2.83426e-05
2.80833e-05
2.78145e-05
2.75352e-05
2.72443e-05
2.6941e-05
2.66243e-05
2.62932e-05
2.59471e-05
2.5585e-05
2.52063e-05
2.48105e-05
2.43968e-05
2.39651e-05
2.35152e-05
2.30471e-05
2.48217e-05
3.11115e-05
3.14182e-05
3.0715e-05
2.9456e-05
2.86999e-05
2.88455e-05
2.98162e-05
3.08353e-05
3.07511e-05
2.97408e-05
2.89963e-05
2.88099e-05
2.88945e-05
2.92292e-05
3.00359e-05
3.10995e-05
3.17893e-05
3.1818e-05
3.14488e-05
3.10828e-05
3.06269e-05
3.05209e-05
3.04759e-05
3.04056e-05
3.0285e-05
3.01202e-05
2.99271e-05
2.97182e-05
2.95002e-05
2.92756e-05
2.90452e-05
2.88085e-05
2.8565e-05
2.83138e-05
2.80538e-05
2.77843e-05
2.75041e-05
2.72124e-05
2.69082e-05
2.65905e-05
2.62586e-05
2.59115e-05
2.55486e-05
2.51691e-05
2.47725e-05
2.43582e-05
2.39259e-05
2.34756e-05
2.30076e-05
2.4774e-05
3.12699e-05
3.14703e-05
3.07287e-05
2.94937e-05
2.87451e-05
2.88912e-05
2.98503e-05
3.08273e-05
3.07312e-05
2.97522e-05
2.90137e-05
2.882e-05
2.89161e-05
2.92842e-05
3.01121e-05
3.11565e-05
3.18319e-05
3.18813e-05
3.15388e-05
3.11713e-05
3.06904e-05
3.05519e-05
3.04787e-05
3.03905e-05
3.02616e-05
3.00945e-05
2.99013e-05
2.96929e-05
2.94752e-05
2.92507e-05
2.90199e-05
2.87828e-05
2.85386e-05
2.82866e-05
2.80258e-05
2.77553e-05
2.74741e-05
2.71814e-05
2.68761e-05
2.65574e-05
2.62245e-05
2.58764e-05
2.55125e-05
2.51321e-05
2.47345e-05
2.43194e-05
2.38864e-05
2.34355e-05
2.29672e-05
2.4725e-05
3.14193e-05
3.15289e-05
3.07566e-05
2.95388e-05
2.8794e-05
2.89366e-05
2.98816e-05
3.08224e-05
3.07161e-05
2.97625e-05
2.90293e-05
2.88284e-05
2.89358e-05
2.93367e-05
3.01848e-05
3.12138e-05
3.18787e-05
3.19462e-05
3.16265e-05
3.12576e-05
3.07545e-05
3.05866e-05
3.04873e-05
3.03818e-05
3.02442e-05
3.00738e-05
2.98799e-05
2.96713e-05
2.94534e-05
2.92284e-05
2.89971e-05
2.87592e-05
2.85141e-05
2.8261e-05
2.79991e-05
2.77275e-05
2.74451e-05
2.71512e-05
2.68447e-05
2.65249e-05
2.61908e-05
2.58416e-05
2.54767e-05
2.50952e-05
2.46967e-05
2.42806e-05
2.38468e-05
2.33953e-05
2.29263e-05
2.4675e-05
3.15541e-05
3.15923e-05
3.08001e-05
2.95922e-05
2.88442e-05
2.89776e-05
2.99055e-05
3.08185e-05
3.07084e-05
2.9775e-05
2.90443e-05
2.8835e-05
2.89526e-05
2.93848e-05
3.02511e-05
3.12682e-05
3.19267e-05
3.20113e-05
3.17119e-05
3.13418e-05
3.08188e-05
3.06242e-05
3.05007e-05
3.03786e-05
3.02321e-05
3.00578e-05
2.98624e-05
2.96531e-05
2.94345e-05
2.92088e-05
2.89766e-05
2.87376e-05
2.84913e-05
2.8237e-05
2.79738e-05
2.77008e-05
2.74171e-05
2.71218e-05
2.6814e-05
2.64929e-05
2.61576e-05
2.58072e-05
2.54411e-05
2.50585e-05
2.4659e-05
2.42421e-05
2.38074e-05
2.33551e-05
2.28855e-05
2.4625e-05
3.16677e-05
3.16561e-05
3.08584e-05
2.96543e-05
2.88932e-05
2.90087e-05
2.99158e-05
3.08116e-05
3.07091e-05
2.97929e-05
2.90602e-05
2.88401e-05
2.89662e-05
2.94269e-05
3.03089e-05
3.13172e-05
3.19733e-05
3.2075e-05
3.17944e-05
3.14238e-05
3.08831e-05
3.06642e-05
3.05183e-05
3.03803e-05
3.02248e-05
3.00461e-05
2.98486e-05
2.96381e-05
2.94184e-05
2.91916e-05
2.89581e-05
2.87177e-05
2.847e-05
2.82142e-05
2.79495e-05
2.7675e-05
2.73898e-05
2.70931e-05
2.67838e-05
2.64613e-05
2.61246e-05
2.57729e-05
2.54056e-05
2.5022e-05
2.46214e-05
2.42035e-05
2.3768e-05
2.3315e-05
2.28447e-05
2.45751e-05
3.1754e-05
3.17125e-05
3.09271e-05
2.97249e-05
2.89394e-05
2.90254e-05
2.9906e-05
3.07958e-05
3.07172e-05
2.98184e-05
2.90783e-05
2.8844e-05
2.89764e-05
2.94622e-05
3.0357e-05
3.13591e-05
3.20161e-05
3.21352e-05
3.18731e-05
3.15031e-05
3.09471e-05
3.07063e-05
3.05396e-05
3.03864e-05
3.02217e-05
3.00382e-05
2.98381e-05
2.96259e-05
2.94048e-05
2.91765e-05
2.89415e-05
2.86995e-05
2.84501e-05
2.81927e-05
2.79262e-05
2.765e-05
2.73632e-05
2.70648e-05
2.6754e-05
2.64299e-05
2.60917e-05
2.57387e-05
2.537e-05
2.49852e-05
2.45835e-05
2.41646e-05
2.37283e-05
2.32745e-05
2.28036e-05
2.45248e-05
3.1809e-05
3.17518e-05
3.09986e-05
2.98031e-05
2.89816e-05
2.90242e-05
2.98707e-05
3.07648e-05
3.07299e-05
2.98531e-05
2.91e-05
2.88474e-05
2.89831e-05
2.94904e-05
3.03953e-05
3.13931e-05
3.20535e-05
3.21905e-05
3.1947e-05
3.15794e-05
3.10105e-05
3.07502e-05
3.05644e-05
3.03966e-05
3.02226e-05
3.00339e-05
2.98307e-05
2.96164e-05
2.93935e-05
2.91634e-05
2.89265e-05
2.86827e-05
2.84314e-05
2.81721e-05
2.79037e-05
2.76257e-05
2.7337e-05
2.70368e-05
2.67242e-05
2.63984e-05
2.60587e-05
2.57041e-05
2.53341e-05
2.49479e-05
2.4545e-05
2.4125e-05
2.36877e-05
2.32331e-05
2.27615e-05
2.44734e-05
3.18332e-05
3.17658e-05
3.1062e-05
2.98858e-05
2.90201e-05
2.90043e-05
2.9807e-05
3.07128e-05
3.07422e-05
2.98968e-05
2.91265e-05
2.88512e-05
2.89868e-05
2.95117e-05
3.04244e-05
3.14195e-05
3.20846e-05
3.22395e-05
3.20152e-05
3.16523e-05
3.10732e-05
3.07957e-05
3.05922e-05
3.04105e-05
3.02273e-05
3.00328e-05
2.98262e-05
2.96093e-05
2.93842e-05
2.9152e-05
2.8913e-05
2.86671e-05
2.84137e-05
2.81522e-05
2.78818e-05
2.76017e-05
2.7311e-05
2.70088e-05
2.66943e-05
2.63668e-05
2.60253e-05
2.5669e-05
2.52974e-05
2.49098e-05
2.45056e-05
2.40845e-05
2.36461e-05
2.31906e-05
2.27182e-05
2.44203e-05
3.18322e-05
3.17502e-05
3.11055e-05
2.99671e-05
2.90563e-05
2.89681e-05
2.9716e-05
3.06362e-05
3.07487e-05
2.99484e-05
2.9159e-05
2.88565e-05
2.89886e-05
2.95274e-05
3.04459e-05
3.1439e-05
3.21094e-05
3.2282e-05
3.20773e-05
3.17214e-05
3.1135e-05
3.08426e-05
3.0623e-05
3.0428e-05
3.02354e-05
3.00349e-05
2.98243e-05
2.96044e-05
2.93768e-05
2.91421e-05
2.89008e-05
2.86525e-05
2.83968e-05
2.8133e-05
2.78603e-05
2.75779e-05
2.7285e-05
2.69807e-05
2.66642e-05
2.63346e-05
2.59912e-05
2.56333e-05
2.526e-05
2.48708e-05
2.44652e-05
2.40427e-05
2.36031e-05
2.31465e-05
2.26733e-05
2.43653e-05
3.18157e-05
3.17069e-05
3.11201e-05
3.00391e-05
2.90911e-05
2.89213e-05
2.96034e-05
3.05354e-05
3.07441e-05
3.00053e-05
2.91984e-05
2.88647e-05
2.89898e-05
2.9539e-05
3.04618e-05
3.14532e-05
3.21285e-05
3.23181e-05
3.21335e-05
3.17867e-05
3.11957e-05
3.08907e-05
3.06565e-05
3.04488e-05
3.02468e-05
3.004e-05
2.98249e-05
2.96016e-05
2.9371e-05
2.91337e-05
2.88897e-05
2.86388e-05
2.83805e-05
2.81141e-05
2.78389e-05
2.75541e-05
2.72588e-05
2.69523e-05
2.66335e-05
2.63019e-05
2.59565e-05
2.55966e-05
2.52215e-05
2.48306e-05
2.44234e-05
2.39995e-05
2.35586e-05
2.31009e-05
2.26267e-05
2.43081e-05
3.17954e-05
3.16448e-05
3.1102e-05
3.00922e-05
2.91238e-05
2.88707e-05
2.94788e-05
3.04155e-05
3.07249e-05
3.00636e-05
2.92446e-05
2.88774e-05
2.89921e-05
2.95487e-05
3.04746e-05
3.14639e-05