/*--------------------------------*- C++ -*----------------------------------*\
  =========                 |
  \\      /  F ield         | OpenFOAM: The Open Source CFD Toolbox
   \\    /   O peration     | Website:  https://openfoam.org
    \\  /    A nd           | Version:  9
     \\/     M anipulation  |
\*---------------------------------------------------------------------------*/
FoamFile
{
    format      ascii;
    class       surfaceScalarField;
    location    "0.07";
    object      alphaPhi0.water;
}
// * * * * * * * * * * * * * * * * * * * * * * * * * * * * * * * * * * * * * //

dimensions      [0 3 -1 0 0 0 0];

internalField   nonuniform List<scalar> 
9850
(
9.01273e-54
-2.01059e-53
2.67648e-53
-3.89286e-53
8.15121e-53
-1.21017e-52
2.5457e-52
-3.8588e-52
8.15092e-52
-1.26161e-51
2.67465e-51
-4.22783e-51
8.99084e-51
-1.45165e-50
3.09444e-50
-5.10457e-50
1.0898e-49
-1.83728e-49
3.92461e-49
-6.76451e-49
1.44404e-48
-2.5458e-48
5.42375e-48
-9.78535e-48
2.07737e-47
-3.83782e-47
8.10451e-47
-1.53423e-46
3.2165e-46
-6.24429e-46
1.29677e-45
-2.58401e-45
5.30237e-45
-1.08566e-44
2.19484e-44
-4.62352e-44
9.17921e-44
-1.99218e-43
3.87023e-43
-8.66767e-43
1.64125e-42
-3.79986e-42
6.98265e-42
-1.67466e-41
2.97248e-41
-7.40172e-41
1.2627e-40
-3.27271e-40
5.33891e-40
-1.44415e-39
2.24214e-39
-6.34649e-39
9.34129e-39
-2.77378e-38
3.86203e-38
-1.20564e-37
1.58812e-37
-5.22381e-37
6.52055e-37
-2.27e-36
2.99637e-36
-1.16483e-35
1.32924e-35
-5.69425e-35
5.71483e-35
-2.84427e-34
2.40872e-34
-1.48668e-33
1.05696e-33
-8.18421e-33
5.49846e-33
-4.64736e-32
3.48407e-32
-2.60961e-31
2.26837e-31
-1.38539e-30
1.31279e-30
-6.70389e-30
6.39721e-30
-2.9002e-29
2.5842e-29
-1.10855e-28
8.54247e-29
-3.70579e-28
2.24941e-28
-1.06801e-27
4.46064e-28
-2.58511e-27
5.84918e-28
-4.98063e-27
3.37421e-28
-6.70818e-27
9.88247e-32
-4.16764e-27
-2.33181e-29
-1.34424e-30
-1.33236e-28
2.98213e-28
1.64989e-26
3.63155e-53
-8.21249e-53
1.06919e-52
-1.57006e-52
3.22852e-52
-4.83854e-52
9.99812e-52
-1.52956e-51
3.1747e-51
-4.95822e-51
1.03327e-50
-1.64761e-50
3.4457e-50
-5.61042e-50
1.17673e-49
-1.95688e-49
4.11305e-49
-6.98772e-49
1.4704e-48
-2.55295e-48
5.37224e-48
-9.53613e-48
2.00415e-47
-3.6389e-47
7.62645e-47
-1.4172e-46
2.95689e-46
-5.62725e-46
1.16657e-45
-2.27538e-45
4.67636e-45
-9.35687e-45
1.90152e-44
-3.90725e-44
7.82847e-44
-1.65398e-43
3.2565e-43
-7.08414e-43
1.36565e-42
-3.06372e-42
5.75914e-42
-1.33485e-41
2.43569e-41
-5.84477e-41
1.03004e-40
-2.56507e-40
4.34233e-40
-1.12515e-39
1.81922e-39
-4.91885e-39
7.55289e-39
-2.13735e-38
3.10076e-38
-9.21025e-38
1.25774e-37
-3.93141e-37
5.04789e-37
-1.66395e-36
2.01395e-36
-7.01726e-36
8.99522e-36
-3.47162e-35
3.92906e-35
-1.62619e-34
1.72436e-34
-7.788e-34
7.91366e-34
-3.92765e-33
4.01255e-33
-2.09809e-32
2.29275e-32
-1.1524e-31
1.36806e-31
-6.17403e-31
7.62358e-31
-3.0751e-30
3.71092e-30
-1.38045e-29
1.53719e-29
-5.50609e-29
5.35815e-29
-1.93703e-28
1.55027e-28
-5.97012e-28
3.62336e-28
-1.59333e-27
6.46783e-28
-3.59462e-27
7.73995e-28
-6.50381e-27
4.13616e-28
-8.28987e-27
-1.32538e-31
-4.91788e-27
-4.15605e-29
1.98661e-30
-4.38619e-28
6.40808e-28
3.62045e-26
1.36067e-52
-3.12217e-52
3.97055e-52
-5.89096e-52
1.18836e-51
-1.79917e-51
3.64789e-51
-5.63675e-51
1.14828e-50
-1.81098e-50
3.70543e-50
-5.96491e-50
1.22533e-49
-2.01355e-49
4.15044e-49
-6.96327e-49
1.43919e-48
-2.46573e-48
5.10558e-48
-8.9352e-48
1.85158e-47
-3.31123e-47
6.85854e-47
-1.25388e-46
2.59229e-46
-4.84735e-46
9.98638e-46
-1.91112e-45
3.91602e-45
-7.67528e-45
1.56079e-44
-3.13577e-44
6.31195e-44
-1.30127e-43
2.5852e-43
-5.47516e-43
1.07012e-42
-2.33136e-42
4.46652e-42
-1.00249e-41
1.87489e-41
-4.34299e-41
7.89233e-41
-1.89062e-40
3.32119e-40
-8.24689e-40
1.39242e-39
-3.59342e-39
5.79561e-39
-1.559e-38
2.38645e-38
-6.71228e-38
9.69089e-38
-2.85916e-37
3.8725e-37
-1.20204e-36
1.52274e-36
-4.98448e-36
5.91687e-36
-2.04451e-35
2.56772e-35
-9.74963e-35
1.101e-34
-4.35285e-34
4.89357e-34
-1.97772e-33
2.36784e-33
-9.49271e-33
1.26909e-32
-4.85138e-32
7.19289e-32
-2.5431e-31
3.94567e-31
-1.2879e-30
1.94685e-30
-6.0028e-30
8.32935e-30
-2.50692e-29
3.04641e-29
-9.27851e-29
9.44818e-29
-3.02983e-28
2.45363e-28
-8.69128e-28
5.19849e-28
-2.16934e-27
8.5062e-28
-4.60785e-27
9.45118e-28
-7.91224e-27
4.77831e-28
-9.65866e-27
-4.53634e-31
-5.56262e-27
-5.676e-29
6.62408e-30
-6.42288e-28
9.71558e-28
5.23941e-26
4.76944e-52
-1.11143e-51
1.37908e-51
-2.06883e-51
4.08987e-51
-6.26018e-51
1.24404e-50
-1.94317e-50
3.88056e-50
-6.18538e-50
1.24104e-49
-2.01859e-49
4.0678e-49
-6.75203e-49
1.36596e-48
-2.31401e-48
4.69672e-48
-8.1217e-48
1.65258e-47
-2.91768e-47
5.94609e-47
-1.07215e-46
2.18593e-46
-4.02686e-46
8.20281e-46
-1.5445e-45
3.13857e-45
-6.04341e-45
1.22288e-44
-2.40961e-44
4.84464e-44
-9.77676e-44
1.94822e-43
-4.03037e-43
7.9379e-43
-1.68516e-42
3.27005e-42
-7.13254e-42
1.35881e-41
-3.04943e-41
5.68029e-41
-1.31374e-40
2.38178e-40
-5.68786e-40
9.98452e-40
-2.46735e-39
4.1694e-39
-1.06887e-38
1.72762e-38
-4.60757e-38
7.07403e-38
-1.96889e-37
2.8508e-37
-8.3079e-37
1.12672e-36
-3.44938e-36
4.35945e-36
-1.40577e-35
1.65584e-35
-5.62582e-35
6.98814e-35
-2.59081e-34
2.92132e-34
-1.0999e-33
1.28681e-33
-4.69467e-33
6.2711e-33
-2.10828e-32
3.33503e-32
-1.01168e-31
1.79633e-31
-4.99129e-31
9.02817e-31
-2.37415e-30
4.01883e-30
-1.03597e-29
1.54834e-29
-4.04329e-29
5.11779e-29
-1.39837e-28
1.44227e-28
-4.27369e-28
3.42566e-28
-1.15117e-27
6.69012e-28
-2.71165e-27
1.01841e-27
-5.47176e-27
1.06454e-27
-8.99548e-27
5.14691e-28
-1.06041e-26
-8.18396e-31
-5.96356e-27
-7.14266e-29
1.19085e-29
-8.91705e-28
1.24266e-27
6.50792e-26
1.57204e-51
-3.72353e-51
4.50321e-51
-6.83564e-51
1.32298e-50
-2.04893e-50
3.98633e-50
-6.29949e-50
1.23179e-49
-1.98608e-49
3.90255e-49
-6.41962e-49
1.26732e-48
-2.12687e-48
4.21687e-48
-7.22023e-48
1.43699e-47
-2.51051e-47
5.0122e-47
-8.93616e-47
1.78824e-46
-3.25428e-46
6.5208e-46
-1.21159e-45
2.42805e-45
-4.6078e-45
9.22221e-45
-1.78831e-44
3.56844e-44
-7.07473e-44
1.40454e-43
-2.84915e-43
5.61433e-43
-1.16619e-42
2.27493e-42
-4.84321e-42
9.32475e-42
-2.03688e-41
3.85727e-41
-8.656e-41
1.60598e-40
-3.70785e-40
6.70978e-40
-1.59653e-39
2.80363e-39
-6.88864e-39
1.16718e-38
-2.96815e-38
4.82108e-38
-1.27221e-37
1.9668e-37
-5.40162e-37
7.88637e-37
-2.26157e-36
3.09332e-36
-9.2942e-36
1.18258e-35
-3.73371e-35
4.40895e-35
-1.46292e-34
1.81224e-34
-6.52675e-34
7.32324e-34
-2.63548e-33
3.11149e-33
-1.04916e-32
1.46025e-32
-4.33555e-32
7.38005e-32
-1.91495e-31
3.70012e-31
-8.76805e-31
1.70668e-30
-3.89626e-30
6.94281e-30
-1.59349e-29
2.44815e-29
-5.83986e-29
7.43411e-29
-1.89995e-28
1.93377e-28
-5.47618e-28
4.26304e-28
-1.39627e-27
7.77856e-28
-3.12915e-27
1.11503e-27
-6.0457e-27
1.10783e-27
-9.58467e-27
5.14512e-28
-1.0972e-26
-1.33648e-30
-6.02084e-27
-8.66285e-29
1.9703e-29
-9.48274e-28
1.54011e-27
7.77674e-26
4.8943e-51
-1.17925e-50
1.38876e-50
-2.13468e-50
4.04097e-50
-6.33733e-50
1.20585e-49
-1.92954e-49
3.68997e-49
-6.02375e-49
1.15771e-48
-1.92786e-48
3.72319e-48
-6.32395e-48
1.22697e-47
-2.12563e-47
4.14161e-47
-7.31834e-47
1.4312e-46
-2.57967e-46
5.06011e-46
-9.30461e-46
1.82905e-45
-3.43178e-45
6.75348e-45
-1.29326e-44
2.54461e-44
-4.97498e-44
9.77165e-44
-1.95148e-43
3.81881e-43
-7.7952e-43
1.51642e-42
-3.16593e-42
6.10737e-42
-1.30515e-41
2.48965e-41
-5.4509e-41
1.02484e-40
-2.30131e-40
4.24861e-40
-9.79732e-40
1.76851e-39
-4.19415e-39
7.36628e-39
-1.79972e-38
3.05838e-38
-7.71314e-38
1.26021e-37
-3.28823e-37
5.1282e-37
-1.3881e-36
2.04971e-36
-5.77306e-36
8.00021e-36
-2.35245e-35
3.03316e-35
-9.33937e-35
1.11477e-34
-3.59525e-34
4.47478e-34
-1.56044e-33
1.73704e-33
-6.0134e-33
6.94916e-33
-2.22863e-32
3.02273e-32
-8.37475e-32
1.40562e-31
-3.34025e-31
6.47096e-31
-1.39711e-30
2.74348e-30
-5.75889e-30
1.02914e-29
-2.20725e-29
3.36031e-29
-7.62466e-29
9.49039e-29
-2.34701e-28
2.30661e-28
-6.4225e-28
4.77568e-28
-1.56103e-27
8.2328e-28
-3.35188e-27
1.12264e-27
-6.24236e-27
1.06887e-27
-9.59957e-27
4.77045e-28
-1.07094e-26
-2.01898e-30
-5.70526e-27
-1.00863e-28
2.99616e-29
-9.61803e-28
1.8169e-27
9.67844e-26
1.44503e-50
-3.54437e-50
4.06133e-50
-6.32619e-50
1.17032e-49
-1.86002e-49
3.45801e-49
-5.60768e-49
1.04765e-48
-1.73318e-48
3.25398e-48
-5.49085e-48
1.03596e-47
-1.78278e-47
3.37973e-47
-5.93089e-47
1.12945e-46
-2.02099e-46
3.86461e-46
-7.05106e-46
1.35316e-45
-2.51748e-45
4.84515e-45
-9.19239e-45
1.77269e-44
-3.43022e-44
6.62082e-44
-1.30697e-43
2.52131e-43
-5.07937e-43
9.77582e-43
-2.01091e-42
3.85334e-42
-8.09748e-42
1.54139e-41
-3.31108e-41
6.24455e-41
-1.37223e-40
2.55626e-40
-5.75152e-40
1.05458e-39
-2.43197e-39
4.37144e-39
-1.0345e-38
1.81448e-38
-4.41265e-38
7.51211e-38
-1.88048e-37
3.08823e-37
-7.97296e-37
1.25418e-36
-3.34707e-36
5.00211e-36
-1.38362e-35
1.9464e-35
-5.59721e-35
7.33997e-35
-2.20057e-34
2.67018e-34
-8.34996e-34
1.05087e-33
-3.54241e-33
3.9141e-33
-1.31093e-32
1.45351e-32
-4.54535e-32
5.69807e-32
-1.54871e-31
2.37257e-31
-5.49673e-31
9.88949e-31
-2.06253e-30
3.84713e-30
-7.7965e-30
1.33745e-29
-2.79047e-29
4.07612e-29
-9.09918e-29
1.08052e-28
-2.66087e-28
2.47735e-28
-6.94989e-28
4.86361e-28
-1.61969e-27
7.99557e-28
-3.35187e-27
1.04613e-27
-6.05066e-27
9.60744e-28
-9.06682e-27
4.10731e-28
-9.87561e-27
-2.78694e-30
-5.06369e-27
-1.08568e-28
4.08288e-29
-7.26296e-28
2.07476e-27
1.15507e-25
4.06033e-50
-1.01451e-49
1.13036e-49
-1.78556e-49
3.22566e-49
-5.19953e-49
9.43653e-49
-1.55217e-48
2.83004e-48
-4.74908e-48
8.70001e-48
-1.48911e-47
2.74112e-47
-4.78446e-47
8.84946e-47
-1.57487e-46
2.92652e-46
-5.30939e-46
9.90962e-46
-1.83262e-45
3.43412e-45
-6.47332e-45
1.2172e-44
-2.33865e-44
4.40942e-44
-8.6355e-44
1.63112e-43
-3.25645e-43
6.15449e-43
-1.25287e-42
2.3654e-42
-4.91182e-42
9.2467e-42
-1.95933e-41
3.67031e-41
-7.93971e-41
1.47639e-40
-3.26234e-40
6.00487e-40
-1.35629e-39
2.46316e-39
-5.69128e-39
1.01597e-38
-2.40368e-38
4.19941e-38
-1.01847e-37
1.73268e-37
-4.31333e-37
7.10392e-37
-1.81803e-36
2.87895e-36
-7.58854e-36
1.14616e-35
-3.11861e-35
4.45086e-35
-1.25333e-34
1.67289e-34
-4.88712e-34
6.04418e-34
-1.8329e-33
2.34294e-33
-7.63641e-33
8.40869e-33
-2.73518e-32
2.89584e-32
-8.96771e-32
1.01005e-31
-2.79369e-31
3.68468e-31
-8.7871e-31
1.36614e-30
-2.90817e-30
4.83793e-30
-9.91105e-30
1.55818e-29
-3.28122e-29
4.44966e-29
-1.00716e-28
1.11372e-28
-2.80124e-28
2.42573e-28
-7.00588e-28
4.54981e-28
-1.57204e-27
7.18755e-28
-3.14934e-27
9.08814e-28
-5.53359e-27
8.09029e-28
-8.10548e-27
3.28794e-28
-8.6209e-27
-3.53042e-30
-4.2013e-27
-1.01886e-28
4.99275e-29
-2.99211e-28
2.3959e-27
1.33496e-25
1.08918e-49
-2.77395e-49
3.00379e-49
-4.81531e-49
8.4892e-49
-1.38893e-48
2.45887e-48
-4.10579e-48
7.29929e-48
-1.2436e-47
2.22063e-47
-3.8592e-47
6.92265e-47
-1.22687e-46
2.21098e-46
-3.99499e-46
7.23271e-46
-1.33213e-45
2.42252e-45
-4.54726e-45
8.30411e-45
-1.58836e-44
2.91166e-44
-5.67442e-44
1.04358e-43
-2.07203e-43
3.82025e-43
-7.72763e-43
1.42691e-42
-2.94087e-42
5.43101e-42
-1.14074e-41
2.10342e-41
-4.50368e-41
8.27616e-41
-1.80688e-40
3.30195e-40
-7.35352e-40
1.33292e-39
-3.02941e-39
5.43047e-39
-1.26028e-38
2.22643e-38
-5.27975e-38
9.1551e-38
-2.22022e-37
3.76105e-37
-9.33678e-37
1.53665e-36
-3.90957e-36
6.21068e-36
-1.62176e-35
2.46749e-35
-6.62456e-35
9.56521e-35
-2.64561e-34
3.58731e-34
-1.02416e-33
1.29035e-33
-3.80479e-33
4.9481e-33
-1.56327e-32
1.72434e-32
-5.46342e-32
5.56685e-32
-1.71706e-31
1.738e-31
-4.97826e-31
5.50353e-31
-1.40353e-30
1.78108e-30
-4.0688e-30
5.65371e-30
-1.22666e-29
1.67388e-29
-3.69391e-29
4.47023e-29
-1.05712e-28
1.05828e-28
-2.78593e-28
2.19798e-28
-6.66931e-28
3.95829e-28
-1.4429e-27
6.04212e-28
-2.8043e-27
7.42217e-28
-4.80636e-27
6.42134e-28
-6.89037e-27
2.44522e-28
-7.14236e-27
-4.34731e-30
-3.24757e-27
-8.01795e-29
5.5235e-29
-3.41212e-28
3.03921e-27
1.4195e-25
2.79707e-49
-7.2652e-49
7.64313e-49
-1.24431e-48
2.13959e-48
-3.55582e-48
6.1365e-48
-1.04105e-47
1.80323e-47
-3.12191e-47
5.42885e-47
-9.58874e-47
1.67436e-46
-3.01616e-46
5.28939e-46
-9.71494e-46
1.71113e-45
-3.20354e-45
5.66693e-45
-1.08119e-44
1.92058e-44
-3.73331e-44
6.65771e-44
-1.31827e-43
2.35922e-43
-4.7576e-43
8.53979e-43
-1.75366e-42
3.15472e-42
-6.59646e-42
1.18795e-41
-2.52949e-41
4.55353e-41
-9.87494e-41
1.77399e-40
-3.91865e-40
7.01174e-40
-1.57795e-39
2.80581e-39
-6.43471e-39
1.13395e-38
-2.65105e-38
4.6153e-38
-1.10045e-37
1.88562e-37
-4.58778e-37
7.70347e-37
-1.91383e-36
3.13286e-36
-7.95397e-36
1.26153e-35
-3.27655e-35
4.99793e-35
-1.32966e-34
1.93336e-34
-5.2763e-34
7.23708e-34
-2.02885e-33
2.59522e-33
-7.4777e-33
9.87915e-33
-3.04023e-32
3.37134e-32
-1.04428e-31
1.03763e-31
-3.18878e-31
2.96429e-31
-8.79316e-31
8.24347e-31
-2.27866e-30
2.30867e-30
-5.8593e-30
6.44914e-30
-1.54848e-29
1.72766e-29
-4.15963e-29
4.27381e-29
-1.09113e-28
9.52665e-29
-2.69489e-28
1.88451e-28
-6.13728e-28
3.26103e-28
-1.276e-27
4.81865e-28
-2.40125e-27
5.76089e-28
-4.00824e-27
4.83737e-28
-5.61151e-27
1.6809e-28
-5.63854e-27
-4.4565e-30
-2.32313e-27
-3.90547e-29
4.92028e-29
-3.20663e-28
2.77684e-27
1.1922e-25
6.89357e-49
-1.82707e-48
1.86693e-48
-3.08881e-48
5.1779e-48
-8.74739e-48
1.47079e-47
-2.53707e-47
4.27893e-47
-7.53431e-47
1.27495e-46
-2.29077e-46
3.89033e-46
-7.13043e-46
1.21553e-45
-2.27191e-45
3.88813e-45
-7.40845e-45
1.27292e-44
-2.47181e-44
4.26375e-44
-8.43545e-44
1.46059e-43
-2.94322e-43
5.11418e-43
-1.04938e-42
1.82917e-42
-3.82086e-42
6.67743e-42
-1.41964e-41
2.4853e-41
-5.37735e-41
9.41857e-41
-2.074e-40
3.62904e-40
-8.1328e-40
1.41926e-39
-3.237e-39
5.62245e-39
-1.30519e-38
2.25095e-38
-5.31914e-38
9.08226e-38
-2.18518e-37
3.68146e-37
-9.02106e-37
1.49353e-36
-3.72872e-36
6.03735e-36
-1.53646e-35
2.41892e-35
-6.2794e-35
9.54529e-35
-2.5297e-34
3.68145e-34
-9.97e-34
1.37491e-33
-3.80844e-33
4.9178e-33
-1.39401e-32
1.86277e-32
-5.62303e-32
6.271e-32
-1.90944e-31
1.87132e-31
-5.72951e-31
5.03337e-31
-1.53315e-30
1.26797e-30
-3.76338e-30
3.11962e-30
-8.85439e-30
7.62186e-30
-2.08089e-29
1.81817e-29
-4.95149e-29
4.10222e-29
-1.17059e-28
8.51056e-29
-2.66521e-28
1.59035e-28
-5.69972e-28
2.62826e-28
-1.12731e-27
3.74012e-28
-2.03616e-27
4.32888e-28
-3.28202e-27
3.4972e-28
-4.44669e-27
1.05772e-28
-4.27959e-27
-3.8736e-30
-1.52199e-27
-9.136e-30
3.68536e-29
-2.59322e-28
2.2675e-27
9.04019e-26
1.63409e-48
-4.42144e-48
4.3875e-48
-7.38223e-48
1.206e-47
-2.07254e-47
3.39375e-47
-5.95695e-47
9.77742e-47
-1.75238e-46
2.88383e-46
-5.27575e-46
8.70734e-46
-1.62539e-45
2.69103e-45
-5.12386e-45
8.51127e-45
-1.65245e-44
2.75427e-44
-5.45063e-44
9.11634e-44
-1.83831e-43
3.08506e-43
-6.33679e-43
1.06691e-42
-2.23147e-42
3.76836e-42
-8.02281e-42
1.3584e-41
-2.94286e-41
4.99285e-41
-1.10038e-40
1.86892e-40
-4.18966e-40
7.11413e-40
-1.62207e-39
2.74952e-39
-6.37518e-39
1.07689e-38
-2.53894e-38
4.2648e-38
-1.02235e-37
1.70331e-37
-4.15162e-37
6.83933e-37
-1.69506e-36
2.75088e-36
-6.93346e-36
1.10354e-35
-2.82924e-35
4.39244e-35
-1.1459e-34
1.72392e-34
-4.57841e-34
6.62076e-34
-1.79098e-33
2.46478e-33
-6.79491e-33
8.79189e-33
-2.47143e-32
3.3182e-32
-9.90876e-32
1.10805e-31
-3.3411e-31
3.24917e-31
-9.93567e-31
8.44101e-31
-2.62007e-30
1.9988e-30
-6.25308e-30
4.4811e-30
-1.39621e-29
9.77616e-30
-3.0241e-29
2.08144e-29
-6.50272e-29
4.2487e-29
-1.38784e-28
8.11082e-29
-2.88727e-28
1.41449e-28
-5.72614e-28
2.20309e-28
-1.06245e-27
2.97334e-28
-1.81282e-27
3.27324e-28
-2.76956e-27
2.48892e-28
-3.55572e-27
6.05604e-29
-3.19917e-27
-3.00496e-30
-9.07819e-28
-5.01972e-30
3.06767e-29
-1.90405e-28
1.63695e-27
6.37433e-26
3.7329e-48
-1.0316e-47
9.94066e-48
-1.70213e-47
2.70903e-47
-4.73924e-47
7.55502e-47
-1.35042e-46
2.1562e-46
-3.93671e-46
6.29735e-46
-1.17398e-45
1.88195e-45
-3.58113e-45
5.75426e-45
-1.11726e-44
1.79981e-44
-3.56439e-44
5.75735e-44
-1.16256e-43
1.88299e-43
-3.87534e-43
6.29421e-43
-1.3198e-42
2.14935e-42
-4.58998e-42
7.49397e-42
-1.62919e-41
2.66605e-41
-5.89798e-41
9.6699e-41
-2.17601e-40
3.572e-40
-8.17365e-40
1.34197e-39
-3.12196e-39
5.11974e-39
-1.21062e-38
1.97997e-38
-4.75746e-38
7.7456e-38
-1.89074e-37
3.0574e-37
-7.58064e-37
1.21412e-36
-3.05725e-36
4.83341e-36
-1.23595e-35
1.92088e-35
-4.98799e-35
7.58257e-35
-1.99965e-34
2.95494e-34
-7.91526e-34
1.12833e-33
-3.07055e-33
4.18195e-33
-1.1565e-32
1.48662e-32
-4.18053e-32
5.59358e-32
-1.66797e-31
1.85967e-31
-5.60197e-31
5.40877e-31
-1.66077e-30
1.38225e-30
-4.3614e-30
3.17116e-30
-1.03071e-29
6.74195e-30
-2.24934e-29
1.36641e-29
-4.66847e-29
2.67317e-29
-9.43102e-29
5.01776e-29
-1.86978e-28
8.87297e-29
-3.61091e-28
1.44333e-28
-6.67932e-28
2.10169e-28
-1.1601e-27
2.64366e-28
-1.85035e-27
2.69265e-28
-2.62494e-27
1.85582e-28
-3.09739e-27
3.15378e-29
-2.50549e-27
-1.95561e-30
-4.93068e-28
-3.44336e-30
2.29463e-29
-1.1586e-28
9.41953e-28
3.40871e-26
8.23235e-48
-2.32467e-47
2.17521e-47
-3.79305e-47
5.87964e-47
-1.04784e-46
1.62572e-46
-2.96134e-46
4.59819e-46
-8.55862e-46
1.3303e-45
-2.52928e-45
3.93637e-45
-7.64226e-45
1.19116e-44
-2.36059e-44
3.68547e-44
-7.45269e-44
1.16565e-43
-2.40433e-43
3.76762e-43
-7.92377e-43
1.24405e-42
-2.66664e-42
4.19457e-42
-9.16004e-42
1.44342e-41
-3.20991e-41
5.0663e-41
-1.14676e-40
1.8124e-40
-4.17361e-40
6.60211e-40
-1.54602e-39
2.44594e-39
-5.82227e-39
9.2023e-39
-2.226e-38
3.50992e-38
-8.6248e-38
1.35454e-37
-3.37986e-37
5.27662e-37
-1.33648e-36
2.069e-36
-5.31782e-36
8.13848e-36
-2.1221e-35
3.19854e-35
-8.45936e-35
1.2499e-34
-3.35247e-34
4.82779e-34
-1.31312e-33
1.82975e-33
-5.04651e-33
6.74141e-33
-1.88565e-32
2.38589e-32
-6.77323e-32
8.94939e-32
-2.69102e-31
2.96898e-31
-9.02068e-31
8.61592e-31
-2.67636e-30
2.19118e-30
-7.04554e-30
4.96725e-30
-1.6673e-29
1.03123e-29
-3.62341e-29
2.01367e-29
-7.41244e-29
3.75842e-29
-1.45783e-28
6.70947e-29
-2.78644e-28
1.13032e-28
-5.16436e-28
1.75439e-28
-9.1579e-28
2.42783e-28
-1.52111e-27
2.86523e-28
-2.30039e-27
2.67958e-28
-3.04201e-27
1.6362e-28
-3.26628e-27
1.5573e-29
-2.32024e-27
-8.259e-31
-2.544e-28
-1.73658e-30
1.08114e-29
-4.79837e-29
3.7228e-28
1.18125e-26
1.75549e-47
-5.06762e-47
4.60443e-47
-8.18242e-47
1.23503e-46
-2.24379e-46
3.38725e-46
-6.29235e-46
9.49899e-46
-1.80381e-45
2.72355e-45
-5.28519e-45
7.98314e-45
-1.58259e-44
2.39182e-44
-4.84221e-44
7.32341e-44
-1.51357e-43
2.29101e-43
-4.83201e-43
7.32042e-43
-1.57502e-42
2.38828e-42
-5.23977e-42
7.95222e-42
-1.77831e-41
2.70098e-41
-6.15371e-41
9.35247e-41
-2.16984e-40
3.29912e-40
-7.79032e-40
1.1846e-39
-2.84543e-39
4.32495e-39
-1.05622e-38
1.60339e-38
-3.97942e-38
6.02591e-38
-1.51929e-37
2.2915e-37
-5.86631e-37
8.79779e-37
-2.28576e-36
3.40114e-36
-8.96386e-36
1.31974e-35
-3.52689e-35
5.12029e-35
-1.387e-34
1.97711e-34
-5.42693e-34
7.555e-34
-2.10081e-33
2.83686e-33
-7.98969e-33
1.03728e-32
-2.95912e-32
3.65032e-32
-1.05574e-31
1.36427e-31
-4.17745e-31
4.52158e-31
-1.39931e-30
1.31387e-30
-4.16463e-30
3.34782e-30
-1.10327e-29
7.58462e-30
-2.63081e-29
1.56422e-29
-5.75222e-29
3.0113e-29
-1.17853e-28
5.50847e-29
-2.30692e-28
9.62071e-29
-4.36477e-28
1.58869e-28
-7.98479e-28
2.42267e-28
-1.39613e-27
3.28814e-28
-2.2814e-27
3.76842e-28
-3.37019e-27
3.35827e-28
-4.29027e-27
1.91221e-28
-4.34187e-27
1.57972e-29
-2.85002e-27
-1.93065e-31
-2.70352e-28
-6.05597e-30
3.66291e-30
-1.94988e-29
1.50595e-28
5.14737e-27
3.62493e-47
-1.07022e-46
9.4423e-47
-1.71125e-46
2.51441e-46
-4.66027e-46
6.84378e-46
-1.29748e-45
1.90386e-45
-3.69116e-45
5.41267e-45
-1.07285e-44
1.57241e-44
-3.1854e-44
4.66686e-44
-9.65953e-44
1.41479e-43
-2.99101e-43
4.37979e-43
-9.45427e-43
1.38411e-42
-3.04958e-42
4.46353e-42
-1.00341e-41
1.4682e-41
-3.36621e-41
4.92338e-41
-1.15077e-40
1.68211e-40
-4.00628e-40
5.85134e-40
-1.41932e-39
2.0707e-39
-5.1125e-39
7.44766e-39
-1.87055e-38
2.71919e-38
-6.94347e-38
1.00626e-37
-2.6111e-37
3.76734e-37
-9.92926e-37
1.42398e-36
-3.80984e-36
5.42053e-36
-1.47135e-35
2.07177e-35
-5.70244e-35
7.92201e-35
-2.20997e-34
3.01727e-34
-8.52724e-34
1.13853e-33
-3.25847e-33
4.22761e-33
-1.22494e-32
1.53139e-32
-4.49241e-32
5.35088e-32
-1.59085e-31
1.99077e-31
-6.26774e-31
6.59354e-31
-2.0989e-30
1.92201e-30
-6.27397e-30
4.92538e-30
-1.67604e-29
1.12209e-29
-4.04034e-29
2.31984e-29
-8.93376e-29
4.45566e-29
-1.84752e-28
8.10058e-29
-3.63869e-28
1.40503e-28
-6.90661e-28
2.31035e-28
-1.26573e-27
3.52373e-28
-2.21678e-27
4.79817e-28
-3.62659e-27
5.51158e-28
-5.34774e-27
4.90223e-28
-6.75292e-27
2.82518e-28
-6.73667e-27
4.15385e-29
-4.43375e-27
-1.37094e-33
-7.47351e-28
-5.06264e-30
2.77964e-32
-1.09916e-29
8.40822e-29
3.85671e-27
7.25791e-47
-2.19257e-46
1.87841e-46
-3.47433e-46
4.96843e-46
-9.40104e-46
1.34273e-45
-2.59979e-45
3.70736e-45
-7.34377e-45
1.04567e-44
-2.11856e-44
3.01239e-44
-6.24067e-44
8.86182e-44
-1.87671e-43
2.66148e-43
-5.76008e-43
8.15801e-43
-1.80381e-42
2.55127e-42
-5.76139e-42
8.13693e-42
-1.87608e-41
2.64542e-41
-6.22511e-41
8.76243e-41
-2.10362e-40
2.95514e-40
-7.23475e-40
1.01403e-39
-2.5304e-39
3.53744e-39
-8.99271e-39
1.2534e-38
-3.24412e-38
4.50578e-38
-1.18663e-37
1.64111e-37
-4.395e-37
6.04572e-37
-1.64556e-36
2.24804e-36
-6.21573e-36
8.4177e-36
-2.36283e-35
3.16521e-35
-9.01418e-35
1.19113e-34
-3.43973e-34
4.46767e-34
-1.30756e-33
1.66178e-33
-4.92684e-33
6.09079e-33
-1.82869e-32
2.18177e-32
-6.63411e-32
7.55698e-32
-2.32974e-31
2.79519e-31
-9.13371e-31
9.24768e-31
-3.05733e-30
2.70594e-30
-9.18186e-30
6.98671e-30
-2.47561e-29
1.60574e-29
-6.04198e-29
3.34338e-29
-1.35415e-28
6.44377e-29
-2.83637e-28
1.17147e-28
-5.64647e-28
2.02962e-28
-1.08103e-27
3.34151e-28
-1.996e-27
5.12947e-28
-3.52198e-27
7.07317e-28
-5.80691e-27
8.26904e-28
-8.62618e-27
7.52532e-28
-1.09627e-26
4.5648e-28
-1.10393e-26
1.04709e-28
-7.57205e-27
6.92254e-32
-1.98995e-27
-2.81909e-30
-1.49736e-30
-5.9712e-29
6.71173e-29
3.48115e-27
1.41083e-46
-4.36308e-46
3.62958e-46
-6.85642e-46
9.54039e-46
-1.84423e-45
2.56133e-45
-5.06842e-45
7.02284e-45
-1.42233e-44
1.96627e-44
-4.07485e-44
5.62047e-44
-1.19158e-43
1.63984e-43
-3.55573e-43
4.88211e-43
-1.08245e-42
1.48268e-42
-3.36058e-42
4.59154e-42
-1.06359e-41
1.44926e-41
-3.42995e-41
4.66008e-41
-1.12649e-40
1.52563e-40
-3.76559e-40
5.08192e-40
-1.28027e-39
1.72113e-39
-4.42382e-39
5.9216e-39
-1.55215e-38
2.06775e-38
-5.52425e-38
7.32013e-38
-1.99215e-37
2.62393e-37
-7.26963e-37
9.50872e-37
-2.68026e-36
3.47692e-36
-9.96573e-36
1.27989e-35
-3.72837e-35
4.73055e-35
-1.39967e-34
1.75005e-34
-5.25617e-34
6.45545e-34
-1.96704e-33
2.36321e-33
-7.30205e-33
8.53503e-33
-2.67339e-32
3.01791e-32
-9.58369e-32
1.03441e-31
-3.33426e-31
3.79769e-31
-1.29961e-30
1.25372e-30
-4.34544e-30
3.68102e-30
-1.31071e-29
9.58052e-30
-3.56655e-29
2.22437e-29
-8.81549e-29
4.67506e-29
-2.00416e-28
9.06633e-29
-4.25703e-28
1.65225e-28
-8.5799e-28
2.86342e-28
-1.65964e-27
4.72145e-28
-3.09155e-27
7.29487e-28
-5.50155e-27
1.02002e-27
-9.15189e-27
1.21887e-27
-1.37256e-26
1.14393e-27
-1.76323e-26
7.3409e-28
-1.80512e-26
2.17777e-28
-1.29579e-26
3.69717e-31
-4.40091e-27
-2.93204e-30
-8.60146e-30
-8.05741e-29
7.71467e-29
5.66363e-27
2.66564e-46
-8.44301e-46
6.81992e-46
-1.31673e-45
1.78229e-45
-3.52231e-45
4.75585e-45
-9.62487e-45
1.29562e-44
-2.68471e-44
3.6029e-44
-7.64256e-44
1.02248e-43
-2.21986e-43
2.96054e-43
-6.57722e-43
8.74313e-43
-1.98726e-42
2.6326e-42
-6.12074e-42
8.07873e-42
-1.92089e-41
2.52541e-41
-6.13956e-41
8.03739e-41
-1.9974e-40
2.6027e-40
-6.61007e-40
8.56957e-40
-2.22356e-39
2.86668e-39
-7.5969e-39
9.73432e-39
-2.63373e-38
3.35206e-38
-9.25558e-38
1.16928e-37
-3.29327e-37
4.12649e-37
-1.18487e-36
1.47118e-36
-4.30413e-36
5.28943e-36
-1.57584e-35
1.91373e-35
-5.80291e-35
6.94972e-35
-2.14382e-34
2.52568e-34
-7.9219e-34
9.1534e-34
-2.91763e-33
3.2938e-33
-1.06647e-32
1.17045e-32
-3.84847e-32
4.07839e-32
-1.36206e-31
1.38086e-31
-4.68999e-31
5.02255e-31
-1.81549e-30
1.65179e-30
-6.05747e-30
4.86035e-30
-1.83335e-29
1.27426e-29
-5.03101e-29
2.98889e-29
-1.25874e-28
6.34584e-29
-2.90221e-28
1.23969e-28
-6.25194e-28
2.26639e-28
-1.27601e-27
3.92715e-28
-2.49405e-27
6.47221e-28
-4.68554e-27
1.00342e-27
-8.40166e-27
1.41889e-27
-1.40855e-26
1.73134e-27
-2.13114e-26
1.67664e-27
-2.76753e-26
1.13243e-27
-2.88113e-26
3.92602e-28
-2.15038e-26
6.753e-32
-8.51757e-27
-1.66049e-30
-1.70663e-30
-2.88254e-28
4.84284e-29
8.61254e-27
4.90079e-46
-1.59054e-45
1.24747e-45
-2.46339e-45
3.24282e-45
-6.55655e-45
8.60478e-45
-1.78222e-44
2.33034e-44
-4.9438e-44
6.43989e-44
-1.39916e-43
1.81556e-43
-4.03908e-43
5.2202e-43
-1.18899e-42
1.53025e-42
-3.56786e-42
4.57152e-42
-1.09094e-41
1.39119e-41
-3.3975e-41
4.31036e-41
-1.07709e-40
1.35889e-40
-3.47396e-40
4.35625e-40
-1.13915e-39
1.41898e-39
-3.79478e-39
4.69262e-39
-1.28314e-38
1.57408e-38
-4.39976e-38
5.35011e-38
-1.52821e-37
1.84045e-37
-5.37049e-37
6.39959e-37
-1.90695e-36
2.24603e-36
-6.83132e-36
7.94295e-36
-2.46471e-35
2.82482e-35
-8.93851e-35
1.00788e-34
-3.25081e-34
3.59753e-34
-1.18232e-33
1.28028e-33
-4.28597e-33
4.52473e-33
-1.54237e-32
1.58015e-32
-5.48377e-32
5.41797e-32
-1.9149e-31
1.80897e-31
-6.52e-31
6.50526e-31
-2.5038e-30
2.12686e-30
-8.32563e-30
6.25947e-30
-2.52504e-29
1.65034e-29
-6.9788e-29
3.9063e-29
-1.76541e-28
8.37399e-29
-4.1244e-28
1.64781e-28
-9.00505e-28
3.02118e-28
-1.86032e-27
5.22659e-28
-3.67205e-27
8.58152e-28
-6.95078e-27
1.32868e-27
-1.2539e-26
1.8902e-27
-2.11461e-26
2.34632e-27
-3.22101e-26
2.33969e-27
-4.22113e-26
1.6543e-27
-4.45953e-26
6.37668e-28
-3.43563e-26
-1.43704e-33
-1.50607e-26
-2.28023e-30
3.99587e-32
-2.61563e-28
7.92048e-29
1.20765e-26
8.77655e-46
-2.91999e-45
2.22362e-45
-4.49416e-45
5.75229e-45
-1.19066e-44
1.51856e-44
-3.22103e-44
4.09039e-44
-8.89006e-44
1.12394e-43
-2.50269e-43
3.1496e-43
-7.18441e-43
8.99829e-43
-2.10244e-42
2.61998e-42
-6.26974e-42
7.77109e-42
-1.90452e-41
2.34693e-41
-5.89007e-41
7.21284e-41
-1.85359e-40
2.25439e-40
-5.93185e-40
7.16078e-40
-1.92905e-39
2.3097e-39
-6.36977e-39
7.55845e-39
-2.13375e-38
2.50706e-38
-7.24385e-38
8.41936e-38
-2.48953e-37
2.85924e-37
-8.65062e-37
9.80606e-37
-3.03501e-36
3.39127e-36
-1.07346e-35
1.18065e-35
-3.821e-35
4.12985e-35
-1.36612e-34
1.4482e-34
-4.89504e-34
5.07764e-34
-1.7533e-33
1.77444e-33
-6.25833e-33
6.15701e-33
-2.21802e-32
2.1116e-32
-7.77005e-32
7.11659e-32
-2.67627e-31
2.33961e-31
-9.0051e-31
8.30129e-31
-3.42725e-30
2.69172e-30
-1.13423e-29
7.903e-30
-3.44158e-29
2.09009e-29
-9.56394e-29
4.98123e-29
-2.44219e-28
1.07635e-28
-5.77293e-28
2.13069e-28
-1.27604e-27
3.91231e-28
-2.66579e-27
6.74151e-28
-5.30923e-27
1.0979e-27
-1.01145e-26
1.68628e-27
-1.83243e-26
2.39625e-27
-3.10035e-26
3.00918e-27
-4.7418e-26
3.08059e-27
-6.25585e-26
2.27219e-27
-6.68929e-26
9.53341e-28
-5.28745e-26
2.16386e-29
-2.50145e-26
-1.08596e-30
-6.73675e-28
-3.55017e-28
3.90777e-29
1.42922e-26
1.5325e-45
-5.22909e-45
3.86622e-45
-8.00291e-45
9.95737e-45
-2.11138e-44
2.61644e-44
-5.68702e-44
7.01309e-44
-1.56247e-43
1.91707e-43
-4.3775e-43
5.34282e-43
-1.2503e-42
1.51762e-42
-3.63944e-42
4.39179e-42
-1.07925e-41
1.29422e-41
-3.25903e-41
3.88182e-41
-1.00163e-40
1.18431e-40
-3.13136e-40
3.67285e-40
-9.95114e-40
1.15698e-39
-3.21222e-39
3.69885e-39
-1.05237e-38
1.199e-38
-3.49589e-38
3.93673e-38
-1.17631e-37
1.30771e-37
-4.00458e-37
4.38935e-37
-1.37755e-36
1.48657e-36
-4.78142e-36
5.07212e-36
-1.67193e-35
1.74044e-35
-5.87933e-35
5.99447e-35
-2.0751e-34
2.0678e-34
-7.335e-34
7.12589e-34
-2.59019e-33
2.44603e-33
-9.11149e-33
8.33363e-33
-3.18208e-32
2.8063e-32
-1.09881e-31
9.29028e-32
-3.73383e-31
3.00377e-31
-1.24127e-30
1.04957e-30
-4.67866e-30
3.36683e-30
-1.53917e-29
9.8321e-30
-4.66488e-29
2.5998e-29
-1.30095e-28
6.21851e-29
-3.34684e-28
1.3504e-28
-7.99039e-28
2.68201e-28
-1.78529e-27
4.91856e-28
-3.76692e-27
8.4066e-28
-7.56203e-27
1.3492e-27
-1.44762e-26
2.03771e-27
-2.62797e-26
2.86507e-27
-4.44864e-26
3.61351e-27
-6.81147e-26
3.78533e-27
-9.02089e-26
2.90812e-27
-9.73432e-26
1.31534e-27
-7.85434e-26
9.45077e-29
-3.94908e-26
-1.28218e-30
-3.3768e-27
-2.13029e-28
4.60604e-29
1.58139e-26
2.61157e-45
-9.14252e-45
6.56304e-45
-1.39223e-44
1.68354e-44
-3.65912e-44
4.40511e-44
-9.81731e-44
1.17551e-43
-2.68614e-43
3.1983e-43
-7.49319e-43
8.86968e-43
-2.1305e-42
2.50632e-42
-6.17201e-42
7.21313e-42
-1.8211e-41
2.11329e-41
-5.47021e-41
6.29949e-41
-1.67188e-40
1.90936e-40
-5.19612e-40
5.88032e-40
-1.64106e-39
1.83865e-39
-5.2627e-39
5.83173e-39
-1.7122e-38
1.87443e-38
-5.64603e-38
6.09871e-38
-1.88498e-37
2.00623e-37
-6.36397e-37
6.66369e-37
-2.16986e-36
2.23151e-36
-7.46073e-36
7.52186e-36
-2.58271e-35
2.54747e-35
-8.98537e-35
8.65131e-35
-3.13548e-34
2.93951e-34
-1.09503e-33
9.96785e-34
-3.81799e-33
3.36374e-33
-1.32537e-32
1.12586e-32
-4.56616e-32
3.72301e-32
-1.55549e-31
1.21038e-31
-5.21685e-31
3.84611e-31
-1.7137e-30
1.32135e-30
-6.39539e-30
4.1832e-30
-2.08952e-29
1.21118e-29
-6.31626e-29
3.1899e-29
-1.76444e-28
7.62618e-29
-4.56369e-28
1.65744e-28
-1.09825e-27
3.28804e-28
-2.47615e-27
5.98982e-28
-5.26849e-27
1.00841e-27
-1.0641e-26
1.57978e-27
-2.04292e-26
2.31685e-27
-3.70786e-26
3.17955e-27
-6.26254e-26
3.98791e-27
-9.5678e-26
4.26249e-27
-1.26771e-25
3.41612e-27
-1.37613e-25
1.65861e-27
-1.12828e-25
2.06394e-28
-5.952e-26
-1.13997e-30
-8.77515e-27
-7.15809e-29
3.19036e-29
1.50976e-26
4.34713e-45
-1.56194e-44
1.08864e-44
-2.36802e-44
2.78251e-44
-6.20246e-44
7.25308e-44
-1.65825e-43
1.92778e-43
-4.52047e-43
5.22307e-43
-1.25614e-42
1.44209e-42
-3.55705e-42
4.05598e-42
-1.02609e-41
1.16157e-41
-3.01408e-41
3.38553e-41
-9.01134e-41
1.00366e-40
-2.74065e-40
3.02442e-40
-8.47379e-40
9.25704e-40
-2.66168e-39
2.87552e-39
-8.48682e-39
9.05678e-39
-2.74445e-38
2.88932e-38
-8.99204e-38
9.32578e-38
-2.98175e-37
3.04153e-37
-9.99449e-37
1.00094e-36
-3.38172e-36
3.31866e-36
-1.15332e-35
1.10666e-35
-3.958e-35
3.70466e-35
-1.36435e-34
1.2424e-34
-4.71441e-34
4.16447e-34
-1.62936e-33
1.39166e-33
-5.61866e-33
4.62321e-33
-1.92795e-32
1.52188e-32
-6.56264e-32
4.94553e-32
-2.20838e-31
1.57939e-31
-7.31748e-31
4.93033e-31
-2.37659e-30
1.66338e-30
-8.78138e-30
5.18602e-30
-2.84788e-29
1.48408e-29
-8.5766e-29
3.87725e-29
-2.39612e-28
9.21841e-29
-6.21919e-28
1.99303e-28
-1.50544e-27
3.92122e-28
-3.41738e-27
7.03444e-28
-7.31566e-27
1.15353e-27
-1.48337e-26
1.73665e-27
-2.85055e-26
2.42048e-27
-5.1618e-26
3.16678e-27
-8.67169e-26
3.8895e-27
-1.31675e-25
4.23971e-27
-1.73861e-25