/*--------------------------------*- C++ -*----------------------------------*\
  =========                 |
  \\      /  F ield         | OpenFOAM: The Open Source CFD Toolbox
   \\    /   O peration     | Website:  https://openfoam.org
    \\  /    A nd           | Version:  9
     \\/     M anipulation  |
\*---------------------------------------------------------------------------*/
FoamFile
{
    format      ascii;
    class       volScalarField;
    location    "0.07";
    object      p_rgh;
}
// * * * * * * * * * * * * * * * * * * * * * * * * * * * * * * * * * * * * * //

dimensions      [1 -1 -2 0 0 0 0];

internalField   nonuniform List<scalar> 
5000
(
0.000280142
0.000873336
0.00150888
0.00216523
0.00284251
0.00354062
0.00425909
0.00499719
0.00575386
0.00652762
0.00731649
0.008118
0.00892921
0.00974691
0.0105677
0.0113884
0.0122058
0.0130173
0.0138205
0.0146138
0.0153955
0.016164
0.0169163
0.0176465
0.018343
0.018984
0.0195291
0.0199169
0.0200526
0.0197103
0.0186095
0.0160679
0.0114003
0.00390921
-0.00686624
-0.0204427
-0.0351843
-0.0487672
-0.0590605
-0.0647449
-0.0653417
-0.0607985
-0.0512011
-0.0371554
-0.020765
-0.00599937
0.0032817
0.00638177
0.00535884
0.00159758
0.000269399
0.000849692
0.00147199
0.00211449
0.00277768
0.00346154
0.00416563
0.00488927
0.0056315
0.00639095
0.00716582
0.00795381
0.00875219
0.00955793
0.0103679
0.0111789
0.0119882
0.0127931
0.0135917
0.0143822
0.0151633
0.0159335
0.01669
0.0174267
0.0181313
0.0187803
0.0193301
0.0197127
0.019822
0.0194175
0.0181643
0.0152513
0.0098861
0.00129154
-0.0108762
-0.0257777
-0.0413682
-0.0551054
-0.0648957
-0.0695866
-0.0688269
-0.0626527
-0.0513664
-0.0361054
-0.0196314
-0.00603527
0.00156758
0.00331654
0.00140417
-0.00301709
0.000257961
0.000825414
0.00143439
0.00206273
0.00271142
0.00338056
0.00406979
0.00477855
0.00550596
0.00625084
0.00701159
0.00778624
0.00857239
0.00936742
0.0101686
0.0109734
0.0117793
0.0125845
0.0133872
0.0141863
0.0149808
0.0157694
0.0165491
0.0173133
0.0180486
0.0187295
0.0193096
0.0197148
0.0198298
0.0194081
0.0180695
0.0148917
0.00900537
-0.000387466
-0.0134369
-0.0289348
-0.0445315
-0.0576368
-0.0663224
-0.0696423
-0.0673667
-0.0596545
-0.0471182
-0.0314531
-0.015873
-0.00422829
0.00129557
0.00155971
-0.00129353
-0.00641674
0.000246198
0.000801352
0.00139755
0.00201227
0.00264701
0.00330202
0.00397705
0.00467165
0.00538513
0.00611648
0.00686441
0.00762723
0.008403
0.00918956
0.00998471
0.0107864
0.0115928
0.0124026
0.0132148
0.0140286
0.0148437
0.015659
0.0164717
0.0172751
0.0180553
0.0187862
0.0194202
0.0198797
0.0200432
0.0196673
0.0183383
0.0150422
0.00886873
-0.000936632
-0.01427
-0.0295889
-0.04438
-0.056171
-0.0633017
-0.065062
-0.0613481
-0.052482
-0.0393993
-0.0242351
-0.0103658
-0.00114033
0.00216392
0.000907119
-0.00294038
-0.00881252
0.000234282
0.000777704
0.00136172
0.00196347
0.002585
0.00322675
0.00388854
0.00457007
0.0052708
0.00598996
0.00672655
0.00747925
0.00824653
0.00902674
0.00981819
0.0106194
0.0114291
0.0122466
0.0130715
0.0139038
0.0147436
0.0155903
0.0164418
0.0172918
0.0181269
0.018922
0.0196309
0.0201751
0.020431
0.0201684
0.0189544
0.0157104
0.0095274
-0.000247476
-0.0132346
-0.0276439
-0.0409595
-0.0509667
-0.0563365
-0.0565742
-0.051757
-0.0423113
-0.0294576
-0.0155859
-0.00397208
0.00266346
0.00380733
0.00108578
-0.00377513
-0.0104209
0.000222334
0.000754474
0.00132676
0.00191602
0.0025249
0.00315399
0.00380324
0.00447247
0.00516134
0.00586931
0.00659566
0.00733945
0.00809955
0.00887477
0.00966396
0.0104662
0.0112809
0.0121079
0.0129476
0.0138006
0.0146678
0.0155493
0.0164438
0.0173463
0.018245
0.0191168
0.0199189
0.020575
0.0209628
0.0208755
0.0198771
0.0168591
0.0109596
0.00166835
-0.0103838
-0.0232836
-0.0346685
-0.0426817
-0.0463502
-0.0453873
-0.0399336
-0.0305466
-0.0186014
-0.00655657
0.00258229
0.00671813
0.00590388
0.00184982
-0.00398803
-0.0114167
0.000210478
0.000731704
0.00129267
0.00186984
0.00246648
0.00308335
0.00372051
0.00437793
0.00505549
0.00575289
0.00646971
0.00720535
0.00795909
0.00873018
0.009518
0.0103222
0.0111427
0.0119801
0.0128354
0.01371
0.0146055
0.0155231
0.0164628
0.0174212
0.0183889
0.0193462
0.0202554
0.0210451
0.0215979
0.0217389
0.0210465
0.0184201
0.013083
0.00468259
-0.00596273
-0.0169518
-0.0262001
-0.0322603
-0.0344939
-0.0327697
-0.0272449
-0.0185018
-0.00795196
0.00202006
0.00875049
0.0106717
0.00819971
0.00299818
-0.00374082
-0.0119487
0.000198811
0.000709365
0.00125926
0.00182464
0.0024093
0.00301423
0.00363956
0.00428546
0.00495197
0.00563909
0.00634666
0.00707444
0.00782212
0.00858938
0.0093761
0.0101824
0.0110089
0.0118567
0.0127274
0.0136232
0.0145467
0.0155
0.0164847
0.0174998
0.0185386
0.0195859
0.0206108
0.0215486
0.022291
0.0227006
0.0223874
0.0202956
0.015757
0.00856315
-0.000366463
-0.00926425
-0.0164038
-0.0207508
-0.0219473
-0.0199481
-0.0148599
-0.00719249
0.00170613
0.00961208
0.0141991
0.0142978
0.010513
0.00437488
-0.00317284
-0.0121516
0.00018743
0.000687436
0.0012264
0.00178009
0.00235292
0.00294599
0.00355958
0.00419399
0.00484948
0.00552627
0.00622452
0.00694431
0.0076857
0.00844884
0.00923403
0.0100419
0.0108736
0.0117308
0.0126157
0.0135313
0.0144809
0.015468
0.0164958
0.0175659
0.018675
0.0198128
0.0209561
0.0220494
0.0229957
0.0236983
0.0238141
0.0223638
0.0187933
0.0130039
0.00592523
-0.000899817
-0.00613579
-0.00912793
-0.00971677
-0.00788317
-0.00360294
0.00274455
0.00994532
0.0159724
0.0187886
0.0174907
0.0127393
0.0058754
-0.00239126
-0.0121379
0.00017643
0.000665887
0.00119391
0.00173595
0.00229691
0.00287808
0.00347982
0.00410258
0.00474682
0.00541298
0.0061015
0.00681279
0.00754728
0.0083055
0.00908819
0.00989646
0.0107319
0.0115967
0.0124936
0.0134263
0.0143989
0.0154164
0.0164835
0.0176045
0.0187799
0.0200045
0.0212635
0.0225112
0.0236648
0.0246677
0.0252354
0.0244888
0.0219777
0.0176683
0.0124216
0.00750128
0.00386209
0.00183848
0.0014561
0.00281627
0.0060753
0.0110296
0.0166379
0.0210719
0.0225203
0.0202341
0.0148326
0.00743333
-0.0014763
-0.011994
0.000165901
0.000644707
0.00116168
0.00169197
0.00224095
0.00281003
0.00339967
0.00401046
0.00464303
0.00529804
0.00597618
0.00667817
0.00740476
0.00815687
0.00893562
0.00974254
0.0105796
0.0114495
0.0123555
0.0133017
0.0142933
0.0153361
0.016437
0.0176026
0.0188372
0.0201409
0.021507
0.0229006
0.0242541
0.0255476
0.0265627
0.026535
0.0250965
0.0222345
0.0186843
0.0154113
0.0130307
0.0116357
0.0111848
0.011875
0.0140379
0.0176554
0.021864
0.02502
0.0254803
0.0225639
0.0167813
0.00900349
-0.000489813
-0.01178
0.000155925
0.000623877
0.0011296
0.00164795
0.0021847
0.00274141
0.00331859
0.00391696
0.00453729
0.00518046
0.00584738
0.00653902
0.00725647
0.00800094
0.00877394
0.00957735
0.0104135
0.0112854
0.0121968
0.0131523
0.0141576
0.0152198
0.0163474
0.0175493
0.0188335
0.0202052
0.021665
0.023189
0.0247251
0.0262844
0.0277178
0.02838
0.0279594
0.02643
0.0243681
0.0224525
0.0210157
0.0199838
0.0192992
0.0192581
0.0203669
0.0227837
0.0258181
0.0279946
0.0277927
0.024538
0.0185865
0.0105495
0.000518032
-0.0115358
0.000146566
0.000603382
0.00109756
0.00160369
0.00212791
0.00267186
0.00323612
0.00382152
0.00442895
0.00505946
0.00571416
0.00639425
0.00710108
0.00783617
0.00860133
0.00939874
0.0102311
0.0111015
0.0120142
0.0129739
0.0139872
0.0150619
0.016208
0.0174366
0.0187589
0.0201845
0.0217209
0.0233544
0.0250475
0.0268357
0.0286379
0.0299246
0.0304162
0.0300516
0.029238
0.0283982
0.0276446
0.0267974
0.0258137
0.0250867
0.0252622
0.0266534
0.0287358
0.0301893
0.0295854
0.0262145
0.020249
0.0120378
0.00150781
-0.0112823
0.000137869
0.000583215
0.0010655
0.0015591
0.00207042
0.00260117
0.003152
0.0037238
0.00431759
0.00493454
0.00557592
0.00624314
0.00693776
0.00766157
0.00841662
0.00920536
0.0100306
0.0108959
0.0118053
0.0127641
0.013779
0.0148589
0.0160146
0.0172593
0.0186067
0.0200704
0.0216636
0.0233817
0.0252003
0.0271724
0.0292794
0.031099
0.0323649
0.0329713
0.0331648
0.0331528
0.032887
0.0321299
0.0308659
0.0295629
0.028966
0.0295163
0.0308454
0.0317824
0.0309715
0.0276416
0.0217645
0.013436
0.0024485
-0.0110277
0.000129858
0.000563378
0.0010334
0.00151413
0.00201215
0.00252924
0.00306608
0.00362363
0.00420299
0.00480542
0.00543234
0.00608532
0.0067661
0.00747666
0.00821928
0.00899656
0.00981154
0.0106677
0.0115693
0.0125217
0.0135319
0.0146092
0.0157653
0.0170149
0.0183738
0.0198588
0.0214875
0.0232631
0.0251723
0.0272785
0.0296185
0.0318646
0.0337515
0.0351309
0.0361083
0.0367206
0.0368087
0.036111
0.0346398
0.0329058
0.031712
0.0315982
0.0323424
0.0329207
0.0320408
0.0288535
0.0231245
0.0147147
0.00331705
-0.0107709
0.000122539
0.000543879
0.00100129
0.00146882
0.00195315
0.00245611
0.00297841
0.00352104
0.00408517
0.00467213
0.00528344
0.0059208
0.00658609
0.00728145
0.00800932
0.00877242
0.00957385
0.0104171
0.0113064
0.0122471
0.0132462
0.0143132
0.0154606
0.0167038
0.0180605
0.0195498
0.0211925
0.0229979
0.0249615
0.0271516
0.0296507
0.0322118
0.0345656
0.0365297
0.0380959
0.0391727
0.0395298
0.0389025
0.0373236
0.0353145
0.0336965
0.0330796
0.0333778
0.0337138
0.0328568
0.0298716
0.0243188
0.0158513
0.0040993
-0.010505
0.000115899
0.000524755
0.000969248
0.00142328
0.00189357
0.00238197
0.0028892
0.00341628
0.0039644
0.00453496
0.00512955
0.00574996
0.00639818
0.00707646
0.00778734
0.00853363
0.00931839
0.0101451
0.0110177
0.0119416
0.0129235
0.0139731
0.0151029
0.0163291
0.0176704
0.0191475
0.0207833
0.0225915
0.0245746
0.0268004
0.0293875
0.0321558
0.0348311
0.0372103
0.0392002
0.0406188
0.0411942
0.0406692
0.0390864
0.0369514
0.0350688
0.0340919
0.0340573
0.0342346
0.0334572
0.030703
0.0253347
0.0168278
0.00478638
-0.0102228
0.000109908
0.000506045
0.000937378
0.00137768
0.00183364
0.00230712
0.00279882
0.00330977
0.00384119
0.00439449
0.00497132
0.00557353
0.00620318
0.00686262
0.00755444
0.00828145
0.00904668
0.0098534
0.0107055
0.0116077
0.012567
0.0135924
0.0146966
0.0158958
0.0172093
0.0186589
0.0202685
0.0220548
0.0240248
0.0262426
0.0288531
0.0317301
0.034597
0.0372438
0.0395203
0.0411866
0.0419493
0.0415636
0.0400715
0.0379401
0.0359326
0.03472
0.034445
0.0345214
0.033853
0.031337
0.0261505
0.0176237
0.00536735
-0.00992283
0.000104535
0.000487794
0.00090581
0.00133224
0.00177368
0.00223196
0.00270776
0.00320211
0.00371621
0.0042515
0.00480965
0.00539253
0.00600228
0.00664129
0.00731218
0.00801772
0.00876082
0.00954453
0.0103724
0.011249
0.0121805
0.0131758
0.0142472
0.0154104
0.0166852
0.0180936
0.0196599
0.0214022
0.0233305
0.0255024
0.0280805
0.0309803
0.0339275
0.0367173
0.0391673
0.0410061
0.0419339
0.0417181
0.0403913
0.0383685
0.0363524
0.0350095
0.0345687
0.0345809
0.034029
0.0317424
0.0267302
0.0182078
0.00582047
-0.00961595
9.97415e-05
0.000470065
0.000874708
0.00128722
0.00171404
0.00215694
0.0026166
0.00309399
0.00359032
0.004107
0.00464569
0.00520831
0.00579702
0.00641422
0.00706253
0.00774468
0.00846339
0.00922146
0.0100221
0.0108694
0.011769
0.0127291
0.0137613
0.014881
0.0161075
0.0174631
0.0189712
0.0206505
0.0225128
0.0246076
0.0271068
0.0299581
0.0328938
0.0357239
0.0382536
0.0402017
0.0412723
0.041244
0.0401333
0.0382956
0.0363616
0.0349742
0.034426
0.034393
0.0339456
0.0318659
0.0270189
0.0185318
0.00610679
-0.00932943
9.54712e-05
0.000452905
0.00084423
0.00124288
0.00165509
0.00208258
0.00252599
0.00298624
0.00346448
0.00396211
0.00448078
0.0050224
0.00558913
0.0061834
0.0068078
0.00746495
0.00815741
0.00888768
0.00965855
0.0104736
0.0113378
0.0122586
0.0132465
0.0143162
0.0154867
0.0167795
0.0182172
0.0198181
0.0215946
0.0235871
0.0259708
0.0287166
0.0315674
0.0343545
0.036886
0.0388865
0.0400727
0.0402329
0.0393633
0.0377575
0.0359691
0.0346018
0.0339884
0.0339136
0.0335414
0.0316343
0.0269419
0.0185282
0.00616857
-0.00910939
9.16725e-05
0.000436372
0.000814543
0.00119951
0.00159726
0.00200944
0.00243663
0.0028797
0.00333973
0.00381808
0.00431636
0.00483646
0.00538056
0.00595105
0.0065505
0.00718141
0.00784614
0.0085469
0.00928604
0.0100666
0.0108927
0.0117709
0.0127105
0.0137254
0.0148336
0.0160558
0.0174134
0.0189236
0.0205986
0.0224698
0.0247098
0.0273061
0.0300151
0.0326931
0.0351606
0.0371602
0.0384267
0.038758
0.0381289
0.0367724
0.0351643
0.033858
0.033205
0.0330777
0.0327367
0.0309562
0.0264072
0.0181136
0.00593255
-0.00901848
8.82819e-05
0.000420508
0.000785795
0.00115736
0.00154092
0.00193804
0.00234921
0.00277523
0.00321712
0.00367617
0.00415394
0.00465227
0.00517332
0.00571949
0.00629326
0.00689704
0.00753297
0.00820297
0.00890897
0.00965337
0.0104396
0.0112728
0.0121613
0.0131177
0.014159
0.015305
0.016575
0.0179853
0.0195473
0.0212832
0.0233589
0.0257727
0.028297
0.0308134
0.0331611
0.0351075
0.0364099
0.0368767
0.0364622
0.0353428
0.0339197
0.03269
0.0320046
0.0318014
0.0314358
0.0297274
0.0253111
0.0171947
0.00531718
-0.0091275
8.5221e-05
0.00040533
0.000758125
0.00111669
0.00148645
0.00186888
0.00226439
0.0026737
0.00309772
0.00353767
0.00399504
0.00447162
0.00496952
0.00549112
0.00603883
0.00661494
0.00722139
0.00785985
0.00853183
0.00923911
0.00998419
0.0107711
0.0116067
0.0125023
0.0134738
0.0145394
0.0157168
0.0170207
0.0184614
0.0200525
0.0219496
0.024157
0.0264644
0.0287776
0.0309568
0.0327977
0.0340828
0.0346318
0.0343813
0.0334577
0.0321936
0.0310282
0.0302972
0.0299835
0.0295314
0.0278358
0.0235445
0.0156739
0.00424021
-0.00950645
8.24119e-05
0.000390866
0.000731672
0.00107775
0.00143423
0.00180248
0.00218284
0.00257592
0.00298255
0.00340382
0.00384115
0.00429626
0.00477122
0.00526833
0.00578994
0.00633821
0.00691494
0.00752151
0.00815908
0.00882883
0.00953232
0.0102723
0.0110543
0.0118881
0.012788
0.0137709
0.0148526
0.0160459
0.0173602
0.0188004
0.0205094
0.0224936
0.0245603
0.0266369
0.0286041
0.0302866
0.0314922
0.0320529
0.031892
0.0310938
0.0299307
0.0287873
0.0279756
0.0275075
0.0269067
0.0251675
0.0209993
0.0134567
0.00262467
-0.0102189
7.97582e-05
0.000377104
0.000706514
0.00104072
0.00138455
0.00173926
0.00210512
0.00248263
0.00287252
0.00327576
0.00369367
0.00412788
0.00458038
0.00505339
0.0055492
0.00606985
0.00661697
0.00719176
0.00779502
0.00842736
0.00908941
0.00978268
0.0105112
0.0112831
0.0121113
0.0130108
0.0139953
0.015076
0.0162607
0.0175469
0.0190622
0.0208118
0.02262
0.0244323
0.0261476
0.0276171
0.0286725
0.0291584
0.0289894
0.0282169
0.0270643
0.0258695
0.0249194
0.0242446
0.0234393
0.0216127
0.0175786
0.0104605
0.000404338
-0.0113192
7.70971e-05
0.000363985
0.00068272
0.00100575
0.00133766
0.0016796
0.00203175
0.00239452
0.0027685
0.00315455
0.00355387
0.00396798
0.00439878
0.0048484
0.00531902
0.00581261
0.00633066
0.00687417
0.00744367
0.00803923
0.0086606
0.00930802
0.009984
0.0106951
0.0114524
0.012269
0.0131565
0.0141243
0.0151786
0.0163095
0.0176283
0.0191355
0.0206717
0.0221957
0.0236214
0.0248216
0.0256482
0.0259574
0.0256597
0.0247845
0.0235188
0.0221652
0.0209972
0.0200616
0.019013
0.0170753
0.0132056
0.00662647
-0.00246699
-0.0128461
7.43161e-05
0.000351453
0.000660292
0.000972945
0.00129377
0.00162383
0.00196321
0.0023122
0.00267127
0.00304117
0.00342293
0.00381799
0.00422809
0.00465529
0.00510167
0.00556908
0.00605893
0.00657207
0.0071088
0.00766871
0.0082507
0.00885378
0.00947897
0.0101311
0.0108194
0.0115549
0.0123471
0.0132033
0.0141277
0.015104
0.0162254
0.0174853
0.0187383
0.0199528
0.0210517
0.0219239
0.0224353
0.0224516
0.0218831
0.0207475
0.0192125
0.0175646
0.01608
0.0148296
0.0135221
0.0114897
0.00784119
0.00193081
-0.00600233
-0.0148188
7.1397e-05
0.000339312
0.000639045
0.000942194
0.00125288
0.00157208
0.00189977
0.00223613
0.0025815
0.00293646
0.00330194
0.00367918
0.00406985
0.00447586
0.0048992
0.00534163
0.00580447
0.0062885
0.00679384
0.00731965
0.00786406
0.00842491
0.00900172
0.00959762
0.0102197
0.0108769
0.0115767
0.012324
0.0131209
0.0139445
0.0148694
0.0158788
0.0168397
0.0177243
0.0184595
0.0189422
0.0190448
0.0186384
0.0176368
0.0160579
0.0140715
0.0119743
0.010062
0.00844443
0.00688561
0.00482489
0.00149989
-0.00359399
-0.0101732
-0.0172266
6.71678e-05
0.000326423
0.000618427
0.000913257
0.00121494
0.00152446
0.00184172
0.00216675
0.00249976
0.0028412
0.00319181
0.00355271
0.0039254
0.00431169
0.00471346
0.00513236
0.00556968
0.00602615
0.0065018
0.00699545
0.00750453
0.00802579
0.00855727
0.0091003
0.00965982
0.0102426
0.0108539
0.0114964
0.0121696
0.0128441
0.0135751
0.014333
0.0149941
0.0155297
0.0158637
0.0158922
0.0154853
0.0145151
0.0129018
0.0106797
0.0080468
0.00533564
0.00288176
0.000857128
-0.000918845
-0.00289929
-0.0057448
-0.00984763
-0.0148872
-0.0199995
5.89829e-05
0.000311113
0.00059764
0.00088565
0.00117971
0.00148099
0.00178924
0.00210439
0.00242655
0.00275602
0.00309336
0.00343954
0.00379591
0.00416414
0.00454602
0.0049431
0.00535663
0.00578737
0.00623532
0.00669906
0.00717542
0.00766017
0.00814995
0.00864422
0.00914569
0.00965882
0.0101867
0.0107296
0.0112842
0.0118149
0.0123564
0.0128637
0.0132194
0.0133882
0.0132834
0.0127906
0.0117685
0.0100847
0.00767252
0.00460309
0.00112883
-0.00234963
-0.00544486
-0.00788701
-0.00981654
-0.0115712
-0.0137454
-0.0166547
-0.01997
-0.0230026
4.6605e-05
0.00029435
0.000577358
0.000859791
0.00114756
0.00144196
0.00174262
0.00204938
0.00236226
0.00268139
0.00300718
0.0033404
0.00368227
0.00403433
0.0043982
0.00477539
0.00516712
0.0055742
0.00599667
0.00643298
0.00687952
0.00733121
0.0077834
0.00823367
0.00868234
0.00913145
0.00958185
0.0100316
0.0104742
0.0108679
0.0112267
0.011487
0.0115344
0.0113207
0.0107406
0.00965854
0.00791334
0.00536444
0.00197033
-0.00213741
-0.00662407
-0.010995
-0.0147803
-0.0176903
-0.0195993
-0.0209543
-0.0222451
-0.0237506
-0.0251774
-0.0260486
3.44051e-05
0.000280067
0.000560024
0.000837589
0.00112004
0.00140861
0.00170282
0.00200249
0.0023075
0.00261786
0.00293379
0.00325589
0.0035852
0.00392308
0.00427105
0.00463049
0.00500261
0.00538833
0.00578777
0.00619935
0.00661917
0.00704151
0.00746057
0.00787212
0.00827402
0.00866568
0.00904568
0.00940972
0.00974834
0.0100135
0.0101985
0.010219
0.00995884
0.00935084
0.00826174
0.00652551
0.00395244
0.000397333
-0.00414037
-0.0094379
-0.0150533
-0.0203699
-0.0248244
-0.0280268
-0.0298749
-0.0306604
-0.0308603
-0.0307754
-0.0301947
-0.0289089
2.73019e-05
0.000271281
0.000547514
0.000820599
0.00109841
0.00138194
0.00167067
0.00196435
0.00226279
0.00256585
0.00287358
0.00318639
0.00350512
0.00383095
0.00416523
0.00450925
0.00486419
0.00523105
0.0056101
0.00599983
0.00639621
0.00679309
0.00718373
0.00756223
0.00792401
0.00826573
0.00858349
0.0088706
0.00911458
0.00926168
0.00928458
0.00907604
0.00851399
0.00750543
0.00587983
0.00343253
-5.96148e-05
-0.00473603
-0.0105324
-0.0171029
-0.0238681
-0.0300966
-0.0351382
-0.0385225
-0.0401201
-0.0401471
-0.0390823
-0.0372745
-0.0346435
-0.031339
2.65798e-05
0.000268101
0.000539992
0.000808979
0.0010827
0.00136189
0.00164602
0.00193481
0.00222795
0.00252518
0.00282638
0.00313177
0.00344197
0.00375798
0.00408095
0.00441206
0.00475243
0.00510315
0.00546465
0.00583559
0.00621198
0.00658742
0.0069545
0.00730588
0.00763466
0.00793472
0.00819951
0.0084198
0.00858013
0.00862155
0.00849703
0.0080749
0.00722269
0.00581522
0.00363603
0.000435257
-0.00403985
-0.00990539
-0.0169989
-0.0248231
-0.0326424
-0.0396405
-0.0450974
-0.048496
-0.049647
-0.0487517
-0.0463066
-0.0427227
-0.0381343
-0.0330917
3.07987e-05
0.000269262
0.000536774
0.000802205
0.00107244
0.00134804
0.00162845
0.00191339
0.00220247
0.00249532
0.00279167
0.00309152
0.0033953
0.00370379
0.00401796
0.0043388
0.00466741
0.00500489
0.00535186
0.00570725
0.00606724
0.0064254
0.00677388
0.0071042
0.00740742
0.00767472
0.00789679
0.0080617
0.00815107
0.00810142
0.00784743
0.00723223
0.0061089
0.00431445
0.00158011
-0.00239289
-0.00787224
-0.014923
-0.0232461
-0.0321704
-0.0408252
-0.0483365
-0.0539575
-0.0571467
-0.0576796
-0.0557555
-0.0518955
-0.0466025
-0.0403088
-0.0339389
3.81719e-05
0.000273366
0.000536839
0.000799391
0.00106689
0.00133971
0.00161735
0.00189952
0.00218579
0.00247569
0.00276882
0.003065
0.00336444
0.00366773
0.00397564
0.00428899
0.00460874
0.00493604
0.00527168
0.00561489
0.00596218
0.00630731
0.00664222
0.00695762
0.00724289
0.00748674
0.00767713
0.00779935
0.00783209
0.00770826
0.00734618
0.00656396
0.00519681
0.00303992
-0.000230218
-0.00496025
-0.0114071
-0.0195463
-0.0289066
-0.038642
-0.0477888
-0.0554688
-0.0609535
-0.0637034
-0.0634843
-0.0604918
-0.0552776
-0.0484906
-0.0408868
-0.033718
4.67543e-05
0.00027864
0.000538765
0.000799245
0.00106482
0.00133577
0.00161167
0.00189221
0.00217696
0.00246538
0.00275693
0.00305128
0.00334847
0.00364888
0.00395309
0.00426173
0.00457563
0.00489589
0.00522348
0.00555799
0.00589638
0.00623277
0.00655918
0.00686581
0.00714077
0.00737072
0.00754107
0.0076343
0.0076263
0.00744736
0.00700197
0.00608439
0.00450969
0.0020294
-0.00173177
-0.00715883
-0.0144675
-0.0234941
-0.0335751
-0.043715
-0.052923
-0.0603847
-0.065433
-0.067546
-0.0664895
-0.0624638
-0.0560706
-0.0481361
-0.039735
-0.032368
5.41011e-05
0.000283051
0.000541039
0.000800417
0.00106499
0.00133504
0.00161023
0.00189031
0.00217484
0.00246323
0.00275483
0.00304918
0.00334615
0.00364596
0.00394902
0.00425577
0.00456685
0.00488328
0.00520617
0.00553549
0.00586878
0.00620071
0.00652362
0.00682756
0.00709981
0.00732546
0.00748773
0.00756645
0.00753487
0.0073219
0.00682113
0.00580531
0.00406842
0.00131946
-0.00286055
-0.00887228
-0.0168613
-0.0264797
-0.0368643
-0.04693
-0.055747
-0.0626228
-0.0669736
-0.0683117
-0.0664045
-0.0614663
-0.0541694
-0.0455323
-0.0369102
-0.0299488
5.82415e-05
0.000285275
0.00054266
0.000801949
0.00106646
0.0013366
0.00161215
0.00189289
0.00217842
0.00246814
0.00276133
0.00305739
0.00335609
0.0036575
0.00396187
0.00426946
0.00458072
0.00489655
0.00521811
0.00554578
0.00587773
0.00620937
0.00653362
0.00684076
0.00711767
0.00734844
0.00751462
0.00759377
0.0075567
0.00733237
0.00680693
0.00573485
0.00388986
0.000942737
-0.00355682
-0.00999387
-0.0184068
-0.0282444
-0.0384693
-0.0479872
-0.0560089
-0.0620049
-0.0654865
-0.0659937
-0.0633013
-0.0576472
-0.049791
-0.0409387
-0.0326606
-0.0266361
5.87991e-05
0.000285297
0.000543433
0.000803471
0.00106876
0.0013399
0.00161675
0.00189917
0.00218682
0.0024791
0.00277525
0.00307461
0.00337682
0.00368186
0.00398985
0.00430089
0.00461524
0.00493361
0.00525722
0.00558674
0.00592102
0.00625636
0.00658655
0.0069024
0.00719094
0.00743582
0.00761759
0.00771205
0.00768803
0.00747608
0.00695866
0.00587622
0.00398491
0.000925072
-0.00376748
-0.0104316
-0.0189631
-0.0286137
-0.0382331
-0.0468054
-0.0537414
-0.0586873
-0.06124
-0.0609563
-0.0576181
-0.0514977
-0.0434498
-0.0348437
-0.0273843
-0.0226931
5.68091e-05
0.000283983
0.000543727
0.000805093
0.00107182
0.00134467
0.00162358
0.00190853
0.00219923
0.00249511
0.00279542
0.00309944
0.00340676
0.00371726
0.00403098
0.00434788
0.00466803
0.00499199
0.0053209
0.00565572
0.00599592
0.00633877
0.00667913
0.00700875
0.00731527
0.00758254
0.00779083
0.00791492
0.00792223
0.00774663
0.00727088
0.00622646
0.00435636
0.00128122
-0.00345641
-0.0101219
-0.0184524
-0.0275339
-0.0361851
-0.0435462
-0.0492595
-0.0531303
-0.0548138
-0.053867
-0.0500775
-0.0437592
-0.0358604
-0.0278725
-0.021559
-0.018426
5.36468e-05
0.000282241
0.000544004
0.000807065
0.00107568
0.00135077
0.00163234
0.00192044
0.00221489
0.0025152
0.00282064
0.00313048
0.00344427
0.00376182
0.00408311
0.00440802
0.00473646
0.00506881
0.00540613
0.00574956
0.00609915
0.00645313
0.00680758
0.00715548
0.00748556
0.0077825
0.0080271
0.00819397
0.00824985
0.00813381
0.00773294
0.00677536
0.0049968
0.00201067
-0.00261329
-0.00904807
-0.0168793
-0.0250835
-0.0325318
-0.0385771
-0.0430908
-0.0459994
-0.0469741
-0.0455568
-0.0415382
-0.035276
-0.0277981
-0.0206727
-0.0156608
-0.0141354
5.02338e-05
0.000280581
0.000544526
0.000809519
0.00108034
0.00135803
0.00164265
0.00193437
0.00223309
0.00253842
0.00284972
0.00316628
0.00348763
0.00381356
0.004144
0.00447875
0.00481764
0.00516088
0.00550945
0.00586462
0.00622689
0.00659541
0.00696751
0.00733766
0.00769607
0.00802885
0.00831806
0.00853913
0.00865898
0.00862377
0.00832889
0.00750502
0.00588732
0.00309465
-0.00125889
-0.00724779
-0.0143354
-0.0214589
-0.0276154
-0.032395
-0.0358649
-0.0380239
-0.0385185
-0.0368577
-0.0328317
-0.0268378
-0.0199623
-0.0138071
-0.0100929
-0.0100724
4.69453e-05
0.000279159
0.00054536
0.000812435
0.00108566
0.00136618
0.00165413
0.00194975
0.00225308
0.00256383
0.00288147
0.00320538
0.00353512
0.00387045
0.00421129
0.0045574
0.00490853
0.0052648
0.00562711
0.00599681
0.0063748
0.00676099
0.00715396
0.00754978
0.00794048
0.00831403
0.00865452
0.00893908
0.00913579
0.00919964
0.00903805
0.00839017
0.00699726
0.0044952
0.000553577
-0.00481147
-0.0109864
-0.0169399
-0.0218474
-0.0255296
-0.0281979
-0.0298705
-0.0301388
-0.0284629
-0.0246274
-0.0190593
-0.0128779
-0.00768383
-0.00513931
-0.00640949
4.38765e-05
0.000277987
0.000546474
0.000815714
0.00109145
0.00137494
0.00166636
0.00196604
0.00227413
0.00259048
0.00291473
0.00324637
0.00358502
0.00393049
0.00428264
0.00464127
0.00500607
0.00537711
0.00575522
0.00614182
0.00653816
0.00694481
0.00736145
0.0077858
0.00821192
0.00862999
0.00902667
0.00938166
0.0096651
0.00984229
0.009836
0.0093993
0.00828551
0.00615666
0.0027419
-0.00187221
-0.00704669
-0.0118436
-0.0156406
-0.0184594
-0.0206016
-0.0220523
-0.0223314
-0.0208425
-0.0173578
-0.0123187
-0.00685119
-0.00252756
-0.000947705
-0.00322766
4.1043e-05
0.000277023
0.000547776
0.000819202
0.0010975
0.001384
0.00167894
0.00198271
0.00229556
0.00261753
0.00294842
0.00328792
0.00363573
0.00399172
0.00435578
0.00472771
0.00510721
0.00549432
0.00588984
0.00629526
0.0067121
0.0071415
0.00758413
0.00803926
0.00850307
0.00896822
0.00942428
0.00985419
0.010231
0.0105312
0.0106958
0.0104964
0.00970294
0.00800963
0.00520211
0.00141065
-0.00275015
-0.00647942
-0.0093557
-0.011557
-0.0134238
-0.014882
-0.0153666
-0.0142243
-0.0112085
-0.00675676
-0.00197614
0.00160948
0.0024611
-0.000522461
3.83834e-05
0.000276135
0.000549097
0.000822684
0.00110351
0.00139302
0.00169143
0.00199921
0.00231671
0.00264416
0.00298156
0.0033288
0.00368575
0.00405233
0.00442852
0.00481414
0.00520897
0.00561302
0.0060271
0.00645274
0.0068917
0.00734559
0.00781594
0.00830345
0.0088064
0.00931999
0.00983694
0.0103439
0.0108173
0.0112456
0.0115896
0.0116431
0.0111957
0.00997647
0.00781889
0.00486958
0.00167704
-0.00111686
-0.00327182
-0.00507338
-0.00686031
-0.00848853
-0.00931194
-0.00862532
-0.00615606
-0.00231826
0.001824
0.00481176
0.0051653
0.00177487
3.57081e-05
0.0002751
0.000550212
0.000825895
0.00110918
0.00140159
0.00170335
0.00201496
0.0023369
0.00266955
0.00301319
0.00336789
0.00373369
0.00411064
0.0044988
0.00489813
0.00530847
0.00572991
0.00616322
0.00660997
0.00707211
0.00755167
0.00805087
0.00857167
0.00911435
0.00967662
0.0102544
0.0108381
0.0114084
0.0119649
0.0124897
0.0128012
0.0127092
0.0119776
0.0104768
0.00834495
0.0060366
0.00403142
0.00241941
0.000852862
-0.00097797
-0.00286156
-0.00408968
-0.0039152
-0.00203326
0.00118458
0.00473968
0.00725296
0.00730522
0.00376799
3.27971e-05
0.000273727
0.000550927
0.000828587
0.00111419
0.00140931
0.0017142
0.00202937
0.00235542
0.00269293
0.00304239
0.00340411
0.00377829
0.00416512
0.00456478
0.00497743
0.00540307
0.00584187
0.00629461
0.00676286
0.00724871
0.00775452
0.00828309
0.00883745
0.00941966
0.0100298
0.0106669
0.0113252
0.0119896
0.0126702
0.0133705
0.0139346
0.0141917
0.0139379
0.0130699
0.0116976
0.0101694
0.00881296
0.00760348
0.00616943
0.00424384
0.00209142
0.000456455
0.000112484
0.00139969
0.00400567
0.00701686
0.00914853
0.00904709
0.00556746
2.96724e-05
0.000272082
0.000551214
0.000830632
0.00111829
0.00141585
0.00172352
0.00204188
0.00237164
0.00271356
0.00306835
0.00343652
0.00381843
0.00421443
0.00462488
0.00505013
0.00549044
0.00594612
0.00641798
0.00690759
0.00741713
0.00794922
0.00850712
0.00909469
0.00971551
0.0103718
0.0110654
0.0117945
0.0125477
0.0133447
0.0142095
0.0150118
0.015598
0.0157924
0.0155085
0.0148168
0.013959
0.0131299
0.0122244
0.0108764
0.00886617
0.00649055
0.00450043
0.00367636
0.00439238
0.00640702
0.0089074
0.0107161
0.010554
0.00727124
2.66886e-05
0.000270447
0.000551149
0.000831966
0.00112132
0.0014209
0.00173092
0.00205202
0.002385
0.0027308
0.00309031
0.00346424
0.00385313
0.00425745
0.00467775
0.00511464
0.00556865
0.00604031
0.00653049
0.00704078
0.00757343
0.00813127
0.00871787
0.00933775
0.00999568
0.0106958
0.0114422
0.0122367
0.0130717
0.0139743
0.0149883
0.0160073
0.0168915
0.0174896
0.0177244
0.0176232
0.0173295
0.016929
0.0162662
0.0150001
0.0129568
0.0104439
0.00818985
0.00696072
0.00715769
0.00861536
0.0106321
0.0121473
0.0119677
0.00895664
2.45733e-05
0.000269231
0.000550799
0.00083248
0.00112302
0.00142412
0.00173598
0.00205928
0.00239493
0.002744
0.00310756
0.00348649
0.00388147
0.00429314
0.00472225
0.00516963
0.00563612
0.00612249
0.00662978
0.00715958
0.00771422
0.00829669
0.00891084
0.00956158
0.0102546
0.0109955
0.0117904
0.012644
0.0135526
0.0145483
0.0156929
0.0169021
0.018046
0.0189936
0.0196722
0.0200682
0.0202411
0.0201918
0.0197379
0.0185753
0.0165717
0.0140271
0.0116232
0.0100902
0.00984495
0.0107963
0.0123572
0.013591
0.0133995
0.0106815
2.30321e-05
0.000268042
0.000549884
0.000831965
0.00112319
0.00142521
0.0017383
0.0020632
0.00240091
0.00275259
0.00311944
0.0035025
0.00390262
0.0043206
0.00475736
0.00521398
0.00569156
0.00619115
0.00671397
0.0072617
0.00783673
0.00844222
0.00908219
0.00976185
0.0104875
0.0112657
0.0121044
0.0130104
0.0139833
0.0150588
0.0163141
0.0176843
0.0190456
0.020284
0.0213287
0.0221312
0.0226838
0.0229256
0.0226643
0.0216378
0.0197498
0.0172802
0.0148464
0.0131248
0.012533
0.0130461
0.014188
0.0151465
0.0149279
0.012486
2.2807e-05
0.000265704
0.000546495
0.000828644
0.0011202
0.00142277
0.00173672
0.00206284
0.00240214
0.00275585
0.00312527
0.00351159
0.00391585
0.00433903
0.00478224
0.00524677
0.00573396
0.00624512
0.00678168
0.00734545
0.00793891
0.00856536
0.00922899
0.00993515
0.0106905
0.0115023
0.0123796
0.0133312
0.0143592
0.0155008
0.0168466
0.0183482
0.019884
0.0213545
0.0226897
0.0238146
0.0246715
0.0251571
0.0250808
0.0242226
0.0225166
0.020216
0.0178642
0.0160706
0.015239
0.0153968
0.0161693
0.0168656
0.0166011
0.0143969