/*--------------------------------*- C++ -*----------------------------------*\
  =========                 |
  \\      /  F ield         | OpenFOAM: The Open Source CFD Toolbox
   \\    /   O peration     | Website:  https://openfoam.org
    \\  /    A nd           | Version:  9
     \\/     M anipulation  |
\*---------------------------------------------------------------------------*/
FoamFile
{
    format      ascii;
    class       surfaceScalarField;
    location    "0.07";
    object      phi;
}
// * * * * * * * * * * * * * * * * * * * * * * * * * * * * * * * * * * * * * //

dimensions      [0 3 -1 0 0 0 0];

internalField   nonuniform List<scalar> 
9850
(
-5.1842e-07
2.136e-06
-5.18487e-07
2.23531e-06
-5.18594e-07
2.3403e-06
-5.1875e-07
2.4508e-06
-5.18964e-07
2.56644e-06
-5.19242e-07
2.68727e-06
-5.19594e-07
2.81344e-06
-5.20026e-07
2.94515e-06
-5.20548e-07
3.0826e-06
-5.21167e-07
3.22598e-06
-5.21891e-07
3.37547e-06
-5.22729e-07
3.53125e-06
-5.23688e-07
3.69349e-06
-5.24771e-07
3.86234e-06
-5.25983e-07
4.03794e-06
-5.27322e-07
4.2204e-06
-5.2878e-07
4.4098e-06
-5.30342e-07
4.60617e-06
-5.31981e-07
4.80952e-06
-5.33654e-07
5.01977e-06
-5.35293e-07
5.23678e-06
-5.36796e-07
5.46033e-06
-5.38016e-07
5.69008e-06
-5.38734e-07
5.92557e-06
-5.38633e-07
6.16619e-06
-5.37232e-07
6.41113e-06
-5.33764e-07
6.65919e-06
-5.26924e-07
6.9084e-06
-5.14479e-07
7.15517e-06
-4.92882e-07
7.39351e-06
-4.50323e-07
8.8707e-06
-3.8736e-07
8.65354e-06
-3.08246e-07
8.43524e-06
-2.28052e-07
8.26779e-06
-1.69627e-07
8.21844e-06
-1.54243e-07
8.33935e-06
-1.92571e-07
8.64194e-06
-2.8273e-07
9.09651e-06
-4.14702e-07
9.65368e-06
-5.75774e-07
1.02691e-05
-7.52316e-07
1.09166e-05
-9.26541e-07
1.15832e-05
-1.07184e-06
1.2248e-05
-1.1552e-06
1.28575e-05
-1.15346e-06
1.33183e-05
-1.0761e-06
1.35345e-05
-9.72139e-07
1.34925e-05
-9.04315e-07
1.33345e-05
-9.04887e-07
1.33031e-05
1.35276e-05
-5.17992e-07
2.13608e-06
-5.18111e-07
2.23543e-06
-5.18274e-07
2.34046e-06
-5.18492e-07
2.45101e-06
-5.18772e-07
2.56672e-06
-5.19123e-07
2.68762e-06
-5.19553e-07
2.81387e-06
-5.20073e-07
2.94567e-06
-5.2069e-07
3.08322e-06
-5.21415e-07
3.22671e-06
-5.22258e-07
3.37631e-06
-5.23227e-07
3.53222e-06
-5.24334e-07
3.6946e-06
-5.25584e-07
3.86359e-06
-5.26985e-07
4.03934e-06
-5.2854e-07
4.22195e-06
-5.30247e-07
4.4115e-06
-5.32098e-07
4.60802e-06
-5.34073e-07
4.8115e-06
-5.36142e-07
5.02184e-06
-5.38249e-07
5.23889e-06
-5.40311e-07
5.46239e-06
-5.42202e-07
5.69197e-06
-5.43733e-07
5.9271e-06
-5.4462e-07
6.16708e-06
-5.4442e-07
6.41093e-06
-5.42394e-07
6.65716e-06
-5.37243e-07
6.90324e-06
-5.26726e-07
7.14465e-06
-5.07402e-07
7.37418e-06
-4.68699e-07
8.832e-06
-4.12712e-07
8.59755e-06
-3.47061e-07
8.36959e-06
-2.90049e-07
8.21078e-06
-2.64962e-07
8.19335e-06
-2.89361e-07
8.36375e-06
-3.67747e-07
8.72033e-06
-4.9247e-07
9.22123e-06
-6.49506e-07
9.81072e-06
-8.23254e-07
1.04429e-05
-9.96983e-07
1.10903e-05
-1.1498e-06
1.1736e-05
-1.25485e-06
1.23531e-05
-1.28529e-06
1.28879e-05
-1.23022e-06
1.32632e-05
-1.11164e-06
1.34159e-05
-9.84263e-07
1.33651e-05
-9.07411e-07
1.32576e-05
-9.04294e-07
1.33e-05
1.35692e-05
-5.17352e-07
2.13622e-06
-5.17531e-07
2.23561e-06
-5.1776e-07
2.34069e-06
-5.1805e-07
2.4513e-06
-5.18408e-07
2.56708e-06
-5.18845e-07
2.68806e-06
-5.1937e-07
2.81439e-06
-5.19994e-07
2.9463e-06
-5.20726e-07
3.08395e-06
-5.2158e-07
3.22756e-06
-5.22566e-07
3.3773e-06
-5.23698e-07
3.53335e-06
-5.24987e-07
3.69589e-06
-5.26446e-07
3.86505e-06
-5.28086e-07
4.04098e-06
-5.29915e-07
4.22378e-06
-5.3194e-07
4.41353e-06
-5.34163e-07
4.61024e-06
-5.36575e-07
4.81391e-06
-5.39161e-07
5.02442e-06
-5.41886e-07
5.24162e-06
-5.44692e-07
5.4652e-06
-5.47483e-07
5.69476e-06
-5.50113e-07
5.92973e-06
-5.5235e-07
6.16931e-06
-5.5381e-07
6.41239e-06
-5.53811e-07
6.65716e-06
-5.5111e-07
6.90054e-06
-5.43561e-07
7.1371e-06
-5.28041e-07
7.35866e-06
-4.96062e-07
8.80002e-06
-4.51427e-07
8.55292e-06
-4.05051e-07
8.32321e-06
-3.77276e-07
8.18301e-06
-3.89788e-07
8.20587e-06
-4.54866e-07
8.42883e-06
-5.70647e-07
8.83611e-06
-7.24484e-07
9.37507e-06
-8.99056e-07
9.98529e-06
-1.0761e-06
1.06199e-05
-1.2361e-06
1.12503e-05
-1.35652e-06
1.18564e-05
-1.41294e-06
1.24095e-05
-1.38718e-06
1.28621e-05
-1.28121e-06
1.31572e-05
-1.12784e-06
1.32625e-05
-9.84561e-07
1.32219e-05
-9.04551e-07
1.31776e-05
-9.00856e-07
1.32963e-05
1.36059e-05
-5.16481e-07
2.13642e-06
-5.16726e-07
2.23586e-06
-5.17028e-07
2.34099e-06
-5.17398e-07
2.45167e-06
-5.17845e-07
2.56753e-06
-5.18379e-07
2.68859e-06
-5.1901e-07
2.81503e-06
-5.19752e-07
2.94704e-06
-5.20616e-07
3.08482e-06
-5.21617e-07
3.22856e-06
-5.22769e-07
3.37845e-06
-5.24087e-07
3.53467e-06
-5.25589e-07
3.69739e-06
-5.2729e-07
3.86675e-06
-5.29209e-07
4.0429e-06
-5.31361e-07
4.22594e-06
-5.33763e-07
4.41593e-06
-5.36427e-07
4.61291e-06
-5.39361e-07
4.81684e-06
-5.42568e-07
5.02763e-06
-5.46037e-07
5.24508e-06
-5.49741e-07
5.4689e-06
-5.53626e-07
5.69865e-06
-5.576e-07
5.9337e-06
-5.61495e-07
6.17321e-06
-5.65008e-07
6.4159e-06
-5.67545e-07
6.6597e-06
-5.67978e-07
6.90098e-06
-5.64383e-07
7.13351e-06
-5.54196e-07
7.34848e-06
-5.31834e-07
8.77766e-06
-5.02733e-07
8.52382e-06
-4.80496e-07
8.30097e-06
-4.85833e-07
8.18834e-06
-5.36911e-07
8.25694e-06
-6.399e-07
8.53182e-06
-7.8713e-07
8.98334e-06
-9.61978e-07
9.54992e-06
-1.14455e-06
1.01679e-05
-1.31433e-06
1.07897e-05
-1.45005e-06
1.13861e-05
-1.52951e-06
1.19359e-05
-1.53325e-06
1.24132e-05
-1.4532e-06
1.27821e-05
-1.30336e-06
1.30074e-05
-1.12467e-06
1.30838e-05
-9.74228e-07
1.30714e-05
-8.96851e-07
1.31002e-05
-8.95154e-07
1.32946e-05
1.36381e-05
-5.15354e-07
2.13669e-06
-5.1567e-07
2.23617e-06
-5.16051e-07
2.34137e-06
-5.16507e-07
2.45213e-06
-5.17049e-07
2.56807e-06
-5.17687e-07
2.68923e-06
-5.18434e-07
2.81577e-06
-5.19305e-07
2.94791e-06
-5.20313e-07
3.08583e-06
-5.21474e-07
3.22972e-06
-5.22808e-07
3.37979e-06
-5.24332e-07
3.5362e-06
-5.26069e-07
3.69912e-06
-5.28039e-07
3.86872e-06
-5.30268e-07
4.04513e-06
-5.32781e-07
4.22845e-06
-5.35602e-07
4.41875e-06
-5.3876e-07
4.61607e-06
-5.4228e-07
4.82036e-06
-5.46185e-07
5.03154e-06
-5.50494e-07
5.24939e-06
-5.55215e-07
5.47363e-06
-5.60345e-07
5.70378e-06
-5.65851e-07
5.93921e-06
-5.71647e-07
6.17901e-06
-5.77524e-07
6.42178e-06
-5.83013e-07
6.66519e-06
-5.87166e-07
6.90513e-06
-5.88424e-07
7.13477e-06
-5.85013e-07
7.34507e-06
-5.74933e-07
8.76758e-06
-5.64828e-07
8.51371e-06
-5.69902e-07
8.30605e-06
-6.0938e-07
8.22782e-06
-6.96502e-07
8.34407e-06
-8.3134e-07
8.66666e-06
-1.00147e-06
9.15347e-06
-1.18742e-06
9.73586e-06
-1.36748e-06
1.03479e-05
-1.51973e-06
1.09419e-05
-1.62259e-06
1.14889e-05
-1.65638e-06
1.19697e-05
-1.60839e-06
1.23652e-05
-1.48077e-06
1.26545e-05
-1.2976e-06
1.28242e-05
-1.10464e-06
1.28909e-05
-9.55658e-07
1.29224e-05
-8.85738e-07
1.30303e-05
-8.87669e-07
1.32966e-05
1.3666e-05
-5.13943e-07
2.13701e-06
-5.14332e-07
2.23656e-06
-5.14794e-07
2.34184e-06
-5.1534e-07
2.45268e-06
-5.1598e-07
2.56871e-06
-5.16728e-07
2.68998e-06
-5.17597e-07
2.81664e-06
-5.18602e-07
2.94891e-06
-5.19761e-07
3.08698e-06
-5.21093e-07
3.23105e-06
-5.22619e-07
3.38131e-06
-5.24362e-07
3.53794e-06
-5.26347e-07
3.70111e-06
-5.28604e-07
3.87098e-06
-5.31163e-07
4.04769e-06
-5.34059e-07
4.23134e-06
-5.37329e-07
4.42202e-06
-5.41016e-07
4.61975e-06
-5.45163e-07
4.82451e-06
-5.49817e-07
5.03619e-06
-5.55029e-07
5.2546e-06
-5.60848e-07
5.47944e-06
-5.67322e-07
5.71025e-06
-5.74488e-07
5.94638e-06
-5.82348e-07
6.18687e-06
-5.90806e-07
6.43023e-06
-5.99548e-07
6.67393e-06
-6.07882e-07
6.91346e-06
-6.14747e-07
7.14163e-06
-6.19346e-07
7.34966e-06
-6.23673e-07
8.7719e-06
-6.34824e-07
8.52486e-06
-6.68193e-07
8.33941e-06
-7.39864e-07
8.29949e-06
-8.57464e-07
8.46167e-06
-1.01566e-06
8.82486e-06
-1.19857e-06
9.33638e-06
-1.385e-06
9.92229e-06
-1.55238e-06
1.05153e-05
-1.67858e-06
1.10681e-05
-1.74336e-06
1.15537e-05
-1.73128e-06
1.19576e-05
-1.63718e-06
1.22711e-05
-1.47237e-06
1.24897e-05
-1.26819e-06
1.26201e-05
-1.07197e-06
1.26947e-05
-9.31768e-07
1.27822e-05
-8.72548e-07
1.29711e-05
-8.78591e-07
1.33026e-05
1.36894e-05
-5.12212e-07
2.13741e-06
-5.12675e-07
2.23702e-06
-5.1322e-07
2.34238e-06
-5.13856e-07
2.45331e-06
-5.14596e-07
2.56945e-06
-5.15455e-07
2.69083e-06
-5.16447e-07
2.81763e-06
-5.1759e-07
2.95006e-06
-5.18904e-07
3.0883e-06
-5.20409e-07
3.23256e-06
-5.22131e-07
3.38303e-06
-5.24097e-07
3.5399e-06
-5.26337e-07
3.70335e-06
-5.28887e-07
3.87353e-06
-5.31784e-07
4.05059e-06
-5.35074e-07
4.23463e-06
-5.38805e-07
4.42575e-06
-5.43035e-07
4.62398e-06
-5.47827e-07
4.8293e-06
-5.53253e-07
5.04162e-06
-5.59396e-07
5.26075e-06
-5.66348e-07
5.4864e-06
-5.74212e-07
5.71812e-06
-5.83098e-07
5.95526e-06
-5.93102e-07
6.19687e-06
-6.04253e-07
6.44139e-06
-6.16423e-07
6.6861e-06
-6.29244e-07
6.92628e-06
-6.42262e-07
7.15465e-06
-6.55756e-07
7.36316e-06
-6.75792e-07
8.79194e-06
-7.08921e-07
8.55799e-06
-7.69278e-07
8.39977e-06
-8.68621e-07
8.39884e-06
-1.009e-06
8.60204e-06
-1.18077e-06
8.99663e-06
-1.36596e-06
9.52157e-06
-1.5428e-06
1.00991e-05
-1.68895e-06
1.06615e-05
-1.78344e-06
1.11626e-05
-1.80884e-06
1.15791e-05
-1.755e-06
1.19038e-05
-1.62396e-06
1.21401e-05
-1.43426e-06
1.23e-05
-1.22145e-06
1.24072e-05
-1.0315e-06
1.25047e-05
-9.05294e-07
1.2656e-05
-8.58168e-07
1.2924e-05
-8.67717e-07
1.33122e-05
1.37075e-05
-5.10127e-07
2.13787e-06
-5.10663e-07
2.23756e-06
-5.11288e-07
2.34301e-06
-5.12013e-07
2.45404e-06
-5.12852e-07
2.57029e-06
-5.1382e-07
2.6918e-06
-5.14934e-07
2.81875e-06
-5.16214e-07
2.95133e-06
-5.1768e-07
3.08976e-06
-5.19357e-07
3.23424e-06
-5.21273e-07
3.38495e-06
-5.23459e-07
3.54209e-06
-5.25951e-07
3.70584e-06
-5.2879e-07
3.87637e-06
-5.32022e-07
4.05382e-06
-5.35701e-07
4.23831e-06
-5.39888e-07
4.42994e-06
-5.44655e-07
4.62875e-06
-5.50086e-07
4.83473e-06
-5.56276e-07
5.04781e-06
-5.63342e-07
5.26781e-06
-5.71418e-07
5.49447e-06
-5.80662e-07
5.72736e-06
-5.91258e-07
5.96586e-06
-6.03397e-07
6.20901e-06
-6.17243e-07
6.45523e-06
-6.32878e-07
6.70174e-06
-6.5031e-07
6.94372e-06
-6.69758e-07
7.1741e-06
-6.9256e-07
7.38596e-06
-7.28589e-07
8.82797e-06
-7.82799e-07
8.6122e-06
-8.66834e-07
8.48381e-06
-9.87548e-07
8.51955e-06
-1.14197e-06
8.75647e-06
-1.31745e-06
9.17211e-06
-1.49517e-06
9.69929e-06
-1.65395e-06
1.02579e-05
-1.7729e-06
1.07804e-05
-1.83338e-06
1.12231e-05
-1.82189e-06
1.15676e-05
-1.7337e-06
1.18156e-05
-1.57687e-06
1.19833e-05
-1.37475e-06
1.20978e-05
-1.1642e-06
1.21967e-05
-9.87636e-07
1.23282e-05
-8.78229e-07
1.25466e-05
-8.4284e-07
1.28886e-05
-8.54461e-07
1.33238e-05
1.37196e-05
-5.07655e-07
2.13839e-06
-5.0826e-07
2.23817e-06
-5.08962e-07
2.34371e-06
-5.09773e-07
2.45485e-06
-5.10706e-07
2.57122e-06
-5.11779e-07
2.69287e-06
-5.13009e-07
2.81998e-06
-5.14418e-07
2.95274e-06
-5.1603e-07
3.09138e-06
-5.17871e-07
3.23608e-06
-5.19973e-07
3.38705e-06
-5.2237e-07
3.54449e-06
-5.25102e-07
3.70857e-06
-5.28217e-07
3.87948e-06
-5.31768e-07
4.05737e-06
-5.35818e-07
4.24236e-06
-5.40439e-07
4.43456e-06
-5.45718e-07
4.63403e-06
-5.51756e-07
4.84077e-06
-5.58674e-07
5.05472e-06
-5.66619e-07
5.27576e-06
-5.75765e-07
5.50362e-06
-5.86325e-07
5.73792e-06
-5.9855e-07
5.97808e-06
-6.12728e-07
6.22319e-06
-6.29159e-07
6.47166e-06
-6.48154e-07
6.72073e-06
-6.70118e-07
6.96568e-06
-6.95949e-07
7.19993e-06
-7.27926e-07
7.41794e-06
-7.79166e-07
8.87921e-06
-8.52117e-07
8.68515e-06
-9.55103e-07
8.58679e-06
-1.09005e-06
8.6545e-06
-1.24987e-06
8.91629e-06
-1.42008e-06
9.34232e-06
-1.58226e-06
9.86147e-06
-1.7169e-06
1.03925e-05
-1.80552e-06
1.0869e-05
-1.833e-06
1.12506e-05
-1.79006e-06
1.15247e-05
-1.67681e-06
1.17023e-05
-1.50568e-06
1.18121e-05
-1.30231e-06
1.18945e-05
-1.10247e-06
1.19969e-05
-9.43651e-07
1.21693e-05
-8.5155e-07
1.24545e-05
-8.26174e-07
1.28632e-05
-8.37968e-07
1.33356e-05
1.3725e-05
-5.04762e-07
2.13896e-06
-5.05432e-07
2.23884e-06
-5.06206e-07
2.34448e-06
-5.07095e-07
2.45574e-06
-5.08116e-07
2.57224e-06
-5.09285e-07
2.69404e-06
-5.10624e-07
2.82132e-06
-5.12153e-07
2.95427e-06
-5.13899e-07
3.09312e-06
-5.15892e-07
3.23807e-06
-5.18164e-07
3.38932e-06
-5.20754e-07
3.54708e-06
-5.23708e-07
3.71153e-06
-5.27076e-07
3.88285e-06
-5.30919e-07
4.06121e-06
-5.35308e-07
4.24675e-06
-5.40326e-07
4.43958e-06
-5.46072e-07
4.63977e-06
-5.52664e-07
4.84736e-06
-5.60247e-07
5.06231e-06
-5.68992e-07
5.2845e-06
-5.79114e-07
5.51374e-06
-5.90873e-07
5.74968e-06
-6.04583e-07
5.99179e-06
-6.20621e-07
6.23922e-06
-6.39422e-07
6.49047e-06
-6.61526e-07
6.74283e-06
-6.87733e-07
6.99189e-06
-7.19556e-07
7.23175e-06
-7.60017e-07
7.4584e-06
-8.24722e-07
8.94391e-06
-9.13004e-07
8.77344e-06
-1.02949e-06
8.70328e-06
-1.17161e-06
8.79661e-06
-1.3291e-06
9.07378e-06
-1.48676e-06
9.49999e-06
-1.62752e-06
1.00022e-05
-1.7345e-06
1.04995e-05
-1.79261e-06
1.09271e-05
-1.79059e-06
1.12486e-05
-1.72339e-06
1.14575e-05
-1.59489e-06
1.15738e-05
-1.41993e-06
1.16372e-05
-1.22423e-06
1.16988e-05
-1.04072e-06
1.18133e-05
-9.01391e-07
1.203e-05
-8.25269e-07
1.23784e-05
-8.07319e-07
1.28452e-05
-8.17301e-07
1.33455e-05
1.37233e-05
-5.01422e-07
2.13959e-06
-5.0215e-07
2.23956e-06
-5.02987e-07
2.34532e-06
-5.03948e-07
2.4567e-06
-5.05046e-07
2.57334e-06
-5.06302e-07
2.6953e-06
-5.07737e-07
2.82275e-06
-5.09373e-07
2.95591e-06
-5.11238e-07
3.09499e-06
-5.13364e-07
3.2402e-06
-5.15787e-07
3.39175e-06
-5.18548e-07
3.54984e-06
-5.21695e-07
3.71468e-06
-5.25285e-07
3.88644e-06
-5.29383e-07
4.06531e-06
-5.34068e-07
4.25144e-06
-5.39431e-07
4.44494e-06
-5.45583e-07
4.64593e-06
-5.52657e-07
4.85443e-06
-5.60815e-07
5.07046e-06
-5.70255e-07
5.29394e-06
-5.81221e-07
5.52471e-06
-5.94015e-07
5.76247e-06
-6.09008e-07
6.00679e-06
-6.26654e-07
6.25687e-06
-6.47515e-07
6.51133e-06
-6.72342e-07
6.76766e-06
-7.02293e-07
7.02184e-06
-7.39392e-07
7.26885e-06
-7.8715e-07
7.50615e-06
-8.62831e-07
9.01959e-06
-9.6242e-07
8.87303e-06
-1.0869e-06
8.82776e-06
-1.22988e-06
8.93959e-06
-1.37886e-06
9.22276e-06
-1.51876e-06
9.63989e-06
-1.63463e-06
1.01181e-05
-1.71291e-06
1.05778e-05
-1.74248e-06
1.09567e-05
-1.71612e-06
1.12222e-05
-1.63242e-06
1.13738e-05
-1.49778e-06
1.14392e-05
-1.32762e-06
1.1467e-05
-1.14593e-06
1.15171e-05
-9.81691e-07
1.16491e-05
-8.61436e-07
1.19098e-05
-7.98724e-07
1.23157e-05
-7.85248e-07
1.28318e-05
-7.91645e-07
1.33519e-05
1.37146e-05
-4.97612e-07
2.14027e-06
-4.98389e-07
2.24034e-06
-4.99281e-07
2.34621e-06
-5.00302e-07
2.45772e-06
-5.01468e-07
2.57451e-06
-5.02797e-07
2.69663e-06
-5.04313e-07
2.82427e-06
-5.06039e-07
2.95764e-06
-5.08005e-07
3.09695e-06
-5.10243e-07
3.24243e-06
-5.12791e-07
3.39429e-06
-5.15694e-07
3.55274e-06
-5.19001e-07
3.71798e-06
-5.22774e-07
3.89021e-06
-5.27083e-07
4.06962e-06
-5.3201e-07
4.25636e-06
-5.37655e-07
4.45059e-06
-5.44139e-07
4.65241e-06
-5.51605e-07
4.8619e-06
-5.6023e-07
5.07909e-06
-5.70232e-07
5.30394e-06
-5.81879e-07
5.53635e-06
-5.95508e-07
5.7761e-06
-6.11534e-07
6.02281e-06
-6.30476e-07
6.27581e-06
-6.53005e-07
6.53386e-06
-6.80054e-07
6.79471e-06
-7.13072e-07
7.05486e-06
-7.5445e-07
7.31023e-06
-8.07939e-07
7.55964e-06
-8.91648e-07
9.1033e-06
-9.98352e-07
8.97973e-06
-1.12578e-06
8.95519e-06
-1.2645e-06
9.07831e-06
-1.4006e-06
9.35887e-06
-1.51971e-06
9.759e-06
-1.60944e-06
1.02078e-05
-1.66001e-06
1.06284e-05
-1.66448e-06
1.09612e-05
-1.61954e-06
1.11773e-05
-1.52669e-06
1.12809e-05
-1.39356e-06
1.1306e-05
-1.23462e-06
1.13081e-05
-1.07081e-06
1.13533e-05
-9.26588e-07
1.15049e-05
-8.23501e-07
1.18067e-05
-7.70969e-07
1.22632e-05
-7.59051e-07
1.28198e-05
-7.60481e-07
1.33534e-05
1.36994e-05
-4.93313e-07
2.14098e-06
-4.94131e-07
2.24116e-06
-4.95068e-07
2.34715e-06
-4.96138e-07
2.45879e-06
-4.97357e-07
2.57573e-06
-4.98745e-07
2.69802e-06
-5.00325e-07
2.82585e-06
-5.02123e-07
2.95943e-06
-5.04167e-07
3.099e-06
-5.06493e-07
3.24476e-06
-5.09138e-07
3.39694e-06
-5.12149e-07
3.55575e-06
-5.1558e-07
3.72141e-06
-5.19491e-07
3.89413e-06
-5.23958e-07
4.07409e-06
-5.29067e-07
4.26147e-06
-5.34923e-07
4.45644e-06
-5.41651e-07
4.65914e-06
-5.49406e-07
4.86965e-06
-5.58374e-07
5.08806e-06
-5.68787e-07
5.31436e-06
-5.80932e-07
5.5485e-06
-5.95167e-07
5.79034e-06
-6.11941e-07
6.03959e-06
-6.31822e-07
6.29569e-06
-6.55565e-07
6.5576e-06
-6.84243e-07
6.82339e-06
-7.19511e-07
7.09012e-06
-7.63976e-07
7.35469e-06
-8.21399e-07
7.61707e-06
-9.10018e-07
9.19192e-06
-1.01984e-06
9.08955e-06
-1.14591e-06
9.08127e-06
-1.27663e-06
9.20903e-06
-1.39731e-06
9.47955e-06
-1.4946e-06
9.85629e-06
-1.55884e-06
1.02721e-05
-1.58412e-06
1.06536e-05
-1.56764e-06
1.09447e-05
-1.50967e-06
1.11193e-05
-1.4139e-06
1.11852e-05
-1.28809e-06
1.11802e-05
-1.14464e-06
1.11646e-05
-1.00057e-06
1.12092e-05
-8.75581e-07
1.13799e-05
-7.86898e-07
1.1718e-05
-7.41133e-07
1.22174e-05
-7.28155e-07
1.28069e-05
-7.23689e-07
1.33489e-05
1.36784e-05
-4.88515e-07
2.14172e-06
-4.89363e-07
2.24201e-06
-4.90334e-07
2.34812e-06
-4.9144e-07
2.45989e-06
-4.92699e-07
2.57699e-06
-4.9413e-07
2.69945e-06
-4.95756e-07
2.82747e-06
-4.97605e-07
2.96128e-06
-4.99704e-07
3.1011e-06
-5.0209e-07
3.24715e-06
-5.04802e-07
3.39965e-06
-5.07886e-07
3.55884e-06
-5.11397e-07
3.72492e-06
-5.15399e-07
3.89813e-06
-5.19968e-07
4.07865e-06
-5.25192e-07
4.2667e-06
-5.3118e-07
4.46243e-06
-5.38061e-07
4.66602e-06
-5.45993e-07
4.87759e-06
-5.55171e-07
5.09724e-06
-5.65832e-07
5.32502e-06
-5.78274e-07
5.56094e-06
-5.92869e-07
5.80493e-06
-6.10084e-07
6.0568e-06
-6.3052e-07
6.31613e-06
-6.54985e-07
6.58206e-06
-6.84642e-07
6.85304e-06
-7.21262e-07
7.12674e-06
-7.67515e-07
7.40094e-06
-8.26996e-07
7.67655e-06
-9.17485e-07
9.28241e-06
-1.02685e-06
9.19891e-06
-1.14818e-06
9.2026e-06
-1.26847e-06
9.32931e-06
-1.37277e-06
9.58384e-06
-1.44888e-06
9.93239e-06
-1.48972e-06
1.03129e-05
-1.49301e-06
1.06569e-05
-1.45984e-06
1.09115e-05
-1.39362e-06
1.10531e-05
-1.29963e-06
1.10912e-05
-1.18507e-06
1.10657e-05
-1.05953e-06
1.10391e-05
-9.35585e-07
1.10852e-05
-8.28195e-07
1.12725e-05
-7.5088e-07
1.16407e-05
-7.08655e-07
1.21752e-05
-6.92432e-07
1.27906e-05
-6.8156e-07
1.3338e-05
1.36525e-05
-4.83213e-07
2.14248e-06
-4.84082e-07
2.24288e-06
-4.85075e-07
2.34911e-06
-4.86204e-07
2.46102e-06
-4.87487e-07
2.57827e-06
-4.88945e-07
2.70091e-06
-4.90599e-07
2.82913e-06
-4.92476e-07
2.96316e-06
-4.94606e-07
3.10323e-06
-4.97024e-07
3.24956e-06
-4.99769e-07
3.4024e-06
-5.02889e-07
3.56196e-06
-5.06438e-07
3.72847e-06
-5.10481e-07
3.90217e-06
-5.15092e-07
4.08327e-06
-5.20363e-07
4.27197e-06
-5.26401e-07
4.46847e-06
-5.33338e-07
4.67296e-06
-5.41333e-07
4.88558e-06
-5.50581e-07
5.10648e-06
-5.61322e-07
5.33576e-06
-5.73857e-07
5.57347e-06
-5.88559e-07
5.81963e-06
-6.05901e-07
6.07414e-06
-6.26497e-07
6.33673e-06
-6.51177e-07
6.60674e-06
-6.81142e-07
6.88301e-06
-7.18188e-07
7.16379e-06
-7.64922e-07
7.44768e-06
-8.24643e-07
7.73627e-06
-9.14227e-07
9.37199e-06
-1.02013e-06
9.30482e-06
-1.1342e-06
9.31666e-06
-1.24273e-06
9.43785e-06
-1.33094e-06
9.67205e-06
-1.38772e-06
9.98917e-06
-1.4082e-06
1.03334e-05
-1.39324e-06
1.0642e-05
-1.34733e-06
1.08656e-05
-1.2766e-06
1.09824e-05
-1.18753e-06
1.10021e-05
-1.08638e-06
1.09645e-05
-9.79648e-07
1.09324e-05
-8.75307e-07
1.09809e-05
-7.8359e-07
1.11808e-05
-7.1481e-07
1.15719e-05
-6.73352e-07
1.21337e-05
-6.52194e-07
1.27695e-05
-6.34745e-07
1.33206e-05
1.36227e-05
-4.77411e-07
2.14325e-06
-4.78291e-07
2.24376e-06
-4.79294e-07
2.35012e-06
-4.80433e-07
2.46216e-06
-4.81726e-07
2.57956e-06
-4.83193e-07
2.70237e-06
-4.84855e-07
2.83079e-06
-4.8674e-07
2.96504e-06
-4.88875e-07
3.10536e-06
-4.91297e-07
3.25198e-06
-4.94043e-07
3.40514e-06
-4.97161e-07
3.56508e-06
-5.00705e-07
3.73202e-06
-5.04736e-07
3.9062e-06
-5.09332e-07
4.08786e-06
-5.1458e-07
4.27721e-06
-5.20588e-07
4.47448e-06
-5.27484e-07
4.67985e-06
-5.35426e-07
4.89352e-06
-5.44606e-07
5.11566e-06
-5.55261e-07
5.34641e-06
-5.67684e-07
5.5859e-06
-5.82244e-07
5.83419e-06
-5.99405e-07
6.09131e-06
-6.19773e-07
6.35709e-06
-6.44173e-07
6.63114e-06
-6.7379e-07
6.91263e-06
-7.10367e-07
7.20037e-06
-7.56347e-07
7.49366e-06
-8.14654e-07
7.79458e-06
-9.00937e-07
9.45828e-06
-1.00098e-06
9.40487e-06
-1.10601e-06
9.42169e-06
-1.2023e-06
9.53414e-06
-1.27553e-06
9.74527e-06
-1.31557e-06
1.00292e-05
-1.31926e-06
1.03371e-05
-1.28987e-06
1.06126e-05
-1.23467e-06
1.08104e-05
-1.16208e-06
1.09098e-05
-1.07955e-06
1.09196e-05
-9.92435e-07
1.08774e-05
-9.04259e-07
1.08442e-05
-8.18485e-07
1.08951e-05
-7.40672e-07
1.1103e-05
-6.7816e-07
1.15094e-05
-6.35351e-07
1.20909e-05
-6.08083e-07
1.27422e-05
-5.84143e-07
1.32966e-05
1.359e-05
-4.71119e-07
2.14402e-06
-4.71999e-07
2.24464e-06
-4.73001e-07
2.35112e-06
-4.74138e-07
2.4633e-06
-4.75427e-07
2.58085e-06
-4.76887e-07
2.70383e-06
-4.78539e-07
2.83244e-06
-4.80409e-07
2.96691e-06
-4.82527e-07
3.10748e-06
-4.84924e-07
3.25438e-06
-4.8764e-07
3.40786e-06
-4.90719e-07
3.56815e-06
-4.94214e-07
3.73551e-06
-4.98186e-07
3.91017e-06
-5.02708e-07
4.09238e-06
-5.07867e-07
4.28237e-06
-5.13765e-07
4.48038e-06
-5.20528e-07
4.68661e-06
-5.28307e-07
4.9013e-06
-5.37286e-07
5.12464e-06
-5.47695e-07
5.35682e-06
-5.59814e-07
5.59802e-06
-5.73995e-07
5.84837e-06
-5.90684e-07
6.10799e-06
-6.1046e-07
6.37687e-06
-6.34114e-07
6.6548e-06
-6.62772e-07
6.94128e-06
-6.98061e-07
7.23565e-06
-7.42188e-07
7.53779e-06
-7.97665e-07
7.85005e-06
-8.78693e-07
9.53931e-06
-9.7104e-07
9.49721e-06
-1.06588e-06
9.51653e-06
-1.14998e-06
9.61824e-06
-1.20975e-06
9.80504e-06
-1.23593e-06
1.00554e-05
-1.22647e-06
1.03276e-05
-1.18631e-06
1.05724e-05
-1.12472e-06
1.07488e-05
-1.05195e-06
1.0837e-05
-9.7636e-07
1.0844e-05
-9.02662e-07
1.08037e-05
-8.31893e-07
1.07734e-05
-7.63385e-07
1.08266e-05
-6.98112e-07
1.10377e-05
-6.40406e-07
1.14517e-05
-5.94939e-07
1.20454e-05
-5.60927e-07
1.27082e-05
-5.30778e-07
1.32665e-05
1.35552e-05
-4.64354e-07
2.14479e-06
-4.65226e-07
2.24551e-06
-4.66218e-07
2.35211e-06
-4.67341e-07
2.46442e-06
-4.68611e-07
2.58212e-06
-4.70049e-07
2.70527e-06
-4.71674e-07
2.83407e-06
-4.7351e-07
2.96875e-06
-4.75586e-07
3.10956e-06
-4.77933e-07
3.25673e-06
-4.80588e-07
3.41051e-06
-4.83594e-07
3.57116e-06
-4.87001e-07
3.73892e-06
-4.90867e-07
3.91404e-06
-4.95262e-07
4.09678e-06
-5.00268e-07
4.28738e-06
-5.05984e-07
4.48609e-06
-5.12526e-07
4.69316e-06
-5.20039e-07
4.90882e-06
-5.28696e-07
5.1333e-06
-5.38711e-07
5.36684e-06
-5.50348e-07
5.60965e-06
-5.63935e-07
5.86196e-06
-5.79887e-07
6.12395e-06
-5.98743e-07
6.39573e-06
-6.21235e-07
6.67729e-06
-6.48396e-07
6.96845e-06
-6.81689e-07
7.26895e-06
-7.23041e-07
7.57914e-06
-7.74543e-07
7.90156e-06
-8.48818e-07
9.61358e-06
-9.32155e-07
9.58055e-06
-1.01611e-06
9.60048e-06
-1.08834e-06
9.69047e-06
-1.13624e-06
9.85294e-06
-1.15131e-06
1.00705e-05
-1.13214e-06
1.03084e-05
-1.08449e-06
1.05248e-05
-1.01888e-06
1.06832e-05
-9.46868e-07
1.0765e-05
-8.77675e-07
1.07748e-05
-8.15841e-07
1.07419e-05
-7.60646e-07
1.07182e-05
-7.07956e-07
1.07739e-05
-6.54348e-07
1.09841e-05
-6.00907e-07
1.13982e-05
-5.52388e-07
1.19969e-05
-5.11578e-07
1.26674e-05
-4.75674e-07
1.32306e-05
1.35191e-05
-4.57143e-07
2.14554e-06
-4.57999e-07
2.24637e-06
-4.5897e-07
2.35308e-06
-4.60068e-07
2.46552e-06
-4.61309e-07
2.58336e-06
-4.6271e-07
2.70667e-06
-4.64292e-07
2.83565e-06
-4.66076e-07
2.97053e-06
-4.6809e-07
3.11157e-06
-4.70363e-07
3.259e-06
-4.7293e-07
3.41308e-06
-4.75831e-07
3.57406e-06
-4.79114e-07
3.7422e-06
-4.82832e-07
3.91776e-06
-4.87052e-07
4.101e-06
-4.91849e-07
4.29218e-06
-4.97315e-07
4.49156e-06
-5.03559e-07
4.6994e-06
-5.10713e-07
4.91597e-06
-5.18938e-07
5.14152e-06
-5.28431e-07
5.37633e-06
-5.3943e-07
5.62065e-06
-5.52234e-07
5.87477e-06
-5.67219e-07
6.13893e-06
-5.84872e-07
6.41338e-06
-6.05848e-07
6.69827e-06
-6.31062e-07
6.99366e-06
-6.61781e-07
7.29967e-06
-6.99633e-07
7.61699e-06
-7.46303e-07
7.94823e-06
-8.12758e-07
9.68003e-06
-8.86226e-07
9.65402e-06
-9.58932e-07
9.67319e-06
-1.01971e-06
9.75125e-06
-1.05714e-06
9.89037e-06
-1.06345e-06
1.00768e-05
-1.03745e-06
1.02825e-05
-9.85099e-07
1.04724e-05
-9.17328e-07
1.06155e-05
-8.46483e-07
1.06941e-05
-7.82574e-07
1.07109e-05
-7.30432e-07
1.06897e-05
-6.88482e-07
1.06763e-05
-6.50025e-07
1.07355e-05
-6.07635e-07
1.09417e-05
-5.58813e-07
1.13494e-05
-5.07813e-07
1.19459e-05
-4.60778e-07
1.26204e-05
-4.19783e-07
1.31896e-05
1.34823e-05
-4.49517e-07
2.14628e-06
-4.5035e-07
2.2472e-06
-4.51293e-07
2.35402e-06
-4.52357e-07
2.46658e-06
-4.53558e-07
2.58456e-06
-4.54911e-07
2.70802e-06
-4.56435e-07
2.83717e-06
-4.58152e-07
2.97225e-06
-4.60085e-07
3.1135e-06
-4.62263e-07
3.26118e-06
-4.64718e-07
3.41554e-06
-4.67487e-07
3.57683e-06
-4.70614e-07
3.74533e-06
-4.74148e-07
3.92129e-06
-4.7815e-07
4.105e-06
-4.82689e-07
4.29671e-06
-4.87848e-07
4.49672e-06
-4.93726e-07
4.70528e-06
-5.00444e-07
4.92269e-06
-5.08144e-07
5.14922e-06
-5.17003e-07
5.38519e-06
-5.27233e-07
5.63088e-06
-5.39098e-07
5.88663e-06
-5.52927e-07
6.15276e-06
-5.69145e-07
6.4296e-06
-5.88321e-07
6.71744e-06
-6.11232e-07
7.01657e-06
-6.38941e-07
7.32738e-06
-6.72768e-07
7.65082e-06
-7.14018e-07
7.98948e-06
-7.71983e-07
9.738e-06
-8.35106e-07
9.71714e-06
-8.96453e-07
9.73453e-06
-9.46201e-07
9.801e-06
-9.74222e-07
9.91839e-06
-9.7349e-07
1.00761e-05
-9.42869e-07
1.02518e-05
-8.8793e-07
1.04175e-05
-8.19382e-07
1.05469e-05
-7.49782e-07
1.06245e-05
-6.89768e-07
1.06509e-05
-6.44849e-07
1.06448e-05
-6.13496e-07
1.06449e-05
-5.87529e-07
1.07095e-05
-5.56168e-07
1.09103e-05
-5.13067e-07
1.13063e-05
-4.61092e-07
1.18939e-05
-4.09091e-07
1.25684e-05
-3.63927e-07
1.31444e-05
1.34455e-05
-4.41514e-07
2.14699e-06
-4.42319e-07
2.248e-06
-4.43228e-07
2.35493e-06
-4.44251e-07
2.46761e-06
-4.45402e-07
2.58572e-06
-4.46697e-07
2.70932e-06
-4.48152e-07
2.83863e-06
-4.49788e-07
2.97389e-06
-4.51626e-07
3.11534e-06
-4.53692e-07
3.26325e-06
-4.56015e-07
3.41786e-06
-4.58629e-07
3.57944e-06
-4.61574e-07
3.74827e-06
-4.64894e-07
3.92461e-06
-4.68642e-07
4.10875e-06
-4.72882e-07
4.30095e-06
-4.77687e-07
4.50152e-06
-4.83146e-07
4.71074e-06
-4.89362e-07
4.9289e-06
-4.96462e-07
5.15633e-06
-5.04599e-07
5.39332e-06
-5.13955e-07
5.64024e-06
-5.24757e-07
5.89743e-06
-5.37283e-07
6.16529e-06
-5.51892e-07
6.4442e-06
-5.69054e-07
6.7346e-06
-5.89408e-07
7.03692e-06
-6.13804e-07
7.35177e-06
-6.4327e-07
7.68028e-06
-6.78762e-07
8.02497e-06
-7.2791e-07
9.78715e-06
-7.80532e-07
9.76976e-06
-8.306e-07
9.7846e-06
-8.69674e-07
9.84007e-06
-8.88986e-07
9.93771e-06
-8.82302e-07
1.00694e-05
-8.48439e-07
1.0218e-05
-7.92306e-07
1.03613e-05
-7.23866e-07
1.04785e-05
-6.55375e-07
1.05561e-05
-5.97841e-07
1.05933e-05
-5.57671e-07
1.06046e-05
-5.34146e-07
1.06214e-05
-5.18756e-07
1.06941e-05
-4.98282e-07
1.08899e-05
-4.62503e-07
1.12705e-05
-4.11873e-07
1.18433e-05
-3.56876e-07
1.25134e-05
-3.08795e-07
1.30964e-05
1.34093e-05
-4.33179e-07
2.14767e-06
-4.33951e-07
2.24878e-06
-4.3482e-07
2.3558e-06
-4.35796e-07
2.46858e-06
-4.36891e-07
2.58681e-06
-4.3812e-07
2.71055e-06
-4.39498e-07
2.84001e-06
-4.41042e-07
2.97543e-06
-4.42773e-07
3.11707e-06
-4.44714e-07
3.26519e-06
-4.4689e-07
3.42003e-06
-4.49331e-07
3.58189e-06
-4.52073e-07
3.75101e-06
-4.55155e-07
3.9277e-06
-4.58623e-07
4.11222e-06
-4.62533e-07
4.30486e-06
-4.66949e-07
4.50594e-06
-4.71945e-07
4.71573e-06
-4.77611e-07
4.93457e-06
-4.84056e-07
5.16277e-06
-4.91404e-07
5.40067e-06
-4.99811e-07
5.64865e-06
-5.0946e-07
5.90708e-06
-5.2058e-07
6.17641e-06
-5.33458e-07
6.45708e-06
-5.48466e-07
6.74961e-06
-5.66102e-07
7.05456e-06
-5.87011e-07
7.37268e-06
-6.11947e-07
7.70522e-06
-6.41553e-07
8.05457e-06
-6.81842e-07
9.82744e-06
-7.24073e-07
9.812e-06
-7.63099e-07
9.82363e-06
-7.91813e-07
9.86879e-06
-8.02795e-07
9.94869e-06
-7.90637e-07
1.00572e-05
-7.54144e-07
1.01815e-05
-6.97451e-07
1.03046e-05
-6.29485e-07
1.04105e-05
-5.61798e-07
1.04884e-05
-5.05465e-07
1.0537e-05
-4.67802e-07
1.0567e-05
-4.49436e-07
1.0603e-05
-4.42576e-07
1.06872e-05
-4.327e-07
1.088e-05
-4.06028e-07
1.12439e-05
-3.59668e-07
1.17969e-05
-3.04318e-07
1.2458e-05
-2.54963e-07
1.3047e-05
1.33743e-05
-4.24558e-07
2.14833e-06
-4.25295e-07
2.24951e-06
-4.2612e-07
2.35663e-06
-4.27045e-07
2.46951e-06
-4.2808e-07
2.58785e-06
-4.29238e-07
2.71171e-06
-4.30532e-07
2.8413e-06
-4.31978e-07
2.97688e-06
-4.33593e-07
3.11869e-06
-4.35399e-07
3.26699e-06
-4.37416e-07
3.42205e-06
-4.39673e-07
3.58414e-06
-4.42197e-07
3.75354e-06
-4.45025e-07
3.93052e-06
-4.48195e-07
4.11539e-06
-4.51753e-07
4.30842e-06
-4.55754e-07
4.50994e-06
-4.60259e-07
4.72024e-06
-4.65344e-07
4.93965e-06
-4.71094e-07
5.16852e-06
-4.77613e-07
5.40719e-06
-4.85021e-07
5.65605e-06
-4.93464e-07
5.91552e-06
-5.03116e-07
6.18606e-06
-5.14194e-07
6.46816e-06
-5.26975e-07
6.76239e-06
-5.41818e-07
7.0694e-06
-5.59178e-07
7.39004e-06
-5.7956e-07
7.7256e-06
-6.03326e-07
8.07834e-06
-6.34944e-07
9.85905e-06
-6.67103e-07
9.84415e-06
-6.95456e-07
9.85198e-06
-7.14112e-07
9.88744e-06
-7.16909e-07
9.95148e-06
-6.99279e-07
1.00396e-05
-6.60094e-07
1.01423e-05
-6.02778e-07
1.02473e-05
-5.35136e-07
1.03429e-05
-4.67784e-07
1.0421e-05
-4.11577e-07
1.04808e-05
-3.74587e-07
1.053e-05
-3.59023e-07
1.05875e-05
-3.58635e-07
1.06869e-05
-3.58796e-07
1.08802e-05
-3.42884e-07
1.12279e-05
-3.04013e-07
1.17581e-05
-2.51509e-07
1.24055e-05
-2.02943e-07
1.29984e-05
1.33416e-05
-4.157e-07
2.14895e-06
-4.16399e-07
2.25021e-06
-4.17181e-07
2.35741e-06
-4.18052e-07
2.47038e-06
-4.19025e-07
2.58882e-06
-4.20108e-07
2.71279e-06
-4.21315e-07
2.84251e-06
-4.22659e-07
2.97822e-06
-4.24155e-07
3.12018e-06
-4.2582e-07
3.26866e-06
-4.27673e-07
3.42391e-06
-4.29737e-07
3.58621e-06
-4.32037e-07
3.75584e-06
-4.34601e-07
3.93309e-06
-4.37462e-07
4.11825e-06
-4.40656e-07
4.31162e-06
-4.44229e-07
4.51351e-06
-4.48228e-07
4.72424e-06
-4.52714e-07
4.94414e-06
-4.57753e-07
5.17356e-06
-4.63421e-07
5.41286e-06
-4.6981e-07
5.66244e-06
-4.77023e-07
5.92274e-06
-4.85185e-07
6.19422e-06
-4.94444e-07
6.47742e-06
-5.04984e-07
6.77293e-06
-5.17036e-07
7.08146e-06
-5.30882e-07
7.40389e-06
-5.468e-07
7.74152e-06
-5.64912e-07
8.09645e-06
-5.88221e-07
9.88236e-06
-6.10787e-07
9.86672e-06
-6.28951e-07
9.87015e-06
-6.37868e-07
9.89636e-06
-6.32497e-07
9.94611e-06
-6.09076e-07
1.00162e-05
-5.66639e-07
1.00999e-05
-5.08061e-07
1.01887e-05
-4.40132e-07
1.02749e-05
-3.72484e-07
1.03534e-05
-3.1554e-07
1.04238e-05
-2.7789e-07
1.04923e-05
-2.63273e-07
1.05728e-05
-2.6746e-07
1.0691e-05
-2.76821e-07
1.08895e-05
-2.72919e-07