/*--------------------------------*- C++ -*----------------------------------*\
  =========                 |
  \\      /  F ield         | OpenFOAM: The Open Source CFD Toolbox
   \\    /   O peration     | Website:  https://openfoam.org
    \\  /    A nd           | Version:  9
     \\/     M anipulation  |
\*---------------------------------------------------------------------------*/
FoamFile
{
    format      ascii;
    class       volScalarField;
    location    "0.07";
    object      rAU;
}
// * * * * * * * * * * * * * * * * * * * * * * * * * * * * * * * * * * * * * //

dimensions      [-1 3 1 0 0 0 0];

internalField   nonuniform List<scalar> 
5000
(
1.96871e-05
1.85221e-05
1.87877e-05
1.9037e-05
1.92713e-05
1.94916e-05
1.96985e-05
1.98927e-05
2.00749e-05
2.02458e-05
2.04061e-05
2.05565e-05
2.06979e-05
2.08308e-05
2.09559e-05
2.1074e-05
2.11857e-05
2.12916e-05
2.13925e-05
2.1489e-05
2.15818e-05
2.16715e-05
2.17588e-05
2.18444e-05
2.19292e-05
2.20139e-05
2.20996e-05
2.21877e-05
2.22807e-05
2.23918e-05
2.25904e-05
2.27112e-05
2.28336e-05
2.29405e-05
2.29943e-05
2.2961e-05
2.28281e-05
2.26083e-05
2.23292e-05
2.20179e-05
2.16932e-05
2.13677e-05
2.10573e-05
2.07903e-05
2.06068e-05
2.05407e-05
2.05873e-05
2.06791e-05
2.07105e-05
2.06275e-05
1.96878e-05
1.85225e-05
1.8788e-05
1.90371e-05
1.92713e-05
1.94914e-05
1.96982e-05
1.98921e-05
2.00741e-05
2.02448e-05
2.04049e-05
2.05551e-05
2.06962e-05
2.08289e-05
2.09538e-05
2.10716e-05
2.11831e-05
2.12888e-05
2.13894e-05
2.14857e-05
2.15782e-05
2.16677e-05
2.17548e-05
2.18404e-05
2.19251e-05
2.20099e-05
2.2096e-05
2.21851e-05
2.228e-05
2.23944e-05
2.25993e-05
2.27254e-05
2.28481e-05
2.29442e-05
2.29724e-05
2.2902e-05
2.27291e-05
2.24753e-05
2.21731e-05
2.1851e-05
2.15283e-05
2.12191e-05
2.09408e-05
2.07196e-05
2.05865e-05
2.05606e-05
2.06233e-05
2.07041e-05
2.07113e-05
2.06134e-05
1.96887e-05
1.85232e-05
1.87885e-05
1.90374e-05
1.92715e-05
1.94914e-05
1.96979e-05
1.98916e-05
2.00734e-05
2.02438e-05
2.04037e-05
2.05536e-05
2.06945e-05
2.08268e-05
2.09514e-05
2.1069e-05
2.11801e-05
2.12855e-05
2.13858e-05
2.14817e-05
2.15738e-05
2.16629e-05
2.17497e-05
2.18349e-05
2.19193e-05
2.2004e-05
2.209e-05
2.21795e-05
2.22757e-05
2.23925e-05
2.26027e-05
2.27306e-05
2.28481e-05
2.29264e-05
2.29231e-05
2.28135e-05
2.26034e-05
2.2322e-05
2.20052e-05
2.1682e-05
2.13718e-05
2.10893e-05
2.08514e-05
2.06795e-05
2.05947e-05
2.06018e-05
2.06715e-05
2.07339e-05
2.07141e-05
2.0602e-05
1.96899e-05
1.85241e-05
1.87892e-05
1.90379e-05
1.92717e-05
1.94914e-05
1.96977e-05
1.98912e-05
2.00727e-05
2.02428e-05
2.04024e-05
2.05521e-05
2.06926e-05
2.08246e-05
2.09489e-05
2.1066e-05
2.11767e-05
2.12817e-05
2.13815e-05
2.1477e-05
2.15686e-05
2.16572e-05
2.17434e-05
2.1828e-05
2.19119e-05
2.19959e-05
2.20816e-05
2.2171e-05
2.22677e-05
2.23859e-05
2.25994e-05
2.27253e-05
2.28321e-05
2.28867e-05
2.28486e-05
2.27011e-05
2.24594e-05
2.21589e-05
2.1837e-05
2.15227e-05
2.12348e-05
2.09875e-05
2.07952e-05
2.0673e-05
2.06308e-05
2.06617e-05
2.07285e-05
2.07661e-05
2.07176e-05
2.05928e-05
1.96915e-05
1.85252e-05
1.87901e-05
1.90387e-05
1.92722e-05
1.94917e-05
1.96977e-05
1.98909e-05
2.00721e-05
2.02419e-05
2.04011e-05
2.05505e-05
2.06906e-05
2.08223e-05
2.09461e-05
2.10628e-05
2.1173e-05
2.12775e-05
2.13768e-05
2.14717e-05
2.15627e-05
2.16506e-05
2.17361e-05
2.18199e-05
2.19028e-05
2.19859e-05
2.20707e-05
2.21595e-05
2.2256e-05
2.23742e-05
2.25889e-05
2.27086e-05
2.27997e-05
2.28268e-05
2.27538e-05
2.25727e-05
2.23072e-05
2.19968e-05
2.16795e-05
2.13832e-05
2.11259e-05
2.09198e-05
2.0775e-05
2.06991e-05
2.06917e-05
2.07358e-05
2.07903e-05
2.07979e-05
2.07207e-05
2.05858e-05
1.96934e-05
1.85266e-05
1.87913e-05
1.90396e-05
1.92729e-05
1.94921e-05
1.96978e-05
1.98907e-05
2.00716e-05
2.02411e-05
2.04e-05
2.05489e-05
2.06886e-05
2.08198e-05
2.09432e-05
2.10594e-05
2.11691e-05
2.1273e-05
2.13717e-05
2.14659e-05
2.15561e-05
2.16432e-05
2.17277e-05
2.18105e-05
2.18923e-05
2.19741e-05
2.20576e-05
2.21452e-05
2.22406e-05
2.23572e-05
2.25709e-05
2.26806e-05
2.27522e-05
2.27505e-05
2.26451e-05
2.24372e-05
2.21568e-05
2.18459e-05
2.15419e-05
2.12714e-05
2.10505e-05
2.08883e-05
2.07896e-05
2.0754e-05
2.07719e-05
2.08187e-05
2.08529e-05
2.08274e-05
2.07229e-05
2.0581e-05
1.96957e-05
1.85284e-05
1.87929e-05
1.90409e-05
1.92739e-05
1.94928e-05
1.96982e-05
1.98908e-05
2.00713e-05
2.02404e-05
2.03989e-05
2.05474e-05
2.06867e-05
2.08174e-05
2.09403e-05
2.1056e-05
2.11651e-05
2.12683e-05
2.13663e-05
2.14597e-05
2.15491e-05
2.16352e-05
2.17186e-05
2.18001e-05
2.18805e-05
2.19608e-05
2.20426e-05
2.21284e-05
2.22217e-05
2.23353e-05
2.25454e-05
2.26422e-05
2.26922e-05
2.26627e-05
2.25301e-05
2.23033e-05
2.20171e-05
2.17142e-05
2.14308e-05
2.11916e-05
2.10101e-05
2.08916e-05
2.08349e-05
2.08318e-05
2.0865e-05
2.0905e-05
2.09127e-05
2.08532e-05
2.07244e-05
2.05788e-05
1.96985e-05
1.85306e-05
1.87948e-05
1.90425e-05
1.92753e-05
1.94938e-05
1.96989e-05
1.98911e-05
2.00713e-05
2.024e-05
2.03981e-05
2.05461e-05
2.06849e-05
2.08152e-05
2.09375e-05
2.10525e-05
2.1161e-05
2.12635e-05
2.13608e-05
2.14533e-05
2.15417e-05
2.16267e-05
2.17089e-05
2.1789e-05
2.18678e-05
2.19462e-05
2.20259e-05
2.21094e-05
2.21998e-05
2.23089e-05
2.25134e-05
2.25952e-05
2.26234e-05
2.25691e-05
2.24159e-05
2.21786e-05
2.18948e-05
2.1607e-05
2.13495e-05
2.11448e-05
2.1003e-05
2.09253e-05
2.09044e-05
2.09252e-05
2.09643e-05
2.09899e-05
2.09675e-05
2.08749e-05
2.07255e-05
2.05797e-05
1.97018e-05
1.85332e-05
1.87971e-05
1.90446e-05
1.9277e-05
1.94952e-05
1.96999e-05
1.98918e-05
2.00716e-05
2.02399e-05
2.03975e-05
2.05451e-05
2.06834e-05
2.08131e-05
2.09348e-05
2.10492e-05
2.1157e-05
2.12588e-05
2.13552e-05
2.14468e-05
2.15342e-05
2.1618e-05
2.16989e-05
2.17774e-05
2.18544e-05
2.19308e-05
2.20081e-05
2.20887e-05
2.21753e-05
2.22789e-05
2.2476e-05
2.25419e-05
2.25497e-05
2.24754e-05
2.23086e-05
2.20686e-05
2.17943e-05
2.15268e-05
2.12985e-05
2.11289e-05
2.10249e-05
2.09831e-05
2.09908e-05
2.10271e-05
2.10641e-05
2.10698e-05
2.10161e-05
2.0893e-05
2.07274e-05
2.05843e-05
1.97057e-05
1.85362e-05
1.87999e-05
1.90471e-05
1.92792e-05
1.94971e-05
1.97014e-05
1.98929e-05
2.00722e-05
2.02401e-05
2.03973e-05
2.05444e-05
2.06822e-05
2.08113e-05
2.09324e-05
2.10462e-05
2.11533e-05
2.12543e-05
2.13498e-05
2.14404e-05
2.15268e-05
2.16094e-05
2.16888e-05
2.17657e-05
2.18408e-05
2.1915e-05
2.19897e-05
2.2067e-05
2.21492e-05
2.22462e-05
2.24349e-05
2.24851e-05
2.24752e-05
2.23861e-05
2.22126e-05
2.1977e-05
2.17176e-05
2.14739e-05
2.12758e-05
2.11399e-05
2.10699e-05
2.1058e-05
2.10869e-05
2.11311e-05
2.11599e-05
2.11427e-05
2.10583e-05
2.09086e-05
2.07309e-05
2.05931e-05
1.97102e-05
1.85399e-05
1.88032e-05
1.90501e-05
1.92819e-05
1.94994e-05
1.97034e-05
1.98945e-05
2.00734e-05
2.02408e-05
2.03975e-05
2.05441e-05
2.06814e-05
2.08099e-05
2.09304e-05
2.10435e-05
2.11499e-05
2.12501e-05
2.13448e-05
2.14344e-05
2.15196e-05
2.1601e-05
2.1679e-05
2.17542e-05
2.18273e-05
2.18991e-05
2.1971e-05
2.20448e-05
2.21221e-05
2.22121e-05
2.23918e-05
2.24275e-05
2.24033e-05
2.23048e-05
2.2131e-05
2.19051e-05
2.16646e-05
2.14464e-05
2.12778e-05
2.11726e-05
2.11316e-05
2.11433e-05
2.11864e-05
2.12323e-05
2.12489e-05
2.12079e-05
2.10952e-05
2.0923e-05
2.07371e-05
2.06061e-05
1.97154e-05
1.8544e-05
1.88071e-05
1.90537e-05
1.92851e-05
1.95023e-05
1.97059e-05
1.98966e-05
2.0075e-05
2.0242e-05
2.03982e-05
2.05443e-05
2.0681e-05
2.0809e-05
2.09289e-05
2.10414e-05
2.1147e-05
2.12464e-05
2.13402e-05
2.14288e-05
2.15129e-05
2.1593e-05
2.16696e-05
2.17431e-05
2.18143e-05
2.18838e-05
2.19528e-05
2.20228e-05
2.20951e-05
2.2178e-05
2.23486e-05
2.23716e-05
2.23366e-05
2.22338e-05
2.20648e-05
2.1853e-05
2.16337e-05
2.14411e-05
2.13e-05
2.12217e-05
2.1204e-05
2.12329e-05
2.12843e-05
2.13273e-05
2.13296e-05
2.12656e-05
2.11279e-05
2.09376e-05
2.07468e-05
2.06234e-05
1.97213e-05
1.85488e-05
1.88116e-05
1.90578e-05
1.92889e-05
1.95058e-05
1.9709e-05
1.98992e-05
2.00773e-05
2.02438e-05
2.03995e-05
2.05451e-05
2.06813e-05
2.08087e-05
2.0928e-05
2.10398e-05
2.11447e-05
2.12433e-05
2.13362e-05
2.14239e-05
2.15069e-05
2.15858e-05
2.16609e-05
2.17328e-05
2.1802e-05
2.18693e-05
2.19354e-05
2.20017e-05
2.2069e-05
2.2145e-05
2.23069e-05
2.23195e-05
2.22773e-05
2.21744e-05
2.20143e-05
2.18194e-05
2.16223e-05
2.14544e-05
2.13379e-05
2.12818e-05
2.12819e-05
2.13222e-05
2.13769e-05
2.14142e-05
2.14017e-05
2.13169e-05
2.11582e-05
2.09537e-05
2.07604e-05
2.06448e-05
1.9728e-05
1.85543e-05
1.88167e-05
1.90626e-05
1.92934e-05
1.95098e-05
1.97127e-05
1.99025e-05
2.00801e-05
2.02462e-05
2.04015e-05
2.05466e-05
2.06822e-05
2.0809e-05
2.09277e-05
2.10389e-05
2.11431e-05
2.1241e-05
2.1333e-05
2.14198e-05
2.15018e-05
2.15794e-05
2.16532e-05
2.17236e-05
2.1791e-05
2.1856e-05
2.19194e-05
2.19822e-05
2.20446e-05
2.21143e-05
2.2268e-05
2.22725e-05
2.22263e-05
2.21267e-05
2.19785e-05
2.18021e-05
2.16273e-05
2.14824e-05
2.13872e-05
2.13487e-05
2.13613e-05
2.1408e-05
2.14623e-05
2.1492e-05
2.14658e-05
2.13631e-05
2.11872e-05
2.09721e-05
2.0778e-05
2.06698e-05
1.97354e-05
1.85603e-05
1.88225e-05
1.90681e-05
1.92985e-05
1.95146e-05
1.9717e-05
1.99065e-05
2.00837e-05
2.02493e-05
2.04041e-05
2.05487e-05
2.06838e-05
2.08101e-05
2.09282e-05
2.10387e-05
2.11423e-05
2.12394e-05
2.13307e-05
2.14166e-05
2.14976e-05
2.15741e-05
2.16467e-05
2.17156e-05
2.17813e-05
2.18442e-05
2.19052e-05
2.19646e-05
2.20227e-05
2.20868e-05
2.22332e-05
2.22317e-05
2.21841e-05
2.20906e-05
2.19559e-05
2.17988e-05
2.16456e-05
2.15216e-05
2.14441e-05
2.14188e-05
2.14393e-05
2.14882e-05
2.15393e-05
2.1561e-05
2.15226e-05
2.14055e-05
2.12163e-05
2.09936e-05
2.07997e-05
2.06977e-05
1.97436e-05
1.85671e-05
1.88289e-05
1.90742e-05
1.93043e-05
1.952e-05
1.9722e-05
1.99111e-05
2.00879e-05
2.02531e-05
2.04074e-05
2.05515e-05
2.06861e-05
2.08119e-05
2.09294e-05
2.10394e-05
2.11423e-05
2.12387e-05
2.13293e-05
2.14144e-05
2.14945e-05
2.157e-05
2.16414e-05
2.1709e-05
2.17732e-05
2.18343e-05
2.1893e-05
2.19495e-05
2.20037e-05
2.20632e-05
2.2203e-05
2.21976e-05
2.21509e-05
2.2065e-05
2.19449e-05
2.18069e-05
2.16741e-05
2.15686e-05
2.15057e-05
2.14897e-05
2.15141e-05
2.15618e-05
2.16079e-05
2.16216e-05
2.15732e-05
2.14452e-05
2.12464e-05
2.10184e-05
2.0825e-05
2.07279e-05
1.97526e-05
1.85745e-05
1.8836e-05
1.9081e-05
1.93107e-05
1.9526e-05
1.97277e-05
1.99164e-05
2.00928e-05
2.02575e-05
2.04114e-05
2.05551e-05
2.06892e-05
2.08145e-05
2.09315e-05
2.10409e-05
2.11432e-05
2.1239e-05
2.13289e-05
2.14132e-05
2.14925e-05
2.15672e-05
2.16376e-05
2.1704e-05
2.17668e-05
2.18264e-05
2.18831e-05
2.19371e-05
2.19882e-05
2.20438e-05
2.2178e-05
2.21704e-05
2.21262e-05
2.2049e-05
2.19437e-05
2.18242e-05
2.17102e-05
2.16211e-05
2.15698e-05
2.15599e-05
2.1585e-05
2.16291e-05
2.16687e-05
2.16748e-05
2.16187e-05
2.14833e-05
2.12782e-05
2.10466e-05
2.08537e-05
2.07598e-05
1.97623e-05
1.85825e-05
1.88438e-05
1.90884e-05
1.93178e-05
1.95328e-05
1.97341e-05
1.99224e-05
2.00983e-05
2.02627e-05
2.04161e-05
2.05593e-05
2.0693e-05
2.08178e-05
2.09343e-05
2.10432e-05
2.1145e-05
2.12403e-05
2.13295e-05
2.14132e-05
2.14918e-05
2.15657e-05
2.16352e-05
2.17006e-05
2.17624e-05
2.18206e-05
2.18757e-05
2.19276e-05
2.19761e-05
2.20289e-05
2.21584e-05
2.21501e-05
2.21094e-05
2.20415e-05
2.19506e-05
2.18485e-05
2.17519e-05
2.1677e-05
2.16349e-05
2.16286e-05
2.1652e-05
2.16906e-05
2.17229e-05
2.17221e-05
2.16603e-05
2.15204e-05
2.13118e-05
2.10781e-05
2.08852e-05
2.07927e-05
1.97727e-05
1.85912e-05
1.88521e-05
1.90964e-05
1.93255e-05
1.95401e-05
1.97411e-05
1.9929e-05
2.01046e-05
2.02685e-05
2.04215e-05
2.05644e-05
2.06976e-05
2.08219e-05
2.0938e-05
2.10464e-05
2.11477e-05
2.12425e-05
2.13312e-05
2.14143e-05
2.14923e-05
2.15655e-05
2.16343e-05
2.16989e-05
2.17598e-05
2.1817e-05
2.18707e-05
2.19211e-05
2.19678e-05
2.20184e-05
2.2144e-05
2.21362e-05
2.21e-05
2.20415e-05
2.19643e-05
2.18783e-05
2.17973e-05
2.17349e-05
2.17002e-05
2.16957e-05
2.17157e-05
2.17476e-05
2.17721e-05
2.17646e-05
2.16988e-05
2.15571e-05
2.13474e-05
2.11127e-05
2.09191e-05
2.08262e-05
1.97838e-05
1.86004e-05
1.88611e-05
1.91051e-05
1.93338e-05
1.95481e-05
1.97487e-05
1.99362e-05
2.01114e-05
2.0275e-05
2.04276e-05
2.05701e-05
2.07029e-05
2.08268e-05
2.09425e-05
2.10505e-05
2.11513e-05
2.12456e-05
2.13338e-05
2.14165e-05
2.1494e-05
2.15666e-05
2.16348e-05
2.16989e-05
2.1759e-05
2.18154e-05
2.18683e-05
2.19176e-05
2.19629e-05
2.20123e-05
2.21346e-05
2.21284e-05
2.20972e-05
2.20478e-05
2.19835e-05
2.19123e-05
2.18455e-05
2.17939e-05
2.17653e-05
2.17613e-05
2.17771e-05
2.18015e-05
2.18177e-05
2.18038e-05
2.17351e-05
2.15936e-05
2.13849e-05
2.11499e-05
2.09548e-05
2.08597e-05
1.97955e-05
1.86102e-05
1.88706e-05
1.91143e-05
1.93427e-05
1.95566e-05
1.97569e-05
1.99441e-05
2.01189e-05
2.02821e-05
2.04344e-05
2.05764e-05
2.07089e-05
2.08324e-05
2.09477e-05
2.10553e-05
2.11557e-05
2.12497e-05
2.13375e-05
2.14197e-05
2.14968e-05
2.1569e-05
2.16368e-05
2.17004e-05
2.17601e-05
2.1816e-05
2.18682e-05
2.19169e-05
2.19615e-05
2.20103e-05
2.213e-05
2.21261e-05
2.21002e-05
2.20596e-05
2.20073e-05
2.19496e-05
2.18954e-05
2.18537e-05
2.18302e-05
2.18261e-05
2.18372e-05
2.18538e-05
2.18615e-05
2.1841e-05
2.17698e-05
2.16298e-05
2.14236e-05
2.11891e-05
2.09918e-05
2.08926e-05
1.98078e-05
1.86205e-05
1.88806e-05
1.9124e-05
1.9352e-05
1.95657e-05
1.97656e-05
1.99524e-05
2.01269e-05
2.02898e-05
2.04417e-05
2.05833e-05
2.07155e-05
2.08387e-05
2.09536e-05
2.10608e-05
2.1161e-05
2.12545e-05
2.1342e-05
2.14239e-05
2.15007e-05
2.15726e-05
2.16401e-05
2.17034e-05
2.17628e-05
2.18184e-05
2.18704e-05
2.19187e-05
2.19631e-05
2.20119e-05
2.21297e-05
2.21286e-05
2.21082e-05
2.20762e-05
2.20349e-05
2.19894e-05
2.19468e-05
2.19139e-05
2.1895e-05
2.18907e-05
2.18971e-05
2.19059e-05
2.19048e-05
2.18773e-05
2.18035e-05
2.16655e-05
2.14628e-05
2.12295e-05
2.10293e-05
2.09247e-05
1.98206e-05
1.86312e-05
1.8891e-05
1.91341e-05
1.93619e-05
1.95752e-05
1.97747e-05
1.99612e-05
2.01354e-05
2.02979e-05
2.04495e-05
2.05908e-05
2.07226e-05
2.08455e-05
2.09601e-05
2.1067e-05
2.11669e-05
2.12601e-05
2.13474e-05
2.1429e-05
2.15056e-05
2.15773e-05
2.16446e-05
2.17078e-05
2.1767e-05
2.18226e-05
2.18746e-05
2.1923e-05
2.19676e-05
2.20169e-05
2.21332e-05
2.21355e-05
2.21207e-05
2.20968e-05
2.20657e-05
2.20315e-05
2.19994e-05
2.19746e-05
2.19601e-05
2.19557e-05
2.19576e-05
2.19588e-05
2.19487e-05
2.19137e-05
2.18365e-05
2.17002e-05
2.15017e-05
2.127e-05
2.10665e-05
2.09553e-05
1.98338e-05
1.86423e-05
1.89018e-05
1.91446e-05
1.93721e-05
1.95851e-05
1.97843e-05
1.99705e-05
2.01443e-05
2.03065e-05
2.04577e-05
2.05988e-05
2.07302e-05
2.08528e-05
2.09671e-05
2.10738e-05
2.11734e-05
2.12664e-05
2.13535e-05
2.14349e-05
2.15113e-05
2.15829e-05
2.16501e-05
2.17133e-05
2.17726e-05
2.18283e-05
2.18805e-05
2.19293e-05
2.19745e-05
2.20247e-05
2.214e-05
2.21461e-05
2.2137e-05
2.21209e-05
2.20993e-05
2.20754e-05
2.20531e-05
2.2036e-05
2.20257e-05
2.20215e-05
2.20194e-05
2.20132e-05
2.19939e-05
2.19506e-05
2.18689e-05
2.17333e-05
2.15389e-05
2.13093e-05
2.11025e-05
2.09837e-05
1.98474e-05
1.86537e-05
1.89129e-05
1.91554e-05
1.93826e-05
1.95953e-05
1.97942e-05
1.998e-05
2.01535e-05
2.03154e-05
2.04663e-05
2.06071e-05
2.07382e-05
2.08606e-05
2.09746e-05
2.1081e-05
2.11804e-05
2.12733e-05
2.13601e-05
2.14415e-05
2.15178e-05
2.15894e-05
2.16566e-05
2.17199e-05
2.17794e-05
2.18354e-05
2.18881e-05
2.19374e-05
2.19835e-05
2.2035e-05
2.21498e-05
2.21598e-05
2.21564e-05
2.21478e-05
2.21351e-05
2.2121e-05
2.21079e-05
2.20982e-05
2.20923e-05
2.20885e-05
2.20828e-05
2.20693e-05
2.20407e-05
2.19881e-05
2.19003e-05
2.17641e-05
2.1573e-05
2.13458e-05
2.11359e-05
2.10094e-05
1.98613e-05
1.86653e-05
1.89242e-05
1.91664e-05
1.93933e-05
1.96057e-05
1.98043e-05
1.99898e-05
2.0163e-05
2.03246e-05
2.04752e-05
2.06157e-05
2.07466e-05
2.08686e-05
2.09825e-05
2.10887e-05
2.11879e-05
2.12806e-05
2.13673e-05
2.14486e-05
2.15248e-05
2.15965e-05
2.16638e-05
2.17273e-05
2.17871e-05
2.18436e-05
2.18968e-05
2.1947e-05
2.19942e-05
2.20472e-05
2.21619e-05
2.21762e-05
2.21785e-05
2.21771e-05
2.2173e-05
2.21681e-05
2.21639e-05
2.21615e-05
2.216e-05
2.21568e-05
2.21477e-05
2.21271e-05
2.20887e-05
2.20258e-05
2.19301e-05
2.17913e-05
2.16026e-05
2.13778e-05
2.11654e-05
2.10314e-05
1.98753e-05
1.86771e-05
1.89357e-05
1.91777e-05
1.94042e-05
1.96163e-05
1.98146e-05
1.99998e-05
2.01727e-05
2.0334e-05
2.04843e-05
2.06245e-05
2.07551e-05
2.0877e-05
2.09906e-05
2.10966e-05
2.11956e-05
2.12882e-05
2.13749e-05
2.14561e-05
2.15324e-05
2.16041e-05
2.16716e-05
2.17354e-05
2.17956e-05
2.18526e-05
2.19066e-05
2.19578e-05
2.20062e-05
2.20611e-05
2.21759e-05
2.21946e-05
2.22026e-05
2.22083e-05
2.22126e-05
2.22166e-05
2.22212e-05
2.22259e-05
2.22288e-05
2.22264e-05
2.22111e-05
2.21626e-05
2.20896e-05
2.20134e-05
2.19261e-05
2.18049e-05
2.1626e-05
2.14035e-05
2.11896e-05
2.10489e-05
1.98895e-05
1.86889e-05
1.89473e-05
1.9189e-05
1.94152e-05
1.9627e-05
1.9825e-05
2.00099e-05
2.01825e-05
2.03435e-05
2.04935e-05
2.06334e-05
2.07638e-05
2.08854e-05
2.09988e-05
2.11047e-05
2.12036e-05
2.12961e-05
2.13827e-05
2.14639e-05
2.15402e-05
2.16121e-05
2.16799e-05
2.17439e-05
2.18046e-05
2.18623e-05
2.19171e-05
2.19694e-05
2.20193e-05
2.2076e-05
2.21914e-05
2.22146e-05
2.22283e-05
2.22411e-05
2.22536e-05
2.22665e-05
2.22796e-05
2.22914e-05
2.22987e-05
2.22803e-05
2.22207e-05
2.21403e-05
2.20565e-05
2.19696e-05
2.18752e-05
2.17607e-05
2.1607e-05
2.14077e-05
2.11986e-05
2.10513e-05
1.99037e-05
1.87008e-05
1.8959e-05
1.92003e-05
1.94262e-05
1.96377e-05
1.98354e-05
2.002e-05
2.01923e-05
2.0353e-05
2.05028e-05
2.06424e-05
2.07726e-05
2.08939e-05
2.10072e-05
2.11129e-05
2.12116e-05
2.1304e-05
2.13906e-05
2.14719e-05
2.15483e-05
2.16203e-05
2.16883e-05
2.17528e-05
2.1814e-05
2.18723e-05
2.19281e-05
2.19816e-05
2.2033e-05
2.20918e-05
2.2208e-05
2.22358e-05
2.22553e-05
2.22751e-05
2.22958e-05
2.23175e-05
2.23391e-05
2.23579e-05
2.23478e-05
2.22911e-05
2.22098e-05
2.21206e-05
2.20263e-05
2.19286e-05
2.18262e-05
2.17106e-05
2.15655e-05
2.13815e-05
2.11858e-05
2.10441e-05
1.9918e-05
1.87128e-05
1.89706e-05
1.92116e-05
1.94372e-05
1.96483e-05
1.98457e-05
2.003e-05
2.0202e-05
2.03624e-05
2.05119e-05
2.06513e-05
2.07813e-05
2.09024e-05
2.10155e-05
2.1121e-05
2.12197e-05
2.1312e-05
2.13986e-05
2.14799e-05
2.15564e-05
2.16286e-05
2.16969e-05
2.17617e-05
2.18235e-05
2.18826e-05
2.19393e-05
2.1994e-05
2.20471e-05
2.21079e-05
2.22253e-05
2.22577e-05
2.2283e-05
2.23099e-05
2.23388e-05
2.23694e-05
2.23995e-05
2.24067e-05
2.23654e-05
2.22904e-05
2.22025e-05
2.21046e-05
2.20001e-05
2.18922e-05
2.17815e-05
2.16632e-05
2.15241e-05
2.13538e-05
2.11721e-05
2.10379e-05
1.99323e-05
1.87247e-05
1.89821e-05
1.92228e-05
1.9448e-05
1.96588e-05
1.98559e-05
2.00399e-05
2.02116e-05
2.03717e-05
2.0521e-05
2.06601e-05
2.07898e-05
2.09108e-05
2.10237e-05
2.11291e-05
2.12276e-05
2.13199e-05
2.14064e-05
2.14877e-05
2.15644e-05
2.16367e-05
2.17053e-05
2.17706e-05
2.18329e-05
2.18927e-05
2.19504e-05
2.20064e-05
2.20611e-05
2.21241e-05
2.2243e-05
2.228e-05
2.23111e-05
2.23452e-05
2.23824e-05
2.24219e-05
2.24523e-05
2.24361e-05
2.23739e-05
2.22945e-05
2.21999e-05
2.20935e-05
2.19796e-05
2.18622e-05
2.17434e-05
2.16214e-05
2.1486e-05
2.1327e-05
2.11591e-05
2.10339e-05
1.99461e-05
1.87361e-05
1.89932e-05
1.92335e-05
1.94585e-05
1.9669e-05
1.98657e-05
2.00494e-05
2.02209e-05
2.03807e-05
2.05298e-05
2.06687e-05
2.07982e-05
2.0919e-05
2.10317e-05
2.11369e-05
2.12354e-05
2.13276e-05
2.14141e-05
2.14954e-05
2.15721e-05
2.16447e-05
2.17136e-05
2.17792e-05
2.18421e-05
2.19027e-05
2.19613e-05
2.20186e-05
2.20749e-05
2.214e-05
2.22605e-05
2.23021e-05
2.23391e-05
2.23804e-05
2.24261e-05
2.24742e-05
2.24891e-05
2.24525e-05
2.23881e-05
2.23041e-05
2.22028e-05
2.20886e-05
2.19662e-05
2.18404e-05
2.17143e-05
2.1588e-05
2.14544e-05
2.13044e-05
2.11491e-05
2.10335e-05
1.99589e-05
1.87467e-05
1.90036e-05
1.92437e-05
1.94684e-05
1.96787e-05
1.98752e-05
2.00587e-05
2.02298e-05
2.03895e-05
2.05383e-05
2.0677e-05
2.08063e-05
2.09269e-05
2.10394e-05
2.11445e-05
2.12429e-05
2.1335e-05
2.14215e-05
2.15028e-05
2.15796e-05
2.16523e-05
2.17215e-05
2.17875e-05
2.18509e-05
2.19121e-05
2.19717e-05
2.20302e-05
2.20881e-05
2.21553e-05
2.22776e-05
2.23238e-05
2.23667e-05
2.24153e-05
2.24693e-05
2.25169e-05
2.25194e-05
2.24749e-05
2.24083e-05
2.23196e-05
2.22122e-05
2.2091e-05
2.19616e-05
2.18287e-05
2.16963e-05
2.15657e-05
2.14323e-05
2.12889e-05
2.11399e-05
2.10218e-05
1.99705e-05
1.87565e-05
1.90133e-05
1.92532e-05
1.94778e-05
1.96879e-05
1.98842e-05
2.00675e-05
2.02385e-05
2.03979e-05
2.05465e-05
2.0685e-05
2.08141e-05
2.09345e-05
2.10469e-05
2.11518e-05
2.125e-05
2.1342e-05
2.14285e-05
2.15098e-05
2.15867e-05
2.16595e-05
2.17289e-05
2.17952e-05
2.18591e-05
2.1921e-05
2.19814e-05
2.2041e-05
2.21004e-05
2.21696e-05
2.2294e-05
2.23447e-05
2.23933e-05
2.24491e-05
2.25111e-05
2.25534e-05
2.25474e-05
2.25031e-05
2.2434e-05
2.2341e-05
2.22283e-05
2.21017e-05
2.19669e-05
2.18288e-05
2.16914e-05
2.15568e-05
2.14224e-05
2.12752e-05
2.11159e-05
2.09982e-05
1.99813e-05
1.87658e-05
1.90225e-05
1.92624e-05
1.94869e-05
1.96968e-05
1.9893e-05
2.0076e-05
2.02468e-05
2.0406e-05
2.05544e-05
2.06927e-05
2.08216e-05
2.09418e-05
2.10539e-05
2.11588e-05
2.12568e-05
2.13487e-05
2.14351e-05
2.15164e-05
2.15932e-05
2.16662e-05
2.17357e-05
2.18023e-05
2.18665e-05
2.1929e-05
2.19902e-05
2.20509e-05
2.21116e-05
2.21827e-05
2.23092e-05
2.23642e-05
2.24185e-05
2.24813e-05
2.25506e-05
2.25912e-05
2.25806e-05
2.25365e-05
2.24649e-05
2.2368e-05
2.22512e-05
2.21211e-05
2.19831e-05
2.18416e-05
2.17007e-05
2.15627e-05
2.14115e-05
2.12371e-05
2.1075e-05
2.0974e-05
1.99917e-05
1.87747e-05
1.90314e-05
1.92713e-05
1.94957e-05
1.97055e-05
1.99014e-05
2.00843e-05
2.02549e-05
2.04138e-05
2.0562e-05
2.07001e-05
2.08287e-05
2.09487e-05
2.10607e-05
2.11653e-05
2.12632e-05
2.13549e-05
2.14412e-05
2.15224e-05
2.15992e-05
2.16722e-05
2.17418e-05
2.18086e-05
2.18732e-05
2.19361e-05
2.1998e-05
2.20595e-05
2.21215e-05
2.21943e-05
2.2323e-05
2.23821e-05
2.24418e-05
2.25109e-05
2.25864e-05
2.2629e-05
2.26182e-05
2.25738e-05
2.24998e-05
2.23997e-05
2.22803e-05
2.21487e-05
2.20099e-05
2.18674e-05
2.1718e-05
2.15427e-05
2.13526e-05
2.11774e-05
2.10345e-05
2.0953e-05
2.00019e-05
1.87834e-05
1.90402e-05
1.92801e-05
1.95043e-05
1.97139e-05
1.99097e-05
2.00923e-05
2.02627e-05
2.04214e-05
2.05693e-05
2.07071e-05
2.08356e-05
2.09553e-05
2.1067e-05
2.11714e-05
2.12691e-05
2.13607e-05
2.14468e-05
2.15279e-05
2.16046e-05
2.16776e-05
2.17472e-05
2.18141e-05
2.18789e-05
2.19422e-05
2.20045e-05
2.20668e-05
2.21299e-05
2.22041e-05
2.2335e-05
2.23978e-05
2.24624e-05
2.25371e-05
2.2617e-05
2.26653e-05
2.26588e-05
2.26137e-05
2.2537e-05
2.24344e-05
2.23142e-05
2.21835e-05
2.2032e-05
2.18463e-05
2.16465e-05
2.14552e-05
2.12773e-05
2.112e-05
2.09991e-05
2.0939e-05
2.00121e-05
1.87922e-05
1.9049e-05
1.92888e-05
1.95129e-05
1.97223e-05
1.99178e-05
2.01002e-05
2.02703e-05
2.04287e-05
2.05764e-05
2.07139e-05
2.08421e-05
2.09615e-05
2.1073e-05
2.11772e-05
2.12746e-05
2.1366e-05
2.14518e-05
2.15328e-05
2.16094e-05
2.16822e-05
2.17518e-05
2.18187e-05
2.18836e-05
2.19471e-05
2.20098e-05
2.20726e-05
2.21365e-05
2.22119e-05
2.23449e-05
2.2411e-05
2.24798e-05
2.25588e-05
2.26408e-05
2.26981e-05
2.27006e-05
2.26539e-05
2.25744e-05
2.247e-05
2.23277e-05
2.21419e-05
2.19395e-05
2.17388e-05
2.15465e-05
2.13675e-05
2.12063e-05
2.10704e-05
2.09738e-05
2.09354e-05
2.00227e-05
1.88013e-05
1.9058e-05
1.92976e-05
1.95215e-05
1.97306e-05
1.99258e-05
2.0108e-05
2.02777e-05
2.04359e-05
2.05832e-05
2.07204e-05
2.08483e-05
2.09674e-05
2.10786e-05
2.11825e-05
2.12796e-05
2.13707e-05
2.14563e-05
2.15371e-05
2.16135e-05
2.16861e-05
2.17555e-05
2.18224e-05
2.18872e-05
2.19508e-05
2.20137e-05
2.20768e-05
2.21412e-05
2.22176e-05
2.23524e-05
2.24212e-05
2.24934e-05
2.25749e-05
2.2656e-05
2.27175e-05
2.27332e-05
2.26889e-05
2.25813e-05
2.24196e-05
2.22272e-05
2.20234e-05
2.1821e-05
2.16276e-05
2.14481e-05
2.12861e-05
2.11459e-05
2.10342e-05
2.09629e-05
2.09453e-05
2.00338e-05
1.88106e-05
1.90671e-05
1.93065e-05
1.95301e-05
1.97389e-05
1.99338e-05
2.01156e-05
2.0285e-05
2.04428e-05
2.05898e-05
2.07267e-05
2.08542e-05
2.0973e-05
2.10839e-05
2.11874e-05
2.12842e-05
2.1375e-05
2.14603e-05
2.15407e-05
2.16169e-05
2.16892e-05
2.17585e-05
2.18251e-05
2.18898e-05
2.19532e-05
2.20161e-05
2.20793e-05
2.21439e-05
2.22209e-05
2.23574e-05
2.24281e-05
2.25023e-05
2.25844e-05
2.26613e-05
2.27105e-05
2.27066e-05
2.26338e-05
2.24951e-05
2.23102e-05
2.21043e-05
2.18973e-05
2.17007e-05
2.152e-05
2.13583e-05
2.12178e-05
2.11018e-05
2.10161e-05
2.09695e-05
2.09704e-05
2.00451e-05
1.882e-05
1.90763e-05
1.93154e-05
1.95387e-05
1.97471e-05
1.99417e-05
2.01231e-05
2.02921e-05
2.04496e-05
2.05962e-05
2.07327e-05
2.08598e-05
2.09783e-05
2.10888e-05
2.11919e-05
2.12884e-05
2.13788e-05
2.14638e-05
2.15438e-05
2.16196e-05
2.16917e-05
2.17605e-05
2.18269e-05
2.18913e-05
2.19544e-05
2.2017e-05
2.20801e-05
2.21446e-05
2.22218e-05
2.23595e-05
2.24313e-05
2.25061e-05
2.25863e-05
2.26556e-05
2.26887e-05
2.26601e-05
2.25583e-05
2.23928e-05
2.21894e-05
2.19758e-05
2.17715e-05
2.15863e-05
2.14234e-05
2.12837e-05
2.11679e-05
2.10783e-05
2.10187e-05
2.09952e-05
2.1011e-05
2.00564e-05
1.88295e-05
1.90855e-05
1.93242e-05
1.95471e-05
1.97552e-05
1.99494e-05
2.01304e-05
2.02991e-05
2.04561e-05
2.06024e-05
2.07385e-05
2.08652e-05
2.09833e-05
2.10934e-05
2.11961e-05
2.12922e-05
2.13822e-05
2.14667e-05
2.15464e-05
2.16218e-05
2.16934e-05
2.17618e-05
2.18277e-05
2.18917e-05
2.19543e-05
2.20165e-05
2.20791e-05
2.21433e-05
2.22202e-05
2.23588e-05
2.24305e-05
2.25043e-05
2.25801e-05
2.26387e-05
2.26528e-05
2.25983e-05
2.24689e-05
2.22809e-05
2.20647e-05
2.18496e-05
2.16539e-05
2.1485e-05
2.13438e-05
2.12291e-05
2.11402e-05
2.10775e-05
2.1043e-05
2.10393e-05
2.10658e-05
2.00678e-05
1.88388e-05
1.90945e-05
1.9333e-05
1.95555e-05
1.97632e-05
1.9957e-05
2.01376e-05
2.03059e-05
2.04625e-05
2.06083e-05
2.07441e-05
2.08704e-05
2.0988e-05
2.10977e-05
2.12e-05
2.12956e-05
2.13852e-05
2.14693e-05
2.15485e-05
2.16233e-05
2.16944e-05
2.17624e-05
2.18277e-05
2.18911e-05
2.19531e-05
2.20147e-05
2.20766e-05
2.214e-05
2.22163e-05
2.23551e-05
2.24257e-05
2.24967e-05
2.25657e-05
2.2611e-05
2.26045e-05
2.25249e-05
2.23715e-05
2.21664e-05
2.19437e-05
2.17329e-05
2.15507e-05
2.1402e-05
2.12853e-05
2.11975e-05
2.1136e-05
2.10994e-05
2.10875e-05
2.10999e-05
2.11326e-05
2.0079e-05
1.88481e-05
1.91035e-05
1.93416e-05
1.95638e-05
1.97711e-05
1.99645e-05
2.01447e-05
2.03126e-05
2.04688e-05
2.06142e-05
2.07495e-05
2.08753e-05
2.09925e-05
2.11017e-05
2.12036e-05
2.12988e-05
2.13878e-05
2.14714e-05
2.15501e-05
2.16244e-05
2.16949e-05
2.17622e-05
2.18269e-05
2.18896e-05
2.19509e-05
2.20115e-05
2.20725e-05
2.21349e-05
2.221e-05
2.23484e-05
2.24168e-05
2.24833e-05
2.25435e-05
2.25739e-05
2.25467e-05
2.24445e-05
2.22719e-05
2.2056e-05
2.18329e-05
2.16316e-05
2.14667e-05
2.13406e-05
2.12499e-05
2.11893e-05
2.11543e-05
2.11417e-05
2.11492e-05
2.11735e-05
2.12083e-05
2.00902e-05
1.88574e-05
1.91124e-05
1.93501e-05
1.9572e-05
1.97789e-05
1.99719e-05
2.01517e-05
2.03192e-05
2.0475e-05
2.06199e-05
2.07547e-05
2.08802e-05
2.09969e-05
2.11056e-05
2.1207e-05
2.13016e-05
2.13902e-05
2.14732e-05
2.15513e-05
2.1625e-05
2.16949e-05
2.17615e-05
2.18254e-05
2.18873e-05
2.19476e-05
2.20072e-05
2.2067e-05
2.21281e-05
2.22017e-05
2.2339e-05
2.2404e-05
2.24645e-05
2.25144e-05
2.25292e-05
2.24828e-05
2.23617e-05
2.21757e-05
2.19554e-05
2.17373e-05
2.15494e-05
2.14043e-05
2.13021e-05
2.12374e-05
2.12029e-05
2.11924e-05
2.12009e-05
2.12239e-05
2.12562e-05
2.12896e-05
2.01014e-05
1.88666e-05
1.91213e-05
1.93587e-05
1.95802e-05
1.97867e-05
1.99793e-05
2.01587e-05
2.03257e-05
2.04811e-05
2.06256e-05
2.07599e-05
2.08849e-05
2.10011e-05
2.11093e-05
2.12102e-05
2.13043e-05
2.13923e-05
2.14747e-05
2.15522e-05
2.16253e-05
2.16944e-05
2.17603e-05
2.18234e-05
2.18843e-05
2.19436e-05
2.2002e-05
2.20603e-05
2.21199e-05
2.21915e-05
2.2327e-05
2.23876e-05
2.24411e-05
2.24798e-05
2.24794e-05
2.24161e-05
2.2281e-05
2.20877e-05
2.18686e-05
2.166e-05
2.14884e-05
2.13642e-05
2.12859e-05
2.12459e-05
2.12354e-05
2.12465e-05
2.12726e-05
2.13075e-05
2.13443e-05
2.1374e-05
2.01127e-05
1.88759e-05
1.91303e-05
1.93673e-05
1.95884e-05
1.97945e-05
1.99867e-05
2.01657e-05
2.03322e-05
2.04872e-05
2.06312e-05
2.07651e-05
2.08895e-05
2.10053e-05
2.1113e-05
2.12133e-05
2.13068e-05
2.13942e-05
2.14761e-05
2.15529e-05
2.16253e-05
2.16937e-05
2.17587e-05
2.18209e-05
2.18808e-05
2.19389e-05
2.1996e-05
2.20528e-05
2.21104e-05
2.21798e-05
2.23129e-05
2.23683e-05
2.24138e-05
2.24411e-05
2.24268e-05
2.23502e-05
2.22061e-05
2.2011e-05
2.17981e-05
2.16025e-05
2.14487e-05
2.13456e-05
2.12899e-05
2.12725e-05
2.12832e-05
2.13126e-05
2.13527e-05
2.13961e-05
2.14349e-05
2.14593e-05
2.0124e-05
1.88853e-05
1.91393e-05
1.93759e-05
1.95966e-05
1.98024e-05
1.99942e-05
2.01727e-05
2.03388e-05
2.04933e-05
2.06368e-05
2.07702e-05
2.08942e-05
2.10094e-05
2.11166e-05
2.12164e-05
2.13093e-05
2.13961e-05
2.14773e-05
2.15535e-05
2.16251e-05
2.16928e-05
2.17569e-05
2.18181e-05
2.18769e-05
2.19338e-05
2.19894e-05
2.20445e-05
2.21001e-05
2.21669e-05
2.2297e-05
2.23466e-05
2.23838e-05
2.24003e-05
2.2374e-05
2.22877e-05
2.21395e-05
2.19478e-05
2.1745e-05
2.15647e-05
2.14293e-05
2.13464e-05
2.13114e-05
2.13139e-05
2.13425e-05
2.13868e-05
2.14376e-05
2.14867e-05
2.15256e-05
2.15443e-05
2.01356e-05
1.88948e-05
1.91484e-05
1.93847e-05
1.9605e-05
1.98104e-05
2.00017e-05
2.01798e-05
2.03455e-05
2.04995e-05
2.06425e-05
2.07754e-05
2.08989e-05
2.10136e-05
2.11202e-05
2.12194e-05
2.13118e-05
2.1398e-05
2.14786e-05
2.1554e-05
2.16249e-05
2.16917e-05
2.1755e-05
2.18152e-05
2.18728e-05
2.19284e-05
2.19825e-05
2.20358e-05
2.20892e-05
2.21532e-05
2.22798e-05
2.23235e-05
2.23524e-05
2.23589e-05
2.23231e-05
2.22308e-05
2.2083e-05
2.18987e-05
2.17091e-05
2.15454e-05
2.14283e-05
2.1364e-05
2.13472e-05
2.13667e-05
2.141e-05
2.1466e-05
2.15247e-05
2.15774e-05
2.16153e-05
2.16286e-05
2.01474e-05
1.89045e-05
1.91577e-05
1.93936e-05
1.96135e-05
1.98185e-05
2.00094e-05
2.0187e-05
2.03522e-05
2.05057e-05
2.06483e-05
2.07807e-05
2.09037e-05
2.10179e-05
2.1124e-05
2.12226e-05
2.13144e-05
2.14e-05