/*--------------------------------*- C++ -*----------------------------------*\
  =========                 |
  \\      /  F ield         | OpenFOAM: The Open Source CFD Toolbox
   \\    /   O peration     | Website:  https://openfoam.org
    \\  /    A nd           | Version:  9
     \\/     M anipulation  |
\*---------------------------------------------------------------------------*/
FoamFile
{
    format      ascii;
    class       surfaceVectorField;
    location    "0.07";
    object      Uf;
}
// * * * * * * * * * * * * * * * * * * * * * * * * * * * * * * * * * * * * * //

dimensions      [0 1 -1 0 0 0 0];

internalField   nonuniform List<vector> 
9850
(
(-0.223341 0 -0.0594224)
(-0.223276 0 -0.0573914)
(-0.223358 0 -0.0631498)
(-0.223294 0 -0.0614918)
(-0.223385 0 -0.0662713)
(-0.223325 0 -0.0648029)
(-0.223424 0 -0.0692003)
(-0.223365 0 -0.0676951)
(-0.223477 0 -0.0722376)
(-0.223419 0 -0.0706292)
(-0.223547 0 -0.0754646)
(-0.223489 0 -0.0737389)
(-0.223635 0 -0.0789017)
(-0.223577 0 -0.0770517)
(-0.223743 0 -0.082563)
(-0.223685 0 -0.0805807)
(-0.223873 0 -0.0864655)
(-0.223815 0 -0.0843414)
(-0.224028 0 -0.0906293)
(-0.22397 0 -0.0883527)
(-0.224209 0 -0.095077)
(-0.224152 0 -0.092636)
(-0.224418 0 -0.0998341)
(-0.224362 0 -0.0972158)
(-0.224658 0 -0.104929)
(-0.224604 0 -0.102119)
(-0.224929 0 -0.110395)
(-0.224879 0 -0.107377)
(-0.225232 0 -0.116267)
(-0.225189 0 -0.113025)
(-0.225566 0 -0.122588)
(-0.225533 0 -0.119101)
(-0.225931 0 -0.129405)
(-0.225913 0 -0.125652)
(-0.226322 0 -0.136769)
(-0.226325 0 -0.132727)
(-0.226731 0 -0.144742)
(-0.226766 0 -0.140384)
(-0.22715 0 -0.153388)
(-0.227229 0 -0.148689)
(-0.227559 0 -0.162783)
(-0.227702 0 -0.157714)
(-0.227935 0 -0.173009)
(-0.228165 0 -0.167541)
(-0.22824 0 -0.184157)
(-0.228592 0 -0.178262)
(-0.22842 0 -0.196329)
(-0.22894 0 -0.189978)
(-0.228394 0 -0.209637)
(-0.229149 0 -0.202806)
(-0.228044 0 -0.224218)
(-0.229129 0 -0.216879)
(-0.227177 0 -0.240284)
(-0.228738 0 -0.232382)
(-0.225467 0 -0.258213)
(-0.227735 0 -0.24963)
(-0.222356 0 -0.278673)
(-0.225693 0 -0.269205)
(-0.216957 0 -0.302631)
(-0.221967 0 -0.292051)
(-0.206317 0 -0.335479)
(-0.214782 0 -0.321626)
(-0.190576 0 -0.370415)
(-0.202267 0 -0.35782)
(-0.170798 0 -0.402164)
(-0.185056 0 -0.394204)
(-0.150749 0 -0.421527)
(-0.166153 0 -0.422112)
(-0.136143 0 -0.418674)
(-0.150996 0 -0.430336)
(-0.132297 0 -0.387639)
(-0.145527 0 -0.410184)
(-0.141879 0 -0.328905)
(-0.153346 0 -0.359753)
(-0.164419 0 -0.24823)
(-0.174606 0 -0.283992)
(-0.197412 0 -0.15304)
(-0.206878 0 -0.191129)
(-0.23768 0 -0.0490933)
(-0.246705 0 -0.0885568)
(-0.281815 0 0.060569)
(-0.290504 0 0.0193577)
(-0.325371 0 0.173634)
(-0.33422 0 0.130454)
(-0.361696 0 0.284351)
(-0.372153 0 0.241258)
(-0.382537 0 0.38005)
(-0.396617 0 0.342836)
(-0.382101 0 0.443016)
(-0.400463 0 0.419638)
(-0.362762 0 0.461222)
(-0.382539 0 0.45567)
(-0.336771 0 0.443482)
(-0.35187 0 0.448676)
(-0.319815 0 0.422892)
(-0.324959 0 0.422333)
(-0.319958 0 0.434055)
(-0.315574 0 0.417114)
(-0.324119 0 0.454517)
(-0.223234 0 -0.0593628)
(-0.223131 0 -0.0573213)
(-0.223264 0 -0.0630658)
(-0.223167 0 -0.0613996)
(-0.223305 0 -0.0661576)
(-0.223213 0 -0.0646818)
(-0.223359 0 -0.0690538)
(-0.223269 0 -0.0675414)
(-0.223429 0 -0.0720561)
(-0.22334 0 -0.0704405)
(-0.223517 0 -0.0752468)
(-0.223429 0 -0.0735134)
(-0.223624 0 -0.0786463)
(-0.223538 0 -0.076788)
(-0.223754 0 -0.0822691)
(-0.223668 0 -0.0802775)
(-0.223909 0 -0.0861325)
(-0.223824 0 -0.0839978)
(-0.22409 0 -0.0902568)
(-0.224007 0 -0.0879679)
(-0.2243 0 -0.0946652)
(-0.224219 0 -0.0922097)
(-0.224543 0 -0.0993836)
(-0.224464 0 -0.096748)
(-0.224819 0 -0.104441)
(-0.224745 0 -0.101611)
(-0.225132 0 -0.109872)
(-0.225064 0 -0.106829)
(-0.225482 0 -0.115713)
(-0.225424 0 -0.112439)
(-0.225871 0 -0.122008)
(-0.225825 0 -0.118482)
(-0.226298 0 -0.128804)
(-0.226271 0 -0.125004)
(-0.22676 0 -0.136158)
(-0.226759 0 -0.132057)
(-0.227254 0 -0.144133)
(-0.22729 0 -0.139703)
(-0.227771 0 -0.152799)
(-0.227857 0 -0.148009)
(-0.228298 0 -0.162236)
(-0.228454 0 -0.157053)
(-0.228814 0 -0.172536)
(-0.229065 0 -0.166924)
(-0.229287 0 -0.1838)
(-0.22967 0 -0.177722)
(-0.229669 0 -0.196145)
(-0.230234 0 -0.189562)
(-0.229891 0 -0.209708)
(-0.230706 0 -0.202576)
(-0.229841 0 -0.224667)
(-0.231008 0 -0.216928)
(-0.229334 0 -0.24131)
(-0.231011 0 -0.232859)
(-0.228047 0 -0.260149)
(-0.230484 0 -0.250786)
(-0.225418 0 -0.282032)
(-0.229004 0 -0.271455)
(-0.220587 0 -0.308066)
(-0.225933 0 -0.295993)
(-0.210911 0 -0.343969)
(-0.219685 0 -0.328077)
(-0.196914 0 -0.381621)
(-0.208784 0 -0.367151)
(-0.180501 0 -0.414183)
(-0.194552 0 -0.405146)
(-0.166248 0 -0.430983)
(-0.180896 0 -0.431613)
(-0.159976 0 -0.421938)
(-0.17363 0 -0.434518)
(-0.166076 0 -0.382403)
(-0.177985 0 -0.406118)
(-0.185673 0 -0.314934)
(-0.196038 0 -0.346689)
(-0.216854 0 -0.226955)
(-0.226386 0 -0.263205)
(-0.256113 0 -0.126668)
(-0.265488 0 -0.164957)
(-0.29955 0 -0.0200802)
(-0.309155 0 -0.0595989)
(-0.342982 0 0.0893199)
(-0.353114 0 0.0483124)
(-0.381187 0 0.198203)
(-0.39252 0 0.155924)
(-0.407449 0 0.299897)
(-0.421289 0 0.258765)
(-0.415057 0 0.382574)
(-0.43271 0 0.347908)
(-0.401291 0 0.432408)
(-0.422391 0 0.41046)
(-0.371646 0 0.443197)
(-0.392652 0 0.435907)
(-0.339802 0 0.427568)
(-0.354777 0 0.427447)
(-0.320589 0 0.416581)
(-0.325158 0 0.409524)
(-0.31981 0 0.437596)
(-0.315397 0 0.416594)
(-0.323285 0 0.461465)
(-0.223074 0 -0.0592606)
(-0.22293 0 -0.0572072)
(-0.223119 0 -0.062937)
(-0.222986 0 -0.0612606)
(-0.223176 0 -0.0659972)
(-0.223049 0 -0.0645117)
(-0.223248 0 -0.0688587)
(-0.223123 0 -0.0673368)
(-0.223338 0 -0.0718243)
(-0.223214 0 -0.0701989)
(-0.223447 0 -0.0749764)
(-0.223324 0 -0.0732328)
(-0.223579 0 -0.0783358)
(-0.223457 0 -0.0764665)
(-0.223735 0 -0.0819173)
(-0.223614 0 -0.0799136)
(-0.223918 0 -0.0857383)
(-0.223799 0 -0.08359)
(-0.224131 0 -0.0898194)
(-0.224014 0 -0.087515)
(-0.224378 0 -0.094184)
(-0.224263 0 -0.0917107)
(-0.224661 0 -0.0988587)
(-0.224549 0 -0.0962022)
(-0.224983 0 -0.103873)
(-0.224876 0 -0.101018)
(-0.225348 0 -0.109262)
(-0.225248 0 -0.10619)
(-0.225757 0 -0.115063)
(-0.225668 0 -0.111754)
(-0.226215 0 -0.121322)
(-0.226139 0 -0.117753)
(-0.226721 0 -0.128088)
(-0.226664 0 -0.124235)
(-0.227277 0 -0.135418)
(-0.227247 0 -0.131253)
(-0.22788 0 -0.14338)
(-0.227887 0 -0.13887)
(-0.228526 0 -0.152047)
(-0.228585 0 -0.147158)
(-0.229208 0 -0.161504)
(-0.229336 0 -0.156199)
(-0.229909 0 -0.171851)
(-0.230134 0 -0.166085)
(-0.230607 0 -0.183199)
(-0.230964 0 -0.176927)
(-0.231264 0 -0.195679)
(-0.231802 0 -0.188848)
(-0.231824 0 -0.209449)
(-0.232612 0 -0.201996)
(-0.232189 0 -0.224734)
(-0.233331 0 -0.216567)
(-0.232189 0 -0.2419)
(-0.233847 0 -0.232858)
(-0.231514 0 -0.261591)
(-0.23395 0 -0.251392)
(-0.229626 0 -0.284822)
(-0.233242 0 -0.27307)
(-0.225746 0 -0.312768)
(-0.231125 0 -0.299158)
(-0.217751 0 -0.351257)
(-0.226326 0 -0.333407)
(-0.206593 0 -0.390683)
(-0.217921 0 -0.37459)
(-0.194999 0 -0.422599)
(-0.20793 0 -0.412875)
(-0.188055 0 -0.435188)
(-0.200927 0 -0.436242)
(-0.191183 0 -0.418743)
(-0.202606 0 -0.432432)
(-0.207453 0 -0.370431)
(-0.217016 0 -0.395271)
(-0.236398 0 -0.294947)
(-0.244604 0 -0.327392)
(-0.274857 0 -0.201145)
(-0.282604 0 -0.237565)
(-0.3185 0 -0.0977784)
(-0.326598 0 -0.135861)
(-0.36276 0 0.00894482)
(-0.371779 0 -0.030092)
(-0.402761 0 0.115105)
(-0.413242 0 0.0749795)
(-0.432867 0 0.216698)
(-0.445624 0 0.175995)
(-0.446971 0 0.306987)
(-0.463066 0 0.268168)
(-0.440531 0 0.375975)
(-0.460517 0 0.343614)
(-0.414038 0 0.414091)
(-0.436616 0 0.392798)
(-0.375695 0 0.420241)
(-0.396815 0 0.410345)
(-0.339876 0 0.409457)
(-0.353934 0 0.403568)
(-0.319874 0 0.409578)
(-0.323476 0 0.396189)
(-0.31895 0 0.440498)
(-0.314404 0 0.415978)
(-0.321994 0 0.467566)
(-0.222856 0 -0.0591103)
(-0.222667 0 -0.0570446)
(-0.222918 0 -0.0627575)
(-0.222744 0 -0.0610699)
(-0.222993 0 -0.0657838)
(-0.222826 0 -0.0642874)
(-0.223086 0 -0.0686084)
(-0.222919 0 -0.0670755)
(-0.223197 0 -0.0715347)
(-0.223032 0 -0.069898)
(-0.223331 0 -0.0746454)
(-0.223167 0 -0.0728899)
(-0.223489 0 -0.0779617)
(-0.223326 0 -0.0760796)
(-0.223674 0 -0.0814982)
(-0.223512 0 -0.0794807)
(-0.22389 0 -0.0852727)
(-0.223729 0 -0.083109)
(-0.22414 0 -0.0893058)
(-0.223981 0 -0.0869841)
(-0.224428 0 -0.0936212)
(-0.224271 0 -0.0911281)
(-0.224758 0 -0.0982457)
(-0.224603 0 -0.0955663)
(-0.225133 0 -0.10321)
(-0.224983 0 -0.100327)
(-0.225559 0 -0.108548)
(-0.225414 0 -0.105444)
(-0.226038 0 -0.1143)
(-0.225902 0 -0.110952)
(-0.226576 0 -0.12051)
(-0.226452 0 -0.116896)
(-0.227177 0 -0.127231)
(-0.22707 0 -0.123323)
(-0.227843 0 -0.134521)
(-0.22776 0 -0.130289)
(-0.228576 0 -0.142449)
(-0.228527 0 -0.137858)
(-0.229378 0 -0.151092)
(-0.229375 0 -0.146104)
(-0.230245 0 -0.160541)
(-0.230306 0 -0.155111)
(-0.231171 0 -0.170899)
(-0.231321 0 -0.164978)
(-0.232143 0 -0.182287)
(-0.232414 0 -0.175819)
(-0.233136 0 -0.194848)
(-0.233575 0 -0.187768)
(-0.23411 0 -0.208762)
(-0.234783 0 -0.200987)
(-0.234988 0 -0.224298)
(-0.235996 0 -0.2157)
(-0.235622 0 -0.241902)
(-0.237125 0 -0.232261)
(-0.235731 0 -0.262346)
(-0.23799 0 -0.251295)
(-0.234832 0 -0.286775)
(-0.238242 0 -0.273839)
(-0.232285 0 -0.316341)
(-0.237363 0 -0.301236)
(-0.226695 0 -0.356731)
(-0.234519 0 -0.337134)
(-0.219419 0 -0.396777)
(-0.229451 0 -0.37944)
(-0.21386 0 -0.42652)
(-0.22477 0 -0.416581)
(-0.215194 0 -0.433488)
(-0.225351 0 -0.435353)
(-0.227964 0 -0.408945)
(-0.236249 0 -0.423919)
(-0.253711 0 -0.352177)
(-0.26004 0 -0.378106)
(-0.290518 0 -0.269901)
(-0.295638 0 -0.302854)
(-0.334231 0 -0.172119)
(-0.339207 0 -0.208424)
(-0.379874 0 -0.0679732)
(-0.385685 0 -0.105432)
(-0.42232 0 0.036177)
(-0.429775 0 -0.0017948)
(-0.456248 0 0.136128)
(-0.466139 0 0.0975986)
(-0.476113 0 0.22772)
(-0.489323 0 0.189238)
(-0.477049 0 0.305021)
(-0.494306 0 0.268792)
(-0.457035 0 0.360612)
(-0.478151 0 0.330272)
(-0.419575 0 0.389172)
(-0.442451 0 0.367825)
(-0.374903 0 0.393749)
(-0.395169 0 0.380563)
(-0.337293 0 0.390354)
(-0.349821 0 0.378495)
(-0.317949 0 0.402631)
(-0.320337 0 0.383293)
(-0.317525 0 0.443081)
(-0.312813 0 0.415695)
(-0.320297 0 0.472932)
(-0.222575 0 -0.0589079)
(-0.222335 0 -0.0568303)
(-0.222654 0 -0.0625228)
(-0.222436 0 -0.060824)
(-0.222749 0 -0.0655125)
(-0.222536 0 -0.0640049)
(-0.222863 0 -0.0682976)
(-0.222651 0 -0.0667534)
(-0.222998 0 -0.0711816)
(-0.222787 0 -0.0695332)
(-0.223158 0 -0.0742477)
(-0.222947 0 -0.0724799)
(-0.223345 0 -0.0775171)
(-0.223134 0 -0.0756219)
(-0.223562 0 -0.0810045)
(-0.223351 0 -0.0789726)
(-0.223814 0 -0.0847275)
(-0.223603 0 -0.082548)
(-0.224105 0 -0.088707)
(-0.223894 0 -0.0863676)
(-0.224438 0 -0.0929667)
(-0.224228 0 -0.0904535)
(-0.224819 0 -0.0975336)
(-0.22461 0 -0.0948311)
(-0.225253 0 -0.102438)
(-0.225046 0 -0.099529)
(-0.225746 0 -0.107716)
(-0.225542 0 -0.10458)
(-0.226303 0 -0.113406)
(-0.226104 0 -0.110021)
(-0.226931 0 -0.119554)
(-0.22674 0 -0.115895)
(-0.227637 0 -0.126213)
(-0.227458 0 -0.122251)
(-0.228426 0 -0.133443)
(-0.228266 0 -0.129146)
(-0.229306 0 -0.141314)
(-0.229172 0 -0.136643)
(-0.230282 0 -0.149905)
(-0.230185 0 -0.144819)
(-0.231359 0 -0.159309)
(-0.231314 0 -0.15376)
(-0.23254 0 -0.169636)
(-0.232567 0 -0.163566)
(-0.233822 0 -0.181011)
(-0.233952 0 -0.174357)
(-0.235199 0 -0.193588)
(-0.23547 0 -0.186272)
(-0.236648 0 -0.207568)
(-0.237121 0 -0.199486)
(-0.238117 0 -0.223261)
(-0.238885 0 -0.214248)
(-0.239489 0 -0.241192)
(-0.240702 0 -0.230969)
(-0.240528 0 -0.262241)
(-0.242435 0 -0.250363)
(-0.240842 0 -0.287635)
(-0.243805 0 -0.27357)
(-0.239989 0 -0.318403)
(-0.24442 0 -0.301932)
(-0.237469 0 -0.359827)
(-0.243986 0 -0.338814)
(-0.234943 0 -0.399227)
(-0.242958 0 -0.381124)
(-0.236212 0 -0.425391)
(-0.244313 0 -0.415736)
(-0.246081 0 -0.425743)
(-0.252778 0 -0.428773)
(-0.267861 0 -0.393004)
(-0.272346 0 -0.409399)
(-0.301571 0 -0.328655)
(-0.304042 0 -0.355633)
(-0.344104 0 -0.241195)
(-0.345501 0 -0.274499)
(-0.39059 0 -0.141511)
(-0.392137 0 -0.177433)
(-0.435606 0 -0.0390048)
(-0.438476 0 -0.0754219)
(-0.473669 0 0.0598927)
(-0.478931 0 0.0235806)
(-0.499385 0 0.150981)
(-0.508038 0 0.114743)
(-0.507831 0 0.23056)
(-0.520738 0 0.194869)
(-0.495834 0 0.294247)
(-0.513328 0 0.260794)
(-0.46393 0 0.337631)
(-0.485139 0 0.309002)
(-0.418135 0 0.359312)
(-0.440327 0 0.337295)
(-0.369897 0 0.365371)
(-0.388573 0 0.348405)
(-0.332651 0 0.371478)
(-0.34326 0 0.353664)
(-0.31517 0 0.396392)
(-0.316251 0 0.371639)
(-0.315653 0 0.445576)
(-0.310802 0 0.416017)
(-0.31818 0 0.47759)
(-0.222222 0 -0.0586509)
(-0.221928 0 -0.0565626)
(-0.222319 0 -0.0622301)
(-0.222052 0 -0.0605211)
(-0.222435 0 -0.0651801)
(-0.222172 0 -0.0636621)
(-0.222571 0 -0.0679225)
(-0.222308 0 -0.0663678)
(-0.222731 0 -0.0707611)
(-0.222467 0 -0.0691018)
(-0.222918 0 -0.0737789)
(-0.222653 0 -0.0719997)
(-0.223135 0 -0.0769971)
(-0.222869 0 -0.0750898)
(-0.223387 0 -0.0804305)
(-0.223119 0 -0.0783855)
(-0.223676 0 -0.0840966)
(-0.223408 0 -0.0819028)
(-0.224009 0 -0.0880162)
(-0.223739 0 -0.0856608)
(-0.224391 0 -0.0922129)
(-0.224118 0 -0.0896817)
(-0.224826 0 -0.0967138)
(-0.224552 0 -0.0939907)
(-0.225323 0 -0.101549)
(-0.225047 0 -0.0986162)
(-0.225887 0 -0.106755)
(-0.22561 0 -0.103591)
(-0.226527 0 -0.11237)
(-0.22625 0 -0.108952)
(-0.227251 0 -0.11844)
(-0.226976 0 -0.114742)
(-0.228068 0 -0.125018)
(-0.227799 0 -0.121009)
(-0.22899 0 -0.132166)
(-0.228729 0 -0.127811)
(-0.230027 0 -0.139952)
(-0.22978 0 -0.135212)
(-0.23119 0 -0.148459)
(-0.230967 0 -0.143288)
(-0.232493 0 -0.15778)
(-0.232304 0 -0.152125)
(-0.233948 0 -0.168027)
(-0.233809 0 -0.161827)
(-0.235566 0 -0.17933)
(-0.235501 0 -0.172512)
(-0.237358 0 -0.19185)
(-0.237398 0 -0.184325)
(-0.239323 0 -0.205808)
(-0.239518 0 -0.19745)
(-0.241438 0 -0.22155)
(-0.241867 0 -0.21216)
(-0.243623 0 -0.239669)
(-0.24442 0 -0.228911)
(-0.245707 0 -0.261128)
(-0.247092 0 -0.248493)
(-0.247423 0 -0.287176)
(-0.249702 0 -0.272102)
(-0.248573 0 -0.318615)
(-0.252019 0 -0.300993)
(-0.249654 0 -0.36009)
(-0.25435 0 -0.338093)
(-0.252442 0 -0.397604)
(-0.257831 0 -0.379266)
(-0.260784 0 -0.419073)
(-0.265492 0 -0.410174)
(-0.278702 0 -0.412353)
(-0.281475 0 -0.416828)
(-0.308102 0 -0.371907)
(-0.30845 0 -0.389799)
(-0.347651 0 -0.301303)
(-0.346002 0 -0.329267)
(-0.393379 0 -0.210518)
(-0.390821 0 -0.244014)
(-0.439986 0 -0.111095)
(-0.437881 0 -0.146361)
(-0.481831 0 -0.0125773)
(-0.481552 0 -0.0475255)
(-0.513382 0 0.0786865)
(-0.516223 0 0.0446149)
(-0.529576 0 0.158869)
(-0.536674 0 0.125538)
(-0.526557 0 0.225306)
(-0.538664 0 0.192857)
(-0.503031 0 0.275704)
(-0.520067 0 0.24511)
(-0.461828 0 0.308771)
(-0.482331 0 0.281534)
(-0.410784 0 0.326455)
(-0.431569 0 0.303265)
(-0.36173 0 0.336743)
(-0.378342 0 0.315702)
(-0.326678 0 0.353861)
(-0.335202 0 0.330296)
(-0.311873 0 0.391295)
(-0.311684 0 0.361769)
(-0.313384 0 0.448059)
(-0.30846 0 0.417024)
(-0.315551 0 0.481484)
(-0.221789 0 -0.0583382)
(-0.221437 0 -0.0562412)
(-0.221905 0 -0.0618781)
(-0.221584 0 -0.0601608)
(-0.222041 0 -0.0647852)
(-0.221723 0 -0.0632585)
(-0.2222 0 -0.0674817)
(-0.221881 0 -0.0659182)
(-0.222385 0 -0.0702711)
(-0.222064 0 -0.068603)
(-0.2226 0 -0.0732366)
(-0.222276 0 -0.0714482)
(-0.222848 0 -0.0763992)
(-0.222521 0 -0.0744821)
(-0.223134 0 -0.0797735)
(-0.222803 0 -0.077718)
(-0.223462 0 -0.0833769)
(-0.223128 0 -0.0811717)
(-0.223838 0 -0.0872299)
(-0.223499 0 -0.0848619)
(-0.224269 0 -0.0913561)
(-0.223925 0 -0.0888106)
(-0.22476 0 -0.0957821)
(-0.22441 0 -0.0930427)
(-0.22532 0 -0.100538)
(-0.224964 0 -0.0975863)
(-0.225958 0 -0.105659)
(-0.225595 0 -0.102474)
(-0.226682 0 -0.111185)
(-0.226313 0 -0.107741)
(-0.227505 0 -0.117161)
(-0.22713 0 -0.113432)
(-0.228437 0 -0.123639)
(-0.228058 0 -0.119593)
(-0.229495 0 -0.13068)
(-0.229112 0 -0.12628)
(-0.230693 0 -0.138354)
(-0.23031 0 -0.133559)
(-0.232049 0 -0.146741)
(-0.231672 0 -0.141503)
(-0.233585 0 -0.155938)
(-0.233219 0 -0.150199)
(-0.235323 0 -0.166053)
(-0.234979 0 -0.159748)
(-0.237289 0 -0.177221)
(-0.236981 0 -0.17027)
(-0.239511 0 -0.189607)
(-0.239262 0 -0.18191)
(-0.242012 0 -0.203445)
(-0.241858 0 -0.194859)
(-0.244799 0 -0.219114)
(-0.244804 0 -0.209406)
(-0.247842 0 -0.237259)
(-0.248111 0 -0.226046)
(-0.251047 0 -0.258892)
(-0.251758 0 -0.245615)
(-0.254302 0 -0.285215)
(-0.255681 0 -0.269316)
(-0.257675 0 -0.31672)
(-0.259834 0 -0.298241)
(-0.262684 0 -0.357243)
(-0.265141 0 -0.334753)
(-0.270966 0 -0.391797)
(-0.273298 0 -0.373745)
(-0.286056 0 -0.407868)
(-0.287046 0 -0.400115)
(-0.310891 0 -0.394176)
(-0.309598 0 -0.400271)
(-0.345985 0 -0.347016)
(-0.342219 0 -0.366403)
(-0.388929 0 -0.27179)
(-0.383292 0 -0.300638)
(-0.435227 0 -0.179639)
(-0.428905 0 -0.213148)
(-0.479435 0 -0.0825598)
(-0.473901 0 -0.116889)
(-0.515974 0 0.00989505)
(-0.512759 0 -0.0231662)
(-0.539595 0 0.0916756)
(-0.540153 0 0.0603621)
(-0.545946 0 0.159702)
(-0.551456 0 0.129773)
(-0.532487 0 0.212796)
(-0.543527 0 0.183884)
(-0.499727 0 0.251033)
(-0.515826 0 0.22327)
(-0.452302 0 0.276086)
(-0.471533 0 0.249917)
(-0.399099 0 0.292549)
(-0.41801 0 0.267797)
(-0.351611 0 0.309283)
(-0.365931 0 0.284043)
(-0.32006 0 0.33823)
(-0.326515 0 0.309262)
(-0.308278 0 0.387524)
(-0.306953 0 0.353915)
(-0.310665 0 0.450475)
(-0.305753 0 0.418616)
(-0.312247 0 0.484503)
(-0.221268 0 -0.0579701)
(-0.220854 0 -0.055867)
(-0.221402 0 -0.0614671)
(-0.221022 0 -0.0597439)
(-0.221558 0 -0.064328)
(-0.221181 0 -0.0627951)
(-0.221739 0 -0.0669752)
(-0.221359 0 -0.0654056)
(-0.221949 0 -0.0697119)
(-0.221565 0 -0.0680376)
(-0.222191 0 -0.072621)
(-0.221803 0 -0.0708264)
(-0.22247 0 -0.0757234)
(-0.222076 0 -0.0737999)
(-0.222789 0 -0.0790334)
(-0.22239 0 -0.0769712)
(-0.223156 0 -0.0825682)
(-0.222749 0 -0.0803557)
(-0.223575 0 -0.0863479)
(-0.22316 0 -0.083972)
(-0.224054 0 -0.0903957)
(-0.22363 0 -0.0878414)
(-0.224601 0 -0.0947378)
(-0.224166 0 -0.0919883)
(-0.225224 0 -0.0994043)
(-0.224778 0 -0.0964405)
(-0.225934 0 -0.104429)
(-0.225474 0 -0.101229)
(-0.226742 0 -0.109851)
(-0.226268 0 -0.106391)
(-0.227661 0 -0.115715)
(-0.227173 0 -0.111966)
(-0.228708 0 -0.122073)
(-0.228203 0 -0.118003)
(-0.2299 0 -0.128984)
(-0.229378 0 -0.124555)
(-0.231257 0 -0.136517)
(-0.230719 0 -0.131685)
(-0.232805 0 -0.14475)
(-0.23225 0 -0.139466)
(-0.234572 0 -0.153779)
(-0.234001 0 -0.147983)
(-0.236591 0 -0.163711)
(-0.236008 0 -0.157334)
(-0.238902 0 -0.174678)
(-0.238313 0 -0.167635)
(-0.241551 0 -0.186849)
(-0.240967 0 -0.179031)
(-0.244585 0 -0.200467)
(-0.244028 0 -0.191714)
(-0.248047 0 -0.215934)
(-0.247556 0 -0.205987)
(-0.251956 0 -0.233927)
(-0.251604 0 -0.222365)
(-0.256314 0 -0.255463)
(-0.256223 0 -0.241703)
(-0.261176 0 -0.281638)
(-0.261474 0 -0.265155)
(-0.266876 0 -0.312581)
(-0.267507 0 -0.29359)
(-0.275883 0 -0.351226)
(-0.275819 0 -0.328749)
(-0.289436 0 -0.382018)
(-0.288492 0 -0.36471)
(-0.310445 0 -0.392448)
(-0.307672 0 -0.386109)
(-0.340623 0 -0.372392)
(-0.335429 0 -0.380152)
(-0.37923 0 -0.319881)
(-0.371702 0 -0.340665)
(-0.423098 0 -0.241822)
(-0.413956 0 -0.271392)
(-0.46753 0 -0.15021)
(-0.458004 0 -0.183528)
(-0.507224 0 -0.0573147)
(-0.498845 0 -0.0904266)
(-0.536961 0 0.0274641)
(-0.531338 0 -0.00334148)
(-0.55208 0 0.0985988)
(-0.550738 0 0.0704416)
(-0.549209 0 0.154059)
(-0.553283 0 0.127859)
(-0.52716 0 0.194426)
(-0.537023 0 0.169184)
(-0.487954 0 0.222191)
(-0.502804 0 0.197132)
(-0.437423 0 0.241645)
(-0.455016 0 0.21623)
(-0.384786 0 0.259302)
(-0.401571 0 0.232705)
(-0.340645 0 0.284035)
(-0.352634 0 0.254616)
(-0.313293 0 0.324963)
(-0.317827 0 0.291027)
(-0.304446 0 0.385026)
(-0.302174 0 0.348017)
(-0.307351 0 0.452666)
(-0.302528 0 0.420552)
(-0.30806 0 0.486517)
(-0.22065 0 -0.0575482)
(-0.22017 0 -0.0554423)
(-0.220801 0 -0.060999)
(-0.22036 0 -0.0592731)
(-0.220977 0 -0.0638103)
(-0.220536 0 -0.0622746)
(-0.221179 0 -0.066405)
(-0.220734 0 -0.0648327)
(-0.221413 0 -0.0690853)
(-0.220961 0 -0.0674087)
(-0.221681 0 -0.0719341)
(-0.221223 0 -0.0701373)
(-0.221988 0 -0.0749717)
(-0.221523 0 -0.0730463)
(-0.222341 0 -0.0782124)
(-0.221866 0 -0.0761484)
(-0.222744 0 -0.0816728)
(-0.222258 0 -0.0794587)
(-0.223204 0 -0.0853727)
(-0.222707 0 -0.082995)
(-0.223729 0 -0.0893346)
(-0.223218 0 -0.0867783)
(-0.224328 0 -0.0935842)
(-0.223802 0 -0.0908325)
(-0.225012 0 -0.0981508)
(-0.224467 0 -0.0951842)
(-0.22579 0 -0.103067)
(-0.225226 0 -0.0998642)
(-0.226678 0 -0.108372)
(-0.22609 0 -0.104907)
(-0.22769 0 -0.114109)
(-0.227077 0 -0.110353)
(-0.228846 0 -0.120327)
(-0.228203 0 -0.116248)
(-0.230165 0 -0.127084)
(-0.229491 0 -0.122644)
(-0.231675 0 -0.134447)
(-0.230964 0 -0.129601)
(-0.233405 0 -0.142493)
(-0.232653 0 -0.13719)
(-0.235391 0 -0.151312)
(-0.234595 0 -0.145491)
(-0.237677 0 -0.16101)
(-0.236833 0 -0.154599)
(-0.240317 0 -0.171713)
(-0.23942 0 -0.164625)
(-0.243374 0 -0.18359)
(-0.242422 0 -0.175709)
(-0.246918 0 -0.196888)
(-0.245915 0 -0.188042)
(-0.251026 0 -0.212021)
(-0.249988 0 -0.201929)
(-0.255774 0 -0.229672)
(-0.254734 0 -0.217894)
(-0.261266 0 -0.250825)
(-0.260278 0 -0.236774)
(-0.267723 0 -0.276416)
(-0.266811 0 -0.259629)
(-0.275717 0 -0.306201)
(-0.274665 0 -0.287068)
(-0.288527 0 -0.342203)
(-0.285821 0 -0.320209)
(-0.306765 0 -0.368756)
(-0.302551 0 -0.352551)
(-0.332512 0 -0.373743)
(-0.326178 0 -0.368945)
(-0.366249 0 -0.348325)
(-0.357575 0 -0.35766)
(-0.406203 0 -0.292049)
(-0.395521 0 -0.314029)
(-0.448757 0 -0.212955)
(-0.436852 0 -0.243023)
(-0.489302 0 -0.123601)
(-0.477384 0 -0.156498)
(-0.522962 0 -0.0363392)
(-0.512532 0 -0.0679866)
(-0.545116 0 0.0397249)
(-0.537792 0 0.0114278)
(-0.551986 0 0.0997744)
(-0.549238 0 0.0750215)
(-0.54125 0 0.143025)
(-0.544112 0 0.120702)
(-0.512938 0 0.171904)
(-0.521589 0 0.150309)
(-0.470156 0 0.191167)
(-0.483558 0 0.168611)
(-0.419312 0 0.20728)
(-0.435053 0 0.182334)
(-0.369353 0 0.228013)
(-0.383924 0 0.199399)
(-0.329649 0 0.261611)
(-0.339408 0 0.228147)
(-0.306623 0 0.314092)
(-0.309463 0 0.275677)
(-0.30028 0 0.383559)
(-0.297268 0 0.343788)
(-0.303228 0 0.454422)
(-0.298552 0 0.422518)
(-0.302775 0 0.487416)
(-0.219927 0 -0.0570757)
(-0.219379 0 -0.0549707)
(-0.220094 0 -0.060477)
(-0.219588 0 -0.0587523)
(-0.220287 0 -0.0632358)
(-0.219781 0 -0.061701)
(-0.22051 0 -0.0657748)
(-0.219996 0 -0.0642039)
(-0.220765 0 -0.0683954)
(-0.220243 0 -0.0667208)
(-0.221057 0 -0.0711799)
(-0.220526 0 -0.069386)
(-0.221392 0 -0.0741488)
(-0.22085 0 -0.0722267)
(-0.221774 0 -0.0773154)
(-0.221221 0 -0.0752555)
(-0.222211 0 -0.0806961)
(-0.221643 0 -0.0784867)
(-0.222709 0 -0.08431)
(-0.222125 0 -0.0819378)
(-0.223277 0 -0.0881791)
(-0.222674 0 -0.085629)
(-0.223925 0 -0.0923282)
(-0.223301 0 -0.0895832)
(-0.224663 0 -0.0967855)
(-0.224014 0 -0.0938265)
(-0.225505 0 -0.101583)
(-0.224828 0 -0.0983881)
(-0.226466 0 -0.106758)
(-0.225756 0 -0.103302)
(-0.227563 0 -0.112351)
(-0.226817 0 -0.108605)
(-0.228817 0 -0.118412)
(-0.228028 0 -0.114343)
(-0.230254 0 -0.124994)
(-0.229416 0 -0.120564)
(-0.231902 0 -0.132162)
(-0.231008 0 -0.127326)
(-0.233798 0 -0.139988)
(-0.232838 0 -0.134696)
(-0.235984 0 -0.148559)
(-0.23495 0 -0.142748)
(-0.238515 0 -0.157973)
(-0.237393 0 -0.151573)
(-0.241454 0 -0.168354)
(-0.240231 0 -0.161274)
(-0.244882 0 -0.179863)
(-0.243542 0 -0.171984)
(-0.248891 0 -0.192747)
(-0.24742 0 -0.183887)
(-0.253592 0 -0.207416)
(-0.251978 0 -0.197286)
(-0.259118 0 -0.224538)
(-0.25735 0 -0.21269)
(-0.265669 0 -0.245023)
(-0.263732 0 -0.230892)
(-0.273625 0 -0.269614)
(-0.271435 0 -0.25282)
(-0.28374 0 -0.297724)
(-0.280945 0 -0.278816)
(-0.299916 0 -0.33053)
(-0.29461 0 -0.309424)
(-0.321987 0 -0.352699)
(-0.314701 0 -0.337837)
(-0.351109 0 -0.3528)
(-0.34161 0 -0.34953)
(-0.386638 0 -0.32328)
(-0.375072 0 -0.333974)
(-0.426011 0 -0.264904)
(-0.412928 0 -0.287781)
(-0.465427 0 -0.186463)
(-0.451635 0 -0.216746)
(-0.500617 0 -0.100793)
(-0.487232 0 -0.133037)
(-0.52736 0 -0.0201551)
(-0.515764 0 -0.0501579)
(-0.541888 0 0.0467622)
(-0.533577 0 0.0211129)
(-0.541384 0 0.0959653)
(-0.537714 0 0.0746856)
(-0.524583 0 0.12798)
(-0.526443 0 0.109501)
(-0.492458 0 0.146993)
(-0.499875 0 0.128892)
(-0.448719 0 0.159749)
(-0.460537 0 0.139452)
(-0.399794 0 0.174427)
(-0.413579 0 0.149717)
(-0.353917 0 0.199517)
(-0.366313 0 0.168814)
(-0.319084 0 0.24221)
(-0.326812 0 0.204925)
(-0.300053 0 0.30538)
(-0.301472 0 0.26299)
(-0.295566 0 0.382761)
(-0.292025 0 0.340796)
(-0.298061 0 0.455527)
(-0.293568 0 0.424182)
(-0.29621 0 0.48714)
(-0.219092 0 -0.0565569)
(-0.218475 0 -0.0544569)
(-0.219274 0 -0.0599058)
(-0.218701 0 -0.0581864)
(-0.219483 0 -0.0626093)
(-0.218908 0 -0.06108)
(-0.219723 0 -0.0650898)
(-0.219138 0 -0.0635252)
(-0.219998 0 -0.0676477)
(-0.219403 0 -0.0659803)
(-0.220312 0 -0.0703648)
(-0.219705 0 -0.0685791)
(-0.22067 0 -0.0732611)
(-0.22005 0 -0.0713485)
(-0.221079 0 -0.0763495)
(-0.220444 0 -0.0743003)
(-0.221546 0 -0.0796458)
(-0.220892 0 -0.0774485)
(-0.222077 0 -0.0831684)
(-0.221403 0 -0.0808098)
(-0.222683 0 -0.0869385)
(-0.221985 0 -0.0844036)
(-0.223373 0 -0.0909799)
(-0.222648 0 -0.0882519)
(-0.22416 0 -0.0953198)
(-0.223403 0 -0.0923796)
(-0.225057 0 -0.0999889)
(-0.224264 0 -0.0968148)
(-0.226082 0 -0.105022)
(-0.225246 0 -0.101589)
(-0.227253 0 -0.110459)
(-0.226369 0 -0.10674)
(-0.228594 0 -0.116346)
(-0.227653 0 -0.112306)
(-0.230132 0 -0.122734)
(-0.229126 0 -0.118337)
(-0.2319 0 -0.129683)
(-0.230817 0 -0.124885)
(-0.23394 0 -0.137262)
(-0.232767 0 -0.132012)
(-0.2363 0 -0.14555)
(-0.23502 0 -0.139788)
(-0.239041 0 -0.15464)
(-0.237636 0 -0.148294)
(-0.24224 0 -0.164646)
(-0.240684 0 -0.157627)
(-0.245988 0 -0.175721)
(-0.244254 0 -0.16791)
(-0.250399 0 -0.188104)
(-0.248454 0 -0.179316)
(-0.255615 0 -0.202189)
(-0.253419 0 -0.192134)
(-0.261822 0 -0.218605)
(-0.259319 0 -0.206845)
(-0.269309 0 -0.238159)
(-0.266414 0 -0.22417)
(-0.278584 0 -0.261391)
(-0.275115 0 -0.244883)
(-0.290524 0 -0.287422)
(-0.286026 0 -0.269075)
(-0.309444 0 -0.31671)
(-0.301726 0 -0.296811)
(-0.334341 0 -0.334635)
(-0.324334 0 -0.321239)
(-0.365462 0 -0.330656)
(-0.353314 0 -0.328783)
(-0.401205 0 -0.298413)
(-0.387414 0 -0.310145)
(-0.438451 0 -0.239555)
(-0.423761 0 -0.26295)
(-0.473427 0 -0.163258)
(-0.458632 0 -0.193428)
(-0.502392 0 -0.0823563)
(-0.488445 0 -0.113727)
(-0.521962 0 -0.00886476)
(-0.510025 0 -0.0371113)
(-0.529356 0 0.0490379)
(-0.520708 0 0.0260417)
(-0.522766 0 0.0882015)
(-0.518575 0 0.0702925)
(-0.501842 0 0.110379)
(-0.502844 0 0.0955519)
(-0.46818 0 0.121309)
(-0.474324 0 0.106451)
(-0.425641 0 0.12938)
(-0.435778 0 0.111093)
(-0.380219 0 0.144073)
(-0.392026 0 0.119435)
(-0.339159 0 0.174204)
(-0.349511 0 0.141441)
(-0.309095 0 0.225701)
(-0.315059 0 0.184882)
(-0.293417 0 0.298412)
(-0.293718 0 0.252538)
(-0.290048 0 0.382229)
(-0.28618 0 0.33855)
(-0.291647 0 0.455807)
(-0.287355 0 0.425248)
(-0.288253 0 0.485698)
(-0.218139 0 -0.0559973)
(-0.217452 0 -0.0539065)
(-0.218333 0 -0.0592914)
(-0.217692 0 -0.0575819)
(-0.218556 0 -0.0619374)
(-0.217912 0 -0.0604181)
(-0.218812 0 -0.064357)
(-0.218155 0 -0.0628036)
(-0.219103 0 -0.0668496)
(-0.218434 0 -0.0651949)
(-0.219435 0 -0.0694965)
(-0.218752 0 -0.067725)
(-0.219814 0 -0.0723171)
(-0.219114 0 -0.0704204)
(-0.220246 0 -0.075324)
(-0.219527 0 -0.0732924)
(-0.220737 0 -0.078532)
(-0.219997 0 -0.0763544)
(-0.221297 0 -0.0819589)
(-0.220531 0 -0.0796222)
(-0.221934 0 -0.0856249)
(-0.221139 0 -0.0831145)
(-0.222659 0 -0.0895528)
(-0.221832 0 -0.0868523)
(-0.223486 0 -0.0937685)
(-0.22262 0 -0.090859)
(-0.22443 0 -0.098301)
(-0.223519 0 -0.0951613)
(-0.225507 0 -0.103183)
(-0.224544 0 -0.0997894)
(-0.226739 0 -0.108453)
(-0.225716 0 -0.104777)
(-0.22815 0 -0.114153)
(-0.227057 0 -0.110163)
(-0.229771 0 -0.120331)
(-0.228596 0 -0.11599)
(-0.231637 0 -0.127043)
(-0.230366 0 -0.122309)
(-0.233794 0 -0.134351)
(-0.232408 0 -0.129175)
(-0.236294 0 -0.142328)
(-0.234772 0 -0.136651)
(-0.239206 0 -0.151058)
(-0.237521 0 -0.144812)
(-0.242613 0 -0.160645)
(-0.240731 0 -0.153743)
(-0.24662 0 -0.171231)
(-0.2445 0 -0.163555)
(-0.251355 0 -0.183039)
(-0.248947 0 -0.17441)
(-0.256987 0 -0.196437)
(-0.254226 0 -0.186571)
(-0.26375 0 -0.211993)
(-0.260536 0 -0.200477)
(-0.272004 0 -0.230394)
(-0.268187 0 -0.21676)
(-0.282348 0 -0.251982)
(-0.277668 0 -0.23603)
(-0.295721 0 -0.275663)
(-0.289651 0 -0.258165)
(-0.316648 0 -0.301325)
(-0.306823 0 -0.28286)
(-0.343324 0 -0.315363)
(-0.331046 0 -0.303455)
(-0.37518 0 -0.308239)
(-0.360952 0 -0.307545)
(-0.40986 0 -0.274644)
(-0.394501 0 -0.287026)
(-0.443887 0 -0.216786)
(-0.42832 0 -0.240266)
(-0.473664 0 -0.14387)
(-0.45865 0 -0.173577)
(-0.496096 0 -0.0684711)
(-0.48237 0 -0.0987725)
(-0.508738 0 -0.00221228)
(-0.497157 0 -0.0286834)
(-0.509856 0 0.0472712)
(-0.501394 0 0.0267871)
(-0.49862 0 0.0776034)
(-0.4942 0 0.0628022)
(-0.475409 0 0.0915772)
(-0.475629 0 0.080078)
(-0.442125 0 0.0961868)
(-0.44693 0 0.0842621)
(-0.402391 0 0.101106)
(-0.410769 0 0.0846031)
(-0.361438 0 0.116773)
(-0.371302 0 0.0921334)
(-0.325383 0 0.152103)
(-0.333889 0 0.117404)
(-0.299611 0 0.211717)
(-0.304128 0 0.167701)
(-0.286478 0 0.292683)
(-0.285979 0 0.243783)
(-0.283499 0 0.381579)
(-0.2795 0 0.336564)
(-0.283856 0 0.455149)
(-0.279775 0 0.425486)
(-0.278881 0 0.483161)
(-0.217064 0 -0.0554032)
(-0.216308 0 -0.0533261)
(-0.217269 0 -0.0586408)
(-0.216559 0 -0.0569457)
(-0.217503 0 -0.0612274)
(-0.216788 0 -0.0597232)
(-0.21777 0 -0.0635844)
(-0.217042 0 -0.0620475)
(-0.218075 0 -0.0660098)
(-0.217332 0 -0.0643734)
(-0.218422 0 -0.0685844)
(-0.217662 0 -0.0668331)
(-0.218817 0 -0.071327)
(-0.218038 0 -0.0694527)
(-0.219267 0 -0.0742497)
(-0.218465 0 -0.072243)
(-0.219778 0 -0.0773665)
(-0.218951 0 -0.0752165)
(-0.220359 0 -0.0806944)
(-0.219503 0 -0.0783884)
(-0.221021 0 -0.0842525)
(-0.22013 0 -0.0817763)
(-0.221773 0 -0.0880626)
(-0.220844 0 -0.0854001)
(-0.222631 0 -0.0921489)
(-0.221657 0 -0.089282)
(-0.223609 0 -0.096539)
(-0.222582 0 -0.0934471)
(-0.224726 0 -0.101264)
(-0.223638 0 -0.0979232)
(-0.226003 0 -0.106358)
(-0.224844 0 -0.102742)
(-0.227467 0 -0.111861)
(-0.226226 0 -0.107939)
(-0.229149 0 -0.117817)
(-0.22781 0 -0.113555)
(-0.231088 0 -0.124276)
(-0.229634 0 -0.119633)