/*--------------------------------*- C++ -*----------------------------------*\
  =========                 |
  \\      /  F ield         | OpenFOAM: The Open Source CFD Toolbox
   \\    /   O peration     | Website:  https://openfoam.org
    \\  /    A nd           | Version:  9
     \\/     M anipulation  |
\*---------------------------------------------------------------------------*/
FoamFile
{
    format      ascii;
    class       volScalarField;
    location    "0.01";
    object      alpha.water;
}
// * * * * * * * * * * * * * * * * * * * * * * * * * * * * * * * * * * * * * //

dimensions      [0 0 0 0 0 0 0];

internalField   nonuniform List<scalar> 
5000
(
3.04765e-206
3.26966e-205
3.35273e-204
3.27138e-203
3.02237e-202
2.62918e-201
2.13987e-200
1.61763e-199
1.12623e-198
7.15053e-198
4.09194e-197
2.08119e-196
9.24903e-196
3.51727e-195
1.11519e-194
2.85335e-194
5.65379e-194
8.23385e-194
8.23819e-194
5.25038e-194
2.47995e-194
9.39649e-195
3.00914e-195
8.46324e-196
2.15081e-196
5.04707e-197
1.11222e-197
2.33296e-198
4.70924e-199
9.23115e-200
1.77058e-200
3.34446e-201
6.2557e-202
1.1642e-202
2.1646e-203
4.03544e-204
7.56742e-205
1.43141e-205
2.73786e-206
5.30695e-207
1.04451e-207
2.09107e-208
4.2646e-209
8.87235e-210
1.88528e-210
4.09597e-211
9.10723e-212
2.07382e-212
4.82849e-213
1.10337e-213
1.22148e-203
1.31257e-202
1.34841e-201
1.31847e-200
1.22104e-199
1.06509e-198
8.69558e-198
6.59657e-197
4.61112e-196
2.94105e-195
1.69188e-194
8.65718e-194
3.87442e-193
1.48551e-192
4.75553e-192
1.23062e-191
2.47072e-191
3.6512e-191
3.7068e-191
2.39191e-191
1.14086e-191
4.36106e-192
1.40802e-192
3.99029e-193
1.02133e-193
2.41279e-194
5.35086e-195
1.12913e-195
2.29219e-196
4.51737e-197
8.7087e-198
1.65292e-198
3.10586e-199
5.80509e-200
1.08376e-200
2.0283e-201
3.81756e-202
7.24625e-203
1.39058e-203
2.70389e-204
5.33761e-205
1.07158e-205
2.19126e-206
4.57039e-207
9.73495e-208
2.11984e-208
4.72356e-209
1.07781e-209
2.51434e-210
5.75556e-211
4.4322e-201
4.77349e-200
4.91618e-199
4.82054e-198
4.4783e-197
3.91997e-196
3.2128e-195
2.44789e-194
1.71949e-193
1.10276e-192
6.38333e-192
3.28947e-191
1.48415e-190
5.74391e-190
1.85887e-189
4.87142e-189
9.92315e-189
1.49002e-188
1.53688e-188
1.00517e-188
4.84552e-189
1.8702e-189
6.09215e-190
1.74088e-190
4.49069e-191
1.06869e-191
2.3865e-192
5.069e-193
1.03541e-193
2.05252e-194
3.97884e-195
7.59149e-196
1.43352e-196
2.69192e-197
5.0479e-198
9.48694e-199
1.79266e-199
3.41549e-200
6.57772e-201
1.28329e-201
2.54134e-202
5.11734e-203
1.04942e-203
2.19471e-204
4.68667e-205
1.02301e-205
2.28476e-206
5.22463e-207
1.22131e-207
2.80083e-208
1.59608e-198
1.72282e-197
1.77877e-196
1.74906e-195
1.63e-194
1.43181e-193
1.17813e-192
9.01615e-192
6.36476e-191
4.10482e-190
2.39118e-189
1.24114e-188
5.64621e-188
2.20606e-187
7.21844e-187
1.91599e-186
3.96036e-186
6.04297e-186
6.33371e-186
4.2002e-186
2.04729e-186
7.9823e-187
2.62481e-187
7.56711e-188
1.96828e-188
4.72107e-189
1.06214e-189
2.27198e-190
4.67195e-191
9.32015e-192
1.8176e-192
3.48771e-193
6.62154e-194
1.24979e-194
2.355e-195
4.44634e-196
8.43856e-197
1.61443e-197
3.12135e-198
6.11236e-199
1.21472e-199
2.45423e-200
5.04894e-201
1.05911e-201
2.26816e-202
4.96447e-203
1.11162e-203
2.54825e-204
5.9707e-205
1.37216e-205
5.72543e-196
6.1931e-195
6.40954e-194
6.31962e-193
5.90747e-192
5.20712e-191
4.30127e-190
3.30617e-189
2.3455e-188
1.52117e-187
8.91771e-187
4.66238e-186
2.13868e-185
8.4364e-185
2.79116e-184
7.50392e-184
1.57389e-183
2.44036e-183
2.59924e-183
1.74827e-183
8.61997e-184
3.39672e-184
1.12808e-184
3.2827e-185
8.6145e-186
2.08367e-186
4.72534e-187
1.01846e-187
2.10941e-188
4.23694e-189
8.31661e-190
1.6057e-190
3.06639e-191
5.81999e-192
1.10248e-192
2.092e-193
3.98933e-194
7.66688e-195
1.48873e-195
2.92727e-196
5.84016e-197
1.18433e-197
2.44507e-198
5.14626e-199
1.10564e-199
2.42738e-200
5.45111e-201
1.25306e-201
2.94372e-202
6.78145e-203
2.04363e-193
2.21491e-192
2.29752e-191
2.27118e-190
2.12936e-189
1.88325e-188
1.56158e-187
1.20552e-186
8.59445e-186
5.60509e-185
3.30686e-184
1.74149e-183
8.05511e-183
3.20808e-182
1.0732e-181
2.92241e-181
6.21952e-181
9.79907e-181
1.06068e-180
7.23821e-181
3.61161e-181
1.43903e-181
4.82927e-182
1.41927e-182
3.75959e-183
9.17529e-184
2.09853e-184
4.55977e-185
9.51715e-186
1.92568e-186
3.80637e-187
7.398e-188
1.42174e-188
2.71474e-189
5.17203e-190
9.86776e-191
1.89151e-191
3.65317e-192
7.12703e-193
1.40767e-193
2.82043e-194
5.74286e-195
1.19023e-195
2.51441e-196
5.42112e-197
1.19419e-197
2.69039e-198
6.20348e-199
1.46159e-199
3.37616e-200
7.24916e-191
7.87105e-190
8.18205e-189
8.10828e-188
7.62369e-187
6.76465e-186
5.63026e-185
4.36508e-184
3.12715e-183
2.05079e-182
1.2176e-181
6.45889e-181
3.01248e-180
1.21133e-179
4.09742e-179
1.13009e-178
2.44029e-178
3.90654e-178
4.29748e-178
2.9763e-178
1.50349e-178
6.06032e-179
2.05618e-179
6.10619e-180
1.63366e-180
4.02497e-181
9.28956e-182
2.03602e-182
4.28487e-183
8.73866e-184
1.74038e-184
3.407e-185
6.59269e-186
1.26712e-186
2.42923e-187
4.66252e-188
8.98852e-189
1.74549e-189
3.42307e-190
6.79464e-191
1.36787e-191
2.79788e-192
5.82392e-193
1.23544e-193
2.67421e-194
5.91326e-195
1.33704e-195
3.09364e-196
7.31301e-197
1.69444e-197
2.55217e-188
2.77575e-187
2.89119e-186
2.87186e-185
2.70764e-184
2.41017e-183
2.01334e-182
1.56749e-181
1.12836e-180
7.44067e-180
4.44563e-179
2.37533e-178
1.11712e-177
4.53521e-177
1.55113e-176
4.33288e-176
9.49253e-176
1.54389e-175
1.7261e-175
1.21362e-175
6.20975e-176
2.53365e-176
8.69666e-177
2.61147e-177
7.06159e-178
1.75767e-178
4.09654e-179
9.06297e-180
1.92449e-180
3.95859e-181
7.94861e-182
1.56823e-182
3.0573e-183
5.91811e-184
1.14231e-184
2.20674e-185
4.28061e-186
8.3618e-187
1.6491e-187
3.29105e-188
6.65954e-189
1.36886e-189
2.86274e-190
6.10004e-191
1.32607e-191
2.94424e-192
6.68327e-193
1.55217e-193
3.68224e-194
8.56026e-195
8.90661e-186
9.70167e-185
1.01239e-183
1.00786e-182
9.52728e-182
8.5067e-181
7.13152e-180
5.57521e-179
4.03245e-178
2.67366e-177
1.60751e-176
8.6512e-176
4.10255e-175
1.68152e-174
5.81472e-174
1.6449e-173
3.65554e-173
6.03934e-173
6.86187e-173
4.89964e-173
2.54055e-173
1.04982e-173
3.64758e-174
1.10818e-174
3.03039e-175
7.62444e-176
1.79544e-176
4.01162e-177
8.59956e-178
1.78498e-178
3.61531e-179
7.19215e-180
1.41325e-180
2.75643e-181
5.35897e-182
1.04242e-182
2.03544e-183
4.00116e-184
7.93859e-185
1.59341e-185
3.24206e-186
6.69911e-187
1.40805e-187
3.01475e-188
6.58381e-189
1.46822e-189
3.34679e-190
7.80407e-191
1.85848e-191
4.33602e-192
3.07143e-183
3.34967e-182
3.5008e-181
3.49163e-180
3.30798e-179
2.96139e-178
2.49026e-177
1.95369e-176
1.41878e-175
9.45019e-175
5.7113e-174
3.0916e-173
1.47566e-172
6.09233e-172
2.12381e-171
6.06209e-171
1.36074e-170
2.27364e-170
2.61825e-170
1.903e-170
1.00335e-170
4.21392e-171
1.48692e-171
4.58397e-172
1.27094e-172
3.2396e-173
7.72326e-174
1.74583e-174
3.78389e-175
7.93642e-176
1.62341e-176
3.25998e-177
6.46313e-178
1.27129e-178
2.49158e-179
4.88387e-180
9.60608e-181
1.90148e-181
3.79775e-182
7.67103e-183
1.57024e-183
3.26332e-184
6.89677e-185
1.48442e-185
3.25806e-186
7.3005e-187
1.67178e-187
3.91536e-188
9.36308e-189
2.19307e-189
8.54452e-181
9.18915e-180
9.4508e-179
9.25281e-178
8.57896e-177
7.48828e-176
6.11166e-175
4.62736e-174
3.22017e-173
2.03716e-172
1.15626e-171
5.79522e-171
2.51585e-170
9.24205e-170
2.79501e-169
6.75316e-169
1.26909e-168
1.82649e-168
1.9833e-168
1.56586e-168
9.55773e-169
4.74125e-169
1.96502e-169
7.00457e-170
2.20552e-170
6.27636e-171
1.64544e-171
4.03757e-172
9.39573e-173
2.09642e-173
4.52654e-174
9.5321e-175
1.97079e-175
4.0236e-176
8.15201e-177
1.64614e-177
3.32554e-178
6.74361e-179
1.37667e-179
2.83658e-180
5.91272e-181
1.24937e-181
2.68096e-182
5.85172e-183
1.30104e-183
2.95029e-184
6.83101e-185
1.6163e-185
3.90187e-186
9.2157e-187
1.04227e-178
1.07037e-177
1.04583e-176
9.67169e-176
8.41596e-175
6.845e-174
5.16447e-173
3.58359e-172
2.2646e-171
1.28894e-170
6.52598e-170
2.89944e-169
1.11395e-168
3.64283e-168
9.95804e-168
2.22263e-167
3.93312e-167
5.4104e-167
5.77769e-167
4.69685e-167
3.01855e-167
1.59994e-167
7.20632e-168
2.83834e-168
9.99098e-169
3.19534e-169
9.4126e-170
2.58474e-170
6.68934e-171
1.64784e-171
3.89837e-172
8.92777e-173
1.99324e-173
4.36556e-174
9.43135e-175
2.01963e-175
4.3052e-176
9.17037e-177
1.95844e-177
4.20586e-178
9.1069e-179
1.99286e-179
4.41654e-180
9.93101e-181
2.26949e-181
5.27867e-182
1.25124e-182
3.02563e-183
7.45158e-184
1.79058e-184
6.69279e-177
6.51867e-176
6.01137e-175
5.21926e-174
4.2397e-173
3.19961e-172
2.22577e-171
1.41481e-170
8.13933e-170
4.19449e-169
1.91558e-168
7.66991e-168
2.66491e-167
7.95528e-167
2.01702e-166
4.26716e-166
7.32089e-166
9.91611e-166
1.05806e-165
8.75473e-166
5.79042e-166
3.19792e-166
1.52513e-166
6.4521e-167
2.46381e-167
8.59526e-168
2.76683e-168
8.29531e-169
2.33755e-169
6.24575e-170
1.59555e-170
3.9272e-171
9.3791e-172
2.18729e-172
5.00954e-173
1.13255e-173
2.53897e-174
5.66718e-175
1.26403e-175
2.82638e-176
6.35381e-177
1.43975e-177
3.29594e-178
7.63843e-179
1.79536e-179
4.28671e-180
1.04123e-180
2.57578e-181
6.47872e-182
1.58549e-182
2.82816e-175
2.602e-174
2.25585e-173
1.83214e-172
1.38499e-171
9.67625e-171
6.20029e-170
3.61426e-169
1.9004e-168
8.93706e-168
3.72857e-167
1.37008e-166
4.40781e-166
1.23535e-165
2.99552e-165
6.19003e-165
1.06048e-164
1.45587e-164
1.58112e-164
1.32732e-164
8.89316e-165
5.00225e-165
2.45383e-165
1.07907e-165
4.32686e-166
1.59869e-166
5.48225e-167
1.75587e-167
5.28668e-168
1.50677e-168
4.0945e-169
1.0684e-169
2.69531e-170
6.61578e-171
1.58923e-171
3.75596e-172
8.77528e-173
2.03547e-173
4.7054e-174
1.0878e-174
2.52263e-175
5.88441e-176
1.38408e-176
3.28987e-177
7.91783e-178
1.93287e-178
4.79333e-179
1.20902e-179
3.09645e-180
7.69846e-181
9.14597e-174
7.9141e-173
6.41928e-172
4.85128e-171
3.39404e-170
2.18358e-169
1.28323e-168
6.84485e-168
3.29548e-167
1.4257e-166
5.52448e-166
1.91317e-165
5.9126e-165
1.62807e-164
3.97008e-164
8.41213e-164
1.50103e-163
2.16381e-163
2.44465e-163
2.08236e-163
1.39381e-163
7.78014e-164
3.77757e-164
1.6486e-164
6.61675e-165
2.47719e-165
8.71846e-166
2.89834e-166
9.13903e-167
2.74585e-167
7.90093e-168
2.18884e-168
5.86949e-169
1.5314e-169
3.90676e-170
9.79023e-171
2.42038e-171
5.92667e-172
1.44264e-172
3.50243e-173
8.50692e-174
2.07284e-174
5.07978e-175
1.25487e-175
3.13126e-176
7.90708e-177
2.024e-177
5.2586e-178
1.38424e-178
3.52378e-179
2.69712e-172
2.15068e-171
1.5969e-170
1.09819e-169
6.95991e-169
4.0478e-168
2.15371e-167
1.04669e-166
4.64638e-166
1.88683e-165
7.02848e-165
2.40825e-164
7.59141e-164
2.18942e-163
5.68909e-163
1.29272e-162
2.47448e-162
3.81551e-162
4.51893e-162
3.90859e-162
2.60825e-162
1.43171e-162
6.73326e-163
2.81365e-163
1.07689e-163
3.86355e-164
1.31998e-164
4.33691e-165
1.37866e-165
4.2589e-166
1.28361e-166
3.78948e-167
1.09983e-167
3.1474e-168
8.90005e-169
2.49061e-169
6.90562e-170
1.89927e-170
5.18834e-171
1.40992e-171
3.81815e-172
1.03237e-172
2.79268e-173
7.57336e-174
2.06307e-174
5.65633e-175
1.56366e-175
4.36479e-176
1.22748e-176
3.30362e-177
8.73271e-171
6.03952e-170
3.86912e-169
2.29497e-168
1.26234e-167
6.45904e-167
3.08551e-166
1.38124e-165
5.82111e-165
2.32316e-164
8.81724e-164
3.17798e-163
1.07767e-162
3.37978e-162
9.56333e-162
2.35812e-161
4.85625e-161
7.94681e-161
9.78394e-161
8.60699e-161
5.76785e-161
3.1217e-161
1.42044e-161
5.67326e-162
2.05815e-162
6.95277e-163
2.23059e-163
6.91412e-164
2.10231e-164
6.35125e-165
1.92569e-165
5.9002e-166
1.83328e-166
5.77826e-167
1.84307e-167
5.92421e-168
1.90939e-168
6.1417e-169
1.96436e-169
6.23322e-170
1.96056e-170
6.11421e-171
1.8927e-171
5.82546e-172
1.78632e-172
5.46894e-173
1.67533e-173
5.14401e-174
1.57835e-174
4.56586e-175
2.87967e-169
1.63216e-168
8.59204e-168
4.24567e-167
1.99444e-166
9.01193e-166
3.95514e-165
1.69911e-164
7.17432e-164
2.97499e-163
1.2031e-162
4.68319e-162
1.72509e-161
5.8802e-161
1.79853e-160
4.74271e-160
1.03318e-159
1.76983e-159
2.24447e-159
2.0057e-159
1.35397e-159
7.27412e-160
3.238e-160
1.2481e-160
4.3263e-161
1.38968e-161
4.23166e-162
1.24302e-162
3.57744e-163
1.02579e-163
2.98566e-164
8.98293e-165
2.83047e-165
9.37608e-166
3.24635e-166
1.16115e-166
4.23555e-167
1.55844e-167
5.73704e-168
2.10121e-168
7.62976e-169
2.74155e-169
9.74251e-170
3.42542e-170
1.19295e-170
4.12189e-171
1.41566e-171
4.83973e-172
1.63924e-172
5.14221e-173
7.65437e-168
3.55396e-167
1.55734e-166
6.56736e-166
2.725e-165
1.13753e-164
4.84818e-164
2.1148e-163
9.34925e-163
4.12223e-162
1.7849e-161
7.46855e-161
2.95979e-160
1.0811e-159
3.5186e-159
9.79101e-159
2.22303e-158
3.93364e-158
5.08818e-158
4.60533e-158
3.15789e-158
1.70486e-158
7.50723e-159
2.81444e-159
9.37326e-160
2.87354e-160
8.33837e-161
2.34125e-161
6.47543e-162
1.79122e-162
5.03015e-163
1.45879e-163
4.45213e-164
1.45205e-164
5.084e-165
1.89451e-165
7.38913e-166
2.96391e-166
1.20557e-166
4.9247e-167
2.0081e-167
8.14374e-168
3.27761e-168
1.30758e-168
5.16822e-169
2.02402e-169
7.85761e-170
3.02348e-170
1.14348e-170
3.9236e-171
1.495e-166
5.91988e-166
2.26327e-165
8.59608e-165
3.3505e-164
1.37727e-163
6.01446e-163
2.74846e-162
1.2844e-161
6.01254e-161
2.77206e-160
1.23469e-159
5.18745e-159
1.99642e-158
6.8025e-158
1.9779e-157
4.68296e-157
8.53334e-157
1.12223e-156
1.03006e-156
7.19254e-157
3.90568e-157
1.70301e-157
6.28981e-158
2.04772e-158
6.06911e-159
1.68649e-159
4.51471e-160
1.19286e-160
3.17638e-161
8.67403e-162
2.46314e-162
7.3552e-163
2.33248e-163
7.91915e-164
2.88726e-164
1.12435e-164
4.61638e-165
1.96689e-165
8.57264e-166
3.7812e-166
1.67559e-166
7.42584e-167
3.28222e-167
1.44456e-167
6.32443e-168
2.75208e-168
1.18748e-168
5.01008e-169
1.87837e-169
2.22166e-165
7.88825e-165
2.78674e-164
1.01534e-163
3.95189e-163
1.67244e-162
7.63596e-162
3.66905e-161
1.80888e-160
8.94212e-160
4.33748e-159
2.01928e-158
8.81976e-158
3.52729e-157
1.2552e-156
3.82542e-156
9.54675e-156
1.82297e-155
2.46013e-155
2.28876e-155
1.63058e-155
8.83303e-156
3.75104e-156
1.35142e-156
4.32732e-157
1.26995e-157
3.48639e-158
9.12285e-159
2.32505e-159
5.91476e-160
1.54043e-160
4.20015e-161
1.21785e-161
3.78121e-162
1.25697e-162
4.46012e-163
1.684e-163
6.74084e-164
2.84305e-164
1.25185e-164
5.69262e-165
2.64615e-165
1.24699e-165
5.92203e-166
2.82278e-166
1.34679e-166
6.41718e-167
3.03964e-167
1.4032e-167
5.65517e-168
2.72248e-164
9.16732e-164
3.17423e-163
1.16798e-162
4.68738e-162
2.06517e-161
9.85963e-161
4.96388e-160
2.55839e-159
1.31359e-158
6.56668e-158
3.13671e-157
1.40673e-156
5.79738e-156
2.14997e-155
6.99018e-155
1.87896e-154
3.80059e-154
5.25098e-154
4.95578e-154
3.61253e-154
1.948e-154
8.00683e-155
2.74261e-155
8.37471e-156
2.40453e-156
6.6429e-157
1.7781e-157
4.62755e-158
1.18086e-158
3.00557e-159
7.82161e-160
2.1394e-160
6.28799e-161
2.00454e-161
6.90593e-162
2.54498e-162
9.93232e-163
4.07797e-163
1.75434e-163
7.87697e-164
3.67099e-164
1.7632e-164
8.66262e-165
4.32405e-165
2.18099e-165
1.10625e-165
5.59947e-166
2.75667e-166
1.1694e-166
3.06034e-163
1.03421e-162
3.67089e-162
1.39644e-161
5.78632e-161
2.62525e-160
1.29153e-159
6.70285e-159
3.54132e-158
1.84601e-157
9.28712e-157
4.44089e-156
2.00223e-155
8.5305e-155
3.40892e-154
1.22501e-153
3.56887e-153
7.48259e-153
1.04844e-152
1.00302e-152
7.56378e-153
4.16369e-153
1.6887e-153
5.42052e-154
1.52452e-154
4.07133e-155
1.08088e-155
2.92291e-156
8.01747e-157
2.19597e-157
5.94819e-158
1.59777e-158
4.32253e-159
1.20742e-159
3.57848e-160
1.1473e-160
3.99634e-161
1.49958e-161
5.98672e-162
2.51761e-162
1.10822e-162
5.08373e-163
2.4195e-163
1.18846e-163
5.99054e-164
3.08106e-164
1.60718e-164
8.41745e-165
4.29484e-165
1.87755e-165
3.53431e-162
1.24653e-161
4.62094e-161
1.8136e-160
7.61614e-160
3.46436e-159
1.70691e-158
8.87273e-158
4.66251e-157
2.38319e-156
1.16167e-155
5.45705e-155
2.55454e-154
1.20581e-153
5.47261e-153
2.11802e-152
6.27501e-152
1.39071e-151
1.99202e-151
1.91622e-151
1.51264e-151
8.29475e-152
3.45092e-152
1.12782e-152
2.99188e-153
7.14497e-154
1.68698e-154
4.197e-155
1.12539e-155
3.23308e-156
9.63534e-157
2.88275e-157
8.5289e-158
2.50224e-158
7.39707e-159
2.25701e-159
7.28579e-160
2.53051e-160
9.49831e-161
3.83065e-161
1.64313e-161
7.41942e-162
3.49455e-162
1.70322e-162
8.53317e-163
4.37101e-163
2.27761e-163
1.1961e-163
6.14149e-164
2.70772e-164
4.53202e-161
1.68346e-160
6.46077e-160
2.56361e-159
1.06194e-158
4.68521e-158
2.23255e-157
1.12213e-156
5.64857e-156
2.77096e-155
1.36331e-154
7.09787e-154
3.8691e-153
1.95662e-152
8.19887e-152
3.07376e-151
1.1867e-150
4.43694e-150
8.64083e-150
8.07744e-150
4.91021e-150
1.98382e-150
5.96602e-151
1.97553e-151
6.00357e-152
1.699e-152
4.10547e-153
8.94814e-154
1.95454e-154
4.71059e-155
1.29981e-155
4.01642e-156
1.31515e-156
4.34814e-157
1.42192e-157
4.60927e-158
1.50366e-158
5.04514e-159
1.7819e-159
6.7454e-160
2.75486e-160
1.20631e-160
5.58384e-161
2.69115e-161
1.33475e-161
6.76234e-162
3.48175e-162
1.80699e-162
9.1896e-163
4.03411e-163
6.50552e-160
2.50223e-159
9.75314e-159
3.84126e-158
1.53976e-157
6.4038e-157
2.82386e-156
1.33348e-155
6.78277e-155
3.7973e-154
2.27923e-153
1.27245e-152
5.6576e-152
2.27858e-151
7.9473e-151
4.08811e-150
1.80201e-148
1.16995e-147
2.38863e-147
2.29684e-147
1.40034e-147
4.31528e-148
4.58136e-149
2.6164e-150
7.25517e-151
2.44141e-151
7.56574e-152
2.39261e-152
6.5108e-153
1.51072e-153
3.2773e-154
7.4871e-155
1.97875e-155
6.14096e-156
2.1167e-156
7.58722e-157
2.72955e-157
9.80903e-158
3.57131e-158
1.34703e-158
5.37009e-159
2.28202e-159
1.02791e-159
4.84177e-160
2.35327e-160
1.16942e-160
5.90713e-161
3.01031e-161
1.50776e-161
6.56371e-162
9.91239e-159
3.8401e-158
1.48717e-157
5.74374e-157
2.21151e-156
8.72935e-156
3.87341e-155
2.14153e-154
1.38195e-153
8.30393e-153
3.74677e-152
1.39449e-151
5.01927e-151
1.35481e-150
4.25887e-150
7.65426e-148
4.68379e-146
3.1706e-145
6.5699e-145
6.49588e-145
4.16005e-145
1.36806e-145
1.66688e-146
1.70964e-148
6.18212e-150
1.84743e-150
7.42979e-151
2.85169e-151
9.7596e-152
3.66377e-152
1.23117e-152
3.36394e-153
7.96502e-154
1.8089e-154
4.40376e-155
1.24981e-155
4.17065e-156
1.54903e-156
6.06919e-157
2.4576e-157
1.03031e-157
4.49302e-158
2.0339e-158
9.4876e-159
4.52767e-159
2.2008e-159
1.08686e-159
5.42459e-160
2.67207e-160
1.15287e-160
1.50291e-157
5.77447e-157
2.2164e-156
8.61543e-156
3.54783e-155
1.69508e-154
9.79972e-154
5.80142e-153
2.66272e-152
9.00598e-152
3.26018e-151
8.7533e-151
2.24026e-150
1.127e-149
3.32906e-148
1.62902e-145
1.17829e-143
8.28151e-143
1.75286e-142
1.79088e-142
1.19269e-142
4.17463e-143
5.71073e-144
7.57197e-146
4.63845e-149
9.69704e-150
4.5557e-150
1.61137e-150
8.38705e-151
3.61871e-151
1.37924e-151
5.88987e-152
2.47607e-152
8.41772e-153
2.35189e-153
5.85113e-154
1.42052e-154
3.70838e-155
1.12981e-155
4.1264e-156
1.73752e-156
7.92392e-157
3.74114e-157
1.79045e-157
8.63346e-158
4.1961e-158
2.05881e-158
1.01754e-158
4.96311e-159
2.13003e-159
2.17303e-156
8.26717e-156
3.31736e-155
1.52685e-154
8.30886e-154
4.6445e-153
2.07372e-152
6.45623e-152
2.13028e-151
6.39394e-151
1.37696e-150
3.81286e-150
5.12038e-149
2.01464e-147
6.89898e-146
3.44417e-143
2.83248e-141
2.07989e-140
4.55334e-140
4.79955e-140
3.29113e-140
1.22271e-140
1.86869e-141
3.53498e-143
1.83674e-146
6.87776e-148
5.00025e-149
9.46454e-150
3.85528e-150
1.72928e-150
9.93665e-151
4.89034e-151
2.12329e-151
9.7744e-152
4.83751e-152
2.09604e-152
7.3166e-153
2.15863e-153
5.82964e-154
1.5876e-154
4.83899e-155
1.74775e-155
7.2879e-156
3.30528e-156
1.56294e-156
7.55911e-157
3.71331e-157
1.84236e-157
9.03312e-158
3.90279e-158
3.10008e-155
1.32264e-154
6.66538e-154
3.6518e-153
1.69214e-152
5.25473e-152
1.49964e-151
4.30645e-151
1.02201e-150
2.38066e-150
1.22995e-149
2.45036e-148
1.08913e-146
4.66337e-145
1.43759e-143
7.09722e-141
6.54926e-139
5.04268e-138
1.14604e-137
1.24722e-137
8.77724e-138
3.44555e-138
5.83107e-139
1.68651e-140
8.9965e-144
2.23597e-145
1.52917e-146
1.22037e-147
1.31618e-148
1.61601e-149
4.79548e-150
2.13483e-150
1.25984e-150
6.91888e-151
3.42473e-151
1.70215e-151
9.0208e-152
4.75427e-152
2.14869e-152
8.10043e-153
2.68925e-153
8.43574e-154
2.67594e-154
9.08629e-155
3.41632e-155
1.4278e-155
6.50833e-156
3.14075e-156
1.53594e-156
6.68984e-157
5.59733e-154
2.90915e-153
1.36198e-152
4.47929e-152
1.24803e-151
3.55475e-151
9.30961e-151
2.87554e-150
1.26834e-149
1.32105e-148
2.30528e-147
5.31645e-146
2.44489e-144
1.04877e-142
2.9563e-141
1.42321e-138
1.46066e-136
1.18187e-135
2.79187e-135
3.1363e-135
2.26176e-135
9.35423e-136
1.74093e-136
7.12424e-138
6.58493e-141
7.70114e-143
5.2058e-144
3.87715e-145
3.96642e-146
3.99266e-147
4.53583e-148
5.47148e-149
8.61151e-150
3.18283e-150
1.71813e-150
1.01509e-150
5.5981e-151
3.07593e-151
1.70802e-151
9.8246e-152
5.53001e-152
2.71312e-152
1.12984e-152
4.15037e-153
1.4252e-153
4.87264e-154
1.75974e-154
6.96093e-155
2.97621e-155
1.20927e-155
1.09335e-152
3.78618e-152
1.02448e-151
2.89955e-151
7.54639e-151
2.39907e-150
4.07157e-149
4.12608e-148
2.4089e-147
3.05039e-146
5.16049e-145
1.03479e-143
5.31958e-142
2.28363e-140
6.02198e-139
2.74496e-136
3.12928e-134
2.66647e-133
6.57024e-133
7.64173e-133
5.63477e-133
2.44351e-133
4.9616e-134
2.65633e-135
4.85174e-138
2.58197e-140
1.71504e-141
1.18532e-142
1.23289e-143
1.3926e-144
1.42167e-145
1.6649e-146
1.7049e-147
1.98122e-148
2.64895e-149
6.71166e-150
2.77622e-150
1.61004e-150
9.59253e-151
5.70971e-151
3.42699e-151
2.04416e-151
1.23424e-151
7.29389e-152
3.88795e-152
1.81182e-152
7.5477e-153
2.92876e-153
1.09795e-153
3.83678e-154
8.87208e-152
2.55317e-151
6.54107e-151
1.94185e-150
1.03208e-149
2.51e-148
9.45005e-147
9.57141e-146
5.15958e-145
6.55937e-144
1.10744e-142
2.19331e-141
1.12119e-139
4.80679e-138
1.2097e-136
5.07687e-134
6.45583e-132
5.81053e-131
1.49493e-130
1.79858e-130
1.35478e-130
6.14574e-131
1.35467e-131
9.04846e-133
2.64662e-135
8.2682e-138
5.44779e-139
3.69576e-140
3.77937e-141
4.23941e-142
4.28548e-143
5.22816e-144
5.39666e-145
6.03692e-146
7.6449e-147
1.02908e-147
1.46947e-148
2.40965e-149
8.42195e-150
4.52891e-150
2.45517e-150
1.31485e-150
7.62614e-151
4.5485e-151
2.73983e-151
1.68659e-151
1.05639e-151
6.26036e-152
3.30167e-152
1.42921e-152
5.90548e-151
1.84436e-150
1.66133e-149
1.90155e-148
1.87843e-147
5.63516e-146
2.09221e-144
2.0949e-143
1.1229e-142
1.31131e-141
2.31161e-140
4.58886e-139
2.26953e-137
9.80566e-136
2.39177e-134
8.98746e-132
1.28665e-129
1.22573e-128
3.28822e-128
4.0815e-128
3.14032e-128
1.48933e-128
3.55253e-129
2.86609e-130
1.19755e-132
2.58369e-135
1.66836e-136
1.12559e-137
1.12495e-138
1.24461e-139
1.25256e-140
1.62419e-141
1.64007e-142
1.81688e-143
2.31691e-144
3.16249e-145
4.45618e-146
6.65224e-147
1.6239e-147
6.02994e-148
2.02764e-148
1.7991e-149
5.25946e-150
2.58489e-150
1.58536e-150
1.01675e-150
6.52585e-151
4.16235e-151
2.58095e-151
1.38037e-151
9.49905e-150
1.64492e-148
3.36183e-147
3.90686e-146
3.65498e-145
1.27858e-143
4.49078e-142
4.40893e-141
2.35861e-140
2.64735e-139
4.65475e-138
9.26773e-137
4.48154e-135
1.94929e-133
4.62756e-132
1.52492e-129
2.4798e-127
2.50106e-126
6.98494e-126
8.92715e-126
7.01614e-126
3.47762e-126
8.95156e-127
8.51888e-128
4.75752e-130
7.82484e-133
4.92319e-134
3.30331e-135
3.22055e-136
3.54491e-137
3.57387e-138
4.7129e-139
4.79179e-140
5.31183e-141
6.80646e-142
9.35329e-143
1.32459e-143
2.00221e-144
4.786e-145
1.70052e-145
5.54747e-146
4.24689e-147
1.48658e-148
5.99723e-149
3.36745e-149
1.58749e-149
5.89928e-150
2.80126e-150
1.63299e-150
8.64998e-151
1.72625e-147
3.12175e-146
6.43039e-145
7.74194e-144
7.25189e-143
2.58224e-141
8.96482e-140
8.91621e-139
4.7983e-138
5.25553e-137
9.05557e-136
1.81272e-134
8.79187e-133
3.7825e-131
8.7489e-130
2.47838e-127
4.62056e-125
4.93187e-124
1.4319e-123
1.88149e-123
1.51041e-123
7.82097e-124
2.16664e-124
2.38976e-125
1.80281e-127
2.36203e-130
1.35056e-131
9.34957e-133
8.86004e-134
9.78379e-135
9.87361e-136
1.29018e-136
1.35832e-137
1.50395e-138
1.92699e-139
2.66563e-140
3.82323e-141
5.91746e-142
1.37192e-142
4.66402e-143
1.46918e-143
1.08699e-144
4.07624e-146
1.70035e-146
1.00545e-146
4.4732e-147
7.86826e-148
3.78192e-149
1.37356e-149
5.85643e-150
3.33039e-145
5.92801e-144
1.13458e-142
1.41683e-141
1.43102e-140
4.81485e-139
1.62154e-137
1.69184e-136
9.47742e-136
1.02246e-134
1.7143e-133
3.41649e-132
1.683e-130
7.15435e-129
1.61373e-127
3.86579e-125
8.32961e-123
9.39977e-122
2.83171e-121
3.81857e-121
3.13114e-121
1.69354e-121
5.03846e-122
6.35243e-123
6.63552e-125
6.57247e-128
3.72309e-129
2.56319e-130
2.343e-131
2.59413e-132
2.62691e-133
3.35735e-134
3.74136e-135
4.13656e-136
5.28927e-137
7.36659e-138
1.0684e-138
1.69719e-139
3.87325e-140
1.26822e-140
3.82191e-141
2.57113e-142
1.18011e-143
5.33804e-144
3.2809e-144
1.38969e-144
2.28704e-145
8.48396e-147
1.43405e-147
2.19844e-148
6.11461e-143
1.07891e-141
2.01034e-140
2.55641e-139
2.69656e-138
8.72925e-137
2.84417e-135
3.07832e-134
1.81672e-133
1.94599e-132
3.16492e-131
6.24496e-130
3.12743e-128
1.31641e-126
2.88336e-125
6.05815e-123
1.44145e-120
1.72163e-119
5.3932e-119
7.47814e-119
6.25552e-119
3.52388e-119
1.12077e-119
1.59839e-120
2.20322e-122
1.79762e-125
1.00765e-126
6.90633e-128
6.10347e-129
6.77971e-130
6.90606e-131
8.69789e-132
1.03492e-132
1.13147e-133
1.43174e-134
2.00153e-135
2.95983e-136
4.77121e-137
1.07813e-137
3.41188e-138
9.76429e-139
6.066e-140
3.34725e-141
1.64167e-141
1.04811e-141
4.41054e-142
6.8611e-143
2.11891e-144
3.52858e-145
5.61531e-146
1.07407e-140
1.88481e-139
3.50952e-138
4.51651e-137
4.82256e-136
1.55317e-134
4.94407e-133
5.52313e-132
3.42532e-131
3.57122e-130
5.6711e-129
1.12102e-127
5.61274e-126
2.31019e-124
4.99602e-123
9.27179e-121
2.38399e-118
3.02101e-117
9.88406e-117
1.41432e-116
1.20459e-116
7.03656e-117
2.37898e-117
3.80151e-118
7.64487e-120
4.77161e-123
2.60576e-124
1.80093e-125
1.52243e-126
1.68988e-127
1.77049e-128
2.19596e-129
2.80518e-130
2.99845e-131
3.76393e-132
5.30831e-133
8.00143e-134
1.30572e-134
2.88516e-135
8.72369e-136
2.37503e-136
1.42574e-137
9.18294e-139
4.59865e-139
3.00436e-139
1.2906e-139
2.04359e-140
5.98454e-142
9.0981e-143
1.35832e-143
1.81571e-138
3.18187e-137
6.06323e-136
7.809e-135
8.47693e-134
2.31378e-132
7.4435e-131
8.96182e-130
6.19539e-129
6.31975e-128
9.77759e-127
1.89461e-125
9.27825e-124
3.99493e-122
8.40977e-121
1.3898e-118
3.79445e-116
5.10331e-115
1.7447e-114
2.57645e-114
2.23238e-114
1.34982e-114
4.83674e-115
8.5699e-116
2.79777e-117
1.72917e-120
6.17835e-122
4.59773e-123
3.59227e-124
4.00823e-125
4.7581e-126
5.43598e-127
7.00237e-128
7.75347e-129
9.64381e-130
1.36838e-130
2.0956e-131
3.47495e-132
7.6973e-133
2.27177e-133
5.86501e-134
3.31299e-135
2.42748e-136
1.24886e-136
8.45889e-137
3.76614e-137
6.05072e-138
1.62383e-139
2.34262e-140
3.50209e-141
2.96938e-136
5.16852e-135
9.90887e-134
1.29622e-132
1.45988e-131
3.43147e-130
1.09715e-128
1.41009e-127
1.08792e-126
1.075e-125
1.62691e-124
3.14197e-123
1.45321e-121
6.67747e-120
1.38405e-118
2.01863e-116
5.8303e-114
8.31516e-113
2.96682e-112
4.51562e-112
3.97852e-112
2.48816e-112
9.43202e-113
1.83906e-113
8.78802e-115
1.21628e-117
1.56754e-119
1.15703e-120
8.63942e-122
9.52968e-123
1.18571e-123
1.28428e-124
1.70339e-125
1.93034e-126
2.39448e-127
3.41879e-128
5.29317e-129
8.93238e-130
1.85843e-130
4.85514e-131
1.10461e-131
6.34772e-133
7.14765e-134
3.53773e-134
2.26384e-134
9.67967e-135
1.51554e-135
4.1544e-137
6.06136e-138
8.81321e-139
4.66571e-134
8.07577e-133
1.54983e-131
2.0674e-130
2.39443e-129
5.11632e-128
1.62952e-126
2.24619e-125
1.85773e-124
1.75773e-123
2.60721e-122
5.01246e-121
2.33621e-119
1.07685e-117
2.19977e-116
2.84178e-114
8.65222e-112
1.30693e-110
4.85922e-110
7.61199e-110
6.81662e-110
4.40643e-110
1.76424e-110
3.76483e-111
2.38609e-112
6.40245e-115
3.85072e-117
2.80796e-118
2.07671e-119
2.21783e-120
2.70218e-121
2.91094e-122
4.13095e-123
4.62984e-124
5.74911e-125
8.22573e-126
1.28461e-126
2.24668e-127
4.40585e-128
9.57659e-129
1.42108e-129
9.92084e-131
2.13786e-131
9.79143e-132
5.80901e-132
2.23482e-132
3.30884e-133
1.0189e-134
1.6132e-135
2.28766e-136
7.05113e-132
1.22071e-130
2.32064e-129
3.14473e-128
3.7952e-127
7.47991e-126
2.24259e-124
3.40144e-123
3.06537e-122
2.75776e-121
4.03508e-120
7.71036e-119
3.70084e-117
1.683e-115
3.37769e-114
3.88123e-112
1.24e-109
1.98097e-108
7.66367e-108
1.23399e-107
1.12264e-107
7.49544e-108
3.16448e-108
7.35531e-109
5.84594e-110
2.46047e-112
9.06336e-115
6.53198e-116
4.79337e-117
4.9497e-118
6.03768e-119
6.53252e-120
9.17435e-121
1.07816e-121
1.33225e-122
1.89268e-123
2.98623e-124
5.50208e-125
1.06157e-125
1.89672e-126
2.04844e-127
2.30348e-128
5.6949e-129
2.54304e-129
1.43745e-129
4.98702e-130
6.9091e-131
2.38536e-132
4.3202e-133
6.09743e-134
1.02137e-129
1.77256e-128
3.35333e-127
4.60538e-126
5.68911e-125
1.08577e-123
3.10805e-122
5.06688e-121
4.84542e-120
4.16636e-119
6.05122e-118
1.15102e-116
5.57202e-115
2.5354e-113
5.02249e-112
5.14361e-110
1.71608e-107
2.89486e-106
1.16359e-105
1.92368e-105
1.77697e-105
1.22439e-105
5.44177e-106
1.37176e-106
1.31954e-107
7.79646e-110
2.04104e-112
1.45601e-113
1.06188e-114
1.0586e-115
1.29116e-116
1.4076e-117
1.93473e-118
2.43847e-119
2.97854e-120
4.19257e-121
6.67728e-122
1.2862e-122
2.55104e-123
4.0425e-124
3.56879e-125
5.3894e-126
1.43316e-126
6.42853e-127
3.52183e-127
1.12561e-127
1.3732e-128
5.07679e-130
1.17167e-130
1.90155e-131
1.4207e-127
2.47039e-126
4.66244e-125
6.50012e-124
8.16715e-123
1.51992e-121
4.23096e-120
7.3616e-119
7.31069e-118
6.05855e-117
8.73243e-116
1.64634e-114
8.31705e-113
3.68619e-111
7.19341e-110
6.61533e-108
2.29335e-105
4.07793e-104
1.70056e-103
2.8836e-103
2.70303e-103
1.92035e-103
8.97003e-104
2.44276e-104
2.77533e-105
2.15522e-107
4.39853e-110
3.11052e-111
2.25735e-112
2.16772e-113
2.6412e-114
2.91714e-115
3.97555e-116
5.39063e-117
6.42043e-118
8.99893e-119
1.45552e-119
2.93324e-120
6.43064e-121
1.06492e-121
8.53535e-123
1.18089e-123
3.12969e-124
1.43057e-124
8.09122e-125
2.67115e-125
2.95425e-126
1.04763e-127
3.12957e-128
6.55229e-129
1.89784e-125
3.31111e-124
6.21794e-123
8.80126e-122
1.12189e-120
2.03728e-119
5.69536e-118
1.04168e-116
1.04754e-115
8.44582e-115
1.21782e-113
2.30644e-112
1.13279e-110
5.17215e-109
1.00623e-107
8.261e-106
2.95977e-103
5.53671e-102
2.39202e-101
4.15639e-101
3.95118e-101
2.89158e-101
1.41714e-101
4.15424e-102
5.47535e-103
5.58771e-105