/*--------------------------------*- C++ -*----------------------------------*\
  =========                 |
  \\      /  F ield         | OpenFOAM: The Open Source CFD Toolbox
   \\    /   O peration     | Website:  https://openfoam.org
    \\  /    A nd           | Version:  9
     \\/     M anipulation  |
\*---------------------------------------------------------------------------*/
FoamFile
{
    format      ascii;
    class       volScalarField;
    location    "0.01";
    object      p;
}
// * * * * * * * * * * * * * * * * * * * * * * * * * * * * * * * * * * * * * //

dimensions      [1 -1 -2 0 0 0 0];

internalField   nonuniform List<scalar> 
5000
(
0.492563
0.492538
0.492516
0.492499
0.492486
0.492478
0.492475
0.492478
0.492487
0.492502
0.492523
0.49255
0.492582
0.49262
0.492662
0.492708
0.492758
0.49281
0.492863
0.492916
0.492964
0.493004
0.49304
0.493072
0.4931
0.493124
0.493144
0.49316
0.493173
0.493183
0.49319
0.493194
0.493195
0.493195
0.493192
0.493188
0.493182
0.493174
0.493166
0.493156
0.493146
0.493134
0.493123
0.49311
0.493097
0.493084
0.49307
0.493055
0.493039
0.493021
0.49184
0.491838
0.491837
0.491838
0.491839
0.491842
0.491847
0.491853
0.491861
0.491871
0.491882
0.491895
0.491908
0.491921
0.491934
0.491946
0.491957
0.491964
0.491969
0.491968
0.491962
0.491953
0.49194
0.491924
0.491904
0.491882
0.491857
0.49183
0.491801
0.49177
0.491738
0.491704
0.49167
0.491635
0.491599
0.491563
0.491527
0.49149
0.491454
0.491418
0.491383
0.491347
0.491312
0.491277
0.491243
0.491208
0.491174
0.491139
0.491104
0.491067
0.490756
0.490771
0.490784
0.490797
0.490808
0.490818
0.490827
0.490835
0.490841
0.490846
0.490848
0.490849
0.490846
0.49084
0.49083
0.490816
0.490796
0.490769
0.490736
0.490694
0.490648
0.490601
0.490551
0.490499
0.490445
0.490388
0.490331
0.490272
0.490212
0.490152
0.490092
0.490031
0.489971
0.489912
0.489853
0.489795
0.489738
0.489682
0.489627
0.489573
0.48952
0.489469
0.489419
0.48937
0.489323
0.489276
0.489231
0.489187
0.489145
0.489103
0.489632
0.489662
0.48969
0.489714
0.489735
0.489752
0.489765
0.489774
0.489779
0.489778
0.489773
0.489762
0.489744
0.48972
0.489688
0.489649
0.4896
0.489541
0.489472
0.489391
0.489307
0.489226
0.489142
0.489056
0.488968
0.48888
0.488791
0.488702
0.488614
0.488526
0.488439
0.488354
0.488269
0.488187
0.488106
0.488027
0.48795
0.487875
0.487802
0.487732
0.487663
0.487597
0.487532
0.48747
0.48741
0.487353
0.487297
0.487244
0.487193
0.487144
0.488596
0.488642
0.488685
0.488722
0.488753
0.488777
0.488795
0.488806
0.488808
0.488803
0.488789
0.488765
0.488732
0.488688
0.488633
0.488565
0.488485
0.488392
0.488284
0.488162
0.488037
0.487919
0.487797
0.487674
0.487551
0.487427
0.487304
0.487182
0.487062
0.486943
0.486827
0.486713
0.486602
0.486494
0.486389
0.486287
0.486188
0.486092
0.485999
0.48591
0.485823
0.48574
0.48566
0.485584
0.48551
0.485439
0.485372
0.485308
0.485246
0.485187
0.487599
0.487664
0.487722
0.487772
0.487814
0.487846
0.487868
0.487881
0.487882
0.487871
0.487848
0.487812
0.487762
0.487698
0.487618
0.487523
0.487411
0.487281
0.487134
0.486969
0.486801
0.486643
0.486483
0.486321
0.48616
0.485999
0.48584
0.485683
0.485529
0.485379
0.485232
0.485089
0.48495
0.484815
0.484684
0.484558
0.484436
0.484318
0.484205
0.484096
0.483991
0.48389
0.483794
0.483702
0.483614
0.48353
0.483449
0.483373
0.483301
0.483231
0.486599
0.486681
0.486755
0.486818
0.486871
0.486911
0.486938
0.486952
0.486952
0.486937
0.486905
0.486857
0.486791
0.486707
0.486604
0.486481
0.486337
0.486173
0.485986
0.485778
0.485568
0.485371
0.485171
0.484971
0.484772
0.484574
0.484379
0.484188
0.484
0.483818
0.48364
0.483467
0.4833
0.483138
0.482982
0.482831
0.482686
0.482547
0.482413
0.482284
0.482161
0.482043
0.48193
0.481822
0.48172
0.481622
0.481528
0.48144
0.481356
0.481274
0.485594
0.485694
0.485784
0.485861
0.485924
0.485973
0.486006
0.486022
0.48602
0.486
0.485961
0.485901
0.48582
0.485716
0.48559
0.48544
0.485266
0.485066
0.484841
0.48459
0.484339
0.484103
0.483865
0.483627
0.48339
0.483155
0.482924
0.482698
0.482477
0.482262
0.482053
0.481851
0.481656
0.481467
0.481285
0.48111
0.480942
0.48078
0.480625
0.480477
0.480335
0.480199
0.48007
0.479946
0.479828
0.479716
0.479609
0.479507
0.479411
0.479318
0.484599
0.484717
0.484823
0.484915
0.484989
0.485046
0.485085
0.485103
0.485101
0.485077
0.48503
0.484958
0.484862
0.48474
0.48459
0.484413
0.484208
0.483974
0.483711
0.483418
0.483126
0.482851
0.482574
0.482297
0.482022
0.48175
0.481483
0.481221
0.480967
0.480719
0.480478
0.480246
0.480021
0.479805
0.479597
0.479397
0.479205
0.47902
0.478844
0.478675
0.478514
0.47836
0.478213
0.478072
0.477939
0.477812
0.477691
0.477576
0.477468
0.477362
0.483619
0.483756
0.483879
0.483985
0.484071
0.484137
0.484182
0.484203
0.4842
0.484172
0.484117
0.484035
0.483923
0.483782
0.48361
0.483406
0.483171
0.482902
0.4826
0.482265
0.481931
0.481618
0.481301
0.480986
0.480672
0.480362
0.480058
0.47976
0.47947
0.479189
0.478916
0.478652
0.478398
0.478153
0.477918
0.477692
0.477475
0.477267
0.477069
0.476879
0.476697
0.476524
0.476359
0.476202
0.476052
0.47591
0.475774
0.475646
0.475524
0.475407
0.482654
0.48281
0.482951
0.483071
0.483169
0.483245
0.483295
0.48332
0.483317
0.483285
0.483223
0.483129
0.483003
0.482843
0.482649
0.482418
0.482152
0.481849
0.481509
0.481132
0.480756
0.480403
0.480048
0.479693
0.47934
0.478991
0.478649
0.478315
0.477989
0.477673
0.477367
0.477071
0.476786
0.476512
0.476248
0.475996
0.475753
0.475522
0.4753
0.475088
0.474886
0.474693
0.47451
0.474335
0.474168
0.47401
0.47386
0.473717
0.473582
0.473451
0.481704
0.481879
0.482037
0.482173
0.482283
0.482368
0.482426
0.482454
0.482451
0.482415
0.482346
0.482242
0.482101
0.481923
0.481706
0.481449
0.481153
0.480816
0.480438
0.480019
0.479601
0.479209
0.478814
0.478419
0.478027
0.477639
0.477259
0.476887
0.476524
0.476173
0.475832
0.475503
0.475187
0.474882
0.47459
0.474309
0.474041
0.473784
0.473538
0.473304
0.47308
0.472867
0.472664
0.472471
0.472287
0.472112
0.471947
0.471789
0.47164
0.471496
0.480769
0.480965
0.48114
0.481291
0.481415
0.481509
0.481574
0.481605
0.481602
0.481564
0.481488
0.481373
0.481218
0.481022
0.480783
0.4805
0.480174
0.479803
0.479387
0.478926
0.478467
0.478037
0.477602
0.477167
0.476735
0.476308
0.475888
0.475477
0.475078
0.474689
0.474313
0.473951
0.473601
0.473265
0.472943
0.472634
0.472338
0.472055
0.471785
0.471527
0.471281
0.471047
0.470823
0.470611
0.470409
0.470218
0.470035
0.469863
0.469699
0.469541
0.479852
0.480068
0.480262
0.480428
0.480564
0.480669
0.48074
0.480776
0.480774
0.480732
0.48065
0.480525
0.480356
0.480141
0.479881
0.479573
0.479217
0.478812
0.478359
0.477857
0.477357
0.476887
0.476413
0.475938
0.475465
0.474998
0.474538
0.474089
0.47365
0.473225
0.472812
0.472414
0.472031
0.471662
0.471309
0.47097
0.470646
0.470336
0.47004
0.469758
0.469489
0.469232
0.468988
0.468756
0.468535
0.468326
0.468127
0.467938
0.467759
0.467586
0.478954
0.47919
0.479402
0.479584
0.479734
0.479849
0.479927
0.479966
0.479965
0.47992
0.479832
0.479697
0.479514
0.479282
0.479
0.478667
0.478282
0.477845
0.477354
0.476811
0.47627
0.475761
0.475247
0.474732
0.474219
0.473712
0.473212
0.472722
0.472245
0.47178
0.471331
0.470896
0.470478
0.470076
0.46969
0.46932
0.468966
0.468628
0.468305
0.467998
0.467704
0.467425
0.467159
0.466906
0.466666
0.466437
0.466221
0.466015
0.46582
0.465632
0.478075
0.478332
0.478563
0.47876
0.478923
0.479048
0.479134
0.479177
0.479176
0.47913
0.479035
0.47889
0.478694
0.478445
0.478143
0.477785
0.477371
0.476901
0.476374
0.47579
0.475208
0.474661
0.474107
0.473552
0.472998
0.47245
0.471909
0.471379
0.470862
0.470358
0.46987
0.469398
0.468944
0.468507
0.468087
0.467685
0.467301
0.466933
0.466582
0.466248
0.465929
0.465626
0.465337
0.465062
0.464801
0.464553
0.464317
0.464094
0.463882
0.463678
0.477217
0.477495
0.477743
0.477957
0.478133
0.478268
0.478361
0.478408
0.478409
0.47836
0.478259
0.478105
0.477896
0.477631
0.477308
0.476925
0.476483
0.475981
0.475417
0.474793
0.474171
0.473586
0.472993
0.472397
0.471803
0.471214
0.470632
0.470061
0.469503
0.468959
0.468432
0.467922
0.46743
0.466957
0.466503
0.466067
0.46565
0.465252
0.464872
0.46451
0.464164
0.463835
0.463522
0.463225
0.462942
0.462673
0.462418
0.462175
0.461946
0.461725
0.476378
0.476677
0.476944
0.477174
0.477362
0.477508
0.477608
0.47766
0.477662
0.477611
0.477505
0.477342
0.477121
0.476839
0.476496
0.47609
0.47562
0.475086
0.474486
0.473822
0.47316
0.472536
0.471904
0.471269
0.470634
0.470003
0.46938
0.468768
0.468169
0.467585
0.467018
0.466468
0.465938
0.465428
0.464938
0.464467
0.464017
0.463587
0.463176
0.462784
0.462411
0.462055
0.461717
0.461395
0.461089
0.460798
0.460522
0.460259
0.460011
0.459771
0.47556
0.475881
0.476166
0.476411
0.476613
0.476769
0.476877
0.476933
0.476937
0.476884
0.476773
0.476602
0.476369
0.476072
0.475709
0.47528
0.474782
0.474216
0.473581
0.472877
0.472175
0.471514
0.470843
0.470167
0.469492
0.46882
0.468156
0.467502
0.466862
0.466237
0.465629
0.46504
0.46447
0.463922
0.463394
0.462888
0.462403
0.461939
0.461496
0.461073
0.46067
0.460286
0.459921
0.459573
0.459243
0.458929
0.45863
0.458346
0.458078
0.457819
0.474763
0.475104
0.475408
0.475668
0.475884
0.476051
0.476166
0.476228
0.476233
0.47618
0.476065
0.475886
0.475641
0.475329
0.474947
0.474495
0.473971
0.473374
0.472703
0.47196
0.471218
0.470518
0.469808
0.469093
0.468377
0.467664
0.466958
0.466263
0.465581
0.464915
0.464266
0.463636
0.463027
0.462439
0.461873
0.461329
0.460808
0.460309
0.459833
0.459377
0.458943
0.45853
0.458136
0.457761
0.457405
0.457066
0.456743
0.456437
0.456146
0.455867
0.473985
0.474348
0.47467
0.474947
0.475176
0.475354
0.475478
0.475545
0.475553
0.475499
0.47538
0.475195
0.47494
0.474613
0.474213
0.473738
0.473187
0.472559
0.471854
0.47107
0.470288
0.46955
0.468801
0.468046
0.467289
0.466535
0.465789
0.465052
0.464328
0.463621
0.46293
0.462259
0.461609
0.460981
0.460376
0.459794
0.459236
0.4587
0.458188
0.457699
0.457233
0.456788
0.456364
0.45596
0.455576
0.45521
0.454862
0.454531
0.454217
0.453916
0.473226
0.473611
0.473952
0.474246
0.474489
0.474679
0.474812
0.474886
0.474898
0.474844
0.474723
0.474531
0.474266
0.473926
0.473508
0.473011
0.472434
0.471775
0.471034
0.47021
0.469387
0.468611
0.467822
0.467027
0.466229
0.465435
0.464646
0.463868
0.463103
0.462353
0.461621
0.460909
0.460218
0.459549
0.458904
0.458283
0.457686
0.457113
0.456565
0.45604
0.455539
0.455061
0.454605
0.454171
0.453757
0.453363
0.452987
0.45263
0.45229
0.451965
0.472486
0.472893
0.473254
0.473565
0.473824
0.474027
0.47417
0.474252
0.474268
0.474216
0.474094
0.473897
0.473623
0.47327
0.472835
0.472317
0.471713
0.471023
0.470246
0.469382
0.468518
0.467702
0.466873
0.466037
0.465198
0.464362
0.463532
0.462712
0.461904
0.461113
0.460339
0.459585
0.458853
0.458143
0.457457
0.456796
0.456159
0.455548
0.454962
0.454401
0.453864
0.453351
0.452861
0.452394
0.451949
0.451524
0.451119
0.450734
0.450367
0.450016
0.471763
0.472194
0.472576
0.472906
0.473181
0.473398
0.473554
0.473645
0.473667
0.473619
0.473496
0.473295
0.473014
0.472649
0.472197
0.471658
0.471028
0.470307
0.469494
0.468588
0.467681
0.466825
0.465955
0.465077
0.464196
0.463317
0.462445
0.461582
0.460733
0.459899
0.459083
0.458287
0.457513
0.456762
0.456035
0.455333
0.454657
0.454006
0.453381
0.452782
0.452208
0.451658
0.451133
0.450631
0.450152
0.449695
0.449258
0.448842
0.448446
0.448067
0.471056
0.471512
0.471917
0.472268
0.472562
0.472795
0.472965
0.473067
0.473098
0.473055
0.472933
0.47273
0.472442
0.472066
0.471599
0.471039
0.470383
0.469631
0.468781
0.467832
0.466881
0.465983
0.46507
0.464148
0.463224
0.462301
0.461386
0.46048
0.459587
0.458711
0.457853
0.457015
0.456199
0.455406
0.454638
0.453895
0.453178
0.452487
0.451822
0.451183
0.45057
0.449983
0.449421
0.448883
0.448368
0.447876
0.447405
0.446956
0.446528
0.44612
0.470366
0.470848
0.471278
0.471652
0.471967
0.47222
0.472406
0.472522
0.472564
0.472528
0.47241
0.472206
0.471913
0.471527
0.471045
0.470464
0.469782
0.468998
0.468109
0.467116
0.46612
0.465178
0.464221
0.463254
0.462284
0.461316
0.460355
0.459405
0.458468
0.457548
0.456647
0.455767
0.454908
0.454074
0.453264
0.452479
0.451721
0.450989
0.450283
0.449604
0.448952
0.448325
0.447724
0.447147
0.446595
0.446066
0.44556
0.445076
0.444613
0.444173
0.46969
0.470202
0.470659
0.47106
0.471399
0.471674
0.47188
0.472013
0.472068
0.472041
0.471929
0.471726
0.471429
0.471035
0.470538
0.469937
0.469229
0.468412
0.467485
0.466446
0.465402
0.464415
0.46341
0.462396
0.461378
0.460363
0.459355
0.458358
0.457376
0.456411
0.455466
0.454541
0.45364
0.452763
0.451911
0.451084
0.450284
0.44951
0.448763
0.448043
0.44735
0.446683
0.446041
0.445425
0.444834
0.444266
0.443722
0.4432
0.442701
0.442228
0.469029
0.469574
0.470062
0.470492
0.47086
0.47116
0.471389
0.471542
0.471614
0.4716
0.471496
0.471296
0.470997
0.470594
0.470084
0.469463
0.468729
0.467878
0.466911
0.465825
0.464731
0.463696
0.462643
0.461578
0.46051
0.459445
0.458387
0.457342
0.456311
0.455299
0.454308
0.453338
0.452393
0.451472
0.450576
0.449707
0.448864
0.448049
0.44726
0.446498
0.445762
0.445053
0.444371
0.443713
0.443081
0.442474
0.44189
0.441329
0.440792
0.440283
0.468382
0.468964
0.469487
0.469951
0.470351
0.470681
0.470937
0.471114
0.471205
0.471207
0.471113
0.470919
0.470619
0.47021
0.469687
0.469046
0.468285
0.4674
0.466391
0.465256
0.464112
0.463027
0.461922
0.460805
0.459684
0.458566
0.457455
0.456358
0.455276
0.454214
0.453174
0.452157
0.451164
0.450198
0.449258
0.448345
0.447459
0.4466
0.445768
0.444963
0.444185
0.443434
0.442709
0.44201
0.441336
0.440687
0.440062
0.439462
0.438885
0.438339
0.467751
0.468373
0.468936
0.469438
0.469874
0.470239
0.470526
0.47073
0.470845
0.470865
0.470785
0.470598
0.470299
0.469885
0.469349
0.468689
0.4679
0.466982
0.46593
0.464745
0.463548
0.462412
0.461253
0.460081
0.458904
0.457729
0.456563
0.455409
0.454273
0.453157
0.452064
0.450997
0.449955
0.448941
0.447954
0.446995
0.446064
0.44516
0.444284
0.443436
0.442615
0.44182
0.441052
0.44031
0.439594
0.438903
0.438237
0.437596
0.436979
0.436395
0.467135
0.467802
0.468409
0.468955
0.469432
0.469835
0.470158
0.470393
0.470535
0.470577
0.470512
0.470335
0.470039
0.46962
0.469073
0.468394
0.467579
0.466625
0.465531
0.464294
0.463043
0.461854
0.46064
0.45941
0.458174
0.45694
0.455713
0.4545
0.453305
0.452131
0.450982
0.449859
0.448765
0.447699
0.446662
0.445654
0.444676
0.443726
0.442804
0.441911
0.441045
0.440207
0.439395
0.438611
0.437852
0.437119
0.436411
0.435729
0.435073
0.434452
0.466537
0.467253
0.467909
0.468502
0.469026
0.469472
0.469834
0.470105
0.470277
0.470343
0.470297
0.470132
0.469841
0.469419
0.468861
0.468164
0.467322
0.466333
0.465195
0.463907
0.462601
0.461358
0.460086
0.458797
0.457499
0.456202
0.454911
0.453634
0.452375
0.451139
0.449929
0.448747
0.447594
0.446473
0.445382
0.444321
0.443292
0.442293
0.441323
0.440383
0.439472
0.438589
0.437733
0.436905
0.436104
0.43533
0.434581
0.43386
0.433166
0.432508
0.465957
0.466727
0.467437
0.468082
0.468656
0.469149
0.469555
0.469864
0.47007
0.470164
0.470139
0.469988
0.469704
0.469281
0.468714
0.467999
0.46713
0.466107
0.464925
0.463585
0.462223
0.460925
0.459595
0.458244
0.456882
0.455519
0.454161
0.452816
0.45149
0.450186
0.44891
0.447662
0.446447
0.445263
0.444113
0.442995
0.441911
0.440859
0.439838
0.438849
0.43789
0.436961
0.436061
0.43519
0.434347
0.433532
0.432745
0.431986
0.431256
0.430563
0.465398
0.466225
0.466993
0.467695
0.468323
0.468867
0.46932
0.469672
0.469915
0.47004
0.470038
0.469904
0.469629
0.469207
0.468632
0.4679
0.467006
0.465948
0.464724
0.463331
0.461913
0.460558
0.459167
0.457753
0.456325
0.454893
0.453466
0.452049
0.450651
0.449276
0.447928
0.44661
0.445325
0.444074
0.442858
0.441677
0.440532
0.439423
0.438347
0.437306
0.436297
0.43532
0.434375
0.433461
0.432577
0.431723
0.430899
0.430106
0.429342
0.428618
0.464861
0.46575
0.466579
0.467341
0.468026
0.468625
0.469128
0.469526
0.469808
0.469967
0.469993
0.469878
0.469614
0.469195
0.468615
0.467868
0.466951
0.465859
0.464591
0.463145
0.461669
0.460257
0.458805
0.457326
0.45583
0.454328
0.452827
0.451337
0.449863
0.448412
0.446987
0.445593
0.444233
0.442908
0.44162
0.440371
0.43916
0.437987
0.436852
0.435754
0.434692
0.433665
0.432674
0.431717
0.430793
0.429902
0.429043
0.428217
0.427425
0.426671
0.464347
0.465301
0.466195
0.46702
0.467766
0.468422
0.468978
0.469424
0.469749
0.469945
0.470001
0.469908
0.469659
0.469246
0.468663
0.467904
0.466964
0.46584
0.464529
0.463029
0.461495
0.460024
0.458509
0.456963
0.455397
0.453823
0.452248
0.450681
0.449128
0.447597
0.446091
0.444616
0.443175
0.441771
0.440406
0.439081
0.437798
0.436556
0.435356
0.434197
0.433078
0.431999
0.430959
0.429958
0.428994
0.428067
0.427176
0.426321
0.425502
0.424723
0.463858
0.464879
0.465841
0.466731
0.46754
0.468255
0.468867
0.469364
0.469736
0.469971
0.470061
0.469995
0.469764
0.469361
0.468778
0.468009
0.467049
0.465893
0.46454
0.462986
0.461392
0.45986
0.45828
0.456665
0.455027
0.453378
0.451726
0.45008
0.448446
0.446832
0.445242
0.443683
0.442157
0.440669
0.439221
0.437816
0.436455
0.435138
0.433868
0.432643
0.431463
0.430328
0.429238
0.428191
0.427187
0.426224
0.425302
0.424419
0.423576
0.422774
0.463394
0.464486
0.465516
0.466473
0.467347
0.468124
0.468794
0.469346
0.469767
0.470046
0.470174
0.470139
0.469931
0.469542
0.468963
0.468187
0.467209
0.466023
0.464627
0.463018
0.461362
0.459767
0.458119
0.456432
0.45472
0.452994
0.451262
0.449534
0.447817
0.446117
0.444441
0.442795
0.441182
0.439606
0.438072
0.436583
0.435139
0.433744
0.432399
0.431104
0.429859
0.428665
0.427522
0.426427
0.425381
0.424381
0.423426
0.422516
0.42165
0.420824
0.462956
0.464119
0.465219
0.466245
0.467185
0.468027
0.468758
0.469367
0.469842
0.47017
0.470341
0.470341
0.470161
0.469791
0.469221
0.468442
0.467449
0.466235
0.464796
0.46313
0.461409
0.459748
0.458029
0.456268
0.454477
0.452669
0.450855
0.449042
0.447239
0.445452
0.443688
0.441953
0.440251
0.438588
0.436966
0.435389
0.433862
0.432386
0.430963
0.429595
0.428283
0.427026
0.425826
0.42468
0.423588
0.422549
0.42156
0.42062
0.419727
0.418876
0.462542
0.463778
0.46495
0.466046
0.467055
0.467963
0.468759
0.469431
0.469964
0.470346
0.470565
0.470607
0.470461
0.470115
0.469558
0.46878
0.467774
0.466533
0.465052
0.463328
0.46154
0.45981
0.458016
0.456174
0.454301
0.452407
0.450505
0.448604
0.446712
0.444836
0.442983
0.441159
0.439368
0.437616
0.435906
0.434244
0.432633
0.431075
0.429575
0.428133
0.426751
0.42543
0.42417
0.42297
0.421829
0.420745
0.419716
0.41874
0.417815
0.416931
0.462151
0.463461
0.464707
0.465875
0.466956
0.467935
0.4688
0.469538
0.470135
0.470578
0.470851
0.470942
0.470836
0.470519
0.46998
0.469208
0.468192
0.466926
0.465403
0.46362
0.461762
0.459959
0.458085
0.456159
0.454196
0.452212
0.450218
0.448223
0.446239
0.444271
0.442327
0.440412
0.438533
0.436693
0.434899
0.433153
0.431461
0.429825
0.428248
0.426734
0.425282
0.423895
0.422572
0.421313
0.420117
0.418981
0.417904
0.416882
0.415915
0.414991
0.461781
0.463167
0.464488
0.465733
0.466889
0.467943
0.468883
0.469695
0.470363
0.470872
0.471208
0.471353
0.471293
0.471012
0.470497
0.469733
0.468711
0.467421
0.465857
0.464013
0.462083
0.460203
0.458245
0.456229
0.454173
0.452091
0.449999
0.447906
0.445824
0.443761
0.441723
0.439717
0.437749
0.435824
0.433947
0.432122
0.430352
0.428642
0.426993
0.425409
0.423889
0.422436
0.421049
0.419728
0.418471
0.417276
0.416139
0.41506
0.414037
0.413059
0.461428
0.462894
0.464294
0.465619
0.466856
0.467993
0.469014
0.469906
0.470653
0.471237
0.471642
0.471849
0.471842
0.471602
0.471115
0.470364
0.469338
0.468027
0.466421
0.464517
0.462512
0.460554
0.458508
0.456397
0.454241
0.452057
0.44986
0.447664
0.445479
0.443314
0.441179
0.43908
0.437022
0.435013
0.433055
0.431154
0.429312
0.427532
0.425815
0.424164
0.42258
0.421062
0.41961
0.418222
0.416898
0.415634
0.414427
0.413276
0.41218
0.411132
0.46109
0.462639
0.464125
0.465536
0.466862
0.468088
0.469199
0.47018
0.471013
0.47168
0.472161
0.472438
0.472489
0.472296
0.471841
0.471108
0.470081
0.46875
0.467105
0.46514
0.463059
0.46102
0.458883
0.456674
0.454414
0.452122
0.449816
0.44751
0.445217
0.442947
0.44071
0.438513
0.436365
0.434269
0.432232
0.430255
0.428342
0.426494
0.424713
0.422998
0.421349
0.419765
0.418245
0.416786
0.415386
0.414043
0.412754
0.411519
0.410336
0.409206
0.460764
0.462403
0.46398
0.465486
0.466908
0.468233
0.469443
0.470523
0.471451
0.472209
0.472774
0.473125
0.473241
0.4731
0.472682
0.471969
0.470946
0.469597
0.467914
0.465889
0.463733
0.461612
0.459383
0.457073
0.454706
0.452304
0.449884
0.447464
0.445058
0.442677
0.440334
0.438037
0.435793
0.433608
0.431487
0.429433
0.427446
0.425529
0.423681
0.421899
0.420184
0.418531
0.416938
0.415402
0.413921
0.412493
0.411115
0.409787
0.40851
0.407288
0.460446
0.462182
0.463859
0.46547
0.466999
0.468433
0.469752
0.470939
0.471972
0.472828
0.473484
0.473918
0.474104
0.474019
0.473643
0.472955
0.471937
0.470575
0.468856
0.466773
0.464542
0.462339
0.460017
0.457606
0.455132
0.452616
0.450081
0.447544
0.445022
0.442528
0.440074
0.437671
0.435326
0.433047
0.430835
0.428696
0.426629
0.424635
0.422711
0.420856
0.419065
0.417335
0.415662
0.414043
0.412476
0.410957
0.409485
0.408061
0.406687
0.405373
0.460135
0.461976
0.463764
0.46549
0.467137
0.46869
0.470129
0.471433
0.472578
0.473541
0.474296
0.474817
0.475079
0.475057
0.474727
0.474068
0.473061
0.471688
0.469938
0.467798
0.465494
0.463211
0.460797
0.458285
0.455703
0.453074
0.450423
0.447768
0.445128
0.442519
0.439952
0.437439
0.434987
0.432604
0.430293
0.428057
0.425897
0.423811
0.421797
0.419851
0.41797
0.416149
0.414385
0.412673
0.411012
0.409399
0.407834
0.406318
0.404855
0.403454
0.459828
0.461785
0.463694
0.465546
0.467322
0.469005
0.470574
0.472004
0.473271
0.474348
0.475208
0.475824
0.476169
0.476215
0.475938
0.475314
0.474323
0.472945
0.471165
0.468973
0.466598
0.464235
0.461731
0.459119
0.456429
0.453688
0.450921
0.44815
0.445393
0.442666
0.439984
0.437356
0.434792
0.432296
0.429874
0.427527
0.425255
0.423058
0.420933
0.418876
0.416884
0.414953
0.413081
0.411266
0.409504
0.407797
0.406142
0.404543
0.403003
0.40153
0.459526
0.461608
0.463649
0.465637
0.467553
0.469376
0.471084
0.472649
0.474046
0.475246
0.47622
0.476939
0.477374
0.477497
0.47728
0.476699
0.47573
0.474352
0.472549
0.470307
0.467864
0.465423
0.462829
0.460118
0.457321
0.454468
0.451586
0.448698
0.445824
0.442979
0.440179
0.437432
0.434747
0.43213
0.429583
0.427109
0.424708
0.422378
0.420118
0.417926
0.415801
0.413741
0.411746
0.409814
0.407947
0.406144
0.404406
0.402735
0.401133
0.399601
0.459227
0.461443
0.463626
0.46576
0.467825
0.469799
0.471654
0.473364
0.4749
0.476232
0.47733
0.478161
0.478697
0.478906
0.47876
0.47823
0.477291
0.475921
0.4741
0.471813
0.469302
0.466784
0.464101
0.46129
0.458386
0.455421
0.452423
0.449417
0.446422
0.443457
0.440533
0.437661
0.434848
0.432098
0.429415
0.426799
0.42425
0.421768
0.419354
0.417009
0.414732
0.412526
0.410394
0.408338
0.406362
0.404466
0.402653
0.400924
0.399275
0.397684
0.45893
0.461289
0.463622
0.465911
0.468134
0.470265
0.472277
0.474142
0.475827
0.477302
0.478535
0.479492
0.480141
0.48045
0.480385
0.479918
0.479019
0.477664
0.475831
0.473503
0.470927
0.468333
0.46556
0.462648
0.459636
0.456556
0.453438
0.450308
0.447187
0.444092
0.441036
0.438028
0.435075
0.432181
0.429347
0.426576
0.423866
0.421221
0.418642
0.416132
0.413695
0.411336
0.409059
0.406871
0.404774
0.402773
0.400871
0.399076
0.397403
0.395815
0.458635
0.461142
0.463632
0.466082
0.46847
0.470767
0.472945
0.474974
0.47682
0.478452
0.479835
0.480933
0.481712
0.482135
0.482167
0.481775
0.480928
0.479597
0.477759
0.475394
0.472755
0.470085
0.467221
0.464207
0.461082
0.457881
0.454636
0.451372
0.448113
0.444875
0.441672
0.438513
0.435405
0.43235
0.429353
0.426414
0.423536
0.420723
0.417979
0.415309
0.41272
0.410219
0.407813
0.405507
0.403306
0.401211
0.399221
0.397336
0.395564
0.39387
0.458338
0.460999
0.46365
0.466267
0.468825
0.471296
0.47365
0.475854
0.477877
0.479681
0.481232
0.48249
0.483417
0.483972
0.484118
0.483817
0.483033
0.481737
0.4799
0.477503
0.474803
0.472057
0.469102
0.465982
0.462739
0.459409
0.456025
0.452615
0.449201
0.445803
0.442432
0.439101
0.435816
0.432583
0.429405
0.426289
0.423238
0.420258
0.417356
0.414539
0.411815
0.40919
0.406671
0.404261
0.401962
0.399771
0.397683
0.395688
0.393786
0.391957
0.458036
0.460854
0.463669
0.466457
0.469192
0.471845
0.474385
0.47678
0.478995
0.480992
0.482731
0.484169
0.485267
0.485974
0.486251
0.486056
0.48535
0.484098
0.482271
0.479846
0.477088
0.474266
0.471217
0.467986
0.464618
0.461149
0.457614
0.454042
0.450455
0.446874
0.443314
0.439787
0.436303
0.43287
0.429498
0.426192
0.422963
0.419818
0.416765
0.413812
0.410965
0.408228
0.405602
0.403086
0.400675
0.398364
0.396145
0.394013
0.391967
0.390015
0.457724
0.4607
0.463683
0.466645
0.469563
0.472408
0.475148
0.477751
0.480177
0.482388
0.484338
0.485981
0.487269
0.488151
0.488579
0.488506
0.487891
0.486695
0.484885
0.482438
0.479623
0.476726
0.473579
0.470231
0.466729
0.46311
0.45941
0.455658
0.45188
0.448097
0.444325
0.440581
0.436878
0.433229
0.429647
0.426145
0.422733
0.419423
0.416224
0.413141
0.410178
0.407335
0.404607
0.401989
0.399472
0.397045
0.394702
0.392436
0.390247
0.388139
0.457395
0.46053
0.463682
0.466825
0.469935
0.472983
0.47594
0.478768
0.481428
0.483875
0.486061
0.487932
0.489434
0.490512
0.49111
0.491179
0.490669
0.48954
0.487756
0.485292
0.482421
0.479445
0.476195
0.472722
0.469075
0.465293
0.461413
0.457467
0.453481
0.449478
0.445479
0.441503
0.437569
0.433695
0.429897
0.426193
0.422596
0.419119
0.415769
0.412551
0.409464
0.406503
0.403659
0.400921
0.398278
0.395719
0.393237
0.390828
0.388497
0.386251
0.457039
0.460336
0.463661
0.466992
0.470304
0.473572
0.476762
0.479836
0.482752
0.48546
0.487905
0.490028
0.491768
0.493063
0.493854
0.494081
0.493693
0.492644
0.490895
0.488418
0.48549
0.482431
0.479069
0.47546
0.471654
0.467695
0.46362
0.459463
0.455255
0.451021
0.446786
0.442573
0.438406
0.434307
0.430297
0.426392
0.42261
0.41896
0.415449
0.412077
0.408839
0.405726
0.402728
0.399833
0.397031
0.394316
0.391684
0.389139
0.386691
0.384342
0.456646
0.46011
0.463614
0.467142
0.470671
0.474174
0.477617
0.480959
0.484154
0.487145
0.489873
0.492272
0.494274
0.495811
0.496814
0.497221
0.496973
0.496018
0.494314
0.491827
0.48884
0.485689
0.482204
0.478445
0.474464
0.470309
0.466022
0.46164
0.457197
0.452724
0.44825
0.443803
0.43941
0.435095
0.43088
0.426783
0.422817
0.418988
0.4153
0.411747
0.408323
0.405019
0.401825
0.398734
0.395743
0.392853
0.390068
0.387397
0.384852
0.382423
0.456207
0.459841
0.463534
0.467272
0.471034
0.47479
0.478507
0.482139
0.485633
0.488931
0.491965
0.494664
0.496952
0.498756
0.499998
0.500608
0.50052
0.499675
0.498025
0.495532
0.492481
0.48923
0.485608
0.481681
0.477506
0.473136
0.468618
0.463995
0.459305
0.454587
0.449873
0.445196
0.440584
0.436064
0.431654
0.427369
0.423218
0.419202
0.415318
0.411561
0.407923
0.404397
0.400981
0.397674
0.394482
0.391412
0.388474
0.385677
0.383029
0.38051
0.455709
0.459522
0.463416
0.467379
0.47139
0.475419
0.479428
0.48337
0.487187
0.490813
0.494177
0.497202
0.499804
0.501902
0.50341
0.50425
0.504345
0.503629
0.502045
0.499549
0.496428
0.493066
0.489294
0.48518
0.480792
0.476186
0.471419
0.466538
0.46159
0.456617
0.45166
0.446753
0.441925
0.4372
0.432595
0.428118
0.423773
0.419555
0.41546
0.41148
0.407612
0.403855
0.400215
0.396697
0.393314
0.390075
0.386987
0.384053
0.381274
0.378623
0.455142
0.459144
0.463252
0.467455
0.471733
0.476053
0.480374
0.484644
0.488804
0.492783
0.496503
0.499882
0.50283
0.505254
0.507062
0.508162
0.508466
0.507898
0.506391
0.503896
0.500701
0.497219
0.493281
0.488965
0.484344
0.479485
0.47445
0.469297
0.464078
0.458843
0.453634
0.448488
0.443435
0.438494
0.433677
0.428989
0.424426
0.419985
0.415658
0.411444
0.407344
0.403364
0.399516
0.395811
0.39226
0.388868
0.385632
0.382545
0.379597
0.376765
0.454495
0.458697
0.463032
0.467491
0.47205
0.476677
0.481327
0.485946
0.490471
0.494828
0.498935
0.502702
0.506032
0.508822
0.510966
0.512358
0.5129
0.512501
0.511085
0.508595
0.505322
0.501711
0.497595
0.493061
0.488192
0.483065
0.47775
0.472312
0.466812
0.461303
0.455831
0.450431
0.445131
0.439948
0.434889
0.429956
0.425144
0.420451
0.415875
0.411418
0.407089
0.4029
0.398864
0.394991
0.391285
0.387742
0.384349
0.381091
0.377954
0.374923
0.453759
0.45817
0.462743
0.46747
0.472324
0.477272
0.482268
0.487256
0.492171
0.496936
0.501465
0.505661
0.509415
0.512612
0.515133
0.516855
0.517665
0.517457
0.516146
0.513666
0.510312
0.506564
0.502258
0.497494
0.492365
0.486957
0.481351
0.47562
0.46983
0.464037
0.458286
0.452612
0.447039
0.441581
0.436244
0.431029
0.425935
0.420964
0.416122
0.411419
0.406866
0.402476
0.398259
0.394217
0.390344
0.38663
0.383056
0.379609
0.376288
0.37308
0.452924
0.45755
0.46237
0.467373
0.472532
0.477813
0.483171
0.48855
0.493884
0.499094
0.504087
0.508757
0.512984
0.516636
0.519577
0.521669
0.522778
0.522786
0.521594
0.51913
0.515691
0.511797
0.50729
0.502282
0.496878
0.491178
0.485272
0.479238
0.473148
0.467057
0.461009
0.455039
0.449166
0.443402
0.437755
0.432228
0.426829
0.421565
0.416452
0.411503
0.406729
0.402139
0.397732
0.3935
0.389432
0.385512
0.381727
0.378077
0.374576
0.371214
0.451979
0.456823
0.461893
0.467175
0.472646
0.478272
0.48401
0.489806
0.495593
0.501289
0.506793
0.511989
0.51674
0.520899
0.524309
0.526812
0.528257
0.528508
0.527452
0.525008
0.521479
0.517429
0.512705
0.507436
0.501742
0.495734
0.489511
0.48316
0.476752
0.470343
0.463978
0.457685
0.451485
0.44539
0.43941
0.433557
0.427844
0.422287
0.416905
0.411711
0.406714
0.401912
0.397295
0.392848
0.388553
0.384401
0.380389
0.376527
0.372843
0.369329
0.450913
0.455971
0.461289
0.466851
0.472638
0.47862
0.484758
0.491001
0.497279
0.503507
0.509574
0.51535
0.520683
0.525404
0.529335
0.532298
0.534119
0.534644
0.533745
0.531329
0.527702
0.523481
0.518522
0.512971
0.506964
0.500624
0.494061
0.487366
0.480614
0.47386
0.467147
0.460503
0.453949
0.447501
0.441176
0.434992
0.428969
0.423125
0.417477
0.412036
0.406803
0.401769
0.396918
0.392233
0.3877
0.383314
0.379083
0.375021