/*--------------------------------*- C++ -*----------------------------------*\
  =========                 |
  \\      /  F ield         | OpenFOAM: The Open Source CFD Toolbox
   \\    /   O peration     | Website:  https://openfoam.org
    \\  /    A nd           | Version:  9
     \\/     M anipulation  |
\*---------------------------------------------------------------------------*/
FoamFile
{
    format      ascii;
    class       surfaceScalarField;
    location    "0.01";
    object      phi;
}
// * * * * * * * * * * * * * * * * * * * * * * * * * * * * * * * * * * * * * //

dimensions      [0 3 -1 0 0 0 0];

internalField   nonuniform List<scalar> 
9850
(
3.74966e-07
7.28077e-06
3.74962e-07
7.27593e-06
3.74956e-07
7.27177e-06
3.7495e-07
7.26835e-06
3.74944e-07
7.26571e-06
3.74936e-07
7.2639e-06
3.74929e-07
7.26297e-06
3.74921e-07
7.26298e-06
3.74913e-07
7.26395e-06
3.74905e-07
7.26592e-06
3.74896e-07
7.26894e-06
3.74889e-07
7.27303e-06
3.74881e-07
7.27821e-06
3.74875e-07
7.2845e-06
3.74869e-07
7.29192e-06
3.74864e-07
7.30046e-06
3.7486e-07
7.31014e-06
3.74858e-07
7.32093e-06
3.74857e-07
7.33282e-06
3.74857e-07
7.34579e-06
3.74859e-07
6.01283e-06
3.74862e-07
5.74136e-06
3.74866e-07
5.48212e-06
3.7487e-07
5.23452e-06
3.74874e-07
4.99799e-06
3.74879e-07
4.77201e-06
3.74885e-07
4.55609e-06
3.7489e-07
4.34977e-06
3.74896e-07
4.15262e-06
3.74902e-07
3.96422e-06
3.74908e-07
3.78419e-06
3.74913e-07
3.61217e-06
3.74919e-07
3.44779e-06
3.74924e-07
3.29074e-06
3.7493e-07
3.14068e-06
3.74935e-07
2.99732e-06
3.74939e-07
2.86036e-06
3.74944e-07
2.72953e-06
3.74948e-07
2.60457e-06
3.74952e-07
2.4852e-06
3.74956e-07
2.3712e-06
3.7496e-07
2.26232e-06
3.74963e-07
2.15835e-06
3.74967e-07
2.05906e-06
3.74969e-07
1.96426e-06
3.74972e-07
1.87374e-06
3.74974e-07
1.78733e-06
3.74977e-07
1.70484e-06
3.74983e-07
1.62611e-06
1.55092e-06
3.74997e-07
7.28078e-06
3.7499e-07
7.27594e-06
3.7498e-07
7.27178e-06
3.7497e-07
7.26836e-06
3.74958e-07
7.26572e-06
3.74944e-07
7.26391e-06
3.7493e-07
7.26299e-06
3.74916e-07
7.26299e-06
3.74901e-07
7.26396e-06
3.74886e-07
7.26594e-06
3.74872e-07
7.26895e-06
3.74858e-07
7.27304e-06
3.74846e-07
7.27822e-06
3.74837e-07
7.28451e-06
3.74829e-07
7.29192e-06
3.74824e-07
7.30047e-06
3.74823e-07
7.31014e-06
3.74826e-07
7.32093e-06
3.74832e-07
7.33282e-06
3.74842e-07
7.34578e-06
3.74854e-07
6.01282e-06
3.74867e-07
5.74135e-06
3.74882e-07
5.48211e-06
3.74899e-07
5.2345e-06
3.74917e-07
4.99798e-06
3.74935e-07
4.772e-06
3.74954e-07
4.55608e-06
3.74972e-07
4.34976e-06
3.74991e-07
4.1526e-06
3.7501e-07
3.9642e-06
3.75028e-07
3.78418e-06
3.75045e-07
3.61215e-06
3.75062e-07
3.44778e-06
3.75078e-07
3.29072e-06
3.75094e-07
3.14066e-06
3.75108e-07
2.9973e-06
3.75122e-07
2.86035e-06
3.75135e-07
2.72952e-06
3.75146e-07
2.60455e-06
3.75157e-07
2.48519e-06
3.75167e-07
2.37119e-06
3.75177e-07
2.26231e-06
3.75185e-07
2.15834e-06
3.75193e-07
2.05905e-06
3.75199e-07
1.96425e-06
3.75205e-07
1.87374e-06
3.7521e-07
1.78732e-06
3.75217e-07
1.70484e-06
3.75229e-07
1.6261e-06
1.55089e-06
3.74986e-07
7.28078e-06
3.74982e-07
7.27594e-06
3.74975e-07
7.27179e-06
3.74967e-07
7.26836e-06
3.74957e-07
7.26573e-06
3.74946e-07
7.26392e-06
3.74934e-07
7.263e-06
3.74922e-07
7.263e-06
3.7491e-07
7.26397e-06
3.74898e-07
7.26595e-06
3.74887e-07
7.26896e-06
3.74879e-07
7.27305e-06
3.74873e-07
7.27822e-06
3.7487e-07
7.28451e-06
3.7487e-07
7.29192e-06
3.74876e-07
7.30046e-06
3.74886e-07
7.31013e-06
3.74902e-07
7.32092e-06
3.74924e-07
7.3328e-06
3.74953e-07
7.34575e-06
3.7498e-07
6.01279e-06
3.75009e-07
5.74132e-06
3.7504e-07
5.48208e-06
3.75073e-07
5.23447e-06
3.75107e-07
4.99794e-06
3.75141e-07
4.77196e-06
3.75175e-07
4.55604e-06
3.75208e-07
4.34972e-06
3.75241e-07
4.15257e-06
3.75273e-07
3.96417e-06
3.75304e-07
3.78415e-06
3.75334e-07
3.61212e-06
3.75362e-07
3.44775e-06
3.75389e-07
3.29069e-06
3.75414e-07
3.14064e-06
3.75437e-07
2.99728e-06
3.75458e-07
2.86033e-06
3.75478e-07
2.7295e-06
3.75496e-07
2.60454e-06
3.75512e-07
2.48518e-06
3.75527e-07
2.37118e-06
3.7554e-07
2.2623e-06
3.75551e-07
2.15833e-06
3.75561e-07
2.05904e-06
3.7557e-07
1.96424e-06
3.75577e-07
1.87373e-06
3.75583e-07
1.78732e-06
3.7559e-07
1.70483e-06
3.756e-07
1.62609e-06
1.55088e-06
3.74934e-07
7.28078e-06
3.74939e-07
7.27594e-06
3.74941e-07
7.27178e-06
3.74942e-07
7.26836e-06
3.74942e-07
7.26573e-06
3.74941e-07
7.26393e-06
3.74939e-07
7.263e-06
3.74938e-07
7.26301e-06
3.74937e-07
7.26397e-06
3.74937e-07
7.26595e-06
3.74939e-07
7.26896e-06
3.74944e-07
7.27304e-06
3.74953e-07
7.27822e-06
3.74966e-07
7.2845e-06
3.74984e-07
7.2919e-06
3.75009e-07
7.30044e-06
3.75039e-07
7.3101e-06
3.75077e-07
7.32088e-06
3.75123e-07
7.33275e-06
3.75177e-07
7.3457e-06
3.75225e-07
6.01274e-06
3.75275e-07
5.74127e-06
3.75326e-07
5.48203e-06
3.75379e-07
5.23442e-06
3.75432e-07
4.99789e-06
3.75484e-07
4.77191e-06
3.75536e-07
4.55599e-06
3.75586e-07
4.34967e-06
3.75635e-07
4.15252e-06
3.75681e-07
3.96413e-06
3.75726e-07
3.7841e-06
3.75768e-07
3.61208e-06
3.75808e-07
3.44771e-06
3.75845e-07
3.29066e-06
3.7588e-07
3.1406e-06
3.75912e-07
2.99725e-06
3.75941e-07
2.8603e-06
3.75967e-07
2.72948e-06
3.75991e-07
2.60451e-06
3.76013e-07
2.48515e-06
3.76032e-07
2.37116e-06
3.76049e-07
2.26228e-06
3.76064e-07
2.15831e-06
3.76076e-07
2.05903e-06
3.76086e-07
1.96423e-06
3.76095e-07
1.87372e-06
3.76102e-07
1.78731e-06
3.7611e-07
1.70482e-06
3.76118e-07
1.62608e-06
1.55087e-06
3.74839e-07
7.28075e-06
3.74859e-07
7.27592e-06
3.74877e-07
7.27176e-06
3.74895e-07
7.26835e-06
3.74912e-07
7.26571e-06
3.74928e-07
7.26391e-06
3.74945e-07
7.26299e-06
3.74963e-07
7.26299e-06
3.74982e-07
7.26396e-06
3.75004e-07
7.26593e-06
3.75028e-07
7.26894e-06
3.75057e-07
7.27301e-06
3.7509e-07
7.27818e-06
3.75129e-07
7.28446e-06
3.75174e-07
7.29186e-06
3.75227e-07
7.30039e-06
3.75287e-07
7.31004e-06
3.75356e-07
7.32081e-06
3.75433e-07
7.33267e-06
3.75519e-07
7.34561e-06
3.75594e-07
6.01267e-06
3.7567e-07
5.74119e-06
3.75747e-07
5.48195e-06
3.75823e-07
5.23434e-06
3.75899e-07
4.99781e-06
3.75973e-07
4.77184e-06
3.76044e-07
4.55592e-06
3.76114e-07
4.3496e-06
3.7618e-07
4.15245e-06
3.76243e-07
3.96406e-06
3.76303e-07
3.78404e-06
3.76359e-07
3.61202e-06
3.76411e-07
3.44766e-06
3.76459e-07
3.29061e-06
3.76504e-07
3.14056e-06
3.76545e-07
2.99721e-06
3.76582e-07
2.86026e-06
3.76616e-07
2.72944e-06
3.76646e-07
2.60448e-06
3.76673e-07
2.48513e-06
3.76697e-07
2.37113e-06
3.76718e-07
2.26226e-06
3.76736e-07
2.1583e-06
3.76751e-07
2.05901e-06
3.76763e-07
1.96422e-06
3.76773e-07
1.87371e-06
3.76782e-07
1.7873e-06
3.76789e-07
1.70481e-06
3.76796e-07
1.62607e-06
1.55087e-06
3.74699e-07
7.28071e-06
3.7474e-07
7.27588e-06
3.74781e-07
7.27172e-06
3.74822e-07
7.2683e-06
3.74864e-07
7.26567e-06
3.74907e-07
7.26387e-06
3.74951e-07
7.26294e-06
3.74997e-07
7.26294e-06
3.75046e-07
7.26391e-06
3.75098e-07
7.26587e-06
3.75155e-07
7.26888e-06
3.75217e-07
7.27295e-06
3.75285e-07
7.27811e-06
3.7536e-07
7.28438e-06
3.75442e-07
7.29178e-06
3.75533e-07
7.3003e-06
3.75632e-07
7.30994e-06
3.75741e-07
7.3207e-06
3.75859e-07
7.33255e-06
3.75985e-07
7.34548e-06
3.76094e-07
6.01256e-06
3.76202e-07
5.74108e-06
3.76308e-07
5.48184e-06
3.76413e-07
5.23424e-06
3.76515e-07
4.99771e-06
3.76614e-07
4.77174e-06
3.76709e-07
4.55582e-06
3.768e-07
4.34951e-06
3.76886e-07
4.15237e-06
3.76967e-07
3.96398e-06
3.77043e-07
3.78397e-06
3.77114e-07
3.61195e-06
3.7718e-07
3.44759e-06
3.77241e-07
3.29055e-06
3.77296e-07
3.1405e-06
3.77347e-07
2.99716e-06
3.77393e-07
2.86021e-06
3.77434e-07
2.7294e-06
3.77471e-07
2.60445e-06
3.77504e-07
2.48509e-06
3.77532e-07
2.3711e-06
3.77557e-07
2.26224e-06
3.77578e-07
2.15827e-06
3.77596e-07
2.059e-06
3.7761e-07
1.9642e-06
3.77622e-07
1.8737e-06
3.77631e-07
1.78729e-06
3.77638e-07
1.70481e-06
3.77643e-07
1.62607e-06
1.55087e-06
3.74513e-07
7.28065e-06
3.74582e-07
7.27581e-06
3.74653e-07
7.27165e-06
3.74725e-07
7.26823e-06
3.74799e-07
7.2656e-06
3.74875e-07
7.26379e-06
3.74955e-07
7.26286e-06
3.75039e-07
7.26286e-06
3.75127e-07
7.26382e-06
3.7522e-07
7.26578e-06
3.75319e-07
7.26878e-06
3.75424e-07
7.27285e-06
3.75537e-07
7.278e-06
3.75658e-07
7.28426e-06
3.75787e-07
7.29165e-06
3.75926e-07
7.30016e-06
3.76074e-07
7.30979e-06
3.76232e-07
7.32054e-06
3.76399e-07
7.33239e-06
3.76575e-07
7.34531e-06
3.76724e-07
6.01241e-06
3.76869e-07
5.74094e-06
3.77012e-07
5.4817e-06
3.7715e-07
5.2341e-06
3.77282e-07
4.99758e-06
3.7741e-07
4.77161e-06
3.77531e-07
4.5557e-06
3.77646e-07
4.3494e-06
3.77754e-07
4.15226e-06
3.77855e-07
3.96388e-06
3.7795e-07
3.78387e-06
3.78037e-07
3.61186e-06
3.78118e-07
3.44751e-06
3.78192e-07
3.29047e-06
3.78259e-07
3.14044e-06
3.7832e-07
2.9971e-06
3.78375e-07
2.86016e-06
3.78424e-07
2.72935e-06
3.78468e-07
2.6044e-06
3.78507e-07
2.48506e-06
3.7854e-07
2.37107e-06
3.78569e-07
2.26221e-06
3.78593e-07
2.15825e-06
3.78614e-07
2.05898e-06
3.7863e-07
1.96419e-06
3.78644e-07
1.87368e-06
3.78654e-07
1.78728e-06
3.78662e-07
1.7048e-06
3.78667e-07
1.62606e-06
1.55086e-06
3.74282e-07
7.28055e-06
3.74385e-07
7.27571e-06
3.74491e-07
7.27155e-06
3.74601e-07
7.26812e-06
3.74715e-07
7.26548e-06
3.74834e-07
7.26367e-06
3.74958e-07
7.26274e-06
3.75088e-07
7.26273e-06
3.75224e-07
7.26368e-06
3.75367e-07
7.26564e-06
3.75517e-07
7.26863e-06
3.75676e-07
7.27269e-06
3.75844e-07
7.27783e-06
3.76021e-07
7.28409e-06
3.76207e-07
7.29146e-06
3.76403e-07
7.29996e-06
3.7661e-07
7.30959e-06
3.76826e-07
7.32033e-06
3.77052e-07
7.33216e-06
3.77286e-07
7.34507e-06
3.77481e-07
6.01222e-06
3.77671e-07
5.74075e-06
3.77854e-07
5.48152e-06
3.78029e-07
5.23392e-06
3.78197e-07
4.99741e-06
3.78357e-07
4.77145e-06
3.78507e-07
4.55555e-06
3.78649e-07
4.34926e-06
3.78782e-07
4.15213e-06
3.78905e-07
3.96376e-06
3.7902e-07
3.78376e-06
3.79125e-07
3.61176e-06
3.79222e-07
3.44741e-06
3.79311e-07
3.29038e-06
3.79391e-07
3.14036e-06
3.79463e-07
2.99702e-06
3.79528e-07
2.86009e-06
3.79586e-07
2.72929e-06
3.79637e-07
2.60435e-06
3.79682e-07
2.48501e-06
3.7972e-07
2.37103e-06
3.79754e-07
2.26218e-06
3.79782e-07
2.15822e-06
3.79805e-07
2.05895e-06
3.79825e-07
1.96417e-06
3.79841e-07
1.87367e-06
3.79853e-07
1.78727e-06
3.79862e-07
1.70479e-06
3.79868e-07
1.62606e-06
1.55086e-06
3.74006e-07
7.28041e-06
3.74148e-07
7.27556e-06
3.74296e-07
7.2714e-06
3.74451e-07
7.26797e-06
3.74613e-07
7.26532e-06
3.74781e-07
7.2635e-06
3.74957e-07
7.26256e-06
3.75142e-07
7.26254e-06
3.75335e-07
7.26349e-06
3.75537e-07
7.26544e-06
3.75749e-07
7.26842e-06
3.75971e-07
7.27246e-06
3.76203e-07
7.2776e-06
3.76445e-07
7.28384e-06
3.76699e-07
7.29121e-06
3.76963e-07
7.2997e-06
3.77237e-07
7.30931e-06
3.77521e-07
7.32004e-06
3.77815e-07
7.33187e-06
3.78115e-07
7.34477e-06
3.78364e-07
6.01197e-06
3.78603e-07
5.74051e-06
3.78832e-07
5.48129e-06
3.7905e-07
5.23371e-06
3.79257e-07
4.9972e-06
3.79453e-07
4.77125e-06
3.79636e-07
4.55537e-06
3.79808e-07
4.34908e-06
3.79968e-07
4.15197e-06
3.80116e-07
3.96361e-06
3.80253e-07
3.78362e-06
3.80378e-07
3.61163e-06
3.80493e-07
3.4473e-06
3.80597e-07
3.29028e-06
3.80691e-07
3.14026e-06
3.80776e-07
2.99694e-06
3.80851e-07
2.86002e-06
3.80918e-07
2.72923e-06
3.80977e-07
2.60429e-06
3.81029e-07
2.48496e-06
3.81074e-07
2.37099e-06
3.81112e-07
2.26214e-06
3.81144e-07
2.15819e-06
3.81171e-07
2.05893e-06
3.81194e-07
1.96415e-06
3.81212e-07
1.87365e-06
3.81227e-07
1.78726e-06
3.81237e-07
1.70478e-06
3.81245e-07
1.62605e-06
1.55086e-06
3.73684e-07
7.28023e-06
3.73872e-07
7.27538e-06
3.74068e-07
7.2712e-06
3.74274e-07
7.26776e-06
3.7449e-07
7.2651e-06
3.74716e-07
7.26328e-06
3.74953e-07
7.26232e-06
3.752e-07
7.2623e-06
3.75459e-07
7.26323e-06
3.7573e-07
7.26517e-06
3.76012e-07
7.26814e-06
3.76306e-07
7.27217e-06
3.76612e-07
7.27729e-06
3.7693e-07
7.28353e-06
3.7726e-07
7.29088e-06
3.77601e-07
7.29936e-06
3.77953e-07
7.30896e-06
3.78315e-07
7.31968e-06
3.78684e-07
7.3315e-06
3.7906e-07
7.3444e-06
3.79369e-07
6.01166e-06
3.79664e-07
5.74021e-06
3.79944e-07
5.48101e-06
3.8021e-07
5.23344e-06
3.80461e-07
4.99695e-06
3.80697e-07
4.77102e-06
3.80917e-07
4.55515e-06
3.81122e-07
4.34888e-06
3.81312e-07
4.15178e-06
3.81487e-07
3.96343e-06
3.81648e-07
3.78346e-06
3.81795e-07
3.61148e-06
3.81929e-07
3.44716e-06
3.82051e-07
3.29016e-06
3.8216e-07
3.14015e-06
3.82258e-07
2.99684e-06
3.82345e-07
2.85993e-06
3.82422e-07
2.72915e-06
3.8249e-07
2.60422e-06
3.82549e-07
2.4849e-06
3.826e-07
2.37094e-06
3.82643e-07
2.26209e-06
3.8268e-07
2.15815e-06
3.82711e-07
2.0589e-06
3.82737e-07
1.96412e-06
3.82758e-07
1.87363e-06
3.82775e-07
1.78724e-06
3.82788e-07
1.70477e-06
3.82796e-07
1.62604e-06
1.55085e-06
3.73316e-07
7.28001e-06
3.73554e-07
7.27514e-06
3.73805e-07
7.27095e-06
3.7407e-07
7.2675e-06
3.74347e-07
7.26483e-06
3.74638e-07
7.26298e-06
3.74943e-07
7.26202e-06
3.75262e-07
7.26198e-06
3.75595e-07
7.2629e-06
3.75943e-07
7.26482e-06
3.76305e-07
7.26777e-06
3.76681e-07
7.27179e-06
3.77071e-07
7.2769e-06
3.77474e-07
7.28312e-06
3.7789e-07
7.29046e-06
3.78318e-07
7.29893e-06
3.78757e-07
7.30852e-06
3.79205e-07
7.31923e-06
3.7966e-07
7.33104e-06
3.8012e-07
7.34394e-06
3.80496e-07
6.01128e-06
3.80853e-07
5.73986e-06
3.81191e-07
5.48067e-06
3.8151e-07
5.23312e-06
3.81809e-07
4.99665e-06
3.82089e-07
4.77074e-06
3.82349e-07
4.55489e-06
3.8259e-07
4.34864e-06
3.82813e-07
4.15155e-06
3.83018e-07
3.96323e-06
3.83206e-07
3.78327e-06
3.83377e-07
3.61131e-06
3.83532e-07
3.44701e-06
3.83672e-07
3.29002e-06
3.83798e-07
3.14003e-06
3.8391e-07
2.99673e-06
3.8401e-07
2.85983e-06
3.84098e-07
2.72906e-06
3.84175e-07
2.60415e-06
3.84242e-07
2.48483e-06
3.843e-07
2.37088e-06
3.8435e-07
2.26205e-06
3.84391e-07
2.15811e-06
3.84427e-07
2.05886e-06
3.84456e-07
1.96409e-06
3.8448e-07
1.87361e-06
3.84499e-07
1.78722e-06
3.84513e-07
1.70475e-06
3.84522e-07
1.62603e-06
1.55085e-06
3.729e-07
7.27973e-06
3.73195e-07
7.27484e-06
3.73507e-07
7.27064e-06
3.73836e-07
7.26717e-06
3.74182e-07
7.26448e-06
3.74545e-07
7.26262e-06
3.74926e-07
7.26164e-06
3.75325e-07
7.26158e-06
3.75741e-07
7.26248e-06
3.76175e-07
7.26438e-06
3.76625e-07
7.26732e-06
3.77093e-07
7.27133e-06
3.77576e-07
7.27642e-06
3.78075e-07
7.28262e-06
3.78587e-07
7.28995e-06
3.79112e-07
7.2984e-06
3.79647e-07
7.30799e-06
3.80191e-07
7.31869e-06
3.80741e-07
7.33049e-06
3.81294e-07
7.34339e-06
3.81743e-07
6.01083e-06
3.82169e-07
5.73943e-06
3.8257e-07
5.48027e-06
3.82947e-07
5.23274e-06
3.833e-07
4.9963e-06
3.83628e-07
4.77041e-06
3.83932e-07
4.55458e-06
3.84214e-07
4.34836e-06
3.84472e-07
4.15129e-06
3.8471e-07
3.96299e-06
3.84926e-07
3.78305e-06
3.85123e-07
3.61112e-06
3.85301e-07
3.44683e-06
3.85462e-07
3.28986e-06
3.85606e-07
3.13988e-06
3.85734e-07
2.9966e-06
3.85847e-07
2.85972e-06
3.85947e-07
2.72896e-06
3.86034e-07
2.60406e-06
3.8611e-07
2.48476e-06
3.86175e-07
2.37081e-06
3.86231e-07
2.26199e-06
3.86278e-07
2.15806e-06
3.86317e-07
2.05882e-06
3.8635e-07
1.96406e-06
3.86377e-07
1.87358e-06
3.86398e-07
1.7872e-06
3.86413e-07
1.70474e-06
3.86423e-07
1.62602e-06
1.55084e-06
3.72436e-07
7.27939e-06
3.72793e-07
7.27448e-06
3.73172e-07
7.27026e-06
3.73571e-07
7.26677e-06
3.73993e-07
7.26406e-06
3.74436e-07
7.26218e-06
3.74901e-07
7.26117e-06
3.75387e-07
7.26109e-06
3.75895e-07
7.26197e-06
3.76424e-07
7.26386e-06
3.76973e-07
7.26677e-06
3.77541e-07
7.27076e-06
3.78128e-07
7.27583e-06
3.78731e-07
7.28202e-06
3.79349e-07
7.28933e-06
3.7998e-07
7.29777e-06
3.80622e-07
7.30735e-06
3.81272e-07
7.31804e-06
3.81926e-07
7.32984e-06
3.82581e-07
7.34273e-06
3.83112e-07
6.0103e-06
3.83613e-07
5.73893e-06
3.84083e-07
5.4798e-06
3.84524e-07
5.2323e-06
3.84934e-07
4.99589e-06
3.85315e-07
4.77003e-06
3.85668e-07
4.55423e-06
3.85992e-07
4.34803e-06
3.8629e-07
4.151e-06
3.86563e-07
3.96272e-06
3.86811e-07
3.78281e-06
3.87036e-07
3.61089e-06
3.87239e-07
3.44663e-06
3.87421e-07
3.28967e-06
3.87585e-07
3.13972e-06
3.8773e-07
2.99645e-06
3.87858e-07
2.85959e-06
3.87971e-07
2.72885e-06
3.88069e-07
2.60396e-06
3.88154e-07
2.48467e-06
3.88227e-07
2.37074e-06
3.88289e-07
2.26193e-06
3.88342e-07
2.15801e-06
3.88386e-07
2.05878e-06
3.88422e-07
1.96402e-06
3.88451e-07
1.87355e-06
3.88474e-07
1.78718e-06
3.88491e-07
1.70472e-06
3.88502e-07
1.62601e-06
1.55084e-06
3.71922e-07
7.27899e-06
3.72347e-07
7.27406e-06
3.72798e-07
7.26981e-06
3.73275e-07
7.26629e-06
3.73778e-07
7.26355e-06
3.74308e-07
7.26165e-06
3.74865e-07
7.26062e-06
3.75447e-07
7.26051e-06
3.76056e-07
7.26136e-06
3.76688e-07
7.26322e-06
3.77345e-07
7.26612e-06
3.78024e-07
7.27008e-06
3.78723e-07
7.27514e-06
3.79441e-07
7.2813e-06
3.80175e-07
7.2886e-06
3.80923e-07
7.29703e-06
3.81681e-07
7.30659e-06
3.82447e-07
7.31727e-06
3.83215e-07
7.32907e-06
3.83981e-07
7.34197e-06
3.846e-07
6.00968e-06
3.85183e-07
5.73835e-06
3.85729e-07
5.47925e-06
3.86239e-07
5.23179e-06
3.86713e-07
4.99542e-06
3.87151e-07
4.76959e-06
3.87556e-07
4.55382e-06
3.87928e-07
4.34766e-06
3.88269e-07
4.15066e-06
3.88579e-07
3.96241e-06
3.88862e-07
3.78252e-06
3.89117e-07
3.61064e-06
3.89347e-07
3.4464e-06
3.89553e-07
3.28947e-06
3.89737e-07
3.13953e-06
3.899e-07
2.99629e-06
3.90045e-07
2.85945e-06
3.90171e-07
2.72872e-06
3.90281e-07
2.60385e-06
3.90376e-07
2.48458e-06
3.90458e-07
2.37066e-06
3.90527e-07
2.26186e-06
3.90586e-07
2.15795e-06
3.90634e-07
2.05873e-06
3.90674e-07
1.96398e-06
3.90706e-07
1.87352e-06
3.90731e-07
1.78715e-06
3.90749e-07
1.7047e-06
3.90761e-07
1.626e-06
1.55083e-06
3.71357e-07
7.27853e-06
3.71854e-07
7.27356e-06
3.72383e-07
7.26928e-06
3.72943e-07
7.26573e-06
3.73536e-07
7.26296e-06
3.74161e-07
7.26102e-06
3.74816e-07
7.25996e-06
3.75503e-07
7.25982e-06
3.7622e-07
7.26065e-06
3.76966e-07
7.26248e-06
3.7774e-07
7.26534e-06
3.78538e-07
7.26928e-06
3.79361e-07
7.27431e-06
3.80204e-07
7.28046e-06
3.81064e-07
7.28774e-06
3.81939e-07
7.29615e-06
3.82824e-07
7.3057e-06
3.83715e-07
7.31638e-06
3.84607e-07
7.32818e-06
3.85494e-07
7.34108e-06
3.8621e-07
6.00897e-06
3.86882e-07
5.73768e-06
3.8751e-07
5.47862e-06
3.88095e-07
5.23121e-06
3.88637e-07
4.99487e-06
3.89139e-07
4.76909e-06
3.896e-07
4.55336e-06
3.90023e-07
4.34724e-06
3.9041e-07
4.15027e-06
3.90762e-07
3.96206e-06
3.91081e-07
3.7822e-06
3.91369e-07
3.61035e-06
3.91628e-07
3.44614e-06
3.9186e-07
3.28924e-06
3.92066e-07
3.13933e-06
3.92249e-07
2.99611e-06
3.92411e-07
2.85928e-06
3.92552e-07
2.72858e-06
3.92675e-07
2.60373e-06
3.92782e-07
2.48447e-06
3.92873e-07
2.37057e-06
3.9295e-07
2.26178e-06
3.93015e-07
2.15789e-06
3.93068e-07
2.05867e-06
3.93112e-07
1.96394e-06
3.93147e-07
1.87348e-06
3.93175e-07
1.78712e-06
3.93194e-07
1.70468e-06
3.93207e-07
1.62598e-06
1.55082e-06
3.70737e-07
7.27799e-06
3.71312e-07
7.27299e-06
3.71925e-07
7.26867e-06
3.72575e-07
7.26508e-06
3.73264e-07
7.26227e-06
3.7399e-07
7.2603e-06
3.74753e-07
7.2592e-06
3.75553e-07
7.25902e-06
3.76387e-07
7.25981e-06
3.77256e-07
7.26161e-06
3.78155e-07
7.26445e-06
3.79084e-07
7.26835e-06
3.80039e-07
7.27336e-06
3.81017e-07
7.27948e-06
3.82015e-07
7.28674e-06
3.83027e-07
7.29514e-06
3.8405e-07
7.30468e-06
3.85077e-07
7.31536e-06
3.86104e-07
7.32715e-06
3.87122e-07
7.34006e-06
3.87942e-07
6.00815e-06
3.8871e-07
5.73691e-06
3.89427e-07
5.47791e-06
3.90093e-07
5.23054e-06
3.9071e-07
4.99426e-06
3.91279e-07
4.76852e-06
3.91802e-07
4.55284e-06
3.9228e-07
4.34676e-06
3.92717e-07
4.14983e-06
3.93113e-07
3.96166e-06
3.93472e-07
3.78185e-06
3.93796e-07
3.61003e-06
3.94086e-07
3.44585e-06
3.94346e-07
3.28898e-06
3.94577e-07
3.1391e-06
3.94782e-07
2.9959e-06
3.94962e-07
2.8591e-06
3.95119e-07
2.72842e-06
3.95256e-07
2.60359e-06
3.95375e-07
2.48435e-06
3.95476e-07
2.37047e-06
3.95562e-07
2.26169e-06
3.95634e-07
2.15782e-06
3.95694e-07
2.05861e-06
3.95742e-07
1.96389e-06
3.95781e-07
1.87344e-06
3.95812e-07
1.78709e-06
3.95833e-07
1.70466e-06
3.95848e-07
1.62597e-06
1.55082e-06
3.70061e-07
7.27737e-06
3.70719e-07
7.27233e-06
3.71421e-07
7.26797e-06
3.72168e-07
7.26433e-06
3.72959e-07
7.26148e-06
3.73794e-07
7.25946e-06
3.74672e-07
7.25832e-06
3.75593e-07
7.2581e-06
3.76554e-07
7.25885e-06
3.77554e-07
7.26061e-06
3.7859e-07
7.26341e-06
3.79659e-07
7.26728e-06
3.80757e-07
7.27226e-06
3.81881e-07
7.27836e-06
3.83027e-07
7.28559e-06
3.84187e-07
7.29398e-06
3.85358e-07
7.30351e-06
3.86533e-07
7.31418e-06
3.87705e-07
7.32598e-06
3.88865e-07
7.3389e-06
3.89797e-07
6.00721e-06
3.9067e-07
5.73604e-06
3.91483e-07
5.47709e-06
3.92237e-07
5.22979e-06
3.92934e-07
4.99356e-06
3.93576e-07
4.76788e-06
3.94165e-07
4.55225e-06
3.94703e-07
4.34622e-06
3.95193e-07
4.14934e-06
3.95638e-07
3.96121e-06
3.9604e-07
3.78144e-06
3.96402e-07
3.60966e-06
3.96726e-07
3.44552e-06
3.97016e-07
3.28869e-06
3.97274e-07
3.13884e-06
3.97502e-07
2.99568e-06
3.97702e-07
2.8589e-06
3.97878e-07
2.72825e-06
3.9803e-07
2.60344e-06
3.98162e-07
2.48422e-06
3.98275e-07
2.37035e-06
3.9837e-07
2.2616e-06
3.98451e-07
2.15773e-06
3.98517e-07
2.05855e-06
3.98572e-07
1.96383e-06
3.98615e-07
1.8734e-06
3.98649e-07
1.78706e-06
3.98673e-07
1.70464e-06
3.98689e-07
1.62595e-06
1.55081e-06
3.69325e-07
7.27668e-06
3.70071e-07
7.27158e-06
3.70869e-07
7.26717e-06
3.71718e-07
7.26349e-06
3.72618e-07
7.26058e-06
3.73569e-07
7.25851e-06
3.74571e-07
7.25732e-06
3.75621e-07
7.25705e-06
3.76718e-07
7.25776e-06
3.77859e-07
7.25947e-06
3.79041e-07
7.26223e-06
3.8026e-07
7.26606e-06
3.81513e-07
7.27101e-06
3.82794e-07
7.27708e-06
3.84098e-07
7.28429e-06
3.85419e-07
7.29266e-06
3.8675e-07
7.30218e-06
3.88083e-07
7.31285e-06
3.89411e-07
7.32465e-06
3.90724e-07
7.33759e-06
3.91778e-07
6.00616e-06
3.92763e-07
5.73505e-06
3.93679e-07
5.47618e-06
3.94528e-07
5.22894e-06
3.95312e-07
4.99278e-06
3.96033e-07
4.76716e-06
3.96693e-07
4.55159e-06
3.97296e-07
4.34562e-06
3.97844e-07
4.14879e-06
3.98341e-07
3.96072e-06
3.98789e-07
3.78099e-06
3.99193e-07
3.60926e-06
3.99554e-07
3.44516e-06
3.99877e-07
3.28836e-06
4.00163e-07
3.13855e-06
4.00416e-07
2.99542e-06
4.00639e-07
2.85868e-06
4.00834e-07
2.72805e-06
4.01003e-07
2.60327e-06
4.0115e-07
2.48408e-06
4.01275e-07
2.37023e-06
4.01381e-07
2.26149e-06
4.01471e-07
2.15765e-06
4.01545e-07
2.05847e-06
4.01606e-07
1.96377e-06
4.01655e-07
1.87335e-06
4.01693e-07
1.78702e-06
4.0172e-07
1.70461e-06
4.01738e-07
1.62594e-06
1.5508e-06
3.68527e-07
7.2759e-06
3.69366e-07
7.27074e-06
3.70264e-07
7.26627e-06
3.71221e-07
7.26253e-06
3.72238e-07
7.25957e-06
3.73313e-07
7.25744e-06
3.74446e-07
7.25619e-06
3.75634e-07
7.25586e-06
3.76875e-07
7.25651e-06
3.78167e-07
7.25818e-06
3.79506e-07
7.26089e-06
3.80886e-07
7.26468e-06
3.82304e-07
7.26959e-06
3.83754e-07
7.27563e-06
3.85228e-07
7.28281e-06
3.86721e-07
7.29116e-06
3.88223e-07
7.30067e-06
3.89727e-07
7.31134e-06
3.91223e-07
7.32316e-06
3.92701e-07
7.33611e-06
3.93886e-07
6.00497e-06
3.94992e-07
5.73395e-06
3.96019e-07
5.47515e-06
3.9697e-07
5.22799e-06
3.97847e-07
4.9919e-06
3.98653e-07
4.76635e-06
3.9939e-07
4.55085e-06
4.00062e-07
4.34494e-06
4.00673e-07
4.14818e-06
4.01226e-07
3.96016e-06
4.01725e-07
3.7805e-06
4.02173e-07
3.60881e-06
4.02575e-07
3.44476e-06
4.02933e-07
3.28801e-06
4.0325e-07
3.13823e-06
4.03531e-07
2.99514e-06
4.03778e-07
2.85843e-06
4.03994e-07
2.72784e-06
4.04182e-07
2.60308e-06
4.04344e-07
2.48391e-06
4.04483e-07
2.37009e-06
4.04602e-07
2.26137e-06
4.04701e-07
2.15755e-06
4.04785e-07
2.05839e-06
4.04853e-07
1.96371e-06
4.04907e-07
1.8733e-06
4.04949e-07
1.78698e-06
4.04979e-07
1.70458e-06
4.04999e-07
1.62592e-06
1.55079e-06
3.67662e-07
7.27503e-06
3.68599e-07
7.26981e-06
3.69604e-07
7.26527e-06
3.70676e-07
7.26146e-06
3.71815e-07
7.25843e-06
3.73022e-07
7.25623e-06
3.74293e-07
7.25492e-06
3.75628e-07
7.25453e-06
3.77024e-07
7.25512e-06
3.78476e-07
7.25672e-06
3.79982e-07
7.25938e-06
3.81535e-07
7.26313e-06
3.83129e-07
7.26799e-06
3.84759e-07
7.274e-06
3.86416e-07
7.28116e-06
3.88092e-07
7.28949e-06
3.89779e-07
7.29899e-06
3.91466e-07
7.30966e-06
3.93142e-07
7.32148e-06
3.94796e-07
7.33446e-06
3.96122e-07
6.00365e-06
3.97358e-07
5.73271e-06
3.98505e-07
5.474e-06
3.99566e-07
5.22693e-06
4.00543e-07
4.99092e-06
4.0144e-07
4.76545e-06
4.0226e-07
4.55003e-06
4.03007e-07
4.3442e-06
4.03686e-07
4.1475e-06
4.04299e-07
3.95955e-06
4.04853e-07
3.77994e-06
4.05349e-07
3.60831e-06
4.05794e-07
3.44431e-06
4.0619e-07
3.28761e-06
4.06541e-07
3.13788e-06
4.06852e-07
2.99483e-06
4.07125e-07
2.85816e-06
4.07364e-07
2.7276e-06
4.07572e-07
2.60287e-06
4.07751e-07
2.48373e-06
4.07906e-07
2.36993e-06
4.08037e-07
2.26124e-06
4.08148e-07
2.15743e-06
4.0824e-07
2.0583e-06
4.08316e-07
1.96363e-06
4.08376e-07
1.87324e-06
4.08423e-07
1.78693e-06
4.08457e-07
1.70455e-06
4.08479e-07
1.62589e-06
1.55078e-06
3.66728e-07
7.27406e-06
3.67768e-07
7.26877e-06
3.68884e-07
7.26415e-06
3.70077e-07
7.26026e-06
3.71347e-07
7.25716e-06
3.72692e-07
7.25488e-06
3.7411e-07
7.2535e-06
3.75601e-07
7.25304e-06
3.7716e-07
7.25356e-06
3.78783e-07
7.2551e-06
3.80466e-07
7.2577e-06
3.82202e-07
7.26139e-06
3.83985e-07
7.26621e-06
3.85807e-07
7.27218e-06
3.87659e-07
7.27931e-06
3.89532e-07
7.28761e-06
3.91416e-07
7.2971e-06
3.93299e-07
7.30777e-06
3.95169e-07
7.31961e-06
3.97012e-07
7.33262e-06
3.98489e-07
6.00217e-06
3.99864e-07
5.73133e-06
4.0114e-07
5.47273e-06
4.02318e-07
5.22575e-06
4.03403e-07
4.98984e-06
4.04398e-07
4.76446e-06
4.05308e-07
4.54912e-06
4.06135e-07
4.34337e-06
4.06886e-07
4.14675e-06
4.07565e-07
3.95887e-06
4.08177e-07
3.77933e-06
4.08726e-07
3.60776e-06
4.09217e-07
3.44382e-06
4.09654e-07
3.28717e-06
4.10042e-07
3.1375e-06
4.10385e-07
2.99449e-06
4.10686e-07
2.85786e-06
4.1095e-07
2.72733e-06
4.11179e-07
2.60264e-06
4.11377e-07
2.48354e-06
4.11548e-07
2.36976e-06
4.11693e-07
2.2611e-06
4.11816e-07
2.15731e-06
4.11918e-07
2.0582e-06
4.12001e-07
1.96355e-06
4.12068e-07
1.87317e-06
4.1212e-07
1.78688e-06
4.12157e-07
1.70451e-06
4.12182e-07
1.62587e-06
1.55076e-06
3.65722e-07
7.273e-06
3.66869e-07
7.26762e-06
3.68102e-07
7.26292e-06
3.69422e-07
7.25894e-06
3.70828e-07
7.25575e-06
3.72319e-07
7.25339e-06
3.73893e-07
7.25192e-06
3.75548e-07
7.25138e-06
3.7728e-07
7.25183e-06
3.79085e-07
7.2533e-06
3.80956e-07
7.25583e-06
3.82887e-07
7.25946e-06
3.84871e-07
7.26423e-06
3.86897e-07
7.27015e-06
3.88957e-07
7.27725e-06
3.9104e-07
7.28553e-06
3.93134e-07
7.29501e-06
3.95226e-07
7.30568e-06
3.97303e-07
7.31753e-06
3.99349e-07
7.33057e-06
4.00987e-07
6.00053e-06
4.02512e-07
5.72981e-06
4.03925e-07
5.47131e-06
4.05231e-07
5.22444e-06
4.06431e-07
4.98864e-06
4.07532e-07
4.76336e-06
4.08537e-07
4.54812e-06
4.09451e-07
4.34245e-06
4.1028e-07
4.14592e-06
4.11029e-07
3.95812e-06
4.11703e-07
3.77866e-06
4.12308e-07
3.60716e-06
4.12849e-07
3.44328e-06
4.13331e-07
3.28669e-06
4.13758e-07
3.13707e-06
4.14136e-07
2.99411e-06
4.14467e-07
2.85753e-06
4.14758e-07
2.72704e-06
4.1501e-07
2.60239e-06
4.15229e-07
2.48332e-06
4.15416e-07
2.36958e-06
4.15576e-07
2.26094e-06
4.15711e-07
2.15718e-06
4.15824e-07
2.05808e-06
4.15916e-07
1.96345e-06
4.15989e-07
1.8731e-06
4.16046e-07
1.78683e-06
4.16087e-07
1.70447e-06
4.16114e-07
1.62584e-06
1.55075e-06
3.64639e-07
7.27184e-06
3.65898e-07
7.26636e-06
3.67253e-07
7.26156e-06
3.68705e-07
7.25749e-06
3.70254e-07
7.2542e-06
3.71899e-07
7.25175e-06
3.73637e-07
7.25018e-06
3.75466e-07
7.24956e-06
3.77381e-07
7.24991e-06
3.79377e-07
7.2513e-06
3.81448e-07
7.25376e-06
3.83586e-07
7.25733e-06
3.85782e-07
7.26203e-06
3.88027e-07
7.2679e-06
3.90308e-07
7.27496e-06
3.92614e-07
7.28323e-06
3.94933e-07
7.29269e-06
3.97248e-07
7.30336e-06
3.99546e-07
7.31524e-06
4.01809e-07
7.32831e-06
4.0362e-07
5.99872e-06
4.05305e-07
5.72812e-06
4.06866e-07
5.46975e-06
4.08306e-07
5.223e-06
4.09631e-07
4.98731e-06
4.10844e-07
4.76215e-06
4.11952e-07
4.54701e-06
4.12959e-07
4.34145e-06
4.13872e-07
4.14501e-06
4.14696e-07
3.9573e-06
4.15438e-07
3.77791e-06
4.16103e-07
3.60649e-06
4.16698e-07
3.44269e-06
4.17228e-07
3.28616e-06
4.17697e-07
3.1366e-06
4.18112e-07
2.9937e-06
4.18476e-07
2.85716e-06
4.18795e-07
2.72672e-06
4.19072e-07
2.60211e-06
4.19312e-07
2.48308e-06
4.19518e-07
2.36937e-06
4.19694e-07
2.26076e-06
4.19842e-07
2.15703e-06
4.19966e-07
2.05796e-06
4.20066e-07
1.96335e-06
4.20147e-07
1.87302e-06
4.20209e-07
1.78676e-06
4.20254e-07
1.70442e-06
4.20283e-07
1.62581e-06
1.55073e-06
3.63475e-07
7.27057e-06
3.6485e-07
7.26499e-06
3.66333e-07
7.26008e-06
3.67923e-07
7.2559e-06
3.69622e-07
7.2525e-06
3.71428e-07
7.24994e-06
3.73338e-07
7.24827e-06
3.7535e-07
7.24754e-06
3.77458e-07
7.2478e-06
3.79657e-07
7.2491e-06
3.81939e-07
7.25148e-06
3.84296e-07
7.25497e-06
3.86717e-07
7.25961e-06
3.89193e-07
7.26543e-06
3.9171e-07
7.27245e-06
3.94254e-07
7.28068e-06
3.96811e-07
7.29014e-06
3.99365e-07
7.30081e-06
4.01899e-07
7.3127e-06
4.04393e-07
7.32581e-06
4.06389e-07
5.99673e-06
4.08244e-07
5.72627e-06
4.09963e-07
5.46803e-06
4.11549e-07
5.22142e-06
4.13007e-07
4.98585e-06
4.14341e-07
4.76081e-06
4.15559e-07
4.54579e-06
4.16665e-07
4.34034e-06
4.17668e-07
4.14401e-06
4.18573e-07
3.95639e-06
4.19387e-07
3.7771e-06
4.20117e-07
3.60576e-06
4.2077e-07
3.44204e-06
4.2135e-07
3.28558e-06
4.21865e-07
3.13608e-06
4.22319e-07
2.99324e-06
4.22719e-07
2.85676e-06
4.23068e-07
2.72637e-06
4.23372e-07
2.60181e-06
4.23635e-07
2.48281e-06
4.23861e-07
2.36914e-06
4.24054e-07
2.26057e-06
4.24216e-07
2.15687e-06
4.24351e-07
2.05783e-06
4.24461e-07
1.96324e-06
4.24549e-07
1.87293e-06
4.24616e-07
1.7867e-06
4.24665e-07
1.70437e-06
4.24696e-07
1.62578e-06
1.55072e-06
3.62226e-07
7.26919e-06
3.63721e-07
7.26349e-06
3.65336e-07
7.25846e-06
3.67071e-07
7.25417e-06
3.68927e-07
7.25065e-06
3.70901e-07
7.24797e-06
3.72992e-07
7.24618e-06
3.75196e-07
7.24534e-06
3.77507e-07
7.24549e-06
3.79919e-07
7.24669e-06
3.82424e-07
7.24897e-06
3.85013e-07
7.25238e-06
3.87673e-07
7.25695e-06
3.90394e-07
7.26271e-06
3.9316e-07
7.26968e-06
3.95958e-07
7.27788e-06
3.98769e-07
7.28732e-06
4.01577e-07
7.298e-06
4.04362e-07
7.30992e-06
4.07103e-07
7.32307e-06
4.09295e-07
5.99454e-06
4.11334e-07
5.72423e-06
4.13222e-07
5.46615e-06
4.14963e-07
5.21968e-06
4.16563e-07
4.98425e-06
4.18027e-07
4.75935e-06
4.19362e-07
4.54446e-06
4.20576e-07
4.33913e-06
4.21674e-07
4.14291e-06
4.22666e-07
3.9554e-06
4.23558e-07
3.77621e-06
4.24358e-07
3.60496e-06
4.25072e-07
3.44132e-06
4.25707e-07
3.28495e-06
4.2627e-07
3.13552e-06
4.26768e-07
2.99274e-06
4.27204e-07
2.85633e-06
4.27587e-07
2.72599e-06
4.27919e-07
2.60148e-06
4.28207e-07
2.48253e-06
4.28454e-07
2.3689e-06
4.28664e-07
2.26036e-06
4.28841e-07
2.15669e-06
4.28988e-07
2.05768e-06
4.29108e-07
1.96312e-06