/*--------------------------------*- C++ -*----------------------------------*\
  =========                 |
  \\      /  F ield         | OpenFOAM: The Open Source CFD Toolbox
   \\    /   O peration     | Website:  https://openfoam.org
    \\  /    A nd           | Version:  9
     \\/     M anipulation  |
\*---------------------------------------------------------------------------*/
FoamFile
{
    format      ascii;
    class       volScalarField;
    location    "0.01";
    object      rAU;
}
// * * * * * * * * * * * * * * * * * * * * * * * * * * * * * * * * * * * * * //

dimensions      [-1 3 1 0 0 0 0];

internalField   nonuniform List<scalar> 
5000
(
2.76324e-05
2.76405e-05
2.76476e-05
2.76533e-05
2.76578e-05
2.76608e-05
2.76624e-05
2.76623e-05
2.76607e-05
2.76573e-05
2.76522e-05
2.76453e-05
2.76365e-05
2.76258e-05
2.76133e-05
2.75989e-05
2.75826e-05
2.75644e-05
2.75444e-05
2.75101e-05
2.73399e-05
2.72556e-05
2.71814e-05
2.71031e-05
2.70203e-05
2.69327e-05
2.68401e-05
2.6742e-05
2.6638e-05
2.65275e-05
2.64102e-05
2.62853e-05
2.61523e-05
2.60105e-05
2.58592e-05
2.56977e-05
2.55253e-05
2.53411e-05
2.51443e-05
2.4934e-05
2.47094e-05
2.44697e-05
2.42139e-05
2.39413e-05
2.36508e-05
2.33419e-05
2.30136e-05
2.26653e-05
2.22965e-05
2.40303e-05
3.85328e-05
3.85387e-05
3.85438e-05
3.8548e-05
3.85513e-05
3.85535e-05
3.85547e-05
3.85547e-05
3.85535e-05
3.8551e-05
3.85473e-05
3.85423e-05
3.85359e-05
3.85281e-05
3.8519e-05
3.85085e-05
3.84966e-05
3.84833e-05
3.84687e-05
3.84283e-05
3.81226e-05
3.79823e-05
3.78618e-05
3.7733e-05
3.75953e-05
3.7448e-05
3.72906e-05
3.71221e-05
3.69419e-05
3.67489e-05
3.65422e-05
3.6321e-05
3.6084e-05
3.58303e-05
3.55586e-05
3.5268e-05
3.4957e-05
3.46247e-05
3.42697e-05
3.38909e-05
3.34872e-05
3.30575e-05
3.26007e-05
3.2116e-05
3.16024e-05
3.10594e-05
3.04866e-05
2.98835e-05
2.92503e-05
3.2314e-05
3.85328e-05
3.85387e-05
3.85438e-05
3.8548e-05
3.85513e-05
3.85535e-05
3.85546e-05
3.85546e-05
3.85534e-05
3.8551e-05
3.85473e-05
3.85422e-05
3.85358e-05
3.85281e-05
3.85189e-05
3.85084e-05
3.84965e-05
3.84832e-05
3.84686e-05
3.84282e-05
3.81224e-05
3.79821e-05
3.78616e-05
3.77327e-05
3.7595e-05
3.74477e-05
3.72902e-05
3.71217e-05
3.69414e-05
3.67484e-05
3.65417e-05
3.63204e-05
3.60833e-05
3.58296e-05
3.55579e-05
3.52671e-05
3.49562e-05
3.46238e-05
3.42687e-05
3.38899e-05
3.34862e-05
3.30564e-05
3.25996e-05
3.21148e-05
3.16012e-05
3.10582e-05
3.04853e-05
2.98822e-05
2.9249e-05
3.23124e-05
3.85329e-05
3.85388e-05
3.85439e-05
3.85481e-05
3.85513e-05
3.85535e-05
3.85546e-05
3.85546e-05
3.85534e-05
3.85509e-05
3.85472e-05
3.85422e-05
3.85357e-05
3.8528e-05
3.85188e-05
3.85083e-05
3.84963e-05
3.8483e-05
3.84684e-05
3.8428e-05
3.81221e-05
3.79818e-05
3.78612e-05
3.77323e-05
3.75945e-05
3.74472e-05
3.72896e-05
3.71211e-05
3.69407e-05
3.67476e-05
3.65408e-05
3.63194e-05
3.60824e-05
3.58285e-05
3.55568e-05
3.5266e-05
3.49549e-05
3.46225e-05
3.42674e-05
3.38885e-05
3.34847e-05
3.30549e-05
3.2598e-05
3.21132e-05
3.15995e-05
3.10565e-05
3.04836e-05
2.98805e-05
2.92472e-05
3.23102e-05
3.8533e-05
3.85389e-05
3.8544e-05
3.85482e-05
3.85514e-05
3.85536e-05
3.85547e-05
3.85546e-05
3.85534e-05
3.85509e-05
3.85471e-05
3.8542e-05
3.85356e-05
3.85278e-05
3.85186e-05
3.85081e-05
3.84961e-05
3.84828e-05
3.84681e-05
3.84276e-05
3.81216e-05
3.79813e-05
3.78606e-05
3.77316e-05
3.75938e-05
3.74464e-05
3.72888e-05
3.71201e-05
3.69397e-05
3.67465e-05
3.65397e-05
3.63182e-05
3.6081e-05
3.58271e-05
3.55553e-05
3.52644e-05
3.49533e-05
3.46207e-05
3.42656e-05
3.38866e-05
3.34828e-05
3.30529e-05
3.25959e-05
3.2111e-05
3.15974e-05
3.10543e-05
3.04813e-05
2.98782e-05
2.92449e-05
3.23072e-05
3.85332e-05
3.85391e-05
3.85442e-05
3.85483e-05
3.85515e-05
3.85536e-05
3.85547e-05
3.85546e-05
3.85534e-05
3.85508e-05
3.8547e-05
3.85419e-05
3.85355e-05
3.85276e-05
3.85184e-05
3.85078e-05
3.84958e-05
3.84824e-05
3.84677e-05
3.84272e-05
3.8121e-05
3.79806e-05
3.78599e-05
3.77308e-05
3.75929e-05
3.74454e-05
3.72877e-05
3.71189e-05
3.69384e-05
3.67451e-05
3.65382e-05
3.63166e-05
3.60793e-05
3.58253e-05
3.55534e-05
3.52624e-05
3.49512e-05
3.46185e-05
3.42633e-05
3.38843e-05
3.34803e-05
3.30503e-05
3.25933e-05
3.21084e-05
3.15946e-05
3.10515e-05
3.04785e-05
2.98754e-05
2.92421e-05
3.23036e-05
3.85336e-05
3.85394e-05
3.85444e-05
3.85485e-05
3.85517e-05
3.85538e-05
3.85548e-05
3.85547e-05
3.85534e-05
3.85508e-05
3.8547e-05
3.85418e-05
3.85353e-05
3.85274e-05
3.85181e-05
3.85075e-05
3.84954e-05
3.8482e-05
3.84672e-05
3.84267e-05
3.81203e-05
3.79798e-05
3.78589e-05
3.77298e-05
3.75917e-05
3.74442e-05
3.72863e-05
3.71175e-05
3.69368e-05
3.67434e-05
3.65364e-05
3.63147e-05
3.60773e-05
3.58231e-05
3.55511e-05
3.526e-05
3.49487e-05
3.46159e-05
3.42606e-05
3.38814e-05
3.34774e-05
3.30473e-05
3.25902e-05
3.21052e-05
3.15914e-05
3.10482e-05
3.04751e-05
2.9872e-05
2.92386e-05
3.22991e-05
3.8534e-05
3.85398e-05
3.85448e-05
3.85488e-05
3.85519e-05
3.8554e-05
3.8555e-05
3.85548e-05
3.85534e-05
3.85508e-05
3.85469e-05
3.85417e-05
3.85351e-05
3.85272e-05
3.85178e-05
3.85071e-05
3.8495e-05
3.84815e-05
3.84667e-05
3.84261e-05
3.81195e-05
3.79788e-05
3.78579e-05
3.77286e-05
3.75904e-05
3.74427e-05
3.72847e-05
3.71158e-05
3.6935e-05
3.67414e-05
3.65342e-05
3.63124e-05
3.60749e-05
3.58206e-05
3.55484e-05
3.52572e-05
3.49457e-05
3.46128e-05
3.42574e-05
3.38781e-05
3.34739e-05
3.30438e-05
3.25866e-05
3.21014e-05
3.15876e-05
3.10443e-05
3.04712e-05
2.9868e-05
2.92346e-05
3.2294e-05
3.85345e-05
3.85403e-05
3.85452e-05
3.85492e-05
3.85523e-05
3.85543e-05
3.85552e-05
3.8555e-05
3.85535e-05
3.85509e-05
3.85469e-05
3.85416e-05
3.8535e-05
3.85269e-05
3.85175e-05
3.85068e-05
3.84946e-05
3.8481e-05
3.84661e-05
3.84254e-05
3.81185e-05
3.79778e-05
3.78566e-05
3.77272e-05
3.75889e-05
3.74411e-05
3.72829e-05
3.71138e-05
3.69328e-05
3.67392e-05
3.65318e-05
3.63098e-05
3.60721e-05
3.58177e-05
3.55453e-05
3.5254e-05
3.49423e-05
3.46093e-05
3.42537e-05
3.38743e-05
3.347e-05
3.30397e-05
3.25824e-05
3.20972e-05
3.15832e-05
3.10399e-05
3.04667e-05
2.98634e-05
2.923e-05
3.22881e-05
3.85351e-05
3.85409e-05
3.85457e-05
3.85497e-05
3.85527e-05
3.85546e-05
3.85555e-05
3.85552e-05
3.85537e-05
3.8551e-05
3.85469e-05
3.85416e-05
3.85348e-05
3.85267e-05
3.85173e-05
3.85064e-05
3.84941e-05
3.84805e-05
3.84655e-05
3.84247e-05
3.81175e-05
3.79766e-05
3.78553e-05
3.77257e-05
3.75872e-05
3.74392e-05
3.72809e-05
3.71116e-05
3.69305e-05
3.67366e-05
3.65291e-05
3.63069e-05
3.6069e-05
3.58144e-05
3.55419e-05
3.52503e-05
3.49386e-05
3.46054e-05
3.42496e-05
3.387e-05
3.34656e-05
3.30352e-05
3.25777e-05
3.20924e-05
3.15783e-05
3.10349e-05
3.04616e-05
2.98583e-05
2.92249e-05
3.22815e-05
3.85359e-05
3.85416e-05
3.85464e-05
3.85503e-05
3.85532e-05
3.85551e-05
3.85559e-05
3.85555e-05
3.8554e-05
3.85511e-05
3.8547e-05
3.85416e-05
3.85348e-05
3.85266e-05
3.8517e-05
3.8506e-05
3.84937e-05
3.84799e-05
3.84648e-05
3.8424e-05
3.81164e-05
3.79753e-05
3.78538e-05
3.77241e-05
3.75854e-05
3.74372e-05
3.72787e-05
3.71092e-05
3.69279e-05
3.67338e-05
3.65261e-05
3.63037e-05
3.60656e-05
3.58108e-05
3.55381e-05
3.52463e-05
3.49343e-05
3.4601e-05
3.4245e-05
3.38653e-05
3.34607e-05
3.30301e-05
3.25725e-05
3.20871e-05
3.15729e-05
3.10293e-05
3.0456e-05
2.98526e-05
2.92191e-05
3.22741e-05
3.85367e-05
3.85424e-05
3.85471e-05
3.8551e-05
3.85539e-05
3.85557e-05
3.85564e-05
3.85559e-05
3.85543e-05
3.85514e-05
3.85472e-05
3.85416e-05
3.85347e-05
3.85265e-05
3.85168e-05
3.85057e-05
3.84932e-05
3.84794e-05
3.84642e-05
3.84232e-05
3.81152e-05
3.79739e-05
3.78522e-05
3.77223e-05
3.75834e-05
3.7435e-05
3.72763e-05
3.71065e-05
3.6925e-05
3.67307e-05
3.65227e-05
3.63001e-05
3.60618e-05
3.58068e-05
3.55339e-05
3.52419e-05
3.49297e-05
3.45961e-05
3.424e-05
3.38601e-05
3.34553e-05
3.30245e-05
3.25668e-05
3.20812e-05
3.15669e-05
3.10232e-05
3.04498e-05
2.98463e-05
2.92128e-05
3.2266e-05
3.85377e-05
3.85433e-05
3.8548e-05
3.85518e-05
3.85546e-05
3.85564e-05
3.8557e-05
3.85565e-05
3.85547e-05
3.85517e-05
3.85474e-05
3.85418e-05
3.85348e-05
3.85264e-05
3.85166e-05
3.85054e-05
3.84928e-05
3.84789e-05
3.84635e-05
3.84224e-05
3.81139e-05
3.79724e-05
3.78506e-05
3.77204e-05
3.75813e-05
3.74326e-05
3.72736e-05
3.71037e-05
3.69219e-05
3.67273e-05
3.65191e-05
3.62963e-05
3.60577e-05
3.58024e-05
3.55293e-05
3.52371e-05
3.49246e-05
3.45908e-05
3.42345e-05
3.38544e-05
3.34494e-05
3.30184e-05
3.25605e-05
3.20748e-05
3.15603e-05
3.10166e-05
3.04431e-05
2.98395e-05
2.92059e-05
3.22571e-05
3.85389e-05
3.85444e-05
3.85491e-05
3.85528e-05
3.85555e-05
3.85572e-05
3.85578e-05
3.85571e-05
3.85553e-05
3.85522e-05
3.85478e-05
3.8542e-05
3.85349e-05
3.85264e-05
3.85165e-05
3.85052e-05
3.84925e-05
3.84784e-05
3.84629e-05
3.84217e-05
3.81127e-05
3.79709e-05
3.78488e-05
3.77183e-05
3.7579e-05
3.743e-05
3.72708e-05
3.71006e-05
3.69185e-05
3.67237e-05
3.65152e-05
3.62921e-05
3.60533e-05
3.57977e-05
3.55243e-05
3.52318e-05
3.49192e-05
3.45851e-05
3.42285e-05
3.38482e-05
3.3443e-05
3.30118e-05
3.25538e-05
3.20678e-05
3.15532e-05
3.10093e-05
3.04357e-05
2.98321e-05
2.91984e-05
3.22475e-05
3.85402e-05
3.85456e-05
3.85502e-05
3.85539e-05
3.85566e-05
3.85582e-05
3.85586e-05
3.85579e-05
3.8556e-05
3.85528e-05
3.85483e-05
3.85424e-05
3.85352e-05
3.85265e-05
3.85165e-05
3.8505e-05
3.84921e-05
3.84779e-05
3.84623e-05
3.84209e-05
3.81113e-05
3.79693e-05
3.78469e-05
3.77162e-05
3.75765e-05
3.74273e-05
3.72678e-05
3.70973e-05
3.69149e-05
3.67198e-05
3.6511e-05
3.62876e-05
3.60485e-05
3.57927e-05
3.55189e-05
3.52262e-05
3.49132e-05
3.45789e-05
3.42221e-05
3.38415e-05
3.3436e-05
3.30047e-05
3.25464e-05
3.20603e-05
3.15455e-05
3.10015e-05
3.04278e-05
2.9824e-05
2.91903e-05
3.22371e-05
3.85416e-05
3.8547e-05
3.85516e-05
3.85552e-05
3.85578e-05
3.85593e-05
3.85597e-05
3.85589e-05
3.85568e-05
3.85535e-05
3.85489e-05
3.85429e-05
3.85355e-05
3.85267e-05
3.85165e-05
3.85049e-05
3.84919e-05
3.84775e-05
3.84617e-05
3.84201e-05
3.811e-05
3.79677e-05
3.7845e-05
3.7714e-05
3.7574e-05
3.74245e-05
3.72646e-05
3.70938e-05
3.69111e-05
3.67157e-05
3.65066e-05
3.62828e-05
3.60434e-05
3.57872e-05
3.55132e-05
3.52201e-05
3.49069e-05
3.45723e-05
3.42151e-05
3.38343e-05
3.34286e-05
3.2997e-05
3.25385e-05
3.20522e-05
3.15373e-05
3.09931e-05
3.04192e-05
2.98154e-05
2.91816e-05
3.22259e-05
3.85432e-05
3.85486e-05
3.85531e-05
3.85566e-05
3.85591e-05
3.85606e-05
3.85609e-05
3.856e-05
3.85578e-05
3.85544e-05
3.85496e-05
3.85435e-05
3.8536e-05
3.85271e-05
3.85167e-05
3.85049e-05
3.84917e-05
3.84771e-05
3.84612e-05
3.84194e-05
3.81086e-05
3.7966e-05
3.7843e-05
3.77116e-05
3.75713e-05
3.74214e-05
3.72613e-05
3.70901e-05
3.6907e-05
3.67112e-05
3.65018e-05
3.62777e-05
3.60379e-05
3.57814e-05
3.5507e-05
3.52136e-05
3.49001e-05
3.45651e-05
3.42077e-05
3.38266e-05
3.34206e-05
3.29887e-05
3.253e-05
3.20435e-05
3.15284e-05
3.0984e-05
3.041e-05
2.98061e-05
2.91722e-05
3.22139e-05
3.8545e-05
3.85503e-05
3.85548e-05
3.85582e-05
3.85607e-05
3.8562e-05
3.85623e-05
3.85613e-05
3.8559e-05
3.85555e-05
3.85506e-05
3.85443e-05
3.85366e-05
3.85275e-05
3.8517e-05
3.8505e-05
3.84917e-05
3.84769e-05
3.84607e-05
3.84188e-05
3.81072e-05
3.79643e-05
3.78409e-05
3.77092e-05
3.75685e-05
3.74183e-05
3.72577e-05
3.70862e-05
3.69027e-05
3.67066e-05
3.64967e-05
3.62723e-05
3.60321e-05
3.57752e-05
3.55005e-05
3.52067e-05
3.48928e-05
3.45575e-05
3.41998e-05
3.38183e-05
3.3412e-05
3.29799e-05
3.25209e-05
3.20341e-05
3.15188e-05
3.09743e-05
3.04001e-05
2.97961e-05
2.91621e-05
3.2201e-05
3.8547e-05
3.85523e-05
3.85567e-05
3.85601e-05
3.85624e-05
3.85637e-05
3.85638e-05
3.85627e-05
3.85604e-05
3.85567e-05
3.85517e-05
3.85452e-05
3.85374e-05
3.85281e-05
3.85174e-05
3.85053e-05
3.84917e-05
3.84767e-05
3.84603e-05
3.84181e-05
3.81059e-05
3.79625e-05
3.78388e-05
3.77067e-05
3.75656e-05
3.7415e-05
3.7254e-05
3.7082e-05
3.68982e-05
3.67016e-05
3.64914e-05
3.62665e-05
3.60259e-05
3.57686e-05
3.54935e-05
3.51993e-05
3.4885e-05
3.45494e-05
3.41913e-05
3.38095e-05
3.34029e-05
3.29705e-05
3.25112e-05
3.20242e-05
3.15086e-05
3.09639e-05
3.03896e-05
2.97854e-05
2.91514e-05
3.21871e-05
3.85491e-05
3.85544e-05
3.85587e-05
3.85621e-05
3.85644e-05
3.85656e-05
3.85656e-05
3.85644e-05
3.85619e-05
3.85581e-05
3.85529e-05
3.85464e-05
3.85384e-05
3.85289e-05
3.8518e-05
3.85057e-05
3.84919e-05
3.84767e-05
3.846e-05
3.84176e-05
3.81045e-05
3.79608e-05
3.78367e-05
3.77041e-05
3.75626e-05
3.74115e-05
3.72502e-05
3.70777e-05
3.68934e-05
3.66964e-05
3.64857e-05
3.62604e-05
3.60194e-05
3.57617e-05
3.54861e-05
3.51915e-05
3.48768e-05
3.45408e-05
3.41823e-05
3.38001e-05
3.33932e-05
3.29605e-05
3.25009e-05
3.20136e-05
3.14978e-05
3.09529e-05
3.03784e-05
2.97741e-05
2.91399e-05
3.21724e-05
3.85515e-05
3.85567e-05
3.8561e-05
3.85643e-05
3.85666e-05
3.85677e-05
3.85676e-05
3.85663e-05
3.85637e-05
3.85598e-05
3.85544e-05
3.85477e-05
3.85395e-05
3.85299e-05
3.85188e-05
3.85062e-05
3.84922e-05
3.84767e-05
3.84599e-05
3.84172e-05
3.81032e-05
3.79591e-05
3.78345e-05
3.77015e-05
3.75595e-05
3.7408e-05
3.72461e-05
3.70732e-05
3.68884e-05
3.66909e-05
3.64797e-05
3.62539e-05
3.60125e-05
3.57543e-05
3.54783e-05
3.51832e-05
3.48681e-05
3.45317e-05
3.41727e-05
3.37902e-05
3.33829e-05
3.29498e-05
3.24899e-05
3.20023e-05
3.14863e-05
3.09411e-05
3.03665e-05
2.9762e-05
2.91277e-05
3.21568e-05
3.85541e-05
3.85593e-05
3.85635e-05
3.85668e-05
3.8569e-05
3.857e-05
3.85698e-05
3.85684e-05
3.85657e-05
3.85616e-05
3.85562e-05
3.85493e-05
3.85409e-05
3.85311e-05
3.85198e-05
3.85069e-05
3.84927e-05
3.84769e-05
3.84598e-05
3.84168e-05
3.81019e-05
3.79573e-05
3.78323e-05
3.76988e-05
3.75563e-05
3.74043e-05
3.72419e-05
3.70685e-05
3.68832e-05
3.66852e-05
3.64735e-05
3.62472e-05
3.60052e-05
3.57465e-05
3.547e-05
3.51745e-05
3.48589e-05
3.4522e-05
3.41626e-05
3.37797e-05
3.3372e-05
3.29385e-05
3.24783e-05
3.19904e-05
3.14741e-05
3.09287e-05
3.03538e-05
2.97492e-05
2.91148e-05
3.21402e-05
3.85569e-05
3.8562e-05
3.85663e-05
3.85695e-05
3.85716e-05
3.85726e-05
3.85723e-05
3.85708e-05
3.8568e-05
3.85638e-05
3.85581e-05
3.85511e-05
3.85425e-05
3.85325e-05
3.85209e-05
3.85079e-05
3.84933e-05
3.84773e-05
3.84599e-05
3.84166e-05
3.81007e-05
3.79556e-05
3.783e-05
3.7696e-05
3.75531e-05
3.74005e-05
3.72375e-05
3.70636e-05
3.68777e-05
3.66791e-05
3.64669e-05
3.624e-05
3.59975e-05
3.57383e-05
3.54613e-05
3.51653e-05
3.48491e-05
3.45118e-05
3.41519e-05
3.37685e-05
3.33604e-05
3.29266e-05
3.2466e-05
3.19778e-05
3.14612e-05
3.09155e-05
3.03404e-05
2.97356e-05
2.91011e-05
3.21227e-05
3.85599e-05
3.85651e-05
3.85693e-05
3.85724e-05
3.85745e-05
3.85754e-05
3.85751e-05
3.85735e-05
3.85705e-05
3.85662e-05
3.85604e-05
3.85531e-05
3.85444e-05
3.85341e-05
3.85223e-05
3.8509e-05
3.84942e-05
3.84779e-05
3.84601e-05
3.84165e-05
3.80996e-05
3.79539e-05
3.78278e-05
3.76933e-05
3.75497e-05
3.73965e-05
3.7233e-05
3.70585e-05
3.6872e-05
3.66728e-05
3.646e-05
3.62326e-05
3.59895e-05
3.57297e-05
3.54521e-05
3.51555e-05
3.48389e-05
3.4501e-05
3.41407e-05
3.37568e-05
3.33482e-05
3.2914e-05
3.2453e-05
3.19644e-05
3.14475e-05
3.09016e-05
3.03263e-05
2.97213e-05
2.90867e-05
3.21041e-05
3.85632e-05
3.85683e-05
3.85725e-05
3.85757e-05
3.85777e-05
3.85785e-05
3.85781e-05
3.85764e-05
3.85733e-05
3.85689e-05
3.85629e-05
3.85555e-05
3.85465e-05
3.8536e-05
3.8524e-05
3.85104e-05
3.84952e-05
3.84786e-05
3.84605e-05
3.84165e-05
3.80985e-05
3.79523e-05
3.78256e-05
3.76905e-05
3.75463e-05
3.73925e-05
3.72284e-05
3.70532e-05
3.68661e-05
3.66663e-05
3.64528e-05
3.62248e-05
3.5981e-05
3.57206e-05
3.54424e-05
3.51453e-05
3.48281e-05
3.44896e-05
3.41288e-05
3.37444e-05
3.33354e-05
3.29007e-05
3.24393e-05
3.19503e-05
3.14331e-05
3.08869e-05
3.03113e-05
2.97061e-05
2.90714e-05
3.20845e-05
3.85667e-05
3.85719e-05
3.85761e-05
3.85792e-05
3.85812e-05
3.8582e-05
3.85815e-05
3.85797e-05
3.85765e-05
3.85718e-05
3.85657e-05
3.85581e-05
3.85489e-05
3.85382e-05
3.85259e-05
3.8512e-05
3.84965e-05
3.84796e-05
3.84611e-05
3.84167e-05
3.80976e-05
3.79508e-05
3.78234e-05
3.76876e-05
3.75428e-05
3.73884e-05
3.72236e-05
3.70477e-05
3.68599e-05
3.66595e-05
3.64453e-05
3.62166e-05
3.59722e-05
3.57111e-05
3.54323e-05
3.51345e-05
3.48167e-05
3.44777e-05
3.41163e-05
3.37314e-05
3.33218e-05
3.28866e-05
3.24248e-05
3.19355e-05
3.14179e-05
3.08714e-05
3.02955e-05
2.96902e-05
2.90552e-05
3.20638e-05
3.85705e-05
3.85757e-05
3.85799e-05
3.8583e-05
3.85849e-05
3.85857e-05
3.85851e-05
3.85832e-05
3.85799e-05
3.85752e-05
3.85689e-05
3.85611e-05
3.85517e-05
3.85407e-05
3.85281e-05
3.85139e-05
3.84981e-05
3.84808e-05
3.84619e-05
3.84171e-05
3.80967e-05
3.79493e-05
3.78213e-05
3.76848e-05
3.75393e-05
3.73841e-05
3.72186e-05
3.7042e-05
3.68535e-05
3.66523e-05
3.64375e-05
3.6208e-05
3.5963e-05
3.57012e-05
3.54217e-05
3.51233e-05
3.48048e-05
3.44651e-05
3.41031e-05
3.37176e-05
3.33076e-05
3.28719e-05
3.24096e-05
3.19198e-05
3.14018e-05
3.0855e-05
3.02789e-05
2.96733e-05
2.90382e-05
3.2042e-05
3.85745e-05
3.85798e-05
3.8584e-05
3.85871e-05
3.8589e-05
3.85898e-05
3.85891e-05
3.85872e-05
3.85837e-05
3.85788e-05
3.85724e-05
3.85644e-05
3.85547e-05
3.85435e-05
3.85306e-05
3.85161e-05
3.85e-05
3.84822e-05
3.8463e-05
3.84177e-05
3.8096e-05
3.79479e-05
3.78192e-05
3.7682e-05
3.75358e-05
3.73798e-05
3.72135e-05
3.70362e-05
3.68469e-05
3.6645e-05
3.64293e-05
3.61991e-05
3.59533e-05
3.56908e-05
3.54106e-05
3.51114e-05
3.47923e-05
3.44519e-05
3.40893e-05
3.37032e-05
3.32926e-05
3.28564e-05
3.23936e-05
3.19034e-05
3.1385e-05
3.08378e-05
3.02614e-05
2.96556e-05
2.90203e-05
3.2019e-05
3.85789e-05
3.85841e-05
3.85884e-05
3.85915e-05
3.85935e-05
3.85942e-05
3.85935e-05
3.85914e-05
3.85879e-05
3.85829e-05
3.85763e-05
3.8568e-05
3.85582e-05
3.85467e-05
3.85335e-05
3.85186e-05
3.85021e-05
3.8484e-05
3.84643e-05
3.84186e-05
3.80955e-05
3.79467e-05
3.78172e-05
3.76792e-05
3.75322e-05
3.73754e-05
3.72083e-05
3.70302e-05
3.68401e-05
3.66373e-05
3.64209e-05
3.61898e-05
3.59432e-05
3.56799e-05
3.53989e-05
3.5099e-05
3.47791e-05
3.44381e-05
3.40748e-05
3.36881e-05
3.32768e-05
3.284e-05
3.23767e-05
3.18861e-05
3.13673e-05
3.08197e-05
3.0243e-05
2.96369e-05
2.90015e-05
3.19948e-05
3.85835e-05
3.85888e-05
3.85931e-05
3.85963e-05
3.85983e-05
3.85989e-05
3.85982e-05
3.85961e-05
3.85925e-05
3.85873e-05
3.85805e-05
3.85721e-05
3.8562e-05
3.85502e-05
3.85367e-05
3.85215e-05
3.85046e-05
3.84861e-05
3.84659e-05
3.84197e-05
3.80952e-05
3.79455e-05
3.78153e-05
3.76765e-05
3.75286e-05
3.7371e-05
3.7203e-05
3.7024e-05
3.6833e-05
3.66294e-05
3.64121e-05
3.61802e-05
3.59327e-05
3.56686e-05
3.53867e-05
3.50861e-05
3.47654e-05
3.44236e-05
3.40596e-05
3.36722e-05
3.32603e-05
3.28229e-05
3.23591e-05
3.18679e-05
3.13486e-05
3.08007e-05
3.02236e-05
2.96173e-05
2.89817e-05
3.19694e-05
3.85884e-05
3.85939e-05
3.85982e-05
3.86014e-05
3.86034e-05
3.86041e-05
3.86034e-05
3.86012e-05
3.85975e-05
3.85922e-05
3.85852e-05
3.85766e-05
3.85663e-05
3.85542e-05
3.85404e-05
3.85248e-05
3.85075e-05
3.84885e-05
3.84678e-05
3.8421e-05
3.8095e-05
3.79446e-05
3.78135e-05
3.76738e-05
3.7525e-05
3.73665e-05
3.71976e-05
3.70176e-05
3.68257e-05
3.66211e-05
3.64029e-05
3.61701e-05
3.59217e-05
3.56567e-05
3.5374e-05
3.50725e-05
3.4751e-05
3.44084e-05
3.40436e-05
3.36555e-05
3.32429e-05
3.28049e-05
3.23405e-05
3.18487e-05
3.1329e-05
3.07807e-05
3.02033e-05
2.95967e-05
2.89608e-05
3.19426e-05
3.85937e-05
3.85992e-05
3.86037e-05
3.86069e-05
3.8609e-05
3.86097e-05
3.86089e-05
3.86067e-05
3.86029e-05
3.85975e-05
3.85904e-05
3.85816e-05
3.8571e-05
3.85586e-05
3.85444e-05
3.85285e-05
3.85107e-05
3.84912e-05
3.847e-05
3.84227e-05
3.80951e-05
3.79438e-05
3.78118e-05
3.76712e-05
3.75214e-05
3.73619e-05
3.71921e-05
3.70111e-05
3.68182e-05
3.66126e-05
3.63934e-05
3.61596e-05
3.59103e-05
3.56443e-05
3.53607e-05
3.50583e-05
3.47359e-05
3.43925e-05
3.40269e-05
3.3638e-05
3.32247e-05
3.2786e-05
3.23209e-05
3.18287e-05
3.13084e-05
3.07596e-05
3.01819e-05
2.9575e-05
2.89389e-05
3.19145e-05
3.85992e-05
3.86049e-05
3.86095e-05
3.86128e-05
3.86149e-05
3.86156e-05
3.86149e-05
3.86127e-05
3.86088e-05
3.86033e-05
3.8596e-05
3.8587e-05
3.85761e-05
3.85635e-05
3.85489e-05
3.85326e-05
3.85144e-05
3.84944e-05
3.84726e-05
3.84247e-05
3.80954e-05
3.79432e-05
3.78102e-05
3.76686e-05
3.75179e-05
3.73574e-05
3.71864e-05
3.70044e-05
3.68105e-05
3.66039e-05
3.63836e-05
3.61488e-05
3.58984e-05
3.56314e-05
3.53468e-05
3.50434e-05
3.47202e-05
3.43759e-05
3.40094e-05
3.36197e-05
3.32056e-05
3.27662e-05
3.23005e-05
3.18076e-05
3.12868e-05
3.07375e-05
3.01594e-05
2.95522e-05
2.89159e-05
3.18849e-05
3.86052e-05
3.8611e-05
3.86157e-05
3.86191e-05
3.86213e-05
3.86221e-05
3.86214e-05
3.86191e-05
3.86152e-05
3.86096e-05
3.86022e-05
3.85929e-05
3.85818e-05
3.85689e-05
3.8554e-05
3.85372e-05
3.85185e-05
3.8498e-05
3.84756e-05
3.84271e-05
3.8096e-05
3.79428e-05
3.78088e-05
3.76662e-05
3.75143e-05
3.73527e-05
3.71807e-05
3.69976e-05
3.68025e-05
3.65948e-05
3.63734e-05
3.61375e-05
3.5886e-05
3.5618e-05
3.53323e-05
3.50279e-05
3.47037e-05
3.43584e-05
3.3991e-05
3.36005e-05
3.31856e-05
3.27454e-05
3.2279e-05
3.17854e-05
3.12641e-05
3.07144e-05
3.01358e-05
2.95282e-05
2.88917e-05
3.18539e-05
3.86114e-05
3.86174e-05
3.86222e-05
3.86258e-05
3.86281e-05
3.8629e-05
3.86283e-05
3.86261e-05
3.86221e-05
3.86164e-05
3.86088e-05
3.85994e-05
3.85881e-05
3.85748e-05
3.85595e-05
3.85423e-05
3.85231e-05
3.8502e-05
3.84791e-05
3.84298e-05
3.80969e-05
3.79427e-05
3.78076e-05
3.76639e-05
3.75109e-05
3.73481e-05
3.71749e-05
3.69906e-05
3.67943e-05
3.65854e-05
3.63628e-05
3.61257e-05
3.58731e-05
3.5604e-05
3.53172e-05
3.50117e-05
3.46864e-05
3.43401e-05
3.39718e-05
3.35803e-05
3.31646e-05
3.27236e-05
3.22564e-05
3.17622e-05
3.12403e-05
3.069e-05
3.01111e-05
2.95031e-05
2.88663e-05
3.18213e-05
3.8618e-05
3.86242e-05
3.86292e-05
3.8633e-05
3.86354e-05
3.86364e-05
3.86358e-05
3.86335e-05
3.86296e-05
3.86238e-05
3.86161e-05
3.86065e-05
3.85949e-05
3.85813e-05
3.85656e-05
3.8548e-05
3.85283e-05
3.85066e-05
3.8483e-05
3.8433e-05
3.80982e-05
3.79428e-05
3.78066e-05
3.76617e-05
3.75075e-05
3.73435e-05
3.7169e-05
3.69834e-05
3.67859e-05
3.65757e-05
3.63519e-05
3.61136e-05
3.58597e-05
3.55894e-05
3.53014e-05
3.49948e-05
3.46683e-05
3.4321e-05
3.39517e-05
3.35592e-05
3.31426e-05
3.27007e-05
3.22328e-05
3.17379e-05
3.12153e-05
3.06645e-05
3.00851e-05
2.94768e-05
2.88397e-05
3.17872e-05
3.8625e-05
3.86314e-05
3.86367e-05
3.86406e-05
3.86432e-05
3.86443e-05
3.86438e-05
3.86416e-05
3.86376e-05
3.86318e-05
3.8624e-05
3.86142e-05
3.86023e-05
3.85884e-05
3.85724e-05
3.85542e-05
3.8534e-05
3.85117e-05
3.84874e-05
3.84367e-05
3.80998e-05
3.79433e-05
3.78059e-05
3.76597e-05
3.75042e-05
3.73389e-05
3.71631e-05
3.69761e-05
3.67773e-05
3.65657e-05
3.63406e-05
3.61009e-05
3.58458e-05
3.55741e-05
3.52849e-05
3.4977e-05
3.46494e-05
3.4301e-05
3.39306e-05
3.35371e-05
3.31195e-05
3.26767e-05
3.2208e-05
3.17123e-05
3.11891e-05
3.06378e-05
3.00579e-05
2.94492e-05
2.88118e-05
3.17515e-05
3.86324e-05
3.86391e-05
3.86445e-05
3.86487e-05
3.86515e-05
3.86528e-05
3.86524e-05
3.86502e-05
3.86463e-05
3.86404e-05
3.86325e-05
3.86225e-05
3.86104e-05
3.85962e-05
3.85797e-05
3.85611e-05
3.85403e-05
3.85174e-05
3.84923e-05
3.84408e-05
3.81018e-05
3.79441e-05
3.78053e-05
3.76578e-05
3.7501e-05
3.73343e-05
3.71571e-05
3.69687e-05
3.67684e-05
3.65554e-05
3.63289e-05
3.60878e-05
3.58312e-05
3.55582e-05
3.52677e-05
3.49585e-05
3.46297e-05
3.428e-05
3.39084e-05
3.35138e-05
3.30952e-05
3.26515e-05
3.21819e-05
3.16855e-05
3.11616e-05
3.06096e-05
3.00292e-05
2.94202e-05
2.87825e-05
3.17139e-05
3.86401e-05
3.86471e-05
3.86529e-05
3.86573e-05
3.86603e-05
3.86618e-05
3.86615e-05
3.86595e-05
3.86556e-05
3.86497e-05
3.86417e-05
3.86316e-05
3.86193e-05
3.86047e-05
3.85878e-05
3.85687e-05
3.85473e-05
3.85237e-05
3.84979e-05
3.84455e-05
3.81042e-05
3.79452e-05
3.78051e-05
3.76562e-05
3.74979e-05
3.73297e-05
3.7151e-05
3.69611e-05
3.67593e-05
3.65448e-05
3.63167e-05
3.60741e-05
3.58161e-05
3.55416e-05
3.52497e-05
3.49391e-05
3.4609e-05
3.4258e-05
3.38852e-05
3.34894e-05
3.30697e-05
3.2625e-05
3.21544e-05
3.16572e-05
3.11325e-05
3.058e-05
2.9999e-05
2.93896e-05
2.87515e-05
3.16742e-05
3.86483e-05
3.86556e-05
3.86617e-05
3.86665e-05
3.86697e-05
3.86714e-05
3.86713e-05
3.86695e-05
3.86656e-05
3.86597e-05
3.86517e-05
3.86414e-05
3.86288e-05
3.86139e-05
3.85966e-05
3.8577e-05
3.8555e-05
3.85306e-05
3.8504e-05
3.84507e-05
3.81071e-05
3.79467e-05
3.78052e-05
3.76548e-05
3.74949e-05
3.73252e-05
3.71449e-05
3.69534e-05
3.67499e-05
3.65338e-05
3.63041e-05
3.60599e-05
3.58003e-05
3.55243e-05
3.52308e-05
3.49188e-05
3.45872e-05
3.42349e-05
3.38608e-05
3.34638e-05
3.30429e-05
3.25971e-05
3.21255e-05
3.16274e-05
3.11019e-05
3.05486e-05
2.99671e-05
2.93572e-05
2.87188e-05
3.16322e-05
3.86569e-05
3.86646e-05
3.8671e-05
3.86761e-05
3.86797e-05
3.86816e-05
3.86818e-05
3.86801e-05
3.86763e-05
3.86705e-05
3.86624e-05
3.8652e-05
3.86392e-05
3.86239e-05
3.86062e-05
3.8586e-05
3.85634e-05
3.85383e-05
3.85108e-05
3.84566e-05
3.81105e-05
3.79486e-05
3.78056e-05
3.76536e-05
3.74921e-05
3.73207e-05
3.71387e-05
3.69454e-05
3.67403e-05
3.65224e-05
3.6291e-05
3.60452e-05
3.57839e-05
3.55062e-05
3.52111e-05
3.48976e-05
3.45644e-05
3.42106e-05
3.38351e-05
3.34368e-05
3.30146e-05
3.25677e-05
3.2095e-05
3.15959e-05
3.10696e-05
3.05155e-05
2.99334e-05
2.93228e-05
2.86839e-05
3.15874e-05
3.86659e-05
3.8674e-05
3.86809e-05
3.86863e-05
3.86903e-05
3.86925e-05
3.8693e-05
3.86914e-05
3.86878e-05
3.8682e-05
3.86739e-05
3.86634e-05
3.86504e-05
3.86348e-05
3.86167e-05
3.85959e-05
3.85726e-05
3.85467e-05
3.85184e-05
3.84631e-05
3.81144e-05
3.7951e-05
3.78064e-05
3.76526e-05
3.74894e-05
3.73162e-05
3.71324e-05
3.69374e-05
3.67304e-05
3.65107e-05
3.62774e-05
3.60297e-05
3.57667e-05
3.54872e-05
3.51904e-05
3.48752e-05
3.45404e-05
3.41851e-05
3.38081e-05
3.34083e-05
3.29848e-05
3.25367e-05
3.20629e-05
3.15627e-05
3.10355e-05
3.04808e-05
2.9898e-05
2.92871e-05
2.86479e-05
3.15413e-05
3.86754e-05
3.86839e-05
3.86913e-05
3.86972e-05
3.87015e-05
3.87041e-05
3.87048e-05
3.87036e-05
3.87001e-05
3.86944e-05
3.86863e-05
3.86757e-05
3.86625e-05
3.86466e-05
3.8628e-05
3.86067e-05
3.85827e-05
3.8556e-05
3.85267e-05
3.84703e-05
3.81189e-05
3.79538e-05
3.78075e-05
3.7652e-05
3.74869e-05
3.73118e-05
3.7126e-05
3.69291e-05
3.67201e-05
3.64985e-05
3.62633e-05
3.60136e-05
3.57487e-05
3.54674e-05
3.51687e-05
3.48517e-05
3.45152e-05
3.41581e-05
3.37795e-05
3.33783e-05
3.29534e-05
3.25039e-05
3.20289e-05
3.15276e-05
3.09995e-05
3.04439e-05
2.98605e-05
2.9249e-05
2.86096e-05
3.14925e-05
3.86853e-05
3.86944e-05
3.87022e-05
3.87086e-05
3.87134e-05
3.87164e-05
3.87175e-05
3.87165e-05
3.87133e-05
3.87077e-05
3.86996e-05
3.86889e-05
3.86755e-05
3.86593e-05
3.86403e-05
3.86184e-05
3.85936e-05
3.85661e-05
3.85358e-05
3.84783e-05
3.8124e-05
3.79572e-05
3.7809e-05
3.76516e-05
3.74845e-05
3.73074e-05
3.71196e-05
3.69205e-05
3.67095e-05
3.64858e-05
3.62485e-05
3.59968e-05
3.57298e-05
3.54464e-05
3.51458e-05
3.48269e-05
3.44885e-05
3.41297e-05
3.37494e-05
3.33465e-05
3.292e-05
3.24691e-05
3.19928e-05
3.14903e-05
3.09611e-05
3.04046e-05
2.98204e-05
2.92084e-05
2.85685e-05
3.14401e-05
3.86957e-05
3.87054e-05
3.87137e-05
3.87206e-05
3.87259e-05
3.87294e-05
3.87309e-05
3.87303e-05
3.87273e-05
3.87219e-05
3.87139e-05
3.87031e-05
3.86896e-05
3.8673e-05
3.86535e-05
3.86311e-05
3.86056e-05
3.85771e-05
3.85457e-05
3.8487e-05
3.81297e-05
3.79611e-05
3.78109e-05
3.76514e-05
3.74823e-05
3.7303e-05
3.7113e-05
3.69118e-05
3.66985e-05
3.64725e-05
3.6233e-05
3.59791e-05
3.57099e-05
3.54245e-05
3.51217e-05
3.48007e-05
3.44604e-05
3.40996e-05
3.37174e-05
3.33128e-05
3.28847e-05
3.24322e-05
3.19544e-05
3.14507e-05
3.09203e-05
3.03628e-05
2.97778e-05
2.91651e-05
2.85248e-05
3.13841e-05
3.87066e-05
3.87169e-05
3.87259e-05
3.87334e-05
3.87392e-05
3.87432e-05
3.87452e-05
3.8745e-05
3.87423e-05
3.87371e-05
3.87292e-05
3.87185e-05
3.87047e-05
3.86879e-05
3.86679e-05
3.86448e-05
3.86185e-05
3.85891e-05
3.85566e-05
3.84966e-05
3.81361e-05
3.79655e-05
3.78133e-05
3.76517e-05
3.74803e-05
3.72987e-05
3.71064e-05
3.69027e-05
3.66871e-05
3.64588e-05
3.62169e-05
3.59606e-05
3.56891e-05
3.54013e-05
3.50964e-05
3.47732e-05
3.44307e-05
3.40679e-05
3.36837e-05
3.32771e-05
3.28472e-05
3.23931e-05
3.19138e-05
3.14086e-05
3.0877e-05
3.03184e-05
2.97324e-05
2.9119e-05
2.84782e-05
3.13245e-05
3.8718e-05
3.8729e-05
3.87387e-05
3.87468e-05
3.87533e-05
3.87579e-05
3.87604e-05
3.87606e-05
3.87584e-05
3.87534e-05
3.87457e-05
3.87349e-05
3.8721e-05
3.87039e-05
3.86835e-05
3.86597e-05
3.86326e-05
3.86022e-05
3.85686e-05
3.85072e-05
3.81433e-05
3.79706e-05
3.78161e-05
3.76522e-05
3.74785e-05
3.72944e-05
3.70996e-05
3.68935e-05
3.66753e-05
3.64444e-05
3.62e-05
3.59413e-05
3.56672e-05
3.5377e-05
3.50697e-05
3.47441e-05
3.43993e-05
3.40343e-05
3.3648e-05
3.32394e-05
3.28076e-05
3.23516e-05
3.18706e-05
3.13639e-05
3.08309e-05
3.02711e-05
2.96841e-05
2.90699e-05
2.84284e-05
3.12608e-05
3.87299e-05
3.87417e-05
3.87521e-05
3.8761e-05
3.87682e-05
3.87734e-05
3.87765e-05
3.87773e-05
3.87754e-05
3.87708e-05
3.87633e-05
3.87526e-05
3.87386e-05
3.87212e-05
3.87003e-05
3.86759e-05
3.86479e-05
3.86165e-05
3.85816e-05
3.85188e-05
3.81513e-05
3.79763e-05
3.78196e-05
3.76532e-05
3.74769e-05
3.72903e-05
3.70928e-05
3.6884e-05
3.66631e-05
3.64295e-05
3.61824e-05
3.5921e-05
3.56443e-05
3.53515e-05
3.50416e-05
3.47136e-05
3.43664e-05
3.3999e-05
3.36104e-05
3.31997e-05
3.27658e-05
3.23079e-05
3.1825e-05
3.13167e-05
3.07821e-05
3.02209e-05
2.96328e-05
2.90176e-05
2.83754e-05
3.1193e-05
3.87424e-05
3.87549e-05
3.87662e-05
3.87759e-05
3.87838e-05
3.87898e-05
3.87936e-05
3.8795e-05
3.87937e-05
3.87894e-05
3.87821e-05
3.87715e-05
3.87575e-05
3.87398e-05
3.87185e-05
3.86934e-05
3.86646e-05
3.8632e-05
3.85958e-05
3.85314e-05
3.81602e-05
3.79829e-05
3.78236e-05
3.76546e-05
3.74757e-05
3.72862e-05
3.7086e-05
3.68743e-05
3.66505e-05
3.64141e-05
3.61641e-05
3.58998e-05
3.56204e-05
3.53248e-05
3.50122e-05
3.46815e-05
3.43317e-05
3.39619e-05
3.35709e-05
3.31579e-05
3.27218e-05
3.22618e-05
3.1777e-05
3.12668e-05
3.07306e-05
3.01679e-05
2.95784e-05
2.89621e-05
2.83189e-05
3.11205e-05
3.87554e-05
3.87688e-05
3.87809e-05
3.87915e-05
3.88004e-05
3.88072e-05
3.88118e-05
3.88138e-05
3.88131e-05
3.88093e-05
3.88024e-05
3.87919e-05
3.87778e-05
3.87599e-05
3.87382e-05
3.87124e-05
3.86827e-05