/*--------------------------------*- C++ -*----------------------------------*\
  =========                 |
  \\      /  F ield         | OpenFOAM: The Open Source CFD Toolbox
   \\    /   O peration     | Website:  https://openfoam.org
    \\  /    A nd           | Version:  9
     \\/     M anipulation  |
\*---------------------------------------------------------------------------*/
FoamFile
{
    format      ascii;
    class       surfaceVectorField;
    location    "0.01";
    object      Uf;
}
// * * * * * * * * * * * * * * * * * * * * * * * * * * * * * * * * * * * * * //

dimensions      [0 1 -1 0 0 0 0];

internalField   nonuniform List<vector> 
9850
(
(9.29418e-06 0 -0.0528274)
(1.38862e-05 0 -0.0524667)
(8.12347e-06 0 -0.053577)
(1.24639e-05 0 -0.053274)
(6.78402e-06 0 -0.0542085)
(1.07669e-05 0 -0.0539672)
(5.27757e-06 0 -0.0547134)
(8.80017e-06 0 -0.054538)
(3.62093e-06 0 -0.0550836)
(6.57891e-06 0 -0.054978)
(1.83176e-06 0 -0.0553108)
(4.13142e-06 0 -0.055279)
(-6.8879e-08 0 -0.0553876)
(1.49627e-06 0 -0.0554331)
(-2.05023e-06 0 -0.0553066)
(-1.28103e-06 0 -0.0554329)
(-4.08188e-06 0 -0.0550612)
(-4.14476e-06 0 -0.0552713)
(-6.12693e-06 0 -0.0546453)
(-7.03199e-06 0 -0.0549419)
(-8.14522e-06 0 -0.0540537)
(-9.87389e-06 0 -0.0544392)
(-1.00934e-05 0 -0.0532819)
(-1.25952e-05 0 -0.0537581)
(-1.19267e-05 0 -0.0523263)
(-1.51167e-05 0 -0.0528946)
(-1.36e-05 0 -0.0511845)
(-1.73578e-05 0 -0.0518459)
(-1.50682e-05 0 -0.0498548)
(-1.92384e-05 0 -0.0506096)
(-1.62853e-05 0 -0.048337)
(-2.06787e-05 0 -0.049185)
(-1.72041e-05 0 -0.0466322)
(-2.15966e-05 0 -0.0475721)
(-1.77845e-05 0 -0.0447431)
(-2.19113e-05 0 -0.0457731)
(-1.80129e-05 0 -0.0426733)
(-2.1569e-05 0 -0.0437915)
(-1.79075e-05 0 -0.0404299)
(-2.06127e-05 0 -0.0416308)
(-1.7428e-05 0 -0.0384719)
(-1.90999e-05 0 -0.0395145)
(-1.67369e-05 0 -0.0365059)
(-1.71762e-05 0 -0.0375461)
(-1.58642e-05 0 -0.0345478)
(-1.49725e-05 0 -0.0355796)
(-1.48289e-05 0 -0.0326084)
(-1.25055e-05 0 -0.0336266)
(-1.36602e-05 0 -0.0306975)
(-9.81559e-06 0 -0.0316975)
(-1.23876e-05 0 -0.028823)
(-6.95889e-06 0 -0.0298011)
(-1.104e-05 0 -0.0269915)
(-3.9894e-06 0 -0.0279448)
(-9.64099e-06 0 -0.0252081)
(-9.54905e-07 0 -0.0261343)
(-8.2116e-06 0 -0.0234768)
(2.10523e-06 0 -0.0243741)
(-6.76994e-06 0 -0.0218004)
(5.15633e-06 0 -0.0226676)
(-5.33177e-06 0 -0.0201811)
(8.1685e-06 0 -0.0210173)
(-3.91064e-06 0 -0.0186202)
(1.11161e-05 0 -0.019425)
(-2.51799e-06 0 -0.0171185)
(1.39776e-05 0 -0.0178917)
(-1.16337e-06 0 -0.0156765)
(1.67351e-05 0 -0.0164179)
(1.45582e-07 0 -0.014294)
(1.93741e-05 0 -0.0150038)
(1.40299e-06 0 -0.0129709)
(2.18839e-05 0 -0.0136492)
(2.60469e-06 0 -0.0117067)
(2.42569e-05 0 -0.0123539)
(3.74815e-06 0 -0.010501)
(2.64889e-05 0 -0.0111174)
(4.83226e-06 0 -0.00935344)
(2.85789e-05 0 -0.00993919)
(5.85697e-06 0 -0.00826347)
(3.05285e-05 0 -0.0088189)
(6.82303e-06 0 -0.0072306)
(3.2341e-05 0 -0.00775602)
(7.73137e-06 0 -0.0062542)
(3.4021e-05 0 -0.00675)
(8.58113e-06 0 -0.00533338)
(3.55719e-05 0 -0.00580013)
(9.36555e-06 0 -0.00446676)
(3.69907e-05 0 -0.00490533)
(1.00705e-05 0 -0.00365213)
(3.82633e-05 0 -0.00406387)
(1.06876e-05 0 -0.00288629)
(3.93736e-05 0 -0.00327306)
(1.12463e-05 0 -0.00216533)
(4.03432e-05 0 -0.00252929)
(1.18924e-05 0 -0.00148664)
(4.11844e-05 0 -0.00182883)
(1.34438e-05 0 -0.000858055)
(4.289e-05 0 -0.00117254)
(4.80185e-05 0 -0.000584114)
(1.71022e-05 0 -0.0529397)
(1.63529e-05 0 -0.0524657)
(1.51627e-05 0 -0.0536909)
(1.50146e-05 0 -0.0532727)
(1.284e-05 0 -0.0543238)
(1.32564e-05 0 -0.0539656)
(1.01482e-05 0 -0.0548299)
(1.10923e-05 0 -0.0545362)
(7.13011e-06 0 -0.0552009)
(8.53747e-06 0 -0.054976)
(3.82605e-06 0 -0.0554288)
(5.64804e-06 0 -0.0552768)
(3.00076e-07 0 -0.0555059)
(2.49713e-06 0 -0.0554308)
(-3.37389e-06 0 -0.0554249)
(-8.35831e-07 0 -0.0554304)
(-7.10895e-06 0 -0.0551792)
(-4.25146e-06 0 -0.0552688)
(-1.08109e-05 0 -0.0547627)
(-7.63606e-06 0 -0.0549394)
(-1.43755e-05 0 -0.0541701)
(-1.08677e-05 0 -0.0544368)
(-1.76899e-05 0 -0.0533969)
(-1.38136e-05 0 -0.0537558)
(-2.06388e-05 0 -0.0524397)
(-1.63347e-05 0 -0.0528927)
(-2.31067e-05 0 -0.0512958)
(-1.82897e-05 0 -0.0518442)
(-2.49786e-05 0 -0.0499638)
(-1.95392e-05 0 -0.0506084)
(-2.61394e-05 0 -0.0484432)
(-1.99456e-05 0 -0.0491842)
(-2.64711e-05 0 -0.0467352)
(-1.93687e-05 0 -0.0475719)
(-2.58771e-05 0 -0.0448427)
(-1.76676e-05 0 -0.0457735)
(-2.43102e-05 0 -0.042769)
(-1.47194e-05 0 -0.0437926)
(-2.18532e-05 0 -0.040521)
(-1.05616e-05 0 -0.0416325)
(-1.88707e-05 0 -0.0385589)
(-5.70938e-06 0 -0.039517)
(-1.54508e-05 0 -0.0365889)
(-5.35847e-07 0 -0.037549)
(-1.16399e-05 0 -0.0346268)
(5.06164e-06 0 -0.035583)
(-7.49778e-06 0 -0.0326836)
(1.10549e-05 0 -0.0336306)
(-3.10256e-06 0 -0.0307687)
(1.73467e-05 0 -0.0317019)
(1.46313e-06 0 -0.0288904)
(2.38298e-05 0 -0.0298058)
(6.13024e-06 0 -0.0270552)
(3.04073e-05 0 -0.0279498)
(1.08356e-05 0 -0.0252681)
(3.69952e-05 0 -0.0261396)
(1.55254e-05 0 -0.0235332)
(4.35237e-05 0 -0.0243796)
(2.01535e-05 0 -0.0218533)
(4.99322e-05 0 -0.0226733)
(2.46802e-05 0 -0.0202306)
(5.61692e-05 0 -0.0210232)
(2.90719e-05 0 -0.0186665)
(6.21917e-05 0 -0.019431)
(3.33004e-05 0 -0.0171617)
(6.79638e-05 0 -0.0178977)
(3.73431e-05 0 -0.0157167)
(7.34567e-05 0 -0.0164239)
(4.11826e-05 0 -0.0143313)
(7.86483e-05 0 -0.0150098)
(4.48064e-05 0 -0.0130054)
(8.35225e-05 0 -0.0136553)
(4.82071e-05 0 -0.0117386)
(8.80697e-05 0 -0.0123599)
(5.1382e-05 0 -0.0105304)
(9.22862e-05 0 -0.0111232)
(5.43329e-05 0 -0.00938047)
(9.6174e-05 0 -0.00994494)
(5.70648e-05 0 -0.00828823)
(9.97395e-05 0 -0.0088245)
(5.95848e-05 0 -0.00725321)
(0.000102992 0 -0.00776147)
(6.19002e-05 0 -0.00627475)
(0.000105943 0 -0.00675527)
(6.40132e-05 0 -0.00535194)
(0.0001086 0 -0.00580519)
(6.59124e-05 0 -0.00448334)
(0.000110959 0 -0.00491011)
(6.75755e-05 0 -0.00366674)
(0.000113002 0 -0.00406827)
(6.90135e-05 0 -0.00289902)
(0.000114721 0 -0.00327705)
(7.03601e-05 0 -0.00217676)
(0.000116188 0 -0.0025332)
(7.19718e-05 0 -0.00149978)
(0.000117484 0 -0.00183369)
(7.50319e-05 0 -0.000885203)
(0.000119666 0 -0.00118211)
(0.000124858 0 -0.00060948)
(1.42752e-05 0 -0.0529141)
(7.68246e-06 0 -0.0524653)
(1.31474e-05 0 -0.0536646)
(7.88201e-06 0 -0.0532719)
(1.15479e-05 0 -0.0542967)
(7.64368e-06 0 -0.0539646)
(9.5091e-06 0 -0.0548021)
(6.97745e-06 0 -0.0545348)
(7.07784e-06 0 -0.0551726)
(5.90108e-06 0 -0.0549744)
(4.32738e-06 0 -0.0554)
(4.5024e-06 0 -0.0552749)
(1.35319e-06 0 -0.0554768)
(2.87303e-06 0 -0.0554288)
(-1.7375e-06 0 -0.0553956)
(1.1213e-06 0 -0.0554283)
(-4.8205e-06 0 -0.0551499)
(-6.22809e-07 0 -0.0552667)
(-7.75693e-06 0 -0.0547335)
(-2.2079e-06 0 -0.0549375)
(-1.03927e-05 0 -0.0541412)
(-3.47414e-06 0 -0.054435)
(-1.25674e-05 0 -0.0533686)
(-4.24952e-06 0 -0.0537544)
(-1.41165e-05 0 -0.0524121)
(-4.3532e-06 0 -0.0528916)
(-1.48743e-05 0 -0.0512691)
(-3.60378e-06 0 -0.0518437)
(-1.46787e-05 0 -0.0499382)
(-1.82315e-06 0 -0.0506085)
(-1.33669e-05 0 -0.0484189)
(1.16235e-06 0 -0.049185)
(-1.07705e-05 0 -0.0467123)
(5.52881e-06 0 -0.0475736)
(-6.73988e-06 0 -0.0448214)
(1.14519e-05 0 -0.0457762)
(-1.20462e-06 0 -0.0427494)
(1.91149e-05 0 -0.0437963)
(6.00658e-06 0 -0.040503)
(2.85491e-05 0 -0.0416373)
(1.26609e-05 0 -0.0385421)
(3.843e-05 0 -0.0395224)
(1.99916e-05 0 -0.0365735)
(4.80982e-05 0 -0.0375553)
(2.78113e-05 0 -0.0346128)
(5.82204e-05 0 -0.0355901)
(3.59822e-05 0 -0.0326708)
(6.87331e-05 0 -0.0336383)
(4.43821e-05 0 -0.0307573)
(7.94741e-05 0 -0.0317102)
(5.28915e-05 0 -0.0288801)
(9.02968e-05 0 -0.0298147)
(6.14019e-05 0 -0.027046)
(0.000101074 0 -0.0279591)
(6.98228e-05 0 -0.02526)
(0.000111698 0 -0.0261491)
(7.80772e-05 0 -0.023526)
(0.000122075 0 -0.0243894)
(8.60997e-05 0 -0.021847)
(0.00013213 0 -0.0226833)
(9.38353e-05 0 -0.0202251)
(0.000141797 0 -0.0210333)
(0.000101239 0 -0.0186618)
(0.000151026 0 -0.0194411)
(0.000108274 0 -0.0171577)
(0.000159776 0 -0.0179078)
(0.000114912 0 -0.0157133)
(0.000168015 0 -0.016434)
(0.000121133 0 -0.0143285)
(0.000175721 0 -0.0150197)
(0.000126923 0 -0.0130031)
(0.000182881 0 -0.0136649)
(0.000132278 0 -0.0117367)
(0.000189489 0 -0.0123693)
(0.000137198 0 -0.010529)
(0.000195547 0 -0.0111323)
(0.00014169 0 -0.00937939)
(0.000201065 0 -0.00995369)
(0.000145766 0 -0.00828747)
(0.000206058 0 -0.00883286)
(0.000149437 0 -0.00725273)
(0.000210542 0 -0.00776939)
(0.000152717 0 -0.0062745)
(0.000214536 0 -0.00676273)
(0.000155609 0 -0.00535183)
(0.000218056 0 -0.0058121)
(0.000158101 0 -0.00448325)
(0.000221102 0 -0.00491637)
(0.000160178 0 -0.00366658)
(0.000223661 0 -0.00407375)
(0.000161885 0 -0.00289901)
(0.00022575 0 -0.00328178)
(0.000163433 0 -0.00217767)
(0.000227501 0 -0.00253768)
(0.000165201 0 -0.00150347)
(0.000229123 0 -0.00183901)
(0.000167618 0 -0.000894545)
(0.000231329 0 -0.00118968)
(0.000234226 0 -0.000620299)
(1.23562e-06 0 -0.0528648)
(-1.21581e-05 0 -0.0524663)
(2.37059e-06 0 -0.0536143)
(-8.97866e-06 0 -0.0532727)
(3.06603e-06 0 -0.0542455)
(-6.1654e-06 0 -0.053965)
(3.36172e-06 0 -0.0547503)
(-3.67634e-06 0 -0.054535)
(3.31229e-06 0 -0.0551202)
(-1.49127e-06 0 -0.0549743)
(3.01855e-06 0 -0.0553473)
(4.90276e-07 0 -0.0552747)
(2.59984e-06 0 -0.0554239)
(2.37556e-06 0 -0.0554285)
(2.18307e-06 0 -0.0553429)
(4.29686e-06 0 -0.055428)
(1.92352e-06 0 -0.0550976)
(6.40077e-06 0 -0.0552665)
(1.98965e-06 0 -0.0546819)
(8.86418e-06 0 -0.0549375)
(2.56623e-06 0 -0.0540905)
(1.18704e-05 0 -0.0544354)
(3.84552e-06 0 -0.0533192)
(1.56146e-05 0 -0.0537552)
(6.02414e-06 0 -0.0523642)
(2.03017e-05 0 -0.0528931)
(9.29695e-06 0 -0.0512231)
(2.6134e-05 0 -0.0518459)
(1.38533e-05 0 -0.0498942)
(3.33078e-05 0 -0.0506115)
(1.98808e-05 0 -0.0483774)
(4.2012e-05 0 -0.0491891)
(2.75738e-05 0 -0.0466736)
(5.24361e-05 0 -0.0475787)
(3.71134e-05 0 -0.0447856)
(6.47621e-05 0 -0.0457825)
(4.86058e-05 0 -0.0427169)
(7.91663e-05 0 -0.0438039)
(6.20602e-05 0 -0.040474)
(9.56938e-05 0 -0.0416463)
(7.40035e-05 0 -0.0385162)
(0.000112205 0 -0.0395322)
(8.64767e-05 0 -0.0365505)
(0.000127789 0 -0.037566)
(9.93411e-05 0 -0.0345925)
(0.000143674 0 -0.0356016)
(0.000112443 0 -0.0326533)
(0.000159758 0 -0.0336506)
(0.00012562 0 -0.0307422)
(0.000175852 0 -0.0317232)
(0.000138723 0 -0.0288675)
(0.00019179 0 -0.0298282)
(0.000151621 0 -0.0270355)
(0.000207427 0 -0.027973)
(0.000164204 0 -0.0252515)
(0.00022264 0 -0.0261634)
(0.000176383 0 -0.0235194)
(0.000237325 0 -0.0244039)
(0.000188081 0 -0.0218422)
(0.0002514 0 -0.0226979)
(0.000199238 0 -0.0202219)
(0.000264799 0 -0.0210479)
(0.000209806 0 -0.01866)
(0.000277472 0 -0.0194556)
(0.00021975 0 -0.0171572)
(0.000289382 0 -0.0179222)
(0.000229045 0 -0.0157139)
(0.000300504 0 -0.0164481)
(0.000237678 0 -0.0143301)
(0.000310825 0 -0.0150335)
(0.000245641 0 -0.0130055)
(0.000320342 0 -0.0136783)
(0.000252939 0 -0.0117399)
(0.00032906 0 -0.0123821)
(0.000259581 0 -0.0105327)
(0.000336992 0 -0.0111446)
(0.000265584 0 -0.0093835)
(0.000344161 0 -0.00996536)
(0.000270971 0 -0.0082919)
(0.000350592 0 -0.00884387)
(0.000275763 0 -0.00725735)
(0.000356316 0 -0.00777968)
(0.000279984 0 -0.00627917)
(0.000361362 0 -0.00677225)
(0.000283645 0 -0.00535639)
(0.000365756 0 -0.00582078)
(0.000286748 0 -0.00448754)
(0.000369513 0 -0.00492409)
(0.000289303 0 -0.00367053)
(0.000372634 0 -0.00408043)
(0.000291399 0 -0.00290291)
(0.000375162 0 -0.00328753)
(0.000293274 0 -0.00218233)
(0.000377249 0 -0.00254305)
(0.00029522 0 -0.00150952)
(0.000379144 0 -0.00184483)
(0.000297246 0 -0.000901555)
(0.000381505 0 -0.00119601)
(0.000382802 0 -0.000625915)
(-2.25029e-05 0 -0.0528582)
(-4.37129e-05 0 -0.0524699)
(-1.75773e-05 0 -0.0536073)
(-3.60623e-05 0 -0.053276)
(-1.29509e-05 0 -0.0542382)
(-2.86029e-05 0 -0.0539681)
(-8.57309e-06 0 -0.0547426)
(-2.12243e-05 0 -0.0545379)
(-4.3634e-06 0 -0.0551123)
(-1.39251e-05 0 -0.0549771)
(-2.0574e-07 0 -0.0553394)
(-6.60178e-06 0 -0.0552775)
(4.00018e-06 0 -0.055416)
(8.69276e-07 0 -0.0554312)
(8.43109e-06 0 -0.0553351)
(8.63289e-06 0 -0.055431)
(1.32479e-05 0 -0.0550901)
(1.68455e-05 0 -0.0552697)
(1.86366e-05 0 -0.0546748)
(2.56934e-05 0 -0.0549411)
(2.47981e-05 0 -0.0540841)
(3.53695e-05 0 -0.0544395)
(3.19393e-05 0 -0.0533135)
(4.60771e-05 0 -0.05376)
(4.02696e-05 0 -0.0523594)
(5.80267e-05 0 -0.0528986)
(4.99939e-05 0 -0.0512194)
(7.14224e-05 0 -0.0518523)
(6.13082e-05 0 -0.0498919)
(8.64584e-05 0 -0.0506191)
(7.44028e-05 0 -0.0483764)
(0.000103317 0 -0.0491978)
(8.94685e-05 0 -0.0466742)
(0.000122176 0 -0.0475887)
(0.000106679 0 -0.044788)
(0.000143199 0 -0.045794)
(0.000126081 0 -0.042721)
(0.0001665 0 -0.0438169)
(0.000147491 0 -0.0404801)
(0.000192064 0 -0.0416605)
(0.000166309 0 -0.0385239)
(0.000216933 0 -0.0395475)
(0.000185333 0 -0.0365597)
(0.000239975 0 -0.0375823)
(0.00020446 0 -0.0346031)
(0.000262965 0 -0.0356188)
(0.000223542 0 -0.032665)
(0.000285783 0 -0.0336686)
(0.000242404 0 -0.030755)
(0.000308244 0 -0.0317418)
(0.00026088 0 -0.0288811)
(0.000330178 0 -0.0298474)
(0.00027883 0 -0.0270499)
(0.000351433 0 -0.0279925)
(0.000296139 0 -0.0252665)
(0.000371883 0 -0.0261831)
(0.000312713 0 -0.0235349)
(0.000391427 0 -0.0244237)
(0.000328479 0 -0.0218579)
(0.000409987 0 -0.0227177)
(0.000343381 0 -0.0202378)
(0.000427507 0 -0.0210675)
(0.000357379 0 -0.0186759)
(0.000443947 0 -0.0194749)
(0.000370449 0 -0.017173)
(0.000459284 0 -0.0179411)
(0.000382577 0 -0.0157295)
(0.000473509 0 -0.0164665)
(0.000393762 0 -0.0143453)
(0.000486623 0 -0.0150513)
(0.000404013 0 -0.0130204)
(0.000498641 0 -0.0136954)
(0.000413345 0 -0.0117542)
(0.000509582 0 -0.0123985)
(0.000421785 0 -0.0105464)
(0.000519479 0 -0.0111602)
(0.000429361 0 -0.00939648)
(0.000528366 0 -0.00998003)
(0.000436111 0 -0.0083041)
(0.000536287 0 -0.00885758)
(0.00044207 0 -0.00726869)
(0.000543287 0 -0.00779238)
(0.000447273 0 -0.00628958)
(0.000549411 0 -0.00678388)
(0.000451747 0 -0.00536576)
(0.000554701 0 -0.00583128)
(0.00045551 0 -0.00449576)
(0.000559188 0 -0.00493336)
(0.00045859 0 -0.00367763)
(0.000562896 0 -0.00408839)
(0.000461085 0 -0.00290922)
(0.000565878 0 -0.00329429)
(0.000463187 0 -0.0021884)
(0.000568268 0 -0.00254902)
(0.00046507 0 -0.00151551)
(0.000570266 0 -0.00185043)
(0.00046667 0 -0.000906572)
(0.0005726 0 -0.00120099)
(0.000572892 0 -0.000629261)
(-5.74945e-05 0 -0.0528727)
(-8.73533e-05 0 -0.0524767)
(-4.72043e-05 0 -0.0536218)
(-7.37338e-05 0 -0.0532828)
(-3.6947e-05 0 -0.0542527)
(-5.99907e-05 0 -0.0539749)
(-2.66651e-05 0 -0.0547571)
(-4.59619e-05 0 -0.0545448)
(-1.62568e-05 0 -0.0551269)
(-3.16779e-05 0 -0.054984)
(-5.61698e-06 0 -0.055354)
(-1.70191e-05 0 -0.0552846)
(5.39622e-06 0 -0.0554309)
(-1.86053e-06 0 -0.0554386)
(1.69331e-05 0 -0.0553503)
(1.39479e-05 0 -0.0554387)
(2.91682e-05 0 -0.0551056)
(3.05669e-05 0 -0.0552779)
(4.2293e-05 0 -0.0546908)
(4.81747e-05 0 -0.0549498)
(5.65085e-05 0 -0.0541006)
(6.69612e-05 0 -0.0544489)
(7.20196e-05 0 -0.0533306)
(8.71228e-05 0 -0.0537703)
(8.90302e-05 0 -0.0523774)
(0.000108857 0 -0.05291)
(0.000107735 0 -0.0512382)
(0.000132351 0 -0.0518648)
(0.000128316 0 -0.0499116)
(0.000157777 0 -0.0506328)
(0.000150942 0 -0.0483972)
(0.000185288 0 -0.0492129)
(0.000175771 0 -0.0466961)
(0.00021503 0 -0.0476053)
(0.00020293 0 -0.044811)
(0.000247121 0 -0.0458121)
(0.000232404 0 -0.0427452)
(0.000281609 0 -0.0438365)
(0.000263942 0 -0.0405051)
(0.000318386 0 -0.0416816)
(0.000291155 0 -0.0385496)
(0.000353485 0 -0.0395698)
(0.000318167 0 -0.0365858)
(0.000385518 0 -0.0376054)
(0.000344848 0 -0.0346297)
(0.000416976 0 -0.0356428)
(0.000371042 0 -0.032692)
(0.000447744 0 -0.0336933)
(0.000396573 0 -0.0307822)
(0.000477646 0 -0.031767)
(0.000421279 0 -0.0289083)
(0.000506514 0 -0.029873)
(0.000445021 0 -0.027077)
(0.000534202 0 -0.0280183)
(0.00046769 0 -0.0252933)
(0.000560594 0 -0.026209)
(0.000489201 0 -0.0235612)
(0.000585603 0 -0.0244495)
(0.000509494 0 -0.0218838)
(0.000609168 0 -0.0227431)
(0.000528528 0 -0.020263)
(0.000631251 0 -0.0210926)
(0.00054628 0 -0.0187004)
(0.000651833 0 -0.0194995)
(0.000562744 0 -0.0171966)
(0.000670912 0 -0.017965)
(0.000577926 0 -0.0157522)
(0.000688501 0 -0.0164896)
(0.000591844 0 -0.014367)
(0.000704624 0 -0.0150736)
(0.000604525 0 -0.0130409)
(0.000719316 0 -0.0137167)
(0.000616003 0 -0.0117735)
(0.00073262 0 -0.0124187)
(0.000626321 0 -0.0105644)
(0.000744586 0 -0.0111792)
(0.000635528 0 -0.00941328)
(0.000755272 0 -0.00999779)
(0.000643675 0 -0.00831957)
(0.00076474 0 -0.00887405)
(0.000650817 0 -0.00728279)
(0.000773053 0 -0.00780752)
(0.000657006 0 -0.00630227)
(0.000780279 0 -0.00679763)
(0.000662288 0 -0.00537698)
(0.000786479 0 -0.00584358)
(0.000666702 0 -0.00450544)
(0.000791711 0 -0.00494414)
(0.000670296 0 -0.0036858)
(0.000796028 0 -0.00409759)
(0.000673158 0 -0.00291608)
(0.000799496 0 -0.00330197)
(0.000675421 0 -0.00219422)
(0.000802221 0 -0.00255539)
(0.000677191 0 -0.00152032)
(0.000804366 0 -0.00185565)
(0.000678461 0 -0.000909989)
(0.000806755 0 -0.00120492)
(0.000806511 0 -0.000631585)
(-0.000103895 0 -0.0528869)
(-0.000143124 0 -0.052488)
(-8.66806e-05 0 -0.0536361)
(-0.000122059 0 -0.0532943)
(-6.91134e-05 0 -0.0542671)
(-0.000100422 0 -0.0539866)
(-5.11119e-05 0 -0.0547718)
(-7.80226e-05 0 -0.0545568)
(-3.25783e-05 0 -0.0551419)
(-5.49143e-05 0 -0.0549964)
(-1.34033e-05 0 -0.0553693)
(-3.09608e-05 0 -0.0552974)
(6.55023e-06 0 -0.0554466)
(-6.04715e-06 0 -0.0554519)
(2.74357e-05 0 -0.0553665)
(1.99771e-05 0 -0.0554526)
(4.942e-05 0 -0.0551224)
(4.72644e-05 0 -0.0552925)
(7.26849e-05 0 -0.0547083)
(7.59733e-05 0 -0.0549654)
(9.74166e-05 0 -0.054119)
(0.000106279 0 -0.0544655)
(0.000123802 0 -0.05335)
(0.000138355 0 -0.0537879)
(0.000152021 0 -0.0523978)
(0.000172369 0 -0.0529288)
(0.00018224 0 -0.0512598)
(0.000208473 0 -0.051885)
(0.000214604 0 -0.0499344)
(0.000246798 0 -0.0506544)
(0.000249242 0 -0.0484213)
(0.000287449 0 -0.049236)
(0.000286259 0 -0.0467216)
(0.000330516 0 -0.04763)
(0.000325719 0 -0.044838)
(0.000376059 0 -0.0458384)
(0.000367552 0 -0.0427733)
(0.000424053 0 -0.0438644)
(0.000411468 0 -0.0405342)
(0.000474296 0 -0.0417108)
(0.00044867 0 -0.0385793)
(0.000521537 0 -0.0396001)
(0.000485113 0 -0.0366161)
(0.000564095 0 -0.0376366)
(0.00052065 0 -0.0346605)
(0.000605401 0 -0.0356747)
(0.000555115 0 -0.0327231)
(0.000645362 0 -0.0337257)
(0.000588338 0 -0.0308134)
(0.000683808 0 -0.0317999)
(0.000620167 0 -0.0289395)
(0.000720581 0 -0.0299059)
(0.000650479 0 -0.0271079)
(0.000755552 0 -0.0280513)
(0.000679182 0 -0.0253239)
(0.000788629 0 -0.0262418)
(0.000706213 0 -0.0235914)
(0.000819748 0 -0.0244818)
(0.000731533 0 -0.0219133)
(0.000848877 0 -0.022775)
(0.000755127 0 -0.0202917)
(0.000876006 0 -0.0211237)
(0.000776997 0 -0.0187282)
(0.000901144 0 -0.0195298)
(0.000797162 0 -0.0172234)
(0.000924321 0 -0.0179943)
(0.000815653 0 -0.0157778)
(0.000945575 0 -0.0165178)
(0.000832513 0 -0.0143914)
(0.000964961 0 -0.0151005)
(0.000847792 0 -0.013064)
(0.000982538 0 -0.0137422)
(0.000861549 0 -0.0117952)
(0.000998377 0 -0.0124428)
(0.000873849 0 -0.0105847)
(0.00101255 0 -0.0112018)
(0.000884763 0 -0.00943205)
(0.00102515 0 -0.0100188)
(0.000894367 0 -0.00833681)
(0.00103626 0 -0.00889341)
(0.000902735 0 -0.00729846)
(0.00104596 0 -0.00782519)
(0.000909945 0 -0.00631633)
(0.00105435 0 -0.00681359)
(0.000916069 0 -0.00538939)
(0.00106152 0 -0.00585779)
(0.00092118 0 -0.00451615)
(0.00106756 0 -0.00495656)
(0.000925351 0 -0.00369482)
(0.00107256 0 -0.00410822)
(0.000928673 0 -0.00292348)
(0.00107661 0 -0.00331084)
(0.000931244 0 -0.00220012)
(0.0010798 0 -0.00256258)
(0.000933141 0 -0.00152471)
(0.00108229 0 -0.00186122)
(0.000934401 0 -0.000912817)
(0.00108501 0 -0.0012088)
(0.00108456 0 -0.00063375)
(-0.000161651 0 -0.0528998)
(-0.000210971 0 -0.0525045)
(-0.000136007 0 -0.0536493)
(-0.00018102 0 -0.0533114)
(-0.00010949 0 -0.0542808)
(-0.000149926 0 -0.0540043)
(-8.2008e-05 0 -0.0547859)
(-0.000117489 0 -0.0545751)
(-5.34761e-05 0 -0.0551565)
(-8.37606e-05 0 -0.0550154)
(-2.37804e-05 0 -0.0553846)
(-4.86044e-05 0 -0.0553172)
(7.20422e-06 0 -0.0554626)
(-1.19189e-05 0 -0.0554726)
(3.96267e-05 0 -0.0553833)
(2.64392e-05 0 -0.0554742)
(7.36334e-05 0 -0.0551402)
(6.66028e-05 0 -0.0553152)
(0.000109385 0 -0.0547272)
(0.0001087 0 -0.0549892)
(0.000147039 0 -0.054139)
(0.000152882 0 -0.0544906)
(0.00018675 0 -0.0533713)
(0.000199282 0 -0.0538144)
(0.000228655 0 -0.0524205)
(0.000248023 0 -0.0529568)
(0.000272875 0 -0.051284)
(0.000299204 0 -0.0519145)
(0.000319501 0 -0.0499602)
(0.000352897 0 -0.0506855)
(0.0003686 0 -0.0484488)
(0.000409143 0 -0.0492687)
(0.00042021 0 -0.0467508)
(0.000467955 0 -0.0476644)
(0.000474319 0 -0.0448687)
(0.000529313 0 -0.0458745)
(0.000530781 0 -0.0428056)
(0.000593108 0 -0.043902)
(0.000589221 0 -0.0405677)
(0.000659031 0 -0.0417498)
(0.000638073 0 -0.0386137)
(0.000720315 0 -0.0396399)
(0.000685427 0 -0.0366512)
(0.00077496 0 -0.0376771)
(0.000731142 0 -0.0346961)
(0.000827533 0 -0.0357157)
(0.000775058 0 -0.0327591)
(0.000877957 0 -0.0337671)
(0.00081702 0 -0.0308495)
(0.000926077 0 -0.0318413)
(0.000856897 0 -0.0289756)
(0.000971756 0 -0.0299473)
(0.000894591 0 -0.0271438)
(0.0010149 0 -0.0280923)
(0.000930039 0 -0.0253594)
(0.00105544 0 -0.0262822)
(0.000963209 0 -0.0236263)
(0.00109335 0 -0.0245216)
(0.000994097 0 -0.0219474)
(0.00112865 0 -0.0228138)
(0.00102272 0 -0.0203249)
(0.00116134 0 -0.0211615)
(0.00104911 0 -0.0187603)
(0.0011915 0 -0.0195663)
(0.00107333 0 -0.0172544)
(0.00121916 0 -0.0180294)
(0.00109543 0 -0.0158074)
(0.00124443 0 -0.0165514)
(0.00111548 0 -0.0144196)
(0.00126737 0 -0.0151325)
(0.00113357 0 -0.0130906)
(0.00128808 0 -0.0137725)
(0.00114979 0 -0.0118202)
(0.00130667 0 -0.0124712)
(0.00116422 0 -0.010608)
(0.00132324 0 -0.0112283)
(0.00117697 0 -0.00945356)
(0.00133791 0 -0.0100433)
(0.00118814 0 -0.00835651)
(0.00135079 0 -0.0089159)
(0.00119783 0 -0.00731633)
(0.001362 0 -0.00784564)
(0.00120615 0 -0.00633234)
(0.00137166 0 -0.00683198)
(0.00121321 0 -0.00540352)
(0.0013799 0 -0.00587413)
(0.00121911 0 -0.00452842)
(0.00138685 0 -0.00497088)
(0.00122396 0 -0.00370523)
(0.00139263 0 -0.00412057)
(0.00122788 0 -0.00293209)
(0.00139735 0 -0.00332128)
(0.00123093 0 -0.00220694)
(0.00140113 0 -0.00257114)
(0.00123319 0 -0.00152972)
(0.00140411 0 -0.00186785)
(0.00123468 0 -0.000915987)
(0.00140734 0 -0.0012134)
(0.00140684 0 -0.000636299)
(-0.000230748 0 -0.0529178)
(-0.000290901 0 -0.0525272)
(-0.000195206 0 -0.0536681)
(-0.000250663 0 -0.0533351)
(-0.000158138 0 -0.0543004)
(-0.000208593 0 -0.054029)
(-0.000119466 0 -0.0548064)
(-0.000164486 0 -0.0546009)
(-7.91075e-05 0 -0.0551779)
(-0.000118382 0 -0.0550423)
(-3.69538e-05 0 -0.055407)
(-7.01545e-05 0 -0.0553453)
(7.10451e-06 0 -0.0554861)
(-1.97227e-05 0 -0.055502)
(5.32022e-05 0 -0.0554081)
(3.30439e-05 0 -0.055505)
(0.000101455 0 -0.0551662)
(8.82513e-05 0 -0.0553474)
(0.00015199 0 -0.0547546)
(0.000145985 0 -0.055023)
(0.000204926 0 -0.0541679)
(0.000206359 0 -0.0545259)
(0.000260366 0 -0.0534018)
(0.000269456 0 -0.0538514)
(0.000318395 0 -0.0524526)
(0.000335335 0 -0.0529955)
(0.000379066 0 -0.0513178)
(0.000404031 0 -0.0519549)
(0.0004424 0 -0.0499958)
(0.000475539 0 -0.0507277)
(0.000508383 0 -0.0484861)
(0.000549813 0 -0.0493127)
(0.000576969 0 -0.0467898)
(0.000626776 0 -0.0477101)
(0.000648049 0 -0.0449095)
(0.000706306 0 -0.0459219)
(0.000721373 0 -0.0428478)
(0.000788186 0 -0.0439509)
(0.000796446 0 -0.0406111)
(0.000871979 0 -0.0417998)
(0.000858633 0 -0.0386578)
(0.000949208 0 -0.0396907)
(0.000918413 0 -0.0366959)
(0.00101755 0 -0.0377283)
(0.000975661 0 -0.0347412)
(0.00108284 0 -0.0357671)
(0.00103024 0 -0.0328042)
(0.00114503 0 -0.0338185)
(0.00108202 0 -0.0308946)
(0.00120398 0 -0.0318925)
(0.00113091 0 -0.0290204)
(0.00125961 0 -0.0299979)
(0.00117684 0 -0.0271881)
(0.00131184 0 -0.0281422)
(0.00121978 0 -0.0254029)
(0.00136067 0 -0.0263312)
(0.00125975 0 -0.0236688)
(0.0014061 0 -0.0245695)
(0.00129679 0 -0.0219888)
(0.0014482 0 -0.0228604)
(0.00133095 0 -0.0203651)
(0.00148703 0 -0.0212065)
(0.00136231 0 -0.018799)
(0.00152269 0 -0.0196097)
(0.00139096 0 -0.0172914)
(0.00155528 0 -0.018071)
(0.001417 0 -0.0158427)
(0.00158492 0 -0.016591)
(0.00144054 0 -0.014453)
(0.00161174 0 -0.01517)
(0.0014617 0 -0.0131221)
(0.00163587 0 -0.0138078)
(0.00148059 0 -0.0118496)
(0.00165745 0 -0.0125043)
(0.00149735 0 -0.0106353)
(0.00167663 0 -0.011259)
(0.0015121 0 -0.00947871)
(0.00169355 0 -0.0100717)
(0.00152497 0 -0.00837947)
(0.00170836 0 -0.00894186)
(0.00153612 0 -0.00733707)
(0.00172122 0 -0.00786919)
(0.00154566 0 -0.00635088)
(0.00173228 0 -0.00685313)
(0.00155376 0 -0.00541991)
(0.0017417 0 -0.00589292)
(0.00156055 0 -0.00454271)
(0.00174965 0 -0.00498741)
(0.00156618 0 -0.00371751)
(0.00175629 0 -0.00413493)
(0.00157077 0 -0.00294239)
(0.00176176 0 -0.00333356)
(0.0015744 0 -0.00221523)
(0.00176617 0 -0.00258133)
(0.00157711 0 -0.00153588)
(0.00176968 0 -0.00187583)
(0.00157892 0 -0.000919912)
(0.00177348 0 -0.00121899)
(0.00177295 0 -0.000639404)
(-0.000311269 0 -0.0529442)
(-0.00038301 0 -0.0525569)
(-0.000264385 0 -0.0536957)
(-0.000331119 0 -0.0533663)
(-0.000215204 0 -0.0543293)
(-0.000276591 0 -0.0540618)
(-0.000163667 0 -0.0548366)
(-0.000219208 0 -0.0546352)
(-0.000109687 0 -0.0552095)
(-0.000159003 0 -0.0550783)
(-5.31721e-05 0 -0.0554401)
(-9.58662e-05 0 -0.055383)
(5.96726e-06 0 -0.0555207)
(-2.97467e-05 0 -0.0555414)
(6.78463e-05 0 -0.0554443)
(3.94728e-05 0 -0.0555463)
(0.000132535 0 -0.0552041)
(0.000111865 0 -0.0553906)
(0.000200122 0 -0.0547942)
(0.000187457 0 -0.055068)
(0.000270669 0 -0.0542094)
(0.000266317 0 -0.054573)
(0.000344219 0 -0.0534451)
(0.00034846 0 -0.0539005)
(0.000420785 0 -0.0524978)
(0.000433875 0 -0.0530465)
(0.000500339 0 -0.0513648)
(0.00052251 0 -0.052008)
(0.000582814 0 -0.0500446)
(0.000614268 0 -0.0507827)
(0.000668099 0 -0.0485367)
(0.000709003 0 -0.0493695)
(0.00075604 0 -0.0468422)
(0.000806526 0 -0.0477687)
(0.000846414 0 -0.0449634)
(0.000906593 0 -0.0459821)
(0.000938842 0 -0.042903)
(0.00100886 0 -0.0440125)
(0.0010327 0 -0.0406672)
(0.00111274 0 -0.0418624)
(0.00110991 0 -0.0387143)
(0.00120785 0 -0.0397536)
(0.00118366 0 -0.0367526)
(0.00129152 0 -0.0377913)
(0.00125383 0 -0.0347979)
(0.00137101 0 -0.03583)
(0.00132033 0 -0.0328607)
(0.0014463 0 -0.0338811)
(0.00138305 0 -0.0309505)
(0.00151729 0 -0.0319544)
(0.00144194 0 -0.0290755)
(0.00158393 0 -0.030059)
(0.00149699 0 -0.0272422)
(0.00164622 0 -0.0282021)
(0.00154822 0 -0.0254557)
(0.00170419 0 -0.0263897)
(0.00159569 0 -0.0237202)
(0.00175791 0 -0.0246263)
(0.0016395 0 -0.0220386)
(0.00180748 0 -0.0229154)
(0.00167974 0 -0.020413)
(0.00185304 0 -0.0212595)
(0.00171655 0 -0.0188449)
(0.00189472 0 -0.0196605)
(0.00175005 0 -0.0173352)
(0.00193269 0 -0.0181195)
(0.0017804 0 -0.0158843)
(0.00196712 0 -0.0166371)
(0.00180774 0 -0.0144922)
(0.00199816 0 -0.0152135)
(0.00183223 0 -0.0131589)
(0.00202601 0 -0.0138487)
(0.00185403 0 -0.0118839)
(0.00205084 0 -0.0125425)
(0.00187331 0 -0.010667)
(0.00207284 0 -0.0112944)
(0.00189024 0 -0.00950783)
(0.00209221 0 -0.0101043)
(0.00190498 0 -0.00840596)
(0.00210912 0 -0.00897165)
(0.00191771 0 -0.00736097)
(0.00212378 0 -0.00789615)
(0.0019286 0 -0.00637222)
(0.00213636 0 -0.00687732)
(0.00193784 0 -0.00543879)
(0.00214707 0 -0.00591442)
(0.0019456 0 -0.00455926)
(0.0021561 0 -0.00500635)
(0.00195206 0 -0.00373183)
(0.00216366 0 -0.00415147)
(0.00195735 0 -0.00295452)
(0.0021699 0 -0.00334776)
(0.00196156 0 -0.00222507)
(0.00217492 0 -0.00259317)
(0.00196471 0 -0.00154324)
(0.00217894 0 -0.00188515)
(0.00196682 0 -0.000924626)
(0.00218325 0 -0.00122552)
(0.00218266 0 -0.000643033)
(-0.00040337 0 -0.0529789)
(-0.00048747 0 -0.0525946)
(-0.000343725 0 -0.0537323)
(-0.000422592 0 -0.0534061)
(-0.000280905 0 -0.0543676)
(-0.00035415 0 -0.0541037)
(-0.00021485 0 -0.0548769)
(-0.000281908 0 -0.0546793)
(-0.000145483 0 -0.0552517)
(-0.000205906 0 -0.0551246)
(-7.27295e-05 0 -0.0554843)
(-0.000126047 0 -0.0554315)
(3.47671e-06 0 -0.055567)
(-4.23244e-05 0 -0.0555923)
(8.3214e-05 0 -0.0554926)
(4.53709e-05 0 -0.0555995)
(0.000166508 0 -0.0552545)
(0.000137071 0 -0.0554461)
(0.000253391 0 -0.0548468)
(0.000232723 0 -0.055126)
(0.000343864 0 -0.0542641)
(0.000332349 0 -0.0546333)
(0.000437893 0 -0.053502)
(0.000435881 0 -0.0539632)
(0.000535402 0 -0.0525568)
(0.00054322 0 -0.0531115)
(0.000636268 0 -0.0514259)
(0.000654218 0 -0.0520752)
(0.000740319 0 -0.0501077)
(0.000768667 0 -0.050852)
(0.000847329 0 -0.0486016)
(0.000886304 0 -0.0494408)
(0.000957018 0 -0.0469087)
(0.00100681 0 -0.0478418)
(0.00106903 0 -0.0450314)
(0.0011298 0 -0.0460567)
(0.00118284 0 -0.0429721)
(0.0012548 0 -0.0440884)
(0.00129769 0 -0.0407368)
(0.00138103 0 -0.0419389)
(0.00139164 0 -0.038784)
(0.00149598 0 -0.0398302)
(0.00148092 0 -0.0368221)
(0.00159664 0 -0.0378677)
(0.00156544 0 -0.0348669)
(0.00169184 0 -0.0359059)
(0.00164513 0 -0.032929)
(0.0017816 0 -0.0339561)
(0.00171995 0 -0.0310178)
(0.00186587 0 -0.0320283)
(0.00178988 0 -0.0291415)
(0.00194465 0 -0.0301315)
(0.00185498 0 -0.0273066)
(0.00201799 0 -0.0282729)
(0.00191532 0 -0.0255183)
(0.00208599 0 -0.0264585)
(0.00197103 0 -0.0237808)
(0.00214879 0 -0.024693)
(0.00202225 0 -0.022097)
(0.00220654 0 -0.0229797)
(0.00206915 0 -0.0204691)
(0.00225945 0 -0.0213213)
(0.0021119 0 -0.0188985)
(0.00230771 0 -0.0197195)
(0.0021507 0 -0.0173861)
(0.00235153 0 -0.0181757)
(0.00218573 0 -0.0159325)
(0.00239115 0 -0.0166903)
(0.0022172 0 -0.0145375)
(0.00242678 0 -0.0152636)
(0.00224531 0 -0.0132012)
(0.00245866 0 -0.0138957)
(0.00227027 0 -0.0119233)
(0.00248701 0 -0.0125862)
(0.00229228 0 -0.0107034)
(0.00251208 0 -0.0113349)
(0.00231157 0 -0.00954112)
(0.00253409 0 -0.0101415)
(0.00232834 0 -0.00843622)
(0.00255328 0 -0.00900558)
(0.00234279 0 -0.00738822)
(0.00256987 0 -0.00792684)
(0.00235513 0 -0.00639656)
(0.00258409 0 -0.00690482)
(0.0023656 0 -0.00546034)
(0.00259618 0 -0.00593886)
(0.00237439 0 -0.00457817)
(0.00260637 0 -0.00502789)
(0.0023817 0 -0.00374822)
(0.00261488 0 -0.00417024)
(0.00238768 0 -0.00296841)
(0.00262187 0 -0.00336387)
(0.00239242 0 -0.00223635)
(0.00262747 0 -0.00260657)
(0.00239596 0 -0.00155167)
(0.00263196 0 -0.00189565)
(0.00239831 0 -0.000930008)