/*--------------------------------*- C++ -*----------------------------------*\
  =========                 |
  \\      /  F ield         | OpenFOAM: The Open Source CFD Toolbox
   \\    /   O peration     | Website:  https://openfoam.org
    \\  /    A nd           | Version:  9
     \\/     M anipulation  |
\*---------------------------------------------------------------------------*/
FoamFile
{
    format      ascii;
    class       volScalarField;
    location    "0.06";
    object      p_rgh;
}
// * * * * * * * * * * * * * * * * * * * * * * * * * * * * * * * * * * * * * //

dimensions      [1 -1 -2 0 0 0 0];

internalField   nonuniform List<scalar> 
5000
(
-3.00722e-06
-2.5362e-06
1.05283e-05
3.02977e-05
5.20072e-05
7.24413e-05
8.87829e-05
9.83749e-05
9.85432e-05
8.64696e-05
5.90572e-05
1.27883e-05
-5.64139e-05
-0.000153333
-0.000283609
-0.000453904
-0.000672116
-0.000947624
-0.0012916
-0.00171735
-0.00224082
-0.00288115
-0.00366143
-0.00460992
-0.00576167
-0.00716136
-0.00886791
-0.0109622
-0.0135591
-0.0168218
-0.0213271
-0.0274394
-0.0350069
-0.0443948
-0.0558899
-0.0687573
-0.0775592
-0.0674489
-0.033814
-0.107057
-0.00385805
0.00537067
-0.170568
-0.24978
-0.556144
-1.00954
-1.07912
-0.61118
-0.373436
-0.386476
2.75135e-05
8.95046e-05
0.000170067
0.000264495
0.000369239
0.000481704
0.000599621
0.000720696
0.000842632
0.000963086
0.00107959
0.0011894
0.00128947
0.00137624
0.00144561
0.00149274
0.00151192
0.00149633
0.00143786
0.00132686
0.00115192
0.000899581
0.000553844
9.54573e-05
-0.000499239
-0.00125996
-0.00222472
-0.00344279
-0.00497738
-0.00690523
-0.00952196
-0.0129465
-0.0168891
-0.0211206
-0.0249221
-0.0264727
-0.0218886
-0.00604316
0.0310434
0.0580299
0.0481028
0.0411359
-0.00445629
-0.181833
-0.430448
-0.694713
-0.716432
-0.494729
-0.361422
-0.375552
8.07206e-05
0.000239174
0.000405351
0.000581984
0.000769022
0.000965951
0.00117218
0.00138674
0.00160844
0.00183586
0.0020674
0.00230124
0.00253532
0.00276731
0.0029945
0.00321371
0.00342109
0.00361198
0.00378075
0.00392075
0.00402436
0.00408303
0.00408715
0.00402573
0.00388586
0.00365232
0.00330733
0.00283071
0.00220161
0.00140604
0.000359864
-0.000843931
-0.00185613
-0.00214849
-0.000691279
0.00443105
0.0172827
0.0425137
0.0935268
0.194093
0.150249
0.115423
0.130092
-0.0637278
-0.198219
-0.395702
-0.412469
-0.280221
-0.261763
-0.283616
0.000125019
0.000371456
0.000623036
0.00088674
0.00116333
0.0014527
0.0017549
0.00206977
0.00239698
0.00273598
0.0030861
0.00344653
0.00381634
0.00419452
0.00457989
0.00497095
0.00536575
0.00576174
0.00615576
0.00654421
0.00692339
0.0072898
0.00764038
0.00797247
0.00828399
0.00857421
0.00884508
0.00910349
0.00936581
0.00967041
0.0101244
0.0109955
0.0126244
0.0156983
0.0214058
0.031683
0.051038
0.084172
0.137186
0.249348
0.220622
0.170399
0.197302
0.0351303
-0.0134985
-0.154908
-0.175763
-0.103727
-0.149218
-0.171235
0.000170378
0.000504274
0.000843355
0.00119843
0.00157073
0.00196004
0.00236682
0.00279142
0.00323409
0.00369499
0.00417423
0.00467199
0.00518852
0.00572416
0.00627925
0.00685405
0.00744848
0.00806215
0.00869444
0.0093449
0.0100139
0.0107031
0.011416
0.0121579
0.0129374
0.0137673
0.0146681
0.0156709
0.016825
0.0182138
0.0201185
0.0229386
0.0269605
0.0329563
0.0422026
0.0564828
0.0795849
0.11599
0.161502
0.25864
0.253787
0.197974
0.220058
0.0988689
0.100071
0.0122949
-0.0109943
0.0170176
-0.0538317
-0.0727003
0.000214906
0.000636136
0.00106317
0.0015107
0.00198024
0.00247162
0.0029857
0.00352328
0.0040851
0.00467191
0.00528457
0.00592417
0.00659208
0.00728995
0.00801963
0.00878301
0.00958185
0.0104178
0.0112928
0.0122095
0.0131722
0.0141877
0.0152653
0.0164179
0.0176636
0.0190281
0.0205477
0.0222741
0.0242833
0.0266953
0.0299407
0.0345052
0.0405856
0.0489527
0.0608089
0.0776762
0.101819
0.138808
0.176682
0.257191
0.265067
0.209137
0.230463
0.143167
0.171483
0.120681
0.0963926
0.103893
0.025768
0.00942975
0.000258245
0.000765921
0.00128016
0.00181931
0.00238529
0.00297803
0.00359875
0.00424867
0.00492899
0.00564101
0.00638631
0.00716681
0.00798496
0.00884362
0.00974606
0.0106957
0.011696
0.0127505
0.0138635
0.0150406
0.0162899
0.0176225
0.0190532
0.0206014
0.0222938
0.0241669
0.0262702
0.0286716
0.0314667
0.034801
0.0392255
0.0452675
0.0530055
0.0631413
0.0766701
0.0949926
0.11904
0.154859
0.187416
0.254077
0.266698
0.213836
0.239556
0.178913
0.221289
0.191446
0.167662
0.170669
0.0937034
0.0793998
0.000300248
0.000893336
0.00149337
0.00212271
0.00278372
0.00347636
0.00420216
0.00496271
0.00575964
0.00659477
0.00747029
0.00838897
0.00935419
0.01037
0.0114409
0.0125717
0.0137674
0.0150333
0.0163758
0.0178034
0.0193273
0.0209626
0.0227283
0.0246497
0.0267605
0.0291063
0.0317468
0.0347611
0.0382579
0.0423971
0.0478213
0.0550623
0.064065
0.0754411
0.089919
0.108807
0.131929
0.164423
0.19609
0.249195
0.265023
0.216177
0.246162
0.207661
0.255622
0.237841
0.217722
0.221986
0.149961
0.138019
0.000340989
0.00101859
0.00170274
0.00242059
0.00317499
0.0039658
0.00479488
0.00566416
0.00657565
0.00753163
0.00853488
0.00958888
0.0106979
0.0118671
0.0131021
0.014409
0.015794
0.017264
0.0188274
0.0204952
0.0222813
0.024204
0.0262859
0.028557
0.0310568
0.0338377
0.0369666
0.0405305
0.044645
0.049476
0.0557319
0.0639235
0.0738626
0.0860532
0.101031
0.119913
0.14191
0.171484
0.200393
0.24244
0.257694
0.221955
0.251477
0.22719
0.276639
0.266636
0.252579
0.258858
0.195951
0.184703
0.000380164
0.00114107
0.00190706
0.00271119
0.0035567
0.00444334
0.00537323
0.00634866
0.00737199
0.00844589
0.00957368
0.0107595
0.0120086
0.0133268
0.014721
0.0161981
0.0177657
0.0194319
0.021207
0.0231039
0.0251391
0.0273331
0.0297115
0.032308
0.0351666
0.0383443
0.0419128
0.0459633
0.0506145
0.0560314
0.0629705
0.0719065
0.0825186
0.0952154
0.110349
0.128876
0.149728
0.176558
0.202252
0.235971
0.25086
0.225889
0.254685
0.23902
0.287931
0.283034
0.275844
0.28613
0.230028
0.219951
0.000417108
0.00125944
0.00210443
0.00299193
0.00392561
0.00490496
0.0059324
0.00701051
0.00814196
0.00932981
0.0105779
0.0118909
0.0132749
0.0147366
0.0162837
0.017924
0.019666
0.0215191
0.023495
0.0256084
0.0278777
0.030325
0.0329783
0.0358741
0.03906
0.0425956
0.0465548
0.0510302
0.0561407
0.0620466
0.069536
0.0790378
0.0901109
0.103085
0.118157
0.136124
0.15586
0.180217
0.203277
0.230487
0.245148
0.228483
0.255233
0.246398
0.293306
0.291696
0.290361
0.306212
0.25371
0.245859
0.000450966
0.00137215
0.00229291
0.00326049
0.00427888
0.00534729
0.00646839
0.00764504
0.00888019
0.0101773
0.0115405
0.0129753
0.0144883
0.0160869
0.0177796
0.0195748
0.0214819
0.0235111
0.0256757
0.0279915
0.0304784
0.0331596
0.0360648
0.0392327
0.0427133
0.046568
0.0508703
0.0557118
0.0612083
0.0675142
0.0754372
0.0853553
0.096725
0.109811
0.1247
0.142021
0.160716
0.182935
0.204051
0.22663
0.239864
0.230054
0.253608
0.251649
0.295036
0.296184
0.298371
0.319102
0.269437
0.264478
0.000480917
0.00147774
0.00247088
0.00351499
0.00461431
0.00576777
0.00697826
0.00824891
0.00958291
0.010984
0.0124569
0.0140075
0.015643
0.0173714
0.0192018
0.021143
0.0232051
0.0253992
0.0277395
0.0302432
0.0329306
0.0358259
0.0389597
0.0423723
0.0461155
0.0502515
0.0548519
0.0600048
0.065821
0.0724471
0.0807022
0.0909121
0.102454
0.115533
0.13017
0.14684
0.164602
0.18499
0.204351
0.223816
0.235732
0.230497
0.250481
0.255023
0.295566
0.298567
0.301532
0.323719
0.27849
0.27698
0.000506203
0.00157491
0.00263684
0.00375371
0.00492992
0.00616412
0.00745942
0.0088192
0.0102469
0.0117466
0.0133233
0.0149834
0.0167345
0.0185853
0.0205451
0.0226232
0.0248299
0.0271774
0.0296804
0.032357
0.0352281
0.0383181
0.0416578
0.0452886
0.0492636
0.0536446
0.0585013
0.0639161
0.0699932
0.0768707
0.0853714
0.0957704
0.107385
0.120373
0.134717
0.150765
0.167709
0.186583
0.204463
0.221841
0.232593
0.230268
0.247132
0.257925
0.295811
0.299075
0.299862
0.320862
0.282223
0.28415
0.000526226
0.0016627
0.00278965
0.00397526
0.00522407
0.00653446
0.00790976
0.00935356
0.0108695
0.012462
0.0141364
0.0158995
0.0177593
0.0197248
0.0218055
0.024011
0.026352
0.0288409
0.0314935
0.0343283
0.0373664
0.0406323
0.0441566
0.0479809
0.0521585
0.0567511
0.0618254
0.0674578
0.0737447
0.0808151
0.0894902
0.0999972
0.111608
0.124443
0.138469
0.153932
0.170161
0.187819
0.204568
0.220443
0.230318
0.230167
0.244872
0.260401
0.297084
0.297845
0.295528
0.311156
0.281635
0.286797
0.000540507
0.00174038
0.00292846
0.00417864
0.00549557
0.00687742
0.00832771
0.00985025
0.0114489
0.0131283
0.014894
0.0167533
0.0187146
0.0207869
0.02298
0.0253035
0.0277681
0.0303867
0.0331756
0.0361537
0.0393426
0.0427662
0.046455
0.0504499
0.0548036
0.0595769
0.0648336
0.0706438
0.0770962
0.0843105
0.0931023
0.103654
0.115202
0.127841
0.14153
0.156441
0.172032
0.188702
0.2046
0.219421
0.228854
0.230804
0.244647
0.263286
0.297925
0.294513
0.287625
0.297092
0.277578
0.285893
0.000548729
0.00180745
0.00305261
0.00436309
0.00574356
0.00719201
0.00871214
0.010308
0.0119836
0.0137438
0.0155946
0.0175434
0.0195989
0.0217703
0.0240673
0.0264993
0.0290771
0.0318138
0.0347258
0.0378328
0.0411563
0.04472
0.0485539
0.052698
0.0572036
0.0621296
0.0675366
0.0734887
0.0800672
0.0873824
0.0962425
0.106789
0.118228
0.130637
0.143974
0.158356
0.173355
0.189186
0.204414
0.218548
0.228006
0.232205
0.246126
0.265933
0.296955
0.288921
0.277018
0.280003
0.270916
0.282363
0.000550313
0.00186331
0.0031615
0.0045279
0.00596728
0.00747744
0.00906224
0.0107259
0.0124727
0.0143077
0.0162373
0.018269
0.0204116
0.0226744
0.0250668
0.0275982
0.030279
0.0331224
0.0361453
0.0393673
0.0428101
0.0464971
0.0504577
0.0547308
0.0593658
0.064419
0.0699474
0.076009
0.0826777
0.0900553
0.0989403
0.109437
0.12073
0.132881
0.145849
0.159712
0.174139
0.18922
0.203868
0.217555
0.227334
0.233763
0.247996
0.266993
0.293229
0.28108
0.264742
0.262365
0.262977
0.277081
0.000545311
0.00190761
0.00325463
0.00467254
0.00616616
0.00773313
0.00937746
0.0111036
0.012916
0.01482
0.0168222
0.0189302
0.0211529
0.0234994
0.025979
0.0286007
0.0313747
0.0343141
0.037436
0.0407602
0.0443083
0.0481032
0.0521735
0.0565568
0.0613005
0.066458
0.072082
0.0782246
0.0849519
0.0923571
0.101228
0.111634
0.122748
0.134615
0.147197
0.160541
0.174391
0.188764
0.202846
0.216146
0.226338
0.234609
0.248817
0.265467
0.286258
0.271371
0.252041
0.246603
0.254981
0.27086
0.00053077
0.0019378
0.00332956
0.00479486
0.00633869
0.00795817
0.00965735
0.0114409
0.0133137
0.0152811
0.0173499
0.0195278
0.0218236
0.0242465
0.0268052
0.0295083
0.0323659
0.0353909
0.0386005
0.0420151
0.0456558
0.049545
0.0537098
0.0581865
0.0630202
0.0682614
0.0739587
0.080158
0.0869175
0.094321
0.103143
0.113424
0.124329
0.135887
0.148064
0.16088
0.174135
0.187801
0.201273
0.214106
0.224607
0.23402
0.247589
0.261137
0.276367
0.260596
0.240227
0.234202
0.24759
0.264412
0.00051228
0.00195099
0.00338168
0.00489267
0.0064846
0.00815322
0.00990304
0.0117393
0.0136672
0.0156924
0.0178219
0.0200635
0.0224258
0.0249176
0.0275475
0.0303236
0.0332555
0.0363561
0.0396427
0.0431362
0.0468578
0.050829
0.0550753
0.0596305
0.0645376
0.0698441
0.075595
0.0818308
0.0886013
0.0959801
0.104727
0.114853
0.125523
0.13675
0.148502
0.160778
0.173412
0.186349
0.199136
0.21137
0.221895
0.231682
0.244025
0.254491
0.264662
0.249739
0.2302
0.225439
0.24132
0.258355
0.000503765
0.00196589
0.00342924
0.00498121
0.00661526
0.00832633
0.0101203
0.0120029
0.0139797
0.0160568
0.0182408
0.0205396
0.0229616
0.0255152
0.0282087
0.0310499
0.0340475
0.0372143
0.0405678
0.0441293
0.0479205
0.0519623
0.0562782
0.0608991
0.0658647
0.07122
0.0770069
0.0832615
0.0900258
0.0973624
0.106014
0.115965
0.126378
0.137258
0.148569
0.160291
0.17228
0.184459
0.196482
0.20798
0.218192
0.227707
0.238462
0.24638
0.252696
0.239588
0.222087
0.219847
0.236181
0.252913
0.000477263
0.00197109
0.00346859
0.00505698
0.00672699
0.00847496
0.0103078
0.0122315
0.0142519
0.0163751
0.018608
0.0209581
0.0234333
0.0260419
0.0287918
0.0316905
0.0347462
0.037971
0.0413823
0.0450018
0.048852
0.0529536
0.0573281
0.062003
0.0670142
0.0724034
0.0782101
0.0844673
0.0912103
0.098491
0.107033
0.116793
0.126937
0.137458
0.148319
0.159479
0.170806
0.182205
0.193399
0.204049
0.21366
0.222475
0.231544
0.237507
0.2407
0.230235
0.21666
0.216263
0.231844
0.247864
0.0004291
0.00196196
0.00349288
0.00511155
0.00681261
0.00859401
0.0104622
0.0124231
0.0144829
0.0166479
0.0189248
0.0213207
0.0238431
0.0265001
0.0292995
0.0322486
0.0353556
0.0386314
0.042093
0.0457621
0.0496617
0.053813
0.0582359
0.0629544
0.0679999
0.0734101
0.0792219
0.0854667
0.0921744
0.0993872
0.107809
0.117368
0.127236
0.137394
0.147802
0.158401
0.169062
0.179673
0.190001
0.199736
0.208555
0.216454
0.223953
0.228513
0.229895
0.221965
0.212028
0.213378
0.227756
0.242978
0.000380441
0.00194903
0.00350786
0.00515176
0.00687978
0.00869001
0.0105886
0.0125819
0.0146763
0.0168784
0.0191943
0.0216306
0.0241943
0.0268931
0.029735
0.0327277
0.0358793
0.0392003
0.0427062
0.0464182
0.0503594
0.0545514
0.0590134
0.0637661
0.0688363
0.0742568
0.0800618
0.0862809
0.0929406
0.100075
0.108367
0.117721
0.12731
0.137109
0.147068
0.157117
0.167124
0.17696
0.186417
0.195219
0.203147
0.210069
0.216222
0.219757
0.220163
0.214481
0.207576
0.210276
0.223582
0.238273
0.000327702
0.00192385
0.00350683
0.00517456
0.00692747
0.00876334
0.0106886
0.0127103
0.0148352
0.0170698
0.0194199
0.0218914
0.0244907
0.027225
0.0301026
0.033132
0.0363217
0.039682
0.0432273
0.0469769
0.0509536
0.0551789
0.0596716
0.0644502
0.0695369
0.0749596
0.0807487
0.0869319
0.0935333
0.10058
0.108736
0.117882
0.127197
0.136644
0.14617
0.155689
0.165067
0.174161
0.182775
0.190667
0.197684
0.203652
0.208703
0.211446
0.211327
0.207371
0.202757
0.206363
0.219079
0.233692
0.000268336
0.00188599
0.00348941
0.0051783
0.00695323
0.00881193
0.0107612
0.0128083
0.0149603
0.0172235
0.0196036
0.0221058
0.0247355
0.0274998
0.030407
0.0334665
0.036688
0.040082
0.0436617
0.0474447
0.0514519
0.0557042
0.0602204
0.0650173
0.0701134
0.0755318
0.0812986
0.0874391
0.0939753
0.100929
0.108945
0.117886
0.126933
0.136044
0.145156
0.154176
0.162965
0.171368
0.179194
0.186235
0.192379
0.197462
0.201603
0.203681
0.203213
0.200328
0.197151
0.201373
0.214131
0.22921
0.000202518
0.00183805
0.00345877
0.00516559
0.00695935
0.00883794
0.0108082
0.0128777
0.0150534
0.0173416
0.0197475
0.0222759
0.0249315
0.027721
0.0306528
0.0337371
0.0369846
0.0404068
0.0440161
0.0478281
0.0518614
0.0561355
0.0606685
0.0654764
0.0705752
0.0759837
0.0817238
0.0878179
0.0942851
0.101143
0.10902
0.117761
0.126553
0.135346
0.144072
0.152633
0.160885
0.168662
0.175779
0.182053
0.187402
0.191695
0.19505
0.196501
0.19564
0.193149
0.190656
0.195375
0.208833
0.224893
0.000129802
0.00177988
0.00341518
0.00513735
0.00694749
0.00884358
0.0108324
0.0129214
0.0151175
0.0174266
0.0198541
0.0224041
0.0250814
0.027892
0.0308443
0.033949
0.0372181
0.0406637
0.044298
0.0481347
0.0521899
0.0564809
0.0610248
0.0658368
0.0709316
0.0763247
0.0820343
0.0880795
0.0944767
0.10124
0.108981
0.117532
0.126084
0.134583
0.142957
0.151104
0.15888
0.166112
0.172616
0.178227
0.182886
0.1865
0.189128
0.189921
0.188483
0.185771
0.183426
0.188698
0.203458
0.220893
5.00661e-05
0.00171133
0.00335863
0.00509388
0.0069184
0.00883013
0.0108356
0.0129418
0.0151551
0.0174815
0.019926
0.0224932
0.0251877
0.0280155
0.0309849
0.0341071
0.0373943
0.0408595
0.0445147
0.0483722
0.0524453
0.0567489
0.0612983
0.0661082
0.0711923
0.0765643
0.0822394
0.0882338
0.0945612
0.101232
0.108844
0.117216
0.125548
0.133781
0.141841
0.149626
0.156993
0.163768
0.169767
0.174836
0.178924
0.181965
0.183901
0.18396
0.181702
0.178279
0.1758
0.181829
0.198385
0.217401
-3.63605e-05
0.00163314
0.00329002
0.00503628
0.00687335
0.00879906
0.0108194
0.0129406
0.0151685
0.0175086
0.0199662
0.0225461
0.0252534
0.0280946
0.0310782
0.0342152
0.0375182
0.0410001
0.0446728
0.0485474
0.0526348
0.0569471
0.0614977
0.0663002
0.0713677
0.076713
0.0823495
0.0882911
0.0945488
0.10113
0.10862
0.116828
0.124962
0.132958
0.140746
0.148223
0.155253
0.161662
0.167271
0.171929
0.175576
0.178133
0.179419
0.178652
0.175346
0.170894
0.168232
0.175351
0.194055
0.214619
-0.000128928
0.00154659
0.00321093
0.00496627
0.00681413
0.0087521
0.0107855
0.0129197
0.0151596
0.0175103
0.0199772
0.0225658
0.0252821
0.0281332
0.031128
0.0342775
0.037594
0.0410902
0.0447774
0.0486657
0.0527638
0.0570815
0.0616297
0.0664208
0.0714672
0.0767813
0.0823755
0.0882621
0.0944504
0.100945
0.108321
0.11638
0.124338
0.132131
0.139688
0.146914
0.153677
0.159813
0.165146
0.169523
0.172862
0.175033
0.175716
0.174055
0.169548
0.163954
0.161233
0.169932
0.190875
0.212728
-0.000226984
0.00145319
0.00312334
0.00488608
0.00674288
0.00869109
0.0107353
0.01288
0.0151293
0.0174879
0.0199612
0.0225554
0.0252774
0.0281355
0.031139
0.0342987
0.0376265
0.0411344
0.0448331
0.0487313
0.0528366
0.0571562
0.061699
0.0664757
0.0714979
0.0767776
0.0823268
0.0881571
0.0942763
0.100688
0.107957
0.115881
0.123686
0.131308
0.138678
0.145706
0.152273
0.158223
0.163388
0.167611
0.170772
0.172666
0.172817
0.170251
0.164518
0.157893
0.15551
0.166111
0.189125
0.211835
-0.000329878
0.00135447
0.00302946
0.00479818
0.00666197
0.00861794
0.0106701
0.0128223
0.0150782
0.0174421
0.0199195
0.0225172
0.0252432
0.0281063
0.0311163
0.0342842
0.037621
0.0411378
0.0448443
0.0487484
0.0528564
0.0571741
0.0617084
0.0664682
0.0714641
0.0767076
0.0822105
0.0879838
0.0940351
0.100367
0.107536
0.115339
0.123013
0.130495
0.137718
0.144601
0.151036
0.156882
0.16198
0.166166
0.169277
0.171016
0.170738
0.167343
0.160526
0.153181
0.151752
0.164274
0.188997
0.211996
-0.000437046
0.00125173
0.00293121
0.0047048
0.00657356
0.00853445
0.0105912
0.0127474
0.0150066
0.0173733
0.0198531
0.0224533
0.0251823
0.0280496
0.0310652
0.0342396
0.0375831
0.0411057
0.044816
0.0487212
0.052827
0.0571381
0.0616601
0.0664004
0.0713683
0.0765745
0.0820304
0.0877471
0.0937319
0.0999877
0.107064
0.11476
0.122323
0.129692
0.136805
0.14359
0.149952
0.155767
0.160888
0.165145
0.168331
0.170048
0.169487
0.165442
0.157844
0.150311
0.150321
0.164736
0.190593
0.213226
-0.000548086
0.00114574
0.00282976
0.00460732
0.00647912
0.00844206
0.0104999
0.0126565
0.0149159
0.0172828
0.0197635
0.0223654
0.0250973
0.0279688
0.0309895
0.0341693
0.0375175
0.0410428
0.044753
0.0486545
0.0527526
0.0570518
0.0615571
0.0662746
0.0712123
0.07638
0.0817887
0.0874493
0.0933695
0.0995527
0.106543
0.114143
0.121612
0.128893
0.13593
0.142659
0.149001
0.154849
0.16007
0.164493
0.16787
0.169712
0.169059
0.164645
0.156692
0.149669
0.151442
0.167586
0.193848
0.215465
-0.000662826
0.00103659
0.00272516
0.00450586
0.00637896
0.00834146
0.0103974
0.0125513
0.0148079
0.0171729
0.019653
0.0222561
0.0249908
0.0278663
0.0308919
0.0340761
0.0374272
0.0409526
0.0446589
0.0485522
0.0526375
0.0569195
0.0614032
0.066094
0.0709988
0.0761265
0.0814873
0.0870922
0.0929491
0.0990629
0.105973
0.113487
0.120877
0.128091
0.13508
0.14179
0.148156
0.15409
0.159476
0.164145
0.167823
0.169943
0.169427
0.16498
0.157239
0.151406
0.15516
0.172668
0.198528
0.218559
-0.000781355
0.000923575
0.00261624
0.00439913
0.00627215
0.00823243
0.0102845
0.0124337
0.0146857
0.0170472
0.0195256
0.0221289
0.0248658
0.0277448
0.0307741
0.0339614
0.0373133
0.0408361
0.0445354
0.0484165
0.0524847
0.056745
0.0612025
0.0658627
0.0707316
0.0758172
0.0811291
0.0866781
0.0924725
0.098519
0.105353
0.112789
0.120112
0.127276
0.134241
0.140962
0.147388
0.153449
0.159049
0.164029
0.168103
0.170649
0.170506
0.166423
0.159546
0.155451
0.161244
0.17958
0.20424
0.222254
-0.000903952
0.000805456
0.00250103
0.00428492
0.00615677
0.00811398
0.0101616
0.0123055
0.0145525
0.0169099
0.0193858
0.0219885
0.0247262
0.027607
0.0306381
0.0338258
0.0371758
0.040693
0.0443822
0.0482481
0.0522958
0.0565308
0.0609586
0.0655848
0.070415
0.0754565
0.0807182
0.0862105
0.0919426
0.0979228
0.104684
0.112048
0.119312
0.126439
0.133398
0.140153
0.146664
0.152882
0.15873
0.164067
0.168608
0.171709
0.172173
0.168907
0.163481
0.161499
0.169192
0.187722
0.210475
0.226211
-0.00103091
0.000680926
0.00237747
0.00416086
0.00603075
0.00798483
0.0100285
0.0121681
0.014411
0.016765
0.0192384
0.0218396
0.0245765
0.0274565
0.030486
0.0336706
0.0370149
0.0405228
0.0441985
0.0480462
0.0520708
0.056278
0.0606736
0.0652634
0.0700528
0.0750484
0.0802586
0.0856937
0.0913631
0.0972775
0.103967
0.111261
0.118472
0.125572
0.132536
0.139338
0.145951
0.152343
0.158458
0.164178
0.169231
0.172989
0.174291
0.172253
0.168715
0.169024
0.178306
0.196376
0.216674
0.230043
-0.00116232
0.000549209
0.00224428
0.00402554
0.00589285
0.00784425
0.00988529
0.0120226
0.0142634
0.0166155
0.0190871
0.0216862
0.0244204
0.0272966
0.0303207
0.0334976
0.0368313
0.0403255
0.0439838
0.0478101
0.0518091
0.0559865
0.0603484
0.0649001
0.0696472
0.0745957
0.0797537
0.0851312
0.0907379
0.0965866
0.103205
0.110431
0.117592
0.124667
0.131642
0.138497
0.145218
0.151788
0.158173
0.16428
0.169868
0.174354
0.176679
0.176175
0.174788
0.177353
0.187797
0.204828
0.222328
0.23338
-0.00129787
0.000410529
0.00210171
0.00387928
0.00574354
0.00769286
0.00973284
0.0118699
0.0141108
0.0164629
0.0189336
0.0215304
0.0242604
0.0271299
0.0301444
0.0333086
0.0366266
0.040102
0.0437384
0.0475396
0.0515104
0.055656
0.0599826
0.0644953
0.0691991
0.0740998
0.0792053
0.0845252
0.0900696
0.0958528
0.102401
0.109559
0.11667
0.12372
0.130703
0.137609
0.144434
0.151174
0.157816
0.164295
0.170412
0.17566
0.179121
0.180331
0.181168
0.185778
0.196913
0.212474
0.227059
0.235952
-0.00143685
0.000266277
0.00195176
0.0037245
0.00558536
0.00753305
0.00957305
0.0117113
0.0139539
0.0163072
0.0187777
0.021372
0.0240964
0.0269567
0.0299581
0.0331053
0.0364027
0.0398543
0.0434642
0.0472364
0.0511756
0.0552871
0.0595766
0.064049
0.0687087
0.0735612
0.0786139
0.0838767
0.0893594
0.0950779
0.101555
0.108646
0.115704
0.122725
0.12971
0.136658
0.143571
0.150461
0.157332
0.164149
0.170764
0.176761
0.181393
0.184355
0.187321
0.193648
0.205038
0.218898
0.230673
0.237646
-0.0015782
0.000118769
0.00179782
0.00356531
0.00542265
0.00736882
0.00940912
0.0115489
0.0137935
0.0161481
0.0186181
0.0212092
0.0239266
0.0267756
0.0297611
0.032888
0.036161
0.0395849
0.0431643
0.0469036
0.0508077
0.0548821
0.0591323
0.0635627
0.0681771
0.0729804
0.0779802
0.0831861
0.0886081
0.0942628
0.10067
0.107691
0.114694
0.121679
0.128655
0.135628
0.142608
0.149618
0.156679
0.163782
0.170835
0.177524
0.183277
0.187905
0.192778
0.200447
0.211753
0.223889
0.233158
0.238507
-0.00172076
-2.9345e-05
0.00164387
0.00340659
0.00526059
0.00720504
0.00924501
0.0113854
0.0136306
0.015985
0.018453
0.0210391
0.0237479
0.0265838
0.0295516
0.0326561
0.0359024
0.0392959
0.0428419
0.0465453
0.0504113
0.0544455
0.0586535
0.0630395
0.0676067
0.0723595
0.0773056
0.0824546
0.0878166
0.0934085
0.0997464
0.106697
0.11364
0.12058
0.127533
0.13451
0.14153
0.148623
0.155822
0.163147
0.170556
0.17784
0.184591
0.190693
0.197171
0.205821
0.216831
0.227404
0.234613
0.238683
-0.00186358
-0.000175741
0.00149346
0.00325271
0.00510388
0.00704624
0.00908461
0.0112235
0.0134667
0.0158181
0.0182812
0.0208596
0.0235573
0.0263783
0.0293269
0.0324078
0.0356264
0.0389883
0.0424994
0.0461651
0.0499908
0.0539822
0.0581452
0.062484
0.0670016
0.0717022
0.0765933
0.0816849
0.0869872
0.0925172
0.0987861
0.105665
0.112543
0.119429
0.126343
0.133302
0.14033
0.147462
0.154743
0.162215
0.169881
0.17763
0.185199
0.192512
0.200256
0.209571
0.220192
0.229489
0.235169
0.238327
-0.00200605
-0.000319014
0.00134874
0.00310635
0.00495547
0.00689533
0.00893053
0.0110653
0.0133033
0.0156478
0.018102
0.0206693
0.0233529
0.0261567
0.0290847
0.0321412
0.0353317
0.0386619
0.0421378
0.0457651
0.0495493
0.0534961
0.0576116
0.0619007
0.0663663
0.0710127
0.0758474
0.080881
0.0861237
0.0915924
0.0977928
0.104599
0.111407
0.118229
0.125089
0.132006
0.139008
0.146134
0.153437
0.160976
0.168792
0.176855
0.185023
0.193241
0.201904
0.211622
0.221848
0.23021
0.234916
0.237511
-0.00214794
-0.000458801
0.0012102
0.00296802
0.00481587
0.00675288
0.00878341
0.0109115
0.0131408
0.0154744
0.0179157
0.0204677
0.023134
0.0259181
0.0288238
0.0318553
0.0350174
0.038316
0.041757
0.0453461
0.0490885
0.0529899
0.0570565
0.0612936
0.0657051
0.0702955
0.0750725
0.0800474
0.0852306
0.0906388
0.0967712
0.103503
0.110237
0.116988
0.123778
0.13063
0.137573
0.144649
0.151915
0.159439
0.167296
0.175514
0.184046
0.192849
0.202092
0.211995
0.221856
0.229608
0.233847
0.236183
-0.00229105
-0.000597718
0.00107513
0.00283496
0.00468248
0.00661661
0.00864141
0.0107609
0.0129786
0.015298
0.0177226
0.020256
0.0229017
0.0256636
0.0285452
0.0315505
0.034684
0.0379511
0.0413576
0.0449089
0.0486099
0.0524656
0.0564823
0.0606661
0.065022
0.0695549
0.0742735
0.0791892
0.0843132
0.0896615
0.0957266
0.102383
0.109041
0.115712
0.122419
0.129186
0.13604
0.143024
0.150196
0.157632
0.165422
0.173642
0.182308
0.191386
0.200891
0.210781
0.2203
0.227689
0.231836
0.234189
-0.00243643
-0.000738369
0.000939897
0.00270303
0.00455095
0.00648222
0.00850066
0.0106102
0.0128147
0.0151177
0.0175233
0.0200354
0.0226582
0.0253956
0.0282515
0.0312294
0.0343335
0.0375688
0.0409409
0.0444546
0.0481143
0.0519244
0.055891
0.0600209
0.0643201
0.068795
0.0734546
0.0783114
0.0833767
0.088666
0.0946646
0.101246
0.107825
0.114411
0.121025
0.127688
0.134427
0.141283
0.148311
0.155591
0.163221
0.171303
0.179892
0.188964
0.198443
0.208132
0.217292
0.224457
0.228704
0.231255
-0.00258148
-0.000879266
0.000803879
0.00257012
0.00441805
0.00634588
0.00835732
0.0104563
0.0126466
0.0149323
0.0173178
0.0198074
0.0224059
0.0251174
0.027946
0.0308952
0.033969
0.0371718
0.0405087
0.0439843
0.0476024
0.0513669
0.0552834
0.0593593
0.0636018
0.0680186
0.0726198
0.0774182
0.0824259
0.0876572
0.0935902
0.100097
0.106595
0.113091
0.119603
0.126149
0.132752
0.139449
0.146294
0.153362
0.160753
0.168578
0.176915
0.185744
0.194944
0.204248
0.212974
0.219933
0.224303
0.227038
-0.00272339
-0.00101803
0.000667259
0.00243432
0.00428037
0.00620346
0.00820716
0.0102952
0.0124715
0.0147402
0.0171058
0.0195732
0.0221471
0.0248322
0.0276327
0.0305522
0.0335943
0.0367633
0.0400637
0.0435
0.0470756
0.0507939
0.0546602
0.0586822
0.0628685
0.067228
0.0717717
0.0765132
0.0814644
0.086639
0.0925075
0.0989405
0.105357
0.11176
0.118164
0.124581
0.131032
0.137549
0.14418
0.150994
0.158085
0.165564
0.17351
0.181909
0.190623
0.199366
0.207532
0.214174
0.218507
0.221155
-0.0028635
-0.00115659
0.000527355
0.00229176
0.00413331
0.00605007
0.00804531
0.0101226
0.0122856
0.0145386
0.016886
0.0193326
0.0218832
0.0245425
0.0273149
0.0302042
0.0332139
0.0363477
0.0396101
0.0430051
0.0465363
0.0502071
0.0540226
0.0579908
0.0621215
0.0664247
0.0709126
0.0755986
0.080495
0.0856141
0.0914193
0.0977785
0.104113
0.110422
0.116713
0.122995
0.129285
0.135608
0.142005
0.148537
0.155287
0.162354
0.169811
0.177644
0.185712
0.193734
0.20119
0.207286
0.211257
0.213427
-0.00300652
-0.00130093
0.000379104
0.00213817
0.00397327
0.00588249
0.00786882
0.00993566
0.0120866
0.0143256
0.016657
0.019085
0.0216143
0.0242495
0.026995
0.0298544
0.0328313
0.0359291
0.0391517
0.0425035
0.0459883
0.0496098
0.0533734
0.0572876
0.0613629
0.065611
0.0700443
0.0746766
0.0795196
0.0845844
0.0903271
0.096613
0.102865
0.109078
0.115255
0.1214
0.127524
0.133646
0.1398
0.146035
0.152421
0.159038
0.165946
0.173123
0.18043
0.187597
0.194176
0.199421
0.202592
0.203774
-0.00315582
-0.00145558
0.000218786
0.00197099
0.00379857
0.00569965
0.00767709
0.00973421
0.0118744
0.0141014
0.0164188
0.0188307
0.021341
0.0239541
0.026674
0.0295044
0.0324486
0.0355097
0.0386915
0.0419985
0.0454349
0.0490053
0.0527158
0.0565754
0.0605957
0.0647893
0.0691692
0.0737491
0.0785398
0.0835511
0.0892318
0.0954444
0.101614
0.107731
0.113795
0.119803
0.125761
0.131684
0.137595
0.143532
0.149546
0.155698
0.162026
0.168496
0.174966
0.181179
0.186695
0.190781
0.192691
0.192313
-0.00331017
-0.00161883
4.80696e-05
0.00179213
0.00361122
0.00550358
0.00747208
0.00951998
0.0116505
0.0138667
0.0161721
0.0185698
0.0210633
0.0236562
0.0263521
0.0291545
0.0320664
0.0350907
0.0382311
0.0414921
0.0448789
0.0483969
0.0520531
0.0558577
0.0598231
0.0639628
0.0682902
0.0728183
0.0775573
0.0825153
0.0881338
0.0942729
0.10036
0.106382
0.112334
0.118209
0.124008
0.129739
0.135416
0.141062
0.146711
0.1524
0.158142
0.163886
0.169482
0.174665
0.178946
0.181598
0.181825
0.179379
-0.00346553
-0.00178461
-0.000126891
0.00160774
0.00341731
0.00530022
0.00725943
0.00929807
0.0114191
0.0136253
0.0159195
0.0183042
0.0207821
0.0233561
0.0260293
0.0288045
0.0316846
0.0346724
0.0377713
0.040986
0.0443224
0.0477873
0.0513889
0.0551383
0.059049
0.0631351
0.0674102
0.0718868
0.076574
0.0814781
0.0870339
0.0930989
0.0991034
0.105033
0.110877
0.116626
0.122276
0.127827
0.133284
0.138656
0.143958
0.1492
0.15437
0.159395
0.164106
0.168198
0.171128
0.172134
0.170357
0.165494
-0.0036204
-0.00194999
-0.000302094
0.00142252
0.003222
0.00509505
0.00704467
0.00907391
0.0111855
0.0133818
0.015665
0.0180371
0.0205
0.0230555
0.0257062
0.0284545
0.0313028
0.0342539
0.0373112
0.0404797
0.0437659
0.0471778
0.0507251
0.0544198
0.0582763
0.0623092
0.0665323
0.0709572
0.0755918
0.080441
0.0859328
0.091923
0.097846
0.103685
0.109427
0.115059
0.120572
0.125961
0.131218
0.136339
0.141317
0.14614
0.150766
0.155097
0.158931
0.161911
0.163432
0.162671
0.158729
0.151342
-0.00376385
-0.00209984
-0.0004625
0.00124899
0.00303569
0.00489708
0.006836
0.00885509
0.0109566
0.0131424
0.015414
0.0177727
0.0202195
0.0227559
0.0253833
0.0281039
0.03092
0.0338341
0.0368497
0.0399722
0.0432088
0.0465686
0.0500624
0.0537036
0.0575069
0.0614874
0.0656586
0.0700312
0.0746122
0.0794052
0.0848317
0.0907466
0.0965892
0.102341
0.107988
0.113514
0.118906
0.12415
0.129231
0.134127
0.138813
0.143251
0.147373
0.151048
0.154034
0.15592
0.156037
0.153504
0.147437
0.137719
-0.00393765
-0.0022894
-0.000661142
0.00104802
0.00283505
0.00469585
0.00663193
0.00864567
0.0107394
0.012915
0.0151741
0.0175176
0.0199463
0.0224611
0.0250632
0.0277543
0.0305365
0.0334124
0.0363857
0.0394622
0.0426497
0.0459585
0.0494004
0.0529896
0.0567412
0.0606702
0.0647896
0.0691096
0.0736359
0.0783712
0.0837311
0.0895704
0.0953345
0.101005
0.106565
0.111997
0.117284
0.122405
0.127333
0.132034
0.136463