/*--------------------------------*- C++ -*----------------------------------*\
  =========                 |
  \\      /  F ield         | OpenFOAM: The Open Source CFD Toolbox
   \\    /   O peration     | Website:  https://openfoam.org
    \\  /    A nd           | Version:  9
     \\/     M anipulation  |
\*---------------------------------------------------------------------------*/
FoamFile
{
    format      ascii;
    class       surfaceScalarField;
    location    "0.06";
    object      phi;
}
// * * * * * * * * * * * * * * * * * * * * * * * * * * * * * * * * * * * * * //

dimensions      [0 3 -1 0 0 0 0];

internalField   nonuniform List<scalar> 
9850
(
4.32651e-07
2.00462e-06
4.32656e-07
2.09948e-06
4.3266e-07
2.1987e-06
4.32672e-07
2.30246e-06
4.32689e-07
2.41095e-06
4.32712e-07
2.52434e-06
4.32739e-07
2.64278e-06
4.32772e-07
2.76646e-06
4.32809e-07
2.89553e-06
4.3285e-07
3.03016e-06
4.32897e-07
3.17052e-06
4.3295e-07
3.31676e-06
4.33008e-07
3.46906e-06
4.33075e-07
3.62755e-06
4.33149e-07
3.79237e-06
4.33233e-07
3.96363e-06
4.33328e-07
4.14143e-06
4.33436e-07
4.32581e-06
4.33558e-07
4.51681e-06
4.33697e-07
4.71439e-06
4.33856e-07
4.91848e-06
4.34039e-07
5.12891e-06
4.34251e-07
5.34546e-06
4.34498e-07
5.56776e-06
4.3479e-07
5.79531e-06
4.35142e-07
6.0274e-06
4.35579e-07
6.26298e-06
4.36136e-07
6.50046e-06
4.36866e-07
6.73734e-06
4.37823e-07
6.96975e-06
4.39194e-07
8.37937e-06
4.40985e-07
8.19673e-06
4.4336e-07
7.99223e-06
4.46327e-07
7.75836e-06
4.48795e-07
7.48465e-06
4.45936e-07
7.17103e-06
4.32631e-07
6.91125e-06
4.50599e-07
7.09231e-06
5.83195e-07
8.02169e-06
1.19785e-06
9.42463e-06
6.22232e-07
3.59061e-07
7.60834e-10
-1.42493e-07
4.07902e-07
1.26258e-05
5.65504e-07
1.35535e-05
9.8912e-07
1.46124e-05
4.59953e-07
1.16648e-06
-1.1838e-07
6.02095e-07
3.24042e-07
1.48691e-05
4.3775e-07
1.44568e-05
1.46767e-05
4.32157e-07
2.00459e-06
4.32169e-07
2.09946e-06
4.32183e-07
2.19869e-06
4.3221e-07
2.30244e-06
4.32251e-07
2.41091e-06
4.32307e-07
2.52428e-06
4.32376e-07
2.64271e-06
4.32458e-07
2.76638e-06
4.32554e-07
2.89543e-06
4.32664e-07
3.03005e-06
4.32788e-07
3.17039e-06
4.32929e-07
3.31662e-06
4.33089e-07
3.4689e-06
4.33268e-07
3.62737e-06
4.33471e-07
3.79217e-06
4.33699e-07
3.9634e-06
4.33958e-07
4.14117e-06
4.34251e-07
4.32552e-06
4.34584e-07
4.51648e-06
4.34963e-07
4.71402e-06
4.35396e-07
4.91805e-06
4.35893e-07
5.12842e-06
4.36468e-07
5.34488e-06
4.37139e-07
5.56709e-06
4.37931e-07
5.79452e-06
4.38884e-07
6.02645e-06
4.40054e-07
6.26181e-06
4.41523e-07
6.49899e-06
4.43397e-07
6.73547e-06
4.45774e-07
6.96738e-06
4.49194e-07
8.37595e-06
4.53441e-07
8.19248e-06
4.5863e-07
7.98704e-06
4.64273e-07
7.75272e-06
4.67809e-07
7.48111e-06
4.63024e-07
7.17582e-06
4.54001e-07
6.92027e-06
5.12417e-07
7.03389e-06
7.70626e-07
7.76348e-06
1.54094e-06
8.65432e-06
8.05773e-07
1.09422e-06
-6.12033e-08
7.24483e-07
4.29716e-07
1.21349e-05
7.44883e-07
1.32383e-05
1.25333e-06
1.4104e-05
4.75225e-07
1.94459e-06
-2.82033e-07
1.35935e-06
1.96565e-07
1.43905e-05
4.47529e-07
1.42058e-05
1.44465e-05
4.31214e-07
2.00457e-06
4.3124e-07
2.09944e-06
4.31274e-07
2.19865e-06
4.31323e-07
2.30239e-06
4.31389e-07
2.41084e-06
4.31474e-07
2.5242e-06
4.31577e-07
2.64261e-06
4.317e-07
2.76625e-06
4.31844e-07
2.89529e-06
4.32009e-07
3.02989e-06
4.32198e-07
3.1702e-06
4.32412e-07
3.31641e-06
4.32654e-07
3.46866e-06
4.32927e-07
3.6271e-06
4.33236e-07
3.79186e-06
4.33586e-07
3.96305e-06
4.3398e-07
4.14078e-06
4.34427e-07
4.32507e-06
4.34934e-07
4.51597e-06
4.35511e-07
4.71344e-06
4.36168e-07
4.91739e-06
4.36922e-07
5.12766e-06
4.37791e-07
5.34401e-06
4.38802e-07
5.56608e-06
4.39992e-07
5.79333e-06
4.41412e-07
6.02503e-06
4.43137e-07
6.26009e-06
4.45269e-07
6.49686e-06
4.47931e-07
6.73281e-06
4.51229e-07
6.96408e-06
4.55882e-07
8.37129e-06
4.61361e-07
8.187e-06
4.67579e-07
7.98083e-06
4.73718e-07
7.74658e-06
4.77262e-07
7.47757e-06
4.73458e-07
7.17962e-06
4.69538e-07
6.92419e-06
5.40856e-07
6.96257e-06
7.94131e-07
7.51021e-06
1.53941e-06
7.90904e-06
8.90363e-07
1.74327e-06
-1.90534e-08
1.6339e-06
4.6273e-07
1.16531e-05
8.00645e-07
1.29004e-05
1.31473e-06
1.35899e-05
4.9876e-07
2.76055e-06
-2.77308e-07
2.13542e-06
1.91289e-07
1.39219e-05
4.70243e-07
1.39269e-05
1.4169e-05
4.29795e-07
2.00455e-06
4.29831e-07
2.0994e-06
4.29882e-07
2.1986e-06
4.2995e-07
2.30232e-06
4.30039e-07
2.41076e-06
4.30148e-07
2.52409e-06
4.30281e-07
2.64248e-06
4.30438e-07
2.7661e-06
4.30621e-07
2.89511e-06
4.30831e-07
3.02968e-06
4.31071e-07
3.16996e-06
4.31344e-07
3.31614e-06
4.31652e-07
3.46835e-06
4.32001e-07
3.62675e-06
4.32395e-07
3.79146e-06
4.32839e-07
3.96261e-06
4.33341e-07
4.14027e-06
4.33908e-07
4.32451e-06
4.3455e-07
4.51533e-06
4.35277e-07
4.71271e-06
4.36104e-07
4.91656e-06
4.37048e-07
5.12672e-06
4.38131e-07
5.34293e-06
4.39384e-07
5.56482e-06
4.40847e-07
5.79187e-06
4.42576e-07
6.0233e-06
4.44648e-07
6.25801e-06
4.47165e-07
6.49434e-06
4.50241e-07
6.72973e-06
4.53952e-07
6.96037e-06
4.59004e-07
8.36624e-06
4.646e-07
8.1814e-06
4.70417e-07
7.97501e-06
4.75323e-07
7.74167e-06
4.76678e-07
7.47621e-06
4.70263e-07
7.18603e-06
4.61165e-07
6.93329e-06
5.21113e-07
6.90262e-06
7.52791e-07
7.27853e-06
1.40744e-06
7.25439e-06
8.76645e-07
2.27407e-06
3.2962e-08
2.47758e-06
4.78413e-07
1.12076e-05
8.1578e-07
1.25631e-05
1.28351e-06
1.31222e-05
5.17672e-07
3.52639e-06
-2.0763e-07
2.86072e-06
2.20444e-07
1.34938e-05
5.00931e-07
1.36464e-05
1.38828e-05
4.27862e-07
2.00453e-06
4.27905e-07
2.09936e-06
4.27967e-07
2.19854e-06
4.2805e-07
2.30224e-06
4.28154e-07
2.41065e-06
4.28283e-07
2.52396e-06
4.28438e-07
2.64232e-06
4.28621e-07
2.76591e-06
4.28834e-07
2.8949e-06
4.29079e-07
3.02943e-06
4.29358e-07
3.16968e-06
4.29675e-07
3.31582e-06
4.30034e-07
3.46799e-06
4.30438e-07
3.62634e-06
4.30894e-07
3.79101e-06
4.31407e-07
3.9621e-06
4.31985e-07
4.1397e-06
4.32636e-07
4.32386e-06
4.33369e-07
4.5146e-06
4.34197e-07
4.71188e-06
4.35134e-07
4.91563e-06
4.36196e-07
5.12566e-06
4.37407e-07
5.34172e-06
4.38795e-07
5.56343e-06
4.40399e-07
5.79026e-06
4.42271e-07
6.02143e-06
4.44478e-07
6.25581e-06
4.47104e-07
6.49172e-06
4.50232e-07
6.72661e-06
4.53875e-07
6.95672e-06
4.58582e-07
8.36154e-06
4.63343e-07
8.17664e-06
4.67551e-07
7.9708e-06
4.69697e-07
7.73952e-06
4.66797e-07
7.47911e-06
4.5552e-07
7.19731e-06
4.39611e-07
6.9492e-06
4.84704e-07
6.85753e-06
6.97235e-07
7.066e-06
1.23761e-06
6.71402e-06
8.05691e-07
2.70599e-06
7.29905e-08
3.21028e-06
4.7881e-07
1.08018e-05
8.00825e-07
1.2241e-05
1.2028e-06
1.27202e-05
5.2842e-07
4.20077e-06
-1.10852e-07
3.49999e-06
2.65745e-07
1.31172e-05
5.3123e-07
1.33809e-05
1.36103e-05
4.25398e-07
2.00451e-06
4.25445e-07
2.09931e-06
4.25514e-07
2.19847e-06
4.25606e-07
2.30214e-06
4.25722e-07
2.41054e-06
4.25863e-07
2.52382e-06
4.26034e-07
2.64215e-06
4.26235e-07
2.76571e-06
4.26468e-07
2.89466e-06
4.26737e-07
3.02916e-06
4.27042e-07
3.16938e-06
4.27388e-07
3.31547e-06
4.27779e-07
3.4676e-06
4.28219e-07
3.6259e-06
4.28713e-07
3.79051e-06
4.29268e-07
3.96154e-06
4.2989e-07
4.13907e-06
4.30588e-07
4.32316e-06
4.3137e-07
4.51381e-06
4.32248e-07
4.71101e-06
4.33233e-07
4.91464e-06
4.34343e-07
5.12455e-06
4.35595e-07
5.34047e-06
4.37015e-07
5.56201e-06
4.38633e-07
5.78864e-06
4.4049e-07
6.01957e-06
4.42634e-07
6.25366e-06
4.45119e-07
6.48923e-06
4.47977e-07
6.72375e-06
4.51147e-07
6.95356e-06
4.54909e-07
8.35777e-06
4.5811e-07
8.17344e-06
4.59864e-07
7.96905e-06
4.58402e-07
7.74099e-06
4.50557e-07
7.48696e-06
4.33927e-07
7.21394e-06
4.15861e-07
6.96726e-06
4.46696e-07
6.82669e-06
6.42541e-07
6.87015e-06
1.0763e-06
6.28026e-06
7.04274e-07
3.07801e-06
8.5965e-08
3.82859e-06
4.64222e-07
1.04236e-05
7.6687e-07
1.19384e-05
1.10965e-06
1.23774e-05
5.29553e-07
4.78087e-06
-1.91078e-08
4.04866e-06
3.19214e-07
1.27789e-05
5.58962e-07
1.31412e-05
1.33659e-05
4.22397e-07
2.00449e-06
4.22446e-07
2.09926e-06
4.22519e-07
2.1984e-06
4.22617e-07
2.30205e-06
4.22739e-07
2.41041e-06
4.22888e-07
2.52367e-06
4.23067e-07
2.64197e-06
4.23279e-07
2.7655e-06
4.23524e-07
2.89442e-06
4.23805e-07
3.02888e-06
4.24124e-07
3.16906e-06
4.24485e-07
3.31511e-06
4.24891e-07
3.46719e-06
4.25347e-07
3.62545e-06
4.25858e-07
3.79e-06
4.26428e-07
3.96097e-06
4.27064e-07
4.13844e-06
4.27774e-07
4.32245e-06
4.28564e-07
4.51302e-06
4.29444e-07
4.71013e-06
4.30423e-07
4.91366e-06
4.31514e-07
5.12346e-06
4.32729e-07
5.33925e-06
4.34086e-07
5.56066e-06
4.35605e-07
5.78712e-06
4.37308e-07
6.01787e-06
4.39222e-07
6.25175e-06
4.4136e-07
6.48709e-06
4.43697e-07
6.72141e-06
4.46092e-07
6.95116e-06
4.48498e-07
8.35537e-06
4.49719e-07
8.17222e-06
4.48668e-07
7.9701e-06
4.43523e-07
7.74613e-06
4.31481e-07
7.499e-06
4.11124e-07
7.2343e-06
3.90275e-07
6.98811e-06
4.10467e-07
6.8065e-06
5.91695e-07
6.68892e-06
9.29439e-07
5.94251e-06
5.83642e-07
3.42381e-06
7.41352e-08
4.3381e-06
4.36013e-07
1.00617e-05
7.22975e-07
1.16514e-05
1.02052e-06
1.20799e-05
5.20601e-07
5.28079e-06
5.65962e-08
4.51266e-06
3.72587e-07
1.24629e-05
5.83193e-07
1.29306e-05
1.31543e-05
4.18869e-07
2.00447e-06
4.18919e-07
2.09921e-06
4.18995e-07
2.19832e-06
4.19095e-07
2.30195e-06
4.19221e-07
2.41029e-06
4.19374e-07
2.52351e-06
4.19557e-07
2.64179e-06
4.19772e-07
2.76529e-06
4.20021e-07
2.89417e-06
4.20305e-07
3.0286e-06
4.20628e-07
3.16874e-06
4.20991e-07
3.31475e-06
4.21399e-07
3.46678e-06
4.21853e-07
3.62499e-06
4.2236e-07
3.7895e-06
4.22923e-07
3.96041e-06
4.23548e-07
4.13781e-06
4.24238e-07
4.32176e-06
4.25001e-07
4.51226e-06
4.25842e-07
4.70928e-06
4.26767e-07
4.91273e-06
4.27782e-07
5.12244e-06
4.28895e-07
5.33814e-06
4.30113e-07
5.55944e-06
4.31442e-07
5.7858e-06
4.32886e-07
6.01642e-06
4.34443e-07
6.25019e-06
4.3609e-07
6.48545e-06
4.37742e-07
6.71976e-06
4.39182e-07
6.94972e-06
4.40044e-07
8.35451e-06
4.39188e-07
8.17308e-06
4.35433e-07
7.97386e-06
4.27125e-07
7.75444e-06
4.1199e-07
7.51413e-06
3.89506e-07
7.25678e-06
3.69387e-07
7.00823e-06
3.87608e-07
6.78828e-06
5.44375e-07
6.53216e-06
7.89246e-07
5.69764e-06
4.5169e-07
3.76136e-06
4.71539e-08
4.74263e-06
4.01958e-07
9.70688e-06
6.7427e-07
1.13791e-05
9.37912e-07
1.18162e-05
5.03844e-07
5.71485e-06
1.19538e-07
4.89697e-06
4.18202e-07
1.21642e-05
6.03742e-07
1.2745e-05
1.29735e-05
4.14847e-07
2.00445e-06
4.14899e-07
2.09916e-06
4.14976e-07
2.19824e-06
4.15077e-07
2.30185e-06
4.15203e-07
2.41016e-06
4.15356e-07
2.52336e-06
4.15539e-07
2.64161e-06
4.15752e-07
2.76507e-06
4.15999e-07
2.89392e-06
4.16279e-07
3.02832e-06
4.16596e-07
3.16842e-06
4.16951e-07
3.31439e-06
4.17347e-07
3.46639e-06
4.17787e-07
3.62455e-06
4.18275e-07
3.78901e-06
4.18812e-07
3.95987e-06
4.19403e-07
4.13722e-06
4.20051e-07
4.32111e-06
4.20758e-07
4.51155e-06
4.21528e-07
4.70852e-06
4.22361e-07
4.9119e-06
4.2326e-07
5.12154e-06
4.24222e-07
5.33718e-06
4.25245e-07
5.55842e-06
4.26322e-07
5.78472e-06
4.27437e-07
6.01531e-06
4.28563e-07
6.24907e-06
4.29641e-07
6.48437e-06
4.3054e-07
6.71886e-06
4.3099e-07
6.94927e-06
4.30319e-07
8.35518e-06
4.27545e-07
8.17585e-06
4.21591e-07
7.97981e-06
4.10961e-07
7.76507e-06
3.94095e-07
7.531e-06
3.71354e-07
7.27952e-06
3.53691e-07
7.02589e-06
3.70683e-07
6.77129e-06
4.99099e-07
6.40374e-06
6.5793e-07
5.53881e-06
3.56102e-07
4.06319e-06
1.62712e-08
5.08246e-06
3.58852e-07
9.3643e-06
6.23153e-07
1.11148e-05
8.62867e-07
1.15765e-05
4.87875e-07
6.08985e-06
1.75961e-07
5.20888e-06
4.71397e-07
1.18688e-05
6.2329e-07
1.25931e-05
1.28219e-05
4.10385e-07
2.00442e-06
4.10437e-07
2.09911e-06
4.10514e-07
2.19817e-06
4.10614e-07
2.30175e-06
4.10738e-07
2.41004e-06
4.10889e-07
2.52321e-06
4.11067e-07
2.64143e-06
4.11275e-07
2.76487e-06
4.11513e-07
2.89368e-06
4.11784e-07
3.02805e-06
4.12088e-07
3.16812e-06
4.12427e-07
3.31405e-06
4.12803e-07
3.46601e-06
4.13218e-07
3.62414e-06
4.13673e-07
3.78855e-06
4.14171e-07
3.95937e-06
4.14713e-07
4.13668e-06
4.153e-07
4.32052e-06
4.15932e-07
4.51092e-06
4.16609e-07
4.70784e-06
4.17327e-07
4.91118e-06
4.1808e-07
5.12079e-06
4.18862e-07
5.33639e-06
4.19659e-07
5.55762e-06
4.2045e-07
5.78393e-06
4.21204e-07
6.01455e-06
4.21872e-07
6.2484e-06
4.22365e-07
6.48388e-06
4.22519e-07
6.71871e-06
4.22028e-07
6.94976e-06
4.19991e-07
8.35722e-06
4.15651e-07
8.18019e-06
4.08034e-07
7.98742e-06
3.96036e-07
7.77707e-06
3.78848e-07
7.54819e-06
3.57614e-07
7.30076e-06
3.43351e-07
7.04016e-06
3.60053e-07
6.75459e-06
4.56406e-07
6.30739e-06
5.38194e-07
5.45703e-06
2.62772e-07
4.33861e-06
-1.34142e-08
5.35865e-06
3.10674e-07
9.04021e-06
5.71689e-07
1.08538e-05
7.98505e-07
1.13497e-05
4.82193e-07
6.40616e-06
2.2688e-07
5.46419e-06
5.15976e-07
1.15797e-05
6.41947e-07
1.24671e-05
1.26969e-05
4.05543e-07
2.0044e-06
4.05594e-07
2.09906e-06
4.05669e-07
2.19809e-06
4.05767e-07
2.30165e-06
4.05888e-07
2.40992e-06
4.06033e-07
2.52306e-06
4.06205e-07
2.64126e-06
4.06403e-07
2.76467e-06
4.0663e-07
2.89346e-06
4.06886e-07
3.02779e-06
4.07173e-07
3.16783e-06
4.0749e-07
3.31374e-06
4.07839e-07
3.46566e-06
4.08221e-07
3.62375e-06
4.08636e-07
3.78814e-06
4.09086e-07
3.95892e-06
4.09569e-07
4.13619e-06
4.10085e-07
4.32001e-06
4.1063e-07
4.51038e-06
4.112e-07
4.70727e-06
4.11789e-07
4.91059e-06
4.12384e-07
5.12019e-06
4.12973e-07
5.33581e-06
4.13531e-07
5.55706e-06
4.14028e-07
5.78343e-06
4.1442e-07
6.01416e-06
4.14638e-07
6.24818e-06
4.14575e-07
6.48394e-06
4.14045e-07
6.71924e-06
4.12726e-07
6.95108e-06
4.09552e-07
8.36039e-06
4.04018e-07
8.18573e-06
3.95355e-07
7.99609e-06
3.82812e-07
7.78961e-06
3.66283e-07
7.56472e-06
3.47492e-07
7.31955e-06
3.36482e-07
7.05117e-06
3.51745e-07
6.73932e-06
4.15944e-07
6.24319e-06
4.3803e-07
5.43494e-06
1.86667e-07
4.58997e-06
-3.64241e-08
5.58174e-06
2.59358e-07
8.74443e-06
5.20016e-07
1.05931e-05
7.46794e-07
1.11229e-05
4.94313e-07
6.65864e-06
2.77027e-07
5.68148e-06
5.56828e-07
1.12999e-05
6.61763e-07
1.23622e-05
1.25981e-05
4.00372e-07
2.00438e-06
4.00422e-07
2.09901e-06
4.00495e-07
2.19802e-06
4.0059e-07
2.30155e-06
4.00706e-07
2.4098e-06
4.00845e-07
2.52293e-06
4.01008e-07
2.6411e-06
4.01195e-07
2.76448e-06
4.01408e-07
2.89324e-06
4.01647e-07
3.02755e-06
4.01913e-07
3.16756e-06
4.02205e-07
3.31344e-06
4.02523e-07
3.46534e-06
4.02868e-07
3.62341e-06
4.03239e-07
3.78777e-06
4.03636e-07
3.95853e-06
4.04055e-07
4.13578e-06
4.04493e-07
4.31957e-06
4.04946e-07
4.50992e-06
4.05405e-07
4.70681e-06
4.05859e-07
4.91014e-06
4.06294e-07
5.11976e-06
4.06687e-07
5.33541e-06
4.0701e-07
5.55674e-06
4.07222e-07
5.78322e-06
4.07269e-07
6.01412e-06
4.07069e-07
6.24838e-06
4.06504e-07
6.48451e-06
4.05377e-07
6.72036e-06
4.03365e-07
6.95309e-06
3.993e-07
8.36446e-06
3.92924e-07
8.1921e-06
3.83678e-07
8.00533e-06
3.71129e-07
7.80216e-06
3.55666e-07
7.58018e-06
3.39316e-07
7.3359e-06
3.30381e-07
7.0601e-06
3.41685e-07
6.72802e-06
3.74402e-07
6.21047e-06
3.53267e-07
5.45607e-06
1.27654e-07
4.81559e-06
-5.4129e-08
5.76352e-06
2.02985e-07
8.48732e-06
4.66556e-07
1.03296e-05
7.06085e-07
1.08834e-05
5.2504e-07
6.83968e-06
3.32321e-07
5.8742e-06
5.95211e-07
1.1037e-05
6.83381e-07
1.2274e-05
1.25256e-05
3.94907e-07
2.00436e-06
3.94956e-07
2.09896e-06
3.95028e-07
2.19795e-06
3.9512e-07
2.30146e-06
3.95232e-07
2.40969e-06
3.95364e-07
2.52279e-06
3.95518e-07
2.64094e-06
3.95694e-07
2.7643e-06
3.95892e-07
2.89304e-06
3.96113e-07
3.02733e-06
3.96356e-07
3.16732e-06
3.96621e-07
3.31318e-06
3.96907e-07
3.46506e-06
3.97213e-07
3.6231e-06
3.97538e-07
3.78744e-06
3.97879e-07
3.95818e-06
3.98232e-07
4.13542e-06
3.98592e-07
4.31921e-06
3.98951e-07
4.50956e-06
3.99299e-07
4.70646e-06
3.99621e-07
4.90982e-06
3.99897e-07
5.11948e-06
4.00101e-07
5.33521e-06
4.002e-07
5.55664e-06
4.00145e-07
5.78327e-06
3.99874e-07
6.01439e-06
3.99299e-07
6.24896e-06
3.98293e-07
6.48551e-06
3.96657e-07
6.722e-06
3.94077e-07
6.95567e-06
3.89323e-07
8.36921e-06
3.8236e-07
8.19907e-06
3.72806e-07
8.01489e-06
3.60461e-07
7.81451e-06
3.45956e-07
7.59469e-06
3.31299e-07
7.35056e-06
3.22613e-07
7.06879e-06
3.27914e-07
6.72272e-06
3.362e-07
6.20218e-06
2.85857e-07
5.50642e-06
8.01516e-08
5.02129e-06
-7.36245e-08
5.9173e-06
1.37115e-07
8.27658e-06
3.95926e-07
1.00708e-05
6.71823e-07
1.06075e-05
5.7016e-07
6.94135e-06
3.97669e-07
6.04669e-06
6.29057e-07
1.08056e-05
7.04018e-07
1.21991e-05
1.24784e-05
3.89169e-07
2.00433e-06
3.89217e-07
2.09891e-06
3.89288e-07
2.19788e-06
3.89378e-07
2.30137e-06
3.89486e-07
2.40958e-06
3.89613e-07
2.52267e-06
3.89758e-07
2.6408e-06
3.89923e-07
2.76414e-06
3.90107e-07
2.89286e-06
3.9031e-07
3.02713e-06
3.90531e-07
3.1671e-06
3.90769e-07
3.31294e-06
3.91022e-07
3.4648e-06
3.91289e-07
3.62283e-06
3.91568e-07
3.78716e-06
3.91853e-07
3.9579e-06
3.92141e-07
4.13513e-06
3.92423e-07
4.31893e-06
3.9269e-07
4.5093e-06
3.92929e-07
4.70622e-06
3.93123e-07
4.90962e-06
3.93248e-07
5.11936e-06
3.93274e-07
5.33518e-06
3.93163e-07
5.55675e-06
3.92862e-07
5.78357e-06
3.92303e-07
6.01495e-06
3.91393e-07
6.24987e-06
3.90001e-07
6.48691e-06
3.8793e-07
6.72407e-06
3.8488e-07
6.95872e-06
3.79578e-07
8.37451e-06
3.72173e-07
8.20647e-06
3.62406e-07
8.02465e-06
3.50203e-07
7.82671e-06
3.36209e-07
7.60868e-06
3.22127e-07
7.36464e-06
3.11874e-07
7.07904e-06
3.09486e-07
6.72511e-06
2.97745e-07
6.21393e-06
2.26812e-07
5.57735e-06
3.57634e-08
5.21234e-06
-1.02858e-07
6.05592e-06
6.00524e-08
8.11367e-06
3.15733e-07
9.81508e-06
6.4191e-07
1.02813e-05
6.20567e-07
6.96269e-06
4.57067e-07
6.21019e-06
6.54237e-07
1.06084e-05
7.18104e-07
1.21352e-05
1.24529e-05
3.83167e-07
2.00431e-06
3.83216e-07
2.09886e-06
3.83287e-07
2.19781e-06
3.83375e-07
2.30128e-06
3.83481e-07
2.40948e-06
3.83603e-07
2.52255e-06
3.83741e-07
2.64066e-06
3.83896e-07
2.76398e-06
3.84066e-07
2.89269e-06
3.84252e-07
3.02694e-06
3.84452e-07
3.1669e-06
3.84663e-07
3.31273e-06
3.84885e-07
3.46458e-06
3.85114e-07
3.62261e-06
3.85347e-07
3.78693e-06
3.85578e-07
3.95767e-06
3.85802e-07
4.13491e-06
3.86008e-07
4.31872e-06
3.86187e-07
4.50912e-06
3.86321e-07
4.70609e-06
3.86393e-07
4.90955e-06
3.86375e-07
5.11937e-06
3.86234e-07
5.33532e-06
3.85928e-07
5.55706e-06
3.85401e-07
5.7841e-06
3.84581e-07
6.01577e-06
3.83371e-07
6.25107e-06
3.81639e-07
6.48864e-06
3.7919e-07
6.72652e-06
3.75738e-07
6.96218e-06
3.69968e-07
8.38028e-06
3.62178e-07
8.21426e-06
3.52158e-07
8.03467e-06
3.39871e-07
7.839e-06
3.25797e-07
7.62275e-06
3.11129e-07
7.37931e-06
2.9778e-07
7.09239e-06
2.86541e-07
6.73635e-06
2.57971e-07
6.2425e-06
1.70833e-07
5.66449e-06
-1.20107e-08
5.39519e-06
-1.4579e-07
6.1897e-06
-2.66378e-08
7.99451e-06
2.31612e-07
9.55683e-06
6.15075e-07
9.89785e-06
6.68049e-07
6.90972e-06
5.12687e-07
6.36555e-06
6.67282e-07
1.04538e-05
7.19863e-07
1.20826e-05
1.24438e-05
3.76907e-07
2.00429e-06
3.76958e-07
2.09881e-06
3.77029e-07
2.19773e-06
3.77118e-07
2.30119e-06
3.77222e-07
2.40937e-06
3.77341e-07
2.52243e-06
3.77473e-07
2.64053e-06
3.77619e-07
2.76384e-06
3.77778e-07
2.89253e-06
3.77948e-07
3.02677e-06
3.78127e-07
3.16672e-06
3.78314e-07
3.31254e-06
3.78505e-07
3.46439e-06
3.78697e-07
3.62241e-06
3.78886e-07
3.78674e-06
3.79065e-07
3.95749e-06
3.79226e-07
4.13475e-06
3.7936e-07
4.31859e-06
3.79452e-07
4.50902e-06
3.79487e-07
4.70605e-06
3.79443e-07
4.9096e-06
3.7929e-07
5.11953e-06
3.78993e-07
5.33562e-06
3.78506e-07
5.55755e-06
3.77771e-07
5.78484e-06
3.76712e-07
6.01682e-06
3.75233e-07
6.25255e-06
3.73196e-07
6.49067e-06
3.7041e-07
6.7293e-06
3.66597e-07
6.96599e-06
3.60398e-07
8.38648e-06
3.52219e-07
8.22244e-06
3.41844e-07
8.04505e-06
3.29192e-07
7.85165e-06
3.14464e-07
7.63748e-06
2.9823e-07
7.39554e-06
2.8071e-07
7.10991e-06
2.60129e-07
6.75693e-06
2.16814e-07
6.28581e-06
1.15454e-07
5.76585e-06
-6.51606e-08
5.5758e-06
-2.00485e-07
6.32502e-06
-1.15657e-07
7.90969e-06
1.52564e-07
9.28861e-06
5.91025e-07
9.45939e-06
7.03398e-07
6.79734e-06
5.56373e-07
6.51258e-06
6.63732e-07
1.03465e-05
7.05445e-07
1.20409e-05
1.24444e-05
3.70395e-07
2.00426e-06
3.70448e-07
2.09876e-06
3.70522e-07
2.19766e-06
3.70612e-07
2.3011e-06
3.70716e-07
2.40927e-06
3.70833e-07
2.52231e-06
3.70962e-07
2.6404e-06
3.711e-07
2.7637e-06
3.71249e-07
2.89238e-06
3.71404e-07
3.02662e-06
3.71565e-07
3.16656e-06
3.71728e-07
3.31238e-06
3.7189e-07
3.46423e-06
3.72047e-07
3.62226e-06
3.72193e-07
3.78659e-06
3.72322e-07
3.95736e-06
3.72423e-07
4.13465e-06
3.72487e-07
4.31852e-06
3.72498e-07
4.50901e-06
3.72437e-07
4.70611e-06
3.72282e-07
4.90975e-06
3.72002e-07
5.11981e-06
3.71559e-07
5.33606e-06
3.70903e-07
5.5582e-06
3.69975e-07
5.78576e-06
3.68698e-07
6.0181e-06
3.66971e-07
6.25428e-06
3.64657e-07
6.49299e-06
3.61564e-07
6.7324e-06
3.57417e-07
6.97014e-06
3.50805e-07
8.39309e-06
3.42208e-07
8.23104e-06
3.31367e-07
8.05589e-06
3.18094e-07
7.86492e-06
3.02262e-07
7.65331e-06
2.83793e-07
7.41401e-06
2.61534e-07
7.13217e-06
2.31732e-07
6.78673e-06
1.75207e-07
6.34234e-06
6.10664e-08
5.87999e-06
-1.20656e-07
5.75752e-06
-2.58419e-07
6.46279e-06
-1.94079e-07
7.84535e-06
9.03498e-08
9.00418e-06
5.69501e-07
8.98024e-06
7.17859e-07
6.64898e-06
5.76911e-07
6.65352e-06
6.39928e-07
1.02835e-05
6.73273e-07
1.20076e-05
1.24483e-05
3.63635e-07
2.00423e-06
3.63691e-07
2.0987e-06
3.63768e-07
2.19758e-06
3.63863e-07
2.30101e-06
3.6397e-07
2.40916e-06
3.64088e-07
2.52219e-06
3.64215e-07
2.64027e-06
3.64348e-07
2.76357e-06
3.64488e-07
2.89224e-06
3.64631e-07
3.02647e-06
3.64774e-07
3.16642e-06
3.64915e-07
3.31224e-06
3.6505e-07
3.46409e-06
3.65173e-07
3.62213e-06
3.65279e-07
3.78649e-06
3.65359e-07
3.95728e-06
3.65404e-07
4.1346e-06
3.654e-07
4.31852e-06
3.65333e-07
4.50908e-06
3.65182e-07
4.70626e-06
3.64923e-07
4.91001e-06
3.64522e-07
5.12021e-06
3.63941e-07
5.33664e-06
3.63129e-07
5.55901e-06
3.62022e-07
5.78687e-06
3.60542e-07
6.01958e-06
3.58588e-07
6.25624e-06
3.56018e-07
6.49556e-06
3.5264e-07
6.73578e-06
3.4818e-07
6.9746e-06
3.41163e-07
8.40011e-06
3.32122e-07
8.24008e-06
3.20728e-07
8.06728e-06
3.06655e-07
7.879e-06
2.89445e-07
7.67052e-06
2.68407e-07
7.43505e-06
2.41327e-07
7.15925e-06
2.02967e-07
6.82509e-06
1.34899e-07
6.4104e-06
1.01598e-08
6.00473e-06
-1.72075e-07
5.93976e-06
-3.07592e-07
6.5983e-06
-2.48798e-07
7.78655e-06
5.31091e-08
8.70227e-06
5.48718e-07
8.48463e-06
7.06161e-07
6.49154e-06
5.68582e-07
6.7911e-06
5.96285e-07
1.02558e-05
6.25001e-07
1.19789e-05
1.24494e-05
3.56621e-07
2.0042e-06
3.56686e-07
2.09864e-06
3.56775e-07
2.19749e-06
3.5688e-07
2.3009e-06
3.56995e-07
2.40904e-06
3.57117e-07
2.52207e-06
3.57245e-07
2.64014e-06
3.57376e-07
2.76343e-06
3.57509e-07
2.89211e-06
3.57641e-07
3.02634e-06
3.57769e-07
3.16629e-06
3.57889e-07
3.31212e-06
3.57998e-07
3.46399e-06
3.58089e-07
3.62204e-06
3.58156e-07
3.78642e-06
3.5819e-07
3.95724e-06
3.58181e-07
4.13461e-06
3.58114e-07
4.31859e-06
3.57973e-07
4.50922e-06
3.57737e-07
4.7065e-06
3.57379e-07
4.91037e-06
3.56866e-07
5.12072e-06
3.56156e-07
5.33735e-06
3.55197e-07
5.55997e-06
3.53924e-07
5.78814e-06
3.52257e-07
6.02125e-06
3.50091e-07
6.2584e-06
3.47286e-07
6.49836e-06
3.43643e-07
6.73942e-06
3.38887e-07
6.97935e-06
3.31479e-07
8.40752e-06
3.2198e-07
8.24958e-06
3.09992e-07
8.07927e-06
2.95033e-07
7.89395e-06
2.76351e-07
7.68921e-06
2.52723e-07
7.45868e-06
2.21159e-07
7.19081e-06
1.75391e-07
6.87086e-06
9.79665e-08
6.48783e-06
-3.39546e-08
6.13665e-06
-2.12548e-07
6.11835e-06
-3.37715e-07
6.72347e-06
-2.71924e-07
7.72076e-06
4.26186e-08
8.38773e-06
5.25594e-07
8.00165e-06
6.68011e-07
6.34912e-06
5.32264e-07
6.92685e-06
5.37592e-07
1.02504e-05
5.65258e-07
1.19512e-05
1.24433e-05
3.49349e-07
2.00416e-06
3.49442e-07
2.09855e-06
3.49557e-07
2.19738e-06
3.49681e-07
2.30078e-06
3.49811e-07
2.40891e-06
3.49942e-07
2.52194e-06
3.50073e-07
2.64001e-06
3.50204e-07
2.7633e-06
3.50331e-07
2.89198e-06
3.50452e-07
3.02622e-06
3.50565e-07
3.16618e-06
3.50666e-07
3.31202e-06
3.50749e-07
3.4639e-06
3.5081e-07
3.62198e-06
3.5084e-07
3.78639e-06
3.5083e-07
3.95725e-06
3.5077e-07
4.13467e-06
3.50643e-07
4.31872e-06
3.50433e-07
4.50943e-06
3.50116e-07
4.70682e-06
3.49666e-07
4.91082e-06
3.49048e-07
5.12134e-06
3.48219e-07
5.33818e-06
3.47124e-07
5.56107e-06
3.45698e-07
5.78957e-06
3.43858e-07
6.02309e-06
3.41498e-07
6.26076e-06
3.38474e-07
6.50139e-06
3.34586e-07
6.74331e-06
3.29553e-07
6.98438e-06
3.21773e-07
8.4153e-06
3.11828e-07
8.25952e-06
2.99248e-07
8.09185e-06
2.83412e-07
7.90979e-06
2.63321e-07
7.7093e-06
2.37339e-07
7.48466e-06
2.01957e-07
7.2262e-06
1.50318e-07
6.9225e-06
6.62631e-08
6.57188e-06
-6.84259e-08
6.27134e-06
-2.37417e-07
6.28734e-06
-3.43875e-07
6.82993e-06
-2.63283e-07
7.64017e-06
5.42275e-08
8.07022e-06
4.97595e-07
7.55829e-06
6.08469e-07
6.23825e-06
4.74767e-07
7.06055e-06
4.72162e-07
1.0253e-05
5.00304e-07
1.1923e-05
1.24274e-05
3.41807e-07
2.00392e-06
3.42022e-07
2.09833e-06
3.42183e-07
2.19722e-06
3.42327e-07
2.30064e-06
3.42465e-07
2.40878e-06
3.42599e-07
2.5218e-06
3.4273e-07
2.63988e-06
3.42856e-07
2.76318e-06
3.42975e-07
2.89186e-06
3.43084e-07
3.02611e-06
3.43182e-07
3.16608e-06
3.43262e-07
3.31194e-06
3.43321e-07
3.46384e-06
3.43352e-07
3.62195e-06
3.43347e-07
3.7864e-06
3.43296e-07
3.95731e-06
3.43187e-07
4.13478e-06
3.43004e-07
4.3189e-06
3.42729e-07
4.50971e-06
3.42337e-07
4.70721e-06
3.41801e-07
4.91136e-06
3.41085e-07
5.12206e-06
3.40145e-07
5.33912e-06
3.38925e-07
5.56229e-06
3.37358e-07
5.79114e-06
3.35359e-07
6.02508e-06
3.3282e-07
6.2633e-06
3.29596e-07
6.50461e-06
3.25484e-07
6.74742e-06
3.20196e-07
6.98967e-06
3.12071e-07
8.42342e-06
3.01711e-07
8.26988e-06
2.88586e-07
8.10498e-06
2.71958e-07
7.92642e-06
2.50648e-07
7.73061e-06
2.22731e-07
7.51258e-06
1.84425e-07
7.2645e-06
1.28687e-07
6.97823e-06
4.10199e-08
6.65955e-06
-9.16991e-08
6.40406e-06
-2.45391e-07
6.44104e-06
-3.27196e-07
6.91173e-06
-2.29317e-07
7.54229e-06
7.95943e-08
7.76131e-06
4.6403e-07
7.17385e-06
5.36617e-07
6.16566e-06
4.06957e-07
7.19021e-06
4.03452e-07
1.02565e-05
4.36222e-07
1.18903e-05
1.24006e-05
3.34199e-07
2.00342e-06
3.3457e-07
2.09796e-06
3.34766e-07
2.19702e-06
3.34897e-07
2.3005e-06
3.35014e-07
2.40866e-06
3.3513e-07
2.52169e-06
3.35245e-07
2.63977e-06
3.35356e-07
2.76307e-06
3.35461e-07
2.89176e-06
3.35555e-07
3.02601e-06
3.35635e-07
3.166e-06
3.35695e-07
3.31188e-06
3.3573e-07
3.46381e-06
3.35733e-07
3.62195e-06
3.35694e-07
3.78643e-06
3.35604e-07
3.9574e-06
3.35449e-07
4.13494e-06
3.35213e-07
4.31914e-06
3.34876e-07
4.51004e-06
3.34415e-07
4.70767e-06
3.33799e-07
4.91197e-06
3.32992e-07
5.12286e-06
3.31948e-07
5.34017e-06
3.30613e-07
5.56362e-06
3.28916e-07
5.79283e-06
3.26772e-07
6.02723e-06
3.2407e-07
6.266e-06
3.20664e-07
6.50802e-06
3.16347e-07
6.75174e-06
3.10829e-07
6.99519e-06
3.02395e-07
8.43186e-06
2.91669e-07
8.28061e-06
2.78076e-07
8.11857e-06
2.60799e-07
7.94369e-06
2.38545e-07
7.75286e-06
2.09229e-07
7.54189e-06
1.69008e-07
7.30472e-06
1.11009e-07
7.03623e-06
2.2725e-08
6.74784e-06
-1.03737e-07
6.53052e-06
-2.38082e-07
6.57538e-06
-2.92935e-07
6.96658e-06
-1.79568e-07
7.42892e-06
1.10681e-07
7.47106e-06
4.29713e-07
6.85482e-06
4.62803e-07
6.13257e-06
3.40934e-07
7.31208e-06
3.43112e-07
1.02544e-05
3.7842e-07
1.1855e-05
1.23659e-05
3.26482e-07
2.00288e-06
3.26931e-07
2.09751e-06
3.27164e-07
2.19679e-06
3.27295e-07
2.30037e-06
3.27399e-07
2.40856e-06
3.27501e-07
2.52159e-06
3.27602e-07
2.63966e-06
3.277e-07
2.76297e-06
3.27791e-07
2.89167e-06
3.27871e-07
3.02594e-06
3.27934e-07
3.16593e-06
3.27975e-07
3.31183e-06
3.27988e-07
3.46379e-06
3.27964e-07
3.62197e-06
3.27895e-07
3.7865e-06
3.27768e-07
3.95752e-06
3.2757e-07
4.13513e-06
3.27285e-07
4.31942e-06
3.26891e-07
4.51044e-06
3.26364e-07
4.7082e-06
3.25673e-07
4.91266e-06
3.2478e-07
5.12375e-06
3.23641e-07
5.34131e-06
3.22198e-07
5.56506e-06
3.20382e-07
5.79465e-06
3.18104e-07
6.02951e-06
3.15253e-07
6.26885e-06
3.11681e-07
6.51159e-06
3.07179e-07
6.75624e-06
3.01457e-07
7.00091e-06
2.92753e-07
8.44056e-06
2.81722e-07
8.29164e-06
2.67764e-07
8.13253e-06
2.50015e-07
7.96144e-06
2.2714e-07
7.77574e-06
1.97012e-07
7.57202e-06
1.55902e-07
7.34583e-06
9.73992e-08
7.09474e-06
1.11949e-08
6.83404e-06
-1.05664e-07
6.64738e-06
-2.18715e-07
6.68843e-06
-2.47696e-07
6.99557e-06
-1.23161e-07
7.30439e-06
1.41768e-07
7.20613e-06
3.97758e-07
6.59883e-06
4.00821e-07
6.12951e-06
2.85282e-07
7.42762e-06
2.93454e-07
1.02462e-05
3.29591e-07
1.18188e-05
1.2325e-05
3.18644e-07
2.00247e-06
3.19055e-07
2.0971e-06
3.19302e-07
2.19654e-06
3.19453e-07
2.30022e-06
3.19569e-07
2.40844e-06
3.19677e-07
2.52148e-06
3.1978e-07
2.63956e-06
3.19876e-07
2.76287e-06
3.19962e-07
2.89158e-06
3.20034e-07
3.02586e-06
3.20086e-07
3.16588e-06
3.20112e-07
3.31181e-06
3.20105e-07
3.4638e-06
3.20058e-07
3.62202e-06
3.19961e-07
3.7866e-06
3.198e-07
3.95768e-06
3.19563e-07
4.13537e-06
3.19231e-07
4.31975e-06
3.18784e-07
4.51088e-06
3.18195e-07
4.70878e-06
3.17434e-07
4.91343e-06
3.16462e-07
5.12473e-06
3.15233e-07
5.34254e-06
3.1369e-07
5.56661e-06
3.11761e-07
5.79658e-06
3.0936e-07
6.03191e-06
3.06372e-07
6.27184e-06
3.02648e-07
6.51532e-06
2.9798e-07
6.7609e-06
2.92078e-07
7.00681e-06
2.83148e-07
8.44949e-06
2.7188e-07
8.30291e-06
2.57666e-07
8.14674e-06
2.3964e-07
7.97947e-06
2.1648e-07
7.7989e-06
1.86121e-07
7.60238e-06
1.4509e-07
7.38686e-06
8.76483e-08
7.15218e-06
5.76089e-09
6.91593e-06
-9.92208e-08
6.75236e-06
-1.90831e-07
6.78004e-06
-1.97234e-07
7.00197e-06
-6.67671e-08
7.17392e-06
1.69825e-07
6.96954e-06
3.6909e-07
6.39956e-06
3.48801e-07
6.1498e-06
2.4254e-07
7.53388e-06
2.55121e-07
1.02336e-05
2.89925e-07
1.1784e-05
1.22801e-05
3.10666e-07
2.00217e-06
3.11014e-07
2.09675e-06
3.11265e-07
2.19629e-06
3.11437e-07
2.30005e-06
3.11572e-07
2.4083e-06
3.11692e-07
2.52136e-06
3.11803e-07
2.63945e-06
3.11904e-07
2.76277e-06
3.1199e-07
2.8915e-06
3.12058e-07
3.0258e-06
3.12102e-07
3.16584e-06
3.12116e-07
3.31179e-06
3.12094e-07
3.46382e-06
3.12026e-07
3.62208e-06
3.11903e-07
3.78672e-06
3.11712e-07
3.95787e-06
3.11438e-07
4.13565e-06
3.11063e-07
4.32013e-06
3.10565e-07
4.51138e-06
3.09919e-07
4.70943e-06
3.09092e-07
4.91425e-06
3.08045e-07
5.12577e-06
3.06731e-07
5.34385e-06
3.05092e-07
5.56825e-06
3.03059e-07
5.79861e-06
3.00541e-07
6.03443e-06
2.97426e-07
6.27496e-06
2.93563e-07
6.51918e-06
2.88747e-07
6.76572e-06
2.82689e-07
7.01287e-06
2.73573e-07
8.45861e-06
2.62134e-07
8.31435e-06
2.47777e-07
8.1611e-06
2.29664e-07
7.99758e-06
2.0654e-07
7.82202e-06
1.76484e-07
7.63244e-06
1.36379e-07
7.42697e-06
8.13119e-08
7.20725e-06
5.46924e-09
6.99177e-06
-8.63163e-08
6.84415e-06
-1.5752e-07
6.85124e-06
-1.45497e-07
6.98995e-06
-1.39021e-08