/*--------------------------------*- C++ -*----------------------------------*\
  =========                 |
  \\      /  F ield         | OpenFOAM: The Open Source CFD Toolbox
   \\    /   O peration     | Website:  https://openfoam.org
    \\  /    A nd           | Version:  9
     \\/     M anipulation  |
\*---------------------------------------------------------------------------*/
FoamFile
{
    format      ascii;
    class       volScalarField;
    location    "0.06";
    object      rAU;
}
// * * * * * * * * * * * * * * * * * * * * * * * * * * * * * * * * * * * * * //

dimensions      [-1 3 1 0 0 0 0];

internalField   nonuniform List<scalar> 
5000
(
1.51601e-05
1.82309e-05
1.84894e-05
1.87336e-05
1.8964e-05
1.91815e-05
1.93869e-05
1.95809e-05
1.97643e-05
1.9938e-05
2.01028e-05
2.02595e-05
2.04089e-05
2.05517e-05
2.06888e-05
2.08209e-05
2.09488e-05
2.10734e-05
2.11953e-05
2.13155e-05
2.14348e-05
2.1554e-05
2.1674e-05
2.17959e-05
2.19208e-05
2.20499e-05
2.21847e-05
2.23275e-05
2.24812e-05
2.26602e-05
2.294e-05
2.31604e-05
2.3401e-05
2.36809e-05
2.40155e-05
2.44105e-05
2.47446e-05
2.44553e-05
2.3139e-05
2.11376e-05
3.96247e-05
4.02497e-05
1.85957e-05
1.80807e-05
1.72168e-05
3.71799e-05
3.78125e-05
1.71435e-05
1.75282e-05
1.73387e-05
1.91541e-05
2.43193e-05
2.47678e-05
2.51933e-05
2.55962e-05
2.59772e-05
2.63369e-05
2.66764e-05
2.69964e-05
2.72979e-05
2.75821e-05
2.78498e-05
2.81023e-05
2.83404e-05
2.85654e-05
2.87782e-05
2.89799e-05
2.91715e-05
2.93542e-05
2.95289e-05
2.96966e-05
2.98585e-05
3.00154e-05
3.01686e-05
3.0319e-05
3.04679e-05
3.06166e-05
3.07669e-05
3.09211e-05
3.11008e-05
3.1426e-05
3.15884e-05
3.17527e-05
3.19414e-05
3.21633e-05
3.24195e-05
3.2633e-05
3.24699e-05
3.1635e-05
3.04295e-05
3.87502e-05
3.96357e-05
2.86085e-05
2.77751e-05
2.69348e-05
3.79571e-05
3.87231e-05
2.71598e-05
2.73158e-05
2.70093e-05
1.91563e-05
2.43213e-05
2.47699e-05
2.51953e-05
2.55982e-05
2.59791e-05
2.63388e-05
2.66781e-05
2.6998e-05
2.72995e-05
2.75835e-05
2.78511e-05
2.81034e-05
2.83414e-05
2.85662e-05
2.87789e-05
2.89804e-05
2.91719e-05
2.93544e-05
2.95288e-05
2.96964e-05
2.9858e-05
3.00148e-05
3.01677e-05
3.03179e-05
3.04665e-05
3.0615e-05
3.07651e-05
3.09191e-05
3.10986e-05
3.14242e-05
3.15863e-05
3.17504e-05
3.19387e-05
3.21588e-05
3.24095e-05
3.26228e-05
3.25214e-05
3.18569e-05
3.10578e-05
3.78317e-05
3.86451e-05
2.89654e-05
2.79652e-05
2.72061e-05
3.699e-05
3.78507e-05
2.74321e-05
2.74688e-05
2.71306e-05
1.91597e-05
2.43246e-05
2.4773e-05
2.51985e-05
2.56013e-05
2.59821e-05
2.63417e-05
2.6681e-05
2.70008e-05
2.73022e-05
2.75861e-05
2.78536e-05
2.81057e-05
2.83436e-05
2.85683e-05
2.87808e-05
2.89822e-05
2.91735e-05
2.93558e-05
2.95302e-05
2.96976e-05
2.98591e-05
3.00157e-05
3.01685e-05
3.03185e-05
3.04671e-05
3.06156e-05
3.07658e-05
3.09199e-05
3.10996e-05
3.14259e-05
3.15885e-05
3.17532e-05
3.19421e-05
3.2162e-05
3.24104e-05
3.26302e-05
3.26046e-05
3.21058e-05
3.17065e-05
3.7171e-05
3.76188e-05
2.93063e-05
2.81702e-05
2.75143e-05
3.61229e-05
3.70558e-05
2.77206e-05
2.7623e-05
2.7281e-05
1.91645e-05
2.4329e-05
2.47774e-05
2.52028e-05
2.56056e-05
2.59864e-05
2.63459e-05
2.66851e-05
2.70048e-05
2.7306e-05
2.75898e-05
2.78572e-05
2.81093e-05
2.8347e-05
2.85716e-05
2.87839e-05
2.89852e-05
2.91764e-05
2.93586e-05
2.95329e-05
2.97002e-05
2.98616e-05
3.00181e-05
3.01709e-05
3.0321e-05
3.04696e-05
3.06182e-05
3.07686e-05
3.09232e-05
3.11033e-05
3.14303e-05
3.15937e-05
3.17596e-05
3.19496e-05
3.21697e-05
3.2417e-05
3.26422e-05
3.26869e-05
3.23473e-05
3.23004e-05
3.67108e-05
3.67333e-05
2.95996e-05
2.83859e-05
2.78171e-05
3.5391e-05
3.63772e-05
2.79965e-05
2.77721e-05
2.744e-05
1.91705e-05
2.43346e-05
2.47831e-05
2.52084e-05
2.56111e-05
2.59918e-05
2.63513e-05
2.66904e-05
2.701e-05
2.73111e-05
2.75948e-05
2.78621e-05
2.8114e-05
2.83516e-05
2.85761e-05
2.87883e-05
2.89895e-05
2.91806e-05
2.93627e-05
2.95369e-05
2.97041e-05
2.98655e-05
3.0022e-05
3.01748e-05
3.0325e-05
3.04738e-05
3.06227e-05
3.07734e-05
3.09284e-05
3.11092e-05
3.14365e-05
3.1601e-05
3.1768e-05
3.19588e-05
3.21787e-05
3.24247e-05
3.26535e-05
3.27565e-05
3.25758e-05
3.28104e-05
3.63659e-05
3.6041e-05
2.98893e-05
2.86065e-05
2.80955e-05
3.47866e-05
3.58146e-05
2.82471e-05
2.7909e-05
2.7594e-05
1.91779e-05
2.43415e-05
2.479e-05
2.52152e-05
2.56179e-05
2.59985e-05
2.63579e-05
2.66969e-05
2.70164e-05
2.73174e-05
2.7601e-05
2.78681e-05
2.81199e-05
2.83574e-05
2.85817e-05
2.87939e-05
2.89949e-05
2.9186e-05
2.9368e-05
2.95421e-05
2.97093e-05
2.98707e-05
3.00273e-05
3.01801e-05
3.03304e-05
3.04794e-05
3.06286e-05
3.07797e-05
3.09353e-05
3.11167e-05
3.1444e-05
3.16093e-05
3.1777e-05
3.19679e-05
3.21862e-05
3.24295e-05
3.26622e-05
3.28122e-05
3.2787e-05
3.32341e-05
3.60821e-05
3.55187e-05
3.0185e-05
2.88279e-05
2.83469e-05
3.42871e-05
3.52953e-05
2.84381e-05
2.80309e-05
2.77343e-05
1.91867e-05
2.43497e-05
2.4798e-05
2.52233e-05
2.56258e-05
2.60064e-05
2.63657e-05
2.67045e-05
2.70239e-05
2.73248e-05
2.76082e-05
2.78753e-05
2.81269e-05
2.83643e-05
2.85885e-05
2.88005e-05
2.90015e-05
2.91924e-05
2.93744e-05
2.95485e-05
2.97156e-05
2.9877e-05
3.00336e-05
3.01865e-05
3.03369e-05
3.04861e-05
3.06356e-05
3.07871e-05
3.09431e-05
3.1125e-05
3.14518e-05
3.16176e-05
3.17855e-05
3.19756e-05
3.21914e-05
3.24312e-05
3.2667e-05
3.28554e-05
3.29754e-05
3.35753e-05
3.58276e-05
3.513e-05
3.04872e-05
2.90487e-05
2.85762e-05
3.38701e-05
3.48624e-05
2.86112e-05
2.81384e-05
2.78578e-05
1.91966e-05
2.43589e-05
2.48072e-05
2.52324e-05
2.56349e-05
2.60153e-05
2.63745e-05
2.67132e-05
2.70325e-05
2.73332e-05
2.76165e-05
2.78834e-05
2.81349e-05
2.83722e-05
2.85962e-05
2.88081e-05
2.9009e-05
2.91998e-05
2.93817e-05
2.95557e-05
2.97228e-05
2.98842e-05
3.00408e-05
3.01937e-05
3.03443e-05
3.04936e-05
3.06433e-05
3.07951e-05
3.09514e-05
3.11336e-05
3.14594e-05
3.16253e-05
3.17925e-05
3.19811e-05
3.21935e-05
3.24293e-05
3.26685e-05
3.28888e-05
3.3134e-05
3.38331e-05
3.55882e-05
3.48216e-05
3.07918e-05
2.92707e-05
2.87881e-05
3.35172e-05
3.45136e-05
2.87785e-05
2.82233e-05
2.7963e-05
1.92076e-05
2.43692e-05
2.48174e-05
2.52425e-05
2.56449e-05
2.60252e-05
2.63842e-05
2.67228e-05
2.70419e-05
2.73425e-05
2.76257e-05
2.78924e-05
2.81438e-05
2.83809e-05
2.86048e-05
2.88165e-05
2.90172e-05
2.9208e-05
2.93897e-05
2.95636e-05
2.97307e-05
2.9892e-05
3.00486e-05
3.02016e-05
3.03522e-05
3.05016e-05
3.06514e-05
3.08034e-05
3.09598e-05
3.1142e-05
3.14664e-05
3.16318e-05
3.1798e-05
3.19843e-05
3.21931e-05
3.24248e-05
3.26679e-05
3.29162e-05
3.32596e-05
3.40097e-05
3.53796e-05
3.45568e-05
3.10706e-05
2.94951e-05
2.89878e-05
3.32174e-05
3.42261e-05
2.89488e-05
2.82914e-05
2.80501e-05
1.92196e-05
2.43803e-05
2.48285e-05
2.52534e-05
2.56557e-05
2.60359e-05
2.63948e-05
2.67332e-05
2.70522e-05
2.73526e-05
2.76356e-05
2.79021e-05
2.81533e-05
2.83902e-05
2.86139e-05
2.88255e-05
2.90261e-05
2.92167e-05
2.93983e-05
2.95721e-05
2.97391e-05
2.99003e-05
3.00568e-05
3.02098e-05
3.03603e-05
3.05098e-05
3.06596e-05
3.08116e-05
3.0968e-05
3.115e-05
3.14726e-05
3.16372e-05
3.18018e-05
3.19856e-05
3.2191e-05
3.24192e-05
3.26669e-05
3.29399e-05
3.33529e-05
3.4113e-05
3.51854e-05
3.43452e-05
3.13348e-05
2.97241e-05
2.91839e-05
3.29678e-05
3.39742e-05
2.91157e-05
2.83443e-05
2.81183e-05
1.92324e-05
2.43921e-05
2.48402e-05
2.52651e-05
2.56672e-05
2.60473e-05
2.6406e-05
2.67443e-05
2.7063e-05
2.73633e-05
2.76461e-05
2.79124e-05
2.81634e-05
2.84001e-05
2.86237e-05
2.88351e-05
2.90355e-05
2.92259e-05
2.94074e-05
2.9581e-05
2.97479e-05
2.99089e-05
3.00653e-05
3.02182e-05
3.03687e-05
3.0518e-05
3.06677e-05
3.08195e-05
3.09757e-05
3.11573e-05
3.14779e-05
3.16414e-05
3.18044e-05
3.19858e-05
3.21881e-05
3.2414e-05
3.26668e-05
3.29611e-05
3.34183e-05
3.41628e-05
3.50057e-05
3.41743e-05
3.15764e-05
2.99613e-05
2.93863e-05
3.27741e-05
3.37397e-05
2.92727e-05
2.83851e-05
2.81676e-05
1.9246e-05
2.44047e-05
2.48527e-05
2.52775e-05
2.56794e-05
2.60593e-05
2.64179e-05
2.67559e-05
2.70745e-05
2.73745e-05
2.76571e-05
2.79232e-05
2.8174e-05
2.84105e-05
2.86338e-05
2.8845e-05
2.90452e-05
2.92354e-05
2.94167e-05
2.95902e-05
2.97569e-05
2.99178e-05
3.0074e-05
3.02267e-05
3.0377e-05
3.05262e-05
3.06757e-05
3.08273e-05
3.09831e-05
3.11641e-05
3.14824e-05
3.16449e-05
3.18061e-05
3.19853e-05
3.21853e-05
3.24101e-05
3.26681e-05
3.29795e-05
3.34584e-05
3.4171e-05
3.48399e-05
3.40295e-05
3.17861e-05
3.02146e-05
2.96201e-05
3.26461e-05
3.35159e-05
2.94095e-05
2.84183e-05
2.82003e-05
1.92602e-05
2.44179e-05
2.48658e-05
2.52904e-05
2.56922e-05
2.60719e-05
2.64303e-05
2.67682e-05
2.70865e-05
2.73863e-05
2.76686e-05
2.79345e-05
2.8185e-05
2.84213e-05
2.86444e-05
2.88554e-05
2.90553e-05
2.92453e-05
2.94264e-05
2.95996e-05
2.97661e-05
2.99268e-05
3.00828e-05
3.02353e-05
3.03853e-05
3.05342e-05
3.06834e-05
3.08347e-05
3.099e-05
3.11704e-05
3.14864e-05
3.16476e-05
3.18073e-05
3.19845e-05
3.21829e-05
3.24074e-05
3.26701e-05
3.29946e-05
3.34805e-05
3.41536e-05
3.46895e-05
3.3898e-05
3.19566e-05
3.0475e-05
2.98942e-05
3.25897e-05
3.33116e-05
2.95322e-05
2.84501e-05
2.82216e-05
1.92752e-05
2.44317e-05
2.48795e-05
2.5304e-05
2.57057e-05
2.60852e-05
2.64433e-05
2.67809e-05
2.7099e-05
2.73986e-05
2.76806e-05
2.79463e-05
2.81965e-05
2.84325e-05
2.86553e-05
2.8866e-05
2.90657e-05
2.92555e-05
2.94363e-05
2.96093e-05
2.97755e-05
2.99359e-05
3.00917e-05
3.02438e-05
3.03936e-05
3.05422e-05
3.06911e-05
3.08419e-05
3.09967e-05
3.11762e-05
3.14899e-05
3.16499e-05
3.18082e-05
3.19837e-05
3.21809e-05
3.24055e-05
3.26718e-05
3.30051e-05
3.34884e-05
3.41188e-05
3.45335e-05
3.37517e-05
3.20501e-05
3.07108e-05
3.02156e-05
3.26026e-05
3.31181e-05
2.96332e-05
2.84839e-05
2.8238e-05
1.92909e-05
2.44462e-05
2.48939e-05
2.53182e-05
2.57197e-05
2.6099e-05
2.64569e-05
2.67942e-05
2.71121e-05
2.74113e-05
2.76931e-05
2.79584e-05
2.82084e-05
2.84441e-05
2.86666e-05
2.88771e-05
2.90765e-05
2.92659e-05
2.94464e-05
2.96191e-05
2.9785e-05
2.99452e-05
3.01006e-05
3.02525e-05
3.04019e-05
3.05501e-05
3.06985e-05
3.08488e-05
3.1003e-05
3.11818e-05
3.14931e-05
3.16519e-05
3.18087e-05
3.19828e-05
3.21788e-05
3.24035e-05
3.2672e-05
3.30098e-05
3.34839e-05
3.40703e-05
3.43524e-05
3.35721e-05
3.20693e-05
3.09176e-05
3.05826e-05
3.26778e-05
3.29475e-05
2.97136e-05
2.85228e-05
2.82557e-05
1.93073e-05
2.44613e-05
2.49089e-05
2.5333e-05
2.57343e-05
2.61133e-05
2.6471e-05
2.68081e-05
2.71256e-05
2.74246e-05
2.77061e-05
2.79711e-05
2.82207e-05
2.84561e-05
2.86783e-05
2.88884e-05
2.90875e-05
2.92766e-05
2.94568e-05
2.96292e-05
2.97947e-05
2.99546e-05
3.01097e-05
3.02612e-05
3.04102e-05
3.0558e-05
3.07059e-05
3.08557e-05
3.10091e-05
3.1187e-05
3.14959e-05
3.16535e-05
3.1809e-05
3.19816e-05
3.21764e-05
3.24005e-05
3.26693e-05
3.30075e-05
3.34674e-05
3.40087e-05
3.41726e-05
3.33916e-05
3.20733e-05
3.11366e-05
3.09847e-05
3.28005e-05
3.28059e-05
2.97786e-05
2.85694e-05
2.82795e-05
1.93243e-05
2.44771e-05
2.49245e-05
2.53484e-05
2.57495e-05
2.61282e-05
2.64856e-05
2.68224e-05
2.71396e-05
2.74383e-05
2.77194e-05
2.79841e-05
2.82334e-05
2.84684e-05
2.86903e-05
2.89001e-05
2.90988e-05
2.92875e-05
2.94674e-05
2.96394e-05
2.98046e-05
2.99641e-05
3.01188e-05
3.02699e-05
3.04185e-05
3.05658e-05
3.07132e-05
3.08623e-05
3.10151e-05
3.1192e-05
3.14984e-05
3.16548e-05
3.18088e-05
3.19799e-05
3.21731e-05
3.23959e-05
3.2663e-05
3.29976e-05
3.34389e-05
3.3934e-05
3.39953e-05
3.32217e-05
3.20852e-05
3.13727e-05
3.14044e-05
3.29509e-05
3.26942e-05
2.98341e-05
2.86243e-05
2.83123e-05
1.93421e-05
2.44935e-05
2.49407e-05
2.53644e-05
2.57652e-05
2.61437e-05
2.65008e-05
2.68372e-05
2.71541e-05
2.74524e-05
2.77332e-05
2.79975e-05
2.82465e-05
2.84811e-05
2.87026e-05
2.8912e-05
2.91103e-05
2.92987e-05
2.94782e-05
2.96499e-05
2.98147e-05
2.99737e-05
3.0128e-05
3.02786e-05
3.04268e-05
3.05735e-05
3.07204e-05
3.08688e-05
3.10208e-05
3.11968e-05
3.15006e-05
3.16557e-05
3.18082e-05
3.19775e-05
3.21687e-05
3.23891e-05
3.26526e-05
3.29798e-05
3.33988e-05
3.38126e-05
3.3791e-05
3.30759e-05
3.21228e-05
3.16263e-05
3.18207e-05
3.31078e-05
3.26085e-05
2.98857e-05
2.86864e-05
2.83542e-05
1.93607e-05
2.45105e-05
2.49576e-05
2.5381e-05
2.57815e-05
2.61596e-05
2.65164e-05
2.68525e-05
2.7169e-05
2.7467e-05
2.77474e-05
2.80113e-05
2.82599e-05
2.84941e-05
2.87152e-05
2.89242e-05
2.91221e-05
2.93101e-05
2.94892e-05
2.96604e-05
2.98248e-05
2.99834e-05
3.01373e-05
3.02874e-05
3.0435e-05
3.05812e-05
3.07275e-05
3.08752e-05
3.10264e-05
3.12014e-05
3.15025e-05
3.16563e-05
3.1807e-05
3.19743e-05
3.21629e-05
3.23799e-05
3.26378e-05
3.29546e-05
3.33482e-05
3.36845e-05
3.36029e-05
3.29643e-05
3.21949e-05
3.18927e-05
3.22128e-05
3.32526e-05
3.25421e-05
2.99369e-05
2.87512e-05
2.84038e-05
1.93806e-05
2.45283e-05
2.49748e-05
2.53979e-05
2.57981e-05
2.6176e-05
2.65324e-05
2.68681e-05
2.71843e-05
2.74819e-05
2.77619e-05
2.80254e-05
2.82736e-05
2.85074e-05
2.87281e-05
2.89366e-05
2.91342e-05
2.93217e-05
2.95004e-05
2.96711e-05
2.98351e-05
2.99932e-05
3.01466e-05
3.02962e-05
3.04432e-05
3.05889e-05
3.07344e-05
3.08815e-05
3.10317e-05
3.12056e-05
3.15041e-05
3.16564e-05
3.18053e-05
3.19702e-05
3.21556e-05
3.23683e-05
3.2619e-05
3.29228e-05
3.3289e-05
3.35602e-05
3.34427e-05
3.28913e-05
3.23009e-05
3.21633e-05
3.25639e-05
3.3372e-05
3.24872e-05
2.99905e-05
2.88185e-05
2.84584e-05
1.94011e-05
2.45463e-05
2.49922e-05
2.5415e-05
2.58149e-05
2.61925e-05
2.65486e-05
2.68841e-05
2.71999e-05
2.74971e-05
2.77767e-05
2.80398e-05
2.82875e-05
2.8521e-05
2.87412e-05
2.89493e-05
2.91464e-05
2.93335e-05
2.95117e-05
2.9682e-05
2.98454e-05
3.00031e-05
3.01559e-05
3.0305e-05
3.04515e-05
3.05965e-05
3.07413e-05
3.08876e-05
3.10369e-05
3.12097e-05
3.15054e-05
3.16561e-05
3.1803e-05
3.19652e-05
3.21471e-05
3.23545e-05
3.25968e-05
3.28858e-05
3.32236e-05
3.34436e-05
3.33126e-05
3.28557e-05
3.24344e-05
3.24282e-05
3.28624e-05
3.34547e-05
3.24351e-05
3.00405e-05
2.88822e-05
2.85157e-05
1.94219e-05
2.45653e-05
2.50103e-05
2.54326e-05
2.58322e-05
2.62095e-05
2.65653e-05
2.69004e-05
2.72158e-05
2.75126e-05
2.77918e-05
2.80545e-05
2.83018e-05
2.85348e-05
2.87545e-05
2.89622e-05
2.91588e-05
2.93454e-05
2.95231e-05
2.96929e-05
2.98559e-05
3.0013e-05
3.01653e-05
3.03138e-05
3.04596e-05
3.0604e-05
3.07481e-05
3.08935e-05
3.10419e-05
3.12136e-05
3.15064e-05
3.16554e-05
3.18002e-05
3.19596e-05
3.21374e-05
3.2339e-05
3.2572e-05
3.28451e-05
3.31549e-05
3.33371e-05
3.32121e-05
3.28529e-05
3.2586e-05
3.26789e-05
3.31083e-05
3.35016e-05
3.23802e-05
3.00864e-05
2.89396e-05
2.85716e-05
1.94426e-05
2.45847e-05
2.50291e-05
2.54509e-05
2.58501e-05
2.6227e-05
2.65824e-05
2.69171e-05
2.72321e-05
2.75285e-05
2.78072e-05
2.80694e-05
2.83163e-05
2.85488e-05
2.87681e-05
2.89752e-05
2.91713e-05
2.93575e-05
2.95347e-05
2.9704e-05
2.98664e-05
3.00229e-05
3.01747e-05
3.03226e-05
3.04678e-05
3.06114e-05
3.07548e-05
3.08994e-05
3.10468e-05
3.12172e-05
3.15072e-05
3.16545e-05
3.1797e-05
3.19533e-05
3.21269e-05
3.23222e-05
3.25453e-05
3.28023e-05
3.30853e-05
3.32426e-05
3.31388e-05
3.28765e-05
3.2747e-05
3.29096e-05
3.33033e-05
3.35189e-05
3.23227e-05
3.01266e-05
2.89896e-05
2.86254e-05
1.94635e-05
2.46044e-05
2.50483e-05
2.54696e-05
2.58684e-05
2.62449e-05
2.65999e-05
2.69342e-05
2.72488e-05
2.75446e-05
2.78229e-05
2.80847e-05
2.8331e-05
2.8563e-05
2.87818e-05
2.89884e-05
2.91841e-05
2.93697e-05
2.95463e-05
2.97151e-05
2.98769e-05
3.00329e-05
3.01841e-05
3.03314e-05
3.04759e-05
3.06189e-05
3.07615e-05
3.09051e-05
3.10515e-05
3.12207e-05
3.15078e-05
3.16533e-05
3.17934e-05
3.19466e-05
3.21158e-05
3.23046e-05
3.25179e-05
3.2759e-05
3.30173e-05
3.31609e-05
3.30896e-05
3.29203e-05
3.29101e-05
3.31173e-05
3.34533e-05
3.35111e-05
3.22627e-05
3.01606e-05
2.90326e-05
2.86773e-05
1.94848e-05
2.46243e-05
2.50677e-05
2.54886e-05
2.5887e-05
2.62631e-05
2.66177e-05
2.69515e-05
2.72656e-05
2.75611e-05
2.78388e-05
2.81001e-05
2.83459e-05
2.85774e-05
2.87957e-05
2.90018e-05
2.91969e-05
2.9382e-05
2.95581e-05
2.97263e-05
2.98876e-05
3.0043e-05
3.01935e-05
3.03402e-05
3.0484e-05
3.06262e-05
3.0768e-05
3.09108e-05
3.10561e-05
3.12241e-05
3.15082e-05
3.1652e-05
3.17897e-05
3.19397e-05
3.21045e-05
3.22869e-05
3.24905e-05
3.27166e-05
3.29529e-05
3.3092e-05
3.30611e-05
3.29788e-05
3.30285e-05
3.32591e-05
3.3566e-05
3.34849e-05
3.22011e-05
3.01887e-05
2.907e-05
2.87283e-05
1.95063e-05
2.46444e-05
2.50875e-05
2.55079e-05
2.59059e-05
2.62816e-05
2.66357e-05
2.69691e-05
2.72828e-05
2.75777e-05
2.7855e-05
2.81157e-05
2.8361e-05
2.8592e-05
2.88097e-05
2.90153e-05
2.92098e-05
2.93944e-05
2.95699e-05
2.97375e-05
2.98983e-05
3.0053e-05
3.02029e-05
3.03489e-05
3.04921e-05
3.06336e-05
3.07746e-05
3.09164e-05
3.10607e-05
3.12274e-05
3.15085e-05
3.16505e-05
3.17859e-05
3.19328e-05
3.20932e-05
3.22694e-05
3.24639e-05
3.26763e-05
3.28937e-05
3.30359e-05
3.305e-05
3.30475e-05
3.31448e-05
3.33826e-05
3.36489e-05
3.34461e-05
3.21388e-05
3.02121e-05
2.91042e-05
2.87808e-05
1.95282e-05
2.46647e-05
2.51075e-05
2.55275e-05
2.59251e-05
2.63003e-05
2.6654e-05
2.6987e-05
2.73001e-05
2.75946e-05
2.78713e-05
2.81315e-05
2.83763e-05
2.86067e-05
2.88239e-05
2.90289e-05
2.92229e-05
2.94069e-05
2.95818e-05
2.97489e-05
2.9909e-05
3.00631e-05
3.02124e-05
3.03577e-05
3.05002e-05
3.06409e-05
3.0781e-05
3.09219e-05
3.10651e-05
3.12306e-05
3.15088e-05
3.1649e-05
3.17821e-05
3.1926e-05
3.20822e-05
3.22527e-05
3.24388e-05
3.26391e-05
3.28408e-05
3.29918e-05
3.30528e-05
3.31135e-05
3.32479e-05
3.34898e-05
3.37088e-05
3.33995e-05
3.20771e-05
3.02323e-05
2.91384e-05
2.88375e-05
1.95503e-05
2.46851e-05
2.51277e-05
2.55474e-05
2.59445e-05
2.63193e-05
2.66726e-05
2.7005e-05
2.73177e-05
2.76116e-05
2.78878e-05
2.81475e-05
2.83917e-05
2.86216e-05
2.88382e-05
2.90427e-05
2.92361e-05
2.94194e-05
2.95938e-05
2.97602e-05
2.99197e-05
3.00732e-05
3.02218e-05
3.03665e-05
3.05082e-05
3.06481e-05
3.07874e-05
3.09274e-05
3.10695e-05
3.12337e-05
3.1509e-05
3.16475e-05
3.17784e-05
3.19194e-05
3.20718e-05
3.2237e-05
3.24158e-05
3.26057e-05
3.27951e-05
3.29569e-05
3.30646e-05
3.3156e-05
3.33187e-05
3.35832e-05
3.37512e-05
3.33484e-05
3.20172e-05
3.02506e-05
2.91754e-05
2.89015e-05
1.95726e-05
2.47058e-05
2.51481e-05
2.55674e-05
2.59641e-05
2.63385e-05
2.66913e-05
2.70233e-05
2.73354e-05
2.76288e-05
2.79045e-05
2.81636e-05
2.84073e-05
2.86366e-05
2.88526e-05
2.90565e-05
2.92493e-05
2.9432e-05
2.96058e-05
2.97716e-05
2.99305e-05
3.00833e-05
3.02312e-05
3.03752e-05
3.05162e-05
3.06553e-05
3.07937e-05
3.09328e-05
3.10738e-05
3.12368e-05
3.15091e-05
3.1646e-05
3.17748e-05
3.19132e-05
3.20621e-05
3.22227e-05
3.2395e-05
3.25765e-05
3.2757e-05
3.29168e-05
3.30461e-05
3.31806e-05
3.33883e-05
3.36653e-05
3.37806e-05
3.32952e-05
3.196e-05
3.02689e-05
2.92181e-05
2.89755e-05
1.95953e-05
2.47268e-05
2.51687e-05
2.55876e-05
2.59839e-05
2.63578e-05
2.67101e-05
2.70416e-05
2.73533e-05
2.76461e-05
2.79213e-05
2.81798e-05
2.84229e-05
2.86516e-05
2.88671e-05
2.90704e-05
2.92625e-05
2.94447e-05
2.96178e-05
2.9783e-05
2.99412e-05
3.00934e-05
3.02406e-05
3.03839e-05
3.05241e-05
3.06624e-05
3.08e-05
3.09381e-05
3.10781e-05
3.12398e-05
3.15092e-05
3.16445e-05
3.17714e-05
3.19073e-05
3.20532e-05
3.22097e-05
3.23768e-05
3.25519e-05
3.27265e-05
3.28878e-05
3.30364e-05
3.32098e-05
3.34572e-05
3.37385e-05
3.38001e-05
3.32417e-05
3.19069e-05
3.02888e-05
2.92692e-05
2.90622e-05
1.96181e-05
2.47478e-05
2.51895e-05
2.5608e-05
2.60038e-05
2.63773e-05
2.67291e-05
2.70601e-05
2.73713e-05
2.76636e-05
2.79382e-05
2.81962e-05
2.84387e-05
2.86668e-05
2.88816e-05
2.90843e-05
2.92758e-05
2.94574e-05
2.96299e-05
2.97944e-05
2.99519e-05
3.01035e-05
3.025e-05
3.03925e-05
3.0532e-05
3.06695e-05
3.08062e-05
3.09433e-05
3.10822e-05
3.12427e-05
3.15092e-05
3.1643e-05
3.17682e-05
3.19019e-05
3.2045e-05
3.21982e-05
3.23611e-05
3.25316e-05
3.27031e-05
3.28691e-05
3.30376e-05
3.3246e-05
3.35257e-05
3.38044e-05
3.38119e-05
3.3189e-05
3.18588e-05
3.02897e-05
2.93101e-05
2.91636e-05
1.96411e-05
2.4769e-05
2.52104e-05
2.56286e-05
2.60239e-05
2.63969e-05
2.67482e-05
2.70787e-05
2.73893e-05
2.76811e-05
2.79551e-05
2.82125e-05
2.84544e-05
2.8682e-05
2.88962e-05
2.90982e-05
2.92892e-05
2.94701e-05
2.96419e-05
2.98058e-05
2.99626e-05
3.01135e-05
3.02593e-05
3.0401e-05
3.05397e-05
3.06764e-05
3.08123e-05
3.09484e-05
3.10863e-05
3.12456e-05
3.15092e-05
3.16416e-05
3.1765e-05
3.18968e-05
3.20375e-05
3.21879e-05
3.23478e-05
3.25153e-05
3.26863e-05
3.28592e-05
3.3048e-05
3.32878e-05
3.35932e-05
3.38635e-05
3.38173e-05
3.31379e-05
3.17612e-05
3.02168e-05
2.93062e-05
2.92506e-05
1.96641e-05
2.47903e-05
2.52314e-05
2.56492e-05
2.60441e-05
2.64166e-05
2.67674e-05
2.70974e-05
2.74075e-05
2.76987e-05
2.79721e-05
2.8229e-05
2.84703e-05
2.86972e-05
2.89108e-05
2.91122e-05
2.93025e-05
2.94827e-05
2.96539e-05
2.98171e-05
2.99733e-05
3.01234e-05
3.02685e-05
3.04095e-05
3.05474e-05
3.06833e-05
3.08182e-05
3.09534e-05
3.10902e-05
3.12483e-05
3.15091e-05
3.16401e-05
3.1762e-05
3.18919e-05
3.20307e-05
3.21789e-05
3.23365e-05
3.25025e-05
3.26749e-05
3.28565e-05
3.30653e-05
3.33334e-05
3.36586e-05
3.39156e-05
3.38167e-05
3.30628e-05
3.16397e-05
3.01414e-05
2.9309e-05
2.93492e-05
1.96871e-05
2.48116e-05
2.52524e-05
2.56698e-05
2.60643e-05
2.64363e-05
2.67866e-05
2.71161e-05
2.74256e-05
2.77163e-05
2.79892e-05
2.82454e-05
2.84861e-05
2.87124e-05
2.89254e-05
2.91261e-05
2.93158e-05
2.94954e-05
2.96659e-05
2.98284e-05
2.99839e-05
3.01333e-05
3.02776e-05
3.04179e-05
3.0555e-05
3.069e-05
3.0824e-05
3.09583e-05
3.1094e-05
3.12508e-05
3.15089e-05
3.16385e-05
3.17589e-05
3.18872e-05
3.20242e-05
3.21707e-05
3.23269e-05
3.24925e-05
3.26678e-05
3.28592e-05
3.30873e-05
3.33801e-05
3.372e-05
3.39594e-05
3.38096e-05
3.29365e-05
3.14732e-05
3.00709e-05
2.93304e-05
2.94672e-05
1.97101e-05
2.48328e-05
2.52734e-05
2.56905e-05
2.60845e-05
2.64561e-05
2.68059e-05
2.71348e-05
2.74438e-05
2.77339e-05
2.80062e-05
2.82618e-05
2.85019e-05
2.87276e-05
2.89399e-05
2.914e-05
2.9329e-05
2.95079e-05
2.96778e-05
2.98396e-05
2.99944e-05
3.01431e-05
3.02866e-05
3.04261e-05
3.05624e-05
3.06965e-05
3.08296e-05
3.09629e-05
3.10975e-05
3.12532e-05
3.15084e-05
3.16368e-05
3.17558e-05
3.18826e-05
3.20181e-05
3.21631e-05
3.23184e-05
3.24845e-05
3.26636e-05
3.28651e-05
3.31113e-05
3.34254e-05
3.37747e-05
3.39927e-05
3.37292e-05
3.27443e-05
3.13096e-05
3.00132e-05
2.9376e-05
2.96061e-05
1.97331e-05
2.4854e-05
2.52944e-05
2.57111e-05
2.61047e-05
2.64758e-05
2.68251e-05
2.71535e-05
2.74619e-05
2.77515e-05
2.80232e-05
2.82782e-05
2.85177e-05
2.87427e-05
2.89544e-05
2.91539e-05
2.93422e-05
2.95204e-05
2.96896e-05
2.98507e-05
3.00047e-05
3.01527e-05
3.02955e-05
3.04341e-05
3.05696e-05
3.07029e-05
3.08351e-05
3.09673e-05
3.11008e-05
3.12553e-05
3.15077e-05
3.16349e-05
3.17525e-05
3.18778e-05
3.20119e-05
3.21558e-05
3.23105e-05
3.24776e-05
3.26609e-05
3.28722e-05
3.31346e-05
3.3466e-05
3.38195e-05
3.3969e-05
3.35699e-05
3.25279e-05
3.11571e-05
2.99759e-05
2.945e-05
2.9766e-05
1.97559e-05
2.48751e-05
2.53152e-05
2.57316e-05
2.61248e-05
2.64954e-05
2.68442e-05
2.71721e-05
2.748e-05
2.7769e-05
2.80401e-05
2.82945e-05
2.85334e-05
2.87577e-05
2.89688e-05
2.91676e-05
2.93552e-05
2.95328e-05
2.97013e-05
2.98616e-05
3.0015e-05
3.01621e-05
3.03042e-05
3.0442e-05
3.05766e-05
3.0709e-05
3.08403e-05
3.09715e-05
3.11039e-05
3.12571e-05
3.15068e-05
3.16327e-05
3.17489e-05
3.18728e-05
3.20056e-05
3.21484e-05
3.23027e-05
3.24708e-05
3.26583e-05
3.28777e-05
3.31465e-05
3.34747e-05
3.37853e-05
3.38391e-05
3.33603e-05
3.23163e-05
3.10242e-05
2.99653e-05
2.95544e-05
2.99458e-05
1.97787e-05
2.4896e-05
2.5336e-05
2.5752e-05
2.61448e-05
2.6515e-05
2.68633e-05
2.71906e-05
2.7498e-05
2.77864e-05
2.80569e-05
2.83107e-05
2.85489e-05
2.87727e-05
2.89831e-05
2.91812e-05
2.93682e-05
2.9545e-05
2.97128e-05
2.98724e-05
3.0025e-05
3.01714e-05
3.03127e-05
3.04497e-05
3.05834e-05
3.07149e-05
3.08452e-05
3.09754e-05
3.11067e-05
3.12586e-05
3.15056e-05
3.16301e-05
3.1745e-05
3.18675e-05
3.19988e-05
3.21405e-05
3.22944e-05
3.24634e-05
3.26503e-05
3.2857e-05
3.31098e-05
3.34193e-05
3.36852e-05
3.36721e-05
3.31447e-05
3.21191e-05
3.09184e-05
2.99859e-05
2.96889e-05
3.01426e-05
1.98013e-05
2.49168e-05
2.53565e-05
2.57723e-05
2.61647e-05
2.65344e-05
2.68822e-05
2.7209e-05
2.75158e-05
2.78036e-05
2.80735e-05
2.83268e-05
2.85643e-05
2.87874e-05
2.89972e-05
2.91946e-05
2.93809e-05
2.95571e-05
2.97241e-05
2.98831e-05
3.00349e-05
3.01805e-05
3.0321e-05
3.04571e-05
3.059e-05
3.07206e-05
3.08499e-05
3.0979e-05
3.11091e-05
3.12599e-05
3.15041e-05
3.16273e-05
3.17407e-05
3.18617e-05
3.19916e-05
3.2132e-05
3.22851e-05
3.24546e-05
3.26286e-05
3.28189e-05
3.30616e-05
3.33463e-05
3.3564e-05
3.34909e-05
3.29331e-05
3.19451e-05
3.08455e-05
3.00398e-05
2.98505e-05
3.03513e-05
1.98237e-05
2.49374e-05
2.53769e-05
2.57924e-05
2.61844e-05
2.65536e-05
2.69009e-05
2.72272e-05
2.75334e-05
2.78207e-05
2.809e-05
2.83426e-05
2.85796e-05
2.8802e-05
2.90111e-05
2.92079e-05
2.93935e-05
2.95689e-05
2.97353e-05
2.98935e-05
3.00445e-05
3.01894e-05
3.0329e-05
3.04644e-05
3.05964e-05
3.0726e-05
3.08543e-05
3.09824e-05
3.11113e-05
3.12607e-05
3.15023e-05
3.1624e-05
3.17359e-05
3.18553e-05
3.19836e-05
3.21226e-05
3.22745e-05
3.24342e-05
3.25939e-05
3.27747e-05
3.30033e-05
3.32584e-05
3.34276e-05
3.33042e-05
3.2735e-05
3.18011e-05
3.08092e-05
3.01267e-05
3.00338e-05
3.0565e-05
1.98459e-05
2.49578e-05
2.53971e-05
2.58122e-05
2.62038e-05
2.65726e-05
2.69194e-05
2.72452e-05
2.75509e-05
2.78375e-05
2.81063e-05
2.83583e-05
2.85946e-05
2.88164e-05
2.90249e-05
2.9221e-05
2.94059e-05
2.95806e-05
2.97462e-05
2.99037e-05
3.0054e-05
3.0198e-05
3.03369e-05
3.04713e-05
3.06024e-05
3.07311e-05
3.08584e-05
3.09854e-05
3.11132e-05
3.12613e-05
3.15001e-05
3.16205e-05
3.17307e-05
3.18485e-05
3.19749e-05
3.2112e-05
3.22624e-05
3.24096e-05
3.25542e-05
3.27257e-05
3.29367e-05
3.31596e-05
3.32823e-05
3.31206e-05
3.2558e-05
3.1692e-05
3.08106e-05
3.0244e-05
3.02319e-05
3.07757e-05
1.98678e-05
2.49779e-05
2.5417e-05
2.58318e-05
2.6223e-05
2.65914e-05
2.69377e-05
2.72629e-05
2.75681e-05
2.78542e-05
2.81224e-05
2.83737e-05
2.86094e-05
2.88306e-05
2.90384e-05
2.92338e-05
2.9418e-05
2.95921e-05
2.97569e-05
2.99136e-05
3.00632e-05
3.02065e-05
3.03445e-05
3.04781e-05
3.06083e-05
3.0736e-05
3.08623e-05
3.09882e-05
3.11148e-05
3.12616e-05
3.14977e-05
3.16165e-05
3.17251e-05
3.1841e-05
3.19654e-05
3.21004e-05
3.22439e-05
3.23789e-05
3.25128e-05
3.26733e-05
3.28645e-05
3.30542e-05
3.3135e-05
3.29476e-05
3.24074e-05
3.16197e-05
3.08486e-05
3.03874e-05
3.0438e-05
3.0975e-05
1.98894e-05
2.49978e-05
2.54366e-05
2.58511e-05
2.6242e-05
2.66099e-05
2.69557e-05
2.72805e-05
2.75851e-05
2.78706e-05
2.81382e-05
2.83889e-05
2.8624e-05
2.88446e-05
2.90517e-05
2.92464e-05
2.94299e-05
2.96033e-05
2.97674e-05
2.99234e-05
3.00722e-05
3.02147e-05
3.03518e-05
3.04846e-05
3.06139e-05
3.07407e-05
3.0866e-05
3.09908e-05
3.11161e-05
3.12615e-05
3.1495e-05
3.16123e-05
3.17191e-05
3.1833e-05
3.19552e-05
3.20876e-05
3.2221e-05
3.23443e-05
3.24707e-05
3.26191e-05
3.27896e-05
3.2947e-05
3.29921e-05
3.27911e-05
3.22863e-05
3.15837e-05
3.092e-05
3.0552e-05
3.06467e-05
3.11566e-05
1.99108e-05
2.50173e-05
2.5456e-05
2.58702e-05
2.62607e-05
2.66281e-05
2.69735e-05
2.72977e-05
2.76018e-05
2.78867e-05
2.81537e-05
2.84039e-05
2.86384e-05
2.88583e-05
2.90647e-05
2.92588e-05
2.94416e-05
2.96143e-05
2.97777e-05
2.99329e-05
3.00809e-05
3.02226e-05
3.0359e-05
3.04909e-05
3.06193e-05
3.07451e-05
3.08694e-05
3.09931e-05
3.11172e-05
3.12613e-05
3.14922e-05
3.16078e-05
3.17128e-05
3.18245e-05
3.19442e-05
3.20737e-05
3.21979e-05
3.23103e-05
3.2429e-05
3.2565e-05
3.27148e-05
3.28425e-05
3.2859e-05
3.26555e-05
3.21957e-05
3.15814e-05
3.10204e-05
3.07333e-05
3.08552e-05
3.13172e-05
1.99319e-05
2.50366e-05
2.5475e-05
2.58889e-05
2.62791e-05
2.66461e-05
2.6991e-05
2.73147e-05
2.76182e-05
2.79026e-05
2.81691e-05
2.84186e-05
2.86525e-05
2.88717e-05
2.90775e-05
2.9271e-05
2.94531e-05
2.9625e-05
2.97877e-05
2.99422e-05
3.00895e-05
3.02304e-05
3.03659e-05
3.0497e-05
3.06245e-05
3.07494e-05
3.08726e-05
3.09952e-05
3.11181e-05
3.12609e-05
3.14892e-05
3.16031e-05
3.17062e-05
3.18157e-05
3.19328e-05
3.2059e-05
3.21748e-05
3.22775e-05
3.23888e-05
3.25127e-05
3.26432e-05
3.27449e-05
3.27403e-05
3.25434e-05
3.2135e-05
3.16092e-05
3.11449e-05
3.09276e-05
3.10641e-05
3.14578e-05
1.99526e-05
2.50556e-05
2.54938e-05
2.59074e-05
2.62972e-05
2.66638e-05
2.70083e-05
2.73314e-05
2.76344e-05
2.79183e-05
2.81841e-05
2.84331e-05
2.86663e-05
2.8885e-05
2.90901e-05
2.92829e-05
2.94644e-05
2.96356e-05
2.97976e-05
2.99513e-05
3.00978e-05
3.0238e-05
3.03727e-05
3.05029e-05
3.06295e-05
3.07535e-05
3.08757e-05
3.09972e-05
3.11189e-05
3.12603e-05
3.14861e-05
3.15984e-05
3.16995e-05
3.18067e-05
3.19209e-05
3.20412e-05
3.21497e-05
3.22468e-05
3.2351e-05
3.24638e-05
3.25771e-05
3.26574e-05
3.26392e-05
3.24563e-05
3.21025e-05
3.16632e-05
3.1289e-05
3.11326e-05
3.12761e-05
3.15834e-05
1.99731e-05
2.50743e-05
2.55123e-05
2.59257e-05
2.63151e-05
2.66813e-05
2.70253e-05
2.73479e-05
2.76504e-05
2.79337e-05
2.8199e-05
2.84473e-05
2.868e-05
2.8898e-05
2.91025e-05
2.92946e-05
2.94754e-05
2.96459e-05
2.98072e-05
2.99603e-05
3.0106e-05
3.02454e-05
3.03793e-05
3.05087e-05
3.06344e-05
3.07575e-05
3.08787e-05
3.09991e-05
3.11196e-05
3.12597e-05
3.1483e-05
3.15936e-05
3.16928e-05
3.17976e-05
3.1909e-05
3.20233e-05
3.21255e-05
3.22185e-05
3.23166e-05
3.24197e-05
3.25186e-05
3.25827e-05
3.25577e-05
3.23944e-05
3.20963e-05
3.17395e-05
3.1449e-05
3.13473e-05
3.14806e-05
3.16867e-05
1.99934e-05
2.50929e-05
2.55307e-05
2.59437e-05
2.63327e-05
2.66985e-05
2.7042e-05
2.73642e-05
2.76661e-05
2.79489e-05
2.82136e-05
2.84614e-05
2.86934e-05
2.89108e-05
2.91146e-05
2.93061e-05
2.94862e-05
2.96561e-05
2.98167e-05
2.9969e-05
3.0114e-05
3.02526e-05
3.03858e-05
3.05144e-05
3.06392e-05
3.07614e-05
3.08816e-05
3.1001e-05
3.11203e-05
3.12591e-05
3.148e-05
3.1589e-05
3.16862e-05
3.17887e-05
3.18971e-05
3.20063e-05
3.21036e-05
3.21932e-05
3.22862e-05
3.23814e-05
3.24691e-05
3.25221e-05
3.24964e-05
3.2357e-05
3.21141e-05
3.1835e-05
3.1622e-05
3.15712e-05
3.16466e-05
3.17414e-05
2.00137e-05
2.51114e-05
2.55489e-05
2.59616e-05
2.63502e-05
2.67156e-05
2.70586e-05
2.73802e-05
2.76816e-05
2.79638e-05
2.82279e-05
2.84751e-05
2.87066e-05
2.89233e-05
2.91266e-05
2.93174e-05
2.94969e-05
2.96661e-05