/*--------------------------------*- C++ -*----------------------------------*\
  =========                 |
  \\      /  F ield         | OpenFOAM: The Open Source CFD Toolbox
   \\    /   O peration     | Website:  https://openfoam.org
    \\  /    A nd           | Version:  9
     \\/     M anipulation  |
\*---------------------------------------------------------------------------*/
FoamFile
{
    format      ascii;
    class       volVectorField;
    location    "0.06";
    object      U;
}
// * * * * * * * * * * * * * * * * * * * * * * * * * * * * * * * * * * * * * //

dimensions      [0 1 -1 0 0 0 0];

internalField   nonuniform List<vector> 
5000
(
(-1.81228e-05 0 -0.00159173)
(-1.26337e-05 0 -0.00416923)
(-1.20949e-05 0 -0.00682087)
(-1.0208e-05 0 -0.00956925)
(-6.57966e-06 0 -0.0124284)
(-1.5376e-06 0 -0.0154217)
(4.76598e-06 0 -0.0185745)
(1.22536e-05 0 -0.0219132)
(2.08933e-05 0 -0.0254643)
(3.07048e-05 0 -0.0292527)
(4.17553e-05 0 -0.0333019)
(5.41602e-05 0 -0.0376352)
(6.80764e-05 0 -0.0422769)
(8.36991e-05 0 -0.0472538)
(0.000101264 0 -0.0525954)
(0.00012105 0 -0.058335)
(0.000143385 0 -0.0645097)
(0.000168659 0 -0.0711608)
(0.000197334 0 -0.0783344)
(0.000229963 0 -0.086082)
(0.000267214 0 -0.0944612)
(0.000309914 0 -0.103537)
(0.000359127 0 -0.113382)
(0.000416284 0 -0.124082)
(0.000483421 0 -0.135739)
(0.000563574 0 -0.148477)
(0.000661488 0 -0.162468)
(0.000784644 0 -0.17796)
(0.000944231 0 -0.195333)
(0.00115452 0 -0.21516)
(0.00144167 0 -0.24013)
(0.00183046 0 -0.270466)
(0.00234565 0 -0.304405)
(0.00301777 0 -0.343212)
(0.00375943 0 -0.388751)
(0.00390344 0 -0.441493)
(0.00169087 0 -0.485896)
(-0.00165765 0 -0.451607)
(0.0169585 0 -0.281137)
(0.0537301 0 0.0160866)
(0.282057 0 -1.67911)
(-0.167676 0 -1.76695)
(-0.0216483 0 0.524246)
(0.0171091 0 0.640985)
(0.0436461 0 0.846418)
(0.185479 0 -1.52762)
(-0.180767 0 -1.62095)
(-0.0377962 0 0.891453)
(-0.0139102 0 0.785031)
(0.014499 0 0.819437)
(-0.000144799 0 -0.00161338)
(-0.000134863 0 -0.00416993)
(-0.000132723 0 -0.00681939)
(-0.000127945 0 -0.00957889)
(-0.000119411 0 -0.0124487)
(-0.000107242 0 -0.0154522)
(-9.16657e-05 0 -0.0186147)
(-7.27166e-05 0 -0.021963)
(-5.04196e-05 0 -0.0255237)
(-2.47069e-05 0 -0.0293219)
(4.59505e-06 0 -0.0333814)
(3.77727e-05 0 -0.0377258)
(7.5237e-05 0 -0.0423796)
(0.000117503 0 -0.0473694)
(0.000165189 0 -0.0527251)
(0.000219018 0 -0.0584801)
(0.000279848 0 -0.0646715)
(0.000348694 0 -0.071341)
(0.000426767 0 -0.0785349)
(0.000515531 0 -0.0863048)
(0.000616779 0 -0.0947088)
(0.000732755 0 -0.103812)
(0.000866349 0 -0.113689)
(0.00102143 0 -0.124425)
(0.00120337 0 -0.136123)
(0.00141998 0 -0.148911)
(0.00168285 0 -0.162963)
(0.00200904 0 -0.178531)
(0.00242244 0 -0.196)
(0.00295251 0 -0.215945)
(0.00366516 0 -0.241056)
(0.00460459 0 -0.27161)
(0.00577384 0 -0.305833)
(0.00715829 0 -0.344965)
(0.00850036 0 -0.390659)
(0.00879904 0 -0.442744)
(0.00650632 0 -0.485981)
(0.00416004 0 -0.458856)
(0.0433886 0 -0.313174)
(0.136532 0 -0.104435)
(0.355613 0 -1.50747)
(-0.149902 0 -1.59201)
(-0.0544879 0 0.445416)
(0.0469001 0 0.608195)
(0.101009 0 0.77633)
(0.265028 0 -1.37087)
(-0.244135 0 -1.46683)
(-0.0782326 0 0.818845)
(-0.0309712 0 0.7604)
(0.0378088 0 0.79775)
(-0.000377391 0 -0.00163789)
(-0.000370755 0 -0.00418764)
(-0.000362958 0 -0.00684069)
(-0.000352679 0 -0.00960837)
(-0.000338307 0 -0.0124866)
(-0.000319402 0 -0.0154974)
(-0.000295885 0 -0.0186664)
(-0.000267526 0 -0.0220203)
(-0.000234166 0 -0.0255859)
(-0.000195574 0 -0.0293886)
(-0.00015141 0 -0.0334525)
(-0.000101198 0 -0.0378013)
(-4.43088e-05 0 -0.0424597)
(2.0033e-05 0 -0.0474544)
(9.27522e-05 0 -0.0528155)
(0.000174908 0 -0.0585762)
(0.000267752 0 -0.064774)
(0.000372762 0 -0.0714505)
(0.000491702 0 -0.0786523)
(0.000626722 0 -0.0864312)
(0.000780468 0 -0.0948455)
(0.000956246 0 -0.103961)
(0.00115828 0 -0.113852)
(0.00139212 0 -0.124606)
(0.0016654 0 -0.136327)
(0.00198888 0 -0.149146)
(0.002378 0 -0.163239)
(0.00285455 0 -0.178864)
(0.00344732 0 -0.196408)
(0.0041906 0 -0.216439)
(0.00516908 0 -0.241632)
(0.00641779 0 -0.272311)
(0.00788534 0 -0.306663)
(0.00949264 0 -0.345801)
(0.0108988 0 -0.391002)
(0.01107 0 -0.441433)
(0.00941566 0 -0.48378)
(0.00752764 0 -0.469769)
(0.0460134 0 -0.36156)
(0.161485 0 -0.258878)
(0.337461 0 -1.39406)
(-0.115493 0 -1.43756)
(-0.0644322 0 0.345556)
(0.0647537 0 0.547514)
(0.133119 0 0.676059)
(0.26578 0 -1.23317)
(-0.227528 0 -1.33496)
(-0.0958746 0 0.725869)
(-0.0319954 0 0.712567)
(0.052468 0 0.753179)
(-0.000730476 0 -0.00165191)
(-0.000726484 0 -0.00421126)
(-0.000713511 0 -0.00687111)
(-0.000698348 0 -0.00964781)
(-0.000678881 0 -0.0125353)
(-0.000654166 0 -0.0155551)
(-0.000623899 0 -0.0187323)
(-0.000587681 0 -0.0220939)
(-0.000545204 0 -0.0256665)
(-0.000496099 0 -0.0294757)
(-0.000439878 0 -0.0335458)
(-0.000375902 0 -0.0379008)
(-0.000303376 0 -0.0425654)
(-0.000221335 0 -0.0475666)
(-0.000128649 0 -0.0529344)
(-2.40196e-05 0 -0.0587024)
(9.40676e-05 0 -0.0649081)
(0.000227388 0 -0.0715933)
(0.000378057 0 -0.0788046)
(0.000548642 0 -0.0865943)
(0.000742274 0 -0.095021)
(0.000962827 0 -0.104151)
(0.00121518 0 -0.114059)
(0.00150568 0 -0.124835)
(0.00184287 0 -0.136583)
(0.00223856 0 -0.149438)
(0.00270919 0 -0.163581)
(0.00327706 0 -0.17927)
(0.00396977 0 -0.196896)
(0.00481804 0 -0.217015)
(0.00590226 0 -0.242281)
(0.0072259 0 -0.273052)
(0.00867422 0 -0.307452)
(0.0100931 0 -0.346447)
(0.0110737 0 -0.391)
(0.010427 0 -0.439935)
(0.00811016 0 -0.482163)
(0.00525028 0 -0.481711)
(0.0340952 0 -0.406736)
(0.152503 0 -0.384718)
(0.298306 0 -1.30317)
(-0.0969191 0 -1.29447)
(-0.0621719 0 0.261969)
(0.0704592 0 0.483233)
(0.143428 0 0.583796)
(0.246191 0 -1.11069)
(-0.196824 0 -1.21822)
(-0.0972671 0 0.643333)
(-0.0226642 0 0.660707)
(0.0593883 0 0.701232)
(-0.00121295 0 -0.00166728)
(-0.00121084 0 -0.00424258)
(-0.0011939 0 -0.00691426)
(-0.00117525 0 -0.00970205)
(-0.0011521 0 -0.012601)
(-0.00112299 0 -0.0156324)
(-0.00108755 0 -0.0188211)
(-0.00104527 0 -0.0221938)
(-0.000995763 0 -0.0257771)
(-0.000938586 0 -0.0295966)
(-0.000873167 0 -0.033677)
(-0.000798776 0 -0.0380423)
(-0.000714518 0 -0.0427176)
(-0.000619326 0 -0.04773)
(-0.000511966 0 -0.0531096)
(-0.000391028 0 -0.0588901)
(-0.000254889 0 -0.0651091)
(-0.000101651 0 -0.0718088)
(7.09316e-05 0 -0.0790358)
(0.00026554 0 -0.0868429)
(0.000485401 0 -0.095289)
(0.000734434 0 -0.104441)
(0.00101749 0 -0.114375)
(0.0013408 0 -0.125181)
(0.00171258 0 -0.136966)
(0.00214392 0 -0.149867)
(0.00264964 0 -0.164068)
(0.00324891 0 -0.17983)
(0.00396324 0 -0.19754)
(0.00481321 0 -0.217745)
(0.00585526 0 -0.243071)
(0.00704562 0 -0.273889)
(0.0082064 0 -0.308255)
(0.00909379 0 -0.34699)
(0.00924032 0 -0.390815)
(0.00737127 0 -0.438431)
(0.00353725 0 -0.48026)
(0.000602647 0 -0.491001)
(0.0196979 0 -0.443405)
(0.133806 0 -0.480368)
(0.251441 0 -1.22471)
(-0.08928 0 -1.1634)
(-0.0571259 0 0.193526)
(0.0673194 0 0.427278)
(0.140121 0 0.511087)
(0.218902 0 -0.994001)
(-0.165053 0 -1.10827)
(-0.0885449 0 0.576434)
(-0.00921842 0 0.613473)
(0.0615622 0 0.652322)
(-0.0018282 0 -0.00168339)
(-0.00182787 0 -0.00427791)
(-0.00180816 0 -0.00696428)
(-0.00178733 0 -0.00976493)
(-0.00176177 0 -0.0126766)
(-0.00172971 0 -0.0157213)
(-0.00169074 0 -0.0189233)
(-0.00164432 0 -0.0223091)
(-0.00159001 0 -0.0259051)
(-0.00152734 0 -0.0297372)
(-0.0014557 0 -0.0338301)
(-0.00137437 0 -0.0382081)
(-0.00128241 0 -0.0428965)
(-0.00117874 0 -0.0479226)
(-0.00106213 0 -0.0533166)
(-0.000931188 0 -0.0591124)
(-0.000784314 0 -0.0653477)
(-0.000619678 0 -0.0720647)
(-0.000435137 0 -0.0793107)
(-0.000228175 0 -0.0871382)
(4.16093e-06 0 -0.0956068)
(0.000265349 0 -0.104784)
(0.000559597 0 -0.114747)
(0.000892186 0 -0.125585)
(0.00126997 0 -0.137409)
(0.00170182 0 -0.150357)
(0.00219883 0 -0.164613)
(0.00277424 0 -0.180441)
(0.00343985 0 -0.198224)
(0.00420209 0 -0.21849)
(0.00507943 0 -0.243837)
(0.00597268 0 -0.274624)
(0.00665229 0 -0.308838)
(0.00679163 0 -0.347152)
(0.00588384 0 -0.390066)
(0.0028705 0 -0.436316)
(-0.00275417 0 -0.477577)
(-0.00462735 0 -0.497385)
(0.00697348 0 -0.476285)
(0.114688 0 -0.558433)
(0.202859 0 -1.15688)
(-0.0900709 0 -1.0488)
(-0.0544912 0 0.130618)
(0.059326 0 0.376893)
(0.129919 0 0.451434)
(0.190001 0 -0.888351)
(-0.137837 0 -1.00854)
(-0.0744999 0 0.519038)
(0.00474622 0 0.571616)
(0.0617717 0 0.609236)
(-0.00257791 0 -0.00170039)
(-0.00257945 0 -0.00431544)
(-0.00255761 0 -0.00701805)
(-0.00253541 0 -0.00983256)
(-0.00250839 0 -0.0127577)
(-0.00247454 0 -0.0158161)
(-0.0024335 0 -0.0190321)
(-0.0023847 0 -0.0224315)
(-0.00232769 0 -0.0260408)
(-0.00226199 0 -0.0298859)
(-0.00218703 0 -0.0339917)
(-0.00210208 0 -0.0383827)
(-0.00200628 0 -0.0430845)
(-0.00189862 0 -0.0481245)
(-0.00177796 0 -0.0535329)
(-0.00164303 0 -0.0593438)
(-0.00149241 0 -0.065595)
(-0.00132449 0 -0.0723289)
(-0.00113742 0 -0.0795928)
(-0.000929107 0 -0.0874395)
(-0.000697176 0 -0.0959287)
(-0.000438996 0 -0.105128)
(-0.000151523 0 -0.115116)
(0.000168952 0 -0.125982)
(0.000527073 0 -0.137838)
(0.000928457 0 -0.150822)
(0.001379 0 -0.16512)
(0.00188419 0 -0.180993)
(0.0024444 0 -0.198818)
(0.00305035 0 -0.219101)
(0.00367546 0 -0.244402)
(0.00416626 0 -0.275051)
(0.00426371 0 -0.308963)
(0.00359669 0 -0.346672)
(0.00163879 0 -0.388475)
(-0.00228449 0 -0.433294)
(-0.00940934 0 -0.474287)
(-0.00988452 0 -0.501505)
(-0.00327723 0 -0.507775)
(0.0958641 0 -0.622489)
(0.154539 0 -1.09617)
(-0.096914 0 -0.953102)
(-0.0562083 0 0.0695986)
(0.0485674 0 0.328445)
(0.116828 0 0.399309)
(0.162663 0 -0.797457)
(-0.117327 0 -0.922151)
(-0.0585265 0 0.465509)
(0.0176347 0 0.534415)
(0.0612389 0 0.571643)
(-0.00345922 0 -0.00171801)
(-0.00346291 0 -0.00435425)
(-0.00343916 0 -0.00707375)
(-0.00341608 0 -0.0099026)
(-0.00338831 0 -0.0128414)
(-0.00335356 0 -0.0159136)
(-0.00331159 0 -0.0191435)
(-0.00326183 0 -0.0225564)
(-0.00320387 0 -0.0261788)
(-0.00313725 0 -0.0300365)
(-0.00306145 0 -0.0341547)
(-0.00297582 0 -0.0385582)
(-0.0028796 0 -0.0432724)
(-0.00277191 0 -0.0483251)
(-0.00265177 0 -0.0537466)
(-0.00251814 0 -0.0595708)
(-0.0023699 0 -0.0658359)
(-0.00220578 0 -0.0725841)
(-0.00202438 0 -0.0798627)
(-0.0018242 0 -0.0877247)
(-0.00160371 0 -0.0962299)
(-0.00136143 0 -0.105446)
(-0.0010958 0 -0.115451)
(-0.000805109 0 -0.126336)
(-0.00048743 0 -0.138211)
(-0.000140998 0 -0.151216)
(0.000234273 0 -0.165534)
(0.000635677 0 -0.181425)
(0.00105184 0 -0.199252)
(0.00145924 0 -0.219501)
(0.00178585 0 -0.244682)
(0.00183396 0 -0.275085)
(0.00134174 0 -0.308556)
(-5.81197e-05 0 -0.345527)
(-0.00289813 0 -0.386149)
(-0.00738072 0 -0.429623)
(-0.0152582 0 -0.470759)
(-0.0146927 0 -0.504474)
(-0.010668 0 -0.536562)
(0.0758026 0 -0.671306)
(0.107202 0 -1.03843)
(-0.106187 0 -0.876844)
(-0.0627522 0 0.00990738)
(0.0360844 0 0.281623)
(0.102582 0 0.352707)
(0.137822 0 -0.719399)
(-0.102103 0 -0.85058)
(-0.0427749 0 0.414469)
(0.0290673 0 0.501427)
(0.0602867 0 0.539007)
(-0.0044636 0 -0.00173621)
(-0.00446999 0 -0.00439402)
(-0.00444431 0 -0.00713063)
(-0.00442073 0 -0.00997402)
(-0.00439283 0 -0.0129265)
(-0.00435796 0 -0.0160123)
(-0.00431602 0 -0.0192557)
(-0.00426652 0 -0.0226819)
(-0.00420906 0 -0.026317)
(-0.00414325 0 -0.0301869)
(-0.00406865 0 -0.0343168)
(-0.00398473 0 -0.0387318)
(-0.00389086 0 -0.0434574)
(-0.00378636 0 -0.0485215)
(-0.00367048 0 -0.0539544)
(-0.00354247 0 -0.0597902)
(-0.00340157 0 -0.0660667)
(-0.00324693 0 -0.0728264)
(-0.00307773 0 -0.0801163)
(-0.00289318 0 -0.0879894)
(-0.00269273 0 -0.0965053)
(-0.00247618 0 -0.105732)
(-0.00224367 0 -0.115746)
(-0.00199561 0 -0.12664)
(-0.00173294 0 -0.138522)
(-0.00145791 0 -0.15153)
(-0.0011761 0 -0.165848)
(-0.000897728 0 -0.181727)
(-0.000644615 0 -0.199521)
(-0.000452148 0 -0.219686)
(-0.000432301 0 -0.244687)
(-0.000808056 0 -0.274764)
(-0.00182695 0 -0.307714)
(-0.0038097 0 -0.343895)
(-0.00725763 0 -0.383401)
(-0.0119024 0 -0.425748)
(-0.0197235 0 -0.467509)
(-0.0183291 0 -0.507236)
(-0.0150783 0 -0.560715)
(0.0546262 0 -0.704552)
(0.0620316 0 -0.984469)
(-0.115662 0 -0.815789)
(-0.07243 0 -0.0484432)
(0.0230283 0 0.236784)
(0.0877878 0 0.311022)
(0.116431 0 -0.651908)
(-0.0887315 0 -0.792801)
(-0.0290585 0 0.36513)
(0.0390672 0 0.473126)
(0.0595916 0 0.511209)
(-0.00557781 0 -0.00175481)
(-0.00558761 0 -0.00443423)
(-0.00555991 0 -0.00718785)
(-0.00553618 0 -0.0100456)
(-0.00550871 0 -0.0130115)
(-0.0054744 0 -0.0161104)
(-0.00543332 0 -0.0193668)
(-0.00538508 0 -0.0228056)
(-0.00532932 0 -0.0264527)
(-0.00526573 0 -0.0303339)
(-0.00519397 0 -0.0344747)
(-0.00511364 0 -0.0389001)
(-0.00502429 0 -0.043636)
(-0.00492544 0 -0.04871)
(-0.00481663 0 -0.0541525)
(-0.00469745 0 -0.0599977)
(-0.00456751 0 -0.0662832)
(-0.00442647 0 -0.0730512)
(-0.0042741 0 -0.0803488)
(-0.00411039 0 -0.0882287)
(-0.00393581 0 -0.09675)
(-0.00375151 0 -0.10598)
(-0.0035593 0 -0.115996)
(-0.00336163 0 -0.126888)
(-0.00316211 0 -0.138765)
(-0.00296679 0 -0.151762)
(-0.00278618 0 -0.166059)
(-0.00263673 0 -0.181902)
(-0.00254829 0 -0.19963)
(-0.00256542 0 -0.219676)
(-0.00283063 0 -0.244451)
(-0.00357477 0 -0.274153)
(-0.00501184 0 -0.306554)
(-0.00738588 0 -0.341965)
(-0.0111421 0 -0.380503)
(-0.0156194 0 -0.422016)
(-0.0227243 0 -0.464819)
(-0.0207095 0 -0.510032)
(-0.0175117 0 -0.579424)
(0.0331522 0 -0.723829)
(0.0226471 0 -0.936083)
(-0.122962 0 -0.764891)
(-0.0833773 0 -0.10452)
(0.0097249 0 0.193224)
(0.0731138 0 0.272793)
(0.0997933 0 -0.593933)
(-0.0749345 0 -0.746226)
(-0.0178003 0 0.316615)
(0.0485529 0 0.44997)
(0.0595238 0 0.488145)
(-0.00678691 0 -0.00177349)
(-0.00680075 0 -0.00447415)
(-0.00677094 0 -0.00724435)
(-0.00674737 0 -0.010116)
(-0.00672079 0 -0.0130946)
(-0.00668758 0 -0.0162059)
(-0.00664801 0 -0.0194744)
(-0.00660178 0 -0.0229248)
(-0.0065486 0 -0.0265828)
(-0.00648825 0 -0.0304744)
(-0.0064205 0 -0.0346247)
(-0.00634509 0 -0.0390592)
(-0.00626177 0 -0.0438036)
(-0.00617028 0 -0.0488857)
(-0.00607046 0 -0.0543358)
(-0.00596223 0 -0.0601877)
(-0.00584563 0 -0.0664792)
(-0.0057208 0 -0.0732523)
(-0.00558811 0 -0.0805536)
(-0.00544833 0 -0.0884354)
(-0.00530293 0 -0.0969566)
(-0.00515433 0 -0.106184)
(-0.00500586 0 -0.116193)
(-0.00486179 0 -0.127074)
(-0.00472806 0 -0.138933)
(-0.00461392 0 -0.151905)
(-0.00453387 0 -0.166164)
(-0.00450894 0 -0.18195)
(-0.00457453 0 -0.199588)
(-0.00478076 0 -0.219487)
(-0.00529119 0 -0.244008)
(-0.00632969 0 -0.273316)
(-0.0080653 0 -0.305176)
(-0.0106538 0 -0.339891)
(-0.0144656 0 -0.377662)
(-0.0185853 0 -0.418656)
(-0.0246589 0 -0.462741)
(-0.0223948 0 -0.512764)
(-0.0194076 0 -0.592574)
(0.0129267 0 -0.731635)
(-0.00887947 0 -0.892189)
(-0.127301 0 -0.723579)
(-0.0940057 0 -0.156662)
(-0.00454161 0 0.150013)
(0.0589114 0 0.235702)
(0.0889409 0 -0.545903)
(-0.0591749 0 -0.707621)
(-0.00848658 0 0.269177)
(0.0583897 0 0.431066)
(0.0602152 0 0.469569)
(-0.00807815 0 -0.00179205)
(-0.00809628 0 -0.00451334)
(-0.00806431 0 -0.00729949)
(-0.00804106 0 -0.0101843)
(-0.00801557 0 -0.0131747)
(-0.00798372 0 -0.0162973)
(-0.00794601 0 -0.0195768)
(-0.00790224 0 -0.0230377)
(-0.00785219 0 -0.0267055)
(-0.00779571 0 -0.030606)
(-0.00773268 0 -0.0347646)
(-0.007663 0 -0.0392065)
(-0.00758662 0 -0.0439576)
(-0.00750351 0 -0.0490456)
(-0.0074138 0 -0.0545008)
(-0.00731774 0 -0.0603569)
(-0.00721577 0 -0.0666513)
(-0.00710851 0 -0.0734257)
(-0.00699688 0 -0.0807265)
(-0.00688237 0 -0.0886055)
(-0.0067674 0 -0.0971208)
(-0.00665554 0 -0.106338)
(-0.00655143 0 -0.116333)
(-0.00646081 0 -0.127194)
(-0.00639156 0 -0.139025)
(-0.00635551 0 -0.151959)
(-0.00637013 0 -0.166166)
(-0.00645924 0 -0.181879)
(-0.00666166 0 -0.199409)
(-0.00703022 0 -0.219144)
(-0.00774153 0 -0.243399)
(-0.00900147 0 -0.272316)
(-0.0109331 0 -0.303673)
(-0.0136111 0 -0.337789)
(-0.0173225 0 -0.374994)
(-0.0210545 0 -0.415743)
(-0.0261329 0 -0.461141)
(-0.024195 0 -0.515068)
(-0.0220479 0 -0.600477)
(-0.00479883 0 -0.730964)
(-0.0330707 0 -0.852457)
(-0.129763 0 -0.690409)
(-0.103955 0 -0.203142)
(-0.0210606 0 0.10641)
(0.0446965 0 0.197509)
(0.0838591 0 -0.509154)
(-0.0403279 0 -0.673567)
(-0.000475079 0 0.223415)
(0.0685433 0 0.415195)
(0.0615675 0 0.455359)
(-0.00944276 0 -0.00181053)
(-0.00946515 0 -0.0045518)
(-0.00943094 0 -0.00735319)
(-0.00940798 0 -0.0102503)
(-0.00938359 0 -0.0132516)
(-0.00935311 0 -0.0163845)
(-0.00931731 0 -0.0196737)
(-0.00927611 0 -0.0231439)
(-0.00922935 0 -0.0268201)
(-0.00917696 0 -0.0307281)
(-0.00911896 0 -0.0348933)
(-0.00905539 0 -0.0393409)
(-0.00898636 0 -0.0440968)
(-0.00891209 0 -0.0491886)
(-0.00883296 0 -0.0546465)
(-0.00874957 0 -0.0605039)
(-0.00866272 0 -0.0667981)
(-0.00857345 0 -0.0735704)
(-0.0084832 0 -0.0808667)
(-0.00839411 0 -0.0887382)
(-0.00830944 0 -0.0972424)
(-0.00823378 0 -0.106444)
(-0.00817284 0 -0.116418)
(-0.00813354 0 -0.12725)
(-0.00812523 0 -0.139045)
(-0.00816184 0 -0.151929)
(-0.00826299 0 -0.166072)
(-0.00845373 0 -0.1817)
(-0.00877452 0 -0.19911)
(-0.00927936 0 -0.218672)
(-0.0101521 0 -0.24266)
(-0.0115766 0 -0.271199)
(-0.0136337 0 -0.302102)
(-0.0163377 0 -0.335716)
(-0.019902 0 -0.372512)
(-0.0233505 0 -0.4132)
(-0.027715 0 -0.459746)
(-0.0266705 0 -0.516529)
(-0.0260951 0 -0.603706)
(-0.0202093 0 -0.724518)
(-0.0520201 0 -0.816623)
(-0.132206 0 -0.663004)
(-0.114576 0 -0.242336)
(-0.0407133 0 0.0626828)
(0.0298432 0 0.155526)
(0.0830299 0 -0.485257)
(-0.018432 0 -0.643149)
(0.006953 0 0.181374)
(0.0778568 0 0.401693)
(0.0629826 0 0.445471)
(-0.0108759 0 -0.0018291)
(-0.0109023 0 -0.00458987)
(-0.0108657 0 -0.00740586)
(-0.0108429 0 -0.0103145)
(-0.0108194 0 -0.0133256)
(-0.0107901 0 -0.0164675)
(-0.0107561 0 -0.0197653)
(-0.0107173 0 -0.0232432)
(-0.0106737 0 -0.0269265)
(-0.0106253 0 -0.0308405)
(-0.0105723 0 -0.0350107)
(-0.0105149 0 -0.0394622)
(-0.0104532 0 -0.0442209)
(-0.0103879 0 -0.0493144)
(-0.0103194 0 -0.0547726)
(-0.0102487 0 -0.0606288)
(-0.0101769 0 -0.0669198)
(-0.0101055 0 -0.0736866)
(-0.0100364 0 -0.0809747)
(-0.00997213 0 -0.0888346)
(-0.00991685 0 -0.097323)
(-0.00987599 0 -0.106504)
(-0.00985616 0 -0.11645)
(-0.00986511 0 -0.127248)
(-0.0099133 0 -0.138997)
(-0.0100164 0 -0.151825)
(-0.0101956 0 -0.165895)
(-0.0104763 0 -0.181427)
(-0.0108992 0 -0.19871)
(-0.0115188 0 -0.218093)
(-0.0125229 0 -0.241817)
(-0.0140758 0 -0.269997)
(-0.0162228 0 -0.300491)
(-0.0189435 0 -0.333677)
(-0.0223999 0 -0.370159)
(-0.025747 0 -0.410852)
(-0.0297958 0 -0.458233)
(-0.0300939 0 -0.516814)
(-0.0316882 0 -0.603196)
(-0.034154 0 -0.714174)
(-0.0681038 0 -0.783815)
(-0.136536 0 -0.639059)
(-0.127499 0 -0.273355)
(-0.063821 0 0.0198433)
(0.0140095 0 0.106173)
(0.0845749 0 -0.47508)
(0.0048624 0 -0.615344)
(0.0145532 0 0.145487)
(0.0842552 0 0.390188)
(0.0634205 0 0.439592)
(-0.0123751 0 -0.00184798)
(-0.012405 0 -0.00462804)
(-0.0123661 0 -0.00745812)
(-0.0123431 0 -0.0103774)
(-0.0123202 0 -0.0133974)
(-0.0122919 0 -0.0165471)
(-0.0122593 0 -0.019852)
(-0.0122226 0 -0.0233363)
(-0.012182 0 -0.0270251)
(-0.0121374 0 -0.0309435)
(-0.0120892 0 -0.035117)
(-0.0120377 0 -0.0395706)
(-0.0119833 0 -0.0443303)
(-0.0119266 0 -0.0494233)
(-0.0118685 0 -0.0548795)
(-0.0118103 0 -0.0607318)
(-0.0117533 0 -0.0670169)
(-0.0116993 0 -0.0737752)
(-0.0116506 0 -0.0810516)
(-0.0116104 0 -0.088896)
(-0.0115832 0 -0.0973644)
(-0.0115755 0 -0.10652)
(-0.0115944 0 -0.116434)
(-0.0116484 0 -0.127191)
(-0.0117486 0 -0.138889)
(-0.0119122 0 -0.151653)
(-0.0121618 0 -0.165644)
(-0.0125226 0 -0.181074)
(-0.0130348 0 -0.198223)
(-0.0137533 0 -0.217425)
(-0.0148688 0 -0.240889)
(-0.0165322 0 -0.268727)
(-0.018761 0 -0.298843)
(-0.0215256 0 -0.331644)
(-0.0249625 0 -0.367842)
(-0.0284106 0 -0.408498)
(-0.0325488 0 -0.456316)
(-0.0344986 0 -0.515701)
(-0.0386169 0 -0.599705)
(-0.0474061 0 -0.700882)
(-0.0832089 0 -0.752916)
(-0.143957 0 -0.616617)
(-0.143334 0 -0.296387)
(-0.0894224 0 -0.0224535)
(-0.00210728 0 0.0471235)
(0.0872632 0 -0.478202)
(0.0259463 0 -0.588985)
(0.0217118 0 0.115996)
(0.0861037 0 0.380483)
(0.0617838 0 0.436965)
(-0.0139389 0 -0.0018675)
(-0.0139718 0 -0.00466696)
(-0.0139305 0 -0.00751076)
(-0.0139073 0 -0.01044)
(-0.0138846 0 -0.0134679)
(-0.0138568 0 -0.0166242)
(-0.0138253 0 -0.0199347)
(-0.0137905 0 -0.0234239)
(-0.0137524 0 -0.0271165)
(-0.0137113 0 -0.0310377)
(-0.0136676 0 -0.0352127)
(-0.0136217 0 -0.0396666)
(-0.0135741 0 -0.0444252)
(-0.0135258 0 -0.0495156)
(-0.0134779 0 -0.0549675)
(-0.0134317 0 -0.0608136)
(-0.013389 0 -0.0670899)
(-0.0133519 0 -0.0738367)
(-0.0133229 0 -0.0810983)
(-0.0133057 0 -0.0889238)
(-0.0133053 0 -0.0973683)
(-0.0133289 0 -0.106494)
(-0.0133845 0 -0.116371)
(-0.0134806 0 -0.127083)
(-0.0136289 0 -0.138726)
(-0.0138477 0 -0.151421)
(-0.014161 0 -0.165327)
(-0.0145938 0 -0.18065)
(-0.0151859 0 -0.197662)
(-0.0159923 0 -0.216683)
(-0.0172075 0 -0.239891)
(-0.0189756 0 -0.267396)
(-0.0212948 0 -0.297146)
(-0.0241463 0 -0.329575)
(-0.027665 0 -0.365461)
(-0.0313933 0 -0.405956)
(-0.0359552 0 -0.453775)
(-0.0397197 0 -0.513056)
(-0.046508 0 -0.593647)
(-0.0603687 0 -0.685107)
(-0.0982158 0 -0.722805)
(-0.154447 0 -0.594261)
(-0.16118 0 -0.312736)
(-0.114624 0 -0.0658769)
(-0.0164972 0 -0.0217992)
(0.0896012 0 -0.492854)
(0.0412895 0 -0.563831)
(0.0264933 0 0.0939899)
(0.0825619 0 0.372637)
(0.0571989 0 0.436545)
(-0.0155663 0 -0.00188757)
(-0.0156015 0 -0.00470687)
(-0.0155578 0 -0.00756442)
(-0.0155338 0 -0.0105032)
(-0.0155111 0 -0.0135379)
(-0.0154834 0 -0.0166996)
(-0.0154526 0 -0.0200144)
(-0.0154191 0 -0.0235069)
(-0.0153832 0 -0.0272017)
(-0.0153453 0 -0.0311239)
(-0.0153056 0 -0.0352986)
(-0.015265 0 -0.0397509)
(-0.015224 0 -0.0445064)
(-0.0151837 0 -0.0495921)
(-0.0151454 0 -0.0550374)
(-0.0151108 0 -0.0608747)
(-0.0150818 0 -0.0671398)
(-0.0150609 0 -0.0738723)
(-0.0150509 0 -0.0811159)
(-0.0150556 0 -0.0889193)
(-0.0150807 0 -0.0973366)
(-0.015134 0 -0.106429)
(-0.015224 0 -0.116265)
(-0.0153598 0 -0.126927)
(-0.0155529 0 -0.13851)
(-0.0158225 0 -0.151133)
(-0.0161938 0 -0.164949)
(-0.0166924 0 -0.180162)
(-0.0173573 0 -0.197033)
(-0.0182441 0 -0.215872)
(-0.0195519 0 -0.238824)
(-0.0214247 0 -0.266001)
(-0.0238486 0 -0.295384)
(-0.0268297 0 -0.327425)
(-0.030518 0 -0.36293)
(-0.0346568 0 -0.403084)
(-0.0398681 0 -0.450474)
(-0.0454715 0 -0.508843)
(-0.0549084 0 -0.585271)
(-0.0730125 0 -0.667083)
(-0.112968 0 -0.692663)
(-0.166534 0 -0.57138)
(-0.178436 0 -0.324523)
(-0.13564 0 -0.111809)
(-0.0270222 0 -0.0991515)
(0.0894999 0 -0.515745)
(0.0487109 0 -0.539945)
(0.0270042 0 0.0800618)
(0.0733938 0 0.366529)
(0.0492501 0 0.437206)
(-0.0172552 0 -0.00191017)
(-0.017293 0 -0.00474972)
(-0.0172467 0 -0.00762048)
(-0.0172215 0 -0.010568)
(-0.0171978 0 -0.0136087)
(-0.0171697 0 -0.0167745)
(-0.017139 0 -0.0200922)
(-0.0171063 0 -0.0235863)
(-0.0170721 0 -0.0272815)
(-0.0170368 0 -0.0312029)
(-0.0170009 0 -0.0353755)
(-0.0169651 0 -0.0398242)
(-0.0169303 0 -0.0445745)
(-0.0168976 0 -0.0496534)
(-0.0168685 0 -0.05509)
(-0.016845 0 -0.0609162)
(-0.0168292 0 -0.0671676)
(-0.0168238 0 -0.0738831)
(-0.0168319 0 -0.0811061)
(-0.0168575 0 -0.0888844)
(-0.0169066 0 -0.0972711)
(-0.0169877 0 -0.106326)
(-0.0171102 0 -0.116118)
(-0.0172832 0 -0.126726)
(-0.0175184 0 -0.138245)
(-0.017835 0 -0.150792)
(-0.0182598 0 -0.164515)
(-0.0188188 0 -0.179614)
(-0.019551 0 -0.196341)
(-0.0205124 0 -0.214995)
(-0.0219081 0 -0.23769)
(-0.0238862 0 -0.264534)
(-0.0264274 0 -0.293535)
(-0.0295695 0 -0.325153)
(-0.0334879 0 -0.360185)
(-0.0381081 0 -0.3998)
(-0.044081 0 -0.446358)
(-0.0514237 0 -0.503127)
(-0.0633273 0 -0.574816)
(-0.0849515 0 -0.647071)
(-0.126603 0 -0.662243)
(-0.177823 0 -0.548342)
(-0.191742 0 -0.334249)
(-0.149277 0 -0.160865)
(-0.0326794 0 -0.181662)
(0.0851232 0 -0.542401)
(0.0473696 0 -0.516818)
(0.0221397 0 0.0731208)
(0.0592827 0 0.361583)
(0.0382001 0 0.437862)
(-0.0190098 0 -0.00192902)
(-0.019047 0 -0.00479248)
(-0.0189964 0 -0.00767995)
(-0.0189683 0 -0.0106368)
(-0.0189425 0 -0.0136826)
(-0.0189128 0 -0.0168511)
(-0.0188813 0 -0.0201697)
(-0.0188488 0 -0.0236634)
(-0.0188158 0 -0.0273571)
(-0.0187827 0 -0.0312757)
(-0.0187501 0 -0.0354441)
(-0.0187188 0 -0.0398872)
(-0.0186899 0 -0.0446304)
(-0.0186644 0 -0.0497004)
(-0.0186441 0 -0.055126)
(-0.018631 0 -0.060939)
(-0.0186278 0 -0.0671742)
(-0.0186372 0 -0.0738704)
(-0.0186625 0 -0.0810701)
(-0.0187079 0 -0.0888206)
(-0.0187796 0 -0.0971742)
(-0.0188866 0 -0.106189)
(-0.0190392 0 -0.115933)
(-0.0192471 0 -0.126484)
(-0.0195217 0 -0.137936)
(-0.0198822 0 -0.150402)
(-0.0203562 0 -0.164029)
(-0.0209709 0 -0.179009)
(-0.0217656 0 -0.195589)
(-0.0227965 0 -0.214055)
(-0.0242758 0 -0.236488)
(-0.0263579 0 -0.26299)
(-0.0290228 0 -0.291588)
(-0.0323415 0 -0.322735)
(-0.0365184 0 -0.357195)
(-0.0416337 0 -0.396074)
(-0.048378 0 -0.441451)
(-0.0572577 0 -0.496063)
(-0.0712874 0 -0.562596)
(-0.0956296 0 -0.625537)
(-0.138013 0 -0.631971)
(-0.186 0 -0.526307)
(-0.198488 0 -0.344291)
(-0.154023 0 -0.212662)
(-0.0340908 0 -0.26456)
(0.075642 0 -0.568271)
(0.0379553 0 -0.493997)
(0.0120519 0 0.0710793)
(0.0417823 0 0.35706)
(0.0249341 0 0.437614)
(-0.0208306 0 -0.00196817)
(-0.0208635 0 -0.00485355)
(-0.0208039 0 -0.00775304)
(-0.0207697 0 -0.0107164)
(-0.0207399 0 -0.0137643)
(-0.0207074 0 -0.0169324)
(-0.0206744 0 -0.020249)
(-0.0206416 0 -0.0237398)
(-0.0206094 0 -0.0274294)
(-0.0205783 0 -0.031343)
(-0.0205489 0 -0.0355051)
(-0.020522 0 -0.0399405)
(-0.0204986 0 -0.0446745)
(-0.0204801 0 -0.0497336)
(-0.0204681 0 -0.0551462)
(-0.0204651 0 -0.0609438)
(-0.0204737 0 -0.0671607)
(-0.0204971 0 -0.0738352)
(-0.0205387 0 -0.0810093)
(-0.0206028 0 -0.0887296)
(-0.0206958 0 -0.0970474)
(-0.0208269 0 -0.10602)
(-0.0210072 0 -0.115714)
(-0.0212474 0 -0.126205)
(-0.0215586 0 -0.137585)
(-0.0219599 0 -0.149967)
(-0.0224793 0 -0.163495)
(-0.0231453 0 -0.178353)
(-0.0239979 0 -0.194781)
(-0.0250932 0 -0.213055)
(-0.0266508 0 -0.235221)
(-0.0288329 0 -0.261368)
(-0.0316201 0 -0.289539)
(-0.0351148 0 -0.320167)
(-0.0395485 0 -0.353959)
(-0.0451242 0 -0.391926)
(-0.052567 0 -0.43584)
(-0.0627035 0 -0.48788)
(-0.0783892 0 -0.549024)
(-0.104519 0 -0.603136)
(-0.146315 0 -0.602778)
(-0.189638 0 -0.506748)
(-0.197807 0 -0.356366)
(-0.150432 0 -0.265858)
(-0.0330267 0 -0.34279)
(0.0615965 0 -0.589826)
(0.0226061 0 -0.471387)
(-0.0018201 0 0.0714822)
(0.0229732 0 0.352514)
(0.0106468 0 0.435875)
(-0.0227615 0 -0.00199839)
(-0.022733 0 -0.00493344)
(-0.0226487 0 -0.00784948)
(-0.0226088 0 -0.0108127)
(-0.022577 0 -0.0138568)
(-0.0225433 0 -0.0170197)
(-0.0225099 0 -0.0203307)
(-0.0224778 0 -0.0238154)
(-0.0224472 0 -0.0274985)
(-0.0224186 0 -0.0314047)
(-0.0223926 0 -0.0355585)
(-0.0223701 0 -0.0399844)
(-0.0223523 0 -0.0447073)
(-0.0223404 0 -0.0497536)
(-0.0223365 0 -0.0551513)
(-0.0223429 0 -0.0609315)
(-0.0223627 0 -0.0671282)
(-0.0223993 0 -0.0737789)
(-0.0224563 0 -0.0809251)
(-0.0225382 0 -0.0886127)
(-0.0226512 0 -0.0968924)
(-0.0228047 0 -0.105821)
(-0.0230105 0 -0.115462)
(-0.0232802 0 -0.125891)
(-0.0236253 0 -0.137198)
(-0.0240643 0 -0.149493)
(-0.0246253 0 -0.162917)
(-0.0253383 0 -0.177651)
(-0.026244 0 -0.193924)
(-0.0273987 0 -0.212001)
(-0.0290285 0 -0.233894)
(-0.0313031 0 -0.259674)
(-0.0342043 0 -0.287394)
(-0.03786 0 -0.317457)
(-0.042524 0 -0.350499)
(-0.0484883 0 -0.387415)
(-0.0564977 0 -0.42966)
(-0.0675628 0 -0.478858)
(-0.0843572 0 -0.534592)
(-0.111276 0 -0.580668)
(-0.151115 0 -0.5757)
(-0.188475 0 -0.490921)
(-0.190607 0 -0.371284)
(-0.140669 0 -0.318532)
(-0.0313855 0 -0.412285)
(0.0446936 0 -0.605148)
(0.00427396 0 -0.449227)
(-0.0171667 0 0.0723637)
(0.00501809 0 0.347523)
(-0.00357592 0 0.432325)
(-0.0247214 0 -0.00234526)
(-0.0246102 0 -0.00517842)
(-0.0244997 0 -0.00798643)
(-0.0244628 0 -0.0109143)
(-0.0244374 0 -0.0139463)
(-0.0244085 0 -0.0171028)
(-0.0243793 0 -0.0204078)
(-0.0243509 0 -0.0238858)
(-0.0243238 0 -0.0275614)
(-0.0242988 0 -0.0314592)
(-0.0242769 0 -0.0356035)
(-0.0242592 0 -0.0400185)
(-0.0242469 0 -0.044729)
(-0.0242416 0 -0.0497609)
(-0.0242454 0 -0.0551421)
(-0.0242607 0 -0.0609032)
(-0.0242909 0 -0.0670777)
(-0.0243398 0 -0.0737027)
(-0.0244113 0 -0.0808189)
(-0.0245099 0 -0.0884717)
(-0.0246419 0 -0.096711)
(-0.0248163 0 -0.105592)
(-0.0250457 0 -0.115179)
(-0.0253424 0 -0.125544)
(-0.0257186 0 -0.136775)
(-0.0261924 0 -0.148982)
(-0.0267917 0 -0.1623)
(-0.0275474 0 -0.176907)
(-0.0285016 0 -0.193022)
(-0.0297102 0 -0.210898)
(-0.0314051 0 -0.232512)
(-0.0337622 0 -0.257914)
(-0.036763 0 -0.285164)
(-0.040554 0 -0.314625)
(-0.0454038 0 -0.346856)
(-0.0516611 0 -0.382622)
(-0.0600689 0 -0.423074)
(-0.0717163 0 -0.469306)
(-0.0890527 0 -0.519811)
(-0.115798 0 -0.558914)
(-0.152529 0 -0.551583)
(-0.183176 0 -0.479526)
(-0.178853 0 -0.389036)
(-0.127479 0 -0.368787)
(-0.0303786 0 -0.470881)
(0.0270808 0 -0.613704)
(-0.0138181 0 -0.428119)
(-0.0317953 0 0.0725402)
(-0.0107208 0 0.341816)
(-0.0167023 0 0.427093)
(-0.0266569 0 -0.00283554)
(-0.0265235 0 -0.00552989)
(-0.0264001 0 -0.00815069)
(-0.0263629 0 -0.0110053)
(-0.0263398 0 -0.0140189)
(-0.0263142 0 -0.0171713)
(-0.0262885 0 -0.0204733)
(-0.0262634 0 -0.0239465)
(-0.0262396 0 -0.0276156)
(-0.026218 0 -0.0315051)
(-0.0261999 0 -0.0356395)
(-0.0261866 0 -0.0400429)
(-0.0261795 0 -0.0447399)
(-0.0261804 0 -0.0497562)
(-0.0261913 0 -0.0551195)
(-0.026215 0 -0.0608599)
(-0.0262548 0 -0.0670107)
(-0.026315 0 -0.0736082)
(-0.0263999 0 -0.0806926)
(-0.0265143 0 -0.0883085)
(-0.0266641 0 -0.0965052)
(-0.0268584 0 -0.105338)
(-0.0271098 0 -0.114867)
(-0.0274314 0 -0.125166)
(-0.0278363 0 -0.13632)
(-0.0283423 0 -0.148435)
(-0.0289766 0 -0.161646)
(-0.0297714 0 -0.176123)
(-0.0307693 0 -0.192078)
(-0.0320264 0 -0.209751)
(-0.0337788 0 -0.231083)
(-0.0362065 0 -0.256099)
(-0.0392886 0 -0.282864)
(-0.0431824 0 -0.311698)
(-0.0481622 0 -0.343082)
(-0.0546046 0 -0.377644)
(-0.0632281 0 -0.416255)
(-0.0751202 0 -0.459528)
(-0.0924624 0 -0.505168)
(-0.118199 0 -0.538521)
(-0.151026 0 -0.530929)
(-0.174853 0 -0.472637)
(-0.164695 0 -0.409054)
(-0.11332 0 -0.415215)
(-0.0301314 0 -0.518501)
(0.0107008 0 -0.616347)
(-0.0294247 0 -0.408309)
(-0.044063 0 0.0716112)
(-0.0236567 0 0.335735)
(-0.0281074 0 0.420673)
(-0.0285871 0 -0.0032202)
(-0.028491 0 -0.00587117)
(-0.0283699 0 -0.00832852)