/*--------------------------------*- C++ -*----------------------------------*\
  =========                 |
  \\      /  F ield         | OpenFOAM: The Open Source CFD Toolbox
   \\    /   O peration     | Website:  https://openfoam.org
    \\  /    A nd           | Version:  9
     \\/     M anipulation  |
\*---------------------------------------------------------------------------*/
FoamFile
{
    format      ascii;
    class       surfaceVectorField;
    location    "0.06";
    object      Uf;
}
// * * * * * * * * * * * * * * * * * * * * * * * * * * * * * * * * * * * * * //

dimensions      [0 1 -1 0 0 0 0];

internalField   nonuniform List<vector> 
9850
(
(-1.39455e-05 0 -0.00284968)
(-8.14611e-05 0 -0.00160248)
(-1.26555e-05 0 -0.00546337)
(-7.37486e-05 0 -0.00416961)
(-1.15141e-05 0 -0.00816222)
(-7.24087e-05 0 -0.00682001)
(-8.65292e-06 0 -0.0109647)
(-6.90766e-05 0 -0.0095735)
(-4.28637e-06 0 -0.0138893)
(-6.29952e-05 0 -0.0124374)
(1.39851e-06 0 -0.0169604)
(-5.439e-05 0 -0.0154351)
(8.29429e-06 0 -0.020204)
(-4.34499e-05 0 -0.0185919)
(1.63525e-05 0 -0.0236463)
(-3.02315e-05 0 -0.0219347)
(2.55667e-05 0 -0.0273132)
(-1.47631e-05 0 -0.0254899)
(3.59791e-05 0 -0.0312289)
(2.99891e-06 0 -0.0292824)
(4.76805e-05 0 -0.0354167)
(2.31752e-05 0 -0.0333359)
(6.08078e-05 0 -0.0399006)
(4.59664e-05 0 -0.0376739)
(7.55374e-05 0 -0.0447059)
(7.16567e-05 0 -0.0423208)
(9.20841e-05 0 -0.0498608)
(0.000100601 0 -0.0473032)
(0.000110705 0 -0.0553966)
(0.000133226 0 -0.0526509)
(0.000131701 0 -0.0613486)
(0.000170034 0 -0.058397)
(0.000155429 0 -0.0677557)
(0.000211617 0 -0.0645789)
(0.000182314 0 -0.0746619)
(0.000258676 0 -0.0712379)
(0.000212861 0 -0.0821156)
(0.00031205 0 -0.0784202)
(0.000247673 0 -0.0901715)
(0.000372747 0 -0.0861774)
(0.000287489 0 -0.0988906)
(0.000441997 0 -0.0945673)
(0.000333239 0 -0.108342)
(0.000521335 0 -0.103655)
(0.000386145 0 -0.118604)
(0.000612738 0 -0.113514)
(0.000447894 0 -0.129771)
(0.000718855 0 -0.12423)
(0.000520941 0 -0.141956)
(0.000843396 0 -0.135904)
(0.000609042 0 -0.155306)
(0.000991779 0 -0.148664)
(0.000718137 0 -0.170029)
(0.00117217 0 -0.162683)
(0.000857469 0 -0.186439)
(0.00139684 0 -0.178209)
(0.00103999 0 -0.205009)
(0.00168333 0 -0.195627)
(0.00127913 0 -0.226389)
(0.00205351 0 -0.215509)
(0.00162185 0 -0.255298)
(0.00255342 0 -0.240542)
(0.00206969 0 -0.287435)
(0.00321753 0 -0.270982)
(0.00266331 0 -0.323808)
(0.00405975 0 -0.305064)
(0.00340509 0 -0.365982)
(0.00508803 0 -0.344043)
(0.00402209 0 -0.415122)
(0.00612989 0 -0.389662)
(0.00330739 0 -0.463695)
(0.00635124 0 -0.441932)
(-1.88083e-05 0 -0.468751)
(0.0040986 0 -0.485229)
(0.00447324 0 -0.366372)
(0.0012512 0 -0.455052)
(0.0376221 0 -0.132525)
(0.0301735 0 -0.300155)
(0.191287 0 -0.831511)
(0.0951311 0 -0.0663311)
(0.0473814 0 -1.72303)
(0.318835 0 -1.57726)
(-0.107986 0 -0.621351)
(-0.158789 0 -1.66085)
(-0.00620111 0 0.582616)
(-0.0380681 0 0.467197)
(0.0331994 0 0.743702)
(0.0320046 0 0.621814)
(0.139103 0 -0.340601)
(0.0723277 0 0.798302)
(0.00681177 0 -1.57428)
(0.225254 0 -1.44269)
(-0.137772 0 -0.364747)
(-0.212451 0 -1.53675)
(-0.027166 0 0.838242)
(-0.0580144 0 0.841072)
(0.00126094 0 0.802234)
(-0.0224407 0 0.772362)
(0.0261539 0 0.809015)
(-0.000137272 0 -0.00286111)
(-0.000261095 0 -0.0016256)
(-0.00013421 0 -0.005463)
(-0.000252809 0 -0.00417913)
(-0.000130852 0 -0.00816616)
(-0.00024784 0 -0.00682997)
(-0.000124096 0 -0.0109795)
(-0.000240312 0 -0.00959259)
(-0.000113755 0 -0.0139146)
(-0.000228859 0 -0.0124652)
(-9.99289e-05 0 -0.0169957)
(-0.000213322 0 -0.0154706)
(-8.26921e-05 0 -0.0202488)
(-0.000193775 0 -0.0186342)
(-6.20913e-05 0 -0.0237008)
(-0.000170121 0 -0.0219828)
(-3.81143e-05 0 -0.0273774)
(-0.000142293 0 -0.0255432)
(-1.06541e-05 0 -0.0313031)
(-0.000110141 0 -0.0293406)
(2.05252e-05 0 -0.0355017)
(-7.34074e-05 0 -0.033399)
(5.5774e-05 0 -0.0399971)
(-3.17126e-05 0 -0.0377419)
(9.55533e-05 0 -0.0448149)
(1.54641e-05 0 -0.042394)
(0.00014042 0 -0.0499833)
(6.87679e-05 0 -0.0473819)
(0.000191049 0 -0.0555338)
(0.00012897 0 -0.0527355)
(0.00024823 0 -0.0615018)
(0.000196963 0 -0.0584881)
(0.000312895 0 -0.0679266)
(0.0002738 0 -0.0646771)
(0.000386157 0 -0.074852)
(0.000360728 0 -0.071344)
(0.000469346 0 -0.082327)
(0.000459235 0 -0.078535)
(0.000564078 0 -0.0904064)
(0.000571127 0 -0.0863021)
(0.000672343 0 -0.0991517)
(0.000698624 0 -0.0947032)
(0.000796673 0 -0.108633)
(0.000844501 0 -0.103804)
(0.000940401 0 -0.118929)
(0.00101231 0 -0.113678)
(0.00110809 0 -0.130134)
(0.00120677 0 -0.124412)
(0.00130625 0 -0.142364)
(0.00143439 0 -0.136109)
(0.00154445 0 -0.155769)
(0.00170443 0 -0.1489)
(0.00183693 0 -0.170561)
(0.00203042 0 -0.162958)
(0.00220421 0 -0.187057)
(0.0024318 0 -0.178539)
(0.00267263 0 -0.205734)
(0.00293488 0 -0.196027)
(0.0032669 0 -0.227237)
(0.00357155 0 -0.215994)
(0.00412193 0 -0.256333)
(0.00441712 0 -0.241112)
(0.00518362 0 -0.288722)
(0.00551119 0 -0.27169)
(0.00648081 0 -0.325399)
(0.00682959 0 -0.305929)
(0.00789167 0 -0.367812)
(0.00832547 0 -0.344984)
(0.00877579 0 -0.416701)
(0.00969957 0 -0.390251)
(0.00757932 0 -0.464362)
(0.00993452 0 -0.441134)
(0.0053236 0 -0.472419)
(0.00796099 0 -0.483725)
(0.0199277 0 -0.386015)
(0.00584384 0 -0.464788)
(0.0844798 0 -0.208804)
(0.044701 0 -0.343189)
(0.277057 0 -0.805954)
(0.149008 0 -0.194716)
(0.0932667 0 -1.54974)
(0.346537 0 -1.45473)
(-0.123477 0 -0.573299)
(-0.132697 0 -1.51636)
(-0.000747676 0 0.526805)
(-0.05946 0 0.385377)
(0.0780442 0 0.692263)
(0.0558269 0 0.569286)
(0.205156 0 -0.297268)
(0.117064 0 0.71356)
(0.0106296 0 -1.41885)
(0.265404 0 -1.31301)
(-0.178685 0 -0.323991)
(-0.235832 0 -1.41054)
(-0.0590355 0 0.789622)
(-0.0870536 0 0.761306)
(0.00370569 0 0.779075)
(-0.0314833 0 0.730535)
(0.0451384 0 0.770639)
(-0.000372998 0 -0.0028823)
(-0.000553933 0 -0.00164484)
(-0.000366584 0 -0.00548246)
(-0.00054862 0 -0.00419908)
(-0.00035805 0 -0.00819146)
(-0.000538235 0 -0.00685527)
(-0.000345798 0 -0.0110131)
(-0.000525513 0 -0.00962723)
(-0.00032924 0 -0.013956)
(-0.000508594 0 -0.0125099)
(-0.000308127 0 -0.017044)
(-0.000486784 0 -0.0155248)
(-0.00028226 0 -0.0203032)
(-0.000459892 0 -0.0186975)
(-0.00025147 0 -0.0237605)
(-0.000427604 0 -0.0220547)
(-0.000215561 0 -0.0274418)
(-0.000389685 0 -0.0256232)
(-0.000174254 0 -0.031372)
(-0.000345837 0 -0.0294283)
(-0.000127142 0 -0.035575)
(-0.000295644 0 -0.0334943)
(-7.36777e-05 0 -0.0400749)
(-0.00023855 0 -0.0378451)
(-1.3165e-05 0 -0.0448974)
(-0.000173842 0 -0.0425053)
(5.52333e-05 0 -0.0500709)
(-0.000100651 0 -0.0475018)
(0.000132505 0 -0.055627)
(-1.79484e-05 0 -0.0528647)
(0.000219816 0 -0.061601)
(7.54442e-05 0 -0.0586273)
(0.000318533 0 -0.0680325)
(0.00018091 0 -0.0648271)
(0.000430281 0 -0.0749653)
(0.000300075 0 -0.0715058)
(0.000557013 0 -0.0824488)
(0.00043488 0 -0.07871)
(0.000701106 0 -0.0905378)
(0.000587682 0 -0.0864917)
(0.000865499 0 -0.0992943)
(0.000761371 0 -0.0949094)
(0.00105392 0 -0.108788)
(0.000959537 0 -0.104029)
(0.00127124 0 -0.119101)
(0.00118673 0 -0.113926)
(0.00152402 0 -0.130326)
(0.0014489 0 -0.124687)
(0.00182142 0 -0.142583)
(0.00175414 0 -0.136417)
(0.00217645 0 -0.156024)
(0.00211372 0 -0.14925)
(0.00260769 0 -0.170865)
(0.0025436 0 -0.163364)
(0.00314065 0 -0.187426)
(0.00306581 0 -0.179017)
(0.00380617 0 -0.206184)
(0.00370854 0 -0.196597)
(0.00463067 0 -0.227768)
(0.00450432 0 -0.216667)
(0.0057939 0 -0.256972)
(0.00553567 0 -0.241887)
(0.00716365 0 -0.289487)
(0.00682184 0 -0.272603)
(0.00871823 0 -0.326232)
(0.00827978 0 -0.306965)
(0.0102528 0 -0.368402)
(0.00979285 0 -0.346007)
(0.0111389 0 -0.416218)
(0.0109863 0 -0.390842)
(0.010188 0 -0.462607)
(0.0107485 0 -0.4405)
(0.00920803 0 -0.476775)
(0.00876291 0 -0.483071)
(0.0270374 0 -0.415665)
(0.00638896 0 -0.476675)
(0.0903563 0 -0.310219)
(0.0400543 0 -0.385402)
(0.276677 0 -0.826468)
(0.156994 0 -0.31893)
(0.114414 0 -1.41581)
(0.317884 0 -1.34656)
(-0.11294 0 -0.546001)
(-0.106206 0 -1.36479)
(0.00750589 0 0.446535)
(-0.0633021 0 0.30508)
(0.0919846 0 0.611786)
(0.0676064 0 0.512967)
(0.220505 0 -0.278557)
(0.138274 0 0.62788)
(0.0165135 0 -1.28407)
(0.255986 0 -1.17701)
(-0.177504 0 -0.304544)
(-0.212176 0 -1.2812)
(-0.0603543 0 0.719218)
(-0.0965709 0 0.683207)
(0.00938413 0 0.732873)
(-0.0273298 0 0.684043)
(0.0559281 0 0.724399)
(-0.000727915 0 -0.002901)
(-0.000971715 0 -0.00165971)
(-0.000718882 0 -0.0055094)
(-0.00096866 0 -0.00422718)
(-0.00070611 0 -0.00822628)
(-0.000953704 0 -0.00689314)
(-0.000688975 0 -0.0110571)
(-0.000936798 0 -0.00967567)
(-0.000666942 0 -0.0140091)
(-0.000915489 0 -0.0125692)
(-0.000639543 0 -0.0171058)
(-0.000888578 0 -0.0155952)
(-0.000606383 0 -0.020373)
(-0.000855722 0 -0.0187787)
(-0.000567124 0 -0.0238375)
(-0.000816474 0 -0.0221464)
(-0.000521418 0 -0.0275256)
(-0.000770483 0 -0.0257249)
(-0.00046884 0 -0.0314622)
(-0.000717342 0 -0.0295399)
(-0.000408832 0 -0.0356713)
(-0.000656522 0 -0.0336158)
(-0.000340684 0 -0.0401773)
(-0.000587339 0 -0.0379765)
(-0.000263526 0 -0.0450062)
(-0.000508947 0 -0.0426472)
(-0.000176322 0 -0.0501864)
(-0.000420331 0 -0.0476547)
(-7.78542e-05 0 -0.0557495)
(-0.000320307 0 -0.0530293)
(3.32894e-05 0 -0.0617311)
(-0.000207524 0 -0.0588044)
(0.000158764 0 -0.0681708)
(-8.04105e-05 0 -0.0650177)
(0.000300528 0 -0.0751128)
(6.28685e-05 0 -0.0717111)
(0.000460914 0 -0.0826064)
(0.000224494 0 -0.0789314)
(0.00064274 0 -0.090707)
(0.000407091 0 -0.086731)
(0.000849467 0 -0.0994768)
(0.000613838 0 -0.0951688)
(0.00108545 0 -0.108987)
(0.000848631 0 -0.104311)
(0.00135629 0 -0.119318)
(0.00111634 0 -0.114234)
(0.00166948 0 -0.130569)
(0.00142324 0 -0.125027)
(0.00203514 0 -0.142857)
(0.00177772 0 -0.136796)
(0.00246732 0 -0.156341)
(0.00219124 0 -0.149677)
(0.00298535 0 -0.171238)
(0.00267941 0 -0.163852)
(0.00361466 0 -0.187872)
(0.00326298 0 -0.179582)
(0.00438372 0 -0.206715)
(0.0039665 0 -0.197255)
(0.0053113 0 -0.228377)
(0.00481562 0 -0.217423)
(0.00657441 0 -0.257667)
(0.00587876 0 -0.242729)
(0.00797354 0 -0.290252)
(0.00713576 0 -0.273536)
(0.00942758 0 -0.32695)
(0.00844031 0 -0.307935)
(0.0106541 0 -0.368724)
(0.00959343 0 -0.346825)
(0.010993 0 -0.415468)
(0.010157 0 -0.391068)
(0.00938918 0 -0.461049)
(0.00889912 0 -0.439431)
(0.00711461 0 -0.481937)
(0.00582371 0 -0.481555)
(0.0221016 0 -0.444224)
(0.00292646 0 -0.486666)
(0.0800212 0 -0.395727)
(0.0268965 0 -0.424015)
(0.243683 0 -0.843945)
(0.143155 0 -0.428038)
(0.110985 0 -1.29882)
(0.274874 0 -1.25809)
(-0.0999361 0 -0.516253)
(-0.0930996 0 -1.22417)
(0.0114266 0 0.372601)
(-0.0596489 0 0.230838)
(0.0957685 0 0.533515)
(0.0688893 0 0.456739)
(0.2127 0 -0.263446)
(0.141775 0 0.549926)
(0.0212413 0 -1.16445)
(0.232546 0 -1.04937)
(-0.160084 0 -0.287442)
(-0.180939 0 -1.16032)
(-0.0530656 0 0.65202)
(-0.092906 0 0.611861)
(0.0170561 0 0.68097)
(-0.0159413 0 0.637295)
(0.0604752 0 0.676703)
(-0.00121114 0 -0.00292416)
(-0.00152058 0 -0.00167538)
(-0.00120045 0 -0.0055465)
(-0.00151935 0 -0.00426044)
(-0.00118477 0 -0.00827485)
(-0.00150103 0 -0.00693965)
(-0.00116412 0 -0.0111169)
(-0.00148129 0 -0.00973408)
(-0.001138 0 -0.0140804)
(-0.00145694 0 -0.0126396)
(-0.00110581 0 -0.0171886)
(-0.00142635 0 -0.0156779)
(-0.00106704 0 -0.0204672)
(-0.00138914 0 -0.0188737)
(-0.00102124 0 -0.0239426)
(-0.00134479 0 -0.0222533)
(-0.000967992 0 -0.0276412)
(-0.00129289 0 -0.0258434)
(-0.00090678 0 -0.0315881)
(-0.00123296 0 -0.0296698)
(-0.000836967 0 -0.0358075)
(-0.00116444 0 -0.033757)
(-0.000757754 0 -0.0403241)
(-0.00108657 0 -0.0381293)
(-0.000668171 0 -0.0451639)
(-0.000998461 0 -0.0428119)
(-0.000567074 0 -0.0503555)
(-0.000899033 0 -0.047832)
(-0.000453137 0 -0.0559308)
(-0.00078705 0 -0.0532197)
(-0.000324822 0 -0.0619253)
(-0.000661108 0 -0.0590089)
(-0.000180351 0 -0.0683789)
(-0.000519601 0 -0.0652372)
(-1.76492e-05 0 -0.0753359)
(-0.000360664 0 -0.0719467)
(0.000165731 0 -0.0828461)
(-0.000182103 0 -0.0791846)
(0.000372705 0 -0.090965)
(1.86824e-05 0 -0.0870034)
(0.000606808 0 -0.0997556)
(0.000244781 0 -0.0954625)
(0.000872422 0 -0.109289)
(0.000499892 0 -0.104629)
(0.00117513 0 -0.119649)
(0.000788545 0 -0.114579)
(0.00152219 0 -0.130933)
(0.00111649 0 -0.125404)
(0.00192322 0 -0.143263)
(0.00149128 0 -0.137212)
(0.0023911 0 -0.156798)
(0.00192287 0 -0.150139)
(0.00294287 0 -0.17176)
(0.00242424 0 -0.164372)
(0.00359954 0 -0.188473)
(0.00301157 0 -0.180171)
(0.0043813 0 -0.207401)
(0.00370154 0 -0.197924)
(0.00529212 0 -0.229134)
(0.00450765 0 -0.218166)
(0.00646899 0 -0.25848)
(0.00546734 0 -0.243514)
(0.00765922 0 -0.291072)
(0.00650915 0 -0.274329)
(0.00871109 0 -0.327623)
(0.00742934 0 -0.308636)
(0.00924777 0 -0.368902)
(0.00794271 0 -0.347182)
(0.00852259 0 -0.414623)
(0.00756208 0 -0.390585)
(0.00570342 0 -0.459345)
(0.00512089 0 -0.437551)
(0.0017262 0 -0.48563)
(0.000391544 0 -0.478903)
(0.0129995 0 -0.467203)
(-0.00201235 0 -0.494181)
(0.0661321 0 -0.461887)
(0.0133357 0 -0.459437)
(0.201226 0 -0.852539)
(0.124247 0 -0.5181)
(0.0932461 0 -1.19406)
(0.22715 0 -1.18611)
(-0.089929 0 -0.484938)
(-0.0896754 0 -1.10206)
(0.0115259 0 0.310402)
(-0.0558085 0 0.163201)
(0.0920295 0 0.469183)
(0.0633227 0 0.40307)
(0.192523 0 -0.241457)
(0.13502 0 0.48293)
(0.0239284 0 -1.05113)
(0.204451 0 -0.936976)
(-0.13589 0 -0.265917)
(-0.151445 0 -1.05377)
(-0.0417404 0 0.594954)
(-0.0815224 0 0.549095)
(0.0246308 0 0.632898)
(-0.0022361 0 0.593048)
(0.061667 0 0.631282)
(-0.00182702 0 -0.00294965)
(-0.00220305 0 -0.00169191)
(-0.00181536 0 -0.005589)
(-0.00220366 0 -0.00429672)
(-0.00179796 0 -0.00833114)
(-0.00218289 0 -0.00699127)
(-0.00177504 0 -0.011186)
(-0.00216137 0 -0.0097989)
(-0.0017462 0 -0.0141626)
(-0.00213508 0 -0.0127174)
(-0.00171079 0 -0.017284)
(-0.00210212 0 -0.0157689)
(-0.00166819 0 -0.0205758)
(-0.00206212 0 -0.018978)
(-0.00161792 0 -0.0240641)
(-0.00201451 0 -0.0223707)
(-0.00155951 0 -0.0277754)
(-0.00195885 0 -0.0259734)
(-0.00149244 0 -0.0317347)
(-0.00189466 0 -0.0298121)
(-0.00141605 0 -0.0359668)
(-0.00182137 0 -0.0339116)
(-0.00132951 0 -0.0404963)
(-0.00173822 0 -0.0382963)
(-0.00123185 0 -0.0453495)
(-0.00164434 0 -0.0429916)
(-0.0011219 0 -0.0505552)
(-0.00153868 0 -0.0480248)
(-0.000998346 0 -0.0561453)
(-0.00142005 0 -0.0534263)
(-0.000859656 0 -0.0621555)
(-0.00128711 0 -0.0592299)
(-0.000704098 0 -0.068626)
(-0.00113836 0 -0.0654735)
(-0.000529678 0 -0.0756011)
(-0.000972084 0 -0.0721993)
(-0.000334093 0 -0.0831309)
(-0.000786281 0 -0.0794546)
(-0.000114665 0 -0.0912713)
(-0.000578641 0 -0.0872922)
(0.000131793 0 -0.100086)
(-0.000346507 0 -0.0957717)
(0.000409156 0 -0.109646)
(-8.68234e-05 0 -0.104961)
(0.000722249 0 -0.120036)
(0.000204037 0 -0.114936)
(0.00107717 0 -0.131356)
(0.000530569 0 -0.12579)
(0.00148171 0 -0.143728)
(0.000898524 0 -0.137631)
(0.00194587 0 -0.157314)
(0.00131514 0 -0.150598)
(0.00248191 0 -0.172338)
(0.00178892 0 -0.164876)
(0.00310326 0 -0.18912)
(0.00232921 0 -0.180729)
(0.00381766 0 -0.208115)
(0.00294213 0 -0.198535)
(0.00461009 0 -0.229888)
(0.00362622 0 -0.218813)
(0.00555057 0 -0.259231)
(0.00437744 0 -0.244141)
(0.00635083 0 -0.291731)
(0.00506947 0 -0.274863)
(0.00678952 0 -0.327995)
(0.005458 0 -0.308928)
(0.00642403 0 -0.368609)
(0.00519416 0 -0.346939)
(0.00446279 0 -0.413191)
(0.00376132 0 -0.389277)
(0.000305151 0 -0.456947)
(0.000293008 0 -0.434779)
(-0.00421144 0 -0.487481)
(-0.00608175 0 -0.475892)
(0.00349737 0 -0.486835)
(-0.00725593 0 -0.499321)
(0.0524587 0 -0.517359)
(0.00184812 0 -0.492078)
(0.160898 0 -0.857659)
(0.105276 0 -0.590393)
(0.067892 0 -1.10284)
(0.178699 0 -1.1241)
(-0.0866853 0 -0.459093)
(-0.0934924 0 -0.999005)
(0.00787892 0 0.253755)
(-0.0553498 0 0.100158)
(0.0835409 0 0.414163)
(0.0539467 0 0.352628)
(0.169237 0 -0.218459)
(0.123373 0 0.425799)
(0.0242118 0 -0.948445)
(0.176332 0 -0.840292)
(-0.112954 0 -0.24475)
(-0.127582 0 -0.962327)
(-0.028373 0 0.545327)
(-0.0665132 0 0.492708)
(0.0315639 0 0.590426)
(0.0111905 0 0.55309)
(0.0615053 0 0.590548)
(-0.00257738 0 -0.00297667)
(-0.00301856 0 -0.0017092)
(-0.00256513 0 -0.00563445)
(-0.00302118 0 -0.00433485)
(-0.00254671 0 -0.00839168)
(-0.00299839 0 -0.00704592)
(-0.00252242 0 -0.0112602)
(-0.00297575 0 -0.00986761)
(-0.00249192 0 -0.0142504)
(-0.00294835 0 -0.0127996)
(-0.00245458 0 -0.0173857)
(-0.00291405 0 -0.0158649)
(-0.00240977 0 -0.0206912)
(-0.00287254 0 -0.0190878)
(-0.00235695 0 -0.024193)
(-0.00282327 0 -0.022494)
(-0.00229568 0 -0.0279174)
(-0.00276578 0 -0.0261098)
(-0.00222542 0 -0.0318897)
(-0.00269962 0 -0.0299612)
(-0.00214555 0 -0.0361347)
(-0.00262424 0 -0.0340732)
(-0.00205529 0 -0.0406775)
(-0.00253895 0 -0.0384704)
(-0.00195371 0 -0.0455443)
(-0.00244294 0 -0.0431784)
(-0.00183974 0 -0.0507641)
(-0.00233526 0 -0.0482247)
(-0.00171216 0 -0.0563689)
(-0.00221486 0 -0.0536396)
(-0.00156958 0 -0.0623947)
(-0.00208059 0 -0.0594571)
(-0.00141047 0 -0.0688815)
(-0.00193116 0 -0.0657152)
(-0.00123309 0 -0.0758741)
(-0.00176513 0 -0.0724562)
(-0.00103551 0 -0.0834224)
(-0.0015809 0 -0.0797273)
(-0.000815564 0 -0.0915827)
(-0.00137665 0 -0.0875817)
(-0.000570757 0 -0.100419)
(-0.00115044 0 -0.0960789)
(-0.000298173 0 -0.110003)
(-0.000900211 0 -0.105287)
(5.66538e-06 0 -0.120419)
(-0.000623661 0 -0.115283)
(0.000344936 0 -0.131769)
(-0.000318078 0 -0.126159)
(0.000724617 0 -0.144175)
(1.98219e-05 0 -0.138024)
(0.00115052 0 -0.1578)
(0.00039373 0 -0.151019)
(0.00162892 0 -0.172867)
(0.000806635 0 -0.165327)
(0.00216349 0 -0.189693)
(0.00125994 0 -0.181209)
(0.00274768 0 -0.208717)
(0.00174812 0 -0.199035)
(0.00334651 0 -0.230479)
(0.0022548 0 -0.219301)
(0.00394802 0 -0.259726)
(0.00273065 0 -0.244542)
(0.00425324 0 -0.292007)
(0.00300011 0 -0.275066)
(0.00399044 0 -0.327817)
(0.00280273 0 -0.308753)
(0.00270417 0 -0.367574)
(0.00176928 0 -0.346081)
(-0.000306345 0 -0.410885)
(-0.000629668 0 -0.38727)
(-0.00539569 0 -0.45379)
(-0.0048326 0 -0.431387)
(-0.0106078 0 -0.487896)
(-0.0123338 0 -0.472418)
(-0.00555985 0 -0.50464)
(-0.0122886 0 -0.502686)
(0.0397473 0 -0.565132)
(-0.00697264 0 -0.522283)
(0.124183 0 -0.859327)
(0.0858333 0 -0.646684)
(0.037734 0 -1.02463)
(0.13087 0 -1.06647)
(-0.0896428 0 -0.441752)
(-0.101551 0 -0.914087)
(0.000826781 0 0.199022)
(-0.0594802 0 0.039845)
(0.0725671 0 0.363877)
(0.0423259 0 0.304801)
(0.146954 0 -0.199074)
(0.109705 0 0.376208)
(0.0219737 0 -0.859804)
(0.150243 0 -0.756972)
(-0.0940275 0 -0.228321)
(-0.109715 0 -0.884993)
(-0.0150297 0 0.499962)
(-0.0506507 0 0.440043)
(0.0376218 0 0.553029)
(0.023351 0 0.517989)
(0.0607628 0 0.555273)
(-0.00345945 0 -0.00300463)
(-0.00396141 0 -0.00172713)
(-0.0034468 0 -0.00568151)
(-0.00396645 0 -0.0043742)
(-0.0034278 0 -0.00845437)
(-0.00394174 0 -0.0071023)
(-0.00340275 0 -0.0113369)
(-0.0039184 0 -0.00993847)
(-0.00337139 0 -0.0143408)
(-0.00389057 0 -0.0128842)
(-0.00333313 0 -0.0174899)
(-0.00385576 0 -0.0159632)
(-0.00328736 0 -0.0208092)
(-0.0038138 0 -0.0191999)
(-0.00323358 0 -0.0243243)
(-0.00376418 0 -0.0226196)
(-0.00317135 0 -0.0280616)
(-0.00370646 0 -0.0262484)
(-0.00310021 0 -0.0320464)
(-0.00364025 0 -0.0301122)
(-0.00301957 0 -0.0363038)
(-0.00356505 0 -0.0342364)
(-0.00292876 0 -0.040859)
(-0.00348028 0 -0.0386456)
(-0.00282695 0 -0.0457384)
(-0.00338523 0 -0.0433657)
(-0.00271323 0 -0.050971)
(-0.00327913 0 -0.0484241)
(-0.00258654 0 -0.0565891)
(-0.00316112 0 -0.0538514)
(-0.00244577 0 -0.0626285)
(-0.00303031 0 -0.0596815)
(-0.00228969 0 -0.0691294)
(-0.00288573 0 -0.0659523)
(-0.00211697 0 -0.0761364)
(-0.00272635 0 -0.0727063)
(-0.00192624 0 -0.0836998)
(-0.00255105 0 -0.0799907)
(-0.00171605 0 -0.0918757)
(-0.00235869 0 -0.0878583)
(-0.00148484 0 -0.100728)
(-0.00214822 0 -0.096369)
(-0.00123098 0 -0.110329)
(-0.0019188 0 -0.10559)
(-0.000952747 0 -0.120763)
(-0.00166974 0 -0.1156)
(-0.000648354 0 -0.132132)
(-0.00140036 0 -0.12649)
(-0.000316159 0 -0.144558)
(-0.00111018 0 -0.138369)
(4.4929e-05 0 -0.158204)
(-0.000799454 0 -0.151375)
(0.000434229 0 -0.173289)
(-0.000470913 0 -0.165693)
(0.000845815 0 -0.190125)
(-0.000131026 0 -0.181578)
(0.00125889 0 -0.209134)
(0.000203611 0 -0.199389)
(0.00161891 0 -0.230824)
(0.000503548 0 -0.219595)
(0.00183437 0 -0.259883)
(0.000676772 0 -0.244685)
(0.00162044 0 -0.291821)
(0.000512953 0 -0.274923)
(0.000681745 0 -0.327042)
(-0.000242606 0 -0.308127)
(-0.00139525 0 -0.365838)
(-0.00193391 0 -0.344696)
(-0.00517918 0 -0.407886)
(-0.00507788 0 -0.384747)
(-0.0108001 0 -0.450191)
(-0.00964157 0 -0.427639)
(-0.0158298 0 -0.487617)
(-0.0174908 0 -0.469065)
(-0.0112747 0 -0.520518)
(-0.0165109 0 -0.505723)
(0.0279172 0 -0.603934)
(-0.0128732 0 -0.54841)
(0.0891348 0 -0.854869)
(0.0652144 0 -0.687496)
(0.00474587 0 -0.957638)
(0.0846167 0 -1.01021)
(-0.0963881 0 -0.433468)
(-0.110925 0 -0.846664)
(-0.00768696 0 0.145765)
(-0.0675911 0 -0.0192892)
(0.0603909 0 0.317165)
(0.0295564 0 0.259416)
(0.126302 0 -0.183346)
(0.0951851 0 0.332268)
(0.0177843 0 -0.784989)
(0.127127 0 -0.684627)
(-0.0782922 0 -0.218055)
(-0.0954173 0 -0.820942)
(-0.00362605 0 0.457948)
(-0.0359167 0 0.390265)
(0.042759 0 0.520217)
(0.0340672 0 0.487065)
(0.0599392 0 0.525154)
(-0.00446477 0 -0.00303336)
(-0.0050207 0 -0.00174555)
(-0.00445192 0 -0.00572963)
(-0.0050288 0 -0.00441422)
(-0.00443268 0 -0.00851835)
(-0.00500211 0 -0.00715939)
(-0.00440739 0 -0.011415)
(-0.00497845 0 -0.01001)
(-0.00437584 0 -0.0144325)
(-0.00495077 0 -0.0129693)
(-0.00433752 0 -0.0175953)
(-0.00491618 0 -0.0160617)
(-0.00429189 0 -0.0209279)
(-0.00487467 0 -0.0193117)
(-0.00423848 0 -0.024456)
(-0.0048258 0 -0.0227443)
(-0.0041769 0 -0.0282057)
(-0.00476919 0 -0.0263855)
(-0.00410674 0 -0.0322025)
(-0.00470449 0 -0.0302611)
(-0.00402755 0 -0.0364715)
(-0.00463131 0 -0.0343966)
(-0.00393875 0 -0.0410381)
(-0.00454918 0 -0.0388169)
(-0.00383972 0 -0.045929)
(-0.00445758 0 -0.0435478)
(-0.0037297 0 -0.0511731)
(-0.0043559 0 -0.048617)
(-0.00360794 0 -0.0568026)
(-0.00424355 0 -0.0540549)
(-0.0034736 0 -0.0628535)
(-0.00411996 0 -0.0598956)
(-0.00332586 0 -0.0693658)
(-0.00398454 0 -0.0661768)
(-0.00316393 0 -0.0763842)
(-0.0038367 0 -0.0729408)
(-0.00298706 0 -0.0839588)
(-0.00367591 0 -0.0802348)
(-0.00279465 0 -0.0921456)
(-0.00350178 0 -0.0881116)
(-0.00258624 0 -0.101008)
(-0.00331427 0 -0.0966305)
(-0.00236166 0 -0.110619)
(-0.00311384 0 -0.105859)
(-0.00212107 0 -0.121063)
(-0.00290148 0 -0.115875)
(-0.00186529 0 -0.132439)
(-0.00267862 0 -0.126768)
(-0.00159616 0 -0.144871)
(-0.00244752 0 -0.138647)
(-0.0013173 0 -0.158518)
(-0.00221235 0 -0.151651)
(-0.00103575 0 -0.173598)
(-0.00198114 0 -0.165958)
(-0.000766406 0 -0.190411)
(-0.00176723 0 -0.18182)
(-0.000541482 0 -0.209363)
(-0.00159645 0 -0.199581)
(-0.000429116 0 -0.230929)
(-0.00150879 0 -0.219687)
(-0.000596766 0 -0.259725)
(-0.00163147 0 -0.244574)
(-0.00129043 0 -0.291239)
(-0.00219141 0 -0.274461)
(-0.00277877 0 -0.325804)
(-0.0034194 0 -0.307135)
(-0.00543632 0 -0.363648)
(-0.00559779 0 -0.342925)
(-0.00965272 0 -0.404574)
(-0.00919988 0 -0.381936)
(-0.0153381 0 -0.446628)
(-0.0137609 0 -0.423849)
(-0.0197538 0 -0.487372)
(-0.0212239 0 -0.466121)
(-0.0155058 0 -0.533976)
(-0.0195193 0 -0.508555)
(0.0165983 0 -0.632634)
(-0.016295 0 -0.569813)
(0.0563058 0 -0.844511)
(0.0438892 0 -0.713968)
(-0.0191512 0 -0.900129)
(0.0423394 0 -0.959905)
(-0.104109 0 -0.432116)
(-0.119312 0 -0.790026)
(-0.0184636 0 0.0941702)
(-0.0779037 0 -0.076386)
(0.0476117 0 0.273903)
(0.0163766 0 0.215366)
(0.10754 0 -0.170443)
(0.0804508 0 0.292315)
(0.0137921 0 -0.722354)
(0.108112 0 -0.622129)
(-0.0641863 0 -0.213835)
(-0.081833 0 -0.768957)
(0.0096726 0 0.419128)
(-0.0234294 0 0.341026)
(0.0476459 0 0.492167)
(0.04381 0 0.46175)
(0.0595577 0 0.499885)
(-0.00558022 0 -0.0030625)
(-0.00618236 0 -0.00176419)
(-0.00556735 0 -0.00577813)
(-0.00619418 0 -0.00445429)
(-0.0055482 0 -0.00858259)
(-0.00616543 0 -0.00721623)
(-0.00552312 0 -0.0114931)
(-0.00614177 0 -0.010081)
(-0.00549198 0 -0.0145239)
(-0.00611475 0 -0.0130532)
(-0.00545436 0 -0.0176997)
(-0.00608099 0 -0.0161584)
(-0.00540979 0 -0.0210451)
(-0.00604066 0 -0.0194209)
(-0.00535784 0 -0.0245856)
(-0.00599343 0 -0.0228656)
(-0.00529821 0 -0.0283469)
(-0.00593896 0 -0.0265182)
(-0.00523056 0 -0.0323548)
(-0.00587699 0 -0.0304047)
(-0.00515456 0 -0.0366345)
(-0.00580723 0 -0.0345504)
(-0.00506982 0 -0.0412115)
(-0.00572937 0 -0.0389804)
(-0.00497585 0 -0.0461123)
(-0.00564303 0 -0.0437207)
(-0.0048722 0 -0.0513662)
(-0.00554786 0 -0.0487988)
(-0.00475835 0 -0.0570053)
(-0.00544354 0 -0.0542453)
(-0.00463385 0 -0.0630653)
(-0.00532984 0 -0.060094)
(-0.00449832 0 -0.0695863)
(-0.00520657 0 -0.0663827)
(-0.00435154 0 -0.0766128)
(-0.00507364 0 -0.0731534)
(-0.00419346 0 -0.0841946)
(-0.0049311 0 -0.0804531)
(-0.00402437 0 -0.0923875)
(-0.00477936 0 -0.0883341)
(-0.00384495 0 -0.101255)
(-0.00461937 0 -0.0968556)
(-0.00365645 0 -0.110868)
(-0.00445292 0 -0.106084)
(-0.00346098 0 -0.121312)
(-0.00428258 0 -0.116097)
(-0.00326181 0 -0.132684)
(-0.00411171 0 -0.126984)
(-0.00306402 0 -0.145108)
(-0.00394509 0 -0.138852)
(-0.00287546 0 -0.158739)
(-0.00379035 0 -0.151837)
(-0.00270864 0 -0.173791)
(-0.00366002 0 -0.166116)
(-0.00258541 0 -0.190554)
(-0.00357283 0 -0.181931)
(-0.00254674 0 -0.209413)
(-0.00356141 0 -0.199614)
(-0.00266957 0 -0.230817)
(-0.00367309 0 -0.219586)
(-0.00317895 0 -0.259302)
(-0.00406091 0 -0.244234)
(-0.00426392 0 -0.290353)
(-0.00495223 0 -0.273738)
(-0.00616804 0 -0.324259)
(-0.00653857 0 -0.305866)
(-0.00916768 0 -0.361234)
(-0.00901986 0 -0.340925)
(-0.0134646 0 -0.401259)
(-0.0128039 0 -0.379072)
(-0.0187732 0 -0.443418)
(-0.0171024 0 -0.42031)
(-0.0223389 0 -0.487425)
(-0.0236916 0 -0.463744)
(-0.0181633 0 -0.544728)
(-0.0215521 0 -0.511338)
(0.00592493 0 -0.651626)
(-0.0184596 0 -0.585872)
(0.026372 0 -0.829956)
(0.0230395 0 -0.727599)
(-0.0424837 0 -0.850487)
(0.0068838 0 -0.914001)
(-0.11153 0 -0.434705)
(-0.125132 0 -0.743995)
(-0.0305081 0 0.044352)
(-0.0886915 0 -0.130401)
(0.0347457 0 0.233009)
(0.00259165 0 0.171863)
(0.0914497 0 -0.16057)
(0.0660126 0 0.254512)
(0.0123718 0 -0.67008)
(0.0943671 0 -0.56941)
(-0.0514565 0 -0.214806)
(-0.0670547 0 -0.726404)
(0.0208174 0 0.383292)
(-0.0131434 0 0.292843)
(0.0523102 0 0.469057)
(0.0534713 0 0.440755)
(0.0598695 0 0.479052)
(-0.00679081 0 -0.00309155)
(-0.00743253 0 -0.0017828)
(-0.00677811 0 -0.00582615)
(-0.00744851 0 -0.00449383)
(-0.00675932 0 -0.00864587)
(-0.00741763 0 -0.00727203)
(-0.00673483 0 -0.0115697)
(-0.00739421 0 -0.0101503)
(-0.00670459 0 -0.014613)
(-0.00736818 0 -0.0131348)
(-0.00666826 0 -0.0178011)
(-0.00733565 0 -0.0162518)
(-0.00662544 0 -0.0211583)
(-0.00729701 0 -0.0195258)
(-0.00657578 0 -0.0247101)
(-0.00725201 0 -0.0229816)
(-0.00651904 0 -0.0284821)
(-0.0072004 0 -0.0266446)
(-0.006455 0 -0.0325)
(-0.00714198 0 -0.0305406)
(-0.00638345 0 -0.036789)
(-0.00707659 0 -0.0346951)
(-0.00630417 0 -0.0413747)
(-0.00700405 0 -0.0391334)
(-0.00621689 0 -0.0462839)
(-0.00692419 0 -0.0438812)
(-0.00612139 0 -0.0515456)
(-0.00683689 0 -0.0489663)
(-0.00601748 0 -0.0571918)
(-0.00674213 0 -0.0544191)
(-0.00590507 0 -0.0632583)
(-0.00663999 0 -0.0602732)
(-0.00578425 0 -0.0697848)
(-0.0065307 0 -0.0665663)
(-0.00565535 0 -0.0768157)
(-0.00641465 0 -0.0733401)
(-0.00551904 0 -0.0844003)
(-0.00629249 0 -0.0806413)
(-0.00537648 0 -0.0925942)
(-0.00616535 0 -0.0885218)
(-0.00522941 0 -0.10146)
(-0.00603517 0 -0.0970402)
(-0.00508046 0 -0.111069)
(-0.00590493 0 -0.106263)
(-0.00493345 0 -0.121503)
(-0.00577864 0 -0.116265)
(-0.00479383 0 -0.132862)
(-0.0056613 0 -0.127136)
(-0.00466946 0 -0.145264)
(-0.00555981 0 -0.138981)
(-0.00457163 0 -0.158864)
(-0.00548471 0 -0.151934)
(-0.00451718 0 -0.173868)
(-0.005452 0 -0.166167)
(-0.00453295 0 -0.190559)
(-0.00548409 0 -0.181917)
(-0.00466541 0 -0.2093)
(-0.00561809 0 -0.199501)
(-0.0049952 0 -0.230514)
(-0.00590549 0 -0.219317)
(-0.00578869 0 -0.258662)
(-0.00651636 0 -0.243705)
(-0.00717202 0 -0.289246)
(-0.00766558 0 -0.272815)
(-0.00933778 0 -0.322534)
(-0.00949919 0 -0.304422)
(-0.0124735 0 -0.358777)
(-0.0121325 0 -0.338834)
(-0.0166057 0 -0.398159)
(-0.0158941 0 -0.376317)
(-0.0213037 0 -0.440698)
(-0.0198199 0 -0.417178)
(-0.024056 0 -0.487752)
(-0.0253959 0 -0.461909)
(-0.0202402 0 -0.552669)
(-0.0232949 0 -0.513882)
(-0.00419061 0 -0.662105)
(-0.0207278 0 -0.596572)
(0.00133093 0 -0.811912)
(0.00406395 0 -0.73128)
(-0.0615099 0 -0.807884)
(-0.0209751 0 -0.872107)
(-0.117283 0 -0.440121)
(-0.128532 0 -0.706813)
(-0.0433371 0 -0.00332495)
(-0.0989806 0 -0.179698)
(0.0218275 0 0.192857)
(-0.0128011 0 0.12842)
(0.0785218 0 -0.1551)
(0.051804 0 0.216716)
(0.0154016 0 -0.626762)
(0.0864 0 -0.52733)
(-0.0389199 0 -0.219222)
(-0.0497514 0 -0.69019)
(0.0310304 0 0.350122)
(-0.00448083 0 0.24621)
(0.0572642 0 0.450317)
(0.0634665 0 0.423266)
(0.0608914 0 0.462576)
(-0.00808365 0 -0.00312018)
(-0.00876046 0 -0.00180132)
(-0.00807119 0 -0.00587312)
(-0.00878072 0 -0.00453264)
(-0.00805286 0 -0.00870742)
(-0.00874763 0 -0.00732644)
(-0.00802913 0 -0.0116438)
(-0.00872452 0 -0.0102174)
(-0.00800002 0 -0.0146987)
(-0.00869958 0 -0.0132133)
(-0.0079653 0 -0.0178979)
(-0.00866842 0 -0.0163411)
(-0.00792463 0 -0.0212659)
(-0.00863166 0 -0.0196255)
(-0.00787775 0 -0.0248278)
(-0.00858918 0 -0.0230911)
(-0.00782448 0 -0.0286092)
(-0.00854077 0 -0.0267631)
(-0.00776471 0 -0.0326356)
(-0.00848634 0 -0.0306674)
(-0.00769838 0 -0.0369325)
(-0.00842582 0 -0.0348294)
(-0.00762543 0 -0.0415253)
(-0.0083592 0 -0.0392741)
(-0.00754581 0 -0.0464408)
(-0.00828649 0 -0.0440277)
(-0.00745954 0 -0.051708)
(-0.0082078 0 -0.0491177)
(-0.00736673 0 -0.0573589)
(-0.00812338 0 -0.0545743)
(-0.00726767 0 -0.0634289)
(-0.00803366 0 -0.0604311)
(-0.00716287 0 -0.0699575)
(-0.00793925 0 -0.0667255)
(-0.00705323 0 -0.0769889)
(-0.00784098 0 -0.0734989)
(-0.00694007 0 -0.0845719)
(-0.00774004 0 -0.0807975)
(-0.00682533 0 -0.0927614)
(-0.00763824 0 -0.0886729)
(-0.00671176 0 -0.101619)
(-0.00753842 0 -0.0971827)
(-0.0066032 0 -0.111216)
(-0.00744466 0 -0.106392)
(-0.00650492 0 -0.121634)
(-0.00736213 0 -0.116377)
(-0.00642419 0 -0.132968)
(-0.00729718 0 -0.127224)
(-0.00637104 0 -0.145337)
(-0.00725839 0 -0.139036)
(-0.00635941 0 -0.158892)