/*--------------------------------*- C++ -*----------------------------------*\
  =========                 |
  \\      /  F ield         | OpenFOAM: The Open Source CFD Toolbox
   \\    /   O peration     | Website:  https://openfoam.org
    \\  /    A nd           | Version:  9
     \\/     M anipulation  |
\*---------------------------------------------------------------------------*/
FoamFile
{
    format      ascii;
    class       volScalarField;
    location    "0.17";
    object      p;
}
// * * * * * * * * * * * * * * * * * * * * * * * * * * * * * * * * * * * * * //

dimensions      [1 -1 -2 0 0 0 0];

internalField   nonuniform List<scalar> 
5000
(
3.20722
2.93341
1.99336
1.25258
2.87485
2.32829
3.45959
3.17089
3.4133
3.16598
3.20649
3.14822
2.99555
2.69744
1.85567
0.863082
1.1997
1.92976
2.7168
3.02044
3.18559
3.27903
3.33878
3.37601
3.39249
3.38495
3.36193
3.35384
3.36478
3.37876
3.38976
3.39751
3.40297
3.40691
3.40983
3.41204
3.41374
3.41504
3.41605
3.41682
3.41741
3.41785
3.41818
3.41842
3.41859
3.41871
3.41879
3.41884
3.41888
3.41892
3.22371
3.07885
2.57965
2.23931
2.84994
2.93204
3.86551
3.23124
3.62842
3.27826
3.2915
3.19404
3.03554
2.78786
2.17469
1.55248
1.67319
2.1249
2.77716
3.02508
3.18268
3.27144
3.32703
3.36081
3.37816
3.38268
3.38006
3.38027
3.38455
3.38999
3.39555
3.40051
3.40457
3.40776
3.41022
3.4121
3.41353
3.41462
3.41542
3.41601
3.41643
3.41672
3.4169
3.417
3.41705
3.41706
3.41704
3.41702
3.417
3.41699
3.31792
3.301
3.17595
2.98029
3.26458
3.45416
4.09945
3.45541
3.82812
3.42895
3.4153
3.28477
3.13934
2.96807
2.62226
2.20408
2.24615
2.52413
2.94321
3.08408
3.21534
3.28738
3.33449
3.36451
3.38172
3.38845
3.38893
3.39069
3.39447
3.39837
3.40208
3.40534
3.40805
3.41023
3.41194
3.41326
3.41425
3.41498
3.41549
3.41582
3.41601
3.41608
3.41606
3.41599
3.41587
3.41573
3.41557
3.41541
3.41525
3.41509
3.43544
3.49182
3.56986
3.51154
3.727
3.7979
4.17753
3.66674
3.92582
3.56805
3.54779
3.40049
3.27627
3.15994
3.00719
2.75949
2.80274
2.92659
3.12395
3.17493
3.27133
3.31934
3.35464
3.37811
3.39187
3.3978
3.39847
3.39999
3.40292
3.40591
3.4086
3.41077
3.41245
3.41373
3.41468
3.41537
3.41583
3.41611
3.41623
3.41622
3.41609
3.41588
3.41561
3.41529
3.41495
3.4146
3.41424
3.41389
3.41354
3.41321
3.53487
3.62341
3.79787
3.85635
4.05642
3.99763
4.17957
3.82909
3.97817
3.67883
3.65991
3.5137
3.4137
3.32979
3.2898
3.17657
3.23105
3.23755
3.27296
3.27141
3.33319
3.35726
3.38016
3.39553
3.4046
3.40897
3.41001
3.4113
3.41292
3.41444
3.41578
3.41679
3.41747
3.4179
3.41811
3.41816
3.41807
3.41785
3.41752
3.4171
3.41661
3.41606
3.41548
3.41487
3.41426
3.41365
3.41305
3.41246
3.41189
3.41135
3.61373
3.71718
3.94082
4.07043
4.22831
4.10986
4.16799
3.94691
4.02263
3.77194
3.75094
3.61453
3.53863
3.47574
3.49756
3.46641
3.52147
3.45635
3.39055
3.36127
3.39188
3.39638
3.40824
3.41561
3.41997
3.42209
3.42259
3.42312
3.42344
3.42354
3.42351
3.42331
3.42298
3.42253
3.422
3.42138
3.4207
3.41995
3.41914
3.41828
3.41739
3.41648
3.41556
3.41464
3.41373
3.41283
3.41196
3.41111
3.41029
3.4095
3.67919
3.78768
4.0324
4.18962
4.30872
4.17621
4.16089
4.02936
4.0663
3.85522
3.82681
3.70273
3.64795
3.59924
3.65325
3.66678
3.71094
3.61016
3.48579
3.44085
3.44474
3.43463
3.43702
3.43706
3.4369
3.43633
3.43539
3.43466
3.43374
3.43264
3.43143
3.43014
3.42883
3.42752
3.42623
3.42494
3.42364
3.42233
3.42102
3.4197
3.41839
3.4171
3.41582
3.41456
3.41333
3.41213
3.41096
3.40982
3.40872
3.40767
3.73287
3.83878
4.09
4.25496
4.3328
4.2084
4.15333
4.08293
4.1005
3.92633
3.88957
3.7785
3.74056
3.70043
3.77062
3.8063
3.83236
3.71762
3.56311
3.50901
3.49149
3.47084
3.46504
3.45862
3.45434
3.451
3.44826
3.44606
3.44385
3.4416
3.43931
3.43703
3.43482
3.43269
3.43065
3.42868
3.42676
3.42489
3.42306
3.42128
3.41954
3.41785
3.4162
3.4146
3.41303
3.41151
3.41002
3.40858
3.40718
3.40584
3.77456
3.87122
4.12477
4.28557
4.32006
4.21323
4.14378
4.1125
4.1196
3.98124
3.93881
3.84127
3.81613
3.78044
3.85637
3.89941
3.906
3.7886
3.62392
3.56514
3.53191
3.50391
3.49119
3.47938
3.47153
3.46564
3.46109
3.45737
3.45386
3.45044
3.44709
3.44387
3.4408
3.43789
3.43512
3.43248
3.42994
3.42751
3.42517
3.42293
3.42077
3.41868
3.41666
3.4147
3.41279
3.41093
3.40912
3.40736
3.40565
3.40401
3.80538
3.88712
4.1462
4.29036
4.28455
4.20037
4.13368
4.12386
4.1244
4.01941
3.97515
3.89122
3.87521
3.84149
3.91593
3.9564
3.94507
3.83161
3.66993
3.60965
3.56582
3.53302
3.51478
3.49878
3.48797
3.47981
3.47357
3.46842
3.46364
3.45909
3.45474
3.45061
3.44671
3.44303
3.43955
3.43624
3.43311
3.43013
3.4273
3.4246
3.42202
3.41954
3.41714
3.41482
3.41256
3.41036
3.40822
3.40614
3.40412
3.40218
3.82856
3.89436
4.15891
4.27287
4.24164
4.17851
4.12267
4.1233
4.11939
4.04215
4.00186
3.92982
3.91956
3.88659
3.95519
3.98728
3.96125
3.85521
3.7038
3.64399
3.59349
3.55791
3.53556
3.51647
3.50329
3.49318
3.48542
3.47893
3.473
3.46742
3.46213
3.45715
3.45245
3.44803
3.44385
3.43992
3.4362
3.4327
3.42938
3.42624
3.42325
3.42037
3.4176
3.41491
3.4123
3.40977
3.4073
3.4049
3.40258
3.40034
3.8417
3.90507
4.16613
4.23842
4.20078
4.15318
4.10777
4.11566
4.11031
4.0572
4.01816
3.95862
3.95173
3.91899
3.97918
3.99984
3.96517
3.86682
3.72825
3.67005
3.61567
3.57882
3.55357
3.5323
3.51725
3.50553
3.49643
3.48877
3.48181
3.47531
3.46917
3.46339
3.45794
3.45281
3.44798
3.44344
3.43917
3.43517
3.43139
3.42782
3.42441
3.42115
3.418
3.41495
3.41199
3.40912
3.40633
3.40362
3.40101
3.39849
3.85305
3.91819
4.1556
4.19456
4.17062
4.12877
4.08824
4.10212
4.1008
4.0651
4.03046
3.98002
3.97436
3.94147
3.99174
3.99977
3.96354
3.87152
3.74547
3.68962
3.63319
3.59614
3.56894
3.54622
3.52971
3.51673
3.50652
3.49786
3.49
3.48268
3.47577
3.46925
3.4631
3.45731
3.45187
3.44677
3.442
3.43751
3.43329
3.42929
3.42547
3.42182
3.41829
3.41489
3.41159
3.40839
3.40529
3.40229
3.3994
3.39661
3.86163
3.9209
4.13484
4.1549
4.14812
4.10931
4.06433
4.08575
4.0933
4.07007
4.03953
3.99549
3.98954
3.95619
3.99583
3.99134
3.95931
3.87232
3.75713
3.70423
3.64673
3.61031
3.58183
3.55823
3.54069
3.52674
3.51565
3.50616
3.49754
3.48948
3.48187
3.47468
3.46789
3.4615
3.45551
3.4499
3.44465
3.43971
3.43505
3.43063
3.42641
3.42236
3.41846
3.4147
3.41106
3.40755
3.40415
3.40088
3.39774
3.3947
3.86643
3.91872
4.10367
4.11906
4.13236
4.09699
4.04308
4.06915
4.08835
4.07416
4.04574
4.00606
3.99873
3.9647
3.99361
3.97781
3.95354
3.87111
3.7647
3.71505
3.65688
3.62174
3.59247
3.56843
3.55021
3.53558
3.52382
3.51365
3.50438
3.49569
3.48745
3.47965
3.4723
3.46538
3.4589
3.45282
3.44711
3.44174
3.43665
3.43181
3.42718
3.42274
3.41847
3.41436
3.4104
3.40659
3.40292
3.3994
3.39602
3.39277
3.86839
3.91544
4.06719
4.08339
4.12075
4.09662
4.02787
4.05425
4.085
4.07752
4.04929
4.01248
4.00303
3.96831
3.98687
3.96168
3.94667
3.86905
3.76985
3.7227
3.66423
3.63081
3.60116
3.57703
3.55841
3.54332
3.53106
3.52034
3.51051
3.50126
3.49248
3.48417
3.47633
3.46895
3.46203
3.45552
3.44938
3.44358
3.43807
3.43281
3.42778
3.42295
3.41832
3.41387
3.4096
3.4055
3.40158
3.39783
3.39425
3.3908
3.86797
3.9106
4.02804
4.0483
4.11033
4.10535
4.02262
4.0438
4.08223
4.07935
4.05023
4.01528
4.00335
3.96815
3.97711
3.94458
3.93909
3.86618
3.77431
3.72552
3.67143
3.63818
3.60827
3.58426
3.56543
3.55005
3.5374
3.52624
3.51594
3.50622
3.49699
3.48825
3.48
3.47222
3.4649
3.45799
3.45145
3.44522
3.43929
3.43362
3.42819
3.42298
3.418
3.41323
3.40866
3.40431
3.40015
3.39619
3.39242
3.38879
3.86522
3.90416
3.99027
4.01515
4.09855
4.11566
4.02592
4.03985
4.07956
4.07872
4.04843
4.01481
4.00047
3.96515
3.96561
3.92768
3.93079
3.86254
3.77729
3.72774
3.67619
3.64378
3.61405
3.59033
3.57141
3.55585
3.5429
3.53137
3.52069
3.5106
3.50101
3.49192
3.48332
3.4752
3.46752
3.46023
3.45328
3.44665
3.44031
3.43424
3.42842
3.42285
3.41753
3.41245
3.40762
3.40302
3.39865
3.39449
3.39055
3.38676
3.86065
3.89758
3.95931
3.98609
4.08414
4.12081
4.03238
4.0442
4.07221
4.07483
4.04365
4.01137
3.99494
3.9599
3.95339
3.91207
3.92139
3.85965
3.77714
3.72952
3.67944
3.64797
3.61871
3.5954
3.57648
3.5608
3.54761
3.5358
3.52483
3.51445
3.50458
3.49522
3.48633
3.4779
3.46988
3.46222
3.45489
3.44786
3.44112
3.43466
3.42847
3.42257
3.41693
3.41158
3.40649
3.40166
3.39709
3.39275
3.38864
3.38469
3.85542
3.89276
3.93943
3.96424
4.06742
4.11684
4.03657
4.04956
4.06467
4.06574
4.03571
4.00516
3.98712
3.95274
3.94102
3.89851
3.9107
3.85667
3.77504
3.7303
3.68163
3.65119
3.62249
3.5996
3.58072
3.56499
3.55163
3.5396
3.52842
3.51784
3.50776
3.49817
3.48903
3.48031
3.47196
3.46395
3.45625
3.44884
3.44173
3.43491
3.42839
3.42217
3.41625
3.41064
3.40532
3.40028
3.39551
3.39099
3.38671
3.3826
3.85109
3.89185
3.93297
3.95024
4.05095
4.1036
4.03614
4.05282
4.0539
4.0536
4.02513
3.9964
3.97731
3.94393
3.92867
3.88696
3.89854
3.85275
3.77179
3.73011
3.68295
3.65367
3.62556
3.60308
3.58427
3.56852
3.55504
3.54288
3.53156
3.52083
3.51059
3.50081
3.49143
3.48243
3.47377
3.46542
3.45736
3.44961
3.44216
3.43502
3.4282
3.42171
3.41554
3.4097
3.40416
3.39892
3.39395
3.38925
3.38478
3.38049
3.8494
3.8972
3.94315
3.95528
4.02787
4.07777
4.03006
4.05121
4.04058
4.03867
4.01226
3.9854
3.96584
3.93381
3.91647
3.87729
3.88515
3.84744
3.76813
3.72925
3.68367
3.65556
3.62802
3.60596
3.58724
3.57151
3.55797
3.54573
3.53432
3.52348
3.5131
3.50313
3.49352
3.48425
3.47528
3.46661
3.45824
3.45018
3.44243
3.43502
3.42795
3.42122
3.41485
3.4088
3.40307
3.39764
3.39249
3.38758
3.3829
3.37838
3.85165
3.9088
3.96337
3.96598
4.00741
4.04689
4.01954
4.04372
4.02537
4.02174
3.99759
3.97269
3.95318
3.92283
3.9046
3.86922
3.87062
3.8405
3.76462
3.728
3.684
3.65697
3.63
3.60835
3.58975
3.57408
3.56053
3.54825
3.53678
3.52584
3.51531
3.50515
3.49531
3.48576
3.47651
3.46755
3.4589
3.45057
3.44258
3.43494
3.42767
3.42077
3.41422
3.40802
3.40214
3.39655
3.39124
3.38615
3.38124
3.37639
3.85828
3.92436
3.98972
3.9763
3.98785
4.01336
4.00617
4.03068
4.00891
4.00371
3.98193
3.95901
3.93995
3.91148
3.89321
3.86204
3.85584
3.83206
3.761
3.72645
3.68403
3.65797
3.63158
3.61036
3.59193
3.57636
3.56281
3.55051
3.53898
3.52792
3.51724
3.50687
3.49678
3.48698
3.47747
3.46826
3.45936
3.45082
3.44263
3.43483
3.4274
3.42035
3.41368
3.40736
3.4014
3.39576
3.39044
3.38545
3.38082
3.37637
3.8679
3.93892
4.01403
3.98154
3.96759
3.98169
3.99153
4.01327
3.99198
3.98559
3.96621
3.94512
3.92674
3.90024
3.88236
3.85517
3.84152
3.82264
3.75707
3.72454
3.68377
3.65862
3.63287
3.6121
3.5939
3.57845
3.56491
3.55257
3.54094
3.52975
3.51888
3.50829
3.49797
3.48793
3.47818
3.46875
3.45967
3.45095
3.44261
3.43467
3.42711
3.41994
3.41314
3.4067
3.40061
3.39484
3.38937
3.38421
3.37939
3.37468
3.8774
3.94664
4.02745
3.97815
3.94689
3.95609
3.97697
3.99318
3.97525
3.96843
3.95122
3.93166
3.91403
3.88942
3.87214
3.84841
3.82835
3.81227
3.75269
3.72226
3.68323
3.659
3.63395
3.61368
3.59573
3.58041
3.56687
3.55445
3.54269
3.53132
3.52025
3.50943
3.49889
3.48863
3.47868
3.46908
3.45985
3.451
3.44254
3.43448
3.4268
3.41951
3.41257
3.40598
3.39972
3.39376
3.38808
3.38266
3.37751
3.37261
3.88295
3.94413
4.02513
3.96467
3.92838
3.93867
3.96324
3.97259
3.95937
3.95282
3.93743
3.919
3.90209
3.87917
3.8625
3.84153
3.8169
3.80094
3.74794
3.71965
3.6825
3.65921
3.63493
3.61517
3.59749
3.58228
3.5687
3.55616
3.54422
3.53265
3.52136
3.51033
3.49957
3.48913
3.47903
3.46929
3.45994
3.45099
3.44243
3.43426
3.42647
3.41904
3.41196
3.40521
3.39876
3.3926
3.38672
3.38108
3.3757
3.37061
3.88158
3.93137
4.00183
3.94946
3.91561
3.92814
3.95117
3.95343
3.94479
3.93887
3.92488
3.90719
3.89091
3.86945
3.85328
3.83417
3.8068
3.78943
3.74306
3.71682
3.68167
3.65934
3.63587
3.61662
3.5992
3.58406
3.5704
3.55769
3.54555
3.53376
3.52225
3.51102
3.50009
3.48949
3.47927
3.46943
3.45998
3.45094
3.44229
3.43402
3.42612
3.41856
3.41133
3.40442
3.39779
3.39145
3.38538
3.37956
3.37398
3.36868
3.87247
3.91101
3.96929
3.9307
3.9078
3.92405
3.94073
3.93697
3.93158
3.92623
3.91326
3.89601
3.88031
3.86007
3.84426
3.82612
3.79768
3.77856
3.73836
3.71396
3.68086
3.65948
3.63683
3.61805
3.60085
3.58574
3.57196
3.55906
3.5467
3.53468
3.52297
3.51156
3.50048
3.48977
3.47945
3.46952
3.46
3.45088
3.44214
3.43377
3.42575
3.41806
3.41069
3.40361
3.39682
3.3903
3.38404
3.37803
3.37228
3.36678
3.85753
3.88537
3.93242
3.91206
3.90361
3.92239
3.93194
3.9235
3.91946
3.91423
3.90201
3.88508
3.87001
3.85081
3.83529
3.81751
3.78939
3.76898
3.73405
3.71126
3.68019
3.65969
3.63782
3.61947
3.60244
3.58731
3.57337
3.56027
3.54768
3.53546
3.52357
3.51202
3.50082
3.49002
3.47962
3.46962
3.46003
3.45082
3.44199
3.43351
3.42536
3.41753
3.41
3.40276
3.39579
3.3891
3.38266
3.37648
3.37055
3.36488
3.83961
3.85768
3.89586
3.89489
3.90061
3.92061
3.92335
3.9122
3.90781
3.90213
3.89052
3.87401
3.85973
3.84153
3.82633
3.80861
3.78195
3.76106
3.7303
3.7089
3.67972
3.66002
3.63886
3.62085
3.60395
3.58877
3.57466
3.56135
3.54857
3.53617
3.52413
3.51246
3.50117
3.49029
3.47981
3.46974
3.46006
3.45076
3.44182
3.43321
3.42493
3.41694
3.40925
3.40185
3.39471
3.38784
3.38124
3.37489
3.3688
3.36299
3.82179
3.83149
3.86348
3.87851
3.89564
3.91574
3.91425
3.90174
3.89588
3.8893
3.87832
3.86253
3.84928
3.83218
3.81745
3.79983
3.77541
3.75492
3.72722
3.70701
3.67952
3.66049
3.63994
3.6222
3.60539
3.59013
3.57587
3.56237
3.54941
3.53687
3.52471
3.51294
3.50157
3.49061
3.48006
3.4699
3.46012
3.4507
3.44163
3.43288
3.42444
3.4163
3.40844
3.40087
3.39357
3.38654
3.37977
3.37327
3.36704
3.36108
3.80632
3.80946
3.83678
3.8624
3.88708
3.9069
3.90307
3.89063
3.88306
3.87543
3.86519
3.85051
3.8386
3.82282
3.80885
3.79155
3.76982
3.75049
3.72486
3.70564
3.67958
3.66109
3.64106
3.62352
3.60677
3.59144
3.57704
3.5634
3.5503
3.53764
3.52538
3.51353
3.50207
3.49102
3.48037
3.4701
3.4602
3.45064
3.44141
3.4325
3.4239
3.41559
3.40756
3.39982
3.39236
3.38518
3.37827
3.37163
3.36526
3.35918
3.79428
3.79292
3.81599
3.84667
3.87499
3.89401
3.88955
3.87801
3.86909
3.86057
3.8512
3.83807
3.8278
3.8136
3.80074
3.78415
3.7652
3.74754
3.72321
3.70481
3.67992
3.66185
3.64223
3.62485
3.60815
3.59276
3.57827
3.56451
3.5513
3.53854
3.5262
3.51425
3.5027
3.49154
3.48077
3.47036
3.4603
3.45058
3.44118
3.43209
3.42331
3.41482
3.40663
3.39872
3.39111
3.38378
3.37673
3.36996
3.36347
3.35728
3.78582
3.78194
3.80076
3.83194
3.86056
3.87814
3.87411
3.8638
3.85416
3.84508
3.83669
3.82543
3.81704
3.80473
3.79336
3.77789
3.76153
3.74576
3.72221
3.70448
3.68052
3.66277
3.6435
3.62625
3.60961
3.59419
3.57963
3.56578
3.55249
3.53964
3.5272
3.51515
3.50348
3.49219
3.48126
3.47068
3.46044
3.45053
3.44094
3.43166
3.42269
3.41402
3.40565
3.39758
3.38982
3.38235
3.37517
3.36828
3.36168
3.35537
3.78041
3.77568
3.79037
3.8189
3.84539
3.8609
3.85769
3.84859
3.83878
3.82951
3.82216
3.81297
3.80659
3.79641
3.7869
3.77295
3.75877
3.74485
3.72181
3.70462
3.6814
3.6639
3.64494
3.6278
3.61123
3.59581
3.58121
3.5673
3.55392
3.54098
3.52843
3.51625
3.50444
3.49298
3.48186
3.47109
3.46064
3.45052
3.44071
3.43122
3.42205
3.4132
3.40466
3.39643
3.38852
3.38091
3.3736
3.36659
3.35988
3.35347
3.77715
3.77277
3.78377
3.80797
3.83081
3.84382
3.84131
3.83321
3.82362
3.81447
3.80816
3.80105
3.79672
3.78884
3.78148
3.7694
3.75685
3.74458
3.72194
3.70522
3.68259
3.66531
3.64662
3.6296
3.61312
3.59771
3.58308
3.56911
3.55565
3.5426
3.52992
3.51759
3.50559
3.49393
3.4826
3.47159
3.46091
3.45055
3.44052
3.43082
3.42145
3.4124
3.40368
3.39529
3.38722
3.37948
3.37204
3.36491
3.35808
3.35156
3.77512
3.77182
3.77983
3.79917
3.8177
3.82798
3.82586
3.81849
3.80929
3.80048
3.79517
3.79004
3.7877
3.7822
3.77719
3.76722
3.75574
3.74477
3.72258
3.70628
3.68417
3.66708
3.64865
3.63175
3.61537
3.59998
3.58532
3.57128
3.55772
3.54454
3.53169
3.51917
3.50696
3.49507
3.48349
3.47223
3.46129
3.45069
3.44042
3.43048
3.4209
3.41165
3.40275
3.39419
3.38597
3.37807
3.3705
3.36324
3.3563
3.34966
3.77356
3.77169
3.77747
3.79221
3.80642
3.81403
3.81194
3.80504
3.7963
3.78796
3.78359
3.78026
3.77976
3.77661
3.77405
3.76631
3.75544
3.74531
3.72375
3.70783
3.68622
3.66931
3.65113
3.63436
3.61806
3.60268
3.58799
3.57386
3.56016
3.54682
3.53378
3.52103
3.50858
3.49642
3.48456
3.47303
3.46182
3.45095
3.44043
3.43026
3.42045
3.411
3.4019
3.39316
3.38477
3.37672
3.369
3.36161
3.35453
3.34777
3.77201
3.7716
3.77588
3.78671
3.79703
3.80219
3.79987
3.79326
3.78498
3.7772
3.77368
3.77193
3.77309
3.77219
3.77207
3.76657
3.75598
3.7462
3.7255
3.70994
3.68883
3.67209
3.65416
3.63749
3.62127
3.60588
3.59112
3.57687
3.56301
3.54947
3.5362
3.5232
3.51046
3.49802
3.48587
3.47404
3.46254
3.4514
3.44061
3.43019
3.42015
3.41047
3.40117
3.39223
3.38365
3.37543
3.36755
3.36001
3.35279
3.34589
3.77025
3.77119
3.77453
3.7823
3.78938
3.79243
3.78975
3.78337
3.77551
3.76835
3.76563
3.76522
3.76785
3.76906
3.77126
3.76788
3.75738
3.74758
3.72793
3.7127
3.69209
3.67552
3.65779
3.64122
3.62504
3.60961
3.59475
3.58035
3.5663
3.55252
3.53899
3.5257
3.51266
3.4999
3.48744
3.4753
3.4635
3.45207
3.441
3.43032
3.42002
3.41011
3.40058
3.39143
3.38265
3.37423
3.36617
3.35846
3.35108
3.34402
3.76826
3.77036
3.77325
3.77874
3.78329
3.78461
3.78157
3.77541
3.76796
3.76146
3.75953
3.76026
3.76418
3.76731
3.77166
3.77019
3.75972
3.74964
3.73118
3.7162
3.69608
3.67964
3.6621
3.64559
3.62942
3.61392
3.59892
3.58434
3.57005
3.55601
3.54218
3.52857
3.51521
3.50212
3.48933
3.47686
3.46475
3.45301
3.44165
3.43068
3.42011
3.40994
3.40016
3.39077
3.38177
3.37314
3.36487
3.35696
3.3494
3.34216
3.76614
3.76923
3.772
3.77589
3.77855
3.77859
3.77525
3.76933
3.76234
3.75652
3.75537
3.7571
3.76216
3.76704
3.77331
3.77349
3.76306
3.75261
3.73536
3.72054
3.70087
3.68453
3.66714
3.65063
3.63443
3.61882
3.60366
3.58885
3.5743
3.55996
3.54581
3.53187
3.51816
3.50472
3.49158
3.47878
3.46633
3.45426
3.44258
3.43131
3.42044
3.40998
3.39993
3.39028
3.38103
3.37216
3.36366
3.35553
3.34775
3.34031
3.76403
3.76798
3.77083
3.77366
3.77503
3.77416
3.77066
3.76502
3.7586
3.7535
3.75309
3.75576
3.76187
3.76836
3.77628
3.77782
3.76753
3.75674
3.74063
3.72583
3.70653
3.69022
3.67292
3.65639
3.64011
3.62436
3.60898
3.59392
3.57907
3.56441
3.54992
3.53562
3.52155
3.50775
3.49424
3.48108
3.46828
3.45586
3.44384
3.43223
3.42105
3.41028
3.39992
3.38998
3.38045
3.3713
3.36255
3.35416
3.34615
3.33848
3.76208
3.76678
3.76984
3.77205
3.77258
3.77118
3.76766
3.76238
3.75661
3.7523
3.75265
3.7562
3.7633
3.77133
3.78067
3.78326
3.77324
3.76221
3.7471
3.73215
3.71311
3.69675
3.67948
3.66288
3.64649
3.63055
3.61493
3.59958
3.58442
3.56942
3.55456
3.53989
3.52544
3.51125
3.49736
3.48381
3.47063
3.45783
3.44545
3.43348
3.42194
3.41083
3.40014
3.38988
3.38003
3.37058
3.36153
3.35287
3.34459
3.33666
3.76041
3.76577
3.76912
3.77102
3.77111
3.76946
3.7661
3.76129
3.75625
3.75281
3.75394
3.7584
3.76647
3.77596
3.78657
3.78992
3.78032
3.76921
3.75491
3.73961
3.72066
3.70417
3.68687
3.67014
3.65359
3.63742
3.62155
3.60589
3.59039
3.57502
3.55979
3.54472
3.52987
3.51527
3.50097
3.487
3.47341
3.46021
3.44743
3.43507
3.42315
3.41166
3.4006
3.38998
3.37978
3.37
3.36063
3.35165
3.34307
3.33486
3.75906
3.76504
3.76873
3.77056
3.77051
3.76888
3.76583
3.76159
3.75738
3.75489
3.75688
3.76228
3.7714
3.78223
3.79404
3.79793
3.7889
3.77788
3.76416
3.74829
3.72925
3.71252
3.69511
3.6782
3.66145
3.64504
3.62887
3.61289
3.59703
3.58128
3.56565
3.55016
3.53488
3.51984
3.5051
3.49069
3.47666
3.46302
3.4498
3.43702
3.42467
3.41277
3.40131
3.3903
3.37972
3.36957
3.35984
3.35052
3.3416
3.33307
3.75809
3.76463
3.76871
3.77066
3.77071
3.76932
3.76672
3.76316
3.75987
3.75841
3.76134
3.76778
3.77807
3.79022
3.80311
3.80741
3.79911
3.78833
3.77496
3.7583
3.73895
3.72187
3.70426
3.68712
3.67014
3.65345
3.63696
3.62063
3.6044
3.58824
3.57218
3.55626
3.54051
3.525
3.50979
3.4949
3.48039
3.46628
3.45259
3.43934
3.42653
3.41418
3.40228
3.39083
3.37983
3.36928
3.35916
3.34946
3.34018
3.33129
3.75747
3.76456
3.76906
3.77129
3.77164
3.77066
3.76865
3.7659
3.76361
3.76322
3.7672
3.77479
3.78638
3.79992
3.8139
3.81846
3.81107
3.80067
3.78742
3.76973
3.74986
3.7323
3.71441
3.69697
3.67971
3.66271
3.64589
3.62919
3.61255
3.59596
3.57945
3.56304
3.54681
3.53079
3.51507
3.49967
3.48464
3.47001
3.4558
3.44204
3.42873
3.41589
3.40351
3.39159
3.38014
3.36914
3.35859
3.34848
3.3388
3.32954
3.7572
3.76481
3.76979
3.77242
3.77322
3.77281
3.77153
3.76967
3.76842
3.76924
3.77436
3.78322
3.79627
3.81131
3.82651
3.83126
3.8249
3.81501
3.80164
3.7827
3.76208
3.74391
3.72563
3.70784
3.69025
3.67291
3.65573
3.63862
3.62155
3.6045
3.58749
3.57057
3.5538
3.53725
3.52097
3.50501
3.48942
3.47423
3.45946
3.44515
3.4313
3.41792
3.40502
3.3926
3.38065
3.36917
3.35816
3.34759
3.33748
3.3278
3.75724
3.76539
3.77087
3.77401
3.77541
3.7757
3.77525
3.77438
3.77426
3.77632
3.78271
3.79298
3.80766
3.82437
3.84093
3.84611
3.84076
3.83148
3.81776
3.79735
3.77573
3.7568
3.73803
3.71982
3.70186
3.68414
3.66655
3.64901
3.63146
3.61391
3.59636
3.57889
3.56154
3.5444
3.52752
3.51096
3.49476
3.47896
3.46359
3.44868
3.43425
3.42029
3.40683
3.39385
3.38137
3.36937
3.35785
3.3468
3.33622
3.32609
3.75756
3.76625
3.7723
3.77604
3.77814
3.77925
3.77972
3.77993
3.78102
3.78442
3.79218
3.80403
3.82056
3.83917
3.85723
3.86317
3.85876
3.85018
3.83591
3.81384
3.79097
3.77113
3.75174
3.73303
3.71463
3.69647
3.67843
3.66041
3.64235
3.62425
3.60612
3.58804
3.57007
3.55229
3.53476
3.51754
3.50069
3.48423
3.46822
3.45267
3.4376
3.42302
3.40895
3.39538
3.38232
3.36976
3.35769
3.34611
3.33502
3.32439
3.75811
3.76737
3.77403
3.77847
3.78138
3.7834
3.7849
3.78627
3.78864
3.79346
3.80272
3.81636
3.83496
3.85576
3.87559
3.8825
3.87911
3.87123
3.85624
3.83231
3.80796
3.78703
3.76689
3.74758
3.72867
3.71002
3.69147
3.67291
3.65428
3.63557
3.61682
3.59809
3.57944
3.56097
3.54274
3.52481
3.50724
3.49008
3.47337
3.45712
3.44137
3.42613
3.4114
3.39719
3.3835
3.37034
3.35768
3.34552
3.33388
3.32273
3.75886
3.76872
3.77605
3.78126
3.78508
3.78811
3.79073
3.79334
3.79708
3.80341
3.81431
3.82993
3.85095
3.87428
3.89619
3.90423
3.90199
3.89474
3.87891
3.85297
3.82687
3.80467
3.78363
3.7636
3.74408
3.72486
3.70574
3.68658
3.66733
3.64796
3.62852
3.60907
3.5897
3.57047
3.55148
3.53279
3.51446
3.49654
3.47907
3.46209
3.4456
3.42964
3.4142
3.39931
3.38495
3.37112
3.35783
3.34505
3.33281
3.32108
3.75976
3.77025
3.77831
3.78439
3.7892
3.79335
3.79717
3.80111
3.80631
3.81425
3.82696
3.84479
3.86858
3.89494
3.9192
3.92856
3.92754
3.92087
3.9041
3.876
3.84792
3.82423
3.80211
3.78123
3.76099
3.7411
3.72132
3.7015
3.68155
3.66147
3.64128
3.62106
3.60089
3.58086
3.56104
3.54153
3.52238
3.50365
3.48537
3.46758
3.45031
3.43357
3.41738
3.40174
3.38665
3.37212
3.35814
3.3447
3.33181
3.31946
3.76077
3.77194
3.78079
3.78781
3.79371
3.79906
3.80419
3.80956
3.81632
3.82601
3.84072
3.86106
3.88799
3.91788
3.94484
3.95573
3.95589
3.94979
3.93197
3.90162
3.8713
3.8459
3.82248
3.80059
3.77951
3.75884
3.73831
3.71774
3.69703
3.67616
3.65516
3.6341
3.61307
3.59216
3.57147
3.55107
3.53104
3.51142
3.49227
3.47362
3.45551
3.43794
3.42093
3.40449
3.38863
3.37334
3.35862
3.34447
3.33088
3.31787
3.76182
3.77372
3.78345
3.79149
3.79857
3.80522
3.81177
3.81867
3.82712
3.83872
3.85566
3.87886
3.90936
3.94338
3.97323
3.98598
3.98725
3.98163
3.96272
3.93002
3.89721
3.86984
3.8449
3.82181
3.79974
3.77818
3.7568
3.73538
3.71382
3.69208
3.67019
3.64823
3.62627
3.60443
3.58279
3.56145
3.54046
3.5199
3.49981
3.48024
3.46121
3.44275
3.42487
3.40758
3.39088
3.37478
3.35927
3.34434
3.33002
3.3163
3.76287
3.77556
3.78622
3.79538
3.80373
3.81179
3.81987
3.82844
3.83873
3.85242
3.87187
3.89834
3.93288
3.97144
4.00482
4.01953
4.02184
4.01655
3.99654
3.96142
3.92586
3.89625
3.86952
3.84503
3.82179
3.7992
3.77685
3.75449
3.73199
3.7093
3.68644
3.66349
3.64053
3.61768
3.59503
3.57266
3.55066
3.52909
3.508
3.48744
3.46744
3.44802
3.4292
3.411
3.39341
3.37645
3.3601
3.34437
3.32926
3.31477
3.76386
3.77739
3.78906
3.79942
3.80915
3.81873
3.82846
3.83886
3.85116
3.8672
3.88949
3.91967
3.95882
4.00239
4.03973
4.05656
4.05987
4.05472
4.03363
3.99602
3.95746
3.9253
3.8965
3.87036
3.84577
3.82199
3.79854
3.77513
3.75158
3.72784
3.70392
3.6799
3.65587
3.63194
3.60819
3.58473
3.56164
3.53899
3.51683
3.49521
3.47416
3.45372
3.4339
3.41473
3.39619
3.3783
3.36106
3.34447
3.32854
3.31329
3.76471
3.77915
3.79191
3.80356
3.81477
3.82598
3.83751
3.8499
3.86443
3.88309
3.90862
3.94303
3.98738
4.03647
4.07806
4.09723
4.1015
4.09634
4.07421
4.03406
3.99223
3.95719
3.92599
3.89795
3.8718
3.84666
3.82196
3.79735
3.77264
3.74775
3.72268
3.6975
3.6723
3.6472
3.62228
3.59765
3.5734
3.54959
3.52629
3.50354
3.48139
3.45986
3.43898
3.41877
3.39923
3.38037
3.36219
3.34469
3.3279
3.31189
3.76536
3.78077
3.79469
3.80773
3.82051
3.83349
3.84697
3.86153
3.87854
3.90015
3.92937
3.96858
4.01875
4.07382
4.11984
4.14173
4.1469
4.14162
4.1185
4.07577
4.03038
3.99211
3.95815
3.92791
3.89996
3.87328
3.84717
3.82123
3.79523
3.76906
3.74272
3.71628
3.68983
3.66346
3.63729
3.61141
3.58592
3.56089
3.53638
3.51245
3.48913
3.46647
3.44448
3.42319
3.40261
3.38274
3.36358
3.34513
3.32739
3.31051
3.76572
3.78216
3.79733
3.81184
3.82631
3.84118
3.85675
3.87369
3.89344
3.91838
3.95181
3.99645
4.05307
4.11454
4.1653
4.18997
4.19615
4.19078
4.16676
4.1214
4.07217
4.03029
3.99318
3.9604
3.93039
3.90193
3.87424
3.84681
3.81936
3.79179
3.76408
3.73626
3.70844
3.68072
3.6532
3.626
3.59919
3.57287
3.54709
3.5219
3.49737
3.47351
3.45036
3.42792
3.40622
3.38526
3.36504
3.34555
3.32678
3.30896
3.76571
3.78324
3.79973
3.81579
3.83206
3.84894
3.86677
3.88629
3.90908
3.93776
3.97596
4.02672
4.09041
4.15864
4.21433
4.24192
4.24936
4.24401
4.2192
4.17122
4.11787
4.07198
4.03128
3.99558
3.96319
3.93272
3.90322
3.87412
3.84509
3.81597
3.78673
3.75743
3.72813
3.69896
3.67001
3.64139
3.6132
3.58551
3.55838
3.53189
3.50607
3.48095
3.45657
3.43293
3.41006
3.38796
3.36663
3.34608
3.32629
3.30745
3.76525
3.78392
3.80179
3.8195
3.83765
3.85667
3.87692
3.89923
3.92536
3.95821
4.0018
4.05939
4.13077
4.20605
4.26676
4.29754
4.30655
4.30148
4.27603
4.22547
4.16779
4.11749
4.07272
4.03364
3.9985
3.96572
3.93418
3.90321
3.8724
3.84158
3.81069
3.77977
3.74889
3.71816
3.68769
3.65758
3.62791
3.59879
3.57027
3.5424
3.51525
3.48882
3.46316
3.43829
3.41421
3.39094
3.36847
3.34681
3.32595
3.30605
3.76424
3.78409
3.8034
3.82283
3.84296
3.86423
3.88705
3.91237
3.94214
3.97964
4.02926
4.09443
4.17411
4.25669
4.32246
4.35669
4.36766
4.36327
4.3374
4.28438
4.22225
4.16714
4.11777
4.07481
4.03649
4.00104
3.96718
3.93409
3.90131
3.86861
3.83591
3.80324
3.77067
3.73828
3.7062
3.67451
3.64331
3.61269
3.58271
3.55342
3.52487
3.49709
3.47012
3.44396
3.41862
3.39413
3.37047
3.34765
3.32567
3.30471
3.76257
3.78363
3.80445
3.82565
3.84785
3.87146
3.897
3.92553
3.95928
4.00191
4.05824
4.13175
4.22032
4.31042
4.38127
4.4192
4.43259
4.42936
4.40333
4.34813
4.28152
4.22129
4.16678
4.11935
4.07732
4.03878
4.00225
3.96677
3.93179
3.89701
3.86235
3.82779
3.7934
3.75925
3.72546
3.69212
3.65932
3.62713
3.59563
3.56486
3.53487
3.50569
3.47734
3.44986
3.42323
3.39748
3.3726
3.34859
3.32544
3.3034
3.76014
3.78244
3.80478
3.82782
3.85214
3.87821
3.90659
3.93855
3.97661
4.02489
4.08864
4.17126
4.26928
4.3671
4.44303
4.48489
4.50113
4.49956
4.47375
4.41679
4.34588
4.2803
4.22011
4.16755
4.12122
4.07907
4.03947
4.00127
3.96382
3.92675
3.88993
3.85333
3.81698
3.78097
3.74538
3.71031
3.67583
3.64202
3.60894
3.57664
3.54516
3.51453
3.48479
3.45595
3.42801
3.40098
3.37486
3.34964
3.32529
3.30212
3.75682
3.78038
3.80427
3.82917
3.85568
3.88428
3.91564
3.95124
3.99396
4.04845
4.12038
4.21285
4.32084
4.42655
4.50759
4.55344
4.57313
4.57351
4.5484
4.49033
4.41551
4.34449
4.27813
4.21976
4.16842
4.12207
4.0789
4.0376
3.99736
3.95776
3.91857
3.87975
3.84131
3.80331
3.76582
3.72893
3.6927
3.6572
3.62249
3.58862
3.55563
3.52354
3.49238
3.46216
3.43289
3.40457
3.37719
3.35073
3.32516
3.30086
3.7525
3.7773
3.80275
3.82954
3.85827
3.88947
3.92393
3.9634
4.01118
4.07249
4.15336
4.2564
4.37475
4.48849
4.57478
4.62481
4.64801
4.65075
4.627
4.56866
4.49055
4.41416
4.34122
4.27633
4.2192
4.16794
4.12062
4.07576
4.03239
3.98995
3.94817
3.90694
3.86625
3.82612
3.78662
3.74782
3.70976
3.67252
3.63614
3.60067
3.56614
3.53257
3.49999
3.46839
3.43779
3.40817
3.37951
3.35181
3.32502
3.29959
3.74705
3.77306
3.80005
3.82873
3.8597
3.89355
3.93125
3.97483
4.02811
4.09691
4.18749
4.30171
4.43068
4.5525
4.64418
4.69861
4.72537
4.73084
4.7092
4.65165
4.57108
4.48958
4.40976
4.33764
4.27386
4.21688
4.16474
4.11577
4.06883
4.02322
3.97858
3.93473
3.8916
3.8492
3.80757
3.76676
3.72682
3.68778
3.6497
3.61261
3.57653
3.54149
3.50748
3.47451
3.44258
3.41165
3.38173
3.3528
3.32482
3.29831
3.74031
3.7675
3.796
3.82653
3.85975
3.8963
3.93734
3.9853
4.04458
4.12157
4.22258
4.34844
4.4881
4.61793
4.71519
4.77423
4.80482
4.81348
4.79478
4.73923
4.65719
4.571
4.48414
4.4041
4.33276
4.26914
4.21135
4.15762
4.1066
4.05743
4.00961
3.96288
3.91712
3.8723
3.82842
3.78551
3.74361
3.70274
3.66294
3.62423
3.58661
3.5501
3.51468
3.48036
3.4471
3.41491
3.38375
3.35365
3.32453
3.297
3.73214
3.76043
3.79039
3.82274
3.85817
3.89743
3.94194
3.99457
4.06036
4.14622
4.25829
4.39604
4.54622
4.68389
4.78692
4.85097
4.88588
4.89846
4.88367
4.83139
4.74896
4.65868
4.56475
4.47618
4.39631
4.32499
4.26061
4.20131
4.14558
4.09235
4.04099
3.9911
3.94249
3.89507
3.84882
3.80373
3.75982
3.7171
3.67558
3.63525
3.59612
3.55817
3.52138
3.48574
3.45122
3.41782
3.38551
3.35432
3.32414
3.29565
3.72239
3.7517
3.78302
3.81711
3.8547
3.89667
3.94473
4.00232
4.07514
4.17051
4.29409
4.44368
4.60396
4.74922
4.85828
4.92801
4.96813
4.98569
4.97593
4.92818
4.84651
4.75283
4.65197
4.55436
4.46498
4.3848
4.31269
4.24685
4.18562
4.12774
4.07236
4.01897
3.96726
3.91708
3.86833
3.82099
3.77504
3.73045
3.68723
3.64533
3.60473
3.56541
3.52732
3.49045
3.45477
3.42027
3.38693
3.35475
3.32361
3.29426
3.7109
3.7411
3.77367
3.80939
3.84904
3.89366
3.94536
4.00816
4.08847
4.19385
4.32913
4.49027
4.66007
4.81263
4.92812
5.00449
5.05117
5.07509
5.07164
5.02967
4.94987
4.85363
4.74615
4.63912
4.53929
4.44898
4.36784
4.29429
4.22659
4.16329
4.10334
4.04603
3.99094
3.93779
3.88644
3.83678
3.78877
3.74234
3.69745
3.65404
3.61206
3.57146
3.5322
3.49423
3.45754
3.42211
3.38789
3.35487
3.3229
3.29281
3.69751
3.72845
3.7621
3.79929
3.84085
3.88804
3.94338
4.0116
4.09974
4.2154
4.36232
4.53448
4.71317
4.87286
4.99539
5.07966
5.1346
5.16651
5.17081
5.13577