/*--------------------------------*- C++ -*----------------------------------*\
  =========                 |
  \\      /  F ield         | OpenFOAM: The Open Source CFD Toolbox
   \\    /   O peration     | Website:  https://openfoam.org
    \\  /    A nd           | Version:  9
     \\/     M anipulation  |
\*---------------------------------------------------------------------------*/
FoamFile
{
    format      ascii;
    class       volScalarField;
    location    "0.17";
    object      p_rgh;
}
// * * * * * * * * * * * * * * * * * * * * * * * * * * * * * * * * * * * * * //

dimensions      [1 -1 -2 0 0 0 0];

internalField   nonuniform List<scalar> 
5000
(
-0.211718
-0.485528
-1.42557
-2.16636
-0.544081
-1.09064
0.0406558
-0.248045
-0.00563379
-0.252958
-0.212439
-0.270716
-0.423382
-0.721493
-1.56327
-2.55585
-2.21923
-1.48917
-0.70213
-0.398496
-0.233347
-0.139904
-0.08015
-0.0429205
-0.0264469
-0.0339862
-0.0570042
-0.0650908
-0.0541569
-0.0401717
-0.0291773
-0.0214212
-0.0159649
-0.0120248
-0.00910161
-0.00688954
-0.00519535
-0.00389057
-0.00288516
-0.00211319
-0.00152472
-0.001081
-0.000751425
-0.000511446
-0.000341101
-0.000223919
-0.00014601
-9.45932e-05
-5.50899e-05
-1.29194e-05
-0.193267
-0.338121
-0.837322
-1.17766
-0.567034
-0.48493
0.448533
-0.185736
0.211451
-0.138707
-0.125475
-0.222929
-0.381428
-0.62911
-1.24228
-1.86449
-1.74378
-1.29207
-0.639813
-0.391895
-0.234297
-0.145533
-0.0899448
-0.0561668
-0.0388094
-0.0342936
-0.0369161
-0.0367039
-0.032426
-0.0269838
-0.0214245
-0.0164641
-0.0123998
-0.00920989
-0.00675138
-0.00487049
-0.00343868
-0.00235678
-0.0015496
-0.000959309
-0.000540183
-0.000255088
-7.33407e-05
3.06304e-05
7.82005e-05
8.72903e-05
7.28878e-05
4.80744e-05
2.62096e-05
1.4265e-05
-0.0970943
-0.114014
-0.239056
-0.434719
-0.150425
0.0391465
0.684436
0.0404036
0.413109
0.0139387
0.000294712
-0.130243
-0.275673
-0.446943
-0.792747
-1.21093
-1.16886
-0.890884
-0.471799
-0.330933
-0.19967
-0.127633
-0.0805163
-0.050504
-0.0332929
-0.0265647
-0.0260811
-0.0243181
-0.0205409
-0.0166379
-0.0129333
-0.00967378
-0.00696249
-0.00478364
-0.00307269
-0.00175433
-0.00075959
-3.09608e-05
0.000478671
0.000809081
0.000995146
0.00106796
0.00105498
0.000979875
0.000862331
0.000718313
0.000560408
0.000397963
0.000238149
7.83889e-05
0.0223896
0.0787732
0.156811
0.0984923
0.313953
0.384848
0.764483
0.25369
0.512768
0.155003
0.134744
-0.0125565
-0.136782
-0.253104
-0.405855
-0.653558
-0.610312
-0.486463
-0.2891
-0.238113
-0.141715
-0.0937081
-0.0584051
-0.0349405
-0.0211735
-0.0152431
-0.0145793
-0.0130598
-0.0101294
-0.00713333
-0.00444631
-0.00227405
-0.000594674
0.000680138
0.00163053
0.00231745
0.00278472
0.00306475
0.00318443
0.00316915
0.00304416
0.00283407
0.00256164
0.00224668
0.00190542
0.00155084
0.00119278
0.000838617
0.00049353
0.00015834
0.123781
0.212323
0.386788
0.445264
0.645334
0.586545
0.768482
0.418001
0.567087
0.267746
0.248824
0.102618
0.0026108
-0.0812984
-0.121285
-0.234518
-0.18004
-0.173532
-0.138122
-0.139675
-0.0778981
-0.0538276
-0.0309256
-0.015555
-0.00648167
-0.00211964
-0.00107753
0.000211717
0.00183499
0.00335624
0.00469362
0.00570114
0.00638849
0.00681262
0.00702828
0.00707596
0.00698143
0.00676212
0.00643364
0.0060132
0.00551982
0.00497282
0.00439012
0.00378706
0.00317591
0.00256621
0.00196527
0.00137825
0.000808886
0.000261417
0.204608
0.308056
0.5317
0.661309
0.819188
0.700734
0.758866
0.537785
0.613511
0.362818
0.34182
0.205409
0.129505
0.0666172
0.0884366
0.0572857
0.112349
0.0472308
-0.0185722
-0.047849
-0.0172434
-0.0127438
-0.000883645
0.00648589
0.0108441
0.0129703
0.0134669
0.0139941
0.0143117
0.0144129
0.0143856
0.0141894
0.0138532
0.0134069
0.0128721
0.0122608
0.0115782
0.0108283
0.0100184
0.00916017
0.00826737
0.00735404
0.00643265
0.0055133
0.0046038
0.00371018
0.00283726
0.00198852
0.00116702
0.000378084
0.27203
0.380518
0.625236
0.782455
0.901554
0.769047
0.753727
0.6222
0.659137
0.448053
0.419652
0.295563
0.240785
0.192076
0.246085
0.259614
0.303777
0.203001
0.0786261
0.0336881
0.0375826
0.0274695
0.0298625
0.0298959
0.0297422
0.0291632
0.0282269
0.0275028
0.0265794
0.0254776
0.0242699
0.0229808
0.0216692
0.0203623
0.019066
0.0177742
0.0164777
0.0151717
0.0138576
0.0125414
0.011231
0.00993359
0.00865504
0.00739947
0.00616984
0.00496874
0.00379886
0.00266245
0.00156224
0.000505477
0.327669
0.433577
0.684803
0.849756
0.927599
0.803202
0.748127
0.677733
0.695304
0.521133
0.484365
0.373304
0.335362
0.29523
0.365423
0.401096
0.427165
0.312419
0.157906
0.103808
0.0862907
0.0656356
0.0598409
0.0534158
0.0491399
0.0458012
0.0430587
0.0408558
0.0386535
0.0363987
0.0341094
0.0318298
0.0296187
0.0274942
0.0254522
0.0234784
0.0215594
0.0196872
0.0178598
0.0160775
0.0143412
0.0126504
0.0110033
0.00939801
0.00783277
0.0063072
0.00482241
0.00337997
0.00198246
0.000639171
0.37132
0.467982
0.72153
0.882327
0.916821
0.80999
0.740542
0.709266
0.716367
0.578
0.535572
0.438034
0.412896
0.377203
0.453135
0.496172
0.502763
0.385357
0.220682
0.161903
0.128676
0.100671
0.0879489
0.076143
0.0682952
0.0624003
0.0578506
0.0541339
0.0506215
0.0472002
0.0438559
0.0406324
0.0375653
0.0346543
0.031885
0.0292396
0.0267047
0.024272
0.0219359
0.0196906
0.017529
0.0154423
0.0134216
0.011459
0.00954908
0.00768899
0.00587885
0.0041201
0.00241546
0.000774645
0.404108
0.485844
0.744927
0.889082
0.883274
0.799096
0.732407
0.722583
0.723127
0.61813
0.573873
0.489947
0.473932
0.440217
0.514651
0.555125
0.54379
0.430338
0.268656
0.208379
0.164547
0.131745
0.113504
0.0975004
0.0866939
0.0785335
0.0722977
0.0671392
0.0623649
0.0578154
0.0534623
0.0493322
0.0454348
0.0417548
0.038272
0.034969
0.0318331
0.0288544
0.0260221
0.023323
0.0207411
0.0182598
0.0158638
0.0135404
0.0112812
0.00908187
0.00694192
0.00486317
0.00284875
0.000906593
0.429247
0.495045
0.759592
0.873558
0.842328
0.779195
0.723355
0.723981
0.720073
0.642835
0.602545
0.530504
0.520249
0.48728
0.555878
0.587966
0.56194
0.455897
0.304485
0.244679
0.194181
0.1586
0.13625
0.117156
0.103973
0.0938686
0.0861038
0.0796198
0.0736863
0.0681052
0.062821
0.0578358
0.0531407
0.0487151
0.0445405
0.0406022
0.0368876
0.033383
0.0300705
0.026928
0.0239316
0.0210577
0.0182859
0.0156004
0.0129908
0.0104519
0.00798342
0.00558753
0.00326789
0.00102858
0.444344
0.507721
0.768777
0.84107
0.803433
0.755833
0.71042
0.718308
0.712962
0.659846
0.620806
0.561268
0.554382
0.521635
0.581827
0.602484
0.567815
0.469468
0.330899
0.272696
0.21832
0.181464
0.156222
0.134947
0.119898
0.108181
0.0990824
0.0914188
0.0844569
0.0779534
0.0718199
0.0660372
0.060588
0.0554551
0.0506249
0.0460856
0.0418228
0.0378164
0.0340404
0.0304646
0.0270584
0.0237932
0.0206457
0.0175983
0.0146402
0.0117661
0.00897582
0.00627208
0.00365863
0.00113411
0.457655
0.522796
0.760206
0.799166
0.775235
0.733377
0.692854
0.706733
0.705406
0.669711
0.635067
0.584631
0.578971
0.546084
0.596353
0.604382
0.568146
0.476133
0.350085
0.294226
0.237799
0.200749
0.173555
0.150827
0.134325
0.121339
0.111134
0.102467
0.0946126
0.0872876
0.0803792
0.0738575
0.067707
0.0619174
0.0564802
0.0513832
0.0466068
0.0421234
0.0378991
0.0338977
0.0300842
0.0264281
0.022905
0.0194979
0.0161962
0.0129954
0.00989527
0.00689865
0.00400874
0.00121737
0.4682
0.52747
0.741414
0.761467
0.754695
0.715884
0.670906
0.692318
0.699875
0.676646
0.646103
0.602063
0.596112
0.56276
0.602398
0.597913
0.565885
0.478888
0.363702
0.310802
0.253304
0.21688
0.1884
0.1648
0.147257
0.133309
0.122224
0.11273
0.104111
0.0960564
0.0884451
0.0812485
0.0744591
0.0680737
0.0620849
0.0564759
0.0512198
0.0462812
0.0416205
0.037198
0.032978
0.0289306
0.0250331
0.0212703
0.0176331
0.0141177
0.0107238
0.00745356
0.00430884
0.00127351
0.474963
0.527249
0.712204
0.727591
0.740895
0.705526
0.651611
0.677686
0.696882
0.682697
0.654274
0.614591
0.607265
0.573233
0.602147
0.586343
0.562074
0.479645
0.373234
0.32358
0.265416
0.230278
0.201003
0.176968
0.158743
0.144114
0.132355
0.122188
0.112916
0.10422
0.0959822
0.0881851
0.0808298
0.0739161
0.0674326
0.061355
0.0556483
0.0502713
0.0451818
0.0403405
0.035714
0.0312758
0.0270072
0.0228958
0.0189345
0.0151202
0.0114517
0.00792969
0.00455372
0.0012991
0.478883
0.525934
0.677691
0.693883
0.731249
0.707115
0.638362
0.664742
0.695494
0.688012
0.659784
0.622979
0.613524
0.578803
0.597366
0.572174
0.557168
0.479548
0.380344
0.3332
0.274723
0.241305
0.211653
0.187527
0.168903
0.15382
0.141553
0.130839
0.121011
0.111758
0.102978
0.0946646
0.0868225
0.0794486
0.0725237
0.0660147
0.0598804
0.054077
0.0485637
0.0433051
0.0382733
0.0334479
0.0288149
0.0243656
0.020095
0.0159998
0.0120774
0.00832598
0.00474191
0.00129192
0.480429
0.523061
0.640495
0.660757
0.722792
0.717807
0.635077
0.656256
0.694685
0.691804
0.66269
0.627741
0.61581
0.58061
0.589563
0.557042
0.551545
0.478639
0.386764
0.337977
0.283886
0.250642
0.220723
0.19672
0.177886
0.162511
0.149858
0.138694
0.128399
0.118679
0.109448
0.100705
0.0924533
0.0846813
0.0773598
0.0704486
0.0639035
0.0576827
0.0517504
0.0460786
0.0406472
0.0354429
0.0304573
0.0256853
0.0211228
0.016766
0.0126099
0.00864924
0.00487689
0.00125148
0.479639
0.518585
0.604688
0.62957
0.712971
0.730078
0.640337
0.654266
0.693978
0.693143
0.662853
0.629231
0.614888
0.579569
0.580029
0.5421
0.545208
0.476961
0.391713
0.342159
0.290612
0.258195
0.228467
0.204752
0.185833
0.170272
0.157318
0.145789
0.135113
0.125017
0.115427
0.106337
0.0977444
0.0896245
0.0819401
0.0746475
0.0677042
0.0610745
0.054731
0.0486555
0.0428367
0.0372688
0.0319483
0.0268726
0.0220378
0.0174385
0.0130664
0.00891266
0.00496633
0.00117884
0.477036
0.513965
0.575687
0.602468
0.700525
0.737193
0.648758
0.660581
0.688592
0.691212
0.660035
0.62775
0.61132
0.576281
0.569774
0.528454
0.53777
0.476037
0.393521
0.345903
0.29582
0.264348
0.235094
0.211778
0.192857
0.177184
0.163997
0.15218
0.14121
0.130829
0.120963
0.111597
0.102715
0.0942832
0.086259
0.0786
0.0712703
0.0642435
0.0575033
0.0510418
0.0448564
0.0389475
0.0333153
0.0279581
0.0228709
0.0180456
0.0134708
0.00913398
0.00502082
0.0010761
0.473766
0.511106
0.557773
0.582588
0.685761
0.735182
0.65491
0.667903
0.683015
0.684083
0.654052
0.623509
0.605468
0.571087
0.559363
0.516849
0.529044
0.475014
0.393381
0.348641
0.29997
0.26953
0.240836
0.217944
0.199069
0.183335
0.169974
0.157946
0.146767
0.13618
0.126105
0.116515
0.107378
0.098656
0.0903066
0.082294
0.0745926
0.0671877
0.0600747
0.053255
0.0467334
0.0405141
0.0345986
0.0289843
0.023664
0.018626
0.0138554
0.00933705
0.00505453
0.000947045
0.471401
0.512157
0.553271
0.570549
0.671253
0.723903
0.656447
0.673125
0.674203
0.673911
0.645437
0.61671
0.597615
0.56424
0.548975
0.507265
0.51885
0.473058
0.392091
0.350419
0.303258
0.273974
0.245862
0.223388
0.204581
0.188828
0.17535
0.163184
0.151866
0.141135
0.130898
0.121111
0.111737
0.102736
0.0940726
0.0857214
0.0776695
0.069915
0.0624633
0.0553235
0.0485047
0.0420121
0.0358461
0.0300011
0.0244661
0.0192256
0.0142608
0.00955391
0.00508768
0.00079788
0.471663
0.519464
0.565421
0.577546
0.650135
0.700042
0.652331
0.673481
0.662849
0.660942
0.634527
0.607666
0.588104
0.556078
0.538738
0.499557
0.507418
0.469707
0.390399
0.351521
0.305938
0.27783
0.250293
0.22823
0.20951
0.193776
0.180238
0.167996
0.15659
0.14575
0.135371
0.125398
0.115791
0.106516
0.0975504
0.0888813
0.0805093
0.0724436
0.0646976
0.0572849
0.0502153
0.0434928
0.0371143
0.0310695
0.0253425
0.0199126
0.0147557
0.00984895
0.0051704
0.000647883
0.475882
0.533032
0.587595
0.590207
0.631637
0.671121
0.64377
0.667947
0.649596
0.645974
0.62182
0.596918
0.577415
0.547056
0.528832
0.493446
0.494847
0.464725
0.388849
0.352231
0.308233
0.281205
0.254231
0.232581
0.213982
0.198309
0.184756
0.172478
0.161008
0.150068
0.139544
0.129379
0.119536
0.109994
0.100742
0.0917831
0.0831296
0.0747989
0.0668089
0.0591744
0.051904
0.0449986
0.0384513
0.032248
0.026368
0.0207847
0.0154662
0.0103774
0.00547112
0.000616119
0.484471
0.550553
0.61591
0.602495
0.614042
0.639554
0.632361
0.656875
0.635103
0.629904
0.608124
0.585198
0.566144
0.537676
0.519401
0.488235
0.482035
0.45825
0.387195
0.352639
0.310225
0.284166
0.257774
0.236552
0.218125
0.202552
0.189006
0.176704
0.165167
0.154115
0.14343
0.133059
0.122976
0.113175
0.103661
0.0944479
0.085557
0.07701
0.0688258
0.0610175
0.0535907
0.0465441
0.0398699
0.0335559
0.0275876
0.0219505
0.0166335
0.0116445
0.0070094
0.00256122
0.496058
0.567071
0.642181
0.609695
0.595746
0.609843
0.61968
0.641422
0.620133
0.613747
0.594365
0.573274
0.554896
0.52839
0.510517
0.48332
0.469673
0.45079
0.38522
0.352694
0.311922
0.286777
0.26102
0.240256
0.22205
0.206603
0.193068
0.180724
0.169096
0.157903
0.147033
0.136443
0.126123
0.116081
0.106334
0.0969068
0.0878234
0.0791055
0.0707689
0.0628218
0.0552652
0.0480931
0.0412947
0.0348554
0.0287594
0.0229894
0.0175267
0.0123629
0.00754901
0.00283105
0.50752
0.576756
0.65757
0.608269
0.577011
0.586208
0.607086
0.6233
0.605363
0.598543
0.581341
0.56178
0.54415
0.519532
0.502256
0.478523
0.458468
0.442386
0.382807
0.352374
0.313351
0.28912
0.264068
0.243795
0.225845
0.210527
0.196987
0.184566
0.172805
0.161439
0.150363
0.139549
0.129002
0.118743
0.1088
0.0991995
0.089965
0.0811141
0.0726562
0.0645929
0.0569187
0.0496224
0.0426889
0.0361001
0.0298368
0.0238784
0.0181997
0.0127738
0.00762665
0.00272453
0.515031
0.576212
0.657206
0.596745
0.560455
0.570749
0.595316
0.604665
0.591449
0.5849
0.569509
0.551082
0.534165
0.511249
0.494581
0.473613
0.448975
0.433018
0.380016
0.351725
0.314581
0.29129
0.267007
0.247246
0.229566
0.214357
0.200778
0.188237
0.176303
0.164732
0.153437
0.142405
0.131652
0.121209
0.111107
0.101371
0.0920197
0.0830637
0.0745045
0.0663363
0.0585474
0.051122
0.044042
0.037288
0.0308409
0.0246828
0.0187959
0.013157
0.00777686
0.0026871
0.515618
0.565413
0.635873
0.583505
0.549647
0.562178
0.585212
0.587468
0.578825
0.572913
0.55892
0.541232
0.524949
0.50349
0.487323
0.46821
0.440839
0.423466
0.377104
0.350864
0.315714
0.293383
0.269911
0.250659
0.233236
0.218099
0.204437
0.191735
0.179594
0.167803
0.156291
0.145056
0.134126
0.123533
0.113306
0.103465
0.0940228
0.0849796
0.0763297
0.068061
0.0601576
0.0526012
0.0453734
0.0384562
0.0318333
0.0254906
0.0194163
0.0135952
0.00802318
0.00272087
0.508469
0.547015
0.60529
0.566701
0.543798
0.560054
0.576729
0.572972
0.567579
0.562231
0.54926
0.53201
0.516314
0.49607
0.480267
0.462127
0.43368
0.414564
0.374361
0.349966
0.316867
0.295483
0.272827
0.254054
0.236855
0.221742
0.207957
0.19506
0.182697
0.170685
0.158971
0.14756
0.136484
0.125772
0.115449
0.105526
0.096006
0.0868832
0.0781449
0.0697748
0.0617545
0.0540653
0.0466898
0.0396123
0.0328189
0.0262979
0.0200398
0.0140347
0.00827804
0.0027831
0.495493
0.523337
0.570385
0.550021
0.541571
0.560352
0.569906
0.561465
0.557422
0.552197
0.539971
0.523041
0.507975
0.488776
0.473257
0.45547
0.427352
0.406949
0.372015
0.349229
0.318152
0.297659
0.275783
0.257431
0.240407
0.225274
0.211337
0.19823
0.185646
0.173429
0.161537
0.149981
0.138789
0.127983
0.117581
0.107585
0.0979903
0.0887847
0.0799512
0.0714708
0.0633246
0.0554949
0.0479659
0.0407242
0.033759
0.0270612
0.0206235
0.0144397
0.0085094
0.00284716
0.479538
0.497603
0.535788
0.53482
0.540535
0.560534
0.563276
0.552128
0.547733
0.542056
0.530449
0.513938
0.499653
0.481456
0.466254
0.448537
0.421871
0.400988
0.370227
0.348829
0.31965
0.299951
0.278784
0.260777
0.243881
0.228692
0.21459
0.201279
0.188492
0.176097
0.164058
0.152385
0.141098
0.130213
0.119737
0.109666
0.0999883
0.0906869
0.081743
0.0731372
0.0648515
0.0568703
0.0491806
0.0417721
0.0346368
0.0277686
0.0211626
0.0148141
0.00872446
0.00291114
0.463683
0.473377
0.505364
0.520403
0.537529
0.557623
0.55614
0.543627
0.537768
0.531188
0.520213
0.504414
0.491164
0.474065
0.45934
0.441714
0.417294
0.396811
0.369109
0.348896
0.321406
0.302378
0.281825
0.264087
0.247277
0.232015
0.217756
0.204262
0.191302
0.17876
0.166603
0.154833
0.143463
0.132501
0.121944
0.111785
0.102006
0.0925887
0.0835148
0.074766
0.0663268
0.0581845
0.0503294
0.0427542
0.0354535
0.0284233
0.0216601
0.0151601
0.00892466
0.00297263
0.450172
0.453311
0.480633
0.50625
0.530931
0.550754
0.546924
0.53448
0.52691
0.519279
0.50904
0.494364
0.482455
0.466665
0.452695
0.435401
0.413666
0.394341
0.36871
0.34949
0.323434
0.304945
0.284906
0.26737
0.25062
0.235287
0.220895
0.20725
0.19415
0.181491
0.169235
0.157378
0.145924
0.134874
0.124221
0.11395
0.104046
0.0944896
0.0852639
0.076354
0.0677476
0.0594358
0.0514118
0.0436712
0.0362103
0.0290264
0.0221166
0.0154775
0.0091096
0.00303095
0.440094
0.438733
0.461804
0.492486
0.520802
0.539825
0.535357
0.523818
0.514905
0.506381
0.497011
0.483879
0.473608
0.45941
0.446549
0.42996
0.411008
0.39335
0.36902
0.350619
0.32573
0.30766
0.288044
0.270661
0.253964
0.238575
0.224082
0.210322
0.197113
0.184356
0.17201
0.160063
0.148514
0.137356
0.12658
0.116171
0.106114
0.096393
0.086994
0.0779059
0.0691207
0.0606325
0.0524376
0.0445333
0.0369174
0.0295873
0.0225403
0.0157722
0.00928305
0.00308764
0.433595
0.429719
0.448537
0.479716
0.508339
0.525916
0.521886
0.511576
0.501936
0.492854
0.484464
0.473209
0.464813
0.4525
0.441132
0.425666
0.409305
0.393532
0.369988
0.352255
0.328291
0.310542
0.291278
0.27402
0.257382
0.241964
0.227403
0.213558
0.200261
0.187414
0.174975
0.162925
0.151257
0.139963
0.129034
0.118457
0.108219
0.0983078
0.0887151
0.079434
0.07046
0.0617905
0.0534237
0.0453579
0.0375913
0.0301209
0.0229432
0.0160532
0.00945003
0.00314431
0.430146
0.425412
0.440103
0.468639
0.495121
0.510638
0.507425
0.498321
0.488519
0.47925
0.471899
0.462704
0.456326
0.446146
0.436633
0.422691
0.408509
0.394586
0.371548
0.354361
0.331132
0.313634
0.294673
0.277533
0.260968
0.245545
0.230943
0.217033
0.203655
0.190715
0.178167
0.16599
0.154174
0.142714
0.131599
0.120823
0.110375
0.100252
0.090448
0.080961
0.0717901
0.0629348
0.0543944
0.0461676
0.0382519
0.0306436
0.023338
0.016329
0.00961488
0.00320182
0.42885
0.424466
0.435471
0.459671
0.48251
0.495514
0.493012
0.484906
0.475314
0.466166
0.459857
0.452748
0.448421
0.440543
0.433183
0.421103
0.40855
0.396277
0.373643
0.356919
0.334291
0.317005
0.298319
0.281297
0.264819
0.24941
0.234781
0.22081
0.207346
0.194297
0.181617
0.169283
0.157288
0.145627
0.134295
0.123289
0.112609
0.102253
0.0922222
0.0825185
0.0731433
0.0640973
0.05538
0.0469895
0.0389225
0.0311743
0.0237389
0.0166093
0.00978293
0.00326114
0.428778
0.425484
0.433489
0.45283
0.471362
0.481643
0.479522
0.472147
0.46295
0.45414
0.448829
0.443704
0.44136
0.435858
0.430853
0.42088
0.409395
0.398428
0.376244
0.359936
0.337833
0.320739
0.302313
0.285414
0.269029
0.25364
0.238984
0.224944
0.211377
0.198195
0.185353
0.17283
0.160621
0.148725
0.137146
0.125886
0.114951
0.104346
0.0940753
0.0841447
0.0745569
0.065313
0.0564121
0.0478516
0.0396269
0.0317323
0.0241612
0.016905
0.00996061
0.00332418
0.429186
0.427314
0.43309
0.447836
0.462045
0.469657
0.46756
0.460661
0.451922
0.443586
0.439207
0.435879
0.435378
0.432228
0.429673
0.421935
0.411058
0.400927
0.379368
0.36345
0.341843
0.324932
0.306756
0.289979
0.273684
0.258307
0.24361
0.22948
0.215784
0.202438
0.1894
0.176653
0.164197
0.152038
0.140185
0.12865
0.117442
0.106573
0.0960508
0.0858827
0.0760721
0.06662
0.057525
0.0487835
0.0403903
0.0323389
0.0246214
0.0172284
0.0101558
0.0033942
0.429597
0.429187
0.43346
0.44429
0.454613
0.459772
0.457451
0.450843
0.442564
0.434785
0.431267
0.42951
0.430669
0.429774
0.429654
0.42415
0.413561
0.403783
0.38308
0.367525
0.346413
0.329679
0.311739
0.295073
0.27885
0.263465
0.248702
0.234455
0.220598
0.207053
0.193785
0.180781
0.168048
0.155599
0.143451
0.131621
0.120126
0.10898
0.0981941
0.0877759
0.0777293
0.0680553
0.0587518
0.0498149
0.0412385
0.0330153
0.0251363
0.0175911
0.0103754
0.0034742
0.429799
0.430739
0.434074
0.441842
0.448926
0.451973
0.449298
0.442912
0.435054
0.427894
0.425179
0.424769
0.427395
0.428601
0.430808
0.427423
0.416931
0.407121
0.387479
0.372244
0.351633
0.335062
0.317339
0.300762
0.284583
0.26916
0.2543
0.2399
0.225846
0.212069
0.198537
0.185246
0.172209
0.159448
0.146986
0.134846
0.12305
0.111613
0.100549
0.0898654
0.0795664
0.069653
0.0601231
0.0509723
0.0421938
0.0337794
0.0257192
0.018002
0.0106236
0.00356521
0.429769
0.431865
0.43476
0.44025
0.444796
0.446123
0.443082
0.436918
0.429468
0.422964
0.421034
0.421769
0.425685
0.428815
0.433165
0.431695
0.421225
0.411145
0.392686
0.377706
0.357586
0.341151
0.323613
0.307094
0.290924
0.275427
0.260432
0.245844
0.231559
0.217515
0.203688
0.190083
0.17672
0.163628
0.150836
0.138372
0.12626
0.114517
0.103157
0.0921887
0.0816174
0.0714439
0.0616661
0.0522789
0.0432752
0.034646
0.0263809
0.0184681
0.010904
0.00366734
0.429608
0.432705
0.435466
0.439357
0.442023
0.442056
0.438723
0.432796
0.425814
0.419988
0.418836
0.420574
0.425634
0.430514
0.436777
0.436957
0.426532
0.416084
0.398834
0.38401
0.364342
0.348
0.330606
0.314104
0.297903
0.282295
0.267129
0.252317
0.237767
0.223426
0.209279
0.195337
0.181629
0.168189
0.155051
0.142246
0.129799
0.11773
0.106053
0.0947791
0.0839126
0.0734551
0.0634042
0.0537547
0.044499
0.0356279
0.0271311
0.0189965
0.011221
0.00378166
0.429464
0.433417
0.436257
0.439096
0.440458
0.439597
0.436097
0.43045
0.424031
0.418929
0.418525
0.421193
0.427302
0.433788
0.441716
0.443249
0.43296
0.422169
0.406059
0.391258
0.371962
0.355651
0.338351
0.321822
0.305547
0.289789
0.274417
0.25935
0.244506
0.229843
0.215353
0.201055
0.186984
0.173178
0.159676
0.14651
0.133707
0.121289
0.109272
0.0976666
0.0864786
0.0757095
0.065357
0.0554156
0.0458781
0.0367357
0.0279782
0.0195938
0.0115792
0.00391034
0.429479
0.434177
0.43723
0.43944
0.439974
0.438569
0.435058
0.429776
0.424005
0.419697
0.42004
0.423596
0.430696
0.43872
0.448066
0.450652
0.440633
0.429605
0.414496
0.399545
0.3805
0.364146
0.346879
0.330274
0.313883
0.29794
0.282329
0.266978
0.251817
0.23681
0.221958
0.207286
0.192834
0.178643
0.164754
0.151203
0.13802
0.125226
0.112841
0.100876
0.0893369
0.0782251
0.0675389
0.0572736
0.0474225
0.0379777
0.028929
0.0202645
0.0119814
0.00405466
0.429763
0.435127
0.438473
0.440373
0.440463
0.438817
0.435456
0.430644
0.425603
0.422165
0.423298
0.427751
0.435827
0.445312
0.45593
0.459278
0.449678
0.438566
0.424265
0.408965
0.390013
0.373525
0.356223
0.339492
0.322943
0.306781
0.290904
0.275246
0.259747
0.244378
0.229145
0.21408
0.199224
0.184624
0.170323
0.15636
0.142767
0.129569
0.116785
0.104428
0.0925034
0.0810147
0.0699605
0.0593374
0.0491397
0.0393597
0.0299874
0.0210108
0.0124277
0.00421396
0.430382
0.436356
0.440048
0.44188
0.441829
0.440202
0.437148
0.432912
0.428694
0.426204
0.428197
0.433602
0.442723
0.453552
0.465363
0.469249
0.460223
0.449193
0.435479
0.41961
0.400566
0.38384
0.366426
0.349517
0.332769
0.316357
0.30019
0.284205
0.268348
0.252598
0.236964
0.221482
0.206197
0.191159
0.176417
0.16201
0.147976
0.13434
0.121122
0.108336
0.0959904
0.0840881
0.0726301
0.0616141
0.0510351
0.0408855
0.0311556
0.0218337
0.0129185
0.0043872
0.431365
0.437908
0.441988
0.443942
0.443991
0.4426
0.440005
0.43644
0.433153
0.431685
0.434619
0.441061
0.45135
0.463496
0.476391
0.480687
0.472392
0.461605
0.448242
0.431576
0.412232
0.395153
0.377545
0.360401
0.343415
0.326726
0.310244
0.293912
0.277678
0.261523
0.245463
0.229535
0.213791
0.198285
0.183067
0.168184
0.153672
0.13956
0.12587
0.112616
0.0998094
0.0874554
0.0755564
0.0641108
0.053114
0.042559
0.0324367
0.0227359
0.0134559
0.004575
0.432712
0.439798
0.444303
0.446532
0.44688
0.445903
0.443895
0.441137
0.438849
0.438467
0.442444
0.450032
0.461625
0.47516
0.489139
0.493698
0.486309
0.475909
0.46266
0.444968
0.425102
0.407545
0.38965
0.372215
0.354951
0.337953
0.321134
0.304431
0.287793
0.271207
0.25469
0.238285
0.222047
0.206036
0.190307
0.174908
0.159879
0.14525
0.131045
0.117282
0.103974
0.0911292
0.0787501
0.0668363
0.0553839
0.0443866
0.0338363
0.0237222
0.0140437
0.00477988
0.434403
0.442018
0.446992
0.449622
0.450428
0.450017
0.448731
0.446875
0.445627
0.446441
0.451562
0.46042
0.47347
0.488511
0.503711
0.508467
0.502108
0.492216
0.478846
0.459905
0.439282
0.421111
0.402832
0.385044
0.367456
0.350117
0.332931
0.315828
0.298757
0.281705
0.264695
0.247775
0.231006
0.214451
0.198169
0.182212
0.166621
0.15143
0.136667
0.122353
0.108502
0.0951246
0.0822244
0.0698019
0.0578545
0.046377
0.0353616
0.024798
0.0146857
0.00500472
0.436407
0.444553
0.450039
0.453179
0.454576
0.454863
0.454411
0.453547
0.453423
0.455491
0.461875
0.472148
0.48683
0.503541
0.520097
0.525274
0.519924
0.510642
0.496926
0.47652
0.454899
0.43597
0.417198
0.398987
0.381024
0.363304
0.345714
0.328174
0.310631
0.293074
0.27553
0.258054
0.24071
0.223566
0.206686
0.190123
0.173923
0.158125
0.142759
0.127849
0.113412
0.0994584
0.0859939
0.0730206
0.0605373
0.0485396
0.0370198
0.025968
0.0153849
0.00525163
0.438688
0.447378
0.453425
0.45717
0.459271
0.460374
0.460852
0.461062
0.462149
0.465547
0.47331
0.485161
0.501685
0.520295
0.538363
0.544293
0.539891
0.531307
0.517037
0.494963
0.472098
0.452254
0.43287
0.414156
0.395756
0.377603
0.359562
0.34154
0.32348
0.305373
0.28725
0.26917
0.251203
0.233421
0.215892
0.198673
0.181816
0.165362
0.149347
0.133795
0.118725
0.104149
0.0900756
0.0765078
0.0634456
0.0508849
0.0388188
0.0272379
0.0161444
0.00552188
0.441205
0.450461
0.457122
0.46156
0.46447
0.466491
0.467993
0.469359
0.471734
0.47655
0.485813
0.499448
0.518049
0.538846
0.558681
0.565587
0.562202
0.554319
0.539329
0.515403
0.491047
0.470116
0.449983
0.43067
0.411757
0.393107
0.374558
0.356001
0.337373
0.318665
0.299912
0.281176
0.262533
0.244059
0.225826
0.207899
0.190333
0.173174
0.156459
0.140215
0.124463
0.109218
0.0944888
0.0802809
0.0665942
0.0534253
0.0407681
0.0286145
0.0169682
0.00581615
0.443916
0.453769
0.461101
0.466316
0.470132
0.473166
0.475784
0.478391
0.482133
0.48846
0.49936
0.51498
0.535998
0.559334
0.581239
0.589278
0.587047
0.579796
0.563963
0.538023
0.511927
0.489722
0.468683
0.448656
0.429137
0.409913
0.390787
0.371633
0.352378
0.333014
0.313574
0.294126
0.274749
0.255525
0.236533
0.217842
0.199513
0.181595
0.164127
0.147138
0.130653
0.114688
0.0992542
0.0843571
0.0699974
0.0561725
0.0428772
0.0301047
0.0178599
0.0061347
0.446778
0.457266
0.465329
0.471405
0.476217
0.48036
0.484186
0.488124
0.493322
0.501268
0.513971
0.531807
0.555597
0.581953
0.606211
0.615572
0.614554
0.607888
0.591109
0.563018
0.534934
0.511247
0.489122
0.468244
0.448008
0.428118
0.408336
0.388513
0.368568
0.348483
0.328296
0.308074
0.287902
0.267869
0.248059
0.228547
0.209397
0.190661
0.172381
0.154592
0.137319
0.120581
0.104389
0.0887501
0.0736657
0.0591346
0.0451523
0.0317124
0.0188212
0.00647747
0.449743
0.460912
0.46977
0.476789
0.482688
0.488035
0.493168
0.498535
0.505293
0.514987
0.529691
0.550035
0.576966
0.606859
0.633812
0.644708
0.644871
0.638764
0.620947
0.590593
0.560271
0.534871
0.511456
0.489566
0.468484
0.447819
0.427291
0.406719
0.386008
0.365134
0.344132
0.323072
0.302042
0.281137
0.260447
0.240051
0.220017
0.200401
0.181249
0.1626
0.144481
0.126912
0.109906
0.0934692
0.0776065
0.0623175
0.047598
0.0334415
0.0198552
0.00684662
0.45276
0.464661
0.474383
0.482428
0.489507
0.496157
0.502703
0.509612
0.518056
0.529654
0.546593
0.569796
0.600296
0.634321
0.664166
0.676917
0.678193
0.672569
0.653659
0.620956
0.588146
0.560779
0.535837
0.512751
0.490674
0.469114
0.447735
0.426322
0.404762
0.383022
0.361132
0.339164
0.317209
0.295366
0.27373
0.252383
0.231399
0.210838
0.190751
0.171179
0.152151
0.133689
0.115807
0.0985147
0.0818169
0.0657148
0.0502052
0.0352824
0.0209537
0.00723806
0.455773
0.468461
0.47912
0.488278
0.496632
0.50469
0.512765
0.521344
0.531626
0.545324
0.564774
0.591238
0.625782
0.664345
0.697725
0.712431
0.714744
0.70945
0.689438
0.654316
0.618761
0.589149
0.562421
0.537929
0.514689
0.492096
0.469748
0.447391
0.424888
0.402196
0.379338
0.356386
0.333433
0.310582
0.287929
0.265562
0.243559
0.221986
0.200898
0.180337
0.160335
0.140917
0.1221
0.103897
0.0863125
0.0693492
0.0530042
0.0372732
0.0221598
0.00767161
0.45872
0.472254
0.483926
0.494284
0.504012
0.513591
0.523323
0.533721
0.546021
0.562057
0.584349
0.614529
0.653678
0.697256
0.734595
0.751421
0.754729
0.749585
0.728489
0.690886
0.652325
0.620165
0.59136
0.565226
0.540636
0.516856
0.493407
0.469989
0.44644
0.422699
0.398785
0.374766
0.350736
0.326798
0.303053
0.279593
0.256502
0.233847
0.211688
0.190068
0.169024
0.148583
0.128766
0.109587
0.0910531
0.073166
0.0559242
0.0393297
0.0234015
0.00814803
0.461534
0.475975
0.488737
0.500386
0.511592
0.522808
0.534336
0.546723
0.561255
0.579913
0.60544
0.63985
0.684206
0.733296
0.774884
0.794052
0.798327
0.793167
0.77103
0.730889
0.68905
0.654014
0.62281
0.594771
0.56862
0.543482
0.518786
0.494179
0.469466
0.444571
0.419502
0.394324
0.369128
0.34402
0.319104
0.294475
0.270221
0.246414
0.223112
0.200365
0.178213
0.156686
0.135807
0.115593
0.0960523
0.0771921
0.0590113
0.0415117
0.0247201
0.00871204
0.464143
0.479552
0.493481
0.506513
0.519301
0.532278
0.545752
0.560313
0.577322
0.598933
0.628152
0.667366
0.717539
0.772605
0.818631
0.84052
0.845686
0.840409
0.81729
0.77456
0.729163
0.690895
0.656937
0.626697
0.598749
0.572061
0.545956
0.520017
0.494011
0.467844
0.441511
0.41507
0.388613
0.362245
0.336073
0.310198
0.284707
0.259675
0.235166
0.211232
0.187917
0.165255
0.14327
0.12198
0.101396
0.081526
0.0623673
0.0439126
0.0261713
0.00929521
0.466467
0.482906
0.498079
0.512584
0.527059
0.541924
0.557499
0.574434
0.594189
0.619127
0.652553
0.697201
0.753817
0.815292
0.866049
0.890713
0.896902
0.891526
0.867504
0.822152
0.772915
0.731034
0.693927
0.661148
0.631135
0.60268
0.574984
0.547553
0.520113
0.492542
0.464824
0.43701
0.409188
0.381466
0.353952
0.326747
0.299942
0.273615
0.247833
0.222651
0.198115
0.174257
0.151104
0.128672
0.106972
0.0860104
0.0657867
0.0462952
0.0275324
0.00970932
0.468424
0.48595
0.502439
0.518505
0.534771
0.551649
0.569484
0.589002
0.611793
0.640468
0.678668
0.729431
0.793119
0.861352
0.917037
0.944631
0.952069
0.946718
0.921906
0.873925
0.820582
0.774691
0.733993
0.698289
0.665899
0.635427
0.605932
0.57683
0.547795
0.518677
0.489444
0.460138
0.430844
0.401669
0.372722
0.344104
0.315908
0.288215
0.261095
0.234601
0.208779
0.183663
0.159277
0.135643
0.112771