/*--------------------------------*- C++ -*----------------------------------*\
  =========                 |
  \\      /  F ield         | OpenFOAM: The Open Source CFD Toolbox
   \\    /   O peration     | Website:  https://openfoam.org
    \\  /    A nd           | Version:  9
     \\/     M anipulation  |
\*---------------------------------------------------------------------------*/
FoamFile
{
    format      ascii;
    class       surfaceScalarField;
    location    "0.17";
    object      phi;
}
// * * * * * * * * * * * * * * * * * * * * * * * * * * * * * * * * * * * * * //

dimensions      [0 3 -1 0 0 0 0];

internalField   nonuniform List<scalar> 
9850
(
-1.26345e-07
1.89921e-05
8.30005e-08
2.10527e-05
8.66283e-07
2.41105e-05
-5.48531e-07
7.35828e-07
-8.95466e-07
1.63897e-06
-5.4546e-07
2.49163e-05
-2.84723e-07
1.9842e-05
-7.41856e-07
8.28281e-07
-3.77724e-07
1.51176e-05
-2.95364e-07
1.99135e-05
-2.52292e-07
1.96605e-05
-2.11761e-07
2.00247e-05
-1.49159e-07
2.10225e-05
2.54369e-09
2.25119e-05
5.77127e-07
2.47575e-05
-2.74138e-07
9.26988e-07
-8.74889e-07
3.35273e-06
-5.18541e-07
2.49891e-05
-3.91504e-07
2.24565e-05
-3.41216e-07
2.08172e-05
-3.17708e-07
1.60162e-05
-3.0305e-07
1.45432e-05
-2.91823e-07
1.32345e-05
-2.78831e-07
1.19812e-05
-2.61258e-07
1.06789e-05
-2.49435e-07
9.32145e-06
-2.60971e-07
8.19106e-06
-2.78689e-07
7.63358e-06
-2.83551e-07
7.47587e-06
-2.81059e-07
7.37079e-06
-2.77697e-07
7.20082e-06
-2.75193e-07
6.97888e-06
-2.73521e-07
6.73274e-06
-2.72396e-07
6.47882e-06
-2.71602e-07
6.22491e-06
-2.71013e-07
5.97463e-06
-2.70558e-07
5.72978e-06
-2.70196e-07
5.49136e-06
-2.69903e-07
5.25994e-06
-2.69661e-07
5.03586e-06
-2.69461e-07
4.8193e-06
-2.69294e-07
4.61036e-06
-2.69155e-07
4.40903e-06
-2.6904e-07
4.21529e-06
-2.68946e-07
4.02905e-06
-2.68871e-07
3.85022e-06
-2.68814e-07
3.67867e-06
-2.68778e-07
3.51429e-06
-2.68761e-07
3.35699e-06
3.20671e-06
9.77748e-08
1.87815e-05
4.5597e-07
2.06945e-05
1.14094e-06
2.34255e-05
-3.65725e-07
2.24249e-06
-1.51563e-06
2.78887e-06
-8.99441e-07
2.43001e-05
-2.0805e-07
1.91506e-05
-1.12367e-06
1.7439e-06
-5.89985e-07
1.45839e-05
-3.63072e-07
1.96866e-05
-2.28414e-07
1.95259e-05
-1.10786e-07
1.99071e-05
4.60903e-08
2.08657e-05
3.19958e-07
2.2238e-05
8.35404e-07
2.4242e-05
-4.92246e-07
2.25464e-06
-1.39759e-06
4.25808e-06
-9.06782e-07
2.44983e-05
-6.14702e-07
2.21644e-05
-4.81621e-07
2.06841e-05
-4.11549e-07
1.59461e-05
-3.67356e-07
1.4499e-05
-3.33351e-07
1.32005e-05
-2.99158e-07
1.1947e-05
-2.64277e-07
1.0644e-05
-2.44694e-07
9.30186e-06
-2.60386e-07
8.20676e-06
-2.86133e-07
7.65933e-06
-2.96392e-07
7.48613e-06
-2.94997e-07
7.3694e-06
-2.90189e-07
7.19601e-06
-2.85543e-07
6.97424e-06
-2.81859e-07
6.72906e-06
-2.79063e-07
6.47603e-06
-2.76932e-07
6.22278e-06
-2.75278e-07
5.97297e-06
-2.73968e-07
5.72847e-06
-2.72914e-07
5.49031e-06
-2.72056e-07
5.25908e-06
-2.71352e-07
5.03516e-06
-2.70772e-07
4.81872e-06
-2.70294e-07
4.60988e-06
-2.69902e-07
4.40864e-06
-2.69586e-07
4.21497e-06
-2.69337e-07
4.0288e-06
-2.6915e-07
3.85003e-06
-2.69023e-07
3.67854e-06
-2.6896e-07
3.51423e-06
-2.68952e-07
3.35699e-06
3.20669e-06
2.27609e-07
1.85072e-05
5.82661e-07
2.03394e-05
1.17474e-06
2.28334e-05
-4.11495e-07
3.82873e-06
-1.70845e-06
4.08582e-06
-1.02721e-06
2.36189e-05
-2.6218e-07
1.83856e-05
-1.23151e-06
2.71323e-06
-7.01684e-07
1.40541e-05
-4.02687e-07
1.93876e-05
-2.14136e-07
1.93373e-05
-3.89941e-08
1.97319e-05
1.75736e-07
2.06509e-05
4.6762e-07
2.19461e-05
9.30515e-07
2.37792e-05
-5.81408e-07
3.76656e-06
-1.62047e-06
5.29714e-06
-1.09854e-06
2.39763e-05
-7.78072e-07
2.1844e-05
-5.91547e-07
2.04976e-05
-4.88735e-07
1.58433e-05
-4.2193e-07
1.44322e-05
-3.69964e-07
1.31486e-05
-3.21242e-07
1.18983e-05
-2.734e-07
1.05962e-05
-2.48398e-07
9.27686e-06
-2.63933e-07
8.22229e-06
-2.91545e-07
7.68694e-06
-3.03425e-07
7.49801e-06
-3.02591e-07
7.36856e-06
-2.97537e-07
7.19096e-06
-2.92175e-07
6.96887e-06
-2.87564e-07
6.72445e-06
-2.8381e-07
6.47227e-06
-2.80788e-07
6.21976e-06
-2.7835e-07
5.97053e-06
-2.76369e-07
5.72649e-06
-2.74749e-07
5.48869e-06
-2.73417e-07
5.25775e-06
-2.7232e-07
5.03406e-06
-2.71416e-07
4.81782e-06
-2.70673e-07
4.60914e-06
-2.70069e-07
4.40804e-06
-2.69587e-07
4.21449e-06
-2.69212e-07
4.02843e-06
-2.68937e-07
3.84975e-06
-2.68756e-07
3.67836e-06
-2.68666e-07
3.51414e-06
-2.68653e-07
3.35697e-06
3.20669e-06
2.73298e-07
1.82092e-05
6.23456e-07
1.99892e-05
1.11223e-06
2.23446e-05
-4.15491e-07
5.35646e-06
-1.64165e-06
5.31197e-06
-1.02082e-06
2.2998e-05
-3.3777e-07
1.77026e-05
-1.25459e-06
3.63005e-06
-7.58714e-07
1.35582e-05
-4.15289e-07
1.90442e-05
-1.98428e-07
1.91205e-05
6.60588e-09
1.95269e-05
2.47029e-07
2.04105e-05
5.45297e-07
2.16478e-05
9.39275e-07
2.33852e-05
-5.8213e-07
5.28797e-06
-1.62867e-06
6.34368e-06
-1.16305e-06
2.35107e-05
-8.6259e-07
2.15435e-05
-6.57528e-07
2.02925e-05
-5.41233e-07
1.5727e-05
-4.61838e-07
1.43528e-05
-3.97875e-07
1.30846e-05
-3.38155e-07
1.18386e-05
-2.82877e-07
1.05409e-05
-2.54728e-07
9.24871e-06
-2.69245e-07
8.23681e-06
-2.96143e-07
7.71383e-06
-3.08071e-07
7.50993e-06
-3.07202e-07
7.3677e-06
-3.01794e-07
7.18555e-06
-2.95907e-07
6.96299e-06
-2.90711e-07
6.71925e-06
-2.86364e-07
6.46792e-06
-2.82772e-07
6.21617e-06
-2.79806e-07
5.96757e-06
-2.7735e-07
5.72404e-06
-2.75313e-07
5.48665e-06
-2.7362e-07
5.25606e-06
-2.72214e-07
5.03265e-06
-2.71048e-07
4.81665e-06
-2.70088e-07
4.60818e-06
-2.69304e-07
4.40725e-06
-2.68675e-07
4.21386e-06
-2.68182e-07
4.02793e-06
-2.67813e-07
3.84939e-06
-2.67557e-07
3.67811e-06
-2.67403e-07
3.51398e-06
-2.67335e-07
3.3569e-06
3.20667e-06
2.70472e-07
1.79028e-05
6.08193e-07
1.96515e-05
1.00089e-06
2.19519e-05
-3.39091e-07
6.69643e-06
-1.4482e-06
6.42109e-06
-9.23182e-07
2.2473e-05
-3.84884e-07
1.71643e-05
-1.2478e-06
4.49296e-06
-7.90269e-07
1.31007e-05
-4.16085e-07
1.867e-05
-1.84612e-07
1.8889e-05
3.28426e-08
1.93095e-05
2.81418e-07
2.01619e-05
5.72635e-07
2.13566e-05
8.90044e-07
2.30678e-05
-5.25108e-07
6.70312e-06
-1.52316e-06
7.34173e-06
-1.13977e-06
2.31273e-05
-8.8483e-07
2.12886e-05
-6.84678e-07
2.00924e-05
-5.69017e-07
1.56113e-05
-4.85002e-07
1.42688e-05
-4.14504e-07
1.30141e-05
-3.48648e-07
1.17727e-05
-2.90334e-07
1.04826e-05
-2.61742e-07
9.22012e-06
-2.74355e-07
8.24942e-06
-2.98599e-07
7.73808e-06
-3.09659e-07
7.521e-06
-3.08752e-07
7.36679e-06
-3.03244e-07
7.18004e-06
-2.97085e-07
6.95682e-06
-2.91526e-07
6.71369e-06
-2.8679e-07
6.46319e-06
-2.82816e-07
6.21219e-06
-2.7949e-07
5.96424e-06
-2.76703e-07
5.72125e-06
-2.74367e-07
5.48432e-06
-2.7241e-07
5.2541e-06
-2.70772e-07
5.03101e-06
-2.69406e-07
4.81529e-06
-2.68274e-07
4.60704e-06
-2.67344e-07
4.40632e-06
-2.66592e-07
4.21311e-06
-2.65995e-07
4.02734e-06
-2.65537e-07
3.84893e-06
-2.65203e-07
3.67777e-06
-2.64978e-07
3.51376e-06
-2.64847e-07
3.35677e-06
3.20662e-06
2.31105e-07
1.76017e-05
5.4418e-07
1.93385e-05
8.75341e-07
2.16208e-05
-2.57699e-07
7.82948e-06
-1.23043e-06
7.39381e-06
-7.90913e-07
2.20335e-05
-4.13132e-07
1.67865e-05
-1.22529e-06
5.30512e-06
-8.018e-07
1.26772e-05
-4.06089e-07
1.82743e-05
-1.71299e-07
1.86542e-05
4.70957e-08
1.90911e-05
2.9145e-07
1.99176e-05
5.6199e-07
2.10861e-05
8.22514e-07
2.28072e-05
-4.34062e-07
7.9597e-06
-1.37235e-06
8.28002e-06
-1.0679e-06
2.28229e-05
-8.64185e-07
2.10849e-05
-6.83201e-07
1.99114e-05
-5.75949e-07
1.55041e-05
-4.92651e-07
1.41855e-05
-4.2025e-07
1.29417e-05
-3.52295e-07
1.17048e-05
-2.93815e-07
1.04241e-05
-2.66195e-07
9.1925e-06
-2.76843e-07
8.26007e-06
-2.98043e-07
7.75928e-06
-3.07959e-07
7.53091e-06
-3.07085e-07
7.36592e-06
-3.01756e-07
7.17471e-06
-2.95628e-07
6.9507e-06
-2.89965e-07
6.70803e-06
-2.8505e-07
6.45827e-06
-2.80864e-07
6.20801e-06
-2.77319e-07
5.9607e-06
-2.7432e-07
5.71825e-06
-2.71787e-07
5.48178e-06
-2.69649e-07
5.25196e-06
-2.67849e-07
5.02921e-06
-2.66341e-07
4.81378e-06
-2.65085e-07
4.60579e-06
-2.64047e-07
4.40529e-06
-2.63202e-07
4.21226e-06
-2.62526e-07
4.02666e-06
-2.62001e-07
3.8484e-06
-2.61608e-07
3.67738e-06
-2.6133e-07
3.51348e-06
-2.61157e-07
3.3566e-06
3.20655e-06
1.63265e-07
1.73177e-05
4.43296e-07
1.90584e-05
7.44994e-07
2.13191e-05
-1.73508e-07
8.74799e-06
-1.03185e-06
8.25216e-06
-6.61267e-07
2.16629e-05
-4.20323e-07
1.65455e-05
-1.17982e-06
6.06462e-06
-7.90406e-07
1.22878e-05
-3.83237e-07
1.78671e-05
-1.56416e-07
1.84274e-05
5.35041e-08
1.88812e-05
2.83813e-07
1.96873e-05
5.25323e-07
2.08446e-05
7.5003e-07
2.25825e-05
-3.3009e-07
9.03982e-06
-1.20986e-06
9.15979e-06
-9.71819e-07
2.25848e-05
-8.15857e-07
2.09289e-05
-6.61511e-07
1.9757e-05
-5.66298e-07
1.54089e-05
-4.87218e-07
1.41064e-05
-4.16315e-07
1.28708e-05
-3.49073e-07
1.16375e-05
-2.92374e-07
1.03674e-05
-2.66454e-07
9.16658e-06
-2.75637e-07
8.26925e-06
-2.94281e-07
7.77792e-06
-3.03225e-07
7.53986e-06
-3.02465e-07
7.36516e-06
-2.97456e-07
7.1697e-06
-2.91549e-07
6.94479e-06
-2.85984e-07
6.70246e-06
-2.81075e-07
6.45336e-06
-2.76837e-07
6.20377e-06
-2.73208e-07
5.95707e-06
-2.70112e-07
5.71515e-06
-2.67475e-07
5.47914e-06
-2.65237e-07
5.24972e-06
-2.63342e-07
5.02732e-06
-2.61746e-07
4.81218e-06
-2.60411e-07
4.60445e-06
-2.59304e-07
4.40418e-06
-2.58397e-07
4.21135e-06
-2.57668e-07
4.02593e-06
-2.57096e-07
3.84783e-06
-2.56663e-07
3.67694e-06
-2.56352e-07
3.51317e-06
-2.56155e-07
3.3564e-06
3.20647e-06
7.59055e-08
1.70566e-05
3.15746e-07
1.88186e-05
6.05428e-07
2.10294e-05
-9.63597e-08
9.44977e-06
-8.66284e-07
9.02209e-06
-5.48711e-07
2.13453e-05
-4.03845e-07
1.64007e-05
-1.10342e-06
6.7642e-06
-7.56416e-07
1.19408e-05
-3.49603e-07
1.74603e-05
-1.3912e-07
1.82169e-05
5.45161e-08
1.86875e-05
2.6319e-07
1.94786e-05
4.71533e-07
2.06362e-05
6.72552e-07
2.23815e-05
-2.46154e-07
9.95852e-06
-1.05263e-06
9.96626e-06
-8.66779e-07
2.2399e-05
-7.51876e-07
2.0814e-05
-6.25878e-07
1.9631e-05
-5.43857e-07
1.53269e-05
-4.71239e-07
1.40338e-05
-4.04119e-07
1.28037e-05
-3.39507e-07
1.15729e-05
-2.8597e-07
1.03139e-05
-2.62382e-07
9.14299e-06
-2.70649e-07
8.27752e-06
-2.87445e-07
7.79472e-06
-2.9574e-07
7.54815e-06
-2.95229e-07
7.36464e-06
-2.90641e-07
7.16511e-06
-2.85069e-07
6.93922e-06
-2.79725e-07
6.69712e-06
-2.74949e-07
6.44859e-06
-2.70781e-07
6.1996e-06
-2.67178e-07
5.95346e-06
-2.64079e-07
5.71205e-06
-2.61422e-07
5.47649e-06
-2.59152e-07
5.24745e-06
-2.57221e-07
5.02539e-06
-2.55587e-07
4.81055e-06
-2.54213e-07
4.60308e-06
-2.53069e-07
4.40304e-06
-2.52129e-07
4.21041e-06
-2.51369e-07
4.02517e-06
-2.50769e-07
3.84723e-06
-2.5031e-07
3.67649e-06
-2.49978e-07
3.51284e-06
-2.49766e-07
3.35619e-06
3.20639e-06
-2.47911e-08
1.68245e-05
1.69247e-07
1.86245e-05
4.55652e-07
2.0743e-05
-5.25938e-08
9.95801e-06
-7.39871e-07
9.70937e-06
-4.58481e-07
2.10639e-05
-3.69228e-07
1.63114e-05
-1.00166e-06
7.39663e-06
-7.06172e-07
1.16453e-05
-3.11447e-07
1.70656e-05
-1.20794e-07
1.80262e-05
5.13039e-08
1.85154e-05
2.32842e-07
1.92971e-05
4.06744e-07
2.04623e-05
5.90754e-07
2.21975e-05
-1.8337e-07
1.07326e-05
-9.10906e-07
1.06938e-05
-7.64354e-07
2.22524e-05
-6.81895e-07
2.07315e-05
-5.81599e-07
1.95307e-05
-5.1229e-07
1.52575e-05
-4.47312e-07
1.39688e-05
-3.85324e-07
1.27417e-05
-3.24643e-07
1.15122e-05
-2.75228e-07
1.02645e-05
-2.54508e-07
9.12227e-06
-2.62523e-07
8.28553e-06
-2.77935e-07
7.81013e-06
-2.85839e-07
7.55605e-06
-2.85698e-07
7.3645e-06
-2.81625e-07
7.16104e-06
-2.76478e-07
6.93407e-06
-2.71444e-07
6.69208e-06
-2.66887e-07
6.44403e-06
-2.6287e-07
6.19558e-06
-2.59369e-07
5.94996e-06
-2.56336e-07
5.70902e-06
-2.5372e-07
5.47387e-06
-2.51473e-07
5.24521e-06
-2.49552e-07
5.02347e-06
-2.47918e-07
4.80892e-06
-2.46539e-07
4.6017e-06
-2.45386e-07
4.40188e-06
-2.44435e-07
4.20946e-06
-2.43662e-07
4.0244e-06
-2.43048e-07
3.84662e-06
-2.42575e-07
3.67601e-06
-2.42229e-07
3.51249e-06
-2.42007e-07
3.35597e-06
3.20629e-06
-1.36511e-07
1.66235e-05
1.04355e-08
1.84776e-05
2.99953e-07
2.04535e-05
-6.17014e-08
1.03197e-05
-6.55443e-07
1.03031e-05
-3.9343e-07
2.08019e-05
-3.27366e-07
1.62454e-05
-8.92498e-07
7.96175e-06
-6.51459e-07
1.14043e-05
-2.75625e-07
1.66898e-05
-1.03946e-07
1.78546e-05
4.47751e-08
1.83667e-05
1.96221e-07
1.91456e-05
3.36653e-07
2.03219e-05
5.06247e-07
2.20279e-05
-1.43099e-07
1.1382e-05
-7.9207e-07
1.13428e-05
-6.72e-07
2.21323e-05
-6.12219e-07
2.06718e-05
-5.33218e-07
1.94517e-05
-4.75175e-07
1.51995e-05
-4.18081e-07
1.39117e-05
-3.61779e-07
1.26854e-05
-3.05796e-07
1.14562e-05
-2.61096e-07
1.02198e-05
-2.43515e-07
9.10469e-06
-2.51658e-07
8.29367e-06
-2.6618e-07
7.82465e-06
-2.73914e-07
7.56379e-06
-2.74226e-07
7.36482e-06
-2.70728e-07
7.15754e-06
-2.66068e-07
6.92941e-06
-2.61408e-07
6.68742e-06
-2.57128e-07
6.43975e-06
-2.53319e-07
6.19177e-06
-2.49972e-07
5.94662e-06
-2.47054e-07
5.7061e-06
-2.44521e-07
5.47134e-06
-2.42335e-07
5.24302e-06
-2.40456e-07
5.02159e-06
-2.38851e-07
4.80731e-06
-2.37491e-07
4.60034e-06
-2.3635e-07
4.40074e-06
-2.35404e-07
4.20852e-06
-2.34632e-07
4.02363e-06
-2.34014e-07
3.846e-06
-2.33534e-07
3.67553e-06
-2.3318e-07
3.51213e-06
-2.3295e-07
3.35574e-06
3.2062e-06
-2.65238e-07
1.64697e-05
-1.48955e-07
1.83613e-05
1.45081e-07
2.01594e-05
-1.20881e-07
1.05856e-05
-6.10131e-07
1.07924e-05
-3.51466e-07
2.05433e-05
-2.89718e-07
1.61836e-05
-7.96201e-07
8.46824e-06
-6.0485e-07
1.12129e-05
-2.50729e-07
1.63356e-05
-9.07529e-08
1.76946e-05
3.59962e-08
1.82399e-05
1.57286e-07
1.90243e-05
2.6686e-07
2.02123e-05
4.21675e-07
2.18731e-05
-1.29889e-07
1.19336e-05
-6.98327e-07
1.19112e-05
-5.92825e-07
2.20268e-05
-5.46552e-07
2.06255e-05
-4.84261e-07
1.93894e-05
-4.35556e-07
1.51508e-05
-3.85879e-07
1.3862e-05
-3.35193e-07
1.26347e-05
-2.84185e-07
1.14052e-05
-2.44427e-07
1.018e-05
-2.30102e-07
9.09036e-06
-2.38693e-07
8.30226e-06
-2.52648e-07
7.83861e-06
-2.60356e-07
7.5715e-06
-2.61153e-07
7.36561e-06
-2.5825e-07
7.15464e-06
-2.54107e-07
6.92526e-06
-2.49855e-07
6.68317e-06
-2.45892e-07
6.43579e-06
-2.42326e-07
6.18821e-06
-2.39168e-07
5.94346e-06
-2.36395e-07
5.70333e-06
-2.33974e-07
5.46892e-06
-2.31873e-07
5.24092e-06
-2.30059e-07
5.01978e-06
-2.28503e-07
4.80576e-06
-2.27179e-07
4.59902e-06
-2.26063e-07
4.39963e-06
-2.25133e-07
4.20759e-06
-2.2437e-07
4.02286e-06
-2.23755e-07
3.84538e-06
-2.23272e-07
3.67505e-06
-2.22912e-07
3.51178e-06
-2.22675e-07
3.3555e-06
3.2061e-06
-3.70532e-07
1.6344e-05
-3.00707e-07
1.82915e-05
-7.39691e-09
1.98661e-05
-2.20688e-07
1.07989e-05
-5.95534e-07
1.11672e-05
-3.24182e-07
2.02719e-05
-2.67126e-07
1.61266e-05
-7.25648e-07
8.92677e-06
-5.73435e-07
1.10607e-05
-2.39164e-07
1.60014e-05
-8.17792e-08
1.75372e-05
2.63869e-08
1.81318e-05
1.20174e-07
1.89306e-05
2.02595e-07
2.01299e-05
3.41405e-07
2.17343e-05
-1.38039e-07
1.2413e-05
-6.26134e-07
1.23993e-05
-5.25656e-07
2.19264e-05
-4.86401e-07
2.05862e-05
-4.36729e-07
1.93398e-05
-3.95478e-07
1.51095e-05
-3.52348e-07
1.38189e-05
-3.06865e-07
1.25892e-05
-2.60818e-07
1.13592e-05
-2.25954e-07
1.01451e-05
-2.14833e-07
9.07924e-06
-2.24055e-07
8.31148e-06
-2.37684e-07
7.85224e-06
-2.4546e-07
7.57927e-06
-2.4675e-07
7.3669e-06
-2.44437e-07
7.15232e-06
-2.40814e-07
6.92164e-06
-2.36983e-07
6.67934e-06
-2.33353e-07
6.43216e-06
-2.30051e-07
6.18491e-06
-2.27101e-07
5.94051e-06
-2.24492e-07
5.70072e-06
-2.222e-07
5.46662e-06
-2.202e-07
5.23892e-06
-2.18466e-07
5.01804e-06
-2.16971e-07
4.80426e-06
-2.15694e-07
4.59774e-06
-2.14611e-07
4.39854e-06
-2.13704e-07
4.20668e-06
-2.12954e-07
4.02211e-06
-2.12344e-07
3.84477e-06
-2.11861e-07
3.67456e-06
-2.11497e-07
3.51141e-06
-2.11253e-07
3.35526e-06
3.20599e-06
-4.8631e-07
1.62578e-05
-4.59755e-07
1.82649e-05
-1.60567e-07
1.95669e-05
-3.43207e-07
1.09816e-05
-5.97739e-07
1.14217e-05
-2.97549e-07
1.99717e-05
-2.53225e-07
1.60822e-05
-6.79243e-07
9.35279e-06
-5.55378e-07
1.09368e-05
-2.31703e-07
1.56777e-05
-7.47979e-08
1.73803e-05
1.80948e-08
1.80389e-05
8.86865e-08
1.886e-05
1.48279e-07
2.00703e-05
2.69618e-07
2.16129e-05
-1.59313e-07
1.28419e-05
-5.69348e-07
1.28093e-05
-4.66494e-07
2.18235e-05
-4.31486e-07
2.05512e-05
-3.91115e-07
1.92994e-05
-3.55926e-07
1.50744e-05
-3.18358e-07
1.37813e-05
-2.77667e-07
1.25485e-05
-2.36375e-07
1.13179e-05
-2.06198e-07
1.0115e-05
-1.98138e-07
9.07118e-06
-2.0808e-07
8.32143e-06
-2.2154e-07
7.86569e-06
-2.2944e-07
7.58717e-06
-2.31211e-07
7.36867e-06
-2.29467e-07
7.15058e-06
-2.26354e-07
6.91853e-06
-2.22941e-07
6.67593e-06
-2.19648e-07
6.42887e-06
-2.16617e-07
6.18187e-06
-2.13883e-07
5.93777e-06
-2.11447e-07
5.69828e-06
-2.09294e-07
5.46447e-06
-2.07405e-07
5.23703e-06
-2.05758e-07
5.01639e-06
-2.04332e-07
4.80284e-06
-2.03106e-07
4.59652e-06
-2.02062e-07
4.3975e-06
-2.01181e-07
4.2058e-06
-2.00447e-07
4.02138e-06
-1.99845e-07
3.84417e-06
-1.99362e-07
3.67408e-06
-1.98994e-07
3.51104e-06
-1.98744e-07
3.35501e-06
3.20588e-06
-5.90867e-07
1.62045e-05
-5.80466e-07
1.82545e-05
-2.99663e-07
1.92861e-05
-4.75464e-07
1.11574e-05
-6.02839e-07
1.15491e-05
-2.50866e-07
1.96197e-05
-2.29981e-07
1.60613e-05
-6.42806e-07
9.76562e-06
-5.4352e-07
1.08375e-05
-2.25575e-07
1.53597e-05
-6.74694e-08
1.72222e-05
1.3313e-08
1.79581e-05
6.56188e-08
1.88076e-05
1.07083e-07
2.00288e-05
2.09923e-07
2.15101e-05
-1.8498e-07
1.32368e-05
-5.2162e-07
1.3146e-05
-4.10819e-07
2.17127e-05
-3.80428e-07
2.05208e-05
-3.47006e-07
1.9266e-05
-3.171e-07
1.50445e-05
-2.84186e-07
1.37484e-05
-2.47805e-07
1.25121e-05
-2.11155e-07
1.12812e-05
-1.85497e-07
1.00893e-05
-1.8033e-07
9.06601e-06
-1.91017e-07
8.33211e-06
-2.04397e-07
7.87907e-06
-2.12444e-07
7.59522e-06
-2.1467e-07
7.3709e-06
-2.13467e-07
7.14938e-06
-2.10845e-07
6.91591e-06
-2.07841e-07
6.67292e-06
-2.0488e-07
6.42591e-06
-2.02118e-07
6.17911e-06
-1.99602e-07
5.93526e-06
-1.97343e-07
5.69602e-06
-1.95333e-07
5.46246e-06
-1.93558e-07
5.23526e-06
-1.92003e-07
5.01484e-06
-1.90648e-07
4.80148e-06
-1.89477e-07
4.59534e-06
-1.88473e-07
4.39649e-06
-1.8762e-07
4.20494e-06
-1.86903e-07
4.02066e-06
-1.86309e-07
3.84358e-06
-1.85828e-07
3.6736e-06
-1.85456e-07
3.51067e-06
-1.85201e-07
3.35475e-06
3.20577e-06
-6.75807e-07
1.6174e-05
-6.66384e-07
1.82451e-05
-4.14384e-07
1.90341e-05
-5.98676e-07
1.13417e-05
-6.022e-07
1.15526e-05
-1.71639e-07
1.91892e-05
-1.78417e-07
1.60681e-05
-5.97079e-07
1.01843e-05
-5.27551e-07
1.0768e-05
-2.15332e-07
1.50475e-05
-5.69381e-08
1.70638e-05
1.38953e-08
1.78873e-05
5.24831e-08
1.87691e-05
8.07535e-08
2.00006e-05
1.65252e-07
2.14256e-05
-2.07362e-07
1.36095e-05
-4.77814e-07
1.34164e-05
-3.55538e-07
2.15904e-05
-3.31023e-07
2.04963e-05
-3.04099e-07
1.92391e-05
-2.78311e-07
1.50187e-05
-2.49941e-07
1.37201e-05
-2.17733e-07
1.24799e-05
-1.85488e-07
1.1249e-05
-1.64099e-07
1.00679e-05
-1.61621e-07
9.06354e-06
-1.73031e-07
8.34352e-06
-1.86377e-07
7.89242e-06
-1.94569e-07
7.60341e-06
-1.97217e-07
7.37355e-06
-1.96521e-07
7.14868e-06
-1.94366e-07
6.91376e-06
-1.91757e-07
6.67031e-06
-1.89121e-07
6.42327e-06
-1.86624e-07
6.17661e-06
-1.84326e-07
5.93296e-06
-1.82243e-07
5.69394e-06
-1.80377e-07
5.4606e-06
-1.78718e-07
5.2336e-06
-1.77255e-07
5.01337e-06
-1.75973e-07
4.8002e-06
-1.74857e-07
4.59423e-06
-1.73893e-07
4.39553e-06
-1.73067e-07
4.20412e-06
-1.72367e-07
4.01996e-06
-1.71782e-07
3.84299e-06
-1.71303e-07
3.67312e-06
-1.70928e-07
3.5103e-06
-1.70667e-07
3.35449e-06
3.20565e-06
-7.37681e-07
1.61553e-05
-7.16591e-07
1.8224e-05
-5.03679e-07
1.88212e-05
-6.98781e-07
1.15367e-05
-5.92605e-07
1.14465e-05
-6.36026e-08
1.86602e-05
-8.74462e-08
1.6092e-05
-5.25573e-07
1.06224e-05
-4.97733e-07
1.07402e-05
-1.97114e-07
1.47469e-05
-4.09252e-08
1.69076e-05
2.10283e-08
1.78253e-05
4.95797e-08
1.87405e-05
6.94871e-08
1.99807e-05
1.37252e-07
2.13578e-05
-2.21218e-07
1.39679e-05
-4.34268e-07
1.36295e-05
-3.00244e-07
2.14564e-05
-2.79281e-07
2.04754e-05
-2.63807e-07
1.92236e-05
-2.40661e-07
1.49955e-05
-2.15869e-07
1.36953e-05
-1.8753e-07
1.24516e-05
-1.59518e-07
1.1221e-05
-1.42151e-07
1.00506e-05
-1.42135e-07
9.06352e-06
-1.5421e-07
8.3556e-06
-1.67536e-07
7.90574e-06
-1.75861e-07
7.61173e-06
-1.78895e-07
7.37658e-06
-1.78672e-07
7.14846e-06
-1.76964e-07
6.91205e-06
-1.74736e-07
6.66809e-06
-1.72417e-07
6.42095e-06
-1.70182e-07
6.17438e-06
-1.681e-07
5.93088e-06
-1.66194e-07
5.69204e-06
-1.64472e-07
5.45888e-06
-1.62929e-07
5.23205e-06
-1.61558e-07
5.012e-06
-1.60347e-07
4.79899e-06
-1.59285e-07
4.59316e-06
-1.5836e-07
4.39461e-06
-1.57561e-07
4.20332e-06
-1.56877e-07
4.01928e-06
-1.56299e-07
3.84241e-06
-1.5582e-07
3.67265e-06
-1.55441e-07
3.50992e-06
-1.55173e-07
3.35422e-06
3.20552e-06
-7.76159e-07
1.61368e-05
-7.32526e-07
1.81804e-05
-5.53494e-07
1.86422e-05
-7.55955e-07
1.17392e-05
-5.69099e-07
1.12596e-05
5.87311e-08
1.80324e-05
3.76775e-08
1.6113e-05
-4.19915e-07
1.108e-05
-4.47845e-07
1.07681e-05
-1.69355e-07
1.44684e-05
-1.85906e-08
1.67568e-05
3.48997e-08
1.77718e-05
5.6181e-08
1.87192e-05
7.19528e-08
1.99649e-05
1.25967e-07
2.13038e-05
-2.23466e-07
1.43173e-05
-3.88524e-07
1.37945e-05
-2.41167e-07
2.13091e-05
-2.31795e-07
2.0466e-05
-2.19117e-07
1.92109e-05
-2.0212e-07
1.49785e-05
-1.81698e-07
1.36748e-05
-1.57246e-07
1.24271e-05
-1.33311e-07
1.1197e-05
-1.19698e-07
1.00369e-05
-1.21904e-07
9.06572e-06
-1.3457e-07
8.36826e-06
-1.47879e-07
7.91905e-06
-1.56326e-07
7.62018e-06
-1.59718e-07
7.37998e-06
-1.59942e-07
7.14869e-06
-1.58662e-07
6.91076e-06
-1.56806e-07
6.66623e-06
-1.548e-07
6.41895e-06
-1.52826e-07
6.17241e-06
-1.50958e-07
5.92901e-06
-1.49229e-07
5.69031e-06
-1.47651e-07
5.4573e-06
-1.46224e-07
5.23063e-06
-1.44943e-07
5.01072e-06
-1.43802e-07
4.79785e-06
-1.42792e-07
4.59215e-06
-1.41904e-07
4.39372e-06
-1.4113e-07
4.20255e-06
-1.4046e-07
4.01861e-06
-1.39887e-07
3.84184e-06
-1.39405e-07
3.67216e-06
-1.39018e-07
3.50953e-06
-1.38741e-07
3.35395e-06
3.20539e-06
-7.9569e-07
1.61093e-05
-7.21128e-07
1.81058e-05
-5.56602e-07
1.84777e-05
-7.51541e-07
1.19341e-05
-5.26386e-07
1.10345e-05
1.71641e-07
1.73343e-05
1.75038e-07
1.61096e-05
-2.87491e-07
1.15425e-05
-3.77346e-07
1.08579e-05
-1.33256e-07
1.42243e-05
9.08704e-09
1.66145e-05
5.45938e-08
1.77263e-05
7.07534e-08
1.87031e-05
8.557e-08
1.99501e-05
1.29669e-07
2.12597e-05
-2.12616e-07
1.46596e-05
-3.40699e-07
1.39226e-05
-1.79919e-07
2.11483e-05
-1.81467e-07
2.04675e-05
-1.76699e-07
1.92061e-05
-1.64072e-07
1.49659e-05
-1.47563e-07
1.36583e-05
-1.269e-07
1.24065e-05
-1.0687e-07
1.1177e-05
-9.67193e-08
1.00268e-05
-1.00904e-07
9.06991e-06
-1.14086e-07
8.38145e-06
-1.27388e-07
7.93236e-06
-1.3596e-07
7.62876e-06
-1.39695e-07
7.38371e-06
-1.4035e-07
7.14934e-06
-1.39486e-07
6.9099e-06
-1.37996e-07
6.66474e-06
-1.36301e-07
6.41725e-06
-1.34586e-07
6.17069e-06
-1.32934e-07
5.92736e-06
-1.31383e-07
5.68876e-06
-1.29947e-07
5.45586e-06
-1.28634e-07
5.22931e-06
-1.27442e-07
5.00953e-06
-1.26369e-07
4.79677e-06
-1.25409e-07
4.5912e-06
-1.24555e-07
4.39287e-06
-1.23802e-07
4.20179e-06
-1.23142e-07
4.01795e-06
-1.2257e-07
3.84127e-06
-1.22082e-07
3.67168e-06
-1.21684e-07
3.50913e-06
-1.21393e-07
3.35366e-06
3.20525e-06
-8.06193e-07
1.60685e-05
-6.95163e-07
1.79948e-05
-5.14215e-07
1.82967e-05
-6.74453e-07
1.20944e-05
-4.59807e-07
1.08198e-05
2.55092e-07
1.66194e-05
2.97087e-07
1.60676e-05
-1.47693e-07
1.19873e-05
-2.91678e-07
1.10019e-05
-9.19713e-08
1.40246e-05
3.96288e-08
1.64829e-05
7.82351e-08
1.76877e-05
9.11438e-08
1.86902e-05
1.06944e-07
1.99343e-05
1.45008e-07
2.12217e-05
-1.88391e-07
1.4993e-05
-2.92286e-07
1.40265e-05
-1.19102e-07
2.09751e-05
-1.30426e-07
2.04788e-05
-1.33905e-07
1.92096e-05
-1.26418e-07
1.49584e-05
-1.1368e-07
1.36456e-05
-9.66004e-08
1.23894e-05
-8.02141e-08
1.11606e-05
-7.3192e-08
1.00198e-05
-7.91107e-08
9.07583e-06
-9.27491e-08
8.39509e-06
-1.0607e-07
7.94568e-06
-1.1479e-07
7.63747e-06
-1.18869e-07
7.38779e-06
-1.19946e-07
7.15042e-06
-1.19491e-07
6.90944e-06
-1.18362e-07
6.66361e-06
-1.16976e-07
6.41587e-06
-1.15519e-07
6.16924e-06
-1.14082e-07
5.92592e-06
-1.12705e-07
5.68738e-06
-1.11411e-07
5.45457e-06
-1.10209e-07
5.22811e-06
-1.09104e-07
5.00842e-06
-1.08095e-07
4.79577e-06
-1.0718e-07
4.59028e-06
-1.06356e-07
4.39204e-06
-1.05619e-07
4.20106e-06
-1.04963e-07
4.01729e-06
-1.04386e-07
3.84069e-06
-1.03887e-07
3.67118e-06
-1.03475e-07
3.50872e-06
-1.03173e-07
3.35335e-06
3.2051e-06
-8.21727e-07
1.60162e-05
-6.71725e-07
1.78448e-05
-4.37915e-07
1.80629e-05
-5.27598e-07
1.21841e-05
-3.65348e-07
1.06576e-05
3.0035e-07
1.59537e-05
3.82645e-07
1.59853e-05
-1.54189e-08
1.23854e-05
-2.03411e-07
1.11899e-05
-4.98255e-08
1.3871e-05
6.99169e-08
1.63631e-05
1.03334e-07
1.76543e-05
1.14733e-07
1.86788e-05
1.32309e-07
1.99167e-05
1.67907e-07
2.11861e-05
-1.51287e-07
1.53122e-05
-2.39234e-07
1.41145e-05
-5.88084e-08
2.07947e-05
-7.91297e-08
2.04992e-05
-9.16124e-08
1.92221e-05
-8.92306e-08
1.4956e-05
-8.01582e-08
1.36365e-05
-6.64478e-08
1.23757e-05
-5.33997e-08
1.11476e-05
-4.91451e-08
1.00155e-05
-5.65635e-08
9.08325e-06
-7.06122e-08
8.40914e-06
-8.39957e-08
7.95906e-06
-9.29011e-08
7.64638e-06
-9.73374e-08
7.39222e-06
-9.88344e-08
7.15191e-06
-9.87813e-08
6.90939e-06
-9.80066e-08
6.66284e-06
-9.69211e-08
6.41478e-06
-9.57174e-08
6.16803e-06
-9.44883e-08
5.92469e-06
-9.32818e-08
5.68617e-06
-9.21237e-08
5.45341e-06
-9.10287e-08
5.22702e-06
-9.00043e-08
5.0074e-06
-8.90541e-08
4.79482e-06
-8.81789e-08
4.58941e-06
-8.73776e-08
4.39124e-06
-8.6648e-08
4.20033e-06
-8.59879e-08
4.01663e-06
-8.53964e-08
3.8401e-06
-8.48772e-08
3.67066e-06
-8.44429e-08
3.50828e-06
-8.41211e-08
3.35303e-06
3.20494e-06
-8.58026e-07
1.59602e-05
-6.69152e-07
1.76559e-05
-3.4745e-07
1.77412e-05
-3.29637e-07
1.21663e-05
-2.52968e-07
1.05809e-05
3.08019e-07
1.53928e-05
4.20363e-07
1.5873e-05
8.88277e-08
1.27169e-05
-1.19015e-07
1.13978e-05
-1.04348e-08
1.37625e-05
9.71165e-08
1.62556e-05
1.27292e-07
1.76241e-05
1.38664e-07
1.86674e-05
1.57881e-07
1.98975e-05
1.94154e-07
2.11498e-05
-1.03534e-07
1.56099e-05
-1.87283e-07
1.41982e-05
-1.1237e-09
2.06085e-05
-2.81503e-08
2.05262e-05
-5.04825e-08
1.92444e-05
-5.28888e-08
1.49584e-05
-4.72421e-08
1.36309e-05
-3.6616e-08
1.23651e-05
-2.65556e-08
1.11375e-05
-2.46973e-08
1.00137e-05
-3.33945e-08
9.09195e-06
-4.78183e-08
8.42356e-06
-6.1314e-08
7.97256e-06
-7.04506e-08
7.65551e-06
-7.52606e-08
7.39704e-06
-7.7175e-08
7.15383e-06
-7.75131e-08
6.90973e-06
-7.70786e-08
6.6624e-06
-7.62808e-08
6.41398e-06
-7.53167e-08
6.16707e-06
-7.42848e-08
5.92366e-06
-7.32382e-08
5.68513e-06
-7.22077e-08
5.45238e-06
-7.12116e-08
5.22602e-06
-7.0261e-08
5.00645e-06
-6.9362e-08
4.79392e-06
-6.85178e-08
4.58856e-06
-6.77291e-08
4.39045e-06
-6.69958e-08
4.19959e-06
-6.63176e-08
4.01595e-06
-6.56962e-08
3.83948e-06
-6.51379e-08
3.6701e-06
-6.46581e-08
3.50781e-06
-6.42893e-08
3.35266e-06
3.20474e-06
-9.28479e-07
1.5911e-05
-7.00543e-07
1.7428e-05
-2.54033e-07
1.72947e-05
-1.28468e-07
1.20407e-05
-1.37048e-07
1.05895e-05
2.83887e-07
1.49718e-05
4.10312e-07
1.57465e-05
1.56082e-07
1.29712e-05
-4.85286e-08
1.16024e-05
2.2886e-08
1.3691e-05
1.19039e-07
1.61594e-05
1.47845e-07
1.75953e-05
1.60166e-07
1.86551e-05
1.80165e-07
1.98775e-05
2.19541e-07
2.11104e-05
-4.88396e-08
1.58783e-05
-1.35612e-07
1.4285e-05
5.19684e-08
2.04209e-05
2.1292e-08
2.05569e-05
-1.10077e-08
1.92767e-05
-1.78159e-08
1.49652e-05
-1.52946e-08
1.36284e-05
-7.38632e-09
1.23572e-05
8.74814e-11
1.113e-05
-7.10739e-11
1.00138e-05
-9.83676e-09
9.10171e-06
-2.45967e-08
8.43832e-06
-3.82454e-08
7.98621e-06
-4.76518e-08
7.66492e-06
-5.28475e-08
7.40223e-06
-5.51712e-08
7.15615e-06
-5.58819e-08
6.91044e-06
-5.57657e-08
6.66229e-06
-5.52331e-08
6.41345e-06
-5.44882e-08
6.16632e-06
-5.36357e-08
5.92281e-06
-5.27343e-08
5.68423e-06
-5.1819e-08
5.45146e-06
-5.09119e-08
5.22512e-06
-5.00266e-08
5.00557e-06
-4.91713e-08
4.79306e-06
-4.83504e-08
4.58774e-06
-4.75656e-08
4.38967e-06
-4.68173e-08
4.19885e-06
-4.61056e-08
4.01524e-06
-4.54319e-08
3.8388e-06
-4.48003e-08
3.66947e-06
-4.42197e-08
3.50722e-06
-4.37255e-08
3.35217e-06
3.20446e-06
-1.03872e-06
1.58778e-05
-7.68194e-07
1.71575e-05
-1.76366e-07
1.67029e-05
5.99712e-08
1.18044e-05
-3.63759e-08
1.06858e-05
2.30214e-07
1.47052e-05
3.6014e-07
1.56166e-05
1.86102e-07
1.31452e-05
3.22625e-09
1.17852e-05
4.8231e-08
1.3646e-05
1.34544e-07
1.60731e-05
1.63421e-07
1.75664e-05
1.7693e-07
1.86416e-05
1.96385e-07
1.9858e-05
2.4055e-07
2.10663e-05
7.89212e-09
1.6111e-05
-8.55464e-08
1.43784e-05
9.82165e-08
2.02372e-05
6.76418e-08
2.05874e-05
2.63399e-08
1.9318e-05
1.54976e-08
1.49761e-05
1.5258e-08
1.36286e-05
2.08735e-08
1.23515e-05
2.61966e-08
1.11247e-05
2.44157e-08
1.00156e-05
1.38068e-08
9.11232e-06
-1.23614e-09
8.45336e-06
-1.50538e-08
8.00002e-06
-2.47469e-08
7.67462e-06
-3.03267e-08
7.40781e-06
-3.30411e-08
7.15887e-06
-3.40968e-08
6.9115e-06
-3.42679e-08
6.66246e-06
-3.39706e-08
6.41315e-06
-3.34174e-08
6.16577e-06
-3.27209e-08
5.92211e-06
-3.19456e-08
5.68345e-06
-3.1131e-08
5.45065e-06
-3.03024e-08
5.22429e-06
-2.94755e-08
5.00474e-06
-2.86602e-08
4.79225e-06
-2.78614e-08
4.58694e-06
-2.70807e-08
4.38889e-06
-2.63166e-08
4.19808e-06
-2.55653e-08
4.01449e-06
-2.48193e-08
3.83806e-06
-2.40643e-08
3.66871e-06
-2.32747e-08
3.50644e-06
-2.24423e-08
3.35134e-06
3.20373e-06
-1.18098e-06
1.58622e-05
-8.58361e-07
1.68348e-05
-1.2439e-07
1.59689e-05
1.8433e-07
1.14956e-05
1.24403e-08
1.08577e-05
1.46581e-07
1.45711e-05
2.81865e-07
1.54813e-05
1.85446e-07
1.32416e-05
3.56049e-08
1.19351e-05
6.50485e-08
1.36166e-05
1.43628e-07
1.59945e-05
1.73364e-07
1.75367e-05
1.87479e-07
1.86274e-05
2.04911e-07
1.98406e-05
2.55067e-07
2.10161e-05
6.10214e-08
1.6305e-05
-3.95665e-08
1.4479e-05
1.35883e-07
2.00617e-05
1.08996e-07
2.06143e-05
6.09171e-08
1.93661e-05
4.64847e-08
1.49905e-05
4.39366e-08
1.36311e-05
4.77257e-08
1.23478e-05
5.13727e-08
1.11211e-05
4.83853e-08
1.00186e-05
3.71916e-08
9.12351e-06
2.19563e-08
8.4686e-06
7.98766e-09
8.01399e-06
-1.97917e-09
7.68458e-06
-7.9182e-09
7.41375e-06
-1.09899e-08
7.16194e-06
-1.23529e-08
6.91286e-06
-1.27726e-08
6.66288e-06
-1.26737e-08
6.41305e-06
-1.22794e-08
6.16538e-06
-1.17111e-08
5.92154e-06
-1.10396e-08
5.68278e-06
-1.03092e-08
5.44992e-06
-9.5483e-09
5.22353e-06
-8.77562e-09
5.00397e-06
-8.00299e-09
4.79148e-06
-7.2375e-09
4.58618e-06
-6.48284e-09
4.38813e-06
-5.74039e-09
4.19734e-06
-5.01009e-09
4.01376e-06
-4.28989e-09
3.83734e-06
-3.5706e-09
3.66799e-06
-2.82509e-09
3.50569e-06
-1.97161e-09
3.35048e-06
3.20219e-06
-1.33237e-06
1.58551e-05
-9.46747e-07
1.64492e-05