/*--------------------------------*- C++ -*----------------------------------*\
  =========                 |
  \\      /  F ield         | OpenFOAM: The Open Source CFD Toolbox
   \\    /   O peration     | Website:  https://openfoam.org
    \\  /    A nd           | Version:  9
     \\/     M anipulation  |
\*---------------------------------------------------------------------------*/
FoamFile
{
    format      ascii;
    class       volScalarField;
    location    "0.17";
    object      rAU;
}
// * * * * * * * * * * * * * * * * * * * * * * * * * * * * * * * * * * * * * //

dimensions      [-1 3 1 0 0 0 0];

internalField   nonuniform List<scalar> 
5000
(
1.19955e-05
1.13418e-05
1.04047e-05
2.34584e-05
2.41653e-05
1.02067e-05
1.1569e-05
2.42047e-05
1.32071e-05
1.16669e-05
1.17671e-05
1.16678e-05
1.13767e-05
1.09571e-05
1.03147e-05
2.33383e-05
2.09653e-05
1.02605e-05
1.09387e-05
1.14176e-05
1.17641e-05
1.20509e-05
1.23238e-05
1.26245e-05
1.30142e-05
1.35234e-05
1.39867e-05
1.40956e-05
1.39121e-05
1.36924e-05
1.35268e-05
1.34057e-05
1.3309e-05
1.32243e-05
1.31459e-05
1.30708e-05
1.29973e-05
1.29244e-05
1.28513e-05
1.27771e-05
1.27013e-05
1.26231e-05
1.2542e-05
1.24575e-05
1.23688e-05
1.22754e-05
1.21767e-05
1.20721e-05
1.19607e-05
1.0607e-05
1.76679e-05
1.71152e-05
1.63262e-05
2.33789e-05
2.32443e-05
1.60565e-05
1.73867e-05
2.36384e-05
1.86083e-05
1.73261e-05
1.74219e-05
1.73651e-05
1.71493e-05
1.6784e-05
1.62174e-05
2.33525e-05
2.23846e-05
1.60429e-05
1.66626e-05
1.70778e-05
1.7334e-05
1.75574e-05
1.77671e-05
1.79946e-05
1.82829e-05
1.86381e-05
1.89261e-05
1.89645e-05
1.88145e-05
1.86384e-05
1.84951e-05
1.83795e-05
1.82777e-05
1.81814e-05
1.80861e-05
1.79898e-05
1.78909e-05
1.77884e-05
1.76816e-05
1.75695e-05
1.74515e-05
1.73266e-05
1.71943e-05
1.70537e-05
1.69041e-05
1.67448e-05
1.65748e-05
1.63936e-05
1.62003e-05
1.38208e-05
1.77247e-05
1.71738e-05
1.64481e-05
2.26998e-05
2.25767e-05
1.61801e-05
1.75503e-05
2.31324e-05
1.8741e-05
1.73806e-05
1.74624e-05
1.74139e-05
1.71881e-05
1.68175e-05
1.62883e-05
2.26926e-05
2.19303e-05
1.61035e-05
1.6692e-05
1.70833e-05
1.73319e-05
1.7554e-05
1.77661e-05
1.7999e-05
1.82932e-05
1.86451e-05
1.89173e-05
1.89492e-05
1.88054e-05
1.86349e-05
1.84935e-05
1.83782e-05
1.82764e-05
1.81801e-05
1.8085e-05
1.79888e-05
1.78901e-05
1.77878e-05
1.76812e-05
1.75693e-05
1.74514e-05
1.73267e-05
1.71945e-05
1.7054e-05
1.69044e-05
1.67451e-05
1.65752e-05
1.63939e-05
1.62005e-05
1.3821e-05
1.77984e-05
1.7252e-05
1.65714e-05
2.20704e-05
2.20457e-05
1.63346e-05
1.77255e-05
2.26888e-05
1.88777e-05
1.74586e-05
1.75176e-05
1.74712e-05
1.72417e-05
1.68694e-05
1.63702e-05
2.20628e-05
2.15241e-05
1.62018e-05
1.67462e-05
1.71123e-05
1.73471e-05
1.75628e-05
1.77746e-05
1.8011e-05
1.83089e-05
1.86532e-05
1.89073e-05
1.8933e-05
1.87967e-05
1.86327e-05
1.84939e-05
1.83791e-05
1.82772e-05
1.81808e-05
1.80856e-05
1.79894e-05
1.78908e-05
1.77886e-05
1.7682e-05
1.75702e-05
1.74524e-05
1.73278e-05
1.71956e-05
1.70552e-05
1.69057e-05
1.67464e-05
1.65765e-05
1.63953e-05
1.62019e-05
1.38228e-05
1.78794e-05
1.73433e-05
1.66882e-05
2.15443e-05
2.16263e-05
1.64936e-05
1.78878e-05
2.23004e-05
1.90134e-05
1.75503e-05
1.75802e-05
1.75268e-05
1.72975e-05
1.69331e-05
1.64519e-05
2.15089e-05
2.11672e-05
1.63086e-05
1.68103e-05
1.71554e-05
1.7374e-05
1.75812e-05
1.77912e-05
1.80297e-05
1.83285e-05
1.86626e-05
1.8898e-05
1.89185e-05
1.87898e-05
1.86323e-05
1.84961e-05
1.83818e-05
1.82798e-05
1.81832e-05
1.80879e-05
1.79916e-05
1.78929e-05
1.77908e-05
1.76842e-05
1.75724e-05
1.74546e-05
1.73301e-05
1.7198e-05
1.70576e-05
1.69082e-05
1.67489e-05
1.65791e-05
1.63979e-05
1.62045e-05
1.38261e-05
1.79632e-05
1.74417e-05
1.67978e-05
2.11226e-05
2.12758e-05
1.66402e-05
1.80193e-05
2.19526e-05
1.9147e-05
1.76539e-05
1.76465e-05
1.75841e-05
1.73572e-05
1.70019e-05
1.65277e-05
2.10422e-05
2.08513e-05
1.64095e-05
1.68743e-05
1.72044e-05
1.74072e-05
1.76063e-05
1.78142e-05
1.80534e-05
1.83511e-05
1.86735e-05
1.88911e-05
1.89069e-05
1.87851e-05
1.86338e-05
1.85e-05
1.83862e-05
1.82841e-05
1.81873e-05
1.80917e-05
1.79953e-05
1.78966e-05
1.77943e-05
1.76878e-05
1.7576e-05
1.74582e-05
1.73337e-05
1.72017e-05
1.70613e-05
1.69119e-05
1.67527e-05
1.65829e-05
1.64017e-05
1.62084e-05
1.3831e-05
1.80459e-05
1.75417e-05
1.69045e-05
2.07924e-05
2.09736e-05
1.67688e-05
1.81167e-05
2.16452e-05
1.92798e-05
1.77679e-05
1.77139e-05
1.76417e-05
1.74182e-05
1.70704e-05
1.65981e-05
2.0659e-05
2.05671e-05
1.64994e-05
1.69335e-05
1.7254e-05
1.74431e-05
1.76357e-05
1.78413e-05
1.80806e-05
1.83759e-05
1.86859e-05
1.88868e-05
1.88984e-05
1.87825e-05
1.86368e-05
1.85054e-05
1.83921e-05
1.82899e-05
1.81928e-05
1.80971e-05
1.80005e-05
1.79016e-05
1.77993e-05
1.76927e-05
1.75809e-05
1.74632e-05
1.73387e-05
1.72067e-05
1.70664e-05
1.6917e-05
1.67579e-05
1.65881e-05
1.6407e-05
1.62137e-05
1.38376e-05
1.81241e-05
1.76382e-05
1.70117e-05
2.05484e-05
2.07111e-05
1.68802e-05
1.8187e-05
2.13794e-05
1.94104e-05
1.78886e-05
1.77795e-05
1.76971e-05
1.74772e-05
1.71352e-05
1.66652e-05
2.03443e-05
2.03073e-05
1.65769e-05
1.69854e-05
1.73009e-05
1.74795e-05
1.76672e-05
1.78709e-05
1.81101e-05
1.84021e-05
1.86994e-05
1.88851e-05
1.88926e-05
1.87819e-05
1.86412e-05
1.8512e-05
1.83993e-05
1.82971e-05
1.81998e-05
1.81038e-05
1.8007e-05
1.7908e-05
1.78057e-05
1.7699e-05
1.75872e-05
1.74695e-05
1.7345e-05
1.7213e-05
1.70728e-05
1.69235e-05
1.67644e-05
1.65947e-05
1.64137e-05
1.62205e-05
1.3846e-05
1.81904e-05
1.77223e-05
1.71212e-05
2.03751e-05
2.04734e-05
1.69758e-05
1.82386e-05
2.11526e-05
1.95331e-05
1.80107e-05
1.78409e-05
1.7748e-05
1.75317e-05
1.71943e-05
1.67299e-05
2.0086e-05
2.00741e-05
1.66423e-05
1.70293e-05
1.73432e-05
1.75148e-05
1.76994e-05
1.79016e-05
1.81407e-05
1.84289e-05
1.87137e-05
1.88852e-05
1.88891e-05
1.87827e-05
1.86466e-05
1.85196e-05
1.84075e-05
1.83053e-05
1.82078e-05
1.81116e-05
1.80147e-05
1.79156e-05
1.78132e-05
1.77065e-05
1.75947e-05
1.7477e-05
1.73525e-05
1.72206e-05
1.70805e-05
1.69313e-05
1.67722e-05
1.66027e-05
1.64217e-05
1.62286e-05
1.38561e-05
1.8222e-05
1.77722e-05
1.72329e-05
2.0252e-05
2.02578e-05
1.70585e-05
1.82783e-05
2.09577e-05
1.96405e-05
1.81292e-05
1.78965e-05
1.77932e-05
1.75798e-05
1.72464e-05
1.67917e-05
1.98737e-05
1.98662e-05
1.66969e-05
1.70659e-05
1.73804e-05
1.7548e-05
1.77308e-05
1.79323e-05
1.81714e-05
1.84554e-05
1.8728e-05
1.88867e-05
1.88873e-05
1.87849e-05
1.86529e-05
1.8528e-05
1.84165e-05
1.83143e-05
1.82167e-05
1.81204e-05
1.80234e-05
1.79242e-05
1.78217e-05
1.7715e-05
1.76033e-05
1.74856e-05
1.73612e-05
1.72294e-05
1.70893e-05
1.69402e-05
1.67813e-05
1.66119e-05
1.64311e-05
1.62381e-05
1.3868e-05
1.82404e-05
1.77694e-05
1.73063e-05
2.01599e-05
2.00688e-05
1.71328e-05
1.83111e-05
2.07853e-05
1.97276e-05
1.8239e-05
1.79459e-05
1.78321e-05
1.76205e-05
1.72906e-05
1.68495e-05
1.96958e-05
1.96815e-05
1.6743e-05
1.70966e-05
1.74126e-05
1.75786e-05
1.77607e-05
1.79621e-05
1.82015e-05
1.84811e-05
1.87421e-05
1.88891e-05
1.88869e-05
1.87879e-05
1.86597e-05
1.85369e-05
1.84262e-05
1.83241e-05
1.82264e-05
1.81301e-05
1.8033e-05
1.79337e-05
1.78312e-05
1.77246e-05
1.76128e-05
1.74952e-05
1.7371e-05
1.72392e-05
1.70993e-05
1.69503e-05
1.67916e-05
1.66223e-05
1.64416e-05
1.62488e-05
1.38814e-05
1.82523e-05
1.77582e-05
1.73723e-05
2.00776e-05
1.99119e-05
1.72049e-05
1.83379e-05
2.0627e-05
1.97946e-05
1.83408e-05
1.79926e-05
1.78654e-05
1.76535e-05
1.73265e-05
1.69019e-05
1.95424e-05
1.95209e-05
1.67837e-05
1.71233e-05
1.74405e-05
1.76066e-05
1.77887e-05
1.79907e-05
1.82304e-05
1.85056e-05
1.87555e-05
1.88921e-05
1.88874e-05
1.87917e-05
1.86671e-05
1.85463e-05
1.84363e-05
1.83344e-05
1.82368e-05
1.81403e-05
1.80432e-05
1.7944e-05
1.78415e-05
1.77349e-05
1.76233e-05
1.75058e-05
1.73816e-05
1.72501e-05
1.71103e-05
1.69615e-05
1.6803e-05
1.66338e-05
1.64534e-05
1.62607e-05
1.38964e-05
1.82539e-05
1.77345e-05
1.74048e-05
1.99607e-05
1.97917e-05
1.72825e-05
1.83612e-05
2.04805e-05
1.98459e-05
1.84371e-05
1.8038e-05
1.7894e-05
1.7679e-05
1.73539e-05
1.69475e-05
1.94062e-05
1.93851e-05
1.68223e-05
1.71473e-05
1.74649e-05
1.76323e-05
1.78149e-05
1.80178e-05
1.8258e-05
1.85287e-05
1.87682e-05
1.88954e-05
1.88888e-05
1.8796e-05
1.86748e-05
1.8556e-05
1.84468e-05
1.83452e-05
1.82476e-05
1.81512e-05
1.80542e-05
1.7955e-05
1.78526e-05
1.77461e-05
1.76345e-05
1.75172e-05
1.73932e-05
1.72618e-05
1.71223e-05
1.69737e-05
1.68154e-05
1.66465e-05
1.64662e-05
1.62737e-05
1.39128e-05
1.82484e-05
1.77108e-05
1.74422e-05
1.98538e-05
1.97145e-05
1.73761e-05
1.8384e-05
2.03444e-05
1.98873e-05
1.85315e-05
1.80838e-05
1.79185e-05
1.76975e-05
1.73735e-05
1.69852e-05
1.92818e-05
1.92739e-05
1.68614e-05
1.71693e-05
1.74868e-05
1.7656e-05
1.78394e-05
1.80436e-05
1.82841e-05
1.85502e-05
1.878e-05
1.8899e-05
1.88907e-05
1.88008e-05
1.86828e-05
1.85659e-05
1.84577e-05
1.83564e-05
1.8259e-05
1.81627e-05
1.80657e-05
1.79666e-05
1.78643e-05
1.7758e-05
1.76466e-05
1.75294e-05
1.74057e-05
1.72745e-05
1.71352e-05
1.69868e-05
1.68288e-05
1.66601e-05
1.64801e-05
1.62878e-05
1.39306e-05
1.82403e-05
1.7693e-05
1.74817e-05
1.97537e-05
1.96816e-05
1.74937e-05
1.84078e-05
2.0218e-05
1.99227e-05
1.86265e-05
1.8131e-05
1.794e-05
1.771e-05
1.73861e-05
1.70147e-05
1.91657e-05
1.9186e-05
1.69029e-05
1.71896e-05
1.75066e-05
1.76782e-05
1.78625e-05
1.8068e-05
1.83087e-05
1.85702e-05
1.8791e-05
1.89026e-05
1.88932e-05
1.8806e-05
1.86911e-05
1.85762e-05
1.84689e-05
1.8368e-05
1.82708e-05
1.81746e-05
1.80778e-05
1.79788e-05
1.78767e-05
1.77705e-05
1.76594e-05
1.75425e-05
1.74189e-05
1.7288e-05
1.7149e-05
1.70009e-05
1.68431e-05
1.66748e-05
1.6495e-05
1.6303e-05
1.39498e-05
1.82329e-05
1.76849e-05
1.75216e-05
1.96609e-05
1.96913e-05
1.76416e-05
1.84351e-05
2.00998e-05
1.99526e-05
1.87227e-05
1.81798e-05
1.79587e-05
1.77174e-05
1.7393e-05
1.7036e-05
1.90552e-05
1.91191e-05
1.69473e-05
1.72089e-05
1.75243e-05
1.76988e-05
1.7884e-05
1.8091e-05
1.83317e-05
1.85887e-05
1.88011e-05
1.89063e-05
1.88961e-05
1.88116e-05
1.86997e-05
1.85867e-05
1.84803e-05
1.838e-05
1.8283e-05
1.81871e-05
1.80904e-05
1.79916e-05
1.78897e-05
1.77838e-05
1.76729e-05
1.75562e-05
1.7433e-05
1.73024e-05
1.71636e-05
1.70159e-05
1.68584e-05
1.66904e-05
1.6511e-05
1.63193e-05
1.39704e-05
1.82292e-05
1.76892e-05
1.75634e-05
1.95814e-05
1.97393e-05
1.77968e-05
1.8419e-05
1.99616e-05
1.99743e-05
1.88184e-05
1.82296e-05
1.79751e-05
1.77205e-05
1.73958e-05
1.70502e-05
1.8949e-05
1.90703e-05
1.69958e-05
1.72258e-05
1.75396e-05
1.77184e-05
1.79043e-05
1.81126e-05
1.83532e-05
1.86057e-05
1.88104e-05
1.89102e-05
1.88994e-05
1.88176e-05
1.87086e-05
1.85975e-05
1.84921e-05
1.83923e-05
1.82957e-05
1.82e-05
1.81035e-05
1.8005e-05
1.79034e-05
1.77977e-05
1.76871e-05
1.75707e-05
1.74478e-05
1.73175e-05
1.71791e-05
1.70318e-05
1.68747e-05
1.6707e-05
1.65279e-05
1.63365e-05
1.39922e-05
1.82305e-05
1.77062e-05
1.76107e-05
1.95223e-05
1.9817e-05
1.7971e-05
1.83858e-05
1.98085e-05
1.99829e-05
1.89095e-05
1.82758e-05
1.7986e-05
1.77205e-05
1.73958e-05
1.70588e-05
1.88463e-05
1.90361e-05
1.70479e-05
1.72403e-05
1.75538e-05
1.77361e-05
1.79231e-05
1.81328e-05
1.83733e-05
1.86215e-05
1.88192e-05
1.89141e-05
1.89032e-05
1.8824e-05
1.87178e-05
1.86085e-05
1.85042e-05
1.8405e-05
1.83087e-05
1.82133e-05
1.81171e-05
1.80189e-05
1.79176e-05
1.78122e-05
1.77019e-05
1.75859e-05
1.74634e-05
1.73335e-05
1.71955e-05
1.70485e-05
1.68918e-05
1.67245e-05
1.65459e-05
1.63548e-05
1.40154e-05
1.82361e-05
1.77344e-05
1.76681e-05
1.94916e-05
1.99116e-05
1.81642e-05
1.83697e-05
1.96668e-05
1.99758e-05
1.89915e-05
1.83148e-05
1.79896e-05
1.77183e-05
1.73945e-05
1.70637e-05
1.87481e-05
1.90124e-05
1.71031e-05
1.72522e-05
1.75658e-05
1.77522e-05
1.79404e-05
1.81517e-05
1.83919e-05
1.8636e-05
1.88274e-05
1.89183e-05
1.89075e-05
1.88308e-05
1.87272e-05
1.86198e-05
1.85165e-05
1.84179e-05
1.83221e-05
1.8227e-05
1.81312e-05
1.80333e-05
1.79323e-05
1.78273e-05
1.77174e-05
1.76018e-05
1.74796e-05
1.73502e-05
1.72126e-05
1.70661e-05
1.69098e-05
1.6743e-05
1.65647e-05
1.6374e-05
1.40399e-05
1.82426e-05
1.77703e-05
1.77406e-05
1.94965e-05
2.00087e-05
1.83609e-05
1.83756e-05
1.9539e-05
1.99464e-05
1.90605e-05
1.83508e-05
1.79918e-05
1.77153e-05
1.73928e-05
1.70668e-05
1.8656e-05
1.89969e-05
1.71614e-05
1.72617e-05
1.75754e-05
1.77665e-05
1.79563e-05
1.81692e-05
1.84091e-05
1.86494e-05
1.88352e-05
1.89226e-05
1.89121e-05
1.88379e-05
1.87369e-05
1.86312e-05
1.85291e-05
1.84311e-05
1.83357e-05
1.8241e-05
1.81456e-05
1.80481e-05
1.79475e-05
1.78429e-05
1.77334e-05
1.76182e-05
1.74965e-05
1.73675e-05
1.72304e-05
1.70844e-05
1.69286e-05
1.67623e-05
1.65845e-05
1.63942e-05
1.40655e-05
1.82447e-05
1.78095e-05
1.78319e-05
1.95381e-05
2.00891e-05
1.85424e-05
1.84023e-05
1.94102e-05
1.98765e-05
1.91145e-05
1.83835e-05
1.79936e-05
1.77123e-05
1.73917e-05
1.70697e-05
1.85719e-05
1.89848e-05
1.72198e-05
1.72682e-05
1.75822e-05
1.77787e-05
1.79707e-05
1.81853e-05
1.84251e-05
1.86618e-05
1.88425e-05
1.8927e-05
1.89169e-05
1.88451e-05
1.87466e-05
1.86427e-05
1.85416e-05
1.84444e-05
1.83495e-05
1.82553e-05
1.81603e-05
1.80632e-05
1.7963e-05
1.78589e-05
1.77498e-05
1.76352e-05
1.7514e-05
1.73855e-05
1.72489e-05
1.71034e-05
1.69482e-05
1.67823e-05
1.6605e-05
1.64152e-05
1.40923e-05
1.82368e-05
1.78495e-05
1.79511e-05
1.96184e-05
2.01441e-05
1.86941e-05
1.84448e-05
1.93191e-05
1.981e-05
1.91458e-05
1.84056e-05
1.79963e-05
1.77105e-05
1.73916e-05
1.70741e-05
1.84979e-05
1.89731e-05
1.72662e-05
1.72547e-05
1.75798e-05
1.7789e-05
1.79836e-05
1.82001e-05
1.84398e-05
1.86732e-05
1.88495e-05
1.89313e-05
1.89218e-05
1.88523e-05
1.87562e-05
1.86541e-05
1.85542e-05
1.84577e-05
1.83634e-05
1.82697e-05
1.81752e-05
1.80785e-05
1.79788e-05
1.78752e-05
1.77667e-05
1.76525e-05
1.75318e-05
1.74039e-05
1.72679e-05
1.71229e-05
1.69683e-05
1.6803e-05
1.66263e-05
1.6437e-05
1.41203e-05
1.82153e-05
1.78908e-05
1.81021e-05
1.96895e-05
2.01229e-05
1.88042e-05
1.84987e-05
1.92645e-05
1.97492e-05
1.9162e-05
1.84254e-05
1.80004e-05
1.77103e-05
1.7393e-05
1.7081e-05
1.84294e-05
1.89537e-05
1.73126e-05
1.7236e-05
1.75619e-05
1.7784e-05
1.79849e-05
1.82008e-05
1.84351e-05
1.86627e-05
1.8839e-05
1.89292e-05
1.89267e-05
1.88594e-05
1.87657e-05
1.86654e-05
1.85666e-05
1.84709e-05
1.83773e-05
1.82841e-05
1.81901e-05
1.8094e-05
1.79948e-05
1.78917e-05
1.77837e-05
1.767e-05
1.755e-05
1.74226e-05
1.72872e-05
1.71428e-05
1.69888e-05
1.68242e-05
1.66481e-05
1.64596e-05
1.41497e-05
1.81812e-05
1.79394e-05
1.82886e-05
1.97757e-05
2.00527e-05
1.88652e-05
1.85621e-05
1.92423e-05
1.96941e-05
1.91655e-05
1.84448e-05
1.80062e-05
1.77118e-05
1.73956e-05
1.70912e-05
1.83637e-05
1.89216e-05
1.73578e-05
1.72199e-05
1.75407e-05
1.77694e-05
1.79742e-05
1.81924e-05
1.84267e-05
1.86513e-05
1.88233e-05
1.89115e-05
1.89168e-05
1.88624e-05
1.87749e-05
1.86763e-05
1.85788e-05
1.8484e-05
1.8391e-05
1.82985e-05
1.8205e-05
1.81094e-05
1.80108e-05
1.79082e-05
1.78008e-05
1.76877e-05
1.75682e-05
1.74414e-05
1.73066e-05
1.71628e-05
1.70094e-05
1.68454e-05
1.667e-05
1.64823e-05
1.41796e-05
1.81421e-05
1.80052e-05
1.85067e-05
1.98818e-05
1.99792e-05
1.89009e-05
1.86346e-05
1.92462e-05
1.96558e-05
1.91697e-05
1.84643e-05
1.80136e-05
1.77146e-05
1.73993e-05
1.71048e-05
1.83113e-05
1.88883e-05
1.74008e-05
1.72075e-05
1.75197e-05
1.77549e-05
1.79638e-05
1.81842e-05
1.84184e-05
1.864e-05
1.88078e-05
1.88932e-05
1.88982e-05
1.88466e-05
1.87656e-05
1.86738e-05
1.85801e-05
1.84873e-05
1.83952e-05
1.83028e-05
1.82091e-05
1.8113e-05
1.80136e-05
1.79101e-05
1.78016e-05
1.76874e-05
1.75666e-05
1.74385e-05
1.73022e-05
1.7157e-05
1.70021e-05
1.68365e-05
1.66595e-05
1.647e-05
1.74095e-05
1.81096e-05
1.8096e-05
1.87406e-05
1.99874e-05
1.98989e-05
1.88784e-05
1.8683e-05
1.92682e-05
1.96303e-05
1.91752e-05
1.84836e-05
1.80219e-05
1.77179e-05
1.74033e-05
1.71216e-05
1.82713e-05
1.88464e-05
1.74341e-05
1.71992e-05
1.75e-05
1.77411e-05
1.79542e-05
1.81768e-05
1.84107e-05
1.86292e-05
1.87928e-05
1.88754e-05
1.888e-05
1.88297e-05
1.87502e-05
1.86595e-05
1.85665e-05
1.84739e-05
1.83817e-05
1.82892e-05
1.81951e-05
1.80986e-05
1.79988e-05
1.78947e-05
1.77857e-05
1.7671e-05
1.75496e-05
1.7421e-05
1.72842e-05
1.71385e-05
1.6983e-05
1.6817e-05
1.66396e-05
1.645e-05
1.73874e-05
1.80943e-05
1.82121e-05
1.89645e-05
2.00416e-05
1.98005e-05
1.8857e-05
1.87406e-05
1.92998e-05
1.96121e-05
1.91813e-05
1.85022e-05
1.80305e-05
1.7721e-05
1.74069e-05
1.71413e-05
1.82417e-05
1.88077e-05
1.74668e-05
1.71955e-05
1.74825e-05
1.77283e-05
1.79455e-05
1.81703e-05
1.84037e-05
1.86192e-05
1.87786e-05
1.88584e-05
1.88625e-05
1.88131e-05
1.8735e-05
1.86455e-05
1.85531e-05
1.84607e-05
1.83684e-05
1.82756e-05
1.81812e-05
1.80843e-05
1.7984e-05
1.78795e-05
1.77699e-05
1.76546e-05
1.75327e-05
1.74034e-05
1.7266e-05
1.71197e-05
1.69637e-05
1.67971e-05
1.66193e-05
1.64295e-05
1.73646e-05
1.81024e-05
1.83452e-05
1.91611e-05
2.0024e-05
1.96855e-05
1.88605e-05
1.88121e-05
1.93328e-05
1.95954e-05
1.91859e-05
1.85193e-05
1.80384e-05
1.77227e-05
1.74095e-05
1.71627e-05
1.82199e-05
1.87726e-05
1.74991e-05
1.71962e-05
1.74675e-05
1.77169e-05
1.79382e-05
1.81651e-05
1.83979e-05
1.86101e-05
1.87653e-05
1.88422e-05
1.88456e-05
1.87971e-05
1.87203e-05
1.86318e-05
1.85399e-05
1.84477e-05
1.83553e-05
1.82623e-05
1.81675e-05
1.80702e-05
1.79694e-05
1.78643e-05
1.77542e-05
1.76383e-05
1.75158e-05
1.73859e-05
1.72479e-05
1.71009e-05
1.69442e-05
1.67771e-05
1.65987e-05
1.64087e-05
1.73409e-05
1.8134e-05
1.84815e-05
1.93118e-05
1.99786e-05
1.96068e-05
1.89012e-05
1.88983e-05
1.93616e-05
1.95754e-05
1.91867e-05
1.85338e-05
1.8045e-05
1.77225e-05
1.74104e-05
1.71848e-05
1.82031e-05
1.8741e-05
1.75312e-05
1.72011e-05
1.74553e-05
1.77071e-05
1.79323e-05
1.81613e-05
1.83933e-05
1.86021e-05
1.87531e-05
1.88271e-05
1.88296e-05
1.87817e-05
1.8706e-05
1.86184e-05
1.8527e-05
1.84349e-05
1.83425e-05
1.82491e-05
1.8154e-05
1.80562e-05
1.79549e-05
1.78493e-05
1.77386e-05
1.76221e-05
1.74989e-05
1.73684e-05
1.72298e-05
1.70822e-05
1.69249e-05
1.67571e-05
1.65783e-05
1.63878e-05
1.73166e-05
1.81848e-05
1.86088e-05
1.94175e-05
1.99332e-05
1.95764e-05
1.8982e-05
1.89967e-05
1.93839e-05
1.955e-05
1.91818e-05
1.8545e-05
1.80498e-05
1.77199e-05
1.74093e-05
1.72064e-05
1.81884e-05
1.87124e-05
1.75633e-05
1.72095e-05
1.74459e-05
1.7699e-05
1.79279e-05
1.81589e-05
1.839e-05
1.85954e-05
1.87421e-05
1.8813e-05
1.88145e-05
1.87671e-05
1.86923e-05
1.86055e-05
1.85145e-05
1.84225e-05
1.83299e-05
1.82362e-05
1.81407e-05
1.80424e-05
1.79405e-05
1.78343e-05
1.77231e-05
1.76059e-05
1.74821e-05
1.7351e-05
1.72117e-05
1.70635e-05
1.69055e-05
1.67372e-05
1.65578e-05
1.63669e-05
1.72922e-05
1.82492e-05
1.87209e-05
1.94893e-05
1.99047e-05
1.95939e-05
1.90973e-05
1.91037e-05
1.94015e-05
1.95198e-05
1.91706e-05
1.85524e-05
1.80528e-05
1.77151e-05
1.74061e-05
1.72264e-05
1.81735e-05
1.86857e-05
1.75956e-05
1.72209e-05
1.74389e-05
1.76925e-05
1.79251e-05
1.81579e-05
1.8388e-05
1.85898e-05
1.87322e-05
1.88001e-05
1.88005e-05
1.87533e-05
1.86792e-05
1.8593e-05
1.85024e-05
1.84104e-05
1.83176e-05
1.82236e-05
1.81276e-05
1.80287e-05
1.79263e-05
1.78195e-05
1.77076e-05
1.75898e-05
1.74654e-05
1.73336e-05
1.71936e-05
1.70447e-05
1.68862e-05
1.67172e-05
1.65373e-05
1.63459e-05
1.72676e-05
1.83219e-05
1.8817e-05
1.95408e-05
1.98998e-05
1.96502e-05
1.92361e-05
1.92151e-05
1.94184e-05
1.94878e-05
1.91541e-05
1.85562e-05
1.80543e-05
1.77086e-05
1.74013e-05
1.72439e-05
1.81565e-05
1.86599e-05
1.76279e-05
1.72345e-05
1.74342e-05
1.76875e-05
1.79237e-05
1.81584e-05
1.83873e-05
1.85855e-05
1.87236e-05
1.87883e-05
1.87874e-05
1.87403e-05
1.86668e-05
1.85811e-05
1.84907e-05
1.83986e-05
1.83056e-05
1.82112e-05
1.81147e-05
1.80153e-05
1.79123e-05
1.78048e-05
1.76923e-05
1.75738e-05
1.74487e-05
1.73162e-05
1.71755e-05
1.7026e-05
1.68667e-05
1.66972e-05
1.65167e-05
1.63248e-05
1.72427e-05
1.83994e-05
1.88999e-05
1.95825e-05
1.99166e-05
1.97317e-05
1.93852e-05
1.93271e-05
1.94392e-05
1.94582e-05
1.91344e-05
1.85571e-05
1.80549e-05
1.77015e-05
1.73953e-05
1.72585e-05
1.81363e-05
1.8634e-05
1.76599e-05
1.72497e-05
1.74314e-05
1.7684e-05
1.79237e-05
1.81602e-05
1.83877e-05
1.85822e-05
1.8716e-05
1.87776e-05
1.87753e-05
1.87281e-05
1.8655e-05
1.85697e-05
1.84794e-05
1.83872e-05
1.82939e-05
1.8199e-05
1.8102e-05
1.8002e-05
1.78983e-05
1.77902e-05
1.76769e-05
1.75578e-05
1.74319e-05
1.72987e-05
1.71573e-05
1.70071e-05
1.68472e-05
1.66769e-05
1.64958e-05
1.63033e-05
1.72175e-05
1.84789e-05
1.89731e-05
1.96203e-05
1.99484e-05
1.98243e-05
1.95321e-05
1.94364e-05
1.94669e-05
1.9435e-05
1.91144e-05
1.85564e-05
1.80555e-05
1.76946e-05
1.73892e-05
1.72701e-05
1.81126e-05
1.8607e-05
1.7691e-05
1.7266e-05
1.74302e-05
1.76817e-05
1.79249e-05
1.81631e-05
1.83893e-05
1.858e-05
1.87095e-05
1.8768e-05
1.87643e-05
1.87168e-05
1.8644e-05
1.85589e-05
1.84686e-05
1.83763e-05
1.82825e-05
1.81871e-05
1.80895e-05
1.79888e-05
1.78845e-05
1.77757e-05
1.76617e-05
1.75418e-05
1.74152e-05
1.72812e-05
1.71391e-05
1.69881e-05
1.68274e-05
1.66565e-05
1.64748e-05
1.62816e-05
1.7192e-05
1.85587e-05
1.90397e-05
1.96565e-05
1.99874e-05
1.99162e-05
1.96674e-05
1.95397e-05
1.95022e-05
1.94208e-05
1.90968e-05
1.85553e-05
1.80569e-05
1.76892e-05
1.73838e-05
1.72792e-05
1.8086e-05
1.85784e-05
1.77205e-05
1.72828e-05
1.74302e-05
1.76806e-05
1.79273e-05
1.81672e-05
1.83918e-05
1.85787e-05
1.8704e-05
1.87594e-05
1.87541e-05
1.87063e-05
1.86336e-05
1.85486e-05
1.84583e-05
1.83657e-05
1.82715e-05
1.81755e-05
1.80772e-05
1.79759e-05
1.78708e-05
1.77612e-05
1.76464e-05
1.75257e-05
1.73984e-05
1.72636e-05
1.71207e-05
1.69689e-05
1.68076e-05
1.66359e-05
1.64534e-05
1.62596e-05
1.7166e-05
1.86377e-05
1.91017e-05
1.96912e-05
2.0027e-05
1.9999e-05
1.97849e-05
1.96345e-05
1.9544e-05
1.94163e-05
1.90837e-05
1.85554e-05
1.806e-05
1.76862e-05
1.738e-05
1.72865e-05
1.80574e-05
1.85479e-05
1.77475e-05
1.72998e-05
1.74314e-05
1.76806e-05
1.79307e-05
1.81722e-05
1.83952e-05
1.85783e-05
1.86993e-05
1.87517e-05
1.87449e-05
1.86966e-05
1.86239e-05
1.8539e-05
1.84485e-05
1.83555e-05
1.82608e-05
1.81642e-05
1.80652e-05
1.79631e-05
1.78572e-05
1.77468e-05
1.76312e-05
1.75097e-05
1.73815e-05
1.72459e-05
1.71022e-05
1.69496e-05
1.67875e-05
1.66151e-05
1.64319e-05
1.62373e-05
1.71397e-05
1.87153e-05
1.91609e-05
1.97241e-05
2.00627e-05
2.0068e-05
1.98818e-05
1.97185e-05
1.95897e-05
1.94209e-05
1.90761e-05
1.85576e-05
1.80655e-05
1.76862e-05
1.73787e-05
1.7293e-05
1.80284e-05
1.85159e-05
1.77715e-05
1.73165e-05
1.74335e-05
1.76816e-05
1.7935e-05
1.8178e-05
1.83993e-05
1.85786e-05
1.86955e-05
1.87448e-05
1.87365e-05
1.86877e-05
1.86149e-05
1.85299e-05
1.84392e-05
1.83457e-05
1.82504e-05
1.81531e-05
1.80533e-05
1.79504e-05
1.78437e-05
1.77325e-05
1.7616e-05
1.74936e-05
1.73645e-05
1.7228e-05
1.70835e-05
1.69301e-05
1.67671e-05
1.65939e-05
1.641e-05
1.62147e-05
1.7113e-05
1.87913e-05
1.92184e-05
1.97553e-05
2.00923e-05
2.01217e-05
1.99581e-05
1.97908e-05
1.96365e-05
1.94328e-05
1.90744e-05
1.85627e-05
1.80736e-05
1.76897e-05
1.73803e-05
1.72998e-05
1.80008e-05
1.84828e-05
1.7792e-05
1.73328e-05
1.74366e-05
1.76835e-05
1.79402e-05
1.81846e-05
1.84042e-05
1.85796e-05
1.86925e-05
1.87388e-05
1.87289e-05
1.86795e-05
1.86065e-05
1.85213e-05
1.84303e-05
1.83363e-05
1.82404e-05
1.81423e-05
1.80417e-05
1.79379e-05
1.78303e-05
1.77181e-05
1.76007e-05
1.74774e-05
1.73474e-05
1.721e-05
1.70645e-05
1.69102e-05
1.67464e-05
1.65724e-05
1.63877e-05
1.61916e-05
1.70857e-05
1.88655e-05
1.9275e-05
1.97849e-05
2.01151e-05
2.01605e-05
2.00154e-05
1.98512e-05
1.96823e-05
1.94502e-05
1.90781e-05
1.85709e-05
1.80845e-05
1.76967e-05
1.73852e-05
1.73079e-05
1.7976e-05
1.84497e-05
1.78087e-05
1.73484e-05
1.74406e-05
1.76865e-05
1.79462e-05
1.81919e-05
1.84097e-05
1.85813e-05
1.86902e-05
1.87336e-05
1.8722e-05
1.8672e-05
1.85988e-05
1.85133e-05
1.84219e-05
1.83273e-05
1.82306e-05
1.81317e-05
1.80302e-05
1.79255e-05
1.78169e-05
1.77037e-05
1.75854e-05
1.7461e-05
1.733e-05
1.71917e-05
1.70453e-05
1.68901e-05
1.67253e-05
1.65505e-05
1.63648e-05
1.61679e-05
1.70577e-05
1.8938e-05
1.93309e-05
1.98128e-05
2.01315e-05
2.01862e-05
2.00563e-05
1.98965e-05
1.97214e-05
1.94711e-05
1.90865e-05
1.85821e-05
1.80981e-05
1.77069e-05
1.73932e-05
1.7318e-05
1.79554e-05
1.84174e-05
1.78218e-05
1.73634e-05
1.74456e-05
1.76905e-05
1.79531e-05
1.82e-05
1.84159e-05
1.85837e-05
1.86887e-05
1.87291e-05
1.87159e-05
1.86651e-05
1.85916e-05
1.85058e-05
1.84139e-05
1.83187e-05
1.82212e-05
1.81214e-05
1.80189e-05
1.79132e-05
1.78035e-05
1.76893e-05
1.75699e-05
1.74445e-05
1.73125e-05
1.71731e-05
1.70257e-05
1.68695e-05
1.67038e-05
1.6528e-05
1.63414e-05
1.61436e-05
1.70289e-05
1.90087e-05
1.93861e-05
1.98394e-05
2.01426e-05
2.02013e-05
2.00837e-05
1.99235e-05
1.97488e-05
1.94939e-05
1.90986e-05
1.85962e-05
1.81141e-05
1.77199e-05
1.74042e-05
1.73309e-05
1.79401e-05
1.8387e-05
1.78316e-05
1.73778e-05
1.74517e-05
1.76957e-05
1.79608e-05
1.82087e-05
1.84226e-05
1.85867e-05
1.86878e-05
1.87254e-05
1.87105e-05
1.86589e-05
1.8585e-05
1.84987e-05
1.84063e-05
1.83103e-05
1.82119e-05
1.81112e-05
1.80076e-05
1.79008e-05
1.77901e-05
1.76748e-05
1.75542e-05
1.74277e-05
1.72946e-05
1.71541e-05
1.70057e-05
1.68484e-05
1.66818e-05
1.6505e-05
1.63175e-05
1.61188e-05
1.69995e-05
1.90773e-05
1.944e-05
1.98644e-05
2.01492e-05
2.02078e-05
2.01003e-05
1.99424e-05
1.97659e-05
1.95106e-05
1.91135e-05
1.86127e-05
1.8132e-05
1.77351e-05
1.74177e-05
1.73466e-05
1.79303e-05
1.83595e-05
1.78387e-05
1.73917e-05
1.7459e-05
1.77021e-05
1.79695e-05
1.82181e-05
1.843e-05
1.85904e-05
1.86876e-05
1.87224e-05
1.87059e-05
1.86534e-05
1.85789e-05
1.84922e-05
1.8399e-05
1.83022e-05
1.82029e-05
1.81011e-05
1.79964e-05
1.78885e-05
1.77765e-05
1.766e-05
1.75383e-05
1.74106e-05
1.72763e-05
1.71347e-05
1.69851e-05
1.68268e-05
1.66591e-05
1.64814e-05
1.62929e-05
1.60933e-05
1.69694e-05
1.91432e-05
1.94915e-05
1.98874e-05
2.0152e-05
2.02078e-05
2.01084e-05
1.99544e-05
1.97717e-05
1.95081e-05
1.91129e-05
1.86251e-05
1.81515e-05
1.77518e-05
1.7433e-05
1.73653e-05
1.79263e-05
1.83353e-05
1.78436e-05
1.74052e-05
1.74675e-05
1.77097e-05
1.7979e-05
1.82282e-05
1.8438e-05
1.85946e-05
1.86882e-05
1.87201e-05
1.87019e-05
1.86485e-05
1.85734e-05
1.8486e-05
1.83921e-05
1.82944e-05
1.8194e-05
1.8091e-05
1.79852e-05
1.7876e-05
1.77628e-05
1.7645e-05
1.7522e-05
1.7393e-05
1.72575e-05
1.71147e-05
1.69639e-05
1.68045e-05
1.66357e-05
1.64569e-05
1.62675e-05
1.60668e-05
1.69381e-05
1.92055e-05
1.95398e-05
1.99079e-05
2.01517e-05
2.02027e-05
2.011e-05
1.99607e-05
1.97746e-05
1.95032e-05
1.91057e-05
1.86253e-05
1.81644e-05
1.77694e-05
1.74498e-05
1.73866e-05
1.79276e-05
1.83148e-05
1.78471e-05
1.74185e-05
1.74772e-05
1.77184e-05
1.79893e-05
1.82389e-05
1.84466e-05
1.85995e-05
1.86893e-05
1.87186e-05
1.86986e-05
1.86442e-05
1.85683e-05
1.84803e-05
1.83855e-05
1.82868e-05
1.81852e-05
1.8081e-05
1.79738e-05
1.78633e-05
1.77487e-05
1.76296e-05
1.75052e-05
1.73749e-05
1.72381e-05
1.7094e-05
1.69419e-05
1.67813e-05
1.66113e-05
1.64313e-05
1.62409e-05
1.60392e-05
1.69054e-05
1.92637e-05
1.9584e-05
1.99256e-05
2.01485e-05
2.01938e-05
2.01066e-05
1.99624e-05
1.97748e-05
1.94982e-05
1.90998e-05
1.86242e-05
1.81694e-05
1.77816e-05
1.74676e-05
1.74104e-05
1.79337e-05
1.82979e-05
1.78498e-05
1.74317e-05
1.74879e-05
1.77281e-05
1.80003e-05
1.82501e-05
1.84556e-05
1.86049e-05
1.86911e-05
1.87176e-05
1.8696e-05
1.86405e-05
1.85638e-05
1.84749e-05
1.83791e-05
1.82792e-05
1.81764e-05
1.80709e-05
1.79623e-05
1.78503e-05
1.77343e-05
1.76137e-05
1.74878e-05
1.73561e-05
1.72178e-05
1.70724e-05
1.6919e-05
1.6757e-05
1.65857e-05
1.64046e-05
1.62129e-05
1.60102e-05
1.68711e-05
1.93171e-05
1.96236e-05
1.99401e-05
2.0143e-05
2.0182e-05
2.00994e-05
1.99603e-05
1.97727e-05
1.94931e-05
1.90951e-05
1.86241e-05
1.81713e-05
1.77838e-05
1.74796e-05
1.74361e-05
1.79436e-05
1.82845e-05
1.78524e-05
1.74452e-05
1.74996e-05
1.77386e-05
1.80119e-05
1.82617e-05
1.84649e-05
1.86107e-05
1.86935e-05
1.87174e-05
1.8694e-05
1.86373e-05
1.85597e-05
1.84698e-05
1.83729e-05
1.82718e-05
1.81676e-05
1.80606e-05
1.79505e-05
1.78369e-05
1.77194e-05
1.75972e-05
1.74698e-05
1.73365e-05
1.71968e-05
1.70498e-05
1.6895e-05
1.67316e-05
1.6559e-05
1.63765e-05
1.61837e-05
1.59798e-05
1.68351e-05
1.93654e-05
1.96582e-05
1.99512e-05
2.01351e-05
2.01679e-05
2.00892e-05
1.99552e-05
1.97687e-05
1.94878e-05
1.90914e-05
1.86248e-05
1.81734e-05
1.77831e-05
1.74844e-05
1.74585e-05
1.79566e-05
1.82744e-05
1.78555e-05
1.74589e-05
1.7512e-05
1.77496e-05
1.80238e-05
1.82735e-05
1.84745e-05
1.86168e-05
1.86962e-05
1.87176e-05
1.86925e-05
1.86346e-05
1.85559e-05
1.84649e-05
1.83668e-05
1.82643e-05
1.81586e-05
1.805e-05
1.79383e-05
1.78231e-05
1.77038e-05
1.758e-05
1.74509e-05
1.7316e-05
1.71747e-05
1.70261e-05
1.68697e-05
1.67049e-05
1.65309e-05
1.63471e-05
1.61529e-05
1.59478e-05
1.67974e-05
1.94084e-05
1.96879e-05
1.99591e-05
2.01253e-05
2.0152e-05
2.00768e-05
1.99477e-05
1.97629e-05
1.94823e-05
1.90885e-05
1.86262e-05
1.81757e-05
1.77825e-05
1.74867e-05
1.7479e-05
1.79719e-05
1.82674e-05
1.78596e-05
1.74732e-05
1.75249e-05
1.77608e-05
1.80356e-05
1.82852e-05
1.84841e-05
1.86231e-05
1.86994e-05
1.87183e-05
1.86914e-05
1.86323e-05
1.85525e-05
1.84602e-05
1.83608e-05
1.82568e-05
1.81495e-05
1.80391e-05
1.79257e-05
1.78087e-05
1.76876e-05
1.7562e-05
1.74312e-05
1.72945e-05
1.71514e-05
1.70012e-05
1.68432e-05
1.66767e-05
1.65012e-05
1.6316e-05
1.61205e-05
1.59141e-05
1.67575e-05
1.94464e-05
1.97128e-05
1.99637e-05
2.01137e-05
2.01348e-05
2.00626e-05
1.99383e-05
1.97559e-05
1.94767e-05
1.90862e-05
1.86283e-05
1.81783e-05
1.77823e-05
1.74903e-05
1.75009e-05
1.79888e-05
1.82632e-05
1.78652e-05
1.74882e-05
1.75382e-05
1.77718e-05
1.80472e-05
1.82967e-05
1.84936e-05
1.86295e-05
1.87027e-05
1.87193e-05
1.86907e-05
1.86303e-05
1.85492e-05
1.84556e-05
1.83547e-05
1.8249e-05
1.814e-05
1.80278e-05
1.79125e-05
1.77935e-05
1.76706e-05
1.7543e-05
1.74103e-05
1.72718e-05
1.71268e-05
1.69748e-05
1.68151e-05
1.66469e-05
1.64698e-05
1.6283e-05
1.60861e-05
1.58784e-05
1.67152e-05
1.94795e-05
1.97333e-05
1.99655e-05
2.01005e-05
2.01165e-05
2.00472e-05
1.99274e-05
1.97478e-05
1.94708e-05
1.90843e-05
1.86307e-05
1.81811e-05
1.77826e-05
1.74951e-05
1.75206e-05
1.80031e-05
1.82617e-05
1.78728e-05