/*--------------------------------*- C++ -*----------------------------------*\
  =========                 |
  \\      /  F ield         | OpenFOAM: The Open Source CFD Toolbox
   \\    /   O peration     | Website:  https://openfoam.org
    \\  /    A nd           | Version:  9
     \\/     M anipulation  |
\*---------------------------------------------------------------------------*/
FoamFile
{
    format      ascii;
    class       volVectorField;
    location    "0.17";
    object      U;
}
// * * * * * * * * * * * * * * * * * * * * * * * * * * * * * * * * * * * * * //

dimensions      [0 1 -1 0 0 0 0];

internalField   nonuniform List<vector> 
5000
(
(0.0229596 0 0.556084)
(0.0633164 0 0.916215)
(0.0892665 0 1.49724)
(0.338602 0 -2.68207)
(-0.314301 0 -2.46837)
(-0.0641441 0 1.58721)
(-0.00323695 0 0.739286)
(-0.0536118 0 -2.59128)
(-0.0766329 0 -0.0465982)
(-0.00320765 0 0.710471)
(-0.00151288 0 0.662647)
(0.00915524 0 0.722962)
(0.0207505 0 0.892058)
(0.0500262 0 1.1516)
(0.0735928 0 1.57553)
(0.250514 0 -2.5949)
(-0.21531 0 -2.1617)
(-0.0612268 0 1.5871)
(-0.0484055 0 1.13964)
(-0.0231998 0 0.8564)
(-0.015043 0 0.650885)
(-0.0103831 0 0.494407)
(-0.00723706 0 0.352553)
(-0.00433644 0 0.203303)
(-0.000482835 0 0.0207909)
(0.00373384 0 -0.202581)
(0.00395947 0 -0.395998)
(-0.000456159 0 -0.447169)
(-0.00346963 0 -0.385018)
(-0.00351323 0 -0.306907)
(-0.00267619 0 -0.24947)
(-0.00192807 0 -0.210298)
(-0.00141282 0 -0.181697)
(-0.00107032 0 -0.158928)
(-0.000834761 0 -0.139699)
(-0.000664318 0 -0.122926)
(-0.000535157 0 -0.108047)
(-0.000433773 0 -0.0947259)
(-0.000352218 0 -0.082736)
(-0.000285537 0 -0.0719059)
(-0.000230454 0 -0.0620987)
(-0.000184685 0 -0.0531997)
(-0.000146587 0 -0.0451081)
(-0.000114942 0 -0.037731)
(-8.88418e-05 0 -0.0309788)
(-6.76342e-05 0 -0.0247631)
(-5.099e-05 0 -0.0189942)
(-3.9222e-05 0 -0.0135691)
(-3.27251e-05 0 -0.00833508)
(-2.61344e-05 0 -0.0030925)
(0.0584811 0 0.53634)
(0.146103 0 0.87092)
(0.183216 0 1.3646)
(0.44034 0 -2.35635)
(-0.434198 0 -2.23365)
(-0.203809 0 1.50912)
(0.00334474 0 0.654636)
(-0.0591176 0 -2.41802)
(-0.2066 0 -0.118921)
(-0.0169087 0 0.689768)
(-0.00872911 0 0.651253)
(0.0253141 0 0.71239)
(0.0546112 0 0.876156)
(0.120221 0 1.11722)
(0.149106 0 1.47875)
(0.32824 0 -2.34208)
(-0.401359 0 -1.97635)
(-0.148614 0 1.52142)
(-0.131205 0 1.10812)
(-0.0641279 0 0.843364)
(-0.0435147 0 0.643136)
(-0.0299427 0 0.489527)
(-0.0205091 0 0.348843)
(-0.0123724 0 0.199234)
(-0.00343289 0 0.0155133)
(0.00496305 0 -0.20595)
(0.00566146 0 -0.392637)
(-0.00153528 0 -0.442017)
(-0.00661576 0 -0.383858)
(-0.00710669 0 -0.308213)
(-0.00599431 0 -0.251135)
(-0.00474515 0 -0.211659)
(-0.00371442 0 -0.182717)
(-0.00292263 0 -0.159699)
(-0.00231938 0 -0.140302)
(-0.00185371 0 -0.123415)
(-0.00148756 0 -0.108454)
(-0.00119475 0 -0.0950719)
(-0.00095742 0 -0.0830337)
(-0.000763234 0 -0.0721639)
(-0.000603425 0 -0.062323)
(-0.000471662 0 -0.0533947)
(-0.000363327 0 -0.045277)
(-0.000275058 0 -0.0378759)
(-0.000204453 0 -0.0311009)
(-0.000149805 0 -0.0248628)
(-0.000110185 0 -0.01907)
(-8.61587e-05 0 -0.0136153)
(-7.86659e-05 0 -0.00835385)
(-7.59459e-05 0 -0.00313108)
(0.078137 0 0.494487)
(0.182375 0 0.805712)
(0.238418 0 1.2348)
(0.418561 0 -2.09568)
(-0.461149 0 -2.01257)
(-0.276067 0 1.37803)
(-0.00789043 0 0.509813)
(-0.0657939 0 -2.24331)
(-0.26086 0 -0.230392)
(-0.0240945 0 0.643721)
(-0.0168213 0 0.624186)
(0.0380226 0 0.68806)
(0.0759194 0 0.844674)
(0.156951 0 1.0669)
(0.203626 0 1.38502)
(0.338392 0 -2.09716)
(-0.46583 0 -1.79436)
(-0.200561 0 1.4276)
(-0.184571 0 1.05259)
(-0.0914567 0 0.815874)
(-0.0665992 0 0.625146)
(-0.0459059 0 0.477397)
(-0.0316462 0 0.338948)
(-0.0195944 0 0.188956)
(-0.00700601 0 0.00425241)
(0.00399697 0 -0.212527)
(0.00511865 0 -0.387672)
(-0.00269493 0 -0.433064)
(-0.00828316 0 -0.379973)
(-0.00903097 0 -0.30857)
(-0.00793361 0 -0.252905)
(-0.00652771 0 -0.213504)
(-0.00526405 0 -0.184284)
(-0.00422406 0 -0.16097)
(-0.00338617 0 -0.141333)
(-0.00271118 0 -0.124263)
(-0.0021642 0 -0.109162)
(-0.00171798 0 -0.0956715)
(-0.00135187 0 -0.0835462)
(-0.00105031 0 -0.0726047)
(-0.000801552 0 -0.0627031)
(-0.000596716 0 -0.0537218)
(-0.000429088 0 -0.0455562)
(-0.000293633 0 -0.0381104)
(-0.000186642 0 -0.031292)
(-0.000105399 0 -0.0250098)
(-4.7931e-05 0 -0.0191696)
(-1.32049e-05 0 -0.0136611)
(-3.23931e-06 0 -0.00834789)
(-5.90192e-06 0 -0.00312686)
(0.0849287 0 0.442212)
(0.191154 0 0.740512)
(0.264171 0 1.13648)
(0.377282 0 -1.84782)
(-0.425344 0 -1.82711)
(-0.295309 0 1.25936)
(-0.00862359 0 0.37821)
(-0.081361 0 -2.08808)
(-0.28235 0 -0.32329)
(-0.0250874 0 0.585534)
(-0.0221528 0 0.587503)
(0.0487663 0 0.654403)
(0.0883338 0 0.804537)
(0.173732 0 1.01399)
(0.237073 0 1.30633)
(0.325243 0 -1.85771)
(-0.456586 0 -1.64082)
(-0.223598 0 1.33622)
(-0.207665 0 0.995168)
(-0.105454 0 0.781245)
(-0.0826101 0 0.601483)
(-0.0569598 0 0.460927)
(-0.0398991 0 0.325243)
(-0.0251182 0 0.175363)
(-0.0100652 0 -0.00917924)
(0.00239117 0 -0.21987)
(0.00375408 0 -0.382994)
(-0.00395137 0 -0.42425)
(-0.00942297 0 -0.375699)
(-0.0101995 0 -0.308559)
(-0.00906694 0 -0.254591)
(-0.00754387 0 -0.215494)
(-0.00613263 0 -0.186119)
(-0.00493945 0 -0.162556)
(-0.00395253 0 -0.142685)
(-0.0031384 0 -0.125415)
(-0.00246545 0 -0.11015)
(-0.0019077 0 -0.0965225)
(-0.00144448 0 -0.0842828)
(-0.00105946 0 -0.0732436)
(-0.000739805 0 -0.0632568)
(-0.000475412 0 -0.0541994)
(-0.000258322 0 -0.0459643)
(-8.22972e-05 0 -0.0384532)
(5.75301e-05 0 -0.0315716)
(0.00016499 0 -0.0252263)
(0.000243161 0 -0.0193212)
(0.000294263 0 -0.0137454)
(0.000317528 0 -0.00837229)
(0.000329759 0 -0.00312426)
(0.0830549 0 0.389493)
(0.185003 0 0.681786)
(0.267316 0 1.06599)
(0.336228 0 -1.61411)
(-0.357041 0 -1.64675)
(-0.276266 0 1.16295)
(-0.00160093 0 0.276657)
(-0.101168 0 -1.9428)
(-0.289625 0 -0.400803)
(-0.0242126 0 0.524312)
(-0.0254164 0 0.548427)
(0.0573995 0 0.617561)
(0.0944647 0 0.762057)
(0.179341 0 0.963358)
(0.249671 0 1.24717)
(0.304093 0 -1.62044)
(-0.410811 0 -1.48255)
(-0.225004 0 1.26183)
(-0.207154 0 0.947005)
(-0.109711 0 0.745855)
(-0.0913043 0 0.576659)
(-0.0628258 0 0.442775)
(-0.044889 0 0.309682)
(-0.0284363 0 0.16022)
(-0.0120598 0 -0.0233743)
(0.000780416 0 -0.227262)
(0.00220283 0 -0.379252)
(-0.00489817 0 -0.416879)
(-0.00988056 0 -0.372155)
(-0.0105948 0 -0.308754)
(-0.00945506 0 -0.256349)
(-0.00787749 0 -0.217572)
(-0.00638323 0 -0.188088)
(-0.00509503 0 -0.164311)
(-0.00401091 0 -0.144223)
(-0.00310327 0 -0.126759)
(-0.00234349 0 -0.111324)
(-0.00170689 0 -0.0975503)
(-0.00117326 0 -0.0851824)
(-0.000726247 0 -0.0740301)
(-0.00035268 0 -0.0639424)
(-4.1908e-05 0 -0.0547937)
(0.000214731 0 -0.0464745)
(0.000424242 0 -0.0388846)
(0.000592299 0 -0.0319281)
(0.000723605 0 -0.0255101)
(0.00082226 0 -0.0195339)
(0.000891528 0 -0.0138897)
(0.000931547 0 -0.00845464)
(0.00096013 0 -0.00315588)
(0.0751827 0 0.338672)
(0.168146 0 0.628236)
(0.254535 0 1.00881)
(0.301456 0 -1.40634)
(-0.279513 0 -1.47218)
(-0.241474 0 1.08505)
(0.0103463 0 0.203327)
(-0.116588 0 -1.80366)
(-0.289579 0 -0.471886)
(-0.0212835 0 0.460367)
(-0.0264006 0 0.509043)
(0.0643901 0 0.58054)
(0.096608 0 0.720289)
(0.17827 0 0.916304)
(0.24746 0 1.20063)
(0.284105 0 -1.39619)
(-0.350719 0 -1.32146)
(-0.213073 0 1.20522)
(-0.19188 0 0.909131)
(-0.107766 0 0.713307)
(-0.093539 0 0.553322)
(-0.0641813 0 0.424492)
(-0.0467898 0 0.293355)
(-0.0295329 0 0.14427)
(-0.012738 0 -0.0379192)
(-0.000191934 0 -0.234605)
(0.00119427 0 -0.37623)
(-0.00509448 0 -0.410578)
(-0.00949832 0 -0.369131)
(-0.0101614 0 -0.309082)
(-0.00907414 0 -0.258147)
(-0.00751841 0 -0.219697)
(-0.00601051 0 -0.190123)
(-0.00468424 0 -0.16615)
(-0.0035497 0 -0.145857)
(-0.00258751 0 -0.128205)
(-0.00177357 0 -0.112602)
(-0.00108558 0 -0.0986792)
(-0.000504581 0 -0.0861783)
(-1.47938e-05 0 -0.0749065)
(0.000396793 0 -0.0647106)
(0.000740935 0 -0.0554629)
(0.00102655 0 -0.0470522)
(0.00126098 0 -0.0393765)
(0.00145034 0 -0.0323387)
(0.00159983 0 -0.0258432)
(0.00171424 0 -0.0197931)
(0.00179738 0 -0.0140791)
(0.00184913 0 -0.00857708)
(0.00188711 0 -0.00320734)
(0.0628441 0 0.289909)
(0.143446 0 0.579004)
(0.230264 0 0.957594)
(0.271359 0 -1.23204)
(-0.207513 0 -1.31553)
(-0.205434 0 1.01889)
(0.0242181 0 0.153617)
(-0.12168 0 -1.67154)
(-0.281819 0 -0.539884)
(-0.0157333 0 0.39321)
(-0.0244236 0 0.470365)
(0.0698642 0 0.544581)
(0.096125 0 0.680404)
(0.172433 0 0.87352)
(0.236068 0 1.16152)
(0.26672 0 -1.19811)
(-0.288709 0 -1.16696)
(-0.193069 0 1.16139)
(-0.16887 0 0.879822)
(-0.10172 0 0.685168)
(-0.0905092 0 0.53255)
(-0.061971 0 0.406975)
(-0.0459586 0 0.27711)
(-0.0285488 0 0.128219)
(-0.0120027 0 -0.0522497)
(-0.000135502 0 -0.241599)
(0.00112203 0 -0.373599)
(-0.00441078 0 -0.404975)
(-0.00831966 0 -0.366374)
(-0.00896768 0 -0.309387)
(-0.00796719 0 -0.259886)
(-0.0064809 0 -0.221803)
(-0.00501004 0 -0.192177)
(-0.00369363 0 -0.168033)
(-0.00255139 0 -0.147549)
(-0.0015713 0 -0.129717)
(-0.000734057 0 -0.11395)
(-2.056e-05 0 -0.0998782)
(0.00058613 0 -0.0872431)
(0.00110058 0 -0.0758492)
(0.00153511 0 -0.0655415)
(0.00190012 0 -0.0561906)
(0.00220435 0 -0.0476836)
(0.00245516 0 -0.0399175)
(0.00265875 0 -0.032794)
(0.00282058 0 -0.0262167)
(0.00294573 0 -0.0200888)
(0.00303818 0 -0.0143006)
(0.00309666 0 -0.00872361)
(0.00314013 0 -0.00326919)
(0.0470705 0 0.244182)
(0.113454 0 0.535292)
(0.197438 0 0.90891)
(0.241504 0 -1.09544)
(-0.148443 0 -1.17875)
(-0.17279 0 0.962158)
(0.037537 0 0.123005)
(-0.115304 0 -1.54902)
(-0.264963 0 -0.602455)
(-0.0084068 0 0.32449)
(-0.0192505 0 0.433618)
(0.0738118 0 0.510659)
(0.0940084 0 0.643496)
(0.162614 0 0.83589)
(0.219563 0 1.1266)
(0.249866 0 -1.03093)
(-0.231752 0 -1.02419)
(-0.168627 0 1.12683)
(-0.143109 0 0.857623)
(-0.0927848 0 0.661822)
(-0.0834898 0 0.514508)
(-0.0570672 0 0.39067)
(-0.0427929 0 0.261504)
(-0.0257307 0 0.112583)
(-0.00991996 0 -0.0659559)
(0.00104036 0 -0.248057)
(0.00205651 0 -0.371245)
(-0.00288796 0 -0.399935)
(-0.00642773 0 -0.363798)
(-0.00710328 0 -0.309593)
(-0.00621387 0 -0.26148)
(-0.00482618 0 -0.223803)
(-0.00342401 0 -0.194171)
(-0.00215003 0 -0.169889)
(-0.00103161 0 -0.149239)
(-6.24312e-05 0 -0.131241)
(0.000772631 0 -0.115319)
(0.00148956 0 -0.101106)
(0.00210311 0 -0.0883395)
(0.0026263 0 -0.0768251)
(0.00307043 0 -0.0664057)
(0.00344517 0 -0.0569507)
(0.00375879 0 -0.0483462)
(0.00401836 0 -0.0404878)
(0.00423 0 -0.0332763)
(0.00439915 0 -0.0266151)
(0.00453099 0 -0.0204073)
(0.00462944 0 -0.0145417)
(0.00469205 0 -0.00888425)
(0.0047391 0 -0.00333725)
(0.0288831 0 0.202721)
(0.0797563 0 0.498588)
(0.158869 0 0.861242)
(0.208641 0 -0.995741)
(-0.105364 0 -1.05683)
(-0.144661 0 0.912925)
(0.0486163 0 0.105159)
(-0.100633 0 -1.43763)
(-0.24007 0 -0.656762)
(-0.00128192 0 0.256891)
(-0.0115573 0 0.399998)
(0.0760758 0 0.47991)
(0.0909405 0 0.610677)
(0.149568 0 0.803945)
(0.200355 0 1.09461)
(0.231449 0 -0.890674)
(-0.183552 0 -0.895706)
(-0.143239 0 1.0997)
(-0.11769 0 0.841463)
(-0.0819931 0 0.64305)
(-0.073768 0 0.49911)
(-0.050252 0 0.37588)
(-0.0377523 0 0.246929)
(-0.0214275 0 0.0977466)
(-0.00668952 0 -0.0787363)
(0.0032134 0 -0.253833)
(0.00389853 0 -0.369062)
(-0.000626253 0 -0.395364)
(-0.00392035 0 -0.361378)
(-0.00465399 0 -0.309691)
(-0.00389684 0 -0.262904)
(-0.00263116 0 -0.225656)
(-0.0013204 0 -0.196055)
(-0.000111151 0 -0.171669)
(0.000962064 0 -0.150877)
(0.00190035 0 -0.132733)
(0.00271495 0 -0.116671)
(0.00341898 0 -0.102325)
(0.00402504 0 -0.0894351)
(0.00454457 0 -0.077805)
(0.00498766 0 -0.0672774)
(0.00536311 0 -0.0577207)
(0.00567854 0 -0.04902)
(0.00594063 0 -0.04107)
(0.00615523 0 -0.0337712)
(0.00632765 0 -0.0270266)
(0.00646298 0 -0.0207388)
(0.00656509 0 -0.0147948)
(0.00663075 0 -0.00905427)
(0.00667988 0 -0.00341017)
(0.00959958 0 0.166322)
(0.0431397 0 0.469817)
(0.116817 0 0.813796)
(0.171924 0 -0.925391)
(-0.0789541 0 -0.948928)
(-0.122299 0 0.868492)
(0.056408 0 0.0934285)
(-0.0832855 0 -1.33767)
(-0.211268 0 -0.701459)
(0.0035399 0 0.192338)
(-0.00267967 0 0.369839)
(0.0766173 0 0.453071)
(0.0874496 0 0.582773)
(0.134412 0 0.777784)
(0.180298 0 1.06517)
(0.210393 0 -0.772902)
(-0.145667 0 -0.780807)
(-0.119818 0 1.07804)
(-0.0941739 0 0.829982)
(-0.0703745 0 0.628257)
(-0.0625237 0 0.486173)
(-0.0422446 0 0.362786)
(-0.0313577 0 0.233614)
(-0.0160456 0 0.0839662)
(-0.00257008 0 -0.0903934)
(0.00619362 0 -0.258816)
(0.00647481 0 -0.366902)
(0.00223446 0 -0.391131)
(-0.000899377 0 -0.359056)
(-0.00171067 0 -0.309668)
(-0.00110084 0 -0.26415)
(2.66417e-05 0 -0.227349)
(0.00123011 0 -0.197812)
(0.0023591 0 -0.17335)
(0.00337244 0 -0.15244)
(0.00426624 0 -0.134168)
(0.00504794 0 -0.11798)
(0.00572782 0 -0.103513)
(0.00631637 0 -0.0905085)
(0.00682339 0 -0.0787699)
(0.00725773 0 -0.0681396)
(0.00762723 0 -0.0584854)
(0.00793887 0 -0.0496919)
(0.00819883 0 -0.0416533)
(0.00841268 0 -0.0342694)
(0.00858552 0 -0.0274434)
(0.00872213 0 -0.0210773)
(0.00882632 0 -0.0150554)
(0.00889468 0 -0.00923099)
(0.00894468 0 -0.00348715)
(-0.0098297 0 0.136545)
(0.00453871 0 0.449022)
(0.0736827 0 0.765229)
(0.132142 0 -0.875751)
(-0.0686131 0 -0.857499)
(-0.106068 0 0.825932)
(0.0606126 0 0.083029)
(-0.0685184 0 -1.24847)
(-0.184051 0 -0.736935)
(0.00493892 0 0.131552)
(0.00608748 0 0.342527)
(0.0755766 0 0.430204)
(0.0839918 0 0.560079)
(0.118553 0 0.757098)
(0.160846 0 1.03815)
(0.187263 0 -0.673668)
(-0.117575 0 -0.678917)
(-0.0999155 0 1.05984)
(-0.0731818 0 0.821529)
(-0.0587601 0 0.616673)
(-0.0506979 0 0.475377)
(-0.033647 0 0.351384)
(-0.0241062 0 0.221614)
(-0.00996054 0 0.0713585)
(0.0021871 0 -0.100834)
(0.00979277 0 -0.262957)
(0.00962559 0 -0.364653)
(0.00556768 0 -0.387103)
(0.0025372 0 -0.356765)
(0.00163677 0 -0.309501)
(0.00209329 0 -0.265207)
(0.00307608 0 -0.228871)
(0.00416406 0 -0.199428)
(0.00520356 0 -0.174918)
(0.00614781 0 -0.153912)
(0.00698833 0 -0.135531)
(0.00772895 0 -0.119232)
(0.00837723 0 -0.104655)
(0.00894154 0 -0.0915457)
(0.00943005 0 -0.0797065)
(0.00985033 0 -0.0689801)
(0.0102093 0 -0.0592342)
(0.0105134 0 -0.0503527)
(0.0107681 0 -0.0422295)
(0.0109789 0 -0.0347643)
(0.0111503 0 -0.0278602)
(0.011287 0 -0.0214185)
(0.0113924 0 -0.0153207)
(0.0114634 0 -0.00941288)
(0.0115136 0 -0.00356776)
(-0.0303376 0 0.113436)
(-0.035139 0 0.433818)
(0.0335443 0 0.716618)
(0.0903394 0 -0.837184)
(-0.0721212 0 -0.784704)
(-0.0941157 0 0.78246)
(0.0623814 0 0.0726023)
(-0.0586858 0 -1.1685)
(-0.162522 0 -0.764837)
(0.00311338 0 0.0744736)
(0.013982 0 0.316475)
(0.0733807 0 0.410814)
(0.0809777 0 0.542336)
(0.103525 0 0.741309)
(0.143143 0 1.01368)
(0.163433 0 -0.588525)
(-0.09779 0 -0.590481)
(-0.0833278 0 1.04318)
(-0.0547336 0 0.814648)
(-0.0475812 0 0.607525)
(-0.0389021 0 0.466304)
(-0.0248606 0 0.341505)
(-0.016381 0 0.210848)
(-0.00344991 0 0.0599361)
(0.00738491 0 -0.110047)
(0.0138549 0 -0.266253)
(0.0132287 0 -0.362247)
(0.00927967 0 -0.38319)
(0.00631076 0 -0.354459)
(0.00531601 0 -0.309177)
(0.00562064 0 -0.266067)
(0.00645927 0 -0.230214)
(0.0074296 0 -0.200894)
(0.00837576 0 -0.176362)
(0.00924632 0 -0.155283)
(0.0100287 0 -0.13681)
(0.0107235 0 -0.120414)
(0.0113356 0 -0.105741)
(0.0118714 0 -0.0925365)
(0.0123375 0 -0.0806056)
(0.0127403 0 -0.0697907)
(0.013086 0 -0.0599596)
(0.0133801 0 -0.0509958)
(0.0136278 0 -0.0427932)
(0.013834 0 -0.0352515)
(0.0140032 0 -0.0282738)
(0.0141392 0 -0.0217604)
(0.0142454 0 -0.0155893)
(0.0143193 0 -0.00959945)
(0.0143694 0 -0.003652)
(-0.0519318 0 0.0960828)
(-0.072305 0 0.425588)
(-0.000488242 0 0.666122)
(0.0469085 0 -0.803722)
(-0.0854036 0 -0.731575)
(-0.0824372 0 0.735616)
(0.0646157 0 0.0634921)
(-0.052485 0 -1.09551)
(-0.147323 0 -0.7873)
(-0.000830555 0 0.0200798)
(0.0207556 0 0.290462)
(0.0709251 0 0.394235)
(0.0787987 0 0.528883)
(0.0907016 0 0.729703)
(0.128092 0 0.992006)
(0.140524 0 -0.513455)
(-0.0844868 0 -0.515558)
(-0.068642 0 1.02659)
(-0.0384725 0 0.808524)
(-0.0368679 0 0.600162)
(-0.0274206 0 0.458574)
(-0.0160778 0 0.332925)
(-0.0084175 0 0.2012)
(0.0033156 0 0.0496625)
(0.0128828 0 -0.11807)
(0.0182617 0 -0.268731)
(0.0171899 0 -0.359651)
(0.0133005 0 -0.37934)
(0.010365 0 -0.35212)
(0.00927601 0 -0.308697)
(0.00943457 0 -0.266734)
(0.0101334 0 -0.231375)
(0.0109875 0 -0.202206)
(0.0118401 0 -0.177678)
(0.0126356 0 -0.156546)
(0.013358 0 -0.137999)
(0.0140046 0 -0.121521)
(0.0145781 0 -0.106764)
(0.015083 0 -0.0934752)
(0.0155245 0 -0.0814618)
(0.0159079 0 -0.0705666)
(0.0162386 0 -0.0606573)
(0.0165214 0 -0.0516177)
(0.0167611 0 -0.0433416)
(0.0169622 0 -0.0357289)
(0.0171285 0 -0.0286826)
(0.0172636 0 -0.0221018)
(0.0173704 0 -0.0158608)
(0.0174471 0 -0.00979072)
(0.0174971 0 -0.00373999)
(-0.0725758 0 0.0845869)
(-0.103584 0 0.423199)
(-0.0286689 0 0.617021)
(0.00438419 0 -0.774245)
(-0.103339 0 -0.699522)
(-0.0673406 0 0.682433)
(0.0712624 0 0.0577317)
(-0.0456218 0 -1.02635)
(-0.136152 0 -0.805797)
(-0.00499035 0 -0.0331018)
(0.0269827 0 0.264216)
(0.0690378 0 0.379894)
(0.0777792 0 0.518878)
(0.081037 0 0.721507)
(0.116379 0 0.973341)
(0.12019 0 -0.445267)
(-0.0756934 0 -0.453519)
(-0.054251 0 1.00902)
(-0.0238479 0 0.802997)
(-0.0264198 0 0.594128)
(-0.0162823 0 0.451959)
(-0.00734388 0 0.325427)
(-0.000341864 0 0.192566)
(0.0102263 0 0.0404937)
(0.0185854 0 -0.124955)
(0.0229324 0 -0.270435)
(0.021439 0 -0.35685)
(0.0175782 0 -0.375522)
(0.0146603 0 -0.349739)
(0.0134815 0 -0.308069)
(0.0135025 0 -0.267216)
(0.0140679 0 -0.232364)
(0.0148095 0 -0.203367)
(0.0155701 0 -0.178866)
(0.0162913 0 -0.157701)
(0.0169533 0 -0.139096)
(0.0175511 0 -0.12255)
(0.018085 0 -0.107721)
(0.0185579 0 -0.0943591)
(0.0189737 0 -0.0822726)
(0.0193368 0 -0.0713052)
(0.0196518 0 -0.0613252)
(0.0199229 0 -0.0522165)
(0.0201542 0 -0.0438732)
(0.0203498 0 -0.0361953)
(0.0205131 0 -0.0290857)
(0.020647 0 -0.0224421)
(0.0207542 0 -0.0161349)
(0.0208335 0 -0.00998657)
(0.0208834 0 -0.00383177)
(-0.090705 0 0.078059)
(-0.126457 0 0.422547)
(-0.0510335 0 0.572254)
(-0.034007 0 -0.745018)
(-0.122303 0 -0.688991)
(-0.0470964 0 0.618685)
(0.0863589 0 0.0567716)
(-0.0331705 0 -0.957749)
(-0.125086 0 -0.820228)
(-0.00747317 0 -0.0856515)
(0.0335453 0 0.237775)
(0.0684081 0 0.367344)
(0.07817 0 0.511496)
(0.0749719 0 0.715918)
(0.108444 0 0.957787)
(0.103852 0 -0.381592)
(-0.0694565 0 -0.403286)
(-0.0391521 0 0.989756)
(-0.0102252 0 0.798365)
(-0.0159597 0 0.589113)
(-0.00540901 0 0.44632)
(0.00132924 0 0.318886)
(0.00780418 0 0.184877)
(0.0172216 0 0.0323891)
(0.0244277 0 -0.130752)
(0.02781 0 -0.271414)
(0.0259266 0 -0.353847)
(0.0220783 0 -0.371717)
(0.019171 0 -0.347312)
(0.0179099 0 -0.307303)
(0.0178033 0 -0.267527)
(0.0182427 0 -0.233187)
(0.0188761 0 -0.204383)
(0.0195474 0 -0.179929)
(0.0201955 0 -0.158748)
(0.0207978 0 -0.140102)
(0.0213466 0 -0.123502)
(0.0218406 0 -0.108612)
(0.0222811 0 -0.0951873)
(0.0226709 0 -0.0830369)
(0.0230135 0 -0.0720058)
(0.0233127 0 -0.0619626)
(0.023572 0 -0.0527917)
(0.023795 0 -0.0443874)
(0.0239851 0 -0.0366502)
(0.0241454 0 -0.0294828)
(0.024278 0 -0.0227811)
(0.0243856 0 -0.0164113)
(0.0244676 0 -0.0101869)
(0.0245176 0 -0.00392738)
(-0.105588 0 0.0745141)
(-0.140145 0 0.420516)
(-0.0664412 0 0.533348)
(-0.0637566 0 -0.713592)
(-0.139282 0 -0.698496)
(-0.0226944 0 0.539674)
(0.111611 0 0.0603881)
(-0.0118449 0 -0.886622)
(-0.110126 0 -0.828954)
(-0.00692492 0 -0.137064)
(0.0411413 0 0.211449)
(0.0694939 0 0.356321)
(0.0801057 0 0.506047)
(0.0724963 0 0.712113)
(0.104383 0 0.945212)
(0.0924406 0 -0.320856)
(-0.0640168 0 -0.363381)
(-0.0231164 0 0.968409)
(0.00301086 0 0.79472)
(-0.00535458 0 0.585427)
(0.00536981 0 0.441377)
(0.00996533 0 0.31321)
(0.0159789 0 0.178091)
(0.0242594 0 0.0253076)
(0.0303708 0 -0.135522)
(0.0328615 0 -0.271724)
(0.0306257 0 -0.350654)
(0.0267839 0 -0.367918)
(0.0238853 0 -0.344843)
(0.0225503 0 -0.30641)
(0.0223258 0 -0.267676)
(0.0226463 0 -0.233853)
(0.0231759 0 -0.205258)
(0.0237603 0 -0.180869)
(0.0243364 0 -0.15969)
(0.0248794 0 -0.141017)
(0.0253793 0 -0.124375)
(0.0258333 0 -0.109437)
(0.0262414 0 -0.0959597)
(0.0266054 0 -0.0837547)
(0.0269277 0 -0.0726682)
(0.0272113 0 -0.0625694)
(0.0274591 0 -0.0533433)
(0.027674 0 -0.0448846)
(0.027859 0 -0.0370942)
(0.0280165 0 -0.0298743)
(0.0281483 0 -0.0231193)
(0.0282565 0 -0.0166907)
(0.0283412 0 -0.0103923)
(0.0283921 0 -0.00402735)
(-0.117023 0 0.0718415)
(-0.145268 0 0.415386)
(-0.073965 0 0.501074)
(-0.0804878 0 -0.680062)
(-0.149239 0 -0.72454)
(0.00218982 0 0.442651)
(0.143988 0 0.0654336)
(0.0185729 0 -0.81126)
(-0.0885104 0 -0.829452)
(-0.00271851 0 -0.185857)
(0.0499916 0 0.185739)
(0.0724461 0 0.346712)
(0.0835395 0 0.502003)
(0.0732722 0 0.709314)
(0.103881 0 0.935225)
(0.0863043 0 -0.262005)
(-0.0577584 0 -0.332225)
(-0.00673056 0 0.94494)
(0.0165386 0 0.792118)
(0.00548005 0 0.583121)
(0.0158544 0 0.437246)
(0.0187291 0 0.308378)
(0.0241841 0 0.172177)
(0.0313216 0 0.0192066)
(0.0364027 0 -0.139329)
(0.0380778 0 -0.271425)
(0.0355301 0 -0.347288)
(0.0316937 0 -0.364124)
(0.0288029 0 -0.342336)
(0.0274005 0 -0.305402)
(0.027066 0 -0.267675)
(0.0272733 0 -0.234369)
(0.0277022 0 -0.205998)
(0.0282013 0 -0.18169)
(0.0287061 0 -0.160528)
(0.0291898 0 -0.141842)
(0.0296409 0 -0.125171)
(0.0300548 0 -0.110196)
(0.0304306 0 -0.0966764)
(0.0307689 0 -0.0844262)
(0.0310713 0 -0.0732927)
(0.0313398 0 -0.0631462)
(0.0315766 0 -0.0538723)
(0.031784 0 -0.045366)
(0.0319644 0 -0.0375286)
(0.0321198 0 -0.0302619)
(0.0322515 0 -0.0234582)
(0.032361 0 -0.0169745)
(0.0324489 0 -0.010604)
(0.0325015 0 -0.0041321)
(-0.125551 0 0.0682592)
(-0.143961 0 0.405784)
(-0.073853 0 0.473607)
(-0.0810184 0 -0.646083)
(-0.146028 0 -0.760987)
(0.0228366 0 0.330184)
(0.177108 0 0.0676678)
(0.0542863 0 -0.733541)
(-0.0598009 0 -0.8197)
(0.00494515 0 -0.229952)
(0.0597751 0 0.161179)
(0.0770673 0 0.338488)
(0.0882201 0 0.498969)
(0.0767457 0 0.706884)
(0.106259 0 0.927241)
(0.0851964 0 -0.204353)
(-0.0495713 0 -0.308245)
(0.00928081 0 0.919292)
(0.0305534 0 0.791225)
(0.0166635 0 0.581806)
(0.0261098 0 0.434182)
(0.027519 0 0.304424)
(0.0323796 0 0.167123)
(0.0383996 0 0.0140452)
(0.0425281 0 -0.142244)
(0.0434649 0 -0.270581)
(0.0406456 0 -0.343771)
(0.0368136 0 -0.360332)
(0.0339269 0 -0.339794)
(0.0324597 0 -0.304284)
(0.0320202 0 -0.267531)
(0.0321179 0 -0.234739)
(0.0324481 0 -0.206603)
(0.0328626 0 -0.182392)
(0.0332963 0 -0.161263)
(0.0337206 0 -0.142577)
(0.0341227 0 -0.12589)
(0.0344967 0 -0.110889)
(0.0348405 0 -0.0973377)
(0.0351535 0 -0.0850518)
(0.0354365 0 -0.0738803)
(0.0356905 0 -0.0636943)
(0.0359171 0 -0.05438)
(0.0361178 0 -0.0458333)
(0.0362944 0 -0.0379553)
(0.0364487 0 -0.0306476)
(0.0365812 0 -0.0238003)
(0.0366931 0 -0.0172653)
(0.0367849 0 -0.0108248)
(0.0368402 0 -0.00424392)
(-0.132716 0 0.0625966)
(-0.139867 0 0.390496)
(-0.0679684 0 0.44645)
(-0.0644459 0 -0.615005)
(-0.125269 0 -0.799767)
(0.0364777 0 0.209561)
(0.203925 0 0.0640484)
(0.0892132 0 -0.656834)
(-0.0262371 0 -0.799861)
(0.0152238 0 -0.267275)
(0.0697559 0 0.138245)
(0.0828444 0 0.331535)
(0.0937298 0 0.496623)
(0.0822084 0 0.704392)
(0.110596 0 0.920581)
(0.0883816 0 -0.147846)
(-0.0391096 0 -0.289433)
(0.0245659 0 0.891439)
(0.0450663 0 0.792362)
(0.0279348 0 0.58162)
(0.0362511 0 0.432144)
(0.0362732 0 0.30131)
(0.0405282 0 0.162901)
(0.0454834 0 0.00977468)
(0.0487515 0 -0.144343)
(0.0490287 0 -0.269257)
(0.0459768 0 -0.340124)
(0.0421448 0 -0.356541)
(0.0392532 0 -0.337212)
(0.0377193 0 -0.30306)
(0.0371763 0 -0.267246)
(0.0371666 0 -0.234966)
(0.0373996 0 -0.207076)
(0.0377303 0 -0.182977)
(0.0380931 0 -0.161894)
(0.0384584 0 -0.143222)
(0.0388119 0 -0.126532)
(0.0391465 0 -0.111517)
(0.0394588 0 -0.0979442)
(0.0397473 0 -0.0856326)
(0.0400117 0 -0.0744322)
(0.0402522 0 -0.0642153)
(0.0404696 0 -0.0548688)
(0.0406648 0 -0.0462891)
(0.0408391 0 -0.0383774)
(0.0409936 0 -0.0310347)
(0.0411282 0 -0.0241488)
(0.0412437 0 -0.0175661)
(0.0413399 0 -0.0110565)
(0.0413964 0 -0.0043627)
(-0.141011 0 0.0546253)
(-0.1376 0 0.368813)
(-0.0598392 0 0.413615)
(-0.0329427 0 -0.592348)
(-0.0866828 0 -0.832672)
(0.0440696 0 0.091681)
(0.219318 0 0.0532988)
(0.117305 0 -0.585635)
(0.00819956 0 -0.771473)
(0.0271366 0 -0.29677)
(0.0790307 0 0.117253)
(0.0890729 0 0.325602)
(0.0995479 0 0.494665)
(0.088838 0 0.701619)
(0.11586 0 0.914594)
(0.0949473 0 -0.0931526)
(-0.0265177 0 -0.27394)
(0.0388248 0 0.861785)
(0.0600102 0 0.795135)
(0.0390406 0 0.582879)
(0.0462674 0 0.431143)
(0.0449293 0 0.298995)
(0.048601 0 0.159463)
(0.0525571 0 0.00633046)
(0.0550649 0 -0.145712)
(0.0547614 0 -0.267514)
(0.0515125 0 -0.336359)
(0.0476723 0 -0.352739)
(0.0447625 0 -0.334581)
(0.0431557 0 -0.301727)
(0.0425089 0 -0.266823)
(0.0423932 0 -0.235053)
(0.0425307 0 -0.20742)
(0.0427792 0 -0.183445)
(0.0430728 0 -0.162423)
(0.0433805 0 -0.143779)
(0.0436868 0 -0.127098)
(0.0439833 0 -0.11208)
(0.0442654 0 -0.0984973)
(0.0445307 0 -0.0861703)
(0.0447778 0 -0.0749508)
(0.0450063 0 -0.0647122)
(0.0452161 0 -0.0553421)
(0.0454077 0 -0.0467372)
(0.0455818 0 -0.0387991)
(0.0457388 0 -0.0314276)
(0.0458777 0 -0.0245076)
(0.0459986 0 -0.0178785)
(0.0461017 0 -0.0112961)
(0.0461622 0 -0.00448376)
(-0.153543 0 0.0452053)
(-0.141862 0 0.340632)
(-0.0540123 0 0.368991)
(0.00872396 0 -0.584969)
(-0.0348984 0 -0.853223)
(0.0490869 0 -0.0126113)
(0.220688 0 0.0363447)
(0.13507 0 -0.524351)
(0.0393511 0 -0.73745)
(0.0392394 0 -0.318424)
(0.0869301 0 0.0983202)
(0.0950348 0 0.320377)
(0.105124 0 0.492818)
(0.0957547 0 0.698526)
(0.121027 0 0.90872)
(0.103725 0 -0.0414111)
(-0.0120058 0 -0.259965)
(0.051868 0 0.831088)
(0.075033 0 0.799159)
(0.0498037 0 0.585751)
(0.0560563 0 0.431163)
(0.0534001 0 0.297438)
(0.0565493 0 0.156752)
(0.0595858 0 0.00363432)
(0.0614384 0 -0.146441)
(0.0606321 0 -0.265411)
(0.0572186 0 -0.332488)
(0.0533595 0 -0.348912)
(0.0504163 0 -0.331887)
(0.0487292 0 -0.300278)
(0.0479774 0 -0.266261)
(0.0477576 0 -0.235002)
(0.0478028 0 -0.207636)
(0.0479727 0 -0.183801)
(0.0482005 0 -0.162853)
(0.0484537 0 -0.14425)
(0.0487155 0 -0.127591)
(0.0489763 0 -0.112582)
(0.0492303 0 -0.0990002)
(0.0494743 0 -0.0866683)
(0.049706 0 -0.0754398)
(0.0499244 0 -0.0651891)
(0.0501289 0 -0.0558047)
(0.0503196 0 -0.0471837)
(0.0504965 0 -0.0392275)
(0.0506597 0 -0.0318345)
(0.0508073 0 -0.0248859)
(0.0509383 0 -0.0182136)
(0.0510545 0 -0.0115603)
(0.0511271 0 -0.00462626)
(-0.173362 0 0.0360413)
(-0.156156 0 0.306117)
(-0.0543993 0 0.306518)
(0.0547172 0 -0.596482)
(0.0207493 0 -0.858944)
(0.053354 0 -0.0957545)
(0.208417 0 0.0157508)
(0.141826 0 -0.4754)
(0.0640332 0 -0.702169)
(0.0502862 0 -0.332997)
(0.0929951 0 0.0813837)
(0.100108 0 0.315528)
(0.109954 0 0.490869)
(0.102095 0 0.69521)
(0.125198 0 0.902502)
(0.113443 0 0.00610872)
(0.00395029 0 -0.246052)
(0.0634928 0 0.799714)
(0.0894953 0 0.804172)
(0.0601562 0 0.590321)
(0.0654816 0 0.432133)
(0.0615871 0 0.296585)
(0.0642964 0 0.154697)
(0.0665087 0 0.00159756)
(0.0678159 0 -0.146626)
(0.0665844 0 -0.263007)
(0.0630367 0 -0.328519)
(0.0591499 0 -0.345045)
(0.0561607 0 -0.329117)
(0.0543868 0 -0.298709)
(0.05353 0 -0.265562)
(0.0532099 0 -0.234818)
(0.0531681 0 -0.207734)
(0.0532651 0 -0.184051)
(0.0534325 0 -0.163192)
(0.0536361 0 -0.144642)
(0.0538576 0 -0.128016)
(0.0540861 0 -0.113028)
(0.0543149 0 -0.0994572)
(0.0545397 0 -0.0871308)
(0.054758 0 -0.0759035)
(0.0549682 0 -0.065651)
(0.0551694 0 -0.0562626)
(0.0553615 0 -0.0476358)
(0.0555445 0 -0.0396719)
(0.0557185 0 -0.032268)
(0.0558817 0 -0.0253016)
(0.0560338 0 -0.0185971)
(0.0561808 0 -0.0118797)
(0.0562861 0 -0.00480829)
(-0.202325 0 0.0290174)
(-0.181588 0 0.265035)
(-0.0605915 0 0.220694)
(0.0980479 0 -0.627707)
(0.0674859 0 -0.849773)
(0.0555569 0 -0.153028)
(0.184675 0 -0.00584859)
(0.139074 0 -0.439788)
(0.080813 0 -0.669244)
(0.0593424 0 -0.342208)
(0.0971001 0 0.0662579)
(0.103879 0 0.310771)
(0.113658 0 0.488711)
(0.10711 0 0.691864)
(0.127736 0 0.8956)
(0.122835 0 0.048067)
(0.0205594 0 -0.231113)
(0.0734066 0 0.768527)
(0.102638 0 0.809438)
(0.0700556 0 0.596536)
(0.0743722 0 0.433958)
(0.069393 0 0.296364)
(0.0717391 0 0.153206)
(0.0732428 0 0.000118944)
(0.0741159 0 -0.14636)
(0.0725408 0 -0.26035)
(0.0688921 0 -0.324466)
(0.0649743 0 -0.341129)
(0.0619327 0 -0.32626)
(0.0600697 0 -0.297017)
(0.0591108 0 -0.26473)
(0.0586967 0 -0.23451)
(0.0585755 0 -0.207721)
(0.0586073 0 -0.184206)
(0.0587217 0 -0.163448)
(0.0588822 0 -0.144964)
(0.0590688 0 -0.128381)
(0.0592692 0 -0.113423)
(0.0594759 0 -0.0998738)
(0.0596838 0 -0.0875622)
(0.0598899 0 -0.0763454)
(0.0600923 0 -0.0661007)
(0.0602902 0 -0.0567186)
(0.0604836 0 -0.0480977)
(0.0606733 0 -0.0401399)
(0.0608609 0 -0.0327426)
(0.0610473 0 -0.0257845)
(0.0612404 0 -0.0190925)
(0.0614655 0 -0.0123743)
(0.0616928 0 -0.00516097)
(-0.239588 0 0.025204)
(-0.215347 0 0.216177)
(-0.068897 0 0.10949)
(0.130843 0 -0.675541)
(0.0940148 0 -0.827041)
(0.0514128 0 -0.184712)
(0.152538 0 -0.0275639)
(0.129816 0 -0.417494)
(0.0899405 0 -0.641193)
(0.0659399 0 -0.347981)
(0.0993844 0 0.0526256)
(0.106209 0 0.305915)
(0.116039 0 0.486375)
(0.110283 0 0.688734)
(0.128352 0 0.887781)
(0.13089 0 0.0836227)
(0.0366414 0 -0.214853)
(0.0813985 0 0.738416)
(0.113775 0 0.814353)
(0.079322 0 0.604101)
(0.0825561 0 0.436563)
(0.0767058 0 0.296689)
(0.0787544 0 0.152179)
(0.0796885 0 -0.000906201)
(0.0802403 0 -0.145743)
(0.0784111 0 -0.257507)
(0.0747019 0 -0.320343)
(0.0707601 0 -0.337167)
(0.0676681 0 -0.323318)
(0.0657206 0 -0.295206)
(0.0646669 0 -0.263774)
(0.0641679 0 -0.234089)
(0.0639771 0 -0.20761)
(0.0639536 0 -0.184278)
(0.0640238 0 -0.163634)
(0.064149 0 -0.145225)
(0.0643069 0 -0.128696)
(0.0644842 0 -0.113776)
(0.0646721 0 -0.100255)
(0.0648649 0 -0.0879656)
(0.0650589 0 -0.0767664)
(0.0652517 0 -0.0665366)
(0.0654421 0 -0.0571683)
(0.0656294 0 -0.0485616)
(0.0658133 0 -0.0406198)
(0.0659941 0 -0.0332425)
(0.0661693 0 -0.0263139)
(0.0663465 0 -0.0196683)
(0.0666059 0 -0.0129944)
(0.0669589 0 -0.0057635)
(-0.280723 0 0.0239841)
(-0.25054 0 0.157374)
(-0.074745 0 -0.0242203)
(0.144087 0 -0.73106)
(0.0935762 0 -0.792828)
(0.0374603 0 -0.197421)
(0.116371 0 -0.0508656)
(0.117769 0 -0.407708)
(0.0929683 0 -0.619267)
(0.0701371 0 -0.351979)