/*--------------------------------*- C++ -*----------------------------------*\
  =========                 |
  \\      /  F ield         | OpenFOAM: The Open Source CFD Toolbox
   \\    /   O peration     | Website:  https://openfoam.org
    \\  /    A nd           | Version:  9
     \\/     M anipulation  |
\*---------------------------------------------------------------------------*/
FoamFile
{
    format      ascii;
    class       surfaceScalarField;
    location    "0.07";
    object      alphaPhi0.water;
}
// * * * * * * * * * * * * * * * * * * * * * * * * * * * * * * * * * * * * * //

dimensions      [0 3 -1 0 0 0 0];

internalField   nonuniform List<scalar> 
9850
(
3.73301e-273
9.46455e-272
1.24499e-271
2.25337e-270
2.83182e-273
1.18735e-271
2.57879e-272
1.08298e-270
1.00181e-270
3.8003e-269
3.73658e-269
1.40289e-267
2.04704e-267
5.21464e-266
6.40205e-266
1.19741e-264
1.087e-267
4.59193e-266
2.06686e-269
8.7353e-268
4.62427e-271
1.79902e-269
1.05612e-272
3.95529e-271
2.36222e-274
8.65111e-273
5.46417e-276
1.93777e-274
8.86615e-276
2.86873e-274
4.90659e-274
7.99414e-273
1.19505e-272
2.92996e-271
2.78876e-274
1.28994e-272
6.14011e-276
2.76066e-274
1.3735e-277
5.82753e-276
4.82945e-279
1.26802e-277
2.60471e-280
4.78094e-279
7.31701e-282
1.76654e-280
1.99202e-283
4.97205e-282
6.02537e-285
1.40501e-283
2.0051e-286
4.28016e-285
7.28644e-288
1.39827e-286
3.08913e-289
4.93664e-288
2.13754e-290
2.0092e-289
4.03714e-291
1.5436e-290
4.801e-294
2.0791e-291
6.23365e-295
2.03373e-293
3.38467e-296
7.93482e-295
1.71995e-297
3.20419e-296
8.92381e-299
1.39252e-297
4.8827e-300
6.5957e-299
2.85282e-301
3.42129e-300
1.77894e-302
1.93525e-301
1.17387e-303
1.17925e-302
8.10656e-305
7.62276e-304
5.80315e-306
5.15533e-305
4.27902e-307
3.61215e-306
3.23912e-308
2.60689e-307
2.51421e-309
1.93261e-308
2.00143e-310
1.47061e-309
1.6354e-311
1.14906e-310
1.37335e-312
9.22764e-312
1.18676e-313
7.62532e-313
1.05646e-314
6.49151e-314
5.65587e-315
1.1979e-272
2.48361e-271
1.75139e-271
7.07445e-270
9.54953e-273
4.87086e-271
1.47905e-271
6.57571e-270
5.04611e-270
1.8487e-268
1.66225e-268
5.41721e-267
7.45569e-267
1.57871e-265
9.59982e-266
4.23007e-264
2.53855e-267
1.37725e-265
6.81363e-269
3.26077e-267
1.94268e-270
7.89831e-269
5.32732e-272
1.98347e-270
1.40773e-273
4.91475e-272
3.88921e-275
1.22884e-273
3.45348e-275
8.91596e-274
1.46918e-273
1.99451e-272
-8.18967e-275
8.11875e-271
4.07933e-274
2.96906e-272
1.47375e-275
8.53933e-274
4.3896e-277
2.14407e-275
2.0397e-278
5.35733e-277
1.17299e-279
2.35059e-278
3.91681e-281
9.45488e-280
1.26205e-282
3.04887e-281
4.48648e-284
9.7668e-283
1.78237e-285
3.36158e-284
8.04752e-287
1.26466e-285
4.40482e-288
5.33555e-287
3.53372e-289
2.65724e-288
2.16543e-290
2.22875e-289
-3.59341e-294
1.32964e-290
-7.67683e-297
9.0874e-293
4.30615e-296
2.277e-294
3.38028e-297
9.47999e-296
2.24114e-298
4.43699e-297
1.47417e-299
2.30356e-298
1.00515e-300
1.32097e-299
7.16453e-302
8.26804e-301
5.31024e-303
5.54549e-302
4.05564e-304
3.9137e-303
3.16832e-305
2.86444e-304
2.52178e-306
2.1543e-305
2.04266e-307
1.65722e-306
1.68486e-308
1.30196e-307
1.41733e-309
1.04488e-308
1.21826e-310
8.57615e-310
1.07204e-311
7.21021e-311
9.67542e-313
6.21938e-312
8.96945e-314
5.51229e-313
4.98559e-314
2.30114e-272
4.35372e-271
1.72496e-271
1.37827e-269
2.46944e-272
1.47755e-270
5.02539e-271
2.28787e-269
1.5236e-269
5.48089e-268
4.51181e-268
1.33869e-266
1.63195e-266
3.19586e-265
8.71544e-266
9.04877e-264
4.08062e-267
2.77672e-265
1.4414e-268
7.54831e-267
4.82938e-270
2.04356e-268
1.51913e-271
5.67225e-270
4.59982e-273
1.56143e-271
1.43248e-274
4.33187e-273
7.90673e-275
1.87238e-273
2.93911e-273
3.80604e-272
-1.80281e-274
1.51058e-270
6.46683e-274
5.95485e-272
2.80481e-275
1.84545e-273
9.8876e-277
5.12031e-275
5.40786e-278
1.42291e-276
3.19258e-279
6.95664e-278
1.20301e-280
2.98539e-279
4.39145e-282
1.059e-280
1.73651e-283
3.71443e-282
7.5759e-285
1.38835e-283
3.71304e-286
5.66878e-285
2.17718e-287
2.59027e-286
1.8433e-288
1.37496e-287
8.79981e-290
1.15857e-288
-1.49032e-293
5.5729e-290
-6.72302e-296
3.37922e-292
8.69205e-296
7.26538e-294
7.55254e-297
2.63807e-295
5.24158e-298
1.18548e-296
3.59186e-299
6.11424e-298
2.56295e-300
3.56495e-299
1.92159e-301
2.30459e-300
1.50318e-302
1.61167e-301
1.21293e-303
1.19177e-302
1.00061e-304
9.15538e-304
8.39738e-306
7.22733e-305
7.15686e-307
5.83002e-306
6.19676e-308
4.79586e-307
5.45902e-309
4.02319e-308
4.90249e-310
3.44547e-309
4.49735e-311
3.01696e-310
4.2226e-312
2.70559e-311
4.06441e-313
2.48884e-312
2.33135e-313
3.94584e-272
7.2011e-271
2.15723e-271
2.20776e-269
5.74456e-272
3.7737e-270
1.31185e-270
5.99826e-269
3.59473e-269
1.28903e-267
9.80383e-268
2.77494e-266
3.07927e-266
5.87077e-265
9.6808e-266
1.56025e-263
6.19213e-267
4.90534e-265
2.55884e-268
1.41397e-266
9.47865e-270
4.12891e-268
3.29466e-271
1.23953e-269
1.10183e-272
3.72263e-271
3.69555e-274
1.12676e-272
1.47641e-274
3.42791e-273
4.99234e-273
6.46377e-272
3.45997e-273
2.4078e-270
1.1863e-273
1.07509e-271
5.30074e-275
3.49993e-273
2.02112e-276
1.0454e-274
1.20814e-277
3.15315e-276
7.03953e-279
1.64988e-277
2.84238e-280
7.35475e-279
1.10957e-281
2.76053e-280
4.59065e-283
1.01969e-281
2.06258e-284
3.96972e-283
1.03117e-285
1.67726e-284
6.21837e-287
7.87194e-286
5.20732e-288
4.29423e-287
2.27471e-289
3.29377e-288
-3.60433e-293
1.56364e-289
-8.39138e-296
1.19188e-291
4.04669e-295
2.55115e-293
2.87071e-296
9.25094e-295
1.76797e-297
3.88141e-296
1.10479e-298
1.85756e-297
7.31664e-300
1.01167e-298
5.19525e-301
6.20296e-300
3.93342e-302
4.20107e-301
3.13662e-303
3.06871e-302
2.60057e-304
2.36724e-303
2.21985e-305
1.89886e-304
1.93941e-306
1.56869e-305
1.7295e-307
1.32793e-306
1.57328e-308
1.14952e-307
1.46075e-309
1.01727e-308
1.38592e-310
9.20898e-310
1.34558e-311
8.53759e-311
1.33861e-312
8.11565e-312
7.84779e-313
6.61306e-272
1.21415e-270
3.57288e-271
3.20902e-269
1.22574e-271
8.32592e-270
2.88534e-270
1.31509e-268
7.29835e-269
2.6329e-267
1.87977e-267
5.24239e-266
5.47728e-266
1.05549e-264
1.74995e-265
2.40328e-263
9.65045e-267
8.16575e-265
4.23323e-268
2.38859e-266
1.66035e-269
7.35497e-268
6.16365e-271
2.3449e-269
2.20276e-272
7.53511e-271
7.69906e-274
2.43887e-272
2.56322e-274
6.073e-273
7.85238e-273
1.04775e-271
4.76758e-272
3.54793e-270
2.5449e-273
1.96628e-271
1.05543e-274
6.48597e-273
4.11355e-276
2.03428e-274
2.52806e-277
6.49187e-276
1.37883e-278
3.47771e-277
5.6089e-280
1.55744e-278
2.22966e-281
5.94476e-280
9.31605e-283
2.23563e-281
4.22211e-284
8.82564e-283
2.10505e-285
3.77467e-284
1.27513e-286
1.77786e-285
1.03667e-287
9.73437e-287
4.41736e-289
6.71026e-288
-4.25672e-293
3.32293e-289
2.6312e-293
3.50621e-291
2.22627e-294
9.36078e-293
1.29746e-295
3.46343e-294
7.24627e-297
1.42465e-295
4.16892e-298
6.52166e-297
2.53369e-299
3.32967e-298
1.64565e-300
1.89207e-299
1.14717e-301
1.18887e-300
8.55792e-303
8.16207e-302
6.77586e-304
6.02975e-303
5.63502e-305
4.72036e-304
4.87628e-306
3.86661e-305
4.36078e-307
3.28462e-306
4.01305e-308
2.87765e-307
3.79191e-309
2.59235e-308
3.67587e-310
2.39824e-309
3.65591e-311
2.27788e-310
3.73178e-312
2.22191e-311
2.20638e-312
1.07536e-271
2.03615e-270
5.90612e-271
4.42017e-269
2.43906e-271
1.63283e-269
5.64635e-270
2.55405e-268
1.34424e-268
4.88844e-267
3.31876e-267
9.29124e-266
9.21363e-266
1.83182e-264
3.33904e-265
3.46812e-263
1.57205e-266
1.30691e-264
6.91348e-268
3.87711e-266
2.78606e-269
1.24043e-267
1.07243e-270
4.12808e-269
3.97635e-272
1.39078e-270
1.414e-273
4.71507e-272
4.45531e-274
1.10427e-272
1.24842e-272
1.72877e-271
1.19553e-271
4.98606e-270
5.4776e-273
3.43196e-271
2.14919e-274
1.19442e-272
8.37725e-276
3.8802e-274
5.09002e-277
1.28012e-275
2.48473e-278
6.77861e-277
9.71489e-280
2.96331e-278
3.84109e-281
1.11666e-279
1.61199e-282
4.19023e-281
7.25636e-284
1.6558e-282
3.54316e-285
7.0602e-284
2.13855e-286
3.28365e-285
1.68644e-287
1.77605e-286
7.50939e-289
1.15108e-287
3.14236e-291
5.92011e-289
1.79446e-292
9.40456e-291
9.88159e-294
3.01706e-292
5.24582e-295
1.16064e-293
2.83128e-296
4.90495e-295
1.59049e-297
2.27042e-296
9.38127e-299
1.15e-297
5.84179e-300
6.35619e-299
3.85998e-301
3.82142e-300
2.71472e-302
2.48871e-301
2.03119e-303
1.74468e-302
1.61027e-304
1.3057e-303
1.34421e-305
1.03377e-304
1.17385e-306
8.58724e-306
1.06643e-307
7.43433e-307
1.00379e-308
6.67611e-308
9.76295e-310
6.19957e-309
9.7965e-311
5.9427e-310
1.01322e-311
5.87446e-311
5.93108e-312
1.67206e-271
3.30376e-270
9.10354e-271
5.90099e-269
4.5882e-271
2.9404e-269
1.02368e-269
4.571e-268
2.3265e-268
8.49897e-267
5.53758e-267
1.56633e-265
1.46185e-265
3.02069e-264
5.85063e-265
4.81049e-263
2.6459e-266
2.04e-264
1.15046e-267
6.27005e-266
4.68112e-269
2.07148e-267
1.8265e-270
7.0935e-269
6.8534e-272
2.45801e-270
2.42656e-273
8.56128e-272
8.22546e-274
2.14641e-272
2.14868e-272
3.05634e-271
2.22666e-271
6.78247e-270
1.08879e-272
5.64193e-271
4.22586e-274
2.1332e-272
1.64531e-275
7.1577e-274
9.67711e-277
2.40476e-275
4.18422e-278
1.23557e-276
1.53288e-279
5.19111e-278
5.91049e-281
1.89594e-279
2.43418e-282
6.99155e-281
1.06656e-283
2.72335e-282
5.13576e-285
1.14051e-283
3.11995e-286
5.21176e-285
2.40028e-287
2.77262e-286
1.13833e-288
1.72415e-287
1.99577e-290
9.18241e-289
6.91765e-292
2.32184e-290
3.32743e-293
7.9772e-292
1.73285e-294
3.24782e-293
9.47234e-296
1.45143e-294
5.43011e-297
7.05086e-296
3.26497e-298
3.71014e-297
2.06077e-299
2.10558e-298
1.36836e-300
1.28349e-299
9.5791e-302
8.37112e-301
7.07487e-303
5.81735e-302
5.50589e-304
4.28657e-303
4.50211e-305
3.33158e-304
3.8542e-306
2.71726e-305
3.44243e-307
2.31541e-306
3.19843e-308
2.0541e-307
3.0846e-309
1.89241e-308
3.08313e-310
1.80754e-309
3.1903e-311
1.78799e-310
1.81437e-311
2.49091e-271
5.16429e-270
1.32866e-270
7.73621e-269
8.26006e-271
5.00887e-269
1.7722e-269
7.77208e-268
3.87871e-268
1.41665e-266
8.9047e-267
2.54354e-265
2.20958e-265
4.7467e-264
9.55125e-265
6.50876e-263
4.51065e-266
3.13809e-264
1.97022e-267
1.02575e-265
8.06406e-269
3.51012e-267
3.14655e-270
1.22704e-268
1.17238e-271
4.30855e-270
4.07238e-273
1.51686e-271
1.64937e-273
4.50229e-272
4.0705e-272
5.87304e-271
3.56786e-271
9.00824e-270
1.93556e-272
8.72037e-271
7.68854e-274
3.60299e-272
3.02282e-275
1.25065e-273
1.71496e-276
4.25229e-275
6.62356e-278
2.11042e-276
2.24337e-279
8.48416e-278
8.33241e-281
2.97321e-279
3.3379e-282
1.06648e-280
1.42342e-283
4.05479e-282
6.7818e-285
1.65581e-283
4.12319e-286
7.40477e-285
3.09195e-287
3.8528e-286
1.55037e-288
2.31925e-287
4.32801e-290
1.27416e-288
1.70234e-291
4.34339e-290
8.49809e-293
1.69336e-291
4.62607e-294
7.52337e-293
2.65789e-295
3.63727e-294
1.60422e-296
1.89968e-295
1.01561e-297
1.06886e-296
6.74293e-299
6.45105e-298
4.69582e-300
4.15618e-299
3.42975e-301
2.84367e-300
2.62459e-302
2.0555e-301
2.10029e-303
1.56182e-302
1.75338e-304
1.24187e-303
1.52348e-305
1.02957e-304
1.37505e-306
8.87541e-306
1.28749e-307
7.94104e-307
1.24958e-308
7.3666e-308
1.25673e-309
7.08224e-309
1.30948e-310
7.05588e-310
7.22481e-311
3.58932e-271
7.83175e-270
1.87217e-270
1.00389e-268
1.44436e-270
8.2632e-269
2.99357e-269
1.28491e-267
6.33661e-268
2.30665e-266
1.39957e-266
4.03043e-265
3.22582e-265
7.18896e-264
1.48453e-264
8.66496e-263
7.67871e-266
4.77778e-264
3.45448e-267
1.69863e-265
1.43179e-268
6.07619e-267
5.56784e-270
2.16822e-268
2.03272e-271
7.65856e-270
6.93747e-273
2.69386e-271
3.49001e-273
9.86972e-272
8.16388e-272
1.18941e-270
5.16079e-271
1.17324e-269
3.07623e-272
1.27216e-270
1.27156e-273
5.69304e-272
5.11519e-275
2.04456e-273
2.81024e-276
7.02714e-275
9.85609e-278
3.37715e-276
3.07887e-279
1.30249e-277
1.09666e-280
4.36807e-279
4.24207e-282
1.5165e-280
1.74404e-283
5.59134e-282
8.17102e-285
2.21055e-283
5.01103e-286
9.61337e-285
3.66756e-287
4.88906e-286
1.91889e-288
2.86377e-287
6.95329e-290
1.61498e-288
3.18794e-291
6.74494e-290
1.74524e-292
3.01204e-291
1.02837e-293
1.48503e-292
6.37166e-295
7.88943e-294
4.14295e-296
4.50675e-295
2.82765e-297
2.76515e-296
2.02432e-298
1.81497e-297
1.51764e-299
1.2667e-298
1.18858e-300
9.33522e-300
9.69589e-302
7.21673e-301
8.21452e-303
5.81934e-302
7.2105e-304
4.87389e-303
6.54642e-305
4.22777e-304
6.14186e-306
3.7921e-305
5.95321e-307
3.5148e-306
5.96325e-308
3.36674e-307
6.17694e-309
3.33473e-308
6.62098e-310
3.4183e-309
3.60004e-310
5.05165e-271
1.16151e-269
2.58833e-270
1.2959e-268
2.48762e-270
1.34119e-268
5.00029e-269
2.09672e-267
1.02443e-267
3.71323e-266
2.16751e-266
6.29405e-265
4.60034e-265
1.06076e-263
2.23089e-264
1.14063e-262
1.29458e-265
7.19864e-264
6.12379e-267
2.82591e-265
2.59882e-268
1.06784e-266
1.01257e-269
3.91297e-268
3.6119e-271
1.39235e-269
1.21739e-272
4.87253e-271
7.35556e-273
2.13971e-271
1.60199e-271
2.36944e-270
6.9155e-271
1.50363e-269
4.43028e-272
1.76327e-270
1.91128e-273
8.42138e-272
7.94244e-275
3.11946e-273
4.25771e-276
1.08401e-274
1.38179e-277
5.07455e-276
4.00672e-279
1.88872e-277
1.3685e-280
6.08028e-279
5.09463e-282
2.04145e-280
2.01541e-283
7.27669e-282
9.29133e-285
2.77535e-283
5.69618e-286
1.17004e-284
4.07349e-287
5.79346e-286
2.2041e-288
3.31632e-287
9.54916e-290
1.91367e-288
5.04373e-291
9.29253e-290
3.07571e-292
4.72918e-291
1.9967e-293
2.60769e-292
1.35753e-294
1.53991e-293
9.68081e-296
9.7523e-295
7.24951e-297
6.62195e-296
5.69004e-298
4.79646e-297
4.66194e-299
3.67595e-298
3.96834e-300
2.95475e-299
3.49466e-301
2.47219e-300
3.174e-302
2.14111e-301
2.96769e-303
1.91283e-302
2.85446e-304
1.75968e-303
2.82474e-305
1.66607e-304
2.87805e-306
1.62414e-305
3.02251e-307
1.63167e-306
3.27609e-308
1.69155e-307
3.6693e-309
1.81208e-308
1.99233e-309
6.9933e-271
1.69405e-269
3.55126e-270
1.6698e-268
4.25485e-270
2.15913e-268
8.30391e-269
3.39901e-267
1.64403e-267
5.93593e-266
3.31679e-266
9.72781e-265
6.45569e-265
1.53558e-263
3.27314e-264
1.48894e-262
2.14906e-265
1.07121e-263
1.08318e-266
4.67582e-265
4.75756e-268
1.88313e-266
1.88047e-269
7.14578e-268
6.64908e-271
2.5837e-269
2.21339e-272
9.0482e-271
1.48046e-272
4.40342e-271
2.94268e-271
4.47181e-270
8.68523e-271
1.8999e-269
5.87016e-272
2.33759e-270
2.63654e-273
1.17338e-271
1.13678e-274
4.46004e-273
5.97095e-276
1.56611e-274
1.8289e-277
7.17701e-276
4.99845e-279
2.59843e-277
1.64569e-280
8.09347e-279
5.90961e-282
2.63568e-280
2.25984e-283
9.08909e-282
1.03207e-284
3.34625e-283
6.31515e-286
1.36918e-284
4.38416e-287
6.60484e-286
2.43498e-288
3.70083e-287
1.20919e-289
2.18123e-288
7.24827e-291
1.19499e-289
4.93388e-292
6.88393e-291
3.5597e-293
4.26378e-292
2.68874e-294
2.82378e-293
2.1313e-295
2.00403e-294
1.77268e-296
1.52123e-295
1.53979e-297
1.22547e-296
1.3875e-298
1.03668e-297
1.28907e-299
9.11873e-299
1.22949e-300
8.27884e-300
1.20109e-301
7.72279e-301
1.20097e-302
7.38582e-302
1.22965e-303
7.23809e-303
1.29065e-304
7.27271e-304
1.39084e-305
7.50136e-305
1.54141e-306
7.95484e-306
1.75983e-307
8.688e-307
2.07284e-308
9.78866e-308
1.13025e-308
9.56558e-271
2.43704e-269
4.86119e-270
2.153e-268
7.234e-270
3.45443e-268
1.36971e-268
5.47106e-267
2.61939e-267
9.39986e-266
5.01356e-266
1.48671e-264
8.95418e-265
2.18836e-263
4.71031e-264
1.93069e-262
3.49432e-265
1.5712e-263
1.89288e-266
7.6291e-265
8.66434e-268
3.29437e-266
3.53165e-269
1.30501e-267
1.25836e-270
4.85393e-269
4.20061e-272
1.7189e-270
2.80048e-272
8.43567e-271
4.99052e-271
7.89326e-270
1.03197e-270
2.36977e-269
7.26311e-272
2.98494e-270
3.38504e-273
1.55258e-271
1.51416e-274
6.01959e-273
7.8195e-276
2.13183e-274
2.30068e-277
9.6011e-276
6.05082e-279
3.40894e-277
1.93818e-280
1.03827e-278
6.75797e-282
3.29867e-280
2.52323e-283
1.10491e-281
1.15101e-284
3.9438e-283
6.99462e-286
1.57328e-284
4.69856e-287
7.41353e-286
2.67683e-288
4.0772e-287
1.4862e-289
2.4598e-288
9.97801e-291
1.49502e-289
7.57425e-292
9.70147e-291
6.10767e-293
6.77534e-292
5.16896e-294
5.06715e-293
4.59071e-295
4.05581e-294
4.26147e-296
3.45392e-295
4.10149e-297
3.09493e-296
4.05906e-298
2.88347e-297
4.1058e-299
2.76684e-298
4.2313e-300
2.71796e-299
4.4388e-301
2.72529e-300
4.7429e-302
2.78715e-301
5.16952e-303
2.9091e-302
5.75847e-304
3.1032e-303
6.56909e-305
3.38911e-304
7.69009e-306
3.79689e-305
9.25576e-307
4.37203e-306
1.14714e-307
5.18349e-307
6.28695e-308
1.2974e-270
3.46299e-269
6.64525e-270
2.78297e-268
1.2178e-269
5.48518e-268
2.23618e-268
8.71239e-267
4.12408e-267
1.46875e-265
7.4798e-266
2.24002e-264
1.23095e-264
3.07448e-263
6.65641e-264
2.48967e-262
5.54319e-265
2.26904e-263
3.25344e-266
1.22063e-264
1.55903e-267
5.66949e-266
6.60292e-269
2.36275e-267
2.43183e-270
9.12984e-269
8.30362e-272
3.31581e-270
4.98726e-272
1.49821e-270
7.85899e-271
1.30302e-269
1.19287e-270
2.91932e-269
8.55529e-272
3.70248e-270
4.10913e-273
1.9687e-271
1.8994e-274
7.73422e-273
9.6615e-276
2.75439e-274
2.77563e-277
1.22253e-275
7.18473e-279
4.2895e-277
2.26346e-280
1.29181e-278
7.7323e-282
4.03371e-280
2.85554e-283
1.32059e-281
1.31121e-284
4.60247e-283
7.89622e-286
1.8023e-284
5.16081e-287
8.33678e-286
3.00957e-288
4.52929e-287
1.83436e-289
2.81057e-288
1.3664e-290
1.88022e-289
1.15669e-291
1.372e-290
1.04673e-292
1.08374e-291
9.96507e-294
9.17943e-293
9.92295e-295
8.28371e-294
1.02461e-295
7.88054e-295
1.08601e-296
7.80086e-296
1.17216e-297
7.94358e-297
1.28244e-298
8.25667e-298
1.42021e-299
8.72433e-299
1.59288e-300
9.35894e-300
1.8125e-301
1.01974e-300
2.09709e-302
1.13018e-301
2.47312e-303
1.2766e-302
2.97986e-304
1.47277e-303
3.67656e-305
1.73912e-304
4.65433e-306
2.10638e-305
6.05523e-307
2.62155e-306
3.33187e-307
1.7505e-270
4.86549e-269
9.0632e-270
3.61115e-268
2.02064e-269
8.62514e-268
3.60642e-268
1.36843e-266
6.398e-267
2.25707e-265
1.10104e-265
3.31888e-264
1.67991e-264
4.26164e-263
9.23651e-264
3.19515e-262
8.55193e-265
3.22699e-263
5.36887e-266
1.91191e-264
2.7564e-267
9.52545e-266
1.22671e-268
4.2144e-267
4.71695e-270
1.7081e-268
1.68884e-271
6.43611e-270
8.44068e-272
2.48109e-270
1.16479e-270
2.02344e-269
1.35122e-270
3.55475e-269
9.72974e-272
4.48712e-270
4.78135e-273
2.41097e-271
2.27061e-274
9.53402e-273
1.13805e-275
3.40281e-274
3.23955e-277
1.49134e-275
8.42773e-279
5.20649e-277
2.64051e-280
1.56641e-278
8.9264e-282
4.84547e-280
3.30135e-283
1.56222e-281
1.53322e-284
5.3615e-283
9.133e-286
2.07679e-284
5.8251e-287
9.48642e-286
3.48608e-288
5.12612e-287
2.31206e-289
3.30125e-288
1.90698e-290
2.4312e-289
1.80368e-291
1.99691e-290
1.834e-292
1.78461e-291
1.95905e-293
1.70587e-292
2.17181e-294
1.72185e-293
2.4698e-295
1.81042e-294
2.85264e-296
1.95777e-295
3.32559e-297
2.15695e-296
3.90336e-298
2.40782e-297
4.61366e-299
2.71736e-298
5.50125e-300
3.10039e-299
6.634e-301
3.58105e-300
8.11305e-302
4.19574e-301
1.00896e-302
4.99817e-302
1.27929e-303
6.06805e-303
1.65765e-304
7.5253e-304
2.19968e-305
9.55395e-305
2.99417e-306
1.2441e-305
1.65193e-306
2.35499e-270
6.76521e-269
1.23228e-269
4.70774e-268
3.29068e-269
1.33997e-267
5.6943e-268
2.11517e-266
9.76502e-267
3.40539e-265
1.59942e-265
4.83062e-264
2.27788e-264
5.83255e-263
1.26078e-263
4.08287e-262
1.28379e-264
4.52709e-263
8.70195e-266
2.93631e-264
4.76981e-267
1.57087e-265
2.25299e-268
7.39399e-267
9.23119e-270
3.16442e-268
3.55542e-271
1.2514e-269
1.37685e-271
3.88332e-270
1.64916e-270
2.97982e-269
1.50977e-270
4.28326e-269
1.07943e-271
5.33694e-270
5.38848e-273
2.86919e-271
2.61266e-274
1.13487e-272
1.2905e-275
4.04618e-274
3.68626e-277
1.7537e-275
9.80397e-279
6.12803e-277
3.08734e-280
1.85806e-278
1.0431e-281
5.7389e-280
3.90027e-283
1.83678e-281
1.83519e-284
6.26148e-283
1.08226e-285
2.41693e-284
6.78601e-287
1.09729e-285
4.1735e-288
5.94863e-287
3.00135e-289
4.01983e-288
2.74701e-290
3.27465e-289
2.90855e-291
3.02889e-290
3.31083e-292
3.04758e-291
3.93119e-293
3.25357e-292
4.79123e-294
3.62413e-293
5.92356e-295
4.15447e-294
7.37003e-296
4.84905e-295
9.19174e-297
5.72276e-296
1.14837e-297
6.8054e-297
1.43931e-298
8.14793e-298
1.81437e-299
9.83072e-299
2.30728e-300
1.19756e-299
2.96906e-301
1.47647e-300
3.8776e-302
1.84706e-301
5.15382e-303
2.35058e-302
6.98888e-304
3.05056e-303
9.69078e-305
4.0467e-304
1.37641e-305
5.49832e-305
7.61107e-306
3.16579e-270
9.31972e-269
1.67231e-269
6.16761e-268
5.25521e-269
2.05314e-267
8.84225e-268
3.21348e-266
1.46601e-266
5.04345e-265
2.29362e-265
6.90957e-264
3.07048e-264
7.8889e-263
1.69926e-263
5.19612e-262
1.91482e-264
6.27774e-263
1.38845e-265
4.44641e-264
8.11875e-267
2.54886e-265
4.08357e-268
1.27689e-266
1.79476e-269
5.78872e-268
7.43814e-271
2.4181e-269
2.18518e-271
5.84488e-270
2.25631e-270
4.19632e-269
1.67643e-270
5.11306e-269
1.17724e-271
6.25123e-270
5.92502e-273
3.33348e-271
2.91649e-274
1.31111e-272
1.42051e-275
4.65685e-274
4.11634e-277
1.99904e-275
1.13337e-278
7.02775e-277
3.62082e-280
2.16296e-278
1.23378e-281
6.72022e-280
4.69405e-283
2.15214e-281
2.23834e-284
7.34661e-283
1.31e-285
2.8449e-284
8.13518e-287
1.2922e-285
5.15937e-288
7.09452e-287
4.02832e-289
5.09165e-288
4.10655e-290
4.61227e-289
4.85623e-291
4.78857e-290
6.12889e-292
5.36691e-291
7.97817e-293
6.30566e-292
1.05389e-293
7.63595e-293
1.39917e-294
9.4209e-294
1.85687e-295
1.1747e-294
2.45849e-296
1.47319e-295
3.24932e-297
1.85438e-296
4.29651e-298
2.34303e-297
5.70107e-299
2.97611e-298
7.61668e-300
3.80902e-299
1.02801e-300
4.92545e-300
1.40619e-301
6.45327e-301
1.95529e-302
8.591e-302
2.77145e-303
1.16526e-302
4.0144e-304
1.61458e-303
5.95484e-305
2.29084e-304
3.31295e-305
4.25355e-270
1.27355e-268
2.26845e-269
8.11643e-268
8.22516e-269
3.09848e-267
1.34411e-267
4.79833e-266
2.16454e-266
7.33665e-265
3.24763e-265
9.72436e-264
4.11276e-264
1.0557e-262
2.26373e-263
6.58699e-262
2.78756e-264
8.62026e-263
2.17149e-265
6.62846e-264
1.35595e-266
4.0683e-265
7.27231e-268
2.1686e-266
3.43272e-269
1.04215e-267
1.52961e-270
4.60784e-269
3.41373e-271
8.62848e-270
3.00197e-270
5.69486e-269
1.85711e-270
6.05336e-269
1.26738e-271
7.22738e-270
6.38801e-273
3.79372e-271
3.17792e-274
1.47628e-272
1.5283e-275
5.21381e-274
4.53516e-277
2.22039e-275
1.30388e-278
7.88873e-277
4.25876e-280
2.47898e-278
1.47493e-281
7.8005e-280
5.73388e-283
2.51822e-281
2.77154e-284
8.67087e-283
1.61569e-285
3.38879e-284
1.00115e-286
1.5501e-285
6.57626e-288
8.70337e-287
5.59541e-289
6.70667e-288
6.35738e-290
6.76927e-289
8.33235e-291
7.82292e-290
1.15052e-291
9.62938e-291
1.61837e-292
1.22632e-291
2.28828e-293
1.59341e-292
3.2309e-294
2.09444e-293
4.5407e-295
2.76894e-294
6.34797e-296
3.66941e-295
8.84019e-297
4.86878e-296
1.22966e-297
6.47277e-297
1.71437e-298
8.63919e-298
2.40465e-299
1.16084e-298
3.40624e-300
1.57536e-299
4.89098e-301
2.16651e-300
7.14465e-302
3.02975e-301
1.06546e-302
4.32325e-302
1.62744e-303
6.31602e-303
2.55368e-304
9.4782e-304
1.4554e-304
5.71029e-270
1.7282e-268
3.07723e-269
1.07174e-267
1.26156e-268
4.59952e-267
2.00883e-267
7.03558e-266
3.14481e-266
1.04924e-264
4.54141e-265
1.34855e-263
5.47069e-264
1.39936e-262
2.98059e-263
8.31588e-262
3.98228e-264
1.1727e-262
3.32999e-265
9.73755e-264
2.21864e-266
6.38818e-265
1.26719e-267
3.61829e-266
6.40115e-269
1.84061e-267
3.04747e-270
8.59898e-269
5.29875e-271
1.27168e-269
3.88914e-270
7.49827e-269
2.05154e-270
7.11461e-269
1.34907e-271
8.25948e-270
6.77914e-273
4.24077e-271
3.39834e-274
1.62661e-272
1.61717e-275
5.70734e-274
4.95404e-277
2.41595e-275
1.49571e-278
8.70909e-277
5.02507e-280
2.80793e-278
1.77979e-281
9.00332e-280
7.08953e-283
2.94965e-281
3.47642e-284
1.03096e-282
2.02775e-285
4.08845e-284
1.26302e-286
1.89564e-285
8.63958e-288
1.09913e-286
8.03702e-289
9.17258e-288
1.01376e-289
1.02869e-288
1.45623e-290
1.30788e-289
2.17095e-291
1.74365e-290
3.26166e-292
2.37755e-291
4.89443e-293
3.2848e-292
7.30886e-294
4.57285e-293
1.08448e-294
6.38872e-294
1.59951e-295
8.93707e-295
2.35e-296
1.25142e-295
3.45107e-297
1.75669e-296
5.08734e-298
2.47919e-297
7.56332e-299
3.53081e-298
1.13954e-299
5.09623e-299
1.74848e-300
7.48882e-300
2.74529e-301
1.12558e-300
4.43092e-302
1.73819e-301
7.38204e-303
2.76954e-302
1.27367e-303
4.56963e-303
7.76753e-304
7.66148e-270
2.33094e-268
4.17442e-269
1.41789e-267
1.89588e-268
6.71082e-267
2.95128e-267
1.01299e-265
4.49871e-266
1.47663e-264
6.27396e-265
1.84514e-263
7.22121e-264
1.83873e-262
3.85576e-263
1.0458e-261
5.59469e-264
1.58102e-262
5.01274e-265
1.41134e-263
3.55494e-266
9.87212e-265
2.15461e-267
5.92721e-266
1.15653e-268
3.18197e-267
5.82811e-270
1.5637e-268
8.21128e-271
1.89253e-269
4.89971e-270
9.63326e-269
2.2542e-270
8.30937e-269
1.42228e-271
9.34174e-270
7.11582e-273
4.67072e-271
3.58815e-274
1.7623e-272
1.69458e-275
6.145e-274
5.39603e-277
2.59121e-275
1.71685e-278
9.51075e-277
5.95958e-280
3.15922e-278
2.16843e-281
1.03785e-279
8.86614e-283
3.47118e-281
4.41613e-284
1.23827e-282
2.58944e-285
5.00706e-284
1.63248e-286
2.36829e-285
1.17029e-287
1.43178e-286
1.19484e-288
1.304e-287
1.66584e-289
1.61888e-288
2.59884e-290
2.24281e-289
4.149e-291
3.21015e-290
6.62748e-292
4.66238e-291
1.05517e-292
6.84394e-292
1.67313e-293
1.01273e-292
2.64271e-294
1.50717e-293
4.16471e-295
2.25366e-294
6.57014e-296
3.38919e-295
1.0424e-296
5.14033e-296
1.6723e-297
7.89484e-297
2.72815e-298
1.23372e-297
4.55036e-299
1.97114e-298
7.79687e-300
3.23437e-299
1.37772e-300
5.47054e-300
2.51736e-301
9.5631e-301
4.76338e-302
1.73053e-301
9.33474e-303
3.24312e-302
6.23503e-303
1.02794e-269
3.12758e-268
5.66041e-269
1.8763e-267
2.79066e-268
9.61701e-267
4.26246e-267
1.43274e-265
6.34084e-266
2.04679e-264
8.56922e-265
2.49343e-263
9.47008e-264
2.39634e-262
4.97067e-263
1.31003e-261
7.76245e-264
2.11594e-262
7.41912e-265
2.02109e-263
5.57959e-266
1.50245e-264
3.57075e-267
9.5317e-266
2.01903e-268
5.37852e-267
1.06592e-269
2.76412e-268
1.26938e-270
2.85248e-269
5.99662e-270
1.21331e-268
2.45914e-270
9.65421e-269
1.49174e-271
1.04769e-269
7.44521e-273
5.09128e-271
3.77114e-274
1.88992e-272
1.77383e-275
6.55824e-274
5.90516e-277
2.76147e-275
1.98358e-278
1.03514e-276
7.1361e-280
3.55536e-278
2.67584e-281
1.20261e-279
1.1243e-282
4.12819e-281
5.69644e-284
1.51042e-282
3.37218e-285
6.25645e-284
2.16517e-286
3.0383e-285
1.64172e-287
1.93806e-286
1.8683e-288
1.96063e-287
2.91106e-289
2.72421e-288
4.96568e-290
4.13753e-289
8.56189e-291
6.4076e-290
1.47462e-291
1.00465e-290
2.54403e-292
1.59946e-291
4.40676e-293
2.58719e-292
7.67462e-294
4.24717e-293
1.34646e-294
7.07174e-294
2.38616e-295
1.19477e-294
4.28563e-296
2.05131e-295
7.82895e-297
3.58726e-296
1.45915e-297
6.40373e-297
2.78112e-298
1.16902e-297
5.42941e-299
2.18521e-298
1.08669e-299
4.18584e-299
2.23083e-300
8.21992e-300
4.69738e-301
1.65507e-300
1.01405e-301
3.41647e-301
7.16364e-302
1.38042e-269
4.17937e-268
7.66744e-269
2.47999e-267
4.03093e-268
1.35135e-266
6.05534e-267
1.99179e-265
8.81577e-266
2.79685e-264
1.15815e-264
3.33132e-263
1.2337e-263
3.09953e-262
6.36325e-263
1.63475e-261
1.0649e-263
2.81239e-262
1.08111e-264
2.86238e-263
8.58472e-266
2.25349e-264
5.76937e-267
1.50521e-265
3.40689e-268
8.88951e-267
1.86628e-269
4.74952e-268
1.94847e-270
4.33931e-269
7.13533e-270
1.50402e-268
2.66694e-270
1.11725e-268
1.57077e-271
1.16879e-269
7.85433e-273
5.52878e-271
3.98865e-274
2.02448e-272
1.87618e-275
7.00921e-274
6.55964e-277
2.95495e-275
2.32723e-278
1.13416e-276
8.69543e-280
4.04054e-278
3.36834e-281
1.41377e-279
1.45595e-282
5.00673e-281
7.51638e-284
1.88818e-282
4.50996e-285
8.05248e-284
2.96888e-286
4.04599e-285
2.44382e-287
2.80044e-286
3.33991e-288
3.39357e-287
6.26843e-289
5.68366e-288
1.23628e-289
9.9976e-289
2.41786e-290
1.75813e-289
4.72137e-291
3.1273e-290
9.30399e-292
5.68936e-291
1.85467e-292
1.05934e-291
3.73629e-293
2.01188e-292
7.58522e-294
3.87645e-293
1.54993e-294
7.55111e-294
3.18932e-295
1.4852e-294
6.61975e-296
2.95062e-295
1.38884e-296
5.92834e-296
2.9517e-297
1.20658e-296
6.36791e-298
2.49201e-297
1.39713e-298
5.2319e-298
3.12242e-299
1.11835e-298
7.11778e-300
2.43742e-299
1.65629e-300
5.42273e-300
1.22166e-300
1.85686e-269
5.57116e-268
1.03809e-268
3.27269e-267
5.74934e-268
1.86518e-266
8.47632e-267
2.72521e-265
1.21053e-265
3.77188e-264
1.55011e-264
4.40523e-263
1.59693e-263
3.98165e-262
8.09508e-263
2.03246e-261
1.44574e-263
3.7137e-262
1.5528e-264
4.01179e-263
1.29621e-265
3.33315e-264
9.10066e-267
2.33566e-265
5.57163e-268
1.43798e-266
3.1422e-269
7.94804e-268
2.95634e-270
6.62522e-269
8.28379e-270
1.8409e-268
2.89089e-270
1.28976e-268
1.68339e-271
1.30298e-269
8.4761e-273
6.03428e-271
4.304e-274
2.19148e-272
2.03404e-275
7.59927e-274
7.49353e-277
3.21752e-275
2.80597e-278
1.2672e-276
1.09064e-279
4.69519e-278
4.37546e-281
1.70705e-279
1.94926e-282
6.27098e-281
1.02785e-283
2.45163e-282
6.27894e-285
1.08323e-283
4.29826e-286
5.72166e-285
4.42053e-287
4.95319e-286
1.00591e-287
9.96951e-287
2.78504e-288
2.46224e-287
7.02813e-289
5.54588e-288
1.65631e-289
1.17577e-288
3.80584e-290
2.46137e-289
8.71784e-291
5.20509e-290
2.00034e-291
1.11549e-290
4.58999e-292
2.41274e-291
1.05022e-292
5.23849e-292
2.39568e-293
1.13895e-292
5.45919e-294
2.48029e-293
1.24661e-294
5.42005e-294
2.86243e-295
1.19162e-294
6.63142e-296
2.64323e-295
1.5548e-296
5.9319e-296
3.69911e-297
1.35024e-296
8.95074e-298
3.12425e-297
2.20677e-298
7.36265e-298
5.5498e-299
1.76972e-298
4.30407e-299
2.50086e-269
7.4219e-268
1.40423e-268
4.31356e-267
8.0492e-268
2.53523e-266
1.16993e-266
3.67573e-265
1.64335e-265
5.02778e-264
2.05633e-264
5.77282e-263
2.05498e-263
5.08351e-262
1.02401e-262
2.51818e-261
1.94417e-263
4.87317e-262
2.20068e-264
5.56722e-263
1.92335e-265
4.86487e-264
1.40466e-266
3.56453e-265
8.86996e-268
2.28034e-266
5.12258e-269
1.29954e-267
4.428e-270
1.01097e-268
9.43942e-270
2.23102e-268
3.1603e-270
1.48762e-268
1.86499e-271
1.45992e-269
9.49867e-273
6.68874e-271
4.8109e-274
2.42959e-272
2.29713e-275
8.48344e-274
8.93701e-277
3.62129e-275
3.52709e-278
1.46627e-276
1.42826e-279
5.66235e-278
5.95245e-281
2.14836e-279
2.74161e-282
8.23478e-281
1.48192e-283
3.35972e-282
9.27812e-285
1.5522e-283
7.3321e-286
9.58413e-285
2.03647e-286
2.24576e-285
1.1206e-286
1.09041e-285
4.36609e-287
3.78523e-286
1.31457e-287
1.01731e-286
3.49664e-288
2.43463e-287
8.83509e-289
5.604e-288
2.19347e-289
1.28412e-288
5.40942e-290
2.95682e-289
1.32686e-290
6.83407e-290
3.23475e-291
1.58038e-290
7.84713e-292
3.6528e-291
1.89945e-292
8.44701e-292
4.60373e-293
1.95867e-292
1.12134e-293
4.56677e-293
2.75426e-294
1.07376e-293
6.84314e-295
2.553e-294
1.72445e-295
6.1536e-295
4.41743e-296
1.5069e-295
1.15243e-296
3.75595e-296