/*--------------------------------*- C++ -*----------------------------------*\
  =========                 |
  \\      /  F ield         | OpenFOAM: The Open Source CFD Toolbox
   \\    /   O peration     | Website:  https://openfoam.org
    \\  /    A nd           | Version:  9
     \\/     M anipulation  |
\*---------------------------------------------------------------------------*/
FoamFile
{
    format      ascii;
    class       volScalarField;
    location    "0.07";
    object      alpha.water;
}
// * * * * * * * * * * * * * * * * * * * * * * * * * * * * * * * * * * * * * //

dimensions      [0 0 0 0 0 0 0];

internalField   nonuniform List<scalar> 
5000
(
6.81325e-267
5.62783e-265
8.32471e-267
7.17566e-266
2.60049e-264
9.29664e-263
3.79669e-261
2.89125e-259
3.25353e-261
5.91075e-263
1.26425e-264
2.80512e-266
6.11897e-268
1.35453e-269
1.9531e-269
6.46809e-268
1.46096e-265
9.4708e-268
1.87525e-269
4.13455e-271
1.26386e-272
7.19878e-274
1.88549e-275
5.1902e-277
1.54544e-278
4.91567e-280
1.65087e-281
5.95117e-283
2.75498e-284
1.17104e-284
8.65707e-286
3.18518e-288
1.26246e-289
5.61344e-291
2.69617e-292
1.4043e-293
7.95054e-295
4.86403e-296
3.17533e-297
2.18039e-298
1.55626e-299
1.14569e-300
8.6642e-302
6.72056e-303
5.34701e-304
4.36727e-305
3.66629e-306
3.16757e-307
2.81964e-308
2.5687e-309
1.81065e-266
1.55385e-264
3.4547e-266
4.37484e-265
1.27018e-263
3.60512e-262
1.16462e-260
9.04716e-259
9.86398e-261
2.21395e-262
5.56659e-264
1.40959e-265
3.4827e-267
8.61815e-269
6.11737e-269
1.65695e-267
2.77172e-265
2.21587e-267
5.82779e-269
1.52497e-270
5.38846e-272
3.51559e-273
1.01482e-274
3.18601e-276
1.07674e-277
3.87974e-279
1.50643e-280
6.54178e-282
3.77917e-283
1.08525e-283
4.67392e-285
1.47473e-287
3.70352e-289
1.68569e-290
8.68748e-292
4.94669e-293
3.08936e-294
2.08745e-295
1.49778e-296
1.12171e-297
8.65841e-299
6.83905e-300
5.51137e-301
4.52962e-302
3.80044e-303
3.26044e-304
2.8653e-305
2.58387e-306
2.39445e-307
2.26434e-308
3.21468e-266
2.64872e-264
1.06058e-265
1.53183e-264
3.78511e-263
8.96891e-262
2.38932e-260
1.70491e-258
2.01057e-260
5.15192e-262
1.44579e-263
4.04305e-265
1.10952e-266
3.04982e-268
1.29712e-268
3.2419e-267
3.89752e-265
4.50594e-267
1.26619e-268
3.65457e-270
1.44621e-271
1.03056e-272
3.22615e-274
1.1093e-275
4.10715e-277
1.61117e-278
6.81317e-280
3.22717e-281
2.02349e-282
4.20483e-283
1.68024e-284
5.67447e-287
1.20678e-288
4.76419e-290
2.35079e-291
1.32659e-292
8.40456e-294
5.85296e-295
4.37132e-296
3.42576e-297
2.77309e-298
2.29777e-299
1.94098e-300
1.66989e-301
1.46424e-302
1.31051e-303
1.19935e-304
1.12432e-305
1.08126e-306
1.05891e-307
5.3827e-266
3.75523e-264
2.73869e-265
4.0471e-264
8.94998e-263
1.87439e-261
4.44552e-260
2.61648e-258
3.5871e-260
9.71094e-262
2.93353e-263
8.86577e-265
2.65345e-266
7.96034e-268
2.39983e-268
5.6356e-267
5.06397e-265
8.22056e-267
2.41383e-268
7.48832e-270
3.23874e-271
2.41497e-272
8.00295e-274
2.89999e-275
1.13043e-276
4.62808e-278
2.03101e-279
9.95267e-281
6.48937e-282
9.8973e-283
4.20115e-284
2.05525e-286
4.31862e-288
1.69384e-289
7.78571e-291
4.06952e-292
2.40372e-293
1.58479e-294
1.14439e-295
8.84844e-297
7.18628e-298
6.04705e-299
5.2292e-300
4.62829e-301
4.18686e-302
3.87153e-303
3.66251e-304
3.54894e-305
3.52648e-306
3.56478e-307
9.17903e-266
4.91657e-264
6.09917e-265
8.94643e-264
1.83759e-262
3.57222e-261
8.08509e-260
3.64542e-258
6.02075e-260
1.65134e-261
5.24797e-263
1.68319e-264
5.38733e-266
1.72751e-267
4.297e-268
9.33421e-267
6.42529e-265
1.51436e-266
4.49395e-268
1.46205e-269
6.73317e-271
5.01655e-272
1.70475e-273
6.26284e-275
2.48369e-276
1.03298e-277
4.5981e-279
2.2772e-280
1.50071e-281
1.77967e-282
8.22671e-284
6.1648e-286
1.61065e-287
6.41667e-289
2.886e-290
1.44083e-291
7.96563e-293
4.85957e-294
3.25112e-295
2.36012e-296
1.83425e-297
1.50556e-298
1.29047e-299
1.14588e-300
1.04889e-301
9.87172e-303
9.54223e-304
9.47177e-305
9.65678e-306
1.00231e-306
1.55528e-265
6.20533e-264
1.20559e-264
1.7518e-263
3.42851e-262
6.38666e-261
1.41734e-259
4.83456e-258
9.70259e-260
2.69801e-261
8.88713e-263
2.97324e-264
9.97069e-266
3.34544e-267
7.89255e-268
1.57228e-266
8.08381e-265
2.65512e-266
8.30601e-268
2.79692e-269
1.3389e-270
9.6095e-272
3.25773e-273
1.1798e-274
4.6655e-276
1.94431e-277
8.6392e-279
4.25624e-280
2.78253e-281
2.80166e-282
1.38175e-283
1.6784e-285
5.26446e-287
2.17198e-288
1.00196e-289
5.05203e-291
2.7672e-292
1.63978e-293
1.04843e-294
7.21334e-296
5.31655e-297
4.17e-298
3.4537e-299
2.99818e-300
2.71154e-301
2.54358e-302
2.4677e-303
2.47178e-304
2.55363e-305
2.69459e-306
2.54726e-265
7.70223e-264
2.18583e-264
3.15992e-263
5.98787e-262
1.08574e-260
2.35729e-259
6.24731e-258
1.52355e-259
4.39021e-261
1.48969e-262
5.12465e-264
1.76619e-265
6.07921e-267
1.54871e-267
2.83802e-266
1.01156e-264
4.37459e-266
1.48707e-267
5.17205e-269
2.53215e-270
1.71782e-271
5.72216e-273
2.00876e-274
7.80004e-276
3.20564e-277
1.40137e-278
6.83516e-280
4.40489e-281
3.9497e-282
2.05174e-283
4.19436e-285
1.40944e-286
6.13122e-288
2.986e-289
1.57834e-290
8.97053e-292
5.45174e-293
3.53061e-294
2.43088e-295
1.77514e-296
1.37041e-297
1.11393e-298
9.49321e-300
8.4494e-301
7.82933e-302
7.53514e-303
7.52016e-304
7.77377e-305
8.24369e-306
4.01574e-265
9.50178e-264
3.74596e-264
5.41283e-263
1.0023e-261
1.77717e-260
3.73079e-259
7.9643e-258
2.35624e-259
7.22329e-261
2.53259e-262
8.88752e-264
3.10124e-265
1.0771e-266
3.27814e-267
5.5712e-266
1.25949e-264
6.76306e-266
2.5151e-267
9.05542e-269
4.49996e-270
2.87394e-271
9.36155e-273
3.15822e-274
1.19196e-275
4.78277e-277
2.04316e-278
9.82435e-280
6.1989e-281
5.08687e-282
2.75604e-283
7.92883e-285
3.02719e-286
1.43172e-287
7.52922e-289
4.27383e-290
2.59444e-291
1.67511e-292
1.1456e-293
8.26935e-295
6.27856e-296
4.9968e-297
4.15462e-298
3.59864e-299
3.24006e-300
3.02775e-301
2.93399e-302
2.94716e-303
3.06823e-304
3.28289e-305
6.13714e-265
1.17182e-263
6.21354e-264
9.01129e-263
1.6383e-261
2.83717e-260
5.68353e-259
1.0084e-257
3.60521e-259
1.20246e-260
4.39622e-262
1.57366e-263
5.5183e-265
1.91211e-266
7.2488e-267
1.15306e-265
1.55827e-264
9.8517e-266
3.97617e-267
1.48307e-268
7.46147e-270
4.50225e-271
1.43646e-272
4.65048e-274
1.6976e-275
6.60619e-277
2.73925e-278
1.29086e-279
7.95914e-281
6.08686e-282
3.41104e-283
1.24322e-284
5.44689e-286
2.84809e-287
1.64227e-288
1.01824e-289
6.7332e-291
4.72341e-292
3.49673e-293
2.71735e-294
2.20581e-295
1.86267e-296
1.63111e-297
1.47815e-298
1.38469e-299
1.34041e-300
1.34118e-301
1.38793e-302
1.48664e-303
1.63595e-304
9.16638e-265
1.44963e-263
1.01361e-263
1.48006e-262
2.64659e-261
4.46163e-260
8.42631e-259
1.27254e-257
5.45743e-259
2.01006e-260
7.74333e-262
2.84419e-263
1.00352e-264
3.45665e-266
1.58454e-266
2.34672e-265
1.91528e-264
1.36173e-265
5.88155e-267
2.26695e-268
1.15332e-269
6.62339e-271
2.07934e-272
6.48603e-274
2.28822e-275
8.60909e-277
3.45407e-278
1.59015e-279
9.53836e-281
6.89167e-282
3.97508e-283
1.72919e-284
8.65195e-286
5.04049e-287
3.22236e-288
2.21162e-289
1.61667e-290
1.25042e-291
1.01584e-292
8.60628e-294
7.55911e-295
6.85488e-296
6.4026e-297
6.15316e-298
6.08445e-299
6.19467e-300
6.50084e-301
7.0413e-302
7.88179e-303
9.0543e-304
1.34571e-264
1.80282e-263
1.63952e-263
2.41374e-262
4.24392e-261
6.94024e-260
1.22461e-258
1.60334e-257
8.15772e-259
3.34034e-260
1.36786e-261
5.19924e-263
1.86158e-264
6.41345e-266
3.28656e-266
4.51878e-265
2.33683e-264
1.79895e-265
8.19239e-267
3.24783e-268
1.66766e-269
9.17738e-271
2.8531e-272
8.64751e-274
2.95744e-275
1.07662e-276
4.18373e-278
1.88347e-279
1.09894e-280
7.5692e-282
4.48249e-283
2.24582e-284
1.27442e-285
8.30795e-287
5.93908e-288
4.55991e-289
3.72196e-290
3.19897e-291
2.86691e-292
2.65694e-293
2.53174e-294
2.4726e-295
2.47219e-296
2.53102e-297
2.65607e-298
2.86129e-299
3.16961e-300
3.61687e-301
4.2581e-302
5.13685e-303
1.94794e-264
2.25731e-263
2.63494e-263
3.90627e-262
6.73881e-261
1.06686e-259
1.75098e-258
2.01861e-257
1.20179e-258
5.47171e-260
2.3957e-261
9.50213e-263
3.49439e-264
1.21708e-265
6.34174e-266
8.11822e-265
2.82787e-264
2.28876e-265
1.08362e-266
4.39381e-268
2.27003e-269
1.20409e-270
3.73122e-272
1.1108e-273
3.70466e-275
1.31036e-276
4.95545e-278
2.19046e-279
1.24549e-280
8.24993e-282
5.02531e-283
2.83939e-284
1.81798e-285
1.33112e-286
1.07109e-287
9.25659e-289
8.46602e-290
8.08708e-291
7.97778e-292
8.0628e-293
8.31143e-294
8.72461e-295
9.32819e-296
1.01717e-296
1.13328e-297
1.29274e-298
1.51295e-299
1.82026e-300
2.25505e-301
2.85751e-302
2.78412e-264
2.84831e-263
4.20205e-263
6.25085e-262
1.05545e-260
1.61581e-259
2.46711e-258
2.54013e-257
1.74302e-258
8.78748e-260
4.12522e-261
1.7211e-262
6.56637e-264
2.34508e-265
1.13363e-265
1.35947e-264
3.392e-264
2.82828e-265
1.37373e-266
5.66041e-268
2.9311e-269
1.50576e-270
4.67925e-272
1.38355e-273
4.53371e-275
1.56829e-276
5.8148e-278
2.53953e-279
1.41347e-280
9.10127e-282
5.72961e-283
3.61092e-284
2.60317e-285
2.14737e-286
1.95006e-287
1.89594e-288
1.93459e-289
2.03985e-290
2.19827e-291
2.40593e-292
2.66738e-293
2.99548e-294
3.41224e-295
3.95113e-296
4.6617e-297
5.6176e-298
6.93008e-299
8.77033e-300
1.14059e-300
1.51448e-301
3.93307e-264
3.62363e-263
6.63514e-263
9.86132e-262
1.62521e-260
2.40516e-259
3.42859e-258
3.19445e-257
2.4893e-258
1.3809e-259
6.93525e-261
3.07035e-262
1.22716e-263
4.54771e-265
1.88815e-265
2.13314e-264
4.03153e-264
3.41456e-265
1.68225e-266
6.99822e-268
3.61733e-269
1.80674e-270
5.66078e-272
1.67916e-273
5.45009e-275
1.8583e-276
6.81452e-278
2.96113e-279
1.62231e-280
1.02608e-281
6.73478e-283
4.72387e-284
3.83717e-285
3.56724e-286
3.64229e-287
3.95153e-288
4.45024e-289
5.12199e-290
5.96933e-291
7.01483e-292
8.30564e-293
9.92031e-294
1.19798e-294
1.46655e-295
1.82494e-296
2.31442e-297
2.99875e-298
3.97823e-299
5.41329e-300
7.50918e-301
5.49803e-264
4.6479e-263
1.03501e-262
1.53023e-261
2.45655e-260
3.51534e-259
4.70352e-258
4.01368e-257
3.50627e-258
2.12738e-259
1.14436e-260
5.38736e-262
2.27151e-263
8.8397e-265
2.96917e-265
3.16071e-264
4.74802e-264
4.0455e-265
2.00229e-266
8.35692e-268
4.29568e-269
2.09306e-270
6.64213e-272
1.99335e-273
6.4598e-275
2.18924e-276
8.01027e-278
3.48652e-279
1.89214e-280
1.1889e-281
8.22407e-283
6.43981e-284
5.89581e-285
6.14737e-286
6.98319e-287
8.33931e-288
1.02244e-288
1.26909e-289
1.58363e-290
1.98206e-291
2.48949e-292
3.14439e-293
4.00501e-294
5.15958e-295
6.74302e-296
8.96482e-297
1.21563e-297
1.68514e-298
2.39262e-299
3.45999e-300
7.61265e-264
6.00766e-263
1.59224e-262
2.33307e-261
3.64431e-260
5.04738e-259
6.37578e-258
5.03667e-257
4.88288e-258
3.23028e-259
1.85779e-260
9.30482e-262
4.1533e-263
1.7085e-264
4.4867e-265
4.45999e-264
5.54285e-264
4.71958e-265
2.32714e-266
9.68786e-268
4.93702e-269
2.35417e-270
7.59621e-272
2.32213e-273
7.57039e-275
2.57112e-276
9.46378e-278
4.15123e-279
2.24627e-280
1.41837e-281
1.04624e-282
9.18261e-284
9.44424e-285
1.09285e-285
1.36083e-286
1.76189e-287
2.32117e-288
3.07523e-289
4.07595e-290
5.39877e-291
7.15568e-292
9.51528e-293
1.27342e-293
1.72078e-294
2.35552e-295
3.27628e-296
4.64356e-297
6.72401e-298
9.96982e-299
1.5062e-299
1.04517e-263
7.81701e-263
2.41241e-262
3.49478e-261
5.31018e-260
7.12854e-259
8.54976e-258
6.31006e-257
6.73382e-258
4.82808e-259
2.96683e-260
1.58063e-261
7.47674e-263
3.25804e-264
6.646e-265
6.0419e-264
6.41784e-264
5.43354e-265
2.64988e-266
1.09481e-267
5.51966e-269
2.584e-270
8.5064e-272
2.6633e-273
8.79506e-275
3.01653e-276
1.12512e-277
5.00086e-279
2.71607e-280
1.74305e-281
1.38565e-282
1.36456e-283
1.56354e-284
1.9802e-285
2.66201e-286
3.68732e-287
5.16647e-288
7.25049e-289
1.015e-289
1.41687e-290
1.97585e-291
2.7609e-292
3.87945e-293
5.50226e-294
7.90663e-295
1.15535e-295
1.72283e-296
2.63059e-297
4.12555e-298
6.61762e-299
1.42429e-263
1.02236e-262
3.59506e-262
5.13921e-261
7.60668e-260
9.91803e-259
1.13549e-257
7.88774e-257
9.20022e-258
7.11105e-259
4.66123e-260
2.63811e-261
1.32092e-262
6.08693e-264
9.82426e-265
7.91492e-264
7.37623e-264
6.18164e-265
2.96431e-266
1.21096e-267
6.03407e-269
2.78245e-270
9.37234e-272
3.01893e-273
1.01612e-274
3.54391e-276
1.34788e-277
6.1004e-279
3.34785e-280
2.2075e-281
1.90698e-282
2.09963e-283
2.64939e-284
3.62265e-285
5.19345e-286
7.62571e-287
1.12948e-287
1.67333e-288
2.47147e-289
3.64008e-290
5.35963e-291
7.91919e-292
1.17951e-292
1.77944e-293
2.73252e-294
4.29185e-295
6.92681e-296
1.15361e-296
1.98931e-297
3.53227e-298
1.92816e-263
1.34154e-262
5.26541e-262
7.41995e-261
1.07221e-259
1.36116e-258
1.4947e-257
9.83465e-257
1.24593e-257
1.03338e-258
7.20762e-260
4.32319e-261
2.28482e-262
1.10843e-263
1.46595e-264
1.00892e-263
8.42446e-264
6.95873e-265
3.2679e-266
1.31734e-267
6.48908e-269
2.95749e-270
1.02192e-271
3.39929e-273
1.1726e-274
4.18406e-276
1.63146e-277
7.55241e-279
4.21564e-280
2.88616e-281
2.72934e-282
3.34535e-283
4.60522e-284
6.74111e-285
1.02535e-285
1.59453e-286
2.50519e-287
3.94895e-288
6.23089e-289
9.85365e-290
1.56747e-290
2.52057e-291
4.11967e-292
6.88048e-293
1.17992e-293
2.08573e-294
3.81098e-295
7.2089e-296
1.41203e-296
2.83567e-297
2.59529e-263
1.76276e-262
7.57379e-262
1.05227e-260
1.48848e-259
1.84465e-258
1.95127e-257
1.22288e-256
1.67499e-257
1.48381e-258
1.09761e-259
6.95481e-261
3.86457e-262
1.96224e-263
2.21466e-264
1.25802e-263
9.57454e-264
7.76686e-265
3.56632e-266
1.41879e-267
6.91858e-269
3.12769e-270
1.11102e-271
3.82877e-273
1.36033e-274
4.99314e-276
2.00557e-277
9.537e-279
5.45061e-280
3.9235e-281
4.13279e-282
5.69868e-283
8.61199e-284
1.3606e-284
2.22571e-285
3.74163e-286
6.41166e-287
1.11339e-287
1.9549e-288
3.47211e-289
6.25186e-290
1.14472e-290
2.13745e-291
4.07932e-292
7.97021e-293
1.59577e-293
3.27576e-294
6.89522e-295
1.48774e-295
3.25842e-296
3.47701e-263
2.31559e-262
1.06813e-261
1.46668e-260
2.03689e-259
2.47108e-258
2.52785e-257
1.51631e-256
2.23632e-257
2.10716e-258
1.64725e-259
1.0986e-260
6.39092e-262
3.37638e-263
3.37546e-264
1.54118e-263
1.08467e-263
8.62388e-265
3.87831e-266
1.52654e-267
7.38859e-269
3.32548e-270
1.21652e-271
4.35517e-273
1.60112e-274
6.07721e-276
2.5266e-277
1.23999e-278
7.31378e-280
5.69598e-281
7.20564e-282
1.20339e-282
2.10954e-283
3.7767e-284
6.98373e-285
1.33711e-285
2.6312e-286
5.27827e-287
1.07159e-287
2.1936e-288
4.52424e-289
9.41102e-290
1.97796e-290
4.20908e-291
9.08747e-292
1.9944e-292
4.45688e-293
1.01558e-293
2.36182e-294
5.55777e-295
4.64447e-263
3.03921e-262
1.47977e-261
2.01161e-260
2.75074e-259
3.27574e-258
3.252e-257
1.8749e-256
2.96613e-257
2.96136e-258
2.43776e-259
1.70497e-260
1.03417e-261
5.65689e-263
5.1606e-264
1.86197e-263
1.22722e-263
9.57177e-265
4.24005e-266
1.65989e-267
8.00617e-269
3.60232e-270
1.359e-271
5.06563e-273
1.93563e-274
7.63879e-276
3.30524e-277
1.6841e-278
1.04177e-279
1.01241e-280
2.13271e-281
5.27604e-282
1.18636e-282
2.5562e-283
5.54427e-284
1.22978e-284
2.77831e-285
6.33711e-286
1.44842e-286
3.30784e-287
7.5523e-288
1.72795e-288
3.97419e-289
9.21796e-290
2.16275e-290
5.14677e-291
1.24515e-291
3.06822e-292
7.70985e-293
1.95854e-293
6.19835e-263
3.98685e-262
2.01881e-261
2.71956e-260
3.6713e-259
4.30238e-258
4.15749e-257
2.312e-256
3.90919e-257
4.1207e-258
3.55965e-259
2.60192e-260
1.6401e-261
9.2575e-263
7.88005e-264
2.22554e-263
1.38947e-263
1.06832e-264
4.7089e-266
1.84844e-267
8.9347e-269
4.03819e-270
1.57298e-271
6.11524e-273
2.43894e-274
1.00656e-275
4.5618e-277
2.4345e-278
1.75663e-279
4.61292e-280
2.35039e-280
8.20793e-281
2.20635e-281
5.35907e-282
1.27407e-282
3.0521e-283
7.38911e-284
1.7978e-284
4.37192e-285
1.06083e-285
2.57128e-286
6.24203e-287
1.52254e-287
3.7436e-288
9.3067e-289
2.34553e-289
6.00626e-290
1.56561e-290
4.15878e-291
1.11629e-291
8.28316e-263
5.23346e-262
2.71962e-261
3.63146e-260
4.8507e-259
5.60586e-258
5.28594e-257
2.84372e-256
5.12052e-257
5.67961e-258
5.13206e-259
3.90908e-260
2.55452e-261
1.48553e-262
1.19997e-263
2.63925e-263
1.57719e-263
1.20653e-264
5.36741e-266
2.13567e-267
1.04215e-268
4.75906e-270
1.9167e-271
7.78015e-273
3.2501e-274
1.41048e-275
6.74113e-277
3.91066e-278
7.41986e-279
8.39941e-279
5.84226e-279
2.29961e-279
6.70921e-280
1.73041e-280
4.30335e-281
1.06976e-281
2.67917e-282
6.74294e-283
1.69822e-283
4.27795e-284
1.07841e-284
2.72528e-285
6.92425e-286
1.77438e-286
4.59945e-287
1.20905e-287
3.22959e-288
8.78095e-289
2.43232e-289
6.8079e-290
1.11119e-262
6.8927e-262
3.63073e-261
4.80197e-260
6.35643e-259
7.25576e-258
6.68911e-257
3.48952e-256
6.66788e-257
7.75778e-258
7.31127e-259
5.78986e-260
3.91705e-261
2.34691e-262
1.82412e-263
3.11361e-263
1.79751e-263
1.38615e-264
6.32867e-266
2.5848e-267
1.28424e-268
5.96611e-270
2.48908e-271
1.05533e-272
4.62766e-274
2.12047e-275
1.07965e-276
9.87679e-278
1.31169e-277
2.15642e-277
1.61873e-277
6.8528e-278
2.1292e-278
5.76558e-279
1.48764e-279
3.81054e-280
9.80706e-281
2.53686e-281
6.58535e-282
1.71587e-282
4.48074e-283
1.17434e-283
3.09739e-284
8.2456e-285
2.22145e-285
6.07088e-286
1.68619e-286
4.76721e-287
1.37313e-287
3.99596e-288
1.49992e-262
9.13133e-262
4.82355e-261
6.30741e-260
8.27817e-259
9.34163e-258
8.43192e-257
4.27301e-256
8.63512e-257
1.05071e-257
1.03024e-258
8.46806e-260
5.92807e-261
3.66398e-262
2.7743e-263
3.66381e-263
2.05878e-263
1.62493e-264
7.74252e-266
3.28645e-267
1.67654e-268
7.97987e-270
3.45716e-271
1.53096e-272
7.05043e-274
3.41869e-275
2.00108e-276
1.01303e-276
3.1997e-276
5.48129e-276
4.3325e-276
1.95871e-276
6.46095e-277
1.83477e-277
4.9117e-278
1.29666e-278
3.42892e-279
9.11427e-280
2.43694e-280
6.55642e-281
1.77105e-281
4.8085e-282
1.31535e-282
3.63454e-283
1.01692e-283
2.88715e-284
8.33238e-285
2.44791e-285
7.32659e-286
2.21427e-286
2.04159e-262
1.21998e-261
6.40601e-261
8.25686e-260
1.07377e-258
1.19805e-257
1.05966e-256
5.22293e-256
1.11266e-256
1.4122e-257
1.43768e-258
1.22518e-259
8.87642e-261
5.67007e-262
4.23105e-263
4.31221e-263
2.37071e-263
1.9439e-264
9.80173e-266
4.36731e-267
2.30293e-268
1.1301e-269
5.09752e-271
2.35731e-272
1.1393e-273
5.9014e-275
7.4534e-276
2.21755e-275
7.69035e-275
1.33419e-274
1.10556e-274
5.32178e-275
1.8618e-275
5.54809e-276
1.54334e-276
4.20665e-277
1.14463e-277
3.13024e-278
8.61851e-279
2.39291e-279
6.68358e-280
1.87899e-280
5.32758e-281
1.52692e-281
4.43322e-282
1.30637e-282
3.91337e-283
1.19322e-283
3.7057e-284
1.16083e-284
2.80751e-262
1.64828e-261
8.54515e-261
1.0809e-259
1.39036e-258
1.53276e-257
1.32883e-256
6.37434e-256
1.42735e-256
1.88532e-257
1.98962e-258
1.75685e-259
1.31797e-260
8.7173e-262
6.47882e-263
5.09178e-263
2.7441e-263
2.36676e-264
1.27463e-265
5.99885e-267
3.28401e-268
1.6692e-269
7.85676e-271
3.79416e-272
1.92628e-273
1.21659e-274
1.06103e-274
5.18248e-274
1.78482e-273
3.12852e-273
2.71012e-273
1.38531e-273
5.13558e-274
1.60705e-274
4.65307e-275
1.31194e-275
3.67951e-276
1.03662e-276
2.93987e-277
8.42121e-278
2.43148e-278
7.07544e-279
2.07823e-279
6.17362e-280
1.85835e-280
5.67811e-281
1.76364e-281
5.57526e-282
1.79484e-282
5.82167e-283
3.90577e-262
2.25688e-261
1.14982e-260
1.41958e-259
1.80118e-258
1.95913e-257
1.66423e-256
7.77001e-256
1.82411e-256
2.50285e-257
2.73492e-258
2.50154e-259
1.94427e-260
1.33335e-261
9.95934e-263
6.05087e-263
3.19082e-263
2.91948e-264
1.68664e-265
8.40718e-267
4.78988e-268
2.52957e-269
1.24511e-270
6.29973e-272
3.48756e-273
6.43462e-274
2.38148e-273
1.19212e-272
4.03712e-272
7.14334e-272
6.45123e-272
3.49252e-272
1.37076e-272
4.50759e-273
1.36075e-273
3.97604e-274
1.15184e-274
3.34661e-275
9.78353e-276
2.89038e-276
8.62392e-277
2.59623e-277
7.89531e-278
2.42962e-278
7.57917e-279
2.40053e-279
7.72986e-280
2.53316e-280
8.45187e-281
2.8374e-281
5.50029e-262
3.13566e-261
1.56594e-260
1.87556e-259
2.33942e-258
2.50538e-257
2.08332e-256
9.46207e-256
2.32393e-256
3.30791e-257
3.73998e-258
3.54304e-259
2.85396e-260
2.03031e-261
1.53465e-262
7.26083e-263
3.72467e-263
3.63048e-264
2.25071e-265
1.18874e-266
7.06035e-268
3.88633e-269
2.02356e-270
1.13037e-271
1.04485e-272
1.18167e-272
5.58751e-272
2.709e-271
8.99483e-271
1.60463e-270
1.50661e-270
8.61637e-271
3.57715e-271
1.23695e-271
3.89958e-272
1.18307e-272
3.54583e-273
1.06365e-273
3.20874e-274
9.77871e-275
3.01431e-275
9.3869e-276
2.95532e-276
9.42043e-277
3.04496e-277
9.99372e-278
3.33427e-278
1.13183e-278
3.90995e-279
1.35704e-279
7.83877e-262
4.4216e-261
2.16308e-260
2.498e-259
3.05173e-258
3.20974e-257
2.60861e-256
1.15137e-255
2.95341e-256
4.35748e-257
5.09549e-258
4.99906e-259
4.17298e-260
3.07797e-261
2.36506e-262
8.82585e-263
4.36262e-263
4.53144e-264
3.00815e-265
1.68298e-266
1.04422e-267
6.07648e-269
3.83859e-270
3.83806e-271
1.37949e-271
2.92015e-271
1.31895e-270
6.12883e-270
1.98993e-269
3.57383e-269
3.48015e-269
2.09768e-269
9.20269e-270
3.34763e-270
1.10361e-270
3.48231e-271
1.0814e-271
3.35336e-272
1.04516e-272
3.28828e-273
1.04746e-273
3.37427e-274
1.09956e-274
3.62886e-275
1.2145e-275
4.1268e-276
1.42514e-276
5.00573e-277
1.78855e-277
6.41132e-278
1.12933e-261
6.32265e-261
3.03322e-260
3.35817e-259
4.0035e-258
4.12382e-257
3.26885e-256
1.40011e-255
3.74613e-256
5.72671e-257
6.92498e-258
7.03417e-259
6.08121e-260
4.64387e-261
3.63586e-262
1.08955e-262
5.12585e-263
5.65846e-264
4.00999e-265
2.37719e-266
1.54914e-267
1.08418e-268
1.89e-269
5.59605e-270
3.53457e-270
7.4836e-270
3.13498e-269
1.38747e-268
4.39206e-268
7.92759e-268
7.98752e-268
5.06321e-268
2.34503e-268
8.97841e-269
3.09988e-269
1.01892e-269
3.28347e-270
1.05414e-270
3.39914e-271
1.1051e-271
3.63859e-272
1.21218e-272
4.08594e-273
1.3949e-273
4.82874e-274
1.69682e-274
6.05834e-275
2.19946e-275
8.11987e-276
3.00359e-276
1.64177e-261
9.15301e-261
4.31683e-260
4.55925e-259
5.28592e-258
5.31667e-257
4.10037e-256
1.7015e-255
4.74415e-256
7.5139e-257
9.39524e-258
9.876e-259
8.8324e-260
6.96784e-261
5.56192e-262
1.36809e-262
6.04204e-263
7.05794e-264
5.32738e-265
3.34977e-266
2.3614e-267
4.36563e-268
3.1217e-268
1.36314e-268
9.69195e-269
1.94054e-268
7.50807e-268
3.14892e-267
9.68889e-267
1.75407e-266
1.82461e-266
1.21398e-266
5.93002e-267
2.39115e-267
8.65728e-268
2.96925e-268
9.94441e-269
3.30975e-269
1.10485e-269
3.71377e-270
1.26377e-270
4.35126e-271
1.51574e-271
5.34697e-272
1.91229e-272
6.94098e-273
2.55919e-273
9.59204e-274
3.65472e-274
1.39368e-274
2.4027e-261
1.33838e-260
6.2281e-260
6.25053e-259
7.02531e-258
6.87964e-257
5.14843e-256
2.06623e-255
5.99943e-256
9.84579e-257
1.27281e-257
1.38346e-258
1.27786e-259
1.03876e-260
8.44844e-262
1.74764e-262
7.14756e-263
8.78652e-264
7.05141e-265
4.7255e-266
4.61453e-267
5.71693e-267
6.75678e-267
3.48651e-267
2.66564e-267
5.06541e-267
1.80897e-266
7.16342e-266
2.1355e-265
3.86899e-265
4.1458e-265
2.88982e-265
1.48798e-265
6.31937e-266
2.40098e-266
8.60068e-267
2.99655e-267
1.03484e-267
3.57737e-268
1.24341e-268
4.37275e-269
1.55496e-269
5.59217e-270
2.03605e-270
7.5136e-271
2.81331e-271
1.06978e-271
4.13427e-272
1.62375e-272
6.3772e-273
3.53023e-261
1.97143e-260
9.09234e-260
8.64773e-259
9.39544e-258
8.93193e-257
6.46851e-256
2.50669e-255
7.57511e-256
1.28825e-256
1.72124e-257
1.93232e-258
1.83979e-259
1.53692e-260
1.27211e-261
2.26859e-262
8.49128e-263
1.09242e-263
9.31863e-265
6.80747e-266
2.57972e-266
1.03979e-265
1.4938e-265
8.93002e-266
7.29777e-266
1.32512e-265
4.37343e-265
1.62973e-264
4.69665e-264
8.49888e-264
9.36024e-264
6.82223e-264
3.69738e-264
1.65345e-264
6.5928e-265
2.46765e-265
8.95009e-266
3.20899e-266
1.14873e-266
4.12856e-267
1.49998e-267
5.50466e-268
2.04183e-268
7.66483e-269
2.9156e-269
1.12509e-269
4.40851e-270
1.75538e-270
7.10233e-271
2.87194e-271
5.19255e-261
2.91684e-260
1.33996e-259
1.2062e-258
1.26334e-257
1.16269e-256
8.12741e-256
3.03696e-255
9.54616e-256
1.68212e-256
2.32137e-257
2.68762e-258
2.63209e-259
2.25408e-260
1.89618e-261
2.98628e-262
1.01448e-262
1.35894e-263
1.23407e-264
1.18062e-265
3.64009e-265
1.95749e-264
3.29094e-264
2.27574e-264
1.98179e-264
3.46014e-264
1.05768e-263
3.70007e-263
1.02916e-262
1.85714e-262
2.09797e-262
1.59576e-262
9.09206e-263
4.27759e-263
1.78931e-263
6.9987e-264
2.64275e-264
9.83785e-265
3.64493e-265
1.35491e-265
5.0832e-266
1.92398e-266
7.35659e-267
2.84596e-267
1.11546e-267
4.43472e-268
1.79013e-268
7.34236e-269
3.05988e-269
1.27414e-269
7.62428e-261
4.32204e-260
1.98796e-259
1.69396e-258
1.70602e-257
1.51588e-256
1.02041e-255
3.67272e-255
1.19991e-255
2.18967e-256
3.11776e-257
3.71583e-258
3.735e-259
3.27225e-260
2.79463e-261
3.98528e-262
1.23216e-262
1.70725e-263
1.66363e-264
5.05217e-265
6.11816e-264
3.68632e-263
7.19717e-263
5.7525e-263
5.32551e-263
8.99538e-263
2.55265e-262
8.36938e-262
2.24452e-261
4.0345e-261
4.66681e-261
3.6978e-261
2.21158e-261
1.09347e-261
4.79508e-262
1.95943e-262
7.70568e-263
2.97704e-263
1.1409e-263
4.38994e-264
1.70027e-264
6.63699e-265
2.61592e-265
1.0429e-265
4.21197e-266
1.72536e-266
7.17533e-267
3.03154e-267
1.3011e-267
5.57924e-268
1.11465e-260
6.39597e-260
2.96014e-259
2.3916e-258
2.31051e-257
1.97702e-256
1.27899e-255
4.43095e-255
1.50305e-255
2.83775e-256
4.16224e-257
5.09566e-258
5.2459e-259
4.69423e-260
4.0686e-261
5.55294e-262
1.7524e-262
2.42834e-263
2.67121e-264
5.93853e-264
1.0371e-262
6.90787e-262
1.55956e-261
1.43925e-261
1.41443e-261
2.32481e-261
6.13942e-261
1.88544e-260
4.87006e-260
8.71278e-260
1.03065e-259
8.49398e-260
5.32457e-260
2.76306e-260
1.26964e-260
5.41799e-261
2.21872e-261
8.89178e-262
3.52986e-262
1.40558e-262
5.62078e-263
2.26315e-263
9.19663e-264
3.77891e-264
1.57251e-264
6.63506e-265
2.84134e-265
1.23566e-265
5.4571e-266
2.40835e-266
1.62055e-260
9.43861e-260
4.41036e-259
3.38839e-258
3.13354e-257
2.57579e-256
1.59882e-255
5.32951e-255
1.87428e-255
3.65538e-256
5.51135e-257
6.91409e-258
7.27548e-259
6.64178e-260
5.86359e-261
1.09845e-261
7.10863e-262
8.9963e-263
1.18709e-263
8.79603e-263
1.74309e-261
1.28699e-260
3.34395e-260
3.55905e-260
3.71307e-260
5.96864e-260
1.47135e-259
4.23215e-259
1.05188e-258
1.87089e-258
2.26088e-258
1.93577e-258
1.27039e-258
6.91489e-259
3.32769e-259
1.48311e-259
6.32333e-260
2.62668e-260
1.08249e-260
4.45721e-261
1.84015e-261
7.64233e-262
3.20138e-262
1.35539e-262
5.80915e-263
2.52373e-263
1.11243e-263
4.97826e-264
2.26178e-264
1.02729e-264
2.36454e-260
1.40075e-259
6.559e-259
4.8076e-258
4.24868e-257
3.34783e-256
1.99126e-255
6.38645e-255
2.3238e-255
4.6715e-256
7.22106e-257
9.25776e-258
9.93782e-259
9.24908e-260
8.70185e-261
7.3393e-261
1.03724e-260
1.32605e-261
1.75366e-262
1.31553e-261
2.89626e-260
2.38015e-259
7.09136e-259
8.6946e-259
9.64022e-259
1.52155e-258
3.51553e-258
9.47596e-258
2.2646e-257
3.99992e-257
4.93158e-257
4.38159e-257
3.00802e-257
1.71628e-257
8.6439e-258
4.02348e-258
1.78412e-258
7.69896e-259
3.29087e-259
1.40097e-259
5.97082e-260
2.55754e-260
1.10432e-260
4.81751e-261
2.12667e-261
9.51077e-262
4.31243e-262
1.98377e-262
9.25982e-263
4.32327e-263
3.80558e-260
2.28674e-259
9.769e-259
6.81569e-258
5.74912e-257
4.33476e-256
2.46852e-255
7.61924e-255
2.86084e-255
5.91136e-256
9.3382e-257
1.21984e-257
1.33322e-258
1.26727e-259
1.90579e-260
1.08733e-259
1.95976e-259
2.66562e-260
3.43927e-261
1.95525e-260
4.75141e-259
4.3648e-258
1.48739e-257
2.09895e-257
2.47611e-257
3.85516e-257
8.38628e-257
2.11977e-256
4.86689e-256
8.52718e-256
1.0712e-255
9.86433e-256
7.07736e-256
4.22897e-256
2.22922e-256
1.08318e-256
4.99064e-257
2.24186e-257
9.92726e-258
4.36866e-258
1.92235e-258
8.49516e-259
3.78153e-259
1.69912e-259
7.71782e-260
3.54804e-260
1.65242e-260
7.80268e-261
3.73707e-261
1.79165e-261
1.12566e-259
6.68205e-259
1.53673e-258
9.63649e-258
7.74938e-257
5.58394e-256
3.04349e-255
9.04547e-255
3.49282e-255
7.39191e-256
1.18888e-256
1.57724e-257
1.75187e-258
1.75323e-259
1.43291e-259
1.8356e-258
3.8047e-258
5.53797e-259
7.15487e-260
2.9135e-259
7.70548e-258
7.9375e-257
3.08713e-256
5.0101e-256
6.29715e-256
9.72055e-256
2.0002e-255
4.74745e-255
1.04601e-254
1.81511e-254
2.32024e-254
2.21179e-254
1.65649e-254
1.0361e-254
5.7129e-255
2.89214e-255
1.38988e-255
6.48482e-256
2.97428e-256
1.35355e-256
6.15106e-257
2.80338e-257
1.2852e-257
5.93991e-258
2.77234e-258
1.3085e-258
6.25262e-259
3.02785e-259
1.48666e-259
7.31332e-260
9.59582e-259
5.55249e-258
3.66559e-258
1.36389e-257
1.03874e-256
7.15066e-256
3.73365e-255
1.07078e-254
4.23216e-255
9.12393e-256
1.48693e-256
1.99601e-257
2.25321e-258
3.3065e-259
2.19472e-258
3.1802e-257
7.4484e-257
1.16567e-257
1.54362e-258
4.43563e-258
1.24816e-256
1.43248e-255
6.35776e-255
1.18174e-254
1.58758e-254
2.44043e-254
4.77256e-254
1.06594e-253
2.25263e-253
3.86433e-253
5.0166e-253
4.94338e-253
3.8614e-253
2.5262e-253
1.45504e-253
7.68604e-254
3.85045e-254
1.86539e-254
8.86326e-255
4.17005e-255
1.95542e-255
9.18029e-256
4.32934e-256
2.05596e-256
9.85102e-257
4.76987e-257
2.337e-257
1.15984e-257
5.8339e-258
2.9428e-258
1.24159e-257
7.10352e-257
2.50443e-257
2.04598e-257
1.38673e-256
9.15412e-256
4.6274e-255
1.30738e-254
5.22655e-255
1.12385e-255
1.83238e-256
2.47198e-257
2.92248e-258
2.23614e-258
3.7733e-257
5.61457e-256
1.46929e-255
2.47844e-256
3.43629e-257
7.09934e-257
2.04719e-255
2.58794e-254
1.29866e-253
2.75676e-253
3.96947e-253
6.11316e-253
1.14296e-252
2.4039e-252
4.86396e-252
8.23939e-252
1.08377e-251
1.10196e-251
8.96724e-252
6.12976e-252
3.68643e-252
2.03515e-252
1.0613e-252
5.33691e-253
2.62526e-253
1.27574e-253
6.16668e-254
2.97967e-254
1.44439e-254
7.04355e-255
3.4628e-255
1.71928e-255
8.63315e-256
4.38922e-256
2.26056e-256
1.16892e-256
1.72538e-256
9.78041e-256
3.09793e-256
4.8223e-257
1.92212e-256
1.27276e-255
6.96026e-255
2.33496e-254
8.90452e-255
1.61e-255
2.37364e-256
3.0848e-257
5.5727e-258
3.60455e-257
6.68306e-256
1.00958e-254
2.92142e-254
5.32742e-255
7.86809e-256
1.23197e-255
3.40027e-254
4.68589e-253
2.63203e-252
6.36995e-252
9.85595e-252
1.52659e-251
2.74077e-251
5.4541e-251
1.05686e-250
1.75965e-250
2.34057e-250
2.45086e-250
2.07353e-250
1.47937e-250
9.30653e-251
5.35947e-251
2.90712e-251
1.51623e-251
7.71533e-252
3.86969e-252
1.92703e-252
9.57806e-253
4.77026e-253
2.38767e-253
1.2039e-253
6.12643e-254
3.15132e-254
1.64036e-254
8.64423e-255
4.57879e-255
2.52284e-255
1.41421e-254
4.37554e-255
3.47131e-256
4.18914e-256
3.70872e-255
3.2222e-254
1.64977e-253
5.84568e-254
6.51769e-255
5.75092e-256
5.45905e-257
4.60239e-257
6.75682e-256
1.22237e-254
1.86425e-253
5.9068e-253
1.1702e-253
1.87134e-254
2.38242e-254
5.80884e-253
8.57729e-252
5.34972e-251
1.46978e-250
2.45035e-250
3.82952e-250