/*--------------------------------*- C++ -*----------------------------------*\
  =========                 |
  \\      /  F ield         | OpenFOAM: The Open Source CFD Toolbox
   \\    /   O peration     | Website:  https://openfoam.org
    \\  /    A nd           | Version:  9
     \\/     M anipulation  |
\*---------------------------------------------------------------------------*/
FoamFile
{
    format      ascii;
    class       volScalarField;
    location    "0.07";
    object      p;
}
// * * * * * * * * * * * * * * * * * * * * * * * * * * * * * * * * * * * * * //

dimensions      [1 -1 -2 0 0 0 0];

internalField   nonuniform List<scalar> 
5000
(
1.1057
0.705888
1.10194
1.05586
1.11242
1.05563
1.12023
0.733036
1.11712
1.09593
1.14828
1.15993
1.15692
1.14232
1.06708
1.10413
0.295095
1.09746
1.08956
1.17298
1.24966
1.22018
1.25743
1.22369
1.21531
1.19874
1.16419
1.09332
0.926186
0.566174
0.768898
1.00419
1.13672
1.20462
1.24558
1.27049
1.28529
1.29389
1.2989
1.30192
1.30388
1.30524
1.30623
1.30698
1.30755
1.30799
1.30832
1.30858
1.30878
1.30893
1.13045
0.839912
1.13622
1.06824
1.14253
1.06464
1.14451
0.863323
1.14735
1.11092
1.1645
1.16958
1.16591
1.16102
1.0665
1.14161
0.650902
1.16229
1.10744
1.18967
1.24013
1.21087
1.25446
1.2321
1.22607
1.20861
1.17932
1.13306
1.08319
0.977803
1.01144
1.09414
1.16486
1.2085
1.23882
1.25951
1.27356
1.28321
1.28995
1.29471
1.29811
1.30055
1.30232
1.30362
1.30458
1.3053
1.30585
1.30628
1.30663
1.30691
1.19089
0.960981
1.19449
1.09249
1.18278
1.0888
1.20341
0.97923
1.20036
1.13363
1.18899
1.18544
1.18094
1.19236
1.10449
1.24052
0.918252
1.26039
1.14422
1.21269
1.2499
1.22193
1.25712
1.23924
1.24388
1.23634
1.22895
1.22034
1.26287
1.21439
1.21236
1.24366
1.24883
1.25634
1.26698
1.27613
1.2833
1.28876
1.29287
1.29594
1.29826
1.30001
1.30134
1.30234
1.30309
1.30366
1.3041
1.30444
1.30472
1.30495
1.24286
1.07235
1.24888
1.1276
1.22553
1.12448
1.25373
1.0855
1.24994
1.16413
1.21705
1.206
1.20157
1.22817
1.15398
1.30211
1.10638
1.32706
1.18783
1.24036
1.26164
1.23883
1.26544
1.25355
1.26623
1.26726
1.27778
1.28366
1.34512
1.33573
1.33207
1.33345
1.30999
1.30075
1.29827
1.29768
1.29813
1.29898
1.29986
1.30065
1.30134
1.30189
1.30231
1.30262
1.30284
1.30298
1.30306
1.3031
1.30312
1.30311
1.28171
1.16118
1.28928
1.16652
1.26389
1.16363
1.29091
1.17048
1.28696
1.19728
1.24449
1.22869
1.22461
1.26028
1.19952
1.33246
1.22257
1.36205
1.22791
1.26726
1.2735
1.25526
1.27638
1.27068
1.28553
1.28975
1.30886
1.31553
1.3683
1.37556
1.37336
1.36377
1.33622
1.32425
1.31695
1.31202
1.30904
1.30721
1.30604
1.30525
1.30467
1.3042
1.30379
1.30341
1.30304
1.30268
1.30233
1.30198
1.30165
1.30131
1.31126
1.22437
1.31857
1.20375
1.29519
1.20097
1.31868
1.23135
1.31417
1.22876
1.26902
1.25113
1.24717
1.28589
1.23765
1.34987
1.28857
1.37865
1.26065
1.28966
1.28604
1.27059
1.28765
1.28507
1.29941
1.30556
1.32646
1.3325
1.37292
1.38031
1.3795
1.37011
1.34621
1.33458
1.32577
1.31953
1.31534
1.31238
1.31018
1.30848
1.3071
1.30593
1.30491
1.30398
1.30313
1.30233
1.30157
1.30085
1.30017
1.29951
1.33446
1.2687
1.34088
1.23717
1.32014
1.23457
1.33989
1.27437
1.3352
1.25683
1.2902
1.27182
1.26792
1.30531
1.26811
1.3616
1.32455
1.38507
1.28563
1.30703
1.29709
1.28616
1.29858
1.29691
1.31097
1.31776
1.33511
1.34312
1.37307
1.37748
1.37747
1.37043
1.35092
1.33981
1.33053
1.32389
1.31918
1.31561
1.31281
1.31054
1.30864
1.30698
1.30551
1.30416
1.30292
1.30176
1.30066
1.29963
1.29864
1.29769
1.3528
1.30121
1.35821
1.26641
1.3401
1.26409
1.3561
1.30597
1.3517
1.28113
1.30834
1.29016
1.28679
1.31892
1.29216
1.36933
1.34348
1.38482
1.30388
1.32034
1.30723
1.30013
1.30852
1.30723
1.32028
1.32618
1.34061
1.34999
1.37112
1.37327
1.37341
1.3678
1.35224
1.34204
1.33304
1.32642
1.32147
1.31754
1.31436
1.31172
1.30945
1.30744
1.30562
1.30395
1.30241
1.30095
1.29958
1.29828
1.29704
1.29584
1.36685
1.32558
1.3715
1.29151
1.35592
1.28953
1.3682
1.32956
1.36442
1.30175
1.32374
1.30596
1.30375
1.32784
1.31107
1.37322
1.35199
1.37976
1.31684
1.33038
1.31632
1.31192
1.31711
1.31599
1.32733
1.33216
1.34437
1.35252
1.36706
1.36756
1.36736
1.3627
1.35052
1.34157
1.33336
1.32714
1.32222
1.31821
1.31489
1.31205
1.30955
1.3073
1.30525
1.30335
1.30157
1.2999
1.29831
1.2968
1.29537
1.29397
1.37722
1.34372
1.38154
1.31264
1.36812
1.311
1.37696
1.34691
1.37401
1.31891
1.3366
1.31913
1.31779
1.33528
1.32455
1.3735
1.35421
1.37166
1.32578
1.33755
1.32404
1.32156
1.32418
1.32298
1.33233
1.33598
1.3459
1.35224
1.36165
1.36105
1.36044
1.35653
1.34706
1.3393
1.33203
1.32632
1.32165
1.31777
1.31446
1.31156
1.30897
1.3066
1.30441
1.30236
1.30043
1.2986
1.29686
1.2952
1.29361
1.29208
1.38473
1.35717
1.38905
1.3301
1.37725
1.32879
1.38321
1.35947
1.38111
1.3329
1.34714
1.32988
1.32896
1.34179
1.33315
1.371
1.35343
1.3623
1.33183
1.34236
1.3304
1.329
1.32967
1.32828
1.33558
1.33791
1.34548
1.35023
1.3559
1.35479
1.35396
1.35066
1.34315
1.33632
1.32985
1.32463
1.32027
1.31656
1.31334
1.31046
1.30784
1.30542
1.30316
1.30103
1.29901
1.29708
1.29524
1.29348
1.2918
1.29016
1.39025
1.36714
1.39464
1.34438
1.38394
1.34336
1.38763
1.36848
1.38629
1.34422
1.35567
1.33867
1.33776
1.34671
1.33818
1.36664
1.35162
1.35391
1.33592
1.34549
1.3353
1.33452
1.33378
1.33211
1.33743
1.33851
1.34391
1.34705
1.3504
1.34918
1.34835
1.34552
1.33933
1.33321
1.32737
1.32254
1.31844
1.3149
1.31177
1.30895
1.30634
1.30391
1.30162
1.29945
1.29738
1.29539
1.2935
1.29167
1.28992
1.28823
1.39436
1.37456
1.39876
1.356
1.3889
1.35503
1.39069
1.37488
1.38996
1.3533
1.36273
1.34568
1.34472
1.34993
1.34078
1.36135
1.34983
1.34791
1.33873
1.34754
1.33883
1.33842
1.33673
1.33472
1.33825
1.33828
1.34187
1.34353
1.34509
1.34405
1.34331
1.34091
1.33564
1.33011
1.32477
1.32024
1.31636
1.31297
1.30994
1.30717
1.30459
1.30217
1.29988
1.29769
1.29559
1.29358
1.29165
1.2898
1.28801
1.28628
1.39746
1.38017
1.40175
1.36541
1.39272
1.36411
1.39277
1.37941
1.39233
1.36154
1.3663
1.3526
1.34998
1.35237
1.34188
1.35606
1.34817
1.34464
1.34087
1.34888
1.34119
1.34102
1.33871
1.33633
1.33831
1.33746
1.33957
1.34004
1.34029
1.33928
1.33863
1.33655
1.33213
1.32705
1.32211
1.31784
1.31413
1.31087
1.30792
1.30521
1.30267
1.30027
1.29799
1.2958
1.2937
1.29168
1.28974
1.28787
1.28607
1.28432
1.39931
1.38462
1.40386
1.37301
1.39564
1.37125
1.39421
1.3827
1.3936
1.36823
1.37003
1.35781
1.35436
1.35369
1.34306
1.35181
1.34745
1.34323
1.34265
1.34975
1.34267
1.34262
1.33988
1.33714
1.33779
1.33619
1.33705
1.33659
1.33598
1.33497
1.33438
1.33254
1.32866
1.32402
1.31942
1.31538
1.31182
1.30866
1.30579
1.30313
1.30064
1.29826
1.29599
1.29382
1.29173
1.28971
1.28777
1.2859
1.28411
1.28236
1.40092
1.38835
1.40541
1.37934
1.39769
1.3769
1.39524
1.38527
1.39435
1.37314
1.37381
1.36208
1.3581
1.35567
1.34441
1.34935
1.34796
1.34324
1.34428
1.35031
1.3435
1.34346
1.34041
1.3373
1.33683
1.33459
1.33443
1.33324
1.33209
1.33109
1.33052
1.32881
1.32535
1.32107
1.31678
1.31291
1.30948
1.30641
1.3036
1.30099
1.29853
1.29618
1.29394
1.29178
1.2897
1.2877
1.28577
1.28392
1.28213
1.2804
1.40276
1.39157
1.40662
1.38455
1.39925
1.38148
1.39607
1.3874
1.3949
1.37701
1.37684
1.36589
1.36166
1.35812
1.34672
1.34908
1.34951
1.34432
1.34587
1.35067
1.3439
1.34375
1.34044
1.33698
1.33557
1.33279
1.33179
1.33002
1.32853
1.3275
1.32695
1.32532
1.32219
1.31823
1.31418
1.31047
1.30714
1.30414
1.30138
1.29881
1.29638
1.29407
1.29185
1.28971
1.28765
1.28567
1.28376
1.28192
1.28015
1.27843
1.40439
1.39434
1.40763
1.38873
1.40064
1.38527
1.39683
1.38914
1.39577
1.37986
1.37927
1.3693
1.36507
1.36081
1.35049
1.3509
1.35182
1.34606
1.34739
1.35086
1.34398
1.34365
1.34012
1.3363
1.33408
1.33085
1.32917
1.32698
1.32525
1.32424
1.32351
1.32199
1.31914
1.31546
1.31163
1.30805
1.30481
1.30186
1.29915
1.29662
1.29422
1.29193
1.28973
1.28762
1.28558
1.28362
1.28173
1.27991
1.27816
1.27646
1.4057
1.39675
1.40851
1.39204
1.40196
1.38844
1.39758
1.39128
1.3958
1.38232
1.38151
1.37239
1.36841
1.3638
1.35547
1.35435
1.3546
1.34816
1.34883
1.3509
1.34384
1.34329
1.33954
1.33537
1.33244
1.32881
1.32657
1.32407
1.3222
1.32111
1.32028
1.31879
1.31615
1.31273
1.3091
1.30565
1.30248
1.29959
1.29692
1.29442
1.29205
1.28979
1.28761
1.28552
1.28351
1.28157
1.27971
1.27791
1.27617
1.27449
1.4068
1.3989
1.40935
1.3948
1.40312
1.39108
1.3982
1.39278
1.39629
1.38471
1.38362
1.37525
1.37172
1.36702
1.36114
1.35874
1.35759
1.35045
1.35018
1.35078
1.34351
1.34272
1.33877
1.33423
1.33068
1.32668
1.32399
1.32128
1.31932
1.31812
1.31715
1.31564
1.31319
1.31001
1.30658
1.30326
1.30017
1.29733
1.2947
1.29222
1.28988
1.28764
1.28549
1.28342
1.28143
1.27952
1.27767
1.27589
1.27418
1.27252
1.40774
1.40082
1.41013
1.39721
1.40409
1.39329
1.3988
1.39393
1.39703
1.38687
1.38556
1.3779
1.37494
1.37023
1.36693
1.36341
1.36067
1.35289
1.3514
1.35048
1.34304
1.34201
1.33785
1.33295
1.3288
1.32445
1.32138
1.31854
1.31654
1.31521
1.31407
1.31254
1.31024
1.30729
1.30406
1.30087
1.29787
1.29508
1.29248
1.29003
1.28771
1.28549
1.28336
1.28132
1.27935
1.27746
1.27564
1.27389
1.2722
1.27056
1.40873
1.40255
1.41038
1.39975
1.4049
1.39518
1.39944
1.39503
1.39771
1.38873
1.38733
1.38031
1.37793
1.37324
1.37226
1.36781
1.36374
1.35544
1.35248
1.35
1.34244
1.3412
1.33684
1.33154
1.32683
1.32212
1.31869
1.31575
1.31374
1.31232
1.31104
1.30948
1.30732
1.30458
1.30154
1.29849
1.29557
1.29284
1.29027
1.28784
1.28554
1.28334
1.28123
1.27921
1.27727
1.27541
1.27362
1.2719
1.27025
1.26862
1.40932
1.40414
1.41097
1.40148
1.40554
1.39681
1.4001
1.39607
1.39832
1.39036
1.38895
1.38246
1.38062
1.37594
1.37669
1.37154
1.36675
1.35804
1.3534
1.34936
1.34175
1.34031
1.33575
1.33005
1.32477
1.31965
1.31588
1.31284
1.31085
1.30939
1.30803
1.30647
1.30443
1.30188
1.29903
1.29611
1.29329
1.2906
1.28807
1.28567
1.28338
1.2812
1.2791
1.27709
1.27517
1.27332
1.27155
1.26987
1.26831
1.26679
1.40994
1.40553
1.41156
1.40278
1.40609
1.39821
1.40074
1.39704
1.39892
1.39183
1.39043
1.38437
1.38294
1.37822
1.37999
1.37443
1.36965
1.36062
1.35415
1.34862
1.341
1.33938
1.33463
1.3285
1.32264
1.31707
1.31291
1.30977
1.30781
1.30639
1.30505
1.30352
1.30159
1.29921
1.29652
1.29374
1.291
1.28838
1.28588
1.28351
1.28124
1.27908
1.277
1.27502
1.27311
1.27128
1.26953
1.26786
1.26632
1.26484
1.41055
1.40657
1.41198
1.40392
1.40661
1.39944
1.40139
1.39796
1.39953
1.39316
1.39175
1.38605
1.38487
1.38007
1.38215
1.3764
1.37241
1.36308
1.35474
1.34783
1.34024
1.33843
1.33349
1.32693
1.32048
1.31443
1.30986
1.30656
1.30465
1.30334
1.3021
1.30065
1.29883
1.29658
1.29404
1.29138
1.28873
1.28617
1.28372
1.28137
1.27913
1.27699
1.27494
1.27298
1.2711
1.2693
1.26757
1.26591
1.26434
1.26286
1.41095
1.40766
1.41184
1.4049
1.40705
1.40055
1.40206
1.39885
1.40013
1.39438
1.39295
1.38752
1.38644
1.38152
1.38328
1.37726
1.37523
1.36533
1.3552
1.34706
1.3395
1.33749
1.33236
1.32539
1.31838
1.31183
1.30683
1.30335
1.30147
1.3003
1.2992
1.29787
1.29614
1.29401
1.29159
1.28904
1.28648
1.28398
1.28157
1.27926
1.27704
1.27492
1.27288
1.27092
1.26904
1.26723
1.26549
1.26381
1.26222
1.26075
1.41116
1.40831
1.41182
1.40574
1.40743
1.40158
1.40275
1.39973
1.40073
1.3955
1.39404
1.38883
1.38771
1.38267
1.38376
1.37826
1.37696
1.36718
1.35553
1.34638
1.33884
1.33659
1.33126
1.32393
1.31643
1.30938
1.30398
1.3003
1.29841
1.29737
1.29642
1.2952
1.29357
1.29153
1.28921
1.28676
1.28428
1.28183
1.27946
1.27718
1.27498
1.27287
1.27083
1.26888
1.267
1.2652
1.26347
1.26181
1.26022
1.25873
1.41115
1.40862
1.41179
1.4064
1.40777
1.40254
1.40347
1.4006
1.40136
1.39657
1.39505
1.39002
1.38876
1.3836
1.38376
1.37863
1.3785
1.36869
1.35578
1.34585
1.33829
1.33576
1.33024
1.32261
1.31475
1.30718
1.30146
1.29758
1.29563
1.29466
1.29383
1.29271
1.29115
1.28918
1.28694
1.28457
1.28215
1.27976
1.27742
1.27516
1.27298
1.27087
1.26885
1.2669
1.26503
1.26323
1.26151
1.25985
1.25827
1.25675
1.41103
1.40877
1.41158
1.40688
1.40808
1.40346
1.40423
1.40151
1.40204
1.39762
1.39604
1.39115
1.38968
1.38443
1.38359
1.3786
1.37977
1.36985
1.35598
1.34551
1.33787
1.33502
1.32932
1.3214
1.31323
1.30552
1.29945
1.29534
1.29327
1.29229
1.29151
1.29044
1.28892
1.287
1.28482
1.2825
1.28013
1.27778
1.27547
1.27322
1.27105
1.26895
1.26693
1.26498
1.2631
1.2613
1.25957
1.2579
1.25631
1.25479
1.41083
1.40879
1.41124
1.40722
1.40838
1.40437
1.40504
1.40246
1.40278
1.3987
1.39703
1.39226
1.39055
1.38526
1.38354
1.37922
1.3799
1.3706
1.35616
1.34539
1.33757
1.33441
1.3284
1.3205
1.31212
1.30425
1.29797
1.29367
1.29143
1.29034
1.28952
1.28845
1.28693
1.28504
1.28288
1.28059
1.27825
1.27591
1.27362
1.27138
1.2692
1.2671
1.26506
1.2631
1.26121
1.2594
1.25765
1.25597
1.25437
1.25284
1.41055
1.40872
1.41087
1.4075
1.40869
1.40529
1.40593
1.40347
1.40362
1.39981
1.39806
1.3934
1.39145
1.38616
1.38366
1.37957
1.38007
1.37114
1.35633
1.34551
1.33739
1.33395
1.32765
1.31978
1.31136
1.30344
1.29704
1.29257
1.29012
1.28884
1.28791
1.28675
1.28521
1.2833
1.28115
1.27886
1.27653
1.27419
1.27188
1.26963
1.26744
1.26532
1.26327
1.26129
1.25937
1.25753
1.25577
1.25407
1.25245
1.2509
1.41024
1.4086
1.41049
1.40775
1.40903
1.40623
1.40691
1.40457
1.40455
1.40101
1.39916
1.3946
1.39242
1.38717
1.3841
1.37993
1.38016
1.37147
1.35654
1.34588
1.33769
1.3333
1.327
1.31926
1.31093
1.30306
1.29662
1.29201
1.28931
1.28779
1.28666
1.28537
1.28375
1.2818
1.27962
1.27732
1.27497
1.27261
1.27028
1.26801
1.26579
1.26363
1.26155
1.25954
1.25759
1.25572
1.25392
1.25219
1.25054
1.24896
1.40991
1.40845
1.41012
1.40797
1.40939
1.40722
1.40797
1.40576
1.40561
1.4023
1.40035
1.39589
1.39351
1.38832
1.38492
1.38055
1.38018
1.37168
1.3571
1.34599
1.33787
1.33298
1.32657
1.31896
1.31078
1.30304
1.29661
1.29188
1.28894
1.28713
1.28575
1.28428
1.28255
1.28053
1.2783
1.27596
1.27358
1.27118
1.26882
1.2665
1.26424
1.26204
1.25991
1.25786
1.25587
1.25395
1.25211
1.25034
1.24865
1.24703
1.40957
1.40829
1.40977
1.4082
1.40981
1.40825
1.40912
1.40704
1.40678
1.40368
1.40164
1.39728
1.39474
1.38961
1.38607
1.38143
1.38027
1.37188
1.35752
1.34624
1.33808
1.33288
1.32636
1.31888
1.31089
1.3033
1.2969
1.29207
1.28888
1.28678
1.28512
1.28345
1.28158
1.27947
1.27718
1.27479
1.27235
1.26991
1.26749
1.26511
1.2628
1.26054
1.25836
1.25624
1.2542
1.25223
1.25034
1.24851
1.24677
1.24511
1.40921
1.40811
1.40946
1.40843
1.41027
1.40934
1.41035
1.4084
1.40807
1.40518
1.40305
1.39878
1.39612
1.39104
1.38747
1.38253
1.38055
1.3722
1.35795
1.34659
1.3384
1.33293
1.32633
1.31899
1.3112
1.30374
1.29737
1.29246
1.28905
1.28665
1.28472
1.28284
1.28081
1.2786
1.27624
1.27378
1.27128
1.26877
1.26628
1.26384
1.26145
1.25913
1.25688
1.2547
1.25259
1.25055
1.24859
1.24671
1.24491
1.24319
1.40883
1.40792
1.40917
1.40866
1.41077
1.41046
1.41165
1.40985
1.40948
1.40676
1.40457
1.40039
1.39764
1.39261
1.38905
1.3838
1.38104
1.37273
1.35857
1.34702
1.33884
1.33317
1.32652
1.31931
1.31165
1.30428
1.29791
1.29292
1.28932
1.28667
1.28448
1.28239
1.28021
1.2779
1.27545
1.27292
1.27035
1.26776
1.2652
1.26268
1.26021
1.2578
1.25547
1.25321
1.25102
1.24891
1.24688
1.24492
1.24306
1.24127
1.40841
1.40772
1.40891
1.40888
1.41132
1.41164
1.41301
1.41137
1.41099
1.40844
1.40621
1.40211
1.3993
1.39431
1.39076
1.38525
1.38184
1.37357
1.35943
1.34754
1.33939
1.33362
1.32696
1.31983
1.31222
1.30485
1.29845
1.29338
1.28962
1.28675
1.28434
1.28207
1.27975
1.27733
1.2748
1.2722
1.26955
1.26688
1.26423
1.26162
1.25906
1.25656
1.25413
1.25178
1.24951
1.24731
1.2452
1.24316
1.24122
1.23937
1.40794
1.40749
1.40867
1.4091
1.41191
1.41286
1.41443
1.41296
1.41259
1.4102
1.40794
1.40395
1.40111
1.39614
1.39256
1.38687
1.38304
1.37482
1.36056
1.34819
1.34008
1.33432
1.3277
1.32058
1.3129
1.30543
1.29894
1.29379
1.2899
1.28686
1.28426
1.28183
1.2794
1.27688
1.27428
1.2716
1.26887
1.26612
1.26338
1.26067
1.25801
1.25541
1.25287
1.25042
1.24805
1.24576
1.24355
1.24143
1.2394
1.23747
1.40743
1.40725
1.40846
1.40931
1.41255
1.41413
1.41591
1.41461
1.41427
1.41203
1.40977
1.40591
1.40306
1.39813
1.39443
1.38867
1.38469
1.37655
1.36204
1.34907
1.34094
1.33527
1.32875
1.32156
1.31369
1.306
1.29935
1.2941
1.29011
1.28694
1.28421
1.28166
1.27913
1.27654
1.27387
1.27113
1.26832
1.26549
1.26265
1.25984
1.25707
1.25436
1.25171
1.24915
1.24666
1.24427
1.24195
1.23973
1.23761
1.23558
1.40691
1.40703
1.40828
1.40952
1.41325
1.41548
1.41746
1.41634
1.41603
1.41391
1.4117
1.40801
1.40518
1.40031
1.39644
1.39071
1.38679
1.37881
1.36397
1.35028
1.34205
1.33651
1.33012
1.32282
1.31463
1.3066
1.29971
1.29433
1.29025
1.28699
1.28417
1.28153
1.27894
1.2763
1.27358
1.27077
1.2679
1.26499
1.26206
1.25915
1.25627
1.25344
1.25067
1.24799
1.24538
1.24286
1.24043
1.23809
1.23585
1.23371
1.40633
1.40685
1.40813
1.40975
1.41403
1.4169
1.41908
1.41813
1.41785
1.41584
1.41372
1.41027
1.40749
1.40275
1.39865
1.39303
1.38936
1.38162
1.3664
1.35194
1.34347
1.33807
1.33184
1.32436
1.31576
1.30727
1.30006
1.29451
1.29034
1.28702
1.28414
1.28145
1.27882
1.27614
1.27339
1.27054
1.26762
1.26463
1.26162
1.25861
1.25561
1.25267
1.24978
1.24696
1.24422
1.24156
1.23899
1.23651
1.23413
1.23186
1.40585
1.40673
1.40802
1.41002
1.41493
1.41843
1.42079
1.42001
1.41972
1.41781
1.41584
1.4127
1.41005
1.4055
1.40117
1.3957
1.39239
1.38497
1.3694
1.35418
1.34532
1.33998
1.33391
1.32623
1.31713
1.30809
1.30047
1.29469
1.29041
1.28703
1.28412
1.28142
1.27877
1.27609
1.27332
1.27044
1.26747
1.26443
1.26134
1.25823
1.25513
1.25206
1.24904
1.24608
1.24319
1.24037
1.23764
1.235
1.23247
1.23003
1.40553
1.40667
1.40797
1.41038
1.416
1.4201
1.42263
1.42199
1.42163
1.4198
1.41807
1.41534
1.4129
1.40864
1.40412
1.39883
1.39587
1.38882
1.373
1.35711
1.3477
1.34228
1.33634
1.32845
1.31882
1.30916
1.30104
1.29496
1.29052
1.28708
1.28415
1.28145
1.27882
1.27614
1.27337
1.27048
1.26748
1.26438
1.26122
1.25802
1.25482
1.25162
1.24846
1.24535
1.24229
1.23931
1.23639
1.23356
1.23084
1.22823
1.4054
1.40677
1.40806
1.41085
1.4173
1.42193
1.42462
1.42407
1.42356
1.42181
1.42042
1.41824
1.41612
1.41226
1.40765
1.4025
1.3998
1.39312
1.3772
1.3608
1.3507
1.34505
1.33915
1.33106
1.32089
1.31057
1.30186
1.29539
1.29074
1.28722
1.28428
1.28159
1.27897
1.27632
1.27356
1.27066
1.26764
1.26449
1.26127
1.25798
1.25466
1.25134
1.24803
1.24475
1.24152
1.23834
1.23523
1.23218
1.22925
1.22644
1.4055
1.40709
1.4084
1.41141
1.41901
1.42396
1.42681
1.42629
1.42553
1.42384
1.42293
1.42144
1.41977
1.41645
1.41187
1.40684
1.40422
1.39782
1.38198
1.3653
1.35444
1.34836
1.34239
1.3341
1.32345
1.31244
1.30307
1.2961
1.29117
1.28752
1.28454
1.28186
1.27928
1.27665
1.2739
1.271
1.26795
1.26476
1.26146
1.25808
1.25465
1.25118
1.24772
1.24427
1.24084
1.23746
1.23413
1.23086
1.2277
1.22466
1.40588
1.40772
1.40909
1.41287
1.42045
1.42615
1.42921
1.42867
1.42753
1.42593
1.42565
1.42501
1.42393
1.42126
1.4169
1.41193
1.40916
1.40288
1.38733
1.3706
1.35898
1.3523
1.34611
1.33765
1.32657
1.31489
1.30479
1.29723
1.2919
1.28805
1.28501
1.28233
1.27976
1.27715
1.27441
1.2715
1.26842
1.26517
1.26179
1.2583
1.25473
1.25112
1.24748
1.24384
1.24021
1.23661
1.23306
1.22955
1.22615
1.22288
1.40658
1.40869
1.41017
1.41451
1.42251
1.42865
1.43187
1.43126
1.42963
1.42816
1.42869
1.42903
1.42868
1.42678
1.42281
1.41786
1.41468
1.4083
1.39321
1.3767
1.36436
1.35696
1.3504
1.34176
1.33035
1.31804
1.30716
1.29889
1.29306
1.28893
1.28575
1.28303
1.28046
1.27786
1.27512
1.27218
1.26904
1.26572
1.26223
1.25861
1.25489
1.2511
1.24727
1.24343
1.23959
1.23577
1.23198
1.22825
1.22462
1.22112
1.40757
1.41005
1.41173
1.4166
1.42504
1.43143
1.43488
1.43413
1.43193
1.43066
1.43216
1.4336
1.4341
1.43306
1.42964
1.42467
1.42084
1.41414
1.39962
1.38354
1.37058
1.36241
1.35536
1.34652
1.33487
1.32199
1.31031
1.30123
1.29477
1.29024
1.28685
1.28404
1.28143
1.27881
1.27603
1.27305
1.26984
1.2664
1.26278
1.25899
1.25509
1.2511
1.24706
1.24299
1.23892
1.23486
1.23085
1.2269
1.22308
1.2194
1.40886
1.41181
1.41387
1.41929
1.42799
1.43451
1.43824
1.43735
1.43458
1.43363
1.43622
1.43883
1.44026
1.44011
1.43737
1.43236
1.42771
1.4205
1.40658
1.39106
1.37765
1.36869
1.36104
1.35203
1.3402
1.32685
1.31438
1.3044
1.29717
1.29209
1.28838
1.2854
1.2827
1.28001
1.27717
1.27411
1.27079
1.26722
1.26342
1.25945
1.25533
1.25111
1.24683
1.24252
1.23821
1.23393
1.22969
1.22554
1.22156
1.21778
1.41041
1.414
1.41663
1.42259
1.43139
1.43795
1.44198
1.44101
1.43778
1.4373
1.44105
1.44482
1.44722
1.44797
1.44597
1.44092
1.43533
1.4275
1.41417
1.39918
1.38551
1.3758
1.36754
1.35833
1.3464
1.33269
1.31947
1.30853
1.30039
1.29462
1.29045
1.28717
1.2843
1.28149
1.27854
1.27536
1.2719
1.26817
1.26418
1.25999
1.25563
1.25116
1.24662
1.24206
1.2375
1.23298
1.22853
1.22415
1.21999
1.2161
1.4122
1.41661
1.42002
1.4265
1.43526
1.44179
1.44615
1.44521
1.44176
1.44192
1.4468
1.45168
1.45503
1.45663
1.45537
1.45027
1.44376
1.43527
1.42245
1.40791
1.39407
1.38371
1.37487
1.36544
1.35349
1.33955
1.32566
1.31374
1.30458
1.29794
1.29313
1.28943
1.28627
1.28325
1.28014
1.2768
1.27317
1.26924
1.26505
1.26062
1.25602
1.25129
1.24648
1.24165
1.23682
1.23205
1.22735
1.22274
1.21832
1.21425
1.41421
1.41959
1.42399
1.43097
1.43959
1.44608
1.45081
1.4501
1.44676
1.44769
1.45362
1.45948
1.46372
1.46608
1.4655
1.46035
1.45304
1.44393
1.43153
1.41725
1.40325
1.39237
1.38301
1.37337
1.36147
1.34743
1.33299
1.32012
1.30985
1.30218
1.29655
1.29224
1.28865
1.28532
1.28196
1.2784
1.27457
1.27043
1.26601
1.26135
1.2565
1.25152
1.24645
1.24136
1.23627
1.23124
1.22627
1.2214
1.21671
1.21235
1.41644
1.42289
1.42844
1.43592
1.44437
1.45088
1.45602
1.4558
1.45294
1.45475
1.46159
1.46828
1.4733
1.47632
1.47631
1.47113
1.4632
1.4536
1.44145
1.42721
1.41301
1.40171
1.39191
1.38209
1.3703
1.35628
1.34145
1.32771
1.31629
1.30746
1.30081
1.2957
1.29151
1.28773
1.28403
1.28019
1.2761
1.27173
1.26708
1.26219
1.25711
1.25189
1.24659
1.24125
1.23591
1.23061
1.22536
1.2202
1.21519
1.21051
1.41888
1.42645
1.43324
1.44125
1.44959
1.45627
1.4619
1.46242
1.46031
1.46312
1.47073
1.47811
1.48378
1.48731
1.48775
1.48259
1.47429
1.46434
1.45229
1.43783
1.42332
1.41165
1.40149
1.39153
1.37987
1.36599
1.35093
1.33646
1.32392
1.31384
1.30601
1.29992
1.29494
1.29056
1.28639
1.28218
1.27778
1.27314
1.26825
1.26313
1.25783
1.25239
1.24686
1.24128
1.23569
1.23011
1.22457
1.21909
1.21375
1.20873
1.42154
1.4302
1.43823
1.44683
1.45524
1.46231
1.46855
1.46991
1.46894
1.47276
1.48105
1.48893
1.49513
1.49907
1.49983
1.49475
1.48634
1.47621
1.46407
1.44913
1.43419
1.42215
1.41166
1.40157
1.39008
1.37641
1.3613
1.34626
1.33271
1.32136
1.31224
1.30499
1.29904
1.29389
1.28912
1.28444
1.27967
1.27471
1.26955
1.26418
1.25864
1.25297
1.2472
1.24138
1.23552
1.22966
1.22381
1.218
1.21233
1.20698
1.42443
1.43408
1.44327
1.45253
1.46127
1.46902
1.47596
1.47834
1.47866
1.48353
1.4924
1.50069
1.50736
1.51161
1.51257
1.50767
1.49938
1.4892
1.4768
1.46116
1.44564
1.43317
1.42235
1.41212
1.40076
1.38736
1.37233
1.35693
1.34253
1.32997
1.31953
1.31099
1.30393
1.29786
1.29235
1.28708
1.28184
1.2765
1.27101
1.26535
1.25954
1.25361
1.24757
1.24146
1.23531
1.22914
1.22298
1.21686
1.21086
1.20522
1.42753
1.43804
1.44823
1.45824
1.46763
1.47637
1.48409
1.48758
1.48935
1.49527
1.50464
1.51333
1.52042
1.52495
1.52606
1.52143
1.51345
1.50331
1.4905
1.47397
1.4577
1.4447
1.43348
1.42304
1.41176
1.39864
1.3838
1.36823
1.35317
1.33955
1.32782
1.31796
1.30968
1.30256
1.29618
1.2902
1.28439
1.27859
1.2727
1.26668
1.26054
1.25428
1.24791
1.24148
1.23499
1.2285
1.22202
1.21559
1.20931
1.20342
1.43078
1.44204
1.45305
1.46388
1.47425
1.48429
1.49288
1.4975
1.50079
1.50778
1.51766
1.52678
1.53431
1.53914
1.5404
1.53614
1.52858
1.5185
1.50517
1.48761
1.47043
1.45676
1.44501
1.43426
1.42295
1.41005
1.39546
1.37989
1.36439
1.3499
1.337
1.32586
1.31631
1.30804
1.30068
1.29389
1.28741
1.28103
1.27466
1.2682
1.26165
1.25498
1.24823
1.24142
1.23457
1.22773
1.22094
1.21423
1.20769
1.20159
1.43415
1.44606
1.45768
1.46937
1.48103
1.49267
1.50222
1.50796
1.51275
1.52084
1.53131
1.54097
1.54901
1.55421
1.5557
1.55189
1.5448
1.53479
1.52084
1.50211
1.48386
1.46934
1.45692
1.4457
1.43422
1.42144
1.4071
1.39163
1.37589
1.36075
1.34687
1.33453
1.32374
1.31429
1.30587
1.29816
1.29089
1.28385
1.27689
1.26991
1.26286
1.25575
1.24857
1.24134
1.23412
1.22694
1.21983
1.21285
1.20606
1.19975
1.4376
1.45008
1.46212
1.47469
1.48791
1.50136
1.51197
1.51878
1.52505
1.5343
1.5455
1.55585
1.56453
1.57024
1.57209
1.56879
1.56217
1.5522
1.53755
1.51753
1.498
1.48244
1.46915
1.45729
1.44548
1.43269
1.41853
1.40323
1.3874
1.37183
1.35716
1.34378
1.33183
1.3212
1.31167
1.30296
1.29481
1.28699
1.27935
1.27176
1.26417
1.25656
1.24893
1.24131
1.23372
1.22621
1.21881
1.21155
1.20448
1.1979
1.44107
1.45405
1.46638
1.47982
1.49482
1.51022
1.52195
1.52983
1.53753
1.54802
1.56014
1.57137
1.58088
1.58728
1.58966
1.58696
1.58077
1.57082
1.55541
1.53393
1.51287
1.49603
1.48169
1.469
1.45667
1.44371
1.42964
1.4145
1.39869
1.38286
1.36759
1.35336
1.34036
1.3286
1.31795
1.30818
1.29906
1.29038
1.28197
1.27372
1.26554
1.25741
1.24934
1.24132
1.23339
1.22557
1.21788
1.21033
1.20296
1.19605
1.44445
1.45791
1.47045
1.48479
1.50168
1.51908
1.532
1.54097
1.5501
1.56193
1.57518
1.58752
1.59806
1.60539
1.60851
1.60648
1.60071
1.59076
1.57455
1.5514
1.52849
1.5101
1.49446
1.48076
1.46774
1.45444
1.44034
1.4253
1.40956
1.39358
1.3779
1.36298
1.34907
1.33628
1.32454
1.3137
1.30357
1.29396
1.28472
1.27575
1.26695
1.2583
1.24977
1.24137
1.23311
1.22498
1.21699
1.20913
1.20142
1.19419
1.44762
1.46157
1.47433
1.4896
1.50844
1.52781
1.542
1.5521
1.56268
1.576
1.5906
1.60428
1.61611
1.6246
1.62869
1.62744
1.62212
1.61221
1.59515
1.57009
1.54493
1.52464
1.50743
1.4925
1.47861
1.46481
1.45053
1.43551
1.41982
1.40378
1.38783
1.37237
1.35771
1.344
1.33125
1.31936
1.30822
1.29767
1.28758
1.27786
1.26843
1.25924
1.25025
1.24145
1.23283
1.22435
1.21603
1.20785
1.19983
1.19229
1.45048
1.46494
1.47798
1.49426
1.51505
1.5363
1.55181
1.56315
1.57524
1.59019
1.60638
1.62167
1.63503
1.64496
1.65024
1.64993
1.64515
1.63535
1.61743
1.59019
1.56233
1.53972
1.52059
1.50418
1.48923
1.47475
1.46013
1.44502
1.42933
1.41325
1.39711
1.38126
1.366
1.35151
1.33786
1.32502
1.31292
1.30146
1.29055
1.28009
1.27002
1.26028
1.25081
1.24157
1.23254
1.22368
1.21499
1.20647
1.19816
1.19035
1.45293
1.46792
1.48135
1.49876
1.52147
1.54446
1.56134
1.57405
1.58776
1.6045
1.62253
1.63969
1.65486
1.66647
1.67321
1.67402
1.66996
1.66041
1.64166
1.61201
1.58095
1.55551
1.53402
1.51581
1.49955
1.4842
1.46907
1.45372
1.43795
1.42182
1.40554
1.3894
1.37367
1.35855
1.34414
1.33048
1.31754
1.30526
1.29358
1.28242
1.27172
1.26142
1.25144
1.24173
1.23226
1.22299
1.21393
1.20508
1.19649
1.18842
1.45488
1.4704
1.4844
1.50308
1.52766
1.55223
1.57053
1.58475
1.60022
1.61892
1.63904
1.65834
1.6756
1.68917
1.69761
1.69981
1.6967
1.68762
1.66815
1.63593
1.60119
1.57235
1.54794
1.5275
1.50961
1.49313
1.47729
1.46154
1.44559
1.42935
1.41295
1.39659
1.38051
1.36491
1.3499
1.33557
1.32193
1.30895
1.29659
1.28479
1.27349
1.26261
1.2521
1.2419
1.23198
1.22231
1.2129
1.20374
1.19487
1.18654
1.45626
1.47232
1.48705
1.5072
1.53358
1.55957
1.57932
1.59519
1.61257
1.63344
1.65589
1.67761
1.69725
1.71307
1.72348
1.72736
1.72553
1.7172
1.69721
1.66241
1.6236
1.59075
1.56277
1.53953
1.51958
1.50166
1.48484
1.4685
1.45221
1.43579
1.41925
1.40273
1.3864
1.37044
1.355
1.34016
1.32597
1.31241
1.29948
1.28711
1.27524
1.26381
1.25277
1.24208
1.23172
1.22166
1.21191
1.20247
1.19331
1.18471
1.45697
1.47362
1.48927
1.5111
1.53919
1.56645
1.58766
1.60531
1.62478
1.648
1.67303
1.69747
1.7198
1.73817
1.75087
1.75677
1.75657
1.74933
1.72915
1.69196
1.64884
1.61142
1.57913
1.55238
1.52981
1.50999
1.49188
1.47469
1.4579
1.44119
1.42448
1.4078
1.3913
1.37511
1.35937
1.34417
1.32956
1.31555
1.30214
1.28927
1.2769
1.26497
1.25344
1.24229
1.23151
1.22109
1.21101
1.20126
1.19181
1.18294
1.45705
1.47427
1.49109
1.51467
1.54434
1.57288
1.59554
1.61506
1.63676
1.66254
1.69041
1.71787
1.74323
1.7645
1.77983
1.78811
1.78993
1.78417
1.76425
1.72507
1.67764
1.63519
1.59783
1.56676
1.54083
1.51854
1.49869
1.48034
1.46281
1.44567
1.42871
1.41188
1.39525
1.37892
1.363
1.34755
1.33264
1.31829
1.30449
1.29121
1.2784
1.26604
1.2541
1.24256
1.23141
1.22064
1.21023
1.20015
1.19038
1.18125
1.45657
1.47434
1.49255
1.51778
1.54892
1.57878
1.60296
1.62439
1.6484
1.67694
1.70793
1.73876
1.76751
1.79207
1.8104
1.82142
1.82564
1.82177
1.80268
1.76214
1.71068
1.66293
1.61981
1.58353
1.55337
1.52787
1.5057
1.48574
1.46716
1.44938
1.43206
1.41504
1.3983
1.38188
1.36586
1.35027
1.33516
1.32055
1.30644
1.29282
1.27967
1.26696
1.25468
1.24281
1.23135
1.22026
1.20952
1.19911
1.189
1.17964
1.45546
1.4739
1.49352
1.52034
1.55289
1.58408
1.60984
1.63321
1.65958
1.69106
1.72548
1.76004
1.7926
1.82086
1.8426
1.85673
1.8637
1.86213
1.84446
1.80339
1.74847
1.69545
1.64605
1.60367
1.56832
1.53872
1.51348
1.49134
1.47128
1.45255
1.43466
1.41733
1.40045
1.38396
1.36788
1.35223
1.33701
1.32224
1.30791
1.29403
1.2806
1.26762
1.25507
1.24294
1.2312
1.21982
1.20878
1.19807
1.18765
1.17809
1.45371
1.47291
1.49393
1.52226
1.55617
1.58869
1.61604
1.64135
1.67015
1.70477
1.74294
1.78162
1.81844
1.85084
1.87641
1.89399
1.90404
1.90513
1.8895
1.84883
1.79129
1.73333
1.6774
1.6282
1.58669
1.55199
1.52278
1.49771
1.47558
1.45547
1.43671
1.41888
1.40172
1.38511
1.36899
1.35331
1.33806
1.32321
1.30878
1.29475
1.28115
1.26797
1.25521
1.24286
1.23088
1.21925
1.20795
1.19697
1.18628
1.1766
1.45133
1.47132
1.49367
1.52344
1.55865
1.59246
1.62137
1.64861
1.67995
1.71792
1.76016
1.80336
1.84489
1.88193
1.91173
1.93314
1.94656
1.95059
1.93755
1.89822
1.83908
1.77681
1.71448
1.65801
1.60947
1.56866
1.53449
1.50559
1.48065
1.45856
1.43849
1.41983
1.40219
1.38532
1.36908
1.35336
1.33811
1.32328
1.30884
1.29479
1.28114
1.26787
1.25499
1.24248
1.23033
1.2185
1.20699
1.1958
1.18488
1.17513
1.44831
1.46902
1.49264
1.52372
1.56016
1.59522
1.62561
1.65479
1.68876
1.73031
1.77694
1.82507
1.87179
1.91396
1.94848
1.97407
1.9911
1.99832
1.98826
1.9511
1.89141
1.82572
1.75749
1.69366
1.6375
1.58966
1.54951
1.5158
1.48717
1.46236
1.44037
1.42043
1.40197
1.38461
1.3681
1.35226
1.33699
1.3222
1.30783
1.29386
1.28026
1.26703
1.25414
1.24159
1.22935
1.21742
1.20579
1.19448
1.18341
1.17365
1.44461
1.46593
1.49068
1.52295
1.5605
1.59671
1.62852
1.65964
1.69637
1.7417
1.79304
1.8465
1.89891
1.94673
1.98647
2.01662