/*--------------------------------*- C++ -*----------------------------------*\
  =========                 |
  \\      /  F ield         | OpenFOAM: The Open Source CFD Toolbox
   \\    /   O peration     | Website:  https://openfoam.org
    \\  /    A nd           | Version:  9
     \\/     M anipulation  |
\*---------------------------------------------------------------------------*/
FoamFile
{
    format      ascii;
    class       surfaceScalarField;
    location    "0.07";
    object      phi;
}
// * * * * * * * * * * * * * * * * * * * * * * * * * * * * * * * * * * * * * //

dimensions      [0 3 -1 0 0 0 0];

internalField   nonuniform List<scalar> 
9850
(
5.45362e-07
1.39344e-05
2.23343e-07
4.02807e-06
3.45678e-07
1.42092e-05
3.60006e-07
1.50953e-05
3.84803e-07
1.46093e-05
3.98676e-07
1.50815e-05
5.36576e-07
1.37787e-05
2.23655e-07
4.16013e-06
3.39124e-07
1.40624e-05
3.5076e-07
1.47789e-05
3.66036e-07
1.42295e-05
3.76469e-07
1.40965e-05
3.85657e-07
1.41331e-05
4.02851e-07
1.42964e-05
4.51905e-07
1.46992e-05
7.73912e-07
1.2481e-05
6.62417e-08
1.89357e-06
2.97245e-07
1.36011e-05
3.29291e-07
1.47229e-05
3.31909e-07
1.40852e-05
3.78724e-07
1.00599e-05
3.63102e-07
6.69497e-06
3.90854e-07
9.33122e-06
3.84344e-07
9.56762e-06
3.89621e-07
9.08926e-06
4.07497e-07
8.70826e-06
4.41918e-07
8.4731e-06
5.2621e-07
8.30246e-06
8.58671e-07
7.33541e-06
2.63313e-07
1.36568e-06
-2.9713e-08
2.29492e-06
1.97704e-07
6.37604e-06
2.71752e-07
6.30032e-06
3.08411e-07
5.72345e-06
3.31964e-07
5.17832e-06
3.48173e-07
4.7084e-06
3.5906e-07
4.3126e-06
3.65847e-07
3.9857e-06
3.69712e-07
3.71857e-06
3.71751e-07
3.49906e-06
3.72798e-07
3.31438e-06
3.73365e-07
3.15372e-06
3.73719e-07
3.00922e-06
3.73977e-07
2.87578e-06
3.74185e-07
2.7503e-06
3.74358e-07
2.63094e-06
3.74493e-07
2.51671e-06
3.74584e-07
2.40712e-06
3.74637e-07
2.30203e-06
2.20117e-06
6.57458e-07
1.37591e-05
1.17441e-07
4.56808e-06
2.80279e-07
1.40464e-05
3.3896e-07
1.50366e-05
3.96213e-07
1.4552e-05
4.5716e-07
1.50205e-05
6.35966e-07
1.35999e-05
1.11458e-07
4.68463e-06
2.61107e-07
1.39128e-05
3.09527e-07
1.47305e-05
3.49552e-07
1.41895e-05
3.78264e-07
1.40677e-05
4.04596e-07
1.41068e-05
4.53277e-07
1.42477e-05
5.69468e-07
1.4583e-05
9.04331e-07
1.21462e-05
-5.67347e-08
2.85464e-06
1.77005e-07
1.33674e-05
2.52274e-07
1.46476e-05
2.86155e-07
1.40513e-05
3.72923e-07
9.97314e-06
3.36202e-07
6.73169e-06
3.90009e-07
9.27742e-06
3.98808e-07
9.55882e-06
4.1869e-07
9.06938e-06
4.62074e-07
8.66487e-06
5.39385e-07
8.39578e-06
6.80608e-07
8.16124e-06
9.4502e-07
7.071e-06
2.07646e-07
2.10306e-06
-2.56025e-07
2.75859e-06
-2.71312e-08
6.14715e-06
1.14358e-07
6.15883e-06
1.99165e-07
5.63864e-06
2.56565e-07
5.12092e-06
2.96613e-07
4.66835e-06
3.24078e-07
4.28514e-06
3.42115e-07
3.96766e-06
3.53591e-07
3.7071e-06
3.60737e-07
3.49192e-06
3.65202e-07
3.30992e-06
3.68088e-07
3.15083e-06
3.70046e-07
3.00726e-06
3.71438e-07
2.87439e-06
3.72457e-07
2.74928e-06
3.73209e-07
2.63019e-06
3.73746e-07
2.51617e-06
3.7409e-07
2.40677e-06
3.74278e-07
2.30184e-06
2.20099e-06
7.11604e-07
1.35845e-05
7.13341e-08
5.20835e-06
2.34288e-07
1.38834e-05
3.28908e-07
1.4942e-05
4.01392e-07
1.44795e-05
4.9781e-07
1.49241e-05
6.7901e-07
1.34187e-05
5.78122e-08
5.30583e-06
2.04516e-07
1.37661e-05
2.81363e-07
1.46536e-05
3.34865e-07
1.4136e-05
3.76501e-07
1.40261e-05
4.15874e-07
1.40674e-05
4.7215e-07
1.41915e-05
6.12979e-07
1.44421e-05
9.17408e-07
1.18417e-05
-5.59098e-08
3.82795e-06
1.33845e-07
1.31776e-05
2.18447e-07
1.4563e-05
2.66465e-07
1.40033e-05
3.6935e-07
9.87025e-06
3.14607e-07
6.78643e-06
3.76351e-07
9.21567e-06
3.99113e-07
9.53606e-06
4.26082e-07
9.04241e-06
4.74043e-07
8.61691e-06
5.5021e-07
8.31962e-06
6.79495e-07
8.03196e-06
9.15421e-07
6.83507e-06
2.21742e-07
2.79674e-06
-2.69926e-07
3.25026e-06
-6.40908e-08
5.94131e-06
6.61275e-08
6.02861e-06
1.54222e-07
5.55055e-06
2.19592e-07
5.05555e-06
2.68051e-07
4.61989e-06
3.02786e-07
4.2504e-06
3.26605e-07
3.94384e-06
3.42493e-07
3.69121e-06
3.52907e-07
3.4815e-06
3.5983e-07
3.303e-06
3.64562e-07
3.1461e-06
3.67904e-07
3.00392e-06
3.70328e-07
2.87197e-06
3.7211e-07
2.74749e-06
3.73415e-07
2.62888e-06
3.74341e-07
2.51525e-06
3.7495e-07
2.40617e-06
3.75294e-07
2.3015e-06
2.20082e-06
7.29505e-07
1.34193e-05
6.27149e-08
5.87514e-06
2.11065e-07
1.37351e-05
3.25306e-07
1.48277e-05
4.00844e-07
1.4404e-05
5.18857e-07
1.48061e-05
6.89468e-07
1.3248e-05
4.23742e-08
5.95293e-06
1.74008e-07
1.36345e-05
2.65044e-07
1.45626e-05
3.23905e-07
1.40771e-05
3.72417e-07
1.39776e-05
4.16657e-07
1.40232e-05
4.66343e-07
1.41418e-05
6.15232e-07
1.42932e-05
8.88977e-07
1.1568e-05
-4.15202e-09
4.72108e-06
1.38304e-07
1.30352e-05
2.1611e-07
1.44852e-05
2.65039e-07
1.39543e-05
3.69248e-07
9.76604e-06
2.9702e-07
6.85865e-06
3.59109e-07
9.15358e-06
3.86553e-07
9.50862e-06
4.09825e-07
9.01914e-06
4.49205e-07
8.57753e-06
5.11016e-07
8.2578e-06
6.25637e-07
7.91733e-06
8.04795e-07
6.65592e-06
2.40548e-07
3.36098e-06
-1.79526e-07
3.67033e-06
-2.59087e-08
5.78769e-06
8.78146e-08
5.91489e-06
1.6454e-07
5.47382e-06
2.22987e-07
4.99711e-06
2.68142e-07
4.57474e-06
3.01707e-07
4.21684e-06
3.25645e-07
3.9199e-06
3.41944e-07
3.67491e-06
3.52993e-07
3.47045e-06
3.60581e-07
3.29541e-06
3.65929e-07
3.14075e-06
3.69806e-07
3.00004e-06
3.72676e-07
2.8691e-06
3.74817e-07
2.74535e-06
3.764e-07
2.6273e-06
3.77534e-07
2.51411e-06
3.78298e-07
2.4054e-06
3.78752e-07
2.30104e-06
2.20062e-06
7.18529e-07
1.32688e-05
7.6833e-08
6.51684e-06
2.02519e-07
1.36094e-05
3.24048e-07
1.47062e-05
3.96625e-07
1.43314e-05
5.23519e-07
1.46792e-05
6.75724e-07
1.30958e-05
5.18384e-08
6.57681e-06
1.61802e-07
1.35245e-05
2.57802e-07
1.44666e-05
3.16915e-07
1.4018e-05
3.66805e-07
1.39277e-05
4.10148e-07
1.39799e-05
4.47541e-07
1.41044e-05
5.95582e-07
1.41452e-05
8.41038e-07
1.13225e-05
6.48676e-08
5.49725e-06
1.64478e-07
1.29356e-05
2.31594e-07
1.44181e-05
2.76639e-07
1.39093e-05
3.72465e-07
9.67021e-06
2.8045e-07
6.95067e-06
3.33404e-07
9.10063e-06
3.60264e-07
9.48175e-06
3.78859e-07
9.00054e-06
4.12107e-07
8.54428e-06
4.60341e-07
8.20957e-06
5.59948e-07
7.81773e-06
6.91178e-07
6.52469e-06
2.55973e-07
3.79619e-06
-7.25251e-08
3.99883e-06
3.75642e-08
5.6776e-06
1.33323e-07
5.81913e-06
1.97741e-07
5.40941e-06
2.47105e-07
4.94774e-06
2.85897e-07
4.53595e-06
3.15167e-07
4.18757e-06
3.36201e-07
3.89887e-06
3.50785e-07
3.66033e-06
3.60815e-07
3.46043e-06
3.67815e-07
3.28841e-06
3.72829e-07
3.13574e-06
3.76522e-07
2.99635e-06
3.79296e-07
2.86633e-06
3.81392e-07
2.74326e-06
3.8296e-07
2.62573e-06
3.84099e-07
2.51297e-06
3.84882e-07
2.40462e-06
3.85362e-07
2.30056e-06
2.2004e-06
6.91139e-07
1.3133e-05
9.86632e-08
7.10931e-06
2.03652e-07
1.35044e-05
3.23658e-07
1.45862e-05
3.91448e-07
1.42636e-05
5.17605e-07
1.45531e-05
6.49669e-07
1.29638e-05
7.17582e-08
7.15472e-06
1.63076e-07
1.34332e-05
2.57149e-07
1.43725e-05
3.13641e-07
1.39615e-05
3.60955e-07
1.38804e-05
3.99835e-07
1.3941e-05
4.24026e-07
1.40802e-05
5.63366e-07
1.40059e-05
7.92141e-07
1.10938e-05
1.38349e-07
6.15104e-06
2.02997e-07
1.28709e-05
2.55797e-07
1.43653e-05
2.95084e-07
1.387e-05
3.76795e-07
9.5885e-06
2.64025e-07
7.06344e-06
3.03085e-07
9.06157e-06
3.30109e-07
9.45473e-06
3.49316e-07
8.98133e-06
3.76569e-07
8.51703e-06
4.11985e-07
8.17415e-06
5.01598e-07
7.72811e-06
6.05826e-07
6.42046e-06
2.72896e-07
4.12912e-06
1.90036e-08
4.25272e-06
1.02357e-07
5.59425e-06
1.83424e-07
5.73806e-06
2.37458e-07
5.35537e-06
2.78761e-07
4.90644e-06
3.1138e-07
4.50333e-06
3.36001e-07
4.16295e-06
3.53638e-07
3.88123e-06
3.65878e-07
3.64809e-06
3.74308e-07
3.452e-06
3.80198e-07
3.28252e-06
3.84442e-07
3.13149e-06
3.87595e-07
2.9932e-06
3.89987e-07
2.86394e-06
3.91817e-07
2.74143e-06
3.93205e-07
2.62434e-06
3.94234e-07
2.51194e-06
3.9496e-07
2.40389e-06
3.95422e-07
2.3001e-06
2.20018e-06
6.57044e-07
1.30102e-05
1.21295e-07
7.64506e-06
2.10788e-07
1.34149e-05
3.24655e-07
1.44723e-05
3.87518e-07
1.42008e-05
5.07781e-07
1.44328e-05
6.20299e-07
1.28513e-05
9.54447e-08
7.67958e-06
1.73902e-07
1.33547e-05
2.62064e-07
1.42843e-05
3.13893e-07
1.39097e-05
3.56239e-07
1.3838e-05
3.88858e-07
1.39084e-05
3.99782e-07
1.40693e-05
5.2919e-07
1.38765e-05
7.53373e-07
1.08696e-05
2.10938e-07
6.69348e-06
2.45903e-07
1.28359e-05
2.82005e-07
1.43292e-05
3.14491e-07
1.38375e-05
3.80532e-07
9.52246e-06
2.49182e-07
7.19479e-06
2.72985e-07
9.03776e-06
2.9882e-07
9.4289e-06
3.15988e-07
8.96417e-06
3.3617e-07
8.49685e-06
3.68504e-07
8.14182e-06
4.55547e-07
7.64107e-06
5.44737e-07
6.33127e-06
2.91121e-07
4.38273e-06
9.35556e-08
4.45029e-06
1.60659e-07
5.52715e-06
2.32044e-07
5.66668e-06
2.78702e-07
5.30871e-06
3.13457e-07
4.87168e-06
3.40568e-07
4.47622e-06
3.60857e-07
4.14266e-06
3.75241e-07
3.86685e-06
3.85101e-07
3.63823e-06
3.91814e-07
3.44528e-06
3.96473e-07
3.27786e-06
3.99816e-07
3.12815e-06
4.02304e-07
2.99071e-06
4.04207e-07
2.86203e-06
4.05684e-07
2.73995e-06
4.06828e-07
2.6232e-06
4.07701e-07
2.51107e-06
4.08343e-07
2.40325e-06
4.0877e-07
2.29967e-06
2.19997e-06
6.21364e-07
1.2899e-05
1.42669e-07
8.12376e-06
2.20934e-07
1.33366e-05
3.27376e-07
1.43659e-05
3.85616e-07
1.41425e-05
4.98369e-07
1.432e-05
5.92451e-07
1.27572e-05
1.20927e-07
8.1511e-06
1.90819e-07
1.32848e-05
2.7181e-07
1.42034e-05
3.17518e-07
1.3864e-05
3.53369e-07
1.38022e-05
3.7844e-07
1.38833e-05
3.78299e-07
1.40694e-05
5.00323e-07
1.37544e-05
7.25784e-07
1.06441e-05
2.76314e-07
7.14295e-06
2.84618e-07
1.28276e-05
3.04918e-07
1.43089e-05
3.31323e-07
1.38111e-05
3.80737e-07
9.47305e-06
2.36114e-07
7.33941e-06
2.4476e-07
9.02912e-06
2.68343e-07
9.40531e-06
2.84141e-07
8.94837e-06
3.01382e-07
8.47961e-06
3.34147e-07
8.10906e-06
4.19313e-07
7.55591e-06
4.99222e-07
6.25136e-06
3.0706e-07
4.5749e-06
1.54052e-07
4.60329e-06
2.10774e-07
5.47043e-06
2.76822e-07
5.60063e-06
3.19246e-07
5.26629e-06
3.49246e-07
4.84168e-06
3.71841e-07
4.45362e-06
3.88267e-07
4.12623e-06
3.99662e-07
3.85545e-06
4.07286e-07
3.6306e-06
4.1234e-07
3.44023e-06
4.15761e-07
3.27444e-06
4.18177e-07
3.12573e-06
4.19968e-07
2.98892e-06
4.21351e-07
2.86065e-06
4.22446e-07
2.73886e-06
4.23323e-07
2.62232e-06
4.24021e-07
2.51037e-06
4.24563e-07
2.40271e-06
4.24947e-07
2.29929e-06
2.19977e-06
5.86348e-07
1.27985e-05
1.62209e-07
8.54789e-06
2.32367e-07
1.32665e-05
3.31568e-07
1.42667e-05
3.85334e-07
1.40888e-05
4.90535e-07
1.42148e-05
5.6781e-07
1.26799e-05
1.47399e-07
8.57151e-06
2.11502e-07
1.32207e-05
2.85467e-07
1.41294e-05
3.24235e-07
1.38252e-05
3.52655e-07
1.37738e-05
3.67996e-07
1.38679e-05
3.63051e-07
1.40743e-05
4.78322e-07
1.36392e-05
7.03902e-07
1.04185e-05
3.27961e-07
7.51889e-06
3.12848e-07
1.28428e-05
3.20772e-07
1.4301e-05
3.43696e-07
1.37882e-05
3.77364e-07
9.43938e-06
2.24525e-07
7.49225e-06
2.19322e-07
9.03432e-06
2.40209e-07
9.38443e-06
2.54141e-07
8.93444e-06
2.681e-07
8.46565e-06
3.01164e-07
8.07599e-06
3.88693e-07
7.46838e-06
4.62369e-07
6.17768e-06
3.17891e-07
4.71937e-06
2.0178e-07
4.71941e-06
2.52836e-07
5.41937e-06
3.16615e-07
5.53685e-06
3.57284e-07
5.22562e-06
3.84273e-07
4.81469e-06
4.0339e-07
4.4345e-06
4.16762e-07
4.11286e-06
4.25649e-07
3.84657e-06
4.31321e-07
3.62493e-06
4.34888e-07
3.43666e-06
4.37177e-07
3.27215e-06
4.38727e-07
3.12418e-06
4.39856e-07
2.98779e-06
4.40737e-07
2.85977e-06
4.4146e-07
2.73813e-06
4.42072e-07
2.62171e-06
4.42594e-07
2.50985e-06
4.43033e-07
2.40227e-06
4.43367e-07
2.29896e-06
2.19958e-06
5.5308e-07
1.2707e-05
1.80295e-07
8.92068e-06
2.44659e-07
1.32021e-05
3.36779e-07
1.41745e-05
3.8582e-07
1.40397e-05
4.83515e-07
1.41172e-05
5.46394e-07
1.2617e-05
1.7456e-07
8.94335e-06
2.34782e-07
1.31605e-05
3.02099e-07
1.40621e-05
3.33671e-07
1.37936e-05
3.54489e-07
1.3753e-05
3.59508e-07
1.38629e-05
3.51854e-07
1.4082e-05
4.61261e-07
1.35298e-05
6.80922e-07
1.01989e-05
3.62278e-07
7.83754e-06
3.28153e-07
1.28769e-05
3.27661e-07
1.43015e-05
3.50467e-07
1.37654e-05
3.7098e-07
9.41887e-06
2.14154e-07
7.64908e-06
1.97352e-07
9.05113e-06
2.15119e-07
9.36666e-06
2.268e-07
8.92276e-06
2.38206e-07
8.45424e-06
2.72129e-07
8.04207e-06
3.59862e-07
7.38064e-06
4.298e-07
6.10774e-06
3.22959e-07
4.82621e-06
2.38786e-07
4.80358e-06
2.88225e-07
5.36993e-06
3.5169e-07
5.47338e-06
3.92357e-07
5.18495e-06
4.17633e-07
4.78942e-06
4.34298e-07
4.41784e-06
4.45247e-07
4.10191e-06
4.52124e-07
3.83969e-06
4.56204e-07
3.62085e-06
4.58535e-07
3.43433e-06
4.59867e-07
3.27082e-06
4.60674e-07
3.12337e-06
4.61228e-07
2.98724e-06
4.61669e-07
2.85933e-06
4.62064e-07
2.73774e-06
4.62441e-07
2.62133e-06
4.62807e-07
2.50948e-06
4.6315e-07
2.40193e-06
4.63438e-07
2.29867e-06
2.1994e-06
5.22048e-07
1.26226e-05
1.97799e-07
9.24493e-06
2.57973e-07
1.31419e-05
3.42665e-07
1.40899e-05
3.86424e-07
1.3996e-05
4.7636e-07
1.40272e-05
5.27841e-07
1.25655e-05
2.02423e-07
9.26877e-06
2.60063e-07
1.31029e-05
3.21048e-07
1.40011e-05
3.45468e-07
1.37692e-05
3.59666e-07
1.37388e-05
3.56049e-07
1.38665e-05
3.4405e-07
1.4094e-05
4.47819e-07
1.3426e-05
6.52443e-07
9.99426e-06
3.76863e-07
8.11312e-06
3.30997e-07
1.29227e-05
3.25839e-07
1.43066e-05
3.51329e-07
1.37399e-05
3.60806e-07
9.40939e-06
2.04664e-07
7.80522e-06
1.79333e-07
9.07646e-06
1.93942e-07
9.35205e-06
2.03527e-07
8.91317e-06
2.13471e-07
8.4443e-06
2.49202e-07
8.00634e-06
3.36768e-07
7.29308e-06
4.01916e-07
6.0426e-06
3.24681e-07
4.90345e-06
2.68396e-07
4.85986e-06
3.19149e-07
5.31917e-06
3.83194e-07
5.40934e-06
4.24644e-07
5.1435e-06
4.49089e-07
4.76497e-06
4.64013e-07
4.40291e-06
4.73147e-07
4.09278e-06
4.78444e-07
3.83439e-06
4.81261e-07
3.61803e-06
4.82606e-07
3.43298e-06
4.8317e-07
3.27025e-06
4.8338e-07
3.12316e-06
4.8347e-07
2.98715e-06
4.83555e-07
2.85924e-06
4.83685e-07
2.73761e-06
4.83873e-07
2.62115e-06
4.84113e-07
2.50924e-06
4.84381e-07
2.40166e-06
4.84631e-07
2.29842e-06
2.19924e-06
4.93574e-07
1.25437e-05
2.15248e-07
9.52325e-06
2.72299e-07
1.30849e-05
3.49074e-07
1.40131e-05
3.8789e-07
1.39572e-05
4.69023e-07
1.39461e-05
5.12118e-07
1.25224e-05
2.30801e-07
9.55008e-06
2.86624e-07
1.3047e-05
3.42035e-07
1.39457e-05
3.59097e-07
1.37522e-05
3.68804e-07
1.37291e-05
3.57859e-07
1.38775e-05
3.42753e-07
1.41091e-05
4.38785e-07
1.333e-05
6.18373e-07
9.81467e-06
3.7313e-07
8.35836e-06
3.23375e-07
1.29725e-05
3.1715e-07
1.43129e-05
3.46898e-07
1.37102e-05
3.47993e-07
9.4083e-06
1.96177e-07
7.95704e-06
1.65622e-07
9.10701e-06
1.7743e-07
9.34025e-06
1.85397e-07
8.90521e-06
1.95183e-07
8.43451e-06
2.33694e-07
7.96783e-06
3.20155e-07
7.20662e-06
3.7976e-07
5.98299e-06
3.26611e-07
4.9566e-06
2.94007e-07
4.89247e-06
3.4754e-07
5.26564e-06
4.12461e-07
5.34442e-06
4.54919e-07
5.10104e-06
4.78963e-07
4.74093e-06
4.92602e-07
4.38928e-06
5.00291e-07
4.08509e-06
5.04322e-07
3.83036e-06
5.06129e-07
3.61623e-06
5.06692e-07
3.43242e-06
5.06653e-07
3.27029e-06
5.06397e-07
3.12342e-06
5.06127e-07
2.98742e-06
5.05941e-07
2.85943e-06
5.05871e-07
2.73768e-06
5.05918e-07
2.6211e-06
5.06066e-07
2.5091e-06
5.0628e-07
2.40144e-06
5.06505e-07
2.29819e-06
2.19909e-06
4.68294e-07
1.24698e-05
2.32501e-07
9.75905e-06
2.87109e-07
1.30303e-05
3.55978e-07
1.39442e-05
3.89988e-07
1.39231e-05
4.62287e-07
1.38738e-05
4.99505e-07
1.24852e-05
2.59008e-07
9.79058e-06
3.13441e-07
1.29926e-05
3.66282e-07
1.38928e-05
3.73847e-07
1.37446e-05
3.80292e-07
1.37226e-05
3.66458e-07
1.38913e-05
3.49889e-07
1.41257e-05
4.36291e-07
1.32436e-05
5.82714e-07
9.66825e-06
3.60343e-07
8.58073e-06
3.08943e-07
1.30239e-05
3.04111e-07
1.43177e-05
3.38464e-07
1.36758e-05
3.33588e-07
9.41317e-06
1.89014e-07
8.10161e-06
1.56248e-07
9.13978e-06
1.65787e-07
9.33071e-06
1.72702e-07
8.89829e-06
1.83632e-07
8.42358e-06
2.25702e-07
7.92576e-06
3.1072e-07
7.1216e-06
3.6631e-07
5.9274e-06
3.31533e-07
4.99138e-06
3.17855e-07
4.90615e-06
3.74268e-07
5.20923e-06
4.40042e-07
5.27865e-06
4.8351e-07
5.05758e-06
5.0744e-07
4.717e-06
5.2012e-07
4.3766e-06
5.26639e-07
4.07857e-06
5.29632e-07
3.82737e-06
5.30616e-07
3.61524e-06
5.30552e-07
3.43249e-06
5.30039e-07
3.27081e-06
5.29423e-07
3.12404e-06
5.28882e-07
2.98796e-06
5.28494e-07
2.85982e-06
5.28279e-07
2.73789e-06
5.28227e-07
2.62115e-06
5.28312e-07
2.50901e-06
5.28489e-07
2.40127e-06
5.28697e-07
2.29798e-06
2.19894e-06
4.46941e-07
1.24012e-05
2.48943e-07
9.95704e-06
3.01609e-07
1.29776e-05
3.63689e-07
1.38821e-05
3.92744e-07
1.38941e-05
4.57114e-07
1.38094e-05
4.9019e-07
1.24521e-05
2.85959e-07
9.99481e-06
3.38904e-07
1.29397e-05
3.85195e-07
1.38465e-05
3.93905e-07
1.37359e-05
3.95678e-07
1.37208e-05
3.80082e-07
1.39069e-05
3.6504e-07
1.41407e-05
4.42125e-07
1.31665e-05
5.50374e-07
9.56e-06
3.43887e-07
8.78722e-06
2.91306e-07
1.30765e-05
2.89084e-07
1.43199e-05
3.27643e-07
1.36373e-05
3.18719e-07
9.4221e-06
1.8345e-07
8.23688e-06
1.50866e-07
9.17236e-06
1.58722e-07
9.32285e-06
1.65145e-07
8.89187e-06
1.78245e-07
8.41048e-06
2.24203e-07
7.8798e-06
3.07336e-07
7.03847e-06
3.59179e-07
5.87556e-06
3.39502e-07
5.01105e-06
3.40618e-07
4.90503e-06
3.9957e-07
5.15028e-06
4.65846e-07
5.21237e-06
5.10303e-07
5.01312e-06
5.34427e-07
4.69288e-06
5.4649e-07
4.36453e-06
5.52113e-07
4.07294e-06
5.54274e-07
3.82521e-06
5.54595e-07
3.61492e-06
5.54032e-07
3.43305e-06
5.53149e-07
3.27169e-06
5.52259e-07
3.12493e-06
5.51516e-07
2.9887e-06
5.50983e-07
2.86035e-06
5.50667e-07
2.73821e-06
5.50551e-07
2.62127e-06
5.50596e-07
2.50897e-06
5.50751e-07
2.40111e-06
5.50946e-07
2.29779e-06
2.19879e-06
4.29662e-07
1.23344e-05
2.63854e-07
1.01229e-05
3.15078e-07
1.29264e-05
3.70504e-07
1.38267e-05
3.96453e-07
1.38681e-05
4.54108e-07
1.37518e-05
4.8411e-07
1.24221e-05
3.1102e-07
1.01679e-05
3.62016e-07
1.28887e-05
4.05241e-07
1.38033e-05
4.12973e-07
1.37282e-05
4.13798e-07
1.372e-05
4.00619e-07
1.39201e-05
3.93935e-07
1.41474e-05
4.57362e-07
1.3103e-05
5.24975e-07
9.49239e-06
3.26196e-07
8.986e-06
2.72809e-07
1.31299e-05
2.73697e-07
1.4319e-05
3.15866e-07
1.35951e-05
3.04434e-07
9.43353e-06
1.79677e-07
8.36164e-06
1.48957e-07
9.20308e-06
1.55719e-07
9.31609e-06
1.62142e-07
8.88544e-06
1.77975e-07
8.39465e-06
2.27618e-07
7.83016e-06
3.08701e-07
6.95738e-06
3.57907e-07
5.82635e-06
3.49999e-07
5.01896e-06
3.62086e-07
4.89295e-06
4.22616e-07
5.08975e-06
4.89352e-07
5.14563e-06
5.34984e-07
4.96749e-06
5.59719e-07
4.66814e-06
5.71587e-07
4.35266e-06
5.76632e-07
4.0679e-06
5.78182e-07
3.82366e-06
5.77997e-07
3.6151e-06
5.7705e-07
3.434e-06
5.75884e-07
3.27286e-06
5.74789e-07
3.12602e-06
5.739e-07
2.98959e-06
5.73267e-07
2.86098e-06
5.72888e-07
2.73859e-06
5.72736e-07
2.62142e-06
5.72767e-07
2.50894e-06
5.72921e-07
2.40096e-06
5.73125e-07
2.29759e-06
2.19863e-06
4.16625e-07
1.22708e-05
2.77084e-07
1.02624e-05
3.27296e-07
1.28762e-05
3.77299e-07
1.37767e-05
4.01042e-07
1.38444e-05
4.53317e-07
1.36995e-05
4.8104e-07
1.23944e-05
3.34307e-07
1.03146e-05
3.87245e-07
1.28357e-05
4.25937e-07
1.37646e-05
4.33049e-07
1.3721e-05
4.34161e-07
1.37189e-05
4.25696e-07
1.39286e-05
4.26462e-07
1.41466e-05
4.79719e-07
1.30498e-05
5.07846e-07
9.46426e-06
3.09828e-07
9.18401e-06
2.54994e-07
1.31847e-05
2.58892e-07
1.43151e-05
3.04184e-07
1.35498e-05
2.91499e-07
9.44621e-06
1.77815e-07
8.47532e-06
1.50009e-07
9.23089e-06
1.56219e-07
9.30988e-06
1.63046e-07
8.87862e-06
1.81784e-07
8.37591e-06
2.34561e-07
7.77738e-06
3.13454e-07
6.87849e-06
3.60823e-07
5.77898e-06
3.62173e-07
5.01761e-06
3.82142e-07
4.87298e-06
4.43517e-07
5.02837e-06
5.10523e-07
5.07863e-06
5.5748e-07
4.92053e-06
5.8326e-07
4.64236e-06
5.95387e-07
4.34054e-06
6.002e-07
4.06309e-06
6.01369e-07
3.82249e-06
6.00828e-07
3.61565e-06
5.99598e-07
3.43523e-06
5.98221e-07
3.27423e-06
5.96974e-07
3.12727e-06
5.95979e-07
2.99058e-06
5.95275e-07
2.86169e-06
5.94855e-07
2.73901e-06
5.94686e-07
2.62159e-06
5.94721e-07
2.5089e-06
5.94905e-07
2.40077e-06
5.95156e-07
2.29733e-06
2.19843e-06
4.07303e-07
1.22121e-05
2.88935e-07
1.03808e-05
3.38354e-07
1.28268e-05
3.83059e-07
1.3732e-05
4.06304e-07
1.38212e-05
4.54338e-07
1.36514e-05
4.8028e-07
1.23685e-05
3.55767e-07
1.04391e-05
4.09655e-07
1.27818e-05
4.46019e-07
1.37283e-05
4.53151e-07
1.37139e-05
4.5542e-07
1.37166e-05
4.52659e-07
1.39313e-05
4.60827e-07
1.41385e-05
5.06141e-07
1.30045e-05
4.97982e-07
9.47242e-06
2.9602e-07
9.38598e-06
2.3851e-07
1.32422e-05
2.45126e-07
1.43085e-05
2.93255e-07
1.35017e-05
2.80341e-07
9.45913e-06
1.7789e-07
8.57777e-06
1.53608e-07
9.25517e-06
1.59726e-07
9.30376e-06
1.67262e-07
8.87108e-06
1.88822e-07
8.35435e-06
2.44047e-07
7.72215e-06
3.20678e-07
6.80186e-06
3.66818e-07
5.73284e-06
3.75394e-07
5.00904e-06
4.00962e-07
4.84741e-06
4.6246e-07
4.96687e-06
5.29528e-07
5.01156e-06
5.77922e-07
4.87214e-06
6.05138e-07
4.61514e-06
6.17968e-07
4.32771e-06
6.22892e-07
4.05816e-06
6.23906e-07
3.82147e-06
6.23148e-07
3.6164e-06
6.2172e-07
3.43666e-06
6.20185e-07
3.27577e-06
6.18818e-07
3.12864e-06
6.17737e-07
2.99166e-06
6.16974e-07
2.86245e-06
6.16516e-07
2.73947e-06
6.16329e-07
2.62178e-06
6.1637e-07
2.50886e-06
6.1659e-07
2.40055e-06
6.16907e-07
2.29702e-06
2.19817e-06
4.009e-07
1.21592e-05
2.99734e-07
1.04819e-05
3.48476e-07
1.2778e-05
3.89274e-07
1.36912e-05
4.1207e-07
1.37984e-05
4.56608e-07
1.36069e-05
4.80991e-07
1.23441e-05
3.75736e-07
1.05444e-05
4.28955e-07
1.27286e-05
4.6479e-07
1.36924e-05
4.72363e-07
1.37063e-05
4.76054e-07
1.37129e-05
4.78802e-07
1.39286e-05
4.93143e-07
1.41241e-05
5.32614e-07
1.2965e-05
4.92551e-07
9.51248e-06
2.84451e-07
9.59408e-06
2.2337e-07
1.33033e-05
2.32579e-07
1.42993e-05
2.83442e-07
1.34508e-05
2.71126e-07
9.47144e-06
1.79869e-07
8.66903e-06
1.59469e-07
9.27557e-06
1.65849e-07
9.29738e-06
1.74284e-07
8.86265e-06
1.98416e-07
8.33022e-06
2.554e-07
7.66517e-06
3.29784e-07
6.72748e-06
3.75152e-07
5.68748e-06
3.89215e-07
4.99497e-06
4.18669e-07
4.81796e-06
4.79664e-07
4.90588e-06
5.46549e-07
4.94468e-06
5.96431e-07
4.82226e-06
6.25422e-07
4.58615e-06
6.39375e-07
4.31376e-06
6.44752e-07
4.05279e-06
6.45837e-07
3.82039e-06
6.44995e-07
3.61725e-06
6.43445e-07
3.43821e-06
6.41793e-07
3.27742e-06
6.40328e-07
3.1301e-06
6.3917e-07
2.99282e-06
6.38349e-07
2.86327e-06
6.37848e-07
2.73997e-06
6.37633e-07
2.62199e-06
6.37663e-07
2.50883e-06
6.37894e-07
2.40032e-06
6.38241e-07
2.29667e-06
2.19789e-06
3.9699e-07
1.21128e-05
3.09855e-07
1.05691e-05
3.57793e-07
1.27301e-05
3.96071e-07
1.36529e-05
4.18198e-07
1.37762e-05
4.59645e-07
1.35655e-05
4.82268e-07
1.23215e-05
3.89956e-07
1.06367e-05
4.45505e-07
1.26731e-05
4.81919e-07
1.3656e-05
4.90035e-07
1.36982e-05
4.94765e-07
1.37082e-05
5.01593e-07
1.39217e-05
5.20121e-07
1.41056e-05
5.55048e-07
1.29301e-05
4.87822e-07
9.57971e-06
2.73998e-07
9.8079e-06
2.09472e-07
1.33678e-05
2.21441e-07
1.42873e-05
2.7498e-07
1.33973e-05
2.63905e-07
9.48252e-06
1.8373e-07
8.7492e-06
1.67444e-07
9.29186e-06
1.7432e-07
9.29051e-06
1.83685e-07
8.85328e-06
2.09994e-07
8.30391e-06
2.68043e-07
7.60712e-06
3.40176e-07
6.65534e-06
3.85017e-07
5.64263e-06
4.03317e-07
4.97667e-06
4.35204e-07
4.78607e-06
4.95139e-07
4.84595e-06
5.61579e-07
4.87824e-06
6.12939e-07
4.7709e-06
6.43997e-07
4.5551e-06
6.59486e-07
4.29827e-06
6.65678e-07
4.0466e-06
6.67081e-07
3.81899e-06
6.66305e-07
3.61802e-06
6.64716e-07
3.4398e-06
6.62994e-07
3.27914e-06
6.61457e-07
3.13164e-06
6.60235e-07
2.99404e-06
6.59363e-07
2.86414e-06
6.58824e-07
2.74051e-06
6.5858e-07
2.62224e-06
6.5859e-07
2.50882e-06
6.58804e-07
2.40011e-06
6.59129e-07
2.29635e-06
2.19763e-06
3.95378e-07
1.20732e-05
3.19666e-07
1.06448e-05
3.66256e-07
1.26835e-05
4.03297e-07
1.36159e-05
4.24592e-07
1.37549e-05
4.63264e-07
1.35268e-05
4.84464e-07
1.23003e-05
4.04541e-07
1.07166e-05
4.60231e-07
1.26174e-05
4.97213e-07
1.3619e-05
5.05693e-07
1.36897e-05
5.1065e-07
1.37032e-05
5.19361e-07
1.3913e-05
5.39705e-07
1.40852e-05
5.70335e-07
1.28994e-05
4.80537e-07
9.66951e-06
2.63596e-07
1.00248e-05
1.9701e-07
1.34344e-05
2.12129e-07
1.42722e-05
2.68124e-07
1.33413e-05
2.5875e-07
9.49189e-06
1.89519e-07
8.81844e-06
1.77514e-07
9.30386e-06
1.84988e-07
9.28303e-06
1.95137e-07
8.84313e-06
2.23064e-07
8.27599e-06
2.8138e-07
7.54881e-06
3.51026e-07
6.5857e-06
3.95191e-07
5.59847e-06
4.16553e-07
4.95531e-06
4.49926e-07
4.7527e-06
5.08501e-07
4.78737e-06
5.74319e-07
4.81242e-06
6.27137e-07
4.71808e-06
6.60517e-07
4.52172e-06
6.77957e-07
4.28083e-06
6.85356e-07
4.0392e-06
6.87369e-07
3.81698e-06
6.86846e-07
3.61855e-06
6.85333e-07
3.44131e-06
6.83607e-07
3.28087e-06
6.8204e-07
3.13321e-06
6.80786e-07
2.9953e-06
6.7989e-07
2.86504e-06
6.79341e-07
2.74105e-06
6.79102e-07
2.62247e-06
6.79127e-07
2.5088e-06
6.79357e-07
2.39988e-06
6.79697e-07
2.29601e-06
2.19734e-06
3.95961e-07
1.20405e-05
3.29496e-07
1.07112e-05
3.74672e-07
1.26383e-05
4.10985e-07
1.35796e-05
4.31339e-07
1.37346e-05
4.67404e-07
1.34907e-05
4.87198e-07
1.22805e-05
4.17894e-07
1.07859e-05
4.73305e-07
1.2562e-05
5.10667e-07
1.35817e-05
5.19087e-07
1.36813e-05
5.23279e-07
1.36991e-05
5.31512e-07
1.39048e-05
5.51348e-07
1.40654e-05
5.76868e-07
1.28739e-05
4.68765e-07
9.77761e-06
2.52895e-07
1.02407e-05
1.86677e-07
1.35006e-05
2.05333e-07
1.42536e-05
2.63225e-07
1.32834e-05
2.5582e-07
9.4993e-06
1.97368e-07
8.87689e-06
1.8977e-07
9.31146e-06
1.9784e-07
9.27496e-06
2.08476e-07
8.8325e-06
2.37303e-07
8.24716e-06
2.94911e-07
7.4912e-06
3.61443e-07
6.51916e-06
4.04345e-07
5.55557e-06
4.27729e-07
4.93193e-06
4.62e-07
4.71842e-06
5.19192e-07
4.73018e-06
5.84336e-07
4.74727e-06
6.38583e-07
4.66383e-06
6.7449e-07
4.48581e-06
6.94268e-07
4.26105e-06
7.03289e-07
4.03018e-06
7.06245e-07
3.81402e-06
7.06209e-07
3.61858e-06
7.04921e-07
3.4426e-06
7.03287e-07
3.2825e-06
7.01748e-07
3.13475e-06
7.00499e-07
2.99655e-06
6.99604e-07
2.86593e-06
6.99063e-07
2.7416e-06
6.98841e-07
2.6227e-06
6.98889e-07
2.50875e-06
6.99152e-07
2.39962e-06
6.99549e-07
2.29561e-06
2.19697e-06
3.98499e-07
1.20145e-05
3.39776e-07
1.077e-05
3.85874e-07
1.25922e-05
4.19394e-07
1.3546e-05
4.38533e-07
1.37154e-05
4.71944e-07
1.34573e-05
4.90233e-07
1.22622e-05
4.30148e-07
1.0846e-05
4.84827e-07
1.25073e-05
5.22326e-07
1.35442e-05
5.30205e-07
1.36734e-05
5.32714e-07
1.36965e-05
5.38465e-07
1.3899e-05
5.55813e-07
1.40481e-05
5.74745e-07
1.2855e-05
4.52339e-07
9.90001e-06
2.42485e-07
1.04506e-05
1.79605e-07
1.35635e-05
2.01912e-07
1.42312e-05
2.60712e-07
1.32246e-05
2.55376e-07
9.50463e-06
2.07473e-07
8.92479e-06
2.04375e-07
9.31456e-06
2.13003e-07
9.26634e-06
2.23767e-07
8.82173e-06
2.52692e-07
8.21824e-06
3.08456e-07
7.43543e-06
3.70923e-07
6.4567e-06
4.11584e-07
5.51491e-06
4.36005e-07
4.90751e-06
4.7085e-07
4.68358e-06
5.26831e-07
4.6742e-06
5.91326e-07
4.68278e-06
6.4692e-07
4.60824e-06
6.85436e-07
4.44729e-06
7.07852e-07
4.23863e-06
7.18878e-07
4.01915e-06
7.23129e-07
3.80977e-06
7.23849e-07
3.61786e-06
7.22974e-07
3.44347e-06
7.21554e-07
3.28392e-06
7.20122e-07
3.13618e-06
7.18923e-07
2.99775e-06
7.18055e-07
2.8668e-06
7.17535e-07
2.74212e-06
7.17341e-07
2.62289e-06
7.17436e-07
2.50865e-06
7.17784e-07
2.39927e-06
7.18322e-07
2.29507e-06
2.1965e-06
4.02066e-07
1.19923e-05
3.50201e-07
1.08218e-05
3.95933e-07
1.25465e-05
4.28091e-07
1.35139e-05
4.46039e-07
1.36975e-05
4.7672e-07
1.34266e-05
4.93481e-07
1.22454e-05
4.41434e-07
1.08981e-05
4.94999e-07
1.24537e-05
5.32354e-07
1.35068e-05
5.39273e-07
1.36665e-05
5.39437e-07
1.36964e-05
5.41415e-07
1.38971e-05
5.54868e-07
1.40346e-05
5.65524e-07
1.28443e-05
4.32582e-07
1.0033e-05
2.33723e-07
1.06494e-05
1.77103e-07
1.36201e-05
2.02692e-07
1.42057e-05
2.61039e-07
1.31662e-05
2.57738e-07
9.50794e-06
2.20053e-07
8.96248e-06
2.21516e-07
9.3131e-06
2.30708e-07
9.25714e-06
2.41296e-07
8.81115e-06
2.69552e-07
8.18998e-06
3.22275e-07
7.38271e-06
3.79456e-07
6.39952e-06
4.16855e-07
5.47751e-06
4.41405e-07
4.88296e-06
4.76558e-07
4.64843e-06
5.31489e-07
4.61927e-06
5.9531e-07
4.61896e-06
6.52028e-07
4.55152e-06
6.93049e-07
4.40627e-06
7.18236e-07
4.21345e-06
7.31559e-07
4.00583e-06
7.3743e-07
3.8039e-06
7.39189e-07
3.6161e-06
7.38944e-07
3.44372e-06
7.37895e-07
3.28497e-06
7.36678e-07
3.1374e-06
7.35608e-07
2.99882e-06
7.34825e-07
2.86759e-06
7.3438e-07
2.74256e-06
7.34282e-07
2.62299e-06
7.3452e-07
2.50841e-06
7.35092e-07
2.3987e-06
7.36063e-07
2.2941e-06
2.19472e-06
4.06356e-07
1.19737e-05
3.61215e-07
1.0867e-05
4.06239e-07
1.25015e-05
4.37208e-07
1.34829e-05
4.5368e-07
1.3681e-05
4.81562e-07
1.33987e-05
4.96836e-07
1.22302e-05
4.51786e-07
1.09431e-05
5.04016e-07
1.24015e-05
5.40994e-07
1.34698e-05
5.46693e-07
1.36608e-05
5.44215e-07
1.36989e-05
5.41979e-07
1.38993e-05
5.50803e-07
1.40258e-05
5.51792e-07
1.28433e-05
4.11959e-07
1.01728e-05
2.28313e-07
1.08331e-05
1.80307e-07
1.36681e-05
2.08269e-07
1.41777e-05
2.64588e-07
1.31099e-05
2.63205e-07
9.50932e-06
2.35273e-07
8.99041e-06
2.41324e-07
9.30705e-06
2.512e-07
9.24727e-06
2.61467e-07
8.80088e-06
2.8845e-07
8.163e-06
3.37114e-07
7.33405e-06
3.87989e-07
6.34864e-06
4.21149e-07
5.44435e-06
4.44938e-07
4.85917e-06
4.79973e-07
4.61339e-06
5.33775e-07
4.56546e-06
5.9669e-07
4.55604e-06
6.54099e-07
4.49411e-06
6.97281e-07
4.36309e-06
7.2516e-07
4.18557e-06
7.40924e-07
3.99006e-06
7.48667e-07
3.79615e-06
7.51725e-07
3.61305e-06
7.5233e-07
3.44311e-06
7.51813e-07
3.28549e-06
7.50909e-07
3.1383e-06
7.49997e-07
2.99973e-06
7.49253e-07
2.86833e-06
7.48743e-07
2.74307e-06
7.48471e-07
2.62326e-06
7.48412e-07
2.50847e-06
7.4856e-07
2.39855e-06
7.49124e-07
2.29354e-06
2.19278e-06
4.11021e-07
1.19578e-05
3.73351e-07
1.09046e-05
4.16764e-07
1.2458e-05
4.4667e-07
1.3453e-05
4.61316e-07
1.36664e-05
4.8632e-07
1.33737e-05
5.00174e-07
1.22163e-05
4.61244e-07
1.0982e-05
5.12019e-07
1.23507e-05
5.4849e-07
1.34334e-05
5.52935e-07
1.36564e-05
5.47908e-07
1.37039e-05
5.41806e-07
1.39054e-05
5.4593e-07
1.40217e-05
5.36584e-07
1.28527e-05
3.93571e-07
1.03158e-05
2.27821e-07
1.09988e-05
1.89862e-07
1.37061e-05
2.18852e-07
1.41487e-05
2.71576e-07
1.30572e-05
2.71957e-07
9.50894e-06
2.53165e-07
9.0092e-06
2.63787e-07
9.29642e-06
2.74604e-07
9.23645e-06
2.84618e-07
8.79086e-06
3.09972e-07
8.13764e-06
3.53885e-07
7.29013e-06
3.97808e-07
6.30472e-06
4.26088e-07
5.41607e-06
4.48278e-07
4.83698e-06
4.825e-07
4.57917e-06
5.34713e-07
4.51325e-06
5.96187e-07
4.49457e-06
6.53613e-07
4.43668e-06
6.98376e-07
4.31833e-06
7.28642e-07
4.1553e-06
7.46821e-07
3.97188e-06
7.56582e-07
3.78639e-06
7.61154e-07
3.60847e-06
7.62824e-07
3.44144e-06
7.63024e-07
3.28529e-06
7.62576e-07
3.13875e-06
7.61924e-07
3.00038e-06
7.61289e-07
2.86896e-06
7.60765e-07
2.74359e-06
7.60379e-07