/*--------------------------------*- C++ -*----------------------------------*\
  =========                 |
  \\      /  F ield         | OpenFOAM: The Open Source CFD Toolbox
   \\    /   O peration     | Website:  https://openfoam.org
    \\  /    A nd           | Version:  9
     \\/     M anipulation  |
\*---------------------------------------------------------------------------*/
FoamFile
{
    format      ascii;
    class       volVectorField;
    location    "0.07";
    object      U;
}
// * * * * * * * * * * * * * * * * * * * * * * * * * * * * * * * * * * * * * //

dimensions      [0 1 -1 0 0 0 0];

internalField   nonuniform List<vector> 
5000
(
(0.0286802 0 0.540063)
(0.00290596 0 -1.17964)
(-0.0273972 0 0.584571)
(-0.00147074 0 0.718009)
(-0.000138373 0 0.638297)
(-0.000525246 0 0.71562)
(0.0263792 0 0.514204)
(0.00250568 0 -1.15598)
(-0.0285035 0 0.55914)
(-0.0031002 0 0.664981)
(-0.00480316 0 0.573673)
(-0.000742895 0 0.550842)
(0.00138509 0 0.556795)
(0.00573403 0 0.585101)
(0.0024079 0 0.655986)
(0.0636555 0 0.320451)
(0.0137003 0 -1.59299)
(-0.0591164 0 0.496244)
(-0.00623895 0 0.658165)
(-0.0128197 0 0.548255)
(-0.0036696 0 0.25966)
(-0.00019896 0 -0.372406)
(-0.000399254 0 0.299891)
(0.00405134 0 0.451642)
(0.00237642 0 0.445729)
(0.00556872 0 0.459535)
(0.0117121 0 0.509886)
(0.0247981 0 0.585694)
(0.0572229 0 0.466548)
(0.114288 0 -1.53132)
(-0.126993 0 -1.14181)
(-0.0552789 0 0.460673)
(-0.0338577 0 0.502907)
(-0.0207566 0 0.384602)
(-0.0135201 0 0.269965)
(-0.00861777 0 0.1724)
(-0.005244 0 0.0936062)
(-0.00304574 0 0.0345422)
(-0.00173404 0 -0.00553419)
(-0.00101865 0 -0.0293981)
(-0.000650114 0 -0.0410711)
(-0.000458396 0 -0.0445504)
(-0.000348069 0 -0.0430324)
(-0.000273451 0 -0.0387517)
(-0.000215584 0 -0.0331423)
(-0.00016786 0 -0.0270707)
(-0.000129008 0 -0.0210211)
(-0.0001004 0 -0.0151975)
(-8.16493e-05 0 -0.00956263)
(-6.30464e-05 0 -0.00413246)
(0.0731598 0 0.514238)
(0.00328398 0 -1.09231)
(-0.0687443 0 0.559632)
(-0.00474961 0 0.712529)
(-0.000482126 0 0.631674)
(0.000495049 0 0.709955)
(0.0656994 0 0.488042)
(0.00221074 0 -1.0719)
(-0.0725813 0 0.53588)
(-0.00877891 0 0.660207)
(-0.0140773 0 0.569235)
(-0.00182787 0 0.547595)
(0.00304634 0 0.55378)
(0.0171632 0 0.579627)
(0.00676437 0 0.643437)
(0.133284 0 0.266247)
(0.015454 0 -1.41012)
(-0.125721 0 0.456061)
(-0.0144175 0 0.649029)
(-0.0341019 0 0.544709)
(-0.00525002 0 0.246092)
(-0.00263667 0 -0.36236)
(-0.00610198 0 0.289255)
(0.00870245 0 0.450915)
(0.00620748 0 0.442664)
(0.0149772 0 0.452097)
(0.0283731 0 0.495641)
(0.0504399 0 0.553543)
(0.116013 0 0.371549)
(0.126794 0 -1.26494)
(-0.187579 0 -0.972486)
(-0.117161 0 0.37752)
(-0.0799531 0 0.463928)
(-0.0526252 0 0.363365)
(-0.0359008 0 0.255743)
(-0.0240572 0 0.16234)
(-0.0157441 0 0.0866227)
(-0.0101518 0 0.0299586)
(-0.00655866 0 -0.00835283)
(-0.0043145 0 -0.0310593)
(-0.00292039 0 -0.0420606)
(-0.00203594 0 -0.0451846)
(-0.00144875 0 -0.0434864)
(-0.00103891 0 -0.0391106)
(-0.000741472 0 -0.0334422)
(-0.000521515 0 -0.0273232)
(-0.000360699 0 -0.0212236)
(-0.000250165 0 -0.0153368)
(-0.000179973 0 -0.00964827)
(-0.000140546 0 -0.00431141)
(0.103035 0 0.480168)
(0.00360906 0 -0.983167)
(-0.0953617 0 0.528684)
(-0.0057511 0 0.699964)
(-0.000992968 0 0.62048)
(0.000788069 0 0.697279)
(0.0910076 0 0.453022)
(0.00166019 0 -0.965879)
(-0.102104 0 0.507552)
(-0.0110759 0 0.649923)
(-0.0224548 0 0.561229)
(-0.00231345 0 0.541683)
(0.00251324 0 0.548306)
(0.0251292 0 0.570642)
(0.00436198 0 0.621045)
(0.158703 0 0.200021)
(0.0183143 0 -1.23636)
(-0.149226 0 0.411863)
(-0.0127257 0 0.63507)
(-0.0490054 0 0.538322)
(-0.00309838 0 0.224445)
(-0.00541118 0 -0.353157)
(-0.0131753 0 0.275696)
(0.00979811 0 0.448211)
(0.0057525 0 0.436903)
(0.0173869 0 0.439338)
(0.0315469 0 0.472392)
(0.0474623 0 0.50835)
(0.127187 0 0.272527)
(0.11101 0 -1.02418)
(-0.173836 0 -0.804903)
(-0.136235 0 0.28312)
(-0.0914131 0 0.407392)
(-0.063636 0 0.326449)
(-0.0457763 0 0.228715)
(-0.0319261 0 0.142091)
(-0.0217071 0 0.0717907)
(-0.0145646 0 0.0195338)
(-0.00976115 0 -0.0153831)
(-0.00659149 0 -0.0357038)
(-0.0045074 0 -0.045156)
(-0.00310449 0 -0.0473159)
(-0.00212668 0 -0.0450193)
(-0.00142364 0 -0.040258)
(-0.000907675 0 -0.0343229)
(-0.000527148 0 -0.0280005)
(-0.000251047 0 -0.0217278)
(-6.04453e-05 0 -0.0156784)
(6.5458e-05 0 -0.00984085)
(0.000117402 0 -0.0044216)
(0.118533 0 0.449382)
(0.00469967 0 -0.874494)
(-0.108597 0 0.500189)
(-0.00539428 0 0.681987)
(-0.00149099 0 0.607328)
(-0.000154337 0 0.67879)
(0.103463 0 0.421199)
(0.0019742 0 -0.860087)
(-0.117973 0 0.482027)
(-0.0108839 0 0.635561)
(-0.029048 0 0.551448)
(-0.0022492 0 0.533999)
(-0.000164347 0 0.541199)
(0.0289799 0 0.561119)
(-0.00212606 0 0.595475)
(0.16173 0 0.147331)
(0.0237566 0 -1.08569)
(-0.150565 0 0.381183)
(-0.00503415 0 0.620936)
(-0.0572753 0 0.530269)
(0.000810434 0 0.202265)
(-0.00770836 0 -0.341163)
(-0.0204287 0 0.261031)
(0.00704162 0 0.442435)
(0.00123562 0 0.430177)
(0.0131765 0 0.426552)
(0.0257331 0 0.450947)
(0.0329715 0 0.470037)
(0.11129 0 0.207409)
(0.0850121 0 -0.831682)
(-0.142811 0 -0.66022)
(-0.128257 0 0.215223)
(-0.0824346 0 0.35791)
(-0.0599789 0 0.291159)
(-0.0444748 0 0.201028)
(-0.0315984 0 0.120301)
(-0.0218329 0 0.0552168)
(-0.0148005 0 0.00744587)
(-0.0099241 0 -0.0239084)
(-0.00662231 0 -0.0416521)
(-0.00438327 0 -0.0493521)
(-0.00282393 0 -0.0503526)
(-0.00170472 0 -0.0472835)
(-0.00088128 0 -0.0419875)
(-0.000266655 0 -0.0356598)
(0.000191578 0 -0.0290281)
(0.00052613 0 -0.0224947)
(0.000761048 0 -0.0162148)
(0.000924477 0 -0.0101697)
(0.000990775 0 -0.00457463)
(0.121906 0 0.422724)
(0.00526239 0 -0.767458)
(-0.111507 0 0.477122)
(-0.00535576 0 0.661476)
(-0.00189433 0 0.594345)
(-0.00174686 0 0.657468)
(0.105652 0 0.393874)
(0.00216681 0 -0.755879)
(-0.122943 0 0.461791)
(-0.0099673 0 0.619321)
(-0.0334994 0 0.541238)
(-0.00171534 0 0.525535)
(-0.00407931 0 0.533608)
(0.0293828 0 0.553289)
(-0.00935843 0 0.569733)
(0.152137 0 0.105023)
(0.0295869 0 -0.948746)
(-0.140585 0 0.36137)
(0.00427405 0 0.608234)
(-0.0601242 0 0.521911)
(0.00576351 0 0.181571)
(-0.00961452 0 -0.324022)
(-0.0279921 0 0.247729)
(0.00104001 0 0.435397)
(-0.00516387 0 0.424533)
(0.0055149 0 0.416637)
(0.016211 0 0.435488)
(0.018383 0 0.440175)
(0.0877328 0 0.165335)
(0.0604102 0 -0.674945)
(-0.112653 0 -0.537031)
(-0.109688 0 0.172456)
(-0.0678383 0 0.32042)
(-0.0508586 0 0.263828)
(-0.0376531 0 0.178733)
(-0.0264905 0 0.101964)
(-0.0180352 0 0.0407736)
(-0.0118634 0 -0.00339305)
(-0.0075284 0 -0.0317856)
(-0.00456232 0 -0.0473273)
(-0.00251498 0 -0.05349)
(-0.00106412 0 -0.053442)
(-5.88001e-06 0 -0.0496497)
(0.00078494 0 -0.0438332)
(0.00138304 0 -0.0371079)
(0.0018343 0 -0.0301528)
(0.00216728 0 -0.0233425)
(0.00240477 0 -0.016818)
(0.00257598 0 -0.0105513)
(0.00264677 0 -0.00475331)
(0.116999 0 0.399201)
(0.00460127 0 -0.664223)
(-0.107896 0 0.458398)
(-0.00582376 0 0.640812)
(-0.00223432 0 0.582462)
(-0.00308038 0 0.635815)
(0.101278 0 0.370423)
(0.00162292 0 -0.655369)
(-0.120613 0 0.445543)
(-0.00873104 0 0.603041)
(-0.035965 0 0.531378)
(-0.000793084 0 0.517186)
(-0.00823381 0 0.526484)
(0.027274 0 0.547971)
(-0.0155323 0 0.545295)
(0.135656 0 0.0671547)
(0.036022 0 -0.828081)
(-0.1239 0 0.34856)
(0.0131279 0 0.59777)
(-0.0590532 0 0.514492)
(0.0110136 0 0.163293)
(-0.0116831 0 -0.301921)
(-0.0353756 0 0.2372)
(-0.00646044 0 0.428709)
(-0.0123677 0 0.419957)
(-0.00358007 0 0.409076)
(0.00578608 0 0.424781)
(0.00708775 0 0.414592)
(0.0658803 0 0.133129)
(0.0427511 0 -0.551972)
(-0.0878273 0 -0.439152)
(-0.0897489 0 0.142457)
(-0.0535469 0 0.290174)
(-0.0403222 0 0.242378)
(-0.0288401 0 0.161266)
(-0.0194092 0 0.0873325)
(-0.0123368 0 0.0290709)
(-0.00715208 0 -0.0122698)
(-0.00351492 0 -0.0383)
(-0.00103011 0 -0.0520674)
(0.000693513 0 -0.0569868)
(0.00192197 0 -0.0560922)
(0.00282092 0 -0.0517133)
(0.00349896 0 -0.0454703)
(0.00401783 0 -0.0384133)
(0.00441455 0 -0.031183)
(0.00471212 0 -0.0241331)
(0.00492899 0 -0.0173937)
(0.0050904 0 -0.0109263)
(0.00516165 0 -0.00493518)
(0.107722 0 0.377932)
(0.00307914 0 -0.569032)
(-0.101074 0 0.442567)
(-0.00623157 0 0.621156)
(-0.00251288 0 0.571646)
(-0.00348596 0 0.615104)
(0.09388 0 0.350269)
(0.000716979 0 -0.562446)
(-0.114153 0 0.431754)
(-0.00684728 0 0.587693)
(-0.0367354 0 0.522257)
(0.000485546 0 0.509567)
(-0.0119016 0 0.520393)
(0.0237367 0 0.545113)
(-0.0201324 0 0.522926)
(0.118041 0 0.0302397)
(0.04325 0 -0.727028)
(-0.104201 0 0.34078)
(0.0204162 0 0.590265)
(-0.0555415 0 0.508483)
(0.0156772 0 0.148107)
(-0.0140599 0 -0.27557)
(-0.0419666 0 0.230085)
(-0.0143809 0 0.422544)
(-0.02005 0 0.415617)
(-0.012417 0 0.403149)
(-0.00426025 0 0.416282)
(-0.00164463 0 0.390134)
(0.0483964 0 0.105422)
(0.0311456 0 -0.459829)
(-0.0682499 0 -0.364448)
(-0.0718436 0 0.117759)
(-0.0407109 0 0.263447)
(-0.0294598 0 0.223976)
(-0.0193163 0 0.14665)
(-0.011481 0 0.0752077)
(-0.00566158 0 0.0194477)
(-0.00140602 0 -0.0195033)
(0.0015414 0 -0.0435567)
(0.00353318 0 -0.0558597)
(0.00489868 0 -0.0597694)
(0.00586344 0 -0.0582012)
(0.0065703 0 -0.0533648)
(0.00710683 0 -0.0467942)
(0.00752227 0 -0.0394846)
(0.00784557 0 -0.0320449)
(0.00809427 0 -0.0248123)
(0.00828169 0 -0.0179061)
(0.00842666 0 -0.0112751)
(0.00849781 0 -0.00511287)
(0.0967674 0 0.358509)
(0.00118752 0 -0.484021)
(-0.0931818 0 0.428772)
(-0.00622735 0 0.60279)
(-0.00269096 0 0.561628)
(-0.00285245 0 0.595673)
(0.0857804 0 0.333142)
(-1.03781e-06 0 -0.479003)
(-0.105648 0 0.419555)
(-0.00415432 0 0.573581)
(-0.0360549 0 0.514098)
(0.00210484 0 0.502991)
(-0.0146401 0 0.515559)
(0.0196358 0 0.544311)
(-0.0235677 0 0.502202)
(0.103091 0 -0.00717443)
(0.0500357 0 -0.644476)
(-0.0850148 0 0.337333)
(0.0252317 0 0.585719)
(-0.050979 0 0.50372)
(0.01914 0 0.136338)
(-0.0165561 0 -0.245826)
(-0.0475842 0 0.226488)
(-0.0221353 0 0.416756)
(-0.0276197 0 0.411507)
(-0.0206044 0 0.398419)
(-0.0140495 0 0.407832)
(-0.00909206 0 0.365678)
(0.0349561 0 0.0803846)
(0.0230506 0 -0.391237)
(-0.0531316 0 -0.307631)
(-0.0566769 0 0.09671)
(-0.0294715 0 0.238804)
(-0.0188492 0 0.207301)
(-0.00969025 0 0.133928)
(-0.00317681 0 0.064942)
(0.00159108 0 0.0114841)
(0.00502822 0 -0.0253702)
(0.0073304 0 -0.047731)
(0.00884496 0 -0.0588085)
(0.0098558 0 -0.061896)
(0.0105548 0 -0.059794)
(0.0110627 0 -0.0546087)
(0.0114494 0 -0.0477984)
(0.0117536 0 -0.0403104)
(0.0119969 0 -0.0327266)
(0.0121914 0 -0.0253691)
(0.0123454 0 -0.0183466)
(0.0124706 0 -0.0115922)
(0.0125402 0 -0.00528367)
(0.0855335 0 0.340866)
(-0.000836806 0 -0.408855)
(-0.0851928 0 0.416497)
(-0.00579264 0 0.585652)
(-0.00274498 0 0.552294)
(-0.00151999 0 0.5775)
(0.0779254 0 0.318925)
(-0.000269959 0 -0.404729)
(-0.0961463 0 0.408462)
(-0.000794195 0 0.560675)
(-0.0341123 0 0.507041)
(0.0040207 0 0.497598)
(-0.0162048 0 0.512155)
(0.015506 0 0.544883)
(-0.0263673 0 0.48249)
(0.091643 0 -0.0450856)
(0.0545252 0 -0.576211)
(-0.0688724 0 0.338005)
(0.0269181 0 0.583554)
(-0.0464396 0 0.49975)
(0.02102 0 0.127928)
(-0.0191381 0 -0.213771)
(-0.0522175 0 0.226186)
(-0.0294118 0 0.411465)
(-0.034716 0 0.407796)
(-0.0282856 0 0.394441)
(-0.023189 0 0.39889)
(-0.0157827 0 0.34105)
(0.0241241 0 0.0574498)
(0.016419 0 -0.339546)
(-0.0418615 0 -0.263999)
(-0.0441874 0 0.0784092)
(-0.0198499 0 0.215464)
(-0.00898012 0 0.191662)
(-0.000441535 0 0.122672)
(0.00512643 0 0.0562861)
(0.00907819 0 0.00500252)
(0.0118069 0 -0.0299985)
(0.013552 0 -0.0509127)
(0.0146441 0 -0.0609725)
(0.0153337 0 -0.0634003)
(0.0157874 0 -0.0608905)
(0.0161073 0 -0.0554563)
(0.0163504 0 -0.0484884)
(0.0165467 0 -0.0408925)
(0.0167115 0 -0.033227)
(0.0168521 0 -0.0258006)
(0.0169719 0 -0.0187105)
(0.0170761 0 -0.0118725)
(0.0171426 0 -0.00544397)
(0.0745468 0 0.324923)
(-0.00281939 0 -0.342551)
(-0.0772785 0 0.405361)
(-0.00502261 0 0.569679)
(-0.00268387 0 0.543693)
(2.95569e-05 0 0.56056)
(0.0703981 0 0.307368)
(-1.97193e-05 0 -0.338791)
(-0.0860104 0 0.39816)
(0.0029917 0 0.548894)
(-0.0310775 0 0.501174)
(0.00623602 0 0.493473)
(-0.0166195 0 0.510407)
(0.0118058 0 0.546121)
(-0.0284495 0 0.463663)
(0.0825882 0 -0.0825717)
(0.0553476 0 -0.518739)
(-0.0568409 0 0.342367)
(0.0252984 0 0.583099)
(-0.0426701 0 0.496057)
(0.0211363 0 0.122513)
(-0.0218939 0 -0.180423)
(-0.055864 0 0.228783)
(-0.0359838 0 0.406879)
(-0.0410717 0 0.404618)
(-0.0353183 0 0.391162)
(-0.0312996 0 0.389715)
(-0.0215037 0 0.316025)
(0.0151153 0 0.0360532)
(0.0101575 0 -0.30073)
(-0.0337425 0 -0.231289)
(-0.033929 0 0.0614713)
(-0.0116004 0 0.192622)
(-3.44731e-05 0 0.176372)
(0.00819284 0 0.112386)
(0.0131491 0 0.0489043)
(0.0164885 0 -0.000255964)
(0.0186516 0 -0.0335699)
(0.0199472 0 -0.0532265)
(0.0206915 0 -0.0624367)
(0.0211116 0 -0.0643408)
(0.0213561 0 -0.0615316)
(0.0215136 0 -0.0559362)
(0.0216315 0 -0.0488844)
(0.0217329 0 -0.0412449)
(0.0218282 0 -0.033555)
(0.0219207 0 -0.026111)
(0.0220098 0 -0.0189982)
(0.0220944 0 -0.0121138)
(0.0221576 0 -0.00559169)
(0.0638341 0 0.310389)
(-0.00456188 0 -0.284498)
(-0.0693146 0 0.395052)
(-0.00399239 0 0.55491)
(-0.00252743 0 0.535935)
(0.00144413 0 0.544897)
(0.0631017 0 0.297994)
(0.000751225 0 -0.280706)
(-0.0753526 0 0.388397)
(0.00702154 0 0.5382)
(-0.0271195 0 0.4965)
(0.00881158 0 0.490602)
(-0.0160371 0 0.510319)
(0.00905728 0 0.54781)
(-0.0291913 0 0.4458)
(0.074578 0 -0.118323)
(0.0521523 0 -0.469535)
(-0.0488016 0 0.34942)
(0.0207643 0 0.583735)
(-0.0400943 0 0.492133)
(0.0195573 0 0.119592)
(-0.0248572 0 -0.146744)
(-0.058559 0 0.233687)
(-0.0416266 0 0.403075)
(-0.0464142 0 0.40201)
(-0.0413104 0 0.388477)
(-0.0379452 0 0.380328)
(-0.025897 0 0.29096)
(0.00766058 0 0.0159215)
(0.00446976 0 -0.27228)
(-0.0277235 0 -0.208398)
(-0.0252508 0 0.0444699)
(-0.00424744 0 0.169661)
(0.00812994 0 0.160883)
(0.0162349 0 0.102585)
(0.0208097 0 0.0423959)
(0.0236862 0 -0.00458956)
(0.0254098 0 -0.0363121)
(0.0263506 0 -0.0548452)
(0.0268179 0 -0.0633317)
(0.0270223 0 -0.0648166)
(0.0270986 0 -0.061793)
(0.027125 0 -0.0561068)
(0.0271416 0 -0.0490317)
(0.0271663 0 -0.0414024)
(0.0272056 0 -0.0337367)
(0.0272597 0 -0.0263185)
(0.0273242 0 -0.0192207)
(0.0273931 0 -0.0123212)
(0.0274538 0 -0.00572833)
(0.0534198 0 0.296872)
(-0.0059139 0 -0.234343)
(-0.0612877 0 0.385335)
(-0.00273756 0 0.541442)
(-0.0022891 0 0.529071)
(0.00261019 0 0.53062)
(0.0561805 0 0.290251)
(0.00198375 0 -0.230191)
(-0.0643639 0 0.378985)
(0.0111828 0 0.528565)
(-0.022421 0 0.493004)
(0.0118051 0 0.488713)
(-0.0144709 0 0.511643)
(0.00782321 0 0.550042)
(-0.0279143 0 0.429091)
(0.0671817 0 -0.150723)
(0.045507 0 -0.426432)
(-0.0440917 0 0.357745)
(0.0141777 0 0.584833)
(-0.0387927 0 0.487582)
(0.0165715 0 0.118625)
(-0.0279554 0 -0.113614)
(-0.0603485 0 0.240148)
(-0.0461425 0 0.4)
(-0.0505503 0 0.399892)
(-0.0459399 0 0.386048)
(-0.0427083 0 0.370376)
(-0.0287499 0 0.266174)
(0.00182688 0 -0.00275611)
(0.000103166 0 -0.252239)
(-0.0227368 0 -0.194132)
(-0.0175432 0 0.0265526)
(0.00263387 0 0.146343)
(0.0157342 0 0.144978)
(0.0238166 0 0.0929823)
(0.0281433 0 0.0364864)
(0.0306511 0 -0.00822644)
(0.032022 0 -0.0384145)
(0.032679 0 -0.0559246)
(0.0329256 0 -0.0637845)
(0.0329595 0 -0.0649312)
(0.0329042 0 -0.0617591)
(0.0328289 0 -0.0560369)
(0.0327675 0 -0.0489863)
(0.0327339 0 -0.0414098)
(0.0327312 0 -0.0338068)
(0.0327568 0 -0.0264486)
(0.0328036 0 -0.0193947)
(0.0328613 0 -0.0125035)
(0.0329208 0 -0.00585675)
(0.0437125 0 0.284154)
(-0.0068237 0 -0.191635)
(-0.0534177 0 0.376061)
(-0.0013143 0 0.52933)
(-0.00193597 0 0.523045)
(0.00364375 0 0.517834)
(0.049985 0 0.283657)
(0.00356501 0 -0.186833)
(-0.0534329 0 0.369815)
(0.0154198 0 0.519626)
(-0.0172461 0 0.491001)
(0.0152252 0 0.487407)
(-0.0117192 0 0.513847)
(0.0085498 0 0.552753)
(-0.0241717 0 0.413835)
(0.0609699 0 -0.178158)
(0.0365703 0 -0.387749)
(-0.0420342 0 0.366307)
(0.00662611 0 0.585855)
(-0.0385565 0 0.482244)
(0.0126198 0 0.119107)
(-0.0310217 0 -0.0817609)
(-0.0613084 0 0.247417)
(-0.0494482 0 0.39753)
(-0.0534365 0 0.398106)
(-0.0491269 0 0.383462)
(-0.0454951 0 0.359493)
(-0.0298859 0 0.241752)
(-0.00227627 0 -0.0198936)
(-0.00263472 0 -0.238815)
(-0.0179835 0 -0.186931)
(-0.0104403 0 0.00753173)
(0.0092093 0 0.122667)
(0.0228724 0 0.12866)
(0.0310059 0 0.0834577)
(0.0351726 0 0.0310252)
(0.0373841 0 -0.0113069)
(0.0384665 0 -0.0400006)
(0.0388911 0 -0.0565729)
(0.0389592 0 -0.0638893)
(0.0388579 0 -0.064766)
(0.0387002 0 -0.0614998)
(0.0385472 0 -0.0557863)
(0.0384275 0 -0.0487984)
(0.038351 0 -0.0413084)
(0.0383183 0 -0.0337979)
(0.0383242 0 -0.0265252)
(0.0383591 0 -0.0195366)
(0.0384091 0 -0.0126704)
(0.038468 0 -0.00598153)
(0.0353005 0 0.272281)
(-0.007377 0 -0.155674)
(-0.0460359 0 0.367144)
(0.000202979 0 0.518464)
(-0.00139323 0 0.517833)
(0.00474438 0 0.506491)
(0.0448426 0 0.277863)
(0.00536969 0 -0.149959)
(-0.043198 0 0.360846)
(0.0199397 0 0.511338)
(-0.0116818 0 0.489898)
(0.018691 0 0.48673)
(-0.0075451 0 0.516423)
(0.0115028 0 0.555582)
(-0.0179299 0 0.400185)
(0.0567395 0 -0.199483)
(0.0269115 0 -0.352282)
(-0.0419268 0 0.374968)
(-0.0010375 0 0.586492)
(-0.0390337 0 0.476153)
(0.00815601 0 0.120606)
(-0.0338736 0 -0.0517306)
(-0.0615414 0 0.254866)
(-0.0515954 0 0.395521)
(-0.0551441 0 0.396495)
(-0.0509639 0 0.3804)
(-0.0465455 0 0.347527)
(-0.0295464 0 0.217773)
(-0.00460124 0 -0.0358525)
(-0.00367139 0 -0.230561)
(-0.0132242 0 -0.185209)
(-0.0039143 0 -0.0124433)
(0.0153769 0 0.0987417)
(0.0295223 0 0.11197)
(0.0377806 0 0.0739225)
(0.0418749 0 0.0258955)
(0.0438678 0 -0.013935)
(0.0447218 0 -0.0411594)
(0.0449586 0 -0.0568672)
(0.0448833 0 -0.0637137)
(0.0446754 0 -0.0643811)
(0.0444388 0 -0.0610681)
(0.0442273 0 -0.0554011)
(0.0440649 0 -0.0485071)
(0.0439583 0 -0.0411305)
(0.0439053 0 -0.0337352)
(0.0438988 0 -0.0265665)
(0.0439265 0 -0.019657)
(0.0439717 0 -0.0128258)
(0.0440295 0 -0.00610201)
(0.0286092 0 0.261063)
(-0.00777301 0 -0.125568)
(-0.0394359 0 0.358512)
(0.00181106 0 0.508715)
(-0.00056374 0 0.513305)
(0.00599836 0 0.496391)
(0.0409006 0 0.272648)
(0.00733371 0 -0.118712)
(-0.0339341 0 0.3522)
(0.0244601 0 0.50389)
(-0.00577461 0 0.488658)
(0.0223861 0 0.486603)
(-0.0021114 0 0.518954)
(0.0163248 0 0.557587)
(-0.00958989 0 0.388494)
(0.0549473 0 -0.214091)
(0.018008 0 -0.318789)
(-0.0429769 0 0.38378)
(-0.00836513 0 0.58662)
(-0.0398869 0 0.469411)
(0.00355857 0 0.122763)
(-0.0363529 0 -0.0238666)
(-0.0611509 0 0.262041)
(-0.052714 0 0.393832)
(-0.0557982 0 0.394936)
(-0.0516164 0 0.376674)
(-0.0462146 0 0.334507)
(-0.028157 0 0.19435)
(-0.00543979 0 -0.0509039)
(-0.00332022 0 -0.22644)
(-0.00852045 0 -0.187646)
(0.00203998 0 -0.0331257)
(0.0210456 0 0.0746565)
(0.0355888 0 0.0948876)
(0.044073 0 0.0642387)
(0.0482098 0 0.0209453)
(0.0500791 0 -0.0162336)
(0.050771 0 -0.0419836)
(0.0508652 0 -0.0568795)
(0.0506792 0 -0.0633162)
(0.0503895 0 -0.0638252)
(0.0500931 0 -0.0605058)
(0.0498386 0 -0.0549172)
(0.049646 0 -0.0481433)
(0.0495194 0 -0.040902)
(0.0494545 0 -0.0336399)
(0.049442 0 -0.0265886)
(0.0494682 0 -0.0197662)
(0.0495142 0 -0.0129738)
(0.0495772 0 -0.00621937)
(0.0235163 0 0.250232)
(-0.00798866 0 -0.100336)
(-0.0336921 0 0.350083)
(0.00349329 0 0.499973)
(0.000568859 0 0.509216)
(0.00742889 0 0.487298)
(0.0380894 0 0.267875)
(0.00952837 0 -0.0922197)
(-0.0257627 0 0.343657)
(0.0285727 0 0.497096)
(0.000328707 0 0.487332)
(0.0264313 0 0.48653)
(0.00405329 0 0.520869)
(0.0225126 0 0.55811)
(0.00037342 0 0.378897)
(0.0552325 0 -0.221915)
(0.0106842 0 -0.285962)
(-0.0445297 0 0.392756)
(-0.0151735 0 0.586218)
(-0.0408577 0 0.462111)
(-0.000896996 0 0.125286)
(-0.0383465 0 0.00166154)
(-0.0602229 0 0.268653)
(-0.0529512 0 0.392337)
(-0.0555368 0 0.393324)
(-0.051265 0 0.372202)
(-0.0448292 0 0.320553)
(-0.0260721 0 0.171547)
(-0.00519251 0 -0.0652895)
(-0.00200716 0 -0.225588)
(-0.00394293 0 -0.193141)
(0.00745261 0 -0.054225)
(0.0261734 0 0.0504431)
(0.0410502 0 0.0773298)
(0.0498659 0 0.0542253)
(0.0541683 0 0.0159843)
(0.0560166 0 -0.0183523)
(0.0566166 0 -0.0425795)
(0.0566138 0 -0.0566847)
(0.0563473 0 -0.0627519)
(0.0559965 0 -0.0631411)
(0.0556554 0 -0.059847)
(0.0553691 0 -0.0543626)
(0.0551548 0 -0.0477305)
(0.0550146 0 -0.0406428)
(0.0549426 0 -0.0335297)
(0.0549286 0 -0.0266094)
(0.0549585 0 -0.0198861)
(0.0550145 0 -0.0131424)
(0.0550956 0 -0.00635821)
(0.0196658 0 0.239961)
(-0.00793422 0 -0.0790354)
(-0.0287465 0 0.341796)
(0.00524801 0 0.492108)
(0.00197778 0 0.505351)
(0.0089815 0 0.478991)
(0.0362021 0 0.263431)
(0.0118075 0 -0.0697506)
(-0.0186052 0 0.334787)
(0.0322351 0 0.490864)
(0.0064022 0 0.486134)
(0.0306141 0 0.486268)
(0.0104776 0 0.521822)
(0.0293077 0 0.557305)
(0.0110792 0 0.370863)
(0.0568713 0 -0.223369)
(0.00506943 0 -0.25278)
(-0.0461997 0 0.402055)
(-0.0214349 0 0.585332)
(-0.0417781 0 0.454321)
(-0.00504132 0 0.127948)
(-0.0398001 0 0.0247911)
(-0.0588212 0 0.274528)
(-0.0524347 0 0.390916)
(-0.0544886 0 0.391572)
(-0.0500747 0 0.366976)
(-0.0426456 0 0.305837)
(-0.0235127 0 0.149386)
(-0.00413561 0 -0.0792288)
(-1.3732e-06 0 -0.227292)
(0.000506579 0 -0.200801)
(0.0123889 0 -0.0754821)
(0.0307859 0 0.0261576)
(0.0459499 0 0.0592352)
(0.0551865 0 0.0437093)
(0.0597699 0 0.010818)
(0.0616994 0 -0.0204466)
(0.0622775 0 -0.0430543)
(0.062221 0 -0.0563542)
(0.0619004 0 -0.0620688)
(0.0615048 0 -0.0623619)
(0.0611293 0 -0.0591154)
(0.0608176 0 -0.0537545)
(0.0605854 0 -0.0472807)
(0.0604332 0 -0.0403614)
(0.0603544 0 -0.0334113)
(0.0603384 0 -0.0266386)
(0.0603729 0 -0.0200375)
(0.0604423 0 -0.0133653)
(0.060546 0 -0.00654791)
(0.0168125 0 0.230595)
(-0.00761918 0 -0.0608893)
(-0.0244503 0 0.333622)
(0.00703823 0 0.485017)
(0.00357927 0 0.50154)
(0.0106083 0 0.471307)
(0.0349967 0 0.25924)
(0.0139969 0 -0.0507499)
(-0.0122282 0 0.325778)
(0.0355644 0 0.484957)
(0.0121805 0 0.484957)
(0.034651 0 0.485768)
(0.0167343 0 0.521788)
(0.0357621 0 0.555372)
(0.0214457 0 0.363902)
(0.0588937 0 -0.219139)
(0.000781637 0 -0.218653)
(-0.0478441 0 0.411903)
(-0.0271899 0 0.584015)
(-0.0425464 0 0.446073)
(-0.0087887 0 0.130564)
(-0.0407067 0 0.0455146)
(-0.0569854 0 0.279562)
(-0.0512562 0 0.389467)
(-0.0527632 0 0.389611)
(-0.0481866 0 0.36104)
(-0.0398604 0 0.290548)
(-0.0206107 0 0.12787)
(-0.00245942 0 -0.0928821)
(0.00253973 0 -0.230962)
(0.00485462 0 -0.209977)
(0.0169035 0 -0.0966707)
(0.0349295 0 0.0018867)
(0.0503332 0 0.0405773)
(0.0600553 0 0.0325464)
(0.0650259 0 0.00526658)
(0.0671378 0 -0.0226657)
(0.0677648 0 -0.0435101)
(0.0676975 0 -0.0559517)
(0.0673471 0 -0.0613057)
(0.0669204 0 -0.061511)
(0.0665179 0 -0.0583245)
(0.0661845 0 -0.0530995)
(0.0659355 0 -0.0467952)
(0.0657708 0 -0.0400542)
(0.065683 0 -0.0332777)
(0.0656618 0 -0.0266679)
(0.065696 0 -0.0202127)
(0.0657716 0 -0.0136346)
(0.0658856 0 -0.00677889)
(0.0148137 0 0.222303)
(-0.0070669 0 -0.0453116)
(-0.020631 0 0.325554)
(0.00881568 0 0.478501)
(0.00528075 0 0.497779)
(0.0122945 0 0.464155)
(0.0341809 0 0.255313)
(0.016197 0 -0.0344578)
(-0.00639881 0 0.316758)
(0.0384478 0 0.479001)
(0.0175206 0 0.483663)
(0.0383147 0 0.485047)
(0.0224313 0 0.52092)
(0.0410511 0 0.552549)
(0.0305159 0 0.35774)
(0.0602426 0 -0.210008)
(-0.00281238 0 -0.183433)
(-0.0494573 0 0.422396)
(-0.0324463 0 0.582266)
(-0.0430809 0 0.437371)
(-0.0120956 0 0.132981)
(-0.041076 0 0.0638502)
(-0.0547281 0 0.283692)
(-0.0494692 0 0.387918)
(-0.0504473 0 0.387411)
(-0.0457226 0 0.354477)
(-0.0366402 0 0.274872)
(-0.0174836 0 0.106988)
(-0.00034413 0 -0.106358)
(0.00536917 0 -0.23613)
(0.00900154 0 -0.220166)
(0.0210116 0 -0.11758)
(0.038608 0 -0.0222683)
(0.0541943 0 0.0213534)
(0.0644467 0 0.0206144)
(0.0699044 0 -0.000841014)
(0.0723027 0 -0.0251596)
(0.0730556 0 -0.0440514)
(0.0730254 0 -0.0555417)
(0.0726729 0 -0.0604995)
(0.0722301 0 -0.0606085)
(0.0718088 0 -0.0574844)
(0.071458 0 -0.0524015)
(0.0711948 0 -0.0462737)
(0.071019 0 -0.0397174)
(0.0709229 0 -0.0331203)
(0.0708958 0 -0.0266803)
(0.0709265 0 -0.0203804)
(0.0709983 0 -0.0139048)
(0.0711013 0 -0.00701446)
(0.0135594 0 0.215131)
(-0.0062561 0 -0.0318332)
(-0.0171623 0 0.31766)
(0.010593 0 0.47229)
(0.0070579 0 0.494144)
(0.014042 0 0.457489)
(0.0336948 0 0.251668)
(0.0182899 0 -0.020199)
(-0.00113903 0 0.307503)
(0.040924 0 0.472874)
(0.0223727 0 0.48226)
(0.0414345 0 0.484202)
(0.0272879 0 0.519528)
(0.0446648 0 0.549205)
(0.0376235 0 0.352258)
(0.0600577 0 -0.196758)
(-0.00631581 0 -0.147393)
(-0.0510284 0 0.433404)
(-0.0371044 0 0.580028)
(-0.0432844 0 0.428228)
(-0.0149217 0 0.135085)
(-0.0409072 0 0.0798265)
(-0.052034 0 0.286875)
(-0.0470928 0 0.386231)
(-0.0476007 0 0.384987)
(-0.0427826 0 0.347411)
(-0.0331343 0 0.259005)
(-0.0142817 0 0.0867565)
(0.00193896 0 -0.119688)
(0.00816274 0 -0.242432)
(0.0127502 0 -0.230967)
(0.0246088 0 -0.138045)
(0.041739 0 -0.0462187)
(0.0574606 0 0.00157147)
(0.0682768 0 0.00780456)
(0.0743167 0 -0.00767743)
(0.077111 0 -0.0280926)
(0.0780775 0 -0.0448001)
(0.078143 0 -0.0552027)
(0.0778242 0 -0.0596978)
(0.0773866 0 -0.0596827)
(0.0769592 0 -0.0566129)
(0.0765997 0 -0.0516732)
(0.0763289 0 -0.0457275)
(0.0761488 0 -0.0393633)
(0.076052 0 -0.0329525)
(0.0760271 0 -0.0266861)
(0.0760626 0 -0.0205358)
(0.0761419 0 -0.0141444)
(0.0762497 0 -0.0072069)
(0.0129425 0 0.209114)
(-0.00510264 0 -0.0200579)
(-0.0139828 0 0.310039)
(0.0123785 0 0.466163)
(0.00896415 0 0.490666)
(0.0158411 0 0.451268)
(0.0335057 0 0.248263)
(0.0202065 0 -0.00778736)
(0.00356033 0 0.298184)
(0.0430516 0 0.46665)
(0.0267057 0 0.480829)
(0.0439141 0 0.483396)
(0.0311753 0 0.518017)
(0.0464725 0 0.545757)
(0.0424671 0 0.347508)
(0.057876 0 -0.180121)
(-0.0100902 0 -0.111128)
(-0.0524321 0 0.44459)
(-0.0409423 0 0.577225)
(-0.0430345 0 0.418702)
(-0.0172071 0 0.136804)
(-0.040176 0 0.0934763)
(-0.048865 0 0.289082)
(-0.0441161 0 0.3844)
(-0.0442449 0 0.382399)
(-0.0394234 0 0.34001)
(-0.0294477 0 0.243182)
(-0.0111554 0 0.0672882)
(0.00408915 0 -0.132767)
(0.0105768 0 -0.24953)
(0.0158527 0 -0.242128)
(0.0275296 0 -0.158011)
(0.044204 0 -0.0699218)
(0.0600301 0 -0.0187604)
(0.0714289 0 -0.00597866)
(0.0781336 0 -0.015415)
(0.081433 0 -0.0316451)
(0.0827101 0 -0.0459014)
(0.082942 0 -0.0550366)
(0.0827034 0 -0.0589668)
(0.0823002 0 -0.0587764)
(0.081885 0 -0.0557385)
(0.0815281 0 -0.0509361)
(0.0812573 0 -0.0451756)
(0.081078 0 -0.0390119)
(0.0809842 0 -0.0327983)
(0.0809641 0 -0.0267146)
(0.0810054 0 -0.0207209)
(0.0810979 0 -0.0144309)
(0.0812317 0 -0.00747553)
(0.0128576 0 0.204274)
(-0.00356695 0 -0.00967645)
(-0.0110372 0 0.302488)
(0.0141448 0 0.460292)
(0.0110784 0 0.48737)
(0.0176714 0 0.445478)
(0.0335565 0 0.245086)
(0.0219774 0 0.00294859)
(0.0077795 0 0.28898)
(0.0448596 0 0.4604)
(0.0305121 0 0.479452)
(0.0457529 0 0.482802)
(0.0341123 0 0.516776)
(0.0466982 0 0.54258)
(0.0451136 0 0.343707)
(0.0536961 0 -0.160774)
(-0.014165 0 -0.0754359)
(-0.0533978 0 0.455479)
(-0.0436608 0 0.573806)
(-0.0421983 0 0.408925)
(-0.0188661 0 0.138104)
(-0.038836 0 0.10484)
(-0.04517 0 0.290288)
(-0.0405038 0 0.382433)
(-0.0403544 0 0.379734)
(-0.0356351 0 0.332475)
(-0.0256003 0 0.227694)
(-0.00818216 0 0.048818)
(0.00589859 0 -0.145348)
(0.0123788 0 -0.257106)
(0.0181364 0 -0.253518)
(0.0296574 0 -0.177519)
(0.045924 0 -0.0933821)
(0.0618275 0 -0.0396273)
(0.0737989 0 -0.0207996)
(0.0812209 0 -0.0242051)
(0.0851197 0 -0.0359989)
(0.0868043 0 -0.0475176)
(0.0872813 0 -0.0551667)
(0.0871792 0 -0.0583929)
(0.0868482 0 -0.0579468)
(0.0864693 0 -0.0548981)
(0.08613 0 -0.0502123)
(0.0858677 0 -0.0446295)
(0.0856937 0 -0.0386661)
(0.0856059 0 -0.0326527)
(0.0855953 0 -0.0267568)
(0.0856536 0 -0.0209339)
(0.0857786 0 -0.0147864)
(0.0859403 0 -0.00785769)
(0.0131962 0 0.200342)
(-0.00187309 0 -0.000479176)
(-0.00809263 0 0.294824)
(0.0160312 0 0.454833)
(0.0133052 0 0.484277)
(0.0194994 0 0.440132)
(0.0337828 0 0.24216)
(0.0236361 0 0.0122404)
(0.0115924 0 0.279954)
(0.0463797 0 0.454157)
(0.0338272 0 0.478205)
(0.0470396 0 0.482557)
(0.0362409 0 0.516092)
(0.04582 0 0.539962)
(0.0459314 0 0.34115)
(0.0479371 0 -0.139358)
(-0.0182699 0 -0.0411778)
(-0.0535567 0 0.465554)
(-0.0449604 0 0.569787)
(-0.0406568 0 0.399099)
(-0.0197958 0 0.138981)
(-0.0368298 0 0.113976)
(-0.0408983 0 0.290475)
(-0.0362095 0 0.380338)
(-0.0358628 0 0.37708)
(-0.0313394 0 0.325018)
(-0.0215151 0 0.212869)
(-0.00529887 0 0.0316725)
(0.00736961 0 -0.157106)
(0.0135634 0 -0.264861)
(0.0196209 0 -0.26506)
(0.0310127 0 -0.196649)
(0.0469143 0 -0.116615)
(0.0628462 0 -0.06098)
(0.075334 0 -0.0366613)
(0.0834778 0 -0.034146)
(0.0880372 0 -0.0413094)
(0.0902124 0 -0.0498101)
(0.0910131 0 -0.0557302)
(0.0911106 0 -0.0580804)
(0.0908979 0 -0.0572691)
(0.0905879 0 -0.0541436)
(0.0902886 0 -0.0495377)
(0.0900508 0 -0.0441154)
(0.0898952 0 -0.0383507)
(0.0898266 0 -0.0325507)
(0.0898415 0 -0.0268726)
(0.0899441 0 -0.0212694)
(0.0901952 0 -0.0153057)
(0.0906404 0 -0.00829659)
(0.0137081 0 0.196988)
(-5.03277e-05 0 0.00761024)
(-0.00504013 0 0.2872)
(0.0180994 0 0.449612)
(0.015589 0 0.481399)
(0.0213005 0 0.435248)
(0.0341218 0 0.239493)
(0.0251901 0 0.0202908)
(0.0150456 0 0.271134)
(0.047656 0 0.447956)
(0.0367179 0 0.477146)
(0.0479213 0 0.482745)
(0.0377863 0 0.51611)
(0.0444265 0 0.538084)
(0.0454788 0 0.340116)
(0.0413207 0 -0.116489)
(-0.021947 0 -0.00914908)
(-0.0525382 0 0.474354)
(-0.0446211 0 0.565275)
(-0.0383296 0 0.389475)
(-0.0198971 0 0.139452)
(-0.0341075 0 0.120967)
(-0.0360174 0 0.289632)
(-0.031196 0 0.378103)
(-0.0306876 0 0.3745)
(-0.0264146 0 0.317827)
(-0.0170329 0 0.199026)
(-0.00230972 0 0.0161989)
(0.00872436 0 -0.167722)
(0.014389 0 -0.272514)
(0.0205529 0 -0.276652)
(0.0317783 0 -0.215432)
(0.0472998 0 -0.139586)
(0.0631632 0 -0.0827004)
(0.0760532 0 -0.0534773)
(0.0848628 0 -0.0452525)
(0.090097 0 -0.0476771)
(0.0928195 0 -0.0529162)
(0.0940121 0 -0.0568623)
(0.0943708 0 -0.0581434)
(0.0943245 0 -0.0568302)
(0.0941156 0 -0.0535358)
(0.0938724 0 -0.048948)
(0.0936576 0 -0.0436452)
(0.0934979 0 -0.0380519)
(0.0933992 0 -0.0324473)
(0.0933527 0 -0.0269757)
(0.0933539 0 -0.0215998)
(0.0935022 0 -0.0160162)
(0.0939381 0 -0.0103222)
(0.0142019 0 0.194122)
(0.00191726 0 0.0145005)
(-0.00189684 0 0.279832)
(0.0202941 0 0.444546)
(0.0179036 0 0.47879)
(0.0230464 0 0.43084)