/*--------------------------------*- C++ -*----------------------------------*\
  =========                 |
  \\      /  F ield         | OpenFOAM: The Open Source CFD Toolbox
   \\    /   O peration     | Website:  https://openfoam.org
    \\  /    A nd           | Version:  9
     \\/     M anipulation  |
\*---------------------------------------------------------------------------*/
FoamFile
{
    format      ascii;
    class       surfaceVectorField;
    location    "0.07";
    object      Uf;
}
// * * * * * * * * * * * * * * * * * * * * * * * * * * * * * * * * * * * * * //

dimensions      [0 1 -1 0 0 0 0];

internalField   nonuniform List<vector> 
9850
(
(0.0426045 0 -0.319789)
(0.05092 0 0.52233)
(-0.0379003 0 -0.297535)
(0.00309497 0 -1.12873)
(-0.00731663 0 0.65129)
(-0.0480708 0 0.568125)
(-0.00373468 0 0.678153)
(-0.00311017 0 0.715799)
(0.00246475 0 0.676958)
(-0.000310249 0 0.634803)
(0.00593288 0 0.614912)
(-1.50983e-05 0 0.713505)
(0.0404079 0 -0.32089)
(0.0460393 0 0.496367)
(-0.0378224 0 -0.298422)
(0.00235821 0 -1.10672)
(-0.00895519 0 0.612061)
(-0.0505424 0 0.543665)
(-0.0060461 0 0.619327)
(-0.00593955 0 0.663071)
(-0.00222697 0 0.562258)
(-0.00944023 0 0.571508)
(0.000381209 0 0.553819)
(-0.00128538 0 0.549333)
(0.00267825 0 0.570948)
(0.00221572 0 0.555448)
(0.00697679 0 0.620544)
(0.0114486 0 0.582658)
(0.0192401 0 0.488219)
(0.00458614 0 0.649783)
(0.099742 0 -0.636271)
(0.0984697 0 0.280096)
(-0.0771756 0 -0.548374)
(0.0145771 0 -1.48448)
(-0.0194249 0 0.577205)
(-0.0924189 0 0.466777)
(-0.0114133 0 0.60321)
(-0.0103282 0 0.65374)
(-0.0107589 0 0.389436)
(-0.0234608 0 0.547453)
(0.000944836 0 -0.0639251)
(-0.00445981 0 0.251804)
(-0.00296065 0 -0.0282243)
(-0.00141782 0 -0.367667)
(0.00397746 0 0.37758)
(-0.00325062 0 0.294124)
(0.0023499 0 0.448615)
(0.0063769 0 0.452317)
(0.00366905 0 0.452797)
(0.00429195 0 0.444475)
(0.00813823 0 0.485312)
(0.010273 0 0.455683)
(0.0167434 0 0.548696)
(0.0200426 0 0.502237)
(0.0378165 0 0.524698)
(0.037619 0 0.566334)
(0.120932 0 -0.556259)
(0.0866181 0 0.393073)
(-0.0279077 0 -1.33191)
(0.120541 0 -1.37177)
(-0.101164 0 -0.321421)
(-0.157286 0 -1.0451)
(-0.04431 0 0.482294)
(-0.0862201 0 0.400197)
(-0.0257981 0 0.442341)
(-0.0569054 0 0.480523)
(-0.0166333 0 0.325914)
(-0.0366909 0 0.37315)
(-0.010745 0 0.220017)
(-0.0247104 0 0.262438)
(-0.00669271 0 0.132062)
(-0.0163375 0 0.167093)
(-0.00397097 0 0.0633685)
(-0.0104941 0 0.0899528)
(-0.0022743 0 0.0140252)
(-0.00659879 0 0.0322127)
(-0.00130819 0 -0.0177513)
(-0.00414635 0 -0.00688408)
(-0.000798264 0 -0.0353741)
(-0.00266657 0 -0.0301184)
(-0.000536541 0 -0.0428523)
(-0.00178525 0 -0.041445)
(-0.000394724 0 -0.0437733)
(-0.00124717 0 -0.0447605)
(-0.000306388 0 -0.0408409)
(-0.000898407 0 -0.0431752)
(-0.000241864 0 -0.03588)
(-0.000656178 0 -0.0388696)
(-0.00018974 0 -0.0300339)
(-0.000478528 0 -0.0332495)
(-0.000146657 0 -0.0239736)
(-0.000344688 0 -0.0271686)
(-0.000112812 0 -0.0180397)
(-0.000244854 0 -0.0211048)
(-9.01727e-05 0 -0.0123128)
(-0.000175282 0 -0.0152575)
(-7.69022e-05 0 -0.00678267)
(-0.000130811 0 -0.00960105)
(-0.000101796 0 -0.00422025)
(0.0706284 0 -0.289038)
(0.0880972 0 0.493109)
(-0.0643758 0 -0.266341)
(0.00344652 0 -1.03873)
(-0.0236662 0 0.636081)
(-0.082053 0 0.540985)
(-0.00899602 0 0.672102)
(-0.00525036 0 0.706019)
(0.00531725 0 0.670815)
(-0.000737547 0 0.625261)
(0.020554 0 0.598998)
(0.000641559 0 0.703348)
(0.0652553 0 -0.291932)
(0.0783535 0 0.466566)
(-0.0658717 0 -0.268012)
(0.00193546 0 -1.0193)
(-0.0284594 0 0.598043)
(-0.0873425 0 0.518723)
(-0.0163542 0 0.614721)
(-0.00992742 0 0.655001)
(-0.00634807 0 0.558415)
(-0.018266 0 0.564838)
(0.000830049 0 0.550687)
(-0.00207066 0 0.544548)
(0.00741285 0 0.566703)
(0.00277979 0 0.551059)
(0.0195832 0 0.611532)
(0.0211462 0 0.574544)
(0.0486309 0 0.454842)
(0.00556318 0 0.630418)
(0.132347 0 -0.571939)
(0.145994 0 0.224285)
(-0.10792 0 -0.477032)
(0.0168841 0 -1.3243)
(-0.0494849 0 0.552545)
(-0.137474 0 0.42782)
(-0.0306676 0 0.596869)
(-0.0135716 0 0.641195)
(-0.0221974 0 0.380375)
(-0.0415537 0 0.541807)
(-0.000505272 0 -0.0654044)
(-0.0041742 0 0.234106)
(-0.00968546 0 -0.0287668)
(-0.00402392 0 -0.359811)
(0.00376614 0 0.372017)
(-0.00963864 0 0.282048)
(0.00596588 0 0.446691)
(0.00925028 0 0.450246)
(0.0109364 0 0.447493)
(0.00597999 0 0.439565)
(0.0217823 0 0.474389)
(0.016182 0 0.444445)
(0.0411103 0 0.525284)
(0.02996 0 0.48123)
(0.076416 0 0.460372)
(0.0489511 0 0.526081)
(0.142519 0 -0.466247)
(0.1216 0 0.314019)
(-0.0418246 0 -1.11522)
(0.118902 0 -1.14052)
(-0.157742 0 -0.281352)
(-0.180707 0 -0.892565)
(-0.100519 0 0.421757)
(-0.126698 0 0.32121)
(-0.0651466 0 0.412445)
(-0.0856831 0 0.429307)
(-0.0439447 0 0.308268)
(-0.0581306 0 0.340948)
(-0.0295949 0 0.207926)
(-0.0408385 0 0.239576)
(-0.0195828 0 0.123577)
(-0.0279917 0 0.150361)
(-0.0127167 0 0.0576136)
(-0.0187256 0 0.0779165)
(-0.00820738 0 0.0103451)
(-0.0123582 0 0.0239208)
(-0.00533832 0 -0.0199774)
(-0.0081599 0 -0.0124181)
(-0.00355174 0 -0.0366914)
(-0.00545299 0 -0.0337331)
(-0.0024355 0 -0.0436599)
(-0.00371389 0 -0.043814)
(-0.00171395 0 -0.0443152)
(-0.00257022 0 -0.0463667)
(-0.00122445 0 -0.0412462)
(-0.00178771 0 -0.0443182)
(-0.000876668 0 -0.0362087)
(-0.00123127 0 -0.0397214)
(-0.000621796 0 -0.0303096)
(-0.000824573 0 -0.0339043)
(-0.000433849 0 -0.0242005)
(-0.000524331 0 -0.0276751)
(-0.000299682 0 -0.0182099)
(-0.000305873 0 -0.021484)
(-0.000213636 0 -0.0124246)
(-0.000155305 0 -0.0155125)
(-0.000166672 0 -0.00691607)
(-5.72574e-05 0 -0.00974709)
(-1.15719e-05 0 -0.00436634)
(0.0841649 0 -0.251499)
(0.110784 0 0.463999)
(-0.0759025 0 -0.227241)
(0.00415436 0 -0.932018)
(-0.035164 0 0.614324)
(-0.101979 0 0.513826)
(-0.0115091 0 0.660222)
(-0.00557269 0 0.690249)
(0.00661192 0 0.65888)
(-0.00124198 0 0.613181)
(0.0307164 0 0.57515)
(0.000316866 0 0.687278)
(0.0760165 0 -0.256429)
(0.0972351 0 0.436366)
(-0.079283 0 -0.229164)
(0.00181719 0 -0.915771)
(-0.0426071 0 0.578737)
(-0.110038 0 0.494273)
(-0.0233952 0 0.605576)
(-0.0109799 0 0.642193)
(-0.0100199 0 0.551456)
(-0.0257514 0 0.555921)
(0.000389292 0 0.544994)
(-0.00228132 0 0.537608)
(0.0102324 0 0.559474)
(0.00117445 0 0.544497)
(0.0243014 0 0.595843)
(0.0270546 0 0.565165)
(0.0595088 0 0.410533)
(0.00111796 0 0.606946)
(0.135616 0 -0.518168)
(0.160217 0 0.173547)
(-0.107714 0 -0.412248)
(0.0210354 0 -1.16208)
(-0.0602748 0 0.523466)
(-0.149895 0 0.396194)
(-0.0391244 0 0.586696)
(-0.00887992 0 0.627095)
(-0.0271199 0 0.365589)
(-0.0531404 0 0.533803)
(-0.0013985 0 -0.0712576)
(-0.00114397 0 0.213121)
(-0.0150842 0 -0.0312168)
(-0.00655977 0 -0.348098)
(0.000351759 0 0.364014)
(-0.016802 0 0.26819)
(0.00604224 0 0.442422)
(0.00841987 0 0.444887)
(0.0127844 0 0.43815)
(0.00349406 0 0.432905)
(0.0247748 0 0.45626)
(0.0152817 0 0.432021)
(0.0438165 0 0.490801)
(0.02864 0 0.460533)
(0.0761377 0 0.387621)
(0.0402169 0 0.489232)
(0.135119 0 -0.391321)
(0.119238 0 0.243481)
(-0.0383005 0 -0.911922)
(0.0980111 0 -0.922963)
(-0.161218 0 -0.247891)
(-0.158323 0 -0.730817)
(-0.109759 0 0.346741)
(-0.132246 0 0.250179)
(-0.0772042 0 0.365953)
(-0.0869238 0 0.38217)
(-0.0551806 0 0.276414)
(-0.0618074 0 0.307499)
(-0.038838 0 0.184368)
(-0.0451255 0 0.213539)
(-0.0267234 0 0.106101)
(-0.0317623 0 0.130115)
(-0.0180395 0 0.0450378)
(-0.02177 0 0.0626935)
(-0.0120849 0 0.00165815)
(-0.0146826 0 0.0129714)
(-0.00811279 0 -0.0257863)
(-0.00984263 0 -0.0200797)
(-0.0055094 0 -0.0405429)
(-0.0066069 0 -0.0390005)
(-0.00377858 0 -0.0462618)
(-0.00444533 0 -0.0474873)
(-0.00259545 0 -0.0461402)
(-0.00296421 0 -0.0490005)
(-0.00176004 0 -0.0425818)
(-0.0019157 0 -0.0462689)
(-0.00115414 0 -0.0372195)
(-0.00115246 0 -0.0412055)
(-0.00070852 0 -0.0310862)
(-0.000587165 0 -0.0350492)
(-0.000382277 0 -0.0247892)
(-0.000167785 0 -0.0285543)
(-0.000150852 0 -0.0186308)
(0.000137542 0 -0.0221382)
(1.36967e-06 0 -0.0126899)
(0.000350301 0 -0.0159639)
(8.74983e-05 0 -0.00706647)
(0.000494967 0 -0.010015)
(0.000554089 0 -0.00450128)
(0.0886401 0 -0.212556)
(0.120219 0 0.436471)
(-0.0780574 0 -0.187152)
(0.00498103 0 -0.820886)
(-0.0409698 0 0.591088)
(-0.110052 0 0.489101)
(-0.0124095 0 0.644657)
(-0.00537502 0 0.671209)
(0.00647481 0 0.643059)
(-0.00169266 0 0.600591)
(0.0359782 0 0.549994)
(-0.000950597 0 0.667609)
(0.078631 0 -0.219444)
(0.104557 0 0.407931)
(-0.0831425 0 -0.18903)
(0.0020705 0 -0.807922)
(-0.050234 0 0.558794)
(-0.120458 0 0.472334)
(-0.0274751 0 0.593505)
(-0.0104256 0 0.62702)
(-0.0127597 0 0.542724)
(-0.0312737 0 0.546111)
(-0.00063177 0 0.537599)
(-0.00198227 0 0.529523)
(0.0104283 0 0.551159)
(-0.00212183 0 0.537124)
(0.0228498 0 0.578297)
(0.0291814 0 0.556884)
(0.060072 0 0.371403)
(-0.00574225 0 0.582131)
(0.128508 0 -0.469177)
(0.156934 0 0.127923)
(-0.0947741 0 -0.352251)
(0.0266717 0 -1.01323)
(-0.0591602 0 0.50106)
(-0.145575 0 0.372452)
(-0.0397087 0 0.575603)
(-0.000380053 0 0.614127)
(-0.0274763 0 0.349762)
(-0.0586997 0 0.525648)
(-0.00142412 0 -0.0759419)
(0.00328697 0 0.191866)
(-0.019481 0 -0.0328704)
(-0.00866144 0 -0.332645)
(-0.00395887 0 0.353901)
(-0.0242104 0 0.254256)
(0.00290224 0 0.43616)
(0.00404081 0 0.438426)
(0.00872016 0 0.428321)
(-0.00196412 0 0.427158)
(0.0185651 0 0.439041)
(0.00934572 0 0.42182)
(0.0340179 0 0.46072)
(0.0209721 0 0.443738)
(0.0626732 0 0.335585)
(0.0256772 0 0.456562)
(0.107463 0 -0.324552)
(0.0995112 0 0.189916)
(-0.0335992 0 -0.743902)
(0.0727112 0 -0.746004)
(-0.138617 0 -0.212038)
(-0.127732 0 -0.592623)
(-0.100213 0 0.288272)
(-0.118973 0 0.197168)
(-0.0717824 0 0.323737)
(-0.0751364 0 0.341005)
(-0.0526011 0 0.245017)
(-0.0554187 0 0.278366)
(-0.0379893 0 0.1597)
(-0.041064 0 0.19026)
(-0.0267007 0 0.0869813)
(-0.0290445 0 0.11125)
(-0.0183092 0 0.0307606)
(-0.019934 0 0.0479832)
(-0.0123249 0 -0.0086059)
(-0.013332 0 0.00196722)
(-0.00825001 0 -0.0329923)
(-0.00872625 0 -0.0279396)
(-0.00548772 0 -0.0455941)
(-0.00559232 0 -0.0445893)
(-0.0035908 0 -0.0498643)
(-0.00344912 0 -0.0515131)
(-0.00225385 0 -0.0487814)
(-0.00194403 0 -0.0519768)
(-0.0012845 0 -0.0445723)
(-0.000855301 0 -0.0485325)
(-0.000567042 0 -0.038748)
(-4.81702e-05 0 -0.0429628)
(-3.18421e-05 0 -0.0322647)
(0.000558193 0 -0.0364243)
(0.000363815 0 -0.0256833)
(0.00101294 0 -0.0296206)
(0.000647449 0 -0.0192797)
(0.00134671 0 -0.02294)
(0.000838433 0 -0.01312)
(0.00158291 0 -0.0165303)
(0.000951966 0 -0.0073053)
(0.00175023 0 -0.0103682)
(0.00181877 0 -0.00466636)
(0.0858962 0 -0.172367)
(0.119452 0 0.411393)
(-0.0745278 0 -0.145168)
(0.00493183 0 -0.713937)
(-0.0431063 0 0.569299)
(-0.109702 0 0.468153)
(-0.0127241 0 0.62791)
(-0.00558976 0 0.650954)
(0.00542023 0 0.625906)
(-0.00206433 0 0.588495)
(0.0371437 0 0.525671)
(-0.00241362 0 0.64646)
(0.075195 0 -0.181002)
(0.103465 0 0.382564)
(-0.0807765 0 -0.147044)
(0.00189486 0 -0.703941)
(-0.0532856 0 0.540556)
(-0.121778 0 0.454007)
(-0.0292857 0 0.580279)
(-0.00934917 0 0.61102)
(-0.0145073 0 0.533387)
(-0.0347322 0 0.536258)
(-0.00203476 0 0.529572)
(-0.00125421 0 0.521208)
(0.00880089 0 0.543449)
(-0.00615656 0 0.5299)
(0.0181493 0 0.561511)
(0.0283284 0 0.550652)
(0.0551595 0 0.337378)
(-0.0124453 0 0.557458)
(0.116524 0 -0.421862)
(0.143897 0 0.0870136)
(-0.0775192 0 -0.293688)
(0.0328045 0 -0.883868)
(-0.0526165 0 0.484802)
(-0.132243 0 0.35585)
(-0.0358377 0 0.565072)
(0.00870098 0 0.602941)
(-0.0245764 0 0.334615)
(-0.0595887 0 0.518141)
(-0.000619752 0 -0.0772669)
(0.00838856 0 0.17232)
(-0.0236235 0 -0.0313149)
(-0.0106488 0 -0.312959)
(-0.0103852 0 0.343806)
(-0.0316839 0 0.242371)
(-0.00367009 0 0.429835)
(-0.00271022 0 0.432102)
(0.000978691 0 0.42049)
(-0.00876579 0 0.422566)
(0.0092906 0 0.426287)
(0.000967418 0 0.413208)
(0.0213493 0 0.437887)
(0.0109985 0 0.430632)
(0.046251 0 0.299471)
(0.0127354 0 0.428172)
(0.0790585 0 -0.264845)
(0.0768066 0 0.150681)
(-0.0297427 0 -0.60434)
(0.0515806 0 -0.609514)
(-0.111867 0 -0.17381)
(-0.10024 0 -0.484554)
(-0.084345 0 0.248206)
(-0.0997183 0 0.159178)
(-0.0604052 0 0.291448)
(-0.0606926 0 0.306342)
(-0.0443009 0 0.220264)
(-0.0455904 0 0.253906)
(-0.0319598 0 0.139432)
(-0.0332466 0 0.170598)
(-0.0222617 0 0.0706379)
(-0.0229499 0 0.0950426)
(-0.0149443 0 0.0181625)
(-0.015186 0 0.0351556)
(-0.00968591 0 -0.0179286)
(-0.00950776 0 -0.00770219)
(-0.00603978 0 -0.0397421)
(-0.00552166 0 -0.0349725)
(-0.00353231 0 -0.0504822)
(-0.00279622 0 -0.0496627)
(-0.00178239 0 -0.0534654)
(-0.000910731 0 -0.0552271)
(-0.000528705 0 -0.0515005)
(0.000428927 0 -0.0547679)
(0.000394508 0 -0.0466719)
(0.00140752 0 -0.0506884)
(0.00108794 0 -0.0403902)
(0.00214195 0 -0.0446614)
(0.00161192 0 -0.0335473)
(0.00270043 0 -0.0377707)
(0.00200384 0 -0.0266663)
(0.00312442 0 -0.030677)
(0.00228861 0 -0.0200023)
(0.0034397 0 -0.0237452)
(0.00248443 0 -0.0136098)
(0.00366688 0 -0.0171111)
(0.00260452 0 -0.00758303)
(0.00383319 0 -0.0107418)
(0.00390421 0 -0.00484517)
(0.0790486 0 -0.132511)
(0.11236 0 0.388757)
(-0.0690703 0 -0.102912)
(0.00384021 0 -0.615191)
(-0.042823 0 0.549605)
(-0.104485 0 0.450655)
(-0.0128216 0 0.611637)
(-0.00602766 0 0.630953)
(0.00412599 0 0.609139)
(-0.0023736 0 0.577196)
(0.0356651 0 0.503119)
(-0.00328317 0 0.625434)
(0.0686811 0 -0.142473)
(0.0975789 0 0.360553)
(-0.0757965 0 -0.104913)
(0.00116995 0 -0.607623)
(-0.0529671 0 0.524292)
(-0.117383 0 0.438787)
(-0.0294488 0 0.567209)
(-0.00778916 0 0.595341)
(-0.0153258 0 0.524282)
(-0.0363502 0 0.526843)
(-0.0034974 0 0.521835)
(-0.000153769 0 0.513323)
(0.00622255 0 0.537227)
(-0.0100677 0 0.52342)
(0.0122704 0 0.546633)
(0.0255053 0 0.54662)
(0.0471055 0 0.306225)
(-0.0178323 0 0.534234)
(0.104299 0 -0.380463)
(0.126848 0 0.0488845)
(-0.0591489 0 -0.23976)
(0.039636 0 -0.774903)
(-0.0429869 0 0.473165)
(-0.11405 0 0.345075)
(-0.0297868 0 0.556131)
(0.0167721 0 0.594141)
(-0.0199652 0 0.321221)
(-0.0572974 0 0.511593)
(0.000462791 0 -0.0748725)
(0.0133454 0 0.155654)
(-0.0277299 0 -0.0259186)
(-0.0128715 0 -0.288831)
(-0.0179647 0 0.335243)
(-0.0386711 0 0.233605)
(-0.0112089 0 0.424229)
(-0.0104207 0 0.42574)
(-0.00640704 0 0.414387)
(-0.0162089 0 0.417823)
(0.000406195 0 0.417116)
(-0.00799856 0 0.406148)
(0.00926024 0 0.419565)
(0.000762911 0 0.421008)
(0.0316633 0 0.270497)
(0.00272156 0 0.40263)
(0.0577204 0 -0.217608)
(0.0571384 0 0.119519)
(-0.0255122 0 -0.494214)
(0.0369483 0 -0.505101)
(-0.0889852 0 -0.141398)
(-0.0780386 0 -0.40103)
(-0.0681469 0 0.21808)
(-0.0807962 0 0.130414)
(-0.0478801 0 0.265705)
(-0.0471289 0 0.276997)
(-0.0343717 0 0.200853)
(-0.034891 0 0.233389)
(-0.0240457 0 0.123416)
(-0.0240782 0 0.154147)
(-0.0158911 0 0.0575056)
(-0.0154451 0 0.0814146)
(-0.00973593 0 0.00790658)
(-0.00899918 0 0.0243654)
(-0.00532649 0 -0.025596)
(-0.00427905 0 -0.0158105)
(-0.00226651 0 -0.0453482)
(-0.000986762 0 -0.0408749)
(-0.000159039 0 -0.0545859)
(0.00125153 0 -0.0539268)
(0.00131331 0 -0.0565288)
(0.0027961 0 -0.058352)
(0.00237437 0 -0.0538505)
(0.00389271 0 -0.0571301)
(0.0031626 0 -0.0485172)
(0.00469561 0 -0.0525292)
(0.00376071 0 -0.0418575)
(0.00530289 0 -0.0461266)
(0.00421809 0 -0.0347118)
(0.00577005 0 -0.038946)
(0.0045652 0 -0.0275738)
(0.00613006 0 -0.0316127)
(0.00482234 0 -0.0206829)
(0.00640319 0 -0.0244723)
(0.00500399 0 -0.0140827)
(0.00660534 0 -0.0176499)
(0.00511935 0 -0.00785916)
(0.00675853 0 -0.0111008)
(0.00682973 0 -0.00502413)
(0.0705249 0 -0.0955502)
(0.102245 0 0.368287)
(-0.0634122 0 -0.0632325)
(0.00213333 0 -0.5259)
(-0.041039 0 0.531861)
(-0.0971278 0 0.43574)
(-0.0125724 0 0.596401)
(-0.00622946 0 0.611976)
(0.00314334 0 0.593375)
(-0.00260192 0 0.566719)
(0.0332091 0 0.482687)
(-0.00316921 0 0.60539)
(0.0613388 0 -0.106088)
(0.0898302 0 0.3418)
(-0.0698749 0 -0.0653457)
(0.00035797 0 -0.520147)
(-0.0502606 0 0.509724)
(-0.109901 0 0.425711)
(-0.0282201 0 0.554975)
(-0.0055008 0 0.580648)
(-0.0152629 0 0.515912)
(-0.0363952 0 0.518205)
(-0.0046764 0 0.51498)
(0.00129519 0 0.506265)
(0.00347853 0 0.532753)
(-0.0132709 0 0.517983)
(0.0062094 0 0.534019)
(0.0216863 0 0.544799)
(0.0385615 0 0.276583)
(-0.0218501 0 0.512666)
(0.0946073 0 -0.348394)
(0.110566 0 0.0115206)
(-0.0410017 0 -0.193124)
(0.0466429 0 -0.684497)
(-0.0322603 0 0.465523)
(-0.0946077 0 0.339247)
(-0.0232348 0 0.549374)
(0.022824 0 0.588124)
(-0.0151133 0 0.310161)
(-0.0532603 0 0.506179)
(0.00139688 0 -0.0687938)
(0.0174086 0 0.142184)
(-0.0314406 0 -0.0167003)
(-0.015308 0 -0.260728)
(-0.0254898 0 0.328614)
(-0.0447754 0 0.228263)
(-0.0190311 0 0.418998)
(-0.0182581 0 0.419658)
(-0.0147391 0 0.409234)
(-0.0238349 0 0.413583)
(-0.00969362 0 0.409872)
(-0.0165107 0 0.400921)
(-0.00161007 0 0.402896)
(-0.00915486 0 0.412222)
(0.0201506 0 0.244376)
(-0.00536834 0 0.37782)
(0.0424483 0 -0.183958)
(0.0416763 0 0.0928523)
(-0.0209559 0 -0.410999)
(0.0270981 0 -0.425561)
(-0.0703472 0 -0.117583)
(-0.0606908 0 -0.336036)
(-0.0535714 0 0.192344)
(-0.0642602 0 0.107258)
(-0.0357252 0 0.24324)
(-0.0350912 0 0.251157)
(-0.0240605 0 0.184389)
(-0.0241545 0 0.215672)
(-0.0153719 0 0.110075)
(-0.0145033 0 0.140304)
(-0.00859403 0 0.0466614)
(-0.00732889 0 0.0700873)
(-0.00352172 0 -0.000493243)
(-0.00203525 0 0.0154734)
(7.42949e-05 0 -0.0318174)
(0.0018111 0 -0.0224232)
(0.0025393 0 -0.0498552)
(0.0044359 0 -0.0456297)
(0.0042174 0 -0.0578613)
(0.00618907 0 -0.0573223)
(0.00538215 0 -0.0589666)
(0.00737724 0 -0.0608242)
(0.00621792 0 -0.0557252)
(0.00820912 0 -0.0589909)
(0.00683986 0 -0.050001)
(0.0088165 0 -0.0539817)
(0.00731577 0 -0.043052)
(0.00927811 0 -0.0472925)
(0.00768494 0 -0.0356759)
(0.00963794 0 -0.0398947)
(0.00797102 0 -0.0283422)
(0.00992121 0 -0.0323838)
(0.00818925 0 -0.0212766)
(0.0101428 0 -0.0250894)
(0.00834961 0 -0.0145113)
(0.0103135 0 -0.0181255)
(0.00845646 0 -0.00812033)
(0.0104486 0 -0.0114332)
(0.010519 0 -0.00519824)
(0.0616049 0 -0.0627563)
(0.0911505 0 0.349765)
(-0.0580687 0 -0.0276244)
(0.000175356 0 -0.446117)
(-0.0385026 0 0.515781)
(-0.0891873 0 0.422696)
(-0.0118922 0 0.582209)
(-0.00601 0 0.594235)
(0.0026678 0 0.578651)
(-0.00271797 0 0.557013)
(0.0308561 0 0.464407)
(-0.00218622 0 0.586598)
(0.0543767 0 -0.0729309)
(0.0818529 0 0.32612)
(-0.0635042 0 -0.0297243)
(-0.000135499 0 -0.44156)
(-0.0460314 0 0.496568)
(-0.100897 0 0.414062)
(-0.0257835 0 0.543839)
(-0.00247426 0 0.567149)
(-0.0143566 0 0.508544)
(-0.0350836 0 0.510587)
(-0.00539378 0 0.509275)
(0.00306277 0 0.50029)
(0.00087393 0 0.529935)
(-0.0154225 0 0.513805)
(0.000838551 0 0.523257)
(0.0175709 0 0.544823)
(0.0313448 0 0.247514)
(-0.0249675 0 0.492329)
(0.0877099 0 -0.325825)
(0.0973668 0 -0.0260561)
(-0.0246576 0 -0.153572)
(0.0522805 0 -0.609585)
(-0.0225816 0 0.461526)
(-0.0769436 0 0.337864)
(-0.0175066 0 0.54472)
(0.0260749 0 0.58474)
(-0.0109052 0 0.301543)
(-0.0487093 0 0.501778)
(0.00144825 0 -0.0593107)
(0.02008 0 0.132105)
(-0.0347075 0 -0.00402578)
(-0.0178471 0 -0.229786)
(-0.032546 0 0.323895)
(-0.0499008 0 0.226323)
(-0.0266502 0 0.414069)
(-0.0257735 0 0.414107)
(-0.0227008 0 0.404807)
(-0.0311678 0 0.409682)
(-0.0183906 0 0.403238)
(-0.024445 0 0.396455)
(-0.0101994 0 0.386251)
(-0.0186192 0 0.40332)
(0.0110923 0 0.219622)
(-0.0124374 0 0.353546)
(0.0310695 0 -0.161061)
(0.0295401 0 0.068961)
(-0.0169712 0 -0.348435)
(0.0197348 0 -0.365295)
(-0.055223 0 -0.100629)
(-0.0474966 0 -0.2857)
(-0.0410425 0 0.169455)
(-0.0504322 0 0.0876837)
(-0.0245305 0 0.222676)
(-0.0246607 0 0.227248)
(-0.0139247 0 0.169738)
(-0.0139147 0 0.199564)
(-0.0064245 0 0.0986106)
(-0.00506589 0 0.128355)
(-0.000775846 0 0.0375743)
(0.000974808 0 0.0606471)
(0.00333072 0 -0.00738342)
(0.00533463 0 0.00827434)
(0.00617936 0 -0.0368178)
(0.00841754 0 -0.0276616)
(0.00808532 0 -0.0534021)
(0.0104412 0 -0.0493063)
(0.00934893 0 -0.0603891)
(0.0117445 0 -0.0598792)
(0.0102043 0 -0.0608199)
(0.0125948 0 -0.0626397)
(0.0108083 0 -0.0571394)
(0.0131711 0 -0.0603358)
(0.011256 0 -0.0511222)
(0.013585 0 -0.0550276)
(0.0116017 0 -0.0439649)
(0.0138999 0 -0.0481396)
(0.0118755 0 -0.0364279)
(0.0141502 0 -0.0405985)
(0.0120946 0 -0.0289599)
(0.0143542 0 -0.0329746)
(0.0122693 0 -0.021774)
(0.0145218 0 -0.0255833)
(0.0124048 0 -0.0148887)
(0.0146587 0 -0.0185275)
(0.0125007 0 -0.00836258)
(0.0147733 0 -0.0117318)
(0.0148414 0 -0.00536372)
(0.0528508 0 -0.0339945)
(0.0800402 0 0.333002)
(-0.0531837 0 0.003821)
(-0.0018281 0 -0.375428)
(-0.0356444 0 0.501074)
(-0.0812356 0 0.411003)
(-0.010844 0 0.568973)
(-0.00540763 0 0.577702)
(0.00259731 0 0.564897)
(-0.00271442 0 0.548052)
(0.0288977 0 0.448212)
(-0.000745215 0 0.569064)
(0.0482165 0 -0.042902)
(0.0741617 0 0.31324)
(-0.0568864 0 0.00186693)
(-0.000144839 0 -0.371491)
(-0.0408606 0 0.484569)
(-0.0910783 0 0.403379)
(-0.0223694 0 0.533858)
(0.00109875 0 0.554822)
(-0.0126773 0 0.50232)
(-0.0325949 0 0.504126)
(-0.00557236 0 0.504877)
(0.00512836 0 0.495553)
(-0.00173695 0 0.528519)
(-0.0164122 0 0.511248)
(-0.00297326 0 0.513687)
(0.0136559 0 0.545647)
(0.0258445 0 0.218702)
(-0.0274084 0 0.473117)
(0.0822394 0 -0.310648)
(0.0871156 0 -0.0636527)
(-0.0117459 0 -0.119103)
(0.0549364 0 -0.546928)
(-0.0155242 0 0.460779)
(-0.0628567 0 0.340382)
(-0.0135431 0 0.541652)
(0.0261083 0 0.58342)
(-0.00781216 0 0.295129)
(-0.0445548 0 0.497957)
(0.000604904 0 -0.0470043)
(0.0210782 0 0.125238)
(-0.0376048 0 0.0114643)
(-0.020516 0 -0.197085)
(-0.0389055 0 0.321039)
(-0.0540408 0 0.22749)
(-0.0336838 0 0.409587)
(-0.0326978 0 0.40919)
(-0.0302008 0 0.400959)
(-0.0378939 0 0.406242)
(-0.026711 0 0.396719)
(-0.031802 0 0.392839)
(-0.0184451 0 0.369279)
(-0.0272443 0 0.394336)
(0.00343728 0 0.195861)
(-0.0186432 0 0.328598)
(0.0218561 0 -0.145792)
(0.0196197 0 0.0469335)
(-0.0142633 0 -0.30087)
(0.0132882 0 -0.319984)
(-0.0432911 0 -0.0887036)
(-0.037802 0 -0.247502)
(-0.0305271 0 0.148574)
(-0.0390582 0 0.0700649)
(-0.0145822 0 0.203279)
(-0.0157252 0 0.204161)
(-0.00441509 0 0.156343)
(-0.0045073 0 0.184121)
(0.00233219 0 0.088686)
(0.00387565 0 0.117605)
(0.00711151 0 0.0300315)
(0.00913774 0 0.0526598)
(0.0104544 0 -0.0129162)
(0.0127834 0 0.00241405)
(0.0126762 0 -0.0407055)
(0.0152292 0 -0.0317474)
(0.0140943 0 -0.0560628)
(0.0167496 0 -0.0520417)
(0.0149859 0 -0.0622154)
(0.0176678 0 -0.0616835)
(0.0155582 0 -0.0621154)
(0.0182227 0 -0.0638545)
(0.0159457 0 -0.0581085)
(0.0185718 0 -0.0611988)
(0.016228 0 -0.0518891)
(0.0188104 0 -0.0556868)
(0.0164482 0 -0.0445997)
(0.018991 0 -0.0486792)
(0.0166289 0 -0.0369681)
(0.0191398 0 -0.0410632)
(0.0167818 0 -0.0294251)
(0.0192698 0 -0.0333869)
(0.0169125 0 -0.0221708)
(0.0193864 0 -0.0259529)
(0.0170221 0 -0.0152098)
(0.0194908 0 -0.0188524)
(0.0171057 0 -0.00858144)
(0.0195852 0 -0.0119921)
(0.0196501 0 -0.00551757)
(0.0445339 0 -0.00881409)
(0.0691905 0 0.317754)
(-0.0486623 0 0.0314046)
(-0.00369064 0 -0.313297)
(-0.0325714 0 0.48752)
(-0.0732965 0 0.400275)
(-0.00954123 0 0.556686)
(-0.0045075 0 0.562348)
(0.00271889 0 0.552126)
(-0.00260565 0 0.539878)
(0.0271428 0 0.433964)
(0.000736842 0 0.552782)
(0.0428625 0 -0.0157115)
(0.0667499 0 0.30276)
(-0.0500961 0 0.0296848)
(0.000365753 0 -0.309519)
(-0.0350405 0 0.473527)
(-0.0806815 0 0.393341)
(-0.0182113 0 0.525034)
(0.00500662 0 0.543602)
(-0.0103183 0 0.497323)
(-0.0290985 0 0.498863)
(-0.00511392 0 0.50194)
(0.0075238 0 0.492084)
(-0.00385903 0 0.528264)
(-0.0163283 0 0.510411)
(-0.00577261 0 0.504892)
(0.0104316 0 0.546923)
(0.0215793 0 0.190545)
(-0.0288204 0 0.454882)
(0.0764945 0 -0.300655)
(0.0785831 0 -0.100263)
(-0.00316652 0 -0.0881861)
(0.05375 0 -0.493821)
(-0.0116978 0 0.462733)
(-0.0528212 0 0.34607)
(-0.0118209 0 0.539578)
(0.0230314 0 0.583502)
(-0.00611942 0 0.290489)
(-0.0413822 0 0.494156)
(-0.000991072 0 -0.0325745)
(0.0203468 0 0.121054)
(-0.0401976 0 0.0290695)
(-0.0233755 0 -0.163531)
(-0.0443981 0 0.319959)
(-0.0572115 0 0.231262)
(-0.0399564 0 0.405721)
(-0.0388052 0 0.405007)
(-0.0370362 0 0.397729)
(-0.043743 0 0.403358)
(-0.0341846 0 0.390421)
(-0.0383144 0 0.389885)
(-0.0257038 0 0.351989)
(-0.0346224 0 0.385118)
(-0.00377054 0 0.172694)
(-0.0237004 0 0.303592)
(0.0137138 0 -0.136363)
(0.0113879 0 0.0260235)
(-0.0129962 0 -0.26518)
(0.00731364 0 -0.286477)
(-0.0340396 0 -0.0814109)
(-0.030733 0 -0.219811)
(-0.0216797 0 0.128614)
(-0.0295899 0 0.0530038)
(-0.00581353 0 0.184303)
(-0.00792394 0 0.181188)
(0.0043533 0 0.143615)
(0.00404773 0 0.16868)
(0.0106721 0 0.0798869)
(0.0122139 0 0.107538)
(0.0148383 0 0.0237368)
(0.0169794 0 0.0456971)
(0.0175757 0 -0.017311)
(0.0200874 0 -0.00238485)
(0.019295 0 -0.0436331)
(0.0220307 0 -0.034909)
(0.020315 0 -0.0579416)
(0.0231489 0 -0.0540094)
(0.0208977 0 -0.0634115)
(0.0237547 0 -0.0628627)
(0.0212306 0 -0.0629026)
(0.024067 0 -0.0645613)
(0.0214325 0 -0.0586671)
(0.0242274 0 -0.0616484)
(0.021571 0 -0.0523261)
(0.0243193 0 -0.0560104)
(0.0216813 0 -0.0449734)
(0.0243865 0 -0.0489494)
(0.02178 0 -0.0373081)
(0.0244496 0 -0.041317)
(0.0218742 0 -0.0297441)
(0.0245169 0 -0.0336409)
(0.0219656 0 -0.0224696)
(0.0245902 0 -0.0262113)
(0.0220514 0 -0.0154737)
(0.024667 0 -0.0191071)
(0.0221234 0 -0.0087748)
(0.0247437 0 -0.0122162)
(0.0248057 0 -0.00565965)
(0.0367758 0 0.0129454)
(0.058627 0 0.303693)
(-0.0442863 0 0.0552771)
(-0.00523789 0 -0.259256)
(-0.0292428 0 0.474981)
(-0.0653012 0 0.390246)
(-0.00806976 0 0.545423)
(-0.00336498 0 0.548233)
(0.00286993 0 0.540416)
(-0.00240827 0 0.532585)
(0.0253538 0 0.421446)
(0.00202716 0 0.537792)
(0.0382243 0 0.00864435)
(0.0596411 0 0.29418)
(-0.0431302 0 0.0538457)
(0.00136749 0 -0.255282)
(-0.0287204 0 0.463299)
(-0.0698582 0 0.383735)
(-0.013474 0 0.51735)
(0.00910219 0 0.533438)
(-0.00736901 0 0.493551)
(-0.0247703 0 0.494793)
(-0.00381953 0 0.50046)
(0.0103084 0 0.489717)
(-0.00472394 0 0.529064)
(-0.015254 0 0.511014)
(-0.00772348 0 0.496805)
(0.00844024 0 0.548923)
(0.0182186 0 0.163739)
(-0.0285528 0 0.437588)
(0.0693746 0 -0.293929)
(0.0708799 0 -0.134367)
(0.000479658 0 -0.0600571)
(0.0488297 0 -0.447891)
(-0.0109868 0 0.466577)
(-0.0464466 0 0.353714)
(-0.0122764 0 0.537934)
(0.017471 0 0.584362)
(-0.00590376 0 0.287117)
(-0.0394435 0 0.489908)
(-0.00353447 0 -0.0167582)
(0.0180644 0 0.119121)
(-0.0425701 0 0.0480173)
(-0.0264063 0 -0.130124)
(-0.0489028 0 0.320405)
(-0.0594537 0 0.236947)
(-0.0452506 0 0.40253)
(-0.0438845 0 0.401568)
(-0.0428544 0 0.395082)
(-0.0484823 0 0.400991)
(-0.0403682 0 0.384305)
(-0.0436251 0 0.387309)
(-0.0314357 0 0.334576)
(-0.0403267 0 0.37541)
(-0.00954396 0 0.150154)
(-0.0273235 0 0.278633)
(0.00674293 0 -0.131623)
(0.00474373 0 0.00654556)
(-0.0125658 0 -0.239575)
(0.00228646 0 -0.262255)
(-0.0266372 0 -0.0789425)
(-0.0252301 0 -0.201295)
(-0.0139488 0 0.108562)
(-0.021397 0 0.0354896)
(0.00206234 0 0.165167)
(-0.000806783 0 0.158005)
(0.0124248 0 0.131037)
(0.011932 0 0.152941)
(0.0185362 0 0.0717711)
(0.0200258 0 0.0978011)
(0.0222673 0 0.0183418)
(0.0244765 0 0.0394616)
(0.0245507 0 -0.0208299)
(0.0271687 0 -0.00638781)
(0.025875 0 -0.0458001)
(0.0287159 0 -0.0373443)
(0.0265792 0 -0.0591898)
(0.0295148 0 -0.0553677)
(0.0269154 0 -0.0640919)
(0.0298718 0 -0.0635431)
(0.0270565 0 -0.0632687)
(0.0299909 0 -0.064861)
(0.0271089 0 -0.058882)
(0.0300014 0 -0.0617652)
(0.0271313 0 -0.0524847)
(0.0299769 0 -0.056063)
(0.0271527 0 -0.0451259)
(0.0299545 0 -0.0490019)
(0.0271852 0 -0.0374779)
(0.0299501 0 -0.0414006)
(0.0272322 0 -0.029939)
(0.0299684 0 -0.0337677)
(0.0272921 0 -0.0226848)
(0.0300083 0 -0.0263807)
(0.0273591 0 -0.0156885)
(0.0300639 0 -0.0193058)
(0.0274218 0 -0.00894598)
(0.0301272 0 -0.0124113)
(0.0301873 0 -0.00579224)
(0.0296574 0 0.0312648)
(0.0485661 0 0.290538)
(-0.0399242 0 0.0754961)
(-0.0063688 0 -0.212868)
(-0.0256613 0 0.463389)
(-0.0573527 0 0.380738)
(-0.00646754 0 0.535256)
(-0.00202593 0 0.535437)
(0.00323652 0 0.529845)
(-0.00211254 0 0.526116)
(0.0235196 0 0.410435)
(0.00312697 0 0.52427)
(0.0342935 0 0.0300297)
(0.0530827 0 0.286997)
(-0.0360359 0 0.0743971)
(0.00277438 0 -0.208396)
(-0.02208 0 0.453775)
(-0.0588984 0 0.374431)
(-0.00822731 0 0.510785)
(0.0133013 0 0.524203)
(-0.0039619 0 0.490859)
(-0.0198335 0 0.49195)
(-0.00153506 0 0.500178)
(0.0135152 0 0.488099)
(-0.00427124 0 0.530842)
(-0.0130951 0 0.512838)
(-0.00804779 0 0.489566)
(0.0081865 0 0.55144)
(0.0159601 0 0.139184)
(-0.026043 0 0.421583)
(0.0608571 0 -0.288577)
(0.0640758 0 -0.164298)
(-0.000453569 0 -0.0343433)
(0.0410387 0 -0.407017)
(-0.0128924 0 0.471289)
(-0.0430629 0 0.362007)
(-0.0144485 0 0.536208)
(0.0104019 0 0.585399)
(-0.00701169 0 0.284538)
(-0.0386746 0 0.48495)
(-0.00673779 0 -0.000269502)
(0.0145956 0 0.118898)
(-0.0446919 0 0.0674935)
(-0.0294885 0 -0.097642)
(-0.0523307 0 0.321984)
(-0.0608284 0 0.243804)
(-0.0493785 0 0.399944)
(-0.0477954 0 0.398789)
(-0.0473869 0 0.392804)
(-0.0519934 0 0.399024)
(-0.0449404 0 0.378025)
(-0.0475334 0 0.384774)
(-0.0353127 0 0.31703)
(-0.0441017 0 0.364945)
(-0.0136974 0 0.128496)
(-0.0293179 0 0.253989)
(0.00120394 0 -0.130479)
(-0.000224694 0 -0.0112753)
(-0.0120832 0 -0.222491)
(-0.00126578 0 -0.245586)
(-0.0202344 0 -0.0811528)
(-0.0203601 0 -0.190569)
(-0.00685107 0 0.0878789)
(-0.0139918 0 0.017016)
(0.00937919 0 0.145644)
(0.00592158 0 0.134505)
(0.0199937 0 0.118359)
(0.0193033 0 0.136819)
(0.0260047 0 0.0640593)
(0.0274112 0 0.0882245)
(0.0294144 0 0.0135957)
(0.031658 0 0.0337632)
(0.0313367 0 -0.0236812)
(0.0340176 0 -0.00975762)
(0.0323445 0 -0.0473788)
(0.0352443 0 -0.0391977)
(0.0327962 0 -0.0599485)
(0.035785 0 -0.056239)
(0.0329369 0 -0.0643715)
(0.0359424 0 -0.0638277)
(0.0329272 0 -0.0633072)
(0.0359087 0 -0.0648404)
(0.0328631 0 -0.0588296)
(0.0358022 0 -0.0616224)
(0.0327958 0 -0.0524274)
(0.035688 0 -0.0559057)
(0.0327491 0 -0.0451075)
(0.0355975 0 -0.0488876)
(0.0327316 0 -0.0375175)
(0.0355425 0 -0.0413554)
(0.0327435 0 -0.0300398)
(0.0355247 0 -0.0337996)
(0.0327804 0 -0.0228374)
(0.0355405 0 -0.026485)
(0.0328339 0 -0.0158667)
(0.0355813 0 -0.0194644)
(0.0328901 0 -0.00910069)
(0.0356352 0 -0.0125863)
(0.0356944 0 -0.00591894)
(0.0233373 0 0.0462595)
(0.0395065 0 0.278232)
(-0.0356107 0 0.0922129)
(-0.00710035 0 -0.173569)
(-0.0219588 0 0.452695)
(-0.0497268 0 0.371637)
(-0.00474157 0 0.526187)
(-0.000555658 0 0.523959)