/*--------------------------------*- C++ -*----------------------------------*\
  =========                 |
  \\      /  F ield         | OpenFOAM: The Open Source CFD Toolbox
   \\    /   O peration     | Website:  https://openfoam.org
    \\  /    A nd           | Version:  9
     \\/     M anipulation  |
\*---------------------------------------------------------------------------*/
FoamFile
{
    format      ascii;
    class       volScalarField;
    location    "0.05";
    object      alpha.water;
}
// * * * * * * * * * * * * * * * * * * * * * * * * * * * * * * * * * * * * * //

dimensions      [0 0 0 0 0 0 0];

internalField   nonuniform List<scalar> 
5000
(
5.63438e-260
1.67983e-258
2.52389e-257
3.27166e-256
7.05871e-255
1.75075e-253
4.64943e-252
1.72859e-250
1.18096e-249
1.81191e-250
7.49396e-252
3.31528e-253
1.52851e-254
7.58576e-256
4.07491e-257
2.1655e-258
1.08279e-259
5.21024e-261
2.44708e-262
1.12529e-263
6.13888e-265
3.44487e-266
1.99183e-267
1.18852e-268
7.32912e-270
4.67674e-271
3.0915e-272
2.11911e-273
1.50749e-274
1.11373e-275
8.5503e-277
6.82452e-278
5.66532e-279
4.89305e-280
4.39794e-281
4.11452e-282
4.00733e-283
4.06349e-284
4.29021e-285
4.71636e-286
5.39869e-287
6.43471e-288
7.98666e-289
1.03259e-289
1.39188e-290
1.96058e-291
2.90182e-292
4.56859e-293
7.8289e-294
1.48476e-294
1.92979e-259
5.97612e-258
8.1298e-257
9.45089e-256
1.74275e-254
3.88294e-253
9.56585e-252
2.90239e-250
1.75216e-249
3.16428e-250
1.42921e-251
6.86259e-253
3.49119e-254
1.94766e-255
1.18756e-256
7.09246e-258
3.91002e-259
2.04533e-260
1.03657e-261
5.11882e-263
2.98318e-264
1.78091e-265
1.09151e-266
6.88223e-268
4.47228e-269
3.00003e-270
2.08029e-271
1.49291e-272
1.10992e-273
8.55586e-275
6.84305e-276
5.68203e-277
4.90043e-278
4.3915e-279
4.09053e-280
3.96139e-281
3.98944e-282
4.17887e-283
4.55408e-284
5.16596e-285
6.10693e-286
7.54606e-287
9.81982e-288
1.36963e-288
2.12292e-289
3.87222e-290
8.75227e-291
2.444e-291
7.90105e-292
2.6075e-292
4.28457e-259
1.1665e-257
1.45457e-256
1.59271e-255
2.62789e-254
5.43358e-253
1.29228e-251
3.76679e-250
2.37758e-249
4.25295e-250
1.88723e-251
9.20692e-253
4.99775e-254
3.07785e-255
2.09075e-256
1.38198e-257
8.33528e-259
4.70939e-260
2.55512e-261
1.34358e-262
8.30007e-264
5.23662e-265
3.38351e-266
2.24411e-267
1.53094e-268
1.07615e-269
7.80622e-271
5.85079e-272
4.53592e-273
3.64071e-274
3.02769e-275
2.61049e-276
2.33485e-277
2.16741e-278
2.08931e-279
2.09314e-280
2.18308e-281
2.38057e-282
2.74439e-283
3.43601e-284
4.93661e-285
8.78976e-286
2.02077e-286
5.74127e-287
1.85756e-287
6.44525e-288
2.3259e-288
8.60273e-289
3.21275e-289
1.13159e-289
8.20513e-259
1.83153e-257
2.04676e-256
2.09438e-255
3.18545e-254
6.28668e-253
1.49645e-251
4.6087e-250
3.24175e-249
5.31885e-250
2.16283e-251
1.03613e-252
5.92219e-254
3.98218e-255
2.96396e-256
2.1305e-257
1.38714e-258
8.38635e-260
4.83671e-261
2.69282e-262
1.75499e-263
1.16561e-264
7.9133e-266
5.50505e-267
3.9325e-268
2.88974e-269
2.18777e-270
1.70873e-271
1.37839e-272
1.14959e-273
9.92262e-275
8.87589e-276
8.24947e-277
8.01852e-278
8.29397e-279
9.53079e-280
1.32206e-280
2.41756e-281
5.81478e-282
1.67646e-282
5.30816e-283
1.76241e-283
6.01936e-284
2.09957e-284
7.45941e-285
2.69684e-285
9.91645e-286
3.70287e-286
1.39064e-286
4.91565e-287
1.48837e-258
2.69355e-257
2.65362e-256
2.48686e-255
3.55204e-254
6.88108e-253
1.69541e-251
5.71459e-250
4.54866e-249
6.62063e-250
2.42127e-251
1.11451e-252
6.58701e-254
4.73823e-255
3.77604e-256
2.89859e-257
2.01515e-258
1.29555e-259
7.90974e-261
4.64788e-262
3.18697e-263
2.22259e-264
1.58148e-265
1.15103e-266
8.58726e-268
6.57945e-269
5.18669e-270
4.2162e-271
3.54826e-272
3.12236e-273
2.95253e-274
3.20981e-275
4.49969e-276
8.74152e-277
2.19574e-277
6.3217e-278
1.93727e-278
6.12844e-279
1.97976e-279
6.50809e-280
2.17487e-280
7.38712e-281
2.55045e-281
8.952e-282
3.19483e-282
1.15941e-282
4.27799e-283
1.60267e-283
6.03757e-284
2.13991e-284
2.60991e-258
3.94379e-257
3.48332e-256
2.98222e-255
4.07957e-254
8.01037e-253
2.09538e-251
7.69e-250
6.90179e-249
8.80193e-250
2.9207e-251
1.2665e-252
7.48148e-254
5.56467e-255
4.62773e-256
3.73302e-257
2.74749e-258
1.87028e-259
1.2054e-260
7.45605e-262
5.36316e-263
3.9152e-264
2.91112e-265
2.2129e-266
1.7302e-267
1.41222e-268
1.25401e-269
1.33714e-270
1.96513e-271
4.07751e-272
1.05049e-272
2.98016e-273
8.80855e-274
2.66089e-274
8.16681e-275
2.54292e-275
8.03181e-276
2.57407e-276
8.37375e-277
2.76616e-277
9.28204e-278
3.16479e-278
1.0967e-278
3.86334e-279
1.38368e-279
5.03907e-280
1.86573e-280
7.01325e-281
2.65065e-281
9.42203e-282
4.55576e-258
6.00502e-257
4.95802e-256
4.04596e-255
5.51151e-254
1.13289e-252
3.1673e-251
1.22427e-249
1.20935e-248
1.36913e-249
4.2163e-251
1.69374e-252
9.53793e-254
7.00106e-255
5.88925e-256
4.90798e-257
3.78429e-258
2.70817e-259
1.83263e-260
1.1898e-261
9.02222e-263
7.11686e-264
6.20457e-265
6.80959e-266
1.07553e-266
2.34753e-267
6.07355e-268
1.68334e-268
4.80366e-269
1.39343e-269
4.09343e-270
1.21679e-270
3.6603e-271
1.11477e-271
3.43918e-272
1.0754e-272
3.41006e-273
1.09711e-273
3.58281e-274
1.18811e-274
4.00218e-275
1.36983e-275
4.76508e-276
1.68497e-276
6.05755e-277
2.21423e-277
8.22831e-278
3.10418e-278
1.17733e-278
4.1982e-279
9.69659e-258
1.14491e-256
8.98404e-256
7.34243e-255
1.04968e-253
2.28998e-252
6.69513e-251
2.6063e-249
2.82206e-248
2.87546e-249
8.61605e-251
3.22855e-252
1.66597e-253
1.14145e-254
9.28701e-256
7.76243e-257
6.21425e-258
4.86825e-259
4.11233e-260
4.43675e-261
7.68085e-262
1.70949e-262
4.29813e-263
1.13976e-263
3.10564e-264
8.6155e-265
2.42446e-265
6.90883e-266
1.9919e-266
5.80812e-267
1.7128e-267
5.10957e-268
1.54259e-268
4.71549e-269
1.46033e-269
4.58412e-270
1.45939e-270
4.71417e-271
1.54576e-271
5.14693e-272
1.74086e-272
5.98283e-273
2.08967e-273
7.41922e-274
2.67798e-274
9.82787e-275
3.66654e-275
1.3886e-275
5.28655e-276
1.89169e-276
9.37834e-257
8.96202e-256
5.35141e-255
3.12583e-254
4.05031e-253
8.96561e-252
2.63314e-250
1.00242e-248
1.15991e-247
1.10797e-248
3.44876e-250
1.27741e-251
6.2234e-253
4.01203e-254
3.48701e-255
4.54431e-256
8.63427e-257
1.91848e-257
4.38592e-258
1.0014e-258
2.54616e-259
6.60271e-260
1.74609e-260
4.70211e-261
1.28747e-261
3.57918e-262
1.00897e-262
2.88107e-263
8.327e-264
2.43505e-264
7.20405e-265
2.15663e-265
6.53523e-266
2.00554e-266
6.236e-267
1.96568e-267
6.28438e-268
2.03871e-268
6.71387e-269
2.24528e-269
7.62748e-270
2.63283e-270
9.23606e-271
3.29345e-271
1.19391e-271
4.40031e-272
1.64863e-272
6.26996e-273
2.39688e-273
8.60964e-274
1.11214e-254
8.09588e-254
3.46728e-253
9.94598e-253
5.78113e-252
1.01089e-250
2.71488e-249
9.46012e-248
1.05133e-246
1.03945e-247
3.72777e-249
1.53691e-250
8.28069e-252
8.26595e-253
2.47647e-253
9.24278e-254
2.80739e-254
7.30082e-255
1.75176e-255
4.05755e-256
1.0365e-256
2.69257e-257
7.12581e-258
1.92001e-258
5.26137e-259
1.46454e-259
4.13602e-260
1.18382e-260
3.43132e-261
1.00673e-261
2.98936e-262
8.98473e-263
2.73414e-263
8.42765e-264
2.63247e-264
8.33681e-265
2.67806e-265
8.72998e-266
2.88901e-266
9.70905e-267
3.31456e-267
1.14976e-267
4.05327e-268
1.45243e-268
5.29095e-269
1.9595e-269
7.37682e-270
2.81887e-270
1.08264e-270
3.90583e-271
2.16665e-252
1.40576e-251
5.44791e-251
1.24315e-250
3.29262e-250
3.16332e-249
6.75517e-248
1.9915e-246
1.87149e-245
2.08939e-246
9.16402e-248
4.55213e-249
3.44021e-250
9.1734e-251
4.74954e-251
1.90771e-251
5.81838e-252
1.50896e-252
3.60843e-253
8.32966e-254
2.12353e-254
5.50937e-255
1.4574e-255
3.92935e-256
1.07881e-256
3.01271e-257
8.54715e-258
2.46053e-258
7.18093e-259
2.12332e-259
6.35939e-260
1.92918e-260
5.92885e-261
1.84647e-261
5.82981e-262
1.86675e-262
6.06469e-263
1.99982e-263
6.69545e-264
2.27671e-264
7.86477e-265
2.76064e-265
9.84811e-266
3.57089e-266
1.31621e-266
4.93193e-267
1.87834e-267
7.25994e-268
2.81901e-268
1.02669e-268
2.83149e-250
1.75775e-249
6.79479e-249
1.57328e-248
3.31502e-248
1.85742e-247
2.88586e-246
6.88324e-245
5.1502e-244
6.66079e-245
3.57e-246
2.17822e-247
2.54272e-248
1.10224e-248
5.96927e-249
2.34602e-249
7.07978e-250
1.83023e-250
4.36982e-251
1.00757e-251
2.56905e-252
6.66945e-253
1.76622e-253
4.77058e-254
1.31335e-254
3.68163e-255
1.04957e-255
3.03918e-256
8.92952e-257
2.66024e-257
8.03275e-258
2.45817e-258
7.62434e-259
2.39737e-259
7.64439e-260
2.47273e-260
8.11684e-261
2.7047e-261
9.15174e-262
3.14529e-262
1.09822e-262
3.8965e-263
1.405e-263
5.14924e-264
1.91828e-264
7.26433e-265
2.79578e-265
1.09181e-265
4.28193e-266
1.57325e-266
2.40802e-248
1.45103e-247
5.66819e-247
1.38063e-246
2.83518e-246
1.16695e-245
1.32067e-244
2.45348e-243
1.43279e-242
2.14857e-243
1.38478e-244
1.04199e-245
1.80779e-246
9.54656e-247
5.06209e-247
1.94503e-247
5.82533e-248
1.50695e-248
3.60796e-249
8.33495e-250
2.13016e-250
5.5437e-251
1.47195e-251
3.98759e-252
1.10169e-252
3.10149e-253
8.88635e-254
2.58802e-254
7.65293e-255
2.29596e-255
6.9851e-256
2.15467e-256
6.73908e-257
2.13748e-257
6.87686e-258
2.24486e-258
7.43755e-259
2.50173e-259
8.54553e-260
2.96502e-260
1.0452e-260
3.74386e-261
1.36286e-261
5.04244e-262
1.89633e-262
7.24904e-263
2.81605e-263
1.10993e-263
4.39225e-264
1.62689e-264
1.44449e-246
8.50071e-246
3.36106e-245
8.63272e-245
1.82666e-244
6.36878e-244
5.45875e-243
7.90163e-242
3.59733e-241
6.22141e-242
4.75355e-243
4.443e-244
1.0727e-244
6.12532e-245
3.14783e-245
1.18873e-245
3.5521e-246
9.22851e-247
2.22343e-247
5.16709e-248
1.3273e-248
3.46864e-249
9.24481e-250
2.51422e-250
6.97582e-251
1.97318e-251
5.68362e-252
1.665e-252
4.95496e-253
1.49671e-253
4.58653e-254
1.42552e-254
4.49356e-255
1.43677e-255
4.66071e-256
1.53425e-256
5.12665e-257
1.73934e-257
5.99309e-258
2.09764e-258
7.45939e-259
2.69547e-259
9.89866e-260
3.69461e-260
1.40164e-260
5.40478e-261
2.11786e-261
8.41933e-262
3.35984e-262
1.25411e-262
6.53995e-245
3.77485e-244
1.51156e-243
4.08824e-243
9.09966e-243
2.91901e-242
2.01016e-241
2.29071e-240
8.2207e-240
1.62976e-240
1.46519e-241
1.71293e-242
5.27125e-243
3.06175e-243
1.5243e-243
5.6829e-244
1.703e-244
4.46157e-245
1.08493e-245
2.54308e-246
6.58367e-247
1.73185e-247
4.64117e-248
1.2684e-248
3.5364e-249
1.00549e-249
2.91247e-250
8.58339e-251
2.57075e-251
7.81768e-252
2.41253e-252
7.55306e-253
2.39883e-253
7.72928e-254
2.52706e-254
8.38544e-255
2.82474e-255
9.66223e-256
3.35677e-256
1.18467e-256
4.24793e-257
1.54783e-257
5.73169e-258
2.15719e-258
8.25208e-259
3.20851e-259
1.26766e-259
5.08093e-260
2.04403e-260
7.68727e-261
2.35173e-243
1.33693e-242
5.4297e-242
1.54451e-241
3.6465e-241
1.13125e-240
6.58805e-240
5.99872e-239
1.73668e-238
3.92582e-239
4.14001e-240
6.00352e-241
2.16688e-241
1.2425e-241
6.00537e-242
2.21904e-242
6.69103e-243
1.77402e-243
4.36698e-244
1.03498e-244
2.70577e-245
7.17737e-246
1.93723e-246
5.32819e-247
1.49447e-247
4.27432e-248
1.24555e-248
3.69373e-249
1.11348e-249
3.40903e-250
1.0594e-250
3.3407e-251
1.06887e-251
3.47011e-252
1.1433e-252
3.82349e-253
1.2982e-253
4.4761e-254
1.56757e-254
5.57702e-255
2.01602e-255
7.40557e-256
2.76463e-256
1.04896e-256
4.04526e-257
1.58558e-257
6.31506e-258
2.55146e-258
1.03458e-258
3.92009e-259
6.95651e-242
3.90516e-241
1.60927e-240
4.80534e-240
1.20755e-239
3.73218e-239
1.92085e-238
1.42349e-237
3.42929e-237
8.79676e-238
1.08686e-238
1.91278e-239
7.59178e-240
4.23018e-240
1.98911e-240
7.3073e-241
2.22253e-241
5.98161e-242
1.49505e-242
3.59077e-243
9.49641e-244
2.5441e-244
6.92528e-245
1.91914e-245
5.42058e-246
1.56082e-246
4.57884e-247
1.36708e-247
4.14952e-248
1.27935e-248
4.00421e-249
1.27189e-249
4.09962e-250
1.34096e-250
4.45172e-251
1.50022e-251
5.13326e-252
1.78374e-252
6.29587e-253
2.25758e-253
8.22536e-254
3.0454e-254
1.14591e-254
4.38228e-255
1.70336e-255
6.7292e-256
2.70121e-256
1.09992e-256
4.4948e-257
1.71583e-257
1.7415e-240
9.67211e-240
4.04482e-239
1.26555e-238
3.39133e-238
1.06405e-237
5.00436e-237
3.07693e-236
6.36769e-236
1.8466e-236
2.67039e-237
5.54309e-238
2.31028e-238
1.24094e-238
5.68767e-239
2.08235e-239
6.40174e-240
1.75256e-240
4.45887e-241
1.08789e-241
2.91553e-242
7.89949e-243
2.17132e-243
6.06922e-244
1.72787e-244
5.01284e-245
1.4814e-245
4.45517e-246
1.36213e-246
4.2303e-247
1.33377e-247
4.26797e-248
1.38595e-248
4.56748e-249
1.5278e-249
5.18792e-250
1.78874e-250
6.2635e-251
2.22784e-251
8.05048e-252
2.95591e-252
1.10291e-252
4.18221e-253
1.6118e-253
6.31353e-254
2.51347e-254
1.01673e-254
4.17197e-255
1.71796e-255
6.60698e-256
3.77932e-239
2.07921e-238
8.82736e-238
2.89109e-237
8.25195e-237
2.65686e-236
1.17036e-235
6.10072e-235
1.11734e-234
3.65184e-235
6.16486e-236
1.4648e-236
6.21912e-237
3.20781e-237
1.43559e-237
5.24872e-238
1.63392e-238
4.55762e-239
1.18279e-239
2.93783e-240
7.99215e-241
2.19312e-241
6.09449e-242
1.7201e-242
4.94058e-243
1.44533e-243
4.30552e-244
1.30497e-244
4.02053e-245
1.25815e-245
3.99687e-246
1.28863e-246
4.21621e-247
1.39997e-247
4.71827e-248
1.61431e-248
5.60822e-249
1.97871e-249
7.09157e-250
2.58212e-250
9.55306e-251
3.59161e-251
1.3723e-251
5.32902e-252
2.10326e-252
8.43669e-253
3.43854e-253
1.42159e-253
5.89817e-254
2.28518e-254
7.26297e-238
3.96013e-237
1.7069e-236
5.84561e-236
1.77456e-235
5.90031e-235
2.47932e-234
1.11727e-233
1.86314e-233
6.84094e-234
1.34162e-234
3.54939e-235
1.50627e-235
7.45869e-236
3.26474e-236
1.19406e-236
3.76984e-237
1.07303e-237
2.84507e-238
7.20868e-239
1.99426e-239
5.55024e-240
1.56116e-240
4.45381e-241
1.29187e-241
3.81406e-242
1.1461e-242
3.50287e-243
1.08799e-243
3.43175e-244
1.09872e-244
3.56977e-245
1.17691e-245
3.93759e-246
1.3371e-246
4.60922e-247
1.61329e-247
5.73465e-248
2.0706e-248
7.59538e-249
2.83093e-249
1.07221e-249
4.12704e-250
1.61446e-250
6.41878e-251
2.59361e-251
1.06481e-251
4.43444e-252
1.85339e-252
7.23333e-253
1.26228e-236
6.82156e-236
2.98388e-235
1.06687e-234
3.43707e-234
1.18328e-233
4.80377e-233
1.90776e-232
2.97094e-232
1.22089e-232
2.76128e-233
7.95107e-234
3.33874e-234
1.59107e-234
6.82296e-235
2.50068e-235
8.01963e-236
2.33276e-236
6.32885e-237
1.63864e-237
4.61709e-238
1.30531e-238
3.7213e-239
1.07435e-239
3.15017e-240
9.3944e-241
2.84977e-241
8.78839e-242
2.75323e-242
8.7565e-243
2.82615e-243
9.25453e-244
3.07466e-244
1.0365e-244
3.546e-245
1.23141e-245
4.34166e-246
1.55451e-246
5.6533e-247
2.0886e-247
7.84e-248
2.99043e-248
1.15916e-248
4.56636e-249
1.8282e-249
7.43863e-250
3.07518e-250
1.28959e-250
5.42782e-251
2.13345e-251
2.02318e-235
1.08367e-234
4.80887e-234
1.79227e-233
6.10945e-233
2.1773e-232
8.61252e-232
3.07268e-231
4.56687e-231
2.09101e-231
5.40864e-232
1.66586e-232
6.89714e-233
3.17109e-233
1.33801e-233
4.92247e-234
1.60609e-234
4.78188e-235
1.3295e-235
3.52304e-236
1.01266e-236
2.91233e-237
8.42713e-238
2.46518e-238
7.31488e-239
2.20551e-239
6.75923e-240
2.10463e-240
6.65365e-241
2.13455e-241
6.94656e-242
2.29294e-242
7.67696e-243
2.60746e-243
8.98603e-244
3.143e-244
1.11597e-244
4.02343e-245
1.47322e-245
5.47962e-246
2.07066e-246
7.95052e-247
3.10207e-247
1.23e-247
4.95642e-248
2.02971e-248
8.44499e-249
3.56428e-249
1.51005e-249
5.9758e-250
3.05371e-234
1.62218e-233
7.29971e-233
2.82804e-232
1.01518e-231
3.74067e-231
1.44959e-230
4.73313e-230
6.83749e-230
3.46974e-230
1.01781e-230
3.31409e-231
1.35251e-231
6.02798e-232
2.51254e-232
9.30463e-233
3.0953e-233
9.44926e-234
2.69645e-234
7.32417e-235
2.15066e-235
6.30113e-236
1.8531e-236
5.49993e-237
1.6536e-237
5.04609e-238
1.56367e-238
4.91905e-239
1.57012e-239
5.08275e-240
1.66827e-240
5.55151e-241
1.87313e-241
6.40945e-242
2.22473e-242
7.83536e-243
2.80082e-243
1.01641e-243
3.74558e-244
1.4019e-244
5.33022e-245
2.05901e-245
8.08172e-246
3.2234e-246
1.3065e-246
5.3813e-247
2.25191e-247
9.55936e-248
4.07403e-248
1.62249e-248
4.42657e-233
2.33408e-232
1.06459e-231
4.27553e-231
1.60878e-230
6.11323e-230
2.32915e-229
7.08366e-229
1.0095e-228
5.64473e-229
1.86155e-229
6.37004e-230
2.56861e-230
1.11632e-230
4.61572e-231
1.72645e-231
5.86906e-232
1.84007e-232
5.39653e-233
1.50459e-233
4.51883e-234
1.35054e-234
4.04202e-235
1.21864e-235
3.71666e-236
1.14912e-236
3.60392e-237
1.14631e-237
3.69633e-238
1.2079e-238
3.99965e-239
1.34199e-239
4.56341e-240
1.57307e-240
5.49865e-241
1.94964e-241
7.01421e-242
2.56129e-242
9.49531e-243
3.57462e-243
1.3668e-243
5.3089e-244
2.09499e-244
8.39995e-245
3.42229e-245
1.41679e-245
5.95881e-246
2.54232e-246
1.08919e-246
4.36303e-247
6.28339e-232
3.293e-231
1.5218e-230
6.31785e-230
2.48004e-229
9.6845e-229
3.63699e-228
1.04682e-227
1.48903e-227
9.11789e-228
3.35204e-228
1.20337e-228
4.81737e-229
2.05493e-229
8.46573e-230
3.20856e-230
1.11664e-230
3.59918e-231
1.08582e-231
3.11019e-232
9.56135e-233
2.91732e-233
8.89443e-234
2.72682e-234
8.44389e-235
2.6473e-235
8.40927e-236
2.70628e-236
8.82098e-237
2.91134e-237
9.72925e-238
3.29252e-238
1.12861e-238
3.91982e-239
1.37991e-239
4.92557e-240
1.78337e-240
6.55161e-241
2.4429e-241
9.24758e-242
3.55475e-242
1.38781e-242
5.50365e-243
2.21731e-243
9.07586e-244
3.77442e-244
1.59455e-244
6.83343e-245
2.94128e-245
1.18455e-245
8.89099e-231
4.63992e-230
2.17207e-229
9.29302e-229
3.78573e-228
1.51267e-227
5.60964e-227
1.54899e-226
2.21844e-226
1.47819e-226
6.01146e-227
2.26326e-227
9.06182e-228
3.818e-228
1.57316e-228
6.05684e-229
2.16014e-229
7.15999e-230
2.22193e-230
6.53847e-231
2.05751e-231
6.41028e-232
1.9917e-232
6.21272e-233
1.95466e-233
6.21798e-234
2.00162e-234
6.52074e-235
2.14943e-235
7.16822e-236
2.41869e-236
8.25886e-237
2.85474e-237
9.99286e-238
3.5438e-238
1.27376e-238
4.64211e-239
1.71599e-239
6.43619e-240
2.45009e-240
9.46847e-241
3.71547e-241
1.48067e-241
5.99337e-242
2.46433e-242
1.02935e-242
4.36721e-243
1.87948e-243
8.12572e-244
3.2896e-244
1.27133e-229
6.62071e-229
3.1388e-228
1.37936e-227
5.79838e-227
2.35886e-226
8.64525e-226
2.31519e-225
3.35831e-225
2.41907e-225
1.08038e-225
4.26567e-226
1.7237e-226
7.2184e-227
2.98316e-227
1.1679e-227
4.26681e-228
1.45302e-228
4.63357e-229
1.39966e-229
4.50559e-230
1.43287e-230
4.53657e-231
1.43996e-231
4.60419e-232
1.48666e-232
4.85197e-233
1.6008e-233
5.33883e-234
1.79988e-234
6.13475e-235
2.11462e-235
7.37435e-236
2.60294e-236
9.30373e-237
3.36903e-237
1.2365e-237
4.60151e-238
1.73691e-238
6.65215e-239
2.58565e-239
1.02024e-239
4.08735e-240
1.66286e-240
6.87062e-241
2.88333e-241
1.22887e-241
5.31222e-242
2.30735e-242
9.39141e-243
1.85178e-228
9.64197e-228
4.62652e-227
2.08032e-226
8.96779e-226
3.69388e-225
1.33792e-224
3.5025e-224
5.16313e-224
3.99362e-224
1.94502e-224
8.05935e-225
3.31075e-225
1.38839e-225
5.7702e-226
2.29528e-226
8.57554e-227
2.99483e-227
9.79756e-228
3.03388e-228
9.98028e-229
3.23758e-229
1.0441e-229
3.37176e-230
1.09563e-230
3.59125e-231
1.18855e-231
3.9726e-232
1.341e-232
4.5722e-233
1.57496e-233
5.48309e-234
1.93016e-234
6.8738e-235
2.47775e-235
9.04471e-236
3.34512e-236
1.254e-236
4.76668e-237
1.83788e-237
7.18994e-238
2.85461e-238
1.15047e-238
4.70737e-239
1.95579e-239
8.25169e-240
3.53513e-240
1.53599e-240
6.70655e-241
2.74579e-241
2.75187e-227
1.4346e-226
6.9596e-226
3.18867e-225
1.40046e-224
5.80641e-224
2.07693e-223
5.34378e-223
8.01645e-223
6.61403e-223
3.4889e-223
1.52008e-223
6.38054e-224
2.69882e-224
1.13085e-224
4.56505e-225
1.74069e-225
6.22111e-226
2.08405e-226
6.60561e-227
2.21813e-227
7.33419e-228
2.40809e-228
7.90974e-229
2.61171e-229
8.69038e-230
2.91692e-230
9.87876e-231
3.37613e-231
1.16455e-231
4.05564e-232
1.42666e-232
5.07199e-233
1.82338e-233
6.63223e-234
2.44208e-234
9.10731e-235
3.4415e-235
1.31828e-235
5.12067e-236
2.0176e-236
8.06591e-237
3.27247e-237
1.34768e-237
5.63446e-238
2.39177e-238
1.03078e-238
4.50497e-239
1.97874e-239
8.15406e-240
4.15839e-226
2.17194e-225
1.06357e-224
4.94362e-224
2.19834e-223
9.12377e-223
3.21931e-222
8.16917e-222
1.24727e-221
1.0909e-221
6.19413e-222
2.84324e-222
1.2252e-222
5.25381e-223
2.22682e-223
9.1188e-224
3.54226e-224
1.29309e-224
4.42828e-225
1.4348e-225
4.91322e-226
1.65475e-226
5.52941e-227
1.84691e-227
6.19615e-228
2.09298e-228
7.12522e-229
2.44545e-229
8.46295e-230
2.954e-230
1.04042e-230
3.69954e-231
1.32885e-231
4.8246e-232
1.77158e-232
6.58291e-233
2.47663e-233
9.43844e-234
3.64517e-234
1.42719e-234
5.66675e-235
2.28246e-235
9.3281e-236
3.86895e-236
1.62884e-236
6.96145e-237
3.02025e-237
1.32872e-237
5.87536e-238
2.43841e-238
6.35154e-225
3.324e-224
1.63996e-223
7.70105e-223
3.44749e-222
1.42546e-221
4.95597e-221
1.24318e-220
1.93086e-220
1.78068e-220
1.08267e-220
5.24191e-221
2.32997e-221
1.01737e-221
4.37406e-222
1.81874e-222
7.19022e-223
2.67673e-223
9.35787e-224
3.09619e-224
1.08037e-224
3.70447e-225
1.25942e-225
4.27717e-226
1.4579e-226
4.99935e-227
1.72634e-227
6.00503e-228
2.10475e-228
7.43604e-229
2.6494e-229
9.52513e-230
3.45768e-230
1.26815e-230
4.7022e-231
1.76377e-231
6.69637e-232
2.57464e-232
1.00293e-232
3.95979e-233
1.58516e-233
6.43582e-234
2.65078e-234
1.10784e-234
4.69891e-235
2.02298e-235
8.84e-236
3.91678e-236
1.7444e-236
7.29448e-237
9.74054e-224
5.10624e-223
2.53339e-222
1.1974e-221
5.37092e-221
2.2041e-220
7.54528e-220
1.8742e-219
2.95947e-219
2.86504e-219
1.85731e-219
9.49124e-220
4.37311e-220
1.95194e-220
8.5349e-221
3.60714e-221
1.45141e-221
5.50606e-222
1.96307e-222
6.62714e-223
2.35494e-223
8.21808e-224
2.84208e-224
9.81306e-225
3.39837e-225
1.1831e-225
4.14424e-226
1.46125e-226
5.18806e-227
1.85555e-227
6.689e-228
2.43188e-228
8.92305e-229
3.30663e-229
1.23839e-229
4.69039e-230
1.79759e-230
6.97478e-231
2.74114e-231
1.09162e-231
4.40664e-232
1.80377e-232
7.48887e-233
3.15438e-233
1.34823e-233
5.84838e-234
2.57471e-234
1.14924e-234
5.15663e-235
2.17324e-235
1.49127e-222
7.82785e-222
3.89866e-221
1.84892e-220
8.27991e-220
3.3635e-219
1.13338e-218
2.79214e-218
4.48049e-218
4.53727e-218
3.12503e-218
1.68639e-218
8.08594e-219
3.70322e-219
1.65107e-219
7.10338e-220
2.90965e-220
1.1246e-220
4.08736e-221
1.40706e-221
5.08937e-222
1.80703e-222
6.3562e-223
2.23121e-223
7.85082e-224
2.77493e-224
9.86132e-225
3.52502e-225
1.26794e-225
4.59149e-226
1.67489e-226
6.15888e-227
2.28473e-227
8.55675e-228
3.23765e-228
1.23845e-228
4.79197e-229
1.87661e-229
7.44169e-230
2.98953e-230
1.21714e-230
5.02378e-231
2.10282e-231
8.92825e-232
3.84605e-232
1.68121e-232
7.45753e-233
3.35369e-233
1.51619e-233
6.44065e-234
2.27023e-221
1.19279e-220
5.95501e-220
2.82704e-219
1.26066e-218
5.06057e-218
1.67934e-217
4.10957e-217
6.70014e-217
7.07789e-217
5.16401e-217
2.94344e-217
1.47262e-217
6.94702e-218
3.16588e-218
1.3885e-218
5.79318e-219
2.28126e-219
8.45035e-220
2.96566e-220
1.09147e-220
3.94206e-221
1.41019e-221
5.03258e-222
1.79924e-222
6.45709e-223
2.3282e-223
8.43811e-224
3.07536e-224
1.12774e-224
4.16369e-225
1.54899e-225
5.81111e-226
2.20006e-226
8.41179e-227
3.25022e-227
1.26994e-227
5.02059e-228
2.00933e-228
8.14466e-229
3.345e-229
1.39243e-229
5.87675e-230
2.51538e-230
1.09212e-230
4.81086e-231
2.15019e-231
9.74184e-232
4.43748e-232
1.89996e-232
3.43021e-220
1.80338e-219
9.01482e-219
4.27664e-218
1.89571e-217
7.51413e-217
2.45827e-216
5.98502e-216
9.91379e-216
1.09003e-215
8.40257e-216
5.05755e-216
2.64514e-216
1.28938e-216
6.01974e-217
2.69495e-217
1.14626e-217
4.59934e-218
1.73632e-218
6.21123e-219
2.32544e-219
8.5423e-220
3.10771e-220
1.12753e-220
4.09602e-221
1.49265e-221
5.46114e-222
2.00704e-222
7.41282e-223
2.75325e-223
1.02913e-223
3.87444e-224
1.47028e-224
5.62836e-225
2.17512e-225
8.49209e-226
3.35166e-226
1.33807e-226
5.40622e-227
2.21163e-227
9.16456e-228
3.84813e-228
1.63782e-228
7.06781e-229
3.09324e-229
1.37323e-229
6.18449e-230
2.82311e-230
1.2957e-230
5.59211e-231
5.14444e-219
2.70581e-218
1.35319e-217
6.40682e-217
2.81981e-216
1.1037e-215
3.56436e-215
8.64672e-215
1.45518e-214
1.66203e-214
1.3503e-214
8.5761e-215
4.69425e-215
2.36958e-215
1.13597e-215
5.19786e-216
2.25573e-216
9.22531e-217
3.54952e-217
1.29421e-217
4.92905e-218
1.84156e-218
6.81358e-219
2.5134e-219
9.27808e-220
3.43347e-220
1.27482e-220
4.75143e-221
1.77875e-221
6.69328e-222
2.53356e-222
9.65475e-223
3.70706e-223
1.43534e-223
5.6086e-224
2.21333e-224
8.82698e-225
3.55967e-225
1.45235e-225
5.99794e-226
2.50837e-226
1.06269e-226
4.56244e-227
1.9856e-227
8.76207e-228
3.92136e-228
1.78e-228
8.18855e-229
3.78757e-229
1.6481e-229
7.66973e-218
4.03519e-217
2.0176e-216
9.52417e-216
4.1588e-215
1.60808e-214
5.13335e-214
1.24241e-213
2.12412e-213
2.51545e-213
2.14861e-213
1.43821e-213
8.24298e-214
4.31552e-214
2.12837e-214
9.96774e-215
4.41746e-215
1.84257e-215
7.22727e-216
2.68637e-216
1.04087e-216
3.95575e-217
1.48869e-217
5.58398e-218
2.09485e-218
7.87347e-219
2.9671e-219
1.12178e-219
4.25776e-220
1.62359e-220
6.22508e-221
2.4019e-221
9.3344e-222
3.65684e-222
1.44529e-222
5.76693e-223
2.3247e-223
9.47286e-224
3.90417e-224
1.62827e-224
6.87493e-225
2.93986e-225
1.27366e-225
5.59227e-226
2.48914e-226
1.12341e-226
5.14161e-227
2.38454e-227
1.11195e-227
4.87985e-228
1.13892e-216
5.99189e-216
2.99307e-215
1.40745e-214
6.09464e-214
2.32914e-213
7.35788e-213
1.77838e-212
3.08803e-212
3.78473e-212
3.39051e-212
2.38824e-212
1.43329e-212
7.79116e-213
3.95981e-213
1.90087e-213
8.61101e-214
3.66636e-214
1.46674e-214
5.55931e-215
2.19194e-215
8.47588e-216
3.24528e-216
1.23805e-216
4.72125e-217
1.80261e-217
6.89643e-218
2.64559e-218
1.01837e-218
3.93646e-219
1.52932e-219
5.97681e-220
2.35184e-220
9.32561e-221
3.72926e-221
1.50509e-221
6.1347e-222
2.52689e-222
1.05242e-222
4.43431e-223
1.89101e-223
8.16536e-224
3.57131e-224
1.58268e-224
7.10881e-225
3.23703e-225
1.4945e-225
6.99081e-226
3.28811e-226
1.45602e-226
1.68677e-215
8.86847e-215
4.42156e-214
2.06923e-213
8.88231e-213
3.35619e-212
1.05022e-211
2.53676e-211
4.47214e-211
5.66271e-211
5.30794e-211
3.92805e-211
2.46776e-211
1.39399e-211
7.31137e-212
3.60313e-212
1.67019e-212
7.26538e-213
2.96622e-213
1.14689e-213
4.6031e-214
1.81167e-214
7.05949e-215
2.73981e-215
1.06234e-215
4.12152e-216
1.60134e-216
6.23537e-217
2.43509e-217
9.54553e-218
3.7593e-218
1.48878e-218
5.93415e-219
2.38265e-219
9.64462e-220
3.93879e-220
1.62404e-220
6.76499e-221
2.84857e-221
1.21313e-221
5.22775e-222
2.28054e-222
1.00749e-222
4.50896e-223
2.0449e-223
9.40033e-224
4.38073e-224
2.06817e-224
9.81804e-225
4.38952e-225
2.49142e-214
1.30788e-213
6.50115e-213
3.0248e-212
1.28661e-211
4.80827e-211
1.49163e-210
3.60287e-210
6.44607e-210
8.41906e-210
8.23951e-210
6.39565e-210
4.20416e-210
2.46943e-210
1.33818e-210
6.77899e-211
3.21896e-211
1.4318e-211
5.96926e-212
2.35552e-212
9.62688e-213
3.85771e-213
1.53028e-213
6.04347e-214
2.38324e-214
9.3983e-215
3.70969e-215
1.4668e-215
5.81424e-216
2.31248e-216
9.23675e-217
3.70864e-217
1.49815e-217
6.09425e-218
2.49842e-218
1.03306e-218
4.31137e-219
1.81728e-219
7.74119e-220
3.33438e-220
1.45298e-220
6.40826e-221
2.86174e-221
1.29444e-221
5.93245e-222
2.75548e-222
1.29727e-222
6.18655e-223
2.96668e-223
1.34021e-223
3.66429e-213
1.91855e-212
9.4973e-212
4.38946e-211
1.84955e-210
6.83873e-210
2.1049e-209
5.08684e-209
9.23361e-209
1.2422e-208
1.26682e-208
1.02977e-208
7.07835e-209
4.32475e-209
2.42351e-209
1.26335e-209
6.15112e-210
2.79963e-210
1.19248e-210
4.80433e-211
2.00002e-211
8.16223e-212
3.29678e-212
1.32515e-212
5.31591e-213
2.13147e-213
8.55043e-214
3.43448e-214
1.38248e-214
5.58168e-215
2.26244e-215
9.21503e-216
3.77502e-216
1.55679e-216
6.46831e-217
2.70988e-217
1.1456e-217
4.89032e-218
2.10932e-218
9.19805e-219
4.05714e-219
1.81097e-219
8.18348e-220
3.74501e-220
1.73615e-220
8.15547e-221
3.88239e-221
1.8718e-221
9.07423e-222
4.14523e-222
5.35199e-212
2.79203e-211
1.37509e-210
6.30912e-210
2.63327e-209
9.63839e-209
2.9455e-208
7.12653e-208
1.31217e-207
1.81607e-207
1.92651e-207
1.6374e-207
1.17597e-207
7.47417e-208
4.33369e-208
2.32656e-208
1.16254e-208
5.4168e-209
2.35816e-209
9.70267e-210
4.11521e-210
1.71074e-210
7.0368e-211
2.8793e-211
1.1752e-211
4.79222e-212
1.95438e-212
7.97816e-213
3.26277e-213
1.33796e-213
5.50653e-214
2.27665e-214
9.46453e-215
3.95988e-215
1.66888e-215
7.09071e-216
3.03956e-216
1.31551e-216
5.75195e-217
2.54224e-217
1.13635e-217
5.13919e-218
2.35249e-218
1.09032e-218
5.118e-219
2.43373e-219
1.17255e-219
5.72012e-220
2.80564e-220
1.29701e-220
7.73079e-211
4.01523e-210
1.9661e-209
8.95175e-209
3.70176e-208
1.34226e-207
4.07614e-207
9.88119e-207
1.84545e-206
2.62512e-206
2.89227e-206
2.56662e-206
1.92442e-206
1.27224e-206
7.63571e-207
4.22447e-207
2.16775e-207
1.03455e-207
4.60512e-208
1.93562e-208
8.36589e-209
3.54332e-209
1.48448e-209
6.18415e-210
2.56872e-210
1.06559e-210
4.41953e-211
1.83427e-211
7.62473e-212
3.17729e-212
1.32852e-212
5.57921e-213
2.35554e-213
1.00076e-213
4.28243e-214
1.84727e-214
8.03866e-215
3.53139e-215
1.56704e-215
7.0278e-216
3.18687e-216
1.46182e-216
6.78522e-217
3.18797e-217
1.51658e-217
7.3068e-218
3.56578e-218
1.76154e-218
8.7487e-219
4.09613e-219
1.2121e-209
6.06941e-209
2.8838e-208
1.2808e-207
5.18981e-207
1.85235e-206
5.57314e-206
1.35215e-205
2.55994e-205
3.73955e-205
4.27458e-205
3.95679e-205
3.09587e-205
2.12918e-205
1.3235e-205
7.55155e-206
3.98232e-206
1.94789e-206
8.87077e-207
3.81053e-207
1.67882e-207
7.24637e-208
3.09278e-208
1.31197e-208
5.54708e-209
2.3416e-209
9.88015e-210
4.17078e-210
1.76304e-210
7.46968e-211
3.17513e-211
1.35543e-211
5.81684e-212
2.51194e-212
1.09252e-212
4.78969e-213
2.11812e-213
9.45452e-214
4.26205e-214
1.94135e-214
8.93896e-215
4.16236e-215
1.96071e-215
9.34649e-216
4.50989e-216
2.2033e-216
1.09002e-216
5.45763e-217
2.74693e-217
1.30372e-217
-2.33948e-207
-7.43078e-207
-2.12976e-206
-5.35633e-206
-1.11372e-205
-1.6355e-205
-5.6911e-206
5.34189e-205
1.87694e-204
3.6772e-204
5.05099e-204
5.3182e-204
4.57299e-204
3.37408e-204
2.2117e-204
1.31506e-204
7.16974e-205
3.60682e-205
1.68402e-205
7.4024e-206
3.32702e-206
1.46427e-206
6.36912e-207
2.75207e-207
1.18482e-207
5.09138e-208
2.18633e-208
9.3911e-209
4.03876e-209
1.74077e-209
7.52741e-210
3.26904e-210
1.42727e-210
6.27058e-211
2.77456e-211
1.23735e-211
5.5654e-212
2.52615e-212
1.15775e-212
5.36013e-213
2.50798e-213
1.18641e-213
5.67618e-214
2.74744e-214
1.34577e-214
6.67254e-215
3.34928e-215
1.70105e-215
8.68406e-216
4.18186e-216
-4.86779e-205
-1.15914e-204
-1.50782e-204
3.92516e-204
3.79729e-203
1.64238e-202
4.89308e-202
1.05635e-201
1.64798e-201
1.84586e-201
1.49469e-201
9.00561e-202
4.28514e-202
1.7774e-202
7.23724e-203
3.15265e-203
1.47251e-203
7.00092e-204
3.23772e-204
1.43689e-204
6.55686e-205
2.93702e-205
1.30108e-205
5.72576e-206