/*--------------------------------*- C++ -*----------------------------------*\
  =========                 |
  \\      /  F ield         | OpenFOAM: The Open Source CFD Toolbox
   \\    /   O peration     | Website:  https://openfoam.org
    \\  /    A nd           | Version:  9
     \\/     M anipulation  |
\*---------------------------------------------------------------------------*/
FoamFile
{
    format      ascii;
    class       surfaceScalarField;
    location    "0.05";
    object      alphaPhi0.water;
}
// * * * * * * * * * * * * * * * * * * * * * * * * * * * * * * * * * * * * * //

dimensions      [0 3 -1 0 0 0 0];

internalField   nonuniform List<scalar> 
9850
(
9.82449e-266
1.98899e-265
2.12195e-264
-2.07557e-264
2.61312e-263
3.49983e-263
4.29496e-262
2.29531e-261
9.91886e-261
6.55444e-260
2.52853e-259
1.87008e-258
7.58832e-258
4.96897e-257
2.17429e-256
7.48597e-257
1.68951e-255
-4.80264e-255
2.02621e-256
2.04314e-256
9.58543e-258
7.98925e-257
4.3716e-259
3.38521e-258
2.08681e-260
1.29163e-259
1.06623e-261
4.96427e-261
5.65327e-263
2.01791e-262
2.93228e-264
1.00176e-263
1.46341e-265
5.55278e-265
7.0782e-267
2.92415e-266
3.33699e-268
1.45067e-267
1.53791e-269
6.92234e-269
8.39988e-271
3.16706e-270
4.71723e-272
1.72639e-271
2.7289e-273
9.6668e-273
1.62892e-274
5.57513e-274
1.00477e-275
3.31825e-275
6.41299e-277
2.04128e-276
4.24007e-278
1.2995e-277
2.9069e-279
8.57009e-279
2.06821e-280
5.86048e-280
1.52818e-281
4.15871e-281
1.17334e-282
3.06446e-282
9.36597e-284
2.34618e-283
7.7757e-285
1.86717e-284
6.71621e-286
1.5452e-285
6.03698e-287
1.33015e-286
5.64822e-288
1.19135e-287
5.50131e-289
1.11039e-288
5.57861e-290
1.07715e-289
5.89007e-291
1.08763e-290
6.47531e-292
1.14317e-291
7.41228e-293
1.25079e-292
8.83489e-294
1.42468e-293
1.09659e-294
1.6895e-294
1.4178e-295
2.08663e-295
1.91114e-296
2.68638e-296
2.692e-297
3.61352e-297
3.98439e-298
5.10666e-298
6.27298e-299
7.67564e-299
1.07496e-299
1.25557e-299
2.27302e-300
3.70647e-265
6.49129e-265
7.21865e-264
2.18387e-264
6.85009e-263
1.42434e-262
1.16127e-261
6.26554e-261
2.52031e-260
1.58036e-259
6.15978e-259
4.09317e-258
1.75166e-257
9.98912e-257
4.13053e-256
2.44115e-256
2.2682e-255
-6.21105e-255
2.81169e-256
4.85261e-256
1.57988e-257
1.49268e-256
8.40979e-259
6.92496e-258
4.66618e-260
2.91136e-259
2.75831e-261
1.25908e-260
1.65185e-262
5.9108e-262
9.47544e-264
3.31997e-263
5.18413e-265
2.00911e-264
2.73341e-266
1.14574e-265
1.3966e-267
6.13365e-267
6.93576e-269
3.145e-268
4.05514e-270
1.53772e-269
2.42616e-271
8.91966e-271
1.48925e-272
5.2951e-272
9.40051e-274
3.22728e-273
6.11402e-275
2.02429e-274
4.1042e-276
1.30915e-275
2.84761e-277
8.7427e-277
2.0446e-278
6.03661e-278
1.52072e-279
4.31426e-279
1.17268e-280
3.19437e-280
9.38207e-282
2.45229e-281
7.79234e-283
1.9532e-282
6.72198e-284
1.61492e-283
6.02506e-285
1.3867e-284
5.61309e-286
1.23708e-285
5.43668e-287
1.14693e-286
5.47586e-288
1.10537e-287
5.73649e-289
1.10768e-288
6.25214e-290
1.15446e-289
7.09272e-291
1.25209e-290
8.38519e-292
1.41482e-291
1.03618e-292
1.67069e-292
1.34846e-293
2.07723e-293
1.88085e-294
2.76763e-294
2.91539e-295
4.09722e-295
5.3178e-296
7.13673e-296
1.20199e-296
1.54022e-296
3.35648e-297
4.10609e-297
1.08512e-297
1.26712e-297
3.99178e-298
8.14652e-265
1.40569e-264
1.4088e-263
1.23542e-263
1.20472e-262
3.10041e-262
1.92812e-261
9.94998e-261
3.92218e-260
2.30893e-259
9.2681e-259
5.61193e-258
2.52832e-257
1.31705e-256
5.63775e-256
4.90012e-256
2.87933e-255
-7.54254e-255
3.15571e-256
8.51689e-256
1.82536e-257
1.92853e-256
1.05331e-258
9.12779e-258
6.5127e-260
4.08821e-259
4.32818e-261
1.95796e-260
2.89271e-262
1.04536e-261
1.83043e-263
6.55068e-263
1.09234e-264
4.29463e-264
6.22268e-266
2.63298e-265
3.41017e-267
1.50853e-266
1.80721e-268
8.24097e-268
1.12174e-269
4.27305e-269
7.10121e-271
2.62036e-270
4.59944e-272
1.64027e-271
3.05612e-273
1.05177e-272
2.08786e-274
6.92657e-274
1.46931e-275
4.69442e-275
1.06683e-276
3.27966e-276
8.0024e-278
2.36513e-277
6.20823e-279
1.76268e-278
4.98589e-280
1.35899e-279
4.14844e-281
1.0848e-280
3.57834e-282
8.97205e-282
3.20169e-283
7.69325e-283
2.97302e-284
6.84305e-284
2.86668e-285
6.31784e-285
2.87261e-286
6.05953e-286
2.99665e-287
6.04813e-287
3.26831e-288
6.30951e-288
3.76836e-289
6.9565e-289
4.71862e-290
8.32735e-290
6.78009e-291
1.14361e-290
1.20732e-291
1.94593e-291
2.77584e-292
4.27441e-292
7.88701e-293
1.1601e-292
2.55192e-293
3.58495e-293
8.85485e-294
1.18787e-293
3.19553e-294
4.09301e-294
1.18195e-294
1.44529e-294
4.41418e-295
5.15232e-295
1.73231e-295
1.48829e-264
2.68441e-264
2.24556e-263
3.01631e-263
1.79118e-262
5.08091e-262
2.54946e-261
1.23674e-260
4.89038e-260
2.69754e-259
1.12834e-258
6.32985e-258
3.07012e-257
1.48671e-256
7.21654e-256
8.23401e-256
3.66304e-255
-8.60058e-255
3.3677e-256
1.32938e-255
1.86418e-257
2.16068e-256
1.12413e-258
1.00411e-257
7.56339e-260
4.73059e-259
5.54722e-261
2.48709e-260
4.07481e-262
1.48736e-261
2.80612e-263
1.02216e-262
1.8049e-264
7.16915e-264
1.0997e-265
4.68024e-265
6.4112e-267
2.84869e-266
3.60176e-268
1.64843e-267
2.36098e-269
9.02144e-269
1.57479e-270
5.82589e-270
1.0725e-271
3.83286e-271
7.479e-273
2.57833e-272
5.35269e-274
1.7782e-273
3.93941e-275
1.25996e-274
2.98628e-276
9.18774e-276
2.33491e-277
6.90488e-277
1.88525e-278
5.35476e-278
1.57354e-279
4.28989e-279
1.35911e-280
3.5543e-280
1.21644e-281
3.04987e-281
1.13115e-282
2.71761e-282
1.09995e-283
2.53118e-283
1.13815e-284
2.50758e-284
1.30829e-285
2.7587e-285
1.81529e-286
3.66223e-286
3.32026e-287
6.40679e-287
7.98756e-288
1.47377e-287
2.30328e-288
4.06259e-288
7.2939e-289
1.22958e-288
2.422e-289
3.90143e-289
8.27297e-290
1.27316e-289
2.88588e-290
4.24224e-290
1.02537e-290
1.43955e-290
3.70724e-291
4.97012e-291
1.36323e-291
1.745e-291
5.09054e-292
6.22083e-292
1.91183e-292
2.23014e-292
7.52512e-293
2.54997e-264
4.93669e-264
3.34825e-263
5.70245e-263
2.50663e-262
7.37938e-262
3.059e-261
1.39752e-260
5.54634e-260
2.89027e-259
1.27183e-258
6.73095e-258
3.56206e-257
1.64153e-256
9.24306e-256
1.29731e-255
4.82371e-255
-9.20571e-255
3.77694e-256
1.97915e-255
1.93273e-257
2.36373e-256
1.17057e-258
1.05198e-257
8.30367e-260
5.12311e-259
6.53384e-261
2.90321e-260
5.15921e-262
1.89966e-261
3.80931e-263
1.40577e-262
2.61454e-264
1.04487e-263
1.69186e-265
7.2192e-265
1.044e-266
4.64756e-266
6.1935e-268
2.83935e-267
4.27386e-269
1.63554e-268
2.99503e-270
1.10944e-269
2.13893e-271
7.65221e-271
1.56117e-272
5.38652e-272
1.16735e-273
3.88035e-273
8.96065e-275
2.86707e-274
7.07476e-276
2.1771e-275
5.75852e-277
1.70299e-276
4.85163e-278
1.37789e-277
4.27335e-279
1.16476e-278
4.04421e-280
1.05727e-279
4.39971e-281
1.10263e-280
6.17148e-282
1.48195e-281
1.19955e-282
2.75878e-282
3.01446e-283
6.63722e-283
8.68219e-284
1.82949e-283
2.66153e-284
5.36553e-284
8.42196e-285
1.62386e-284
2.72134e-285
5.0171e-285
8.94774e-286
1.57693e-285
2.99067e-286
5.03735e-286
1.01596e-286
1.63513e-286
3.50808e-287
5.39403e-287
1.23145e-287
1.80865e-287
4.39521e-288
6.16516e-288
1.59514e-288
2.13663e-288
5.88601e-289
7.5277e-289
2.20516e-289
2.6924e-289
8.30751e-290
9.6821e-290
3.27584e-290
4.24534e-264
8.85204e-264
4.95199e-263
9.81235e-263
3.52435e-262
1.05361e-261
3.70122e-261
1.6075e-260
6.3911e-260
3.18672e-259
1.49135e-258
7.59916e-258
4.41199e-257
1.97771e-256
1.26446e-255
2.10049e-255
6.95491e-255
-8.43178e-255
4.84681e-256
3.03351e-255
2.26854e-257
2.78527e-256
1.31598e-258
1.16222e-257
9.38632e-260
5.65754e-259
7.62754e-261
3.34499e-260
6.2984e-262
2.33262e-261
4.91011e-263
1.82752e-262
3.56767e-264
1.4292e-263
2.44037e-265
1.041e-264
1.58826e-266
7.06718e-266
9.9173e-268
4.54553e-267
7.1803e-269
2.74768e-268
5.26859e-270
1.95165e-269
3.93297e-271
1.40703e-270
2.999e-272
1.03464e-271
2.35073e-273
7.81242e-273
1.9227e-274
6.14991e-274
1.71028e-275
5.2607e-275
1.82636e-276
5.39823e-276
2.68749e-277
7.62775e-277
5.5824e-278
1.52046e-277
1.43954e-278
3.76036e-278
4.08714e-279
1.02341e-278
1.20888e-279
2.90023e-279
3.65397e-280
8.39545e-280
1.12206e-280
2.46806e-280
3.49533e-281
7.35761e-281
1.10442e-281
2.22409e-281
3.54067e-282
6.81937e-282
1.15214e-282
2.12175e-282
3.80688e-283
6.7016e-283
1.27768e-283
2.14961e-283
4.35711e-284
7.00449e-284
1.5101e-284
2.31924e-284
5.32023e-285
7.80481e-285
1.90566e-285
2.66995e-285
6.94052e-286
9.28573e-286
2.5699e-286
3.28285e-286
9.66067e-287
1.17815e-286
3.65135e-287
4.25059e-287
1.44234e-287
7.09783e-264
1.58496e-263
7.58354e-263
1.6713e-262
5.27464e-262
1.59834e-261
5.03389e-261
2.10793e-260
8.54382e-260
4.13662e-259
2.0831e-258
1.04204e-257
6.5638e-257
2.91543e-256
2.01295e-255
3.86824e-255
1.18169e-254
-8.50674e-256
7.76486e-256
5.27993e-255
3.33771e-257
3.92614e-256
1.77827e-258
1.51053e-257
1.20171e-259
7.01232e-259
9.57174e-261
4.13332e-260
8.00929e-262
2.97273e-261
6.47864e-263
2.42233e-262
4.93233e-264
1.97483e-263
3.54055e-265
1.50629e-264
2.41621e-266
1.07242e-265
1.58257e-267
7.23965e-267
1.20773e-268
4.61464e-268
9.57561e-270
3.54273e-269
8.38207e-271
2.99545e-270
9.22935e-272
3.18084e-271
1.46159e-272
4.85251e-272
3.19723e-273
1.02159e-272
8.28737e-274
2.54637e-273
2.30058e-274
6.7922e-274
6.57403e-275
1.86367e-274
1.90922e-275
5.19372e-275
5.61433e-276
1.46472e-275
1.67034e-276
4.17707e-276
5.02848e-277
1.20478e-276
1.53246e-277
3.51624e-277
4.73048e-278
1.03907e-277
1.4799e-278
3.1108e-278
4.69471e-279
9.44083e-279
1.51096e-279
2.90597e-279
4.93587e-280
9.07662e-280
1.63724e-280
2.87801e-280
5.51632e-281
9.26734e-281
1.88843e-281
3.03143e-281
6.57014e-282
1.00759e-281
2.32356e-282
3.40371e-282
8.35418e-283
1.16877e-282
3.05398e-283
4.08e-283
1.13497e-283
1.44774e-283
4.28194e-284
5.21445e-284
1.62407e-284
1.88791e-284
6.4266e-285
1.45704e-263
3.46169e-263
1.44683e-262
3.46002e-262
9.86809e-262
3.04474e-261
9.07689e-261
3.72418e-260
1.58919e-259
7.58671e-259
4.09282e-258
2.04376e-257
1.34643e-256
6.01289e-256
4.2333e-255
9.24303e-255
2.73858e-254
1.76012e-254
1.76944e-255
1.21099e-254
7.20733e-257
7.83257e-256
3.49087e-258
2.8003e-257
2.12721e-259
1.19224e-258
1.56608e-260
6.63031e-260
1.26693e-261
4.69508e-261
1.03098e-262
3.85912e-262
8.14878e-264
3.25338e-263
6.3916e-265
2.70696e-264
5.43635e-266
2.40275e-265
5.91148e-267
2.69503e-266
1.02948e-267
3.92248e-267
2.30253e-268
8.49846e-268
5.81225e-269
2.07276e-268
1.54626e-269
5.31894e-269
4.22462e-270
1.40005e-269
1.17462e-270
3.74663e-270
3.3118e-271
1.01583e-270
9.45304e-272
2.78613e-271
2.7293e-272
7.72405e-272
7.96809e-273
2.16387e-272
2.35227e-273
6.12628e-273
7.0237e-274
1.7534e-273
2.12217e-274
5.0757e-274
6.4917e-275
1.48692e-274
2.0116e-275
4.41084e-275
6.31794e-276
1.32572e-275
2.01227e-276
4.03945e-276
6.50261e-277
1.24842e-276
2.1329e-277
3.91529e-277
7.10393e-278
1.24656e-277
2.40336e-278
4.0305e-278
8.26134e-279
1.32383e-278
2.886e-279
4.41817e-279
1.02479e-279
1.49857e-279
3.69942e-280
5.1666e-280
1.35777e-280
1.81079e-280
5.06585e-281
6.45078e-281
1.91865e-281
2.3325e-281
7.30475e-282
8.47705e-282
2.89576e-282
1.36519e-262
3.43296e-262
1.1275e-261
2.8855e-261
5.9785e-261
1.88902e-260
3.80637e-260
1.55404e-259
5.92028e-259
2.82861e-258
1.53911e-257
7.773e-257
5.09195e-256
2.30765e-255
1.59934e-254
3.89412e-254
1.14489e-253
1.42917e-253
7.64647e-255
4.99514e-254
3.12233e-256
3.06093e-255
1.44357e-257
1.07926e-256
8.11445e-259
4.34558e-258
5.55044e-260
2.29853e-259
4.78902e-261
1.76638e-260
6.08768e-262
2.27456e-261
1.14145e-262
4.53557e-262
2.53448e-263
1.06693e-262
5.82389e-264
2.55963e-263
1.33859e-264
6.074e-264
3.42152e-265
1.29848e-264
8.9128e-266
3.27843e-265
2.36583e-266
8.41162e-266
6.39082e-267
2.19237e-266
1.75442e-267
5.79944e-267
4.88815e-268
1.5554e-267
1.3806e-268
4.22488e-268
3.94876e-269
1.1612e-268
1.14293e-269
3.22735e-269
3.3464e-270
9.06784e-270
9.91103e-271
2.57565e-270
2.96981e-271
7.3979e-271
9.00679e-272
2.14959e-271
2.76599e-272
6.32203e-272
8.60589e-273
1.88302e-272
2.71416e-273
5.68323e-273
8.68138e-274
1.73905e-273
2.81746e-274
5.39784e-274
9.28163e-275
1.70025e-274
3.10491e-275
5.43702e-275
1.05504e-275
1.76568e-275
3.64252e-276
5.82493e-276
1.27804e-276
1.95254e-276
4.55795e-277
6.65161e-277
1.6525e-277
2.30321e-277
6.09107e-278
8.10704e-278
2.28225e-278
2.90038e-278
8.68015e-279
1.05315e-278
3.31836e-279
3.84332e-279
1.31793e-279
1.57237e-260
4.16907e-260
1.00918e-259
2.74207e-259
3.89294e-259
1.26685e-258
1.18454e-258
4.87691e-258
8.06616e-258
3.91926e-257
1.65391e-256
8.5208e-256
5.02813e-255
2.32065e-254
1.48311e-253
3.94396e-253
1.07655e-252
1.86707e-252
8.145e-254
4.9361e-253
3.69442e-255
3.23123e-254
1.83112e-256
1.26771e-255
1.1083e-257
5.6604e-257
1.15791e-258
4.68406e-258
3.43509e-259
1.25788e-258
1.25155e-259
4.65679e-259
3.74834e-260
1.48003e-259
9.72175e-261
4.06284e-260
2.34015e-261
1.02158e-260
5.44888e-262
2.45825e-261
1.39815e-262
5.27965e-262
3.64646e-263
1.33549e-262
9.68287e-264
3.42952e-263
2.61646e-264
8.9446e-264
7.18738e-265
2.36825e-264
2.00488e-265
6.36017e-265
5.67241e-266
1.73085e-265
1.62617e-266
4.76871e-266
4.7201e-267
1.32924e-266
1.38656e-267
3.74726e-267
4.12164e-268
1.06834e-267
1.23995e-268
3.08086e-268
3.7764e-269
8.99014e-269
1.16487e-269
2.6558e-269
3.64086e-270
7.9467e-270
1.15366e-270
2.40974e-270
3.70769e-271
7.40914e-271
1.20913e-271
2.31092e-271
4.00278e-272
7.31484e-272
1.34561e-272
2.35068e-272
4.59494e-273
7.67169e-273
1.59424e-273
2.54341e-273
5.62121e-274
8.56779e-274
2.01458e-274
2.93311e-274
7.33961e-275
1.02061e-274
2.71848e-275
3.60989e-275
1.02348e-275
1.29771e-275
3.91118e-276
4.7346e-276
1.50221e-276
1.73593e-276
5.97882e-277
2.97851e-258
8.30716e-258
1.72893e-257
4.96488e-257
6.09092e-257
2.05145e-256
1.4419e-256
6.04362e-256
4.39196e-256
2.1749e-255
4.91755e-255
2.59655e-254
1.19873e-253
5.62565e-253
3.08158e-252
8.75507e-252
2.0126e-251
4.20687e-251
1.85122e-252
1.03177e-251
9.94229e-254
7.76108e-253
5.73302e-255
3.67538e-254
4.73897e-256
2.31098e-255
1.3053e-256
5.15664e-256
6.67068e-257
2.4212e-256
2.61589e-257
9.67508e-257
7.85803e-258
3.07942e-257
2.02834e-258
8.40685e-258
4.85637e-259
2.10374e-258
1.12517e-259
5.04237e-259
2.87857e-260
1.08066e-259
7.49285e-261
2.73015e-260
1.98784e-261
7.00844e-261
5.373e-262
1.82919e-261
1.47841e-262
4.85267e-262
4.13662e-263
1.30756e-262
1.17558e-263
3.57482e-263
3.38933e-264
9.90653e-264
9.90478e-265
2.78046e-264
2.93219e-265
7.89998e-265
8.79108e-266
2.2718e-265
2.6693e-266
6.61273e-266
8.21001e-267
1.94881e-266
2.55872e-267
5.81697e-267
8.08356e-268
1.75936e-267
2.5898e-268
5.3944e-268
8.4177e-269
1.67747e-268
2.77684e-269
5.2926e-269
9.30021e-270
1.69493e-269
3.16337e-270
5.51124e-270
1.09305e-270
1.82005e-270
3.83756e-271
6.10606e-271
1.36923e-271
2.08145e-271
4.96552e-272
7.2105e-272
1.83048e-272
2.53871e-272
6.85957e-273
9.0852e-273
2.61267e-273
3.30412e-273
1.00987e-273
1.21933e-273
3.92143e-274
4.51994e-274
1.57158e-274
3.78733e-256
1.10898e-255
2.12498e-255
6.43418e-255
7.51007e-255
2.62906e-254
1.76932e-254
7.61815e-254
4.20617e-254
2.14189e-253
2.74351e-253
1.48595e-252
4.92326e-252
2.33725e-251
1.05722e-250
3.14308e-250
5.83811e-250
1.36492e-249
6.57881e-251
3.38637e-250
4.20488e-252
2.95558e-251
2.89498e-253
1.72575e-252
3.61253e-254
1.68478e-253
1.59659e-254
6.1654e-254
8.50539e-255
3.0571e-254
3.26188e-255
1.19789e-254
9.68377e-256
3.76302e-255
2.48655e-256
1.02136e-255
5.93202e-257
2.54812e-256
1.37054e-257
6.0966e-257
3.50316e-258
1.30652e-257
9.11731e-259
3.30273e-258
2.42009e-259
8.48791e-259
6.55042e-260
2.21942e-259
1.80675e-260
5.9043e-260
5.07332e-261
1.59702e-260
1.44853e-261
4.38758e-261
4.20017e-262
1.22305e-261
1.23559e-262
3.45599e-262
3.68504e-263
9.89355e-263
1.11381e-263
2.8685e-263
3.41142e-264
8.423e-264
1.05891e-264
2.5053e-264
3.33185e-265
7.55021e-265
1.06305e-265
2.30635e-265
3.44043e-266
7.14373e-266
1.12985e-266
2.24457e-266
3.76638e-267
7.15661e-267
1.27485e-267
2.3163e-267
4.38271e-268
7.61255e-268
1.53067e-268
2.54111e-268
5.43195e-269
8.61725e-269
1.959e-269
2.96918e-269
7.18066e-270
1.03965e-269
2.67538e-270
3.69967e-270
1.01323e-270
1.33808e-270
3.89985e-271
4.91768e-271
1.52306e-271
1.83365e-271
5.97342e-272
6.86534e-272
2.40818e-272
3.13238e-254
9.62487e-254
1.71792e-253
5.48105e-253
6.15433e-253
2.24879e-252
1.49982e-252
6.6845e-252
3.41699e-252
1.79816e-251
1.64397e-251
9.09809e-251
2.17498e-250
1.03816e-249
3.75712e-249
1.14867e-248
1.7075e-248
4.28382e-248
2.32187e-249
1.11621e-248
1.7476e-250
1.12134e-249
1.45166e-251
8.1188e-251
2.64415e-252
1.18526e-251
1.40903e-252
5.32719e-252
7.32692e-253
2.60694e-252
2.74518e-253
1.00015e-252
8.07745e-254
3.11068e-253
2.07132e-254
8.42771e-254
4.94513e-255
2.10527e-254
1.14275e-255
5.04294e-255
2.92448e-256
1.08292e-255
7.62354e-257
2.74399e-256
2.0276e-257
7.07032e-257
5.50175e-258
1.85427e-257
1.52233e-258
4.95046e-258
4.29172e-259
1.34476e-258
1.23126e-259
3.71321e-259
3.59019e-260
1.04106e-259
1.0628e-260
2.96075e-260
3.19168e-261
8.53562e-261
9.7189e-262
2.49351e-261
3.00036e-262
7.38063e-262
9.39084e-263
2.21374e-262
2.98045e-263
6.72984e-263
9.59432e-264
2.07424e-263
3.13349e-264
6.48386e-264
1.03862e-264
2.05627e-264
3.49489e-265
6.61823e-265
1.19419e-265
2.16248e-265
4.14464e-266
7.17507e-266
1.46137e-266
2.41806e-266
5.23567e-267
8.27861e-267
1.90625e-267
2.87982e-267
7.05391e-268
1.01799e-267
2.65311e-268
3.65703e-268
1.01429e-268
1.33517e-268
3.94053e-269
4.95305e-269
1.55322e-269
1.86399e-269
6.14669e-270
7.04198e-270
2.49025e-270
1.82594e-252
5.88798e-252
9.82008e-252
3.30356e-251
3.56319e-251
1.36542e-250
9.02218e-251
4.19263e-250
2.08559e-250
1.14087e-249
8.52622e-250
4.83995e-249
8.70151e-249
4.1517e-248
1.20837e-247
3.75058e-247
4.47671e-247
1.178e-246
7.21665e-248
3.28465e-247
6.33412e-249
3.76721e-248
6.43771e-250
3.41007e-249
1.61208e-250
6.97523e-250
9.21412e-251
3.41719e-250
4.63167e-251
1.63146e-250
1.70418e-251
6.15742e-251
4.99637e-252
1.9064e-251
1.28427e-252
5.17492e-252
3.07931e-253
1.29887e-252
7.146e-254
3.12728e-253
1.836e-254
6.74728e-254
4.80171e-255
1.71652e-254
1.28106e-255
4.43934e-255
3.48774e-256
1.16876e-255
9.6876e-257
3.13352e-256
2.74323e-257
8.55244e-257
7.91001e-258
2.3741e-257
2.31953e-258
6.69532e-258
6.90928e-259
1.91632e-258
2.08885e-259
5.56248e-259
6.40616e-260
1.63677e-259
1.99251e-260
4.88156e-260
6.28492e-261
1.47569e-260
2.01071e-261
4.52249e-261
6.5259e-262
1.40545e-261
2.14923e-262
4.4304e-262
7.18454e-263
1.41708e-262
2.43839e-263
4.60047e-263
8.40439e-264
1.51631e-263
2.94241e-264
5.07529e-264
1.04659e-264
1.72549e-264
3.78261e-265
5.95962e-265
1.38933e-265
2.09142e-265
5.18629e-266
7.4581e-266
1.96777e-266
2.70279e-266
7.58853e-267
9.95411e-267
2.97379e-267
3.7248e-267
1.18227e-267
1.41386e-267
4.7182e-268
5.38654e-268
1.91961e-268
8.02461e-251
2.71743e-250
4.23915e-250
1.50625e-249
1.55481e-249
6.28333e-249
4.08805e-249
1.99724e-248
9.81585e-249
5.61169e-248
3.72166e-248
2.16101e-247
3.10774e-247
1.47436e-246
3.49311e-246
1.09214e-245
1.05897e-245
2.8866e-245
1.9959e-246
8.70795e-246
2.0366e-247
1.13694e-246
2.5685e-248
1.29594e-247
8.12396e-249
3.40566e-248
4.69356e-249
1.7106e-248
2.2808e-249
7.95604e-249
8.27838e-250
2.96614e-249
2.43088e-250
9.18981e-250
6.28924e-251
2.50976e-250
1.51912e-251
6.34818e-251
3.5498e-252
1.54026e-251
9.18113e-253
3.34767e-252
2.41477e-253
8.57074e-253
6.47316e-254
2.2285e-253
1.77e-254
5.89535e-254
4.93817e-255
1.58821e-254
1.40509e-255
4.35708e-255
4.07311e-256
1.21625e-255
1.20133e-256
3.45063e-256
3.60074e-257
9.93957e-257
1.09578e-257
2.90462e-257
3.38388e-258
8.60719e-258
1.06008e-258
2.58581e-258
3.36871e-259
7.87587e-259
1.086e-259
2.43236e-259
3.5523e-260
7.61875e-260
1.17924e-260
2.42094e-260
3.97391e-261
7.8065e-261
1.35976e-261
2.55517e-261
4.72531e-262
8.49159e-262
1.66807e-262
2.86591e-262
5.9826e-263
9.82491e-263
2.1803e-263
3.42181e-263
8.07503e-264
1.21088e-263
3.03954e-264
4.35421e-264
1.16287e-264
1.59113e-264
4.52179e-265
5.90877e-265
1.78667e-265
2.22937e-265
7.16162e-266
8.53194e-266
2.88122e-266
3.27688e-266
1.17663e-266
2.79758e-249
9.95934e-249
1.45417e-248
5.47088e-248
5.38476e-248
2.30915e-247
1.4686e-247
7.60855e-247
3.70415e-247
2.22508e-246
1.37466e-246
8.14941e-246
9.88411e-246
4.64417e-245
9.08958e-245
2.85105e-244
2.29437e-244
6.4353e-244
5.0094e-245
2.11532e-244
5.963e-246
3.14451e-245
9.27337e-247
4.47943e-246
3.41862e-247
1.39283e-246
1.94056e-247
6.96152e-247
9.13895e-248
3.15853e-247
3.2849e-248
1.16741e-247
9.69356e-249
3.63179e-248
2.53376e-249
1.00157e-248
6.18421e-250
2.56051e-249
1.45875e-250
6.27541e-250
3.80568e-251
1.37663e-250
1.00844e-251
3.55306e-251
2.72067e-252
9.30296e-252
7.48264e-253
2.4765e-252
2.09921e-253
6.71131e-253
6.00619e-254
1.85197e-253
1.75108e-254
5.20058e-254
5.19571e-255
1.48464e-254
1.56715e-255
4.30428e-255
4.80072e-256
1.26633e-255
1.49271e-256
3.77879e-256
4.70957e-257
1.14345e-256
1.50759e-257
3.50857e-257
4.89665e-258
1.0918e-257
1.61397e-258
3.44623e-258
5.39957e-259
1.10367e-258
1.83395e-259
3.58711e-259
6.32522e-260
1.18351e-259
2.21573e-260
3.96488e-260
7.88486e-261
1.34899e-260
2.85085e-261
4.66221e-261
1.0474e-261
1.63698e-261
3.91073e-262
5.84001e-262
1.48401e-262
2.11711e-262
5.72358e-263
7.79929e-263
2.24362e-263
2.91979e-263
8.93658e-264
1.11053e-263
3.61085e-264
4.2842e-264
1.46422e-264
1.65851e-264
6.00005e-265
8.01421e-248
3.00275e-247
4.10047e-247
1.63788e-246
1.52985e-246
7.00384e-246
4.32037e-246
2.39199e-245
1.15244e-245
7.30165e-245
4.32552e-245
2.61225e-244
2.79537e-244
1.29716e-243
2.13343e-243
6.70365e-243
4.60358e-243
1.32433e-242
1.15678e-243
4.76401e-243
1.6077e-244
8.07667e-244
3.03159e-245
1.40698e-244
1.2242e-245
4.85887e-245
6.72877e-246
2.37937e-245
3.07827e-246
1.05475e-245
1.09912e-246
3.87601e-246
3.26776e-247
1.21388e-246
8.65647e-248
3.39091e-247
2.14162e-248
8.788e-248
5.11148e-249
2.18042e-248
1.34753e-249
4.83583e-249
3.60306e-250
1.26012e-249
9.79668e-251
3.32678e-250
2.7132e-251
8.92165e-251
7.66155e-252
2.43444e-251
2.20612e-252
6.76264e-252
6.47314e-253
1.91169e-252
1.93325e-253
5.4942e-253
5.87022e-254
1.60382e-253
1.8106e-254
4.75158e-254
5.66939e-255
1.42803e-254
1.80158e-255
4.35265e-255
5.80929e-256
1.34547e-255
1.90091e-256
4.21835e-256
6.31288e-257
1.34165e-256
2.12813e-257
4.32977e-257
7.28393e-258
1.41818e-257
2.53175e-258
4.71565e-258
8.93818e-259
1.59221e-258
3.20574e-259
5.46004e-259
1.16821e-259
1.90197e-259
4.32595e-260
6.73106e-260
1.62798e-260
2.42039e-260
6.22659e-261
8.84392e-261
2.42048e-261
3.28385e-261
9.56305e-262
1.23908e-261
3.83904e-262
4.74989e-262
1.56334e-262
1.8468e-262
6.38883e-263
7.20523e-263
2.62619e-263
1.94178e-246
7.6635e-246
9.78035e-246
4.15704e-245
3.6707e-245
1.80232e-244
1.07275e-244
6.37534e-244
3.04561e-244
2.03353e-243
1.18044e-243
7.22273e-243
7.06017e-243
3.22865e-242
4.53917e-242
1.4292e-241
8.61133e-242
2.53733e-241
2.48192e-242
1.00158e-241
4.03696e-243
1.93964e-242
8.98849e-244
4.01643e-243
3.80295e-244
1.47295e-243
2.00952e-244
7.01312e-244
8.94868e-245
3.04212e-244
3.18164e-245
1.11401e-244
9.55003e-246
3.51956e-245
2.56952e-246
9.98e-246
6.46079e-247
2.62861e-246
1.5642e-247
6.6181e-247
4.17442e-248
1.48643e-247
1.1279e-248
3.91585e-248
3.09461e-249
1.04363e-248
8.63993e-250
2.82245e-249
2.45805e-250
7.7617e-250
7.12878e-251
2.17218e-250
2.10649e-251
6.18512e-251
6.33553e-252
1.79046e-251
1.93739e-252
5.26439e-252
6.01838e-253
1.57101e-252
1.8981e-253
4.7561e-253
6.07568e-254
1.46039e-253
1.9736e-254
4.54797e-254
6.50614e-255
1.43661e-254
2.17692e-255
4.60379e-255
7.39421e-256
1.49707e-255
2.55011e-256
4.94113e-256
8.93164e-257
1.65566e-256
3.17754e-257
5.63348e-257
1.14845e-257
1.94682e-257
4.2175e-258
6.83428e-258
1.57387e-258
2.43745e-258
5.96888e-259
8.83287e-259
2.30064e-259
3.25254e-259
9.01265e-260
1.21707e-259
3.58832e-260
4.62786e-260
1.45163e-260
1.78775e-260
5.95682e-261
7.00453e-261
2.45304e-261
2.75381e-261
1.01122e-261
4.07953e-245
1.69595e-244
2.02313e-244
9.15764e-244
7.63937e-244
4.02834e-243
2.31599e-243
1.47502e-242
7.02974e-243
4.90617e-242
2.84311e-242
1.74548e-241
1.60361e-241
7.19958e-241
8.82194e-241
2.78743e-240
1.51112e-240
4.55686e-240
4.98559e-241
1.97606e-240
9.48985e-242
4.3705e-241
2.42451e-242
1.0444e-241
1.04388e-242
3.95059e-242
5.28595e-243
1.82272e-242
2.29547e-243
7.7486e-243
8.1427e-244
2.83292e-243
2.47209e-244
9.04571e-244
6.76772e-245
2.60813e-244
1.73328e-245
6.99592e-245
4.26631e-246
1.79109e-245
1.15464e-246
4.08062e-246
3.15717e-247
1.08827e-246
8.75193e-248
2.93142e-247
2.466e-248
8.00335e-248
7.07517e-249
2.22012e-248
2.06838e-249
6.26437e-249
6.15922e-250
1.79787e-249
1.86652e-250
5.24475e-250
5.75061e-251
1.55386e-250
1.79973e-251
4.67221e-251
5.71833e-252
1.42515e-251
1.84404e-252
4.40898e-252
6.03482e-253
1.3834e-252
2.00433e-253
4.40287e-253
6.75671e-254
1.42162e-253
2.31229e-254
4.65786e-254
8.0348e-255
1.54901e-254
2.83545e-255
5.22985e-255
1.0164e-255
1.79303e-255
3.70146e-256
6.24361e-256
1.36964e-256
2.20853e-256
5.15007e-257
7.93682e-257
1.96801e-257
2.89807e-257
7.64316e-258
1.07528e-257
3.01689e-258
4.0542e-258
1.21025e-258
1.55328e-258
4.93295e-259
6.04575e-259
2.03954e-259
2.38667e-259
8.46237e-260
9.45417e-260
3.49749e-260
7.60135e-244
3.32434e-243
3.71382e-243
1.78727e-242
1.4135e-242
7.97664e-242
4.46693e-242
3.0198e-241
1.45577e-241
1.04508e-240
6.15801e-241
3.74457e-240
3.31025e-240
1.45291e-239
1.57882e-239
5.01774e-239
2.50593e-239
7.72538e-239
9.44759e-240
3.67707e-239
2.09623e-240
9.26785e-240
5.98291e-241
2.487e-240
2.57499e-241
9.5323e-241
1.24997e-241
4.26322e-241
5.30248e-242
1.77902e-241
1.87978e-242
6.50436e-242
5.78152e-243
2.10239e-242
1.61303e-243
6.17309e-243
4.21512e-244
1.68896e-243
1.05709e-244
4.40579e-244
2.90683e-245
1.01998e-244
8.05548e-246
2.75761e-245
2.25894e-246
7.51599e-246
6.43066e-247
2.07367e-246
1.8625e-247
5.80801e-247
5.49327e-248
1.65364e-247
1.64964e-248
4.78684e-248
5.04003e-249
1.40801e-248
1.56516e-249
4.20517e-249
4.93664e-250
1.27442e-249
1.58062e-250
3.91758e-250
5.13605e-251
1.22131e-250
1.69356e-251
3.86136e-251
5.66714e-252
1.23826e-251
1.92477e-252
4.02833e-252
6.63628e-253
1.3298e-252
2.32321e-253
4.45552e-253
8.25964e-254
1.51555e-253
2.98278e-254
5.2348e-254
1.09432e-254
1.83641e-254
4.07928e-255
6.54412e-255
1.54522e-255
2.3692e-255
5.94839e-256
8.71495e-256
2.32719e-256
3.25739e-256
9.25331e-257
1.23719e-256
3.73925e-257
4.7748e-257
1.53526e-257
1.87208e-257
6.39402e-258
7.44448e-258
2.67251e-258
2.97068e-258
1.10705e-258
1.2849e-242
5.89327e-242
6.19401e-242
3.15366e-241
2.38486e-241
1.42687e-240
7.90308e-241
5.57374e-240
2.77e-240
2.00179e-239
1.21932e-239
7.24389e-239
6.26375e-239
2.6837e-238
2.62976e-238
8.42571e-238
3.95884e-238
1.24552e-237
1.69585e-238
6.49341e-238
4.36468e-239
1.85456e-238
1.36147e-239
5.46653e-239
5.8046e-240
2.10413e-239
2.70949e-240
9.15086e-240
1.1248e-240
3.75507e-240
3.99181e-241
1.37525e-240
1.24578e-241
4.50682e-241
3.54784e-242
1.34962e-241
9.47539e-243
3.77208e-242
2.42567e-243
1.00427e-242
6.78833e-244
2.36609e-243
1.90974e-244
6.49476e-244
5.42511e-245
1.79351e-244
1.56221e-245
5.00613e-245
4.57229e-246
1.41709e-245
1.3618e-246
4.07483e-246
4.12742e-247
1.1906e-246
1.27215e-247
3.53327e-247
3.98407e-248
1.06428e-247
1.2669e-248
3.25204e-248
4.08871e-249
1.00771e-248
1.33893e-249
3.16619e-249
4.44874e-250
1.00874e-249
1.49989e-250
3.2593e-250
5.13204e-251
1.06825e-250
1.78246e-251
3.55245e-251
6.28549e-252
1.19897e-251
2.25083e-252
4.10792e-252
8.18678e-253
1.42913e-252
3.025e-253
5.0494e-253
1.13565e-253
1.81219e-253
4.33223e-254
6.60725e-254
1.67945e-254
2.44758e-254
6.61663e-255
9.21262e-255
2.64929e-255
3.52353e-255
1.07804e-255
1.36936e-255
4.45699e-256
5.40626e-256
1.86916e-256
2.16483e-256
7.86758e-257
8.69956e-257
3.26515e-257
2.01282e-241
9.63243e-241
9.60126e-241
5.12789e-240
3.7599e-240
2.34964e-239
1.31427e-239
9.45059e-239
4.94121e-239
3.5121e-238
2.24138e-238
1.28487e-237
1.10055e-237
4.59757e-237
4.1344e-237
1.33626e-236
6.02138e-237
1.92694e-236
2.91425e-237
1.09639e-236
8.62211e-238
3.5242e-237
2.8892e-238
1.12195e-237
1.21706e-238
4.32585e-238
5.48038e-239
1.83535e-238
2.2365e-239
7.43976e-239
7.95942e-240
2.73397e-239
2.52477e-240
9.09797e-240
7.35223e-241
2.78304e-240
2.01028e-241
7.95789e-241
5.26217e-242
2.16564e-241
1.50132e-242
5.20074e-242
4.2942e-243
1.45142e-242
1.23761e-243
4.06648e-243
3.60974e-244
1.14976e-243
1.06884e-244
3.29285e-244
3.21775e-245
9.57132e-245
9.85099e-246
2.82498e-245
3.06512e-246
8.46364e-246
9.68565e-247
2.57245e-246
3.10639e-247
7.92827e-247
1.01078e-247
2.47705e-247
3.33627e-248
7.84484e-248
1.11704e-248
2.51864e-248
3.79424e-249
8.199e-249
1.30773e-249
2.70695e-249
4.57451e-250
9.06658e-250
1.62446e-250
3.08159e-250
5.85744e-251
1.06315e-250
2.14504e-251
3.72396e-251
7.97941e-252
1.32465e-251
3.01564e-252
4.7859e-252
1.15802e-252
1.75651e-252
4.51872e-253
6.5496e-253
1.79188e-253
2.48135e-253
7.22121e-254
9.55199e-254
2.9574e-254
3.7362e-254
1.23057e-254
1.48457e-254
5.19405e-255
5.98304e-255
2.20062e-255
2.42017e-255
9.14548e-256
2.98891e-240
1.48172e-239
1.41724e-239
7.8466e-239
5.67856e-239
3.63656e-238
2.0993e-238
1.50128e-237
8.39841e-238
5.74965e-237
3.88421e-237
2.12849e-236
1.82233e-236
7.42111e-236
6.23069e-236
2.03032e-235
8.92736e-236
2.89236e-235
4.84371e-236
1.78797e-235
1.63103e-236
6.42174e-236
5.80143e-237
2.18297e-236
2.41572e-237
8.43473e-237
1.05519e-237
3.51033e-237
4.2516e-238
1.4117e-237
1.52195e-238
5.22039e-238
4.91835e-239
1.76784e-238
1.46736e-239
5.53356e-239
4.11467e-240
1.62124e-239
1.10323e-240
4.51664e-240
3.21377e-241
1.1071e-240
9.36061e-242
3.14583e-241
2.74089e-242
8.95405e-242
8.10864e-243
2.56779e-242
2.43216e-243
7.44956e-243
7.40922e-244
2.19114e-243
2.29315e-244
6.53808e-244
7.20773e-245
1.97878e-244
2.29933e-245
6.07174e-245
7.44062e-246
1.88814e-245
2.44166e-246
5.94935e-246
8.12426e-247
1.89942e-246
2.74113e-247
6.1454e-247
9.37983e-248
2.01539e-247
3.25597e-248
6.70155e-248
1.14683e-248
2.26016e-248
4.09989e-249
7.73364e-249
1.48801e-249
2.6856e-249
5.4841e-250
9.4673e-250
2.05284e-250
3.38876e-250
7.806e-251
1.23188e-250
3.01569e-251
4.54866e-251
1.18379e-251
1.70623e-251
4.722e-252
6.50233e-252
1.91407e-252
2.51772e-252
7.88443e-253
9.90502e-253
3.29963e-253
3.95844e-253
1.40078e-253
1.60456e-253
5.97017e-254
6.5292e-254