/*--------------------------------*- C++ -*----------------------------------*\
  =========                 |
  \\      /  F ield         | OpenFOAM: The Open Source CFD Toolbox
   \\    /   O peration     | Website:  https://openfoam.org
    \\  /    A nd           | Version:  9
     \\/     M anipulation  |
\*---------------------------------------------------------------------------*/
FoamFile
{
    format      ascii;
    class       volScalarField;
    location    "0.05";
    object      p;
}
// * * * * * * * * * * * * * * * * * * * * * * * * * * * * * * * * * * * * * //

dimensions      [1 -1 -2 0 0 0 0];

internalField   nonuniform List<scalar> 
5000
(
0.836367
0.90652
0.584842
0.883458
0.905825
0.840738
0.748845
0.428618
0.87302
0.435385
0.792243
0.875034
0.947003
0.960689
0.920932
0.907014
0.931583
0.953368
0.966974
0.975814
0.981432
0.98516
0.987981
0.990203
0.991994
0.993447
0.994627
0.995582
0.996352
0.99697
0.997464
0.997856
0.998164
0.998404
0.998588
0.998727
0.998828
0.998898
0.998944
0.99897
0.99898
0.998977
0.998962
0.998938
0.998907
0.998868
0.998821
0.998767
0.998702
0.998622
0.898197
0.887184
0.777365
0.896192
0.896419
0.841826
0.75572
0.550209
0.820939
0.577779
0.79773
0.875026
0.926683
0.94508
0.934272
0.934249
0.948964
0.962013
0.971791
0.979142
0.984071
0.987417
0.989939
0.991887
0.993411
0.994608
0.995544
0.996272
0.99683
0.997253
0.997566
0.99779
0.997942
0.998036
0.998084
0.998094
0.998075
0.998033
0.997972
0.997897
0.99781
0.997713
0.99761
0.997499
0.997383
0.997261
0.997132
0.996997
0.996851
0.996695
0.948051
0.929085
0.880147
0.947754
0.925717
0.874809
0.820839
0.670076
0.832446
0.68917
0.832711
0.901474
0.940898
0.955582
0.949403
0.949953
0.959335
0.968498
0.976
0.981915
0.986012
0.988847
0.990985
0.992617
0.993867
0.994821
0.995541
0.996073
0.996455
0.996719
0.996886
0.996977
0.997007
0.996988
0.996931
0.996846
0.996738
0.996613
0.996476
0.996329
0.996175
0.996017
0.995855
0.995692
0.995528
0.995363
0.9952
0.995038
0.994878
0.994722
0.979356
0.968478
0.945894
0.988568
0.963976
0.922525
0.887594
0.787856
0.874811
0.793299
0.884484
0.933922
0.961372
0.969632
0.963827
0.963484
0.969141
0.97541
0.980927
0.985384
0.988532
0.990733
0.992386
0.99363
0.994556
0.995232
0.995708
0.996026
0.996217
0.996308
0.99632
0.996269
0.996169
0.996031
0.995865
0.995678
0.995477
0.995266
0.995049
0.994829
0.994606
0.994385
0.994165
0.993948
0.993736
0.99353
0.99333
0.993137
0.99295
0.992771
0.998846
0.997064
0.987237
1.01201
0.994298
0.966394
0.950582
0.894191
0.938255
0.888629
0.940526
0.965252
0.981061
0.983172
0.977911
0.976731
0.9793
0.982861
0.986394
0.989393
0.99156
0.993075
0.994191
0.994998
0.99556
0.995924
0.99613
0.996209
0.996189
0.996091
0.995932
0.995725
0.995482
0.995214
0.994927
0.99463
0.994327
0.994022
0.993717
0.993415
0.993117
0.992825
0.992541
0.992266
0.992
0.991744
0.991499
0.991265
0.991041
0.990826
1.01321
1.01657
1.01321
1.02749
1.01855
1.00395
1.00788
0.984889
1.00627
0.972681
0.995601
0.995089
0.999758
0.996507
0.990955
0.988898
0.989131
0.990439
0.992131
0.993715
0.994893
0.995699
0.996252
0.996597
0.996771
0.996803
0.99672
0.996547
0.996304
0.996006
0.995666
0.995294
0.994901
0.994494
0.994081
0.993667
0.993256
0.992851
0.992453
0.992064
0.991686
0.991319
0.990966
0.990627
0.990302
0.989991
0.989695
0.989412
0.989143
0.988885
1.02459
1.02996
1.03031
1.04004
1.0394
1.03599
1.05735
1.05749
1.06826
1.04305
1.04568
1.02311
1.01768
1.00945
1.00311
0.999713
0.998174
0.997736
0.997851
0.998131
0.998351
0.998453
0.998436
0.998311
0.998088
0.99778
0.997403
0.996973
0.996501
0.995998
0.995473
0.994933
0.994386
0.993838
0.993296
0.992763
0.992241
0.991732
0.991237
0.990759
0.990297
0.989853
0.989427
0.98902
0.988631
0.988261
0.987908
0.987573
0.987253
0.986947
1.03362
1.03976
1.04236
1.05032
1.05646
1.06172
1.0963
1.11123
1.11829
1.09851
1.0875
1.04747
1.03392
1.02156
1.0142
1.00942
1.00645
1.0046
1.00338
1.0025
1.00183
1.00125
1.00068
1.00009
0.999469
0.998821
0.998151
0.997462
0.996761
0.996052
0.99534
0.994631
0.993929
0.99324
0.992567
0.991912
0.991276
0.990662
0.990068
0.989497
0.988949
0.988423
0.987922
0.987443
0.986987
0.986552
0.986139
0.985745
0.985369
0.985011
1.04094
1.04746
1.05135
1.05835
1.06922
1.08078
1.12394
1.14706
1.15375
1.13884
1.11907
1.06696
1.04779
1.03264
1.02392
1.01819
1.01406
1.01101
1.00863
1.00673
1.00524
1.00403
1.00293
1.00189
1.00088
0.999902
0.998942
0.997998
0.997068
0.996154
0.995257
0.994379
0.993523
0.992692
0.991887
0.991109
0.990358
0.989636
0.988941
0.988275
0.987638
0.987029
0.986447
0.985893
0.985366
0.984863
0.984384
0.983928
0.983492
0.983077
1.04706
1.05371
1.05837
1.06475
1.07838
1.09446
1.1416
1.16771
1.17501
1.16503
1.1403
1.08165
1.05915
1.04213
1.03261
1.02607
1.02097
1.0169
1.01355
1.01074
1.00852
1.00673
1.00513
1.00366
1.00229
1.00099
0.999746
0.998553
0.9974
0.996285
0.995205
0.994161
0.993152
0.99218
0.991244
0.990343
0.989477
0.988646
0.98785
0.987087
0.986359
0.985663
0.985
0.984368
0.983765
0.983191
0.982643
0.98212
0.98162
0.981144
1.05223
1.05888
1.06403
1.0702
1.08546
1.10394
1.15156
1.17703
1.18478
1.17915
1.15251
1.09226
1.06829
1.05013
1.04021
1.03302
1.02713
1.02225
1.01807
1.01448
1.01161
1.0093
1.00724
1.00537
1.00365
1.00205
1.00053
0.9991
0.997732
0.996422
0.995165
0.993959
0.992801
0.991691
0.990626
0.989604
0.988624
0.987685
0.986786
0.985926
0.985106
0.984322
0.983575
0.982862
0.982182
0.981532
0.980912
0.98032
0.979753
0.979213
1.0566
1.06319
1.06866
1.07488
1.0906
1.11059
1.15623
1.17897
1.18651
1.18383
1.15761
1.09958
1.07527
1.05701
1.04673
1.03904
1.03254
1.027
1.02215
1.01791
1.01446
1.01168
1.00921
1.00698
1.00494
1.00305
1.00128
0.999618
0.998043
0.996546
0.995119
0.993758
0.992456
0.991212
0.990021
0.98888
0.987788
0.986742
0.985742
0.984786
0.983873
0.983001
0.982168
0.981373
0.980613
0.979886
0.979191
0.978526
0.977889
0.977283
1.0603
1.0668
1.07244
1.0788
1.09455
1.11495
1.15752
1.17671
1.18323
1.18177
1.15758
1.1044
1.08064
1.06257
1.05216
1.04416
1.03722
1.03118
1.02578
1.02099
1.01705
1.01386
1.01102
1.00846
1.00612
1.00397
1.00196
1.00009
0.998316
0.996642
0.995054
0.993543
0.992104
0.990731
0.989418
0.988163
0.986961
0.985812
0.984712
0.98366
0.982655
0.981694
0.980775
0.979896
0.979055
0.978249
0.977478
0.976738
0.976029
0.975354
1.06338
1.06982
1.07553
1.08196
1.09732
1.11759
1.15715
1.17253
1.17717
1.17543
1.15415
1.10738
1.08425
1.06696
1.0566
1.04841
1.04119
1.03477
1.02895
1.0237
1.01936
1.01581
1.01265
1.00979
1.00719
1.00479
1.00257
1.00049
0.998537
0.996697
0.994956
0.993304
0.991733
0.990236
0.988807
0.987441
0.986134
0.984883
0.983686
0.982541
0.981444
0.980395
0.97939
0.978427
0.977504
0.976619
0.975769
0.974954
0.97417
0.973426
1.06592
1.07231
1.07806
1.0845
1.09926
1.11981
1.15514
1.16752
1.16972
1.16681
1.14849
1.10856
1.08676
1.07033
1.06012
1.05188
1.04449
1.0378
1.03166
1.02605
1.02137
1.01751
1.01407
1.01096
1.00812
1.0055
1.00308
1.00081
0.998694
0.996699
0.994814
0.993029
0.991334
0.989719
0.988179
0.986706
0.985297
0.983949
0.982657
0.98142
0.980235
0.979098
0.978008
0.976962
0.975957
0.974991
0.974064
0.973172
0.972313
0.971498
1.06795
1.07433
1.08012
1.08661
1.10064
1.12089
1.15285
1.16209
1.16166
1.15739
1.1418
1.10855
1.08814
1.07272
1.06281
1.05462
1.04716
1.0403
1.03392
1.02804
1.02307
1.01897
1.0153
1.01196
1.00891
1.00609
1.00349
1.00106
0.998779
0.996639
0.994621
0.992711
0.990897
0.989171
0.987523
0.985949
0.984443
0.983
0.981617
0.980291
0.979018
0.977797
0.976623
0.975494
0.974409
0.973364
0.972358
0.971389
0.970456
0.96957
1.06949
1.07591
1.08179
1.0884
1.1018
1.12136
1.15003
1.15611
1.15345
1.14806
1.1353
1.10738
1.0885
1.07424
1.06475
1.0567
1.04925
1.04229
1.03575
1.02967
1.02449
1.02019
1.01631
1.01278
1.00955
1.00656
1.00379
1.00121
0.998787
0.996514
0.99437
0.992342
0.990416
0.988583
0.986834
0.985162
0.983562
0.982028
0.980557
0.979145
0.977788
0.976484
0.975228
0.974019
0.972854
0.971731
0.970648
0.969604
0.968597
0.967642
1.07057
1.07706
1.0831
1.08992
1.1028
1.12135
1.14643
1.14942
1.14533
1.13918
1.12913
1.1055
1.0882
1.07507
1.06604
1.05819
1.0508
1.04382
1.03718
1.03096
1.02562
1.02116
1.01712
1.01343
1.01004
1.0069
1.00399
1.00127
0.998716
0.996319
0.994059
0.991919
0.989887
0.987952
0.986105
0.984339
0.982648
0.981027
0.979471
0.977975
0.976537
0.975152
0.973817
0.97253
0.971288
0.970089
0.968931
0.967814
0.966735
0.965712
1.07116
1.07776
1.084
1.09107
1.10344
1.12061
1.14227
1.14177
1.13743
1.13096
1.12331
1.10327
1.08751
1.07539
1.06679
1.05916
1.05187
1.04491
1.03823
1.03192
1.02647
1.02189
1.01773
1.01391
1.01039
1.00712
1.00408
1.00123
0.998566
0.996056
0.993686
0.99144
0.989307
0.987273
0.985332
0.983475
0.981696
0.97999
0.978352
0.976776
0.975258
0.973795
0.972384
0.971021
0.969704
0.968432
0.967203
0.966016
0.964868
0.963781
1.07126
1.07796
1.08442
1.09169
1.10342
1.1187
1.13568
1.13522
1.13001
1.12387
1.11753
1.10082
1.08654
1.0753
1.06708
1.05967
1.05251
1.0456
1.03893
1.03258
1.02706
1.0224
1.01815
1.01423
1.01059
1.00722
1.00406
1.00111
0.998339
0.995725
0.993252
0.990906
0.988674
0.986546
0.984513
0.982568
0.980703
0.978914
0.977195
0.97554
0.973945
0.972407
0.970921
0.969486
0.968098
0.966757
0.96546
0.964207
0.962996
0.961848
1.07086
1.07762
1.08423
1.09159
1.1025
1.11572
1.12883
1.12791
1.12284
1.11733
1.1123
1.09831
1.08535
1.07485
1.06697
1.05977
1.05275
1.04592
1.0393
1.03296
1.02741
1.02271
1.01838
1.01439
1.01067
1.0072
1.00396
1.00091
0.998039
0.995328
0.992759
0.990317
0.987991
0.985771
0.983648
0.981615
0.979667
0.977795
0.975996
0.974264
0.972594
0.970982
0.969425
0.96792
0.966465
0.965058
0.963699
0.962385
0.961116
0.959913
1.06994
1.07668
1.08334
1.09062
1.10052
1.11161
1.12151
1.12028
1.11594
1.11131
1.1075
1.09574
1.08396
1.0741
1.0665
1.0595
1.05262
1.04591
1.03937
1.03308
1.02754
1.02281
1.01845
1.0144
1.01062
1.00708
1.00376
1.00063
0.99767
0.994869
0.992208
0.989675
0.987257
0.984947
0.982736
0.980617
0.978585
0.976632
0.974754
0.972945
0.9712
0.969517
0.967891
0.96632
0.964801
0.963334
0.961917
0.960549
0.959227
0.957976
1.06852
1.07514
1.08171
1.08871
1.09745
1.10647
1.11378
1.11269
1.10933
1.10568
1.10288
1.093
1.08231
1.07304
1.06569
1.05887
1.05217
1.04559
1.03917
1.03295
1.02745
1.02273
1.01836
1.01428
1.01045
1.00686
1.00347
1.00027
0.997233
0.994349
0.991602
0.988981
0.986474
0.984076
0.981778
0.979574
0.977458
0.975425
0.973467
0.971582
0.969764
0.96801
0.966318
0.964684
0.963107
0.961584
0.960115
0.958697
0.95733
0.956035
1.06662
1.07301
1.07934
1.08588
1.0934
1.10057
1.10594
1.10526
1.10296
1.10026
1.09822
1.08992
1.08033
1.07165
1.06455
1.05792
1.0514
1.04499
1.03871
1.03261
1.02717
1.02249
1.01813
1.01403
1.01018
1.00654
1.0031
0.999837
0.996732
0.993771
0.990942
0.988236
0.985644
0.98316
0.980776
0.978488
0.976289
0.974173
0.972137
0.970176
0.968286
0.966464
0.964708
0.963014
0.961382
0.959809
0.958292
0.956832
0.955424
0.954092
1.0643
1.07037
1.07633
1.08227
1.08859
1.09423
1.09824
1.09811
1.0968
1.0949
1.09334
1.0864
1.07792
1.06988
1.06307
1.05665
1.05034
1.04414
1.03804
1.03207
1.02673
1.0221
1.01776
1.01367
1.00981
1.00614
1.00266
0.999338
0.996168
0.993135
0.990229
0.987442
0.984767
0.982199
0.979731
0.977359
0.975077
0.972881
0.970767
0.968731
0.96677
0.964882
0.963065
0.961315
0.959631
0.958011
0.956453
0.954954
0.953511
0.952147
1.06163
1.06731
1.07281
1.07808
1.08332
1.08775
1.0909
1.0913
1.09081
1.0895
1.08819
1.0824
1.07504
1.06772
1.06125
1.0551
1.04904
1.04306
1.03716
1.03136
1.02613
1.02157
1.01728
1.01321
1.00934
1.00566
1.00214
0.99877
0.995541
0.99244
0.989461
0.986597
0.983843
0.981193
0.978643
0.976189
0.973826
0.97155
0.96936
0.967251
0.965222
0.963271
0.961395
0.959593
0.957861
0.956198
0.954601
0.953067
0.951594
0.9502
1.05872
1.06396
1.06894
1.07356
1.07787
1.08141
1.08404
1.08489
1.08499
1.08407
1.08283
1.078
1.07171
1.06516
1.05912
1.05328
1.04752
1.0418
1.03613
1.03051
1.02541
1.02094
1.0167
1.01266
1.0088
1.0051
1.00155
0.998136
0.994851
0.991687
0.988639
0.985701
0.98287
0.980141
0.977512
0.974978
0.972536
0.970185
0.967921
0.965743
0.963649
0.961638
0.959708
0.957855
0.956079
0.954376
0.952743
0.951177
0.949674
0.948252
1.05566
1.06045
1.06492
1.06894
1.07251
1.07542
1.07775
1.07893
1.07939
1.07866
1.07739
1.07334
1.06802
1.06227
1.05673
1.05126
1.04582
1.04039
1.03496
1.02955
1.02459
1.02021
1.01604
1.01203
1.00818
1.00447
1.00089
0.997436
0.994099
0.990875
0.987761
0.984752
0.981847
0.979043
0.976337
0.973728
0.971212
0.968788
0.966456
0.964214
0.96206
0.959993
0.958012
0.956113
0.954295
0.952553
0.950885
0.949287
0.947755
0.946305
1.05256
1.05691
1.06091
1.06441
1.06743
1.06992
1.07207
1.07344
1.07406
1.07336
1.07211
1.06862
1.06415
1.05916
1.05416
1.04911
1.04401
1.03888
1.03371
1.02849
1.02369
1.01941
1.0153
1.01133
1.00749
1.00377
1.00017
0.996673
0.993287
0.990005
0.986826
0.98375
0.980775
0.977899
0.975121
0.97244
0.969856
0.967366
0.964972
0.962671
0.960463
0.958346
0.956318
0.954376
0.952517
0.950738
0.949035
0.947403
0.945839
0.944359
1.04949
1.05345
1.05703
1.06012
1.06275
1.06497
1.067
1.06845
1.0691
1.06843
1.06703
1.06404
1.06026
1.05598
1.05151
1.04689
1.04215
1.03732
1.03239
1.02739
1.02273
1.01855
1.01451
1.01057
1.00674
1.00301
0.999384
0.995852
0.992416
0.989078
0.985839
0.982697
0.979654
0.976711
0.973866
0.97112
0.968473
0.965925
0.963475
0.961123
0.958867
0.956704
0.954634
0.952652
0.950754
0.948937
0.947197
0.945529
0.94393
0.942415
1.04652
1.05014
1.05339
1.05616
1.05853
1.06058
1.06251
1.06394
1.06455
1.06388
1.06241
1.05976
1.05654
1.05286
1.04889
1.04468
1.04029
1.03575
1.03107
1.02626
1.02174
1.01766
1.01367
1.00977
1.00595
1.00221
0.998549
0.994978
0.991495
0.988103
0.984804
0.9816
0.978494
0.975487
0.97258
0.969776
0.967073
0.964473
0.961975
0.959578
0.957279
0.955076
0.952966
0.950945
0.949009
0.947153
0.945373
0.943665
0.942026
0.940474
1.04369
1.04703
1.05001
1.05257
1.05477
1.05672
1.05855
1.05992
1.06046
1.05978
1.05828
1.05591
1.05311
1.04991
1.04639
1.04255
1.03848
1.03422
1.02977
1.02514
1.02075
1.01675
1.01281
1.00893
1.00511
1.00136
0.997675
0.994065
0.990535
0.98709
0.983734
0.980471
0.977305
0.97424
0.971277
0.96842
0.965668
0.963022
0.960482
0.958044
0.955707
0.953467
0.951319
0.949259
0.947283
0.945386
0.943563
0.941812
0.940129
0.938534
1.04103
1.04415
1.04694
1.04935
1.05145
1.05333
1.05507
1.05635
1.05681
1.05614
1.05467
1.05252
1.05004
1.04723
1.04407
1.04056
1.03679
1.03277
1.02852
1.02405
1.01977
1.01584
1.01195
1.00808
1.00426
1.00049
0.996777
0.993128
0.989552
0.986056
0.982646
0.979328
0.976108
0.972989
0.969976
0.967071
0.964275
0.961587
0.959007
0.956531
0.954156
0.951877
0.94969
0.947589
0.945571
0.94363
0.941762
0.939964
0.938235
0.936595
1.03854
1.0415
1.04416
1.04648
1.04852
1.05036
1.05201
1.0532
1.0536
1.05296
1.05157
1.0496
1.04738
1.04485
1.04198
1.03876
1.03523
1.03143
1.02735
1.02302
1.01884
1.01497
1.0111
1.00724
1.00341
0.999622
0.995877
0.992189
0.988569
0.985025
0.981565
0.978197
0.974927
0.97176
0.968701
0.965751
0.962912
0.960183
0.957562
0.955045
0.952629
0.950308
0.948077
0.945931
0.943866
0.941878
0.939962
0.938117
0.936341
0.934656
1.03624
1.03908
1.04165
1.04392
1.04594
1.04774
1.04933
1.05044
1.05079
1.05021
1.04891
1.04713
1.0451
1.04279
1.04016
1.03717
1.03385
1.03023
1.0263
1.02209
1.01798
1.01415
1.0103
1.00644
1.0026
0.99878
0.995002
0.991277
0.987614
0.984026
0.980521
0.977108
0.973792
0.970581
0.967477
0.964483
0.9616
0.958826
0.956159
0.953595
0.951129
0.948758
0.946475
0.944278
0.942162
0.940122
0.938157
0.936265
0.934444
0.932716
1.03412
1.03688
1.0394
1.04165
1.04366
1.04544
1.04696
1.04801
1.04834
1.04783
1.04666
1.04504
1.04318
1.04105
1.03861
1.03581
1.03266
1.02919
1.02539
1.02127
1.01721
1.01341
1.00957
1.00571
1.00184
0.997998
0.994187
0.990424
0.986722
0.983092
0.979546
0.97609
0.972732
0.969478
0.96633
0.963289
0.960356
0.95753
0.954807
0.952185
0.949659
0.947227
0.944883
0.942626
0.940452
0.938359
0.936343
0.934404
0.932541
0.930775
1.03217
1.03489
1.03738
1.03962
1.04163
1.04341
1.04488
1.04588
1.04622
1.04579
1.04475
1.0433
1.04159
1.03961
1.03732
1.03468
1.03169
1.02834
1.02464
1.02059
1.01658
1.01279
1.00895
1.00507
1.00119
0.997312
0.993466
0.989666
0.985926
0.982257
0.978671
0.975174
0.971774
0.968474
0.965277
0.962183
0.959192
0.956303
0.953513
0.95082
0.948222
0.945717
0.943303
0.940978
0.938741
0.93659
0.934522
0.932537
0.930634
0.928832
1.03038
1.03308
1.03556
1.03782
1.03984
1.0416
1.04305
1.04402
1.04438
1.04405
1.04315
1.04185
1.04029
1.03845
1.0363
1.03379
1.03092
1.02769
1.02408
1.02008
1.01609
1.01232
1.00847
1.00458
1.00067
0.996759
0.992879
0.989041
0.985261
0.981552
0.977924
0.974383
0.970936
0.967584
0.96433
0.961173
0.958112
0.955148
0.952279
0.949504
0.946823
0.944237
0.941744
0.939345
0.93704
0.934828
0.932706
0.930674
0.92873
0.92689
1.02874
1.03143
1.03392
1.0362
1.03823
1.04
1.04143
1.0424
1.04279
1.04257
1.04182
1.04068
1.03926
1.03755
1.03553
1.03315
1.03039
1.02724
1.02371
1.01976
1.0158
1.01203
1.00817
1.00425
1.00032
0.996377
0.992459
0.988581
0.984758
0.981003
0.977326
0.973732
0.970227
0.966812
0.963488
0.960255
0.957113
0.954062
0.951104
0.948239
0.945469
0.942795
0.940221
0.937745
0.93537
0.933094
0.930914
0.928829
0.926837
0.924951
1.02722
1.02993
1.03244
1.03474
1.0368
1.03858
1.04001
1.04099
1.04144
1.04132
1.04072
1.03974
1.03847
1.0369
1.035
1.03273
1.03008
1.02702
1.02355
1.01965
1.01571
1.01194
1.00807
1.00414
1.00017
0.996195
0.992236
0.988311
0.984437
0.980626
0.976887
0.973227
0.969648
0.966153
0.962744
0.959421
0.956185
0.953039
0.949985
0.947027
0.944166
0.941407
0.938751
0.9362
0.933754
0.93141
0.929166
0.927018
0.924964
0.92302
1.02582
1.02855
1.03109
1.03342
1.03551
1.03731
1.03876
1.03978
1.04029
1.04029
1.03984
1.03902
1.0379
1.03647
1.0347
1.03255
1.03
1.02703
1.02363
1.01977
1.01584
1.01208
1.0082
1.00424
1.00025
0.996234
0.992227
0.988247
0.98431
0.980428
0.97661
0.972863
0.969191
0.965598
0.962087
0.95866
0.955321
0.952074
0.948923
0.945872
0.942924
0.940084
0.937351
0.934726
0.932207
0.929791
0.927473
0.925249
0.923118
0.921097
1.02452
1.02728
1.02986
1.03223
1.03436
1.03619
1.03767
1.03873
1.03932
1.03945
1.03915
1.0385
1.03754
1.03625
1.03462
1.03259
1.03015
1.02727
1.02393
1.02012
1.01622
1.01246
1.00857
1.00459
1.00056
0.996504
0.992441
0.988393
0.984376
0.980405
0.976487
0.972633
0.968848
0.965138
0.96151
0.957968
0.954519
0.951168
0.94792
0.94478
0.941751
0.938833
0.936026
0.933327
0.930732
0.928236
0.925834
0.92352
0.921295
0.919182
1.0233
1.02611
1.02873
1.03115
1.03332
1.0352
1.03672
1.03785
1.03853
1.03878
1.03865
1.03817
1.03737
1.03624
1.03475
1.03285
1.03053
1.02774
1.02448
1.02072
1.01684
1.01309
1.00919
1.00519
1.00112
0.997003
0.99287
0.988739
0.984626
0.980545
0.976509
0.972528
0.968612
0.964772
0.961015
0.957351
0.953788
0.950333
0.94699
0.943763
0.940653
0.937657
0.934771
0.931992
0.929312
0.926725
0.924228
0.921814
0.919485
0.91727
1.02215
1.02501
1.02769
1.03016
1.03239
1.03432
1.0359
1.0371
1.03789
1.03828
1.03831
1.03801
1.03738
1.03642
1.03509
1.03334
1.03113
1.02845
1.02528
1.02157
1.01772
1.01397
1.01005
1.00602
1.0019
0.997718
0.993501
0.98927
0.985042
0.980835
0.976664
0.972543
0.968486
0.964507
0.960618
0.95683
0.953152
0.949591
0.946151
0.942833
0.939633
0.936547
0.93357
0.930695
0.927915
0.925226
0.922622
0.920102
0.917671
0.915357
1.02106
1.02398
1.02672
1.02926
1.03155
1.03354
1.0352
1.03649
1.0374
1.03794
1.03813
1.03801
1.03758
1.0368
1.03563
1.03403
1.03197
1.0294
1.02631
1.02267
1.01884
1.01509
1.01116
1.00708
1.0029
0.998633
0.994315
0.989967
0.98561
0.981264
0.976947
0.97268
0.968479
0.964361
0.96034
0.956429
0.952637
0.948967
0.945422
0.941999
0.938692
0.935497
0.932407
0.929415
0.926519
0.923714
0.920999
0.918375
0.915846
0.913442
1.02003
1.02301
1.02583
1.02843
1.03079
1.03286
1.03461
1.036
1.03704
1.03773
1.03811
1.03818
1.03794
1.03735
1.03637
1.03495
1.03303
1.03059
1.0276
1.02401
1.02021
1.01646
1.01249
1.00836
1.0041
0.999732
0.995298
0.99082
0.986322
0.981829
0.977365
0.972951
0.968609
0.964357
0.960209
0.956177
0.952266
0.948478
0.944812
0.941264
0.937826
0.934495
0.931266
0.928136
0.925104
0.922172
0.919341
0.916614
0.913998
0.911521
1.01903
1.02209
1.02498
1.02767
1.03011
1.03227
1.03412
1.03563
1.03681
1.03767
1.03823
1.03851
1.03848
1.0381
1.03732
1.03608
1.03433
1.03202
1.02913
1.02561
1.02182
1.01805
1.01405
1.00984
1.00549
1.00101
0.996448
0.991829
0.987184
0.982543
0.977932
0.973377
0.9689
0.964518
0.960244
0.956086
0.952047
0.948125
0.944318
0.94062
0.937028
0.933539
0.930154
0.926873
0.923701
0.920642
0.917698
0.914871
0.912168
0.909616
1.01807
1.02122
1.02419
1.02696
1.0295
1.03176
1.03372
1.03536
1.0367
1.03774
1.0385
1.039
1.03919
1.03904
1.03847
1.03743
1.03585
1.03369
1.0309
1.02744
1.02368
1.01989
1.01583
1.01154
1.00708
1.00248
0.997776
0.993011
0.988219
0.983431
0.978677
0.973984
0.969373
0.964858
0.960451
0.956154
0.951968
0.94789
0.943919
0.940052
0.936289
0.932633
0.929088
0.925659
0.922352
0.919169
0.916112
0.913178
0.910369
0.907712
1.01714
1.02037
1.02343
1.0263
1.02894
1.03132
1.03341
1.0352
1.03671
1.03794
1.03893
1.03965
1.04008
1.04016
1.03983
1.039
1.03761
1.0356
1.03292
1.02953
1.02577
1.02196
1.01784
1.01346
1.00889
1.00415
0.999312
0.994402
0.989462
0.98453
0.979634
0.9748
0.970047
0.965386
0.960825
0.956364
0.952005
0.947747
0.94359
0.939539
0.935598
0.931774
0.928075
0.924505
0.921068
0.917763
0.914585
0.911528
0.908591
0.905801
1.01622
1.01954
1.02271
1.02569
1.02844
1.03095
1.03318
1.03514
1.03684
1.03829
1.0395
1.04047
1.04115
1.04149
1.04139
1.04079
1.0396
1.03775
1.03519
1.03187
1.02812
1.02428
1.02009
1.01563
1.01094
1.00608
1.0011
0.996043
0.990959
0.98588
0.980836
0.975849
0.970934
0.966101
0.961356
0.9567
0.952139
0.947676
0.943319
0.939077
0.934959
0.930975
0.92713
0.923426
0.919862
0.91643
0.913122
0.909928
0.906846
0.903906
1.0153
1.01873
1.022
1.0251
1.02799
1.03064
1.03304
1.03519
1.03709
1.03877
1.04023
1.04146
1.04241
1.04301
1.04317
1.0428
1.04182
1.04014
1.03771
1.03447
1.03074
1.02687
1.02262
1.01807
1.01327
1.00829
1.00317
0.997979
0.992748
0.987515
0.982307
0.977144
0.97204
0.967002
0.962039
0.957159
0.952372
0.947689
0.943125
0.938692
0.9344
0.930258
0.926266
0.922421
0.918715
0.915137
0.911679
0.908333
0.905101
0.902016
1.01438
1.01791
1.02131
1.02454
1.02758
1.03039
1.03298
1.03533
1.03745
1.03938
1.04111
1.04261
1.04384
1.04472
1.04516
1.04504
1.04428
1.04279
1.0405
1.03734
1.03364
1.02975
1.02545
1.02082
1.01592
1.01082
1.00558
1.00024
0.994855
0.989452
0.984057
0.978689
0.973362
0.968089
0.962882
0.957758
0.952733
0.947826
0.943054
0.938429
0.933959
0.929646
0.925485
0.921467
0.917584
0.913829
0.910198
0.906693
0.903321
0.900116
1.01343
1.01709
1.02062
1.024
1.0272
1.0302
1.03299
1.03556
1.03793
1.04012
1.04213
1.04392
1.04545
1.04663
1.04735
1.0475
1.04698
1.0457
1.04356
1.04051
1.03684
1.03295
1.02861
1.02391
1.01893
1.01371
1.00834
1.00285
0.997288
0.991691
0.98608
0.980476
0.974898
0.969366
0.963901
0.958527
0.953266
0.948138
0.943159
0.938336
0.93367
0.929158
0.924792
0.920563
0.91647
0.912513
0.908697
0.905031
0.901528
0.898211
1.01246
1.01625
1.01993
1.02347
1.02685
1.03005
1.03306
1.03587
1.03851
1.04098
1.04329
1.04539
1.04723
1.04872
1.04975
1.05019
1.04994
1.04888
1.04693
1.044
1.04039
1.0365
1.03214
1.02739
1.02231
1.01698
1.01146
1.0058
1.00004
0.994218
0.98836
0.982493
0.976644
0.970843
0.965119
0.959499
0.954007
0.94866
0.943467
0.938429
0.933541
0.928798
0.924195
0.919731
0.915413
0.91125
0.907251
0.903424
0.899775
0.896322
1.01145
1.01538
1.01922
1.02294
1.02652
1.02994
1.03318
1.03626
1.03917
1.04195
1.04456
1.047
1.04918
1.051
1.05236
1.05312
1.05316
1.05236
1.05061
1.04784
1.04431
1.04045
1.03607
1.03126
1.02609
1.02063
1.01495
1.00909
1.0031
0.997023
0.99089
0.98474
0.978611
0.972539
0.966558
0.960695
0.95497
0.949393
0.943966
0.938686
0.933548
0.92855
0.923699
0.919002
0.914472
0.91012
0.905948
0.901952
0.898121
0.894475
1.01039
1.01447
1.01848
1.0224
1.02619
1.02984
1.03333
1.03669
1.0399
1.04299
1.04595
1.04873
1.05128
1.05347
1.05519
1.0563
1.05667
1.05616
1.05466
1.05206
1.04863
1.04481
1.04043
1.03556
1.03029
1.02468
1.01881
1.01272
1.00647
1.00011
0.993685
0.987242
0.980828
0.974484
0.968242
0.962126
0.956149
0.950313
0.944619
0.939065
0.933654
0.928395
0.923303
0.918391
0.913671
0.909141
0.904791
0.900598
0.896544
0.892657
1.00928
1.01352
1.01771
1.02183
1.02584
1.02973
1.0335
1.03715
1.04068
1.04411
1.04743
1.05059
1.05353
1.05613
1.05826
1.05976
1.0605
1.06032
1.05909
1.05671
1.0534
1.04963
1.04524
1.04031
1.03492
1.02914
1.02305
1.01671
1.01017
1.00351
0.996783
0.990043
0.983341
0.976717
0.970199
0.963803
0.957536
0.951401
0.945402
0.939548
0.933853
0.928337
0.923015
0.917896
0.912979
0.908248
0.903682
0.899254
0.894956
0.890836
1.0081
1.01251
1.01689
1.02121
1.02546
1.02961
1.03366
1.03762
1.04149
1.04529
1.04899
1.05257
1.05594
1.05899
1.06156
1.06351
1.06466
1.06485
1.06394
1.0618
1.05863
1.05492
1.05052
1.04552
1.03999
1.03402
1.02769
1.02107
1.01424
1.00727
1.00024
0.9932
0.986202
0.979279
0.972454
0.965739
0.959141
0.95267
0.946341
0.940175
0.934196
0.928424
0.922868
0.917521
0.912365
0.907377
0.902537
0.897838
0.8933
0.888985
1.00684
1.01142
1.01599
1.02054
1.02503
1.02945
1.0338
1.03808
1.04231
1.0465
1.05063
1.05466
1.05851
1.06205
1.06513
1.06757
1.06919
1.0698
1.06924
1.06737
1.06436
1.06071
1.0563
1.0512
1.04551
1.03933
1.03275
1.02584
1.01872
1.01145
1.00411
0.996758
0.989443
0.982192
0.975022
0.967949
0.960987
0.954161
0.947496
0.941021
0.934759
0.92872
0.922897
0.91727
0.911814
0.90651
0.901358
0.896376
0.891606
0.887109
1.0055
1.01025
1.01502
1.01978
1.02452
1.02922
1.03389
1.03852
1.04314
1.04775
1.05234
1.05687
1.06124
1.06533
1.06897
1.07196
1.07409
1.07517
1.07501
1.07344
1.0706
1.06701
1.06257
1.05737
1.05151
1.0451
1.03825
1.03107
1.02364
1.01606
1.00841
1.00073
0.993067
0.985449
0.977898
0.970438
0.963098
0.955914
0.948919
0.94214
0.935583
0.929242
0.923098
0.91713
0.911325
0.905688
0.900239
0.895002
0.890003
0.885271
1.00405
1.00897
1.01394
1.01893
1.02392
1.02892
1.03391
1.03891
1.04394
1.04901
1.05411
1.05918
1.06413
1.06883
1.07308
1.07668
1.07939
1.08099
1.08127
1.08003
1.07736
1.07384
1.06936
1.06404
1.058
1.05136
1.04425
1.03677
1.02904
1.02114
1.01314
1.0051
0.997054
0.989031
0.981068
0.973206
0.965485
0.957948
0.950622
0.943519
0.936629
0.929929
0.923401
0.917038
0.910856
0.904883
0.89915
0.893665
0.888424
0.883477
1.00248
1.00758
1.01274
1.01796
1.02322
1.02852
1.03385
1.03925
1.04472
1.05028
1.05592
1.06159
1.06718
1.07254
1.07747
1.08174
1.0851
1.08727
1.08803
1.08715
1.08468
1.08121
1.0767
1.07126
1.06502
1.05815
1.05076
1.04299
1.03493
1.02669
1.01831
1.00986
1.00139
0.992927
0.984535
0.976264
0.968163
0.960265
0.952584
0.945114
0.937835
0.930729
0.923794
0.917047
0.910525
0.904264
0.89828
0.892544
0.887025
0.881763
1.00078
1.00604
1.0114
1.01685
1.02238
1.02799
1.03369
1.0395
1.04545
1.05154
1.05776
1.06407
1.07036
1.07646
1.08214
1.08716
1.09122
1.09404
1.09532
1.09484
1.09257
1.08918
1.08463
1.07906
1.07264
1.06552
1.05785
1.04976
1.04135
1.03272
1.02392
1.01502
1.00608
0.997163
0.988333
0.979649
0.971152
0.962862
0.954776
0.946878
0.939156
0.931615
0.924277
0.917175
0.910342
0.90379
0.897502
0.891432
0.885564
0.879954
0.998917
1.00434
1.0099
1.01559
1.02139
1.02733
1.0334
1.03965
1.04609
1.05275
1.05961
1.06662
1.07367
1.08057
1.08709
1.09293
1.09778
1.1013
1.10318
1.10313
1.1011
1.09779
1.09321
1.08752
1.08091
1.07353
1.06556
1.05712
1.04832
1.03925
1.02998
1.02059
1.01117
1.00179
0.99251
0.983397
0.974471
0.965736
0.957179
0.948793
0.94059
0.932601
0.924867
0.917419
0.910262
0.903368
0.896697
0.89022
0.883972
0.878065
0.996882
1.00246
1.00821
1.01413
1.02022
1.02648
1.03295
1.03965
1.04662
1.05388
1.06143
1.06921
1.07709
1.08488
1.09232
1.09907
1.10479
1.1091
1.11163
1.11207
1.11032
1.10711
1.10252
1.09671
1.0899
1.08225
1.07395
1.06511
1.05586
1.0463
1.03652
1.02662
1.01669
1.00683
0.997086
0.987507
0.978101
0.968861
0.959783
0.950883
0.942196
0.933773
0.925655
0.917854
0.910343
0.903072
0.896001
0.889129
0.882514
0.876276
0.994653
1.00038
1.00632
1.01246
1.01882
1.02542
1.03228
1.03946
1.04698
1.05489
1.06318
1.07179
1.08059
1.08936
1.09781
1.10559
1.11228
1.11746
1.12073
1.12172
1.12028
1.11721
1.11262
1.1067
1.09967
1.09172
1.08303
1.07374
1.06399
1.05388
1.04355
1.03311
1.02266
1.01228
1.00203
0.991932
0.981983
0.972188
0.962566
0.953158
0.944013
0.935174
0.926658
0.918448
0.910504
0.902788
0.895297
0.888053
0.881099
0.87452
0.992209
0.998073
1.00418
1.01054
1.01717
1.0241
1.03137
1.03903
1.04714
1.05574
1.06482
1.07434
1.08414
1.09399
1.10357
1.11248
1.12025
1.12642
1.13051
1.13214
1.13106
1.12816
1.12357
1.11753
1.11025
1.10196
1.09282
1.08302
1.0727
1.06201
1.05109
1.04008
1.02906
1.01813
1.00731
0.996618
0.986069
0.975687
0.96552
0.955623
0.946038
0.93678
0.927828
0.919144
0.9107
0.902499
0.89458
0.886978
0.879696
0.872774
0.989531
0.995512
1.00178
1.00834
1.01522
1.02247
1.03015
1.03831
1.04703
1.05636
1.0663
1.0768
1.0877
1.09875
1.10958
1.11975
1.12873
1.136
1.14104
1.14339
1.14273
1.14002
1.13544
1.12925
1.12169
1.11298
1.10334
1.09295
1.08201
1.07069
1.05915
1.04752
1.0359
1.02434
1.01289
1.00155
0.990373
0.979395
0.968687
0.958303
0.948263
0.938549
0.929119
0.919935
0.910996
0.902338
0.894011
0.886028
0.878363
0.87105
0.986598
0.992672
0.999067
1.00581
1.01293
1.02049
1.02856
1.03724
1.04659
1.05669
1.06755
1.07911
1.09122
1.10358
1.11581
1.12738
1.13774
1.14626
1.15236
1.15554
1.15536
1.15285
1.14828
1.14191
1.134
1.12481
1.11459
1.10357
1.09196
1.07996
1.06775
1.05545
1.04315
1.03092
1.01877
1.00676
0.994937
0.983373
0.972128
0.96123
0.950678
0.940438
0.930477
0.920786
0.911388
0.902323
0.893607
0.885208
0.877095
0.869347
0.983389
0.989528
0.996022
1.00291
1.01024
1.0181
1.02656
1.03574
1.04574
1.05665
1.06849
1.0812
1.09462
1.10844
1.12221
1.13537
1.14727
1.15722
1.16455
1.16866
1.16903
1.16675
1.16217
1.15556
1.14724
1.1375
1.12663
1.1149
1.10256
1.08982
1.07687
1.06384
1.05079
1.0378
1.02492
1.01221
0.999753
0.987611
0.975818
0.964371
0.953245
0.942415
0.931882
0.921674
0.911827
0.902353
0.89322
0.884372
0.875798
0.867638