/*--------------------------------*- C++ -*----------------------------------*\
  =========                 |
  \\      /  F ield         | OpenFOAM: The Open Source CFD Toolbox
   \\    /   O peration     | Website:  https://openfoam.org
    \\  /    A nd           | Version:  9
     \\/     M anipulation  |
\*---------------------------------------------------------------------------*/
FoamFile
{
    format      ascii;
    class       volScalarField;
    location    "0.05";
    object      p_rgh;
}
// * * * * * * * * * * * * * * * * * * * * * * * * * * * * * * * * * * * * * //

dimensions      [1 -1 -2 0 0 0 0];

internalField   nonuniform List<scalar> 
5000
(
-0.162202
-0.092049
-0.413728
-0.115111
-0.0927441
-0.157831
-0.249724
-0.569952
-0.12555
-0.563185
-0.206327
-0.123535
-0.0515666
-0.0378803
-0.0776376
-0.0915556
-0.0669868
-0.0452018
-0.0315955
-0.0227555
-0.0171379
-0.01341
-0.0105888
-0.0083661
-0.00657599
-0.00512285
-0.00394301
-0.0029879
-0.00221777
-0.00159948
-0.00110561
-0.000713676
-0.000405304
-0.000165354
1.86621e-05
0.000157006
0.000258092
0.000328828
0.000374886
0.000400899
0.000410604
0.000406981
0.000392404
0.000368654
0.000336991
0.000298013
0.000251864
0.000197393
0.000132017
5.23525e-05
-0.0984109
-0.109424
-0.219243
-0.100416
-0.100189
-0.154781
-0.240887
-0.446398
-0.175668
-0.418828
-0.198877
-0.121582
-0.0699242
-0.0515277
-0.0623354
-0.0623588
-0.0476437
-0.0345946
-0.024816
-0.0174656
-0.0125367
-0.00919071
-0.00666845
-0.0047205
-0.00319644
-0.00199979
-0.00106324
-0.000335894
0.000222848
0.000645705
0.000958749
0.00118279
0.00133481
0.00142886
0.00147644
0.00148692
0.00146787
0.00142545
0.00136461
0.00128924
0.00120232
0.00110592
0.00100203
0.000891612
0.000775321
0.000653268
0.00052497
0.000389149
0.000243809
8.71613e-05
-0.0465946
-0.0655604
-0.114499
-0.0468917
-0.0689287
-0.119837
-0.173806
-0.324569
-0.1622
-0.305476
-0.161935
-0.0931718
-0.0537474
-0.039064
-0.0452427
-0.0446926
-0.0353104
-0.0261478
-0.0186454
-0.0127304
-0.00863356
-0.00579861
-0.00366033
-0.00202869
-0.000778485
0.000175642
0.000895187
0.00142735
0.0018099
0.00207304
0.00224057
0.00233141
0.00236104
0.00234234
0.00228587
0.00220023
0.00209228
0.00196749
0.00183013
0.00168343
0.00152993
0.00137155
0.00120994
0.00104641
0.000882094
0.000717924
0.000554699
0.000392859
0.000232549
7.67257e-05
-0.0133277
-0.0242057
-0.0467895
-0.00411558
-0.028708
-0.0701586
-0.105089
-0.204827
-0.117872
-0.199384
-0.108199
-0.0587612
-0.0313119
-0.0230516
-0.0288565
-0.0291998
-0.0235426
-0.0172733
-0.0117563
-0.00729983
-0.00415165
-0.00195094
-0.000297029
0.000946107
0.00187224
0.00254828
0.00302492
0.00334249
0.00353374
0.00362494
0.00363681
0.00358581
0.00348556
0.00334755
0.00318136
0.00299473
0.00279372
0.00258286
0.00236578
0.00214507
0.00192289
0.00170104
0.00148114
0.00126458
0.0010526
0.000846222
0.000646271
0.000453162
0.000266559
8.74056e-05
0.00812496
0.00634257
-0.00348439
0.0212927
0.00357648
-0.0243278
-0.0401397
-0.0965307
-0.0524666
-0.102092
-0.0501951
-0.0254693
-0.00966027
-0.00754948
-0.0128102
-0.0139909
-0.0114215
-0.00786055
-0.00432783
-0.00132819
0.000838811
0.00235338
0.00346977
0.00427692
0.00483847
0.00520256
0.00540816
0.00548763
0.00546767
0.0053697
0.00521053
0.00500374
0.0047609
0.00449213
0.00420586
0.00390874
0.00360571
0.00330043
0.00299561
0.00269341
0.00239566
0.00210396
0.00181971
0.00154414
0.00127819
0.00102255
0.000777659
0.000543455
0.000319179
0.000104624
0.0244463
0.0278087
0.024453
0.0387256
0.0297948
0.0151947
0.0191193
-0.00387096
0.0175056
-0.0160785
0.00684162
0.00632913
0.010998
0.00774764
0.00219525
0.000138534
0.000371686
0.00167931
0.00337106
0.00495504
0.00613335
0.00693917
0.00749207
0.00783763
0.00801119
0.0080431
0.00796071
0.00778789
0.0075445
0.00724636
0.00690613
0.0065345
0.0061411
0.00573447
0.00532163
0.00490785
0.00449686
0.00409132
0.00369328
0.00330443
0.00292622
0.00255993
0.00220664
0.00186715
0.00154198
0.00123131
0.00093511
0.00065284
0.000383286
0.00012588
0.0377962
0.0431598
0.043512
0.053245
0.0525997
0.0491919
0.0705482
0.0706878
0.0814609
0.0562526
0.0588852
0.0363113
0.030882
0.0226565
0.0163122
0.0129156
0.0113765
0.0109385
0.0110532
0.0113335
0.011554
0.0116551
0.011639
0.0115138
0.0112902
0.0109822
0.0106057
0.0101754
0.00970369
0.00920077
0.00867531
0.00813529
0.00758827
0.00704097
0.00649873
0.0059653
0.00544321
0.00493424
0.00443981
0.00396114
0.0034993
0.00305516
0.00262934
0.00222214
0.00183357
0.00146331
0.00111088
0.00077533
0.000455134
0.00014965
0.0487803
0.0549295
0.0575263
0.0654815
0.0716286
0.0768808
0.111469
0.126398
0.133458
0.11367
0.102668
0.0626301
0.0490835
0.0367229
0.0293678
0.0245831
0.0216191
0.0197685
0.0185453
0.0176639
0.0169912
0.0164167
0.0158441
0.0152526
0.0146332
0.0139859
0.0133153
0.0126269
0.0119257
0.0112167
0.0105048
0.00979546
0.00909384
0.00840465
0.0077314
0.00707635
0.0064409
0.00582605
0.00523264
0.00466144
0.00411306
0.00358791
0.00308606
0.00260732
0.00215116
0.00171681
0.00130341
0.000909681
0.000533853
0.00017556
0.0580643
0.0645831
0.0684751
0.0754724
0.0863422
0.0979031
0.141062
0.164183
0.170881
0.155971
0.136197
0.0840854
0.0649126
0.0497624
0.0410448
0.035314
0.0311842
0.0281333
0.0257594
0.0238522
0.022365
0.0211591
0.0200559
0.0190136
0.0180084
0.0170286
0.0160681
0.015124
0.0141949
0.0132809
0.0123835
0.0115054
0.0106495
0.00981814
0.00901311
0.00823522
0.00748484
0.00676226
0.00606779
0.0054017
0.00476415
0.00415501
0.00357384
0.0030199
0.00249222
0.00198962
0.00151091
0.00105458
0.000618656
0.000203364
0.0661461
0.0727989
0.0774574
0.0838398
0.0974675
0.113546
0.160689
0.186795
0.194102
0.184121
0.159387
0.100742
0.0782424
0.0612214
0.051694
0.0451555
0.0400548
0.0359916
0.032635
0.0298281
0.027607
0.0258204
0.0242207
0.0227512
0.0213772
0.0200767
0.0188348
0.0176411
0.0164885
0.0153732
0.0142934
0.0132491
0.0122407
0.0112684
0.0103321
0.00943146
0.00856579
0.00773475
0.0069381
0.00617564
0.00544699
0.00475152
0.00408828
0.00345606
0.00285349
0.00227906
0.00173132
0.00120858
0.000708685
0.000232804
0.0732829
0.0799274
0.0850854
0.0912547
0.106509
0.124993
0.172612
0.198085
0.205834
0.200202
0.173557
0.11331
0.0893442
0.0711783
0.0612609
0.0540695
0.0481851
0.0432956
0.0391172
0.0355328
0.0326595
0.0303465
0.0282896
0.0264222
0.0247012
0.0230961
0.0215851
0.0201509
0.0187825
0.0174721
0.0162153
0.0150092
0.0138518
0.0127413
0.011676
0.010654
0.00967406
0.00873505
0.00783623
0.00697685
0.00615604
0.00537264
0.00462528
0.00391234
0.0032321
0.00258284
0.00196289
0.00137045
0.000803229
0.000263646
0.0796169
0.0862033
0.0916707
0.0978958
0.113615
0.133605
0.179239
0.201983
0.209524
0.20684
0.180618
0.122596
0.0982812
0.0800252
0.0697381
0.0620547
0.0555539
0.0500173
0.0451647
0.0409204
0.0374772
0.0346949
0.032224
0.0299914
0.0279491
0.0260587
0.0242929
0.0226303
0.0210557
0.0195587
0.0181319
0.01677
0.0154687
0.0142242
0.0130331
0.0118925
0.0108004
0.00975494
0.00875483
0.00779881
0.0068855
0.00601332
0.00518046
0.00438502
0.00362503
0.00289856
0.00220383
0.00153897
0.000901602
0.000295696
0.0852722
0.0917771
0.0974152
0.103779
0.11952
0.139926
0.182496
0.201684
0.208208
0.206741
0.182551
0.129376
0.105611
0.0875437
0.0771328
0.069131
0.0621929
0.0561524
0.0507557
0.0459615
0.0420282
0.0388349
0.0359949
0.0334328
0.0310955
0.0289413
0.0269377
0.0250602
0.0232909
0.0216169
0.0200285
0.0185178
0.0170785
0.015705
0.0143925
0.013137
0.0119357
0.0107861
0.00968635
0.00863472
0.00762934
0.0066682
0.0057492
0.00487017
0.00402898
0.00322359
0.00245215
0.00171279
0.00100304
0.000328789
0.0903201
0.096756
0.102467
0.108893
0.124259
0.144529
0.184089
0.199463
0.204111
0.202367
0.181086
0.134313
0.111188
0.0938921
0.0835327
0.075351
0.0681258
0.0617083
0.0558845
0.0506404
0.0462941
0.0427446
0.0395816
0.036726
0.0341223
0.0317263
0.0295028
0.0274252
0.0254737
0.0236334
0.0218922
0.0202405
0.0186699
0.017173
0.0157438
0.0143776
0.0130706
0.0118198
0.0106228
0.00947728
0.00838097
0.00733149
0.00632646
0.00536354
0.00444047
0.00355516
0.00270576
0.00189043
0.00110672
0.000362672
0.0948181
0.101211
0.106955
0.113396
0.128163
0.148705
0.184036
0.196417
0.198616
0.195713
0.177384
0.137458
0.115656
0.0992319
0.0890197
0.0807809
0.0733867
0.0667023
0.060555
0.0549522
0.0502637
0.0464133
0.0429711
0.0398574
0.0370157
0.0344005
0.0319756
0.0297135
0.0275928
0.0255971
0.0237126
0.0219278
0.0202324
0.0186179
0.0170773
0.0156047
0.0141959
0.0128473
0.0115558
0.0103187
0.00913324
0.00799672
0.00690653
0.00586017
0.00485532
0.00388989
0.00296205
0.00207006
0.00121153
0.000396884
0.0988079
0.105191
0.110979
0.117466
0.131504
0.151755
0.18371
0.19295
0.192516
0.188248
0.172663
0.139415
0.119
0.103582
0.0936701
0.0854849
0.0780185
0.071161
0.0647796
0.0588993
0.0539347
0.0498349
0.0461559
0.0428183
0.0397663
0.0369547
0.0343474
0.0319164
0.0296399
0.0274999
0.0254813
0.023571
0.0217575
0.0200312
0.018384
0.0168096
0.015303
0.0138601
0.0124773
0.0111513
0.00987897
0.00865728
0.00748341
0.00635476
0.00526898
0.00422399
0.00321803
0.00224951
0.00131616
0.000430889
0.102315
0.108733
0.114612
0.121224
0.134619
0.154181
0.182848
0.188935
0.186268
0.18088
0.168118
0.1402
0.121324
0.107061
0.0975703
0.0895262
0.0820677
0.0751156
0.0685764
0.0624909
0.0573108
0.0530094
0.0491334
0.0456047
0.0423694
0.0393839
0.036613
0.034029
0.0316097
0.0293363
0.0271926
0.0251642
0.0232387
0.0214057
0.0196566
0.0179845
0.016384
0.0148503
0.0133794
0.0119674
0.0106108
0.00930627
0.00805077
0.00684161
0.00567645
0.00455326
0.0034704
0.00242644
0.00141925
0.000464261
0.10535
0.111845
0.11788
0.124701
0.137581
0.15613
0.181213
0.184206
0.180119
0.173967
0.163915
0.140283
0.122985
0.109859
0.100823
0.0929751
0.0855841
0.0786005
0.0719681
0.0657414
0.0604005
0.0559414
0.0519054
0.0482168
0.0448243
0.041687
0.0387711
0.0360497
0.0335003
0.0311039
0.0288432
0.0267034
0.0246714
0.0227364
0.0208894
0.0191234
0.0174324
0.0158111
0.014255
0.0127598
0.0113216
0.00993665
0.00860189
0.00731452
0.00607222
0.00487303
0.00371543
0.00259819
0.00151933
0.000496646
0.107907
0.114507
0.120748
0.127815
0.140189
0.157358
0.179021
0.178516
0.174176
0.167711
0.160059
0.140019
0.124254
0.112139
0.103533
0.0959044
0.0886185
0.0816516
0.0749803
0.0686683
0.0632158
0.0586389
0.0544773
0.0506581
0.0471337
0.043866
0.0408232
0.0379794
0.0353122
0.0328023
0.0304323
0.0281869
0.0260531
0.02402
0.0220786
0.0202217
0.0184429
0.0167367
0.015098
0.013522
0.0120046
0.0105417
0.00913026
0.00776735
0.00645072
0.0051785
0.00394929
0.00276203
0.00161485
0.000527678
0.109972
0.116671
0.123124
0.130398
0.142133
0.157409
0.174386
0.173924
0.168723
0.162576
0.156236
0.139528
0.125247
0.114004
0.105784
0.0983768
0.0912171
0.0843042
0.0776399
0.0712916
0.0657713
0.0611129
0.0568573
0.0529351
0.0493028
0.0459254
0.0427732
0.0398212
0.0370476
0.0344331
0.0319604
0.0296146
0.0273829
0.0252549
0.0232218
0.0212763
0.0194119
0.0176227
0.0159032
0.0142484
0.0126537
0.0111153
0.00962973
0.00819425
0.00680663
0.00546508
0.00416826
0.00291524
0.00170427
0.000556921
0.11153
0.118286
0.124897
0.132262
0.143171
0.156388
0.169498
0.168576
0.16351
0.158
0.15297
0.138978
0.126024
0.115521
0.107637
0.10044
0.0934189
0.086591
0.0799732
0.0736319
0.0680829
0.0633757
0.0590554
0.0550562
0.0513387
0.0478713
0.0446261
0.0415793
0.0387098
0.0359986
0.0334292
0.0309874
0.0286613
0.026441
0.0243183
0.0222858
0.020337
0.0184659
0.0166667
0.0149344
0.0132642
0.0116522
0.0100951
0.00859024
0.00713536
0.00572876
0.00436911
0.00305549
0.00178619
0.000583898
0.112572
0.119311
0.125972
0.133255
0.143153
0.154242
0.164141
0.162914
0.158573
0.153944
0.150129
0.138374
0.126591
0.116729
0.109132
0.102128
0.095257
0.0885421
0.082006
0.0757102
0.0701677
0.0654415
0.0610835
0.0570313
0.0532499
0.0497107
0.0463877
0.0432582
0.0403021
0.0375014
0.0348407
0.032307
0.0298895
0.0275792
0.0253682
0.0232498
0.0212173
0.0192647
0.0173865
0.0155773
0.0138328
0.0121491
0.0105231
0.00895201
0.00743388
0.0059669
0.00454966
0.00318117
0.00185965
0.000608218
0.11311
0.119731
0.126301
0.133303
0.142043
0.151067
0.158373
0.157282
0.153922
0.150271
0.147479
0.137591
0.126905
0.117633
0.110288
0.103467
0.0967599
0.0901852
0.0837636
0.0775479
0.0720436
0.0673256
0.0629543
0.0588713
0.0550454
0.0514508
0.0480635
0.044862
0.0418276
0.0389439
0.0361968
0.033575
0.0310689
0.0286705
0.0263727
0.0241689
0.022053
0.020019
0.0180618
0.0161763
0.0143585
0.0126048
0.0109123
0.00927843
0.00770114
0.00617859
0.00470922
0.00329177
0.00192431
0.000629712
0.113173
0.11957
0.125899
0.132436
0.139954
0.147129
0.152492
0.151819
0.149521
0.146815
0.144777
0.136474
0.126882
0.118205
0.111107
0.104475
0.0979533
0.0915474
0.0852712
0.0791671
0.0737297
0.0690443
0.0646817
0.0605875
0.0567341
0.0530984
0.0496582
0.046394
0.0432886
0.0403275
0.0374988
0.0347926
0.0322008
0.0297164
0.0273329
0.0250444
0.0228451
0.0207299
0.0186938
0.0167326
0.0148426
0.0130207
0.0112643
0.0095709
0.0079385
0.00636507
0.00484879
0.00338805
0.00198063
0.000648503
0.112816
0.11889
0.124848
0.130789
0.137112
0.142747
0.146763
0.146626
0.145322
0.143418
0.141859
0.134914
0.126437
0.118403
0.111587
0.105171
0.098863
0.0926565
0.0865553
0.0805913
0.0752459
0.0706146
0.0662798
0.0621911
0.0583245
0.0546594
0.0511758
0.0478564
0.0446863
0.0416532
0.0387473
0.0359604
0.0332858
0.0307174
0.0282497
0.0258774
0.0235955
0.0213995
0.0192853
0.0172494
0.0152888
0.0134009
0.0115832
0.00983357
0.00814985
0.00652982
0.00497128
0.00347218
0.00202988
0.00066504
0.112115
0.117792
0.123286
0.128565
0.133802
0.13823
0.14138
0.14178
0.141293
0.139985
0.138673
0.132883
0.12552
0.118198
0.11173
0.105576
0.0995189
0.0935435
0.0876445
0.0818451
0.0766134
0.0720543
0.067763
0.0636932
0.0598245
0.0561389
0.0526192
0.0492508
0.0460212
0.0429209
0.0399418
0.0370778
0.0343233
0.0316735
0.0291235
0.026669
0.024306
0.0220308
0.0198402
0.0177317
0.0157028
0.0137515
0.0118756
0.010073
0.00834146
0.00667845
0.00508137
0.00354763
0.00207418
0.000680073
0.111165
0.116402
0.121385
0.126005
0.130317
0.133852
0.136483
0.137337
0.137436
0.136513
0.135269
0.130442
0.124151
0.117601
0.111562
0.105725
0.0999584
0.0942436
0.0885702
0.0829553
0.0778546
0.0733819
0.0691456
0.0651045
0.0612415
0.0575418
0.0539913
0.0505783
0.0472936
0.0441299
0.0410815
0.0381437
0.0353124
0.0325838
0.0299542
0.0274202
0.0249787
0.0226272
0.0203635
0.0181856
0.0160919
0.0140807
0.01215
0.0102978
0.00852149
0.0068183
0.00518517
0.00361898
0.00211625
0.000694558
0.110068
0.114854
0.119327
0.123342
0.126916
0.129825
0.132155
0.133336
0.133792
0.133061
0.131798
0.127742
0.122429
0.116676
0.111134
0.105669
0.100228
0.0947972
0.0893668
0.0839506
0.0789928
0.074616
0.0704422
0.0664356
0.0625829
0.0588728
0.0552948
0.0518405
0.0485038
0.0452798
0.0421651
0.0391567
0.0362517
0.0334476
0.0307418
0.028132
0.0256163
0.0231929
0.0208607
0.0186183
0.0164645
0.0143978
0.0124163
0.0105177
0.00869921
0.00695768
0.00528959
0.00369133
0.00215916
0.000709502
0.108923
0.113276
0.117276
0.120775
0.123795
0.126287
0.128438
0.129809
0.130425
0.129728
0.128472
0.124988
0.120514
0.115531
0.110527
0.105473
0.100381
0.0952495
0.0900717
0.0848612
0.080052
0.0757756
0.0716671
0.0676971
0.0638562
0.0601373
0.0565334
0.0530397
0.049653
0.0463712
0.0431928
0.0401166
0.0371411
0.0342651
0.0314873
0.0288066
0.026222
0.0237328
0.0213382
0.0190374
0.0168293
0.0147122
0.0126841
0.0107423
0.00888371
0.00710465
0.00540124
0.00376953
0.00220575
0.000725773
0.107815
0.111774
0.115362
0.11845
0.121077
0.123302
0.125328
0.126774
0.127426
0.126763
0.125362
0.122367
0.11859
0.114308
0.109842
0.105214
0.100478
0.0956481
0.0907234
0.0857176
0.0810565
0.0768797
0.072835
0.0689002
0.0650703
0.061342
0.0577124
0.0541801
0.0507448
0.047407
0.0441671
0.0410256
0.037983
0.0350392
0.0321944
0.0294485
0.0268016
0.0242534
0.0218036
0.0194512
0.017195
0.0150329
0.0129622
0.01098
0.00908242
0.00726555
0.00552518
0.00385719
0.00225808
0.00074394
0.106806
0.110426
0.113676
0.116454
0.118817
0.120874
0.122798
0.124233
0.124844
0.124171
0.122697
0.120053
0.116829
0.113146
0.109182
0.104967
0.100579
0.0960405
0.09136
0.0865505
0.0820305
0.0779475
0.0739613
0.0700575
0.0662355
0.062496
0.0588398
0.055269
0.0517859
0.0483935
0.0450942
0.0418904
0.0387842
0.0357772
0.0328708
0.0300661
0.0273636
0.0247636
0.0222655
0.0198681
0.0175695
0.0153669
0.013257
0.0112359
0.00929956
0.00744359
0.00566369
0.00395581
0.00231696
0.000764176
0.105939
0.109281
0.112267
0.114826
0.117022
0.118973
0.120802
0.122172
0.12271
0.122029
0.120532
0.118158
0.11536
0.112163
0.108638
0.104802
0.100737
0.0964714
0.0920179
0.0873895
0.0829982
0.0789991
0.0750633
0.071184
0.0673652
0.0636115
0.0599273
0.0563176
0.0527876
0.0493422
0.045986
0.0427232
0.0395576
0.0364923
0.0335299
0.0306723
0.0279206
0.0252748
0.0227342
0.0202967
0.0179595
0.0157191
0.0135712
0.0115114
0.00953521
0.00763802
0.00581561
0.00406423
0.00238162
0.000786217
0.10524
0.108362
0.111154
0.113566
0.115663
0.117546
0.119285
0.120567
0.121027
0.120356
0.118888
0.116735
0.114259
0.111441
0.108281
0.104778
0.101001
0.0969805
0.092731
0.0882634
0.0839842
0.0800562
0.0761604
0.0722978
0.0684766
0.0647051
0.0609912
0.0573425
0.0537665
0.0502703
0.0468605
0.0435427
0.0403224
0.0372039
0.0341908
0.0312855
0.0284891
0.0258015
0.0232211
0.0207453
0.0183702
0.0160916
0.0139044
0.0118039
0.00978529
0.00784412
0.00597635
0.00417868
0.00244973
0.000809349
0.104719
0.107677
0.110333
0.112655
0.114697
0.116535
0.11819
0.119381
0.119777
0.119139
0.117743
0.115781
0.113553
0.111024
0.10816
0.104937
0.101409
0.0976022
0.09353
0.0892
0.0850141
0.0811427
0.0772754
0.073421
0.0695914
0.0657985
0.0620532
0.0583656
0.0547455
0.0512015
0.0477419
0.0443738
0.0411037
0.0379369
0.0348773
0.0319275
0.0290885
0.0263595
0.0237384
0.0212218
0.0188054
0.0164842
0.0142533
0.0121077
0.0100427
0.00805435
0.00613886
0.00429351
0.00251782
0.000832509
0.10438
0.107222
0.10979
0.112061
0.114076
0.115883
0.117466
0.118575
0.118928
0.118345
0.117052
0.115265
0.113235
0.11093
0.108299
0.105308
0.10199
0.0983649
0.0944426
0.0902264
0.0861145
0.0822848
0.0784348
0.0745801
0.0707365
0.0669189
0.0631409
0.0594151
0.055753
0.0521647
0.0486597
0.0452461
0.0419307
0.0387192
0.0356155
0.0326218
0.0297386
0.0269647
0.0242974
0.0217332
0.0192676
0.0168961
0.0146139
0.0124165
0.0103
0.00826085
0.00629593
0.00440301
0.00258237
0.000854599
0.10422
0.106985
0.1095
0.111749
0.113756
0.115542
0.117065
0.11811
0.118441
0.11793
0.11676
0.11514
0.113278
0.111151
0.108708
0.105907
0.102765
0.0992918
0.0954938
0.0913692
0.087313
0.0835116
0.0796686
0.0758062
0.0719437
0.0680986
0.0642872
0.060524
0.0568221
0.0531928
0.0496462
0.0461906
0.0428329
0.0395783
0.03643
0.0333896
0.0304569
0.0276304
0.0249077
0.0222853
0.0197596
0.017327
0.0149838
0.0127267
0.0105527
0.00845916
0.0064436
0.00450415
0.00264154
0.000875024
0.104232
0.106951
0.109441
0.111686
0.113696
0.115468
0.116946
0.117946
0.118278
0.117852
0.116817
0.115359
0.113649
0.111673
0.109387
0.106743
0.103748
0.100402
0.0967062
0.0926542
0.0886385
0.084854
0.08101
0.0771342
0.0732488
0.0693742
0.0655287
0.0617286
0.0579882
0.0543197
0.0507331
0.0472366
0.0438365
0.0405367
0.0373395
0.0342458
0.031255
0.0283655
0.0255754
0.0228826
0.0202847
0.0177797
0.0153657
0.0130409
0.0108036
0.00865215
0.00658472
0.00459939
0.00269693
0.000894285
0.104404
0.107101
0.109586
0.11184
0.11386
0.115627
0.117075
0.118049
0.118402
0.118071
0.117177
0.115879
0.114314
0.112476
0.110326
0.107819
0.104949
0.101711
0.0981002
0.0941061
0.0901195
0.0863439
0.0824934
0.0786004
0.0746896
0.0707837
0.066903
0.0630653
0.0592857
0.0555767
0.0519482
0.0484077
0.0449602
0.0416086
0.0383542
0.0351972
0.032137
0.0291726
0.0263033
0.0235284
0.0208477
0.018261
0.0157684
0.0133697
0.0110647
0.00885231
0.00673089
0.00469814
0.00275443
0.000914276
0.104722
0.107417
0.10991
0.112182
0.114219
0.115988
0.117421
0.11839
0.118781
0.118552
0.117803
0.116665
0.115245
0.11354
0.111517
0.109133
0.106374
0.103231
0.0996937
0.095748
0.0917834
0.0880122
0.0841522
0.0802399
0.0763021
0.0723633
0.0684453
0.064567
0.0607442
0.0569894
0.0533121
0.0497187
0.0462135
0.0427984
0.0394743
0.0362413
0.0330993
0.0300487
0.0270903
0.0242252
0.0214551
0.0187818
0.016207
0.0137318
0.0113565
0.0090802
0.00690081
0.00481523
0.00282326
0.000937968
0.105171
0.107877
0.11039
0.112688
0.114747
0.116527
0.117961
0.118943
0.119387
0.119269
0.118668
0.11769
0.116417
0.114847
0.112948
0.110681
0.108027
0.104971
0.101502
0.0975998
0.0936544
0.089886
0.086016
0.0820836
0.0781174
0.0741432
0.070184
0.0662594
0.0623854
0.0585745
0.0548357
0.051175
0.0475963
0.0441016
0.0406921
0.037369
0.0341335
0.0309876
0.0279338
0.0249751
0.0221147
0.0193554
0.0166997
0.0141486
0.011702
0.00935828
0.00711434
0.00496609
0.00291287
0.000968421
0.105733
0.108462
0.111004
0.113335
0.115424
0.117225
0.118674
0.119688
0.120199
0.120197
0.119747
0.118931
0.117811
0.11638
0.114609
0.112459
0.109909
0.10694
0.103536
0.099678
0.0957522
0.0919873
0.0881076
0.0841547
0.0801581
0.0761446
0.0721379
0.0681578
0.0642204
0.0603383
0.0565205
0.0527734
0.0491017
0.0455086
0.0419971
0.0385703
0.0352313
0.0319842
0.0288331
0.0257821
0.0228349
0.0199942
0.0172615
0.0146366
0.0121176
0.0097015
0.00738384
0.00515976
0.00302863
0.0010074
0.106392
0.109155
0.111735
0.114106
0.116231
0.118064
0.119545
0.120605
0.121197
0.121319
0.121023
0.120373
0.119411
0.118127
0.11649
0.114463
0.11202
0.109141
0.105806
0.101994
0.0980905
0.0943304
0.0904416
0.0864665
0.0824359
0.0783768
0.0743133
0.0702652
0.0662488
0.062277
0.0583599
0.0545056
0.0507206
0.0470109
0.0433822
0.0398404
0.0363911
0.0330402
0.0297926
0.0266528
0.0236236
0.0207059
0.0178988
0.0151997
0.0126046
0.0101086
0.00770633
0.00539271
0.00316795
0.00105404
0.107134
0.10994
0.112567
0.114985
0.117156
0.119031
0.120557
0.12168
0.122365
0.122617
0.12248
0.122
0.121204
0.120077
0.118585
0.116689
0.114361
0.111577
0.108317
0.104556
0.100677
0.0969226
0.0930232
0.0890225
0.0849514
0.0808375
0.0767047
0.0725733
0.0684601
0.0643794
0.0603432
0.0563624
0.052447
0.0486064
0.0448498
0.041186
0.0376229
0.0341674
0.0308247
0.0275978
0.0244872
0.0214912
0.0186059
0.0158262
0.0131462
0.01056
0.00806199
0.00564804
0.00331997
0.00110485
0.107947
0.110805
0.113487
0.11596
0.118185
0.120114
0.1217
0.122899
0.12369
0.12408
0.124106
0.123802
0.123181
0.122221
0.120885
0.119132
0.11693
0.114251
0.111072
0.107367
0.103514
0.0997641
0.0958504
0.0918171
0.0876958
0.0835145
0.0792975
0.075066
0.0708385
0.0666314
0.0624601
0.0583391
0.0542823
0.0503032
0.0464141
0.0426261
0.0389484
0.0353877
0.0319477
0.028629
0.0254293
0.022344
0.019367
0.0164917
0.0137119
0.0110222
0.00841861
0.00589887
0.0034672
0.00115382
0.10882
0.11174
0.114483
0.117019
0.119307
0.121302
0.122961
0.124251
0.125158
0.125695
0.125891
0.12577
0.125334
0.124554
0.123389
0.121792
0.119727
0.117163
0.114072
0.110427
0.1066
0.102851
0.0989158
0.0948396
0.0906551
0.0863911
0.0820736
0.0777257
0.0733685
0.0690221
0.0647058
0.0604382
0.0562372
0.0521192
0.0480988
0.044188
0.0403953
0.0367258
0.0331804
0.029757
0.0264507
0.0232556
0.0201652
0.0171738
0.014277
0.011472
0.00875728
0.00613298
0.00360448
0.0012
0.109746
0.112733
0.115546
0.118153
0.120514
0.122585
0.12433
0.125725
0.126761
0.127454
0.127828
0.1279
0.127661
0.127075
0.126094
0.124668
0.122753
0.120313
0.117318
0.113734
0.109931
0.106177
0.102211
0.0980786
0.0938156
0.0894527
0.0850188
0.0805404
0.0760425
0.0715496
0.0670852
0.0626717
0.0583297
0.0540774
0.0499297
0.0458973
0.0419864
0.0381989
0.0345329
0.030984
0.0275467
0.0242156
0.0209863
0.0178562
0.0148246
0.0118923
0.00906132
0.00633414
0.00371805
0.00124183
0.110716
0.113777
0.116666
0.119352
0.121795
0.123955
0.1258
0.127312
0.12849
0.129351
0.129914
0.13019
0.13016
0.129782
0.129001
0.12776
0.126008
0.123703
0.120808
0.117289
0.113505
0.109737
0.105729
0.101527
0.0971702
0.0926936
0.0881301
0.0835111
0.0788665
0.0742254
0.0696148
0.0650598
0.0605824
0.0562002
0.0519262
0.0477683
0.0437292
0.0398077
0.0360004
0.0323026
0.0287105
0.0252217
0.0218362
0.0185556
0.0153836
0.012324
0.00938001
0.00655307
0.0038505
0.00129866
0.111719
0.114861
0.117834
0.120607
0.123143
0.125404
0.127363
0.129008
0.130342
0.131383
0.132149
0.132641
0.132834
0.13268
0.132114
0.131071
0.129495
0.127333
0.124544
0.121089
0.11732
0.113532
0.10947
0.105186
0.100723
0.0961218
0.0914203
0.0866557
0.0818631
0.0770752
0.0723219
0.067629
0.0630175
0.0585029
0.0540951
0.0497981
0.0456121
0.0415349
0.0375636
0.0336964
0.0299335
0.0262773
0.0227322
0.0193034
0.0159961
0.0128137
0.00975675
0.00682209
0.00401393
0.0013562
0.112748
0.115976
0.119041
0.12191
0.12455
0.126926
0.129015
0.130808
0.132314
0.133551
0.134533
0.135255
0.135687
0.135771
0.135434
0.134603
0.133213
0.131203
0.128526
0.125137
0.121381
0.117565
0.113442
0.109068
0.104492
0.0997606
0.0949183
0.090008
0.0850689
0.0801362
0.0752406
0.0704068
0.0656534
0.0609927
0.056431
0.0519706
0.0476114
0.043353
0.0391965
0.0351453
0.0312045
0.027381
0.0236816
0.0201118
0.0166746
0.0133692
0.0101916
0.00713412
0.00419706
0.00140746
0.113789
0.117112
0.120276
0.123254
0.126011
0.128516
0.130751
0.132711
0.134407
0.135855
0.137069
0.138037
0.138722
0.139057
0.138963
0.138357
0.137164
0.135316
0.132758
0.129438
0.125693
0.121848
0.117662
0.113196
0.108506
0.103645
0.0986648
0.0936115
0.0885274
0.0834485
0.0784044
0.0734172
0.0685026
0.0636699
0.0589242
0.0542689
0.0497073
0.0452444
0.0408874
0.0366452
0.0325276
0.0285433
0.0246984
0.0209949
0.0174304
0.0139986
0.0106906
0.0074966
0.00441446
0.00147418
0.114834
0.118259
0.121533
0.12463
0.127519
0.130171
0.132571
0.134716
0.136618
0.138296
0.139758
0.140987
0.141938
0.14254
0.142702
0.142333
0.141349
0.139673
0.137243
0.133999
0.13027
0.126399
0.122153
0.1176
0.112801
0.107817
0.102703
0.0975092
0.0922783
0.0870454
0.0818377
0.0766749
0.0715701
0.0665327
0.0615699
0.0566899
0.0519025
0.0472199
0.0426553
0.038222
0.0339307
0.0297883
0.0257964
0.0219513
0.0182451
0.0146677
0.0112097
0.00786375
0.00463188
0.00154654
0.11587
0.119406
0.122802
0.126033
0.12907
0.131886
0.134469
0.136818
0.138947
0.140872
0.142598
0.144103
0.145336
0.146217
0.146649
0.146532
0.145771
0.144281
0.141991
0.138835
0.13513
0.131241
0.126944
0.122313
0.117414
0.112314
0.10707
0.101734
0.0963476
0.0909445
0.0855499
0.080182
0.074855
0.0695814
0.0643747
0.0592504
0.0542258
0.049319
0.0445466
0.0399218
0.035452
0.0311385
0.0269771
0.0229594
0.0190767
0.0153216
0.0116909
0.00818511
0.00481394
0.00160809
0.116887
0.120545
0.124075
0.127455
0.130656
0.133655
0.13644
0.139013
0.141387
0.143577
0.145582
0.147379
0.148909
0.150085
0.150804
0.150955
0.150436
0.14915
0.147017
0.143965
0.140299
0.136405
0.132069
0.127369
0.12238
0.117167
0.11179
0.106302
0.100743
0.0951451
0.089534
0.0839303
0.0783525
0.0728205
0.0673558
0.0619816
0.0567205
0.0515927
0.0466132
0.0417901
0.0371248
0.0326126
0.028246
0.0240178
0.0199243
0.015967
0.0121516
0.00848592
0.00498277
0.00166511
0.117875
0.121666
0.125343
0.128887
0.132269
0.135468
0.138474
0.14129
0.143927
0.146399
0.148702
0.150807
0.152651
0.154141
0.155166
0.155607
0.155352
0.154293
0.152342
0.149415
0.145806
0.141921
0.137559
0.132802
0.127724
0.122395
0.116875
0.111215
0.105457
0.0996343
0.093776
0.0879092
0.0820609
0.0762598
0.0705354
0.0649153
0.0594234
0.0540763
0.0488832
0.0438451
0.0389578
0.0342147
0.0296115
0.025148
0.0208297
0.0166662
0.0126675
0.00884068
0.00519177
0.0017383
0.118826
0.122759
0.126596
0.130318
0.133898
0.137314
0.140558
0.143634
0.146552
0.149324
0.151942
0.154375
0.156555
0.158383
0.15974
0.160499
0.160536
0.159735
0.157992
0.155216
0.151685
0.147825
0.143449
0.138637
0.133468
0.128012
0.122328
0.116469
0.11048
0.104401
0.0982685
0.0921189
0.0859898
0.0799178
0.0739364
0.0680734
0.0623482
0.0567713
0.0513444
0.0460642
0.0409261
0.035929
0.031077
0.0263802
0.0218506
0.0174983
0.0133268
0.00933012
0.00549947
0.00185318
0.119729
0.123815
0.127824
0.131737
0.135528
0.139176
0.142675
0.146028
0.149245
0.152335
0.15529
0.158075
0.160616
0.162811
0.164533
0.165645
0.16601
0.1655
0.163998
0.161403
0.157971
0.154152
0.149767
0.1449
0.139629
0.134025
0.12815
0.122062
0.115813
0.109451
0.103025
0.0965823
0.0901683
0.0838242
0.0775828
0.0714669
0.0654891
0.0596535
0.0539593
0.0484052
0.0429944
0.0377358
0.0326433
0.0277318
0.0230111
0.0184815
0.0141314
0.0099388
0.00588451
0.00199791
0.120578
0.124823
0.129014
0.133129
0.137142
0.141037
0.144805
0.148451
0.151985
0.155416
0.158732
0.161897
0.164833
0.167432
0.169558
0.171064
0.171798
0.171619
0.170394
0.168009
0.164698
0.160931
0.15654
0.151609
0.14622
0.140444
0.134352
0.128009
0.121476
0.114815
0.108086
0.101345
0.0946434
0.0880195
0.0815014
0.0751054
0.0688386
0.0627039
0.056705
0.0508505
0.0451558
0.0396392
0.0343173
0.0291989
0.0242815
0.0195509
0.0149841
0.010556
0.00625819
0.00213801
0.121361
0.125772
0.130152
0.134476
0.138723
0.142876
0.146928
0.150884
0.154756
0.158551
0.162258
0.165836
0.169206
0.172252
0.174829
0.176775
0.177925
0.178119
0.177209
0.175066
0.171896
0.168187
0.163787
0.158781
0.153253
0.147284
0.140952
0.134333
0.127504
0.120539
0.113505
0.106465
0.099466
0.0925434
0.0857185
0.0790033
0.0724056
0.0659347
0.0596055
0.0534392
0.0474601
0.0416882
0.036132
0.0307852
0.0256295
0.0206414
0.0158015
0.0111021
0.0065643
0.00224934
0.122067
0.126649
0.131221
0.135763
0.140252
0.144674
0.149024
0.153308
0.157541
0.161728
0.165859
0.16989
0.173739
0.17728
0.180359
0.182797
0.184413
0.185027
0.184471
0.1826
0.179586
0.175939
0.171522
0.166425
0.16074
0.154559
0.147972
0.141071
0.133943
0.126673
0.119333
0.111984
0.104669
0.097418
0.0902485
0.0831751
0.0762139
0.0693871
0.0627221
0.0562475
0.0499859
0.0439468
0.0381238
0.0324966
0.0270403
0.0217365
0.0165846
0.0116021
0.00683248
0.00233582
0.122685
0.127438
0.132207
0.13697
0.141709
0.146411
0.151074
0.155707
0.160325
0.164936
0.169528
0.174056
0.178432
0.182522
0.186157
0.189145
0.19128
0.192363
0.192202
0.19063
0.187786
0.184201
0.179758
0.174556
0.168699
0.162292
0.155443
0.148256
0.140829
0.133251
0.125596
0.117918
0.110256
0.102638
0.0950867
0.0876262
0.0802863
0.0731021
0.0661078
0.059328
0.0527716
0.0464307