/*--------------------------------*- C++ -*----------------------------------*\
  =========                 |
  \\      /  F ield         | OpenFOAM: The Open Source CFD Toolbox
   \\    /   O peration     | Website:  https://openfoam.org
    \\  /    A nd           | Version:  9
     \\/     M anipulation  |
\*---------------------------------------------------------------------------*/
FoamFile
{
    format      ascii;
    class       surfaceScalarField;
    location    "0.05";
    object      phi;
}
// * * * * * * * * * * * * * * * * * * * * * * * * * * * * * * * * * * * * * //

dimensions      [0 3 -1 0 0 0 0];

internalField   nonuniform List<scalar> 
9850
(
1.66265e-06
3.60578e-06
1.45874e-06
-1.4845e-07
9.88253e-07
1.05003e-06
1.31051e-06
6.91093e-06
1.41019e-06
9.27943e-06
1.45062e-06
1.06592e-05
1.64428e-06
1.08224e-05
1.21722e-06
8.55247e-07
1.48193e-06
-2.62741e-06
1.09017e-06
7.40486e-07
1.28699e-06
1.04542e-05
1.31627e-06
1.03059e-05
1.36351e-06
8.55249e-06
1.40935e-06
6.63939e-06
1.39029e-06
4.98751e-06
1.35131e-06
4.58756e-06
1.34853e-06
5.08179e-06
1.35695e-06
5.58602e-06
1.36287e-06
5.91287e-06
1.36621e-06
6.13997e-06
1.36798e-06
5.15087e-06
1.3691e-06
5.0045e-06
1.36984e-06
4.84707e-06
1.37037e-06
4.6853e-06
1.37078e-06
4.52251e-06
1.37113e-06
4.36027e-06
1.37142e-06
4.19941e-06
1.37167e-06
4.04057e-06
1.37189e-06
3.88431e-06
1.37207e-06
3.73112e-06
1.37223e-06
3.58141e-06
1.37237e-06
3.43551e-06
1.37249e-06
3.29366e-06
1.37259e-06
3.15604e-06
1.37267e-06
3.02277e-06
1.37275e-06
2.89392e-06
1.37281e-06
2.76952e-06
1.37287e-06
2.64955e-06
1.37292e-06
2.53401e-06
1.37296e-06
2.42282e-06
1.373e-06
2.31593e-06
1.37303e-06
2.21325e-06
1.37306e-06
2.11468e-06
1.37308e-06
2.02011e-06
1.3731e-06
1.92945e-06
1.37312e-06
1.84257e-06
1.37314e-06
1.75936e-06
1.37316e-06
1.67968e-06
1.37319e-06
1.60341e-06
1.5305e-06
1.89619e-06
3.44676e-06
1.293e-06
4.54747e-07
8.24764e-07
1.51826e-06
1.21988e-06
6.51581e-06
1.45129e-06
9.04802e-06
1.5937e-06
1.05168e-05
1.83934e-06
1.05767e-05
1.40894e-06
1.28565e-06
1.3179e-06
-2.53637e-06
8.80357e-07
1.17803e-06
1.10757e-06
1.0227e-05
1.22299e-06
1.01905e-05
1.33229e-06
8.4432e-06
1.41661e-06
6.55507e-06
1.39346e-06
5.01066e-06
1.33447e-06
4.64655e-06
1.32269e-06
5.09356e-06
1.33413e-06
5.57459e-06
1.34599e-06
5.90101e-06
1.35415e-06
6.13181e-06
1.35878e-06
5.14624e-06
1.36191e-06
5.00137e-06
1.36407e-06
4.84491e-06
1.36566e-06
4.68371e-06
1.36689e-06
4.52128e-06
1.36789e-06
4.35927e-06
1.36872e-06
4.19857e-06
1.36943e-06
4.03986e-06
1.37004e-06
3.8837e-06
1.37056e-06
3.7306e-06
1.371e-06
3.58096e-06
1.37138e-06
3.43512e-06
1.37171e-06
3.29333e-06
1.372e-06
3.15576e-06
1.37224e-06
3.02253e-06
1.37245e-06
2.89371e-06
1.37264e-06
2.76933e-06
1.37279e-06
2.6494e-06
1.37293e-06
2.53387e-06
1.37305e-06
2.4227e-06
1.37315e-06
2.31583e-06
1.37324e-06
2.21316e-06
1.37331e-06
2.1146e-06
1.37338e-06
2.02005e-06
1.37343e-06
1.9294e-06
1.37348e-06
1.84252e-06
1.37352e-06
1.75931e-06
1.37357e-06
1.67964e-06
1.37362e-06
1.60336e-06
1.53044e-06
1.90257e-06
3.35061e-06
1.2604e-06
1.09692e-06
8.18752e-07
1.95991e-06
1.19755e-06
6.13701e-06
1.49236e-06
8.75322e-06
1.70316e-06
1.0306e-05
1.96246e-06
1.03174e-05
1.51468e-06
1.73343e-06
1.23573e-06
-2.25741e-06
7.47861e-07
1.66589e-06
9.60956e-07
1.00139e-05
1.13986e-06
1.00116e-05
1.29799e-06
8.28506e-06
1.40594e-06
6.44713e-06
1.38699e-06
5.02961e-06
1.32473e-06
4.70882e-06
1.30802e-06
5.11027e-06
1.31904e-06
5.56357e-06
1.33316e-06
5.88689e-06
1.34414e-06
6.12082e-06
1.35084e-06
5.13955e-06
1.3556e-06
4.99661e-06
1.35903e-06
4.84148e-06
1.36157e-06
4.68116e-06
1.36356e-06
4.51929e-06
1.36518e-06
4.35765e-06
1.36652e-06
4.19723e-06
1.36765e-06
4.03873e-06
1.36862e-06
3.88274e-06
1.36944e-06
3.72978e-06
1.37015e-06
3.58026e-06
1.37076e-06
3.43452e-06
1.37128e-06
3.29281e-06
1.37173e-06
3.15531e-06
1.37212e-06
3.02214e-06
1.37245e-06
2.89337e-06
1.37274e-06
2.76904e-06
1.37299e-06
2.64915e-06
1.37321e-06
2.53366e-06
1.37339e-06
2.42252e-06
1.37355e-06
2.31567e-06
1.37368e-06
2.21303e-06
1.3738e-06
2.11449e-06
1.37389e-06
2.01995e-06
1.37397e-06
1.92932e-06
1.37404e-06
1.84246e-06
1.37409e-06
1.75926e-06
1.37413e-06
1.67959e-06
1.37418e-06
1.60332e-06
1.53041e-06
1.82343e-06
3.32513e-06
1.26116e-06
1.6592e-06
8.69063e-07
2.352e-06
1.20288e-06
5.80319e-06
1.53011e-06
8.42599e-06
1.78705e-06
1.00491e-05
2.05047e-06
1.0054e-05
1.5851e-06
2.19881e-06
1.15897e-06
-1.83128e-06
6.46429e-07
2.17843e-06
8.52851e-07
9.80747e-06
1.07852e-06
9.7859e-06
1.27149e-06
8.09209e-06
1.39267e-06
6.32595e-06
1.37867e-06
5.04361e-06
1.31845e-06
4.76904e-06
1.29944e-06
5.12928e-06
1.30924e-06
5.55377e-06
1.32407e-06
5.87206e-06
1.33658e-06
6.10831e-06
1.34462e-06
5.13151e-06
1.35056e-06
4.99067e-06
1.35496e-06
4.83709e-06
1.35831e-06
4.67782e-06
1.36094e-06
4.51665e-06
1.36309e-06
4.3555e-06
1.36488e-06
4.19544e-06
1.36639e-06
4.03722e-06
1.36767e-06
3.88146e-06
1.36877e-06
3.72868e-06
1.36971e-06
3.57932e-06
1.37052e-06
3.43371e-06
1.37121e-06
3.29211e-06
1.37182e-06
3.1547e-06
1.37233e-06
3.02162e-06
1.37278e-06
2.89292e-06
1.37317e-06
2.76866e-06
1.3735e-06
2.64881e-06
1.37379e-06
2.53337e-06
1.37403e-06
2.42228e-06
1.37424e-06
2.31546e-06
1.37441e-06
2.21285e-06
1.37456e-06
2.11434e-06
1.37468e-06
2.01983e-06
1.37478e-06
1.92922e-06
1.37486e-06
1.84238e-06
1.37492e-06
1.7592e-06
1.37497e-06
1.67955e-06
1.375e-06
1.60328e-06
1.53038e-06
1.72447e-06
3.35592e-06
1.26715e-06
2.11652e-06
9.40035e-07
2.67912e-06
1.21613e-06
5.52709e-06
1.55299e-06
8.08913e-06
1.83795e-06
9.76411e-06
2.09681e-06
9.79514e-06
1.64263e-06
2.65299e-06
1.09188e-06
-1.28053e-06
5.84247e-07
2.68607e-06
7.87912e-07
9.6038e-06
1.04226e-06
9.53155e-06
1.25482e-06
7.87954e-06
1.37926e-06
6.20151e-06
1.37042e-06
5.05244e-06
1.31607e-06
4.8234e-06
1.29632e-06
5.14903e-06
1.30416e-06
5.54594e-06
1.31852e-06
5.8577e-06
1.33159e-06
6.09523e-06
1.34036e-06
5.12275e-06
1.34704e-06
4.98398e-06
1.35212e-06
4.832e-06
1.35606e-06
4.67388e-06
1.3592e-06
4.51351e-06
1.36177e-06
4.35293e-06
1.36393e-06
4.19329e-06
1.36575e-06
4.0354e-06
1.3673e-06
3.8799e-06
1.36862e-06
3.72735e-06
1.36976e-06
3.57818e-06
1.37075e-06
3.43273e-06
1.37159e-06
3.29126e-06
1.37232e-06
3.15397e-06
1.37296e-06
3.02099e-06
1.3735e-06
2.89238e-06
1.37397e-06
2.76819e-06
1.37437e-06
2.64841e-06
1.37472e-06
2.53302e-06
1.37502e-06
2.42198e-06
1.37527e-06
2.31521e-06
1.37548e-06
2.21264e-06
1.37566e-06
2.11416e-06
1.37581e-06
2.01969e-06
1.37592e-06
1.9291e-06
1.37602e-06
1.84229e-06
1.37609e-06
1.75913e-06
1.37615e-06
1.67949e-06
1.37619e-06
1.60324e-06
1.53036e-06
1.63692e-06
3.41959e-06
1.27248e-06
2.48096e-06
1.00808e-06
2.94352e-06
1.22842e-06
5.30675e-06
1.55651e-06
7.76104e-06
1.85086e-06
9.46976e-06
2.10065e-06
9.54534e-06
1.67192e-06
3.08173e-06
1.04154e-06
-6.50156e-07
5.62491e-07
3.16512e-06
7.6636e-07
9.39993e-06
1.03038e-06
9.26753e-06
1.24872e-06
7.6612e-06
1.37041e-06
6.07982e-06
1.36484e-06
5.05802e-06
1.31734e-06
4.87089e-06
1.29787e-06
5.1685e-06
1.3034e-06
5.54041e-06
1.3164e-06
5.84469e-06
1.32921e-06
6.08242e-06
1.33816e-06
5.1138e-06
1.34519e-06
4.97694e-06
1.35066e-06
4.82653e-06
1.35498e-06
4.66957e-06
1.35846e-06
4.51003e-06
1.36134e-06
4.35005e-06
1.36376e-06
4.19087e-06
1.36582e-06
4.03334e-06
1.36758e-06
3.87815e-06
1.36909e-06
3.72584e-06
1.37038e-06
3.57688e-06
1.37151e-06
3.43161e-06
1.37247e-06
3.29029e-06
1.37331e-06
3.15314e-06
1.37404e-06
3.02026e-06
1.37466e-06
2.89175e-06
1.3752e-06
2.76765e-06
1.37567e-06
2.64794e-06
1.37606e-06
2.53262e-06
1.37641e-06
2.42164e-06
1.3767e-06
2.31492e-06
1.37694e-06
2.21239e-06
1.37714e-06
2.11396e-06
1.37731e-06
2.01952e-06
1.37745e-06
1.92896e-06
1.37756e-06
1.84218e-06
1.37765e-06
1.75904e-06
1.37771e-06
1.67942e-06
1.37776e-06
1.60319e-06
1.53034e-06
1.56682e-06
3.4986e-06
1.27497e-06
2.77281e-06
1.06101e-06
3.15748e-06
1.23311e-06
5.13465e-06
1.53985e-06
7.45429e-06
1.8286e-06
9.18102e-06
2.06783e-06
9.30611e-06
1.67226e-06
3.47729e-06
1.01133e-06
1.07777e-08
5.7636e-07
3.60009e-06
7.81627e-07
9.19467e-06
1.04111e-06
9.00804e-06
1.25421e-06
7.4481e-06
1.36722e-06
5.96681e-06
1.36352e-06
5.06171e-06
1.32205e-06
4.91236e-06
1.30308e-06
5.18747e-06
1.30626e-06
5.53723e-06
1.3174e-06
5.83355e-06
1.32931e-06
6.07051e-06
1.338e-06
5.10511e-06
1.34503e-06
4.96991e-06
1.35063e-06
4.82094e-06
1.35511e-06
4.66508e-06
1.35878e-06
4.50636e-06
1.36185e-06
4.34699e-06
1.36444e-06
4.18828e-06
1.36665e-06
4.03113e-06
1.36855e-06
3.87625e-06
1.37019e-06
3.7242e-06
1.3716e-06
3.57546e-06
1.37283e-06
3.43038e-06
1.37389e-06
3.28923e-06
1.37481e-06
3.15222e-06
1.3756e-06
3.01947e-06
1.37629e-06
2.89107e-06
1.37688e-06
2.76705e-06
1.3774e-06
2.64743e-06
1.37784e-06
2.53218e-06
1.37821e-06
2.42126e-06
1.37853e-06
2.3146e-06
1.3788e-06
2.21212e-06
1.37903e-06
2.11373e-06
1.37922e-06
2.01933e-06
1.37937e-06
1.92881e-06
1.37949e-06
1.84205e-06
1.37959e-06
1.75894e-06
1.37966e-06
1.67935e-06
1.37971e-06
1.60314e-06
1.53032e-06
1.51017e-06
3.58346e-06
1.27279e-06
3.01019e-06
1.09645e-06
3.33381e-06
1.22694e-06
5.00416e-06
1.50447e-06
7.17676e-06
1.77846e-06
8.90703e-06
2.0071e-06
9.07748e-06
1.65106e-06
3.83333e-06
1.00217e-06
6.59667e-07
6.21288e-07
3.98096e-06
8.26556e-07
8.9894e-06
1.07236e-06
8.76224e-06
1.27143e-06
7.24904e-06
1.3724e-06
5.86583e-06
1.36745e-06
5.06667e-06
1.33015e-06
4.94966e-06
1.3113e-06
5.20631e-06
1.31211e-06
5.53642e-06
1.32112e-06
5.82455e-06
1.33171e-06
6.05992e-06
1.33979e-06
5.09703e-06
1.34652e-06
4.96319e-06
1.35199e-06
4.81547e-06
1.35646e-06
4.66061e-06
1.36017e-06
4.50265e-06
1.3633e-06
4.34386e-06
1.36596e-06
4.18561e-06
1.36826e-06
4.02884e-06
1.37023e-06
3.87427e-06
1.37195e-06
3.72249e-06
1.37343e-06
3.57398e-06
1.37473e-06
3.42909e-06
1.37585e-06
3.28811e-06
1.37682e-06
3.15124e-06
1.37766e-06
3.01862e-06
1.3784e-06
2.89033e-06
1.37903e-06
2.76642e-06
1.37958e-06
2.64689e-06
1.38005e-06
2.53171e-06
1.38045e-06
2.42086e-06
1.38079e-06
2.31426e-06
1.38108e-06
2.21183e-06
1.38132e-06
2.11349e-06
1.38152e-06
2.01913e-06
1.38169e-06
1.92865e-06
1.38182e-06
1.84192e-06
1.38192e-06
1.75884e-06
1.38199e-06
1.67928e-06
1.38204e-06
1.60309e-06
1.53029e-06
1.46223e-06
3.66942e-06
1.26529e-06
3.20713e-06
1.1162e-06
3.4829e-06
1.21039e-06
4.90998e-06
1.45352e-06
6.93363e-06
1.70907e-06
8.65149e-06
1.92992e-06
8.85662e-06
1.61937e-06
4.14388e-06
1.01425e-06
1.26479e-06
6.92296e-07
4.30291e-06
8.94855e-07
8.78684e-06
1.12111e-06
8.53598e-06
1.29879e-06
7.07135e-06
1.38357e-06
5.78106e-06
1.37632e-06
5.07391e-06
1.34154e-06
4.98445e-06
1.32222e-06
5.22563e-06
1.32054e-06
5.5381e-06
1.3272e-06
5.81789e-06
1.33616e-06
6.05096e-06
1.34336e-06
5.08983e-06
1.34955e-06
4.957e-06
1.3547e-06
4.81031e-06
1.35899e-06
4.65632e-06
1.3626e-06
4.49904e-06
1.36568e-06
4.34078e-06
1.36833e-06
4.18296e-06
1.37062e-06
4.02654e-06
1.37262e-06
3.87227e-06
1.37436e-06
3.72075e-06
1.37587e-06
3.57246e-06
1.3772e-06
3.42777e-06
1.37835e-06
3.28696e-06
1.37935e-06
3.15024e-06
1.38022e-06
3.01775e-06
1.38098e-06
2.88957e-06
1.38164e-06
2.76576e-06
1.38221e-06
2.64632e-06
1.3827e-06
2.53123e-06
1.38312e-06
2.42044e-06
1.38347e-06
2.3139e-06
1.38377e-06
2.21153e-06
1.38402e-06
2.11324e-06
1.38423e-06
2.01892e-06
1.3844e-06
1.92848e-06
1.38453e-06
1.84179e-06
1.38464e-06
1.75874e-06
1.38471e-06
1.6792e-06
1.38476e-06
1.60304e-06
1.53027e-06
1.41966e-06
3.75416e-06
1.25259e-06
3.37419e-06
1.1227e-06
3.6128e-06
1.1856e-06
4.84707e-06
1.38981e-06
6.72941e-06
1.6293e-06
8.41201e-06
1.84755e-06
8.63837e-06
1.58751e-06
4.40392e-06
1.04571e-06
1.80659e-06
7.82237e-07
4.56639e-06
9.79813e-07
8.58926e-06
1.18272e-06
8.33307e-06
1.33397e-06
6.9201e-06
1.40113e-06
5.7139e-06
1.38979e-06
5.08525e-06
1.35594e-06
5.0183e-06
1.33557e-06
5.24599e-06
1.33127e-06
5.54239e-06
1.33541e-06
5.81376e-06
1.34247e-06
6.04389e-06
1.34858e-06
5.08372e-06
1.35403e-06
4.95155e-06
1.35869e-06
4.80565e-06
1.36264e-06
4.65237e-06
1.36603e-06
4.49566e-06
1.36896e-06
4.33786e-06
1.37151e-06
4.18041e-06
1.37374e-06
4.02431e-06
1.3757e-06
3.87031e-06
1.37741e-06
3.71904e-06
1.37892e-06
3.57095e-06
1.38024e-06
3.42645e-06
1.38139e-06
3.28581e-06
1.3824e-06
3.14923e-06
1.38328e-06
3.01687e-06
1.38405e-06
2.88881e-06
1.38472e-06
2.76509e-06
1.38529e-06
2.64574e-06
1.38579e-06
2.53073e-06
1.38622e-06
2.42002e-06
1.38658e-06
2.31354e-06
1.38689e-06
2.21123e-06
1.38714e-06
2.11298e-06
1.38735e-06
2.01871e-06
1.38752e-06
1.92831e-06
1.38766e-06
1.84165e-06
1.38776e-06
1.75863e-06
1.38784e-06
1.67912e-06
1.38789e-06
1.60299e-06
1.53024e-06
1.38009e-06
3.83694e-06
1.23526e-06
3.51901e-06
1.11872e-06
3.72935e-06
1.15583e-06
4.80996e-06
1.32769e-06
6.55755e-06
1.54758e-06
8.19212e-06
1.76869e-06
8.41726e-06
1.56252e-06
4.61009e-06
1.09201e-06
2.2771e-06
8.82132e-07
4.77627e-06
1.07339e-06
8.39801e-06
1.25152e-06
8.15494e-06
1.37375e-06
6.79787e-06
1.42345e-06
5.6642e-06
1.40704e-06
5.10166e-06
1.37301e-06
5.05232e-06
1.35109e-06
5.26792e-06
1.34406e-06
5.54943e-06
1.34552e-06
5.8123e-06
1.35049e-06
6.03892e-06
1.35533e-06
5.07888e-06
1.35986e-06
4.94701e-06
1.36388e-06
4.80164e-06
1.36737e-06
4.64887e-06
1.37043e-06
4.4926e-06
1.37312e-06
4.33517e-06
1.37549e-06
4.17803e-06
1.3776e-06
4.0222e-06
1.37946e-06
3.86845e-06
1.38111e-06
3.71739e-06
1.38257e-06
3.5695e-06
1.38385e-06
3.42517e-06
1.38498e-06
3.28468e-06
1.38597e-06
3.14824e-06
1.38684e-06
3.016e-06
1.3876e-06
2.88805e-06
1.38827e-06
2.76443e-06
1.38884e-06
2.64517e-06
1.38934e-06
2.53023e-06
1.38976e-06
2.41959e-06
1.39012e-06
2.31318e-06
1.39043e-06
2.21092e-06
1.39069e-06
2.11273e-06
1.3909e-06
2.0185e-06
1.39107e-06
1.92814e-06
1.39121e-06
1.84152e-06
1.39131e-06
1.75853e-06
1.39139e-06
1.67905e-06
1.39144e-06
1.60294e-06
1.53022e-06
1.34261e-06
3.91738e-06
1.21391e-06
3.64772e-06
1.10664e-06
3.83661e-06
1.12186e-06
4.79474e-06
1.26365e-06
6.41576e-06
1.46952e-06
7.98625e-06
1.6985e-06
8.18828e-06
1.5468e-06
4.76179e-06
1.1462e-06
2.6777e-06
9.82665e-07
4.9398e-06
1.16686e-06
8.21382e-06
1.3224e-06
7.9994e-06
1.41804e-06
6.70224e-06
1.44934e-06
5.63289e-06
1.42731e-06
5.1237e-06
1.39215e-06
5.08748e-06
1.36846e-06
5.29161e-06
1.35863e-06
5.55926e-06
1.35732e-06
5.8136e-06
1.36005e-06
6.03619e-06
1.36346e-06
5.07547e-06
1.36695e-06
4.94353e-06
1.37019e-06
4.7984e-06
1.37312e-06
4.64595e-06
1.37575e-06
4.48997e-06
1.37812e-06
4.3328e-06
1.38025e-06
4.1759e-06
1.38217e-06
4.02028e-06
1.3839e-06
3.86673e-06
1.38544e-06
3.71585e-06
1.38681e-06
3.56812e-06
1.38803e-06
3.42394e-06
1.38911e-06
3.28359e-06
1.39007e-06
3.14728e-06
1.39091e-06
3.01516e-06
1.39165e-06
2.88731e-06
1.39229e-06
2.76379e-06
1.39285e-06
2.6446e-06
1.39334e-06
2.52975e-06
1.39376e-06
2.41917e-06
1.39412e-06
2.31282e-06
1.39442e-06
2.21062e-06
1.39467e-06
2.11248e-06
1.39488e-06
2.01829e-06
1.39505e-06
1.92796e-06
1.39519e-06
1.84138e-06
1.39529e-06
1.75842e-06
1.39537e-06
1.67897e-06
1.39543e-06
1.60289e-06
1.53019e-06
1.30568e-06
3.99611e-06
1.18877e-06
3.76463e-06
1.08782e-06
3.93756e-06
1.08481e-06
4.79776e-06
1.20065e-06
6.29992e-06
1.39954e-06
7.78736e-06
1.63787e-06
7.94994e-06
1.53881e-06
4.86086e-06
1.20177e-06
3.01474e-06
1.07582e-06
5.06576e-06
1.25238e-06
8.03726e-06
1.38846e-06
7.86331e-06
1.46103e-06
6.62967e-06
1.47716e-06
5.61677e-06
1.44981e-06
5.15105e-06
1.41313e-06
5.12416e-06
1.38738e-06
5.31736e-06
1.37469e-06
5.57195e-06
1.37058e-06
5.81771e-06
1.37097e-06
6.03581e-06
1.37285e-06
5.07358e-06
1.37518e-06
4.9412e-06
1.37755e-06
4.79603e-06
1.37981e-06
4.64368e-06
1.38194e-06
4.48785e-06
1.38392e-06
4.33082e-06
1.38575e-06
4.17406e-06
1.38744e-06
4.0186e-06
1.38898e-06
3.86519e-06
1.39038e-06
3.71445e-06
1.39164e-06
3.56686e-06
1.39277e-06
3.42281e-06
1.39378e-06
3.28258e-06
1.39468e-06
3.14638e-06
1.39548e-06
3.01436e-06
1.39618e-06
2.8866e-06
1.3968e-06
2.76317e-06
1.39734e-06
2.64407e-06
1.39781e-06
2.52928e-06
1.39821e-06
2.41877e-06
1.39856e-06
2.31248e-06
1.39885e-06
2.21032e-06
1.3991e-06
2.11223e-06
1.3993e-06
2.01809e-06
1.39947e-06
1.92779e-06
1.39961e-06
1.84124e-06
1.39972e-06
1.75831e-06
1.3998e-06
1.67889e-06
1.39986e-06
1.60283e-06
1.53016e-06
1.26889e-06
4.07383e-06
1.1601e-06
3.87342e-06
1.06296e-06
4.03469e-06
1.04489e-06
4.81583e-06
1.13836e-06
6.20645e-06
1.33113e-06
7.59459e-06
1.58451e-06
7.69656e-06
1.53458e-06
4.91079e-06
1.25319e-06
3.29613e-06
1.1562e-06
5.16274e-06
1.32444e-06
7.86901e-06
1.44555e-06
7.7422e-06
1.50215e-06
6.57307e-06
1.50581e-06
5.6131e-06
1.47377e-06
5.18309e-06
1.43538e-06
5.16255e-06
1.40747e-06
5.34527e-06
1.39196e-06
5.58746e-06
1.38504e-06
5.82463e-06
1.38303e-06
6.03781e-06
1.38332e-06
5.07329e-06
1.38442e-06
4.9401e-06
1.38584e-06
4.79461e-06
1.38737e-06
4.64215e-06
1.38893e-06
4.48629e-06
1.39047e-06
4.32928e-06
1.39195e-06
4.17258e-06
1.39336e-06
4.01718e-06
1.39469e-06
3.86386e-06
1.39591e-06
3.71322e-06
1.39703e-06
3.56574e-06
1.39805e-06
3.42179e-06
1.39897e-06
3.28166e-06
1.3998e-06
3.14555e-06
1.40054e-06
3.01362e-06
1.4012e-06
2.88595e-06
1.40178e-06
2.76259e-06
1.40229e-06
2.64356e-06
1.40273e-06
2.52883e-06
1.40312e-06
2.41838e-06
1.40345e-06
2.31214e-06
1.40373e-06
2.21004e-06
1.40397e-06
2.11199e-06
1.40417e-06
2.01789e-06
1.40433e-06
1.92763e-06
1.40447e-06
1.84111e-06
1.40458e-06
1.7582e-06
1.40467e-06
1.6788e-06
1.40473e-06
1.60277e-06
1.53013e-06
1.23185e-06
4.15147e-06
1.12808e-06
3.97719e-06
1.03229e-06
4.13049e-06
1.00111e-06
4.847e-06
1.07633e-06
6.13123e-06
1.26667e-06
7.40425e-06
1.53632e-06
7.42691e-06
1.52926e-06
4.91785e-06
1.29652e-06
3.52887e-06
1.22222e-06
5.23704e-06
1.3835e-06
7.70774e-06
1.49706e-06
7.62864e-06
1.54117e-06
6.52896e-06
1.53477e-06
5.6195e-06
1.49867e-06
5.21919e-06
1.4585e-06
5.20272e-06
1.4284e-06
5.37537e-06
1.41012e-06
5.60573e-06
1.40044e-06
5.83431e-06
1.39603e-06
6.04222e-06
1.3947e-06
5.07463e-06
1.39451e-06
4.94029e-06
1.39493e-06
4.79419e-06
1.39569e-06
4.64139e-06
1.39664e-06
4.48534e-06
1.39769e-06
4.32823e-06
1.39879e-06
4.17148e-06
1.3999e-06
4.01608e-06
1.40097e-06
3.86279e-06
1.402e-06
3.7122e-06
1.40296e-06
3.56478e-06
1.40385e-06
3.4209e-06
1.40467e-06
3.28084e-06
1.40542e-06
3.14481e-06
1.40609e-06
3.01295e-06
1.40669e-06
2.88535e-06
1.40722e-06
2.76205e-06
1.40769e-06
2.64308e-06
1.40811e-06
2.52842e-06
1.40847e-06
2.41802e-06
1.40878e-06
2.31183e-06
1.40905e-06
2.20977e-06
1.40928e-06
2.11176e-06
1.40947e-06
2.01769e-06
1.40963e-06
1.92747e-06
1.40977e-06
1.84097e-06
1.40988e-06
1.75809e-06
1.40997e-06
1.67871e-06
1.41004e-06
1.6027e-06
1.53009e-06
1.19448e-06
4.23e-06
1.09304e-06
4.07863e-06
9.96247e-07
4.22728e-06
9.53312e-07
4.88994e-06
1.01442e-06
6.07012e-06
1.20711e-06
7.21156e-06
1.49104e-06
7.14298e-06
1.51952e-06
4.88936e-06
1.32962e-06
3.71877e-06
1.27465e-06
5.29201e-06
1.4343e-06
7.54809e-06
1.54252e-06
7.52043e-06
1.57802e-06
6.49346e-06
1.56378e-06
5.63374e-06
1.52415e-06
5.25882e-06
1.48214e-06
5.24474e-06
1.44984e-06
5.40767e-06
1.42888e-06
5.6267e-06
1.41652e-06
5.84667e-06
1.40974e-06
6.049e-06
1.40678e-06
5.07759e-06
1.40531e-06
4.94176e-06
1.40471e-06
4.79479e-06
1.40465e-06
4.64145e-06
1.40496e-06
4.48503e-06
1.40551e-06
4.32768e-06
1.4062e-06
4.17078e-06
1.40698e-06
4.0153e-06
1.40779e-06
3.86198e-06
1.4086e-06
3.71138e-06
1.40939e-06
3.56399e-06
1.41014e-06
3.42015e-06
1.41084e-06
3.28014e-06
1.41149e-06
3.14416e-06
1.41209e-06
3.01235e-06
1.41263e-06
2.88481e-06
1.41311e-06
2.76157e-06
1.41354e-06
2.64265e-06
1.41392e-06
2.52804e-06
1.41426e-06
2.41769e-06
1.41455e-06
2.31154e-06
1.4148e-06
2.20952e-06
1.41502e-06
2.11155e-06
1.4152e-06
2.01751e-06
1.41536e-06
1.92731e-06
1.41549e-06
1.84084e-06
1.4156e-06
1.75798e-06
1.41569e-06
1.67861e-06
1.41577e-06
1.60263e-06
1.53005e-06
1.15698e-06
4.31033e-06
1.05559e-06
4.18002e-06
9.55853e-07
4.32701e-06
9.02463e-07
4.94333e-06
9.53455e-07
6.01913e-06
1.15099e-06
7.01403e-06
1.44676e-06
6.84721e-06
1.5034e-06
4.83272e-06
1.35127e-06
3.87089e-06
1.31429e-06
5.329e-06
1.47329e-06
7.38908e-06
1.58257e-06
7.41116e-06
1.613e-06
6.46304e-06
1.59269e-06
5.65405e-06
1.54991e-06
5.3016e-06
1.50601e-06
5.28864e-06
1.47151e-06
5.44216e-06
1.44796e-06
5.65025e-06
1.43301e-06
5.86162e-06
1.42394e-06
6.05807e-06
1.41938e-06
5.08214e-06
1.41663e-06
4.94452e-06
1.41501e-06
4.79641e-06
1.41415e-06
4.64231e-06
1.4138e-06
4.48537e-06
1.41383e-06
4.32766e-06
1.4141e-06
4.17051e-06
1.41454e-06
4.01486e-06
1.41508e-06
3.86144e-06
1.41567e-06
3.71079e-06
1.41628e-06
3.56338e-06
1.41688e-06
3.41955e-06
1.41746e-06
3.27956e-06
1.41801e-06
3.14361e-06
1.41852e-06
3.01184e-06
1.41899e-06
2.88434e-06
1.41942e-06
2.76114e-06
1.41981e-06
2.64226e-06
1.42016e-06
2.52769e-06
1.42046e-06
2.41738e-06
1.42073e-06
2.31127e-06
1.42097e-06
2.20929e-06
1.42117e-06
2.11134e-06
1.42135e-06
2.01734e-06
1.4215e-06
1.92716e-06
1.42163e-06
1.84071e-06
1.42173e-06
1.75787e-06
1.42183e-06
1.67852e-06
1.42189e-06
1.60256e-06
1.53001e-06
1.11989e-06
4.3932e-06
1.01684e-06
4.28307e-06
9.13022e-07
4.43083e-06
8.51266e-07
5.00509e-06
8.96716e-07
5.97368e-06
1.10085e-06
6.8099e-06
1.40331e-06
6.54475e-06
1.48042e-06
4.75561e-06
1.36141e-06
3.9899e-06
1.34351e-06
5.34691e-06
1.50544e-06
7.22714e-06
1.61872e-06
7.29788e-06
1.6465e-06
6.43525e-06
1.62141e-06
5.67914e-06
1.5757e-06
5.34732e-06
1.52983e-06
5.3345e-06
1.49315e-06
5.47884e-06
1.4671e-06
5.67631e-06
1.44968e-06
5.87904e-06
1.4384e-06
6.06935e-06
1.43231e-06
5.08823e-06
1.42831e-06
4.94852e-06
1.4257e-06
4.79902e-06
1.42404e-06
4.64397e-06
1.42305e-06
4.48636e-06
1.42256e-06
4.32815e-06
1.42242e-06
4.17065e-06
1.42252e-06
4.01476e-06
1.42278e-06
3.86118e-06
1.42314e-06
3.71043e-06
1.42357e-06
3.56296e-06
1.42402e-06
3.4191e-06
1.42447e-06
3.2791e-06
1.42492e-06
3.14316e-06
1.42535e-06
3.01141e-06
1.42576e-06
2.88393e-06
1.42613e-06
2.76077e-06
1.42647e-06
2.64192e-06
1.42678e-06
2.52738e-06
1.42706e-06
2.4171e-06
1.42731e-06
2.31102e-06
1.42753e-06
2.20907e-06
1.42772e-06
2.11115e-06
1.42789e-06
2.01717e-06
1.42803e-06
1.92702e-06
1.42816e-06
1.84059e-06
1.42826e-06
1.75776e-06
1.42835e-06
1.67844e-06
1.42841e-06
1.60249e-06
1.52998e-06
1.08412e-06
4.47902e-06
9.78492e-07
4.3887e-06
8.70701e-07
4.53863e-06
8.03997e-07
5.07179e-06
8.49082e-07
5.92859e-06
1.06024e-06
6.59874e-06
1.36105e-06
6.24394e-06
1.45149e-06
4.66517e-06
1.3614e-06
4.07998e-06
1.36479e-06
5.34353e-06
1.53246e-06
7.05947e-06
1.65175e-06
7.17859e-06
1.67879e-06
6.40821e-06
1.64991e-06
5.70801e-06
1.60136e-06
5.39588e-06
1.5534e-06
5.38246e-06
1.51451e-06
5.51773e-06
1.48605e-06
5.70476e-06
1.46629e-06
5.89881e-06
1.45293e-06
6.08271e-06
1.44538e-06
5.09578e-06
1.44019e-06
4.9537e-06
1.43663e-06
4.80259e-06
1.4342e-06
4.6464e-06
1.4326e-06
4.48795e-06
1.43161e-06
4.32914e-06
1.43106e-06
4.1712e-06
1.43083e-06
4.01499e-06
1.43082e-06
3.86118e-06
1.43097e-06
3.71029e-06
1.43121e-06
3.56272e-06
1.43151e-06
3.41879e-06
1.43185e-06
3.27876e-06
1.4322e-06
3.14281e-06
1.43254e-06
3.01107e-06
1.43288e-06
2.8836e-06
1.4332e-06
2.76045e-06
1.4335e-06
2.64162e-06
1.43377e-06
2.52711e-06
1.43402e-06
2.41685e-06
1.43425e-06
2.31079e-06
1.43445e-06
2.20886e-06
1.43463e-06
2.11097e-06
1.43479e-06
2.01701e-06
1.43493e-06
1.92688e-06
1.43506e-06
1.84047e-06
1.43516e-06
1.75766e-06
1.43524e-06
1.67835e-06
1.43531e-06
1.60243e-06
1.52994e-06
1.05089e-06
4.56768e-06
9.42734e-07
4.49685e-06
8.32527e-07
4.64883e-06
7.65492e-07
5.13883e-06
8.1536e-07
5.87872e-06
1.03271e-06
6.3814e-06
1.32828e-06
5.94837e-06
1.41903e-06
4.57442e-06
1.35335e-06
4.14567e-06
1.37925e-06
5.31763e-06
1.55486e-06
6.88387e-06
1.68167e-06
7.05178e-06
1.70972e-06
6.38016e-06
1.678e-06
5.73973e-06
1.62665e-06
5.44722e-06
1.57645e-06
5.43266e-06
1.53534e-06
5.55884e-06
1.50458e-06
5.73552e-06
1.48262e-06
5.92077e-06
1.46731e-06
6.09801e-06
1.4584e-06
5.10469e-06
1.45212e-06
4.95998e-06
1.44766e-06
4.80705e-06
1.44451e-06
4.64954e-06
1.44234e-06
4.49013e-06
1.44088e-06
4.3306e-06
1.43995e-06
4.17213e-06
1.43941e-06
4.01554e-06
1.43914e-06
3.86145e-06
1.43908e-06
3.71035e-06
1.43915e-06
3.56264e-06
1.43932e-06
3.41863e-06
1.43954e-06
3.27854e-06
1.43979e-06
3.14256e-06
1.44006e-06
3.01079e-06
1.44033e-06
2.88332e-06
1.4406e-06
2.76018e-06
1.44086e-06
2.64137e-06
1.4411e-06
2.52686e-06
1.44132e-06
2.41663e-06
1.44153e-06
2.31059e-06
1.44172e-06
2.20868e-06
1.44189e-06
2.1108e-06
1.44204e-06
2.01686e-06
1.44217e-06
1.92674e-06
1.44229e-06
1.84035e-06
1.4424e-06
1.75755e-06
1.44248e-06
1.67827e-06
1.44255e-06
1.60237e-06
1.52991e-06
1.0216e-06
4.65853e-06
9.12018e-07
4.60644e-06
8.02199e-07
4.75865e-06
7.39873e-07
5.20115e-06
7.98422e-07
5.82017e-06
1.01835e-06
6.16147e-06
1.29745e-06
5.66927e-06
1.38439e-06
4.48747e-06
1.33992e-06
4.19014e-06
1.38686e-06
5.27069e-06
1.57265e-06
6.69807e-06
1.70804e-06
6.91639e-06
1.73877e-06
6.34943e-06
1.70524e-06
5.77326e-06
1.65123e-06
5.50123e-06
1.59868e-06
5.48522e-06
1.55536e-06
5.60215e-06
1.52243e-06
5.76845e-06
1.49844e-06
5.94476e-06
1.48136e-06
6.11509e-06
1.47121e-06
5.11484e-06
1.46393e-06
4.96727e-06
1.45866e-06
4.81231e-06
1.45487e-06
4.65334e-06
1.45216e-06
4.49284e-06
1.45028e-06
4.33249e-06
1.449e-06
4.17341e-06
1.44817e-06
4.01636e-06
1.44768e-06
3.86194e-06
1.44743e-06
3.7106e-06
1.44734e-06
3.56273e-06
1.44738e-06
3.41859e-06
1.4475e-06
3.27843e-06
1.44767e-06
3.14239e-06
1.44787e-06
3.01059e-06
1.44808e-06
2.88311e-06
1.4483e-06
2.75996e-06
1.44852e-06
2.64115e-06
1.44873e-06
2.52665e-06
1.44893e-06
2.41642e-06
1.44912e-06
2.3104e-06
1.44929e-06
2.2085e-06
1.44945e-06
2.11064e-06
1.4496e-06
2.01671e-06
1.44973e-06
1.92661e-06
1.44985e-06
1.84023e-06
1.44995e-06
1.75745e-06
1.45004e-06
1.67818e-06
1.45011e-06
1.6023e-06
1.52987e-06
9.97718e-07
4.75033e-06
8.88721e-07
4.71543e-06
7.82869e-07
4.8645e-06
7.29798e-07
5.25422e-06
7.98881e-07
5.75109e-06
1.01655e-06
5.9438e-06
1.27185e-06
5.41396e-06
1.35093e-06
4.4084e-06
1.32451e-06
4.21656e-06
1.39083e-06
5.20437e-06
1.58593e-06
6.50297e-06
1.73003e-06
6.77229e-06
1.76498e-06
6.31447e-06
1.73084e-06
5.8074e-06
1.67451e-06
5.55757e-06
1.61965e-06
5.54008e-06
1.57423e-06
5.64757e-06
1.53933e-06
5.80335e-06
1.51354e-06
5.97055e-06
1.49489e-06
6.13374e-06
1.48366e-06
5.12607e-06
1.47549e-06
4.97543e-06
1.46952e-06
4.81829e-06
1.46515e-06
4.6577e-06
1.46199e-06
4.496e-06
1.45972e-06
4.33475e-06
1.45814e-06
4.17499e-06
1.45707e-06
4.01743e-06
1.45637e-06
3.86263e-06
1.45595e-06
3.71102e-06
1.45574e-06
3.56294e-06
1.45566e-06
3.41867e-06
1.45569e-06
3.2784e-06
1.45578e-06
3.1423e-06
1.45592e-06
3.01045e-06
1.45609e-06
2.88294e-06
1.45627e-06
2.75978e-06
1.45646e-06
2.64096e-06
1.45664e-06
2.52647e-06
1.45683e-06
2.41624e-06
1.457e-06
2.31023e-06
1.45716e-06
2.20834e-06
1.45731e-06
2.11049e-06
1.45745e-06
2.01657e-06
1.45758e-06
1.92648e-06
1.45769e-06
1.84011e-06
1.4578e-06
1.75734e-06
1.45789e-06
1.67808e-06
1.45796e-06
1.60223e-06
1.52983e-06
9.80554e-07
4.84134e-06
8.74807e-07
4.82118e-06
7.76676e-07
4.96263e-06
7.36195e-07
5.2947e-06
8.15411e-07
5.67188e-06
1.02522e-06
5.73399e-06
1.25159e-06
5.18759e-06
1.32084e-06
4.33915e-06
1.30998e-06
4.22742e-06
1.39234e-06
5.12201e-06
1.59437e-06
6.30094e-06
1.74645e-06
6.62021e-06
1.78691e-06
6.27402e-06
1.7536e-06
5.84071e-06
1.69563e-06
5.61554e-06
1.63878e-06
5.59693e-06
1.59154e-06
5.69481e-06
1.55497e-06
5.83992e-06
1.52768e-06
5.99784e-06
1.50772e-06
6.1537e-06
1.49558e-06
5.13821e-06
1.48669e-06
4.98433e-06
1.48012e-06
4.82485e-06
1.47528e-06
4.66255e-06
1.47173e-06
4.49955e-06
1.46915e-06
4.33733e-06
1.46732e-06
4.17682e-06
1.46604e-06
4.01871e-06
1.46517e-06
3.8635e-06
1.46462e-06
3.71158e-06
1.46429e-06
3.56327e-06
1.46412e-06
3.41883e-06
1.46407e-06
3.27845e-06
1.46411e-06
3.14226e-06
1.4642e-06
3.01036e-06
1.46433e-06
2.88281e-06
1.46448e-06
2.75962e-06
1.46464e-06
2.6408e-06
1.46481e-06
2.5263e-06
1.46498e-06
2.41608e-06
1.46514e-06
2.31007e-06
1.46529e-06
2.20819e-06
1.46544e-06
2.11035e-06
1.46557e-06
2.01644e-06
1.4657e-06
1.92636e-06
1.46582e-06
1.83999e-06
1.46593e-06
1.75724e-06
1.46602e-06
1.67799e-06
1.4661e-06
1.60215e-06
1.52979e-06
9.71068e-07
4.92948e-06
8.71511e-07
4.92074e-06
7.84458e-07
5.04969e-06
7.58322e-07
5.32084e-06
8.45364e-07
5.58483e-06
1.04189e-06
5.53746e-06
1.23711e-06
4.99237e-06
1.29649e-06
4.27977e-06
1.29844e-06
4.22547e-06
1.39229e-06
5.02817e-06
1.5974e-06
6.09583e-06
1.75575e-06
6.46186e-06
1.80263e-06
6.22714e-06
1.77185e-06
5.87149e-06
1.71347e-06
5.67393e-06
1.65534e-06
5.65505e-06
1.60681e-06
5.74334e-06
1.56902e-06
5.87771e-06
1.54061e-06
6.02625e-06
1.51967e-06
6.17464e-06
1.50684e-06
5.15104e-06
1.49738e-06
4.99379e-06
1.49036e-06
4.83187e-06
1.48515e-06
4.66776e-06
1.4813e-06
4.5034e-06
1.47849e-06
4.34014e-06
1.47646e-06
4.17885e-06
1.47502e-06
4.02015e-06
1.47403e-06
3.86449e-06
1.47337e-06
3.71224e-06
1.47296e-06
3.56369e-06
1.47273e-06
3.41906e-06
1.47262e-06
3.27855e-06
1.47262e-06
3.14227e-06
1.47267e-06
3.0103e-06
1.47278e-06
2.88271e-06
1.47291e-06
2.75949e-06
1.47306e-06
2.64065e-06
1.47321e-06
2.52614e-06
1.47337e-06
2.41592e-06
1.47353e-06
2.30991e-06
1.47368e-06
2.20804e-06
1.47383e-06
2.1102e-06
1.47396e-06
2.0163e-06
1.47409e-06
1.92623e-06
1.47421e-06
1.83987e-06
1.47432e-06
1.75713e-06
1.47442e-06
1.67789e-06
1.47449e-06
1.60208e-06
1.52975e-06
9.69704e-07
5.01257e-06
8.79135e-07
5.01131e-06
8.05697e-07
5.12312e-06
7.9412e-07
5.33241e-06
8.85566e-07
5.49339e-06
1.06448e-06
5.35854e-06
1.22886e-06
4.828e-06
1.27915e-06
4.22948e-06
1.29094e-06
4.21368e-06
1.39107e-06
4.92803e-06
1.59427e-06
5.89263e-06
1.75621e-06
6.29991e-06
1.80994e-06
6.17341e-06
1.78368e-06
5.89775e-06
1.72668e-06
5.73093e-06
1.6685e-06
5.71323e-06
1.6195e-06
5.79234e-06
1.58114e-06
5.91607e-06
1.5521e-06
6.05529e-06
1.53056e-06
6.19618e-06
1.51729e-06
5.16431e-06
1.50747e-06
5.00362e-06
1.50015e-06
4.83919e-06
1.4947e-06
4.67321e-06
1.49065e-06
4.50745e-06
1.48768e-06
4.34311e-06
1.48552e-06
4.18101e-06
1.48398e-06
4.02169e-06
1.48291e-06
3.86557e-06
1.48218e-06
3.71296e-06
1.48172e-06
3.56415e-06
1.48144e-06
3.41934e-06
1.48131e-06
3.27868e-06
1.48128e-06
3.1423e-06
1.48132e-06
3.01026e-06
1.48141e-06
2.88262e-06
1.48154e-06
2.75937e-06
1.48168e-06
2.6405e-06
1.48183e-06
2.52599e-06
1.48199e-06
2.41576e-06
1.48215e-06
2.30975e-06
1.48231e-06
2.20788e-06
1.48246e-06
2.11005e-06
1.4826e-06
2.01616e-06