/*--------------------------------*- C++ -*----------------------------------*\
  =========                 |
  \\      /  F ield         | OpenFOAM: The Open Source CFD Toolbox
   \\    /   O peration     | Website:  https://openfoam.org
    \\  /    A nd           | Version:  9
     \\/     M anipulation  |
\*---------------------------------------------------------------------------*/
FoamFile
{
    format      ascii;
    class       volVectorField;
    location    "0.05";
    object      U;
}
// * * * * * * * * * * * * * * * * * * * * * * * * * * * * * * * * * * * * * //

dimensions      [0 1 -1 0 0 0 0];

internalField   nonuniform List<vector> 
5000
(
(0.0606059 0 -0.628137)
(0.0816461 0 -1.32356)
(-0.0824344 0 -1.13198)
(-0.0442881 0 -0.0581422)
(0.00188644 0 0.308895)
(0.0132225 0 0.531464)
(0.0358133 0 0.577581)
(0.0254637 0 -1.16943)
(-0.0103925 0 -1.66071)
(-0.0285441 0 -1.18172)
(-0.0378145 0 0.517826)
(-0.0167028 0 0.471124)
(-0.00903327 0 0.180429)
(0.0039741 0 -0.138372)
(0.00874809 0 -0.421528)
(-0.00113407 0 -0.49016)
(-0.00666415 0 -0.403007)
(-0.00512378 0 -0.317679)
(-0.00319355 0 -0.26364)
(-0.00207917 0 -0.226171)
(-0.0014723 0 -0.199068)
(-0.00112048 0 -0.179048)
(-0.000893702 0 -0.162018)
(-0.000738183 0 -0.146877)
(-0.000621434 0 -0.133091)
(-0.000527003 0 -0.120451)
(-0.000447496 0 -0.108868)
(-0.00037959 0 -0.0982815)
(-0.000321387 0 -0.0886204)
(-0.000271454 0 -0.0798095)
(-0.000228591 0 -0.0717733)
(-0.000191774 0 -0.0644403)
(-0.000160113 0 -0.0577449)
(-0.000132836 0 -0.0516284)
(-0.000109296 0 -0.0460381)
(-8.89594e-05 0 -0.0409268)
(-7.13791e-05 0 -0.0362515)
(-5.61776e-05 0 -0.0319735)
(-4.30289e-05 0 -0.0280573)
(-3.16503e-05 0 -0.0244704)
(-2.17961e-05 0 -0.0211835)
(-1.3256e-05 0 -0.0181698)
(-5.84304e-06 0 -0.0154052)
(6.07606e-07 0 -0.0128677)
(6.26023e-06 0 -0.0105369)
(1.12187e-05 0 -0.00839385)
(1.57983e-05 0 -0.00642159)
(2.00808e-05 0 -0.00460541)
(2.48908e-05 0 -0.00294263)
(3.5631e-05 0 -0.00135249)
(0.137716 0 -0.65663)
(0.0957074 0 -1.23994)
(-0.143622 0 -1.04318)
(-0.0875985 0 -0.11648)
(0.00220198 0 0.286489)
(0.0354529 0 0.520333)
(0.0863394 0 0.541043)
(0.0756908 0 -1.08105)
(-0.00180021 0 -1.68832)
(-0.0808528 0 -1.09633)
(-0.0941357 0 0.478281)
(-0.0489832 0 0.463093)
(-0.0252963 0 0.17135)
(0.00352434 0 -0.14679)
(0.0131697 0 -0.417695)
(-0.00357671 0 -0.483263)
(-0.0133938 0 -0.403316)
(-0.0114191 0 -0.32013)
(-0.0080063 0 -0.265471)
(-0.00559422 0 -0.227356)
(-0.00408177 0 -0.199921)
(-0.00313878 0 -0.179694)
(-0.00249449 0 -0.16253)
(-0.00203723 0 -0.147306)
(-0.00169174 0 -0.133467)
(-0.00141578 0 -0.120788)
(-0.00118731 0 -0.109175)
(-0.00099459 0 -0.0985613)
(-0.000830622 0 -0.0888761)
(-0.000690547 0 -0.0800435)
(-0.000570578 0 -0.0719875)
(-0.000467581 0 -0.0646365)
(-0.000378952 0 -0.0579249)
(-0.000302546 0 -0.0517935)
(-0.000236596 0 -0.0461896)
(-0.000179629 0 -0.0410657)
(-0.000130402 0 -0.0363789)
(-8.78677e-05 0 -0.0320902)
(-5.11359e-05 0 -0.028164)
(-1.94396e-05 0 -0.0245679)
(7.90828e-06 0 -0.0212724)
(3.1453e-05 0 -0.0182508)
(5.17169e-05 0 -0.0154788)
(6.91931e-05 0 -0.0129345)
(8.42789e-05 0 -0.0105974)
(9.73253e-05 0 -0.00844876)
(0.00010894 0 -0.00647239)
(0.000118881 0 -0.00465462)
(0.000128388 0 -0.00300034)
(0.000150263 0 -0.00142875)
(0.155053 0 -0.686677)
(0.0856414 0 -1.12275)
(-0.143413 0 -0.960905)
(-0.102851 0 -0.192334)
(0.00551018 0 0.239852)
(0.053365 0 0.490712)
(0.12305 0 0.493582)
(0.114044 0 -0.995507)
(0.000236841 0 -1.65328)
(-0.119015 0 -1.01099)
(-0.137525 0 0.438429)
(-0.076477 0 0.437628)
(-0.0390847 0 0.147582)
(0.000211385 0 -0.164544)
(0.0125858 0 -0.413536)
(-0.00580558 0 -0.471484)
(-0.0169427 0 -0.400448)
(-0.0153771 0 -0.322056)
(-0.011541 0 -0.267685)
(-0.00841743 0 -0.22893)
(-0.00628804 0 -0.201027)
(-0.0048892 0 -0.180477)
(-0.00389209 0 -0.163092)
(-0.00316425 0 -0.147728)
(-0.00260781 0 -0.133803)
(-0.00216323 0 -0.12107)
(-0.0017967 0 -0.109418)
(-0.00148889 0 -0.0987745)
(-0.00122784 0 -0.0890644)
(-0.00100524 0 -0.0802105)
(-0.000814727 0 -0.0721362)
(-0.000651178 0 -0.064769)
(-0.000510438 0 -0.0580432)
(-0.000389125 0 -0.0518994)
(-0.000284447 0 -0.0462844)
(-0.000194074 0 -0.0411506)
(-0.000116054 0 -0.0364549)
(-4.87554e-05 0 -0.0321581)
(9.19784e-06 0 -0.0282246)
(5.89869e-05 0 -0.024622)
(0.000101643 0 -0.0213205)
(0.000138053 0 -0.0182935)
(0.000168978 0 -0.0155167)
(0.000195057 0 -0.0129679)
(0.000216813 0 -0.0106266)
(0.000234729 0 -0.00847424)
(0.000249391 0 -0.00649533)
(0.000260633 0 -0.00467866)
(0.00026869 0 -0.00302927)
(0.000284526 0 -0.00145799)
(0.141154 0 -0.698278)
(0.0680631 0 -1.01722)
(-0.125647 0 -0.889497)
(-0.103609 0 -0.259076)
(0.0101863 0 0.182644)
(0.0667753 0 0.448415)
(0.150031 0 0.447802)
(0.146096 0 -0.918004)
(0.000232307 0 -1.59198)
(-0.15054 0 -0.926847)
(-0.170635 0 0.401735)
(-0.096238 0 0.401598)
(-0.0492044 0 0.1161)
(-0.00305146 0 -0.185227)
(0.0104291 0 -0.410248)
(-0.00761206 0 -0.459912)
(-0.0187947 0 -0.396788)
(-0.0178216 0 -0.32368)
(-0.0139917 0 -0.27013)
(-0.01051 0 -0.230901)
(-0.00799901 0 -0.202515)
(-0.00628243 0 -0.181591)
(-0.00501717 0 -0.163928)
(-0.00407067 0 -0.148377)
(-0.00333662 0 -0.134331)
(-0.00274641 0 -0.121516)
(-0.00225896 0 -0.109806)
(-0.00184954 0 -0.0991164)
(-0.00150229 0 -0.089369)
(-0.00120607 0 -0.0804833)
(-0.000952406 0 -0.0723814)
(-0.000734539 0 -0.0649903)
(-0.000546993 0 -0.0582433)
(-0.00038529 0 -0.0520806)
(-0.000245738 0 -0.0464488)
(-0.000125268 0 -0.0412999)
(-2.13059e-05 0 -0.0365903)
(6.82579e-05 0 -0.0322808)
(0.000145232 0 -0.0283357)
(0.000211197 0 -0.0247222)
(0.000267481 0 -0.0214106)
(0.000315232 0 -0.0183741)
(0.000355434 0 -0.0155882)
(0.000388899 0 -0.0130306)
(0.000416305 0 -0.0106807)
(0.000438326 0 -0.00851995)
(0.000455798 0 -0.00653339)
(0.000468506 0 -0.00471135)
(0.000476796 0 -0.00305816)
(0.000488586 0 -0.00147789)
(0.117341 0 -0.6956)
(0.0498389 0 -0.932333)
(-0.105105 0 -0.829243)
(-0.0969725 0 -0.309796)
(0.0131051 0 0.125413)
(0.0743053 0 0.401539)
(0.166414 0 0.403828)
(0.167673 0 -0.843553)
(-0.0013738 0 -1.50909)
(-0.173961 0 -0.842825)
(-0.191318 0 0.367619)
(-0.107447 0 0.360385)
(-0.0552109 0 0.0812638)
(-0.00557699 0 -0.206225)
(0.00766412 0 -0.40838)
(-0.00879045 0 -0.450203)
(-0.0192732 0 -0.393394)
(-0.0189394 0 -0.325107)
(-0.0154071 0 -0.272589)
(-0.0118511 0 -0.23307)
(-0.00915677 0 -0.204256)
(-0.00725032 0 -0.182961)
(-0.00580506 0 -0.165003)
(-0.00470002 0 -0.14924)
(-0.00383032 0 -0.135047)
(-0.00312499 0 -0.122129)
(-0.00253969 0 -0.110342)
(-0.00204664 0 -0.0995916)
(-0.00162753 0 -0.0897935)
(-0.00126933 0 -0.0808644)
(-0.000962078 0 -0.0727247)
(-0.000697821 0 -0.0653003)
(-0.000470075 0 -0.0585238)
(-0.000273521 0 -0.0523348)
(-0.00010376 0 -0.0466792)
(4.28489e-05 0 -0.0415086)
(0.000169364 0 -0.0367793)
(0.000278359 0 -0.0324516)
(0.000372009 0 -0.0284895)
(0.000452192 0 -0.0248601)
(0.000520522 0 -0.0215337)
(0.00057839 0 -0.0184831)
(0.00062699 0 -0.0156838)
(0.000667338 0 -0.0131132)
(0.000700313 0 -0.0107508)
(0.000726805 0 -0.00857801)
(0.000747937 0 -0.00658038)
(0.000763415 0 -0.00474857)
(0.000773393 0 -0.00308625)
(0.000784793 0 -0.00149349)
(0.0934483 0 -0.68642)
(0.0343271 0 -0.864618)
(-0.0866662 0 -0.78005)
(-0.0877489 0 -0.349535)
(0.0126905 0 0.0700233)
(0.0754698 0 0.35283)
(0.171405 0 0.361631)
(0.176012 0 -0.770813)
(-0.00450828 0 -1.4101)
(-0.187312 0 -0.760591)
(-0.199169 0 0.334028)
(-0.110763 0 0.316781)
(-0.0569388 0 0.0450718)
(-0.00694859 0 -0.226786)
(0.00512641 0 -0.4074)
(-0.00908784 0 -0.44195)
(-0.0185962 0 -0.39023)
(-0.0188902 0 -0.326267)
(-0.0158509 0 -0.27491)
(-0.0124505 0 -0.23527)
(-0.00974138 0 -0.206102)
(-0.00775973 0 -0.184464)
(-0.00621853 0 -0.166218)
(-0.00501594 0 -0.150237)
(-0.00405555 0 -0.135887)
(-0.00326905 0 -0.122854)
(-0.00261215 0 -0.110979)
(-0.00205626 0 -0.100158)
(-0.00158203 0 -0.0903009)
(-0.00117549 0 -0.0813207)
(-0.000825847 0 -0.0731363)
(-0.000524436 0 -0.0656723)
(-0.000264164 0 -0.0588605)
(-3.91767e-05 0 -0.0526399)
(0.000155385 0 -0.0469557)
(0.000323575 0 -0.041759)
(0.000468826 0 -0.0370057)
(0.00059404 0 -0.0326559)
(0.000701683 0 -0.0286733)
(0.000793882 0 -0.0250248)
(0.000872478 0 -0.0216804)
(0.000939063 0 -0.0186128)
(0.00099502 0 -0.0157973)
(0.00104155 0 -0.0132114)
(0.00107971 0 -0.0108345)
(0.00111059 0 -0.00864808)
(0.00113548 0 -0.006638)
(0.00115405 0 -0.00479441)
(0.00116621 0 -0.00311963)
(0.00117855 0 -0.00151124)
(0.0728426 0 -0.674086)
(0.0219133 0 -0.810319)
(-0.0725523 0 -0.740372)
(-0.0794269 0 -0.381675)
(0.00861719 0 0.0169714)
(0.0703339 0 0.303851)
(0.165956 0 0.320684)
(0.172116 0 -0.702195)
(-0.00835153 0 -1.30255)
(-0.190461 0 -0.684093)
(-0.19627 0 0.299907)
(-0.107093 0 0.272702)
(-0.0544602 0 0.00879082)
(-0.00656018 0 -0.246499)
(0.00372305 0 -0.406755)
(-0.00837853 0 -0.434648)
(-0.0170137 0 -0.387087)
(-0.0178935 0 -0.32703)
(-0.0154412 0 -0.276956)
(-0.0123559 0 -0.237361)
(-0.00976531 0 -0.207929)
(-0.007807 0 -0.185992)
(-0.00624637 0 -0.167479)
(-0.00500446 0 -0.15129)
(-0.00399797 0 -0.136785)
(-0.0031649 0 -0.123636)
(-0.00246368 0 -0.111671)
(-0.00186679 0 -0.100775)
(-0.00135516 0 -0.0908552)
(-0.000914775 0 -0.0818206)
(-0.00053469 0 -0.0735883)
(-0.000206033 0 -0.0660817)
(7.85055e-05 0 -0.0592317)
(0.000325004 0 -0.0529766)
(0.000538548 0 -0.0472611)
(0.000723426 0 -0.0420359)
(0.000883285 0 -0.0372563)
(0.00102123 0 -0.0328822)
(0.00113993 0 -0.028877)
(0.00124168 0 -0.0252074)
(0.00132848 0 -0.0218431)
(0.00140206 0 -0.0187569)
(0.00146394 0 -0.0159238)
(0.00151544 0 -0.0133211)
(0.00155777 0 -0.0109284)
(0.00159212 0 -0.00872742)
(0.00161983 0 -0.00670376)
(0.0016405 0 -0.00484673)
(0.00165405 0 -0.00315728)
(0.00166692 0 -0.00153091)
(0.0557161 0 -0.660152)
(0.0117083 0 -0.766513)
(-0.0631052 0 -0.708088)
(-0.073788 0 -0.406847)
(0.00124439 0 -0.0321751)
(0.0595337 0 0.256491)
(0.152311 0 0.281401)
(0.159209 0 -0.639679)
(-0.0117435 0 -1.19341)
(-0.184245 0 -0.616089)
(-0.184973 0 0.265312)
(-0.0970988 0 0.230115)
(-0.0481801 0 -0.0259911)
(-0.00410723 0 -0.264551)
(0.00389589 0 -0.406101)
(-0.00664089 0 -0.42811)
(-0.0146821 0 -0.383937)
(-0.016125 0 -0.327368)
(-0.0143037 0 -0.278651)
(-0.0116375 0 -0.239256)
(-0.00926489 0 -0.209656)
(-0.00741032 0 -0.187479)
(-0.00589649 0 -0.168733)
(-0.00466803 0 -0.152354)
(-0.00365729 0 -0.137704)
(-0.0028109 0 -0.124444)
(-0.00209201 0 -0.11239)
(-0.00147565 0 -0.101422)
(-0.000944181 0 -0.0914388)
(-0.000484406 0 -0.0823493)
(-8.58567e-05 0 -0.0740681)
(0.000260061 0 -0.0665178)
(0.000560512 0 -0.0596284)
(0.000821506 0 -0.0533374)
(0.00104813 0 -0.0475892)
(0.0012447 0 -0.0423339)
(0.00141495 0 -0.0375265)
(0.00156207 0 -0.0331266)
(0.00168879 0 -0.0290973)
(0.00179752 0 -0.0254051)
(0.00189032 0 -0.0220196)
(0.00196901 0 -0.0189132)
(0.00203518 0 -0.016061)
(0.00209022 0 -0.0134403)
(0.00213541 0 -0.0110305)
(0.002172 0 -0.00881355)
(0.00220131 0 -0.00677469)
(0.00222293 0 -0.00490238)
(0.00223682 0 -0.00319657)
(0.0022497 0 -0.00155113)
(0.0412241 0 -0.645719)
(0.00278202 0 -0.730667)
(-0.0576745 0 -0.68122)
(-0.0711555 0 -0.425421)
(-0.00876043 0 -0.0758699)
(0.0442811 0 0.212149)
(0.133182 0 0.24392)
(0.141427 0 -0.584164)
(-0.0134571 0 -1.08856)
(-0.170232 0 -0.557779)
(-0.166972 0 0.230968)
(-0.0817626 0 0.190453)
(-0.0387674 0 -0.0577423)
(0.000320136 0 -0.280191)
(0.00566772 0 -0.40516)
(-0.00394439 0 -0.422146)
(-0.0116757 0 -0.380764)
(-0.0136897 0 -0.327294)
(-0.0125359 0 -0.279962)
(-0.0103636 0 -0.240898)
(-0.0082847 0 -0.211228)
(-0.00659852 0 -0.188872)
(-0.0051872 0 -0.169936)
(-0.00401836 0 -0.153394)
(-0.00304105 0 -0.138615)
(-0.00221201 0 -0.125253)
(-0.00150039 0 -0.113117)
(-0.000884931 0 -0.10208)
(-0.000350392 0 -0.0920368)
(0.000114891 0 -0.0828939)
(0.000520346 0 -0.0745648)
(0.000873856 0 -0.066971)
(0.00118209 0 -0.0600419)
(0.00145074 0 -0.0537147)
(0.00168466 0 -0.0479331)
(0.00188805 0 -0.0426469)
(0.00206455 0 -0.0378109)
(0.00221732 0 -0.0333842)
(0.00234908 0 -0.0293297)
(0.00246222 0 -0.0256138)
(0.00255883 0 -0.0222059)
(0.00264073 0 -0.0190782)
(0.00270955 0 -0.0162058)
(0.00276671 0 -0.0135657)
(0.00281351 0 -0.0111377)
(0.00285123 0 -0.00890329)
(0.0028812 0 -0.00684768)
(0.00290303 0 -0.00495866)
(0.00291673 0 -0.00323557)
(0.00292955 0 -0.00157097)
(0.0285243 0 -0.631404)
(-0.00551659 0 -0.700662)
(-0.0554892 0 -0.658194)
(-0.0711899 0 -0.438242)
(-0.0205962 0 -0.113156)
(0.0263368 0 0.171061)
(0.111093 0 0.207556)
(0.12271 0 -0.53642)
(-0.0127316 0 -0.992428)
(-0.150777 0 -0.509247)
(-0.143749 0 0.197453)
(-0.062731 0 0.154544)
(-0.0270012 0 -0.0853337)
(0.00635838 0 -0.292925)
(0.00882125 0 -0.403661)
(-0.000385303 0 -0.416488)
(-0.00804563 0 -0.377483)
(-0.0106585 0 -0.326802)
(-0.0102086 0 -0.280868)
(-0.00858932 0 -0.242243)
(-0.00686553 0 -0.212597)
(-0.00540105 0 -0.190128)
(-0.00413933 0 -0.171047)
(-0.00307015 0 -0.154373)
(-0.0021597 0 -0.139486)
(-0.00137565 0 -0.126038)
(-0.000694126 0 -0.11383)
(-9.84634e-05 0 -0.10273)
(0.000423479 0 -0.0926321)
(0.000881218 0 -0.0834394)
(0.00128266 0 -0.0750649)
(0.00163459 0 -0.0674294)
(0.0019429 0 -0.060462)
(0.00221267 0 -0.0540992)
(0.00244838 0 -0.0482846)
(0.00265391 0 -0.0429676)
(0.0028327 0 -0.0381027)
(0.00298775 0 -0.0336488)
(0.00312168 0 -0.0295688)
(0.00323681 0 -0.0258286)
(0.00333517 0 -0.0223976)
(0.00341855 0 -0.0192479)
(0.00348856 0 -0.0163544)
(0.00354664 0 -0.0136942)
(0.0035941 0 -0.011247)
(0.00363224 0 -0.00899431)
(0.00366245 0 -0.00692111)
(0.00368434 0 -0.00501476)
(0.00369781 0 -0.00327424)
(0.00371095 0 -0.00159068)
(0.017023 0 -0.617422)
(-0.0135819 0 -0.674925)
(-0.0558978 0 -0.637831)
(-0.0732068 0 -0.446318)
(-0.0336945 0 -0.144283)
(0.00734632 0 0.132849)
(0.088341 0 0.171222)
(0.105877 0 -0.49726)
(-0.00946182 0 -0.907665)
(-0.128567 0 -0.470011)
(-0.117257 0 0.164999)
(-0.0420522 0 0.122794)
(-0.0137593 0 -0.108138)
(0.0135356 0 -0.302658)
(0.0130918 0 -0.401388)
(0.00392006 0 -0.410884)
(-0.00385609 0 -0.373984)
(-0.00709892 0 -0.325867)
(-0.00738184 0 -0.281343)
(-0.0063619 0 -0.243257)
(-0.00504339 0 -0.213723)
(-0.00384516 0 -0.191206)
(-0.00277319 0 -0.172029)
(-0.00183844 0 -0.155258)
(-0.00102428 0 -0.140289)
(-0.000309941 0 -0.126771)
(0.000320832 0 -0.114505)
(0.000879475 0 -0.103353)
(0.00137439 0 -0.0932075)
(0.00181249 0 -0.0839708)
(0.00219976 0 -0.0755553)
(0.00254156 0 -0.0678814)
(0.0028427 0 -0.0608781)
(0.00310749 0 -0.0544816)
(0.00333981 0 -0.0486354)
(0.00354311 0 -0.0432885)
(0.00372049 0 -0.0383955)
(0.0038747 0 -0.0339149)
(0.00400817 0 -0.0298094)
(0.00412308 0 -0.026045)
(0.00422136 0 -0.0225909)
(0.00430474 0 -0.019419)
(0.00437479 0 -0.0165042)
(0.00443293 0 -0.0138236)
(0.0044805 0 -0.011357)
(0.00451883 0 -0.0090859)
(0.00454928 0 -0.00699501)
(0.00457142 0 -0.00507131)
(0.00458476 0 -0.00331339)
(0.0045985 0 -0.00161074)
(0.00631094 0 -0.603823)
(-0.021658 0 -0.65232)
(-0.0584238 0 -0.619308)
(-0.0768092 0 -0.4505)
(-0.0473311 0 -0.170116)
(-0.0113007 0 0.0974774)
(0.0666242 0 0.133953)
(0.0921228 0 -0.467261)
(-0.00413129 0 -0.834965)
(-0.105988 0 -0.43914)
(-0.0899639 0 0.133722)
(-0.0216572 0 0.0951676)
(-4.05049e-05 0 -0.126159)
(0.0213365 0 -0.309366)
(0.0182774 0 -0.398202)
(0.00885804 0 -0.405153)
(0.000816849 0 -0.370197)
(-0.00308712 0 -0.324466)
(-0.00411673 0 -0.281362)
(-0.00372859 0 -0.243907)
(-0.00285457 0 -0.214572)
(-0.00195878 0 -0.192072)
(-0.00111007 0 -0.172851)
(-0.000339456 0 -0.156021)
(0.000352878 0 -0.140997)
(0.000975926 0 -0.127432)
(0.0015376 0 -0.115122)
(0.0020437 0 -0.103931)
(0.00249857 0 -0.0937475)
(0.00290605 0 -0.0844744)
(0.00326987 0 -0.0760238)
(0.00359369 0 -0.0683163)
(0.00388104 0 -0.0612808)
(0.00413524 0 -0.0548536)
(0.00435942 0 -0.0489781)
(0.00455648 0 -0.0436032)
(0.00472908 0 -0.0386834)
(0.00487961 0 -0.0341772)
(0.00501026 0 -0.0300472)
(0.00512301 0 -0.0262593)
(0.00521964 0 -0.0227825)
(0.00530178 0 -0.0195889)
(0.00537093 0 -0.0166532)
(0.00542852 0 -0.0139527)
(0.00547586 0 -0.0114672)
(0.00551426 0 -0.00917814)
(0.00554502 0 -0.00706986)
(0.0055676 0 -0.00512883)
(0.00558099 0 -0.00335327)
(0.00559577 0 -0.00163121)
(-0.00388604 0 -0.590577)
(-0.0298913 0 -0.632001)
(-0.0627217 0 -0.602056)
(-0.0818866 0 -0.451409)
(-0.060936 0 -0.191438)
(-0.0289263 0 0.0640782)
(0.0468534 0 0.0951431)
(0.0812993 0 -0.446301)
(0.00233291 0 -0.773591)
(-0.0847906 0 -0.415287)
(-0.064407 0 0.103687)
(-0.00302761 0 0.0710762)
(0.0134333 0 -0.139956)
(0.0294037 0 -0.313211)
(0.0240918 0 -0.394071)
(0.0142787 0 -0.399182)
(0.00587857 0 -0.366085)
(0.0013019 0 -0.322592)
(-0.000477969 0 -0.280914)
(-0.00074136 0 -0.244171)
(-0.000339671 0 -0.215119)
(0.000226207 0 -0.1927)
(0.000825125 0 -0.173486)
(0.00140753 0 -0.156637)
(0.00195674 0 -0.141589)
(0.00246997 0 -0.127999)
(0.00294684 0 -0.115666)
(0.00338704 0 -0.104449)
(0.00379046 0 -0.0942386)
(0.00415764 0 -0.084938)
(0.0044898 0 -0.0764597)
(0.00478865 0 -0.0687245)
(0.00505627 0 -0.0616617)
(0.00529486 0 -0.0552077)
(0.00550666 0 -0.049306)
(0.0056939 0 -0.0439058)
(0.00585869 0 -0.0389614)
(0.00600303 0 -0.0344314)
(0.00612877 0 -0.0302783)
(0.00623764 0 -0.026468)
(0.00633122 0 -0.0229697)
(0.00641102 0 -0.0197553)
(0.00647844 0 -0.0167997)
(0.00653485 0 -0.0140803)
(0.00658152 0 -0.0115769)
(0.00661971 0 -0.00927085)
(0.00665071 0 -0.00714593)
(0.00667396 0 -0.00518808)
(0.00668796 0 -0.0033952)
(0.00670474 0 -0.00165328)
(-0.01376 0 -0.57757)
(-0.0383884 0 -0.61332)
(-0.0685256 0 -0.58564)
(-0.0884397 0 -0.449562)
(-0.0746726 0 -0.208778)
(-0.0454631 0 0.0316443)
(0.0294618 0 0.054324)
(0.0722738 0 -0.433926)
(0.00871363 0 -0.722226)
(-0.0660416 0 -0.396923)
(-0.0424667 0 0.0749839)
(0.0131464 0 0.0498385)
(0.0262106 0 -0.150454)
(0.037406 0 -0.314719)
(0.0302994 0 -0.389089)
(0.0200423 0 -0.39293)
(0.0112318 0 -0.361617)
(0.00598751 0 -0.320242)
(0.00346499 0 -0.279995)
(0.00254296 0 -0.244038)
(0.00245573 0 -0.215344)
(0.00267309 0 -0.193071)
(0.0030028 0 -0.173915)
(0.00337865 0 -0.157088)
(0.0037681 0 -0.142047)
(0.00415682 0 -0.128459)
(0.00453611 0 -0.11612)
(0.00489935 0 -0.104893)
(0.00524182 0 -0.0946691)
(0.00556056 0 -0.0853515)
(0.00585408 0 -0.0768539)
(0.00612203 0 -0.0690979)
(0.00636485 0 -0.0620134)
(0.00658352 0 -0.0555373)
(0.00677929 0 -0.0496134)
(0.00695362 0 -0.0441911)
(0.00710802 0 -0.0392248)
(0.00724398 0 -0.0346733)
(0.007363 0 -0.0304992)
(0.0074665 0 -0.0266683)
(0.00755583 0 -0.0231499)
(0.0076323 0 -0.0199161)
(0.00769721 0 -0.0169419)
(0.00775178 0 -0.0142049)
(0.00779723 0 -0.0116849)
(0.0078348 0 -0.00936324)
(0.00786586 0 -0.0072234)
(0.00789005 0 -0.00525078)
(0.00790526 0 -0.00344209)
(0.00792481 0 -0.0016793)
(-0.0234323 0 -0.564657)
(-0.0472155 0 -0.595721)
(-0.0756661 0 -0.569655)
(-0.0964929 0 -0.44538)
(-0.0888922 0 -0.222685)
(-0.0612873 0 -0.000223161)
(0.0141192 0 0.0109045)
(0.0638905 0 -0.429373)
(0.013883 0 -0.679556)
(-0.0501806 0 -0.382745)
(-0.0248133 0 0.0476391)
(0.0266703 0 0.0305377)
(0.0379723 0 -0.158663)
(0.0452808 0 -0.314401)
(0.0367628 0 -0.383385)
(0.0260357 0 -0.386384)
(0.0167872 0 -0.356785)
(0.0108883 0 -0.317425)
(0.00764037 0 -0.27861)
(0.00606429 0 -0.243503)
(0.00548198 0 -0.215239)
(0.00534071 0 -0.193171)
(0.00538921 0 -0.174125)
(0.00554606 0 -0.157361)
(0.00576398 0 -0.142359)
(0.00601749 0 -0.128797)
(0.00628958 0 -0.116474)
(0.00656743 0 -0.105254)
(0.0068416 0 -0.0950298)
(0.00710551 0 -0.0857064)
(0.00735488 0 -0.0771986)
(0.00758718 0 -0.0694296)
(0.00780115 0 -0.0623298)
(0.00799642 0 -0.055837)
(0.00817322 0 -0.0498954)
(0.00833213 0 -0.0444548)
(0.00847402 0 -0.0394699)
(0.00859985 0 -0.0348997)
(0.00871069 0 -0.0307069)
(0.00880762 0 -0.0268576)
(0.00889173 0 -0.0233211)
(0.00896412 0 -0.0200696)
(0.0090259 0 -0.0170784)
(0.00907814 0 -0.0143251)
(0.00912196 0 -0.01179)
(0.00915859 0 -0.00945449)
(0.00918954 0 -0.00730231)
(0.00921463 0 -0.00531789)
(0.00923086 0 -0.0034951)
(0.00925276 0 -0.0017098)
(-0.032951 0 -0.55168)
(-0.0563734 0 -0.578718)
(-0.0839993 0 -0.553691)
(-0.105986 0 -0.439137)
(-0.1036 0 -0.233825)
(-0.0768528 0 -0.0319729)
(4.08188e-05 0 -0.0352932)
(0.055534 0 -0.431483)
(0.0169932 0 -0.6445)
(-0.0372791 0 -0.371969)
(-0.0112314 0 0.0211197)
(0.03779 0 0.0122536)
(0.0488063 0 -0.165194)
(0.0530387 0 -0.312616)
(0.0433759 0 -0.377059)
(0.0321662 0 -0.379539)
(0.0224642 0 -0.351585)
(0.0159274 0 -0.314152)
(0.0119777 0 -0.27677)
(0.00976152 0 -0.24257)
(0.00868735 0 -0.214801)
(0.00818525 0 -0.192994)
(0.00794745 0 -0.174106)
(0.0078788 0 -0.157445)
(0.00791832 0 -0.142516)
(0.00802994 0 -0.129006)
(0.00818862 0 -0.116719)
(0.00837544 0 -0.105524)
(0.00857626 0 -0.0953136)
(0.00878089 0 -0.0859961)
(0.0089822 0 -0.0774881)
(0.00917545 0 -0.0697142)
(0.00935763 0 -0.062606)
(0.00952698 0 -0.0561024)
(0.00968262 0 -0.0501481)
(0.00982428 0 -0.0446935)
(0.00995211 0 -0.0396937)
(0.0100665 0 -0.0351081)
(0.0101681 0 -0.0308994)
(0.0102577 0 -0.0270342)
(0.0103359 0 -0.0234817)
(0.0104038 0 -0.0202145)
(0.0104621 0 -0.017208)
(0.0105118 0 -0.0144401)
(0.0105539 0 -0.0118915)
(0.0105895 0 -0.00954411)
(0.0106201 0 -0.00738189)
(0.0106455 0 -0.00538771)
(0.0106616 0 -0.00355145)
(0.0106845 0 -0.00174244)
(-0.0422937 0 -0.538476)
(-0.0657767 0 -0.561894)
(-0.0933018 0 -0.537372)
(-0.116677 0 -0.431026)
(-0.11848 0 -0.242936)
(-0.0919359 0 -0.0643278)
(-0.0131068 0 -0.0838043)
(0.0468376 0 -0.438914)
(0.0174924 0 -0.616159)
(-0.0274752 0 -0.364255)
(-0.000812481 0 -0.00524713)
(0.0472189 0 -0.00572406)
(0.058822 0 -0.170566)
(0.0606694 0 -0.309673)
(0.0500586 0 -0.370179)
(0.0383575 0 -0.372383)
(0.0281901 0 -0.346019)
(0.021033 0 -0.310438)
(0.0164093 0 -0.274491)
(0.0135744 0 -0.241246)
(0.0120196 0 -0.214033)
(0.0111616 0 -0.192541)
(0.0106389 0 -0.173857)
(0.0103438 0 -0.157338)
(0.0102029 0 -0.142512)
(0.01017 0 -0.12908)
(0.0102125 0 -0.116852)
(0.0103055 0 -0.105698)
(0.0104303 0 -0.0955161)
(0.0105733 0 -0.0862166)
(0.0107243 0 -0.0777186)
(0.0108765 0 -0.0699483)
(0.0110252 0 -0.062839)
(0.0111671 0 -0.0563307)
(0.0113002 0 -0.0503689)
(0.0114235 0 -0.0449049)
(0.0115363 0 -0.0398942)
(0.0116386 0 -0.0352966)
(0.0117303 0 -0.0310752)
(0.011812 0 -0.0271968)
(0.011884 0 -0.0236309)
(0.0119471 0 -0.0203502)
(0.0120019 0 -0.0173305)
(0.0120491 0 -0.0145499)
(0.0120895 0 -0.0119895)
(0.0121242 0 -0.00963173)
(0.0121541 0 -0.00746048)
(0.012179 0 -0.00545676)
(0.0121939 0 -0.00360667)
(0.0122165 0 -0.00177407)
(-0.0513681 0 -0.524899)
(-0.0752408 0 -0.54491)
(-0.103193 0 -0.520424)
(-0.127999 0 -0.421305)
(-0.132768 0 -0.250752)
(-0.10561 0 -0.0977462)
(-0.0249736 0 -0.133955)
(0.0376649 0 -0.45041)
(0.0152731 0 -0.593733)
(-0.0207024 0 -0.359601)
(0.00732266 0 -0.0318681)
(0.0555188 0 -0.0241226)
(0.068171 0 -0.1753)
(0.0681951 0 -0.305833)
(0.0567646 0 -0.362796)
(0.0445483 0 -0.364906)
(0.0338991 0 -0.340088)
(0.0261387 0 -0.3063)
(0.0208713 0 -0.271788)
(0.0174445 0 -0.239547)
(0.0154272 0 -0.212945)
(0.0142247 0 -0.191816)
(0.0134243 0 -0.173381)
(0.0129073 0 -0.157039)
(0.0125884 0 -0.142349)
(0.0124124 0 -0.129019)
(0.0123392 0 -0.11687)
(0.0123384 0 -0.105775)
(0.0123871 0 -0.0956355)
(0.0124678 0 -0.0863662)
(0.0125681 0 -0.0778882)
(0.0126788 0 -0.0701302)
(0.0127934 0 -0.0630272)
(0.0129073 0 -0.0565204)
(0.0130176 0 -0.0505566)
(0.0131221 0 -0.0450879)
(0.0132195 0 -0.0400704)
(0.0133093 0 -0.0354644)
(0.013391 0 -0.0312336)
(0.0134646 0 -0.0273449)
(0.0135304 0 -0.0237683)
(0.0135887 0 -0.0204768)
(0.01364 0 -0.017446)
(0.0136848 0 -0.0146548)
(0.0137237 0 -0.0120842)
(0.0137573 0 -0.00971698)
(0.0137865 0 -0.00753667)
(0.0138106 0 -0.0055226)
(0.0138238 0 -0.00365819)
(0.013846 0 -0.00180321)
(-0.0600137 0 -0.510849)
(-0.0844743 0 -0.527539)
(-0.113107 0 -0.502752)
(-0.13904 0 -0.410426)
(-0.145298 0 -0.258081)
(-0.116614 0 -0.132377)
(-0.0349297 0 -0.184545)
(0.0280049 0 -0.464739)
(0.0107066 0 -0.576483)
(-0.0166557 0 -0.358297)
(0.0137444 0 -0.0592061)
(0.0629321 0 -0.0434168)
(0.0769501 0 -0.179782)
(0.0756355 0 -0.301291)
(0.0634606 0 -0.354934)
(0.0506849 0 -0.357091)
(0.0395309 0 -0.333791)
(0.0311821 0 -0.301754)
(0.025303 0 -0.268684)
(0.0213163 0 -0.237489)
(0.0188604 0 -0.21155)
(0.0173305 0 -0.190831)
(0.0162652 0 -0.172684)
(0.0155356 0 -0.156556)
(0.0150456 0 -0.142028)
(0.0147314 0 -0.128826)
(0.0145462 0 -0.116775)
(0.0144545 0 -0.105755)
(0.0144289 0 -0.0956728)
(0.0144491 0 -0.0864453)
(0.0144998 0 -0.0779974)
(0.0145698 0 -0.0702601)
(0.014651 0 -0.0631705)
(0.0147375 0 -0.0566715)
(0.0148252 0 -0.0507112)
(0.0149113 0 -0.0452424)
(0.0149936 0 -0.0402222)
(0.0150711 0 -0.0356116)
(0.0151429 0 -0.0313747)
(0.0152087 0 -0.0274788)
(0.0152683 0 -0.0238942)
(0.015322 0 -0.0205942)
(0.0153699 0 -0.0175549)
(0.0154123 0 -0.014755)
(0.0154496 0 -0.0121757)
(0.0154823 0 -0.00979987)
(0.0155108 0 -0.00761044)
(0.0155344 0 -0.00558552)
(0.0155467 0 -0.00370685)
(0.015569 0 -0.00183072)
(-0.0680118 0 -0.496296)
(-0.09309 0 -0.509701)
(-0.122331 0 -0.484494)
(-0.148697 0 -0.399077)
(-0.154815 0 -0.265811)
(-0.123736 0 -0.168191)
(-0.0426407 0 -0.23455)
(0.0178835 0 -0.480203)
(0.00458628 0 -0.563656)
(-0.0148155 0 -0.360687)
(0.0187684 0 -0.0877418)
(0.0694628 0 -0.0638732)
(0.085139 0 -0.184299)
(0.082951 0 -0.296199)
(0.0700921 0 -0.346602)
(0.0567074 0 -0.348915)
(0.0450234 0 -0.327124)
(0.0361015 0 -0.296814)
(0.0296458 0 -0.2652)
(0.0251364 0 -0.235094)
(0.0222721 0 -0.209866)
(0.0204372 0 -0.1896)
(0.0191247 0 -0.17178)
(0.0181962 0 -0.155897)
(0.0175459 0 -0.14156)
(0.017102 0 -0.128506)
(0.0168116 0 -0.116572)
(0.0166341 0 -0.105644)
(0.0165385 0 -0.0956314)
(0.0165015 0 -0.0864569)
(0.0165053 0 -0.0780484)
(0.0165368 0 -0.0703399)
(0.0165864 0 -0.0632707)
(0.016647 0 -0.0567855)
(0.0167134 0 -0.0508337)
(0.016782 0 -0.0453694)
(0.0168501 0 -0.0403506)
(0.016916 0 -0.0357389)
(0.0169784 0 -0.031499)
(0.0170368 0 -0.0275988)
(0.0170906 0 -0.0240089)
(0.0171398 0 -0.0207029)
(0.0171844 0 -0.017657)
(0.0172244 0 -0.0148503)
(0.0172602 0 -0.0122641)
(0.017292 0 -0.00988086)
(0.0173202 0 -0.00768314)
(0.0173439 0 -0.00564796)
(0.0173564 0 -0.0037556)
(0.0173795 0 -0.00185865)
(-0.0751042 0 -0.4813)
(-0.100638 0 -0.491494)
(-0.130092 0 -0.466027)
(-0.1559 0 -0.3881)
(-0.160371 0 -0.27474)
(-0.126576 0 -0.204835)
(-0.0478634 0 -0.282806)
(0.00782092 0 -0.495241)
(-0.0024418 0 -0.554596)
(-0.0145416 0 -0.366798)
(0.02258 0 -0.117824)
(0.0749784 0 -0.0856855)
(0.0926071 0 -0.189126)
(0.0900183 0 -0.290711)
(0.0765583 0 -0.337812)
(0.0625326 0 -0.340353)
(0.0503029 0 -0.320086)
(0.0408308 0 -0.2915)
(0.033841 0 -0.261363)
(0.0288535 0 -0.232387)
(0.0256173 0 -0.207916)
(0.0235052 0 -0.188142)
(0.0219681 0 -0.170684)
(0.0208589 0 -0.155077)
(0.0200628 0 -0.140954)
(0.0195007 0 -0.12807)
(0.0191144 0 -0.11627)
(0.0188587 0 -0.105447)
(0.0186993 0 -0.0955168)
(0.0186101 0 -0.0864056)
(0.0185711 0 -0.0780454)
(0.0185676 0 -0.0703732)
(0.0185885 0 -0.0633309)
(0.0186254 0 -0.0568649)
(0.0186725 0 -0.0509266)
(0.0187252 0 -0.045471)
(0.0187804 0 -0.0404573)
(0.0188359 0 -0.0358478)
(0.0188899 0 -0.0316079)
(0.0189416 0 -0.0277059)
(0.0189902 0 -0.0241131)
(0.0190353 0 -0.0208031)
(0.0190768 0 -0.0177527)
(0.0191147 0 -0.014941)
(0.019149 0 -0.0123495)
(0.0191801 0 -0.00996064)
(0.0192083 0 -0.00775638)
(0.0192328 0 -0.00571241)
(0.0192462 0 -0.00380707)
(0.0192704 0 -0.00188861)
(-0.0810214 0 -0.466018)
(-0.106656 0 -0.473184)
(-0.135667 0 -0.447906)
(-0.159812 0 -0.378331)
(-0.161481 0 -0.28537)
(-0.125263 0 -0.241556)
(-0.0508367 0 -0.327653)
(-0.00172325 0 -0.509161)
(-0.00954321 0 -0.548801)
(-0.0151571 0 -0.376372)
(0.025273 0 -0.149597)
(0.0793063 0 -0.108973)
(0.0991245 0 -0.194533)
(0.096608 0 -0.285013)
(0.0826921 0 -0.328594)
(0.0680395 0 -0.331395)
(0.0552754 0 -0.312684)
(0.0452948 0 -0.285838)
(0.037827 0 -0.257205)
(0.0324168 0 -0.229401)
(0.028853 0 -0.205727)
(0.0264975 0 -0.186482)
(0.0247634 0 -0.169417)
(0.0234958 0 -0.154111)
(0.0225717 0 -0.140224)
(0.0219061 0 -0.127529)
(0.0214355 0 -0.115879)
(0.0211113 0 -0.105174)
(0.0208961 0 -0.0953368)
(0.0207612 0 -0.0862982)
(0.0206849 0 -0.0779942)
(0.0206508 0 -0.0703651)
(0.0206466 0 -0.0633554)
(0.0206632 0 -0.0569138)
(0.0206936 0 -0.0509933)
(0.0207327 0 -0.0455503)
(0.020777 0 -0.040545)
(0.0208236 0 -0.0359406)
(0.0208706 0 -0.0317033)
(0.0209167 0 -0.0278019)
(0.0209609 0 -0.0242081)
(0.0210027 0 -0.020896)
(0.0210417 0 -0.0178426)
(0.0210778 0 -0.0150275)
(0.0211111 0 -0.0124324)
(0.0211417 0 -0.0100399)
(0.0211701 0 -0.00783106)
(0.0211954 0 -0.00577982)
(0.02121 0 -0.00386195)
(0.0212349 0 -0.00192089)
(-0.0855155 0 -0.450706)
(-0.110737 0 -0.455174)
(-0.138487 0 -0.430765)
(-0.159944 0 -0.370444)
(-0.158171 0 -0.297809)
(-0.120388 0 -0.277425)
(-0.0520274 0 -0.367938)
(-0.0102594 0 -0.521546)
(-0.0159002 0 -0.545809)
(-0.0160552 0 -0.38894)
(0.0269016 0 -0.182831)
(0.0822194 0 -0.133707)
(0.104333 0 -0.200768)
(0.102364 0 -0.279326)
(0.088239 0 -0.31903)
(0.0730563 0 -0.322066)
(0.0598213 0 -0.304947)
(0.0494067 0 -0.279867)
(0.0415383 0 -0.252768)
(0.035775 0 -0.226172)
(0.0319377 0 -0.203334)
(0.0293792 0 -0.184649)
(0.0274809 0 -0.168003)
(0.0260811 0 -0.153021)
(0.0250505 0 -0.13939)
(0.0242985 0 -0.126898)
(0.0237579 0 -0.115411)
(0.0233767 0 -0.104836)
(0.0231151 0 -0.095101)
(0.0229423 0 -0.0861429)
(0.0228353 0 -0.077902)
(0.0227761 0 -0.0703219)
(0.0227516 0 -0.0633499)
(0.0227516 0 -0.0569371)
(0.0227687 0 -0.0510382)
(0.0227971 0 -0.0456111)
(0.0228328 0 -0.0406171)
(0.0228726 0 -0.0360204)
(0.0229143 0 -0.0317879)
(0.0229563 0 -0.0278891)
(0.0229975 0 -0.024296)
(0.023037 0 -0.0209833)
(0.0230745 0 -0.0179284)
(0.0231097 0 -0.0151112)
(0.0231425 0 -0.0125139)
(0.0231731 0 -0.0101192)
(0.0232018 0 -0.00790718)
(0.0232277 0 -0.00584953)
(0.0232432 0 -0.00391916)
(0.0232681 0 -0.00195466)
(-0.0883961 0 -0.435688)
(-0.112592 0 -0.437946)
(-0.138231 0 -0.415214)
(-0.156204 0 -0.364865)
(-0.150899 0 -0.311801)
(-0.112777 0 -0.311495)
(-0.0518123 0 -0.403088)
(-0.0172996 0 -0.532241)
(-0.0209281 0 -0.545188)
(-0.0167772 0 -0.403839)
(0.0274966 0 -0.21697)
(0.0834142 0 -0.159682)
(0.10775 0 -0.208022)
(0.106804 0 -0.27391)
(0.0928515 0 -0.309272)