/*--------------------------------*- C++ -*----------------------------------*\
  =========                 |
  \\      /  F ield         | OpenFOAM: The Open Source CFD Toolbox
   \\    /   O peration     | Website:  https://openfoam.org
    \\  /    A nd           | Version:  9
     \\/     M anipulation  |
\*---------------------------------------------------------------------------*/
FoamFile
{
    format      ascii;
    class       volVectorField;
    location    "0.16";
    object      U;
}
// * * * * * * * * * * * * * * * * * * * * * * * * * * * * * * * * * * * * * //

dimensions      [0 1 -1 0 0 0 0];

internalField   nonuniform List<vector> 
5000
(
(0.000520839 0 -0.25925)
(0.000418866 0 -0.275208)
(0.00022397 0 -0.285593)
(-6.26159e-06 0 -0.288389)
(-0.000194856 0 -0.284114)
(-0.000302156 0 -0.275198)
(-0.000341375 0 -0.264243)
(-0.000348756 0 -0.252516)
(-0.000345747 0 -0.23971)
(-0.000311914 0 -0.224766)
(-0.000177603 0 -0.207624)
(0.00023658 0 -0.191928)
(0.00133559 0 -0.191031)
(0.00418699 0 -0.241986)
(0.00921961 0 -0.413846)
(0.00421905 0 -0.660322)
(-0.0085365 0 -0.586638)
(-0.00810037 0 -0.310197)
(-0.0031239 0 -0.156582)
(-0.00113196 0 -0.102313)
(-0.000502847 0 -0.0856061)
(-0.000284724 0 -0.0790187)
(-0.000192608 0 -0.0734888)
(-0.000147018 0 -0.0673552)
(-0.000118098 0 -0.0606338)
(-9.57517e-05 0 -0.0536697)
(-7.67311e-05 0 -0.0467613)
(-6.00249e-05 0 -0.0401044)
(-4.53019e-05 0 -0.0338146)
(-3.24138e-05 0 -0.0279561)
(-2.12537e-05 0 -0.0225623)
(-1.17099e-05 0 -0.0176482)
(-3.65413e-06 0 -0.0132183)
(3.00903e-06 0 -0.00927048)
(8.40036e-06 0 -0.00579888)
(1.26701e-05 0 -0.00279547)
(1.60213e-05 0 -0.000250751)
(1.85462e-05 0 0.00184656)
(2.0323e-05 0 0.00350829)
(2.15712e-05 0 0.00475079)
(2.24451e-05 0 0.00559387)
(2.30751e-05 0 0.00606142)
(2.35747e-05 0 0.00618223)
(2.40246e-05 0 0.00599086)
(2.44636e-05 0 0.00552794)
(2.48987e-05 0 0.00483947)
(2.53036e-05 0 0.0039744)
(2.56366e-05 0 0.00298157)
(2.51743e-05 0 0.00191611)
(2.07184e-05 0 0.00084496)
(0.00130613 0 -0.25956)
(0.00104433 0 -0.275472)
(0.000577742 0 -0.285832)
(3.38419e-05 0 -0.288649)
(-0.000419762 0 -0.284426)
(-0.000690584 0 -0.275558)
(-0.000794177 0 -0.264615)
(-0.000792457 0 -0.25287)
(-0.000713282 0 -0.240038)
(-0.000491029 0 -0.225101)
(7.55224e-05 0 -0.208062)
(0.0014112 0 -0.192658)
(0.00422079 0 -0.192612)
(0.00994775 0 -0.245245)
(0.018896 0 -0.416299)
(0.00813598 0 -0.65134)
(-0.0170865 0 -0.582381)
(-0.0175169 0 -0.314735)
(-0.00825658 0 -0.159395)
(-0.00388971 0 -0.10335)
(-0.00206123 0 -0.0860224)
(-0.00124912 0 -0.0792357)
(-0.000830669 0 -0.0736417)
(-0.000594501 0 -0.0674913)
(-0.000442836 0 -0.060767)
(-0.000334138 0 -0.0538024)
(-0.000250053 0 -0.0468925)
(-0.000181943 0 -0.0402325)
(-0.000125396 0 -0.0339382)
(-7.79085e-05 0 -0.0280743)
(-3.78921e-05 0 -0.0226744)
(-4.24415e-06 0 -0.0177537)
(2.38914e-05 0 -0.013317)
(4.71946e-05 0 -0.00936209)
(6.61989e-05 0 -0.00588325)
(8.1362e-05 0 -0.00287238)
(9.46205e-05 0 -0.000320126)
(0.000105323 0 0.00178348)
(0.000112804 0 0.00345155)
(0.000118847 0 0.00470034)
(0.000123779 0 0.00554952)
(0.000127849 0 0.00602292)
(0.000131303 0 0.00614937)
(0.000134294 0 0.00596351)
(0.000136869 0 0.00550605)
(0.000139004 0 0.00482299)
(0.000140676 0 0.00396333)
(0.000141857 0 0.00297695)
(0.000141286 0 0.00192527)
(0.000132038 0 0.000885426)
(0.00190396 0 -0.259367)
(0.00152142 0 -0.275087)
(0.000866441 0 -0.285316)
(0.000109286 0 -0.288135)
(-0.000528425 0 -0.284031)
(-0.000917872 0 -0.275319)
(-0.00106485 0 -0.264501)
(-0.00103361 0 -0.252842)
(-0.000842701 0 -0.240116)
(-0.000391676 0 -0.225402)
(0.000609861 0 -0.20883)
(0.00269894 0 -0.194369)
(0.00662845 0 -0.196131)
(0.0135823 0 -0.250897)
(0.0236397 0 -0.417706)
(0.00983726 0 -0.633456)
(-0.0210445 0 -0.570984)
(-0.022812 0 -0.319595)
(-0.0120586 0 -0.164535)
(-0.00644306 0 -0.105981)
(-0.00370019 0 -0.0873084)
(-0.00234069 0 -0.079911)
(-0.00157479 0 -0.0740209)
(-0.00111281 0 -0.0677252)
(-0.000807715 0 -0.0609266)
(-0.000589715 0 -0.0539209)
(-0.000424122 0 -0.046986)
(-0.000292911 0 -0.0403091)
(-0.000186119 0 -0.0340025)
(-9.7821e-05 0 -0.0281287)
(-2.42119e-05 0 -0.0227205)
(3.72498e-05 0 -0.0177926)
(8.85239e-05 0 -0.0133494)
(0.000131196 0 -0.00938865)
(0.000166526 0 -0.00590446)
(0.000195441 0 -0.00288873)
(0.000218537 0 -0.000332062)
(0.000237167 0 0.00177447)
(0.000252626 0 0.00344501)
(0.000265228 0 0.00469563)
(0.000275437 0 0.00554591)
(0.000283837 0 0.00601976)
(0.000290874 0 0.00614618)
(0.00029683 0 0.00596001)
(0.000301845 0 0.00550222)
(0.000305952 0 0.00481897)
(0.000309205 0 0.00395953)
(0.000311614 0 0.00297537)
(0.000312575 0 0.00193245)
(0.000306214 0 0.000906611)
(0.00237191 0 -0.259018)
(0.00189659 0 -0.274497)
(0.00110553 0 -0.284566)
(0.000197834 0 -0.287392)
(-0.000569772 0 -0.28344)
(-0.00104206 0 -0.274935)
(-0.00121252 0 -0.264301)
(-0.00114085 0 -0.252795)
(-0.000835827 0 -0.24026)
(-0.000170987 0 -0.225898)
(0.00117969 0 -0.20998)
(0.0037936 0 -0.196713)
(0.0084563 0 -0.200432)
(0.0159511 0 -0.256781)
(0.0259504 0 -0.417437)
(0.010469 0 -0.613983)
(-0.0228779 0 -0.55775)
(-0.025926 0 -0.323665)
(-0.0147921 0 -0.170421)
(-0.00848046 0 -0.109454)
(-0.0051042 0 -0.0891947)
(-0.00333818 0 -0.080994)
(-0.00228305 0 -0.0746733)
(-0.00161312 0 -0.0681458)
(-0.00115641 0 -0.0612184)
(-0.000825349 0 -0.0541372)
(-0.000573158 0 -0.0471547)
(-0.000373997 0 -0.0404457)
(-0.000212803 0 -0.0341157)
(-8.01435e-05 0 -0.0282239)
(2.98822e-05 0 -0.022801)
(0.000121457 0 -0.0178609)
(0.000197927 0 -0.013407)
(0.000261599 0 -0.00943687)
(0.000314415 0 -0.00594447)
(0.000358047 0 -0.00292177)
(0.000393013 0 -0.000359361)
(0.000421495 0 0.00175302)
(0.00044545 0 0.00342827)
(0.000464931 0 0.00468241)
(0.000480807 0 0.00553519)
(0.000493874 0 0.00601071)
(0.000504719 0 0.00613816)
(0.000513753 0 0.00595269)
(0.000521235 0 0.00549552)
(0.000527301 0 0.00481299)
(0.000532045 0 0.00395462)
(0.000535486 0 0.00297315)
(0.000537532 0 0.00193662)
(0.000534943 0 0.000917115)
(0.0027276 0 -0.258758)
(0.00218347 0 -0.273993)
(0.00129916 0 -0.283904)
(0.000291666 0 -0.286739)
(-0.000561456 0 -0.282945)
(-0.00108682 0 -0.274661)
(-0.00126545 0 -0.264232)
(-0.00114892 0 -0.252909)
(-0.000738426 0 -0.240603)
(0.000109317 0 -0.226637)
(0.00172606 0 -0.211419)
(0.00468865 0 -0.199335)
(0.00980284 0 -0.204836)
(0.0173823 0 -0.262248)
(0.0265654 0 -0.416326)
(0.0103648 0 -0.595851)
(-0.0232493 0 -0.544873)
(-0.0274336 0 -0.326751)
(-0.0166745 0 -0.176127)
(-0.0100385 0 -0.113134)
(-0.00623739 0 -0.091358)
(-0.00418073 0 -0.0823362)
(-0.0028962 0 -0.0755452)
(-0.00204801 0 -0.0687477)
(-0.00145337 0 -0.0616609)
(-0.00101446 0 -0.0544806)
(-0.000676774 0 -0.0474328)
(-0.000408896 0 -0.0406778)
(-0.000191778 0 -0.0343135)
(-1.31493e-05 0 -0.0283946)
(0.000134961 0 -0.0229496)
(0.000258332 0 -0.0179906)
(0.000361416 0 -0.0135203)
(0.000447338 0 -0.00953559)
(0.000518709 0 -0.0060302)
(0.000577873 0 -0.00299594)
(0.000626523 0 -0.000423521)
(0.000666545 0 0.00169795)
(0.000699522 0 0.00338097)
(0.000726464 0 0.00464169)
(0.000748588 0 0.00549998)
(0.000766833 0 0.00598005)
(0.000781926 0 0.00611135)
(0.000794403 0 0.00592929)
(0.000804626 0 0.00547538)
(0.000812825 0 0.00479612)
(0.000819164 0 0.00394121)
(0.00082366 0 0.00296405)
(0.000826692 0 0.00193357)
(0.00082648 0 0.000918658)
(0.00298268 0 -0.258538)
(0.00239094 0 -0.273527)
(0.00144934 0 -0.283282)
(0.000384062 0 -0.28613)
(-0.000517597 0 -0.282502)
(-0.00107127 0 -0.274451)
(-0.00124642 0 -0.264247)
(-0.00108406 0 -0.253135)
(-0.000579881 0 -0.241088)
(0.000418157 0 -0.227544)
(0.0022347 0 -0.213044)
(0.00541273 0 -0.202104)
(0.0107406 0 -0.209213)
(0.018067 0 -0.267253)
(0.0260166 0 -0.414562)
(0.00978914 0 -0.578785)
(-0.0226419 0 -0.532373)
(-0.0277349 0 -0.329059)
(-0.017835 0 -0.181582)
(-0.011164 0 -0.116897)
(-0.00711154 0 -0.0936922)
(-0.00485315 0 -0.083859)
(-0.00338777 0 -0.0765846)
(-0.00238981 0 -0.0694976)
(-0.00167346 0 -0.0622318)
(-0.0011354 0 -0.0549352)
(-0.000716596 0 -0.0478073)
(-0.000381939 0 -0.0409942)
(-0.000109445 0 -0.0345853)
(0.000115267 0 -0.0286309)
(0.00030202 0 -0.0231564)
(0.000458002 0 -0.0181722)
(0.000588525 0 -0.0136798)
(0.00069763 0 -0.00967549)
(0.000788612 0 -0.00615253)
(0.000864276 0 -0.00310247)
(0.000927089 0 -0.00051602)
(0.000979067 0 0.00161756)
(0.00102187 0 0.00331123)
(0.0010571 0 0.0045813)
(0.00108613 0 0.00544768)
(0.00111007 0 0.00593474)
(0.00112981 0 0.00607217)
(0.00114601 0 0.00589568)
(0.00115915 0 0.00544705)
(0.00116954 0 0.00477297)
(0.00117741 0 0.00392327)
(0.00118283 0 0.00295162)
(0.00118653 0 0.00192699)
(0.00118718 0 0.000916923)
(0.00315232 0 -0.258289)
(0.00253082 0 -0.273026)
(0.00155961 0 -0.282624)
(0.00046792 0 -0.285488)
(-0.000454188 0 -0.282032)
(-0.00101666 0 -0.274229)
(-0.00117952 0 -0.264272)
(-0.000972906 0 -0.253398)
(-0.000388199 0 -0.241641)
(0.000726868 0 -0.228545)
(0.00268205 0 -0.214774)
(0.0059657 0 -0.204955)
(0.0113249 0 -0.213515)
(0.0182283 0 -0.271787)
(0.0248602 0 -0.412202)
(0.00901549 0 -0.56247)
(-0.021534 0 -0.520097)
(-0.0272833 0 -0.330642)
(-0.0184203 0 -0.186758)
(-0.011887 0 -0.120705)
(-0.00772172 0 -0.0961533)
(-0.00533728 0 -0.0855172)
(-0.00373654 0 -0.0777511)
(-0.00261759 0 -0.0703619)
(-0.0017972 0 -0.0629033)
(-0.00117078 0 -0.0554772)
(-0.000677416 0 -0.0482579)
(-0.000279846 0 -0.0413767)
(4.57482e-05 0 -0.0349149)
(0.000315362 0 -0.0289178)
(0.000540302 0 -0.0234076)
(0.000728766 0 -0.0183928)
(0.000886897 0 -0.0138737)
(0.00101953 0 -0.00984572)
(0.00113058 0 -0.0063016)
(0.00122327 0 -0.00323264)
(0.00130049 0 -0.000629392)
(0.00136466 0 0.00151897)
(0.0014178 0 0.00322574)
(0.00146173 0 0.0045073)
(0.001498 0 0.0053837)
(0.00152789 0 0.00587951)
(0.00155245 0 0.0060247)
(0.00157248 0 0.0058553)
(0.00158853 0 0.0054134)
(0.00160102 0 0.00474593)
(0.00161026 0 0.00390286)
(0.00161636 0 0.00293786)
(0.00162038 0 0.0019195)
(0.00162104 0 0.00091434)
(0.00325061 0 -0.258003)
(0.00261356 0 -0.272486)
(0.00163263 0 -0.281928)
(0.000537235 0 -0.28481)
(-0.000385276 0 -0.281532)
(-0.000942677 0 -0.273988)
(-0.00108682 0 -0.264295)
(-0.000839378 0 -0.253681)
(-0.00018898 0 -0.242236)
(0.00101054 0 -0.229604)
(0.00305052 0 -0.216562)
(0.00635837 0 -0.207818)
(0.0116324 0 -0.217656)
(0.0180697 0 -0.275798)
(0.0234805 0 -0.409369)
(0.00821995 0 -0.547025)
(-0.0202349 0 -0.508218)
(-0.0264211 0 -0.331588)
(-0.0185764 0 -0.191582)
(-0.0122546 0 -0.124482)
(-0.00807172 0 -0.0986852)
(-0.00562129 0 -0.0872697)
(-0.00392706 0 -0.0790149)
(-0.00271569 0 -0.0713184)
(-0.00180983 0 -0.0636589)
(-0.00110719 0 -0.0560949)
(-0.000547243 0 -0.0487757)
(-9.2031e-05 0 -0.041819)
(0.000283227 0 -0.0352977)
(0.000595607 0 -0.029252)
(0.000857376 0 -0.0237009)
(0.00107748 0 -0.018651)
(0.00126278 0 -0.0141011)
(0.00141874 0 -0.0100458)
(0.00154979 0 -0.00647732)
(0.00165959 0 -0.0033866)
(0.00175139 0 -0.000763969)
(0.00182795 0 0.00140168)
(0.00189158 0 0.00312383)
(0.00194433 0 0.00441899)
(0.00198793 0 0.00530736)
(0.00202383 0 0.00581376)
(0.00205323 0 0.00596846)
(0.00207704 0 0.00580783)
(0.00209593 0 0.00537432)
(0.0021104 0 0.00471515)
(0.00212083 0 0.00388041)
(0.00212741 0 0.00292354)
(0.00213154 0 0.00191227)
(0.00213192 0 0.000912109)
(0.00328656 0 -0.257704)
(0.00264576 0 -0.271936)
(0.00167026 0 -0.281226)
(0.000587493 0 -0.284129)
(-0.000320898 0 -0.281032)
(-0.000862919 0 -0.273751)
(-0.000984202 0 -0.264333)
(-0.000700156 0 -0.253991)
(1.62894e-06 0 -0.24287)
(0.00125761 0 -0.230704)
(0.00333996 0 -0.218367)
(0.00661769 0 -0.210633)
(0.0117369 0 -0.221573)
(0.0177164 0 -0.279301)
(0.0220577 0 -0.406251)
(0.00748373 0 -0.532615)
(-0.0188699 0 -0.496935)
(-0.0253258 0 -0.332023)
(-0.0184143 0 -0.196019)
(-0.0123301 0 -0.128157)
(-0.00818715 0 -0.10123)
(-0.00571093 0 -0.0890757)
(-0.00395599 0 -0.0803484)
(-0.00267663 0 -0.0723487)
(-0.00170241 0 -0.0644866)
(-0.000935569 0 -0.0567803)
(-0.000317355 0 -0.0493564)
(0.000189664 0 -0.042319)
(0.000610541 0 -0.0357331)
(0.000962983 0 -0.029634)
(0.00125966 0 -0.0240376)
(0.00151011 0 -0.0189485)
(0.00172173 0 -0.0143641)
(0.00190046 0 -0.0102781)
(0.00205114 0 -0.00668208)
(0.00217785 0 -0.00356669)
(0.00228416 0 -0.000921949)
(0.00237309 0 0.00126352)
(0.00244721 0 0.00300343)
(0.00250878 0 0.00431443)
(0.0025597 0 0.00521693)
(0.0026016 0 0.00573599)
(0.0026358 0 0.00590219)
(0.00266336 0 0.00575229)
(0.00268506 0 0.00532908)
(0.00270148 0 0.00468014)
(0.0027131 0 0.00385564)
(0.00272021 0 0.0029085)
(0.00272453 0 0.00190529)
(0.00272474 0 0.000910268)
(0.00326483 0 -0.257409)
(0.00263046 0 -0.271396)
(0.00167275 0 -0.280542)
(0.000615195 0 -0.283469)
(-0.000267848 0 -0.280552)
(-0.000786488 0 -0.273535)
(-0.000882114 0 -0.264394)
(-0.000565459 0 -0.254331)
(0.000175755 0 -0.243537)
(0.00146684 0 -0.231828)
(0.00356136 0 -0.220164)
(0.00677537 0 -0.213366)
(0.0116978 0 -0.22525)
(0.0172399 0 -0.282354)
(0.0206616 0 -0.402983)
(0.00683005 0 -0.51926)
(-0.0174839 0 -0.486318)
(-0.0240784 0 -0.332064)
(-0.018006 0 -0.200089)
(-0.0121692 0 -0.131705)
(-0.00809959 0 -0.103754)
(-0.00562178 0 -0.0909059)
(-0.0038289 0 -0.0817288)
(-0.00249988 0 -0.0734359)
(-0.0014712 0 -0.0653743)
(-0.00065061 0 -0.0575253)
(1.80843e-05 0 -0.0499942)
(0.000571325 0 -0.0428728)
(0.00103388 0 -0.0362187)
(0.00142343 0 -0.0300624)
(0.0017529 0 -0.0244171)
(0.00203218 0 -0.0192852)
(0.00226905 0 -0.0146629)
(0.00246977 0 -0.010543)
(0.00263954 0 -0.00691643)
(0.0027828 0 -0.0037735)
(0.00290335 0 -0.00110393)
(0.00300447 0 0.00110395)
(0.00308896 0 0.00286404)
(0.00315924 0 0.00419321)
(0.00321742 0 0.00511206)
(0.00326527 0 0.00564591)
(0.00330425 0 0.00582567)
(0.00333555 0 0.00568846)
(0.00336008 0 0.00527747)
(0.00337853 0 0.0046406)
(0.00339149 0 0.00382803)
(0.00339939 0 0.00289202)
(0.00340416 0 0.00189778)
(0.0034045 0 0.000908338)
(0.0031882 0 -0.257121)
(0.002569 0 -0.270871)
(0.00163926 0 -0.279879)
(0.000617073 0 -0.282832)
(-0.000231556 0 -0.280095)
(-0.000720365 0 -0.27334)
(-0.000788048 0 -0.264479)
(-0.000441725 0 -0.254697)
(0.000330155 0 -0.244227)
(0.00164129 0 -0.232962)
(0.00372763 0 -0.221936)
(0.00685914 0 -0.216003)
(0.0115635 0 -0.228697)
(0.016694 0 -0.285015)
(0.0193299 0 -0.399641)
(0.00626174 0 -0.506893)
(-0.0161065 0 -0.476356)
(-0.0227297 0 -0.331797)
(-0.0174025 0 -0.203827)
(-0.0118135 0 -0.135124)
(-0.00783497 0 -0.106244)
(-0.00536945 0 -0.0927438)
(-0.00355393 0 -0.0831402)
(-0.00218827 0 -0.074566)
(-0.00111568 0 -0.0663106)
(-0.000249735 0 -0.0583207)
(0.000462977 0 -0.0506819)
(0.00105755 0 -0.0434747)
(0.00155809 0 -0.0367499)
(0.00198199 0 -0.0305337)
(0.00234221 0 -0.0248366)
(0.00264881 0 -0.0196589)
(0.00290979 0 -0.0149958)
(0.00313166 0 -0.0108391)
(0.00331993 0 -0.00717919)
(0.00347927 0 -0.00400606)
(0.00361373 0 -0.00130909)
(0.0037268 0 0.000923655)
(0.00382145 0 0.0027063)
(0.00390032 0 0.00405588)
(0.00396564 0 0.00499321)
(0.00401936 0 0.00554389)
(0.00406308 0 0.00573914)
(0.0040981 0 0.00561647)
(0.00412548 0 0.00521943)
(0.00414604 0 0.00459622)
(0.00416049 0 0.00379697)
(0.00416941 0 0.00287322)
(0.00417487 0 0.00188887)
(0.00417558 0 0.000905801)
(0.00305895 0 -0.256842)
(0.00246215 0 -0.270364)
(0.00156857 0 -0.279241)
(0.00058996 0 -0.282223)
(-0.000216868 0 -0.279661)
(-0.000670412 0 -0.273166)
(-0.000707845 0 -0.264582)
(-0.00033345 0 -0.255081)
(0.000463318 0 -0.244931)
(0.0017848 0 -0.234093)
(0.00385067 0 -0.223671)
(0.00689271 0 -0.218539)
(0.0113754 0 -0.231926)
(0.0161255 0 -0.287329)
(0.0180925 0 -0.396274)
(0.00577882 0 -0.49544)
(-0.0147638 0 -0.467027)
(-0.0213209 0 -0.331291)
(-0.0166438 0 -0.207268)
(-0.0112935 0 -0.138417)
(-0.00741289 0 -0.108693)
(-0.00496694 0 -0.0945803)
(-0.00313893 0 -0.0845722)
(-0.00174562 0 -0.0757292)
(-0.000636849 0 -0.0672864)
(0.000268039 0 -0.0591587)
(0.00101968 0 -0.0514131)
(0.0016516 0 -0.0441195)
(0.00218701 0 -0.0373225)
(0.00264289 0 -0.0310445)
(0.00303206 0 -0.0252931)
(0.00336462 0 -0.0200673)
(0.00364868 0 -0.0153608)
(0.00389096 0 -0.0111647)
(0.00409714 0 -0.00746906)
(0.00427214 0 -0.0042633)
(0.0044202 0 -0.00153656)
(0.00454496 0 0.000723365)
(0.0046496 0 0.00253077)
(0.00473689 0 0.00390289)
(0.00480924 0 0.00486074)
(0.00486873 0 0.0054302)
(0.0049171 0 0.0056428)
(0.00495579 0 0.0055364)
(0.00498598 0 0.00515494)
(0.00500862 0 0.00454682)
(0.00502459 0 0.00376208)
(0.00503456 0 0.00285162)
(0.00504073 0 0.00187815)
(0.00504186 0 0.000902453)
(0.00287922 0 -0.256575)
(0.0023107 0 -0.269878)
(0.00145973 0 -0.278631)
(0.000531141 0 -0.281642)
(-0.000227914 0 -0.279254)
(-0.000641473 0 -0.273013)
(-0.000646135 0 -0.264705)
(-0.00024397 0 -0.25548)
(0.00057457 0 -0.245643)
(0.00190137 0 -0.235218)
(0.00394145 0 -0.225366)
(0.0068962 0 -0.220975)
(0.0111668 0 -0.234949)
(0.0155708 0 -0.289338)
(0.0169724 0 -0.39292)
(0.00538419 0 -0.484841)
(-0.0134713 0 -0.458317)
(-0.0198842 0 -0.33061)
(-0.015762 0 -0.210442)
(-0.0106341 0 -0.141589)
(-0.0068498 0 -0.1111)
(-0.00442583 0 -0.0964102)
(-0.00259137 0 -0.0860185)
(-0.0011762 0 -0.076919)
(-3.66027e-05 0 -0.068296)
(0.000902623 0 -0.0600341)
(0.00168943 0 -0.0521832)
(0.00235566 0 -0.0448034)
(0.00292356 0 -0.0379334)
(0.00340955 0 -0.0315921)
(0.00382625 0 -0.0257848)
(0.00418368 0 -0.0205087)
(0.00449002 0 -0.0157567)
(0.00475211 0 -0.011519)
(0.00497579 0 -0.00778526)
(0.00516613 0 -0.0045446)
(0.00532753 0 -0.00178586)
(0.0054638 0 0.000503416)
(0.00557827 0 0.00233771)
(0.00567386 0 0.00373443)
(0.00575314 0 0.00471481)
(0.0058183 0 0.00530497)
(0.00587122 0 0.00553679)
(0.00591347 0 0.00544846)
(0.00594634 0 0.00508421)
(0.00597092 0 0.00449264)
(0.00598823 0 0.00372364)
(0.0059991 0 0.0028275)
(0.00600579 0 0.00186589)
(0.00600726 0 0.000898468)
(0.00265092 0 -0.256323)
(0.0021155 0 -0.269416)
(0.00131218 0 -0.278053)
(0.000438585 0 -0.281096)
(-0.000267888 0 -0.278878)
(-0.000637265 0 -0.272886)
(-0.000606352 0 -0.264848)
(-0.000175494 0 -0.255895)
(0.000664079 0 -0.246364)
(0.00199507 0 -0.236335)
(0.00400954 0 -0.227023)
(0.00688501 0 -0.223317)
(0.0109604 0 -0.237785)
(0.0150529 0 -0.29108)
(0.0159827 0 -0.389609)
(0.00508323 0 -0.475033)
(-0.0122309 0 -0.450202)
(-0.0184406 0 -0.329812)
(-0.0147826 0 -0.213383)
(-0.00985567 0 -0.144649)
(-0.00616041 0 -0.113464)
(-0.00375707 0 -0.0982314)
(-0.00191868 0 -0.0874755)
(-0.000484675 0 -0.0781314)
(0.000682523 0 -0.0693355)
(0.00165315 0 -0.0609436)
(0.00247263 0 -0.0529894)
(0.00317112 0 -0.0455239)
(0.00376985 0 -0.0385806)
(0.00428467 0 -0.032175)
(0.00472791 0 -0.0263102)
(0.00510949 0 -0.0209822)
(0.00543759 0 -0.0161826)
(0.00571912 0 -0.0119013)
(0.00596004 0 -0.00812737)
(0.00616554 0 -0.00484969)
(0.00634015 0 -0.0020568)
(0.00648782 0 0.00026394)
(0.00661203 0 0.00212722)
(0.00671585 0 0.00355059)
(0.00680196 0 0.00455552)
(0.0068727 0 0.00516839)
(0.00693006 0 0.00542139)
(0.00697572 0 0.00535301)
(0.00701109 0 0.00500777)
(0.00703739 0 0.00443432)
(0.00705579 0 0.00368238)
(0.00706727 0 0.00280165)
(0.00707418 0 0.00185276)
(0.00707585 0 0.00089424)
(0.0023755 0 -0.25609)
(0.00187728 0 -0.268983)
(0.00112566 0 -0.277511)
(0.00031098 0 -0.280588)
(-0.000338964 0 -0.278536)
(-0.000660373 0 -0.272787)
(-0.000590782 0 -0.265013)
(-0.000129197 0 -0.256328)
(0.000732663 0 -0.247093)
(0.00206966 0 -0.237444)
(0.00406224 0 -0.228645)
(0.00686913 0 -0.225576)
(0.0107688 0 -0.240453)
(0.0145836 0 -0.292594)
(0.0151284 0 -0.386365)
(0.0048815 0 -0.465949)
(-0.0110339 0 -0.442653)
(-0.0170005 0 -0.328946)
(-0.0137246 0 -0.216127)
(-0.00897502 0 -0.147611)
(-0.00535768 0 -0.115792)
(-0.00297073 0 -0.100045)
(-0.00112804 0 -0.0889421)
(0.000324163 0 -0.0793648)
(0.00151765 0 -0.0704031)
(0.00251826 0 -0.0618852)
(0.00336911 0 -0.0538299)
(0.00409873 0 -0.0462796)
(0.00472737 0 -0.0392628)
(0.00527032 0 -0.032792)
(0.00573959 0 -0.0268686)
(0.00614497 0 -0.021487)
(0.00649461 0 -0.0166382)
(0.00679545 0 -0.0123113)
(0.00705354 0 -0.00849516)
(0.00727416 0 -0.0051784)
(0.00746196 0 -0.0023493)
(0.00762102 0 4.99553e-06)
(0.00775496 0 0.00189934)
(0.00786697 0 0.00335146)
(0.00795988 0 0.00438304)
(0.00803613 0 0.0050207)
(0.00809783 0 0.00529694)
(0.00814677 0 0.00525055)
(0.00818445 0 0.00492623)
(0.00821225 0 0.00437265)
(0.0082315 0 0.0036392)
(0.00824332 0 0.00277496)
(0.00825017 0 0.00183952)
(0.00825195 0 0.000890175)
(0.00205392 0 -0.255879)
(0.00159658 0 -0.268582)
(0.000900065 0 -0.277008)
(0.000147553 0 -0.280119)
(-0.00044249 0 -0.27823)
(-0.000712439 0 -0.272719)
(-0.000600802 0 -0.265202)
(-0.000105539 0 -0.256778)
(0.000781371 0 -0.247833)
(0.0021281 0 -0.23855)
(0.00410449 0 -0.230239)
(0.00685396 0 -0.22776)
(0.0105974 0 -0.242973)
(0.0141669 0 -0.293917)
(0.0144076 0 -0.383208)
(0.0047822 0 -0.45753)
(-0.00986609 0 -0.435633)
(-0.0155661 0 -0.328049)
(-0.0126021 0 -0.218707)
(-0.00800568 0 -0.150487)
(-0.00445272 0 -0.118088)
(-0.00207575 0 -0.101853)
(-0.000225914 0 -0.0904195)
(0.0012458 0 -0.0806191)
(0.00246588 0 -0.0714981)
(0.00349641 0 -0.0628583)
(0.0043784 0 -0.054704)
(0.0051389 0 -0.0470697)
(0.00579724 0 -0.0399794)
(0.00636819 0 -0.0334428)
(0.00686344 0 -0.0274595)
(0.00729264 0 -0.0220229)
(0.00766387 0 -0.0171231)
(0.00798412 0 -0.0127488)
(0.00825948 0 -0.00888859)
(0.00849532 0 -0.00553075)
(0.00869641 0 -0.0026634)
(0.00886695 0 -0.000273458)
(0.00901068 0 0.00165407)
(0.00913093 0 0.00313708)
(0.00923065 0 0.00419746)
(0.0093124 0 0.00486209)
(0.00937838 0 0.00516375)
(0.0094305 0 0.00514149)
(0.0094704 0 0.00484013)
(0.00949956 0 0.00430823)
(0.00951948 0 0.00359478)
(0.00953149 0 0.0027481)
(0.0095381 0 0.00182669)
(0.00953994 0 0.000886547)
(0.00168658 0 -0.255692)
(0.00127358 0 -0.268213)
(0.000635231 0 -0.276544)
(-5.2238e-05 0 -0.279693)
(-0.000579352 0 -0.277962)
(-0.000794492 0 -0.272682)
(-0.000637234 0 -0.265418)
(-0.000104668 0 -0.25725)
(0.000811107 0 -0.248586)
(0.00217249 0 -0.239656)
(0.00413926 0 -0.23181)
(0.00684196 0 -0.229881)
(0.0104479 0 -0.245364)
(0.0138034 0 -0.295082)
(0.013814 0 -0.380156)
(0.00478468 0 -0.44972)
(-0.00871406 0 -0.429104)
(-0.0141353 0 -0.327149)
(-0.0114245 0 -0.221151)
(-0.00695824 0 -0.153293)
(-0.0034548 0 -0.120363)
(-0.0010797 0 -0.103662)
(0.000782044 0 -0.0919107)
(0.00227614 0 -0.081896)
(0.00352457 0 -0.0726215)
(0.00458611 0 -0.0638633)
(0.00549997 0 -0.055612)
(0.00629187 0 -0.0478945)
(0.00698037 0 -0.0407306)
(0.0075797 0 -0.0341275)
(0.00810132 0 -0.0280832)
(0.00855468 0 -0.02259)
(0.00894785 0 -0.0176376)
(0.00928782 0 -0.0132142)
(0.00958073 0 -0.00930792)
(0.00983205 0 -0.00590701)
(0.0100466 0 -0.00299933)
(0.0102288 0 -0.000571622)
(0.0103825 0 0.00139125)
(0.0105111 0 0.00290735)
(0.0106178 0 0.00399877)
(0.0107051 0 0.00469262)
(0.0107754 0 0.00502195)
(0.0108307 0 0.00502603)
(0.0108727 0 0.00474971)
(0.0109032 0 0.00424134)
(0.0109238 0 0.00354939)
(0.010936 0 0.00272133)
(0.0109423 0 0.00181445)
(0.0109442 0 0.000883457)
(0.00127346 0 -0.25553)
(0.000908101 0 -0.26788)
(0.000330799 0 -0.276123)
(-0.000288973 0 -0.279309)
(-0.000750328 0 -0.277735)
(-0.000907358 0 -0.27268)
(-0.000700726 0 -0.265662)
(-0.000126743 0 -0.257744)
(0.00082242 0 -0.249354)
(0.00220407 0 -0.240765)
(0.00416828 0 -0.233363)
(0.00683427 0 -0.231947)
(0.0103207 0 -0.247642)
(0.0134925 0 -0.296122)
(0.0133395 0 -0.377229)
(0.00488396 0 -0.442473)
(-0.00756837 0 -0.423034)
(-0.0127051 0 -0.326266)
(-0.0101983 0 -0.223482)
(-0.00584059 0 -0.156042)
(-0.00237122 0 -0.122624)
(1.09452e-05 0 -0.105478)
(0.00189088 0 -0.0934199)
(0.00341187 0 -0.0831983)
(0.00469145 0 -0.0737752)
(0.00578606 0 -0.0649018)
(0.00673335 0 -0.056555)
(0.00755791 0 -0.0487548)
(0.00827758 0 -0.0415171)
(0.00890619 0 -0.0348467)
(0.00945493 0 -0.0287402)
(0.00993315 0 -0.0231892)
(0.0103488 0 -0.0181824)
(0.010709 0 -0.013708)
(0.01102 0 -0.00975371)
(0.0112872 0 -0.00630768)
(0.0115156 0 -0.00335753)
(0.0117098 0 -0.000889881)
(0.0118737 0 0.00111057)
(0.0120109 0 0.00266204)
(0.0121246 0 0.00378679)
(0.0122176 0 0.00451217)
(0.0122923 0 0.00487145)
(0.0123509 0 0.00490407)
(0.0123952 0 0.00465487)
(0.0124271 0 0.00417188)
(0.0124484 0 0.00350293)
(0.0124608 0 0.00269454)
(0.0124669 0 0.00180272)
(0.0124689 0 0.000880853)
(0.000814196 0 -0.255397)
(0.000499607 0 -0.267584)
(-1.39455e-05 0 -0.275745)
(-0.000563518 0 -0.278972)
(-0.000956378 0 -0.27755)
(-0.00105198 0 -0.272715)
(-0.000792044 0 -0.265938)
(-0.000172149 0 -0.258265)
(0.000815447 0 -0.250141)
(0.00222349 0 -0.241882)
(0.00419256 0 -0.234906)
(0.00683181 0 -0.233966)
(0.0102165 0 -0.249824)
(0.0132341 0 -0.297065)
(0.0129751 0 -0.37444)
(0.00507135 0 -0.435749)
(-0.00642471 0 -0.417391)
(-0.0112734 0 -0.325416)
(-0.00892797 0 -0.225722)
(-0.0046582 0 -0.158748)
(-0.00120752 0 -0.124882)
(0.00119145 0 -0.107307)
(0.00309687 0 -0.0949521)
(0.00465006 0 -0.0845299)
(0.00596462 0 -0.0749623)
(0.00709523 0 -0.065976)
(0.00807825 0 -0.057535)
(0.00893732 0 -0.0496525)
(0.00968974 0 -0.0423405)
(0.010349 0 -0.0356019)
(0.010926 0 -0.0294319)
(0.01143 0 -0.0238213)
(0.0118691 0 -0.0187585)
(0.0122502 0 -0.0142311)
(0.0125798 0 -0.0102268)
(0.0128634 0 -0.00673351)
(0.0131062 0 -0.00373869)
(0.0133128 0 -0.00122881)
(0.0134873 0 0.00081153)
(0.0136334 0 0.0024007)
(0.0137544 0 0.00356112)
(0.0138533 0 0.00432036)
(0.0139327 0 0.00471189)
(0.0139947 0 0.00477526)
(0.0140415 0 0.00455523)
(0.014075 0 0.00409942)
(0.0140971 0 0.00345496)
(0.0141099 0 0.00266733)
(0.0141158 0 0.00179123)
(0.0141181 0 0.000878614)
(0.00030812 0 -0.255294)
(4.71692e-05 0 -0.267327)
(-0.000400156 0 -0.275413)
(-0.00087715 0 -0.278681)
(-0.0011988 0 -0.277409)
(-0.00122958 0 -0.27279)
(-0.000912191 0 -0.266249)
(-0.00024155 0 -0.258815)
(0.000789962 0 -0.250952)
(0.00223099 0 -0.243013)
(0.00421289 0 -0.236443)
(0.00683572 0 -0.235949)
(0.0101366 0 -0.251926)
(0.0130283 0 -0.297939)
(0.0127115 0 -0.371802)
(0.00533631 0 -0.429514)
(-0.00528204 0 -0.412147)
(-0.00983923 0 -0.324615)
(-0.00761623 0 -0.227891)
(-0.00341409 0 -0.161423)
(3.2891e-05 0 -0.127145)
(0.00245851 0 -0.109158)
(0.0043973 0 -0.0965134)
(0.0059886 0 -0.0858955)
(0.0073427 0 -0.0761865)
(0.00851294 0 -0.067089)
(0.00953461 0 -0.0585545)
(0.0104306 0 -0.0505895)
(0.0112178 0 -0.0432027)
(0.0119094 0 -0.0363948)
(0.0125161 0 -0.0301599)
(0.0130473 0 -0.024488)
(0.0135108 0 -0.0193672)
(0.0139139 0 -0.0147848)
(0.0142629 0 -0.0107283)
(0.0145637 0 -0.0071855)
(0.0148215 0 -0.00414368)
(0.0150411 0 -0.00158921)
(0.0152266 0 0.000493414)
(0.0153821 0 0.00212268)
(0.0155108 0 0.00332118)
(0.015616 0 0.00411664)
(0.0157002 0 0.00454271)
(0.0157659 0 0.00463903)
(0.0158154 0 0.0044502)
(0.0158506 0 0.0040234)
(0.0158739 0 0.00340498)
(0.0158871 0 0.00263934)
(0.015893 0 0.00177976)
(0.0158955 0 0.000876658)
(-0.000245812 0 -0.255223)
(-0.000450552 0 -0.267111)
(-0.000829398 0 -0.275128)
(-0.00123152 0 -0.278439)
(-0.00147919 0 -0.277315)
(-0.00144159 0 -0.272906)
(-0.00106239 0 -0.266597)
(-0.00033586 0 -0.259399)
(0.000745454 0 -0.251791)
(0.00222653 0 -0.244161)
(0.00422986 0 -0.237982)
(0.0068473 0 -0.237905)
(0.0100828 0 -0.253965)
(0.012875 0 -0.298765)
(0.0125385 0 -0.369322)
(0.00566941 0 -0.423733)
(-0.0041389 0 -0.40728)
(-0.00840158 0 -0.323877)
(-0.00626401 0 -0.230008)
(-0.00210902 0 -0.164078)
(0.00134855 0 -0.129424)
(0.00381017 0 -0.111038)
(0.00579051 0 -0.0981103)
(0.00742626 0 -0.0873001)
(0.00882496 0 -0.0774518)
(0.010039 0 -0.0682443)
(0.0111027 0 -0.0596166)
(0.0120386 0 -0.0515688)
(0.0128631 0 -0.0441062)
(0.0135891 0 -0.0372276)
(0.0142274 0 -0.0309261)
(0.0147872 0 -0.0251911)
(0.0152765 0 -0.0200102)
(0.0157027 0 -0.0153706)
(0.0160723 0 -0.0112597)
(0.0163912 0 -0.00766496)
(0.0166648 0 -0.00457368)
(0.016898 0 -0.00197214)
(0.0170953 0 0.000155263)
(0.0172606 0 0.00182711)
(0.0173975 0 0.00306613)
(0.0175093 0 0.00390023)
(0.0175988 0 0.00436319)
(0.0176685 0 0.00449469)
(0.0177209 0 0.00433915)
(0.0177581 0 0.00394326)
(0.0177826 0 0.00335256)
(0.0177964 0 0.0026103)
(0.0178023 0 0.0017682)
(0.0178048 0 0.000874979)
(-0.000849015 0 -0.255186)
(-0.000995243 0 -0.266938)
(-0.00130353 0 -0.274892)
(-0.0016285 0 -0.278248)
(-0.00179933 0 -0.277269)
(-0.00168964 0 -0.273067)
(-0.00124401 0 -0.266986)
(-0.000456177 0 -0.26002)
(0.000681189 0 -0.252662)
(0.00220983 0 -0.245332)
(0.00424377 0 -0.239529)
(0.00686741 0 -0.239843)
(0.0100556 0 -0.255955)
(0.0127726 0 -0.299564)
(0.0124472 0 -0.367003)
(0.00606246 0 -0.418377)
(-0.00299286 0 -0.402772)
(-0.00695657 0 -0.323215)
(-0.00486978 0 -0.232091)
(-0.000743113 0 -0.166728)
(0.00273878 0 -0.131727)
(0.0052466 0 -0.112955)
(0.00727602 0 -0.099749)
(0.00896261 0 -0.0887493)
(0.0104113 0 -0.0787631)
(0.0116736 0 -0.0694461)
(0.0127834 0 -0.0607249)
(0.0137625 0 -0.0525936)
(0.0146271 0 -0.045054)
(0.01539 0 -0.0381032)
(0.016062 0 -0.0317333)
(0.0166524 0 -0.025933)
(0.0171692 0 -0.0206898)
(0.01762 0 -0.0159906)
(0.0180113 0 -0.0118227)
(0.0183495 0 -0.00817349)
(0.0186399 0 -0.00503015)
(0.0188876 0 -0.00237893)
(0.0190973 0 -0.00020414)
(0.0192731 0 0.00151288)
(0.0194188 0 0.00279498)
(0.0195377 0 0.00367021)
(0.0196328 0 0.00417248)
(0.0197069 0 0.00434148)
(0.0197625 0 0.00422143)
(0.0198019 0 0.00385853)
(0.0198275 0 0.00329744)
(0.0198419 0 0.00258019)
(0.0198478 0 0.00175672)
(0.0198502 0 0.000873741)
(-0.00150324 0 -0.255185)
(-0.00158883 0 -0.266808)
(-0.00182453 0 -0.274706)
(-0.00207003 0 -0.278108)
(-0.00216103 0 -0.277273)
(-0.00197537 0 -0.273276)
(-0.00145855 0 -0.267419)
(-0.000603774 0 -0.260682)
(0.000596178 0 -0.253569)
(0.00218021 0 -0.246533)
(0.00425432 0 -0.241091)
(0.00689595 0 -0.241773)
(0.0100543 0 -0.25791)
(0.0127182 0 -0.300351)
(0.0124295 0 -0.364849)
(0.00651075 0 -0.413422)
(-0.00183851 0 -0.398607)
(-0.00549863 0 -0.322642)
(-0.00343182 0 -0.234157)
(0.00068553 0 -0.169383)
(0.00420468 0 -0.134063)
(0.00676754 0 -0.114915)
(0.00885385 0 -0.101436)
(0.0105979 0 -0.0902485)
(0.0121023 0 -0.0801254)
(0.0134178 0 -0.0706988)
(0.0145778 0 -0.0618836)
(0.0156038 0 -0.0536676)
(0.0165117 0 -0.0460494)
(0.0173145 0 -0.0390246)
(0.0180227 0 -0.0325841)
(0.0186458 0 -0.0267164)
(0.0191921 0 -0.0214084)
(0.0196691 0 -0.016647)
(0.0200838 0 -0.0124194)
(0.0204425 0 -0.00871301)