/*--------------------------------*- C++ -*----------------------------------*\
  =========                 |
  \\      /  F ield         | OpenFOAM: The Open Source CFD Toolbox
   \\    /   O peration     | Website:  https://openfoam.org
    \\  /    A nd           | Version:  9
     \\/     M anipulation  |
\*---------------------------------------------------------------------------*/
FoamFile
{
    format      ascii;
    class       surfaceVectorField;
    location    "0.16";
    object      Uf;
}
// * * * * * * * * * * * * * * * * * * * * * * * * * * * * * * * * * * * * * //

dimensions      [0 1 -1 0 0 0 0];

internalField   nonuniform List<vector> 
9850
(
(0.000486851 0 -0.267229)
(0.000913486 0 -0.259366)
(0.000333185 0 -0.2804)
(0.0007316 0 -0.275293)
(0.000107549 0 -0.286991)
(0.000400856 0 -0.28566)
(-0.00011196 0 -0.286251)
(1.37901e-05 0 -0.288467)
(-0.000261892 0 -0.279656)
(-0.000307309 0 -0.284224)
(-0.000330074 0 -0.269721)
(-0.00049637 0 -0.275339)
(-0.000347876 0 -0.258379)
(-0.000567776 0 -0.264393)
(-0.000349509 0 -0.246113)
(-0.000570606 0 -0.252656)
(-0.000339079 0 -0.232238)
(-0.000529514 0 -0.239835)
(-0.000269859 0 -0.216195)
(-0.000401472 0 -0.224891)
(-8.03417e-06 0 -0.199776)
(-5.10402e-05 0 -0.207803)
(0.000659755 0 -0.191479)
(0.000823891 0 -0.192248)
(0.00243694 0 -0.216509)
(0.00277819 0 -0.191834)
(0.00649334 0 -0.327916)
(0.00706737 0 -0.243916)
(0.00958485 0 -0.537084)
(0.0140578 0 -0.415544)
(-0.00334729 0 -0.62348)
(0.00617752 0 -0.654453)
(-0.0102879 0 -0.448418)
(-0.0128115 0 -0.58388)
(-0.00507533 0 -0.23339)
(-0.0128086 0 -0.313101)
(-0.00186128 0 -0.129448)
(-0.00569024 0 -0.158178)
(-0.000714429 0 -0.0931189)
(-0.00251083 0 -0.102817)
(-0.000364009 0 -0.0822337)
(-0.00128204 0 -0.0857777)
(-0.000226438 0 -0.0761877)
(-0.00076692 0 -0.0790944)
(-0.000164992 0 -0.0703487)
(-0.000511639 0 -0.0735396)
(-0.000130487 0 -0.0639142)
(-0.000370759 0 -0.0674033)
(-0.000105866 0 -0.0570686)
(-0.000280467 0 -0.0606845)
(-8.55637e-05 0 -0.050133)
(-0.000214945 0 -0.0537228)
(-6.78577e-05 0 -0.0433533)
(-0.000163392 0 -0.0468155)
(-5.22218e-05 0 -0.0368844)
(-0.000120984 0 -0.0401584)
(-3.8467e-05 0 -0.0308153)
(-8.5349e-05 0 -0.0338674)
(-2.64836e-05 0 -0.0251947)
(-5.51612e-05 0 -0.028007)
(-1.61651e-05 0 -0.0200465)
(-2.95729e-05 0 -0.0226109)
(-7.40352e-06 0 -0.0153803)
(-7.97702e-06 0 -0.0176942)
(-8.61051e-08 0 -0.0111972)
(1.01186e-05 0 -0.0132614)
(5.92759e-06 0 -0.0074932)
(2.51018e-05 0 -0.00931052)
(1.07346e-05 0 -0.00426129)
(3.72996e-05 0 -0.00583576)
(1.44483e-05 0 -0.0014927)
(4.70161e-05 0 -0.0028291)
(1.74776e-05 0 0.000822963)
(5.53209e-05 0 -0.0002816)
(1.95363e-05 0 0.00269728)
(6.19347e-05 0 0.00181925)
(2.10227e-05 0 0.00414438)
(6.65637e-05 0 0.00348399)
(2.20653e-05 0 0.0051824)
(7.02093e-05 0 0.00472944)
(2.27989e-05 0 0.00583323)
(7.3112e-05 0 0.00557534)
(2.33504e-05 0 0.00612327)
(7.54621e-05 0 0.00604555)
(2.38189e-05 0 0.00608426)
(7.7439e-05 0 0.00616888)
(2.42644e-05 0 0.00575387)
(7.91593e-05 0 0.0059799)
(2.47069e-05 0 0.00517548)
(8.06662e-05 0 0.0055193)
(2.51383e-05 0 0.0043966)
(8.19511e-05 0 0.00483305)
(2.55099e-05 0 0.00346612)
(8.29897e-05 0 0.00397016)
(2.55718e-05 0 0.00243611)
(8.3747e-05 0 0.00297999)
(2.40304e-05 0 0.00136774)
(8.32301e-05 0 0.00192086)
(7.63784e-05 0 0.000865)
(0.00119762 0 -0.267516)
(0.00160505 0 -0.259266)
(0.000825475 0 -0.280652)
(0.00128288 0 -0.275045)
(0.000304146 0 -0.28724)
(0.000722091 0 -0.285312)
(-0.000207026 0 -0.286538)
(7.15639e-05 0 -0.288126)
(-0.000574132 0 -0.279992)
(-0.000474093 0 -0.283979)
(-0.000759008 0 -0.270087)
(-0.000804228 0 -0.275215)
(-0.000807578 0 -0.258743)
(-0.000929513 0 -0.26436)
(-0.000771499 0 -0.246454)
(-0.000913033 0 -0.25268)
(-0.000633953 0 -0.23257)
(-0.000777991 0 -0.239926)
(-0.000259303 0 -0.216582)
(-0.000441353 0 -0.225141)
(0.000649369 0 -0.20036)
(0.000342692 0 -0.208409)
(0.00270246 0 -0.192635)
(0.00205507 0 -0.193617)
(0.00704052 0 -0.218928)
(0.00542462 0 -0.194726)
(0.0141541 0 -0.330772)
(0.011765 0 -0.248658)
(0.0162434 0 -0.533819)
(0.0212678 0 -0.416937)
(-0.00566148 0 -0.61686)
(0.00898662 0 -0.63985)
(-0.0191146 0 -0.448558)
(-0.0190655 0 -0.574911)
(-0.0124786 0 -0.237065)
(-0.0201645 0 -0.317525)
(-0.00598444 0 -0.131372)
(-0.0101576 0 -0.162507)
(-0.00280123 0 -0.0938142)
(-0.00516638 0 -0.104939)
(-0.00158836 0 -0.082548)
(-0.00288071 0 -0.0867671)
(-0.00100218 0 -0.0763719)
(-0.0017949 0 -0.079596)
(-0.000692594 0 -0.070493)
(-0.00120273 0 -0.0738174)
(-0.000507384 0 -0.0640488)
(-0.000853658 0 -0.0675775)
(-0.000381746 0 -0.0572015)
(-0.000625275 0 -0.0608084)
(-0.000287791 0 -0.0502649)
(-0.000461927 0 -0.05382)
(-0.000213042 0 -0.0434829)
(-0.000337088 0 -0.0468966)
(-0.000151504 0 -0.0370101)
(-0.000237427 0 -0.0402284)
(-9.99833e-05 0 -0.0309362)
(-0.000155757 0 -0.0339289)
(-5.65718e-05 0 -0.0253098)
(-8.78647e-05 0 -0.0280615)
(-2.0009e-05 0 -0.0201553)
(-3.1052e-05 0 -0.0226591)
(1.07007e-05 0 -0.0154824)
(1.65028e-05 0 -0.0177367)
(3.6296e-05 0 -0.0112923)
(5.62076e-05 0 -0.0132986)
(5.73642e-05 0 -0.0075811)
(8.91955e-05 0 -0.00934274)
(7.44258e-05 0 -0.00434184)
(0.000116362 0 -0.00586319)
(8.78775e-05 0 -0.00156576)
(0.000138401 0 -0.00285184)
(0.000100858 0 0.000756813)
(0.000156579 0 -0.000304617)
(0.000109225 0 0.00263745)
(0.000171245 0 0.00180361)
(0.000116015 0 0.00409087)
(0.000182715 0 0.00347067)
(0.000121486 0 0.00513508)
(0.000192038 0 0.00471816)
(0.000125957 0 0.00579188)
(0.000199608 0 0.00556566)
(0.000129704 0 0.00608766)
(0.000205843 0 0.00603704)
(0.000132923 0 0.00605422)
(0.000211089 0 0.00616122)
(0.000135711 0 0.00572931)
(0.000215562 0 0.00597296)
(0.000138076 0 0.00515636)
(0.000219357 0 0.00551313)
(0.000139978 0 0.00438289)
(0.000222478 0 0.00482786)
(0.000141306 0 0.00345836)
(0.00022494 0 0.00396636)
(0.000141522 0 0.00243854)
(0.000226736 0 0.00297932)
(0.000138427 0 0.00139292)
(0.00022693 0 0.00193047)
(0.000219126 0 0.000896289)
(0.00172868 0 -0.267227)
(0.00213794 0 -0.25911)
(0.00120405 0 -0.280201)
(0.00170901 0 -0.274695)
(0.000486424 0 -0.286726)
(0.000985985 0 -0.284834)
(-0.000220235 0 -0.286083)
(0.00015356 0 -0.287655)
(-0.000738354 0 -0.279675)
(-0.000549098 0 -0.283634)
(-0.0010065 0 -0.26991)
(-0.000979965 0 -0.275037)
(-0.00106439 0 -0.258672)
(-0.00113869 0 -0.264322)
(-0.000958238 0 -0.246479)
(-0.00108723 0 -0.252751)
(-0.000645566 0 -0.232759)
(-0.000839264 0 -0.240135)
(7.77235e-05 0 -0.217116)
(-0.000281332 0 -0.225623)
(0.0015892 0 -0.201599)
(0.000894778 0 -0.209417)
(0.00461107 0 -0.19525)
(0.00324627 0 -0.195631)
(0.0102112 0 -0.223514)
(0.00754237 0 -0.19846)
(0.0182127 0 -0.334301)
(0.0147667 0 -0.253993)
(0.0188431 0 -0.525581)
(0.0247951 0 -0.417357)
(-0.00651225 0 -0.60222)
(0.0101531 0 -0.622946)
(-0.0232174 0 -0.44529)
(-0.0219612 0 -0.563775)
(-0.0170747 0 -0.242065)
(-0.024369 0 -0.321621)
(-0.00930513 0 -0.135258)
(-0.0134254 0 -0.167687)
(-0.00489014 0 -0.0957053)
(-0.00746176 0 -0.107883)
(-0.00296702 0 -0.0835213)
(-0.0044022 0 -0.088336)
(-0.00192398 0 -0.0768956)
(-0.00283943 0 -0.0804884)
(-0.00132312 0 -0.0707978)
(-0.00192892 0 -0.0743565)
(-0.000947026 0 -0.0642447)
(-0.00136297 0 -0.0679314)
(-0.000690084 0 -0.0573401)
(-0.000982064 0 -0.0610619)
(-0.000501056 0 -0.0503706)
(-0.000707532 0 -0.0540156)
(-0.000354339 0 -0.0435678)
(-0.00049864 0 -0.0470558)
(-0.000236403 0 -0.0370804)
(-0.000333454 0 -0.0403627)
(-0.000139574 0 -0.0309954)
(-0.000199461 0 -0.0340446)
(-5.91132e-05 0 -0.02536)
(-8.89822e-05 0 -0.0281624)
(8.00356e-06 0 -0.0201977)
(2.83519e-06 0 -0.0227475)
(6.41369e-05 0 -0.015518)
(7.93534e-05 0 -0.0178143)
(0.000110891 0 -0.0113217)
(0.000143226 0 -0.0133666)
(0.000149669 0 -0.00760492)
(0.000196398 0 -0.00940192)
(0.000181717 0 -0.00436056)
(0.00024047 0 -0.00591455)
(0.000208257 0 -0.00157985)
(0.000276744 0 -0.00289651)
(0.000227677 0 0.000746375)
(0.000305775 0 -0.000338973)
(0.000245296 0 0.0026297)
(0.000329331 0 0.00177091)
(0.000259325 0 0.00408526)
(0.000349038 0 0.00344333)
(0.000270633 0 0.00513093)
(0.00036508 0 0.00469502)
(0.000279881 0 0.0057885)
(0.000378122 0 0.0055458)
(0.000287566 0 0.00608448)
(0.000388856 0 0.00601973)
(0.000294036 0 0.00605087)
(0.000397796 0 0.00614595)
(0.000299496 0 0.00572564)
(0.000405292 0 0.00595946)
(0.00030404 0 0.00515243)
(0.00041154 0 0.00550136)
(0.000307702 0 0.00437898)
(0.000416626 0 0.00481793)
(0.000310448 0 0.00345569)
(0.000420625 0 0.00395856)
(0.000311784 0 0.00244145)
(0.00042355 0 0.00297534)
(0.000310244 0 0.00140727)
(0.000425053 0 0.00193526)
(0.000420579 0 0.000912137)
(0.00214666 0 -0.266758)
(0.00254976 0 -0.258911)
(0.00150882 0 -0.279531)
(0.00204003 0 -0.27427)
(0.000650278 0 -0.285979)
(0.00120234 0 -0.284261)
(-0.000194827 0 -0.285416)
(0.00024475 0 -0.287092)
(-0.000818872 0 -0.279187)
(-0.000565614 0 -0.283218)
(-0.00114075 0 -0.269618)
(-0.00106444 0 -0.274822)
(-0.00119027 0 -0.258548)
(-0.00123899 0 -0.264289)
(-0.00100515 0 -0.246528)
(-0.00114488 0 -0.252874)
(-0.000526901 0 -0.233079)
(-0.000787126 0 -0.240454)
(0.000476388 0 -0.217939)
(-3.08351e-05 0 -0.226292)
(0.00244316 0 -0.203346)
(0.00145288 0 -0.210728)
(0.00606938 0 -0.198572)
(0.00424112 0 -0.198049)
(0.012338 0 -0.228607)
(0.00912957 0 -0.202639)
(0.0205836 0 -0.337109)
(0.0166667 0 -0.25949)
(0.0198722 0 -0.51571)
(0.0262579 0 -0.416883)
(-0.00690317 0 -0.585866)
(0.0104169 0 -0.605096)
(-0.0254085 0 -0.440708)
(-0.0230636 0 -0.551438)
(-0.0200618 0 -0.247043)
(-0.0266798 0 -0.325185)
(-0.0117108 0 -0.139937)
(-0.0157333 0 -0.173254)
(-0.00657998 0 -0.0983049)
(-0.00925947 0 -0.111303)
(-0.00417881 0 -0.0849964)
(-0.0056708 0 -0.0902949)
(-0.00278315 0 -0.0777581)
(-0.00375945 0 -0.0816826)
(-0.00192953 0 -0.0713315)
(-0.00258963 0 -0.0751226)
(-0.00137183 0 -0.0645993)
(-0.00183056 0 -0.0684563)
(-0.000981805 0 -0.0575932)
(-0.00130489 0 -0.0614469)
(-0.000692678 0 -0.0505625)
(-0.000919904 0 -0.0543149)
(-0.000468653 0 -0.0437201)
(-0.000624966 0 -0.0472991)
(-0.000289596 0 -0.0372051)
(-0.000391446 0 -0.0405667)
(-0.000143529 0 -0.0310994)
(-0.00020229 0 -0.0342193)
(-2.29162e-05 0 -0.0254477)
(-4.66464e-05 0 -0.0283137)
(7.75591e-05 0 -0.0202719)
(8.24216e-05 0 -0.0228797)
(0.000161325 0 -0.0155808)
(0.000189895 0 -0.01793)
(0.000231125 0 -0.0113745)
(0.000279672 0 -0.0134678)
(0.000289134 0 -0.00764894)
(0.000354469 0 -0.00949019)
(0.000337092 0 -0.004397)
(0.000416562 0 -0.00599116)
(0.000376454 0 -0.00160995)
(0.00046796 0 -0.00296252)
(0.000407724 0 0.000722069)
(0.000509768 0 -0.000394029)
(0.000434083 0 0.00261066)
(0.00054402 0 0.00172219)
(0.000455627 0 0.00407032)
(0.000572486 0 0.00340152)
(0.000473221 0 0.00511899)
(0.000595698 0 0.00465918)
(0.000487643 0 0.00577863)
(0.000614697 0 0.00551497)
(0.000499554 0 0.00607596)
(0.000630354 0 0.00599303)
(0.000509452 0 0.00604321)
(0.000643322 0 0.00612269)
(0.000517671 0 0.00571864)
(0.000654078 0 0.00593922)
(0.00052441 0 0.0051461)
(0.00066293 0 0.00548399)
(0.000529791 0 0.00437355)
(0.000670063 0 0.00480341)
(0.000533859 0 0.00345216)
(0.000675605 0 0.00394706)
(0.000536335 0 0.0024425)
(0.000679573 0 0.00296802)
(0.000536497 0 0.00141469)
(0.000682112 0 0.00193478)
(0.000680711 0 0.000917812)
(0.00246435 0 -0.266376)
(0.00285514 0 -0.258676)
(0.00174662 0 -0.278948)
(0.00228721 0 -0.273791)
(0.000794127 0 -0.285321)
(0.00137425 0 -0.283626)
(-0.000141704 0 -0.284842)
(0.000337864 0 -0.286468)
(-0.000834432 0 -0.278803)
(-0.000539526 0 -0.282756)
(-0.00118756 0 -0.269447)
(-0.00107905 0 -0.274587)
(-0.00121913 0 -0.258571)
(-0.00125594 0 -0.264268)
(-0.00095726 0 -0.246756)
(-0.00111649 0 -0.253049)
(-0.000332793 0 -0.23362)
(-0.000659153 0 -0.24087)
(0.000899273 0 -0.219028)
(0.000263737 0 -0.227113)
(0.00318198 0 -0.205377)
(0.00198038 0 -0.21225)
(0.00719788 0 -0.202085)
(0.00505069 0 -0.200726)
(0.0137682 0 -0.233542)
(0.0102717 0 -0.207019)
(0.0216693 0 -0.339287)
(0.0177246 0 -0.264757)
(0.019591 0 -0.506089)
(0.026291 0 -0.415497)
(-0.00691364 0 -0.570362)
(0.010077 0 -0.587427)
(-0.0259859 0 -0.435812)
(-0.0229456 0 -0.538723)
(-0.0218557 0 -0.251439)
(-0.0275843 0 -0.327939)
(-0.0134638 0 -0.144631)
(-0.0172548 0 -0.178849)
(-0.00790866 0 -0.10115)
(-0.0106013 0 -0.115006)
(-0.00517428 0 -0.0867393)
(-0.00667446 0 -0.0925256)
(-0.00351332 0 -0.0788596)
(-0.00451694 0 -0.083104)
(-0.00245437 0 -0.0720652)
(-0.00314198 0 -0.0760731)
(-0.00173798 0 -0.0651196)
(-0.00221891 0 -0.0691308)
(-0.0012246 0 -0.057985)
(-0.00156341 0 -0.0619539)
(-0.000838543 0 -0.0508725)
(-0.00107493 0 -0.0547148)
(-0.000537336 0 -0.0439746)
(-0.000696685 0 -0.0476264)
(-0.000295975 0 -0.0374196)
(-0.000395418 0 -0.0408418)
(-9.89907e-05 0 -0.0312833)
(-0.000150612 0 -0.0344548)
(6.37175e-05 0 -0.0256071)
(5.1059e-05 0 -0.0285178)
(0.000198996 0 -0.0204109)
(0.00021849 0 -0.0230577)
(0.000311855 0 -0.0157021)
(0.000358167 0 -0.0180858)
(0.000406021 0 -0.0114803)
(0.000474971 0 -0.0136041)
(0.000484408 0 -0.00774101)
(0.000572484 0 -0.00960924)
(0.000549389 0 -0.00447682)
(0.000653661 0 -0.00609471)
(0.000602973 0 -0.001679)
(0.000721075 0 -0.00305213)
(0.000647475 0 0.000662565)
(0.000776806 0 -0.000472147)
(0.000683722 0 0.00255957)
(0.000822806 0 0.0016554)
(0.000713506 0 0.00402639)
(0.000860699 0 0.00334391)
(0.00073796 0 0.00508109)
(0.000891782 0 0.00460953)
(0.000758079 0 0.00574575)
(0.000917357 0 0.00547212)
(0.000774689 0 0.00604727)
(0.000938449 0 0.00595594)
(0.000788423 0 0.00601814)
(0.000955866 0 0.00609055)
(0.000799728 0 0.00569691)
(0.000970208 0 0.00591151)
(0.000808897 0 0.00512763)
(0.000981888 0 0.00546045)
(0.000816125 0 0.00435845)
(0.000991181 0 0.00478397)
(0.000821535 0 0.00344095)
(0.000998289 0 0.00393183)
(0.000825085 0 0.00243649)
(0.00100324 0 0.00295756)
(0.000826601 0 0.00141399)
(0.00100661 0 0.00193011)
(0.00100683 0 0.000917752)
(0.0026926 0 -0.266032)
(0.0030675 0 -0.258416)
(0.00192335 0 -0.278405)
(0.00246088 0 -0.273278)
(0.000915592 0 -0.284706)
(0.00150447 0 -0.282954)
(-7.16862e-05 0 -0.284316)
(0.000425991 0 -0.285809)
(-0.000802225 0 -0.278476)
(-0.000485892 0 -0.282269)
(-0.00116822 0 -0.269349)
(-0.00104397 0 -0.274343)
(-0.00117561 0 -0.258691)
(-0.00121297 0 -0.264263)
(-0.000842753 0 -0.247111)
(-0.00102848 0 -0.253271)
(-9.2626e-05 0 -0.234316)
(-0.00048404 0 -0.24137)
(0.00131413 0 -0.220294)
(0.000572513 0 -0.228051)
(0.00381701 0 -0.207574)
(0.00245838 0 -0.213919)
(0.00804281 0 -0.205658)
(0.00568921 0 -0.203544)
(0.0145926 0 -0.238233)
(0.0110327 0 -0.211386)
(0.0217807 0 -0.340907)
(0.0181476 0 -0.269549)
(0.0186026 0 -0.496674)
(0.0254384 0 -0.413379)
(-0.00672575 0 -0.555579)
(0.00940231 0 -0.570541)
(-0.0255429 0 -0.430716)
(-0.022088 0 -0.526178)
(-0.0226493 0 -0.255321)
(-0.0275091 0 -0.329868)
(-0.0146234 0 -0.14924)
(-0.0181277 0 -0.184199)
(-0.00890595 0 -0.104127)
(-0.0115255 0 -0.118818)
(-0.00595532 0 -0.0886581)
(-0.00741663 0 -0.0949329)
(-0.00409634 0 -0.0801349)
(-0.00509522 0 -0.0846949)
(-0.00287136 0 -0.0729564)
(-0.00356215 0 -0.0771728)
(-0.00201891 0 -0.0657779)
(-0.0025037 0 -0.0699335)
(-0.00139477 0 -0.0584963)
(-0.00173533 0 -0.0625705)
(-0.000918447 0 -0.0512861)
(-0.00115309 0 -0.0552084)
(-0.000543257 0 -0.0443193)
(-0.000697006 0 -0.0480342)
(-0.000240839 0 -0.0377132)
(-0.000330892 0 -0.0411865)
(6.81801e-06 0 -0.031537)
(-3.18484e-05 0 -0.0347508)
(0.000211878 0 -0.0258282)
(0.000215315 0 -0.0287749)
(0.000382744 0 -0.0206048)
(0.000421161 0 -0.0232823)
(0.000525554 0 -0.0158723)
(0.000593384 0 -0.0182827)
(0.000644987 0 -0.0116298)
(0.000737711 0 -0.0137768)
(0.000744724 0 -0.00787192)
(0.000858581 0 -0.00976051)
(0.000827791 0 -0.00459106)
(0.000959595 0 -0.00622689)
(0.000896784 0 -0.00177834)
(0.00104377 0 -0.00316733)
(0.000954025 0 0.000576263)
(0.00111379 0 -0.000572453)
(0.00100123 0 0.00248463)
(0.00117186 0 0.00156858)
(0.00104013 0 0.00396144)
(0.00121984 0 0.00326884)
(0.00107215 0 0.00502484)
(0.00125941 0 0.00454468)
(0.00109855 0 0.00569703)
(0.00129206 0 0.00541606)
(0.00112031 0 0.0060051)
(0.00131898 0 0.00590748)
(0.00113822 0 0.00598181)
(0.00134113 0 0.00604877)
(0.00115284 0 0.005666)
(0.00135925 0 0.00587579)
(0.00116455 0 0.00510196)
(0.00137384 0 0.00543048)
(0.00117363 0 0.00433797)
(0.00138528 0 0.00475966)
(0.00118025 0 0.00342584)
(0.00139384 0 0.00391323)
(0.00118458 0 0.00242706)
(0.00139959 0 0.00294485)
(0.0011868 0 0.00140989)
(0.00140346 0 0.0019233)
(0.00140411 0 0.000915652)
(0.00284544 0 -0.265658)
(0.00320146 0 -0.258138)
(0.00204705 0 -0.277825)
(0.00257219 0 -0.272746)
(0.00101291 0 -0.284056)
(0.00159612 0 -0.282265)
(4.96212e-06 0 -0.28376)
(0.000502578 0 -0.285137)
(-0.000741313 0 -0.278131)
(-0.000419732 0 -0.281771)
(-0.00110565 0 -0.269251)
(-0.000979667 0 -0.2741)
(-0.00108472 0 -0.258835)
(-0.00113317 0 -0.264277)
(-0.000689095 0 -0.24752)
(-0.000906142 0 -0.253534)
(0.000159927 0 -0.235093)
(-0.000288589 0 -0.241936)
(0.00169671 0 -0.22166)
(0.000868702 0 -0.229076)
(0.00433097 0 -0.209865)
(0.00286629 0 -0.215675)
(0.0086167 0 -0.209235)
(0.00616203 0 -0.206401)
(0.0149447 0 -0.242651)
(0.0114786 0 -0.215605)
(0.0213261 0 -0.341994)
(0.018149 0 -0.273804)
(0.0173877 0 -0.487336)
(0.0241704 0 -0.410753)
(-0.00645717 0 -0.541283)
(0.00861772 0 -0.554644)
(-0.0246082 0 -0.425369)
(-0.0208845 0 -0.514078)
(-0.0227505 0 -0.2587)
(-0.0268522 0 -0.331106)
(-0.015265 0 -0.153731)
(-0.0184984 0 -0.18919)
(-0.00957271 0 -0.107194)
(-0.0120708 0 -0.122613)
(-0.00650847 0 -0.0907082)
(-0.00789672 0 -0.097433)
(-0.0045139 0 -0.0815413)
(-0.00547929 0 -0.086402)
(-0.00316038 0 -0.0739682)
(-0.0038318 0 -0.078388)
(-0.0021948 0 -0.0665434)
(-0.00266664 0 -0.070843)
(-0.00147407 0 -0.0591015)
(-0.00180352 0 -0.0632826)
(-0.000916149 0 -0.0517813)
(-0.00113899 0 -0.0557866)
(-0.000472207 0 -0.044735)
(-0.000612329 0 -0.0485168)
(-0.000111862 0 -0.0380686)
(-0.000185939 0 -0.0415974)
(0.000184879 0 -0.0318447)
(0.000164487 0 -0.0351056)
(0.000431484 0 -0.0260969)
(0.000455484 0 -0.029084)
(0.00063761 0 -0.0208403)
(0.000698839 0 -0.0235533)
(0.000810421 0 -0.0160793)
(0.000903121 0 -0.0185208)
(0.0009554 0 -0.0118116)
(0.00107484 0 -0.0139863)
(0.00107689 0 -0.00803131)
(0.00121914 0 -0.00994469)
(0.00117848 0 -0.00473045)
(0.00134018 0 -0.00638843)
(0.00126319 0 -0.00189991)
(0.00144143 0 -0.00330866)
(0.00133365 0 0.000470456)
(0.00152594 0 -0.000695805)
(0.00139212 0 0.00239274)
(0.0015963 0 0.00146116)
(0.00144052 0 0.00388183)
(0.00165469 0 0.00317557)
(0.0014805 0 0.00495597)
(0.00170303 0 0.00446386)
(0.00151348 0 0.00563753)
(0.00174296 0 0.00534617)
(0.00154062 0 0.00595384)
(0.00177586 0 0.0058472)
(0.00156283 0 0.00593798)
(0.00180284 0 0.00599706)
(0.0015808 0 0.00562907)
(0.00182476 0 0.00583196)
(0.00159502 0 0.00507169)
(0.00184223 0 0.00539417)
(0.00160581 0 0.00431432)
(0.00185571 0 0.00473078)
(0.00161345 0 0.00340883)
(0.00186555 0 0.00389181)
(0.00161823 0 0.00241651)
(0.00187188 0 0.00293082)
(0.00162063 0 0.00140491)
(0.00187596 0 0.00191595)
(0.00187648 0 0.000913245)
(0.00293484 0 -0.265245)
(0.00326858 0 -0.257849)
(0.00212424 0 -0.277207)
(0.00262966 0 -0.272205)
(0.00108385 0 -0.283369)
(0.00165145 0 -0.281571)
(7.29676e-05 0 -0.283171)
(0.000562364 0 -0.284463)
(-0.000668924 0 -0.27776)
(-0.000353087 0 -0.281277)
(-0.00102069 0 -0.269142)
(-0.000902798 0 -0.273865)
(-0.000969705 0 -0.258988)
(-0.00103551 0 -0.264311)
(-0.000520435 0 -0.247958)
(-0.000769767 0 -0.253834)
(0.000404726 0 -0.23592)
(-9.36756e-05 0 -0.242553)
(0.00202589 0 -0.223083)
(0.00113407 0 -0.230157)
(0.00471842 0 -0.21219)
(0.00319524 0 -0.21747)
(0.00896656 0 -0.212737)
(0.00648803 0 -0.209233)
(0.0149883 0 -0.246727)
(0.0116847 0 -0.219619)
(0.020602 0 -0.342584)
(0.0178931 0 -0.277546)
(0.0161573 0 -0.478197)
(0.0227691 0 -0.40779)
(-0.00614624 0 -0.527621)
(0.00785184 0 -0.539775)
(-0.0234531 0 -0.419903)
(-0.0195524 0 -0.50254)
(-0.0224219 0 -0.261585)
(-0.0258734 0 -0.331793)
(-0.0155033 0 -0.158032)
(-0.0184953 0 -0.193802)
(-0.00993259 0 -0.110285)
(-0.0122923 0 -0.126327)
(-0.00682839 0 -0.092841)
(-0.00812943 0 -0.0999657)
(-0.00475175 0 -0.0830437)
(-0.00566611 0 -0.0881794)
(-0.00330555 0 -0.0750747)
(-0.00394153 0 -0.0796866)
(-0.00225038 0 -0.0673971)
(-0.00269616 0 -0.0718369)
(-0.00144844 0 -0.0597865)
(-0.00175612 0 -0.064075)
(-0.000818995 0 -0.0523478)
(-0.00102138 0 -0.056439)
(-0.000312859 0 -0.0452142)
(-0.000432299 0 -0.049067)
(0.000101201 0 -0.0384804)
(4.88166e-05 0 -0.0420694)
(0.000444139 0 -0.0322026)
(0.000446884 0 -0.0355156)
(0.000730503 0 -0.0264101)
(0.000779295 0 -0.029443)
(0.000970821 0 -0.0211156)
(0.00105852 0 -0.0238692)
(0.00117301 0 -0.0163217)
(0.00129379 0 -0.0187995)
(0.00134321 0 -0.012025)
(0.00149226 0 -0.0142323)
(0.00148633 0 -0.00821893)
(0.0016596 0 -0.0101617)
(0.00160643 0 -0.00489503)
(0.00180046 0 -0.00657942)
(0.00170696 0 -0.00204395)
(0.00191872 0 -0.00347637)
(0.00179089 0 0.00034473)
(0.00201778 0 -0.000842702)
(0.0018608 0 0.00228333)
(0.00210052 0 0.00133284)
(0.00191883 0 0.00378688)
(0.0021694 0 0.00306384)
(0.00196686 0 0.00487379)
(0.00222655 0 0.00436689)
(0.00200649 0 0.00556661)
(0.00227381 0 0.0052623)
(0.00203904 0 0.00589296)
(0.00231272 0 0.005775)
(0.00206555 0 0.00588623)
(0.00234452 0 0.00593543)
(0.00208682 0 0.0055859)
(0.0023702 0 0.00578014)
(0.00210343 0 0.00503686)
(0.00239049 0 0.00535176)
(0.0021158 0 0.0042878)
(0.00240594 0 0.00469769)
(0.00212427 0 0.00339054)
(0.00241696 0 0.00386806)
(0.0021293 0 0.00240582)
(0.00242381 0 0.00291604)
(0.00213163 0 0.00140024)
(0.00242803 0 0.00190879)
(0.00242833 0 0.000911191)
(0.00296816 0 -0.26482)
(0.00327569 0 -0.257556)
(0.00215876 0 -0.276581)
(0.00263811 0 -0.271666)
(0.00112781 0 -0.282678)
(0.00167151 0 -0.280884)
(0.000130859 0 -0.282581)
(0.000601344 0 -0.283799)
(-0.000595908 0 -0.277392)
(-0.000294373 0 -0.280792)
(-0.000928163 0 -0.269042)
(-0.000824704 0 -0.273643)
(-0.000847127 0 -0.259162)
(-0.000933158 0 -0.264365)
(-0.000353529 0 -0.24843)
(-0.000632808 0 -0.254163)
(0.000626262 0 -0.236787)
(8.86918e-05 0 -0.243206)
(0.00229571 0 -0.224535)
(0.00136223 0 -0.23127)
(0.00499556 0 -0.2145)
(0.00345066 0 -0.21927)
(0.00914934 0 -0.216103)
(0.00669653 0 -0.212002)
(0.0148363 0 -0.250437)
(0.0117174 0 -0.22341)
(0.0197516 0 -0.342776)
(0.0174782 0 -0.280823)
(0.0149824 0 -0.469433)
(0.0213596 0 -0.40461)
(-0.00579255 0 -0.514775)
(0.00715689 0 -0.525925)
(-0.022178 0 -0.414479)
(-0.0181769 0 -0.491616)
(-0.0218115 0 -0.264021)
(-0.0247021 0 -0.332038)
(-0.0154391 0 -0.162088)
(-0.0182101 0 -0.198051)
(-0.0100319 0 -0.113339)
(-0.0122497 0 -0.129932)
(-0.00693183 0 -0.0950076)
(-0.00814337 0 -0.102495)
(-0.00481096 0 -0.0846078)
(-0.00566636 0 -0.0899947)
(-0.00330101 0 -0.0762529)
(-0.00389245 0 -0.0810424)
(-0.00217718 0 -0.0683237)
(-0.00258826 0 -0.0728955)
(-0.00130877 0 -0.0605414)
(-0.00158681 0 -0.0649331)
(-0.00061805 0 -0.0529797)
(-0.000793089 0 -0.0571549)
(-5.6932e-05 0 -0.0457536)
(-0.000149635 0 -0.049677)
(0.000406006 0 -0.0389473)
(0.000380495 0 -0.0425972)
(0.00079184 0 -0.0326107)
(0.000822209 0 -0.0359769)
(0.00111566 0 -0.0267689)
(0.00119321 0 -0.029849)
(0.00138858 0 -0.0214322)
(0.00150628 0 -0.024228)
(0.00161907 0 -0.0166015)
(0.00177115 0 -0.0191174)
(0.00181378 0 -0.0122723)
(0.00199539 0 -0.0145139)
(0.00197807 0 -0.00843712)
(0.00218511 0 -0.0104109)
(0.00211642 0 -0.00508716)
(0.00234534 0 -0.00679952)
(0.00223264 0 -0.00221272)
(0.00248032 0 -0.00367031)
(0.00233001 0 0.000196901)
(0.00259376 0 -0.00101311)
(0.00241132 0 0.00215427)
(0.00268878 0 0.0011836)
(0.00247898 0 0.00367459)
(0.00276809 0 0.00293363)
(0.00253506 0 0.00477646)
(0.00283401 0 0.00425373)
(0.00258133 0 0.00548266)
(0.00288856 0 0.00516442)
(0.00261926 0 0.00582108)
(0.00293343 0 0.00569089)
(0.00265004 0 0.00582545)
(0.00297003 0 0.00586389)
(0.00267457 0 0.00553563)
(0.00299946 0 0.00572034)
(0.00269355 0 0.00499686)
(0.00302257 0 0.00530326)
(0.00270748 0 0.00425804)
(0.00304001 0 0.00466036)
(0.00271682 0 0.00337075)
(0.00305229 0 0.00384183)
(0.00272217 0 0.00239491)
(0.0030598 0 0.00290026)
(0.00272452 0 0.00139589)
(0.00306434 0 0.00190153)
(0.00306462 0 0.0009093)
(0.00294913 0 -0.264402)
(0.00322651 0 -0.257265)
(0.00215209 0 -0.275969)
(0.00259973 0 -0.271134)
(0.00114304 0 -0.282005)
(0.001656 0 -0.280211)
(0.000171692 0 -0.28201)
(0.000616134 0 -0.283151)
(-0.000530274 0 -0.277043)
(-0.000249702 0 -0.280324)
(-0.000837813 0 -0.268965)
(-0.000753427 0 -0.273438)
(-0.000727432 0 -0.259363)
(-0.000835081 0 -0.264438)
(-0.00019766 0 -0.248934)
(-0.000503592 0 -0.254516)
(0.000819794 0 -0.237683)
(0.000252955 0 -0.243884)
(0.00251168 0 -0.225996)
(0.00155406 0 -0.232397)
(0.00518592 0 -0.216765)
(0.0036445 0 -0.221052)
(0.00921152 0 -0.219308)
(0.00681725 0 -0.214686)
(0.0145557 0 -0.253802)
(0.0116306 0 -0.226973)
(0.0188439 0 -0.342669)
(0.016967 0 -0.283682)
(0.0138895 0 -0.461122)
(0.0199957 0 -0.401307)
(-0.00539902 0 -0.502789)
(0.0065459 0 -0.513066)
(-0.0208303 0 -0.409191)
(-0.0167952 0 -0.481329)
(-0.0209964 0 -0.266076)
(-0.023404 0 -0.331927)
(-0.015138 0 -0.165897)
(-0.0177043 0 -0.201956)
(-0.00991398 0 -0.116323)
(-0.0119914 0 -0.133415)
(-0.00684348 0 -0.0971765)
(-0.00796728 0 -0.105)
(-0.00470256 0 -0.0862077)
(-0.00549562 0 -0.0918272)
(-0.0031493 0 -0.0774833)
(-0.00369142 0 -0.082437)
(-0.00197308 0 -0.0693088)
(-0.00234408 0 -0.0740033)
(-0.00105051 0 -0.061356)
(-0.00129344 0 -0.0658446)
(-0.00030759 0 -0.0536698)
(-0.000450172 0 -0.0579248)
(0.000302049 0 -0.0463484)
(0.000240531 0 -0.0503396)
(0.000808873 0 -0.0394662)
(0.000814437 0 -0.043175)
(0.00123405 0 -0.033067)
(0.00129598 0 -0.0364853)
(0.0015928 0 -0.0271723)
(0.00170271 0 -0.0302989)
(0.00189652 0 -0.0217898)
(0.00204756 0 -0.0246275)
(0.00215403 0 -0.0169188)
(0.0023405 0 -0.0194726)
(0.00237232 0 -0.0125537)
(0.00258942 0 -0.0148298)
(0.00255714 0 -0.00868638)
(0.00280071 0 -0.0106914)
(0.00271328 0 -0.00530741)
(0.00297973 0 -0.00704807)
(0.00284487 0 -0.00240682)
(0.00313103 0 -0.00388998)
(0.00295544 0 2.6387e-05)
(0.00325854 0 -0.00120666)
(0.00304801 0 0.00200503)
(0.00336563 0 0.0010137)
(0.00312519 0 0.00354451)
(0.00345521 0 0.0027851)
(0.00318924 0 0.00466361)
(0.00352978 0 0.0041245)
(0.0032421 0 0.00538536)
(0.00359153 0 0.00505261)
(0.00328538 0 0.00573794)
(0.00364231 0 0.00559489)
(0.00332041 0 0.00575542)
(0.00368366 0 0.00578241)
(0.00334822 0 0.00547806)
(0.00371683 0 0.00565247)
(0.00336962 0 0.00495143)
(0.00374278 0 0.00524847)
(0.00338522 0 0.00422461)
(0.00376228 0 0.00461843)
(0.00339561 0 0.00334884)
(0.00377599 0 0.00381251)
(0.00340156 0 0.00238302)
(0.0037844 0 0.00288263)
(0.00340419 0 0.00139124)
(0.00378951 0 0.00189333)
(0.00379004 0 0.000907068)
(0.00287975 0 -0.263996)
(0.00312357 0 -0.256981)
(0.00210443 0 -0.275375)
(0.00251557 0 -0.270617)
(0.00112736 0 -0.281356)
(0.00160392 0 -0.279559)
(0.000191192 0 -0.281464)
(0.000603516 0 -0.282527)
(-0.000478348 0 -0.276717)
(-0.000224212 0 -0.279877)
(-0.00075686 0 -0.268909)
(-0.000695388 0 -0.273253)
(-0.00061754 0 -0.259588)
(-0.000747946 0 -0.264531)
(-5.74643e-05 0 -0.249462)
(-0.000387588 0 -0.254889)
(0.00098557 0 -0.238594)
(0.000396736 0 -0.24458)
(0.00268237 0 -0.227449)
(0.00171304 0 -0.233529)
(0.00531046 0 -0.218969)
(0.00378915 0 -0.222805)
(0.00918946 0 -0.22235)
(0.00687593 0 -0.217272)
(0.0141964 0 -0.256856)
(0.0114694 0 -0.230311)
(0.0179277 0 -0.342328)
(0.0164098 0 -0.286169)
(0.012893 0 -0.453267)
(0.0187112 0 -0.397951)
(-0.004976 0 -0.491624)
(0.00602028 0 -0.501154)
(-0.0194479 0 -0.404077)
(-0.0154351 0 -0.471681)
(-0.0200295 0 -0.267812)
(-0.0220253 0 -0.331539)
(-0.0146447 0 -0.169476)
(-0.0170232 0 -0.205546)
(-0.00961068 0 -0.11923)
(-0.0115535 0 -0.136771)
(-0.00658445 0 -0.0993324)
(-0.00762393 0 -0.10747)
(-0.00443871 0 -0.0878273)
(-0.0051682 0 -0.0936637)
(-0.00285609 0 -0.0787507)
(-0.00334643 0 -0.0838579)
(-0.00163929 0 -0.0703397)
(-0.00196694 0 -0.0751492)
(-0.000672106 0 -0.0622201)
(-0.000876264 0 -0.0668)
(0.000115556 0 -0.05441)
(9.15204e-06 0 -0.058741)
(0.000767902 0 -0.0469922)
(0.000741328 0 -0.0510486)
(0.00131441 0 -0.040032)
(0.00135457 0 -0.0437981)
(0.00177574 0 -0.0335675)
(0.00187255 0 -0.037037)
(0.00216702 0 -0.0276171)
(0.00231244 0 -0.0307897)
(0.00249976 0 -0.0221859)
(0.00268714 0 -0.0250653)
(0.00278295 0 -0.0172716)
(0.00300671 0 -0.0198635)
(0.00302386 0 -0.0128678)
(0.00327923 0 -0.0151786)
(0.00322848 0 -0.0089654)
(0.00351131 0 -0.0110021)
(0.00340189 0 -0.00555471)
(0.00370854 0 -0.00732426)
(0.00354846 0 -0.00262535)
(0.00387571 0 -0.00413477)
(0.00367194 0 -0.000166042)
(0.00401697 0 -0.00142287)
(0.00377554 0 0.00183628)
(0.00413588 0 0.000823495)
(0.00386208 0 0.00339721)
(0.00423553 0 0.00261855)
(0.00393398 0 0.00453574)
(0.0043186 0 0.00397941)
(0.00399333 0 0.00527513)
(0.00438744 0 0.00492702)
(0.0040419 0 0.00564385)
(0.00444404 0 0.00548709)
(0.00408114 0 0.00567634)
(0.00449009 0 0.00569102)
(0.00411223 0 0.00541321)
(0.00452695 0 0.00557648)
(0.00413609 0 0.00490038)
(0.00455573 0 0.00518723)
(0.00415349 0 0.00418704)
(0.00457733 0 0.00457155)
(0.00416513 0 0.00332406)
(0.00459254 0 0.00377955)
(0.00417192 0 0.00236928)
(0.00460198 0 0.00286244)
(0.00417505 0 0.00138559)
(0.0046078 0 0.00188352)
(0.00460872 0 0.000904126)
(0.00276152 0 -0.263603)
(0.00296909 0 -0.256707)
(0.00201557 0 -0.274802)
(0.00238643 0 -0.27012)
(0.00107859 0 -0.280732)
(0.00151415 0 -0.278935)
(0.000185322 0 -0.280942)
(0.00056055 0 -0.281931)
(-0.000445491 0 -0.276413)
(-0.000222391 0 -0.279457)
(-0.000691111 0 -0.268874)
(-0.000655943 0 -0.273089)
(-0.000522571 0 -0.259832)
(-0.00067699 0 -0.264643)
(6.3781e-05 0 -0.250006)
(-0.00028871 0 -0.25528)
(0.0011248 0 -0.239512)
(0.000518944 0 -0.245287)
(0.00281581 0 -0.228882)
(0.00184308 0 -0.234656)
(0.00538733 0 -0.221105)
(0.00389606 0 -0.224519)
(0.00911504 0 -0.225232)
(0.00689446 0 -0.219757)
(0.0138023 0 -0.259628)
(0.0112711 0 -0.233436)
(0.0170433 0 -0.341802)
(0.0158481 0 -0.28833)
(0.0120022 0 -0.445857)
(0.0175325 0 -0.39459)
(-0.00453388 0 -0.481234)
(0.0055815 0 -0.49013)
(-0.0180616 0 -0.399159)
(-0.0141175 0 -0.462662)