/*--------------------------------*- C++ -*----------------------------------*\
  =========                 |
  \\      /  F ield         | OpenFOAM: The Open Source CFD Toolbox
   \\    /   O peration     | Website:  https://openfoam.org
    \\  /    A nd           | Version:  9
     \\/     M anipulation  |
\*---------------------------------------------------------------------------*/
FoamFile
{
    format      ascii;
    class       surfaceScalarField;
    location    "0.08";
    object      alphaPhi0.water;
}
// * * * * * * * * * * * * * * * * * * * * * * * * * * * * * * * * * * * * * //

dimensions      [0 3 -1 0 0 0 0];

internalField   nonuniform List<scalar> 
9850
(
2.20013e-55
-1.67364e-55
4.9476e-55
-2.48342e-55
1.13213e-54
-5.80876e-55
2.62422e-54
-1.39098e-54
6.1615e-54
-3.38124e-54
1.46487e-53
-8.33277e-54
3.52473e-53
-2.08081e-53
8.579e-53
-5.26301e-53
2.11092e-52
-1.34786e-52
5.24748e-52
-3.494e-52
1.31691e-51
-9.16486e-52
3.33387e-51
-2.43173e-51
8.50748e-51
-6.52469e-51
2.18718e-50
-1.76998e-50
5.6659e-50
-4.8547e-50
1.47965e-49
-1.34722e-49
3.85958e-49
-3.78596e-49
1.0048e-48
-1.06763e-48
2.60265e-48
-3.01809e-48
6.68562e-48
-8.51989e-48
1.69628e-47
-2.391e-47
4.21936e-47
-6.63274e-47
1.00987e-46
-1.8018e-46
2.21292e-46
-4.69491e-46
3.90849e-46
-1.11435e-45
3.80172e-46
-2.11734e-45
-4.4375e-46
-2.19711e-45
-7.12938e-46
2.71011e-45
-1.05834e-44
4.14944e-44
-8.67937e-44
5.26986e-43
-1.24428e-42
7.70655e-42
-1.35141e-41
7.71654e-41
-1.86758e-40
1.05197e-39
-2.76628e-39
1.51149e-38
-4.1835e-38
2.20113e-37
-6.30101e-37
3.18572e-36
-9.46617e-36
4.55008e-35
-1.40314e-34
6.38528e-34
-1.98038e-33
8.71141e-33
-2.6259e-32
1.1476e-31
-3.35969e-31
1.47028e-30
-4.28532e-30
1.85978e-29
-5.48932e-29
2.34823e-28
-6.98591e-28
2.96002e-27
-8.79513e-27
3.69903e-26
-1.09761e-25
4.56029e-25
-1.36059e-24
5.54859e-24
-1.72504e-23
6.73707e-23
-2.08234e-22
8.31504e-22
1.03793e-20
1.14876e-54
-8.71158e-55
2.57001e-54
-1.28214e-54
5.84575e-54
-2.98455e-54
1.34626e-53
-7.10516e-54
3.13826e-53
-1.71586e-53
7.4009e-53
-4.19718e-53
1.76455e-52
-1.03919e-52
4.25068e-52
-2.60294e-52
1.03392e-51
-6.5927e-52
2.53783e-51
-1.68785e-51
6.28272e-51
-4.36674e-51
1.5679e-50
-1.14143e-50
3.9425e-50
-3.01422e-50
9.98427e-50
-8.04128e-50
2.54529e-49
-2.16718e-49
6.52828e-49
-5.89949e-49
1.68402e-48
-1.62151e-48
4.33669e-48
-4.49776e-48
1.11253e-47
-1.24914e-47
2.83357e-47
-3.46325e-47
7.13773e-47
-9.5424e-47
1.76942e-46
-2.59974e-46
4.27626e-46
-6.96028e-46
9.84686e-46
-1.81226e-45
2.04128e-45
-4.48097e-45
3.29227e-45
-9.93393e-45
2.18616e-45
-1.70515e-44
-1.04685e-44
-1.19839e-44
-1.30054e-44
6.03835e-44
-1.19412e-43
8.12673e-43
-2.3267e-42
1.19023e-41
-2.74693e-41
1.3317e-40
-3.71754e-40
1.81472e-39
-5.12045e-39
2.47008e-38
-7.13515e-38
3.34559e-37
-1.00285e-36
4.53529e-36
-1.42608e-35
6.1595e-35
-2.02042e-34
8.32474e-34
-2.77813e-33
1.10778e-32
-3.66039e-32
1.44519e-31
-4.68413e-31
1.85005e-30
-5.9691e-30
2.3423e-29
-7.66069e-29
2.96365e-28
-9.80054e-28
3.75012e-27
-1.23062e-26
4.68464e-26
-1.50668e-25
5.70537e-25
-1.81097e-24
6.79005e-24
-2.15561e-23
8.06534e-23
-2.60499e-22
9.86102e-22
1.29496e-20
5.50474e-54
-4.14383e-54
1.22755e-53
-6.07163e-54
2.78196e-53
-1.40971e-53
6.37923e-53
-3.34188e-53
1.4794e-52
-8.02918e-53
3.46736e-52
-1.95207e-52
8.20659e-52
-4.79831e-52
1.95993e-51
-1.19163e-51
4.71981e-51
-2.98803e-51
1.14539e-50
-7.5614e-51
2.79988e-50
-1.9304e-50
6.89221e-50
-4.97114e-50
1.70831e-49
-1.29137e-49
4.26335e-49
-3.38477e-49
1.07112e-48
-8.9535e-49
2.70766e-48
-2.39023e-48
6.87809e-48
-6.43597e-48
1.75052e-47
-1.74522e-47
4.44877e-47
-4.74925e-47
1.1243e-46
-1.29177e-46
2.8128e-46
-3.4946e-46
6.93441e-46
-9.3545e-46
1.6753e-45
-2.46528e-45
3.92477e-45
-6.3597e-45
8.68516e-45
-1.58899e-44
1.69499e-44
-3.74528e-44
2.42812e-44
-7.77343e-44
3.7619e-45
-1.18196e-43
-1.82445e-43
-1.93946e-44
-1.38672e-43
9.94251e-43
-3.53184e-42
1.35951e-41
-4.30984e-41
1.76203e-40
-5.5142e-40
2.32841e-39
-7.03993e-39
3.00003e-38
-9.12408e-38
3.85379e-37
-1.2161e-36
5.02408e-36
-1.66428e-35
6.64497e-35
-2.30001e-34
8.80794e-34
-3.12574e-33
1.16344e-32
-4.10933e-32
1.51451e-31
-5.26828e-31
1.94017e-30
-6.73294e-30
2.46187e-29
-8.67152e-29
3.12421e-28
-1.11156e-27
3.95957e-27
-1.39031e-26
4.93476e-26
-1.68505e-25
5.97558e-25
-1.99837e-24
7.08602e-24
-2.36541e-23
8.45893e-23
-2.95582e-22
1.05647e-21
1.42726e-20
2.41842e-53
-1.8056e-53
5.38259e-53
-2.64013e-53
1.21702e-52
-6.11747e-53
2.78271e-52
-1.44488e-52
6.42986e-52
-3.45595e-52
1.49992e-51
-8.35788e-52
3.52921e-51
-2.0413e-51
8.36811e-51
-5.03052e-51
1.99778e-50
-1.24984e-50
4.79888e-50
-3.12841e-50
1.15931e-49
-7.88483e-50
2.81622e-49
-2.00056e-49
6.88031e-49
-5.11012e-49
1.69124e-48
-1.31459e-48
4.18447e-48
-3.40778e-48
1.04217e-47
-8.90583e-48
2.61077e-47
-2.34626e-47
6.56564e-47
-6.22482e-47
1.65257e-46
-1.65924e-46
4.14637e-46
-4.42831e-46
1.03075e-45
-1.1782e-45
2.52801e-45
-3.10556e-45
6.08999e-45
-8.07625e-45
1.43292e-44
-2.06366e-44
3.25739e-44
-5.15404e-44
6.94208e-44
-1.24495e-43
1.28791e-43
-2.82265e-43
1.63509e-43
-5.5766e-43
-1.30929e-43
-7.54755e-43
-1.17675e-42
6.45072e-43
-3.92024e-42
1.81959e-41
-5.34868e-41
1.84572e-40
-6.54292e-40
2.44257e-39
-7.90289e-39
3.07176e-38
-9.83805e-38
3.90295e-37
-1.27663e-36
5.06329e-36
-1.71344e-35
6.67977e-35
-2.33172e-34
8.84561e-34
-3.14229e-33
1.15918e-32
-4.12849e-32
1.50483e-31
-5.31251e-31
1.92956e-30
-6.82399e-30
2.45577e-29
-8.82522e-29
3.12947e-28
-1.13109e-27
3.97764e-27
-1.40359e-26
4.94548e-26
-1.67891e-25
5.93945e-25
-1.97382e-24
6.99281e-24
-2.37698e-23
8.37803e-23
-3.07327e-22
1.06574e-21
1.4506e-20
9.84229e-53
-7.26885e-53
2.18298e-52
-1.05975e-52
4.91726e-52
-2.44629e-52
1.11991e-51
-5.75177e-52
2.57649e-51
-1.3688e-51
5.98149e-51
-3.29144e-51
1.39974e-50
-7.98741e-51
3.29733e-50
-1.95399e-50
7.81027e-50
-4.81251e-50
1.85861e-49
-1.19209e-49
4.44087e-49
-2.96766e-49
1.06518e-48
-7.42133e-49
2.56557e-48
-1.8642e-48
6.21013e-48
-4.70583e-48
1.51234e-47
-1.19481e-47
3.70883e-47
-3.05468e-47
9.1594e-47
-7.87076e-47
2.2735e-46
-2.04361e-46
5.65513e-46
-5.33577e-46
1.40378e-45
-1.39663e-45
3.45859e-45
-3.64953e-45
8.41956e-45
-9.47081e-45
2.01809e-44
-2.43078e-44
4.75016e-44
-6.15228e-44
1.09417e-43
-1.53249e-43
2.44076e-43
-3.74614e-43
5.12454e-43
-8.89697e-43
9.39015e-43
-1.99587e-42
1.11436e-42
-3.92201e-42
-2.15971e-42
-5.01217e-42
-6.71007e-42
1.22951e-41
-5.17406e-41
2.19026e-40
-6.67294e-40
2.35952e-39
-7.84982e-39
2.97132e-38
-9.55983e-38
3.67012e-37
-1.22502e-36
4.68864e-36
-1.63003e-35
6.1307e-35
-2.20399e-34
8.06169e-34
-2.95983e-33
1.05573e-32
-3.88984e-32
1.37086e-31
-5.02134e-31
1.76169e-30
-6.47872e-30
2.25055e-29
-8.40539e-29
2.87874e-28
-1.076e-27
3.6615e-27
-1.32632e-26
4.53528e-26
-1.57311e-25
5.41848e-25
-1.84671e-24
6.38847e-24
-2.27203e-23
7.78726e-23
-3.00368e-22
1.02207e-21
1.40859e-20
3.68898e-52
-2.69357e-52
8.15564e-52
-3.91128e-52
1.83059e-51
-8.99443e-52
4.15433e-51
-2.10602e-51
9.52197e-51
-4.98973e-51
2.2015e-50
-1.19397e-50
5.12725e-50
-2.88124e-50
1.20115e-49
-7.00207e-50
2.82665e-49
-1.71128e-49
6.674e-49
-4.20052e-49
1.57949e-48
-1.03438e-48
3.7451e-48
-2.55316e-48
8.89748e-48
-6.31454e-48
2.11951e-47
-1.56517e-47
5.06884e-47
-3.89134e-47
1.21866e-46
-9.7169e-47
2.94802e-46
-2.44047e-46
7.17306e-46
-6.17065e-46
1.75238e-45
-1.57028e-45
4.28375e-45
-4.01487e-45
1.0431e-44
-1.02808e-44
2.5191e-44
-2.62554e-44
6.01374e-44
-6.6615e-44
1.41678e-43
-1.67476e-43
3.29262e-43
-4.16842e-43
7.53758e-43
-1.02757e-42
1.68674e-42
-2.50703e-42
3.60166e-42
-6.01141e-42
6.84811e-42
-1.38364e-41
8.55281e-42
-2.85486e-41
-2.46888e-41
-4.55789e-41
-8.87099e-41
1.39477e-40
-5.76968e-40
2.27974e-39
-7.17607e-39
2.4936e-38
-8.5384e-38
3.11174e-37
-1.07696e-36
3.92233e-36
-1.42056e-35
5.1036e-35
-1.90996e-34
6.69938e-34
-2.5607e-33
8.7791e-33
-3.37457e-32
1.1435e-31
-4.38225e-31
1.47654e-30
-5.68929e-30
1.89633e-29
-7.39735e-29
2.4334e-28
-9.42543e-28
3.08964e-27
-1.1507e-26
3.80677e-26
-1.35705e-25
4.54308e-25
-1.61576e-24
5.42829e-24
-2.06859e-23
6.82402e-23
-2.79676e-22
9.23487e-22
1.26807e-20
1.26588e-51
-9.14488e-52
2.79123e-51
-1.32421e-51
6.24893e-51
-3.0357e-51
1.41447e-50
-7.08319e-51
3.23316e-50
-1.6719e-50
7.45217e-50
-3.98407e-50
1.7293e-49
-9.56893e-50
4.0333e-49
-2.31263e-49
9.43897e-49
-5.61471e-49
2.21291e-48
-1.36712e-48
5.19006e-48
-3.33324e-48
1.21654e-47
-8.12718e-48
2.84872e-47
-1.97995e-47
6.66663e-47
-4.81841e-47
1.56104e-46
-1.17199e-46
3.66429e-46
-2.85316e-46
8.64031e-46
-6.96648e-46
2.04969e-45
-1.70992e-45
4.89244e-45
-4.22633e-45
1.17301e-44
-1.05227e-44
2.81576e-44
-2.63535e-44
6.74113e-44
-6.61965e-44
1.60421e-43
-1.66208e-43
3.78762e-43
-4.16036e-43
8.87299e-43
-1.0371e-42
2.06528e-42
-2.5773e-42
4.77923e-42
-6.40039e-42
1.09428e-41
-1.5909e-41
2.43167e-41
-3.94303e-41
4.93406e-41
-9.56802e-41
7.3628e-41
-2.50212e-40
-2.13274e-40
-4.0057e-40
-1.09443e-39
1.25499e-39
-5.21152e-39
2.08697e-38
-6.87188e-38
2.26021e-37
-8.74084e-37
3.05403e-36
-1.15775e-35
4.02452e-35
-1.56349e-34
5.34585e-34
-2.10362e-33
7.0585e-33
-2.7844e-32
9.23992e-32
-3.63564e-31
1.19753e-30
-4.73994e-30
1.54266e-29
-6.16051e-29
1.9818e-28
-7.80904e-28
2.51241e-27
-9.48877e-27
3.09159e-26
-1.12348e-25
3.70654e-25
-1.36341e-24
4.48774e-24
-1.79508e-23
5.73738e-23
-2.43281e-22
7.8089e-22
1.05103e-20
3.99219e-51
-2.86589e-51
8.77304e-51
-4.13124e-51
1.9583e-50
-9.43422e-51
4.42036e-50
-2.19257e-50
1.00755e-49
-5.15435e-50
2.31532e-49
-1.22305e-49
5.35431e-49
-2.92395e-49
1.24366e-48
-7.02975e-49
2.89555e-48
-1.69629e-48
6.74388e-48
-4.0999e-48
1.56826e-47
-9.90613e-48
3.63559e-47
-2.38843e-47
8.39349e-47
-5.73829e-47
1.92951e-46
-1.37268e-46
4.42066e-46
-3.26974e-46
1.01152e-45
-7.76514e-46
2.31867e-45
-1.84305e-45
5.34205e-45
-4.38681e-45
1.24012e-44
-1.05088e-44
2.90292e-44
-2.54065e-44
6.84357e-44
-6.20545e-44
1.62039e-43
-1.52978e-43
3.84116e-43
-3.79755e-43
9.09343e-43
-9.46844e-43
2.14791e-42
-2.3672e-42
5.0667e-42
-5.93506e-42
1.19619e-41
-1.49545e-41
2.83078e-41
-3.80008e-41
6.69477e-41
-9.76662e-41
1.55713e-40
-2.53446e-40
3.7003e-40
-7.64537e-40
5.87904e-40
-1.9675e-39
-1.76874e-39
-3.41441e-39
-1.04812e-38
1.12178e-38
-4.67148e-38
1.86859e-37
-6.66001e-37
2.18501e-36
-9.0166e-36
3.05738e-35
-1.23114e-34
4.12976e-34
-1.66845e-33
5.5127e-33
-2.22077e-32
7.26208e-32
-2.9144e-31
9.44845e-31
-3.81086e-30
1.22022e-29
-4.94658e-29
1.56857e-28
-6.24259e-28
1.98554e-27
-7.56917e-27
2.43991e-26
-9.01094e-26
2.93254e-25
-1.10808e-24
3.5747e-24
-1.47859e-23
4.598e-23
-1.98815e-22
6.24392e-22
8.274e-21
1.16381e-50
-8.34424e-51
2.54524e-50
-1.19393e-50
5.65697e-50
-2.71179e-50
1.27187e-49
-6.27006e-50
2.88813e-49
-1.46668e-49
6.61217e-49
-3.46322e-49
1.52318e-48
-8.23834e-49
3.52282e-48
-1.97021e-48
8.16103e-48
-4.72639e-48
1.88917e-47
-1.13471e-47
4.35956e-47
-2.71993e-47
1.00078e-46
-6.495e-47
2.28161e-46
-1.54209e-46
5.1618e-46
-3.63541e-46
1.15923e-45
-8.50562e-46
2.58909e-45
-1.97651e-45
5.77045e-45
-4.57216e-45
1.28919e-44
-1.0569e-44
2.90075e-44
-2.45333e-44
6.59763e-44
-5.74736e-44
1.51947e-43
-1.36418e-43
3.54162e-43
-3.28708e-43
8.33606e-43
-8.03895e-43
1.97585e-42
-1.99206e-42
4.70519e-42
-4.99153e-42
1.12457e-41
-1.26313e-41
2.69897e-41
-3.22899e-41
6.51543e-41
-8.35563e-41
1.58438e-40
-2.19598e-40
3.87376e-40
-5.87965e-40
1.03884e-39
-1.87273e-39
2.53235e-39
-5.4754e-39
3.70085e-39
-1.46814e-38
-1.92795e-38
-2.35683e-38
-4.75223e-38
1.32725e-37
-4.60976e-37
1.6253e-36
-6.71033e-36
2.20187e-35
-9.34654e-35
3.07216e-34
-1.28129e-33
4.17294e-33
-1.71768e-32
5.54547e-32
-2.26513e-31
7.24513e-31
-2.96817e-30
9.37528e-30
-3.84619e-29
1.20513e-28
-4.83443e-28
1.52227e-27
-5.85058e-27
1.86596e-26
-6.98584e-26
2.24184e-25
-8.64129e-25
2.73728e-24
-1.15785e-23
3.52356e-23
-1.54451e-22
4.77102e-22
6.26416e-21
3.15231e-50
-2.27168e-50
6.8488e-50
-3.21347e-50
1.51323e-49
-7.24739e-50
3.38396e-49
-1.66494e-49
7.64616e-49
-3.87119e-49
1.74236e-48
-9.08877e-49
3.99548e-48
-2.15012e-48
9.19818e-48
-5.11384e-48
2.12039e-47
-1.21986e-47
4.88129e-47
-2.91098e-47
1.11911e-46
-6.93103e-47
2.54865e-46
-1.64235e-46
5.75299e-46
-3.86391e-46
1.28522e-45
-9.0088e-46
2.84056e-45
-2.07931e-45
6.21822e-45
-4.75148e-45
1.35223e-44
-1.07674e-44
2.93507e-44
-2.42807e-44
6.39716e-44
-5.47685e-44
1.40888e-43
-1.2436e-43
3.15161e-43
-2.86112e-43
7.18203e-43
-6.70541e-43
1.66786e-42
-1.60595e-42
3.93959e-42
-3.93329e-42
9.43622e-42
-9.83897e-42
2.28484e-41
-2.50846e-41
5.57997e-41
-6.50655e-41
1.37313e-40
-1.71593e-40
3.40598e-40
-4.60503e-40
8.52512e-40
-1.26039e-39
2.38495e-39
-4.12062e-39
6.47873e-39
-1.26193e-38
1.50729e-38
-3.78654e-38
1.1672e-38
-9.70777e-38
-2.14437e-37
-8.13659e-38
-3.50575e-37
1.25488e-36
-4.6972e-36
1.46297e-35
-6.82988e-35
2.1799e-34
-9.55683e-34
3.0666e-33
-1.29279e-32
4.12294e-32
-1.71269e-31
5.41048e-31
-2.2471e-30
7.01073e-30
-2.90493e-29
9.00321e-29
-3.63539e-28
1.13368e-27
-4.38619e-27
1.38429e-26
-5.23748e-26
1.65903e-25
-6.49035e-25
2.02465e-24
-8.71703e-24
2.60621e-23
-1.15786e-22
3.52264e-22
4.57977e-21
7.98898e-50
-5.83154e-50
1.72083e-49
-8.11678e-50
3.7732e-49
-1.81445e-49
8.37937e-49
-4.13545e-49
1.8814e-48
-9.54563e-49
4.26244e-48
-2.22609e-48
9.72216e-48
-5.23344e-48
2.22691e-47
-1.23745e-47
5.10846e-47
-2.9354e-47
1.17022e-46
-6.96688e-47
2.669e-46
-1.64978e-46
6.04328e-46
-3.88704e-46
1.3549e-45
-9.08818e-46
3.00168e-45
-2.10387e-45
6.56382e-45
-4.8145e-45
1.41703e-44
-1.08845e-44
3.02607e-44
-2.43289e-44
6.41772e-44
-5.38988e-44
1.35983e-43
-1.18882e-43
2.90038e-43
-2.6272e-43
6.2774e-43
-5.86271e-43
1.3884e-42
-1.33195e-42
3.15237e-42
-3.103e-42
7.3568e-42
-7.44832e-42
1.76135e-41
-1.84525e-41
4.30869e-41
-4.71282e-41
1.0717e-40
-1.23733e-40
2.69812e-40
-3.32841e-40
6.85209e-40
-9.14922e-40
1.7525e-39
-2.56639e-39
5.01163e-39
-8.58161e-39
1.40888e-38
-2.69054e-38
3.64431e-38
-8.36725e-38
6.68918e-38
-2.38694e-37
-8.79961e-38
-4.73961e-37
-8.79754e-37
6.53412e-37
-3.0294e-36
8.86242e-36
-4.78346e-35
1.46526e-34
-6.90882e-34
2.17704e-33
-9.44893e-33
2.96502e-32
-1.2578e-31
3.91147e-31
-1.65156e-30
5.07483e-30
-2.12883e-29
6.50721e-29
-2.65071e-28
8.16237e-28
-3.18494e-27
9.92391e-27
-3.79943e-26
1.18675e-25
-4.71589e-25
1.44825e-24
-6.34813e-24
1.86276e-23
-8.36276e-23
2.50209e-22
3.19544e-21
1.91309e-49
-1.42688e-49
4.07639e-49
-1.94389e-49
8.85303e-49
-4.29839e-49
1.94895e-48
-9.70269e-49
4.34135e-48
-2.21994e-48
9.76557e-48
-5.13563e-48
2.21321e-47
-1.19865e-47
5.04066e-47
-2.81591e-47
1.15049e-46
-6.64138e-47
2.62369e-46
-1.56828e-46
5.95996e-46
-3.69723e-46
1.34445e-45
-8.67682e-46
3.00308e-45
-2.02147e-45
6.62588e-45
-4.66348e-45
1.44149e-44
-1.06321e-44
3.09008e-44
-2.39254e-44
6.53191e-44
-5.3135e-44
1.36504e-43
-1.16617e-43
2.83366e-43
-2.53724e-43
5.88444e-43
-5.50098e-43
1.23349e-42
-1.19728e-42
2.63637e-42
-2.64019e-42
5.79958e-42
-5.95901e-42
1.3219e-41
-1.38978e-41
3.12917e-41
-3.37251e-41
7.67479e-41
-8.53955e-41
1.93877e-40
-2.25302e-40
5.00497e-40
-6.16513e-40
1.30975e-39
-1.73912e-39
3.4503e-39
-5.02704e-39
1.01178e-38
-1.73036e-38
2.88485e-38
-5.55795e-38
7.67988e-38
-1.75131e-37
1.66688e-37
-5.13538e-37
1.11745e-37
-1.20359e-36
-1.44409e-36
-8.4344e-37
-1.85257e-36
7.10766e-36
-3.20348e-35
9.33576e-35
-4.78826e-34
1.48981e-33
-6.62222e-33
2.07253e-32
-8.86636e-32
2.75656e-31
-1.16496e-30
3.58239e-30
-1.49561e-29
4.584e-29
-1.85202e-28
5.73026e-28
-2.22294e-27
6.96176e-27
-2.66186e-26
8.35346e-26
-3.31568e-25
1.02212e-24
-4.44758e-24
1.30805e-23
-5.75531e-23
1.72938e-22
2.16895e-21
4.38138e-49
-3.36913e-49
9.21369e-49
-4.46825e-49
1.97779e-48
-9.7519e-49
4.30746e-48
-2.17588e-48
9.50145e-48
-4.92565e-48
2.11856e-47
-1.12857e-47
4.76427e-47
-2.61154e-47
1.07786e-46
-6.08933e-47
2.44644e-46
-1.4271e-46
5.55437e-46
-3.35258e-46
1.25754e-45
-7.87249e-46
2.8304e-45
-1.84246e-45
6.31406e-45
-4.28558e-45
1.39228e-44
-9.88102e-45
3.02788e-44
-2.25315e-44
6.48511e-44
-5.07273e-44
1.36742e-43
-1.12664e-43
2.84166e-43
-2.46904e-43
5.8373e-43
-5.34821e-43
1.19157e-42
-1.14907e-42
2.43643e-42
-2.46277e-42
5.0434e-42
-5.30901e-42
1.0702e-41
-1.16357e-41
2.35721e-41
-2.62558e-41
5.4402e-41
-6.17677e-41
1.32023e-40
-1.52967e-40
3.35731e-40
-4.00403e-40
8.86362e-40
-1.10499e-39
2.39876e-39
-3.18993e-39
6.56004e-39
-9.52943e-39
1.9903e-38
-3.3987e-38
5.77634e-38
-1.12594e-37
1.56235e-37
-3.59939e-37
3.60677e-37
-1.06918e-36
4.66255e-37
-2.65817e-36
-8.77021e-37
-3.58196e-36
-1.45187e-36
5.48383e-36
-2.03273e-35
5.70716e-35
-3.31784e-34
1.03077e-33
-4.75185e-33
1.57757e-32
-6.41922e-32
2.12633e-31
-8.42423e-31
2.76625e-30
-1.07599e-29
3.53072e-29
-1.33173e-28
4.40993e-28
-1.60884e-27
5.38192e-27
-1.94519e-26
6.49689e-26
-2.42548e-25
7.94976e-25
-3.19202e-24
1.00419e-23
-3.90018e-23
1.29247e-22
1.61575e-21
9.73056e-49
-7.77631e-49
2.01475e-48
-9.99429e-49
4.26505e-48
-2.14774e-48
9.16921e-48
-4.72669e-48
1.99856e-47
-1.0565e-47
4.40849e-47
-2.39279e-47
9.82035e-47
-5.4802e-47
2.20384e-46
-1.26647e-46
4.9693e-46
-2.94613e-46
1.12261e-45
-6.8809e-46
2.53328e-45
-1.6091e-45
5.69276e-45
-3.75699e-45
1.27011e-44
-8.7338e-45
2.80544e-44
-2.0161e-44
6.1195e-44
-4.61021e-44
1.31559e-43
-1.04222e-43
2.78405e-43
-2.32604e-43
5.79838e-43
-5.12194e-43
1.19e-42
-1.1133e-42
2.41415e-42
-2.39305e-42
4.86889e-42
-5.10573e-42
9.84898e-42
-1.08784e-41
2.02333e-41
-2.33574e-41
4.28791e-41
-5.11777e-41
9.5308e-41
-1.16228e-40
2.25128e-40
-2.78165e-40
5.67787e-40
-7.10898e-40
1.51903e-39
-1.95004e-39
4.24172e-39
-5.7091e-39
1.20922e-38
-1.75793e-38
3.81063e-38
-6.51664e-38
1.13847e-37
-2.23107e-37
3.15503e-37
-7.30257e-37
7.63981e-37
-2.21277e-36
1.24057e-36
-5.75147e-36
-3.43695e-37
-9.70766e-36
-4.33494e-36
2.70257e-36
-1.27414e-35
4.29935e-35
-2.55141e-34
7.79531e-34
-3.92776e-33
1.4442e-32
-5.34244e-32
1.96077e-31
-7.00036e-31
2.54959e-30
-8.91254e-30
3.24921e-29
-1.1037e-28
4.05838e-28
-1.34254e-27
4.96536e-27
-1.63274e-26
6.01236e-26
-2.03357e-25
7.34612e-25
-2.58082e-24
9.23817e-24
-2.98104e-23
1.18141e-22
1.47852e-21
2.12884e-48
-1.78131e-48
4.32851e-48
-2.20616e-48
9.01364e-48
-4.65632e-48
1.90802e-47
-1.00854e-47
4.09944e-47
-2.221e-47
8.92527e-47
-4.96187e-47
1.96528e-46
-1.12252e-46
4.36678e-46
-2.56643e-46
9.76667e-46
-5.91674e-46
2.19285e-45
-1.37214e-45
4.92837e-45
-3.19268e-45
1.10548e-44
-7.43336e-45
2.46754e-44
-1.72709e-44
5.4651e-44
-3.9939e-44
1.19781e-43
-9.16979e-44
2.59186e-43
-2.08569e-43
5.52667e-43
-4.69127e-43
1.15995e-42
-1.0422e-42
2.39586e-42
-2.28573e-42
4.87603e-42
-4.95143e-42
9.80954e-42
-1.06141e-41
1.96255e-41
-2.25995e-41
3.94361e-41
-4.81009e-41
8.07938e-41
-1.03375e-40
1.72221e-40
-2.27705e-40
3.90645e-40
-5.24478e-40
9.59375e-40
-1.29153e-39
2.56079e-39
-3.45892e-39
7.30796e-39
-1.01149e-38
2.15921e-38
-3.17967e-38
7.08367e-38
-1.21732e-37
2.19722e-37
-4.31001e-37
6.29924e-37
-1.454e-36
1.60675e-36
-4.53134e-36
3.08656e-36
-1.23591e-35
1.76044e-36
-2.46092e-35
-7.68971e-36
-1.40664e-35
-1.02097e-35
5.21079e-35
-2.25638e-34
6.74829e-34
-3.79984e-33
1.44213e-32
-5.1916e-32
1.97807e-31
-6.77583e-31
2.56642e-30
-8.59087e-30
3.25908e-29
-1.06602e-28
4.06727e-28
-1.30948e-27
5.00057e-27
-1.60463e-26
6.09533e-26
-1.9807e-25
7.44009e-25
-2.49321e-24
9.22697e-24
-2.83405e-23
1.17172e-22
1.58289e-21
4.63504e-48
-4.07407e-48
9.24104e-48
-4.85488e-48
1.89002e-47
-1.00501e-47
3.9323e-47
-2.13936e-47
8.31188e-47
-4.63433e-47
1.78253e-46
-1.01948e-46
3.87175e-46
-2.27399e-46
8.50055e-46
-5.1339e-46
1.88227e-45
-1.17085e-45
4.19314e-45
-2.69157e-45
9.37268e-45
-6.22209e-45
2.09627e-44
-1.44282e-44
4.67797e-44
-3.34751e-44
1.03863e-43
-7.75103e-44
2.28804e-43
-1.78672e-43
4.98826e-43
-4.09083e-43
1.07378e-42
-9.28419e-43
2.27799e-42
-2.08509e-42
4.75675e-42
-4.62848e-42
9.77356e-42
-1.01499e-41
1.97809e-41
-2.19975e-41
3.95649e-41
-4.71979e-41
7.87319e-41
-1.00636e-40
1.57723e-40
-2.14729e-40
3.24207e-40
-4.63933e-40
7.02921e-40
-1.03412e-39
1.65605e-39
-2.44299e-39
4.31612e-39
-6.29596e-39
1.23532e-38
-1.80071e-38
3.74638e-38
-5.67299e-38
1.27792e-37
-2.22103e-37
4.13112e-37
-8.11235e-37
1.23056e-36
-2.82654e-36
3.29814e-36
-9.08561e-36
7.18249e-36
-2.59207e-35
8.13034e-36
-5.83441e-35
-6.83736e-36
-6.60198e-35
-1.30973e-35
5.14935e-35
-2.2404e-34
6.46499e-34
-4.04877e-33
1.57473e-32
-5.56654e-32
2.22864e-31
-7.2454e-31
2.88593e-30
-9.16327e-30
3.65895e-29
-1.13802e-28
4.56498e-28
-1.40268e-27
5.61896e-27
-1.7253e-26
6.85748e-26
-2.12504e-25
8.38445e-25
-2.5708e-24
1.04286e-23
-3.07417e-23
1.37329e-22
2.01679e-21
1.01059e-47
-9.33626e-48
1.97616e-47
-1.07288e-47
3.96999e-47
-2.1788e-47
8.11452e-47
-4.55742e-47
1.68571e-46
-9.70455e-47
3.55569e-46
-2.09975e-46
7.60513e-46
-4.61079e-46
1.64675e-45
-1.02612e-45
3.60305e-45
-2.31071e-45
7.94862e-45
-5.25564e-45
1.76378e-44
-1.20486e-44
3.92665e-44
-2.77779e-44
8.74738e-44
-6.42533e-44
1.94458e-43
-1.48762e-43
4.30202e-43
-3.43917e-43
9.44571e-43
-7.92073e-43
2.05293e-42
-1.81329e-42
4.40599e-42
-4.11798e-42
9.31865e-42
-9.26116e-42
1.93945e-41
-2.05995e-41
3.96998e-41
-4.52881e-41
7.99887e-41
-9.84348e-41
1.59241e-40
-2.11831e-40
3.15824e-40
-4.53263e-40
6.33569e-40
-9.72407e-40
1.318e-39
-2.12285e-39
2.95014e-39
-4.83031e-39
7.36051e-39
-1.18693e-38
2.06927e-38
-3.25733e-38
6.35669e-38
-1.00787e-37
2.24326e-37
-3.98291e-37
7.55747e-37
-1.49214e-36
2.33859e-36
-5.36078e-36
6.53669e-36
-1.77399e-35
1.55075e-35
-5.24876e-35
2.30389e-35
-1.28296e-34
-6.57808e-36
-1.90067e-34
-1.28881e-35
5.28844e-35
-2.1712e-34
6.75834e-34
-4.44172e-33
1.64598e-32
-6.33531e-32
2.59405e-31
-8.24388e-31
3.37527e-30
-1.04248e-29
4.28358e-29
-1.29764e-28
5.35799e-28
-1.60372e-27
6.62165e-27
-1.97637e-26
8.13408e-26
-2.44186e-25
1.00975e-24
-3.02847e-24
1.30031e-23
-3.94805e-23
1.79328e-22
2.77859e-21
2.22112e-47
-2.15181e-47
4.26526e-47
-2.39569e-47
8.42264e-47
-4.77515e-47
1.69177e-46
-9.82007e-47
3.45346e-46
-2.05589e-46
7.16021e-46
-4.37405e-46
1.50648e-45
-9.4493e-46
3.21251e-45
-2.07074e-45
6.93316e-45
-4.59778e-45
1.51167e-44
-1.03287e-44
3.32303e-44
-2.34362e-44
7.3486e-44
-5.36102e-44
1.6309e-43
-1.2338e-43
3.62319e-43
-2.85067e-43
8.03572e-43
-6.59743e-43
1.77423e-42
-1.5259e-42
3.88873e-42
-3.51881e-42
8.43692e-42
-8.07217e-42
1.80712e-41
-1.83813e-41
3.81267e-41
-4.1471e-41
7.91023e-41
-9.25713e-41
1.61279e-40
-2.04282e-40
3.23471e-40
-4.45727e-40
6.40463e-40
-9.63162e-40
1.26577e-39
-2.06897e-39
2.54979e-39
-4.46577e-39
5.4309e-39
-9.87976e-39
1.28277e-38
-2.31945e-38
3.47813e-38
-6.04438e-38
1.06556e-37
-1.80497e-37
3.85321e-37
-7.09233e-37
1.34706e-36
-2.69838e-36
4.31464e-36
-9.93934e-36
1.25018e-35
-3.36774e-35
3.15211e-35
-1.02569e-34
5.51328e-35
-2.6544e-34
7.3665e-36
-4.61783e-34
-1.45556e-34
-5.99877e-35
-2.06834e-34
7.06664e-34
-4.69457e-33
1.5626e-32
-7.17061e-32
2.9378e-31
-9.38053e-31
3.87212e-30
-1.18819e-29
4.92613e-29
-1.48236e-28
6.18028e-28
-1.83814e-27
7.67779e-27
-2.28648e-26
9.52995e-26
-2.8883e-25
1.207e-24
-3.7192e-24
1.59836e-23
-5.02653e-23
2.24815e-22
3.47656e-21
4.95789e-47
-5.02109e-47
9.35269e-47
-5.41929e-47
1.81592e-46
-1.06086e-46
3.58524e-46
-2.14697e-46
7.19273e-46
-4.42302e-46
1.4658e-45
-9.25888e-46
3.03257e-45
-1.9683e-45
6.36408e-45
-4.24663e-45
1.35327e-44
-9.29115e-45
2.91186e-44
-2.05932e-44
6.32996e-44
-4.6181e-44
1.38764e-43
-1.04629e-43
3.06118e-43
-2.3909e-43
6.77995e-43
-5.50033e-43
1.50374e-42
-1.2713e-42
3.33063e-42
-2.94564e-42
7.34533e-42
-6.82627e-42
1.60818e-41
-1.57844e-41
3.48497e-41
-3.63343e-41
7.4507e-41
-8.30803e-41
1.56708e-40
-1.88259e-40
3.23386e-40
-4.21957e-40
6.54199e-40
-9.33861e-40
1.29913e-39
-2.04059e-39
2.55004e-39
-4.4102e-39
5.02747e-39
-9.49042e-39
1.02905e-38
-2.06387e-38
2.30189e-38
-4.67729e-38
5.94483e-38
-1.15863e-37
1.78439e-37
-3.3005e-37
6.50871e-37
-1.26778e-36
2.34224e-36
-4.82219e-36
7.74483e-36
-1.80455e-35
2.31586e-35
-6.23217e-35
6.12155e-35
-1.94166e-34
1.21177e-34
-5.2427e-34
7.48235e-35
-1.0293e-33
-1.43259e-34
-6.16546e-34
-1.94248e-34
1.10997e-33
-4.8667e-33
1.43587e-32
-8.12025e-32
3.34598e-31
-1.07002e-30
4.48166e-30
-1.35678e-29
5.71028e-29
-1.69735e-28
7.18048e-28
-2.11782e-27
8.97068e-27
-2.66742e-26
1.12417e-25
-3.44651e-25
1.44293e-24
-4.50905e-24
1.93784e-23
-6.07889e-23
2.72549e-22
4.20109e-21
1.11732e-46
-1.17575e-46
2.07422e-46
-1.23804e-46
3.9686e-46
-2.3845e-46
7.71634e-46
-4.75801e-46
1.52373e-45
-9.66175e-46
3.05555e-45
-1.99278e-45
6.22068e-45
-4.1732e-45
1.28511e-44
-8.87043e-45
2.69189e-44
-1.91288e-44
5.71209e-44
-4.18196e-44
1.22646e-43
-9.26141e-44
2.66079e-43
-2.07553e-43
5.82281e-43
-4.70107e-43
1.28279e-42
-1.07457e-42
2.83857e-42
-2.4746e-42
6.29295e-42
-5.73033e-42
1.39326e-41
-1.33151e-41
3.07055e-41
-3.09637e-41
6.71248e-41
-7.18758e-41
1.44984e-40
-1.66099e-40
3.08269e-40
-3.80978e-40
6.42935e-40
-8.65049e-40
1.31233e-39
-1.93954e-39
2.62052e-39
-4.28834e-39
5.13844e-39
-9.35155e-39
1.00147e-38
-2.01861e-38
1.99309e-38
-4.3603e-38
4.24865e-38
-9.65595e-38
1.03727e-37
-2.2894e-37
3.00128e-37
-6.17938e-37
1.08719e-36
-2.28487e-36
3.99177e-36
-8.55774e-36
1.35704e-35
-3.22282e-35
4.17165e-35
-1.128e-34
1.14552e-34
-3.57458e-34
2.49528e-34
-9.96586e-34
2.60165e-34
-2.14605e-33
-1.47514e-34
-2.16594e-33
-2.94885e-34
1.19945e-33
-5.23163e-33
1.45696e-32
-9.48064e-32
3.93984e-31
-1.2594e-30
5.39671e-30
-1.59626e-29
6.87109e-29
-2.00191e-28
8.64444e-28
-2.50932e-27
1.08288e-26
-3.17396e-26
1.3613e-25
-4.1692e-25
1.75549e-24
-5.48154e-24
2.38856e-23
-7.35598e-23
3.36946e-22
5.25013e-21
2.5315e-46
-2.75122e-46
4.63326e-46
-2.8441e-46
8.7588e-46
-5.40253e-46
1.68163e-45
-1.06552e-45
3.27661e-45
-2.13768e-45
6.47961e-45
-4.35357e-45
1.30037e-44
-8.99807e-45
2.6477e-44
-1.88708e-44
5.46728e-44
-4.01489e-44
1.1443e-43
-8.6624e-44
2.42574e-43
-1.89447e-43
5.20305e-43
-4.19711e-43
1.12778e-42
-9.41172e-43
2.46626e-42
-2.13393e-42
5.43039e-42
-4.88536e-42
1.20102e-41
-1.12746e-41
2.65991e-41
-2.6178e-41
5.87885e-41
-6.09973e-41
1.29172e-40
-1.42245e-40
2.80964e-40
-3.30995e-40
6.02409e-40
-7.66045e-40
1.26786e-39
-1.75782e-39
2.61068e-39
-3.98729e-39
5.25196e-39
-8.92059e-39
1.03325e-38
-1.96704e-38
2.00142e-38
-4.2791e-38
3.89825e-38
-9.23347e-38
7.99018e-38
-2.01209e-37
1.84825e-37
-4.60966e-37
5.10453e-37
-1.18239e-36
1.80966e-36
-4.17072e-36
6.70709e-36
-1.517e-35
2.33054e-35
-5.68822e-35
7.33382e-35
-2.00373e-34
2.07488e-34
-6.42042e-34
4.84286e-34
-1.83068e-33
6.5533e-34
-4.20812e-33
-1.61872e-34
-5.50109e-33
-3.23066e-34
1.30548e-33
-5.90026e-33
1.75942e-32
-1.1438e-31
4.70264e-31
-1.53873e-30
6.69243e-30
-1.94968e-29
8.51851e-29
-2.44769e-28
1.07111e-27
-3.06411e-27
1.34068e-26
-3.85735e-26
1.68316e-25
-5.15787e-25
2.18267e-24
-6.85187e-24
3.0396e-23
-9.37557e-23
4.35461e-22
6.95948e-21
5.74619e-46
-6.4142e-46
1.03901e-45
-6.54348e-46
1.94494e-45
-1.22838e-45
3.69563e-45
-2.39964e-45
7.12123e-45
-4.76655e-45
1.39174e-44
-9.60544e-45
2.75873e-44
-1.96328e-44
5.54575e-44
-4.06983e-44
1.13038e-43
-8.55587e-44
2.33542e-43
-1.82382e-43
4.88867e-43
-3.94125e-43
1.03615e-42
-8.63136e-43
2.22169e-42
-1.91475e-42
4.81317e-42
-4.29973e-42
1.05185e-41
-9.76437e-42
2.3138e-41
-2.23953e-41
5.10906e-41
-5.17898e-41
1.12862e-40
-1.20487e-40
2.48465e-40
-2.8126e-40
5.42743e-40
-6.56812e-40
1.17092e-39
-1.52932e-39
2.48355e-39
-3.53836e-39
5.16112e-39
-8.10831e-39
1.04696e-38
-1.83626e-38
2.06548e-38
-4.09813e-38
3.98425e-38
-8.98056e-38
7.65158e-38
-1.94002e-37
1.52257e-37
-4.19196e-37
3.36046e-37
-9.37222e-37
8.82773e-37
-2.30185e-36
3.02591e-36
-7.72494e-36
1.11857e-35
-2.69887e-35
3.94181e-35
-9.96444e-35
1.26304e-34
-3.50487e-34
3.65273e-34
-1.12833e-33
8.94214e-34
-3.2609e-33
1.41965e-33
-7.82891e-33
7.90549e-35
-1.19856e-32
-4.19319e-33
-6.40727e-34
-6.83063e-33
2.04267e-32
-1.36307e-31
5.33938e-31
-1.8787e-30
8.08633e-30
-2.3832e-29
1.03193e-28
-2.99012e-28
1.29801e-27
-3.72736e-27
1.62392e-26
-4.68862e-26
2.0446e-25
-6.39989e-25
2.68832e-24
-8.68963e-24
3.83712e-23
-1.2395e-22
5.63678e-22
9.24923e-21
1.30228e-45
-1.48651e-45
2.33086e-45
-1.5026e-45
4.32855e-45
-2.79232e-45
8.15569e-45
-5.4121e-45
1.55724e-44
-1.06626e-44
3.01362e-44
-2.12991e-44
5.91125e-44
-4.31274e-44
1.17521e-43
-8.85169e-44
2.36781e-43
-1.84149e-43
4.83396e-43
-3.88291e-43
9.99705e-43
-8.29766e-43
2.09361e-42
-1.79681e-42
4.43742e-42
-3.94192e-42
9.51075e-42
-8.75821e-42
2.05882e-41
-1.96959e-41
4.49366e-41
-4.47925e-41
9.86591e-41
-1.02885e-40
2.17226e-40
-2.38255e-40
4.77872e-40
-5.54965e-40
1.04582e-39
-1.29661e-39
2.26625e-39
-3.0288e-39
4.8422e-39
-7.04996e-39
1.01528e-38
-1.63066e-38
2.07101e-38
-3.73546e-38
4.098e-38
-8.41077e-38
7.89555e-38
-1.85636e-37
1.50322e-37
-4.02545e-37
2.92886e-37
-8.67013e-37
6.22406e-37
-1.90783e-36
1.55789e-36
-4.52825e-36
5.12009e-36
-1.44945e-35
1.86478e-35
-4.83165e-35
6.60162e-35
-1.73842e-34
2.13964e-34
-6.05475e-34
6.27615e-34
-1.94534e-33
1.58468e-33
-5.65095e-33
2.80417e-33
-1.39316e-32
1.19206e-33
-2.37383e-32
-4.65164e-33
-9.68565e-33
-7.52287e-33
2.2732e-32
-1.53275e-31
5.64646e-31
-2.17396e-30
9.10674e-30
-2.76592e-29
1.16966e-28
-3.46866e-28
1.47363e-27
-4.32872e-27
1.84874e-26
-5.50456e-26
2.34765e-25
-7.56365e-25
3.12924e-24
-1.05591e-23
4.50541e-23
-1.5771e-22
6.79572e-22
1.13227e-20
2.94282e-45
-3.42482e-45
5.22124e-45
-3.43717e-45
9.63051e-45
-6.33053e-45
1.80161e-44
-1.21867e-44
3.41342e-44
-2.38416e-44
6.55063e-44
-4.72686e-44
1.27339e-43
-9.49437e-44
2.50729e-43
-1.93194e-43
5.00004e-43
-3.98232e-43
1.00976e-42
-8.31529e-43
2.06476e-42
-1.75873e-42
4.27404e-42
-3.76772e-42
8.95337e-42
-8.17504e-42
1.89713e-41
-1.7963e-41
4.06279e-41
-3.9961e-41
8.78297e-41
-8.99623e-41
1.91318e-40
-2.0479e-40
4.18858e-40
-4.70796e-40
9.18612e-40
-1.09106e-39
2.01003e-39
-2.54279e-39
4.36974e-39
-5.94269e-39
9.39795e-39
-1.38884e-38
1.98178e-38
-3.23705e-38
4.06435e-38
-7.46962e-38
8.07761e-38
-1.69483e-37
1.55848e-37
-3.76891e-37
2.95498e-37
-8.21679e-37
5.67884e-37
-1.77046e-36
1.17261e-36
-3.85981e-36
2.81056e-36
-8.93305e-36
8.81837e-36
-2.74284e-35
3.12834e-35
-8.70541e-35
1.10072e-34
-3.02688e-34
3.58017e-34
-1.03542e-33
1.05669e-33
-3.29786e-33
2.71388e-33
-9.55497e-33
5.15402e-33
-2.38613e-32
3.82231e-33
-4.35961e-32
-4.91875e-33
-3.10489e-32
-7.55226e-33
2.37828e-32
-1.61047e-31
5.53748e-31
-2.36772e-30
9.7234e-30
-3.02235e-29
1.25764e-28