/*--------------------------------*- C++ -*----------------------------------*\
  =========                 |
  \\      /  F ield         | OpenFOAM: The Open Source CFD Toolbox
   \\    /   O peration     | Website:  https://openfoam.org
    \\  /    A nd           | Version:  9
     \\/     M anipulation  |
\*---------------------------------------------------------------------------*/
FoamFile
{
    format      ascii;
    class       volScalarField;
    location    "0.08";
    object      alpha.water;
}
// * * * * * * * * * * * * * * * * * * * * * * * * * * * * * * * * * * * * * //

dimensions      [0 0 0 0 0 0 0];

internalField   nonuniform List<scalar> 
5000
(
-8.64335e-50
-9.76505e-50
-2.20437e-49
-5.06713e-49
-1.18069e-48
-2.78894e-48
-6.67726e-48
-1.61991e-47
-3.98094e-47
-9.90693e-47
-2.49575e-46
-6.36196e-46
-1.64022e-45
-4.27486e-45
-1.12588e-44
-2.99684e-44
-8.06344e-44
-2.17155e-43
-5.84292e-43
-1.56359e-42
-4.14075e-42
-1.07873e-41
-2.73882e-41
-6.63993e-41
-1.46048e-40
-2.56299e-40
-2.45006e-40
3.05144e-41
2.60494e-39
2.75088e-38
3.1706e-37
2.34033e-36
2.84959e-35
4.01792e-34
6.1117e-33
9.37666e-32
1.41964e-30
2.12772e-29
3.07836e-28
4.1566e-27
5.30806e-26
6.66095e-25
8.32666e-24
1.02301e-22
1.23259e-21
1.48604e-20
1.80349e-19
2.18421e-18
2.6656e-17
3.04888e-16
-4.52266e-49
-5.06153e-49
-1.13742e-48
-2.59998e-48
-6.02068e-48
-1.41223e-47
-3.35422e-47
-8.06336e-47
-1.96109e-46
-4.82358e-46
-1.19946e-45
-3.01443e-45
-7.65393e-45
-1.96273e-44
-5.08049e-44
-1.32638e-43
-3.4886e-43
-9.23204e-43
-2.43694e-42
-6.39367e-42
-1.6592e-41
-4.2368e-41
-1.05818e-40
-2.55913e-40
-5.855e-40
-1.19725e-39
-1.89099e-39
-1.22084e-39
1.09291e-39
2.80783e-38
4.8963e-37
4.2318e-36
5.54302e-35
7.70444e-34
1.09939e-32
1.57153e-31
2.23582e-30
3.17327e-29
4.39004e-28
5.81678e-27
7.41744e-26
9.2968e-25
1.15953e-23
1.43358e-22
1.74673e-21
2.09957e-20
2.47959e-19
2.85304e-18
3.21216e-17
3.89036e-16
-2.16963e-48
-2.40725e-48
-5.39381e-48
-1.22799e-47
-2.83004e-47
-6.60064e-47
-1.5572e-46
-3.71361e-46
-8.9471e-46
-2.17655e-45
-5.34398e-45
-1.3238e-44
-3.30772e-44
-8.3346e-44
-2.11708e-43
-5.41717e-43
-1.39443e-42
-3.60251e-42
-9.30231e-42
-2.39001e-41
-6.07864e-41
-1.5226e-40
-3.73811e-40
-8.94712e-40
-2.06674e-39
-4.49047e-39
-8.57191e-39
-1.19693e-38
-1.80209e-39
5.45887e-39
5.93817e-37
6.16117e-36
8.09495e-35
1.08146e-33
1.44389e-32
1.93562e-31
2.62828e-30
3.59962e-29
4.86897e-28
6.3991e-27
8.15865e-26
1.02372e-24
1.27989e-23
1.59273e-22
1.95364e-21
2.34212e-20
2.72559e-19
3.07249e-18
3.45388e-17
4.50983e-16
-9.53429e-48
-1.05059e-47
-2.34768e-47
-5.32635e-47
-1.22254e-46
-2.83765e-46
-6.6549e-46
-1.57565e-45
-3.76314e-45
-9.05892e-45
-2.19658e-44
-5.36222e-44
-1.31744e-43
-3.25719e-43
-8.10289e-43
-2.02769e-42
-5.10005e-42
-1.2871e-41
-3.24984e-41
-8.17918e-41
-2.04285e-40
-5.03268e-40
-1.21824e-39
-2.88685e-39
-6.66486e-39
-1.48416e-38
-3.09568e-38
-5.61907e-38
-6.98324e-38
0
2.32825e-37
6.88744e-36
9.33466e-35
1.19435e-33
1.52739e-32
1.98806e-31
2.63763e-30
3.53854e-29
4.74273e-28
6.21206e-27
7.92837e-26
9.97048e-25
1.25027e-23
1.561e-22
1.91515e-21
2.27932e-20
2.61991e-19
2.94119e-18
3.42759e-17
4.76668e-16
-3.8635e-47
-4.22957e-47
-9.41108e-47
-2.12572e-46
-4.85583e-46
-1.12103e-45
-2.61305e-45
-6.14337e-45
-1.45485e-44
-3.46648e-44
-8.3026e-44
-1.99736e-43
-4.824e-43
-1.16953e-42
-2.84682e-42
-6.96037e-42
-1.70964e-41
-4.21573e-41
-1.04101e-40
-2.566e-40
-6.28769e-40
-1.524e-39
-3.63997e-39
-8.54513e-39
-1.96862e-38
-4.43996e-38
-9.71084e-38
-2.00388e-37
-3.62145e-37
-4.26175e-37
0
2.59737e-36
8.88472e-35
1.15096e-33
1.4506e-32
1.87226e-31
2.47129e-30
3.30027e-29
4.37897e-28
5.71628e-27
7.30809e-26
9.22811e-25
1.16378e-23
1.46032e-22
1.78819e-21
2.10171e-20
2.37988e-19
2.68267e-18
3.28196e-17
4.70712e-16
-1.43916e-46
-1.56449e-46
-3.4669e-46
-7.79827e-46
-1.77365e-45
-4.07507e-45
-9.44655e-45
-2.20641e-44
-5.18485e-44
-1.22404e-43
-2.89917e-43
-6.88073e-43
-1.63503e-42
-3.8885e-42
-9.25723e-42
-2.20755e-41
-5.27757e-41
-1.26546e-40
-3.0417e-40
-7.31631e-40
-1.75571e-39
-4.18701e-39
-9.88843e-39
-2.30751e-38
-5.31768e-38
-1.2112e-37
-2.72604e-37
-6.02469e-37
-1.27826e-36
-2.43522e-36
-3.08264e-36
0
3.84875e-35
1.01164e-33
1.28664e-32
1.63087e-31
2.13815e-30
2.83774e-29
3.75921e-28
4.90805e-27
6.29152e-26
7.98046e-25
1.01139e-23
1.27164e-22
1.55033e-21
1.80342e-20
2.03145e-19
2.34873e-18
3.05312e-17
4.4742e-16
-4.90949e-46
-5.30415e-46
-1.17127e-45
-2.62504e-45
-5.94762e-45
-1.36077e-44
-3.13928e-44
-7.2907e-44
-1.70149e-43
-3.98303e-43
-9.33533e-43
-2.18697e-42
-5.11412e-42
-1.19279e-41
-2.77458e-41
-6.44197e-41
-1.49526e-40
-3.47643e-40
-8.10862e-40
-1.89817e-39
-4.45419e-39
-1.04504e-38
-2.44411e-38
-5.68505e-38
-1.31423e-37
-3.02359e-37
-6.94282e-37
-1.59476e-36
-3.6541e-36
-8.21252e-36
-1.70833e-35
-2.67825e-35
5.30853e-51
3.85064e-34
1.00878e-32
1.30372e-31
1.69625e-30
2.259e-29
3.00112e-28
3.9348e-27
5.07134e-26
6.47004e-25
8.22689e-24
1.03178e-22
1.24784e-21
1.44218e-20
1.6391e-19
1.97219e-18
2.71067e-17
3.96167e-16
-1.54422e-45
-1.65543e-45
-3.63939e-45
-8.12224e-45
-1.83251e-44
-4.17401e-44
-9.58245e-44
-2.21304e-43
-5.13081e-43
-1.19153e-42
-2.76543e-42
-6.40051e-42
-1.4745e-41
-3.37659e-41
-7.6828e-41
-1.73813e-40
-3.91783e-40
-8.82607e-40
-1.99424e-39
-4.53235e-39
-1.03744e-38
-2.39028e-38
-5.53281e-38
-1.2838e-37
-2.98217e-37
-6.93829e-37
-1.62093e-36
-3.81802e-36
-9.10148e-36
-2.19475e-35
-5.28262e-35
-1.33402e-34
-2.29116e-34
0
3.12276e-33
9.42375e-32
1.27879e-30
1.73088e-29
2.3269e-28
3.07274e-27
3.98038e-26
5.09763e-25
6.49004e-24
8.11842e-23
9.77626e-22
1.12985e-20
1.29807e-19
1.60108e-18
2.24758e-17
3.22073e-16
-4.50471e-45
-4.78081e-45
-1.04479e-44
-2.31901e-44
-5.20468e-44
-1.17932e-43
-2.69282e-43
-6.18302e-43
-1.42425e-42
-3.28296e-42
-7.55254e-42
-1.72958e-41
-3.93354e-41
-8.86794e-41
-1.97991e-40
-4.37919e-40
-9.61415e-40
-2.10262e-39
-4.60311e-39
-1.01394e-38
-2.25668e-38
-5.08669e-38
-1.16146e-37
-2.68298e-37
-6.25961e-37
-1.47366e-36
-3.5032e-36
-8.43049e-36
-2.0621e-35
-5.14732e-35
-1.31182e-34
-3.76916e-34
-9.992e-34
-1.59178e-33
0
4.53197e-32
9.13619e-31
1.27862e-29
1.75065e-28
2.33741e-27
3.04634e-26
3.91539e-25
4.98967e-24
6.22824e-23
7.47471e-22
8.63609e-21
9.97868e-20
1.24482e-18
1.7615e-17
2.49069e-16
-1.22694e-44
-1.28461e-44
-2.78623e-44
-6.14213e-44
-1.36969e-43
-3.08446e-43
-7.00045e-43
-1.59758e-42
-3.65665e-42
-8.37119e-42
-1.91125e-41
-4.33923e-41
-9.76981e-41
-2.17644e-40
-4.79019e-40
-1.04132e-39
-2.23889e-39
-4.77662e-39
-1.01644e-38
-2.17137e-38
-4.68834e-38
-1.02904e-37
-2.30438e-37
-5.27067e-37
-1.23027e-36
-2.92559e-36
-7.07759e-36
-1.74145e-35
-4.36407e-35
-1.11697e-34
-2.92899e-34
-8.82292e-34
-2.61328e-33
-6.6235e-33
-5.4902e-33
1.12127e-32
5.89788e-31
8.93043e-30
1.27693e-28
1.73377e-27
2.27575e-26
2.93448e-25
3.74138e-24
4.65931e-23
5.57097e-22
6.42106e-21
7.42544e-20
9.31249e-19
1.32812e-17
1.86531e-16
-3.14726e-44
-3.23701e-44
-6.95569e-44
-1.52057e-43
-3.36465e-43
-7.52221e-43
-1.69559e-42
-3.84434e-42
-8.74377e-42
-1.98928e-41
-4.51332e-41
-1.01802e-40
-2.27613e-40
-5.03129e-40
-1.09739e-39
-2.35961e-39
-5.00427e-39
-1.04925e-38
-2.18462e-38
-4.54612e-38
-9.53158e-38
-2.03079e-37
-4.43049e-37
-9.94962e-37
-2.30493e-36
-5.50416e-36
-1.35149e-35
-3.40198e-35
-8.75859e-35
-2.30369e-34
-6.19095e-34
-1.90999e-33
-5.85162e-33
-1.64376e-32
-3.21336e-32
0
3.04766e-31
5.75945e-30
8.99603e-29
1.24954e-27
1.65477e-26
2.14117e-25
2.73077e-24
3.39143e-23
4.03569e-22
4.63339e-21
5.36102e-20
6.7688e-19
9.72054e-18
1.34511e-16
-7.6863e-44
-7.72981e-44
-1.64222e-43
-3.55388e-43
-7.79084e-43
-1.72688e-42
-3.86212e-42
-8.69406e-42
-1.96467e-41
-4.44389e-41
-1.00302e-40
-2.25197e-40
-5.01412e-40
-1.10405e-39
-2.39855e-39
-5.13365e-39
-1.08211e-38
-2.24906e-38
-4.62329e-38
-9.44956e-38
-1.93495e-37
-4.00747e-37
-8.48427e-37
-1.85454e-36
-4.21644e-36
-1.0004e-35
-2.47427e-35
-6.35172e-35
-1.68244e-34
-4.57033e-34
-1.2663e-33
-4.00263e-33
-1.23978e-32
-3.5657e-32
-8.19191e-32
-5.6508e-32
7.64555e-32
3.41292e-30
6.04848e-29
8.54471e-28
1.14437e-26
1.4879e-25
1.8973e-24
2.34568e-23
2.77867e-22
3.1974e-21
3.72815e-20
4.74016e-19
6.76201e-18
9.08948e-17
-1.80962e-43
-1.77098e-43
-3.71186e-43
-7.93647e-43
-1.72059e-42
-3.77516e-42
-8.36593e-42
-1.86806e-41
-4.19202e-41
-9.42703e-41
-2.11804e-40
-4.73977e-40
-1.0532e-39
-2.31712e-39
-5.03476e-39
-1.07838e-38
-2.27441e-38
-4.72408e-38
-9.67886e-38
-1.96301e-37
-3.96419e-37
-8.03915e-37
-1.65548e-36
-3.50713e-36
-7.74376e-36
-1.8002e-35
-4.42581e-35
-1.1481e-34
-3.11827e-34
-8.76941e-34
-2.52043e-33
-8.21528e-33
-2.57594e-32
-7.47678e-32
-1.81471e-31
-2.39964e-31
4.17862e-32
1.71281e-30
3.87982e-29
5.99243e-28
8.22628e-27
1.0744e-25
1.36449e-24
1.68052e-23
2.00464e-22
2.34461e-21
2.77947e-20
3.50053e-19
4.71652e-18
5.83032e-17
-4.15924e-43
-3.94713e-43
-8.14295e-43
-1.71664e-42
-3.67302e-42
-7.9625e-42
-1.74553e-41
-3.86093e-41
-8.59527e-41
-1.92065e-40
-4.29538e-40
-9.58569e-40
-2.12821e-39
-4.68739e-39
-1.0215e-38
-2.19779e-38
-4.66112e-38
-9.73711e-38
-2.00432e-37
-4.07286e-37
-8.20088e-37
-1.64652e-36
-3.32734e-36
-6.85586e-36
-1.46364e-35
-3.29303e-35
-7.9156e-35
-2.04381e-34
-5.63692e-34
-1.63583e-33
-4.89017e-33
-1.64663e-32
-5.27568e-32
-1.55668e-31
-3.93523e-31
-6.49925e-31
0
4.80898e-31
2.44853e-29
5.11673e-28
7.16539e-27
9.36998e-26
1.1851e-24
1.45748e-23
1.75333e-22
2.08674e-21
2.49472e-20
3.05668e-19
3.72265e-18
4.26664e-17
-9.47945e-43
-8.68206e-43
-1.75883e-42
-3.64796e-42
-7.68717e-42
-1.6431e-41
-3.55635e-41
-7.77869e-41
-1.71542e-40
-3.80451e-40
-8.46281e-40
-1.88274e-39
-4.17724e-39
-9.21709e-39
-2.01726e-38
-4.36892e-38
-9.34524e-38
-1.97161e-37
-4.10028e-37
-8.40941e-37
-1.70409e-36
-3.42498e-36
-6.87253e-36
-1.39113e-35
-2.88444e-35
-6.25296e-35
-1.44962e-34
-3.65712e-34
-1.00812e-33
-2.98822e-33
-9.228e-33
-3.21186e-32
-1.05876e-31
-3.20338e-31
-8.46884e-31
-1.64569e-30
-9.30152e-31
-3.16495e-31
1.53967e-29
5.36197e-28
7.57076e-27
9.87105e-26
1.24375e-24
1.5289e-23
1.85233e-22
2.23312e-21
2.67972e-20
3.21953e-19
3.6538e-18
3.82492e-17
-2.15658e-42
-1.90427e-42
-3.78355e-42
-7.71031e-42
-1.59765e-41
-3.36132e-41
-7.17034e-41
-1.5481e-40
-3.37605e-40
-7.41971e-40
-1.63934e-39
-3.63179e-39
-8.04612e-39
-1.77788e-38
-3.90793e-38
-8.52443e-38
-1.84127e-37
-3.93119e-37
-8.28555e-37
-1.72284e-36
-3.53547e-36
-7.17277e-36
-1.44424e-35
-2.90677e-35
-5.91888e-35
-1.24281e-34
-2.76547e-34
-6.71499e-34
-1.81036e-33
-5.3772e-33
-1.6977e-32
-6.09217e-32
-2.07116e-31
-6.44724e-31
-1.77758e-30
-3.89542e-30
-4.35297e-30
7.17535e-32
1.07441e-29
5.87554e-28
8.51913e-27
1.10605e-25
1.38652e-24
1.70186e-23
2.07393e-22
2.51591e-21
3.00052e-20
3.44215e-19
3.65583e-18
3.99897e-17
-4.91647e-42
-4.19535e-42
-8.17716e-42
-1.63717e-41
-3.33387e-41
-6.89695e-41
-1.44798e-40
-3.08084e-40
-6.63226e-40
-1.44186e-39
-3.15879e-39
-6.95722e-39
-1.53679e-38
-3.39611e-38
-7.4896e-38
-1.64433e-37
-3.58561e-37
-7.7492e-37
-1.6568e-36
-3.49941e-36
-7.29641e-36
-1.50203e-35
-3.05726e-35
-6.17923e-35
-1.25073e-34
-2.57374e-34
-5.51703e-34
-1.27691e-33
-3.3011e-33
-9.62244e-33
-3.06412e-32
-1.12694e-31
-3.94614e-31
-1.26216e-30
-3.5999e-30
-8.54858e-30
-1.24919e-29
4.77117e-32
5.87934e-30
5.94721e-28
9.89187e-27
1.28678e-25
1.61192e-24
1.97825e-23
2.40781e-22
2.90544e-21
3.42966e-20
3.88097e-19
4.21608e-18
5.35212e-17
-1.1242e-41
-9.33793e-42
-1.787e-41
-3.5175e-41
-7.04155e-41
-1.43219e-40
-2.95761e-40
-6.19551e-40
-1.31486e-39
-2.823e-39
-6.12093e-39
-1.33766e-38
-2.94029e-38
-6.48607e-38
-1.43256e-37
-3.16045e-37
-6.94772e-37
-1.5183e-36
-3.29082e-36
-7.06009e-36
-1.49689e-35
-3.13351e-35
-6.47639e-35
-1.32363e-34
-2.68509e-34
-5.46547e-34
-1.13894e-33
-2.51672e-33
-6.17089e-33
-1.73359e-32
-5.48155e-32
-2.04535e-31
-7.33693e-31
-2.3995e-30
-7.03076e-30
-1.7644e-29
-3.02449e-29
-3.9272e-30
9.70226e-31
5.21508e-28
1.12827e-26
1.4889e-25
1.86716e-24
2.29429e-23
2.79341e-22
3.37092e-21
4.0155e-20
4.69844e-19
5.46095e-18
7.69889e-17
-2.60199e-41
-2.10654e-41
-3.96195e-41
-7.67477e-41
-1.51165e-40
-3.02464e-40
-6.14567e-40
-1.2673e-39
-2.65002e-39
-5.61334e-39
-1.20292e-38
-2.60399e-38
-5.68441e-38
-1.24895e-37
-2.75622e-37
-6.09547e-37
-1.34768e-36
-2.97155e-36
-6.51838e-36
-1.41918e-35
-3.0589e-35
-6.51335e-35
-1.36738e-34
-2.82927e-34
-5.77915e-34
-1.17309e-33
-2.40207e-33
-5.11829e-33
-1.19097e-32
-3.18543e-32
-9.82728e-32
-3.66106e-31
-1.33332e-30
-4.44091e-30
-1.32918e-29
-3.47502e-29
-6.71653e-29
-4.02064e-29
-9.8078e-30
3.62432e-28
1.26904e-26
1.71234e-25
2.14974e-24
2.64128e-23
3.21987e-22
3.90404e-21
4.7209e-20
5.6799e-19
6.69977e-18
9.43322e-17
-6.05396e-41
-4.80181e-41
-8.89253e-41
-1.69861e-40
-3.29748e-40
-6.50014e-40
-1.30093e-39
-2.64275e-39
-5.44665e-39
-1.13802e-38
-2.40858e-38
-5.15825e-38
-1.1164e-37
-2.43812e-37
-5.36361e-37
-1.18625e-36
-2.6319e-36
-5.84187e-36
-1.29373e-35
-2.85032e-35
-6.22719e-35
-1.34511e-34
-2.86449e-34
-6.00359e-34
-1.23816e-33
-2.52129e-33
-5.12474e-33
-1.06556e-32
-2.36827e-32
-5.98722e-32
-1.77365e-31
-6.49513e-31
-2.37902e-30
-8.02758e-30
-2.44178e-29
-6.58423e-29
-1.39486e-28
-1.4068e-28
5.80358e-31
2.16204e-28
1.46154e-26
2.03419e-25
2.55019e-24
3.13045e-23
3.8229e-22
4.644e-21
5.63861e-20
6.89432e-19
8.00042e-18
1.10369e-16
-1.41056e-40
-1.10152e-40
-2.01279e-40
-3.80068e-40
-7.28954e-40
-1.41881e-39
-2.80246e-39
-5.61705e-39
-1.14219e-38
-2.35542e-38
-4.92375e-38
-1.04267e-37
-2.23486e-37
-4.84331e-37
-1.05981e-36
-2.3376e-36
-5.1867e-36
-1.15467e-35
-2.57174e-35
-5.71234e-35
-1.26089e-34
-2.75608e-34
-5.94493e-34
-1.26196e-33
-2.63307e-33
-5.40306e-33
-1.09615e-32
-2.239e-32
-4.79693e-32
-1.14917e-31
-3.23794e-31
-1.14903e-30
-4.18746e-30
-1.4221e-29
-4.37245e-29
-1.20503e-28
-2.72387e-28
-3.55844e-28
3.76917e-31
1.06884e-28
1.72232e-26
2.51428e-25
3.14906e-24
3.86237e-23
4.71103e-22
5.67704e-21
6.83963e-20
8.54564e-19
9.87792e-18
1.39781e-16
-3.27678e-40
-2.53204e-40
-4.57375e-40
-8.5556e-40
-1.62477e-39
-3.12923e-39
-6.11264e-39
-1.21109e-38
-2.43362e-38
-4.95904e-38
-1.02451e-37
-2.1452e-37
-4.55037e-37
-9.77139e-37
-2.12215e-36
-4.65511e-36
-1.02959e-35
-2.29074e-35
-5.11281e-35
-1.14107e-34
-2.53717e-34
-5.59871e-34
-1.2214e-33
-2.62674e-33
-5.54928e-33
-1.14679e-32
-2.32675e-32
-4.70364e-32
-9.80803e-32
-2.24264e-31
-5.99165e-31
-2.0371e-30
-7.30335e-30
-2.47712e-29
-7.6536e-29
-2.13754e-28
-5.04587e-28
-7.72128e-28
-4.15612e-29
-1.17974e-29
1.93648e-26
3.09954e-25
3.88762e-24
4.76647e-23
5.78348e-22
6.88623e-21
8.26974e-20
1.06821e-18
1.27663e-17
1.99953e-16
-7.56833e-40
-5.81092e-40
-1.03933e-39
-1.9293e-39
-3.63439e-39
-6.93907e-39
-1.34294e-38
-2.63471e-38
-5.23995e-38
-1.0564e-37
-2.15874e-37
-4.47086e-37
-9.38237e-37
-1.99441e-36
-4.2919e-36
-9.34178e-36
-2.05394e-35
-4.55309e-35
-1.01512e-34
-2.26929e-34
-5.06831e-34
-1.12652e-33
-2.48328e-33
-5.40631e-33
-1.15263e-32
-2.39816e-32
-4.87824e-32
-9.80917e-32
-2.00727e-31
-4.42036e-31
-1.12229e-30
-3.63005e-30
-1.26681e-29
-4.25575e-29
-1.31308e-28
-3.6872e-28
-8.9397e-28
-1.52308e-27
-6.26079e-28
-6.32888e-30
2.00365e-26
3.58236e-25
4.52389e-24
5.5451e-23
6.6992e-22
7.9574e-21
9.61945e-20
1.25963e-18
1.61581e-17
2.84691e-16
-1.73813e-39
-1.3286e-39
-2.35592e-39
-4.34464e-39
-8.12843e-39
-1.54054e-38
-2.95794e-38
-5.75419e-38
-1.13412e-37
-2.2647e-37
-4.58171e-37
-9.39073e-37
-1.94989e-36
-4.10121e-36
-8.73588e-36
-1.88361e-35
-4.10777e-35
-9.04838e-35
-2.00922e-34
-4.48561e-34
-1.00352e-33
-2.24214e-33
-4.98562e-33
-1.09416e-32
-2.3513e-32
-4.92664e-32
-1.0062e-31
-2.0195e-31
-4.08189e-31
-8.734e-31
-2.11894e-30
-6.50504e-30
-2.19063e-29
-7.2294e-29
-2.21321e-28
-6.2034e-28
-1.52435e-27
-2.78628e-27
-2.00041e-27
2.05634e-29
1.86052e-26
3.84759e-25
4.90724e-24
6.01236e-23
7.25811e-22
8.66298e-21
1.05309e-19
1.36671e-18
1.86602e-17
3.6001e-16
-3.96622e-39
-3.01971e-39
-5.314e-39
-9.7425e-39
-1.81169e-38
-3.41136e-38
-6.50462e-38
-1.25597e-37
-2.45574e-37
-4.86198e-37
-9.74666e-37
-1.97835e-36
-4.06599e-36
-8.46162e-36
-1.78305e-35
-3.80403e-35
-8.21375e-35
-1.7936e-34
-3.95565e-34
-8.79272e-34
-1.9646e-33
-4.40166e-33
-9.83545e-33
-2.17026e-32
-4.69727e-32
-9.91141e-32
-2.03439e-31
-4.08595e-31
-8.19829e-31
-1.71753e-30
-4.00914e-30
-1.16999e-29
-3.77962e-29
-1.21626e-28
-3.67107e-28
-1.02038e-27
-2.51452e-27
-4.79092e-27
-4.48141e-27
1.76735e-29
1.47675e-26
3.99553e-25
5.1493e-24
6.30369e-23
7.61251e-22
9.12113e-21
1.10758e-19
1.41646e-18
2.00074e-17
4.11387e-16
-8.97763e-39
-6.80704e-39
-1.18962e-38
-2.16939e-38
-4.01196e-38
-7.51018e-38
-1.42306e-37
-2.72941e-37
-5.29844e-37
-1.04091e-36
-2.06927e-36
-4.16233e-36
-8.47154e-36
-1.74467e-35
-3.63606e-35
-7.66937e-35
-1.63724e-34
-3.53672e-34
-7.72607e-34
-1.70467e-33
-3.79189e-33
-8.49052e-33
-1.89895e-32
-4.20634e-32
-9.15879e-32
-1.94564e-31
-4.01691e-31
-8.09023e-31
-1.61776e-30
-3.33946e-30
-7.55207e-30
-2.10392e-29
-6.5006e-29
-2.02739e-28
-5.99736e-28
-1.64372e-27
-4.02997e-27
-7.83415e-27
-8.413e-27
6.38315e-30
1.00494e-26
4.14806e-25
5.41866e-24
6.62287e-23
7.99381e-22
9.58297e-21
1.15477e-19
1.44472e-18
2.06051e-17
4.4818e-16
-2.01245e-38
-1.51935e-38
-2.63801e-38
-4.7867e-38
-8.80689e-38
-1.63964e-37
-3.08891e-37
-5.88799e-37
-1.13545e-36
-2.21476e-36
-4.36878e-36
-8.71356e-36
-1.75705e-35
-3.58185e-35
-7.3824e-35
-1.53862e-34
-3.24357e-34
-6.91816e-34
-1.49305e-33
-3.2593e-33
-7.19045e-33
-1.60209e-32
-3.57697e-32
-7.93838e-32
-1.73676e-31
-3.71332e-31
-7.71635e-31
-1.5612e-30
-3.12142e-30
-6.38208e-30
-1.40727e-29
-3.76341e-29
-1.11162e-28
-3.3451e-28
-9.64923e-28
-2.59711e-27
-6.29061e-27
-1.22905e-26
-1.41808e-26
-1.41372e-29
7.28342e-27
4.38314e-25
5.83883e-24
7.11797e-23
8.57006e-22
1.02376e-20
1.2174e-19
1.47405e-18
2.07922e-17
4.93435e-16
-4.46365e-38
-3.3544e-38
-5.78786e-38
-1.04513e-37
-1.91339e-37
-3.5437e-37
-6.63912e-37
-1.25812e-36
-2.41099e-36
-4.67105e-36
-9.14638e-36
-1.80956e-35
-3.61637e-35
-7.29902e-35
-1.48771e-34
-3.06254e-34
-6.36939e-34
-1.3391e-33
-2.84795e-33
-6.13078e-33
-1.33608e-32
-2.94697e-32
-6.54975e-32
-1.4529e-31
-3.18965e-31
-6.86185e-31
-1.43618e-30
-2.92396e-30
-5.86189e-30
-1.19228e-29
-2.57784e-29
-6.65639e-29
-1.88215e-28
-5.45058e-28
-1.52747e-27
-4.02654e-27
-9.57559e-27
-1.86027e-26
-2.21632e-26
-5.39646e-29
5.7582e-27
4.76525e-25
6.50587e-24
7.90312e-23
9.47053e-22
1.12278e-20
1.30763e-19
1.50945e-18
2.08811e-17
6.25533e-16
-9.79129e-38
-7.31988e-38
-1.25537e-37
-2.25599e-37
-4.10996e-37
-7.57265e-37
-1.41105e-36
-2.65862e-36
-5.06372e-36
-9.74605e-36
-1.89477e-35
-3.71931e-35
-7.36822e-35
-1.4726e-34
-2.96826e-34
-6.03356e-34
-1.23706e-33
-2.55997e-33
-5.35283e-33
-1.13257e-32
-2.42809e-32
-5.27761e-32
-1.1612e-31
-2.5679e-31
-5.64688e-31
-1.22179e-30
-2.57751e-30
-5.28954e-30
-1.06609e-29
-2.16507e-29
-4.61249e-29
-1.15653e-28
-3.13925e-28
-8.74443e-28
-2.37983e-27
-6.11373e-27
-1.42239e-26
-2.72576e-26
-3.26611e-26
-6.14718e-29
5.08343e-27
5.42177e-25
7.57112e-24
9.15323e-23
1.08978e-21
1.27857e-20
1.44669e-19
1.58359e-18
2.30659e-17
1.03457e-15
-2.12291e-37
-1.5779e-37
-2.69003e-37
-4.81098e-37
-8.72171e-37
-1.59872e-36
-2.96282e-36
-5.55044e-36
-1.05073e-35
-2.0091e-35
-3.8783e-35
-7.55373e-35
-1.48352e-34
-2.93611e-34
-5.85263e-34
-1.17451e-33
-2.37278e-33
-4.82782e-33
-9.90527e-33
-2.05347e-32
-4.3127e-32
-9.19685e-32
-1.99195e-31
-4.36381e-31
-9.59382e-31
-2.08598e-30
-4.43835e-30
-9.19641e-30
-1.86796e-29
-3.80015e-29
-8.01202e-29
-1.96139e-28
-5.13173e-28
-1.37903e-27
-3.63592e-27
-9.0793e-27
-2.06139e-26
-3.87005e-26
-4.56161e-26
-7.1867e-29
4.57632e-27
6.60814e-25
9.32658e-24
1.12304e-22
1.33311e-21
1.56041e-20
1.75561e-19
1.93704e-18
3.38992e-17
1.74367e-15
-4.54804e-37
-3.35922e-37
-5.69292e-37
-1.01325e-36
-1.82785e-36
-3.33314e-36
-6.14337e-36
-1.14422e-35
-2.15273e-35
-4.08907e-35
-7.837e-35
-1.51447e-34
-2.9486e-34
-5.77894e-34
-1.13916e-33
-2.25682e-33
-4.49123e-33
-8.97865e-33
-1.80488e-32
-3.65633e-32
-7.49163e-32
-1.55941e-31
-3.3085e-31
-7.14811e-31
-1.56162e-30
-3.40327e-30
-7.30133e-30
-1.52984e-29
-3.13875e-29
-6.41581e-29
-1.3441e-28
-3.23139e-28
-8.20269e-28
-2.12813e-27
-5.42751e-27
-1.31661e-26
-2.90985e-26
-5.30421e-26
-5.95279e-26
-9.27239e-29
5.10042e-27
8.80964e-25
1.23826e-23
1.49504e-22
1.79551e-21
2.1581e-20
2.56948e-19
3.18837e-18
6.28157e-17
2.26771e-15
-9.63011e-37
-7.06464e-37
-1.19005e-36
-2.10777e-36
-3.78339e-36
-6.86288e-36
-1.25788e-35
-2.32902e-35
-4.35428e-35
-8.2152e-35
-1.56305e-34
-2.99656e-34
-5.78312e-34
-1.12236e-33
-2.18793e-33
-4.27926e-33
-8.3889e-33
-1.64742e-32
-3.24207e-32
-6.40597e-32
-1.27605e-31
-2.57886e-31
-5.32485e-31
-1.12739e-30
-2.43733e-30
-5.31158e-30
-1.14816e-29
-2.43309e-29
-5.05015e-29
-1.03992e-28
-2.1743e-28
-5.15813e-28
-1.27345e-27
-3.19586e-27
-7.89463e-27
-1.86014e-26
-3.98781e-26
-6.94991e-26
-6.95295e-26
-1.34213e-28
7.66677e-27
1.31446e-24
1.82461e-23
2.23594e-22
2.77286e-21
3.51058e-20
4.53099e-19
6.19756e-18
1.08674e-16
2.51293e-15
-2.01687e-36
-1.46858e-36
-2.4586e-36
-4.33273e-36
-7.73759e-36
-1.39603e-35
-2.5442e-35
-4.6823e-35
-8.69766e-35
-1.62968e-34
-3.07763e-34
-5.85256e-34
-1.1195e-33
-2.15135e-33
-4.14761e-33
-8.0099e-33
-1.54719e-32
-2.98546e-32
-5.75197e-32
-1.10771e-31
-2.14029e-31
-4.1802e-31
-8.33993e-31
-1.7156e-30
-3.64346e-30
-7.90194e-30
-1.71805e-29
-3.6842e-29
-7.74814e-29
-1.61094e-28
-3.37226e-28
-7.92141e-28
-1.9102e-27
-4.65371e-27
-1.11594e-26
-2.5546e-26
-5.29107e-26
-8.64974e-26
-6.98898e-26
-2.27494e-28
1.6863e-26
2.20022e-24
3.01041e-23
3.77669e-22
4.888e-21
6.48881e-20
8.69412e-19
1.20883e-17
1.79843e-16
2.92379e-15
-4.18204e-36
-3.0199e-36
-5.02365e-36
-8.80711e-36
-1.56457e-35
-2.80727e-35
-5.08636e-35
-9.30305e-35
-1.71674e-34
-3.19401e-34
-5.98618e-34
-1.12904e-33
-2.14038e-33
-4.07282e-33
-7.76634e-33
-1.48136e-32
-2.82076e-32
-5.35181e-32
-1.01026e-31
-1.89715e-31
-3.55344e-31
-6.68678e-31
-1.28048e-30
-2.53391e-30
-5.23132e-30
-1.12038e-29
-2.4411e-29
-5.29506e-29
-1.12985e-28
-2.37708e-28
-4.99749e-28
-1.1667e-27
-2.7604e-27
-6.55399e-27
-1.52944e-26
-3.40415e-26
-6.79491e-26
-1.02743e-25
-6.00907e-26
-4.10685e-28
4.8601e-26
4.01014e-24
5.39873e-23
6.90481e-22
9.18368e-21
1.25477e-19
1.69734e-18
2.27822e-17
2.95119e-16
3.39934e-15
-8.59167e-36
-6.14694e-36
-1.01591e-35
-1.77146e-35
-3.12998e-35
-5.58439e-35
-1.0058e-34
-1.82805e-34
-3.35084e-34
-6.18977e-34
-1.1512e-33
-2.15332e-33
-4.04568e-33
-7.62325e-33
-1.43807e-32
-2.7102e-32
-5.09072e-32
-9.50632e-32
-1.76062e-31
-3.22912e-31
-5.87001e-31
-1.06357e-30
-1.94594e-30
-3.66855e-30
-7.26865e-30
-1.52029e-29
-3.29955e-29
-7.22324e-29
-1.56372e-28
-3.33378e-28
-7.05841e-28
-1.64341e-27
-3.83187e-27
-8.90434e-27
-2.02882e-26
-4.39924e-26
-8.4655e-26
-1.17932e-25
-4.39204e-26
-5.24972e-28
1.55104e-25
7.53374e-24
9.94469e-23
1.28142e-21
1.71277e-20
2.337e-19
3.12643e-18
4.04993e-17
4.92059e-16
5.20462e-15
-1.7496e-35
-1.23907e-35
-2.03431e-35
-3.52777e-35
-6.19887e-35
-1.09964e-34
-1.96864e-34
-3.55532e-34
-6.47308e-34
-1.18715e-33
-2.19098e-33
-4.0645e-33
-7.56869e-33
-1.41247e-32
-2.63666e-32
-4.91196e-32
-9.10806e-32
-1.67593e-31
-3.05046e-31
-5.47693e-31
-9.68871e-31
-1.69369e-30
-2.95778e-30
-5.27468e-30
-9.89316e-30
-1.99043e-29
-4.25357e-29
-9.34558e-29
-2.04978e-28
-4.43259e-28
-9.47465e-28
-2.2078e-27
-5.09658e-27
-1.16457e-26
-2.60142e-26
-5.51497e-26
-1.02716e-25
-1.32747e-25
-2.51065e-26
-3.29699e-28
4.63021e-25
1.38636e-23
1.79453e-22
2.30532e-21
3.05204e-20
4.08228e-19
5.28357e-18
6.71021e-17
8.15798e-16
8.52492e-15
-3.53178e-35
-2.47404e-35
-4.035e-35
-6.95846e-35
-1.21594e-34
-2.14461e-34
-3.81632e-34
-6.84857e-34
-1.23855e-33
-2.25533e-33
-4.13081e-33
-7.6009e-33
-1.40308e-32
-2.59392e-32
-4.7931e-32
-8.83117e-32
-1.61777e-31
-2.93661e-31
-5.26226e-31
-9.27294e-31
-1.60204e-30
-2.71339e-30
-4.53679e-30
-7.63684e-30
-1.34026e-29
-2.54468e-29
-5.26183e-29
-1.14881e-28
-2.54379e-28
-5.58017e-28
-1.2067e-27
-2.82412e-27
-6.48465e-27
-1.46424e-26
-3.22185e-26
-6.71081e-26
-1.21877e-25
-1.48734e-25
-8.01994e-27
-4.39818e-28
1.13291e-24
2.41988e-23
3.07806e-22
3.90904e-21
5.01923e-20
6.39254e-19
8.30574e-18
1.08478e-16
1.43384e-15
1.65499e-14
-7.06509e-35
-4.89354e-35
-7.92878e-35
-1.3598e-34
-2.36312e-34
-4.1443e-34
-7.33102e-34
-1.30739e-33
-2.34885e-33
-4.24731e-33
-7.72164e-33
-1.40959e-32
-2.58004e-32
-4.72668e-32
-8.64932e-32
-1.57697e-31
-2.85609e-31
-5.12003e-31
-9.04716e-31
-1.56854e-30
-2.65638e-30
-4.38227e-30
-7.05937e-30
-1.12612e-29
-1.83957e-29
-3.2346e-29
-6.3234e-29
-1.34945e-28
-2.99485e-28
-6.65413e-28
-1.45788e-27
-3.43812e-27
-7.88841e-27
-1.76893e-26
-3.85316e-26
-7.93104e-26
-1.41795e-25
-1.67391e-25
-1.75809e-28
2.11546e-27
2.19076e-24
3.84461e-23
4.81052e-22
5.97662e-21
7.35364e-20
9.02624e-19
1.25091e-17
1.76286e-16
2.44839e-15
3.4518e-14
-1.40014e-34
-9.58853e-35
-1.54363e-34
-2.63303e-34
-4.55123e-34
-7.93749e-34
-1.39599e-33
-2.47448e-33
-4.41726e-33
-7.93362e-33
-1.43202e-32
-2.59427e-32
-4.7099e-32
-8.55395e-32
-1.55081e-31
-2.79952e-31
-5.01646e-31
-8.88966e-31
-1.55108e-30
-2.6513e-30
-4.41585e-30
-7.13238e-30
-1.1154e-29
-1.70117e-29
-2.59684e-29
-4.18082e-29
-7.52822e-29
-1.53208e-28
-3.36249e-28
-7.53335e-28
-1.67268e-27
-3.98595e-27
-9.17733e-27
-2.05359e-26
-4.45046e-26
-9.10592e-26
-1.61821e-25
-1.89193e-25
-1.96964e-27
1.40662e-26
3.41214e-24
5.3519e-23
6.56794e-22
7.91696e-21
9.47061e-20
1.19356e-18
1.79782e-17
2.68505e-16
3.69538e-15
5.02173e-14
-2.74865e-34
-1.86127e-34
-2.97778e-34
-5.05245e-34
-8.68758e-34
-1.507e-33
-2.6356e-33
-4.64448e-33
-8.24011e-33
-1.47039e-32
-2.63588e-32
-4.74056e-32
-8.54012e-32
-1.53829e-31
-2.76449e-31
-4.94392e-31
-8.77088e-31
-1.53775e-30
-2.65238e-30
-4.47722e-30
-7.35255e-30
-1.16765e-29
-1.78529e-29
-2.63132e-29
-3.79823e-29
-5.60992e-29
-9.11267e-29
-1.7135e-28
-3.6357e-28
-8.13517e-28
-1.82703e-27
-4.40727e-27
-1.02213e-26
-2.29263e-26
-4.96713e-26
-1.01589e-25
-1.80909e-25
-2.13303e-25
-1.41773e-27
3.40456e-26
4.22013e-24
6.38885e-23
7.76846e-22
9.25083e-21
1.1166e-19
1.51006e-18
2.3732e-17
3.50298e-16
4.56229e-15
5.45652e-14
-5.34591e-34
-3.57911e-34
-5.69209e-34
-9.60789e-34
-1.64362e-33
-2.83625e-33
-4.93357e-33
-8.64518e-33
-1.5248e-32
-2.70412e-32
-4.81604e-32
-8.60202e-32
-1.53837e-31
-2.74956e-31
-4.90063e-31
-8.68735e-31
-1.52684e-30
-2.6504e-30
-4.52334e-30
-7.5495e-30
-1.22468e-29
-1.91819e-29
-2.88316e-29
-4.14653e-29
-5.74504e-29
-7.89875e-29
-1.15239e-28
-1.94002e-28
-3.84984e-28
-8.44895e-28
-1.90793e-27
-4.65921e-27
-1.09169e-26
-2.4645e-26
-5.3617e-26
-1.1017e-25
-1.97817e-25
-2.38313e-25
2.56762e-28
5.60574e-26
4.47047e-24
6.7585e-23
8.227e-22
9.86346e-21
1.22898e-19
1.78357e-18
2.75894e-17
3.89562e-16
4.88738e-15
5.95016e-14
-1.03012e-33
-6.81613e-34
-1.07795e-33
-1.8103e-33
-3.08136e-33
-5.29023e-33
-9.15419e-33
-1.59545e-32
-2.79822e-32
-4.93341e-32
-8.73253e-32
-1.54966e-31
-2.75246e-31
-4.88387e-31
-8.63758e-31
-1.51862e-30
-2.64575e-30
-4.55013e-30
-7.68942e-30
-1.27009e-29
-2.03785e-29
-3.1545e-29
-4.67859e-29
-6.61327e-29
-8.91354e-29
-1.16419e-28
-1.54836e-28
-2.29682e-28
-4.09683e-28
-8.55842e-28
-1.91832e-27
-4.7273e-27
-1.12094e-26
-2.55563e-26
-5.60581e-26
-1.16185e-25
-2.11398e-25
-2.63348e-25
0
5.20929e-26
4.37889e-24
6.74126e-23
8.28663e-22
1.00617e-20
1.28165e-19
1.90188e-18
2.86999e-17
3.96317e-16
4.92792e-15
6.27281e-14
-1.96601e-33
-1.28493e-33
-2.02153e-33
-3.37809e-33
-5.72162e-33
-9.77443e-33
-1.68282e-32
-2.91773e-32
-5.08997e-32
-8.92413e-32
-1.57051e-31
-2.77011e-31
-4.88874e-31
-8.61566e-31
-1.51278e-30
-2.63928e-30
-4.5605e-30
-7.77482e-30
-1.3018e-29
-2.12944e-29
-3.38231e-29
-5.18131e-29
-7.60083e-29
-1.06097e-28
-1.40478e-28
-1.77582e-28
-2.20945e-28
-2.91582e-28
-4.53621e-28
-8.6498e-28
-1.87861e-27
-4.63023e-27
-1.11046e-26
-2.5631e-26
-5.68713e-26
-1.19225e-25
-2.20698e-25
-2.87207e-25
-1.17013e-26
3.81634e-26
4.14493e-24
6.51712e-23
8.05113e-22
9.84291e-21
1.26954e-19
1.89823e-18
2.84648e-17
3.92717e-16
4.93737e-15
6.56319e-14
-3.71549e-33
-2.39582e-33
-3.75096e-33
-6.23781e-33
-1.05145e-32
-1.78758e-32
-3.0626e-32
-5.28365e-32
-9.1703e-32
-1.59935e-31
-2.79925e-31
-4.90925e-31
-8.61199e-31
-1.5081e-30
-2.63011e-30
-4.55548e-30
-7.81078e-30
-1.32062e-29
-2.19189e-29
-3.5526e-29
-5.58954e-29
-8.48104e-29
-1.2324e-28
-1.7037e-28
-2.22991e-28
-2.76559e-28
-3.30209e-28
-3.99138e-28
-5.40082e-28
-9.01785e-28
-1.82705e-27
-4.42009e-27
-1.06708e-26
-2.49452e-26
-5.60832e-26
-1.1917e-25
-2.25012e-25
-3.0731e-25
-5.64115e-26
3.60412e-26
3.75229e-24
6.04451e-23
7.56542e-22
9.42389e-21
1.24303e-19
1.83694e-18
2.70683e-17
3.70876e-16
4.73661e-15
6.61967e-14
-6.93761e-33
-4.41221e-33
-6.87663e-33
-1.13836e-32
-1.91008e-32
-3.23244e-32
-5.5123e-32
-9.46493e-32
-1.63477e-31
-2.83691e-31
-4.93961e-31
-8.61624e-31
-1.50293e-30
-2.61608e-30
-4.53319e-30
-7.79779e-30
-1.32714e-29
-2.22616e-29
-3.66389e-29
-5.88631e-29
-9.17825e-29
-1.38026e-28
-1.98875e-28
-2.7278e-28
-3.54266e-28
-4.34765e-28
-5.07699e-28
-5.80995e-28
-7.02039e-28
-1.00632e-27
-1.81653e-27
-4.17518e-27
-1.00232e-26
-2.36568e-26
-5.38917e-26
-1.16199e-25
-2.23957e-25
-3.20049e-25
-1.01479e-25
3.43971e-26
3.23063e-24
5.36852e-23
6.86179e-22
8.76811e-21
1.1747e-19
1.68003e-18
2.36981e-17
3.21202e-16
4.2207e-15
6.30701e-14
-1.27774e-32
-8.01813e-33
-1.24431e-32
-2.05089e-32
-3.42628e-32
-5.773e-32
-9.80115e-32
-1.67531e-31
-2.8802e-31
-4.97436e-31
-8.61856e-31
-1.4956e-30
-2.5946e-30
-4.49026e-30
-7.73276e-30
-1.32132e-29
-2.2327e-29
-3.71642e-29
-6.06679e-29
-9.66418e-29
-1.49398e-28
-2.22803e-28
-3.18579e-28
-4.34109e-28
-5.60738e-28
-6.84395e-28
-7.91036e-28
-8.79689e-28
-9.87022e-28
-1.23321e-27
-1.91487e-27
-3.99309e-27
-9.31141e-27
-2.19963e-26
-5.06445e-26
-1.10746e-25
-2.17465e-25
-3.21063e-25
-1.24664e-25
2.88994e-26
2.68645e-24
4.61268e-23
6.00558e-22
7.78081e-21
1.03759e-19
1.41459e-18
1.92691e-17
2.60415e-16
3.55878e-15
5.47413e-14
-2.31997e-32
-1.43707e-32
-2.22127e-32
-3.64543e-32
-6.06404e-32
-1.01734e-31
-1.71969e-31
-2.92649e-31
-5.00851e-31
-8.61003e-31
-1.48461e-30
-2.56333e-30
-4.42332e-30
-7.61168e-30
-1.30284e-29
-2.21158e-29
-3.71057e-29
-6.12959e-29
-9.92625e-29
-1.56823e-28
-2.40455e-28
-3.55832e-28
-5.05328e-28
-6.84845e-28
-8.81296e-28
-1.07305e-27
-1.23613e-27