/*--------------------------------*- C++ -*----------------------------------*\
  =========                 |
  \\      /  F ield         | OpenFOAM: The Open Source CFD Toolbox
   \\    /   O peration     | Website:  https://openfoam.org
    \\  /    A nd           | Version:  9
     \\/     M anipulation  |
\*---------------------------------------------------------------------------*/
FoamFile
{
    format      ascii;
    class       volScalarField;
    location    "0.08";
    object      p;
}
// * * * * * * * * * * * * * * * * * * * * * * * * * * * * * * * * * * * * * //

dimensions      [1 -1 -2 0 0 0 0];

internalField   nonuniform List<scalar> 
5000
(
1.28178
1.28032
1.27889
1.27738
1.27578
1.27408
1.27228
1.27034
1.26824
1.26595
1.26342
1.2606
1.25743
1.25382
1.24968
1.24489
1.23934
1.23293
1.22557
1.21725
1.20803
1.19809
1.18775
1.17747
1.16783
1.15948
1.15307
1.1491
1.14781
1.14911
1.15356
1.16244
1.17274
1.18045
1.18376
1.18406
1.18247
1.17929
1.17455
1.16804
1.15971
1.14969
1.13807
1.12489
1.10992
1.09282
1.07324
1.05073
1.02435
0.99296
1.27986
1.27831
1.27678
1.27517
1.27347
1.27166
1.26972
1.26762
1.26532
1.26278
1.25994
1.25674
1.25309
1.24889
1.24402
1.23836
1.23178
1.22418
1.21552
1.20581
1.19519
1.1839
1.17234
1.16104
1.15066
1.14191
1.1355
1.13201
1.13174
1.13459
1.14142
1.15298
1.16499
1.17332
1.1766
1.17657
1.17451
1.17079
1.16544
1.15826
1.1492
1.13838
1.12589
1.11175
1.09573
1.0775
1.05675
1.03304
1.00549
0.972768
1.2782
1.27628
1.27465
1.27298
1.27121
1.26932
1.26727
1.26503
1.26255
1.25979
1.25668
1.25313
1.24905
1.24432
1.23881
1.23238
1.22493
1.21637
1.20667
1.19592
1.18428
1.17209
1.15977
1.14792
1.13722
1.12845
1.12234
1.11955
1.12044
1.12485
1.1338
1.14735
1.16013
1.16823
1.17087
1.17012
1.1673
1.16282
1.15673
1.14884
1.1391
1.12762
1.11444
1.09954
1.08261
1.06336
1.04155
1.01679
0.98828
0.95475
1.27676
1.2745
1.27282
1.27111
1.26924
1.26723
1.26505
1.26267
1.26004
1.25708
1.25374
1.24991
1.24548
1.24033
1.23433
1.22735
1.21928
1.21008
1.19976
1.18843
1.17633
1.16379
1.15129
1.13943
1.12891
1.12051
1.11497
1.11303
1.11506
1.12076
1.13119
1.14565
1.15803
1.16499
1.16644
1.16461
1.16082
1.15547
1.14858
1.13998
1.1296
1.11752
1.10374
1.08816
1.07047
1.05037
1.02772
1.00217
0.972953
0.938879
1.27463
1.27248
1.27084
1.26911
1.26721
1.26515
1.26291
1.26045
1.25772
1.25465
1.25116
1.24715
1.24251
1.23712
1.23084
1.22357
1.21524
1.20581
1.19534
1.18399
1.17199
1.15972
1.14764
1.13632
1.12645
1.11878
1.11409
1.11303
1.11601
1.12252
1.13352
1.14757
1.15836
1.16337
1.16313
1.15995
1.15504
1.14876
1.14108
1.13177
1.12077
1.10811
1.09377
1.0776
1.05927
1.03852
1.01528
0.989208
0.959582
0.92528
1.27203
1.2702
1.26859
1.26685
1.26498
1.26296
1.26075
1.25831
1.25558
1.2525
1.24898
1.24493
1.24025
1.23481
1.22852
1.22128
1.21304
1.20381
1.19368
1.18282
1.17148
1.16002
1.14887
1.13857
1.12974
1.12309
1.11933
1.11913
1.12275
1.12946
1.14001
1.15243
1.16064
1.16308
1.1608
1.15606
1.14993
1.14268
1.13418
1.12419
1.11259
1.09939
1.08455
1.06788
1.04902
1.0278
1.00416
0.977809
0.94804
0.913826
1.26988
1.26823
1.26661
1.26487
1.26301
1.261
1.25882
1.25641
1.25372
1.2507
1.24725
1.24329
1.23873
1.23346
1.22739
1.22047
1.21267
1.20403
1.19464
1.1847
1.17444
1.1642
1.15437
1.14542
1.1379
1.13243
1.12962
1.13007
1.1339
1.14018
1.14937
1.15917
1.16418
1.16373
1.15924
1.15284
1.14542
1.13715
1.12785
1.11719
1.10503
1.09134
1.07606
1.05897
1.03972
1.01818
0.994341
0.967913
0.938235
0.904377
1.26783
1.26624
1.26467
1.26299
1.26118
1.25922
1.25709
1.25476
1.25217
1.24926
1.24597
1.24221
1.23791
1.23298
1.22735
1.22099
1.21389
1.2061
1.19775
1.189
1.1801
1.17132
1.163
1.15555
1.14944
1.14515
1.14318
1.14398
1.14755
1.15286
1.16003
1.16666
1.16826
1.1649
1.15821
1.15013
1.14141
1.13213
1.12203
1.11073
1.09805
1.08393
1.06829
1.05086
1.03134
1.00963
0.985755
0.959445
0.930065
0.896784
1.2656
1.26414
1.26263
1.26102
1.2593
1.25744
1.25543
1.25322
1.25079
1.24808
1.24502
1.24156
1.23763
1.23317
1.22812
1.22247
1.21624
1.20948
1.2023
1.19488
1.18742
1.18016
1.17339
1.16743
1.16263
1.15937
1.15801
1.15884
1.16177
1.16573
1.17055
1.17387
1.17222
1.16617
1.15743
1.14776
1.13778
1.12752
1.11666
1.10476
1.09161
1.07712
1.06118
1.04352
1.02384
1.0021
0.97834
0.95231
0.923409
0.890891
1.26337
1.2621
1.26064
1.25909
1.25745
1.2557
1.25382
1.25177
1.24952
1.24704
1.24427
1.24117
1.23768
1.23375
1.22937
1.2245
1.21919
1.2135
1.20753
1.20142
1.19537
1.18956
1.18421
1.17956
1.17588
1.17341
1.17238
1.17294
1.17494
1.17736
1.17979
1.18002
1.17555
1.1672
1.15666
1.14555
1.13441
1.12324
1.11167
1.09923
1.08566
1.07087
1.05472
1.03691
1.01718
0.995529
0.972023
0.946413
0.918141
0.886542
1.26121
1.26009
1.25869
1.25722
1.25566
1.25402
1.25226
1.25037
1.24831
1.24607
1.2436
1.24086
1.23782
1.23445
1.23072
1.22664
1.22223
1.21756
1.21271
1.20782
1.20303
1.1985
1.19437
1.19081
1.18797
1.18602
1.18505
1.18511
1.186
1.18686
1.18707
1.18465
1.17788
1.1677
1.1557
1.14335
1.13118
1.11919
1.10699
1.09408
1.08016
1.06513
1.04884
1.03097
1.0113
0.989861
0.966729
0.94166
0.914138
0.883582
1.25911
1.25807
1.25673
1.25533
1.25386
1.25231
1.25068
1.24893
1.24707
1.24505
1.24286
1.24047
1.23785
1.23499
1.23187
1.2285
1.22491
1.22115
1.2173
1.21347
1.20976
1.20628
1.20313
1.2004
1.19816
1.19647
1.19534
1.19474
1.19447
1.19385
1.19211
1.18754
1.17905
1.1675
1.15437
1.14101
1.12797
1.11528
1.10254
1.08923
1.07505
1.05986
1.0435
1.02566
1.00614
0.985028
0.962376
0.937951
0.911279
0.881861
1.25705
1.25606
1.25476
1.25341
1.25201
1.25055
1.24902
1.2474
1.24569
1.24387
1.24193
1.23984
1.23759
1.23516
1.23257
1.22981
1.22691
1.22393
1.22091
1.21795
1.21512
1.21248
1.21009
1.20797
1.20611
1.20448
1.20304
1.20171
1.20031
1.19833
1.19495
1.1887
1.179
1.1665
1.15255
1.13843
1.12469
1.11143
1.09826
1.08465
1.07027
1.055
1.03864
1.02092
1.00166
0.98096
0.958885
0.935189
0.909444
0.881237
1.25501
1.25408
1.25281
1.2515
1.25014
1.24873
1.24727
1.24574
1.24415
1.24248
1.24073
1.23887
1.23691
1.23485
1.23267
1.2304
1.22806
1.22569
1.22334
1.22107
1.21892
1.21693
1.2151
1.2134
1.21176
1.21008
1.20826
1.20619
1.20372
1.20054
1.19579
1.18828
1.17775
1.16465
1.15017
1.1355
1.12126
1.10757
1.09408
1.08026
1.06578
1.0505
1.03423
1.01669
0.997773
0.977589
0.956173
0.933279
0.90852
0.881579
1.25292
1.25206
1.2508
1.2495
1.24817
1.2468
1.24538
1.24392
1.24241
1.24084
1.23922
1.23754
1.23579
1.23397
1.23211
1.2302
1.22828
1.22638
1.22453
1.22277
1.22114
1.21962
1.2182
1.21678
1.21524
1.21344
1.21123
1.20846
1.20504
1.20081
1.19493
1.18645
1.17541
1.16198
1.14718
1.13217
1.1176
1.10364
1.08995
1.07602
1.06153
1.04632
1.0302
1.01294
0.994438
0.974842
0.954163
0.932135
0.908409
0.88277
1.25085
1.24999
1.24871
1.24741
1.24609
1.24474
1.24335
1.24192
1.24045
1.23894
1.2374
1.23582
1.2342
1.23255
1.23089
1.22923
1.2276
1.22601
1.22451
1.22312
1.22184
1.22065
1.2195
1.21826
1.21675
1.2148
1.21222
1.20883
1.20458
1.19945
1.19263
1.18342
1.17206
1.15848
1.14356
1.1284
1.11367
1.09958
1.08582
1.07189
1.05747
1.04241
1.02653
1.00961
0.991594
0.972653
0.952776
0.931674
0.909023
0.884707
1.24899
1.24799
1.24668
1.24537
1.24403
1.24265
1.24124
1.2398
1.23832
1.23682
1.2353
1.23375
1.23219
1.23063
1.22908
1.22756
1.22609
1.22469
1.2234
1.22222
1.22116
1.22018
1.21918
1.21802
1.2165
1.21438
1.21145
1.20754
1.20259
1.19671
1.1891
1.17932
1.16779
1.15421
1.1393
1.12414
1.10942
1.09535
1.08164
1.06782
1.05357
1.03875
1.02318
1.00666
0.989193
0.970957
0.951934
0.931813
0.910276
0.887296
1.24702
1.24611
1.24478
1.24341
1.24199
1.24054
1.23906
1.23756
1.23604
1.23451
1.23295
1.23139
1.22983
1.22828
1.22676
1.22528
1.22387
1.22255
1.22134
1.22026
1.21929
1.21838
1.21742
1.21625
1.21465
1.21235
1.2091
1.20473
1.1992
1.19271
1.18447
1.17425
1.16264
1.14915
1.13439
1.11937
1.10482
1.09093
1.0774
1.06378
1.04979
1.03528
1.0201
1.00405
0.98719
0.969693
0.95156
0.932467
0.912087
0.890452
1.2446
1.24386
1.24251
1.24108
1.23964
1.23817
1.23667
1.23513
1.23357
1.23199
1.23039
1.22878
1.22718
1.22559
1.22403
1.22252
1.22108
1.21974
1.21851
1.2174
1.2164
1.21544
1.21441
1.21313
1.21137
1.20883
1.20527
1.20048
1.19446
1.18747
1.17874
1.1682
1.1566
1.14331
1.12879
1.11407
1.09987
1.08631
1.07308
1.05976
1.04611
1.03199
1.01726
1.00176
0.985547
0.968815
0.951587
0.933554
0.914376
0.894101
1.24254
1.24167
1.24021
1.23872
1.23724
1.23573
1.23419
1.2326
1.23099
1.22934
1.22767
1.22599
1.2243
1.22263
1.22098
1.21938
1.21784
1.21639
1.21505
1.21382
1.21267
1.21154
1.21031
1.2088
1.20676
1.20391
1.19998
1.19479
1.18832
1.18094
1.17184
1.16111
1.14962
1.13662
1.12249
1.10823
1.09454
1.08146
1.06865
1.05575
1.04251
1.02885
1.01464
0.999749
0.98423
0.968282
0.951959
0.934996
0.917055
0.898167
1.24109
1.23989
1.23831
1.23674
1.23515
1.23352
1.23185
1.23015
1.22842
1.22667
1.22489
1.22309
1.22129
1.21949
1.21771
1.21596
1.21427
1.21265
1.21111
1.20965
1.20824
1.20682
1.20526
1.20338
1.20093
1.19763
1.19324
1.18759
1.1807
1.17298
1.16364
1.15287
1.14162
1.12905
1.11545
1.10183
1.08884
1.0764
1.06414
1.05173
1.03899
1.02584
1.0122
0.997973
0.983199
0.968057
0.952631
0.936726
0.920037
0.902567
1.23937
1.23786
1.23623
1.23462
1.23295
1.23124
1.22948
1.22768
1.22584
1.22396
1.22206
1.22013
1.21818
1.21623
1.21428
1.21235
1.21045
1.2086
1.20679
1.20502
1.20326
1.20143
1.1994
1.19699
1.19396
1.19005
1.18504
1.17883
1.17146
1.16345
1.15398
1.14334
1.1325
1.12052
1.10766
1.0949
1.0828
1.07114
1.05955
1.04774
1.03555
1.02295
1.00992
0.996396
0.982409
0.968096
0.953564
0.938693
0.923244
0.907209
1.23749
1.23582
1.23412
1.23241
1.23066
1.22886
1.22702
1.22513
1.22318
1.2212
1.21917
1.2171
1.21501
1.21288
1.21075
1.20861
1.20647
1.20433
1.2022
1.20005
1.19783
1.19547
1.19283
1.18972
1.18593
1.18121
1.17541
1.16847
1.16055
1.15222
1.14272
1.13242
1.1222
1.11102
1.09914
1.08746
1.07645
1.06574
1.05491
1.04377
1.03219
1.02019
1.00779
0.994984
0.981807
0.968349
0.954714
0.940851
0.926609
0.912001
1.23555
1.23382
1.23204
1.23025
1.22841
1.22652
1.22457
1.22257
1.22052
1.21842
1.21626
1.21405
1.2118
1.2095
1.20716
1.20478
1.20237
1.19992
1.19741
1.19481
1.19206
1.18907
1.18568
1.18172
1.17697
1.17124
1.16443
1.15658
1.14798
1.1393
1.12985
1.12008
1.1107
1.10059
1.08994
1.0796
1.06989
1.06024
1.05028
1.03986
1.02894
1.01756
1.0058
0.993711
0.981345
0.968754
0.956026
0.943155
0.930077
0.91686
1.23357
1.2318
1.22996
1.22808
1.22616
1.22418
1.22214
1.22004
1.21788
1.21565
1.21336
1.211
1.20858
1.2061
1.20355
1.20092
1.19822
1.19543
1.19251
1.18941
1.18606
1.18235
1.17811
1.17315
1.16728
1.16033
1.15229
1.14336
1.13392
1.12483
1.11549
1.10643
1.09813
1.08934
1.08021
1.07146
1.0632
1.05474
1.04569
1.03605
1.02582
1.01508
1.00395
0.992565
0.980983
0.969249
0.95743
0.945544
0.933596
0.921718
1.23161
1.22978
1.22787
1.22592
1.22392
1.22185
1.21972
1.21752
1.21525
1.21291
1.21048
1.20798
1.2054
1.20272
1.19995
1.19708
1.19407
1.19092
1.18756
1.18394
1.17995
1.17546
1.17029
1.16423
1.15709
1.14878
1.13936
1.12916
1.11876
1.10918
1.09995
1.09173
1.08472
1.07751
1.07015
1.06321
1.05655
1.04933
1.04123
1.03237
1.02285
1.01276
1.00227
0.991546
0.980697
0.96978
0.958853
0.947944
0.9371
0.926509
1.22968
1.22778
1.2258
1.22378
1.2217
1.21955
1.21733
1.21503
1.21266
1.2102
1.20765
1.205
1.20225
1.1994
1.19641
1.19328
1.18998
1.18646
1.18267
1.17851
1.17387
1.16858
1.16244
1.15524
1.14678
1.137
1.12608
1.11453
1.10307
1.09291
1.08378
1.07645
1.07087
1.06543
1.06006
1.05509
1.05012
1.04414
1.03698
1.02888
1.02005
1.01061
1.00075
0.990658
0.98048
0.970314
0.960234
0.950273
0.940506
0.931151
1.22775
1.22578
1.22374
1.22165
1.2195
1.21727
1.21497
1.21258
1.21011
1.20754
1.20487
1.20209
1.19919
1.19615
1.19296
1.18959
1.18599
1.18213
1.17792
1.17325
1.16797
1.16191
1.15484
1.14652
1.13675
1.12552
1.1131
1.10015
1.08758
1.07679
1.0677
1.06124
1.05713
1.05357
1.05031
1.04739
1.04409
1.03931
1.03302
1.02563
1.01744
1.00864
0.999399
0.989901
0.980331
0.970837
0.96153
0.95246
0.943721
0.935549
1.22581
1.22379
1.22169
1.21954
1.21732
1.21503
1.21265
1.21018
1.20761
1.20494
1.20216
1.19926
1.19621
1.19301
1.18963
1.18603
1.18218
1.178
1.1734
1.16826
1.16243
1.15567
1.14775
1.13841
1.12746
1.1149
1.10109
1.0868
1.07316
1.06171
1.05256
1.04687
1.04414
1.04246
1.04131
1.04042
1.03867
1.03499
1.02946
1.02267
1.01506
1.00684
0.998193
0.989261
0.980245
0.971343
0.96272
0.954456
0.946669
0.939605
1.22386
1.2218
1.21965
1.21745
1.21517
1.21282
1.21037
1.20783
1.20519
1.20243
1.19955
1.19653
1.19336
1.19001
1.18647
1.18267
1.17859
1.17414
1.16921
1.16369
1.15738
1.15006
1.14145
1.13128
1.11936
1.10571
1.09074
1.07531
1.06071
1.0486
1.03928
1.03415
1.03264
1.03269
1.03353
1.03446
1.03407
1.03129
1.02638
1.02007
1.01292
1.00522
0.997114
0.98871
0.9802
0.971822
0.963793
0.956233
0.949291
0.943233
1.2219
1.2198
1.21762
1.21538
1.21306
1.21065
1.20815
1.20555
1.20283
1.2
1.19704
1.19393
1.19065
1.18718
1.1835
1.17955
1.17528
1.17061
1.16544
1.15962
1.15297
1.14525
1.13616
1.12543
1.11285
1.09844
1.08264
1.06638
1.05102
1.03832
1.02873
1.0239
1.02331
1.02483
1.02736
1.02978
1.03043
1.02833
1.02385
1.01789
1.01108
1.00379
0.99614
0.988208
0.980156
0.972246
0.964728
0.957766
0.951544
0.946361
1.21994
1.21782
1.21561
1.21333
1.21097
1.20852
1.20598
1.20333
1.20057
1.19768
1.19465
1.19146
1.1881
1.18455
1.18075
1.17669
1.17229
1.16747
1.16214
1.15615
1.1493
1.14137
1.13205
1.12107
1.10819
1.09345
1.07725
1.06055
1.04471
1.03153
1.0216
1.01682
1.01678
1.01936
1.02313
1.02656
1.02787
1.02615
1.02194
1.01616
1.00956
1.00255
0.995258
0.987715
0.980063
0.972567
0.965489
0.959022
0.953388
0.948927
1.21799
1.21584
1.21361
1.21131
1.20893
1.20646
1.20388
1.2012
1.1984
1.19546
1.19239
1.18915
1.18574
1.18212
1.17826
1.17412
1.16964
1.16476
1.15936
1.15331
1.14643
1.13849
1.12921
1.1183
1.10554
1.09092
1.07481
1.05811
1.04215
1.02867
1.01837
1.01338
1.01349
1.01661
1.02104
1.02492
1.02642
1.02479
1.02064
1.01492
1.0084
1.00154
0.994471
0.987206
0.979874
0.972729
0.966022
0.959953
0.954774
0.950871
1.21603
1.21389
1.21165
1.20934
1.20694
1.20445
1.20186
1.19915
1.19633
1.19337
1.19027
1.187
1.18356
1.1799
1.17602
1.17185
1.16736
1.16247
1.15709
1.1511
1.14434
1.1366
1.12761
1.11712
1.10487
1.09083
1.0753
1.05907
1.04337
1.02982
1.01919
1.01378
1.01361
1.01669
1.02111
1.02482
1.02604
1.02421
1.01995
1.01416
1.00762
1.00079
0.993793
0.986672
0.979556
0.972682
0.966266
0.960494
0.955636
0.952123
1.21409
1.21195
1.20971
1.2074
1.205
1.2025
1.19991
1.1972
1.19437
1.1914
1.18829
1.18502
1.18157
1.17791
1.17403
1.16988
1.16542
1.16059
1.15532
1.1495
1.14299
1.13562
1.12717
1.11736
1.10599
1.09295
1.07844
1.06313
1.04809
1.03474
1.02387
1.0179
1.01703
1.01948
1.02321
1.02614
1.02665
1.02434
1.0198
1.01387
1.00722
1.0003
0.993245
0.986128
0.979103
0.972395
0.966171
0.96058
0.955903
0.952609
1.21215
1.21002
1.2078
1.2055
1.20311
1.20062
1.19803
1.19533
1.19251
1.18955
1.18645
1.18319
1.17976
1.17613
1.17229
1.16819
1.16381
1.15911
1.15401
1.14844
1.1423
1.13544
1.12768
1.1188
1.10857
1.09686
1.08375
1.06975
1.05573
1.04285
1.03189
1.02524
1.02333
1.0246
1.02703
1.02865
1.02807
1.02506
1.02014
1.01398
1.00717
1.00007
0.992847
0.985596
0.978529
0.971862
0.965707
0.960165
0.955511
0.952257
1.21022
1.20812
1.20591
1.20363
1.20126
1.19879
1.19623
1.19355
1.19075
1.18782
1.18474
1.18152
1.17813
1.17455
1.17076
1.16676
1.1625
1.15795
1.15308
1.14783
1.14213
1.13588
1.12893
1.12111
1.1122
1.10203
1.09059
1.07818
1.06546
1.05331
1.0424
1.03505
1.03183
1.03148
1.03214
1.03206
1.03014
1.02625
1.02085
1.01443
1.00742
1.0001
0.992607
0.985106
0.977868
0.971106
0.964877
0.959227
0.954423
0.951018
1.20831
1.20623
1.20405
1.2018
1.19946
1.19702
1.19448
1.19184
1.18907
1.18618
1.18315
1.17998
1.17664
1.17313
1.16943
1.16553
1.16142
1.15706
1.15245
1.14755
1.14233
1.13672
1.13063
1.12392
1.1164
1.10786
1.0982
1.08756
1.07633
1.0651
1.0544
1.04636
1.04168
1.03944
1.03805
1.03605
1.03264
1.02778
1.02184
1.01513
1.00791
1.00033
0.992512
0.984674
0.977153
0.970164
0.96371
0.957782
0.952636
0.948873
1.20639
1.20434
1.20221
1.19999
1.19769
1.19529
1.1928
1.1902
1.18748
1.18464
1.18166
1.17855
1.17528
1.17185
1.16826
1.16448
1.16052
1.15637
1.15202
1.14748
1.14273
1.13775
1.1325
1.12686
1.12068
1.11375
1.10586
1.097
1.08735
1.07717
1.06682
1.05815
1.05199
1.04778
1.04426
1.04032
1.03539
1.02953
1.02301
1.016
1.00856
1.00071
0.992533
0.984302
0.976413
0.96908
0.962252
0.955871
0.950186
0.945846
1.20449
1.20247
1.20038
1.19821
1.19595
1.19361
1.19116
1.18861
1.18595
1.18316
1.18025
1.17721
1.17402
1.17068
1.16719
1.16354
1.15974
1.15579
1.1517
1.14748
1.14317
1.13877
1.13426
1.12958
1.1246
1.11912
1.11288
1.10572
1.09762
1.08855
1.07865
1.06949
1.06196
1.05588
1.05035
1.04458
1.03821
1.03137
1.02429
1.01697
1.0093
1.00117
0.992629
0.983978
0.975662
0.967888
0.960555
0.953556
0.947135
0.94199
1.20258
1.20061
1.19857
1.19645
1.19425
1.19195
1.18956
1.18707
1.18447
1.18175
1.17891
1.17594
1.17283
1.16958
1.1662
1.16267
1.15901
1.15524
1.15137
1.14744
1.14349
1.13955
1.13565
1.13175
1.12777
1.12351
1.11868
1.11303
1.10637
1.09842
1.08908
1.07959
1.07092
1.06323
1.05595
1.04859
1.04096
1.03324
1.0256
1.01796
1.01005
1.00165
0.99275
0.983673
0.974897
0.966613
0.958666
0.950903
0.943565
0.937392
1.20067
1.19876
1.19678
1.19471
1.19256
1.19033
1.18799
1.18556
1.18302
1.18037
1.1776
1.17471
1.17168
1.16852
1.16523
1.16181
1.15827
1.15464
1.15095
1.14723
1.14354
1.13994
1.13646
1.13313
1.12988
1.12654
1.12285
1.11847
1.11308
1.10621
1.09753
1.08792
1.07841
1.06945
1.0608
1.05219
1.04354
1.03506
1.0269
1.01893
1.01078
1.00211
0.992854
0.983359
0.974108
0.965266
0.956622
0.947976
0.939565
0.932154
1.19877
1.19692
1.19499
1.19299
1.19089
1.18872
1.18644
1.18408
1.1816
1.17902
1.17632
1.17349
1.17054
1.16746
1.16425
1.16091
1.15747
1.15394
1.15035
1.14675
1.1432
1.13978
1.13654
1.13353
1.13073
1.12802
1.12514
1.12175
1.11744
1.11158
1.10365
1.09418
1.08419
1.07437
1.06475
1.05525
1.04586
1.03678
1.02816
1.01986
1.01145
1.00251
0.992912
0.983012
0.973283
0.963853
0.954454
0.944836
0.935227
0.926394
1.19686
1.19507
1.19321
1.19126
1.18922
1.18711
1.1849
1.18259
1.18018
1.17766
1.17503
1.17227
1.16939
1.16637
1.16322
1.15995
1.15655
1.15307
1.14951
1.14594
1.14241
1.139
1.1358
1.13288
1.13025
1.12785
1.12549
1.12281
1.11936
1.11445
1.10736
1.09828
1.08818
1.07792
1.06775
1.05772
1.04786
1.03836
1.02936
1.02075
1.01207
1.00284
0.992917
0.982625
0.972418
0.962384
0.952193
0.941544
0.930643
0.92024
1.19496
1.19323
1.19142
1.18952
1.18755
1.18549
1.18334
1.1811
1.17875
1.1763
1.17372
1.17103
1.1682
1.16523
1.16213
1.15888
1.1555
1.152
1.14841
1.14476
1.14113
1.1376
1.13425
1.1312
1.12849
1.12614
1.12401
1.12178
1.119
1.11494
1.10875
1.10031
1.09047
1.08016
1.06981
1.0596
1.04954
1.03979
1.0305
1.02159
1.01263
1.00312
0.992883
0.982211
0.97153
0.960883
0.949882
0.938168
0.925918
0.913836
1.19309
1.19138
1.18963
1.18779
1.18587
1.18387
1.18178
1.1796
1.17731
1.17491
1.17239
1.16975
1.16696
1.16403
1.16095
1.1577
1.15429
1.15073
1.14704
1.14325
1.13941
1.13563
1.13199
1.12863
1.12565
1.12312
1.12096
1.11894
1.11664
1.11333
1.10808
1.1005
1.09124
1.08123
1.07103
1.0609
1.05087
1.04105
1.03158
1.02241
1.01318
1.00339
0.992847
0.981809
0.970658
0.959398
0.947582
0.934797
0.921172
0.907345
1.19118
1.18952
1.18782
1.18604
1.18417
1.18223
1.1802
1.17807
1.17584
1.17349
1.17103
1.16843
1.16568
1.16277
1.15968
1.15642
1.15295
1.14929
1.14545
1.14145
1.13735
1.13323
1.1292
1.12542
1.12202
1.11912
1.11674
1.11473
1.11272
1.11005
1.10574
1.09917
1.09076
1.08134
1.07154
1.06172
1.05191
1.04216
1.0326
1.02323
1.01374
1.00369
0.992866
0.981477
0.969866
0.957998
0.945381
0.931538
0.916545
0.900953
1.18923
1.18764
1.18599
1.18426
1.18245
1.18056
1.17858
1.17651
1.17433
1.17204
1.16962
1.16706
1.16434
1.16144
1.15835
1.15504
1.15151
1.14774
1.14373
1.1395
1.1351
1.13061
1.12615
1.12188
1.11796
1.11459
1.11184
1.10966
1.10776
1.10559
1.10216
1.09669
1.08931
1.08069
1.0715
1.06214
1.05267
1.04312
1.03357
1.02406
1.01436
1.00408
0.993002
0.981289
0.969236
0.956778
0.943387
0.928528
0.912206
0.894873
1.18725
1.18573
1.18414
1.18247
1.18071
1.17887
1.17694
1.17492
1.17279
1.17055
1.16817
1.16564
1.16295
1.16006
1.15696
1.15362
1.15002
1.14613
1.14196
1.13752
1.13284
1.128
1.12312
1.11835
1.1139
1.10998
1.10676
1.10427
1.10233
1.10049
1.09783
1.09345
1.0872
1.07953
1.07107
1.06226
1.05323
1.04397
1.03452
1.02495
1.01509
1.00462
0.993324
0.981327
0.968865
0.95585
0.941732
0.92592
0.908342
0.889339
1.18526
1.18381
1.18227
1.18064
1.17893
1.17715
1.17527
1.1733
1.17122
1.16902
1.16669
1.1642
1.16153
1.15866
1.15556
1.15219
1.14854
1.14457
1.14027
1.13566
1.13075
1.12562
1.12037
1.11516
1.11019
1.10573
1.10198
1.09909
1.09697
1.09528
1.09323
1.08985
1.08474
1.07807
1.0704
1.06221
1.05366
1.04473
1.03546
1.0259
1.01594
1.00535
0.9939
0.981673
0.968853
0.955335
0.940557
0.923885
0.905158
0.8846
1.18327
1.18187
1.18037
1.17879
1.17713
1.17539
1.17356
1.17164
1.16961
1.16746
1.16517
1.16272
1.16009
1.15725
1.15416
1.1508
1.14713
1.14312
1.13875
1.13404
1.12898
1.12365
1.11813
1.11256
1.10717
1.1022
1.09793
1.09458
1.09216
1.09046
1.08883
1.08629
1.08221
1.07653
1.06966
1.06208
1.054
1.04545
1.0364
1.02693
1.01697
1.00632
0.994792
0.982407
0.969301
0.955355
0.940009
0.922594
0.902857
0.880905
1.18128
1.17992
1.17846
1.17692
1.1753
1.1736
1.17183
1.16995
1.16798
1.16588
1.16364
1.16124
1.15866
1.15586
1.15281
1.14948
1.14583
1.14183
1.13747
1.13273
1.12763
1.12221
1.11653
1.11074
1.10503
1.09965
1.09491
1.09109
1.08831
1.08644
1.08501
1.08309
1.07988
1.0751
1.06899
1.06198
1.05435
1.04615
1.03738
1.02808
1.0182
1.00758
0.996055
0.983601
0.970299
0.956023
0.940227
0.922211
0.901638
0.878496
1.17929
1.17796
1.17653
1.17503
1.17345
1.1718
1.17007
1.16825
1.16632
1.16428
1.1621
1.15976
1.15723
1.15449
1.15151
1.14825
1.14467
1.14074
1.13645
1.13178
1.12673
1.12133
1.11564
1.10976
1.10387
1.09821
1.0931
1.08886
1.08568
1.08354
1.08209
1.08054
1.07799
1.07395
1.06848
1.06198
1.05475
1.0469
1.03843
1.02935
1.01964
1.00916
0.997737
0.985315
0.971926
0.957441
0.941332
0.922888
0.901685
0.877597
1.17728
1.17599
1.17459
1.17313
1.17159
1.16999
1.16831
1.16653
1.16466
1.16267
1.16055
1.15827
1.15582
1.15317
1.15027
1.14711
1.14364
1.13984
1.13569
1.13116
1.12626
1.121
1.11541
1.10959
1.10368
1.0979
1.09255
1.08799
1.08443
1.08192
1.08028
1.07886
1.0767
1.07319
1.06824
1.06215
1.05526
1.04772
1.03957
1.0308
1.02135
1.01109
0.999875
0.987596
0.974245
0.959687
0.943426
0.924745
0.903147
0.878393
1.17525
1.17401
1.17265
1.17122
1.16973
1.16816
1.16653
1.1648
1.16298
1.16105
1.159
1.1568
1.15443
1.15187
1.14908
1.14605
1.14273
1.1391
1.13514
1.13082
1.12615
1.12111
1.11575
1.11012
1.10435
1.09861
1.09319
1.08843
1.08456
1.08167
1.0797
1.07817
1.07615
1.07295
1.06834
1.06256
1.05593
1.04867
1.04085
1.03244
1.02334
1.01341
1.0025
0.99048
0.977298
0.96282
0.946583
0.927877
0.906142
0.881013
1.17321
1.17202
1.1707
1.1693
1.16785
1.16633
1.16473
1.16306
1.16129
1.15942
1.15744
1.15532
1.15304
1.15059
1.14793
1.14504
1.14189
1.13846
1.13473
1.13067
1.12629
1.12156
1.11652
1.1112
1.1057
1.10017
1.09484
1.09002
1.08596
1.08271
1.08034
1.07852
1.07639
1.07327
1.06883
1.06324
1.05682
1.04982
1.04233
1.03432
1.02565
1.01614
1.00564
0.993986
0.981112
0.966874
0.950847
0.93234
0.910752
0.885671
1.17118
1.17003
1.16873
1.16737
1.16596
1.16448
1.16293
1.1613
1.15959
1.15778
1.15586
1.15382
1.15164
1.1493
1.14678
1.14405
1.14109
1.13788
1.1344
1.13063
1.12657
1.12221
1.11755
1.11264
1.10753
1.10234
1.09726
1.09254
1.0884
1.08488
1.08209
1.07987
1.07743
1.07418
1.06975
1.06425
1.05797
1.05121
1.04407
1.0365
1.02832
1.0193
1.00929
0.998121
0.985691
0.971858
0.956233
0.938151
0.916985
0.89226
1.16916
1.16804
1.16677
1.16544
1.16406
1.16262
1.16111
1.15953
1.15787
1.15612
1.15427
1.15231
1.15023
1.148
1.14561
1.14304
1.14027
1.13729
1.13407
1.13061
1.12689
1.12292
1.1187
1.11424
1.10961
1.10487
1.10016
1.09569
1.09162
1.08793
1.08477
1.08209
1.07923
1.0757
1.07113
1.06563
1.05946
1.05292
1.04614
1.03903
1.03136
1.0229
1.01346
1.00287
0.991022
0.977756
0.962725
0.945293
0.924829
0.900809
1.16714
1.16606
1.16481
1.16351
1.16216
1.16075
1.15928
1.15774
1.15613
1.15444
1.15266
1.15077
1.14878
1.14666
1.1444
1.14199
1.13941
1.13665
1.13369
1.13053
1.12716
1.12358
1.11981
1.11584
1.11172
1.1075
1.10326
1.09916
1.0953
1.09157
1.08813
1.08502
1.08168
1.07777
1.07299
1.06742
1.06132
1.055
1.04858
1.04193
1.0348
1.02693
1.01812
1.00822
0.997071
0.984527
0.970285
0.95372
0.934231
0.911264
1.16515
1.16409
1.16286
1.16158
1.16026
1.15888
1.15744
1.15594
1.15437
1.15273
1.15101
1.1492
1.14729
1.14527
1.14314
1.14087
1.13847
1.13591
1.1332
1.13033
1.1273
1.12411
1.12077
1.11729
1.1137
1.11003
1.10632
1.10266
1.09911
1.09549
1.09191
1.08843
1.08464
1.08035
1.0753
1.06964
1.06362
1.05751
1.05142
1.04522
1.03863
1.03136
1.02324
1.01411
1.00379
0.99213
0.978829
0.963351
0.945095
0.923503
1.16317
1.16212
1.16091
1.15966
1.15836
1.15701
1.1556
1.15413
1.1526
1.15101
1.14934
1.14759
1.14576
1.14383
1.14181
1.13968
1.13743
1.13507
1.13259
1.12998
1.12726
1.12443
1.1215
1.11849
1.11541
1.11228
1.10911
1.10595
1.1028
1.0994
1.09581
1.0921
1.08795
1.08331
1.07803
1.07228
1.06633
1.06043
1.05465
1.04887
1.04279
1.03615
1.02877
1.02048
1.01111
1.00047
0.988286
0.974083
0.95729
0.937366
1.16119
1.16016
1.15897
1.15774
1.15646
1.15513
1.15375
1.15231
1.15082
1.14926
1.14764
1.14594
1.14418
1.14233
1.14041
1.1384
1.13629
1.1341
1.13182
1.12946
1.12702
1.12451
1.12196
1.11937
1.11676
1.11414
1.11149
1.10883
1.10611
1.10303
1.09956
1.09576
1.09139
1.0865
1.08106
1.07527
1.0694
1.06369
1.05821
1.05281
1.04723
1.04122
1.03463
1.02727
1.01894
1.00946
0.998545
0.985788
0.970664
0.952661
1.15923
1.15821
1.15703
1.15581
1.15456
1.15325
1.15189
1.15048
1.14902
1.14749
1.14591
1.14427
1.14256
1.14078
1.13894
1.13703
1.13505
1.13301
1.1309
1.12874
1.12655
1.12432
1.1221
1.11988
1.11769
1.11552
1.11336
1.11117
1.10889
1.10618
1.10293
1.09917
1.09471
1.08971
1.08421
1.07844
1.07269
1.06718
1.06197
1.05693
1.05184
1.04649
1.04073
1.03438
1.0272
1.01899
1.00949
0.998322
0.985038
0.969166
1.15729
1.15627
1.1551
1.1539
1.15266
1.15137
1.15004
1.14865
1.14721
1.14572
1.14417
1.14257
1.1409
1.13919
1.13741
1.13558
1.13371
1.13178
1.12982
1.12784
1.12585
1.12387
1.12191
1.12001
1.11818
1.1164
1.11465
1.11289
1.111
1.10867
1.10571
1.10208
1.09768
1.0927
1.08725
1.0816
1.07601
1.07071
1.06576
1.06108
1.0565
1.05185
1.04699
1.04172
1.03579
1.02896
1.02097
1.01153
1.00022
0.986644
1.15538
1.15434
1.15319
1.152
1.15078
1.14951
1.14819
1.14682
1.1454
1.14394
1.14242
1.14084
1.13922
1.13755
1.13583
1.13407
1.13227
1.13044
1.1286
1.12675
1.12492
1.12313
1.1214
1.11976
1.11821
1.11675
1.11534
1.11391
1.11237
1.1104
1.10774
1.1043
1.10006
1.09521
1.08993
1.08447
1.07912
1.07407
1.06941
1.06512
1.06109
1.05719
1.0533
1.0492
1.0446
1.03924
1.03288
1.02524
1.01602
1.00485
1.15347
1.15243
1.15129
1.15011
1.1489
1.14765
1.14635
1.145
1.1436
1.14215
1.14065
1.13911
1.13752
1.13588
1.1342
1.13249
1.13075
1.12899
1.12723
1.12549
1.12378
1.12213
1.12057
1.11911
1.11777
1.11654
1.11539
1.11422
1.11294
1.11127
1.10889
1.10566
1.10163
1.09701
1.09198
1.08682
1.08177
1.07704
1.07274
1.06889
1.06548
1.06242
1.05958
1.05673
1.05355
1.04973
1.04505
1.0393
1.03222
1.02352
1.15157
1.15052
1.1494
1.14824
1.14704
1.1458
1.14451
1.14318
1.1418
1.14037
1.13889
1.13737
1.13579
1.13418
1.13253
1.13085
1.12915
1.12744
1.12574
1.12406
1.12243
1.12087
1.11941
1.11807
1.11686
1.11578
1.11478
1.11377
1.11266
1.11121
1.10906
1.10602
1.10225
1.0979
1.09321
1.08842
1.08376
1.07943
1.07557
1.07228
1.06959
1.06746
1.06576
1.06423
1.06253
1.06032
1.05738
1.05354
1.04864
1.04242
1.14967
1.14863
1.14751
1.14637
1.14519
1.14396
1.14269
1.14137
1.14001
1.13859
1.13713
1.13562
1.13406
1.13247
1.13083
1.12917
1.12749
1.1258
1.12412
1.12246
1.12087
1.11934
1.11792
1.11663
1.11547
1.11443
1.11348
1.11253
1.11148
1.11016
1.10816
1.1053
1.10179
1.09776
1.09346
1.08912
1.08494
1.08111
1.0778
1.07518
1.07332
1.07223
1.07176
1.07164
1.07147
1.07089
1.06971
1.0678
1.06507
1.06132
1.14777
1.14673
1.14564
1.14451
1.14334
1.14213
1.14088
1.13957
1.13822
1.13682
1.13537
1.13387
1.13233
1.13074
1.12911
1.12745
1.12576
1.12407
1.12238
1.12072
1.1191
1.11756
1.11611
1.11477
1.11356
1.11247
1.11146
1.11045
1.10935
1.10805
1.10613
1.10342
1.10017
1.0965
1.09264
1.08882
1.08521
1.08199
1.07936
1.07753
1.07664
1.0767
1.07756
1.07889
1.08029
1.08136
1.08193
1.08194
1.08133
1.07998
1.14588
1.14485
1.14378
1.14267
1.14151
1.14032
1.13908
1.13779
1.13645
1.13506
1.13362
1.13213
1.13059
1.129
1.12736
1.12569
1.12399
1.12226
1.12054
1.11882
1.11714
1.11551
1.11395
1.11249
1.11113
1.10986
1.10866
1.10747
1.1062
1.10483
1.10291
1.10032
1.09736
1.09409
1.09074
1.08751
1.08456
1.08206
1.08023
1.07932
1.07952
1.08084
1.08311
1.08595
1.08892
1.09163
1.09392
1.0958
1.09727
1.0982
1.14398
1.14297
1.14192
1.14083
1.13969
1.13852
1.13729
1.13602
1.13469
1.13331
1.13188
1.13039
1.12885
1.12725
1.1256
1.1239
1.12216
1.12038
1.11858
1.11677
1.11497
1.11319
1.11145
1.10976
1.10813
1.10657
1.10505
1.10355
1.102
1.10044
1.09846
1.09598
1.09334
1.09054
1.08778
1.08523
1.08303
1.08135
1.08042
1.08056
1.08197
1.08466
1.0884
1.09278
1.09731
1.10162
1.10559
1.10927
1.11271
1.1158
1.14209
1.1411
1.14007
1.139
1.13788
1.13673
1.13552
1.13426
1.13295
1.13158
1.13015
1.12866
1.12711
1.1255
1.12382
1.12208
1.12028
1.11843
1.11652
1.11458
1.1126
1.1106
1.10858
1.10657
1.10456
1.10257
1.1006
1.09865
1.09671
1.09487
1.09276
1.0904
1.08814
1.0859
1.08383
1.08205
1.08069
1.07991
1.08
1.0813
1.08403
1.08816
1.09342
1.09934
1.1054
1.11126
1.11683
1.12223
1.12752
1.13263
1.1402
1.13923
1.13822
1.13717
1.13608
1.13494
1.13375
1.13251
1.13121
1.12985
1.12843
1.12694
1.12538
1.12374
1.12203
1.12024
1.11836
1.11641
1.11436
1.11223
1.11002
1.10773
1.10535
1.10291
1.1004
1.09786
1.09532
1.0928
1.09036
1.08815
1.08586
1.08363
1.08181
1.08025
1.07898
1.07808
1.07765
1.07786
1.07905
1.0816
1.08573
1.09138
1.09818
1.10562
1.11316
1.12048
1.12757
1.13458
1.14159
1.14853
1.13832
1.13736
1.13638
1.13536
1.13429
1.13317
1.132
1.13078
1.12949
1.12814
1.12672
1.12522
1.12365
1.12199
1.12023
1.11837
1.1164
1.11432