/*--------------------------------*- C++ -*----------------------------------*\
  =========                 |
  \\      /  F ield         | OpenFOAM: The Open Source CFD Toolbox
   \\    /   O peration     | Website:  https://openfoam.org
    \\  /    A nd           | Version:  9
     \\/     M anipulation  |
\*---------------------------------------------------------------------------*/
FoamFile
{
    format      ascii;
    class       volScalarField;
    location    "0.08";
    object      p_rgh;
}
// * * * * * * * * * * * * * * * * * * * * * * * * * * * * * * * * * * * * * //

dimensions      [1 -1 -2 0 0 0 0];

internalField   nonuniform List<scalar> 
5000
(
1.26935e-05
-0.00144031
-0.00287051
-0.00438374
-0.0059844
-0.00768051
-0.00948859
-0.011429
-0.0135281
-0.0158199
-0.0183473
-0.0211635
-0.0243351
-0.0279436
-0.0320867
-0.0368745
-0.0424219
-0.048836
-0.0561942
-0.0645168
-0.0737383
-0.0836758
-0.0940189
-0.104292
-0.113932
-0.12228
-0.128694
-0.132661
-0.133955
-0.132658
-0.128202
-0.119322
-0.109027
-0.101318
-0.0980028
-0.0977041
-0.0992978
-0.10247
-0.10721
-0.113725
-0.122056
-0.132076
-0.143691
-0.156879
-0.171843
-0.188949
-0.208523
-0.231039
-0.257414
-0.288805
5.22866e-05
-0.00148991
-0.0030188
-0.00462998
-0.00632992
-0.00813903
-0.0100818
-0.0121859
-0.0144861
-0.0170268
-0.0198635
-0.023065
-0.0267157
-0.030917
-0.0357856
-0.0414477
-0.0480254
-0.0556183
-0.0642804
-0.0739884
-0.0846152
-0.0959063
-0.107467
-0.118762
-0.129142
-0.137891
-0.144305
-0.147795
-0.148064
-0.14521
-0.138386
-0.126826
-0.114809
-0.106483
-0.103207
-0.103232
-0.105291
-0.109011
-0.114364
-0.121545
-0.130606
-0.141426
-0.153913
-0.168054
-0.18407
-0.202306
-0.223049
-0.246767
-0.274316
-0.307035
0.000361432
-0.00156461
-0.00319237
-0.00486065
-0.00662763
-0.00852248
-0.0105735
-0.0128146
-0.0152882
-0.0180477
-0.02116
-0.0247072
-0.0287889
-0.0335215
-0.0390336
-0.0454571
-0.0529104
-0.0614748
-0.0711695
-0.0819247
-0.0935569
-0.105755
-0.118071
-0.129924
-0.140617
-0.14939
-0.155505
-0.158293
-0.157402
-0.152995
-0.144043
-0.130494
-0.117709
-0.109612
-0.106968
-0.107723
-0.110544
-0.115019
-0.121113
-0.129003
-0.13874
-0.150224
-0.163397
-0.178306
-0.195226
-0.214484
-0.236292
-0.261055
-0.289561
-0.323091
0.000876196
-0.00138335
-0.00305466
-0.00477191
-0.00663502
-0.00864571
-0.0108241
-0.0132071
-0.0158435
-0.0187954
-0.0221397
-0.0259702
-0.0303975
-0.0355464
-0.041549
-0.0485321
-0.0565982
-0.0658017
-0.0761235
-0.0874494
-0.0995538
-0.11209
-0.124588
-0.136451
-0.146972
-0.155371
-0.160904
-0.162846
-0.16082
-0.155123
-0.144686
-0.130233
-0.117852
-0.110886
-0.109441
-0.111271
-0.115063
-0.120409
-0.127294
-0.135895
-0.146274
-0.158362
-0.172141
-0.187719
-0.205411
-0.225508
-0.248157
-0.273709
-0.302926
-0.337
0.000708548
-0.00143546
-0.00307504
-0.00481022
-0.00671128
-0.00876782
-0.0110052
-0.0134637
-0.016195
-0.0192649
-0.0227549
-0.0267631
-0.0314029
-0.0367982
-0.0430742
-0.0503423
-0.0586803
-0.06811
-0.0785762
-0.0899305
-0.101922
-0.114194
-0.126279
-0.1376
-0.147472
-0.155134
-0.159824
-0.160888
-0.157908
-0.1514
-0.140401
-0.126344
-0.115556
-0.110546
-0.110787
-0.113969
-0.118876
-0.125154
-0.132842
-0.142143
-0.153143
-0.165803
-0.180142
-0.196314
-0.21465
-0.235394
-0.25864
-0.284709
-0.314335
-0.348637
7.55649e-05
-0.00175577
-0.00336767
-0.00510114
-0.00697258
-0.00899344
-0.0112028
-0.0136454
-0.0163752
-0.0194585
-0.0229761
-0.0270234
-0.0317077
-0.0371427
-0.0434371
-0.0506797
-0.0589193
-0.068146
-0.0782749
-0.0891364
-0.100472
-0.111936
-0.123086
-0.133389
-0.142213
-0.148865
-0.152625
-0.152827
-0.149203
-0.142491
-0.131941
-0.119527
-0.111318
-0.108877
-0.111157
-0.115892
-0.122024
-0.12928
-0.137778
-0.147767
-0.159365
-0.172561
-0.187402
-0.20408
-0.222933
-0.244155
-0.267792
-0.294146
-0.323915
-0.358129
-0.000110081
-0.0017617
-0.00338216
-0.00512082
-0.00698283
-0.00898919
-0.0111748
-0.0135831
-0.0162681
-0.0192955
-0.0227432
-0.0267006
-0.0312651
-0.0365351
-0.042599
-0.0495206
-0.0573215
-0.0659661
-0.0753497
-0.0852944
-0.0955489
-0.105791
-0.115626
-0.124578
-0.132092
-0.137563
-0.140369
-0.139926
-0.136097
-0.129815
-0.120623
-0.110822
-0.105814
-0.106261
-0.110753
-0.117153
-0.124574
-0.132838
-0.142147
-0.152805
-0.164968
-0.178651
-0.193929
-0.211024
-0.230271
-0.251812
-0.275652
-0.30208
-0.331758
-0.365616
-0.000200044
-0.00178753
-0.00335886
-0.00504139
-0.00685336
-0.00880957
-0.0109366
-0.0132722
-0.0158642
-0.0187714
-0.0220637
-0.0258197
-0.0301228
-0.0350539
-0.0406807
-0.0470439
-0.0541437
-0.0619267
-0.0702793
-0.079026
-0.0879336
-0.096715
-0.10503
-0.112478
-0.118594
-0.12288
-0.124847
-0.124054
-0.120481
-0.115174
-0.108
-0.101371
-0.0997707
-0.103128
-0.109826
-0.1179
-0.126625
-0.135899
-0.146004
-0.157302
-0.169985
-0.1841
-0.199744
-0.217167
-0.23669
-0.258401
-0.282276
-0.308586
-0.337966
-0.371247
-0.000464517
-0.00192671
-0.00343464
-0.00504673
-0.00677368
-0.00862985
-0.0106421
-0.0128446
-0.0152785
-0.0179938
-0.0210487
-0.0245078
-0.0284379
-0.0329014
-0.037946
-0.0435941
-0.0498303
-0.0565921
-0.0637656
-0.0711871
-0.0786486
-0.0859048
-0.0926757
-0.098642
-0.103442
-0.106697
-0.108056
-0.107227
-0.104301
-0.100343
-0.0955237
-0.0921997
-0.0938477
-0.0998941
-0.10864
-0.118309
-0.128291
-0.138544
-0.14941
-0.161306
-0.174462
-0.188947
-0.204884
-0.222544
-0.242227
-0.263971
-0.287729
-0.313759
-0.34266
-0.375178
-0.000736625
-0.00200928
-0.003463
-0.00501244
-0.00665494
-0.00840651
-0.0102913
-0.0123383
-0.0145822
-0.0170644
-0.019832
-0.0229361
-0.0264277
-0.0303524
-0.0347416
-0.0396038
-0.0449143
-0.0506087
-0.0565805
-0.0626836
-0.0687406
-0.0745512
-0.0798973
-0.0845426
-0.0882293
-0.0906983
-0.0917287
-0.0911627
-0.0891697
-0.0867458
-0.0843192
-0.084084
-0.0885616
-0.0969119
-0.107444
-0.118553
-0.129699
-0.140864
-0.152436
-0.164875
-0.178444
-0.193235
-0.20939
-0.227197
-0.246929
-0.268578
-0.292084
-0.317694
-0.345966
-0.377565
-0.000933478
-0.00205703
-0.00345172
-0.00492661
-0.00648026
-0.00812784
-0.00988672
-0.0117785
-0.01383
-0.0160731
-0.0185437
-0.0212803
-0.0243205
-0.0276959
-0.0314256
-0.0355088
-0.0399172
-0.0445899
-0.0494325
-0.0543211
-0.0591116
-0.0636492
-0.067777
-0.0713374
-0.0741705
-0.0761271
-0.0770991
-0.0770362
-0.0761431
-0.0752822
-0.075076
-0.0774999
-0.0842602
-0.0944484
-0.106448
-0.118793
-0.130968
-0.142953
-0.155155
-0.168069
-0.181984
-0.197011
-0.213308
-0.231173
-0.250847
-0.272284
-0.295416
-0.320485
-0.348007
-0.378563
-0.0010762
-0.00210969
-0.00345079
-0.00485441
-0.00632288
-0.00786921
-0.0095059
-0.0112487
-0.0131168
-0.0151332
-0.0173233
-0.0197142
-0.0223314
-0.0251952
-0.0283154
-0.0316854
-0.0352766
-0.0390352
-0.0428816
-0.0467161
-0.0504278
-0.0539066
-0.0570528
-0.0597811
-0.0620192
-0.0637128
-0.0648446
-0.0654427
-0.0657094
-0.0663353
-0.0680718
-0.0726471
-0.0811294
-0.0926847
-0.105817
-0.119168
-0.132211
-0.144899
-0.157639
-0.170949
-0.185136
-0.200324
-0.216687
-0.234524
-0.25404
-0.275155
-0.297807
-0.322232
-0.348904
-0.378322
-0.00117522
-0.00216184
-0.00346185
-0.00481025
-0.0062102
-0.00767195
-0.0092044
-0.0108186
-0.0125277
-0.014347
-0.0162933
-0.0183841
-0.020635
-0.023057
-0.0256528
-0.0284121
-0.0313079
-0.0342941
-0.0373068
-0.0402697
-0.0431037
-0.0457399
-0.0481303
-0.0502541
-0.0521148
-0.0537376
-0.0551761
-0.0565097
-0.0579144
-0.0598958
-0.0632751
-0.0695189
-0.079223
-0.0917237
-0.105672
-0.119793
-0.133528
-0.146786
-0.159958
-0.173573
-0.187951
-0.203225
-0.219579
-0.237304
-0.256566
-0.277261
-0.299336
-0.323032
-0.348777
-0.376984
-0.00124792
-0.00217584
-0.00344685
-0.0047639
-0.00612319
-0.0075311
-0.00899285
-0.0105151
-0.0121058
-0.0137743
-0.0155306
-0.0173846
-0.0193442
-0.0214132
-0.023589
-0.0258586
-0.028197
-0.0305657
-0.0329146
-0.0351883
-0.0373363
-0.039326
-0.0411548
-0.0428571
-0.0445012
-0.0461785
-0.0479972
-0.0500711
-0.0525381
-0.0557229
-0.0604702
-0.0679817
-0.0785042
-0.0916042
-0.106089
-0.120756
-0.135002
-0.148686
-0.162175
-0.175999
-0.19048
-0.205762
-0.222033
-0.239566
-0.258486
-0.27867
-0.300086
-0.32298
-0.347739
-0.37468
-0.00137482
-0.00224031
-0.00349892
-0.00479846
-0.00612967
-0.00750045
-0.00891486
-0.0103759
-0.0118871
-0.0134525
-0.0150762
-0.0167619
-0.0185112
-0.0203222
-0.0221877
-0.024093
-0.0260142
-0.0279188
-0.0297682
-0.0315241
-0.0331596
-0.0346726
-0.0360985
-0.0375183
-0.0390542
-0.0408532
-0.0430675
-0.0458353
-0.049255
-0.0534887
-0.0593715
-0.0678443
-0.0788882
-0.0923218
-0.107115
-0.122122
-0.136698
-0.150659
-0.164345
-0.178276
-0.192771
-0.207981
-0.224093
-0.241359
-0.259859
-0.279455
-0.300134
-0.322162
-0.345888
-0.371527
-0.00148025
-0.00234968
-0.00362503
-0.00492257
-0.00624142
-0.00759474
-0.00898573
-0.010415
-0.0118831
-0.0133903
-0.0149363
-0.0165195
-0.0181365
-0.0197808
-0.0214415
-0.0231018
-0.0247386
-0.0263232
-0.0278254
-0.0292199
-0.0304979
-0.0316812
-0.0328358
-0.0340798
-0.0355802
-0.0375302
-0.0401188
-0.0435039
-0.0477553
-0.0528815
-0.0597073
-0.0689161
-0.0802759
-0.0938516
-0.10877
-0.123937
-0.138669
-0.152758
-0.166517
-0.180449
-0.194868
-0.209923
-0.225802
-0.242729
-0.260741
-0.279682
-0.299559
-0.320661
-0.343312
-0.367628
-0.0013846
-0.00238676
-0.00369014
-0.00500184
-0.00634349
-0.00772172
-0.00913377
-0.0105774
-0.0120506
-0.0135513
-0.0150761
-0.0166208
-0.0181786
-0.01974
-0.0212914
-0.0228146
-0.0242867
-0.0256817
-0.0269746
-0.0281492
-0.0292097
-0.0301953
-0.0311945
-0.0323543
-0.0338766
-0.0359922
-0.0389205
-0.0428367
-0.0477879
-0.0536643
-0.0612702
-0.0710489
-0.0825858
-0.0961675
-0.111069
-0.126234
-0.140956
-0.15502
-0.168728
-0.182557
-0.196808
-0.211627
-0.227197
-0.243716
-0.26118
-0.279416
-0.298439
-0.31856
-0.340097
-0.363077
-0.00138961
-0.0023059
-0.00362891
-0.0050058
-0.00642345
-0.00787303
-0.0093485
-0.0108473
-0.0123671
-0.0139049
-0.0154567
-0.0170167
-0.0185769
-0.0201264
-0.0216501
-0.023129
-0.0245403
-0.0258598
-0.0270661
-0.0281488
-0.0291208
-0.0300327
-0.0309888
-0.032156
-0.0337613
-0.0360643
-0.0393074
-0.0436797
-0.0492153
-0.0557048
-0.0639439
-0.074162
-0.0857753
-0.0992591
-0.114025
-0.129041
-0.143586
-0.157476
-0.171008
-0.184629
-0.198623
-0.213128
-0.228315
-0.244356
-0.261221
-0.278718
-0.296851
-0.315944
-0.336324
-0.357959
-0.00184835
-0.00258788
-0.00394011
-0.005367
-0.00680975
-0.00827919
-0.00978111
-0.0113142
-0.0128747
-0.0144577
-0.0160568
-0.0176641
-0.0192697
-0.0208609
-0.0224214
-0.0239316
-0.025369
-0.0267107
-0.027938
-0.0290447
-0.030049
-0.0310089
-0.0320381
-0.0333157
-0.0350839
-0.0376206
-0.0411827
-0.045965
-0.0519935
-0.0589764
-0.0677124
-0.0782502
-0.0898501
-0.103144
-0.11766
-0.132377
-0.14658
-0.160144
-0.173374
-0.186687
-0.200339
-0.214456
-0.229188
-0.244685
-0.260902
-0.277634
-0.294862
-0.312895
-0.332073
-0.352348
-0.00194786
-0.00281335
-0.00427836
-0.00576346
-0.00724382
-0.00875297
-0.0102993
-0.0118821
-0.0134989
-0.0151451
-0.0168139
-0.0184968
-0.020183
-0.0218588
-0.0235079
-0.0251108
-0.0266461
-0.0280927
-0.0294349
-0.0306702
-0.0318212
-0.0329507
-0.0341775
-0.0356862
-0.0377256
-0.04058
-0.0445081
-0.0496984
-0.056165
-0.0635457
-0.0726492
-0.0833765
-0.0948631
-0.107865
-0.122001
-0.13626
-0.149946
-0.16303
-0.175835
-0.18874
-0.201974
-0.215636
-0.229849
-0.244738
-0.260257
-0.276205
-0.292528
-0.309491
-0.327432
-0.34632
-0.00143871
-0.00263795
-0.00421243
-0.00578254
-0.00737559
-0.00900781
-0.0106745
-0.0123729
-0.0141016
-0.0158578
-0.0176371
-0.019433
-0.0212369
-0.0230371
-0.024819
-0.0265656
-0.0282583
-0.0298797
-0.0314185
-0.0328771
-0.0342833
-0.0357045
-0.0372624
-0.0391431
-0.0415936
-0.0448923
-0.0492843
-0.0549338
-0.0618295
-0.0695417
-0.0788844
-0.0896551
-0.100902
-0.11348
-0.127076
-0.140694
-0.153682
-0.16613
-0.178387
-0.190791
-0.203533
-0.216685
-0.230326
-0.244552
-0.259326
-0.274468
-0.289894
-0.305799
-0.322488
-0.339958
-0.00119299
-0.00270625
-0.00432923
-0.00594642
-0.00761054
-0.00932473
-0.0110842
-0.0128861
-0.0147269
-0.0166023
-0.0185076
-0.0204369
-0.0223827
-0.0243357
-0.026284
-0.0282142
-0.0301124
-0.0319668
-0.0337729
-0.0355402
-0.0373039
-0.0391378
-0.041167
-0.0435766
-0.046606
-0.0505164
-0.0555207
-0.0617346
-0.0690995
-0.0771144
-0.086588
-0.0972215
-0.10806
-0.120042
-0.132901
-0.145668
-0.157764
-0.16942
-0.181014
-0.192828
-0.205016
-0.217611
-0.230643
-0.244167
-0.258154
-0.272467
-0.286999
-0.30187
-0.317319
-0.333354
-0.00111569
-0.00278327
-0.00448534
-0.00619311
-0.00794302
-0.00973815
-0.0115817
-0.0134748
-0.0154162
-0.0174032
-0.0194321
-0.021498
-0.0235951
-0.025716
-0.0278522
-0.0299947
-0.0321354
-0.0342702
-0.0364032
-0.0385546
-0.0407699
-0.0431323
-0.0457733
-0.0488771
-0.0526715
-0.05739
-0.0631949
-0.0701265
-0.0780526
-0.0863771
-0.0958782
-0.106184
-0.116403
-0.127576
-0.139462
-0.151142
-0.162146
-0.172863
-0.183687
-0.194833
-0.206409
-0.218413
-0.230815
-0.243617
-0.256794
-0.270252
-0.283887
-0.29775
-0.311992
-0.3266
-0.0010903
-0.00281982
-0.00459418
-0.00639127
-0.00823308
-0.0101237
-0.0120668
-0.014064
-0.0161156
-0.0182209
-0.0203789
-0.0225872
-0.0248428
-0.0271421
-0.0294809
-0.0318561
-0.0342672
-0.0367193
-0.0392282
-0.0418271
-0.0445762
-0.0475723
-0.0509571
-0.0549165
-0.0596649
-0.0653991
-0.0722132
-0.0800566
-0.0886622
-0.0973373
-0.106786
-0.116558
-0.125939
-0.136048
-0.146696
-0.157036
-0.166754
-0.176398
-0.186363
-0.196777
-0.207697
-0.21908
-0.230844
-0.242928
-0.255294
-0.267885
-0.280613
-0.293484
-0.306562
-0.319779
-0.00110398
-0.00287909
-0.00472133
-0.00659472
-0.00851753
-0.0104966
-0.0125357
-0.0146363
-0.0167997
-0.0190266
-0.0213176
-0.0236729
-0.026093
-0.0285782
-0.0311299
-0.0337521
-0.0364532
-0.0392496
-0.0421707
-0.0452662
-0.0486144
-0.0523302
-0.0565704
-0.061527
-0.067402
-0.0743489
-0.0823821
-0.0913189
-0.100755
-0.109842
-0.119188
-0.128252
-0.136551
-0.145334
-0.154468
-0.163219
-0.171474
-0.179941
-0.188986
-0.198627
-0.208857
-0.219598
-0.230724
-0.242112
-0.253694
-0.265428
-0.277247
-0.289133
-0.301081
-0.312959
-0.00110503
-0.00293501
-0.00484771
-0.00679605
-0.00879808
-0.0108623
-0.012993
-0.0151928
-0.0174643
-0.01981
-0.0222323
-0.0247343
-0.0273196
-0.0299931
-0.0327623
-0.0356386
-0.0386403
-0.0417963
-0.0451513
-0.0487737
-0.0527628
-0.0572559
-0.0624293
-0.0684866
-0.0756208
-0.0839389
-0.0933596
-0.103558
-0.113955
-0.123534
-0.132761
-0.140986
-0.147997
-0.155207
-0.162567
-0.169506
-0.176161
-0.183388
-0.191485
-0.200341
-0.209867
-0.219954
-0.230445
-0.241169
-0.252018
-0.262935
-0.273862
-0.284771
-0.295615
-0.306206
-0.00107681
-0.00297708
-0.00495758
-0.00697736
-0.00905645
-0.0112034
-0.0134228
-0.0157187
-0.018095
-0.0205559
-0.023106
-0.0257511
-0.0284984
-0.0313577
-0.0343423
-0.0374716
-0.040774
-0.0442911
-0.0480839
-0.0522401
-0.056882
-0.0621717
-0.0683092
-0.0755134
-0.0839737
-0.0937556
-0.104669
-0.116227
-0.127687
-0.13784
-0.146972
-0.154298
-0.159884
-0.165321
-0.170697
-0.17566
-0.180637
-0.186612
-0.193777
-0.201871
-0.210706
-0.220139
-0.23
-0.240095
-0.250273
-0.260439
-0.270519
-0.28048
-0.290247
-0.299602
-0.00104146
-0.00301223
-0.00505529
-0.00714267
-0.0092945
-0.0115188
-0.0138212
-0.0162072
-0.018682
-0.0212516
-0.0239226
-0.0267037
-0.0296056
-0.0326424
-0.0358335
-0.0392058
-0.0427971
-0.0466615
-0.0508753
-0.0555454
-0.0608166
-0.0668766
-0.0739505
-0.082276
-0.0920407
-0.103275
-0.115692
-0.128643
-0.14121
-0.151998
-0.161096
-0.167549
-0.171664
-0.175221
-0.178486
-0.181398
-0.184704
-0.189476
-0.195771
-0.203162
-0.21135
-0.220149
-0.229392
-0.23889
-0.24846
-0.257954
-0.267261
-0.276331
-0.28507
-0.293242
-0.00101682
-0.00304264
-0.00514043
-0.00728954
-0.00950778
-0.0118029
-0.0141815
-0.0166501
-0.0192153
-0.0218845
-0.0246667
-0.0275728
-0.030617
-0.0338176
-0.0371989
-0.0407946
-0.0446509
-0.0488325
-0.0534293
-0.0585647
-0.0644039
-0.0711579
-0.0790767
-0.0884164
-0.0993669
-0.111926
-0.12574
-0.140025
-0.153665
-0.165116
-0.17427
-0.179963
-0.182686
-0.184366
-0.185514
-0.186414
-0.188156
-0.19184
-0.197371
-0.204156
-0.211773
-0.219984
-0.228636
-0.237568
-0.246584
-0.255486
-0.264109
-0.272373
-0.28016
-0.287224
-0.00100484
-0.00307191
-0.00521596
-0.00741771
-0.00969287
-0.0120496
-0.0144951
-0.0170367
-0.0196819
-0.0224396
-0.0253205
-0.0283377
-0.0315079
-0.034853
-0.0384016
-0.0421922
-0.0462779
-0.0507314
-0.0556527
-0.0611778
-0.0674872
-0.0748106
-0.0834183
-0.0935844
-0.105504
-0.119154
-0.134132
-0.14956
-0.164161
-0.176264
-0.185584
-0.190716
-0.19223
-0.192173
-0.191338
-0.19041
-0.1908
-0.193575
-0.198489
-0.204794
-0.211944
-0.219643
-0.227753
-0.236157
-0.244667
-0.253045
-0.261074
-0.268634
-0.275576
-0.281634
-0.00100043
-0.00310121
-0.00528359
-0.00752812
-0.00984973
-0.012257
-0.0147578
-0.01736
-0.0200722
-0.0229044
-0.0258684
-0.0289791
-0.0322552
-0.0357208
-0.0394074
-0.043357
-0.0476266
-0.0522936
-0.0574639
-0.0632803
-0.0699318
-0.0776587
-0.0867444
-0.0974769
-0.11006
-0.124467
-0.140267
-0.156529
-0.171889
-0.18459
-0.19418
-0.199
-0.199592
-0.198076
-0.195545
-0.193129
-0.192475
-0.19458
-0.199051
-0.205018
-0.211826
-0.219118
-0.226765
-0.234697
-0.242749
-0.250659
-0.258177
-0.265139
-0.271361
-0.276544
-0.000998247
-0.00312549
-0.00533716
-0.00761439
-0.00997191
-0.0124185
-0.0149624
-0.0176121
-0.0203769
-0.0232676
-0.0262969
-0.0294808
-0.0328392
-0.0363974
-0.0401882
-0.0442549
-0.0486555
-0.0534686
-0.0588004
-0.0647941
-0.0716387
-0.0795752
-0.0888896
-0.0998764
-0.11275
-0.127496
-0.143691
-0.160397
-0.17623
-0.189412
-0.199346
-0.204123
-0.20416
-0.201586
-0.197812
-0.194379
-0.193076
-0.194789
-0.199007
-0.204783
-0.211382
-0.218391
-0.225685
-0.233228
-0.24088
-0.248376
-0.255454
-0.261921
-0.267555
-0.272016
-0.000994095
-0.00313785
-0.00536849
-0.00766796
-0.0100505
-0.0125247
-0.0150993
-0.017783
-0.0205856
-0.0235181
-0.0265939
-0.0298293
-0.0332445
-0.0368651
-0.0407236
-0.0448623
-0.0493376
-0.0542248
-0.0596254
-0.0656755
-0.0725552
-0.0804951
-0.0897724
-0.100678
-0.113437
-0.12806
-0.144168
-0.160872
-0.17683
-0.190313
-0.200615
-0.205602
-0.205495
-0.202374
-0.197944
-0.194064
-0.192566
-0.194188
-0.198342
-0.204063
-0.210578
-0.217438
-0.22451
-0.231775
-0.239107
-0.246252
-0.252959
-0.259028
-0.264207
-0.26811
-0.00098489
-0.00313369
-0.00537267
-0.00768377
-0.0100801
-0.0125701
-0.0151625
-0.0178662
-0.020691
-0.0236482
-0.0267511
-0.0300157
-0.0334619
-0.0371141
-0.0410032
-0.0451686
-0.049662
-0.054552
-0.0599301
-0.0659189
-0.0726801
-0.0804233
-0.0894049
-0.099903
-0.112147
-0.126187
-0.141719
-0.15795
-0.173647
-0.187198
-0.197831
-0.203236
-0.20341
-0.200326
-0.195907
-0.192202
-0.190977
-0.192806
-0.197073
-0.202856
-0.209396
-0.216233
-0.223226
-0.230347
-0.237463
-0.244337
-0.250753
-0.256525
-0.261383
-0.264896
-0.000968616
-0.00311148
-0.00534843
-0.00766047
-0.0100593
-0.012553
-0.0151501
-0.0178596
-0.0206912
-0.0236558
-0.0267662
-0.030038
-0.0334896
-0.0371436
-0.0410277
-0.0451767
-0.0496354
-0.0544623
-0.0597349
-0.0655561
-0.0720623
-0.0794322
-0.0878906
-0.0976926
-0.109068
-0.12211
-0.136614
-0.151923
-0.166964
-0.180315
-0.191184
-0.197161
-0.198024
-0.195576
-0.191845
-0.188922
-0.18841
-0.190718
-0.195253
-0.20119
-0.207837
-0.214761
-0.221812
-0.228929
-0.235954
-0.242662
-0.248886
-0.254477
-0.259154
-0.262448
-0.000943677
-0.00307162
-0.00529666
-0.00759907
-0.00998913
-0.0124746
-0.0150636
-0.017765
-0.0205881
-0.0235433
-0.0266427
-0.0299007
-0.0333338
-0.036962
-0.0408089
-0.0449032
-0.0492812
-0.0539889
-0.0590865
-0.0646532
-0.0707946
-0.0776521
-0.0854106
-0.0942931
-0.104523
-0.116237
-0.129341
-0.143341
-0.157366
-0.170241
-0.181209
-0.187854
-0.189762
-0.188498
-0.186065
-0.184449
-0.18502
-0.188034
-0.192959
-0.199115
-0.205926
-0.213021
-0.220248
-0.227499
-0.234566
-0.241233
-0.247388
-0.25293
-0.257584
-0.260838
-0.000909013
-0.00301563
-0.00521969
-0.00750234
-0.00987288
-0.0123385
-0.0149072
-0.0175872
-0.0203875
-0.0233178
-0.0263891
-0.0296143
-0.0330078
-0.0365863
-0.0403687
-0.0443769
-0.0486374
-0.0531825
-0.0580535
-0.0633035
-0.0690048
-0.0752579
-0.0822031
-0.0900252
-0.0989336
-0.109102
-0.120546
-0.132952
-0.145671
-0.157823
-0.168734
-0.176086
-0.179305
-0.179658
-0.178996
-0.179075
-0.180994
-0.18488
-0.190287
-0.196703
-0.203712
-0.211034
-0.218526
-0.226027
-0.233265
-0.240027
-0.246256
-0.251906
-0.25671
-0.260115
-0.000865065
-0.0029459
-0.00512064
-0.0073741
-0.00971508
-0.0121502
-0.0146872
-0.0173338
-0.0200985
-0.0229901
-0.0260185
-0.0291948
-0.0325313
-0.0360409
-0.0397378
-0.0436367
-0.047754
-0.0521083
-0.0567214
-0.0616207
-0.0668447
-0.0724531
-0.0785412
-0.0852519
-0.0927739
-0.101307
-0.110966
-0.121615
-0.132839
-0.14407
-0.154772
-0.162815
-0.167495
-0.169734
-0.171125
-0.173116
-0.176531
-0.181389
-0.187335
-0.194038
-0.20126
-0.20884
-0.216659
-0.224497
-0.232018
-0.239007
-0.245461
-0.251389
-0.256535
-0.260298
-0.000814355
-0.00286511
-0.00500261
-0.00721817
-0.00952055
-0.0119158
-0.0144111
-0.017014
-0.0197321
-0.0225736
-0.0255471
-0.0286621
-0.0319283
-0.0353556
-0.0389531
-0.0427288
-0.0466896
-0.050841
-0.0551867
-0.0597303
-0.0644791
-0.069455
-0.0747105
-0.0803471
-0.0865264
-0.0934601
-0.101345
-0.110207
-0.119854
-0.130036
-0.140393
-0.149057
-0.155218
-0.159425
-0.162944
-0.166888
-0.171822
-0.177684
-0.184199
-0.191205
-0.198647
-0.206499
-0.214676
-0.222907
-0.230796
-0.238129
-0.244957
-0.251338
-0.257023
-0.261363
-0.000760019
-0.00277394
-0.00486657
-0.00703677
-0.00929306
-0.0116407
-0.0140865
-0.0166374
-0.0193007
-0.0220835
-0.0249935
-0.0280386
-0.0312265
-0.0345639
-0.0380557
-0.0417041
-0.0455076
-0.0494605
-0.0535512
-0.0577626
-0.0620759
-0.0664802
-0.0709901
-0.0756677
-0.0806434
-0.0861257
-0.092368
-0.099531
-0.107628
-0.116699
-0.126596
-0.135759
-0.143289
-0.149363
-0.154895
-0.16067
-0.167038
-0.173872
-0.180962
-0.188282
-0.195949
-0.204075
-0.212618
-0.221269
-0.229585
-0.237359
-0.244692
-0.251691
-0.258112
-0.263257
-0.00070534
-0.00267243
-0.00471336
-0.00683241
-0.00903702
-0.0113314
-0.013722
-0.0162153
-0.018818
-0.0215366
-0.024378
-0.0273488
-0.0304551
-0.0337012
-0.0370887
-0.0406153
-0.0442731
-0.0480477
-0.051916
-0.0558454
-0.0597963
-0.0637318
-0.0676347
-0.0715305
-0.0755154
-0.0797797
-0.0846047
-0.0902537
-0.0969116
-0.104867
-0.114201
-0.123691
-0.132367
-0.140059
-0.147335
-0.154694
-0.162321
-0.170043
-0.177687
-0.185329
-0.193231
-0.201631
-0.210535
-0.219612
-0.228388
-0.236672
-0.244619
-0.252382
-0.25972
-0.265893
-0.000650305
-0.00256147
-0.00454605
-0.00661029
-0.0087595
-0.010997
-0.0133286
-0.0157606
-0.0182993
-0.020951
-0.0237219
-0.0266178
-0.0296438
-0.0328029
-0.0360947
-0.0395138
-0.0430487
-0.0466797
-0.0503763
-0.0540958
-0.0577847
-0.0613866
-0.0648582
-0.0681919
-0.0714461
-0.0747799
-0.0784737
-0.0828559
-0.088242
-0.0951175
-0.103795
-0.113398
-0.122911
-0.13187
-0.140523
-0.149135
-0.157783
-0.166263
-0.174422
-0.182393
-0.190541
-0.199214
-0.208469
-0.217964
-0.227215
-0.236057
-0.244701
-0.253347
-0.261758
-0.269169
-0.00059582
-0.00244216
-0.00436722
-0.00637457
-0.00846644
-0.0106452
-0.0129163
-0.0152859
-0.0177599
-0.0203446
-0.0230459
-0.0258698
-0.028821
-0.0319023
-0.0351127
-0.0384465
-0.0418908
-0.0454242
-0.0490136
-0.0526118
-0.0561573
-0.0595807
-0.0628174
-0.0658289
-0.068633
-0.0713454
-0.07422
-0.0776122
-0.0819243
-0.0877806
-0.0957099
-0.105181
-0.115174
-0.124992
-0.13461
-0.144109
-0.153503
-0.162583
-0.171199
-0.179497
-0.187907
-0.196856
-0.206449
-0.216349
-0.226078
-0.235508
-0.244907
-0.254525
-0.264134
-0.272967
-0.00054344
-0.00232579
-0.00419188
-0.00614134
-0.00817404
-0.0102923
-0.0125015
-0.0148076
-0.0172169
-0.0197357
-0.0223704
-0.0251274
-0.0280121
-0.0310283
-0.0341763
-0.0374519
-0.0408442
-0.0443335
-0.0478883
-0.0514617
-0.0549897
-0.0583947
-0.0615948
-0.0645218
-0.0671509
-0.0695447
-0.0719085
-0.0745894
-0.0780345
-0.0829472
-0.0900421
-0.0991227
-0.10922
-0.119482
-0.129653
-0.139676
-0.149534
-0.159039
-0.168035
-0.176651
-0.185334
-0.194563
-0.204482
-0.214774
-0.224981
-0.235015
-0.245206
-0.255855
-0.266756
-0.277159
-0.000473562
-0.00220973
-0.00402114
-0.00591358
-0.00788804
-0.00994661
-0.0120945
-0.014338
-0.0166841
-0.0191398
-0.0217123
-0.0244091
-0.0272375
-0.0302033
-0.0333101
-0.0365571
-0.039938
-0.0434381
-0.0470311
-0.050674
-0.0543044
-0.0578398
-0.0611843
-0.0642418
-0.0669435
-0.0692927
-0.0714294
-0.0736609
-0.0764405
-0.0804982
-0.0866892
-0.0951294
-0.104968
-0.115279
-0.125626
-0.135842
-0.145901
-0.155651
-0.164935
-0.173845
-0.182808
-0.192318
-0.202554
-0.213226
-0.223907
-0.234554
-0.245555
-0.257269
-0.269519
-0.281601
-0.000388021
-0.00209302
-0.00384993
-0.00568569
-0.00760412
-0.00960557
-0.0116951
-0.0138797
-0.0161669
-0.0185646
-0.0210814
-0.0237266
-0.02651
-0.029441
-0.0325273
-0.0357739
-0.0391811
-0.0427417
-0.0464366
-0.0502296
-0.054062
-0.0578497
-0.0614852
-0.0648475
-0.0678249
-0.0703594
-0.0725147
-0.0745331
-0.0768389
-0.080143
-0.0853906
-0.0929753
-0.102231
-0.112242
-0.122442
-0.132571
-0.1426
-0.152425
-0.161898
-0.171065
-0.1803
-0.190087
-0.200628
-0.211666
-0.222817
-0.234077
-0.245893
-0.258678
-0.272303
-0.28613
-0.000331908
-0.00199357
-0.00369409
-0.00547518
-0.00733872
-0.00928372
-0.0113162
-0.013444
-0.0156754
-0.0180194
-0.0204862
-0.0230875
-0.0258361
-0.0287455
-0.0318287
-0.0350977
-0.0385603
-0.0422181
-0.0460607
-0.0500597
-0.0541616
-0.0582829
-0.0623085
-0.0660967
-0.0694977
-0.0723941
-0.0747688
-0.0767805
-0.0787945
-0.0814652
-0.0857727
-0.0923442
-0.100752
-0.110175
-0.119969
-0.129792
-0.139607
-0.149357
-0.158916
-0.168287
-0.177773
-0.187823
-0.198647
-0.210036
-0.221647
-0.233515
-0.246132
-0.259975
-0.274968
-0.29056
-0.000323843
-0.00191453
-0.00355895
-0.00528843
-0.00709879
-0.00898945
-0.0109673
-0.0130408
-0.015219
-0.0175124
-0.0199332
-0.0224956
-0.0252159
-0.0281121
-0.0312031
-0.0345072
-0.0380407
-0.0418136
-0.0458242
-0.0500523
-0.0544508
-0.0589392
-0.0633992
-0.0676755
-0.0715878
-0.0749655
-0.0777121
-0.0798911
-0.081786
-0.0839651
-0.0873892
-0.0928653
-0.10024
-0.108858
-0.118051
-0.127413
-0.136878
-0.14643
-0.155977
-0.165487
-0.175187
-0.18547
-0.196549
-0.208262
-0.220315
-0.232773
-0.246164
-0.261023
-0.277345
-0.294678
-0.000343952
-0.00185474
-0.00344554
-0.00512361
-0.00688141
-0.0087199
-0.010646
-0.0126681
-0.0147963
-0.0170422
-0.01942
-0.0219464
-0.0246412
-0.0275267
-0.0306272
-0.0339674
-0.0375705
-0.0414541
-0.0456245
-0.0500693
-0.0547488
-0.0595886
-0.064473
-0.0692412
-0.0736925
-0.0776132
-0.0808338
-0.0833193
-0.0852552
-0.0871038
-0.0897575
-0.0941414
-0.100389
-0.108059
-0.116524
-0.125325
-0.134354
-0.143621
-0.153067
-0.162643
-0.172503
-0.182973
-0.194265
-0.206262
-0.218724
-0.231739
-0.245857
-0.261669
-0.279247
-0.29825
-0.000371785
-0.00181505
-0.00335827
-0.00498718
-0.00669432
-0.008482
-0.0103571
-0.0123288
-0.0144077
-0.0166068
-0.0189416
-0.021431
-0.0240979
-0.0269682
-0.0300705
-0.0334347
-0.0370891
-0.0410572
-0.045352
-0.0499684
-0.0548755
-0.060008
-0.0652588
-0.0704701
-0.0754325
-0.0799019
-0.083647
-0.0865385
-0.0886565
-0.0903467
-0.0923923
-0.0957727
-0.100891
-0.107554
-0.115224
-0.123418
-0.131971
-0.140896
-0.150168
-0.159731
-0.169682
-0.180281
-0.191727
-0.203954
-0.216774
-0.230292
-0.24507
-0.261742
-0.280469
-0.301027
-0.000398617
-0.00179089
-0.00329328
-0.00487798
-0.00653858
-0.00827803
-0.0101036
-0.0120251
-0.0140542
-0.0162045
-0.018493
-0.0209404
-0.0235713
-0.0264145
-0.0295017
-0.0328657
-0.0365385
-0.0405474
-0.0449102
-0.0496288
-0.0546816
-0.0600158
-0.0655375
-0.0711005
-0.0764976
-0.0814686
-0.0857363
-0.0890882
-0.0915012
-0.0932029
-0.094838
-0.0973782
-0.101456
-0.107131
-0.114
-0.121584
-0.12966
-0.13822
-0.14726
-0.156733
-0.166694
-0.177346
-0.188873
-0.201258
-0.214364
-0.22831
-0.243656
-0.261071
-0.280808
-0.30276
-0.000423288
-0.0017786
-0.00324422
-0.00478788
-0.00640487
-0.00809853
-0.00987641
-0.0117487
-0.0137274
-0.0158269
-0.0180647
-0.0204624
-0.023046
-0.0258454
-0.0288938
-0.0322258
-0.0358746
-0.0398696
-0.0442319
-0.0489694
-0.0540705
-0.0594959
-0.065169
-0.070961
-0.0766774
-0.0820566
-0.0867938
-0.0906111
-0.0933935
-0.0952592
-0.0966976
-0.0986157
-0.10182
-0.106599
-0.112717
-0.119728
-0.127355
-0.13555
-0.144319
-0.153626
-0.163508
-0.174126
-0.185648
-0.198102
-0.211404
-0.22568
-0.241476
-0.259492
-0.280065
-0.303207
-0.000453794
-0.00177856
-0.00320897
-0.00471306
-0.00628773
-0.00793657
-0.00966739
-0.0114904
-0.0134178
-0.0154638
-0.0176459
-0.0199857
-0.0225091
-0.0252461
-0.0282299
-0.0314948
-0.0350742
-0.0389977
-0.0432885
-0.0479593
-0.0530076
-0.0584079
-0.0641018
-0.0699822
-0.075875
-0.0815317
-0.0866392
-0.0908765
-0.0940564
-0.096206
-0.0976558
-0.0992001
-0.101755
-0.105795
-0.11126
-0.117764
-0.124994
-0.132845
-0.141315
-0.150386
-0.160097
-0.170583
-0.182004
-0.194426
-0.207815
-0.2223
-0.238409
-0.256853
-0.278056
-0.302144
-0.000501491
-0.00178939
-0.00318481
-0.0046508
-0.00618443
-0.00778942
-0.00947364
-0.0112471
-0.0131214
-0.0151106
-0.0172315
-0.019505
-0.0219556
-0.0246121
-0.0275061
-0.0306707
-0.0341379
-0.0379366
-0.0420906
-0.046616
-0.0515175
-0.0567818
-0.0623679
-0.0681912
-0.0741039
-0.0798819
-0.0852242
-0.0897906
-0.0933467
-0.095855
-0.0974973
-0.098919
-0.10108
-0.104585
-0.109537
-0.115627
-0.122521
-0.130059
-0.138213
-0.146984
-0.156431
-0.166685
-0.177904
-0.190183
-0.203534
-0.218092
-0.234353
-0.253034
-0.274632
-0.299386
-0.000567306
-0.00180719
-0.00316776
-0.00459677
-0.00609054
-0.00765307
-0.00929177
-0.0110158
-0.0128362
-0.0147661
-0.0168213
-0.0190211
-0.0213882
-0.0239487
-0.026732
-0.0297685
-0.0330881
-0.0367181
-0.0406815
-0.0449962
-0.0496715
-0.0547032
-0.0600652
-0.0656943
-0.0714711
-0.0772047
-0.0826228
-0.0873913
-0.0912564
-0.0941464
-0.0961157
-0.0976436
-0.0996712
-0.10287
-0.107475
-0.113259
-0.119886
-0.127142
-0.134967
-0.143381
-0.152478
-0.162404
-0.173316
-0.185337
-0.198519
-0.212997
-0.229234
-0.24794
-0.269675
-0.294804
-0.000640884
-0.00183145
-0.0031595
-0.00455272
-0.00600755
-0.00752851
-0.00912229
-0.0107971
-0.012563
-0.0144319
-0.0164183
-0.0185394
-0.0208153
-0.0232692
-0.025927
-0.0288157
-0.0319625
-0.0353919