/*--------------------------------*- C++ -*----------------------------------*\
  =========                 |
  \\      /  F ield         | OpenFOAM: The Open Source CFD Toolbox
   \\    /   O peration     | Website:  https://openfoam.org
    \\  /    A nd           | Version:  9
     \\/     M anipulation  |
\*---------------------------------------------------------------------------*/
FoamFile
{
    format      ascii;
    class       surfaceScalarField;
    location    "0.08";
    object      phi;
}
// * * * * * * * * * * * * * * * * * * * * * * * * * * * * * * * * * * * * * //

dimensions      [0 3 -1 0 0 0 0];

internalField   nonuniform List<scalar> 
9850
(
-2.24642e-06
2.46693e-06
-2.23776e-06
2.53878e-06
-2.22757e-06
2.63415e-06
-2.2159e-06
2.74529e-06
-2.20245e-06
2.8645e-06
-2.18686e-06
2.98896e-06
-2.16874e-06
3.11795e-06
-2.14763e-06
3.25128e-06
-2.12307e-06
3.3889e-06
-2.09452e-06
3.53086e-06
-2.06147e-06
3.67736e-06
-2.0235e-06
3.8288e-06
-1.98033e-06
3.98597e-06
-1.93196e-06
4.15021e-06
-1.87876e-06
4.32358e-06
-1.82163e-06
4.50908e-06
-1.76202e-06
4.71077e-06
-1.70196e-06
4.9338e-06
-1.64389e-06
5.18429e-06
-1.59053e-06
5.46904e-06
-1.54461e-06
5.79517e-06
-1.50868e-06
6.16978e-06
-1.48502e-06
6.59959e-06
-1.47564e-06
7.09073e-06
-1.48238e-06
7.64853e-06
-1.50697e-06
8.2773e-06
-1.55115e-06
8.98031e-06
-1.6163e-06
9.76066e-06
-1.70224e-06
1.06243e-05
-1.80306e-06
1.15821e-05
-1.91696e-06
1.47891e-05
-1.99259e-06
1.53969e-05
-2.02316e-06
1.57628e-05
-2.02789e-06
1.57794e-05
-2.0267e-06
1.5558e-05
-2.0296e-06
1.52808e-05
-2.0445e-06
1.49999e-05
-2.07585e-06
1.47176e-05
-2.11565e-06
1.45287e-05
-2.14734e-06
1.45146e-05
-2.16375e-06
1.45943e-05
-2.1791e-06
1.46475e-05
-2.21584e-06
1.47079e-05
-2.27612e-06
1.48806e-05
-2.33555e-06
1.51214e-05
-2.37173e-06
1.52521e-05
-2.39035e-06
1.52016e-05
-2.41619e-06
1.51161e-05
-2.46209e-06
1.51877e-05
1.5415e-05
-2.26051e-06
2.4589e-06
-2.25062e-06
2.5289e-06
-2.23949e-06
2.62302e-06
-2.22703e-06
2.73283e-06
-2.21293e-06
2.8504e-06
-2.1968e-06
2.97284e-06
-2.17825e-06
3.0994e-06
-2.15682e-06
3.22985e-06
-2.13208e-06
3.36416e-06
-2.10358e-06
3.50237e-06
-2.07098e-06
3.64475e-06
-2.03404e-06
3.79186e-06
-1.99277e-06
3.94471e-06
-1.94755e-06
4.10498e-06
-1.89916e-06
4.27519e-06
-1.84892e-06
4.45884e-06
-1.79863e-06
4.66048e-06
-1.75049e-06
4.88565e-06
-1.70686e-06
5.14066e-06
-1.67008e-06
5.43225e-06
-1.64217e-06
5.76726e-06
-1.62473e-06
6.15234e-06
-1.61893e-06
6.59378e-06
-1.6256e-06
7.09741e-06
-1.6455e-06
7.66843e-06
-1.67944e-06
8.31124e-06
-1.72841e-06
9.02928e-06
-1.79331e-06
9.82556e-06
-1.87352e-06
1.07045e-05
-1.96265e-06
1.16712e-05
-2.05524e-06
1.48817e-05
-2.10344e-06
1.54451e-05
-2.10255e-06
1.57619e-05
-2.07672e-06
1.57536e-05
-2.05211e-06
1.55334e-05
-2.04101e-06
1.52697e-05
-2.04878e-06
1.50076e-05
-2.07638e-06
1.47452e-05
-2.11423e-06
1.45666e-05
-2.14554e-06
1.45459e-05
-2.1633e-06
1.46121e-05
-2.18154e-06
1.46658e-05
-2.22078e-06
1.47471e-05
-2.28017e-06
1.494e-05
-2.33476e-06
1.5176e-05
-2.36508e-06
1.52824e-05
-2.37972e-06
1.52162e-05
-2.40293e-06
1.51394e-05
-2.44487e-06
1.52296e-05
1.54617e-05
-2.27738e-06
2.44593e-06
-2.2667e-06
2.51822e-06
-2.25585e-06
2.61217e-06
-2.24389e-06
2.72088e-06
-2.23039e-06
2.8369e-06
-2.21499e-06
2.95744e-06
-2.19732e-06
3.08173e-06
-2.17703e-06
3.20957e-06
-2.15378e-06
3.34091e-06
-2.1273e-06
3.47589e-06
-2.09743e-06
3.61488e-06
-2.06422e-06
3.75865e-06
-2.02804e-06
3.90852e-06
-1.9896e-06
4.06655e-06
-1.95008e-06
4.23568e-06
-1.91109e-06
4.41985e-06
-1.87458e-06
4.62397e-06
-1.84266e-06
4.85373e-06
-1.81735e-06
5.11535e-06
-1.80033e-06
5.41523e-06
-1.79275e-06
5.75968e-06
-1.79515e-06
6.15475e-06
-1.80761e-06
6.60624e-06
-1.82987e-06
7.11967e-06
-1.86166e-06
7.70022e-06
-1.90289e-06
8.35247e-06
-1.95379e-06
9.08018e-06
-2.01438e-06
9.88615e-06
-2.08303e-06
1.07732e-05
-2.15232e-06
1.17405e-05
-2.21185e-06
1.49413e-05
-2.22181e-06
1.54551e-05
-2.18262e-06
1.57228e-05
-2.12382e-06
1.56948e-05
-2.07591e-06
1.54855e-05
-2.05166e-06
1.52454e-05
-2.05294e-06
1.50089e-05
-2.07698e-06
1.47693e-05
-2.11272e-06
1.46023e-05
-2.14346e-06
1.45767e-05
-2.16263e-06
1.46313e-05
-2.18383e-06
1.4687e-05
-2.22522e-06
1.47885e-05
-2.28307e-06
1.49979e-05
-2.33251e-06
1.52254e-05
-2.35726e-06
1.53072e-05
-2.36839e-06
1.52273e-05
-2.38919e-06
1.51601e-05
-2.42704e-06
1.52674e-05
1.55018e-05
-2.2931e-06
2.4306e-06
-2.28351e-06
2.50862e-06
-2.27475e-06
2.60341e-06
-2.265e-06
2.71113e-06
-2.25369e-06
2.82558e-06
-2.24053e-06
2.94428e-06
-2.2253e-06
3.0665e-06
-2.2078e-06
3.19206e-06
-2.18787e-06
3.32098e-06
-2.16548e-06
3.45349e-06
-2.14073e-06
3.59014e-06
-2.114e-06
3.73192e-06
-2.08595e-06
3.88048e-06
-2.05765e-06
4.03824e-06
-2.0305e-06
4.20853e-06
-2.00624e-06
4.39559e-06
-1.98672e-06
4.60445e-06
-1.97373e-06
4.84074e-06
-1.96872e-06
5.11035e-06
-1.97262e-06
5.41913e-06
-1.98568e-06
5.77273e-06
-2.00748e-06
6.17655e-06
-2.03712e-06
6.63587e-06
-2.07339e-06
7.15594e-06
-2.11505e-06
7.74189e-06
-2.16106e-06
8.39848e-06
-2.21069e-06
9.12981e-06
-2.2626e-06
9.93806e-06
-2.31369e-06
1.08243e-05
-2.35542e-06
1.17822e-05
-2.37211e-06
1.49579e-05
-2.33616e-06
1.54191e-05
-2.25527e-06
1.56419e-05
-2.16407e-06
1.56036e-05
-2.09518e-06
1.54166e-05
-2.05995e-06
1.52102e-05
-2.0561e-06
1.50051e-05
-2.07717e-06
1.47903e-05
-2.11089e-06
1.4636e-05
-2.14105e-06
1.46068e-05
-2.16173e-06
1.46519e-05
-2.18586e-06
1.47111e-05
-2.22893e-06
1.48316e-05
-2.28463e-06
1.50536e-05
-2.32877e-06
1.52695e-05
-2.34838e-06
1.53268e-05
-2.35652e-06
1.52355e-05
-2.37509e-06
1.51787e-05
-2.4089e-06
1.53013e-05
1.55357e-05
-2.31597e-06
2.41885e-06
-2.30814e-06
2.50079e-06
-2.30116e-06
2.59643e-06
-2.29347e-06
2.70344e-06
-2.28455e-06
2.81666e-06
-2.27419e-06
2.93392e-06
-2.26228e-06
3.05458e-06
-2.24874e-06
3.17853e-06
-2.23362e-06
3.30587e-06
-2.21709e-06
3.43696e-06
-2.19952e-06
3.57256e-06
-2.18154e-06
3.71394e-06
-2.16408e-06
3.86302e-06
-2.14838e-06
4.02254e-06
-2.13591e-06
4.19607e-06
-2.12831e-06
4.38798e-06
-2.12713e-06
4.60327e-06
-2.13367e-06
4.84728e-06
-2.14875e-06
5.12543e-06
-2.17255e-06
5.44293e-06
-2.20456e-06
5.80473e-06
-2.24359e-06
6.21558e-06
-2.28795e-06
6.68023e-06
-2.3356e-06
7.20359e-06
-2.38439e-06
7.79069e-06
-2.43224e-06
8.44632e-06
-2.47685e-06
9.17442e-06
-2.51569e-06
9.9769e-06
-2.54374e-06
1.08523e-05
-2.55191e-06
1.17904e-05
-2.51968e-06
1.49257e-05
-2.43473e-06
1.53342e-05
-2.31302e-06
1.55202e-05
-2.19318e-06
1.54838e-05
-2.1076e-06
1.5331e-05
-2.0646e-06
1.51672e-05
-2.05748e-06
1.4998e-05
-2.07647e-06
1.48093e-05
-2.10852e-06
1.46681e-05
-2.13825e-06
1.46366e-05
-2.16051e-06
1.46742e-05
-2.18741e-06
1.4738e-05
-2.23163e-06
1.48758e-05
-2.28466e-06
1.51066e-05
-2.32354e-06
1.53084e-05
-2.33857e-06
1.53418e-05
-2.34426e-06
1.52412e-05
-2.36082e-06
1.51953e-05
-2.39072e-06
1.53311e-05
1.55637e-05
-2.34592e-06
2.41173e-06
-2.34001e-06
2.49489e-06
-2.33452e-06
2.59094e-06
-2.32867e-06
2.6976e-06
-2.32217e-06
2.81017e-06
-2.31492e-06
2.92667e-06
-2.3069e-06
3.04656e-06
-2.29818e-06
3.16981e-06
-2.28896e-06
3.29664e-06
-2.27958e-06
3.42759e-06
-2.27063e-06
3.56361e-06
-2.26289e-06
3.7062e-06
-2.25742e-06
3.85755e-06
-2.25547e-06
4.02058e-06
-2.25839e-06
4.19899e-06
-2.26752e-06
4.39711e-06
-2.28399e-06
4.61974e-06
-2.30854e-06
4.87184e-06
-2.3414e-06
5.15829e-06
-2.38213e-06
5.48367e-06
-2.42967e-06
5.85227e-06
-2.48228e-06
6.26819e-06
-2.53766e-06
6.73561e-06
-2.59308e-06
7.25901e-06
-2.64547e-06
7.84308e-06
-2.69153e-06
8.49238e-06
-2.7276e-06
9.21049e-06
-2.74929e-06
9.9986e-06
-2.75033e-06
1.08533e-05
-2.72184e-06
1.17619e-05
-2.6395e-06
1.48434e-05
-2.5077e-06
1.52024e-05
-2.35032e-06
1.53628e-05
-2.20826e-06
1.53417e-05
-2.11167e-06
1.52345e-05
-2.06472e-06
1.51202e-05
-2.05649e-06
1.49897e-05
-2.0745e-06
1.48273e-05
-2.10537e-06
1.4699e-05
-2.13492e-06
1.46661e-05
-2.15886e-06
1.46981e-05
-2.18829e-06
1.47675e-05
-2.23308e-06
1.49206e-05
-2.28303e-06
1.51565e-05
-2.31684e-06
1.53422e-05
-2.32793e-06
1.53529e-05
-2.33174e-06
1.5245e-05
-2.3465e-06
1.521e-05
-2.37266e-06
1.53573e-05
1.55863e-05
-2.37587e-06
2.40648e-06
-2.37196e-06
2.49097e-06
-2.36868e-06
2.58767e-06
-2.36551e-06
2.69442e-06
-2.36226e-06
2.80691e-06
-2.35892e-06
2.92333e-06
-2.35561e-06
3.04325e-06
-2.35254e-06
3.16674e-06
-2.35005e-06
3.29415e-06
-2.34865e-06
3.42619e-06
-2.34902e-06
3.56399e-06
-2.35205e-06
3.70923e-06
-2.35875e-06
3.86425e-06
-2.37024e-06
4.03207e-06
-2.3876e-06
4.21636e-06
-2.41178e-06
4.42129e-06
-2.4434e-06
4.65137e-06
-2.48271e-06
4.91115e-06
-2.52943e-06
5.205e-06
-2.5827e-06
5.53694e-06
-2.64108e-06
5.91065e-06
-2.70249e-06
6.3296e-06
-2.76422e-06
6.79735e-06
-2.82296e-06
7.31774e-06
-2.8748e-06
7.89492e-06
-2.91529e-06
8.53287e-06
-2.93937e-06
9.23457e-06
-2.94117e-06
1.00004e-05
-2.91364e-06
1.08258e-05
-2.84907e-06
1.16973e-05
-2.72064e-06
1.47149e-05
-2.54894e-06
1.50307e-05
-2.3644e-06
1.51782e-05
-2.20826e-06
1.51856e-05
-2.10688e-06
1.51331e-05
-2.05992e-06
1.50733e-05
-2.05273e-06
1.49825e-05
-2.0709e-06
1.48455e-05
-2.10123e-06
1.47293e-05
-2.13093e-06
1.46958e-05
-2.15663e-06
1.47238e-05
-2.18828e-06
1.47991e-05
-2.23307e-06
1.49654e-05
-2.27964e-06
1.52031e-05
-2.30873e-06
1.53713e-05
-2.31659e-06
1.53608e-05
-2.31903e-06
1.52474e-05
-2.33222e-06
1.52232e-05
-2.35489e-06
1.538e-05
1.5604e-05
-2.40261e-06
2.40291e-06
-2.40114e-06
2.4895e-06
-2.40082e-06
2.58735e-06
-2.40105e-06
2.69465e-06
-2.4017e-06
2.80756e-06
-2.40286e-06
2.9245e-06
-2.40477e-06
3.04516e-06
-2.40777e-06
3.16974e-06
-2.41231e-06
3.2987e-06
-2.419e-06
3.43287e-06
-2.42855e-06
3.57354e-06
-2.44182e-06
3.72249e-06
-2.45968e-06
3.88211e-06
-2.483e-06
4.05539e-06
-2.51251e-06
4.24587e-06
-2.54872e-06
4.4575e-06
-2.59179e-06
4.69444e-06
-2.64152e-06
4.96088e-06
-2.69726e-06
5.26073e-06
-2.75787e-06
5.59755e-06
-2.82171e-06
5.97449e-06
-2.88652e-06
6.39442e-06
-2.94937e-06
6.86019e-06
-3.00652e-06
7.37489e-06
-3.05343e-06
7.94182e-06
-3.08472e-06
8.56417e-06
-3.09425e-06
9.2441e-06
-3.0752e-06
9.98135e-06
-3.02046e-06
1.07711e-05
-2.92404e-06
1.16009e-05
-2.75794e-06
1.45488e-05
-2.55678e-06
1.48295e-05
-2.35549e-06
1.49769e-05
-2.19386e-06
1.50239e-05
-2.09366e-06
1.50329e-05
-2.05023e-06
1.50298e-05
-2.04604e-06
1.49783e-05
-2.06548e-06
1.48649e-05
-2.09593e-06
1.47597e-05
-2.12616e-06
1.4726e-05
-2.15366e-06
1.47513e-05
-2.18716e-06
1.48326e-05
-2.23143e-06
1.50096e-05
-2.27447e-06
1.52462e-05
-2.2993e-06
1.53961e-05
-2.30464e-06
1.53661e-05
-2.30623e-06
1.5249e-05
-2.31807e-06
1.52351e-05
-2.3375e-06
1.53994e-05
1.56175e-05
-2.42683e-06
2.40233e-06
-2.42814e-06
2.49082e-06
-2.4308e-06
2.59001e-06
-2.43437e-06
2.69822e-06
-2.43883e-06
2.81201e-06
-2.44437e-06
2.93004e-06
-2.45131e-06
3.05211e-06
-2.46008e-06
3.1785e-06
-2.47119e-06
3.3098e-06
-2.48524e-06
3.44693e-06
-2.50293e-06
3.59123e-06
-2.52495e-06
3.74451e-06
-2.55199e-06
3.90915e-06
-2.58459e-06
4.088e-06
-2.62311e-06
4.28439e-06
-2.66764e-06
4.50202e-06
-2.71792e-06
4.74473e-06
-2.77339e-06
5.01634e-06
-2.8331e-06
5.32045e-06
-2.89576e-06
5.66021e-06
-2.95963e-06
6.03836e-06
-3.02241e-06
6.4572e-06
-3.08111e-06
6.91889e-06
-3.13185e-06
7.42563e-06
-3.16976e-06
7.97973e-06
-3.18895e-06
8.58336e-06
-3.1827e-06
9.23786e-06
-3.1439e-06
9.94255e-06
-3.06594e-06
1.06931e-05
-2.94474e-06
1.14797e-05
-2.75224e-06
1.43563e-05
-2.53374e-06
1.4611e-05
-2.32634e-06
1.47695e-05
-2.16713e-06
1.48647e-05
-2.07313e-06
1.49389e-05
-2.03606e-06
1.49928e-05
-2.03643e-06
1.49787e-05
-2.05813e-06
1.48866e-05
-2.08937e-06
1.4791e-05
-2.1205e-06
1.47572e-05
-2.1498e-06
1.47807e-05
-2.18477e-06
1.48676e-05
-2.22805e-06
1.50529e-05
-2.26756e-06
1.52857e-05
-2.28867e-06
1.54173e-05
-2.2922e-06
1.53696e-05
-2.29338e-06
1.52502e-05
-2.30409e-06
1.52458e-05
-2.3206e-06
1.54159e-05
1.56271e-05
-2.44815e-06
2.40467e-06
-2.45198e-06
2.49465e-06
-2.45718e-06
2.59521e-06
-2.4636e-06
2.70464e-06
-2.47135e-06
2.81976e-06
-2.48069e-06
2.93938e-06
-2.49199e-06
3.06341e-06
-2.50569e-06
3.1922e-06
-2.52229e-06
3.32641e-06
-2.54237e-06
3.467e-06
-2.56647e-06
3.61534e-06
-2.59515e-06
3.77319e-06
-2.62881e-06
3.94281e-06
-2.6677e-06
4.12688e-06
-2.7118e-06
4.3285e-06
-2.76083e-06
4.55105e-06
-2.8142e-06
4.79809e-06
-2.87101e-06
5.07315e-06
-2.9301e-06
5.37954e-06
-2.99005e-06
5.72016e-06
-3.04908e-06
6.0974e-06
-3.105e-06
6.51311e-06
-3.15491e-06
6.96881e-06
-3.19509e-06
7.46581e-06
-3.22074e-06
8.00538e-06
-3.22601e-06
8.58863e-06
-3.20422e-06
9.21607e-06
-3.14853e-06
9.88686e-06
-3.0532e-06
1.05978e-05
-2.91585e-06
1.13424e-05
-2.70927e-06
1.41498e-05
-2.48537e-06
1.43871e-05
-2.28141e-06
1.45656e-05
-2.13097e-06
1.47143e-05
-2.04684e-06
1.48547e-05
-2.01807e-06
1.4964e-05
-2.02412e-06
1.49848e-05
-2.04885e-06
1.49114e-05
-2.08149e-06
1.48236e-05
-2.11386e-06
1.47895e-05
-2.14494e-06
1.48117e-05
-2.18099e-06
1.49036e-05
-2.22293e-06
1.50949e-05
-2.259e-06
1.53217e-05
-2.277e-06
1.54353e-05
-2.27937e-06
1.5372e-05
-2.28054e-06
1.52514e-05
-2.29034e-06
1.52556e-05
-2.30427e-06
1.54299e-05
1.56335e-05
-2.46453e-06
2.40908e-06
-2.47031e-06
2.50043e-06
-2.47754e-06
2.60243e-06
-2.48625e-06
2.71335e-06
-2.49664e-06
2.83015e-06
-2.50901e-06
2.95174e-06
-2.52372e-06
3.07812e-06
-2.5412e-06
3.20968e-06
-2.5619e-06
3.34711e-06
-2.58629e-06
3.4914e-06
-2.61481e-06
3.64385e-06
-2.64777e-06
3.80615e-06
-2.68537e-06
3.9804e-06
-2.72754e-06
4.16906e-06
-2.77399e-06
4.37495e-06
-2.82411e-06
4.60117e-06
-2.87699e-06
4.85098e-06
-2.9315e-06
5.12766e-06
-2.98627e-06
5.43431e-06
-3.03976e-06
5.77365e-06
-3.0902e-06
6.14784e-06
-3.13552e-06
6.55844e-06
-3.17315e-06
7.00644e-06
-3.19976e-06
7.49242e-06
-3.21108e-06
8.01669e-06
-3.20181e-06
8.57936e-06
-3.16591e-06
9.18017e-06
-3.0973e-06
9.81825e-06
-2.99122e-06
1.04917e-05
-2.84659e-06
1.11977e-05
-2.6376e-06
1.39408e-05
-2.41877e-06
1.41683e-05
-2.22576e-06
1.43726e-05
-2.08852e-06
1.4577e-05
-2.01646e-06
1.47827e-05
-1.99703e-06
1.49446e-05
-2.0094e-06
1.49971e-05
-2.03777e-06
1.49398e-05
-2.07231e-06
1.48581e-05
-2.10622e-06
1.48235e-05
-2.139e-06
1.48445e-05
-2.17577e-06
1.49404e-05
-2.2161e-06
1.51352e-05
-2.24897e-06
1.53546e-05
-2.26445e-06
1.54507e-05
-2.26626e-06
1.53738e-05
-2.26775e-06
1.52529e-05
-2.27687e-06
1.52647e-05
-2.28856e-06
1.54415e-05
1.56372e-05
-2.47402e-06
2.4149e-06
-2.48127e-06
2.50768e-06
-2.49004e-06
2.6112e-06
-2.50046e-06
2.72378e-06
-2.51278e-06
2.84246e-06
-2.52728e-06
2.96625e-06
-2.54432e-06
3.09516e-06
-2.56428e-06
3.22964e-06
-2.58753e-06
3.37037e-06
-2.61445e-06
3.51831e-06
-2.6453e-06
3.6747e-06
-2.68025e-06
3.8411e-06
-2.71926e-06
4.01941e-06
-2.76205e-06
4.21185e-06
-2.80808e-06
4.42098e-06
-2.85649e-06
4.64958e-06
-2.90616e-06
4.90064e-06
-2.9557e-06
5.1772e-06
-3.00357e-06
5.48218e-06
-3.04811e-06
5.81819e-06
-3.08757e-06
6.1873e-06
-3.12004e-06
6.59091e-06
-3.14334e-06
7.02974e-06
-3.15478e-06
7.50385e-06
-3.15092e-06
8.01284e-06
-3.12753e-06
8.55597e-06
-3.07968e-06
9.13232e-06
-3.00241e-06
9.74097e-06
-2.89198e-06
1.03813e-05
-2.74807e-06
1.10538e-05
-2.54658e-06
1.37393e-05
-2.34103e-06
1.39628e-05
-2.16423e-06
1.41958e-05
-2.04268e-06
1.44555e-05
-1.98356e-06
1.47236e-05
-1.97375e-06
1.49348e-05
-1.99268e-06
1.50161e-05
-2.02507e-06
1.49721e-05
-2.06192e-06
1.4895e-05
-2.09758e-06
1.48591e-05
-2.13194e-06
1.48789e-05
-2.16911e-06
1.49776e-05
-2.20771e-06
1.51738e-05
-2.23767e-06
1.53846e-05
-2.25123e-06
1.54643e-05
-2.25299e-06
1.53756e-05
-2.25507e-06
1.5255e-05
-2.26372e-06
1.52733e-05
-2.27353e-06
1.54514e-05
1.56386e-05
-2.47562e-06
2.42162e-06
-2.48393e-06
2.51598e-06
-2.49378e-06
2.62106e-06
-2.50533e-06
2.73533e-06
-2.51882e-06
2.85595e-06
-2.53453e-06
2.98196e-06
-2.55278e-06
3.11341e-06
-2.5739e-06
3.25076e-06
-2.59819e-06
3.39466e-06
-2.6259e-06
3.54602e-06
-2.65718e-06
3.70599e-06
-2.69205e-06
3.87597e-06
-2.73032e-06
4.05767e-06
-2.77153e-06
4.25306e-06
-2.81496e-06
4.46441e-06
-2.85959e-06
4.69421e-06
-2.90412e-06
4.94517e-06
-2.94699e-06
5.22008e-06
-2.98651e-06
5.5217e-06
-3.0209e-06
5.85258e-06
-3.04838e-06
6.21478e-06
-3.06722e-06
6.60975e-06
-3.07564e-06
7.03816e-06
-3.07167e-06
7.49989e-06
-3.05297e-06
7.99413e-06
-3.01662e-06
8.51961e-06
-2.95918e-06
9.07489e-06
-2.8771e-06
9.6589e-06
-2.76768e-06
1.02718e-05
-2.63091e-06
1.0917e-05
-2.44455e-06
1.35529e-05
-2.25815e-06
1.37764e-05
-2.10074e-06
1.40384e-05
-1.99582e-06
1.43506e-05
-1.94951e-06
1.46772e-05
-1.94899e-06
1.49343e-05
-1.97443e-06
1.50415e-05
-2.01103e-06
1.50087e-05
-2.05047e-06
1.49344e-05
-2.08802e-06
1.48967e-05
-2.12383e-06
1.49147e-05
-2.16113e-06
1.50149e-05
-2.19794e-06
1.52106e-05
-2.22536e-06
1.5412e-05
-2.23755e-06
1.54765e-05
-2.23967e-06
1.53777e-05
-2.24256e-06
1.52579e-05
-2.25094e-06
1.52817e-05
-2.25925e-06
1.54597e-05
1.56383e-05
-2.46916e-06
2.42943e-06
-2.47824e-06
2.52506e-06
-2.48873e-06
2.63155e-06
-2.50082e-06
2.74742e-06
-2.51474e-06
2.86987e-06
-2.53077e-06
2.99798e-06
-2.54918e-06
3.13183e-06
-2.57025e-06
3.27182e-06
-2.5942e-06
3.41861e-06
-2.6212e-06
3.57302e-06
-2.65129e-06
3.73608e-06
-2.68438e-06
3.90906e-06
-2.72016e-06
4.09345e-06
-2.75809e-06
4.29099e-06
-2.79732e-06
4.50365e-06
-2.83674e-06
4.73363e-06
-2.87494e-06
4.98336e-06
-2.91025e-06
5.25539e-06
-2.94086e-06
5.55231e-06
-2.9649e-06
5.87662e-06
-2.98057e-06
6.23045e-06
-2.98624e-06
6.61542e-06
-2.9805e-06
7.03242e-06
-2.96209e-06
7.48147e-06
-2.92975e-06
7.96179e-06
-2.88203e-06
8.4719e-06
-2.8172e-06
9.01006e-06
-2.73332e-06
9.57502e-06
-2.6288e-06
1.01673e-05
-2.5037e-06
1.07919e-05
-2.33777e-06
1.3387e-05
-2.1744e-06
1.3613e-05
-2.03802e-06
1.3902e-05
-1.94968e-06
1.42622e-05
-1.9154e-06
1.4643e-05
-1.9235e-06
1.49424e-05
-1.95514e-06
1.50731e-05
-1.99599e-06
1.50496e-05
-2.03819e-06
1.49766e-05
-2.07766e-06
1.49362e-05
-2.11475e-06
1.49518e-05
-2.15198e-06
1.50521e-05
-2.18707e-06
1.52457e-05
-2.21232e-06
1.54372e-05
-2.22363e-06
1.54878e-05
-2.22644e-06
1.53805e-05
-2.2303e-06
1.52617e-05
-2.23861e-06
1.529e-05
-2.24577e-06
1.54668e-05
1.56366e-05
-2.45723e-06
2.43824e-06
-2.46645e-06
2.53428e-06
-2.47672e-06
2.64182e-06
-2.48842e-06
2.75912e-06
-2.50184e-06
2.88329e-06
-2.5172e-06
3.01335e-06
-2.53474e-06
3.14936e-06
-2.55464e-06
3.29173e-06
-2.57707e-06
3.44104e-06
-2.6021e-06
3.59805e-06
-2.6297e-06
3.76368e-06
-2.65969e-06
3.93905e-06
-2.69168e-06
4.12545e-06
-2.72508e-06
4.32439e-06
-2.75901e-06
4.53757e-06
-2.79229e-06
4.76692e-06
-2.82349e-06
5.01456e-06
-2.85089e-06
5.2828e-06
-2.87264e-06
5.57406e-06
-2.8868e-06
5.89077e-06
-2.89155e-06
6.2352e-06
-2.88534e-06
6.60921e-06
-2.86702e-06
7.0141e-06
-2.83591e-06
7.45036e-06
-2.79173e-06
7.9176e-06
-2.73444e-06
8.41461e-06
-2.66405e-06
8.93967e-06
-2.58036e-06
9.49133e-06
-2.48306e-06
1.007e-05
-2.37232e-06
1.06812e-05
-2.23007e-06
1.32447e-05
-2.09209e-06
1.3475e-05
-1.97757e-06
1.37875e-05
-1.90529e-06
1.419e-05
-1.88205e-06
1.46197e-05
-1.89795e-06
1.49583e-05
-1.93536e-06
1.51105e-05
-1.98037e-06
1.50946e-05
-2.02536e-06
1.50216e-05
-2.06672e-06
1.49775e-05
-2.10491e-06
1.499e-05
-2.14191e-06
1.50891e-05
-2.17539e-06
1.52792e-05
-2.19888e-06
1.54607e-05
-2.20971e-06
1.54986e-05
-2.21343e-06
1.53842e-05
-2.21835e-06
1.52666e-05
-2.22679e-06
1.52985e-05
-2.23315e-06
1.54732e-05
1.56341e-05
-2.44053e-06
2.44714e-06
-2.44923e-06
2.54298e-06
-2.45859e-06
2.65118e-06
-2.4692e-06
2.76973e-06
-2.48136e-06
2.89545e-06
-2.49528e-06
3.02727e-06
-2.51111e-06
3.16519e-06
-2.52899e-06
3.3096e-06
-2.54898e-06
3.46103e-06
-2.5711e-06
3.62017e-06
-2.59525e-06
3.78783e-06
-2.62119e-06
3.96499e-06
-2.6485e-06
4.15276e-06
-2.67655e-06
4.35244e-06
-2.70445e-06
4.56547e-06
-2.73105e-06
4.79352e-06
-2.75493e-06
5.03843e-06
-2.7744e-06
5.30227e-06
-2.7876e-06
5.58727e-06
-2.79262e-06
5.89579e-06
-2.78763e-06
6.23021e-06
-2.77114e-06
6.59272e-06
-2.74218e-06
6.98514e-06
-2.70046e-06
7.40865e-06
-2.6465e-06
7.86364e-06
-2.58146e-06
8.34957e-06
-2.50694e-06
8.86514e-06
-2.42452e-06
9.40891e-06
-2.33537e-06
9.98087e-06
-2.24008e-06
1.05859e-05
-2.1231e-06
1.31278e-05
-2.01187e-06
1.33638e-05
-1.91975e-06
1.36953e-05
-1.86315e-06
1.41334e-05
-1.85007e-06
1.46066e-05
-1.87297e-06
1.49812e-05
-1.91568e-06
1.51533e-05
-1.96465e-06
1.51436e-05
-2.01234e-06
1.50693e-05
-2.05547e-06
1.50206e-05
-2.09454e-06
1.5029e-05
-2.13121e-06
1.51258e-05
-2.16325e-06
1.53112e-05
-2.18535e-06
1.54828e-05
-2.19603e-06
1.55093e-05
-2.20079e-06
1.5389e-05
-2.20684e-06
1.52727e-05
-2.21558e-06
1.53072e-05
-2.22148e-06
1.54791e-05
1.5631e-05
-2.41714e-06
2.45464e-06
-2.42516e-06
2.551e-06
-2.43371e-06
2.65973e-06
-2.44323e-06
2.77925e-06
-2.454e-06
2.90623e-06
-2.4662e-06
3.03947e-06
-2.47995e-06
3.17894e-06
-2.49532e-06
3.32497e-06
-2.51236e-06
3.47807e-06
-2.53101e-06
3.63882e-06
-2.55113e-06
3.80796e-06
-2.57246e-06
3.98632e-06
-2.59455e-06
4.17485e-06
-2.61677e-06
4.37466e-06
-2.63827e-06
4.58696e-06
-2.65792e-06
4.81318e-06
-2.67438e-06
5.05489e-06
-2.68603e-06
5.31392e-06
-2.69109e-06
5.59232e-06
-2.6877e-06
5.8924e-06
-2.67408e-06
6.21659e-06
-2.6488e-06
6.56745e-06
-2.61101e-06
6.94735e-06
-2.56072e-06
7.35835e-06
-2.49894e-06
7.80187e-06
-2.42779e-06
8.27843e-06
-2.35023e-06
8.78758e-06
-2.26952e-06
9.32821e-06
-2.18848e-06
9.89983e-06
-2.10849e-06
1.05059e-05
-2.01701e-06
1.30363e-05
-1.93321e-06
1.328e-05
-1.86416e-06
1.36263e-05
-1.8233e-06
1.40925e-05
-1.81991e-06
1.46032e-05
-1.84921e-06
1.50104e-05
-1.89673e-06
1.52008e-05
-1.94936e-06
1.51962e-05
-1.99956e-06
1.51195e-05
-2.04422e-06
1.50653e-05
-2.08395e-06
1.50688e-05
-2.12021e-06
1.5162e-05
-2.15101e-06
1.5342e-05
-2.17207e-06
1.55039e-05
-2.18283e-06
1.55201e-05
-2.18867e-06
1.53948e-05
-2.19586e-06
1.52799e-05
-2.20507e-06
1.53164e-05
-2.21084e-06
1.54849e-05
1.56276e-05
-2.3878e-06
2.46439e-06
-2.39581e-06
2.55901e-06
-2.40375e-06
2.66767e-06
-2.41227e-06
2.78777e-06
-2.42163e-06
2.91559e-06
-2.432e-06
3.04983e-06
-2.44346e-06
3.19041e-06
-2.4561e-06
3.33761e-06
-2.4699e-06
3.49187e-06
-2.4848e-06
3.65372e-06
-2.50062e-06
3.82379e-06
-2.51708e-06
4.00278e-06
-2.53374e-06
4.19151e-06
-2.54997e-06
4.39089e-06
-2.56494e-06
4.60194e-06
-2.57763e-06
4.82586e-06
-2.58673e-06
5.06399e-06
-2.59076e-06
5.31795e-06
-2.58804e-06
5.5896e-06
-2.57682e-06
5.88117e-06
-2.55542e-06
6.1952e-06
-2.5225e-06
6.53452e-06
-2.47731e-06
6.90216e-06
-2.42003e-06
7.30108e-06
-2.35206e-06
7.7339e-06
-2.27617e-06
8.20253e-06
-2.19639e-06
8.70779e-06
-2.11747e-06
9.24929e-06
-2.04387e-06
9.82623e-06
-1.97818e-06
1.04402e-05
-1.91139e-06
1.29695e-05
-1.85517e-06
1.32238e-05
-1.81001e-06
1.35811e-05
-1.78555e-06
1.4068e-05
-1.79192e-06
1.46096e-05
-1.82728e-06
1.50458e-05
-1.87919e-06
1.52527e-05
-1.93509e-06
1.52521e-05
-1.98748e-06
1.51719e-05
-2.03337e-06
1.51112e-05
-2.07349e-06
1.51089e-05
-2.10927e-06
1.51978e-05
-2.13903e-06
1.53718e-05
-2.15934e-06
1.55242e-05
-2.17033e-06
1.55311e-05
-2.17723e-06
1.54017e-05
-2.18554e-06
1.52882e-05
-2.19537e-06
1.53263e-05
-2.20129e-06
1.54908e-05
1.56244e-05
-2.36102e-06
2.47648e-06
-2.3682e-06
2.56619e-06
-2.37433e-06
2.6738e-06
-2.38077e-06
2.79421e-06
-2.38789e-06
2.92271e-06
-2.3958e-06
3.05774e-06
-2.40455e-06
3.19915e-06
-2.41412e-06
3.34718e-06
-2.42446e-06
3.50221e-06
-2.43546e-06
3.66472e-06
-2.4469e-06
3.83523e-06
-2.45847e-06
4.01435e-06
-2.46972e-06
4.20276e-06
-2.48003e-06
4.4012e-06
-2.48863e-06
4.61054e-06
-2.49451e-06
4.83174e-06
-2.4965e-06
5.06598e-06
-2.49319e-06
5.31464e-06
-2.48304e-06
5.57946e-06
-2.46444e-06
5.86257e-06
-2.43584e-06
6.1666e-06
-2.39603e-06
6.49471e-06
-2.34436e-06
6.8505e-06
-2.28119e-06
7.2379e-06
-2.20817e-06
7.66088e-06
-2.12855e-06
8.12291e-06
-2.04714e-06
8.62638e-06
-1.9699e-06
9.17206e-06
-1.90282e-06
9.75914e-06
-1.84991e-06
1.03873e-05
-1.80618e-06
1.29258e-05
-1.77707e-06
1.31947e-05
-1.7566e-06
1.35607e-05
-1.74971e-06
1.40612e-05
-1.76646e-06
1.46264e-05
-1.80786e-06
1.50872e-05
-1.86376e-06
1.53086e-05
-1.92246e-06
1.53108e-05
-1.9766e-06
1.5226e-05
-2.02333e-06
1.51579e-05
-2.06353e-06
1.51491e-05
-2.09877e-06
1.5233e-05
-2.12768e-06
1.54007e-05
-2.14748e-06
1.5544e-05
-2.15876e-06
1.55423e-05
-2.16662e-06
1.54096e-05
-2.17601e-06
1.52976e-05
-2.18658e-06
1.53368e-05
-2.19292e-06
1.54971e-05
1.56215e-05
-2.33431e-06
2.48677e-06
-2.34015e-06
2.57202e-06
-2.34447e-06
2.67812e-06
-2.34878e-06
2.79853e-06
-2.35357e-06
2.92749e-06
-2.35893e-06
3.06311e-06
-2.36488e-06
3.2051e-06
-2.37136e-06
3.35366e-06
-2.37827e-06
3.50913e-06
-2.38545e-06
3.6719e-06
-2.39266e-06
3.84244e-06
-2.39955e-06
4.02124e-06
-2.40565e-06
4.20886e-06
-2.41037e-06
4.40592e-06
-2.41293e-06
4.6131e-06
-2.41241e-06
4.83122e-06
-2.40768e-06
5.06125e-06
-2.39745e-06
5.30441e-06
-2.38029e-06
5.5623e-06
-2.35474e-06
5.83702e-06
-2.31941e-06
6.13127e-06
-2.27319e-06
6.4485e-06
-2.21563e-06
6.79294e-06
-2.14723e-06
7.1695e-06
-2.06987e-06
7.58353e-06
-1.98716e-06
8.0402e-06
-1.90451e-06
8.54372e-06
-1.82877e-06
9.09632e-06
-1.76722e-06
9.69759e-06
-1.72537e-06
1.03455e-05
-1.70242e-06
1.29028e-05
-1.69918e-06
1.31914e-05
-1.70382e-06
1.35653e-05
-1.71583e-06
1.40732e-05
-1.74398e-06
1.46545e-05
-1.79166e-06
1.51349e-05
-1.85121e-06
1.53681e-05
-1.91214e-06
1.53718e-05
-1.96746e-06
1.52813e-05
-2.01452e-06
1.5205e-05
-2.05447e-06
1.5189e-05
-2.08909e-06
1.52677e-05
-2.1173e-06
1.54289e-05
-2.13674e-06
1.55634e-05
-2.1483e-06
1.55539e-05
-2.15699e-06
1.54183e-05
-2.16737e-06
1.5308e-05
-2.17881e-06
1.53483e-05
-2.18582e-06
1.55041e-05
1.56192e-05
-2.30573e-06
2.49252e-06
-2.3097e-06
2.57599e-06
-2.31262e-06
2.68104e-06
-2.3154e-06
2.8013e-06
-2.31838e-06
2.93048e-06
-2.32166e-06
3.06639e-06
-2.32523e-06
3.20866e-06
-2.32901e-06
3.35743e-06
-2.33286e-06
3.51298e-06
-2.33661e-06
3.67565e-06
-2.33999e-06
3.84581e-06
-2.34263e-06
4.02388e-06
-2.34407e-06
4.2103e-06
-2.34371e-06
4.40556e-06
-2.34081e-06
4.6102e-06
-2.33448e-06
4.82488e-06
-2.32364e-06
5.05041e-06
-2.3071e-06
5.28787e-06
-2.28354e-06
5.53874e-06
-2.2516e-06
5.80508e-06
-2.21004e-06
6.08971e-06
-2.15793e-06
6.39638e-06
-2.09494e-06
6.72995e-06
-2.02178e-06
7.09634e-06
-1.94055e-06
7.5023e-06
-1.85516e-06
7.95481e-06
-1.77147e-06
8.46003e-06
-1.69703e-06
9.02188e-06
-1.6401e-06
9.64066e-06
-1.6075e-06
1.03129e-05
-1.60257e-06
1.28979e-05
-1.62307e-06
1.32119e-05
-1.65247e-06
1.35947e-05
-1.68445e-06
1.41051e-05
-1.72517e-06
1.46953e-05
-1.77948e-06
1.51892e-05
-1.84232e-06
1.5431e-05
-1.90479e-06
1.54342e-05
-1.96058e-06
1.53371e-05
-2.00737e-06
1.52518e-05
-2.04667e-06
1.52283e-05
-2.08057e-06
1.53016e-05
-2.10819e-06
1.54565e-05
-2.12736e-06
1.55826e-05
-2.13912e-06
1.55657e-05
-2.14845e-06
1.54276e-05
-2.15975e-06
1.53193e-05
-2.17216e-06
1.53607e-05
-2.18005e-06
1.5512e-05
1.56177e-05
-2.27647e-06
2.49556e-06
-2.27896e-06
2.57848e-06
-2.28078e-06
2.68286e-06
-2.28233e-06
2.80284e-06
-2.28384e-06
2.93199e-06
-2.2854e-06
3.06795e-06
-2.28697e-06
3.21023e-06
-2.28844e-06
3.35891e-06
-2.28969e-06
3.51423e-06
-2.29048e-06
3.67645e-06
-2.29056e-06
3.84588e-06
-2.28953e-06
4.02286e-06
-2.28695e-06
4.20771e-06
-2.2822e-06
4.40082e-06
-2.27458e-06
4.60258e-06
-2.26321e-06
4.81351e-06
-2.24708e-06
5.03429e-06
-2.22507e-06
5.26585e-06
-2.19593e-06
5.5096e-06
-2.15843e-06
5.76758e-06
-2.11142e-06
6.0427e-06
-2.05412e-06
6.33908e-06
-1.98636e-06
6.66219e-06
-1.90899e-06
7.01897e-06
-1.82436e-06
7.41766e-06
-1.73666e-06
7.86711e-06
-1.65214e-06
8.37551e-06
-1.57884e-06
8.94859e-06
-1.52568e-06
9.58751e-06
-1.50057e-06
1.02877e-05
-1.51053e-06
1.29078e-05
-1.55177e-06
1.32531e-05
-1.60446e-06
1.36474e-05
-1.65675e-06
1.41574e-05
-1.71097e-06
1.47495e-05
-1.77222e-06
1.52504e-05
-1.83787e-06
1.54966e-05
-1.90105e-06
1.54974e-05
-1.95645e-06
1.53925e-05
-2.00229e-06
1.52976e-05
-2.0405e-06
1.52665e-05
-2.07353e-06
1.53346e-05
-2.10061e-06
1.54836e-05
-2.11952e-06
1.56015e-05
-2.13134e-06
1.55775e-05
-2.14111e-06
1.54374e-05
-2.15324e-06
1.53314e-05
-2.16671e-06
1.53742e-05
-2.17567e-06
1.5521e-05
1.56171e-05
-2.24751e-06
2.49754e-06
-2.24915e-06
2.58012e-06
-2.2502e-06
2.68391e-06
-2.25084e-06
2.80348e-06
-2.25122e-06
2.93237e-06
-2.2514e-06
3.06813e-06
-2.25133e-06
3.21016e-06
-2.25092e-06
3.3585e-06
-2.24999e-06
3.5133e-06
-2.24835e-06
3.6748e-06
-2.24568e-06
3.84322e-06
-2.24163e-06
4.01881e-06
-2.23572e-06
4.2018e-06
-2.22738e-06
4.39247e-06
-2.21589e-06
4.59109e-06
-2.20042e-06
4.79805e-06
-2.18002e-06
5.01388e-06
-2.1536e-06
5.23943e-06
-2.11999e-06
5.476e-06
-2.07805e-06
5.72563e-06
-2.02673e-06
5.99138e-06
-1.96533e-06
6.27768e-06
-1.89379e-06
6.59065e-06
-1.81312e-06
6.9383e-06
-1.72583e-06
7.33038e-06
-1.63639e-06
7.77767e-06
-1.55135e-06
8.29047e-06
-1.47912e-06
8.87636e-06
-1.42908e-06
9.53747e-06
-1.40977e-06
1.02684e-05
-1.43127e-06
1.29294e-05
-1.48941e-06
1.33113e-05
-1.56274e-06
1.37208e-05
-1.63461e-06
1.42293e-05
-1.70263e-06
1.48175e-05
-1.77084e-06
1.53187e-05
-1.83863e-06
1.55644e-05
-1.9015e-06
1.55603e-05
-1.95553e-06
1.54466e-05
-1.99962e-06
1.53417e-05
-2.03626e-06
1.53032e-05
-2.06825e-06
1.53666e-05
-2.09476e-06
1.55101e-05
-2.11334e-06
1.56201e-05
-2.12503e-06
1.55892e-05
-2.13504e-06
1.54474e-05
-2.14791e-06
1.53442e-05
-2.16252e-06
1.53888e-05
-2.17269e-06
1.55311e-05
1.56176e-05
-2.22042e-06
2.4992e-06
-2.22162e-06
2.58132e-06
-2.22209e-06
2.68439e-06
-2.222e-06
2.80339e-06
-2.22148e-06
2.93186e-06
-2.22056e-06
3.06721e-06
-2.2192e-06
3.2088e-06
-2.21728e-06
3.35658e-06
-2.21464e-06
3.51066e-06
-2.21105e-06
3.67121e-06
-2.20624e-06
3.8384e-06
-2.19982e-06
4.01239e-06
-2.19134e-06
4.19332e-06
-2.18023e-06
4.38136e-06
-2.16582e-06
4.57668e-06
-2.14731e-06
4.77954e-06
-2.12379e-06
4.99036e-06
-2.09422e-06
5.20987e-06
-2.05752e-06
5.4393e-06
-2.01259e-06
5.6807e-06
-1.95845e-06
5.93724e-06
-1.89445e-06
6.21368e-06
-1.8206e-06
6.5168e-06
-1.73798e-06
6.85568e-06
-1.64925e-06
7.24165e-06
-1.55906e-06
7.68747e-06
-1.47417e-06
8.20558e-06
-1.40319e-06
8.80538e-06
-1.35572e-06
9.49e-06
-1.34064e-06
1.02533e-05
-1.37023e-06
1.2959e-05
-1.4409e-06
1.33819e-05
-1.53104e-06
1.38109e-05
-1.6205e-06
1.43187e-05
-1.70171e-06
1.48987e-05
-1.77637e-06
1.53933e-05
-1.84531e-06
1.56334e-05
-1.90664e-06
1.56216e-05
-1.95815e-06
1.54981e-05
-1.99963e-06
1.53832e-05
-2.03419e-06
1.53377e-05
-2.06493e-06
1.53973e-05
-2.09078e-06
1.5536e-05
-2.10889e-06
1.56382e-05
-2.12021e-06
1.56005e-05
-2.13026e-06
1.54574e-05
-2.1438e-06
1.53578e-05