/*--------------------------------*- C++ -*----------------------------------*\
  =========                 |
  \\      /  F ield         | OpenFOAM: The Open Source CFD Toolbox
   \\    /   O peration     | Website:  https://openfoam.org
    \\  /    A nd           | Version:  9
     \\/     M anipulation  |
\*---------------------------------------------------------------------------*/
FoamFile
{
    format      ascii;
    class       volScalarField;
    location    "0.08";
    object      rAU;
}
// * * * * * * * * * * * * * * * * * * * * * * * * * * * * * * * * * * * * * //

dimensions      [-1 3 1 0 0 0 0];

internalField   nonuniform List<scalar> 
5000
(
1.75734e-05
1.67923e-05
1.7142e-05
1.7467e-05
1.77775e-05
1.8078e-05
1.83698e-05
1.86538e-05
1.89308e-05
1.92014e-05
1.94661e-05
1.97251e-05
1.99783e-05
2.02248e-05
2.04629e-05
2.069e-05
2.09025e-05
2.10958e-05
2.12648e-05
2.14048e-05
2.15112e-05
2.1581e-05
2.16126e-05
2.16061e-05
2.1563e-05
2.14861e-05
2.13791e-05
2.12459e-05
2.10894e-05
2.09201e-05
2.08592e-05
2.06102e-05
2.04562e-05
2.04403e-05
2.05178e-05
2.06174e-05
2.07157e-05
2.08116e-05
2.08715e-05
2.08658e-05
2.08269e-05
2.08011e-05
2.07732e-05
2.06979e-05
2.05904e-05
2.05226e-05
2.0528e-05
2.05535e-05
2.05216e-05
2.04267e-05
1.75604e-05
1.67852e-05
1.71377e-05
1.7465e-05
1.7778e-05
1.80809e-05
1.83754e-05
1.86623e-05
1.89423e-05
1.9216e-05
1.94837e-05
1.97453e-05
2.00003e-05
2.02471e-05
2.04836e-05
2.07065e-05
2.09115e-05
2.1094e-05
2.1249e-05
2.13722e-05
2.14604e-05
2.15118e-05
2.15262e-05
2.15046e-05
2.14494e-05
2.13637e-05
2.12513e-05
2.11161e-05
2.09615e-05
2.07999e-05
2.0766e-05
2.0544e-05
2.04194e-05
2.04242e-05
2.05116e-05
2.06138e-05
2.07097e-05
2.08005e-05
2.08574e-05
2.08545e-05
2.08205e-05
2.07944e-05
2.07581e-05
2.06748e-05
2.05695e-05
2.05121e-05
2.05252e-05
2.05492e-05
2.05116e-05
2.04162e-05
1.75495e-05
1.67784e-05
1.71313e-05
1.74588e-05
1.77724e-05
1.80762e-05
1.83719e-05
1.866e-05
1.89414e-05
1.92161e-05
1.94845e-05
1.97458e-05
1.99992e-05
2.02425e-05
2.04731e-05
2.0687e-05
2.08801e-05
2.10476e-05
2.11854e-05
2.12902e-05
2.13601e-05
2.13946e-05
2.13947e-05
2.13623e-05
2.13e-05
2.12113e-05
2.10995e-05
2.09686e-05
2.08226e-05
2.06759e-05
2.06774e-05
2.04876e-05
2.03951e-05
2.04204e-05
2.05149e-05
2.06158e-05
2.07065e-05
2.07908e-05
2.08442e-05
2.08434e-05
2.08138e-05
2.07867e-05
2.07424e-05
2.06526e-05
2.05509e-05
2.05041e-05
2.05241e-05
2.0546e-05
2.05031e-05
2.04081e-05
1.75495e-05
1.67718e-05
1.71214e-05
1.74473e-05
1.77599e-05
1.80631e-05
1.83582e-05
1.8646e-05
1.89266e-05
1.92003e-05
1.94665e-05
1.97246e-05
1.99728e-05
2.02089e-05
2.04295e-05
2.06308e-05
2.08086e-05
2.09589e-05
2.10786e-05
2.11655e-05
2.1219e-05
2.12399e-05
2.12299e-05
2.11916e-05
2.11277e-05
2.10413e-05
2.09359e-05
2.08154e-05
2.06845e-05
2.05594e-05
2.06026e-05
2.04485e-05
2.03883e-05
2.04314e-05
2.05283e-05
2.06234e-05
2.07059e-05
2.07826e-05
2.0832e-05
2.08328e-05
2.08068e-05
2.07781e-05
2.07262e-05
2.06314e-05
2.05347e-05
2.04985e-05
2.05244e-05
2.05437e-05
2.04961e-05
2.04023e-05
1.75391e-05
1.67526e-05
1.70992e-05
1.74243e-05
1.77363e-05
1.80388e-05
1.83329e-05
1.8619e-05
1.88974e-05
1.91678e-05
1.94296e-05
1.96815e-05
1.99216e-05
2.01473e-05
2.03551e-05
2.05416e-05
2.07029e-05
2.0836e-05
2.09388e-05
2.10103e-05
2.10511e-05
2.10627e-05
2.10475e-05
2.10081e-05
2.09474e-05
2.08685e-05
2.07747e-05
2.06701e-05
2.05602e-05
2.04621e-05
2.05505e-05
2.04329e-05
2.04022e-05
2.04578e-05
2.05515e-05
2.06362e-05
2.07078e-05
2.07758e-05
2.08207e-05
2.08225e-05
2.07993e-05
2.07687e-05
2.07098e-05
2.06117e-05
2.05209e-05
2.04949e-05
2.05258e-05
2.05422e-05
2.04906e-05
2.03986e-05
1.75146e-05
1.67249e-05
1.70691e-05
1.73932e-05
1.77042e-05
1.80053e-05
1.82972e-05
1.85805e-05
1.88549e-05
1.91202e-05
1.93754e-05
1.96189e-05
1.98488e-05
2.00623e-05
2.02563e-05
2.04276e-05
2.05733e-05
2.06912e-05
2.07802e-05
2.08403e-05
2.08728e-05
2.08799e-05
2.0864e-05
2.08282e-05
2.07752e-05
2.07081e-05
2.06303e-05
2.0546e-05
2.04615e-05
2.03942e-05
2.05274e-05
2.04444e-05
2.04377e-05
2.04992e-05
2.05833e-05
2.06531e-05
2.07115e-05
2.07701e-05
2.08103e-05
2.08127e-05
2.07915e-05
2.07585e-05
2.06935e-05
2.05935e-05
2.05095e-05
2.04933e-05
2.05282e-05
2.05415e-05
2.04863e-05
2.03966e-05
1.7487e-05
1.66976e-05
1.70388e-05
1.73603e-05
1.76687e-05
1.79666e-05
1.82549e-05
1.85336e-05
1.88025e-05
1.9061e-05
1.9308e-05
1.9542e-05
1.97607e-05
1.99617e-05
2.01424e-05
2.03001e-05
2.04327e-05
2.05388e-05
2.06181e-05
2.06714e-05
2.07004e-05
2.07074e-05
2.06953e-05
2.06669e-05
2.06252e-05
2.05733e-05
2.05148e-05
2.04541e-05
2.03976e-05
2.03619e-05
2.05364e-05
2.04835e-05
2.04937e-05
2.05534e-05
2.06218e-05
2.06729e-05
2.07165e-05
2.07652e-05
2.08007e-05
2.08032e-05
2.07834e-05
2.07478e-05
2.06776e-05
2.05771e-05
2.05004e-05
2.04933e-05
2.05313e-05
2.05413e-05
2.04833e-05
2.03963e-05
1.74624e-05
1.66716e-05
1.70088e-05
1.73267e-05
1.76313e-05
1.7925e-05
1.82084e-05
1.84816e-05
1.8744e-05
1.89949e-05
1.92331e-05
1.94572e-05
1.96651e-05
1.98548e-05
2.00239e-05
2.01707e-05
2.02937e-05
2.03922e-05
2.04664e-05
2.05175e-05
2.05472e-05
2.05583e-05
2.05535e-05
2.05357e-05
2.05081e-05
2.04739e-05
2.04367e-05
2.0401e-05
2.03728e-05
2.03675e-05
2.05767e-05
2.05477e-05
2.05667e-05
2.0617e-05
2.06645e-05
2.0694e-05
2.07219e-05
2.07609e-05
2.07917e-05
2.0794e-05
2.0775e-05
2.07368e-05
2.06623e-05
2.05625e-05
2.04934e-05
2.04946e-05
2.05349e-05
2.05417e-05
2.04813e-05
2.03974e-05
1.74385e-05
1.66451e-05
1.69779e-05
1.72921e-05
1.75928e-05
1.78822e-05
1.81606e-05
1.84279e-05
1.86836e-05
1.89269e-05
1.91568e-05
1.93718e-05
1.95703e-05
1.97505e-05
1.9911e-05
2.00502e-05
2.01674e-05
2.02624e-05
2.03356e-05
2.03885e-05
2.04229e-05
2.04413e-05
2.04467e-05
2.04419e-05
2.04302e-05
2.04149e-05
2.03995e-05
2.03886e-05
2.03871e-05
2.04088e-05
2.06444e-05
2.06323e-05
2.0652e-05
2.06863e-05
2.07088e-05
2.07151e-05
2.0727e-05
2.07566e-05
2.0783e-05
2.07849e-05
2.07662e-05
2.07256e-05
2.06478e-05
2.05498e-05
2.04884e-05
2.04969e-05
2.05388e-05
2.05424e-05
2.04802e-05
2.03996e-05
1.74144e-05
1.66195e-05
1.69485e-05
1.72592e-05
1.75561e-05
1.78412e-05
1.81148e-05
1.83765e-05
1.8626e-05
1.88624e-05
1.9085e-05
1.92924e-05
1.94834e-05
1.96568e-05
1.98115e-05
1.99465e-05
2.00615e-05
2.01565e-05
2.02324e-05
2.02903e-05
2.03323e-05
2.03607e-05
2.03783e-05
2.0388e-05
2.0393e-05
2.03966e-05
2.04024e-05
2.04143e-05
2.04363e-05
2.04802e-05
2.07336e-05
2.0731e-05
2.07443e-05
2.07575e-05
2.07525e-05
2.0735e-05
2.07313e-05
2.07522e-05
2.07745e-05
2.07759e-05
2.07573e-05
2.07145e-05
2.06344e-05
2.0539e-05
2.0485e-05
2.05e-05
2.05428e-05
2.05434e-05
2.048e-05
2.04027e-05
1.73936e-05
1.6598e-05
1.69237e-05
1.72311e-05
1.75245e-05
1.78056e-05
1.80746e-05
1.83314e-05
1.85754e-05
1.88061e-05
1.90227e-05
1.92244e-05
1.94102e-05
1.95792e-05
1.97308e-05
1.98646e-05
1.99803e-05
2.00783e-05
2.01595e-05
2.0225e-05
2.02767e-05
2.03168e-05
2.03478e-05
2.03726e-05
2.03942e-05
2.04158e-05
2.04407e-05
2.04723e-05
2.05134e-05
2.05741e-05
2.08368e-05
2.08374e-05
2.08388e-05
2.08274e-05
2.07937e-05
2.07527e-05
2.07342e-05
2.07471e-05
2.07659e-05
2.07667e-05
2.07481e-05
2.07035e-05
2.06221e-05
2.05298e-05
2.04829e-05
2.05036e-05
2.05468e-05
2.05446e-05
2.04805e-05
2.04066e-05
1.73794e-05
1.65828e-05
1.69055e-05
1.721e-05
1.75002e-05
1.77777e-05
1.80429e-05
1.82954e-05
1.85351e-05
1.87613e-05
1.89737e-05
1.91714e-05
1.93541e-05
1.9521e-05
1.96719e-05
1.98067e-05
1.99254e-05
2.00285e-05
2.01168e-05
2.01915e-05
2.02541e-05
2.03067e-05
2.03516e-05
2.03913e-05
2.04286e-05
2.04665e-05
2.05077e-05
2.05551e-05
2.06106e-05
2.06825e-05
2.0947e-05
2.09454e-05
2.0931e-05
2.08934e-05
2.08313e-05
2.07678e-05
2.07355e-05
2.07413e-05
2.0757e-05
2.07574e-05
2.07387e-05
2.06927e-05
2.06109e-05
2.05222e-05
2.0482e-05
2.05075e-05
2.05506e-05
2.05459e-05
2.04814e-05
2.0411e-05
1.73734e-05
1.6575e-05
1.68952e-05
1.7197e-05
1.74844e-05
1.77591e-05
1.80211e-05
1.82705e-05
1.85069e-05
1.87301e-05
1.89397e-05
1.91353e-05
1.93166e-05
1.94833e-05
1.96353e-05
1.97728e-05
1.98961e-05
2.00055e-05
2.01021e-05
2.01867e-05
2.02608e-05
2.03262e-05
2.03846e-05
2.04384e-05
2.049e-05
2.05417e-05
2.0596e-05
2.06551e-05
2.072e-05
2.07979e-05
2.1058e-05
2.10502e-05
2.1018e-05
2.09541e-05
2.08646e-05
2.07798e-05
2.07349e-05
2.07345e-05
2.07476e-05
2.07478e-05
2.07292e-05
2.06824e-05
2.06007e-05
2.0516e-05
2.04818e-05
2.05113e-05
2.05542e-05
2.05473e-05
2.04828e-05
2.04158e-05
1.7376e-05
1.65747e-05
1.68927e-05
1.71924e-05
1.74778e-05
1.77502e-05
1.801e-05
1.82572e-05
1.84916e-05
1.8713e-05
1.89213e-05
1.91161e-05
1.92975e-05
1.94655e-05
1.962e-05
1.97614e-05
1.98901e-05
2.00067e-05
2.01119e-05
2.02067e-05
2.02923e-05
2.03699e-05
2.04412e-05
2.05079e-05
2.05717e-05
2.06348e-05
2.06989e-05
2.07655e-05
2.08352e-05
2.09144e-05
2.11652e-05
2.11484e-05
2.10977e-05
2.10085e-05
2.08932e-05
2.07887e-05
2.07323e-05
2.07264e-05
2.07376e-05
2.07378e-05
2.07195e-05
2.06724e-05
2.05916e-05
2.05109e-05
2.04822e-05
2.0515e-05
2.05573e-05
2.05485e-05
2.04844e-05
2.04207e-05
1.73825e-05
1.65792e-05
1.68963e-05
1.7195e-05
1.74793e-05
1.77505e-05
1.80091e-05
1.82552e-05
1.84886e-05
1.87094e-05
1.89175e-05
1.91129e-05
1.92956e-05
1.94658e-05
1.96238e-05
1.97699e-05
1.99047e-05
2.00287e-05
2.01426e-05
2.02474e-05
2.03439e-05
2.0433e-05
2.0516e-05
2.0594e-05
2.06683e-05
2.07402e-05
2.08108e-05
2.08813e-05
2.09515e-05
2.10279e-05
2.12654e-05
2.12379e-05
2.1169e-05
2.10562e-05
2.09172e-05
2.07945e-05
2.07277e-05
2.0717e-05
2.07267e-05
2.07273e-05
2.07096e-05
2.06627e-05
2.05834e-05
2.05067e-05
2.04829e-05
2.05183e-05
2.056e-05
2.05496e-05
2.04861e-05
2.04257e-05
1.73935e-05
1.65895e-05
1.69066e-05
1.7205e-05
1.74888e-05
1.77596e-05
1.80178e-05
1.82636e-05
1.8497e-05
1.87181e-05
1.8927e-05
1.91238e-05
1.93087e-05
1.9482e-05
1.9644e-05
1.97953e-05
1.99363e-05
2.00678e-05
2.01903e-05
2.03046e-05
2.04113e-05
2.05111e-05
2.06046e-05
2.06925e-05
2.07753e-05
2.08536e-05
2.0928e-05
2.0999e-05
2.10662e-05
2.11362e-05
2.13571e-05
2.13174e-05
2.12314e-05
2.10973e-05
2.09366e-05
2.07973e-05
2.07208e-05
2.0706e-05
2.07149e-05
2.07162e-05
2.06995e-05
2.06533e-05
2.05758e-05
2.0503e-05
2.04837e-05
2.05212e-05
2.05622e-05
2.05504e-05
2.04877e-05
2.04305e-05
1.74137e-05
1.6608e-05
1.69251e-05
1.72232e-05
1.75065e-05
1.7777e-05
1.80351e-05
1.82811e-05
1.85151e-05
1.87372e-05
1.89475e-05
1.91464e-05
1.93341e-05
1.9511e-05
1.96775e-05
1.98342e-05
1.99816e-05
2.01205e-05
2.02513e-05
2.03746e-05
2.04909e-05
2.06004e-05
2.07034e-05
2.07998e-05
2.08895e-05
2.09723e-05
2.1048e-05
2.11166e-05
2.11777e-05
2.12382e-05
2.14396e-05
2.13868e-05
2.12848e-05
2.11318e-05
2.09518e-05
2.07971e-05
2.07119e-05
2.06935e-05
2.0702e-05
2.07045e-05
2.06892e-05
2.06441e-05
2.05687e-05
2.04997e-05
2.04843e-05
2.05236e-05
2.05637e-05
2.05508e-05
2.0489e-05
2.0435e-05
1.74422e-05
1.66317e-05
1.69487e-05
1.72466e-05
1.75299e-05
1.78006e-05
1.80591e-05
1.83058e-05
1.85409e-05
1.87644e-05
1.89768e-05
1.91782e-05
1.93691e-05
1.95499e-05
1.97211e-05
1.98833e-05
2.00372e-05
2.01833e-05
2.03221e-05
2.0454e-05
2.05793e-05
2.06978e-05
2.08093e-05
2.09131e-05
2.10084e-05
2.1094e-05
2.11692e-05
2.12332e-05
2.12854e-05
2.13336e-05
2.15129e-05
2.14458e-05
2.1329e-05
2.11597e-05
2.09625e-05
2.0794e-05
2.07006e-05
2.06793e-05
2.06879e-05
2.06921e-05
2.06786e-05
2.0635e-05
2.0562e-05
2.04966e-05
2.04847e-05
2.05253e-05
2.05646e-05
2.05508e-05
2.04901e-05
2.04391e-05
1.7459e-05
1.6651e-05
1.69709e-05
1.72706e-05
1.75553e-05
1.78273e-05
1.80872e-05
1.83353e-05
1.85719e-05
1.87975e-05
1.90122e-05
1.92165e-05
1.94108e-05
1.95957e-05
1.97717e-05
1.99396e-05
2.00998e-05
2.02529e-05
2.03995e-05
2.05396e-05
2.06734e-05
2.08004e-05
2.09198e-05
2.10302e-05
2.11299e-05
2.12172e-05
2.12903e-05
2.13477e-05
2.13889e-05
2.14224e-05
2.15771e-05
2.14947e-05
2.1364e-05
2.11805e-05
2.09686e-05
2.07876e-05
2.0687e-05
2.06634e-05
2.06727e-05
2.0679e-05
2.06676e-05
2.06259e-05
2.05553e-05
2.04934e-05
2.04846e-05
2.05264e-05
2.05649e-05
2.05502e-05
2.04906e-05
2.04427e-05
1.74752e-05
1.66737e-05
1.69968e-05
1.72981e-05
1.75841e-05
1.78573e-05
1.81185e-05
1.83682e-05
1.86067e-05
1.88343e-05
1.90515e-05
1.92588e-05
1.94567e-05
1.96457e-05
1.98266e-05
1.99999e-05
2.01663e-05
2.03263e-05
2.04803e-05
2.06284e-05
2.07704e-05
2.09054e-05
2.10321e-05
2.11485e-05
2.1252e-05
2.134e-05
2.14096e-05
2.1459e-05
2.14874e-05
2.15042e-05
2.16323e-05
2.15332e-05
2.13892e-05
2.11938e-05
2.09695e-05
2.07778e-05
2.06709e-05
2.06456e-05
2.06562e-05
2.06651e-05
2.06563e-05
2.06167e-05
2.05486e-05
2.049e-05
2.04841e-05
2.05269e-05
2.05645e-05
2.0549e-05
2.04905e-05
2.04457e-05
1.7498e-05
1.67008e-05
1.70268e-05
1.73293e-05
1.76161e-05
1.78901e-05
1.81524e-05
1.84035e-05
1.86436e-05
1.88733e-05
1.9093e-05
1.93032e-05
1.95045e-05
1.96976e-05
1.98831e-05
2.00617e-05
2.0234e-05
2.04006e-05
2.05618e-05
2.07175e-05
2.08672e-05
2.10098e-05
2.11435e-05
2.12653e-05
2.13721e-05
2.146e-05
2.15253e-05
2.15654e-05
2.15795e-05
2.1578e-05
2.16781e-05
2.15612e-05
2.14041e-05
2.11987e-05
2.09646e-05
2.07641e-05
2.06522e-05
2.06259e-05
2.06384e-05
2.06506e-05
2.06447e-05
2.06073e-05
2.05416e-05
2.04861e-05
2.0483e-05
2.05266e-05
2.05633e-05
2.0547e-05
2.04897e-05
2.04478e-05
1.75277e-05
1.67296e-05
1.70576e-05
1.73612e-05
1.76487e-05
1.79237e-05
1.8187e-05
1.84394e-05
1.86811e-05
1.89127e-05
1.91347e-05
1.93477e-05
1.95523e-05
1.97491e-05
1.9939e-05
2.01226e-05
2.03005e-05
2.04733e-05
2.06412e-05
2.08041e-05
2.09611e-05
2.11109e-05
2.12509e-05
2.13778e-05
2.14872e-05
2.15743e-05
2.16344e-05
2.16643e-05
2.16631e-05
2.16423e-05
2.17138e-05
2.1578e-05
2.14081e-05
2.11945e-05
2.0953e-05
2.0746e-05
2.06306e-05
2.06045e-05
2.06196e-05
2.06355e-05
2.06328e-05
2.05976e-05
2.05343e-05
2.04819e-05
2.04814e-05
2.05258e-05
2.05615e-05
2.05443e-05
2.04881e-05
2.04492e-05
1.75599e-05
1.67587e-05
1.7088e-05
1.73924e-05
1.76807e-05
1.79564e-05
1.82208e-05
1.84743e-05
1.87175e-05
1.89509e-05
1.91751e-05
1.93906e-05
1.95982e-05
1.97986e-05
1.99924e-05
2.01806e-05
2.03636e-05
2.05421e-05
2.07162e-05
2.08856e-05
2.10493e-05
2.12056e-05
2.13514e-05
2.14827e-05
2.15941e-05
2.16797e-05
2.1734e-05
2.17529e-05
2.17358e-05
2.16952e-05
2.17385e-05
2.15832e-05
2.14006e-05
2.11802e-05
2.09341e-05
2.07231e-05
2.06062e-05
2.05814e-05
2.05999e-05
2.06199e-05
2.06206e-05
2.05876e-05
2.05265e-05
2.04771e-05
2.04792e-05
2.05244e-05
2.0559e-05
2.05409e-05
2.04857e-05
2.04497e-05
1.75905e-05
1.6786e-05
1.71162e-05
1.74215e-05
1.77106e-05
1.79871e-05
1.82524e-05
1.85071e-05
1.87517e-05
1.89867e-05
1.92129e-05
1.94307e-05
1.9641e-05
1.98444e-05
2.00419e-05
2.0234e-05
2.04216e-05
2.06051e-05
2.07845e-05
2.09596e-05
2.11292e-05
2.12911e-05
2.14419e-05
2.15768e-05
2.16894e-05
2.17729e-05
2.18207e-05
2.18282e-05
2.17949e-05
2.17344e-05
2.17514e-05
2.15763e-05
2.13813e-05
2.11554e-05
2.09071e-05
2.06952e-05
2.05789e-05
2.05568e-05
2.05795e-05
2.06041e-05
2.06082e-05
2.05773e-05
2.05184e-05
2.04719e-05
2.04767e-05
2.05225e-05
2.05559e-05
2.05365e-05
2.04823e-05
2.04493e-05
1.76164e-05
1.68092e-05
1.71407e-05
1.74471e-05
1.77372e-05
1.80147e-05
1.8281e-05
1.85368e-05
1.87827e-05
1.90193e-05
1.92471e-05
1.9467e-05
1.96795e-05
1.98857e-05
2.00861e-05
2.02816e-05
2.0473e-05
2.06605e-05
2.08444e-05
2.10241e-05
2.11985e-05
2.13649e-05
2.15197e-05
2.16571e-05
2.17702e-05
2.18508e-05
2.18914e-05
2.18872e-05
2.18379e-05
2.17583e-05
2.17516e-05
2.15574e-05
2.13504e-05
2.112e-05
2.08719e-05
2.06621e-05
2.0549e-05
2.05312e-05
2.05589e-05
2.05883e-05
2.05958e-05
2.05668e-05
2.05098e-05
2.04663e-05
2.04738e-05
2.05203e-05
2.05521e-05
2.05313e-05
2.0478e-05
2.04479e-05
1.76375e-05
1.68287e-05
1.71619e-05
1.74696e-05
1.77608e-05
1.80392e-05
1.83064e-05
1.85632e-05
1.88102e-05
1.9048e-05
1.92773e-05
1.94988e-05
1.97133e-05
1.99215e-05
2.01243e-05
2.03224e-05
2.05166e-05
2.07072e-05
2.08944e-05
2.10776e-05
2.12553e-05
2.1425e-05
2.15824e-05
2.17213e-05
2.18337e-05
2.19106e-05
2.19437e-05
2.19278e-05
2.18631e-05
2.17657e-05
2.1739e-05
2.15268e-05
2.13084e-05
2.10744e-05
2.08287e-05
2.06241e-05
2.0517e-05
2.0505e-05
2.05383e-05
2.05728e-05
2.05836e-05
2.05561e-05
2.05009e-05
2.04604e-05
2.04707e-05
2.05177e-05
2.05477e-05
2.05253e-05
2.04728e-05
2.04457e-05
1.76556e-05
1.6846e-05
1.71808e-05
1.74898e-05
1.77817e-05
1.80608e-05
1.83287e-05
1.85863e-05
1.88341e-05
1.90729e-05
1.93033e-05
1.9526e-05
1.97418e-05
1.99515e-05
2.01559e-05
2.03558e-05
2.05518e-05
2.07444e-05
2.09335e-05
2.11187e-05
2.12985e-05
2.147e-05
2.16287e-05
2.17677e-05
2.18782e-05
2.19505e-05
2.19757e-05
2.19484e-05
2.18696e-05
2.17563e-05
2.17141e-05
2.14852e-05
2.12563e-05
2.10197e-05
2.07784e-05
2.0582e-05
2.04835e-05
2.04789e-05
2.05185e-05
2.05582e-05
2.05718e-05
2.05454e-05
2.04918e-05
2.04545e-05
2.04675e-05
2.05148e-05
2.05428e-05
2.05184e-05
2.04667e-05
2.04425e-05
1.76718e-05
1.68613e-05
1.71975e-05
1.75074e-05
1.78e-05
1.80795e-05
1.83479e-05
1.8606e-05
1.88544e-05
1.90938e-05
1.93249e-05
1.95484e-05
1.9765e-05
1.99755e-05
2.01808e-05
2.03815e-05
2.05784e-05
2.07717e-05
2.09615e-05
2.11473e-05
2.13275e-05
2.14993e-05
2.16577e-05
2.17954e-05
2.1903e-05
2.197e-05
2.19871e-05
2.19491e-05
2.18576e-05
2.17306e-05
2.16778e-05
2.14341e-05
2.11957e-05
2.09573e-05
2.07223e-05
2.0537e-05
2.04496e-05
2.04537e-05
2.05001e-05
2.05447e-05
2.05607e-05
2.05349e-05
2.04827e-05
2.04486e-05
2.04645e-05
2.05119e-05
2.05373e-05
2.05108e-05
2.04597e-05
2.04385e-05
1.76855e-05
1.68742e-05
1.72115e-05
1.75222e-05
1.78153e-05
1.80953e-05
1.8364e-05
1.86224e-05
1.88712e-05
1.9111e-05
1.93424e-05
1.95662e-05
1.97831e-05
1.99938e-05
2.01992e-05
2.03999e-05
2.05965e-05
2.07894e-05
2.09786e-05
2.11635e-05
2.13427e-05
2.15132e-05
2.16698e-05
2.18048e-05
2.19082e-05
2.19692e-05
2.19783e-05
2.19307e-05
2.18283e-05
2.16904e-05
2.16317e-05
2.13753e-05
2.11286e-05
2.08893e-05
2.06624e-05
2.04908e-05
2.04167e-05
2.04305e-05
2.04837e-05
2.05327e-05
2.05505e-05
2.05248e-05
2.04739e-05
2.0443e-05
2.04618e-05
2.0509e-05
2.05314e-05
2.05024e-05
2.0452e-05
2.04338e-05
1.76963e-05
1.68845e-05
1.72228e-05
1.75342e-05
1.78278e-05
1.81082e-05
1.83772e-05
1.86358e-05
1.88848e-05
1.91246e-05
1.93561e-05
1.95798e-05
1.97965e-05
2.00068e-05
2.02116e-05
2.04115e-05
2.06069e-05
2.07983e-05
2.09857e-05
2.11685e-05
2.13453e-05
2.1513e-05
2.16663e-05
2.17972e-05
2.18955e-05
2.195e-05
2.19514e-05
2.18952e-05
2.17842e-05
2.1638e-05
2.1578e-05
2.13109e-05
2.10572e-05
2.08182e-05
2.06012e-05
2.04454e-05
2.03861e-05
2.04103e-05
2.04701e-05
2.05228e-05
2.05414e-05
2.05153e-05
2.04656e-05
2.0438e-05
2.04595e-05
2.05061e-05
2.05252e-05
2.04934e-05
2.04436e-05
2.04285e-05
1.77052e-05
1.6893e-05
1.72322e-05
1.75443e-05
1.78384e-05
1.8119e-05
1.83881e-05
1.86467e-05
1.88956e-05
1.91353e-05
1.93665e-05
1.95897e-05
1.98058e-05
2.00153e-05
2.02189e-05
2.04172e-05
2.06107e-05
2.07998e-05
2.09844e-05
2.11641e-05
2.13373e-05
2.15009e-05
2.16495e-05
2.17751e-05
2.18673e-05
2.1915e-05
2.19092e-05
2.18459e-05
2.17283e-05
2.15763e-05
2.15189e-05
2.12432e-05
2.09841e-05
2.0747e-05
2.05416e-05
2.04032e-05
2.03597e-05
2.03941e-05
2.04598e-05
2.05153e-05
2.05338e-05
2.05068e-05
2.04582e-05
2.04339e-05
2.04579e-05
2.05034e-05
2.05186e-05
2.04839e-05
2.04348e-05
2.04226e-05
1.77131e-05
1.69006e-05
1.72405e-05
1.75532e-05
1.78475e-05
1.81281e-05
1.83972e-05
1.86556e-05
1.89042e-05
1.91436e-05
1.93742e-05
1.95968e-05
1.98119e-05
2.00202e-05
2.02222e-05
2.04185e-05
2.06095e-05
2.07957e-05
2.09768e-05
2.11525e-05
2.13211e-05
2.14795e-05
2.16224e-05
2.17416e-05
2.1827e-05
2.18678e-05
2.18554e-05
2.17862e-05
2.1664e-05
2.15087e-05
2.14569e-05
2.11748e-05
2.09121e-05
2.06787e-05
2.04866e-05
2.03666e-05
2.03387e-05
2.03828e-05
2.04533e-05
2.05105e-05
2.0528e-05
2.04995e-05
2.04519e-05
2.04309e-05
2.0457e-05
2.05008e-05
2.05117e-05
2.0474e-05
2.04257e-05
2.04164e-05
1.77202e-05
1.69074e-05
1.72479e-05
1.7561e-05
1.78553e-05
1.81359e-05
1.84048e-05
1.8663e-05
1.89112e-05
1.915e-05
1.938e-05
1.96017e-05
1.98157e-05
2.00225e-05
2.02227e-05
2.04167e-05
2.0605e-05
2.07879e-05
2.09652e-05
2.11363e-05
2.12997e-05
2.14522e-05
2.15885e-05
2.17006e-05
2.17787e-05
2.18126e-05
2.17941e-05
2.17202e-05
2.15951e-05
2.14383e-05
2.13945e-05
2.11083e-05
2.08444e-05
2.06167e-05
2.04392e-05
2.03377e-05
2.03247e-05
2.03771e-05
2.04512e-05
2.05086e-05
2.0524e-05
2.04937e-05
2.04471e-05
2.04291e-05
2.04569e-05
2.04985e-05
2.05047e-05
2.0464e-05
2.04165e-05
2.041e-05
1.77262e-05
1.69132e-05
1.72543e-05
1.75676e-05
1.7862e-05
1.81425e-05
1.84111e-05
1.8669e-05
1.89168e-05
1.91551e-05
1.93844e-05
1.96052e-05
1.9818e-05
2.00233e-05
2.02217e-05
2.04134e-05
2.0599e-05
2.07785e-05
2.09518e-05
2.11183e-05
2.12762e-05
2.14224e-05
2.15515e-05
2.1656e-05
2.17266e-05
2.17535e-05
2.17295e-05
2.1652e-05
2.15254e-05
2.13686e-05
2.13343e-05
2.10466e-05
2.07839e-05
2.05641e-05
2.04019e-05
2.03183e-05
2.03187e-05
2.03776e-05
2.04535e-05
2.05097e-05
2.05221e-05
2.04897e-05
2.04439e-05
2.04287e-05
2.04577e-05
2.04965e-05
2.04977e-05
2.04539e-05
2.04074e-05
2.04035e-05
1.77308e-05
1.69178e-05
1.72593e-05
1.75729e-05
1.78675e-05
1.81479e-05
1.84164e-05
1.86741e-05
1.89216e-05
1.91594e-05
1.9388e-05
1.9608e-05
1.98197e-05
2.00237e-05
2.02203e-05
2.041e-05
2.0593e-05
2.07694e-05
2.09391e-05
2.1101e-05
2.12535e-05
2.13931e-05
2.15149e-05
2.16116e-05
2.16745e-05
2.16948e-05
2.16657e-05
2.15854e-05
2.14581e-05
2.13028e-05
2.12789e-05
2.09922e-05
2.07335e-05
2.05235e-05
2.0377e-05
2.03097e-05
2.03211e-05
2.03843e-05
2.04602e-05
2.05138e-05
2.05225e-05
2.04876e-05
2.04426e-05
2.04299e-05
2.04594e-05
2.04948e-05
2.04907e-05
2.0444e-05
2.03987e-05
2.03973e-05
1.77338e-05
1.69211e-05
1.72631e-05
1.75771e-05
1.78718e-05
1.81523e-05
1.84209e-05
1.86784e-05
1.89257e-05
1.91632e-05
1.93913e-05
1.96107e-05
1.98215e-05
2.00244e-05
2.02197e-05
2.04077e-05
2.05886e-05
2.07624e-05
2.09288e-05
2.10866e-05
2.12339e-05
2.13674e-05
2.14819e-05
2.15709e-05
2.16262e-05
2.16399e-05
2.16061e-05
2.15235e-05
2.13965e-05
2.12436e-05
2.12304e-05
2.09477e-05
2.06956e-05
2.04968e-05
2.03655e-05
2.03124e-05
2.0332e-05
2.03972e-05
2.04711e-05
2.05209e-05
2.05251e-05
2.04877e-05
2.04434e-05
2.04327e-05
2.04619e-05
2.04934e-05
2.04839e-05
2.04346e-05
2.03906e-05
2.03913e-05
1.77354e-05
1.69232e-05
1.72659e-05
1.75803e-05
1.78753e-05
1.8156e-05
1.84247e-05
1.86823e-05
1.89295e-05
1.91669e-05
1.93948e-05
1.96137e-05
1.98241e-05
2.00263e-05
2.02207e-05
2.04075e-05
2.05869e-05
2.07587e-05
2.09225e-05
2.10768e-05
2.12196e-05
2.13473e-05
2.1455e-05
2.15365e-05
2.15844e-05
2.15918e-05
2.15537e-05
2.14692e-05
2.1343e-05
2.11934e-05
2.11907e-05
2.09145e-05
2.06714e-05
2.04849e-05
2.03677e-05
2.03261e-05
2.0351e-05
2.04157e-05
2.04859e-05
2.05306e-05
2.05301e-05
2.04901e-05
2.04462e-05
2.04369e-05
2.04653e-05
2.04923e-05
2.04775e-05
2.04258e-05
2.03834e-05
2.03859e-05
1.77358e-05
1.69245e-05
1.72679e-05
1.75828e-05
1.78782e-05
1.81592e-05
1.84281e-05
1.86859e-05
1.89333e-05
1.91707e-05
1.93987e-05
1.96176e-05
1.98278e-05
2.00298e-05
2.02238e-05
2.04101e-05
2.05886e-05
2.07593e-05
2.09211e-05
2.10728e-05
2.12117e-05
2.13344e-05
2.14358e-05
2.15102e-05
2.15511e-05
2.15525e-05
2.15103e-05
2.14243e-05
2.12994e-05
2.11537e-05
2.11609e-05
2.08937e-05
2.06614e-05
2.04876e-05
2.03829e-05
2.03501e-05
2.03774e-05
2.04392e-05
2.0504e-05
2.05427e-05
2.05372e-05
2.04948e-05
2.04511e-05
2.04426e-05
2.04694e-05
2.04916e-05
2.04716e-05
2.0418e-05
2.03772e-05
2.03811e-05
1.77357e-05
1.69253e-05
1.72695e-05
1.75848e-05
1.78806e-05
1.8162e-05
1.84312e-05
1.86894e-05
1.89371e-05
1.91748e-05
1.94031e-05
1.96223e-05
1.98328e-05
2.0035e-05
2.02293e-05
2.04157e-05
2.05942e-05
2.07644e-05
2.09252e-05
2.10749e-05
2.12109e-05
2.13291e-05
2.1425e-05
2.14929e-05
2.15273e-05
2.1523e-05
2.1477e-05
2.13898e-05
2.12665e-05
2.11252e-05
2.11413e-05
2.08849e-05
2.06649e-05
2.05037e-05
2.04099e-05
2.0383e-05
2.041e-05
2.04668e-05
2.05248e-05
2.05569e-05
2.05464e-05
2.05016e-05
2.0458e-05
2.04496e-05
2.04741e-05
2.04913e-05
2.04664e-05
2.04113e-05
2.03724e-05
2.03772e-05
1.77352e-05
1.6926e-05
1.72707e-05
1.75865e-05
1.78826e-05
1.81644e-05
1.8434e-05
1.86926e-05
1.89408e-05
1.91791e-05
1.94079e-05
1.96278e-05
1.9839e-05
2.00421e-05
2.02371e-05
2.04243e-05
2.06035e-05
2.0774e-05
2.09345e-05
2.10831e-05
2.12167e-05
2.13314e-05
2.14223e-05
2.14845e-05
2.15128e-05
2.15033e-05
2.14539e-05
2.13658e-05
2.12444e-05
2.11079e-05
2.11315e-05
2.08873e-05
2.06803e-05
2.05313e-05
2.04466e-05
2.04232e-05
2.04476e-05
2.04977e-05
2.05477e-05
2.05728e-05
2.05574e-05
2.05105e-05
2.04666e-05
2.04577e-05
2.04793e-05
2.04915e-05
2.04621e-05
2.04061e-05
2.0369e-05
2.03744e-05
1.77341e-05
1.6926e-05
1.72713e-05
1.75873e-05
1.78838e-05
1.81659e-05
1.84361e-05
1.86952e-05
1.89441e-05
1.91832e-05
1.9413e-05
1.96339e-05
1.98463e-05
2.00506e-05
2.0247e-05
2.04356e-05
2.0616e-05
2.07874e-05
2.09483e-05
2.10963e-05
2.12282e-05
2.13398e-05
2.14266e-05
2.14836e-05
2.15066e-05
2.14925e-05
2.14403e-05
2.13516e-05
2.12323e-05
2.11007e-05
2.11303e-05
2.08989e-05
2.07052e-05
2.05679e-05
2.04906e-05
2.04688e-05
2.04888e-05
2.05308e-05
2.0572e-05
2.05899e-05
2.05699e-05
2.05211e-05
2.04767e-05
2.04667e-05
2.0485e-05
2.04921e-05
2.04589e-05
2.04025e-05
2.03675e-05
2.03727e-05
1.77314e-05
1.69246e-05
1.72703e-05
1.75867e-05
1.78835e-05
1.81662e-05
1.8437e-05
1.8697e-05
1.89468e-05
1.91869e-05
1.94178e-05
1.96401e-05
1.98541e-05
2.00601e-05
2.02583e-05
2.04487e-05
2.06308e-05
2.08035e-05
2.09651e-05
2.11129e-05
2.12435e-05
2.13526e-05
2.14356e-05
2.14883e-05
2.15068e-05
2.1489e-05
2.14344e-05
2.13456e-05
2.12287e-05
2.11022e-05
2.11362e-05
2.09178e-05
2.07372e-05
2.06107e-05
2.05397e-05
2.0518e-05
2.05323e-05
2.05652e-05
2.05972e-05
2.06078e-05
2.05836e-05
2.05331e-05
2.04881e-05
2.04765e-05
2.04911e-05
2.04934e-05
2.0457e-05
2.04009e-05
2.03678e-05
2.03724e-05
1.77264e-05
1.69212e-05
1.72674e-05
1.75841e-05
1.78815e-05
1.81649e-05
1.84365e-05
1.86974e-05
1.89483e-05
1.91897e-05
1.9422e-05
1.96459e-05
1.98617e-05
2.00697e-05
2.027e-05
2.04625e-05
2.06465e-05
2.08207e-05
2.09831e-05
2.11307e-05
2.126e-05
2.13668e-05
2.14468e-05
2.14958e-05
2.15108e-05
2.14902e-05
2.14343e-05
2.13461e-05
2.12319e-05
2.11104e-05
2.11475e-05
2.09416e-05
2.07735e-05
2.0657e-05
2.05914e-05
2.05689e-05
2.05769e-05
2.06003e-05
2.06226e-05
2.0626e-05
2.0598e-05
2.05462e-05
2.05004e-05
2.04867e-05
2.04974e-05
2.04954e-05
2.04566e-05
2.04012e-05
2.03702e-05
2.03736e-05
1.77184e-05
1.69153e-05
1.72622e-05
1.75795e-05
1.78776e-05
1.81618e-05
1.84343e-05
1.86963e-05
1.89483e-05
1.91911e-05
1.9425e-05
1.96506e-05
1.98683e-05
2.00784e-05
2.02809e-05
2.04755e-05
2.06613e-05
2.08368e-05
2.09997e-05
2.11469e-05
2.12749e-05
2.13795e-05
2.14568e-05
2.15031e-05
2.15157e-05
2.14935e-05
2.14374e-05
2.13506e-05
2.12398e-05
2.11233e-05
2.11624e-05
2.09683e-05
2.08118e-05
2.07045e-05
2.06435e-05
2.062e-05
2.06216e-05
2.06354e-05
2.06479e-05
2.06441e-05
2.06127e-05
2.056e-05
2.05133e-05
2.04972e-05
2.05041e-05
2.04982e-05
2.04579e-05
2.04039e-05
2.03748e-05
2.03766e-05
1.77089e-05
1.69084e-05
1.7256e-05
1.75737e-05
1.78722e-05
1.81571e-05
1.84305e-05
1.86934e-05
1.89466e-05
1.91907e-05
1.94261e-05
1.96535e-05
1.98731e-05
2.00851e-05
2.02896e-05
2.04859e-05
2.06731e-05
2.08493e-05
2.10122e-05
2.11585e-05
2.12848e-05
2.13873e-05
2.14624e-05
2.15068e-05
2.15184e-05
2.14962e-05
2.14412e-05
2.1357e-05
2.12501e-05
2.1139e-05
2.11796e-05
2.09962e-05
2.085e-05
2.07511e-05
2.06944e-05
2.067e-05
2.06655e-05
2.06699e-05
2.06728e-05
2.06619e-05
2.06273e-05
2.05739e-05
2.05264e-05
2.0508e-05
2.05111e-05
2.0502e-05
2.0461e-05
2.04088e-05
2.03817e-05
2.03815e-05
1.76998e-05
1.69016e-05
1.72493e-05
1.7567e-05
1.78656e-05
1.81508e-05
1.84248e-05
1.86885e-05
1.89427e-05
1.91879e-05
1.94247e-05
1.96535e-05
1.98747e-05
2.00884e-05
2.02943e-05
2.04918e-05
2.06796e-05
2.08557e-05
2.10177e-05
2.11625e-05
2.12868e-05
2.13871e-05
2.14605e-05
2.15042e-05
2.15162e-05
2.14956e-05
2.14434e-05
2.13631e-05
2.12611e-05
2.11556e-05
2.11977e-05
2.10238e-05
2.08867e-05
2.07952e-05
2.07426e-05
2.07176e-05
2.07079e-05
2.07035e-05
2.06969e-05
2.06791e-05
2.06415e-05
2.05877e-05
2.05396e-05
2.05187e-05
2.05183e-05
2.05068e-05
2.0466e-05
2.04162e-05
2.03909e-05
2.03885e-05
1.76907e-05
1.68938e-05
1.7241e-05
1.75582e-05
1.78569e-05
1.81423e-05
1.84167e-05
1.8681e-05
1.89359e-05
1.91821e-05
1.942e-05
1.96499e-05
1.98722e-05
2.00869e-05
2.02935e-05
2.04912e-05
2.06786e-05
2.08536e-05
2.10138e-05
2.11563e-05
2.12781e-05
2.13766e-05
2.1449e-05
2.14931e-05
2.1507e-05
2.14898e-05
2.14422e-05
2.13671e-05
2.1271e-05
2.11716e-05
2.12159e-05
2.10504e-05
2.0921e-05
2.08358e-05
2.07871e-05
2.07622e-05
2.07481e-05
2.07359e-05
2.07202e-05
2.06955e-05
2.06549e-05
2.06009e-05
2.05525e-05
2.05294e-05
2.0526e-05
2.05128e-05
2.04729e-05
2.04261e-05
2.04027e-05
2.0398e-05
1.76789e-05
1.68833e-05
1.72296e-05
1.75464e-05
1.7845e-05
1.81307e-05
1.84055e-05
1.86703e-05
1.89259e-05
1.91727e-05
1.94112e-05
1.96417e-05
1.98645e-05
2.00794e-05
2.02857e-05
2.04826e-05
2.06684e-05
2.08412e-05
2.09986e-05
2.11382e-05
2.12575e-05
2.13543e-05
2.14266e-05
2.14724e-05
2.14898e-05
2.14776e-05
2.1436e-05
2.13678e-05
2.12785e-05
2.1186e-05
2.12335e-05
2.10753e-05
2.09523e-05
2.08724e-05
2.08272e-05
2.08029e-05
2.07857e-05
2.07667e-05
2.07425e-05
2.07109e-05
2.06673e-05
2.06134e-05
2.05649e-05
2.05399e-05
2.0534e-05
2.05199e-05
2.0482e-05
2.04385e-05
2.0417e-05
2.041e-05
1.76639e-05
1.68698e-05
1.72154e-05
1.75319e-05
1.78305e-05
1.81164e-05
1.83914e-05
1.86565e-05
1.89123e-05
1.91593e-05
1.93979e-05
1.96285e-05
1.98509e-05
2.0065e-05
2.027e-05
2.04648e-05
2.0648e-05
2.08175e-05
2.09714e-05
2.11077e-05
2.12245e-05
2.13203e-05
2.13933e-05
2.14419e-05
2.14641e-05
2.14584e-05
2.14244e-05
2.13642e-05
2.1283e-05
2.11979e-05
2.12504e-05
2.10984e-05
2.09806e-05
2.09049e-05
2.08627e-05
2.08395e-05
2.08202e-05
2.07955e-05
2.07635e-05
2.07251e-05
2.06786e-05
2.06248e-05
2.05766e-05
2.05503e-05
2.05424e-05
2.05283e-05
2.04931e-05
2.04533e-05
2.04338e-05
2.04249e-05
1.76467e-05
1.68546e-05
1.71995e-05
1.75156e-05
1.7814e-05
1.80998e-05
1.83748e-05
1.86398e-05
1.88954e-05
1.91421e-05
1.93802e-05
1.96098e-05
1.9831e-05
2.00433e-05
2.0246e-05
2.04378e-05
2.06173e-05
2.07829e-05
2.09328e-05