/*--------------------------------*- C++ -*----------------------------------*\
  =========                 |
  \\      /  F ield         | OpenFOAM: The Open Source CFD Toolbox
   \\    /   O peration     | Website:  https://openfoam.org
    \\  /    A nd           | Version:  9
     \\/     M anipulation  |
\*---------------------------------------------------------------------------*/
FoamFile
{
    format      ascii;
    class       surfaceVectorField;
    location    "0.08";
    object      Uf;
}
// * * * * * * * * * * * * * * * * * * * * * * * * * * * * * * * * * * * * * //

dimensions      [0 1 -1 0 0 0 0];

internalField   nonuniform List<vector> 
9850
(
(-0.194837 0 -0.149724)
(-0.198191 0 -0.13424)
(-0.192671 0 -0.179045)
(-0.19554 0 -0.172308)
(-0.190124 0 -0.195804)
(-0.192996 0 -0.193764)
(-0.187206 0 -0.206898)
(-0.190163 0 -0.206375)
(-0.183843 0 -0.216669)
(-0.186951 0 -0.216628)
(-0.179946 0 -0.226552)
(-0.183265 0 -0.226774)
(-0.175415 0 -0.236936)
(-0.179009 0 -0.237407)
(-0.17014 0 -0.247942)
(-0.174077 0 -0.2487)
(-0.163998 0 -0.259604)
(-0.168355 0 -0.260709)
(-0.15686 0 -0.271895)
(-0.161725 0 -0.273428)
(-0.148599 0 -0.284715)
(-0.154068 0 -0.286778)
(-0.139107 0 -0.297858)
(-0.145283 0 -0.300578)
(-0.128314 0 -0.310975)
(-0.135309 0 -0.314508)
(-0.11622 0 -0.323532)
(-0.124145 0 -0.328065)
(-0.10292 0 -0.33478)
(-0.111884 0 -0.340534)
(-0.088638 0 -0.34375)
(-0.0987348 0 -0.35097)
(-0.0737372 0 -0.34927)
(-0.0850409 0 -0.358219)
(-0.0587213 0 -0.350039)
(-0.0712777 0 -0.36098)
(-0.0442046 0 -0.344734)
(-0.0580232 0 -0.357906)
(-0.0308647 0 -0.332145)
(-0.0459081 0 -0.34774)
(-0.0193841 0 -0.311292)
(-0.035556 0 -0.329441)
(-0.0103999 0 -0.281526)
(-0.0275274 0 -0.302278)
(-0.0044862 0 -0.24257)
(-0.0222934 0 -0.265878)
(-0.00214189 0 -0.194532)
(-0.0202391 0 -0.220228)
(-0.00382481 0 -0.137893)
(-0.0216884 0 -0.165673)
(-0.0099743 0 -0.0734472)
(-0.0269549 0 -0.102884)
(-0.0210174 0 -0.00211814)
(-0.0363732 0 -0.0327961)
(-0.0373057 0 0.0755683)
(-0.0502806 0 0.0436537)
(-0.058791 0 0.160141)
(-0.0689275 0 0.126178)
(-0.0839951 0 0.251978)
(-0.0919527 0 0.215427)
(-0.11247 0 0.361368)
(-0.118475 0 0.31793)
(-0.131378 0 0.446266)
(-0.140603 0 0.419229)
(-0.139021 0 0.481263)
(-0.149365 0 0.480215)
(-0.140202 0 0.465436)
(-0.148342 0 0.482979)
(-0.139906 0 0.423659)
(-0.144485 0 0.44608)
(-0.140631 0 0.376155)
(-0.141863 0 0.399868)
(-0.144357 0 0.327832)
(-0.14232 0 0.353055)
(-0.152193 0 0.287421)
(-0.147486 0 0.306013)
(-0.162143 0 0.27042)
(-0.157029 0 0.274528)
(-0.170066 0 0.276797)
(-0.166912 0 0.27218)
(-0.174169 0 0.288488)
(-0.172788 0 0.285464)
(-0.178005 0 0.297072)
(-0.175437 0 0.294332)
(-0.187191 0 0.314693)
(-0.181164 0 0.304386)
(-0.202262 0 0.348358)
(-0.194411 0 0.33318)
(-0.217119 0 0.380433)
(-0.211085 0 0.373303)
(-0.226163 0 0.388809)
(-0.222946 0 0.395095)
(-0.230819 0 0.377842)
(-0.2277 0 0.386669)
(-0.237278 0 0.375546)
(-0.231201 0 0.372431)
(-0.248754 0 0.399396)
(-0.239896 0 0.384351)
(-0.25317 0 0.422247)
(-0.198358 0 -0.156017)
(-0.20279 0 -0.140793)
(-0.195887 0 -0.186581)
(-0.199282 0 -0.179994)
(-0.193103 0 -0.204083)
(-0.196538 0 -0.202023)
(-0.189987 0 -0.215896)
(-0.193663 0 -0.215183)
(-0.186462 0 -0.226515)
(-0.190438 0 -0.22613)
(-0.182432 0 -0.237392)
(-0.186761 0 -0.237131)
(-0.177792 0 -0.248912)
(-0.182543 0 -0.248772)
(-0.172436 0 -0.261187)
(-0.177688 0 -0.261209)
(-0.16625 0 -0.274236)
(-0.172094 0 -0.274481)
(-0.159127 0 -0.288001)
(-0.165667 0 -0.288546)
(-0.150976 0 -0.302323)
(-0.158326 0 -0.303271)
(-0.14174 0 -0.316912)
(-0.150023 0 -0.318392)
(-0.131424 0 -0.331299)
(-0.140765 0 -0.333477)
(-0.120118 0 -0.344807)
(-0.13064 0 -0.347886)
(-0.108021 0 -0.356529)
(-0.119837 0 -0.36075)
(-0.0954617 0 -0.365342)
(-0.108665 0 -0.37098)
(-0.0828895 0 -0.369966)
(-0.0975475 0 -0.377314)
(-0.0708523 0 -0.369053)
(-0.0870001 0 -0.378409)
(-0.0599456 0 -0.361319)
(-0.0775824 0 -0.372961)
(-0.05075 0 -0.345672)
(-0.069832 0 -0.359841)
(-0.0437728 0 -0.321307)
(-0.0642054 0 -0.338194)
(-0.0394133 0 -0.287759)
(-0.0610346 0 -0.307492)
(-0.0379624 0 -0.244909)
(-0.0605205 0 -0.267532)
(-0.0396318 0 -0.192971)
(-0.0627615 0 -0.218414)
(-0.0446061 0 -0.132469)
(-0.0678056 0 -0.160519)
(-0.0530903 0 -0.0642112)
(-0.0757178 0 -0.0945032)
(-0.0653344 0 0.0108567)
(-0.0866263 0 -0.0212662)
(-0.0815588 0 0.092024)
(-0.100689 0 0.0582186)
(-0.101611 0 0.179104)
(-0.117989 0 0.143339)
(-0.123894 0 0.270889)
(-0.138009 0 0.233606)
(-0.147041 0 0.375688)
(-0.159104 0 0.333361)
(-0.159092 0 0.453127)
(-0.173606 0 0.427263)
(-0.158868 0 0.481907)
(-0.173698 0 0.480066)
(-0.152412 0 0.463608)
(-0.163949 0 0.478675)
(-0.146258 0 0.422277)
(-0.152898 0 0.441978)
(-0.143484 0 0.376759)
(-0.145755 0 0.398018)
(-0.145426 0 0.331229)
(-0.143943 0 0.35435)
(-0.152325 0 0.293115)
(-0.14797 0 0.310612)
(-0.161789 0 0.276284)
(-0.156828 0 0.280837)
(-0.169616 0 0.280843)
(-0.166379 0 0.277398)
(-0.174056 0 0.291304)
(-0.172348 0 0.288424)
(-0.178616 0 0.301643)
(-0.175596 0 0.297373)
(-0.188427 0 0.322871)
(-0.182189 0 0.310926)
(-0.203273 0 0.358124)
(-0.195732 0 0.343078)
(-0.21692 0 0.387962)
(-0.211506 0 0.382401)
(-0.2245 0 0.392951)
(-0.221771 0 0.400148)
(-0.22816 0 0.381252)
(-0.225259 0 0.389109)
(-0.233964 0 0.381238)
(-0.228152 0 0.3763)
(-0.24445 0 0.407225)
(-0.2362 0 0.391341)
(-0.248108 0 0.43003)
(-0.202575 0 -0.16371)
(-0.20761 0 -0.151375)
(-0.199905 0 -0.194832)
(-0.20327 0 -0.1883)
(-0.197193 0 -0.212762)
(-0.200748 0 -0.210067)
(-0.194204 0 -0.225124)
(-0.19824 0 -0.223634)
(-0.190829 0 -0.23646)
(-0.19536 0 -0.235227)
(-0.186978 0 -0.248217)
(-0.192036 0 -0.247027)
(-0.182561 0 -0.260761)
(-0.188205 0 -0.259592)
(-0.177489 0 -0.274179)
(-0.183796 0 -0.273055)
(-0.171677 0 -0.288453)
(-0.17874 0 -0.287421)
(-0.165056 0 -0.303468)
(-0.172984 0 -0.302599)
(-0.157588 0 -0.318988)
(-0.166501 0 -0.318381)
(-0.149287 0 -0.334613)
(-0.159311 0 -0.334404)
(-0.14024 0 -0.349745)
(-0.151501 0 -0.350113)
(-0.13063 0 -0.363559)
(-0.143245 0 -0.364731)
(-0.120751 0 -0.37501)
(-0.134818 0 -0.37726)
(-0.111004 0 -0.382872)
(-0.126597 0 -0.386509)
(-0.101877 0 -0.385823)
(-0.119039 0 -0.391177)
(-0.0938969 0 -0.38256)
(-0.11264 0 -0.389963)
(-0.0875693 0 -0.371929)
(-0.107875 0 -0.381695)
(-0.0833138 0 -0.353032)
(-0.105133 0 -0.36544)
(-0.0814174 0 -0.325279)
(-0.104667 0 -0.340573)
(-0.0820192 0 -0.288397)
(-0.106569 0 -0.306772)
(-0.0851328 0 -0.242393)
(-0.110781 0 -0.263982)
(-0.0906983 0 -0.187529)
(-0.11714 0 -0.212365)
(-0.0986458 0 -0.124311)
(-0.125442 0 -0.152284)
(-0.108953 0 -0.053482)
(-0.135512 0 -0.0843221)
(-0.121678 0 0.0240367)
(-0.147261 0 -0.00928369)
(-0.136826 0 0.107364)
(-0.1606 0 0.0718171)
(-0.15399 0 0.195585)
(-0.175317 0 0.158028)
(-0.17131 0 0.285986)
(-0.190597 0 0.247737)
(-0.186193 0 0.384937)
(-0.203848 0 0.343283)
(-0.188684 0 0.454232)
(-0.208025 0 0.428924)
(-0.178886 0 0.476868)
(-0.197526 0 0.473533)
(-0.164186 0 0.457071)
(-0.178381 0 0.468875)
(-0.152208 0 0.417735)
(-0.160327 0 0.433992)
(-0.146145 0 0.375616)
(-0.149089 0 0.393977)
(-0.146466 0 0.333731)
(-0.14534 0 0.354564)
(-0.152476 0 0.298326)
(-0.148398 0 0.314619)
(-0.16141 0 0.281939)
(-0.156594 0 0.286793)
(-0.169095 0 0.284969)
(-0.165772 0 0.282521)
(-0.173888 0 0.294487)
(-0.171829 0 0.29162)
(-0.17919 0 0.306656)
(-0.175718 0 0.300907)
(-0.189537 0 0.331138)
(-0.183143 0 0.317824)
(-0.203999 0 0.367361)
(-0.196815 0 0.352719)
(-0.216358 0 0.394591)
(-0.211545 0 0.39064)
(-0.222546 0 0.396307)
(-0.220241 0 0.404274)
(-0.225329 0 0.384154)
(-0.222614 0 0.390964)
(-0.230528 0 0.3864)
(-0.224997 0 0.379766)
(-0.23999 0 0.414151)
(-0.232404 0 0.397649)
(-0.242933 0 0.436712)
(-0.206507 0 -0.174802)
(-0.212216 0 -0.163887)
(-0.204108 0 -0.202838)
(-0.208139 0 -0.195765)
(-0.201919 0 -0.220474)
(-0.206155 0 -0.216557)
(-0.199482 0 -0.233349)
(-0.204179 0 -0.230525)
(-0.196653 0 -0.245428)
(-0.201842 0 -0.242852)
(-0.193363 0 -0.258041)
(-0.199111 0 -0.255481)
(-0.189556 0 -0.271522)
(-0.195947 0 -0.268919)
(-0.18518 0 -0.285926)
(-0.19231 0 -0.283273)
(-0.1802 0 -0.301189)
(-0.188174 0 -0.29851)
(-0.174601 0 -0.317129)
(-0.183536 0 -0.314482)
(-0.168414 0 -0.333417)
(-0.17843 0 -0.330899)
(-0.16173 0 -0.349539)
(-0.172946 0 -0.347297)
(-0.154719 0 -0.36477)
(-0.167246 0 -0.363006)
(-0.147643 0 -0.378162)
(-0.161575 0 -0.377136)
(-0.140857 0 -0.388577)
(-0.156262 0 -0.3886)
(-0.134791 0 -0.394753)
(-0.151706 0 -0.396173)
(-0.129911 0 -0.395406)
(-0.148342 0 -0.398589)
(-0.126663 0 -0.389362)
(-0.146591 0 -0.394666)
(-0.125412 0 -0.375664)
(-0.146799 0 -0.383421)
(-0.126387 0 -0.353644)
(-0.149181 0 -0.364158)
(-0.12965 0 -0.322937)
(-0.15379 0 -0.336479)
(-0.135101 0 -0.283434)
(-0.160503 0 -0.300253)
(-0.142511 0 -0.235229)
(-0.169045 0 -0.255535)
(-0.151577 0 -0.178584)
(-0.179033 0 -0.202511)
(-0.161994 0 -0.113934)
(-0.190035 0 -0.14149)
(-0.173497 0 -0.0419303)
(-0.201633 0 -0.0729604)
(-0.185904 0 0.0365605)
(-0.213466 0 0.00239986)
(-0.19888 0 0.120456)
(-0.225125 0 0.0834661)
(-0.211653 0 0.208096)
(-0.236003 0 0.16896)
(-0.222086 0 0.295503)
(-0.24492 0 0.256249)
(-0.22626 0 0.387371)
(-0.248391 0 0.346065)
(-0.217271 0 0.448319)
(-0.240428 0 0.422932)
(-0.197047 0 0.465608)
(-0.218447 0 0.460051)
(-0.174249 0 0.44584)
(-0.190137 0 0.453676)
(-0.157027 0 0.410261)
(-0.16592 0 0.422511)
(-0.148218 0 0.372938)
(-0.151406 0 0.388104)
(-0.147255 0 0.335456)
(-0.146252 0 0.353921)
(-0.152522 0 0.303085)
(-0.148614 0 0.318131)
(-0.160953 0 0.287371)
(-0.156247 0 0.292414)
(-0.168495 0 0.289169)
(-0.165065 0 0.287548)
(-0.173663 0 0.29804)
(-0.171229 0 0.295065)
(-0.179695 0 0.312078)
(-0.175785 0 0.304928)
(-0.190463 0 0.339409)
(-0.183968 0 0.325003)
(-0.204388 0 0.376002)
(-0.197594 0 0.362002)
(-0.215423 0 0.400328)
(-0.211172 0 0.397997)
(-0.220325 0 0.398938)
(-0.218377 0 0.407542)
(-0.222361 0 0.386586)
(-0.219804 0 0.392321)
(-0.227005 0 0.391028)
(-0.221775 0 0.382862)
(-0.235456 0 0.420222)
(-0.228543 0 0.403283)
(-0.23774 0 0.442355)
(-0.212223 0 -0.184396)
(-0.217935 0 -0.173471)
(-0.210265 0 -0.20916)
(-0.214972 0 -0.201856)
(-0.20852 0 -0.226379)
(-0.21344 0 -0.221732)
(-0.206599 0 -0.239797)
(-0.211879 0 -0.235957)
(-0.204369 0 -0.252641)
(-0.210076 0 -0.248863)
(-0.201779 0 -0.266058)
(-0.208013 0 -0.262136)
(-0.1988 0 -0.280336)
(-0.205664 0 -0.276217)
(-0.195416 0 -0.295497)
(-0.203019 0 -0.291174)
(-0.191637 0 -0.311423)
(-0.200091 0 -0.306925)
(-0.187504 0 -0.327862)
(-0.196925 0 -0.323253)
(-0.183111 0 -0.344392)
(-0.193611 0 -0.339787)
(-0.178616 0 -0.360395)
(-0.190294 0 -0.355968)
(-0.174251 0 -0.375044)
(-0.187189 0 -0.371032)
(-0.170325 0 -0.387313)
(-0.184578 0 -0.384018)
(-0.16721 0 -0.396029)
(-0.182804 0 -0.393807)
(-0.165309 0 -0.399966)
(-0.182237 0 -0.399201)
(-0.165014 0 -0.397953)
(-0.183241 0 -0.399037)
(-0.166649 0 -0.388996)
(-0.186123 0 -0.392298)
(-0.170419 0 -0.372364)
(-0.191083 0 -0.378217)
(-0.17637 0 -0.347624)
(-0.198171 0 -0.356328)
(-0.184371 0 -0.314609)
(-0.207273 0 -0.326442)
(-0.194128 0 -0.273346)
(-0.218101 0 -0.288583)
(-0.205218 0 -0.223981)
(-0.230213 0 -0.242892)
(-0.217131 0 -0.166748)
(-0.243049 0 -0.189563)
(-0.22933 0 -0.102003)
(-0.255971 0 -0.12885)
(-0.241291 0 -0.0303013)
(-0.26831 0 -0.0611452)
(-0.252442 0 0.0475143)
(-0.279375 0 0.0129008)
(-0.262153 0 0.130132)
(-0.288377 0 0.0921837)
(-0.269166 0 0.21524)
(-0.294284 0 0.174961)
(-0.271208 0 0.297985)
(-0.295607 0 0.257915)
(-0.26315 0 0.381814)
(-0.288195 0 0.340694)
(-0.241913 0 0.434805)
(-0.267498 0 0.408773)
(-0.211486 0 0.448209)
(-0.234369 0 0.439766)
(-0.181525 0 0.430399)
(-0.198044 0 0.433702)
(-0.160131 0 0.400384)
(-0.169058 0 0.408249)
(-0.149381 0 0.369104)
(-0.152368 0 0.380937)
(-0.147601 0 0.336607)
(-0.146473 0 0.352735)
(-0.15235 0 0.307468)
(-0.148482 0 0.321297)
(-0.160361 0 0.292597)
(-0.155706 0 0.297754)
(-0.167793 0 0.293449)
(-0.164222 0 0.292503)
(-0.173359 0 0.301957)
(-0.170533 0 0.298775)
(-0.180084 0 0.317857)
(-0.175761 0 0.309412)
(-0.191139 0 0.347599)
(-0.184598 0 0.332373)
(-0.204396 0 0.384)
(-0.198004 0 0.370841)
(-0.214115 0 0.405216)
(-0.210369 0 0.404476)
(-0.217872 0 0.400933)
(-0.216202 0 0.410046)
(-0.219296 0 0.388609)
(-0.216865 0 0.39327)
(-0.223437 0 0.395135)
(-0.21852 0 0.385622)
(-0.23091 0 0.42544)
(-0.22466 0 0.408266)
(-0.232583 0 0.447022)
(-0.21971 0 -0.190307)
(-0.224763 0 -0.179281)
(-0.218234 0 -0.214004)
(-0.222767 0 -0.206448)
(-0.21686 0 -0.231035)
(-0.221652 0 -0.225808)
(-0.215398 0 -0.24478)
(-0.22057 0 -0.240091)
(-0.213773 0 -0.258098)
(-0.219402 0 -0.253242)
(-0.211961 0 -0.272004)
(-0.218129 0 -0.266794)
(-0.209955 0 -0.286731)
(-0.216752 0 -0.281129)
(-0.207776 0 -0.302249)
(-0.215293 0 -0.296264)
(-0.20547 0 -0.31838)
(-0.213802 0 -0.312058)
(-0.203127 0 -0.334792)
(-0.212364 0 -0.328226)
(-0.200888 0 -0.350981)
(-0.211112 0 -0.344317)
(-0.198954 0 -0.366245)
(-0.210229 0 -0.359699)
(-0.197586 0 -0.379693)
(-0.209952 0 -0.373547)
(-0.197097 0 -0.39027)
(-0.210564 0 -0.384875)
(-0.197828 0 -0.396834)
(-0.212374 0 -0.392586)
(-0.20011 0 -0.398249)
(-0.215685 0 -0.395565)
(-0.204228 0 -0.3935)
(-0.220759 0 -0.392783)
(-0.210366 0 -0.381793)
(-0.227772 0 -0.383409)
(-0.21858 0 -0.362616)
(-0.236786 0 -0.36688)
(-0.228764 0 -0.335743)
(-0.247719 0 -0.342926)
(-0.240648 0 -0.301172)
(-0.260332 0 -0.311534)
(-0.2538 0 -0.259039)
(-0.274228 0 -0.272855)
(-0.267645 0 -0.209534)
(-0.288852 0 -0.227107)
(-0.2815 0 -0.152872)
(-0.303504 0 -0.174505)
(-0.294598 0 -0.0893438)
(-0.31736 0 -0.115279)
(-0.306113 0 -0.0194428)
(-0.329501 0 -0.0497707)
(-0.31513 0 0.0559616)
(-0.338904 0 0.0213923)
(-0.320555 0 0.135348)
(-0.344378 0 0.0970532)
(-0.320813 0 0.215967)
(-0.344505 0 0.175182)
(-0.31369 0 0.292584)
(-0.337661 0 0.252104)
(-0.293106 0 0.36789)
(-0.319343 0 0.326971)
(-0.260156 0 0.413901)
(-0.28665 0 0.386806)
(-0.220811 0 0.425364)
(-0.243875 0 0.413537)
(-0.185296 0 0.411613)
(-0.201431 0 0.410026)
(-0.161148 0 0.388837)
(-0.169429 0 0.39215)
(-0.149412 0 0.36459)
(-0.151794 0 0.373113)
(-0.147354 0 0.33744)
(-0.145866 0 0.351362)
(-0.151855 0 0.311596)
(-0.147893 0 0.324298)
(-0.159573 0 0.29767)
(-0.154895 0 0.3029)
(-0.16696 0 0.297837)
(-0.163206 0 0.297427)
(-0.172946 0 0.306235)
(-0.169715 0 0.302766)
(-0.180304 0 0.323932)
(-0.175604 0 0.314317)
(-0.191502 0 0.355619)
(-0.184968 0 0.339838)
(-0.203987 0 0.391322)
(-0.197996 0 0.379165)
(-0.212441 0 0.409314)
(-0.209129 0 0.410112)
(-0.215214 0 0.402392)
(-0.213744 0 0.411895)
(-0.216165 0 0.390295)
(-0.213827 0 0.393904)
(-0.219855 0 0.398768)
(-0.215253 0 0.388083)
(-0.226397 0 0.42987)
(-0.220789 0 0.412627)
(-0.227513 0 0.450791)
(-0.227199 0 -0.194644)
(-0.231463 0 -0.183562)
(-0.22622 0 -0.217707)
(-0.230122 0 -0.209493)
(-0.225402 0 -0.234461)
(-0.229599 0 -0.228235)
(-0.224608 0 -0.248192)
(-0.229217 0 -0.242335)
(-0.223795 0 -0.261583)
(-0.228872 0 -0.255434)
(-0.222961 0 -0.275557)
(-0.228566 0 -0.268936)
(-0.222134 0 -0.290289)
(-0.228329 0 -0.283156)
(-0.221365 0 -0.305689)
(-0.228217 0 -0.298058)
(-0.220743 0 -0.321512)
(-0.228313 0 -0.313444)
(-0.220393 0 -0.33736)
(-0.228737 0 -0.328969)
(-0.220487 0 -0.352658)
(-0.229646 0 -0.344127)
(-0.221243 0 -0.366655)
(-0.231238 0 -0.35824)
(-0.222918 0 -0.378438)
(-0.233744 0 -0.370467)
(-0.225791 0 -0.386976)
(-0.237413 0 -0.37984)
(-0.230132 0 -0.391201)
(-0.242489 0 -0.385331)
(-0.236175 0 -0.390103)
(-0.249184 0 -0.385936)
(-0.244082 0 -0.382833)
(-0.257641 0 -0.380774)
(-0.25391 0 -0.368781)
(-0.267916 0 -0.36918)
(-0.265588 0 -0.347622)
(-0.279952 0 -0.35076)
(-0.278906 0 -0.319295)
(-0.29357 0 -0.3254)
(-0.293501 0 -0.283935)
(-0.308454 0 -0.293225)
(-0.308853 0 -0.241775)
(-0.324142 0 -0.254495)
(-0.324287 0 -0.193061)
(-0.340011 0 -0.209511)
(-0.338971 0 -0.138024)
(-0.355267 0 -0.158545)
(-0.35193 0 -0.0769424)
(-0.368935 0 -0.101851)
(-0.362053 0 -0.0102892)
(-0.379871 0 -0.0397718)
(-0.368074 0 0.0610336)
(-0.386761 0 0.0270625)
(-0.368524 0 0.135377)
(-0.388076 0 0.0974568)
(-0.361642 0 0.20982)
(-0.382139 0 0.169292)
(-0.345499 0 0.279259)
(-0.367371 0 0.238933)
(-0.313391 0 0.346124)
(-0.339225 0 0.305566)
(-0.270466 0 0.386604)
(-0.296455 0 0.35819)
(-0.224332 0 0.398301)
(-0.246427 0 0.38278)
(-0.185296 0 0.390627)
(-0.2002 0 0.384002)
(-0.159951 0 0.376466)
(-0.167041 0 0.375253)
(-0.148211 0 0.359913)
(-0.14966 0 0.365287)
(-0.146414 0 0.338238)
(-0.144366 0 0.350165)
(-0.150957 0 0.315616)
(-0.14677 0 0.327326)
(-0.158538 0 0.302668)
(-0.153756 0 0.307954)
(-0.165963 0 0.302365)
(-0.16198 0 0.302377)
(-0.172387 0 0.310856)
(-0.168747 0 0.307049)
(-0.1803 0 0.33023)
(-0.175268 0 0.319592)
(-0.191498 0 0.36339)
(-0.185019 0 0.347303)
(-0.20314 0 0.397961)
(-0.197534 0 0.386926)
(-0.210413 0 0.412701)
(-0.20746 0 0.414961)
(-0.212377 0 0.403417)
(-0.211032 0 0.413204)
(-0.212989 0 0.391706)
(-0.210714 0 0.394312)
(-0.216286 0 0.401959)
(-0.21199 0 0.39028)
(-0.221953 0 0.433571)
(-0.216955 0 0.416405)
(-0.222571 0 0.453749)
(-0.233884 0 -0.197817)
(-0.237313 0 -0.186477)
(-0.233517 0 -0.219582)
(-0.236788 0 -0.210636)
(-0.233437 0 -0.235766)
(-0.236982 0 -0.228472)
(-0.233494 0 -0.249248)
(-0.23739 0 -0.242173)
(-0.233655 0 -0.262447)
(-0.237941 0 -0.254999)
(-0.233947 0 -0.276177)
(-0.238666 0 -0.268188)
(-0.234425 0 -0.290551)
(-0.239621 0 -0.281986)
(-0.235174 0 -0.305428)
(-0.240886 0 -0.296309)
(-0.236309 0 -0.320512)
(-0.24257 0 -0.310916)
(-0.23798 0 -0.335355)
(-0.244811 0 -0.325422)
(-0.240369 0 -0.349349)
(-0.247773 0 -0.339293)
(-0.243685 0 -0.361731)
(-0.251644 0 -0.351844)
(-0.24815 0 -0.371609)
(-0.256625 0 -0.362256)
(-0.25398 0 -0.378016)
(-0.262906 0 -0.36962)
(-0.261359 0 -0.379988)
(-0.270649 0 -0.373)
(-0.270411 0 -0.376647)
(-0.279963 0 -0.371515)
(-0.281179 0 -0.367293)
(-0.290882 0 -0.364418)
(-0.293612 0 -0.351467)
(-0.30335 0 -0.351179)
(-0.307545 0 -0.328985)
(-0.31722 0 -0.331527)
(-0.322698 0 -0.299911)
(-0.332242 0 -0.30546)
(-0.338658 0 -0.264492)
(-0.348055 0 -0.273203)
(-0.354862 0 -0.223058)
(-0.364172 0 -0.235116)
(-0.370573 0 -0.175937)
(-0.379943 0 -0.191599)
(-0.38486 0 -0.123426)
(-0.394525 0 -0.143016)
(-0.396588 0 -0.0658428)
(-0.406852 0 -0.0896997)
(-0.404412 0 -0.0036829)
(-0.415628 0 -0.0320434)
(-0.406794 0 0.0621415)
(-0.419332 0 0.0293058)
(-0.402032 0 0.129983)
(-0.41623 0 0.0931821)
(-0.388347 0 0.197042)
(-0.404543 0 0.15758)
(-0.364241 0 0.258794)
(-0.382881 0 0.219267)
(-0.322715 0 0.317828)
(-0.346882 0 0.277882)
(-0.272427 0 0.354501)
(-0.296782 0 0.324664)
(-0.222102 0 0.36857)
(-0.24236 0 0.349231)
(-0.181696 0 0.368688)
(-0.194765 0 0.357064)
(-0.156646 0 0.364115)
(-0.162173 0 0.358553)
(-0.145789 0 0.355567)
(-0.146077 0 0.358048)
(-0.144741 0 0.339273)
(-0.141978 0 0.349466)
(-0.149601 0 0.31968)
(-0.145076 0 0.330566)
(-0.157214 0 0.307675)
(-0.152249 0 0.31303)
(-0.16477 0 0.30707)
(-0.160516 0 0.307414)
(-0.171645 0 0.315795)
(-0.1676 0 0.311633)
(-0.180021 0 0.336674)
(-0.174706 0 0.325176)
(-0.191087 0 0.370847)
(-0.184703 0 0.354681)
(-0.201848 0 0.403933)
(-0.196601 0 0.3941)
(-0.208056 0 0.415473)
(-0.20538 0 0.419099)
(-0.20939 0 0.404111)
(-0.208099 0 0.414094)
(-0.209788 0 0.392902)
(-0.207549 0 0.394578)
(-0.212747 0 0.404745)
(-0.208745 0 0.392253)
(-0.217607 0 0.436606)
(-0.213178 0 0.419644)
(-0.217791 0 0.455985)
(-0.239938 0 -0.198754)
(-0.242364 0 -0.186948)
(-0.240267 0 -0.21913)
(-0.242825 0 -0.209613)
(-0.240932 0 -0.23458)
(-0.243682 0 -0.2265)
(-0.241824 0 -0.247641)
(-0.244806 0 -0.23965)
(-0.242938 0 -0.260443)
(-0.246182 0 -0.251998)
(-0.244323 0 -0.273677)
(-0.24786 0 -0.26463)
(-0.246059 0 -0.287404)
(-0.249911 0 -0.277732)
(-0.248251 0 -0.301444)
(-0.252431 0 -0.291189)
(-0.251028 0 -0.315469)
(-0.25554 0 -0.304733)
(-0.254542 0 -0.329012)
(-0.259377 0 -0.317964)
(-0.258963 0 -0.341465)
(-0.264094 0 -0.330348)
(-0.264469 0 -0.352088)
(-0.269852 0 -0.341223)
(-0.271228 0 -0.360049)
(-0.2768 0 -0.349827)
(-0.279379 0 -0.364468)
(-0.285062 0 -0.355331)
(-0.289009 0 -0.364493)
(-0.294713 0 -0.356905)
(-0.30014 0 -0.359368)
(-0.305762 0 -0.353781)
(-0.312711 0 -0.348514)
(-0.318143 0 -0.345325)
(-0.326577 0 -0.33158)
(-0.331709 0 -0.331102)
(-0.341506 0 -0.308475)
(-0.346238 0 -0.31092)
(-0.357171 0 -0.279351)
(-0.361427 0 -0.284847)
(-0.373138 0 -0.244543)
(-0.376893 0 -0.253173)
(-0.388834 0 -0.204483)
(-0.392143 0 -0.216344)
(-0.40351 0 -0.159606)
(-0.406541 0 -0.174867)
(-0.416195 0 -0.110315)
(-0.419252 0 -0.129229)
(-0.42567 0 -0.0570189)
(-0.429196 0 -0.0798812)
(-0.430468 0 -0.000257952)
(-0.435029 0 -0.0273049)
(-0.428906 0 0.0590789)
(-0.435159 0 0.0278353)
(-0.419206 0 0.119485)
(-0.427797 0 0.0844745)
(-0.399716 0 0.178548)
(-0.411214 0 0.1409)
(-0.369415 0 0.232638)
(-0.384277 0 0.194545)
(-0.321292 0 0.284853)
(-0.342946 0 0.245799)
(-0.266666 0 0.319489)
(-0.288628 0 0.288247)
(-0.214817 0 0.337792)
(-0.232696 0 0.314664)
(-0.175014 0 0.346979)
(-0.185912 0 0.330529)
(-0.151515 0 0.352525)
(-0.155285 0 0.342887)
(-0.142247 0 0.351975)
(-0.141251 0 0.35187)
(-0.142339 0 0.34078)
(-0.138761 0 0.349528)
(-0.147763 0 0.323932)
(-0.142808 0 0.334182)
(-0.155573 0 0.312781)
(-0.150356 0 0.318237)
(-0.163355 0 0.311987)
(-0.158794 0 0.312603)
(-0.170682 0 0.321023)
(-0.166246 0 0.316517)
(-0.179424 0 0.343192)
(-0.173879 0 0.331004)
(-0.190244 0 0.377942)
(-0.183987 0 0.361895)
(-0.20012 0 0.409274)
(-0.195197 0 0.400684)
(-0.205399 0 0.41773)
(-0.202924 0 0.422619)
(-0.20628 0 0.404572)
(-0.20498 0 0.414681)
(-0.206576 0 0.393943)
(-0.204348 0 0.394775)
(-0.209254 0 0.40717)
(-0.205526 0 0.394038)
(-0.213382 0 0.439045)
(-0.209477 0 0.422397)
(-0.213194 0 0.457591)
(-0.245269 0 -0.19726)
(-0.246543 0 -0.185036)
(-0.246226 0 -0.216571)
(-0.247848 0 -0.206636)
(-0.247526 0 -0.231251)
(-0.249237 0 -0.222644)
(-0.249131 0 -0.24371)
(-0.250952 0 -0.23511)
(-0.251069 0 -0.255883)
(-0.25302 0 -0.246776)
(-0.253404 0 -0.268371)
(-0.255495 0 -0.258629)
(-0.256228 0 -0.281194)
(-0.258458 0 -0.270813)
(-0.259653 0 -0.294151)
(-0.262011 0 -0.283192)
(-0.263804 0 -0.306903)
(-0.266269 0 -0.295491)
(-0.268822 0 -0.318988)
(-0.271358 0 -0.307313)
(-0.27485 0 -0.329824)
(-0.277409 0 -0.318152)
(-0.282018 0 -0.338726)
(-0.284541 0 -0.327396)
(-0.290433 0 -0.344937)
(-0.29285 0 -0.334352)
(-0.300155 0 -0.347679)
(-0.302388 0 -0.338289)
(-0.311181 0 -0.346204)
(-0.313151 0 -0.338478)
(-0.32344 0 -0.339862)
(-0.325061 0 -0.334251)
(-0.336781 0 -0.32816)
(-0.337968 0 -0.325062)
(-0.350983 0 -0.310817)
(-0.351648 0 -0.310538)
(-0.365756 0 -0.287793)
(-0.365812 0 -0.290528)
(-0.380743 0 -0.259289)
(-0.380116 0 -0.265126)
(-0.395502 0 -0.225705)
(-0.394159 0 -0.234657)
(-0.40948 0 -0.18756)
(-0.407461 0 -0.199627)
(-0.42196 0 -0.145413)
(-0.419429 0 -0.16064)
(-0.432004 0 -0.0998009)
(-0.429292 0 -0.118312)
(-0.438416 0 -0.0512492)
(-0.436045 0 -0.073237)
(-0.439734 0 -0.000359345)
(-0.438418 0 -0.0260037)
(-0.434287 0 0.0520372)
(-0.434893 0 0.0227061)
(-0.420365 0 0.104684)
(-0.423783 0 0.0719764)
(-0.39653 0 0.155736)
(-0.403518 0 0.120502)
(-0.362193 0 0.202645)
(-0.373225 0 0.166531)
(-0.310548 0 0.249264)
(-0.329236 0 0.211369)
(-0.254574 0 0.283475)
(-0.273741 0 0.250931)
(-0.203583 0 0.307445)
(-0.218852 0 0.28067)
(-0.165974 0 0.326475)
(-0.174604 0 0.305457)
(-0.144942 0 0.342264)
(-0.146922 0 0.328865)
(-0.137749 0 0.349448)
(-0.135439 0 0.347075)
(-0.13926 0 0.342949)
(-0.134815 0 0.350535)
(-0.145444 0 0.328502)
(-0.139994 0 0.338305)
(-0.153602 0 0.31807)
(-0.148077 0 0.323675)
(-0.161697 0 0.317143)
(-0.156804 0 0.317999)
(-0.169467 0 0.326507)
(-0.164664 0 0.321697)
(-0.178479 0 0.349716)
(-0.172757 0 0.337012)
(-0.188963 0 0.384645)
(-0.182856 0 0.368884)
(-0.197982 0 0.414037)
(-0.193345 0 0.406696)
(-0.202481 0 0.419579)
(-0.200135 0 0.425618)
(-0.203072 0 0.404895)
(-0.201713 0 0.415075)
(-0.203365 0 0.394884)
(-0.201128 0 0.39497)
(-0.205817 0 0.409281)
(-0.202341 0 0.395672)
(-0.209298 0 0.440962)
(-0.205866 0 0.424717)
(-0.208802 0 0.458657)
(-0.249363 0 -0.19389)
(-0.249407 0 -0.18144)
(-0.250809 0 -0.212321)
(-0.251311 0 -0.202138)
(-0.252615 0 -0.226197)
(-0.253116 0 -0.217288)
(-0.254793 0 -0.237888)
(-0.255299 0 -0.228951)
(-0.257391 0 -0.249229)
(-0.257902 0 -0.239774)
(-0.260482 0 -0.260769)
(-0.260985 0 -0.250684)
(-0.26416 0 -0.272504)
(-0.264632 0 -0.261803)
(-0.26853 0 -0.284226)
(-0.268939 0 -0.272987)
(-0.273706 0 -0.295604)
(-0.274009 0 -0.283967)
(-0.279805 0 -0.306201)
(-0.27995 0 -0.294369)
(-0.286933 0 -0.315481)
(-0.28686 0 -0.303729)
(-0.295174 0 -0.322829)
(-0.294818 0 -0.311499)
(-0.304572 0 -0.327576)
(-0.303866 0 -0.31707)
(-0.315117 0 -0.329041)
(-0.313997 0 -0.319805)
(-0.326729 0 -0.326575)
(-0.325138 0 -0.319071)
(-0.339258 0 -0.319611)
(-0.337143 0 -0.314291)
(-0.352479 0 -0.307718)
(-0.34979 0 -0.304981)
(-0.366107 0 -0.290649)
(-0.362792 0 -0.290807)
(-0.3798 0 -0.268381)
(-0.375805 0 -0.271628)
(-0.393171 0 -0.241129)
(-0.388442 0 -0.247531)
(-0.405781 0 -0.209319)
(-0.400287 0 -0.218838)
(-0.417112 0 -0.173538)
(-0.410879 0 -0.186076)
(-0.42652 0 -0.134449)
(-0.419686 0 -0.149914)
(-0.433172 0 -0.0927275)
(-0.426047 0 -0.111082)
(-0.436 0 -0.0490286)
(-0.429112 0 -0.0703066)
(-0.433683 0 -0.00402067)
(-0.427801 0 -0.0282926)
(-0.424709 0 0.0415361)
(-0.420806 0 0.0142555)
(-0.407556 0 0.0866869)
(-0.406674 0 0.0565776)
(-0.381036 0 0.130233)
(-0.384073 0 0.0978063)
(-0.344879 0 0.170766)
(-0.352347 0 0.137032)
(-0.29263 0 0.213052)
(-0.308189 0 0.176537)
(-0.237923 0 0.248143)
(-0.254165 0 0.214459)
(-0.189672 0 0.278704)
(-0.202335 0 0.248503)
(-0.155361 0 0.307873)
(-0.16181 0 0.282583)
(-0.137345 0 0.333701)
(-0.137628 0 0.316855)
(-0.132489 0 0.348183)
(-0.128912 0 0.343837)
(-0.135581 0 0.345909)
(-0.130263 0 0.352596)
(-0.142673 0 0.333493)
(-0.136689 0 0.343033)
(-0.151308 0 0.323616)
(-0.145435 0 0.329432)
(-0.159787 0 0.322563)
(-0.154552 0 0.323652)
(-0.167981 0 0.332211)
(-0.162843 0 0.327159)
(-0.177172 0 0.356189)
(-0.171326 0 0.34314)
(-0.187257 0 0.390944)
(-0.181317 0 0.375607)
(-0.195474 0 0.418286)
(-0.191083 0 0.412174)
(-0.199344 0 0.421124)
(-0.197068 0 0.428198)
(-0.199795 0 0.405162)
(-0.198338 0 0.415376)
(-0.200169 0 0.395773)
(-0.197907 0 0.395219)
(-0.202448 0 0.411124)
(-0.1992 0 0.397192)
(-0.20537 0 0.44243)
(-0.20236 0 0.426665)
(-0.204631 0 0.459268)
(-0.251736 0 -0.189193)
(-0.250548 0 -0.176692)
(-0.253548 0 -0.206744)
(-0.252857 0 -0.196499)
(-0.255741 0 -0.219763)
(-0.25498 0 -0.210785)
(-0.258347 0 -0.230577)
(-0.257504 0 -0.221582)
(-0.261425 0 -0.240965)
(-0.260478 0 -0.231477)
(-0.265051 0 -0.251448)
(-0.263965 0 -0.241368)
(-0.269311 0 -0.262012)
(-0.268044 0 -0.251367)
(-0.2743 0 -0.272456)
(-0.272804 0 -0.261336)
(-0.280115 0 -0.282472)
(-0.278331 0 -0.271022)
(-0.286843 0 -0.29166)
(-0.284711 0 -0.280088)
(-0.294556 0 -0.299545)
(-0.29201 0 -0.288122)
(-0.303293 0 -0.305587)
(-0.30027 0 -0.294646)
(-0.313045 0 -0.309209)
(-0.309489 0 -0.299137)
(-0.323744 0 -0.309823)
(-0.319611 0 -0.301049)
(-0.335251 0 -0.306867)
(-0.330513 0 -0.29984)
(-0.347354 0 -0.299844)
(-0.341995 0 -0.295008)
(-0.35977 0 -0.288364)
(-0.353785 0 -0.286124)
(-0.372155 0 -0.272195)
(-0.365543 0 -0.272873)
(-0.384124 0 -0.251301)
(-0.376879 0 -0.255107)
(-0.39526 0 -0.225873)
(-0.387368 0 -0.232877)
(-0.405124 0 -0.196326)
(-0.396574 0 -0.206463)
(-0.413242 0 -0.163267)
(-0.404054 0 -0.176368)
(-0.419067 0 -0.12743)
(-0.409341 0 -0.143273)
(-0.421925 0 -0.0895983)
(-0.411912 0 -0.107975)
(-0.420962 0 -0.0505479)
(-0.411124 0 -0.0713046)
(-0.415114 0 -0.0110189)
(-0.40617 0 -0.0340687)
(-0.403152 0 0.0282863)
(-0.396065 0 0.00299094)
(-0.383833 0 0.0666989)
(-0.379692 0 0.0392348)
(-0.356226 0 0.103645)
(-0.356014 0 0.0741798)
(-0.320248 0 0.1388)
(-0.324546 0 0.107679)
(-0.269875 0 0.177922)
(-0.282295 0 0.142955)
(-0.218488 0 0.214811)
(-0.231831 0 0.180201)
(-0.174288 0 0.252387)
(-0.184496 0 0.219037)
(-0.143901 0 0.29158)
(-0.148373 0 0.262325)
(-0.12912 0 0.327009)
(-0.127878 0 0.307001)
(-0.126667 0 0.348268)
(-0.121927 0 0.342202)
(-0.131402 0 0.349736)
(-0.125244 0 0.355752)
(-0.139499 0 0.338985)
(-0.132967 0 0.348431)
(-0.14871 0 0.329478)
(-0.142471 0 0.335573)
(-0.157627 0 0.328258)
(-0.152055 0 0.329596)
(-0.166217 0 0.338097)
(-0.160786 0 0.332886)
(-0.175509 0 0.362566)
(-0.169587 0 0.349335)
(-0.185158 0 0.396846)
(-0.179397 0 0.382039)
(-0.192648 0 0.422095)
(-0.188468 0 0.417168)
(-0.196039 0 0.42246)
(-0.193783 0 0.430458)
(-0.196477 0 0.405445)
(-0.194895 0 0.415669)
(-0.196999 0 0.396652)
(-0.194702 0 0.395567)
(-0.19916 0 0.412748)
(-0.196112 0 0.398633)
(-0.201614 0 0.44352)
(-0.198973 0 0.428301)
(-0.200695 0 0.459508)
(-0.252137 0 -0.183516)
(-0.249724 0 -0.171209)
(-0.254212 0 -0.200198)
(-0.252361 0 -0.190043)
(-0.256677 0 -0.212346)
(-0.254716 0 -0.203475)
(-0.259564 0 -0.222246)
(-0.25745 0 -0.213418)
(-0.262935 0 -0.231643)
(-0.260627 0 -0.222391)
(-0.266863 0 -0.241047)
(-0.264311 0 -0.231276)
(-0.271426 0 -0.25045)
(-0.268575 0 -0.240189)
(-0.276705 0 -0.259665)
(-0.273493 0 -0.249006)
(-0.282777 0 -0.268416)
(-0.279138 0 -0.257503)
(-0.289705 0 -0.276351)
(-0.285572 0 -0.265385)
(-0.297527 0 -0.283059)
(-0.292835 0 -0.272296)
(-0.306245 0 -0.288078)
(-0.300938 0 -0.277831)
(-0.31581 0 -0.290918)
(-0.309846 0 -0.281548)
(-0.326113 0 -0.29108)
(-0.319468 0 -0.282988)
(-0.336971 0 -0.28808)
(-0.329646 0 -0.281694)
(-0.348129 0 -0.281481)
(-0.340146 0 -0.277231)
(-0.359261 0 -0.270929)
(-0.350662 0 -0.269217)
(-0.369979 0 -0.256188)
(-0.360818 0 -0.257353)
(-0.379859 0 -0.237192)
(-0.370189 0 -0.24147)
(-0.388456 0 -0.214079)
(-0.378317 0 -0.221564)
(-0.395326 0 -0.187207)
(-0.384748 0 -0.197843)
(-0.400036 0 -0.157153)
(-0.389046 0 -0.170735)
(-0.402141 0 -0.124657)
(-0.390806 0 -0.140874)
(-0.40115 0 -0.0905619)
(-0.389639 0 -0.109053)
(-0.396473 0 -0.0557297)
(-0.38513 0 -0.07615)
(-0.387385 0 -0.0209706)
(-0.376786 0 -0.043046)
(-0.373026 0 0.0130357)
(-0.364011 0 -0.0105304)
(-0.352506 0 0.0458329)
(-0.346102 0 0.0208139)
(-0.325152 0 0.07736)
(-0.322364 0 0.0507696)
(-0.290959 0 0.108231)
(-0.292458 0 0.0797816)
(-0.244367 0 0.145192)
(-0.25367 0 0.111894)
(-0.197769 0 0.184404)