/*--------------------------------*- C++ -*----------------------------------*\
  =========                 |
  \\      /  F ield         | OpenFOAM: The Open Source CFD Toolbox
   \\    /   O peration     | Website:  https://openfoam.org
    \\  /    A nd           | Version:  9
     \\/     M anipulation  |
\*---------------------------------------------------------------------------*/
FoamFile
{
    format      ascii;
    class       volScalarField;
    location    "0.13";
    object      rAU;
}
// * * * * * * * * * * * * * * * * * * * * * * * * * * * * * * * * * * * * * //

dimensions      [-1 3 1 0 0 0 0];

internalField   nonuniform List<scalar> 
5000
(
1.06888e-05
1.037e-05
1.04864e-05
1.05972e-05
1.07029e-05
1.08038e-05
1.09002e-05
1.09924e-05
1.10808e-05
1.11655e-05
1.1247e-05
1.13255e-05
1.14011e-05
1.14741e-05
1.15445e-05
1.16122e-05
1.16769e-05
1.1738e-05
1.17944e-05
1.18441e-05
1.18838e-05
1.19077e-05
1.19076e-05
1.18985e-05
1.21462e-05
1.41964e-05
1.78472e-05
1.33959e-05
1.13592e-05
1.09651e-05
1.07659e-05
1.04035e-05
1.02714e-05
1.48408e-05
1.69632e-05
1.02473e-05
9.94578e-06
9.95868e-06
1.02451e-05
1.61527e-05
1.4287e-05
1.03193e-05
1.0169e-05
1.03149e-05
1.03333e-05
1.08607e-05
1.3936e-05
1.09682e-05
1.04963e-05
1.06055e-05
1.34565e-05
1.29498e-05
1.31268e-05
1.32955e-05
1.34561e-05
1.3609e-05
1.37545e-05
1.3893e-05
1.40249e-05
1.41504e-05
1.427e-05
1.4384e-05
1.44928e-05
1.45965e-05
1.46954e-05
1.47898e-05
1.48796e-05
1.49649e-05
1.50455e-05
1.51209e-05
1.5191e-05
1.52553e-05
1.53162e-05
1.53991e-05
1.56805e-05
1.67956e-05
1.79641e-05
1.62468e-05
1.5102e-05
1.48616e-05
1.4798e-05
1.45516e-05
1.45076e-05
1.72959e-05
1.79494e-05
1.44165e-05
1.41672e-05
1.41826e-05
1.44424e-05
1.76477e-05
1.68748e-05
1.44525e-05
1.43215e-05
1.44317e-05
1.44413e-05
1.48563e-05
1.66729e-05
1.49225e-05
1.45723e-05
1.4654e-05
1.34567e-05
1.295e-05
1.31271e-05
1.32958e-05
1.34565e-05
1.36095e-05
1.37551e-05
1.38938e-05
1.40258e-05
1.41515e-05
1.42713e-05
1.43856e-05
1.44946e-05
1.45988e-05
1.46983e-05
1.47935e-05
1.48844e-05
1.49714e-05
1.50545e-05
1.5134e-05
1.52107e-05
1.5286e-05
1.53656e-05
1.54821e-05
1.58036e-05
1.67847e-05
1.76115e-05
1.62609e-05
1.51819e-05
1.49071e-05
1.48333e-05
1.45931e-05
1.45773e-05
1.72604e-05
1.77104e-05
1.4465e-05
1.41794e-05
1.41983e-05
1.4488e-05
1.7497e-05
1.68728e-05
1.44831e-05
1.43138e-05
1.44257e-05
1.44389e-05
1.48854e-05
1.66168e-05
1.49428e-05
1.45718e-05
1.46538e-05
1.34571e-05
1.29504e-05
1.31276e-05
1.32963e-05
1.34571e-05
1.36102e-05
1.3756e-05
1.38948e-05
1.4027e-05
1.4153e-05
1.42731e-05
1.43877e-05
1.44971e-05
1.46018e-05
1.4702e-05
1.4798e-05
1.48902e-05
1.49789e-05
1.50645e-05
1.51476e-05
1.52297e-05
1.53135e-05
1.54074e-05
1.55489e-05
1.58896e-05
1.67177e-05
1.72937e-05
1.62779e-05
1.52829e-05
1.49652e-05
1.48744e-05
1.46352e-05
1.46328e-05
1.71577e-05
1.74881e-05
1.45199e-05
1.41996e-05
1.42199e-05
1.45358e-05
1.73598e-05
1.68589e-05
1.45175e-05
1.43104e-05
1.44228e-05
1.44422e-05
1.4918e-05
1.65509e-05
1.49626e-05
1.45738e-05
1.46525e-05
1.34576e-05
1.2951e-05
1.31282e-05
1.3297e-05
1.34579e-05
1.36111e-05
1.37571e-05
1.38961e-05
1.40285e-05
1.41547e-05
1.42751e-05
1.439e-05
1.45e-05
1.46052e-05
1.47061e-05
1.4803e-05
1.48964e-05
1.49866e-05
1.50743e-05
1.51604e-05
1.52469e-05
1.53376e-05
1.54433e-05
1.56035e-05
1.59462e-05
1.66319e-05
1.70449e-05
1.6286e-05
1.53838e-05
1.5028e-05
1.49173e-05
1.46763e-05
1.46748e-05
1.7018e-05
1.73063e-05
1.4579e-05
1.42264e-05
1.42444e-05
1.45837e-05
1.72415e-05
1.68175e-05
1.45449e-05
1.43106e-05
1.44223e-05
1.44503e-05
1.49521e-05
1.64766e-05
1.4978e-05
1.45776e-05
1.46517e-05
1.34582e-05
1.29516e-05
1.31289e-05
1.32978e-05
1.34588e-05
1.36121e-05
1.37582e-05
1.38974e-05
1.403e-05
1.41565e-05
1.42772e-05
1.43926e-05
1.45029e-05
1.46087e-05
1.47103e-05
1.4808e-05
1.49025e-05
1.49941e-05
1.50837e-05
1.51726e-05
1.5263e-05
1.53597e-05
1.54751e-05
1.56479e-05
1.59806e-05
1.65482e-05
1.68595e-05
1.62834e-05
1.54768e-05
1.5093e-05
1.49607e-05
1.47172e-05
1.47071e-05
1.68689e-05
1.71644e-05
1.46409e-05
1.42564e-05
1.42695e-05
1.46305e-05
1.71366e-05
1.67464e-05
1.45627e-05
1.43136e-05
1.44238e-05
1.44628e-05
1.49858e-05
1.63964e-05
1.499e-05
1.45846e-05
1.46527e-05
1.34587e-05
1.2952e-05
1.31294e-05
1.32985e-05
1.34596e-05
1.36131e-05
1.37593e-05
1.38987e-05
1.40316e-05
1.41583e-05
1.42794e-05
1.43951e-05
1.45059e-05
1.46122e-05
1.47144e-05
1.4813e-05
1.49085e-05
1.50014e-05
1.50928e-05
1.51841e-05
1.5278e-05
1.53798e-05
1.55028e-05
1.56831e-05
1.59996e-05
1.64745e-05
1.67204e-05
1.62748e-05
1.55599e-05
1.51583e-05
1.5005e-05
1.47586e-05
1.4734e-05
1.67238e-05
1.70483e-05
1.47023e-05
1.42859e-05
1.42934e-05
1.46747e-05
1.70367e-05
1.66523e-05
1.45717e-05
1.43195e-05
1.44276e-05
1.4479e-05
1.50177e-05
1.63136e-05
1.49996e-05
1.45948e-05
1.46554e-05
1.34588e-05
1.29522e-05
1.31297e-05
1.32989e-05
1.34601e-05
1.36138e-05
1.37602e-05
1.38998e-05
1.40329e-05
1.416e-05
1.42813e-05
1.43974e-05
1.45087e-05
1.46155e-05
1.47184e-05
1.48178e-05
1.49142e-05
1.50084e-05
1.51014e-05
1.51949e-05
1.52917e-05
1.53978e-05
1.55265e-05
1.57108e-05
1.60087e-05
1.64118e-05
1.66139e-05
1.6264e-05
1.56329e-05
1.52226e-05
1.50496e-05
1.47998e-05
1.47572e-05
1.6587e-05
1.69452e-05
1.4759e-05
1.43128e-05
1.43151e-05
1.47144e-05
1.69353e-05
1.65445e-05
1.45749e-05
1.43288e-05
1.44343e-05
1.44985e-05
1.5047e-05
1.62316e-05
1.50078e-05
1.46077e-05
1.46605e-05
1.34584e-05
1.2952e-05
1.31296e-05
1.32989e-05
1.34603e-05
1.36141e-05
1.37608e-05
1.39006e-05
1.4034e-05
1.41613e-05
1.4283e-05
1.43995e-05
1.45112e-05
1.46186e-05
1.4722e-05
1.48221e-05
1.49195e-05
1.50148e-05
1.51093e-05
1.52047e-05
1.53042e-05
1.54138e-05
1.5547e-05
1.57323e-05
1.60114e-05
1.63587e-05
1.65305e-05
1.62526e-05
1.56962e-05
1.52842e-05
1.50937e-05
1.48393e-05
1.47769e-05
1.64582e-05
1.68459e-05
1.48074e-05
1.43366e-05
1.43344e-05
1.47475e-05
1.68289e-05
1.64315e-05
1.45761e-05
1.43419e-05
1.44445e-05
1.45208e-05
1.50732e-05
1.61531e-05
1.50151e-05
1.46228e-05
1.4668e-05
1.34573e-05
1.29512e-05
1.3129e-05
1.32984e-05
1.346e-05
1.3614e-05
1.37608e-05
1.39009e-05
1.40346e-05
1.41622e-05
1.42842e-05
1.44011e-05
1.45132e-05
1.46211e-05
1.47252e-05
1.4826e-05
1.49242e-05
1.50206e-05
1.51164e-05
1.52136e-05
1.53154e-05
1.54281e-05
1.55644e-05
1.57488e-05
1.60098e-05
1.63134e-05
1.64636e-05
1.62407e-05
1.57501e-05
1.5342e-05
1.51364e-05
1.48754e-05
1.47921e-05
1.63367e-05
1.67461e-05
1.48478e-05
1.43583e-05
1.43521e-05
1.47727e-05
1.67168e-05
1.63207e-05
1.45786e-05
1.43588e-05
1.44586e-05
1.45453e-05
1.50963e-05
1.60798e-05
1.50214e-05
1.46393e-05
1.4678e-05
1.34555e-05
1.29498e-05
1.31277e-05
1.32973e-05
1.3459e-05
1.36132e-05
1.37603e-05
1.39006e-05
1.40346e-05
1.41625e-05
1.42849e-05
1.44021e-05
1.45147e-05
1.46231e-05
1.47277e-05
1.48292e-05
1.49282e-05
1.50256e-05
1.51227e-05
1.52214e-05
1.53253e-05
1.54405e-05
1.5579e-05
1.57611e-05
1.60052e-05
1.62743e-05
1.64084e-05
1.62283e-05
1.5795e-05
1.53952e-05
1.51768e-05
1.4907e-05
1.48028e-05
1.62228e-05
1.66455e-05
1.48799e-05
1.43776e-05
1.43687e-05
1.47896e-05
1.66014e-05
1.62177e-05
1.45845e-05
1.43794e-05
1.44765e-05
1.45714e-05
1.51173e-05
1.60125e-05
1.50267e-05
1.46566e-05
1.46897e-05
1.34528e-05
1.29475e-05
1.31256e-05
1.32954e-05
1.34573e-05
1.36118e-05
1.37591e-05
1.38997e-05
1.40339e-05
1.41622e-05
1.42849e-05
1.44026e-05
1.45156e-05
1.46244e-05
1.47296e-05
1.48317e-05
1.49315e-05
1.50298e-05
1.5128e-05
1.52282e-05
1.53339e-05
1.54511e-05
1.55909e-05
1.57697e-05
1.59986e-05
1.62399e-05
1.63615e-05
1.6215e-05
1.58316e-05
1.54433e-05
1.52142e-05
1.49337e-05
1.48101e-05
1.61176e-05
1.65463e-05
1.49053e-05
1.43964e-05
1.43852e-05
1.47988e-05
1.64863e-05
1.61256e-05
1.45947e-05
1.4403e-05
1.44972e-05
1.45983e-05
1.51361e-05
1.595e-05
1.50308e-05
1.46739e-05
1.47024e-05
1.34492e-05
1.29444e-05
1.31227e-05
1.32927e-05
1.34548e-05
1.36095e-05
1.37571e-05
1.3898e-05
1.40325e-05
1.41611e-05
1.42842e-05
1.44022e-05
1.45157e-05
1.4625e-05
1.47307e-05
1.48334e-05
1.49339e-05
1.50331e-05
1.51324e-05
1.52339e-05
1.53411e-05
1.54599e-05
1.56002e-05
1.57752e-05
1.59904e-05
1.62089e-05
1.63205e-05
1.62008e-05
1.58607e-05
1.54861e-05
1.52485e-05
1.4956e-05
1.48154e-05
1.60227e-05
1.64516e-05
1.4926e-05
1.44156e-05
1.4402e-05
1.48019e-05
1.63753e-05
1.60453e-05
1.46091e-05
1.44283e-05
1.45196e-05
1.46252e-05
1.51523e-05
1.58919e-05
1.50338e-05
1.46908e-05
1.47151e-05
1.34445e-05
1.29404e-05
1.31189e-05
1.32891e-05
1.34515e-05
1.36065e-05
1.37543e-05
1.38955e-05
1.40303e-05
1.41593e-05
1.42827e-05
1.44011e-05
1.4515e-05
1.46247e-05
1.4731e-05
1.48343e-05
1.49355e-05
1.50355e-05
1.51357e-05
1.52383e-05
1.53468e-05
1.54669e-05
1.56071e-05
1.5778e-05
1.59808e-05
1.61805e-05
1.62839e-05
1.61856e-05
1.58831e-05
1.55237e-05
1.52797e-05
1.49746e-05
1.48205e-05
1.59397e-05
1.63644e-05
1.49436e-05
1.44354e-05
1.44191e-05
1.48008e-05
1.62715e-05
1.59761e-05
1.46268e-05
1.4454e-05
1.45421e-05
1.46511e-05
1.51662e-05
1.58386e-05
1.50359e-05
1.4707e-05
1.47273e-05
1.34387e-05
1.29355e-05
1.31142e-05
1.32847e-05
1.34473e-05
1.36025e-05
1.37507e-05
1.38922e-05
1.40273e-05
1.41566e-05
1.42804e-05
1.43992e-05
1.45134e-05
1.46237e-05
1.47304e-05
1.48342e-05
1.4936e-05
1.50368e-05
1.51379e-05
1.52415e-05
1.53511e-05
1.5472e-05
1.56117e-05
1.57783e-05
1.59701e-05
1.61539e-05
1.62506e-05
1.61696e-05
1.58993e-05
1.55561e-05
1.53079e-05
1.49903e-05
1.48265e-05
1.58695e-05
1.62844e-05
1.49579e-05
1.44554e-05
1.44362e-05
1.47976e-05
1.61772e-05
1.59159e-05
1.4646e-05
1.44786e-05
1.45635e-05
1.46756e-05
1.5178e-05
1.57898e-05
1.50375e-05
1.47222e-05
1.47386e-05
1.34318e-05
1.29296e-05
1.31085e-05
1.32792e-05
1.34422e-05
1.35977e-05
1.37461e-05
1.38879e-05
1.40234e-05
1.4153e-05
1.42772e-05
1.43964e-05
1.4511e-05
1.46217e-05
1.47289e-05
1.48333e-05
1.49357e-05
1.50371e-05
1.5139e-05
1.52435e-05
1.5354e-05
1.54754e-05
1.56142e-05
1.57765e-05
1.59583e-05
1.61287e-05
1.62195e-05
1.61526e-05
1.59101e-05
1.55834e-05
1.53332e-05
1.50033e-05
1.48342e-05
1.58122e-05
1.62122e-05
1.49698e-05
1.44747e-05
1.44525e-05
1.4794e-05
1.60932e-05
1.58623e-05
1.46648e-05
1.4501e-05
1.45827e-05
1.46982e-05
1.5188e-05
1.57457e-05
1.50391e-05
1.47364e-05
1.4749e-05
1.34238e-05
1.29226e-05
1.31019e-05
1.32729e-05
1.34361e-05
1.35919e-05
1.37407e-05
1.38828e-05
1.40186e-05
1.41486e-05
1.42731e-05
1.43927e-05
1.45077e-05
1.46188e-05
1.47265e-05
1.48314e-05
1.49343e-05
1.50363e-05
1.51389e-05
1.52442e-05
1.53554e-05
1.5477e-05
1.56147e-05
1.57727e-05
1.59455e-05
1.61044e-05
1.61901e-05
1.61346e-05
1.59161e-05
1.56058e-05
1.53553e-05
1.50139e-05
1.48439e-05
1.57675e-05
1.61468e-05
1.4978e-05
1.44923e-05
1.44671e-05
1.47913e-05
1.60191e-05
1.58123e-05
1.46814e-05
1.45202e-05
1.45992e-05
1.47188e-05
1.51965e-05
1.57061e-05
1.5041e-05
1.47497e-05
1.47585e-05
1.34147e-05
1.29148e-05
1.30943e-05
1.32656e-05
1.34291e-05
1.35852e-05
1.37343e-05
1.38768e-05
1.4013e-05
1.41433e-05
1.42682e-05
1.43881e-05
1.45036e-05
1.4615e-05
1.47231e-05
1.48285e-05
1.49319e-05
1.50345e-05
1.51377e-05
1.52437e-05
1.53554e-05
1.5477e-05
1.56134e-05
1.57672e-05
1.59318e-05
1.60807e-05
1.61619e-05
1.61156e-05
1.59177e-05
1.56233e-05
1.53739e-05
1.50216e-05
1.48559e-05
1.57343e-05
1.60867e-05
1.49817e-05
1.45072e-05
1.44794e-05
1.47901e-05
1.59539e-05
1.57637e-05
1.46942e-05
1.45357e-05
1.46127e-05
1.47371e-05
1.52036e-05
1.56712e-05
1.50436e-05
1.4762e-05
1.47671e-05
1.34045e-05
1.29059e-05
1.30857e-05
1.32573e-05
1.34212e-05
1.35776e-05
1.37271e-05
1.38699e-05
1.40064e-05
1.41371e-05
1.42624e-05
1.43827e-05
1.44985e-05
1.46104e-05
1.47189e-05
1.48247e-05
1.49286e-05
1.50317e-05
1.51355e-05
1.5242e-05
1.53541e-05
1.54755e-05
1.56104e-05
1.57601e-05
1.59173e-05
1.60572e-05
1.61344e-05
1.60956e-05
1.59154e-05
1.56361e-05
1.53885e-05
1.50265e-05
1.48701e-05
1.57113e-05
1.60304e-05
1.49801e-05
1.45186e-05
1.44889e-05
1.47907e-05
1.58956e-05
1.57148e-05
1.47023e-05
1.45476e-05
1.46234e-05
1.47534e-05
1.52098e-05
1.56408e-05
1.50472e-05
1.47735e-05
1.47749e-05
1.33933e-05
1.28961e-05
1.30763e-05
1.32482e-05
1.34124e-05
1.35692e-05
1.3719e-05
1.38621e-05
1.3999e-05
1.41301e-05
1.42557e-05
1.43764e-05
1.44926e-05
1.46049e-05
1.47138e-05
1.482e-05
1.49244e-05
1.5028e-05
1.51322e-05
1.52392e-05
1.53515e-05
1.54727e-05
1.56059e-05
1.57516e-05
1.59019e-05
1.6034e-05
1.61073e-05
1.60746e-05
1.59096e-05
1.56441e-05
1.53985e-05
1.50286e-05
1.48867e-05
1.56968e-05
1.59767e-05
1.49729e-05
1.45265e-05
1.44956e-05
1.47929e-05
1.58425e-05
1.5665e-05
1.47058e-05
1.45565e-05
1.46319e-05
1.4768e-05
1.52152e-05
1.56149e-05
1.5052e-05
1.47841e-05
1.47816e-05
1.3381e-05
1.28855e-05
1.3066e-05
1.32382e-05
1.34027e-05
1.35599e-05
1.37101e-05
1.38536e-05
1.39908e-05
1.41223e-05
1.42483e-05
1.43693e-05
1.44859e-05
1.45986e-05
1.47079e-05
1.48145e-05
1.49193e-05
1.50234e-05
1.51281e-05
1.52354e-05
1.53478e-05
1.54685e-05
1.56e-05
1.57418e-05
1.58858e-05
1.60107e-05
1.60805e-05
1.60526e-05
1.59007e-05
1.56478e-05
1.54043e-05
1.50288e-05
1.49054e-05
1.56888e-05
1.59246e-05
1.49607e-05
1.4531e-05
1.44998e-05
1.47964e-05
1.57927e-05
1.56146e-05
1.47055e-05
1.45633e-05
1.4639e-05
1.47811e-05
1.52203e-05
1.55934e-05
1.50581e-05
1.47938e-05
1.47873e-05
1.33679e-05
1.2874e-05
1.30549e-05
1.32275e-05
1.33923e-05
1.35499e-05
1.37004e-05
1.38443e-05
1.39819e-05
1.41137e-05
1.42401e-05
1.43615e-05
1.44785e-05
1.45915e-05
1.47012e-05
1.48083e-05
1.49135e-05
1.50179e-05
1.5123e-05
1.52306e-05
1.53431e-05
1.54632e-05
1.55929e-05
1.57309e-05
1.5869e-05
1.59874e-05
1.60538e-05
1.60299e-05
1.58893e-05
1.56473e-05
1.54057e-05
1.50263e-05
1.49254e-05
1.5685e-05
1.58736e-05
1.49446e-05
1.45328e-05
1.45027e-05
1.48006e-05
1.57453e-05
1.5565e-05
1.4703e-05
1.4569e-05
1.46455e-05
1.47934e-05
1.52254e-05
1.55761e-05
1.50658e-05
1.48029e-05
1.47917e-05
1.33538e-05
1.28618e-05
1.3043e-05
1.3216e-05
1.33812e-05
1.35391e-05
1.369e-05
1.38343e-05
1.39723e-05
1.41045e-05
1.42312e-05
1.4353e-05
1.44704e-05
1.45838e-05
1.46939e-05
1.48013e-05
1.49069e-05
1.50117e-05
1.51171e-05
1.5225e-05
1.53375e-05
1.5457e-05
1.55848e-05
1.57192e-05
1.58517e-05
1.59641e-05
1.60274e-05
1.60066e-05
1.58756e-05
1.56431e-05
1.5403e-05
1.5022e-05
1.49474e-05
1.56828e-05
1.58241e-05
1.49268e-05
1.45332e-05
1.45054e-05
1.48049e-05
1.56993e-05
1.55178e-05
1.47002e-05
1.45746e-05
1.4652e-05
1.48051e-05
1.52306e-05
1.5563e-05
1.50751e-05
1.48113e-05
1.4795e-05
1.3339e-05
1.28488e-05
1.30304e-05
1.32038e-05
1.33694e-05
1.35277e-05
1.36789e-05
1.38236e-05
1.3962e-05
1.40946e-05
1.42217e-05
1.43439e-05
1.44616e-05
1.45754e-05
1.46858e-05
1.47936e-05
1.48996e-05
1.50048e-05
1.51106e-05
1.52187e-05
1.53311e-05
1.54499e-05
1.55758e-05
1.57067e-05
1.58341e-05
1.5941e-05
1.60012e-05
1.59829e-05
1.58602e-05
1.56356e-05
1.5397e-05
1.50172e-05
1.49703e-05
1.56798e-05
1.57775e-05
1.49101e-05
1.45341e-05
1.45093e-05
1.48086e-05
1.56545e-05
1.54752e-05
1.46989e-05
1.4581e-05
1.4659e-05
1.48165e-05
1.52361e-05
1.55538e-05
1.50861e-05
1.48194e-05
1.4797e-05
1.33234e-05
1.28352e-05
1.30172e-05
1.31909e-05
1.33569e-05
1.35156e-05
1.36673e-05
1.38123e-05
1.39511e-05
1.40841e-05
1.42116e-05
1.43341e-05
1.44522e-05
1.45664e-05
1.46772e-05
1.47854e-05
1.48917e-05
1.49973e-05
1.51034e-05
1.52117e-05
1.5324e-05
1.5442e-05
1.55662e-05
1.56937e-05
1.58163e-05
1.59182e-05
1.59756e-05
1.59593e-05
1.58435e-05
1.56256e-05
1.53887e-05
1.5013e-05
1.49933e-05
1.56757e-05
1.57363e-05
1.48974e-05
1.4537e-05
1.45144e-05
1.48108e-05
1.56112e-05
1.54393e-05
1.47008e-05
1.45887e-05
1.46667e-05
1.48278e-05
1.52419e-05
1.55482e-05
1.50989e-05
1.48274e-05
1.47982e-05
1.33071e-05
1.2821e-05
1.30034e-05
1.31775e-05
1.33439e-05
1.3503e-05
1.36551e-05
1.38005e-05
1.39397e-05
1.4073e-05
1.42009e-05
1.43238e-05
1.44423e-05
1.45568e-05
1.4668e-05
1.47766e-05
1.48833e-05
1.49892e-05
1.50956e-05
1.52041e-05
1.53163e-05
1.54336e-05
1.5556e-05
1.56804e-05
1.57986e-05
1.58959e-05
1.59507e-05
1.59361e-05
1.58262e-05
1.56139e-05
1.53793e-05
1.50101e-05
1.50153e-05
1.56698e-05
1.57018e-05
1.48916e-05
1.45433e-05
1.45219e-05
1.48123e-05
1.55701e-05
1.54114e-05
1.47069e-05
1.45975e-05
1.4675e-05
1.48389e-05
1.5248e-05
1.5546e-05
1.51136e-05
1.48358e-05
1.47986e-05
1.32903e-05
1.28063e-05
1.29891e-05
1.31636e-05
1.33304e-05
1.34899e-05
1.36423e-05
1.37881e-05
1.39277e-05
1.40614e-05
1.41897e-05
1.4313e-05
1.44318e-05
1.45467e-05
1.46583e-05
1.47672e-05
1.48743e-05
1.49806e-05
1.50873e-05
1.5196e-05
1.53081e-05
1.54247e-05
1.55454e-05
1.56669e-05
1.57811e-05
1.58744e-05
1.59268e-05
1.59136e-05
1.58087e-05
1.56013e-05
1.53695e-05
1.50091e-05
1.50357e-05
1.56626e-05
1.56763e-05
1.48948e-05
1.45541e-05
1.45321e-05
1.48126e-05
1.55314e-05
1.5392e-05
1.47176e-05
1.46074e-05
1.46835e-05
1.48497e-05
1.52544e-05
1.55468e-05
1.51301e-05
1.4845e-05
1.47986e-05
1.32729e-05
1.27912e-05
1.29744e-05
1.31493e-05
1.33165e-05
1.34763e-05
1.36291e-05
1.37753e-05
1.39153e-05
1.40493e-05
1.4178e-05
1.43017e-05
1.44209e-05
1.45361e-05
1.46481e-05
1.47573e-05
1.48648e-05
1.49715e-05
1.50785e-05
1.51874e-05
1.52993e-05
1.54153e-05
1.55345e-05
1.56533e-05
1.57639e-05
1.58536e-05
1.59041e-05
1.5892e-05
1.57914e-05
1.5588e-05
1.536e-05
1.50099e-05
1.50545e-05
1.56557e-05
1.5662e-05
1.49086e-05
1.45698e-05
1.45447e-05
1.48117e-05
1.54955e-05
1.53807e-05
1.47327e-05
1.46179e-05
1.46918e-05
1.486e-05
1.52611e-05
1.55503e-05
1.51492e-05
1.48555e-05
1.4799e-05
1.32551e-05
1.27757e-05
1.29593e-05
1.31346e-05
1.33021e-05
1.34623e-05
1.36156e-05
1.37621e-05
1.39024e-05
1.40369e-05
1.41659e-05
1.42899e-05
1.44095e-05
1.45251e-05
1.46374e-05
1.4747e-05
1.48548e-05
1.49618e-05
1.50692e-05
1.51782e-05
1.52901e-05
1.54054e-05
1.55232e-05
1.56396e-05
1.5747e-05
1.58336e-05
1.58825e-05
1.58716e-05
1.57743e-05
1.55741e-05
1.53504e-05
1.50125e-05
1.50726e-05
1.56514e-05
1.56598e-05
1.49332e-05
1.459e-05
1.45591e-05
1.48095e-05
1.54627e-05
1.53762e-05
1.47513e-05
1.46282e-05
1.46994e-05
1.48695e-05
1.5268e-05
1.55563e-05
1.51705e-05
1.48671e-05
1.48e-05
1.3237e-05
1.27599e-05
1.29439e-05
1.31196e-05
1.32875e-05
1.34481e-05
1.36016e-05
1.37486e-05
1.38892e-05
1.4024e-05
1.41534e-05
1.42777e-05
1.43976e-05
1.45136e-05
1.46262e-05
1.47362e-05
1.48444e-05
1.49517e-05
1.50594e-05
1.51686e-05
1.52804e-05
1.5395e-05
1.55114e-05
1.56256e-05
1.57302e-05
1.58142e-05
1.58619e-05
1.58518e-05
1.57568e-05
1.55585e-05
1.53401e-05
1.50166e-05
1.50918e-05
1.56528e-05
1.56695e-05
1.49674e-05
1.46139e-05
1.45742e-05
1.48062e-05
1.54327e-05
1.53766e-05
1.47722e-05
1.46378e-05
1.47057e-05
1.48781e-05
1.52751e-05
1.55645e-05
1.5194e-05
1.48803e-05
1.48019e-05
1.32187e-05
1.27438e-05
1.29283e-05
1.31043e-05
1.32726e-05
1.34335e-05
1.35874e-05
1.37347e-05
1.38757e-05
1.40108e-05
1.41405e-05
1.42652e-05
1.43854e-05
1.45017e-05
1.46146e-05
1.47249e-05
1.48334e-05
1.49411e-05
1.5049e-05
1.51583e-05
1.52699e-05
1.5384e-05
1.5499e-05
1.56111e-05
1.57132e-05
1.5795e-05
1.58417e-05
1.58319e-05
1.57375e-05
1.55398e-05
1.5328e-05
1.50225e-05
1.51148e-05
1.5663e-05
1.56897e-05
1.50087e-05
1.46401e-05
1.45885e-05
1.48017e-05
1.54053e-05
1.53797e-05
1.47938e-05
1.4646e-05
1.47104e-05
1.48858e-05
1.52826e-05
1.55743e-05
1.52192e-05
1.48951e-05
1.48047e-05
1.32002e-05
1.27277e-05
1.29125e-05
1.30889e-05
1.32575e-05
1.34188e-05
1.3573e-05
1.37206e-05
1.38619e-05
1.39974e-05
1.41273e-05
1.42523e-05
1.43728e-05
1.44894e-05
1.46026e-05
1.47132e-05
1.48219e-05
1.49298e-05
1.50379e-05
1.51473e-05
1.52587e-05
1.5372e-05
1.54857e-05
1.55957e-05
1.56955e-05
1.57753e-05
1.58209e-05
1.58104e-05
1.57145e-05
1.55158e-05
1.53132e-05
1.50308e-05
1.51449e-05
1.56846e-05
1.57179e-05
1.50541e-05
1.46668e-05
1.46007e-05
1.4796e-05
1.53801e-05
1.53835e-05
1.48146e-05
1.46524e-05
1.47131e-05
1.48924e-05
1.52903e-05
1.55852e-05
1.52464e-05
1.49117e-05
1.48083e-05
1.31817e-05
1.27115e-05
1.28967e-05
1.30734e-05
1.32424e-05
1.34039e-05
1.35585e-05
1.37064e-05
1.3848e-05
1.39837e-05
1.41139e-05
1.42392e-05
1.43599e-05
1.44767e-05
1.45901e-05
1.47009e-05
1.48099e-05
1.4918e-05
1.50262e-05
1.51355e-05
1.52465e-05
1.5359e-05
1.54712e-05
1.55792e-05
1.56766e-05
1.57544e-05
1.57983e-05
1.57854e-05
1.56857e-05
1.5485e-05
1.52953e-05
1.50431e-05
1.5186e-05
1.57195e-05
1.57504e-05
1.50988e-05
1.46912e-05
1.46096e-05
1.47892e-05
1.53569e-05
1.53861e-05
1.4833e-05
1.46566e-05
1.47138e-05
1.4898e-05
1.52986e-05
1.55973e-05
1.52749e-05
1.49297e-05
1.48126e-05
1.31633e-05
1.26954e-05
1.28809e-05
1.3058e-05
1.32272e-05
1.3389e-05
1.35439e-05
1.3692e-05
1.38339e-05
1.39698e-05
1.41003e-05
1.42257e-05
1.43467e-05
1.44636e-05
1.45772e-05
1.46882e-05
1.47973e-05
1.49054e-05
1.50136e-05
1.51227e-05
1.52332e-05
1.53447e-05
1.54552e-05
1.55609e-05
1.56559e-05
1.57314e-05
1.57725e-05
1.57551e-05
1.56492e-05
1.54465e-05
1.52754e-05
1.5062e-05
1.52412e-05
1.57673e-05
1.57822e-05
1.51377e-05
1.47114e-05
1.46142e-05
1.47815e-05
1.53358e-05
1.53862e-05
1.48478e-05
1.46585e-05
1.47124e-05
1.49028e-05
1.53074e-05
1.56101e-05
1.53044e-05
1.49488e-05
1.48173e-05
1.3145e-05
1.26794e-05
1.28653e-05
1.30426e-05
1.32121e-05
1.33742e-05
1.35293e-05
1.36776e-05
1.38197e-05
1.39559e-05
1.40865e-05
1.42121e-05
1.43332e-05
1.44503e-05
1.4564e-05
1.4675e-05
1.47841e-05
1.48923e-05
1.50003e-05
1.5109e-05
1.52188e-05
1.5329e-05
1.54375e-05
1.55408e-05
1.56329e-05
1.57053e-05
1.57421e-05
1.5718e-05
1.56043e-05
1.54015e-05
1.52561e-05
1.50905e-05
1.53124e-05
1.58247e-05
1.5808e-05
1.51666e-05
1.47256e-05
1.46143e-05
1.47736e-05
1.53168e-05
1.5383e-05
1.48579e-05
1.46578e-05
1.47093e-05
1.49069e-05
1.53169e-05
1.56235e-05
1.53341e-05
1.49686e-05
1.48219e-05
1.31271e-05
1.26636e-05
1.28498e-05
1.30274e-05
1.31971e-05
1.33594e-05
1.35147e-05
1.36633e-05
1.38055e-05
1.39419e-05
1.40726e-05
1.41984e-05
1.43196e-05
1.44367e-05
1.45504e-05
1.46614e-05
1.47705e-05
1.48785e-05
1.49862e-05
1.50943e-05
1.52031e-05
1.53117e-05
1.5418e-05
1.55184e-05
1.56072e-05
1.56756e-05
1.57066e-05
1.56739e-05
1.55523e-05
1.53531e-05
1.52413e-05
1.51317e-05
1.53986e-05
1.58858e-05
1.58229e-05
1.51828e-05
1.47329e-05
1.46104e-05
1.47661e-05
1.53001e-05
1.53761e-05
1.48633e-05
1.4655e-05
1.47047e-05
1.49105e-05
1.53269e-05
1.56372e-05
1.53635e-05
1.49884e-05
1.48261e-05
1.31094e-05
1.26481e-05
1.28346e-05
1.30124e-05
1.31824e-05
1.33449e-05
1.35003e-05
1.36491e-05
1.37915e-05
1.39279e-05
1.40588e-05
1.41846e-05
1.43058e-05
1.44229e-05
1.45366e-05
1.46475e-05
1.47564e-05
1.48641e-05
1.49713e-05
1.50787e-05
1.51862e-05
1.52929e-05
1.53967e-05
1.54938e-05
1.55788e-05
1.56421e-05
1.56659e-05
1.56239e-05
1.54964e-05
1.53062e-05
1.52354e-05
1.51871e-05
1.54953e-05
1.59428e-05
1.58239e-05
1.51858e-05
1.47337e-05
1.46037e-05
1.476e-05
1.52856e-05
1.53655e-05
1.4864e-05
1.46502e-05
1.46991e-05
1.49137e-05
1.53374e-05
1.56511e-05
1.53921e-05
1.50077e-05
1.48294e-05
1.30921e-05
1.2633e-05
1.28198e-05
1.29978e-05
1.31679e-05
1.33306e-05
1.34862e-05
1.36351e-05
1.37776e-05
1.39141e-05
1.4045e-05
1.41708e-05
1.4292e-05
1.44091e-05
1.45227e-05
1.46334e-05
1.4742e-05
1.48493e-05
1.49559e-05
1.50623e-05
1.51683e-05
1.52729e-05
1.53737e-05
1.54672e-05
1.55479e-05
1.56054e-05
1.56213e-05
1.55707e-05
1.54408e-05
1.52661e-05
1.52417e-05
1.52556e-05
1.55951e-05
1.59882e-05
1.58109e-05
1.5178e-05
1.47298e-05
1.45963e-05
1.47562e-05
1.52731e-05
1.53521e-05
1.48612e-05
1.46442e-05
1.46931e-05
1.49168e-05
1.53482e-05
1.56649e-05
1.54194e-05
1.5026e-05
1.48314e-05
1.30757e-05
1.26186e-05
1.28056e-05
1.29838e-05
1.3154e-05
1.33168e-05
1.34725e-05
1.36214e-05
1.3764e-05
1.39005e-05
1.40315e-05
1.41573e-05
1.42784e-05
1.43954e-05
1.45088e-05
1.46192e-05
1.47275e-05
1.48342e-05
1.494e-05
1.50453e-05
1.51496e-05
1.52518e-05
1.53495e-05
1.54392e-05
1.55151e-05
1.55664e-05
1.55747e-05
1.55177e-05
1.53903e-05
1.52372e-05
1.52614e-05
1.53332e-05
1.56893e-05
1.60179e-05
1.57872e-05
1.51636e-05
1.47241e-05
1.45905e-05
1.47555e-05
1.52623e-05
1.53367e-05
1.4856e-05
1.4638e-05
1.46873e-05
1.49199e-05
1.53589e-05
1.56785e-05
1.5445e-05
1.50426e-05
1.48318e-05
1.30604e-05
1.2605e-05
1.27921e-05
1.29703e-05
1.31406e-05
1.33035e-05
1.34592e-05
1.36082e-05
1.37508e-05
1.38873e-05
1.40182e-05
1.4144e-05
1.4265e-05
1.43818e-05
1.4495e-05
1.46051e-05
1.47129e-05
1.48191e-05
1.4924e-05
1.50279e-05
1.51304e-05
1.52301e-05
1.53246e-05
1.54103e-05
1.54812e-05
1.55266e-05
1.55283e-05
1.54682e-05
1.53487e-05
1.52218e-05
1.52935e-05
1.54141e-05
1.57705e-05
1.60315e-05
1.57582e-05
1.51484e-05
1.47204e-05
1.45884e-05
1.47581e-05
1.52523e-05
1.53203e-05
1.48504e-05
1.46326e-05
1.46824e-05
1.49231e-05
1.53691e-05
1.56916e-05
1.54687e-05
1.50573e-05
1.48305e-05
1.30458e-05
1.2592e-05
1.27791e-05
1.29574e-05
1.31278e-05
1.32906e-05
1.34464e-05
1.35954e-05
1.3738e-05
1.38745e-05
1.40054e-05
1.4131e-05
1.42519e-05
1.43685e-05
1.44815e-05
1.45913e-05
1.46986e-05
1.48041e-05
1.4908e-05
1.50106e-05
1.51111e-05
1.52082e-05
1.52995e-05
1.53812e-05
1.54474e-05
1.54873e-05
1.54844e-05
1.5425e-05
1.53183e-05
1.52203e-05
1.53352e-05
1.54924e-05
1.58348e-05
1.60322e-05
1.57303e-05
1.51381e-05
1.4722e-05
1.45918e-05
1.47637e-05
1.52422e-05
1.53046e-05
1.48466e-05
1.46293e-05
1.46792e-05
1.49266e-05
1.53786e-05
1.57043e-05
1.54903e-05
1.50697e-05
1.48273e-05
1.30318e-05
1.25796e-05
1.27667e-05
1.2945e-05
1.31154e-05
1.32783e-05
1.34341e-05
1.35831e-05
1.37257e-05
1.38622e-05
1.3993e-05
1.41186e-05
1.42393e-05
1.43557e-05
1.44684e-05
1.45778e-05
1.46847e-05
1.47894e-05
1.48924e-05
1.49935e-05
1.50921e-05
1.51867e-05
1.52748e-05
1.53528e-05
1.54147e-05
1.54502e-05
1.5445e-05
1.539e-05
1.52996e-05
1.5231e-05
1.53828e-05
1.55637e-05
1.58822e-05
1.60257e-05
1.57095e-05
1.5137e-05
1.47311e-05
1.46013e-05
1.47714e-05
1.52315e-05
1.52908e-05
1.48466e-05
1.46294e-05
1.46781e-05
1.49304e-05
1.53872e-05
1.57161e-05
1.55097e-05
1.50795e-05
1.48221e-05
1.30184e-05
1.25676e-05
1.27548e-05
1.29332e-05
1.31036e-05
1.32666e-05
1.34225e-05
1.35715e-05
1.37141e-05
1.38505e-05
1.39813e-05
1.41067e-05
1.42273e-05
1.43436e-05
1.44559e-05
1.4565e-05
1.46714e-05
1.47754e-05
1.48774e-05
1.49771e-05
1.50739e-05
1.5166e-05
1.52511e-05
1.53257e-05
1.53839e-05
1.54163e-05
1.54113e-05
1.53637e-05
1.52919e-05
1.52516e-05
1.5433e-05
1.56262e-05
1.5916e-05
1.60176e-05
1.56995e-05
1.51478e-05
1.47489e-05
1.46168e-05
1.478e-05
1.52192e-05
1.52797e-05
1.48521e-05
1.46337e-05
1.46797e-05
1.49345e-05
1.53947e-05
1.57271e-05
1.55266e-05
1.50866e-05
1.48151e-05
1.30057e-05
1.25563e-05
1.27436e-05
1.2922e-05
1.30926e-05
1.32556e-05
1.34114e-05
1.35605e-05
1.37031e-05
1.38395e-05
1.39702e-05
1.40956e-05
1.4216e-05
1.43321e-05
1.44442e-05
1.4553e-05
1.46588e-05
1.47622e-05
1.48632e-05
1.49616e-05
1.50566e-05
1.51466e-05
1.52291e-05
1.53007e-05
1.5356e-05
1.53868e-05
1.53839e-05
1.53462e-05
1.52938e-05
1.52795e-05
1.54836e-05
1.56802e-05
1.59409e-05
1.60125e-05
1.57021e-05
1.51712e-05
1.47754e-05
1.46371e-05
1.47882e-05
1.52049e-05
1.5272e-05
1.48644e-05
1.4643e-05
1.4684e-05
1.49389e-05
1.5401e-05
1.57367e-05
1.55404e-05
1.50904e-05
1.4806e-05
1.29939e-05
1.25457e-05
1.27331e-05
1.29116e-05
1.30822e-05
1.32453e-05
1.34012e-05
1.35502e-05
1.36928e-05
1.38292e-05
1.39599e-05
1.40852e-05
1.42055e-05
1.43215e-05
1.44334e-05
1.45418e-05
1.46472e-05
1.475e-05
1.48501e-05
1.49474e-05
1.50408e-05
1.51288e-05
1.52091e-05
1.52783e-05
1.53316e-05
1.5362e-05
1.53631e-05
1.53366e-05
1.53037e-05
1.53126e-05
1.55335e-05
1.57278e-05
1.59617e-05
1.60131e-05
1.57168e-05
1.52062e-05
1.48092e-05
1.46607e-05
1.47949e-05
1.51884e-05
1.52679e-05
1.48842e-05
1.46576e-05
1.4691e-05
1.49433e-05
1.54059e-05
1.57444e-05
1.55504e-05
1.50906e-05
1.47951e-05
1.29829e-05
1.25359e-05
1.27234e-05
1.2902e-05
1.30726e-05
1.32357e-05
1.33917e-05
1.35408e-05
1.36833e-05
1.38198e-05
1.39504e-05
1.40756e-05
1.41959e-05
1.43117e-05
1.44235e-05
1.45317e-05
1.46367e-05
1.47389e-05
1.48383e-05
1.49346e-05
1.50267e-05
1.51131e-05
1.51915e-05
1.5259e-05
1.53111e-05
1.53425e-05
1.53488e-05
1.53344e-05
1.53201e-05
1.53493e-05
1.55826e-05
1.57718e-05
1.59822e-05
1.60206e-05
1.57417e-05
1.52505e-05
1.48484e-05
1.46857e-05
1.47993e-05
1.51696e-05
1.52666e-05
1.49109e-05
1.46774e-05
1.47001e-05
1.49474e-05
1.54093e-05
1.57497e-05
1.55556e-05
1.50866e-05
1.47822e-05
1.29728e-05
1.2527e-05
1.27145e-05
1.28931e-05
1.30638e-05
1.3227e-05
1.3383e-05
1.35321e-05
1.36747e-05
1.38111e-05
1.39418e-05
1.4067e-05
1.41872e-05
1.4303e-05
1.44146e-05
1.45226e-05
1.46274e-05
1.47291e-05
1.48279e-05
1.49233e-05
1.50143e-05
1.50995e-05
1.51766e-05
1.5243e-05
1.52949e-05
1.53282e-05
1.53409e-05
1.53387e-05
1.53418e-05
1.53889e-05
1.56313e-05
1.58144e-05
1.60051e-05
1.60351e-05
1.57738e-05
1.53007e-05
1.48906e-05
1.471e-05
1.48008e-05
1.5149e-05
1.52673e-05
1.49435e-05
1.47017e-05
1.47106e-05
1.49508e-05
1.54108e-05
1.57514e-05
1.55547e-05
1.50776e-05
1.47672e-05
1.29636e-05
1.25188e-05
1.27064e-05
1.28851e-05
1.30558e-05
1.3219e-05
1.33751e-05
1.35242e-05
1.36669e-05
1.38033e-05
1.3934e-05
1.40592e-05
1.41795e-05
1.42952e-05
1.44067e-05
1.45146e-05
1.46192e-05
1.47207e-05
1.4819e-05
1.49137e-05
1.50039e-05
1.50882e-05
1.51645e-05
1.52304e-05
1.52829e-05
1.53191e-05
1.53387e-05
1.53487e-05
1.5368e-05
1.54307e-05
1.56803e-05
1.58576e-05
1.60319e-05
1.60555e-05
1.58099e-05
1.53526e-05
1.49328e-05
1.47318e-05
1.47992e-05
1.5127e-05
1.52688e-05
1.49802e-05
1.47296e-05
1.47217e-05
1.49527e-05
1.54101e-05
1.57487e-05
1.55465e-05
1.50632e-05
1.47504e-05
1.29554e-05
1.25115e-05
1.26992e-05
1.28779e-05
1.30487e-05
1.32119e-05
1.3368e-05
1.35172e-05
1.36599e-05
1.37964e-05
1.39271e-05
1.40524e-05
1.41726e-05
1.42883e-05
1.43999e-05
1.45077e-05
1.46122e-05
1.47135e-05
1.48115e-05
1.49058e-05
1.49955e-05
1.50792e-05
1.51552e-05
1.52213e-05
1.52751e-05
1.5315e-05
1.53419e-05
1.53637e-05
1.53979e-05
1.54745e-05
1.57299e-05
1.59023e-05
1.60628e-05
1.60803e-05
1.58465e-05
1.54021e-05
1.49721e-05
1.47497e-05
1.47947e-05
1.51045e-05
1.52705e-05
1.50186e-05
1.47596e-05
1.47321e-05
1.49526e-05
1.54068e-05
1.57405e-05
1.55302e-05
1.5043e-05
1.4732e-05
1.29481e-05
1.2505e-05
1.26927e-05
1.28714e-05
1.30422e-05
1.32055e-05
1.33616e-05
1.35109e-05
1.36536e-05
1.37902e-05
1.39209e-05
1.40463e-05
1.41666e-05
1.42824e-05
1.4394e-05
1.45019e-05
1.46064e-05
1.47075e-05
1.48054e-05