/*--------------------------------*- C++ -*----------------------------------*\
  =========                 |
  \\      /  F ield         | OpenFOAM: The Open Source CFD Toolbox
   \\    /   O peration     | Website:  https://openfoam.org
    \\  /    A nd           | Version:  9
     \\/     M anipulation  |
\*---------------------------------------------------------------------------*/
FoamFile
{
    format      ascii;
    class       volVectorField;
    location    "0.13";
    object      U;
}
// * * * * * * * * * * * * * * * * * * * * * * * * * * * * * * * * * * * * * //

dimensions      [0 1 -1 0 0 0 0];

internalField   nonuniform List<vector> 
5000
(
(-1.38778e-05 0 -0.00345602)
(8.44117e-06 0 -0.00721144)
(2.11676e-05 0 -0.0106814)
(3.49448e-05 0 -0.0144196)
(5.01852e-05 0 -0.0185631)
(6.6603e-05 0 -0.0231419)
(8.48542e-05 0 -0.0281536)
(0.000105562 0 -0.0336017)
(0.00012935 0 -0.0395022)
(0.000156798 0 -0.0458748)
(0.000188506 0 -0.0527332)
(0.000225177 0 -0.0600778)
(0.000267726 0 -0.067888)
(0.000317483 0 -0.0761108)
(0.000376652 0 -0.0846443)
(0.000449318 0 -0.0933114)
(0.000543678 0 -0.10182)
(0.00067718 0 -0.109702)
(0.000888835 0 -0.116207)
(0.00127019 0 -0.120118)
(0.00204555 0 -0.119364)
(0.00378351 0 -0.110129)
(0.0080491 0 -0.0861208)
(0.0198117 0 -0.0537686)
(0.0556752 0 -0.172693)
(0.127589 0 -1.10263)
(-0.0290143 0 -2.2196)
(-0.103641 0 -0.675218)
(-0.0193536 0 0.317345)
(0.003857 0 0.554685)
(0.0126657 0 0.718975)
(0.015703 0 0.966496)
(0.0204091 0 1.01444)
(0.106601 0 -1.23441)
(-0.0270895 0 -1.78826)
(-0.0301102 0 1.08181)
(0.00202938 0 1.2798)
(-0.00870887 0 1.27436)
(0.0191335 0 1.00764)
(-0.000231394 0 -1.66703)
(-0.0713173 0 -0.941237)
(-0.00398974 0 1.0235)
(-0.00437234 0 1.10872)
(-0.00667338 0 1.00835)
(-0.013025 0 0.990492)
(0.000449039 0 0.60442)
(-0.00184163 0 -0.844976)
(-0.004815 0 0.596482)
(0.00504953 0 0.883852)
(-0.000403069 0 0.813025)
(1.76267e-05 0 -0.00363978)
(6.04284e-05 0 -0.00733311)
(8.85832e-05 0 -0.0108047)
(0.000122456 0 -0.0145523)
(0.000163164 0 -0.0187031)
(0.000210087 0 -0.0232888)
(0.000265045 0 -0.0283086)
(0.000330131 0 -0.0337661)
(0.000407769 0 -0.0396771)
(0.000500684 0 -0.0460607)
(0.00061232 0 -0.0529305)
(0.00074746 0 -0.0602871)
(0.000913123 0 -0.0681104)
(0.00112013 0 -0.0763488)
(0.00138597 0 -0.0849028)
(0.00174033 0 -0.0936016)
(0.00223599 0 -0.102167)
(0.00297086 0 -0.110158)
(0.00413398 0 -0.116893)
(0.00610364 0 -0.121307)
(0.00964857 0 -0.121676)
(0.0163948 0 -0.115034)
(0.0300281 0 -0.0975476)
(0.0572082 0 -0.0837383)
(0.115727 0 -0.239917)
(0.223869 0 -1.09663)
(-0.0201974 0 -1.9464)
(-0.17572 0 -0.720076)
(-0.0363866 0 0.274052)
(0.00755934 0 0.540631)
(0.0330596 0 0.712975)
(0.0503136 0 0.963669)
(0.0641241 0 0.973239)
(0.215878 0 -1.2385)
(-0.0652618 0 -1.64293)
(-0.0680851 0 1.04085)
(0.00221759 0 1.27345)
(-0.0169427 0 1.27263)
(0.0456195 0 0.961018)
(0.0118887 0 -1.57223)
(-0.154234 0 -0.949411)
(-0.0212873 0 1.00065)
(-0.0176097 0 1.10779)
(-0.0186239 0 1.00756)
(-0.0316021 0 0.992058)
(0.00910614 0 0.572981)
(-0.00624286 0 -0.810135)
(-0.0216238 0 0.581128)
(0.00989044 0 0.884555)
(-0.000559183 0 0.813057)
(0.000120688 0 -0.00371387)
(0.000157214 0 -0.00740277)
(0.000195976 0 -0.0108828)
(0.000243579 0 -0.0146473)
(0.000304046 0 -0.018817)
(0.000378873 0 -0.0234228)
(0.000470553 0 -0.0284662)
(0.000582532 0 -0.0339518)
(0.00071921 0 -0.0398955)
(0.000885966 0 -0.0463176)
(0.00108999 0 -0.0532338)
(0.00134148 0 -0.0606485)
(0.00165543 0 -0.0685475)
(0.0020546 0 -0.0768891)
(0.00257461 0 -0.0855911)
(0.00327339 0 -0.0945128)
(0.00424837 0 -0.10343)
(0.00566843 0 -0.112006)
(0.00783406 0 -0.119752)
(0.0112923 0 -0.125989)
(0.0170272 0 -0.129769)
(0.0268697 0 -0.129749)
(0.0451281 0 -0.126045)
(0.079188 0 -0.141573)
(0.139914 0 -0.329056)
(0.243224 0 -1.06214)
(-0.00687555 0 -1.67815)
(-0.18669 0 -0.757768)
(-0.0359562 0 0.190189)
(0.017238 0 0.50467)
(0.0529017 0 0.693779)
(0.0845935 0 0.945098)
(0.103967 0 0.928738)
(0.238957 0 -1.21349)
(-0.0954926 0 -1.48661)
(-0.0867851 0 0.976885)
(0.00208576 0 1.25942)
(-0.014158 0 1.26195)
(0.0634935 0 0.928978)
(0.0310639 0 -1.44775)
(-0.179785 0 -0.971211)
(-0.0387815 0 0.955169)
(-0.0309158 0 1.10736)
(-0.0272872 0 1.00751)
(-0.04292 0 0.993536)
(0.0178024 0 0.548524)
(-0.00972077 0 -0.775426)
(-0.0394409 0 0.554524)
(0.00909192 0 0.883741)
(-0.000811453 0 0.813392)
(0.000240132 0 -0.00379905)
(0.000277256 0 -0.00752794)
(0.000335678 0 -0.0110325)
(0.000402202 0 -0.014829)
(0.000486671 0 -0.0190359)
(0.000593571 0 -0.0236818)
(0.000726389 0 -0.0287701)
(0.000890219 0 -0.0343072)
(0.00109167 0 -0.0403107)
(0.00133901 0 -0.0468031)
(0.00164324 0 -0.0538044)
(0.00201971 0 -0.0613253)
(0.00249041 0 -0.0693621)
(0.0030875 0 -0.0778896)
(0.00385953 0 -0.0868527)
(0.004882 0 -0.096156)
(0.00627579 0 -0.105653)
(0.00823808 0 -0.11514)
(0.0110968 0 -0.124367)
(0.0154137 0 -0.133083)
(0.0221459 0 -0.141116)
(0.0329304 0 -0.14863)
(0.0517235 0 -0.159082)
(0.0862803 0 -0.201199)
(0.142691 0 -0.40837)
(0.218085 0 -1.01604)
(0.00514108 0 -1.45319)
(-0.160117 0 -0.764157)
(-0.0292096 0 0.103673)
(0.0315284 0 0.460273)
(0.072279 0 0.667913)
(0.111709 0 0.919184)
(0.135771 0 0.886029)
(0.222671 0 -1.15312)
(-0.118491 0 -1.35353)
(-0.0923504 0 0.919593)
(0.00106661 0 1.2382)
(-0.00741046 0 1.24295)
(0.0737373 0 0.895092)
(0.0571478 0 -1.337)
(-0.168861 0 -0.965362)
(-0.0549263 0 0.912621)
(-0.0439303 0 1.1034)
(-0.0338271 0 1.0053)
(-0.0513477 0 0.988498)
(0.024752 0 0.521347)
(-0.0105534 0 -0.734358)
(-0.0560496 0 0.531812)
(0.00265134 0 0.87815)
(-0.00253884 0 0.812521)
(0.00039339 0 -0.00389367)
(0.000430726 0 -0.00768641)
(0.000507125 0 -0.0112331)
(0.000593038 0 -0.0150758)
(0.000702427 0 -0.0193352)
(0.000841993 0 -0.0240388)
(0.00101635 0 -0.0291917)
(0.00123214 0 -0.0348031)
(0.00149795 0 -0.0408924)
(0.0018245 0 -0.0474855)
(0.00222585 0 -0.0546076)
(0.00272111 0 -0.0622778)
(0.0033367 0 -0.0705045)
(0.00410996 0 -0.0792814)
(0.00509529 0 -0.0885834)
(0.00637465 0 -0.0983618)
(0.00807436 0 -0.108545)
(0.0103913 0 -0.119053)
(0.0136391 0 -0.129838)
(0.0183408 0 -0.140986)
(0.0253818 0 -0.152913)
(0.0362249 0 -0.16694)
(0.0541763 0 -0.18902)
(0.0862108 0 -0.250466)
(0.135568 0 -0.463192)
(0.18105 0 -0.960381)
(0.0144504 0 -1.27872)
(-0.122657 0 -0.750538)
(-0.021574 0 0.0284614)
(0.0458913 0 0.414868)
(0.0896938 0 0.63973)
(0.131851 0 0.892231)
(0.160132 0 0.855305)
(0.200421 0 -1.06182)
(-0.130579 0 -1.24503)
(-0.0887408 0 0.865248)
(0.00194627 0 1.21314)
(-0.000934998 0 1.2197)
(0.0779434 0 0.857749)
(0.0826706 0 -1.2444)
(-0.147104 0 -0.930578)
(-0.0703497 0 0.879539)
(-0.0565433 0 1.09632)
(-0.039839 0 1.00047)
(-0.0588908 0 0.977119)
(0.0303345 0 0.492248)
(-0.0122047 0 -0.685425)
(-0.0714731 0 0.511484)
(-0.00618607 0 0.868702)
(-0.00608493 0 0.809741)
(0.000552377 0 -0.00399363)
(0.000589356 0 -0.00786774)
(0.00067952 0 -0.011476)
(0.000781975 0 -0.0153808)
(0.000913495 0 -0.0197078)
(0.00108259 0 -0.0244858)
(0.00129487 0 -0.0297222)
(0.00155823 0 -0.0354283)
(0.00188282 0 -0.041626)
(0.00228121 0 -0.048345)
(0.0027696 0 -0.0556159)
(0.00336948 0 -0.0634662)
(0.00410969 0 -0.0719166)
(0.00502989 0 -0.0809791)
(0.00618666 0 -0.0906558)
(0.00766376 0 -0.10094)
(0.00958701 0 -0.111823)
(0.0121461 0 -0.123325)
(0.0156349 0 -0.135561)
(0.0205377 0 -0.14888)
(0.0276627 0 -0.164154)
(0.0383187 0 -0.18366)
(0.0552238 0 -0.215299)
(0.0837545 0 -0.29061)
(0.124586 0 -0.499661)
(0.147617 0 -0.908099)
(0.0206841 0 -1.14789)
(-0.0888946 0 -0.732368)
(-0.0140475 0 -0.0370207)
(0.0579801 0 0.368774)
(0.104319 0 0.610764)
(0.148459 0 0.86554)
(0.179781 0 0.837304)
(0.188015 0 -0.95492)
(-0.127819 0 -1.1528)
(-0.0781363 0 0.812649)
(0.00673747 0 1.18795)
(0.00499247 0 1.19608)
(0.0787702 0 0.819161)
(0.100111 0 -1.16469)
(-0.129858 0 -0.876912)
(-0.0852293 0 0.85644)
(-0.0690249 0 1.0868)
(-0.0461231 0 0.993712)
(-0.0655388 0 0.961396)
(0.0340213 0 0.463132)
(-0.0160003 0 -0.631399)
(-0.0847573 0 0.493881)
(-0.0151718 0 0.85681)
(-0.0111633 0 0.804965)
(0.000663073 0 -0.00409985)
(0.000701055 0 -0.00806859)
(0.000802443 0 -0.0117547)
(0.000918686 0 -0.0157365)
(0.00106917 0 -0.0201459)
(0.0012639 0 -0.0250145)
(0.0015093 0 -0.0303518)
(0.00181439 0 -0.0361712)
(0.00219057 0 -0.0424971)
(0.00265178 0 -0.0493626)
(0.00321574 0 -0.0568041)
(0.00390542 0 -0.0648568)
(0.00475089 0 -0.0735533)
(0.00579281 0 -0.0829225)
(0.00708878 0 -0.0929909)
(0.008723 0 -0.103788)
(0.0108185 0 -0.115363)
(0.0135548 0 -0.127823)
(0.0172046 0 -0.141422)
(0.022215 0 -0.156737)
(0.0293116 0 -0.17505)
(0.0396112 0 -0.199454)
(0.0553125 0 -0.239193)
(0.0802365 0 -0.324449)
(0.112655 0 -0.524782)
(0.121404 0 -0.863545)
(0.0244711 0 -1.04916)
(-0.0624429 0 -0.715535)
(-0.00677896 0 -0.0961452)
(0.0673933 0 0.320733)
(0.115782 0 0.580253)
(0.163282 0 0.837697)
(0.196906 0 0.826394)
(0.18834 0 -0.843475)
(-0.111855 0 -1.06966)
(-0.0631783 0 0.76387)
(0.0145178 0 1.16523)
(0.0108818 0 1.17431)
(0.0787512 0 0.781328)
(0.106581 0 -1.09253)
(-0.122395 0 -0.811909)
(-0.0997223 0 0.840958)
(-0.081595 0 1.0746)
(-0.0526304 0 0.985249)
(-0.0708521 0 0.942445)
(0.0352164 0 0.435138)
(-0.021148 0 -0.574718)
(-0.0950873 0 0.479192)
(-0.0234592 0 0.8428)
(-0.0167271 0 0.798688)
(0.000667002 0 -0.00421432)
(0.000708016 0 -0.0082883)
(0.000819197 0 -0.012064)
(0.00094744 0 -0.0161353)
(0.00111445 0 -0.0206401)
(0.0013313 0 -0.0256134)
(0.00160518 0 -0.0310672)
(0.0019461 0 -0.0370164)
(0.0023665 0 -0.0434875)
(0.00288138 0 -0.0505172)
(0.00350956 0 -0.0581471)
(0.00427484 0 -0.0664205)
(0.00520772 0 -0.0753808)
(0.00634906 0 -0.0850726)
(0.00775673 0 -0.0955457)
(0.00951428 0 -0.106864)
(0.0117398 0 -0.119127)
(0.0146003 0 -0.132524)
(0.0183453 0 -0.147436)
(0.0233708 0 -0.164632)
(0.0303094 0 -0.185737)
(0.0401566 0 -0.214496)
(0.0546499 0 -0.260884)
(0.0762586 0 -0.352546)
(0.10138 0 -0.541368)
(0.101752 0 -0.825435)
(0.0266615 0 -0.972899)
(-0.0426517 0 -0.70047)
(-0.000554512 0 -0.149572)
(0.0737087 0 0.270961)
(0.123676 0 0.547287)
(0.175437 0 0.807898)
(0.211597 0 0.817503)
(0.196315 0 -0.733411)
(-0.0887476 0 -0.991306)
(-0.0471895 0 0.720631)
(0.0229222 0 1.1456)
(0.0167549 0 1.15531)
(0.0791593 0 0.746217)
(0.102901 0 -1.02336)
(-0.124034 0 -0.740355)
(-0.113725 0 0.830026)
(-0.0939287 0 1.05937)
(-0.0588392 0 0.974685)
(-0.0745207 0 0.920899)
(0.0339344 0 0.409056)
(-0.0265615 0 -0.517648)
(-0.102163 0 0.466931)
(-0.030696 0 0.827092)
(-0.0218156 0 0.791123)
(0.000506378 0 -0.00433936)
(0.00055247 0 -0.0085278)
(0.000672514 0 -0.0124017)
(0.000811746 0 -0.0165722)
(0.000993624 0 -0.0211825)
(0.00122982 0 -0.0262722)
(0.00152813 0 -0.0318552)
(0.00189942 0 -0.0379476)
(0.00235698 0 -0.0445779)
(0.00291666 0 -0.0517858)
(0.00359794 0 -0.0596185)
(0.00442494 0 -0.0681265)
(0.00542797 0 -0.077364)
(0.00664751 0 -0.0873906)
(0.00814086 0 -0.0982772)
(0.00998887 0 -0.110119)
(0.012301 0 -0.123062)
(0.0152303 0 -0.137366)
(0.0190137 0 -0.153518)
(0.0240155 0 -0.172455)
(0.0307671 0 -0.196074)
(0.0401389 0 -0.228562)
(0.053487 0 -0.280147)
(0.0721577 0 -0.375246)
(0.0913203 0 -0.551415)
(0.0870202 0 -0.792622)
(0.0277895 0 -0.912835)
(-0.0281005 0 -0.687145)
(0.00396145 0 -0.197195)
(0.0764136 0 0.220735)
(0.127616 0 0.511903)
(0.182948 0 0.776529)
(0.222058 0 0.808431)
(0.204691 0 -0.628517)
(-0.0646036 0 -0.914766)
(-0.0331004 0 0.68407)
(0.0299718 0 1.12823)
(0.0224553 0 1.1389)
(0.0800902 0 0.716057)
(0.091654 0 -0.953366)
(-0.131389 0 -0.666255)
(-0.126472 0 0.821105)
(-0.105055 0 1.04126)
(-0.0641217 0 0.961553)
(-0.076352 0 0.897427)
(0.0308401 0 0.385619)
(-0.0314961 0 -0.462089)
(-0.106182 0 0.456722)
(-0.0367246 0 0.810283)
(-0.025961 0 0.782114)
(0.000128373 0 -0.00447563)
(0.000182497 0 -0.00878865)
(0.000309014 0 -0.0127685)
(0.000458046 0 -0.017045)
(0.000653867 0 -0.0217687)
(0.000907229 0 -0.0269833)
(0.00122642 0 -0.0327048)
(0.00162301 0 -0.0389505)
(0.00211096 0 -0.0457503)
(0.00270668 0 -0.053147)
(0.00342997 0 -0.0611924)
(0.00430467 0 -0.0699443)
(0.0053604 0 -0.0794663)
(0.00663699 0 -0.0898319)
(0.00819144 0 -0.101131)
(0.0101029 0 -0.113487)
(0.0124743 0 -0.127089)
(0.0154456 0 -0.142256)
(0.0192347 0 -0.159565)
(0.0241724 0 -0.180092)
(0.0307253 0 -0.20596)
(0.0396333 0 -0.24162)
(0.0518969 0 -0.297134)
(0.0679709 0 -0.393481)
(0.0824293 0 -0.55701)
(0.0757023 0 -0.764441)
(0.0280409 0 -0.864704)
(-0.017675 0 -0.675511)
(0.00658884 0 -0.239254)
(0.0754371 0 0.171231)
(0.127508 0 0.47478)
(0.184335 0 0.744451)
(0.226154 0 0.798575)
(0.208439 0 -0.531054)
(-0.0430729 0 -0.838872)
(-0.0228476 0 0.653889)
(0.0345697 0 1.11232)
(0.0281206 0 1.12442)
(0.0811476 0 0.692691)
(0.0761077 0 -0.880214)
(-0.140504 0 -0.593167)
(-0.136704 0 0.812415)
(-0.113709 0 1.02079)
(-0.0679558 0 0.94576)
(-0.0762973 0 0.872748)
(0.0268168 0 0.365216)
(-0.0356653 0 -0.40924)
(-0.107654 0 0.448408)
(-0.0416104 0 0.792926)
(-0.0292035 0 0.771546)
(-0.000511057 0 -0.00462354)
(-0.000451089 0 -0.00907048)
(-0.000316724 0 -0.0131625)
(-0.000157479 0 -0.0175509)
(5.05339e-05 0 -0.0223938)
(0.00031854 0 -0.0277394)
(0.000655163 0 -0.0336059)
(0.00107236 0 -0.0400116)
(0.00158448 0 -0.0469876)
(0.00220835 0 -0.0545794)
(0.00296391 0 -0.0628431)
(0.00387473 0 -0.071843)
(0.00496964 0 -0.081652)
(0.00628759 0 -0.0923558)
(0.0078842 0 -0.104062)
(0.0098345 0 -0.11692)
(0.0122334 0 -0.131156)
(0.0152136 0 -0.147145)
(0.0189817 0 -0.165539)
(0.0238294 0 -0.18753)
(0.0301675 0 -0.215404)
(0.03861 0 -0.253752)
(0.0498346 0 -0.312147)
(0.0636262 0 -0.408215)
(0.0744617 0 -0.559722)
(0.0666126 0 -0.740152)
(0.0274543 0 -0.82535)
(-0.0105785 0 -0.66519)
(0.00741829 0 -0.276048)
(0.071193 0 0.123359)
(0.123622 0 0.436866)
(0.179415 0 0.71263)
(0.222949 0 0.787926)
(0.20591 0 -0.442052)
(-0.0259255 0 -0.764097)
(-0.0164559 0 0.628954)
(0.0369807 0 1.09728)
(0.0336315 0 1.11099)
(0.0819589 0 0.677105)
(0.0596062 0 -0.803372)
(-0.148021 0 -0.523631)
(-0.143194 0 0.802915)
(-0.118825 0 0.998731)
(-0.0700522 0 0.927671)
(-0.0745895 0 0.847501)
(0.0225724 0 0.347697)
(-0.0390712 0 -0.359284)
(-0.107198 0 0.441891)
(-0.0455826 0 0.77546)
(-0.0318367 0 0.759537)
(-0.00144573 0 -0.00478294)
(-0.00137959 0 -0.00937115)
(-0.00123924 0 -0.0135802)
(-0.00107113 0 -0.0180854)
(-0.000852565 0 -0.0230522)
(-0.000572141 0 -0.0285333)
(-0.000221132 0 -0.0345492)
(0.000212519 0 -0.0411193)
(0.000743283 0 -0.0482758)
(0.00138802 0 -0.0560667)
(0.00216647 0 -0.0645522)
(0.00310146 0 -0.0738026)
(0.00422071 0 -0.083899)
(0.00556216 0 -0.0949388)
(0.00718049 0 -0.107046)
(0.00914766 0 -0.120393)
(0.011551 0 -0.135238)
(0.0145141 0 -0.152004)
(0.0182323 0 -0.171412)
(0.0229644 0 -0.194749)
(0.0290641 0 -0.224411)
(0.0370243 0 -0.265006)
(0.0472498 0 -0.325419)
(0.0590532 0 -0.420162)
(0.0671272 0 -0.560514)
(0.0588667 0 -0.719004)
(0.026037 0 -0.792462)
(-0.00616757 0 -0.65569)
(0.00668344 0 -0.30779)
(0.0643644 0 0.0779197)
(0.116522 0 0.39919)
(0.169214 0 0.682003)
(0.213206 0 0.776508)
(0.198071 0 -0.361749)
(-0.0129252 0 -0.6916)
(-0.0128362 0 0.608382)
(0.038083 0 1.08196)
(0.0388683 0 1.09773)
(0.0824346 0 0.669233)
(0.0451026 0 -0.723882)
(-0.151556 0 -0.458927)
(-0.145174 0 0.792244)
(-0.119867 0 0.976057)
(-0.0704119 0 0.908062)
(-0.0717996 0 0.82227)
(0.0185609 0 0.332596)
(-0.0416575 0 -0.312039)
(-0.105416 0 0.437064)
(-0.0488754 0 0.758268)
(-0.0342481 0 0.746479)
(-0.00270316 0 -0.00495209)
(-0.00263038 0 -0.00968845)
(-0.00248601 0 -0.0140188)
(-0.00231103 0 -0.0186445)
(-0.00208408 0 -0.0237386)
(-0.00179412 0 -0.0293581)
(-0.00143251 0 -0.035526)
(-0.000987329 0 -0.0422625)
(-0.000444224 0 -0.0496012)
(0.000213545 0 -0.0575923)
(0.00100548 0 -0.0662999)
(0.00195386 0 -0.0757996)
(0.0030854 0 -0.08618)
(0.00443674 0 -0.0975491)
(0.00606075 0 -0.110046)
(0.00802566 0 -0.123864)
(0.010412 0 -0.139292)
(0.0133335 0 -0.156793)
(0.0169703 0 -0.177147)
(0.021554 0 -0.201718)
(0.0273867 0 -0.232962)
(0.0348482 0 -0.275403)
(0.0441185 0 -0.337119)
(0.0541936 0 -0.429838)
(0.0601453 0 -0.559975)
(0.0518417 0 -0.70038)
(0.0238172 0 -0.764427)
(-0.00392408 0 -0.6466)
(0.00466693 0 -0.334725)
(0.0557151 0 0.0355746)
(0.106932 0 0.362636)
(0.155374 0 0.653254)
(0.198822 0 0.764251)
(0.187057 0 -0.290309)
(-0.00260925 0 -0.622535)
(-0.0104942 0 0.591403)
(0.0387554 0 1.06571)
(0.043769 0 1.08411)
(0.0826881 0 0.668058)
(0.0347536 0 -0.643659)
(-0.149762 0 -0.399351)
(-0.142496 0 0.780617)
(-0.116902 0 0.953819)
(-0.0692562 0 0.887979)
(-0.0684984 0 0.797652)
(0.0149031 0 0.319703)
(-0.0434223 0 -0.267556)
(-0.102675 0 0.433765)
(-0.0515572 0 0.741732)
(-0.0366976 0 0.733002)
(-0.00430659 0 -0.00512971)
(-0.00422682 0 -0.0100197)
(-0.00407999 0 -0.0144741)
(-0.00389966 0 -0.0192223)
(-0.0036661 0 -0.0244455)
(-0.00336901 0 -0.0302045)
(-0.00299979 0 -0.0365242)
(-0.00254689 0 -0.0434264)
(-0.00199644 0 -0.0509458)
(-0.00133207 0 -0.0591346)
(-0.000534663 0 -0.0680607)
(0.00041735 0 -0.0778048)
(0.00154937 0 -0.0884627)
(0.0028962 0 -0.100152)
(0.00450831 0 -0.113026)
(0.00645008 0 -0.127298)
(0.00879618 0 -0.143282)
(0.0116513 0 -0.161478)
(0.0151782 0 -0.182713)
(0.0195844 0 -0.208404)
(0.0251247 0 -0.24103)
(0.032075 0 -0.284949)
(0.0404329 0 -0.347386)
(0.0489962 0 -0.437639)
(0.0532834 0 -0.558495)
(0.0451207 0 -0.68381)
(0.0208371 0 -0.740136)
(-0.00347042 0 -0.637703)
(0.00161046 0 -0.357144)
(0.0459319 0 -0.00323193)
(0.0955708 0 0.327774)
(0.139451 0 0.626622)
(0.181857 0 0.750995)
(0.174966 0 -0.22801)
(0.00658878 0 -0.557982)
(-0.00808235 0 0.57747)
(0.0396062 0 1.04864)
(0.0481952 0 1.07002)
(0.0828453 0 0.671857)
(0.0296365 0 -0.564854)
(-0.142344 0 -0.344481)
(-0.135599 0 0.768651)
(-0.110533 0 0.933034)
(-0.066918 0 0.868549)
(-0.0650641 0 0.774197)
(0.0115247 0 0.308878)
(-0.0444535 0 -0.225955)
(-0.0991263 0 0.431778)
(-0.0535006 0 0.726233)
(-0.0392383 0 0.719855)
(-0.00627228 0 -0.00531505)
(-0.00618527 0 -0.0103631)
(-0.00603698 0 -0.0149432)
(-0.00585245 0 -0.0198149)
(-0.00561382 0 -0.0251676)
(-0.00531172 0 -0.0310657)
(-0.00493774 0 -0.0375363)
(-0.00448096 0 -0.0446022)
(-0.00392836 0 -0.0522993)
(-0.00326425 0 -0.0606824)
(-0.00247001 0 -0.0698223)
(-0.0015247 0 -0.0798048)
(-0.00040425 0 -0.0907319)
(0.000923872 0 -0.10273)
(0.00250721 0 -0.115966)
(0.00440674 0 -0.130669)
(0.00669247 0 -0.147178)
(0.00945995 0 -0.166023)
(0.0128537 0 -0.188068)
(0.0170573 0 -0.214765)
(0.022281 0 -0.24858)
(0.0287089 0 -0.293652)
(0.0361929 0 -0.356347)
(0.0434214 0 -0.443876)
(0.0463732 0 -0.556335)
(0.0384272 0 -0.668925)
(0.0170982 0 -0.718796)
(-0.00451989 0 -0.628899)
(-0.00229662 0 -0.375417)
(0.035486 0 -0.0382779)
(0.0829972 0 0.294897)
(0.122461 0 0.60201)
(0.163787 0 0.736396)
(0.163108 0 -0.175117)
(0.0157985 0 -0.498136)
(-0.00477967 0 0.566333)
(0.0406804 0 1.03125)
(0.0518384 0 1.05566)
(0.082885 0 0.678516)
(0.0296699 0 -0.489494)
(-0.129976 0 -0.293436)
(-0.125426 0 0.757185)
(-0.101759 0 0.914527)
(-0.0637763 0 0.850752)
(-0.0616943 0 0.752321)
(0.00831531 0 0.299905)
(-0.0448768 0 -0.187345)
(-0.0948293 0 0.430829)
(-0.0544638 0 0.712104)
(-0.0415123 0 0.70767)
(-0.00861483 0 -0.00550796)
(-0.00852046 0 -0.0107183)
(-0.00837158 0 -0.0154251)
(-0.00818403 0 -0.0204203)
(-0.0079422 0 -0.0259017)
(-0.00763748 0 -0.0319375)
(-0.00726172 0 -0.0385563)
(-0.0068049 0 -0.0457822)
(-0.00625504 0 -0.0536526)
(-0.00559725 0 -0.062224)
(-0.00481337 0 -0.0715706)
(-0.00388298 0 -0.0817821)
(-0.00278332 0 -0.0929665)
(-0.00148462 0 -0.105259)
(5.66994e-05 0 -0.118835)
(0.00189777 0 -0.133943)
(0.00410473 0 -0.150942)
(0.00676448 0 -0.170387)
(0.0100035 0 -0.193171)
(0.0139809 0 -0.220766)
(0.0188655 0 -0.255592)
(0.0247618 0 -0.301529)
(0.0314092 0 -0.364117)
(0.0374509 0 -0.448788)
(0.0393065 0 -0.55366)
(0.0315861 0 -0.655413)
(0.0126008 0 -0.69979)
(-0.00689545 0 -0.620111)
(-0.006969 0 -0.389974)
(0.0246428 0 -0.0695336)
(0.0695442 0 0.264157)
(0.104804 0 0.57919)
(0.14526 0 0.720005)
(0.152031 0 -0.131838)
(0.0250932 0 -0.442912)
(-0.000679705 0 0.557736)
(0.0416489 0 1.01413)
(0.0542202 0 1.04133)
(0.0825497 0 0.685869)
(0.0337487 0 -0.419256)
(-0.11411 0 -0.245194)
(-0.113292 0 0.747105)
(-0.091834 0 0.898829)
(-0.0602393 0 0.835258)
(-0.058506 0 0.732276)
(0.00519364 0 0.292517)
(-0.0448083 0 -0.15183)
(-0.0898362 0 0.430573)
(-0.0542652 0 0.699554)
(-0.0430864 0 0.696801)
(-0.0113419 0 -0.00570793)
(-0.01124 0 -0.0110835)
(-0.0110911 0 -0.0159164)
(-0.0109014 0 -0.0210331)
(-0.0106574 0 -0.0266406)
(-0.0103516 0 -0.0328101)
(-0.00997628 0 -0.0395721)
(-0.00952241 0 -0.0469518)
(-0.00897922 0 -0.0549879)
(-0.00833275 0 -0.063739)
(-0.0075654 0 -0.0732821)
(-0.00665721 0 -0.0837109)
(-0.00558662 0 -0.095139)
(-0.00432684 0 -0.107708)
(-0.00283904 0 -0.121605)
(-0.00107078 0 -0.137091)
(0.00104034 0 -0.154544)
(0.00357349 0 -0.174542)
(0.00663839 0 -0.197997)
(0.0103699 0 -0.226383)
(0.0148985 0 -0.262054)
(0.0202606 0 -0.308605)
(0.0261106 0 -0.370795)
(0.0310905 0 -0.452556)
(0.0320231 0 -0.550566)
(0.0244969 0 -0.643003)
(0.00735048 0 -0.682633)
(-0.0104779 0 -0.611286)
(-0.012411 0 -0.401247)
(0.0134877 0 -0.0970655)
(0.0553607 0 0.235707)
(0.0864497 0 0.558015)
(0.126233 0 0.701313)
(0.141594 0 -0.0982966)
(0.033806 0 -0.392185)
(0.00344714 0 0.551844)
(0.0418318 0 0.997831)
(0.0547248 0 1.02737)
(0.0813566 0 0.692011)
(0.0400633 0 -0.355303)
(-0.0967074 0 -0.198822)
(-0.100698 0 0.739189)
(-0.0820732 0 0.886111)
(-0.0567319 0 0.82234)
(-0.0556137 0 0.714149)
(0.00210344 0 0.286421)
(-0.0443479 0 -0.119512)
(-0.0842305 0 0.430626)
(-0.0528684 0 0.68863)
(-0.043691 0 0.687412)
(-0.0144496 0 -0.00591459)
(-0.0143401 0 -0.0114576)
(-0.0141921 0 -0.0164153)
(-0.014001 0 -0.0216504)
(-0.0137558 0 -0.0273799)
(-0.0134503 0 -0.0336782)
(-0.0130776 0 -0.0405772)
(-0.0126296 0 -0.0481034)
(-0.0120968 0 -0.0562969)
(-0.0114664 0 -0.065218)
(-0.0107216 0 -0.0749464)
(-0.00984311 0 -0.0855797)
(-0.00881014 0 -0.0972366)
(-0.0075984 0 -0.110066)
(-0.00617394 0 -0.124262)
(-0.00448971 0 -0.140099)
(-0.0024877 0 -0.15797)
(-9.5825e-05 0 -0.17847)
(0.00278055 0 -0.202526)
(0.00625302 0 -0.2316)
(0.010416 0 -0.26796)
(0.0152483 0 -0.314903)
(0.0203415 0 -0.376464)
(0.0243632 0 -0.455318)
(0.0244934 0 -0.547101)
(0.0170987 0 -0.63145)
(0.00137186 0 -0.666935)
(-0.0151732 0 -0.60237)
(-0.0186405 0 -0.409643)
(0.00203241 0 -0.120951)
(0.0404751 0 0.209778)
(0.0672103 0 0.538491)
(0.106347 0 0.679894)
(0.131252 0 -0.0744602)
(0.040908 0 -0.345734)
(0.00653048 0 0.548922)
(0.0403966 0 0.98279)
(0.0527143 0 1.01403)
(0.0787113 0 0.695504)
(0.0465098 0 -0.298195)
(-0.0799245 0 -0.153666)
(-0.0890957 0 0.733943)
(-0.0736146 0 0.876191)
(-0.0536478 0 0.81189)
(-0.0531392 0 0.697883)
(-0.000992573 0 0.281319)
(-0.0435841 0 -0.0904891)
(-0.0781264 0 0.430602)
(-0.0503534 0 0.679259)
(-0.0432272 0 0.679562)
(-0.0179334 0 -0.00612832)
(-0.0178164 0 -0.0118418)
(-0.0176693 0 -0.0169232)
(-0.0174772 0 -0.0222736)
(-0.0172318 0 -0.0281207)
(-0.0169281 0 -0.0345422)
(-0.0165601 0 -0.0415716)
(-0.0161207 0 -0.0492366)
(-0.0156012 0 -0.0575784)
(-0.0149901 0 -0.0666589)
(-0.014272 0 -0.0765602)
(-0.0134288 0 -0.0873834)
(-0.0124405 0 -0.099252)
(-0.0112845 0 -0.112321)
(-0.00993097 0 -0.126793)
(-0.00833855 0 -0.142951)
(-0.0064544 0 -0.161202)
(-0.00421338 0 -0.182154)
(-0.0015345 0 -0.206741)
(0.00167074 0 -0.236403)
(0.00546538 0 -0.273306)
(0.00977896 0 -0.320448)
(0.0141549 0 -0.381196)
(0.0173032 0 -0.457173)
(0.016712 0 -0.543276)
(0.00936642 0 -0.620528)
(-0.00528995 0 -0.652348)
(-0.0208902 0 -0.593312)
(-0.0256567 0 -0.415506)
(-0.00970286 0 -0.141348)
(0.0248922 0 0.18671)
(0.046943 0 0.520718)
(0.0853386 0 0.655491)
(0.120337 0 -0.0599154)
(0.0452881 0 -0.303198)
(0.00753157 0 0.54912)
(0.0366309 0 0.969243)
(0.0477282 0 1.00145)
(0.0740879 0 0.69549)
(0.0510916 0 -0.24789)
(-0.0657394 0 -0.109472)
(-0.0796369 0 0.731484)
(-0.0672031 0 0.868595)
(-0.0512726 0 0.803501)
(-0.0511639 0 0.683305)
(-0.00409762 0 0.276921)
(-0.0425924 0 -0.0648438)
(-0.0716528 0 0.430155)
(-0.0468689 0 0.671298)
(-0.0417548 0 0.673216)
(-0.0217839 0 -0.00634923)
(-0.0216594 0 -0.0122351)
(-0.0215131 0 -0.0174373)
(-0.0213198 0 -0.0228987)
(-0.021074 0 -0.0288574)
(-0.0207732 0 -0.0353952)
(-0.0204118 0 -0.0425471)
(-0.0199829 0 -0.0503417)
(-0.0194784 0 -0.0588213)
(-0.0188881 0 -0.0680496)
(-0.0181986 0 -0.0781105)
(-0.0173938 0 -0.0891082)
(-0.0164546 0 -0.10117)
(-0.01536 0 -0.114458)
(-0.0140831 0 -0.129181)
(-0.0125878 0 -0.14563)
(-0.0108268 0 -0.164223)
(-0.00874242 0 -0.185578)
(-0.00626589 0 -0.21063)
(-0.00332892 0 -0.240787)
(0.000100432 0 -0.2781)
(0.00390958 0 -0.325272)
(0.0076083 0 -0.385058)
(0.00995431 0 -0.4582)
(0.0087006 0 -0.539085)
(0.00131373 0 -0.61004)
(-0.0125672 0 -0.638562)
(-0.027509 0 -0.584045)
(-0.0334547 0 -0.419088)
(-0.0216689 0 -0.158285)
(0.00872187 0 0.166903)
(0.0256579 0 0.5047)
(0.0632493 0 0.628011)
(0.108208 0 -0.0538167)
(0.0459284 0 -0.26415)
(0.00568453 0 0.55235)
(0.0301658 0 0.957217)
(0.0396888 0 0.989644)
(0.0672119 0 0.691718)
(0.0522584 0 -0.203831)
(-0.0556153 0 -0.0663979)
(-0.0729651 0 0.731483)
(-0.0630738 0 0.86266)
(-0.0497136 0 0.796597)
(-0.0496738 0 0.670159)
(-0.0071588 0 0.272956)
(-0.0414248 0 -0.0426264)
(-0.0649382 0 0.428999)
(-0.0425953 0 0.664583)
(-0.0394439 0 0.668297)
(-0.0259807 0 -0.00657716)
(-0.0258491 0 -0.0126361)
(-0.0257041 0 -0.0179554)
(-0.0255091 0 -0.0235216)
(-0.0252628 0 -0.0295848)
(-0.024966 0 -0.0362306)
(-0.0246128 0 -0.0434955)
(-0.0241962 0 -0.0514091)
(-0.0237083 0 -0.0600151)
(-0.02314 0 -0.0693785)
(-0.0224804 0 -0.0795854)
(-0.0217153 0 -0.0907424)
(-0.0208279 0 -0.102981)
(-0.0197981 0 -0.116467)
(-0.0186014 0 -0.131417)
(-0.017206 0 -0.148129)
(-0.0155705 0 -0.167028)
(-0.0136445 0 -0.18874)
(-0.0113707 0 -0.214192)
(-0.00869881 0 -0.244756)
(-0.00562561 0 -0.282359)
(-0.00230016 0 -0.329411)
(0.000762442 0 -0.388112)
(0.00236827 0 -0.458462)
(0.000497255 0 -0.534516)
(-0.00699937 0 -0.599821)
(-0.0203427 0 -0.625324)
(-0.0348573 0 -0.574504)
(-0.041863 0 -0.420614)
(-0.0337739 0 -0.171789)
(-0.00802456 0 0.150622)
(0.00354329 0 0.49011)
(0.0405113 0 0.597836)
(0.0942842 0 -0.0549116)
(0.0420502 0 -0.228214)
(0.000656301 0 0.558149)
(0.0211012 0 0.946625)
(0.0290312 0 0.978473)
(0.0581831 0 0.684525)
(0.0491299 0 -0.165077)
(-0.0502819 0 -0.0249868)
(-0.0691097 0 0.733209)
(-0.0609633 0 0.85766)
(-0.0488687 0 0.790567)
(-0.0485371 0 0.658161)
(-0.0100606 0 0.2692)
(-0.0401009 0 -0.0238328)
(-0.0580948 0 0.426907)
(-0.0377024 0 0.658967)
(-0.0364836 0 0.664765)
(-0.0305066 0 -0.00681305)
(-0.0303685 0 -0.0130474)
(-0.0302231 0 -0.0184811)
(-0.0300251 0 -0.0241465)
(-0.0297785 0 -0.0303072)
(-0.0294864 0 -0.0370528)
(-0.0291422 0 -0.0444208)
(-0.0287389 0 -0.052442)
(-0.0282688 0 -0.0611618)
(-0.0277242 0 -0.070647)
(-0.0270956 0 -0.0809854)
(-0.0263714 0 -0.0922862)
(-0.0255366 0 -0.104684)
(-0.0245729 0 -0.118348)
(-0.0234577 0 -0.133501)
(-0.0221627 0 -0.150448)
(-0.0206519 0 -0.169619)
(-0.0188819 0 -0.191643)
(-0.0168066 0 -0.217437)
(-0.0143919 0 -0.248325)
(-0.0116601 0 -0.286108)
(-0.00879137 0 -0.332906)
(-0.00631964 0 -0.390414)
(-0.00539201 0 -0.458015)
(-0.00783523 0 -0.529558)
(-0.0154866 0 -0.589734)
(-0.0284714 0 -0.612444)
(-0.0427396 0 -0.564648)
(-0.0507194 0 -0.420298)
(-0.0459001 0 -0.182054)
(-0.0253361 0 0.137911)
(-0.018828 0 0.477107)
(0.0179754 0 0.565602)
(0.0778991 0 -0.0615431)
(0.0332118 0 -0.195227)
(-0.00731421 0 0.565631)
(0.0101007 0 0.937387)
(0.0166755 0 0.96766)
(0.0474962 0 0.674754)
(0.0415689 0 -0.130546)
(-0.0496725 0 0.0139544)
(-0.0675171 0 0.735656)
(-0.0602275 0 0.852934)
(-0.0484532 0 0.784888)
(-0.0475266 0 0.647049)
(-0.0126421 0 0.265499)
(-0.0386037 0 -0.0083879)
(-0.0512002 0 0.423716)
(-0.0323132 0 0.654324)
(-0.0329983 0 0.662634)
(-0.0353516 0 -0.00705916)
(-0.0352063 0 -0.0134728)
(-0.0350564 0 -0.0190182)
(-0.0348532 0 -0.0247779)
(-0.0346062 0 -0.0310297)
(-0.0343177 0 -0.0378666)
(-0.0339812 0 -0.0453276)
(-0.0335903 0 -0.053445)
(-0.0331384 0 -0.0622658)
(-0.0326183 0 -0.0718588)
(-0.0320219 0 -0.082314)
(-0.0313392 0 -0.0937425)
(-0.0305571 0 -0.106281)
(-0.0296589 0 -0.120104)
(-0.0286243 0 -0.135437)
(-0.0274279 0 -0.152591)
(-0.0260384 0 -0.172001)
(-0.0244191 0 -0.194295)
(-0.0225336 0 -0.220375)
(-0.0203631 0 -0.251512)
(-0.0179518 0 -0.289373)
(-0.0155066 0 -0.335801)
(-0.0135749 0 -0.392028)
(-0.013258 0 -0.456919)
(-0.0162172 0 -0.524221)
(-0.0240402 0 -0.579688)
(-0.0367892 0 -0.599778)
(-0.0509405 0 -0.554441)
(-0.0598631 0 -0.418284)
(-0.0580068 0 -0.18918)
(-0.0427672 0 0.128719)
(-0.0405509 0 0.466019)
(-0.0036333 0 0.531635)
(0.0587325 0 -0.0716088)
(0.0195664 0 -0.165294)
(-0.0173793 0 0.573649)
(-0.00172046 0 0.929157)
(0.00385352 0 0.956765)
(0.0359728 0 0.663635)
(0.0302119 0 -0.0992145)
(-0.0529541 0 0.0495198)
(-0.0672608 0 0.737711)
(-0.0600256 0 0.847995)
(-0.0480726 0 0.779198)
(-0.0463748 0 0.636629)
(-0.0147294 0 0.261775)
(-0.0368816 0 0.00385458)
(-0.0442855 0 0.419312)
(-0.026484 0 0.650534)
(-0.0290037 0 0.661947)
(-0.0404975 0 -0.00731839)
(-0.0403428 0 -0.0139146)
(-0.0401859 0 -0.0195675)
(-0.0399775 0 -0.0254159)
(-0.0397293 0 -0.031751)
(-0.0394423 0 -0.0386696)
(-0.0391113 0 -0.0462128)
(-0.0387313 0 -0.0544147)
(-0.0382966 0 -0.0633241)
(-0.0378011 0 -0.0730116)
(-0.0372373 0 -0.083569)
(-0.0365962 0 -0.0951095)
(-0.0358659 0 -0.107772)
(-0.0350319 0 -0.121734)
(-0.0340755 0 -0.137226)
(-0.0329743 0 -0.154562)
(-0.0317007 0 -0.174181)
(-0.0302241 0 -0.196706)
(-0.0285166 0 -0.223022)
(-0.0265726 0 -0.254341)
(-0.0244551 0 -0.292192)
(-0.0223932 0 -0.338149)
(-0.0209428 0 -0.393023)
(-0.0211597 0 -0.455246)
(-0.024562 0 -0.518539)
(-0.0325377 0 -0.56964)
(-0.0451115 0 -0.587233)
(-0.0592078 0 -0.543855)
(-0.0690236 0 -0.414675)
(-0.0698488 0 -0.193258)
(-0.0596105 0 0.122927)
(-0.0609456 0 0.456479)
(-0.0238369 0 0.496732)
(0.0371887 0 -0.0826541)
(0.00205019 0 -0.139001)
(-0.0283552 0 0.580588)
(-0.0131283 0 0.921105)
(-0.00797245 0 0.94567)
(0.0246945 0 0.652793)
(0.0163441 0 -0.0700419)
(-0.0587366 0 0.0806508)
(-0.0672864 0 0.73832)
(-0.0595045 0 0.842585)
(-0.0473153 0 0.773335)
(-0.0448376 0 0.626794)