/*--------------------------------*- C++ -*----------------------------------*\
  =========                 |
  \\      /  F ield         | OpenFOAM: The Open Source CFD Toolbox
   \\    /   O peration     | Website:  https://openfoam.org
    \\  /    A nd           | Version:  9
     \\/     M anipulation  |
\*---------------------------------------------------------------------------*/
FoamFile
{
    format      ascii;
    class       surfaceVectorField;
    location    "0.13";
    object      Uf;
}
// * * * * * * * * * * * * * * * * * * * * * * * * * * * * * * * * * * * * * //

dimensions      [0 1 -1 0 0 0 0];

internalField   nonuniform List<vector> 
9850
(
(6.36376e-07 0 -0.00528886)
(1.87444e-06 0 -0.00354621)
(1.47578e-05 0 -0.00890495)
(3.44348e-05 0 -0.00726965)
(2.80797e-05 0 -0.0125058)
(5.48754e-05 0 -0.0107402)
(4.25027e-05 0 -0.0164419)
(7.87004e-05 0 -0.0144831)
(5.81669e-05 0 -0.0207978)
(0.000106674 0 -0.0186302)
(7.53796e-05 0 -0.0255879)
(0.000138345 0 -0.0232122)
(9.47134e-05 0 -0.0308126)
(0.00017495 0 -0.0282274)
(0.000116814 0 -0.0364815)
(0.000217846 0 -0.0336794)
(0.000142278 0 -0.0426124)
(0.00026856 0 -0.039584)
(0.000171679 0 -0.0492221)
(0.000328741 0 -0.0459604)
(0.00020565 0 -0.0563178)
(0.000400413 0 -0.0528222)
(0.000244967 0 -0.0638896)
(0.000486319 0 -0.0601697)
(0.000290686 0 -0.0719012)
(0.000590425 0 -0.0679819)
(0.000344441 0 -0.0802756)
(0.000718805 0 -0.0762061)
(0.0004091 0 -0.0888743)
(0.00088131 0 -0.0847405)
(0.000490217 0 -0.0974642)
(0.00109483 0 -0.0934094)
(0.000599333 0 -0.105667)
(0.00138984 0 -0.101925)
(0.000761758 0 -0.112877)
(0.00182402 0 -0.109829)
(0.00103576 0 -0.118116)
(0.00251141 0 -0.116398)
(0.0015616 0 -0.11975)
(0.00368692 0 -0.120482)
(0.00269216 0 -0.114857)
(0.00584706 0 -0.120185)
(0.00538043 0 -0.098412)
(0.0100891 0 -0.112176)
(0.0124435 0 -0.0703313)
(0.0190386 0 -0.0916836)
(0.0328504 0 -0.11181)
(0.0385099 0 -0.0703173)
(0.089281 0 -0.626552)
(0.0857012 0 -0.216944)
(0.109968 0 -1.64777)
(0.175729 0 -1.1102)
(-0.132064 0 -1.46586)
(-0.0246058 0 -2.04407)
(-0.051551 0 -0.190796)
(-0.139681 0 -0.720248)
(-0.005714 0 0.433179)
(-0.0278701 0 0.290636)
(0.00819686 0 0.628563)
(0.00570817 0 0.547748)
(0.0159242 0 0.842736)
(0.0228626 0 0.716122)
(0.0171667 0 0.990467)
(0.0330083 0 0.966145)
(0.0543546 0 -0.109984)
(0.0422666 0 0.992271)
(0.0768604 0 -1.51133)
(0.16124 0 -1.24549)
(-0.0623041 0 -0.353225)
(-0.0461756 0 -1.70125)
(-0.00760779 0 1.18081)
(-0.0490977 0 1.05503)
(-0.00240046 0 1.27708)
(0.00212349 0 1.27716)
(-0.00408792 0 1.141)
(-0.0128258 0 1.27447)
(0.0364023 0 -0.329694)
(0.0323765 0 0.981211)
(-0.0689702 0 -1.30413)
(0.00582867 0 -1.60696)
(-0.0281447 0 0.0411335)
(-0.112776 0 -0.955999)
(-0.00389643 0 1.06611)
(-0.0126385 0 1.01173)
(-0.0067733 0 1.05853)
(-0.010991 0 1.10934)
(-0.00701276 0 0.999421)
(-0.0126487 0 1.00793)
(-0.0142956 0 0.797456)
(-0.0223135 0 0.992647)
(0.00894567 0 -0.120278)
(0.00477759 0 0.587566)
(-0.0132427 0 -0.124247)
(-0.00404225 0 -0.82755)
(0.0044268 0 0.740167)
(-0.0132194 0 0.58753)
(-0.000130272 0 0.848439)
(0.00746999 0 0.88568)
(-0.000481126 0 0.812755)
(4.34471e-05 0 -0.00544232)
(6.91572e-05 0 -0.00367371)
(7.30934e-05 0 -0.00902741)
(0.000108821 0 -0.00736189)
(0.000104951 0 -0.0126337)
(0.000142279 0 -0.0108347)
(0.000142261 0 -0.0165781)
(0.000183018 0 -0.0145885)
(0.000185749 0 -0.0209412)
(0.000233605 0 -0.0187474)
(0.000236395 0 -0.0257387)
(0.00029448 0 -0.0233423)
(0.000296005 0 -0.0309722)
(0.000367799 0 -0.0283734)
(0.00036686 0 -0.036651)
(0.000456331 0 -0.0338449)
(0.000451494 0 -0.0427926)
(0.00056349 0 -0.0397724)
(0.000552935 0 -0.0494135)
(0.000693325 0 -0.0461757)
(0.000675204 0 -0.0565209)
(0.000851154 0 -0.0530696)
(0.000824012 0 -0.0641053)
(0.00104447 0 -0.0604567)
(0.00100792 0 -0.0721312)
(0.00128428 0 -0.0683201)
(0.00124045 0 -0.0805236)
(0.00158736 0 -0.0766137)
(0.0015441 0 -0.0891482)
(0.00198029 0 -0.0852479)
(0.00195814 0 -0.0977818)
(0.00250686 0 -0.0940691)
(0.0025541 0 -0.106067)
(0.00324218 0 -0.10283)
(0.00346809 0 -0.113445)
(0.00431964 0 -0.111153)
(0.00496987 0 -0.119048)
(0.00598402 0 -0.118471)
(0.00761326 0 -0.121487)
(0.00869797 0 -0.123961)
(0.0125635 0 -0.118434)
(0.0133379 0 -0.126395)
(0.0223415 0 -0.1065)
(0.0216322 0 -0.12387)
(0.0428278 0 -0.0908079)
(0.0375781 0 -0.11504)
(0.0877228 0 -0.159962)
(0.0681981 0 -0.119113)
(0.1626 0 -0.658038)
(0.12782 0 -0.294528)
(0.136208 0 -1.51136)
(0.233547 0 -1.08413)
(-0.129858 0 -1.34789)
(-0.0135365 0 -1.79352)
(-0.0972168 0 -0.234891)
(-0.181205 0 -0.749551)
(-0.0171831 0 0.404156)
(-0.0361714 0 0.222142)
(0.0196626 0 0.618131)
(0.0123987 0 0.517687)
(0.0417676 0 0.838322)
(0.0429807 0 0.701386)
(0.0616602 0 0.968454)
(0.0674536 0 0.952883)
(0.128448 0 -0.132629)
(0.0840453 0 0.947746)
(0.109603 0 -1.44072)
(0.227417 0 -1.23293)
(-0.100324 0 -0.301044)
(-0.0803772 0 -1.5613)
(-0.0239993 0 1.15715)
(-0.0774351 0 1.00414)
(-0.00630673 0 1.27304)
(0.00215168 0 1.26537)
(0.0047783 0 1.11682)
(-0.0155504 0 1.26708)
(0.0565355 0 -0.305607)
(0.0545565 0 0.946706)
(-0.100569 0 -1.26082)
(0.0214763 0 -1.50223)
(-0.0771471 0 0.0256208)
(-0.16701 0 -0.971614)
(-0.0209546 0 1.05422)
(-0.0300344 0 0.974266)
(-0.0195437 0 1.05767)
(-0.0242628 0 1.1084)
(-0.0199618 0 0.999811)
(-0.0229556 0 1.00821)
(-0.023397 0 0.782519)
(-0.0372611 0 0.994937)
(0.0148506 0 -0.118577)
(0.0134543 0 0.562067)
(-0.0312137 0 -0.114503)
(-0.00798181 0 -0.796841)
(-6.3476e-05 0 0.732841)
(-0.0305324 0 0.566763)
(0.000470005 0 0.848806)
(0.00949118 0 0.885324)
(-0.000685318 0 0.813311)
(0.000142264 0 -0.00551424)
(0.00018041 0 -0.00375772)
(0.000176225 0 -0.00910119)
(0.000217235 0 -0.00746753)
(0.000218526 0 -0.0127201)
(0.000265827 0 -0.0109601)
(0.00027239 0 -0.0166823)
(0.00032289 0 -0.0147408)
(0.000339894 0 -0.0210649)
(0.000395358 0 -0.0189293)
(0.000422852 0 -0.0258843)
(0.000486222 0 -0.0235555)
(0.000524191 0 -0.0311435)
(0.000598471 0 -0.0286217)
(0.000647866 0 -0.0368526)
(0.000736376 0 -0.0341337)
(0.000798733 0 -0.0430298)
(0.000905442 0 -0.0401082)
(0.000983041 0 -0.049693)
(0.00111249 0 -0.0465668)
(0.00120939 0 -0.0568526)
(0.00136661 0 -0.0535276)
(0.00149017 0 -0.0645036)
(0.00168059 0 -0.0609983)
(0.00184387 0 -0.0726187)
(0.00207292 0 -0.0689705)
(0.00229916 0 -0.0811362)
(0.00257105 0 -0.0774118)
(0.00290206 0 -0.0899454)
(0.00321707 0 -0.0862555)
(0.00372906 0 -0.098865)
(0.00407769 0 -0.0953866)
(0.00491127 0 -0.107616)
(0.00526208 0 -0.104626)
(0.00668029 0 -0.115786)
(0.00695325 0 -0.113714)
(0.00945592 0 -0.122796)
(0.00946541 0 -0.122302)
(0.0140143 0 -0.127834)
(0.013353 0 -0.129959)
(0.0218081 0 -0.129759)
(0.0195865 0 -0.136173)
(0.0356128 0 -0.127942)
(0.0299 0 -0.14038)
(0.0612621 0 -0.133623)
(0.0484258 0 -0.144283)
(0.111333 0 -0.233074)
(0.0827341 0 -0.173534)
(0.184922 0 -0.686839)
(0.141302 0 -0.370778)
(0.137678 0 -1.36279)
(0.230655 0 -1.03747)
(-0.113474 0 -1.22896)
(-0.000867238 0 -1.55702)
(-0.103416 0 -0.295116)
(-0.173403 0 -0.758579)
(-0.0124379 0 0.343672)
(-0.0325829 0 0.144282)
(0.0338505 0 0.589709)
(0.0243832 0 0.479922)
(0.0669827 0 0.819438)
(0.0625904 0 0.679298)
(0.0999517 0 0.936918)
(0.0981511 0 0.930904)
(0.164658 0 -0.142378)
(0.119869 0 0.904608)
(0.0935069 0 -1.35005)
(0.230814 0 -1.18549)
(-0.116899 0 -0.254863)
(-0.106992 0 -1.42103)
(-0.0328047 0 1.11815)
(-0.0895677 0 0.94808)
(-0.00653256 0 1.26069)
(0.00157619 0 1.24785)
(0.0163404 0 1.09546)
(-0.0107842 0 1.25183)
(0.0691384 0 -0.259386)
(0.0686154 0 0.911508)
(-0.0962994 0 -1.20948)
(0.0441059 0 -1.39193)
(-0.0993414 0 -0.00802107)
(-0.174323 0 -0.969586)
(-0.0365817 0 1.03127)
(-0.0468539 0 0.932426)
(-0.0316065 0 1.05743)
(-0.037423 0 1.10508)
(-0.0290799 0 1.00052)
(-0.0305571 0 1.00652)
(-0.0233332 0 0.77103)
(-0.0471339 0 0.991106)
(0.0175097 0 -0.113451)
(0.0212772 0 0.534838)
(-0.0428236 0 -0.110451)
(-0.0101371 0 -0.756619)
(-0.00819839 0 0.719132)
(-0.0477452 0 0.54368)
(-0.00114092 0 0.848567)
(0.00587163 0 0.880619)
(-0.00167515 0 0.812961)
(0.000263576 0 -0.00561894)
(0.000316761 0 -0.00384661)
(0.000308652 0 -0.00923834)
(0.000353991 0 -0.00760776)
(0.000367208 0 -0.0128854)
(0.000421401 0 -0.0111338)
(0.000442507 0 -0.0168822)
(0.00049762 0 -0.0149537)
(0.000538201 0 -0.0213034)
(0.000594549 0 -0.0191872)
(0.000657647 0 -0.0261652)
(0.000717782 0 -0.0238624)
(0.000805353 0 -0.0314725)
(0.000871371 0 -0.0289834)
(0.000987239 0 -0.0372372)
(0.00106118 0 -0.0345584)
(0.00121072 0 -0.0434793)
(0.00129481 0 -0.0406057)
(0.00148543 0 -0.0502201)
(0.00158175 0 -0.0471498)
(0.00182443 0 -0.057475)
(0.00193454 0 -0.0542134)
(0.0022462 0 -0.0652477)
(0.00237041 0 -0.0618118)
(0.00277757 0 -0.073524)
(0.00291355 0 -0.0699476)
(0.00345878 0 -0.0822641)
(0.00359873 0 -0.078606)
(0.00435174 0 -0.0913932)
(0.00447741 0 -0.0877478)
(0.00555431 0 -0.100791)
(0.00562832 0 -0.0973026)
(0.00722489 0 -0.110283)
(0.00717508 0 -0.107163)
(0.0096256 0 -0.119643)
(0.0093147 0 -0.11719)
(0.0131992 0 -0.128621)
(0.0123679 0 -0.127235)
(0.0187072 0 -0.137003)
(0.0168773 0 -0.137207)
(0.0274981 0 -0.144783)
(0.0237639 0 -0.147201)
(0.0421369 0 -0.153731)
(0.0345777 0 -0.157886)
(0.0680288 0 -0.179637)
(0.0529499 0 -0.173802)
(0.115202 0 -0.302309)
(0.0862456 0 -0.224806)
(0.176015 0 -0.704946)
(0.13913 0 -0.433788)
(0.122743 0 -1.22939)
(0.199568 0 -0.984845)
(-0.0854217 0 -1.11691)
(0.00979575 0 -1.36099)
(-0.0905506 0 -0.340611)
(-0.141387 0 -0.753975)
(-0.000402542 0 0.277712)
(-0.0253918 0 0.0671318)
(0.0510177 0 0.553645)
(0.0387098 0 0.43797)
(0.0897364 0 0.793549)
(0.0809864 0 0.653485)
(0.127657 0 0.902607)
(0.12178 0 0.905624)
(0.178694 0 -0.133548)
(0.147952 0 0.870583)
(0.061407 0 -1.25332)
(0.211546 0 -1.1073)
(-0.12178 0 -0.216966)
(-0.124535 0 -1.2989)
(-0.0378863 0 1.0789)
(-0.0905456 0 0.892151)
(-0.00406307 0 1.24058)
(0.00150644 0 1.22531)
(0.0273788 0 1.06902)
(-0.00417273 0 1.23087)
(0.0813279 0 -0.220953)
(0.0758403 0 0.875542)
(-0.0702053 0 -1.15118)
(0.0699092 0 -1.29091)
(-0.104635 0 -0.0263707)
(-0.157982 0 -0.946632)
(-0.05016 0 1.00801)
(-0.062638 0 0.896109)
(-0.0420106 0 1.05435)
(-0.0502368 0 1.09965)
(-0.0361934 0 0.996901)
(-0.0368331 0 1.00264)
(-0.0229178 0 0.754922)
(-0.0551193 0 0.982255)
(0.0196386 0 -0.106505)
(0.0275433 0 0.506468)
(-0.0502191 0 -0.101273)
(-0.0113791 0 -0.710047)
(-0.0170615 0 0.704981)
(-0.0637613 0 0.521575)
(-0.00545405 0 0.845335)
(-0.00176737 0 0.872881)
(-0.00431189 0 0.811313)
(0.000418631 0 -0.00574472)
(0.000472884 0 -0.0039438)
(0.000473201 0 -0.0094174)
(0.000510041 0 -0.00777753)
(0.000547934 0 -0.0131086)
(0.000593323 0 -0.0113554)
(0.000645476 0 -0.0171546)
(0.000687506 0 -0.0152295)
(0.000770078 0 -0.0216308)
(0.000807961 0 -0.0195231)
(0.000926504 0 -0.0265537)
(0.000962294 0 -0.0242643)
(0.00112085 0 -0.0319304)
(0.00115561 0 -0.0294595)
(0.00136084 0 -0.037775)
(0.00139518 0 -0.0351188)
(0.00165614 0 -0.0441102)
(0.00169038 0 -0.0412631)
(0.00201909 0 -0.0509615)
(0.00205285 0 -0.0479201)
(0.00246613 0 -0.0583511)
(0.00249772 0 -0.0551179)
(0.00301985 0 -0.0662928)
(0.00304529 0 -0.0628798)
(0.00371208 0 -0.0747881)
(0.0037232 0 -0.0712205)
(0.00458888 0 -0.0838213)
(0.00456992 0 -0.0801431)
(0.00571853 0 -0.0933557)
(0.00564098 0 -0.0896357)
(0.00720454 0 -0.103332)
(0.0070192 0 -0.0996701)
(0.00920742 0 -0.113674)
(0.00883069 0 -0.110205)
(0.0119821 0 -0.124316)
(0.0112687 0 -0.121208)
(0.0159442 0 -0.135279)
(0.014637 0 -0.132704)
(0.0217894 0 -0.146807)
(0.0194393 0 -0.144899)
(0.030731 0 -0.159759)
(0.0265223 0 -0.158418)
(0.0450748 0 -0.177716)
(0.0372718 0 -0.175041)
(0.0695315 0 -0.219009)
(0.0547001 0 -0.201686)
(0.110892 0 -0.354288)
(0.0849827 0 -0.269761)
(0.155769 0 -0.705846)
(0.130077 0 -0.480288)
(0.103067 0 -1.11575)
(0.164334 0 -0.932787)
(-0.0563278 0 -1.02094)
(0.0175673 0 -1.21089)
(-0.0713241 0 -0.370346)
(-0.105776 0 -0.740513)
(0.0110702 0 0.217048)
(-0.0178107 0 -0.00338214)
(0.0668259 0 0.515984)
(0.0519357 0 0.39248)
(0.108799 0 0.765981)
(0.0970063 0 0.625503)
(0.148409 0 0.873768)
(0.140155 0 0.879218)
(0.18355 0 -0.103259)
(0.169957 0 0.847156)
(0.034235 0 -1.15343)
(0.194218 0 -1.00776)
(-0.117927 0 -0.189893)
(-0.129199 0 -1.19746)
(-0.037488 0 1.03919)
(-0.0834385 0 0.838524)
(-0.000158249 0 1.21642)
(0.00434187 0 1.20042)
(0.0344873 0 1.03872)
(0.00202873 0 1.20777)
(0.0907303 0 -0.193325)
(0.0783568 0 0.838046)
(-0.0398368 0 -1.08749)
(0.0913909 0 -1.20387)
(-0.105039 0 -0.0255197)
(-0.138481 0 -0.903164)
(-0.0634965 0 0.987928)
(-0.0777895 0 0.868414)
(-0.0514706 0 1.04839)
(-0.0627841 0 1.09163)
(-0.0429769 0 0.988796)
(-0.0429811 0 0.99698)
(-0.023093 0 0.734684)
(-0.0622148 0 0.968999)
(0.0203591 0 -0.0965882)
(0.0321779 0 0.477499)
(-0.0572019 0 -0.0869702)
(-0.0141025 0 -0.65834)
(-0.0286325 0 0.690093)
(-0.0781152 0 0.502528)
(-0.0133375 0 0.839222)
(-0.010679 0 0.862684)
(-0.00862414 0 0.807432)
(0.000578877 0 -0.00588439)
(0.000607725 0 -0.00404692)
(0.000640331 0 -0.00962878)
(0.000645205 0 -0.00796871)
(0.000728304 0 -0.0133818)
(0.000740982 0 -0.0116163)
(0.000845231 0 -0.0174926)
(0.00085033 0 -0.01556)
(0.000995745 0 -0.0220397)
(0.000991335 0 -0.0199287)
(0.00118578 0 -0.0270414)
(0.00117325 0 -0.0247526)
(0.00142279 0 -0.032507)
(0.00140208 0 -0.03004)
(0.00171597 0 -0.0384531)
(0.00168631 0 -0.0358034)
(0.00207662 0 -0.0449052)
(0.0020367 0 -0.042066)
(0.00251902 0 -0.0518936)
(0.00246649 0 -0.048859)
(0.0030618 0 -0.0594473)
(0.00299267 0 -0.0562162)
(0.00372999 0 -0.0675904)
(0.00363745 0 -0.0641687)
(0.00455802 0 -0.0763396)
(0.00443029 0 -0.0727432)
(0.00559438 0 -0.0857018)
(0.00541135 0 -0.0819599)
(0.00690903 0 -0.0956748)
(0.00663772 0 -0.0918328)
(0.00860528 0 -0.106251)
(0.00819338 0 -0.102373)
(0.0108396 0 -0.117437)
(0.0102028 0 -0.113599)
(0.0138552 0 -0.129297)
(0.0128504 0 -0.125574)
(0.0180395 0 -0.142061)
(0.0164198 0 -0.13848)
(0.0240265 0 -0.156334)
(0.0213763 0 -0.152778)
(0.0329034 0 -0.173674)
(0.0284872 0 -0.169554)
(0.0466717 0 -0.199102)
(0.038965 0 -0.191507)
(0.0690687 0 -0.252055)
(0.0552681 0 -0.22722)
(0.103823 0 -0.392638)
(0.0819955 0 -0.307534)
(0.134543 0 -0.699)
(0.11862 0 -0.512118)
(0.0866255 0 -1.02513)
(0.134511 0 -0.885455)
(-0.0337292 0 -0.945092)
(0.0225776 0 -1.09756)
(-0.0522363 0 -0.393003)
(-0.0756688 0 -0.723898)
(0.0214771 0 0.161028)
(-0.0104132 0 -0.0664671)
(0.0798668 0 0.477592)
(0.0626867 0 0.344842)
(0.124692 0 0.738152)
(0.11005 0 0.595619)
(0.165978 0 0.851422)
(0.155871 0 0.851694)
(0.188433 0 -0.058808)
(0.188344 0 0.832186)
(0.0252092 0 -1.05386)
(0.188177 0 -0.898941)
(-0.106343 0 -0.170077)
(-0.119837 0 -1.10976)
(-0.0308215 0 1.0003)
(-0.0706573 0 0.788177)
(0.00483423 0 1.19202)
(0.0106276 0 1.17665)
(0.0387668 0 1.00762)
(0.00793715 0 1.18515)
(0.0957961 0 -0.172764)
(0.0787607 0 0.800027)
(-0.0180855 0 -1.0208)
(0.103346 0 -1.12795)
(-0.106282 0 -0.0102361)
(-0.126127 0 -0.844366)
(-0.0770911 0 0.97162)
(-0.0924758 0 0.848953)
(-0.0607941 0 1.04026)
(-0.07531 0 1.08077)
(-0.0496081 0 0.977554)
(-0.0493767 0 0.989523)
(-0.0239511 0 0.712264)
(-0.0681955 0 0.951895)
(0.0187689 0 -0.0841336)
(0.0346188 0 0.449019)
(-0.0641884 0 -0.0687592)
(-0.0185742 0 -0.603035)
(-0.0400679 0 0.675346)
(-0.0899223 0 0.486448)
(-0.020764 0 0.830888)
(-0.0193155 0 0.849815)
(-0.0139452 0 0.801809)
(0.000691258 0 -0.0060368)
(0.000665037 0 -0.00415722)
(0.000758814 0 -0.00986758)
(0.000704536 0 -0.00817888)
(0.000857872 0 -0.013698)
(0.00081082 0 -0.0119101)
(0.000991231 0 -0.0178885)
(0.000933063 0 -0.0159371)
(0.00116407 0 -0.022522)
(0.00109181 0 -0.0203946)
(0.00138338 0 -0.0276194)
(0.0012976 0 -0.025316)
(0.00165778 0 -0.033192)
(0.00155724 0 -0.0307122)
(0.00199766 0 -0.0392586)
(0.00188025 0 -0.0365971)
(0.00241554 0 -0.0458478)
(0.00227854 0 -0.0429963)
(0.00292705 0 -0.0529944)
(0.00276658 0 -0.0499446)
(0.00355225 0 -0.0607342)
(0.00336265 0 -0.0574811)
(0.00431767 0 -0.0691012)
(0.00409013 0 -0.0656451)
(0.00525918 0 -0.0781259)
(0.00497931 0 -0.0744745)
(0.00642638 0 -0.0878364)
(0.00607094 0 -0.084006)
(0.00788937 0 -0.0982606)
(0.00742275 0 -0.0942778)
(0.00974948 0 -0.109437)
(0.00911864 0 -0.105336)
(0.0121573 0 -0.121444)
(0.0112792 0 -0.117256)
(0.0153433 0 -0.13446)
(0.0140775 0 -0.130187)
(0.0196672 0 -0.148896)
(0.017775 0 -0.144448)
(0.0256972 0 -0.165675)
(0.0227929 0 -0.160713)
(0.0343689 0 -0.18696)
(0.0298105 0 -0.180433)
(0.0473471 0 -0.218848)
(0.0398839 0 -0.207028)
(0.0674222 0 -0.280802)
(0.0549812 0 -0.250108)
(0.095961 0 -0.422222)
(0.0782475 0 -0.338553)
(0.116124 0 -0.690115)
(0.107017 0 -0.53301)
(0.0744148 0 -0.954132)
(0.111578 0 -0.844255)
(-0.0179361 0 -0.886331)
(0.0255663 0 -1.0106)
(-0.0358099 0 -0.413241)
(-0.0525473 0 -0.707853)
(0.0300047 0 0.107313)
(-0.00366673 0 -0.122792)
(0.0901686 0 0.437434)
(0.070551 0 0.295757)
(0.138045 0 0.708975)
(0.119729 0 0.563702)
(0.181534 0 0.832045)
(0.16936 0 0.822701)
(0.197081 0 -0.00854045)
(0.204252 0 0.821821)
(0.0314674 0 -0.956565)
(0.192327 0 -0.788532)
(-0.0888853 0 -0.152892)
(-0.100301 0 -1.02953)
(-0.0202036 0 0.964548)
(-0.0551839 0 0.742389)
(0.0115104 0 1.16977)
(0.01872 0 1.15551)
(0.0420333 0 0.97782)
(0.0138183 0 1.1648)
(0.0966856 0 -0.155603)
(0.0789552 0 0.763592)
(-0.00879844 0 -0.952222)
(0.104741 0 -1.05762)
(-0.11094 0 0.0145249)
(-0.123215 0 -0.776272)
(-0.0908057 0 0.957778)
(-0.106724 0 0.835531)
(-0.0700947 0 1.02992)
(-0.0877619 0 1.06696)
(-0.0558174 0 0.963847)
(-0.0557348 0 0.980005)
(-0.0254709 0 0.688792)
(-0.0726864 0 0.931664)
(0.0150297 0 -0.0697895)
(0.0345754 0 0.422019)
(-0.0702546 0 -0.0477627)
(-0.0238548 0 -0.546179)
(-0.0500374 0 0.660996)
(-0.0986251 0 0.47297)
(-0.027695 0 0.820744)
(-0.0270776 0 0.83492)
(-0.0192713 0 0.794895)
(0.000697576 0 -0.00620263)
(0.00058669 0 -0.00427683)
(0.000771352 0 -0.010131)
(0.000630243 0 -0.00840839)
(0.000880398 0 -0.014051)
(0.000745855 0 -0.0122335)
(0.00102808 0 -0.0183339)
(0.000879593 0 -0.0163546)
(0.00122023 0 -0.0230673)
(0.00105404 0 -0.0209125)
(0.00146477 0 -0.0282752)
(0.00128056 0 -0.0259444)
(0.00177134 0 -0.0339708)
(0.00156666 0 -0.0314631)
(0.00215129 0 -0.0401747)
(0.00192276 0 -0.0374844)
(0.00261812 0 -0.0469184)
(0.00236174 0 -0.0440356)
(0.00318841 0 -0.054241)
(0.00289902 0 -0.051155)
(0.00388319 0 -0.062185)
(0.00355375 0 -0.0588869)
(0.00472987 0 -0.0707936)
(0.00434989 0 -0.0672783)
(0.00576496 0 -0.0801109)
(0.00531785 0 -0.0763779)
(0.00703817 0 -0.090184)
(0.00649829 0 -0.086238)
(0.00861872 0 -0.101069)
(0.0079488 0 -0.0969192)
(0.010605 0 -0.112849)
(0.00975158 0 -0.108501)
(0.01314 0 -0.125666)
(0.0120204 0 -0.121106)
(0.0164355 0 -0.139802)
(0.0149153 0 -0.134959)
(0.0208134 0 -0.155828)
(0.0186795 0 -0.150491)
(0.0267759 0 -0.174932)
(0.0236931 0 -0.168559)
(0.0351352 0 -0.199773)
(0.0305382 0 -0.190919)
(0.0472586 0 -0.237136)
(0.0401478 0 -0.221526)
(0.0651243 0 -0.30562)
(0.0540684 0 -0.270477)
(0.0883543 0 -0.444701)
(0.0742081 0 -0.363801)
(0.101106 0 -0.680007)
(0.0963501 0 -0.546223)
(0.0652472 0 -0.897405)
(0.094386 0 -0.808835)
(-0.00690701 0 -0.83994)
(0.0272255 0 -0.94265)
(-0.0227628 0 -0.431604)
(-0.0353761 0 -0.693619)
(0.0361368 0 0.0556696)
(0.00170347 0 -0.173199)
(0.0972575 0 0.39522)
(0.0750612 0 0.245891)
(0.148444 0 0.677592)
(0.125646 0 0.529578)
(0.194211 0 0.8127)
(0.179192 0 0.79219)
(0.207763 0 0.0420462)
(0.216828 0 0.812787)
(0.0467087 0 -0.862358)
(0.200503 0 -0.681163)
(-0.068866 0 -0.135337)
(-0.0766756 0 -0.952476)
(-0.00900542 0 0.933115)
(-0.040145 0 0.702482)
(0.0186599 0 1.15045)
(0.026447 0 1.13706)
(0.045165 0 0.950763)
(0.0196051 0 1.14713)
(0.093997 0 -0.138572)
(0.0796247 0 0.731038)
(-0.0100472 0 -0.881859)
(0.0972775 0 -0.98826)
(-0.11916 0 0.0448353)
(-0.127711 0 -0.703531)
(-0.104099 0 0.9447)
(-0.120098 0 0.82549)
(-0.0790444 0 1.01703)
(-0.0994918 0 1.05026)
(-0.0611929 0 0.947792)
(-0.0614804 0 0.968104)
(-0.0273865 0 0.664978)
(-0.0754364 0 0.909126)
(0.00977252 0 -0.0542958)
(0.0323872 0 0.397246)
(-0.0748248 0 -0.0253586)
(-0.0290288 0 -0.48978)
(-0.0580062 0 0.647011)
(-0.104172 0 0.461757)
(-0.0336109 0 0.809108)
(-0.0337103 0 0.818656)
(-0.0238883 0 0.786624)
(0.000540019 0 -0.00638353)
(0.000317375 0 -0.00440797)
(0.000620362 0 -0.0104185)
(0.000367483 0 -0.00865835)
(0.000738941 0 -0.0144371)
(0.000490764 0 -0.0125852)
(0.000899665 0 -0.0188223)
(0.000634896 0 -0.016809)
(0.00110889 0 -0.0236666)
(0.000823745 0 -0.0214764)
(0.00137527 0 -0.028997)
(0.00106853 0 -0.0266288)
(0.0017093 0 -0.0348286)
(0.00137727 0 -0.0322814)
(0.00212309 0 -0.0411835)
(0.00176122 0 -0.0384507)
(0.00263086 0 -0.0480957)
(0.00223397 0 -0.045166)
(0.00324984 0 -0.0556086)
(0.00281167 0 -0.0524687)
(0.00400166 0 -0.0637709)
(0.00351395 0 -0.0604081)
(0.00491416 0 -0.0726349)
(0.0043648 0 -0.0690384)
(0.00602383 0 -0.0822575)
(0.00539418 0 -0.0784184)
(0.00737942 0 -0.0927038)
(0.00664225 0 -0.0886145)
(0.00904741 0 -0.104056)
(0.00816615 0 -0.0997069)
(0.0111209 0 -0.116435)
(0.0100459 0 -0.111804)
(0.0137342 0 -0.130043)
(0.0123876 0 -0.125075)
(0.0170845 0 -0.145249)
(0.015338 0 -0.13981)
(0.0214649 0 -0.16276)
(0.0191242 0 -0.156538)
(0.0273196 0 -0.183983)
(0.024094 0 -0.176263)
(0.035351 0 -0.21193)
(0.0307462 0 -0.200995)
(0.0466581 0 -0.253738)
(0.0398861 0 -0.235049)
(0.0625275 0 -0.32656)
(0.052692 0 -0.28857)
(0.0813556 0 -0.461225)
(0.0700643 0 -0.384265)
(0.0889542 0 -0.669136)
(0.0868748 0 -0.554096)
(0.0581719 0 -0.851292)
(0.0813613 0 -0.778429)
(0.00083818 0 -0.802687)
(0.0279152 0 -0.88866)
(-0.0129605 0 -0.448024)
(-0.0228878 0 -0.681232)
(0.0394738 0 0.00677604)
(0.00527515 0 -0.218073)
(0.100505 0 0.351668)
(0.0759254 0 0.196097)
(0.154761 0 0.644216)
(0.127562 0 0.493407)
(0.202208 0 0.79248)
(0.183642 0 0.760558)
(0.216248 0 0.0899567)
(0.224106 0 0.803427)
(0.0643179 0 -0.771642)
(0.206565 0 -0.579876)
(-0.0497644 0 -0.115348)
(-0.0538382 0 -0.876421)
(-0.000128122 0 0.906152)
(-0.027974 0 0.669391)
(0.0252413 0 1.13357)
(0.0322708 0 1.12015)
(0.0483965 0 0.92748)
(0.025288 0 1.13169)
(0.0883895 0 -0.118654)
(0.0806189 0 0.704376)
(-0.0188752 0 -0.809811)
(0.0838808 0 -0.916751)
(-0.129216 0 0.0774251)
(-0.135946 0 -0.62997)
(-0.115929 0 0.931182)
(-0.131588 0 0.816632)
(-0.0869945 0 1.00141)
(-0.109382 0 1.03097)
(-0.0652703 0 0.92949)
(-0.0660387 0 0.953621)
(-0.0291865 0 0.641523)
(-0.0763246 0 0.88507)
(0.0035577 0 -0.0382349)
(0.0288284 0 0.375417)
(-0.0777279 0 -0.00268359)
(-0.0335807 0 -0.43559)
(-0.0638751 0 0.633503)
(-0.106918 0 0.452522)
(-0.0382734 0 0.796199)
(-0.0391675 0 0.801588)
(-0.0275822 0 0.776835)
(0.000163949 0 -0.00658061)
(-0.000191342 0 -0.00454927)
(0.000251221 0 -0.010731)
(-0.000134296 0 -0.00892986)
(0.000379691 0 -0.0148556)
(-3.85514e-06 0 -0.0129662)
(0.000552859 0 -0.0193504)
(0.000150283 0 -0.0172987)
(0.000777536 0 -0.0243137)
(0.0003522 0 -0.022082)
(0.00106293 0 -0.0297757)
(0.000612885 0 -0.0273622)
(0.00142012 0 -0.035753)
(0.000940791 0 -0.0331563)
(0.00186183 0 -0.0422692)
(0.00134769 0 -0.0394822)
(0.00240274 0 -0.0493603)
(0.00184772 0 -0.0463703)
(0.00306044 0 -0.0570736)
(0.00245751 0 -0.0538646)
(0.00385671 0 -0.0654638)
(0.00319694 0 -0.0620193)
(0.00481926 0 -0.0745915)
(0.0040897 0 -0.0708952)
(0.00598417 0 -0.0845253)
(0.00516502 0 -0.0805606)
(0.00739926 0 -0.0953466)
(0.00646229 0 -0.0910951)
(0.00912918 0 -0.107162)
(0.00803782 0 -0.102598)
(0.0112631 0 -0.120126)
(0.00996869 0 -0.115204)
(0.0139265 0 -0.134492)
(0.0123539 0 -0.129121)
(0.0173002 0 -0.150704)
(0.0153296 0 -0.144695)
(0.0216498 0 -0.169583)
(0.0191082 0 -0.162542)
(0.0273729 0 -0.192717)
(0.0240009 0 -0.183795)
(0.0350755 0 -0.223364)
(0.0304464 0 -0.210658)
(0.045615 0 -0.268714)
(0.0391217 0 -0.247653)
(0.0596771 0 -0.344157)
(0.0508658 0 -0.304602)
(0.0748963 0 -0.473291)
(0.0657986 0 -0.400806)
(0.0789757 0 -0.658247)
(0.0784455 0 -0.558323)
(0.0524794 0 -0.813374)
(0.0711575 0 -0.752256)
(0.00609378 0 -0.772368)
(0.0277476 0 -0.84498)
(-0.00607842 0 -0.462595)
(-0.0141268 0 -0.670304)
(0.0400835 0 -0.0389163)
(0.00700357 0 -0.257579)
(0.0997945 0 0.307731)
(0.073315 0 0.147381)
(0.156063 0 0.609616)
(0.125565 0 0.455895)
(0.203969 0 0.771513)
(0.181875 0 0.728621)
(0.219198 0 0.133761)
(0.224551 0 0.793275)
(0.0790706 0 -0.684963)
(0.207174 0 -0.486458)
(-0.0337006 0 -0.0924915)
(-0.0344992 0 -0.80124)
(0.00803909 0 0.883107)
(-0.0196518 0 0.641565)
(0.0308995 0 1.11837)
(0.0357752 0 1.10491)
(0.0517577 0 0.908555)
(0.030876 0 1.11779)
(0.0808499 0 -0.0937614)
(0.0815533 0 0.684981)
(-0.0316866 0 -0.736691)
(0.0678569 0 -0.841726)
(-0.13868 0 0.109624)
(-0.144263 0 -0.558641)
(-0.125011 0 0.916601)
(-0.139949 0 0.80752)
(-0.0931275 0 0.983273)
(-0.116267 0 1.00971)
(-0.0677202 0 0.909254)
(-0.069004 0 0.936683)
(-0.0303104 0 0.618982)
(-0.0754434 0 0.86013)
(-0.00213284 0 -0.0220119)
(0.0246946 0 0.356632)
(-0.079 0 0.0195838)
(-0.0373683 0 -0.384345)
(-0.0678998 0 0.620667)
(-0.107426 0 0.445122)
(-0.0417994 0 0.782236)
(-0.0435965 0 0.784188)
(-0.0305201 0 0.765546)
(-0.000470688 0 -0.00679387)
(-0.000978394 0 -0.00470333)
(-0.000377146 0 -0.0110676)
(-0.000915339 0 -0.00922087)
(-0.000240495 0 -0.0153043)
(-0.000777982 0 -0.0133715)
(-5.66693e-05 0 -0.0199145)
(-0.000614303 0 -0.0178184)
(0.000181293 0 -0.0250027)
(-0.000401015 0 -0.0227234)
(0.000482762 0 -0.0306025)
(-0.000126801 0 -0.0281369)
(0.000859068 0 -0.0367322)
(0.000217016 0 -0.0340782)
(0.00132322 0 -0.0434163)
(0.000642439 0 -0.0405662)
(0.00189021 0 -0.0506928)
(0.00116388 0 -0.0476326)
(0.00257785 0 -0.0586125)
(0.00179818 0 -0.055324)
(0.00340799 0 -0.0672355)
(0.00256519 0 -0.0636989)
(0.00440816 0 -0.0766303)
(0.0034881 0 -0.0728244)
(0.00561358 0 -0.086876)
(0.00459517 0 -0.0827773)
(0.00707031 0 -0.0980693)
(0.00592487 0 -0.093649)
(0.00883996 0 -0.110338)
(0.00753234 0 -0.105556)
(0.0110071 0 -0.123868)
(0.00949108 0 -0.118657)
(0.0136898 0 -0.138959)
(0.0118922 0 -0.133195)
(0.0170563 0 -0.156122)
(0.0148638 0 -0.14957)
(0.021349 0 -0.176272)
(0.018607 0 -0.168467)
(0.026922 0 -0.201134)
(0.0233969 0 -0.191128)
(0.0342853 0 -0.23412)
(0.0296158 0 -0.219895)
(0.0440788 0 -0.282252)
(0.0378172 0 -0.259366)
(0.0565057 0 -0.359034)
(0.0485422 0 -0.31877)
(0.0688059 0 -0.482159)
(0.0613397 0 -0.414175)
(0.0705229 0 -0.647781)
(0.0707945 0 -0.560102)
(0.0475454 0 -0.781733)
(0.0627397 0 -0.729559)
(0.00921155 0 -0.747184)
(0.0267456 0 -0.808882)
(-0.00179688 0 -0.475269)
(-0.00837305 0 -0.660422)
(0.0382877 0 -0.0811173)
(0.00705087 0 -0.291884)
(0.0955158 0 0.264337)
(0.0677787 0 0.100691)
(0.152239 0 0.574748)
(0.120072 0 0.418079)
(0.1991 0 0.750278)
(0.174314 0 0.69738)
(0.21556 0 0.172937)
(0.218077 0 0.782302)
(0.0883936 0 -0.603074)
(0.20199 0 -0.40168)
(-0.0219188 0 -0.067571)
(-0.0194253 0 -0.727698)
(0.0123734 0 0.863116)
(-0.0146461 0 0.618704)
(0.0351446 0 1.10413)
(0.0375319 0 1.08973)
(0.0551723 0 0.894046)
(0.0362499 0 1.10444)
(0.0726975 0 -0.0631337)
(0.0821968 0 0.673298)
(-0.0446008 0 -0.663502)
(0.0523544 0 -0.763527)
(-0.14538 0 0.139642)
(-0.149789 0 -0.491455)
(-0.130279 0 0.900823)
(-0.144184 0 0.797452)
(-0.0967473 0 0.963201)
(-0.119346 0 0.987359)
(-0.0684804 0 0.887586)
(-0.0702321 0 0.917838)
(-0.03059 0 0.597599)
(-0.0731946 0 0.83487)
(-0.00591464 0 -0.00579378)
(0.0205666 0 0.340181)
(-0.0789507 0 0.0413035)
(-0.0403643 0 -0.335655)
(-0.0704942 0 0.608675)
(-0.106307 0 0.439484)
(-0.0445104 0 0.767498)
(-0.047229 0 0.766866)
(-0.0330424 0 0.753004)
(-0.00140223 0 -0.00702222)
(-0.00207445 0 -0.00486759)
(-0.00130291 0 -0.0114254)
(-0.00200498 0 -0.00952987)
(-0.00115856 0 -0.015779)
(-0.00186262 0 -0.0137996)
(-0.000965199 0 -0.0205095)
(-0.00169108 0 -0.0183651)
(-0.000715784 0 -0.0257273)
(-0.00146832 0 -0.0233957)
(-0.000400871 0 -0.0314694)
(-0.00118313 0 -0.0289461)
(-9.07145e-06 0 -0.0377558)
(-0.000826822 0 -0.035038)
(0.000472681 0 -0.0446121)
(-0.000387405 0 -0.0416913)
(0.00105936 0 -0.0520782)
(0.00014953 0 -0.0489388)
(0.00176863 0 -0.060208)
(0.000800784 0 -0.0568295)
(0.00262202 0 -0.0690669)
(0.00158598 0 -0.0654258)
(0.00364641 0 -0.0787301)
(0.00252766 0 -0.0748004)
(0.00487603 0 -0.0892869)
(0.00365305 0 -0.0850383)
(0.00635535 0 -0.100848)
(0.00499945 0 -0.0962423)
(0.00814354 0 -0.11356)
(0.00662062 0 -0.108544)
(0.0103211 0 -0.127638)
(0.00858666 0 -0.122126)
(0.0129989 0 -0.143421)
(0.0109815 0 -0.137263)
(0.0163322 0 -0.161476)
(0.0139238 0 -0.154396)
(0.020541 0 -0.182802)
(0.0176013 0 -0.174277)
(0.0259378 0 -0.209226)
(0.0222592 0 -0.19823)
(0.0329422 0 -0.244224)
(0.0282254 0 -0.228682)
(0.0420003 0 -0.294491)
(0.0359362 0 -0.270199)
(0.0529557 0 -0.371659)
(0.0456842 0 -0.331261)
(0.0629054 0 -0.488661)
(0.0566234 0 -0.424989)
(0.0630307 0 -0.637865)
(0.0636362 0 -0.560232)
(0.0429055 0 -0.754855)
(0.0553542 0 -0.70968)
(0.0105685 0 -0.725711)
(0.0249271 0 -0.778431)
(0.000227384 0 -0.485897)
(-0.00504582 0 -0.651139)
(0.0345216 0 -0.119544)
(0.00567519 0 -0.321233)
(0.0883379 0 0.222389)
(0.0600397 0 0.0567841)
(0.144023 0 0.540597)
(0.111727 0 0.380956)
(0.188566 0 0.729256)
(0.162294 0 0.667684)
(0.206269 0 0.20738)
(0.206014 0 0.7705)
(0.0924277 0 -0.526675)
(0.192564 0 -0.325786)
(-0.0136644 0 -0.0416089)
(-0.0077672 0 -0.65697)
(0.0145659 0 0.845172)
(-0.0116652 0 0.599884)
(0.0383321 0 1.08984)
(0.0384192 0 1.07389)
(0.0585364 0 0.88348)
(0.0413187 0 1.09097)
(0.0653097 0 -0.0273243)
(0.0825613 0 0.668782)
(-0.0544956 0 -0.591405)
(0.0399281 0 -0.683657)
(-0.147847 0 0.166658)
(-0.150659 0 -0.429221)
(-0.131186 0 0.88415)
(-0.143835 0 0.786345)
(-0.0975246 0 0.942059)
(-0.118385 0 0.964918)
(-0.0677631 0 0.865166)
(-0.0698341 0 0.897997)
(-0.0303593 0 0.577433)
(-0.070149 0 0.809934)
(-0.00920354 0 0.0102786)
(0.016732 0 0.326078)
(-0.0781022 0 0.0625124)
(-0.0425399 0 -0.289722)
(-0.0720313 0 0.597666)
(-0.104045 0 0.435437)
(-0.0467421 0 0.752373)
(-0.0502163 0 0.750006)
(-0.0354729 0 0.739738)
(-0.00265686 0 -0.00726368)
(-0.00350487 0 -0.00504091)
(-0.00255265 0 -0.0118019)
(-0.0034286 0 -0.00985406)
(-0.002402 0 -0.0162764)
(-0.003283 0 -0.0142465)
(-0.00220101 0 -0.0211307)
(-0.00310535 0 -0.0189334)
(-0.00194267 0 -0.0264812)
(-0.00287509 0 -0.0240921)