/*--------------------------------*- C++ -*----------------------------------*\
  =========                 |
  \\      /  F ield         | OpenFOAM: The Open Source CFD Toolbox
   \\    /   O peration     | Website:  https://openfoam.org
    \\  /    A nd           | Version:  9
     \\/     M anipulation  |
\*---------------------------------------------------------------------------*/
FoamFile
{
    format      ascii;
    class       surfaceScalarField;
    location    "0.15";
    object      alphaPhi0.water;
}
// * * * * * * * * * * * * * * * * * * * * * * * * * * * * * * * * * * * * * //

dimensions      [0 3 -1 0 0 0 0];

internalField   nonuniform List<scalar> 
9850
(
-4.06017e-78
-5.6358e-77
-1.99596e-77
-2.90398e-76
-1.26731e-76
-1.93298e-75
-8.50663e-76
-1.3605e-74
-6.02124e-75
-1.01009e-73
-4.49174e-74
-7.90723e-73
-3.52801e-73
-6.5217e-72
-2.91405e-72
-5.66143e-71
-2.52755e-71
-5.16669e-70
-2.29865e-70
-4.95088e-69
-2.18836e-69
-4.9749e-68
-2.17729e-68
-5.23545e-67
-2.25995e-67
-5.76245e-66
-2.44259e-66
-6.62394e-65
-2.74337e-65
-7.93924e-64
-3.19485e-64
-9.90337e-63
-3.84906e-63
-1.28282e-61
-4.78666e-62
-1.72103e-60
-6.13264e-61
-2.38401e-59
-8.08318e-60
-3.39794e-58
-1.09505e-58
-4.96486e-57
-1.52326e-57
-7.41082e-56
-2.17088e-56
-1.12703e-54
-3.15425e-55
-1.74421e-53
-4.63507e-54
-2.74825e-52
-6.8209e-53
-4.41443e-51
-9.96636e-52
-7.23063e-50
-1.43972e-50
-1.20461e-48
-2.05822e-49
-2.02963e-47
-2.92552e-48
-3.43323e-46
-4.07291e-47
-6.75995e-45
-6.56635e-46
-1.24036e-43
-1.00327e-44
-2.14631e-42
-1.41712e-43
-3.49544e-41
-1.78933e-42
-5.33964e-40
-1.92098e-41
-7.60899e-39
-1.57042e-40
-1.00359e-37
-5.74243e-40
-1.21275e-36
9.50902e-38
-1.32614e-35
2.21029e-36
-1.28472e-34
2.56091e-35
-1.07008e-33
1.92523e-34
-7.33643e-33
8.86851e-34
-3.85041e-32
1.67614e-33
-1.34762e-31
-4.71881e-33
-2.03783e-31
-1.10677e-32
4.75264e-31
-4.39682e-31
9.63138e-30
-1.53392e-29
2.64723e-28
-2.70704e-28
7.26368e-27
1.65251e-25
-1.19935e-77
-1.61298e-76
-5.79578e-77
-8.16963e-76
-3.61891e-76
-5.34732e-75
-2.38752e-75
-3.69873e-74
-1.66029e-74
-2.69749e-73
-1.21666e-73
-2.07397e-72
-9.38892e-73
-1.68022e-71
-7.62249e-72
-1.43324e-70
-6.50256e-71
-1.28597e-69
-5.82075e-70
-1.21236e-68
-5.45916e-69
-1.19951e-67
-5.35575e-68
-1.24393e-66
-5.4866e-67
-1.35029e-65
-5.858e-66
-1.53199e-64
-6.50508e-65
-1.81364e-63
-7.49604e-64
-2.23596e-62
-8.94247e-63
-2.86414e-61
-1.10183e-61
-3.80145e-60
-1.39923e-60
-5.21118e-59
-1.82839e-59
-7.35159e-58
-2.45546e-58
-1.06322e-56
-3.38478e-57
-1.5707e-55
-4.77763e-56
-2.36372e-54
-6.87177e-55
-3.61905e-53
-9.99379e-54
-5.64007e-52
-1.45597e-52
-8.9579e-51
-2.10806e-51
-1.45015e-49
-3.02217e-50
-2.38609e-48
-4.29642e-49
-3.9668e-47
-6.08714e-48
-6.61359e-46
-8.49183e-47
-1.28216e-44
-1.3753e-45
-2.31371e-43
-2.11899e-44
-3.93544e-42
-3.04129e-43
-6.29807e-41
-3.96539e-42
-9.4529e-40
-4.55748e-41
-1.32363e-38
-4.40281e-40
-1.7164e-37
-3.19415e-39
-2.04176e-36
-9.87068e-39
-2.20164e-35
1.36626e-36
-2.12051e-34
2.61951e-35
-1.78263e-33
2.53254e-34
-1.2699e-32
1.63302e-33
-7.39543e-32
7.00453e-33
-3.37707e-31
5.76901e-33
-1.11454e-30
-6.69917e-32
-7.43152e-31
-1.2076e-31
2.97105e-30
-3.36617e-30
6.64943e-29
-6.98314e-29
1.84206e-27
7.20103e-26
-3.32825e-77
-4.33805e-76
-1.58429e-76
-2.1642e-75
-9.74431e-76
-1.39523e-74
-6.32806e-75
-9.49875e-74
-4.32895e-74
-6.81379e-73
-3.11941e-73
-5.15058e-72
-2.36681e-72
-4.1017e-71
-1.88945e-71
-3.43938e-70
-1.58546e-70
-3.0344e-69
-1.3967e-69
-2.8141e-68
-1.28999e-68
-2.74046e-67
-1.24723e-67
-2.79911e-66
-1.26024e-66
-2.99476e-65
-1.32827e-65
-3.35131e-64
-1.45728e-64
-3.916e-63
-1.66046e-63
-4.76846e-62
-1.96013e-62
-6.03654e-61
-2.3914e-61
-7.92211e-60
-3.00854e-60
-1.07422e-58
-3.89576e-59
-1.49941e-57
-5.18464e-58
-2.14586e-56
-7.08057e-57
-3.13701e-55
-9.89712e-56
-4.67122e-54
-1.40907e-54
-7.07597e-53
-2.0281e-53
-1.09084e-51
-2.92507e-52
-1.71342e-50
-4.19625e-51
-2.74205e-49
-5.9688e-50
-4.45717e-48
-8.43393e-49
-7.31348e-47
-1.18995e-47
-1.20219e-45
-1.66017e-46
-2.29565e-44
-2.69276e-45
-4.07597e-43
-4.16446e-44
-6.81836e-42
-6.02738e-43
-1.07288e-40
-8.00115e-42
-1.58311e-39
-9.54166e-41
-2.17934e-38
-9.95965e-40
-2.77932e-37
-8.7063e-39
-3.25479e-36
-5.75229e-38
-3.46254e-35
-1.83877e-37
-3.30221e-34
1.24341e-35
-2.77915e-33
2.2951e-34
-2.02403e-32
2.02867e-33
-1.25419e-31
1.27466e-32
-6.59991e-31
4.80044e-32
-2.94344e-30
-1.46897e-32
-8.59164e-30
-2.22803e-32
2.15047e-30
-5.91303e-31
2.68744e-29
-1.97425e-29
5.74043e-28
4.30952e-26
-8.72412e-77
-1.10247e-75
-4.09821e-76
-5.42746e-75
-2.4869e-75
-3.45192e-74
-1.5923e-74
-2.31676e-73
-1.07317e-73
-1.63711e-72
-7.61458e-73
-1.2183e-71
-5.6867e-72
-9.54748e-71
-4.46765e-71
-7.87643e-70
-3.6894e-70
-6.83642e-69
-3.19928e-69
-6.23825e-68
-2.90969e-68
-5.97919e-67
-2.77168e-67
-6.01333e-66
-2.76091e-66
-6.33812e-65
-2.87075e-65
-6.9915e-64
-3.10945e-64
-8.0579e-63
-3.50049e-63
-9.6839e-62
-4.08569e-62
-1.21062e-60
-4.9318e-61
-1.5698e-59
-6.14215e-60
-2.10415e-58
-7.87636e-59
-2.90425e-57
-1.03818e-57
-4.111e-56
-1.40402e-56
-5.94495e-55
-1.94274e-55
-8.75714e-54
-2.73707e-54
-1.31222e-52
-3.89789e-53
-2.00093e-51
-5.56403e-52
-3.10823e-50
-7.90633e-51
-4.91747e-49
-1.11533e-49
-7.89711e-48
-1.56542e-48
-1.27906e-46
-2.19748e-47
-2.07329e-45
-3.06106e-46
-3.90047e-44
-4.961e-45
-6.81603e-43
-7.67636e-44
-1.12179e-41
-1.11484e-42
-1.73634e-40
-1.49384e-41
-2.52001e-39
-1.81797e-40
-3.41204e-38
-1.97597e-39
-4.28058e-37
-1.87461e-38
-4.93467e-36
-1.49433e-37
-5.17621e-35
-9.26148e-37
-4.88378e-34
-3.47859e-36
-4.09176e-33
4.35365e-35
-3.00826e-32
1.44095e-33
-1.93433e-31
1.36279e-32
-1.10486e-30
8.19856e-32
-5.7421e-30
1.27169e-31
-2.40013e-29
-4.95507e-32
-2.88076e-29
-6.29825e-31
2.03995e-30
-4.57674e-30
2.06215e-28
2.95435e-26
-2.16661e-76
-2.65583e-75
-1.00544e-75
-1.29155e-74
-6.02617e-75
-8.11264e-74
-3.80874e-74
-5.37418e-73
-2.53224e-73
-3.74566e-72
-1.77135e-72
-2.74759e-71
-1.30356e-71
-2.12131e-70
-1.00882e-70
-1.72341e-69
-8.2048e-70
-1.47273e-68
-7.00696e-69
-1.32296e-67
-6.27693e-68
-1.24836e-66
-5.89096e-67
-1.23625e-65
-5.78387e-66
-1.28346e-64
-5.93077e-65
-1.39509e-63
-6.33894e-64
-1.58518e-62
-7.04643e-63
-1.87916e-61
-8.12666e-62
-2.31856e-60
-9.69941e-61
-2.9688e-59
-1.1951e-59
-3.93145e-58
-1.51681e-58
-5.36326e-57
-1.97916e-57
-7.50577e-56
-2.64945e-56
-1.07335e-54
-3.62791e-55
-1.56371e-53
-5.05661e-54
-2.31752e-52
-7.12355e-53
-3.49523e-51
-1.00619e-51
-5.36947e-50
-1.41586e-50
-8.39845e-49
-1.98022e-49
-1.33262e-47
-2.75939e-48
-2.1308e-46
-3.85104e-47
-3.40652e-45
-5.34885e-46
-6.31538e-44
-8.64592e-45
-1.08652e-42
-1.33522e-43
-1.76003e-41
-1.93895e-42
-2.68092e-40
-2.60795e-41
-3.82876e-39
-3.2075e-40
-5.10096e-38
-3.56342e-39
-6.29718e-37
-3.52473e-38
-7.14623e-36
-3.04427e-37
-7.38737e-35
-2.23269e-36
-6.88587e-34
-1.3297e-35
-5.72703e-33
-5.85044e-35
-4.21803e-32
-1.2799e-34
-2.76114e-31
3.96583e-33
-1.6503e-30
5.80531e-32
-9.31486e-30
2.45504e-31
-4.59981e-29
-8.21044e-33
-1.2113e-28
-8.56911e-33
1.3849e-30
-1.28259e-30
9.73015e-29
2.46693e-26
-5.12298e-76
-6.09483e-75
-2.34904e-75
-2.92845e-74
-1.3913e-74
-1.81763e-73
-8.68682e-74
-1.18935e-72
-5.70249e-73
-8.18371e-72
-3.93664e-72
-5.92331e-71
-2.8577e-71
-4.51011e-70
-2.18066e-70
-3.61201e-69
-1.74823e-69
-3.04157e-68
-1.47139e-68
-2.69166e-67
-1.29892e-67
-2.50175e-66
-1.20139e-66
-2.44025e-65
-1.16269e-65
-2.49561e-64
-1.17557e-64
-2.67275e-63
-1.23947e-63
-2.99321e-62
-1.35989e-62
-3.49866e-61
-1.54888e-61
-4.25833e-60
-1.82679e-60
-5.38143e-59
-2.22551e-59
-7.03681e-58
-2.79401e-58
-9.48306e-57
-3.60702e-57
-1.31152e-55
-4.77744e-56
-1.85398e-54
-6.47123e-55
-2.67052e-53
-8.92046e-54
-3.91386e-52
-1.24282e-52
-5.83757e-51
-1.73667e-51
-8.8684e-50
-2.41943e-50
-1.37138e-48
-3.35385e-49
-2.15019e-47
-4.63805e-48
-3.39451e-46
-6.43138e-47
-5.3533e-45
-8.89698e-46
-9.78238e-44
-1.43224e-44
-1.65746e-42
-2.20347e-43
-2.64355e-41
-3.19143e-42
-3.96447e-40
-4.29254e-41
-5.57402e-39
-5.30265e-40
-7.31031e-38
-5.95776e-39
-8.88348e-37
-6.02455e-38
-9.92522e-36
-5.41554e-37
-1.01083e-34
-4.26661e-36
-9.29797e-34
-2.90228e-35
-7.65705e-33
-1.68138e-34
-5.61859e-32
-8.23164e-34
-3.7023e-31
-3.40633e-33
-2.26057e-30
-1.14912e-32
-1.32905e-29
-2.28005e-32
-7.14316e-29
-8.86122e-35
-2.52625e-28
-1.63448e-34
8.58796e-31
-4.83641e-30
2.22909e-29
2.16977e-26
-1.1605e-75
-1.34082e-74
-5.25344e-75
-6.36e-74
-3.07419e-74
-3.89986e-73
-1.89638e-73
-2.52098e-72
-1.22967e-72
-1.71322e-71
-8.38281e-72
-1.22433e-70
-6.00742e-71
-9.20112e-70
-4.52407e-70
-7.27045e-69
-3.57828e-69
-6.03822e-68
-2.97043e-68
-5.26845e-67
-2.58581e-67
-4.82653e-66
-2.35817e-66
-4.63947e-65
-2.25025e-65
-4.67535e-64
-2.24359e-64
-4.9341e-63
-2.33328e-63
-5.44573e-62
-2.52597e-62
-6.27473e-61
-2.8401e-61
-7.53095e-60
-3.30838e-60
-9.38855e-59
-3.98275e-59
-1.21159e-57
-4.94297e-58
-1.61211e-56
-6.30998e-57
-2.20222e-55
-8.26447e-56
-3.07599e-54
-1.10687e-54
-4.37921e-53
-1.50843e-53
-6.34495e-52
-2.07774e-52
-9.35732e-51
-2.8715e-51
-1.40565e-49
-3.95958e-50
-2.14892e-48
-5.43873e-49
-3.32936e-47
-7.46148e-48
-5.18999e-46
-1.02748e-46
-8.07525e-45
-1.41441e-45
-1.45484e-43
-2.26505e-44
-2.42831e-42
-3.46673e-43
-3.81487e-41
-4.99892e-42
-5.63513e-40
-6.70603e-41
-7.80375e-39
-8.28687e-40
-1.00797e-37
-9.35426e-39
-1.20619e-36
-9.56382e-38
-1.32707e-35
-8.77513e-37
-1.33137e-34
-7.15998e-36
-1.20764e-33
-5.15897e-35
-9.82903e-33
-3.27974e-34
-7.15684e-32
-1.86508e-33
-4.70848e-31
-9.86508e-33
-2.89267e-30
-5.10486e-32
-1.72788e-29
-2.53206e-31
-9.67287e-29
-9.62423e-31
-3.96449e-28
-7.22781e-31
-2.9905e-28
-5.00546e-32
-1.90575e-29
1.66615e-26
-2.53789e-75
-2.84959e-74
-1.13194e-74
-1.33167e-73
-6.5371e-74
-8.05807e-73
-3.98141e-73
-5.14245e-72
-2.54934e-72
-3.45057e-71
-1.71631e-71
-2.43487e-70
-1.21467e-70
-1.80675e-69
-9.03275e-70
-1.4094e-68
-7.05353e-69
-1.1553e-67
-5.77956e-68
-9.94609e-67
-4.96493e-67
-8.98785e-66
-4.46723e-66
-8.51947e-65
-4.20513e-65
-8.46405e-64
-4.13571e-64
-8.80489e-63
-4.24282e-63
-9.57852e-62
-4.53177e-62
-1.08789e-60
-5.02861e-61
-1.28724e-59
-5.78306e-60
-1.58248e-58
-6.8758e-59
-2.01451e-57
-8.43099e-58
-2.64513e-56
-1.06358e-56
-3.56717e-55
-1.3767e-55
-4.92065e-54
-1.82212e-54
-6.92092e-53
-2.45375e-53
-9.90979e-52
-3.34016e-52
-1.44467e-50
-4.56408e-51
-2.14549e-49
-6.22758e-50
-3.24235e-48
-8.47358e-49
-4.96382e-47
-1.15289e-47
-7.64106e-46
-1.57587e-46
-1.17314e-44
-2.15709e-45
-2.08422e-43
-3.43327e-44
-3.42812e-42
-5.22216e-43
-5.30682e-41
-7.48719e-42
-7.72472e-40
-9.99951e-41
-1.05418e-38
-1.23271e-39
-1.34169e-37
-1.39207e-38
-1.58176e-36
-1.42936e-37
-1.71425e-35
-1.32425e-36
-1.69422e-34
-1.0993e-35
-1.5148e-33
-8.14247e-35
-1.21704e-32
-5.39397e-34
-8.77044e-32
-3.24859e-33
-5.73068e-31
-1.85021e-32
-3.50788e-30
-1.0459e-31
-2.09478e-29
-5.76757e-31
-1.18923e-28
-2.5656e-30
-5.26422e-28
-4.17082e-30
-8.18298e-28
-1.12225e-31
-2.01849e-29
1.10996e-26
-5.40771e-75
-5.90485e-74
-2.36869e-74
-2.70984e-73
-1.34717e-73
-1.61474e-72
-8.08746e-73
-1.01565e-71
-5.10756e-72
-6.72089e-71
-3.39339e-71
-4.67951e-70
-2.37101e-70
-3.42753e-69
-1.7412e-69
-2.6398e-68
-1.34288e-68
-2.13652e-67
-1.0867e-67
-1.81593e-66
-9.21823e-67
-1.61972e-65
-8.18849e-66
-1.515e-64
-7.60817e-65
-1.48477e-63
-7.38426e-64
-1.52322e-62
-7.47508e-63
-1.63381e-61
-7.87816e-62
-1.82933e-60
-8.62648e-61
-2.13382e-59
-9.79148e-60
-2.58621e-58
-1.14926e-58
-3.2464e-57
-1.3915e-57
-4.20443e-56
-1.73362e-56
-5.59445e-55
-2.21628e-55
-7.61713e-54
-2.897e-54
-1.05788e-52
-3.85286e-53
-1.49626e-51
-5.18066e-52
-2.1554e-50
-6.99628e-51
-3.16377e-49
-9.44321e-50
-4.72554e-48
-1.27245e-48
-7.14809e-47
-1.71641e-47
-1.0866e-45
-2.32795e-46
-1.64638e-44
-3.1666e-45
-2.88503e-43
-5.00568e-44
-4.67761e-42
-7.56076e-43
-7.13803e-41
-1.07682e-41
-1.02437e-39
-1.42996e-40
-1.37833e-38
-1.75532e-39
-1.72951e-37
-1.97752e-38
-2.0098e-36
-2.03051e-37
-2.14642e-35
-1.88713e-36
-2.09019e-34
-1.57806e-35
-1.84182e-33
-1.18374e-34
-1.4597e-32
-7.99175e-34
-1.03943e-31
-4.93559e-33
-6.72486e-31
-2.89243e-32
-4.07875e-30
-1.68125e-31
-2.41146e-29
-9.56287e-31
-1.36471e-28
-4.52549e-30
-6.2628e-28
-1.01213e-29
-1.32134e-27
-1.38578e-31
-1.66023e-29
6.16078e-27
-1.13431e-74
-1.20538e-73
-4.85926e-74
-5.40984e-73
-2.71345e-73
-3.16488e-72
-1.60141e-72
-1.95683e-71
-9.95308e-72
-1.27422e-70
-6.51476e-71
-8.73938e-70
-4.48894e-70
-6.31148e-69
-3.25347e-69
-4.79637e-68
-2.47776e-68
-3.83227e-67
-1.98056e-67
-3.21633e-66
-1.65968e-66
-2.83285e-65
-1.45628e-65
-2.61607e-64
-1.3363e-64
-2.53068e-63
-1.28061e-63
-2.56177e-62
-1.27971e-62
-2.7104e-61
-1.33114e-61
-2.99264e-60
-1.43844e-60
-3.44156e-59
-1.6112e-59
-4.11196e-58
-1.86631e-58
-5.08834e-57
-2.23017e-57
-6.49715e-56
-2.74233e-56
-8.52534e-55
-3.46015e-55
-1.14504e-53
-4.46374e-54
-1.5693e-52
-5.85904e-53
-2.19129e-51
-7.77746e-52
-3.11764e-50
-1.03754e-50
-4.52114e-49
-1.38476e-49
-6.67253e-48
-1.84729e-48
-9.9712e-47
-2.46965e-47
-1.49679e-45
-3.32242e-46
-2.23831e-44
-4.48865e-45
-3.86955e-43
-7.04316e-44
-6.1863e-42
-1.05579e-42
-9.30983e-41
-1.49273e-41
-1.31786e-39
-1.96932e-40
-1.74933e-38
-2.40414e-39
-2.16536e-37
-2.69701e-38
-2.48172e-36
-2.76163e-37
-2.61315e-35
-2.56414e-36
-2.50813e-34
-2.14702e-35
-2.17822e-33
-1.61724e-34
-1.70221e-32
-1.09997e-33
-1.19663e-31
-6.8628e-33
-7.65375e-31
-4.06266e-32
-4.58807e-30
-2.37469e-31
-2.67278e-29
-1.35545e-30
-1.49227e-28
-6.55976e-30
-6.92095e-28
-1.71395e-29
-1.69696e-27
-1.57168e-31
-1.43086e-29
2.62434e-27
-2.36589e-74
-2.44851e-73
-9.87052e-74
-1.07016e-72
-5.39282e-73
-6.12523e-72
-3.11832e-72
-3.71033e-71
-1.90141e-71
-2.37007e-70
-1.22285e-70
-1.59699e-69
-8.29183e-70
-1.13478e-68
-5.92231e-69
-8.49656e-68
-4.44974e-68
-6.69584e-67
-3.51193e-67
-5.54693e-66
-2.90719e-66
-4.82438e-65
-2.52043e-65
-4.39996e-64
-2.28512e-64
-4.20313e-63
-2.16331e-63
-4.20048e-62
-2.13501e-62
-4.38592e-61
-2.19268e-61
-4.77729e-60
-2.33875e-60
-5.41779e-59
-2.58516e-59
-6.38151e-58
-2.95454e-58
-7.78345e-57
-3.483e-57
-9.79507e-56
-4.22461e-56
-1.26681e-54
-5.25716e-55
-1.67734e-53
-6.688e-54
-2.26696e-52
-8.65722e-53
-3.12291e-51
-1.13368e-51
-4.38545e-50
-1.49307e-50
-6.27984e-49
-1.96952e-49
-9.15404e-48
-2.60008e-48
-1.35108e-46
-3.44402e-47
-2.00257e-45
-4.59411e-46
-2.95579e-44
-6.1617e-45
-5.04212e-43
-9.59252e-44
-7.95087e-42
-1.42649e-42
-1.18049e-40
-2.00129e-41
-1.64917e-39
-2.62154e-40
-2.16088e-38
-3.18032e-39
-2.64032e-37
-3.54846e-38
-2.98647e-36
-3.617e-37
-3.10229e-35
-3.34628e-36
-2.93619e-34
-2.79498e-35
-2.51367e-33
-2.10306e-34
-1.9366e-32
-1.43136e-33
-1.34323e-31
-8.94997e-33
-8.48722e-31
-5.30606e-32
-5.02513e-30
-3.09005e-31
-2.88097e-29
-1.74834e-30
-1.57906e-28
-8.47103e-30
-7.28669e-28
-2.39312e-29
-1.92773e-27
-1.77773e-31
-1.31975e-29
1.08771e-27
-4.946e-74
-4.98868e-73
-2.00318e-73
-2.11659e-72
-1.06749e-72
-1.18156e-71
-6.02696e-72
-6.98793e-71
-3.59248e-71
-4.36317e-70
-2.26237e-70
-2.87848e-69
-1.50507e-69
-2.00645e-68
-1.05677e-68
-1.47658e-67
-7.81961e-68
-1.14571e-66
-6.0867e-67
-9.35788e-66
-4.97444e-66
-8.03232e-65
-4.26044e-65
-7.23382e-64
-3.81702e-64
-6.82496e-63
-3.57088e-63
-6.73601e-62
-3.48191e-62
-6.94417e-61
-3.53199e-61
-7.46486e-60
-3.71956e-60
-8.35103e-59
-4.05777e-59
-9.69881e-58
-4.57524e-58
-1.16592e-56
-5.31911e-57
-1.44569e-55
-6.36032e-56
-1.84198e-54
-7.80026e-55
-2.40273e-53
-9.77727e-54
-3.19982e-52
-1.24698e-52
-4.34509e-51
-1.60952e-51
-6.01767e-50
-2.09114e-50
-8.50293e-49
-2.72462e-49
-1.22353e-47
-3.55789e-48
-1.78293e-46
-4.6674e-47
-2.60889e-45
-6.17124e-46
-3.80071e-44
-8.21337e-45
-6.39842e-43
-1.26813e-43
-9.95477e-42
-1.87021e-42
-1.45881e-40
-2.60287e-41
-2.01234e-39
-3.38438e-40
-2.60437e-38
-4.07822e-39
-3.14339e-37
-4.52257e-38
-3.51154e-36
-4.58409e-37
-3.60118e-35
-4.21885e-36
-3.363e-34
-3.50661e-35
-2.83912e-33
-2.62683e-34
-2.15639e-32
-1.7813e-33
-1.47512e-31
-1.11085e-32
-9.20281e-31
-6.56642e-32
-5.38252e-30
-3.79691e-31
-3.03985e-29
-2.1199e-30
-1.63446e-28
-1.01704e-29
-7.44298e-28
-2.98145e-29
-2.04208e-27
-2.04542e-31
-1.29414e-29
3.66423e-28
-1.04059e-73
-1.02361e-72
-4.08653e-73
-4.21095e-72
-2.12023e-72
-2.2886e-71
-1.16584e-71
-1.31813e-70
-6.77154e-71
-8.0192e-70
-4.16085e-70
-5.16147e-69
-2.70622e-69
-3.51694e-68
-1.86203e-68
-2.53581e-67
-1.35336e-67
-1.93223e-66
-1.03693e-66
-1.55303e-65
-8.3557e-66
-1.3139e-64
-7.06458e-65
-1.16762e-63
-6.25269e-64
-1.08775e-62
-5.7806e-63
-1.06031e-61
-5.57025e-62
-1.07949e-60
-5.58259e-61
-1.14564e-59
-5.80621e-60
-1.26469e-58
-6.25245e-59
-1.44854e-57
-6.95481e-58
-1.7163e-56
-7.97176e-57
-2.09646e-55
-9.39226e-56
-2.63028e-54
-1.1343e-54
-3.3778e-53
-1.39954e-53
-4.42858e-52
-1.75682e-52
-5.9219e-51
-2.23271e-51
-8.08027e-50
-2.85893e-50
-1.12556e-48
-3.67646e-49
-1.59761e-47
-4.7458e-48
-2.29728e-46
-6.16287e-47
-3.31757e-45
-8.0735e-46
-4.76999e-44
-1.06579e-44
-7.92567e-43
-1.63147e-43
-1.21692e-41
-2.38558e-42
-1.76088e-40
-3.29317e-41
-2.39973e-39
-4.24977e-40
-3.06956e-38
-5.08574e-39
-3.66239e-37
-5.60373e-38
-4.04402e-36
-5.64506e-37
-4.09775e-35
-5.16348e-36
-3.77867e-34
-4.26463e-35
-3.14754e-33
-3.17359e-34
-2.35721e-32
-2.13784e-33
-1.58979e-31
-1.32511e-32
-9.78708e-31
-7.78828e-32
-5.65492e-30
-4.46718e-31
-3.15134e-29
-2.46063e-30
-1.6655e-28
-1.16414e-29
-7.4657e-28
-3.46464e-29
-2.07998e-27
-2.41609e-31
-1.34296e-29
1.97988e-28
-2.20262e-73
-2.1145e-72
-8.39561e-73
-8.44262e-72
-4.24135e-72
-4.46759e-71
-2.26951e-71
-2.50389e-70
-1.28217e-70
-1.48158e-69
-7.66639e-70
-9.27851e-69
-4.85891e-69
-6.16006e-68
-3.26502e-68
-4.33701e-67
-2.32365e-67
-3.2352e-66
-1.74786e-66
-2.55214e-65
-1.38595e-65
-2.124e-64
-1.15519e-64
-1.86004e-63
-1.00924e-63
-1.70966e-62
-9.21723e-63
-1.6454e-61
-8.77687e-62
-1.65431e-60
-8.69194e-61
-1.73359e-59
-8.92983e-60
-1.88888e-58
-9.49348e-59
-2.13406e-57
-1.04176e-57
-2.49235e-56
-1.17701e-56
-2.99858e-55
-1.36567e-55
-3.70296e-54
-1.62286e-54
-4.67809e-53
-1.96888e-53
-6.03218e-52
-2.42955e-52
-7.93366e-51
-3.03628e-51
-1.06518e-49
-3.82719e-50
-1.46101e-48
-4.85251e-49
-2.0435e-47
-6.18708e-48
-2.89747e-46
-7.94829e-47
-4.12773e-45
-1.03113e-45
-5.8561e-44
-1.34953e-44
-9.60386e-43
-2.04741e-43
-1.45557e-41
-2.96779e-42
-2.08043e-40
-4.06336e-41
-2.8025e-39
-5.20431e-40
-3.54533e-38
-6.18525e-39
-4.1848e-37
-6.7714e-38
-4.57146e-36
-6.77852e-37
-4.58125e-35
-6.16014e-36
-4.17538e-34
-5.05199e-35
-3.43432e-33
-3.72982e-34
-2.53701e-32
-2.49071e-33
-1.68657e-31
-1.53026e-32
-1.02373e-30
-8.92093e-32
-5.84011e-30
-5.07302e-31
-3.2152e-29
-2.76116e-30
-1.67524e-28
-1.2887e-29
-7.40179e-28
-3.85451e-29
-2.07393e-27
-2.91968e-31
-1.45774e-29
1.17868e-29
-4.67427e-73
-4.38187e-72
-1.73329e-72
-1.70201e-71
-8.5409e-72
-8.78473e-71
-4.45263e-71
-4.79666e-70
-2.44724e-70
-2.76105e-69
-1.42252e-69
-1.68085e-68
-8.76789e-69
-1.08512e-67
-5.73815e-68
-7.43964e-67
-3.9866e-67
-5.41657e-66
-2.93552e-66
-4.18187e-65
-2.28491e-65
-3.41533e-64
-1.87397e-64
-2.94191e-63
-1.61401e-63
-2.66454e-62
-1.45502e-62
-2.52997e-61
-1.36861e-61
-2.51113e-60
-1.33914e-60
-2.59821e-59
-1.35908e-59
-2.79444e-58
-1.42655e-58
-3.11465e-57
-1.5443e-57
-3.5857e-56
-1.71944e-56
-4.24842e-55
-1.96372e-55
-5.16162e-54
-2.29413e-54
-6.4099e-53
-2.73349e-53
-8.11958e-52
-3.31096e-52
-1.04886e-50
-4.06254e-51
-1.38347e-49
-5.03314e-50
-1.86559e-48
-6.28359e-49
-2.56791e-47
-7.90486e-48
-3.58658e-46
-1.00375e-46
-5.03687e-45
-1.28867e-45
-7.04847e-44
-1.6712e-44
-1.14079e-42
-2.51193e-43
-1.70686e-41
-3.60888e-42
-2.41054e-40
-4.90062e-41
-3.21126e-39
-6.23015e-40
-4.02036e-38
-7.3548e-39
-4.69849e-37
-8.00158e-38
-5.08249e-36
-7.9612e-37
-5.04264e-35
-7.18885e-36
-4.54745e-34
-5.85344e-35
-3.69718e-33
-4.28486e-34
-2.69591e-32
-2.83259e-33
-1.76653e-31
-1.72097e-32
-1.0562e-30
-9.92442e-32
-5.94086e-30
-5.58829e-31
-3.23081e-29
-3.00985e-30
-1.66353e-28
-1.38911e-29
-7.26665e-28
-4.16209e-29
-2.04162e-27
-3.44954e-31
-1.57355e-29
-2.97808e-29
-9.89925e-73
-9.06709e-72
-3.57943e-72
-3.43414e-71
-1.72471e-71
-1.73318e-70
-8.78277e-71
-9.24372e-70
-4.70589e-70
-5.18697e-69
-2.66219e-69
-3.07298e-68
-1.59562e-68
-1.92895e-67
-1.01578e-67
-1.28628e-66
-6.87515e-67
-9.12192e-66
-4.94369e-66
-6.87581e-65
-3.7682e-65
-5.49749e-64
-3.03471e-64
-4.64836e-63
-2.57257e-63
-4.14209e-62
-2.28668e-62
-3.87595e-61
-2.12324e-61
-3.7955e-60
-2.05201e-60
-3.8764e-59
-2.05706e-59
-4.11521e-58
-2.1318e-58
-4.52528e-57
-2.27655e-57
-5.13551e-56
-2.49739e-56
-5.99136e-55
-2.80598e-55
-7.15844e-54
-3.21983e-54
-8.73105e-53
-3.76287e-53
-1.0851e-51
-4.46631e-52
-1.37436e-50
-5.37008e-51
-1.77752e-49
-6.52652e-50
-2.35194e-48
-8.00878e-49
-3.18026e-47
-9.92618e-48
-4.36926e-46
-1.24438e-46
-6.04284e-45
-1.57966e-45
-8.33572e-44
-2.02843e-44
-1.33106e-42
-3.0192e-43
-1.96601e-41
-4.29834e-42
-2.74402e-40
-5.78898e-41
-3.61662e-39
-7.30606e-40
-4.48371e-38
-8.56937e-39
-5.19221e-37
-9.26816e-38
-5.5671e-36
-9.16915e-37
-5.47461e-35
-8.23064e-36
-4.89111e-34
-6.65621e-35
-3.93568e-33
-4.83148e-34
-2.83569e-32
-3.1597e-33
-1.83214e-31
-1.89475e-32
-1.07805e-30
-1.07757e-31
-5.9662e-30
-5.99288e-31
-3.19958e-29
-3.19415e-30
-1.62914e-28
-1.46097e-29
-7.05436e-28
-4.38431e-29
-1.98743e-27
-2.59684e-30
-1.09698e-28
-2.92739e-29
-2.08458e-72
-1.86648e-71
-7.35792e-72
-6.9007e-71
-3.47427e-71
-3.41288e-70
-1.73323e-70
-1.78318e-69
-9.08175e-70
-9.78478e-69
-5.01385e-69
-5.65692e-68
-2.92765e-68
-3.45916e-67
-1.81424e-67
-2.24513e-66
-1.19576e-66
-1.55023e-65
-8.38585e-66
-1.13942e-64
-6.24868e-65
-8.90376e-64
-4.93284e-64
-7.37734e-63
-4.10951e-63
-6.458e-62
-3.59752e-62
-5.94887e-61
-3.29493e-61
-5.74311e-60
-3.14397e-60
-5.78759e-59
-3.11261e-59
-6.064e-58
-3.18477e-58
-6.57918e-57
-3.355e-57
-7.3606e-56
-3.62575e-56
-8.45506e-55
-4.00606e-55
-9.93094e-54
-4.5113e-54
-1.1887e-52
-5.16378e-53
-1.44745e-51
-5.9945e-52
-1.79413e-50
-7.04646e-51
-2.26993e-49
-8.38044e-50
-2.93973e-48
-1.00847e-48
-3.89593e-47
-1.22898e-47
-5.25489e-46
-1.51867e-46
-7.14698e-45
-1.90383e-45
-9.70889e-44
-2.41837e-44
-1.52869e-42
-3.56233e-43
-2.22841e-41
-5.02396e-42
-3.07401e-40
-6.71031e-41
-4.00968e-39
-8.40855e-40
-4.92525e-38
-9.80204e-39
-5.65581e-37
-1.05439e-37
-6.01661e-36
-1.03784e-36
-5.87125e-35
-9.26772e-36
-5.20383e-34
-7.44983e-35
-4.15044e-33
-5.36544e-34
-2.95902e-32
-3.47141e-33
-1.88665e-31
-2.05192e-32
-1.09192e-30
-1.14723e-31
-5.93127e-30
-6.27743e-31
-3.12657e-29
-3.30429e-30
-1.57185e-28
-1.49856e-29
-6.7523e-28
-4.49979e-29
-1.90595e-27
-5.73602e-30
-2.2687e-28
-2.15672e-29
-4.35842e-72
-3.81648e-71
-1.50033e-71
-1.37611e-70
-6.94882e-71
-6.67568e-70
-3.40386e-70
-3.42478e-69
-1.74956e-69
-1.84343e-68
-9.45804e-69
-1.04355e-67
-5.39713e-68
-6.23582e-67
-3.26341e-67
-3.94877e-66
-2.09736e-66
-2.65837e-65
-1.43499e-65
-1.90591e-64
-1.04483e-64
-1.45497e-63
-8.0778e-64
-1.18031e-62
-6.60693e-63
-1.01405e-61
-5.69138e-62
-9.18802e-61
-5.13871e-61
-8.74015e-60
-4.83955e-60
-8.68864e-59
-4.73163e-59
-8.98492e-58
-4.78048e-58
-9.61984e-57
-4.96879e-57
-1.06126e-55
-5.29042e-56
-1.20048e-54
-5.74713e-55
-1.38599e-53
-6.34732e-54
-1.62711e-52
-7.1069e-53
-1.9388e-51
-8.05294e-52
-2.34711e-50
-9.23032e-51
-2.89724e-49
-1.07105e-49
-3.66145e-48
-1.26016e-48
-4.74165e-47
-1.50599e-47
-6.2627e-46
-1.83034e-46
-8.35912e-45
-2.26208e-45
-1.11663e-43
-2.83872e-44
-1.73192e-42
-4.13438e-43
-2.49024e-41
-5.77295e-42
-3.3945e-40
-7.64552e-41
-4.38255e-39
-9.51301e-40
-5.33597e-38
-1.1025e-38
-6.08039e-37
-1.18011e-37
-6.42353e-36
-1.15651e-36
-6.22758e-35
-1.0283e-35
-5.48365e-34
-8.22508e-35
-4.34227e-33
-5.88424e-34
-3.06859e-32
-3.76928e-33
-1.93342e-31
-2.19504e-32
-1.10075e-30
-1.2031e-31
-5.85536e-30
-6.44598e-31
-3.02073e-29
-3.33688e-30
-1.4937e-28
-1.49747e-29
-6.35417e-28
-4.4814e-29
-1.79005e-27
-7.31618e-30
-2.73433e-28
-1.39096e-29
-9.05786e-72
-7.75985e-71
-3.03123e-71
-2.72006e-70
-1.37599e-70
-1.29329e-69
-6.62442e-70
-6.52091e-69
-3.34735e-69
-3.45062e-68
-1.77731e-68
-1.91853e-67
-9.94524e-68
-1.12414e-66
-5.88661e-67
-6.96794e-66
-3.69882e-66
-4.58577e-65
-2.47337e-65
-3.21283e-64
-1.76134e-64
-2.39837e-63
-1.33396e-63
-1.90549e-62
-1.07108e-62
-1.6066e-61
-9.07731e-62
-1.43162e-60
-8.07861e-61
-1.34178e-59
-7.50992e-60
-1.31598e-58
-7.25302e-59
-1.34356e-57
-7.23905e-58
-1.42028e-56
-7.4278e-57
-1.54598e-55
-7.7957e-56
-1.72315e-54
-8.3289e-55
-1.95621e-53
-9.0203e-54
-2.25219e-52
-9.87122e-53
-2.62393e-51
-1.08988e-51
-3.09702e-50
-1.21486e-50
-3.71973e-49
-1.37073e-49
-4.57164e-48
-1.57111e-48
-5.76424e-47
-1.83492e-47
-7.42998e-46
-2.1869e-46
-9.70516e-45
-2.65813e-45
-1.27207e-43
-3.28921e-44
-1.94052e-42
-4.72999e-43
-2.7492e-41
-6.53354e-42
-3.70095e-40
-8.57599e-41
-4.7288e-39
-1.0595e-39
-5.70829e-38
-1.22102e-38
-6.45828e-37
-1.30119e-37
-6.7813e-36
-1.27052e-36
-6.53905e-35
-1.12591e-35
-5.7285e-34
-8.97255e-35
-4.51141e-33
-6.38552e-34
-3.16632e-32
-4.05542e-33
-1.97517e-31
-2.32783e-32
-1.10723e-30
-1.24828e-31
-5.75875e-30
-6.51521e-31
-2.89371e-29
-3.2968e-30
-1.39923e-28
-1.45703e-29
-5.86751e-28
-4.31401e-29
-1.63782e-27
-5.78125e-30
-2.0577e-28
-6.0579e-30
-1.87766e-71
-1.57426e-70
-6.07676e-71
-5.33663e-70
-2.69631e-70
-2.48024e-69
-1.27479e-69
-1.22814e-68
-6.33752e-69
-6.39396e-68
-3.31159e-68
-3.4986e-67
-1.82224e-67
-2.01585e-66
-1.05923e-66
-1.22704e-65
-6.52751e-66
-7.91945e-65
-4.2774e-65
-5.43665e-64
-2.98513e-64
-3.97669e-63
-2.21772e-63
-3.0986e-62
-1.74956e-62
-2.56625e-61
-1.45962e-61
-2.25038e-60
-1.28112e-60
-2.07928e-59
-1.17623e-59
-2.01326e-58
-1.12299e-58
-2.03095e-57
-1.10824e-57
-2.12179e-56
-1.12374e-56
-2.28137e-55
-1.16385e-55
-2.50845e-54
-1.22415e-54
-2.80316e-53
-1.30094e-53
-3.16725e-52
-1.39149e-52
-3.60811e-51
-1.49556e-51
-4.14799e-50
-1.61764e-50
-4.8368e-49
-1.76882e-49
-5.76165e-48
-1.96701e-48
-7.04436e-47
-2.23566e-47
-8.82479e-46
-2.60281e-46
-1.12389e-44
-3.10126e-45
-1.441e-43
-3.77398e-44
-2.15688e-42
-5.34768e-43
-3.00555e-41
-7.29714e-42
-3.99128e-40
-9.48555e-41
-5.04414e-39
-1.16316e-39
-6.03643e-38
-1.33308e-38
-6.78318e-37
-1.41487e-37
-7.08412e-36
-1.37742e-36
-6.8012e-35
-1.21777e-35
-5.93569e-34
-9.68128e-35
-4.65698e-33
-6.86535e-34
-3.25282e-32
-4.33092e-33
-2.01352e-31
-2.45372e-32
-1.11333e-30
-1.28636e-31
-5.65935e-30
-6.51038e-31
-2.7579e-29
-3.19661e-30
-1.29478e-28
-1.38124e-29
-5.31423e-28
-4.00628e-29
-1.45541e-27
-3.77073e-30
-1.28679e-28
-3.15429e-30
-3.90207e-71
-3.20264e-70
-1.21332e-70
-1.04311e-69
-5.23872e-70
-4.71755e-69
-2.42613e-69
-2.28823e-68
-1.18556e-68
-1.17101e-67
-6.1e-68
-6.3093e-67
-3.30643e-67
-3.58102e-66
-1.8922e-66
-2.14597e-65
-1.1469e-65
-1.3622e-64
-7.38575e-65
-9.1893e-64
-5.06399e-64
-6.60293e-63
-3.69793e-63
-5.05632e-62
-2.87086e-62
-4.12009e-61
-2.36074e-61
-3.56019e-60
-2.04576e-60
-3.24672e-59
-1.85715e-59
-3.1071e-58
-1.7549e-58
-3.101e-57
-1.71475e-57
-3.20639e-56
-1.72092e-56
-3.41095e-55
-1.76185e-55
-3.70637e-54
-1.82765e-54
-4.08453e-53
-1.90909e-53
-4.53695e-52
-1.99831e-52
-5.06006e-51
-2.09152e-51
-5.66803e-50
-2.19305e-50
-6.41015e-49
-2.31802e-49
-7.3818e-48
-2.49117e-48
-8.71743e-47
-2.74263e-47
-1.05654e-45
-3.10451e-46
-1.30599e-44
-3.61066e-45
-1.63135e-43
-4.30532e-44
-2.38775e-42
-5.9935e-43
-3.26369e-41
-8.06167e-42
-4.26706e-40
-1.03632e-40
-5.32741e-39
-1.26039e-39
-6.31702e-38
-1.43621e-38
-7.05045e-37
-1.51847e-37
-7.32705e-36
-1.47471e-36
-7.00959e-35
-1.30186e-35
-6.10174e-34
-1.03379e-34
-4.77674e-33
-7.31701e-34
-3.32714e-32
-4.59449e-33
-2.04863e-31
-2.57475e-32
-1.12002e-30
-1.32053e-31
-5.56976e-30
-6.45937e-31
-2.62427e-29
-3.05383e-30
-1.18724e-28
-1.27814e-29
-4.72564e-28
-3.58608e-29
-1.25393e-27
-2.43551e-30
-8.0159e-29
-1.55169e-30
-8.17407e-71
-6.56911e-70
-2.42596e-70
-2.0422e-69
-1.01336e-69
-8.93571e-69
-4.5774e-69
-4.22759e-68
-2.19283e-68
-2.12102e-67
-1.10979e-67
-1.1241e-66
-5.92739e-67
-6.28686e-66
-3.34421e-66
-3.71427e-65
-1.99782e-65
-2.32376e-64
-1.26738e-64
-1.54417e-63
-8.55783e-64
-1.09264e-62
-6.15603e-63
-8.24127e-62
-4.71202e-62
-6.61986e-61
-3.82541e-61
-5.6462e-60
-3.27777e-60
-5.08991e-59
-2.94634e-59
-4.82169e-58
-2.75975e-58
-4.76847e-57
-2.67445e-57
-4.88833e-56
-2.66163e-56
-5.15516e-55
-2.69944e-55
-5.54813e-54
-2.76843e-54
-6.04453e-53
-2.84974e-53
-6.61773e-52
-2.92649e-52
-7.24416e-51
-2.98877e-51
-7.92223e-50
-3.04066e-50
-8.69697e-49
-3.10407e-49
-9.6737e-48
-3.21495e-48
-1.10041e-46
-3.41376e-47
-1.28485e-45
-3.73803e-46
-1.53392e-44
-4.22185e-45
-1.8575e-43
-4.9092e-44
-2.64654e-42
-6.68636e-43
-3.53432e-41
-8.8364e-42
-4.53546e-40
-1.12072e-40
-5.58204e-39
-1.34997e-39
-6.55023e-38
-1.5284e-38
-7.25784e-37
-1.60957e-37
-7.50641e-36
-1.55994e-36
-7.15997e-35
-1.37605e-35
-6.22258e-34
-1.09261e-34
-4.86722e-33
-7.7305e-34
-3.38682e-32
-4.84175e-33
-2.07924e-31
-2.69066e-32
-1.12714e-30
-1.35274e-31
-5.49569e-30
-6.38659e-31
-2.50065e-29
-2.88719e-30
-1.08278e-28
-1.15793e-29
-4.13525e-28
-3.0923e-29
-1.04616e-27
-1.73277e-30
-5.52888e-29
-9.10145e-31
-1.73393e-70
-1.36473e-69
-4.88696e-70
-4.0291e-69
-1.96262e-69
-1.695e-68
-8.59906e-69
-7.77874e-68
-4.02124e-68
-3.80978e-67
-1.99637e-67
-1.98073e-66
-1.04939e-66
-1.0903e-65
-5.83738e-66
-6.35107e-65
-3.44054e-65
-3.92027e-64
-2.15355e-64
-2.57037e-63
-1.43478e-63
-1.79446e-62
-1.01864e-62
-1.33574e-61
-7.70117e-62
-1.05964e-60
-6.18262e-61
-8.93603e-60
-5.24608e-60
-7.97579e-59
-4.67635e-59
-7.49076e-58
-4.34867e-58
-7.35281e-57
-4.18689e-57
-7.48666e-56
-4.14019e-56
-7.84303e-55
-4.16938e-55
-8.38016e-54
-4.23886e-54
-9.05092e-53
-4.31343e-53
-9.79796e-52
-4.36089e-52
-1.05635e-50
-4.36099e-51
-1.13177e-49
-4.31733e-50
-1.20954e-48
-4.26317e-49
-1.30147e-47
-4.25287e-48
-1.42528e-46
-4.34333e-47
-1.59893e-45
-4.57997e-46
-1.83563e-44
-4.99614e-45
-2.14363e-43
-5.6333e-44
-2.95684e-42
-7.46576e-43
-3.83764e-41
-9.64892e-42
-4.81193e-40
-1.2031e-40
-5.81822e-39
-1.43184e-39
-6.74129e-38
-1.60846e-38
-7.40655e-37
-1.68623e-37
-7.62054e-36
-1.63085e-36
-7.24895e-35
-1.43815e-35
-6.29396e-34
-1.14279e-34
-4.92417e-33
-8.09284e-34
-3.42826e-32
-5.06523e-33
-2.10291e-31
-2.79865e-32
-1.13352e-30
-1.38328e-31
-5.43569e-30
-6.30842e-31
-2.39087e-29
-2.71309e-30
-9.85913e-29
-1.03094e-29
-3.57241e-28
-2.56711e-29
-8.44139e-28
-1.31991e-30
-4.10188e-29
1.11257e-28