/*--------------------------------*- C++ -*----------------------------------*\
  =========                 |
  \\      /  F ield         | OpenFOAM: The Open Source CFD Toolbox
   \\    /   O peration     | Website:  https://openfoam.org
    \\  /    A nd           | Version:  9
     \\/     M anipulation  |
\*---------------------------------------------------------------------------*/
FoamFile
{
    format      ascii;
    class       volScalarField;
    location    "0.15";
    object      p;
}
// * * * * * * * * * * * * * * * * * * * * * * * * * * * * * * * * * * * * * //

dimensions      [1 -1 -2 0 0 0 0];

internalField   nonuniform List<scalar> 
5000
(
2.72569
2.72458
2.72339
2.72216
2.72087
2.71953
2.71813
2.71666
2.71513
2.71353
2.71184
2.71007
2.70821
2.70624
2.70416
2.70194
2.69959
2.69709
2.69441
2.69156
2.68852
2.68528
2.68183
2.67816
2.67421
2.66988
2.66504
2.65955
2.65333
2.64637
2.63807
2.6286
2.61883
2.60865
2.5978
2.58606
2.57324
2.55922
2.54392
2.52718
2.50871
2.48814
2.4651
2.43927
2.41032
2.37784
2.34117
2.29948
2.25174
2.19672
2.72376
2.72263
2.72141
2.72014
2.71883
2.71745
2.71602
2.71452
2.71295
2.71131
2.70958
2.70777
2.70585
2.70383
2.70169
2.69942
2.697
2.69442
2.69167
2.68873
2.6856
2.68226
2.67872
2.67494
2.67088
2.66643
2.66146
2.65583
2.64944
2.6423
2.63378
2.62407
2.61405
2.6036
2.59249
2.58048
2.56736
2.55302
2.53736
2.52023
2.50136
2.48038
2.45693
2.43069
2.40137
2.36856
2.33166
2.28987
2.24219
2.18745
2.72183
2.72068
2.71943
2.71815
2.71681
2.71541
2.71395
2.71242
2.71083
2.70915
2.7074
2.70555
2.70359
2.70153
2.69934
2.69701
2.69452
2.69187
2.68903
2.68599
2.68276
2.67931
2.67566
2.67177
2.6676
2.66305
2.65799
2.65226
2.64577
2.63851
2.62984
2.61991
2.60963
2.59891
2.58753
2.57527
2.56192
2.54736
2.53145
2.51403
2.49483
2.47352
2.44979
2.42332
2.39383
2.36092
2.32403
2.28247
2.23538
2.18159
2.7199
2.71873
2.71747
2.71617
2.71481
2.71339
2.71191
2.71036
2.70874
2.70704
2.70526
2.70337
2.70139
2.69928
2.69704
2.69466
2.69211
2.68939
2.68647
2.68334
2.68001
2.67646
2.6727
2.66871
2.66445
2.65982
2.65467
2.64886
2.6423
2.63495
2.62615
2.61604
2.60555
2.5946
2.58298
2.5705
2.55697
2.54224
2.52615
2.50853
2.48911
2.4676
2.44371
2.41716
2.38767
2.35487
2.31824
2.27718
2.23102
2.17874
2.71796
2.71678
2.71551
2.71419
2.71282
2.71139
2.70989
2.70832
2.70668
2.70496
2.70315
2.70124
2.69922
2.69708
2.6948
2.69237
2.68977
2.68698
2.68399
2.68079
2.67736
2.67373
2.66988
2.6658
2.66146
2.65675
2.65153
2.64566
2.63903
2.63159
2.62268
2.61242
2.60176
2.59062
2.57884
2.56621
2.55255
2.53769
2.52148
2.50372
2.48419
2.46259
2.43867
2.41219
2.38287
2.35038
2.31427
2.27398
2.22901
2.17854
2.71603
2.71484
2.71356
2.71223
2.71084
2.7094
2.70789
2.7063
2.70465
2.70291
2.70108
2.69914
2.6971
2.69493
2.69261
2.69014
2.68749
2.68464
2.68159
2.67832
2.67482
2.67111
2.66718
2.66303
2.65862
2.65385
2.64857
2.64264
2.63595
2.62844
2.61943
2.60905
2.59826
2.587
2.57511
2.56238
2.54863
2.53369
2.51742
2.49962
2.48005
2.45848
2.43465
2.40836
2.37937
2.34738
2.31197
2.27271
2.22916
2.18071
2.71409
2.71289
2.7116
2.71027
2.70888
2.70742
2.7059
2.70431
2.70264
2.70088
2.69904
2.69708
2.69501
2.69282
2.69047
2.68796
2.68527
2.68238
2.67927
2.67594
2.67238
2.6686
2.66461
2.6604
2.65593
2.65111
2.64579
2.63981
2.63307
2.62551
2.61642
2.60596
2.59508
2.58374
2.57177
2.55898
2.54519
2.53024
2.51397
2.4962
2.47669
2.45523
2.4316
2.40562
2.3771
2.34574
2.31121
2.27315
2.23123
2.18496
2.71215
2.71095
2.70966
2.70832
2.70692
2.70546
2.70393
2.70233
2.70065
2.69889
2.69703
2.69506
2.69297
2.69075
2.68838
2.68584
2.68312
2.68019
2.67704
2.67365
2.67004
2.66621
2.66217
2.65791
2.6534
2.64854
2.64318
2.63717
2.6304
2.62279
2.61366
2.60314
2.59221
2.58083
2.56883
2.55603
2.54225
2.52732
2.51111
2.49344
2.47407
2.45281
2.42947
2.40392
2.37596
2.34536
2.31185
2.27512
2.23496
2.19099
2.71021
2.70901
2.70771
2.70637
2.70497
2.70351
2.70198
2.70037
2.69869
2.69692
2.69505
2.69307
2.69097
2.68873
2.68634
2.68378
2.68103
2.67807
2.67488
2.67146
2.66781
2.66394
2.65985
2.65556
2.65101
2.64613
2.64075
2.63472
2.62792
2.6203
2.61114
2.6006
2.58965
2.57827
2.56629
2.55351
2.53978
2.52493
2.50884
2.49132
2.47217
2.45118
2.42823
2.40318
2.3759
2.34616
2.31374
2.27845
2.24012
2.19848
2.70826
2.70706
2.70577
2.70443
2.70303
2.70157
2.70004
2.69843
2.69675
2.69497
2.6931
2.69111
2.689
2.68675
2.68435
2.68177
2.679
2.67602
2.67281
2.66937
2.66568
2.66178
2.65766
2.65334
2.64878
2.64388
2.63849
2.63245
2.62565
2.61802
2.60886
2.59833
2.5874
2.57606
2.56412
2.55142
2.53777
2.52305
2.50713
2.48983
2.47094
2.45031
2.42781
2.40336
2.37682
2.34801
2.31677
2.28297
2.2465
2.20718
2.70632
2.70512
2.70383
2.70249
2.7011
2.69964
2.69811
2.69651
2.69482
2.69305
2.69117
2.68919
2.68708
2.68482
2.68241
2.67983
2.67705
2.67405
2.67083
2.66736
2.66366
2.65973
2.6556
2.65127
2.6467
2.64179
2.6364
2.63037
2.62358
2.61596
2.60682
2.59632
2.58545
2.57418
2.56233
2.54972
2.53621
2.52167
2.50596
2.48893
2.47037
2.45015
2.42817
2.40437
2.37864
2.35083
2.32081
2.28852
2.2539
2.21685
2.70437
2.70318
2.7019
2.70056
2.69918
2.69772
2.6962
2.6946
2.69292
2.69115
2.68928
2.6873
2.68519
2.68294
2.68053
2.67794
2.67515
2.67215
2.66892
2.66545
2.66174
2.6578
2.65367
2.64933
2.64476
2.63986
2.63448
2.62847
2.6217
2.61411
2.60502
2.59459
2.5838
2.57263
2.56089
2.54843
2.53509
2.52075
2.50531
2.48859
2.47041
2.45065
2.42925
2.40616
2.38128
2.3545
2.32574
2.29496
2.26216
2.22728
2.70242
2.70123
2.69996
2.69864
2.69726
2.69582
2.6943
2.69271
2.69104
2.68928
2.68742
2.68544
2.68334
2.68109
2.67869
2.6761
2.67332
2.67033
2.6671
2.66363
2.65992
2.65599
2.65185
2.64752
2.64296
2.63808
2.63273
2.62675
2.62001
2.61247
2.60345
2.59311
2.58244
2.57139
2.55981
2.54752
2.53438
2.5203
2.50516
2.48879
2.47104
2.45179
2.43101
2.40866
2.38467
2.35895
2.33145
2.30217
2.27114
2.23833
2.70046
2.69929
2.69803
2.69672
2.69535
2.69392
2.69242
2.69084
2.68918
2.68743
2.68558
2.68362
2.68153
2.67929
2.6769
2.67433
2.67156
2.66857
2.66535
2.6619
2.6582
2.65428
2.65016
2.64585
2.64131
2.63645
2.63114
2.6252
2.61852
2.61104
2.6021
2.59188
2.58135
2.57047
2.55906
2.54697
2.53408
2.52028
2.50547
2.48949
2.4722
2.45351
2.43338
2.41181
2.38873
2.36409
2.33785
2.31005
2.28072
2.24988
2.69851
2.69735
2.6961
2.69481
2.69345
2.69203
2.69055
2.68899
2.68734
2.68561
2.68377
2.68183
2.67975
2.67753
2.67516
2.6726
2.66985
2.66689
2.66369
2.66025
2.65657
2.65268
2.64858
2.64429
2.63979
2.63497
2.6297
2.62382
2.6172
2.60981
2.60098
2.5909
2.58053
2.56983
2.55864
2.54678
2.53415
2.52067
2.50622
2.49067
2.47388
2.45577
2.43632
2.41555
2.39341
2.36985
2.34486
2.31849
2.2908
2.26182
2.69655
2.69541
2.69418
2.6929
2.69156
2.69016
2.68869
2.68715
2.68552
2.68381
2.68199
2.68006
2.67801
2.67581
2.67346
2.67093
2.66821
2.66527
2.6621
2.65869
2.65504
2.65118
2.64711
2.64287
2.6384
2.63363
2.62842
2.6226
2.61607
2.60877
2.60007
2.59015
2.57997
2.56948
2.55852
2.54692
2.53459
2.52145
2.50739
2.4923
2.47603
2.45853
2.43979
2.41983
2.39863
2.37615
2.35239
2.32742
2.30129
2.27406
2.69459
2.69347
2.69225
2.69099
2.68967
2.68829
2.68684
2.68532
2.68372
2.68203
2.68024
2.67833
2.67631
2.67414
2.67181
2.66931
2.66662
2.66371
2.66058
2.65721
2.6536
2.64978
2.64576
2.64155
2.63714
2.63243
2.62728
2.62154
2.61511
2.60792
2.59937
2.58963
2.57967
2.56941
2.55869
2.54738
2.53537
2.52259
2.50896
2.49434
2.47862
2.46175
2.44374
2.42461
2.40435
2.38293
2.36037
2.33675
2.31211
2.28653
2.69263
2.69153
2.69033
2.68909
2.68779
2.68643
2.68501
2.68351
2.68194
2.68027
2.67851
2.67664
2.67464
2.6725
2.67021
2.66774
2.66509
2.66222
2.65913
2.65581
2.65225
2.64847
2.6445
2.64036
2.636
2.63136
2.62629
2.62064
2.61431
2.60725
2.59886
2.58933
2.57959
2.56958
2.55915
2.54814
2.53647
2.52408
2.51088
2.49676
2.48162
2.4654
2.44813
2.42984
2.41051
2.39014
2.36876
2.34644
2.32322
2.2992
2.69067
2.68959
2.68841
2.68719
2.68592
2.68459
2.68319
2.68172
2.68017
2.67854
2.67681
2.67496
2.673
2.6709
2.66865
2.66622
2.66361
2.66079
2.65775
2.65448
2.65098
2.64726
2.64335
2.63926
2.63498
2.63041
2.62543
2.61988
2.61367
2.60675
2.59854
2.58924
2.57975
2.57001
2.55986
2.54918
2.53787
2.52589
2.51315
2.49955
2.48499
2.46944
2.45292
2.43546
2.41708
2.39774
2.37751
2.35645
2.3346
2.31204
2.68871
2.68765
2.6865
2.6853
2.68405
2.68275
2.68138
2.67994
2.67842
2.67682
2.67513
2.67332
2.6714
2.66934
2.66713
2.66475
2.66218
2.65942
2.65643
2.65322
2.64978
2.64613
2.64229
2.63827
2.63406
2.62958
2.62469
2.61926
2.61318
2.60642
2.59841
2.58934
2.58011
2.57066
2.56083
2.55049
2.53956
2.528
2.51573
2.50267
2.48871
2.47384
2.45807
2.44145
2.424
2.40568
2.38657
2.36673
2.34618
2.32503
2.68674
2.68571
2.68458
2.68341
2.68219
2.68091
2.67958
2.67817
2.67669
2.67513
2.67347
2.67171
2.66982
2.66781
2.66564
2.66332
2.66081
2.6581
2.65518
2.65203
2.64866
2.64508
2.64132
2.63738
2.63325
2.62886
2.62408
2.61877
2.61284
2.60624
2.59844
2.58963
2.58068
2.57153
2.56202
2.55205
2.54151
2.53039
2.5186
2.50609
2.49275
2.47856
2.46354
2.44776
2.43123
2.41392
2.39589
2.37722
2.35794
2.33812
2.68477
2.68377
2.68267
2.68152
2.68033
2.67909
2.67778
2.67642
2.67497
2.67345
2.67183
2.67011
2.66828
2.66631
2.6642
2.66192
2.65947
2.65683
2.65397
2.6509
2.64761
2.64411
2.64043
2.63658
2.63254
2.62825
2.62358
2.61841
2.61263
2.60622
2.59864
2.5901
2.58143
2.5726
2.56344
2.55383
2.54371
2.53303
2.52175
2.50979
2.49709
2.48358
2.46931
2.45436
2.43874
2.42241
2.40544
2.38791
2.36983
2.35128
2.6828
2.68183
2.68075
2.67964
2.67848
2.67727
2.676
2.67467
2.67327
2.67179
2.67022
2.66855
2.66676
2.66484
2.66279
2.66057
2.65818
2.6556
2.65282
2.64983
2.64662
2.64321
2.63962
2.63586
2.63192
2.62774
2.62319
2.61816
2.61255
2.60632
2.59898
2.59073
2.58236
2.57385
2.56505
2.55584
2.54613
2.53591
2.52513
2.51375
2.50168
2.48887
2.47535
2.46122
2.44649
2.43114
2.4152
2.39876
2.38184
2.36451
2.68082
2.67989
2.67884
2.67776
2.67663
2.67546
2.67423
2.67294
2.67158
2.67014
2.66862
2.667
2.66526
2.6634
2.6614
2.65925
2.65693
2.65442
2.65172
2.64881
2.64569
2.64237
2.63888
2.63522
2.63139
2.62731
2.6229
2.61801
2.61258
2.60656
2.59947
2.59151
2.58346
2.57528
2.56684
2.55803
2.54877
2.53901
2.52875
2.51794
2.50652
2.49441
2.48165
2.46832
2.45447
2.44007
2.42515
2.40976
2.39395
2.37778
2.67884
2.67794
2.67693
2.67588
2.67479
2.67365
2.67246
2.67121
2.6699
2.66851
2.66704
2.66547
2.66379
2.66199
2.66005
2.65796
2.65571
2.65327
2.65065
2.64783
2.64481
2.64159
2.6382
2.63465
2.63093
2.62698
2.62269
2.61797
2.61272
2.60691
2.60009
2.59243
2.5847
2.57687
2.56881
2.56041
2.55159
2.54231
2.53256
2.52233
2.51156
2.50017
2.48817
2.47565
2.46266
2.44919
2.43525
2.4209
2.40616
2.3911
2.67686
2.676
2.67501
2.67399
2.67294
2.67184
2.67069
2.66949
2.66822
2.66688
2.66547
2.66395
2.66233
2.66059
2.65872
2.6567
2.65451
2.65216
2.64962
2.6469
2.64397
2.64087
2.63759
2.63415
2.63054
2.62672
2.62257
2.61801
2.61296
2.60738
2.60083
2.59349
2.58609
2.5786
2.57092
2.56295
2.55459
2.5458
2.53657
2.52691
2.51678
2.50611
2.49488
2.48316
2.47103
2.45846
2.44549
2.43214
2.41844
2.40445
2.67487
2.67405
2.67309
2.67211
2.67109
2.67004
2.66893
2.66777
2.66655
2.66527
2.66391
2.66245
2.66089
2.65922
2.65741
2.65546
2.65335
2.65108
2.64863
2.646
2.64318
2.64019
2.63702
2.63371
2.63022
2.62653
2.62253
2.61814
2.61329
2.60794
2.60167
2.59466
2.5876
2.58047
2.57318
2.56563
2.55774
2.54945
2.54076
2.53167
2.52217
2.51221
2.50175
2.49084
2.47956
2.46789
2.45585
2.44349
2.43079
2.41783
2.67288
2.67209
2.67117
2.67023
2.66925
2.66823
2.66717
2.66606
2.66489
2.66366
2.66236
2.66096
2.65946
2.65785
2.65611
2.65423
2.6522
2.65001
2.64766
2.64513
2.64242
2.63955
2.63651
2.63332
2.62996
2.6264
2.62256
2.61834
2.6137
2.60859
2.60261
2.59594
2.58922
2.58246
2.57556
2.56844
2.56103
2.55325
2.5451
2.53658
2.52772
2.51845
2.50876
2.49867
2.48823
2.47744
2.46634
2.45493
2.44321
2.43124
2.67088
2.67013
2.66925
2.66834
2.6674
2.66642
2.66541
2.66435
2.66323
2.66206
2.66081
2.65948
2.65805
2.6565
2.65483
2.65303
2.65107
2.64897
2.64671
2.64429
2.6417
2.63894
2.63603
2.63297
2.62975
2.62633
2.62264
2.61861
2.61418
2.60931
2.60364
2.59731
2.59095
2.58455
2.57805
2.57137
2.56443
2.55718
2.54957
2.54164
2.5334
2.52482
2.51589
2.50661
2.49701
2.48712
2.47692
2.46645
2.4557
2.44469
2.66888
2.66817
2.66732
2.66645
2.66555
2.66462
2.66365
2.66263
2.66157
2.66045
2.65927
2.658
2.65663
2.65516
2.65356
2.65183
2.64996
2.64794
2.64578
2.64346
2.64099
2.63836
2.63559
2.63266
2.62958
2.62631
2.62278
2.61894
2.61472
2.61011
2.60474
2.59876
2.59277
2.58675
2.58064
2.57439
2.56794
2.56121
2.55417
2.54682
2.5392
2.53131
2.52313
2.51465
2.5059
2.49689
2.48761
2.47807
2.46826
2.4582
2.66687
2.6662
2.66538
2.66455
2.6637
2.66281
2.66188
2.66092
2.65991
2.65885
2.65772
2.65652
2.65522
2.65382
2.65229
2.65064
2.64885
2.64693
2.64486
2.64265
2.6403
2.63781
2.63517
2.63239
2.62946
2.62633
2.62297
2.61932
2.61532
2.61096
2.6059
2.60029
2.59466
2.58903
2.58332
2.5775
2.57152
2.56532
2.55885
2.5521
2.54512
2.53791
2.53046
2.52278
2.51488
2.50674
2.49838
2.48977
2.4809
2.47178
2.66486
2.66422
2.66345
2.66265
2.66184
2.66099
2.66012
2.6592
2.65825
2.65725
2.65618
2.65504
2.65381
2.65248
2.65103
2.64946
2.64775
2.64592
2.64395
2.64185
2.63963
2.63727
2.63478
2.63215
2.62936
2.62639
2.6232
2.61974
2.61597
2.61187
2.60712
2.60187
2.59662
2.59137
2.58607
2.58069
2.57518
2.5695
2.5636
2.55746
2.55112
2.54459
2.53788
2.53099
2.52392
2.51667
2.50922
2.50155
2.49363
2.48544
2.66285
2.66224
2.6615
2.66075
2.65998
2.65918
2.65835
2.65748
2.65658
2.65564
2.65463
2.65356
2.6524
2.65114
2.64977
2.64827
2.64666
2.64491
2.64305
2.64106
2.63896
2.63674
2.6344
2.63192
2.62929
2.62648
2.62347
2.6202
2.61665
2.61281
2.60838
2.60349
2.59862
2.59377
2.58889
2.58394
2.5789
2.57374
2.5684
2.56288
2.55718
2.55134
2.54536
2.53925
2.53303
2.52666
2.52012
2.5134
2.50643
2.49921
2.66083
2.66026
2.65956
2.65885
2.65811
2.65736
2.65657
2.65576
2.65491
2.65402
2.65308
2.65207
2.65098
2.6498
2.6485
2.64709
2.64556
2.64391
2.64214
2.64028
2.6383
2.63622
2.63403
2.63171
2.62924
2.6266
2.62376
2.62069
2.61737
2.61379
2.60967
2.60515
2.60067
2.59622
2.59175
2.58724
2.58267
2.57802
2.57324
2.56832
2.56328
2.55812
2.55288
2.54757
2.54217
2.53669
2.53108
2.52531
2.51932
2.51309
2.65882
2.65827
2.65761
2.65694
2.65625
2.65554
2.6548
2.65403
2.65324
2.65241
2.65152
2.65058
2.64956
2.64845
2.64723
2.6459
2.64446
2.6429
2.64124
2.63949
2.63764
2.63571
2.63367
2.6315
2.6292
2.62673
2.62407
2.6212
2.61811
2.61479
2.61099
2.60684
2.60274
2.59868
2.59464
2.59057
2.58647
2.58232
2.5781
2.57379
2.56939
2.56493
2.56043
2.5559
2.55135
2.54675
2.54207
2.53729
2.5323
2.52709
2.6568
2.65628
2.65566
2.65503
2.65438
2.65371
2.65302
2.65231
2.65156
2.65078
2.64996
2.64908
2.64813
2.64709
2.64595
2.64471
2.64335
2.64189
2.64034
2.6387
2.63698
2.63519
2.6333
2.6313
2.62917
2.62687
2.6244
2.62173
2.61886
2.6158
2.61232
2.60853
2.60482
2.60117
2.59754
2.59392
2.59029
2.58665
2.58297
2.57926
2.5755
2.57174
2.56798
2.56424
2.56053
2.55683
2.5531
2.54931
2.54536
2.54122
2.65478
2.65429
2.65372
2.65312
2.65252
2.65189
2.65125
2.65058
2.64988
2.64916
2.64839
2.64757
2.64669
2.64572
2.64467
2.64351
2.64224
2.64088
2.63943
2.63791
2.63632
2.63467
2.63293
2.6311
2.62914
2.62702
2.62474
2.62227
2.61963
2.61683
2.61366
2.61023
2.6069
2.60365
2.60045
2.59727
2.59411
2.59097
2.58784
2.58471
2.5816
2.57852
2.5755
2.57256
2.56969
2.56689
2.56413
2.56136
2.55849
2.55548
2.65277
2.65231
2.65177
2.65122
2.65066
2.65007
2.64947
2.64885
2.6482
2.64753
2.64682
2.64606
2.64524
2.64435
2.64337
2.6423
2.64113
2.63986
2.63852
2.63711
2.63565
2.63414
2.63256
2.63089
2.6291
2.62717
2.62508
2.62282
2.62041
2.61785
2.61499
2.61193
2.60898
2.60613
2.60335
2.60061
2.59792
2.59527
2.59268
2.59013
2.58766
2.58527
2.58298
2.58083
2.57881
2.57692
2.57514
2.57342
2.57167
2.56985
2.65076
2.65032
2.64983
2.64932
2.6488
2.64826
2.6477
2.64712
2.64652
2.64589
2.64524
2.64454
2.64378
2.64296
2.64206
2.64108
2.64
2.63884
2.63761
2.63632
2.63498
2.6336
2.63218
2.63067
2.62906
2.62731
2.62542
2.62337
2.62118
2.61887
2.61631
2.61361
2.61103
2.60858
2.60622
2.60392
2.60169
2.59954
2.59748
2.59551
2.59366
2.59195
2.5904
2.58903
2.58786
2.58689
2.5861
2.58545
2.58487
2.5843
2.64875
2.64834
2.64789
2.64742
2.64694
2.64645
2.64593
2.64539
2.64484
2.64426
2.64365
2.64301
2.64232
2.64157
2.64075
2.63985
2.63887
2.63782
2.63669
2.63552
2.63431
2.63306
2.63178
2.63044
2.629
2.62745
2.62575
2.62391
2.62194
2.61988
2.61761
2.61526
2.61306
2.61101
2.60906
2.6072
2.60543
2.60377
2.60223
2.60083
2.59959
2.59854
2.59772
2.59713
2.59681
2.59677
2.59698
2.59743
2.59805
2.5988
2.64676
2.64637
2.64596
2.64554
2.6451
2.64464
2.64417
2.64367
2.64316
2.64263
2.64207
2.64148
2.64085
2.64017
2.63943
2.63862
2.63773
2.63678
2.63577
2.63472
2.63363
2.63252
2.63138
2.63019
2.62893
2.62756
2.62607
2.62444
2.6227
2.62088
2.61889
2.61689
2.61505
2.61339
2.61185
2.61042
2.6091
2.60792
2.6069
2.60606
2.60542
2.60503
2.60492
2.60511
2.60564
2.60651
2.60773
2.6093
2.61117
2.61329
2.64477
2.6444
2.64404
2.64366
2.64326
2.64285
2.64242
2.64196
2.64149
2.641
2.64049
2.63995
2.63938
2.63876
2.6381
2.63738
2.63659
2.63575
2.63485
2.63392
2.63295
2.63197
2.63097
2.62993
2.62883
2.62765
2.62636
2.62495
2.62344
2.62185
2.62015
2.61847
2.617
2.61571
2.61457
2.61357
2.6127
2.612
2.61149
2.61119
2.61115
2.6114
2.61198
2.61293
2.61429
2.61608
2.61832
2.62102
2.62415
2.62771
2.64279
2.64245
2.64213
2.64179
2.64144
2.64107
2.64067
2.64026
2.63983
2.63938
2.63892
2.63843
2.63791
2.63736
2.63677
2.63613
2.63545
2.63471
2.63394
2.63312
2.63228
2.63142
2.63055
2.62965
2.62872
2.62772
2.62663
2.62544
2.62415
2.6228
2.62137
2.62002
2.61889
2.61797
2.61723
2.61664
2.61622
2.61598
2.61596
2.6162
2.61674
2.61761
2.61887
2.62057
2.62275
2.62545
2.6287
2.63253
2.63694
2.64197
2.64082
2.64051
2.64023
2.63994
2.63963
2.6393
2.63895
2.63857
2.63818
2.63778
2.63735
2.63691
2.63644
2.63595
2.63544
2.63489
2.6343
2.63368
2.63302
2.63232
2.63161
2.63087
2.63013
2.62937
2.62858
2.62776
2.62687
2.6259
2.62483
2.62372
2.62256
2.62152
2.62072
2.62017
2.6198
2.61962
2.61962
2.61984
2.62031
2.62108
2.62217
2.62365
2.62557
2.62799
2.63097
2.63456
2.6388
2.64376
2.64946
2.65596
2.63887
2.63858
2.63835
2.6381
2.63783
2.63754
2.63723
2.6369
2.63655
2.63618
2.6358
2.6354
2.63499
2.63456
2.63411
2.63365
2.63316
2.63264
2.6321
2.63153
2.63094
2.63033
2.6297
2.62907
2.62843
2.62778
2.62708
2.62631
2.62548
2.6246
2.62371
2.62297
2.6225
2.62228
2.62228
2.62249
2.62291
2.62358
2.62452
2.62579
2.62743
2.62949
2.63205
2.63517
2.63891
2.64336
2.64858
2.65464
2.66161
2.66959
2.63693
2.63666
2.63648
2.63627
2.63605
2.6358
2.63553
2.63524
2.63493
2.6346
2.63426
2.63391
2.63354
2.63317
2.63279
2.63241
2.63202
2.63161
2.63118
2.63074
2.63027
2.62978
2.62928
2.62877
2.62826
2.62776
2.62725
2.62669
2.62608
2.62544
2.62481
2.62437
2.62421
2.62432
2.62467
2.62525
2.62607
2.62716
2.62856
2.63032
2.63248
2.63511
2.63827
2.64206
2.64655
2.65182
2.65797
2.6651
2.6733
2.68272
2.635
2.63476
2.63462
2.63446
2.63428
2.63407
2.63385
2.6336
2.63333
2.63304
2.63274
2.63243
2.63212
2.6318
2.63149
2.63118
2.63088
2.63058
2.63027
2.62994
2.6296
2.62923
2.62885
2.62846
2.62808
2.62773
2.62738
2.62702
2.62662
2.62621
2.62585
2.62571
2.62586
2.62628
2.62696
2.62789
2.62909
2.63059
2.63243
2.63465
2.63731
2.64047
2.64422
2.64864
2.65382
2.65988
2.66692
2.67506
2.68444
2.69524
2.63307
2.63286
2.63277
2.63266
2.63252
2.63236
2.63217
2.63197
2.63174
2.6315
2.63124
2.63098
2.63071
2.63045
2.6302
2.62997
2.62976
2.62955
2.62936
2.62915
2.62893
2.62868
2.62842
2.62815
2.62789
2.62767
2.62748
2.6273
2.62711
2.62693
2.62683
2.62698
2.62742
2.62815
2.62915
2.63042
2.63198
2.63386
2.63611
2.63877
2.6419
2.64556
2.64985
2.65486
2.6607
2.66749
2.67536
2.68445
2.69492
2.70702
2.63116
2.63098
2.63094
2.63087
2.63077
2.63065
2.63052
2.63036
2.63017
2.62997
2.62976
2.62954
2.62933
2.62912
2.62894
2.62877
2.62864
2.62853
2.62844
2.62835
2.62825
2.62813
2.62798
2.62782
2.62768
2.62759
2.62754
2.62753
2.62754
2.62758
2.62773
2.62817
2.6289
2.62992
2.63123
2.63282
2.63472
2.63696
2.63959
2.64266
2.64622
2.65036
2.65515
2.66071
2.66715
2.67462
2.68323
2.69319
2.70467
2.71795
2.62926
2.62911
2.62911
2.62909
2.62903
2.62896
2.62887
2.62875
2.62862
2.62846
2.6283
2.62813
2.62797
2.62782
2.62769
2.6276
2.62754
2.62752
2.62753
2.62754
2.62756
2.62755
2.62753
2.62749
2.62747
2.62749
2.62758
2.62772
2.62791
2.62815
2.62856
2.62926
2.63028
2.63159
2.63319
2.63509
2.6373
2.63988
2.64287
2.64632
2.65028
2.65485
2.6601
2.66616
2.67315
2.68121
2.6905
2.70122
2.71359
2.72791
2.62736
2.62725
2.62729
2.62731
2.6273
2.62728
2.62723
2.62716
2.62707
2.62697
2.62686
2.62674
2.62663
2.62653
2.62646
2.62643
2.62645
2.62651
2.62661
2.62673
2.62685
2.62696
2.62705
2.62713
2.62723
2.62737
2.62759
2.62787
2.62822
2.62866
2.62929
2.63026
2.63155
2.63314
2.63502
2.63721
2.63973
2.64263
2.64594
2.64974
2.65407
2.65902
2.66468
2.67119
2.67866
2.68724
2.69712
2.7085
2.72162
2.73682
2.62547
2.6254
2.62548
2.62554
2.62558
2.6256
2.6256
2.62558
2.62554
2.62549
2.62542
2.62536
2.6253
2.62526
2.62525
2.62529
2.62537
2.6255
2.62568
2.62589
2.62612
2.62634
2.62654
2.62674
2.62696
2.62722
2.62756
2.62798
2.62848
2.62909
2.62994
2.63116
2.6327
2.63456
2.63671
2.63918
2.64199
2.64518
2.6488
2.65291
2.65757
2.66287
2.66889
2.67578
2.68366
2.6927
2.70306
2.71498
2.72871
2.7446
2.62358
2.62355
2.62367
2.62377
2.62385
2.62392
2.62396
2.62399
2.62401
2.62401
2.624
2.62399
2.62399
2.62401
2.62406
2.62415
2.62429
2.62449
2.62474
2.62504
2.62535
2.62568
2.626
2.62632
2.62666
2.62704
2.6275
2.62804
2.62869
2.62947
2.63051
2.63196
2.63374
2.63584
2.63825
2.64099
2.64406
2.64752
2.65143
2.65582
2.66078
2.66638
2.67272
2.67994
2.68816
2.69755
2.7083
2.72063
2.73482
2.7512
2.62169
2.62171
2.62187
2.62201
2.62213
2.62224
2.62233
2.62241
2.62247
2.62253
2.62257
2.62262
2.62268
2.62276
2.62286
2.62302
2.62322
2.62348
2.62379
2.62416
2.62456
2.62498
2.62541
2.62585
2.62631
2.62681
2.62739
2.62806
2.62884
2.62978
2.631
2.63266
2.63465
2.63698
2.63963
2.64261
2.64594
2.64966
2.65381
2.65847
2.66369
2.66955
2.67616
2.68364
2.69213
2.7018
2.71282
2.72544
2.73991
2.75658
2.6198
2.61986
2.62006
2.62023
2.62039
2.62055
2.62069
2.62081
2.62093
2.62104
2.62114
2.62125
2.62136
2.6215
2.62167
2.62188
2.62213
2.62245
2.62282
2.62325
2.62373
2.62423
2.62476
2.62531
2.6259
2.62653
2.62723
2.62803
2.62894
2.63002
2.63142
2.63327
2.63546
2.63799
2.64086
2.64406
2.64761
2.65156
2.65595
2.66084
2.66629
2.67238
2.6792
2.68689
2.69558
2.70544
2.71663
2.7294
2.74399
2.76074
2.61791
2.61801
2.61824
2.61845
2.61865
2.61885
2.61903
2.61921
2.61937
2.61954
2.6197
2.61986
2.62004
2.62023
2.62046
2.62072
2.62103
2.6214
2.62183
2.62231
2.62285
2.62343
2.62406
2.62472
2.62542
2.62618
2.62701
2.62794
2.62898
2.63021
2.63177
2.63379
2.63615
2.63886
2.64192
2.64532
2.64908
2.65324
2.65784
2.66293
2.66857
2.67485
2.68185
2.68969
2.69852
2.70847
2.71973
2.73252
2.74708
2.7637
2.61602
2.61616
2.61642
2.61666
2.6169
2.61713
2.61736
2.61758
2.6178
2.61801
2.61823
2.61845
2.61868
2.61894
2.61922
2.61954
2.6199
2.62032
2.6208
2.62133
2.62193
2.62258
2.62329
2.62405
2.62486
2.62574
2.62671
2.62777
2.62895
2.63032
2.63205
2.63423
2.63674
2.63961
2.64283
2.6464
2.65034
2.65468
2.65946
2.66473
2.67054
2.67697
2.6841
2.69204
2.70093
2.71091
2.72215
2.73484
2.7492
2.7655
2.61412
2.6143
2.61458
2.61486
2.61513
2.6154
2.61566
2.61593
2.61619
2.61646
2.61673
2.617
2.6173
2.61761
2.61794
2.61832
2.61873
2.6192
2.61972
2.6203
2.62095
2.62167
2.62245
2.6233
2.62423
2.62523
2.62631
2.62751
2.62884
2.63036
2.63224
2.63459
2.63724
2.64024
2.6436
2.64731
2.6514
2.65589
2.66082
2.66624
2.67219
2.67873
2.68595
2.69395
2.70285
2.71278
2.7239
2.73638
2.75041
2.76621
2.61222
2.61243
2.61274
2.61304
2.61334
2.61364
2.61394
2.61425
2.61455
2.61487
2.61519
2.61552
2.61586
2.61623
2.61662
2.61705
2.61751
2.61803
2.61859
2.61922
2.61992
2.62069
2.62155
2.62248
2.6235
2.62462
2.62583
2.62716
2.62864
2.63031
2.63236
2.63485
2.63763
2.64075
2.64422
2.64806
2.65227
2.65689
2.66194
2.66748
2.67353
2.68016
2.68743
2.69544
2.7043
2.71412
2.72504
2.73721
2.75078
2.76593
2.61031
2.61055
2.61088
2.61121
2.61153
2.61186
2.61219
2.61253
2.61288
2.61323
2.6136
2.61398
2.61437
2.61479
2.61524
2.61571
2.61623
2.61679
2.6174
2.61808
2.61883
2.61965
2.62057
2.62158
2.6227
2.62391
2.62524
2.62671
2.62834
2.63017
2.63238
2.63502
2.63792
2.64114
2.64471
2.64864
2.65295
2.65767
2.66283
2.66845
2.67458
2.68126
2.68855
2.69653
2.7053
2.71495
2.72561
2.73739
2.7504
2.76477
2.60839
2.60866
2.60901
2.60935
2.6097
2.61005
2.61041
2.61078
2.61116
2.61155
2.61196
2.61238
2.61282
2.61329
2.61378
2.61431
2.61487
2.61548
2.61615
2.61687
2.61766
2.61855
2.61952
2.62061
2.6218
2.62311
2.62455
2.62615
2.62793
2.62991
2.63229
2.63509
2.6381
2.64142
2.64507
2.64907
2.65346
2.65826
2.66348
2.66917
2.67535
2.68205
2.68933
2.69725
2.70589
2.71533
2.72567
2.73699
2.74937
2.76287
2.60646
2.60676
2.60712
2.60748
2.60784
2.60822
2.6086
2.60899
2.6094
2.60982
2.61026
2.61072
2.6112
2.61171
2.61225
2.61282
2.61344
2.6141
2.61481
2.61558
2.61643
2.61737
2.6184
2.61955
2.62082
2.62221
2.62376
2.62547
2.6274
2.62953
2.63208
2.63503
2.63816
2.64156
2.64528
2.64935
2.6538
2.65865
2.66393
2.66966
2.67586
2.68256
2.68981
2.69764
2.70612
2.71531
2.72529
2.73612
2.74781
2.76036
2.60453
2.60485
2.60521
2.60558
2.60596
2.60635
2.60675
2.60716
2.60759
2.60804
2.6085
2.60899
2.60951
2.61005
2.61063
2.61125
2.61191
2.61262
2.61339
2.61422
2.61512
2.61611
2.61721
2.61842
2.61975
2.62123
2.62286
2.62469
2.62675
2.62903
2.63174
2.63484
2.63808
2.64156
2.64534
2.64946
2.65396
2.65886
2.66417
2.66992
2.67613
2.68282
2.69
2.69772
2.70602
2.71495
2.72455
2.73485
2.74582
2.7574
2.6026
2.60292
2.60329
2.60367
2.60406
2.60445
2.60487
2.60529
2.60574
2.6062
2.60669
2.6072
2.60774
2.60832
2.60893
2.60959
2.6103
2.61106
2.61188
2.61276
2.61373
2.61478
2.61594
2.61721
2.6186
2.62015
2.62187
2.6238
2.62599
2.62841
2.63127
2.63451
2.63785
2.64141
2.64524
2.64941
2.65395
2.65888
2.66421
2.66998
2.67618
2.68283
2.68994
2.69754
2.70565
2.7143
2.72351
2.73327
2.74352
2.75414
2.60065
2.60098
2.60135
2.60174
2.60213
2.60253
2.60295
2.60338
2.60384
2.60431
2.60481
2.60534
2.60591
2.60651
2.60715
2.60784
2.60859
2.6094
2.61027
2.61122
2.61225
2.61337
2.61459
2.61592
2.61738
2.61898
2.62078
2.62281
2.62511
2.62766
2.63067
2.63404
2.63748
2.6411
2.64498
2.64919
2.65375
2.6587
2.66406
2.66982
2.67601
2.68262
2.68966
2.69713
2.70505
2.71342
2.72225
2.73148
2.74103
2.75072
2.59871
2.59903
2.5994
2.59978
2.60018
2.60058
2.601
2.60144
2.60189
2.60238
2.60288
2.60342
2.604
2.60462
2.60528
2.606
2.60679
2.60765
2.60858
2.60959
2.61068
2.61187
2.61316
2.61455
2.61607
2.61774
2.6196
2.62172
2.62412
2.62679
2.62992
2.63342
2.63694
2.64062
2.64455
2.64878
2.65337
2.65834
2.6637
2.66946
2.67563
2.6822
2.68917
2.69652
2.70425
2.71236
2.72081
2.72955
2.73844
2.74726
2.59676
2.59707
2.59744
2.59782
2.5982
2.5986
2.59902
2.59945
2.59991
2.60039
2.6009
2.60144
2.60202
2.60265
2.60334
2.60408
2.6049
2.6058
2.60679
2.60786
2.60903
2.61029
2.61164
2.6131
2.61467
2.6164
2.61834
2.62053
2.62303
2.6258
2.62905
2.63265
2.63625
2.63998
2.64394
2.6482
2.6528
2.65778
2.66314
2.6689
2.67505
2.68158
2.68848
2.69572
2.70328
2.71115
2.71927
2.72756
2.73584
2.74388
2.5948
2.5951
2.59547
2.59584
2.59621
2.59661
2.59701
2.59744
2.59789
2.59836
2.59887
2.59941
2.59999
2.60062
2.60132
2.60209
2.60293
2.60387
2.60491
2.60605
2.60728
2.60861
2.61003
2.61156
2.6132
2.61499
2.61699
2.61925
2.62183
2.62469
2.62804
2.63173
2.6354
2.63917
2.64315
2.64742
2.65203
2.65702
2.66238
2.66813
2.67426
2.68076
2.6876
2.69475
2.70217
2.70983
2.71766
2.72555
2.73331
2.74066
2.59284
2.59313
2.59348
2.59384
2.59421
2.59459
2.59498
2.5954
2.59583
2.5963
2.59679
2.59732
2.5979
2.59853
2.59923
2.60002
2.60089
2.60186
2.60295
2.60415
2.60545
2.60685
2.60834
2.60993
2.61163
2.61348
2.61554
2.61788
2.62054
2.62348
2.62691
2.63068
2.6344
2.63819
2.64218
2.64646
2.65107
2.65606
2.66142
2.66716
2.67328
2.67975
2.68655
2.69362
2.70093
2.70842
2.71601
2.72357
2.7309
2.73769
2.59088
2.59115
2.59149
2.59184
2.59219
2.59255
2.59293
2.59333
2.59375
2.5942
2.59467
2.59519
2.59576
2.59639
2.59709
2.59788
2.59878
2.59978
2.60091
2.60216
2.60353
2.605
2.60656
2.60822
2.60998
2.61189
2.61402
2.61642
2.61915
2.62215
2.62566
2.62949
2.63324
2.63706
2.64104
2.64531
2.64992
2.6549
2.66025
2.66599
2.67209
2.67855
2.68533
2.69236
2.69959
2.70695
2.71435
2.72166
2.72865
2.735
2.58892
2.58917
2.58949
2.58982
2.59016
2.59051
2.59087
2.59124
2.59164
2.59207
2.59253
2.59303
2.59358
2.5942
2.5949
2.59569
2.5966
2.59764
2.5988
2.60011
2.60153
2.60307
2.60469
2.60641
2.60823
2.61021
2.61239
2.61486
2.61766
2.62072
2.62429
2.62817
2.63195
2.63576
2.63974
2.64399
2.64858
2.65354
2.65888
2.66461
2.67071
2.67717
2.68394
2.69095
2.69814
2.70542
2.7127
2.71983
2.72658
2.73262
2.58696
2.58718
2.58749
2.5878
2.58812
2.58844
2.58878
2.58914
2.58951
2.58992
2.59035
2.59083
2.59137
2.59197
2.59266
2.59346
2.59437
2.59543
2.59663
2.59798
2.59945
2.60105
2.60274
2.60451
2.6064
2.60843
2.61068
2.61321
2.61606
2.61919
2.62281
2.62672
2.63051
2.63432
2.63827
2.64249
2.64705
2.65199
2.65732
2.66304
2.66914
2.67561
2.68239
2.68941
2.6966
2.70385
2.71107
2.7181
2.72471
2.73056
2.585
2.5852
2.58548
2.58578
2.58607
2.58637
2.58669
2.58702
2.58737
2.58775
2.58816
2.58861
2.58913
2.58971
2.59039
2.59118
2.5921
2.59317
2.5944
2.59578
2.59731
2.59895
2.6007
2.60253
2.60447
2.60656
2.60887
2.61146
2.61437
2.61754
2.62121
2.62514
2.62894
2.63273
2.63665
2.64083
2.64535
2.65026
2.65557
2.66128
2.66739
2.67387
2.68068
2.68774
2.69496
2.70224
2.70946
2.71646
2.72303
2.72882
2.58304
2.58321
2.58348
2.58374
2.58401
2.58429
2.58458
2.58488
2.58521
2.58556
2.58594
2.58637
2.58686
2.58742
2.58809
2.58887
2.58979
2.59087
2.59212
2.59353
2.59509
2.59678
2.59857
2.60046
2.60245
2.60459
2.60696
2.60961
2.61257
2.61578
2.61948
2.62344
2.62723
2.63099
2.63487
2.639
2.64348
2.64836
2.65364
2.65934
2.66545
2.67197
2.67883
2.68595
2.69324
2.70059
2.70786
2.71491
2.72152
2.72736
2.58109
2.58122
2.58146
2.58171
2.58195
2.5822
2.58246
2.58274
2.58303
2.58335
2.5837
2.58411
2.58457
2.58511