/*--------------------------------*- C++ -*----------------------------------*\
  =========                 |
  \\      /  F ield         | OpenFOAM: The Open Source CFD Toolbox
   \\    /   O peration     | Website:  https://openfoam.org
    \\  /    A nd           | Version:  9
     \\/     M anipulation  |
\*---------------------------------------------------------------------------*/
FoamFile
{
    format      ascii;
    class       volScalarField;
    location    "0.15";
    object      p_rgh;
}
// * * * * * * * * * * * * * * * * * * * * * * * * * * * * * * * * * * * * * //

dimensions      [1 -1 -2 0 0 0 0];

internalField   nonuniform List<scalar> 
5000
(
-0.000812838
-0.0019207
-0.00311223
-0.00434758
-0.00563329
-0.00697539
-0.00837688
-0.00984133
-0.0113731
-0.0129775
-0.0146609
-0.0164304
-0.0182948
-0.0202638
-0.0223482
-0.0245602
-0.0269126
-0.0294191
-0.0320931
-0.0349468
-0.0379895
-0.0412279
-0.0446709
-0.0483415
-0.052294
-0.0566252
-0.0614672
-0.0669553
-0.0731743
-0.0801353
-0.0884373
-0.0979017
-0.107671
-0.117857
-0.128701
-0.140444
-0.153269
-0.167284
-0.182581
-0.199325
-0.217798
-0.238367
-0.261406
-0.287239
-0.316182
-0.348669
-0.385339
-0.427027
-0.474767
-0.529781
-0.000782994
-0.0019164
-0.00313589
-0.00440037
-0.00571655
-0.0070906
-0.0085255
-0.010025
-0.0115937
-0.0132372
-0.014962
-0.0167759
-0.0186879
-0.0207083
-0.0228487
-0.0251217
-0.0275408
-0.03012
-0.0328732
-0.0358124
-0.0389465
-0.0422815
-0.0458254
-0.0496009
-0.0536634
-0.0581125
-0.0630842
-0.0687173
-0.0750987
-0.0822409
-0.0907595
-0.100471
-0.110495
-0.120939
-0.132049
-0.144067
-0.157186
-0.171525
-0.187181
-0.204311
-0.223187
-0.244165
-0.267614
-0.293851
-0.323172
-0.35598
-0.392883
-0.434669
-0.482349
-0.537089
-0.000752611
-0.00190551
-0.00314615
-0.00443262
-0.00577181
-0.00716998
-0.00863019
-0.0101565
-0.0117537
-0.0134276
-0.0151854
-0.0170354
-0.0189875
-0.0210528
-0.023244
-0.0255748
-0.0280599
-0.0307145
-0.0335528
-0.0365868
-0.0398242
-0.0432682
-0.0469234
-0.0508088
-0.0549767
-0.059526
-0.0645942
-0.0703237
-0.0768074
-0.0840676
-0.0927449
-0.102672
-0.112949
-0.123667
-0.135047
-0.147313
-0.160658
-0.175221
-0.191127
-0.20855
-0.227752
-0.249056
-0.272793
-0.299257
-0.328746
-0.361656
-0.398549
-0.440114
-0.487203
-0.54099
-0.000722971
-0.00189148
-0.00314896
-0.00445298
-0.00581053
-0.00722806
-0.0087088
-0.010257
-0.0118777
-0.0135772
-0.0153629
-0.0172441
-0.0192313
-0.0213367
-0.023574
-0.025958
-0.0285048
-0.0312304
-0.0341496
-0.0372741
-0.04061
-0.0441578
-0.0479179
-0.0519049
-0.0561675
-0.0608033
-0.0659504
-0.0717546
-0.0783149
-0.0856647
-0.0944668
-0.104574
-0.115068
-0.126023
-0.137637
-0.150115
-0.163646
-0.17838
-0.194464
-0.212088
-0.231506
-0.253015
-0.276909
-0.303457
-0.332946
-0.365748
-0.402376
-0.443438
-0.489595
-0.541877
-0.000694716
-0.00187572
-0.00314658
-0.00446463
-0.00583707
-0.00727049
-0.00876828
-0.0103348
-0.0119755
-0.013697
-0.0155073
-0.0174161
-0.0194346
-0.021576
-0.0238546
-0.0262865
-0.0288883
-0.031677
-0.0346676
-0.0378715
-0.0412934
-0.0449311
-0.0487815
-0.0528554
-0.0571991
-0.0619093
-0.0671259
-0.072998
-0.0796303
-0.0870646
-0.09598
-0.106238
-0.116901
-0.128032
-0.139813
-0.152443
-0.166109
-0.18097
-0.197181
-0.214932
-0.234469
-0.256064
-0.279983
-0.306468
-0.335783
-0.368272
-0.40439
-0.444674
-0.489646
-0.540122
-0.000668168
-0.00185869
-0.00313958
-0.0044683
-0.00585219
-0.00729801
-0.00880928
-0.0103906
-0.0120477
-0.0137876
-0.0156186
-0.017551
-0.0195968
-0.0217694
-0.0240843
-0.0265581
-0.0292083
-0.0320521
-0.035105
-0.0383778
-0.0418739
-0.0455887
-0.049516
-0.0536633
-0.0580749
-0.0628474
-0.0681224
-0.0740527
-0.0807475
-0.0882557
-0.0972677
-0.107646
-0.118438
-0.129694
-0.141589
-0.154317
-0.168068
-0.183
-0.199273
-0.217075
-0.23664
-0.258219
-0.282047
-0.308335
-0.337321
-0.369318
-0.404721
-0.443988
-0.487535
-0.535985
-0.000643568
-0.00184075
-0.00312854
-0.00446468
-0.00585669
-0.0073115
-0.00883277
-0.0104254
-0.0120952
-0.0138497
-0.0156976
-0.0176496
-0.0197181
-0.0219173
-0.0242631
-0.0267727
-0.0294642
-0.0323553
-0.0354615
-0.0387933
-0.0423526
-0.0461328
-0.0501246
-0.0543328
-0.0587997
-0.0636219
-0.0689429
-0.0749183
-0.0816615
-0.0892263
-0.0983106
-0.108777
-0.119657
-0.130996
-0.142963
-0.155748
-0.169539
-0.184491
-0.200762
-0.218536
-0.238039
-0.259506
-0.283137
-0.30911
-0.337637
-0.368995
-0.40352
-0.441581
-0.483506
-0.529768
-0.000621134
-0.0018223
-0.00311406
-0.00445461
-0.00585162
-0.00731217
-0.00884011
-0.0104405
-0.0121195
-0.0138848
-0.0157456
-0.0177129
-0.0197995
-0.0220202
-0.0243911
-0.0269301
-0.0296555
-0.0325856
-0.0357358
-0.0391161
-0.0427276
-0.0465614
-0.0506057
-0.0548625
-0.0593727
-0.0642331
-0.0695883
-0.0755963
-0.0823735
-0.0899776
-0.09911
-0.109631
-0.120561
-0.131941
-0.143937
-0.156738
-0.170525
-0.185448
-0.201657
-0.219334
-0.238698
-0.259963
-0.283299
-0.308853
-0.336806
-0.367407
-0.400925
-0.437647
-0.477811
-0.521781
-0.000600979
-0.00180354
-0.00309646
-0.00443854
-0.00583756
-0.00730073
-0.00883205
-0.0104368
-0.0121214
-0.0138938
-0.0157634
-0.0177416
-0.0198416
-0.0220784
-0.0244685
-0.02703
-0.0297818
-0.0327421
-0.0359267
-0.0393453
-0.0429977
-0.0468735
-0.0509583
-0.055252
-0.059794
-0.0646811
-0.0700589
-0.0760874
-0.082885
-0.0905115
-0.0996686
-0.110212
-0.121155
-0.132536
-0.144521
-0.157295
-0.171033
-0.185877
-0.201969
-0.219487
-0.238642
-0.259628
-0.282583
-0.307624
-0.33491
-0.364652
-0.397067
-0.43236
-0.47069
-0.512324
-0.000583172
-0.00178463
-0.00307609
-0.00441693
-0.00581504
-0.00727777
-0.00880925
-0.0104149
-0.0121015
-0.0138771
-0.0157514
-0.0177361
-0.0198446
-0.0220919
-0.0244951
-0.0270723
-0.0298427
-0.0328248
-0.0360344
-0.0394809
-0.0431633
-0.0470695
-0.0511833
-0.0555024
-0.060065
-0.0649675
-0.0703563
-0.0763927
-0.0831961
-0.0908278
-0.0999861
-0.110522
-0.121444
-0.132789
-0.144724
-0.157432
-0.171078
-0.185795
-0.201717
-0.219019
-0.237902
-0.258539
-0.281038
-0.30549
-0.332029
-0.360836
-0.392074
-0.425881
-0.46235
-0.501662
-0.000567713
-0.0017656
-0.00305311
-0.00439007
-0.00578447
-0.00724381
-0.00877233
-0.0103756
-0.0120606
-0.0138355
-0.0157104
-0.017697
-0.0198088
-0.0220612
-0.0244712
-0.0270573
-0.0298385
-0.0328338
-0.036059
-0.0395232
-0.0432249
-0.0471505
-0.051282
-0.0556154
-0.0601876
-0.0650944
-0.0704824
-0.0765139
-0.0833084
-0.0909274
-0.100064
-0.110562
-0.12143
-0.132706
-0.144557
-0.15716
-0.170674
-0.185219
-0.200924
-0.217958
-0.236513
-0.256738
-0.278716
-0.302515
-0.328247
-0.356059
-0.386072
-0.418368
-0.452984
-0.490036
-0.000554557
-0.0017464
-0.00302752
-0.00435806
-0.00574602
-0.00719905
-0.00872151
-0.0103191
-0.0119989
-0.0137694
-0.0156406
-0.0176245
-0.0197348
-0.0219867
-0.0243974
-0.0269853
-0.0297698
-0.0327698
-0.0360013
-0.0394734
-0.0431837
-0.0471179
-0.0512563
-0.0555931
-0.060164
-0.0650642
-0.07044
-0.0764536
-0.0832245
-0.0908132
-0.0999045
-0.110337
-0.121121
-0.132296
-0.144028
-0.156492
-0.169836
-0.184168
-0.199612
-0.216333
-0.23451
-0.254268
-0.275671
-0.298766
-0.323644
-0.350422
-0.379183
-0.409964
-0.442764
-0.477645
-0.00054361
-0.00172698
-0.00299945
-0.00432107
-0.00569999
-0.00714389
-0.00865721
-0.0102458
-0.0119169
-0.0136791
-0.0155425
-0.0175192
-0.0196228
-0.0218687
-0.024274
-0.026857
-0.0296373
-0.0326338
-0.0358625
-0.0393328
-0.0430414
-0.0469736
-0.0511081
-0.0554379
-0.0599971
-0.0648799
-0.070232
-0.0762152
-0.0829479
-0.0904892
-0.0995137
-0.109853
-0.120525
-0.131568
-0.143151
-0.155442
-0.168579
-0.182661
-0.197805
-0.214172
-0.231926
-0.251172
-0.271954
-0.294305
-0.318293
-0.34401
-0.371509
-0.400788
-0.431823
-0.464635
-0.00053461
-0.00170699
-0.00296882
-0.00427904
-0.00564629
-0.00707833
-0.00857955
-0.010156
-0.0118149
-0.0135649
-0.0154164
-0.0173814
-0.0194735
-0.021708
-0.0241017
-0.0266733
-0.029442
-0.032427
-0.0356443
-0.0391029
-0.0428
-0.04672
-0.0508404
-0.055153
-0.0596902
-0.0645452
-0.0698624
-0.0758026
-0.0824827
-0.0899597
-0.0988961
-0.109118
-0.119649
-0.130533
-0.141938
-0.154026
-0.166924
-0.180721
-0.195531
-0.211505
-0.228797
-0.247492
-0.267618
-0.289192
-0.312264
-0.336905
-0.363144
-0.390949
-0.420275
-0.451122
-0.000526032
-0.00168556
-0.00293444
-0.00423143
-0.00558475
-0.00700233
-0.00848868
-0.0100498
-0.0116931
-0.0134273
-0.0152628
-0.0172116
-0.0192872
-0.0215049
-0.0238814
-0.0264351
-0.0291853
-0.032151
-0.0353484
-0.0387864
-0.0424624
-0.04636
-0.0504565
-0.0547421
-0.0592474
-0.0640643
-0.0693355
-0.0752203
-0.0818335
-0.0892297
-0.0980579
-0.108138
-0.118504
-0.129203
-0.140402
-0.152258
-0.164887
-0.17837
-0.192814
-0.208364
-0.225159
-0.243271
-0.262712
-0.283486
-0.305627
-0.329188
-0.354178
-0.380544
-0.408232
-0.437215
-0.000520981
-0.00166446
-0.0028981
-0.00417936
-0.00551618
-0.00691659
-0.00838508
-0.00992772
-0.0115519
-0.0132666
-0.015082
-0.0170102
-0.0190646
-0.0212603
-0.023614
-0.0261437
-0.0288685
-0.0318076
-0.0349769
-0.0383857
-0.0420313
-0.0458972
-0.0499602
-0.0542094
-0.0586729
-0.063442
-0.0686564
-0.0744735
-0.0810059
-0.0883054
-0.0970059
-0.106921
-0.1171
-0.12759
-0.138558
-0.150154
-0.162487
-0.175629
-0.189681
-0.204778
-0.221047
-0.238548
-0.257282
-0.277241
-0.298444
-0.320928
-0.344687
-0.36966
-0.395787
-0.423013
-0.000517917
-0.00164305
-0.00285962
-0.00412289
-0.00544072
-0.00682126
-0.00826901
-0.00979005
-0.0113918
-0.0130832
-0.0148746
-0.016778
-0.0188066
-0.0209753
-0.0233007
-0.0258005
-0.0284936
-0.031399
-0.0345326
-0.0379038
-0.0415102
-0.0453353
-0.0493554
-0.0535585
-0.0579725
-0.0626834
-0.0678305
-0.0735682
-0.080006
-0.0871933
-0.0957476
-0.105478
-0.115448
-0.125707
-0.13642
-0.147733
-0.159745
-0.172522
-0.186157
-0.200776
-0.216493
-0.23336
-0.25137
-0.270502
-0.290765
-0.312185
-0.334739
-0.358363
-0.383006
-0.408583
-0.000516732
-0.00162103
-0.00281868
-0.00406193
-0.00535847
-0.00671662
-0.00814085
-0.00963726
-0.0112133
-0.0128779
-0.0146414
-0.0165157
-0.018514
-0.020651
-0.0229429
-0.0254073
-0.0280627
-0.0309276
-0.0340182
-0.0373439
-0.0409027
-0.0446784
-0.0486468
-0.0527952
-0.0571497
-0.0617943
-0.0668639
-0.0725104
-0.0788406
-0.0859009
-0.0942914
-0.103817
-0.113558
-0.123567
-0.134005
-0.145013
-0.156681
-0.169071
-0.182268
-0.196387
-0.211531
-0.227747
-0.245018
-0.263315
-0.28264
-0.30301
-0.324386
-0.346706
-0.36993
-0.393954
-0.000517543
-0.0015986
-0.00277547
-0.00399662
-0.00526962
-0.00660294
-0.00800101
-0.00946986
-0.011017
-0.0126513
-0.0143831
-0.0162243
-0.018188
-0.0202888
-0.0225424
-0.0249661
-0.027578
-0.0303964
-0.033437
-0.0367097
-0.0402129
-0.0439308
-0.0478392
-0.0519246
-0.056211
-0.0607802
-0.0657627
-0.071307
-0.0775168
-0.0844358
-0.0926459
-0.101948
-0.111443
-0.121182
-0.131326
-0.142009
-0.153315
-0.1653
-0.17804
-0.19164
-0.206196
-0.221746
-0.238268
-0.255724
-0.274114
-0.293448
-0.313677
-0.334735
-0.356593
-0.379148
-0.000520425
-0.00157588
-0.00273021
-0.00392729
-0.00517455
-0.00648069
-0.00785002
-0.00928851
-0.0108036
-0.0124042
-0.0141008
-0.0159051
-0.0178301
-0.0198902
-0.022101
-0.0244791
-0.0270423
-0.0298082
-0.0327926
-0.0360053
-0.0394452
-0.0430973
-0.0469377
-0.0509519
-0.0551624
-0.0596474
-0.0645338
-0.0699651
-0.076042
-0.0828062
-0.0908204
-0.0998824
-0.109114
-0.118568
-0.1284
-0.138738
-0.149665
-0.161229
-0.173496
-0.186562
-0.200514
-0.215391
-0.23116
-0.247773
-0.265232
-0.283547
-0.30266
-0.322499
-0.343043
-0.364201
-0.000525581
-0.00155321
-0.00268329
-0.00385445
-0.00507395
-0.00635064
-0.0076887
-0.00909404
-0.0105741
-0.0121379
-0.0137957
-0.0155593
-0.0174418
-0.0194572
-0.0216208
-0.0239489
-0.0264585
-0.0291666
-0.0320887
-0.0352348
-0.0386043
-0.0421829
-0.0459474
-0.049883
-0.05401
-0.0584029
-0.0631839
-0.068492
-0.0744244
-0.0810206
-0.0888242
-0.0976313
-0.106586
-0.115738
-0.125241
-0.135219
-0.145751
-0.15688
-0.16866
-0.181175
-0.194512
-0.208709
-0.223726
-0.239503
-0.256037
-0.273348
-0.291375
-0.310041
-0.329326
-0.349148
-0.00053328
-0.00153103
-0.00263525
-0.00377867
-0.00496845
-0.00621353
-0.00751794
-0.00888751
-0.0103297
-0.0118535
-0.0134692
-0.0151887
-0.017025
-0.018992
-0.0211045
-0.0233784
-0.0258297
-0.0284751
-0.0313294
-0.0344027
-0.037695
-0.0411929
-0.044874
-0.0487236
-0.0527598
-0.0570533
-0.0617204
-0.0668957
-0.0726721
-0.0790877
-0.0866666
-0.0952051
-0.10387
-0.112708
-0.121866
-0.131469
-0.141592
-0.152274
-0.163556
-0.175508
-0.188217
-0.201727
-0.215994
-0.230944
-0.246567
-0.262889
-0.279859
-0.297394
-0.315472
-0.334019
-0.000543798
-0.00150978
-0.00258665
-0.00370066
-0.00485881
-0.00607024
-0.00733877
-0.00867014
-0.0100718
-0.0115527
-0.0131232
-0.0147953
-0.016582
-0.0184969
-0.0205548
-0.0227705
-0.0251597
-0.0277378
-0.0305192
-0.0335139
-0.0367225
-0.0401327
-0.0437233
-0.0474797
-0.0514183
-0.0556052
-0.060151
-0.0651845
-0.0707944
-0.0770169
-0.0843574
-0.0926142
-0.100978
-0.109491
-0.118293
-0.127506
-0.137207
-0.147431
-0.158206
-0.169587
-0.181657
-0.19447
-0.207987
-0.222121
-0.23685
-0.252201
-0.268137
-0.284579
-0.301501
-0.318832
-0.000557525
-0.00149011
-0.00253818
-0.00362121
-0.004746
-0.00592185
-0.0071524
-0.00844329
-0.00980188
-0.0112371
-0.0127596
-0.0143813
-0.0161151
-0.0179749
-0.0199746
-0.0221288
-0.024452
-0.0269588
-0.0296627
-0.0325735
-0.0356922
-0.0390081
-0.0425013
-0.0461577
-0.0499919
-0.0540656
-0.0584829
-0.0633666
-0.0688003
-0.0748183
-0.0819073
-0.0898697
-0.0979221
-0.106101
-0.114536
-0.123346
-0.132612
-0.142369
-0.152633
-0.163438
-0.174861
-0.186967
-0.199729
-0.213056
-0.226907
-0.241308
-0.256234
-0.271614
-0.287425
-0.303596
-0.000574848
-0.00147267
-0.00249055
-0.00354113
-0.00463097
-0.0057695
-0.00696018
-0.00820848
-0.00952173
-0.0109089
-0.0123807
-0.0139491
-0.0156272
-0.0174287
-0.0193674
-0.0214569
-0.0237109
-0.0261427
-0.0287649
-0.0315867
-0.0346098
-0.0378249
-0.041214
-0.0447638
-0.0484873
-0.0524414
-0.0567237
-0.0614498
-0.0666984
-0.072502
-0.0793276
-0.0869836
-0.0947149
-0.102551
-0.110611
-0.119006
-0.127824
-0.137105
-0.146853
-0.157084
-0.167858
-0.179249
-0.191249
-0.203771
-0.216759
-0.230231
-0.244171
-0.258519
-0.273257
-0.288318
-0.00059595
-0.00145798
-0.00244443
-0.00346119
-0.00451467
-0.0056144
-0.00676354
-0.00796739
-0.00923323
-0.0105701
-0.0119887
-0.0135013
-0.015121
-0.0168615
-0.0187364
-0.0207585
-0.0229404
-0.0252939
-0.0278305
-0.0305588
-0.0334809
-0.0365892
-0.0398677
-0.0433046
-0.0469112
-0.0507397
-0.0548807
-0.0594423
-0.0644976
-0.0700778
-0.0766295
-0.0839677
-0.0913687
-0.0988552
-0.106533
-0.114505
-0.122863
-0.131655
-0.140883
-0.150541
-0.160671
-0.171346
-0.182577
-0.194292
-0.206428
-0.218991
-0.231967
-0.245312
-0.259012
-0.273007
-0.000621017
-0.00144638
-0.00240035
-0.00338217
-0.00439812
-0.00545774
-0.00656391
-0.00772171
-0.00893834
-0.0102229
-0.0115861
-0.0130406
-0.0145996
-0.0162767
-0.0180853
-0.0200375
-0.0221446
-0.0244171
-0.0268648
-0.0294954
-0.0323114
-0.0353069
-0.0384687
-0.0417863
-0.0452703
-0.0489676
-0.0529615
-0.0573521
-0.0622068
-0.0675552
-0.0738234
-0.0808338
-0.0878955
-0.0950258
-0.102317
-0.109861
-0.117749
-0.126039
-0.134737
-0.143825
-0.153319
-0.163283
-0.173744
-0.184648
-0.195936
-0.207604
-0.219638
-0.232005
-0.2447
-0.257666
-0.000650637
-0.00143838
-0.00235887
-0.00330489
-0.00428235
-0.00530076
-0.00636272
-0.00747311
-0.00863902
-0.00986951
-0.0111756
-0.0125699
-0.014066
-0.0156775
-0.0174176
-0.0192977
-0.0213278
-0.0235167
-0.0258725
-0.0284018
-0.0311071
-0.0339843
-0.0370232
-0.0402156
-0.0435711
-0.0471322
-0.0509738
-0.0551878
-0.0598349
-0.0649442
-0.0709204
-0.0775936
-0.0843074
-0.0910749
-0.0979758
-0.105089
-0.1125
-0.120276
-0.128435
-0.136949
-0.145816
-0.155079
-0.164773
-0.174865
-0.185306
-0.196086
-0.207195
-0.218606
-0.230322
-0.242295
-0.000685575
-0.0014352
-0.00232114
-0.00323045
-0.00416849
-0.00514472
-0.00616145
-0.00722331
-0.00833726
-0.00951235
-0.0107597
-0.0120921
-0.0135234
-0.0150674
-0.016737
-0.018543
-0.0204941
-0.0225973
-0.0248587
-0.0272833
-0.0298737
-0.0326275
-0.0355377
-0.0385988
-0.0418203
-0.0452401
-0.048925
-0.0529573
-0.0573914
-0.0622549
-0.0679316
-0.0742593
-0.0806167
-0.0870147
-0.0935222
-0.100204
-0.107135
-0.114389
-0.121995
-0.12993
-0.138172
-0.146746
-0.155682
-0.164963
-0.174556
-0.184453
-0.194645
-0.205115
-0.215873
-0.226881
-0.000725768
-0.00143788
-0.00228821
-0.00315978
-0.00405748
-0.00499069
-0.00596135
-0.00697381
-0.00803485
-0.00915346
-0.0103408
-0.0116099
-0.0129748
-0.0144496
-0.016047
-0.0177771
-0.0196474
-0.021663
-0.0238278
-0.0261451
-0.0286169
-0.0312425
-0.0340184
-0.0369424
-0.0400243
-0.0432979
-0.0468219
-0.0506686
-0.0548849
-0.0594974
-0.0648685
-0.0708435
-0.0768368
-0.0828579
-0.0889682
-0.095218
-0.101671
-0.108398
-0.115441
-0.122786
-0.130402
-0.138293
-0.146481
-0.154958
-0.163705
-0.172719
-0.181999
-0.191535
-0.201348
-0.211411
-0.000770311
-0.0014462
-0.00226005
-0.00309301
-0.00394968
-0.00483924
-0.00576324
-0.00672574
-0.00773329
-0.00879472
-0.00992119
-0.0111259
-0.0124232
-0.0138273
-0.0153509
-0.0170036
-0.0187915
-0.0207178
-0.0227843
-0.0249919
-0.0273419
-0.0298352
-0.0324718
-0.035253
-0.0381897
-0.0413122
-0.0446712
-0.0483289
-0.052324
-0.0566814
-0.061742
-0.0673588
-0.0729812
-0.0786185
-0.0843266
-0.0901446
-0.0961215
-0.102322
-0.108796
-0.115541
-0.122524
-0.129736
-0.137184
-0.144865
-0.152769
-0.1609
-0.169268
-0.177872
-0.186743
-0.195868
-0.000818587
-0.00145943
-0.00223613
-0.00302991
-0.00384516
-0.00469069
-0.00556774
-0.00648004
-0.00743386
-0.00843779
-0.00950293
-0.0106426
-0.0118713
-0.0132036
-0.014652
-0.0162257
-0.0179298
-0.0197655
-0.021732
-0.0238281
-0.0260539
-0.0284114
-0.0309041
-0.0335373
-0.0363232
-0.0392894
-0.0424793
-0.0459449
-0.0497163
-0.0538161
-0.0585628
-0.063817
-0.0690633
-0.0743104
-0.0796109
-0.0849959
-0.0905008
-0.0961793
-0.102083
-0.10822
-0.114563
-0.121093
-0.127806
-0.134696
-0.141761
-0.149011
-0.156464
-0.164132
-0.172057
-0.18024
-0.000870385
-0.00147737
-0.00221615
-0.00297027
-0.00374385
-0.0045452
-0.00537526
-0.00623743
-0.00713761
-0.00808411
-0.00908788
-0.0101622
-0.0113218
-0.0125813
-0.0139533
-0.0154467
-0.0170654
-0.0188091
-0.0206745
-0.0226577
-0.0247572
-0.0269761
-0.0293212
-0.0318016
-0.0344316
-0.0372366
-0.0402531
-0.0435237
-0.0470696
-0.0509099
-0.0553407
-0.0602294
-0.0650958
-0.0699476
-0.0748349
-0.0797844
-0.0848202
-0.0899826
-0.0953189
-0.100845
-0.106542
-0.112385
-0.118363
-0.124466
-0.130695
-0.137064
-0.143598
-0.150322
-0.157288
-0.164511
-0.000924994
-0.00149967
-0.00219966
-0.00291355
-0.00364523
-0.00440241
-0.0051857
-0.00599811
-0.00684512
-0.00773468
-0.00867745
-0.00968657
-0.0107768
-0.0119628
-0.0132574
-0.0146691
-0.0162011
-0.0178516
-0.0196146
-0.0214838
-0.0234558
-0.0255341
-0.0277284
-0.0300519
-0.0325212
-0.0351602
-0.0379993
-0.0410722
-0.0443914
-0.0479717
-0.0520854
-0.056607
-0.0610909
-0.0655436
-0.0700128
-0.0745232
-0.0790912
-0.0837435
-0.0885191
-0.0934371
-0.0984835
-0.103636
-0.108877
-0.114193
-0.119586
-0.125071
-0.130681
-0.136446
-0.142434
-0.14867
-0.000980977
-0.00152503
-0.00218549
-0.00285866
-0.00354834
-0.00426155
-0.00499851
-0.00576183
-0.00655652
-0.00739004
-0.00827262
-0.00921709
-0.0102381
-0.0113503
-0.0125666
-0.0138953
-0.0153392
-0.0168951
-0.0185548
-0.0203093
-0.0221531
-0.0240896
-0.0261307
-0.0282938
-0.0305981
-0.0330665
-0.0357244
-0.0385973
-0.0416893
-0.0450099
-0.0488069
-0.0529607
-0.0570609
-0.0611122
-0.0651599
-0.0692277
-0.0733272
-0.0774737
-0.0816957
-0.0860101
-0.0904071
-0.0948662
-0.0993673
-0.103895
-0.10845
-0.113047
-0.117722
-0.122512
-0.127494
-0.132705
-0.00103679
-0.00155167
-0.00217199
-0.00280416
-0.00345195
-0.00412152
-0.00481279
-0.00552798
-0.00627154
-0.00705031
-0.00787393
-0.00875474
-0.00970704
-0.0107455
-0.0118828
-0.0131273
-0.0144816
-0.0159413
-0.0174968
-0.0191362
-0.0208518
-0.0226461
-0.0245327
-0.0265326
-0.0286678
-0.0309614
-0.0334344
-0.0361053
-0.0389702
-0.0420326
-0.0455146
-0.0493012
-0.0530175
-0.0566671
-0.0602917
-0.0639145
-0.0675447
-0.0711882
-0.0748626
-0.0785797
-0.0823309
-0.086097
-0.0898571
-0.0935941
-0.0973072
-0.101009
-0.104737
-0.108529
-0.112472
-0.116611
-0.00109125
-0.00157813
-0.00215774
-0.00274868
-0.0033547
-0.00398105
-0.00462742
-0.00529562
-0.0059895
-0.00671516
-0.00748145
-0.00830002
-0.00918463
-0.0101496
-0.0112075
-0.0123667
-0.0136297
-0.0149916
-0.0164416
-0.0179656
-0.0195537
-0.0212065
-0.0229386
-0.0247733
-0.026736
-0.0288504
-0.0311349
-0.0336018
-0.0362404
-0.0390473
-0.0422175
-0.0456388
-0.048972
-0.0522204
-0.0554224
-0.0586002
-0.061761
-0.0649039
-0.0680361
-0.0711626
-0.0742733
-0.0773492
-0.080369
-0.0833139
-0.0861814
-0.0889807
-0.0917467
-0.094516
-0.0973798
-0.100393
-0.00114332
-0.00160342
-0.00214154
-0.0026909
-0.00325521
-0.00383874
-0.00444099
-0.00506344
-0.00570927
-0.00638371
-0.00709464
-0.00785278
-0.00867108
-0.00956325
-0.0105416
-0.0116145
-0.0127844
-0.0140466
-0.0153896
-0.0167979
-0.0182594
-0.0197727
-0.0213515
-0.0230208
-0.0248083
-0.0267395
-0.0288314
-0.0310925
-0.0335056
-0.0360605
-0.0389235
-0.0419826
-0.0449343
-0.0477832
-0.0505647
-0.0532994
-0.0559926
-0.0586376
-0.0612329
-0.0637758
-0.066253
-0.0686441
-0.0709264
-0.0730796
-0.0750982
-0.0769865
-0.0787748
-0.0804954
-0.0822388
-0.084064
-0.00119165
-0.00162631
-0.00212199
-0.00262929
-0.00315187
-0.00369292
-0.00425186
-0.00482982
-0.0054293
-0.00605456
-0.00671235
-0.00741218
-0.0081659
-0.00898637
-0.00988529
-0.010871
-0.0119461
-0.0131065
-0.0143407
-0.0156328
-0.0169688
-0.0183452
-0.0197737
-0.0212789
-0.0228901
-0.0246345
-0.0265301
-0.0285829
-0.0307714
-0.0330782
-0.0356399
-0.0383417
-0.0409147
-0.0433661
-0.0457299
-0.048025
-0.0502539
-0.0524053
-0.0544694
-0.0564365
-0.0582884
-0.0600022
-0.0615527
-0.062917
-0.0640853
-0.0650557
-0.0658513
-0.066497
-0.0670777
-0.0676495
-0.00123438
-0.00164488
-0.0020972
-0.00256196
-0.00304277
-0.00354166
-0.00405805
-0.00459278
-0.00514762
-0.00572581
-0.00633279
-0.00697665
-0.00766786
-0.00841804
-0.00923808
-0.010136
-0.0111148
-0.0121712
-0.0132945
-0.0144694
-0.0156809
-0.0169235
-0.0182058
-0.0195503
-0.0209859
-0.0225414
-0.0242369
-0.0260788
-0.0280433
-0.030106
-0.0323734
-0.0347247
-0.0369233
-0.0389803
-0.0409301
-0.0427896
-0.0445588
-0.0462216
-0.0477615
-0.0491614
-0.0503978
-0.0514441
-0.0522713
-0.0528526
-0.053172
-0.0532201
-0.0530104
-0.0525576
-0.0519348
-0.0511882
-0.00126946
-0.00165676
-0.00206501
-0.00248686
-0.00292585
-0.00338287
-0.00385741
-0.00435006
-0.00486188
-0.00539505
-0.00595359
-0.00654395
-0.00717491
-0.00785656
-0.00859863
-0.00940861
-0.0102899
-0.0112402
-0.0122505
-0.0133067
-0.0143944
-0.0155061
-0.0166473
-0.017836
-0.019099
-0.0204654
-0.0219581
-0.0235865
-0.0253269
-0.0271493
-0.02913
-0.0311394
-0.0329702
-0.034638
-0.0361783
-0.0376071
-0.0389216
-0.040102
-0.0411252
-0.0419676
-0.0425999
-0.042991
-0.0431063
-0.0429138
-0.0423896
-0.0415149
-0.0402917
-0.0387211
-0.0368589
-0.0347333
-0.0012952
-0.00165982
-0.00202347
-0.00240208
-0.00279918
-0.00321452
-0.00364775
-0.00409926
-0.00456948
-0.00505949
-0.00557184
-0.00611116
-0.00668428
-0.00729941
-0.00796479
-0.00868713
-0.00947006
-0.0103126
-0.0112079
-0.012144
-0.0131079
-0.0140915
-0.0150966
-0.016136
-0.0172314
-0.0184108
-0.0196996
-0.021112
-0.0226277
-0.0242127
-0.025914
-0.0275916
-0.029064
-0.0303504
-0.0314881
-0.0324923
-0.0333582
-0.0340627
-0.0345777
-0.0348734
-0.0349146
-0.0346647
-0.0340828
-0.0331295
-0.0317715
-0.029979
-0.0277398
-0.0250389
-0.0219093
-0.0183542
-0.00131039
-0.00165239
-0.00197099
-0.00230604
-0.00266109
-0.00303479
-0.00342702
-0.00383807
-0.00426778
-0.00471618
-0.00518431
-0.00567489
-0.00619256
-0.00674337
-0.0073337
-0.00796917
-0.00865349
-0.00938708
-0.0101657
-0.0109804
-0.0118204
-0.0126779
-0.0135519
-0.014449
-0.0153839
-0.0163807
-0.0174668
-0.0186621
-0.0199519
-0.021301
-0.0227291
-0.0240852
-0.0252107
-0.0261269
-0.0268716
-0.0274598
-0.0278849
-0.0281215
-0.0281377
-0.0278984
-0.0273629
-0.0264885
-0.0252267
-0.0235295
-0.0213528
-0.0186535
-0.0154038
-0.0115693
-0.00715603
-0.00213573
-0.00131427
-0.00163315
-0.00190631
-0.00219751
-0.00251028
-0.00284224
-0.00319354
-0.00356445
-0.00395429
-0.00436216
-0.00478761
-0.00523141
-0.00569589
-0.00618466
-0.0067019
-0.00725181
-0.00783791
-0.00846204
-0.00912285
-0.00981504
-0.010531
-0.0112641
-0.0120113
-0.0127732
-0.0135559
-0.0143773
-0.0152647
-0.0162433
-0.0173065
-0.0184198
-0.0195787
-0.0206229
-0.0214139
-0.0219735
-0.0223383
-0.022522
-0.0225168
-0.0222957
-0.0218242
-0.0210631
-0.019967
-0.0184864
-0.0165652
-0.0141452
-0.0111703
-0.00758272
-0.00333703
0.00162269
0.00732098
0.0138228
-0.00130641
-0.00160105
-0.00182855
-0.00207568
-0.00234592
-0.00263589
-0.00294608
-0.00327677
-0.00362689
-0.0039947
-0.00437841
-0.00477689
-0.00519011
-0.00561906
-0.00606548
-0.00653174
-0.00702082
-0.00753583
-0.00807849
-0.00864759
-0.00923929
-0.00984923
-0.0104733
-0.0111066
-0.0117461
-0.0124014
-0.0130971
-0.0138625
-0.0146994
-0.0155763
-0.0164682
-0.0172078
-0.0176766
-0.0178943
-0.0178945
-0.0176886
-0.0172669
-0.0166014
-0.0156561
-0.0143887
-0.0127499
-0.010684
-0.00812666
-0.00500916
-0.00126232
0.00318704
0.00840347
0.0144664
0.0214334
0.0294101
-0.00128698
-0.00155566
-0.00173746
-0.00194042
-0.00216782
-0.00241539
-0.00268399
-0.00297396
-0.00328393
-0.00361151
-0.00395372
-0.00430766
-0.00467103
-0.00504219
-0.00542024
-0.0058054
-0.00619966
-0.00660701
-0.00703217
-0.00747829
-0.00794584
-0.00843337
-0.00893691
-0.00944705
-0.00995219
-0.0104522
-0.0109661
-0.0115252
-0.0121386
-0.0127793
-0.0134049
-0.0138452
-0.0140022
-0.0138923
-0.0135444
-0.012966
-0.012145
-0.0110522
-0.00965045
-0.00789542
-0.00573479
-0.00310713
5.95238e-05
0.00384479
0.00833097
0.0136072
0.0197578
0.0268871
0.0350869
0.0445062
-0.00125664
-0.00149745
-0.0016336
-0.00179228
-0.00197643
-0.00218103
-0.00240727
-0.00265558
-0.00292444
-0.00321093
-0.00351111
-0.00382054
-0.00413484
-0.00444985
-0.00476203
-0.00506922
-0.00537196
-0.00567452
-0.00598418
-0.00630844
-0.00665233
-0.00701788
-0.00740225
-0.00779322
-0.00817164
-0.00852729
-0.00887178
-0.00923484
-0.00963124
-0.0100379
-0.0103982
-0.0105433
-0.0103969
-0.00997204
-0.00929169
-0.00835905
-0.00715846
-0.00565873
-0.00382174
-0.00160159
0.00105639
0.00421855
0.0079639
0.0123823
0.017569
0.0236286
0.0306652
0.0388083
0.0481844
0.0589871
-0.00121614
-0.00142718
-0.00151786
-0.00163217
-0.00177262
-0.00193355
-0.00211644
-0.00232184
-0.00254816
-0.00279213
-0.00304905
-0.00331323
-0.00357847
-0.00383842
-0.00408707
-0.00431985
-0.00453541
-0.00473759
-0.00493547
-0.00514037
-0.00536188
-0.00560583
-0.00587141
-0.00614524
-0.00640259
-0.00662401
-0.00681219
-0.00699242
-0.0071818
-0.00736007
-0.00745832
-0.00731218
-0.00686934
-0.00613983
-0.00514123
-0.00387205
-0.0023125
-0.00042879
0.00181883
0.00447775
0.00760465
0.01127
0.015559
0.0205708
0.0264124
0.0332033
0.0410662
0.0501555
0.0606311
0.0727301
-0.00116628
-0.00134544
-0.00139112
-0.00146118
-0.00155762
-0.00167418
-0.00181265
-0.0019737
-0.00215575
-0.00235532
-0.00256719
-0.00278469
-0.00300017
-0.00320548
-0.00339253
-0.00355451
-0.00368803
-0.00379571
-0.00388734
-0.00397719
-0.00407891
-0.00420208
-0.00434859
-0.00450557
-0.00464507
-0.00474022
-0.00478462
-0.00479657
-0.00479205
-0.00475123
-0.00459395
-0.00416237
-0.00342985
-0.00240456
-0.00109978
0.000489795
0.00238803
0.00463182
0.00726324
0.0103315
0.0138952
0.0180283
0.0228212
0.0283813
0.0348259
0.0422874
0.0509061
0.060859
0.0723374
0.0856182
-0.00110821
-0.00125321
-0.00125475
-0.00128096
-0.00133316
-0.00140477
-0.00149779
-0.001613
-0.00174888
-0.00190191
-0.00206654
-0.00223541
-0.00239984
-0.00255028
-0.00267708
-0.00277165
-0.00282856
-0.00284867
-0.00284132
-0.00282238
-0.00280859
-0.00281289
-0.00284011
-0.00287928
-0.00290175
-0.00287579
-0.00278685
-0.00264472
-0.00246106
-0.00221372
-0.00181139
-0.00110329
-8.9347e-05
0.00122315
0.00282348
0.00471913
0.0069372
0.00951761
0.0125054
0.0159518
0.0199176
0.0244795
0.0297325
0.0357905
0.0427796
0.0508432
0.0601366
0.070857
0.0832231
0.0975451
-0.00104325
-0.00115203
-0.00111065
-0.00109355
-0.00110153
-0.00112779
-0.00117446
-0.00124241
-0.00133024
-0.00143451
-0.00154953
-0.00166757
-0.00177924
-0.0018741
-0.00194145
-0.00197148
-0.00195706
-0.00189704
-0.00179921
-0.00167951
-0.0015564
-0.00144527
-0.00135376
-0.00127375
-0.00117817
-0.00103331
-0.000818405
-0.000534393
-0.000186221
0.000253059
0.000886436
0.00185825
0.00314247
0.00473218
0.00661744
0.008806
0.0113266
0.0142216
0.0175389
0.0213321
0.0256639
0.0306135
0.0362794
0.0427807
0.0502502
0.0588401
0.0687179
0.0800972
0.0932188
0.108418
-0.000972935
-0.00104346
-0.000960696
-0.000901201
-0.000865338
-0.000846195
-0.000845895
-0.000865395
-0.000903476
-0.000956869
-0.00101997
-0.00108494
-0.00114203
-0.00118034
-0.00118863
-0.00115642
-0.00107548
-0.000942633
-0.000763382
-0.000552228
-0.000327675
-0.00010635
0.00010196
0.000302092
0.000517723
0.000781732
0.0011186
0.00153549
0.00203537
0.0026517
0.00349981
0.0047189
0.0062585
0.00811247
0.0102704
0.0127385
0.0155453
0.0187343
0.0223557
0.0264651
0.031127
0.0364222
0.042452
0.0493388
0.0572203
0.0662548
0.0766191
0.0885385
0.102269
0.118162
-0.000899402
-0.000929386
-0.000807094
-0.000706608
-0.000627718
-0.000563482
-0.000515984
-0.000486242
-0.000473228
-0.000473942
-0.000483054
-0.000492875
-0.000493693
-0.000474468
-0.000423869
-0.000331295
-0.000187932
1.10366e-05
0.000262824
0.000555624
0.000872528
0.0011972
0.00151868
0.00183866
0.00217628
0.00256123
0.00301912
0.00356358
0.00420551
0.00498548
0.00603154
0.00747897
0.00925546
0.0113569
0.0137721
0.0165044
0.0195805
0.0230437
0.0269453
0.0313419
0.036299
0.0418981
0.048242
0.0554552
0.0636776
0.0730713
0.0838187
0.0961518
0.110334
0.126721
-0.000825194
-0.00081274
-0.000652936
-0.000513103
-0.000392285
-0.000283668
-0.000189241
-0.000109988
-4.50443e-05
8.2503e-06
5.47846e-05
0.000101812
0.000158704
0.000236252
0.000345556
0.000496952
0.000699317
0.000958648
0.00127489
0.00163977
0.00203942
0.00245934
0.00288862
0.00332643
0.00378695
0.00429511
0.0048753
0.00554559
0.00632385