/*--------------------------------*- C++ -*----------------------------------*\
  =========                 |
  \\      /  F ield         | OpenFOAM: The Open Source CFD Toolbox
   \\    /   O peration     | Website:  https://openfoam.org
    \\  /    A nd           | Version:  9
     \\/     M anipulation  |
\*---------------------------------------------------------------------------*/
FoamFile
{
    format      ascii;
    class       volVectorField;
    location    "0.15";
    object      U;
}
// * * * * * * * * * * * * * * * * * * * * * * * * * * * * * * * * * * * * * //

dimensions      [0 1 -1 0 0 0 0];

internalField   nonuniform List<vector> 
5000
(
(-0.024716 0 -0.0013298)
(-0.0247256 0 -0.00210321)
(-0.0246738 0 -0.00185116)
(-0.0246321 0 -0.000579236)
(-0.0245806 0 0.00188303)
(-0.024521 0 0.00575129)
(-0.0244577 0 0.0112674)
(-0.0243962 0 0.0186864)
(-0.0243436 0 0.0282573)
(-0.0243099 0 0.0401924)
(-0.0243084 0 0.0546274)
(-0.024357 0 0.0715737)
(-0.0244792 0 0.0908663)
(-0.0247045 0 0.112113)
(-0.025067 0 0.134644)
(-0.0256028 0 0.157467)
(-0.0263431 0 0.179211)
(-0.0273044 0 0.198084)
(-0.0284757 0 0.211864)
(-0.0298069 0 0.218079)
(-0.0312068 0 0.214544)
(-0.0325604 0 0.20047)
(-0.0337748 0 0.177962)
(-0.0348458 0 0.153128)
(-0.0359125 0 0.135413)
(-0.0372495 0 0.13417)
(-0.0391578 0 0.153368)
(-0.041794 0 0.187817)
(-0.0450441 0 0.224613)
(-0.0485756 0 0.249908)
(-0.0522799 0 0.256488)
(-0.0556638 0 0.243639)
(-0.0584363 0 0.222235)
(-0.0609844 0 0.20247)
(-0.0636617 0 0.189247)
(-0.0667157 0 0.183409)
(-0.0702466 0 0.183915)
(-0.0742877 0 0.189437)
(-0.0788489 0 0.19891)
(-0.0839286 0 0.211256)
(-0.0894949 0 0.225064)
(-0.095488 0 0.238828)
(-0.101843 0 0.251522)
(-0.108517 0 0.262933)
(-0.115491 0 0.273548)
(-0.12277 0 0.284228)
(-0.130366 0 0.296004)
(-0.138299 0 0.310034)
(-0.146599 0 0.32757)
(-0.155204 0 0.349715)
(-0.022995 0 -0.0013665)
(-0.023003 0 -0.00218198)
(-0.022947 0 -0.00196395)
(-0.0228998 0 -0.000720356)
(-0.0228405 0 0.00172151)
(-0.0227704 0 0.00557951)
(-0.0226936 0 0.0110975)
(-0.0226153 0 0.018533)
(-0.0225422 0 0.0281378)
(-0.022484 0 0.0401283)
(-0.0224539 0 0.0546454)
(-0.0224698 0 0.0717061)
(-0.0225553 0 0.0911511)
(-0.0227403 0 0.112592)
(-0.0230599 0 0.135358)
(-0.0235514 0 0.158447)
(-0.0242476 0 0.180469)
(-0.0251674 0 0.199596)
(-0.0263023 0 0.213566)
(-0.0276054 0 0.219858)
(-0.0289886 0 0.216263)
(-0.0303395 0 0.202008)
(-0.0315658 0 0.179274)
(-0.032661 0 0.154302)
(-0.0337589 0 0.136666)
(-0.0351256 0 0.13577)
(-0.0370515 0 0.155492)
(-0.0396821 0 0.190436)
(-0.0428929 0 0.227487)
(-0.0463466 0 0.25271)
(-0.0499238 0 0.258941)
(-0.0531302 0 0.245649)
(-0.0557 0 0.223959)
(-0.058026 0 0.204145)
(-0.0604609 0 0.191074)
(-0.0632466 0 0.185501)
(-0.066477 0 0.186321)
(-0.0701787 0 0.192174)
(-0.0743548 0 0.201985)
(-0.078996 0 0.214654)
(-0.0840616 0 0.228748)
(-0.0894824 0 0.242749)
(-0.0951823 0 0.255635)
(-0.101102 0 0.267213)
(-0.107206 0 0.277983)
(-0.113473 0 0.288818)
(-0.119887 0 0.300754)
(-0.12642 0 0.314945)
(-0.133068 0 0.332624)
(-0.13972 0 0.354891)
(-0.0212343 0 -0.00140751)
(-0.0212405 0 -0.00227022)
(-0.0211801 0 -0.00209123)
(-0.0211271 0 -0.000881487)
(-0.0210598 0 0.00153396)
(-0.0209788 0 0.00537529)
(-0.0208881 0 0.0108886)
(-0.0207924 0 0.0183337)
(-0.0206982 0 0.0279657)
(-0.0206148 0 0.0400051)
(-0.0205551 0 0.0545981)
(-0.0205371 0 0.0717679)
(-0.0205846 0 0.0913613)
(-0.0207279 0 0.112994)
(-0.0210028 0 0.135994)
(-0.0214479 0 0.159352)
(-0.0220979 0 0.181658)
(-0.0229739 0 0.20105)
(-0.0240704 0 0.215222)
(-0.0253437 0 0.221608)
(-0.0267091 0 0.217973)
(-0.0280571 0 0.203555)
(-0.0292964 0 0.180614)
(-0.0304185 0 0.155513)
(-0.0315517 0 0.137958)
(-0.032953 0 0.1374)
(-0.0349015 0 0.157627)
(-0.0375298 0 0.193036)
(-0.0407021 0 0.230306)
(-0.044076 0 0.255425)
(-0.0475224 0 0.261276)
(-0.0505477 0 0.247518)
(-0.0529114 0 0.22553)
(-0.0550121 0 0.205661)
(-0.0571999 0 0.192732)
(-0.0597108 0 0.187411)
(-0.0626322 0 0.188521)
(-0.0659853 0 0.194674)
(-0.0697683 0 0.204782)
(-0.0739659 0 0.21773)
(-0.0785293 0 0.232066)
(-0.0833789 0 0.246255)
(-0.0884266 0 0.259279)
(-0.0935988 0 0.270955)
(-0.0988411 0 0.281795)
(-0.104111 0 0.292678)
(-0.109367 0 0.304642)
(-0.114546 0 0.318831)
(-0.119579 0 0.33644)
(-0.124387 0 0.358576)
(-0.01944 0 -0.00145275)
(-0.0194442 0 -0.00236777)
(-0.0193796 0 -0.00223275)
(-0.0193208 0 -0.0010623)
(-0.0192452 0 0.00132075)
(-0.0191531 0 0.00513903)
(-0.0190482 0 0.0106409)
(-0.0189347 0 0.0180889)
(-0.0188188 0 0.0277411)
(-0.0187094 0 0.0398226)
(-0.0186193 0 0.0544853)
(-0.0185663 0 0.0717587)
(-0.0185742 0 0.091496)
(-0.0186738 0 0.113317)
(-0.0189019 0 0.136552)
(-0.0192981 0 0.160181)
(-0.0198992 0 0.182776)
(-0.0207286 0 0.202442)
(-0.0217838 0 0.216829)
(-0.0230249 0 0.223326)
(-0.024371 0 0.21967)
(-0.0257159 0 0.205111)
(-0.02697 0 0.181981)
(-0.028123 0 0.156765)
(-0.0292978 0 0.139294)
(-0.0307417 0 0.139067)
(-0.0327208 0 0.159779)
(-0.0353528 0 0.195622)
(-0.0384891 0 0.233074)
(-0.0417817 0 0.25805)
(-0.0450915 0 0.263489)
(-0.0479271 0 0.249241)
(-0.0500764 0 0.226941)
(-0.0519449 0 0.207006)
(-0.0538811 0 0.194211)
(-0.0561151 0 0.189128)
(-0.058727 0 0.19051)
(-0.0617317 0 0.196936)
(-0.065121 0 0.207307)
(-0.0688732 0 0.220494)
(-0.0729329 0 0.235023)
(-0.0772125 0 0.249349)
(-0.0816137 0 0.262455)
(-0.0860497 0 0.274166)
(-0.0904498 0 0.285003)
(-0.0947502 0 0.295843)
(-0.0988873 0 0.307723)
(-0.102776 0 0.321779)
(-0.106291 0 0.339167)
(-0.109344 0 0.360923)
(-0.0176179 0 -0.00150225)
(-0.0176201 0 -0.0024747)
(-0.0175513 0 -0.00238863)
(-0.0174865 0 -0.00126297)
(-0.0174026 0 0.00108168)
(-0.0172993 0 0.00487046)
(-0.0171799 0 0.0103542)
(-0.0170483 0 0.017798)
(-0.0169101 0 0.0274635)
(-0.0167741 0 0.0395804)
(-0.0166526 0 0.0543062)
(-0.0165635 0 0.0716775)
(-0.0165305 0 0.0915542)
(-0.0165849 0 0.113561)
(-0.0167641 0 0.137029)
(-0.0171092 0 0.160932)
(-0.0176588 0 0.18382)
(-0.0184388 0 0.203768)
(-0.0194501 0 0.218383)
(-0.0206567 0 0.225009)
(-0.021982 0 0.22135)
(-0.0233238 0 0.206672)
(-0.0245944 0 0.183372)
(-0.0257825 0 0.158056)
(-0.0270052 0 0.140674)
(-0.0284994 0 0.14077)
(-0.0305164 0 0.161948)
(-0.0331574 0 0.198195)
(-0.0362596 0 0.235795)
(-0.0394697 0 0.260596)
(-0.0426386 0 0.265596)
(-0.0452788 0 0.250837)
(-0.0472086 0 0.228208)
(-0.0488405 0 0.208193)
(-0.0505215 0 0.19551)
(-0.0524759 0 0.190643)
(-0.0547772 0 0.192272)
(-0.057434 0 0.198945)
(-0.0604319 0 0.209551)
(-0.0637429 0 0.222944)
(-0.0673047 0 0.237628)
(-0.0710223 0 0.252044)
(-0.0747884 0 0.265175)
(-0.0785058 0 0.276855)
(-0.0820898 0 0.28761)
(-0.0854588 0 0.29832)
(-0.0885282 0 0.310011)
(-0.0911977 0 0.323812)
(-0.093304 0 0.340847)
(-0.0947348 0 0.362068)
(-0.0157739 0 -0.001556)
(-0.015774 0 -0.0025911)
(-0.0157011 0 -0.00255907)
(-0.0156304 0 -0.00148385)
(-0.015538 0 0.000816173)
(-0.0154235 0 0.00456876)
(-0.0152895 0 0.0100273)
(-0.0151394 0 0.0174597)
(-0.0149786 0 0.0271312)
(-0.0148154 0 0.039276)
(-0.0146619 0 0.0540581)
(-0.0145355 0 0.0715209)
(-0.0144604 0 0.0915319)
(-0.0144679 0 0.113722)
(-0.0145964 0 0.137421)
(-0.0148881 0 0.161598)
(-0.0153836 0 0.184785)
(-0.0161115 0 0.205025)
(-0.0170761 0 0.219881)
(-0.0182458 0 0.226652)
(-0.0195489 0 0.223015)
(-0.0208875 0 0.208241)
(-0.0221768 0 0.184794)
(-0.0234045 0 0.159393)
(-0.0246818 0 0.142108)
(-0.0262341 0 0.14252)
(-0.0282961 0 0.164141)
(-0.0309506 0 0.200758)
(-0.0340199 0 0.238466)
(-0.0371459 0 0.263057)
(-0.0401707 0 0.267586)
(-0.0426116 0 0.252297)
(-0.044319 0 0.229326)
(-0.0457124 0 0.209217)
(-0.0471368 0 0.196633)
(-0.048811 0 0.191961)
(-0.050802 0 0.193812)
(-0.0531123 0 0.200705)
(-0.0557224 0 0.211515)
(-0.0585984 0 0.22508)
(-0.0616721 0 0.23988)
(-0.0648415 0 0.254344)
(-0.0679914 0 0.26745)
(-0.0710149 0 0.27904)
(-0.0738159 0 0.289645)
(-0.0762984 0 0.300143)
(-0.07836 0 0.311554)
(-0.079889 0 0.324991)
(-0.0807042 0 0.341555)
(-0.0806662 0 0.362117)
(-0.0139138 0 -0.00161392)
(-0.0139116 0 -0.00271684)
(-0.0138347 0 -0.00274394)
(-0.0137582 0 -0.00172487)
(-0.0136575 0 0.000524195)
(-0.0135317 0 0.00423373)
(-0.013383 0 0.00965981)
(-0.0132143 0 0.0170732)
(-0.0130306 0 0.0267429)
(-0.0128398 0 0.0389082)
(-0.0126535 0 0.0537391)
(-0.0124891 0 0.0712869)
(-0.0123706 0 0.0914265)
(-0.0123298 0 0.113795)
(-0.0124055 0 0.137724)
(-0.0126416 0 0.162177)
(-0.0130803 0 0.185667)
(-0.0137532 0 0.206208)
(-0.0146684 0 0.22132)
(-0.0157988 0 0.228256)
(-0.0170782 0 0.224663)
(-0.0184139 0 0.20982)
(-0.0197244 0 0.186251)
(-0.0209969 0 0.160786)
(-0.0223361 0 0.143604)
(-0.0239546 0 0.144325)
(-0.0260684 0 0.166365)
(-0.0287406 0 0.203315)
(-0.0317777 0 0.241087)
(-0.034818 0 0.265427)
(-0.0376952 0 0.269454)
(-0.0399335 0 0.253612)
(-0.0414167 0 0.230288)
(-0.0425708 0 0.210076)
(-0.043739 0 0.197578)
(-0.0451346 0 0.193085)
(-0.0468182 0 0.195137)
(-0.0487868 0 0.202224)
(-0.0510156 0 0.213208)
(-0.0534657 0 0.22691)
(-0.0560635 0 0.24179)
(-0.0587017 0 0.25626)
(-0.0612583 0 0.269296)
(-0.0636182 0 0.280743)
(-0.0656755 0 0.291137)
(-0.0673225 0 0.301353)
(-0.0684438 0 0.312405)
(-0.0689181 0 0.325388)
(-0.0685601 0 0.341381)
(-0.0672093 0 0.361194)
(-0.0120425 0 -0.00167583)
(-0.0120381 0 -0.00285163)
(-0.0119575 0 -0.00294291)
(-0.0118753 0 -0.0019857)
(-0.0117665 0 0.000206014)
(-0.0116295 0 0.00386552)
(-0.0114662 0 0.00925168)
(-0.011279 0 0.0166384)
(-0.0110723 0 0.0262983)
(-0.0108534 0 0.0384759)
(-0.0106339 0 0.053348)
(-0.0104306 0 0.0709735)
(-0.0102677 0 0.0912356)
(-0.010177 0 0.113778)
(-0.0101982 0 0.137935)
(-0.0103763 0 0.162664)
(-0.0107557 0 0.186463)
(-0.0113707 0 0.207314)
(-0.0122335 0 0.222695)
(-0.0133222 0 0.229817)
(-0.0145766 0 0.226294)
(-0.0159099 0 0.211411)
(-0.0172445 0 0.187748)
(-0.0185673 0 0.16224)
(-0.0199762 0 0.145171)
(-0.0216689 0 0.146193)
(-0.0238411 0 0.168625)
(-0.0265344 0 0.205866)
(-0.0295397 0 0.243658)
(-0.0324921 0 0.267706)
(-0.0352189 0 0.271198)
(-0.0372525 0 0.254784)
(-0.0385106 0 0.231094)
(-0.039426 0 0.210768)
(-0.0403399 0 0.198344)
(-0.0414602 0 0.194013)
(-0.0428414 0 0.196248)
(-0.0444753 0 0.203506)
(-0.0463321 0 0.214636)
(-0.0483683 0 0.228445)
(-0.0505059 0 0.243371)
(-0.052633 0 0.257809)
(-0.0546227 0 0.270732)
(-0.0563529 0 0.281989)
(-0.0577099 0 0.292117)
(-0.058577 0 0.301992)
(-0.0588298 0 0.312619)
(-0.0583401 0 0.325076)
(-0.0569249 0 0.340419)
(-0.0544126 0 0.359413)
(-0.0101648 0 -0.00174146)
(-0.0101584 0 -0.002995)
(-0.0100743 0 -0.00315539)
(-0.00998664 0 -0.00226572)
(-0.00986995 0 -0.000137802)
(-0.00972209 0 0.00346457)
(-0.00954437 0 0.00880317)
(-0.0093387 0 0.016155)
(-0.00910897 0 0.0257969)
(-0.00886202 0 0.0379785)
(-0.00860884 0 0.0528835)
(-0.00836612 0 0.070579)
(-0.00815772 0 0.090957)
(-0.00801582 0 0.113668)
(-0.00798076 0 0.138051)
(-0.00809872 0 0.163056)
(-0.00841611 0 0.187167)
(-0.00897041 0 0.208337)
(-0.00977807 0 0.224003)
(-0.0108228 0 0.231332)
(-0.0120511 0 0.227907)
(-0.0133827 0 0.213015)
(-0.0147447 0 0.18929)
(-0.0161237 0 0.163763)
(-0.0176097 0 0.146816)
(-0.0193845 0 0.148129)
(-0.0216208 0 0.170925)
(-0.0243377 0 0.208414)
(-0.0273106 0 0.246178)
(-0.0301732 0 0.269893)
(-0.0327474 0 0.272819)
(-0.0345754 0 0.255813)
(-0.0356095 0 0.231746)
(-0.0362884 0 0.211297)
(-0.0369514 0 0.198934)
(-0.0378011 0 0.194751)
(-0.0388865 0 0.197148)
(-0.0401944 0 0.204554)
(-0.0416907 0 0.215805)
(-0.0433275 0 0.229693)
(-0.0450233 0 0.244633)
(-0.0466627 0 0.259006)
(-0.0481148 0 0.271779)
(-0.0492523 0 0.282804)
(-0.0499553 0 0.292621)
(-0.0501007 0 0.302103)
(-0.0495582 0 0.312249)
(-0.0481968 0 0.324124)
(-0.0458382 0 0.33876)
(-0.042308 0 0.356887)
(-0.00828455 0 -0.00181046)
(-0.00827631 0 -0.00314629)
(-0.00818901 0 -0.00338056)
(-0.00809629 0 -0.00256403)
(-0.00797212 0 -0.000506357)
(-0.00781378 0 0.00303168)
(-0.00762204 0 0.00831488)
(-0.00739821 0 0.0156236)
(-0.00714563 0 0.0252387)
(-0.00687059 0 0.0374155)
(-0.00658359 0 0.0523447)
(-0.00630091 0 0.0701021)
(-0.00604629 0 0.0905886)
(-0.00585204 0 0.113463)
(-0.0057591 0 0.138067)
(-0.00581487 0 0.163349)
(-0.00606788 0 0.187776)
(-0.00655879 0 0.209274)
(-0.00730865 0 0.225241)
(-0.00830732 0 0.2328)
(-0.00950848 0 0.229502)
(-0.0108394 0 0.214636)
(-0.0122322 0 0.190882)
(-0.0136733 0 0.165361)
(-0.0152441 0 0.148548)
(-0.0171079 0 0.150141)
(-0.0194131 0 0.173268)
(-0.0221551 0 0.21096)
(-0.0250945 0 0.248645)
(-0.0278652 0 0.271986)
(-0.0302854 0 0.274315)
(-0.0319086 0 0.2567)
(-0.0327213 0 0.232245)
(-0.0331676 0 0.211664)
(-0.0335848 0 0.199352)
(-0.0341702 0 0.195302)
(-0.034968 0 0.197844)
(-0.0359605 0 0.205376)
(-0.0371093 0 0.216725)
(-0.0383631 0 0.230666)
(-0.0396376 0 0.245593)
(-0.0408149 0 0.259871)
(-0.0417612 0 0.272461)
(-0.0423454 0 0.283218)
(-0.0424426 0 0.292683)
(-0.0419257 0 0.30173)
(-0.0406613 0 0.31135)
(-0.0385182 0 0.322599)
(-0.0353255 0 0.336489)
(-0.0309119 0 0.35372)
(-0.00640498 0 -0.00188236)
(-0.00639519 0 -0.00330468)
(-0.00630504 0 -0.00361735)
(-0.00620769 0 -0.00287944)
(-0.00607654 0 -0.000898436)
(-0.00590824 0 0.00256799)
(-0.00570299 0 0.00778781)
(-0.00546148 0 0.0150448)
(-0.00518641 0 0.0246242)
(-0.00488347 0 0.0367869)
(-0.00456264 0 0.0517312)
(-0.00423977 0 0.0695418)
(-0.00393835 0 0.090129)
(-0.00369079 0 0.11316)
(-0.00353858 0 0.137982)
(-0.00353034 0 0.163539)
(-0.00371674 0 0.188286)
(-0.0041418 0 0.210122)
(-0.00483145 0 0.226405)
(-0.00578216 0 0.234218)
(-0.00695556 0 0.23108)
(-0.00828698 0 0.216275)
(-0.00971429 0 0.192529)
(-0.0112234 0 0.167043)
(-0.0128857 0 0.150373)
(-0.0148448 0 0.152234)
(-0.0172225 0 0.175657)
(-0.0199901 0 0.213502)
(-0.0228943 0 0.251059)
(-0.0255713 0 0.273983)
(-0.0278371 0 0.275686)
(-0.0292575 0 0.257444)
(-0.0298532 0 0.232595)
(-0.0300725 0 0.211874)
(-0.0302502 0 0.199602)
(-0.0305793 0 0.195672)
(-0.0310993 0 0.198342)
(-0.0317883 0 0.205982)
(-0.0326044 0 0.217407)
(-0.0334933 0 0.231377)
(-0.0343687 0 0.246267)
(-0.0351112 0 0.260423)
(-0.0355854 0 0.272802)
(-0.0356569 0 0.283259)
(-0.0351975 0 0.29234)
(-0.034078 0 0.300916)
(-0.0321639 0 0.309976)
(-0.0293257 0 0.320567)
(-0.0254014 0 0.333683)
(-0.0202275 0 0.350003)
(-0.00452843 0 -0.00195666)
(-0.00451746 0 -0.00346917)
(-0.00442484 0 -0.00386449)
(-0.00432338 0 -0.00321048)
(-0.00418586 0 -0.00131249)
(-0.00400826 0 0.00207501)
(-0.00379015 0 0.00722332)
(-0.00353156 0 0.0144198)
(-0.00323454 0 0.0239542)
(-0.00290412 0 0.0360932)
(-0.00254968 0 0.051043)
(-0.00218659 0 0.0688973)
(-0.00183804 0 0.0895768)
(-0.00153647 0 0.112758)
(-0.00132388 0 0.137792)
(-0.0012501 0 0.163624)
(-0.00136796 0 0.188694)
(-0.00172503 0 0.210876)
(-0.00235239 0 0.227493)
(-0.00325361 0 0.235585)
(-0.00439891 0 0.23264)
(-0.00573233 0 0.217937)
(-0.00719774 0 0.194237)
(-0.00878032 0 0.168814)
(-0.0105405 0 0.152298)
(-0.0126 0 0.154412)
(-0.0150527 0 0.178094)
(-0.0178453 0 0.21604)
(-0.0207124 0 0.253417)
(-0.0232939 0 0.275884)
(-0.0254059 0 0.276934)
(-0.0266275 0 0.258051)
(-0.027012 0 0.232797)
(-0.0270111 0 0.21193)
(-0.0269573 0 0.199689)
(-0.0270392 0 0.195867)
(-0.0272924 0 0.198651)
(-0.0276914 0 0.20638)
(-0.0281909 0 0.217862)
(-0.0287344 0 0.23184)
(-0.0292343 0 0.24667)
(-0.0295708 0 0.260683)
(-0.0296073 0 0.272827)
(-0.0292076 0 0.282959)
(-0.0282409 0 0.291628)
(-0.0265778 0 0.299707)
(-0.0240841 0 0.30818)
(-0.0206335 0 0.318089)
(-0.0160731 0 0.330415)
(-0.0102496 0 0.34582)
(-0.00265629 0 -0.00203273)
(-0.00264455 0 -0.00363863)
(-0.00254988 0 -0.00412047)
(-0.00244492 0 -0.00355541)
(-0.00230175 0 -0.00174667)
(-0.00211564 0 0.00155462)
(-0.00188549 0 0.0066232)
(-0.00161061 0 0.0137502)
(-0.00129237 0 0.0232299)
(-0.000935097 0 0.0353354)
(-0.000547504 0 0.0502804)
(-0.000144432 0 0.0681688)
(0.00025127 0 0.0889315)
(0.000607246 0 0.112255)
(0.000881019 0 0.137497)
(0.00102153 0 0.163601)
(0.000973713 0 0.188997)
(0.000686371 0 0.211535)
(0.000122972 0 0.228503)
(-0.000727633 0 0.236901)
(-0.00184485 0 0.234184)
(-0.0031819 0 0.219624)
(-0.00468897 0 0.19601)
(-0.00635008 0 0.170682)
(-0.00821345 0 0.154328)
(-0.0103771 0 0.156679)
(-0.0129059 0 0.180578)
(-0.0157224 0 0.218572)
(-0.0185501 0 0.255718)
(-0.0210352 0 0.277689)
(-0.022995 0 0.278059)
(-0.024023 0 0.258522)
(-0.0242038 0 0.232859)
(-0.023991 0 0.211838)
(-0.0237149 0 0.19962)
(-0.02356 0 0.195894)
(-0.0235587 0 0.198778)
(-0.0236821 0 0.206582)
(-0.0238822 0 0.218102)
(-0.0241008 0 0.23207)
(-0.02425 0 0.246822)
(-0.0242099 0 0.260671)
(-0.0238439 0 0.272561)
(-0.0230146 0 0.282348)
(-0.0215897 0 0.290584)
(-0.0194405 0 0.298144)
(-0.0164347 0 0.306011)
(-0.0124496 0 0.315223)
(-0.00734088 0 0.326753)
(-0.000967884 0 0.341246)
(-0.000789081 0 -0.00211004)
(-0.000776927 0 -0.00381186)
(-0.000680626 0 -0.00438368)
(-0.000572906 0 -0.0039123)
(-0.000424869 0 -0.00219884)
(-0.000231144 0 0.00100901)
(1.00929e-05 0 0.0059896)
(0.000300266 0 0.013038)
(0.000638779 0 0.0224532)
(0.00102204 0 0.0345147)
(0.00144204 0 0.0494446)
(0.00188456 0 0.0673565)
(0.00232716 0 0.0881928)
(0.00273756 0 0.11165)
(0.00307288 0 0.137094)
(0.00328088 0 0.163467)
(0.00330422 0 0.189192)
(0.00308785 0 0.212096)
(0.0025895 0 0.229433)
(0.00179013 0 0.238164)
(0.000700756 0 0.235712)
(-0.000641727 0 0.221338)
(-0.00219387 0 0.197854)
(-0.0039379 0 0.17265)
(-0.00590864 0 0.156468)
(-0.00817911 0 0.159036)
(-0.010784 0 0.18311)
(-0.0136223 0 0.221098)
(-0.0164084 0 0.257961)
(-0.0187968 0 0.279399)
(-0.0206074 0 0.279066)
(-0.0214487 0 0.258863)
(-0.0214344 0 0.232784)
(-0.0210194 0 0.211604)
(-0.0205311 0 0.199401)
(-0.0201508 0 0.195761)
(-0.0199082 0 0.198733)
(-0.0197714 0 0.206597)
(-0.0196902 0 0.21814)
(-0.0196052 0 0.232082)
(-0.0194289 0 0.246741)
(-0.0190424 0 0.260412)
(-0.0183093 0 0.27203)
(-0.0170918 0 0.281456)
(-0.0152566 0 0.289243)
(-0.0126771 0 0.296269)
(-0.0092234 0 0.303517)
(-0.00477669 0 0.312023)
(0.000799074 0 0.322755)
(0.00763099 0 0.336347)
(0.00107468 0 -0.00218772)
(0.00108631 0 -0.00398733)
(0.00118367 0 -0.00465216)
(0.00129343 0 -0.00427885)
(0.00144533 0 -0.00266647)
(0.0016456 0 0.000440815)
(0.00189677 0 0.00532514)
(0.00220104 0 0.0122857)
(0.00255862 0 0.0216264)
(0.00296672 0 0.0336333)
(0.00341809 0 0.048537)
(0.00389918 0 0.0664618)
(0.00438802 0 0.0873614)
(0.00485248 0 0.110944)
(0.00524929 0 0.136583)
(0.00552507 0 0.163224)
(0.00562009 0 0.189279)
(0.00547539 0 0.212557)
(0.00504269 0 0.230281)
(0.00429469 0 0.239375)
(0.00323239 0 0.237227)
(0.00188258 0 0.223084)
(0.000282339 0 0.199772)
(-0.00154829 0 0.174723)
(-0.0036295 0 0.15872)
(-0.00600803 0 0.161484)
(-0.00868813 0 0.185688)
(-0.0115458 0 0.223614)
(-0.0142884 0 0.260145)
(-0.0165804 0 0.281014)
(-0.0182461 0 0.279957)
(-0.0189088 0 0.25908)
(-0.0187094 0 0.23258)
(-0.0181026 0 0.211235)
(-0.0174133 0 0.19904)
(-0.01682 0 0.195477)
(-0.0163499 0 0.198525)
(-0.0159689 0 0.206437)
(-0.0156252 0 0.21799)
(-0.0152586 0 0.231893)
(-0.0147824 0 0.246445)
(-0.0140797 0 0.259924)
(-0.0130149 0 0.271261)
(-0.0114499 0 0.280312)
(-0.00925137 0 0.287638)
(-0.00629509 0 0.294119)
(-0.0024543 0 0.300741)
(0.00238553 0 0.308538)
(0.00835292 0 0.318475)
(0.0155629 0 0.331177)
(0.00293603 0 -0.00226481)
(0.0029465 0 -0.00416333)
(0.00304447 0 -0.00492364)
(0.00315552 0 -0.00465243)
(0.00331026 0 -0.00314667)
(0.00351588 0 -0.000146914)
(0.00377566 0 0.00463291)
(0.00409264 0 0.0114962)
(0.00446787 0 0.0207522)
(0.00489939 0 0.0326937)
(0.00538076 0 0.04756)
(0.00589915 0 0.0654863)
(0.00643316 0 0.0864387)
(0.00695084 0 0.110137)
(0.0074086 0 0.135964)
(0.00775186 0 0.162868)
(0.00791855 0 0.189257)
(0.00784561 0 0.212919)
(0.00747855 0 0.231049)
(0.00678154 0 0.240534)
(0.00574518 0 0.23873)
(0.00438605 0 0.224864)
(0.00273508 0 0.201768)
(0.000814864 0 0.176905)
(-0.00137882 0 0.161086)
(-0.00386543 0 0.164022)
(-0.00661894 0 0.18831)
(-0.00949337 0 0.226119)
(-0.0121912 0 0.262269)
(-0.0143882 0 0.282536)
(-0.0159142 0 0.280739)
(-0.0164075 0 0.259179)
(-0.0160339 0 0.232254)
(-0.0152467 0 0.21074)
(-0.0143683 0 0.198545)
(-0.0135748 0 0.195051)
(-0.0128917 0 0.198165)
(-0.0122833 0 0.206114)
(-0.0116961 0 0.217665)
(-0.01107 0 0.231518)
(-0.0103198 0 0.245952)
(-0.00933096 0 0.259232)
(-0.00796916 0 0.270277)
(-0.00609664 0 0.278947)
(-0.00358049 0 0.285804)
(-0.000298942 0 0.291733)
(0.0038714 0 0.297725)
(0.00904033 0 0.304815)
(0.0153288 0 0.313963)
(0.022844 0 0.325789)
(0.00479772 0 -0.00234061)
(0.0048063 0 -0.00433827)
(0.00490436 0 -0.00519589)
(0.00501578 0 -0.00503029)
(0.00517226 0 -0.00363633)
(0.00538192 0 -0.000750802)
(0.00564885 0 0.00391644)
(0.00597696 0 0.0106733)
(0.00636815 0 0.0198343)
(0.00682136 0 0.0316992)
(0.00733101 0 0.0465166)
(0.00788506 0 0.0644328)
(0.0084627 0 0.0854267)
(0.00903226 0 0.109231)
(0.00954985 0 0.135239)
(0.00995974 0 0.162403)
(0.0101974 0 0.189126)
(0.0101957 0 0.213181)
(0.00989364 0 0.231736)
(0.0092467 0 0.241642)
(0.00823483 0 0.240223)
(0.00686436 0 0.22668)
(0.00516025 0 0.203845)
(0.00314858 0 0.179197)
(0.000841463 0 0.163567)
(-0.0017526 0 0.166651)
(-0.00457714 0 0.190975)
(-0.00746589 0 0.228612)
(-0.0101181 0 0.264334)
(-0.0122225 0 0.28397)
(-0.0136152 0 0.281415)
(-0.0139493 0 0.259167)
(-0.0134129 0 0.231814)
(-0.0124572 0 0.210125)
(-0.0114021 0 0.197924)
(-0.0104219 0 0.194491)
(-0.00954082 0 0.197664)
(-0.00872172 0 0.20564)
(-0.00791036 0 0.21718)
(-0.00704701 0 0.230973)
(-0.00604865 0 0.245283)
(-0.00480339 0 0.258356)
(-0.00317865 0 0.269104)
(-0.00103736 0 0.277387)
(0.00175235 0 0.283772)
(0.00530991 0 0.289148)
(0.00975544 0 0.29451)
(0.0151935 0 0.300897)
(0.0217371 0 0.309267)
(0.0294896 0 0.320236)
(0.0066631 0 -0.00241427)
(0.00666904 0 -0.00451039)
(0.00676665 0 -0.00546652)
(0.00687749 0 -0.00540949)
(0.00703448 0 -0.00413204)
(0.00724675 0 -0.00136712)
(0.00751923 0 0.00317969)
(0.00785667 0 0.0098209)
(0.00826189 0 0.0188766)
(0.00873475 0 0.0306539)
(0.00927059 0 0.0454105)
(0.0098582 0 0.0633047)
(0.0104775 0 0.0843286)
(0.011097 0 0.108228)
(0.0116727 0 0.134409)
(0.0121477 0 0.161829)
(0.012455 0 0.188888)
(0.0125233 0 0.213346)
(0.012285 0 0.232344)
(0.0116867 0 0.242702)
(0.0106976 0 0.241708)
(0.00931379 0 0.228536)
(0.00755458 0 0.206005)
(0.00545015 0 0.1816)
(0.00302966 0 0.166162)
(0.000329622 0 0.169367)
(-0.00256349 0 0.193678)
(-0.00546449 0 0.23109)
(-0.00807116 0 0.266341)
(-0.0100863 0 0.285318)
(-0.0113531 0 0.281991)
(-0.0115387 0 0.259051)
(-0.0108514 0 0.231267)
(-0.00973921 0 0.209399)
(-0.00852022 0 0.197187)
(-0.0073669 0 0.193808)
(-0.00630307 0 0.197032)
(-0.00529042 0 0.205027)
(-0.00427428 0 0.216548)
(-0.00319583 0 0.230274)
(-0.00197473 0 0.244454)
(-0.000502205 0 0.257317)
(0.00135241 0 0.267765)
(0.00372509 0 0.27566)
(0.00674603 0 0.281572)
(0.0105326 0 0.286395)
(0.0152018 0 0.291132)
(0.0208527 0 0.296823)
(0.0275901 0 0.304429)
(0.0355152 0 0.31456)
(0.00853591 0 -0.00248487)
(0.00853848 0 -0.00467789)
(0.00863507 0 -0.00573304)
(0.00874435 0 -0.00578696)
(0.00890059 0 -0.00463022)
(0.00911399 0 -0.00199183)
(0.00939027 0 0.00242703)
(0.00973506 0 0.00894368)
(0.0101521 0 0.017884)
(0.0106423 0 0.0295624)
(0.0112019 0 0.0442465)
(0.0118205 0 0.0621064)
(0.0124788 0 0.0831485)
(0.0131459 0 0.107133)
(0.0137773 0 0.133478)
(0.0143152 0 0.161149)
(0.0146901 0 0.188545)
(0.0148264 0 0.213414)
(0.0146499 0 0.232875)
(0.0140984 0 0.243716)
(0.0131301 0 0.243188)
(0.0117311 0 0.230433)
(0.0099153 0 0.208249)
(0.00771748 0 0.184116)
(0.00518436 0 0.16887)
(0.00238029 0 0.172168)
(-0.000579043 0 0.19642)
(-0.00349086 0 0.233555)
(-0.00605316 0 0.268291)
(-0.00798336 0 0.286585)
(-0.0091322 0 0.282476)
(-0.00918041 0 0.258839)
(-0.00835396 0 0.230621)
(-0.00709765 0 0.20857)
(-0.00572746 0 0.196341)
(-0.00441487 0 0.193011)
(-0.00318352 0 0.196279)
(-0.00199442 0 0.204287)
(-0.000792747 0 0.215782)
(0.000478937 0 0.229437)
(0.00189777 0 0.243484)
(0.00356911 0 0.256135)
(0.00562162 0 0.266284)
(0.0081898 0 0.273791)
(0.0114016 0 0.279233)
(0.0153724 0 0.283509)
(0.0202162 0 0.287627)
(0.0260269 0 0.292633)
(0.0329012 0 0.299489)
(0.0409371 0 0.308805)
(0.01042 0 -0.00255158)
(0.0104185 0 -0.004839)
(0.0105135 0 -0.00599294)
(0.0106203 0 -0.00615951)
(0.0107745 0 -0.00512708)
(0.0109875 0 -0.00262064)
(0.0112657 0 0.00166317)
(0.0116157 0 0.00804667)
(0.0120423 0 0.0168617)
(0.0125471 0 0.0284303)
(0.0131275 0 0.04303)
(0.0137742 0 0.0608434)
(0.0144685 0 0.0818915)
(0.0151799 0 0.10595)
(0.015864 0 0.13245)
(0.0164619 0 0.160367)
(0.0169016 0 0.188101)
(0.0171032 0 0.21339)
(0.0169861 0 0.233333)
(0.0164788 0 0.244687)
(0.0155293 0 0.244665)
(0.0141133 0 0.232373)
(0.01224 0 0.210579)
(0.00994878 0 0.186743)
(0.00730428 0 0.171689)
(0.0043984 0 0.175053)
(0.0013748 0 0.199198)
(-0.00154744 0 0.236005)
(-0.00406754 0 0.270188)
(-0.00591797 0 0.287776)
(-0.00695734 0 0.282874)
(-0.00687928 0 0.258538)
(-0.00592545 0 0.229885)
(-0.00453701 0 0.207647)
(-0.00302827 0 0.195397)
(-0.00157007 0 0.19211)
(-0.000186336 0 0.195418)
(0.00116226 0 0.203433)
(0.00253049 0 0.214898)
(0.00397397 0 0.228478)
(0.00556613 0 0.242391)
(0.00740869 0 0.254832)
(0.00962826 0 0.264683)
(0.0123576 0 0.271806)
(0.015722 0 0.276782)
(0.0198346 0 0.280518)
(0.0248069 0 0.284028)
(0.0307272 0 0.288361)
(0.0376849 0 0.294485)
(0.0457726 0 0.303009)
(0.0123191 0 -0.0026136)
(0.0123129 0 -0.00499205)
(0.0124059 0 -0.00624381)
(0.0125092 0 -0.00652403)
(0.0126601 0 -0.00561884)
(0.0128711 0 -0.00324915)
(0.0131494 0 0.000893085)
(0.0135024 0 0.00713536)
(0.0139358 0 0.0158156)
(0.0144524 0 0.0272636)
(0.0150505 0 0.0417673)
(0.0157217 0 0.0595221)
(0.0164482 0 0.0805639)
(0.0172003 0 0.104685)
(0.0179333 0 0.131331)
(0.0185873 0 0.159488)
(0.0190882 0 0.18756)
(0.0193517 0 0.213278)
(0.0192909 0 0.233721)
(0.0188252 0 0.245617)
(0.017892 0 0.246142)
(0.0164577 0 0.234358)
(0.0145262 0 0.212994)
(0.0121424 0 0.18948)
(0.00938816 0 0.174618)
(0.00638255 0 0.178019)
(0.00329599 0 0.202011)
(0.00036268 0 0.238441)
(-0.00211845 0 0.272035)
(-0.00389507 0 0.288896)
(-0.00483374 0 0.283194)
(-0.00464029 0 0.258157)
(-0.00357037 0 0.229066)
(-0.0020615 0 0.206638)
(-0.000426564 0 0.194362)
(0.00116383 0 0.191115)
(0.00268514 0 0.194457)
(0.00417661 0 0.202475)
(0.00569279 0 0.213907)
(0.00728717 0 0.227412)
(0.00902903 0 0.241192)
(0.0110162 0 0.253425)
(0.0133732 0 0.262984)
(0.016231 0 0.269728)
(0.019712 0 0.274245)
(0.0239268 0 0.277451)
(0.0289836 0 0.280365)
(0.0349664 0 0.284043)
(0.0419568 0 0.289455)
(0.0500408 0 0.297212)
(0.0142364 0 -0.00267025)
(0.0142248 0 -0.00513551)
(0.0143153 0 -0.0064834)
(0.0144143 0 -0.00687752)
(0.0145608 0 -0.00610178)
(0.0147683 0 -0.00387293)
(0.0150448 0 0.000121899)
(0.0153985 0 0.00621549)
(0.0158361 0 0.014752)
(0.0163613 0 0.0260694)
(0.0169734 0 0.0404657)
(0.0176652 0 0.0581498)
(0.0184198 0 0.0791732)
(0.019208 0 0.103345)
(0.0199852 0 0.130128)
(0.0206909 0 0.15852)
(0.0212485 0 0.186929)
(0.0215698 0 0.213083)
(0.0215614 0 0.234044)
(0.0211341 0 0.24651)
(0.0202151 0 0.24762)
(0.0187611 0 0.236389)
(0.0167717 0 0.215495)
(0.0142964 0 0.192326)
(0.0114345 0 0.177655)
(0.00833088 0 0.181065)
(0.00518184 0 0.20486)
(0.00223576 0 0.240868)
(-0.000210706 0 0.273837)
(-0.00192008 0 0.289951)
(-0.00276686 0 0.283441)
(-0.00246843 0 0.257702)
(-0.00129311 0 0.228172)
(0.000325011 0 0.205551)
(0.00207428 0 0.193245)
(0.00378389 0 0.190034)
(0.00542826 0 0.193408)
(0.00704649 0 0.201427)
(0.00869254 0 0.212823)
(0.0104176 0 0.226252)
(0.0122865 0 0.239902)
(0.0143928 0 0.251933)
(0.016859 0 0.261207)
(0.0198141 0 0.26758)
(0.0233778 0 0.271647)
(0.0276577 0 0.274334)
(0.0327583 0 0.276668)
(0.0387593 0 0.27971)
(0.0457345 0 0.284435)
(0.053763 0 0.291453)
(0.016174 0 -0.00272099)
(0.0161567 0 -0.0052681)
(0.0162443 0 -0.00670972)
(0.0163383 0 -0.00721729)
(0.0164794 0 -0.00657241)
(0.016682 0 -0.00448767)
(0.0169548 0 -0.000645281)
(0.0173069 0 0.00529298)
(0.0177458 0 0.0136777)
(0.0182763 0 0.0248548)
(0.0188987 0 0.0391331)
(0.0196067 0 0.0567349)
(0.0203845 0 0.077728)
(0.0212035 0 0.101939)
(0.0220197 0 0.128849)
(0.0227714 0 0.157469)
(0.0233804 0 0.186215)
(0.0237545 0 0.212811)
(0.0237941 0 0.234306)
(0.0234017 0 0.247371)
(0.0224945 0 0.249103)
(0.0210201 0 0.238465)
(0.0189734 0 0.218079)
(0.0164087 0 0.195279)
(0.0134412 0 0.180797)
(0.010241 0 0.184191)
(0.00702911 0 0.207745)
(0.00406742 0 0.243286)
(0.00165041 0 0.275598)
(1.29154e-06 0 0.290948)
(-0.000762282 0 0.283623)
(-0.000368644 0 0.25718)
(0.000902184 0 0.22721)
(0.00261908 0 0.204393)
(0.00447131 0 0.192054)
(0.00628763 0 0.188876)
(0.00804117 0 0.19228)
(0.00977059 0 0.200298)
(0.0115291 0 0.211659)
(0.0133654 0 0.225014)
(0.0153396 0 0.238538)
(0.017541 0 0.250374)
(0.0200893 0 0.259371)
(0.0231123 0 0.265382)
(0.0267269 0 0.269012)
(0.0310377 0 0.271194)
(0.0361444 0 0.272964)
(0.0421227 0 0.275391)
(0.0490378 0 0.279455)
(0.0569632 0 0.285767)
(0.018133 0 -0.00276565)
(0.0181098 0 -0.00538908)
(0.0181942 0 -0.00692131)
(0.0182826 0 -0.00754103)
(0.0184173 0 -0.0070276)
(0.0186138 0 -0.00508935)
(0.0188812 0 -0.00140349)
(0.0192295 0 0.00437377)
(0.019667 0 0.0125995)
(0.0201993 0 0.0236277)
(0.0208278 0 0.0377782)
(0.0215473 0 0.0552868)
(0.0223429 0 0.076238)
(0.0231869 0 0.100478)
(0.0240356 0 0.127504)
(0.024827 0 0.156345)
(0.0254811 0 0.185426)
(0.0259021 0 0.21247)
(0.0259846 0 0.234513)
(0.0256233 0 0.248202)
(0.0247256 0 0.250591)
(0.0232304 0 0.240587)
(0.0211279 0 0.220746)
(0.0184761 0 0.198337)
(0.0154056 0 0.184043)
(0.0121101 0 0.187395)
(0.00883402 0 0.210669)
(0.00585291 0 0.245701)
(0.00345932 0 0.277323)
(0.00186322 0 0.291892)
(0.00117455 0 0.283746)
(0.00165438 0 0.256598)
(0.00301163 0 0.226186)
(0.00481758 0 0.203171)
(0.00676203 0 0.190798)
(0.00867315 0 0.187652)
(0.0105226 0 0.191084)
(0.0123484 0 0.1991)
(0.0142028 0 0.210427)
(0.0161317 0 0.223711)
(0.0181907 0 0.237115)
(0.0204643 0 0.248764)
(0.0230694 0 0.257494)
(0.0261323 0 0.263156)
(0.0297682 0 0.266361)
(0.034078 0 0.268052)
(0.0391564 0 0.269278)
(0.0450749 0 0.271112)
(0.0518889 0 0.274545)
(0.0596675 0 0.280189)
(0.0201128 0 -0.00280357)
(0.0200835 0 -0.00549741)
(0.0201646 0 -0.00711693)
(0.0202471 0 -0.00784706)
(0.0203748 0 -0.00746485)
(0.0205641 0 -0.00567447)
(0.0208247 0 -0.00214812)