/*--------------------------------*- C++ -*----------------------------------*\
  =========                 |
  \\      /  F ield         | OpenFOAM: The Open Source CFD Toolbox
   \\    /   O peration     | Website:  https://openfoam.org
    \\  /    A nd           | Version:  9
     \\/     M anipulation  |
\*---------------------------------------------------------------------------*/
FoamFile
{
    format      ascii;
    class       surfaceVectorField;
    location    "0.15";
    object      Uf;
}
// * * * * * * * * * * * * * * * * * * * * * * * * * * * * * * * * * * * * * //

dimensions      [0 1 -1 0 0 0 0];

internalField   nonuniform List<vector> 
9850
(
(-0.0247142 0 -0.00170726)
(-0.0238555 0 -0.0013482)
(-0.0246902 0 -0.00198019)
(-0.0238643 0 -0.00214273)
(-0.0246543 0 -0.00123039)
(-0.0238104 0 -0.00190775)
(-0.0246075 0 0.000622475)
(-0.0237659 0 -0.000650041)
(-0.0245518 0 0.00377094)
(-0.0237106 0 0.00180198)
(-0.0244905 0 0.00844342)
(-0.0236457 0 0.00566509)
(-0.0244281 0 0.0148883)
(-0.0235757 0 0.0111821)
(-0.0243711 0 0.0233575)
(-0.0235057 0 0.0186094)
(-0.0243278 0 0.0340822)
(-0.0234429 0 0.0281972)
(-0.0243099 0 0.0472374)
(-0.023397 0 0.04016)
(-0.0243329 0 0.0628981)
(-0.0233811 0 0.0546361)
(-0.0244174 0 0.0809895)
(-0.0234134 0 0.0716396)
(-0.0245899 0 0.101236)
(-0.0235173 0 0.0910084)
(-0.0248821 0 0.123109)
(-0.0237224 0 0.112352)
(-0.0253291 0 0.145783)
(-0.0240635 0 0.135001)
(-0.0259644 0 0.168079)
(-0.0245771 0 0.157957)
(-0.0268122 0 0.188422)
(-0.0252954 0 0.17984)
(-0.0278754 0 0.204809)
(-0.0262359 0 0.19884)
(-0.0291241 0 0.214897)
(-0.027389 0 0.212715)
(-0.0304882 0 0.216354)
(-0.0287062 0 0.218969)
(-0.0318656 0 0.207675)
(-0.0300977 0 0.215404)
(-0.0331527 0 0.189485)
(-0.0314499 0 0.201239)
(-0.0342999 0 0.165842)
(-0.0326703 0 0.178619)
(-0.0353723 0 0.144482)
(-0.0337534 0 0.153715)
(-0.0365732 0 0.134806)
(-0.0348357 0 0.13604)
(-0.0381878 0 0.143539)
(-0.0361875 0 0.13497)
(-0.0404463 0 0.170181)
(-0.0381047 0 0.15443)
(-0.0433763 0 0.205776)
(-0.040738 0 0.189127)
(-0.0467588 0 0.236958)
(-0.0439685 0 0.22605)
(-0.0502312 0 0.252867)
(-0.0474611 0 0.251309)
(-0.0539692 0 0.250063)
(-0.0511018 0 0.257715)
(-0.0570538 0 0.232937)
(-0.054397 0 0.244645)
(-0.059723 0 0.212352)
(-0.0570682 0 0.223099)
(-0.062339 0 0.195858)
(-0.0595052 0 0.20331)
(-0.0652055 0 0.186328)
(-0.0620613 0 0.190163)
(-0.0684956 0 0.183662)
(-0.0649812 0 0.184457)
(-0.0722789 0 0.186676)
(-0.0683618 0 0.185119)
(-0.0765782 0 0.194174)
(-0.0722332 0 0.190805)
(-0.0813991 0 0.205083)
(-0.0766019 0 0.200447)
(-0.0867247 0 0.21816)
(-0.0814623 0 0.212954)
(-0.0925089 0 0.231946)
(-0.0867783 0 0.226906)
(-0.0986883 0 0.245175)
(-0.0924852 0 0.240789)
(-0.105208 0 0.257227)
(-0.0985129 0 0.253579)
(-0.112036 0 0.268241)
(-0.10481 0 0.265073)
(-0.119167 0 0.278888)
(-0.111348 0 0.275763)
(-0.126611 0 0.290116)
(-0.118121 0 0.286518)
(-0.134389 0 0.303019)
(-0.125127 0 0.29837)
(-0.142515 0 0.318802)
(-0.132359 0 0.312474)
(-0.15099 0 0.338642)
(-0.139834 0 0.330074)
(-0.147462 0 0.352286)
(-0.0229922 0 -0.0017645)
(-0.0221146 0 -0.00138704)
(-0.0229654 0 -0.00207557)
(-0.0221218 0 -0.00222621)
(-0.0229249 0 -0.00135701)
(-0.0220636 0 -0.00202779)
(-0.0228714 0 0.000471399)
(-0.0220134 0 -0.000801218)
(-0.0228065 0 0.00360441)
(-0.0219501 0 0.00162733)
(-0.0227333 0 0.00827259)
(-0.0218746 0 0.00547689)
(-0.0226558 0 0.0147264)
(-0.0217909 0 0.0109924)
(-0.0225801 0 0.0232207)
(-0.0217038 0 0.0184326)
(-0.0225145 0 0.0339898)
(-0.0216202 0 0.0280509)
(-0.0224701 0 0.0472134)
(-0.0215494 0 0.0400657)
(-0.0224625 0 0.0629719)
(-0.0215045 0 0.0546207)
(-0.0225124 0 0.0811962)
(-0.0215035 0 0.0717358)
(-0.0226464 0 0.101615)
(-0.02157 0 0.0912549)
(-0.0228971 0 0.123703)
(-0.0217341 0 0.112791)
(-0.0233004 0 0.146626)
(-0.0220314 0 0.135675)
(-0.0238915 0 0.169194)
(-0.0224996 0 0.158898)
(-0.0246964 0 0.189804)
(-0.0231728 0 0.181062)
(-0.0257206 0 0.206414)
(-0.0240706 0 0.200323)
(-0.0269369 0 0.216637)
(-0.0251863 0 0.214394)
(-0.0282785 0 0.218104)
(-0.0264746 0 0.220734)
(-0.0296459 0 0.209306)
(-0.0278489 0 0.21712)
(-0.0309375 0 0.190913)
(-0.0291983 0 0.202784)
(-0.0321028 0 0.167086)
(-0.0304311 0 0.179947)
(-0.033203 0 0.145694)
(-0.0315398 0 0.154911)
(-0.0344343 0 0.136228)
(-0.0326553 0 0.137316)
(-0.0360727 0 0.145395)
(-0.0340393 0 0.136588)
(-0.0383372 0 0.172547)
(-0.0359765 0 0.156562)
(-0.0412451 0 0.208519)
(-0.0386059 0 0.191737)
(-0.0445695 0 0.239797)
(-0.0417975 0 0.228895)
(-0.0479449 0 0.255512)
(-0.0452113 0 0.254063)
(-0.0515244 0 0.252295)
(-0.0487231 0 0.260102)
(-0.054419 0 0.234804)
(-0.051839 0 0.246575)
(-0.0568759 0 0.214052)
(-0.0543057 0 0.224737)
(-0.0592596 0 0.197609)
(-0.056519 0 0.204899)
(-0.0618706 0 0.188288)
(-0.0588304 0 0.191903)
(-0.0648763 0 0.185911)
(-0.0614787 0 0.186461)
(-0.0683395 0 0.189248)
(-0.0645546 0 0.187428)
(-0.0722766 0 0.197079)
(-0.068082 0 0.19343)
(-0.0766857 0 0.208319)
(-0.0720616 0 0.203386)
(-0.0815418 0 0.221701)
(-0.0764809 0 0.216192)
(-0.0867891 0 0.235748)
(-0.0812955 0 0.230404)
(-0.092354 0 0.249192)
(-0.0864307 0 0.244499)
(-0.0981684 0 0.261424)
(-0.0918045 0 0.257455)
(-0.104185 0 0.272598)
(-0.0973506 0 0.269084)
(-0.110375 0 0.283401)
(-0.103024 0 0.27989)
(-0.116719 0 0.294786)
(-0.108792 0 0.290748)
(-0.123205 0 0.30785)
(-0.114627 0 0.302694)
(-0.129812 0 0.323785)
(-0.120483 0 0.316879)
(-0.136466 0 0.343758)
(-0.126324 0 0.33451)
(-0.132054 0 0.356699)
(-0.0212304 0 -0.00182855)
(-0.0203371 0 -0.00143014)
(-0.0212005 0 -0.00218286)
(-0.0203424 0 -0.00231903)
(-0.0211552 0 -0.00150081)
(-0.0202799 0 -0.00216206)
(-0.0210948 0 0.000297375)
(-0.020224 0 -0.000971997)
(-0.0210205 0 0.00340873)
(-0.0201525 0 0.00142722)
(-0.0209349 0 0.00806607)
(-0.020066 0 0.00525698)
(-0.0208419 0 0.0145222)
(-0.0199682 0 0.0107645)
(-0.020747 0 0.0230346)
(-0.0198635 0 0.018211)
(-0.0206581 0 0.0338415)
(-0.0197585 0 0.0278531)
(-0.0205864 0 0.0471272)
(-0.0196621 0 0.0399135)
(-0.0205472 0 0.0629779)
(-0.0195872 0 0.0545413)
(-0.0205612 0 0.0813305)
(-0.0195517 0 0.0717629)
(-0.0206554 0 0.101919)
(-0.0195794 0 0.0914282)
(-0.0208628 0 0.124219)
(-0.0197009 0 0.113155)
(-0.0212206 0 0.147394)
(-0.0199523 0 0.136273)
(-0.0217654 0 0.170238)
(-0.020373 0 0.159766)
(-0.0225253 0 0.191122)
(-0.0209985 0 0.182216)
(-0.0235082 0 0.207967)
(-0.0218512 0 0.201746)
(-0.0246902 0 0.218339)
(-0.0229271 0 0.216026)
(-0.0260078 0 0.219834)
(-0.0241843 0 0.222468)
(-0.0273648 0 0.210936)
(-0.0255401 0 0.218822)
(-0.0286612 0 0.192359)
(-0.0268865 0 0.204334)
(-0.0298465 0 0.168363)
(-0.0281332 0 0.181299)
(-0.0309778 0 0.146945)
(-0.0292708 0 0.156141)
(-0.0322442 0 0.137686)
(-0.0304247 0 0.138628)
(-0.0339113 0 0.147272)
(-0.0318473 0 0.138235)
(-0.0361862 0 0.174909)
(-0.0338111 0 0.158705)
(-0.0390743 0 0.211226)
(-0.0364413 0 0.19433)
(-0.0423401 0 0.242565)
(-0.0395956 0 0.23169)
(-0.045616 0 0.258056)
(-0.0429289 0 0.256736)
(-0.0490328 0 0.254397)
(-0.0463069 0 0.262379)
(-0.0517334 0 0.236524)
(-0.0492374 0 0.248375)
(-0.0539742 0 0.215595)
(-0.0514939 0 0.226231)
(-0.0561212 0 0.199196)
(-0.0534785 0 0.20633)
(-0.0584712 0 0.190071)
(-0.0555405 0 0.19347)
(-0.0611853 0 0.187966)
(-0.057913 0 0.18827)
(-0.0643204 0 0.191598)
(-0.0606796 0 0.189518)
(-0.0678875 0 0.199728)
(-0.0638585 0 0.195808)
(-0.0718785 0 0.211256)
(-0.0674446 0 0.206047)
(-0.076261 0 0.224898)
(-0.0714195 0 0.219113)
(-0.0809705 0 0.23916)
(-0.0757311 0 0.233544)
(-0.0859226 0 0.252767)
(-0.0802957 0 0.2478)
(-0.0910364 0 0.265117)
(-0.0850202 0 0.260865)
(-0.0962481 0 0.276375)
(-0.0898242 0 0.272559)
(-0.101509 0 0.287237)
(-0.0946454 0 0.283398)
(-0.106775 0 0.29866)
(-0.0994306 0 0.294258)
(-0.112 0 0.311736)
(-0.104127 0 0.306178)
(-0.11713 0 0.327635)
(-0.108661 0 0.320299)
(-0.122056 0 0.347508)
(-0.112935 0 0.337793)
(-0.116865 0 0.359725)
(-0.0194349 0 -0.00189932)
(-0.0185289 0 -0.00147751)
(-0.019402 0 -0.00230187)
(-0.0185322 0 -0.00242124)
(-0.0193519 0 -0.00166151)
(-0.0184655 0 -0.00231071)
(-0.0192844 0 0.000100752)
(-0.0184036 0 -0.00116266)
(-0.0192005 0 0.00318427)
(-0.0183239 0 0.0012012)
(-0.0191023 0 0.00782424)
(-0.0182262 0 0.00500473)
(-0.0189933 0 0.0142759)
(-0.0181141 0 0.0104976)
(-0.0188787 0 0.0227996)
(-0.0179915 0 0.0179434)
(-0.0187661 0 0.0336375)
(-0.0178644 0 0.0276023)
(-0.0186662 0 0.0469787)
(-0.0177417 0 0.0397015)
(-0.0185943 0 0.0629156)
(-0.017636 0 0.0543958)
(-0.0185711 0 0.0813915)
(-0.0175649 0 0.0717181)
(-0.0186237 0 0.102146)
(-0.0175524 0 0.0915252)
(-0.0187859 0 0.124657)
(-0.0176294 0 0.113439)
(-0.0190959 0 0.148084)
(-0.017833 0 0.136791)
(-0.0195918 0 0.171208)
(-0.0182037 0 0.160556)
(-0.0203038 0 0.192374)
(-0.018779 0 0.183298)
(-0.0212426 0 0.209463)
(-0.0195837 0 0.203105)
(-0.0223877 0 0.22)
(-0.0206169 0 0.217606)
(-0.0236793 0 0.221542)
(-0.0218408 0 0.224168)
(-0.0250249 0 0.212564)
(-0.0231765 0 0.22051)
(-0.026327 0 0.193822)
(-0.0245198 0 0.205892)
(-0.0275351 0 0.169674)
(-0.0257822 0 0.182676)
(-0.0287028 0 0.148238)
(-0.0269528 0 0.15741)
(-0.0300113 0 0.139183)
(-0.0281515 0 0.139984)
(-0.0317152 0 0.149175)
(-0.0296206 0 0.139918)
(-0.0340076 0 0.177272)
(-0.0316186 0 0.160863)
(-0.0368801 0 0.2139)
(-0.0342551 0 0.196908)
(-0.0400879 0 0.245264)
(-0.0373743 0 0.234435)
(-0.0432609 0 0.260496)
(-0.0406257 0 0.259324)
(-0.0465074 0 0.256365)
(-0.043865 0 0.264544)
(-0.0490056 0 0.238091)
(-0.046603 0 0.250041)
(-0.0510226 0 0.216973)
(-0.0486425 0 0.227576)
(-0.0529273 0 0.200608)
(-0.0503927 0 0.2076)
(-0.0550128 0 0.191669)
(-0.0522013 0 0.19486)
(-0.0574341 0 0.189819)
(-0.0542955 0 0.189884)
(-0.060241 0 0.193723)
(-0.0567521 0 0.191389)
(-0.0634376 0 0.202122)
(-0.0595828 0 0.197939)
(-0.0670093 0 0.2139)
(-0.0627764 0 0.208428)
(-0.0709168 0 0.227758)
(-0.066308 0 0.221718)
(-0.0750882 0 0.242186)
(-0.0701188 0 0.236325)
(-0.0794311 0 0.255902)
(-0.0741174 0 0.250696)
(-0.083853 0 0.26831)
(-0.0782011 0 0.263813)
(-0.088275 0 0.279584)
(-0.0822777 0 0.275507)
(-0.0926298 0 0.290423)
(-0.0862698 0 0.286301)
(-0.096852 0 0.301783)
(-0.0901045 0 0.297073)
(-0.100869 0 0.314751)
(-0.0937077 0 0.308856)
(-0.104593 0 0.330473)
(-0.096987 0 0.322782)
(-0.107891 0 0.350045)
(-0.0997975 0 0.339992)
(-0.102039 0 0.361473)
(-0.0176116 0 -0.00197685)
(-0.0166959 0 -0.00152913)
(-0.0175757 0 -0.00243269)
(-0.016697 0 -0.00253291)
(-0.0175207 0 -0.00183925)
(-0.0166262 0 -0.00247387)
(-0.0174461 0 -0.000118663)
(-0.0165584 0 -0.00137343)
(-0.0173525 0 0.0029308)
(-0.0164703 0 0.000948901)
(-0.0172415 0 0.00754681)
(-0.0163614 0 0.00471958)
(-0.0171162 0 0.0139872)
(-0.0162347 0 0.0101907)
(-0.0169815 0 0.0225153)
(-0.0160938 0 0.0176288)
(-0.0168445 0 0.0333772)
(-0.0159443 0 0.0272973)
(-0.0167157 0 0.0467674)
(-0.0157947 0 0.0394282)
(-0.01661 0 0.0627843)
(-0.0156572 0 0.0541821)
(-0.0165483 0 0.0813783)
(-0.0155495 0 0.0715992)
(-0.016558 0 0.102295)
(-0.0154955 0 0.091543)
(-0.0166732 0 0.125015)
(-0.0155264 0 0.113641)
(-0.0169332 0 0.148695)
(-0.0156802 0 0.137225)
(-0.0173777 0 0.172102)
(-0.0159987 0 0.161265)
(-0.0180392 0 0.193556)
(-0.0165212 0 0.184302)
(-0.0189313 0 0.210901)
(-0.0172751 0 0.204397)
(-0.020037 0 0.221617)
(-0.0182631 0 0.219132)
(-0.0213007 0 0.223223)
(-0.0194512 0 0.225831)
(-0.0226341 0 0.214187)
(-0.0207655 0 0.222183)
(-0.0239428 0 0.195301)
(-0.0221056 0 0.207457)
(-0.0251766 0 0.171016)
(-0.0233856 0 0.184083)
(-0.0263858 0 0.149573)
(-0.0245935 0 0.158724)
(-0.0277435 0 0.140721)
(-0.0258435 0 0.141391)
(-0.0294916 0 0.151106)
(-0.0273668 0 0.141645)
(-0.0318077 0 0.179638)
(-0.0294062 0 0.163044)
(-0.0346684 0 0.216545)
(-0.032054 0 0.199476)
(-0.0378183 0 0.247899)
(-0.0351397 0 0.23713)
(-0.0408858 0 0.262844)
(-0.0383078 0 0.261827)
(-0.0439571 0 0.258216)
(-0.0414046 0 0.266591)
(-0.0462476 0 0.239523)
(-0.0439452 0 0.251568)
(-0.0480362 0 0.2182)
(-0.0457638 0 0.228768)
(-0.0496946 0 0.201851)
(-0.0472765 0 0.208706)
(-0.0515125 0 0.193077)
(-0.0488291 0 0.196072)
(-0.0536389 0 0.191457)
(-0.0506434 0 0.191302)
(-0.0561171 0 0.195608)
(-0.0527896 0 0.193041)
(-0.0589445 0 0.204248)
(-0.0552731 0 0.199824)
(-0.0620999 0 0.216248)
(-0.0580771 0 0.210531)
(-0.0655372 0 0.230286)
(-0.0611706 0 0.22401)
(-0.0691779 0 0.244836)
(-0.0644884 0 0.238752)
(-0.0729215 0 0.258609)
(-0.0679319 0 0.253192)
(-0.0766663 0 0.271015)
(-0.0713899 0 0.266309)
(-0.0803204 0 0.282233)
(-0.0747603 0 0.277943)
(-0.0838007 0 0.292965)
(-0.0779528 0 0.288621)
(-0.0870234 0 0.304165)
(-0.0808786 0 0.299222)
(-0.0898942 0 0.316911)
(-0.0834441 0 0.31077)
(-0.0922987 0 0.332329)
(-0.0855433 0 0.324385)
(-0.0940827 0 0.351457)
(-0.0870041 0 0.341181)
(-0.0877005 0 0.362067)
(-0.0157665 0 -0.00206118)
(-0.0148438 0 -0.00158496)
(-0.0157275 0 -0.00257547)
(-0.0148428 0 -0.00265398)
(-0.0156676 0 -0.0020343)
(-0.0147679 0 -0.00265152)
(-0.0155859 0 -0.00036132)
(-0.0146943 0 -0.00160438)
(-0.0154824 0 0.00264763)
(-0.0145978 0 0.000670156)
(-0.0153585 0 0.00723281)
(-0.0144776 0 0.00440121)
(-0.0152167 0 0.0136547)
(-0.0143362 0 0.00984352)
(-0.0150616 0 0.0221799)
(-0.0141768 0 0.0172664)
(-0.0148997 0 0.0330585)
(-0.0140046 0 0.026937)
(-0.0147413 0 0.0464904)
(-0.0138276 0 0.0390921)
(-0.0146012 0 0.0625809)
(-0.0136577 0 0.0538986)
(-0.0144999 0 0.0812873)
(-0.0135123 0 0.0714039)
(-0.0144651 0 0.102362)
(-0.0134155 0 0.0914791)
(-0.0145315 0 0.125288)
(-0.0133989 0 0.113758)
(-0.0147394 0 0.149221)
(-0.013501 0 0.137573)
(-0.0151302 0 0.172914)
(-0.0137649 0 0.161887)
(-0.0157385 0 0.194663)
(-0.014232 0 0.185226)
(-0.0165811 0 0.212276)
(-0.0149323 0 0.205617)
(-0.0176448 0 0.223186)
(-0.0158723 0 0.220601)
(-0.0188788 0 0.224877)
(-0.0170223 0 0.227454)
(-0.0201993 0 0.215805)
(-0.0183136 0 0.223839)
(-0.0215155 0 0.196798)
(-0.0196507 0 0.209031)
(-0.0227784 0 0.172397)
(-0.0209506 0 0.185523)
(-0.0240346 0 0.150957)
(-0.0222007 0 0.16009)
(-0.0254486 0 0.142309)
(-0.023509 0 0.142856)
(-0.0272484 0 0.153072)
(-0.0250944 0 0.143423)
(-0.0295941 0 0.182012)
(-0.0271822 0 0.165253)
(-0.0324457 0 0.219162)
(-0.0298456 0 0.202036)
(-0.0355377 0 0.250468)
(-0.0328988 0 0.239777)
(-0.0384974 0 0.265093)
(-0.035982 0 0.264242)
(-0.0413896 0 0.259941)
(-0.0389329 0 0.268519)
(-0.0434691 0 0.240811)
(-0.0412726 0 0.252954)
(-0.045027 0 0.219272)
(-0.0428679 0 0.229807)
(-0.0464376 0 0.202925)
(-0.0441416 0 0.209646)
(-0.0479871 0 0.194297)
(-0.0454379 0 0.197105)
(-0.0498183 0 0.192887)
(-0.0469728 0 0.192523)
(-0.0519685 0 0.197259)
(-0.0488101 0 0.194475)
(-0.054429 0 0.20611)
(-0.0509496 0 0.201464)
(-0.0571729 0 0.218297)
(-0.053369 0 0.212361)
(-0.0601481 0 0.23248)
(-0.0560321 0 0.225993)
(-0.0632698 0 0.247112)
(-0.0588678 0 0.240833)
(-0.0664308 0 0.260897)
(-0.0617716 0 0.255299)
(-0.0695203 0 0.273245)
(-0.0646249 0 0.268369)
(-0.0724354 0 0.284342)
(-0.0673166 0 0.279886)
(-0.0750798 0 0.294894)
(-0.0697457 0 0.290384)
(-0.0773552 0 0.305848)
(-0.0718104 0 0.300739)
(-0.0791516 0 0.318272)
(-0.0734019 0 0.311968)
(-0.0803346 0 0.333273)
(-0.0744035 0 0.325174)
(-0.0807341 0 0.351836)
(-0.0746321 0 0.341447)
(-0.0739377 0 0.361629)
(-0.0139051 0 -0.0021522)
(-0.0129781 0 -0.00164488)
(-0.0138632 0 -0.00273007)
(-0.0129749 0 -0.00278424)
(-0.0137984 0 -0.00224658)
(-0.0128961 0 -0.00284343)
(-0.0137096 0 -0.00062721)
(-0.0128167 0 -0.00185529)
(-0.0135964 0 0.00233464)
(-0.012712 0 0.000365092)
(-0.0134595 0 0.00688194)
(-0.0125806 0 0.00404962)
(-0.0133012 0 0.0132779)
(-0.0124246 0 0.00945573)
(-0.0131253 0 0.0217925)
(-0.0122466 0 0.0168558)
(-0.0129383 0 0.0326802)
(-0.0120515 0 0.0265206)
(-0.0127498 0 0.0461464)
(-0.0118466 0 0.038692)
(-0.0125743 0 0.0623033)
(-0.0116437 0 0.0535435)
(-0.0124323 0 0.081116)
(-0.0114599 0 0.0711302)
(-0.0123517 0 0.102343)
(-0.0113192 0 0.091331)
(-0.0123676 0 0.125474)
(-0.0112534 0 0.113786)
(-0.0125214 0 0.149658)
(-0.0113019 0 0.13783)
(-0.012856 0 0.173641)
(-0.011509 0 0.16242)
(-0.0134083 0 0.195692)
(-0.011918 0 0.186065)
(-0.0141986 0 0.213583)
(-0.0125619 0 0.206761)
(-0.0152178 0 0.224705)
(-0.0134509 0 0.222007)
(-0.01642 0 0.226503)
(-0.0145605 0 0.229036)
(-0.017727 0 0.217419)
(-0.0158274 0 0.225479)
(-0.0190521 0 0.198317)
(-0.0171619 0 0.210616)
(-0.0203478 0 0.173823)
(-0.0184845 0 0.187)
(-0.0216573 0 0.1524)
(-0.0197821 0 0.161513)
(-0.0231353 0 0.143956)
(-0.0211561 0 0.144388)
(-0.0249942 0 0.155082)
(-0.0228118 0 0.145259)
(-0.0273751 0 0.184398)
(-0.0249548 0 0.167495)
(-0.0302202 0 0.22175)
(-0.0276375 0 0.20459)
(-0.0332538 0 0.252966)
(-0.0306587 0 0.242373)
(-0.0361033 0 0.267238)
(-0.033655 0 0.266566)
(-0.0388129 0 0.261533)
(-0.036457 0 0.270326)
(-0.0406789 0 0.24195)
(-0.038593 0 0.254198)
(-0.0420047 0 0.220182)
(-0.0399637 0 0.23069)
(-0.0431673 0 0.203827)
(-0.0409984 0 0.210421)
(-0.0444493 0 0.195331)
(-0.0420395 0 0.19796)
(-0.0459877 0 0.194111)
(-0.0432974 0 0.193548)
(-0.0478136 0 0.198681)
(-0.0448298 0 0.195692)
(-0.0499128 0 0.207716)
(-0.046631 0 0.202864)
(-0.0522529 0 0.220059)
(-0.0486738 0 0.213921)
(-0.0547767 0 0.23435)
(-0.050917 0 0.227676)
(-0.0573943 0 0.249025)
(-0.0532847 0 0.242578)
(-0.0599926 0 0.262778)
(-0.0556674 0 0.257031)
(-0.0624533 0 0.27502)
(-0.0579405 0 0.27001)
(-0.0646642 0 0.28594)
(-0.0599856 0 0.28136)
(-0.0665179 0 0.296245)
(-0.0616927 0 0.29162)
(-0.0679048 0 0.306879)
(-0.0629497 0 0.301664)
(-0.0687039 0 0.318897)
(-0.0636368 0 0.3125)
(-0.0687694 0 0.333385)
(-0.0636291 0 0.325217)
(-0.06792 0 0.351287)
(-0.0627425 0 0.34088)
(-0.0608109 0 0.360278)
(-0.0120326 0 -0.00224968)
(-0.0111036 0 -0.00170865)
(-0.0119879 0 -0.00289618)
(-0.0110983 0 -0.00292332)
(-0.0119185 0 -0.00247574)
(-0.0110159 0 -0.00304915)
(-0.0118228 0 -0.000916029)
(-0.010931 0 -0.00212572)
(-0.0117 0 0.00199204)
(-0.0108182 0 3.4096e-05)
(-0.0115503 0 0.00649425)
(-0.0106758 0 0.00366503)
(-0.0113754 0 0.0128568)
(-0.0105053 0 0.00902741)
(-0.0111788 0 0.0213529)
(-0.0103088 0 0.0163967)
(-0.0109663 0 0.0322416)
(-0.0100906 0 0.0260476)
(-0.0107472 0 0.0457342)
(-0.00985772 0 0.0382272)
(-0.0105357 0 0.0619501)
(-0.00962137 0 0.0531157)
(-0.0103522 0 0.0808624)
(-0.00939838 0 0.0707763)
(-0.0102244 0 0.102237)
(-0.0092127 0 0.0910963)
(-0.0101882 0 0.125568)
(-0.0090964 0 0.113723)
(-0.0102858 0 0.150004)
(-0.00908949 0 0.137993)
(-0.0105617 0 0.174279)
(-0.00923751 0 0.16286)
(-0.0110554 0 0.196639)
(-0.00958589 0 0.186815)
(-0.0117904 0 0.21482)
(-0.0101705 0 0.207825)
(-0.0127624 0 0.226171)
(-0.0110058 0 0.223349)
(-0.0139311 0 0.228098)
(-0.0120725 0 0.230574)
(-0.015224 0 0.21903)
(-0.0133139 0 0.227101)
(-0.0165598 0 0.199862)
(-0.0146463 0 0.212213)
(-0.0178925 0 0.175299)
(-0.0159946 0 0.188519)
(-0.0192618 0 0.15391)
(-0.0173455 0 0.163001)
(-0.0208117 0 0.14567)
(-0.0187929 0 0.145994)
(-0.0227371 0 0.157141)
(-0.0205267 0 0.147161)
(-0.0251581 0 0.186801)
(-0.022731 0 0.169775)
(-0.0279986 0 0.224311)
(-0.0254361 0 0.20714)
(-0.0309728 0 0.255395)
(-0.0284251 0 0.244918)
(-0.0337099 0 0.269276)
(-0.0313327 0 0.2688)
(-0.0362343 0 0.262991)
(-0.0339831 0 0.272009)
(-0.0378852 0 0.242939)
(-0.0359139 0 0.255299)
(-0.038979 0 0.220931)
(-0.0370601 0 0.23142)
(-0.0398948 0 0.204556)
(-0.0378572 0 0.211032)
(-0.0409119 0 0.196179)
(-0.0386457 0 0.198638)
(-0.0421615 0 0.195131)
(-0.0396306 0 0.194381)
(-0.043669 0 0.199877)
(-0.0408639 0 0.196697)
(-0.045415 0 0.209071)
(-0.0423349 0 0.204028)
(-0.047362 0 0.22154)
(-0.0440114 0 0.215219)
(-0.0494482 0 0.235908)
(-0.0458479 0 0.229066)
(-0.0515798 0 0.25059)
(-0.0477646 0 0.243999)
(-0.0536388 0 0.26427)
(-0.0496479 0 0.258404)
(-0.055501 0 0.27636)
(-0.0513688 0 0.271251)
(-0.0570462 0 0.287053)
(-0.0528026 0 0.282391)
(-0.0581586 0 0.297055)
(-0.0538326 0 0.292362)
(-0.0587208 0 0.307305)
(-0.0543388 0 0.302039)
(-0.0586035 0 0.318847)
(-0.054194 0 0.312422)
(-0.0576562 0 0.332748)
(-0.0532685 0 0.324586)
(-0.0556932 0 0.349916)
(-0.0513815 0 0.339572)
(-0.0483603 0 0.358128)
(-0.0101538 0 -0.00235326)
(-0.00922467 0 -0.00177596)
(-0.0101064 0 -0.00307328)
(-0.00921735 0 -0.00307065)
(-0.0100326 0 -0.00272118)
(-0.00913165 0 -0.00326797)
(-0.00993031 0 -0.00122719)
(-0.00904146 0 -0.00241488)
(-0.00979812 0 0.00162034)
(-0.00892103 0 -0.000322089)
(-0.00963583 0 0.00607008)
(-0.00876793 0 0.00324811)
(-0.00944458 0 0.0123912)
(-0.00858321 0 0.00855901)
(-0.00922728 0 0.0208607)
(-0.00836845 0 0.0158893)
(-0.00898928 0 0.0317421)
(-0.0081273 0 0.0255177)
(-0.0087394 0 0.0452529)
(-0.00786631 0 0.0376969)
(-0.0084914 0 0.0615198)
(-0.00759622 0 0.052614)
(-0.00826547 0 0.0805245)
(-0.00733351 0 0.0703406)
(-0.00808949 0 0.102041)
(-0.007102 0 0.0907728)
(-0.00799962 0 0.125568)
(-0.00693393 0 0.113565)
(-0.00803898 0 0.150255)
(-0.00686993 0 0.138059)
(-0.00825383 0 0.174823)
(-0.0069568 0 0.163202)
(-0.00868615 0 0.197499)
(-0.00724199 0 0.187472)
(-0.00936313 0 0.215983)
(-0.0077646 0 0.208806)
(-0.0102854 0 0.22758)
(-0.00854336 0 0.224622)
(-0.0114188 0 0.229661)
(-0.00956508 0 0.232066)
(-0.0126975 0 0.220639)
(-0.0107798 0 0.228705)
(-0.0140459 0 0.201436)
(-0.012111 0 0.213825)
(-0.0154201 0 0.176831)
(-0.0134884 0 0.190086)
(-0.0168559 0 0.155492)
(-0.0148985 0 0.164562)
(-0.0184854 0 0.147457)
(-0.0164269 0 0.147682)
(-0.020484 0 0.159255)
(-0.0182462 0 0.149135)
(-0.0229493 0 0.189222)
(-0.020517 0 0.172096)
(-0.0257861 0 0.226845)
(-0.0232464 0 0.209687)
(-0.0286999 0 0.257752)
(-0.0262025 0 0.247412)
(-0.0313225 0 0.271209)
(-0.0290192 0 0.270939)
(-0.03366 0 0.264316)
(-0.0315164 0 0.273567)
(-0.0350961 0 0.24378)
(-0.033242 0 0.256256)
(-0.0359594 0 0.221521)
(-0.0341654 0 0.231995)
(-0.0366313 0 0.205115)
(-0.034728 0 0.21148)
(-0.0373875 0 0.196842)
(-0.0352681 0 0.199142)
(-0.0383539 0 0.19595)
(-0.0359856 0 0.195025)
(-0.0395507 0 0.200851)
(-0.0369273 0 0.197495)
(-0.0409535 0 0.210179)
(-0.0380775 0 0.204963)
(-0.0425203 0 0.222749)
(-0.0394 0 0.216263)
(-0.0441855 0 0.237163)
(-0.0408453 0 0.230177)
(-0.0458519 0 0.25182)
(-0.0423304 0 0.24511)
(-0.0473981 0 0.265393)
(-0.0437388 0 0.259435)
(-0.0486949 0 0.277292)
(-0.044938 0 0.272116)
(-0.0496161 0 0.287712)
(-0.0457989 0 0.283005)
(-0.0500399 0 0.297362)
(-0.0461989 0 0.292645)
(-0.0498431 0 0.307176)
(-0.0460132 0 0.301907)
(-0.0488918 0 0.318186)
(-0.0451098 0 0.311788)
(-0.047035 0 0.331442)
(-0.0433575 0 0.323348)
(-0.0440891 0 0.347824)
(-0.0405819 0 0.337608)
(-0.0366099 0 0.355283)
(-0.00827259 0 -0.00246241)
(-0.00734476 0 -0.00184641)
(-0.0082228 0 -0.00326063)
(-0.00733575 0 -0.00322548)
(-0.00814489 0 -0.00298205)
(-0.00724702 0 -0.00349895)
(-0.00803632 0 -0.00155978)
(-0.00715199 0 -0.00272173)
(-0.00789519 0 0.00122039)
(-0.00702433 0 -0.000702402)
(-0.00772069 0 0.00561015)
(-0.00686101 0 0.00279982)
(-0.0075134 0 0.0118819)
(-0.00666252 0 0.00805134)
(-0.00727566 0 0.0203163)
(-0.00642984 0 0.0153342)
(-0.00701225 0 0.0311816)
(-0.00616602 0 0.0249314)
(-0.00673148 0 0.0447017)
(-0.00587703 0 0.0371012)
(-0.00644666 0 0.0610112)
(-0.00557311 0 0.0520379)
(-0.00617771 0 0.0801006)
(-0.00527034 0 0.0698219)
(-0.00595252 0 0.101752)
(-0.00499232 0 0.0903588)
(-0.0058076 0 0.125471)
(-0.00477141 0 0.113311)
(-0.00578697 0 0.150406)
(-0.00464884 0 0.138024)
(-0.00593854 0 0.175271)
(-0.00467261 0 0.163444)
(-0.00630694 0 0.198268)
(-0.00489231 0 0.188031)
(-0.00692322 0 0.217067)
(-0.00535029 0 0.209698)
(-0.00779334 0 0.22893)
(-0.00607005 0 0.225823)
(-0.00888992 0 0.23119)
(-0.00704474 0 0.233509)
(-0.0101545 0 0.222247)
(-0.00823202 0 0.230291)
(-0.0115176 0 0.203043)
(-0.00956317 0 0.215456)
(-0.012938 0 0.178427)
(-0.0109732 0 0.191705)
(-0.014447 0 0.157156)
(-0.0124483 0 0.166202)
(-0.0161632 0 0.149326)
(-0.0140649 0 0.14946)
(-0.0182411 0 0.161428)
(-0.0159764 0 0.151187)
(-0.0207538 0 0.191664)
(-0.0183178 0 0.174463)
(-0.0235872 0 0.229352)
(-0.0210726 0 0.21223)
(-0.0264388 0 0.260037)
(-0.0239944 0 0.249852)
(-0.0289453 0 0.273033)
(-0.0267182 0 0.272984)
(-0.0310956 0 0.265507)
(-0.0290613 0 0.275)
(-0.0323186 0 0.244472)
(-0.0305831 0 0.257072)
(-0.0329547 0 0.221955)
(-0.0312873 0 0.232419)
(-0.0333872 0 0.205508)
(-0.03162 0 0.211768)
(-0.0338881 0 0.197327)
(-0.0319175 0 0.199476)
(-0.0345787 0 0.196573)
(-0.0323747 0 0.195486)
(-0.035474 0 0.20161)
(-0.0330337 0 0.198092)
(-0.0365454 0 0.211051)
(-0.0338744 0 0.205677)
(-0.0377467 0 0.223695)
(-0.0348568 0 0.217064)
(-0.0390093 0 0.23813)
(-0.0359282 0 0.231018)
(-0.0402338 0 0.252732)
(-0.0370031 0 0.245927)
(-0.041296 0 0.266166)
(-0.0379631 0 0.260143)
(-0.0420628 0 0.277839)
(-0.0386733 0 0.272627)
(-0.042404 0 0.28795)
(-0.0390011 0 0.283232)
(-0.0421932 0 0.297206)
(-0.03882 0 0.292504)
(-0.0413037 0 0.30654)
(-0.0380018 0 0.301314)
(-0.0396002 0 0.316974)
(-0.0364126 0 0.310652)
(-0.0369338 0 0.329544)
(-0.033922 0 0.32157)
(-0.0331281 0 0.345104)
(-0.0303635 0 0.335071)
(-0.0255697 0 0.351844)
(-0.00639219 0 -0.00257653)
(-0.00546671 0 -0.00191951)
(-0.00634028 0 -0.00345728)
(-0.00545632 0 -0.00338692)
(-0.00625867 0 -0.00325721)
(-0.00536494 0 -0.00374092)
(-0.00614432 0 -0.00191261)
(-0.00526553 0 -0.00304496)
(-0.00599475 0 0.000793356)
(-0.0051312 0 -0.00110547)
(-0.00580856 0 0.00511553)
(-0.00495825 0 0.00232149)
(-0.00558573 0 0.0113296)
(-0.00474657 0 0.00750555)
(-0.00532795 0 0.01972)
(-0.00449652 0 0.0147323)
(-0.00503941 0 0.0305602)
(-0.00421047 0 0.0242891)
(-0.00472785 0 0.0440805)
(-0.0038938 0 0.03644)
(-0.0044061 0 0.0604237)
(-0.00355616 0 0.0513871)
(-0.00409373 0 0.0795894)
(-0.00321318 0 0.0692195)
(-0.00381857 0 0.101369)
(-0.00288819 0 0.0898529)
(-0.00361742 0 0.125274)
(-0.00261363 0 0.112959)
(-0.00353521 0 0.150455)
(-0.00243123 0 0.137887)
(-0.00362149 0 0.175617)
(-0.00239022 0 0.163581)
(-0.00392363 0 0.198943)
(-0.00254235 0 0.18849)
(-0.00447679 0 0.218069)
(-0.00293341 0 0.210499)
(-0.00529265 0 0.230218)
(-0.00359192 0 0.226949)
(-0.0063511 0 0.232686)
(-0.00451788 0 0.234902)
(-0.00760174 0 0.223855)
(-0.00567723 0 0.23186)
(-0.00898198 0 0.204686)
(-0.00700965 0 0.217106)
(-0.0104533 0 0.18009)
(-0.00845602 0 0.193383)
(-0.0120418 0 0.158907)
(-0.0100018 0 0.167928)
(-0.0138514 0 0.151281)
(-0.0117131 0 0.151335)
(-0.0160133 0 0.163666)
(-0.0137224 0 0.153323)
(-0.0185757 0 0.194127)
(-0.0161376 0 0.176875)
(-0.021405 0 0.231832)
(-0.0189177 0 0.21477)
(-0.0241928 0 0.262247)
(-0.0218033 0 0.252238)
(-0.026582 0 0.274749)
(-0.0244326 0 0.274933)
(-0.0285459 0 0.266565)
(-0.0266215 0 0.27631)
(-0.029559 0 0.245019)
(-0.0279425 0 0.257747)
(-0.0299729 0 0.222234)
(-0.0284326 0 0.232695)
(-0.0301719 0 0.205738)
(-0.0285418 0 0.211901)
(-0.0304248 0 0.197637)
(-0.0286037 0 0.199645)
(-0.0308483 0 0.197007)
(-0.0288092 0 0.195768)
(-0.0314531 0 0.202162)
(-0.0291959 0 0.198495)
(-0.0322063 0 0.211694)
(-0.0297398 0 0.206179)
(-0.0330585 0 0.224392)
(-0.0303976 0 0.217632)
(-0.0339389 0 0.238822)
(-0.0311138 0 0.231606)
(-0.0347464 0 0.253345)
(-0.0318015 0 0.246465)
(-0.0353549 0 0.266612)
(-0.032341 0 0.260549)
(-0.0356289 0 0.278031)
(-0.0325963 0 0.27281)
(-0.0354351 0 0.287799)
(-0.0324322 0 0.283103)
(-0.0346445 0 0.296628)
(-0.0317192 0 0.291977)
(-0.0331281 0 0.305446)
(-0.0303279 0 0.300304)
(-0.0307519 0 0.315271)
(-0.028124 0 0.309068)
(-0.0273709 0 0.327125)
(-0.0249796 0 0.319317)
(-0.0228186 0 0.341843)
(-0.0207373 0 0.332036)
(-0.0152385 0 0.347897)
(-0.004515 0 -0.00269484)
(-0.00359236 0 -0.00199469)
(-0.00446132 0 -0.00366211)
(-0.003581 0 -0.00355389)
(-0.00437648 0 -0.0035453)
(-0.00348736 0 -0.00399248)
(-0.00425692 0 -0.00228416)
(-0.00338415 0 -0.00338294)
(-0.00409954 0 0.000340783)
(-0.0032438 0 -0.00152958)
(-0.00390232 0 0.00458765)
(-0.00306195 0 0.00181481)
(-0.00366456 0 0.0107356)
(-0.00283782 0 0.00692325)
(-0.00338734 0 0.0190731)
(-0.00257109 0 0.014085)
(-0.00307414 0 0.0298787)
(-0.00226346 0 0.023592)
(-0.0027321 0 0.0433895)
(-0.00191961 0 0.0357143)
(-0.00237351 0 0.0597568)
(-0.00154859 0 0.0506617)
(-0.00201755 0 0.07899)
(-0.00116551 0 0.068533)
(-0.00169191 0 0.10089)
(-0.000793385 0 0.0892541)
(-0.00143363 0 0.124976)
(-0.000464613 0 0.112506)
(-0.00128852 0 0.150399)
(-0.000221433 0 0.137645)
(-0.00130779 0 0.175859)
(-0.000114285 0 0.163612)
(-0.00154164 0 0.19952)
(-0.000197126 0 0.188845)
(-0.00202958 0 0.218986)
(-0.000519327 0 0.211205)
(-0.00278937 0 0.231443)
(-0.00111471 0 0.227998)
(-0.00380878 0 0.234148)
(-0.00199062 0 0.236243)
(-0.00504599 0 0.225464)
(-0.00312188 0 0.233412)
(-0.00644589 0 0.20637)
(-0.00445712 0 0.21878)
(-0.00797258 0 0.181829)
(-0.00594336 0 0.195123)
(-0.00964648 0 0.160754)
(-0.0075652 0 0.169748)
(-0.0115552 0 0.15333)
(-0.00937699 0 0.153313)
(-0.013805 0 0.16597)
(-0.0114886 0 0.155545)
(-0.0164179 0 0.196613)
(-0.0139793 0 0.179336)
(-0.0192421 0 0.234282)
(-0.0167839 0 0.217306)
(-0.0219642 0 0.264382)
(-0.0196312 0 0.254567)
(-0.0242356 0 0.276356)
(-0.0221646 0 0.276786)
(-0.0260152 0 0.267492)
(-0.0242004 0 0.277496)
(-0.0268233 0 0.245424)
(-0.0253253 0 0.258286)
(-0.0270214 0 0.222363)
(-0.0256079 0 0.232827)
(-0.0269944 0 0.205809)
(-0.0255011 0 0.211883)
(-0.0270078 0 0.197778)
(-0.0253361 0 0.199653)
(-0.0271742 0 0.197259)
(-0.0252996 0 0.195879)
(-0.0275007 0 0.202515)
(-0.0254256 0 0.198712)
(-0.0279505 0 0.212121)
(-0.0256867 0 0.206479)
(-0.0284715 0 0.224851)
(-0.0260365 0 0.217979)
(-0.0289913 0 0.239255)
(-0.0264176 0 0.231952)
(-0.0294079 0 0.253676)
(-0.0267421 0 0.246743)
(-0.0295944 0 0.266755)
(-0.0268904 0 0.260673)
(-0.0294136 0 0.277893)
(-0.0267256 0 0.272689)
(-0.0287304 0 0.287294)
(-0.0261111 0 0.282648)
(-0.0274142 0 0.295668)
(-0.0249153 0 0.2911)
(-0.0253356 0 0.303944)
(-0.0230091 0 0.298918)
(-0.022363 0 0.313134)
(-0.0202594 0 0.307087)
(-0.0183571 0 0.324252)
(-0.0165416 0 0.316646)
(-0.0131615 0 0.338118)
(-0.011707 0 0.328573)
(-0.00560872 0 0.343521)
(-0.00264244 0 -0.00281649)
(-0.00172268 0 -0.00207135)
(-0.00258736 0 -0.00387379)
(-0.00171074 0 -0.00372522)
(-0.00249984 0 -0.00384469)
(-0.00161525 0 -0.00425203)
(-0.00237571 0 -0.00267265)
(-0.00150891 0 -0.00373383)
(-0.00221128 0 -0.000135472)
(-0.00136331 0 -0.00197275)
(-0.00200382 0 0.00402835)
(-0.00117339 0 0.00128181)
(-0.00175196 0 0.0101016)