/*--------------------------------*- C++ -*----------------------------------*\
  =========                 |
  \\      /  F ield         | OpenFOAM: The Open Source CFD Toolbox
   \\    /   O peration     | Website:  https://openfoam.org
    \\  /    A nd           | Version:  9
     \\/     M anipulation  |
\*---------------------------------------------------------------------------*/
FoamFile
{
    format      ascii;
    class       volScalarField;
    location    "0.09";
    object      alpha.water;
}
// * * * * * * * * * * * * * * * * * * * * * * * * * * * * * * * * * * * * * //

dimensions      [0 0 0 0 0 0 0];

internalField   nonuniform List<scalar> 
5000
(
1.13762e-17
1.54314e-15
2.75024e-14
2.70537e-13
2.02557e-12
2.27943e-11
4.03724e-10
6.73621e-09
1.06167e-07
1.8722e-06
2.34665e-05
2.24304e-05
0.00154086
0.653738
0.999951
0.999999
1
1
1
1
1
1
1
1
1
1
0.999998
0.999939
0.999942
0.785938
0.0760182
0.000296494
0.000239473
3.4307e-05
8.91496e-06
2.20417e-06
5.05903e-07
1.11297e-07
2.82026e-08
7.92018e-09
2.27898e-09
5.13875e-10
2.46836e-10
1.99136e-10
1.53039e-10
1.05453e-10
6.66472e-11
3.91478e-11
2.25528e-11
8.24668e-12
2.5111e-17
1.83169e-15
3.00933e-14
2.95742e-13
2.56565e-12
2.66738e-11
4.28393e-10
6.64411e-09
1.02211e-07
1.6815e-06
1.57335e-05
3.76922e-05
6.50496e-05
0.552217
0.999378
0.999999
1
1
1
1
1
1
1
1
1
1
0.999995
0.999907
0.999913
0.685193
0.0179872
0.000266103
0.000285104
4.25129e-05
7.45029e-06
2.34983e-06
6.10911e-07
1.42412e-07
3.41534e-08
9.16704e-09
2.66222e-09
6.02621e-10
2.67791e-10
2.21183e-10
1.79401e-10
1.32336e-10
8.93927e-11
5.58316e-11
3.41674e-11
1.38153e-11
3.49831e-17
1.66404e-15
2.67252e-14
2.74801e-13
2.54617e-12
2.65029e-11
4.09242e-10
6.05594e-09
9.10783e-08
1.29094e-06
1.82868e-05
9.45086e-05
0.000102358
0.390506
0.995032
0.999998
1
1
1
1
1
1
1
1
1
0.999999
0.999987
0.999949
0.996696
0.462045
0.00147362
0.000186569
0.000171173
7.52932e-05
5.18299e-06
2.24523e-06
6.10572e-07
1.62492e-07
4.16477e-08
1.04669e-08
2.9049e-09
6.76692e-10
2.7733e-10
2.34885e-10
2.00869e-10
1.58048e-10
1.13463e-10
7.50726e-11
4.85737e-11
2.14107e-11
3.22173e-17
1.25065e-15
1.98614e-14
2.29782e-13
2.31187e-12
2.38882e-11
3.4966e-10
5.09992e-09
7.64344e-08
1.05759e-06
2.74961e-05
7.77862e-05
8.46142e-05
0.221499
0.946951
0.999991
1
1
1
1
1
1
1
1
1
0.999997
0.999961
0.999964
0.904248
0.214264
0.000478212
0.000372454
0.000240478
8.26127e-05
5.11853e-06
1.95667e-06
5.63134e-07
1.60088e-07
4.56305e-08
1.2122e-08
3.18997e-09
7.15747e-10
2.82385e-10
2.47945e-10
2.20584e-10
1.8198e-10
1.37459e-10
9.59778e-11
6.53198e-11
3.09394e-11
2.39745e-17
8.20067e-16
1.41193e-14
1.85202e-13
1.86997e-12
1.89825e-11
2.70566e-10
4.15823e-09
6.07476e-08
1.02768e-06
2.54655e-05
0.000240594
0.000137578
0.0662533
0.829401
0.999953
0.999999
1
1
1
1
1
1
1
0.999997
0.999984
0.999871
0.99988
0.585623
0.0303048
0.000252977
0.000538904
0.000533274
8.29223e-05
4.51572e-06
1.74299e-06
5.12935e-07
1.42474e-07
4.31413e-08
1.27845e-08
3.50038e-09
7.43816e-10
2.80668e-10
2.57351e-10
2.37774e-10
2.04186e-10
1.60758e-10
1.17682e-10
8.37854e-11
4.21955e-11
1.58903e-17
5.62602e-16
1.07997e-14
1.50559e-13
1.4253e-12
1.45597e-11
2.07389e-10
3.19188e-09
4.42495e-08
9.20225e-07
2.78615e-05
0.000292439
0.000139898
0.000129379
0.52571
0.997237
0.99999
1
1
1
1
1
0.999999
0.999997
0.999985
0.999868
0.999841
0.796979
0.130776
0.000176778
0.000139458
0.000400288
0.000528148
0.000189593
2.78285e-06
2.50792e-06
5.39816e-07
1.39515e-07
3.56143e-08
1.17315e-08
3.51215e-09
7.35282e-10
2.71484e-10
2.55668e-10
2.48997e-10
2.23664e-10
1.83418e-10
1.39887e-10
1.03248e-10
5.36304e-11
1.12186e-17
4.12601e-16
8.59265e-15
1.20924e-13
1.09193e-12
1.12602e-11
1.58093e-10
2.11129e-09
3.89939e-08
5.90337e-07
3.51771e-05
0.000290808
0.000134764
7.24499e-05
0.153359
0.805316
0.999842
0.99999
0.999998
0.999994
0.999994
0.999989
0.999985
0.999966
0.999894
0.99985
0.842105
0.186534
6.10447e-05
7.31225e-05
2.37885e-05
5.33928e-05
0.000462273
0.000218744
3.24421e-06
2.99139e-06
5.98641e-07
1.35751e-07
3.5115e-08
9.60487e-09
3.16834e-09
6.58764e-10
2.68987e-10
2.57687e-10
2.56002e-10
2.39367e-10
2.05094e-10
1.62623e-10
1.23469e-10
6.4483e-11
8.76203e-18
3.14178e-16
6.89189e-15
9.54566e-14
8.44091e-13
8.72318e-12
1.16985e-10
1.17952e-09
4.85365e-08
6.22961e-08
3.37816e-05
0.000219765
6.43315e-05
6.429e-05
7.24499e-05
0.310938
0.916857
0.999789
0.999965
0.999968
0.999968
0.999951
0.999885
0.999666
0.99032
0.719478
0.156377
3.35029e-05
2.12934e-05
8.08701e-06
1.00981e-06
3.81053e-07
9.42343e-05
0.000231118
4.94657e-05
9.43579e-07
7.12508e-07
1.29302e-07
4.08776e-08
9.31158e-09
2.6532e-09
5.16609e-10
2.7031e-10
2.61896e-10
2.62392e-10
2.52023e-10
2.25226e-10
1.85792e-10
1.4444e-10
7.44621e-11
7.35349e-18
2.67385e-16
5.69479e-15
7.52781e-14
6.58769e-13
6.65272e-12
7.75776e-11
6.92739e-10
4.7799e-08
2.87635e-07
3.06979e-05
2.7703e-05
3.73164e-05
0.000233785
0.000230734
8.01372e-06
0.3046
0.831194
0.992187
0.999068
0.998785
0.993453
0.951642
0.77921
0.423481
0.0690513
3.56577e-05
2.19621e-05
5.24627e-06
8.13217e-07
1.57257e-07
1.92215e-07
2.3896e-05
0.000231118
0.000178453
2.17462e-06
4.21687e-07
1.28787e-07
4.10018e-08
1.0576e-08
2.53256e-09
3.98314e-10
2.73993e-10
2.68793e-10
2.69053e-10
2.63065e-10
2.43496e-10
2.08809e-10
1.65698e-10
8.32704e-11
6.81494e-18
2.50049e-16
5.15218e-15
6.11969e-14
5.11135e-13
4.759e-12
5.3244e-11
8.85188e-10
2.15227e-08
8.70388e-07
3.69481e-05
2.2852e-05
6.6659e-05
0.000529041
0.000238898
5.40845e-06
4.62263e-06
0.132196
0.406271
0.571931
0.558871
0.440923
0.242296
0.0803166
2.93544e-05
5.75514e-05
7.34826e-05
5.88068e-06
6.9583e-07
1.4551e-07
8.44518e-08
3.39811e-07
2.53831e-07
0.000137326
0.000176038
2.10132e-05
2.01638e-07
1.61213e-07
3.3618e-08
1.22899e-08
2.72367e-09
3.63222e-10
2.78487e-10
2.75041e-10
2.75578e-10
2.72783e-10
2.59559e-10
2.30392e-10
1.86022e-10
8.94612e-11
7.12759e-18
2.48722e-16
4.9601e-15
5.59058e-14
4.28117e-13
3.60712e-12
5.00554e-11
1.19209e-09
1.10177e-09
1.86188e-06
3.75361e-05
2.23445e-05
0.000135596
0.000529041
0.000119883
2.58046e-06
4.55064e-06
4.60741e-06
1.37114e-05
2.43757e-05
1.09166e-05
4.80725e-06
1.26176e-05
1.87612e-05
2.67078e-05
5.18767e-05
2.36661e-05
8.08856e-07
1.47207e-07
8.22615e-08
8.30636e-08
8.44457e-08
9.17677e-08
3.04894e-05
0.000172187
6.45787e-05
1.98626e-07
9.77032e-08
2.3e-08
1.20145e-08
3.11683e-09
3.85372e-10
2.82918e-10
2.80431e-10
2.81501e-10
2.81144e-10
2.7271e-10
2.48715e-10
2.02198e-10
9.38273e-11
7.96654e-18
2.4766e-16
4.77941e-15
5.4139e-14
3.98164e-13
3.02617e-12
4.4295e-11
1.03185e-09
8.8989e-10
2.51372e-06
3.75876e-05
2.2406e-05
0.000111125
0.000526011
3.32305e-05
1.19006e-07
5.25227e-06
3.93539e-05
2.28202e-05
3.18364e-05
1.64089e-05
4.43815e-06
2.60348e-05
1.89035e-05
1.39622e-05
5.68363e-06
8.62232e-07
1.87569e-07
8.03736e-08
8.0365e-08
8.07771e-08
8.15847e-08
5.14573e-06
3.66602e-05
0.000169362
0.000129371
1.68578e-06
3.97972e-08
2.86809e-08
9.87645e-09
3.22422e-09
4.45285e-10
2.8644e-10
2.8449e-10
2.87181e-10
2.88364e-10
2.82685e-10
2.62172e-10
2.12841e-10
9.15716e-11
8.31126e-18
2.41675e-16
4.44145e-15
5.14574e-14
3.5459e-13
2.37022e-12
3.73561e-11
7.30697e-10
6.85398e-10
8.7634e-06
3.75362e-05
2.23211e-05
4.46284e-05
5.97113e-05
4.01374e-06
8.34972e-08
1.17217e-06
2.50242e-06
5.35804e-06
7.39199e-06
5.63663e-06
3.64344e-06
1.62241e-06
1.14564e-06
5.11761e-07
2.13863e-07
1.186e-07
8.04609e-08
8.01805e-08
8.02794e-08
8.03573e-08
8.07287e-08
1.85092e-05
3.49676e-05
0.000165255
0.00013599
7.3151e-06
7.58909e-08
6.15329e-08
7.08391e-09
3.16212e-09
5.32092e-10
2.89948e-10
2.88303e-10
2.936e-10
2.96132e-10
2.90874e-10
2.69875e-10
2.14977e-10
8.44932e-11
8.22512e-18
2.26048e-16
4.09457e-15
5.10486e-14
3.62986e-13
2.42943e-12
3.93982e-11
4.45376e-10
5.08199e-10
1.80101e-05
3.22509e-05
2.30438e-05
0.000108338
5.56008e-06
7.82187e-08
7.85825e-08
6.91525e-08
2.32191e-07
2.70706e-07
1.58602e-07
1.35796e-07
2.01445e-07
2.40883e-07
1.78992e-07
1.13634e-07
8.86676e-08
8.02487e-08
8.01806e-08
8.00668e-08
8.01649e-08
8.02704e-08
8.06014e-08
2.37758e-05
3.93842e-05
9.75389e-05
0.000132253
1.56752e-05
9.51229e-08
8.49137e-08
7.53334e-09
2.73191e-09
5.93012e-10
2.93147e-10
2.91805e-10
3.01948e-10
3.07003e-10
2.99407e-10
2.7628e-10
2.11265e-10
7.37809e-11
8.27292e-18
2.16643e-16
4.12053e-15
5.46814e-14
4.45481e-13
3.34427e-12
6.54011e-11
5.38177e-10
1.31788e-07
7.67824e-06
7.37994e-06
2.98323e-05
0.000117854
2.38841e-05
6.66412e-08
6.37946e-08
5.19018e-08
6.98828e-08
6.78826e-08
6.93093e-08
6.0544e-08
8.4925e-08
9.07262e-08
1.00497e-07
9.94155e-08
8.17136e-08
8.01814e-08
8.00359e-08
7.99835e-08
8.00295e-08
8.0163e-08
8.03782e-08
2.2745e-05
4.26617e-05
3.96661e-05
8.5682e-05
1.22836e-05
1.07935e-07
6.99357e-08
1.17591e-08
1.73249e-09
6.053e-10
2.96983e-10
2.96234e-10
3.12899e-10
3.20723e-10
3.09165e-10
2.75937e-10
2.00398e-10
5.9577e-11
8.7276e-18
2.22451e-16
4.47151e-15
6.75101e-14
6.43916e-13
5.48213e-12
1.09005e-10
1.977e-09
1.30249e-07
8.94104e-08
1.0285e-05
2.97681e-05
0.000118354
4.59948e-05
5.88935e-08
5.18911e-08
5.04781e-08
4.95329e-08
4.95329e-08
4.9533e-08
4.95332e-08
4.97058e-08
5.94642e-08
1.51738e-07
1.06284e-06
2.69557e-07
8.02698e-08
7.99848e-08
7.99851e-08
7.99837e-08
8.00295e-08
8.04844e-08
1.48116e-05
4.282e-05
1.35868e-05
5.19856e-06
1.09798e-05
1.14104e-07
2.67934e-08
1.69658e-08
1.41905e-09
5.22274e-10
3.02364e-10
3.039e-10
3.24242e-10
3.26035e-10
3.19183e-10
2.71363e-10
1.80702e-10
4.33108e-11
9.44814e-18
2.38026e-16
5.04835e-15
7.9892e-14
7.89864e-13
6.40431e-12
1.0972e-10
1.53427e-09
3.32914e-08
4.82037e-08
1.78088e-05
1.77069e-05
0.000119209
4.2344e-05
7.06597e-08
6.80892e-08
8.10876e-08
4.9653e-08
4.95325e-08
4.95332e-08
4.95366e-08
4.95545e-08
5.38151e-07
4.21317e-06
6.84077e-06
5.89554e-06
7.28414e-07
8.05445e-08
7.99851e-08
7.99908e-08
7.99971e-08
8.04483e-08
1.22586e-05
4.26617e-05
2.01646e-05
6.53732e-07
2.4929e-06
8.86042e-08
1.55687e-08
1.07953e-08
1.69914e-09
3.60984e-10
3.04843e-10
3.13484e-10
3.27976e-10
3.27779e-10
3.2042e-10
2.57873e-10
1.4952e-10
2.67842e-11
9.45729e-18
2.42895e-16
5.12173e-15
7.9265e-14
7.35663e-13
5.23377e-12
7.76582e-11
1.03721e-10
5.33026e-08
1.89787e-06
8.85792e-06
1.53188e-05
0.000120578
3.65901e-05
1.06889e-07
1.27556e-07
1.35854e-07
7.17543e-08
4.9537e-08
4.95366e-08
4.95545e-08
5.01137e-08
2.67082e-06
6.84077e-06
6.8475e-06
6.85154e-06
6.31043e-06
4.3626e-07
8.05309e-08
7.99976e-08
8.0453e-08
8.10644e-08
1.28425e-05
4.21245e-05
3.07938e-05
3.33498e-07
7.05935e-08
8.36755e-08
1.5046e-08
1.46436e-09
1.62032e-09
3.10831e-10
3.07366e-10
3.21484e-10
3.28067e-10
3.27976e-10
3.17937e-10
2.27995e-10
1.06353e-10
1.23426e-11
8.79553e-18
2.30189e-16
4.70182e-15
7.01214e-14
5.66076e-13
2.84114e-12
3.83254e-11
4.11235e-11
2.63487e-07
9.36042e-06
8.51006e-06
0.000104779
0.000121422
2.73464e-05
1.17919e-07
1.3421e-07
1.34691e-07
6.69568e-08
4.97238e-08
5.08766e-08
5.18752e-08
7.19304e-08
9.98062e-07
5.88502e-06
6.85154e-06
6.85534e-06
6.85304e-06
2.31567e-06
8.30039e-08
8.05152e-08
8.11089e-08
8.19946e-08
1.22197e-05
4.16038e-05
3.27017e-05
6.67308e-08
2.48182e-08
8.47527e-08
1.49287e-08
4.25623e-10
6.49854e-10
3.1968e-10
3.15734e-10
3.26075e-10
3.28067e-10
3.28067e-10
3.0378e-10
1.75599e-10
5.98104e-11
3.63292e-12
7.04012e-18
2.08258e-16
3.94679e-15
5.43003e-14
4.30336e-13
2.4779e-12
3.78133e-11
4.0182e-11
2.23798e-07
8.87136e-06
1.60952e-05
0.000121418
0.000121378
1.8551e-05
8.74433e-08
8.7095e-08
7.37169e-08
7.15876e-08
1.16889e-07
1.25452e-06
1.7102e-06
1.64476e-07
1.48793e-08
1.18922e-08
4.67515e-06
6.85154e-06
6.85463e-06
4.62216e-06
1.17983e-07
8.30564e-08
8.65945e-08
9.00783e-08
6.52998e-06
4.14642e-05
3.2759e-05
8.93187e-09
8.4996e-09
6.97314e-08
1.67828e-08
3.43375e-10
3.22686e-10
3.2176e-10
3.21834e-10
3.27413e-10
3.28067e-10
3.27878e-10
2.5623e-10
1.08889e-10
2.5088e-11
5.76964e-13
6.17211e-18
2.16233e-16
3.89459e-15
5.1101e-14
4.32803e-13
3.4453e-12
5.6952e-11
5.31726e-11
3.35185e-07
3.27509e-06
4.60903e-05
0.000119914
0.000116693
4.84877e-06
7.50797e-08
7.40246e-08
7.4149e-08
8.91058e-08
1.92498e-05
3.56316e-05
5.6344e-06
1.58452e-08
1.26237e-08
1.16746e-08
1.16908e-08
5.63965e-06
6.85111e-06
6.82877e-06
1.05262e-06
8.7376e-08
9.1605e-08
4.71412e-07
3.3911e-06
3.19569e-05
3.21817e-05
4.49367e-09
4.16026e-09
3.90403e-08
2.30807e-08
3.27502e-10
3.2066e-10
3.22609e-10
3.25533e-10
3.27109e-10
3.279e-10
3.13209e-10
1.71494e-10
5.18657e-11
7.95131e-12
6.47465e-14
6.6327e-18
2.74298e-16
4.31236e-15
5.63996e-14
5.16768e-13
5.30197e-12
1.01591e-10
5.31048e-10
3.86098e-07
3.65433e-07
3.42463e-05
4.56413e-05
2.60701e-05
5.15625e-07
3.39289e-07
7.56734e-08
7.42482e-08
7.52646e-06
3.73562e-05
3.72909e-05
8.0746e-06
1.5039e-08
1.16746e-08
1.15665e-08
1.14907e-08
5.12501e-07
6.75271e-06
6.83931e-06
1.39993e-06
1.04563e-07
1.59408e-05
5.37593e-05
3.6262e-06
4.30821e-06
1.83177e-05
2.86985e-09
1.45618e-09
1.86554e-08
2.58495e-08
3.36811e-10
3.17375e-10
3.2264e-10
3.26303e-10
3.26838e-10
3.2688e-10
2.51204e-10
8.6496e-11
1.9139e-11
2.03746e-12
9.17315e-15
9.7965e-18
4.66495e-16
5.6717e-15
6.99828e-14
7.42207e-13
7.81981e-12
1.48291e-10
2.71646e-09
1.03315e-07
6.15978e-08
1.21543e-05
9.57193e-05
1.87039e-05
1.11919e-05
2.74048e-06
7.80148e-08
2.10014e-06
3.62786e-05
3.72251e-05
1.52568e-05
1.66584e-07
1.50867e-07
1.25973e-08
1.14616e-08
1.14904e-08
1.14769e-08
3.38531e-06
4.98018e-06
1.32563e-06
6.85472e-06
6.53843e-05
6.66546e-05
1.90204e-05
1.23244e-07
4.11636e-07
2.68853e-07
8.25938e-10
3.44691e-09
1.42722e-08
3.17369e-10
3.15987e-10
3.22067e-10
3.26063e-10
3.26539e-10
3.01035e-10
1.47754e-10
3.38318e-11
5.84364e-12
4.511e-13
1.49864e-15
2.21183e-17
9.52965e-16
8.64358e-15
8.57273e-14
9.25941e-13
8.73607e-12
1.77359e-10
2.85885e-09
2.00882e-09
1.78827e-08
2.54975e-05
9.92131e-05
2.60864e-05
2.50344e-05
4.40309e-06
1.10202e-07
1.40178e-05
3.61828e-05
1.93128e-05
1.31761e-05
6.48969e-06
9.79685e-07
1.2531e-08
1.15724e-08
1.14905e-08
1.20219e-08
1.22036e-08
1.92473e-07
6.1529e-08
2.46444e-05
6.68375e-05
6.67175e-05
3.41753e-05
4.48299e-08
1.1944e-07
4.86238e-07
4.87066e-10
5.43704e-10
6.0794e-10
3.27197e-10
3.15598e-10
3.20525e-10
3.25737e-10
3.22136e-10
2.15644e-10
6.30169e-11
1.10219e-11
1.56455e-12
8.70215e-14
1.81258e-16
5.946e-17
2.05892e-15
1.43447e-14
9.86159e-14
9.0592e-13
8.44092e-12
1.38631e-10
1.06898e-09
7.75114e-10
1.60903e-06
3.27723e-05
9.98832e-05
2.63545e-05
2.34344e-05
1.42417e-06
1.89737e-07
8.28832e-06
1.85331e-05
6.86584e-05
0.000279867
0.000128712
2.45923e-07
1.48893e-08
1.23547e-08
3.48258e-08
1.5322e-08
1.78962e-08
2.27181e-08
2.48252e-08
3.37918e-05
6.68946e-05
6.68375e-05
1.38843e-05
2.67302e-08
3.95708e-08
2.16046e-07
2.80146e-10
3.77941e-10
3.46201e-10
3.4776e-10
3.14371e-10
3.20341e-10
3.24708e-10
2.74365e-10
1.08943e-10
2.09625e-11
3.21832e-12
3.63705e-13
1.44363e-14
1.78159e-17
1.58607e-16
4.47161e-15
2.55731e-14
1.16131e-13
7.93836e-13
6.74833e-12
8.13792e-11
8.33778e-11
2.45324e-10
6.64722e-06
1.30335e-05
0.000100249
9.77032e-05
1.43888e-05
2.53552e-07
2.43543e-07
2.79488e-07
2.24608e-05
0.000323638
0.000322759
0.000182664
4.96596e-07
1.57755e-08
1.1169e-08
8.27038e-08
1.6145e-07
4.66056e-08
3.94744e-08
3.48262e-08
3.30265e-05
6.68946e-05
6.51214e-05
2.65589e-08
2.01646e-08
1.27274e-08
7.18763e-11
2.34388e-10
3.63331e-10
3.95902e-10
3.4181e-10
3.1397e-10
3.19684e-10
3.06118e-10
1.70785e-10
4.01804e-11
5.94781e-12
8.34102e-13
6.98794e-14
2.21239e-15
6.49167e-19
3.93893e-16
9.46536e-15
4.80435e-14
1.55703e-13
7.29999e-13
4.88082e-12
5.55602e-11
5.51779e-11
2.82077e-08
3.20583e-06
3.15204e-06
0.00010044
0.000102655
1.84926e-05
2.55143e-07
2.53585e-07
2.55143e-07
0.000178989
0.000324516
0.000323638
3.64723e-05
3.94508e-08
1.04451e-08
7.68323e-09
1.58456e-07
1.97284e-06
2.67088e-07
8.75138e-08
1.68491e-06
5.67634e-05
6.68946e-05
3.40072e-05
1.9571e-08
1.46357e-08
6.03729e-09
2.23877e-10
2.33613e-10
3.00553e-10
3.84676e-10
3.2457e-10
3.14761e-10
3.156e-10
2.34192e-10
7.4982e-11
1.16016e-11
1.50202e-12
1.79092e-13
1.11293e-14
3.55543e-16
-6.40944e-21
8.9816e-16
1.91023e-14
9.17683e-14
2.4586e-13
7.81102e-13
4.11112e-12
4.78147e-11
4.88766e-11
2.01367e-08
5.78197e-07
5.33935e-05
0.000102633
0.00010244
1.52507e-05
2.64248e-07
2.55143e-07
2.58106e-05
0.000324311
0.000324284
0.000115378
9.93628e-08
1.52298e-08
7.68269e-09
7.32658e-09
2.97375e-07
1.97284e-06
2.22629e-07
1.15839e-07
7.50475e-06
6.60034e-05
6.65121e-05
3.19076e-07
6.4972e-08
3.90189e-08
7.75948e-08
2.34384e-10
2.30456e-10
2.71576e-10
3.514e-10
3.256e-10
3.17151e-10
2.72882e-10
1.29698e-10
2.46541e-11
2.83325e-12
3.25609e-13
3.15199e-14
1.70216e-15
5.8282e-17
-1.22237e-21
1.89239e-15
3.64028e-14
1.72008e-13
4.2403e-13
9.45199e-13
3.21371e-12
3.24281e-11
6.36852e-11
1.10586e-10
3.68544e-06
0.000102261
0.000102376
8.99868e-05
3.84117e-06
3.21299e-07
2.64248e-07
0.000198427
0.00032366
0.000283535
4.83169e-06
1.58914e-08
7.84229e-09
7.3268e-09
7.30648e-09
7.32687e-09
1.02342e-06
2.91279e-06
2.90614e-06
5.19417e-05
6.56721e-05
3.99511e-05
1.46194e-07
1.29448e-07
3.82882e-07
1.90601e-07
2.30447e-10
2.28757e-10
2.57264e-10
3.42893e-10
3.35743e-10
2.99535e-10
1.81511e-10
5.27059e-11
6.56457e-12
6.01423e-13
6.05251e-14
5.08316e-15
2.85498e-16
9.07633e-18
-2.28257e-22
3.72605e-15
6.53637e-14
3.07506e-13
7.38589e-13
1.32823e-12
3.14113e-12
2.57652e-11
1.89209e-10
1.87916e-10
7.06227e-06
0.000100324
0.000101239
1.31527e-05
5.14998e-07
3.70803e-07
2.18407e-05
0.000320903
0.000322803
1.857e-05
2.09792e-08
8.15471e-09
7.32613e-09
7.30648e-09
7.30634e-09
7.30648e-09
2.78248e-07
4.45528e-06
1.3481e-05
7.39382e-05
6.48879e-05
5.04155e-07
1.79043e-07
2.446e-07
3.87459e-07
3.25454e-07
2.25858e-10
2.27426e-10
2.5935e-10
3.41628e-10
3.34088e-10
2.41974e-10
8.73029e-11
1.68374e-11
1.51743e-12
1.12226e-13
1.07822e-14
8.70107e-16
4.97471e-17
1.23501e-18
-4.18576e-23
6.90221e-15
1.11002e-13
5.22093e-13
1.2486e-12
2.11091e-12
3.89172e-12
3.04255e-11
1.93303e-10
2.04589e-10
3.16328e-06
8.43844e-05
3.69077e-05
6.51669e-07
5.97236e-07
3.81469e-07
0.000153035
0.000320358
0.000132935
6.53365e-08
8.87876e-09
7.44508e-09
7.36799e-09
7.32666e-09
7.30634e-09
7.48139e-09
1.89554e-07
1.14183e-05
7.1546e-05
7.47223e-05
5.25849e-05
1.00507e-07
1.73972e-07
4.04102e-07
3.9578e-07
2.60994e-07
2.19525e-10
2.24532e-10
2.65393e-10
3.39007e-10
3.10657e-10
1.49274e-10
3.12068e-11
4.55941e-12
3.01236e-13
2.00826e-14
2.02317e-15
1.59413e-16
8.30137e-18
1.5449e-19
-7.57881e-24
1.2086e-14
1.78913e-13
8.432e-13
2.01712e-12
3.27294e-12
5.03383e-12
3.27827e-11
1.27546e-10
5.48718e-08
6.31632e-08
1.81143e-05
3.41464e-05
2.13639e-06
6.37861e-07
2.73972e-05
0.000300524
0.000304938
2.008e-06
1.12343e-08
7.67624e-09
7.58943e-09
7.44555e-09
7.47181e-09
9.03969e-09
1.47469e-08
5.07142e-07
2.66929e-05
7.56362e-05
7.53942e-05
3.55313e-05
3.44973e-08
1.66808e-07
4.04102e-07
4.04102e-07
3.04558e-08
2.17199e-10
2.19525e-10
2.78136e-10
3.32229e-10
2.37915e-10
6.55432e-11
8.78488e-12
1.06916e-12
5.06382e-14
3.84444e-15
3.89089e-16
2.90158e-17
1.25831e-18
2.0999e-20
-1.35532e-24
2.00531e-14
2.7394e-13
1.29329e-12
3.06753e-12
4.57146e-12
7.21031e-12
5.28931e-11
4.60479e-11
3.53901e-07
2.53347e-05
3.79492e-05
4.19536e-05
3.89331e-06
9.15935e-07
4.719e-05
0.000299154
6.94635e-05
1.66462e-08
8.01998e-09
7.76117e-09
7.67764e-09
8.12959e-09
4.10993e-08
5.95623e-07
5.77136e-07
4.66482e-06
5.34053e-05
7.56195e-05
7.56195e-05
1.01221e-05
1.46026e-08
1.65738e-07
4.04102e-07
3.17195e-07
2.00548e-10
2.08726e-10
2.19383e-10
2.98645e-10
3.0235e-10
1.30965e-10
2.03753e-11
2.08583e-12
2.02655e-13
8.42532e-15
7.85294e-16
7.37678e-17
5.1066e-18
1.95951e-19
2.24856e-21
-2.48225e-25
3.15385e-14
3.99074e-13
1.88068e-12
4.467e-12
6.18653e-12
1.1688e-11
1.17868e-10
9.27555e-11
1.07481e-06
3.8509e-05
4.49635e-05
3.33407e-05
3.40368e-06
1.00888e-05
0.000245725
0.000286153
7.84497e-07
9.19243e-09
8.6507e-09
8.02023e-09
7.76398e-09
1.23115e-07
2.97357e-06
5.20631e-06
6.79042e-06
1.74886e-05
7.56482e-05
7.56363e-05
7.20938e-05
1.50658e-08
6.16028e-09
1.14968e-07
3.15845e-07
4.48933e-08
2.00356e-10
2.15647e-10
2.19399e-10
2.91929e-10
2.25673e-10
4.83741e-11
4.56168e-12
4.32374e-13
3.08346e-14
1.63058e-15
1.59109e-16
1.38396e-17
8.57544e-19
3.44783e-20
3.7903e-22
-4.76267e-26
4.70569e-14
5.54943e-13
2.60034e-12
6.26473e-12
8.64991e-12
1.78812e-11
1.94205e-10
8.93817e-10
1.69472e-06
1.60719e-05
4.49635e-05
5.16438e-06
3.40368e-06
1.25212e-05
0.000246642
0.000151337
9.18077e-08
1.37851e-08
9.19339e-09
2.2051e-08
3.35402e-08
2.65629e-06
5.81898e-06
5.81898e-06
5.11834e-06
2.80854e-05
7.56482e-05
7.56428e-05
4.99509e-05
4.33685e-09
3.09547e-09
1.92796e-08
2.49656e-08
5.18237e-10
2.19148e-10
2.18475e-10
2.47936e-10
2.64661e-10
1.13608e-10
1.22325e-11
7.95499e-13
8.0627e-14
4.85903e-15
3.42582e-16
3.12539e-17
2.5781e-18
1.49731e-19
6.90017e-21
8.39517e-23
-8.95903e-27
6.67079e-14
7.38185e-13
3.43781e-12
8.41463e-12
1.19777e-11
2.42165e-11
2.47472e-10
7.18874e-09
1.63785e-06
1.672e-05
4.49616e-05
3.75497e-06
3.76531e-06
0.000156299
0.000246642
4.61584e-06
3.32062e-08
1.67018e-08
2.72709e-07
2.66168e-07
4.71289e-07
5.23059e-06
5.8012e-06
4.79052e-06
1.56065e-06
2.78754e-05
7.56781e-05
7.5721e-05
2.85806e-06
3.04226e-09
1.8485e-09
2.34241e-09
1.93308e-09
2.9839e-10
2.27655e-10
2.28613e-10
2.45867e-10
1.849e-10
3.74828e-11
2.20073e-12
1.35017e-13
1.48519e-14
9.48326e-16
7.06565e-17
6.09603e-18
4.7622e-19
3.03085e-20
1.461e-21
1.75902e-23
-1.66202e-27
8.99266e-14
9.40035e-13
4.3509e-12
1.08335e-11
1.62867e-11
3.0541e-11
2.99322e-10
1.02726e-08
1.85789e-06
2.71178e-05
6.55614e-06
3.85539e-06
1.45531e-05
0.000180532
0.000176958
7.41671e-08
6.62792e-08
1.83463e-06
2.02364e-06
3.36947e-07
8.27116e-07
5.61963e-06
5.67672e-06
1.04552e-06
8.80356e-07
1.76014e-05
7.1587e-05
4.25195e-05
5.95408e-09
1.78797e-09
1.60879e-09
1.22705e-09
5.62505e-10
2.43364e-10
2.29957e-10
2.23052e-10
2.11811e-10
8.42152e-11
8.38607e-12
3.29212e-13
2.81809e-14
3.00881e-15
2.02823e-16
1.43464e-17
1.20565e-18
9.29435e-20
6.53647e-21
3.03512e-22
3.70485e-24
-3.05428e-28
1.15387e-13
1.14791e-12
5.30458e-12
1.32061e-11
1.90456e-11
3.84462e-11
4.22143e-10
7.69372e-09
2.71874e-06
2.71178e-05
7.23211e-06
1.7143e-05
0.000103077
0.000149224
7.47477e-06
4.23697e-07
4.93968e-06
1.06808e-05
1.87648e-06
3.40677e-07
1.15064e-06
5.50257e-06
3.32608e-06
1.76586e-08
8.18349e-07
5.26195e-06
7.0983e-06
1.93563e-06
2.17312e-09
1.27832e-09
1.5458e-09
9.72228e-10
2.89665e-10
2.2696e-10
2.22103e-10
2.11579e-10
1.25743e-10
2.50733e-11
1.39151e-12
5.82108e-14
7.03641e-15
6.64162e-16
4.3573e-17
2.95595e-18
2.44719e-19
2.00804e-20
1.38058e-21
6.35904e-23
7.84614e-25
-5.58221e-29
1.40881e-13
1.34352e-12
6.1881e-12
1.51416e-11
1.99911e-11
5.27715e-11
6.63635e-10
4.16966e-08
1.24064e-05
2.58188e-05
7.15458e-05
8.31796e-05
4.10037e-05
8.06713e-06
1.37142e-06
1.31006e-06
1.05245e-05
1.07234e-05
6.62723e-07
3.91048e-07
1.73535e-06
5.15854e-06
7.20471e-07
4.84529e-09
2.42428e-07
3.94017e-07
2.58223e-07
3.71513e-08
1.08825e-09
8.85056e-10
1.40913e-09
1.03936e-09
2.12984e-10
2.04109e-10
2.18334e-10
1.56468e-10
4.87497e-11
5.15912e-12
2.07713e-13
1.41014e-14
1.78154e-15
1.49307e-16
9.55559e-18
6.31498e-19
5.17125e-20
4.48185e-21
2.97644e-22
1.34369e-23
1.67264e-25
-1.01653e-29
1.6388e-13
1.51004e-12
6.90151e-12
1.67863e-11
2.17922e-11
7.3387e-11
9.18525e-10
2.87014e-07
1.04959e-05
1.09366e-05
8.51727e-05
8.44383e-05
3.11597e-06
2.29887e-06
2.20789e-06
1.51799e-06
8.50805e-06
1.06727e-05
5.08496e-07
4.25289e-07
2.23882e-06
3.54971e-06
7.44354e-10
1.43741e-09
3.61654e-08
8.02628e-08
5.03426e-08
6.21663e-09
6.46107e-10
5.60462e-10
1.24741e-09
9.23534e-10
1.92325e-10
1.91211e-10
1.90135e-10
8.09954e-11
1.29242e-11
8.31885e-13
3.81945e-14
3.92704e-15
4.2604e-16
3.36745e-17
2.17103e-18
1.4257e-19
1.16111e-20
1.01375e-21
6.6631e-23
2.86549e-24
3.59468e-26
-1.84005e-30
1.80351e-13
1.62805e-12
7.48967e-12
1.82774e-11
2.49911e-11
9.74347e-11
1.83079e-09
2.92321e-07
2.27757e-06
1.29261e-05
8.51911e-05
6.77217e-05
2.17094e-05
6.94034e-05
1.80383e-06
1.66532e-06
8.76885e-06
1.0571e-05
1.56555e-06
4.74718e-07
2.19721e-06
2.22114e-06
2.82193e-10
5.76145e-10
8.2381e-09
1.62596e-08
1.04808e-08
1.52548e-09
4.27868e-10
4.00827e-10
7.51709e-10
4.99067e-10
1.87386e-10
1.76945e-10
1.19807e-10
2.94439e-11
2.6169e-12
1.34497e-13
9.52669e-15
1.059e-15
9.94398e-17
7.83806e-18
5.17222e-19
3.41377e-20
2.7401e-21
2.35248e-22
1.5311e-23
6.1495e-25
7.79956e-27
-3.81121e-31
1.86263e-13
1.6689e-12
7.82627e-12
1.90771e-11
2.61827e-11
9.15843e-11
2.95052e-09
2.20122e-07
3.21269e-06
8.0485e-05
8.51812e-05
5.80454e-05
6.22955e-05
0.000194897
0.000130484
1.80383e-06
9.6808e-06
1.04667e-05
1.65192e-06
5.31143e-07
2.01415e-06
1.65926e-06
2.31986e-10
3.09098e-10
1.8133e-09
3.13638e-09
2.32619e-09
5.99217e-10
3.31292e-10
3.10528e-10
3.40572e-10
2.41799e-10
1.76683e-10
1.32309e-10
5.28827e-11
7.85232e-12
4.82217e-13
2.82944e-14
2.73055e-15
2.69813e-16
2.39212e-17
1.91392e-18
1.2943e-19
8.6044e-21
6.76864e-22
5.5495e-23
3.59087e-24
1.40157e-25
1.71104e-27
-6.40549e-32
1.85634e-13
1.66129e-12
7.84057e-12
1.89724e-11
2.53924e-11
8.22168e-11
2.91423e-09
7.63114e-08
4.38929e-06
8.09723e-05
8.21592e-05
5.80039e-05
5.96451e-05
0.000194897
0.000111249
2.07097e-06
8.23069e-06
8.94504e-06
3.62089e-07
6.86986e-07
1.94811e-06
1.41004e-06
2.15748e-10
2.3294e-10
5.28726e-10
7.3297e-10
7.10997e-10
3.68047e-10
3.00829e-10
2.90758e-10
2.60631e-10
1.91037e-10
1.42858e-10
7.3452e-11
1.73953e-11
1.70931e-12
9.71044e-14
7.56775e-15
7.70012e-16
6.85489e-17
6.0656e-18
4.89874e-19
3.38273e-20
2.27333e-21
1.76527e-22
1.31717e-23
8.60718e-25
3.40999e-26
3.77408e-28
-1.00338e-32
1.82447e-13
1.62883e-12
7.70691e-12
1.82988e-11
2.33853e-11
9.01394e-11
2.60462e-09
6.66158e-08
2.9166e-05
7.99939e-05
3.71255e-05
5.87993e-05
0.000260678
0.000137944
2.49245e-06
2.34128e-06
4.00891e-06
8.313e-06
3.48899e-07
7.83074e-07
1.91254e-06
1.06765e-06
2.07259e-10
2.15666e-10
3.98107e-10
4.57686e-10
4.36303e-10
3.23416e-10
3.03842e-10
2.94288e-10
2.42286e-10
1.53667e-10
8.8098e-11
3.08735e-11
4.81607e-12
3.71252e-13
2.3571e-14
2.19122e-15
2.08956e-16
1.80924e-17
1.61459e-18
1.31114e-19
9.17356e-21
6.25159e-22
4.85737e-23
3.43345e-24
2.06174e-25
8.21902e-27
8.28663e-29
-1.57558e-33
1.74795e-13
1.54938e-12
7.33529e-12
1.70581e-11
2.302e-11
1.17053e-10
1.23052e-09
1.10409e-06
4.22202e-05
3.8759e-05
3.84076e-05
4.50739e-05
0.000275971
0.000147178
2.81403e-06
2.74049e-06
9.55393e-06
7.20034e-06
3.39071e-07
6.4939e-07
1.8953e-06
8.95805e-07
2.03088e-10
1.95989e-10
3.50326e-10
4.11742e-10
3.78875e-10
3.26249e-10
3.1639e-10
2.96842e-10
2.08852e-10
1.05124e-10
4.2324e-11
1.06849e-11
1.30716e-12
9.57844e-14
6.78387e-15
6.35399e-16
5.74177e-17
5.00516e-18
4.4853e-19
3.65665e-20
2.58182e-21
1.77589e-22
1.39283e-23
1.02638e-24
5.78306e-26
2.19068e-27
1.78209e-29
-2.89047e-34
1.61343e-13
1.40883e-12
6.70767e-12
1.62024e-11
2.54873e-11
2.33219e-10
2.73844e-09
9.56903e-07
1.80017e-05
3.60425e-05
0.000139945
0.00022128
0.000276479
0.000270162
3.21577e-05
3.08379e-06
2.14272e-05
1.46126e-05
3.35447e-07
4.64704e-07
1.8558e-06
9.95384e-07
1.95989e-10
1.87165e-10
2.70857e-10
3.81936e-10
3.78415e-10
3.4367e-10
3.30284e-10
2.78913e-10
1.56164e-10
6.02738e-11
1.78275e-11
3.55852e-12
4.09176e-13
3.27552e-14
2.44899e-15
2.03155e-16
1.71442e-17
1.4594e-18
1.28548e-19
1.05474e-20
7.58775e-22
5.20524e-23
4.11255e-24
3.19075e-25
1.96697e-26
7.97403e-28
1.16808e-29
-4.33488e-35
1.43349e-13
1.22863e-12
5.9413e-12
1.57004e-11
3.3014e-11
5.00534e-10
7.19255e-09
6.82543e-07
1.28139e-06
8.50659e-05
0.000271131
0.000276479
0.000276479
0.000276479
2.46236e-05
8.21891e-06
3.43378e-05
2.18635e-05
3.39069e-07
3.36236e-07
1.39253e-06
1.59528e-06
1.09408e-07
1.87088e-10
1.86371e-10
3.4748e-10
3.80546e-10
3.61007e-10
3.27023e-10
2.35187e-10
1.03459e-10
3.18772e-11
7.86684e-12
1.41468e-12
1.70197e-13
1.51289e-14
1.1449e-15
8.51646e-17
6.3016e-18
4.81271e-19
3.97917e-20
3.202e-21
2.30475e-22
1.59084e-23
1.25351e-24
9.92252e-26
6.73809e-27
3.30098e-28
8.61558e-30
-2.76398e-49
1.22852e-13
1.03587e-12
5.14675e-12
1.52902e-11
4.55856e-11
6.67228e-10
6.32047e-09
2.10006e-07
2.37012e-06
0.00010704
0.000138244
0.000275227
0.000276479
0.000215918
1.56551e-05
1.56378e-05
3.43378e-05
2.80773e-05
3.37314e-07
3.42921e-07
9.14398e-07
1.68217e-06
9.0302e-07
1.81699e-10
1.652e-10
2.65715e-10
3.7146e-10
3.63246e-10
3.16192e-10
1.79711e-10
6.62374e-11
1.77252e-11
3.93314e-12
6.78487e-13
8.56354e-14
8.36836e-15
7.31855e-16
5.91055e-17
4.28362e-18
2.78371e-19
1.68401e-20
1.08538e-21
7.21354e-23
5.11966e-24
3.95888e-25
3.16097e-26
2.21208e-27
1.2047e-28
3.992e-30
-5.04685e-51
1.02054e-13
8.53551e-13
4.39739e-12
1.48127e-11
5.55174e-11
5.8952e-10
1.75045e-09
4.90142e-08
1.21168e-07
0.000103478
2.95769e-05
0.000203058
0.000275227
0.00026119
3.60926e-05
3.81416e-06
3.19533e-05
2.78252e-05
3.42918e-07
3.50398e-07
4.73288e-07
1.6812e-06
1.664e-06
1.71632e-07
1.44561e-10
1.50476e-10
3.36685e-10
3.60406e-10
2.82781e-10
1.25149e-10
4.19585e-11
1.07192e-11
2.33687e-12
4.23828e-13
6.24959e-14
7.57165e-15
7.51779e-16
6.35034e-17
4.73465e-18
3.07246e-19
1.73707e-20
7.74637e-22
3.1819e-23
1.57055e-24
1.26618e-25
1.04369e-26
7.32652e-28
4.07091e-29
1.38982e-30
1.26171e-51
8.26104e-14
6.92723e-13
3.71456e-12
1.40595e-11
5.21919e-11
2.53861e-10
2.23518e-10
3.84302e-07
5.71032e-05
0.000100661
2.40663e-05
3.4476e-05
0.00018705
0.000261011
0.000192143
1.02354e-06
1.61212e-05
2.78489e-05
7.45589e-06
3.40659e-07
3.30943e-07
1.01156e-06
1.65438e-06
1.29658e-06
1.35948e-10
1.28099e-10
2.10567e-10
3.35195e-10
2.65818e-10
1.0638e-10
3.40534e-11
9.74616e-12
2.29732e-12
4.32845e-13
6.67916e-14
8.42307e-15
8.88862e-16
8.02983e-17
6.28787e-18
4.21807e-19
2.34965e-20
1.04957e-21
3.87828e-23
1.30754e-24
4.86372e-26
3.03474e-27
2.44061e-28
1.42319e-29
4.95096e-31
2.35303e-34
6.5531e-14
5.56249e-13
3.09971e-12
1.26834e-11
4.75429e-11
1.28453e-10
1.50184e-10
1.64867e-06
9.8504e-05
0.000100067
2.35506e-05
2.40117e-05
0.000126935
0.000259224
7.38371e-05
7.22185e-07
5.4297e-06
2.38448e-05
1.84248e-05
4.25811e-06
3.35821e-07
3.02051e-07
1.55838e-06
1.70564e-06
6.79617e-07
1.24745e-10
1.14037e-10
2.43007e-10
2.64166e-10
1.17685e-10