/*--------------------------------*- C++ -*----------------------------------*\
  =========                 |
  \\      /  F ield         | OpenFOAM: The Open Source CFD Toolbox
   \\    /   O peration     | Website:  https://openfoam.org
    \\  /    A nd           | Version:  9
     \\/     M anipulation  |
\*---------------------------------------------------------------------------*/
FoamFile
{
    format      ascii;
    class       surfaceScalarField;
    location    "0.09";
    object      alphaPhi0.water;
}
// * * * * * * * * * * * * * * * * * * * * * * * * * * * * * * * * * * * * * //

dimensions      [0 3 -1 0 0 0 0];

internalField   nonuniform List<scalar> 
9850
(
-2.30129e-23
2.46845e-22
-1.07189e-21
2.23246e-20
-1.71522e-20
3.75244e-19
-1.44058e-19
3.73651e-18
-1.14045e-18
3.16167e-17
0
3.63569e-16
0
6.28668e-15
0
1.03835e-13
0
1.65079e-12
-1.12521e-12
2.63465e-11
2.45791e-11
2.02407e-10
7.52014e-10
2.5213e-10
1.9539e-07
1.03707e-08
7.37758e-07
1.90242e-07
6.00982e-07
-3.5418e-07
5.28628e-07
-5.8218e-07
5.29764e-07
-6.59472e-07
5.6526e-07
-6.93833e-07
5.98868e-07
-6.93212e-07
6.19406e-07
-6.81009e-07
6.28378e-07
-5.54477e-07
6.33385e-07
-5.36338e-07
6.36352e-07
-5.23302e-07
6.3813e-07
-5.08648e-07
6.40256e-07
-4.83116e-07
6.43346e-07
-4.31042e-07
6.43434e-07
-3.37045e-07
6.30331e-07
-1.98176e-07
5.84777e-07
-1.79357e-08
2.02181e-07
1.45135e-07
3.64766e-10
2.57236e-08
0
9.72511e-10
2.72586e-11
5.49027e-10
0
1.25457e-10
0
3.79333e-11
0
1.25724e-11
0
3.61293e-12
0
9.17391e-13
0
2.32098e-13
0
6.09874e-14
0
1.64923e-14
4.16844e-16
3.90245e-15
5.08367e-16
1.36462e-15
4.41569e-16
8.08579e-16
3.23473e-16
5.53125e-16
2.12848e-16
3.64222e-16
1.30123e-16
2.24077e-16
7.48767e-17
1.28283e-16
3.9387e-17
7.14554e-17
2.77704e-17
-2.41761e-23
4.23145e-22
-9.50373e-22
2.3215e-20
-1.40091e-20
3.82258e-19
-1.34413e-19
3.82131e-18
-1.0857e-18
3.42552e-17
0
3.81909e-16
0
6.27573e-15
0
9.60149e-14
0
1.46249e-12
0
2.08882e-11
3.71286e-11
2.15527e-10
2.15072e-09
7.36136e-10
1.37347e-07
6.57153e-09
7.39355e-07
2.27608e-07
5.9277e-07
-1.83052e-07
5.26199e-07
-5.15576e-07
5.42301e-07
-6.75574e-07
5.83484e-07
-7.35015e-07
6.11244e-07
-7.20973e-07
6.19537e-07
-6.89302e-07
6.17413e-07
-5.52353e-07
6.12848e-07
-5.31773e-07
6.07089e-07
-5.17544e-07
5.98319e-07
-4.99878e-07
5.86772e-07
-4.7157e-07
5.77635e-07
-4.21907e-07
5.74812e-07
-3.34255e-07
5.68388e-07
-1.92062e-07
5.26643e-07
9.54731e-09
1.24821e-07
1.25689e-07
3.76707e-10
3.49533e-09
0
2.86503e-10
5.94659e-11
3.52951e-10
0
1.38649e-10
0
2.80646e-11
0
1.08564e-11
0
3.43825e-12
0
9.61298e-13
0
2.53976e-13
0
6.57325e-14
0
1.76546e-14
3.77084e-16
4.25217e-15
5.06736e-16
1.43097e-15
4.67812e-16
8.72126e-16
3.66242e-16
6.3316e-16
2.57598e-16
4.46048e-16
1.67451e-16
2.92581e-16
1.02088e-16
1.77727e-16
5.76714e-17
1.05045e-16
4.42695e-17
-1.7869e-23
4.57477e-22
-6.23219e-22
1.94711e-20
-9.33197e-21
3.09063e-19
-9.69984e-20
3.3609e-18
-8.14156e-19
3.36825e-17
0
3.67146e-16
0
5.54217e-15
0
8.00879e-14
0
1.19647e-12
1.54456e-12
1.59876e-11
5.77074e-11
2.73568e-10
6.95099e-10
1.00338e-09
2.45533e-08
1.35727e-09
6.59182e-07
2.14498e-07
6.01012e-07
8.08359e-09
5.47672e-07
-4.62174e-07
5.76388e-07
-7.04288e-07
6.15265e-07
-7.73893e-07
6.31953e-07
-7.37661e-07
6.26439e-07
-6.83788e-07
6.12511e-07
-5.38425e-07
5.98459e-07
-5.17722e-07
5.85813e-07
-5.04897e-07
5.68082e-07
-4.82147e-07
5.37738e-07
-4.41226e-07
5.00781e-07
-3.84953e-07
4.77449e-07
-3.10951e-07
4.77024e-07
-1.92987e-07
3.91626e-07
-3.71749e-09
2.31791e-08
5.07056e-08
1.5157e-10
1.12522e-09
0
1.52821e-10
1.77912e-11
2.94743e-10
0
1.89837e-10
0
2.34925e-11
0
8.95397e-12
0
3.00121e-12
0
9.20968e-13
0
2.6347e-13
0
6.98998e-14
0
1.84599e-14
3.57048e-16
4.40395e-15
4.89882e-16
1.45662e-15
4.76973e-16
9.13517e-16
3.97418e-16
7.00234e-16
2.96966e-16
5.23387e-16
2.0402e-16
3.63533e-16
1.31318e-16
2.33563e-16
7.91675e-17
1.45753e-16
6.58701e-17
-9.4148e-24
3.81796e-22
-2.97707e-22
1.30314e-20
-4.91547e-21
2.12186e-19
-5.84683e-20
2.66972e-18
-5.08705e-19
2.84742e-17
0
2.98668e-16
0
4.27286e-15
0
6.36071e-14
0
9.53512e-13
3.38746e-12
1.47886e-11
5.08627e-11
3.08685e-10
3.24253e-10
1.31959e-09
4.72848e-09
3.21143e-10
5.73997e-07
1.398e-07
6.80891e-07
2.17408e-07
6.3176e-07
-4.12683e-07
6.47531e-07
-7.20054e-07
6.63626e-07
-7.89988e-07
6.62224e-07
-7.36259e-07
6.42035e-07
-6.63599e-07
6.16931e-07
-5.1332e-07
5.9419e-07
-4.94981e-07
5.79024e-07
-4.89731e-07
5.63237e-07
-4.6636e-07
5.26043e-07
-4.04033e-07
4.62854e-07
-3.21775e-07
4.13253e-07
-2.61464e-07
4.13875e-07
-2.01497e-07
3.02474e-07
-8.4277e-08
2.98363e-09
6.24446e-09
0
3.04979e-10
1.73568e-11
1.81213e-10
1.06889e-11
4.72617e-10
0
1.78337e-10
0
2.12963e-11
0
7.55951e-12
0
2.4646e-12
0
8.03622e-13
0
2.45182e-13
0
7.13495e-14
0
1.91035e-14
3.35368e-16
4.45485e-15
4.73923e-16
1.45567e-15
4.81256e-16
9.48252e-16
4.18547e-16
7.61985e-16
3.27429e-16
5.95768e-16
2.3594e-16
4.33826e-16
1.59452e-16
2.93447e-16
1.01442e-16
1.92293e-16
9.159e-17
-3.15963e-24
2.45786e-22
-1.09733e-22
8.4041e-21
-2.19183e-21
1.5468e-19
-2.69401e-20
2.14015e-18
-2.27435e-19
2.14444e-17
0
2.23818e-16
0
3.21112e-15
0
4.95131e-14
4.82182e-14
7.39295e-13
4.3917e-12
1.40761e-11
9.37559e-11
2.82795e-10
5.0413e-10
1.56023e-09
4.73546e-09
3.36435e-10
3.90679e-07
5.72192e-08
9.1194e-07
2.65753e-07
8.09979e-07
-3.09122e-07
7.62581e-07
-6.72621e-07
7.2632e-07
-7.53726e-07
6.98509e-07
-7.08448e-07
6.66278e-07
-6.31367e-07
6.32509e-07
-4.79551e-07
6.02425e-07
-4.64897e-07
5.88157e-07
-4.75463e-07
5.89077e-07
-4.67281e-07
5.75032e-07
-3.89994e-07
5.23551e-07
-2.70338e-07
4.81603e-07
-2.20678e-07
4.5887e-07
-2.43392e-07
1.05052e-07
-8.26396e-08
1.56559e-09
5.80894e-11
0
8.68448e-11
2.41878e-11
1.32101e-10
1.55752e-10
4.02402e-10
0
1.75831e-10
0
1.74247e-11
0
7.38938e-12
0
2.27438e-12
0
6.83443e-13
0
2.06714e-13
0
6.5103e-14
0
1.88503e-14
3.12718e-16
4.33038e-15
4.5159e-16
1.41529e-15
4.77319e-16
9.58559e-16
4.32126e-16
8.09965e-16
3.50768e-16
6.61574e-16
2.63421e-16
5.01892e-16
1.86541e-16
3.54681e-16
1.25161e-16
2.41949e-16
1.1912e-16
-2.44313e-25
1.62834e-22
-2.00111e-23
5.97397e-21
-5.39491e-22
1.21112e-19
-6.35219e-21
1.73137e-18
-4.32691e-20
1.62415e-17
-2.20785e-20
1.70339e-16
2.72863e-17
2.44417e-15
1.64631e-15
3.56765e-14
9.12046e-14
5.91268e-13
5.97415e-12
1.16763e-11
4.53714e-11
3.22373e-10
5.02655e-10
1.4564e-09
2.13499e-09
1.48112e-10
1.52609e-07
7.07079e-09
1.07722e-06
1.09053e-07
1.02527e-06
-1.52451e-07
8.87562e-07
-5.34782e-07
7.85952e-07
-6.52112e-07
7.3382e-07
-6.56316e-07
6.96082e-07
-5.93629e-07
6.58493e-07
-4.41962e-07
6.21721e-07
-4.28125e-07
6.04821e-07
-4.58563e-07
6.21745e-07
-4.84211e-07
6.4153e-07
-4.09832e-07
6.30049e-07
-2.59731e-07
6.00754e-07
-2.14544e-07
2.96302e-07
-1.45204e-07
1.76333e-09
-1.40054e-08
0
9.99686e-12
8.09064e-11
9.89241e-12
1.68603e-10
6.98797e-11
2.32322e-10
2.67192e-10
5.15321e-12
3.07373e-10
0
2.13966e-11
4.05414e-13
9.1169e-12
0
2.27433e-12
0
6.50523e-13
0
1.80019e-13
0
5.36467e-14
0
1.70529e-14
2.75782e-16
3.96568e-15
4.21332e-16
1.3774e-15
4.60322e-16
9.50925e-16
4.35188e-16
8.38703e-16
3.66986e-16
7.17609e-16
2.85466e-16
5.67945e-16
2.09341e-16
4.17362e-16
1.45415e-16
2.93836e-16
1.46015e-16
7.24994e-25
1.21374e-22
2.18194e-23
4.47426e-21
4.16664e-22
9.68326e-20
6.25202e-21
1.37517e-18
7.63784e-20
1.24828e-17
1.84048e-18
1.32006e-16
9.46788e-17
1.85025e-15
3.05266e-15
2.22559e-14
9.51884e-14
5.92181e-13
8.205e-12
6.183e-12
3.08868e-11
3.51398e-10
3.50295e-10
1.39723e-09
3.79918e-10
5.74747e-11
1.05029e-08
2.69156e-10
5.27454e-07
3.91212e-08
1.08752e-06
-5.63602e-08
9.42458e-07
-3.87851e-07
8.16746e-07
-5.26366e-07
7.61092e-07
-6.00665e-07
7.26183e-07
-5.58722e-07
6.89414e-07
-4.05193e-07
6.48326e-07
-3.87043e-07
6.19478e-07
-4.29726e-07
6.26898e-07
-4.91691e-07
6.45465e-07
-4.29277e-07
6.04845e-07
-2.43654e-07
3.39047e-07
-1.09649e-07
1.3593e-08
-1.76258e-08
0
-4.38279e-10
1.28142e-11
0
3.68924e-11
0
1.55454e-10
2.78197e-12
9.7413e-11
1.15751e-10
1.41609e-11
2.3911e-10
0
3.1029e-11
5.6076e-13
9.01334e-12
0
2.42185e-12
0
6.06387e-13
0
1.78395e-13
0
4.80655e-14
0
1.40718e-14
2.99348e-16
3.21348e-15
4.09027e-16
1.3131e-15
4.38163e-16
9.4528e-16
4.24256e-16
8.59883e-16
3.73764e-16
7.63955e-16
3.01549e-16
6.31078e-16
2.27305e-16
4.81874e-16
1.61421e-16
3.47949e-16
1.71139e-16
1.1941e-24
9.88674e-23
4.12372e-23
3.57787e-21
9.09164e-22
7.85798e-20
1.33432e-20
1.08178e-18
1.40228e-19
9.69293e-18
2.41751e-18
1.01733e-16
1.03635e-16
1.32431e-15
4.48875e-15
1.30962e-14
5.41295e-14
6.51141e-13
7.97021e-12
2.38518e-12
8.57271e-11
3.25762e-10
1.31854e-10
2.02217e-10
6.85073e-11
4.5573e-11
3.81177e-10
1.35185e-10
4.38055e-08
0
6.49609e-07
-1.03936e-09
9.15394e-07
-2.26504e-07
8.23886e-07
-4.34866e-07
7.81571e-07
-5.58403e-07
7.50828e-07
-5.27975e-07
7.20146e-07
-3.74512e-07
6.88694e-07
-3.55662e-07
6.52876e-07
-3.94342e-07
6.18524e-07
-4.60678e-07
5.26426e-07
-3.31805e-07
2.0361e-07
-6.99636e-08
1.66023e-08
-5.50426e-09
0
-4.46286e-10
1.28048e-12
-1.09316e-11
7.22299e-13
0
1.82989e-12
0
2.3024e-11
8.07828e-13
6.18705e-11
6.04462e-13
1.51271e-10
2.49571e-10
1.77579e-12
2.16312e-10
0
6.02566e-12
1.0796e-13
2.46717e-12
0
5.69143e-13
0
1.87632e-13
0
4.83639e-14
0
1.28201e-14
3.30667e-16
2.53694e-15
4.05559e-16
1.25724e-15
4.141e-16
9.58518e-16
4.04204e-16
8.8257e-16
3.70037e-16
8.04017e-16
3.10398e-16
6.90051e-16
2.40126e-16
5.47628e-16
1.72911e-16
4.0399e-16
1.93788e-16
1.50189e-24
8.73402e-23
5.46391e-23
3.2163e-21
1.19289e-21
6.76895e-20
1.65933e-20
8.63201e-19
1.64947e-19
7.56486e-18
2.34487e-18
7.58062e-17
9.09907e-17
8.72369e-16
5.64149e-15
1.12985e-14
9.94758e-14
6.2716e-13
8.11642e-12
7.90069e-12
2.63097e-11
3.74174e-10
3.29254e-11
5.66961e-11
2.94566e-11
6.99172e-11
1.59419e-10
3.10164e-10
2.96916e-10
4.66572e-11
2.57728e-09
-1.27353e-11
5.7031e-07
-1.11494e-09
8.37533e-07
-1.79463e-07
7.93206e-07
-4.26341e-07
7.60358e-07
-4.8778e-07
7.52155e-07
-3.58517e-07
7.47097e-07
-3.21158e-07
6.70772e-07
-2.65907e-07
3.78995e-07
-1.52468e-07
8.11231e-08
-2.98325e-08
4.80939e-09
0
9.72611e-14
-1.38739e-10
6.00359e-13
-1.13206e-11
0
-1.25774e-12
2.97275e-16
-6.02083e-14
3.86504e-13
1.45586e-14
6.25089e-12
1.47127e-13
3.96724e-11
6.30223e-12
1.54363e-10
2.28573e-10
4.25525e-11
2.86831e-10
0
2.15332e-11
0
2.02394e-12
0
6.00617e-13
0
1.75329e-13
0
5.42879e-14
0
1.28536e-14
3.49006e-16
2.21351e-15
3.85387e-16
1.21776e-15
3.86859e-16
9.73834e-16
3.79695e-16
9.07738e-16
3.57168e-16
8.40348e-16
3.10851e-16
7.43756e-16
2.46879e-16
6.1195e-16
1.79307e-16
4.59478e-16
2.12163e-16
1.82921e-24
8.54209e-23
6.79445e-23
3.12014e-21
1.44106e-21
6.34908e-20
1.79742e-20
7.40199e-19
1.65994e-19
6.02376e-18
2.18836e-18
5.4452e-17
9.92931e-17
7.05114e-16
3.6889e-15
1.51176e-14
1.96432e-13
2.65974e-13
1.01729e-11
1.88781e-11
4.30275e-11
3.70978e-10
3.95328e-11
1.0423e-10
7.91208e-11
1.81165e-10
2.90852e-10
3.86706e-10
0
3.44842e-11
1.60195e-11
-2.10455e-12
4.98483e-10
-3.89355e-12
2.59056e-07
-1.04271e-09
4.35945e-07
-1.56983e-09
4.26391e-07
-1.10398e-09
4.07274e-07
-1.1901e-09
2.72783e-07
-4.88995e-10
1.08604e-07
-7.09579e-10
2.86869e-08
-1.10959e-10
1.09487e-10
-1.30918e-10
8.2736e-11
0
1.31828e-11
-1.59771e-11
0
-1.20071e-12
0
-1.66485e-13
4.81175e-14
-2.17191e-14
1.77508e-13
7.22503e-15
1.75394e-12
1.03355e-13
4.77979e-11
1.80464e-12
1.20574e-10
4.89472e-11
1.22424e-10
2.62146e-10
2.13571e-12
1.10753e-10
0
3.31007e-12
5.10419e-15
7.41412e-13
0
1.39892e-13
0
5.41587e-14
0
1.38589e-14
3.61844e-16
2.16067e-15
3.5935e-16
1.19714e-15
3.54852e-16
9.93105e-16
3.4969e-16
9.32064e-16
3.3564e-16
8.72778e-16
3.0132e-16
7.90258e-16
2.45177e-16
6.69907e-16
1.78876e-16
5.08453e-16
2.2401e-16
2.33633e-24
9.17499e-23
8.27971e-23
3.10141e-21
1.70165e-21
6.13775e-20
2.0004e-20
7.0036e-19
1.67392e-19
5.32456e-18
2.1579e-18
4.34286e-17
7.44455e-17
6.54735e-16
2.1827e-15
1.62533e-14
2.48859e-13
1.14359e-13
5.3174e-12
3.55873e-11
4.61006e-11
3.49428e-10
5.53925e-11
1.12044e-10
1.03028e-10
2.13876e-10
3.00129e-10
5.01192e-10
0
3.66869e-12
1.74471e-12
-3.33199e-13
3.95796e-12
-4.4387e-12
2.71009e-11
-2.2203e-11
4.23789e-11
-2.16424e-11
4.02103e-11
-3.74743e-11
3.90934e-11
-2.70972e-11
1.8088e-11
-9.73321e-12
3.29072e-11
-3.01176e-11
1.8503e-11
-1.35878e-11
3.8978e-11
-3.99799e-12
4.2681e-11
7.00467e-14
2.70001e-12
-2.21519e-12
0
-1.45341e-13
0
-3.47787e-14
2.60103e-14
-1.00864e-14
9.84066e-14
7.25618e-15
2.80156e-13
3.63272e-14
5.79075e-12
4.63209e-13
8.22624e-11
3.01361e-11
1.06544e-10
2.50089e-10
5.75299e-12
2.60549e-10
0
7.55721e-12
0
7.33528e-13
0
1.40421e-13
2.95541e-16
4.82844e-14
0
1.44595e-14
3.4382e-16
2.24974e-15
3.22066e-16
1.18397e-15
3.16702e-16
1.00959e-15
3.13229e-16
9.54884e-16
3.0531e-16
9.01065e-16
2.80027e-16
8.27382e-16
2.3261e-16
7.15801e-16
1.75409e-16
5.42905e-16
2.27836e-16
3.04208e-24
1.01811e-22
9.66153e-23
3.07831e-21
1.92154e-21
5.85931e-20
2.24843e-20
6.77122e-19
1.77358e-19
4.9498e-18
1.99513e-18
3.63799e-17
6.0492e-17
5.60081e-16
1.60776e-15
1.16463e-14
1.61418e-13
7.1005e-14
3.82133e-12
7.33972e-11
4.62492e-11
3.22633e-10
3.18658e-11
1.07281e-10
2.17102e-10
1.36508e-10
2.3367e-10
2.13267e-10
1.967e-12
2.13097e-13
1.66046e-12
-8.85988e-14
3.80535e-12
-1.84764e-12
3.54362e-11
-8.50555e-13
1.45152e-11
-7.94469e-12
1.86641e-11
-1.58138e-11
4.8698e-12
-9.58921e-12
9.99308e-12
-4.39443e-12
2.40555e-11
-8.15345e-12
7.94794e-12
-3.9708e-12
8.11573e-12
-1.35242e-12
2.09961e-12
-3.40212e-13
1.65602e-13
-1.22489e-13
5.98042e-14
-4.13125e-14
6.71989e-14
-1.54835e-14
8.51515e-14
-5.10521e-15
1.09297e-13
9.43596e-15
3.40747e-13
3.44334e-14
3.16043e-11
9.76905e-12
7.53769e-11
4.20089e-11
1.15489e-10
2.37396e-10
3.3046e-11
3.24721e-10
3.16193e-13
1.58879e-11
0
1.14192e-12
0
2.2201e-13
0
3.94066e-14
0
1.38073e-14
2.72832e-16
2.40329e-15
2.66657e-16
1.17349e-15
2.71045e-16
1.02411e-15
2.70092e-16
9.78519e-16
2.64763e-16
9.27295e-16
2.46648e-16
8.56421e-16
2.07317e-16
7.46089e-16
1.48202e-16
5.58042e-16
2.14659e-16
3.59235e-24
1.02842e-22
1.07021e-22
2.95537e-21
2.02899e-21
5.36859e-20
2.41315e-20
6.52119e-19
1.75658e-19
4.62599e-18
1.65765e-18
3.19729e-17
5.29427e-17
5.15228e-16
1.83649e-15
8.02936e-15
2.5001e-13
8.77706e-14
7.25157e-12
1.96619e-10
4.32053e-11
3.04678e-10
3.05861e-11
1.17676e-10
3.37744e-11
2.29304e-10
3.92011e-11
0
0
8.17718e-16
5.50612e-14
-4.18352e-14
1.2628e-12
-3.95269e-13
2.62878e-12
-6.84033e-13
5.40812e-12
-1.37877e-12
5.82443e-12
-2.23727e-12
2.90637e-12
-1.70313e-12
1.92326e-12
-1.18839e-12
1.06951e-12
-6.88674e-13
7.91599e-13
-3.65094e-13
2.9999e-13
-1.19854e-13
1.45723e-13
-5.11681e-14
8.41345e-14
-2.43617e-14
8.64933e-14
-1.67129e-14
8.50158e-14
-1.08077e-14
8.41907e-14
-1.26448e-15
9.7641e-14
1.21498e-14
2.27535e-12
7.62766e-14
5.22313e-11
1.95545e-11
6.07256e-11
4.05579e-11
1.10466e-10
2.28328e-10
3.26121e-11
2.57947e-10
7.17884e-13
3.8344e-11
0
1.6178e-12
3.94027e-15
3.63159e-13
0
3.6074e-14
1.62482e-16
1.25133e-14
1.86789e-16
2.53114e-15
2.04622e-16
1.15836e-15
2.17997e-16
1.03993e-15
2.20076e-16
1.00556e-15
2.16203e-16
9.58201e-16
2.02182e-16
8.82168e-16
1.69913e-16
7.63534e-16
1.1831e-16
5.56346e-16
1.92469e-16
3.964e-24
1.01964e-22
1.11334e-22
2.74716e-21
2.09843e-21
5.16822e-20
2.66398e-20
6.50509e-19
1.98451e-19
4.82767e-18
1.74766e-18
3.32147e-17
6.86712e-17
5.68292e-16
5.90259e-15
6.5098e-15
1.38177e-12
2.75494e-13
2.07272e-11
1.19162e-10
3.54289e-11
1.39148e-10
3.39031e-11
1.27788e-10
3.20607e-11
3.09307e-10
1.33944e-13
5.30203e-12
8.44673e-15
2.90791e-16
5.19405e-14
-3.79228e-14
4.92198e-14
-5.83126e-14
1.72989e-13
-1.03017e-13
1.95044e-13
-1.27263e-13
1.20646e-13
-1.27845e-13
1.25316e-13
-1.04095e-13
1.91864e-13
-1.5445e-13
1.97822e-13
-1.53275e-13
1.1671e-13
-1.09821e-13
7.47028e-14
-5.03004e-16
8.53264e-14
-8.30297e-15
8.65897e-14
-2.2479e-14
8.6636e-14
-1.45426e-14
8.77277e-14
-7.37103e-15
8.71104e-14
2.3197e-15
1.08059e-13
1.62848e-14
3.09068e-12
1.01267e-13
5.74489e-11
1.78277e-11
9.15164e-11
5.04326e-11
7.34163e-11
2.94001e-11
5.99033e-11
2.05064e-10
3.21274e-13
4.82514e-11
0
1.65027e-12
6.56137e-15
3.36727e-13
0
3.92629e-14
4.15994e-17
9.66311e-15
1.06226e-16
2.53869e-15
1.44087e-16
1.14109e-15
1.58122e-16
1.05385e-15
1.63607e-16
1.03939e-15
1.61253e-16
9.98328e-16
1.49383e-16
9.09676e-16
1.25751e-16
7.69334e-16
8.32564e-17
5.3517e-16
1.6023e-16
4.37188e-24
1.03394e-22
1.17377e-22
2.70836e-21
2.31443e-21
5.21715e-20
3.15641e-20
7.36264e-19
2.70872e-19
6.59251e-18
2.95323e-18
5.3253e-17
1.85228e-16
1.14766e-15
2.89922e-14
1.34924e-14
1.08278e-12
1.94852e-12
7.20057e-12
1.31935e-11
1.37357e-11
4.79752e-11
4.22962e-11
1.37824e-10
4.69429e-11
2.69782e-10
1.42698e-13
3.27684e-11
0
-8.21242e-15
1.55045e-14
-2.26564e-14
3.08826e-14
-1.51144e-14
4.10894e-14
-3.18721e-14
4.16015e-14
-2.63149e-14
4.85111e-14
-3.21667e-14
5.09429e-14
-3.94657e-14
7.70471e-14
-4.45666e-14
9.23495e-14
-1.51293e-16
9.31787e-14
0
9.9339e-14
0
8.3531e-14
0
8.19653e-14
-1.86199e-14
8.51331e-14
-1.26518e-14
8.50485e-14
-5.1728e-15
8.62056e-14
6.06163e-15
1.00408e-13
2.12976e-14
1.33048e-12
7.25472e-14
3.50985e-11
1.62098e-11
5.13146e-11
5.43416e-11
2.55781e-11
1.17865e-11
2.03475e-11
3.10021e-11
0
3.02011e-11
0
8.07984e-13
0
2.01582e-13
0
6.07568e-14
0
6.34505e-15
6.70578e-17
2.33069e-15
8.50062e-17
1.14299e-15
9.36508e-17
1.07147e-15
1.00351e-16
1.07709e-15
9.97158e-17
1.03016e-15
9.21718e-17
9.36948e-16
7.66877e-17
7.62186e-16
4.92562e-17
4.89881e-16
1.21862e-16
4.9947e-24
1.12064e-22
1.30257e-22
2.83207e-21
2.72422e-21
5.89486e-20
4.26796e-20
9.41588e-19
4.31243e-19
9.42755e-18
7.42596e-18
8.10909e-17
5.24701e-16
1.52106e-15
2.70912e-14
3.17974e-14
4.00468e-13
1.26624e-12
3.85621e-12
1.12117e-11
2.28738e-11
1.38197e-10
2.6723e-11
1.2149e-10
5.29597e-11
2.57944e-10
1.39087e-13
3.12824e-11
0
-1.56241e-14
1.10987e-14
-8.44163e-15
2.25094e-14
-5.25605e-16
2.66291e-14
-2.20859e-14
2.79435e-14
-2.78542e-14
3.03554e-14
-3.45504e-14
3.61099e-14
-3.33597e-14
4.06961e-14
-3.54061e-14
8.7112e-14
0
3.06497e-13
-4.6776e-13
9.66042e-13
-2.80534e-12
9.69526e-14
-9.51832e-13
8.13003e-14
0
8.45958e-14
-1.38131e-14
8.13787e-14
-3.24126e-15
7.93427e-14
1.01088e-14
9.42817e-14
2.72615e-14
4.98438e-13
6.16466e-14
1.30665e-11
1.13033e-11
2.21794e-11
5.8337e-11
1.83913e-12
2.88181e-11
1.62078e-12
2.51893e-12
8.93928e-13
1.3353e-11
0
4.33234e-13
0
6.19095e-14
1.5879e-16
5.64447e-14
0
6.06822e-15
2.76297e-17
1.7195e-15
2.29558e-17
1.1417e-15
2.60305e-17
1.10158e-15
2.96349e-17
1.0979e-15
3.16269e-17
1.03278e-15
3.349e-17
9.4769e-16
2.97862e-17
7.30854e-16
1.95681e-17
4.19587e-16
8.09995e-17
5.73531e-24
1.17142e-22
1.48584e-22
3.00523e-21
3.2737e-21
6.39304e-20
5.30551e-20
1.00752e-18
5.49046e-19
1.00693e-17
7.44863e-18
8.37199e-17
3.5757e-16
1.50397e-15
8.33422e-15
1.54902e-14
1.46745e-13
6.01822e-13
2.73014e-12
8.78397e-12
2.14941e-11
1.01474e-10
3.30329e-11
1.24904e-10
3.90551e-11
2.75854e-10
2.87323e-13
2.07875e-11
0
-1.90945e-14
1.94946e-14
-1.75024e-14
3.24024e-14
-1.55016e-14
2.62611e-14
-2.09595e-14
2.71306e-14
-2.89299e-14
2.93658e-14
-3.70197e-14
3.25966e-14
-3.66835e-14
7.06579e-14
-4.14062e-14
2.19954e-12
-1.64028e-12
4.83488e-12
-3.57715e-12
5.69814e-12
-3.86771e-12
2.75091e-12
-3.05742e-12
8.74627e-14
-1.05685e-12
8.40076e-14
-2.4797e-14
8.0246e-14
-8.38116e-16
7.43359e-14
1.46585e-14
8.64823e-14
3.42115e-14
4.37231e-13
7.08431e-14
1.74825e-11
1.35994e-11
1.26701e-11
6.35454e-11
4.52345e-13
6.20343e-11
1.83291e-14
1.50176e-12
4.81562e-14
3.35856e-13
-4.83393e-15
3.18371e-13
-3.01113e-15
5.97955e-14
-1.09879e-15
1.89104e-14
-1.79822e-16
6.77775e-15
-5.60532e-17
1.27329e-15
-4.59061e-17
1.14353e-15
-4.53732e-17
1.13204e-15
-4.26191e-17
1.09737e-15
-3.85085e-17
1.03056e-15
-2.95e-17
9.37551e-16
-1.3142e-17
6.6376e-16
-5.38587e-19
3.21148e-16
4.33511e-17
6.0753e-24
1.17011e-22
1.60041e-22
3.01387e-21
3.50508e-21
6.39421e-20
5.55306e-20
9.91802e-19
5.29184e-19
8.84064e-18
4.45336e-18
5.70731e-17
1.22399e-16
7.83493e-16
1.24976e-14
7.47009e-15
5.09604e-13
1.13449e-12
5.99194e-12
8.4347e-11
1.43135e-11
8.56487e-11
4.18098e-11
3.18974e-10
2.97126e-11
2.58269e-10
1.15999e-12
1.52891e-11
0
-1.38703e-14
4.85935e-15
-1.84664e-14
3.17323e-14
-4.65758e-14
2.96975e-14
-2.51866e-14
2.51615e-14
-2.47827e-14
3.05146e-14
-4.24867e-14
5.04625e-14
-3.82414e-14
2.04496e-13
-6.79296e-14
4.22961e-12
-1.68253e-12
6.03737e-12
-5.59377e-12
6.39345e-12
-4.4102e-12
6.60354e-12
-3.36472e-12
2.85035e-12
-2.29058e-12
9.61727e-14
-1.17512e-13
7.80893e-14
3.30837e-15
7.63097e-14
2.07062e-14
8.27646e-14
4.57135e-14
5.00893e-13
8.65274e-14
1.55128e-11
1.55259e-11
8.3656e-12
7.10723e-11
1.14808e-12
8.06536e-11
-1.57899e-14
7.0607e-13
-3.60044e-14
1.07757e-13
-1.94493e-14
2.81119e-13
-3.53927e-15
6.26016e-14
-1.16969e-15
6.25305e-15
-2.7081e-16
5.13771e-15
-1.42388e-16
1.23733e-15
-1.14927e-16
1.1622e-15
-1.16164e-16
1.14977e-15
-1.12108e-16
1.09461e-15
-1.03463e-16
1.0247e-15
-8.75252e-17
9.04889e-16
-4.41342e-17
5.45061e-16
-7.79199e-18
2.03241e-16
1.67032e-17
5.89985e-24
1.02174e-22
1.58667e-22
2.74738e-21
3.35328e-21
5.50105e-20
5.10051e-20
8.09558e-19
4.11592e-19
6.30392e-18
2.44554e-18
3.38111e-17
1.33361e-16
5.31765e-16
1.31184e-14
5.07631e-15
1.79255e-12
3.82807e-12
1.16506e-11
1.09006e-10
2.7859e-11
1.06742e-10
7.93653e-11
5.81836e-10
6.24157e-11
2.46363e-10
1.10879e-12
9.64789e-12
0
-2.8875e-15
2.62522e-14
-2.773e-14
2.94925e-14
-3.84217e-14
1.91677e-14
-1.11759e-14
3.13613e-14
0
4.48446e-14
0
7.31148e-14
0
4.61603e-13
-1.30563e-13
3.68419e-12
-1.06346e-13
6.45049e-12
-1.16695e-13
6.45017e-12
-4.51186e-12
6.61259e-12
-3.59079e-12
6.69184e-12
-2.303e-12
1.22517e-13
-2.39269e-13
5.00808e-14
1.37845e-14
5.91703e-14
3.17204e-14
7.54268e-14
6.32189e-14
4.99761e-13
1.01885e-13
6.06117e-12
1.45879e-11
7.62848e-12
7.89272e-11
-2.33265e-14
8.09949e-11
-3.32964e-14
4.51811e-13
-5.36221e-14
2.58048e-14
-3.40967e-14
2.15895e-13
-3.35823e-15
6.63133e-14
-8.08785e-16
3.48859e-15
-2.33232e-16
1.78505e-15
-1.97318e-16
1.25937e-15
-1.83443e-16
1.19509e-15
-1.82146e-16
1.15371e-15
-1.74676e-16
1.08844e-15
-1.62343e-16
1.01151e-15
-1.20993e-16
8.11495e-16
-4.68976e-17
3.75324e-16
-5.22151e-18
9.85073e-17
4.12098e-18
4.92859e-24
8.00396e-23
1.50579e-22
2.58984e-21
2.94607e-21
4.88124e-20
4.12948e-20
6.55969e-19
3.38987e-19
5.5659e-18
2.30406e-18
3.32122e-17
1.35346e-16
5.49961e-16
1.32929e-14
4.85828e-15
2.8568e-12
3.44517e-12
1.7714e-11
7.16462e-11
2.84155e-11
2.86694e-10
9.12573e-11
5.24542e-10
9.24358e-11
2.52328e-10
2.82161e-13
5.79686e-12
0
1.01026e-14
4.32313e-14
-1.0129e-14
5.94907e-14
-2.19344e-14
5.18543e-14
-6.93502e-15
2.72015e-13
-6.35862e-13
1.10289e-12
-1.26948e-11
9.60732e-13
-2.4313e-12
9.27633e-14
-8.69129e-14
1.71908e-14
-3.27818e-14
9.54655e-14
-1.4346e-14
5.92664e-12
-4.64143e-14
5.97513e-12
-3.7365e-12
5.88092e-12
-2.33718e-12
8.62877e-13
-6.26232e-13
4.31184e-14
5.22868e-14
2.84594e-14
4.17162e-14
1.24561e-13
1.97912e-13
3.84793e-13
3.19758e-13
2.32651e-12
6.52687e-12
1.44232e-12
8.48532e-11
-4.46839e-13
7.53175e-11
-2.25607e-14
1.25871e-13
-2.54083e-14
1.37776e-14
-4.42914e-14
3.67719e-14
-2.05711e-15
8.71326e-14
-5.61614e-16
1.98744e-15
-2.6644e-16
1.51481e-15
-2.50099e-16
1.25792e-15
-2.46821e-16
1.20395e-15
-2.42006e-16
1.14763e-15
-2.32168e-16
1.07736e-15
-2.11526e-16
9.81244e-16
-1.15309e-16
6.11196e-16
-3.08769e-17
2.02825e-16
-1.783e-18
3.60905e-17
7.16816e-19
4.57101e-24
7.71402e-23
1.62305e-22
2.78775e-21
2.99388e-21
4.86788e-20
4.05146e-20
6.49135e-19
3.6042e-19
5.62559e-18
3.48309e-18
5.45996e-17
1.71521e-16
9.90843e-16
1.5625e-14
3.21266e-15
1.70789e-12
4.69725e-12
2.38459e-11
1.50402e-11
4.81556e-11
3.3195e-10
1.01951e-10
5.35791e-10
5.38769e-11
9.84394e-11
1.52296e-13
9.54971e-13
8.56684e-14
2.79275e-14
7.35633e-14
-5.08952e-15
5.9951e-14
-2.03101e-14
4.52633e-12
0
2.31905e-11
-1.99441e-11
1.62834e-11
-3.17868e-11
1.10571e-14
-7.3704e-12
0
-1.29458e-13
1.06032e-14
-1.73999e-14
1.47866e-14
-1.09285e-14
7.75174e-14
-9.36996e-15
6.17932e-12
-1.71261e-12
5.7136e-12
-2.10742e-12
5.61987e-12
-2.41203e-13
1.88883e-13
3.51595e-13
8.79958e-14
9.14134e-14
1.07856e-13
2.7494e-12
1.14357e-12
4.01263e-11
1.95762e-12
9.81114e-12
-5.66678e-12
2.47279e-11
-1.4123e-13
5.87369e-11
-1.15855e-14
4.4043e-14
-1.68494e-14
1.39145e-14
-4.62422e-14
3.23942e-14
-9.12432e-16
1.01383e-13
-4.53226e-16
1.50749e-15
-3.11181e-16
1.36777e-15
-3.08701e-16
1.25537e-15
-3.04862e-16
1.20513e-15
-2.96749e-16
1.13743e-15
-2.84695e-16
1.05708e-15
-2.14959e-16
8.71654e-16
-7.76319e-17
3.49981e-16
-1.40409e-17
8.48423e-17
-4.46104e-19
1.06577e-17
1.3491e-19
5.07669e-24
8.77602e-23
2.12761e-22
4.01533e-21
3.40186e-21
5.82055e-20
4.60942e-20
7.6438e-19
4.55616e-19
7.46878e-18
7.83412e-18
8.41199e-17
4.8066e-16
1.69363e-15
9.82591e-14
2.29845e-14
8.81413e-13
2.76155e-12
1.3032e-11
7.3249e-12
5.75433e-11
1.45735e-10
3.80057e-11
5.76049e-10
7.55424e-12
6.13758e-12
0
3.45976e-12
1.77825e-13
2.92725e-13
1.02557e-13
-2.11262e-15
6.94091e-13
-3.77017e-13
9.79828e-12
-8.97858e-12
2.63931e-11
-2.30058e-11
3.21059e-11
-1.49285e-11
1.46074e-13
-1.04657e-12
1.66202e-14
-9.81232e-14
1.60584e-14
-1.71019e-14
1.29383e-14
-1.11954e-14
2.45876e-14
-8.86626e-15
4.11766e-12
-6.1089e-14
6.2654e-12
-2.11316e-12
3.96293e-12
2.29473e-13
9.8778e-13
4.18572e-13
1.06119e-12
3.13422e-13
1.60291e-11
6.01636e-11
7.29865e-12
1.20227e-10
-6.62873e-13
1.0619e-11
-5.17377e-12
2.78102e-12
-3.90414e-14
3.96606e-12
-5.77771e-15
1.8323e-14
-8.63168e-15
1.49034e-14
-2.90985e-14
1.89631e-14
-3.63364e-16
1.1017e-13
-4.25323e-16
1.38936e-15
-3.65372e-16
1.30891e-15
-3.64032e-16
1.2509e-15
-3.5802e-16
1.19698e-15
-3.45137e-16
1.1229e-15
-3.16407e-16
1.0129e-15
-1.52829e-16
5.99498e-16
-3.8011e-17
1.54495e-16
-4.876e-18
2.88591e-17
-1.03412e-19
2.74139e-18
2.74109e-20
7.76738e-24
1.5578e-22
3.70501e-22
7.67539e-21
4.5389e-21
8.34329e-20
5.84838e-20
9.76848e-19
6.81977e-19
1.08137e-17
1.62705e-17
1.11028e-16
1.01121e-15
2.30915e-15
2.263e-14
4.28032e-14
2.87336e-13
3.41198e-13
4.89284e-12
3.29209e-12
6.80075e-11
1.31818e-10
5.34811e-11
5.55372e-10
0
4.4269e-11
3.17771e-12
2.40138e-11
6.94957e-13
1.09145e-12
7.79568e-13
-8.9242e-16
1.60104e-11
-2.66793e-12
4.16592e-11
-1.72087e-11
2.99444e-11
-3.71401e-12
6.96558e-13
0
0
-3.18838e-13
4.47895e-14
-5.56462e-13
1.39828e-14
-2.02147e-14
1.34634e-14
-1.20943e-14
1.20336e-14
-9.02148e-15
5.6591e-13
-7.14849e-15
4.71305e-12
-2.48115e-14
4.06111e-12
1.81611e-13
3.50379e-12
6.68914e-13
2.0303e-11
1.50698e-11
1.64183e-11
9.05e-11
5.37037e-13
1.17723e-10
-2.20134e-12
7.03083e-11
-1.78546e-12
2.11102e-12
-5.51488e-13
2.29232e-13
-1.65515e-14
1.63124e-12
-9.51407e-15
7.10621e-15
-1.35068e-14
4.36263e-15
-4.92348e-16
7.2556e-15
-4.42969e-16
1.34118e-15
-4.16069e-16
1.28575e-15
-4.14916e-16
1.24154e-15
-4.05395e-16
1.18439e-15
-3.86943e-16
1.09349e-15
-2.72881e-16
8.45794e-16
-7.87089e-17
2.93674e-16
-1.45714e-17
5.57107e-17
-1.42795e-18
8.58543e-18
-2.32838e-20
6.39071e-19
5.39893e-21
1.81007e-23
4.01787e-22
7.56696e-22
1.63489e-20
6.84177e-21
1.33444e-19
7.10589e-20
1.16276e-18
8.34103e-19
1.16599e-17
1.76211e-17
1.1362e-16
6.31794e-16
2.34398e-15
8.62857e-15
2.91399e-14
6.93927e-14
3.36014e-13
2.15617e-12
1.44738e-12
4.97941e-11
2.54692e-10
8.557e-11
4.98247e-10
5.03023e-13
9.22217e-11
9.27413e-12
2.20711e-11
2.34634e-12
1.24361e-12
2.99503e-12
-6.63614e-16
2.25699e-11
-4.35011e-12
3.11053e-11
-1.33684e-11
1.52516e-11
0
1.14181e-11
-8.29586e-11
3.4211e-12
-3.13261e-11
0
-1.43653e-12
1.194e-14
-6.48771e-14
9.55082e-15
-1.42999e-14
1.23027e-14
-1.46076e-14
1.22733e-14
-1.75867e-15
1.15387e-14
-1.79033e-15
3.09158e-13
0
5.14566e-12
1.70717e-13
1.1085e-11
3.98735e-11
5.55419e-12
1.01527e-10
-5.88567e-12
1.37345e-10
-2.21058e-12
7.47573e-11
-6.51143e-13
5.36109e-13
-6.22116e-13
1.43074e-13
-1.27353e-14
1.27683e-12
-3.85671e-15
4.90316e-15
-2.5859e-15
2.66189e-15
-5.88014e-16
1.59398e-15
-4.64294e-16
1.38362e-15
-4.59586e-16
1.27833e-15
-4.59914e-16
1.22678e-15
-4.46531e-16
1.16476e-15
-3.94561e-16
1.02368e-15
-1.57504e-16
4.99385e-16
-3.14244e-17
1.11037e-16
-4.76429e-18
1.76632e-17
-3.69992e-19
2.29676e-18
-4.96109e-21
1.35693e-19
1.13247e-21
4.91616e-23
1.10452e-21
1.61562e-21
3.56103e-20
1.10116e-20
2.28121e-19
7.92955e-20
1.32687e-18
8.01159e-19
1.12386e-17
1.11895e-17
1.06046e-16
2.39304e-16
1.48882e-15
4.68187e-15
5.15282e-15
2.89231e-13
1.17154e-13
1.91213e-11
4.69969e-11
4.19498e-11
1.98507e-10
1.04979e-10
4.76141e-10
5.04879e-12
1.66149e-10
8.85498e-12
1.72257e-11
5.5415e-13
2.40231e-13
2.2577e-12
-1.68513e-16
2.42356e-11
-1.01894e-12
5.22016e-11
-4.75777e-12
1.4643e-10
-1.26007e-10
1.51358e-10
-2.56127e-10
5.17853e-12
-1.42355e-10
9.80114e-15
-3.40413e-12
3.96126e-15
-1.47301e-13
9.71134e-15
-1.64621e-14
3.45412e-14
-5.39248e-15
1.45557e-14
0
2.1405e-14
4.15362e-15
5.96066e-14
2.45034e-15
1.63297e-12
8.36902e-14
8.22365e-12
5.20016e-11
-3.69727e-12
1.1868e-10
-7.99529e-12
1.4665e-10
-6.45952e-13
1.77273e-11
-1.72243e-13
1.33179e-13
-2.1271e-13
9.82571e-14
-4.75144e-15
7.04327e-14
-1.65571e-15
1.6338e-15
-1.07726e-15
1.65374e-15
-7.30748e-16
1.73954e-15
-5.16493e-16
1.48626e-15
-5.05902e-16
1.27247e-15
-5.0288e-16
1.21212e-15
-4.7746e-16
1.1171e-15
-2.74776e-16
7.52973e-16
-6.6432e-17
2.13874e-16
-1.06492e-17
3.5108e-17
-1.37454e-18
5.10654e-18
-8.65328e-20
5.43019e-19
-1.02733e-21
2.69138e-20
2.46003e-22
1.31439e-22
2.90211e-21
3.44894e-21
7.6921e-20
1.87103e-20
4.16223e-19
8.82419e-20
1.61177e-18
6.70831e-19
9.57575e-18
6.61529e-18
7.4786e-17
1.03454e-16
8.32174e-16
5.84262e-15
2.63759e-15
8.48064e-13
1.35097e-13
1.77375e-11
5.19271e-11
3.76637e-11
1.04455e-10
1.1222e-10
4.74015e-10
4.83956e-11
2.21607e-10
6.15575e-13
1.4488e-11
2.95091e-13
2.49336e-13
3.31187e-13
8.84783e-15
9.83321e-12
-1.06442e-13
1.22716e-10
-1.63534e-11
2.43125e-10
-1.77175e-10
2.50143e-10
-2.57933e-10
1.6755e-11
-1.37295e-10
1.96244e-13
-1.68652e-12
1.9453e-14
-7.86205e-14
4.74411e-14
-1.39656e-14
1.29972e-13
-5.68081e-14
1.39983e-13
-3.64633e-13
2.24796e-14
2.61617e-14
6.36554e-14
4.21073e-14
1.62615e-12
1.48409e-13
2.91371e-12
7.34182e-11
-1.2068e-11
1.37768e-10
-1.38529e-11
1.02708e-10
-1.95249e-13
4.1461e-12
-5.08704e-14
8.61883e-14
-3.08858e-14
7.45067e-14
-1.19229e-15
4.37053e-14
-8.34005e-16