/*--------------------------------*- C++ -*----------------------------------*\
  =========                 |
  \\      /  F ield         | OpenFOAM: The Open Source CFD Toolbox
   \\    /   O peration     | Website:  https://openfoam.org
    \\  /    A nd           | Version:  9
     \\/     M anipulation  |
\*---------------------------------------------------------------------------*/
FoamFile
{
    format      ascii;
    class       volScalarField;
    location    "0.09";
    object      p_rgh;
}
// * * * * * * * * * * * * * * * * * * * * * * * * * * * * * * * * * * * * * //

dimensions      [1 -1 -2 0 0 0 0];

internalField   nonuniform List<scalar> 
5000
(
-0.158364
-0.184349
-0.2151
-0.2517
-0.296195
-0.351003
-0.418372
-0.499951
-0.597202
-0.720105
-0.890323
-0.889126
-3.40448
-936.074
-1434.64
-1434.3
-1434.33
-1433.67
-1432.91
-1432.49
-1432.26
-1432.17
-1432.25
-1432.51
-1433
-1433.75
-1434.66
-1435.38
-1436.2
-1128.95
-111.273
-1.40521
-1.2964
-0.958122
-0.870288
-0.798494
-0.72258
-0.643842
-0.567048
-0.494979
-0.428513
-0.367502
-0.311411
-0.259655
-0.211731
-0.167227
-0.1258
-0.0871746
-0.0510488
-0.0182675
-0.156314
-0.180134
-0.207975
-0.240367
-0.278406
-0.323485
-0.376046
-0.434652
-0.494313
-0.549815
-0.598583
-0.403272
0.254926
-791.216
-1432.64
-1433.35
-1433.02
-1431.92
-1430.95
-1430.46
-1430.19
-1430.08
-1430.12
-1430.34
-1430.76
-1431.5
-1432.51
-1433.31
-1433.84
-985.771
-27.0206
-1.22673
-1.23814
-0.872052
-0.790315
-0.738114
-0.676608
-0.609008
-0.540223
-0.473745
-0.41132
-0.353444
-0.299945
-0.250409
-0.20441
-0.161582
-0.121619
-0.0842776
-0.0493171
-0.0174315
-0.153083
-0.174714
-0.19934
-0.227267
-0.258953
-0.294645
-0.333199
-0.371278
-0.399664
-0.398854
-0.353566
-0.152556
0.626242
-562.557
-1426.2
-1433.6
-1432.2
-1430.23
-1428.93
-1428.33
-1428.03
-1427.88
-1427.87
-1427.92
-1428.05
-1428.39
-1428.99
-1429.33
-1424.49
-667.691
-2.91128
-1.02171
-0.994257
-0.842844
-0.723082
-0.685021
-0.634519
-0.576157
-0.514294
-0.452837
-0.394145
-0.339211
-0.288176
-0.240796
-0.196729
-0.155659
-0.117309
-0.0814416
-0.0478538
-0.0169108
-0.148859
-0.168299
-0.189772
-0.213364
-0.239078
-0.266297
-0.292721
-0.314098
-0.320953
-0.288995
-0.218273
-0.0277229
0.416315
-321.059
-1356.12
-1434.45
-1431.53
-1428.32
-1426.73
-1426.08
-1425.79
-1425.65
-1425.57
-1425.42
-1425.14
-1424.98
-1424.87
-1423.94
-1289.37
-309.911
-1.3957
-1.25586
-1.04636
-0.814988
-0.684077
-0.646783
-0.60086
-0.54791
-0.490967
-0.433514
-0.377978
-0.325561
-0.276602
-0.230979
-0.18841
-0.148607
-0.111323
-0.0763891
-0.0437003
-0.0139433
-0.143942
-0.161191
-0.179718
-0.199332
-0.219728
-0.23988
-0.256929
-0.266231
-0.260447
-0.219818
-0.154818
-0.255229
0.119043
-96.6884
-1189.15
-1433.45
-1429.74
-1425.7
-1424.22
-1423.71
-1423.51
-1423.44
-1423.37
-1423.11
-1422.61
-1422.44
-1422.22
-1420.8
-837.459
-44.0558
-1.01353
-1.39722
-1.3696
-0.777437
-0.645059
-0.610108
-0.568869
-0.521005
-0.46881
-0.415321
-0.362904
-0.312941
-0.265993
-0.222107
-0.181101
-0.142732
-0.106767
-0.0729786
-0.0408088
-0.0104507
-0.138591
-0.15378
-0.169624
-0.185739
-0.201676
-0.216278
-0.226675
-0.228253
-0.215637
-0.177155
-0.13685
-0.291296
0.0333439
0.0412413
-757.341
-1423.63
-1425.73
-1422.62
-1421.56
-1421.31
-1421.28
-1421.3
-1421.31
-1421.08
-1420.64
-1421.06
-1421.32
-1133.76
-187.348
-0.831474
-0.79488
-1.17147
-1.24488
-0.894255
-0.596638
-0.56986
-0.533134
-0.49169
-0.44558
-0.397019
-0.348326
-0.30118
-0.256471
-0.2145
-0.175247
-0.138546
-0.104191
-0.0719807
-0.0414155
-0.0121947
-0.132993
-0.146309
-0.159821
-0.173035
-0.185408
-0.195791
-0.201701
-0.198946
-0.182806
-0.147
-0.131642
-0.294799
-0.0148521
0.149343
-220.737
-1148.56
-1421.2
-1420.1
-1419.16
-1419.03
-1419.2
-1419.29
-1419.3
-1418.78
-1418.33
-1420.09
-1195.65
-265.864
-0.736169
-0.708523
-0.611216
-0.666962
-1.11899
-0.849951
-0.53848
-0.522914
-0.49462
-0.461379
-0.422311
-0.379235
-0.334579
-0.290331
-0.247728
-0.207353
-0.169365
-0.133702
-0.100218
-0.0687931
-0.0393755
-0.0122719
-0.127315
-0.138974
-0.150513
-0.161418
-0.171092
-0.178464
-0.181528
-0.176986
-0.15987
-0.124417
-0.121912
-0.246028
0.0108681
0.0683461
-0.0323445
-443.09
-1301.82
-1417.79
-1416.54
-1416.65
-1417.24
-1417.55
-1417.44
-1415.21
-1401.51
-1023.39
-223.249
-0.633004
-0.617705
-0.586112
-0.55805
-0.552061
-0.676064
-0.787114
-0.570763
-0.484082
-0.465145
-0.437708
-0.404069
-0.365433
-0.324069
-0.282124
-0.241128
-0.201927
-0.164871
-0.130029
-0.0973422
-0.0666993
-0.038077
-0.0120066
-0.121676
-0.13191
-0.141824
-0.150953
-0.15871
-0.164161
-0.16568
-0.161164
-0.146312
-0.11413
-0.125888
-0.0273632
-0.0173464
-0.268727
-0.297965
-0.0247866
-433.45
-1178.01
-1402.18
-1412.41
-1413.53
-1406.8
-1347.82
-1107.49
-606.02
-99.5996
-0.632045
-0.580407
-0.555219
-0.541459
-0.531145
-0.525731
-0.556158
-0.757249
-0.708345
-0.456973
-0.443559
-0.422344
-0.393294
-0.357974
-0.318815
-0.278256
-0.23811
-0.199458
-0.162815
-0.128345
-0.0960266
-0.0657519
-0.0374713
-0.0118226
-0.116152
-0.125194
-0.133811
-0.14163
-0.14814
-0.152602
-0.15367
-0.150285
-0.140187
-0.114695
-0.14867
-0.0831339
-0.128468
-0.675585
-0.388885
-0.107686
-0.28612
-188.564
-578.358
-809.883
-791.054
-627.132
-347.284
-115.852
-0.4027
-0.426769
-0.577072
-0.51356
-0.514326
-0.513093
-0.509951
-0.507264
-0.501885
-0.667757
-0.680715
-0.492948
-0.445443
-0.423856
-0.394776
-0.359664
-0.320593
-0.279891
-0.239431
-0.2004
-0.163397
-0.128629
-0.0960844
-0.0656487
-0.0372732
-0.0116546
-0.110786
-0.118866
-0.126487
-0.133379
-0.139172
-0.143356
-0.14484
-0.143024
-0.138042
-0.121205
-0.161927
-0.120693
-0.266742
-0.704717
-0.275521
-0.153916
-0.235963
-0.237209
-0.302325
-0.36839
-0.399339
-0.420605
-0.448049
-0.474428
-0.470547
-0.497704
-0.499839
-0.490912
-0.497813
-0.500488
-0.500724
-0.499183
-0.494989
-0.534052
-0.664382
-0.553046
-0.448975
-0.430546
-0.402822
-0.36771
-0.327919
-0.286119
-0.244438
-0.204235
-0.16619
-0.130536
-0.0972593
-0.0662328
-0.0374105
-0.0115532
-0.105602
-0.112914
-0.119799
-0.126081
-0.131552
-0.135916
-0.138377
-0.138232
-0.137198
-0.12688
-0.166979
-0.126855
-0.24757
-0.765987
-0.181011
-0.171081
-0.232714
-0.308209
-0.330604
-0.382332
-0.392673
-0.399256
-0.454936
-0.462564
-0.459136
-0.453595
-0.467864
-0.48483
-0.49386
-0.499517
-0.503289
-0.505735
-0.514328
-0.561487
-0.679676
-0.645965
-0.462166
-0.443845
-0.416587
-0.38062
-0.339249
-0.295575
-0.252017
-0.210078
-0.170509
-0.133559
-0.0991965
-0.0672621
-0.0377195
-0.0114588
-0.100589
-0.107294
-0.113658
-0.119583
-0.125016
-0.129836
-0.133596
-0.135311
-0.137408
-0.141085
-0.171181
-0.13173
-0.168226
-0.20082
-0.162476
-0.18842
-0.232967
-0.268187
-0.310282
-0.349438
-0.377914
-0.400201
-0.420154
-0.435789
-0.444891
-0.455756
-0.471916
-0.486685
-0.497109
-0.505325
-0.51258
-0.519499
-0.552471
-0.582341
-0.700115
-0.680559
-0.501647
-0.471765
-0.440064
-0.399776
-0.354618
-0.30771
-0.261431
-0.217217
-0.175755
-0.137235
-0.101578
-0.0685692
-0.038113
-0.0112176
-0.0957261
-0.101934
-0.107929
-0.113692
-0.119301
-0.124767
-0.130035
-0.133983
-0.139254
-0.15944
-0.177294
-0.152239
-0.277337
-0.14327
-0.173329
-0.203284
-0.24051
-0.27364
-0.308497
-0.342473
-0.372328
-0.396865
-0.418246
-0.435396
-0.44927
-0.463141
-0.478075
-0.491878
-0.503397
-0.513499
-0.523047
-0.532495
-0.574773
-0.603677
-0.671896
-0.693049
-0.553139
-0.502986
-0.464954
-0.41936
-0.369936
-0.319604
-0.270545
-0.224053
-0.180697
-0.140586
-0.103602
-0.0695473
-0.0383211
-0.0110149
-0.0909778
-0.0967581
-0.102467
-0.10819
-0.114109
-0.120355
-0.127248
-0.133783
-0.142594
-0.156163
-0.15438
-0.187753
-0.306466
-0.198359
-0.191468
-0.217788
-0.250601
-0.282032
-0.314844
-0.347266
-0.375763
-0.399473
-0.420357
-0.438411
-0.454375
-0.469579
-0.4845
-0.498353
-0.51068
-0.521873
-0.532475
-0.542746
-0.58447
-0.618927
-0.622383
-0.659195
-0.562737
-0.516897
-0.477189
-0.429851
-0.378731
-0.326837
-0.276342
-0.228528
-0.183952
-0.14271
-0.104703
-0.0698256
-0.0380824
-0.0106426
-0.0863068
-0.0917048
-0.0971575
-0.102871
-0.10913
-0.1162
-0.124724
-0.134038
-0.146686
-0.156394
-0.178783
-0.212343
-0.325847
-0.254323
-0.209446
-0.23205
-0.260852
-0.290599
-0.321867
-0.353135
-0.380692
-0.403784
-0.424518
-0.443203
-0.461473
-0.47641
-0.491365
-0.505475
-0.51827
-0.529957
-0.540863
-0.551196
-0.582245
-0.616094
-0.58417
-0.563768
-0.555329
-0.516145
-0.47728
-0.4308
-0.380222
-0.328647
-0.278254
-0.230338
-0.185478
-0.14381
-0.105302
-0.0699716
-0.0379512
-0.0104874
-0.0816706
-0.0867099
-0.0919099
-0.0975784
-0.104108
-0.11193
-0.121956
-0.134037
-0.150937
-0.167966
-0.207915
-0.215251
-0.353155
-0.270515
-0.225087
-0.24442
-0.27034
-0.298726
-0.329104
-0.359756
-0.386772
-0.409479
-0.430787
-0.454438
-0.475249
-0.490795
-0.499499
-0.512951
-0.525965
-0.537755
-0.54842
-0.557874
-0.583189
-0.616447
-0.594694
-0.555809
-0.542235
-0.511158
-0.473029
-0.427565
-0.37811
-0.327615
-0.278153
-0.23093
-0.186472
-0.144898
-0.106199
-0.0703053
-0.0370332
-0.00863837
-0.0770217
-0.0816872
-0.0866235
-0.092171
-0.0988319
-0.107206
-0.118424
-0.132923
-0.153886
-0.180312
-0.213882
-0.233418
-0.377468
-0.279342
-0.237352
-0.254292
-0.278482
-0.306057
-0.336234
-0.366874
-0.393777
-0.416273
-0.440348
-0.464437
-0.482631
-0.49965
-0.51476
-0.521225
-0.533833
-0.545595
-0.555999
-0.564829
-0.589709
-0.619305
-0.607832
-0.555334
-0.536278
-0.507206
-0.468712
-0.423706
-0.375302
-0.326149
-0.278135
-0.232362
-0.189356
-0.149367
-0.112684
-0.0795709
-0.049823
-0.024841
-0.072321
-0.0765538
-0.0811752
-0.0864856
-0.0930885
-0.101701
-0.113634
-0.129858
-0.154268
-0.196308
-0.227642
-0.373662
-0.394294
-0.277272
-0.245394
-0.26101
-0.284701
-0.3121
-0.342952
-0.374277
-0.401562
-0.424102
-0.445975
-0.471334
-0.490858
-0.507839
-0.523674
-0.531997
-0.541909
-0.553567
-0.563759
-0.572233
-0.595682
-0.623044
-0.612176
-0.554994
-0.534189
-0.5036
-0.464527
-0.419884
-0.372562
-0.324937
-0.278663
-0.234712
-0.193584
-0.155601
-0.121162
-0.090637
-0.0636785
-0.0397178
-0.0675505
-0.0712755
-0.0754683
-0.0803773
-0.0866754
-0.0951198
-0.107159
-0.124057
-0.149962
-0.196065
-0.242528
-0.396716
-0.398123
-0.269079
-0.248375
-0.264192
-0.288603
-0.316432
-0.349049
-0.383541
-0.41253
-0.433064
-0.453224
-0.472142
-0.496799
-0.51649
-0.532161
-0.543621
-0.55018
-0.561428
-0.571092
-0.578707
-0.594512
-0.626336
-0.614575
-0.556025
-0.532577
-0.500128
-0.460359
-0.416068
-0.36988
-0.32385
-0.279371
-0.237258
-0.197979
-0.161879
-0.129313
-0.100498
-0.0751249
-0.0525637
-0.0627112
-0.0658675
-0.0694747
-0.0737789
-0.0794674
-0.0872543
-0.0986623
-0.114927
-0.140211
-0.178586
-0.270833
-0.389702
-0.387973
-0.244611
-0.245823
-0.26354
-0.289508
-0.319415
-0.379745
-0.432845
-0.42709
-0.442389
-0.462835
-0.481818
-0.499622
-0.524435
-0.54108
-0.555161
-0.559942
-0.569256
-0.577992
-0.583543
-0.592119
-0.624266
-0.613462
-0.558457
-0.531312
-0.496671
-0.456181
-0.412279
-0.367267
-0.32285
-0.280164
-0.239903
-0.202532
-0.168425
-0.137845
-0.11081
-0.0869551
-0.065752
-0.0578107
-0.0603479
-0.0632155
-0.0667006
-0.0714451
-0.0780623
-0.0880278
-0.10238
-0.124737
-0.154925
-0.232322
-0.266798
-0.255087
-0.22575
-0.238716
-0.259209
-0.287858
-0.33073
-0.403743
-0.442078
-0.438807
-0.451532
-0.472758
-0.49222
-0.51008
-0.527362
-0.550459
-0.564423
-0.569093
-0.577858
-0.607531
-0.651025
-0.597028
-0.591189
-0.597322
-0.556595
-0.527544
-0.491836
-0.451356
-0.408319
-0.364764
-0.322135
-0.281397
-0.243184
-0.207971
-0.176101
-0.147673
-0.122482
-0.099995
-0.0796651
-0.0528616
-0.0547135
-0.0567201
-0.0591875
-0.0626694
-0.0676558
-0.0754266
-0.0868352
-0.104627
-0.1296
-0.177602
-0.311884
-0.223102
-0.225062
-0.230781
-0.251401
-0.286428
-0.366249
-0.407085
-0.416847
-0.43308
-0.460799
-0.483329
-0.503604
-0.521531
-0.537751
-0.556854
-0.571877
-0.577072
-0.594477
-0.669822
-0.672322
-0.621331
-0.584721
-0.572204
-0.550719
-0.52136
-0.485806
-0.446132
-0.404472
-0.362687
-0.322057
-0.283456
-0.247498
-0.214624
-0.185052
-0.15868
-0.135135
-0.113819
-0.0942193
-0.0478939
-0.0489714
-0.0500245
-0.0513057
-0.0532567
-0.0562337
-0.0612196
-0.0689285
-0.0818601
-0.102474
-0.167226
-0.281381
-0.208898
-0.223395
-0.2182
-0.240042
-0.294838
-0.359856
-0.380076
-0.416811
-0.455281
-0.475128
-0.496543
-0.516675
-0.534267
-0.549799
-0.563365
-0.57485
-0.583703
-0.625008
-0.681954
-0.681245
-0.64548
-0.587893
-0.571449
-0.547894
-0.516969
-0.481121
-0.442081
-0.401762
-0.361738
-0.323133
-0.286734
-0.253102
-0.222573
-0.195176
-0.170624
-0.14848
-0.128184
-0.109311
-0.0429641
-0.0431829
-0.0432022
-0.043163
-0.0433794
-0.044039
-0.0457872
-0.0491089
-0.0562981
-0.0729559
-0.138747
-0.24422
-0.179458
-0.198441
-0.195548
-0.226177
-0.276314
-0.331909
-0.453588
-0.775316
-0.626861
-0.491826
-0.512407
-0.531506
-0.548795
-0.563727
-0.576376
-0.586713
-0.594996
-0.650013
-0.688482
-0.691691
-0.617887
-0.5889
-0.571351
-0.546356
-0.51451
-0.478412
-0.439913
-0.400792
-0.362423
-0.325784
-0.291566
-0.260219
-0.231902
-0.206447
-0.183451
-0.16249
-0.143089
-0.124915
-0.0381466
-0.0374588
-0.0363756
-0.034922
-0.0332609
-0.0313595
-0.029521
-0.0278762
-0.0280922
-0.0428712
-0.0652023
-0.2086
-0.236326
-0.160266
-0.17224
-0.210128
-0.252664
-0.331532
-0.783668
-0.831249
-0.71453
-0.507442
-0.528692
-0.54824
-0.566011
-0.580876
-0.592712
-0.602174
-0.609457
-0.662271
-0.70104
-0.700622
-0.606258
-0.593432
-0.573445
-0.546405
-0.513756
-0.477479
-0.439549
-0.401601
-0.364844
-0.330137
-0.29805
-0.268862
-0.242536
-0.218745
-0.197046
-0.177089
-0.158484
-0.140963
-0.0335182
-0.0319183
-0.0296907
-0.0267763
-0.0231559
-0.0185475
-0.0129413
-0.00610014
0.000716918
-0.00155221
-0.00647713
-0.170389
-0.203984
-0.138125
-0.148748
-0.192463
-0.240579
-0.553509
-0.789732
-0.856533
-0.537573
-0.52038
-0.545962
-0.568451
-0.587518
-0.604405
-0.613823
-0.621839
-0.629929
-0.708784
-0.717459
-0.6776
-0.619424
-0.602603
-0.579035
-0.549387
-0.515251
-0.478543
-0.441044
-0.404175
-0.36897
-0.336134
-0.306066
-0.278841
-0.254236
-0.231834
-0.211216
-0.192126
-0.174248
-0.157335
-0.0291537
-0.0266651
-0.0232953
-0.0189219
-0.0133249
-0.00599883
0.00332379
0.0150842
0.0278844
0.035228
-0.0450192
-0.132881
-0.170141
-0.100979
-0.123218
-0.173585
-0.266027
-0.736377
-0.800599
-0.598449
-0.495639
-0.535948
-0.567526
-0.593697
-0.614778
-0.631764
-0.640654
-0.648079
-0.664358
-0.735076
-0.737945
-0.644094
-0.632152
-0.612658
-0.586173
-0.554057
-0.518485
-0.481315
-0.444189
-0.408342
-0.374633
-0.343579
-0.315364
-0.289857
-0.266701
-0.245454
-0.225754
-0.207439
-0.190242
-0.173912
-0.0251312
-0.021798
-0.017338
-0.0115505
-0.00402417
0.0059137
0.0187554
0.0350955
0.0529082
0.0621553
-0.0685382
-0.0943453
-0.120791
-0.0525629
-0.0974815
-0.153088
-0.499813
-0.727544
-0.759894
-0.45083
-0.508052
-0.55624
-0.594698
-0.625038
-0.647773
-0.665112
-0.678083
-0.683428
-0.752506
-0.763643
-0.729675
-0.663437
-0.64701
-0.623917
-0.594014
-0.559484
-0.52265
-0.485152
-0.448484
-0.413706
-0.381486
-0.352124
-0.325579
-0.30155
-0.279612
-0.259345
-0.240459
-0.222868
-0.206333
-0.190582
-0.0215361
-0.0174297
-0.0119721
-0.00485466
0.00448869
0.0168589
0.0329788
0.053748
0.0769883
0.0858993
-0.0274237
-0.0569424
0.0168323
-0.0156435
-0.0713558
-0.162711
-0.633195
-0.727593
-0.399783
-0.454184
-0.525844
-0.582391
-0.628002
-0.663089
-0.688222
-0.704905
-0.719791
-0.736387
-0.805799
-0.796334
-0.697697
-0.684212
-0.663531
-0.635832
-0.602516
-0.565391
-0.527311
-0.489573
-0.453466
-0.419833
-0.389105
-0.361334
-0.336277
-0.313521
-0.292631
-0.273236
-0.255114
-0.238235
-0.22237
-0.207211
-0.0184547
-0.0136823
-0.00734772
0.000971779
0.0119467
0.0265003
0.0455754
0.0703994
0.0989081
0.11965
0.0204232
0.0563408
0.0660765
0.0139105
-0.0455715
-0.327669
-0.613033
-0.478271
-0.375831
-0.467414
-0.54897
-0.614413
-0.667645
-0.707894
-0.735358
-0.751634
-0.774019
-0.852526
-0.848456
-0.816076
-0.727032
-0.707044
-0.680644
-0.647841
-0.610672
-0.57119
-0.53194
-0.494089
-0.458673
-0.426263
-0.397008
-0.370714
-0.34698
-0.325345
-0.3054
-0.286831
-0.269469
-0.253325
-0.238165
-0.223626
-0.0159652
-0.0106636
-0.00359771
0.00574109
0.0180829
0.0344806
0.0560543
0.0842334
0.117095
0.147021
0.131377
0.0866056
0.0911403
0.0420104
-0.0560149
-0.481992
-0.594813
-0.284288
-0.379041
-0.483125
-0.576638
-0.651961
-0.713314
-0.75877
-0.78812
-0.803512
-0.843796
-0.901239
-0.890656
-0.828858
-0.757395
-0.729957
-0.696735
-0.65858
-0.617256
-0.575851
-0.5357
-0.498003
-0.463487
-0.432401
-0.404601
-0.379685
-0.357155
-0.336555
-0.317522
-0.299786
-0.283222
-0.267867
-0.253471
-0.239597
-0.014134
-0.00845662
-0.000835202
0.00927947
0.0226539
0.0404621
0.0639482
0.0944489
0.129566
0.126537
0.121583
0.0980729
0.111424
0.0658588
-0.0592467
-0.452863
-0.274278
-0.274773
-0.384457
-0.501902
-0.608178
-0.694163
-0.763885
-0.81505
-0.84579
-0.864063
-0.931436
-0.947248
-0.933552
-0.823164
-0.782245
-0.748519
-0.709077
-0.665891
-0.621322
-0.578212
-0.537638
-0.500503
-0.467165
-0.437529
-0.411186
-0.387592
-0.366219
-0.346644
-0.328553
-0.311711
-0.296017
-0.281532
-0.267983
-0.254837
-0.0130172
-0.00712806
0.000835399
0.0114296
0.0254562
0.0441779
0.0689556
0.100951
0.137085
0.122473
0.127925
0.123704
0.132096
0.075504
-0.29642
-0.42955
-0.160408
-0.268098
-0.391007
-0.5228
-0.642561
-0.739476
-0.820884
-0.879369
-0.912326
-0.936464
-1.00837
-0.992118
-0.966453
-0.838116
-0.802477
-0.761176
-0.715657
-0.667972
-0.621242
-0.577168
-0.536842
-0.500771
-0.468919
-0.44087
-0.416019
-0.393753
-0.373564
-0.355077
-0.338016
-0.322168
-0.307452
-0.293946
-0.281349
-0.269014
-0.0126609
-0.00674217
0.00131143
0.0120527
0.0263222
0.0454219
0.07084
0.103795
0.140434
0.156501
0.136856
0.174168
0.144866
0.0866687
-0.267918
-0.254302
-0.147366
-0.263801
-0.398992
-0.544603
-0.678173
-0.788651
-0.877347
-0.935114
-0.96443
-1.00158
-1.05096
-1.02811
-0.969283
-0.861048
-0.815973
-0.766601
-0.71514
-0.664199
-0.615967
-0.57185
-0.532526
-0.498042
-0.467977
-0.441659
-0.418375
-0.397508
-0.378598
-0.361319
-0.345421
-0.330702
-0.317094
-0.304698
-0.29318
-0.281753
-0.013097
-0.00735875
0.000503118
0.0110374
0.0251073
0.0439938
0.06922
0.102284
0.139217
0.156122
0.133776
0.184218
0.153159
-0.089716
-0.26009
-0.0338469
-0.133911
-0.260759
-0.408539
-0.567579
-0.712106
-0.833509
-0.923456
-0.981314
-1.00458
-1.04523
-1.08013
-1.05521
-0.920883
-0.870328
-0.817747
-0.761915
-0.706175
-0.653169
-0.604659
-0.561561
-0.524018
-0.491615
-0.463613
-0.439183
-0.417585
-0.398248
-0.380767
-0.364857
-0.350283
-0.336848
-0.324499
-0.313361
-0.303061
-0.292647
-0.014338
-0.00901657
-0.00164348
0.00831664
0.0217024
0.0397231
0.063798
0.0957665
0.131657
0.136251
0.187554
0.184627
0.138249
-0.0948209
-0.163754
-0.014982
-0.123853
-0.261868
-0.41989
-0.587939
-0.741265
-0.867273
-0.958338
-1.00846
-1.03345
-1.05465
-1.09157
-1.02521
-0.921229
-0.865099
-0.805389
-0.744994
-0.68708
-0.633894
-0.586672
-0.545744
-0.510739
-0.480866
-0.455185
-0.432821
-0.413076
-0.395445
-0.379579
-0.365221
-0.352148
-0.340162
-0.329229
-0.319502
-0.310565
-0.301271
-0.0163742
-0.011717
-0.00513076
0.00387877
0.0160618
0.0325236
0.054557
0.0842631
0.117744
0.125878
0.176013
0.158708
0.0400873
-0.0581479
0.0657895
-0.00601693
-0.123823
-0.272355
-0.428062
-0.603748
-0.762256
-0.888286
-0.974655
-1.02183
-1.04279
-1.04108
-1.01512
-0.963118
-0.903871
-0.841577
-0.777405
-0.715104
-0.657472
-0.60617
-0.561796
-0.524098
-0.492281
-0.465315
-0.442197
-0.422098
-0.404405
-0.388683
-0.37463
-0.362015
-0.350621
-0.340247
-0.330882
-0.322715
-0.315283
-0.30721
-0.0191751
-0.0154211
-0.00991368
-0.00224146
0.00819846
0.0223728
0.0415231
0.0679727
0.0874219
0.107931
0.0740313
0.0643533
0.106789
0.126921
0.0788287
-0.00217693
-0.126492
-0.273398
-0.432487
-0.613387
-0.772417
-0.893883
-0.970917
-1.01489
-1.02727
-1.01264
-0.976793
-0.925167
-0.863887
-0.798756
-0.733755
-0.672729
-0.617958
-0.570478
-0.530275
-0.496627
-0.468468
-0.444694
-0.424355
-0.406727
-0.391293
-0.377686
-0.36564
-0.354947
-0.345394
-0.336782
-0.329123
-0.322649
-0.316846
-0.310084
-0.0226912
-0.0200605
-0.0159178
-0.00998199
-0.00184254
0.00927738
0.0245664
0.046401
0.0655068
0.104018
0.0363478
0.0444985
0.157356
0.132944
0.0727861
-0.00401226
-0.126038
-0.275968
-0.43566
-0.615282
-0.769413
-0.880529
-0.948748
-0.984351
-0.987611
-0.965075
-0.922955
-0.867289
-0.804068
-0.739048
-0.676591
-0.619679
-0.569949
-0.527791
-0.492677
-0.463588
-0.439369
-0.418979
-0.401598
-0.386629
-0.373645
-0.362334
-0.352465
-0.343847
-0.336274
-0.329548
-0.323708
-0.319036
-0.314965
-0.309584
-0.0268543
-0.0255483
-0.0230524
-0.0192576
-0.0139864
-0.00671472
0.00358869
0.0196405
0.0447736
0.0674612
0.00101579
0.0356035
0.101329
0.00613521
0.0538043
-0.0162673
-0.134924
-0.280547
-0.437841
-0.60862
-0.751677
-0.849237
-0.906668
-0.930921
-0.924646
-0.894715
-0.847755
-0.790175
-0.727971
-0.66634
-0.609062
-0.558409
-0.51523
-0.479302
-0.449746
-0.425432
-0.405271
-0.388376
-0.374086
-0.361926
-0.351544
-0.342673
-0.33511
-0.328683
-0.323193
-0.318446
-0.314508
-0.311714
-0.309443
-0.305493
-0.0315744
-0.0317821
-0.0312066
-0.0299427
-0.0280909
-0.0254569
-0.0213196
-0.0128272
0.00404507
-0.0652215
-0.0421284
0.0132256
0.00954894
-0.164297
-0.125461
-0.0409372
-0.15183
-0.287764
-0.435515
-0.593371
-0.72024
-0.801758
-0.845151
-0.856876
-0.841041
-0.804825
-0.755087
-0.698215
-0.639815
-0.584239
-0.534307
-0.491372
-0.455564
-0.42622
-0.402308
-0.382757
-0.366653
-0.353296
-0.342176
-0.332921
-0.325239
-0.3189
-0.313725
-0.309562
-0.30622
-0.303506
-0.301518
-0.300641
-0.300208
-0.29772
-0.0367377
-0.0386362
-0.0402331
-0.0418466
-0.0439012
-0.0466061
-0.0496249
-0.0499496
-0.0425757
-0.11287
-0.0890074
-0.0348894
-0.0364393
-0.209273
-0.150311
-0.0739288
-0.171567
-0.295582
-0.428643
-0.570738
-0.677276
-0.740164
-0.767395
-0.766038
-0.741182
-0.700221
-0.649971
-0.596393
-0.54422
-0.496657
-0.455391
-0.420843
-0.392576
-0.369707
-0.351246
-0.336295
-0.324156
-0.314311
-0.30638
-0.300066
-0.295124
-0.291353
-0.288599
-0.286727
-0.285555
-0.284894
-0.284866
-0.285909
-0.287317
-0.286305
-0.0422076
-0.0459534
-0.0499346
-0.0547037
-0.0610442
-0.0696304
-0.0804804
-0.0905275
-0.124346
-0.16554
-0.0722326
-0.0935487
-0.355132
-0.215024
-0.0542536
-0.110506
-0.191295
-0.306748
-0.422178
-0.542491
-0.625706
-0.667785
-0.677914
-0.66346
-0.630528
-0.586552
-0.537947
-0.489801
-0.445583
-0.407133
-0.374971
-0.34875
-0.327684
-0.31087
-0.297486
-0.286871
-0.278536
-0.272117
-0.267329
-0.26393
-0.26171
-0.260492
-0.260142
-0.260544
-0.261525
-0.262899
-0.264808
-0.267741
-0.27096
-0.271425
-0.0478293
-0.0535443
-0.0600673
-0.0681889
-0.0790713
-0.0938944
-0.112958
-0.134206
-0.188334
-0.170049
-0.144509
-0.137664
-0.436068
-0.293873
-0.112162
-0.156596
-0.233851
-0.321785
-0.416637
-0.511119
-0.569255
-0.589525
-0.581973
-0.554857
-0.514979
-0.469591
-0.424335
-0.38302
-0.347585
-0.31845
-0.295093
-0.276609
-0.262076
-0.250721
-0.241958
-0.235363
-0.230622
-0.227486
-0.225734
-0.225166
-0.225596
-0.226868
-0.228865
-0.231486
-0.234567
-0.237927
-0.241723
-0.246483
-0.251458
-0.253389
-0.053438
-0.0611942
-0.0703573
-0.0819448
-0.0975225
-0.118782
-0.14631
-0.176664
-0.215079
-0.232332
-0.358456
-0.463387
-0.520036
-0.519514
-0.227809
-0.217463
-0.293679
-0.354462
-0.414316
-0.479981
-0.511949
-0.510398
-0.48502
-0.445937
-0.400168
-0.354551
-0.313631
-0.279668
-0.252968
-0.232606
-0.217221
-0.205569
-0.196753
-0.190204
-0.185581
-0.182661
-0.181265
-0.181221
-0.182352
-0.184483
-0.18745
-0.19111
-0.19536
-0.200113
-0.205215
-0.210486
-0.216093
-0.222596
-0.229247
-0.232626
-0.0588652
-0.068686
-0.0805141
-0.0956009
-0.115952
-0.143767
-0.180104
-0.221047
-0.248394
-0.369029
-0.575687
-0.599093
-0.605496
-0.617486
-0.300997
-0.299401
-0.363891
-0.395107
-0.417209
-0.452452
-0.457275
-0.435318
-0.392236
-0.34178
-0.290872
-0.245589
-0.209178
-0.182246
-0.163515
-0.150884
-0.142353
-0.13651
-0.132569
-0.130185
-0.129229
-0.129631
-0.131306
-0.134131
-0.137954
-0.14262
-0.147977
-0.153895
-0.16028
-0.167055
-0.174078
-0.181169
-0.188496
-0.19664
-0.204873
-0.209668
-0.063944
-0.0757971
-0.0902363
-0.108808
-0.133894
-0.168299
-0.213665
-0.265861
-0.308041
-0.463466
-0.509065
-0.688022
-0.698691
-0.637203
-0.372215
-0.391388
-0.428619
-0.443515
-0.427465
-0.431779
-0.409182
-0.366869
-0.308671
-0.246447
-0.190675
-0.145593
-0.113102
-0.0922049
-0.080195
-0.0739895
-0.0711177
-0.0700874
-0.0702473
-0.0714437
-0.073711
-0.0770881
-0.0815483
-0.086998
-0.0933033
-0.100318
-0.1079
-0.115928
-0.124314
-0.13299
-0.141824
-0.150638
-0.159596
-0.169294
-0.179037
-0.185181
-0.0685027
-0.0823084
-0.0992651
-0.121183
-0.150848
-0.191667
-0.245974
-0.310073
-0.362046
-0.522002
-0.441332
-0.688389
-0.797772
-0.790005
-0.498799
-0.459964
-0.502438
-0.493174
-0.447769
-0.420505
-0.370736
-0.3091
-0.236363
-0.163016
-0.101906
-0.0562547
-0.0264796
-0.010164
-0.00337919
-0.00223731
-0.00389333
-0.00679515
-0.0103901
-0.0146608
-0.0197532
-0.025776
-0.0327395
-0.0405677
-0.0491359
-0.0583041
-0.0679367
-0.0779157
-0.0881586
-0.0986032
-0.109128
-0.119558
-0.130043
-0.141182
-0.152333
-0.159782
-0.0723764
-0.0880074
-0.107333
-0.132385
-0.166303
-0.213117
-0.276008
-0.352679
-0.492703
-0.586314
-0.498141
-0.535159
-0.779772
-0.876251
-0.793042
-0.552505
-0.563523
-0.551541
-0.488777
-0.420624
-0.344773
-0.263543
-0.176551
-0.0944419
-0.0258991
0.0216552
0.0503574
0.0638007
0.0669253
0.0642958
0.0591021
0.0529986
0.0465098
0.0395831
0.0320095
0.023638
0.0144355
0.00446635
-0.00615031
-0.0172781
-0.0287849
-0.0405555
-0.0525085
-0.0645856
-0.0766762
-0.0886102
-0.100516
-0.11298
-0.125431
-0.134151
-0.0754132
-0.0927033
-0.114184
-0.142064
-0.179783
-0.231862
-0.302431
-0.391533
-0.582201
-0.643615
-0.569426
-0.602334
-0.774484
-0.976954
-0.750585
-0.647908
-0.631256
-0.613921
-0.54491
-0.43906
-0.332982
-0.231956
-0.131585
-0.0391727
0.0357908
0.0879276
0.117475
0.129875
0.130879
0.125651
0.117753
0.109026
0.100061
0.090806
0.0810318
0.0705657
0.0593589
0.0474661
0.0350012
0.0220981
0.00888667
-0.00451957
-0.0180384
-0.0316133
-0.0451451
-0.0584711
-0.0716923
-0.0853683
-0.0990165
-0.108975
-0.0774785
-0.0962254
-0.119591
-0.149903
-0.190838
-0.247241
-0.323908
-0.421446
-0.594622
-0.65238
-0.636231
-0.711418
-1.02539
-0.979683
-0.734764
-0.735913
-0.709438
-0.672564
-0.596181
-0.480926
-0.33603
-0.217026
-0.101022
0.00148073
0.0835559
0.142263
0.175003
0.188252
0.188641
0.181889
0.171993
0.161095
0.14996
0.138615
0.126852
0.114494
0.101479
0.087851
0.0737171
0.0592071
0.0444488
0.0295543
0.0146071
-0.000336526
-0.0151888
-0.0297976
-0.044233
-0.059013
-0.0737567
-0.0849212
-0.0784616
-0.098429
-0.123362
-0.15565
-0.199128
-0.258862
-0.340126
-0.444807
-0.553211
-0.63209
-0.70439
-0.843682
-1.1024
-1.02279
-0.817665
-0.81884
-0.789003
-0.730546
-0.650486
-0.520098
-0.366275
-0.217856
-0.0863909
0.0278533
0.118969
0.183077
0.222771
0.238912
0.240222
0.232997
0.22175
0.209053
0.195969
0.182691
0.169082
0.154978
0.140307
0.125099
0.109451
0.0934851
0.0773258
0.0610829
0.0448413
0.0286574
0.0126078
-0.0031699
-0.0187144
-0.0344916
-0.0502393
-0.062586
-0.078281
-0.0992037
-0.125355
-0.159129
-0.204452
-0.266569
-0.351229
-0.461113
-0.576566
-0.672604
-0.809125
-0.978961
-1.1756
-1.19282
-0.896841
-0.897677
-0.867423
-0.800387
-0.698087
-0.566275
-0.405101
-0.24285
-0.0878549
0.0403419
0.140884
0.213692
0.258446
0.281493
0.285348
0.278783
0.26687
0.252737
0.237881
0.222769
0.207394
0.191634
0.175414
0.158748
0.141713
0.124423
0.106995
0.0895332
0.0721216
0.0548174
0.0376855
0.0208455
0.00429302
-0.0123666
-0.0290042
-0.0424646
-0.0768859
-0.0984787
-0.125476
-0.160233
-0.206694
-0.270217
-0.357008
-0.469454
-0.595974
-0.713486
-0.911335
-0.996302
-1.23579
-1.27285
-0.967194
-0.970808
-0.941694
-0.871968
-0.757989
-0.606486
-0.446793
-0.282649
-0.108094
0.0370522
0.151035
0.232306
0.285479
0.313193
0.323406
0.318784
0.307034
0.29191
0.27548
0.258609
0.241506
0.224133
0.206431
0.188393
0.170079
0.151584
0.133013
0.114464
0.0960139
0.0777192
0.0596301
0.0418367
0.0243607
0.00690503
-0.0105106
-0.0250671
-0.0742563
-0.0962239
-0.123686
-0.15892
-0.205806
-0.269718
-0.35721
-0.472052
-0.606353
-0.81177
-0.937886
-0.977669
-1.29164
-1.33247
-1.03053
-1.03461
-1.00843
-0.938147
-0.820106
-0.654989
-0.484062
-0.320323
-0.152056
0.0201805
0.146177
0.240506
0.30179
0.337277
0.351361
0.352252
0.341686
0.326171
0.308457
0.289939
0.271145
0.252184
0.233036
0.213692
0.194188
0.174601
0.155023
0.135544
0.116245
0.0971837
0.0784054
0.0599668
0.0418901
0.0239652
0.00606383
-0.0100031
-0.0704012
-0.0924498
-0.120002
-0.155216
-0.201828
-0.265119
-0.351747
-0.466678
-0.605422
-0.817859
-0.915382
-0.995983
-1.33335
-1.26569
-1.07812
-1.08554
-1.06473
-1.03646
-0.875626
-0.705309
-0.51942
-0.354254
-0.189319
-0.026892
0.129353
0.23525
0.308967
0.351646
0.372448
0.376062
0.369983
0.354884
0.336392
0.316482
0.29609
0.275564
0.254989
0.234371
0.213733
0.19313
0.172637
0.152339
0.13232
0.112656
0.0934263
0.0747295
0.0566792
0.0393298
0.0227905
0.00736123
-0.0653561
-0.0872047
-0.114488
-0.149217
-0.1949
-0.25661
-0.34082
-0.453203
-0.591098
-0.768608
-0.858166
-1.22662
-1.36521
-1.16357
-1.11079
-1.12108
-1.15935
-1.30154
-1.03358
-0.746809
-0.560097
-0.382095
-0.224577
-0.0642542
0.0855479
0.219041
0.303871
0.357846
0.384523
0.39346
0.388846
0.377253
0.35873
0.337874
0.316098
0.294088
0.272109
0.250232
0.228482
0.206888
0.185496
0.16436
0.143533
0.123062
0.102983
0.0833307
0.0641222
0.0453061
0.0267852
0.00868242
-0.0591806
-0.0805698
-0.107257
-0.141079
-0.185258
-0.244543
-0.32507
-0.432875
-0.56805
-0.715692
-0.852406
-1.28047
-1.37646
-1.29453
-1.13327
-1.14582
-1.38928
-1.34318
-1.2113
-0.801808
-0.593798
-0.415891
-0.244
-0.10123
0.0455688
0.182715
0.288631
0.35267
0.389216
0.402434
0.401629
0.390357
0.374697
0.353546
0.330797
0.307531
0.284262
0.261192
0.238386
0.215866
0.193649
0.171754
0.150202
0.129012
0.108194
0.0877605
0.067744
0.048091
0.0282225
0.00918484
-0.051955
-0.0726539
-0.0984557
-0.131006
-0.17321
-0.229406
-0.305335
-0.407113
-0.537067
-0.685404
-0.828039