/*--------------------------------*- C++ -*----------------------------------*\
  =========                 |
  \\      /  F ield         | OpenFOAM: The Open Source CFD Toolbox
   \\    /   O peration     | Website:  https://openfoam.org
    \\  /    A nd           | Version:  9
     \\/     M anipulation  |
\*---------------------------------------------------------------------------*/
FoamFile
{
    format      ascii;
    class       surfaceScalarField;
    location    "0.09";
    object      phi;
}
// * * * * * * * * * * * * * * * * * * * * * * * * * * * * * * * * * * * * * //

dimensions      [0 3 -1 0 0 0 0];

internalField   nonuniform List<scalar> 
9850
(
-2.16979e-07
1.22389e-05
-2.59636e-07
1.23483e-05
-3.03795e-07
1.24837e-05
-3.50885e-07
1.26776e-05
-3.99732e-07
1.29552e-05
-4.43823e-07
1.33065e-05
-4.77666e-07
1.36971e-05
-5.02687e-07
1.41418e-05
-4.73708e-07
1.46202e-05
-2.22429e-07
1.44918e-05
3.72319e-07
1.225e-05
9.72397e-07
7.51695e-06
8.67866e-07
2.95516e-06
7.42881e-07
3.58182e-07
6.03035e-07
-3.48705e-07
5.29053e-07
-5.80997e-07
5.29224e-07
-6.60375e-07
5.64597e-07
-6.95933e-07
5.98387e-07
-6.95751e-07
6.19038e-07
-6.83322e-07
6.28004e-07
-5.56033e-07
6.32967e-07
-5.37597e-07
6.35897e-07
-5.24427e-07
6.37638e-07
-5.09815e-07
6.3974e-07
-4.84661e-07
6.42938e-07
-4.33471e-07
6.43446e-07
-3.40694e-07
6.31338e-07
-2.03067e-07
5.96096e-07
-2.42876e-08
5.43108e-07
1.95729e-07
5.81329e-07
4.09206e-07
8.32445e-07
7.55614e-07
1.24708e-06
1.66852e-06
1.71166e-06
2.68991e-06
2.1345e-06
3.62095e-06
2.45867e-06
4.29169e-06
2.66431e-06
4.64394e-06
2.76535e-06
4.71604e-06
2.79374e-06
4.59487e-06
2.78217e-06
4.37029e-06
2.75431e-06
4.10891e-06
2.72311e-06
3.84868e-06
2.69362e-06
3.60548e-06
2.66673e-06
3.38272e-06
2.64174e-06
3.17862e-06
2.61784e-06
2.9903e-06
2.59445e-06
2.81533e-06
2.57136e-06
2.65198e-06
2.54857e-06
2.49895e-06
2.35461e-06
-1.74749e-07
1.22748e-05
-2.09933e-07
1.23835e-05
-2.45129e-07
1.25189e-05
-2.81237e-07
1.27137e-05
-3.16305e-07
1.29903e-05
-3.43861e-07
1.3334e-05
-3.5955e-07
1.37128e-05
-3.63207e-07
1.41454e-05
-3.08614e-07
1.45656e-05
-4.78793e-08
1.42311e-05
5.01685e-07
1.17004e-05
9.49335e-07
7.0693e-06
1.01763e-06
2.88687e-06
7.68771e-07
6.07042e-07
5.95144e-07
-1.75078e-07
5.26486e-07
-5.1234e-07
5.41678e-07
-6.75567e-07
5.82936e-07
-7.37192e-07
6.11021e-07
-7.23836e-07
6.19473e-07
-6.91775e-07
6.17318e-07
-5.53878e-07
6.12673e-07
-5.32952e-07
6.06888e-07
-5.18643e-07
5.98128e-07
-5.01055e-07
5.86499e-07
-4.73032e-07
5.77169e-07
-4.24141e-07
5.74367e-07
-3.37892e-07
5.68876e-07
-1.97576e-07
5.42346e-07
2.24218e-09
5.10023e-07
2.28051e-07
5.84965e-07
3.34264e-07
7.88969e-07
5.51609e-07
1.11482e-06
1.34268e-06
1.49283e-06
2.31189e-06
1.86821e-06
3.24557e-06
2.18331e-06
3.97659e-06
2.40515e-06
4.4221e-06
2.53265e-06
4.58854e-06
2.58594e-06
4.54159e-06
2.59213e-06
4.3641e-06
2.5746e-06
4.12644e-06
2.54855e-06
3.87472e-06
2.52159e-06
3.63244e-06
2.49632e-06
3.40799e-06
2.47293e-06
3.20202e-06
2.4508e-06
3.01243e-06
2.42935e-06
2.83678e-06
2.40829e-06
2.67305e-06
2.3878e-06
2.51944e-06
2.3733e-06
-1.32592e-07
1.23048e-05
-1.60895e-07
1.24118e-05
-1.87908e-07
1.25459e-05
-2.14197e-07
1.274e-05
-2.37439e-07
1.30135e-05
-2.5189e-07
1.33485e-05
-2.54722e-07
1.37156e-05
-2.44455e-07
1.41352e-05
-1.78631e-07
1.44997e-05
5.51768e-08
1.39973e-05
4.86072e-07
1.12695e-05
9.14001e-07
6.64138e-06
1.2145e-06
2.58637e-06
7.97966e-07
1.02357e-06
6.0349e-07
1.93979e-08
5.47921e-07
-4.56771e-07
5.75894e-07
-7.03539e-07
6.1498e-07
-7.76278e-07
6.32057e-07
-7.40913e-07
6.26733e-07
-6.86451e-07
6.12756e-07
-5.39901e-07
5.98561e-07
-5.18757e-07
5.85879e-07
-5.05961e-07
5.68326e-07
-4.83503e-07
5.38143e-07
-4.42849e-07
5.0088e-07
-3.86878e-07
4.76902e-07
-3.13914e-07
4.77622e-07
-1.98295e-07
4.91048e-07
-1.11848e-08
5.34223e-07
1.84876e-07
6.60872e-07
2.07615e-07
8.68646e-07
3.43834e-07
1.09194e-06
1.11938e-06
1.34908e-06
2.05475e-06
1.65246e-06
2.94219e-06
1.93929e-06
3.68977e-06
2.16292e-06
4.19846e-06
2.30771e-06
4.44376e-06
2.38198e-06
4.46731e-06
2.40575e-06
4.34033e-06
2.40002e-06
4.13217e-06
2.38077e-06
3.89398e-06
2.35746e-06
3.65575e-06
2.33446e-06
3.43098e-06
2.31307e-06
3.22341e-06
2.29321e-06
3.03228e-06
2.2745e-06
2.85549e-06
2.2567e-06
2.69085e-06
2.24001e-06
2.53614e-06
2.38909e-06
-9.10041e-08
1.23293e-05
-1.13012e-07
1.24338e-05
-1.32741e-07
1.25656e-05
-1.50541e-07
1.27578e-05
-1.63976e-07
1.3027e-05
-1.68241e-07
1.33527e-05
-1.62171e-07
1.37095e-05
-1.42831e-07
1.41158e-05
-7.08266e-08
1.44277e-05
1.34985e-07
1.37915e-05
4.84334e-07
1.09202e-05
9.91476e-07
6.13423e-06
1.46486e-06
2.11299e-06
9.3318e-07
1.55525e-06
6.85442e-07
2.67136e-07
6.33015e-07
-4.04344e-07
6.47847e-07
-7.18371e-07
6.63906e-07
-7.92337e-07
6.62697e-07
-7.39704e-07
6.42696e-07
-6.6645e-07
6.1756e-07
-5.14764e-07
5.94595e-07
-4.95791e-07
5.79273e-07
-4.90639e-07
5.63807e-07
-4.68037e-07
5.27358e-07
-4.064e-07
4.64344e-07
-3.23864e-07
4.13597e-07
-2.63167e-07
4.20489e-07
-2.05187e-07
5.13407e-07
-1.04102e-07
6.30367e-07
6.79163e-08
7.28715e-07
1.09267e-07
8.00171e-07
2.72378e-07
9.55172e-07
9.64383e-07
1.18003e-06
1.8299e-06
1.44497e-06
2.67725e-06
1.71068e-06
3.42406e-06
1.93334e-06
3.9758e-06
2.09071e-06
4.28639e-06
2.18277e-06
4.37525e-06
2.22317e-06
4.29993e-06
2.22982e-06
4.12552e-06
2.21834e-06
3.90545e-06
2.19939e-06
3.6747e-06
2.17871e-06
3.45166e-06
2.15864e-06
3.24349e-06
2.13961e-06
3.05132e-06
2.12125e-06
2.87384e-06
2.10309e-06
2.70901e-06
2.08574e-06
2.55349e-06
2.39643e-06
-5.04139e-08
1.23488e-05
-6.67198e-08
1.24501e-05
-8.00724e-08
1.2579e-05
-9.06865e-08
1.27684e-05
-9.61476e-08
1.30324e-05
-9.25974e-08
1.33492e-05
-8.0208e-08
1.36971e-05
-5.44212e-08
1.409e-05
2.38735e-08
1.43494e-05
2.13309e-07
1.36021e-05
5.14354e-07
1.06191e-05
9.6984e-07
5.67875e-06
1.32521e-06
1.75762e-06
1.11172e-06
1.76874e-06
9.20309e-07
4.58549e-07
8.13702e-07
-2.97737e-07
7.64717e-07
-6.69386e-07
7.27521e-07
-7.55141e-07
6.99342e-07
-7.11525e-07
6.67234e-07
-6.34341e-07
6.3351e-07
-4.8104e-07
6.03138e-07
-4.65419e-07
5.8841e-07
-4.75911e-07
5.89415e-07
-4.69042e-07
5.76461e-07
-3.93446e-07
5.25883e-07
-2.73286e-07
4.84048e-07
-2.21332e-07
5.30478e-07
-2.51617e-07
6.62268e-07
-2.35892e-07
7.4374e-07
-1.35557e-08
6.28403e-07
2.24604e-07
4.95252e-07
4.05528e-07
7.48983e-07
7.10652e-07
9.89299e-07
1.58958e-06
1.24601e-06
2.42053e-06
1.49778e-06
3.17229e-06
1.71805e-06
3.75554e-06
1.88404e-06
4.1204e-06
1.99025e-06
4.26904e-06
2.04523e-06
4.24494e-06
2.06376e-06
4.10699e-06
2.06052e-06
3.90869e-06
2.0467e-06
3.68853e-06
2.02919e-06
3.46917e-06
2.01148e-06
3.2612e-06
1.99488e-06
3.06791e-06
1.9797e-06
2.88903e-06
1.96614e-06
2.72257e-06
1.9565e-06
2.56313e-06
2.38471e-06
-1.11144e-08
1.23638e-05
-2.23903e-08
1.24614e-05
-3.02298e-08
1.25868e-05
-3.47687e-08
1.27729e-05
-3.37891e-08
1.30315e-05
-2.42622e-08
1.33397e-05
-7.049e-09
1.36799e-05
2.37388e-08
1.40593e-05
1.09423e-07
1.42638e-05
2.99664e-07
1.34118e-05
5.9466e-07
1.03241e-05
9.03415e-07
5.36999e-06
1.12503e-06
1.536e-06
1.2819e-06
1.61187e-06
1.1866e-06
5.53851e-07
1.03028e-06
-1.41421e-07
8.91296e-07
-5.30398e-07
7.87961e-07
-6.51805e-07
7.34821e-07
-6.58386e-07
6.97159e-07
-5.96679e-07
6.59735e-07
-4.43616e-07
6.22696e-07
-4.28381e-07
6.04972e-07
-4.58186e-07
6.21306e-07
-4.85376e-07
6.41697e-07
-4.13838e-07
6.31969e-07
-2.63557e-07
6.3757e-07
-2.26933e-07
6.801e-07
-2.94147e-07
8.45603e-07
-4.01394e-07
7.51202e-07
8.0844e-08
4.94174e-07
4.81632e-07
4.10507e-07
4.89196e-07
5.03516e-07
6.17643e-07
8.08687e-07
1.28441e-06
1.0755e-06
2.15372e-06
1.31759e-06
2.9302e-06
1.52972e-06
3.54341e-06
1.69644e-06
3.95368e-06
1.8102e-06
4.15528e-06
1.87528e-06
4.17986e-06
1.90327e-06
4.079e-06
1.90732e-06
3.90464e-06
1.89846e-06
3.69739e-06
1.88421e-06
3.48341e-06
1.86885e-06
3.27656e-06
1.85433e-06
3.08243e-06
1.8413e-06
2.90206e-06
1.83006e-06
2.73381e-06
1.82239e-06
2.5708e-06
2.38029e-06
2.66711e-08
1.23748e-05
1.97882e-08
1.24682e-05
1.66557e-08
1.25899e-05
1.71659e-08
1.27724e-05
2.32518e-08
1.30254e-05
3.72288e-08
1.33257e-05
5.81766e-08
1.3659e-05
9.27545e-08
1.40247e-05
1.83221e-07
1.41733e-05
3.79305e-07
1.32157e-05
6.41053e-07
1.00624e-05
8.72773e-07
5.13827e-06
9.83985e-07
1.42479e-06
1.17308e-06
1.42277e-06
1.15948e-06
5.67455e-07
1.09161e-06
-7.35532e-08
9.45762e-07
-3.84547e-07
8.18767e-07
-5.2481e-07
7.62006e-07
-6.01625e-07
7.27224e-07
-5.61897e-07
6.90722e-07
-4.07115e-07
6.49499e-07
-3.87158e-07
6.19834e-07
-4.28521e-07
6.26247e-07
-4.91789e-07
6.45657e-07
-4.33248e-07
6.37861e-07
-2.55761e-07
6.43405e-07
-2.32477e-07
6.87302e-07
-3.38044e-07
5.95623e-07
-3.09715e-07
6.16919e-07
5.95465e-08
6.5061e-07
4.4794e-07
5.8469e-07
5.55115e-07
5.13407e-07
6.88926e-07
7.07023e-07
1.09079e-06
9.51244e-07
1.9095e-06
1.1791e-06
2.70235e-06
1.37628e-06
3.34623e-06
1.53465e-06
3.79531e-06
1.64749e-06
4.04244e-06
1.71624e-06
4.11111e-06
1.74942e-06
4.04583e-06
1.75818e-06
3.89587e-06
1.75274e-06
3.70283e-06
1.7406e-06
3.49555e-06
1.7264e-06
3.29076e-06
1.71249e-06
3.09634e-06
1.6998e-06
2.91476e-06
1.68869e-06
2.74491e-06
1.68044e-06
2.57905e-06
2.38099e-06
6.27892e-08
1.23822e-05
5.97111e-08
1.24713e-05
6.05522e-08
1.25891e-05
6.51828e-08
1.27678e-05
7.5218e-08
1.30153e-05
9.22574e-08
1.33087e-05
1.1558e-07
1.36357e-05
1.52281e-07
1.3988e-05
2.40887e-07
1.40847e-05
4.26355e-07
1.30303e-05
6.37717e-07
9.851e-06
6.89662e-07
5.08633e-06
6.46544e-07
1.46791e-06
9.08058e-07
1.16125e-06
8.32142e-07
6.43371e-07
9.86475e-07
-2.27886e-07
9.17006e-07
-3.15079e-07
8.25593e-07
-4.33397e-07
7.82505e-07
-5.58537e-07
7.51843e-07
-5.31234e-07
7.21421e-07
-3.76694e-07
6.90125e-07
-3.55861e-07
6.54862e-07
-3.93258e-07
6.23448e-07
-4.60375e-07
5.85914e-07
-3.95714e-07
5.46349e-07
-2.16196e-07
4.34434e-07
-1.20562e-07
4.56069e-07
-3.5968e-07
4.53724e-07
-3.0737e-07
5.29292e-07
-1.60211e-08
6.53325e-07
3.23907e-07
6.5703e-07
5.5141e-07
6.03768e-07
7.42188e-07
6.35467e-07
1.0591e-06
8.55606e-07
1.68936e-06
1.0722e-06
2.48575e-06
1.25301e-06
3.16542e-06
1.39692e-06
3.6514e-06
1.50143e-06
3.93794e-06
1.56745e-06
4.04508e-06
1.60113e-06
4.01215e-06
1.6115e-06
3.88551e-06
1.6075e-06
3.70683e-06
1.59619e-06
3.50686e-06
1.5822e-06
3.30475e-06
1.5681e-06
3.11044e-06
1.555e-06
2.92785e-06
1.54338e-06
2.75653e-06
1.53437e-06
2.58806e-06
2.38324e-06
9.71347e-08
1.23865e-05
9.73185e-08
1.24711e-05
1.01475e-07
1.25849e-05
1.09408e-07
1.27599e-05
1.22406e-07
1.30023e-05
1.41357e-07
1.32897e-05
1.65616e-07
1.36114e-05
2.02998e-07
1.39506e-05
2.86524e-07
1.40012e-05
4.53393e-07
1.28634e-05
6.17821e-07
9.68658e-06
5.69714e-07
5.13443e-06
3.75969e-07
1.66166e-06
6.41657e-07
8.95566e-07
8.59368e-07
4.25661e-07
7.5479e-07
-1.23308e-07
9.13762e-07
-4.74051e-07
8.55881e-07
-3.75515e-07
7.96921e-07
-4.99578e-07
7.63659e-07
-4.97972e-07
7.56007e-07
-3.69042e-07
7.62975e-07
-3.6283e-07
7.7401e-07
-4.04293e-07
7.13006e-07
-3.99371e-07
5.54041e-07
-2.36749e-07
1.45895e-07
1.91949e-07
3.29869e-07
-3.04535e-07
3.90425e-07
-4.20237e-07
4.34238e-07
-3.51184e-07
5.31042e-07
-1.12824e-07
6.68263e-07
1.86685e-07
7.52118e-07
4.67555e-07
7.69309e-07
7.24997e-07
7.71815e-07
1.05659e-06
8.9009e-07
1.57109e-06
1.03177e-06
2.34407e-06
1.16997e-06
3.02721e-06
1.28486e-06
3.53651e-06
1.37098e-06
3.85183e-06
1.42698e-06
3.98908e-06
1.45613e-06
3.98299e-06
1.46492e-06
3.87671e-06
1.46056e-06
3.71119e-06
1.44914e-06
3.51828e-06
1.43493e-06
3.31896e-06
1.42045e-06
3.12493e-06
1.40684e-06
2.94146e-06
1.39472e-06
2.76866e-06
1.38554e-06
2.59724e-06
2.38538e-06
1.2965e-07
1.23881e-05
1.32607e-07
1.24682e-05
1.3951e-07
1.2578e-05
1.50051e-07
1.27493e-05
1.65206e-07
1.29872e-05
1.85297e-07
1.32696e-05
2.09603e-07
1.35871e-05
2.47076e-07
1.39131e-05
3.2672e-07
1.39215e-05
4.76919e-07
1.27132e-05
6.31709e-07
9.53179e-06
6.50255e-07
5.11589e-06
5.4676e-07
1.76515e-06
6.76252e-07
7.66074e-07
8.2787e-07
2.74043e-07
9.43258e-07
-2.38695e-07
1.03535e-06
-5.66141e-07
9.13163e-07
-2.53331e-07
7.80601e-07
-3.67016e-07
7.48425e-07
-4.65795e-07
8.09474e-07
-4.30091e-07
9.0288e-07
-4.56235e-07
9.51935e-07
-4.53348e-07
9.23592e-07
-3.71027e-07
7.76298e-07
-8.94551e-08
8.35339e-07
1.32908e-07
7.24114e-07
-1.93309e-07
6.59149e-07
-3.55272e-07
6.21834e-07
-3.13869e-07
6.4913e-07
-1.4012e-07
7.26299e-07
1.09516e-07
7.95523e-07
3.98331e-07
8.10798e-07
7.09723e-07
7.84074e-07
1.08331e-06
8.21032e-07
1.53413e-06
9.55465e-07
2.20964e-06
1.07728e-06
2.9054e-06
1.1724e-06
3.44139e-06
1.24112e-06
3.78311e-06
1.28512e-06
3.94508e-06
1.30746e-06
3.96066e-06
1.31303e-06
3.87114e-06
1.30744e-06
3.71678e-06
1.29569e-06
3.53003e-06
1.28145e-06
3.33321e-06
1.26696e-06
3.13942e-06
1.25337e-06
2.95505e-06
1.24156e-06
2.78047e-06
1.23355e-06
2.60525e-06
2.38605e-06
1.60319e-07
1.23873e-05
1.65622e-07
1.24629e-05
1.74787e-07
1.25689e-05
1.87377e-07
1.27367e-05
2.04066e-07
1.29705e-05
2.248e-07
1.32489e-05
2.48776e-07
1.35631e-05
2.85949e-07
1.3876e-05
3.63456e-07
1.3844e-05
5.03467e-07
1.25732e-05
6.67305e-07
9.36795e-06
7.80879e-07
5.00231e-06
7.83676e-07
1.76235e-06
5.66502e-07
9.83248e-07
7.04611e-07
1.35934e-07
8.0512e-07
-3.39206e-07
8.55989e-07
-6.17009e-07
8.91427e-07
-2.88769e-07
8.24437e-07
-3.00026e-07
8.01658e-07
-4.43017e-07
8.50089e-07
-4.78523e-07
9.08621e-07
-5.14767e-07
9.32225e-07
-4.76951e-07
8.98673e-07
-3.37475e-07
9.08226e-07
-9.90079e-08
1.02244e-06
1.8692e-08
9.95367e-07
-1.66234e-07
9.16931e-07
-2.76837e-07
8.45904e-07
-2.42842e-07
8.18149e-07
-1.12366e-07
8.33415e-07
9.42494e-08
8.64366e-07
3.67381e-07
8.77947e-07
6.96141e-07
8.76925e-07
1.08434e-06
8.7288e-07
1.53817e-06
9.27415e-07
2.15511e-06
1.00155e-06
2.83127e-06
1.06322e-06
3.37971e-06
1.10796e-06
3.73838e-06
1.13609e-06
3.91695e-06
1.14927e-06
3.94747e-06
1.15046e-06
3.86995e-06
1.14341e-06
3.72383e-06
1.13171e-06
3.54172e-06
1.11822e-06
3.3467e-06
1.10475e-06
3.15289e-06
1.09237e-06
2.96742e-06
1.08218e-06
2.79066e-06
1.07647e-06
2.61096e-06
2.38479e-06
1.8915e-07
1.23845e-05
1.96432e-07
1.24556e-05
2.07463e-07
1.25579e-05
2.21662e-07
1.27225e-05
2.39399e-07
1.29528e-05
2.60338e-07
1.32279e-05
2.83622e-07
1.35398e-05
3.19511e-07
1.38401e-05
3.94e-07
1.37695e-05
5.23048e-07
1.24441e-05
6.77596e-07
9.2134e-06
7.76106e-07
4.9038e-06
6.74727e-07
1.86373e-06
6.55927e-07
1.00205e-06
7.14671e-07
7.71888e-08
7.52707e-07
-3.77243e-07
7.3918e-07
-6.03481e-07
7.87636e-07
-3.37226e-07
8.21818e-07
-3.34208e-07
8.57327e-07
-4.78527e-07
8.90078e-07
-5.11274e-07
9.14682e-07
-5.39372e-07
9.26341e-07
-4.88611e-07
9.36399e-07
-3.47533e-07
1.01228e-06
-1.74886e-07
1.13173e-06
-1.00756e-07
1.13622e-06
-1.70729e-07
1.07263e-06
-2.13245e-07
1.00324e-06
-1.73457e-07
9.55265e-07
-6.43874e-08
9.37691e-07
1.11824e-07
9.42662e-07
3.6241e-07
9.53428e-07
6.85375e-07
9.56948e-07
1.08082e-06
9.39604e-07
1.55552e-06
9.33234e-07
2.16148e-06
9.39647e-07
2.82485e-06
9.53284e-07
3.36607e-06
9.66273e-07
3.72539e-06
9.74504e-07
3.90872e-06
9.7658e-07
3.9454e-06
9.72723e-07
3.87381e-06
9.64399e-07
3.73216e-06
9.53536e-07
3.55259e-06
9.41877e-07
3.35836e-06
9.30676e-07
3.16409e-06
9.20783e-07
2.97732e-06
9.1346e-07
2.79798e-06
9.11214e-07
2.61321e-06
2.3808e-06
2.16168e-07
1.238e-05
2.25119e-07
1.24466e-05
2.37693e-07
1.25453e-05
2.53162e-07
1.27071e-05
2.71573e-07
1.29344e-05
2.92278e-07
1.32072e-05
3.14345e-07
1.35178e-05
3.47551e-07
1.38069e-05
4.16749e-07
1.37003e-05
5.31524e-07
1.23294e-05
6.56188e-07
9.08874e-06
6.82994e-07
4.877e-06
6.11996e-07
1.93473e-06
6.84156e-07
9.29888e-07
7.22116e-07
3.92296e-08
7.10731e-07
-3.65858e-07
6.5866e-07
-5.5141e-07
7.05937e-07
-3.84503e-07
7.80696e-07
-4.08968e-07
8.38085e-07
-5.35916e-07
8.64583e-07
-5.37771e-07
8.78376e-07
-5.53166e-07
8.90329e-07
-5.00565e-07
9.31159e-07
-3.88363e-07
1.02437e-06
-2.68093e-07
1.12486e-06
-2.01246e-07
1.14959e-06
-1.95459e-07
1.11779e-06
-1.81449e-07
1.06793e-06
-1.23597e-07
1.02045e-06
-1.69114e-08
9.85465e-07
1.46813e-07
9.64609e-07
3.83265e-07
9.50471e-07
6.99513e-07
9.31779e-07
1.09951e-06
8.91347e-07
1.59595e-06
8.53948e-07
2.19888e-06
8.20216e-07
2.85858e-06
8.01403e-07
3.38489e-06
7.91419e-07
3.73537e-06
7.85407e-07
3.91473e-06
7.8002e-07
3.95078e-06
7.73691e-07
3.88014e-06
7.66136e-07
3.73971e-06
7.57841e-07
3.56088e-06
7.49558e-07
3.36665e-06
7.42007e-07
3.17164e-06
7.36041e-07
2.98328e-06
7.33639e-07
2.80038e-06
7.3805e-07
2.60879e-06
2.37109e-06
2.41408e-07
1.2374e-05
2.51769e-07
1.24363e-05
2.6563e-07
1.25314e-05
2.82128e-07
1.26906e-05
3.00976e-07
1.29155e-05
3.21147e-07
1.31871e-05
3.41584e-07
1.34973e-05
3.71039e-07
1.37774e-05
4.32881e-07
1.36385e-05
5.30697e-07
1.22316e-05
6.32443e-07
8.98699e-06
6.41687e-07
4.86776e-06
6.01247e-07
1.97517e-06
6.96778e-07
8.34357e-07
7.04339e-07
3.16696e-08
6.62666e-07
-3.24185e-07
6.01641e-07
-4.90386e-07
6.34915e-07
-4.17778e-07
7.02189e-07
-4.76242e-07
7.56589e-07
-5.90316e-07
7.87106e-07
-5.68288e-07
8.13217e-07
-5.79277e-07
8.48874e-07
-5.36223e-07
9.11058e-07
-4.50546e-07
9.98637e-07
-3.55672e-07
1.0787e-06
-2.81314e-07
1.11328e-06
-2.30031e-07
1.10563e-06
-1.738e-07
1.07336e-06
-9.1327e-08
1.02886e-06
2.75885e-08
9.79584e-07
1.96087e-07
9.29963e-07
4.32886e-07
8.7816e-07
7.51315e-07
8.23921e-07
1.15375e-06
7.47838e-07
1.67203e-06
6.727e-07
2.27401e-06
6.27021e-07
2.90426e-06
5.96189e-07
3.41572e-06
5.76638e-07
3.75492e-06
5.64828e-07
3.92655e-06
5.57583e-07
3.95803e-06
5.5257e-07
3.88515e-06
5.48393e-07
3.74389e-06
5.44471e-07
3.5648e-06
5.4076e-07
3.37036e-06
5.37641e-07
3.17476e-06
5.36453e-07
2.98447e-06
5.40538e-07
2.79629e-06
5.53377e-07
2.59595e-06
2.35556e-06
2.64908e-07
1.23668e-05
2.76467e-07
1.24247e-05
2.91429e-07
1.25165e-05
3.0882e-07
1.26732e-05
3.28043e-07
1.28963e-05
3.47672e-07
1.31674e-05
3.66466e-07
1.34785e-05
3.91845e-07
1.3752e-05
4.43765e-07
1.35866e-05
5.24568e-07
1.21508e-05
6.10135e-07
8.90142e-06
6.09283e-07
4.86861e-06
5.44501e-07
2.03995e-06
6.26897e-07
7.51962e-07
6.53563e-07
5.00367e-09
6.18486e-07
-2.89109e-07
5.62857e-07
-4.34757e-07
5.8041e-07
-4.3533e-07
6.24779e-07
-5.2061e-07
6.74315e-07
-6.39853e-07
7.16929e-07
-6.10902e-07
7.64059e-07
-6.26406e-07
8.22003e-07
-5.94167e-07
8.9492e-07
-5.23462e-07
9.74848e-07
-4.356e-07
1.04184e-06
-3.48309e-07
1.0774e-06
-2.65586e-07
1.07938e-06
-1.75787e-07
1.05466e-06
-6.66027e-08
1.00946e-06
7.27914e-08
9.4799e-07
2.57554e-07
8.7372e-07
5.07156e-07
7.88659e-07
8.36376e-07
6.99852e-07
1.24255e-06
5.90852e-07
1.78103e-06
4.8077e-07
2.38409e-06
4.16255e-07
2.96878e-06
3.72816e-07
3.45916e-06
3.45057e-07
3.78268e-06
3.29095e-07
3.94251e-06
3.21415e-07
3.96571e-06
3.1879e-07
3.88778e-06
3.18736e-07
3.74394e-06
3.19708e-07
3.56383e-06
3.21053e-07
3.36901e-06
3.23231e-07
3.17258e-06
3.28643e-07
2.97906e-06
3.41774e-07
2.78316e-06
3.64397e-07
2.57333e-06
2.33453e-06
2.86698e-07
1.23585e-05
2.99284e-07
1.24121e-05
3.15225e-07
1.25005e-05
3.33476e-07
1.26549e-05
3.5321e-07
1.28766e-05
3.72668e-07
1.3148e-05
3.905e-07
1.34607e-05
4.13088e-07
1.37294e-05
4.57571e-07
1.35421e-05
5.30003e-07
1.20783e-05
5.97353e-07
8.83407e-06
5.8689e-07
4.87907e-06
5.221e-07
2.10474e-06
5.90581e-07
6.83481e-07
6.13582e-07
-1.79982e-08
5.89117e-07
-2.64646e-07
5.41499e-07
-3.87139e-07
5.46168e-07
-4.39998e-07
5.76256e-07
-5.50699e-07
6.24079e-07
-6.87677e-07
6.75818e-07
-6.62642e-07
7.3803e-07
-6.88618e-07
8.09559e-07
-6.65696e-07
8.87014e-07
-6.00917e-07
9.60533e-07
-5.09118e-07
1.01853e-06
-4.06305e-07
1.05014e-06
-2.97203e-07
1.05238e-06
-1.78018e-07
1.02755e-06
-4.17796e-08
9.78382e-07
1.21962e-07
9.06986e-07
3.28949e-07
8.15547e-07
5.98595e-07
7.07538e-07
9.44385e-07
5.75481e-07
1.37461e-06
4.43791e-07
1.91272e-06
3.18712e-07
2.50917e-06
2.20653e-07
3.06684e-06
1.57511e-07
3.5223e-06
1.17491e-07
3.8227e-06
9.51045e-08
3.96489e-06
8.54498e-08
3.97536e-06
8.39428e-08
3.88928e-06
8.68666e-08
3.74102e-06
9.17439e-08
3.55895e-06
9.75898e-08
3.36316e-06
1.05468e-07
3.1647e-06
1.19051e-07
2.96547e-06
1.42766e-07
2.75945e-06
1.7491e-07
2.54119e-06
2.30958e-06
3.06789e-07
1.23494e-05
3.20256e-07
1.23987e-05
3.371e-07
1.24837e-05
3.56266e-07
1.26358e-05
3.76808e-07
1.2856e-05
3.96826e-07
1.3128e-05
4.15175e-07
1.34423e-05
4.38003e-07
1.37066e-05
4.81163e-07
1.34989e-05
5.48779e-07
1.20107e-05
5.92776e-07
8.79008e-06
5.68988e-07
4.90286e-06
5.49456e-07
2.12427e-06
5.97406e-07
6.35531e-07
6.07476e-07
-2.80674e-08
5.8024e-07
-2.3741e-07
5.39938e-07
-3.46837e-07
5.38287e-07
-4.38347e-07
5.60058e-07
-5.7247e-07
6.04053e-07
-7.31673e-07
6.59471e-07
-7.1806e-07
7.29867e-07
-7.59015e-07
8.07839e-07
-7.43667e-07
8.85793e-07
-6.78871e-07
9.54039e-07
-5.77363e-07
1.00397e-06
-4.56234e-07
1.02858e-06
-3.21811e-07
1.02578e-06
-1.75222e-07
9.95998e-07
-1.19971e-08
9.39876e-07
1.78083e-07
8.57868e-07
4.10957e-07
7.50405e-07
7.06057e-07
6.16935e-07
1.07785e-06
4.62358e-07
1.52919e-06
3.05288e-07
2.06979e-06
1.57371e-07
2.65709e-06
3.76529e-08
3.18656e-06
-4.67565e-08
3.60671e-06
-1.00528e-07
3.87647e-06
-1.30518e-07
3.99488e-06
-1.43357e-07
3.9882e-06
-1.45157e-07
3.89109e-06
-1.40863e-07
3.73673e-06
-1.33684e-07
3.55178e-06
-1.24506e-07
3.35399e-06
-1.11249e-07
3.15144e-06
-8.94216e-08
2.94365e-06
-5.63288e-08
2.72635e-06
-1.71351e-08
2.50199e-06
2.2761e-06
3.25176e-07
1.23396e-05
3.39383e-07
1.23845e-05
3.57065e-07
1.2466e-05
3.77234e-07
1.26156e-05
3.98954e-07
1.28343e-05
4.20437e-07
1.31065e-05
4.41181e-07
1.34216e-05
4.67931e-07
1.36799e-05
5.1562e-07
1.34512e-05
5.80882e-07
1.19454e-05
6.13639e-07
8.75732e-06
6.08465e-07
4.90803e-06
6.01416e-07
2.13132e-06
6.33342e-07
6.03603e-07
6.27273e-07
-2.19971e-08
5.93847e-07
-2.03985e-07
5.58857e-07
-3.11846e-07
5.54819e-07
-4.34309e-07
5.69567e-07
-5.87219e-07
6.07201e-07
-7.69307e-07
6.62431e-07
-7.7329e-07
7.36131e-07
-8.32715e-07
8.17292e-07
-8.24827e-07
8.92177e-07
-7.53757e-07
9.53552e-07
-6.38737e-07
9.94589e-07
-4.97272e-07
1.00999e-06
-3.3721e-07
9.98645e-07
-1.6388e-07
9.60036e-07
2.66124e-08
8.93827e-07
2.44291e-07
7.99228e-07
5.05557e-07
6.76455e-07
8.28831e-07
5.24692e-07
1.22962e-06
3.4863e-07
1.70525e-06
1.64313e-07
2.25411e-06
-5.17695e-09
2.82658e-06
-1.4511e-07
3.32649e-06
-2.45987e-07
3.70758e-06
-3.10881e-07
3.94137e-06
-3.47103e-07
4.03111e-06
-3.62637e-07
4.00373e-06
-3.6489e-07
3.89334e-06
-3.59699e-07
3.73154e-06
-3.50432e-07
3.54251e-06
-3.37181e-07
3.34074e-06
-3.16709e-07
3.13097e-06
-2.84866e-07
2.9118e-06
-2.42177e-07
2.68367e-06
-1.96473e-07
2.45629e-06
2.23881e-06
3.4184e-07
1.23294e-05
3.56626e-07
1.23697e-05
3.75052e-07
1.24476e-05
3.96276e-07
1.25944e-05
4.19491e-07
1.28111e-05
4.43309e-07
1.30827e-05
4.68291e-07
1.33966e-05
5.0266e-07
1.36455e-05
5.60906e-07
1.3393e-05
6.30269e-07
1.18761e-05
6.74596e-07
8.71299e-06
6.71279e-07
4.91135e-06
6.75363e-07
2.12724e-06
6.89426e-07
5.89539e-07
6.66584e-07
8.45589e-10
6.26469e-07
-1.6387e-07
5.95702e-07
-2.81079e-07
5.9231e-07
-4.30918e-07
6.00409e-07
-5.95317e-07
6.31444e-07
-8.00342e-07
6.85262e-07
-8.27108e-07
7.58347e-07
-9.058e-07
8.35188e-07
-9.01668e-07
9.04203e-07
-8.22772e-07
9.56499e-07
-6.91033e-07
9.8796e-07
-5.28732e-07
9.93093e-07
-3.42344e-07
9.69331e-07
-1.40118e-07
9.17706e-07
7.82375e-08
8.3723e-07
3.24767e-07
7.25051e-07
6.17737e-07
5.83157e-07
9.70725e-07
4.11885e-07
1.40089e-06
2.15996e-07
1.90114e-06
1.37278e-08
2.45638e-06
-1.76012e-07
3.01632e-06
-3.30933e-07
3.48141e-06
-4.43049e-07
3.8197e-06
-5.14929e-07
4.01325e-06
-5.5453e-07
4.07071e-06
-5.70958e-07
4.02016e-06
-5.72542e-07
3.89492e-06
-5.65434e-07
3.72443e-06
-5.52423e-07
3.5295e-06
-5.32437e-07
3.32075e-06
-5.02044e-07
3.10058e-06
-4.59805e-07
2.86957e-06
-4.11037e-07
2.6349e-06
-3.66922e-07
2.41217e-06
2.21507e-06
3.56742e-07
1.23189e-05
3.719e-07
1.23545e-05
3.90923e-07
1.24285e-05
4.13151e-07
1.25721e-05
4.38023e-07
1.27862e-05
4.64802e-07
1.30559e-05
4.95378e-07
1.3366e-05
5.39893e-07
1.3601e-05
6.13162e-07
1.33197e-05
7.05668e-07
1.17836e-05
7.86652e-07
8.63201e-06
7.68519e-07
4.92948e-06
7.60633e-07
2.13512e-06
7.59854e-07
5.90319e-07
7.19859e-07
4.08403e-08
6.74143e-07
-1.18153e-07
6.47979e-07
-2.54915e-07
6.45979e-07
-4.28918e-07
6.51138e-07
-6.00476e-07
6.80362e-07
-8.29567e-07
7.31203e-07
-8.77949e-07
7.99476e-07
-9.74073e-07
8.66022e-07
-9.68213e-07
9.23789e-07
-8.80539e-07
9.66396e-07
-7.3364e-07
9.84413e-07
-5.46749e-07
9.75411e-07
-3.33342e-07
9.35262e-07
-9.99694e-08
8.65886e-07
1.47613e-07
7.6629e-07
4.24363e-07
6.31146e-07
7.5288e-07
4.67485e-07
1.13439e-06
2.73664e-07
1.59471e-06
5.67279e-08
2.11808e-06
-1.60537e-07
2.67364e-06
-3.61278e-07
3.21706e-06
-5.23192e-07
3.64332e-06
-6.39633e-07
3.93614e-06
-7.13391e-07
4.08701e-06
-7.52903e-07
4.11022e-06
-7.67982e-07
4.03524e-06
-7.67315e-07
3.89426e-06
-7.56641e-07
3.71375e-06
-7.37652e-07
3.51051e-06
-7.08641e-07
3.29174e-06
-6.67952e-07
3.05989e-06
-6.18865e-07
2.82048e-06
-5.71195e-07
2.58723e-06
-5.36838e-07
2.37782e-06
2.2026e-06
3.69828e-07
1.23084e-05
3.85093e-07
1.23392e-05
4.04479e-07
1.24092e-05
4.27509e-07
1.25491e-05
4.53958e-07
1.27598e-05
4.83873e-07
1.3026e-05
5.20548e-07
1.33294e-05
5.75843e-07
1.35457e-05
6.65317e-07
1.32302e-05
7.81714e-07
1.16672e-05
8.75642e-07
8.53808e-06
8.65982e-07
4.93914e-06
8.63567e-07
2.13754e-06
8.41089e-07
6.12797e-07
7.79761e-07
1.02168e-07
7.31715e-07
-7.01074e-08
7.12196e-07
-2.35396e-07
7.22016e-07
-4.38737e-07
7.30759e-07
-6.09219e-07
7.60572e-07
-8.5938e-07
8.09622e-07
-9.27e-07
8.61442e-07
-1.02589e-06
9.12479e-07
-1.01925e-06
9.56114e-07
-9.24174e-07
9.83111e-07
-7.60637e-07
9.84208e-07
-5.47845e-07
9.57512e-07
-3.06646e-07
8.98096e-07
-4.05528e-08
8.08135e-07
2.37574e-07
6.86681e-07
5.45817e-07
5.28361e-07
9.112e-07
3.32989e-07
1.32976e-06
1.07998e-07
1.8197e-06
-1.31086e-07
2.35716e-06
-3.60376e-07
2.90293e-06
-5.60403e-07
3.41708e-06
-7.20821e-07
3.80374e-06
-8.35035e-07
4.05035e-06
-9.05992e-07
4.15796e-06
-9.42381e-07
4.14661e-06
-9.54224e-07
4.04708e-06
-9.49828e-07
3.88986e-06
-9.33823e-07
3.69775e-06
-9.06868e-07
3.48355e-06
-8.68032e-07
3.2529e-06
-8.19291e-07
3.01115e-06
-7.68542e-07
2.76973e-06
-7.27089e-07
2.54577e-06
-7.02939e-07
2.35367e-06
2.19637e-06
3.81036e-07
1.22982e-05
3.96086e-07
1.23242e-05
4.15488e-07
1.23897e-05
4.38935e-07
1.25257e-05
4.66588e-07
1.27321e-05
4.99259e-07
1.29933e-05
5.41534e-07
1.32871e-05
6.06327e-07
1.34809e-05
7.08094e-07
1.31285e-05
8.36567e-07
1.15387e-05
9.14011e-07
8.46064e-06
9.74742e-07
4.87841e-06
9.67263e-07
2.14502e-06
9.12712e-07
6.67348e-07
8.34453e-07
1.80427e-07
7.93745e-07
-2.93994e-08
7.88465e-07
-2.30116e-07
8.29328e-07
-4.796e-07
8.681e-07
-6.47991e-07
9.00955e-07
-8.92234e-07
9.16226e-07
-9.42272e-07
9.3194e-07
-1.04161e-06
9.62562e-07
-1.04987e-06
9.91813e-07
-9.53424e-07
1.00334e-06
-7.72167e-07
9.87028e-07
-5.3153e-07
9.367e-07
-2.56319e-07
8.52167e-07
4.39803e-08
7.36089e-07
3.53651e-07
5.90511e-07
6.91395e-07
4.08757e-07
1.09295e-06
1.76195e-07
1.56232e-06
-6.48885e-08
2.06078e-06
-3.16004e-07
2.60828e-06
-5.58878e-07
3.14581e-06
-7.58755e-07
3.61696e-06
-9.15409e-07
3.9604e-06
-1.02455e-06
4.15949e-06
-1.09033e-06
4.22375e-06
-1.12202e-06
4.1783e-06
-1.12948e-06
4.05454e-06
-1.11996e-06
3.88034e-06
-1.09675e-06
3.67454e-06
-1.06041e-06
3.44721e-06
-1.01253e-06
3.20502e-06
-9.59375e-07
2.958e-06
-9.11401e-07
2.72176e-06
-8.77853e-07
2.51223e-06
-8.61351e-07
2.33717e-06
2.19284e-06
3.90316e-07
1.22885e-05
4.04767e-07
1.23097e-05
4.23715e-07
1.23708e-05
4.47007e-07
1.25024e-05
4.75185e-07
1.27039e-05
5.09745e-07
1.29587e-05
5.56368e-07
1.32405e-05
6.28688e-07
1.34086e-05
7.39522e-07
1.30176e-05
8.73311e-07
1.14049e-05
9.74003e-07
8.35994e-06
1.02118e-06
4.83124e-06
1.02479e-06
2.1414e-06
9.44327e-07
7.47813e-07
8.77013e-07
2.47742e-07
8.58104e-07
-1.049e-08
8.73814e-07
-2.45827e-07
9.32839e-07
-5.38624e-07
1.01244e-06
-7.27587e-07
1.05337e-06
-9.33173e-07
9.92731e-07
-8.81629e-07
9.78917e-07
-1.02779e-06
1.00198e-06
-1.07293e-06
1.02253e-06
-9.73972e-07
1.01848e-06
-7.68119e-07
9.79466e-07
-4.92518e-07
9.00856e-07
-1.77709e-07
7.83256e-07
1.6158e-07
6.3337e-07
5.03537e-07
4.60676e-07
8.64088e-07
2.55396e-07
1.29823e-06
2.5947e-08
1.79177e-06
-2.32156e-07
2.31889e-06
-4.98456e-07
2.87458e-06
-7.44971e-07
3.39232e-06
-9.48041e-07
3.82003e-06
-1.10137e-06
4.11372e-06
-1.20468e-06
4.26281e-06
-1.26448e-06
4.28355e-06
-1.29079e-06
4.2046e-06
-1.29288e-06
4.05663e-06
-1.27665e-06
3.86411e-06
-1.24457e-06
3.64247e-06
-1.19866e-06
3.4013e-06
-1.14422e-06
3.15058e-06
-1.09081e-06
2.90459e-06
-1.04858e-06
2.67952e-06
-1.02272e-06
2.48637e-06
-1.01149e-06
2.32594e-06
2.19065e-06
3.97647e-07
1.22799e-05
4.11058e-07
1.22963e-05
4.28963e-07
1.23529e-05
4.51362e-07
1.248e-05
4.79119e-07
1.26762e-05
5.14361e-07
1.29235e-05
5.63822e-07
1.3191e-05
6.42303e-07
1.33301e-05
7.62779e-07
1.28972e-05
9.09358e-07
1.12583e-05
1.02798e-06
8.24132e-06
1.0736e-06
4.78562e-06
1.05226e-06
2.16275e-06
9.63188e-07
8.36884e-07
9.12292e-07
2.98639e-07
9.10921e-07
-9.11855e-09
9.77107e-07
-3.12012e-07
1.00656e-06
-5.68075e-07
1.04127e-06
-7.62302e-07
1.00831e-06
-9.00211e-07
9.47767e-07
-8.21085e-07
9.83992e-07
-1.06402e-06
1.03119e-06
-1.12013e-06
1.05003e-06
-9.92812e-07
1.02863e-06
-7.46714e-07
9.62303e-07
-4.26192e-07
8.49736e-07
-6.51416e-08
7.00484e-07
3.10832e-07
5.1937e-07
6.8465e-07
3.05266e-07
1.07819e-06
9.43365e-08
1.50916e-06
-1.57412e-07
2.04352e-06
-4.22072e-07
2.58355e-06
-6.90768e-07
3.14327e-06
-9.36121e-07
3.63767e-06
-1.13518e-06
4.01909e-06
-1.2813e-06
4.25984e-06
-1.37649e-06
4.35799e-06
-1.42886e-06
4.33592e-06
-1.4485e-06
4.22424e-06
-1.44353e-06
4.05167e-06
-1.41864e-06
3.83921e-06
-1.37681e-06
3.60063e-06
-1.32292e-06
3.34741e-06
-1.26578e-06
3.09344e-06
-1.21604e-06
2.85484e-06
-1.18112e-06
2.64461e-06
-1.162e-06
2.46724e-06
-1.15442e-06
2.31836e-06
2.18925e-06
4.03047e-07
1.22726e-05
4.14915e-07
1.22845e-05
4.31103e-07
1.23367e-05
4.51725e-07
1.24594e-05
4.7788e-07
1.265e-05
5.12266e-07
1.28891e-05
5.62625e-07
1.31407e-05
6.45119e-07
1.32476e-05
7.73971e-07
1.27683e-05
9.33493e-07
1.10988e-05
1.07324e-06
8.10157e-06
1.10965e-06
4.74921e-06
1.08356e-06
2.18884e-06
9.97128e-07
9.23312e-07
9.39292e-07
3.56475e-07
9.37675e-07
-7.50135e-09
9.65562e-07
-3.39898e-07
9.82673e-07
-5.85186e-07
9.03242e-07
-6.82871e-07
7.83445e-07
-7.80414e-07
8.80474e-07
-9.18113e-07
1.01315e-06
-1.19669e-06
1.07985e-06
-1.18683e-06