/*--------------------------------*- C++ -*----------------------------------*\
  =========                 |
  \\      /  F ield         | OpenFOAM: The Open Source CFD Toolbox
   \\    /   O peration     | Website:  https://openfoam.org
    \\  /    A nd           | Version:  9
     \\/     M anipulation  |
\*---------------------------------------------------------------------------*/
FoamFile
{
    format      ascii;
    class       volVectorField;
    location    "0.09";
    object      U;
}
// * * * * * * * * * * * * * * * * * * * * * * * * * * * * * * * * * * * * * //

dimensions      [0 1 -1 0 0 0 0];

internalField   nonuniform List<vector> 
5000
(
(-0.207664 0 0.257077)
(-0.218239 0 0.275322)
(-0.228938 0 0.297851)
(-0.240186 0 0.330047)
(-0.252369 0 0.376339)
(-0.264591 0 0.435454)
(-0.27443 0 0.501562)
(-0.281208 0 0.5767)
(-0.285683 0 0.661614)
(-0.269503 0 0.659202)
(-0.175728 0 0.312545)
(0.0767695 0 -0.481471)
(0.0718058 0 -1.29054)
(0.0401505 0 -1.73205)
(0.010129 0 -1.85066)
(-0.0245465 0 -1.88231)
(-0.0297402 0 -1.88893)
(-0.0224341 0 -1.89224)
(-0.0126788 0 -1.89284)
(-0.00585184 0 -1.89216)
(-0.00254735 0 -1.89256)
(-0.0010212 0 -1.89452)
(-7.47296e-05 0 -1.8974)
(0.000463738 0 -1.89994)
(0.000803047 0 -1.89965)
(0.00139102 0 -1.89193)
(0.00234851 0 -1.87216)
(0.00191758 0 -1.83925)
(-0.00397907 0 -1.79309)
(-0.0154524 0 -1.72728)
(-0.0255 0 -1.63651)
(-0.00452529 0 -1.47799)
(0.096876 0 -1.10667)
(0.2084 0 -0.676063)
(0.324552 0 -0.256353)
(0.42231 0 0.0814225)
(0.489211 0 0.303493)
(0.525827 0 0.4154)
(0.539703 0 0.446362)
(0.539918 0 0.430495)
(0.533832 0 0.39462)
(0.525922 0 0.354594)
(0.518193 0 0.317267)
(0.511166 0 0.284198)
(0.50474 0 0.254742)
(0.498674 0 0.227811)
(0.492794 0 0.20257)
(0.486976 0 0.178539)
(0.481487 0 0.155455)
(0.473481 0 0.132927)
(-0.197975 0 0.263571)
(-0.206844 0 0.281781)
(-0.215509 0 0.304427)
(-0.224332 0 0.336927)
(-0.233512 0 0.383235)
(-0.241901 0 0.441267)
(-0.247336 0 0.505468)
(-0.249818 0 0.578711)
(-0.248487 0 0.65378)
(-0.224013 0 0.614935)
(-0.135351 0 0.215628)
(0.0654615 0 -0.559961)
(0.106884 0 -1.25974)
(0.0543374 0 -1.70329)
(0.00898438 0 -1.82553)
(-0.0273344 0 -1.86996)
(-0.0280626 0 -1.89019)
(-0.0177914 0 -1.89887)
(-0.00826814 0 -1.89819)
(-0.00401562 0 -1.89468)
(-0.00386622 0 -1.89329)
(-0.00499132 0 -1.89453)
(-0.00619603 0 -1.89701)
(-0.00779204 0 -1.89917)
(-0.0104835 0 -1.89894)
(-0.01382 0 -1.89208)
(-0.0155478 0 -1.87285)
(-0.0152965 0 -1.83717)
(-0.0183333 0 -1.78236)
(-0.0271657 0 -1.71128)
(-0.0303935 0 -1.65506)
(0.000987339 0 -1.55145)
(0.0729448 0 -1.23766)
(0.162191 0 -0.836404)
(0.261646 0 -0.416714)
(0.352549 0 -0.0536409)
(0.421183 0 0.208369)
(0.464118 0 0.361888)
(0.485021 0 0.426297)
(0.490727 0 0.431923)
(0.488039 0 0.406901)
(0.48188 0 0.370739)
(0.474964 0 0.333857)
(0.468376 0 0.300201)
(0.462324 0 0.270282)
(0.456677 0 0.243355)
(0.451267 0 0.218538)
(0.445951 0 0.195182)
(0.440934 0 0.172747)
(0.434022 0 0.150004)
(-0.188247 0 0.269055)
(-0.195539 0 0.287069)
(-0.202328 0 0.30958)
(-0.208964 0 0.342054)
(-0.215477 0 0.387997)
(-0.220652 0 0.444653)
(-0.222728 0 0.506871)
(-0.222395 0 0.578001)
(-0.217876 0 0.64328)
(-0.18977 0 0.57226)
(-0.11338 0 0.131603)
(0.030261 0 -0.644171)
(0.149859 0 -1.32744)
(0.0715393 0 -1.65192)
(0.00854104 0 -1.79559)
(-0.0238268 0 -1.86054)
(-0.019869 0 -1.89474)
(-0.0089025 0 -1.90632)
(-0.00134543 0 -1.90225)
(-0.000341728 0 -1.89498)
(-0.00359309 0 -1.89163)
(-0.00753468 0 -1.89245)
(-0.0107384 0 -1.89468)
(-0.0137615 0 -1.89559)
(-0.0192424 0 -1.89341)
(-0.0290166 0 -1.88613)
(-0.038681 0 -1.86901)
(-0.0407925 0 -1.8337)
(-0.0372935 0 -1.77387)
(-0.0344666 0 -1.70563)
(-0.019325 0 -1.68367)
(0.0333623 0 -1.63777)
(0.0807481 0 -1.35127)
(0.140628 0 -0.963111)
(0.214288 0 -0.55499)
(0.292573 0 -0.181454)
(0.35883 0 0.10921)
(0.40512 0 0.298238)
(0.431469 0 0.394989)
(0.442289 0 0.424216)
(0.443293 0 0.413188)
(0.439346 0 0.38354)
(0.433606 0 0.348696)
(0.427664 0 0.31509)
(0.422093 0 0.284743)
(0.416958 0 0.257568)
(0.412166 0 0.232817)
(0.407608 0 0.209688)
(0.403409 0 0.187179)
(0.397783 0 0.163337)
(-0.178593 0 0.273564)
(-0.184428 0 0.291238)
(-0.18954 0 0.313446)
(-0.194237 0 0.34569)
(-0.198466 0 0.390988)
(-0.201061 0 0.446072)
(-0.200615 0 0.506371)
(-0.19829 0 0.57527)
(-0.191958 0 0.631454)
(-0.162021 0 0.534958)
(-0.0951267 0 0.0660464)
(0.0159342 0 -0.716976)
(0.219712 0 -1.40444)
(0.117144 0 -1.57212)
(0.0255091 0 -1.75974)
(-0.00150895 0 -1.85508)
(0.00105746 0 -1.90051)
(0.00579567 0 -1.91203)
(0.0080568 0 -1.90391)
(0.00533075 0 -1.8928)
(-0.00101956 0 -1.88754)
(-0.00771375 0 -1.88841)
(-0.0126209 0 -1.89123)
(-0.0152328 0 -1.89064)
(-0.019912 0 -1.88341)
(-0.0337744 0 -1.87144)
(-0.052625 0 -1.85755)
(-0.0587748 0 -1.83346)
(-0.0445869 0 -1.78724)
(-0.0200219 0 -1.73314)
(0.0126774 0 -1.73668)
(0.0353671 0 -1.68616)
(0.052647 0 -1.41122)
(0.103347 0 -1.0484)
(0.166598 0 -0.666148)
(0.236372 0 -0.296928)
(0.30015 0 0.0107006)
(0.348578 0 0.227997)
(0.379292 0 0.354287)
(0.394751 0 0.407683)
(0.399491 0 0.412875)
(0.398024 0 0.392137)
(0.393705 0 0.361085)
(0.388511 0 0.328462)
(0.383343 0 0.297977)
(0.378454 0 0.270487)
(0.373799 0 0.245626)
(0.369252 0 0.222632)
(0.365342 0 0.200407)
(0.360641 0 0.178322)
(-0.169122 0 0.27721)
(-0.173623 0 0.294393)
(-0.177239 0 0.31616)
(-0.180259 0 0.348007)
(-0.182579 0 0.392482)
(-0.183133 0 0.446014)
(-0.18085 0 0.504677)
(-0.176976 0 0.571292)
(-0.169144 0 0.61884)
(-0.138292 0 0.502344)
(-0.0780014 0 0.0134657)
(0.018724 0 -0.790859)
(0.174 0 -1.45211)
(0.154985 0 -1.50106)
(0.0767176 0 -1.71649)
(0.055719 0 -1.84213)
(0.0398696 0 -1.8988)
(0.0261659 0 -1.91085)
(0.0189627 0 -1.90146)
(0.0126371 0 -1.8882)
(0.00413531 0 -1.88132)
(-0.00481605 0 -1.88269)
(-0.011276 0 -1.88789)
(-0.0119457 0 -1.88848)
(-0.0103081 0 -1.87598)
(-0.0193668 0 -1.85484)
(-0.036534 0 -1.8447)
(-0.0366513 0 -1.84496)
(-0.0141611 0 -1.82996)
(0.0220124 0 -1.78171)
(0.0324658 0 -1.74482)
(-0.0355982 0 -1.66709)
(-0.0175799 0 -1.46325)
(0.0606646 0 -1.12086)
(0.119875 0 -0.761423)
(0.184116 0 -0.40214)
(0.245691 0 -0.0857674)
(0.295194 0 0.153456)
(0.329151 0 0.306084)
(0.348517 0 0.383232)
(0.356716 0 0.406037)
(0.357774 0 0.396201)
(0.355064 0 0.370679)
(0.350834 0 0.340174)
(0.346302 0 0.310108)
(0.341982 0 0.282475)
(0.338005 0 0.257493)
(0.334311 0 0.234473)
(0.331883 0 0.210754)
(0.331975 0 0.169874)
(-0.159903 0 0.280071)
(-0.163211 0 0.296664)
(-0.165517 0 0.317884)
(-0.167101 0 0.349207)
(-0.167826 0 0.392772)
(-0.166759 0 0.444839)
(-0.163168 0 0.502141)
(-0.158066 0 0.566506)
(-0.148574 0 0.60531)
(-0.116624 0 0.471712)
(-0.0537273 0 -0.0349105)
(0.0343118 0 -0.861606)
(0.0996231 0 -1.51294)
(0.162834 0 -1.48919)
(0.140215 0 -1.67267)
(0.121104 0 -1.81001)
(0.0835244 0 -1.88059)
(0.0464675 0 -1.89847)
(0.0288652 0 -1.89421)
(0.0204791 0 -1.88204)
(0.0113313 0 -1.8738)
(0.00107342 0 -1.8754)
(-0.0073311 0 -1.88483)
(-0.00751951 0 -1.8922)
(0.00103273 0 -1.87914)
(0.00162206 0 -1.84776)
(-0.00291813 0 -1.83834)
(0.0037498 0 -1.85598)
(0.0187224 0 -1.86516)
(0.0624932 0 -1.77907)
(0.00717371 0 -1.66531)
(-0.0608329 0 -1.6285)
(-0.0603023 0 -1.54667)
(0.0017905 0 -1.23486)
(0.0762898 0 -0.867595)
(0.140887 0 -0.505167)
(0.198909 0 -0.180821)
(0.247476 0 0.0763394)
(0.282846 0 0.25239)
(0.304723 0 0.352358)
(0.315534 0 0.393375)
(0.318732 0 0.395821)
(0.317528 0 0.377265)
(0.314269 0 0.349926)
(0.310379 0 0.320796)
(0.306569 0 0.293054)
(0.303104 0 0.267599)
(0.299952 0 0.243818)
(0.297529 0 0.21742)
(0.297291 0 0.163023)
(-0.150994 0 0.282218)
(-0.153244 0 0.298149)
(-0.154418 0 0.318762)
(-0.154789 0 0.349494)
(-0.154211 0 0.39212)
(-0.151872 0 0.442807)
(-0.147367 0 0.498908)
(-0.141426 0 0.560985)
(-0.130306 0 0.590545)
(-0.0977975 0 0.43995)
(-0.0370862 0 -0.0820678)
(0.0460493 0 -0.908749)
(0.0557971 0 -1.54243)
(0.126659 0 -1.50646)
(0.136108 0 -1.66201)
(0.131784 0 -1.78855)
(0.0988544 0 -1.85384)
(0.056183 0 -1.87762)
(0.0353041 0 -1.88472)
(0.0275543 0 -1.87606)
(0.0191433 0 -1.86613)
(0.00883924 0 -1.86675)
(-0.00182326 0 -1.87983)
(-0.00536356 0 -1.89679)
(0.00141268 0 -1.88616)
(0.00230078 0 -1.84696)
(-0.000119702 0 -1.83914)
(0.00526669 0 -1.86507)
(0.00533785 0 -1.89767)
(-0.0134838 0 -1.74682)
(0.00333825 0 -1.61161)
(0.000439611 0 -1.5934)
(-0.0304431 0 -1.55581)
(-0.0195689 0 -1.3369)
(0.0470918 0 -0.972236)
(0.108532 0 -0.602983)
(0.162095 0 -0.270801)
(0.207475 0 0.000770158)
(0.241856 0 0.196823)
(0.264326 0 0.317731)
(0.276424 0 0.376591)
(0.280949 0 0.391904)
(0.280773 0 0.381237)
(0.278178 0 0.357878)
(0.274663 0 0.330182)
(0.271047 0 0.302489)
(0.267693 0 0.276469)
(0.264687 0 0.251756)
(0.262215 0 0.223193)
(0.260855 0 0.162355)
(-0.142435 0 0.283732)
(-0.143756 0 0.298953)
(-0.143961 0 0.318921)
(-0.143322 0 0.349025)
(-0.141703 0 0.390724)
(-0.138406 0 0.440155)
(-0.133292 0 0.495152)
(-0.127023 0 0.554935)
(-0.114976 0 0.575193)
(-0.0824569 0 0.407396)
(-0.0305901 0 -0.122553)
(0.0395061 0 -0.936127)
(-0.0224959 0 -1.54984)
(0.0346075 0 -1.56962)
(0.0524465 0 -1.68308)
(0.0889047 0 -1.7893)
(0.0851164 0 -1.83172)
(0.0566021 0 -1.85705)
(0.0396662 0 -1.87609)
(0.0329196 0 -1.87081)
(0.0257251 0 -1.85903)
(0.0175495 0 -1.85799)
(0.00877279 0 -1.87111)
(0.0023998 0 -1.89169)
(-0.00805197 0 -1.8815)
(-0.0166653 0 -1.844)
(-0.0269576 0 -1.84281)
(-0.0559255 0 -1.87438)
(-0.051711 0 -1.87702)
(-0.0407883 0 -1.76397)
(-0.00833765 0 -1.64177)
(0.0127839 0 -1.58025)
(-0.00124544 0 -1.52153)
(-0.0157565 0 -1.3842)
(0.020173 0 -1.06997)
(0.0819717 0 -0.698167)
(0.133391 0 -0.354915)
(0.174478 0 -0.0698425)
(0.205927 0 0.14331)
(0.227192 0 0.282699)
(0.239189 0 0.35814)
(0.244085 0 0.386084)
(0.244336 0 0.383662)
(0.242029 0 0.364829)
(0.238627 0 0.339051)
(0.234998 0 0.311737)
(0.231557 0 0.285366)
(0.228453 0 0.259937)
(0.225851 0 0.229766)
(0.224017 0 0.163823)
(-0.134258 0 0.284691)
(-0.134769 0 0.299169)
(-0.134153 0 0.318474)
(-0.132682 0 0.347939)
(-0.13025 0 0.388756)
(-0.126279 0 0.437094)
(-0.120783 0 0.491107)
(-0.114541 0 0.548674)
(-0.102475 0 0.560516)
(-0.0700834 0 0.377095)
(-0.0296112 0 -0.154066)
(0.0261952 0 -0.938368)
(-0.0686553 0 -1.52765)
(-0.0380294 0 -1.61486)
(0.0399331 0 -1.69261)
(0.0306243 0 -1.81527)
(0.0700704 0 -1.82917)
(0.0659369 0 -1.84308)
(0.046152 0 -1.86521)
(0.0338019 0 -1.86352)
(0.029719 0 -1.85306)
(0.0297936 0 -1.85277)
(0.035414 0 -1.8645)
(0.0349541 0 -1.8786)
(0.00283817 0 -1.86461)
(-0.0439661 0 -1.82287)
(-0.133934 0 -1.82907)
(-0.0725413 0 -1.90428)
(-0.0575821 0 -1.88031)
(-0.0413654 0 -1.80054)
(-0.00928661 0 -1.69597)
(0.0232664 0 -1.60034)
(0.0353843 0 -1.50795)
(0.0291413 0 -1.38177)
(0.0414652 0 -1.13886)
(0.0797556 0 -0.778227)
(0.117357 0 -0.427236)
(0.149462 0 -0.130801)
(0.175062 0 0.0962225)
(0.192945 0 0.250931)
(0.203294 0 0.340785)
(0.207555 0 0.380276)
(0.207635 0 0.3858)
(0.205298 0 0.371614)
(0.20186 0 0.348014)
(0.198149 0 0.321329)
(0.194583 0 0.294805)
(0.19134 0 0.268819)
(0.188633 0 0.237075)
(0.186842 0 0.165954)
(-0.126481 0 0.285163)
(-0.126295 0 0.298885)
(-0.124988 0 0.317525)
(-0.122838 0 0.346366)
(-0.119774 0 0.386371)
(-0.115366 0 0.433798)
(-0.109654 0 0.487002)
(-0.103466 0 0.542415)
(-0.0919428 0 0.547003)
(-0.059558 0 0.350725)
(-0.0252574 0 -0.178666)
(0.0265508 0 -0.924282)
(-0.0223021 0 -1.4905)
(-0.0152661 0 -1.64651)
(0.0324273 0 -1.72792)
(0.062273 0 -1.81716)
(0.102402 0 -1.86848)
(0.085125 0 -1.83749)
(0.0495276 0 -1.85308)
(0.0260641 0 -1.85703)
(0.0321993 0 -1.85412)
(0.0534167 0 -1.85886)
(0.0756488 0 -1.87061)
(0.076527 0 -1.86827)
(0.0641575 0 -1.82356)
(0.0274177 0 -1.70366)
(0.042076 0 -1.84064)
(0.0135427 0 -1.89558)
(-0.00148545 0 -1.88363)
(-0.00383442 0 -1.82585)
(0.0107604 0 -1.73714)
(0.032761 0 -1.63299)
(0.0456427 0 -1.51858)
(0.039753 0 -1.37249)
(0.0362015 0 -1.16672)
(0.0599701 0 -0.833237)
(0.0954018 0 -0.482723)
(0.123743 0 -0.178607)
(0.144478 0 0.0587537)
(0.15862 0 0.225274)
(0.166719 0 0.326765)
(0.169841 0 0.376024)
(0.169446 0 0.388572)
(0.166957 0 0.378683)
(0.163492 0 0.357206)
(0.15978 0 0.331201)
(0.156208 0 0.304577)
(0.152975 0 0.277934)
(0.150415 0 0.244073)
(0.149164 0 0.167333)
(-0.119115 0 0.285214)
(-0.11833 0 0.298177)
(-0.116446 0 0.316163)
(-0.113746 0 0.344412)
(-0.110192 0 0.383689)
(-0.105518 0 0.430374)
(-0.0997479 0 0.48296)
(-0.0935117 0 0.536204)
(-0.0827105 0 0.534165)
(-0.0506536 0 0.327158)
(-0.0186872 0 -0.203494)
(0.0374373 0 -0.927842)
(0.0494218 0 -1.4782)
(-0.000755486 0 -1.6382)
(-0.0150793 0 -1.74603)
(0.038938 0 -1.83211)
(0.0458911 0 -1.89532)
(0.0680779 0 -1.82416)
(0.0573707 0 -1.8353)
(0.0376917 0 -1.85588)
(0.0444633 0 -1.87328)
(0.0627222 0 -1.88462)
(0.0742992 0 -1.88509)
(0.0703301 0 -1.86387)
(0.0647768 0 -1.77584)
(0.0788241 0 -1.73358)
(0.101135 0 -1.82539)
(0.0833928 0 -1.86869)
(0.0601258 0 -1.86459)
(0.0463904 0 -1.82324)
(0.0451884 0 -1.7513)
(0.0527774 0 -1.65194)
(0.0608348 0 -1.52716)
(0.0620212 0 -1.36781)
(0.0570524 0 -1.17164)
(0.0618236 0 -0.873321)
(0.0813646 0 -0.527696)
(0.10022 0 -0.215792)
(0.113828 0 0.0308237)
(0.122968 0 0.20666)
(0.128023 0 0.317099)
(0.129556 0 0.374022)
(0.128512 0 0.392257)
(0.125903 0 0.38595)
(0.122568 0 0.366277)
(0.119086 0 0.340827)
(0.115787 0 0.313988)
(0.112893 0 0.286315)
(0.110824 0 0.249513)
(0.110303 0 0.167019)
(-0.112162 0 0.284901)
(-0.110868 0 0.297111)
(-0.108502 0 0.314461)
(-0.105357 0 0.342159)
(-0.101424 0 0.380799)
(-0.0966004 0 0.426886)
(-0.0909492 0 0.479016)
(-0.0847068 0 0.530088)
(-0.0747898 0 0.521563)
(-0.0440863 0 0.305018)
(-0.0144845 0 -0.230676)
(0.0393615 0 -0.951725)
(0.0260455 0 -1.47711)
(-0.00315437 0 -1.61251)
(0.0112345 0 -1.76113)
(0.0321493 0 -1.84028)
(0.022512 0 -1.88516)
(0.030121 0 -1.81976)
(0.0455229 0 -1.82051)
(0.0492967 0 -1.85304)
(0.0591207 0 -1.88805)
(0.0680224 0 -1.90357)
(0.0716718 0 -1.89374)
(0.0719927 0 -1.85667)
(0.0820521 0 -1.80821)
(0.110166 0 -1.79077)
(0.130176 0 -1.82597)
(0.120926 0 -1.8477)
(0.10072 0 -1.84113)
(0.0844755 0 -1.80828)
(0.0760191 0 -1.74837)
(0.0749463 0 -1.65719)
(0.0782662 0 -1.53282)
(0.0812552 0 -1.37075)
(0.0777303 0 -1.16702)
(0.0728273 0 -0.885571)
(0.07378 0 -0.54835)
(0.0778596 0 -0.235076)
(0.0816695 0 0.0159583)
(0.0845388 0 0.19704)
(0.0858575 0 0.312898)
(0.085493 0 0.37476)
(0.0837627 0 0.396839)
(0.0811713 0 0.393012)
(0.0782139 0 0.374552)
(0.0752628 0 0.349351)
(0.0725487 0 0.322076)
(0.0703136 0 0.293046)
(0.0691068 0 0.25297)
(0.069572 0 0.165271)
(-0.105623 0 0.284278)
(-0.103896 0 0.295745)
(-0.101127 0 0.312479)
(-0.0976189 0 0.33967)
(-0.0933985 0 0.377768)
(-0.0885029 0 0.423397)
(-0.0831319 0 0.475215)
(-0.077085 0 0.524254)
(-0.0682606 0 0.509423)
(-0.0398403 0 0.284445)
(-0.0138432 0 -0.255669)
(0.0267422 0 -0.9691)
(-0.00537447 0 -1.46529)
(-0.0024045 0 -1.61467)
(0.0223405 0 -1.77084)
(0.0258632 0 -1.84228)
(0.0080356 0 -1.87551)
(0.00481291 0 -1.83841)
(0.0298015 0 -1.83966)
(0.044315 0 -1.86336)
(0.0547064 0 -1.8874)
(0.0593977 0 -1.89666)
(0.0611741 0 -1.88946)
(0.0665528 0 -1.865)
(0.0837961 0 -1.83619)
(0.111333 0 -1.82193)
(0.129427 0 -1.82949)
(0.127654 0 -1.83412)
(0.115364 0 -1.82264)
(0.102045 0 -1.79219)
(0.0912022 0 -1.7384)
(0.0839523 0 -1.65355)
(0.0799587 0 -1.53222)
(0.0772337 0 -1.36928)
(0.0687738 0 -1.15512)
(0.0579937 0 -0.872698)
(0.049331 0 -0.538991)
(0.0435121 0 -0.231824)
(0.0403562 0 0.0164113)
(0.038628 0 0.197225)
(0.0372979 0 0.314297)
(0.03579 0 0.377988)
(0.0339423 0 0.401793)
(0.0318403 0 0.399147)
(0.0296751 0 0.381184)
(0.0276256 0 0.355862)
(0.0258249 0 0.327902)
(0.0245973 0 0.29707)
(0.0249476 0 0.252879)
(0.0275284 0 0.160394)
(-0.0994932 0 0.283391)
(-0.0974018 0 0.294125)
(-0.0942922 0 0.310266)
(-0.0904829 0 0.336997)
(-0.0860416 0 0.374651)
(-0.0811126 0 0.419974)
(-0.0761076 0 0.471648)
(-0.0704647 0 0.51896)
(-0.0628338 0 0.498301)
(-0.0378255 0 0.266405)
(-0.0150911 0 -0.274882)
(0.0157526 0 -0.970375)
(-0.0141637 0 -1.45272)
(0.00236063 0 -1.63194)
(0.0229446 0 -1.77432)
(0.0159941 0 -1.83748)
(-0.00381875 0 -1.86637)
(-0.0105776 0 -1.84876)
(0.0100704 0 -1.85544)
(0.0241065 0 -1.87387)
(0.0344928 0 -1.89108)
(0.0409446 0 -1.8985)
(0.0476641 0 -1.89382)
(0.0595345 0 -1.87735)
(0.0791202 0 -1.85689)
(0.102154 0 -1.84264)
(0.117859 0 -1.83697)
(0.12096 0 -1.82912)
(0.115049 0 -1.81077)
(0.104794 0 -1.7777)
(0.0926343 0 -1.72403)
(0.0797368 0 -1.64072)
(0.0666005 0 -1.51983)
(0.0544348 0 -1.35504)
(0.0377374 0 -1.13216)
(0.0172614 0 -0.84801)
(0.00217759 0 -0.518238)
(-0.00652756 0 -0.217422)
(-0.0122997 0 0.0255389)
(-0.016033 0 0.203079)
(-0.0183145 0 0.318541)
(-0.0198325 0 0.381748)
(-0.0210261 0 0.405635)
(-0.0221035 0 0.40318)
(-0.023112 0 0.385243)
(-0.024022 0 0.359633)
(-0.0247281 0 0.330698)
(-0.0246966 0 0.296903)
(-0.0223785 0 0.246538)
(-0.0173301 0 0.150003)
(-0.0937689 0 0.28228)
(-0.09137 0 0.29229)
(-0.0879694 0 0.307859)
(-0.0838981 0 0.334171)
(-0.0792708 0 0.371479)
(-0.0743016 0 0.416658)
(-0.0696331 0 0.468379)
(-0.0645001 0 0.514378)
(-0.058191 0 0.488737)
(-0.0377714 0 0.251488)
(-0.0170879 0 -0.290031)
(0.00691971 0 -0.968069)
(-0.023585 0 -1.44522)
(-0.0142118 0 -1.64892)
(0.00730084 0 -1.77705)
(0.00307229 0 -1.83066)
(-0.0130456 0 -1.8566)
(-0.0205873 0 -1.85154)
(-0.00814535 0 -1.86358)
(0.00325634 0 -1.88225)
(0.0147644 0 -1.89918)
(0.0256333 0 -1.90748)
(0.0384628 0 -1.9054)
(0.054995 0 -1.89372)
(0.0748866 0 -1.87736)
(0.0944111 0 -1.86147)
(0.10803 0 -1.84699)
(0.112799 0 -1.8291)
(0.109653 0 -1.80287)
(0.100598 0 -1.76386)
(0.086991 0 -1.70558)
(0.0697138 0 -1.61875)
(0.0490996 0 -1.49444)
(0.0275443 0 -1.32694)
(0.00273008 0 -1.09372)
(-0.0265839 0 -0.808246)
(-0.0488646 0 -0.49343)
(-0.0610548 0 -0.20009)
(-0.0693655 0 0.0373602)
(-0.0746701 0 0.210516)
(-0.0774966 0 0.322826)
(-0.0787177 0 0.3841)
(-0.0790381 0 0.407011)
(-0.078939 0 0.404167)
(-0.0786822 0 0.386077)
(-0.0783224 0 0.360108)
(-0.0776202 0 0.329533)
(-0.0756732 0 0.290847)
(-0.070731 0 0.232535)
(-0.0633591 0 0.134404)
(-0.088447 0 0.280979)
(-0.0857904 0 0.290269)
(-0.0821359 0 0.305277)
(-0.0778208 0 0.3312)
(-0.0730068 0 0.368242)
(-0.0679374 0 0.413423)
(-0.0634436 0 0.465367)
(-0.0586482 0 0.510464)
(-0.0532281 0 0.480855)
(-0.0359961 0 0.239102)
(-0.0166922 0 -0.302296)
(-7.09121e-05 0 -0.967485)
(-0.0283403 0 -1.43525)
(-0.021578 0 -1.66148)
(-0.00331354 0 -1.78139)
(-0.00610124 0 -1.82578)
(-0.0190576 0 -1.84791)
(-0.0261765 0 -1.85271)
(-0.0194894 0 -1.86913)
(-0.00988599 0 -1.89022)
(0.00276577 0 -1.90915)
(0.0170981 0 -1.91969)
(0.034 0 -1.92042)
(0.0530324 0 -1.91175)
(0.0725332 0 -1.89647)
(0.0896806 0 -1.87776)
(0.101398 0 -1.85638)
(0.105812 0 -1.83015)
(0.102948 0 -1.7959)
(0.0935923 0 -1.74931)
(0.0783537 0 -1.6837)
(0.0579047 0 -1.58988)
(0.0327424 0 -1.45901)
(0.00190321 0 -1.28503)
(-0.0315191 0 -1.04583)
(-0.0651694 0 -0.759254)
(-0.09384 0 -0.459414)
(-0.112803 0 -0.176694)
(-0.125122 0 0.0530266)
(-0.132667 0 0.219819)
(-0.136468 0 0.327163)
(-0.137725 0 0.385032)
(-0.137466 0 0.405963)
(-0.136462 0 0.402181)
(-0.135154 0 0.383646)
(-0.133587 0 0.356783)
(-0.13124 0 0.323097)
(-0.126859 0 0.277464)
(-0.119006 0 0.211385)
(-0.109826 0 0.115779)
(-0.0835275 0 0.279521)
(-0.0806579 0 0.288091)
(-0.0767795 0 0.30254)
(-0.0722249 0 0.328083)
(-0.0671923 0 0.364899)
(-0.0619123 0 0.410169)
(-0.0573178 0 0.462428)
(-0.0523822 0 0.506836)
(-0.0468634 0 0.473839)
(-0.0306957 0 0.227599)
(-0.0135974 0 -0.31201)
(-0.00685518 0 -0.96552)
(-0.025164 0 -1.42733)
(-0.015331 0 -1.6709)
(-0.00401368 0 -1.78432)
(-0.00896243 0 -1.82167)
(-0.0203272 0 -1.84061)
(-0.0265845 0 -1.85293)
(-0.0229131 0 -1.87344)
(-0.0148713 0 -1.89802)
(-0.00216242 0 -1.92029)
(0.0139405 0 -1.93411)
(0.0330244 0 -1.93744)
(0.0530403 0 -1.9302)
(0.0718206 0 -1.91402)
(0.0870995 0 -1.89172)
(0.0968019 0 -1.86411)
(0.0997047 0 -1.83033)
(0.0956869 0 -1.78803)
(0.0849696 0 -1.73306)
(0.0676421 0 -1.65866)
(0.0439164 0 -1.55565)
(0.0137949 0 -1.41523)
(-0.0231925 0 -1.23065)
(-0.0632667 0 -0.988898)
(-0.102404 0 -0.702497)
(-0.136627 0 -0.411992)
(-0.161679 0 -0.143101)
(-0.178342 0 0.075339)
(-0.188452 0 0.232814)
(-0.193514 0 0.332895)
(-0.195121 0 0.385703)
(-0.194661 0 0.403586)
(-0.193168 0 0.398234)
(-0.191183 0 0.378669)
(-0.188607 0 0.349687)
(-0.184609 0 0.310673)
(-0.177874 0 0.256252)
(-0.167378 0 0.183517)
(-0.156523 0 0.0951302)
(-0.079012 0 0.27794)
(-0.0759729 0 0.285781)
(-0.0718998 0 0.299661)
(-0.0671079 0 0.324809)
(-0.0618108 0 0.361394)
(-0.0561862 0 0.406753)
(-0.0511678 0 0.459257)
(-0.045464 0 0.502873)
(-0.0386118 0 0.466524)
(-0.021875 0 0.216614)
(-0.00695228 0 -0.318158)
(-0.00274657 0 -0.96237)
(-0.0112326 0 -1.42464)
(-0.00314432 0 -1.6771)
(0.00220393 0 -1.78452)
(-0.00580054 0 -1.81665)
(-0.0163925 0 -1.83436)
(-0.0216378 0 -1.8524)
(-0.0196594 0 -1.8765)
(-0.013587 0 -1.90492)
(-0.00170661 0 -1.93167)
(0.0150913 0 -1.94969)
(0.0351982 0 -1.95556)
(0.0552613 0 -1.94839)
(0.0727567 0 -1.93008)
(0.0859558 0 -1.90357)
(0.0933294 0 -1.8697)
(0.0939928 0 -1.82856)
(0.0878118 0 -1.77812)
(0.0748232 0 -1.7142)
(0.0547535 0 -1.62995)
(0.0276093 0 -1.51623)
(-0.00683464 0 -1.36376)
(-0.0486756 0 -1.16759)
(-0.094916 0 -0.920989)
(-0.140418 0 -0.636328)
(-0.179726 0 -0.354264)
(-0.209658 0 -0.0999675)
(-0.229893 0 0.104311)
(-0.242113 0 0.249767)
(-0.248208 0 0.340508)
(-0.250132 0 0.386826)
(-0.249567 0 0.400774)
(-0.247708 0 0.393211)
(-0.245016 0 0.371639)
(-0.241073 0 0.338607)
(-0.23483 0 0.291745)
(-0.225456 0 0.227548)
(-0.212959 0 0.149017)
(-0.200577 0 0.0590124)
(-0.0749046 0 0.276264)
(-0.0717421 0 0.283361)
(-0.0675095 0 0.296652)
(-0.0624931 0 0.321366)
(-0.0568951 0 0.357666)
(-0.0508054 0 0.403017)
(-0.0450533 0 0.455525)
(-0.0379658 0 0.49793)
(-0.0284974 0 0.457925)
(-0.00931796 0 0.205762)
(0.00607643 0 -0.323331)
(0.0130041 0 -0.961017)
(0.00806402 0 -1.42465)
(0.0142637 0 -1.68081)
(0.0133362 0 -1.78198)
(0.00234899 0 -1.81044)
(-0.0077937 0 -1.82886)
(-0.0118525 0 -1.85168)
(-0.0109035 0 -1.87836)
(-0.00704613 0 -1.91053)
(0.00400321 0 -1.94255)
(0.020889 0 -1.96552)
(0.0404545 0 -1.97356)
(0.0591379 0 -1.96558)
(0.0747418 0 -1.94429)
(0.0856192 0 -1.91309)
(0.090486 0 -1.87266)
(0.0883032 0 -1.82382)
(0.0789111 0 -1.76502)
(0.0625682 0 -1.69167)
(0.0386384 0 -1.59644)
(0.00681478 0 -1.47098)
(-0.0327047 0 -1.30547)
(-0.0793531 0 -1.09685)
(-0.130097 0 -0.843422)
(-0.180613 0 -0.560714)
(-0.224346 0 -0.288972)
(-0.257722 0 -0.0502189)
(-0.280299 0 0.137907)
(-0.293769 0 0.269381)
(-0.300336 0 0.34928)
(-0.302237 0 0.388099)
(-0.301341 0 0.397397)
(-0.298826 0 0.386734)
(-0.294897 0 0.361462)
(-0.288827 0 0.321875)
(-0.279762 0 0.265407)
(-0.26801 0 0.192704)
(-0.255336 0 0.112212)
(-0.24511 0 0.0346415)
(-0.0712134 0 0.274528)
(-0.0679796 0 0.280857)
(-0.0636338 0 0.293527)
(-0.0584269 0 0.317746)
(-0.0525208 0 0.35367)
(-0.0458966 0 0.398832)
(-0.0391839 0 0.450954)
(-0.0302662 0 0.491465)
(-0.0174094 0 0.447205)
(0.00571677 0 0.193107)
(0.0291164 0 -0.332477)
(0.0410597 0 -0.959454)
(0.0315821 0 -1.42425)
(0.0348653 0 -1.68175)
(0.0279833 0 -1.77666)
(0.0140655 0 -1.80317)
(0.00435845 0 -1.82402)
(0.00210847 0 -1.851)
(0.00281462 0 -1.8792)
(0.00493908 0 -1.91525)
(0.0160811 0 -1.95353)
(0.0322141 0 -1.98124)
(0.049614 0 -1.99012)
(0.065554 0 -1.98075)
(0.0785157 0 -1.9562)
(0.0864999 0 -1.91967)
(0.0879845 0 -1.87232)
(0.0820156 0 -1.81491)
(0.068293 0 -1.74711)
(0.0473272 0 -1.66356)
(0.0182295 0 -1.55595)
(-0.0192774 0 -1.41827)
(-0.0645015 0 -1.23955)
(-0.11681 0 -1.0184)
(-0.171973 0 -0.759166)
(-0.225533 0 -0.478129)
(-0.27161 0 -0.218681)
(-0.306458 0 0.00309187)
(-0.329853 0 0.173635)
(-0.343518 0 0.28983)
(-0.349865 0 0.357943)
(-0.351304 0 0.388599)
(-0.349721 0 0.392503)
(-0.346083 0 0.377342)
(-0.340283 0 0.346086)
(-0.331613 0 0.297858)
(-0.320031 0 0.232376)
(-0.307263 0 0.155774)
(-0.296353 0 0.0812015)
(-0.290003 0 0.0208644)
(-0.0679487 0 0.272768)
(-0.064705 0 0.278308)
(-0.0603087 0 0.290315)
(-0.0549734 0 0.313965)
(-0.0487987 0 0.349391)
(-0.0416474 0 0.394118)
(-0.0338966 0 0.445376)
(-0.023 0 0.483182)
(-0.00662371 0 0.433737)
(0.0207531 0 0.17605)
(0.052046 0 -0.347333)
(0.0635558 0 -0.956161)
(0.0574054 0 -1.42278)
(0.059585 0 -1.67984)
(0.0444127 0 -1.76808)
(0.0276928 0 -1.79511)
(0.0191588 0 -1.81997)
(0.0199014 0 -1.85132)
(0.0220603 0 -1.87967)
(0.0249822 0 -1.9202)
(0.037174 0 -1.96556)
(0.04997 0 -1.99542)
(0.0630296 0 -2.00385)
(0.0753796 0 -1.99285)
(0.0847921 0 -1.96488)
(0.0887469 0 -1.92234)
(0.0858808 0 -1.86774)
(0.07529 0 -1.80106)
(0.0565265 0 -1.72364)
(0.0302303 0 -1.62919)
(-0.00423321 0 -1.50777)
(-0.048748 0 -1.35662)
(-0.102185 0 -1.16358)
(-0.161338 0 -0.931502)
(-0.220974 0 -0.66981)
(-0.275623 0 -0.393502)
(-0.321232 0 -0.147271)
(-0.355646 0 0.0567471)
(-0.378433 0 0.209007)
(-0.39134 0 0.309347)
(-0.396885 0 0.365297)
(-0.39749 0 0.387392)
(-0.394849 0 0.384993)
(-0.389582 0 0.363558)
(-0.381435 0 0.324288)
(-0.370245 0 0.267144)
(-0.357176 0 0.196098)
(-0.344983 0 0.122043)
(-0.33657 0 0.0587479)
(-0.332968 0 0.0142229)
(-0.0651186 0 0.271028)
(-0.0619393 0 0.275768)
(-0.0575768 0 0.287066)
(-0.0522068 0 0.310074)
(-0.0458614 0 0.344866)
(-0.0382826 0 0.388885)
(-0.0295848 0 0.438777)
(-0.016893 0 0.47312)
(0.00253557 0 0.417618)
(0.0331513 0 0.154906)
(0.0647872 0 -0.363261)
(0.0786253 0 -0.959256)
(0.0877478 0 -1.42182)
(0.0819995 0 -1.67329)
(0.0582629 0 -1.75605)
(0.0415625 0 -1.78725)
(0.0361189 0 -1.81756)
(0.0423287 0 -1.85541)
(0.0517553 0 -1.88323)
(0.0630108 0 -1.92609)
(0.0702918 0 -1.97273)
(0.0709106 0 -2.00256)
(0.0773392 0 -2.01248)
(0.0861329 0 -2.00112)
(0.0920375 0 -1.96964)
(0.0919593 0 -1.92059)
(0.0838569 0 -1.85769)
(0.0671002 0 -1.78098)
(0.0418668 0 -1.6932)
(0.009064 0 -1.58761)
(-0.0312421 0 -1.45161)
(-0.0830243 0 -1.28263)
(-0.14356 0 -1.07861)
(-0.206228 0 -0.837996)
(-0.2695 0 -0.575608)
(-0.325649 0 -0.30984)
(-0.370416 0 -0.0775305)
(-0.403711 0 0.108377)
(-0.425186 0 0.242209)
(-0.436848 0 0.326717)
(-0.441287 0 0.370549)
(-0.440782 0 0.383725)
(-0.436669 0 0.373819)
(-0.42927 0 0.34431)
(-0.418584 0 0.296146)
(-0.405441 0 0.232092)
(-0.392111 0 0.16052)
(-0.381512 0 0.0941618)
(-0.375414 0 0.043481)
(-0.373215 0 0.0106422)
(-0.062726 0 0.269359)
(-0.0597001 0 0.273295)
(-0.0554791 0 0.283851)
(-0.0502021 0 0.306154)
(-0.0438433 0 0.340183)
(-0.0360281 0 0.383242)
(-0.0266144 0 0.431311)
(-0.0124938 0 0.461602)
(0.00940191 0 0.39969)
(0.0425386 0 0.132546)
(0.0751915 0 -0.377695)
(0.092393 0 -0.969748)
(0.103964 0 -1.42254)
(0.0911963 0 -1.66204)
(0.0657428 0 -1.74339)
(0.0544363 0 -1.78179)
(0.0551633 0 -1.8183)
(0.0653162 0 -1.86347)
(0.0837022 0 -1.89433)
(0.104484 0 -1.93317)
(0.0985374 0 -1.96486)
(0.0844099 0 -1.99928)
(0.0877917 0 -2.0166)
(0.0954378 0 -2.00635)
(0.0983038 0 -1.9705)
(0.0933791 0 -1.91357)
(0.0787777 0 -1.84037)
(0.05412 0 -1.75242)
(0.0203668 0 -1.65371)
(-0.0203997 0 -1.53767)
(-0.067049 0 -1.38819)
(-0.120794 0 -1.2021)
(-0.183211 0 -0.988402)
(-0.250107 0 -0.739583)
(-0.315875 0 -0.477791)
(-0.372923 0 -0.225849)
(-0.417515 0 -0.00959789)
(-0.449544 0 0.157292)
(-0.469471 0 0.272569)
(-0.479713 0 0.341468)
(-0.482877 0 0.373239)
(-0.480951 0 0.376813)
(-0.474891 0 0.357895)
(-0.465019 0 0.319028)
(-0.45205 0 0.262745)
(-0.437912 0 0.195487)
(-0.425404 0 0.128266)
(-0.416799 0 0.0723058)
(-0.412526 0 0.0330941)
(-0.411066 0 0.00846554)
(-0.0607681 0 0.267822)
(-0.0579977 0 0.270957)
(-0.0540472 0 0.280757)
(-0.049024 0 0.302317)
(-0.0428608 0 0.335481)
(-0.0350773 0 0.377371)
(-0.0252766 0 0.423233)
(-0.010113 0 0.448973)
(0.0139377 0 0.38046)
(0.0500304 0 0.109616)
(0.0863749 0 -0.394689)
(0.106923 0 -0.978316)
(0.114835 0 -1.42143)
(0.0949345 0 -1.64767)
(0.0715014 0 -1.73335)
(0.0651458 0 -1.78031)
(0.0756004 0 -1.82485)
(0.0893753 0 -1.87171)
(0.101695 0 -1.90587)
(0.0990481 0 -1.93285)
(0.0814527 0 -1.9482)
(0.0800585 0 -1.99892)
(0.0939277 0 -2.02387)
(0.103688 0 -2.01107)
(0.103745 0 -1.96748)
(0.0929959 0 -1.89993)
(0.0706042 0 -1.81414)
(0.0376863 0 -1.71382)
(-0.00418327 0 -1.60336)
(-0.0545975 0 -1.47625)
(-0.107238 0 -1.31852)
(-0.164248 0 -1.11859)
(-0.229614 0 -0.893321)
(-0.298255 0 -0.63745)
(-0.363954 0 -0.379279)
(-0.420357 0 -0.141455)
(-0.463598 0 0.0562849)
(-0.493543 0 0.203101)
(-0.511474 0 0.299755)
(-0.519992 0 0.353265)
(-0.52153 0 0.372741)
(-0.517684 0 0.365632)
(-0.509219 0 0.336352)
(-0.496894 0 0.28807)
(-0.482397 0 0.226191)
(-0.468411 0 0.160118)
(-0.457515 0 0.100831)
(-0.450912 0 0.0558347)
(-0.448003 0 0.0260277)
(-0.446988 0 0.00707079)
(-0.0592359 0 0.266478)
(-0.0568327 0 0.26883)
(-0.0532979 0 0.277888)
(-0.0487202 0 0.298696)
(-0.0430057 0 0.330937)
(-0.0355908 0 0.371503)
(-0.0258491 0 0.414832)
(-0.0101717 0 0.435484)
(0.0154878 0 0.359734)
(0.054285 0 0.0844953)
(0.0957168 0 -0.41616)
(0.118039 0 -0.984257)
(0.122985 0 -1.41728)
(0.101556 0 -1.63255)
(0.0796182 0 -1.72471)
(0.0722565 0 -1.7809)
(0.0782983 0 -1.83395)
(0.0886392 0 -1.87679)
(0.0847469 0 -1.90181)
(0.040922 0 -1.91747)
(0.0391347 0 -1.95385)
(0.0809265 0 -2.01999)
(0.106419 0 -2.03896)
(0.115126 0 -2.0152)
(0.110636 0 -1.95972)
(0.0932357 0 -1.87913)
(0.063458 0 -1.77975)
(0.0233294 0 -1.66746)
(-0.0236104 0 -1.54604)
(-0.0761778 0 -1.40936)
(-0.134964 0 -1.2433)
(-0.199594 0 -1.02992)
(-0.27207 0 -0.791911)
(-0.345743 0 -0.533194)
(-0.412313 0 -0.281593)
(-0.467594 0 -0.0591295)
(-0.508643 0 0.118505)
(-0.535882 0 0.244748)
(-0.551343 0 0.323004)
(-0.557669 0 0.361283)
(-0.557005 0 0.367929)
(-0.550653 0 0.349071)
(-0.539571 0 0.309024)
(-0.525305 0 0.252998)
(-0.510388 0 0.189319)
(-0.497619 0 0.128426)
(-0.488765 0 0.0788994)
(-0.483961 0 0.0439402)
(-0.482042 0 0.0213079)
(-0.481309 0 0.00617165)
(-0.0581114 0 0.265396)
(-0.0561925 0 0.267001)
(-0.0532306 0 0.275363)
(-0.0493146 0 0.295447)
(-0.0443413 0 0.326767)
(-0.0377002 0 0.365922)
(-0.0286001 0 0.406474)
(-0.0132112 0 0.421555)
(0.0129529 0 0.33778)
(0.0523021 0 0.0571103)
(0.0946064 0 -0.44045)
(0.121557 0 -0.992972)
(0.129007 0 -1.41108)
(0.107143 0 -1.61799)
(0.083861 0 -1.71455)
(0.0723057 0 -1.77925)
(0.0704126 0 -1.83687)
(0.0692752 0 -1.87395)
(0.0466628 0 -1.88456)