/*--------------------------------*- C++ -*----------------------------------*\
  =========                 |
  \\      /  F ield         | OpenFOAM: The Open Source CFD Toolbox
   \\    /   O peration     | Website:  https://openfoam.org
    \\  /    A nd           | Version:  9
     \\/     M anipulation  |
\*---------------------------------------------------------------------------*/
FoamFile
{
    format      ascii;
    class       surfaceScalarField;
    location    "0.08";
    object      alphaPhi0.water;
}
// * * * * * * * * * * * * * * * * * * * * * * * * * * * * * * * * * * * * * //

dimensions      [0 3 -1 0 0 0 0];

internalField   nonuniform List<scalar> 
9850
(
-4.56775e-20
1.4339e-19
-5.18046e-19
1.9411e-18
-5.13741e-18
1.69605e-17
-2.74004e-17
1.38525e-16
-2.30524e-17
9.72375e-16
0
1.06101e-14
0
1.19188e-13
0
1.28729e-12
0
1.39221e-11
0
1.50302e-10
0
1.22661e-09
0
6.84889e-09
-4.54866e-07
2.08155e-07
-1.42415e-06
2.06875e-06
-1.52129e-06
2.32024e-06
-1.56398e-06
2.20149e-06
-1.55269e-06
2.16692e-06
-1.51775e-06
2.13413e-06
-1.48578e-06
2.12362e-06
-1.46611e-06
2.1313e-06
-1.45804e-06
1.74425e-06
-1.45485e-06
1.65531e-06
-1.45548e-06
1.56615e-06
-1.45986e-06
1.48636e-06
-1.46671e-06
1.42321e-06
-1.47398e-06
1.37894e-06
-1.48063e-06
1.35269e-06
-1.48554e-06
1.35125e-06
-1.47784e-06
1.3929e-06
-7.8454e-07
1.23004e-06
-2.31905e-09
2.18797e-07
-5.87508e-10
5.06939e-10
-1.84705e-10
5.8774e-10
-2.47227e-11
2.05616e-10
0
7.49272e-11
0
2.25141e-11
0
6.21796e-12
0
1.70906e-12
0
4.49752e-13
0
1.16161e-13
0
3.10396e-14
1.09076e-16
8.26591e-15
2.10893e-16
2.24894e-15
2.07048e-16
1.20956e-15
1.70661e-16
9.01982e-16
1.25246e-16
6.6216e-16
8.46626e-17
4.53411e-16
5.52887e-17
2.94872e-16
3.45093e-17
1.9151e-16
9.00461e-17
-6.33507e-20
1.88955e-19
-6.59115e-19
2.35494e-18
-5.81696e-18
1.951e-17
-3.09002e-17
1.53012e-16
-1.25253e-17
1.11405e-15
0
1.18329e-14
0
1.25695e-13
0
1.33492e-12
0
1.36485e-11
0
1.33313e-10
0
8.22425e-10
0
3.32093e-09
-3.2452e-07
8.46688e-08
-1.39566e-06
1.86071e-06
-1.53394e-06
2.45789e-06
-1.56293e-06
2.23045e-06
-1.53678e-06
2.14076e-06
-1.50172e-06
2.09907e-06
-1.47833e-06
2.10023e-06
-1.46894e-06
2.12191e-06
-1.46833e-06
1.74364e-06
-1.47084e-06
1.65781e-06
-1.47654e-06
1.57186e-06
-1.48807e-06
1.49789e-06
-1.50592e-06
1.44106e-06
-1.52563e-06
1.39865e-06
-1.54008e-06
1.36711e-06
-1.5432e-06
1.35401e-06
-1.51597e-06
1.37538e-06
-6.45953e-07
1.01661e-06
-1.71361e-09
9.01516e-08
-6.19307e-10
4.22766e-10
-2.06959e-10
6.18529e-10
-3.77991e-11
1.47619e-10
-2.96654e-12
6.04081e-11
0
2.1978e-11
0
6.01132e-12
0
1.63818e-12
0
4.72531e-13
0
1.35548e-13
0
3.76318e-14
1.75103e-17
1.03066e-14
1.76005e-16
2.49634e-15
2.04378e-16
1.31195e-15
1.79936e-16
1.03651e-15
1.37718e-16
8.00205e-16
9.80482e-17
5.78665e-16
6.79263e-17
3.99952e-16
4.51867e-17
2.74686e-16
1.38528e-16
-7.18117e-20
2.05526e-19
-7.13778e-19
2.43953e-18
-5.93898e-18
1.99056e-17
-3.20181e-17
1.54857e-16
-1.27821e-17
1.14061e-15
0
1.18906e-14
0
1.24341e-13
0
1.26508e-12
0
1.21921e-11
0
1.08257e-10
0
5.86409e-10
0
1.98651e-09
-1.53036e-07
3.42935e-08
-1.35018e-06
1.404e-06
-1.51106e-06
2.60363e-06
-1.52012e-06
2.2395e-06
-1.48887e-06
2.10951e-06
-1.46674e-06
2.07694e-06
-1.46053e-06
2.09402e-06
-1.46582e-06
2.1272e-06
-1.47472e-06
1.75255e-06
-1.48318e-06
1.66627e-06
-1.49087e-06
1.57955e-06
-1.50388e-06
1.5109e-06
-1.53006e-06
1.46724e-06
-1.5683e-06
1.43689e-06
-1.60378e-06
1.40247e-06
-1.61178e-06
1.36185e-06
-1.54283e-06
1.3243e-06
-3.54108e-07
5.81831e-07
-2.31931e-09
3.23276e-08
-8.00982e-10
5.07549e-10
-2.7129e-10
5.68361e-10
-3.9861e-11
1.32368e-10
-6.81241e-12
3.59321e-11
0
1.9954e-11
0
5.97052e-12
0
1.56433e-12
0
4.50308e-13
0
1.32149e-13
0
3.86304e-14
0
1.12881e-14
1.50213e-16
2.67421e-15
1.97845e-16
1.41613e-15
1.81083e-16
1.16358e-15
1.43127e-16
9.33216e-16
1.06477e-16
7.06438e-16
7.72809e-17
5.14002e-16
5.40184e-17
3.69471e-16
1.97113e-16
-7.2302e-20
2.06947e-19
-7.07313e-19
2.43967e-18
-5.73574e-18
1.98007e-17
-3.133e-17
1.50763e-16
-8.39352e-18
1.1184e-15
0
1.13198e-14
0
1.15375e-13
0
1.14458e-12
0
1.00699e-11
0
8.20334e-11
0
7.471e-10
0
1.42147e-09
-1.26148e-08
1.80098e-08
-1.00325e-06
7.92562e-07
-1.40745e-06
2.67326e-06
-1.41522e-06
2.24717e-06
-1.40834e-06
2.10262e-06
-1.41729e-06
2.08589e-06
-1.43403e-06
2.11076e-06
-1.45487e-06
2.14804e-06
-1.47427e-06
1.77194e-06
-1.48949e-06
1.68149e-06
-1.49531e-06
1.58536e-06
-1.49688e-06
1.51247e-06
-1.51125e-06
1.48161e-06
-1.54833e-06
1.47393e-06
-1.58896e-06
1.44299e-06
-1.58658e-06
1.36189e-06
-1.11446e-06
1.07228e-06
-3.43513e-08
1.34212e-07
-1.16063e-09
2.34275e-09
-6.15873e-10
4.48127e-10
-2.72893e-10
3.49741e-10
-3.68228e-11
1.63405e-10
-6.39494e-12
2.1795e-11
-1.0847e-12
1.40303e-11
0
5.97755e-12
0
1.60797e-12
0
4.31012e-13
0
1.23811e-13
0
3.77543e-14
1.37412e-18
1.12846e-14
1.33085e-16
2.74848e-15
1.85326e-16
1.50315e-15
1.73259e-16
1.27232e-15
1.40542e-16
1.05273e-15
1.08167e-16
8.27599e-16
8.1363e-17
6.28971e-16
5.90639e-17
4.69649e-16
2.62463e-16
-6.88372e-20
1.97901e-19
-6.78832e-19
2.27082e-18
-5.29678e-18
1.85387e-17
-2.98118e-17
1.36218e-16
-1.48589e-17
1.02793e-15
0
9.87799e-15
0
9.6323e-14
0
9.24181e-13
0
7.45414e-12
-7.34758e-12
6.54988e-11
0
6.13587e-10
0
1.0638e-09
0
8.90783e-09
-6.98748e-07
3.15676e-07
-1.20627e-06
2.28112e-06
-1.26879e-06
2.30916e-06
-1.32169e-06
2.15548e-06
-1.37143e-06
2.13562e-06
-1.40646e-06
2.1458e-06
-1.43633e-06
2.17791e-06
-1.46391e-06
1.79952e-06
-1.48665e-06
1.70423e-06
-1.49067e-06
1.58939e-06
-1.47223e-06
1.49403e-06
-1.4532e-06
1.46256e-06
-1.45687e-06
1.47756e-06
-1.46161e-06
1.44822e-06
-1.33445e-06
1.2481e-06
-3.61187e-07
3.58893e-07
-4.23989e-09
3.41508e-08
-9.37864e-10
1.17451e-10
-4.81108e-10
2.23892e-10
-2.18436e-10
3.2797e-10
-4.18185e-11
1.39573e-10
-5.59963e-12
2.92276e-11
-1.43675e-12
9.04629e-12
-1.33461e-13
4.50847e-12
0
1.70974e-12
0
4.47554e-13
0
1.21295e-13
0
3.54137e-14
1.25595e-17
1.08807e-14
1.16968e-16
2.72508e-15
1.64795e-16
1.54379e-15
1.56075e-16
1.35471e-15
1.29297e-16
1.15109e-15
1.02247e-16
9.35725e-16
7.90768e-17
7.39496e-16
5.90717e-17
5.71066e-16
3.32158e-16
-6.08742e-20
1.72798e-19
-6.02291e-19
1.92374e-18
-4.54833e-18
1.57081e-17
-2.66621e-17
1.12962e-16
-2.38617e-17
8.53557e-16
0
7.76122e-15
0
7.25914e-14
0
6.61889e-13
0
4.98628e-12
-2.72901e-12
5.77339e-11
0
2.37172e-10
0
6.11207e-10
0
2.98873e-09
-3.5177e-07
4.37499e-08
-1.07372e-06
1.18146e-06
-1.18533e-06
2.41698e-06
-1.28646e-06
2.25646e-06
-1.35391e-06
2.20303e-06
-1.38723e-06
2.1791e-06
-1.41276e-06
2.20342e-06
-1.44127e-06
1.82803e-06
-1.46955e-06
1.73249e-06
-1.47741e-06
1.59724e-06
-1.4512e-06
1.46778e-06
-1.40849e-06
1.4198e-06
-1.37869e-06
1.44812e-06
-1.27375e-06
1.35007e-06
-5.73436e-07
5.98549e-07
-3.31421e-08
6.12163e-08
-1.85663e-09
1.90447e-09
-9.46246e-10
6.53022e-11
-6.83552e-10
3.38841e-10
-2.03544e-10
3.05756e-10
-4.73001e-11
6.20884e-11
-1.09271e-11
4.35881e-11
-1.44302e-12
9.93054e-12
-3.27011e-13
2.43553e-12
-2.53177e-14
1.3833e-12
0
5.22086e-13
0
1.31687e-13
0
3.4958e-14
9.17933e-18
1.01936e-14
9.40735e-17
2.50583e-15
1.35947e-16
1.55147e-15
1.31009e-16
1.40768e-15
1.09752e-16
1.22627e-15
8.88761e-17
1.02885e-15
7.02095e-17
8.43302e-16
5.35473e-17
6.72071e-16
4.05455e-16
-5.00888e-20
1.40247e-19
-4.97074e-19
1.53589e-18
-3.67216e-18
1.25986e-17
-2.2845e-17
8.9814e-17
-4.78324e-17
6.84428e-16
0
5.7801e-15
0
5.18791e-14
0
4.52098e-13
0
3.60761e-12
0
6.07558e-11
0
9.98945e-11
0
1.64667e-10
0
5.04082e-10
-1.01586e-08
2.72274e-09
-8.11997e-07
1.18739e-07
-1.25043e-06
1.68559e-06
-1.33009e-06
2.33391e-06
-1.36997e-06
2.24275e-06
-1.38011e-06
2.18918e-06
-1.38919e-06
2.21245e-06
-1.40696e-06
1.84576e-06
-1.42953e-06
1.75503e-06
-1.44402e-06
1.61156e-06
-1.43771e-06
1.46097e-06
-1.4064e-06
1.38841e-06
-1.2799e-06
1.32697e-06
-6.39524e-07
6.04866e-07
-5.88586e-08
6.18278e-08
-1.92483e-09
2.45691e-09
-1.12206e-10
8.32399e-11
-6.56076e-11
4.17836e-12
-2.89351e-10
8.9686e-12
-1.22192e-10
1.80185e-10
-3.76019e-11
5.71132e-11
-1.751e-11
2.83097e-11
-3.16101e-12
1.71057e-11
-3.77798e-13
2.71903e-12
-9.42528e-14
6.59649e-13
-9.91941e-15
4.20225e-13
0
1.48029e-13
0
3.87268e-14
0
1.00274e-14
6.55866e-17
2.21522e-15
9.9525e-17
1.5613e-15
9.69617e-17
1.44047e-15
8.30106e-17
1.28446e-15
6.84771e-17
1.10815e-15
5.47805e-17
9.38431e-16
4.22589e-17
7.70477e-16
4.8148e-16
-3.90916e-20
1.08832e-19
-3.88407e-19
1.17921e-18
-2.87277e-18
9.76437e-18
-1.89342e-17
7.02319e-17
-6.40539e-17
5.31761e-16
0
4.21484e-15
0
3.72655e-14
0
3.23007e-13
0
2.81168e-12
-2.07248e-12
5.61566e-11
0
3.65157e-10
-2.47473e-12
1.8877e-10
0
2.79439e-10
0
1.58802e-10
-1.28433e-07
3.09082e-09
-1.03805e-06
1.49648e-07
-1.38283e-06
1.63068e-06
-1.39155e-06
2.24893e-06
-1.38227e-06
2.17927e-06
-1.3735e-06
2.20338e-06
-1.36642e-06
1.83853e-06
-1.35747e-06
1.74576e-06
-1.35744e-06
1.61058e-06
-1.31653e-06
1.41484e-06
-1.30937e-06
1.01414e-06
-5.05131e-07
2.78582e-07
-5.98583e-08
2.08858e-08
-2.3779e-09
1.43205e-09
-8.29794e-11
7.64763e-11
-6.44109e-12
3.19429e-12
-4.37611e-12
9.69011e-13
-1.75737e-11
1.73743e-12
-6.28977e-11
2.08511e-11
-4.45846e-11
2.46027e-10
-1.43694e-11
3.39686e-11
-6.36811e-12
1.41052e-11
-8.87957e-13
6.15296e-12
-1.0746e-13
5.97021e-13
-2.98682e-14
2.07124e-13
-4.22243e-15
1.27292e-13
0
4.01465e-14
0
1.03002e-14
3.24154e-17
2.12468e-15
5.67418e-17
1.5754e-15
5.76525e-17
1.46998e-15
5.08317e-17
1.33794e-15
4.21624e-17
1.17855e-15
3.34818e-17
1.02363e-15
2.54991e-17
8.62688e-16
5.57002e-16
-2.92786e-20
8.15058e-20
-2.92302e-19
8.75965e-19
-2.22681e-18
7.37514e-18
-1.51585e-17
5.41596e-17
-6.22934e-17
3.99717e-16
0
3.04037e-15
0
2.66168e-14
0
2.21106e-13
0
2.20796e-12
-2.29884e-11
5.30152e-11
-4.08147e-12
3.20654e-10
-5.16567e-11
2.39557e-10
-1.08227e-10
3.51432e-10
0
4.66377e-10
-1.24131e-09
0
-1.19013e-07
3.75021e-10
-7.19443e-07
4.13088e-09
-1.19968e-06
7.96899e-07
-1.36137e-06
1.40045e-06
-1.3506e-06
1.62876e-06
-1.30281e-06
1.33681e-06
-1.19211e-06
1.11387e-06
-1.01784e-06
7.55483e-07
-6.56092e-07
2.78844e-07
-1.55606e-07
2.39257e-08
-1.73209e-08
4.90279e-09
-1.3479e-09
9.24655e-10
-7.17061e-11
7.00623e-11
-3.23205e-12
4.34131e-12
-8.71029e-13
5.58837e-13
-2.22859e-12
4.28296e-13
-8.12811e-12
2.56911e-12
-1.55562e-10
5.75698e-11
-1.3646e-10
2.46857e-10
-1.30223e-11
2.27338e-10
-5.22121e-12
8.61964e-12
-1.73941e-12
4.97187e-12
-1.92974e-13
1.49593e-12
-3.08315e-14
1.38585e-13
-9.26037e-15
7.09876e-14
-1.52824e-15
3.55415e-14
-1.16592e-16
1.01083e-14
-3.72182e-18
2.12368e-15
9.93425e-18
1.6045e-15
1.4626e-17
1.50961e-15
1.34476e-17
1.3981e-15
9.46215e-18
1.24854e-15
4.84069e-18
1.10302e-15
8.16357e-19
9.48377e-16
6.26481e-16
-2.10973e-20
5.85402e-20
-2.10563e-19
6.20709e-19
-1.66585e-18
5.2981e-18
-1.16011e-17
3.99564e-17
-5.6996e-17
2.91765e-16
-6.5426e-17
2.152e-15
0
1.76441e-14
0
1.45976e-13
0
1.94419e-12
-2.05145e-11
3.44421e-11
-1.07455e-12
2.35182e-10
-2.88813e-11
4.71941e-10
-1.20592e-10
1.08146e-09
-1.64392e-10
3.54082e-10
-2.09995e-10
0
-2.48994e-09
0
-3.45863e-08
0
-2.13864e-07
1.98905e-09
-4.37967e-07
9.93116e-09
-4.68105e-07
1.93392e-08
-4.19876e-07
1.66189e-08
-2.40513e-07
1.32824e-08
-4.95013e-08
8.16017e-09
-1.53609e-08
2.15155e-09
-3.61084e-09
7.60287e-10
-9.40922e-10
0
-7.37746e-11
2.79878e-11
-3.74491e-12
3.5109e-12
-5.5807e-13
7.46853e-13
-4.77472e-13
3.07271e-13
-9.28782e-13
4.46652e-13
-2.69918e-12
2.18814e-12
-2.5008e-10
4.01266e-11
-2.15643e-10
2.65012e-10
-1.32938e-10
2.86462e-10
-4.83095e-12
1.19349e-10
-1.30939e-12
1.97289e-12
-2.78381e-13
1.06466e-12
-3.96244e-14
1.76102e-13
-1.10687e-14
4.6384e-14
-2.60723e-15
2.41583e-14
-3.56801e-16
8.65285e-15
-8.27939e-17
2.14808e-15
-4.18381e-17
1.63393e-15
-3.13441e-17
1.55993e-15
-2.78885e-17
1.46517e-15
-2.79465e-17
1.3215e-15
-3.03295e-17
1.18199e-15
-3.29872e-17
1.03101e-15
6.84026e-16
-1.43699e-20
3.99406e-20
-1.4264e-19
4.18451e-19
-1.1627e-18
3.64613e-18
-8.63332e-18
2.78864e-17
-4.83085e-17
2.08408e-16
-1.50028e-16
1.55857e-15
0
1.31987e-14
-1.10458e-14
1.47553e-13
0
3.34909e-12
0
1.06427e-10
0
1.67524e-10
-3.92264e-11
5.05034e-10
-2.74056e-10
4.03919e-10
-1.97568e-10
1.21497e-10
-8.73075e-11
2.29235e-11
-2.50883e-10
2.59878e-11
-2.02254e-09
0
-7.16443e-09
0
-1.29586e-08
0
-1.27805e-08
0
-1.02795e-08
0
-5.8492e-09
0
-1.89052e-09
7.91757e-11
-9.12212e-10
0
-2.63048e-10
1.18002e-11
-6.35505e-11
0
-5.8523e-12
0
-5.74945e-13
9.69151e-14
-3.2028e-13
3.57025e-13
-4.71823e-13
2.8955e-13
-5.91066e-13
4.0291e-13
-3.76074e-13
1.0459e-12
-6.92466e-11
5.94543e-12
-2.25518e-10
1.25335e-10
-2.09229e-10
2.92047e-10
-3.71793e-12
3.1167e-10
-4.94443e-13
2.82722e-12
-1.0101e-13
3.86368e-13
-3.18977e-14
8.56919e-14
-9.74068e-15
2.81383e-14
-2.76903e-15
1.37621e-14
-4.93555e-16
6.19304e-15
-1.5079e-16
2.0801e-15
-9.25725e-17
1.63981e-15
-7.70697e-17
1.58405e-15
-6.93769e-17
1.49867e-15
-6.54397e-17
1.37427e-15
-6.5387e-17
1.25342e-15
-6.64348e-17
1.11063e-15
7.35414e-16
-9.59519e-21
2.75816e-20
-1.00881e-19
3.15275e-19
-8.14173e-19
2.87931e-18
-5.95183e-18
2.12367e-17
-3.24308e-17
1.66172e-16
-3.83529e-17
1.39482e-15
-4.30112e-15
1.86427e-14
-2.28622e-13
3.53038e-13
-9.07623e-12
1.14557e-11
0
1.99429e-10
-6.54201e-11
2.80137e-10
-6.37105e-11
3.20452e-10
-2.45763e-10
2.89552e-10
-1.35853e-10
1.29602e-10
-2.38354e-11
3.06877e-12
-2.27094e-11
0
-1.561e-10
0
-4.9908e-10
0
-7.39953e-10
0
-7.14745e-10
1.11449e-11
-5.37259e-10
3.63624e-11
-3.07434e-10
1.82097e-11
-1.20435e-10
4.39376e-12
-6.01517e-11
0
-1.81387e-11
0
-4.85222e-12
0
-9.58144e-13
2.43263e-13
-1.16472e-12
1.81536e-13
-1.07876e-12
8.27402e-13
-4.32807e-13
9.44469e-13
-8.09445e-13
3.905e-13
-1.12557e-12
7.54503e-13
-1.58177e-12
2.64283e-12
-2.43833e-10
1.33521e-11
-1.90784e-10
2.85348e-10
-1.72627e-10
3.15313e-10
-9.15262e-13
3.32215e-10
-8.1795e-14
7.66592e-13
-1.38131e-14
8.8574e-14
-4.94457e-15
2.65474e-14
-1.61526e-15
9.13974e-15
-4.22498e-16
3.30366e-15
-1.90841e-16
1.83967e-15
-1.37987e-16
1.6164e-15
-1.19667e-16
1.56904e-15
-1.08701e-16
1.48907e-15
-1.02851e-16
1.38267e-15
-1.02424e-16
1.30534e-15
-1.04313e-16
1.18405e-15
7.802e-16
-7.55208e-21
2.36265e-20
-8.88267e-20
3.01835e-19
-6.94434e-19
2.79647e-18
-5.06507e-18
2.04191e-17
-1.9868e-17
1.61767e-16
-2.26697e-17
1.61801e-15
-2.10521e-15
2.32841e-14
-8.20917e-14
4.06098e-13
0
1.11848e-11
-3.52448e-11
1.46198e-10
-6.04634e-11
4.02541e-10
-3.1483e-11
1.85499e-10
-3.38673e-11
1.37544e-10
-5.03368e-12
2.12759e-11
-2.00185e-12
6.53755e-12
-2.11081e-12
7.69861e-14
-1.35546e-11
0
-3.1425e-11
0
-3.87749e-11
0
-3.50824e-11
0
-2.52316e-11
0
-1.74893e-11
0
-9.89912e-12
0
-5.26732e-12
0
-1.42312e-12
0
-3.08956e-13
3.36554e-13
-8.40783e-14
1.06512e-13
-6.45862e-13
6.86739e-14
-6.50815e-13
8.49121e-13
-7.34965e-13
8.20049e-13
-2.39005e-13
9.90902e-13
-1.38183e-12
6.72649e-13
-1.95298e-12
1.26241e-12
-2.47646e-11
4.38269e-12
-2.34484e-10
7.37331e-11
-2.07386e-10
3.16938e-10
-1.72209e-10
3.28395e-10
-8.38571e-13
2.8529e-10
-6.25606e-14
4.66864e-13
-7.73032e-15
6.42784e-14
-1.4857e-15
1.32062e-14
-3.97307e-16
3.22896e-15
-2.22921e-16
1.76734e-15
-1.78782e-16
1.58792e-15
-1.60059e-16
1.53221e-15
-1.45515e-16
1.46323e-15
-1.41061e-16
1.37866e-15
-1.44083e-16
1.34052e-15
-1.5065e-16
1.24714e-15
8.18384e-16
-7.62275e-21
2.34474e-20
-9.81078e-20
3.41277e-19
-7.44859e-19
3.24896e-18
-4.71562e-18
2.2039e-17
-1.80295e-17
1.71323e-16
-2.44657e-17
1.8836e-15
0
2.62635e-14
0
3.7868e-13
0
8.47018e-12
-7.29504e-11
9.74962e-11
-1.12638e-11
4.13921e-10
-1.62358e-10
4.58435e-10
-8.35568e-11
8.19382e-10
-4.47663e-12
2.36926e-10
-1.01167e-12
1.59005e-12
-4.72641e-13
7.99849e-13
-1.35755e-12
5.7129e-13
-2.72634e-12
3.5978e-13
-2.80181e-12
4.16806e-13
-2.26608e-12
5.29133e-13
-1.43339e-12
6.02954e-13
-2.69575e-12
4.81121e-13
-4.31469e-12
5.78346e-13
-1.30841e-12
7.84691e-13
-1.79174e-13
7.73272e-13
-6.66135e-14
1.23678e-13
-4.02295e-14
6.45882e-14
-4.28037e-14
5.35568e-14
-2.16703e-13
5.24999e-14
-6.6155e-13
6.96097e-13
-8.50895e-13
1.27719e-12
-2.77111e-13
1.05118e-12
-1.63162e-12
8.79644e-13
-2.2983e-12
1.9511e-12
-8.12915e-11
6.24444e-12
-1.9845e-10
1.76789e-10
-1.73006e-10
3.29677e-10
-1.21719e-10
3.61308e-10
-7.60441e-13
1.01184e-10
-4.1137e-14
1.92566e-13
-3.84996e-15
5.63957e-14
-7.08921e-16
6.62709e-15
-2.94589e-16
2.10115e-15
-2.22989e-16
1.57135e-15
-2.0102e-16
1.49787e-15
-1.87357e-16
1.44254e-15
-1.86132e-16
1.37698e-15
-1.92378e-16
1.3667e-15
-2.07797e-16
1.29112e-15
8.46235e-16
-9.40921e-21
2.86416e-20
-1.30415e-19
4.75961e-19
-9.18855e-19
4.36772e-18
-5.34099e-18
2.68322e-17
-2.23428e-17
1.87609e-16
-7.05841e-17
1.96077e-15
0
2.55794e-14
0
3.48441e-13
0
7.1048e-12
-4.97855e-12
1.54789e-10
0
2.11676e-10
-2.34517e-10
4.27149e-10
-2.03625e-10
8.63835e-10
-8.02875e-12
6.3074e-10
-5.21e-13
1.37766e-12
-4.16292e-13
7.31197e-13
-4.74068e-13
6.39148e-13
-5.45541e-13
3.91308e-13
-5.20021e-13
3.46942e-13
-4.69311e-13
4.7346e-13
-3.18409e-13
4.33019e-13
-5.43037e-13
3.03971e-13
-1.01703e-12
9.79997e-13
-4.4481e-12
4.60068e-12
-1.41438e-13
4.85689e-12
-3.82753e-14
1.29091e-13
-3.52911e-14
5.24738e-14
-3.92904e-14
5.25308e-14
-6.00766e-14
5.63142e-14
-9.83114e-13
1.17909e-13
-8.19857e-13
1.32921e-12
-9.23687e-13
1.29809e-12
-6.15311e-13
9.70651e-13
-1.8689e-12
1.13024e-12
-4.14656e-12
4.14326e-12
-1.92797e-10
2.57842e-11
-1.76612e-10
3.30289e-10
-1.06921e-10
3.00996e-10
-1.40515e-12
1.37881e-10
-1.07267e-13
3.5531e-13
-1.38589e-14
1.39615e-13
-1.86949e-15
1.56849e-14
-4.67601e-16
3.65551e-15
-2.85845e-16
1.61725e-15
-2.50512e-16
1.47913e-15
-2.36983e-16
1.43689e-15
-2.39189e-16
1.38161e-15
-2.51428e-16
1.39342e-15
-2.59295e-16
1.31708e-15
8.45494e-16
-1.36917e-20
4.21586e-20
-1.84779e-19
6.67061e-19
-1.19907e-18
5.58528e-18
-5.99568e-18
3.0597e-17
-2.47788e-17
1.93569e-16
-3.39589e-17
1.99652e-15
-2.0069e-15
2.9591e-14
-2.17375e-13
5.31424e-13
-1.30295e-11
1.47328e-11
-6.74509e-13
2.71374e-10
0
1.76602e-10
-2.96072e-10
4.12084e-10
-2.09182e-10
8.86435e-10
-1.30618e-11
3.67994e-10
-4.48682e-13
1.72998e-12
-4.2436e-13
7.57818e-13
-3.93117e-13
6.65167e-13
-3.86402e-13
5.05662e-13
-3.78222e-13
4.73934e-13
-3.42727e-13
5.22595e-13
-2.84926e-13
3.99497e-13
-3.70003e-13
3.83771e-13
-3.95e-12
3.94766e-13
-3.61087e-12
4.656e-12
-2.97474e-12
4.60161e-12
-3.91534e-14
4.39783e-12
-3.27568e-14
5.40378e-14
-3.60116e-14
5.07369e-14
-3.8687e-14
5.47865e-14
-4.29014e-13
6.13888e-14
-9.38077e-13
7.81289e-13
-6.22497e-13
1.28328e-12
-7.08121e-13
8.19741e-13
-1.63489e-12
9.50526e-13
-4.62434e-12
6.45591e-12
-1.21274e-11
4.01166e-11
-1.00069e-10
4.11515e-11
-1.45762e-10
5.5016e-11
-3.33167e-12
5.83667e-11
-2.49697e-13
5.37468e-13
-4.05634e-14
1.77766e-13
-5.84322e-15
3.88963e-14
-9.74188e-16
6.46811e-15
-3.73577e-16
1.82913e-15
-3.15573e-16
1.48602e-15
-2.99501e-16
1.44964e-15
-3.09694e-16
1.409e-15
-3.24829e-16
1.43514e-15
-3.10694e-16
1.33671e-15
8.15787e-16
-1.83871e-20
5.55957e-20
-2.33746e-19
8.1208e-19
-1.43471e-18
6.37015e-18
-6.50674e-18
3.24624e-17
-6.81386e-18
1.90529e-16
-9.19921e-17
2.46701e-15
-1.45862e-14
4.68245e-14
-4.77121e-13
9.44096e-13
-2.51376e-11
5.19455e-11
0
2.01904e-10
-5.60751e-11
2.23411e-10
-3.04732e-10
9.91142e-10
-1.46483e-10
8.85296e-10
-2.21583e-12
1.4352e-10
-4.26977e-13
9.3446e-13
-3.90978e-13
7.57652e-13
-3.7529e-13
6.96663e-13
-3.67706e-13
5.90531e-13
-3.49114e-13
5.1412e-13
-3.37314e-13
5.18071e-13
-3.21096e-13
3.93681e-13
-2.86048e-13
3.64355e-13
-2.89604e-13
3.57575e-13
-3.55994e-12
4.28895e-13
-3.20756e-12
4.69493e-12
-2.37582e-12
4.62476e-12
-3.56067e-14
3.47728e-12
-3.44724e-14
5.4454e-14
-3.63316e-14
5.2856e-14
-2.12292e-14
4.99516e-14
-2.70753e-13
2.6861e-14
-6.19521e-14
3.97427e-13
0
1.32696e-12
-3.69494e-12
1.82645e-12
-2.26084e-11
3.83275e-11
-3.5957e-11
5.94343e-11
-1.95482e-11
2.04844e-11
-1.9438e-11
1.39207e-11
-6.82064e-12
3.79173e-12
-4.27773e-13
2.43758e-12
-4.56565e-14
1.06216e-13
-1.00265e-14
4.25591e-14
-1.60636e-15
6.99315e-15
-4.90133e-16
1.97695e-15
-3.95404e-16
1.49689e-15
-3.71928e-16
1.47615e-15
-3.91902e-16
1.45807e-15
-4.13248e-16
1.44755e-15
-3.86569e-16
1.34403e-15
7.36354e-16
-2.25512e-20
6.8167e-20
-2.71526e-19
9.43483e-19
-1.77592e-18
7.12328e-18
-5.72588e-18
3.74227e-17
-6.02389e-17
3.0244e-16
-2.9462e-15
5.6346e-15
-8.46356e-14
1.2545e-13
-1.63101e-12
2.98399e-12
-1.43772e-13
9.77952e-11
0
1.25392e-10
-1.75824e-10
4.55657e-10
-2.89255e-10
1.13092e-09
-1.20941e-10
8.5261e-10
-7.08235e-13
8.10367e-11
-3.95587e-13
8.3135e-13
-3.67983e-13
7.58364e-13
-3.5954e-13
6.97185e-13
-3.47966e-13
6.32398e-13
-3.32706e-13
5.63624e-13
-3.18003e-13
5.06715e-13
-3.04683e-13
3.82302e-13
-2.89485e-13
3.58859e-13
-2.5959e-13
3.43143e-13
-4.16853e-13
3.35062e-13
-3.18277e-12
6.72563e-13
-2.64488e-12
4.87414e-12
-1.24005e-12
1.27166e-11
-4.71545e-14
2.4339e-12
-4.88323e-14
5.88688e-14
-1.97846e-14
3.74818e-14
-3.06628e-14
3.53126e-14
-1.38995e-13
1.22079e-13
0
9.4105e-13
-7.75133e-12
1.95443e-12
-3.57906e-11
3.58243e-11
-3.46913e-11
5.90021e-11
-1.61076e-11
6.35603e-11
-4.38833e-12
5.54436e-12
-2.88994e-12
1.64459e-12
-5.79015e-13
1.68157e-12
-4.75065e-14
1.07695e-13
-1.02274e-14
2.91437e-14
-1.78235e-15
6.38499e-15
-5.8446e-16
1.87769e-15
-4.78899e-16
1.5183e-15
-4.59016e-16
1.51115e-15
-4.81275e-16
1.49941e-15
-4.67954e-16
1.46274e-15
-4.42045e-16
1.34127e-15
6.28201e-16
-2.7519e-20
8.49883e-20
-3.11788e-19
1.13555e-18
-1.7783e-18
8.39819e-18
-6.54988e-18
4.74593e-17
-8.60303e-17
4.80716e-16
-3.17723e-15
8.93981e-15
-6.89201e-14
1.81921e-13
-5.33907e-12
5.76368e-12
0
4.82506e-11
0
4.14323e-11
-3.07659e-10
5.29564e-10
-2.85031e-10
1.20136e-09
-9.56546e-11
7.52874e-10
-4.8682e-13
5.00884e-11
-3.54372e-13
8.21405e-13
-3.45092e-13
7.54532e-13
-3.33907e-13
6.88462e-13
-3.1836e-13
6.13641e-13
-3.03166e-13
5.48181e-13
-2.90899e-13
4.94142e-13
-2.80294e-13
3.75779e-13
-2.63512e-13
3.69022e-13
-2.48267e-13
3.58081e-13
-2.30691e-13
3.35557e-13
-6.37081e-14
3.09541e-13
-2.48465e-12
2.24631e-12
-5.90256e-12
1.3046e-11
-5.36907e-13
1.1421e-11
-4.71975e-14
4.63928e-13
-2.5413e-14
5.34607e-14
0
2.33267e-14
-1.41035e-13
4.42782e-14
0
4.4305e-13
-4.18089e-12
1.45922e-12
-3.99785e-11
2.291e-11
-4.05517e-11
6.11924e-11
-2.87073e-11
6.92603e-11
-1.78868e-12
5.97001e-12
-6.71503e-13
7.65172e-13
-1.96878e-13
7.65041e-14
-4.23261e-14
1.05546e-13
-7.70814e-15
1.07718e-14
-1.57049e-15
4.45261e-15
-6.73162e-16
1.69651e-15
-5.69253e-16
1.5428e-15
-5.61014e-16
1.54491e-15
-5.74316e-16
1.51746e-15
-5.32365e-16
1.46127e-15
-4.87205e-16
1.32338e-15
4.99101e-16
-3.49339e-20
1.12386e-19
-3.76499e-19
1.45157e-18
-2.18953e-18
1.07541e-17
-8.3262e-18
6.30807e-17
-6.53398e-19
6.04421e-16
-2.33276e-16
1.00971e-14
0
2.06061e-13
-1.32183e-12
4.31313e-12
0
5.96029e-12
-4.88977e-13
2.38581e-11
-3.09793e-10
3.42144e-10
-2.24766e-10
1.17177e-09
-1.03637e-10
2.88809e-10
-3.55306e-13
1.43956e-11
-3.29091e-13
8.12838e-13
-3.19615e-13
7.46069e-13
-3.03912e-13
6.74744e-13
-2.84798e-13
5.97675e-13
-2.69487e-13
5.32582e-13
-2.60863e-13
4.89682e-13
-2.70407e-13
4.20137e-13
-2.52732e-13
1.0629e-12
-2.01132e-13
3.74815e-13
-2.211e-13
3.37679e-13
-3.7283e-13
4.20886e-13
-4.10204e-12
2.92423e-12
-5.7332e-12
1.10266e-11
-5.8108e-12
1.23648e-11
-1.49703e-13
4.8961e-12
-5.24994e-14
5.28789e-14
0
3.23937e-14
-3.6071e-14
4.90144e-14
0
7.94805e-14
-3.74408e-13
9.43289e-13
-4.34926e-11
1.31952e-11
-4.19958e-11
6.36749e-11
-2.97473e-11
6.62784e-11
-8.53825e-13
6.49704e-12
-1.5345e-13
2.2039e-13
-7.24544e-14
1.77106e-14
-2.38276e-14
2.78996e-14
-3.54628e-15
4.71276e-15
-9.42184e-16
2.47079e-15
-7.23895e-16
1.63794e-15
-6.69231e-16
1.57027e-15
-6.67814e-16
1.55888e-15
-6.74938e-16
1.52066e-15
-6.15924e-16
1.44874e-15
-5.20184e-16
1.27989e-15
3.55032e-16
-4.56565e-20
1.52181e-19
-4.81179e-19
1.86207e-18
-2.65426e-18
1.37697e-17
-1.08922e-17
7.85465e-17
0
6.89967e-16
0
1.12392e-14
-1.60302e-13
2.17346e-13
-2.16577e-13
1.42477e-12
-7.91722e-13
3.63844e-12
-4.75622e-12
2.01977e-11
-2.57333e-10
7.8555e-10
-1.3999e-10
1.07223e-09
-1.28921e-11
1.82364e-10
-3.58236e-13
2.34021e-12
-3.22532e-13
8.38983e-13
-3.07922e-13
7.75305e-13
-2.71363e-13
1.31121e-12
-2.5157e-13
5.81296e-13
-2.80176e-13
5.79194e-13
-2.19527e-12
2.5791e-12
-2.17182e-12
2.05201e-11
-1.23717e-12
4.22323e-12
-1.96686e-13
4.75422e-13
-2.18325e-13
3.27139e-13
-4.7759e-13
6.40694e-13
-4.92686e-12
6.44012e-12
-5.20416e-12
1.15616e-11
-4.42676e-12
1.02498e-11
-1.41822e-13
4.13879e-12
-3.34229e-14
4.97451e-14
-1.56291e-14
3.72668e-14
-1.96761e-14
4.272e-14
-9.92401e-15
9.59259e-14
0
9.99323e-13
-4.04666e-11
5.01571e-12
-5.2592e-11
6.25169e-11
-3.72604e-11
6.63854e-11
-2.34245e-13
2.26185e-11
-4.00786e-14
5.2752e-14
-2.08635e-14
7.31333e-15
-7.90843e-15
3.44384e-15
-1.67405e-15
3.35873e-15
-8.63373e-16
1.85773e-15
-7.9401e-16
1.60995e-15
-7.72966e-16
1.59151e-15
-7.75824e-16
1.5658e-15
-7.81467e-16
1.52273e-15
-7.22373e-16
1.42995e-15
-4.79475e-16
1.17811e-15
2.27316e-16
-5.76066e-20
1.92891e-19
-5.85296e-19
2.19043e-18
-3.27621e-18
1.55809e-17
-1.32328e-17
8.57259e-17
0
6.6438e-16
0
9.6168e-15
-3.8849e-14
1.45944e-13
0
4.84504e-13
-2.07796e-12
3.80452e-12
-1.14102e-10
7.27111e-11
-2.447e-10
1.5633e-09
-1.81621e-10
1.07877e-09
-2.25377e-12
3.06123e-10
-3.50701e-13
1.0474e-12
-2.80072e-13
9.52759e-13
-5.51831e-13
1.13527e-12
-2.48836e-13
2.94057e-12
-1.81224e-12
2.28497e-12
-1.62337e-11
8.75649e-11
-1.70279e-11
1.1084e-10
-1.17495e-11
3.50987e-11
-1.53108e-12
3.82565e-12
-1.96402e-13
6.9554e-13
-2.18e-13
8.82746e-13
-1.75072e-12
3.80923e-12
-4.36189e-12
9.91333e-12
-3.42717e-12
1.20251e-11
-3.00368e-12
5.31785e-12
-1.53191e-13
7.12986e-13
-2.63194e-14
4.63102e-14
-1.79646e-14
3.93189e-14
-2.9727e-14
4.71793e-14
0
1.21096e-13
0
1.58824e-12
-1.52713e-11
3.96823e-12
-4.59374e-11
4.82808e-11
-2.8906e-11
7.02431e-11
-1.06831e-13
4.87878e-11
-1.37531e-14
2.23818e-14
-5.99198e-15
3.53482e-15
-3.24896e-15
1.48893e-15
-1.11853e-15
2.52431e-15
-8.97381e-16
1.65309e-15
-8.77994e-16
1.61074e-15
-8.73224e-16
1.60669e-15
-8.8397e-16
1.57828e-15
-8.99363e-16
1.52124e-15
-8.46381e-16
1.40908e-15
-3.73996e-16
1.00171e-15
1.21308e-16
-6.75052e-20
2.20691e-19
-6.37698e-19
2.34169e-18
-3.44663e-18
1.57574e-17
-1.41471e-17
8.36978e-17
0
5.70733e-16
-2.52612e-15
7.60386e-15
-2.8539e-15
6.31789e-14
-4.57746e-14
3.81005e-13
-2.09922e-12
4.86011e-12
-1.9889e-10
1.86958e-10
-2.69374e-10
1.06898e-09
-1.17159e-10
1.04848e-09
-3.36139e-12
2.40289e-10
-7.14468e-13
1.17015e-12
-7.75537e-13
5.92182e-12
-3.76957e-13
2.21913e-11
-3.83107e-12
1.17302e-11
-6.62598e-11
1.91877e-10
-8.62807e-11
2.54103e-10
-4.44353e-11
1.909e-10
-7.2301e-12
2.66751e-11
-4.0105e-13
7.65246e-14
-2.86212e-13
6.64416e-13
-1.60468e-12
8.08044e-12
-3.18817e-12
9.6916e-12
-4.4882e-12
1.12366e-11
-4.2515e-12
1.2522e-11
-8.69617e-13
7.6476e-12
-4.8006e-14
1.14912e-13
-2.17169e-14
4.44421e-14
-1.77129e-14
4.27465e-14
-2.92787e-14
5.22389e-14
-2.61746e-14
1.70769e-13
0
1.9258e-12
-9.51407e-12
4.01174e-12
-5.03771e-11
4.59474e-11
-3.11119e-11
7.33936e-11
-2.44725e-14
4.26799e-11
-5.40592e-15
6.22067e-15
-2.5339e-15
2.6801e-15
-1.72802e-15
2.42316e-15
-1.02123e-15
1.91131e-15
-9.79564e-16
1.635e-15
-9.66015e-16
1.62992e-15
-9.72239e-16
1.63029e-15
-9.84059e-16
1.60003e-15
-9.48534e-16
1.52672e-15
-8.74331e-16
1.38455e-15
-2.34258e-16
7.53721e-16
4.85048e-17
-7.41043e-20
2.37721e-19
-6.53618e-19
2.41009e-18
-3.44142e-18
1.53401e-17
-1.41856e-17
7.69465e-17
-2.38476e-17
4.70885e-16
-7.10828e-16
5.10384e-15
0
3.85863e-14
-6.58719e-14
3.81831e-13
-4.83995e-13
6.05733e-12
-6.55011e-13
2.09971e-10
-2.69657e-10
2.21177e-10
-8.60176e-11
9.78245e-10
-3.16396e-11
8.7211e-11
-5.71909e-12
5.03326e-12
-4.74616e-12
1.48676e-11
-3.94866e-12
4.25386e-11
-6.7995e-11
1.88709e-10
-9.84972e-11
2.85156e-10
-7.38949e-11
2.63764e-10
-2.07936e-11
7.71093e-11
-5.98887e-13
2.32693e-13
0
4.02382e-14
-6.89647e-13
2.68485e-13
-2.12539e-12
5.36157e-12
-2.63935e-12
1.01869e-11
-3.25764e-12
1.18828e-11
-3.8916e-12
1.32335e-11
-1.64325e-12
1.47243e-11
-3.35257e-14
3.66177e-13
-2.1414e-14
4.56456e-14
-2.03785e-14
4.50022e-14
-3.15124e-14
5.57539e-14
-1.28483e-13
1.81312e-13
0
1.98111e-12
-6.48613e-12
3.968e-12
-4.77628e-11
4.33377e-11
-2.90397e-11
7.4628e-11
-8.55003e-15
2.41439e-11
-3.63675e-15
2.90672e-15
-2.08488e-15
2.37644e-15
-1.26928e-15
2.76629e-15
-1.05561e-15
1.71493e-15
-1.05592e-15
1.65508e-15
-1.06045e-15
1.67452e-15
-1.07854e-15
1.6648e-15
-1.08502e-15
1.60847e-15
-1.03345e-15
1.51605e-15
-8.4266e-16
1.29945e-15
-1.06827e-16
4.44855e-16
1.75473e-17
-8.0518e-20
2.53476e-19
-6.73433e-19
2.48281e-18
-3.20346e-18
1.45622e-17
-1.3277e-17
6.51713e-17
-4.55635e-17
3.88164e-16
-2.8997e-16
3.67824e-15
0
3.44755e-14
-8.82525e-15
3.87988e-13
-1.9426e-12
6.18961e-12
-6.61709e-12
2.16943e-10
-1.02875e-10
1.0035e-09
-4.88175e-11
1.62739e-10
-7.40703e-12
1.73623e-11
-4.12437e-12
7.01868e-12
0
5.59308e-12
-3.79756e-11
2.44676e-11
-8.77812e-11
3.19126e-10
-7.2115e-11
2.90094e-10
-1.27556e-11
2.3435e-10
-1.62903e-12
0
-1.16801e-14
3.36281e-14
-1.57961e-15
2.94183e-14
0
2.91484e-14
-5.98895e-13
4.67584e-14
-1.92948e-12
5.19086e-12
-2.66493e-12
1.26537e-11
-3.37953e-12
1.39745e-11
-2.76371e-12
1.1307e-11
-3.68033e-14
1.0464e-12
-2.00707e-14
4.82224e-14
-2.16469e-14
4.74293e-14
-2.89273e-14
5.74401e-14
-1.85708e-13
1.54759e-13
0
1.67208e-12
-4.38995e-12
3.69071e-12
-4.27705e-11
3.71797e-11
-2.50354e-11
7.46271e-11
-4.66155e-15
1.32395e-11
-3.40029e-15
2.01078e-15
-1.90056e-15
2.30323e-15
-1.19088e-15
2.60997e-15
-1.12783e-15
1.67412e-15
-1.14127e-15
1.6814e-15
-1.15723e-15
1.71591e-15
-1.17049e-15
1.69335e-15
-1.14332e-15
1.61804e-15
-1.07656e-15
1.49676e-15
-5.78925e-16
1.04123e-15
-3.41248e-17
2.04811e-16
7.03006e-18
-9.05446e-20
2.807e-19
-7.03948e-19
2.65174e-18
-2.97796e-18
1.40394e-17
-1.18105e-17
5.73206e-17
-4.42917e-17
3.43181e-16
-1.66323e-16
3.35951e-15
0
3.3916e-14
-6.39854e-14
4.21523e-13
-2.23359e-12
7.45028e-12
-1.96836e-10
3.38742e-10
-8.73626e-11
1.44941e-09
-6.24074e-12
1.57614e-10
-2.35694e-12
1.3708e-11
-7.21514e-13
6.13008e-12
-9.77113e-13
5.99932e-12
-7.06889e-11
1.11023e-10
-6.17724e-11
3.23796e-10
-2.13573e-11
2.60941e-10
-1.72586e-12
1.17498e-11
0
3.23713e-14
2.50953e-15
4.35774e-14
2.47261e-15
5.25638e-14
1.44589e-15
5.53908e-14
-5.85929e-15
7.04648e-14
-8.5485e-13
8.12912e-14
-2.15399e-12