/*--------------------------------*- C++ -*----------------------------------*\
  =========                 |
  \\      /  F ield         | OpenFOAM: The Open Source CFD Toolbox
   \\    /   O peration     | Website:  https://openfoam.org
    \\  /    A nd           | Version:  9
     \\/     M anipulation  |
\*---------------------------------------------------------------------------*/
FoamFile
{
    format      ascii;
    class       surfaceScalarField;
    location    "0.08";
    object      phi;
}
// * * * * * * * * * * * * * * * * * * * * * * * * * * * * * * * * * * * * * //

dimensions      [0 3 -1 0 0 0 0];

internalField   nonuniform List<scalar> 
9850
(
-2.55664e-06
1.56016e-05
-2.58191e-06
1.5591e-05
-2.6058e-06
1.54562e-05
-2.64171e-06
1.54311e-05
-2.68596e-06
1.56657e-05
-2.72199e-06
1.60933e-05
-2.7383e-06
1.65501e-05
-2.73138e-06
1.69673e-05
-2.64652e-06
1.72685e-05
-2.32818e-06
1.6806e-05
-1.73259e-06
1.42422e-05
-1.2574e-06
9.0808e-06
-1.33049e-06
4.48989e-06
-1.42891e-06
2.8506e-06
-1.52252e-06
2.30406e-06
-1.56358e-06
2.19607e-06
-1.55176e-06
2.16496e-06
-1.51682e-06
2.13369e-06
-1.48498e-06
2.12366e-06
-1.4653e-06
2.13072e-06
-1.4571e-06
1.74291e-06
-1.45375e-06
1.65337e-06
-1.45422e-06
1.56406e-06
-1.45835e-06
1.48457e-06
-1.46488e-06
1.4221e-06
-1.47197e-06
1.37872e-06
-1.47877e-06
1.35381e-06
-1.48387e-06
1.3559e-06
-1.48462e-06
1.41127e-06
-1.47063e-06
1.52794e-06
-1.40594e-06
1.70213e-06
-1.18901e-06
1.92854e-06
-7.82679e-07
2.67971e-06
-3.043e-07
3.50303e-06
1.74428e-07
4.2785e-06
5.78104e-07
4.8894e-06
8.65887e-07
5.26039e-06
1.03491e-06
5.38798e-06
1.10928e-06
5.32116e-06
1.12286e-06
5.1298e-06
1.10577e-06
4.87783e-06
1.07838e-06
4.60987e-06
1.05136e-06
4.35025e-06
1.02856e-06
4.10849e-06
1.01011e-06
3.88574e-06
9.94747e-07
3.67973e-06
9.80962e-07
3.48745e-06
9.67568e-07
3.30631e-06
9.53849e-07
3.13413e-06
2.96658e-06
-2.52458e-06
1.56346e-05
-2.54194e-06
1.56083e-05
-2.55753e-06
1.54718e-05
-2.58202e-06
1.54556e-05
-2.60973e-06
1.56934e-05
-2.62481e-06
1.61083e-05
-2.61719e-06
1.65425e-05
-2.57907e-06
1.69292e-05
-2.44784e-06
1.71373e-05
-2.07519e-06
1.64334e-05
-1.43371e-06
1.36008e-05
-1.11881e-06
8.7659e-06
-1.18488e-06
4.55595e-06
-1.40505e-06
3.07078e-06
-1.53654e-06
2.43554e-06
-1.56358e-06
2.22311e-06
-1.53709e-06
2.13846e-06
-1.50195e-06
2.09855e-06
-1.47839e-06
2.1001e-06
-1.46873e-06
2.12106e-06
-1.46783e-06
1.74201e-06
-1.47014e-06
1.65567e-06
-1.47586e-06
1.56978e-06
-1.48741e-06
1.49612e-06
-1.50485e-06
1.43953e-06
-1.52355e-06
1.39742e-06
-1.5368e-06
1.36707e-06
-1.53926e-06
1.35835e-06
-1.52834e-06
1.40035e-06
-1.5156e-06
1.51521e-06
-1.46588e-06
1.6524e-06
-1.30374e-06
1.76641e-06
-9.73968e-07
2.34994e-06
-5.55227e-07
3.08428e-06
-1.08988e-07
3.83226e-06
2.95586e-07
4.48483e-06
6.11025e-07
4.94495e-06
8.20462e-07
5.17855e-06
9.33606e-07
5.20801e-06
9.7566e-07
5.08775e-06
9.74745e-07
4.87875e-06
9.53621e-07
4.63099e-06
9.26844e-07
4.37703e-06
9.01672e-07
4.13366e-06
8.80481e-07
3.90694e-06
8.63077e-07
3.69713e-06
8.48297e-07
3.50222e-06
8.34878e-07
3.31973e-06
8.21918e-07
3.14709e-06
2.97958e-06
-2.49263e-06
1.56601e-05
-2.50298e-06
1.56187e-05
-2.51114e-06
1.54799e-05
-2.52565e-06
1.54701e-05
-2.53986e-06
1.57076e-05
-2.53951e-06
1.6108e-05
-2.51612e-06
1.65191e-05
-2.45889e-06
1.6872e-05
-2.30582e-06
1.69842e-05
-1.93598e-06
1.60635e-05
-1.35252e-06
1.30173e-05
-9.71415e-07
8.3848e-06
-1.03378e-06
4.61831e-06
-1.37638e-06
3.41338e-06
-1.51604e-06
2.57521e-06
-1.52311e-06
2.23018e-06
-1.4913e-06
2.10665e-06
-1.46855e-06
2.0758e-06
-1.46173e-06
2.09327e-06
-1.46645e-06
2.12578e-06
-1.47486e-06
1.75042e-06
-1.48294e-06
1.66375e-06
-1.49077e-06
1.57761e-06
-1.50459e-06
1.50993e-06
-1.53152e-06
1.46647e-06
-1.5694e-06
1.4353e-06
-1.6031e-06
1.40077e-06
-1.61014e-06
1.3654e-06
-1.57694e-06
1.36714e-06
-1.49293e-06
1.4312e-06
-1.39183e-06
1.55131e-06
-1.2992e-06
1.67377e-06
-1.07778e-06
2.12853e-06
-7.32582e-07
2.73909e-06
-3.36419e-07
3.4361e-06
4.94598e-08
4.09895e-06
3.73766e-07
4.62064e-06
6.09832e-07
4.94248e-06
7.55316e-07
5.06253e-06
8.25603e-07
5.01746e-06
8.43949e-07
4.8604e-06
8.32821e-07
4.64212e-06
8.09085e-07
4.40077e-06
7.8296e-07
4.15979e-06
7.5926e-07
3.93063e-06
7.39342e-07
3.71705e-06
7.22796e-07
3.51877e-06
7.08592e-07
3.33393e-06
6.9582e-07
3.15986e-06
2.99152e-06
-2.4614e-06
1.56787e-05
-2.46566e-06
1.56229e-05
-2.46762e-06
1.54819e-05
-2.47398e-06
1.54765e-05
-2.47766e-06
1.57113e-05
-2.46669e-06
1.6097e-05
-2.43538e-06
1.64878e-05
-2.3717e-06
1.68083e-05
-2.21558e-06
1.68281e-05
-1.86189e-06
1.57098e-05
-1.32039e-06
1.24758e-05
-8.8191e-07
7.94632e-06
-8.67701e-07
4.6041e-06
-1.28346e-06
3.82914e-06
-1.41767e-06
2.70942e-06
-1.42228e-06
2.23478e-06
-1.41334e-06
2.09771e-06
-1.42056e-06
2.08302e-06
-1.43623e-06
2.10894e-06
-1.45648e-06
2.14604e-06
-1.47531e-06
1.76925e-06
-1.48981e-06
1.67825e-06
-1.49544e-06
1.58325e-06
-1.49837e-06
1.51285e-06
-1.51544e-06
1.48354e-06
-1.55462e-06
1.47448e-06
-1.59537e-06
1.44152e-06
-1.60068e-06
1.37071e-06
-1.52219e-06
1.28865e-06
-1.3833e-06
1.29231e-06
-1.28015e-06
1.44816e-06
-1.14395e-06
1.53757e-06
-1.01471e-06
1.99929e-06
-7.93474e-07
2.51785e-06
-4.88881e-07
3.1315e-06
-1.53207e-07
3.76327e-06
1.56736e-07
4.3107e-06
4.0311e-07
4.69611e-06
5.71604e-07
4.89404e-06
6.67289e-07
4.92178e-06
7.06512e-07
4.82118e-06
7.08992e-07
4.63964e-06
6.91979e-07
4.41778e-06
6.67647e-07
4.18412e-06
6.43015e-07
3.95527e-06
6.21185e-07
3.73888e-06
6.02848e-07
3.53711e-06
5.87524e-07
3.34926e-06
5.74517e-07
3.17287e-06
3.00283e-06
-2.43132e-06
1.56913e-05
-2.43039e-06
1.5622e-05
-2.42728e-06
1.54788e-05
-2.42726e-06
1.54764e-05
-2.42337e-06
1.57074e-05
-2.40615e-06
1.60798e-05
-2.37277e-06
1.64544e-05
-2.31012e-06
1.67457e-05
-2.15789e-06
1.66759e-05
-1.82628e-06
1.53782e-05
-1.33274e-06
1.19822e-05
-9.19535e-07
7.53311e-06
-8.8351e-07
4.56808e-06
-1.09443e-06
4.04006e-06
-1.22041e-06
2.83539e-06
-1.27819e-06
2.29256e-06
-1.32764e-06
2.14717e-06
-1.37487e-06
2.13025e-06
-1.40892e-06
2.14299e-06
-1.4387e-06
2.17582e-06
-1.46601e-06
1.79655e-06
-1.48777e-06
1.70002e-06
-1.49069e-06
1.58616e-06
-1.47275e-06
1.49492e-06
-1.45677e-06
1.46755e-06
-1.46408e-06
1.48179e-06
-1.47642e-06
1.45387e-06
-1.44791e-06
1.3422e-06
-1.36502e-06
1.20576e-06
-1.33354e-06
1.26083e-06
-1.2371e-06
1.35172e-06
-1.10542e-06
1.40588e-06
-9.57918e-07
1.85179e-06
-8.11469e-07
2.3714e-06
-5.96569e-07
2.9166e-06
-3.26267e-07
3.49297e-06
-4.74658e-08
4.0319e-06
1.95518e-07
4.45312e-06
3.7838e-07
4.71117e-06
4.95883e-07
4.80427e-06
5.56647e-07
4.76041e-06
5.75935e-07
4.62035e-06
5.69658e-07
4.42406e-06
5.50726e-07
4.20305e-06
5.27798e-07
3.97819e-06
5.05656e-07
3.76102e-06
4.86279e-07
3.55649e-06
4.70009e-07
3.36553e-06
4.566e-07
3.18628e-06
3.01393e-06
-2.40261e-06
1.56987e-05
-2.39743e-06
1.56168e-05
-2.39035e-06
1.54717e-05
-2.38556e-06
1.54716e-05
-2.37662e-06
1.56985e-05
-2.35642e-06
1.60596e-05
-2.32447e-06
1.64225e-05
-2.2668e-06
1.6688e-05
-2.12277e-06
1.65318e-05
-1.81948e-06
1.50749e-05
-1.39773e-06
1.15605e-05
-1.06058e-06
7.19597e-06
-1.06737e-06
4.57487e-06
-1.04362e-06
4.0163e-06
-1.08007e-06
2.87185e-06
-1.18967e-06
2.40216e-06
-1.28929e-06
2.2468e-06
-1.35553e-06
2.19648e-06
-1.38891e-06
2.17636e-06
-1.4153e-06
2.20221e-06
-1.44428e-06
1.82554e-06
-1.47189e-06
1.72763e-06
-1.47781e-06
1.59208e-06
-1.45001e-06
1.46712e-06
-1.40837e-06
1.42591e-06
-1.38666e-06
1.46009e-06
-1.38527e-06
1.45247e-06
-1.35783e-06
1.31476e-06
-1.2195e-06
1.06743e-06
-1.34578e-06
1.38711e-06
-1.46735e-06
1.47329e-06
-1.32656e-06
1.26509e-06
-1.07109e-06
1.59632e-06
-9.10869e-07
2.21118e-06
-7.29944e-07
2.73568e-06
-5.04545e-07
3.26757e-06
-2.55681e-07
3.78303e-06
-2.05234e-08
4.21797e-06
1.72e-07
4.51865e-06
3.087e-07
4.66757e-06
3.91332e-07
4.67778e-06
4.30045e-07
4.58164e-06
4.38247e-07
4.41586e-06
4.28508e-07
4.21279e-06
4.10438e-07
3.99627e-06
3.9023e-07
3.78123e-06
3.71194e-07
3.57552e-06
3.54675e-07
3.38205e-06
3.41046e-07
3.19991e-06
3.02506e-06
-2.37545e-06
1.57015e-05
-2.36688e-06
1.56082e-05
-2.35682e-06
1.54616e-05
-2.34869e-06
1.54635e-05
-2.33674e-06
1.56865e-05
-2.31593e-06
1.60388e-05
-2.28725e-06
1.63938e-05
-2.23616e-06
1.66369e-05
-2.10308e-06
1.63988e-05
-1.82954e-06
1.48014e-05
-1.46445e-06
1.11954e-05
-1.18335e-06
6.91486e-06
-1.08037e-06
4.47189e-06
-9.602e-07
3.89614e-06
-1.16089e-06
3.07253e-06
-1.2477e-06
2.48897e-06
-1.32843e-06
2.32753e-06
-1.36919e-06
2.23724e-06
-1.38048e-06
2.18765e-06
-1.39113e-06
2.21286e-06
-1.41018e-06
1.84459e-06
-1.43334e-06
1.75078e-06
-1.44664e-06
1.60539e-06
-1.43814e-06
1.45862e-06
-1.41727e-06
1.40504e-06
-1.43121e-06
1.47402e-06
-1.45591e-06
1.47717e-06
-1.45908e-06
1.31793e-06
-1.52206e-06
1.13041e-06
-1.43313e-06
1.29818e-06
-1.32795e-06
1.36811e-06
-1.37013e-06
1.30727e-06
-1.32627e-06
1.55246e-06
-1.12164e-06
2.00655e-06
-9.25072e-07
2.53911e-06
-7.08692e-07
3.05119e-06
-4.74417e-07
3.54876e-06
-2.44614e-07
3.98816e-06
-4.49818e-08
4.31902e-06
1.08812e-07
4.51378e-06
2.12625e-07
4.57397e-06
2.71953e-07
4.52231e-06
2.97133e-07
4.39068e-06
2.99561e-07
4.21036e-06
2.89098e-07
4.00673e-06
2.72976e-07
3.79735e-06
2.55796e-07
3.5927e-06
2.40185e-07
3.39766e-06
2.27747e-07
3.21235e-06
3.03447e-06
-2.34995e-06
1.57005e-05
-2.33874e-06
1.5597e-05
-2.32658e-06
1.54495e-05
-2.31628e-06
1.54532e-05
-2.30296e-06
1.56732e-05
-2.28326e-06
1.60191e-05
-2.25872e-06
1.63693e-05
-2.21357e-06
1.65918e-05
-2.08911e-06
1.62743e-05
-1.83353e-06
1.45458e-05
-1.51706e-06
1.08789e-05
-1.321e-06
6.7188e-06
-1.28219e-06
4.43309e-06
-1.22983e-06
3.84378e-06
-1.30753e-06
3.15023e-06
-1.33558e-06
2.51702e-06
-1.38164e-06
2.37358e-06
-1.39042e-06
2.24603e-06
-1.38165e-06
2.17888e-06
-1.37401e-06
2.20522e-06
-1.36857e-06
1.83915e-06
-1.36231e-06
1.74452e-06
-1.36874e-06
1.61182e-06
-1.39138e-06
1.48126e-06
-1.45472e-06
1.46838e-06
-1.54174e-06
1.56104e-06
-1.7756e-06
1.71103e-06
-1.6565e-06
1.19883e-06
-1.62321e-06
1.09713e-06
-1.53565e-06
1.21062e-06
-1.47268e-06
1.30513e-06
-1.5103e-06
1.3449e-06
-1.49014e-06
1.5323e-06
-1.38122e-06
1.89763e-06
-1.16774e-06
2.32564e-06
-9.35467e-07
2.81891e-06
-6.98837e-07
3.31213e-06
-4.68722e-07
3.75805e-06
-2.623e-07
4.1126e-06
-9.44523e-08
4.34593e-06
2.81146e-08
4.4514e-06
1.07062e-07
4.44336e-06
1.49703e-07
4.34804e-06
1.65688e-07
4.19438e-06
1.6437e-07
4.00805e-06
1.53339e-07
3.80838e-06
1.37926e-07
3.60812e-06
1.21577e-07
3.41401e-06
1.07858e-07
3.22607e-06
3.02215e-06
-2.32614e-06
1.56964e-05
-2.31298e-06
1.55839e-05
-2.29944e-06
1.54359e-05
-2.28797e-06
1.54417e-05
-2.27453e-06
1.56597e-05
-2.25719e-06
1.60017e-05
-2.23714e-06
1.63492e-05
-2.19596e-06
1.65506e-05
-2.07441e-06
1.61527e-05
-1.82479e-06
1.42962e-05
-1.55042e-06
1.06046e-05
-1.45918e-06
6.62756e-06
-1.46555e-06
4.43946e-06
-1.32547e-06
3.7037e-06
-1.30798e-06
3.13275e-06
-1.41417e-06
2.62321e-06
-1.37504e-06
2.33446e-06
-1.39435e-06
2.26533e-06
-1.38897e-06
2.1735e-06
-1.37087e-06
2.18711e-06
-1.33215e-06
1.80044e-06
-1.26973e-06
1.6821e-06
-1.22057e-06
1.56266e-06
-1.25089e-06
1.51157e-06
-1.34927e-06
1.56676e-06
-1.37924e-06
1.59102e-06
-1.34089e-06
1.67267e-06
-1.48949e-06
1.34744e-06
-1.57719e-06
1.18483e-06
-1.58095e-06
1.21437e-06
-1.56347e-06
1.28766e-06
-1.58407e-06
1.36549e-06
-1.578e-06
1.52624e-06
-1.52127e-06
1.84089e-06
-1.35726e-06
2.16163e-06
-1.13934e-06
2.60099e-06
-9.05098e-07
3.07789e-06
-6.75853e-07
3.5288e-06
-4.66132e-07
3.90288e-06
-2.88799e-07
4.1686e-06
-1.51821e-07
4.31443e-06
-5.62821e-08
4.34783e-06
2.38159e-09
4.28937e-06
3.18186e-08
4.16494e-06
4.03432e-08
3.99952e-06
3.52325e-08
3.81349e-06
2.18612e-08
3.62149e-06
3.70189e-09
3.43217e-06
-1.52701e-08
3.24504e-06
3.01043e-06
-2.30405e-06
1.56898e-05
-2.2895e-06
1.55693e-05
-2.2752e-06
1.54216e-05
-2.26335e-06
1.54299e-05
-2.25079e-06
1.56472e-05
-2.23671e-06
1.59877e-05
-2.22145e-06
1.6334e-05
-2.18298e-06
1.65121e-05
-2.06081e-06
1.60306e-05
-1.81632e-06
1.40517e-05
-1.55033e-06
1.03386e-05
-1.44896e-06
6.52618e-06
-1.40986e-06
4.40036e-06
-1.31478e-06
3.60862e-06
-1.3171e-06
3.13506e-06
-1.30652e-06
2.61263e-06
-1.25151e-06
2.27945e-06
-1.36768e-06
2.3815e-06
-1.40168e-06
2.2075e-06
-1.3791e-06
2.16454e-06
-1.30323e-06
1.72457e-06
-1.1856e-06
1.56447e-06
-1.11523e-06
1.49229e-06
-1.2249e-06
1.62124e-06
-1.28787e-06
1.62973e-06
-1.35682e-06
1.65997e-06
-1.33505e-06
1.6509e-06
-1.43436e-06
1.44675e-06
-1.55195e-06
1.30242e-06
-1.6094e-06
1.27182e-06
-1.62934e-06
1.30761e-06
-1.64436e-06
1.38051e-06
-1.64496e-06
1.52683e-06
-1.5981e-06
1.79403e-06
-1.49251e-06
2.05603e-06
-1.30061e-06
2.4091e-06
-1.07867e-06
2.85595e-06
-8.5442e-07
3.30456e-06
-6.45344e-07
3.6938e-06
-4.63744e-07
3.987e-06
-3.17626e-07
4.16831e-06
-2.09632e-07
4.23983e-06
-1.37309e-07
4.21705e-06
-9.46974e-08
4.12233e-06
-7.43102e-08
3.97913e-06
-6.87789e-08
3.80796e-06
-7.17407e-08
3.62445e-06
-7.78265e-08
3.43825e-06
-8.05205e-08
3.24773e-06
2.99199e-06
-2.28365e-06
1.56812e-05
-2.26821e-06
1.55539e-05
-2.25364e-06
1.54071e-05
-2.24206e-06
1.54183e-05
-2.23115e-06
1.56363e-05
-2.22102e-06
1.59775e-05
-2.21066e-06
1.63236e-05
-2.17418e-06
1.64756e-05
-2.05016e-06
1.59065e-05
-1.80886e-06
1.38104e-05
-1.54991e-06
1.00796e-05
-1.41589e-06
6.39216e-06
-1.36138e-06
4.34586e-06
-1.3645e-06
3.61174e-06
-1.28315e-06
3.05371e-06
-1.28762e-06
2.6171e-06
-1.35921e-06
2.35104e-06
-1.36656e-06
2.38884e-06
-1.39497e-06
2.23591e-06
-1.35961e-06
2.12918e-06
-1.29583e-06
1.66079e-06
-1.26123e-06
1.52987e-06
-1.28186e-06
1.51291e-06
-1.2746e-06
1.61398e-06
-1.31161e-06
1.66674e-06
-1.33067e-06
1.67902e-06
-1.3368e-06
1.65704e-06
-1.41632e-06
1.52627e-06
-1.5219e-06
1.408e-06
-1.60159e-06
1.35151e-06
-1.64912e-06
1.35514e-06
-1.6779e-06
1.40929e-06
-1.67903e-06
1.52796e-06
-1.61001e-06
1.72501e-06
-1.53579e-06
1.98181e-06
-1.39272e-06
2.26603e-06
-1.20097e-06
2.66419e-06
-9.91489e-07
3.09508e-06
-7.90019e-07
3.49233e-06
-6.10733e-07
3.80771e-06
-4.61931e-07
4.01951e-06
-3.47266e-07
4.12517e-06
-2.65873e-07
4.13566e-06
-2.13459e-07
4.06991e-06
-1.83869e-07
3.94955e-06
-1.70625e-07
3.79472e-06
-1.67909e-07
3.62173e-06
-1.70461e-07
3.4408e-06
-1.71842e-07
3.24911e-06
2.97868e-06
-2.26491e-06
1.56712e-05
-2.24899e-06
1.55379e-05
-2.23455e-06
1.53926e-05
-2.22376e-06
1.54075e-05
-2.21506e-06
1.56276e-05
-2.20923e-06
1.59717e-05
-2.20356e-06
1.63179e-05
-2.1682e-06
1.64403e-05
-2.04147e-06
1.57798e-05
-1.80407e-06
1.3573e-05
-1.5601e-06
9.83567e-06
-1.46796e-06
6.30003e-06
-1.43177e-06
4.30966e-06
-1.38238e-06
3.56235e-06
-1.28317e-06
2.9545e-06
-1.28505e-06
2.61898e-06
-1.35414e-06
2.42014e-06
-1.37473e-06
2.40943e-06
-1.40386e-06
2.26505e-06
-1.39525e-06
2.12057e-06
-1.37046e-06
1.636e-06
-1.36212e-06
1.52153e-06
-1.35994e-06
1.51073e-06
-1.33607e-06
1.59012e-06
-1.3198e-06
1.65047e-06
-1.31401e-06
1.67323e-06
-1.315e-06
1.65803e-06
-1.37206e-06
1.58333e-06
-1.45993e-06
1.49588e-06
-1.54407e-06
1.43565e-06
-1.60811e-06
1.41917e-06
-1.6513e-06
1.45248e-06
-1.66648e-06
1.54314e-06
-1.64346e-06
1.702e-06
-1.57461e-06
1.91296e-06
-1.46424e-06
2.15566e-06
-1.28024e-06
2.48019e-06
-1.08327e-06
2.8981e-06
-8.94083e-07
3.30315e-06
-7.24279e-07
3.63791e-06
-5.80444e-07
3.87567e-06
-4.6623e-07
4.01095e-06
-3.81865e-07
4.05129e-06
-3.24518e-07
4.01257e-06
-2.89369e-07
3.9144e-06
-2.70874e-07
3.77623e-06
-2.63664e-07
3.61452e-06
-2.62371e-07
3.43951e-06
-2.60328e-07
3.24707e-06
2.96673e-06
-2.24781e-06
1.56601e-05
-2.23173e-06
1.55219e-05
-2.21774e-06
1.53786e-05
-2.20812e-06
1.53979e-05
-2.20197e-06
1.56214e-05
-2.20047e-06
1.59702e-05
-2.19902e-06
1.63165e-05
-2.16406e-06
1.64053e-05
-2.03456e-06
1.56503e-05
-1.79412e-06
1.33326e-05
-1.58191e-06
9.62347e-06
-1.49956e-06
6.21767e-06
-1.3838e-06
4.19391e-06
-1.25118e-06
3.42973e-06
-1.2426e-06
2.94592e-06
-1.28751e-06
2.66389e-06
-1.36684e-06
2.49947e-06
-1.39072e-06
2.43331e-06
-1.40596e-06
2.2803e-06
-1.39841e-06
2.11301e-06
-1.38807e-06
1.62566e-06
-1.38559e-06
1.51906e-06
-1.37537e-06
1.50051e-06
-1.33745e-06
1.5522e-06
-1.29606e-06
1.60908e-06
-1.27035e-06
1.64752e-06
-1.26579e-06
1.65347e-06
-1.30134e-06
1.61887e-06
-1.36853e-06
1.56307e-06
-1.44556e-06
1.51268e-06
-1.51377e-06
1.48738e-06
-1.56377e-06
1.50248e-06
-1.58907e-06
1.56845e-06
-1.57686e-06
1.68979e-06
-1.52468e-06
1.86078e-06
-1.44745e-06
2.07843e-06
-1.30552e-06
2.33826e-06
-1.12438e-06
2.71697e-06
-9.54804e-07
3.13357e-06
-8.03618e-07
3.48672e-06
-6.739e-07
3.74595e-06
-5.68228e-07
3.90528e-06
-4.8757e-07
3.97063e-06
-4.30464e-07
3.95546e-06
-3.93478e-07
3.87741e-06
-3.7215e-07
3.7549e-06
-3.61802e-07
3.60417e-06
-3.57558e-07
3.43527e-06
-3.5401e-07
3.24352e-06
2.9574e-06
-2.23232e-06
1.56482e-05
-2.21632e-06
1.55059e-05
-2.20303e-06
1.53653e-05
-2.19483e-06
1.53897e-05
-2.19139e-06
1.5618e-05
-2.19391e-06
1.59727e-05
-2.19583e-06
1.63184e-05
-2.16007e-06
1.63696e-05
-2.02482e-06
1.55151e-05
-1.78182e-06
1.30896e-05
-1.56152e-06
9.40317e-06
-1.4165e-06
6.07265e-06
-1.30671e-06
4.08412e-06
-1.20711e-06
3.33013e-06
-1.24744e-06
2.98625e-06
-1.32683e-06
2.74329e-06
-1.40278e-06
2.57541e-06
-1.41964e-06
2.45016e-06
-1.41215e-06
2.27281e-06
-1.39047e-06
2.09132e-06
-1.3725e-06
1.6077e-06
-1.35793e-06
1.50448e-06
-1.33582e-06
1.4784e-06
-1.29283e-06
1.50922e-06
-1.24765e-06
1.5639e-06
-1.21326e-06
1.61313e-06
-1.19988e-06
1.64008e-06
-1.21807e-06
1.63707e-06
-1.26582e-06
1.61082e-06
-1.32942e-06
1.57629e-06
-1.39215e-06
1.55011e-06
-1.44008e-06
1.55041e-06
-1.46444e-06
1.5928e-06
-1.46069e-06
1.68604e-06
-1.42822e-06
1.8283e-06
-1.3591e-06
2.00932e-06
-1.24222e-06
2.22138e-06
-1.09462e-06
2.56936e-06
-9.69794e-07
3.00874e-06
-8.5386e-07
3.37079e-06
-7.49731e-07
3.64182e-06
-6.61005e-07
3.81655e-06
-5.90445e-07
3.90007e-06
-5.38496e-07
3.90351e-06
-5.03441e-07
3.84236e-06
-4.82181e-07
3.73364e-06
-4.71028e-07
3.59302e-06
-4.6582e-07
3.43006e-06
-4.62012e-07
3.23972e-06
2.94891e-06
-2.21842e-06
1.56361e-05
-2.20271e-06
1.54902e-05
-2.19028e-06
1.53529e-05
-2.18367e-06
1.53831e-05
-2.18299e-06
1.56173e-05
-2.189e-06
1.59787e-05
-2.19286e-06
1.63223e-05
-2.15427e-06
1.6331e-05
-2.01142e-06
1.53722e-05
-1.76622e-06
1.28444e-05
-1.53821e-06
9.17516e-06
-1.37766e-06
5.9121e-06
-1.34659e-06
4.05305e-06
-1.3218e-06
3.30534e-06
-1.33127e-06
2.99572e-06
-1.38695e-06
2.79897e-06
-1.43537e-06
2.62383e-06
-1.43689e-06
2.45168e-06
-1.41202e-06
2.24795e-06
-1.37564e-06
2.05494e-06
-1.34382e-06
1.57587e-06
-1.31285e-06
1.47352e-06
-1.27742e-06
1.44297e-06
-1.23493e-06
1.46672e-06
-1.18974e-06
1.51871e-06
-1.15285e-06
1.57624e-06
-1.13374e-06
1.62097e-06
-1.13987e-06
1.6432e-06
-1.17157e-06
1.64252e-06
-1.22095e-06
1.62566e-06
-1.27519e-06
1.60435e-06
-1.31922e-06
1.59444e-06
-1.34115e-06
1.61473e-06
-1.33658e-06
1.68147e-06
-1.30733e-06
1.79905e-06
-1.26136e-06
1.96335e-06
-1.20902e-06
2.16904e-06
-1.12275e-06
2.48309e-06
-1.02037e-06
2.90636e-06
-9.2706e-07
3.27748e-06
-8.41879e-07
3.55664e-06
-7.67815e-07
3.74249e-06
-7.07307e-07
3.83957e-06
-6.61445e-07
3.85765e-06
-6.29545e-07
3.81046e-06
-6.09569e-07
3.71366e-06
-5.98639e-07
3.58209e-06
-5.92897e-07
3.42432e-06
-5.8779e-07
3.23461e-06
2.93954e-06
-2.2061e-06
1.56238e-05
-2.19085e-06
1.54749e-05
-2.17942e-06
1.53415e-05
-2.17452e-06
1.53782e-05
-2.17657e-06
1.56193e-05
-2.18557e-06
1.59877e-05
-2.1897e-06
1.63264e-05
-2.14555e-06
1.62868e-05
-1.99466e-06
1.52213e-05
-1.75365e-06
1.26034e-05
-1.53738e-06
8.95889e-06
-1.38398e-06
5.75871e-06
-1.39205e-06
4.06112e-06
-1.40069e-06
3.31398e-06
-1.40136e-06
2.99638e-06
-1.42637e-06
2.82398e-06
-1.444e-06
2.64146e-06
-1.42816e-06
2.43584e-06
-1.39144e-06
2.21123e-06
-1.34496e-06
2.00847e-06
-1.30259e-06
1.5335e-06
-1.25851e-06
1.42944e-06
-1.21225e-06
1.39672e-06
-1.16655e-06
1.42102e-06
-1.12445e-06
1.47661e-06
-1.09081e-06
1.5426e-06
-1.07236e-06
1.60252e-06
-1.07417e-06
1.64501e-06
-1.09719e-06
1.66554e-06
-1.13718e-06
1.66566e-06
-1.18504e-06
1.6522e-06
-1.22855e-06
1.63796e-06
-1.25541e-06
1.64159e-06
-1.25918e-06
1.68524e-06
-1.2416e-06
1.78147e-06
-1.209e-06
1.93075e-06
-1.20026e-06
2.1603e-06
-1.18545e-06
2.46829e-06
-1.11782e-06
2.83873e-06
-1.04034e-06
3.2e-06
-9.66891e-07
3.4832e-06
-9.02536e-07
3.67814e-06
-8.49512e-07
3.78654e-06
-8.08735e-07
3.81687e-06
-7.79923e-07
3.78164e-06
-7.61724e-07
3.69546e-06
-7.51766e-07
3.57213e-06
-7.45924e-07
3.41847e-06
-7.36582e-07
3.22527e-06
2.9186e-06
-2.19537e-06
1.56117e-05
-2.18072e-06
1.54603e-05
-2.17042e-06
1.53312e-05
-2.16735e-06
1.53751e-05
-2.17218e-06
1.56242e-05
-2.18376e-06
1.59993e-05
-2.1867e-06
1.63293e-05
-2.13445e-06
1.62346e-05
-1.97496e-06
1.50618e-05
-1.73816e-06
1.23665e-05
-1.52942e-06
8.75015e-06
-1.40821e-06
5.6375e-06
-1.38819e-06
4.04109e-06
-1.40099e-06
3.32678e-06
-1.41254e-06
3.00793e-06
-1.42313e-06
2.83458e-06
-1.41833e-06
2.63666e-06
-1.38773e-06
2.40524e-06
-1.34294e-06
2.16643e-06
-1.29175e-06
1.95728e-06
-1.24481e-06
1.48656e-06
-1.19492e-06
1.37955e-06
-1.14416e-06
1.34596e-06
-1.09563e-06
1.37249e-06
-1.05543e-06
1.43641e-06
-1.02751e-06
1.51468e-06
-1.01479e-06
1.5898e-06
-1.01961e-06
1.64982e-06
-1.04221e-06
1.68814e-06
-1.08012e-06
1.70357e-06
-1.12741e-06
1.69949e-06
-1.17491e-06
1.68546e-06
-1.21257e-06
1.67924e-06
-1.23303e-06
1.7057e-06
-1.23765e-06
1.7861e-06
-1.2408e-06
1.93389e-06
-1.24075e-06
2.16025e-06
-1.2403e-06
2.46784e-06
-1.21485e-06
2.81328e-06
-1.16313e-06
3.14829e-06
-1.10708e-06
3.42714e-06
-1.05517e-06
3.62622e-06
-1.01095e-06
3.74233e-06
-9.75862e-07
3.78178e-06
-9.50084e-07
3.75587e-06
-9.32754e-07
3.67813e-06
-9.21504e-07
3.56088e-06
-9.11022e-07
3.40799e-06
-8.91161e-07
3.20541e-06
2.88295e-06
-2.18625e-06
1.55999e-05
-2.17233e-06
1.54463e-05
-2.16328e-06
1.53221e-05
-2.16224e-06
1.53741e-05
-2.16996e-06
1.56319e-05
-2.18389e-06
1.60132e-05
-2.18469e-06
1.63301e-05
-2.12286e-06
1.61727e-05
-1.95231e-06
1.48913e-05
-1.70365e-06
1.21179e-05
-1.47525e-06
8.52176e-06
-1.37583e-06
5.53807e-06
-1.35541e-06
4.02068e-06
-1.36178e-06
3.33315e-06
-1.37915e-06
3.0253e-06
-1.38017e-06
2.8356e-06
-1.35799e-06
2.61447e-06
-1.31446e-06
2.36172e-06
-1.26375e-06
2.11571e-06
-1.21278e-06
1.90632e-06
-1.16677e-06
1.44055e-06
-1.11655e-06
1.32933e-06
-1.06545e-06
1.29486e-06
-1.01934e-06
1.32638e-06
-9.83969e-07
1.40103e-06
-9.63925e-07
1.49464e-06
-9.59754e-07
1.58563e-06
-9.72184e-07
1.66225e-06
-1.0008e-06
1.71676e-06
-1.04341e-06
1.74618e-06
-1.09585e-06
1.75193e-06
-1.15182e-06
1.74144e-06
-1.20385e-06
1.73127e-06
-1.24521e-06
1.74705e-06
-1.27571e-06
1.8166e-06
-1.2978e-06
1.95599e-06
-1.31497e-06
2.17743e-06
-1.32489e-06
2.47775e-06
-1.31674e-06
2.80513e-06
-1.291e-06
3.12254e-06
-1.25574e-06
3.39188e-06
-1.2193e-06
3.58979e-06
-1.18601e-06
3.70904e-06
-1.15791e-06
3.75368e-06
-1.1357e-06
3.73365e-06
-1.1189e-06
3.66133e-06
-1.10517e-06
3.54715e-06
-1.08882e-06
3.39164e-06
-1.06227e-06
3.17885e-06
2.85087e-06
-2.17875e-06
1.55886e-05
-2.16571e-06
1.54333e-05
-2.15805e-06
1.53145e-05
-2.15929e-06
1.53753e-05
-2.17008e-06
1.56427e-05
-2.18626e-06
1.60294e-05
-2.18445e-06
1.63283e-05
-2.11267e-06
1.6101e-05
-1.92832e-06
1.47069e-05
-1.66023e-06
1.18498e-05
-1.41041e-06
8.27194e-06
-1.32125e-06
5.44891e-06
-1.30773e-06
4.00716e-06
-1.30853e-06
3.33395e-06
-1.31909e-06
3.03586e-06
-1.30681e-06
2.82332e-06
-1.26739e-06
2.57505e-06
-1.21063e-06
2.30496e-06
-1.1556e-06
2.06067e-06
-1.10993e-06
1.86065e-06
-1.06918e-06
1.3998e-06
-1.02184e-06
1.282e-06
-9.73271e-07
1.24628e-06
-9.32461e-07
1.28557e-06
-9.05549e-07
1.37412e-06
-8.95302e-07
1.48439e-06
-9.03537e-07
1.59387e-06
-9.275e-07
1.68622e-06
-9.67165e-07
1.75643e-06
-1.01975e-06
1.79876e-06
-1.08242e-06
1.8146e-06
-1.15056e-06
1.80958e-06
-1.21779e-06
1.7985e-06
-1.27762e-06
1.80688e-06
-1.32813e-06
1.86711e-06
-1.36976e-06
1.99762e-06
-1.40527e-06
2.21294e-06
-1.42747e-06
2.49995e-06
-1.43703e-06
2.81469e-06
-1.43217e-06
3.11767e-06
-1.41691e-06
3.37663e-06
-1.39668e-06
3.56955e-06
-1.37547e-06
3.68783e-06
-1.35554e-06
3.73375e-06
-1.33798e-06
3.71609e-06
-1.32256e-06
3.64592e-06
-1.30692e-06
3.53151e-06
-1.28588e-06
3.3706e-06
-1.25553e-06
3.1485e-06
2.8232e-06
-2.17292e-06
1.5578e-05
-2.1609e-06
1.54213e-05
-2.15482e-06
1.53084e-05
-2.15857e-06
1.53791e-05
-2.17267e-06
1.56568e-05
-2.19105e-06
1.60478e-05
-2.18644e-06
1.63237e-05
-2.10543e-06
1.602e-05
-1.90989e-06
1.45114e-05
-1.64261e-06
1.15825e-05
-1.40978e-06
8.0391e-06
-1.27676e-06
5.31589e-06
-1.24386e-06
3.97426e-06
-1.24017e-06
3.33027e-06
-1.24026e-06
3.03595e-06
-1.21134e-06
2.7944e-06
-1.15378e-06
2.51749e-06
-1.08407e-06
2.23525e-06
-1.02781e-06
2.00442e-06
-9.92187e-07
1.82503e-06
-9.57825e-07
1.36544e-06
-9.13113e-07
1.23728e-06
-8.67341e-07
1.20051e-06
-8.33217e-07
1.25145e-06
-8.16777e-07
1.35768e-06
-8.19248e-07
1.48686e-06
-8.42285e-07
1.6169e-06
-8.82889e-07
1.72682e-06
-9.3674e-07
1.81028e-06
-1.00309e-06
1.86511e-06
-1.07969e-06
1.8912e-06
-1.16301e-06
1.8929e-06
-1.24749e-06
1.88298e-06
-1.32626e-06
1.88565e-06
-1.3936e-06
1.93445e-06
-1.45696e-06
2.06098e-06
-1.50442e-06
2.2604e-06
-1.54395e-06
2.53948e-06
-1.57063e-06
2.84137e-06
-1.58511e-06
3.13216e-06
-1.58897e-06
3.38048e-06
-1.58527e-06
3.56586e-06
-1.57709e-06
3.67965e-06
-1.56663e-06
3.72329e-06
-1.55507e-06
3.70453e-06
-1.54207e-06
3.63292e-06
-1.5248e-06
3.51424e-06
-1.49838e-06
3.34419e-06
-1.46248e-06
3.1126e-06
2.79549e-06
-2.16879e-06
1.55683e-05
-2.15793e-06
1.54104e-05
-2.15363e-06
1.53041e-05
-2.16016e-06
1.53856e-05
-2.17773e-06
1.56744e-05
-2.19803e-06
1.60681e-05
-2.18986e-06
1.63155e-05
-2.09871e-06
1.59288e-05
-1.89322e-06
1.43059e-05
-1.62079e-06
1.13101e-05
-1.37023e-06
7.78854e-06
-1.21653e-06
5.16219e-06
-1.15857e-06
3.9163e-06
-1.16747e-06
3.33916e-06
-1.15173e-06
3.02021e-06
-1.10311e-06
2.74578e-06
-1.02913e-06
2.44351e-06
-9.52135e-07
2.15825e-06
-9.00747e-07
1.95303e-06
-8.7456e-07
1.79884e-06
-8.41897e-07
1.33277e-06
-7.91911e-07
1.1873e-06
-7.47291e-07
1.15589e-06
-7.22431e-07
1.22659e-06
-7.19501e-07
1.35475e-06
-7.38537e-07
1.5059e-06
-7.78181e-07
1.65655e-06
-8.36033e-07
1.78467e-06
-9.06166e-07
1.88041e-06
-9.88549e-07
1.9475e-06
-1.08125e-06
1.9839e-06
-1.18192e-06
1.99356e-06
-1.28669e-06
1.98775e-06
-1.38981e-06
1.98876e-06
-1.48489e-06
2.02953e-06
-1.56528e-06
2.14137e-06
-1.63026e-06
2.32538e-06
-1.6777e-06
2.58692e-06
-1.71707e-06
2.88075e-06
-1.74735e-06
3.16244e-06
-1.7681e-06
3.40122e-06
-1.78022e-06
3.57798e-06
-1.78554e-06
3.68497e-06
-1.78582e-06
3.72356e-06
-1.78199e-06
3.7007e-06
-1.77315e-06
3.62408e-06
-1.75562e-06
3.49671e-06
-1.72532e-06
3.31388e-06
-1.68261e-06
3.06989e-06
2.75974e-06
-2.16636e-06
1.55595e-05
-2.15683e-06
1.54009e-05
-2.15457e-06
1.53018e-05
-2.16413e-06
1.53952e-05
-2.18517e-06
1.56954e-05
-2.2067e-06
1.60896e-05
-2.19315e-06
1.6302e-05
-2.08787e-06
1.58235e-05
-1.86273e-06
1.40808e-05
-1.5603e-06
1.10076e-05
-1.31534e-06
7.54358e-06
-1.1966e-06
5.04345e-06
-1.15082e-06
3.87052e-06
-1.11605e-06
3.3044e-06
-1.06389e-06
2.96805e-06
-9.92977e-07
2.67487e-06
-9.11174e-07
2.36171e-06
-8.43906e-07
2.09098e-06
-7.98131e-07
1.90726e-06
-7.79827e-07
1.78054e-06
-7.16931e-07
1.26988e-06
-6.48635e-07
1.119e-06
-6.09665e-07
1.11692e-06
-5.99704e-07
1.21663e-06
-6.1361e-07
1.36866e-06
-6.52067e-07
1.54436e-06
-7.10004e-07
1.71448e-06
-7.83434e-07
1.8581e-06
-8.72419e-07
1.96939e-06
-9.72387e-07
2.04746e-06
-1.08161e-06
2.09312e-06
-1.19829e-06
2.11024e-06
-1.31958e-06
2.10904e-06
-1.44067e-06
2.10986e-06
-1.55421e-06
2.14307e-06
-1.65035e-06
2.23751e-06
-1.73286e-06
2.4079e-06
-1.80184e-06
2.6559e-06
-1.85999e-06
2.93889e-06
-1.90806e-06
3.21051e-06
-1.94573e-06
3.43889e-06
-1.97325e-06
3.60551e-06
-1.99174e-06
3.70346e-06
-2.00241e-06
3.73423e-06
-2.00548e-06
3.70377e-06
-1.99883e-06
3.61743e-06
-1.97807e-06
3.47595e-06
-1.94062e-06
3.27643e-06
-1.89073e-06
3.02e-06
2.72035e-06
-2.16563e-06
1.55519e-05
-2.15761e-06
1.53929e-05
-2.15769e-06
1.53019e-05
-2.17055e-06
1.5408e-05
-2.19501e-06
1.57199e-05
-2.21688e-06
1.61115e-05
-2.19597e-06
1.62811e-05
-2.07319e-06
1.57007e-05
-1.82158e-06
1.38292e-05
-1.50453e-06
1.06906e-05
-1.28097e-06
7.32003e-06
-1.2531e-06
5.01558e-06
-1.16328e-06
3.7807e-06
-1.06722e-06
3.20834e-06
-9.75636e-07
2.87646e-06
-8.88915e-07
2.58815e-06
-8.15538e-07
2.28833e-06
-7.66426e-07
2.04187e-06
-7.65246e-07
1.90608e-06
-6.58684e-07
1.67397e-06
-5.43412e-07
1.1546e-06
-4.77252e-07
1.05284e-06
-4.53456e-07
1.09312e-06
-4.64035e-07
1.2272e-06
-5.03619e-07
1.40824e-06
-5.63146e-07
1.60388e-06
-6.38622e-07
1.78996e-06
-7.3103e-07
1.95051e-06
-8.38376e-07
2.07674e-06
-9.55858e-07
2.16495e-06
-1.08095e-06
2.21822e-06
-1.21181e-06
2.2411e-06
-1.34589e-06
2.24312e-06
-1.47893e-06
2.2429e-06
-1.60483e-06
2.26897e-06
-1.7184e-06
2.35108e-06
-1.82071e-06
2.5102e-06
-1.91381e-06
2.749e-06
-1.9939e-06
3.01898e-06
-2.06123e-06
3.27784e-06
-2.11575e-06
3.49342e-06
-2.15772e-06
3.64748e-06
-2.18783e-06
3.73357e-06
-2.20662e-06
3.75302e-06
-2.21308e-06
3.71024e-06
-2.20402e-06
3.60836e-06
-2.17605e-06
3.44799e-06
-2.13118e-06
3.23156e-06
-2.08248e-06
2.9713e-06
2.69443e-06
-2.16658e-06
1.55456e-05
-2.16029e-06
1.53866e-05
-2.16305e-06
1.53047e-05
-2.17956e-06
1.54245e-05
-2.20752e-06
1.57478e-05
-2.22926e-06
1.61332e-05
-2.2003e-06
1.62521e-05
-2.06234e-06
1.55628e-05
-1.79887e-06
1.35657e-05
-1.50581e-06
1.03975e-05
-1.29696e-06
7.11117e-06
-1.22773e-06
4.94635e-06
-1.1094e-06
3.66237e-06
-9.95132e-07
3.09407e-06
-8.87653e-07
2.76899e-06
-7.83222e-07
2.48371e-06
-7.24283e-07
2.22939e-06
-6.85854e-07
2.00344e-06
-6.10922e-07
1.83115e-06
-4.25118e-07
1.48817e-06
-3.24023e-07
1.05351e-06
-2.80001e-07
1.00882e-06
-2.84153e-07
1.09728e-06
-3.25153e-07
1.2682e-06
-3.93184e-07
1.47627e-06
-4.77649e-07
1.68835e-06
-5.75574e-07
1.88789e-06
-6.87009e-07
2.06194e-06
-8.10602e-07
2.20033e-06
-9.43628e-07
2.29797e-06
-1.08336e-06
2.35795e-06
-1.22774e-06
2.38548e-06
-1.37445e-06
2.38983e-06
-1.52021e-06
2.38866e-06
-1.66095e-06
2.4097e-06
-1.79301e-06
2.48315e-06
-1.91482e-06
2.63202e-06
-2.02679e-06
2.86097e-06
-2.12531e-06
3.1175e-06
-2.20946e-06
3.36199e-06
-2.27875e-06
3.56271e-06
-2.33306e-06
3.70179e-06
-2.37251e-06
3.77302e-06
-2.39655e-06
3.77706e-06
-2.40302e-06
3.71671e-06
-2.38882e-06
3.59416e-06
-2.35382e-06
3.41299e-06
-2.30615e-06
3.18389e-06
-2.26311e-06
2.92826e-06
2.67735e-06