/*--------------------------------*- C++ -*----------------------------------*\
  =========                 |
  \\      /  F ield         | OpenFOAM: The Open Source CFD Toolbox
   \\    /   O peration     | Website:  https://openfoam.org
    \\  /    A nd           | Version:  9
     \\/     M anipulation  |
\*---------------------------------------------------------------------------*/
FoamFile
{
    format      ascii;
    class       surfaceVectorField;
    location    "0.08";
    object      Uf;
}
// * * * * * * * * * * * * * * * * * * * * * * * * * * * * * * * * * * * * * //

dimensions      [0 1 -1 0 0 0 0];

internalField   nonuniform List<vector> 
9850
(
(-0.272391 0 0.45003)
(-0.265033 0 0.453337)
(-0.278709 0 0.438652)
(-0.271733 0 0.451567)
(-0.284681 0 0.42498)
(-0.275556 0 0.429103)
(-0.293657 0 0.441779)
(-0.281356 0 0.424923)
(-0.304721 0 0.497194)
(-0.290479 0 0.464023)
(-0.313728 0 0.572336)
(-0.299282 0 0.535284)
(-0.317806 0 0.64737)
(-0.303388 0 0.611429)
(-0.316076 0 0.712236)
(-0.301868 0 0.680965)
(-0.294861 0 0.712929)
(-0.290097 0 0.73116)
(-0.215276 0 0.482302)
(-0.247585 0 0.654079)
(-0.0663785 0 -0.155394)
(-0.144272 0 0.226782)
(0.0524182 0 -1.00008)
(0.0838097 0 -0.633459)
(0.0341454 0 -1.54711)
(0.0601498 0 -1.39861)
(0.00954177 0 -1.72845)
(0.0302265 0 -1.67183)
(-0.0138621 0 -1.77791)
(-0.00523327 0 -1.76292)
(-0.0241253 0 -1.78399)
(-0.025113 0 -1.78091)
(-0.0211705 0 -1.78628)
(-0.0236166 0 -1.7861)
(-0.0124362 0 -1.78936)
(-0.0147827 0 -1.79131)
(-0.00447489 0 -1.7905)
(-0.00630012 0 -1.79298)
(0.000444848 0 -1.79072)
(-0.00110713 0 -1.79181)
(0.00249427 0 -1.79205)
(0.000921351 0 -1.79143)
(0.00333248 0 -1.79475)
(0.00139893 0 -1.79318)
(0.00321483 0 -1.79736)
(0.00116904 0 -1.7959)
(0.00218087 0 -1.7977)
(-0.000107979 0 -1.79743)
(0.000549384 0 -1.79399)
(-0.00271134 0 -1.79575)
(-0.00122387 0 -1.7854)
(-0.00613077 0 -1.78979)
(-0.00292366 0 -1.77032)
(-0.00929213 0 -1.77907)
(-0.00419966 0 -1.74295)
(-0.0111137 0 -1.76046)
(-0.00438505 0 -1.69528)
(-0.0110245 0 -1.72498)
(-0.00088812 0 -1.62145)
(-0.0089371 0 -1.66773)
(0.015283 0 -1.51301)
(-0.00201964 0 -1.58696)
(0.0695166 0 -1.27755)
(0.0160009 0 -1.48141)
(0.171099 0 -0.918754)
(0.0940066 0 -1.17692)
(0.290694 0 -0.537911)
(0.197452 0 -0.816807)
(0.410376 0 -0.181139)
(0.316514 0 -0.442809)
(0.511295 0 0.106189)
(0.429687 0 -0.104134)
(0.583241 0 0.301743)
(0.520266 0 0.158477)
(0.625497 0 0.409014)
(0.581588 0 0.330019)
(0.64409 0 0.448682)
(0.615505 0 0.419075)
(0.647484 0 0.446664)
(0.628827 0 0.447923)
(0.643211 0 0.425021)
(0.629565 0 0.441281)
(0.636363 0 0.398146)
(0.624338 0 0.418866)
(0.629609 0 0.373166)
(0.617397 0 0.392925)
(0.623908 0 0.352252)
(0.610846 0 0.369223)
(0.619297 0 0.335011)
(0.60537 0 0.349329)
(0.615456 0 0.320157)
(0.600915 0 0.332729)
(0.61201 0 0.306376)
(0.597174 0 0.318226)
(0.608661 0 0.292529)
(0.593759 0 0.304624)
(0.605231 0 0.276527)
(0.590643 0 0.290745)
(0.585731 0 0.273407)
(-0.264377 0 0.45487)
(-0.258021 0 0.458839)
(-0.268717 0 0.442028)
(-0.262762 0 0.45446)
(-0.272614 0 0.429089)
(-0.26481 0 0.431701)
(-0.278736 0 0.447229)
(-0.268481 0 0.429005)
(-0.285664 0 0.502195)
(-0.274467 0 0.468642)
(-0.289433 0 0.574576)
(-0.278975 0 0.537797)
(-0.28753 0 0.645473)
(-0.278207 0 0.61016)
(-0.277998 0 0.700733)
(-0.27199 0 0.674611)
(-0.245192 0 0.674202)
(-0.253469 0 0.709289)
(-0.152029 0 0.40231)
(-0.198706 0 0.591971)
(0.00834245 0 -0.235995)
(-0.0914134 0 0.119867)
(0.0870654 0 -1.01601)
(0.130726 0 -0.685942)
(0.0705498 0 -1.51855)
(0.102139 0 -1.3876)
(0.0155058 0 -1.70438)
(0.0433395 0 -1.63513)
(-0.0173654 0 -1.76549)
(-0.00575239 0 -1.741)
(-0.0241269 0 -1.78281)
(-0.0225803 0 -1.77641)
(-0.0175027 0 -1.79116)
(-0.0160502 0 -1.79051)
(-0.00871768 0 -1.795)
(-0.00728888 0 -1.79717)
(-0.00282793 0 -1.79432)
(-0.00177133 0 -1.79691)
(-0.000412584 0 -1.79248)
(0.000168247 0 -1.79342)
(-0.000188496 0 -1.7926)
(-0.000391143 0 -1.79161)
(-0.000765674 0 -1.79438)
(-0.00170673 0 -1.79269)
(-0.00219507 0 -1.79599)
(-0.00302603 0 -1.79462)
(-0.00508327 0 -1.79542)
(-0.00505247 0 -1.79471)
(-0.00944261 0 -1.7914)
(-0.00926439 0 -1.79144)
(-0.0141185 0 -1.78325)
(-0.0161514 0 -1.78494)
(-0.017432 0 -1.76897)
(-0.0237947 0 -1.77546)
(-0.0180458 0 -1.74231)
(-0.0279918 0 -1.75976)
(-0.0153149 0 -1.69566)
(-0.0251004 0 -1.72825)
(-0.0121317 0 -1.631)
(-0.0167684 0 -1.67172)
(0.0002996 0 -1.55386)
(-0.000522276 0 -1.60332)
(0.0408338 0 -1.37463)
(0.0187013 0 -1.53737)
(0.123277 0 -1.06807)
(0.0668756 0 -1.29629)
(0.227962 0 -0.714216)
(0.150753 0 -0.975805)
(0.339522 0 -0.358152)
(0.255839 0 -0.620545)
(0.440665 0 -0.0455589)
(0.362565 0 -0.273165)
(0.519525 0 0.191027)
(0.45485 0 0.0202339)
(0.571885 0 0.342405)
(0.52359 0 0.233737)
(0.60017 0 0.419182)
(0.566981 0 0.364514)
(0.610684 0 0.442534)
(0.588737 0 0.42665)
(0.610455 0 0.434725)
(0.595302 0 0.441767)
(0.605174 0 0.413144)
(0.593155 0 0.430623)
(0.59848 0 0.38852)
(0.587221 0 0.408558)
(0.592187 0 0.365915)
(0.580487 0 0.384639)
(0.586889 0 0.346724)
(0.574358 0 0.362943)
(0.582538 0 0.330507)
(0.569233 0 0.344457)
(0.578843 0 0.316189)
(0.565014 0 0.328673)
(0.575489 0 0.302533)
(0.561384 0 0.314574)
(0.572248 0 0.287223)
(0.558249 0 0.300825)
(0.553747 0 0.284013)
(-0.256389 0 0.458467)
(-0.251 0 0.463091)
(-0.258977 0 0.444175)
(-0.254009 0 0.456185)
(-0.261016 0 0.431688)
(-0.254519 0 0.433061)
(-0.264644 0 0.450558)
(-0.256349 0 0.431423)
(-0.268196 0 0.504481)
(-0.259701 0 0.47101)
(-0.268108 0 0.573729)
(-0.260913 0 0.537738)
(-0.26226 0 0.639799)
(-0.256863 0 0.606262)
(-0.247955 0 0.684065)
(-0.248157 0 0.665074)
(-0.209687 0 0.629656)
(-0.226893 0 0.683778)
(-0.117227 0 0.316336)
(-0.166833 0 0.530331)
(0.0286395 0 -0.324782)
(-0.0612119 0 0.0226229)
(0.123915 0 -1.05242)
(0.143746 0 -0.749459)
(0.108325 0 -1.49764)
(0.149361 0 -1.37721)
(0.022674 0 -1.67131)
(0.0617351 0 -1.57803)
(-0.0122422 0 -1.75387)
(0.00561542 0 -1.71772)
(-0.0140091 0 -1.78482)
(-0.00460925 0 -1.77523)
(-0.00605519 0 -1.79687)
(0.00191821 0 -1.79582)
(-0.000368921 0 -1.79922)
(0.00559066 0 -1.80096)
(0.00133761 0 -1.79604)
(0.00556458 0 -1.79805)
(0.000155321 0 -1.79236)
(0.00335366 0 -1.79263)
(-0.00194653 0 -1.7917)
(-0.000221896 0 -1.7899)
(-0.00396575 0 -1.79292)
(-0.00372278 0 -1.79096)
(-0.00592459 0 -1.79326)
(-0.00594375 0 -1.79286)
(-0.00937729 0 -1.79049)
(-0.00705599 0 -1.79146)
(-0.0161101 0 -1.78444)
(-0.00995649 0 -1.78479)
(-0.0255801 0 -1.77612)
(-0.0180414 0 -1.77513)
(-0.0340063 0 -1.76443)
(-0.0299836 0 -1.76631)
(-0.0357671 0 -1.74255)
(-0.0370804 0 -1.75775)
(-0.0274648 0 -1.70245)
(-0.0296815 0 -1.73818)
(-0.00646252 0 -1.64399)
(-0.010897 0 -1.69807)
(0.0188114 0 -1.58084)
(0.0201653 0 -1.63658)
(0.0419698 0 -1.44349)
(0.0498054 0 -1.56933)
(0.0973234 0 -1.19031)
(0.0751614 0 -1.37644)
(0.183623 0 -0.871455)
(0.132559 0 -1.10688)
(0.282664 0 -0.525889)
(0.215278 0 -0.778336)
(0.379134 0 -0.199626)
(0.308533 0 -0.434385)
(0.460211 0 0.0684676)
(0.396591 0 -0.121896)
(0.519227 0 0.259232)
(0.468063 0 0.125214)
(0.555598 0 0.373627)
(0.518002 0 0.294358)
(0.57317 0 0.426348)
(0.547113 0 0.391096)
(0.577756 0 0.437472)
(0.559776 0 0.432033)
(0.574974 0 0.425565)
(0.561607 0 0.436816)
(0.56904 0 0.40415)
(0.557623 0 0.422417)
(0.562509 0 0.381184)
(0.551391 0 0.400639)
(0.556584 0 0.360262)
(0.544971 0 0.378168)
(0.551604 0 0.342266)
(0.539272 0 0.357879)
(0.547468 0 0.326735)
(0.534512 0 0.340368)
(0.543917 0 0.312546)
(0.530532 0 0.325105)
(0.540724 0 0.297219)
(0.527243 0 0.310758)
(0.522998 0 0.29375)
(-0.248581 0 0.460867)
(-0.244102 0 0.466198)
(-0.249646 0 0.445159)
(-0.245588 0 0.456894)
(-0.250136 0 0.432913)
(-0.244817 0 0.433388)
(-0.251727 0 0.452038)
(-0.24514 0 0.432483)
(-0.252646 0 0.504512)
(-0.246409 0 0.471624)
(-0.249902 0 0.570644)
(-0.245254 0 0.535908)
(-0.242077 0 0.632069)
(-0.239289 0 0.601045)
(-0.226156 0 0.66548)
(-0.229855 0 0.65446)
(-0.187126 0 0.585232)
(-0.208764 0 0.657758)
(-0.0987031 0 0.236687)
(-0.147762 0 0.471382)
(0.0366727 0 -0.408672)
(-0.046679 0 -0.0676276)
(0.146292 0 -1.08117)
(0.122273 0 -0.822538)
(0.149844 0 -1.45964)
(0.174083 0 -1.37957)
(0.0459043 0 -1.62787)
(0.0933235 0 -1.50874)
(0.0123504 0 -1.74228)
(0.0403862 0 -1.69536)
(0.0112001 0 -1.78768)
(0.0320907 0 -1.77446)
(0.0134335 0 -1.80022)
(0.0280497 0 -1.79731)
(0.0116283 0 -1.79982)
(0.0205768 0 -1.79976)
(0.00771239 0 -1.79461)
(0.0138765 0 -1.79544)
(0.00264893 0 -1.78986)
(0.00824387 0 -1.78925)
(-0.00205784 0 -1.78914)
(0.0021011 0 -1.78606)
(-0.00568332 0 -1.79088)
(-0.00379869 0 -1.78786)
(-0.00709216 0 -1.79091)
(-0.00708585 0 -1.7916)
(-0.0078228 0 -1.78535)
(-0.0058692 0 -1.79077)
(-0.0120903 0 -1.77474)
(-0.00322155 0 -1.78057)
(-0.0218857 0 -1.76427)
(-0.00618562 0 -1.76498)
(-0.0320734 0 -1.75809)
(-0.0155968 0 -1.75523)
(-0.0334021 0 -1.75216)
(-0.0193115 0 -1.75624)
(-0.0137794 0 -1.73279)
(-0.00764426 0 -1.76164)
(0.0209441 0 -1.68398)
(0.015474 0 -1.74163)
(0.0467314 0 -1.62274)
(0.0386946 0 -1.67052)
(0.0807821 0 -1.50009)
(0.0696038 0 -1.61633)
(0.113092 0 -1.28223)
(0.0995686 0 -1.42322)
(0.1684 0 -1.00158)
(0.137266 0 -1.19088)
(0.244549 0 -0.676226)
(0.19304 0 -0.899654)
(0.328467 0 -0.347938)
(0.266545 0 -0.574629)
(0.405953 0 -0.0586606)
(0.344757 0 -0.25773)
(0.467546 0 0.164634)
(0.41449 0 0.0119517)
(0.50967 0 0.314227)
(0.467897 0 0.213106)
(0.533591 0 0.397776)
(0.502872 0 0.342695)
(0.543397 0 0.43148)
(0.521496 0 0.411221)
(0.544017 0 0.433305)
(0.528008 0 0.435436)
(0.539764 0 0.418369)
(0.526979 0 0.432349)
(0.533681 0 0.397074)
(0.522176 0 0.415541)
(0.527523 0 0.375293)
(0.516134 0 0.393993)
(0.522065 0 0.355558)
(0.510252 0 0.37259)
(0.517481 0 0.338369)
(0.505116 0 0.353331)
(0.51365 0 0.322972)
(0.500804 0 0.336468)
(0.510398 0 0.306881)
(0.497311 0 0.320875)
(0.493177 0 0.302982)
(-0.24106 0 0.462266)
(-0.237406 0 0.468297)
(-0.240828 0 0.445191)
(-0.237592 0 0.456739)
(-0.240051 0 0.433057)
(-0.235778 0 0.43287)
(-0.240046 0 0.452197)
(-0.234907 0 0.432479)
(-0.239073 0 0.503184)
(-0.234608 0 0.470975)
(-0.234767 0 0.566549)
(-0.231927 0 0.533039)
(-0.226423 0 0.623791)
(-0.225165 0 0.595482)
(-0.210761 0 0.647009)
(-0.216051 0 0.644018)
(-0.172703 0 0.543524)
(-0.196581 0 0.632386)
(-0.0898017 0 0.165509)
(-0.137738 0 0.416114)
(0.0335833 0 -0.483875)
(-0.0426704 0 -0.149884)
(0.136885 0 -1.12443)
(0.0920023 0 -0.891407)
(0.145891 0 -1.43839)
(0.139137 0 -1.38558)
(0.0931603 0 -1.58185)
(0.114525 0 -1.47358)
(0.061667 0 -1.72508)
(0.0826963 0 -1.67436)
(0.0472225 0 -1.7831)
(0.0694835 0 -1.76483)
(0.0348581 0 -1.79618)
(0.0496448 0 -1.78906)
(0.0230517 0 -1.79501)
(0.0306836 0 -1.79188)
(0.0145395 0 -1.78993)
(0.0200734 0 -1.78976)
(0.00709481 0 -1.78507)
(0.0138987 0 -1.78429)
(0.000267516 0 -1.78479)
(0.00689311 0 -1.78049)
(-0.00517387 0 -1.78863)
(-0.000804128 0 -1.7832)
(-0.00590319 0 -1.79143)
(-0.00558532 0 -1.79094)
(-0.00141945 0 -1.7858)
(-0.00284856 0 -1.79499)
(0.00257773 0 -1.77069)
(0.00587078 0 -1.78452)
(0.000750084 0 -1.75658)
(0.0110316 0 -1.76309)
(-0.00233546 0 -1.75614)
(0.00890131 0 -1.75188)
(0.00479231 0 -1.76769)
(0.00999224 0 -1.76436)
(0.0255145 0 -1.76659)
(0.0216256 0 -1.78643)
(0.0333833 0 -1.72911)
(0.0501782 0 -1.7515)
(0.0574931 0 -1.671)
(0.0250433 0 -1.70224)
(0.090415 0 -1.54547)
(0.034323 0 -1.66178)
(0.127289 0 -1.33705)
(0.0865367 0 -1.47661)
(0.163902 0 -1.08676)
(0.131271 0 -1.24649)
(0.217627 0 -0.793041)
(0.172152 0 -0.985248)
(0.285202 0 -0.47832)
(0.228395 0 -0.687562)
(0.354903 0 -0.181468)
(0.295301 0 -0.379917)
(0.415649 0 0.0647208)
(0.360825 0 -0.0997519)
(0.461364 0 0.244262)
(0.415562 0 0.124925)
(0.49074 0 0.357476)
(0.455136 0 0.283258)
(0.505931 0 0.415527)
(0.47945 0 0.378978)
(0.510753 0 0.434237)
(0.491161 0 0.424701)
(0.509183 0 0.428995)
(0.494027 0 0.436014)
(0.504451 0 0.411855)
(0.491661 0 0.427135)
(0.498719 0 0.390715)
(0.486849 0 0.408721)
(0.493183 0 0.369857)
(0.481389 0 0.38751)
(0.488339 0 0.350994)
(0.476241 0 0.367027)
(0.484271 0 0.333977)
(0.471771 0 0.348531)
(0.480919 0 0.316537)
(0.468124 0 0.331305)
(0.464001 0 0.312031)
(-0.233883 0 0.462808)
(-0.230968 0 0.469519)
(-0.232587 0 0.444469)
(-0.23007 0 0.455875)
(-0.230817 0 0.432368)
(-0.227443 0 0.431691)
(-0.229621 0 0.451366)
(-0.22567 0 0.431681)
(-0.227385 0 0.500966)
(-0.224249 0 0.469485)
(-0.222337 0 0.562123)
(-0.220705 0 0.529673)
(-0.214349 0 0.615889)
(-0.21396 0 0.590157)
(-0.199932 0 0.62954)
(-0.205723 0 0.634407)
(-0.163924 0 0.504827)
(-0.188261 0 0.60838)
(-0.0881001 0 0.10096)
(-0.133717 0 0.365565)
(0.0173376 0 -0.554227)
(-0.0459774 0 -0.220176)
(0.101624 0 -1.15308)
(0.0640659 0 -0.947598)
(0.0999262 0 -1.42855)
(0.0977652 0 -1.38445)
(0.105865 0 -1.56604)
(0.123562 0 -1.47754)
(0.0967516 0 -1.70739)
(0.0964981 0 -1.66828)
(0.0693516 0 -1.76779)
(0.0743585 0 -1.74657)
(0.0444456 0 -1.78368)
(0.0500892 0 -1.77246)
(0.0278866 0 -1.78628)
(0.0301975 0 -1.78084)
(0.0195427 0 -1.78398)
(0.0220687 0 -1.7842)
(0.0129443 0 -1.77925)
(0.0189477 0 -1.77989)
(0.00569903 0 -1.77892)
(0.0136563 0 -1.77458)
(-0.00120303 0 -1.78573)
(0.00633848 0 -1.77729)
(-0.00268239 0 -1.79492)
(0.00069204 0 -1.78962)
(0.0042666 0 -1.79446)
(0.00206918 0 -1.80154)
(0.014676 0 -1.77783)
(0.0101715 0 -1.7948)
(0.0201031 0 -1.75885)
(0.0153201 0 -1.76871)
(0.020451 0 -1.75931)
(0.0137716 0 -1.75226)
(0.0273122 0 -1.77863)
(0.0104747 0 -1.77219)
(0.0618939 0 -1.76452)
(0.0164198 0 -1.82778)
(0.0303244 0 -1.714)
(0.0266424 0 -1.7119)
(-6.79822e-05 0 -1.68791)
(0.0161939 0 -1.66225)
(0.0351299 0 -1.60048)
(0.0143176 0 -1.71036)
(0.0989962 0 -1.39427)
(0.042071 0 -1.56909)
(0.139052 0 -1.14686)
(0.0891014 0 -1.30733)
(0.184283 0 -0.878425)
(0.134263 0 -1.05731)
(0.240633 0 -0.585669)
(0.184575 0 -0.781734)
(0.302849 0 -0.29391)
(0.243955 0 -0.488983)
(0.361638 0 -0.035683)
(0.305509 0 -0.207857)
(0.409769 0 0.166713)
(0.360696 0 0.0320859)
(0.443944 0 0.306365)
(0.404 0 0.21411)
(0.464602 0 0.388771)
(0.433652 0 0.335133)
(0.47428 0 0.426417)
(0.45082 0 0.403155)
(0.476331 0 0.433708)
(0.458276 0 0.431226)
(0.473896 0 0.423395)
(0.459218 0 0.4331)
(0.469378 0 0.404887)
(0.456464 0 0.420331)
(0.464327 0 0.384092)
(0.452083 0 0.401128)
(0.459568 0 0.364034)
(0.447378 0 0.380484)
(0.455438 0 0.345363)
(0.443034 0 0.360781)
(0.452031 0 0.326269)
(0.439446 0 0.341905)
(0.435501 0 0.321114)
(-0.227094 0 0.462625)
(-0.22483 0 0.469989)
(-0.22495 0 0.443146)
(-0.223046 0 0.454446)
(-0.222436 0 0.431066)
(-0.219811 0 0.430015)
(-0.220403 0 0.449881)
(-0.217397 0 0.430326)
(-0.217415 0 0.49829)
(-0.215237 0 0.467493)
(-0.212213 0 0.557801)
(-0.211328 0 0.526205)
(-0.205043 0 0.608766)
(-0.205146 0 0.585376)
(-0.192272 0 0.613412)
(-0.198043 0 0.625893)
(-0.159001 0 0.469285)
(-0.182226 0 0.5862)
(-0.0906157 0 0.0438896)
(-0.131977 0 0.319975)
(0.000656316 0 -0.614492)
(-0.0508799 0 -0.281024)
(0.0709322 0 -1.18206)
(0.0408212 0 -0.994448)
(0.0966775 0 -1.42871)
(0.0629243 0 -1.40161)
(0.126719 0 -1.56146)
(0.0927316 0 -1.49757)
(0.0765471 0 -1.69684)
(0.0744933 0 -1.63484)
(0.0548435 0 -1.7519)
(0.0510201 0 -1.7321)
(0.034661 0 -1.77041)
(0.0341979 0 -1.759)
(0.0244707 0 -1.77932)
(0.0229349 0 -1.77405)
(0.021649 0 -1.78042)
(0.0207416 0 -1.78232)
(0.0189871 0 -1.77481)
(0.0218951 0 -1.77812)
(0.0142234 0 -1.77309)
(0.0207044 0 -1.77069)
(0.0084351 0 -1.78158)
(0.0180176 0 -1.77234)
(0.00510818 0 -1.7968)
(0.0157272 0 -1.78663)
(0.00723416 0 -1.80233)
(0.0150035 0 -1.80354)
(0.0124508 0 -1.78463)
(0.0114611 0 -1.79996)
(0.00896608 0 -1.761)
(0.0033213 0 -1.7651)
(0.00279174 0 -1.76384)
(-0.0110113 0 -1.74555)
(0.00199784 0 -1.79824)
(-0.0399242 0 -1.77128)
(-0.0137471 0 -1.76209)
(-0.0227504 0 -1.80895)
(0.00848557 0 -1.68904)
(-0.0227954 0 -1.73979)
(0.0347811 0 -1.69198)
(0.0112906 0 -1.69685)
(0.0242353 0 -1.64752)
(0.013205 0 -1.6958)
(0.0352008 0 -1.46416)
(0.00196641 0 -1.58496)
(0.0863587 0 -1.21736)
(0.0282599 0 -1.38503)
(0.135501 0 -0.957191)
(0.0771515 0 -1.1356)
(0.189596 0 -0.680524)
(0.131341 0 -0.872137)
(0.248165 0 -0.398073)
(0.189509 0 -0.591656)
(0.305615 0 -0.135525)
(0.249219 0 -0.313502)
(0.355524 0 0.0830404)
(0.304817 0 -0.0641823)
(0.393972 0 0.245118)
(0.351144 0 0.136315)
(0.419925 0 0.350691)
(0.385541 0 0.280049)
(0.434757 0 0.40833)
(0.407976 0 0.370132)
(0.441052 0 0.430467)
(0.420258 0 0.416524)
(0.441659 0 0.429617)
(0.425016 0 0.431612)
(0.439044 0 0.416054)
(0.424899 0 0.427051)
(0.435013 0 0.396984)
(0.422082 0 0.411992)
(0.430718 0 0.376668)
(0.418103 0 0.392628)
(0.426815 0 0.356623)
(0.413948 0 0.372355)
(0.423706 0 0.335853)
(0.410844 0 0.351579)
(0.407317 0 0.328788)
(-0.220718 0 0.461846)
(-0.21902 0 0.469826)
(-0.217917 0 0.441361)
(-0.216531 0 0.452578)
(-0.214875 0 0.42933)
(-0.212861 0 0.427988)
(-0.212302 0 0.448001)
(-0.210031 0 0.42861)
(-0.20897 0 0.495478)
(-0.20745 0 0.465272)
(-0.204046 0 0.553841)
(-0.203557 0 0.522922)
(-0.197912 0 0.602527)
(-0.198274 0 0.581286)
(-0.186623 0 0.598697)
(-0.192373 0 0.618368)
(-0.155509 0 0.436752)
(-0.177452 0 0.565457)
(-0.0916125 0 -0.00579107)
(-0.129417 0 0.277377)
(-0.0124953 0 -0.662598)
(-0.0524988 0 -0.333769)
(0.0365197 0 -1.21251)
(0.0205073 0 -1.02712)
(0.0462206 0 -1.46371)
(0.013918 0 -1.40808)
(0.0593105 0 -1.58219)
(0.034519 0 -1.5063)
(0.0398863 0 -1.68597)
(0.0514758 0 -1.62189)
(0.0328735 0 -1.73947)
(0.0242079 0 -1.72742)
(0.0213599 0 -1.76274)
(0.0239971 0 -1.75133)
(0.0191646 0 -1.77742)
(0.019637 0 -1.77259)
(0.0213565 0 -1.7805)
(0.018672 0 -1.78378)
(0.0232655 0 -1.77369)
(0.0213833 0 -1.77939)
(0.0246256 0 -1.77048)
(0.025529 0 -1.7718)
(0.0261905 0 -1.77788)
(0.0329403 0 -1.77368)
(0.0245839 0 -1.79288)
(0.0422589 0 -1.78519)
(0.0189242 0 -1.79705)
(0.0441321 0 -1.79821)
(0.00308947 0 -1.7758)
(0.0269167 0 -1.78432)
(-0.0186652 0 -1.74943)
(0.00478481 0 -1.74256)
(-0.0771303 0 -1.76621)
(-0.00049854 0 -1.682)
(-0.0473554 0 -1.81334)
(-0.028392 0 -1.80523)
(-0.0390341 0 -1.79259)
(-0.0336958 0 -1.8189)
(-0.0171443 0 -1.72806)
(-0.031727 0 -1.76725)
(-0.00140056 0 -1.69822)
(-0.0140573 0 -1.71757)
(-0.0108056 0 -1.64222)
(-0.0140796 0 -1.68282)
(-0.00576528 0 -1.50004)
(-0.0233434 0 -1.59226)
(0.021465 0 -1.2905)
(-0.014114 0 -1.42639)
(0.074833 0 -1.04436)
(0.0229042 0 -1.22063)
(0.132902 0 -0.776749)
(0.0770946 0 -0.969182)
(0.19206 0 -0.500605)
(0.135884 0 -0.695361)
(0.249588 0 -0.23637)
(0.195129 0 -0.419289)
(0.301194 0 -0.00626559)
(0.251032 0 -0.163724)
(0.343156 0 0.174539)
(0.299486 0 0.0514117)
(0.373798 0 0.301529)
(0.337631 0 0.215015)
(0.393535 0 0.379366)
(0.364627 0 0.326191)
(0.404195 0 0.418027)
(0.381436 0 0.391629)
(0.408191 0 0.429028)
(0.390065 0 0.421823)
(0.407862 0 0.422851)
(0.392845 0 0.427899)
(0.405104 0 0.40758)
(0.391879 0 0.419426)
(0.40125 0 0.388508)
(0.388769 0 0.403523)
(0.397163 0 0.367868)
(0.384621 0 0.384477)
(0.393734 0 0.345116)
(0.381386 0 0.362249)
(0.377963 0 0.31874)
(-0.214767 0 0.460591)
(-0.213554 0 0.469143)
(-0.211476 0 0.439244)
(-0.210521 0 0.450384)
(-0.208091 0 0.427314)
(-0.206566 0 0.425731)
(-0.205223 0 0.445931)
(-0.203503 0 0.426698)
(-0.201863 0 0.492765)
(-0.200765 0 0.463032)
(-0.197528 0 0.550402)
(-0.197182 0 0.520032)
(-0.192517 0 0.597098)
(-0.193008 0 0.577946)
(-0.18222 0 0.584975)
(-0.188296 0 0.611503)
(-0.151833 0 0.405721)
(-0.173662 0 0.545199)
(-0.0894286 0 -0.0511561)
(-0.125974 0 0.235774)
(-0.0208362 0 -0.699925)
(-0.0507825 0 -0.379497)
(0.00197477 0 -1.22757)
(0.00933307 0 -1.04233)
(0.000382578 0 -1.47005)
(-0.00367135 0 -1.40702)
(0.0354021 0 -1.55938)
(0.0204937 0 -1.52964)
(0.0397733 0 -1.65722)
(0.0455071 0 -1.6248)
(0.0132269 0 -1.73614)
(0.0256042 0 -1.70972)
(0.0230083 0 -1.76034)
(0.0403302 0 -1.75785)
(0.0181812 0 -1.77648)
(0.0247829 0 -1.76937)
(0.0195256 0 -1.7808)
(0.018071 0 -1.78467)
(0.0240526 0 -1.77542)
(0.0178293 0 -1.78241)
(0.033731 0 -1.77395)
(0.027817 0 -1.7797)
(0.0493359 0 -1.78056)
(0.0478536 0 -1.78703)
(0.0616255 0 -1.78942)
(0.0693778 0 -1.79622)
(0.0540457 0 -1.78514)
(0.0730548 0 -1.79107)
(0.0294522 0 -1.75458)
(0.0457371 0 -1.76002)
(0.021958 0 -1.703)
(0.0231872 0 -1.73479)
(0.0315477 0 -1.73536)
(0.0300932 0 -1.69243)
(-0.00560442 0 -1.804)
(0.0246213 0 -1.76287)
(-0.0275294 0 -1.79316)
(-0.0150931 0 -1.79268)
(-0.0284679 0 -1.74755)
(-0.0318447 0 -1.76607)
(-0.0240995 0 -1.70022)
(-0.0320076 0 -1.72332)
(-0.0292481 0 -1.63429)
(-0.0341582 0 -1.67572)
(-0.0277322 0 -1.51547)
(-0.038867 0 -1.59446)
(-0.013549 0 -1.34742)
(-0.0350308 0 -1.44793)
(0.0274545 0 -1.13356)
(-0.0122644 0 -1.28595)
(0.0819348 0 -0.877658)
(0.0327088 0 -1.06023)
(0.140495 0 -0.605383)
(0.0888579 0 -0.798018)
(0.197806 0 -0.339327)
(0.147046 0 -0.524676)
(0.250236 0 -0.100206)
(0.202593 0 -0.264857)
(0.294569 0 0.0962236)
(0.252029 0 -0.0382908)
(0.328814 0 0.242613)
(0.29262 0 0.142334)
(0.352698 0 0.340196)
(0.323084 0 0.273016)
(0.367364 0 0.396282)
(0.343726 0 0.357379)
(0.374724 0 0.420991)
(0.355985 0 0.403795)
(0.376855 0 0.424518)
(0.361839 0 0.422422)
(0.375577 0 0.415454)
(0.363273 0 0.42287)
(0.372234 0 0.399921)
(0.361944 0 0.412975)
(0.367694 0 0.379977)
(0.359089 0 0.397942)
(0.362951 0 0.337662)
(0.35673 0 0.377005)
(0.355822 0 0.309177)
(-0.209244 0 0.458965)
(-0.208443 0 0.468042)
(-0.205606 0 0.436903)
(-0.205005 0 0.447959)
(-0.202031 0 0.42515)
(-0.200891 0 0.423347)
(-0.199068 0 0.443834)
(-0.197744 0 0.424723)
(-0.195927 0 0.490329)
(-0.195061 0 0.460938)
(-0.192409 0 0.547593)
(-0.192023 0 0.517686)
(-0.188592 0 0.59233)
(-0.189106 0 0.575402)
(-0.178976 0 0.571613)
(-0.185543 0 0.605092)
(-0.148432 0 0.375086)
(-0.17081 0 0.524837)
(-0.0873102 0 -0.0936458)
(-0.122993 0 0.195026)
(-0.0208142 0 -0.726949)
(-0.0488473 0 -0.423827)
(0.0045298 0 -1.22989)
(0.00761323 0 -1.05923)
(0.014304 0 -1.47223)
(0.0100277 0 -1.41353)
(0.0380729 0 -1.57777)
(0.0259269 0 -1.54549)
(0.0374941 0 -1.66381)
(0.0403197 0 -1.62441)
(0.0401393 0 -1.73555)
(0.0446254 0 -1.71149)
(0.0538914 0 -1.76516)
(0.0475549 0 -1.76702)
(0.0248501 0 -1.77491)
(0.027045 0 -1.75001)
(0.0163498 0 -1.78245)
(0.0188729 0 -1.77901)
(0.021994 0 -1.78284)
(0.0167498 0 -1.78617)
(0.0409612 0 -1.78804)
(0.0310765 0 -1.79517)
(0.0703686 0 -1.79622)
(0.0524179 0 -1.8122)
(0.0879607 0 -1.7923)
(0.0666399 0 -1.81201)
(0.0605439 0 -1.76909)
(0.0648498 0 -1.76526)
(0.0448008 0 -1.73915)
(0.0465862 0 -1.74447)
(0.0275644 0 -1.69824)
(0.0335727 0 -1.71693)
(0.0330075 0 -1.71154)
(0.0332915 0 -1.69834)
(0.00818 0 -1.76249)
(0.0269354 0 -1.73457)
(-0.0212189 0 -1.7675)
(-0.00459373 0 -1.75753)
(-0.0355799 0 -1.74069)
(-0.0289538 0 -1.74806)
(-0.0405666 0 -1.69702)
(-0.0401027 0 -1.71675)
(-0.0443211 0 -1.63154)
(-0.046685 0 -1.67053)
(-0.0444702 0 -1.52304)
(-0.0507373 0 -1.59424)
(-0.0327552 0 -1.38244)
(-0.0445259 0 -1.46572)
(-0.00635739 0 -1.20471)
(-0.0278255 0 -1.32801)
(0.0416158 0 -0.972585)
(0.00483711 0 -1.1404)
(0.0971016 0 -0.709011)
(0.0536245 0 -0.895286)
(0.153164 0 -0.442641)
(0.108358 0 -0.627767)
(0.205433 0 -0.196557)
(0.162225 0 -0.365679)
(0.250833 0 0.0128043)
(0.211257 0 -0.130151)
(0.287362 0 0.176288)
(0.25277 0 0.064803)
(0.314361 0 0.292418)
(0.285297 0 0.212907)
(0.332442 0 0.365956)
(0.308694 0 0.315154)
(0.343095 0 0.405309)
(0.32392 0 0.377698)
(0.348191 0 0.419956)
(0.332587 0 0.409325)
(0.349574 0 0.418586)
(0.336507 0 0.419142)
(0.348834 0 0.407871)
(0.337323 0 0.415068)
(0.347312 0 0.389787)
(0.336324 0 0.402454)
(0.346639 0 0.339989)
(0.335364 0 0.379101)
(0.337575 0 0.294136)
(-0.204144 0 0.45706)
(-0.203692 0 0.466613)
(-0.200283 0 0.434428)
(-0.199968 0 0.445385)
(-0.196641 0 0.422945)
(-0.195796 0 0.420919)
(-0.193746 0 0.441847)
(-0.192689 0 0.422793)
(-0.191019 0 0.488308)
(-0.190229 0 0.45912)
(-0.188486 0 0.545496)
(-0.187905 0 0.515998)
(-0.185896 0 0.588148)
(-0.186325 0 0.573676)
(-0.176777 0 0.558275)
(-0.183823 0 0.599012)
(-0.14577 0 0.344661)
(-0.168629 0 0.504166)
(-0.0854448 0 -0.135164)
(-0.120618 0 0.154809)
(-0.0207077 0 -0.755637)
(-0.0480867 0 -0.466985)
(0.0127972 0 -1.24048)
(0.00340292 0 -1.08156)
(0.0264229 0 -1.48013)
(0.0101236 0 -1.42262)
(0.0256441 0 -1.5892)
(0.0193239 0 -1.54497)
(0.0459826 0 -1.67173)
(0.0356723 0 -1.63797)
(0.0448648 0 -1.73892)
(0.0505037 0 -1.71074)
(0.0269655 0 -1.75716)
(0.0368706 0 -1.75508)
(0.0251289 0 -1.7632)
(0.0245134 0 -1.74878)
(0.0180272 0 -1.78445)
(0.0188602 0 -1.77427)
(0.0268657 0 -1.79618)
(0.0162255 0 -1.79206)
(0.0428108 0 -1.81064)
(0.0273032 0 -1.80818)
(0.0514605 0 -1.81672)
(0.0382129 0 -1.8196)
(0.0463046 0 -1.78447)
(0.0396991 0 -1.80738)
(0.0481194 0 -1.74229)
(0.0380527 0 -1.76696)
(0.0388665 0 -1.72179)
(0.0391205 0 -1.73533)
(0.0341023 0 -1.70568)
(0.03678 0 -1.712)
(0.0325681 0 -1.70951)
(0.0374213 0 -1.69667)
(0.0126894 0 -1.73104)
(0.0303448 0 -1.7119)
(-0.013705 0 -1.73807)
(0.00682726 0 -1.72596)
(-0.0336275 0 -1.72276)
(-0.0178097 0 -1.72306)
(-0.0455106 0 -1.68761)
(-0.0349416 0 -1.70112)
(-0.0527063 0 -1.62941)
(-0.0462819 0 -1.6606)
(-0.0529886 0 -1.53494)
(-0.0527348 0 -1.59383)
(-0.0357337 0 -1.41024)
(-0.0480391 0 -1.49193)
(-0.0171784 0 -1.25798)
(-0.0339368 0 -1.35757)
(0.0185882 0 -1.05449)
(-0.0106876 0 -1.20018)
(0.0665273 0 -0.805526)
(0.0299075 0 -0.979325)
(0.118897 0 -0.543097)
(0.0808203 0 -0.724068)
(0.169264 0 -0.292599)
(0.131988 0 -0.462833)
(0.214086 0 -0.0727318)
(0.179039 0 -0.22084)
(0.251286 0 0.105511)
(0.219693 0 -0.0141521)
(0.279953 0 0.238466)
(0.252553 0 0.149087)
(0.300301 0 0.32862)
(0.277207 0 0.267634)
(0.313404 0 0.38259)
(0.294208 0 0.345598)
(0.320802 0 0.408835)
(0.304785 0 0.390317)
(0.324113 0 0.415737)
(0.310469 0 0.410218)
(0.324792 0 0.409956)
(0.312759 0 0.413148)
(0.324154 0 0.392683)
(0.312853 0 0.404347)
(0.323808 0 0.334062)
(0.312324 0 0.380175)
(0.315076 0 0.283271)
(-0.199459 0 0.454957)
(-0.199301 0 0.464937)
(-0.195478 0 0.431896)
(-0.195393 0 0.44273)
(-0.191869 0 0.420786)
(-0.191244 0 0.418514)
(-0.189171 0 0.440077)
(-0.188272 0 0.420995)
(-0.186996 0 0.486808)
(-0.186164 0 0.45767)
(-0.18554 0 0.54416)
(-0.184659 0 0.515026)
(-0.184121 0 0.584498)
(-0.184393 0 0.57273)
(-0.17528 0 0.544832)
(-0.182819 0 0.593118)
(-0.143598 0 0.314319)
(-0.166968 0 0.483045)
(-0.0842478 0 -0.176536)
(-0.11819 0 0.115242)
(-0.0232554 0 -0.789184)
(-0.0476965 0 -0.507647)
(-0.00022161 0 -1.25849)
(-0.00674183 0 -1.09692)
(0.00882758 0 -1.48799)
(0.00140888 0 -1.42865)
(0.0211752 0 -1.59835)
(0.0261785 0 -1.5532)
(0.045977 0 -1.67932)
(0.0489779 0 -1.65451)
(0.0455077 0 -1.73126)
(0.0536196 0 -1.71043)
(0.028234 0 -1.74657)
(0.0346859 0 -1.74357)
(0.0230872 0 -1.75553)
(0.0218002 0 -1.74535)
(0.015803 0 -1.78216)
(0.0172223 0 -1.76942)
(0.0179577 0 -1.80791)
(0.0148363 0 -1.7935)
(0.0241538 0 -1.82413)
(0.0198833 0 -1.81324)
(0.0262391 0 -1.82074)
(0.0234013 0 -1.82139)
(0.0267852 0 -1.78897)
(0.0235851 0 -1.80787)
(0.0327513 0 -1.75016)
(0.0278306 0 -1.77258)
(0.0368183 0 -1.72254)
(0.0364463 0 -1.73935)
(0.0382669 0 -1.70407)
(0.0423572 0 -1.7135)
(0.0380202 0 -1.69992)
(0.0457706 0 -1.69641)
(0.0237552 0 -1.7071)
(0.0411546 0 -1.69564)
(0.00178654 0 -1.71048)
(0.0242997 0 -1.69969)
(-0.0192496 0 -1.70017)
(0.00269352 0 -1.69668)
(-0.0352589 0 -1.6721)
(-0.016345 0 -1.68005)
(-0.0460554 0 -1.62237)
(-0.0306094 0 -1.6457)
(-0.0498498 0 -1.54352)
(-0.0396576 0 -1.58834)
(-0.0440969 0 -1.43331)
(-0.040448 0 -1.50067)
(-0.0268837 0 -1.29764)
(-0.0305339 0 -1.385)
(0.000709629 0 -1.12208)
(-0.0129822 0 -1.24629)
(0.0467087 0 -0.89414)
(0.019639 0 -1.05996)
(0.0959524 0 -0.637603)
(0.0657494 0 -0.81462)
(0.143248 0 -0.384633)
(0.11312 0 -0.554063)
(0.185699 0 -0.156608)
(0.156411 0 -0.306733)
(0.221658 0 0.03396)
(0.19405 0 -0.0904724)
(0.250211 0 0.181638)
(0.22518 0 0.0855168)
(0.271303 0 0.286973)
(0.249314 0 0.218378)
(0.28564 0 0.354888)
(0.266659 0 0.310477)
(0.294427 0 0.392722)
(0.278068 0 0.367736)
(0.29905 0 0.408348)
(0.284767 0 0.397756)
(0.300853 0 0.408106)
(0.288072 0 0.408052)
(0.301176 0 0.392099)
(0.289156 0 0.403388)
(0.301687 0 0.327648)
(0.289424 0 0.378586)
(0.29191 0 0.273524)
(-0.195183 0 0.452726)
(-0.195273 0 0.463084)
(-0.191162 0 0.429364)
(-0.191267 0 0.44005)
(-0.187666 0 0.418737)
(-0.187202 0 0.416182)
(-0.185261 0 0.438596)
(-0.184434 0 0.419391)
(-0.183723 0 0.485883)
(-0.182767 0 0.456644)
(-0.183347 0 0.543575)
(-0.182125 0 0.514776)
(-0.182985 0 0.581301)
(-0.183057 0 0.572489)
(-0.174246 0 0.531254)
(-0.182172 0 0.587292)
(-0.14187 0 0.283749)
(-0.16557 0 0.461461)
(-0.0817601 0 -0.215981)
(-0.115172 0 0.0751688)
(-0.0287096 0 -0.816828)
(-0.0455501 0 -0.543014)
(-0.00812034 0 -1.27222)
(-0.00814251 0 -1.11065)
(0.0208187 0 -1.5005)
(0.0135815 0 -1.44794)
(0.0539737 0 -1.60986)
(0.0486041 0 -1.5753)
(0.0561188 0 -1.68234)
(0.0647053 0 -1.65594)
(0.0448905 0 -1.72236)
(0.0510308 0 -1.70294)
(0.0250583 0 -1.73956)
(0.027706 0 -1.73035)
(0.0190902 0 -1.75461)
(0.015093 0 -1.74137)
(0.0152785 0 -1.78014)
(0.0138678 0 -1.76688)
(0.0171674 0 -1.8049)
(0.0155782 0 -1.79476)
(0.0197525 0 -1.81783)
(0.0201837 0 -1.81535)
(0.0203714 0 -1.81455)
(0.0229869 0 -1.82192)
(0.0229269 0 -1.79212)
(0.0250785 0 -1.81017)
(0.0324053 0 -1.76011)
(0.032014 0 -1.78151)
(0.0427545 0 -1.72966)
(0.0434195 0 -1.74957)
(0.0491814 0 -1.70569)
(0.0533206 0 -1.72016)
(0.0503207 0 -1.69249)
(0.059069 0 -1.69764)
(0.0414338 0 -1.68866)
(0.0574508 0 -1.68551)
(0.0246354 0 -1.68599)
(0.0462858 0 -1.6796)
(0.00537813 0 -1.67624)
(0.029032 0 -1.67252)
(-0.0116725 0 -1.65286)
(0.0110565 0 -1.65761)
(-0.0241725 0 -1.61034)
(-0.00379739 0 -1.62844)
(-0.0304995 0 -1.54358)
(-0.0133411 0 -1.57918)
(-0.0274459 0 -1.44911)
(-0.015815 0 -1.5053)
(-0.0144013 0 -1.32872)
(-0.00987324 0 -1.40578)
(0.00490586 0 -1.17655)
(0.00377502 0 -1.27856)
(0.0403897 0 -0.972386)
(0.0289577 0 -1.12217)
(0.0856733 0 -0.724195)
(0.0674414 0 -0.897891)
(0.128068 0 -0.469319)
(0.107539 0 -0.635838)
(0.165865 0 -0.234761)
(0.143317 0 -0.383209)
(0.198294 0 -0.0341875)
(0.174983 0 -0.159301)
(0.224712 0 0.12586)
(0.20205 0 0.0267014)
(0.244877 0 0.244447)
(0.223815 0 0.171287)
(0.259153 0 0.325015)
(0.240057 0 0.275504)
(0.2684 0 0.373778)
(0.251207 0 0.343976)
(0.273732 0 0.397957)