/*--------------------------------*- C++ -*----------------------------------*\
  =========                 |
  \\      /  F ield         | OpenFOAM: The Open Source CFD Toolbox
   \\    /   O peration     | Website:  https://openfoam.org
    \\  /    A nd           | Version:  9
     \\/     M anipulation  |
\*---------------------------------------------------------------------------*/
FoamFile
{
    format      ascii;
    class       volScalarField;
    location    "0.14";
    object      alpha.water;
}
// * * * * * * * * * * * * * * * * * * * * * * * * * * * * * * * * * * * * * //

dimensions      [0 0 0 0 0 0 0];

internalField   nonuniform List<scalar> 
20000
(
4.78473e-319
4.56378e-319
4.35351e-319
4.15331e-319
3.96251e-319
3.78079e-319
3.60747e-319
3.44225e-319
3.28435e-319
3.13277e-319
2.98653e-319
2.84434e-319
2.7054e-319
2.56973e-319
2.43792e-319
2.31144e-319
2.19118e-319
2.07774e-319
1.97093e-319
1.87033e-319
1.77528e-319
1.68526e-319
1.59978e-319
1.51994e-319
1.45334e-319
1.43694e-319
1.51322e-319
1.31333e-319
1.19979e-319
1.1407e-319
9.37341e-320
9.43863e-320
9.50582e-320
9.57697e-320
9.63329e-320
9.65602e-320
9.65207e-320
9.64811e-320
9.65207e-320
9.65404e-320
9.64416e-320
9.62341e-320
9.60464e-320
9.59377e-320
9.58883e-320
9.58883e-320
9.5908e-320
9.59377e-320
9.59871e-320
9.60365e-320
9.60859e-320
9.61254e-320
9.61254e-320
9.60661e-320
9.59673e-320
9.58586e-320
9.57499e-320
9.56709e-320
9.55918e-320
9.55523e-320
9.55325e-320
9.55622e-320
9.56511e-320
9.5908e-320
9.65207e-320
9.74792e-320
9.80523e-320
9.74495e-320
9.64811e-320
9.58784e-320
1.17024e-319
1.22647e-319
1.28615e-319
1.3491e-319
1.4154e-319
1.48526e-319
1.55868e-319
1.63585e-319
1.71698e-319
1.80215e-319
1.89178e-319
1.98595e-319
2.08476e-319
2.18871e-319
2.2979e-319
2.41262e-319
2.53317e-319
2.65995e-319
2.79305e-319
2.93297e-319
3.08001e-319
3.23425e-319
3.39621e-319
3.56626e-319
3.74462e-319
3.93197e-319
4.12841e-319
4.33454e-319
4.55094e-319
4.77821e-319
4.78532e-319
4.56447e-319
4.3541e-319
4.15391e-319
3.9631e-319
3.78138e-319
3.60806e-319
3.44285e-319
3.28484e-319
3.13327e-319
2.98702e-319
2.84493e-319
2.7061e-319
2.57052e-319
2.43891e-319
2.31262e-319
2.19247e-319
2.07893e-319
1.97211e-319
1.87132e-319
1.77607e-319
1.68595e-319
1.60018e-319
1.52014e-319
1.45443e-319
1.43892e-319
1.50542e-319
1.31441e-319
1.19979e-319
1.1405e-319
9.37144e-320
9.43665e-320
9.50483e-320
9.57598e-320
9.6323e-320
9.65602e-320
9.65207e-320
9.64811e-320
9.65207e-320
9.65404e-320
9.64416e-320
9.6244e-320
9.60464e-320
9.59377e-320
9.58883e-320
9.58883e-320
9.5908e-320
9.59377e-320
9.59871e-320
9.60365e-320
9.60859e-320
9.61254e-320
9.61254e-320
9.60661e-320
9.59673e-320
9.58586e-320
9.57499e-320
9.56709e-320
9.55918e-320
9.55523e-320
9.55325e-320
9.55523e-320
9.56511e-320
9.5908e-320
9.65108e-320
9.7489e-320
9.80621e-320
9.74495e-320
9.64811e-320
9.58883e-320
1.17034e-319
1.22647e-319
1.28615e-319
1.3491e-319
1.4154e-319
1.48516e-319
1.55868e-319
1.63575e-319
1.71688e-319
1.80215e-319
1.89168e-319
1.98575e-319
2.08456e-319
2.18851e-319
2.2976e-319
2.41242e-319
2.53298e-319
2.65965e-319
2.79285e-319
2.93267e-319
3.07961e-319
3.23396e-319
3.39581e-319
3.56597e-319
3.74433e-319
3.93158e-319
4.12792e-319
4.33414e-319
4.55044e-319
4.77761e-319
4.78631e-319
4.56536e-319
4.35499e-319
4.1547e-319
3.96379e-319
3.78207e-319
3.60885e-319
3.44354e-319
3.28554e-319
3.13396e-319
2.98771e-319
2.84562e-319
2.70708e-319
2.57161e-319
2.44009e-319
2.31381e-319
2.19365e-319
2.08002e-319
1.9731e-319
1.87211e-319
1.77676e-319
1.68634e-319
1.60038e-319
1.52034e-319
1.45552e-319
1.44129e-319
1.49662e-319
1.31619e-319
1.20018e-319
1.14001e-319
9.36748e-320
9.43468e-320
9.50385e-320
9.57499e-320
9.6323e-320
9.65602e-320
9.65207e-320
9.64811e-320
9.65207e-320
9.65503e-320
9.64416e-320
9.6244e-320
9.60464e-320
9.59278e-320
9.58883e-320
9.58784e-320
9.5908e-320
9.59278e-320
9.59871e-320
9.60266e-320
9.60859e-320
9.61254e-320
9.61254e-320
9.60661e-320
9.59673e-320
9.58685e-320
9.57499e-320
9.56709e-320
9.55918e-320
9.55523e-320
9.55325e-320
9.55523e-320
9.56412e-320
9.58981e-320
9.65108e-320
9.7489e-320
9.80621e-320
9.74693e-320
9.65009e-320
9.58883e-320
1.17034e-319
1.22647e-319
1.28615e-319
1.3491e-319
1.4154e-319
1.48516e-319
1.55858e-319
1.63575e-319
1.71678e-319
1.80196e-319
1.89148e-319
1.98555e-319
2.08446e-319
2.18832e-319
2.2975e-319
2.41223e-319
2.53278e-319
2.65946e-319
2.79266e-319
2.93238e-319
3.07941e-319
3.23366e-319
3.39561e-319
3.56557e-319
3.74403e-319
3.93118e-319
4.12762e-319
4.33375e-319
4.55015e-319
4.77722e-319
4.7875e-319
4.56635e-319
4.35588e-319
4.15549e-319
3.96468e-319
3.78286e-319
3.60964e-319
3.44423e-319
3.28633e-319
3.13475e-319
2.9885e-319
2.84651e-319
2.70807e-319
2.5727e-319
2.44147e-319
2.31509e-319
2.19484e-319
2.0811e-319
1.97389e-319
1.8729e-319
1.77725e-319
1.68674e-319
1.60058e-319
1.52034e-319
1.45651e-319
1.44386e-319
1.48773e-319
1.31836e-319
1.20068e-319
1.13951e-319
9.36551e-320
9.4327e-320
9.50385e-320
9.57499e-320
9.63329e-320
9.65602e-320
9.65207e-320
9.64811e-320
9.65207e-320
9.65503e-320
9.64416e-320
9.6244e-320
9.60464e-320
9.59278e-320
9.58883e-320
9.58784e-320
9.58981e-320
9.59278e-320
9.59772e-320
9.60266e-320
9.60859e-320
9.61254e-320
9.61254e-320
9.60661e-320
9.59772e-320
9.58685e-320
9.57499e-320
9.56709e-320
9.55918e-320
9.55523e-320
9.55325e-320
9.55424e-320
9.56313e-320
9.58883e-320
9.65207e-320
9.74989e-320
9.8072e-320
9.74792e-320
9.65009e-320
9.58883e-320
1.17034e-319
1.22647e-319
1.28615e-319
1.349e-319
1.4154e-319
1.48516e-319
1.55848e-319
1.63575e-319
1.71678e-319
1.80196e-319
1.89148e-319
1.98555e-319
2.08436e-319
2.18822e-319
2.29741e-319
2.41203e-319
2.53258e-319
2.65926e-319
2.79246e-319
2.93238e-319
3.07921e-319
3.23356e-319
3.39552e-319
3.56557e-319
3.74383e-319
3.93108e-319
4.12742e-319
4.33355e-319
4.54995e-319
4.77702e-319
4.78848e-319
4.56734e-319
4.35687e-319
4.15648e-319
3.96557e-319
3.78375e-319
3.61043e-319
3.44502e-319
3.28712e-319
3.13544e-319
2.98929e-319
2.8474e-319
2.70906e-319
2.57388e-319
2.44266e-319
2.31638e-319
2.19602e-319
2.08199e-319
1.97429e-319
1.87271e-319
1.77706e-319
1.68654e-319
1.60038e-319
1.52014e-319
1.45749e-319
1.44623e-319
1.47963e-319
1.32024e-319
1.20127e-319
1.13912e-319
9.36254e-320
9.4327e-320
9.50286e-320
9.57598e-320
9.63428e-320
9.65602e-320
9.65207e-320
9.64811e-320
9.65305e-320
9.65602e-320
9.64416e-320
9.6244e-320
9.60464e-320
9.59278e-320
9.58784e-320
9.58685e-320
9.58981e-320
9.59278e-320
9.59772e-320
9.60266e-320
9.60859e-320
9.61254e-320
9.61254e-320
9.6076e-320
9.59772e-320
9.58685e-320
9.57499e-320
9.56709e-320
9.55918e-320
9.55424e-320
9.55227e-320
9.55325e-320
9.56313e-320
9.58883e-320
9.65207e-320
9.75088e-320
9.80819e-320
9.74989e-320
9.65207e-320
9.58883e-320
1.17024e-319
1.22647e-319
1.28605e-319
1.349e-319
1.4154e-319
1.48516e-319
1.55848e-319
1.63565e-319
1.71678e-319
1.80196e-319
1.89148e-319
1.98545e-319
2.08427e-319
2.18812e-319
2.29731e-319
2.41203e-319
2.53258e-319
2.65926e-319
2.79236e-319
2.93218e-319
3.07921e-319
3.23346e-319
3.39542e-319
3.56547e-319
3.74383e-319
3.93108e-319
4.12742e-319
4.33355e-319
4.54985e-319
4.77692e-319
4.78967e-319
4.56843e-319
4.35786e-319
4.15746e-319
3.96646e-319
3.78454e-319
3.61122e-319
3.44591e-319
3.28791e-319
3.13623e-319
2.99009e-319
2.84829e-319
2.71005e-319
2.57507e-319
2.44395e-319
2.31756e-319
2.19681e-319
2.08219e-319
1.97399e-319
1.87231e-319
1.77656e-319
1.68595e-319
1.59978e-319
1.51984e-319
1.45819e-319
1.44821e-319
1.47212e-319
1.32192e-319
1.20177e-319
1.13852e-319
9.35958e-320
9.43073e-320
9.50286e-320
9.57697e-320
9.63527e-320
9.65701e-320
9.65207e-320
9.64811e-320
9.65305e-320
9.65602e-320
9.64416e-320
9.6244e-320
9.60464e-320
9.59278e-320
9.58784e-320
9.58685e-320
9.58883e-320
9.59278e-320
9.59772e-320
9.60266e-320
9.60859e-320
9.61254e-320
9.61254e-320
9.6076e-320
9.59772e-320
9.58685e-320
9.57499e-320
9.5661e-320
9.55918e-320
9.55325e-320
9.55128e-320
9.55325e-320
9.56116e-320
9.58883e-320
9.65207e-320
9.75286e-320
9.81017e-320
9.75088e-320
9.65207e-320
9.58883e-320
1.17015e-319
1.22637e-319
1.28605e-319
1.349e-319
1.4153e-319
1.48516e-319
1.55848e-319
1.63555e-319
1.71668e-319
1.80186e-319
1.89138e-319
1.98535e-319
2.08427e-319
2.18812e-319
2.29721e-319
2.41203e-319
2.53258e-319
2.65926e-319
2.79236e-319
2.93228e-319
3.07921e-319
3.23356e-319
3.39561e-319
3.56557e-319
3.74403e-319
3.93118e-319
4.12762e-319
4.33375e-319
4.54995e-319
4.77702e-319
4.79076e-319
4.56942e-319
4.35884e-319
4.15825e-319
3.96735e-319
3.78553e-319
3.61211e-319
3.4467e-319
3.2887e-319
3.13702e-319
2.99088e-319
2.84918e-319
2.71104e-319
2.57626e-319
2.44523e-319
2.31875e-319
2.19751e-319
2.08219e-319
1.97389e-319
1.87201e-319
1.77607e-319
1.68536e-319
1.59919e-319
1.51935e-319
1.45888e-319
1.44979e-319
1.4652e-319
1.32311e-319
1.20236e-319
1.13793e-319
9.35662e-320
9.43073e-320
9.50385e-320
9.57796e-320
9.63626e-320
9.658e-320
9.65305e-320
9.64811e-320
9.65404e-320
9.65602e-320
9.64515e-320
9.6244e-320
9.60464e-320
9.59278e-320
9.58685e-320
9.58685e-320
9.58883e-320
9.59278e-320
9.59772e-320
9.60266e-320
9.60859e-320
9.61353e-320
9.61353e-320
9.60859e-320
9.59871e-320
9.58685e-320
9.57499e-320
9.5661e-320
9.55918e-320
9.55325e-320
9.55128e-320
9.55227e-320
9.56116e-320
9.58784e-320
9.65305e-320
9.75384e-320
9.81116e-320
9.75286e-320
9.65404e-320
9.58883e-320
1.17015e-319
1.22627e-319
1.28595e-319
1.349e-319
1.4153e-319
1.48506e-319
1.55848e-319
1.63555e-319
1.71668e-319
1.80186e-319
1.89138e-319
1.98535e-319
2.08417e-319
2.18812e-319
2.29721e-319
2.41203e-319
2.53258e-319
2.65926e-319
2.79246e-319
2.93238e-319
3.07941e-319
3.23376e-319
3.39581e-319
3.56577e-319
3.74423e-319
3.93138e-319
4.12782e-319
4.33394e-319
4.55015e-319
4.77722e-319
4.79175e-319
4.5703e-319
4.35964e-319
4.15914e-319
3.96814e-319
3.78632e-319
3.6129e-319
3.44749e-319
3.28939e-319
3.13771e-319
2.99167e-319
2.84997e-319
2.71203e-319
2.57734e-319
2.44642e-319
2.31954e-319
2.1978e-319
2.08239e-319
1.97379e-319
1.87172e-319
1.77567e-319
1.68476e-319
1.5984e-319
1.51876e-319
1.45967e-319
1.45117e-319
1.45868e-319
1.324e-319
1.20275e-319
1.13724e-319
9.35365e-320
9.42875e-320
9.50385e-320
9.57894e-320
9.63823e-320
9.65898e-320
9.65404e-320
9.6491e-320
9.65404e-320
9.65602e-320
9.64614e-320
9.6244e-320
9.60464e-320
9.59179e-320
9.58685e-320
9.58685e-320
9.58883e-320
9.59278e-320
9.59673e-320
9.60266e-320
9.60859e-320
9.61353e-320
9.61452e-320
9.60859e-320
9.59871e-320
9.58685e-320
9.57499e-320
9.5661e-320
9.55819e-320
9.55325e-320
9.55029e-320
9.55128e-320
9.55918e-320
9.58685e-320
9.65404e-320
9.75582e-320
9.81214e-320
9.75483e-320
9.65503e-320
9.58883e-320
1.17015e-319
1.22627e-319
1.28595e-319
1.349e-319
1.4152e-319
1.48506e-319
1.55848e-319
1.63555e-319
1.71668e-319
1.80186e-319
1.89138e-319
1.98535e-319
2.08427e-319
2.18812e-319
2.29731e-319
2.41203e-319
2.53258e-319
2.65946e-319
2.79266e-319
2.93258e-319
3.07961e-319
3.23396e-319
3.39601e-319
3.56617e-319
3.74462e-319
3.93177e-319
4.12821e-319
4.33434e-319
4.55054e-319
4.77761e-319
4.79263e-319
4.57119e-319
4.36052e-319
4.15993e-319
3.96893e-319
3.78711e-319
3.6136e-319
3.44818e-319
3.29008e-319
3.1385e-319
2.99246e-319
2.85076e-319
2.71301e-319
2.57843e-319
2.4476e-319
2.32043e-319
2.1982e-319
2.08259e-319
1.97389e-319
1.87162e-319
1.77528e-319
1.68417e-319
1.59761e-319
1.51816e-319
1.46026e-319
1.45196e-319
1.45275e-319
1.32449e-319
1.20315e-319
1.13655e-319
9.3497e-320
9.42875e-320
9.50385e-320
9.58092e-320
9.64021e-320
9.65997e-320
9.65404e-320
9.65009e-320
9.65404e-320
9.65701e-320
9.64614e-320
9.6244e-320
9.60464e-320
9.5908e-320
9.58685e-320
9.58586e-320
9.58883e-320
9.59278e-320
9.59673e-320
9.60266e-320
9.60958e-320
9.61452e-320
9.61452e-320
9.60859e-320
9.59871e-320
9.58685e-320
9.57499e-320
9.56511e-320
9.55819e-320
9.55227e-320
9.5493e-320
9.55029e-320
9.55918e-320
9.58685e-320
9.65602e-320
9.7578e-320
9.81412e-320
9.75681e-320
9.65602e-320
9.58883e-320
1.17015e-319
1.22627e-319
1.28595e-319
1.3489e-319
1.4152e-319
1.48496e-319
1.55848e-319
1.63555e-319
1.71668e-319
1.80186e-319
1.89138e-319
1.98545e-319
2.08436e-319
2.18822e-319
2.29741e-319
2.41223e-319
2.53278e-319
2.65956e-319
2.79285e-319
2.93277e-319
3.07981e-319
3.23435e-319
3.3964e-319
3.56656e-319
3.74502e-319
3.93237e-319
4.12881e-319
4.33493e-319
4.55114e-319
4.77821e-319
4.79342e-319
4.57189e-319
4.36122e-319
4.16063e-319
3.96972e-319
3.7877e-319
3.61439e-319
3.44897e-319
3.29077e-319
3.13919e-319
2.99305e-319
2.85155e-319
2.7138e-319
2.57942e-319
2.44849e-319
2.32112e-319
2.19879e-319
2.08298e-319
1.97389e-319
1.87152e-319
1.77498e-319
1.68358e-319
1.59672e-319
1.51747e-319
1.46085e-319
1.45255e-319
1.44702e-319
1.32459e-319
1.20354e-319
1.13596e-319
9.34673e-320
9.42677e-320
9.50582e-320
9.5829e-320
9.64219e-320
9.66195e-320
9.65602e-320
9.65009e-320
9.65404e-320
9.658e-320
9.64614e-320
9.6244e-320
9.60365e-320
9.5908e-320
9.58586e-320
9.58487e-320
9.58784e-320
9.59179e-320
9.59673e-320
9.60266e-320
9.60958e-320
9.61452e-320
9.61452e-320
9.60859e-320
9.59871e-320
9.58685e-320
9.57499e-320
9.56511e-320
9.55721e-320
9.55128e-320
9.5493e-320
9.5493e-320
9.55819e-320
9.58685e-320
9.65602e-320
9.75977e-320
9.8161e-320
9.75977e-320
9.658e-320
9.58883e-320
1.17005e-319
1.22617e-319
1.28586e-319
1.3488e-319
1.4152e-319
1.48496e-319
1.55848e-319
1.63555e-319
1.71678e-319
1.80196e-319
1.89148e-319
1.98555e-319
2.08436e-319
2.18832e-319
2.2975e-319
2.41232e-319
2.53298e-319
2.65985e-319
2.79305e-319
2.93317e-319
3.0802e-319
3.23475e-319
3.3969e-319
3.56706e-319
3.74561e-319
3.93296e-319
4.1294e-319
4.33562e-319
4.55193e-319
4.779e-319
4.79402e-319
4.57258e-319
4.36181e-319
4.16122e-319
3.97031e-319
3.7883e-319
3.61498e-319
3.44957e-319
3.29147e-319
3.13979e-319
2.99374e-319
2.85234e-319
2.71469e-319
2.58041e-319
2.44938e-319
2.32181e-319
2.19938e-319
2.08338e-319
1.97409e-319
1.87152e-319
1.77468e-319
1.68299e-319
1.59583e-319
1.51668e-319
1.46135e-319
1.45255e-319
1.44158e-319
1.32419e-319
1.20394e-319
1.13526e-319
9.34377e-320
9.42677e-320
9.50582e-320
9.58487e-320
9.64416e-320
9.66392e-320
9.65602e-320
9.65009e-320
9.65503e-320
9.658e-320
9.64614e-320
9.6244e-320
9.60365e-320
9.5908e-320
9.58487e-320
9.58487e-320
9.58784e-320
9.59179e-320
9.59673e-320
9.60266e-320
9.60958e-320
9.61452e-320
9.61452e-320
9.60859e-320
9.59871e-320
9.58685e-320
9.57499e-320
9.56511e-320
9.55721e-320
9.55128e-320
9.54831e-320
9.5493e-320
9.55721e-320
9.58685e-320
9.658e-320
9.76274e-320
9.81807e-320
9.76274e-320
9.65997e-320
9.58883e-320
1.16995e-319
1.22607e-319
1.28586e-319
1.3488e-319
1.4152e-319
1.48506e-319
1.55848e-319
1.63565e-319
1.71678e-319
1.80196e-319
1.89148e-319
1.98565e-319
2.08456e-319
2.18851e-319
2.2977e-319
2.41252e-319
2.53317e-319
2.66005e-319
2.79345e-319
2.93356e-319
3.0807e-319
3.23524e-319
3.39749e-319
3.56775e-319
3.7464e-319
3.93375e-319
4.13029e-319
4.33651e-319
4.55281e-319
4.77999e-319
4.79451e-319
4.57307e-319
4.3624e-319
4.16181e-319
3.97081e-319
3.78889e-319
3.61547e-319
3.45006e-319
3.29196e-319
3.14028e-319
2.99433e-319
2.85293e-319
2.71548e-319
2.58139e-319
2.45017e-319
2.3225e-319
2.19998e-319
2.08387e-319
1.97448e-319
1.87152e-319
1.77449e-319
1.68249e-319
1.59504e-319
1.51599e-319
1.46184e-319
1.45236e-319
1.43655e-319
1.3234e-319
1.20414e-319
1.13467e-319
9.33982e-320
9.42677e-320
9.5078e-320
9.58685e-320
9.64614e-320
9.66491e-320
9.65701e-320
9.65108e-320
9.65602e-320
9.658e-320
9.64614e-320
9.6244e-320
9.60266e-320
9.58981e-320
9.58487e-320
9.58487e-320
9.58685e-320
9.5908e-320
9.59673e-320
9.60266e-320
9.61056e-320
9.61452e-320
9.61452e-320
9.60958e-320
9.59871e-320
9.58685e-320
9.57499e-320
9.56511e-320
9.55721e-320
9.55128e-320
9.54732e-320
9.54732e-320
9.55622e-320
9.58685e-320
9.65997e-320
9.76471e-320
9.82005e-320
9.76471e-320
9.66195e-320
9.58981e-320
1.16995e-319
1.22607e-319
1.28576e-319
1.3488e-319
1.4152e-319
1.48506e-319
1.55848e-319
1.63575e-319
1.71678e-319
1.80206e-319
1.89168e-319
1.98575e-319
2.08466e-319
2.18871e-319
2.298e-319
2.41282e-319
2.53357e-319
2.66044e-319
2.79384e-319
2.93406e-319
3.08129e-319
3.23593e-319
3.39818e-319
3.56854e-319
3.74719e-319
3.93464e-319
4.13118e-319
4.3375e-319
4.5539e-319
4.78117e-319
4.79481e-319
4.57337e-319
4.3627e-319
4.16221e-319
3.9712e-319
3.78929e-319
3.61597e-319
3.45055e-319
3.29245e-319
3.14087e-319
2.99483e-319
2.85353e-319
2.71618e-319
2.58218e-319
2.45116e-319
2.32339e-319
2.20077e-319
2.08446e-319
1.97488e-319
1.87172e-319
1.77449e-319
1.6821e-319
1.59445e-319
1.5155e-319
1.46224e-319
1.45156e-319
1.4316e-319
1.32212e-319
1.20433e-319
1.13418e-319
9.33784e-320
9.42578e-320
9.50978e-320
9.58883e-320
9.64811e-320
9.6659e-320
9.658e-320
9.65207e-320
9.65602e-320
9.65898e-320
9.64713e-320
9.6244e-320
9.60266e-320
9.58883e-320
9.58389e-320
9.58389e-320
9.58685e-320
9.5908e-320
9.59673e-320
9.60266e-320
9.61056e-320
9.61452e-320
9.61551e-320
9.61056e-320
9.5997e-320
9.58685e-320
9.57499e-320
9.56511e-320
9.55721e-320
9.55029e-320
9.54732e-320
9.54732e-320
9.55523e-320
9.58685e-320
9.66195e-320
9.76669e-320
9.82301e-320
9.76669e-320
9.66392e-320
9.58981e-320
1.16995e-319
1.22607e-319
1.28576e-319
1.3488e-319
1.4152e-319
1.48516e-319
1.55848e-319
1.63575e-319
1.71698e-319
1.80215e-319
1.89178e-319
1.98595e-319
2.08486e-319
2.18891e-319
2.2982e-319
2.41312e-319
2.53396e-319
2.66094e-319
2.79444e-319
2.93455e-319
3.08198e-319
3.23662e-319
3.39897e-319
3.56933e-319
3.74818e-319
3.93573e-319
4.13237e-319
4.33869e-319
4.55529e-319
4.78256e-319
4.79501e-319
4.57357e-319
4.3629e-319
4.1624e-319
3.9715e-319
3.78958e-319
3.61617e-319
3.45085e-319
3.29275e-319
3.14127e-319
2.99522e-319
2.85412e-319
2.71677e-319
2.58298e-319
2.45195e-319
2.32428e-319
2.20166e-319
2.08515e-319
1.97527e-319
1.87192e-319
1.77439e-319
1.6818e-319
1.59386e-319
1.5152e-319
1.46263e-319
1.45068e-319
1.42686e-319
1.32064e-319
1.20443e-319
1.13378e-319
9.33389e-320
9.42578e-320
9.51076e-320
9.59179e-320
9.65009e-320
9.66788e-320
9.65997e-320
9.65207e-320
9.65602e-320
9.65997e-320
9.64811e-320
9.6244e-320
9.60266e-320
9.58883e-320
9.5829e-320
9.5829e-320
9.58685e-320
9.5908e-320
9.59673e-320
9.60266e-320
9.61056e-320
9.61551e-320
9.61649e-320
9.61056e-320
9.5997e-320
9.58685e-320
9.57499e-320
9.56511e-320
9.55622e-320
9.55029e-320
9.54634e-320
9.54634e-320
9.55523e-320
9.58685e-320
9.66294e-320
9.76965e-320
9.82598e-320
9.76965e-320
9.66491e-320
9.5908e-320
1.16985e-319
1.22597e-319
1.28576e-319
1.3488e-319
1.4152e-319
1.48516e-319
1.55868e-319
1.63585e-319
1.71698e-319
1.80235e-319
1.89188e-319
1.98614e-319
2.08515e-319
2.18911e-319
2.29849e-319
2.41351e-319
2.53436e-319
2.66143e-319
2.79493e-319
2.93524e-319
3.08267e-319
3.23741e-319
3.39996e-319
3.57032e-319
3.74917e-319
3.93691e-319
4.13365e-319
4.34007e-319
4.55667e-319
4.78414e-319
4.79491e-319
4.57357e-319
4.36299e-319
4.1625e-319
3.9716e-319
3.78978e-319
3.61646e-319
3.45115e-319
3.29305e-319
3.14147e-319
2.99562e-319
2.85451e-319
2.71736e-319
2.58357e-319
2.45284e-319
2.32527e-319
2.20254e-319
2.08595e-319
1.97587e-319
1.87231e-319
1.77449e-319
1.6815e-319
1.59326e-319
1.515e-319
1.46313e-319
1.44949e-319
1.42222e-319
1.31886e-319
1.20453e-319
1.13358e-319
9.33191e-320
9.42677e-320
9.51274e-320
9.59475e-320
9.65207e-320
9.66985e-320
9.65997e-320
9.65305e-320
9.65701e-320
9.65997e-320
9.64811e-320
9.6244e-320
9.60266e-320
9.58883e-320
9.5829e-320
9.5829e-320
9.58586e-320
9.5908e-320
9.59673e-320
9.60266e-320
9.61056e-320
9.61649e-320
9.61649e-320
9.61056e-320
9.60068e-320
9.58685e-320
9.57499e-320
9.56511e-320
9.55622e-320
9.5493e-320
9.54535e-320
9.54535e-320
9.55325e-320
9.58685e-320
9.66491e-320
9.77262e-320
9.82795e-320
9.77262e-320
9.66689e-320
9.5908e-320
1.16985e-319
1.22597e-319
1.28576e-319
1.3488e-319
1.4153e-319
1.48516e-319
1.55868e-319
1.63595e-319
1.71717e-319
1.80255e-319
1.89207e-319
1.98634e-319
2.08535e-319
2.1895e-319
2.29889e-319
2.41391e-319
2.53485e-319
2.66203e-319
2.79562e-319
2.93594e-319
3.08346e-319
3.2383e-319
3.40095e-319
3.5715e-319
3.75045e-319
3.9381e-319
4.13503e-319
4.34165e-319
4.55835e-319
4.78592e-319
4.79471e-319
4.57347e-319
4.3628e-319
4.1624e-319
3.9716e-319
3.78988e-319
3.61656e-319
3.45115e-319
3.29324e-319
3.14166e-319
2.99582e-319
2.85491e-319
2.71776e-319
2.58416e-319
2.45373e-319
2.32626e-319
2.20353e-319
2.08674e-319
1.97646e-319
1.87271e-319
1.77458e-319
1.6814e-319
1.59307e-319
1.515e-319
1.46362e-319
1.44821e-319
1.41777e-319
1.31678e-319
1.20453e-319
1.13339e-319
9.32994e-320
9.42677e-320
9.51472e-320
9.59673e-320
9.65503e-320
9.67183e-320
9.66195e-320
9.65404e-320
9.658e-320
9.65997e-320
9.64811e-320
9.6244e-320
9.60167e-320
9.58685e-320
9.58191e-320
9.5829e-320
9.58487e-320
9.5908e-320
9.59673e-320
9.60266e-320
9.61056e-320
9.61649e-320
9.61649e-320
9.61155e-320
9.60068e-320
9.58784e-320
9.57499e-320
9.56511e-320
9.55523e-320
9.5493e-320
9.54535e-320
9.54436e-320
9.55325e-320
9.58685e-320
9.66689e-320
9.77558e-320
9.83092e-320
9.77459e-320
9.66886e-320
9.5908e-320
1.16985e-319
1.22588e-319
1.28576e-319
1.3489e-319
1.4154e-319
1.48526e-319
1.55888e-319
1.63615e-319
1.71737e-319
1.80275e-319
1.89237e-319
1.98664e-319
2.08575e-319
2.1898e-319
2.29928e-319
2.4144e-319
2.53535e-319
2.66262e-319
2.79631e-319
2.93683e-319
3.08435e-319
3.23929e-319
3.40204e-319
3.57269e-319
3.75174e-319
3.93958e-319
4.13661e-319
4.34323e-319
4.56013e-319
4.78789e-319
4.79422e-319
4.57307e-319
4.3626e-319
4.16221e-319
3.9715e-319
3.78968e-319
3.61656e-319
3.45115e-319
3.29324e-319
3.14176e-319
2.99601e-319
2.85511e-319
2.71815e-319
2.58475e-319
2.45452e-319
2.32744e-319
2.20462e-319
2.08772e-319
1.97725e-319
1.8731e-319
1.77488e-319
1.68131e-319
1.59287e-319
1.5151e-319
1.46402e-319
1.44662e-319
1.41352e-319
1.31471e-319
1.20453e-319
1.13319e-319
9.32895e-320
9.42677e-320
9.51768e-320
9.5997e-320
9.658e-320
9.67381e-320
9.66195e-320
9.65404e-320
9.658e-320
9.66096e-320
9.64811e-320
9.6244e-320
9.60068e-320
9.58685e-320
9.58092e-320
9.58191e-320
9.58487e-320
9.58981e-320
9.59574e-320
9.60266e-320
9.61056e-320
9.61649e-320
9.61748e-320
9.61155e-320
9.60068e-320
9.58784e-320
9.57499e-320
9.56412e-320
9.55523e-320
9.5493e-320
9.54436e-320
9.54337e-320
9.55325e-320
9.58784e-320
9.66886e-320
9.77855e-320
9.83388e-320
9.77855e-320
9.67084e-320
9.5908e-320
1.16975e-319
1.22588e-319
1.28576e-319
1.349e-319
1.4154e-319
1.48536e-319
1.55888e-319
1.63625e-319
1.71757e-319
1.80294e-319
1.89267e-319
1.98693e-319
2.08604e-319
2.19029e-319
2.29978e-319
2.41499e-319
2.53604e-319
2.66331e-319
2.7971e-319
2.93771e-319
3.08534e-319
3.24048e-319
3.40322e-319
3.57407e-319
3.75322e-319
3.94116e-319
4.13829e-319
4.34511e-319
4.5621e-319
4.78997e-319
4.79352e-319
4.57248e-319
4.36201e-319
4.16181e-319
3.9711e-319
3.78948e-319
3.61636e-319
3.45115e-319
3.29315e-319
3.14176e-319
2.99601e-319
2.8553e-319
2.71835e-319
2.58515e-319
2.45531e-319
2.32843e-319
2.20571e-319
2.08871e-319
1.97794e-319
1.87369e-319
1.77508e-319
1.6814e-319
1.59267e-319
1.5154e-319
1.46441e-319
1.44514e-319
1.40937e-319
1.31253e-319
1.20453e-319
1.13319e-319
9.32796e-320
9.42776e-320
9.51966e-320
9.60266e-320
9.65997e-320
9.67578e-320
9.66392e-320
9.65503e-320
9.65898e-320
9.66195e-320
9.64811e-320
9.6244e-320
9.60068e-320
9.58685e-320
9.58092e-320
9.58092e-320
9.58487e-320
9.58883e-320
9.59574e-320
9.60266e-320
9.61056e-320
9.61649e-320
9.61847e-320
9.61254e-320
9.60068e-320
9.58784e-320
9.57499e-320
9.56412e-320
9.55523e-320
9.54831e-320
9.54337e-320
9.54337e-320
9.55227e-320
9.58883e-320
9.67084e-320
9.78151e-320
9.83685e-320
9.78151e-320
9.67183e-320
9.5908e-320
1.16955e-319
1.22588e-319
1.28576e-319
1.349e-319
1.4155e-319
1.48556e-319
1.55907e-319
1.63644e-319
1.71777e-319
1.80314e-319
1.89286e-319
1.98733e-319
2.08644e-319
2.19069e-319
2.30027e-319
2.41559e-319
2.53673e-319
2.664e-319
2.79799e-319
2.9387e-319
3.08653e-319
3.24166e-319
3.40451e-319
3.57545e-319
3.7548e-319
3.94284e-319
4.14007e-319
4.34709e-319
4.56418e-319
4.79224e-319
4.79254e-319
4.57159e-319
4.36132e-319
4.16122e-319
3.97071e-319
3.78909e-319
3.61597e-319
3.45085e-319
3.29295e-319
3.14166e-319
2.99601e-319
2.8553e-319
2.71855e-319
2.58535e-319
2.4557e-319
2.32932e-319
2.20689e-319
2.0897e-319
1.97883e-319
1.87429e-319
1.77547e-319
1.6814e-319
1.59277e-319
1.51579e-319
1.4649e-319
1.44346e-319
1.40532e-319
1.31026e-319
1.20453e-319
1.13329e-319
9.32697e-320
9.42875e-320
9.52163e-320
9.60562e-320
9.66195e-320
9.67677e-320
9.66392e-320
9.65602e-320
9.65997e-320
9.66195e-320
9.6491e-320
9.6244e-320
9.60068e-320
9.58487e-320
9.57993e-320
9.58092e-320
9.58389e-320
9.58883e-320
9.59475e-320
9.60266e-320
9.61155e-320
9.61748e-320
9.61847e-320
9.61254e-320
9.60167e-320
9.58883e-320
9.57499e-320
9.56412e-320
9.55523e-320
9.54831e-320
9.54337e-320
9.54238e-320
9.55128e-320
9.58883e-320
9.67381e-320
9.78448e-320
9.83981e-320
9.78448e-320
9.67381e-320
9.58883e-320
1.16935e-319
1.22568e-319
1.28576e-319
1.349e-319
1.4156e-319
1.48566e-319
1.55927e-319
1.63664e-319
1.71797e-319
1.80344e-319
1.89326e-319
1.98763e-319
2.08683e-319
2.19118e-319
2.30086e-319
2.41618e-319
2.53742e-319
2.66489e-319
2.79888e-319
2.93969e-319
3.08761e-319
3.24295e-319
3.40599e-319
3.57704e-319
3.75648e-319
3.94462e-319
4.14205e-319
4.34916e-319
4.56655e-319
4.79481e-319
4.79125e-319
4.5705e-319
4.36043e-319
4.16043e-319
3.96992e-319
3.7885e-319
3.61557e-319
3.45036e-319
3.29265e-319
3.14137e-319
2.99582e-319
2.85521e-319
2.71855e-319
2.58554e-319
2.4559e-319
2.33011e-319
2.20808e-319
2.09079e-319
1.97972e-319
1.87498e-319
1.77587e-319
1.6817e-319
1.59287e-319
1.51619e-319
1.4654e-319
1.44178e-319
1.40137e-319
1.30809e-319
1.20453e-319
1.13339e-319
9.32598e-320
9.42974e-320
9.52361e-320
9.60859e-320
9.6659e-320
9.67875e-320
9.6659e-320
9.65602e-320
9.65997e-320
9.66195e-320
9.65009e-320
9.6244e-320
9.5997e-320
9.58487e-320
9.57894e-320
9.57993e-320
9.5829e-320
9.58883e-320
9.59475e-320
9.60266e-320
9.61155e-320
9.61847e-320
9.61847e-320
9.61353e-320
9.60266e-320
9.58883e-320
9.57499e-320
9.56412e-320
9.55523e-320
9.54732e-320
9.54337e-320
9.5414e-320
9.55128e-320
9.58883e-320
9.67578e-320
9.78843e-320
9.84376e-320
9.78744e-320
9.67479e-320
9.58883e-320
1.16916e-319
1.22528e-319
1.28546e-319
1.3489e-319
1.4156e-319
1.48575e-319
1.55947e-319
1.63694e-319
1.71826e-319
1.80373e-319
1.89365e-319
1.98812e-319
2.08733e-319
2.19168e-319
2.30146e-319
2.41687e-319
2.53821e-319
2.66578e-319
2.79997e-319
2.94088e-319
3.0889e-319
3.24433e-319
3.40747e-319
3.57872e-319
3.75826e-319
3.9467e-319
4.14432e-319
4.35163e-319
4.56912e-319
4.79718e-319
4.78967e-319
4.56912e-319
4.35914e-319
4.15934e-319
3.96903e-319
3.7877e-319
3.61478e-319
3.44986e-319
3.29206e-319
3.14097e-319
2.99552e-319
2.85491e-319
2.71855e-319
2.58564e-319
2.4561e-319
2.33041e-319
2.20887e-319
2.09187e-319
1.98071e-319
1.87567e-319
1.77646e-319
1.682e-319
1.59326e-319
1.51688e-319
1.46579e-319
1.4399e-319
1.39742e-319
1.30591e-319
1.20443e-319
1.13358e-319
9.32598e-320
9.43073e-320
9.52559e-320
9.61155e-320
9.66788e-320
9.68072e-320
9.66689e-320
9.65701e-320
9.65997e-320
9.66294e-320
9.65009e-320
9.6244e-320
9.59871e-320
9.58389e-320
9.57894e-320
9.57894e-320
9.5829e-320
9.58883e-320
9.59475e-320
9.60266e-320
9.61254e-320
9.61847e-320
9.62045e-320
9.61452e-320
9.60266e-320
9.58883e-320
9.57499e-320
9.56412e-320
9.55523e-320
9.54732e-320
9.54238e-320
9.5414e-320
9.55128e-320
9.58981e-320
9.67776e-320
9.79139e-320
9.84772e-320
9.7904e-320
9.67578e-320
9.58883e-320
1.16896e-319
1.22509e-319
1.28516e-319
1.3486e-319
1.4153e-319
1.48556e-319
1.55927e-319
1.63694e-319
1.71836e-319
1.80403e-319
1.89405e-319
1.98852e-319
2.08792e-319
2.19227e-319
2.30215e-319
2.41766e-319
2.5391e-319
2.66677e-319
2.80096e-319
2.94206e-319
3.09028e-319
3.24571e-319
3.40876e-319
3.5799e-319
3.75935e-319
3.94758e-319
4.14511e-319
4.35232e-319
4.56991e-319
4.79817e-319
4.78779e-319
4.56734e-319
4.35766e-319
4.15806e-319
3.96794e-319
3.78672e-319
3.61399e-319
3.44907e-319
3.29147e-319
3.14038e-319
2.99503e-319
2.85461e-319
2.71835e-319
2.58554e-319
2.4561e-319
2.33041e-319
2.20907e-319
2.09276e-319
1.9818e-319
1.87656e-319
1.77706e-319
1.68239e-319
1.59366e-319
1.51767e-319
1.46639e-319
1.43823e-319
1.39366e-319
1.30374e-319
1.20433e-319
1.13378e-319
9.32697e-320
9.43171e-320
9.52855e-320
9.61452e-320
9.66985e-320
9.68171e-320
9.66788e-320
9.658e-320
9.66096e-320
9.66392e-320
9.65009e-320
9.6244e-320
9.59871e-320
9.5829e-320
9.57697e-320
9.57894e-320
9.5829e-320
9.58784e-320
9.59475e-320
9.60266e-320
9.61254e-320
9.61847e-320
9.62045e-320
9.61452e-320
9.60266e-320
9.58883e-320
9.57499e-320
9.56412e-320
9.55523e-320
9.54732e-320
9.5414e-320
9.54041e-320
9.55029e-320
9.5908e-320
9.67973e-320
9.79436e-320
9.85167e-320
9.79337e-320
9.67776e-320
9.58784e-320
1.16866e-319
1.22479e-319
1.28487e-319
1.34821e-319
1.415e-319
1.48516e-319
1.55888e-319
1.63654e-319
1.71797e-319
1.80354e-319
1.89346e-319
1.98802e-319
2.08743e-319
2.19187e-319
2.30175e-319
2.41717e-319
2.53861e-319
2.66618e-319
2.80027e-319
2.94107e-319
3.0891e-319
3.24423e-319
3.40727e-319
3.57812e-319
3.75747e-319
3.94541e-319
4.14274e-319
4.34975e-319
4.56685e-319
4.79422e-319
4.78552e-319
4.56536e-319
4.35588e-319
4.15648e-319
3.96656e-319
3.78553e-319
3.6129e-319
3.44818e-319
3.29067e-319
3.13969e-319
2.99443e-319
2.85412e-319
2.71795e-319
2.58525e-319
2.456e-319
2.33041e-319
2.20907e-319
2.09286e-319
1.98229e-319
1.87745e-319
1.77775e-319
1.68299e-319
1.59425e-319
1.51866e-319
1.46708e-319
1.43655e-319
1.3901e-319
1.30176e-319
1.20443e-319
1.13408e-319
9.32796e-320
9.4327e-320
9.53151e-320
9.61649e-320
9.67282e-320
9.68369e-320
9.66886e-320
9.658e-320
9.66195e-320
9.66392e-320
9.65009e-320
9.6244e-320
9.59871e-320
9.58191e-320
9.57697e-320
9.57697e-320
9.58191e-320
9.58685e-320
9.59475e-320
9.60266e-320
9.61254e-320
9.61946e-320
9.62045e-320
9.61452e-320
9.60365e-320
9.58883e-320
9.57598e-320
9.56412e-320
9.55523e-320
9.54732e-320
9.5414e-320
9.53942e-320
9.5493e-320
9.5908e-320
9.6827e-320
9.79831e-320
9.85562e-320
9.79633e-320
9.67875e-320
9.58685e-320
1.16837e-319
1.22449e-319
1.28457e-319
1.34801e-319
1.41461e-319
1.48477e-319
1.55858e-319