/*--------------------------------*- C++ -*----------------------------------*\
  =========                 |
  \\      /  F ield         | OpenFOAM: The Open Source CFD Toolbox
   \\    /   O peration     | Website:  https://openfoam.org
    \\  /    A nd           | Version:  9
     \\/     M anipulation  |
\*---------------------------------------------------------------------------*/
FoamFile
{
    format      ascii;
    class       volScalarField;
    location    "0.14";
    object      p;
}
// * * * * * * * * * * * * * * * * * * * * * * * * * * * * * * * * * * * * * //

dimensions      [1 -1 -2 0 0 0 0];

internalField   nonuniform List<scalar> 
20000
(
2.68861
2.68847
2.68829
2.68809
2.68786
2.68758
2.68725
2.68687
2.68644
2.68598
2.6855
2.685
2.68438
2.68333
2.68143
2.67824
2.67358
2.66751
2.66025
2.65206
2.64318
2.63395
2.62507
2.61859
2.61527
2.6352
2.51017
2.63998
2.61248
2.6176
2.62805
2.64332
2.65746
2.66895
2.67639
2.67994
2.6812
2.68178
2.68234
2.68249
2.68174
2.68021
2.67854
2.67734
2.67676
2.67672
2.67703
2.67754
2.67818
2.67887
2.6795
2.67987
2.67979
2.67918
2.6781
2.67677
2.67542
2.6742
2.67326
2.67272
2.67271
2.67347
2.67539
2.6791
2.68456
2.68875
2.6891
2.68818
2.68343
2.67765
2.67413
2.67234
2.67148
2.67119
2.6713
2.67169
2.67227
2.67299
2.67381
2.6747
2.67565
2.67663
2.67764
2.67866
2.67967
2.68067
2.68165
2.68258
2.68346
2.68428
2.68503
2.68571
2.6863
2.68682
2.68727
2.68765
2.68796
2.68822
2.68843
2.68859
2.68659
2.6863
2.68599
2.68564
2.68526
2.68483
2.68435
2.68379
2.68314
2.68238
2.6815
2.68045
2.6792
2.67766
2.6757
2.67315
2.66988
2.66581
2.66097
2.65549
2.6496
2.64363
2.63803
2.63343
2.62136
2.63311
2.56764
2.63626
2.61735
2.63461
2.63968
2.65
2.66005
2.66856
2.67472
2.67872
2.6812
2.68271
2.68362
2.684
2.68389
2.68339
2.68273
2.68222
2.682
2.68208
2.68242
2.68291
2.68349
2.68407
2.68455
2.68483
2.68481
2.68447
2.68383
2.68302
2.68216
2.68139
2.68082
2.68058
2.6808
2.68165
2.68329
2.68577
2.68864
2.69034
2.68996
2.6894
2.68688
2.68341
2.68074
2.67894
2.67777
2.67708
2.67676
2.6767
2.67685
2.67714
2.67754
2.67803
2.67857
2.67916
2.67978
2.6804
2.68103
2.68165
2.68224
2.68281
2.68334
2.68383
2.68428
2.68468
2.68504
2.68536
2.68564
2.6859
2.68612
2.68632
2.68649
2.68664
2.68458
2.68424
2.68387
2.68348
2.68305
2.68259
2.68206
2.68148
2.68081
2.68005
2.67918
2.67817
2.67698
2.67554
2.67374
2.6715
2.66873
2.66541
2.66156
2.65727
2.65265
2.64782
2.64296
2.63997
2.62753
2.64624
2.59589
2.64927
2.62378
2.64213
2.64451
2.65385
2.66209
2.66928
2.67477
2.67865
2.68132
2.68313
2.68435
2.68506
2.68533
2.68526
2.68505
2.6849
2.68495
2.6852
2.68562
2.68616
2.68675
2.68733
2.68782
2.68812
2.68819
2.688
2.68758
2.68701
2.68639
2.68584
2.68545
2.68533
2.68558
2.68629
2.68755
2.68929
2.69125
2.69239
2.69193
2.69134
2.68915
2.68628
2.68399
2.68232
2.68108
2.68023
2.67968
2.67936
2.67924
2.67925
2.67938
2.67959
2.67987
2.68018
2.68053
2.6809
2.68127
2.68165
2.68201
2.68235
2.68268
2.68298
2.68325
2.6835
2.68372
2.68392
2.68409
2.68424
2.68438
2.68449
2.68459
2.68468
2.6826
2.68225
2.68188
2.68148
2.68105
2.68059
2.68008
2.67952
2.6789
2.67821
2.67743
2.67654
2.67549
2.67422
2.67266
2.67071
2.66834
2.66552
2.6623
2.65873
2.65492
2.65093
2.64668
2.6459
2.63456
2.65503
2.61751
2.6571
2.63155
2.64834
2.64815
2.65723
2.66424
2.67061
2.6756
2.67923
2.68185
2.68378
2.68523
2.68623
2.68679
2.68701
2.6871
2.68724
2.68752
2.68794
2.68849
2.68911
2.68976
2.69038
2.69092
2.69129
2.69146
2.69139
2.69112
2.69071
2.69025
2.68985
2.68956
2.68949
2.6897
2.69024
2.69117
2.69245
2.69394
2.69487
2.69438
2.69364
2.69143
2.68876
2.68664
2.68502
2.68375
2.68278
2.68206
2.68154
2.68119
2.68097
2.68086
2.68083
2.68087
2.68095
2.68107
2.68121
2.68137
2.68153
2.68169
2.68185
2.682
2.68214
2.68226
2.68237
2.68246
2.68254
2.6826
2.68265
2.68269
2.68272
2.68274
2.68275
2.68064
2.6803
2.67993
2.67954
2.67913
2.67868
2.6782
2.67768
2.6771
2.67646
2.67575
2.67494
2.674
2.67289
2.67156
2.66996
2.66804
2.6658
2.66326
2.66047
2.65755
2.65463
2.65116
2.65214
2.64167
2.65961
2.63419
2.66115
2.63966
2.65489
2.65263
2.66106
2.66664
2.67221
2.67668
2.68012
2.68277
2.68484
2.68647
2.68769
2.68854
2.6891
2.68952
2.68995
2.69045
2.69105
2.69173
2.69245
2.69317
2.69385
2.69444
2.69489
2.69515
2.69522
2.69511
2.69487
2.69458
2.69432
2.69413
2.6941
2.69426
2.69467
2.69533
2.69618
2.69712
2.69765
2.69704
2.69622
2.69418
2.69177
2.68975
2.68811
2.68675
2.68562
2.68471
2.68398
2.68339
2.68293
2.68257
2.68229
2.68207
2.68191
2.68179
2.68169
2.68162
2.68157
2.68152
2.68149
2.68145
2.68141
2.68137
2.68132
2.68127
2.68121
2.68115
2.68109
2.68103
2.68096
2.6809
2.68083
2.67869
2.67836
2.67802
2.67766
2.67727
2.67686
2.67641
2.67593
2.67541
2.67483
2.67419
2.67348
2.67266
2.67172
2.67063
2.66936
2.66787
2.66618
2.66428
2.66223
2.66012
2.6582
2.65534
2.6573
2.64805
2.66278
2.64558
2.66408
2.64707
2.66056
2.65725
2.66494
2.66918
2.67401
2.67799
2.68127
2.68397
2.68617
2.68796
2.68939
2.6905
2.69138
2.69213
2.69285
2.69358
2.69436
2.69517
2.69599
2.6968
2.69755
2.69821
2.69874
2.69911
2.69931
2.69936
2.69929
2.69916
2.69902
2.69893
2.69893
2.69905
2.69933
2.69975
2.70022
2.70063
2.70072
2.69994
2.69908
2.69722
2.69504
2.69306
2.69137
2.68988
2.68858
2.68746
2.6865
2.68567
2.68496
2.68434
2.6838
2.68334
2.68293
2.68256
2.68223
2.68193
2.68166
2.6814
2.68117
2.68094
2.68072
2.68051
2.68031
2.68011
2.67993
2.67974
2.67957
2.6794
2.67923
2.67907
2.67891
2.67675
2.67646
2.67615
2.67583
2.67549
2.67513
2.67474
2.67432
2.67387
2.67338
2.67284
2.67225
2.67158
2.67083
2.66997
2.66898
2.66785
2.66658
2.66519
2.66371
2.6622
2.661
2.65856
2.66099
2.65327
2.66528
2.65322
2.66641
2.6532
2.66481
2.66131
2.66846
2.6717
2.67601
2.67958
2.68269
2.68538
2.68766
2.6896
2.69121
2.69255
2.69371
2.69473
2.6957
2.69665
2.69761
2.69857
2.69951
2.70042
2.70126
2.70201
2.70263
2.7031
2.70343
2.70362
2.70369
2.70369
2.70366
2.70363
2.70365
2.70373
2.70387
2.70408
2.70424
2.70425
2.70402
2.7031
2.70214
2.70034
2.69824
2.69625
2.69448
2.69286
2.69139
2.69007
2.68888
2.68782
2.68686
2.686
2.68522
2.68451
2.68386
2.68326
2.68271
2.68219
2.68171
2.68126
2.68083
2.68042
2.68004
2.67967
2.67932
2.67898
2.67866
2.67835
2.67806
2.67778
2.67751
2.67726
2.677
2.67481
2.67457
2.67431
2.67405
2.67377
2.67347
2.67315
2.67281
2.67245
2.67206
2.67164
2.67118
2.67067
2.6701
2.66945
2.66871
2.66788
2.66695
2.66594
2.66489
2.66379
2.66312
2.66105
2.66359
2.65734
2.66706
2.65868
2.66811
2.65812
2.66798
2.66481
2.67155
2.67414
2.6781
2.68135
2.68431
2.68696
2.6893
2.69135
2.69312
2.69467
2.69604
2.6973
2.6985
2.69965
2.70079
2.7019
2.70297
2.704
2.70494
2.70579
2.70651
2.7071
2.70754
2.70785
2.70804
2.70815
2.7082
2.70822
2.70823
2.70826
2.70828
2.7083
2.70823
2.70796
2.7075
2.70647
2.70537
2.70352
2.70139
2.69932
2.69744
2.69568
2.69404
2.69252
2.69112
2.68983
2.68864
2.68755
2.68653
2.68559
2.68471
2.68389
2.68312
2.6824
2.68172
2.68108
2.68047
2.67989
2.67934
2.67882
2.67832
2.67785
2.6774
2.67697
2.67656
2.67617
2.6758
2.67544
2.67509
2.67287
2.67269
2.67249
2.67229
2.67208
2.67185
2.67161
2.67136
2.67109
2.6708
2.6705
2.67016
2.6698
2.6694
2.66894
2.66843
2.66785
2.66721
2.66652
2.66582
2.66506
2.66479
2.66311
2.66556
2.66058
2.6683
2.6628
2.66938
2.66215
2.67055
2.668
2.67431
2.67649
2.68022
2.68322
2.68607
2.68868
2.69106
2.69321
2.69513
2.69685
2.69843
2.6999
2.7013
2.70265
2.70396
2.70523
2.70644
2.70759
2.70866
2.70961
2.71044
2.71114
2.71169
2.71211
2.71241
2.71261
2.71273
2.71278
2.71279
2.71276
2.71268
2.71254
2.71227
2.71179
2.71113
2.70999
2.70874
2.7068
2.70458
2.70239
2.70038
2.69846
2.69664
2.69492
2.6933
2.69179
2.69037
2.68905
2.6878
2.68663
2.68553
2.6845
2.68352
2.68259
2.68172
2.68089
2.6801
2.67936
2.67865
2.67797
2.67733
2.67672
2.67614
2.67559
2.67506
2.67456
2.67408
2.67363
2.67318
2.67094
2.67081
2.67068
2.67055
2.6704
2.67025
2.67009
2.66993
2.66975
2.66956
2.66936
2.66915
2.66893
2.66868
2.6684
2.66809
2.66773
2.66735
2.66695
2.66656
2.6661
2.66616
2.66487
2.66711
2.66328
2.66932
2.66605
2.67048
2.66559
2.67277
2.67097
2.67683
2.67877
2.68233
2.68514
2.68791
2.6905
2.69293
2.69518
2.69723
2.69912
2.70088
2.70255
2.70415
2.70569
2.70717
2.7086
2.70996
2.71124
2.71243
2.7135
2.71445
2.71525
2.71592
2.71645
2.71685
2.71713
2.7173
2.71739
2.71739
2.71732
2.71714
2.71686
2.71642
2.71575
2.71491
2.71364
2.71224
2.7102
2.70785
2.70551
2.70335
2.70126
2.69924
2.69731
2.69548
2.69374
2.6921
2.69054
2.68906
2.68767
2.68635
2.6851
2.68391
2.68278
2.68172
2.6807
2.67974
2.67882
2.67795
2.67713
2.67634
2.67559
2.67488
2.6742
2.67356
2.67294
2.67236
2.6718
2.67125
2.66901
2.66894
2.66888
2.66881
2.66874
2.66866
2.66858
2.6685
2.66841
2.66832
2.66823
2.66813
2.66803
2.66793
2.66781
2.66767
2.66753
2.66738
2.66722
2.66711
2.66693
2.66726
2.66637
2.66839
2.66561
2.67033
2.66874
2.67161
2.66862
2.67475
2.67372
2.67915
2.68099
2.6844
2.68708
2.68981
2.6924
2.69489
2.69723
2.69941
2.70145
2.70339
2.70525
2.70704
2.70876
2.71042
2.712
2.71351
2.71494
2.71625
2.71745
2.71852
2.71944
2.72022
2.72085
2.72134
2.7217
2.72194
2.72205
2.72205
2.72193
2.72167
2.72127
2.72068
2.71984
2.71882
2.71742
2.71588
2.71371
2.71121
2.70871
2.70637
2.70409
2.70187
2.69972
2.69767
2.6957
2.69382
2.69203
2.69033
2.68871
2.68717
2.6857
2.6843
2.68298
2.68172
2.68052
2.67938
2.67829
2.67726
2.67628
2.67535
2.67446
2.67362
2.67282
2.67205
2.67133
2.67064
2.66998
2.66934
2.66708
2.66707
2.66707
2.66707
2.66707
2.66707
2.66707
2.66707
2.66707
2.66707
2.66708
2.6671
2.66711
2.66714
2.66716
2.6672
2.66724
2.66729
2.66736
2.6675
2.66758
2.66813
2.66766
2.66951
2.6677
2.67149
2.6711
2.6729
2.67135
2.67657
2.67628
2.68129
2.68312
2.68643
2.68904
2.69174
2.69436
2.69691
2.69934
2.70165
2.70384
2.70595
2.70799
2.70996
2.71186
2.71369
2.71544
2.71711
2.71868
2.72013
2.72146
2.72265
2.72369
2.72458
2.72531
2.7259
2.72633
2.72662
2.72676
2.72676
2.7266
2.72627
2.72576
2.72503
2.72404
2.72287
2.72134
2.71964
2.71733
2.71466
2.71196
2.70944
2.70695
2.70452
2.70215
2.69987
2.69767
2.69556
2.69353
2.6916
2.68975
2.68799
2.68631
2.6847
2.68317
2.68172
2.68033
2.67902
2.67776
2.67657
2.67544
2.67436
2.67333
2.67236
2.67143
2.67056
2.66972
2.66892
2.66817
2.66742
2.66514
2.6652
2.66526
2.66533
2.6654
2.66547
2.66554
2.66563
2.66571
2.66581
2.66591
2.66603
2.66616
2.6663
2.66646
2.66664
2.66685
2.66709
2.66737
2.66774
2.66806
2.66883
2.66878
2.67055
2.66963
2.67283
2.67328
2.67437
2.67387
2.6783
2.67865
2.68329
2.68518
2.68841
2.69099
2.6937
2.69635
2.69897
2.70151
2.70394
2.70628
2.70855
2.71076
2.71292
2.715
2.717
2.71892
2.72074
2.72246
2.72406
2.72552
2.72684
2.728
2.729
2.72984
2.73052
2.73103
2.73137
2.73154
2.73153
2.73134
2.73095
2.73034
2.72949
2.72836
2.72705
2.72539
2.72353
2.72107
2.71819
2.71529
2.71257
2.70987
2.70721
2.70461
2.70209
2.69966
2.69731
2.69505
2.69288
2.69081
2.68882
2.68692
2.68511
2.68338
2.68173
2.68016
2.67866
2.67724
2.67588
2.6746
2.67337
2.67221
2.67111
2.67006
2.66906
2.66811
2.66721
2.66635
2.66551
2.66321
2.66333
2.66345
2.66358
2.66371
2.66385
2.66401
2.66416
2.66433
2.66451
2.66471
2.66492
2.66515
2.66541
2.66569
2.66601
2.66637
2.66679
2.66727
2.66784
2.66842
2.66939
2.66976
2.67154
2.67144
2.67429
2.67532
2.67601
2.67623
2.68
2.68088
2.68517
2.68716
2.69034
2.69293
2.69567
2.69837
2.70107
2.70371
2.70627
2.70876
2.71119
2.71358
2.71591
2.71817
2.72035
2.72243
2.72442
2.72629
2.72804
2.72964
2.73109
2.73238
2.7335
2.73444
2.73521
2.7358
2.73619
2.73639
2.73639
2.73617
2.73572
2.73502
2.73407
2.73282
2.73136
2.72958
2.72755
2.72492
2.72183
2.71871
2.71577
2.71285
2.70996
2.70712
2.70436
2.70169
2.6991
2.6966
2.6942
2.69189
2.68968
2.68756
2.68554
2.6836
2.68176
2.68
2.67832
2.67673
2.67521
2.67377
2.67239
2.67109
2.66986
2.66868
2.66756
2.6665
2.6655
2.66454
2.66359
2.66127
2.66145
2.66163
2.66182
2.66202
2.66223
2.66245
2.66268
2.66293
2.66319
2.66347
2.66377
2.66409
2.66445
2.66485
2.6653
2.66581
2.66639
2.66705
2.66783
2.66865
2.66984
2.67061
2.67249
2.67312
2.67582
2.67724
2.67772
2.67844
2.68168
2.68296
2.68695
2.68906
2.69222
2.69484
2.69763
2.7004
2.70319
2.70595
2.70864
2.71127
2.71387
2.71643
2.71893
2.72137
2.72373
2.72599
2.72815
2.73018
2.73208
2.73383
2.73542
2.73683
2.73807
2.73913
2.73999
2.74065
2.7411
2.74134
2.74134
2.7411
2.7406
2.73983
2.73877
2.73741
2.73582
2.73391
2.73172
2.7289
2.72559
2.72223
2.71907
2.71591
2.71278
2.7097
2.70669
2.70377
2.70093
2.69819
2.69555
2.69301
2.69056
2.68823
2.68599
2.68385
2.6818
2.67985
2.67799
2.67623
2.67454
2.67294
2.67143
2.66998
2.66861
2.66731
2.66607
2.6649
2.66378
2.66273
2.66168
2.65934
2.65956
2.6598
2.66005
2.66031
2.66058
2.66087
2.66117
2.66149
2.66182
2.66218
2.66257
2.66298
2.66344
2.66394
2.66451
2.66515
2.66589
2.66672
2.6677
2.66876
2.67016
2.67133
2.67338
2.67463
2.67732
2.67901
2.67945
2.68049
2.68332
2.68491
2.68864
2.69088
2.69403
2.69671
2.69958
2.70243
2.70532
2.7082
2.71103
2.71382
2.71658
2.71931
2.722
2.72462
2.72716
2.7296
2.73192
2.73413
2.73619
2.73809
2.73982
2.74137
2.74273
2.7439
2.74486
2.7456
2.74612
2.74639
2.74641
2.74615
2.74561
2.74477
2.74362
2.74214
2.74043
2.73838
2.73602
2.73303
2.72948
2.72587
2.72247
2.71906
2.71568
2.71235
2.70909
2.70591
2.70282
2.69983
2.69694
2.69416
2.69149
2.68893
2.68647
2.68412
2.68187
2.67973
2.67769
2.67574
2.67389
2.67214
2.67047
2.66888
2.66737
2.66594
2.66459
2.6633
2.66207
2.66091
2.65977
2.6574
2.65768
2.65797
2.65827
2.65859
2.65892
2.65927
2.65964
2.66002
2.66043
2.66086
2.66132
2.66182
2.66236
2.66296
2.66364
2.66441
2.66529
2.66629
2.66746
2.66875
2.67038
2.67191
2.67417
2.67597
2.67872
2.68061
2.68112
2.68238
2.68491
2.68672
2.69025
2.69263
2.69579
2.69855
2.7015
2.70446
2.70747
2.71047
2.71344
2.71639
2.71931
2.72222
2.72509
2.7279
2.73062
2.73325
2.73575
2.73813
2.74035
2.74242
2.7443
2.74599
2.74748
2.74877
2.74983
2.75066
2.75124
2.75156
2.75159
2.75133
2.75076
2.74985
2.74862
2.74703
2.74519
2.74302
2.74049
2.7373
2.73351
2.72963
2.72598
2.72232
2.71868
2.71509
2.71156
2.70812
2.70478
2.70153
2.6984
2.69537
2.69247
2.68967
2.68699
2.68443
2.68198
2.67964
2.67741
2.67528
2.67326
2.67134
2.66952
2.66779
2.66614
2.66458
2.6631
2.66169
2.66036
2.65909
2.65785
2.65546
2.65579
2.65613
2.65649
2.65686
2.65725
2.65765
2.65808
2.65853
2.659
2.65949
2.66002
2.6606
2.66122
2.66191
2.66269
2.66358
2.66459
2.66575
2.6671
2.66862
2.67046
2.67235
2.67484
2.67712
2.67998
2.68204
2.68269
2.68411
2.68642
2.68838
2.69176
2.69428
2.69748
2.70035
2.7034
2.70647
2.70961
2.71276
2.71588
2.71898
2.72208
2.72517
2.72822
2.73122
2.73413
2.73694
2.73964
2.74219
2.74459
2.74682
2.74886
2.7507
2.75233
2.75374
2.75491
2.75583
2.75648
2.75685
2.75691
2.75665
2.75605
2.75509
2.75377
2.75209
2.75013
2.74782
2.74512
2.74173
2.73769
2.73354
2.72963
2.7257
2.72179
2.71793
2.71414
2.71043
2.70682
2.70331
2.69992
2.69665
2.6935
2.69047
2.68756
2.68478
2.68212
2.67958
2.67716
2.67485
2.67266
2.67057
2.66858
2.6667
2.66491
2.66321
2.6616
2.66008
2.65863
2.65726
2.65592
2.65352
2.6539
2.65428
2.65469
2.65511
2.65555
2.65602
2.6565
2.657
2.65753
2.65809
2.65868
2.65932
2.66002
2.66079
2.66166
2.66265
2.66379
2.66511
2.66663
2.66836
2.67042
2.67264
2.6754
2.6781
2.68109
2.68329
2.68414
2.68569
2.68784
2.68991
2.69319
2.69585
2.69911
2.7021
2.70527
2.70847
2.71175
2.71504
2.71832
2.72159
2.72486
2.72814
2.73138
2.73458
2.73769
2.74069
2.74358
2.74632
2.7489
2.7513
2.75351
2.7555
2.75727
2.75881
2.7601
2.76112
2.76185
2.76227
2.76237
2.76211
2.76149
2.76049
2.7591
2.75732
2.75524
2.75279
2.74992
2.74633
2.74203
2.7376
2.73342
2.72922
2.72504
2.72089
2.71682
2.71284
2.70895
2.70518
2.70153
2.698
2.6946
2.69133
2.68819
2.68519
2.68231
2.67957
2.67695
2.67445
2.67208
2.66982
2.66767
2.66562
2.66368
2.66184
2.66009
2.65844
2.65687
2.6554
2.65398
2.65158
2.652
2.65243
2.65288
2.65336
2.65385
2.65436
2.65489
2.65544
2.65603
2.65664
2.65729
2.65799
2.65876
2.6596
2.66056
2.66165
2.6629
2.66435
2.66604
2.66797
2.67026
2.67279
2.67585
2.67893
2.68207
2.68438
2.68546
2.68713
2.68916
2.6913
2.69452
2.69732
2.70067
2.7038
2.70711
2.71045
2.71387
2.71733
2.72077
2.72421
2.72767
2.73113
2.73458
2.73797
2.74128
2.74449
2.74757
2.75051
2.75328
2.75587
2.75824
2.7604
2.76232
2.764
2.76541
2.76654
2.76736
2.76784
2.76798
2.76774
2.76711
2.76606
2.7646
2.76274
2.76054
2.75796
2.75491
2.75112
2.74655
2.74183
2.73738
2.73289
2.72842
2.72399
2.71963
2.71536
2.7112
2.70715
2.70322
2.69943
2.69578
2.69226
2.68889
2.68565
2.68256
2.6796
2.67678
2.6741
2.67153
2.6691
2.66677
2.66457
2.66246
2.66046
2.65855
2.65672
2.65496
2.65325
2.65168
2.64964
2.6501
2.65057
2.65107
2.65158
2.65212
2.65268
2.65326
2.65386
2.6545
2.65516
2.65587
2.65662
2.65744
2.65835
2.65938
2.66056
2.66192
2.6635
2.66534
2.66747
2.66998
2.67282
2.67618
2.67961
2.6829
2.68532
2.68666
2.68844
2.69038
2.69257
2.69576
2.69871
2.70217
2.70546
2.70891
2.7124
2.71599
2.71961
2.72322
2.72685
2.73049
2.73415
2.7378
2.7414
2.74493
2.74834
2.75163
2.75477
2.75774
2.76052
2.76308
2.7654
2.76749
2.76931
2.77085
2.7721
2.77301
2.77357
2.77375
2.77354
2.7729
2.77182
2.77031
2.76835
2.76604
2.76334
2.76011
2.75612
2.75126
2.74625
2.74151
2.73673
2.73196
2.72724
2.72258
2.71802
2.71356
2.70923
2.70503
2.70097
2.69705
2.69328
2.68966
2.68619
2.68288
2.6797
2.67668
2.67379
2.67104
2.66842
2.66593
2.66355
2.66129
2.65913
2.65707
2.6551
2.6532
2.65132
2.64968
2.6477
2.64819
2.64871
2.64925
2.6498
2.65038
2.65099
2.65161
2.65226
2.65294
2.65365
2.6544
2.6552
2.65608
2.65705
2.65814
2.65939
2.66085
2.66255
2.66454
2.66685
2.66958
2.67273
2.6764
2.68017
2.6836
2.68611
2.68773
2.68963
2.6915
2.6937
2.6969
2.70002
2.7036
2.70706
2.71068
2.71433
2.71809
2.72188
2.72568
2.72949
2.73333
2.73719
2.74106
2.74487
2.74861
2.75225
2.75575
2.75911
2.76228
2.76526
2.76801
2.77051
2.77277
2.77475
2.77643
2.7778
2.77881
2.77946
2.7797
2.77952
2.77889
2.77779
2.77622
2.77418
2.77177
2.76893
2.76553
2.76132
2.75618
2.75087
2.74583
2.74075
2.73568
2.73064
2.72568
2.72082
2.71606
2.71144
2.70695
2.70261
2.69842
2.6944
2.69053
2.68682
2.68327
2.67987
2.67664
2.67355
2.67061
2.66781
2.66515
2.66261
2.6602
2.65791
2.65573
2.65367
2.65172
2.64982
2.64803
2.64576
2.64629
2.64684
2.64742
2.64802
2.64864
2.64928
2.64995
2.65064
2.65136
2.65211
2.65291
2.65375
2.65467
2.65569
2.65685
2.65818
2.65972
2.66153
2.66366
2.66614
2.66908
2.67252
2.67652
2.6806
2.68415
2.68675
2.68865
2.69067
2.69249
2.69472
2.69796
2.70124
2.70497
2.70861
2.7124
2.71623
2.72017
2.72414
2.72813
2.73213
2.73618
2.74025
2.74434
2.74838
2.75234
2.75621
2.75994
2.76351
2.7669
2.77009
2.77304
2.77574
2.77817
2.78031
2.78215
2.78365
2.78479
2.78553
2.78584
2.7857
2.78509
2.78397
2.78235
2.78024
2.77772
2.77476
2.77119
2.76676
2.76133
2.7557
2.75036
2.74497
2.73958
2.73423
2.72895
2.72377
2.71871
2.71378
2.709
2.70438
2.69991
2.69561
2.69148
2.68753
2.68374
2.68012
2.67667
2.67337
2.67024
2.66725
2.66441
2.66172
2.65915
2.65672
2.65441
2.65221
2.65013
2.64813
2.64621
2.64381
2.64438
2.64497
2.64558
2.64622
2.64688
2.64756
2.64827
2.649
2.64976
2.65055
2.65139
2.65228
2.65324
2.65431
2.65552
2.65692
2.65855
2.66046
2.66271
2.66535
2.66849
2.67221
2.67653
2.68088
2.68453
2.68719
2.68939
2.69156
2.69336
2.69563
2.69893
2.7024
2.70629
2.71012
2.71409
2.71811
2.72223
2.72639
2.73057
2.73478
2.73903
2.74333
2.74764
2.75192
2.75612
2.76022
2.76418
2.76799
2.77161
2.77502
2.77818
2.78108
2.7837
2.78602
2.78803
2.78967
2.79094
2.79178
2.79218
2.79209
2.79151
2.79038
2.78872
2.78655
2.78392
2.78084
2.7771
2.77244
2.76671
2.76076
2.75511
2.7494
2.74368
2.73801
2.7324
2.7269
2.72152
2.71628
2.71119
2.70627
2.70152
2.69695
2.69255
2.68834
2.6843
2.68045
2.67677
2.67326
2.66992
2.66675
2.66373
2.66085
2.65812
2.65553
2.65306
2.65072
2.6485
2.64636
2.64433
2.64187
2.64247
2.64309
2.64374
2.64442
2.64511
2.64584
2.64658
2.64735
2.64815
2.64899
2.64986
2.65079
2.6518
2.65292
2.65418
2.65564
2.65734
2.65935
2.66172
2.66451
2.66783
2.6718
2.67642
2.681
2.68468
2.68742
2.68992
2.69227
2.69409
2.69643
2.69984
2.70349
2.70756
2.71159
2.71575
2.71995
2.72426
2.72862
2.73301
2.73743
2.7419
2.74643
2.75097
2.75549
2.75994
2.76429
2.7685
2.77255
2.77641
2.78004
2.78343
2.78654
2.78937
2.79188
2.79406
2.79587
2.79727
2.79824
2.79873
2.79871
2.79816
2.79704
2.79535
2.79311
2.79039
2.78718
2.78328
2.77839
2.77235
2.76607
2.7601
2.75405
2.748
2.74199
2.73605
2.73021
2.7245
2.71894
2.71354
2.70831
2.70326
2.6984
2.69373
2.68925
2.68496
2.68086
2.67695
2.67322
2.66967
2.66629
2.66308
2.66003
2.65712
2.65436
2.65174
2.64925
2.64688
2.64461
2.64246
2.63992
2.64056
2.64122
2.6419
2.64261
2.64335
2.64411
2.64489
2.6457
2.64654
2.64741
2.64833
2.6493
2.65035
2.65152
2.65283
2.65435
2.65613
2.65823
2.66071
2.66363
2.66712
2.67128
2.67614
2.68092
2.68457
2.68741
2.69022
2.69276
2.69467
2.69713
2.70069
2.70454
2.70878
2.71302
2.71736
2.72176
2.72627
2.73084
2.73543
2.74007
2.74477
2.74953
2.75433
2.7591
2.76381
2.76841
2.77288
2.77718
2.78129
2.78517
2.78879
2.79213
2.79517
2.79789
2.80026
2.80225
2.80381
2.80491
2.80551
2.80557
2.80506
2.80396
2.80224
2.79995
2.79714
2.79381
2.78974
2.78461
2.77827
2.77165
2.76534
2.75895
2.75255
2.74619
2.7399
2.73372
2.72767
2.72178
2.71605
2.7105
2.70515
2.69999
2.69503
2.69028
2.68572
2.68137
2.67722
2.67326
2.66949
2.6659
2.66249
2.65924
2.65616
2.65323
2.65044
2.64779
2.64528
2.64288
2.6406
2.63798
2.63865
2.63934
2.64006
2.64081
2.64158
2.64237
2.6432
2.64404
2.64492
2.64584
2.64679
2.64781
2.64891
2.65012
2.65149
2.65308
2.65493
2.65712
2.65969
2.66273
2.66636
2.67068
2.67564
2.68061
2.68423
2.68716
2.69026
2.69302
2.69509
2.69773
2.70148
2.70555
2.70997
2.71441
2.71894
2.72354
2.72825
2.73303
2.73784
2.7427
2.74764
2.75265
2.7577
2.76274
2.76771
2.77258
2.77732
2.7819
2.78627
2.79041
2.79428
2.79786
2.80113
2.80407
2.80665
2.80882
2.81056
2.8118
2.81252
2.81268
2.81223
2.81115
2.80942
2.80708
2.80419
2.80074
2.7965
2.79114
2.78448
2.77751
2.77085
2.76411
2.75735
2.75063
2.74398
2.73744
2.73104
2.7248
2.71874
2.71286
2.70719
2.70172
2.69647
2.69142
2.68659
2.68198
2.67757
2.67337
2.66937
2.66556
2.66194
2.6585
2.65523
2.65212
2.64917
2.64636
2.64369
2.64115
2.63874
2.63604
2.63674
2.63746
2.63822
2.639
2.63981
2.64064
2.6415
2.64239
2.64331
2.64426
2.64526
2.64633
2.64747
2.64874
2.65017
2.65182
2.65375
2.65601
2.65868
2.66181
2.66554
2.66997
2.67501
2.67994
2.68358
2.68671
2.69004
2.69303
2.69533
2.69823
2.70222
2.70652
2.71113
2.71576
2.72049
2.72529
2.73021
2.7352
2.74024
2.74533
2.75051
2.75578
2.7611
2.76641
2.77166
2.77681
2.78183
2.78669
2.79134
2.79575
2.79988
2.80372
2.80724
2.81042
2.81322
2.8156
2.81752
2.81893
2.81979
2.82005
2.81968
2.81864
2.81691
2.81453
2.81156
2.80799
2.80358
2.79799
2.79101
2.78367
2.77666
2.76955
2.76242
2.75532
2.7483
2.74139
2.73463
2.72803
2.72162
2.7154
2.70939
2.70361
2.69804
2.6927
2.68758
2.68269
2.67802
2.67357
2.66933
2.6653
2.66146
2.65782
2.65435
2.65105
2.64792
2.64495
2.64212
2.63942
2.63687
2.6341
2.63483
2.63559
2.63637
2.63719
2.63803
2.63891
2.63981
2.64074
2.6417
2.6427
2.64374
2.64486
2.64605
2.64738
2.64887
2.65059
2.65259
2.65492
2.65766
2.66088
2.66467
2.66914
2.67416
2.67904
2.68272
2.68599
2.68955
2.69278
2.69539
2.69864
2.70292
2.70745
2.71226
2.71707
2.72199
2.72699
2.73213
2.73734
2.74261
2.74794
2.75337
2.75891
2.76451
2.77011
2.77565
2.78109
2.78641
2.79156
2.7965
2.8012
2.80562
2.80973
2.81351
2.81694
2.81998
2.82259
2.82472
2.82631
2.82732
2.82771
2.82743
2.82644
2.82472
2.82231
2.81927
2.81559
2.81101
2.80518
2.79787
2.79016
2.78278
2.77529
2.76778
2.76029
2.75289
2.7456
2.73845
2.73148
2.7247
2.71813
2.71178
2.70565
2.69976
2.69411
2.6887
2.68352
2.67858
2.67387
2.66938
2.66511
2.66104
2.65718
2.65351
2.65002
2.6467
2.64355
2.64055
2.63769
2.63499
2.63216
2.63292
2.63371
2.63453
2.63538
2.63626
2.63717
2.63811
2.63908
2.64009
2.64114
2.64223
2.64339
2.64465
2.64603
2.64759
2.64937
2.65144
2.65385
2.65665
2.65992
2.66375
2.6682
2.67315
2.67793
2.68163
2.68504
2.6888
2.69227
2.69527
2.69894
2.70356
2.70835
2.71335
2.71835
2.72345
2.72866
2.73401
2.73946
2.74496
2.75054
2.75623
2.76204
2.76793
2.77383
2.77967
2.78543
2.79105
2.79651
2.80176
2.80676
2.81148
2.81588
2.81995
2.82365
2.82695
2.8298
2.83215
2.83395
2.83513
2.83566
2.83549
2.83456
2.83287
2.83044
2.82735
2.82355
2.81881
2.81274
2.80509
2.797
2.78924
2.78136
2.77345
2.76556
2.75776
2.75007
2.74253
2.73517
2.72801
2.72107
2.71435
2.70788
2.70165
2.69568
2.68995
2.68447
2.67924
2.67426
2.66951
2.66499
2.66069
2.6566
2.65272
2.64902
2.64551
2.64217
2.639
2.63597
2.63312
2.63021
2.631
2.63183
2.63268
2.63357
2.63449
2.63544
2.63642
2.63743
2.63848
2.63958
2.64072
2.64194
2.64325
2.6447
2.64632
2.64817
2.6503
2.65277
2.65563
2.65894
2.66277
2.66716
2.67198
2.67663
2.68035
2.68391
2.68781
2.69152
2.69497
2.69914
2.70414
2.7092
2.71439
2.71958
2.72487
2.73028
2.73586
2.74153
2.74728
2.75311
2.75908
2.76517
2.77136
2.77757
2.78373
2.78981
2.79575
2.80154
2.80711
2.81244
2.81747
2.82218
2.82655
2.83055
2.83413
2.83725
2.83984
2.84185
2.84323
2.84392
2.84387
2.84304
2.84139
2.83895
2.8358
2.8319
2.827
2.82068
2.8127
2.80421
2.79607
2.78778
2.77946
2.77115
2.76293
2.75482
2.74687
2.73911
2.73155
2.72422
2.71713
2.71029
2.70372
2.6974
2.69135
2.68556
2.68003
2.67476
2.66974
2.66496
2.66041
2.65608
2.65197
2.64807
2.64435
2.64082
2.63746
2.63426
2.63124
2.62826
2.62908
2.62994
2.63083
2.63176
2.63271
2.6337
2.63472
2.63578
2.63688
2.63802
2.63922
2.64049
2.64186
2.64337
2.64506
2.64698
2.64917
2.6517
2.6546
2.65793
2.66173
2.66603
2.67068
2.6752
2.67896
2.68262
2.68662
2.69056
2.69451
2.69924
2.70465
2.70999
2.71539
2.72075
2.72623
2.73185
2.73766
2.74357
2.74957
2.75566
2.7619
2.7683
2.7748
2.78133
2.78782
2.79423
2.80052
2.80665
2.81256
2.81823
2.8236
2.82864
2.83333
2.83764
2.84152
2.84493
2.84779
2.85005
2.85164
2.85251
2.85261
2.85188
2.85028
2.84785
2.84467
2.84066
2.83561
2.82905
2.82072
2.81183
2.80328
2.79457
2.78582
2.77709
2.76842
2.75989
2.75151
2.74332
2.73535
2.72761
2.72013
2.71291
2.70597
2.69929
2.6929
2.68678
2.68094
2.67537
2.67006
2.66501
2.66021
2.65564
2.65129
2.64716
2.64323
2.6395
2.63594
2.63256
2.62936
2.62631
2.62716
2.62805
2.62898
2.62994
2.63093
2.63196
2.63303
2.63413
2.63527
2.63646
2.63772
2.63904
2.64048
2.64205
2.6438
2.64578
2.64803
2.65061
2.65355
2.65688
2.66064
2.66483
2.66931
2.67368
2.67748
2.68122
2.68524
2.68942
2.69391
2.69923
2.70509
2.71072
2.71632
2.72187
2.72753
2.73337
2.73941
2.74557
2.75182
2.75818
2.76471
2.77141
2.77823
2.7851
2.79194
2.7987
2.80535
2.81183
2.81811
2.82414
2.82986
2.83525
2.84029
2.84493
2.84914
2.85286
2.85601
2.85854
2.86037
2.86145
2.86171
2.86111
2.85959
2.85718
2.85396
2.84987
2.84466
2.83785
2.82917
2.81987
2.81091
2.80176
2.79257
2.78338
2.77427
2.76528
2.75645
2.74782
2.73942
2.73126
2.72337
2.71575
2.70842
2.70138
2.69462
2.68817
2.682
2.67611
2.6705
2.66517
2.66009
2.65526
2.65067
2.6463
2.64215
2.6382
2.63444
2.63087
2.62748
2.62436
2.62524
2.62617
2.62713
2.62812
2.62915
2.63022
2.63132
2.63247
2.63366
2.6349
2.63621
2.63759
2.63908
2.64072
2.64253
2.64457
2.64688
2.6495
2.65247
2.6558
2.65951
2.66357
2.66789
2.67215
2.67598
2.67973
2.68373
2.68815
2.69319
2.69913
2.70544
2.71138
2.71719
2.72292
2.72877
2.73482
2.7411
2.74752
2.75403
2.76066
2.76749
2.77451
2.78166
2.78888
2.79608
2.80321
2.81023
2.8171
2.82376
2.83016
2.83626
2.84203
2.84743
2.85243
2.85699
2.86105
2.86452
2.86734
2.86944
2.87075
2.87121
2.87074
2.86932
2.86695
2.86371
2.85954
2.85418
2.84713
2.83809
2.82836
2.81897
2.80938
2.79972
2.79006
2.78048
2.77102
2.76172
2.75264
2.74378
2.73518
2.72686
2.71883
2.71109
2.70366
2.69653
2.68971
2.6832
2.67698
2.67106
2.66543
2.66006
2.65496
2.65011
2.6455
2.64111
2.63694
2.63297
2.62919
2.62561
2.62241
2.62332
2.62428
2.62527
2.6263
2.62736
2.62847
2.62962
2.6308
2.63204
2.63333
2.63469
2.63613
2.63768
2.63938
2.64125
2.64335
2.64571
2.64837
2.65136
2.65468
2.65833
2.66229
2.66646
2.67063
2.67447
2.67818
2.68214
2.6868
2.69239
2.69893
2.7057
2.71196
2.71798
2.7239
2.72994
2.73621
2.74273
2.74941
2.75618
2.7631
2.77023
2.77758
2.78509
2.79267
2.80024
2.80776
2.81517
2.82243
2.82949
2.8363
2.8428
2.84896
2.85475
2.86014
2.86508
2.8695
2.87332
2.87647
2.87886
2.88043
2.8811
2.88081
2.87951
2.87719
2.87395
2.8697
2.8642
2.8569
2.8475
2.83733
2.8275
2.81744
2.8073
2.79716
2.78709
2.77714
2.76736
2.75779
2.74846
2.7394
2.73063
2.72215
2.71399
2.70615
2.69863
2.69144
2.68456
2.678
2.67175
2.6658
2.66014
2.65475
2.64963
2.64476
2.64012
2.63571
2.63152
2.62752
2.62375
2.62046
2.6214
2.62238
2.62341
2.62447
2.62557
2.62671
2.6279
2.62913
2.63041
2.63175
2.63316
2.63466
2.63627
2.63802
2.63995
2.6421
2.64451
2.64721
2.65021
2.65352
2.65712
2.66098
2.66504
2.66914
2.67299
2.67663
2.68053
2.68544
2.69155
2.69866
2.70587
2.71244
2.71869
2.7248
2.73103
2.73753
2.7443
2.75123
2.75828
2.76549
2.77293
2.78062
2.78849
2.79645
2.80442
2.81234
2.82016
2.82784
2.83532
2.84255
2.84948
2.85606
2.86227
2.86807
2.87342
2.87823
2.88243
2.88593
2.88865
2.89051
2.89143
2.89134
2.89017
2.88793
2.8847
2.88039
2.87474
2.86721
2.85743
2.84682
2.83653
2.82598
2.81535
2.8047
2.79412
2.78366
2.77337
2.7633
2.75347
2.74393
2.73468
2.72575
2.71715
2.70888
2.70094
2.69335
2.6861
2.67918
2.67258
2.6663
2.66032
2.65463
2.64922
2.64408
2.63918
2.63453
2.6301
2.62588
2.62189
2.61851
2.61948
2.62049
2.62154
2.62263
2.62377
2.62494
2.62617
2.62744
2.62877
2.63015
2.63161
2.63316
2.63483
2.63664
2.63862
2.64083
2.64328
2.64601
2.64903
2.65233
2.65589
2.65966
2.66363
2.66771
2.67156
2.6751
2.67896
2.68412
2.6907
2.69832
2.70596
2.71283
2.7193
2.7256
2.73204
2.73877
2.74579
2.75299
2.76032
2.76783
2.77559
2.78363
2.79188
2.80023
2.8086
2.81694
2.82519
2.83331
2.84124
2.84892
2.85629
2.86332
2.86997
2.87622
2.882
2.88724
2.89186
2.89575
2.89883
2.90101
2.90221
2.90234
2.90134
2.8992
2.89598
2.89163
2.88585
2.87807
2.86792
2.85685
2.84608
2.83504
2.82389
2.81271
2.8016
2.79061
2.77979
2.76919
2.75885
2.7488
2.73906
2.72964
2.72057
2.71185
2.70348
2.69548
2.68782
2.68052
2.67356
2.66693
2.66062
2.65461
2.6489
2.64347
2.6383
2.63338
2.6287
2.62425
2.62003
2.61656
2.61755
2.61859
2.61967
2.62079
2.62195
2.62317
2.62443
2.62574
2.6271
2.62853
2.63004
2.63164
2.63336
2.63522
2.63726
2.63951
2.64201