/*--------------------------------*- C++ -*----------------------------------*\
  =========                 |
  \\      /  F ield         | OpenFOAM: The Open Source CFD Toolbox
   \\    /   O peration     | Website:  https://openfoam.org
    \\  /    A nd           | Version:  9
     \\/     M anipulation  |
\*---------------------------------------------------------------------------*/
FoamFile
{
    format      ascii;
    class       volScalarField;
    location    "0.14";
    object      p_rgh;
}
// * * * * * * * * * * * * * * * * * * * * * * * * * * * * * * * * * * * * * //

dimensions      [1 -1 -2 0 0 0 0];

internalField   nonuniform List<scalar> 
20000
(
-2.87369e-05
-0.000172121
-0.000347642
-0.000549933
-0.000785054
-0.0010616
-0.00138799
-0.00176894
-0.00220043
-0.00266571
-0.00314227
-0.00363753
-0.00426244
-0.00530844
-0.00721603
-0.0104003
-0.0150604
-0.0211328
-0.028394
-0.0365855
-0.0454584
-0.0546923
-0.0635734
-0.0700486
-0.0733685
-0.0534392
-0.17847
-0.0486631
-0.0761614
-0.0710378
-0.0605934
-0.0453244
-0.0311788
-0.019691
-0.012248
-0.00869654
-0.00744153
-0.00686168
-0.00629939
-0.00614794
-0.00690546
-0.00843366
-0.0100981
-0.0113056
-0.0118766
-0.0119179
-0.011613
-0.011099
-0.0104608
-0.00977025
-0.00914621
-0.00877514
-0.00885116
-0.00946456
-0.0105375
-0.0118667
-0.0132261
-0.0144392
-0.0153774
-0.0159206
-0.0159323
-0.0151729
-0.0132485
-0.00953938
-0.00407689
0.000107907
0.000454295
-0.00046564
-0.00521081
-0.0109871
-0.0145111
-0.0162977
-0.0171625
-0.0174466
-0.0173381
-0.0169543
-0.0163745
-0.0156546
-0.0148339
-0.01394
-0.0129931
-0.0120093
-0.0110024
-0.00998508
-0.00896976
-0.007969
-0.00699544
-0.00606163
-0.00517941
-0.00435921
-0.00360931
-0.00293511
-0.00233885
-0.00181958
-0.0013737
-0.000995782
-0.000679737
-0.000419523
-0.000208884
-4.63821e-05
-9.37539e-05
-0.000375956
-0.000692183
-0.00103685
-0.00141826
-0.00184638
-0.00233306
-0.00289243
-0.00354097
-0.00429754
-0.00518405
-0.00622946
-0.00748088
-0.00902094
-0.0109803
-0.0135258
-0.0167998
-0.0208713
-0.0257098
-0.0311855
-0.0370759
-0.0430543
-0.048645
-0.0532509
-0.0653225
-0.0535735
-0.119038
-0.0504191
-0.0693296
-0.0520672
-0.0470039
-0.0366808
-0.0266282
-0.0181213
-0.0119595
-0.00795703
-0.0054753
-0.0039654
-0.00306231
-0.00267855
-0.00278788
-0.0032934
-0.00394765
-0.00446274
-0.00468331
-0.00459557
-0.00426359
-0.00376877
-0.00319076
-0.00261162
-0.00212864
-0.00185114
-0.00186879
-0.00221391
-0.00284557
-0.00365953
-0.00452015
-0.00529345
-0.00585847
-0.0060956
-0.00587544
-0.00502752
-0.00338594
-0.00091047
0.00196321
0.00366077
0.00328247
0.00272534
0.000205121
-0.00326471
-0.00593948
-0.00773597
-0.00891111
-0.00959772
-0.00992092
-0.00997718
-0.00983424
-0.00954247
-0.00913932
-0.00865335
-0.00810704
-0.00751875
-0.0069041
-0.00627685
-0.00564936
-0.00503283
-0.00443715
-0.00387076
-0.00334033
-0.0028505
-0.00240385
-0.00200087
-0.00164029
-0.00131946
-0.00103484
-0.000782594
-0.000559184
-0.000361658
-0.000187557
-4.21837e-05
-0.0001402
-0.000481858
-0.000846674
-0.00123696
-0.00166243
-0.00213175
-0.00265451
-0.00324207
-0.00390765
-0.00466657
-0.0055376
-0.00654713
-0.00773792
-0.00918117
-0.0109765
-0.0132214
-0.0159908
-0.0193119
-0.0231572
-0.0274471
-0.0320625
-0.0368948
-0.0417566
-0.044743
-0.0571853
-0.0384776
-0.088829
-0.0354487
-0.060936
-0.0425846
-0.0402039
-0.0308684
-0.0226284
-0.0154393
-0.0099462
-0.00606917
-0.00340019
-0.00158997
-0.000370964
0.000340465
0.00061181
0.000541807
0.000327998
0.00018489
0.000228771
0.000479963
0.000903661
0.00144367
0.0020361
0.00261311
0.00309825
0.0034073
0.00347668
0.00328452
0.00286229
0.00228958
0.0016722
0.00111861
0.000730897
0.000609794
0.000858738
0.00157503
0.00282843
0.00457076
0.00653379
0.00767505
0.00721367
0.00662182
0.00442994
0.00156686
-0.000722777
-0.00239845
-0.00363277
-0.0044892
-0.00504188
-0.00535396
-0.00548018
-0.00546324
-0.00533623
-0.00512545
-0.00485207
-0.00453352
-0.00418451
-0.00381763
-0.00344373
-0.00307209
-0.00271047
-0.00236513
-0.00204077
-0.00174063
-0.00146651
-0.001219
-0.000997632
-0.000801166
-0.000627832
-0.000475558
-0.000342144
-0.000225304
-0.000122406
-3.51037e-05
-0.000151093
-0.000505097
-0.000879678
-0.00127665
-0.00170374
-0.00216723
-0.00267396
-0.00323202
-0.00385082
-0.00454203
-0.00532191
-0.00621578
-0.00726455
-0.00853094
-0.0100971
-0.0120422
-0.0144182
-0.0172339
-0.0204572
-0.0240231
-0.0278339
-0.0318268
-0.0360723
-0.036852
-0.0481912
-0.0277235
-0.0652457
-0.0256506
-0.0512079
-0.0344151
-0.0346069
-0.0255237
-0.0185168
-0.0121418
-0.00715596
-0.00352685
-0.000905418
0.00102507
0.00247769
0.00347048
0.0040302
0.00425722
0.00434606
0.00448453
0.00476121
0.00518618
0.00573158
0.00635361
0.00700233
0.00762455
0.0081606
0.00853839
0.00870328
0.00863463
0.008361
0.00795253
0.00749924
0.00709063
0.00680953
0.00673469
0.00694156
0.00748773
0.00841615
0.00969006
0.01118
0.0121116
0.0116294
0.0108836
0.00867533
0.00600811
0.00388242
0.00226732
0.000997096
2.43808e-05
-0.000699046
-0.00121476
-0.00156394
-0.00178062
-0.0018924
-0.00192194
-0.0018878
-0.00180542
-0.00168778
-0.00154591
-0.00138918
-0.00122552
-0.00106151
-0.000902521
-0.000752756
-0.000615319
-0.000492288
-0.000384798
-0.000293141
-0.000216889
-0.000155032
-0.000106119
-6.83799e-05
-3.9724e-05
-1.77478e-05
-3.78743e-06
-0.000149318
-0.000497312
-0.000864842
-0.0012526
-0.00166655
-0.00211137
-0.00259249
-0.00311667
-0.00369222
-0.00432989
-0.00504442
-0.00585687
-0.00679707
-0.00790571
-0.00923455
-0.0108372
-0.0127532
-0.0149933
-0.0175359
-0.0203257
-0.023247
-0.0261671
-0.0296299
-0.0286535
-0.0391219
-0.0211828
-0.0466005
-0.0196473
-0.0411375
-0.0259
-0.0281626
-0.0197371
-0.0141491
-0.00858655
-0.00411406
-0.000673462
0.00197661
0.00404446
0.00568046
0.00690068
0.00774498
0.00830174
0.00872343
0.00915286
0.00966012
0.0102593
0.010934
0.011652
0.0123731
0.0130531
0.0136465
0.014097
0.0143614
0.0144262
0.0143138
0.0140787
0.0137912
0.0135229
0.0133404
0.0133048
0.0134712
0.0138757
0.0145393
0.0153914
0.0163309
0.016861
0.0162509
0.0154311
0.0133863
0.010979
0.00895371
0.007319
0.00595417
0.00483082
0.00391727
0.00318287
0.00259786
0.00213564
0.00177373
0.00149316
0.00127797
0.00111466
0.000991798
0.000899633
0.000829916
0.000775699
0.000731217
0.000691797
0.000653787
0.000614487
0.000572075
0.000525517
0.000474455
0.000419083
0.000360005
0.000298073
0.000234251
0.000169595
0.00010519
3.68829e-05
-0.000140165
-0.000467177
-0.000812097
-0.00117496
-0.00156083
-0.00197352
-0.00241745
-0.0028981
-0.00342223
-0.00399838
-0.00463767
-0.00535507
-0.00617036
-0.0071084
-0.00819933
-0.00947457
-0.0109582
-0.0126562
-0.0145514
-0.0166022
-0.0187072
-0.0206359
-0.0234939
-0.0215266
-0.0307851
-0.0160532
-0.0332532
-0.0147468
-0.0317642
-0.0182688
-0.021584
-0.0138869
-0.00965434
-0.00482098
-0.00083745
0.00244215
0.00513663
0.00733674
0.00913319
0.0105556
0.011671
0.0125504
0.0132992
0.0140139
0.014749
0.0155245
0.0163356
0.0171604
0.017967
0.0187185
0.0193794
0.0199096
0.020278
0.0204781
0.020526
0.0204595
0.0203296
0.0201915
0.0200976
0.0200949
0.0202226
0.0204982
0.0209217
0.0213872
0.0217939
0.0218886
0.0211127
0.0202457
0.0183856
0.0162044
0.0142299
0.0125374
0.0110472
0.00975032
0.00863078
0.00766753
0.00683922
0.00612569
0.00550904
0.00497358
0.00450579
0.00409399
0.00372821
0.00339989
0.00310181
0.00282793
0.00257329
0.00233389
0.00210665
0.00188929
0.00168017
0.00147827
0.00128296
0.00109396
0.00091116
0.000734581
0.000564238
0.000400251
0.000242675
8.31206e-05
-0.000123047
-0.000413315
-0.000718989
-0.00103974
-0.00137978
-0.00174204
-0.00212971
-0.00254663
-0.00299745
-0.00348786
-0.00402527
-0.00461967
-0.00528478
-0.00603792
-0.00689921
-0.00788823
-0.00901756
-0.0102862
-0.0116758
-0.0131559
-0.0146698
-0.0158684
-0.0183069
-0.0158804
-0.0236029
-0.0115918
-0.0236473
-0.0104591
-0.0236648
-0.0120617
-0.0155635
-0.00840584
-0.00517253
-0.000862906
0.00270611
0.00581927
0.00850672
0.0107947
0.0127297
0.0143359
0.0156854
0.0168359
0.0178631
0.0188326
0.0197848
0.0207392
0.0216962
0.022641
0.0235493
0.0243906
0.0251362
0.0257577
0.026233
0.0265588
0.0267466
0.0268226
0.0268235
0.0267907
0.0267639
0.0267776
0.0268576
0.0270053
0.0272115
0.0273689
0.0273822
0.0271529
0.0262321
0.0252702
0.0234683
0.0213739
0.0193825
0.0176115
0.0159905
0.0145205
0.0131985
0.0120129
0.0109494
0.00999357
0.00913162
0.00835097
0.00764048
0.00699036
0.00639209
0.00583834
0.00532288
0.00484047
0.00438675
0.00395819
0.00355194
0.00316574
0.0027978
0.00244674
0.00211144
0.00179099
0.00148466
0.00119178
0.000911769
0.000644284
0.00038891
0.000132688
-9.98554e-05
-0.000341181
-0.000594889
-0.000860258
-0.0011407
-0.00143815
-0.0017546
-0.00209243
-0.00245444
-0.00284415
-0.00326627
-0.00372743
-0.00423728
-0.00480866
-0.00545656
-0.00619498
-0.00703109
-0.00796156
-0.00896749
-0.0100218
-0.0111194
-0.0117913
-0.0138613
-0.0113129
-0.0175626
-0.00784726
-0.0162308
-0.00679294
-0.0167851
-0.00692754
-0.0100934
-0.00336153
-0.000771614
0.00319751
0.00644139
0.00940221
0.0120498
0.0143902
0.016441
0.01821
0.0197585
0.0211344
0.0223954
0.0235895
0.0247457
0.0258785
0.0269887
0.0280651
0.0290891
0.0300361
0.0308817
0.0316049
0.0321891
0.0326316
0.0329405
0.0331348
0.0332413
0.0332901
0.0333104
0.0333255
0.0333508
0.0333775
0.0333961
0.0333183
0.0330565
0.0325925
0.0315595
0.0304601
0.0286109
0.0264836
0.0244127
0.0225374
0.0207763
0.0191334
0.0176139
0.0162137
0.0149243
0.0137362
0.0126393
0.0116241
0.0106816
0.00980399
0.00898412
0.00821578
0.00749359
0.00681292
0.00616982
0.00556092
0.00498338
0.00443477
0.00391304
0.00341642
0.00294339
0.00249261
0.00206291
0.00165323
0.00126262
0.000890475
0.000536218
0.000182412
-7.29185e-05
-0.000258091
-0.000452398
-0.000654838
-0.00086819
-0.00109366
-0.00133229
-0.00158536
-0.00185437
-0.00214124
-0.00244875
-0.00278103
-0.00314442
-0.00354778
-0.00400173
-0.00451626
-0.00509603
-0.00573776
-0.00642433
-0.00712641
-0.0078867
-0.00815032
-0.00983959
-0.00738915
-0.0123645
-0.00464234
-0.010144
-0.00356438
-0.0107915
-0.00239717
-0.00494705
0.00135988
0.00354582
0.00727833
0.0102751
0.0131197
0.015732
0.0181152
0.0202669
0.0221809
0.0239064
0.0254826
0.0269538
0.0283547
0.0297048
0.0310137
0.0322808
0.0334967
0.0346465
0.0357097
0.0366656
0.0374975
0.0381925
0.0387477
0.0391684
0.0394679
0.0396652
0.0397815
0.0398372
0.0398467
0.0398185
0.039738
0.0395964
0.0393258
0.0388464
0.0381834
0.0370406
0.035792
0.0338542
0.0316331
0.0294411
0.0274344
0.0255156
0.023691
0.0219712
0.0203569
0.0188442
0.0174276
0.0161002
0.0148553
0.0136861
0.0125862
0.0115499
0.010572
0.00964774
0.00877301
0.00794411
0.00715779
0.00641117
0.0057017
0.00502714
0.00438547
0.00377486
0.00319368
0.00264042
0.00211372
0.00161227
0.00113522
0.000681821
0.000230892
-4.39481e-05
-0.000169364
-0.000300673
-0.000436753
-0.000579929
-0.000730862
-0.000889927
-0.00105759
-0.00123439
-0.00142104
-0.00161875
-0.0018296
-0.00205715
-0.00230677
-0.00258509
-0.00289825
-0.0032488
-0.00363281
-0.00403621
-0.0044258
-0.00488374
-0.00482114
-0.00611408
-0.00387291
-0.00770785
-0.00166253
-0.00492947
-0.000503597
-0.00539086
0.00178504
-1.74008e-05
0.00584587
0.0077911
0.0113419
0.0141556
0.0169227
0.0195191
0.0219496
0.0241965
0.0262446
0.0281346
0.0298975
0.031567
0.0331649
0.0347028
0.0361859
0.0376121
0.038973
0.0402556
0.0414427
0.042516
0.0434619
0.0442697
0.0449365
0.0454649
0.0458635
0.0461443
0.0463212
0.0464073
0.04641
0.0463333
0.0461595
0.0458786
0.0454383
0.0447679
0.0439223
0.0426524
0.0412576
0.0392159
0.0368696
0.0345303
0.0323696
0.0302752
0.0282569
0.0263292
0.0244963
0.0227582
0.0211122
0.0195546
0.0180807
0.0166857
0.0153648
0.0141134
0.012927
0.0118016
0.0107335
0.0097193
0.00875579
0.00784012
0.0069697
0.00614211
0.0053551
0.00460658
0.00389457
0.00321718
0.00257261
0.00195908
0.00137526
0.000819826
0.000267746
-1.39679e-05
-7.80228e-05
-0.00014483
-0.000213214
-0.000285171
-0.000360915
-0.000440309
-0.000523224
-0.000609461
-0.000698805
-0.000791218
-0.000887148
-0.000987932
-0.00109605
-0.00121476
-0.00134661
-0.00149189
-0.00164552
-0.00179652
-0.00190854
-0.00208925
-0.00176267
-0.00264766
-0.00062994
-0.00341484
0.00130978
-0.0002791
0.00259087
-0.000404794
0.00572747
0.0047029
0.0101295
0.011965
0.0153751
0.0180618
0.0207839
0.0233825
0.0258673
0.0282087
0.0303856
0.0324316
0.0343713
0.0362293
0.0380171
0.0397387
0.0413951
0.0429827
0.0444931
0.0459148
0.0472323
0.0484294
0.0494939
0.0504169
0.051195
0.0518287
0.0523222
0.0526819
0.0529156
0.0530298
0.0530269
0.0529069
0.0526507
0.0522468
0.051655
0.050814
0.0497995
0.0483985
0.0468542
0.0446905
0.0421924
0.039684
0.0373515
0.035067
0.0328444
0.0307013
0.0286448
0.0266776
0.0248002
0.0230111
0.0213076
0.0196866
0.0181446
0.016678
0.0152832
0.0139568
0.0126954
0.0114958
0.0103551
0.00927037
0.00823895
0.00725828
0.0063259
0.00543943
0.00459657
0.00379512
0.00303293
0.00230796
0.00161861
0.000963498
0.000314979
1.60981e-05
1.3413e-05
1.10643e-05
1.02994e-05
9.38102e-06
8.44198e-06
7.98103e-06
8.53401e-06
1.07996e-05
1.56493e-05
2.40421e-05
3.68568e-05
5.46179e-05
7.72814e-05
0.000104414
0.000136511
0.000175698
0.000228397
0.000303486
0.000438989
0.000517508
0.0010694
0.000600817
0.00245101
0.000639843
0.00443567
0.0040452
0.00583822
0.00428677
0.00950843
0.00921864
0.0142337
0.0160624
0.0193687
0.0219791
0.0246837
0.0273004
0.0298467
0.0322845
0.0345877
0.0367838
0.0388921
0.0409304
0.042902
0.0448043
0.046634
0.0483855
0.0500502
0.0516167
0.053071
0.0543979
0.0555858
0.0566265
0.0575162
0.0582536
0.0588391
0.0592746
0.0595624
0.059704
0.0596972
0.059539
0.0592097
0.0586967
0.0579705
0.0569786
0.0558089
0.0542798
0.0525796
0.0502736
0.0475982
0.0449005
0.0423804
0.039894
0.0374581
0.0350927
0.0328074
0.0306077
0.0284964
0.0264741
0.0245399
0.0226921
0.0209284
0.0192463
0.0176428
0.0161151
0.0146602
0.0132751
0.011957
0.010703
0.00951048
0.00837663
0.0072988
0.00627436
0.00530071
0.00437532
0.00349571
0.00265948
0.00186471
0.00110956
0.000363243
4.55465e-05
0.000103025
0.000163889
0.000229399
0.000298045
0.000370209
0.000446646
0.000528185
0.000615877
0.000711045
0.000815297
0.000930519
0.00105879
0.0012023
0.00136331
0.00154516
0.0017525
0.00199322
0.00227548
0.00263801
0.002967
0.00372867
0.0036806
0.00544923
0.00453526
0.00772906
0.00818167
0.00927623
0.00877039
0.0132044
0.0135567
0.0181905
0.0200812
0.0233142
0.0258928
0.0286048
0.0312557
0.0338724
0.0364103
0.0388396
0.0411824
0.0434543
0.0456676
0.0478189
0.0499001
0.0519038
0.0538221
0.0556456
0.0573626
0.0589597
0.0604222
0.0617381
0.0628996
0.0639024
0.0647433
0.0654198
0.0659297
0.0662708
0.0664405
0.0664327
0.0662417
0.0658479
0.0652379
0.0643917
0.063265
0.0619506
0.0602946
0.0584332
0.0559691
0.053096
0.0501912
0.0474693
0.0447693
0.0421111
0.0395164
0.0369969
0.0345606
0.0322122
0.0299541
0.0277872
0.025711
0.0237244
0.0218256
0.0200125
0.0182825
0.0166331
0.0150617
0.0135654
0.0121415
0.0107872
0.00949958
0.00827579
0.0071129
0.006008
0.00495821
0.00396068
0.00301265
0.00211185
0.00125608
0.000411283
7.40049e-05
0.000189754
0.000311814
0.000441384
0.000577135
0.000719631
0.000869814
0.00102873
0.00119768
0.00137832
0.00157283
0.00178398
0.00201522
0.00227071
0.00255534
0.00287526
0.00323802
0.00365353
0.00413042
0.00470743
0.00528346
0.00625408
0.00662446
0.00840508
0.00830597
0.0111593
0.012188
0.0128717
0.013092
0.0168658
0.0177437
0.0220309
0.0240227
0.0272064
0.02979
0.0325322
0.0352344
0.0379322
0.0405759
0.0431333
0.0456222
0.0480557
0.0504416
0.0527709
0.0550307
0.0572099
0.0592983
0.061285
0.0631582
0.0649039
0.0665074
0.0679561
0.0692424
0.0703609
0.071307
0.0720754
0.0726604
0.073056
0.0732559
0.073251
0.0730331
0.0725832
0.0718869
0.0709314
0.069681
0.0682287
0.0664442
0.0644186
0.0617854
0.0586994
0.0555724
0.0526354
0.0497106
0.0468208
0.043989
0.0412291
0.0385509
0.0359613
0.0334641
0.0310615
0.0287544
0.0265426
0.024425
0.0224002
0.0204661
0.0186206
0.0168612
0.0151853
0.0135901
0.0120727
0.0106302
0.00925935
0.00795702
0.00671995
0.00554489
0.00442861
0.00336799
0.00236046
0.00140349
0.000459268
0.000101328
0.000273202
0.000454085
0.00064504
0.000844872
0.0010543
0.00127443
0.00150648
0.00175196
0.00201285
0.00229183
0.00259247
0.0029195
0.00327893
0.0036782
0.00412627
0.00463384
0.00521346
0.00587545
0.00665803
0.0074778
0.00866183
0.00944042
0.011318
0.0119441
0.0146484
0.0160688
0.0165507
0.0172628
0.0205049
0.0217907
0.0257744
0.0278872
0.031043
0.0336618
0.0364548
0.0392251
0.0420155
0.0447722
0.0474617
0.0500983
0.0526936
0.0552518
0.0577594
0.0601991
0.0625562
0.0648182
0.066973
0.0690077
0.0709079
0.072658
0.0742449
0.0756606
0.0768989
0.0779532
0.0788161
0.0794785
0.0799313
0.0801649
0.0801676
0.0799291
0.0794308
0.0786572
0.0776011
0.0762343
0.0746489
0.0727343
0.0705424
0.0677311
0.0644205
0.0610577
0.0578935
0.0547331
0.0516022
0.0485251
0.0455178
0.042592
0.039756
0.0370152
0.0343732
0.0318318
0.0293916
0.0270523
0.0248131
0.0226724
0.0206284
0.0186788
0.0168211
0.0150526
0.0133704
0.0117712
0.0102517
0.00880846
0.00743783
0.00613623
0.00490008
0.00372585
0.0026107
0.00155174
0.000506977
0.000127416
0.000353059
0.00059019
0.000839658
0.00110037
0.00137317
0.0016593
0.0019601
0.00227726
0.00261307
0.00297066
0.00335438
0.00377014
0.00422579
0.00473127
0.0052984
0.00594114
0.00667514
0.00751335
0.00849342
0.00955144
0.0109535
0.0121225
0.0141639
0.015423
0.018107
0.0198009
0.020238
0.0212781
0.0241087
0.0256985
0.0294291
0.0316728
0.0348222
0.0375018
0.040364
0.0432183
0.0461131
0.0489909
0.0518178
0.0546053
0.0573644
0.0600964
0.0627839
0.0654057
0.0679439
0.0703837
0.0727117
0.0749137
0.0769743
0.0788772
0.0806082
0.0821588
0.0835215
0.0846885
0.0856496
0.0863931
0.0869069
0.0871787
0.0871943
0.0869416
0.0864022
0.0855594
0.0844101
0.0829328
0.0812183
0.0791724
0.0768124
0.073815
0.0702701
0.0666581
0.0632555
0.0598493
0.0564679
0.0531373
0.0498753
0.0466954
0.0436074
0.0406181
0.037732
0.0349521
0.0322796
0.0297151
0.0272581
0.0249077
0.0226621
0.0205194
0.0184773
0.0165329
0.0146833
0.012925
0.0112545
0.00966813
0.00816188
0.0067319
0.00537427
0.00408512
0.00286135
0.00169971
0.000553702
0.000152254
0.00042911
0.000719687
0.00102464
0.00134295
0.00167555
0.00202373
0.00238888
0.00277286
0.00317824
0.00360859
0.00406897
0.00456644
0.00511062
0.00571394
0.00639115
0.00715965
0.00803847
0.00904397
0.0102135
0.0115025
0.0131257
0.0146635
0.0169162
0.0187217
0.0214661
0.0233642
0.0238694
0.0251319
0.0276563
0.0294658
0.0329966
0.035376
0.0385413
0.0413041
0.044253
0.0472066
0.0502173
0.0532249
0.0561954
0.0591383
0.0620642
0.0649726
0.0678428
0.07065
0.0733735
0.075996
0.0785027
0.0808781
0.0831056
0.0851677
0.0870495
0.088741
0.0902339
0.0915185
0.0925827
0.0934121
0.0939919
0.0943071
0.0943416
0.0940812
0.0935078
0.0926034
0.0913675
0.0897849
0.0879455
0.0857675
0.0832377
0.0800472
0.0762593
0.0723855
0.068734
0.0650721
0.0614312
0.0578388
0.0543146
0.0508737
0.0475274
0.0442838
0.0411485
0.038125
0.0352157
0.0324217
0.0297429
0.0271788
0.024728
0.0223888
0.0201587
0.0180351
0.0160146
0.0140939
0.0122691
0.0105362
0.00889122
0.00733001
0.00584851
0.00444272
0.00310941
0.00184508
0.000598392
0.000175917
0.000501332
0.000842413
0.00119969
0.00157222
0.00196094
0.00236716
0.0027923
0.00323833
0.00370801
0.00420529
0.0047359
0.00530803
0.005933
0.0066257
0.00740401
0.00828865
0.00930268
0.0104664
0.0118175
0.0133289
0.0151751
0.0170606
0.0195571
0.021836
0.0246884
0.0267512
0.0274012
0.0288251
0.0311293
0.0330935
0.0364754
0.0389934
0.0421973
0.0450638
0.0481161
0.0511835
0.0543217
0.0574681
0.060589
0.0636926
0.0667896
0.0698782
0.072935
0.0759321
0.0788456
0.0816565
0.084348
0.0869034
0.0893047
0.0915331
0.0935726
0.0954117
0.0970411
0.0984494
0.0996225
0.100544
0.101195
0.10156
0.10162
0.101359
0.100759
0.0998
0.098484
0.0968005
0.0948404
0.0925294
0.089828
0.0864399
0.0823997
0.0782538
0.074343
0.0704159
0.0665067
0.062644
0.0588497
0.0551406
0.0515292
0.0480248
0.044634
0.0413615
0.03821
0.0351813
0.032276
0.0294938
0.0268335
0.0242935
0.0218714
0.0195642
0.0173686
0.0152809
0.0132969
0.0114125
0.00962355
0.00792585
0.00631546
0.00478871
0.0033433
0.00197718
0.000634945
0.000198457
0.000569724
0.000958374
0.00136487
0.00178829
0.00222954
0.00268987
0.00317074
0.00367415
0.00420296
0.00476142
0.00535587
0.00599557
0.00669354
0.00746702
0.00833732
0.00932847
0.010468
0.0117806
0.013305
0.01503
0.0170996
0.019315
0.0220794
0.0247768
0.027766
0.0299637
0.0308125
0.0323666
0.0345137
0.0365834
0.0398627
0.0425221
0.0457878
0.048777
0.0519488
0.0551442
0.058421
0.0617152
0.0649939
0.0682642
0.0715376
0.0748113
0.0780597
0.0812518
0.0843612
0.0873667
0.0902498
0.0929924
0.0955749
0.0979771
0.100182
0.102176
0.103948
0.105487
0.106776
0.107796
0.108526
0.108947
0.10904
0.108786
0.108166
0.107161
0.105771
0.103993
0.101912
0.0994695
0.0965943
0.093007
0.0887041
0.0842776
0.0800983
0.0758963
0.0717097
0.0675683
0.0634957
0.0595104
0.0556263
0.051854
0.048201
0.0446728
0.0412731
0.0380042
0.034867
0.0318616
0.028987
0.0262414
0.0236225
0.021127
0.0187511
0.0164909
0.0143417
0.0122991
0.0103587
0.00851624
0.00676809
0.00511097
0.00354408
0.00207356
0.000657176
0.000219981
0.000634517
0.00106793
0.00152068
0.00199178
0.00248212
0.00299284
0.00352536
0.00408164
0.00466459
0.00527868
0.00593079
0.00663121
0.00739451
0.00824034
0.00919337
0.0102817
0.0115368
0.0129886
0.0146776
0.0166067
0.0188995
0.0214317
0.0244837
0.0275625
0.0307028
0.0330137
0.0340994
0.035769
0.0378005
0.0399387
0.0431559
0.045961
0.0493113
0.0524411
0.0557478
0.0590846
0.0625108
0.0659618
0.069406
0.0728495
0.0763051
0.0797697
0.0832156
0.086609
0.0899209
0.0931279
0.0962102
0.0991477
0.101919
0.104503
0.106881
0.109038
0.110961
0.112638
0.114051
0.115176
0.115993
0.11648
0.116613
0.116374
0.115743
0.114698
0.11324
0.111372
0.109174
0.106601
0.103551
0.0997611
0.0951863
0.0904715
0.0860149
0.081529
0.077056
0.0726269
0.0682674
0.0639975
0.0598325
0.0557844
0.0518617
0.0480708
0.0444162
0.0409006
0.0375257
0.0342915
0.0311973
0.0282413
0.0254206
0.0227319
0.0201707
0.0177324
0.0154115
0.0132024
0.0110987
0.00909429
0.00718238
0.00535437
0.0035946
0.00189019
0.000316267
0.000240556
0.00069597
0.00117157
0.00166784
0.00218367
0.00271986
0.00327753
0.00385794
0.00446295
0.00509543
0.00576004
0.00646413
0.00721887
0.00804037
0.00895059
0.00997751
0.0111538
0.0125148
0.0140959
0.0159403
0.0180642
0.0205786
0.0234187
0.0267746
0.03021
0.0335012
0.0359169
0.0372622
0.0390425
0.0409835
0.0431639
0.0463543
0.0493111
0.0527683
0.0560552
0.059511
0.0630017
0.0665874
0.0702042
0.0738215
0.0774452
0.0810896
0.0847515
0.0884015
0.0920033
0.095525
0.0989414
0.102231
0.105372
0.108341
0.111115
0.113674
0.116002
0.118085
0.119909
0.121453
0.122694
0.123606
0.124167
0.12435
0.124135
0.1235
0.122423
0.120904
0.11895
0.116641
0.113939
0.110713
0.106715
0.101861
0.0968503
0.0921079
0.0873292
0.0825607
0.0778346
0.0731791
0.0686155
0.064161
0.0598285
0.055628
0.0515667
0.04765
0.0438812
0.0402622
0.0367934
0.0334741
0.0303025
0.0272756
0.0243895
0.0216398
0.019021
0.0165272
0.014152
0.0118884
0.00972926
0.00766804
0.00569744
0.00379496
0.00191638
0.000281714
0.000260316
0.000754541
0.00127007
0.0018074
0.00236531
0.00294456
0.00354612
0.00417113
0.00482126
0.0054993
0.00621001
0.00696113
0.00776464
0.0086381
0.00960577
0.0106988
0.0119543
0.0134124
0.015113
0.0171034
0.0194118
0.0221439
0.0252858
0.0289581
0.0327305
0.0361618
0.0386736
0.0402933
0.0421886
0.0440572
0.0462645
0.0494599
0.0525763
0.0561608
0.0596195
0.0632373
0.0668931
0.0706479
0.0744388
0.078237
0.0820481
0.0858882
0.0897547
0.0936163
0.0974342
0.101174
0.104808
0.108313
0.111667
0.114843
0.117817
0.120566
0.123074
0.125326
0.127306
0.128992
0.130357
0.131375
0.132019
0.132263
0.132081
0.131452
0.130351
0.128777
0.126743
0.124326
0.121495
0.118095
0.113883
0.108744
0.103429
0.0983921
0.0933116
0.0882381
0.0832056
0.0782445
0.0733778
0.0686245
0.0639988
0.0595119
0.0551722
0.0509856
0.0469562
0.0430863
0.0393766
0.0358264
0.0324339
0.0291961
0.0261093
0.0231688
0.0203695
0.0177057
0.0151718
0.0127621
0.010471
0.00829511
0.00623434
0.00428004
0.00237739
0.000586668
0.00027921
0.00081047
0.00136403
0.00194032
0.00253818
0.00315823
0.00380124
0.00446815
0.0051605
0.00588097
0.00663433
0.00742865
0.00827666
0.00919733
0.0102171
0.0113702
0.0126977
0.0142447
0.0160557
0.0181818
0.0206623
0.0236026
0.0270407
0.0310419
0.0351224
0.0386752
0.041268
0.0431739
0.0451973
0.0470143
0.0492466
0.0524782
0.0557634
0.0594932
0.0631358
0.0669264
0.0707572
0.0746896
0.0786629
0.0826495
0.0866554
0.0906987
0.0947774
0.0988588
0.102901
0.106868
0.110729
0.114459
0.118034
0.121427
0.124611
0.127561
0.130259
0.13269
0.134837
0.136675
0.138176
0.13931
0.140049
0.140363
0.140225
0.139611
0.138494
0.136872
0.134765
0.132243
0.129285
0.125714
0.121282
0.115851
0.110223
0.104882
0.0994906
0.0941021
0.0887533
0.0834766
0.0782971
0.0732354
0.0683072
0.0635251
0.0588983
0.0544337
0.0501359
0.0460076
0.0420498
0.0382619
0.0346422
0.0311878
0.027895
0.0247591
0.0217751
0.0189373
0.01624
0.0136772
0.0112426
0.0089303
0.00673747
0.0046575
0.00264849
0.000735733
0.000297458
0.000864209
0.00145409
0.00206778
0.00270395
0.00336304
0.00404567
0.00475257
0.00548511
0.00624588
0.00703959
0.0078747
0.00876459
0.00972949
0.0107979
0.0120069
0.0134012
0.0150304
0.0169437
0.0191958
0.0218365
0.0249735
0.0286904
0.0330197
0.0373657
0.0410131
0.0436746
0.0458769
0.0480484
0.0498451
0.0521164
0.0554174
0.0588813
0.0627714
0.0666068
0.0705784
0.0745925
0.0787103
0.0828737
0.0870562
0.0912643
0.0955187
0.0998177
0.104128
0.108403
0.112606
0.116704
0.12067
0.124477
0.128097
0.131501
0.134662
0.137562
0.140183
0.142508
0.14451
0.146159
0.147422
0.148267
0.148663
0.14858
0.147991
0.146867
0.145206
0.14303
0.140409
0.137324
0.133584
0.128927
0.123198
0.117248
0.111594
0.105881
0.100167
0.0944912
0.0888886
0.0833861
0.0780061
0.0727659
0.0676792
0.0627563
0.0580048
0.0534299
0.0490348
0.0448206
0.0407871
0.0369324
0.0332539
0.0297475
0.0264085
0.0232315
0.0202102
0.0173383
0.014609
0.0120151
0.00954904
0.0072061
0.00498152
0.00284467
0.000817558
0.000315308
0.000916381
0.00154148
0.0021914
0.00286461
0.00356148
0.00428247
0.00502814
0.0057997
0.00659965
0.00743279
0.00830773
0.00923854
0.0102466
0.0113624
0.0126254
0.0140835
0.0157901
0.0177988
0.020168
0.0229576
0.0262799
0.0302426
0.0348658
0.0394462
0.0431228
0.0458649
0.0483709
0.0507151
0.0525377
0.0548794
0.0582869
0.0619402
0.0660021
0.0700354
0.0741939
0.0783978
0.082708
0.0870688
0.0914543
0.0958723
0.100346
0.104874
0.109421
0.11394
0.118389
0.122733
0.126945
0.130996
0.134854
0.13849
0.141875
0.144988
0.147812
0.150327
0.152507
0.154317
0.155721
0.156686
0.157176
0.157159
0.156606
0.155486
0.153794
0.151555
0.14884
0.145629
0.141722
0.136835
0.130801
0.12452
0.118543
0.112497
0.106447
0.100434
0.0944943
0.0886583
0.0829496
0.0773872
0.0719859
0.0667571
0.061709
0.0568476
0.0521762
0.0476964
0.0434081
0.0393097
0.0353982
0.0316696
0.0281189
0.0247401
0.0215269
0.0184722
0.0155688
0.0128094
0.0101862
0.00769289
0.0053246
0.00305789
0.000908293
0.000331933
0.000966855
0.00162665
0.00231202
0.00302159
0.0037556
0.00451433
0.00529826
0.00610851
0.00694752
0.00782017
0.00873531
0.00970765
0.0107598
0.0119237
0.0132413
0.0147613
0.0165427
0.0186412
0.0211184
0.0240417
0.0275282
0.0316906
0.0365534
0.0413331
0.0449795
0.0478213
0.0506289
0.0531702
0.0550792
0.0575404
0.0610959
0.0649499
0.0691917
0.0734246
0.077773
0.0821718
0.0866804
0.0912455
0.0958412
0.100476
0.105177
0.109943
0.114738
0.11951
0.124215
0.128817
0.133286
0.137592
0.141701
0.145581
0.149202
0.152542
0.155582
0.158303
0.160674
0.162659
0.164219
0.165317
0.165915
0.165978
0.165472
0.164366
0.162651
0.160357
0.157552
0.154218
0.150144
0.145023
0.13868
0.132057
0.125745
0.119356
0.112958
0.106596
0.100309
0.0941282
0.0880798
0.0821843
0.0764577
0.0709122
0.0655569
0.0603983
0.0554403
0.0506847
0.0461317
0.0417797
0.0376259
0.033666
0.0298949
0.0263064
0.0228937
0.0196494
0.016566
0.0136357
0.0108507
0.0082035
0.00568775
0.00328578
0.00100801
0.000348908
0.00101757
0.001711
0.0024311
0.00317659
0.00394737
0.00474364
0.00556583
0.00641503
0.00729373
0.00820692
0.00916376
0.0101796
0.0112778
0.0124918
0.0138649
0.0154496
0.0173038
0.0194868
0.0220624
0.0251023
0.0287258
0.033049
0.0380096
0.042981
0.0465971
0.0495333
0.0526332
0.0553908
0.0574574
0.0601025
0.0638515
0.0679182
0.0723452
0.0767763
0.0813156
0.0859127
0.0906255
0.0954012
0.100214
0.105074
0.11001
0.115023
0.120075
0.125111
0.130084
0.134955
0.139693
0.144266
0.148639
0.152777
0.156648
0.160229
0.163501
0.166441
0.169019
0.171195
0.172926
0.174173
0.174893
0.175048
0.174603
0.173522
0.171795
0.169453
0.166565
0.163111
0.158868
0.153512
0.146852
0.139877
0.133221
0.126476
0.11972
0.112996
0.106349
0.0998119
0.093412
0.0871715
0.0811075
0.0752335
0.0695593
0.0640918
0.0588358
0.0537933
0.0489649
0.0443491
0.0399431
0.0357426
0.0317422
0.0279355
0.0243153
0.0208739
0.0176031
0.0144947
0.0115407
0.00873275
0.00606349
0.00351895
0.00110733
0.0003693
0.00107041
0.00179592
0.00255028
0.00333131
0.00413858
0.00497239
0.00583318
0.00672203
0.0076415
0.00859683
0.00959752
0.0106594
0.0118069
0.0130741
0.0145059
0.0161555
0.0180817
0.0203446
0.0230085
0.0261462
0.0298714
0.0343006
0.0393441
0.0442716
0.0479146
0.051038
0.054377
0.0573611
0.0596622
0.062567
0.0665577
0.0708498
0.0754652
0.0800911
0.0848205
0.0896188
0.0945407
0.0995333
0.10457
0.109662
0.114842
0.120112
0.125431
0.130742
0.135994
0.141146
0.146166
0.151019
0.15567
0.16008
0.164216
0.168054
0.171573
0.17475
0.177551
0.179934
0.181853
0.183264
0.184122
0.184385
0.184014
0.182972
0.181244
0.178863
0.175897
0.172326
0.167916
0.162321
0.155339
0.148001
0.14099
0.133879
0.12675
0.119654
0.112634
0.105727
0.0989621
0.0923634
0.085949
0.0797334
0.0737273
0.0679385
0.0623721
0.057031
0.0519157
0.0470252
0.0423565
0.0379053
0.033666
0.0296319
0.0257952
0.0221479
0.0186813
0.0153866
0.0122552
0.00927865
0.00644863
0.00375328
0.00120081
0.000392025
0.0011236
0.00188079
0.00266934
0.00348568
0.00432947
0.0052012
0.00610126
0.00703076