/*--------------------------------*- C++ -*----------------------------------*\
  =========                 |
  \\      /  F ield         | OpenFOAM: The Open Source CFD Toolbox
   \\    /   O peration     | Website:  https://openfoam.org
    \\  /    A nd           | Version:  9
     \\/     M anipulation  |
\*---------------------------------------------------------------------------*/
FoamFile
{
    format      ascii;
    class       surfaceScalarField;
    location    "0.14";
    object      phi;
}
// * * * * * * * * * * * * * * * * * * * * * * * * * * * * * * * * * * * * * //

dimensions      [0 3 -1 0 0 0 0];

internalField   nonuniform List<scalar> 
39700
(
-4.46909e-08
2.43677e-06
-4.46295e-08
2.55271e-06
-4.45776e-08
2.6728e-06
-4.45206e-08
2.79747e-06
-4.44521e-08
2.92698e-06
-4.43754e-08
3.06152e-06
-4.43031e-08
3.2014e-06
-4.4257e-08
3.34736e-06
-4.42616e-08
3.50111e-06
-4.43185e-08
3.66608e-06
-4.43546e-08
3.8482e-06
-4.4177e-08
4.05595e-06
-4.35225e-08
4.2986e-06
-4.22473e-08
4.58254e-06
-4.05095e-08
4.90784e-06
-3.87129e-08
5.26826e-06
-3.72348e-08
5.65497e-06
-3.6234e-08
6.06113e-06
-3.56749e-08
6.48397e-06
-3.54702e-08
6.92426e-06
-3.5645e-08
7.38494e-06
-3.65971e-08
7.87035e-06
-3.95078e-08
8.38421e-06
-4.51518e-08
8.90239e-06
-3.96794e-08
9.23459e-06
2.07845e-08
8.42426e-06
-1.1096e-07
5.46304e-06
-4.92409e-08
9.01839e-06
-4.42629e-08
1.12071e-05
-5.07345e-08
1.18732e-05
-5.32861e-08
1.42484e-05
-5.29012e-08
1.38879e-05
-5.15139e-08
1.3518e-05
-4.93251e-08
1.31399e-05
-4.71307e-08
1.284e-05
-4.57807e-08
1.27235e-05
-4.53446e-08
1.2742e-05
-4.53147e-08
1.27614e-05
-4.50762e-08
1.27381e-05
-4.45906e-08
1.27283e-05
-4.41487e-08
1.27866e-05
-4.4066e-08
1.28926e-05
-4.43258e-08
1.29907e-05
-4.46987e-08
1.30517e-05
-4.50094e-08
1.30772e-05
-4.52178e-08
1.30791e-05
-4.53431e-08
1.30679e-05
-4.54179e-08
1.30493e-05
-4.54508e-08
1.30255e-05
-4.54147e-08
1.29972e-05
-4.52704e-08
1.29685e-05
-4.50137e-08
1.29493e-05
-4.47046e-08
1.2952e-05
-4.44385e-08
1.29822e-05
-4.42899e-08
1.30336e-05
-4.42725e-08
1.30928e-05
-4.43574e-08
1.31489e-05
-4.45149e-08
1.31964e-05
-4.47383e-08
1.32328e-05
-4.50482e-08
1.32563e-05
-4.54832e-08
1.3264e-05
-4.61692e-08
1.325e-05
-4.72135e-08
1.31976e-05
-4.81764e-08
1.30578e-05
-4.75459e-08
1.27384e-05
-4.55833e-08
1.22357e-05
-4.43878e-08
1.19445e-05
-4.23378e-08
1.22586e-05
-4.176e-08
1.2766e-05
-4.28178e-08
1.30832e-05
-4.38002e-08
1.07941e-05
-4.44627e-08
1.03233e-05
-4.48958e-08
9.85058e-06
-4.5207e-08
9.38857e-06
-4.54459e-08
8.94118e-06
-4.56365e-08
8.5102e-06
-4.57928e-08
8.09652e-06
-4.59254e-08
7.70043e-06
-4.60418e-08
7.32177e-06
-4.61466e-08
6.9601e-06
-4.62422e-08
6.61487e-06
-4.63292e-08
6.28543e-06
-4.64065e-08
5.97114e-06
-4.64726e-08
5.67136e-06
-4.65246e-08
5.3855e-06
-4.65596e-08
5.11297e-06
-4.65747e-08
4.85324e-06
-4.65674e-08
4.60583e-06
-4.65365e-08
4.3703e-06
-4.64825e-08
4.14626e-06
-4.64078e-08
3.93333e-06
-4.63163e-08
3.73116e-06
-4.62132e-08
3.53939e-06
-4.61041e-08
3.35764e-06
-4.5994e-08
3.18547e-06
-4.58861e-08
3.0224e-06
-4.57828e-08
2.86789e-06
-4.56882e-08
2.72135e-06
-4.56096e-08
2.58222e-06
2.44984e-06
-4.32271e-08
2.43653e-06
-4.30713e-08
2.55256e-06
-4.29322e-08
2.67266e-06
-4.27772e-08
2.79731e-06
-4.25871e-08
2.92679e-06
-4.23613e-08
3.0613e-06
-4.21143e-08
3.20115e-06
-4.18724e-08
3.34712e-06
-4.16615e-08
3.5009e-06
-4.14686e-08
3.66588e-06
-4.11728e-08
3.8479e-06
-4.04874e-08
4.05527e-06
-3.90215e-08
4.29713e-06
-3.65289e-08
4.58005e-06
-3.31537e-08
4.90447e-06
-2.94821e-08
5.26459e-06
-2.6187e-08
5.65168e-06
-2.37177e-08
6.05866e-06
-2.22292e-08
6.48248e-06
-2.17493e-08
6.92378e-06
-2.24564e-08
7.38564e-06
-2.50132e-08
7.8729e-06
-3.0332e-08
8.38953e-06
-3.44752e-08
8.90653e-06
-1.75665e-08
9.21769e-06
4.2479e-08
8.36421e-06
-1.34082e-07
5.6396e-06
-7.00241e-08
8.95434e-06
-5.02732e-08
1.11873e-05
-5.78049e-08
1.18807e-05
-6.4646e-08
1.42552e-05
-6.44352e-08
1.38877e-05
-6.13214e-08
1.35149e-05
-5.65103e-08
1.31351e-05
-5.17793e-08
1.28352e-05
-4.8487e-08
1.27202e-05
-4.68186e-08
1.27403e-05
-4.60813e-08
1.27607e-05
-4.53212e-08
1.27373e-05
-4.42776e-08
1.27272e-05
-4.33572e-08
1.27857e-05
-4.30771e-08
1.28923e-05
-4.34991e-08
1.29911e-05
-4.42523e-08
1.30525e-05
-4.49684e-08
1.30779e-05
-4.54951e-08
1.30796e-05
-4.58323e-08
1.30682e-05
-4.60213e-08
1.30495e-05
-4.60704e-08
1.30255e-05
-4.59338e-08
1.29971e-05
-4.5557e-08
1.29681e-05
-4.49557e-08
1.29487e-05
-4.42532e-08
1.29513e-05
-4.36367e-08
1.29816e-05
-4.32632e-08
1.30332e-05
-4.31876e-08
1.30927e-05
-4.33773e-08
1.31491e-05
-4.37821e-08
1.31968e-05
-4.4388e-08
1.32334e-05
-4.52366e-08
1.32571e-05
-4.64229e-08
1.32652e-05
-4.81251e-08
1.32517e-05
-5.02526e-08
1.31997e-05
-5.15807e-08
1.30591e-05
-4.98008e-08
1.27367e-05
-4.61036e-08
1.2232e-05
-4.3519e-08
1.19419e-05
-3.94887e-08
1.22546e-05
-3.77036e-08
1.27642e-05
-3.92878e-08
1.30848e-05
-4.12587e-08
1.07961e-05
-4.28809e-08
1.03249e-05
-4.40591e-08
9.85176e-06
-4.49317e-08
9.38945e-06
-4.56146e-08
8.94187e-06
-4.61616e-08
8.51075e-06
-4.66122e-08
8.09698e-06
-4.69931e-08
7.70081e-06
-4.73228e-08
7.3221e-06
-4.76127e-08
6.96039e-06
-4.78691e-08
6.61512e-06
-4.80937e-08
6.28565e-06
-4.82855e-08
5.97133e-06
-4.84409e-08
5.67152e-06
-4.85555e-08
5.38561e-06
-4.86245e-08
5.11304e-06
-4.86441e-08
4.85326e-06
-4.86125e-08
4.6058e-06
-4.85312e-08
4.37022e-06
-4.84046e-08
4.14613e-06
-4.82409e-08
3.93316e-06
-4.80507e-08
3.73097e-06
-4.78457e-08
3.53919e-06
-4.76374e-08
3.35743e-06
-4.7435e-08
3.18527e-06
-4.7244e-08
3.02221e-06
-4.70682e-08
2.86772e-06
-4.69157e-08
2.7212e-06
-4.68015e-08
2.5821e-06
2.44977e-06
-4.13173e-08
2.43632e-06
-4.11127e-08
2.55235e-06
-4.09074e-08
2.67246e-06
-4.06684e-08
2.79707e-06
-4.03712e-08
2.92649e-06
-4.00109e-08
3.06094e-06
-3.95998e-08
3.20074e-06
-3.91628e-08
3.34668e-06
-3.87227e-08
3.50046e-06
-3.82574e-08
3.66542e-06
-3.76232e-08
3.84727e-06
-3.64887e-08
4.05413e-06
-3.4397e-08
4.29504e-06
-3.10376e-08
4.57669e-06
-2.66034e-08
4.90003e-06
-2.17528e-08
5.25974e-06
-1.73121e-08
5.64724e-06
-1.3888e-08
6.05524e-06
-1.17619e-08
6.48035e-06
-1.10436e-08
6.92307e-06
-1.19071e-08
7.38651e-06
-1.48348e-08
7.87583e-06
-2.07274e-08
8.39543e-06
-2.56407e-08
8.91144e-06
-7.0267e-09
9.19907e-06
5.18193e-08
8.30537e-06
-1.43614e-07
5.83503e-06
-7.93952e-08
8.89012e-06
-5.68713e-08
1.11648e-05
-6.61071e-08
1.18899e-05
-7.39099e-08
1.4263e-05
-7.35514e-08
1.38873e-05
-6.94648e-08
1.35108e-05
-6.29155e-08
1.31285e-05
-5.63282e-08
1.28286e-05
-5.15025e-08
1.27154e-05
-4.87422e-08
1.27376e-05
-4.72647e-08
1.27592e-05
-4.59242e-08
1.2736e-05
-4.43792e-08
1.27257e-05
-4.30725e-08
1.27844e-05
-4.26211e-08
1.28918e-05
-4.31092e-08
1.29916e-05
-4.40828e-08
1.30534e-05
-4.50609e-08
1.30789e-05
-4.58155e-08
1.30804e-05
-4.63111e-08
1.30687e-05
-4.65811e-08
1.30498e-05
-4.66284e-08
1.30256e-05
-4.63989e-08
1.29968e-05
-4.58329e-08
1.29675e-05
-4.49643e-08
1.29478e-05
-4.39625e-08
1.29503e-05
-4.30801e-08
1.29807e-05
-4.25318e-08
1.30326e-05
-4.24054e-08
1.30926e-05
-4.26742e-08
1.31494e-05
-4.32818e-08
1.31974e-05
-4.42102e-08
1.32343e-05
-4.55059e-08
1.32584e-05
-4.72736e-08
1.3267e-05
-4.96365e-08
1.3254e-05
-5.23327e-08
1.32024e-05
-5.377e-08
1.30605e-05
-5.12829e-08
1.27342e-05
-4.64163e-08
1.22271e-05
-4.26897e-08
1.19382e-05
-3.72918e-08
1.22492e-05
-3.47122e-08
1.27617e-05
-3.6459e-08
1.30865e-05
-3.89859e-08
1.07986e-05
-4.12282e-08
1.03271e-05
-4.29704e-08
9.8535e-06
-4.43202e-08
9.3908e-06
-4.53916e-08
8.94294e-06
-4.62602e-08
8.51162e-06
-4.69799e-08
8.0977e-06
-4.75878e-08
7.70142e-06
-4.81103e-08
7.32262e-06
-4.85643e-08
6.96085e-06
-4.89593e-08
6.61552e-06
-4.9299e-08
6.28599e-06
-4.9583e-08
5.97161e-06
-4.98079e-08
5.67174e-06
-4.99695e-08
5.38577e-06
-5.00634e-08
5.11313e-06
-5.00872e-08
4.85328e-06
-5.00411e-08
4.60575e-06
-4.99292e-08
4.3701e-06
-4.97598e-08
4.14596e-06
-4.95447e-08
3.93294e-06
-4.92984e-08
3.73072e-06
-4.90363e-08
3.53892e-06
-4.87729e-08
3.35716e-06
-4.85193e-08
3.18501e-06
-4.82826e-08
3.02197e-06
-4.8069e-08
2.8675e-06
-4.78909e-08
2.72102e-06
-4.7772e-08
2.58199e-06
2.44973e-06
-3.92104e-08
2.43611e-06
-3.8979e-08
2.55212e-06
-3.87256e-08
2.6722e-06
-3.84202e-08
2.79677e-06
-3.80367e-08
2.92611e-06
-3.75679e-08
3.06047e-06
-3.7024e-08
3.2002e-06
-3.64266e-08
3.34609e-06
-3.57922e-08
3.49982e-06
-3.50859e-08
3.66471e-06
-3.41429e-08
3.84633e-06
-3.26043e-08
4.05259e-06
-2.99839e-08
4.29242e-06
-2.59522e-08
4.57266e-06
-2.06942e-08
4.89478e-06
-1.49343e-08
5.25398e-06
-9.60688e-09
5.64191e-06
-5.43411e-09
6.05107e-06
-2.77937e-09
6.4777e-06
-1.80171e-09
6.92209e-06
-2.73415e-09
7.38744e-06
-6.16018e-09
7.87926e-06
-1.34211e-08
8.40269e-06
-2.08264e-08
8.91885e-06
-2.49137e-09
9.18074e-06
5.26329e-08
8.25024e-06
-1.42052e-07
6.02972e-06
-8.39535e-08
8.83202e-06
-6.09161e-08
1.11418e-05
-7.34496e-08
1.19025e-05
-8.23541e-08
1.42719e-05
-8.17654e-08
1.38867e-05
-7.67819e-08
1.35058e-05
-6.87152e-08
1.31205e-05
-6.05379e-08
1.28205e-05
-5.44322e-08
1.27093e-05
-5.07951e-08
1.27339e-05
-4.86976e-08
1.27571e-05
-4.68127e-08
1.27341e-05
-4.47588e-08
1.27236e-05
-4.30727e-08
1.27827e-05
-4.24601e-08
1.28912e-05
-4.29985e-08
1.29921e-05
-4.4143e-08
1.30546e-05
-4.53186e-08
1.308e-05
-4.62395e-08
1.30813e-05
-4.6849e-08
1.30693e-05
-4.71734e-08
1.30501e-05
-4.72086e-08
1.30256e-05
-4.68907e-08
1.29965e-05
-4.61526e-08
1.29668e-05
-4.50428e-08
1.29467e-05
-4.37744e-08
1.2949e-05
-4.26578e-08
1.29796e-05
-4.19586e-08
1.30319e-05
-4.1789e-08
1.30924e-05
-4.21242e-08
1.31497e-05
-4.29012e-08
1.31981e-05
-4.40968e-08
1.32355e-05
-4.57538e-08
1.32601e-05
-4.79658e-08
1.32692e-05
-5.08315e-08
1.32569e-05
-5.39995e-08
1.32056e-05
-5.55857e-08
1.30621e-05
-5.25142e-08
1.27311e-05
-4.6513e-08
1.22211e-05
-4.16409e-08
1.19333e-05
-3.51086e-08
1.22426e-05
-3.19792e-08
1.27585e-05
-3.39296e-08
1.30885e-05
-3.69015e-08
1.08016e-05
-3.96123e-08
1.03298e-05
-4.17838e-08
9.85568e-06
-4.35114e-08
9.39253e-06
-4.49082e-08
8.94434e-06
-4.60554e-08
8.51277e-06
-4.70105e-08
8.09865e-06
-4.78183e-08
7.70223e-06
-4.85109e-08
7.32332e-06
-4.91094e-08
6.96145e-06
-4.96261e-08
6.61604e-06
-5.00663e-08
6.28643e-06
-5.04307e-08
5.97198e-06
-5.07166e-08
5.67203e-06
-5.09205e-08
5.38598e-06
-5.10388e-08
5.11324e-06
-5.10702e-08
4.85331e-06
-5.10165e-08
4.60569e-06
-5.08837e-08
4.36997e-06
-5.06826e-08
4.14575e-06
-5.04277e-08
3.93269e-06
-5.01362e-08
3.73043e-06
-4.98262e-08
3.53861e-06
-4.95144e-08
3.35685e-06
-4.92141e-08
3.18471e-06
-4.89345e-08
3.02169e-06
-4.86851e-08
2.86725e-06
-4.84827e-08
2.72082e-06
-4.83525e-08
2.58185e-06
2.44968e-06
-3.70192e-08
2.4359e-06
-3.67709e-08
2.55187e-06
-3.64792e-08
2.67191e-06
-3.6119e-08
2.79641e-06
-3.56647e-08
2.92566e-06
-3.51066e-08
3.05991e-06
-3.44506e-08
3.19954e-06
-3.3713e-08
3.34535e-06
-3.29017e-08
3.49901e-06
-3.19711e-08
3.66378e-06
-3.07463e-08
3.8451e-06
-2.88642e-08
4.05071e-06
-2.58375e-08
4.2894e-06
-2.13268e-08
4.56815e-06
-1.549e-08
4.88894e-06
-9.06195e-09
5.24755e-06
-3.04107e-09
5.63589e-06
1.74941e-09
6.04628e-06
4.84768e-09
6.4746e-06
6.00862e-09
6.92093e-06
4.87009e-09
7.38858e-06
6.92236e-10
7.88344e-06
-7.97196e-09
8.41135e-06
-1.76061e-08
8.92848e-06
-2.01994e-10
9.16333e-06
4.75927e-08
8.20245e-06
-1.34501e-07
6.21181e-06
-8.6579e-08
8.78409e-06
-6.43832e-08
1.11196e-05
-7.96739e-08
1.19178e-05
-8.96573e-08
1.42819e-05
-8.91477e-08
1.38862e-05
-8.33499e-08
1.35e-05
-7.39843e-08
1.31111e-05
-6.45154e-08
1.2811e-05
-5.73588e-08
1.27021e-05
-5.29565e-08
1.27295e-05
-5.0281e-08
1.27545e-05
-4.78951e-08
1.27317e-05
-4.53945e-08
1.27211e-05
-4.33688e-08
1.27807e-05
-4.25949e-08
1.28904e-05
-4.31469e-08
1.29927e-05
-4.44108e-08
1.30558e-05
-4.57327e-08
1.30814e-05
-4.6777e-08
1.30823e-05
-4.74674e-08
1.307e-05
-4.78231e-08
1.30505e-05
-4.78327e-08
1.30256e-05
-4.74232e-08
1.29961e-05
-4.65236e-08
1.29659e-05
-4.51967e-08
1.29454e-05
-4.36929e-08
1.29475e-05
-4.237e-08
1.29783e-05
-4.15343e-08
1.30311e-05
-4.1319e-08
1.30922e-05
-4.17019e-08
1.31501e-05
-4.26135e-08
1.31991e-05
-4.40238e-08
1.32369e-05
-4.59695e-08
1.3262e-05
-4.85389e-08
1.32718e-05
-5.1816e-08
1.32602e-05
-5.53596e-08
1.32091e-05
-5.69897e-08
1.30638e-05
-5.3331e-08
1.27274e-05
-4.6357e-08
1.22141e-05
-4.04918e-08
1.19274e-05
-3.30912e-08
1.22352e-05
-2.94816e-08
1.27549e-05
-3.15491e-08
1.30905e-05
-3.48665e-08
1.08049e-05
-3.79544e-08
1.03329e-05
-4.04729e-08
9.8582e-06
-4.25087e-08
9.39457e-06
-4.41751e-08
8.94601e-06
-4.55548e-08
8.51415e-06
-4.67106e-08
8.09981e-06
-4.76909e-08
7.70321e-06
-4.85311e-08
7.32416e-06
-4.92552e-08
6.96217e-06
-4.98775e-08
6.61666e-06
-5.04048e-08
6.28696e-06
-5.08385e-08
5.97241e-06
-5.11769e-08
5.67237e-06
-5.1417e-08
5.38621e-06
-5.1556e-08
5.11338e-06
-5.15938e-08
4.85335e-06
-5.15334e-08
4.60563e-06
-5.13831e-08
4.36982e-06
-5.11554e-08
4.14552e-06
-5.08676e-08
3.9324e-06
-5.05392e-08
3.7301e-06
-5.01906e-08
3.53826e-06
-4.98405e-08
3.3565e-06
-4.95037e-08
3.18437e-06
-4.91914e-08
3.02138e-06
-4.89157e-08
2.86698e-06
-4.86964e-08
2.7206e-06
-4.85577e-08
2.58172e-06
2.44963e-06
-3.48247e-08
2.4357e-06
-3.45657e-08
2.55161e-06
-3.4243e-08
2.67159e-06
-3.38354e-08
2.796e-06
-3.33195e-08
2.92514e-06
-3.26832e-08
3.05927e-06
-3.19286e-08
3.19879e-06
-3.10664e-08
3.34449e-06
-3.0098e-08
3.49804e-06
-2.89714e-08
3.66266e-06
-2.75105e-08
3.84364e-06
-2.53588e-08
4.04856e-06
-2.20374e-08
4.28608e-06
-1.71988e-08
4.56331e-06
-1.09694e-08
4.88271e-06
-4.06592e-09
5.24065e-06
2.47908e-09
5.62935e-06
7.75816e-09
6.041e-06
1.12089e-08
6.47115e-06
1.24986e-08
6.91964e-06
1.11571e-08
7.38992e-06
6.29708e-09
7.8883e-06
-3.46242e-09
8.42111e-06
-1.48897e-08
8.93991e-06
1.29131e-09
9.14715e-06
4.16497e-08
8.16209e-06
-1.26819e-07
6.38028e-06
-8.85921e-08
8.74587e-06
-6.78305e-08
1.10988e-05
-8.52821e-08
1.19352e-05
-9.60405e-08
1.42927e-05
-9.57402e-08
1.38859e-05
-8.92212e-08
1.34935e-05
-7.87935e-08
1.31007e-05
-6.83086e-08
1.28005e-05
-6.03029e-08
1.26941e-05
-5.52195e-08
1.27245e-05
-5.1993e-08
1.27512e-05
-4.91461e-08
1.27289e-05
-4.6258e-08
1.27183e-05
-4.39435e-08
1.27784e-05
-4.301e-08
1.28895e-05
-4.3541e-08
1.29932e-05
-4.48773e-08
1.30572e-05
-4.63009e-08
1.30828e-05
-4.74328e-08
1.30835e-05
-4.81768e-08
1.30708e-05
-4.85438e-08
1.30508e-05
-4.85151e-08
1.30256e-05
-4.80096e-08
1.29956e-05
-4.69564e-08
1.29649e-05
-4.54333e-08
1.29438e-05
-4.37208e-08
1.29458e-05
-4.22136e-08
1.29768e-05
-4.125e-08
1.30301e-05
-4.09821e-08
1.30919e-05
-4.13913e-08
1.31505e-05
-4.24033e-08
1.32001e-05
-4.39814e-08
1.32385e-05
-4.61557e-08
1.32642e-05
-4.90094e-08
1.32746e-05
-5.261e-08
1.32638e-05
-5.64258e-08
1.32129e-05
-5.79945e-08
1.30653e-05
-5.37247e-08
1.27232e-05
-4.59467e-08
1.22064e-05
-3.93369e-08
1.19208e-05
-3.1256e-08
1.22272e-05
-2.71582e-08
1.27508e-05
-2.92397e-08
1.30926e-05
-3.28129e-08
1.08084e-05
-3.61986e-08
1.03363e-05
-3.89977e-08
9.861e-06
-4.12855e-08
9.39685e-06
-4.31743e-08
8.9479e-06
-4.47494e-08
8.51573e-06
-4.60755e-08
8.10114e-06
-4.72029e-08
7.70434e-06
-4.81693e-08
7.32512e-06
-4.90009e-08
6.963e-06
-4.97134e-08
6.61737e-06
-5.03145e-08
6.28756e-06
-5.08067e-08
5.9729e-06
-5.11889e-08
5.67275e-06
-5.14586e-08
5.38648e-06
-5.16142e-08
5.11354e-06
-5.16566e-08
4.85339e-06
-5.15906e-08
4.60556e-06
-5.14261e-08
4.36965e-06
-5.11779e-08
4.14527e-06
-5.08654e-08
3.93208e-06
-5.05101e-08
3.72974e-06
-5.01343e-08
3.53788e-06
-4.97578e-08
3.35612e-06
-4.93968e-08
3.18401e-06
-4.9064e-08
3.02105e-06
-4.87738e-08
2.86668e-06
-4.8547e-08
2.72037e-06
-4.8405e-08
2.58157e-06
2.44959e-06
-3.27198e-08
2.43551e-06
-3.24542e-08
2.55135e-06
-3.21069e-08
2.67124e-06
-3.16595e-08
2.79555e-06
-3.10906e-08
2.92457e-06
-3.03876e-08
3.05857e-06
-2.95496e-08
3.19795e-06
-2.85836e-08
3.34352e-06
-2.7486e-08
3.49695e-06
-2.62009e-08
3.66137e-06
-2.45529e-08
3.84199e-06
-2.21936e-08
4.0462e-06
-1.86527e-08
4.28253e-06
-1.3575e-08
4.55824e-06
-7.05539e-09
4.87619e-06
2.14185e-10
5.23338e-06
7.18258e-09
5.62238e-06
1.28732e-08
6.03531e-06
1.66396e-08
6.46738e-06
1.80828e-08
6.9182e-06
1.66551e-08
7.39135e-06
1.12644e-08
7.89369e-06
5.47917e-10
8.43183e-06
-1.22852e-08
8.95274e-06
3.00271e-09
9.13186e-06
3.65651e-08
8.12852e-06
-1.20507e-07
6.53735e-06
-9.09685e-08
8.71633e-06
-7.13618e-08
1.10792e-05
-9.05656e-08
1.19544e-05
-1.01988e-07
1.43041e-05
-1.01811e-07
1.38858e-05
-9.45597e-08
1.34862e-05
-8.32272e-08
1.30893e-05
-7.19189e-08
1.27892e-05
-6.32214e-08
1.26854e-05
-5.75408e-08
1.27188e-05
-5.38079e-08
1.27475e-05
-5.05458e-08
1.27256e-05
-4.73226e-08
1.2715e-05
-4.47488e-08
1.27758e-05
-4.3657e-08
1.28884e-05
-4.41476e-08
1.29937e-05
-4.55273e-08
1.30586e-05
-4.70215e-08
1.30843e-05
-4.82131e-08
1.30847e-05
-4.89882e-08
1.30715e-05
-4.93499e-08
1.30512e-05
-4.92721e-08
1.30255e-05
-4.86664e-08
1.2995e-05
-4.74638e-08
1.29637e-05
-4.57564e-08
1.29421e-05
-4.38507e-08
1.29439e-05
-4.21709e-08
1.29751e-05
-4.10817e-08
1.30291e-05
-4.0752e-08
1.30916e-05
-4.11674e-08
1.31509e-05
-4.22489e-08
1.32011e-05
-4.39529e-08
1.32402e-05
-4.63029e-08
1.32666e-05
-4.93769e-08
1.32777e-05
-5.32324e-08
1.32676e-05
-5.72565e-08
1.3217e-05
-5.87044e-08
1.30668e-05
-5.37934e-08
1.27183e-05
-4.53317e-08
1.21979e-05
-3.81547e-08
1.19137e-05
-2.94978e-08
1.22185e-05
-2.48818e-08
1.27462e-05
-2.69177e-08
1.30947e-05
-3.06977e-08
1.08122e-05
-3.43255e-08
1.03399e-05
-3.73494e-08
9.86402e-06
-3.98406e-08
9.39934e-06
-4.19122e-08
8.94997e-06
-4.36493e-08
8.51746e-06
-4.51171e-08
8.10261e-06
-4.63677e-08
7.70559e-06
-4.74404e-08
7.3262e-06
-4.83625e-08
6.96393e-06
-4.9151e-08
6.61816e-06
-4.98143e-08
6.28822e-06
-5.03556e-08
5.97344e-06
-5.07743e-08
5.67317e-06
-5.10689e-08
5.38678e-06
-5.12385e-08
5.11371e-06
-5.12851e-08
4.85343e-06
-5.1215e-08
4.60549e-06
-5.10397e-08
4.36948e-06
-5.0776e-08
4.14501e-06
-5.04447e-08
3.93175e-06
-5.00694e-08
3.72936e-06
-4.96734e-08
3.53749e-06
-4.9278e-08
3.35573e-06
-4.89007e-08
3.18363e-06
-4.85565e-08
3.0207e-06
-4.82617e-08
2.86639e-06
-4.80362e-08
2.72015e-06
-4.78969e-08
2.58143e-06
2.44954e-06
-3.07883e-08
2.43532e-06
-3.05188e-08
2.55108e-06
-3.01531e-08
2.67088e-06
-2.96733e-08
2.79507e-06
-2.90607e-08
2.92396e-06
-2.83029e-08
3.05781e-06
-2.73972e-08
3.19705e-06
-2.63473e-08
3.34247e-06
-2.51455e-08
3.49575e-06
-2.37326e-08
3.65996e-06
-2.19344e-08
3.8402e-06
-1.94098e-08
4.04368e-06
-1.56972e-08
4.27882e-06
-1.04335e-08
4.55297e-06
-3.68201e-09
4.86944e-06
3.89705e-09
5.2258e-06
1.12459e-08
5.61503e-06
1.73306e-08
6.02923e-06
2.14339e-08
6.46328e-06
2.30999e-08
6.91653e-06
2.17146e-08
7.39273e-06
1.59337e-08
7.89947e-06
4.36357e-09
8.4434e-06
-9.23861e-09
8.96634e-06
5.76405e-09
9.11686e-06
3.23462e-08
8.10194e-06
-1.15072e-07
6.68477e-06
-9.44099e-08
8.69566e-06
-7.54251e-08
1.10602e-05
-9.57163e-08
1.19747e-05
-1.07842e-07
1.43162e-05
-1.07601e-07
1.38855e-05
-9.95349e-08
1.34781e-05
-8.73617e-08
1.30772e-05
-7.5345e-08
1.27772e-05
-6.60715e-08
1.26762e-05
-5.9874e-08
1.27126e-05
-5.569e-08
1.27433e-05
-5.20607e-08
1.2722e-05
-4.85433e-08
1.27115e-05
-4.57377e-08
1.2773e-05
-4.44923e-08
1.28872e-05
-4.49355e-08
1.29941e-05
-4.63439e-08
1.306e-05
-4.78908e-08
1.30858e-05
-4.91225e-08
1.30859e-05
-4.9911e-08
1.30723e-05
-5.02535e-08
1.30515e-05
-5.01174e-08
1.30254e-05
-4.94067e-08
1.29943e-05
-4.80545e-08
1.29623e-05
-4.61668e-08
1.29402e-05
-4.40734e-08
1.29418e-05
-4.22239e-08
1.29732e-05
-4.10062e-08
1.30278e-05
-4.06044e-08
1.30912e-05
-4.10071e-08
1.31513e-05
-4.21302e-08
1.32023e-05
-4.39228e-08
1.3242e-05
-4.64024e-08
1.3269e-05
-4.9648e-08
1.32809e-05
-5.37174e-08
1.32717e-05
-5.79176e-08
1.32212e-05
-5.92049e-08
1.30681e-05
-5.36196e-08
1.27127e-05
-4.44803e-08
1.21887e-05
-3.68754e-08
1.1906e-05
-2.77117e-08
1.22093e-05
-2.25618e-08
1.27411e-05
-2.45189e-08
1.30966e-05
-2.84838e-08
1.08162e-05
-3.23214e-08
1.03438e-05
-3.55286e-08
9.86722e-06
-3.81818e-08
9.402e-06
-4.03995e-08
8.95218e-06
-4.22672e-08
8.51933e-06
-4.38505e-08
8.10419e-06
-4.52019e-08
7.70694e-06
-4.63618e-08
7.32736e-06
-4.73585e-08
6.96492e-06
-4.82096e-08
6.61901e-06
-4.89244e-08
6.28894e-06
-4.95063e-08
5.97402e-06
-4.99553e-08
5.67362e-06
-5.02704e-08
5.38709e-06
-5.04514e-08
5.11389e-06
-5.05011e-08
4.85348e-06
-5.04271e-08
4.60542e-06
-5.02423e-08
4.36929e-06
-4.99648e-08
4.14473e-06
-4.96173e-08
3.93141e-06
-4.92247e-08
3.72897e-06
-4.88118e-08
3.53708e-06
-4.84012e-08
3.35532e-06
-4.80127e-08
3.18325e-06
-4.76635e-08
3.02035e-06
-4.73714e-08
2.8661e-06
-4.71543e-08
2.71993e-06
-4.70232e-08
2.5813e-06
2.44949e-06
-2.90871e-08
2.43513e-06
-2.88143e-08
2.5508e-06
-2.84343e-08
2.6705e-06
-2.79283e-08
2.79457e-06
-2.72796e-08
2.92331e-06
-2.64763e-08
3.05701e-06
-2.55144e-08
3.19608e-06
-2.43945e-08
3.34135e-06
-2.31053e-08
3.49446e-06
-2.15849e-08
3.65844e-06
-1.96609e-08
3.83827e-06
-1.70013e-08
4.04102e-06
-1.31543e-08
4.27498e-06
-7.75113e-09
4.54757e-06
-8.20778e-10
4.86251e-06
7.01853e-09
5.21796e-06
1.47163e-08
5.60733e-06
2.11948e-08
6.02275e-06
2.56737e-08
6.4588e-06
2.76406e-08
6.91456e-06
2.64182e-08
7.39396e-06
2.04241e-08
7.90546e-06
8.26397e-09
8.45555e-06
-5.22129e-09
8.97983e-06
1.00336e-08
9.1016e-06
2.88699e-08
8.0831e-06
-1.101e-07
6.82374e-06
-9.93357e-08
8.6849e-06
-8.06592e-08
1.10415e-05
-1.00974e-07
1.1995e-05
-1.13728e-07
1.4329e-05
-1.13194e-07
1.3885e-05
-1.04233e-07
1.34692e-05
-9.12413e-08
1.30642e-05
-7.85919e-08
1.27645e-05
-6.88332e-08
1.26664e-05
-6.21946e-08
1.27059e-05
-5.76153e-08
1.27387e-05
-5.36636e-08
1.2718e-05
-4.98897e-08
1.27077e-05
-4.68777e-08
1.277e-05
-4.5496e-08
1.28858e-05
-4.589e-08
1.29945e-05
-4.73191e-08
1.30614e-05
-4.89058e-08
1.30874e-05
-5.01629e-08
1.30872e-05
-5.09508e-08
1.30731e-05
-5.12622e-08
1.30519e-05
-5.10587e-08
1.30252e-05
-5.02372e-08
1.29934e-05
-4.87325e-08
1.29608e-05
-4.66642e-08
1.29382e-05
-4.43841e-08
1.29395e-05
-4.23644e-08
1.29712e-05
-4.10132e-08
1.30265e-05
-4.05278e-08
1.30907e-05
-4.08994e-08
1.31517e-05
-4.20382e-08
1.32034e-05
-4.38859e-08
1.32438e-05
-4.64566e-08
1.32716e-05
-4.98369e-08
1.32843e-05
-5.40923e-08
1.32759e-05
-5.84372e-08
1.32255e-05
-5.95189e-08
1.30691e-05
-5.32562e-08
1.27064e-05
-4.34672e-08
1.2179e-05
-3.54502e-08
1.1898e-05
-2.58375e-08
1.21997e-05
-2.01776e-08
1.27354e-05
-2.20237e-08
1.30985e-05
-2.61467e-08
1.08203e-05
-3.01677e-08
1.03478e-05
-3.35254e-08
9.87058e-06
-3.63058e-08
9.40478e-06
-3.86368e-08
8.95451e-06
-4.06062e-08
8.5213e-06
-4.22797e-08
8.10586e-06
-4.37102e-08
7.70837e-06
-4.49389e-08
7.32858e-06
-4.59946e-08
6.96598e-06
-4.68954e-08
6.61991e-06
-4.76508e-08
6.28969e-06
-4.82647e-08
5.97464e-06
-4.87371e-08
5.67409e-06
-4.90674e-08
5.38742e-06
-4.92558e-08
5.11408e-06
-4.9306e-08
4.85354e-06
-4.92263e-08
4.60534e-06
-4.9031e-08
4.3691e-06
-4.87398e-08
4.14444e-06
-4.83766e-08
3.93104e-06
-4.79679e-08
3.72857e-06
-4.75399e-08
3.53665e-06
-4.71169e-08
3.3549e-06
-4.67206e-08
3.18285e-06
-4.63707e-08
3.02001e-06
-4.60858e-08
2.86581e-06
-4.58809e-08
2.71972e-06
-4.5762e-08
2.58119e-06
2.44946e-06
-2.76494e-08
2.43494e-06
-2.73728e-08
2.55053e-06
-2.69807e-08
2.6701e-06
-2.64531e-08
2.79404e-06
-2.57741e-08
2.92263e-06
-2.49325e-08
3.05617e-06
-2.3923e-08
3.19507e-06
-2.27437e-08
3.34017e-06
-2.13799e-08
3.49309e-06
-1.9768e-08
3.65683e-06
-1.77385e-08
3.83624e-06
-1.497e-08
4.03825e-06
-1.10235e-08
4.27103e-06
-5.52696e-09
4.54207e-06
1.52442e-09
4.85546e-06
9.56466e-09
5.20992e-06
1.75661e-08
5.59933e-06
2.44249e-08
6.01589e-06
2.93066e-08
6.45392e-06
3.16439e-08
6.91223e-06
3.06979e-08
7.3949e-06
2.47148e-08
7.91144e-06
1.23949e-08
8.46787e-06
9.39657e-13
8.99222e-06
1.58055e-08
9.0858e-06
2.60835e-08
8.07282e-06
-1.05602e-07
6.95542e-06
-1.05825e-07
8.68512e-06
-8.74879e-08
1.10232e-05
-1.06559e-07
1.20141e-05
-1.19633e-07
1.43421e-05
-1.1857e-07
1.38839e-05
-1.08673e-07
1.34593e-05
-9.48868e-08
1.30504e-05
-8.16673e-08
1.27513e-05
-7.15001e-08
1.26562e-05
-6.44956e-08
1.26989e-05
-5.95777e-08
1.27338e-05
-5.53435e-08
1.27138e-05
-5.13467e-08
1.27037e-05
-4.81592e-08
1.27668e-05
-4.66567e-08
1.28843e-05
-4.70076e-08
1.29949e-05
-4.84504e-08
1.30628e-05
-5.00654e-08
1.3089e-05
-5.13351e-08
1.30884e-05
-5.21101e-08
1.30739e-05
-5.23797e-08
1.30521e-05
-5.21002e-08
1.30249e-05
-5.11614e-08
1.29925e-05
-4.95003e-08
1.29591e-05
-4.725e-08
1.29359e-05
-4.47831e-08
1.2937e-05
-4.25919e-08
1.2969e-05
-4.11018e-08
1.3025e-05
-4.05213e-08
1.30901e-05
-4.08434e-08
1.3152e-05
-4.19729e-08
1.32045e-05
-4.38454e-08
1.32457e-05
-4.64734e-08
1.32742e-05
-4.99559e-08
1.32878e-05
-5.43656e-08
1.32804e-05
-5.88092e-08
1.323e-05
-5.96387e-08
1.307e-05
-5.27292e-08
1.26995e-05
-4.23158e-08
1.21685e-05
-3.38492e-08
1.18896e-05
-2.38449e-08
1.21897e-05
-1.7738e-08
1.27293e-05
-1.94376e-08
1.31001e-05
-2.36739e-08
1.08245e-05
-2.7844e-08
1.0352e-05
-3.13212e-08
9.87406e-06
-3.41977e-08
9.40765e-06
-3.66124e-08
8.95693e-06
-3.86566e-08
8.52334e-06
-4.03965e-08
8.1076e-06
-4.18854e-08
7.70986e-06
-4.31648e-08
7.32986e-06
-4.4264e-08
6.96708e-06
-4.52012e-08
6.62085e-06
-4.59863e-08
6.29048e-06
-4.66227e-08
5.97528e-06
-4.71109e-08
5.67458e-06
-4.74501e-08
5.38776e-06
-4.76411e-08
5.11427e-06
-4.76879e-08
4.85358e-06
-4.76001e-08
4.60526e-06
-4.73928e-08
4.36889e-06
-4.70872e-08
4.14414e-06
-4.67086e-08
3.93067e-06
-4.62846e-08
3.72814e-06
-4.58428e-08
3.53621e-06
-4.54087e-08
3.35446e-06
-4.50056e-08
3.18245e-06
-4.46548e-08
3.01966e-06
-4.43743e-08
2.86553e-06
-4.4176e-08
2.71953e-06
-4.40611e-08
2.58107e-06
2.44942e-06
-2.64991e-08
2.43475e-06
-2.6218e-08
2.55025e-06
-2.58159e-08
2.6697e-06
-2.52712e-08
2.7935e-06
-2.4568e-08
2.92193e-06
-2.36956e-08
3.0553e-06
-2.26477e-08
3.19403e-06
-2.14203e-08
3.33895e-06
-1.9996e-08
3.49167e-06
-1.83099e-08
3.65514e-06
-1.61963e-08
3.83413e-06
-1.33452e-08
4.0354e-06
-9.33213e-09
4.26702e-06
-3.78556e-09
4.53653e-06
3.33107e-09
4.84834e-06
1.15084e-08
5.20174e-06
1.97568e-08
5.59109e-06
2.69646e-08
6.00868e-06
3.22553e-08
6.44863e-06
3.50114e-08
6.90947e-06
3.44358e-08
7.39548e-06
2.86964e-08
7.91718e-06
1.67294e-08
8.47984e-06
6.32013e-09
9.00263e-06
2.26072e-08
9.06951e-06
2.38691e-08
8.07156e-06
-1.01748e-07
7.08104e-06
-1.13556e-07
8.69693e-06
-9.59178e-08
1.10056e-05
-1.12567e-07
1.20308e-05
-1.2547e-07
1.4355e-05
-1.23678e-07
1.38821e-05
-1.12853e-07
1.34485e-05
-9.83127e-08
1.30358e-05
-8.45812e-08
1.27376e-05
-7.40712e-08
1.26457e-05
-6.6776e-08
1.26916e-05
-6.15795e-08
1.27286e-05
-5.71006e-08
1.27093e-05
-5.29082e-08
1.26995e-05
-4.95726e-08
1.27634e-05
-4.79734e-08
1.28827e-05
-4.82868e-08
1.29952e-05
-4.97369e-08
1.30643e-05
-5.13688e-08
1.30907e-05
-5.26393e-08
1.30897e-05
-5.33902e-08
1.30746e-05
-5.36083e-08
1.30523e-05
-5.32446e-08
1.30245e-05
-5.21831e-08
1.29914e-05
-5.03621e-08
1.29573e-05
-4.79284e-08
1.29335e-05
-4.52733e-08
1.29344e-05
-4.29084e-08
1.29667e-05
-4.12737e-08
1.30234e-05
-4.05866e-08
1.30895e-05
-4.08407e-08
1.31523e-05
-4.19367e-08
1.32056e-05
-4.3805e-08
1.32476e-05
-4.64584e-08
1.32769e-05
-5.00093e-08
1.32913e-05
-5.45318e-08
1.32849e-05
-5.9015e-08
1.32344e-05
-5.95562e-08
1.30705e-05
-5.2061e-08
1.2692e-05
-4.10507e-08
1.21575e-05
-3.2065e-08
1.18806e-05
-2.17113e-08
1.21794e-05
-1.52383e-08
1.27228e-05
-1.67602e-08
1.31017e-05
-2.10535e-08
1.08288e-05
-2.53306e-08
1.03562e-05
-2.88949e-08
9.87762e-06
-3.18382e-08
9.41059e-06
-3.43093e-08
8.9594e-06
-3.64033e-08
8.52543e-06
-3.81871e-08
8.10938e-06
-3.97145e-08
7.71139e-06
-4.10272e-08
7.33118e-06
-4.21547e-08
6.9682e-06
-4.31154e-08
6.62181e-06
-4.39187e-08
6.29128e-06
-4.45682e-08
5.97593e-06
-4.50642e-08
5.67507e-06
-4.54058e-08
5.38811e-06
-4.55941e-08
5.11446e-06
-4.56339e-08
4.85363e-06
-4.55354e-08
4.60516e-06
-4.53149e-08
4.36867e-06
-4.49947e-08
4.14382e-06
-4.46012e-08
3.93028e-06
-4.4163e-08
3.72771e-06
-4.37087e-08
3.53576e-06
-4.32651e-08
3.35402e-06
-4.28564e-08
3.18204e-06
-4.25047e-08
3.0193e-06
-4.22275e-08
2.86526e-06
-4.20342e-08
2.71933e-06
-4.19243e-08
2.58096e-06
2.44938e-06
-2.56612e-08
2.43455e-06
-2.53761e-08
2.54996e-06
-2.49666e-08
2.66929e-06
-2.44096e-08
2.79294e-06
-2.36892e-08
2.92121e-06
-2.27945e-08
3.0544e-06
-2.17191e-08
3.19295e-06
-2.0457e-08
3.33768e-06
-1.89888e-08
3.4902e-06
-1.72487e-08
3.6534e-06
-1.50747e-08
3.83196e-06
-1.21683e-08
4.03249e-06
-8.12011e-09
4.26297e-06
-2.56162e-09
4.53097e-06
4.57176e-09
4.84121e-06
1.28267e-08
5.19349e-06
2.12624e-08
5.58265e-06
2.87754e-08
6.00117e-06
3.44596e-08
6.44295e-06
3.76531e-08
6.90628e-06
3.75069e-08
7.39562e-06
3.2211e-08
7.92248e-06
2.10908e-08
8.49096e-06
1.32888e-08
9.01043e-06
2.96466e-08
9.05315e-06
2.20105e-08
8.0792e-06
-9.86811e-08
7.20173e-06
-1.21896e-07
8.72014e-06
-1.05541e-07
1.09892e-05
-1.18927e-07
1.20441e-05
-1.3111e-07
1.43671e-05
-1.28467e-07
1.38795e-05
-1.16766e-07
1.34368e-05
-1.01535e-07
1.30206e-05
-8.73473e-08
1.27234e-05
-7.65505e-08
1.26349e-05
-6.90359e-08
1.26841e-05
-6.36227e-08
1.27232e-05
-5.8937e-08
1.27046e-05
-5.45714e-08
1.26952e-05
-5.11103e-08
1.276e-05
-4.94357e-08
1.2881e-05
-4.97206e-08
1.29955e-05
-5.11743e-08
1.30657e-05
-5.2814e-08
1.30923e-05
-5.40754e-08
1.3091e-05
-5.47927e-08
1.30754e-05
-5.49507e-08
1.30525e-05
-5.44959e-08
1.30241e-05
-5.33072e-08
1.29903e-05
-5.1324e-08
1.29553e-05
-4.87046e-08
1.29309e-05
-4.58587e-08
1.29315e-05
-4.33159e-08
1.29641e-05
-4.15295e-08
1.30216e-05
-4.07231e-08
1.30886e-05
-4.08909e-08
1.31524e-05
-4.19293e-08
1.32067e-05
-4.37652e-08
1.32494e-05
-4.64123e-08
1.32795e-05
-4.99952e-08
1.32949e-05
-5.4582e-08
1.32895e-05
-5.90418e-08
1.32389e-05
-5.9275e-08
1.30707e-05
-5.1277e-08
1.2684e-05
-3.97069e-08
1.2146e-05
-3.01157e-08
1.1871e-05
-1.94208e-08
1.21687e-05
-1.2652e-08
1.2716e-05
-1.39727e-08
1.3103e-05
-1.82668e-08
1.08331e-05
-2.26067e-08
1.03606e-05
-2.6226e-08
9.88124e-06
-2.92085e-08
9.41357e-06
-3.17106e-08
8.9619e-06
-3.38311e-08
8.52755e-06
-3.56378e-08
8.11119e-06
-3.7185e-08
7.71293e-06
-3.85145e-08
7.3325e-06
-3.96558e-08
6.96935e-06
-4.06271e-08
6.62278e-06
-4.14377e-08
6.29209e-06
-4.2091e-08
5.97658e-06
-4.2587e-08
5.67557e-06
-4.29248e-08
5.38845e-06
-4.31058e-08
5.11464e-06
-4.31353e-08
4.85366e-06
-4.30241e-08
4.60505e-06
-4.27896e-08
4.36844e-06
-4.2455e-08
4.14349e-06
-4.20478e-08
3.92987e-06
-4.15972e-08
3.72726e-06
-4.11327e-08
3.53529e-06