/*--------------------------------*- C++ -*----------------------------------*\
  =========                 |
  \\      /  F ield         | OpenFOAM: The Open Source CFD Toolbox
   \\    /   O peration     | Website:  https://openfoam.org
    \\  /    A nd           | Version:  9
     \\/     M anipulation  |
\*---------------------------------------------------------------------------*/
FoamFile
{
    format      ascii;
    class       volScalarField;
    location    "0.14";
    object      rAU;
}
// * * * * * * * * * * * * * * * * * * * * * * * * * * * * * * * * * * * * * //

dimensions      [-1 3 1 0 0 0 0];

internalField   nonuniform List<scalar> 
20000
(
1.57722e-05
1.49987e-05
1.51603e-05
1.53136e-05
1.5459e-05
1.55971e-05
1.57283e-05
1.58521e-05
1.59662e-05
1.60656e-05
1.61418e-05
1.61833e-05
1.61799e-05
1.61288e-05
1.60382e-05
1.59246e-05
1.58047e-05
1.56893e-05
1.55825e-05
1.54836e-05
1.539e-05
1.52984e-05
1.52063e-05
1.51345e-05
1.523e-05
1.62701e-05
1.98202e-05
1.65008e-05
1.52741e-05
1.52197e-05
1.54003e-05
1.55979e-05
1.5802e-05
1.60162e-05
1.61903e-05
1.62587e-05
1.62474e-05
1.62357e-05
1.62494e-05
1.62552e-05
1.62209e-05
1.61588e-05
1.61016e-05
1.60662e-05
1.60514e-05
1.60502e-05
1.60566e-05
1.60672e-05
1.60809e-05
1.60972e-05
1.61138e-05
1.6125e-05
1.61235e-05
1.6106e-05
1.60763e-05
1.60422e-05
1.601e-05
1.59828e-05
1.5962e-05
1.59485e-05
1.5944e-05
1.59518e-05
1.59813e-05
1.6061e-05
1.62467e-05
1.65491e-05
1.67304e-05
1.65364e-05
1.62324e-05
1.60439e-05
1.59367e-05
1.58948e-05
1.58735e-05
1.58596e-05
1.58501e-05
1.58431e-05
1.58374e-05
1.5832e-05
1.58264e-05
1.58199e-05
1.58122e-05
1.5803e-05
1.5792e-05
1.57788e-05
1.57632e-05
1.57446e-05
1.57227e-05
1.56968e-05
1.56664e-05
1.56307e-05
1.55888e-05
1.55398e-05
1.54829e-05
1.5417e-05
1.53414e-05
1.52553e-05
1.51582e-05
1.50496e-05
1.49292e-05
1.30196e-05
2.14118e-05
2.00014e-05
2.0277e-05
2.05367e-05
2.0781e-05
2.10106e-05
2.12262e-05
2.14279e-05
2.16145e-05
2.17831e-05
2.19283e-05
2.20428e-05
2.212e-05
2.21578e-05
2.21611e-05
2.21409e-05
2.21087e-05
2.2073e-05
2.20374e-05
2.20023e-05
2.1966e-05
2.1926e-05
2.18802e-05
2.18486e-05
2.19629e-05
2.28017e-05
2.49828e-05
2.29804e-05
2.20581e-05
2.20286e-05
2.2212e-05
2.23716e-05
2.25296e-05
2.26938e-05
2.28259e-05
2.28776e-05
2.28696e-05
2.2861e-05
2.28715e-05
2.28763e-05
2.28511e-05
2.28047e-05
2.27617e-05
2.27348e-05
2.27235e-05
2.27224e-05
2.27271e-05
2.2735e-05
2.27453e-05
2.27576e-05
2.27703e-05
2.27789e-05
2.2778e-05
2.27651e-05
2.2743e-05
2.27173e-05
2.2693e-05
2.26723e-05
2.26563e-05
2.26458e-05
2.26419e-05
2.26471e-05
2.26685e-05
2.27282e-05
2.28682e-05
2.30926e-05
2.32249e-05
2.30858e-05
2.28618e-05
2.27142e-05
2.25893e-05
2.25348e-05
2.25004e-05
2.24698e-05
2.24408e-05
2.24116e-05
2.23812e-05
2.23486e-05
2.2313e-05
2.22739e-05
2.22307e-05
2.21829e-05
2.213e-05
2.20714e-05
2.20065e-05
2.19346e-05
2.1855e-05
2.17669e-05
2.16695e-05
2.15617e-05
2.14425e-05
2.13107e-05
2.11653e-05
2.10051e-05
2.0829e-05
2.06362e-05
2.04258e-05
2.01971e-05
1.99496e-05
1.66573e-05
2.14157e-05
2.00046e-05
2.02803e-05
2.054e-05
2.07844e-05
2.10142e-05
2.123e-05
2.14318e-05
2.16186e-05
2.17873e-05
2.19329e-05
2.20482e-05
2.21268e-05
2.21663e-05
2.21713e-05
2.21521e-05
2.21201e-05
2.2084e-05
2.20477e-05
2.20114e-05
2.19737e-05
2.19318e-05
2.18834e-05
2.18516e-05
2.19794e-05
2.28381e-05
2.48413e-05
2.30114e-05
2.20649e-05
2.20208e-05
2.22053e-05
2.23678e-05
2.25274e-05
2.2693e-05
2.28259e-05
2.28777e-05
2.28695e-05
2.28608e-05
2.28716e-05
2.28767e-05
2.28516e-05
2.28051e-05
2.27617e-05
2.27346e-05
2.27231e-05
2.27221e-05
2.27268e-05
2.27347e-05
2.27451e-05
2.27575e-05
2.27703e-05
2.27792e-05
2.27785e-05
2.27656e-05
2.27435e-05
2.27177e-05
2.26932e-05
2.26724e-05
2.26562e-05
2.26453e-05
2.26411e-05
2.26457e-05
2.26668e-05
2.27267e-05
2.28682e-05
2.3094e-05
2.32264e-05
2.30885e-05
2.28639e-05
2.27148e-05
2.25895e-05
2.25348e-05
2.25003e-05
2.24697e-05
2.24405e-05
2.24112e-05
2.23806e-05
2.23478e-05
2.23122e-05
2.22729e-05
2.22296e-05
2.21817e-05
2.21287e-05
2.20699e-05
2.20049e-05
2.1933e-05
2.18534e-05
2.17653e-05
2.16679e-05
2.15602e-05
2.1441e-05
2.13093e-05
2.11639e-05
2.10037e-05
2.08277e-05
2.06349e-05
2.04245e-05
2.01959e-05
1.99483e-05
1.66555e-05
2.142e-05
2.00082e-05
2.02839e-05
2.05437e-05
2.07883e-05
2.10182e-05
2.12341e-05
2.14361e-05
2.1623e-05
2.17919e-05
2.19379e-05
2.20541e-05
2.21341e-05
2.21754e-05
2.2182e-05
2.21636e-05
2.21316e-05
2.20947e-05
2.20572e-05
2.20196e-05
2.19803e-05
2.19361e-05
2.18845e-05
2.18514e-05
2.19937e-05
2.28758e-05
2.47006e-05
2.30465e-05
2.20743e-05
2.20125e-05
2.21985e-05
2.23644e-05
2.25259e-05
2.26933e-05
2.28269e-05
2.28786e-05
2.28698e-05
2.28608e-05
2.28718e-05
2.28772e-05
2.28522e-05
2.28054e-05
2.27616e-05
2.27342e-05
2.27226e-05
2.27216e-05
2.27263e-05
2.27344e-05
2.27448e-05
2.27574e-05
2.27704e-05
2.27795e-05
2.2779e-05
2.27662e-05
2.2744e-05
2.2718e-05
2.26933e-05
2.26723e-05
2.26558e-05
2.26447e-05
2.264e-05
2.26442e-05
2.26649e-05
2.27252e-05
2.28687e-05
2.30961e-05
2.32285e-05
2.30919e-05
2.28662e-05
2.27152e-05
2.25893e-05
2.25345e-05
2.25e-05
2.24693e-05
2.24401e-05
2.24107e-05
2.23801e-05
2.23472e-05
2.23114e-05
2.22721e-05
2.22287e-05
2.21807e-05
2.21276e-05
2.20688e-05
2.20038e-05
2.19319e-05
2.18523e-05
2.17643e-05
2.16669e-05
2.15592e-05
2.14401e-05
2.13085e-05
2.11632e-05
2.1003e-05
2.08271e-05
2.06343e-05
2.04239e-05
2.01952e-05
1.99475e-05
1.66545e-05
2.14245e-05
2.00121e-05
2.02878e-05
2.05477e-05
2.07923e-05
2.10224e-05
2.12385e-05
2.14406e-05
2.16276e-05
2.17968e-05
2.19432e-05
2.20603e-05
2.21418e-05
2.21848e-05
2.21929e-05
2.21751e-05
2.21428e-05
2.21034e-05
2.20605e-05
2.2018e-05
2.1977e-05
2.19343e-05
2.18826e-05
2.18486e-05
2.20068e-05
2.2912e-05
2.45698e-05
2.30792e-05
2.20844e-05
2.20031e-05
2.21918e-05
2.23615e-05
2.25252e-05
2.26945e-05
2.28287e-05
2.28799e-05
2.28704e-05
2.2861e-05
2.28721e-05
2.28778e-05
2.28528e-05
2.28056e-05
2.27613e-05
2.27336e-05
2.2722e-05
2.27209e-05
2.27258e-05
2.27339e-05
2.27445e-05
2.27573e-05
2.27706e-05
2.27799e-05
2.27796e-05
2.27668e-05
2.27445e-05
2.27183e-05
2.26934e-05
2.26721e-05
2.26554e-05
2.26439e-05
2.26388e-05
2.26426e-05
2.26629e-05
2.27239e-05
2.28697e-05
2.30988e-05
2.32312e-05
2.30957e-05
2.28687e-05
2.27154e-05
2.25888e-05
2.25339e-05
2.24995e-05
2.24689e-05
2.24396e-05
2.24103e-05
2.23796e-05
2.23467e-05
2.23109e-05
2.22715e-05
2.2228e-05
2.218e-05
2.21269e-05
2.20681e-05
2.20031e-05
2.19312e-05
2.18516e-05
2.17637e-05
2.16664e-05
2.15588e-05
2.14398e-05
2.13083e-05
2.1163e-05
2.10029e-05
2.0827e-05
2.06342e-05
2.04239e-05
2.01951e-05
1.99474e-05
1.66541e-05
2.1429e-05
2.00159e-05
2.02917e-05
2.05516e-05
2.07964e-05
2.10267e-05
2.12429e-05
2.14452e-05
2.16323e-05
2.18018e-05
2.19487e-05
2.20667e-05
2.21495e-05
2.21942e-05
2.22036e-05
2.21865e-05
2.21514e-05
2.21054e-05
2.20579e-05
2.20137e-05
2.19711e-05
2.19267e-05
2.18759e-05
2.1844e-05
2.20179e-05
2.29425e-05
2.44495e-05
2.31064e-05
2.20943e-05
2.19926e-05
2.2185e-05
2.2359e-05
2.25252e-05
2.26964e-05
2.28311e-05
2.28818e-05
2.28713e-05
2.28615e-05
2.28726e-05
2.28786e-05
2.28534e-05
2.28058e-05
2.27609e-05
2.27328e-05
2.27211e-05
2.27202e-05
2.27252e-05
2.27335e-05
2.27442e-05
2.27572e-05
2.27708e-05
2.27804e-05
2.27802e-05
2.27675e-05
2.27449e-05
2.27186e-05
2.26933e-05
2.26718e-05
2.26548e-05
2.2643e-05
2.26375e-05
2.26408e-05
2.26609e-05
2.27227e-05
2.28711e-05
2.31021e-05
2.32343e-05
2.30998e-05
2.28713e-05
2.27155e-05
2.25881e-05
2.25332e-05
2.24989e-05
2.24684e-05
2.24392e-05
2.24099e-05
2.23792e-05
2.23463e-05
2.23105e-05
2.22711e-05
2.22276e-05
2.21796e-05
2.21264e-05
2.20677e-05
2.20027e-05
2.19309e-05
2.18515e-05
2.17636e-05
2.16665e-05
2.1559e-05
2.14401e-05
2.13086e-05
2.11635e-05
2.10035e-05
2.08275e-05
2.06348e-05
2.04244e-05
2.01956e-05
1.99477e-05
1.66543e-05
2.14334e-05
2.00196e-05
2.02954e-05
2.05555e-05
2.08005e-05
2.10309e-05
2.12473e-05
2.14497e-05
2.16371e-05
2.18068e-05
2.19541e-05
2.2073e-05
2.21572e-05
2.22034e-05
2.22142e-05
2.21972e-05
2.21572e-05
2.21059e-05
2.20565e-05
2.20104e-05
2.19658e-05
2.19191e-05
2.18676e-05
2.18373e-05
2.20282e-05
2.29678e-05
2.43381e-05
2.31275e-05
2.21035e-05
2.19811e-05
2.21781e-05
2.23566e-05
2.25257e-05
2.2699e-05
2.28341e-05
2.2884e-05
2.28726e-05
2.28621e-05
2.28733e-05
2.28794e-05
2.28541e-05
2.28059e-05
2.27604e-05
2.2732e-05
2.27202e-05
2.27194e-05
2.27245e-05
2.2733e-05
2.27439e-05
2.27571e-05
2.2771e-05
2.27809e-05
2.27809e-05
2.27682e-05
2.27454e-05
2.27188e-05
2.26933e-05
2.26714e-05
2.26541e-05
2.2642e-05
2.26361e-05
2.2639e-05
2.26588e-05
2.27217e-05
2.28729e-05
2.31058e-05
2.32378e-05
2.31042e-05
2.28741e-05
2.27156e-05
2.25874e-05
2.25323e-05
2.24982e-05
2.24679e-05
2.24388e-05
2.24095e-05
2.23789e-05
2.23461e-05
2.23102e-05
2.22709e-05
2.22274e-05
2.21794e-05
2.21263e-05
2.20677e-05
2.20028e-05
2.1931e-05
2.18517e-05
2.1764e-05
2.1667e-05
2.15597e-05
2.14409e-05
2.13096e-05
2.11645e-05
2.10045e-05
2.08287e-05
2.06359e-05
2.04255e-05
2.01966e-05
1.99487e-05
1.66552e-05
2.14374e-05
2.00231e-05
2.0299e-05
2.05592e-05
2.08043e-05
2.10349e-05
2.12515e-05
2.1454e-05
2.16416e-05
2.18115e-05
2.19594e-05
2.20791e-05
2.21646e-05
2.22124e-05
2.22246e-05
2.22045e-05
2.21602e-05
2.21073e-05
2.20559e-05
2.20077e-05
2.19609e-05
2.19115e-05
2.18569e-05
2.18284e-05
2.20382e-05
2.29878e-05
2.42343e-05
2.31425e-05
2.21119e-05
2.19689e-05
2.2171e-05
2.23543e-05
2.25268e-05
2.27022e-05
2.28376e-05
2.28866e-05
2.2874e-05
2.28629e-05
2.2874e-05
2.28803e-05
2.28548e-05
2.2806e-05
2.27599e-05
2.2731e-05
2.27192e-05
2.27185e-05
2.27238e-05
2.27324e-05
2.27436e-05
2.27571e-05
2.27713e-05
2.27815e-05
2.27817e-05
2.27689e-05
2.27459e-05
2.2719e-05
2.26932e-05
2.2671e-05
2.26534e-05
2.26409e-05
2.26347e-05
2.26371e-05
2.26568e-05
2.27208e-05
2.28752e-05
2.311e-05
2.32415e-05
2.31088e-05
2.28772e-05
2.27157e-05
2.25865e-05
2.25314e-05
2.24975e-05
2.24673e-05
2.24384e-05
2.24092e-05
2.23787e-05
2.2346e-05
2.23102e-05
2.22709e-05
2.22275e-05
2.21796e-05
2.21266e-05
2.2068e-05
2.20032e-05
2.19316e-05
2.18524e-05
2.17649e-05
2.16681e-05
2.15609e-05
2.14423e-05
2.1311e-05
2.11661e-05
2.10062e-05
2.08304e-05
2.06376e-05
2.04272e-05
2.01982e-05
1.99501e-05
1.66568e-05
2.1441e-05
2.00262e-05
2.03022e-05
2.05626e-05
2.08078e-05
2.10386e-05
2.12554e-05
2.14581e-05
2.16459e-05
2.18161e-05
2.19644e-05
2.2085e-05
2.21717e-05
2.22211e-05
2.22346e-05
2.2212e-05
2.21642e-05
2.21097e-05
2.20561e-05
2.20057e-05
2.19564e-05
2.19039e-05
2.18457e-05
2.18198e-05
2.20482e-05
2.30018e-05
2.41371e-05
2.31511e-05
2.21194e-05
2.19562e-05
2.21635e-05
2.23521e-05
2.25283e-05
2.27058e-05
2.28415e-05
2.28894e-05
2.28757e-05
2.28639e-05
2.28749e-05
2.28812e-05
2.28556e-05
2.28061e-05
2.27593e-05
2.273e-05
2.27181e-05
2.27175e-05
2.2723e-05
2.27318e-05
2.27432e-05
2.2757e-05
2.27716e-05
2.27821e-05
2.27824e-05
2.27696e-05
2.27465e-05
2.27192e-05
2.2693e-05
2.26705e-05
2.26526e-05
2.26398e-05
2.26332e-05
2.26351e-05
2.26547e-05
2.27201e-05
2.28778e-05
2.31146e-05
2.32456e-05
2.31137e-05
2.28805e-05
2.27159e-05
2.25856e-05
2.25304e-05
2.24968e-05
2.24668e-05
2.24381e-05
2.24091e-05
2.23787e-05
2.2346e-05
2.23104e-05
2.22711e-05
2.22278e-05
2.218e-05
2.21271e-05
2.20686e-05
2.2004e-05
2.19326e-05
2.18536e-05
2.17662e-05
2.16696e-05
2.15626e-05
2.14441e-05
2.13131e-05
2.11682e-05
2.10084e-05
2.08326e-05
2.06399e-05
2.04294e-05
2.02004e-05
1.99522e-05
1.66591e-05
2.14441e-05
2.00289e-05
2.03051e-05
2.05656e-05
2.0811e-05
2.1042e-05
2.1259e-05
2.14619e-05
2.16499e-05
2.18204e-05
2.19692e-05
2.20905e-05
2.21785e-05
2.22294e-05
2.22424e-05
2.2218e-05
2.21691e-05
2.2113e-05
2.20573e-05
2.20045e-05
2.19526e-05
2.18966e-05
2.18344e-05
2.18108e-05
2.20573e-05
2.30096e-05
2.40458e-05
2.31523e-05
2.21258e-05
2.19435e-05
2.21558e-05
2.23502e-05
2.25303e-05
2.27099e-05
2.28457e-05
2.28926e-05
2.28777e-05
2.28651e-05
2.28759e-05
2.28822e-05
2.28563e-05
2.28062e-05
2.27586e-05
2.27289e-05
2.27169e-05
2.27165e-05
2.27222e-05
2.27312e-05
2.27429e-05
2.2757e-05
2.27719e-05
2.27827e-05
2.27833e-05
2.27704e-05
2.2747e-05
2.27194e-05
2.26929e-05
2.26701e-05
2.26518e-05
2.26387e-05
2.26317e-05
2.26332e-05
2.26526e-05
2.27195e-05
2.28808e-05
2.31195e-05
2.32499e-05
2.31189e-05
2.2884e-05
2.27162e-05
2.25847e-05
2.25295e-05
2.24961e-05
2.24664e-05
2.24379e-05
2.2409e-05
2.23788e-05
2.23463e-05
2.23107e-05
2.22716e-05
2.22284e-05
2.21807e-05
2.2128e-05
2.20696e-05
2.20052e-05
2.19339e-05
2.18552e-05
2.1768e-05
2.16716e-05
2.15648e-05
2.14466e-05
2.13157e-05
2.11709e-05
2.10112e-05
2.08355e-05
2.06428e-05
2.04323e-05
2.02032e-05
1.9955e-05
1.66623e-05
2.14466e-05
2.00312e-05
2.03075e-05
2.05682e-05
2.08138e-05
2.1045e-05
2.12622e-05
2.14653e-05
2.16535e-05
2.18243e-05
2.19736e-05
2.20957e-05
2.21849e-05
2.22373e-05
2.22497e-05
2.22242e-05
2.21749e-05
2.21173e-05
2.20594e-05
2.20042e-05
2.19495e-05
2.18897e-05
2.18234e-05
2.18001e-05
2.20636e-05
2.30108e-05
2.39594e-05
2.3146e-05
2.21312e-05
2.19314e-05
2.21481e-05
2.23487e-05
2.25329e-05
2.27145e-05
2.28502e-05
2.28959e-05
2.28797e-05
2.28663e-05
2.2877e-05
2.28833e-05
2.28571e-05
2.28063e-05
2.27579e-05
2.27277e-05
2.27157e-05
2.27154e-05
2.27213e-05
2.27306e-05
2.27425e-05
2.2757e-05
2.27723e-05
2.27834e-05
2.27841e-05
2.27712e-05
2.27476e-05
2.27196e-05
2.26928e-05
2.26696e-05
2.2651e-05
2.26376e-05
2.26301e-05
2.26312e-05
2.26506e-05
2.27192e-05
2.28841e-05
2.31247e-05
2.32545e-05
2.31243e-05
2.28878e-05
2.27166e-05
2.25838e-05
2.25285e-05
2.24954e-05
2.24661e-05
2.24378e-05
2.24091e-05
2.23791e-05
2.23467e-05
2.23113e-05
2.22724e-05
2.22293e-05
2.21818e-05
2.21292e-05
2.2071e-05
2.20068e-05
2.19358e-05
2.18572e-05
2.17703e-05
2.16741e-05
2.15676e-05
2.14495e-05
2.13188e-05
2.11742e-05
2.10147e-05
2.0839e-05
2.06463e-05
2.04358e-05
2.02067e-05
1.99584e-05
1.66663e-05
2.14486e-05
2.0033e-05
2.03094e-05
2.05703e-05
2.08162e-05
2.10476e-05
2.12649e-05
2.14683e-05
2.16567e-05
2.18278e-05
2.19776e-05
2.21005e-05
2.21908e-05
2.22447e-05
2.22571e-05
2.22311e-05
2.21815e-05
2.21225e-05
2.20626e-05
2.20048e-05
2.19473e-05
2.18836e-05
2.1813e-05
2.1791e-05
2.20699e-05
2.3006e-05
2.38769e-05
2.31322e-05
2.21357e-05
2.19205e-05
2.21407e-05
2.23477e-05
2.2536e-05
2.27195e-05
2.28551e-05
2.28995e-05
2.2882e-05
2.28677e-05
2.28782e-05
2.28844e-05
2.28579e-05
2.28064e-05
2.27572e-05
2.27265e-05
2.27143e-05
2.27142e-05
2.27204e-05
2.27299e-05
2.27421e-05
2.27569e-05
2.27726e-05
2.27842e-05
2.2785e-05
2.27721e-05
2.27482e-05
2.27199e-05
2.26926e-05
2.26691e-05
2.26502e-05
2.26364e-05
2.26286e-05
2.26292e-05
2.26486e-05
2.27191e-05
2.28878e-05
2.31302e-05
2.32595e-05
2.31299e-05
2.28917e-05
2.27171e-05
2.25829e-05
2.25276e-05
2.24949e-05
2.24658e-05
2.24378e-05
2.24094e-05
2.23796e-05
2.23474e-05
2.23122e-05
2.22734e-05
2.22305e-05
2.21831e-05
2.21308e-05
2.20728e-05
2.20088e-05
2.1938e-05
2.18598e-05
2.17731e-05
2.16772e-05
2.15709e-05
2.14531e-05
2.13226e-05
2.11782e-05
2.10187e-05
2.08431e-05
2.06505e-05
2.044e-05
2.02109e-05
1.99625e-05
1.66711e-05
2.14498e-05
2.00342e-05
2.03108e-05
2.05719e-05
2.0818e-05
2.10496e-05
2.12672e-05
2.14708e-05
2.16594e-05
2.18308e-05
2.1981e-05
2.21047e-05
2.21962e-05
2.22514e-05
2.22646e-05
2.22387e-05
2.21889e-05
2.21286e-05
2.20667e-05
2.20065e-05
2.1946e-05
2.18784e-05
2.18038e-05
2.17839e-05
2.20764e-05
2.29957e-05
2.37978e-05
2.31117e-05
2.21391e-05
2.19113e-05
2.21337e-05
2.23471e-05
2.25396e-05
2.27249e-05
2.28602e-05
2.29032e-05
2.28843e-05
2.28692e-05
2.28794e-05
2.28856e-05
2.28587e-05
2.28064e-05
2.27564e-05
2.27252e-05
2.27129e-05
2.2713e-05
2.27194e-05
2.27292e-05
2.27417e-05
2.27569e-05
2.2773e-05
2.27849e-05
2.2786e-05
2.2773e-05
2.27488e-05
2.27201e-05
2.26925e-05
2.26687e-05
2.26495e-05
2.26353e-05
2.26271e-05
2.26272e-05
2.26467e-05
2.27192e-05
2.28917e-05
2.3136e-05
2.32647e-05
2.31358e-05
2.28958e-05
2.27178e-05
2.25822e-05
2.25268e-05
2.24944e-05
2.24658e-05
2.2438e-05
2.24099e-05
2.23803e-05
2.23483e-05
2.23133e-05
2.22747e-05
2.22321e-05
2.21849e-05
2.21327e-05
2.2075e-05
2.20113e-05
2.19408e-05
2.18628e-05
2.17764e-05
2.16808e-05
2.15748e-05
2.14572e-05
2.13269e-05
2.11827e-05
2.10234e-05
2.08479e-05
2.06553e-05
2.04448e-05
2.02156e-05
1.99673e-05
1.66768e-05
2.14504e-05
2.00349e-05
2.03117e-05
2.0573e-05
2.08193e-05
2.10511e-05
2.12689e-05
2.14727e-05
2.16616e-05
2.18332e-05
2.19839e-05
2.21084e-05
2.22009e-05
2.22575e-05
2.22719e-05
2.22469e-05
2.2197e-05
2.21356e-05
2.20717e-05
2.20091e-05
2.19458e-05
2.18743e-05
2.17961e-05
2.17791e-05
2.20829e-05
2.29811e-05
2.37216e-05
2.30856e-05
2.21417e-05
2.19041e-05
2.21275e-05
2.23471e-05
2.25436e-05
2.27306e-05
2.28655e-05
2.2907e-05
2.28867e-05
2.28707e-05
2.28807e-05
2.28868e-05
2.28595e-05
2.28065e-05
2.27555e-05
2.27238e-05
2.27115e-05
2.27117e-05
2.27184e-05
2.27285e-05
2.27413e-05
2.27569e-05
2.27735e-05
2.27857e-05
2.2787e-05
2.27739e-05
2.27495e-05
2.27204e-05
2.26924e-05
2.26682e-05
2.26487e-05
2.26342e-05
2.26256e-05
2.26253e-05
2.2645e-05
2.27195e-05
2.28958e-05
2.31421e-05
2.32704e-05
2.31419e-05
2.29001e-05
2.27186e-05
2.25816e-05
2.25261e-05
2.24942e-05
2.24659e-05
2.24384e-05
2.24106e-05
2.23812e-05
2.23495e-05
2.23147e-05
2.22764e-05
2.22339e-05
2.2187e-05
2.21351e-05
2.20776e-05
2.20142e-05
2.19439e-05
2.18663e-05
2.17802e-05
2.16849e-05
2.15792e-05
2.14619e-05
2.13318e-05
2.11878e-05
2.10286e-05
2.08532e-05
2.06607e-05
2.04502e-05
2.02211e-05
1.99727e-05
1.66832e-05
2.14503e-05
2.00349e-05
2.03119e-05
2.05734e-05
2.08199e-05
2.1052e-05
2.12701e-05
2.14741e-05
2.16631e-05
2.18351e-05
2.19862e-05
2.21114e-05
2.2205e-05
2.22629e-05
2.22793e-05
2.22557e-05
2.22058e-05
2.21434e-05
2.20776e-05
2.20127e-05
2.19465e-05
2.18714e-05
2.179e-05
2.17767e-05
2.20896e-05
2.2963e-05
2.36479e-05
2.3055e-05
2.21434e-05
2.18988e-05
2.21222e-05
2.23476e-05
2.2548e-05
2.27366e-05
2.28711e-05
2.2911e-05
2.28891e-05
2.28723e-05
2.2882e-05
2.2888e-05
2.28603e-05
2.28064e-05
2.27546e-05
2.27224e-05
2.271e-05
2.27104e-05
2.27174e-05
2.27278e-05
2.27409e-05
2.27569e-05
2.27739e-05
2.27865e-05
2.2788e-05
2.27749e-05
2.27502e-05
2.27207e-05
2.26923e-05
2.26678e-05
2.2648e-05
2.26332e-05
2.26241e-05
2.26234e-05
2.26433e-05
2.27199e-05
2.29001e-05
2.31484e-05
2.32764e-05
2.31482e-05
2.29046e-05
2.27196e-05
2.25812e-05
2.25256e-05
2.2494e-05
2.24661e-05
2.2439e-05
2.24115e-05
2.23824e-05
2.2351e-05
2.23164e-05
2.22783e-05
2.22361e-05
2.21894e-05
2.21378e-05
2.20807e-05
2.20175e-05
2.19476e-05
2.18702e-05
2.17846e-05
2.16895e-05
2.15841e-05
2.14671e-05
2.13373e-05
2.11934e-05
2.10344e-05
2.08592e-05
2.06667e-05
2.04563e-05
2.02271e-05
1.99787e-05
1.66904e-05
2.14493e-05
2.00342e-05
2.03114e-05
2.05732e-05
2.08199e-05
2.10523e-05
2.12705e-05
2.14748e-05
2.16641e-05
2.18363e-05
2.19879e-05
2.21138e-05
2.22084e-05
2.22676e-05
2.22865e-05
2.2265e-05
2.22152e-05
2.21518e-05
2.20844e-05
2.20172e-05
2.19482e-05
2.18696e-05
2.17857e-05
2.17766e-05
2.20963e-05
2.29424e-05
2.35767e-05
2.30213e-05
2.21442e-05
2.18954e-05
2.21178e-05
2.23486e-05
2.25527e-05
2.27428e-05
2.28768e-05
2.29151e-05
2.28916e-05
2.28738e-05
2.28833e-05
2.28892e-05
2.28611e-05
2.28064e-05
2.27536e-05
2.27209e-05
2.27084e-05
2.2709e-05
2.27163e-05
2.2727e-05
2.27405e-05
2.27569e-05
2.27744e-05
2.27874e-05
2.27891e-05
2.27759e-05
2.27509e-05
2.27211e-05
2.26923e-05
2.26675e-05
2.26473e-05
2.26322e-05
2.26227e-05
2.26216e-05
2.26418e-05
2.27206e-05
2.29045e-05
2.3155e-05
2.32828e-05
2.31549e-05
2.29094e-05
2.27209e-05
2.2581e-05
2.25253e-05
2.24941e-05
2.24666e-05
2.24399e-05
2.24127e-05
2.23839e-05
2.23527e-05
2.23185e-05
2.22806e-05
2.22387e-05
2.21923e-05
2.21409e-05
2.20841e-05
2.20212e-05
2.19517e-05
2.18747e-05
2.17893e-05
2.16947e-05
2.15896e-05
2.14729e-05
2.13433e-05
2.11997e-05
2.10408e-05
2.08657e-05
2.06733e-05
2.04629e-05
2.02338e-05
1.99854e-05
1.66984e-05
2.14475e-05
2.00329e-05
2.03103e-05
2.05723e-05
2.08193e-05
2.10518e-05
2.12704e-05
2.14748e-05
2.16644e-05
2.18369e-05
2.19889e-05
2.21155e-05
2.22112e-05
2.22716e-05
2.22936e-05
2.22748e-05
2.22252e-05
2.2161e-05
2.20919e-05
2.20226e-05
2.19508e-05
2.18689e-05
2.17831e-05
2.17784e-05
2.21028e-05
2.29199e-05
2.35078e-05
2.29854e-05
2.21443e-05
2.18935e-05
2.21144e-05
2.235e-05
2.25577e-05
2.27493e-05
2.28826e-05
2.29192e-05
2.28941e-05
2.28754e-05
2.28846e-05
2.28904e-05
2.28619e-05
2.28063e-05
2.27526e-05
2.27193e-05
2.27068e-05
2.27076e-05
2.27152e-05
2.27262e-05
2.27401e-05
2.27569e-05
2.27749e-05
2.27883e-05
2.27902e-05
2.2777e-05
2.27518e-05
2.27215e-05
2.26924e-05
2.26672e-05
2.26467e-05
2.26313e-05
2.26214e-05
2.26199e-05
2.26403e-05
2.27214e-05
2.29091e-05
2.31618e-05
2.32896e-05
2.31618e-05
2.29132e-05
2.27202e-05
2.25796e-05
2.25251e-05
2.24943e-05
2.24673e-05
2.2441e-05
2.24141e-05
2.23857e-05
2.23548e-05
2.23208e-05
2.22832e-05
2.22416e-05
2.21955e-05
2.21444e-05
2.20879e-05
2.20254e-05
2.19562e-05
2.18796e-05
2.17946e-05
2.17003e-05
2.15956e-05
2.14792e-05
2.13499e-05
2.12064e-05
2.10478e-05
2.08728e-05
2.06805e-05
2.04701e-05
2.0241e-05
1.99926e-05
1.67071e-05
2.14446e-05
2.00306e-05
2.03083e-05
2.05705e-05
2.08178e-05
2.10506e-05
2.12694e-05
2.14741e-05
2.16639e-05
2.18368e-05
2.19892e-05
2.21165e-05
2.22131e-05
2.22748e-05
2.22999e-05
2.22845e-05
2.22357e-05
2.21708e-05
2.21001e-05
2.20287e-05
2.19543e-05
2.18693e-05
2.1782e-05
2.17819e-05
2.21091e-05
2.28961e-05
2.3441e-05
2.29483e-05
2.21437e-05
2.18931e-05
2.21119e-05
2.23517e-05
2.2563e-05
2.27558e-05
2.28885e-05
2.29234e-05
2.28967e-05
2.2877e-05
2.28859e-05
2.28916e-05
2.28627e-05
2.28062e-05
2.27516e-05
2.27177e-05
2.27051e-05
2.27061e-05
2.2714e-05
2.27254e-05
2.27396e-05
2.27569e-05
2.27754e-05
2.27893e-05
2.27914e-05
2.27781e-05
2.27526e-05
2.2722e-05
2.26925e-05
2.26669e-05
2.26462e-05
2.26304e-05
2.26202e-05
2.26182e-05
2.2639e-05
2.27224e-05
2.2914e-05
2.31688e-05
2.32968e-05
2.31692e-05
2.29169e-05
2.27185e-05
2.25762e-05
2.25235e-05
2.24948e-05
2.24682e-05
2.24423e-05
2.24158e-05
2.23877e-05
2.23572e-05
2.23235e-05
2.22862e-05
2.22449e-05
2.21991e-05
2.21484e-05
2.20922e-05
2.20301e-05
2.19613e-05
2.1885e-05
2.18005e-05
2.17065e-05
2.16021e-05
2.1486e-05
2.1357e-05
2.12138e-05
2.10553e-05
2.08804e-05
2.06882e-05
2.04779e-05
2.02488e-05
2.00005e-05
1.67165e-05
2.14407e-05
2.00275e-05
2.03054e-05
2.0568e-05
2.08155e-05
2.10486e-05
2.12677e-05
2.14727e-05
2.16627e-05
2.18359e-05
2.19888e-05
2.21167e-05
2.22143e-05
2.22771e-05
2.23035e-05
2.22922e-05
2.22467e-05
2.21812e-05
2.21091e-05
2.20356e-05
2.19587e-05
2.18708e-05
2.17826e-05
2.17871e-05
2.21154e-05
2.28715e-05
2.33764e-05
2.29107e-05
2.21428e-05
2.1894e-05
2.21102e-05
2.23537e-05
2.25683e-05
2.27625e-05
2.28944e-05
2.29275e-05
2.28992e-05
2.28785e-05
2.28872e-05
2.28928e-05
2.28634e-05
2.2806e-05
2.27505e-05
2.2716e-05
2.27033e-05
2.27046e-05
2.27128e-05
2.27245e-05
2.27392e-05
2.27569e-05
2.27759e-05
2.27903e-05
2.27926e-05
2.27793e-05
2.27536e-05
2.27226e-05
2.26926e-05
2.26668e-05
2.26457e-05
2.26297e-05
2.2619e-05
2.26167e-05
2.26378e-05
2.27235e-05
2.29189e-05
2.31762e-05
2.33045e-05
2.31765e-05
2.29204e-05
2.2717e-05
2.25719e-05
2.25195e-05
2.24936e-05
2.24694e-05
2.24439e-05
2.24178e-05
2.23901e-05
2.23599e-05
2.23265e-05
2.22896e-05
2.22486e-05
2.22031e-05
2.21527e-05
2.2097e-05
2.20352e-05
2.19668e-05
2.1891e-05
2.18068e-05
2.17133e-05
2.16092e-05
2.14935e-05
2.13647e-05
2.12218e-05
2.10635e-05
2.08888e-05
2.06966e-05
2.04864e-05
2.02573e-05
2.00089e-05
1.67267e-05
2.14356e-05
2.00234e-05
2.03016e-05
2.05644e-05
2.08123e-05
2.10458e-05
2.12651e-05
2.14704e-05
2.16607e-05
2.18342e-05
2.19876e-05
2.21161e-05
2.22146e-05
2.22785e-05
2.2306e-05
2.22993e-05
2.2258e-05
2.21922e-05
2.21188e-05
2.20434e-05
2.19639e-05
2.18735e-05
2.17848e-05
2.1794e-05
2.21218e-05
2.28448e-05
2.33119e-05
2.28731e-05
2.21418e-05
2.1896e-05
2.21093e-05
2.2356e-05
2.25738e-05
2.27692e-05
2.29004e-05
2.29318e-05
2.29017e-05
2.288e-05
2.28884e-05
2.2894e-05
2.28641e-05
2.28058e-05
2.27493e-05
2.27143e-05
2.27015e-05
2.2703e-05
2.27116e-05
2.27236e-05
2.27387e-05
2.27569e-05
2.27765e-05
2.27913e-05
2.27939e-05
2.27806e-05
2.27546e-05
2.27232e-05
2.26929e-05
2.26667e-05
2.26454e-05
2.2629e-05
2.26179e-05
2.26152e-05
2.26367e-05
2.27248e-05
2.29241e-05
2.31838e-05
2.33125e-05
2.3183e-05
2.2923e-05
2.27155e-05
2.25676e-05
2.25145e-05
2.24888e-05
2.24665e-05
2.24442e-05
2.242e-05
2.23928e-05
2.23629e-05
2.23299e-05
2.22933e-05
2.22527e-05
2.22076e-05
2.21575e-05
2.21022e-05
2.20408e-05
2.19728e-05
2.18974e-05
2.18137e-05
2.17206e-05
2.16169e-05
2.15015e-05
2.13731e-05
2.12305e-05
2.10724e-05
2.08978e-05
2.07059e-05
2.04958e-05
2.02668e-05
2.00185e-05
1.67367e-05
2.14292e-05
2.00183e-05
2.02968e-05
2.05599e-05
2.08081e-05
2.10419e-05
2.12616e-05
2.14672e-05
2.16578e-05
2.18316e-05
2.19854e-05
2.21146e-05
2.22139e-05
2.22788e-05
2.23073e-05
2.23014e-05
2.22653e-05
2.22039e-05
2.21293e-05
2.2052e-05
2.19702e-05
2.18774e-05
2.17889e-05
2.18028e-05
2.21288e-05
2.28173e-05
2.32488e-05
2.28361e-05
2.21409e-05
2.18993e-05
2.21092e-05
2.23584e-05
2.25793e-05
2.2776e-05
2.29064e-05
2.2936e-05
2.29041e-05
2.28815e-05
2.28896e-05
2.28951e-05
2.28648e-05
2.28056e-05
2.2748e-05
2.27124e-05
2.26996e-05
2.27014e-05
2.27103e-05
2.27227e-05
2.27382e-05
2.2757e-05
2.27771e-05
2.27924e-05
2.27953e-05
2.2782e-05
2.27557e-05
2.27239e-05
2.26932e-05
2.26667e-05
2.26451e-05
2.26284e-05
2.26169e-05
2.26137e-05
2.26357e-05
2.27263e-05
2.29295e-05
2.31916e-05
2.33209e-05
2.31899e-05
2.29258e-05
2.27141e-05
2.25632e-05
2.25095e-05
2.24838e-05
2.24617e-05
2.24395e-05
2.24161e-05
2.23908e-05
2.23629e-05
2.23316e-05
2.22966e-05
2.2257e-05
2.22125e-05
2.21628e-05
2.21078e-05
2.20469e-05
2.19794e-05
2.19044e-05
2.18211e-05
2.17285e-05
2.16252e-05
2.15101e-05
2.13812e-05
2.12375e-05
2.10784e-05
2.09029e-05
2.07101e-05
2.04992e-05
2.02698e-05
2.00213e-05
2.14633e-05
2.14215e-05
2.0012e-05
2.02908e-05
2.05543e-05
2.08029e-05
2.1037e-05
2.12571e-05
2.1463e-05
2.16539e-05
2.18281e-05
2.19823e-05
2.2112e-05
2.22121e-05
2.2278e-05
2.23074e-05
2.23022e-05
2.22682e-05
2.22122e-05
2.21405e-05
2.20615e-05
2.19774e-05
2.18827e-05
2.1795e-05
2.18138e-05
2.21371e-05
2.27907e-05
2.3188e-05
2.28003e-05
2.21406e-05
2.19038e-05
2.21099e-05
2.23609e-05
2.25848e-05
2.27826e-05
2.29124e-05
2.29401e-05
2.29066e-05
2.28829e-05
2.28907e-05
2.28962e-05
2.28655e-05
2.28053e-05
2.27466e-05
2.27104e-05
2.26976e-05
2.26996e-05
2.27089e-05
2.27217e-05
2.27377e-05
2.2757e-05
2.27777e-05
2.27935e-05
2.27968e-05
2.27834e-05
2.27569e-05
2.27247e-05
2.26936e-05
2.26668e-05
2.26449e-05
2.26279e-05
2.26159e-05
2.26124e-05
2.26348e-05
2.2728e-05
2.29352e-05
2.31998e-05
2.33298e-05
2.31971e-05
2.29289e-05
2.27128e-05
2.25588e-05
2.25043e-05
2.24787e-05
2.24568e-05
2.24345e-05
2.24111e-05
2.23857e-05
2.23576e-05
2.23261e-05
2.22908e-05
2.22514e-05
2.22074e-05
2.21584e-05
2.21039e-05
2.20432e-05
2.19756e-05
2.19004e-05
2.18166e-05
2.1723e-05
2.16187e-05
2.15023e-05
2.13727e-05
2.12287e-05
2.10693e-05
2.08934e-05
2.07002e-05
2.0489e-05
2.02592e-05
2.00101e-05
2.14474e-05
2.14124e-05
2.00046e-05
2.02838e-05
2.05477e-05
2.07967e-05
2.10312e-05
2.12515e-05
2.14578e-05
2.1649e-05
2.18235e-05
2.19781e-05
2.21084e-05
2.22091e-05
2.22759e-05
2.23061e-05
2.23014e-05
2.22674e-05
2.22128e-05
2.21462e-05
2.20708e-05
2.19855e-05
2.18893e-05
2.18031e-05
2.18273e-05
2.21471e-05
2.27657e-05
2.31301e-05
2.27663e-05
2.21412e-05
2.19096e-05
2.21111e-05
2.23634e-05
2.25901e-05
2.27892e-05
2.29183e-05
2.29443e-05
2.29089e-05
2.28842e-05
2.28918e-05
2.28972e-05
2.2866e-05
2.28049e-05
2.27452e-05
2.27084e-05
2.26955e-05
2.26978e-05
2.27075e-05
2.27207e-05
2.27371e-05
2.2757e-05
2.27783e-05
2.27947e-05
2.27983e-05
2.2785e-05
2.27581e-05
2.27256e-05
2.26941e-05
2.26669e-05
2.26448e-05
2.26275e-05
2.26151e-05
2.26112e-05
2.26342e-05
2.27299e-05
2.2941e-05
2.32082e-05
2.33391e-05
2.32048e-05
2.29322e-05
2.27117e-05
2.25544e-05
2.24991e-05
2.24735e-05
2.24517e-05
2.24294e-05
2.24059e-05
2.23804e-05
2.2352e-05
2.23203e-05
2.22848e-05
2.22451e-05
2.22009e-05
2.21516e-05
2.20968e-05
2.20359e-05
2.19681e-05
2.18927e-05
2.18086e-05
2.17148e-05
2.16102e-05
2.14935e-05
2.13636e-05
2.12193e-05
2.10594e-05
2.08831e-05
2.06895e-05
2.04779e-05
2.02476e-05
1.99975e-05
2.14303e-05
2.1402e-05
1.99962e-05
2.02757e-05
2.054e-05
2.07894e-05
2.10243e-05
2.1245e-05
2.14516e-05
2.16431e-05
2.1818e-05
2.19729e-05
2.21036e-05
2.2205e-05
2.22724e-05
2.23034e-05
2.22991e-05
2.2265e-05
2.22096e-05
2.21415e-05
2.20651e-05
2.19786e-05
2.18797e-05
2.17965e-05
2.18361e-05
2.21595e-05
2.2743e-05
2.30757e-05
2.27347e-05
2.2143e-05
2.19167e-05
2.21128e-05
2.23657e-05
2.25951e-05
2.27956e-05
2.2924e-05
2.29483e-05
2.29112e-05
2.28854e-05
2.28927e-05
2.28981e-05
2.28665e-05
2.28044e-05
2.27436e-05
2.27062e-05
2.26932e-05
2.26959e-05
2.2706e-05
2.27197e-05
2.27366e-05
2.2757e-05
2.2779e-05
2.2796e-05
2.27999e-05
2.27866e-05
2.27595e-05
2.27265e-05
2.26947e-05
2.26672e-05
2.26448e-05
2.26272e-05
2.26144e-05
2.26101e-05
2.26337e-05
2.2732e-05
2.29471e-05
2.3217e-05
2.33481e-05
2.3212e-05
2.29358e-05
2.27108e-05
2.255e-05
2.24937e-05
2.24681e-05
2.24464e-05
2.24242e-05
2.24006e-05
2.23748e-05
2.23462e-05
2.23143e-05
2.22785e-05
2.22385e-05
2.2194e-05
2.21444e-05
2.20894e-05
2.20282e-05
2.19601e-05
2.18844e-05
2.18001e-05
2.1706e-05
2.16011e-05
2.14841e-05
2.13538e-05
2.12091e-05
2.10489e-05
2.08721e-05
2.06781e-05
2.0466e-05
2.0235e-05
1.99838e-05
2.14122e-05
2.13904e-05
1.99867e-05
2.02667e-05
2.05314e-05
2.07812e-05
2.10164e-05
2.12375e-05
2.14444e-05
2.16363e-05
2.18114e-05
2.19666e-05
2.20977e-05
2.21996e-05
2.22677e-05
2.22992e-05
2.22953e-05
2.22609e-05
2.22046e-05
2.21348e-05
2.2056e-05
2.19669e-05
2.18668e-05
2.17877e-05
2.18379e-05
2.21676e-05
2.27233e-05
2.30257e-05
2.27061e-05
2.21462e-05
2.19248e-05
2.21148e-05
2.23676e-05
2.25996e-05
2.28016e-05
2.29296e-05
2.29522e-05
2.29133e-05
2.28864e-05
2.28935e-05
2.28989e-05
2.28669e-05
2.28038e-05
2.2742e-05
2.27039e-05
2.26909e-05
2.26939e-05
2.27045e-05
2.27186e-05
2.2736e-05
2.2757e-05
2.27797e-05
2.27973e-05
2.28015e-05
2.27882e-05
2.27609e-05
2.27276e-05
2.26953e-05
2.26676e-05
2.26449e-05
2.2627e-05
2.26138e-05
2.26092e-05
2.26333e-05
2.27344e-05
2.29533e-05
2.3226e-05