/*--------------------------------*- C++ -*----------------------------------*\
  =========                 |
  \\      /  F ield         | OpenFOAM: The Open Source CFD Toolbox
   \\    /   O peration     | Website:  https://openfoam.org
    \\  /    A nd           | Version:  9
     \\/     M anipulation  |
\*---------------------------------------------------------------------------*/
FoamFile
{
    format      ascii;
    class       volVectorField;
    location    "0.14";
    object      U;
}
// * * * * * * * * * * * * * * * * * * * * * * * * * * * * * * * * * * * * * //

dimensions      [0 1 -1 0 0 0 0];

internalField   nonuniform List<vector> 
20000
(
(7.45635e-05 0 -0.00475872)
(0.000100823 0 -0.00743258)
(0.000115426 0 -0.0110814)
(0.000128699 0 -0.0154707)
(0.000144374 0 -0.0205007)
(0.000162772 0 -0.026141)
(0.000181882 0 -0.0322919)
(0.000197318 0 -0.0386164)
(0.000202862 0 -0.0443044)
(0.000194262 0 -0.0477737)
(0.00017915 0 -0.0464656)
(0.000190581 0 -0.0370912)
(0.000289659 0 -0.0166941)
(0.000533241 0 0.0156958)
(0.000919206 0 0.0580022)
(0.00137103 0 0.105865)
(0.00178554 0 0.154683)
(0.00209467 0 0.201376)
(0.00228603 0 0.244801)
(0.00237897 0 0.285168)
(0.00238591 0 0.323287)
(0.00226445 0 0.360208)
(0.00181811 0 0.396533)
(0.00092551 0 0.425414)
(-0.00177106 0 0.400817)
(0.0112851 0 0.0983873)
(-8.75323e-05 0 -0.731933)
(-0.0111538 0 0.0410426)
(0.00227127 0 0.406152)
(-0.000964162 0 0.428337)
(-0.00185029 0 0.381806)
(-0.00204023 0 0.321959)
(-0.00180351 0 0.260333)
(-0.0013525 0 0.197339)
(-0.000784428 0 0.147306)
(-0.000324054 0 0.127811)
(-0.000104912 0 0.130824)
(-6.42341e-05 0 0.13404)
(-4.37753e-05 0 0.130171)
(5.12522e-05 0 0.128565)
(0.000179227 0 0.138296)
(0.000248036 0 0.155939)
(0.000222033 0 0.172278)
(0.000137929 0 0.182449)
(4.99511e-05 0 0.186708)
(-1.49216e-05 0 0.187042)
(-5.54171e-05 0 0.185183)
(-7.97935e-05 0 0.182096)
(-9.34701e-05 0 0.178122)
(-9.39944e-05 0 0.173414)
(-7.22366e-05 0 0.168639)
(-2.16987e-05 0 0.165445)
(5.09771e-05 0 0.165899)
(0.000125059 0 0.170944)
(0.000177799 0 0.179497)
(0.000198141 0 0.189365)
(0.000188876 0 0.19872)
(0.000158127 0 0.206627)
(0.000110584 0 0.212697)
(4.57011e-05 0 0.216614)
(-4.52141e-05 0 0.217892)
(-0.00018246 0 0.215523)
(-0.000399414 0 0.206754)
(-0.000674207 0 0.183448)
(-0.000739313 0 0.130365)
(-0.000378546 0 0.0466293)
(1.5366e-05 0 -0.00206044)
(0.000428286 0 0.0504504)
(0.000797867 0 0.134935)
(0.000712344 0 0.187649)
(0.000433651 0 0.208739)
(0.000226367 0 0.215842)
(9.25665e-05 0 0.21793)
(1.45507e-06 0 0.217422)
(-6.64695e-05 0 0.215165)
(-0.000119827 0 0.211635)
(-0.000162957 0 0.207166)
(-0.000198921 0 0.201985)
(-0.000229942 0 0.196233)
(-0.000257535 0 0.189987)
(-0.000282569 0 0.183286)
(-0.000305398 0 0.176147)
(-0.000325978 0 0.168578)
(-0.00034397 0 0.16058)
(-0.000358812 0 0.152159)
(-0.000369794 0 0.143322)
(-0.000376159 0 0.134091)
(-0.000377221 0 0.124498)
(-0.000372517 0 0.114597)
(-0.000361939 0 0.10446)
(-0.000345826 0 0.0941756)
(-0.000324969 0 0.0838452)
(-0.000300535 0 0.0735703)
(-0.000273894 0 0.0634417)
(-0.000246382 0 0.0535241)
(-0.000219035 0 0.0438383)
(-0.000192518 0 0.0343454)
(-0.000167454 0 0.024948)
(-0.000144431 0 0.015528)
(-0.00012694 0 0.00586569)
(0.000416691 0 -0.00495676)
(0.000478153 0 -0.00752421)
(0.000516809 0 -0.0111421)
(0.000552043 0 -0.0155226)
(0.000594754 0 -0.0205526)
(0.000647429 0 -0.0261891)
(0.000708067 0 -0.0323225)
(0.000771206 0 -0.038608)
(0.000829002 0 -0.0442329)
(0.000876661 0 -0.04763)
(0.000926771 0 -0.046287)
(0.00102991 0 -0.0369861)
(0.00128125 0 -0.0168121)
(0.0017783 0 0.0152637)
(0.0025393 0 0.0573134)
(0.00345675 0 0.105089)
(0.00435128 0 0.15398)
(0.00507484 0 0.200808)
(0.00556057 0 0.244347)
(0.00580013 0 0.284781)
(0.00578343 0 0.322958)
(0.00542627 0 0.360037)
(0.00450134 0 0.396731)
(0.00402701 0 0.425592)
(-0.00153356 0 0.397012)
(0.0237746 0 0.0833295)
(-0.000732417 0 -0.693111)
(-0.0234063 0 0.0270073)
(0.00332705 0 0.402818)
(-0.00377602 0 0.428492)
(-0.0042818 0 0.381728)
(-0.00499782 0 0.321474)
(-0.00452873 0 0.2598)
(-0.00350737 0 0.196813)
(-0.00223911 0 0.146886)
(-0.00118524 0 0.127519)
(-0.00058315 0 0.13061)
(-0.0003384 0 0.133857)
(-0.000186476 0 0.129967)
(5.32511e-05 0 0.128327)
(0.000331937 0 0.138031)
(0.000495116 0 0.155677)
(0.000464367 0 0.172028)
(0.000298126 0 0.182195)
(0.000104809 0 0.186431)
(-5.08447e-05 0 0.186742)
(-0.000155466 0 0.184866)
(-0.000219055 0 0.181768)
(-0.000249623 0 0.177786)
(-0.000241997 0 0.173068)
(-0.000180422 0 0.16828)
(-5.61137e-05 0 0.165072)
(0.000114189 0 0.165515)
(0.000287125 0 0.170554)
(0.000414655 0 0.179106)
(0.000469643 0 0.188974)
(0.000452373 0 0.198326)
(0.000376352 0 0.206229)
(0.000250413 0 0.212298)
(7.31083e-05 0 0.216219)
(-0.000173707 0 0.217515)
(-0.000523202 0 0.21519)
(-0.00100864 0 0.206478)
(-0.00153461 0 0.183151)
(-0.00155494 0 0.129862)
(-0.000722663 0 0.0461319)
(4.77562e-05 0 -0.00225798)
(0.000887906 0 0.0499464)
(0.00177972 0 0.134472)
(0.00172091 0 0.187419)
(0.0011827 0 0.208548)
(0.000723974 0 0.215615)
(0.00038477 0 0.217671)
(0.000134416 0 0.217151)
(-5.70526e-05 0 0.214895)
(-0.000208576 0 0.211373)
(-0.00033232 0 0.206915)
(-0.000435596 0 0.201748)
(-0.000523975 0 0.196011)
(-0.000601181 0 0.189781)
(-0.000669396 0 0.183096)
(-0.000729592 0 0.175973)
(-0.000781828 0 0.168418)
(-0.000825507 0 0.160434)
(-0.000859608 0 0.152023)
(-0.000882933 0 0.143195)
(-0.000894366 0 0.133969)
(-0.000893158 0 0.12438)
(-0.000879195 0 0.11448)
(-0.000853177 0 0.104342)
(-0.000816684 0 0.0940576)
(-0.000772062 0 0.083727)
(-0.000722174 0 0.0734534)
(-0.000670021 0 0.0633275)
(-0.000618275 0 0.0534133)
(-0.000568797 0 0.0437304)
(-0.000522555 0 0.0342389)
(-0.000480451 0 0.0248447)
(-0.000443475 0 0.0154338)
(-0.000422876 0 0.00576702)
(0.000891817 0 -0.0051326)
(0.0009626 0 -0.00766608)
(0.00101496 0 -0.0112717)
(0.00106766 0 -0.0156652)
(0.00113376 0 -0.020722)
(0.00121656 0 -0.0263837)
(0.00131447 0 -0.0325306)
(0.00142245 0 -0.038812)
(0.00153314 0 -0.0444192)
(0.00164291 0 -0.0478128)
(0.00176767 0 -0.0465446)
(0.0019657 0 -0.0374806)
(0.00234621 0 -0.0177372)
(0.00302453 0 0.0138235)
(0.00402781 0 0.0555054)
(0.00523691 0 0.10324)
(0.00643849 0 0.152414)
(0.0074394 0 0.199702)
(0.00813416 0 0.243729)
(0.00849111 0 0.284621)
(0.00849391 0 0.323273)
(0.00803973 0 0.360989)
(0.00669821 0 0.398606)
(0.00712287 0 0.427314)
(-0.00151068 0 0.392411)
(0.0301924 0 0.0656452)
(-0.00102993 0 -0.643404)
(-0.0297867 0 0.00947599)
(0.00419174 0 0.398307)
(-0.00660725 0 0.430655)
(-0.00613925 0 0.383129)
(-0.00746854 0 0.32149)
(-0.00677408 0 0.259218)
(-0.00535054 0 0.195845)
(-0.0035854 0 0.145904)
(-0.00209194 0 0.126829)
(-0.00116583 0 0.130267)
(-0.000707424 0 0.133716)
(-0.000405857 0 0.129824)
(-3.31523e-05 0 0.12813)
(0.00036558 0 0.137868)
(0.000607699 0 0.155657)
(0.00058758 0 0.172163)
(0.000374912 0 0.182405)
(0.000112587 0 0.186638)
(-0.000107884 0 0.186912)
(-0.000261206 0 0.184997)
(-0.000354561 0 0.181868)
(-0.000395666 0 0.177856)
(-0.000377186 0 0.173098)
(-0.000280302 0 0.168259)
(-9.65489e-05 0 0.165003)
(0.000149267 0 0.165425)
(0.000398096 0 0.170483)
(0.000584529 0 0.179089)
(0.000668815 0 0.189024)
(0.000647251 0 0.198436)
(0.000535234 0 0.206388)
(0.000343797 0 0.212503)
(7.12343e-05 0 0.216478)
(-0.000302389 0 0.217845)
(-0.000809741 0 0.215622)
(-0.00146951 0 0.206991)
(-0.00213565 0 0.183499)
(-0.00209683 0 0.129569)
(-0.000921803 0 0.0454042)
(0.000106953 0 -0.00280811)
(0.00124429 0 0.0491198)
(0.00252588 0 0.134148)
(0.00251961 0 0.187799)
(0.00183281 0 0.209111)
(0.00121097 0 0.216114)
(0.000719972 0 0.218072)
(0.000340721 0 0.21748)
(4.28844e-05 0 0.215176)
(-0.000196317 0 0.211617)
(-0.000393156 0 0.207132)
(-0.000557751 0 0.201944)
(-0.000698174 0 0.196191)
(-0.00081976 0 0.189948)
(-0.000925744 0 0.183251)
(-0.0010177 0 0.176116)
(-0.00109595 0 0.168547)
(-0.00115999 0 0.160546)
(-0.00120878 0 0.152115)
(-0.00124119 0 0.143263)
(-0.00125628 0 0.134009)
(-0.00125367 0 0.124388)
(-0.00123387 0 0.114455)
(-0.00119838 0 0.104284)
(-0.00114974 0 0.0939684)
(-0.00109133 0 0.0836117)
(-0.00102698 0 0.0733186)
(-0.000960554 0 0.0631809)
(-0.000895372 0 0.053262)
(-0.00083376 0 0.0435801)
(-0.000777045 0 0.0340948)
(-0.000726835 0 0.0247172)
(-0.000686082 0 0.0153431)
(-0.000668937 0 0.00573537)
(0.00141837 0 -0.0053079)
(0.00149142 0 -0.00784233)
(0.00155318 0 -0.0114513)
(0.00162007 0 -0.0158711)
(0.00170525 0 -0.0209695)
(0.00181231 0 -0.0266736)
(0.00194026 0 -0.0328528)
(0.00208476 0 -0.0391512)
(0.00223952 0 -0.0447657)
(0.00240319 0 -0.0481867)
(0.00259562 0 -0.0470305)
(0.00288069 0 -0.0382461)
(0.00337492 0 -0.018981)
(0.00420222 0 0.0120109)
(0.00539466 0 0.0532727)
(0.00682643 0 0.100943)
(0.00826169 0 0.150432)
(0.00947564 0 0.198277)
(0.0103351 0 0.24294)
(0.0107909 0 0.284465)
(0.0108263 0 0.323775)
(0.0103454 0 0.362288)
(0.008382 0 0.400981)
(0.00954624 0 0.429481)
(-0.00202377 0 0.387623)
(0.0328341 0 0.0503722)
(-0.000687973 0 -0.595413)
(-0.0324373 0 -0.00518191)
(0.00497736 0 0.39344)
(-0.00904683 0 0.433451)
(-0.00768222 0 0.384956)
(-0.00976149 0 0.321586)
(-0.00876074 0 0.25849)
(-0.00700871 0 0.194555)
(-0.00482148 0 0.144567)
(-0.00295822 0 0.125857)
(-0.00176464 0 0.129746)
(-0.00112831 0 0.133471)
(-0.000690335 0 0.129605)
(-0.000186649 0 0.127872)
(0.000328452 0 0.137677)
(0.000643629 0 0.155666)
(0.000634786 0 0.172382)
(0.00038679 0 0.182733)
(7.23986e-05 0 0.186973)
(-0.000196497 0 0.187204)
(-0.000385914 0 0.185237)
(-0.000500552 0 0.182062)
(-0.000547675 0 0.178004)
(-0.000517281 0 0.173188)
(-0.000387278 0 0.168277)
(-0.000149936 0 0.164958)
(0.00016295 0 0.165355)
(0.000478502 0 0.170444)
(0.000716017 0 0.179128)
(0.000825623 0 0.189159)
(0.000800868 0 0.198661)
(0.000658958 0 0.20669)
(0.000412989 0 0.212877)
(6.18272e-05 0 0.216932)
(-0.000413133 0 0.218395)
(-0.00104291 0 0.21629)
(-0.0018371 0 0.207721)
(-0.00261946 0 0.183964)
(-0.00254625 0 0.129208)
(-0.00106946 0 0.0444655)
(0.000227446 0 -0.0035927)
(0.00163354 0 0.048101)
(0.0032137 0 0.133784)
(0.0032255 0 0.188322)
(0.00241847 0 0.209902)
(0.00167433 0 0.216857)
(0.00106726 0 0.218704)
(0.000586555 0 0.218017)
(0.000200924 0 0.215642)
(-0.000113296 0 0.212027)
(-0.000373505 0 0.207497)
(-0.000592061 0 0.202273)
(-0.000778452 0 0.196491)
(-0.000939201 0 0.190222)
(-0.00107838 0 0.183501)
(-0.0011981 0 0.176342)
(-0.001299 0 0.168748)
(-0.00138076 0 0.160717)
(-0.00144249 0 0.152253)
(-0.00148323 0 0.143363)
(-0.00150225 0 0.134068)
(-0.00149953 0 0.124402)
(-0.00147601 0 0.114423)
(-0.00143376 0 0.104209)
(-0.00137599 0 0.0938539)
(-0.00130677 0 0.0834652)
(-0.00123062 0 0.0731492)
(-0.00115204 0 0.0629983)
(-0.00107488 0 0.0530754)
(-0.00100194 0 0.0433969)
(-0.00093519 0 0.0339226)
(-0.000877243 0 0.0245695)
(-0.000832583 0 0.0152427)
(-0.000812118 0 0.00570113)
(0.00196707 0 -0.00547871)
(0.00203962 0 -0.00803193)
(0.00210863 0 -0.011657)
(0.0021875 0 -0.0161107)
(0.00228843 0 -0.0212575)
(0.00241537 0 -0.027011)
(0.00256835 0 -0.03323)
(0.00274414 0 -0.0395534)
(0.00293805 0 -0.045184)
(0.0031511 0 -0.048641)
(0.00340585 0 -0.0476035)
(0.00376789 0 -0.0391006)
(0.00435421 0 -0.0203135)
(0.00529128 0 0.0100998)
(0.00661748 0 0.0509106)
(0.00821016 0 0.0984704)
(0.00982305 0 0.148238)
(0.0112074 0 0.196631)
(0.0122031 0 0.241945)
(0.0127359 0 0.284139)
(0.0127723 0 0.324152)
(0.012301 0 0.363492)
(0.00960872 0 0.403318)
(0.0113694 0 0.431787)
(-0.00230146 0 0.382949)
(0.033258 0 0.0378807)
(-0.000137801 0 -0.55123)
(-0.0329331 0 -0.0168221)
(0.00525524 0 0.388531)
(-0.0110697 0 0.436336)
(-0.00896566 0 0.386636)
(-0.0118657 0 0.321539)
(-0.0105099 0 0.257599)
(-0.00850655 0 0.193078)
(-0.00596131 0 0.143061)
(-0.00379495 0 0.124726)
(-0.00237891 0 0.129069)
(-0.00158694 0 0.133079)
(-0.00102262 0 0.129259)
(-0.000397025 0 0.127502)
(0.000223611 0 0.137383)
(0.000605361 0 0.155576)
(0.000610968 0 0.172507)
(0.000338724 0 0.182974)
(-1.38538e-05 0 0.187223)
(-0.000318474 0 0.187409)
(-0.000534012 0 0.185386)
(-0.00066282 0 0.182158)
(-0.000711337 0 0.178044)
(-0.0006672 0 0.173162)
(-0.000505378 0 0.168173)
(-0.000218828 0 0.164785)
(0.00015413 0 0.165154)
(0.000528732 0 0.170273)
(0.000811565 0 0.179037)
(0.00094457 0 0.189168)
(0.000919078 0 0.198767)
(0.000753859 0 0.206881)
(0.00046403 0 0.213149)
(4.95067e-05 0 0.21729)
(-0.000506462 0 0.218856)
(-0.00123386 0 0.216867)
(-0.00213395 0 0.208344)
(-0.0030052 0 0.184282)
(-0.00289509 0 0.128671)
(-0.00114112 0 0.0433782)
(0.000397052 0 -0.00450647)
(0.00202364 0 0.0469324)
(0.00384721 0 0.133245)
(0.00387184 0 0.188706)
(0.0029735 0 0.210602)
(0.00213525 0 0.217537)
(0.00143608 0 0.219285)
(0.000873753 0 0.21851)
(0.000416161 0 0.216065)
(3.91478e-05 0 0.212394)
(-0.000275066 0 0.20782)
(-0.000540054 0 0.202561)
(-0.000766264 0 0.196749)
(-0.000961037 0 0.190456)
(-0.00112905 0 0.183712)
(-0.00127283 0 0.17653)
(-0.00139328 0 0.16891)
(-0.00149028 0 0.160851)
(-0.00156311 0 0.152354)
(-0.00161096 0 0.143427)
(-0.00163334 0 0.13409)
(-0.00163053 0 0.124381)
(-0.00160388 0 0.114358)
(-0.00155599 0 0.104101)
(-0.00149065 0 0.0937098)
(-0.00141254 0 0.0832919)
(-0.00132681 0 0.0729557)
(-0.00123849 0 0.0627943)
(-0.00115184 0 0.0528695)
(-0.00107005 0 0.0431963)
(-0.000995618 0 0.033736)
(-0.000932052 0 0.0244124)
(-0.000884363 0 0.0151379)
(-0.00086246 0 0.00566315)
(0.00251669 0 -0.00564356)
(0.0025881 0 -0.00822949)
(0.00266256 0 -0.0118849)
(0.00275168 0 -0.0163817)
(0.00286621 0 -0.0215834)
(0.00301042 0 -0.0273932)
(0.00318528 0 -0.0336598)
(0.00338864 0 -0.0400173)
(0.00361729 0 -0.0456747)
(0.00387399 0 -0.04918)
(0.00418259 0 -0.0482728)
(0.00460812 0 -0.0400593)
(0.00526457 0 -0.0217548)
(0.00627786 0 0.00807138)
(0.007693 0 0.0484094)
(0.00939645 0 0.0958298)
(0.0111403 0 0.145858)
(0.0126581 0 0.194804)
(0.0137654 0 0.2408)
(0.0143611 0 0.283708)
(0.0143724 0 0.324497)
(0.013959 0 0.364769)
(0.0105958 0 0.405842)
(0.0127258 0 0.434544)
(-0.00210044 0 0.378565)
(0.0326839 0 0.0272295)
(0.000365014 0 -0.510225)
(-0.0325502 0 -0.0262971)
(0.00498503 0 0.383867)
(-0.0127204 0 0.439566)
(-0.0101231 0 0.38829)
(-0.0137732 0 0.321435)
(-0.012044 0 0.256567)
(-0.00986249 0 0.191433)
(-0.00702017 0 0.141404)
(-0.00461733 0 0.123462)
(-0.00301346 0 0.128269)
(-0.00207607 0 0.132574)
(-0.00139147 0 0.128811)
(-0.000657868 0 0.127043)
(5.26097e-05 0 0.13701)
(0.000494753 0 0.155416)
(0.000519929 0 0.172576)
(0.000234772 0 0.183167)
(-0.000143916 0 0.187427)
(-0.000473997 0 0.187567)
(-0.000707709 0 0.185482)
(-0.00084483 0 0.182195)
(-0.000890538 0 0.178019)
(-0.000830423 0 0.173063)
(-0.00063728 0 0.167988)
(-0.000305144 0 0.164526)
(0.000121468 0 0.164864)
(0.000548296 0 0.170014)
(0.000872249 0 0.178862)
(0.0010284 0 0.189101)
(0.00100577 0 0.198804)
(0.000824146 0 0.207012)
(0.000500498 0 0.213367)
(3.60328e-05 0 0.217602)
(-0.000584029 0 0.219276)
(-0.00138897 0 0.217406)
(-0.00237073 0 0.20892)
(-0.0033001 0 0.184515)
(-0.00313334 0 0.127994)
(-0.00112083 0 0.0421493)
(0.000601108 0 -0.00554276)
(0.00238558 0 0.0456379)
(0.00442668 0 0.132581)
(0.00448243 0 0.189016)
(0.00352199 0 0.211268)
(0.00261099 0 0.218198)
(0.00183813 0 0.219855)
(0.00120945 0 0.218994)
(0.000692671 0 0.21648)
(0.000263388 0 0.212755)
(-9.63949e-05 0 0.208136)
(-0.000400817 0 0.202842)
(-0.000661067 0 0.197001)
(-0.000884973 0 0.190682)
(-0.00107765 0 0.183915)
(-0.00124192 0 0.176709)
(-0.00137893 0 0.169064)
(-0.00148871 0 0.160975)
(-0.00157072 0 0.152444)
(-0.00162434 0 0.143478)
(-0.00164933 0 0.134098)
(-0.00164632 0 0.124344)
(-0.00161708 0 0.114275)
(-0.00156473 0 0.103976)
(-0.00149358 0 0.0935467)
(-0.00140888 0 0.083099)
(-0.00131625 0 0.0727427)
(-0.0012211 0 0.062571)
(-0.00112801 0 0.0526449)
(-0.00104045 0 0.0429784)
(-0.000961465 0 0.0335352)
(-0.000895091 0 0.0242461)
(-0.000845803 0 0.0150282)
(-0.000824331 0 0.00562316)
(0.00304382 0 -0.00580454)
(0.003114 0 -0.00843374)
(0.00319238 0 -0.0121339)
(0.00328989 0 -0.0166841)
(0.00341606 0 -0.0219488)
(0.0035751 0 -0.027823)
(0.0037685 0 -0.0341466)
(0.00399497 0 -0.0405494)
(0.00425244 0 -0.0462472)
(0.00454492 0 -0.0498165)
(0.00489694 0 -0.0490549)
(0.00537261 0 -0.0411421)
(0.00608273 0 -0.0233269)
(0.00715173 0 0.00590357)
(0.00863065 0 0.0457511)
(0.0104163 0 0.0930112)
(0.0122632 0 0.143295)
(0.0138915 0 0.192817)
(0.0150963 0 0.239547)
(0.0157585 0 0.283243)
(0.0157436 0 0.324908)
(0.0154251 0 0.366266)
(0.0115363 0 0.408721)
(0.0136923 0 0.437841)
(-0.00140788 0 0.37448)
(0.031843 0 0.0181029)
(0.000807081 0 -0.47194)
(-0.0319971 0 -0.0339034)
(0.00421834 0 0.379527)
(-0.0140295 0 0.443281)
(-0.0113108 0 0.390085)
(-0.0155316 0 0.321368)
(-0.0134271 0 0.255413)
(-0.0111065 0 0.189619)
(-0.00800894 0 0.13959)
(-0.00542289 0 0.12207)
(-0.00365867 0 0.127368)
(-0.00258568 0 0.131987)
(-0.00178879 0 0.128293)
(-0.000961413 0 0.126525)
(-0.000174736 0 0.136592)
(0.000323313 0 0.155234)
(0.000371834 0 0.172644)
(8.13427e-05 0 0.183374)
(-0.000315377 0 0.187651)
(-0.000663528 0 0.187741)
(-0.000909216 0 0.185589)
(-0.0010499 0 0.182236)
(-0.0010893 0 0.177991)
(-0.00101111 0 0.172951)
(-0.000786439 0 0.167782)
(-0.000410861 0 0.164239)
(6.52323e-05 0 0.164545)
(0.000540137 0 0.16973)
(0.000903185 0 0.178671)
(0.00108342 0 0.189029)
(0.00106749 0 0.198849)
(0.000875884 0 0.207162)
(0.000527447 0 0.213615)
(2.49047e-05 0 0.217953)
(-0.00064458 0 0.219743)
(-0.00151109 0 0.217999)
(-0.00255933 0 0.209544)
(-0.00352645 0 0.184742)
(-0.00328183 0 0.127216)
(-0.00102123 0 0.0407906)
(0.000836316 0 -0.00669257)
(0.00272925 0 0.0442386)
(0.00497826 0 0.131842)
(0.00508703 0 0.189335)
(0.00408177 0 0.211992)
(0.00310972 0 0.218923)
(0.00227699 0 0.220485)
(0.00159488 0 0.219536)
(0.00102991 0 0.21695)
(0.000557618 0 0.213166)
(0.00015994 0 0.2085)
(-0.000177549 0 0.203166)
(-0.000466418 0 0.197292)
(-0.000714874 0 0.190945)
(-0.000928341 0 0.184151)
(-0.00110987 0 0.176917)
(-0.00126079 0 0.169241)
(-0.00138129 0 0.161119)
(-0.00147097 0 0.152549)
(-0.0015294 0 0.143539)
(-0.0015566 0 0.134112)
(-0.00155352 0 0.124308)
(-0.00152232 0 0.114189)
(-0.00146655 0 0.103843)
(-0.00139099 0 0.0933731)
(-0.00130132 0 0.0828933)
(-0.00120355 0 0.0725152)
(-0.00110342 0 0.0623326)
(-0.0010058 0 0.0524057)
(-0.000914624 0 0.0427481)
(-0.000833549 0 0.0333261)
(-0.000766933 0 0.0240763)
(-0.000717654 0 0.0149172)
(-0.000698178 0 0.0055823)
(0.00352742 0 -0.0059619)
(0.00359648 0 -0.00864224)
(0.00367751 0 -0.0123992)
(0.00378162 0 -0.0170131)
(0.00391741 0 -0.0223484)
(0.00408872 0 -0.0282941)
(0.00429728 0 -0.0346828)
(0.00454249 0 -0.0411409)
(0.00482324 0 -0.0468909)
(0.00514461 0 -0.0505372)
(0.00553164 0 -0.049933)
(0.00604748 0 -0.042328)
(0.00680014 0 -0.0250048)
(0.0079125 0 0.00362485)
(0.00944114 0 0.0429651)
(0.0112938 0 0.0900417)
(0.01323 0 0.140568)
(0.0149601 0 0.190681)
(0.0162607 0 0.23819)
(0.0170045 0 0.282738)
(0.0169827 0 0.325363)
(0.0167657 0 0.367957)
(0.0125396 0 0.411928)
(0.0143866 0 0.441508)
(-0.000147431 0 0.370588)
(0.0310291 0 0.0106121)
(0.00125774 0 -0.436097)
(-0.0314815 0 -0.0395969)
(0.00286695 0 0.375419)
(-0.0150677 0 0.447373)
(-0.0126327 0 0.392053)
(-0.0171869 0 0.32134)
(-0.0147237 0 0.254136)
(-0.012265 0 0.187654)
(-0.00893544 0 0.137639)
(-0.0062027 0 0.120567)
(-0.00430128 0 0.126375)
(-0.00310595 0 0.131326)
(-0.00220747 0 0.127718)
(-0.00129886 0 0.125961)
(-0.000446417 0 0.136142)
(0.000103361 0 0.155039)
(0.000176471 0 0.172723)
(-0.000115752 0 0.183607)
(-0.000526113 0 0.187905)
(-0.000887468 0 0.187943)
(-0.00114043 0 0.18572)
(-0.00128078 0 0.182295)
(-0.00131095 0 0.177974)
(-0.00121276 0 0.172842)
(-0.0009558 0 0.167569)
(-0.000537415 0 0.163939)
(-1.35323e-05 0 0.164211)
(0.00050789 0 0.169436)
(0.000909778 0 0.178478)
(0.00111579 0 0.188969)
(0.0011103 0 0.198918)
(0.000914573 0 0.207347)
(0.000549426 0 0.213908)
(1.92332e-05 0 0.218357)
(-0.000687383 0 0.220271)
(-0.00160381 0 0.218661)
(-0.00271157 0 0.210232)
(-0.00370513 0 0.184974)
(-0.00336327 0 0.126341)
(-0.000864705 0 0.0393201)
(0.00110649 0 -0.00793121)
(0.00308307 0 0.0427485)
(0.00552769 0 0.131028)
(0.00570664 0 0.189672)
(0.00466483 0 0.212785)
(0.00363667 0 0.219724)
(0.0027538 0 0.221187)
(0.00202895 0 0.220144)
(0.00142556 0 0.217482)
(0.000918641 0 0.213636)
(0.000490217 0 0.208917)
(0.000125726 0 0.203539)
(-0.000186591 0 0.197628)
(-0.000455235 0 0.191248)
(-0.000685843 0 0.184423)
(-0.000881636 0 0.177157)
(-0.00104406 0 0.169446)
(-0.00117342 0 0.161285)
(-0.00126943 0 0.152672)
(-0.00133181 0 0.143614)
(-0.00136077 0 0.134134)
(-0.00135752 0 0.124275)
(-0.00132454 0 0.114103)
(-0.00126576 0 0.103706)
(-0.00118635 0 0.0931928)
(-0.00109239 0 0.0826791)
(-0.000990248 0 0.0722784)
(-0.000885998 0 0.0620849)
(-0.000784933 0 0.0521586)
(-0.000691531 0 0.0425132)
(-0.000610144 0 0.0331173)
(-0.000545226 0 0.023911)
(-0.00049759 0 0.0148111)
(-0.000481288 0 0.00554384)
(0.00395309 0 -0.00611665)
(0.00402156 0 -0.00885323)
(0.00410458 0 -0.0126764)
(0.00421393 0 -0.0173629)
(0.00435763 0 -0.0227752)
(0.00453914 0 -0.0287977)
(0.00476028 0 -0.0352575)
(0.00502106 0 -0.0417778)
(0.00532128 0 -0.0475886)
(0.00566696 0 -0.0513209)
(0.00608345 0 -0.0508812)
(0.0066326 0 -0.0435864)
(0.0074194 0 -0.0267525)
(0.0085648 0 0.0012757)
(0.0101305 0 0.0400939)
(0.0120365 0 0.0869589)
(0.0140507 0 0.137702)
(0.0158781 0 0.188404)
(0.0172776 0 0.236712)
(0.0181197 0 0.282152)
(0.0181227 0 0.325792)
(0.0179929 0 0.369748)
(0.0136397 0 0.415353)
(0.014958 0 0.445272)
(0.00176827 0 0.366713)
(0.0303275 0 0.004952)
(0.00174432 0 -0.402428)
(-0.0309976 0 -0.0431837)
(0.000766435 0 0.371413)
(-0.0159636 0 0.451601)
(-0.014123 0 0.394151)
(-0.0187531 0 0.321293)
(-0.0159673 0 0.252721)
(-0.0133506 0 0.185552)
(-0.00980546 0 0.135576)
(-0.00695075 0 0.118974)
(-0.00493352 0 0.125302)
(-0.00363152 0 0.130595)
(-0.00264281 0 0.127086)
(-0.00166339 0 0.125354)
(-0.000754144 0 0.135659)
(-0.000158144 0 0.154823)
(-6.14581e-05 0 0.172798)
(-0.000353843 0 0.183851)
(-0.000774971 0 0.188173)
(-0.00114593 0 0.188158)
(-0.00140241 0 0.185858)
(-0.00153914 0 0.182356)
(-0.0015575 0 0.177951)
(-0.00143738 0 0.17272)
(-0.00114699 0 0.167336)
(-0.000685516 0 0.163614)
(-0.000114163 0 0.163851)
(0.000453439 0 0.169118)
(0.000894641 0 0.17827)
(0.0011284 0 0.188902)
(0.00113707 0 0.198991)
(0.000942767 0 0.207544)
(0.000568323 0 0.214221)
(1.9603e-05 0 0.218788)
(-0.000714132 0 0.220834)
(-0.00167161 0 0.219366)
(-0.00283389 0 0.210956)
(-0.00384339 0 0.185181)
(-0.00338727 0 0.125358)
(-0.000667546 0 0.0377423)
(0.00141767 0 -0.00923737)
(0.00347174 0 0.0411798)
(0.00608507 0 0.130129)
(0.00634551 0 0.189998)
(0.00527606 0 0.21362)
(0.00419692 0 0.220575)
(0.00327181 0 0.221933)
(0.00251309 0 0.220793)
(0.00187985 0 0.218052)
(0.00134599 0 0.21414)
(0.000893572 0 0.209366)
(0.000507923 0 0.203941)
(0.000177149 0 0.197991)
(-0.000107438 0 0.191575)
(-0.000351617 0 0.184716)
(-0.000558704 0 0.177415)
(-0.000730214 0 0.169667)
(-0.000866493 0 0.161464)
(-0.000967325 0 0.152804)
(-0.00103251 0 0.143694)
(-0.00106241 0 0.134159)
(-0.00105844 0 0.124242)
(-0.00102337 0 0.114013)
(-0.000961461 0 0.103564)
(-0.000878278 0 0.0930052)
(-0.000780256 0 0.0824568)
(-0.000674122 0 0.0720333)
(-0.000566306 0 0.06183)
(-0.000462545 0 0.0519066)
(-0.000367926 0 0.0422777)
(-0.000287353 0 0.0329136)
(-0.000225179 0 0.0237548)
(-0.000180439 0 0.014714)
(-0.000168138 0 0.00551063)
(0.00431241 0 -0.00627061)
(0.00438105 0 -0.0090668)
(0.00446586 0 -0.0129632)
(0.00457947 0 -0.0177291)
(0.00472975 0 -0.0232238)
(0.00491983 0 -0.0293275)
(0.00515161 0 -0.0358628)
(0.00542559 0 -0.0424511)
(0.00574237 0 -0.0483293)
(0.0061088 0 -0.0521548)
(0.00655032 0 -0.0518845)
(0.00712707 0 -0.044899)
(0.00794053 0 -0.0285485)
(0.00910896 0 -0.00111823)
(0.0106985 0 0.0371665)
(0.0126421 0 0.0837895)
(0.0147202 0 0.134716)
(0.016637 0 0.185987)
(0.0181363 0 0.235099)
(0.019088 0 0.281451)
(0.0191522 0 0.326143)
(0.0190899 0 0.371558)
(0.0148165 0 0.418879)
(0.0155309 0 0.448859)
(0.00432656 0 0.362707)
(0.0297526 0 0.00132836)
(0.00222642 0 -0.370633)
(-0.0305208 0 -0.0444107)
(-0.00215271 0 0.367451)
(-0.0168603 0 0.45569)
(-0.0157609 0 0.396325)
(-0.0202234 0 0.321173)
(-0.0171648 0 0.251152)
(-0.0143668 0 0.183319)
(-0.010624 0 0.133416)
(-0.00766499 0 0.117309)
(-0.00555259 0 0.124161)
(-0.00416109 0 0.129801)
(-0.00309338 0 0.126402)
(-0.00205166 0 0.124706)
(-0.00109348 0 0.135142)
(-0.000458361 0 0.154583)
(-0.000340892 0 0.172861)
(-0.000632365 0 0.184092)
(-0.00106159 0 0.188443)
(-0.00143892 0 0.188371)
(-0.00169564 0 0.185991)
(-0.00182583 0 0.182407)
(-0.00182994 0 0.177914)
(-0.00168597 0 0.172575)
(-0.00136091 0 0.167074)
(-0.000855789 0 0.163256)
(-0.000236845 0 0.163457)
(0.000376928 0 0.168769)
(0.000858041 0 0.178036)
(0.00112152 0 0.188816)
(0.00114808 0 0.199052)
(0.000960653 0 0.207737)
(0.000583903 0 0.214535)
(2.4855e-05 0 0.219226)
(-0.000727415 0 0.221411)
(-0.00171763 0 0.220093)
(-0.00292649 0 0.211694)
(-0.00393774 0 0.185345)
(-0.00335656 0 0.124259)
(-0.000440574 0 0.0360574)
(0.00177234 0 -0.0106088)
(0.00390927 0 0.0395426)
(0.0066527 0 0.129146)
(0.00699963 0 0.190297)
(0.00591629 0 0.214478)
(0.00479528 0 0.221456)
(0.00383608 0 0.222705)
(0.00305142 0 0.221463)
(0.002396 0 0.218642)
(0.00184229 0 0.214663)
(0.00137222 0 0.209833)
(0.000970984 0 0.20436)
(0.000626589 0 0.198368)
(0.000330228 0 0.191915)
(7.60465e-05 0 0.18502)
(-0.000139309 0 0.177683)
(-0.000317357 0 0.169895)
(-0.000458441 0 0.161648)
(-0.000562358 0 0.152938)
(-0.000628959 0 0.143775)
(-0.000658724 0 0.134181)
(-0.00065325 0 0.124205)
(-0.000615583 0 0.113917)
(-0.0005503 0 0.103414)
(-0.000463303 0 0.0928093)
(-0.000361357 0 0.0822258)
(-0.000251493 0 0.0717801)
(-0.000140442 0 0.0615682)
(-3.43183e-05 0 0.0516505)
(6.13474e-05 0 0.0420423)
(0.000141417 0 0.0327147)
(0.000201968 0 0.0236065)
(0.000245539 0 0.0146243)
(0.000256601 0 0.00548084)
(0.00459958 0 -0.00642552)
(0.00466895 0 -0.00928366)
(0.00475537 0 -0.013258)
(0.00487236 0 -0.0181089)
(0.00502786 0 -0.0236904)
(0.00522482 0 -0.0298792)
(0.00546518 0 -0.0364941)
(0.00574981 0 -0.0431551)
(0.00608001 0 -0.0491069)
(0.00646329 0 -0.0530316)
(0.00692505 0 -0.0529343)
(0.00752355 0 -0.0462561)
(0.00835639 0 -0.0303805)
(0.00953851 0 -0.00354114)
(0.0111393 0 0.0342028)
(0.013105 0 0.080555)
(0.0152306 0 0.131626)
(0.017225 0 0.183439)
(0.0188206 0 0.233344)
(0.0198859 0 0.280615)
(0.0200443 0 0.326386)
(0.0200326 0 0.373325)
(0.0160141 0 0.422375)
(0.0161814 0 0.452013)
(0.00736874 0 0.358535)
(0.0292791 0 -9.95256e-05)
(0.00263833 0 -0.340406)
(-0.0300523 0 -0.0430666)
(-0.00577391 0 0.363576)
(-0.0178656 0 0.459385)
(-0.0174916 0 0.398509)
(-0.0215869 0 0.320941)
(-0.0183114 0 0.249424)
(-0.0153154 0 0.180956)
(-0.0113961 0 0.131168)
(-0.00834576 0 0.115583)
(-0.00615763 0 0.122966)
(-0.00469483 0 0.128954)
(-0.00355981 0 0.125674)
(-0.00246291 0 0.124022)
(-0.00146216 0 0.134597)
(-0.000795282 0 0.154323)
(-0.000660976 0 0.172915)
(-0.000950961 0 0.184333)
(-0.00138569 0 0.188713)
(-0.00176634 0 0.188582)
(-0.00202036 0 0.186118)
(-0.00214135 0 0.182447)
(-0.00212895 0 0.177859)
(-0.00195937 0 0.172408)
(-0.00159859 0 0.166783)
(-0.00104931 0 0.162865)
(-0.000382482 0 0.16303)
(0.000277726 0 0.168389)
(0.000799519 0 0.177775)
(0.00109477 0 0.18871)
(0.00114298 0 0.1991)
(0.000967828 0 0.207922)
(0.00059552 0 0.214847)
(3.38931e-05 0 0.219666)
(-0.000728783 0 0.221997)
(-0.00174267 0 0.220838)
(-0.0029861 0 0.212439)
(-0.00398201 0 0.185459)
(-0.00327369 0 0.123054)
(-0.000194407 0 0.0342699)
(0.00216534 0 -0.0120588)
(0.00440161 0 0.0378449)
(0.00723525 0 0.128093)
(0.0076675 0 0.190565)
(0.00658684 0 0.215349)
(0.00543648 0 0.22236)
(0.00445208 0 0.223495)
(0.00364898 0 0.222148)
(0.00297846 0 0.219245)
(0.0024115 0 0.2152)
(0.00192973 0 0.210312)
(0.00151819 0 0.20479)
(0.00116482 0 0.198756)
(0.000860745 0 0.192265)
(0.000600087 0 0.185333)
(0.000379506 0 0.177957)
(0.00019752 0 0.170128)
(5.38243e-05 0 0.161835)
(-5.13627e-05 0 0.153075)
(-0.000117927 0 0.143854)
(-0.000146447 0 0.134201)
(-0.000138698 0 0.124162)
(-9.79693e-05 0 0.113815)
(-2.91229e-05 0 0.103256)
(6.16447e-05 0 0.0926051)
(0.000167294 0 0.0819865)
(0.000280552 0 0.0715191)
(0.000394441 0 0.0612999)
(0.000502547 0 0.0513903)
(0.000599037 0 0.0418063)
(0.000678714 0 0.0325185)
(0.000738039 0 0.0234623)
(0.000780473 0 0.0145377)
(0.0007898 0 0.00545176)
(0.00480851 0 -0.00658229)
(0.00487882 0 -0.00950397)
(0.00496652 0 -0.0135593)
(0.00508592 0 -0.018499)
(0.00524514 0 -0.0241711)
(0.00544704 0 -0.0304481)
(0.00569355 0 -0.0371457)
(0.00598583 0 -0.0438836)
(0.00632572 0 -0.0499139)
(0.00672127 0 -0.053943)
(0.00719778 0 -0.0540214)
(0.00781164 0 -0.0476472)
(0.00865658 0 -0.0322366)
(0.00984394 0 -0.00597815)
(0.0114454 0 0.0312217)
(0.0134192 0 0.0772773)
(0.0155764 0 0.128453)
(0.0176343 0 0.18077)
(0.019319 0 0.231448)
(0.0204944 0 0.279636)
(0.0207697 0 0.326501)
(0.0207974 0 0.374988)
(0.0171578 0 0.425697)
(0.0169234 0 0.454519)
(0.0106145 0 0.354275)
(0.0288466 0 0.000716491)
(0.00292343 0 -0.311464)
(-0.0296041 0 -0.0390962)
(-0.00981697 0 0.359907)
(-0.0190252 0 0.462481)
(-0.0192429 0 0.40062)
(-0.0228346 0 0.320574)
(-0.0193984 0 0.247543)
(-0.0161993 0 0.178472)
(-0.0121268 0 0.128839)
(-0.0089952 0 0.113806)
(-0.0067486 0 0.121728)
(-0.00523277 0 0.128067)
(-0.00404285 0 0.124908)
(-0.00289727 0 0.123307)
(-0.00185882 0 0.134029)
(-0.00116661 0 0.154049)
(-0.00101971 0 0.172964)
(-0.00130834 0 0.184574)
(-0.0017465 0 0.188985)
(-0.00212791 0 0.188793)
(-0.00237675 0 0.186239)
(-0.00248625 0 0.182478)
(-0.00245537 0 0.177791)
(-0.00225872 0 0.17222)
(-0.00186142 0 0.166465)
(-0.00126755 0 0.162443)
(-0.000552296 0 0.162571)
(0.000155109 0 0.167979)
(0.00071882 0 0.177489)
(0.00104817 0 0.188585)
(0.00112192 0 0.199134)
(0.000964421 0 0.2081)
(0.000603171 0 0.215155)
(4.65517e-05 0 0.220108)
(-0.000718345 0 0.222592)
(-0.00174588 0 0.221597)
(-0.00300934 0 0.213185)
(-0.00397308 0 0.185522)
(-0.0031435 0 0.121758)
(6.27952e-05 0 0.0323862)
(0.00258752 0 -0.0136035)
(0.0049478 0 0.0360908)