/*--------------------------------*- C++ -*----------------------------------*\
  =========                 |
  \\      /  F ield         | OpenFOAM: The Open Source CFD Toolbox
   \\    /   O peration     | Website:  https://openfoam.org
    \\  /    A nd           | Version:  9
     \\/     M anipulation  |
\*---------------------------------------------------------------------------*/
FoamFile
{
    format      ascii;
    class       surfaceVectorField;
    location    "0.14";
    object      Uf;
}
// * * * * * * * * * * * * * * * * * * * * * * * * * * * * * * * * * * * * * //

dimensions      [0 1 -1 0 0 0 0];

internalField   nonuniform List<vector> 
39700
(
(9.33313e-05 0 -0.0060637)
(0.000245627 0 -0.00485579)
(0.000108665 0 -0.00921339)
(0.000289488 0 -0.00747709)
(0.000121639 0 -0.0132236)
(0.000316117 0 -0.0111112)
(0.000135907 0 -0.0179256)
(0.000340371 0 -0.0154967)
(0.000153032 0 -0.0232535)
(0.000369564 0 -0.0205269)
(0.000172195 0 -0.029143)
(0.0004051 0 -0.0261647)
(0.000190263 0 -0.0353785)
(0.000444975 0 -0.0323051)
(0.000201789 0 -0.0413924)
(0.000484262 0 -0.0386067)
(0.000200639 0 -0.0459976)
(0.000515932 0 -0.044258)
(0.000186422 0 -0.0471353)
(0.000535461 0 -0.0476867)
(0.000177385 0 -0.0418904)
(0.000552961 0 -0.0463633)
(0.000221793 0 -0.0271364)
(0.000610243 0 -0.0370431)
(0.000385428 0 -0.000886191)
(0.000785454 0 -0.0167917)
(0.000704225 0 0.0363435)
(0.00115577 0 0.0154055)
(0.00113867 0 0.0813619)
(0.00172925 0 0.0575691)
(0.00158782 0 0.129691)
(0.00241389 0 0.105407)
(0.00195734 0 0.177472)
(0.00306841 0 0.154298)
(0.00220756 0 0.22257)
(0.00358475 0 0.201091)
(0.00234733 0 0.264502)
(0.0039233 0 0.24459)
(0.00239849 0 0.303772)
(0.00408955 0 0.284993)
(0.00235479 0 0.341307)
(0.00408467 0 0.32314)
(0.00211677 0 0.377937)
(0.00384536 0 0.360157)
(0.00138909 0 0.410628)
(0.00315973 0 0.396783)
(-2.19105e-05 0 0.413409)
(0.00247626 0 0.426033)
(0.0013462 0 0.253216)
(-0.00165231 0 0.399173)
(0.0164622 0 -0.306852)
(0.0175298 0 0.0874039)
(-0.0164739 0 -0.354681)
(-0.000409974 0 -0.706828)
(-0.00104417 0 0.219235)
(-0.01728 0 0.0310641)
(0.00020033 0 0.41698)
(0.00279916 0 0.404863)
(-0.00141758 0 0.407413)
(-0.00237009 0 0.4288)
(-0.00205548 0 0.351883)
(-0.00306604 0 0.381805)
(-0.00195925 0 0.291146)
(-0.00351902 0 0.321723)
(-0.00161244 0 0.228836)
(-0.00316612 0 0.260067)
(-0.00106523 0 0.172323)
(-0.00242993 0 0.197054)
(-0.000516624 0 0.137558)
(-0.00151177 0 0.147065)
(-0.000179123 0 0.129318)
(-0.000754648 0 0.127658)
(-7.01127e-05 0 0.132432)
(-0.000344031 0 0.13074)
(-6.26407e-05 0 0.132106)
(-0.000201317 0 0.13398)
(-3.01125e-06 0 0.129368)
(-0.000115125 0 0.130086)
(0.000118399 0 0.133431)
(5.22516e-05 0 0.128453)
(0.000228871 0 0.147118)
(0.000255582 0 0.138173)
(0.000249543 0 0.164108)
(0.000371576 0 0.155831)
(0.000184594 0 0.177364)
(0.0003432 0 0.172186)
(9.13753e-05 0 0.184579)
(0.000218028 0 0.182356)
(1.36874e-05 0 0.186875)
(7.738e-05 0 0.186601)
(-3.83965e-05 0 0.186112)
(-3.28831e-05 0 0.186921)
(-6.97187e-05 0 0.18364)
(-0.000105442 0 0.185053)
(-8.84281e-05 0 0.180109)
(-0.000149424 0 0.181961)
(-9.66567e-05 0 0.175768)
(-0.000171546 0 0.177983)
(-8.76331e-05 0 0.171026)
(-0.000167996 0 0.17327)
(-5.15477e-05 0 0.167042)
(-0.000126329 0 0.168487)
(1.26125e-05 0 0.165672)
(-3.89062e-05 0 0.165284)
(8.99051e-05 0 0.168422)
(8.25828e-05 0 0.165732)
(0.000156429 0 0.175221)
(0.000206092 0 0.170776)
(0.000193572 0 0.184431)
(0.000296227 0 0.179332)
(0.000197913 0 0.194043)
(0.000333892 0 0.189204)
(0.000176701 0 0.202673)
(0.000320624 0 0.198559)
(0.000137318 0 0.209662)
(0.000267239 0 0.206464)
(8.14641e-05 0 0.214655)
(0.000180498 0 0.212534)
(3.98693e-06 0 0.217253)
(5.94047e-05 0 0.216454)
(-0.00010476 0 0.216708)
(-0.000109461 0 0.217741)
(-0.000276265 0 0.211139)
(-0.000352831 0 0.215398)
(-0.00053732 0 0.195101)
(-0.000704029 0 0.206671)
(-0.00077805 0 0.156906)
(-0.00110441 0 0.183368)
(-0.000620419 0 0.0884971)
(-0.00114713 0 0.130145)
(-0.000129777 0 0.0222844)
(-0.000550605 0 0.04635)
(0.000169091 0 0.024195)
(3.15611e-05 0 -0.00217956)
(0.000681599 0 0.0926928)
(0.000658096 0 0.0501736)
(0.000826058 0 0.161292)
(0.00128879 0 0.134742)
(0.0005616 0 0.199255)
(0.00121663 0 0.187602)
(0.000315997 0 0.212375)
(0.000808178 0 0.208699)
(0.000150378 0 0.216911)
(0.000475171 0 0.215766)
(4.2092e-05 0 0.21767)
(0.000238668 0 0.217831)
(-3.56944e-05 0 0.216267)
(6.79356e-05 0 0.217314)
(-9.54285e-05 0 0.213358)
(-6.17611e-05 0 0.215056)
(-0.000143071 0 0.209347)
(-0.000164201 0 0.211528)
(-0.000182149 0 0.204514)
(-0.000247639 0 0.207063)
(-0.000215308 0 0.19904)
(-0.000317258 0 0.201888)
(-0.000244406 0 0.193035)
(-0.000376959 0 0.196142)
(-0.000270613 0 0.186556)
(-0.000429358 0 0.189903)
(-0.000294514 0 0.179631)
(-0.000475982 0 0.183209)
(-0.000316243 0 0.172272)
(-0.000517495 0 0.176077)
(-0.000335592 0 0.164484)
(-0.000553903 0 0.168514)
(-0.000352094 0 0.156269)
(-0.000584739 0 0.160522)
(-0.000365101 0 0.147635)
(-0.00060921 0 0.152104)
(-0.000373857 0 0.138596)
(-0.000626363 0 0.143271)
(-0.000377619 0 0.12918)
(-0.000635262 0 0.13404)
(-0.000375793 0 0.119429)
(-0.000635189 0 0.124448)
(-0.000368078 0 0.109407)
(-0.000625856 0 0.114545)
(-0.000354587 0 0.0991948)
(-0.000607558 0 0.104405)
(-0.0003359 0 0.088887)
(-0.000581255 0 0.0941182)
(-0.000313018 0 0.078585)
(-0.000548516 0 0.083785)
(-0.000287247 0 0.068385)
(-0.000511355 0 0.0735083)
(-0.000259981 0 0.0583644)
(-0.000471958 0 0.063379)
(-0.000232447 0 0.0485655)
(-0.000432329 0 0.0534615)
(-0.000205478 0 0.0389784)
(-0.000393916 0 0.0437761)
(-0.000179646 0 0.0295344)
(-0.000357536 0 0.0342835)
(-0.000156004 0 0.0201254)
(-0.000323953 0 0.024888)
(-0.000136355 0 0.0105814)
(-0.000293953 0 0.0154741)
(-0.000274908 0 0.00581407)
(0.000459272 0 -0.00620981)
(0.000654254 0 -0.0050449)
(0.000498218 0 -0.00928994)
(0.000720376 0 -0.00759826)
(0.000532986 0 -0.01328)
(0.000765883 0 -0.0112143)
(0.000571745 0 -0.0179775)
(0.000809851 0 -0.0156063)
(0.000619258 0 -0.0233035)
(0.000864256 0 -0.0206549)
(0.000675709 0 -0.0291825)
(0.000931994 0 -0.0263098)
(0.000737471 0 -0.0353902)
(0.00101127 0 -0.0324564)
(0.000797939 0 -0.0413533)
(0.00109683 0 -0.0387479)
(0.000850666 0 -0.0458909)
(0.00118107 0 -0.0443754)
(0.0008989 0 -0.0469745)
(0.00125978 0 -0.047789)
(0.000972847 0 -0.0417477)
(0.00134722 0 -0.0465128)
(0.0011442 0 -0.0271401)
(0.0014978 0 -0.0373735)
(0.00151066 0 -0.00115747)
(0.00181373 0 -0.0174655)
(0.00213383 0 0.0357861)
(0.00240141 0 0.0143131)
(0.00297762 0 0.0806306)
(0.00328356 0 0.056159)
(0.00389553 0 0.12895)
(0.00434683 0 0.103945)
(0.00471929 0 0.176834)
(0.00539489 0 0.153047)
(0.00533663 0 0.222057)
(0.00625712 0 0.200197)
(0.00570875 0 0.264081)
(0.00684736 0 0.244077)
(0.00582873 0 0.303413)
(0.00714562 0 0.284836)
(0.00565194 0 0.341054)
(0.00713867 0 0.323362)
(0.00501275 0 0.377945)
(0.006733 0 0.360922)
(0.00368304 0 0.410817)
(0.00559977 0 0.398299)
(0.00264726 0 0.411643)
(0.00557494 0 0.427159)
(0.00687441 0 0.243919)
(-0.00152212 0 0.394793)
(0.0218858 0 -0.295614)
(0.0269835 0 0.0725759)
(-0.0222545 0 -0.341656)
(-0.000881175 0 -0.665263)
(-0.00623997 0 0.210422)
(-0.0265965 0 0.0166875)
(-0.00130226 0 0.415349)
(0.0037594 0 0.400637)
(-0.00318517 0 0.407463)
(-0.00519163 0 0.430336)
(-0.00489545 0 0.351601)
(-0.00521053 0 0.382946)
(-0.00484277 0 0.290637)
(-0.00623318 0 0.321688)
(-0.0040643 0 0.228306)
(-0.0056514 0 0.259548)
(-0.00286153 0 0.17185)
(-0.00442895 0 0.196252)
(-0.00167879 0 0.137203)
(-0.00291226 0 0.146276)
(-0.000855699 0 0.129065)
(-0.00163859 0 0.12711)
(-0.000438605 0 0.132234)
(-0.00087449 0 0.130462)
(-0.000254289 0 0.131912)
(-0.000522912 0 0.133857)
(-6.42429e-05 0 0.129147)
(-0.000296166 0 0.129959)
(0.000196642 0 0.133179)
(1.00494e-05 0 0.128279)
(0.000426756 0 0.146854)
(0.000348759 0 0.13802)
(0.000496773 0 0.163852)
(0.000551408 0 0.155784)
(0.000391264 0 0.177111)
(0.000525973 0 0.172256)
(0.000202975 0 0.184313)
(0.000336519 0 0.182482)
(2.39448e-05 0 0.186587)
(0.000108698 0 0.18672)
(-0.000107731 0 0.185804)
(-7.93642e-05 0 0.187009)
(-0.000192026 0 0.183317)
(-0.000208336 0 0.185109)
(-0.000239273 0 0.179777)
(-0.000286808 0 0.181993)
(-0.000251554 0 0.175427)
(-0.000322645 0 0.177992)
(-0.000217398 0 0.170674)
(-0.000309591 0 0.173248)
(-0.000123204 0 0.166676)
(-0.000230362 0 0.168424)
(2.71286e-05 0 0.165293)
(-7.63313e-05 0 0.165183)
(0.000202746 0 0.168034)
(0.000131728 0 0.165615)
(0.000356861 0 0.17483)
(0.000342611 0 0.170673)
(0.000450236 0 0.18404)
(0.000499592 0 0.17927)
(0.00046915 0 0.19365)
(0.000569229 0 0.189191)
(0.00042173 0 0.202277)
(0.000549812 0 0.19859)
(0.000320522 0 0.209263)
(0.000455793 0 0.206532)
(0.000169042 0 0.214258)
(0.000297105 0 0.212635)
(-4.30976e-05 0 0.216867)
(7.21713e-05 0 0.216595)
(-0.000339676 0 0.216352)
(-0.000238048 0 0.217939)
(-0.000765225 0 0.210834)
(-0.000666471 0 0.215682)
(-0.00129711 0 0.194815)
(-0.00123908 0 0.207026)
(-0.00162913 0 0.156506)
(-0.00183513 0 0.183589)
(-0.00118415 0 0.0879968)
(-0.00182589 0 0.129848)
(-0.000259867 0 0.0219369)
(-0.000822233 0 0.0457338)
(0.000386299 0 0.0238442)
(7.73546e-05 0 -0.00261033)
(0.00139387 0 0.092209)
(0.0010661 0 0.0495019)
(0.00184014 0 0.160945)
(0.0021528 0 0.134444)
(0.00144409 0 0.199046)
(0.00212026 0 0.187866)
(0.000951367 0 0.212166)
(0.00150776 0 0.209102)
(0.000545813 0 0.216667)
(0.000967474 0 0.216114)
(0.000251267 0 0.217404)
(0.000552371 0 0.218096)
(3.31266e-05 0 0.215996)
(0.000237569 0 0.21752)
(-0.000137595 0 0.213092)
(-7.0841e-06 0 0.215225)
(-0.000274357 0 0.209091)
(-0.000202446 0 0.21167)
(-0.000386993 0 0.20427)
(-0.000362738 0 0.207186)
(-0.000482238 0 0.198811)
(-0.000496674 0 0.201997)
(-0.000564652 0 0.192822)
(-0.000611075 0 0.196241)
(-0.000637133 0 0.186359)
(-0.000710471 0 0.189994)
(-0.000701217 0 0.17945)
(-0.00079757 0 0.183293)
(-0.000757382 0 0.172105)
(-0.000873645 0 0.176155)
(-0.000805319 0 0.16433)
(-0.000938891 0 0.168583)
(-0.000844182 0 0.156128)
(-0.000992747 0 0.16058)
(-0.000872829 0 0.147503)
(-0.0010342 0 0.152149)
(-0.000890073 0 0.138472)
(-0.00106206 0 0.143299)
(-0.000894969 0 0.12906)
(-0.00107532 0 0.134048)
(-0.000887087 0 0.119311)
(-0.00107342 0 0.124432)
(-0.000866742 0 0.10929)
(-0.00105653 0 0.114505)
(-0.000835108 0 0.0990771)
(-0.00102578 0 0.104341)
(-0.000794187 0 0.0887689)
(-0.000983214 0 0.0940305)
(-0.000746624 0 0.0784675)
(-0.000931697 0 0.0836784)
(-0.00069538 0 0.0682694)
(-0.000874579 0 0.0733879)
(-0.000643315 0 0.058252)
(-0.000815288 0 0.0632507)
(-0.000592713 0 0.0484562)
(-0.000756824 0 0.0533308)
(-0.000544966 0 0.0388712)
(-0.000701279 0 0.0436468)
(-0.000501009 0 0.0294296)
(-0.0006498 0 0.0341587)
(-0.000462892 0 0.0200268)
(-0.000603643 0 0.0247746)
(-0.000434319 0 0.0104849)
(-0.000564779 0 0.0153849)
(-0.000545907 0 0.00575097)
(0.00093671 0 -0.00636907)
(0.00115509 0 -0.00522168)
(0.000987877 0 -0.0094258)
(0.00122701 0 -0.00775744)
(0.00103919 0 -0.013416)
(0.00128407 0 -0.0113665)
(0.00109894 0 -0.0181332)
(0.00134386 0 -0.0157752)
(0.00117325 0 -0.0234852)
(0.0014195 0 -0.0208552)
(0.00126332 0 -0.0293838)
(0.00151443 0 -0.0265412)
(0.00136609 0 -0.0355963)
(0.00162737 0 -0.0327081)
(0.00147535 0 -0.0415486)
(0.00175361 0 -0.039003)
(0.00158538 0 -0.0460755)
(0.00188633 0 -0.0446203)
(0.0017017 0 -0.0471939)
(0.00202305 0 -0.0480358)
(0.00186025 0 -0.0421209)
(0.00218165 0 -0.0468336)
(0.00214386 0 -0.0278448)
(0.0024232 0 -0.0379205)
(0.0026668 0 -0.00233394)
(0.00286057 0 -0.018427)
(0.00350663 0 0.0341664)
(0.00361337 0 0.012841)
(0.00461521 0 0.0788025)
(0.00471124 0 0.0543065)
(0.00582785 0 0.127239)
(0.00603167 0 0.102013)
(0.00693801 0 0.175493)
(0.00735009 0 0.151361)
(0.00779404 0 0.221189)
(0.00845752 0 0.198958)
(0.00832558 0 0.263686)
(0.00923463 0 0.243343)
(0.00850515 0 0.303485)
(0.00964099 0 0.284599)
(0.00828928 0 0.34168)
(0.00966009 0 0.323632)
(0.00755734 0 0.379348)
(0.00919256 0 0.361797)
(0.00608421 0 0.412617)
(0.0075401 0 0.399979)
(0.00485587 0 0.41028)
(0.00833455 0 0.428494)
(0.00950937 0 0.232932)
(-0.00176722 0 0.389971)
(0.0242209 0 -0.280407)
(0.0315132 0 0.058044)
(-0.0246375 0 -0.324765)
(-0.000858953 0 -0.619254)
(-0.00858276 0 0.199245)
(-0.031112 0 0.00227476)
(-0.00295177 0 0.414094)
(0.00458455 0 0.395818)
(-0.00526074 0 0.409283)
(-0.00782704 0 0.43222)
(-0.00721143 0 0.35231)
(-0.00691074 0 0.384246)
(-0.00712181 0 0.290354)
(-0.00861501 0 0.321628)
(-0.00610015 0 0.227531)
(-0.00776741 0 0.258867)
(-0.00446283 0 0.170874)
(-0.00617963 0 0.195161)
(-0.002816 0 0.136367)
(-0.00420344 0 0.145178)
(-0.00160958 0 0.128548)
(-0.00252508 0 0.126305)
(-0.000919513 0 0.131991)
(-0.00146524 0 0.130002)
(-0.000550119 0 0.13177)
(-0.000917868 0 0.133611)
(-0.000215007 0 0.128977)
(-0.000548096 0 0.129736)
(0.000171245 0 0.132999)
(-0.000109901 0 0.128021)
(0.000497929 0 0.146762)
(0.000347016 0 0.137802)
(0.000610771 0 0.16391)
(0.000625664 0 0.155709)
(0.000488735 0 0.177284)
(0.000611183 0 0.172337)
(0.000245348 0 0.184521)
(0.000380851 0 0.182644)
(8.28797e-07 0 0.186775)
(9.24926e-05 0 0.186883)
(-0.000187838 0 0.185955)
(-0.00015219 0 0.187135)
(-0.000311736 0 0.183433)
(-0.00032356 0 0.185192)
(-0.000379228 0 0.179862)
(-0.000427556 0 0.182038)
(-0.000391051 0 0.175477)
(-0.000471671 0 0.177999)
(-0.000333675 0 0.170678)
(-0.000447233 0 0.173209)
(-0.000192188 0 0.166631)
(-0.00033379 0 0.16833)
(2.49668e-05 0 0.165214)
(-0.000123242 0 0.165039)
(0.000275414 0 0.167954)
(0.000156108 0 0.165448)
(0.000496032 0 0.174786)
(0.000438299 0 0.170526)
(0.000633099 0 0.184057)
(0.000650273 0 0.179179)
(0.000664699 0 0.19373)
(0.000747219 0 0.18917)
(0.0005975 0 0.202412)
(0.000724059 0 0.198635)
(0.000445605 0 0.209446)
(0.000597096 0 0.206633)
(0.000213493 0 0.214491)
(0.000378393 0 0.21279)
(-0.000110429 0 0.217162)
(6.65308e-05 0 0.216811)
(-0.000552365 0 0.216734)
(-0.000357761 0 0.218234)
(-0.00114307 0 0.211306)
(-0.000926326 0 0.216076)
(-0.00181714 0 0.195245)
(-0.0016533 0 0.207475)
(-0.00217645 0 0.156534)
(-0.00237756 0 0.183829)
(-0.00155468 0 0.0874868)
(-0.00232154 0 0.129434)
(-0.000338041 0 0.021298)
(-0.000995633 0 0.0449227)
(0.00059363 0 0.0231558)
(0.000167199 0 -0.00323143)
(0.0019431 0 0.0916337)
(0.00143892 0 0.0486023)
(0.002588 0 0.160974)
(0.00286979 0 0.134014)
(0.00215128 0 0.199527)
(0.00287255 0 0.188158)
(0.00151958 0 0.212696)
(0.00212564 0 0.209617)
(0.000958986 0 0.217117)
(0.00144265 0 0.216594)
(0.000523457 0 0.217769)
(0.000893615 0 0.218487)
(0.000185995 0 0.2163)
(0.000463638 0 0.217838)
(-8.18642e-05 0 0.213354)
(0.000121904 0 0.21549)
(-0.00029901 0 0.209321)
(-0.000154806 0 0.211896)
(-0.000478934 0 0.204476)
(-0.00038333 0 0.207382)
(-0.000630914 0 0.198999)
(-0.000574906 0 0.202171)
(-0.000761522 0 0.192995)
(-0.000738313 0 0.196398)
(-0.000875021 0 0.18652)
(-0.000879481 0 0.190137)
(-0.00097378 0 0.179598)
(-0.00100206 0 0.183423)
(-0.00105871 0 0.172241)
(-0.0011079 0 0.176272)
(-0.0011297 0 0.164451)
(-0.00119748 0 0.168686)
(-0.00118593 0 0.15623)
(-0.00127037 0 0.160665)
(-0.00122632 0 0.147583)
(-0.00132564 0 0.152213)
(-0.00124981 0 0.138526)
(-0.00136221 0 0.143338)
(-0.00125575 0 0.129084)
(-0.00137926 0 0.134058)
(-0.00124423 0 0.119303)
(-0.0013766 0 0.12441)
(-0.00121626 0 0.109248)
(-0.00135494 0 0.11445)
(-0.0011739 0 0.099003)
(-0.00131607 0 0.104254)
(-0.00112012 0 0.0886663)
(-0.00126287 0 0.0939153)
(-0.00105855 0 0.0783422)
(-0.00119905 0 0.0835402)
(-0.000993035 0 0.0681286)
(-0.0011288 0 0.0732339)
(-0.000927173 0 0.0581029)
(-0.0010563 0 0.0630884)
(-0.000863768 0 0.0483053)
(-0.000985124 0 0.053167)
(-0.000804616 0 0.0387241)
(-0.000917851 0 0.0434866)
(-0.000751206 0 0.029294)
(-0.000856118 0 0.0340071)
(-0.000706691 0 0.0199182)
(-0.000802039 0 0.0246421)
(-0.000676947 0 0.0104244)
(-0.000759333 0 0.0152921)
(-0.000740528 0 0.00571782)
(0.00146343 0 -0.00654483)
(0.00169272 0 -0.00539348)
(0.00152129 0 -0.00960368)
(0.00176552 0 -0.00793743)
(0.00158464 0 -0.0136083)
(0.0018309 0 -0.0115544)
(0.001661 0 -0.0183594)
(0.00190378 0 -0.0159911)
(0.00175688 0 -0.0237534)
(0.00199684 0 -0.0211136)
(0.00187407 0 -0.0296894)
(0.00211384 0 -0.0268423)
(0.00201005 0 -0.0359267)
(0.00225431 0 -0.0330412)
(0.0021594 0 -0.0418914)
(0.00241445 0 -0.0393517)
(0.002318 0 -0.0464353)
(0.00258878 0 -0.0449733)
(0.00249458 0 -0.0476224)
(0.00277715 0 -0.0484104)
(0.00273031 0 -0.0427433)
(0.00300074 0 -0.0473104)
(0.00311496 0 -0.0288437)
(0.00332429 0 -0.0386623)
(0.00377006 0 -0.00385533)
(0.00386456 0 -0.0196314)
(0.00477799 0 0.0321488)
(0.00474675 0 0.0110742)
(0.00609249 0 0.0765382)
(0.00600607 0 0.0521099)
(0.00753246 0 0.125096)
(0.0075183 0 0.0997193)
(0.00886432 0 0.173783)
(0.00904237 0 0.149339)
(0.00990752 0 0.220075)
(0.0103415 0 0.197447)
(0.0105712 0 0.263206)
(0.0112691 0 0.242427)
(0.0108156 0 0.30365)
(0.0117634 0 0.284278)
(0.0105825 0 0.342571)
(0.0117993 0 0.323925)
(0.009726 0 0.381172)
(0.0113232 0 0.362821)
(0.00791076 0 0.414891)
(0.00899536 0 0.402048)
(0.00605945 0 0.409052)
(0.0104578 0 0.430506)
(0.0106432 0 0.223027)
(-0.00216261 0 0.385222)
(0.0244243 0 -0.264804)
(0.033046 0 0.0444312)
(-0.0242471 0 -0.30735)
(-0.000412887 0 -0.573422)
(-0.00972232 0 0.189366)
(-0.0326852 0 -0.0107645)
(-0.00396298 0 0.412967)
(0.0051163 0 0.390889)
(-0.00709634 0 0.411644)
(-0.0100583 0 0.434776)
(-0.00932247 0 0.353271)
(-0.00832394 0 0.38573)
(-0.00917531 0 0.290038)
(-0.0108136 0 0.32153)
(-0.00792942 0 0.226523)
(-0.00963534 0 0.258036)
(-0.00591275 0 0.169561)
(-0.00775763 0 0.193816)
(-0.00386842 0 0.135212)
(-0.00539139 0 0.143816)
(-0.002342 0 0.127801)
(-0.00337659 0 0.125288)
(-0.00143272 0 0.131609)
(-0.00207178 0 0.129396)
(-0.000908363 0 0.131538)
(-0.00135763 0 0.133261)
(-0.000437133 0 0.128738)
(-0.000856476 0 0.129421)
(7.63393e-05 0 0.132774)
(-0.000291837 0 0.127679)
(0.000497869 0 0.146672)
(0.000276031 0 0.137521)
(0.000651032 0 0.164024)
(0.000624495 0 0.155607)
(0.000516422 0 0.177558)
(0.000622877 0 0.172427)
(0.000230287 0 0.184853)
(0.000362757 0 0.182835)
(-6.35961e-05 0 0.187088)
(2.92724e-05 0 0.187079)
(-0.000293826 0 0.186221)
(-0.000257486 0 0.187288)
(-0.000446216 0 0.18365)
(-0.000459963 0 0.185294)
(-0.000527315 0 0.180033)
(-0.000581686 0 0.182092)
(-0.000536116 0 0.175596)
(-0.000629506 0 0.178005)
(-0.00045664 0 0.170732)
(-0.00059224 0 0.173156)
(-0.000272112 0 0.166618)
(-0.000446328 0 0.168207)
(5.35434e-06 0 0.165156)
(-0.000184382 0 0.164854)
(0.000322447 0 0.1679)
(0.00015854 0 0.165237)
(0.000601585 0 0.174786)
(0.000503617 0 0.17034)
(0.000776398 0 0.184144)
(0.000763791 0 0.179062)
(0.000818793 0 0.19391)
(0.000885096 0 0.189142)
(0.000734986 0 0.202676)
(0.000859973 0 0.198691)
(0.000540749 0 0.209784)
(0.000706408 0 0.206763)
(0.000241852 0 0.214904)
(0.000438509 0 0.212989)
(-0.000172417 0 0.217663)
(5.5667e-05 0 0.217087)
(-0.000725415 0 0.217343)
(-0.000459797 0 0.218602)
(-0.00144182 0 0.212005)
(-0.00113839 0 0.216553)
(-0.00223382 0 0.195842)
(-0.00198553 0 0.208003)
(-0.00263039 0 0.156586)
(-0.00281233 0 0.184093)
(-0.0018625 0 0.0868369)
(-0.00272067 0 0.128922)
(-0.000362206 0 0.0204364)
(-0.00110529 0 0.0439225)
(0.000855809 0 0.0222542)
(0.000312249 0 -0.00404341)
(0.00248889 0 0.0909423)
(0.00182859 0 0.0475136)
(0.00327125 0 0.161053)
(0.00353045 0 0.133493)
(0.00278365 0 0.200198)
(0.00354867 0 0.188483)
(0.00204067 0 0.213463)
(0.00269599 0 0.210224)
(0.00136298 0 0.217803)
(0.00190479 0 0.217174)
(0.000820085 0 0.218352)
(0.00125167 0 0.218975)
(0.000388195 0 0.216801)
(0.000730154 0 0.218245)
(3.90012e-05 0 0.213791)
(0.000308542 0 0.215835)
(-0.0002478 0 0.209708)
(-3.70742e-05 0 0.212194)
(-0.000486579 0 0.204823)
(-0.000324285 0 0.207642)
(-0.000688526 0 0.199313)
(-0.000566057 0 0.202402)
(-0.000861669 0 0.193281)
(-0.000772358 0 0.196605)
(-0.0010113 0 0.186781)
(-0.000950119 0 0.190325)
(-0.00114047 0 0.179836)
(-0.00110372 0 0.183594)
(-0.00125054 0 0.172454)
(-0.00123546 0 0.176424)
(-0.00134162 0 0.164637)
(-0.00134614 0 0.168817)
(-0.00141311 0 0.156384)
(-0.00143552 0 0.160774)
(-0.00146408 0 0.147702)
(-0.0015028 0 0.152294)
(-0.00149366 0 0.138604)
(-0.00154709 0 0.143386)
(-0.00150151 0 0.129119)
(-0.00156779 0 0.134071)
(-0.00148807 0 0.119293)
(-0.00156503 0 0.124385)
(-0.00145489 0 0.109194)
(-0.00153994 0 0.114385)
(-0.00140461 0 0.0989076)
(-0.00149488 0 0.104151)
(-0.00134087 0 0.0885354)
(-0.00143332 0 0.093779)
(-0.001268 0 0.078184)
(-0.00135965 0 0.0833769)
(-0.0011905 0 0.0679525)
(-0.00127872 0 0.0730519)
(-0.00111256 0 0.0579183)
(-0.00119526 0 0.0628966)
(-0.00103747 0 0.0481205)
(-0.00111336 0 0.0529732)
(-0.000967588 0 0.0385466)
(-0.001036 0 0.0432976)
(-0.000905228 0 0.0291343)
(-0.000965404 0 0.0338303)
(-0.00085462 0 0.0197947)
(-0.000904648 0 0.0244916)
(-0.00082209 0 0.0103579)
(-0.000858473 0 0.0151906)
(-0.000837289 0 0.00568219)
(0.00201125 0 -0.00672481)
(0.00224188 0 -0.00556107)
(0.00207332 0 -0.00980114)
(0.00231386 0 -0.00813053)
(0.00214624 0 -0.0138306)
(0.00238559 0 -0.0117706)
(0.00223631 0 -0.0186226)
(0.00246959 0 -0.0162457)
(0.00234987 0 -0.0240655)
(0.00257732 0 -0.0214196)
(0.00248941 0 -0.0300462)
(0.0027129 0 -0.0272008)
(0.0026534 0 -0.0363162)
(0.00287682 0 -0.0334428)
(0.00283779 0 -0.0423014)
(0.00306639 0 -0.0397822)
(0.00304061 0 -0.0468712)
(0.00327767 0 -0.0454247)
(0.00327328 0 -0.0481347)
(0.00351255 0 -0.0489041)
(0.00357947 0 -0.0434536)
(0.00379422 0 -0.0479297)
(0.00405001 0 -0.0299315)
(0.004188 0 -0.0395697)
(0.00480668 0 -0.00547024)
(0.00480939 0 -0.0210226)
(0.00593435 0 0.0300176)
(0.00578457 0 0.00909763)
(0.00739354 0 0.0741222)
(0.00715524 0 0.0496715)
(0.00900056 0 0.12276)
(0.0088033 0 0.0971592)
(0.0105058 0 0.171856)
(0.0104817 0 0.147053)
(0.0117034 0 0.218747)
(0.0119327 0 0.195714)
(0.012478 0 0.262538)
(0.0129843 0 0.241358)
(0.0127682 0 0.303667)
(0.0135485 0 0.283896)
(0.0124836 0 0.343352)
(0.0135724 0 0.324282)
(0.0114391 0 0.382929)
(0.01313 0 0.36407)
(0.00927306 0 0.417212)
(0.0101022 0 0.404518)
(0.00686453 0 0.407951)
(0.0120476 0 0.433123)
(0.0112155 0 0.214538)
(-0.00220095 0 0.380713)
(0.0231642 0 -0.249636)
(0.032971 0 0.0326284)
(-0.0223592 0 -0.290412)
(0.000113606 0 -0.530554)
(-0.0103787 0 0.181011)
(-0.0327416 0 -0.0215198)
(-0.00482976 0 0.411862)
(0.00512014 0 0.38614)
(-0.00865244 0 0.413987)
(-0.011895 0 0.437895)
(-0.0111483 0 0.354088)
(-0.00954441 0 0.387394)
(-0.0110209 0 0.289569)
(-0.0128195 0 0.321445)
(-0.00957143 0 0.225338)
(-0.011277 0 0.25707)
(-0.00723002 0 0.168069)
(-0.00918452 0 0.192255)
(-0.00486281 0 0.133893)
(-0.00649074 0 0.142237)
(-0.00307367 0 0.126897)
(-0.00420614 0 0.124095)
(-0.00197307 0 0.131074)
(-0.00269618 0 0.128662)
(-0.0013042 0 0.131169)
(-0.0018315 0 0.132816)
(-0.00070774 0 0.12838)
(-0.00120704 0 0.129024)
(-8.25878e-05 0 0.132443)
(-0.000527447 0 0.127262)
(0.000423854 0 0.146479)
(0.000138111 0 0.137184)
(0.000617325 0 0.164041)
(0.000550057 0 0.155478)
(0.000479311 0 0.177741)
(0.000565448 0 0.172519)
(0.000163334 0 0.185099)
(0.000286748 0 0.183045)
(-0.000167125 0 0.187316)
(-7.88851e-05 0 0.187299)
(-0.000428196 0 0.186398)
(-0.000396236 0 0.187462)
(-0.000600801 0 0.183772)
(-0.000620861 0 0.185409)
(-0.00068972 0 0.180101)
(-0.000753825 0 0.182151)
(-0.000692119 0 0.175603)
(-0.000800937 0 0.178007)
(-0.000589754 0 0.170667)
(-0.000748811 0 0.173088)
(-0.000364863 0 0.166479)
(-0.000571329 0 0.168057)
(-3.31219e-05 0 0.164969)
(-0.000261986 0 0.164632)
(0.00034281 0 0.167714)
(0.000137799 0 0.164986)
(0.000673542 0 0.174655)
(0.000538514 0 0.170119)
(0.000882482 0 0.184103)
(0.000841907 0 0.178923)
(0.000936287 0 0.193968)
(0.000986485 0 0.189106)
(0.000840568 0 0.202824)
(0.000962424 0 0.198755)
(0.000612673 0 0.210015)
(0.000789002 0 0.206914)
(0.000260091 0 0.215219)
(0.000482264 0 0.213224)
(-0.000226328 0 0.218073)
(4.27698e-05 0 0.217412)
(-0.000868687 0 0.217862)
(-0.000545246 0 0.219031)
(-0.00168796 0 0.212606)
(-0.00131141 0 0.217099)
(-0.00257385 0 0.196313)
(-0.00225234 0 0.208594)
(-0.00298137 0 0.156476)
(-0.00315265 0 0.184365)
(-0.00206671 0 0.0860246)
(-0.00301421 0 0.128312)
(-0.000323203 0 0.0194359)
(-0.00113098 0 0.0427602)
(0.00114309 0 0.021213)
(0.00049908 0 -0.00502091)
(0.00299326 0 0.0900887)
(0.00220461 0 0.0462802)
(0.00389565 0 0.160975)
(0.00413695 0 0.132891)
(0.00337878 0 0.200756)
(0.00417713 0 0.188828)
(0.00254943 0 0.214152)
(0.00324774 0 0.2109)
(0.00177745 0 0.218432)
(0.00237312 0 0.217835)
(0.00114782 0 0.218889)
(0.0016371 0 0.21954)
(0.000638876 0 0.217258)
(0.0010416 0 0.218725)
(0.000222266 0 0.214186)
(0.000554416 0 0.216247)
(-0.000122646 0 0.210053)
(0.000151268 0 0.212551)
(-0.000411595 0 0.205128)
(-0.00018573 0 0.207957)
(-0.000656673 0 0.199586)
(-0.000470435 0 0.202681)
(-0.000866727 0 0.193527)
(-0.000713666 0 0.196857)
(-0.00104776 0 0.187004)
(-0.000923005 0 0.190552)
(-0.00120333 0 0.180035)
(-0.00110335 0 0.183798)
(-0.00133514 0 0.172629)
(-0.00125737 0 0.176606)
(-0.00144357 0 0.164785)
(-0.0013861 0 0.168974)
(-0.00152818 0 0.156501)
(-0.0014895 0 0.160902)
(-0.00158819 0 0.147784)
(-0.00156692 0 0.152389)
(-0.00162296 0 0.138647)
(-0.00161765 0 0.143444)
(-0.00163239 0 0.129119)
(-0.00164133 0 0.134087)
(-0.00161732 0 0.11925)
(-0.00163842 0 0.124356)
(-0.00157972 0 0.109107)
(-0.00161048 0 0.114312)
(-0.00152281 0 0.0987815)
(-0.00156036 0 0.104035)
(-0.00145084 0 0.0883764)
(-0.00149211 0 0.0936254)
(-0.00136875 0 0.0780003)
(-0.00141071 0 0.0831933)
(-0.00128161 0 0.0677536)
(-0.00132153 0 0.0728476)
(-0.00119409 0 0.0577133)
(-0.00122979 0 0.0626815)
(-0.00110989 0 0.0479173)
(-0.00113992 0 0.0527563)
(-0.00103181 0 0.0383531)
(-0.00105525 0 0.0430866)
(-0.000962881 0 0.0289628)
(-0.000978542 0 0.033635)
(-0.000908052 0 0.0196643)
(-0.000913572 0 0.0243287)
(-0.000873373 0 0.0102873)
(-0.000865083 0 0.0150826)
(-0.000843396 0 0.00564304)
(0.00255987 0 -0.00690562)
(0.00278026 0 -0.00572416)
(0.00262461 0 -0.0100135)
(0.00285105 0 -0.00833192)
(0.00270531 0 -0.0140796)
(0.00292747 0 -0.0120099)
(0.00280719 0 -0.0189204)
(0.00302079 0 -0.0165337)
(0.00293616 0 -0.0244189)
(0.00314113 0 -0.0217672)
(0.00309524 0 -0.0304516)
(0.00329276 0 -0.0276094)
(0.00328391 0 -0.0367626)
(0.00347689 0 -0.0339048)
(0.00349945 0 -0.0427784)
(0.00369181 0 -0.0402854)
(0.00374154 0 -0.0473855)
(0.00393487 0 -0.0459635)
(0.0040232 0 -0.0487373)
(0.00420945 0 -0.0495017)
(0.00438842 0 -0.0442642)
(0.00453977 0 -0.0486685)
(0.00492635 0 -0.0311258)
(0.00499037 0 -0.040607)
(0.00575669 0 -0.0071981)
(0.00567365 0 -0.0225492)
(0.00696634 0 0.0277584)
(0.0067148 0 0.00697737)
(0.0085237 0 0.071553)
(0.00816183 0 0.0470692)
(0.0102496 0 0.120246)
(0.00990639 0 0.0944098)
(0.0118858 0 0.169746)
(0.0117018 0 0.144568)
(0.0132056 0 0.217252)
(0.0132748 0 0.193803)
(0.0140683 0 0.261741)
(0.0144308 0 0.240167)
(0.0143907 0 0.303615)
(0.0150598 0 0.283472)
(0.0140553 0 0.344152)
(0.015058 0 0.324703)
(0.0128403 0 0.384815)
(0.014692 0 0.365524)
(0.0104004 0 0.41985)
(0.011066 0 0.407299)
(0.00754361 0 0.407224)
(0.013209 0 0.436228)
(0.0115889 0 0.207095)
(-0.00175416 0 0.376522)
(0.0216785 0 -0.235076)
(0.0322634 0 0.0226618)
(-0.0204387 0 -0.274043)
(0.000586047 0 -0.490893)
(-0.010882 0 0.173884)
(-0.0322736 0 -0.0300992)
(-0.00569157 0 0.411051)
(0.00460169 0 0.381698)
(-0.0100545 0 0.416508)
(-0.0133749 0 0.441454)
(-0.0127441 0 0.354862)
(-0.010717 0 0.389187)
(-0.012669 0 0.289001)
(-0.0146524 0 0.321395)
(-0.0110393 0 0.224)
(-0.0127355 0 0.255983)
(-0.00843232 0 0.166418)
(-0.0104845 0 0.190518)
(-0.0058111 0 0.132433)
(-0.00751455 0 0.14049)
(-0.00380969 0 0.125866)
(-0.00502011 0 0.122761)
(-0.00253883 0 0.130422)
(-0.00333606 0 0.127815)
(-0.0017322 0 0.130693)
(-0.00233088 0 0.132278)
(-0.00102049 0 0.127927)
(-0.00159013 0 0.128549)
(-0.000298449 0 0.132026)
(-0.000809641 0 0.126781)
(0.000280164 0 0.146213)
(-6.10633e-05 0 0.136798)
(0.000513552 0 0.163996)
(0.000409033 0 0.155323)
(0.000380805 0 0.177871)
(0.000445882 0 0.172607)
(4.67208e-05 0 0.185297)
(0.000158057 0 0.183268)
(-0.00030918 0 0.187497)
(-0.000229647 0 0.187537)
(-0.000592153 0 0.186524)
(-0.000568763 0 0.187651)
(-0.000778161 0 0.183838)
(-0.000808462 0 0.185532)
(-0.000869914 0 0.180107)
(-0.000947364 0 0.182212)
(-0.000862721 0 0.175541)
(-0.00098992 0 0.178002)
(-0.000736352 0 0.170525)
(-0.000920767 0 0.173003)
(-0.000473066 0 0.166257)
(-0.00071186 0 0.167881)
(-9.22895e-05 0 0.164695)
(-0.000358003 0 0.164379)
(0.000335834 0 0.167439)
(9.335e-05 0 0.1647)
(0.000712638 0 0.174438)
(0.000544216 0 0.169868)
(0.000953541 0 0.183981)
(0.000887717 0 0.178762)
(0.00102052 0 0.193952)
(0.00105591 0 0.189061)
(0.000918221 0 0.202908)
(0.00103663 0 0.198823)
(0.000665218 0 0.210189)
(0.000850015 0 0.207083)
(0.000270706 0 0.215485)
(0.000513973 0 0.213488)
(-0.000272883 0 0.218439)
(3.04688e-05 0 0.217774)
(-0.000986294 0 0.218341)
(-0.000614305 0 0.219506)
(-0.00188645 0 0.213163)
(-0.00145003 0 0.2177)
(-0.00284041 0 0.196717)
(-0.00246503 0 0.20923)
(-0.00323257 0 0.156254)
(-0.00341328 0 0.184626)
(-0.00216514 0 0.0850714)
(-0.00320758 0 0.127601)
(-0.000220626 0 0.0183033)
(-0.00107103 0 0.0414639)
(0.00143182 0 0.0200476)
(0.000718712 0 -0.00612254)
(0.00345205 0 0.0891095)
(0.00255742 0 0.0449334)
(0.00447651 0 0.160798)
(0.00470247 0 0.132208)
(0.00395613 0 0.201262)
(0.00478473 0 0.189175)
(0.00306282 0 0.214816)
(0.00380188 0 0.211629)
(0.00221639 0 0.219046)
(0.00286035 0 0.218559)
(0.00151662 0 0.219414)
(0.00205756 0 0.220168)
(0.000944667 0 0.217707)
(0.00140216 0 0.219264)
(0.00047246 0 0.214573)
(0.000861291 0 0.216714)
(7.87039e-05 0 0.21039)
(0.000410503 0 0.21296)
(-0.000252834 0 0.205426)
(3.17727e-05 0 0.208317)
(-0.00053467 0 0.199851)
(-0.000289183 0 0.203003)
(-0.000776291 0 0.193766)
(-0.000563743 0 0.197146)
(-0.000984186 0 0.187218)
(-0.000799924 0 0.190813)
(-0.0011623 0 0.180226)
(-0.00100299 0 0.184033)
(-0.00131259 0 0.172795)
(-0.00117589 0 0.176813)
(-0.00143563 0 0.164923)
(-0.00131986 0 0.169152)
(-0.00153117 0 0.156607)
(-0.001435 0 0.161047)
(-0.0015986 0 0.147854)