/*--------------------------------*- C++ -*----------------------------------*\
  =========                 |
  \\      /  F ield         | OpenFOAM: The Open Source CFD Toolbox
   \\    /   O peration     | Website:  https://openfoam.org
    \\  /    A nd           | Version:  9
     \\/     M anipulation  |
\*---------------------------------------------------------------------------*/
FoamFile
{
    format      ascii;
    class       volScalarField;
    location    "0.19";
    object      alpha.water;
}
// * * * * * * * * * * * * * * * * * * * * * * * * * * * * * * * * * * * * * //

dimensions      [0 0 0 0 0 0 0];

internalField   nonuniform List<scalar> 
20000
(
3.58603e-319
3.41814e-319
3.25787e-319
3.10491e-319
2.95886e-319
2.81934e-319
2.68584e-319
2.55807e-319
2.43535e-319
2.31746e-319
2.20373e-319
2.09286e-319
1.98318e-319
1.87429e-319
1.76599e-319
1.66204e-319
1.5985e-319
1.9982e-319
1.91401e-319
1.41342e-319
1.30927e-319
1.25858e-319
1.21086e-319
1.16105e-319
1.11076e-319
1.06165e-319
1.01481e-319
9.70543e-320
9.28053e-320
8.85761e-320
7.22324e-320
7.20051e-320
7.19755e-320
7.23312e-320
7.30328e-320
7.32996e-320
7.25684e-320
7.17581e-320
7.12838e-320
7.10466e-320
7.09182e-320
7.0849e-320
7.08095e-320
7.0849e-320
7.13036e-320
7.42383e-320
8.01177e-320
7.42581e-320
7.14814e-320
7.11949e-320
7.13826e-320
7.17186e-320
7.21533e-320
7.25782e-320
7.27561e-320
7.26276e-320
7.23905e-320
7.22126e-320
7.21138e-320
7.20743e-320
7.20348e-320
7.20447e-320
7.21336e-320
7.26276e-320
7.45051e-320
7.78845e-320
7.65604e-320
7.35466e-320
7.23905e-320
7.21336e-320
8.82401e-320
9.26077e-320
9.71926e-320
1.01995e-319
1.07034e-319
1.12331e-319
1.17874e-319
1.23694e-319
1.29801e-319
1.36204e-319
1.42923e-319
1.49979e-319
1.5738e-319
1.65137e-319
1.73298e-319
1.81846e-319
1.90828e-319
2.00255e-319
2.10156e-319
2.20551e-319
2.3148e-319
2.42942e-319
2.54987e-319
2.67645e-319
2.80945e-319
2.94918e-319
3.09591e-319
3.25016e-319
3.41241e-319
3.58336e-319
3.58711e-319
3.41933e-319
3.25925e-319
3.10639e-319
2.96064e-319
2.82151e-319
2.68851e-319
2.56143e-319
2.4391e-319
2.31974e-319
2.20314e-319
2.0898e-319
1.97883e-319
1.86984e-319
1.76263e-319
1.66293e-319
1.61174e-319
1.9063e-319
1.86441e-319
1.43338e-319
1.31263e-319
1.25839e-319
1.21026e-319
1.16046e-319
1.11046e-319
1.06145e-319
1.01471e-319
9.70444e-320
9.28053e-320
8.85761e-320
7.22324e-320
7.20051e-320
7.19755e-320
7.23312e-320
7.30427e-320
7.32996e-320
7.25881e-320
7.17779e-320
7.12937e-320
7.10466e-320
7.09281e-320
7.0849e-320
7.08095e-320
7.08589e-320
7.13431e-320
7.43075e-320
7.98015e-320
7.42877e-320
7.14814e-320
7.1185e-320
7.13826e-320
7.17087e-320
7.21533e-320
7.25782e-320
7.27561e-320
7.26276e-320
7.23905e-320
7.22126e-320
7.21138e-320
7.20743e-320
7.20447e-320
7.20447e-320
7.21435e-320
7.26672e-320
7.45347e-320
7.77659e-320
7.6511e-320
7.35565e-320
7.23905e-320
7.21336e-320
8.82401e-320
9.26077e-320
9.71827e-320
1.01995e-319
1.07034e-319
1.12331e-319
1.17874e-319
1.23694e-319
1.29801e-319
1.36204e-319
1.42923e-319
1.49979e-319
1.5737e-319
1.65137e-319
1.73289e-319
1.81836e-319
1.90828e-319
2.00255e-319
2.10156e-319
2.20551e-319
2.3146e-319
2.42932e-319
2.54977e-319
2.67625e-319
2.80926e-319
2.94898e-319
3.09582e-319
3.24996e-319
3.41221e-319
3.58316e-319
3.58751e-319
3.41992e-319
3.26004e-319
3.10748e-319
2.96202e-319
2.82319e-319
2.69068e-319
2.56361e-319
2.44029e-319
2.32013e-319
2.20413e-319
2.09168e-319
1.98229e-319
1.87577e-319
1.77261e-319
1.67874e-319
1.63575e-319
1.83684e-319
1.80364e-319
1.45542e-319
1.32291e-319
1.26342e-319
1.21254e-319
1.16145e-319
1.11076e-319
1.06165e-319
1.01481e-319
9.70543e-320
9.28152e-320
8.8586e-320
7.22423e-320
7.19952e-320
7.19755e-320
7.23312e-320
7.30427e-320
7.33193e-320
7.26079e-320
7.17779e-320
7.12937e-320
7.10466e-320
7.09281e-320
7.0849e-320
7.08095e-320
7.08688e-320
7.13826e-320
7.43668e-320
7.94458e-320
7.4347e-320
7.15111e-320
7.1185e-320
7.13628e-320
7.16988e-320
7.21533e-320
7.25782e-320
7.2766e-320
7.26276e-320
7.23905e-320
7.22126e-320
7.21138e-320
7.20743e-320
7.20447e-320
7.20545e-320
7.21533e-320
7.27067e-320
7.45644e-320
7.76177e-320
7.64616e-320
7.3596e-320
7.24103e-320
7.21336e-320
8.82401e-320
9.26077e-320
9.71827e-320
1.01995e-319
1.07034e-319
1.12331e-319
1.17874e-319
1.23694e-319
1.29801e-319
1.36204e-319
1.42923e-319
1.49979e-319
1.5737e-319
1.65137e-319
1.73279e-319
1.81836e-319
1.90818e-319
2.00245e-319
2.10146e-319
2.20541e-319
2.3146e-319
2.42922e-319
2.54968e-319
2.67625e-319
2.80926e-319
2.94898e-319
3.09572e-319
3.24996e-319
3.41221e-319
3.58316e-319
3.58662e-319
3.41923e-319
3.25955e-319
3.10728e-319
2.96202e-319
2.82349e-319
2.69127e-319
2.56499e-319
2.44266e-319
2.32349e-319
2.20847e-319
2.09741e-319
1.9897e-319
1.88565e-319
1.78575e-319
1.69702e-319
1.66144e-319
1.78901e-319
1.75215e-319
1.47429e-319
1.33437e-319
1.26935e-319
1.2158e-319
1.16323e-319
1.11165e-319
1.06204e-319
1.01501e-319
9.7074e-320
9.28251e-320
8.85959e-320
7.22423e-320
7.19952e-320
7.19656e-320
7.23411e-320
7.30624e-320
7.33193e-320
7.26276e-320
7.17976e-320
7.13036e-320
7.10466e-320
7.09281e-320
7.0849e-320
7.08095e-320
7.08688e-320
7.14419e-320
7.44458e-320
7.90703e-320
7.44063e-320
7.15605e-320
7.11751e-320
7.13628e-320
7.16988e-320
7.21533e-320
7.25881e-320
7.2766e-320
7.26375e-320
7.24004e-320
7.22126e-320
7.21138e-320
7.20743e-320
7.20447e-320
7.20545e-320
7.21731e-320
7.27363e-320
7.46039e-320
7.74695e-320
7.64023e-320
7.36355e-320
7.243e-320
7.21336e-320
8.82401e-320
9.25978e-320
9.71827e-320
1.01995e-319
1.07034e-319
1.12331e-319
1.17874e-319
1.23694e-319
1.29801e-319
1.36204e-319
1.42923e-319
1.49979e-319
1.5737e-319
1.65137e-319
1.73279e-319
1.81836e-319
1.90818e-319
2.00245e-319
2.10146e-319
2.20541e-319
2.3146e-319
2.42922e-319
2.54968e-319
2.67625e-319
2.80926e-319
2.94898e-319
3.09582e-319
3.25006e-319
3.41221e-319
3.58316e-319
3.58415e-319
3.41706e-319
3.25767e-319
3.1057e-319
2.96064e-319
2.8223e-319
2.69029e-319
2.5642e-319
2.44345e-319
2.32725e-319
2.21391e-319
2.10373e-319
1.99751e-319
1.89504e-319
1.79761e-319
1.71381e-319
1.6818e-319
1.75996e-319
1.7151e-319
1.48714e-319
1.34485e-319
1.27449e-319
1.21866e-319
1.16491e-319
1.11264e-319
1.06264e-319
1.0153e-319
9.70938e-320
9.28448e-320
8.86057e-320
7.22522e-320
7.19952e-320
7.19557e-320
7.2351e-320
7.30624e-320
7.33391e-320
7.26474e-320
7.17976e-320
7.13036e-320
7.10466e-320
7.09182e-320
7.0849e-320
7.07996e-320
7.08688e-320
7.15012e-320
7.45249e-320
7.87343e-320
7.44656e-320
7.16099e-320
7.11652e-320
7.13431e-320
7.16988e-320
7.21533e-320
7.25881e-320
7.2766e-320
7.26474e-320
7.24004e-320
7.22126e-320
7.21138e-320
7.20743e-320
7.20545e-320
7.20545e-320
7.21731e-320
7.27759e-320
7.46434e-320
7.73213e-320
7.6343e-320
7.3685e-320
7.24498e-320
7.21435e-320
8.82401e-320
9.25978e-320
9.71827e-320
1.01995e-319
1.07034e-319
1.12331e-319
1.17874e-319
1.23694e-319
1.29801e-319
1.36204e-319
1.42923e-319
1.49979e-319
1.5737e-319
1.65137e-319
1.73279e-319
1.81836e-319
1.90818e-319
2.00245e-319
2.10146e-319
2.20541e-319
2.3146e-319
2.42922e-319
2.54977e-319
2.67635e-319
2.80926e-319
2.94908e-319
3.09591e-319
3.25016e-319
3.41241e-319
3.58336e-319
3.58059e-319
3.41399e-319
3.2549e-319
3.10313e-319
2.95837e-319
2.82023e-319
2.68831e-319
2.56222e-319
2.44167e-319
2.32626e-319
2.21559e-319
2.10857e-319
2.00403e-319
1.90284e-319
1.80749e-319
1.72785e-319
1.69662e-319
1.74099e-319
1.68832e-319
1.49465e-319
1.35433e-319
1.27894e-319
1.22094e-319
1.16629e-319
1.11343e-319
1.06303e-319
1.0156e-319
9.71135e-320
9.28646e-320
8.86156e-320
7.22522e-320
7.19952e-320
7.19557e-320
7.2351e-320
7.30822e-320
7.33589e-320
7.26672e-320
7.18075e-320
7.12838e-320
7.10466e-320
7.09083e-320
7.08293e-320
7.07897e-320
7.08589e-320
7.15703e-320
7.46039e-320
7.84181e-320
7.4515e-320
7.16593e-320
7.11652e-320
7.13431e-320
7.16988e-320
7.21533e-320
7.2598e-320
7.27858e-320
7.26474e-320
7.24103e-320
7.22126e-320
7.21138e-320
7.20743e-320
7.20545e-320
7.20545e-320
7.21929e-320
7.28154e-320
7.4683e-320
7.71829e-320
7.62837e-320
7.37344e-320
7.24695e-320
7.21533e-320
8.82401e-320
9.26077e-320
9.71926e-320
1.01995e-319
1.07034e-319
1.12331e-319
1.17884e-319
1.23694e-319
1.29801e-319
1.36204e-319
1.42923e-319
1.49979e-319
1.5738e-319
1.65137e-319
1.73289e-319
1.81846e-319
1.90828e-319
2.00255e-319
2.10156e-319
2.20551e-319
2.3147e-319
2.42942e-319
2.54987e-319
2.67645e-319
2.80945e-319
2.94928e-319
3.09611e-319
3.25036e-319
3.41261e-319
3.58356e-319
3.57674e-319
3.41044e-319
3.25174e-319
3.10016e-319
2.9557e-319
2.81776e-319
2.68604e-319
2.56015e-319
2.4397e-319
2.32438e-319
2.21381e-319
2.10788e-319
2.0065e-319
1.90848e-319
1.81559e-319
1.73941e-319
1.70729e-319
1.72755e-319
1.66876e-319
1.49919e-319
1.36234e-319
1.28279e-319
1.22281e-319
1.16738e-319
1.11402e-319
1.06343e-319
1.0158e-319
9.71333e-320
9.28745e-320
8.86354e-320
7.22522e-320
7.19952e-320
7.19557e-320
7.2351e-320
7.3102e-320
7.33687e-320
7.26869e-320
7.18075e-320
7.12838e-320
7.10269e-320
7.09083e-320
7.08293e-320
7.07897e-320
7.08589e-320
7.16395e-320
7.46632e-320
7.81414e-320
7.45446e-320
7.17186e-320
7.11652e-320
7.13332e-320
7.16988e-320
7.21731e-320
7.26079e-320
7.27858e-320
7.26573e-320
7.24103e-320
7.22126e-320
7.21138e-320
7.20743e-320
7.20545e-320
7.20545e-320
7.22028e-320
7.28549e-320
7.47126e-320
7.70545e-320
7.62244e-320
7.37838e-320
7.24992e-320
7.21533e-320
8.825e-320
9.26077e-320
9.71926e-320
1.01995e-319
1.07034e-319
1.12331e-319
1.17884e-319
1.23704e-319
1.29811e-319
1.36214e-319
1.42933e-319
1.49979e-319
1.5739e-319
1.65146e-319
1.73298e-319
1.81856e-319
1.90828e-319
2.00265e-319
2.10166e-319
2.20571e-319
2.3148e-319
2.42962e-319
2.55007e-319
2.67665e-319
2.80975e-319
2.94957e-319
3.09641e-319
3.25075e-319
3.41301e-319
3.58395e-319
3.57308e-319
3.40708e-319
3.24858e-319
3.0974e-319
2.95313e-319
2.81538e-319
2.68386e-319
2.55807e-319
2.43792e-319
2.3227e-319
2.21223e-319
2.1065e-319
2.00541e-319
1.91026e-319
1.82162e-319
1.74899e-319
1.715e-319
1.71737e-319
1.65393e-319
1.50186e-319
1.36925e-319
1.28615e-319
1.22429e-319
1.16807e-319
1.11441e-319
1.06362e-319
1.016e-319
9.71333e-320
9.28843e-320
8.86354e-320
7.22522e-320
7.19854e-320
7.19557e-320
7.23707e-320
7.3102e-320
7.33786e-320
7.26968e-320
7.18174e-320
7.12739e-320
7.10269e-320
7.08885e-320
7.08095e-320
7.077e-320
7.0849e-320
7.16988e-320
7.47126e-320
7.78944e-320
7.45841e-320
7.17779e-320
7.11652e-320
7.13233e-320
7.16988e-320
7.21731e-320
7.26178e-320
7.28055e-320
7.26672e-320
7.24103e-320
7.22225e-320
7.21138e-320
7.20743e-320
7.20545e-320
7.20644e-320
7.22126e-320
7.29043e-320
7.47423e-320
7.69359e-320
7.6175e-320
7.38332e-320
7.25288e-320
7.21632e-320
8.825e-320
9.26077e-320
9.71926e-320
1.02005e-319
1.07044e-319
1.12331e-319
1.17884e-319
1.23714e-319
1.29821e-319
1.36224e-319
1.42943e-319
1.49998e-319
1.5739e-319
1.65156e-319
1.73308e-319
1.81866e-319
1.90848e-319
2.00274e-319
2.10176e-319
2.20581e-319
2.31499e-319
2.42981e-319
2.55037e-319
2.67705e-319
2.81005e-319
2.94987e-319
3.0968e-319
3.25115e-319
3.4134e-319
3.58435e-319
3.56992e-319
3.40411e-319
3.24601e-319
3.09502e-319
2.95096e-319
2.81341e-319
2.68199e-319
2.55649e-319
2.43634e-319
2.32132e-319
2.21104e-319
2.10561e-319
2.00512e-319
1.91075e-319
1.82557e-319
1.7567e-319
1.72034e-319
1.70897e-319
1.64227e-319
1.50354e-319
1.37508e-319
1.28902e-319
1.22528e-319
1.16856e-319
1.11461e-319
1.06362e-319
1.016e-319
9.71531e-320
9.29041e-320
8.86453e-320
7.22522e-320
7.19755e-320
7.1936e-320
7.23707e-320
7.31217e-320
7.33984e-320
7.27166e-320
7.18174e-320
7.1264e-320
7.10071e-320
7.08787e-320
7.08095e-320
7.07601e-320
7.0849e-320
7.17581e-320
7.47521e-320
7.7677e-320
7.46039e-320
7.18273e-320
7.11652e-320
7.13233e-320
7.16988e-320
7.2183e-320
7.26276e-320
7.28055e-320
7.26771e-320
7.24201e-320
7.22225e-320
7.21138e-320
7.20743e-320
7.20545e-320
7.20743e-320
7.22324e-320
7.2934e-320
7.4762e-320
7.68371e-320
7.61256e-320
7.38727e-320
7.25585e-320
7.21731e-320
8.82599e-320
9.26077e-320
9.71926e-320
1.02015e-319
1.07054e-319
1.12351e-319
1.17894e-319
1.23714e-319
1.29821e-319
1.36224e-319
1.42953e-319
1.49998e-319
1.57409e-319
1.65176e-319
1.73318e-319
1.81875e-319
1.90867e-319
2.00294e-319
2.10195e-319
2.2061e-319
2.31529e-319
2.43001e-319
2.55066e-319
2.67734e-319
2.81044e-319
2.95036e-319
3.0972e-319
3.25154e-319
3.41389e-319
3.58494e-319
3.56735e-319
3.40194e-319
3.24394e-319
3.09315e-319
2.94928e-319
2.81183e-319
2.6806e-319
2.55531e-319
2.43535e-319
2.32053e-319
2.21055e-319
2.10541e-319
2.00531e-319
1.91203e-319
1.82943e-319
1.76293e-319
1.72399e-319
1.70176e-319
1.63289e-319
1.50433e-319
1.37983e-319
1.29169e-319
1.22617e-319
1.16876e-319
1.11461e-319
1.06362e-319
1.016e-319
9.71531e-320
9.29041e-320
8.86551e-320
7.22522e-320
7.19755e-320
7.1936e-320
7.23707e-320
7.31316e-320
7.34182e-320
7.27265e-320
7.18174e-320
7.12541e-320
7.09972e-320
7.08688e-320
7.07897e-320
7.07502e-320
7.0849e-320
7.18174e-320
7.47818e-320
7.74893e-320
7.46237e-320
7.18767e-320
7.11751e-320
7.13233e-320
7.16988e-320
7.21929e-320
7.26474e-320
7.28253e-320
7.26869e-320
7.243e-320
7.22324e-320
7.21138e-320
7.20743e-320
7.20545e-320
7.20743e-320
7.22522e-320
7.29735e-320
7.47719e-320
7.67383e-320
7.60861e-320
7.39122e-320
7.25881e-320
7.2183e-320
8.82599e-320
9.26175e-320
9.72025e-320
1.02015e-319
1.07054e-319
1.12351e-319
1.17904e-319
1.23724e-319
1.2984e-319
1.36244e-319
1.42963e-319
1.50018e-319
1.57419e-319
1.65186e-319
1.73338e-319
1.81895e-319
1.90887e-319
2.00314e-319
2.10225e-319
2.2063e-319
2.31559e-319
2.43041e-319
2.55096e-319
2.67774e-319
2.81084e-319
2.95076e-319
3.09779e-319
3.25214e-319
3.41459e-319
3.58553e-319
3.56557e-319
3.40036e-319
3.24245e-319
3.09186e-319
2.94819e-319
2.81094e-319
2.67981e-319
2.55462e-319
2.43485e-319
2.32023e-319
2.21055e-319
2.10571e-319
2.0063e-319
1.91401e-319
1.83318e-319
1.76796e-319
1.72636e-319
1.69583e-319
1.62538e-319
1.50453e-319
1.38378e-319
1.29396e-319
1.22686e-319
1.16876e-319
1.11461e-319
1.06353e-319
1.0158e-319
9.71531e-320
9.29041e-320
8.86551e-320
7.22522e-320
7.19755e-320
7.1936e-320
7.23707e-320
7.31415e-320
7.34379e-320
7.27462e-320
7.18174e-320
7.12443e-320
7.09874e-320
7.0849e-320
7.077e-320
7.07304e-320
7.0849e-320
7.18668e-320
7.48015e-320
7.73114e-320
7.46237e-320
7.19162e-320
7.11751e-320
7.13036e-320
7.16988e-320
7.21929e-320
7.26573e-320
7.28352e-320
7.26968e-320
7.243e-320
7.22324e-320
7.21138e-320
7.20743e-320
7.20545e-320
7.20743e-320
7.22522e-320
7.30031e-320
7.47818e-320
7.66395e-320
7.60367e-320
7.39419e-320
7.26178e-320
7.21929e-320
8.82698e-320
9.26274e-320
9.72124e-320
1.02025e-319
1.07074e-319
1.1236e-319
1.17914e-319
1.23734e-319
1.2984e-319
1.36253e-319
1.42983e-319
1.50038e-319
1.57429e-319
1.65196e-319
1.73358e-319
1.81915e-319
1.90907e-319
2.00344e-319
2.10255e-319
2.20669e-319
2.31598e-319
2.4308e-319
2.55145e-319
2.67823e-319
2.81143e-319
2.95135e-319
3.09838e-319
3.25293e-319
3.41528e-319
3.58632e-319
3.56458e-319
3.39937e-319
3.24166e-319
3.09127e-319
2.9476e-319
2.81044e-319
2.67952e-319
2.55442e-319
2.43476e-319
2.32043e-319
2.21104e-319
2.1065e-319
2.00769e-319
1.91638e-319
1.83664e-319
1.77221e-319
1.72785e-319
1.69069e-319
1.61905e-319
1.50433e-319
1.38694e-319
1.29603e-319
1.22746e-319
1.16876e-319
1.11441e-319
1.06333e-319
1.0158e-319
9.71432e-320
9.29041e-320
8.86551e-320
7.22522e-320
7.19557e-320
7.19162e-320
7.23806e-320
7.31612e-320
7.34577e-320
7.2766e-320
7.18273e-320
7.12344e-320
7.09676e-320
7.08293e-320
7.07502e-320
7.07107e-320
7.0849e-320
7.19162e-320
7.48213e-320
7.71533e-320
7.46434e-320
7.19656e-320
7.1185e-320
7.13036e-320
7.16988e-320
7.22126e-320
7.26672e-320
7.2845e-320
7.27067e-320
7.24399e-320
7.22324e-320
7.21237e-320
7.20743e-320
7.20545e-320
7.20743e-320
7.22719e-320
7.30427e-320
7.47917e-320
7.65604e-320
7.59972e-320
7.39715e-320
7.26474e-320
7.22028e-320
8.82796e-320
9.26274e-320
9.72124e-320
1.02034e-319
1.07074e-319
1.1237e-319
1.17924e-319
1.23754e-319
1.2986e-319
1.36263e-319
1.42992e-319
1.50048e-319
1.57449e-319
1.65216e-319
1.73378e-319
1.81935e-319
1.90927e-319
2.00373e-319
2.10294e-319
2.20699e-319
2.31638e-319
2.4312e-319
2.55195e-319
2.67882e-319
2.81202e-319
2.95204e-319
3.09917e-319
3.25362e-319
3.41617e-319
3.58731e-319
3.56419e-319
3.39897e-319
3.24137e-319
3.09097e-319
2.9474e-319
2.81044e-319
2.67961e-319
2.55462e-319
2.43515e-319
2.32092e-319
2.21173e-319
2.10768e-319
2.00936e-319
1.91875e-319
1.84e-319
1.77577e-319
1.72883e-319
1.68634e-319
1.61362e-319
1.50354e-319
1.38941e-319
1.29801e-319
1.22805e-319
1.16876e-319
1.11422e-319
1.06313e-319
1.0156e-319
9.71333e-320
9.29041e-320
8.86551e-320
7.22522e-320
7.19557e-320
7.19162e-320
7.23806e-320
7.31711e-320
7.34676e-320
7.27858e-320
7.18371e-320
7.12245e-320
7.09478e-320
7.08194e-320
7.07304e-320
7.06909e-320
7.0849e-320
7.19557e-320
7.48213e-320
7.7015e-320
7.46434e-320
7.19952e-320
7.1185e-320
7.12937e-320
7.16988e-320
7.22126e-320
7.26869e-320
7.28648e-320
7.27166e-320
7.24498e-320
7.22324e-320
7.21237e-320
7.20743e-320
7.20545e-320
7.20743e-320
7.22917e-320
7.30624e-320
7.48015e-320
7.64814e-320
7.59577e-320
7.4011e-320
7.26771e-320
7.22126e-320
8.82796e-320
9.26373e-320
9.72321e-320
1.02034e-319
1.07094e-319
1.1238e-319
1.17933e-319
1.23763e-319
1.2988e-319
1.36283e-319
1.43002e-319
1.50067e-319
1.57469e-319
1.65245e-319
1.73397e-319
1.81974e-319
1.90966e-319
2.00413e-319
2.10324e-319
2.20739e-319
2.31677e-319
2.43179e-319
2.55254e-319
2.67942e-319
2.81272e-319
2.95273e-319
3.09997e-319
3.25451e-319
3.41716e-319
3.5884e-319
3.56419e-319
3.39897e-319
3.24147e-319
3.09107e-319
2.9476e-319
2.81064e-319
2.67991e-319
2.55511e-319
2.43574e-319
2.32171e-319
2.21262e-319
2.10887e-319
2.01114e-319
1.92132e-319
1.84316e-319
1.77883e-319
1.72943e-319
1.68239e-319
1.60868e-319
1.50255e-319
1.39139e-319
1.29979e-319
1.22864e-319
1.16866e-319
1.11402e-319
1.06283e-319
1.0154e-319
9.71234e-320
9.29041e-320
8.86551e-320
7.22522e-320
7.1936e-320
7.19063e-320
7.23806e-320
7.3181e-320
7.34873e-320
7.28055e-320
7.18371e-320
7.12146e-320
7.09281e-320
7.07996e-320
7.07107e-320
7.06711e-320
7.08391e-320
7.19854e-320
7.48213e-320
7.68766e-320
7.46434e-320
7.20348e-320
7.1185e-320
7.12838e-320
7.16988e-320
7.22324e-320
7.27067e-320
7.28846e-320
7.27265e-320
7.24498e-320
7.22324e-320
7.21237e-320
7.20743e-320
7.20545e-320
7.20743e-320
7.22917e-320
7.3102e-320
7.48015e-320
7.64221e-320
7.5928e-320
7.40407e-320
7.27067e-320
7.22324e-320
8.82895e-320
9.26472e-320
9.72321e-320
1.02054e-319
1.07094e-319
1.1239e-319
1.17943e-319
1.23773e-319
1.2989e-319
1.36303e-319
1.43022e-319
1.50087e-319
1.57488e-319
1.65275e-319
1.73437e-319
1.81994e-319
1.90996e-319
2.00442e-319
2.10363e-319
2.20788e-319
2.31737e-319
2.43229e-319
2.55313e-319
2.68001e-319
2.81341e-319
2.95362e-319
3.10085e-319
3.2555e-319
3.41814e-319
3.58968e-319
3.56439e-319
3.39937e-319
3.24176e-319
3.09147e-319
2.94799e-319
2.81113e-319
2.6804e-319
2.5557e-319
2.43644e-319
2.3225e-319
2.21381e-319
2.11025e-319
2.01302e-319
1.92369e-319
1.84603e-319
1.7814e-319
1.72963e-319
1.67893e-319
1.60433e-319
1.50137e-319
1.39297e-319
1.30137e-319
1.22924e-319
1.16866e-319
1.11382e-319
1.06264e-319
1.01521e-319
9.71135e-320
9.29041e-320
8.86551e-320
7.22522e-320
7.1936e-320
7.18964e-320
7.23905e-320
7.32008e-320
7.34972e-320
7.28253e-320
7.1847e-320
7.12047e-320
7.09083e-320
7.07798e-320
7.06909e-320
7.06514e-320
7.08293e-320
7.2015e-320
7.48213e-320
7.6758e-320
7.46434e-320
7.20743e-320
7.11751e-320
7.12739e-320
7.16988e-320
7.22324e-320
7.27166e-320
7.28944e-320
7.27462e-320
7.24597e-320
7.22324e-320
7.21237e-320
7.20743e-320
7.20545e-320
7.20842e-320
7.23114e-320
7.31217e-320
7.48114e-320
7.63529e-320
7.58885e-320
7.40703e-320
7.27363e-320
7.22324e-320
8.82994e-320
9.26571e-320
9.72519e-320
1.02064e-319
1.07113e-319
1.1241e-319
1.17963e-319
1.23793e-319
1.2991e-319
1.36323e-319
1.43052e-319
1.50117e-319
1.57528e-319
1.65295e-319
1.73457e-319
1.82034e-319
1.91035e-319
2.00492e-319
2.10413e-319
2.20837e-319
2.31786e-319
2.43298e-319
2.55383e-319
2.6808e-319
2.8143e-319
2.95451e-319
3.10184e-319
3.25668e-319
3.41933e-319
3.59087e-319
3.56498e-319
3.39976e-319
3.24226e-319
3.09206e-319
2.94858e-319
2.81173e-319
2.6811e-319
2.55639e-319
2.43732e-319
2.32349e-319
2.2149e-319
2.11164e-319
2.0148e-319
1.92607e-319
1.84869e-319
1.78358e-319
1.72982e-319
1.67577e-319
1.60038e-319
1.50018e-319
1.39425e-319
1.30285e-319
1.22993e-319
1.16876e-319
1.11362e-319
1.06244e-319
1.01501e-319
9.71135e-320
9.29041e-320
8.86551e-320
7.22423e-320
7.19162e-320
7.18866e-320
7.23905e-320
7.32008e-320
7.3517e-320
7.2845e-320
7.18569e-320
7.11949e-320
7.08885e-320
7.07502e-320
7.06711e-320
7.06217e-320
7.08293e-320
7.20545e-320
7.48213e-320
7.66493e-320
7.46237e-320
7.20941e-320
7.11751e-320
7.1264e-320
7.16988e-320
7.22522e-320
7.27265e-320
7.29043e-320
7.27462e-320
7.24695e-320
7.22423e-320
7.21237e-320
7.20743e-320
7.20545e-320
7.20842e-320
7.23213e-320
7.31612e-320
7.48213e-320
7.63035e-320
7.58588e-320
7.40901e-320
7.2766e-320
7.22522e-320
8.83093e-320
9.2667e-320
9.72519e-320
1.02074e-319
1.07123e-319
1.1243e-319
1.17983e-319
1.23813e-319
1.29929e-319
1.36342e-319
1.43081e-319
1.50137e-319
1.57548e-319
1.65334e-319
1.73496e-319
1.82073e-319
1.91075e-319
2.00531e-319
2.10462e-319
2.20887e-319
2.31855e-319
2.43357e-319
2.55452e-319
2.68169e-319
2.81519e-319
2.9555e-319
3.10293e-319
3.25787e-319
3.42071e-319
3.59235e-319
3.56557e-319
3.40046e-319
3.24285e-319
3.09265e-319
2.94918e-319
2.81242e-319
2.68179e-319
2.55718e-319
2.43812e-319
2.32448e-319
2.21598e-319
2.11312e-319
2.01658e-319
1.92824e-319
1.85097e-319
1.78536e-319
1.72982e-319
1.67291e-319
1.59682e-319
1.4989e-319
1.39534e-319
1.30433e-319
1.23062e-319
1.16876e-319
1.11343e-319
1.06224e-319
1.01481e-319
9.70938e-320
9.29041e-320
8.86551e-320
7.22423e-320
7.19162e-320
7.18767e-320
7.23905e-320
7.32205e-320
7.35367e-320
7.28648e-320
7.18569e-320
7.1185e-320
7.08787e-320
7.07304e-320
7.06415e-320
7.05921e-320
7.08293e-320
7.20941e-320
7.48213e-320
7.65505e-320
7.46237e-320
7.21237e-320
7.11652e-320
7.12541e-320
7.16988e-320
7.22522e-320
7.27462e-320
7.29241e-320
7.2766e-320
7.24695e-320
7.22423e-320
7.21237e-320
7.20743e-320
7.20545e-320
7.20842e-320
7.23312e-320
7.3181e-320
7.48213e-320
7.62442e-320
7.58292e-320
7.41296e-320
7.27956e-320
7.22719e-320
8.83192e-320
9.2667e-320
9.72716e-320
1.02094e-319
1.07133e-319
1.12439e-319
1.18003e-319
1.23833e-319
1.29949e-319
1.36362e-319
1.43101e-319
1.50166e-319
1.57587e-319
1.65364e-319
1.73536e-319
1.82113e-319
1.91124e-319
2.00581e-319
2.10511e-319
2.20956e-319
2.31914e-319
2.43436e-319
2.55541e-319
2.68258e-319
2.81617e-319
2.95669e-319
3.10412e-319
3.25905e-319
3.4221e-319
3.59364e-319
3.56626e-319
3.40115e-319
3.24364e-319
3.09325e-319
2.94997e-319
2.81311e-319
2.68258e-319
2.55798e-319
2.439e-319
2.32547e-319
2.21717e-319
2.1145e-319
2.01826e-319
1.93022e-319
1.85294e-319
1.78684e-319
1.72963e-319
1.67014e-319
1.59356e-319
1.49771e-319
1.39623e-319
1.30552e-319
1.23121e-319
1.16886e-319
1.11323e-319
1.06204e-319
1.01471e-319
9.70938e-320
9.29041e-320
8.86551e-320
7.22324e-320
7.18964e-320
7.18668e-320
7.23905e-320
7.32304e-320
7.35565e-320
7.28846e-320
7.18767e-320
7.1185e-320
7.08589e-320
7.07107e-320
7.06119e-320
7.05723e-320
7.08194e-320
7.21237e-320
7.48213e-320
7.64616e-320
7.46138e-320
7.21533e-320
7.11652e-320
7.12443e-320
7.16988e-320
7.22719e-320
7.2766e-320
7.29439e-320
7.27759e-320
7.24794e-320
7.22522e-320
7.21336e-320
7.20743e-320
7.20545e-320
7.20941e-320
7.2351e-320
7.32106e-320
7.48213e-320
7.61948e-320
7.58094e-320
7.41494e-320
7.28253e-320
7.22818e-320
8.83291e-320
9.26867e-320
9.72815e-320
1.02104e-319
1.07153e-319
1.12449e-319
1.18013e-319
1.23842e-319
1.29959e-319
1.36362e-319
1.43091e-319
1.50156e-319
1.57567e-319
1.65334e-319
1.73506e-319
1.82073e-319
1.91085e-319
2.00531e-319
2.10462e-319
2.20887e-319
2.31855e-319
2.43357e-319
2.55452e-319
2.68159e-319
2.81519e-319
2.9555e-319
3.10273e-319
3.25767e-319
3.42042e-319
3.59186e-319
3.56696e-319
3.40174e-319
3.24423e-319
3.09394e-319
2.95056e-319
2.8138e-319
2.68337e-319
2.55877e-319
2.43989e-319
2.32636e-319
2.21826e-319
2.11579e-319
2.01994e-319
1.93219e-319
1.85472e-319
1.78812e-319
1.72913e-319
1.66757e-319
1.59059e-319
1.49652e-319
1.39682e-319
1.3067e-319
1.2319e-319
1.16896e-319
1.11303e-319
1.06185e-319
1.01461e-319
9.70839e-320
9.29041e-320
8.86551e-320
7.22324e-320
7.18866e-320
7.18569e-320
7.23905e-320
7.32403e-320
7.35763e-320
7.29043e-320
7.18767e-320
7.11652e-320
7.08293e-320
7.06909e-320
7.05921e-320
7.05427e-320
7.08095e-320
7.21533e-320
7.48213e-320
7.63825e-320
7.46039e-320
7.21731e-320
7.11652e-320
7.12245e-320
7.16889e-320
7.22719e-320
7.27759e-320
7.29537e-320
7.27858e-320
7.24893e-320
7.22522e-320
7.21336e-320
7.20743e-320
7.20545e-320
7.20941e-320
7.23707e-320
7.32403e-320
7.48312e-320
7.61454e-320
7.57798e-320
7.4179e-320
7.28648e-320
7.22917e-320
8.83389e-320
9.26867e-320
9.72914e-320
1.02104e-319
1.07153e-319
1.12449e-319
1.18003e-319
1.23823e-319
1.29939e-319
1.36342e-319
1.43062e-319
1.50117e-319
1.57528e-319
1.65295e-319
1.73457e-319
1.82034e-319
1.91026e-319
2.00472e-319
2.10393e-319
2.20828e-319
2.31776e-319
2.43278e-319
2.55353e-319
2.6806e-319
2.814e-319
2.95412e-319
3.10145e-319
3.25609e-319
3.41874e-319
3.58929e-319
3.56755e-319
3.40233e-319
3.24483e-319
3.09463e-319
2.95125e-319
2.81449e-319
2.68396e-319
2.55946e-319
2.44068e-319
2.32725e-319
2.21934e-319
2.11707e-319
2.02142e-319
1.93387e-319
1.8563e-319
1.78911e-319
1.72844e-319
1.665e-319
1.58793e-319
1.49544e-319
1.39742e-319
1.30779e-319
1.23259e-319
1.16916e-319
1.11293e-319
1.06165e-319
1.01442e-319
9.7074e-320
9.29041e-320
8.86551e-320
7.22324e-320
7.18767e-320
7.1847e-320
7.23905e-320
7.32601e-320
7.3596e-320
7.2934e-320
7.18964e-320
7.11553e-320
7.08095e-320
7.06514e-320
7.05526e-320
7.0513e-320
7.08095e-320
7.21929e-320
7.48114e-320
7.63035e-320
7.45841e-320
7.2183e-320
7.11652e-320
7.12146e-320
7.16889e-320
7.22917e-320
7.27956e-320
7.29735e-320
7.28055e-320
7.24893e-320
7.22522e-320
7.21336e-320
7.20743e-320
7.20545e-320
7.20941e-320
7.23707e-320
7.32601e-320
7.48411e-320
7.61059e-320
7.576e-320
7.42087e-320
7.28846e-320
7.23114e-320
8.83291e-320
9.26867e-320
9.72716e-320
1.02094e-319
1.07133e-319
1.1243e-319
1.17983e-319
1.23803e-319
1.2992e-319
1.36323e-319
1.43042e-319
1.50097e-319
1.57488e-319
1.65255e-319
1.73417e-319
1.81974e-319
1.90966e-319
2.00413e-319
2.10334e-319
2.20749e-319
2.31687e-319
2.43179e-319
2.55254e-319
2.67942e-319
2.81281e-319
2.95283e-319
3.09997e-319
3.25451e-319
3.41686e-319
3.58692e-319
3.56814e-319
3.40293e-319
3.24542e-319
3.09522e-319
2.95184e-319
2.81519e-319
2.68465e-319
2.56025e-319
2.44147e-319
2.32814e-319
2.22033e-319
2.11826e-319
2.0229e-319
1.93545e-319
1.85769e-319
1.7897e-319
1.72755e-319
1.66263e-319
1.58546e-319
1.49425e-319
1.39781e-319
1.30868e-319
1.23319e-319
1.16926e-319
1.11283e-319
1.06145e-319
1.01422e-319
9.7074e-320
9.29041e-320
8.86551e-320
7.22225e-320
7.18668e-320
7.18371e-320
7.23905e-320
7.32601e-320
7.36059e-320
7.29537e-320
7.18964e-320
7.11455e-320
7.07897e-320
7.06316e-320
7.05328e-320
7.04933e-320
7.07996e-320
7.22126e-320
7.48114e-320
7.62442e-320
7.45841e-320
7.22028e-320
7.11553e-320
7.12047e-320
7.1679e-320
7.23016e-320
7.28055e-320
7.29834e-320
7.28154e-320
7.25091e-320
7.22522e-320
7.21336e-320
7.20743e-320
7.20545e-320
7.20941e-320
7.23905e-320
7.32897e-320
7.48411e-320
7.60762e-320
7.57501e-320
7.42284e-320
7.29241e-320
7.23114e-320
8.83192e-320
9.2667e-320
9.72716e-320
1.02084e-319
1.07133e-319
1.1242e-319
1.17963e-319
1.23793e-319
1.2989e-319
1.36293e-319
1.43012e-319
1.50058e-319
1.57449e-319
1.65216e-319
1.73368e-319
1.81925e-319
1.90907e-319
2.00344e-319
2.10255e-319
2.20669e-319
2.31598e-319
2.4308e-319
2.55145e-319
2.67823e-319
2.81143e-319
2.95135e-319
3.09829e-319
3.25273e-319
3.41478e-319
3.58455e-319
3.56864e-319
3.40352e-319
3.24591e-319
3.09562e-319
2.95234e-319
2.81568e-319
2.68525e-319
2.56084e-319
2.44207e-319
2.32893e-319
2.22122e-319
2.11934e-319
2.02409e-319
1.93693e-319
1.85887e-319
1.7901e-319
1.72646e-319
1.66036e-319
1.58318e-319
1.49317e-319
1.39811e-319
1.30957e-319
1.23378e-319
1.16935e-319
1.11264e-319
1.06125e-319
1.01422e-319
9.7074e-320
9.29041e-320
8.8665e-320
7.22225e-320
7.18569e-320
7.18174e-320
7.23905e-320
7.32798e-320
7.36257e-320
7.29636e-320
7.19063e-320
7.11356e-320
7.077e-320
7.0602e-320
7.04933e-320
7.04538e-320
7.07996e-320
7.22522e-320
7.48114e-320
7.6175e-320
7.45644e-320
7.22126e-320
7.11455e-320
7.1185e-320
7.1679e-320
7.23114e-320
7.28253e-320
7.30031e-320
7.28253e-320
7.25091e-320
7.2262e-320
7.21336e-320
7.20743e-320
7.20545e-320
7.20941e-320
7.24103e-320
7.33193e-320
7.48411e-320
7.60466e-320
7.57304e-320
7.42581e-320
7.29439e-320
7.23114e-320
8.83192e-320
9.26571e-320
9.72519e-320
1.02074e-319
1.07113e-319
1.124e-319
1.17943e-319
1.23763e-319
1.2986e-319
1.36263e-319
1.42983e-319
1.50018e-319
1.57409e-319
1.65176e-319
1.73318e-319
1.81875e-319
1.90848e-319
2.00274e-319
2.10176e-319
2.20571e-319
2.31499e-319
2.42981e-319
2.55037e-319
2.67695e-319
2.81005e-319
2.94977e-319
3.09661e-319
3.25075e-319
3.41261e-319
3.58217e-319
3.56903e-319
3.40391e-319
3.24641e-319
3.09611e-319
2.95283e-319
2.81617e-319
2.68574e-319
2.56143e-319
2.44276e-319
2.32962e-319
2.22211e-319
2.12043e-319
2.02537e-319
1.93822e-319
1.85996e-319
1.7903e-319
1.72547e-319
1.65828e-319
1.58101e-319
1.49208e-319
1.3983e-319
1.31026e-319
1.23427e-319
1.16955e-319
1.11264e-319
1.06106e-319
1.01402e-319
9.70641e-320
9.29041e-320
8.8665e-320
7.22126e-320
7.18371e-320
7.18174e-320
7.23905e-320
7.32897e-320
7.36355e-320
7.29834e-320
7.19162e-320
7.11257e-320
7.07403e-320
7.05723e-320
7.04735e-320
7.0434e-320
7.07897e-320
7.22719e-320
7.48114e-320
7.61256e-320
7.45446e-320
7.22225e-320
7.11455e-320
7.11652e-320
7.1679e-320
7.23312e-320
7.2845e-320
7.30229e-320
7.2845e-320
7.2519e-320
7.2262e-320
7.21336e-320
7.20743e-320
7.20545e-320
7.21039e-320
7.243e-320
7.33391e-320
7.48411e-320
7.60169e-320
7.57205e-320
7.42877e-320
7.29636e-320
7.23213e-320
8.82994e-320
9.26472e-320
9.7242e-320