/*--------------------------------*- C++ -*----------------------------------*\
  =========                 |
  \\      /  F ield         | OpenFOAM: The Open Source CFD Toolbox
   \\    /   O peration     | Website:  https://openfoam.org
    \\  /    A nd           | Version:  9
     \\/     M anipulation  |
\*---------------------------------------------------------------------------*/
FoamFile
{
    format      ascii;
    class       volScalarField;
    location    "0.19";
    object      p;
}
// * * * * * * * * * * * * * * * * * * * * * * * * * * * * * * * * * * * * * //

dimensions      [1 -1 -2 0 0 0 0];

internalField   nonuniform List<scalar> 
20000
(
3.95073
3.94968
3.94844
3.94697
3.94513
3.94269
3.93936
3.93462
3.9277
3.91725
3.901
3.87489
3.83136
3.75573
3.6179
3.35419
2.80563
1.84924
1.90349
2.73366
3.4028
3.67725
3.80603
3.86763
3.89892
3.91623
3.92708
3.93468
3.93961
3.94141
3.93995
3.93667
3.93672
3.94255
3.94785
3.94689
3.94022
3.92378
3.90731
3.89548
3.88764
3.8826
3.87959
3.88195
3.87797
3.89978
3.62923
3.89845
3.88893
3.90013
3.91036
3.92294
3.93502
3.9433
3.94662
3.94621
3.94347
3.94031
3.93789
3.93624
3.93508
3.93437
3.93436
3.93364
3.92177
3.81151
3.86842
3.93022
3.93437
3.93487
3.93554
3.9365
3.9375
3.93842
3.93926
3.94002
3.94071
3.94135
3.94194
3.94249
3.94302
3.94353
3.94403
3.94452
3.94502
3.94552
3.94602
3.94653
3.94703
3.94754
3.94803
3.94852
3.94899
3.94943
3.94985
3.95022
3.95055
3.95084
3.95108
3.95123
3.94825
3.94596
3.94323
3.94013
3.93644
3.93185
3.9259
3.91797
3.90711
3.8919
3.87019
3.83872
3.79254
3.72431
3.62425
3.48763
3.32797
3.05916
3.13178
3.41131
3.55739
3.69286
3.79494
3.85779
3.89534
3.91757
3.93075
3.93856
3.9429
3.94492
3.94544
3.94491
3.94513
3.9468
3.94701
3.94418
3.93977
3.93027
3.91974
3.91067
3.90371
3.89866
3.89368
3.89635
3.86896
3.89854
3.74241
3.89757
3.88074
3.90988
3.91989
3.93016
3.9389
3.94492
3.94814
3.94924
3.94862
3.94711
3.94544
3.94383
3.94222
3.94029
3.93723
3.92809
3.92242
3.86839
3.89732
3.92315
3.93175
3.93765
3.9398
3.94104
3.94194
3.94264
3.94322
3.9437
3.94411
3.94446
3.94477
3.94505
3.94532
3.94557
3.94582
3.94607
3.94632
3.94657
3.94683
3.94708
3.94734
3.94759
3.94784
3.94807
3.94829
3.9485
3.94868
3.94885
3.949
3.94912
3.94923
3.9493
3.94631
3.94392
3.94107
3.93797
3.93443
3.93027
3.92521
3.91888
3.91081
3.90037
3.88687
3.86961
3.84828
3.82354
3.79678
3.77347
3.79505
3.70432
3.76152
3.86338
3.80511
3.83022
3.86038
3.88733
3.90916
3.9247
3.93509
3.94176
3.94572
3.94772
3.94843
3.94807
3.94786
3.94861
3.94825
3.94545
3.94194
3.93413
3.9258
3.91843
3.91244
3.90803
3.90161
3.90713
3.87543
3.91876
3.79585
3.91829
3.88712
3.91821
3.92515
3.93478
3.94246
3.94777
3.95082
3.9522
3.95208
3.95113
3.94983
3.94834
3.94655
3.94412
3.94098
3.93127
3.93237
3.89188
3.91406
3.92943
3.93453
3.94015
3.94234
3.94367
3.9445
3.94506
3.94545
3.94572
3.94592
3.94606
3.94616
3.94623
3.9463
3.94635
3.94641
3.94646
3.94652
3.94659
3.94665
3.94673
3.9468
3.94687
3.94695
3.94702
3.94708
3.94714
3.94719
3.94723
3.94726
3.94729
3.9473
3.94732
3.9448
3.94327
3.94137
3.93943
3.93738
3.93519
3.93279
3.93015
3.92724
3.9241
3.9209
3.91816
3.91697
3.9195
3.92822
3.94213
4.00421
4.0055
4.02333
4.03754
3.9481
3.9408
3.93008
3.92905
3.93326
3.93845
3.94326
3.94715
3.94978
3.9511
3.95131
3.95056
3.94998
3.95046
3.95037
3.94795
3.9449
3.93785
3.93077
3.92459
3.91949
3.91618
3.90931
3.91789
3.88845
3.93506
3.83912
3.93451
3.89928
3.92777
3.93078
3.93978
3.94665
3.95149
3.95435
3.95568
3.95568
3.95496
3.9539
3.95255
3.9508
3.9484
3.94626
3.93757
3.94142
3.90936
3.92674
3.93705
3.93967
3.94381
3.94531
3.94637
3.947
3.94735
3.94753
3.94759
3.94756
3.94749
3.94738
3.94726
3.94712
3.94698
3.94684
3.94671
3.94658
3.94646
3.94636
3.94626
3.94617
3.94608
3.946
3.94593
3.94585
3.94578
3.94571
3.94565
3.94558
3.94551
3.94544
3.94538
3.94343
3.94312
3.94257
3.94213
3.94183
3.9417
3.94181
3.94224
3.94312
3.94465
3.94714
3.95113
3.95755
3.96809
3.98555
4.00699
4.06245
4.08834
4.0936
4.07581
4.00702
3.99312
3.97067
3.96054
3.95591
3.95403
3.95398
3.95468
3.95534
3.95553
3.95512
3.95412
3.95328
3.95321
3.9528
3.95057
3.94809
3.94234
3.93673
3.9317
3.92742
3.92534
3.91852
3.92911
3.90283
3.94568
3.87827
3.94491
3.91258
3.93797
3.93807
3.94609
3.95173
3.9559
3.9585
3.95986
3.96009
3.95965
3.95881
3.95764
3.95606
3.9538
3.95241
3.94449
3.94904
3.92686
3.93869
3.94394
3.94542
3.94848
3.94925
3.94989
3.95016
3.95021
3.95011
3.9499
3.94963
3.94931
3.94896
3.9486
3.94824
3.94788
3.94753
3.94719
3.94686
3.94655
3.94625
3.94597
3.9457
3.94545
3.9452
3.94497
3.94475
3.94454
3.94434
3.94415
3.94396
3.94378
3.94362
3.94346
3.94199
3.94277
3.9434
3.94423
3.94529
3.94667
3.94844
3.95071
3.95361
3.95732
3.96207
3.9683
3.97683
3.98913
4.00818
4.03098
4.07264
4.09622
4.09916
4.08027
4.03369
4.01498
3.99048
3.97918
3.9716
3.96661
3.96382
3.96223
3.96118
3.96027
3.95928
3.95809
3.95703
3.95641
3.95554
3.95346
3.95157
3.94723
3.94307
3.93917
3.93567
3.93475
3.92821
3.93974
3.91732
3.95445
3.9082
3.95363
3.92603
3.94767
3.94604
3.95309
3.95741
3.96087
3.9632
3.96458
3.96505
3.96489
3.96427
3.96328
3.96191
3.95978
3.95885
3.95193
3.95646
3.94183
3.94943
3.95101
3.95155
3.95355
3.95369
3.95387
3.95372
3.95342
3.95299
3.95249
3.95193
3.95134
3.95073
3.95013
3.94952
3.94893
3.94835
3.94779
3.94725
3.94673
3.94623
3.94576
3.9453
3.94487
3.94446
3.94407
3.94369
3.94334
3.943
3.94267
3.94237
3.94208
3.9418
3.94154
3.94045
3.94212
3.9437
3.9455
3.94754
3.94992
3.95273
3.95609
3.96017
3.96512
3.97121
3.97884
3.98867
4.00175
4.02026
4.04158
4.07168
4.08883
4.09124
4.07765
4.04718
4.02671
4.00292
3.99151
3.98229
3.97589
3.97167
3.9687
3.96649
3.96477
3.96325
3.96182
3.96058
3.95967
3.95865
3.95679
3.95537
3.9521
3.94905
3.94616
3.94339
3.94349
3.93772
3.94902
3.93126
3.96269
3.92978
3.96191
3.93898
3.95656
3.95395
3.96013
3.96339
3.96629
3.96833
3.96966
3.97025
3.97028
3.96984
3.96902
3.96788
3.96594
3.96538
3.95972
3.96379
3.95359
3.95858
3.95827
3.95793
3.95875
3.95826
3.95796
3.95739
3.95671
3.95595
3.95513
3.95427
3.9534
3.95252
3.95165
3.9508
3.94996
3.94915
3.94837
3.94761
3.94689
3.94619
3.94552
3.94489
3.94428
3.9437
3.94315
3.94262
3.94212
3.94165
3.9412
3.94077
3.94036
3.93998
3.9396
3.93881
3.9412
3.94353
3.94609
3.94888
3.95197
3.95549
3.9596
3.96446
3.97027
3.97721
3.98559
3.9958
4.00831
4.02451
4.04239
4.06392
4.0763
4.07843
4.06935
4.04997
4.03207
4.01131
3.99984
3.99003
3.98292
3.97782
3.97398
3.97107
3.96881
3.96688
3.96524
3.9639
3.96291
3.96199
3.96043
3.95935
3.95683
3.95461
3.95257
3.95049
3.95143
3.94672
3.95728
3.94403
3.97018
3.94618
3.96958
3.95085
3.96479
3.96168
3.96708
3.96952
3.97202
3.9738
3.97502
3.97563
3.97576
3.97546
3.97479
3.97388
3.97218
3.97192
3.96742
3.97078
3.96327
3.96657
3.96535
3.9643
3.96401
3.96289
3.9621
3.96109
3.96003
3.95892
3.95778
3.95662
3.95546
3.95431
3.95318
3.95207
3.95099
3.94995
3.94894
3.94796
3.94703
3.94614
3.94528
3.94446
3.94368
3.94293
3.94222
3.94155
3.94091
3.9403
3.93972
3.93917
3.93865
3.93816
3.93769
3.93708
3.94
3.94289
3.94598
3.94925
3.95277
3.95666
3.96105
3.96614
3.97212
3.97915
3.98737
3.99691
4.008
4.02126
4.03541
4.05088
4.0602
4.06246
4.0568
4.04473
4.0305
4.01519
4.0047
3.9952
3.98803
3.98253
3.97822
3.97492
3.97235
3.97019
3.96846
3.96714
3.96618
3.96542
3.96416
3.96337
3.96148
3.95993
3.95864
3.95719
3.95879
3.95525
3.96477
3.95548
3.97689
3.95938
3.97663
3.96151
3.97253
3.96928
3.97398
3.97579
3.97797
3.97952
3.98061
3.98122
3.98142
3.98123
3.98069
3.97998
3.97851
3.97844
3.97486
3.97747
3.97184
3.97392
3.97214
3.97051
3.96931
3.96762
3.96633
3.96488
3.96344
3.96198
3.9605
3.95903
3.95757
3.95614
3.95474
3.95337
3.95205
3.95077
3.94953
3.94834
3.9472
3.9461
3.94505
3.94405
3.94309
3.94218
3.94131
3.94049
3.9397
3.93896
3.93825
3.93758
3.93695
3.93635
3.93578
3.93526
3.9385
3.94173
3.94511
3.94863
3.95233
3.95629
3.96064
3.96555
3.97117
3.97767
3.98515
3.99364
4.00316
4.01395
4.02515
4.03656
4.04398
4.04656
4.04338
4.03602
4.0255
4.01449
4.00594
3.99771
3.99116
3.98579
3.98145
3.97806
3.9754
3.97321
3.97151
3.97031
3.96945
3.96885
3.96786
3.96737
3.96605
3.96511
3.96448
3.96362
3.96574
3.96333
3.9717
3.96578
3.98305
3.97032
3.9832
3.97111
3.97987
3.97673
3.98084
3.98215
3.98408
3.98542
3.98642
3.98702
3.98727
3.98718
3.98675
3.98621
3.98494
3.98495
3.98206
3.98401
3.97968
3.98086
3.97871
3.97658
3.97462
3.97243
3.97065
3.96878
3.96695
3.96513
3.96332
3.96153
3.95977
3.95805
3.95637
3.95474
3.95316
3.95164
3.95017
3.94875
3.9474
3.9461
3.94485
3.94366
3.94253
3.94145
3.94042
3.93944
3.93851
3.93763
3.9368
3.936
3.93525
3.93454
3.93386
3.93333
3.93666
3.93999
3.94346
3.94706
3.95081
3.95478
3.95905
3.96373
3.96893
3.97481
3.98147
3.98891
3.99707
4.00596
4.01505
4.02385
4.02999
4.03274
4.03117
4.02676
4.01926
4.01139
4.00475
3.99809
3.99252
3.98772
3.98372
3.98052
3.97798
3.97592
3.97438
3.97337
3.97268
3.97224
3.97152
3.97131
3.9705
3.97011
3.97007
3.96976
3.97227
3.9708
3.97848
3.97492
3.98887
3.97959
3.98937
3.97981
3.98683
3.98398
3.9876
3.98857
3.9903
3.99147
3.9924
3.993
3.9933
3.99328
3.99295
3.99254
3.99143
3.99146
3.98909
3.99044
3.987
3.9875
3.9851
3.98252
3.97992
3.97727
3.97503
3.97276
3.97055
3.96837
3.96621
3.9641
3.96204
3.96002
3.95807
3.95617
3.95433
3.95256
3.95085
3.94921
3.94763
3.94612
3.94468
3.9433
3.94199
3.94073
3.93954
3.93841
3.93733
3.93631
3.93534
3.93442
3.93355
3.93273
3.93195
3.93129
3.93446
3.93765
3.94102
3.94458
3.94833
3.95229
3.95651
3.96107
3.96602
3.97147
3.97747
3.98402
3.99106
3.99852
4.00608
4.01315
4.01838
4.02106
4.02047
4.01791
4.01278
4.00727
4.00228
3.99712
3.99264
3.98863
3.98521
3.98239
3.98014
3.97832
3.97703
3.97627
3.9758
3.97557
3.97511
3.97516
3.9748
3.97488
3.97538
3.97556
3.9784
3.97779
3.98497
3.98306
3.9945
3.9876
3.99519
3.98773
3.99346
3.991
3.99426
3.99501
3.9966
3.99765
3.99853
3.99912
3.99945
3.9995
3.99925
3.99893
3.99797
3.99797
3.99598
3.99681
3.99393
3.99391
3.99134
3.98837
3.98522
3.98213
3.97947
3.9768
3.97422
3.97168
3.96919
3.96675
3.96437
3.96206
3.95982
3.95764
3.95554
3.95352
3.95157
3.94969
3.9479
3.94618
3.94453
3.94296
3.94146
3.94003
3.93868
3.93738
3.93616
3.93499
3.93389
3.93285
3.93186
3.93092
3.93003
3.92916
3.93201
3.93489
3.93799
3.94134
3.94496
3.94886
3.95306
3.95754
3.96233
3.96748
3.973
3.9789
3.98511
3.99154
3.99797
4.00391
4.00846
4.01101
4.01106
4.00971
4.00644
4.00275
3.99921
3.99543
3.99202
3.98887
3.98613
3.98382
3.98195
3.98046
3.97948
3.97901
3.97878
3.97878
3.97858
3.97888
3.97892
3.97942
3.98039
3.98105
3.9841
3.98435
3.99108
3.99043
3.99999
3.99473
4.00074
3.99503
3.9998
3.99781
4.0008
4.00145
4.00296
4.00392
4.00476
4.00536
4.00572
4.00583
4.00564
4.0054
4.00454
4.00448
4.00276
4.00314
4.00061
4.00017
3.99746
3.99416
3.99053
3.98702
3.98396
3.98091
3.97796
3.97506
3.97223
3.96947
3.96678
3.96416
3.96163
3.95918
3.95681
3.95453
3.95233
3.95022
3.9482
3.94627
3.94441
3.94264
3.94096
3.93935
3.93782
3.93637
3.93499
3.93369
3.93245
3.93127
3.93016
3.92911
3.92812
3.92701
3.92951
3.93208
3.93492
3.93802
3.9414
3.94511
3.94915
3.95349
3.9581
3.96299
3.96816
3.97357
3.97916
3.98492
3.99056
3.99575
3.99983
4.0023
4.00284
4.00237
4.0005
3.99825
3.99595
3.9934
3.99101
3.98872
3.98668
3.98492
3.98348
3.98236
3.98171
3.98157
3.98162
3.98185
3.98189
3.98244
3.98285
3.98374
3.98514
3.98625
3.98944
3.99052
3.99681
3.99717
4.00529
4.00127
4.00608
4.00181
4.00593
4.00444
4.00726
4.00789
4.00935
4.01027
4.01111
4.01172
4.01211
4.01227
4.01213
4.01194
4.01116
4.01102
4.00948
4.00948
4.00714
4.00636
4.00351
3.99992
3.99586
3.99195
3.9885
3.98508
3.98177
3.97852
3.97535
3.97226
3.96925
3.96634
3.96351
3.96078
3.95814
3.95559
3.95315
3.9508
3.94855
3.94639
3.94433
3.94236
3.94048
3.93869
3.93699
3.93537
3.93383
3.93238
3.931
3.9297
3.92847
3.9273
3.9262
3.92496
3.92727
3.92966
3.9323
3.9352
3.93838
3.94184
3.94563
3.94971
3.95408
3.95868
3.9635
3.96852
3.97366
3.97885
3.98396
3.98865
3.99243
3.99488
3.99586
3.99606
3.99525
3.99409
3.99281
3.99131
3.98983
3.98836
3.987
3.98578
3.98476
3.98403
3.98375
3.98393
3.98428
3.98475
3.98504
3.98583
3.98659
3.98785
3.98964
3.9912
3.9946
3.99619
4.00223
4.00338
4.01041
4.00738
4.01129
4.00822
4.01189
4.01093
4.01363
4.01432
4.01578
4.01669
4.01754
4.01818
4.01861
4.01881
4.01872
4.01856
4.01783
4.01761
4.01618
4.01586
4.0136
4.01254
4.00955
4.00568
4.00122
3.99694
3.99312
3.98933
3.98566
3.98206
3.97855
3.97514
3.97181
3.96859
3.96546
3.96244
3.95953
3.95672
3.95402
3.95143
3.94894
3.94656
3.94428
3.94211
3.94003
3.93805
3.93617
3.93438
3.93268
3.93107
3.92954
3.9281
3.92675
3.92547
3.92427
3.92297
3.92528
3.92767
3.93025
3.93305
3.9361
3.9394
3.94295
3.94677
3.95083
3.9551
3.95956
3.96419
3.96892
3.97369
3.97838
3.98269
3.98625
3.98874
3.99008
3.99081
3.99078
3.99044
3.98998
3.98933
3.98864
3.98789
3.98714
3.98643
3.98584
3.98549
3.98557
3.98609
3.98674
3.98747
3.98801
3.98903
3.99013
3.99175
3.9939
3.99587
3.99951
4.00152
4.00737
4.00914
4.01539
4.01315
4.0164
4.01434
4.01772
4.01728
4.01995
4.02075
4.02225
4.02317
4.02406
4.02474
4.02521
4.02547
4.02541
4.02527
4.02458
4.02426
4.0229
4.02229
4.02014
4.01866
4.0156
4.01148
4.00665
4.002
3.99781
3.99367
3.98965
3.9857
3.98185
3.9781
3.97446
3.97092
3.9675
3.96419
3.96099
3.95792
3.95496
3.95211
3.94939
3.94678
3.94428
3.94189
3.93961
3.93744
3.93537
3.9334
3.93153
3.92975
3.92807
3.92648
3.92498
3.92359
3.92233
3.92103
3.92342
3.92592
3.92858
3.93139
3.93439
3.93758
3.94097
3.94457
3.94836
3.95233
3.95646
3.96072
3.96509
3.96948
3.9738
3.97781
3.9812
3.98371
3.98536
3.98649
3.98704
3.98731
3.98749
3.98753
3.98749
3.98735
3.98715
3.9869
3.98669
3.98672
3.98717
3.98804
3.989
3.98999
3.99078
3.99204
3.99347
3.99544
3.99794
4.00029
4.00416
4.00658
4.01229
4.01448
4.02026
4.01868
4.02145
4.02022
4.02345
4.02353
4.02622
4.02718
4.02874
4.02972
4.03066
4.03139
4.03192
4.03223
4.03221
4.03208
4.03142
4.031
4.02965
4.02878
4.02666
4.0249
4.02174
4.01735
4.01217
4.00715
4.00261
3.99811
3.99374
3.98944
3.98525
3.98117
3.9772
3.97335
3.96962
3.96601
3.96253
3.95918
3.95596
3.95286
3.94989
3.94705
3.94432
3.94172
3.93924
3.93686
3.9346
3.93244
3.93038
3.92842
3.92654
3.92474
3.92299
3.92127
3.91979
3.91913
3.92162
3.92421
3.92696
3.92984
3.93285
3.936
3.93929
3.94274
3.94634
3.95009
3.95396
3.95793
3.96197
3.96604
3.97004
3.97378
3.97701
3.97957
3.98144
3.98286
3.98384
3.9846
3.98529
3.98587
3.98637
3.98675
3.98702
3.98718
3.98734
3.98773
3.98854
3.98977
3.99105
3.99232
3.99336
3.99486
3.99661
3.99893
4.00178
4.00449
4.00857
4.01139
4.01703
4.01997
4.02457
4.02394
4.02641
4.02593
4.0291
4.0297
4.03246
4.03363
4.03528
4.03634
4.03736
4.03815
4.03874
4.0391
4.03913
4.039
4.03836
4.03783
4.03648
4.03536
4.03322
4.03126
4.02797
4.02332
4.01779
4.01241
4.00751
4.00267
3.99794
3.99329
3.98876
3.98434
3.98004
3.97587
3.97183
3.96793
3.96416
3.96053
3.95704
3.95368
3.95046
3.94738
3.94443
3.94161
3.93891
3.93634
3.93389
3.93154
3.92931
3.92717
3.92513
3.92318
3.9213
3.91939
3.91774
3.9172
3.91976
3.92242
3.92521
3.92814
3.93118
3.93433
3.93757
3.94093
3.9444
3.94799
3.95167
3.95543
3.95924
3.96305
3.9668
3.97033
3.97343
3.97601
3.97803
3.97968
3.981
3.98214
3.98325
3.98428
3.98522
3.98603
3.98671
3.98725
3.98776
3.98851
3.9897
3.99128
3.99289
3.99444
3.99574
3.9975
3.99957
4.00222
4.00541
4.0085
4.01277
4.01599
4.02155
4.02496
4.02898
4.02912
4.03129
4.03149
4.03469
4.03581
4.03869
4.04009
4.04186
4.04303
4.04414
4.04502
4.04568
4.0461
4.04617
4.04605
4.04542
4.04479
4.04341
4.04207
4.03988
4.03773
4.0343
4.0294
4.02353
4.01778
4.01254
4.00735
4.00226
3.99727
3.99239
3.98763
3.983
3.97851
3.97415
3.96994
3.96588
3.96196
3.95819
3.95457
3.9511
3.94778
3.9446
3.94156
3.93866
3.93589
3.93325
3.93075
3.92836
3.9261
3.92395
3.92193
3.92004
3.91819
3.91633
3.91523
3.91781
3.9205
3.92331
3.92622
3.92925
3.93238
3.9356
3.93891
3.94229
3.94577
3.94932
3.95293
3.95657
3.96021
3.96378
3.96716
3.97017
3.97276
3.9749
3.97673
3.97833
3.9798
3.98126
3.98267
3.98398
3.98517
3.98621
3.9871
3.98796
3.98908
3.99063
3.99258
3.99452
3.99635
3.99793
3.99995
4.00234
4.00533
4.00886
4.01232
4.01678
4.0204
4.02591
4.02969
4.03351
4.03407
4.03611
4.03693
4.04023
4.04187
4.04493
4.04659
4.0485
4.0498
4.05101
4.05199
4.05274
4.05322
4.05335
4.05324
4.05262
4.05189
4.05047
4.04893
4.04668
4.04435
4.04077
4.03562
4.02942
4.02331
4.01771
4.01217
4.00673
4.00139
3.99616
3.99106
3.98609
3.98126
3.97658
3.97206
3.96769
3.96349
3.95944
3.95555
3.95182
3.94825
3.94484
3.94157
3.93846
3.9355
3.93268
3.93
3.92745
3.92504
3.92276
3.9206
3.91857
3.91664
3.91472
3.91324
3.91578
3.91846
3.92124
3.92411
3.92708
3.93015
3.93333
3.93658
3.93991
3.94331
3.94677
3.95027
3.95381
3.95734
3.9608
3.96408
3.96703
3.96963
3.97187
3.97387
3.97571
3.97746
3.97923
3.98095
3.9826
3.98413
3.98551
3.98675
3.98794
3.98942
3.99136
3.99366
3.99594
3.99807
3.99994
4.00223
4.00495
4.00828
4.01214
4.01596
4.02065
4.02465
4.03018
4.0343
4.03798
4.03888
4.04089
4.04226
4.04573
4.04792
4.05118
4.05313
4.05521
4.05665
4.058
4.05908
4.05993
4.06049
4.06067
4.06058
4.05997
4.05916
4.05769
4.05597
4.05364
4.05114
4.04739
4.042
4.03547
4.029
4.02305
4.01716
4.01136
4.00566
4.00008
3.99462
3.98931
3.98414
3.97914
3.9743
3.96962
3.96511
3.96078
3.95661
3.95262
3.9488
3.94514
3.94165
3.93831
3.93514
3.93212
3.92925
3.92653
3.92394
3.92149
3.91916
3.91696
3.91489
3.9129
3.91125
3.91371
3.91632
3.91903
3.92184
3.92474
3.92773
3.93083
3.93401
3.93728
3.94061
3.944
3.94743
3.95089
3.95435
3.95774
3.96095
3.96388
3.96651
3.96884
3.97099
3.97304
3.97505
3.97708
3.9791
3.98105
3.98291
3.98463
3.9862
3.98773
3.98956
3.99187
3.99454
3.99717
3.9996
4.00177
4.00434
4.00739
4.01106
4.01525
4.01944
4.02438
4.02875
4.03437
4.0388
4.04239
4.04363
4.04565
4.0475
4.05121
4.05395
4.05747
4.05973
4.06199
4.06361
4.06509
4.0663
4.06726
4.06791
4.06816
4.0681
4.0675
4.06662
4.06509
4.06322
4.06079
4.05812
4.05419
4.04857
4.0417
4.03487
4.02857
4.02232
4.01616
4.0101
4.00415
3.99834
3.99267
3.98717
3.98182
3.97665
3.97166
3.96685
3.96222
3.95777
3.9535
3.94941
3.94551
3.94177
3.93821
3.93482
3.93159
3.92852
3.92561
3.92284
3.92021
3.91773
3.91537
3.91314
3.91103
3.90924
3.91162
3.91412
3.91674
3.91947
3.92229
3.9252
3.92821
3.9313
3.93448
3.93774
3.94106
3.94444
3.94784
3.95124
3.95458
3.95775
3.96067
3.96334
3.96577
3.96806
3.97031
3.97254
3.97482
3.97711
3.97936
3.98152
3.98356
3.98547
3.98732
3.98951
3.99219
3.99523
3.99821
4.00096
4.00343
4.00629
4.00968
4.01369
4.01823
4.02278
4.02799
4.03273
4.03847
4.04321
4.04679
4.04832
4.05039
4.05268
4.05669
4.05999
4.06381
4.0664
4.06887
4.07066
4.0723
4.07366
4.07474
4.0755
4.07583
4.0758
4.07522
4.07429
4.07271
4.07069
4.06816
4.06532
4.06121
4.05535
4.04815
4.04096
4.0343
4.02769
4.02116
4.01472
4.00841
4.00223
3.9962
3.99034
3.98465
3.97915
3.97383
3.9687
3.96376
3.95902
3.95447
3.95012
3.94595
3.94197
3.93817
3.93455
3.93111
3.92783
3.92472
3.92176
3.91896
3.91631
3.91379
3.91141
3.90915
3.90724
3.90952
3.91192
3.91444
3.91707
3.91979
3.92262
3.92553
3.92853
3.93162
3.9348
3.93805
3.94136
3.94471
3.94806
3.95134
3.95448
3.95741
3.96012
3.96265
3.96509
3.96751
3.96995
3.97246
3.97501
3.97753
3.98
3.98235
3.98457
3.98674
3.98928
3.99234
3.99574
3.99908
4.00215
4.00494
4.00809
4.01182
4.01618
4.02107
4.02598
4.03148
4.0366
4.04252
4.04756
4.05118
4.05295
4.0551
4.05781
4.06218
4.06606
4.07021
4.07315
4.07584
4.07784
4.07965
4.08117
4.08239
4.08326
4.08368
4.0837
4.08315
4.08218
4.08055
4.0784
4.07576
4.07275
4.06846
4.06238
4.05484
4.04727
4.04025
4.03327
4.02636
4.01955
4.01286
4.0063
3.99991
3.99368
3.98764
3.98179
3.97613
3.97068
3.96543
3.96038
3.95554
3.9509
3.94647
3.94223
3.93819
3.93434
3.93067
3.92718
3.92386
3.92071
3.91773
3.9149
3.91221
3.90967
3.90726
3.90523
3.90743
3.90974
3.91216
3.91468
3.9173
3.92002
3.92284
3.92576
3.92876
3.93186
3.93503
3.93828
3.94156
3.94485
3.94809
3.95121
3.95415
3.95691
3.95953
3.96208
3.96466
3.9673
3.97002
3.97281
3.9756
3.97835
3.981
3.98352
3.986
3.98889
3.99232
3.99609
3.99979
4.0032
4.0063
4.00976
4.01382
4.01854
4.02378
4.02907
4.03486
4.04037
4.04652
4.05186
4.05555
4.05754
4.05978
4.06292
4.06769
4.07216
4.07668
4.08
4.08292
4.08514
4.08714
4.08883
4.09021
4.09121
4.09174
4.09183
4.09132
4.09032
4.08865
4.08639
4.08364
4.08045
4.07597
4.06967
4.06179
4.05384
4.04645
4.03908
4.0318
4.02459
4.01751
4.01058
4.0038
3.9972
3.99079
3.98458
3.97858
3.97279
3.96722
3.96186
3.95672
3.95179
3.94708
3.94257
3.93828
3.93418
3.93028
3.92657
3.92304
3.91969
3.91651
3.9135
3.91064
3.90794
3.90537
3.90323
3.90534
3.90757
3.9099
3.91232
3.91484
3.91747
3.92019
3.92302
3.92595
3.92896
3.93206
3.93523
3.93845
3.94168
3.94488
3.94799
3.95094
3.95374
3.95642
3.95909
3.96181
3.96462
3.96754
3.97055
3.9736
3.97661
3.97954
3.98235
3.98514
3.98837
3.99217
3.99631
4.00037
4.00411
4.00753
4.01129
4.01569
4.02077
4.02637
4.03205
4.03816
4.04406
4.05046
4.05611
4.05991
4.06209
4.06444
4.06799
4.07322
4.0783
4.08324
4.08694
4.09012
4.09258
4.09478
4.09667
4.09822
4.09937
4.10002
4.10019
4.09973
4.09872
4.09702
4.09466
4.0918
4.08844
4.08377
4.07725
4.06902
4.06068
4.05292
4.04516
4.03748
4.02988
4.0224
4.01507
4.0079
4.00091
3.99413
3.98755
3.98119
3.97505
3.96914
3.96346
3.95801
3.95278
3.94778
3.943
3.93844
3.93409
3.92995
3.926
3.92226
3.9187
3.91533
3.91212
3.90909
3.90621
3.90349
3.90123
3.90326
3.90541
3.90766
3.91
3.91244
3.91498
3.91762
3.92036
3.92321
3.92614
3.92917
3.93227
3.93543
3.93861
3.94178
3.94486
3.94782
3.95063
3.95337
3.95612
3.95897
3.96194
3.96505
3.96827
3.97155
3.97481
3.97801
3.9811
3.98418
3.98774
3.99191
3.9964
4.00082
4.00489
4.00864
4.0127
4.01744
4.02288
4.02886
4.03493
4.04138
4.04767
4.05436
4.06033
4.06428
4.06661
4.06907
4.07303
4.07878
4.0845
4.08989
4.094
4.09746
4.10017
4.10259
4.10469
4.10643
4.10775
4.10854
4.1088
4.10841
4.10741
4.10568
4.10324
4.10027
4.09675
4.09189
4.08514
4.07656
4.06783
4.05967
4.05152
4.04343
4.03542
4.02753
4.01979
4.01222
4.00484
3.99766
3.9907
3.98397
3.97747
3.97122
3.9652
3.95942
3.95388
3.94858
3.94351
3.93868
3.93407
3.92967
3.9255
3.92152
3.91775
3.91417
3.91077
3.90755
3.90449
3.9016
3.89923
3.9012
3.90328
3.90545
3.90772
3.91009
3.91256
3.91513
3.91779
3.92056
3.92342
3.92637
3.92941
3.93252
3.93566
3.93879
3.94185
3.94479
3.94762
3.95039
3.95322
3.95618
3.95931
3.96259
3.966
3.96949
3.97298
3.97642
3.97978
3.98314
3.98702
3.99154
3.99639
4.00115
4.00556
4.00961
4.01398
4.01906
4.02488
4.03124
4.03771
4.04451
4.05121
4.05821
4.06451
4.06864
4.0711
4.07365
4.07806
4.08438
4.09077
4.09664
4.10117
4.10494
4.10791
4.11058
4.1129
4.11486
4.11636
4.11731
4.11768
4.11738
4.1164
4.11466
4.11216
4.10908
4.10538
4.10036
4.09336
4.08443
4.0753
4.06674
4.05818
4.04967
4.04124
4.03293
4.02477
4.01678
4.00898
4.00141
3.99405
3.98694
3.98007
3.97345
3.96708
3.96097
3.9551
3.94949
3.94413
3.93901
3.93412
3.92947
3.92504
3.92083
3.91684
3.91304
3.90944
3.90603
3.90279
3.89972
3.89724
3.89916
3.90117
3.90329
3.9055
3.9078
3.9102
3.9127
3.91529
3.91799
3.92079
3.92368
3.92666
3.92972
3.93282
3.93591
3.93894
3.94187
3.9447
3.94751
3.95042
3.95349
3.95675
3.96019
3.96377
3.96744
3.97115
3.97482
3.97842
3.98205
3.98624
3.9911
3.99628
4.00138
4.00611
4.01047
4.01515
4.02057
4.02677
4.03352
4.0404
4.04757
4.05468
4.062
4.06866
4.07299
4.07557
4.07823
4.0831
4.09004
4.09712
4.10351
4.10849
4.11257
4.11583
4.11875
4.12132
4.12352
4.12522
4.12635
4.12685
4.12665
4.12572
4.12398
4.12143
4.11825
4.11438
4.10919
4.10195
4.09266
4.08312
4.07415
4.06517
4.05623
4.04737
4.03862
4.03002
4.0216
4.01338
4.00538
3.99762
3.99011
3.98285
3.97585
3.96912
3.96266
3.95646
3.95053
3.94485
3.93943
3.93427
3.92934
3.92466
3.9202
3.91597
3.91195
3.90814
3.90452
3.90109
3.89785
3.89526
3.89712
3.89909
3.90115
3.9033
3.90555
3.90788
3.91032
3.91286
3.9155
3.91824
3.92108
3.92402
3.92703
3.93008
3.93313
3.93614
3.93905
3.9419
3.94476
3.94774
3.95092
3.95429
3.95786
3.96159
3.96543
3.96932
3.9732
3.97704
3.98091
3.9854
3.99058
3.99608
4.0015
4.00655
4.01122
4.0162
4.02197
4.02855
4.03571
4.04301
4.05055
4.05808
4.06574
4.07276
4.07733
4.08003
4.08281
4.08816
4.09578
4.10357
4.11051
4.11594
4.12036
4.12392
4.12712
4.12996
4.13241
4.13435
4.13567
4.13633
4.13625
4.13537
4.13366
4.13108
4.12781
4.12378
4.11843
4.11094
4.10129
4.09131
4.08193
4.07251
4.06313
4.05381
4.04461
4.03556
4.02669
4.01803
4.0096
4.00142
3.99349
3.98583
3.97844
3.97133
3.96451
3.95796
3.95169
3.94569
3.93996
3.9345
3.92929
3.92433
3.91962
3.91514
3.91089
3.90686
3.90304
3.89941
3.89597
3.89328
3.8951
3.89702
3.89903
3.90114
3.90333
3.90561
3.908
3.91049
3.91308
3.91578
3.91857
3.92146
3.92443
3.92744
3.93046
3.93344
3.93636
3.93924
3.94216
3.94521
3.94847
3.95194
3.95562
3.95947
3.96345
3.96751
3.97159
3.97564
3.97975
3.98451
3.99
3.9958
4.00153
4.00689
4.01187
4.01714
4.02326
4.03023
4.03781
4.04553
4.05347
4.06141
4.06942
4.07679
4.08164
4.08451
4.08745
4.0933
4.10161
4.11014
4.11764
4.12355
4.12832
4.1322
4.1357
4.13883
4.14156
4.14375
4.14529
4.14613
4.14619
4.14539
4.14371
4.14111
4.13778
4.13362
4.12809
4.12035
4.11033
4.09992
4.0901
4.08023
4.07039
4.06061
4.05094
4.04142
4.03209
4.02297
4.01409
4.00546
3.9971
3.98902
3.98123
3.97373
3.96652
3.95961
3.95299
3.94665
3.9406
3.93483
3.92932
3.92409
3.91911
3.91437
3.90988
3.90561
3.90157
3.89774
3.8941
3.8913
3.89308
3.89496
3.89694
3.899
3.90115
3.90339
3.90574
3.90819
3.91074
3.91339
3.91615
3.91899
3.92191
3.92489
3.92788
3.93086
3.93379
3.93671
3.93969
3.94281
3.94614
3.94968
3.95344
3.9574
3.96151
3.96572
3.96998
3.97423
3.97856
3.98358
3.98935
3.99543
4.00146
4.00712
4.01241
4.01797
4.02444
4.03182
4.03981
4.04797
4.05631
4.06467
4.07303
4.08075
4.08592
4.08902
4.09219
4.09854
4.10757
4.11683
4.12492
4.13132
4.13646
4.14068
4.14449
4.14794
4.15098
4.15345
4.15524
4.15628
4.1565
4.1558
4.15417
4.15157
4.14818
4.14391
4.13821
4.13022
4.11982
4.10896
4.09869
4.08835
4.07804
4.06778
4.05763
4.04762
4.03781
4.02821
4.01886
4.00977
4.00097
3.99245
3.98424
3.97632
3.96872
3.96142
3.95443
3.94775
3.94136
3.93526
3.92945
3.92392
3.91866
3.91366
3.90891
3.9044
3.90013
3.89608
3.89224
3.88932
3.89108
3.89293
3.89486
3.89689
3.89901
3.90122
3.90353
3.90595
3.90846
3.91108
3.91379
3.91659
3.91948
3.92242
3.9254
3.92837
3.93133
3.93429
3.93731
3.94049
3.94388
3.94748
3.95131
3.95536
3.9596
3.96395
3.96838
3.97282
3.97735
3.9826
3.98864
3.99499
4.00129
4.00726
4.01285
4.01871
4.02552
4.03332
4.04172
4.05033
4.05909
4.06788
4.07658
4.08465
4.09018
4.0936
4.09705
4.10392
4.11367
4.12367
4.13235
4.13925
4.14479
4.14936
4.15352
4.15731
4.16068
4.16345
4.16552
4.1668
4.1672
4.16662
4.16505
4.16246
4.15905
4.15469
4.14883
4.14058
4.12979
4.11846
4.10773
4.09691
4.0861
4.07535
4.06469
4.05419
4.04387
4.03378
4.02394
4.01437
4.0051
3.99613
3.98747
3.97913
3.97111
3.96342
3.95604
3.94898
3.94224
3.93581
3.92967
3.92383
3.91828
3.913
3.90798
3.90323
3.89871
3.89443
3.89038
3.88735
3.88908
3.8909
3.89281
3.89481
3.89691
3.89909
3.90137
3.90375
3.90623
3.9088
3.91148
3.91425
3.91711
3.92003
3.92299
3.92596
3.92893
3.93193
3.935
3.93823
3.94166
3.94532
3.94922
3.95336
3.95771
3.9622
3.96678
3.97139
3.97612
3.9816
3.98788
3.99447
4.00102
4.00729
4.01319
4.01936
4.02649
4.03473
4.04355
4.05262
4.06181
4.07103
4.08009
4.08849
4.09443
4.09825
4.10206
4.10947
4.11992
4.13065
4.13994
4.14735
4.1533
4.15826
4.16278
4.16694
4.17067
4.17378
4.17616
4.1777
4.17831
4.17788
4.1764
4.17384
4.17041
4.16598
4.15997
4.15146
4.14027
4.12846
4.11725
4.10594
4.09462
4.08335
4.07217
4.06114
4.0503
4.0397
4.02935
4.01928
4.00952
4.00007
3.99095
3.98216
3.97371
3.9656
3.95782
3.95038
3.94327
3.93648
3.93001
3.92384
3.91798
3.9124
3.90711
3.90209
3.89732
3.8928
3.88852
3.88537
3.88709
3.88889
3.89078
3.89275
3.89482
3.89697
3.89922
3.90157
3.90402
3.90656
3.90921
3.91196
3.9148
3.9177
3.92064
3.92361
3.92659
3.92961
3.93273
3.936
3.93948
3.94319
3.94716
3.9514
3.95585
3.96047
3.96519
3.96996
3.97486
3.98055
3.98707
3.99387
4.00067
4.00722
4.01344
4.01991
4.02739
4.03599
4.04529
4.05483
4.06448
4.07415
4.08359
4.09232
4.09872
4.10301
4.10724
4.11518
4.12635
4.13779
4.14768
4.15562
4.162
4.16737
4.17228
4.17684
4.18096
4.18445
4.18717
4.18901
4.18987
4.18962
4.18824
4.18572
4.18231
4.17782
4.17165
4.16288
4.15128
4.13899
4.12729
4.11546
4.10362
4.09181
4.08009
4.06851
4.05713
4.04599
4.03511
4.02452
4.01425
4.0043
3.9947
3.98544
3.97653
3.96798
3.95978
3.95194
3.94444
3.93728
3.93045
3.92395
3.91776
3.91188
3.90629
3.90099
3.89596
3.89119
3.88667
3.8834
3.8851
3.88688
3.88875
3.8907
3.89274
3.89486
3.89709
3.89941
3.90183
3.90436
3.90699
3.90972
3.91254
3.91542
3.91834
3.92129
3.92428
3.92733
3.93049
3.9338
3.93732
3.94109
3.94513
3.94945
3.95401
3.95875
3.9636
3.96852
3.97358
3.97947
3.9862
3.99321
4.00022
4.00705
4.01359
4.02037
4.02817
4.03716
4.04694
4.05698
4.06712
4.07726
4.0871
4.0962
4.10308
4.1079
4.11259
4.12108
4.13295
4.14508
4.15558
4.16405
4.1709
4.1767
4.18204
4.18703
4.19158
4.19548
4.19858
4.20075
4.2019
4.20186
4.20061
4.19817
4.19476
4.19024
4.18392
4.17487
4.16287
4.15009
4.13788
4.12551
4.11312
4.10075
4.08847
4.07633
4.06439
4.05268
4.04124
4.03011
4.01931
4.00884
3.99873
3.98898
3.9796
3.97059
3.96195
3.95368
3.94577
3.93822
3.93102
3.92416
3.91763
3.91142
3.90553
3.89993
3.89463
3.88959
3.88482
3.88143
3.88311
3.88487
3.88672
3.88865
3.89066
3.89277
3.89498
3.89729
3.89969
3.9022
3.90482
3.90752
3.91031
3.91317
3.91607
3.91902
3.92201
3.92508
3.92827
3.93162
3.93518
3.939
3.94312
3.94753
3.95219
3.95703
3.96201
3.96707
3.97228
3.97835
3.98529
3.99248
3.9997
4.00679
4.01364
4.02071
4.02882
4.03822
4.0485
4.05907
4.06973
4.08039
4.09069
4.10017
4.10757
4.11293
4.11813
4.12717
4.13972
4.15255
4.16364
4.17266
4.17999
4.18625
4.19205
4.1975
4.20252
4.20687
4.21039
4.21295
4.21442
4.21464
4.21356
4.2112
4.20783
4.20326
4.19679
4.18748
4.17507
4.16178
4.14905
4.13613
4.12317
4.11023
4.09736
4.08463
4.07209
4.0598
4.04778
4.03608
4.02472
4.01371
4.00306
3.9928
3.98292
3.97343
3.96432
3.9556
3.94727
3.93931
3.93171
3.92448
3.9176
3.91105
3.90483
3.89893
3.89333
3.88801
3.88298
3.87946
3.88112
3.88287
3.8847
3.88662
3.88862
3.89072
3.89291
3.8952
3.89759
3.90008
3.90267
3.90536
3.90812
3.91095
3.91384
3.91678
3.91978