/*--------------------------------*- C++ -*----------------------------------*\
  =========                 |
  \\      /  F ield         | OpenFOAM: The Open Source CFD Toolbox
   \\    /   O peration     | Website:  https://openfoam.org
    \\  /    A nd           | Version:  9
     \\/     M anipulation  |
\*---------------------------------------------------------------------------*/
FoamFile
{
    format      ascii;
    class       volScalarField;
    location    "0.19";
    object      p_rgh;
}
// * * * * * * * * * * * * * * * * * * * * * * * * * * * * * * * * * * * * * //

dimensions      [1 -1 -2 0 0 0 0];

internalField   nonuniform List<scalar> 
20000
(
-0.000500902
-0.0015462
-0.00278618
-0.00425688
-0.00610482
-0.00853824
-0.0118738
-0.0166063
-0.0235333
-0.0339809
-0.0502295
-0.0763428
-0.11987
-0.195504
-0.333334
-0.597038
-1.1456
-2.10199
-2.04774
-1.21757
-0.548431
-0.273985
-0.145197
-0.0835959
-0.0523116
-0.0350002
-0.0241475
-0.01655
-0.0116223
-0.00982084
-0.0112823
-0.0145578
-0.0145137
-0.00868436
-0.00337892
-0.00434012
-0.0110105
-0.0274519
-0.0439225
-0.0557527
-0.063591
-0.0686344
-0.0716384
-0.0692851
-0.0732612
-0.0514492
-0.321997
-0.0527831
-0.0623024
-0.0510974
-0.0408699
-0.0282947
-0.0162096
-0.00793429
-0.00460622
-0.00502398
-0.00775821
-0.0109193
-0.0133415
-0.0149898
-0.0161538
-0.0168574
-0.0168687
-0.0175892
-0.0294613
-0.139718
-0.0828099
-0.0210068
-0.0168558
-0.0163609
-0.0156873
-0.0147331
-0.0137342
-0.0128066
-0.0119691
-0.0112111
-0.0105194
-0.00988311
-0.00929282
-0.00873904
-0.00821223
-0.0077033
-0.00720427
-0.00670884
-0.00621262
-0.00571321
-0.00521
-0.00470394
-0.00419723
-0.00369308
-0.00319559
-0.00270969
-0.00224124
-0.00179694
-0.00138398
-0.00100891
-0.000676091
-0.000388118
-0.000153037
3.76302e-06
-0.00101386
-0.00331273
-0.00603851
-0.00913377
-0.0128246
-0.0174216
-0.0233675
-0.0313002
-0.0421614
-0.0573695
-0.0790772
-0.11055
-0.156728
-0.22496
-0.325021
-0.461637
-0.621301
-0.890105
-0.817489
-0.537963
-0.391877
-0.256404
-0.154331
-0.0914753
-0.0539251
-0.0316998
-0.0185149
-0.0107088
-0.00636883
-0.0043531
-0.00382811
-0.00435516
-0.00413538
-0.0024694
-0.00225562
-0.00508446
-0.00949533
-0.0189943
-0.0295278
-0.0385933
-0.0455602
-0.0506115
-0.0555884
-0.0529199
-0.0803102
-0.0507261
-0.206861
-0.0516988
-0.0685272
-0.0393878
-0.0293798
-0.0191097
-0.0103724
-0.00434976
-0.0011303
-3.10243e-05
-0.000652608
-0.00215611
-0.00383064
-0.00543618
-0.00704895
-0.00897739
-0.0120369
-0.0211737
-0.0268524
-0.080879
-0.0519472
-0.0261154
-0.0175206
-0.0116208
-0.00946991
-0.00823133
-0.00733309
-0.00662462
-0.00604738
-0.00556795
-0.00516218
-0.0048112
-0.0045
-0.00421656
-0.00395124
-0.00369647
-0.00344656
-0.00319757
-0.00294714
-0.00269428
-0.00243923
-0.00218318
-0.0019281
-0.00167657
-0.00143162
-0.00119656
-0.000974796
-0.000769513
-0.000583307
-0.000417683
-0.000272359
-0.000145711
-3.93488e-05
3.19142e-05
-0.000996433
-0.00338865
-0.00623177
-0.00934081
-0.0128716
-0.0170312
-0.0220949
-0.0284248
-0.0364999
-0.0469313
-0.0604345
-0.0777003
-0.099029
-0.12377
-0.150523
-0.17384
-0.152253
-0.24299
-0.185785
-0.0839269
-0.1422
-0.117088
-0.0869286
-0.0599713
-0.0381472
-0.0226019
-0.012221
-0.00554477
-0.00158526
0.000412165
0.00112209
0.000765694
0.00055515
0.0012989
0.000945272
-0.00185227
-0.00536789
-0.0131735
-0.0215087
-0.0288761
-0.0348673
-0.0392777
-0.0456981
-0.0401737
-0.0718719
-0.0285453
-0.151452
-0.0290206
-0.0601822
-0.0290917
-0.0221562
-0.0125269
-0.00484258
0.000460321
0.00351415
0.0048925
0.00477785
0.0038231
0.00252783
0.0010376
-0.000760188
-0.0031866
-0.00633018
-0.0160314
-0.0149357
-0.0554221
-0.0332426
-0.0178739
-0.0127811
-0.00715821
-0.00496133
-0.00363927
-0.00280247
-0.00224339
-0.00185678
-0.00158426
-0.0013903
-0.00125094
-0.00114892
-0.00107131
-0.00100831
-0.000952569
-0.000898779
-0.000843372
-0.000784249
-0.000720532
-0.000652332
-0.000580517
-0.000506495
-0.000432004
-0.000358924
-0.00028912
-0.000224318
-0.000166025
-0.000115545
-7.41256e-05
-4.25655e-05
-1.96328e-05
-1.66303e-06
1.2812e-05
-0.000542891
-0.00207861
-0.00397321
-0.00591694
-0.00796217
-0.0101586
-0.0125545
-0.0151932
-0.018102
-0.0212485
-0.0244433
-0.0271833
-0.0283698
-0.025841
-0.0171265
-0.00321661
0.0588617
0.0601593
0.0779851
0.0921993
0.00275485
-0.00454788
-0.0152593
-0.0162925
-0.0120862
-0.00689682
-0.0020856
0.00180268
0.00443471
0.00575566
0.00597016
0.00521157
0.00463637
0.00511311
0.00502226
0.00260355
-0.000442707
-0.00749421
-0.0145787
-0.0207542
-0.0258547
-0.0291625
-0.0360357
-0.0274522
-0.0568911
-0.0102838
-0.106222
-0.0108358
-0.0460602
-0.0175703
-0.0145593
-0.0055691
0.00130792
0.00615032
0.00900315
0.0103393
0.0103382
0.00961959
0.00855398
0.00720823
0.00545906
0.0030555
0.000918872
-0.00777686
-0.00392105
-0.0359827
-0.0186079
-0.00829823
-0.00567105
-0.00152965
-3.58693e-05
0.00102937
0.00165694
0.00200942
0.00218379
0.00224102
0.00222017
0.00214731
0.00204063
0.00191341
0.00177555
0.00163436
0.00149516
0.00136155
0.00123575
0.00111888
0.00101114
0.000912095
0.000820862
0.000736292
0.000657119
0.000582062
0.000509895
0.000439529
0.00037012
0.000300976
0.000231361
0.000161644
9.44698e-05
3.18517e-05
5.26744e-05
-0.000261915
-0.000814777
-0.00124786
-0.00154906
-0.00168171
-0.00157683
-0.00114522
-0.000258427
0.00127221
0.00375818
0.00774792
0.0141656
0.0247048
0.0421689
0.0636067
0.119071
0.144953
0.15022
0.132426
0.0636365
0.0497384
0.0272873
0.0171557
0.0125282
0.0106505
0.0105935
0.0113022
0.0119621
0.012145
0.011735
0.0107337
0.00989654
0.00982661
0.00941946
0.00718789
0.00470612
-0.00104446
-0.00665252
-0.0116792
-0.0159637
-0.0180382
-0.0248629
-0.0142693
-0.0405532
0.00229571
-0.0651163
0.00152418
-0.0308068
-0.00540956
-0.00531252
0.0027114
0.0083468
0.0125144
0.015122
0.0164815
0.016706
0.0162716
0.0154315
0.0142558
0.0126803
0.0104149
0.00903181
0.00110779
0.0056592
-0.0165185
-0.00469274
0.000560942
0.00203369
0.00509481
0.00586479
0.00650508
0.00677531
0.00682484
0.00672309
0.00651777
0.00624348
0.00592492
0.0055798
0.00522107
0.00485828
0.00449842
0.00414647
0.00380587
0.00347876
0.00316629
0.00286886
0.00258627
0.00231793
0.00206303
0.00182058
0.00158959
0.00136911
0.00115832
0.000956659
0.000763836
0.00057934
0.000402675
0.000234648
7.61957e-05
0.00057151
0.00135173
0.00197766
0.00280628
0.00387382
0.00524879
0.00701696
0.00928815
0.0121943
0.0159001
0.0206482
0.0268806
0.0354055
0.0477137
0.0667574
0.0895618
0.131218
0.154803
0.157742
0.138852
0.0922673
0.0735647
0.0490581
0.0377619
0.0301802
0.025194
0.0223995
0.0208113
0.0197612
0.0188527
0.0178551
0.0166667
0.0156061
0.0149886
0.0141236
0.0120356
0.0101545
0.00581216
0.00165159
-0.00224607
-0.0057501
-0.00667322
-0.0132126
-0.00167944
-0.0240969
0.0130334
-0.0332179
0.0122069
-0.0153903
0.00625296
0.00462273
0.0116656
0.0159874
0.0194452
0.0217767
0.0231631
0.023627
0.0234707
0.0228504
0.0218556
0.0204925
0.0183633
0.0174298
0.010513
0.0150435
0.000406162
0.0080143
0.00959464
0.010128
0.0121294
0.0122653
0.0124479
0.012303
0.011996
0.0115728
0.011068
0.0105101
0.00992044
0.00931481
0.00870502
0.00809978
0.00750542
0.00692647
0.00636599
0.00582597
0.00530748
0.00481096
0.00433635
0.00388325
0.00345102
0.00303891
0.00264613
0.00227195
0.00191565
0.00157664
0.00125451
0.00094873
0.000658606
0.000383968
0.000124354
0.00098818
0.00266533
0.00424203
0.00603802
0.00808667
0.0104612
0.0132669
0.0166343
0.0207074
0.0256589
0.0317472
0.0393849
0.0492147
0.0622966
0.0808047
0.102124
0.132221
0.149367
0.151777
0.138192
0.107719
0.0872531
0.0634661
0.0520565
0.0428359
0.0364313
0.0322138
0.0292377
0.0270334
0.0253149
0.023793
0.0223633
0.0211175
0.020213
0.019192
0.0173321
0.0159136
0.0126381
0.00959286
0.0066993
0.00393468
0.00403048
-0.00173425
0.00956639
-0.00820032
0.0232316
-0.00968049
0.0224483
-0.00047426
0.0171003
0.0144966
0.0206745
0.0239269
0.0268272
0.0288766
0.0302061
0.030793
0.0308225
0.0303832
0.0295613
0.0284236
0.0264807
0.0259175
0.0202639
0.0243276
0.0141283
0.0191189
0.0188105
0.0184736
0.0192925
0.0187977
0.018503
0.0179295
0.0172506
0.0164877
0.0156669
0.0148116
0.0139395
0.0130639
0.012195
0.0113404
0.0105058
0.00969505
0.008911
0.00815541
0.00742929
0.00673306
0.00606672
0.00542991
0.00482209
0.00424254
0.00369046
0.003165
0.00266525
0.00219026
0.00173906
0.0013106
0.000903704
0.000517117
0.000146653
0.00131037
0.00369938
0.00603559
0.00858883
0.011379
0.0144742
0.0179941
0.0220989
0.0269654
0.0327701
0.0397175
0.0480949
0.0583009
0.0708107
0.0870186
0.104889
0.126427
0.1388
0.140931
0.131851
0.112478
0.0945734
0.073813
0.0623485
0.0525302
0.0454214
0.0403239
0.0364846
0.0335752
0.0313128
0.0293863
0.0277424
0.0264065
0.0254166
0.0244964
0.0229344
0.0218508
0.0193321
0.0171105
0.0150717
0.0129891
0.0139311
0.00921895
0.019779
0.00653262
0.0326815
0.00868512
0.0320846
0.0133539
0.0272922
0.0241885
0.0295876
0.0320271
0.0345237
0.0363082
0.0375225
0.0381347
0.0382672
0.0379661
0.0372985
0.036386
0.0346798
0.0344192
0.0299274
0.0332794
0.0257759
0.0290726
0.0278492
0.0268014
0.0265161
0.0253984
0.0246056
0.0235957
0.0225382
0.0214274
0.0202828
0.0191232
0.0179625
0.0168115
0.015679
0.0145714
0.0134935
0.0124488
0.0114398
0.0104681
0.00953442
0.00863926
0.00778251
0.00696378
0.00618242
0.00543759
0.0047283
0.0040535
0.00341202
0.00280268
0.00222424
0.00167545
0.0011553
0.000663041
0.000193453
0.00154711
0.00446596
0.00735958
0.0104419
0.0137162
0.0172392
0.0211213
0.0255172
0.0306077
0.0365809
0.0436118
0.0518353
0.0613807
0.0724657
0.0857279
0.0998714
0.115346
0.124668
0.126927
0.121262
0.109194
0.0949609
0.0796553
0.0691635
0.0596689
0.0524975
0.0469911
0.042688
0.0393849
0.0368113
0.0346587
0.032921
0.0316009
0.0306458
0.0298826
0.0286213
0.0278353
0.0259431
0.0244004
0.0231061
0.0216539
0.0232565
0.0197129
0.0292391
0.0199474
0.0413553
0.0238466
0.0410982
0.0259786
0.0370007
0.0337489
0.0384484
0.0402537
0.0424345
0.0439815
0.0450798
0.0456869
0.0458849
0.045694
0.0451594
0.0444502
0.0429792
0.0429052
0.0393227
0.0419385
0.0363008
0.0383812
0.0366084
0.0349779
0.0337758
0.0320877
0.0307956
0.0293492
0.0279088
0.0264428
0.0249674
0.0234966
0.0220406
0.0206081
0.0192062
0.0178405
0.0165148
0.0152324
0.0139951
0.0128044
0.0116609
0.0105649
0.00951615
0.00851409
0.00755794
0.00664668
0.00577914
0.00495405
0.00417005
0.00342574
0.00271966
0.00205027
0.00141614
0.000816151
0.000243374
0.00168586
0.00492637
0.00815688
0.0115363
0.0150558
0.0187551
0.0227182
0.0270713
0.0319733
0.037595
0.0440969
0.0515808
0.0600716
0.0695895
0.0803742
0.0915801
0.102992
0.110404
0.11299
0.109809
0.102448
0.0919287
0.0809178
0.072367
0.0641397
0.0575838
0.0522184
0.0478814
0.0444834
0.0418251
0.0396338
0.0379411
0.0367343
0.035882
0.0352739
0.0342904
0.0337982
0.0324777
0.0315408
0.0309128
0.0300518
0.0321632
0.0297537
0.038128
0.0322098
0.0494827
0.0367504
0.0496264
0.037541
0.0462994
0.0431595
0.0472632
0.0485799
0.0505033
0.0518448
0.0528482
0.0534524
0.0537018
0.0536046
0.0531823
0.0526405
0.0513713
0.0513798
0.0484874
0.0504364
0.0461126
0.0472862
0.0451394
0.0430037
0.0410464
0.0388534
0.0370743
0.0352075
0.0333826
0.0315566
0.0297447
0.027956
0.0261978
0.0244771
0.0227996
0.0211697
0.0195908
0.0180654
0.0165951
0.0151812
0.0138239
0.0125233
0.0112791
0.0100906
0.00895664
0.00787617
0.00684777
0.00586992
0.00494101
0.00405934
0.00322314
0.00243051
0.00167964
0.000969191
0.00029205
0.00172084
0.00505324
0.00838423
0.0118531
0.0154471
0.0191969
0.0231667
0.0274396
0.0321154
0.0373205
0.0431997
0.0498557
0.0572956
0.0654602
0.0743514
0.083444
0.0922356
0.0983807
0.101128
0.0995631
0.0951503
0.0876462
0.0797836
0.0731368
0.0664758
0.0609091
0.0561103
0.0521139
0.0489068
0.046373
0.0443051
0.0427711
0.0417559
0.0410658
0.0406328
0.0399139
0.039703
0.0388942
0.0384966
0.038464
0.0381511
0.0406636
0.0391919
0.0468677
0.0433105
0.0572619
0.0479795
0.0577586
0.0481988
0.0552218
0.0523676
0.055992
0.0569616
0.0586878
0.0598615
0.0607922
0.0613931
0.0616853
0.0616682
0.0613391
0.0609279
0.0598244
0.0598495
0.0574776
0.0588343
0.0553911
0.0558859
0.0534895
0.0509111
0.0483112
0.0456567
0.0434241
0.0411495
0.0389424
0.036756
0.0346048
0.0324938
0.0304282
0.0284138
0.0264551
0.0245557
0.0227183
0.0209451
0.0192373
0.0175957
0.0160206
0.0145117
0.0130685
0.0116901
0.0103753
0.00912276
0.00793076
0.00679757
0.0057213
0.00469997
0.0037315
0.00281371
0.0019444
0.00112188
0.000339709
0.00163815
0.00481078
0.00799736
0.0113713
0.0149318
0.01868
0.02264
0.0268642
0.0314171
0.0363723
0.0418171
0.0478169
0.0543708
0.061413
0.0688762
0.0764274
0.083505
0.0887288
0.0914156
0.0908262
0.0882589
0.0831308
0.077625
0.0726286
0.0674729
0.0629931
0.0589808
0.0555586
0.0527464
0.0504965
0.0486765
0.0473867
0.0466232
0.0461476
0.0459193
0.0454607
0.0455131
0.0451532
0.0452302
0.0457269
0.0459135
0.0487474
0.0481392
0.0553258
0.0534146
0.0648546
0.0579532
0.0655437
0.0580867
0.0638096
0.0613515
0.0646083
0.0653617
0.0669514
0.0679987
0.0688769
0.0694747
0.0698016
0.0698518
0.0695993
0.0692866
0.0683176
0.0683179
0.0663273
0.0671617
0.0642816
0.0642571
0.0616882
0.0587261
0.0555746
0.0524788
0.0498233
0.0471552
0.0445721
0.0420281
0.0395369
0.037101
0.0347246
0.0324125
0.0301682
0.0279949
0.0258947
0.0238693
0.0219198
0.0200466
0.0182498
0.0165289
0.0148833
0.0133118
0.011813
0.0103853
0.00902688
0.00773575
0.00650978
0.00534671
0.00424418
0.00319971
0.00221065
0.00127474
0.000386552
0.00147441
0.00432421
0.0072048
0.0103051
0.0136509
0.0172704
0.0211759
0.0253697
0.0298544
0.0346475
0.0397905
0.0453187
0.051218
0.0574207
0.0638511
0.0702856
0.0762238
0.080774
0.0833259
0.0833727
0.0820272
0.0787503
0.0750683
0.0715192
0.0677396
0.0643339
0.0611864
0.0584431
0.056135
0.0542657
0.0527757
0.0517906
0.0513214
0.0510976
0.0510929
0.0508901
0.0511925
0.0512347
0.0517355
0.0527053
0.0533588
0.056414
0.0566674
0.0633896
0.0627408
0.0723028
0.0670442
0.0730504
0.0673393
0.0721185
0.0701262
0.0731161
0.073763
0.0752691
0.0762308
0.0770782
0.0776784
0.0780364
0.078144
0.0779541
0.077713
0.07685
0.0767957
0.0750733
0.0754565
0.07292
0.0724828
0.0697726
0.066475
0.0628432
0.0593309
0.0562713
0.0532222
0.0502703
0.0473721
0.0445413
0.0417791
0.0390893
0.0364761
0.0339425
0.0314912
0.029124
0.0268424
0.024647
0.0225381
0.0205157
0.018579
0.016727
0.0149586
0.0132721
0.0116657
0.0101375
0.00868515
0.0073065
0.00599908
0.00476032
0.00358748
0.00247753
0.00142747
0.000432485
0.00128878
0.00378447
0.00635635
0.0091936
0.0122929
0.0156795
0.0193874
0.023423
0.0277632
0.0323797
0.037267
0.042431
0.0478464
0.0534386
0.0591954
0.0648378
0.0700238
0.0741104
0.0765748
0.0771158
0.0766452
0.0747769
0.072529
0.0702251
0.0676721
0.0652815
0.0629985
0.0609589
0.0591964
0.0577518
0.0566346
0.0559905
0.0558418
0.0558931
0.0561224
0.0561698
0.0567148
0.0571291
0.0580204
0.0594155
0.0605257
0.0637179
0.0647926
0.0710886
0.0714413
0.0795653
0.075548
0.0803563
0.0760905
0.080207
0.0787208
0.0815317
0.082161
0.0836277
0.084542
0.0853814
0.0859943
0.0863852
0.0865439
0.0864063
0.0862141
0.085431
0.0852998
0.0837579
0.083758
0.0814144
0.0806376
0.0777898
0.0741924
0.0701319
0.066226
0.0627783
0.0593582
0.0560437
0.0527943
0.0496242
0.0465343
0.0435287
0.0406112
0.0377846
0.0350512
0.0324129
0.0298706
0.0274251
0.0250762
0.0228238
0.0206668
0.0186042
0.0166345
0.0147558
0.0129662
0.0112635
0.0096456
0.00811006
0.00665449
0.00527639
0.00397308
0.00274154
0.00157814
0.00047707
0.00119379
0.0035065
0.0058946
0.00853798
0.0114421
0.0146153
0.0180822
0.0218633
0.0259526
0.0303164
0.0349197
0.0397418
0.0447557
0.0498986
0.055088
0.0601979
0.0648886
0.0686682
0.0711209
0.0720942
0.0722951
0.0714843
0.0703264
0.0690508
0.0675436
0.066067
0.0645954
0.0632346
0.0620147
0.0610018
0.0602708
0.0599849
0.0601706
0.060513
0.060986
0.0612799
0.0620635
0.0628297
0.064092
0.0658764
0.0674351
0.0708366
0.0724296
0.0784647
0.0796161
0.0866524
0.083615
0.0875243
0.0844583
0.0881264
0.0871632
0.0898712
0.0905552
0.0920208
0.0929234
0.0937771
0.0944155
0.0948443
0.0950511
0.0949585
0.0947973
0.0940717
0.0938489
0.0924203
0.0920957
0.089841
0.0887779
0.0857867
0.0819164
0.0774614
0.0731772
0.0693552
0.0655726
0.0619001
0.0583016
0.0547922
0.0513733
0.0480494
0.0448242
0.0417007
0.0386812
0.0357672
0.0329599
0.0302596
0.0276662
0.0251791
0.0227972
0.0205192
0.0183432
0.0162672
0.0142889
0.0124059
0.010616
0.00891664
0.00730568
0.00578091
0.00434042
0.00298305
0.0017082
0.000509545
0.0011734
0.0034774
0.00586962
0.00845059
0.0112524
0.0142991
0.0175972
0.0211519
0.0249662
0.0290251
0.0332992
0.0377618
0.0423865
0.0471226
0.0518896
0.056575
0.0608922
0.064451
0.0669354
0.0682835
0.0690089
0.0689815
0.0686403
0.0681807
0.0675279
0.066836
0.0660852
0.0653438
0.0646332
0.0640358
0.0636879
0.0637665
0.0642943
0.0649393
0.0656679
0.0662073
0.0672283
0.0683316
0.0699525
0.0721025
0.0740724
0.0777084
0.0797185
0.0855739
0.0873434
0.0935857
0.091349
0.0946019
0.092535
0.0959171
0.0954788
0.0981494
0.0989476
0.100446
0.101371
0.102259
0.102937
0.10341
0.103665
0.103613
0.103471
0.102784
0.102462
0.101095
0.100492
0.0983436
0.0968574
0.0938044
0.0896801
0.0848534
0.0801999
0.0760136
0.0718748
0.0678478
0.0639015
0.0600524
0.0563027
0.0526576
0.0491213
0.0456969
0.0423868
0.0391928
0.0361157
0.0331559
0.0303133
0.0275869
0.0249755
0.0224773
0.0200901
0.0178115
0.0156387
0.013569
0.0115996
0.00972791
0.00795169
0.00626917
0.00467882
0.00318085
0.00178948
0.000531618
0.00119617
0.00358
0.00608371
0.00873754
0.0115509
0.0145487
0.0177419
0.021134
0.0247282
0.02852
0.0324916
0.0366211
0.040886
0.0452487
0.049643
0.0539629
0.0579718
0.0613582
0.0638719
0.0655229
0.0666488
0.067199
0.0674748
0.0676561
0.067689
0.06765
0.067514
0.0673147
0.0670642
0.0668566
0.0668832
0.0673281
0.0682038
0.0691613
0.0701559
0.0709432
0.0722036
0.0736333
0.0756034
0.0781057
0.0804525
0.0843182
0.0867379
0.0924514
0.0946378
0.100419
0.098844
0.101611
0.100386
0.103609
0.103691
0.106382
0.107343
0.108906
0.109883
0.110826
0.111557
0.112084
0.112388
0.112376
0.112243
0.111583
0.111157
0.109813
0.108944
0.106824
0.105057
0.101901
0.0975131
0.0923292
0.0873113
0.0827674
0.0782763
0.0738969
0.0696033
0.0654134
0.0613306
0.0573611
0.0535096
0.04978
0.0461747
0.0426958
0.0393442
0.0361202
0.0330237
0.0300535
0.0272081
0.0244854
0.0218828
0.019397
0.0170246
0.0147616
0.0126034
0.010545
0.00858069
0.00670372
0.00490406
0.00315646
0.00143522
-4.94941e-05
0.00125211
0.00374029
0.00633712
0.00908414
0.0119668
0.0149778
0.0181231
0.0214136
0.0248594
0.0284618
0.0322089
0.0360798
0.0400515
0.0440949
0.0481617
0.0521631
0.0559077
0.0591374
0.0616951
0.0635606
0.0649821
0.0659648
0.0667204
0.0674133
0.0679972
0.0684947
0.0688725
0.0691394
0.0693012
0.0694599
0.0698534
0.0706664
0.0718961
0.0731747
0.0744412
0.0754831
0.0769885
0.0787386
0.0810511
0.0839001
0.0866106
0.0906973
0.0935176
0.0991568
0.102093
0.106694
0.106065
0.108533
0.108055
0.111223
0.111822
0.114586
0.11575
0.117405
0.118462
0.119479
0.120277
0.120867
0.121224
0.121254
0.121128
0.120484
0.119953
0.118602
0.117485
0.115344
0.11338
0.110091
0.105443
0.0999098
0.0945292
0.0896319
0.0847907
0.0800597
0.0754181
0.0708853
0.0664662
0.0621684
0.0579976
0.0539578
0.0500524
0.0462834
0.0426521
0.0391591
0.0358039
0.0325856
0.0295024
0.0265521
0.0237315
0.0210373
0.0184652
0.0160107
0.0136685
0.011433
0.00929793
0.00725744
0.00530738
0.00342249
0.00151425
-0.00013604
0.00129016
0.00384898
0.00650338
0.0092986
0.0122271
0.0152685
0.0184117
0.021657
0.0250122
0.0284846
0.0320719
0.0357576
0.0395168
0.0433213
0.0471339
0.0508818
0.0544156
0.0575167
0.0600921
0.0621135
0.0637617
0.0650828
0.0662278
0.0673387
0.0683703
0.0693102
0.0701205
0.0707932
0.0713331
0.0718417
0.0725987
0.0737846
0.0753677
0.0769759
0.0785231
0.079827
0.0815857
0.083655
0.0863065
0.0894987
0.0925833
0.0968578
0.100077
0.105631
0.109044
0.113065
0.113206
0.115377
0.115579
0.118774
0.119892
0.122778
0.124177
0.12595
0.127113
0.128222
0.129101
0.129765
0.130182
0.130257
0.130138
0.129505
0.128873
0.127493
0.126155
0.123968
0.121821
0.118387
0.113488
0.107616
0.101871
0.096623
0.0914327
0.0863497
0.0813583
0.0764795
0.0717203
0.0670896
0.0625941
0.0582389
0.0540277
0.049963
0.0460466
0.0422791
0.0386603
0.0351895
0.0318649
0.0286843
0.025645
0.0227435
0.0199765
0.0173402
0.014831
0.0124456
0.0101813
0.00803611
0.00601504
0.00412314
0.00227197
0.000417346
0.00128269
0.00385556
0.00654822
0.00935333
0.0122702
0.0152987
0.01843
0.021651
0.0249546
0.0283422
0.0318158
0.0353674
0.0389775
0.0426201
0.0462601
0.0498307
0.0532109
0.0562196
0.0588061
0.0609452
0.0627785
0.0643784
0.0658509
0.0673118
0.0687157
0.0700303
0.0712161
0.0722561
0.0731516
0.0740042
0.075123
0.0766822
0.0786243
0.0805665
0.0824022
0.0839789
0.0860009
0.0883916
0.0913812
0.0949097
0.0983724
0.102832
0.106447
0.111956
0.115742
0.119554
0.120115
0.122155
0.122977
0.126273
0.127921
0.130975
0.132637
0.134552
0.135844
0.137062
0.138037
0.138786
0.139271
0.139396
0.139288
0.138664
0.137939
0.136517
0.13498
0.132728
0.130401
0.126815
0.121669
0.115465
0.109355
0.103759
0.0982187
0.0927817
0.0874373
0.0822084
0.0771042
0.0721352
0.0673093
0.0626324
0.058109
0.0537424
0.0495345
0.0454865
0.0415984
0.0378696
0.0342987
0.0308836
0.0276218
0.0245102
0.0215456
0.0187248
0.0160442
0.0135003
0.0110895
0.00880638
0.00664658
0.00461511
0.00268419
0.000764587
0.00125351
0.00379222
0.00647351
0.00925219
0.0121195
0.0150879
0.0181631
0.0213365
0.024594
0.0279241
0.0313204
0.034777
0.0382825
0.0418174
0.045348
0.0488065
0.052085
0.0550397
0.0576428
0.059882
0.0618782
0.0637173
0.0654732
0.0672361
0.0689616
0.0706082
0.072136
0.0735217
0.0747612
0.0759521
0.0774314
0.079367
0.0816699
0.0839504
0.0860818
0.0879476
0.09024
0.0929585
0.0962857
0.100146
0.103972
0.108662
0.112658
0.11819
0.122311
0.125988
0.126893
0.128901
0.130267
0.133737
0.135925
0.139192
0.141142
0.14322
0.144662
0.146005
0.147092
0.147938
0.148501
0.148684
0.148593
0.147979
0.147172
0.1457
0.143984
0.141651
0.139148
0.135399
0.130012
0.123476
0.117005
0.11106
0.105167
0.0993716
0.0936697
0.0880855
0.0826304
0.0773166
0.0721534
0.0671479
0.0623053
0.0576295
0.0531231
0.0487874
0.0446229
0.0406292
0.0368049
0.0331479
0.0296555
0.0263245
0.0231513
0.0201317
0.0172613
0.0145355
0.0119491
0.0094965
0.00717104
0.00497077
0.0028959
0.000909875
0.00121956
0.00368557
0.00629144
0.00900504
0.0118102
0.0147073
0.0177026
0.0207974
0.0239843
0.0272503
0.0305815
0.0339685
0.0374009
0.040863
0.0443217
0.0477082
0.0509219
0.0538518
0.0564815
0.0588165
0.0609646
0.0630161
0.0650232
0.0670557
0.0690722
0.0710267
0.0728785
0.0745974
0.0761726
0.0776972
0.0795346
0.081845
0.0845119
0.087137
0.0895728
0.0917406
0.0943111
0.0973639
0.10103
0.105225
0.109412
0.114356
0.118725
0.124338
0.128772
0.132366
0.133601
0.135623
0.137471
0.141182
0.143923
0.147444
0.149705
0.151965
0.153577
0.15506
0.156274
0.157232
0.157884
0.158135
0.158069
0.15747
0.156594
0.155067
0.153191
0.150764
0.148091
0.144163
0.138543
0.131675
0.124843
0.118546
0.112294
0.106136
0.100071
0.0941248
0.0883119
0.082646
0.0771379
0.0717959
0.066626
0.061633
0.0568198
0.0521884
0.0477394
0.0434725
0.0393862
0.0354785
0.0317464
0.0281863
0.0247941
0.0215653
0.0184951
0.0155784
0.0128101
0.010185
0.00769751
0.00534138
0.00311369
0.00100402
0.00117828
0.00355052
0.00605273
0.00867394
0.0114009
0.0142226
0.0171354
0.0201401
0.0232363
0.0264185
0.0296763
0.0329975
0.0363708
0.0397765
0.0431787
0.0465108
0.0496808
0.052604
0.0552714
0.0577037
0.0599979
0.0622425
0.0644773
0.0667573
0.0690455
0.0712932
0.0734567
0.0754985
0.0774005
0.0792521
0.0814438
0.0841284
0.0871618
0.0901399
0.0928891
0.0953679
0.0982244
0.101614
0.105625
0.110162
0.114711
0.119921
0.124663
0.130409
0.135148
0.138724
0.14025
0.142319
0.144613
0.148624
0.151928
0.155745
0.158337
0.1608
0.162598
0.164238
0.165594
0.166677
0.167431
0.167761
0.167732
0.167155
0.166223
0.164642
0.162622
0.160092
0.15725
0.15314
0.147288
0.140088
0.13289
0.126236
0.119619
0.113092
0.106657
0.100342
0.0941628
0.0881365
0.0822748
0.0765874
0.0710814
0.0657622
0.0606334
0.0556973
0.0509548
0.0464058
0.0420489
0.0378818
0.0339015
0.0301041
0.0264854
0.0230406
0.0197647
0.0166524
0.013698
0.010896
0.00824017
0.00572371
0.0033394
0.00108306
0.00113241
0.00341287
0.0058182
0.00833662
0.0109622
0.0136891
0.0165115
0.0194252
0.0224283
0.0255197
0.0286954
0.0319468
0.0352589
0.0386076
0.0419547
0.0452381
0.0483771
0.0513058
0.0540197
0.0565492
0.0589817
0.0614027
0.063846
0.0663561
0.0689008
0.0714288
0.0738915
0.0762439
0.0784621
0.0806328
0.0831748
0.0862336
0.0896354
0.0929729
0.0960481
0.0988367
0.10199
0.105717
0.110079
0.114965
0.11988
0.125372
0.130492
0.136418
0.141459
0.145072
0.146845
0.148993
0.15171
0.156076
0.159955
0.164107
0.167049
0.169734
0.171736
0.173547
0.175062
0.176286
0.177156
0.177578
0.177598
0.177051
0.176078
0.174447
0.172299
0.16966
0.166649
0.162354
0.156274
0.148738
0.141168
0.134149
0.127162
0.120258
0.113445
0.106751
0.100198
0.0938018
0.087577
0.0815345
0.0756825
0.0700273
0.0645731
0.0593227
0.0542773
0.0494369
0.0448001
0.0403648
0.0361276
0.0320847
0.0282315
0.024563
0.0210738
0.0177582
0.0146102
0.0116235
0.0087916
0.00610771
0.00356377
0.00115628
0.00108862
0.00328501
0.00560259
0.0080213
0.0105387
0.0131581
0.0158795
0.0186991
0.0216131
0.0246193
0.0277144
0.0308909
0.0341335
0.0374179
0.0407076
0.0439466
0.0470643
0.0500054
0.052767
0.0553848
0.0579418
0.0605214
0.0631555
0.0658801
0.0686664
0.07146
0.0742069
0.0768559
0.0793783
0.08186
0.0847483
0.0881805
0.0919513
0.09565
0.099058
0.102162
0.105617
0.109682
0.114399
0.119642
0.124928
0.130722
0.136227
0.142374
0.147717
0.151407
0.153397
0.155643
0.158774
0.163546
0.168015
0.172541
0.175853
0.178779
0.181
0.182999
0.184688
0.186071
0.187071
0.1876
0.187683
0.187177
0.186179
0.184504
0.182244
0.179493
0.176313
0.171828
0.165528
0.157648
0.149698
0.142309
0.134942
0.127653
0.120452
0.113372
0.106433
0.0996567
0.0930583
0.08665
0.0804414
0.0744395
0.0686494
0.0630742
0.0577157
0.0525737
0.0476474
0.0429342
0.0384309
0.0341334
0.0300369
0.026136
0.0224253
0.0188985
0.0155494
0.0123713
0.00935752
0.00650089
0.00379295
0.00123011
0.00104775
0.00316118
0.00539198
0.00772053
0.0101434
0.0126645
0.0152879
0.0180139
0.0208407
0.0237648
0.0267811
0.0298807
0.0330502
0.0362686
0.0395033
0.0427042
0.0458059
0.0487576
0.0515565
0.0542443
0.0569066
0.0596272
0.0624362
0.0653609
0.0683735
0.0714165
0.0744306
0.0773607
0.0801748
0.0829592
0.0861886
0.0899912
0.0941285
0.0981869
0.10193
0.105354
0.109111
0.113514
0.118591
0.124194
0.129872
0.135982
0.141878
0.14828
0.153931
0.157734
0.159911
0.162263
0.165808
0.171038
0.17612
0.181058
0.184759
0.187945
0.190401
0.192604
0.194486
0.196043
0.197192
0.197842
0.198005
0.197551
0.196544
0.194836
0.192478
0.189615
0.186265
0.18159
0.175069
0.166841
0.158505
0.150736
0.142981
0.135297
0.127698
0.120219
0.112885
0.105717
0.0987333
0.0919477
0.0853708
0.0790108
0.0728733
0.0669622
0.0612794
0.0558252
0.0505986
0.0455973
0.040818
0.0362562
0.0319072
0.0277653
0.0238247
0.0200789
0.0165214
0.0131452
0.0099432
0.00690783
0.00403014
0.00130642
0.00100973
0.0030437
0.00519171
0.00743969
0.00978303
0.0122227
0.0147619
0.017403
0.0201463
0.0229892
0.0259265
0.0289503
0.0320499
0.0352079
0.0383943
0.041561
0.044645
0.0475968
0.0504156
0.0531532
0.0559032
0.0587506
0.0617216
0.064833
0.0680559
0.0713301
0.0745933
0.0777879
0.0808805
0.0839579
0.0875206
0.0916871
0.0961849
0.100598
0.104675
0.108419
0.112477
0.117222
0.122664
0.128639
0.134711
0.141158
0.147452
0.154139
0.160109
0.164059
0.166391
0.168847
0.172816
0.178562
0.184282
0.189668
0.193777
0.197242
0.19995
0.202374
0.204467
0.206217
0.207532
0.20832
0.208581
0.208194
0.207194
0.205463
0.203025
0.20005
0.196528
0.191671
0.18492
0.176341
0.16761
0.159454
0.1513
0.143211
0.135203
0.127314
0.119571
0.111999
0.104618
0.0974422
0.0904846
0.0837539
0.0772568
0.0709976
0.0649786
0.0592006
0.0536626
0.0483623
0.0432962
0.0384602
0.0338489
0.0294566
0.0252773
0.0213042
0.0175303
0.0139484
0.010551
0.00733006
0.00427617
0.00138553
0.000977013
0.00294369
0.00502057
0.00719666
0.00946845
0.0118366
0.0143033
0.0168698
0.0195366
0.0223023
0.0251643
0.0281179
0.0311552
0.0342602
0.0374027
0.0405344
0.0435934
0.0465336
0.0493593
0.0521345
0.0549626
0.0579277
0.0610493
0.0643326
0.0677473
0.0712328
0.0747253
0.0781669
0.0815235
0.0848819
0.0887667
0.0932866
0.0981345
0.102895
0.107301
0.111357
0.115725
0.120809
0.126624
0.132982
0.139455
0.146254
0.152954
0.15995
0.166255
0.170383
0.172843
0.175398
0.179808
0.186127
0.192514
0.198384
0.202918
0.206681
0.209657
0.21232
0.214643
0.216605
0.218106
0.21905
0.219427
0.219122
0.218147
0.216408
0.213906
0.210821
0.207125
0.202099
0.195106
0.186175
0.177041
0.168486
0.159923
0.151416
0.142987
0.134675
0.126511
0.118521
0.110729
0.103149
0.0957973
0.0886825
0.0818125
0.0751922
0.0688244
0.06271
0.0568484
0.0512374
0.0458734
0.0407521
0.0358681
0.0312155
0.0267879
0.0225783
0.0185794
0.0147836
0.0111828
0.00776898
0.00453185
0.00146765
0.000950226
0.0028626
0.00488078
0.00699425
0.00920109
0.0115035
0.0139037
0.0164025
0.019
0.0216967
0.0244926
0.0273858
0.0303693
0.033426
0.0365247
0.0396175
0.0426466
0.0455713
0.0484031
0.0512168
0.0541214
0.057197
0.0604552
0.0638916
0.0674763
0.0711507
0.0748517
0.078522
0.0821267
0.0857518
0.0899444
0.0948037
0.0999875
0.105085
0.109815
0.11418
0.118852
0.124278
0.130474
0.137226
0.144108
0.151274
0.158387
0.16571
0.172365
0.1767
0.179275
0.181933
0.186804
0.193748
0.200829
0.207216
0.212194
0.216273
0.219533
0.222454
0.225026
0.227221
0.228929
0.230051
0.230559
0.230356
0.229423
0.227689
0.225139
0.221956
0.218086
0.212899
0.205658
0.19637
0.186822
0.177858
0.168872
0.159935
0.151071
0.142323
0.133723
0.125302
0.117083
0.109086
0.101325
0.0938114
0.0865542
0.0795587
0.0728282
0.0663642
0.060166
0.0542315
0.0485574
0.0431391
0.0379712
0.0330475
0.0283613
0.0239054
0.0196722
0.0156535
0.011841
0.0082261
0.00479802
0.00155298
0.000927286
0.00279264
0.00476009
0.00681969
0.00896982
0.0112131
0.0135525
0.0159897
0.0185266
0.0211652
0.0239067
0.0267492
0.0296844
0.0326944
0.0357483