/*--------------------------------*- C++ -*----------------------------------*\
  =========                 |
  \\      /  F ield         | OpenFOAM: The Open Source CFD Toolbox
   \\    /   O peration     | Website:  https://openfoam.org
    \\  /    A nd           | Version:  9
     \\/     M anipulation  |
\*---------------------------------------------------------------------------*/
FoamFile
{
    format      ascii;
    class       surfaceScalarField;
    location    "0.19";
    object      phi;
}
// * * * * * * * * * * * * * * * * * * * * * * * * * * * * * * * * * * * * * //

dimensions      [0 3 -1 0 0 0 0];

internalField   nonuniform List<scalar> 
39700
(
-3.88437e-08
3.42629e-06
-3.86945e-08
3.59773e-06
-3.83702e-08
3.77936e-06
-3.78462e-08
3.97139e-06
-3.70504e-08
4.17479e-06
-3.58598e-08
4.391e-06
-3.40718e-08
4.62207e-06
-3.13485e-08
4.87094e-06
-2.71155e-08
5.14165e-06
-2.03661e-08
5.43974e-06
-9.28094e-09
5.77245e-06
9.58213e-09
6.14892e-06
4.31149e-08
6.58015e-06
1.05949e-07
7.07855e-06
2.316e-07
7.64884e-06
5.08879e-07
8.19294e-06
1.20375e-06
7.87774e-06
-4.43609e-07
1.25955e-06
-1.44592e-06
8.70953e-07
-5.59515e-07
8.39351e-06
-2.46326e-07
1.04484e-05
-1.29416e-07
1.08986e-05
-8.09894e-08
1.11625e-05
-6.0098e-08
1.15101e-05
-5.09589e-08
1.19365e-05
-4.6977e-08
1.24086e-05
-4.50434e-08
1.28929e-05
-4.34151e-08
1.33677e-05
-4.14792e-08
1.38624e-05
-3.9689e-08
1.44828e-05
-3.90033e-08
1.78668e-05
-4.06328e-08
1.80831e-05
-4.31338e-08
1.81084e-05
-4.305e-08
1.77698e-05
-4.02057e-08
1.71257e-05
-3.70082e-08
1.68907e-05
-3.28963e-08
1.75592e-05
-3.28774e-08
1.83288e-05
-3.5063e-08
1.87829e-05
-3.69888e-08
1.90117e-05
-3.83282e-08
1.91353e-05
-3.9433e-08
1.92067e-05
-4.14843e-08
1.92412e-05
-4.18865e-08
1.9194e-05
-2.46734e-08
1.87763e-05
4.16764e-08
1.60291e-05
-1.23907e-07
1.11075e-05
-5.96143e-08
1.59544e-05
-4.30837e-08
1.85858e-05
-4.44835e-08
1.88619e-05
-4.59863e-08
1.86745e-05
-4.59682e-08
1.83555e-05
-4.43555e-08
1.79408e-05
-4.20534e-08
1.75444e-05
-4.02171e-08
1.73801e-05
-3.90822e-08
1.75016e-05
-3.88907e-08
1.77232e-05
-3.92689e-08
1.78916e-05
-3.96821e-08
1.79831e-05
-3.99695e-08
1.8028e-05
-4.02816e-08
1.80516e-05
-4.07623e-08
1.80511e-05
-3.97616e-08
1.7963e-05
-2.80166e-08
1.75033e-05
2.22462e-09
1.58107e-05
-6.0039e-08
1.29123e-05
-7.17936e-08
1.39776e-05
-4.61688e-08
1.66343e-05
-4.04492e-08
1.77211e-05
-4.05449e-08
1.79621e-05
-4.08994e-08
1.46917e-05
-4.10266e-08
1.39828e-05
-4.10394e-08
1.33028e-05
-4.10205e-08
1.26566e-05
-4.09991e-08
1.2043e-05
-4.09812e-08
1.146e-05
-4.09667e-08
1.09058e-05
-4.0956e-08
1.0379e-05
-4.09501e-08
9.87822e-06
-4.09505e-08
9.40205e-06
-4.09582e-08
8.94911e-06
-4.09735e-08
8.51807e-06
-4.09958e-08
8.10765e-06
-4.10242e-08
7.71668e-06
-4.10571e-08
7.3441e-06
-4.10928e-08
6.98893e-06
-4.11296e-08
6.65028e-06
-4.11655e-08
6.32734e-06
-4.11988e-08
6.01936e-06
-4.12276e-08
5.72561e-06
-4.12494e-08
5.44541e-06
-4.12615e-08
5.17811e-06
-4.12605e-08
4.92306e-06
-4.12436e-08
4.67966e-06
-4.12095e-08
4.44735e-06
-4.11601e-08
4.22565e-06
-4.10962e-08
4.01417e-06
-4.1004e-08
3.81246e-06
-4.08513e-08
3.61959e-06
3.43377e-06
-3.48317e-08
3.42626e-06
-3.42349e-08
3.59714e-06
-3.301e-08
3.77813e-06
-3.10324e-08
3.96941e-06
-2.80676e-08
4.17183e-06
-2.37459e-08
4.38668e-06
-1.74905e-08
4.61582e-06
-8.39747e-09
4.86185e-06
4.96323e-09
5.1283e-06
2.48737e-08
5.41984e-06
5.50164e-08
5.74232e-06
1.01384e-07
6.10255e-06
1.73745e-07
6.50779e-06
2.8779e-07
6.9645e-06
4.67242e-07
7.46939e-06
7.4536e-07
7.91483e-06
1.16389e-06
7.45921e-06
-1.44296e-07
2.56774e-06
-1.25725e-06
1.9839e-06
-7.15202e-07
7.85146e-06
-4.29519e-07
1.01627e-05
-2.52449e-07
1.07215e-05
-1.5312e-07
1.10631e-05
-1.00511e-07
1.14575e-05
-7.34622e-08
1.19094e-05
-5.98077e-08
1.2395e-05
-5.24635e-08
1.28856e-05
-4.73271e-08
1.33625e-05
-4.28772e-08
1.38579e-05
-3.9416e-08
1.44793e-05
-3.80618e-08
1.78655e-05
-4.08777e-08
1.80859e-05
-4.48398e-08
1.81123e-05
-4.36676e-08
1.77686e-05
-3.80217e-08
1.712e-05
-3.18815e-08
1.68846e-05
-2.34596e-08
1.75508e-05
-2.20693e-08
1.83274e-05
-2.59854e-08
1.87868e-05
-3.04672e-08
1.90162e-05
-3.40074e-08
1.91388e-05
-3.65022e-08
1.92092e-05
-3.97516e-08
1.92445e-05
-3.69769e-08
1.91913e-05
3.24495e-09
1.8736e-05
8.25566e-08
1.59498e-05
-1.68335e-07
1.13584e-05
-9.41008e-08
1.58802e-05
-5.63887e-08
1.85481e-05
-5.31667e-08
1.88586e-05
-5.51631e-08
1.86765e-05
-5.43187e-08
1.83546e-05
-5.03693e-08
1.79368e-05
-4.53079e-08
1.75394e-05
-4.10711e-08
1.73759e-05
-3.81432e-08
1.74987e-05
-3.70949e-08
1.77222e-05
-3.74466e-08
1.7892e-05
-3.81578e-08
1.79838e-05
-3.86984e-08
1.80285e-05
-3.90436e-08
1.8052e-05
-3.8728e-08
1.80507e-05
-3.29983e-08
1.79572e-05
-7.89144e-09
1.74782e-05
3.07817e-08
1.5772e-05
-7.02801e-08
1.30134e-05
-9.9967e-08
1.40073e-05
-5.9465e-08
1.65938e-05
-4.43011e-08
1.77059e-05
-4.20416e-08
1.79598e-05
-4.2023e-08
1.46917e-05
-4.2061e-08
1.39828e-05
-4.20005e-08
1.33028e-05
-4.19047e-08
1.26565e-05
-4.18141e-08
1.20429e-05
-4.17403e-08
1.14599e-05
-4.16841e-08
1.09057e-05
-4.1645e-08
1.0379e-05
-4.16235e-08
9.8782e-06
-4.16209e-08
9.40205e-06
-4.16376e-08
8.94913e-06
-4.1673e-08
8.5181e-06
-4.17251e-08
8.1077e-06
-4.17907e-08
7.71675e-06
-4.18658e-08
7.34417e-06
-4.19462e-08
6.98901e-06
-4.20271e-08
6.65036e-06
-4.21042e-08
6.32742e-06
-4.21727e-08
6.01943e-06
-4.22278e-08
5.72566e-06
-4.22643e-08
5.44545e-06
-4.22766e-08
5.17812e-06
-4.22596e-08
4.92305e-06
-4.22103e-08
4.67961e-06
-4.21305e-08
4.44727e-06
-4.20268e-08
4.22554e-06
-4.19008e-08
4.01404e-06
-4.17249e-08
3.81228e-06
-4.14518e-08
3.61932e-06
3.43348e-06
-3.37894e-08
3.42597e-06
-3.28399e-08
3.59619e-06
-3.10159e-08
3.77631e-06
-2.81077e-08
3.9665e-06
-2.38084e-08
4.16752e-06
-1.76633e-08
4.38053e-06
-9.0002e-09
4.60716e-06
3.17331e-09
4.84967e-06
2.03218e-08
5.11114e-06
4.45937e-08
5.39556e-06
7.91022e-08
5.70781e-06
1.28255e-07
6.0534e-06
1.98106e-07
6.43793e-06
2.97058e-07
6.86555e-06
4.39917e-07
7.32653e-06
6.63953e-07
7.6908e-06
1.00686e-06
7.1163e-06
-2.43954e-09
3.57704e-06
-1.00432e-06
2.98579e-06
-6.37583e-07
7.48471e-06
-3.9724e-07
9.92234e-06
-2.59598e-07
1.05839e-05
-1.72316e-07
1.09758e-05
-1.17471e-07
1.14027e-05
-8.50682e-08
1.1877e-05
-6.69678e-08
1.23769e-05
-5.65039e-08
1.28751e-05
-4.91419e-08
1.33552e-05
-4.31316e-08
1.38519e-05
-3.87317e-08
1.44749e-05
-3.70915e-08
1.78638e-05
-4.05105e-08
1.80893e-05
-4.4912e-08
1.81167e-05
-4.26813e-08
1.77664e-05
-3.53242e-08
1.71127e-05
-2.75666e-08
1.68768e-05
-1.63827e-08
1.75396e-05
-1.37564e-08
1.83248e-05
-1.85674e-08
1.87916e-05
-2.47266e-08
1.90223e-05
-2.99101e-08
1.9144e-05
-3.3484e-08
1.92128e-05
-3.69143e-08
1.92479e-05
-3.47739e-08
1.91891e-05
1.92451e-08
1.8682e-05
9.96876e-08
1.58693e-05
-1.87561e-07
1.16456e-05
-1.15923e-07
1.58085e-05
-6.57544e-08
1.84979e-05
-6.21849e-08
1.88551e-05
-6.34847e-08
1.86778e-05
-6.1318e-08
1.83524e-05
-5.54915e-08
1.7931e-05
-4.84203e-08
1.75323e-05
-4.24055e-08
1.73699e-05
-3.79993e-08
1.74942e-05
-3.60483e-08
1.77202e-05
-3.60832e-08
1.7892e-05
-3.67503e-08
1.79845e-05
-3.71991e-08
1.8029e-05
-3.71519e-08
1.80519e-05
-3.59033e-08
1.80495e-05
-2.78404e-08
1.79492e-05
4.40039e-09
1.74459e-05
4.52854e-08
1.57311e-05
-7.4104e-08
1.31328e-05
-1.14764e-07
1.40479e-05
-6.79712e-08
1.6547e-05
-4.80108e-08
1.7686e-05
-4.40447e-08
1.79559e-05
-4.33749e-08
1.4691e-05
-4.30411e-08
1.39825e-05
-4.27638e-08
1.33025e-05
-4.25286e-08
1.26563e-05
-4.23389e-08
1.20427e-05
-4.21921e-08
1.14597e-05
-4.20825e-08
1.09056e-05
-4.20059e-08
1.03789e-05
-4.19608e-08
9.87816e-06
-4.19467e-08
9.40204e-06
-4.19628e-08
8.94915e-06
-4.20067e-08
8.51815e-06
-4.20746e-08
8.10777e-06
-4.21614e-08
7.71683e-06
-4.2261e-08
7.34427e-06
-4.23668e-08
6.98912e-06
-4.24724e-08
6.65047e-06
-4.2571e-08
6.32752e-06
-4.26564e-08
6.01951e-06
-4.27223e-08
5.72573e-06
-4.27621e-08
5.44549e-06
-4.27696e-08
5.17813e-06
-4.27393e-08
4.92302e-06
-4.26686e-08
4.67954e-06
-4.25605e-08
4.44716e-06
-4.24235e-08
4.22541e-06
-4.22627e-08
4.01388e-06
-4.20655e-08
3.81209e-06
-4.18286e-08
3.61908e-06
3.43332e-06
-3.79584e-08
3.42555e-06
-3.69483e-08
3.59518e-06
-3.50771e-08
3.77443e-06
-3.21259e-08
3.96355e-06
-2.78253e-08
4.16322e-06
-2.17987e-08
4.3745e-06
-1.35112e-08
4.59887e-06
-2.21633e-09
4.83838e-06
1.31247e-08
5.09581e-06
3.39492e-08
5.37474e-06
6.22364e-08
5.67952e-06
1.00731e-07
6.0149e-06
1.53341e-07
6.38532e-06
2.26392e-07
6.7925e-06
3.35206e-07
7.21772e-06
5.22273e-07
7.50373e-06
7.57167e-07
6.8814e-06
6.5449e-08
4.26876e-06
-7.4287e-07
3.7941e-06
-5.27751e-07
7.2696e-06
-3.11463e-07
9.70605e-06
-2.08501e-07
1.04809e-05
-1.47807e-07
1.09152e-05
-1.07379e-07
1.13622e-05
-8.15816e-08
1.18512e-05
-6.60466e-08
1.23613e-05
-5.62173e-08
1.28653e-05
-4.86122e-08
1.33476e-05
-4.20666e-08
1.38454e-05
-3.7251e-08
1.44701e-05
-3.56105e-08
1.78622e-05
-3.96551e-08
1.80934e-05
-4.45332e-08
1.81216e-05
-4.13742e-08
1.77632e-05
-3.26312e-08
1.71039e-05
-2.35429e-08
1.68677e-05
-1.02526e-08
1.75263e-05
-6.66582e-09
1.83212e-05
-1.22862e-08
1.87972e-05
-1.98719e-08
1.90299e-05
-2.64605e-08
1.91506e-05
-3.12853e-08
1.92176e-05
-3.58954e-08
1.92525e-05
-3.58287e-08
1.91891e-05
2.67611e-08
1.86194e-05
1.03453e-07
1.57927e-05
-1.9245e-07
1.19415e-05
-1.28972e-07
1.5745e-05
-7.17453e-08
1.84407e-05
-6.92562e-08
1.88526e-05
-7.07135e-08
1.86793e-05
-6.75395e-08
1.83493e-05
-6.00726e-08
1.79235e-05
-5.12451e-08
1.75235e-05
-4.3703e-08
1.73624e-05
-3.80602e-08
1.74886e-05
-3.53117e-08
1.77175e-05
-3.49973e-08
1.78917e-05
-3.55151e-08
1.7985e-05
-3.57786e-08
1.80293e-05
-3.54034e-08
1.80516e-05
-3.37602e-08
1.80478e-05
-2.47685e-08
1.79402e-05
1.21126e-08
1.7409e-05
5.25858e-08
1.56907e-05
-7.44695e-08
1.32599e-05
-1.2279e-07
1.40963e-05
-7.33244e-08
1.64976e-05
-5.02564e-08
1.76629e-05
-4.55065e-08
1.79511e-05
-4.44623e-08
1.46899e-05
-4.37963e-08
1.39818e-05
-4.3275e-08
1.3302e-05
-4.287e-08
1.26559e-05
-4.25604e-08
1.20424e-05
-4.2327e-08
1.14595e-05
-4.2154e-08
1.09054e-05
-4.20314e-08
1.03788e-05
-4.19544e-08
9.87808e-06
-4.19204e-08
9.402e-06
-4.19267e-08
8.94915e-06
-4.19694e-08
8.51819e-06
-4.20427e-08
8.10784e-06
-4.21398e-08
7.71693e-06
-4.22527e-08
7.34439e-06
-4.2373e-08
6.98924e-06
-4.24926e-08
6.65059e-06
-4.26033e-08
6.32763e-06
-4.26978e-08
6.01961e-06
-4.27686e-08
5.7258e-06
-4.28084e-08
5.44553e-06
-4.28104e-08
5.17813e-06
-4.27686e-08
4.92297e-06
-4.26806e-08
4.67945e-06
-4.25504e-08
4.44703e-06
-4.2389e-08
4.22525e-06
-4.2208e-08
4.0137e-06
-4.20124e-08
3.81189e-06
-4.18269e-08
3.61889e-06
3.43323e-06
-4.83366e-08
3.42513e-06
-4.75153e-08
3.59436e-06
-4.6022e-08
3.77294e-06
-4.36801e-08
3.96121e-06
-4.02936e-08
4.15984e-06
-3.56007e-08
4.36981e-06
-2.9245e-08
4.59251e-06
-2.07258e-08
4.82986e-06
-9.34691e-09
5.08443e-06
5.85755e-09
5.35954e-06
2.62559e-08
5.65912e-06
5.38612e-08
5.98728e-06
9.17673e-08
6.34742e-06
1.45594e-07
6.73868e-06
2.30471e-07
7.13285e-06
3.83623e-07
7.35059e-06
5.41725e-07
6.72331e-06
7.61891e-08
4.73428e-06
-5.34029e-07
4.40431e-06
-4.30159e-07
7.16574e-06
-2.36584e-07
9.51248e-06
-1.52156e-07
1.03965e-05
-1.09651e-07
1.08726e-05
-8.32962e-08
1.13359e-05
-6.72035e-08
1.18351e-05
-5.76583e-08
1.23518e-05
-5.11381e-08
1.28588e-05
-4.51618e-08
1.33416e-05
-3.92874e-08
1.38395e-05
-3.48155e-08
1.44657e-05
-3.36169e-08
1.7861e-05
-3.83443e-08
1.80981e-05
-4.36045e-08
1.81269e-05
-3.98342e-08
1.77594e-05
-3.00604e-08
1.70942e-05
-1.97512e-08
1.68574e-05
-5.13417e-09
1.75117e-05
-8.23003e-10
1.83169e-05
-7.04737e-09
1.88034e-05
-1.58693e-08
1.90387e-05
-2.37926e-08
1.91585e-05
-3.01101e-08
1.92239e-05
-3.6104e-08
1.92585e-05
-3.745e-08
1.91904e-05
2.86788e-08
1.85533e-05
9.42883e-08
1.5727e-05
-1.85774e-07
1.22216e-05
-1.36268e-07
1.56955e-05
-7.67829e-08
1.83812e-05
-7.45909e-08
1.88504e-05
-7.64707e-08
1.86811e-05
-7.27469e-08
1.83455e-05
-6.40627e-08
1.79149e-05
-5.38084e-08
1.75132e-05
-4.49705e-08
1.73535e-05
-3.82956e-08
1.74819e-05
-3.48464e-08
1.7714e-05
-3.41604e-08
1.7891e-05
-3.44849e-08
1.79853e-05
-3.45901e-08
1.80294e-05
-3.40451e-08
1.8051e-05
-3.21838e-08
1.8046e-05
-2.23139e-08
1.79303e-05
1.67513e-08
1.737e-05
5.20922e-08
1.56553e-05
-7.22378e-08
1.33842e-05
-1.24194e-07
1.41482e-05
-7.68485e-08
1.64502e-05
-5.17018e-08
1.76378e-05
-4.62535e-08
1.79457e-05
-4.49865e-08
1.46887e-05
-4.4111e-08
1.39809e-05
-4.34025e-08
1.33012e-05
-4.28456e-08
1.26553e-05
-4.24185e-08
1.2042e-05
-4.20955e-08
1.14592e-05
-4.18541e-08
1.09052e-05
-4.16798e-08
1.03786e-05
-4.15646e-08
9.87796e-06
-4.15037e-08
9.40194e-06
-4.14925e-08
8.94914e-06
-4.15254e-08
8.51822e-06
-4.15952e-08
8.10791e-06
-4.16932e-08
7.71703e-06
-4.18098e-08
7.3445e-06
-4.19353e-08
6.98936e-06
-4.20601e-08
6.65071e-06
-4.21751e-08
6.32775e-06
-4.22718e-08
6.0197e-06
-4.23421e-08
5.72587e-06
-4.23783e-08
5.44556e-06
-4.23729e-08
5.17813e-06
-4.23204e-08
4.92292e-06
-4.2219e-08
4.67935e-06
-4.20741e-08
4.44689e-06
-4.1899e-08
4.22507e-06
-4.17105e-08
4.01351e-06
-4.15254e-08
3.81171e-06
-4.13742e-08
3.61874e-06
3.43317e-06
-6.28633e-08
3.4248e-06
-6.22866e-08
3.59378e-06
-6.12714e-08
3.77192e-06
-5.96734e-08
3.95961e-06
-5.73534e-08
4.15752e-06
-5.41382e-08
4.36659e-06
-4.97835e-08
4.58816e-06
-4.39414e-08
4.82402e-06
-3.61168e-08
5.07661e-06
-2.55958e-08
5.34902e-06
-1.13352e-08
5.64486e-06
8.20879e-09
5.96775e-06
3.55648e-08
6.32006e-06
7.62378e-08
6.698e-06
1.46173e-07
7.06292e-06
2.76857e-07
7.21989e-06
3.89789e-07
6.61037e-06
5.8239e-08
5.06584e-06
-3.9982e-07
4.86237e-06
-3.52926e-07
7.11885e-06
-1.79399e-07
9.33896e-06
-1.04559e-07
1.03217e-05
-7.3912e-08
1.0842e-05
-5.78776e-08
1.13198e-05
-4.98048e-08
1.1827e-05
-4.5986e-08
1.2348e-05
-4.33068e-08
1.28561e-05
-3.96998e-08
1.3338e-05
-3.53024e-08
1.38351e-05
-3.16798e-08
1.4462e-05
-3.12268e-08
1.78605e-05
-3.66139e-08
1.81035e-05
-4.21809e-08
1.81324e-05
-3.82281e-08
1.77555e-05
-2.77581e-08
1.70837e-05
-1.63917e-08
1.68461e-05
-9.62303e-10
1.74963e-05
3.83125e-09
1.83121e-05
-2.83353e-09
1.88101e-05
-1.27007e-08
1.90486e-05
-2.18661e-08
1.91677e-05
-2.97333e-08
1.92318e-05
-3.69222e-08
1.92657e-05
-3.85965e-08
1.91921e-05
2.66906e-08
1.8488e-05
7.93449e-08
1.56744e-05
-1.75497e-07
1.24764e-05
-1.39202e-07
1.56592e-05
-8.12586e-08
1.83233e-05
-7.86804e-08
1.88478e-05
-8.09173e-08
1.86834e-05
-7.6976e-08
1.83416e-05
-6.74879e-08
1.79054e-05
-5.61492e-08
1.75019e-05
-4.62444e-08
1.73436e-05
-3.87028e-08
1.74744e-05
-3.46317e-08
1.771e-05
-3.35637e-08
1.789e-05
-3.36661e-08
1.79854e-05
-3.36267e-08
1.80293e-05
-3.29642e-08
1.80504e-05
-3.08456e-08
1.80439e-05
-2.00982e-08
1.79196e-05
1.88177e-08
1.73311e-05
4.73962e-08
1.56267e-05
-6.93231e-08
1.35009e-05
-1.21596e-07
1.42005e-05
-7.84086e-08
1.6407e-05
-5.24103e-08
1.76118e-05
-4.63309e-08
1.79396e-05
-4.49008e-08
1.46872e-05
-4.38989e-08
1.39799e-05
-4.30631e-08
1.33004e-05
-4.23887e-08
1.26546e-05
-4.18609e-08
1.20414e-05
-4.14548e-08
1.14588e-05
-4.11461e-08
1.09049e-05
-4.0918e-08
1.03784e-05
-4.07606e-08
9.87781e-06
-4.06673e-08
9.40185e-06
-4.06321e-08
8.94911e-06
-4.06479e-08
8.51824e-06
-4.07059e-08
8.10797e-06
-4.07961e-08
7.71712e-06
-4.09078e-08
7.34462e-06
-4.10299e-08
6.98948e-06
-4.1152e-08
6.65084e-06
-4.12642e-08
6.32786e-06
-4.13573e-08
6.01979e-06
-4.14229e-08
5.72593e-06
-4.1453e-08
5.44559e-06
-4.14407e-08
5.17811e-06
-4.1381e-08
4.92286e-06
-4.12733e-08
4.67925e-06
-4.11248e-08
4.44674e-06
-4.09514e-08
4.2249e-06
-4.07751e-08
4.01334e-06
-4.06192e-08
3.81155e-06
-4.05106e-08
3.61863e-06
3.43314e-06
-7.89414e-08
3.42457e-06
-7.85772e-08
3.59342e-06
-7.79494e-08
3.7713e-06
-7.69576e-08
3.95862e-06
-7.55047e-08
4.15606e-06
-7.34662e-08
4.36455e-06
-7.06636e-08
4.58535e-06
-6.68422e-08
4.8202e-06
-6.16423e-08
5.07141e-06
-5.45391e-08
5.34191e-06
-4.4719e-08
5.63502e-06
-3.08761e-08
5.95391e-06
-1.06674e-08
6.29986e-06
2.20702e-08
6.66526e-06
8.43982e-08
7.0006e-06
1.9982e-07
7.10447e-06
2.81943e-07
6.52825e-06
3.33702e-08
5.31442e-06
-3.14641e-07
5.21037e-06
-2.94206e-07
7.09841e-06
-1.3793e-07
9.18269e-06
-6.66193e-08
1.02504e-05
-4.33299e-08
1.08187e-05
-3.53741e-08
1.13119e-05
-3.35101e-08
1.18252e-05
-3.4251e-08
1.23487e-05
-3.49728e-08
1.28568e-05
-3.38029e-08
1.33368e-05
-3.09005e-08
1.38322e-05
-2.82424e-08
1.44594e-05
-2.8606e-08
1.78609e-05
-3.46154e-08
1.81095e-05
-4.04983e-08
1.81383e-05
-3.66388e-08
1.77516e-05
-2.58253e-08
1.70729e-05
-1.35367e-08
1.68338e-05
2.45444e-09
1.74803e-05
7.53386e-09
1.8307e-05
4.86329e-10
1.88171e-05
-1.03043e-08
1.90594e-05
-2.06125e-08
1.9178e-05
-3.00181e-08
1.92412e-05
-3.85233e-08
1.92742e-05
-3.9709e-08
1.91933e-05
2.24416e-08
1.84259e-05
6.32821e-08
1.56336e-05
-1.6553e-07
1.27053e-05
-1.39411e-07
1.56331e-05
-8.47671e-08
1.82686e-05
-8.17285e-08
1.88448e-05
-8.43662e-08
1.8686e-05
-8.04641e-08
1.83377e-05
-7.04626e-08
1.78954e-05
-5.82962e-08
1.74897e-05
-4.75015e-08
1.73328e-05
-3.9218e-08
1.74661e-05
-3.45997e-08
1.77054e-05
-3.3167e-08
1.78885e-05
-3.30395e-08
1.79853e-05
-3.2857e-08
1.80291e-05
-3.21004e-08
1.80496e-05
-2.97359e-08
1.80415e-05
-1.82801e-08
1.79081e-05
1.92196e-08
1.72936e-05
4.14694e-08
1.56045e-05
-6.65381e-08
1.36089e-05
-1.17305e-07
1.42513e-05
-7.82713e-08
1.6368e-05
-5.22174e-08
1.75857e-05
-4.57065e-08
1.79331e-05
-4.42085e-08
1.46858e-05
-4.31504e-08
1.39789e-05
-4.22353e-08
1.32995e-05
-4.14739e-08
1.26539e-05
-4.08642e-08
1.20408e-05
-4.03851e-08
1.14583e-05
-4.00131e-08
1.09045e-05
-3.97316e-08
1.03781e-05
-3.95298e-08
9.8776e-06
-3.94003e-08
9.40172e-06
-3.9336e-08
8.94904e-06
-3.93286e-08
8.51823e-06
-3.93683e-08
8.10801e-06
-3.94441e-08
7.71719e-06
-3.95443e-08
7.34472e-06
-3.96569e-08
6.9896e-06
-3.9771e-08
6.65095e-06
-3.98759e-08
6.32796e-06
-3.99623e-08
6.01988e-06
-4.00217e-08
5.72599e-06
-4.00461e-08
5.44562e-06
-4.00291e-08
5.1781e-06
-3.99663e-08
4.9228e-06
-3.98587e-08
4.67914e-06
-3.97149e-08
4.44659e-06
-3.95533e-08
4.22474e-06
-3.9399e-08
4.01318e-06
-3.92762e-08
3.81143e-06
-3.9201e-08
3.61856e-06
3.43312e-06
-9.43746e-08
3.42442e-06
-9.41658e-08
3.59321e-06
-9.38189e-08
3.77096e-06
-9.32621e-08
3.95807e-06
-9.24266e-08
4.15523e-06
-9.12249e-08
4.36335e-06
-8.95271e-08
4.58365e-06
-8.71396e-08
4.81782e-06
-8.37742e-08
5.06806e-06
-7.89898e-08
5.33713e-06
-7.20773e-08
5.62811e-06
-6.18085e-08
5.94364e-06
-4.55658e-08
6.28361e-06
-1.63087e-08
6.63599e-06
4.26661e-08
6.94163e-06
1.44992e-07
7.00214e-06
2.03377e-07
6.46986e-06
1.09048e-08
5.50689e-06
-2.56485e-07
5.47776e-06
-2.49805e-07
7.09173e-06
-1.10443e-07
9.04333e-06
-3.99837e-08
1.01799e-05
-2.00919e-08
1.07988e-05
-1.71666e-08
1.1309e-05
-1.97723e-08
1.18278e-05
-2.40463e-08
1.2353e-05
-2.74641e-08
1.28603e-05
-2.82601e-08
1.33376e-05
-2.67167e-08
1.38307e-05
-2.49213e-08
1.44576e-05
-2.60143e-08
1.7862e-05
-3.26024e-08
1.81161e-05
-3.88821e-08
1.81446e-05
-3.53069e-08
1.77481e-05
-2.4328e-08
1.70619e-05
-1.1204e-08
1.68206e-05
5.26124e-09
1.74638e-05
1.05191e-08
1.83018e-05
3.08707e-09
1.88246e-05
-8.5846e-09
1.90711e-05
-1.99767e-08
1.91894e-05
-3.08594e-08
1.92521e-05
-4.05387e-08
1.92839e-05
-4.1289e-08
1.9194e-05
1.70267e-08
1.83675e-05
4.77701e-08
1.56028e-05
-1.56578e-07
1.29096e-05
-1.38099e-07
1.56146e-05
-8.71251e-08
1.82177e-05
-8.38694e-08
1.88415e-05
-8.70674e-08
1.86892e-05
-8.34176e-08
1.83341e-05
-7.30991e-08
1.7885e-05
-6.02798e-08
1.74769e-05
-4.87176e-08
1.73213e-05
-3.97793e-08
1.74572e-05
-3.46779e-08
1.77003e-05
-3.2917e-08
1.78868e-05
-3.25783e-08
1.79849e-05
-3.22702e-08
1.80288e-05
-3.14588e-08
1.80488e-05
-2.89091e-08
1.80389e-05
-1.69357e-08
1.78961e-05
1.87226e-08
1.72579e-05
3.55707e-08
1.55876e-05
-6.39067e-08
1.37084e-05
-1.1238e-07
1.42997e-05
-7.69116e-08
1.63325e-05
-5.11201e-08
1.75599e-05
-4.43668e-08
1.79263e-05
-4.29081e-08
1.46843e-05
-4.1868e-08
1.39778e-05
-4.09184e-08
1.32985e-05
-4.00973e-08
1.26531e-05
-3.94225e-08
1.20402e-05
-3.88799e-08
1.14577e-05
-3.84498e-08
1.09041e-05
-3.81164e-08
1.03777e-05
-3.78694e-08
9.87736e-06
-3.7701e-08
9.40155e-06
-3.76038e-08
8.94895e-06
-3.75688e-08
8.5182e-06
-3.75856e-08
8.10802e-06
-3.76423e-08
7.71725e-06
-3.77266e-08
7.3448e-06
-3.78261e-08
6.9897e-06
-3.79291e-08
6.65105e-06
-3.80248e-08
6.32806e-06
-3.81036e-08
6.01996e-06
-3.8157e-08
5.72605e-06
-3.81773e-08
5.44564e-06
-3.81584e-08
5.17808e-06
-3.80972e-08
4.92274e-06
-3.79956e-08
4.67904e-06
-3.78645e-08
4.44646e-06
-3.77245e-08
4.2246e-06
-3.76026e-08
4.01306e-06
-3.75212e-08
3.81135e-06
-3.74861e-08
3.61852e-06
3.43312e-06
-1.07809e-07
3.42432e-06
-1.07698e-07
3.5931e-06
-1.07526e-07
3.77079e-06
-1.07245e-07
3.95778e-06
-1.06799e-07
4.15478e-06
-1.06113e-07
4.36265e-06
-1.05074e-07
4.58261e-06
-1.03513e-07
4.81626e-06
-1.01171e-07
5.06571e-06
-9.76177e-08
5.33357e-06
-9.21107e-08
5.6226e-06
-8.33137e-08
5.93485e-06
-6.83238e-08
6.26863e-06
-3.97718e-08
6.60745e-06
1.72984e-08
6.88457e-06
1.07084e-07
6.91234e-06
1.47094e-07
6.42983e-06
-5.53344e-09
5.65952e-06
-2.14059e-07
5.6863e-06
-2.16224e-07
7.0939e-06
-9.42087e-08
8.92131e-06
-2.34093e-08
1.01091e-05
-4.18721e-09
1.07796e-05
-4.00061e-09
1.13088e-05
-9.39557e-09
1.18332e-05
-1.60727e-08
1.23597e-05
-2.14504e-08
1.28656e-05
-2.37413e-08
1.33399e-05
-2.32245e-08
1.38301e-05
-2.20773e-08
1.44564e-05
-2.37375e-08
1.78636e-05
-3.08247e-08
1.81232e-05
-3.7506e-08
1.81513e-05
-3.43029e-08
1.77449e-05
-2.32683e-08
1.70509e-05
-9.41628e-09
1.68068e-05
7.49737e-09
1.74469e-05
1.29099e-08
1.82964e-05
5.08937e-09
1.88324e-05
-7.45602e-09
1.90836e-05
-1.99213e-08
1.92019e-05
-3.22096e-08
1.92644e-05
-4.34834e-08
1.92952e-05
-4.34254e-08
1.91939e-05
1.09838e-08
1.83131e-05
3.35725e-08
1.55802e-05
-1.48533e-07
1.30917e-05
-1.35876e-07
1.5602e-05
-8.84403e-08
1.81702e-05
-8.52952e-08
1.88384e-05
-8.92112e-08
1.86931e-05
-8.59664e-08
1.83308e-05
-7.54677e-08
1.78745e-05
-6.21263e-08
1.74636e-05
-4.98938e-08
1.7309e-05
-4.03675e-08
1.74476e-05
-3.48286e-08
1.76947e-05
-3.27776e-08
1.78847e-05
-3.22592e-08
1.79844e-05
-3.18547e-08
1.80284e-05
-3.10274e-08
1.8048e-05
-2.83525e-08
1.80363e-05
-1.60365e-08
1.78838e-05
1.77217e-08
1.72241e-05
3.01915e-08
1.55752e-05
-6.12339e-08
1.37998e-05
-1.07151e-07
1.43457e-05
-7.46634e-08
1.63e-05
-4.92329e-08
1.75345e-05
-4.23742e-08
1.79195e-05
-4.09979e-08
1.46829e-05
-4.00582e-08
1.39769e-05
-3.91144e-08
1.32976e-05
-3.82583e-08
1.26522e-05
-3.75332e-08
1.20394e-05
-3.69359e-08
1.14571e-05
-3.64518e-08
1.09036e-05
-3.60681e-08
1.03774e-05
-3.57753e-08
9.87706e-06
-3.55662e-08
9.40134e-06
-3.54333e-08
8.94881e-06
-3.53675e-08
8.51813e-06
-3.5358e-08
8.10801e-06
-3.53924e-08
7.71729e-06
-3.54579e-08
7.34487e-06
-3.55418e-08
6.98978e-06
-3.5632e-08
6.65114e-06
-3.57176e-08
6.32814e-06
-3.57888e-08
6.02003e-06
-3.58372e-08
5.72609e-06
-3.58553e-08
5.44566e-06
-3.58377e-08
5.17806e-06
-3.57821e-08
4.92268e-06
-3.56922e-08
4.67895e-06
-3.55803e-08
4.44635e-06
-3.54687e-08
4.22448e-06
-3.53839e-08
4.01298e-06
-3.53434e-08
3.81131e-06
-3.53427e-08
3.61852e-06
3.43313e-06
-1.18389e-07
3.42425e-06
-1.18316e-07
3.59303e-06
-1.18212e-07
3.77069e-06
-1.18037e-07
3.95761e-06
-1.17742e-07
4.15448e-06
-1.17245e-07
4.36216e-06
-1.16433e-07
4.58181e-06
-1.15133e-07
4.81497e-06
-1.13075e-07
5.06366e-06
-1.09803e-07
5.33028e-06
-1.04531e-07
5.61732e-06
-9.5813e-08
5.92614e-06
-8.05044e-08
6.25332e-06
-5.12976e-08
6.57823e-06
3.95881e-09
6.82932e-06
8.18465e-08
6.83446e-06
1.08068e-07
6.40361e-06
-1.56403e-08
5.78323e-06
-1.81989e-07
5.85265e-06
-1.91302e-07
7.10321e-06
-8.68135e-08
8.81682e-06
-1.67066e-08
1.0039e-05
3.89275e-09
1.0759e-05
3.53423e-09
1.13091e-05
-3.00764e-09
1.18397e-05
-1.092e-08
1.23676e-05
-1.74105e-08
1.28721e-05
-2.0602e-08
1.33431e-05
-2.07218e-08
1.38303e-05
-1.99687e-08
1.44557e-05
-2.20027e-08
1.78657e-05
-2.94767e-08
1.81306e-05
-3.65108e-08
1.81583e-05
-3.36539e-08
1.7742e-05
-2.26091e-08
1.70398e-05
-8.15669e-09
1.67923e-05
9.17373e-09
1.74296e-05
1.47508e-08
1.82908e-05
6.55216e-09
1.88406e-05
-6.85524e-09
1.9097e-05
-2.03976e-08
1.92154e-05
-3.39665e-08
1.9278e-05
-4.67314e-08
1.93079e-05
-4.57013e-08
1.91929e-05
4.66276e-09
1.82628e-05
2.11598e-08
1.55637e-05
-1.41197e-07
1.32541e-05
-1.33085e-07
1.55939e-05
-8.89916e-08
1.81261e-05
-8.62387e-08
1.88356e-05
-9.09736e-08
1.86979e-05
-8.82137e-08
1.8328e-05
-7.76188e-08
1.78639e-05
-6.38511e-08
1.74498e-05
-5.1033e-08
1.72962e-05
-4.09739e-08
1.74376e-05
-3.50417e-08
1.76888e-05
-3.27337e-08
1.78824e-05
-3.2066e-08
1.79837e-05
-3.15927e-08
1.80279e-05
-3.07796e-08
1.80471e-05
-2.80345e-08
1.80335e-05
-1.55315e-08
1.78713e-05
1.64351e-08
1.71922e-05
2.55964e-08
1.5566e-05
-5.83248e-08
1.38837e-05
-1.01693e-07
1.4389e-05
-7.17421e-08
1.62701e-05
-4.66982e-08
1.75094e-05
-3.97944e-08
1.79126e-05
-3.85948e-08
1.46817e-05
-3.77513e-08
1.3976e-05
-3.6833e-08
1.32967e-05
-3.59591e-08
1.26513e-05
-3.51944e-08
1.20387e-05
-3.45485e-08
1.14565e-05
-3.40138e-08
1.09031e-05
-3.35805e-08
1.03769e-05
-3.32413e-08
9.87673e-06
-3.29898e-08
9.40109e-06
-3.28189e-08
8.94864e-06
-3.27196e-08
8.51803e-06
-3.2681e-08
8.10798e-06
-3.26906e-08
7.7173e-06
-3.27352e-08
7.34491e-06
-3.28019e-08
6.98985e-06
-3.28782e-08
6.65122e-06
-3.29531e-08
6.32822e-06
-3.30168e-08
6.02009e-06
-3.30608e-08
5.72614e-06
-3.3078e-08
5.44567e-06
-3.30634e-08
5.17805e-06
-3.30157e-08
4.92263e-06
-3.29394e-08
4.67887e-06
-3.28482e-08
4.44626e-06
-3.27647e-08
4.2244e-06
-3.27131e-08
4.01292e-06
-3.27052e-08
3.8113e-06
-3.27299e-08
3.61855e-06
3.43316e-06
-1.25773e-07
3.42418e-06
-1.25695e-07
3.59295e-06
-1.25573e-07
3.77057e-06
-1.25369e-07
3.95741e-06
-1.25033e-07
4.15413e-06
-1.24481e-07
4.36159e-06
-1.23583e-07
4.58091e-06
-1.2215e-07
4.81355e-06
-1.19892e-07
5.06141e-06
-1.16329e-07
5.32672e-06
-1.10631e-07
5.61162e-06
-1.01248e-07
5.91676e-06
-8.48976e-08
6.23696e-06
-5.47192e-08
6.54805e-06
-1.69132e-09
6.77629e-06
6.53005e-08
6.76747e-06
8.15343e-08
6.38738e-06
-2.10682e-08
5.88583e-06
-1.57727e-07
5.98931e-06
-1.73411e-07
7.1189e-06
-8.57696e-08
8.72918e-06
-1.74966e-08
9.97072e-06
5.27936e-09
1.07362e-05
5.86786e-09
1.13085e-05
-5.82317e-10
1.18462e-05
-8.72299e-09
1.23757e-05
-1.55284e-08
1.28789e-05
-1.90278e-08
1.33466e-05
-1.93654e-08
1.38306e-05
-1.87375e-08
1.4455e-05
-2.09496e-08
1.78679e-05
-2.86918e-08
1.81384e-05
-3.59953e-08
1.81656e-05
-3.33884e-08
1.77394e-05
-2.23019e-08
1.70287e-05
-7.35776e-09
1.67774e-05
1.0326e-08
1.74119e-05
1.60652e-08
1.82851e-05
7.50497e-09
1.88492e-05
-6.73716e-09
1.91113e-05
-2.13391e-08
1.923e-05
-3.61375e-08
1.92928e-05
-5.01634e-08
1.93219e-05
-4.88603e-08
1.91916e-05
-1.77919e-09
1.82157e-05
1.05977e-08
1.55513e-05
-1.34443e-07
1.33991e-05
-1.30043e-07
1.55895e-05
-8.91531e-08
1.80853e-05
-8.69495e-08
1.88334e-05
-9.25302e-08
1.87034e-05
-9.02666e-08
1.83258e-05
-7.96041e-08
1.78533e-05
-6.54635e-08
1.74356e-05
-5.21308e-08
1.72829e-05
-4.16036e-08
1.74271e-05
-3.53177e-08
1.76825e-05
-3.27816e-08
1.78799e-05
-3.19894e-08
1.7983e-05
-3.14701e-08
1.80274e-05
-3.0698e-08
1.80464e-05
-2.79389e-08
1.80308e-05
-1.53652e-08
1.78587e-05
1.50223e-08
1.71618e-05
2.18839e-08
1.55591e-05
-5.50838e-08
1.39607e-05
-9.60421e-08
1.443e-05
-6.83273e-08
1.62424e-05
-4.36697e-08
1.74848e-05
-3.67319e-08
1.79056e-05
-3.56857e-08
1.46807e-05
-3.49689e-08
1.39753e-05
-3.40911e-08
1.32958e-05
-3.32072e-08
1.26504e-05
-3.24076e-08
1.20379e-05
-3.17159e-08
1.14558e-05
-3.11314e-08
1.09025e-05
-3.06482e-08
1.03764e-05
-3.02612e-08
9.87634e-06
-2.99652e-08
9.40079e-06
-2.97541e-08
8.94843e-06
-2.9619e-08
8.5179e-06
-2.95491e-08
8.10791e-06
-2.95318e-08
7.71728e-06
-2.95538e-08
7.34493e-06
-2.96018e-08
6.9899e-06
-2.96633e-08
6.65128e-06
-2.9727e-08
6.32828e-06
-2.97829e-08
6.02015e-06
-2.98225e-08
5.72618e-06
-2.98387e-08
5.44569e-06
-2.9827e-08
5.17803e-06
-2.97862e-08
4.92259e-06
-2.97218e-08
4.67881e-06
-2.9648e-08
4.44618e-06
-2.95864e-08
4.22434e-06
-2.95585e-08
4.0129e-06
-2.95717e-08
3.81131e-06
-2.96113e-08
3.61859e-06
3.43319e-06
-1.3023e-07
3.42411e-06
-1.30113e-07
3.59284e-06
-1.29925e-07
3.77037e-06
-1.29618e-07
3.9571e-06
-1.29121e-07
4.15364e-06
-1.28348e-07
4.36083e-06
-1.27176e-07
4.57974e-06
-1.25409e-07
4.81178e-06
-1.2273e-07
5.05872e-06
-1.18629e-07
5.32261e-06
-1.12235e-07
5.60522e-06
-1.01927e-07
5.90646e-06
-8.44108e-08
6.21946e-06
-5.35418e-08
6.51718e-06
-3.27079e-09
6.72601e-06
5.40425e-08
6.71016e-06
6.31019e-08
6.37832e-06
-2.41205e-08
5.97305e-06
-1.39922e-07
6.10511e-06
-1.61078e-07
7.14005e-06
-8.88154e-08
8.65692e-06
-2.33837e-08
9.90528e-06
1.74222e-09
1.07111e-05
4.09281e-09
1.13062e-05
-1.49838e-09
1.18518e-05
-9.17489e-09
1.23834e-05
-1.56926e-08
1.28854e-05
-1.89992e-08
1.33499e-05
-1.91742e-08
1.38308e-05
-1.84224e-08
1.44543e-05
-2.06433e-08
1.78701e-05
-2.85532e-08
1.81463e-05
-3.6029e-08
1.81731e-05
-3.35269e-08
1.77369e-05
-2.23025e-08
1.70175e-05
-6.93958e-09
1.6762e-05
1.10041e-08
1.7394e-05
1.68729e-08
1.82792e-05
7.96553e-09
1.88581e-05
-7.08505e-09
1.91263e-05
-2.27098e-08
1.92456e-05
-3.89501e-08
1.9309e-05
-5.39441e-08
1.93369e-05
-5.27382e-08
1.91904e-05
-8.23942e-09
1.81712e-05
1.61615e-09
1.55415e-05
-1.28329e-07
1.35291e-05
-1.27091e-07
1.55882e-05
-8.93149e-08
1.80475e-05
-8.76777e-08
1.88318e-05
-9.40502e-08
1.87098e-05
-9.22317e-08
1.8324e-05
-8.14787e-08
1.78425e-05
-6.69762e-08
1.74211e-05
-5.31815e-08
1.72691e-05
-4.22496e-08
1.74161e-05
-3.56579e-08
1.76759e-05
-3.29223e-08
1.78771e-05
-3.20251e-08
1.79821e-05
-3.14799e-08
1.80269e-05
-3.07756e-08
1.80457e-05
-2.80547e-08
1.8028e-05
-1.54779e-08
1.78462e-05
1.35918e-08
1.71327e-05
1.89898e-08
1.55537e-05
-5.1562e-08
1.40313e-05
-9.02712e-08
1.44687e-05
-6.45782e-08
1.62167e-05
-4.02876e-08
1.74605e-05
-3.32799e-08
1.78986e-05
-3.23571e-08
1.46797e-05
-3.17485e-08
1.39747e-05
-3.09082e-08
1.3295e-05
-3.00134e-08
1.26495e-05
-2.91781e-08
1.2037e-05
-2.84393e-08
1.14551e-05
-2.78033e-08
1.09018e-05
-2.7268e-08
1.03759e-05
-2.68306e-08
9.8759e-06
-2.64876e-08
9.40045e-06
-2.62336e-08
8.94818e-06
-2.60603e-08
8.51772e-06
-2.5957e-08
8.1078e-06
-2.5911e-08
7.71723e-06
-2.59087e-08
7.34493e-06
-2.59368e-08
6.98992e-06
-2.59824e-08
6.65133e-06
-2.60339e-08
6.32833e-06
-2.60811e-08
6.0202e-06
-2.61154e-08
5.72621e-06
-2.61295e-08
5.4457e-06
-2.61186e-08
5.17802e-06
-2.60819e-08
4.92256e-06
-2.6025e-08
4.67875e-06
-2.59618e-08