/*--------------------------------*- C++ -*----------------------------------*\
  =========                 |
  \\      /  F ield         | OpenFOAM: The Open Source CFD Toolbox
   \\    /   O peration     | Website:  https://openfoam.org
    \\  /    A nd           | Version:  9
     \\/     M anipulation  |
\*---------------------------------------------------------------------------*/
FoamFile
{
    format      ascii;
    class       volScalarField;
    location    "0.19";
    object      rAU;
}
// * * * * * * * * * * * * * * * * * * * * * * * * * * * * * * * * * * * * * //

dimensions      [-1 3 1 0 0 0 0];

internalField   nonuniform List<scalar> 
20000
(
1.18756e-05
1.14213e-05
1.15009e-05
1.15721e-05
1.1635e-05
1.16891e-05
1.17335e-05
1.17666e-05
1.17861e-05
1.1789e-05
1.17714e-05
1.17251e-05
1.16396e-05
1.1508e-05
1.13265e-05
1.11421e-05
1.14312e-05
2.08432e-05
2.09007e-05
1.19097e-05
1.12256e-05
1.13674e-05
1.15512e-05
1.16745e-05
1.17564e-05
1.18205e-05
1.18856e-05
1.1962e-05
1.20367e-05
1.20707e-05
1.20442e-05
1.19769e-05
1.19686e-05
1.20776e-05
1.22916e-05
1.23725e-05
1.21484e-05
1.19003e-05
1.17583e-05
1.16879e-05
1.16501e-05
1.16285e-05
1.16183e-05
1.16318e-05
1.17599e-05
1.2663e-05
1.4727e-05
1.26836e-05
1.18168e-05
1.17329e-05
1.17908e-05
1.18903e-05
1.20226e-05
1.21521e-05
1.22067e-05
1.21665e-05
1.20937e-05
1.20389e-05
1.20094e-05
1.1995e-05
1.19875e-05
1.19878e-05
1.2016e-05
1.21655e-05
1.2748e-05
1.38948e-05
1.34434e-05
1.2454e-05
1.20938e-05
1.20142e-05
1.19889e-05
1.19882e-05
1.19918e-05
1.19943e-05
1.19954e-05
1.1995e-05
1.19933e-05
1.199e-05
1.19851e-05
1.19785e-05
1.19702e-05
1.19601e-05
1.19483e-05
1.19347e-05
1.19191e-05
1.19016e-05
1.1882e-05
1.186e-05
1.18356e-05
1.18084e-05
1.17781e-05
1.17446e-05
1.17075e-05
1.16666e-05
1.16215e-05
1.15718e-05
1.15169e-05
1.14563e-05
1.13902e-05
1.02511e-05
1.6455e-05
1.56022e-05
1.57604e-05
1.59063e-05
1.60401e-05
1.61623e-05
1.62727e-05
1.6371e-05
1.64529e-05
1.65075e-05
1.65327e-05
1.65298e-05
1.64932e-05
1.64165e-05
1.62972e-05
1.61847e-05
1.64895e-05
2.03251e-05
2.08887e-05
1.70313e-05
1.64123e-05
1.65311e-05
1.67004e-05
1.68198e-05
1.69027e-05
1.69685e-05
1.70328e-05
1.71043e-05
1.71731e-05
1.72128e-05
1.72176e-05
1.71679e-05
1.71605e-05
1.72452e-05
1.74093e-05
1.74711e-05
1.73041e-05
1.7113e-05
1.7001e-05
1.69448e-05
1.69144e-05
1.68968e-05
1.68879e-05
1.68997e-05
1.70121e-05
1.77047e-05
1.89898e-05
1.77014e-05
1.70448e-05
1.69757e-05
1.70205e-05
1.70986e-05
1.72018e-05
1.73019e-05
1.73441e-05
1.73141e-05
1.72587e-05
1.72166e-05
1.71938e-05
1.71826e-05
1.71768e-05
1.71771e-05
1.72005e-05
1.73223e-05
1.77592e-05
1.85134e-05
1.82215e-05
1.75312e-05
1.72586e-05
1.71936e-05
1.71491e-05
1.71357e-05
1.71281e-05
1.71186e-05
1.7107e-05
1.7093e-05
1.70767e-05
1.70577e-05
1.7036e-05
1.70112e-05
1.69832e-05
1.69519e-05
1.69169e-05
1.68782e-05
1.68354e-05
1.67883e-05
1.67364e-05
1.66795e-05
1.6617e-05
1.65486e-05
1.64736e-05
1.63917e-05
1.63023e-05
1.62048e-05
1.60986e-05
1.59831e-05
1.58575e-05
1.57211e-05
1.55737e-05
1.34988e-05
1.64568e-05
1.56045e-05
1.57638e-05
1.5911e-05
1.60467e-05
1.61712e-05
1.62848e-05
1.63843e-05
1.646e-05
1.65105e-05
1.65395e-05
1.65437e-05
1.652e-05
1.6466e-05
1.63848e-05
1.63321e-05
1.67255e-05
1.96179e-05
2.02371e-05
1.72831e-05
1.65384e-05
1.65958e-05
1.67303e-05
1.68328e-05
1.69081e-05
1.69706e-05
1.70338e-05
1.71053e-05
1.71744e-05
1.7214e-05
1.72182e-05
1.71673e-05
1.71595e-05
1.72457e-05
1.74113e-05
1.74737e-05
1.7308e-05
1.71154e-05
1.70019e-05
1.6945e-05
1.69145e-05
1.68969e-05
1.68877e-05
1.69006e-05
1.70217e-05
1.77205e-05
1.89055e-05
1.77143e-05
1.70517e-05
1.69743e-05
1.7018e-05
1.70971e-05
1.72016e-05
1.73024e-05
1.73448e-05
1.73149e-05
1.72592e-05
1.72168e-05
1.71939e-05
1.71828e-05
1.71771e-05
1.71778e-05
1.7203e-05
1.73306e-05
1.7768e-05
1.848e-05
1.82091e-05
1.75392e-05
1.72615e-05
1.71937e-05
1.71487e-05
1.71353e-05
1.71279e-05
1.71185e-05
1.71068e-05
1.70929e-05
1.70765e-05
1.70576e-05
1.70358e-05
1.7011e-05
1.69831e-05
1.69517e-05
1.69167e-05
1.6878e-05
1.68352e-05
1.6788e-05
1.67361e-05
1.66792e-05
1.66167e-05
1.65482e-05
1.64733e-05
1.63913e-05
1.63019e-05
1.62045e-05
1.60983e-05
1.59829e-05
1.58573e-05
1.5721e-05
1.55736e-05
1.34984e-05
1.64528e-05
1.56018e-05
1.57619e-05
1.59102e-05
1.60471e-05
1.6173e-05
1.62881e-05
1.63924e-05
1.64754e-05
1.65328e-05
1.65699e-05
1.6586e-05
1.65791e-05
1.65483e-05
1.65001e-05
1.65021e-05
1.69767e-05
1.91297e-05
1.96834e-05
1.74997e-05
1.6676e-05
1.66713e-05
1.67736e-05
1.68572e-05
1.69212e-05
1.69773e-05
1.70374e-05
1.71079e-05
1.71766e-05
1.72157e-05
1.7219e-05
1.71666e-05
1.71585e-05
1.72466e-05
1.74139e-05
1.74766e-05
1.73124e-05
1.71178e-05
1.70022e-05
1.69447e-05
1.6914e-05
1.68965e-05
1.6887e-05
1.69007e-05
1.70348e-05
1.77393e-05
1.88195e-05
1.7729e-05
1.70624e-05
1.69733e-05
1.70159e-05
1.7096e-05
1.72019e-05
1.73035e-05
1.7346e-05
1.7316e-05
1.72599e-05
1.72171e-05
1.71941e-05
1.71831e-05
1.71775e-05
1.71785e-05
1.72057e-05
1.73386e-05
1.77766e-05
1.84447e-05
1.81958e-05
1.75497e-05
1.72658e-05
1.71943e-05
1.71485e-05
1.71352e-05
1.71278e-05
1.71184e-05
1.71068e-05
1.70929e-05
1.70766e-05
1.70576e-05
1.70359e-05
1.70111e-05
1.69831e-05
1.69517e-05
1.69167e-05
1.68779e-05
1.68351e-05
1.67879e-05
1.6736e-05
1.66791e-05
1.66166e-05
1.65481e-05
1.64732e-05
1.63913e-05
1.63019e-05
1.62045e-05
1.60984e-05
1.5983e-05
1.58575e-05
1.57212e-05
1.55738e-05
1.34985e-05
1.64422e-05
1.55931e-05
1.57539e-05
1.59028e-05
1.60403e-05
1.61667e-05
1.62823e-05
1.6387e-05
1.64804e-05
1.65572e-05
1.6608e-05
1.6634e-05
1.66401e-05
1.66267e-05
1.66053e-05
1.66584e-05
1.71764e-05
1.88323e-05
1.92849e-05
1.76464e-05
1.68039e-05
1.67371e-05
1.68126e-05
1.68816e-05
1.69358e-05
1.69857e-05
1.70425e-05
1.71115e-05
1.71795e-05
1.72179e-05
1.72199e-05
1.7166e-05
1.71576e-05
1.72478e-05
1.74167e-05
1.74799e-05
1.7317e-05
1.71202e-05
1.70021e-05
1.69438e-05
1.69131e-05
1.68956e-05
1.68858e-05
1.69003e-05
1.705e-05
1.77585e-05
1.8739e-05
1.7743e-05
1.7075e-05
1.69725e-05
1.7014e-05
1.70955e-05
1.72027e-05
1.7305e-05
1.73476e-05
1.73173e-05
1.72607e-05
1.72174e-05
1.71942e-05
1.71833e-05
1.71779e-05
1.71793e-05
1.72085e-05
1.73479e-05
1.77858e-05
1.84103e-05
1.81821e-05
1.75613e-05
1.72712e-05
1.71952e-05
1.71487e-05
1.71353e-05
1.71279e-05
1.71186e-05
1.7107e-05
1.70931e-05
1.70767e-05
1.70578e-05
1.70361e-05
1.70113e-05
1.69833e-05
1.69519e-05
1.69169e-05
1.68781e-05
1.68353e-05
1.67881e-05
1.67362e-05
1.66793e-05
1.66168e-05
1.65484e-05
1.64735e-05
1.63916e-05
1.63023e-05
1.6205e-05
1.6099e-05
1.59836e-05
1.58581e-05
1.57218e-05
1.55744e-05
1.34991e-05
1.64273e-05
1.55805e-05
1.57418e-05
1.58912e-05
1.6029e-05
1.61557e-05
1.62714e-05
1.63761e-05
1.64694e-05
1.65508e-05
1.66197e-05
1.66696e-05
1.66915e-05
1.66916e-05
1.66927e-05
1.67889e-05
1.73209e-05
1.86381e-05
1.89969e-05
1.77329e-05
1.69169e-05
1.67932e-05
1.68439e-05
1.69014e-05
1.6948e-05
1.69931e-05
1.70473e-05
1.71152e-05
1.71826e-05
1.72202e-05
1.72207e-05
1.71652e-05
1.71566e-05
1.72492e-05
1.74197e-05
1.74833e-05
1.73217e-05
1.71214e-05
1.70007e-05
1.69424e-05
1.69116e-05
1.68941e-05
1.6884e-05
1.68998e-05
1.7066e-05
1.77756e-05
1.86664e-05
1.77545e-05
1.70882e-05
1.69721e-05
1.70124e-05
1.70954e-05
1.7204e-05
1.7307e-05
1.73495e-05
1.73189e-05
1.72616e-05
1.72177e-05
1.71943e-05
1.71835e-05
1.71783e-05
1.718e-05
1.72115e-05
1.73576e-05
1.77943e-05
1.83782e-05
1.81687e-05
1.75728e-05
1.72773e-05
1.71965e-05
1.7149e-05
1.71356e-05
1.71283e-05
1.71189e-05
1.71073e-05
1.70934e-05
1.70771e-05
1.70582e-05
1.70365e-05
1.70117e-05
1.69837e-05
1.69523e-05
1.69173e-05
1.68786e-05
1.68357e-05
1.67886e-05
1.67367e-05
1.66798e-05
1.66173e-05
1.6549e-05
1.64741e-05
1.63923e-05
1.63031e-05
1.62058e-05
1.60999e-05
1.59846e-05
1.58591e-05
1.57228e-05
1.55754e-05
1.35002e-05
1.64109e-05
1.55664e-05
1.57283e-05
1.5878e-05
1.60161e-05
1.6143e-05
1.62589e-05
1.63636e-05
1.6457e-05
1.65383e-05
1.66074e-05
1.66642e-05
1.67106e-05
1.6739e-05
1.67641e-05
1.68963e-05
1.74255e-05
1.85005e-05
1.87845e-05
1.77837e-05
1.70145e-05
1.68418e-05
1.68685e-05
1.69161e-05
1.69569e-05
1.69985e-05
1.7051e-05
1.71183e-05
1.71854e-05
1.72224e-05
1.72215e-05
1.71644e-05
1.71557e-05
1.72505e-05
1.74228e-05
1.7487e-05
1.73259e-05
1.7122e-05
1.69989e-05
1.69405e-05
1.69097e-05
1.68921e-05
1.68819e-05
1.68993e-05
1.70817e-05
1.77899e-05
1.86017e-05
1.77634e-05
1.71014e-05
1.69721e-05
1.7011e-05
1.70954e-05
1.72056e-05
1.73093e-05
1.73517e-05
1.73207e-05
1.72626e-05
1.72181e-05
1.71944e-05
1.71836e-05
1.71786e-05
1.71808e-05
1.72146e-05
1.73673e-05
1.78013e-05
1.83485e-05
1.81556e-05
1.75837e-05
1.72838e-05
1.71982e-05
1.71497e-05
1.71362e-05
1.71288e-05
1.71195e-05
1.71079e-05
1.7094e-05
1.70777e-05
1.70588e-05
1.70371e-05
1.70123e-05
1.69843e-05
1.69529e-05
1.6918e-05
1.68792e-05
1.68365e-05
1.67893e-05
1.67375e-05
1.66806e-05
1.66182e-05
1.65499e-05
1.64751e-05
1.63934e-05
1.63042e-05
1.6207e-05
1.61012e-05
1.59859e-05
1.58605e-05
1.57242e-05
1.55767e-05
1.35018e-05
1.63952e-05
1.5553e-05
1.57152e-05
1.58652e-05
1.60036e-05
1.61307e-05
1.62468e-05
1.63517e-05
1.64452e-05
1.65268e-05
1.65963e-05
1.6654e-05
1.67026e-05
1.67529e-05
1.68164e-05
1.69845e-05
1.75009e-05
1.83962e-05
1.86249e-05
1.78149e-05
1.70979e-05
1.68841e-05
1.68875e-05
1.69261e-05
1.69626e-05
1.70018e-05
1.70532e-05
1.71204e-05
1.71876e-05
1.72242e-05
1.72221e-05
1.71634e-05
1.71546e-05
1.72518e-05
1.7426e-05
1.74907e-05
1.73299e-05
1.71226e-05
1.69964e-05
1.69377e-05
1.69074e-05
1.68896e-05
1.68793e-05
1.68988e-05
1.70967e-05
1.78014e-05
1.85443e-05
1.77701e-05
1.71141e-05
1.69724e-05
1.70096e-05
1.70956e-05
1.72074e-05
1.73118e-05
1.73541e-05
1.73226e-05
1.72638e-05
1.72185e-05
1.71946e-05
1.71838e-05
1.7179e-05
1.71816e-05
1.72178e-05
1.73766e-05
1.7807e-05
1.83212e-05
1.81432e-05
1.75939e-05
1.72905e-05
1.72001e-05
1.71505e-05
1.71369e-05
1.71295e-05
1.71202e-05
1.71086e-05
1.70947e-05
1.70785e-05
1.70596e-05
1.70379e-05
1.70131e-05
1.69852e-05
1.69538e-05
1.69189e-05
1.68802e-05
1.68374e-05
1.67903e-05
1.67385e-05
1.66817e-05
1.66194e-05
1.65511e-05
1.64764e-05
1.63948e-05
1.63057e-05
1.62086e-05
1.61028e-05
1.59876e-05
1.58622e-05
1.57259e-05
1.55784e-05
1.35039e-05
1.63816e-05
1.55413e-05
1.57038e-05
1.58542e-05
1.59928e-05
1.61202e-05
1.62365e-05
1.63417e-05
1.64356e-05
1.65178e-05
1.65883e-05
1.66476e-05
1.66996e-05
1.67576e-05
1.68513e-05
1.70563e-05
1.75534e-05
1.83098e-05
1.84993e-05
1.78338e-05
1.71682e-05
1.69215e-05
1.6902e-05
1.69322e-05
1.69654e-05
1.7003e-05
1.70541e-05
1.71216e-05
1.71892e-05
1.72256e-05
1.72224e-05
1.71622e-05
1.71534e-05
1.72529e-05
1.7429e-05
1.74946e-05
1.73341e-05
1.71234e-05
1.69941e-05
1.69347e-05
1.69046e-05
1.68867e-05
1.68763e-05
1.68982e-05
1.71108e-05
1.78106e-05
1.84934e-05
1.77752e-05
1.71262e-05
1.69728e-05
1.70083e-05
1.70959e-05
1.72093e-05
1.73146e-05
1.73567e-05
1.73247e-05
1.7265e-05
1.72189e-05
1.71947e-05
1.7184e-05
1.71792e-05
1.71823e-05
1.7221e-05
1.73855e-05
1.78114e-05
1.82962e-05
1.81315e-05
1.76034e-05
1.72974e-05
1.72023e-05
1.71514e-05
1.71378e-05
1.71304e-05
1.71211e-05
1.71095e-05
1.70957e-05
1.70794e-05
1.70606e-05
1.70389e-05
1.70142e-05
1.69862e-05
1.69549e-05
1.692e-05
1.68814e-05
1.68386e-05
1.67916e-05
1.67399e-05
1.66831e-05
1.66209e-05
1.65527e-05
1.64781e-05
1.63966e-05
1.63076e-05
1.62105e-05
1.61048e-05
1.59896e-05
1.58642e-05
1.57279e-05
1.55804e-05
1.35065e-05
1.63711e-05
1.55323e-05
1.5695e-05
1.58456e-05
1.59846e-05
1.61123e-05
1.6229e-05
1.63347e-05
1.64293e-05
1.65125e-05
1.65843e-05
1.6646e-05
1.67022e-05
1.67688e-05
1.6885e-05
1.71144e-05
1.75886e-05
1.82355e-05
1.83973e-05
1.78437e-05
1.72264e-05
1.69547e-05
1.69133e-05
1.69353e-05
1.69657e-05
1.70025e-05
1.70536e-05
1.7122e-05
1.71902e-05
1.72266e-05
1.72225e-05
1.71608e-05
1.7152e-05
1.72538e-05
1.7432e-05
1.74985e-05
1.73384e-05
1.71243e-05
1.69917e-05
1.69314e-05
1.69015e-05
1.68833e-05
1.68728e-05
1.68977e-05
1.7124e-05
1.78178e-05
1.84482e-05
1.7779e-05
1.71376e-05
1.69734e-05
1.70069e-05
1.70961e-05
1.72114e-05
1.73175e-05
1.73595e-05
1.73269e-05
1.72663e-05
1.72194e-05
1.71949e-05
1.71841e-05
1.71795e-05
1.71831e-05
1.72242e-05
1.73939e-05
1.78148e-05
1.82733e-05
1.81206e-05
1.76124e-05
1.73044e-05
1.72046e-05
1.71526e-05
1.71388e-05
1.71315e-05
1.71222e-05
1.71106e-05
1.70968e-05
1.70806e-05
1.70617e-05
1.70401e-05
1.70154e-05
1.69875e-05
1.69563e-05
1.69214e-05
1.68828e-05
1.68401e-05
1.67932e-05
1.67415e-05
1.66848e-05
1.66227e-05
1.65546e-05
1.64801e-05
1.63986e-05
1.63097e-05
1.62128e-05
1.61072e-05
1.59921e-05
1.58667e-05
1.57304e-05
1.55829e-05
1.35097e-05
1.63637e-05
1.5526e-05
1.56889e-05
1.58398e-05
1.59792e-05
1.61073e-05
1.62245e-05
1.63309e-05
1.64263e-05
1.65107e-05
1.65843e-05
1.66487e-05
1.67096e-05
1.67848e-05
1.69176e-05
1.71616e-05
1.76114e-05
1.81743e-05
1.83157e-05
1.78461e-05
1.72736e-05
1.69843e-05
1.69225e-05
1.69358e-05
1.69639e-05
1.70005e-05
1.70521e-05
1.71215e-05
1.71907e-05
1.72273e-05
1.72223e-05
1.71592e-05
1.71504e-05
1.72546e-05
1.74349e-05
1.75024e-05
1.73428e-05
1.71255e-05
1.69895e-05
1.6928e-05
1.6898e-05
1.68795e-05
1.68689e-05
1.68973e-05
1.71356e-05
1.78229e-05
1.8408e-05
1.77817e-05
1.71483e-05
1.69739e-05
1.70053e-05
1.70962e-05
1.72135e-05
1.73205e-05
1.73624e-05
1.73293e-05
1.72677e-05
1.722e-05
1.7195e-05
1.71842e-05
1.71797e-05
1.71837e-05
1.72273e-05
1.74019e-05
1.78174e-05
1.82523e-05
1.81104e-05
1.76209e-05
1.73114e-05
1.7207e-05
1.71537e-05
1.71399e-05
1.71326e-05
1.71234e-05
1.71119e-05
1.70981e-05
1.70819e-05
1.70631e-05
1.70415e-05
1.70169e-05
1.69891e-05
1.69578e-05
1.69231e-05
1.68845e-05
1.68419e-05
1.6795e-05
1.67434e-05
1.66868e-05
1.66248e-05
1.65568e-05
1.64824e-05
1.64011e-05
1.63123e-05
1.62154e-05
1.61099e-05
1.59949e-05
1.58695e-05
1.57333e-05
1.55858e-05
1.35136e-05
1.63593e-05
1.55222e-05
1.56854e-05
1.58366e-05
1.59763e-05
1.61049e-05
1.62227e-05
1.63298e-05
1.64262e-05
1.65119e-05
1.65874e-05
1.66547e-05
1.67204e-05
1.6804e-05
1.69488e-05
1.72005e-05
1.76259e-05
1.81224e-05
1.82474e-05
1.78425e-05
1.73114e-05
1.7011e-05
1.69306e-05
1.6936e-05
1.69617e-05
1.69976e-05
1.70499e-05
1.71205e-05
1.71908e-05
1.72277e-05
1.72219e-05
1.71574e-05
1.71486e-05
1.72553e-05
1.74377e-05
1.75064e-05
1.73473e-05
1.71268e-05
1.69872e-05
1.69244e-05
1.68942e-05
1.68753e-05
1.68646e-05
1.68966e-05
1.71454e-05
1.78259e-05
1.83721e-05
1.77834e-05
1.71582e-05
1.69742e-05
1.70035e-05
1.70962e-05
1.72157e-05
1.73237e-05
1.73656e-05
1.73318e-05
1.72692e-05
1.72206e-05
1.71952e-05
1.71844e-05
1.71798e-05
1.71844e-05
1.72303e-05
1.74095e-05
1.78195e-05
1.82331e-05
1.81009e-05
1.76289e-05
1.73184e-05
1.72096e-05
1.7155e-05
1.71411e-05
1.7134e-05
1.71248e-05
1.71134e-05
1.70996e-05
1.70835e-05
1.70647e-05
1.70432e-05
1.70186e-05
1.69908e-05
1.69597e-05
1.6925e-05
1.68865e-05
1.6844e-05
1.67971e-05
1.67457e-05
1.66892e-05
1.66272e-05
1.65593e-05
1.6485e-05
1.64038e-05
1.63152e-05
1.62185e-05
1.6113e-05
1.59981e-05
1.58728e-05
1.57366e-05
1.55892e-05
1.35181e-05
1.63573e-05
1.55207e-05
1.56841e-05
1.58355e-05
1.59756e-05
1.61046e-05
1.6223e-05
1.63309e-05
1.64283e-05
1.65153e-05
1.65927e-05
1.66629e-05
1.67334e-05
1.68245e-05
1.69783e-05
1.72333e-05
1.76351e-05
1.80773e-05
1.81882e-05
1.78341e-05
1.73413e-05
1.70353e-05
1.69385e-05
1.69354e-05
1.69586e-05
1.69942e-05
1.70472e-05
1.71191e-05
1.71906e-05
1.72279e-05
1.72213e-05
1.71553e-05
1.71467e-05
1.72558e-05
1.74406e-05
1.75104e-05
1.73518e-05
1.71282e-05
1.6985e-05
1.69206e-05
1.689e-05
1.68708e-05
1.68601e-05
1.68958e-05
1.71547e-05
1.78264e-05
1.83379e-05
1.77842e-05
1.71672e-05
1.69743e-05
1.70015e-05
1.70961e-05
1.72179e-05
1.7327e-05
1.73688e-05
1.73344e-05
1.72707e-05
1.72212e-05
1.71954e-05
1.71844e-05
1.71799e-05
1.71849e-05
1.72334e-05
1.74168e-05
1.78213e-05
1.82155e-05
1.80919e-05
1.76365e-05
1.73253e-05
1.72122e-05
1.71564e-05
1.71424e-05
1.71354e-05
1.71264e-05
1.7115e-05
1.71013e-05
1.70852e-05
1.70665e-05
1.70451e-05
1.70205e-05
1.69928e-05
1.69618e-05
1.69271e-05
1.68887e-05
1.68463e-05
1.67995e-05
1.67482e-05
1.66918e-05
1.66299e-05
1.65622e-05
1.6488e-05
1.6407e-05
1.63185e-05
1.62219e-05
1.61166e-05
1.60017e-05
1.58766e-05
1.57404e-05
1.55931e-05
1.35233e-05
1.63573e-05
1.55207e-05
1.56843e-05
1.58361e-05
1.59765e-05
1.6106e-05
1.62249e-05
1.63335e-05
1.64318e-05
1.65202e-05
1.65994e-05
1.66724e-05
1.67474e-05
1.68453e-05
1.7006e-05
1.72614e-05
1.76409e-05
1.80374e-05
1.81354e-05
1.78225e-05
1.73652e-05
1.70577e-05
1.69465e-05
1.69349e-05
1.69554e-05
1.69905e-05
1.70443e-05
1.71176e-05
1.71902e-05
1.72279e-05
1.72206e-05
1.71531e-05
1.71445e-05
1.72562e-05
1.74434e-05
1.75145e-05
1.73564e-05
1.71297e-05
1.69828e-05
1.69166e-05
1.68855e-05
1.68658e-05
1.68551e-05
1.68948e-05
1.71635e-05
1.78266e-05
1.83069e-05
1.77841e-05
1.71754e-05
1.69742e-05
1.69993e-05
1.7096e-05
1.72201e-05
1.73304e-05
1.73721e-05
1.7337e-05
1.72723e-05
1.72218e-05
1.71955e-05
1.71845e-05
1.718e-05
1.71854e-05
1.72363e-05
1.74239e-05
1.78228e-05
1.81994e-05
1.80836e-05
1.76436e-05
1.73323e-05
1.7215e-05
1.71578e-05
1.71438e-05
1.7137e-05
1.71281e-05
1.71168e-05
1.71031e-05
1.70871e-05
1.70685e-05
1.70471e-05
1.70227e-05
1.69951e-05
1.69641e-05
1.69295e-05
1.68912e-05
1.68489e-05
1.68023e-05
1.6751e-05
1.66947e-05
1.6633e-05
1.65654e-05
1.64914e-05
1.64105e-05
1.63221e-05
1.62257e-05
1.61205e-05
1.60058e-05
1.58808e-05
1.57447e-05
1.55975e-05
1.35291e-05
1.63586e-05
1.5522e-05
1.56858e-05
1.58378e-05
1.59785e-05
1.61084e-05
1.62279e-05
1.63371e-05
1.64364e-05
1.6526e-05
1.6607e-05
1.66826e-05
1.67618e-05
1.68655e-05
1.70316e-05
1.72855e-05
1.76441e-05
1.80013e-05
1.80878e-05
1.78092e-05
1.73843e-05
1.70784e-05
1.69549e-05
1.69349e-05
1.69523e-05
1.69868e-05
1.70413e-05
1.7116e-05
1.71899e-05
1.72279e-05
1.72197e-05
1.71508e-05
1.71423e-05
1.72566e-05
1.74462e-05
1.75185e-05
1.7361e-05
1.71313e-05
1.69806e-05
1.69124e-05
1.68807e-05
1.68606e-05
1.68497e-05
1.68936e-05
1.71719e-05
1.78266e-05
1.82789e-05
1.77832e-05
1.71828e-05
1.69739e-05
1.69969e-05
1.70957e-05
1.72224e-05
1.73339e-05
1.73756e-05
1.73398e-05
1.72739e-05
1.72225e-05
1.71957e-05
1.71845e-05
1.71799e-05
1.71859e-05
1.72393e-05
1.74307e-05
1.78242e-05
1.81847e-05
1.80757e-05
1.76504e-05
1.73392e-05
1.72179e-05
1.71594e-05
1.71453e-05
1.71387e-05
1.71299e-05
1.71187e-05
1.71052e-05
1.70893e-05
1.70708e-05
1.70495e-05
1.70251e-05
1.69976e-05
1.69667e-05
1.69322e-05
1.6894e-05
1.68518e-05
1.68053e-05
1.67541e-05
1.6698e-05
1.66364e-05
1.6569e-05
1.64951e-05
1.64144e-05
1.63262e-05
1.62299e-05
1.61249e-05
1.60103e-05
1.58854e-05
1.57494e-05
1.56023e-05
1.35354e-05
1.63608e-05
1.5524e-05
1.5688e-05
1.58402e-05
1.59812e-05
1.61115e-05
1.62315e-05
1.63414e-05
1.64415e-05
1.65323e-05
1.66149e-05
1.6693e-05
1.67761e-05
1.68849e-05
1.70545e-05
1.73057e-05
1.76453e-05
1.79686e-05
1.80448e-05
1.77952e-05
1.73999e-05
1.70977e-05
1.69637e-05
1.69354e-05
1.69494e-05
1.69833e-05
1.70385e-05
1.71145e-05
1.71896e-05
1.72278e-05
1.72188e-05
1.71483e-05
1.714e-05
1.7257e-05
1.74491e-05
1.75225e-05
1.73657e-05
1.71331e-05
1.69785e-05
1.69081e-05
1.68756e-05
1.6855e-05
1.6844e-05
1.68924e-05
1.718e-05
1.78264e-05
1.82535e-05
1.77818e-05
1.71894e-05
1.69735e-05
1.69943e-05
1.70953e-05
1.72247e-05
1.73374e-05
1.73791e-05
1.73425e-05
1.72756e-05
1.72231e-05
1.71959e-05
1.71845e-05
1.71799e-05
1.71863e-05
1.72423e-05
1.74374e-05
1.78255e-05
1.81712e-05
1.80684e-05
1.7657e-05
1.73462e-05
1.72209e-05
1.71611e-05
1.71469e-05
1.71405e-05
1.71319e-05
1.71209e-05
1.71074e-05
1.70916e-05
1.70732e-05
1.7052e-05
1.70278e-05
1.70003e-05
1.69695e-05
1.69352e-05
1.68971e-05
1.6855e-05
1.68086e-05
1.67576e-05
1.67016e-05
1.66402e-05
1.65729e-05
1.64993e-05
1.64187e-05
1.63307e-05
1.62346e-05
1.61297e-05
1.60153e-05
1.58904e-05
1.57545e-05
1.56074e-05
1.35421e-05
1.63634e-05
1.55265e-05
1.56906e-05
1.58431e-05
1.59844e-05
1.61151e-05
1.62355e-05
1.6346e-05
1.64469e-05
1.65387e-05
1.66229e-05
1.67035e-05
1.67901e-05
1.69031e-05
1.70745e-05
1.73222e-05
1.7645e-05
1.79387e-05
1.8006e-05
1.77812e-05
1.74127e-05
1.71156e-05
1.69726e-05
1.69364e-05
1.69468e-05
1.69799e-05
1.70358e-05
1.71131e-05
1.71893e-05
1.72278e-05
1.72179e-05
1.71457e-05
1.71377e-05
1.72574e-05
1.74519e-05
1.75265e-05
1.73703e-05
1.71349e-05
1.69763e-05
1.69037e-05
1.68702e-05
1.6849e-05
1.6838e-05
1.68911e-05
1.71879e-05
1.78259e-05
1.82304e-05
1.77799e-05
1.71954e-05
1.69729e-05
1.69916e-05
1.70949e-05
1.72271e-05
1.73411e-05
1.73827e-05
1.73454e-05
1.72773e-05
1.72238e-05
1.7196e-05
1.71845e-05
1.71798e-05
1.71868e-05
1.72453e-05
1.74439e-05
1.78266e-05
1.81588e-05
1.80618e-05
1.76634e-05
1.73532e-05
1.72241e-05
1.71628e-05
1.71487e-05
1.71425e-05
1.71341e-05
1.71232e-05
1.71099e-05
1.70942e-05
1.70759e-05
1.70548e-05
1.70307e-05
1.70033e-05
1.69726e-05
1.69384e-05
1.69004e-05
1.68585e-05
1.68123e-05
1.67614e-05
1.67056e-05
1.66444e-05
1.65773e-05
1.65038e-05
1.64234e-05
1.63356e-05
1.62397e-05
1.6135e-05
1.60206e-05
1.58958e-05
1.576e-05
1.56132e-05
1.35483e-05
1.63663e-05
1.55291e-05
1.56935e-05
1.58461e-05
1.59877e-05
1.61188e-05
1.62396e-05
1.63507e-05
1.64524e-05
1.65452e-05
1.66309e-05
1.67137e-05
1.68035e-05
1.692e-05
1.70923e-05
1.73359e-05
1.76433e-05
1.79113e-05
1.7971e-05
1.77674e-05
1.74232e-05
1.7132e-05
1.69816e-05
1.69377e-05
1.69445e-05
1.69767e-05
1.70332e-05
1.71118e-05
1.71891e-05
1.72278e-05
1.7217e-05
1.71431e-05
1.71353e-05
1.72577e-05
1.74547e-05
1.75305e-05
1.7375e-05
1.71368e-05
1.69742e-05
1.6899e-05
1.68645e-05
1.68428e-05
1.68318e-05
1.68897e-05
1.71955e-05
1.78253e-05
1.82096e-05
1.77778e-05
1.72009e-05
1.69722e-05
1.69888e-05
1.70945e-05
1.72295e-05
1.73449e-05
1.73864e-05
1.73483e-05
1.7279e-05
1.72245e-05
1.71962e-05
1.71845e-05
1.71797e-05
1.71873e-05
1.72485e-05
1.74502e-05
1.78276e-05
1.81476e-05
1.80559e-05
1.76698e-05
1.73604e-05
1.72275e-05
1.71648e-05
1.71505e-05
1.71446e-05
1.71365e-05
1.71257e-05
1.71124e-05
1.70962e-05
1.70772e-05
1.70553e-05
1.70305e-05
1.70025e-05
1.69712e-05
1.69364e-05
1.68979e-05
1.68556e-05
1.6809e-05
1.67579e-05
1.67018e-05
1.66403e-05
1.6573e-05
1.64993e-05
1.64186e-05
1.63305e-05
1.62343e-05
1.61293e-05
1.60147e-05
1.58897e-05
1.57537e-05
1.56065e-05
1.64747e-05
1.63692e-05
1.55318e-05
1.56963e-05
1.58492e-05
1.5991e-05
1.61224e-05
1.62437e-05
1.63553e-05
1.64577e-05
1.65515e-05
1.66386e-05
1.67235e-05
1.68163e-05
1.69357e-05
1.7108e-05
1.73472e-05
1.76386e-05
1.78841e-05
1.79392e-05
1.7754e-05
1.74316e-05
1.71469e-05
1.69904e-05
1.69393e-05
1.69423e-05
1.69737e-05
1.70307e-05
1.71107e-05
1.71891e-05
1.72279e-05
1.72161e-05
1.71405e-05
1.71329e-05
1.72581e-05
1.74575e-05
1.75345e-05
1.73798e-05
1.71388e-05
1.6972e-05
1.68943e-05
1.68586e-05
1.68363e-05
1.68254e-05
1.68884e-05
1.72029e-05
1.78249e-05
1.81906e-05
1.77754e-05
1.72058e-05
1.69713e-05
1.69858e-05
1.7094e-05
1.7232e-05
1.73487e-05
1.73902e-05
1.73512e-05
1.72808e-05
1.72252e-05
1.71964e-05
1.71845e-05
1.71797e-05
1.71879e-05
1.72517e-05
1.74564e-05
1.78285e-05
1.81373e-05
1.80507e-05
1.76761e-05
1.73676e-05
1.7231e-05
1.71665e-05
1.71517e-05
1.71455e-05
1.71367e-05
1.7125e-05
1.71108e-05
1.70942e-05
1.70749e-05
1.70528e-05
1.70277e-05
1.69995e-05
1.6968e-05
1.6933e-05
1.68943e-05
1.68517e-05
1.68049e-05
1.67535e-05
1.66972e-05
1.66355e-05
1.6568e-05
1.6494e-05
1.64132e-05
1.6325e-05
1.62286e-05
1.61234e-05
1.60086e-05
1.58835e-05
1.57474e-05
1.55998e-05
1.64643e-05
1.63719e-05
1.55343e-05
1.5699e-05
1.58521e-05
1.59942e-05
1.61259e-05
1.62476e-05
1.63597e-05
1.64627e-05
1.65575e-05
1.6646e-05
1.67329e-05
1.68283e-05
1.69501e-05
1.71217e-05
1.73566e-05
1.76318e-05
1.78575e-05
1.79101e-05
1.77409e-05
1.74382e-05
1.71604e-05
1.69988e-05
1.6941e-05
1.69403e-05
1.69707e-05
1.70284e-05
1.71097e-05
1.71892e-05
1.72281e-05
1.72152e-05
1.71379e-05
1.71305e-05
1.72584e-05
1.74603e-05
1.75384e-05
1.73846e-05
1.7141e-05
1.69694e-05
1.68888e-05
1.68524e-05
1.68295e-05
1.68189e-05
1.68873e-05
1.72101e-05
1.78245e-05
1.81733e-05
1.77727e-05
1.721e-05
1.69701e-05
1.69827e-05
1.70934e-05
1.72346e-05
1.73527e-05
1.73941e-05
1.73543e-05
1.72826e-05
1.7226e-05
1.71966e-05
1.71846e-05
1.71797e-05
1.71886e-05
1.72551e-05
1.74624e-05
1.78294e-05
1.8128e-05
1.80462e-05
1.76824e-05
1.73749e-05
1.72332e-05
1.7165e-05
1.71498e-05
1.71438e-05
1.7135e-05
1.71232e-05
1.71088e-05
1.70919e-05
1.70725e-05
1.70502e-05
1.70249e-05
1.69964e-05
1.69646e-05
1.69293e-05
1.68904e-05
1.68475e-05
1.68004e-05
1.67488e-05
1.66923e-05
1.66304e-05
1.65626e-05
1.64884e-05
1.64074e-05
1.63189e-05
1.62224e-05
1.6117e-05
1.6002e-05
1.58767e-05
1.57403e-05
1.55922e-05
1.64539e-05
1.63744e-05
1.55366e-05
1.57014e-05
1.58547e-05
1.59971e-05
1.61291e-05
1.62512e-05
1.63638e-05
1.64675e-05
1.65632e-05
1.6653e-05
1.67418e-05
1.68396e-05
1.69632e-05
1.71338e-05
1.73625e-05
1.7623e-05
1.78328e-05
1.78832e-05
1.7728e-05
1.74431e-05
1.71724e-05
1.70068e-05
1.69427e-05
1.69384e-05
1.69678e-05
1.70261e-05
1.71087e-05
1.71893e-05
1.72283e-05
1.72144e-05
1.71352e-05
1.7128e-05
1.72587e-05
1.74631e-05
1.75425e-05
1.73895e-05
1.71432e-05
1.69667e-05
1.68832e-05
1.6846e-05
1.68225e-05
1.68123e-05
1.68862e-05
1.72171e-05
1.78242e-05
1.81575e-05
1.77698e-05
1.72137e-05
1.69687e-05
1.69794e-05
1.70928e-05
1.72372e-05
1.73568e-05
1.73981e-05
1.73574e-05
1.72845e-05
1.72268e-05
1.71968e-05
1.71846e-05
1.71797e-05
1.71893e-05
1.72585e-05
1.74684e-05
1.78303e-05
1.81197e-05
1.80423e-05
1.76887e-05
1.73816e-05
1.72348e-05
1.71635e-05
1.71479e-05
1.71419e-05
1.71331e-05
1.71212e-05
1.71067e-05
1.70896e-05
1.70699e-05
1.70473e-05
1.70218e-05
1.6993e-05
1.6961e-05
1.69254e-05
1.68862e-05
1.6843e-05
1.67957e-05
1.67438e-05
1.6687e-05
1.66248e-05
1.65568e-05
1.64824e-05
1.64012e-05
1.63124e-05
1.62156e-05
1.611e-05
1.59948e-05
1.58692e-05
1.57325e-05
1.55841e-05
1.64439e-05
1.63765e-05
1.55386e-05
1.57036e-05
1.58571e-05
1.59998e-05
1.61321e-05
1.62545e-05
1.63676e-05
1.64719e-05
1.65684e-05
1.66595e-05
1.67501e-05
1.685e-05
1.69752e-05
1.71444e-05
1.73658e-05
1.76131e-05
1.78099e-05
1.78583e-05
1.77152e-05
1.74466e-05
1.71831e-05
1.70144e-05
1.69444e-05
1.69365e-05
1.69649e-05
1.70239e-05
1.71079e-05
1.71896e-05
1.72287e-05
1.72136e-05
1.71326e-05
1.71256e-05
1.72589e-05
1.74659e-05
1.75466e-05
1.73938e-05
1.71449e-05
1.69639e-05
1.68773e-05
1.68394e-05
1.68153e-05
1.68056e-05
1.68851e-05
1.7224e-05
1.78239e-05
1.8143e-05
1.77665e-05
1.72166e-05
1.6967e-05
1.69759e-05
1.70922e-05
1.72399e-05
1.7361e-05
1.74022e-05
1.73606e-05
1.72864e-05
1.72276e-05
1.71971e-05
1.71847e-05
1.71797e-05
1.71901e-05
1.7262e-05
1.74742e-05
1.78312e-05
1.81122e-05
1.8039e-05
1.76951e-05
1.73876e-05
1.72357e-05
1.71619e-05
1.7146e-05
1.714e-05
1.71312e-05
1.71192e-05
1.71044e-05
1.70871e-05
1.70672e-05
1.70444e-05
1.70185e-05
1.69895e-05
1.69571e-05
1.69213e-05
1.68817e-05
1.68383e-05
1.67907e-05
1.67385e-05
1.66814e-05
1.66189e-05
1.65506e-05
1.6476e-05
1.63945e-05
1.63055e-05
1.62084e-05
1.61024e-05
1.59869e-05
1.5861e-05
1.57241e-05
1.55754e-05
1.64336e-05
1.63782e-05
1.55402e-05
1.57054e-05
1.58591e-05
1.6002e-05
1.61346e-05
1.62574e-05
1.6371e-05
1.64759e-05
1.65733e-05
1.66656e-05
1.67579e-05
1.68597e-05
1.69861e-05
1.71536e-05
1.73681e-05
1.76032e-05
1.77884e-05
1.78349e-05
1.77028e-05
1.7449e-05
1.71926e-05
1.70216e-05
1.69462e-05
1.69347e-05
1.69621e-05
1.70217e-05
1.71071e-05
1.719e-05
1.72292e-05
1.72128e-05
1.713e-05
1.71231e-05
1.72592e-05
1.74687e-05
1.75508e-05
1.73981e-05
1.71466e-05
1.69611e-05
1.68713e-05
1.68325e-05
1.68078e-05
1.67988e-05
1.68842e-05
1.72306e-05
1.78238e-05
1.81296e-05
1.77628e-05
1.72188e-05
1.6965e-05
1.69723e-05
1.70915e-05
1.72426e-05
1.73654e-05
1.74064e-05
1.73639e-05
1.72884e-05
1.72285e-05
1.71974e-05
1.71848e-05
1.71798e-05
1.71911e-05
1.72657e-05
1.748e-05
1.78321e-05
1.81055e-05
1.80363e-05
1.77014e-05
1.73936e-05
1.72368e-05
1.71604e-05
1.7144e-05
1.71381e-05
1.71292e-05
1.7117e-05
1.71021e-05
1.70845e-05
1.70643e-05
1.70412e-05
1.70151e-05
1.69857e-05
1.69531e-05
1.69169e-05
1.6877e-05
1.68333e-05
1.67853e-05
1.67328e-05
1.66754e-05
1.66127e-05
1.65441e-05
1.64691e-05
1.63873e-05
1.6298e-05
1.62006e-05
1.60944e-05
1.59786e-05
1.58524e-05
1.57152e-05
1.55661e-05
1.64229e-05
1.63794e-05
1.55414e-05
1.57068e-05
1.58607e-05
1.60039e-05
1.61368e-05
1.626e-05
1.6374e-05
1.64795e-05
1.65777e-05
1.66712e-05
1.67651e-05
1.68686e-05
1.69959e-05
1.71617e-05
1.73696e-05
1.75935e-05
1.77683e-05
1.78131e-05
1.76905e-05
1.74503e-05
1.7201e-05
1.70283e-05
1.69479e-05
1.69329e-05
1.69592e-05
1.70196e-05
1.71065e-05
1.71905e-05
1.72297e-05
1.72121e-05
1.71273e-05
1.71206e-05
1.72594e-05
1.74716e-05
1.7555e-05
1.74024e-05
1.7148e-05
1.6958e-05
1.68652e-05
1.68255e-05
1.68002e-05
1.67918e-05
1.68832e-05
1.72371e-05
1.78238e-05
1.81171e-05
1.77586e-05
1.72202e-05
1.69626e-05
1.69686e-05
1.70909e-05
1.72455e-05
1.73699e-05
1.74108e-05
1.73673e-05
1.72905e-05
1.72294e-05
1.71978e-05
1.71849e-05
1.718e-05
1.71921e-05
1.72694e-05
1.74858e-05
1.78332e-05
1.80995e-05
1.80341e-05
1.77078e-05
1.73997e-05
1.72379e-05
1.7159e-05
1.7142e-05
1.7136e-05
1.71272e-05
1.71148e-05
1.70996e-05
1.70818e-05
1.70613e-05
1.70379e-05
1.70114e-05
1.69818e-05
1.69488e-05
1.69122e-05
1.68721e-05
1.6828e-05
1.67797e-05
1.67268e-05
1.66691e-05
1.6606e-05
1.65371e-05
1.64618e-05
1.63797e-05
1.62901e-05
1.61924e-05
1.60858e-05
1.59697e-05
1.58432e-05
1.57057e-05
1.55563e-05
1.64115e-05
1.63802e-05
1.55422e-05
1.57077e-05
1.5862e-05
1.60054e-05
1.61386e-05
1.62621e-05
1.63766e-05
1.64827e-05
1.65818e-05
1.66764e-05
1.67718e-05
1.68769e-05
1.70049e-05
1.71687e-05
1.73703e-05
1.7584e-05
1.77494e-05
1.77926e-05
1.76786e-05
1.74508e-05
1.72084e-05
1.70346e-05
1.69496e-05
1.69311e-05
1.69564e-05
1.70175e-05
1.71059e-05
1.71912e-05
1.72304e-05
1.72115e-05
1.71246e-05
1.7118e-05
1.72596e-05
1.74745e-05
1.75593e-05
1.74067e-05
1.7149e-05
1.69543e-05
1.68588e-05
1.68182e-05
1.67922e-05
1.67848e-05
1.68822e-05
1.72435e-05
1.78239e-05
1.81055e-05
1.77539e-05
1.72208e-05
1.69599e-05
1.69648e-05
1.70902e-05
1.72485e-05
1.73746e-05
1.74154e-05
1.73708e-05
1.72926e-05
1.72304e-05
1.71981e-05
1.71851e-05
1.71802e-05
1.71932e-05
1.72733e-05
1.74915e-05
1.78345e-05
1.80943e-05