/*--------------------------------*- C++ -*----------------------------------*\
  =========                 |
  \\      /  F ield         | OpenFOAM: The Open Source CFD Toolbox
   \\    /   O peration     | Website:  https://openfoam.org
    \\  /    A nd           | Version:  9
     \\/     M anipulation  |
\*---------------------------------------------------------------------------*/
FoamFile
{
    format      ascii;
    class       volVectorField;
    location    "0.19";
    object      U;
}
// * * * * * * * * * * * * * * * * * * * * * * * * * * * * * * * * * * * * * //

dimensions      [0 1 -1 0 0 0 0];

internalField   nonuniform List<vector> 
20000
(
(0.000414187 0 0.00277839)
(0.000404141 0 0.00577584)
(0.000474583 0 0.00992311)
(0.000579563 0 0.0149521)
(0.000743184 0 0.0210954)
(0.000988833 0 0.0288296)
(0.00135668 0 0.0389032)
(0.0019129 0 0.0524099)
(0.00276884 0 0.0708737)
(0.00411682 0 0.0963229)
(0.0062989 0 0.131339)
(0.00994636 0 0.179105)
(0.0162816 0 0.243556)
(0.0278188 0 0.329698)
(0.0499247 0 0.441586)
(0.0968072 0 0.55169)
(0.187515 0 0.385167)
(0.267199 0 -2.84371)
(-0.414811 0 -2.75971)
(-0.166239 0 0.16797)
(-0.082999 0 0.55518)
(-0.0337074 0 0.491254)
(-0.0151862 0 0.399092)
(-0.00712323 0 0.339244)
(-0.00360501 0 0.301365)
(-0.00206567 0 0.272666)
(-0.0013779 0 0.24326)
(-0.000957518 0 0.208014)
(-0.000510869 0 0.173799)
(-1.47114e-05 0 0.161837)
(0.000334614 0 0.185486)
(0.000219377 0 0.221304)
(-0.000375335 0 0.225426)
(-0.000749512 0 0.16924)
(-0.000347007 0 0.0620764)
(0.000444278 0 0.0228693)
(0.00143063 0 0.134504)
(0.00197349 0 0.262419)
(0.0016294 0 0.337909)
(0.00108618 0 0.376117)
(0.000685594 0 0.396799)
(0.000396408 0 0.408727)
(6.75522e-06 0 0.414335)
(-0.000233132 0 0.406691)
(-0.00117509 0 0.338968)
(0.0161249 0 -0.112848)
(-6.46622e-06 0 -0.962748)
(-0.0168947 0 -0.125644)
(0.000116959 0 0.307129)
(-0.00087278 0 0.351131)
(-0.00124433 0 0.319884)
(-0.00142108 0 0.266854)
(-0.00121229 0 0.197872)
(-0.000697653 0 0.131839)
(-0.000155168 0 0.104388)
(0.000224657 0 0.12458)
(0.000383338 0 0.161455)
(0.000346001 0 0.189484)
(0.000238566 0 0.204728)
(0.000152338 0 0.21223)
(8.40934e-05 0 0.216161)
(-1.25084e-05 0 0.216027)
(-0.000105346 0 0.201501)
(0.000683227 0 0.126137)
(0.00817742 0 -0.153607)
(0.00434507 0 -0.648044)
(-0.00900506 0 -0.464273)
(-0.00423628 0 -0.0170351)
(-0.000111639 0 0.161707)
(2.88931e-05 0 0.201204)
(-7.84006e-05 0 0.204101)
(-0.000136301 0 0.199187)
(-0.000149988 0 0.193086)
(-0.000147718 0 0.187144)
(-0.000142261 0 0.181503)
(-0.000137287 0 0.176089)
(-0.000133238 0 0.170857)
(-0.000130065 0 0.165804)
(-0.000127944 0 0.160925)
(-0.000127216 0 0.156194)
(-0.000128197 0 0.151562)
(-0.00013105 0 0.146961)
(-0.000135753 0 0.142319)
(-0.00014211 0 0.137562)
(-0.000149796 0 0.132628)
(-0.000158407 0 0.12746)
(-0.000167501 0 0.122016)
(-0.000176626 0 0.11626)
(-0.000185331 0 0.110164)
(-0.000193147 0 0.103699)
(-0.000199543 0 0.0968366)
(-0.000203876 0 0.089537)
(-0.000205375 0 0.0817522)
(-0.000203233 0 0.0734287)
(-0.000196895 0 0.0645222)
(-0.000186459 0 0.0550236)
(-0.00017248 0 0.0449725)
(-0.00015359 0 0.0343649)
(-0.000122884 0 0.0228162)
(-7.02824e-05 0 0.00908712)
(0.00142259 0 0.00287606)
(0.00140702 0 0.00555872)
(0.00168784 0 0.00945509)
(0.00208508 0 0.0142317)
(0.0026963 0 0.0200704)
(0.00359498 0 0.0274071)
(0.00489772 0 0.0369334)
(0.0067846 0 0.0496528)
(0.00953897 0 0.0669413)
(0.0136061 0 0.0905749)
(0.0196995 0 0.122702)
(0.0289707 0 0.165725)
(0.0432772 0 0.222106)
(0.0654583 0 0.293941)
(0.0990441 0 0.379168)
(0.152107 0 0.434959)
(0.257083 0 0.134563)
(0.263394 0 -2.11742)
(-0.310212 0 -2.3236)
(-0.236163 0 -0.109262)
(-0.120658 0 0.457036)
(-0.0673648 0 0.448921)
(-0.0378293 0 0.379823)
(-0.0202616 0 0.330158)
(-0.010992 0 0.296847)
(-0.00626957 0 0.270237)
(-0.00384696 0 0.241765)
(-0.00238538 0 0.206894)
(-0.00118418 0 0.172872)
(-0.000105008 0 0.161095)
(0.000618976 0 0.18497)
(0.000430723 0 0.22111)
(-0.000696113 0 0.225344)
(-0.00125723 0 0.168796)
(-0.000223832 0 0.0614822)
(0.0012933 0 0.0224263)
(0.00333771 0 0.133604)
(0.00474943 0 0.261947)
(0.00417427 0 0.337724)
(0.00299443 0 0.375856)
(0.00201342 0 0.396409)
(0.00133088 0 0.408258)
(0.000199428 0 0.414056)
(0.00120708 0 0.405843)
(-0.00193712 0 0.334816)
(0.0347772 0 -0.124312)
(-0.00011298 0 -0.930178)
(-0.0370749 0 -0.13644)
(-0.000808533 0 0.303226)
(-0.00404095 0 0.350499)
(-0.00353064 0 0.319633)
(-0.00371301 0 0.266399)
(-0.00309114 0 0.197249)
(-0.0018669 0 0.13123)
(-0.000632444 0 0.1039)
(0.000290667 0 0.12414)
(0.000781201 0 0.161095)
(0.000819623 0 0.189183)
(0.000651683 0 0.204426)
(0.000496736 0 0.211908)
(0.000400703 0 0.215846)
(0.000368552 0 0.215723)
(0.000751524 0 0.200799)
(0.00233185 0 0.123425)
(0.0174929 0 -0.159176)
(0.00902353 0 -0.636683)
(-0.0187124 0 -0.461928)
(-0.00945187 0 -0.021929)
(-0.00128018 0 0.160155)
(-0.00055479 0 0.200847)
(-0.000408833 0 0.203877)
(-0.000418456 0 0.198943)
(-0.0004046 0 0.19283)
(-0.000379835 0 0.18689)
(-0.000354882 0 0.18126)
(-0.00033402 0 0.175858)
(-0.000317717 0 0.17064)
(-0.000305682 0 0.1656)
(-0.000297932 0 0.160734)
(-0.000294754 0 0.156017)
(-0.000296403 0 0.151398)
(-0.000302879 0 0.146811)
(-0.000313841 0 0.142182)
(-0.000328629 0 0.137438)
(-0.000346339 0 0.132515)
(-0.00036592 0 0.127359)
(-0.000386246 0 0.121924)
(-0.000406178 0 0.116177)
(-0.000424574 0 0.110088)
(-0.000440267 0 0.10363)
(-0.000452011 0 0.09677)
(-0.000458457 0 0.0894705)
(-0.000458221 0 0.0816821)
(-0.000450162 0 0.0733515)
(-0.000433982 0 0.0644361)
(-0.000410948 0 0.0549294)
(-0.000382988 0 0.044867)
(-0.00034678 0 0.0342209)
(-0.000288064 0 0.0225749)
(-0.000195771 0 0.00878592)
(0.00163821 0 0.00275538)
(0.00167233 0 0.0049506)
(0.00208782 0 0.00830682)
(0.00267175 0 0.0124768)
(0.0035562 0 0.0175781)
(0.0048368 0 0.0239702)
(0.00665029 0 0.032237)
(0.00919694 0 0.0432239)
(0.0127698 0 0.0580702)
(0.0178004 0 0.0781994)
(0.0249137 0 0.105222)
(0.0349993 0 0.140719)
(0.0493595 0 0.185911)
(0.0699125 0 0.241007)
(0.0983123 0 0.300825)
(0.136251 0 0.315444)
(0.244514 0 -0.0406927)
(0.230241 0 -1.65831)
(-0.207054 0 -1.93997)
(-0.233478 0 -0.292187)
(-0.0990489 0 0.357553)
(-0.0665983 0 0.394927)
(-0.0411187 0 0.350459)
(-0.0240295 0 0.314648)
(-0.0140166 0 0.288943)
(-0.0083017 0 0.266342)
(-0.00508123 0 0.239748)
(-0.00302908 0 0.205541)
(-0.00138156 0 0.171746)
(-5.06643e-06 0 0.160267)
(0.000897982 0 0.184748)
(0.000675513 0 0.221754)
(-0.000746659 0 0.226217)
(-0.00129768 0 0.168596)
(0.000289532 0 0.0603356)
(0.0020849 0 0.0211489)
(0.00473007 0 0.131849)
(0.00691439 0 0.261689)
(0.00626048 0 0.33861)
(0.0046398 0 0.376882)
(0.00320844 0 0.397255)
(0.00231022 0 0.408886)
(0.000355268 0 0.414773)
(0.00283379 0 0.405575)
(-0.00317717 0 0.326645)
(0.0452367 0 -0.140314)
(1.91501e-05 0 -0.878334)
(-0.0488954 0 -0.151453)
(-0.00112539 0 0.295518)
(-0.00710732 0 0.350141)
(-0.00550671 0 0.32006)
(-0.00569769 0 0.266241)
(-0.00466027 0 0.196455)
(-0.00288136 0 0.130194)
(-0.00116545 0 0.103028)
(0.000173219 0 0.123541)
(0.000985262 0 0.160901)
(0.00115781 0 0.189294)
(0.00100509 0 0.204618)
(0.000850597 0 0.212063)
(0.000795886 0 0.215948)
(0.000879708 0 0.215684)
(0.00176816 0 0.199718)
(0.00337585 0 0.118359)
(0.022916 0 -0.166985)
(0.0118456 0 -0.615608)
(-0.0239931 0 -0.455627)
(-0.0125673 0 -0.0302037)
(-0.00224718 0 0.157126)
(-0.00121518 0 0.200421)
(-0.000789788 0 0.203888)
(-0.00069972 0 0.198973)
(-0.000619856 0 0.192841)
(-0.000552439 0 0.186896)
(-0.000497776 0 0.181267)
(-0.000455342 0 0.17587)
(-0.000423218 0 0.170656)
(-0.000399833 0 0.16562)
(-0.000384455 0 0.160759)
(-0.000376907 0 0.156047)
(-0.000377077 0 0.151435)
(-0.000384594 0 0.146856)
(-0.000398695 0 0.142233)
(-0.000418237 0 0.137496)
(-0.000441798 0 0.132578)
(-0.000467783 0 0.127425)
(-0.000494534 0 0.121992)
(-0.000520404 0 0.116243)
(-0.000543785 0 0.11015)
(-0.000563102 0 0.103683)
(-0.000576764 0 0.0968121)
(-0.000583149 0 0.0894961)
(-0.000580701 0 0.0816863)
(-0.000568224 0 0.07333)
(-0.000545515 0 0.0643879)
(-0.000514342 0 0.0548573)
(-0.000477997 0 0.0447715)
(-0.000435137 0 0.0340845)
(-0.000376564 0 0.0223756)
(-0.000310843 0 0.00861241)
(0.000570214 0 0.00243152)
(0.000620736 0 0.00412892)
(0.00105956 0 0.00683378)
(0.00164961 0 0.0102465)
(0.00253627 0 0.0144472)
(0.00380172 0 0.0197254)
(0.00555431 0 0.0265655)
(0.00794911 0 0.0356795)
(0.0112005 0 0.0480231)
(0.0156079 0 0.0647688)
(0.0215861 0 0.0871938)
(0.0296928 0 0.116456)
(0.040727 0 0.153253)
(0.0561283 0 0.197019)
(0.0780067 0 0.240083)
(0.104266 0 0.224368)
(0.198005 0 -0.153074)
(0.183923 0 -1.36318)
(-0.134679 0 -1.62151)
(-0.197694 0 -0.388712)
(-0.0707262 0 0.278745)
(-0.0527656 0 0.352959)
(-0.0325547 0 0.325688)
(-0.0200517 0 0.299956)
(-0.012456 0 0.280768)
(-0.00773476 0 0.262095)
(-0.00488369 0 0.237472)
(-0.00288635 0 0.20399)
(-0.00113807 0 0.170482)
(0.000344684 0 0.159395)
(0.00130973 0 0.184624)
(0.0010121 0 0.222663)
(-0.000675841 0 0.227319)
(-0.00121469 0 0.168297)
(0.000861546 0 0.0588914)
(0.00286127 0 0.01955)
(0.00594104 0 0.129677)
(0.00875411 0 0.261333)
(0.00802643 0 0.339827)
(0.00603626 0 0.378408)
(0.00420102 0 0.3986)
(0.00317665 0 0.409932)
(0.000293847 0 0.41579)
(0.00369248 0 0.405622)
(-0.00461641 0 0.316305)
(0.0501061 0 -0.154854)
(0.000241367 0 -0.82597)
(-0.0548304 0 -0.164076)
(-0.0013839 0 0.285984)
(-0.00941033 0 0.349826)
(-0.00708641 0 0.320565)
(-0.00746142 0 0.265978)
(-0.0060428 0 0.195395)
(-0.0037829 0 0.128834)
(-0.00166637 0 0.101866)
(2.02506e-05 0 0.122737)
(0.00111097 0 0.160628)
(0.00141421 0 0.189444)
(0.00130028 0 0.204905)
(0.00117488 0 0.212306)
(0.00117248 0 0.216089)
(0.00129384 0 0.215594)
(0.00250898 0 0.198319)
(0.0040182 0 0.112201)
(0.0260024 0 -0.17439)
(0.013483 0 -0.592988)
(-0.0264634 0 -0.447442)
(-0.0144695 0 -0.0389417)
(-0.00288552 0 0.153341)
(-0.00167057 0 0.199776)
(-0.00107928 0 0.203844)
(-0.000920749 0 0.198993)
(-0.000772621 0 0.192868)
(-0.000655803 0 0.186928)
(-0.000566227 0 0.181307)
(-0.000498625 0 0.175917)
(-0.000448061 0 0.170708)
(-0.000411161 0 0.165677)
(-0.000386133 0 0.160821)
(-0.000372166 0 0.156116)
(-0.000368694 0 0.151511)
(-0.000374924 0 0.146939)
(-0.000389654 0 0.142324)
(-0.000411282 0 0.137592)
(-0.000437913 0 0.132678)
(-0.000467489 0 0.127526)
(-0.000497917 0 0.122092)
(-0.000527161 0 0.116338)
(-0.000553282 0 0.110236)
(-0.000574429 0 0.103756)
(-0.000588782 0 0.0968672)
(-0.000594534 0 0.0895281)
(-0.000589994 0 0.0816898)
(-0.000573942 0 0.0733013)
(-0.000546265 0 0.0643267)
(-0.000508937 0 0.0547681)
(-0.000466178 0 0.0446585)
(-0.00041972 0 0.0339448)
(-0.000367214 0 0.0222213)
(-0.000324968 0 0.0085295)
(-0.00202203 0 0.00205335)
(-0.0019913 0 0.00335393)
(-0.00161848 0 0.00547975)
(-0.00115722 0 0.0082133)
(-0.000455331 0 0.0116281)
(0.000536671 0 0.0159718)
(0.00189079 0 0.0216707)
(0.00371377 0 0.0293618)
(0.00615003 0 0.0399062)
(0.00940049 0 0.0543585)
(0.0137473 0 0.0738535)
(0.0195876 0 0.0993785)
(0.0274747 0 0.131411)
(0.038492 0 0.16879)
(0.0554368 0 0.200649)
(0.0760875 0 0.159881)
(0.14931 0 -0.219336)
(0.138983 0 -1.15686)
(-0.0863396 0 -1.37122)
(-0.156944 0 -0.428178)
(-0.0517334 0 0.216979)
(-0.037512 0 0.325151)
(-0.020711 0 0.310058)
(-0.0127233 0 0.289856)
(-0.00803814 0 0.274599)
(-0.00507223 0 0.258565)
(-0.00329988 0 0.23532)
(-0.001875 0 0.202346)
(-0.000373428 0 0.169089)
(0.00100532 0 0.15842)
(0.00189862 0 0.1844)
(0.00146123 0 0.223446)
(-0.000459678 0 0.228219)
(-0.00101519 0 0.167731)
(0.00140242 0 0.0573063)
(0.00361926 0 0.0178833)
(0.00703979 0 0.127315)
(0.0102737 0 0.260701)
(0.00948016 0 0.340898)
(0.00719822 0 0.379882)
(0.00497788 0 0.399916)
(0.00385546 0 0.410948)
(3.21126e-05 0 0.416747)
(0.00384352 0 0.405764)
(-0.00535129 0 0.305253)
(0.0503674 0 -0.166645)
(8.83003e-05 0 -0.777894)
(-0.0560172 0 -0.173279)
(-0.00229851 0 0.275985)
(-0.011045 0 0.349425)
(-0.00828512 0 0.320884)
(-0.00895695 0 0.26543)
(-0.00722688 0 0.194048)
(-0.00458478 0 0.127227)
(-0.00212889 0 0.100487)
(-0.000146286 0 0.121714)
(0.00117322 0 0.160137)
(0.00159677 0 0.189405)
(0.00153577 0 0.205026)
(0.0014497 0 0.212386)
(0.00149333 0 0.216053)
(0.00159608 0 0.215324)
(0.00304787 0 0.196718)
(0.00467216 0 0.105727)
(0.027096 0 -0.180696)
(0.0138608 0 -0.571772)
(-0.0266578 0 -0.43883)
(-0.0153923 0 -0.0470903)
(-0.00338028 0 0.149231)
(-0.00191791 0 0.19891)
(-0.00121902 0 0.203622)
(-0.00102615 0 0.198852)
(-0.000824985 0 0.192757)
(-0.000665683 0 0.186842)
(-0.00054342 0 0.181241)
(-0.000450578 0 0.175868)
(-0.000380641 0 0.170673)
(-0.00032894 0 0.165655)
(-0.000292778 0 0.160811)
(-0.00027074 0 0.156119)
(-0.000261791 0 0.151527)
(-0.000264711 0 0.146967)
(-0.000277876 0 0.142364)
(-0.000299266 0 0.137642)
(-0.000326577 0 0.132736)
(-0.000357364 0 0.127589)
(-0.000389182 0 0.122155)
(-0.000419691 0 0.116399)
(-0.000446694 0 0.110289)
(-0.000468129 0 0.103798)
(-0.000482011 0 0.0968919)
(-0.000486417 0 0.0895303)
(-0.000479624 0 0.0816641)
(-0.000460524 0 0.0732438)
(-0.000429296 0 0.0642375)
(-0.000388203 0 0.0546527)
(-0.000341925 0 0.0445246)
(-0.000294673 0 0.0338)
(-0.000248813 0 0.0220895)
(-0.000217745 0 0.00847029)
(-0.00563744 0 0.00173473)
(-0.00564866 0 0.00279131)
(-0.00536354 0 0.00451935)
(-0.0050492 0 0.00677863)
(-0.00457001 0 0.00965284)
(-0.0038904 0 0.0133728)
(-0.00296063 0 0.0183359)
(-0.00170865 0 0.0251388)
(-3.5485e-05 0 0.0345908)
(0.00220285 0 0.0476782)
(0.00521847 0 0.0654391)
(0.00931669 0 0.0887138)
(0.0149206 0 0.117681)
(0.0228698 0 0.150187)
(0.0363403 0 0.171383)
(0.0551936 0 0.106955)
(0.111912 0 -0.265205)
(0.103027 0 -1.01169)
(-0.0577889 0 -1.1844)
(-0.122948 0 -0.446068)
(-0.0404078 0 0.161862)
(-0.0241172 0 0.303616)
(-0.00997271 0 0.300833)
(-0.00541854 0 0.28443)
(-0.00295777 0 0.271421)
(-0.0015967 0 0.256762)
(-0.000994115 0 0.234086)
(-0.000316715 0 0.20116)
(0.000748725 0 0.167923)
(0.00188241 0 0.157557)
(0.00260741 0 0.184226)
(0.00199509 0 0.224238)
(-0.000104253 0 0.22906)
(-0.000697535 0 0.167043)
(0.00188622 0 0.0556277)
(0.00430371 0 0.0161129)
(0.00799919 0 0.124814)
(0.0114781 0 0.259899)
(0.0106406 0 0.341913)
(0.00814424 0 0.381382)
(0.00555408 0 0.401283)
(0.0043317 0 0.412062)
(-0.000318665 0 0.417781)
(0.00354285 0 0.405996)
(-0.00527063 0 0.294171)
(0.0476493 0 -0.176263)
(-0.000554492 0 -0.733612)
(-0.0542812 0 -0.180116)
(-0.00375601 0 0.266087)
(-0.0121594 0 0.34898)
(-0.00918568 0 0.321166)
(-0.0101795 0 0.264737)
(-0.00821025 0 0.192507)
(-0.00530102 0 0.125421)
(-0.00256889 0 0.098922)
(-0.000334589 0 0.120516)
(0.00117446 0 0.159484)
(0.00171293 0 0.189227)
(0.00171582 0 0.20503)
(0.00167283 0 0.212359)
(0.00176106 0 0.215918)
(0.00183375 0 0.21496)
(0.00347706 0 0.194978)
(0.00541788 0 0.099191)
(0.0267825 0 -0.185961)
(0.0133262 0 -0.551854)
(-0.0254651 0 -0.430144)
(-0.0155475 0 -0.054597)
(-0.00372842 0 0.144939)
(-0.0019661 0 0.197916)
(-0.0012003 0 0.203312)
(-0.000993592 0 0.19862)
(-0.000755074 0 0.192559)
(-0.000564475 0 0.186675)
(-0.000415366 0 0.181104)
(-0.000299769 0 0.175756)
(-0.000211213 0 0.170582)
(-0.000144507 0 0.165582)
(-9.64348e-05 0 0.160756)
(-6.51568e-05 0 0.156081)
(-4.92413e-05 0 0.151506)
(-4.7091e-05 0 0.146963)
(-5.67204e-05 0 0.142375)
(-7.57587e-05 0 0.137667)
(-0.000101568 0 0.132771)
(-0.000131397 0 0.127631)
(-0.000162535 0 0.1222)
(-0.000192413 0 0.116442)
(-0.000218657 0 0.110327)
(-0.00023908 0 0.103825)
(-0.000251633 0 0.0969027)
(-0.000254401 0 0.0895191)
(-0.000245764 0 0.0816255)
(-0.000224851 0 0.0731743)
(-0.000192258 0 0.0641379)
(-0.000150773 0 0.0545299)
(-0.000105657 0 0.0443901)
(-6.28511e-05 0 0.0336687)
(-2.70952e-05 0 0.0219856)
(-8.52611e-06 0 0.00843033)
(-0.00963833 0 0.00150605)
(-0.00968188 0 0.00243835)
(-0.00947348 0 0.00393474)
(-0.00927947 0 0.00590091)
(-0.0089846 0 0.00843607)
(-0.00855829 0 0.0117652)
(-0.00796587 0 0.0162644)
(-0.00715526 0 0.0224976)
(-0.00605389 0 0.0312285)
(-0.00455427 0 0.0433759)
(-0.00249448 0 0.059876)
(0.000360345 0 0.0813936)
(0.00438939 0 0.107696)
(0.0103869 0 0.135252)
(0.0216575 0 0.144913)
(0.0403888 0 0.058778)
(0.0850752 0 -0.300653)
(0.0758923 0 -0.907913)
(-0.0418385 0 -1.04668)
(-0.0968643 0 -0.455377)
(-0.033253 0 0.110465)
(-0.0133 0 0.28273)
(-0.00129047 0 0.294052)
(0.000844163 0 0.281713)
(0.00175244 0 0.270412)
(0.00180995 0 0.256489)
(0.00141009 0 0.233867)
(0.00139947 0 0.200601)
(0.0019981 0 0.167118)
(0.0028364 0 0.156895)
(0.00336435 0 0.184194)
(0.00257308 0 0.225155)
(0.000332642 0 0.229977)
(-0.000324509 0 0.16636)
(0.00229373 0 0.0538545)
(0.00488027 0 0.0141589)
(0.00881077 0 0.122195)
(0.0124299 0 0.259047)
(0.0115599 0 0.343014)
(0.00889781 0 0.383057)
(0.00595254 0 0.402858)
(0.00460196 0 0.413449)
(-0.000687045 0 0.419044)
(0.0029447 0 0.406226)
(-0.00479809 0 0.283468)
(0.0435492 0 -0.183999)
(-0.00149318 0 -0.693272)
(-0.0512755 0 -0.185203)
(-0.00533074 0 0.256639)
(-0.0128486 0 0.348493)
(-0.00987083 0 0.321536)
(-0.0111764 0 0.264044)
(-0.00902912 0 0.190859)
(-0.00594767 0 0.123452)
(-0.0029898 0 0.0971905)
(-0.000538467 0 0.119185)
(0.00113202 0 0.15874)
(0.00177867 0 0.188994)
(0.0018488 0 0.205002)
(0.00184763 0 0.212314)
(0.00197987 0 0.215772)
(0.00202442 0 0.214565)
(0.00380518 0 0.193113)
(0.00614889 0 0.092779)
(0.0257507 0 -0.190195)
(0.0124082 0 -0.533157)
(-0.0237121 0 -0.421544)
(-0.0152074 0 -0.0614448)
(-0.00385891 0 0.140576)
(-0.00180602 0 0.196851)
(-0.00102286 0 0.202993)
(-0.000819257 0 0.198379)
(-0.000557552 0 0.192343)
(-0.000346094 0 0.18649)
(-0.000175977 0 0.180949)
(-4.08178e-05 0 0.175627)
(6.47525e-05 0 0.170477)
(0.000145965 0 0.165498)
(0.000206191 0 0.160692)
(0.00024747 0 0.156036)
(0.000271489 0 0.151481)
(0.000280116 0 0.146957)
(0.000275605 0 0.142386)
(0.000260594 0 0.137692)
(0.000237971 0 0.132807)
(0.000210714 0 0.127674)
(0.000181726 0 0.122247)
(0.000153729 0 0.116488)
(0.000129203 0 0.110366)
(0.000110396 0 0.103853)
(9.9363e-05 0 0.0969139)
(9.79511e-05 0 0.0895079)
(0.000107632 0 0.0815868)
(0.000129038 0 0.0731055)
(0.000161202 0 0.0640411)
(0.000200808 0 0.054414)
(0.000241982 0 0.0442705)
(0.000278083 0 0.0335637)
(0.000304852 0 0.0219142)
(0.000315081 0 0.00840897)
(-0.0134832 0 0.00135402)
(-0.0135461 0 0.00223225)
(-0.0133965 0 0.00360522)
(-0.0132906 0 0.00539936)
(-0.0131274 0 0.00772466)
(-0.0128811 0 0.0108011)
(-0.0125289 0 0.0149863)
(-0.0120319 0 0.0208143)
(-0.0113328 0 0.0290029)
(-0.0103444 0 0.0404033)
(-0.00893035 0 0.0558449)
(-0.0068726 0 0.0758014)
(-0.00377795 0 0.0995448)
(0.00124607 0 0.121839)
(0.0114709 0 0.119568)
(0.0303308 0 0.0152235)
(0.0657636 0 -0.32706)
(0.0558581 0 -0.830067)
(-0.0323141 0 -0.942781)
(-0.077239 0 -0.459549)
(-0.0285404 0 0.0638265)
(-0.0055881 0 0.261473)
(0.00518704 0 0.288091)
(0.00586869 0 0.280454)
(0.00568773 0 0.270702)
(0.00473818 0 0.257239)
(0.00356058 0 0.234428)
(0.00298427 0 0.200594)
(0.00317296 0 0.166653)
(0.00374645 0 0.156442)
(0.00409707 0 0.184317)
(0.00314277 0 0.22621)
(0.000778682 0 0.230996)
(2.84901e-05 0 0.165738)
(0.00260567 0 0.0520244)
(0.00533573 0 0.0120261)
(0.00948138 0 0.119482)
(0.0131972 0 0.258185)
(0.0122928 0 0.344226)
(0.00948368 0 0.384933)
(0.0061982 0 0.404669)
(0.00467575 0 0.415143)
(-0.00107029 0 0.420558)
(0.00212155 0 0.406388)
(-0.00433863 0 0.273391)
(0.0390439 0 -0.189925)
(-0.00251451 0 -0.657127)
(-0.0479347 0 -0.188856)
(-0.00671333 0 0.247814)
(-0.0131987 0 0.347964)
(-0.0103982 0 0.322019)
(-0.0120008 0 0.263407)
(-0.00972858 0 0.189156)
(-0.00654005 0 0.121359)
(-0.00338967 0 0.0953192)
(-0.000746526 0 0.117746)
(0.0010657 0 0.157929)
(0.00181059 0 0.188728)
(0.00194382 0 0.204963)
(0.00197812 0 0.212273)
(0.00214916 0 0.215641)
(0.00216697 0 0.214154)
(0.00402988 0 0.19115)
(0.00677237 0 0.0866526)
(0.0244576 0 -0.193429)
(0.0114505 0 -0.515825)
(-0.0218371 0 -0.413232)
(-0.0145769 0 -0.0676466)
(-0.00374275 0 0.136236)
(-0.00144287 0 0.195739)
(-0.0006874 0 0.202688)
(-0.000503459 0 0.198152)
(-0.000232652 0 0.192132)
(-9.8401e-06 0 0.186302)
(0.000176219 0 0.18079)
(0.000327828 0 0.175495)
(0.000448651 0 0.170368)
(0.000543644 0 0.165411)
(0.000616 0 0.160626)
(0.000667757 0 0.155991)
(0.000700704 0 0.151456)
(0.000716847 0 0.146951)
(0.000718611 0 0.142398)
(0.000708811 0 0.137719)
(0.000690513 0 0.132846)
(0.000666855 0 0.12772)
(0.000640877 0 0.122296)
(0.000615401 0 0.116535)
(0.000592975 0 0.110407)
(0.000575875 0 0.103882)
(0.000566134 0 0.0969265)
(0.000565516 0 0.0894984)
(0.000575319 0 0.0815508)
(0.000595895 0 0.0730413)
(0.000625877 0 0.0639523)
(0.000661368 0 0.0543117)
(0.000695844 0 0.0441724)
(0.000722365 0 0.0334883)
(0.000738289 0 0.0218726)
(0.000738754 0 0.00840101)
(-0.0168336 0 0.00125712)
(-0.0169044 0 0.00211836)
(-0.0167944 0 0.00343031)
(-0.0167445 0 0.00512673)
(-0.0166643 0 0.00732148)
(-0.0165301 0 0.0102289)
(-0.0163236 0 0.0141904)
(-0.0160109 0 0.0197121)
(-0.0155406 0 0.0274684)
(-0.0148309 0 0.0382445)
(-0.0137449 0 0.0527616)
(-0.0120489 0 0.0712767)
(-0.00931984 0 0.0924556)
(-0.0045441 0 0.109254)
(0.00537935 0 0.0952883)
(0.023964 0 -0.023035)
(0.0519415 0 -0.345314)
(0.0415894 0 -0.768787)
(-0.0257371 0 -0.86227)
(-0.0624555 0 -0.460049)
(-0.0255118 0 0.0228196)
(-0.00108863 0 0.240224)
(0.00924409 0 0.282545)
(0.00944219 0 0.280113)
(0.00861541 0 0.271821)
(0.00697094 0 0.258661)
(0.00525982 0 0.235522)
(0.0042639 0 0.20098)
(0.00414029 0 0.166455)
(0.00451561 0 0.156155)
(0.00473298 0 0.184559)
(0.00364588 0 0.227364)
(0.00117184 0 0.232089)
(0.000314906 0 0.165178)
(0.00281947 0 0.0501805)
(0.00566756 0 0.00976168)
(0.0100097 0 0.116695)
(0.0138138 0 0.257302)
(0.0128733 0 0.345511)
(0.00992074 0 0.386967)
(0.0063124 0 0.406674)
(0.00455719 0 0.417092)
(-0.00146382 0 0.422305)
(0.00113358 0 0.406461)
(-0.00411689 0 0.263993)
(0.034617 0 -0.194282)
(-0.00345333 0 -0.624966)
(-0.0446495 0 -0.191387)
(-0.00779366 0 0.239617)
(-0.0132974 0 0.347422)
(-0.0108109 0 0.322613)
(-0.0126925 0 0.262834)
(-0.0103411 0 0.187419)
(-0.00708796 0 0.119172)
(-0.00376893 0 0.0933306)
(-0.000954771 0 0.116206)
(0.00098525 0 0.157046)
(0.00181853 0 0.188416)
(0.0020078 0 0.204899)
(0.0020691 0 0.21222)
(0.00227071 0 0.21551)
(0.00226346 0 0.21372)
(0.00416285 0 0.189118)
(0.00725362 0 0.0808653)
(0.0231253 0 -0.19582)
(0.0106162 0 -0.499901)
(-0.0199719 0 -0.405342)
(-0.013765 0 -0.0732904)
(-0.00339693 0 0.13196)
(-0.000899748 0 0.1946)
(-0.000201824 0 0.202401)
(-5.04323e-05 0 0.197941)
(0.000218378 0 0.191923)
(0.000444024 0 0.186108)
(0.000641788 0 0.18062)
(0.000807042 0 0.175351)
(0.000941536 0 0.170248)
(0.00104962 0 0.165312)
(0.00113402 0 0.160548)
(0.0011966 0 0.155935)
(0.00123909 0 0.151421)
(0.00126353 0 0.146937)
(0.00127242 0 0.142402)
(0.00126868 0 0.137739)
(0.00125549 0 0.132878)
(0.0012361 0 0.127761)
(0.00121365 0 0.12234)
(0.00119103 0 0.116579)
(0.00117082 0 0.110445)
(0.00115532 0 0.103909)
(0.00114652 0 0.0969376)
(0.00114607 0 0.0894888)
(0.00115509 0 0.081517)
(0.00117363 0 0.0729826)
(0.0011999 0 0.063874)
(0.00122954 0 0.0542267)
(0.00125577 0 0.0440994)
(0.00127206 0 0.0334438)
(0.0012779 0 0.0218597)
(0.00127079 0 0.0084073)
(-0.0194768 0 0.0011949)
(-0.0195437 0 0.00205987)
(-0.0194542 0 0.00334746)
(-0.0194253 0 0.00499087)
(-0.0193766 0 0.00710328)
(-0.0192842 0 0.00989251)
(-0.0191296 0 0.0136839)
(-0.0188789 0 0.0189548)
(-0.0184782 0 0.0263353)
(-0.0178412 0 0.0365401)
(-0.0168226 0 0.0501711)
(-0.0151726 0 0.0672291)
(-0.0124248 0 0.0856923)
(-0.00748468 0 0.0967852)
(0.00245984 0 0.071943)
(0.0202771 0 -0.0561586)
(0.0422255 0 -0.357279)
(0.0318515 0 -0.71937)
(-0.020655 0 -0.798627)
(-0.051331 0 -0.457911)
(-0.0237902 0 -0.0125178)
(0.000686719 0 0.219177)
(0.0110573 0 0.276977)
(0.0114337 0 0.280247)
(0.010371 0 0.273436)
(0.0083728 0 0.26051)
(0.00638268 0 0.236955)
(0.0051359 0 0.201622)
(0.00481979 0 0.166432)
(0.00507587 0 0.155975)
(0.00521367 0 0.184876)
(0.00403141 0 0.228584)
(0.00146689 0 0.233235)
(0.000510598 0 0.164675)
(0.00294212 0 0.0483396)
(0.00588532 0 0.00739671)
(0.0103957 0 0.113839)
(0.0142899 0 0.256387)
(0.0133172 0 0.346849)
(0.010221 0 0.389135)
(0.00631152 0 0.408846)
(0.00427595 0 0.419258)
(-0.00188358 0 0.424306)
(-9.76943e-07 0 0.406382)
(-0.00418254 0 0.255273)
(0.0305 0 -0.197447)
(-0.00419716 0 -0.596346)
(-0.0415461 0 -0.193071)
(-0.00859923 0 0.231999)
(-0.013231 0 0.34692)
(-0.0111512 0 0.32333)
(-0.0132853 0 0.262332)
(-0.0108896 0 0.185659)
(-0.00759677 0 0.116909)
(-0.00412822 0 0.0912395)
(-0.00116344 0 0.114571)
(0.000892667 0 0.156089)
(0.00180603 0 0.188053)
(0.00204461 0 0.204801)
(0.00212528 0 0.212148)
(0.00234869 0 0.215373)
(0.0023185 0 0.213267)
(0.0042177 0 0.187044)
(0.00759516 0 0.0753975)
(0.0218578 0 -0.197574)
(0.00998166 0 -0.485304)
(-0.0181194 0 -0.397901)
(-0.0128261 0 -0.0784764)
(-0.00286098 0 0.127754)
(-0.000210034 0 0.193451)
(0.000421339 0 0.202136)
(0.000534539 0 0.19775)
(0.000790009 0 0.191714)
(0.00101422 0 0.185905)
(0.00122083 0 0.180437)
(0.0013976 0 0.175191)
(0.00154465 0 0.17011)
(0.0016654 0 0.165196)
(0.00176186 0 0.160455)
(0.00183558 0 0.155864)
(0.00188814 0 0.151372)
(0.00192151 0 0.146909)
(0.00193821 0 0.142394)
(0.00194118 0 0.137748)
(0.0019337 0 0.132901)
(0.00191907 0 0.127793)
(0.0019005 0 0.122377)
(0.00188095 0 0.116616)
(0.00186303 0 0.110478)
(0.00184903 0 0.103933)
(0.00184091 0 0.0969468)
(0.00184026 0 0.0894796)
(0.00184801 0 0.0814866)
(0.00186397 0 0.0729315)
(0.00188602 0 0.0638087)
(0.00190955 0 0.0541613)
(0.00192793 0 0.0440522)
(0.00193551 0 0.0334276)
(0.00193338 0 0.0218708)
(0.0019214 0 0.00842518)
(-0.0213242 0 0.00114373)
(-0.0213845 0 0.00201076)
(-0.0212968 0 0.00327913)
(-0.0212616 0 0.00487765)
(-0.0212033 0 0.00691499)
(-0.0210979 0 0.0095911)
(-0.0209255 0 0.0132145)
(-0.0206483 0 0.0182321)
(-0.0202082 0 0.0252254)
(-0.0195133 0 0.0348329)
(-0.0184104 0 0.0475237)
(-0.0166331 0 0.0630126)
(-0.0136736 0 0.0785605)
(-0.0084054 0 0.0838777)
(0.00161219 0 0.0493922)
(0.018293 0 -0.0847595)
(0.0354587 0 -0.364895)
(0.0253855 0 -0.67889)
(-0.0166417 0 -0.747154)
(-0.0430538 0 -0.453654)
(-0.0230376 0 -0.0424572)
(0.000440593 0 0.198502)
(0.0110533 0 0.270898)
(0.0119997 0 0.280333)
(0.0109953 0 0.275197)
(0.0089343 0 0.262543)
(0.00688681 0 0.238555)
(0.00555481 0 0.202398)
(0.00517089 0 0.166498)
(0.0053911 0 0.155845)
(0.00550431 0 0.185235)
(0.00426396 0 0.229854)
(0.00163139 0 0.23443)
(0.000598185 0 0.164223)
(0.00298024 0 0.0464982)
(0.00600821 0 0.00494457)
(0.0106509 0 0.110918)
(0.0146307 0 0.255442)
(0.013632 0 0.348244)
(0.0103928 0 0.391437)
(0.00620457 0 0.411189)
(0.00386781 0 0.42162)
(-0.00238811 0 0.426547)
(-0.00126098 0 0.406169)
(-0.00446893 0 0.247178)
(0.0267534 0 -0.199773)
(-0.0047159 0 -0.570819)
(-0.0386603 0 -0.194088)
(-0.00922621 0 0.224921)
(-0.0130865 0 0.346502)
(-0.0114643 0 0.324187)
(-0.013813 0 0.261912)
(-0.0113954 0 0.183886)
(-0.00807098 0 0.114582)
(-0.00446677 0 0.0890573)
(-0.00137146 0 0.112852)
(0.000788225 0 0.155068)
(0.0017734 0 0.187647)
(0.00205564 0 0.204676)
(0.00215009 0 0.212063)
(0.00238646 0 0.215238)
(0.00233409 0 0.212804)
(0.00420359 0 0.18495)
(0.00781567 0 0.0702121)
(0.0207072 0 -0.198871)
(0.00956806 0 -0.47192)
(-0.0162657 0 -0.390882)
(-0.0117943 0 -0.0832723)
(-0.00218234 0 0.123614)
(0.000594883 0 0.192297)
(0.00116411 0 0.201905)
(0.00124076 0 0.197582)
(0.00147721 0 0.19151)
(0.00169843 0 0.185696)
(0.00191237 0 0.180242)
(0.0020996 0 0.175016)
(0.00225882 0 0.169957)
(0.00239221 0 0.165065)
(0.00250098 0 0.160346)
(0.00258629 0 0.155777)
(0.00264948 0 0.151309)
(0.00269238 0 0.146868)
(0.00271746 0 0.142374)
(0.0027277 0 0.137746)
(0.00272639 0 0.132914)
(0.00271691 0 0.127816)
(0.00270253 0 0.122407)
(0.00268623 0 0.116647)
(0.00267069 0 0.110506)
(0.00265823 0 0.103953)
(0.0026508 0 0.0969554)
(0.00264995 0 0.0894722)
(0.00265652 0 0.0814608)
(0.00267018 0 0.0728888)
(0.00268862 0 0.0637565)
(0.00270715 0 0.0541137)
(0.00271963 0 0.0440261)
(0.00272129 0 0.033432)
(0.00271395 0 0.0218979)
(0.00269978 0 0.00845026)
(-0.0224428 0 0.00108688)
(-0.0224946 0 0.0019354)
(-0.0223955 0 0.00316325)
(-0.0223384 0 0.00469627)
(-0.0222458 0 0.00663548)
(-0.022092 0 0.0091701)
(-0.0218573 0 0.0125903)
(-0.0215043 0 0.0173121)
(-0.0209712 0 0.0238681)
(-0.0201593 0 0.0328182)
(-0.0189072 0 0.0444905)
(-0.0169353 0 0.0582948)
(-0.0137088 0 0.0707876)
(-0.00811505 0 0.0704679)
(0.00187472 0 0.0277772)
(0.0172025 0 -0.109373)
(0.030638 0 -0.369477)
(0.0210029 0 -0.64498)
(-0.0136297 0 -0.704217)
(-0.037027 0 -0.447499)
(-0.0229406 0 -0.0673671)
(-0.00111814 0 0.17847)
(0.00976543 0 0.264098)
(0.0114538 0 0.28)
(0.0106901 0 0.276814)
(0.00876425 0 0.264541)
(0.00681642 0 0.240158)
(0.00553449 0 0.203187)
(0.00519328 0 0.166571)
(0.00545487 0 0.155714)
(0.00559235 0 0.185609)
(0.00432394 0 0.23116)
(0.00164401 0 0.235665)
(0.000565024 0 0.163802)
(0.00293786 0 0.0446431)
(0.00605568 0 0.00241615)
(0.0107941 0 0.107944)
(0.0148427 0 0.254471)
(0.0138218 0 0.349698)
(0.0104417 0 0.393877)
(0.00599183 0 0.413707)
(0.00334738 0 0.424197)
(-0.00300736 0 0.428975)
(-0.00262047 0 0.405936)
(-0.00492961 0 0.239579)
(0.02336 0 -0.201557)
(-0.00506549 0 -0.547987)
(-0.036023 0 -0.194541)
(-0.0097874 0 0.218369)
(-0.0129483 0 0.346183)
(-0.0117949 0 0.325185)
(-0.0143095 0 0.261573)
(-0.0118794 0 0.182102)
(-0.00851646 0 0.112194)
(-0.00478419 0 0.0867941)
(-0.00157704 0 0.11106)
(0.000672089 0 0.153991)
(0.00172003 0 0.187205)
(0.00204103 0 0.204533)
(0.00214545 0 0.211972)
(0.00238591 0 0.215112)
(0.00231019 0 0.212344)
(0.00412781 0 0.182852)
(0.00793855 0 0.0652679)
(0.0196935 0 -0.199863)
(0.00934743 0 -0.459647)
(-0.0144219 0 -0.38425)
(-0.0106976 0 -0.0877162)
(-0.0014063 0 0.119535)
(0.00148843 0 0.191137)
(0.00200981 0 0.201706)
(0.00205567 0 0.19744)
(0.00227395 0 0.191317)
(0.00249307 0 0.185486)
(0.0027144 0 0.18004)
(0.0029123 0 0.17483)
(0.00308414 0 0.169791)
(0.00323069 0 0.16492)
(0.00335238 0 0.160222)
(0.00344993 0 0.155677)
(0.00352439 0 0.151232)
(0.00357745 0 0.146815)
(0.0036115 0 0.142343)
(0.00362952 0 0.137734)
(0.00363482 0 0.132918)
(0.00363086 0 0.127832)