/*--------------------------------*- C++ -*----------------------------------*\
  =========                 |
  \\      /  F ield         | OpenFOAM: The Open Source CFD Toolbox
   \\    /   O peration     | Website:  https://openfoam.org
    \\  /    A nd           | Version:  9
     \\/     M anipulation  |
\*---------------------------------------------------------------------------*/
FoamFile
{
    format      ascii;
    class       surfaceVectorField;
    location    "0.19";
    object      Uf;
}
// * * * * * * * * * * * * * * * * * * * * * * * * * * * * * * * * * * * * * //

dimensions      [0 1 -1 0 0 0 0];

internalField   nonuniform List<vector> 
39700
(
(0.000399297 0 0.0042413)
(0.000918388 0 0.00283543)
(0.000436609 0 0.00779992)
(0.000905581 0 0.00569666)
(0.000517676 0 0.0123775)
(0.00108121 0 0.00974631)
(0.000648673 0 0.0179503)
(0.00133232 0 0.0146801)
(0.000847624 0 0.0248701)
(0.00171974 0 0.0207059)
(0.00114527 0 0.033746)
(0.00229191 0 0.0282812)
(0.00159229 0 0.0454952)
(0.0031272 0 0.0381267)
(0.00227311 0 0.0614212)
(0.00434875 0 0.0512911)
(0.00333136 0 0.0832942)
(0.0061539 0 0.0692205)
(0.00501869 0 0.113413)
(0.00886144 0 0.0938045)
(0.00779 0 0.154652)
(0.0129992 0 0.127372)
(0.0125058 0 0.210561)
(0.0194585 0 0.172613)
(0.020889 0 0.285598)
(0.0297794 0 0.232447)
(0.0365976 0 0.384305)
(0.0466385 0 0.309673)
(0.0680103 0 0.495322)
(0.0744844 0 0.403133)
(0.13733 0 0.470418)
(0.124457 0 0.470677)
(0.311048 0 -1.19069)
(0.222299 0 0.198668)
(-0.100792 0 -2.80271)
(0.265296 0 -2.33662)
(-0.35137 0 -1.33085)
(-0.362512 0 -2.492)
(-0.129769 0 0.356948)
(-0.201201 0 -0.0312866)
(-0.0514711 0 0.523981)
(-0.101829 0 0.48427)
(-0.0222437 0 0.446274)
(-0.0505361 0 0.465922)
(-0.0101371 0 0.369883)
(-0.0265077 0 0.389024)
(-0.00491426 0 0.320757)
(-0.0136924 0 0.33498)
(-0.0026295 0 0.287359)
(-0.00729851 0 0.299432)
(-0.00163402 0 0.258314)
(-0.00416762 0 0.2717)
(-0.00115062 0 0.226058)
(-0.00261243 0 0.242681)
(-0.000743534 0 0.191316)
(-0.00167145 0 0.20754)
(-0.000259565 0 0.167961)
(-0.000847524 0 0.173346)
(0.000187969 0 0.172471)
(-5.98598e-05 0 0.161448)
(0.000359396 0 0.203395)
(0.000476795 0 0.185246)
(-4.79624e-05 0 0.223365)
(0.00032505 0 0.221292)
(-0.000673219 0 0.197333)
(-0.000535724 0 0.225505)
(-0.000652272 0 0.115658)
(-0.00100337 0 0.169075)
(5.881e-05 0 0.0424728)
(-0.00028542 0 0.0617267)
(0.000858181 0 0.0786864)
(0.000868787 0 0.0225659)
(0.00188617 0 0.198461)
(0.00238417 0 0.133984)
(0.00189087 0 0.300164)
(0.00336146 0 0.262252)
(0.00134447 0 0.357013)
(0.00290184 0 0.337921)
(0.000863019 0 0.386458)
(0.00204031 0 0.376062)
(0.000528187 0 0.402763)
(0.00134951 0 0.396664)
(0.000251986 0 0.411531)
(0.000863644 0 0.408567)
(-0.000260837 0 0.410513)
(0.000103091 0 0.414316)
(-0.000361395 0 0.37283)
(0.000486975 0 0.406452)
(0.00394187 0 0.11306)
(-0.00155611 0 0.336821)
(0.0205293 0 -0.537798)
(0.0254511 0 -0.121037)
(-0.0208664 0 -0.544196)
(-5.97234e-05 0 -0.941305)
(-0.00479335 0 0.0907422)
(-0.0269848 0 -0.133488)
(-0.000660701 0 0.32913)
(-0.000345787 0 0.305084)
(-0.00101066 0 0.335508)
(-0.00245686 0 0.351088)
(-0.00138634 0 0.293369)
(-0.00238749 0 0.319866)
(-0.00138181 0 0.232363)
(-0.00256704 0 0.266688)
(-0.000978648 0 0.164855)
(-0.00215171 0 0.197575)
(-0.000403115 0 0.118113)
(-0.00128228 0 0.131518)
(5.5959e-05 0 0.114484)
(-0.000393806 0 0.104136)
(0.00033968 0 0.143017)
(0.000257662 0 0.124376)
(0.000387563 0 0.175469)
(0.000582269 0 0.161319)
(0.000293007 0 0.197106)
(0.000582812 0 0.189387)
(0.000189694 0 0.208479)
(0.000445125 0 0.204625)
(0.000117854 0 0.214195)
(0.000324537 0 0.212112)
(3.98384e-05 0 0.216094)
(0.000242398 0 0.216053)
(-8.03494e-05 0 0.208764)
(0.000178022 0 0.215954)
(0.000169843 0 0.163819)
(0.000323089 0 0.201273)
(0.00310609 0 -0.0137349)
(0.00150754 0 0.124656)
(0.0106664 0 -0.400825)
(0.0128352 0 -0.15744)
(-0.00489951 0 -0.556158)
(0.0066843 0 -0.640497)
(-0.00783816 0 -0.240654)
(-0.0138588 0 -0.462955)
(-0.00143197 0 0.0723358)
(-0.00684408 0 -0.0201665)
(-2.05803e-06 0 0.181455)
(-0.000695909 0 0.160962)
(-2.5985e-05 0 0.202798)
(-0.000262948 0 0.201129)
(-0.000114611 0 0.201585)
(-0.000243617 0 0.204051)
(-0.000146407 0 0.196064)
(-0.000277378 0 0.199102)
(-0.000149624 0 0.190044)
(-0.000277294 0 0.192986)
(-0.000144888 0 0.184256)
(-0.000263776 0 0.187042)
(-0.000139539 0 0.178732)
(-0.000248572 0 0.181405)
(-0.000135057 0 0.173411)
(-0.000235654 0 0.175996)
(-0.000131447 0 0.16827)
(-0.000225477 0 0.170769)
(-0.000128763 0 0.163306)
(-0.000217873 0 0.165721)
(-0.000127296 0 0.158503)
(-0.000212938 0 0.160847)
(-0.000127399 0 0.153822)
(-0.000210985 0 0.156122)
(-0.000129322 0 0.149206)
(-0.0002123 0 0.151496)
(-0.000133135 0 0.144584)
(-0.000216965 0 0.146901)
(-0.000138722 0 0.139884)
(-0.000224797 0 0.142264)
(-0.000145815 0 0.135036)
(-0.000235369 0 0.137514)
(-0.000154042 0 0.129982)
(-0.000248068 0 0.132584)
(-0.000162973 0 0.124673)
(-0.000262163 0 0.127421)
(-0.000172157 0 0.119069)
(-0.000276873 0 0.121981)
(-0.000181145 0 0.113139)
(-0.000291402 0 0.116229)
(-0.000189478 0 0.106854)
(-0.000304953 0 0.110136)
(-0.000196664 0 0.100186)
(-0.000316707 0 0.103674)
(-0.000202122 0 0.0930995)
(-0.000325777 0 0.0968121)
(-0.000205138 0 0.0855516)
(-0.000331167 0 0.0895118)
(-0.000204898 0 0.077491)
(-0.000331798 0 0.0817243)
(-0.000200665 0 0.068869)
(-0.000326697 0 0.0733958)
(-0.000192153 0 0.0596594)
(-0.000315439 0 0.064483)
(-0.000179807 0 0.049878)
(-0.000298704 0 0.0549782)
(-0.000163808 0 0.039542)
(-0.000277734 0 0.0449196)
(-0.000140765 0 0.0284526)
(-0.000250185 0 0.0342919)
(-0.000102595 0 0.0157876)
(-0.000205474 0 0.0226946)
(-0.000133027 0 0.00893625)
(0.0014023 0 0.00418534)
(0.0015304 0 0.0028069)
(0.00155152 0 0.00746035)
(0.00153968 0 0.00523252)
(0.00185773 0 0.0117863)
(0.00188783 0 0.00883865)
(0.00235214 0 0.0170813)
(0.00237841 0 0.0132835)
(0.00309333 0 0.0236511)
(0.00312625 0 0.0187102)
(0.00417376 0 0.0320564)
(0.00421589 0 0.0255077)
(0.0057376 0 0.0431411)
(0.00577401 0 0.0342991)
(0.00801086 0 0.0580905)
(0.00799077 0 0.0459859)
(0.011351 0 0.0784757)
(0.0111544 0 0.0617882)
(0.0163286 0 0.106254)
(0.0157033 0 0.0832442)
(0.0238643 0 0.143699)
(0.0223066 0 0.112128)
(0.0354561 0 0.193242)
(0.031985 0 0.150256)
(0.0535465 0 0.257165)
(0.0463184 0 0.199181)
(0.0820577 0 0.335536)
(0.0676854 0 0.259691)
(0.126921 0 0.406397)
(0.0986782 0 0.328159)
(0.19645 0 0.28835)
(0.144179 0 0.359903)
(0.301083 0 -0.964519)
(0.250799 0 0.039749)
(-0.0259638 0 -2.21805)
(0.246817 0 -1.86308)
(-0.304203 0 -1.24289)
(-0.258633 0 -2.10794)
(-0.16869 0 0.16712)
(-0.23482 0 -0.209608)
(-0.0972694 0 0.453075)
(-0.109854 0 0.394673)
(-0.0530021 0 0.415198)
(-0.0669815 0 0.412983)
(-0.0281698 0 0.355584)
(-0.039474 0 0.360714)
(-0.0150176 0 0.313901)
(-0.0221456 0 0.320684)
(-0.00825532 0 0.28386)
(-0.0125043 0 0.292425)
(-0.0048417 0 0.256341)
(-0.00728563 0 0.268328)
(-0.00300565 0 0.224746)
(-0.0044641 0 0.240952)
(-0.00172153 0 0.19029)
(-0.00270723 0 0.206387)
(-0.000609061 0 0.167124)
(-0.00128287 0 0.172394)
(0.000256239 0 0.171831)
(-5.50373e-05 0 0.160742)
(0.000594793 0 0.20304)
(0.000758479 0 0.185021)
(-0.000109205 0 0.223227)
(0.000553118 0 0.221761)
(-0.00109972 0 0.19707)
(-0.000721386 0 0.226165)
(-0.000806664 0 0.115139)
(-0.00127745 0 0.16888)
(0.000604801 0 0.0419543)
(3.28504e-05 0 0.0607858)
(0.00213986 0 0.078015)
(0.0016891 0 0.0215426)
(0.00424533 0 0.197775)
(0.00403389 0 0.13258)
(0.00459291 0 0.299836)
(0.00583191 0 0.26202)
(0.00361388 0 0.35679)
(0.00521738 0 0.338574)
(0.00249343 0 0.386133)
(0.00381712 0 0.376809)
(0.00160837 0 0.402334)
(0.00261093 0 0.397254)
(0.000984691 0 0.411157)
(0.00182055 0 0.408983)
(0.000172336 0 0.409949)
(0.000277348 0 0.414858)
(0.000866016 0 0.37033)
(0.00202044 0 0.405989)
(0.0109215 0 0.105252)
(-0.00255715 0 0.330118)
(0.0307494 0 -0.527245)
(0.040007 0 -0.134256)
(-0.0319736 0 -0.533309)
(-4.69152e-05 0 -0.899489)
(-0.013415 0 0.0833929)
(-0.0429851 0 -0.14586)
(-0.00398694 0 0.326862)
(-0.000966959 0 0.298798)
(-0.00318143 0 0.335066)
(-0.00557414 0 0.350551)
(-0.00368055 0 0.293016)
(-0.00451868 0 0.320198)
(-0.00346944 0 0.231824)
(-0.00470535 0 0.266547)
(-0.00248209 0 0.164239)
(-0.0038757 0 0.196917)
(-0.00121675 0 0.117565)
(-0.00237413 0 0.130674)
(-0.00015755 0 0.11402)
(-0.000898948 0 0.10343)
(0.00057442 0 0.142618)
(0.000231943 0 0.123888)
(0.000836511 0 0.175139)
(0.000883231 0 0.161144)
(0.000748584 0 0.196804)
(0.000988718 0 0.189445)
(0.000570779 0 0.208167)
(0.000828385 0 0.204743)
(0.000435638 0 0.213877)
(0.000673667 0 0.212202)
(0.000349321 0 0.215784)
(0.000598294 0 0.21611)
(0.000428242 0 0.208261)
(0.00062413 0 0.215901)
(0.00186066 0 0.162112)
(0.00125984 0 0.200318)
(0.00813737 0 -0.0178752)
(0.00285385 0 0.120472)
(0.0178056 0 -0.397929)
(0.0202045 0 -0.163885)
(-0.00745979 0 -0.549305)
(0.0104346 0 -0.623653)
(-0.0148815 0 -0.241928)
(-0.0213528 0 -0.458007)
(-0.00475603 0 0.0691128)
(-0.0110096 0 -0.0269168)
(-0.000965032 0 0.180501)
(-0.00176368 0 0.158435)
(-0.00040018 0 0.202515)
(-0.000884985 0 0.200752)
(-0.000395522 0 0.201351)
(-0.00059931 0 0.204048)
(-0.000405023 0 0.195813)
(-0.000559088 0 0.199111)
(-0.000389885 0 0.189789)
(-0.000512228 0 0.192973)
(-0.000365947 0 0.184008)
(-0.000466137 0 0.18702)
(-0.000343293 0 0.178494)
(-0.000426329 0 0.181383)
(-0.00032485 0 0.173187)
(-0.000394681 0 0.175977)
(-0.000310801 0 0.16806)
(-0.000370467 0 0.170754)
(-0.000301013 0 0.163109)
(-0.000352757 0 0.16571)
(-0.000295646 0 0.158319)
(-0.000341194 0 0.160841)
(-0.000294988 0 0.153652)
(-0.00033583 0 0.156121)
(-0.000299172 0 0.14905)
(-0.00033674 0 0.151501)
(-0.000308027 0 0.144441)
(-0.000343737 0 0.146913)
(-0.000321046 0 0.139753)
(-0.000356268 0 0.142283)
(-0.000337441 0 0.134918)
(-0.000373433 0 0.137539)
(-0.000356227 0 0.129875)
(-0.000394069 0 0.132614)
(-0.00037631 0 0.124576)
(-0.000416851 0 0.127455)
(-0.000396556 0 0.118982)
(-0.00044039 0 0.122017)
(-0.000415821 0 0.11306)
(-0.000463291 0 0.116265)
(-0.000432951 0 0.106782)
(-0.00048418 0 0.110169)
(-0.000446731 0 0.100118)
(-0.000501685 0 0.103702)
(-0.000455852 0 0.093033)
(-0.000514388 0 0.0968314)
(-0.000458925 0 0.0854833)
(-0.000520803 0 0.0895186)
(-0.00045467 0 0.0774173)
(-0.000519461 0 0.0817143)
(-0.000442348 0 0.0687873)
(-0.000509193 0 0.0733656)
(-0.000422387 0 0.0595692)
(-0.000489748 0 0.0644317)
(-0.000396475 0 0.0497779)
(-0.000462645 0 0.0549083)
(-0.000364966 0 0.0394167)
(-0.000430493 0 0.0448305)
(-0.000320989 0 0.0282588)
(-0.000390958 0 0.0341614)
(-0.000252715 0 0.0155157)
(-0.000332314 0 0.0224822)
(-0.000253307 0 0.00870245)
(0.00166288 0 0.00382676)
(0.00110421 0 0.00257596)
(0.00190027 0 0.00658861)
(0.00114653 0 0.00449243)
(0.00235627 0 0.010342)
(0.00157369 0 0.00748354)
(0.00308332 0 0.0149665)
(0.00216068 0 0.0112248)
(0.00415814 0 0.0206978)
(0.00304623 0 0.0158106)
(0.00569441 0 0.0280049)
(0.00431926 0 0.0215582)
(0.00786018 0 0.0375992)
(0.0061023 0 0.0289915)
(0.0109036 0 0.0504696)
(0.00857302 0 0.038875)
(0.0151907 0 0.0678942)
(0.0119851 0 0.0522387)
(0.0212587 0 0.0913876)
(0.0167041 0 0.0703609)
(0.0298858 0 0.122546)
(0.0232499 0 0.0946698)
(0.0421739 0 0.162775)
(0.0323461 0 0.126551)
(0.0596366 0 0.212801)
(0.0450433 0 0.167068)
(0.0843746 0 0.270201)
(0.0630204 0 0.216326)
(0.12009 0 0.30796)
(0.0881595 0 0.268472)
(0.176098 0 0.141631)
(0.120259 0 0.270675)
(0.261825 0 -0.830173)
(0.221259 0 -0.0904534)
(0.00950035 0 -1.79578)
(0.207082 0 -1.49773)
(-0.24097 0 -1.13577)
(-0.170866 0 -1.7622)
(-0.149285 0 0.0249195)
(-0.215586 0 -0.330258)
(-0.0891998 0 0.375793)
(-0.0848876 0 0.319295)
(-0.0547893 0 0.373224)
(-0.0596819 0 0.371832)
(-0.0329688 0 0.332981)
(-0.0368367 0 0.335837)
(-0.0192576 0 0.302103)
(-0.0220406 0 0.305781)
(-0.0111568 0 0.277913)
(-0.0132363 0 0.28403)
(-0.00663172 0 0.253363)
(-0.00801823 0 0.263858)
(-0.00401576 0 0.223053)
(-0.00498246 0 0.238489)
(-0.00217526 0 0.189047)
(-0.00295771 0 0.204735)
(-0.000672674 0 0.166144)
(-0.00125982 0 0.171108)
(0.000427308 0 0.171276)
(0.000169809 0 0.159844)
(0.000837365 0 0.203251)
(0.00110386 0 0.184747)
(-1.74005e-05 0 0.223986)
(0.000843806 0 0.222331)
(-0.00111778 0 0.197407)
(-0.00071125 0 0.226899)
(-0.000560098 0 0.114466)
(-0.00125618 0 0.168508)
(0.00127918 0 0.0407422)
(0.000575539 0 0.0595597)
(0.00321857 0 0.076499)
(0.00247309 0 0.0202497)
(0.00601456 0 0.196769)
(0.00533555 0 0.130716)
(0.00667114 0 0.30015)
(0.00783425 0 0.261582)
(0.00546838 0 0.357746)
(0.00714346 0 0.339376)
(0.00392859 0 0.387069)
(0.00533803 0 0.377835)
(0.00263271 0 0.40307)
(0.00370473 0 0.398118)
(0.00173923 0 0.411829)
(0.00274343 0 0.409579)
(0.000881656 0 0.410174)
(0.000324558 0 0.415429)
(0.00141675 0 0.36611)
(0.00326313 0 0.405632)
(0.0149215 0 0.0931654)
(-0.00389679 0 0.321114)
(0.0350321 0 -0.509324)
(0.0476714 0 -0.147663)
(-0.0367799 0 -0.514894)
(0.000130258 0 -0.851615)
(-0.0188704 0 0.0720328)
(-0.0518629 0 -0.1578)
(-0.00632838 0 0.32283)
(-0.00125464 0 0.290437)
(-0.005436 0 0.3351)
(-0.00825883 0 0.349956)
(-0.00576096 0 0.293151)
(-0.00629656 0 0.320415)
(-0.00521928 0 0.231348)
(-0.00657956 0 0.266186)
(-0.00376263 0 0.163325)
(-0.00535153 0 0.195946)
(-0.00199485 0 0.116611)
(-0.00333213 0 0.129496)
(-0.000491133 0 0.113285)
(-0.00141591 0 0.102428)
(0.000610397 0 0.142221)
(9.6735e-05 0 0.123153)
(0.00109815 0 0.175097)
(0.00104812 0 0.160819)
(0.00108944 0 0.196956)
(0.00128601 0 0.189451)
(0.000922649 0 0.20834)
(0.00115269 0 0.204854)
(0.000810465 0 0.214005)
(0.00101274 0 0.212277)
(0.000822251 0 0.215816)
(0.000984183 0 0.216103)
(0.00113439 0 0.207701)
(0.00108678 0 0.215693)
(0.00315013 0 0.159038)
(0.00213857 0 0.198974)
(0.0112103 0 -0.0243131)
(0.00369703 0 0.115098)
(0.0214316 0 -0.391297)
(0.0244592 0 -0.1707)
(-0.00841576 0 -0.535618)
(0.0126643 0 -0.603755)
(-0.0185807 0 -0.242916)
(-0.0252283 0 -0.45123)
(-0.00688257 0 0.0634612)
(-0.0135184 0 -0.0347155)
(-0.00189247 0 0.178774)
(-0.00256635 0 0.155108)
(-0.000900945 0 0.202329)
(-0.00144288 0 0.200091)
(-0.000733506 0 0.201372)
(-0.000934532 0 0.203911)
(-0.000650045 0 0.195834)
(-0.000810234 0 0.199039)
(-0.000580709 0 0.189798)
(-0.000696239 0 0.192911)
(-0.000521909 0 0.184014)
(-0.000604121 0 0.186964)
(-0.000474493 0 0.178504)
(-0.000532001 0 0.181336)
(-0.000437796 0 0.1732)
(-0.000476983 0 0.175939)
(-0.000410382 0 0.168077)
(-0.00043564 0 0.170724)
(-0.000391232 0 0.163131)
(-0.000405497 0 0.165688)
(-0.000379958 0 0.158347)
(-0.000385294 0 0.160827)
(-0.000376445 0 0.153686)
(-0.000374536 0 0.156117)
(-0.000380461 0 0.149091)
(-0.000372886 0 0.151506)
(-0.000391436 0 0.144489)
(-0.000379759 0 0.146928)
(-0.000408415 0 0.139808)
(-0.000394174 0 0.142308)
(-0.00043011 0 0.134978)
(-0.00041476 0 0.137571)
(-0.000455008 0 0.12994)
(-0.000439855 0 0.132654)
(-0.000481478 0 0.124643)
(-0.000467636 0 0.127499)
(-0.000507861 0 0.119049)
(-0.000496226 0 0.122063)
(-0.000532527 0 0.113124)
(-0.000523782 0 0.11631)
(-0.000553882 0 0.106839)
(-0.000548534 0 0.11021)
(-0.000570341 0 0.100166)
(-0.000568766 0 0.103735)
(-0.0005803 0 0.0930667)
(-0.000582773 0 0.0968525)
(-0.000582172 0 0.0854979)
(-0.000588841 0 0.0895228)
(-0.000574598 0 0.0774083)
(-0.000585348 0 0.0816966)
(-0.000556927 0 0.0687521)
(-0.000571083 0 0.0733223)
(-0.000529884 0 0.0595087)
(-0.00054589 0 0.0643622)
(-0.000495638 0 0.0496939)
(-0.000511639 0 0.054816)
(-0.000455456 0 0.0393003)
(-0.000472087 0 0.0447169)
(-0.000406143 0 0.0280901)
(-0.000427428 0 0.0340152)
(-0.000346921 0 0.0153296)
(-0.000371889 0 0.0222979)
(-0.000317906 0 0.00857039)
(0.000620635 0 0.00325994)
(-0.000725906 0 0.00223065)
(0.000873155 0 0.00544903)
(-0.00068528 0 0.00370742)
(0.00134095 0 0.00849935)
(-0.000279456 0 0.00609672)
(0.00207876 0 0.0122967)
(0.000246198 0 0.00913912)
(0.00315391 0 0.0170232)
(0.00104047 0 0.0129129)
(0.00466056 0 0.0230637)
(0.00216919 0 0.0176871)
(0.00673243 0 0.0310136)
(0.00372255 0 0.0239173)
(0.00955615 0 0.0417038)
(0.00583144 0 0.0322831)
(0.0133914 0 0.0561959)
(0.00867525 0 0.0437035)
(0.0185975 0 0.0757133)
(0.0125042 0 0.0593136)
(0.0256693 0 0.101475)
(0.0176667 0 0.0803604)
(0.035293 0 0.134415)
(0.0246402 0 0.107986)
(0.0484455 0 0.174613)
(0.0341009 0 0.142883)
(0.0667082 0 0.218037)
(0.0473101 0 0.184311)
(0.0939118 0 0.232414)
(0.0667218 0 0.223011)
(0.140679 0 0.0401573)
(0.0901766 0 0.196163)
(0.199402 0 -0.743669)
(0.173657 0 -0.179646)
(0.0264725 0 -1.48926)
(0.161453 0 -1.24734)
(-0.175607 0 -1.01984)
(-0.110509 0 -1.48327)
(-0.121827 0 -0.0629582)
(-0.177319 0 -0.401026)
(-0.0677554 0 0.314965)
(-0.0612298 0 0.251463)
(-0.0420149 0 0.33965)
(-0.0451388 0 0.341048)
(-0.0268414 0 0.31313)
(-0.0266328 0 0.318538)
(-0.0167346 0 0.290591)
(-0.0163875 0 0.294796)
(-0.0102852 0 0.271654)
(-0.0102471 0 0.277348)
(-0.00640141 0 0.250077)
(-0.0064035 0 0.260022)
(-0.00394409 0 0.221131)
(-0.00409179 0 0.236174)
(-0.00204282 0 0.187637)
(-0.00238067 0 0.203028)
(-0.000406416 0 0.165071)
(-0.000755751 0 0.169708)
(0.000797477 0 0.17074)
(0.000675002 0 0.158862)
(0.0012076 0 0.203643)
(0.00160418 0 0.184474)
(0.00019646 0 0.224991)
(0.00123667 0 0.223005)
(-0.00102306 0 0.197808)
(-0.00056776 0 0.227712)
(-0.000233319 0 0.113594)
(-0.00111494 0 0.167982)
(0.00195243 0 0.0392207)
(0.00113198 0 0.0581027)
(0.00422451 0 0.0746135)
(0.00324027 0 0.018735)
(0.00754709 0 0.195505)
(0.00649041 0 0.128501)
(0.00844377 0 0.30058)
(0.00951391 0 0.260984)
(0.00703867 0 0.359118)
(0.0087533 0 0.340312)
(0.00514225 0 0.388504)
(0.00661724 0 0.3791)
(0.0034951 0 0.404266)
(0.00458945 0 0.399216)
(0.00228892 0 0.412861)
(0.00351605 0 0.410383)
(0.00113638 0 0.410706)
(0.00016298 0 0.416198)
(0.00115306 0 0.360963)
(0.003768 0 0.405621)
(0.0168005 0 0.0807254)
(-0.00498385 0 0.310683)
(0.0359735 0 -0.490412)
(0.0502368 0 -0.160445)
(-0.0380023 0 -0.495023)
(0.000164833 0 -0.802297)
(-0.0221328 0 0.0609542)
(-0.0554238 0 -0.16838)
(-0.0078261 0 0.317905)
(-0.0018412 0 0.280899)
(-0.00720383 0 0.335196)
(-0.0102277 0 0.349541)
(-0.00756815 0 0.293272)
(-0.00768576 0 0.320657)
(-0.00677465 0 0.230687)
(-0.00820918 0 0.265657)
(-0.00490793 0 0.162114)
(-0.00663484 0 0.194702)
(-0.00270106 0 0.11535)
(-0.00418384 0 0.128024)
(-0.000815527 0 0.112302)
(-0.00189763 0 0.101171)
(0.000595181 0 0.141683)
(-6.30178e-05 0 0.122213)
(0.00128231 0 0.175036)
(0.00114209 0 0.160361)
(0.00136091 0 0.197175)
(0.00150549 0 0.189399)
(0.00123145 0 0.208606)
(0.00141803 0 0.204941)
(0.00116557 0 0.214197)
(0.00131229 0 0.212321)
(0.00125938 0 0.215841)
(0.00133291 0 0.21604)
(0.00167018 0 0.206956)
(0.00144496 0 0.215419)
(0.0039181 0 0.15526)
(0.00277843 0 0.197475)
(0.0131384 0 -0.0310946)
(0.00434518 0 0.108951)
(0.0232567 0 -0.383689)
(0.0265492 0 -0.177445)
(-0.00850714 0 -0.520215)
(0.0136719 0 -0.582579)
(-0.0205871 0 -0.243192)
(-0.0265606 0 -0.443177)
(-0.00822088 0 0.0571996)
(-0.0149309 0 -0.0429597)
(-0.00245386 0 0.176559)
(-0.0031329 0 0.151263)
(-0.00126639 0 0.202015)
(-0.00179424 0 0.1993)
(-0.00100534 0 0.20136)
(-0.00114915 0 0.203698)
(-0.000838834 0 0.195857)
(-0.000973451 0 0.198897)
(-0.000708524 0 0.189827)
(-0.000798803 0 0.192794)
(-0.000607262 0 0.184051)
(-0.000660743 0 0.186869)
(-0.000529867 0 0.178548)
(-0.000554823 0 0.18126)
(-0.000471527 0 0.17325)
(-0.000474601 0 0.175878)
(-0.00042827 0 0.168132)
(-0.000414351 0 0.170677)
(-0.000397624 0 0.163191)
(-0.000370051 0 0.165653)
(-0.000378375 0 0.158412)
(-0.000339455 0 0.160804)
(-0.000369874 0 0.153759)
(-0.000321453 0 0.156106)
(-0.000371451 0 0.14917)
(-0.000315243 0 0.151509)
(-0.000382113 0 0.144576)
(-0.000319818 0 0.146943)
(-0.000400455 0 0.139902)
(-0.000333765 0 0.142334)
(-0.000424727 0 0.135077)
(-0.000355274 0 0.137608)
(-0.000452944 0 0.130041)
(-0.000382245 0 0.132699)
(-0.000483028 0 0.124744)
(-0.000412426 0 0.127549)
(-0.000512911 0 0.119146)
(-0.00044355 0 0.122116)
(-0.000540604 0 0.113214)
(-0.000473426 0 0.116361)
(-0.000564215 0 0.106919)
(-0.000499988 0 0.110256)
(-0.000581911 0 0.100229)
(-0.000521279 0 0.103771)
(-0.00059188 0 0.0931099)
(-0.000535397 0 0.0968737)
(-0.000592371 0 0.0855153)
(-0.000540475 0 0.0895238)
(-0.000581924 0 0.0773954)
(-0.000534809 0 0.0816722)
(-0.000559922 0 0.0687068)
(-0.000517233 0 0.0732684)
(-0.000527359 0 0.0594332)
(-0.000487781 0 0.0642785)
(-0.000487021 0 0.0495925)
(-0.00044857 0 0.0547073)
(-0.000441759 0 0.0391736)
(-0.000404052 0 0.0445889)
(-0.000392872 0 0.027943)
(-0.000357196 0 0.0338701)
(-0.000346502 0 0.0152118)
(-0.000308013 0 0.0221536)
(-0.000271357 0 0.00849914)
(-0.00197392 0 0.0026881)
(-0.00382973 0 0.00189276)
(-0.0017686 0 0.00439144)
(-0.00381998 0 0.00306838)
(-0.00139527 0 0.00681386)
(-0.00349101 0 0.00499063)
(-0.000809806 0 0.00987988)
(-0.00310321 0 0.00748648)
(3.68219e-05 0 0.013748)
(-0.00251267 0 0.0106336)
(0.00121005 0 0.0187531)
(-0.00167686 0 0.0146731)
(0.00279897 0 0.0254243)
(-0.00053492 0 0.0200235)
(0.00492879 0 0.034508)
(0.00100256 0 0.0273081)
(0.0077735 0 0.0469596)
(0.00305727 0 0.037372)
(0.0115746 0 0.0638731)
(0.00580167 0 0.0512489)
(0.0166742 0 0.086311)
(0.00948288 0 0.0700404)
(0.0235755 0 0.115012)
(0.0144521 0 0.0946701)
(0.033052 0 0.149654)
(0.0211976 0 0.12546)
(0.0465087 0 0.184339)
(0.0306809 0 0.16072)
(0.067728 0 0.180752)
(0.0458885 0 0.187549)
(0.106016 0 -0.0251966)
(0.0656405 0 0.135168)
(0.145541 0 -0.676896)
(0.130611 0 -0.239676)
(0.0291575 0 -1.26148)
(0.121005 0 -1.07883)
(-0.123397 0 -0.910967)
(-0.0720643 0 -1.27269)
(-0.0974296 0 -0.113308)
(-0.139946 0 -0.435193)
(-0.0490358 0 0.269772)
(-0.0460706 0 0.190755)
(-0.0279288 0 0.317785)
(-0.0308146 0 0.315805)
(-0.0173025 0 0.300198)
(-0.0153418 0 0.306422)
(-0.0107138 0 0.28241)
(-0.00907094 0 0.287635)
(-0.00669064 0 0.266774)
(-0.00549796 0 0.273179)
(-0.00430434 0 0.24722)
(-0.00333447 0 0.257664)
(-0.00267429 0 0.219227)
(-0.002147 0 0.23464)
(-0.00118022 0 0.186115)
(-0.00109586 0 0.201687)
(0.000288376 0 0.163882)
(0.000187649 0 0.168452)
(0.00140635 0 0.170103)
(0.00144387 0 0.15795)
(0.00170601 0 0.203923)
(0.00225301 0 0.184274)
(0.000524158 0 0.225832)
(0.00172816 0 0.223792)
(-0.000790892 0 0.197975)
(-0.000281966 0 0.228589)
(0.000151674 0 0.112519)
(-0.000856364 0 0.167354)
(0.00259512 0 0.0375948)
(0.00164432 0 0.0564739)
(0.00517243 0 0.0725989)
(0.00396148 0 0.0170167)
(0.00882669 0 0.194008)
(0.00751949 0 0.126065)
(0.00990448 0 0.300799)
(0.0108759 0 0.260266)
(0.00834839 0 0.36039)
(0.0100604 0 0.34135)
(0.00614291 0 0.389899)
(0.00767123 0 0.38057)
(0.00416209 0 0.405432)
(0.00526598 0 0.400537)
(0.00258271 0 0.413848)
(0.00409358 0 0.411436)
(0.00108422 0 0.411256)
(-0.000143276 0 0.417197)
(0.000747743 0 0.355508)
(0.00369319 0 0.405845)
(0.0172799 0 0.0693039)
(-0.00531096 0 0.299661)
(0.0336823 0 -0.47227)
(0.0490083 0 -0.17138)
(-0.0363333 0 -0.475587)
(-0.000233096 0 -0.75562)
(-0.0239566 0 0.0513529)
(-0.0551492 0 -0.176631)
(-0.0090855 0 0.312705)
(-0.00302726 0 0.270985)
(-0.0085375 0 0.335154)
(-0.0116022 0 0.349176)
(-0.00900744 0 0.293157)
(-0.0087354 0 0.320971)
(-0.0080765 0 0.229739)
(-0.00956822 0 0.265037)
(-0.00590544 0 0.160637)
(-0.00771857 0 0.193254)
(-0.00334187 0 0.113857)
(-0.0049429 0 0.126315)
(-0.0011324 0 0.111101)
(-0.00234889 0 0.0996978)
(0.000536321 0 0.140926)
(-0.000240438 0 0.1211)
(0.00139864 0 0.174771)
(0.00117384 0 0.159786)
(0.00157013 0 0.197216)
(0.00165485 0 0.189284)
(0.00148902 0 0.208706)
(0.0016258 0 0.204995)
(0.00146272 0 0.21422)
(0.00156126 0 0.212338)
(0.00159896 0 0.215689)
(0.0016272 0 0.215949)
(0.00206429 0 0.206021)
(0.00171492 0 0.215109)
(0.00453176 0 0.151222)
(0.00326247 0 0.19583)
(0.014298 0 -0.0374846)
(0.00504502 0 0.102441)
(0.0231333 0 -0.376234)
(0.0269392 0 -0.183335)
(-0.00794922 0 -0.505301)
(0.0135935 0 -0.561858)
(-0.0209382 0 -0.24296)
(-0.0260614 0 -0.434518)
(-0.00910188 0 0.0510705)
(-0.0154699 0 -0.0508506)
(-0.00281522 0 0.174071)
(-0.00355435 0 0.147072)
(-0.00145315 0 0.201503)
(-0.001942 0 0.198392)
(-0.0011364 0 0.20118)
(-0.00120966 0 0.20344)
(-0.000917526 0 0.195731)
(-0.00100987 0 0.198709)
(-0.000740401 0 0.189729)
(-0.000790029 0 0.192635)
(-0.000601177 0 0.183974)
(-0.000615079 0 0.186738)
(-0.000494397 0 0.17849)
(-0.000479393 0 0.181154)
(-0.000413641 0 0.173208)
(-0.000375174 0 0.175795)
(-0.000353303 0 0.168104)
(-0.000295927 0 0.170612)
(-0.00030973 0 0.163175)
(-0.000236724 0 0.165604)
(-0.000280925 0 0.158409)
(-0.000194606 0 0.16077)
(-0.000265686 0 0.153768)
(-0.000167948 0 0.156087)
(-0.000262893 0 0.149193)
(-0.000155516 0 0.151505)
(-0.00027113 0 0.144611)
(-0.000155901 0 0.146954)
(-0.000288576 0 0.139947)
(-0.000167298 0 0.14236)
(-0.000313066 0 0.135131)
(-0.000187513 0 0.137646)
(-0.000342219 0 0.130101)
(-0.000214072 0 0.132745)
(-0.000373589 0 0.124807)
(-0.00024438 0 0.127602)
(-0.000404783 0 0.119208)
(-0.000275859 0 0.12217)
(-0.000433533 0 0.113271)
(-0.000306052 0 0.116414)
(-0.000457712 0 0.106966)
(-0.000332676 0 0.110302)
(-0.000475296 0 0.100262)
(-0.000353605 0 0.103806)
(-0.000484332 0 0.0931231)
(-0.000366822 0 0.0968928)
(-0.000482998 0 0.0855032)
(-0.000370409 0 0.0895208)
(-0.000469873 0 0.0773534)
(-0.000362694 0 0.0816415)
(-0.000444524 0 0.0686331)
(-0.000342687 0 0.0732062)
(-0.00040829 0 0.0593306)
(-0.000310777 0 0.0641853)
(-0.000364521 0 0.0494676)
(-0.000269488 0 0.0545892)
(-0.000317403 0 0.0390342)
(-0.000223791 0 0.0444556)
(-0.000271108 0 0.0278049)
(-0.000178762 0 0.0337328)
(-0.000233318 0 0.0151172)
(-0.000137954 0 0.0220361)
(-0.000113136 0 0.00844911)
(-0.0056056 0 0.0022504)
(-0.00763788 0 0.00162158)
(-0.00546143 0 0.00363468)
(-0.00766527 0 0.00261838)
(-0.00520763 0 0.005622)
(-0.00741851 0 0.00423536)
(-0.00480813 0 0.0081814)
(-0.00716433 0 0.00635389)
(-0.00422812 0 0.0114684)
(-0.00677731 0 0.0090673)
(-0.00342432 0 0.015795)
(-0.00622434 0 0.0126052)
(-0.00233564 0 0.0216561)
(-0.00546325 0 0.0173548)
(-0.000875129 0 0.0297519)
(-0.00443196 0 0.0238965)
(0.00108103 0 0.0409782)
(-0.00304469 0 0.0330174)
(0.00371129 0 0.0563464)
(-0.00117571 0 0.0456681)
(0.00727642 0 0.0767983)
(0.001362 0 0.0628302)
(0.0121624 0 0.102851)
(0.00483852 0 0.0852483)
(0.0190014 0 0.133546)
(0.00965498 0 0.112881)
(0.0291697 0 0.160532)
(0.0166284 0 0.142893)
(0.0466535 0 0.139939)
(0.0289989 0 0.158335)
(0.0793245 0 -0.0746784)
(0.0477912 0 0.0831115)
(0.107558 0 -0.629528)
(0.0984936 0 -0.28256)
(0.02467 0 -1.09598)
(0.0894599 0 -0.958815)
(-0.0898448 0 -0.824057)
(-0.0498137 0 -1.11463)
(-0.0781214 0 -0.149367)
(-0.109906 0 -0.450619)
(-0.0347396 0 0.231045)
(-0.0368304 0 0.136334)
(-0.0160296 0 0.302258)
(-0.0187086 0 0.293429)
(-0.00836776 0 0.292828)
(-0.00563159 0 0.297687)
(-0.00435917 0 0.278081)
(-0.00228719 0 0.283278)
(-0.00234097 0 0.264267)
(-0.000602666 0 0.271087)
(-0.00138626 0 0.245695)
(0.000106627 0 0.256721)
(-0.000716476 0 0.218017)
(0.000207988 0 0.234009)
(0.000185284 0 0.184939)
(0.000541378 0 0.200878)
(0.00128464 0 0.162864)
(0.00137342 0 0.167511)
(0.00219028 0 0.169549)
(0.00235941 0 0.157211)
(0.00230354 0 0.204232)
(0.00298588 0 0.184198)
(0.000956767 0 0.226649)
(0.00228409 0 0.22469)
(-0.000434993 0 0.198051)
(0.000114195 0 0.229517)
(0.000553206 0 0.111335)
(-0.000511022 0 0.166695)
(0.00317072 0 0.0358703)
(0.00208997 0 0.0547289)
(0.00601231 0 0.0704634)
(0.00459199 0 0.0151222)
(0.00986965 0 0.192357)
(0.00840498 0 0.123493)
(0.011068 0 0.300906)
(0.011954 0 0.259467)
(0.00940185 0 0.361648)
(0.0111003 0 0.342461)
(0.00693506 0 0.391333)
(0.00852102 0 0.382215)
(0.00464371 0 0.406672)
(0.00575331 0 0.402064)
(0.00267691 0 0.414921)
(0.00446683 0 0.412747)
(0.00087968 0 0.411888)
(-0.000502855 0 0.418395)
(0.000461111 0 0.350083)
(0.00324378 0 0.406124)
(0.0167829 0 0.0589536)
(-0.00503436 0 0.28878)
(0.0299465 0 -0.454938)
(0.0455992 0 -0.180156)
(-0.033764 0 -0.456864)
(-0.00102383 0 -0.713147)
(-0.0246903 0 0.0429856)
(-0.0527784 0 -0.18268)
(-0.0102044 0 0.307533)
(-0.00454337 0 0.261328)
(-0.00955987 0 0.335073)
(-0.012504 0 0.348747)
(-0.0101191 0 0.292952)
(-0.00952826 0 0.321343)
(-0.00913378 0 0.228622)
(-0.010678 0 0.26438)
(-0.00676173 0 0.158964)
(-0.00861969 0 0.191673)
(-0.00392707 0 0.112172)
(-0.00562434 0 0.124425)
(-0.00145088 0 0.109719)
(-0.00277934 0 0.098047)
(0.000434532 0 0.14)
(-0.000436528 0 0.119843)
(0.0014523 0 0.174356)
(0.00115324 0 0.159107)
(0.0017193 0 0.197129)
(0.0017458 0 0.189106)
(0.00169371 0 0.208695)
(0.00178231 0 0.205012)
(0.00170356 0 0.214139)
(0.00176023 0 0.212332)
(0.00186918 0 0.215439)
(0.00187047 0 0.215839)
(0.00239882 0 0.204969)
(0.00192909 0 0.214756)
(0.00508568 0 0.147084)
(0.00364112 0 0.194039)
(0.0148147 0 -0.0433849)
(0.00578338 0 0.0959546)
(0.0219593 0 -0.368908)
(0.0262666 0 -0.188098)
(-0.00722054 0 -0.490999)
(0.0128672 0 -0.542404)
(-0.0202888 0 -0.24237)
(-0.0245886 0 -0.425805)
(-0.00949193 0 0.045171)
(-0.0153775 0 -0.0580485)
(-0.00299235 0 0.171428)
(-0.00379367 0 0.142739)
(-0.00147249 0 0.200886)
(-0.00188606 0 0.197378)
(-0.00111496 0 0.20091)
(-0.00111158 0 0.203148)
(-0.000864488 0 0.195517)
(-0.000906424 0 0.198495)
(-0.000655555 0 0.189547)
(-0.000656313 0 0.192447)
(-0.000486938 0 0.183823)
(-0.000455285 0 0.186579)
(-0.000355003 0 0.178366)
(-0.000295672 0 0.181024)
(-0.00025348 0 0.173107)
(-0.000170294 0 0.175689)
(-0.000176303 0 0.168022)
(-7.32303e-05 0 0.170528)
(-0.000119275 0 0.163111)
(7.29043e-07 0 0.165539)
(-7.99147e-05 0 0.158362)
(5.48783e-05 0 0.160723)
(-5.65896e-05 0 0.153739)
(9.11566e-05 0 0.156058)
(-4.77911e-05 0 0.149181)
(0.000111124 0 0.151493)
(-5.17325e-05 0 0.144615)
(0.000116512 0 0.14696)
(-6.62364e-05 0 0.139965)
(0.000109442 0 0.142381)
(-8.87947e-05 0 0.135161)
(9.24176e-05 0 0.13768)
(-0.00011671 0 0.13014)
(6.82019e-05 0 0.13279)
(-0.000147249 0 0.12485)
(3.96582e-05 0 0.127653)
(-0.000177773 0 0.119252)
(9.59567e-06 0 0.122224)
(-0.000205815 0 0.113312)
(-1.93417e-05 0 0.116465)
(-0.000229094 0 0.106998)
(-4.47272e-05 0 0.110347)
(-0.000245492 0 0.100281)
(-6.43419e-05 0 0.103839)
(-0.000253031 0 0.0931227)
(-7.61348e-05 0 0.0969088)
(-0.000249952 0 0.085478)