/*--------------------------------*- C++ -*----------------------------------*\
  =========                 |
  \\      /  F ield         | OpenFOAM: The Open Source CFD Toolbox
   \\    /   O peration     | Website:  https://openfoam.org
    \\  /    A nd           | Version:  9
     \\/     M anipulation  |
\*---------------------------------------------------------------------------*/
FoamFile
{
    format      ascii;
    class       volScalarField;
    location    "0.17";
    object      alpha.water;
}
// * * * * * * * * * * * * * * * * * * * * * * * * * * * * * * * * * * * * * //

dimensions      [0 0 0 0 0 0 0];

internalField   nonuniform List<scalar> 
5000
(
1.80129e-20
4.26309e-18
3.8134e-16
1.1315e-14
8.9505e-14
3.2335e-13
1.10485e-11
8.30791e-10
3.48273e-08
8.9291e-07
1.61063e-05
4.67266e-05
0.0137594
0.770938
0.999999
0.999999
1
1
1
1
1
1
1
1
1
1
0.999999
0.999998
0.999631
0.547939
0.00122761
0.000238679
0.000255535
5.63066e-05
5.65749e-06
1.14045e-06
2.67433e-07
6.83779e-08
1.67878e-08
4.48669e-09
1.12107e-09
2.90987e-10
2.15983e-10
1.88225e-10
1.48113e-10
1.03447e-10
6.73281e-11
4.07868e-11
2.4148e-11
9.17044e-12
7.3676e-20
1.77062e-17
5.68766e-16
1.18694e-14
1.14618e-13
5.63511e-13
2.42915e-11
9.66383e-10
3.24359e-08
1.00974e-06
1.22901e-05
1.49224e-05
0.00238832
0.704162
0.999999
0.999999
1
1
1
1
1
1
1
1
1
1
0.999998
0.999998
0.990825
0.39536
0.000210611
0.00020265
0.000200127
9.42954e-05
6.69381e-06
1.34834e-06
2.84198e-07
7.53773e-08
1.95835e-08
5.18703e-09
1.33159e-09
3.12662e-10
2.22035e-10
2.11701e-10
1.77346e-10
1.32072e-10
9.094e-11
5.77925e-11
3.57241e-11
1.45807e-11
3.47208e-19
2.26443e-17
5.48248e-16
1.01198e-14
1.18901e-13
1.17312e-12
3.40933e-11
8.22745e-10
1.92357e-08
1.4813e-06
3.84045e-05
2.89904e-05
1.6213e-05
0.570971
0.999999
1
1
1
1
1
1
1
1
1
1
1
0.999999
0.999994
0.942782
0.22109
0.000234378
0.000248379
0.000162106
0.000111744
1.08002e-05
1.64438e-06
3.16596e-07
7.71054e-08
2.10568e-08
5.66796e-09
1.43525e-09
3.09575e-10
2.28709e-10
2.24589e-10
1.99782e-10
1.58909e-10
1.14524e-10
7.53947e-11
4.81219e-11
2.0786e-11
5.01375e-19
2.0665e-17
4.3822e-16
7.48324e-15
1.14058e-13
1.42768e-12
3.20289e-11
6.03701e-10
7.40314e-09
2.73431e-06
4.0043e-05
3.98437e-05
7.02199e-06
0.37988
0.987639
1
1
1
1
1
1
1
1
1
1
1
0.999988
0.999952
0.791768
0.0535404
0.000240325
0.0003211
0.00028514
9.27772e-05
1.0722e-05
1.99856e-06
4.10233e-07
8.19674e-08
2.19764e-08
6.15448e-09
1.52231e-09
2.97848e-10
2.32818e-10
2.2988e-10
2.14022e-10
1.80462e-10
1.35722e-10
9.21578e-11
6.03351e-11
2.72457e-11
4.30773e-19
1.45316e-17
2.97613e-16
6.37237e-15
1.06378e-13
1.32363e-12
2.56301e-11
6.12703e-10
1.34457e-08
2.90828e-06
3.04818e-05
2.45051e-05
6.15627e-06
0.178228
0.926371
1
1
1
1
1
1
1
1
1
1
0.999998
0.999994
0.990859
0.438234
0.000240302
0.000227486
0.000268904
0.000313462
9.03568e-05
8.89956e-06
2.12556e-06
5.20005e-07
1.00142e-07
2.34371e-08
6.68716e-09
1.65112e-09
2.84148e-10
2.33942e-10
2.32374e-10
2.22199e-10
1.95533e-10
1.52983e-10
1.07034e-10
7.16038e-11
3.35356e-11
2.58757e-19
9.59433e-18
2.58849e-16
6.30546e-15
1.04412e-13
1.07339e-12
2.56571e-11
7.40884e-10
3.24794e-08
2.52252e-06
2.51358e-06
5.64905e-06
6.07914e-06
0.0154209
0.777776
0.999999
0.999999
1
1
1
1
0.999999
0.999999
0.999998
0.999998
0.999997
0.999948
0.729215
0.0825062
0.000370854
0.000194488
0.000183864
0.000313462
0.000252267
1.55763e-05
1.75538e-06
5.3994e-07
1.24674e-07
2.7097e-08
7.31684e-09
1.86132e-09
2.825e-10
2.33693e-10
2.32506e-10
2.26985e-10
2.06072e-10
1.66394e-10
1.19576e-10
8.15975e-11
3.94237e-11
1.54193e-19
8.40287e-18
2.51033e-16
6.28381e-15
1.07004e-13
9.84787e-13
2.95826e-11
1.0065e-09
2.01837e-08
2.35601e-06
1.84993e-05
6.07914e-06
6.07315e-06
6.07913e-06
0.382757
0.962804
0.999999
0.999999
0.999999
0.999997
0.999995
0.999989
0.999973
0.999994
0.999997
0.999948
0.814766
0.157634
1.27184e-05
0.000621907
0.000263415
7.05187e-05
0.000313462
0.000312343
4.60504e-05
9.33502e-07
5.08549e-07
1.34884e-07
3.22652e-08
7.97813e-09
2.06237e-09
2.85057e-10
2.33256e-10
2.32327e-10
2.29519e-10
2.12326e-10
1.75958e-10
1.29819e-10
9.04229e-11
4.47324e-11
1.40888e-19
8.04422e-18
2.42587e-16
6.18855e-15
1.07823e-13
9.69812e-13
3.63911e-11
1.14069e-09
5.44804e-09
2.7714e-06
2.21973e-05
6.1554e-06
6.07393e-06
6.07393e-06
0.00694369
0.464642
0.967111
0.999998
0.999999
0.999997
0.999996
0.999992
0.999978
0.999984
0.994372
0.711122
0.156979
6.72768e-06
1.20959e-05
6.82383e-05
8.28722e-05
1.14521e-05
0.000129682
0.000305951
0.000122196
5.81738e-07
3.6631e-07
1.28986e-07
3.40179e-08
8.47899e-09
2.17212e-09
2.83557e-10
2.3348e-10
2.32078e-10
2.29421e-10
2.15358e-10
1.81694e-10
1.37003e-10
9.68781e-11
4.88303e-11
1.4422e-19
7.54985e-18
2.21257e-16
5.99407e-15
1.05858e-13
9.03318e-13
4.43714e-11
1.24807e-09
1.43296e-09
3.57277e-06
2.21827e-05
6.20044e-06
6.07272e-06
1.1829e-05
1.64042e-05
0.00899321
0.350863
0.777006
0.943098
0.98772
0.986217
0.965624
0.894641
0.740911
0.427414
0.0800289
6.72768e-06
4.59478e-06
2.27591e-06
2.73029e-06
4.47667e-06
4.03778e-06
4.59197e-06
0.000260068
0.000162892
2.59024e-06
3.11146e-07
1.06287e-07
3.28065e-08
8.69281e-09
2.18843e-09
2.77553e-10
2.32649e-10
2.31199e-10
2.28517e-10
2.15097e-10
1.85259e-10
1.42561e-10
1.02782e-10
5.265e-11
1.37771e-19
6.55336e-18
1.86909e-16
5.66913e-15
9.98709e-14
8.59287e-13
5.27334e-11
1.28402e-09
1.46802e-09
3.46168e-06
2.22049e-05
7.13685e-06
6.0733e-06
6.07388e-06
1.42701e-05
0.000155259
0.000152817
0.0937418
0.235627
0.345308
0.368468
0.321335
0.21026
0.0894781
0.00537666
0.000375049
0.000182274
5.26587e-06
3.67301e-07
1.59462e-06
3.97055e-06
3.98955e-06
4.03778e-06
4.28066e-05
0.000159559
1.34407e-05
2.36567e-07
1.02926e-07
2.90708e-08
8.54224e-09
2.14066e-09
2.64114e-10
2.30176e-10
2.29145e-10
2.26545e-10
2.13942e-10
1.86403e-10
1.4688e-10
1.06162e-10
5.29732e-11
1.10343e-19
5.00207e-18
1.6469e-16
5.53044e-15
9.65798e-14
9.51454e-13
6.2333e-11
1.12181e-09
7.69383e-10
3.16381e-06
2.22049e-05
8.75816e-06
6.07388e-06
6.07782e-06
0.000109621
4.97456e-05
0.000132021
0.000192168
0.000470837
0.000703238
0.000784828
0.000754959
0.000548382
0.000299977
0.000257586
0.000118795
2.71974e-05
4.65227e-07
5.28446e-08
4.88819e-06
4.77602e-06
7.78365e-05
1.07027e-05
1.28692e-05
0.000155596
1.7909e-05
1.01314e-07
1.06425e-07
2.56758e-08
7.78004e-09
1.97295e-09
2.41872e-10
2.24447e-10
2.26197e-10
2.23558e-10
2.1173e-10
1.85197e-10
1.4603e-10
1.05128e-10
5.15091e-11
7.24107e-20
3.55171e-18
1.67693e-16
5.69736e-15
9.77089e-14
1.18693e-12
5.71572e-11
6.59393e-10
8.37685e-10
4.80592e-06
2.22049e-05
8.64646e-06
1.52128e-05
0.000151207
0.000195717
6.19371e-06
1.17707e-05
4.41484e-05
9.42871e-05
0.000134968
0.000151926
0.000145337
0.000110523
6.04937e-05
2.67907e-05
9.62261e-06
1.25031e-06
6.73423e-08
1.69196e-08
1.08288e-05
4.2233e-05
0.00020379
6.45731e-05
1.12014e-05
0.0001227
1.36962e-05
8.84702e-08
9.26371e-08
2.23701e-08
6.24817e-09
1.60384e-09
2.15177e-10
2.16006e-10
2.22671e-10
2.20299e-10
2.08693e-10
1.82106e-10
1.42882e-10
1.01733e-10
4.55289e-11
4.93291e-20
3.18582e-18
1.88355e-16
6.22992e-15
1.01299e-13
1.23945e-12
4.51448e-11
3.96587e-10
6.89695e-10
9.40442e-06
2.21781e-05
8.64621e-06
8.94113e-06
0.00026235
0.000126446
2.57009e-07
1.11093e-06
3.8083e-06
5.91654e-06
7.19424e-06
7.92519e-06
7.30023e-06
5.81216e-06
4.17996e-06
2.32402e-06
9.11537e-07
2.25795e-07
5.81136e-08
1.59989e-08
2.74965e-05
0.000195415
0.00020394
0.00016588
5.23477e-06
1.81062e-05
1.14211e-05
8.21842e-08
7.90319e-08
1.70967e-08
4.60656e-09
1.13933e-09
2.11982e-10
2.10653e-10
2.19015e-10
2.1701e-10
2.04799e-10
1.76729e-10
1.36899e-10
9.42414e-11
3.56705e-11
3.02063e-20
3.56673e-18
2.44461e-16
7.11935e-15
1.05987e-13
1.11917e-12
3.30313e-11
5.12728e-10
2.98177e-09
7.2385e-06
1.61861e-05
8.63866e-06
0.000139794
0.00026235
2.61245e-05
1.9742e-07
2.00305e-07
4.75338e-07
1.00836e-06
9.79782e-07
8.94475e-07
8.09521e-07
6.27464e-07
4.1612e-07
2.24424e-07
9.16856e-08
2.46658e-08
3.14373e-08
1.53952e-08
6.28778e-05
0.000204102
0.000204101
0.00013859
1.49844e-06
2.90753e-06
1.08323e-05
8.92682e-08
8.49645e-08
9.96377e-09
3.42221e-09
7.12693e-10
2.10445e-10
2.09797e-10
2.15266e-10
2.13675e-10
1.99445e-10
1.68339e-10
1.27114e-10
8.23705e-11
2.48164e-11
1.0146e-20
5.94031e-18
3.63511e-16
8.2526e-15
1.07669e-13
9.04996e-13
3.29769e-11
9.26779e-10
9.72759e-09
1.81931e-06
1.52246e-05
9.34041e-06
0.000210483
0.000213906
2.02879e-06
1.96511e-07
1.96521e-07
2.00986e-07
4.44217e-07
2.84058e-07
9.11088e-08
7.51163e-08
6.23824e-08
4.58597e-08
2.80785e-08
1.57628e-08
1.42935e-08
1.5122e-08
1.43739e-08
5.67626e-05
0.000204102
0.000204102
4.4658e-05
1.1249e-06
2.37621e-06
1.07722e-05
1.05926e-07
9.19291e-08
5.2795e-09
2.64276e-09
3.61918e-10
2.09795e-10
2.09532e-10
2.12506e-10
2.09818e-10
1.91907e-10
1.56728e-10
1.13977e-10
6.75197e-11
1.53581e-11
1.55991e-20
1.53031e-17
6.08366e-16
9.71102e-15
1.07758e-13
7.9603e-13
3.47799e-11
9.35858e-10
1.33059e-08
2.17835e-07
1.28179e-05
0.000118943
0.000167423
1.39432e-05
1.96442e-07
1.96442e-07
1.96511e-07
4.88691e-07
1.0557e-06
2.35861e-07
1.39637e-08
1.33205e-08
1.36927e-08
1.26715e-08
1.23406e-08
1.23407e-08
1.25185e-08
1.29612e-08
1.35804e-08
4.37257e-05
0.000203853
0.00018073
3.03955e-06
1.09258e-06
2.66112e-06
1.06543e-05
8.10855e-08
1.01589e-07
1.44162e-09
1.53162e-09
3.18172e-10
2.09532e-10
2.09401e-10
2.11314e-10
2.05224e-10
1.81681e-10
1.4223e-10
9.84109e-11
5.18172e-11
8.5391e-12
5.1656e-20
4.47437e-17
1.13438e-15
1.21326e-14
1.09665e-13
8.18046e-13
3.8669e-11
5.41884e-10
6.55321e-09
3.5912e-06
6.44042e-06
0.0001175
2.12918e-05
1.97717e-07
1.9665e-07
1.96511e-07
2.09392e-07
2.79159e-06
2.76952e-06
4.39831e-07
1.2361e-08
1.23421e-08
1.23407e-08
1.23405e-08
1.23405e-08
1.23405e-08
1.23407e-08
1.23429e-08
1.35077e-08
4.26253e-05
0.000202206
0.000154397
1.09258e-06
9.93933e-07
2.64359e-06
1.01829e-05
9.25873e-09
6.46925e-08
6.05054e-10
3.57971e-10
2.74693e-10
2.09386e-10
2.09344e-10
2.10685e-10
2.00257e-10
1.68917e-10
1.26314e-10
8.24186e-11
3.74819e-11
4.2697e-12
1.74914e-19
1.25409e-16
2.2686e-15
1.68971e-14
1.18602e-13
9.12293e-13
4.09792e-11
3.015e-10
9.38858e-10
7.64195e-06
1.20026e-05
3.53668e-05
3.90726e-07
2.00196e-07
1.97708e-07
2.3129e-07
2.18876e-06
2.8114e-06
2.27396e-06
1.24573e-07
1.23562e-08
1.23414e-08
1.23405e-08
1.23405e-08
1.23405e-08
1.23405e-08
1.23405e-08
1.23524e-08
1.45374e-08
3.9863e-05
0.000199739
0.000158641
9.92776e-07
9.33772e-07
6.38323e-06
6.29516e-06
3.30121e-09
5.08893e-09
4.42082e-09
2.21631e-10
2.09327e-10
2.0933e-10
2.09378e-10
2.09893e-10
1.94942e-10
1.54763e-10
1.11535e-10
6.79916e-11
2.57981e-11
1.89938e-12
6.54591e-19
3.18842e-16
4.59072e-15
2.6399e-14
1.43087e-13
1.08482e-12
4.19526e-11
4.07722e-10
2.50347e-09
5.16108e-06
3.45759e-05
5.46194e-07
4.19568e-07
2.20539e-07
4.89083e-06
4.39152e-07
2.81125e-06
2.80884e-06
3.5667e-07
1.38275e-08
1.24017e-08
1.23552e-08
1.23411e-08
1.23405e-08
1.23405e-08
1.23405e-08
1.23406e-08
1.2358e-08
1.47604e-08
3.00141e-05
0.000198381
0.00019046
1.32637e-06
7.31204e-07
6.28095e-06
5.21884e-06
1.77778e-09
2.80311e-09
7.24639e-09
2.1232e-10
2.09444e-10
2.09413e-10
2.09715e-10
2.09309e-10
1.88563e-10
1.42578e-10
1.00214e-10
5.54589e-11
1.69371e-11
7.34898e-13
2.83066e-18
7.24602e-16
8.96916e-15
4.40527e-14
1.91881e-13
1.32889e-12
4.51147e-11
6.46746e-10
2.0671e-09
2.62743e-06
3.48103e-05
7.28693e-07
5.44353e-07
3.32988e-05
8.97025e-06
1.22791e-06
2.75646e-06
1.31299e-06
3.57311e-07
5.24627e-07
1.9674e-06
1.47806e-06
8.19441e-08
1.23448e-08
1.23405e-08
1.23406e-08
1.23407e-08
1.23539e-08
1.39675e-08
1.48224e-05
0.000190806
0.000210918
2.77524e-05
2.87999e-07
3.64066e-06
2.24358e-06
1.4669e-09
2.36401e-09
7.28971e-09
2.24815e-10
2.09539e-10
2.09583e-10
2.10518e-10
2.084e-10
1.81534e-10
1.35257e-10
9.1449e-11
4.42058e-11
1.06098e-11
2.43187e-13
1.05858e-17
1.47362e-15
1.64661e-14
7.38903e-14
2.70438e-13
1.64536e-12
5.46375e-11
8.57329e-10
6.07277e-10
2.15134e-06
3.47744e-05
2.14688e-05
2.98978e-05
3.85697e-05
8.41138e-06
3.92856e-06
1.46267e-06
9.62029e-07
1.11225e-06
4.83625e-06
4.88594e-06
4.88724e-06
4.2759e-06
5.91111e-07
1.23416e-08
1.23407e-08
1.23417e-08
1.23506e-08
1.3328e-08
9.61907e-06
0.000176937
0.000213239
6.30195e-05
1.8333e-07
1.67387e-07
8.29592e-09
1.40792e-09
1.40779e-09
4.45895e-09
2.1021e-10
2.09919e-10
2.10151e-10
2.11472e-10
2.07091e-10
1.77173e-10
1.3159e-10
8.26501e-11
3.37698e-11
6.30644e-12
6.5171e-14
3.11975e-17
2.69682e-15
2.80233e-14
1.19814e-13
3.90234e-13
2.38722e-12
6.56896e-11
7.5568e-10
3.83325e-10
2.08306e-06
3.30539e-05
4.08019e-05
4.13508e-05
3.64125e-05
4.42488e-06
2.01481e-06
8.83899e-07
9.68451e-07
4.86151e-06
4.88757e-06
4.88799e-06
4.88667e-06
4.88508e-06
4.83712e-06
9.39018e-07
1.23417e-08
1.23506e-08
1.2361e-08
1.32723e-08
9.99085e-06
0.00019384
0.000215411
8.86763e-05
1.34311e-07
6.65556e-08
4.8602e-09
5.77764e-09
5.0429e-10
5.16805e-10
2.10339e-10
2.10233e-10
2.10926e-10
2.12317e-10
2.06899e-10
1.76009e-10
1.27713e-10
7.18522e-11
2.4181e-11
3.50602e-12
6.75772e-15
7.55951e-17
4.46743e-15
4.39828e-14
1.84929e-13
5.76859e-13
4.33108e-12
7.52147e-11
3.80753e-10
3.70022e-10
2.34786e-06
5.21954e-06
4.13508e-05
4.15529e-05
1.36821e-05
1.39844e-06
8.86367e-07
8.85297e-07
4.63177e-06
4.87886e-06
4.71569e-06
3.41827e-06
3.97455e-06
4.87854e-06
4.87649e-06
4.81823e-06
5.01526e-07
1.2361e-08
1.2651e-08
1.37375e-08
1.71842e-05
0.000217335
0.000217078
0.000120668
1.2337e-07
1.09036e-07
4.56558e-08
1.35504e-08
5.02057e-10
6.02235e-10
2.10466e-10
2.1034e-10
2.11543e-10
2.1369e-10
2.08794e-10
1.75991e-10
1.20307e-10
5.82695e-11
1.58795e-11
1.80219e-12
1.28822e-16
1.54739e-16
6.73322e-15
6.37304e-14
2.71616e-13
8.61768e-13
6.81297e-12
8.86042e-11
1.03668e-10
7.84722e-10
8.30849e-07
8.83714e-07
3.98238e-05
4.15825e-05
9.3832e-06
8.89583e-07
8.87947e-07
3.54965e-06
4.70828e-06
4.53355e-06
7.13934e-07
7.03437e-07
7.03437e-07
1.02907e-06
4.86337e-06
4.86281e-06
4.41137e-06
1.45762e-07
3.64317e-08
2.7157e-08
6.53938e-05
0.000217845
0.000217446
0.000199503
1.35341e-07
1.11843e-07
3.27695e-07
7.80735e-09
4.45739e-10
1.40007e-09
2.10596e-10
2.10466e-10
2.13427e-10
2.20474e-10
2.13524e-10
1.73444e-10
1.06056e-10
4.27785e-11
9.39441e-12
8.45436e-13
-8.46142e-19
2.73372e-16
9.28192e-15
8.56027e-14
3.818e-13
1.25695e-12
6.57236e-12
1.28354e-10
1.65399e-10
1.62132e-09
3.98575e-08
1.78899e-05
4.15825e-05
4.16051e-05
1.06618e-05
9.47367e-07
1.87122e-06
4.67841e-06
4.68987e-06
6.34504e-07
6.76905e-07
6.92122e-07
7.14977e-07
1.04464e-06
1.21858e-06
4.85282e-06
4.82599e-06
1.17419e-06
4.35427e-08
6.28975e-06
0.000209035
0.000218089
0.000217912
0.000217696
1.95759e-05
9.25873e-08
3.85295e-07
1.74007e-08
3.81848e-10
1.44009e-09
2.11524e-10
2.10652e-10
2.16851e-10
2.23083e-10
2.20857e-10
1.64623e-10
8.38277e-11
2.77454e-11
4.95718e-12
3.58179e-13
-1.80178e-19
4.23557e-16
1.17337e-14
1.07236e-13
5.17894e-13
1.74742e-12
3.87821e-12
2.62661e-10
4.30247e-09
2.9909e-09
1.34411e-07
4.15246e-05
4.15406e-05
4.15842e-05
8.06312e-06
9.84543e-07
4.56429e-06
4.57778e-06
6.31107e-07
3.15627e-07
6.44048e-06
3.3575e-05
5.66488e-05
1.30439e-05
1.20544e-06
1.13249e-06
3.57507e-06
2.39064e-06
1.14402e-07
4.44196e-05
0.000218551
0.000218205
0.000218168
0.0002179
2.35981e-05
9.08982e-08
3.86822e-07
7.33858e-08
3.19928e-10
1.3326e-09
2.11042e-10
2.10937e-10
2.22325e-10
2.23236e-10
2.21897e-10
1.44574e-10
5.7386e-11
1.56999e-11
2.33031e-12
1.36029e-13
-4.04975e-20
5.82033e-16
1.37065e-14
1.25655e-13
6.64549e-13
2.29313e-12
2.51537e-12
5.57571e-10
6.01693e-09
4.52077e-09
1.80937e-07
4.14948e-05
4.15612e-05
4.15842e-05
2.71011e-06
3.28654e-06
4.52365e-06
1.47675e-06
2.45237e-07
2.46128e-07
1.04692e-05
0.0001257
0.000125876
0.000124687
1.78966e-05
7.27907e-07
6.85358e-07
6.94313e-07
3.46039e-07
9.36598e-05
0.000218566
0.000201559
0.000204048
0.000150926
1.07818e-05
7.72884e-08
3.854e-07
1.31092e-07
2.88366e-10
5.97346e-10
2.14629e-10
2.11682e-10
2.23389e-10
2.23389e-10
2.15767e-10
1.10728e-10
3.35627e-11
7.79034e-12
9.78201e-13
4.60597e-14
3.67806e-19
7.17696e-16
1.48874e-14
1.38387e-13
7.75686e-13
2.84789e-12
3.22036e-12
5.95894e-10
6.11099e-09
4.88565e-09
1.38107e-06
2.45072e-05
4.14948e-05
1.24395e-05
5.09469e-07
1.92294e-06
1.80843e-06
2.50919e-07
2.45242e-07
2.45242e-07
2.93343e-06
6.92299e-05
0.000126053
0.000126053
0.000119109
8.18732e-06
6.76059e-07
6.76204e-07
1.25783e-05
0.000101871
0.000140698
3.61656e-05
2.98007e-05
1.26648e-05
1.74368e-06
6.84875e-08
3.85858e-07
9.19499e-08
2.6694e-10
2.49812e-10
2.45693e-10
2.13605e-10
2.23352e-10
2.2312e-10
1.90337e-10
7.0222e-11
1.70145e-11
3.4549e-12
3.66117e-13
1.38127e-14
1.83759e-19
7.99124e-16
1.52e-14
1.44017e-13
8.29703e-13
3.33709e-12
8.4459e-12
5.30368e-10
3.69711e-09
3.7761e-08
4.35373e-06
2.0391e-06
4.14848e-05
5.96567e-07
2.84255e-07
2.19627e-07
2.16722e-07
2.21474e-07
5.43775e-07
2.26087e-05
3.00612e-05
1.65868e-05
3.58255e-05
0.000126053
0.000125894
3.11414e-05
6.8647e-07
6.78101e-07
2.26484e-05
0.0001015
1.40141e-05
1.16629e-05
2.95277e-06
3.60583e-07
3.94151e-08
4.33654e-08
3.00942e-07
1.10881e-08
2.74185e-10
2.66947e-10
2.92602e-10
2.16753e-10
2.22846e-10
2.17482e-10
1.37479e-10
3.65813e-11
7.77485e-12
1.391e-12
1.21241e-13
3.63074e-15
5.28591e-20
8.19865e-16
1.51305e-14
1.44434e-13
8.54865e-13
3.78866e-12
2.04927e-11
4.36707e-10
8.00817e-10
1.1226e-07
4.10742e-06
1.00099e-06
7.81768e-06
2.10889e-06
4.46199e-07
2.13835e-07
2.15415e-07
2.16721e-07
1.36374e-05
4.32375e-05
4.32381e-05
1.64494e-05
6.80914e-06
4.51499e-05
0.000125736
5.16007e-05
6.87106e-07
6.98783e-07
2.7014e-05
9.38373e-05
1.1127e-05
1.14306e-05
3.20176e-05
7.8084e-08
1.36696e-08
1.04609e-08
1.94287e-08
3.44326e-10
2.66545e-10
2.83131e-10
2.94296e-10
2.19841e-10
2.21296e-10
1.88657e-10
7.80387e-11
1.64007e-11
3.31942e-12
5.07548e-13
3.51598e-14
8.25362e-16
1.17868e-20
8.15837e-16
1.48749e-14
1.43515e-13
8.70462e-13
4.24627e-12
3.13303e-11
3.24331e-10
3.15915e-10
1.98789e-07
1.27673e-06
1.0025e-06
1.48228e-05
2.26127e-05
5.12895e-07
2.13564e-07
2.13836e-07
4.22495e-06
4.30827e-05
4.3239e-05
4.32369e-05
4.29939e-05
6.33841e-06
2.97307e-06
0.000124962
0.000107164
1.94319e-06
8.11038e-07
3.42382e-05
9.10613e-05
1.12053e-05
2.39266e-05
4.63432e-05
2.59868e-06
4.00214e-09
1.31008e-09
8.60318e-10
2.15481e-10
2.68622e-10
2.9922e-10
2.91867e-10
2.16043e-10
2.08307e-10
1.29952e-10
3.58419e-11
6.85388e-12
1.3307e-12
1.65252e-13
8.85009e-15
1.58654e-16
2.16397e-21
7.98224e-16
1.43586e-14
1.41466e-13
8.84004e-13
4.67545e-12
3.52105e-11
2.42036e-10
2.47316e-10
2.10068e-07
6.15354e-07
8.25712e-06
3.5977e-05
3.06416e-05
3.1118e-07
2.13565e-07
2.13565e-07
4.70193e-06
4.31838e-05
4.32394e-05
2.49943e-05
1.03413e-05
2.75235e-06
2.34924e-06
5.68574e-05
0.000107146
1.31737e-05
1.13226e-06
3.99121e-05
8.96923e-05
1.11153e-05
4.88633e-05
4.77143e-05
2.34487e-05
1.12236e-09
5.40322e-10
4.17841e-10
2.55135e-10
2.67593e-10
3.03629e-10
2.76049e-10
2.02826e-10
1.67529e-10
6.94932e-11
1.44557e-11
2.80047e-12
4.89618e-13
4.72328e-14
1.92551e-15
2.41396e-17
3.34246e-22
7.59109e-16
1.36672e-14
1.39345e-13
8.98522e-13
4.99256e-12
3.49071e-11
1.96172e-10
2.17221e-10
1.75178e-07
1.21384e-06
3.56772e-05
3.61036e-05
1.01346e-05
2.13842e-07
2.13535e-07
7.98039e-07
3.16738e-05
4.32361e-05
2.04453e-05
2.58984e-06
2.35861e-06
2.34924e-06
2.3486e-06
6.20744e-06
0.000107116
1.15037e-05
5.80217e-06
6.70771e-05
7.30885e-05
1.17949e-05
4.89377e-05
4.89074e-05
2.25417e-05
3.84988e-10
3.23279e-10
2.98203e-10
2.61493e-10
2.62334e-10
2.9437e-10
2.46421e-10
1.72429e-10
1.05682e-10
3.02707e-11
5.67833e-12
1.10534e-12
1.60873e-13
1.1778e-14
3.64472e-16
3.10753e-18
3.75942e-23
7.05183e-16
1.31484e-14
1.38956e-13
9.16877e-13
5.21748e-12
3.35708e-11
1.67115e-10
3.04569e-10
9.51561e-08
7.87215e-07
3.61735e-05
3.61385e-05
9.826e-07
2.1273e-07
2.13858e-07
3.42448e-06
3.79222e-05
3.80276e-05
2.06576e-05
3.52006e-05
1.7373e-05
2.4111e-06
2.34924e-06
2.62565e-06
0.000102276
9.24023e-06
8.92595e-06
5.21803e-05
1.86813e-05
1.0962e-05
4.89654e-05
4.90217e-05
3.94209e-06
2.07709e-10
2.53938e-10
2.67791e-10
2.57832e-10
2.59428e-10
2.75169e-10
2.07661e-10
1.2238e-10
5.24206e-11
1.19493e-11
2.25151e-12
4.05481e-13
4.65097e-14
2.58884e-15
6.08511e-17
4.67719e-19
5.58341e-25
6.56262e-16
1.30365e-14
1.39757e-13
9.41254e-13
5.34967e-12
3.11279e-11
1.309e-10
3.72049e-10
9.15644e-09
4.64789e-08
3.61734e-05
3.61734e-05
6.7045e-07
2.12727e-07
2.12727e-07
3.74596e-06
3.18623e-05
1.03338e-05
4.47956e-05
8.77613e-05
8.78135e-05
2.33429e-05
2.35332e-06
2.82954e-06
0.000107321
6.22073e-05
2.64256e-06
6.17175e-06
4.52012e-07
7.35612e-06
4.63331e-05
3.40827e-05
-1.10154e-09
1.23472e-10
2.49815e-10
2.66761e-10
2.54388e-10
2.56038e-10
2.47842e-10
1.54412e-10
7.00549e-11
2.21641e-11
4.67992e-12
8.75264e-13
1.3429e-13
1.19045e-14
5.17397e-16
9.42322e-18
9.17281e-20
-7.06041e-26
6.29865e-16
1.31449e-14
1.42818e-13
9.81176e-13
5.34926e-12
2.68895e-11
8.53475e-11
1.41797e-10
5.68655e-09
1.67856e-05
3.61749e-05
1.30796e-05
2.17232e-07
2.1273e-07
6.8896e-07
4.97219e-06
2.6525e-06
9.43098e-06
8.77196e-05
8.77965e-05
8.812e-05
8.80928e-05
1.07395e-05
3.57654e-06
0.000109155
0.000110716
6.95587e-07
8.74194e-08
1.37576e-07
2.75942e-06
5.74631e-06
3.41355e-06
-1.61048e-10
1.62522e-10
2.20606e-10
2.6493e-10
2.53438e-10
2.46999e-10
2.01153e-10
9.61437e-11
3.37113e-11
8.93097e-12
1.84945e-12
3.20585e-13
3.99167e-14
2.77575e-15
9.8973e-17
1.62772e-18
2.00827e-20
-1.47441e-26
6.29428e-16
1.36055e-14
1.50165e-13
1.03787e-12
5.2458e-12
2.04869e-11
4.04057e-11
5.33056e-10
7.44266e-08
2.76984e-05
2.23725e-05
2.76633e-07
2.51024e-07
1.56177e-06
8.44893e-07
4.65336e-06
6.25538e-07
5.80578e-05
8.70113e-05
8.8057e-05
8.83181e-05
8.82907e-05
4.03779e-05
4.16405e-06
0.000107168
0.000112113
3.95985e-06
2.11529e-08
3.11365e-08
2.37026e-07
2.81647e-07
3.61103e-08
3.07349e-11
1.4824e-10
2.0135e-10
2.61223e-10
2.51928e-10
2.19178e-10
1.38586e-10
5.08299e-11
1.49047e-11
3.64061e-12
7.17278e-13
1.08431e-13
1.08373e-14
6.16224e-16
1.91455e-17
3.37222e-19
4.43099e-21
-3.08066e-27
6.43513e-16
1.4751e-14
1.63316e-13
1.10245e-12
4.84369e-12
1.17384e-11
1.44557e-11
4.68347e-10
7.35188e-07
2.78573e-05
6.73605e-06
3.81386e-06
5.59809e-06
3.41049e-06
5.50196e-07
5.9437e-07
6.0901e-07
6.31028e-05
6.5399e-05
3.57599e-05
6.97052e-05
8.85162e-05
5.57621e-05
5.1266e-06
8.47083e-05
0.000112847
4.90929e-06
1.29009e-08
1.29273e-08
2.65379e-08
6.23617e-08
7.22549e-09
1.0884e-10
1.5241e-10
1.9197e-10
2.56362e-10
2.42241e-10
1.6862e-10
8.08903e-11
2.43591e-11
6.50392e-12
1.49469e-12
2.66022e-13
3.39509e-14
2.77872e-15
1.36291e-16
3.90354e-18
7.56953e-20
9.86007e-22
-6.45512e-28
6.92497e-16
1.68578e-14
1.82611e-13
1.15008e-12
4.13093e-12
6.67421e-12
6.90911e-12
2.01279e-08
2.29089e-05
2.77398e-05
9.08873e-06
5.31183e-05
4.90335e-05
2.95349e-06
5.50196e-07
5.50196e-07
5.77207e-06
1.08591e-05
8.65029e-07
8.57556e-07
8.57822e-07
7.3735e-05
7.40825e-05
7.99268e-06
5.58597e-05
0.000115754
2.95162e-06
1.29011e-08
1.01337e-08
4.63242e-09
1.32324e-08
1.8522e-09
1.50827e-10
1.59343e-10
1.93825e-10
2.49893e-10
2.12822e-10
1.11253e-10
4.21738e-11
1.13512e-11
2.85832e-12
6.02956e-13
9.35317e-14
1.00243e-14
6.97626e-16
3.09972e-17
8.55815e-19
1.73914e-20
2.21165e-22
-1.35919e-28
8.02928e-16
2.00378e-14
2.07204e-13
1.18628e-12
3.36295e-12
3.54416e-12
4.60688e-12
2.27261e-07
1.67132e-05
2.15929e-05
2.94667e-05
5.80782e-05
3.63098e-05
2.05971e-06
5.56463e-07
3.14596e-06
2.78665e-05
9.07729e-06
9.23382e-07
8.60699e-07
8.57626e-07
2.6218e-05
7.41132e-05
8.53536e-06
5.97218e-05
0.00011806
3.13582e-06
1.29007e-08
7.7506e-07
1.24476e-09
2.78901e-09
5.28966e-10
1.62371e-10
1.62215e-10
2.10408e-10
2.37383e-10
1.64536e-10
6.5416e-11
2.09867e-11
5.32552e-12
1.25179e-12
2.35124e-13
3.1335e-14
2.85957e-15
1.76035e-16
7.33712e-18
2.01563e-19
4.08894e-21
4.99715e-23
-2.88039e-29
9.92545e-16
2.42828e-14
2.35099e-13
1.22131e-12
3.08912e-12
4.03495e-12
5.96953e-10
9.22993e-07
1.36218e-06
4.44906e-06
5.80132e-05
5.80564e-05
4.33555e-05
6.52064e-06
5.77317e-07
3.23179e-06
3.58827e-05
3.70296e-05
1.95982e-05
1.31643e-06
8.60699e-07
9.16093e-07
4.95953e-05
5.5444e-05
7.48131e-05
0.000118562
6.84239e-06
1.45604e-05
1.07104e-05
4.24528e-10
6.91215e-10
2.24227e-10
1.68482e-10
1.68319e-10
2.09356e-10
2.16075e-10
1.12632e-10
3.61995e-11
1.04083e-11
2.51647e-12
5.38429e-13
8.82789e-14
1.01174e-14
8.04011e-16
4.51135e-17
1.79907e-18
4.99902e-20
9.90162e-22
1.13449e-23
-6.1494e-30
1.26882e-15
2.94427e-14
2.65109e-13
1.2684e-12
3.20314e-12
1.11094e-11
2.19424e-10
7.51227e-07
1.95846e-07
1.90748e-06
5.80564e-05
5.80645e-05
5.80564e-05
2.06546e-05
6.52626e-07
2.68292e-06
3.64186e-05
3.70638e-05
3.70753e-05
1.89687e-05
9.83719e-07
9.55503e-07
1.07186e-05
2.49414e-05
4.57896e-05
0.000118562
7.52598e-05
2.28671e-05
1.34685e-05
2.11534e-10
2.58175e-10
1.95276e-10
1.75257e-10
1.75815e-10
2.0665e-10
1.81487e-10
7.07619e-11
1.96125e-11
5.2172e-12
1.18272e-12
2.25458e-13
3.20172e-14
3.18387e-15
2.25046e-16
1.17064e-17
4.50236e-19
1.26318e-20
2.42988e-22
2.53807e-24
-1.32283e-30
1.62676e-15
3.52024e-14
2.973e-13
1.33291e-12
3.42281e-12
7.17304e-12
2.27344e-09
8.04811e-08
6.58332e-08
2.49133e-06
5.80837e-05
5.80585e-05
5.80921e-05
1.49731e-05
8.50916e-07
2.4855e-05
3.70074e-05
3.70296e-05
3.70638e-05
3.00993e-05
2.22798e-06
8.64747e-07
8.72887e-07
9.57209e-07
9.70217e-06
0.000116449
0.000124856
2.55243e-05
9.73979e-06
1.65234e-10
1.39977e-10
1.87716e-10
1.86202e-10
1.8876e-10
2.01175e-10
1.39015e-10
4.2279e-11
1.06053e-11
2.63151e-12
5.46396e-13
9.1605e-14
1.12753e-14
9.83516e-16
6.27055e-17
3.04176e-18
1.12803e-19
3.14729e-21
5.89454e-23
5.54024e-25
-2.8653e-31
2.047e-15
4.09904e-14
3.30685e-13
1.41161e-12
3.4408e-12
3.44055e-12
6.09389e-09
5.18101e-09
2.59423e-08
7.65859e-06
4.21405e-05
5.8061e-05
2.12033e-05
1.06022e-05
1.45327e-05
3.68685e-05
3.69336e-05
3.70074e-05
3.58674e-05
1.11111e-05
8.6443e-07
8.44713e-07
8.45649e-07
8.59077e-07
1.94927e-06
0.000111807
0.000125626
2.82799e-05
9.56916e-06
1.41436e-10
1.0804e-10
1.70902e-10
1.90322e-10
1.90291e-10
1.88699e-10
9.81616e-11
2.45892e-11
5.75459e-12
1.32023e-12
2.4626e-13
3.61093e-14
3.87033e-15
2.98688e-16
1.72689e-17
7.79897e-19
2.77354e-20
7.55321e-22
1.33429e-23
1.15991e-25
-6.2409e-32
2.49295e-15
4.60173e-14
3.6178e-13
1.50125e-12
3.51658e-12
3.95944e-12
7.55719e-09
3.44447e-09
2.83927e-08
1.05973e-05
5.71308e-06
2.75858e-05
5.26667e-05
2.46065e-05
1.50025e-05
2.79831e-05
3.68685e-05
3.28205e-05
3.24783e-06
1.46271e-06
8.44683e-07
8.4401e-07
8.44677e-07
8.45601e-07
3.797e-06
0.000127175
0.000127396
2.67435e-05
1.79614e-05
1.41298e-08
9.8026e-11
1.35732e-10
1.90291e-10
1.90194e-10
1.67098e-10
6.40909e-11
1.41268e-11
3.11912e-12
6.50971e-13
1.07839e-13
1.38184e-14
1.29628e-15
8.88486e-17
4.64718e-18
1.9402e-19
6.55258e-21
1.71452e-22
2.64714e-24
2.34614e-26
-1.4879e-32
2.91423e-15
4.91841e-14
3.84181e-13
1.60155e-12
3.74428e-12
1.19151e-11
4.54753e-09
1.37864e-09
1.0256e-08
1.03864e-05
2.74871e-06
4.24035e-05
5.63481e-05
5.59338e-05
2.14125e-05
2.1453e-05
3.65595e-05
4.55154e-06
1.72424e-06
4.93593e-06
2.86219e-06
1.3624e-06
8.45606e-07
8.52766e-07
5.01225e-06
0.000129842
0.000129468
2.12529e-05
2.29935e-05
3.12834e-06
9.44816e-11
1.14553e-10
1.89046e-10
1.88212e-10
1.36938e-10
3.88952e-11
8.07158e-12
1.67035e-12
3.1246e-13
4.57708e-14
5.13295e-15
4.22682e-16
2.56816e-17
1.20498e-18
4.59705e-20
1.44782e-21
3.62153e-23
4.98678e-25
4.60087e-27
-5.36302e-33
3.25387e-15
5.00972e-14
3.92685e-13
1.70231e-12
4.24781e-12
2.78467e-11
7.96821e-10
4.01107e-10
8.93746e-10
3.90619e-06
2.77764e-06
5.61154e-05
5.63721e-05
4.75915e-05
2.23451e-05
2.57887e-05
2.07136e-05
2.07146e-06
1.70783e-06
1.8787e-05
0.000105302
1.2378e-05
8.5772e-07
8.56455e-07
1.3153e-06
0.000129862
0.000129842
1.43401e-05
2.30716e-05
9.25774e-06
9.292e-11
1.06393e-10
1.83032e-10
1.81844e-10
1.01165e-10
2.23138e-11
4.56806e-12
8.72406e-13
1.44986e-13
1.87834e-14
1.84679e-15
1.33421e-16
7.1307e-18
2.95862e-19
1.01436e-20
2.92027e-22
6.55864e-24
9.50728e-26
8.72049e-28
-1.52556e-33
3.45802e-15
4.99593e-14
3.92244e-13
1.78391e-12
4.94531e-12
3.38509e-11
2.1193e-10
2.30005e-10
1.33473e-08
1.95774e-08
2.60083e-05
5.63715e-05
5.63693e-05
2.99517e-05
2.27889e-05
2.64249e-05
1.86324e-05
1.03028e-06
1.34185e-06
7.26896e-05
0.000129456
5.62811e-05
1.22028e-06
3.71192e-06
7.81187e-05
0.000129861
0.000129864
4.65868e-06
2.29935e-05
1.17141e-05
9.21343e-11
9.36273e-11
1.72526e-10
1.68259e-10
6.60865e-11
1.23788e-11
2.52783e-12
4.39306e-13
6.46851e-14
7.42674e-15
6.40521e-16
4.04022e-17
1.87455e-18
6.74261e-20
2.02529e-21
5.27402e-23
1.10505e-24
1.83536e-26
1.54804e-28
-1.75811e-33
3.52477e-15
4.93063e-14
3.88508e-13
1.82762e-12
5.70577e-12
3.68969e-11
2.51737e-10
1.99215e-10
3.27534e-08
2.07218e-08
5.53423e-05
5.59397e-05
5.3869e-05
1.4026e-05
2.64249e-05
2.64249e-05
4.84981e-06
4.84626e-07
7.66021e-06
0.000126396
0.000129486
0.000106009
1.52504e-06
2.30295e-05
0.000128417
0.000129862
5.84875e-05
1.06589e-06
1.52226e-05
1.20839e-05
9.21343e-11
9.21343e-11
1.6188e-10
1.43236e-10
3.84989e-11
6.73292e-12
1.34725e-12
2.11375e-13
2.76108e-14
2.81501e-15
2.12527e-16
1.15925e-17
4.57748e-19
1.38762e-20
3.53506e-22
8.76036e-24
2.05274e-25
3.57053e-27
2.54122e-29
-1.61039e-34
3.51873e-15
4.77518e-14
3.78504e-13
1.83415e-12
6.44565e-12
4.03977e-11
2.6875e-10
1.71496e-10
7.73758e-09
8.44383e-09
1.50151e-05
2.28364e-05
1.24002e-05
1.07163e-05
2.61041e-05
2.04972e-05
8.6148e-07
4.84625e-07
4.20962e-05
0.000129477
0.000129484
6.52764e-05
1.01518e-06
2.73774e-05
0.000105158
0.000116385
6.73556e-07
2.5192e-07
2.067e-06
6.66085e-06
9.21343e-11
9.21343e-11
1.5262e-10
1.08137e-10
2.03289e-11
3.58878e-12
6.83058e-13
9.65212e-14
1.12217e-14
1.01622e-15
6.67806e-17
3.10349e-18
1.01394e-19
2.43526e-21
5.48552e-23
1.62499e-24
4.08562e-26
6.71897e-28
3.55754e-30
-6.70096e-50
3.47584e-15
4.50829e-14
3.60436e-13
1.82848e-12
7.06104e-12
4.25269e-11
2.58959e-10
1.51199e-10
1.61091e-10
2.66394e-07
2.16635e-07
1.99368e-06
5.77025e-06
1.27032e-05
2.57953e-05
4.87478e-06
2.24768e-07
3.67159e-07
6.47693e-05
0.000129329
0.000129497
7.83718e-06
9.31394e-07
1.37105e-05
1.15819e-05
1.63934e-05
2.46717e-07
1.11131e-07
2.40493e-07
5.22606e-08