/*--------------------------------*- C++ -*----------------------------------*\
  =========                 |
  \\      /  F ield         | OpenFOAM: The Open Source CFD Toolbox
   \\    /   O peration     | Website:  https://openfoam.org
    \\  /    A nd           | Version:  9
     \\/     M anipulation  |
\*---------------------------------------------------------------------------*/
FoamFile
{
    format      ascii;
    class       surfaceScalarField;
    location    "0.17";
    object      alphaPhi0.water;
}
// * * * * * * * * * * * * * * * * * * * * * * * * * * * * * * * * * * * * * //

dimensions      [0 3 -1 0 0 0 0];

internalField   nonuniform List<scalar> 
9850
(
-6.04331e-24
1.22331e-23
-1.1391e-22
4.74826e-22
-3.98618e-21
1.43779e-20
-7.34718e-20
2.94901e-19
-7.03672e-19
3.90284e-18
-5.07659e-20
5.87273e-17
0
1.51046e-15
0
4.12396e-14
0
1.05377e-12
0
2.21106e-11
0
3.13108e-10
1.84379e-09
5.18752e-10
-5.78728e-08
3.40438e-08
-2.67814e-07
6.52025e-07
-3.79016e-07
1.47399e-07
-4.58494e-07
1.45971e-07
-5.19582e-07
2.17016e-07
-5.67928e-07
1.18062e-07
-5.97322e-07
-1.16118e-07
-5.92055e-07
-4.19891e-07
-5.50055e-07
-5.56421e-07
-4.75817e-07
-6.12874e-07
-3.89078e-07
-5.24824e-07
-3.14443e-07
-3.37276e-07
-2.64883e-07
-1.33428e-07
-2.43564e-07
2.65735e-08
-2.52703e-07
1.37006e-07
-2.94173e-07
2.46317e-07
-3.46475e-07
4.13196e-07
-7.94518e-08
2.78766e-07
-5.15228e-10
2.98747e-09
0
3.4223e-10
4.60865e-11
5.30654e-10
0
3.18321e-10
0
3.70904e-11
0
8.64195e-12
0
2.10923e-12
0
5.60851e-13
0
1.43331e-13
0
3.66896e-14
6.8813e-17
8.99552e-15
3.91726e-16
2.13956e-15
4.25563e-16
1.15017e-15
3.69787e-16
9.11156e-16
2.73809e-16
6.85262e-16
1.82335e-16
4.68915e-16
1.14981e-16
2.98076e-16
6.80496e-17
1.75589e-16
3.67713e-17
1.00238e-16
3.93743e-17
-3.82306e-24
1.54109e-23
-1.35392e-22
6.25716e-22
-3.58078e-21
1.45521e-20
-5.64578e-20
2.67977e-19
-5.46422e-19
3.53518e-18
-3.46089e-19
5.31798e-17
0
1.38759e-15
0
3.42447e-14
0
8.2171e-13
-2.57508e-12
2.33263e-11
0
5.40332e-10
4.90536e-10
2.37934e-10
6.19162e-09
8.69396e-09
-2.29428e-07
6.69288e-07
-3.72332e-07
2.87468e-07
-4.31049e-07
2.04676e-07
-4.65388e-07
2.51354e-07
-5.01878e-07
1.54552e-07
-5.40799e-07
-7.71965e-08
-5.67258e-07
-3.93432e-07
-5.6299e-07
-5.60689e-07
-5.21958e-07
-6.53906e-07
-4.53272e-07
-5.93511e-07
-3.82098e-07
-4.08449e-07
-3.2788e-07
-1.87646e-07
-2.97512e-07
-3.79474e-09
-2.97796e-07
1.3729e-07
-3.31562e-07
2.80104e-07
-3.28052e-07
4.58376e-07
-1.14527e-08
1.87073e-07
-2.56336e-10
4.06893e-10
-1.97061e-11
3.32103e-10
1.55987e-11
3.87493e-10
0
3.75317e-10
0
4.15116e-11
0
9.38671e-12
0
2.128e-12
0
5.53343e-13
0
1.48014e-13
0
3.86901e-14
3.51924e-17
9.56342e-15
3.41321e-16
2.16943e-15
4.1445e-16
1.16859e-15
3.89314e-16
9.8901e-16
3.01321e-16
7.95247e-16
2.13179e-16
5.81072e-16
1.40894e-16
3.88347e-16
8.70005e-17
2.38505e-16
4.94532e-17
1.41613e-16
5.89081e-17
-4.23711e-24
1.88568e-23
-1.26597e-22
5.88362e-22
-2.68361e-21
1.24844e-20
-4.0368e-20
2.0495e-19
-4.57037e-19
3.11886e-18
-1.24751e-18
4.9224e-17
0
1.16307e-15
0
2.49279e-14
0
6.09077e-13
-1.34727e-11
3.735e-11
-3.76975e-13
5.23193e-10
1.84071e-11
2.74631e-10
8.30894e-09
8.33867e-10
-1.49282e-07
5.87406e-07
-3.61839e-07
4.76926e-07
-4.03076e-07
2.45871e-07
-4.00251e-07
2.48528e-07
-4.12948e-07
1.67249e-07
-4.52014e-07
-3.81307e-08
-5.04466e-07
-3.4098e-07
-5.38718e-07
-5.26437e-07
-5.39744e-07
-6.5288e-07
-5.02561e-07
-6.30693e-07
-4.49171e-07
-4.61839e-07
-4.0602e-07
-2.30797e-07
-3.81688e-07
-2.81267e-08
-3.80085e-07
1.35685e-07
-4.0136e-07
3.01525e-07
-2.87832e-07
4.52137e-07
-4.29186e-09
8.65824e-08
-2.6751e-10
2.00633e-10
-6.60973e-11
3.07264e-10
0
4.57343e-10
7.94289e-12
3.09273e-10
0
4.72547e-11
0
1.02944e-11
0
2.33525e-12
0
5.51577e-13
0
1.4927e-13
0
4.0174e-14
5.93865e-18
9.82059e-15
3.01023e-16
2.0977e-15
3.88134e-16
1.18615e-15
3.75082e-16
1.02222e-15
3.11686e-16
8.72025e-16
2.32629e-16
6.78026e-16
1.58746e-16
4.73492e-16
1.00982e-16
3.00649e-16
5.96481e-17
1.83932e-16
8.00049e-17
-3.75379e-24
1.61634e-23
-9.34238e-23
4.56785e-22
-1.76163e-21
8.57791e-21
-2.92699e-20
1.56537e-19
-3.77337e-19
2.64949e-18
-2.4196e-18
4.21351e-17
0
8.97545e-16
0
2.10797e-14
0
5.60814e-13
-1.83074e-11
5.14586e-11
3.13356e-12
5.38058e-10
3.32279e-11
3.38923e-10
8.66774e-10
8.67903e-11
-5.62653e-08
4.33389e-07
-3.26926e-07
7.06384e-07
-3.58562e-07
2.77297e-07
-3.25172e-07
2.15138e-07
-3.1293e-07
1.55007e-07
-3.43857e-07
-7.20401e-09
-4.10598e-07
-2.74238e-07
-4.75878e-07
-4.61158e-07
-5.21036e-07
-6.07721e-07
-5.26642e-07
-6.25087e-07
-5.0559e-07
-4.82892e-07
-4.94707e-07
-2.41679e-07
-5.05287e-07
-1.75465e-08
-5.25618e-07
1.55995e-07
-5.44858e-07
3.21876e-07
-1.84927e-07
2.97126e-07
-2.84256e-09
1.39875e-08
-2.71578e-10
1.30499e-10
-1.40998e-10
5.85544e-11
5.67735e-12
5.43771e-10
0
2.75389e-10
0
4.16155e-11
0
1.02548e-11
0
2.80932e-12
0
5.93014e-13
0
1.52047e-13
0
4.20319e-14
0
1.01772e-14
2.59914e-16
1.95879e-15
3.49418e-16
1.18005e-15
3.41959e-16
1.03595e-15
3.02125e-16
9.18415e-16
2.36891e-16
7.50303e-16
1.66436e-16
5.46031e-16
1.08344e-16
3.57505e-16
6.58923e-17
2.24151e-16
1.00979e-16
-2.49333e-24
1.11888e-23
-5.83004e-23
2.9721e-22
-1.25971e-21
6.5531e-21
-2.3549e-20
1.38602e-19
-2.94921e-19
2.33006e-18
-1.67161e-18
3.34781e-17
0
7.56325e-16
0
2.05049e-14
0
6.92618e-13
-6.3167e-12
4.8178e-11
4.25716e-12
1.51955e-10
2.38262e-11
3.61627e-11
9.71206e-11
2.35377e-11
1.07296e-07
1.80885e-07
-1.78808e-07
9.00459e-07
-2.45422e-07
3.42994e-07
-2.22077e-07
1.9179e-07
-2.03026e-07
1.35957e-07
-2.25776e-07
1.55461e-08
-2.93677e-07
-2.06338e-07
-3.771e-07
-3.77735e-07
-4.6013e-07
-5.2469e-07
-5.12001e-07
-5.73217e-07
-5.26643e-07
-4.6825e-07
-5.50888e-07
-2.17434e-07
-6.02617e-07
3.4182e-08
-6.46196e-07
1.99682e-07
-5.24455e-07
2.55567e-07
-6.42055e-08
6.16358e-08
-6.44149e-10
2.47777e-10
-7.97512e-11
8.77789e-11
-1.25346e-10
3.87148e-11
-6.94082e-12
3.92329e-10
0
3.5696e-10
0
3.5769e-11
0
9.42626e-12
0
2.8813e-12
0
7.11257e-13
0
1.63121e-13
0
4.44545e-14
0
1.0875e-14
2.20328e-16
1.87755e-15
3.0542e-16
1.16938e-15
3.01665e-16
1.04082e-15
2.76239e-16
9.45838e-16
2.25744e-16
8.00153e-16
1.63402e-16
6.03374e-16
1.08529e-16
4.06531e-16
6.74885e-17
2.60406e-16
1.20763e-16
-1.49928e-24
7.12348e-24
-4.16e-23
2.32738e-22
-1.05385e-21
5.92889e-21
-2.14547e-20
1.31346e-19
-2.23151e-19
2.19365e-18
-9.19923e-19
2.79693e-17
0
7.36516e-16
0
2.26329e-14
-3.67945e-13
7.08508e-13
-7.66943e-13
4.08932e-11
9.62108e-13
1.70757e-10
7.6132e-12
4.18098e-11
1.37527e-11
1.84765e-11
8.45103e-08
4.16509e-08
1.45029e-07
6.44555e-07
-1.89032e-08
5.02829e-07
-6.81527e-08
2.41008e-07
-7.59939e-08
1.43798e-07
-9.79468e-08
3.74989e-08
-1.61089e-07
-1.43196e-07
-2.50084e-07
-2.8874e-07
-3.61036e-07
-4.13737e-07
-4.55346e-07
-4.78904e-07
-4.96553e-07
-4.27044e-07
-5.24959e-07
-1.89028e-07
-5.77209e-07
8.64143e-08
-5.63373e-07
1.87255e-07
-1.58078e-07
5.58346e-08
0
-9.47712e-10
0
2.25478e-10
8.3461e-12
9.12595e-11
2.65939e-12
2.40545e-11
2.33235e-11
3.77689e-10
2.36847e-11
7.2854e-10
0
8.97692e-11
0
7.15353e-12
0
2.65405e-12
0
7.60497e-13
0
1.86135e-13
0
4.73872e-14
0
1.18801e-14
1.79704e-16
1.83479e-15
2.57464e-16
1.15876e-15
2.56157e-16
1.04282e-15
2.41322e-16
9.62537e-16
2.03121e-16
8.34081e-16
1.50772e-16
6.46749e-16
1.02044e-16
4.47146e-16
6.46995e-17
2.92284e-16
1.38749e-16
-1.07626e-24
5.61117e-24
-3.42444e-23
2.09424e-22
-9.16605e-22
5.57531e-21
-1.99493e-20
1.26318e-19
-1.85332e-19
2.14584e-18
-5.32541e-19
2.61756e-17
0
7.93938e-16
0
2.44256e-14
0
4.91251e-13
-2.34434e-12
4.23961e-11
2.20545e-12
2.97449e-10
3.84413e-12
4.13212e-11
4.95726e-12
1.73813e-11
3.95185e-08
2.13754e-09
3.53103e-07
9.77261e-08
2.52373e-07
5.46624e-07
1.22792e-07
3.69418e-07
7.15657e-08
1.94998e-07
4.3826e-08
6.52383e-08
-1.56799e-08
-8.36896e-08
-1.09192e-07
-1.95228e-07
-2.38106e-07
-2.84818e-07
-3.71886e-07
-3.45126e-07
-4.45332e-07
-3.53601e-07
-4.63576e-07
-1.70753e-07
-4.87214e-07
1.11526e-07
-2.13714e-07
7.08374e-08
-4.40675e-09
-4.24459e-10
-1.90117e-10
-1.41009e-11
2.86577e-11
3.76268e-11
0
7.00652e-11
9.28376e-12
0
2.20014e-11
3.31935e-10
3.64272e-11
5.61463e-10
0
2.64406e-10
0
5.1349e-12
4.27789e-15
2.08258e-12
0
7.26989e-13
0
1.96123e-13
0
4.93598e-14
0
1.23534e-14
1.35437e-16
1.78442e-15
2.08375e-16
1.1475e-15
2.08344e-16
1.04303e-15
1.99168e-16
9.68459e-16
1.71047e-16
8.52735e-16
1.30176e-16
6.75894e-16
8.99511e-17
4.78747e-16
5.81129e-17
3.18928e-16
1.53914e-16
-8.85228e-25
5.03962e-24
-2.9226e-23
1.92351e-22
-8.02976e-22
5.18657e-21
-1.81278e-20
1.20879e-19
-1.6042e-19
2.08613e-18
-4.9364e-19
2.48719e-17
-7.484e-17
8.23825e-16
0
2.42724e-14
0
2.89016e-13
-3.46626e-12
5.38875e-11
2.25435e-12
2.89207e-10
5.38385e-12
4.54178e-11
5.14767e-12
1.73991e-11
2.10474e-09
3.79278e-11
7.10115e-08
1.24855e-09
3.4396e-07
6.22219e-08
2.75992e-07
3.78083e-07
2.29525e-07
2.4031e-07
1.99804e-07
9.4911e-08
1.35241e-07
-1.91279e-08
3.60858e-08
-9.6053e-08
-9.64906e-08
-1.52106e-07
-2.56947e-07
-1.84188e-07
-3.89535e-07
-2.20691e-07
-4.66544e-07
-6.89671e-08
-2.15622e-07
3.89128e-08
-3.16134e-09
8.09987e-09
-2.1522e-11
-1.14961e-11
-1.20488e-11
-2.5771e-12
-3.53835e-12
-1.55211e-12
4.44272e-12
0
1.31439e-11
2.60237e-12
3.14162e-11
2.83563e-11
5.71397e-11
4.6114e-10
0
4.80118e-10
0
7.33956e-12
1.95219e-14
1.61287e-12
0
6.20699e-13
0
1.89742e-13
0
4.97136e-14
0
1.23927e-14
9.95211e-17
1.68013e-15
1.57783e-16
1.13667e-15
1.5746e-16
1.04195e-15
1.50994e-16
9.69781e-16
1.32278e-16
8.58378e-16
1.02466e-16
6.93235e-16
7.21126e-17
5.00926e-16
4.71849e-17
3.38753e-16
1.65379e-16
-7.50432e-25
4.55783e-24
-2.39272e-23
1.70481e-22
-6.89945e-22
4.54096e-21
-1.64881e-20
1.1366e-19
-1.36418e-19
1.97303e-18
-2.89727e-19
2.31151e-17
-3.01826e-16
8.64775e-16
0
2.44823e-14
-4.50547e-16
2.83748e-13
-3.91892e-12
5.78583e-11
1.7619e-12
2.82226e-10
2.14922e-12
4.906e-11
1.92575e-12
1.76607e-11
5.44889e-11
3.41363e-11
1.69698e-09
9.36114e-13
3.23506e-08
0
2.58631e-07
1.75651e-09
3.43317e-07
1.04449e-07
3.38767e-07
7.69786e-08
2.61333e-07
4.61405e-08
1.58326e-07
5.70624e-09
4.46996e-08
-2.96933e-08
-5.01554e-08
-4.95131e-08
-1.73276e-07
-1.34092e-08
-1.28178e-07
6.70194e-09
-1.21088e-08
0
-1.15176e-10
-1.66988e-10
-1.91494e-12
-3.00566e-12
-4.57601e-13
-7.69913e-13
-2.28365e-13
-6.86702e-13
3.27626e-13
0
1.77692e-12
4.86668e-12
2.79257e-11
8.1672e-12
2.04088e-11
2.04283e-10
4.8521e-12
4.43552e-10
0
2.23111e-11
0
1.44093e-12
0
5.23876e-13
0
1.68728e-13
0
4.77717e-14
0
1.185e-14
6.64288e-17
1.52228e-15
1.04689e-16
1.11668e-15
1.04179e-16
1.03599e-15
1.00028e-16
9.64623e-16
8.83046e-17
8.58026e-16
7.02616e-17
7.02384e-16
5.02765e-17
5.18175e-16
3.34355e-17
3.55087e-16
1.71054e-16
-6.00655e-25
3.83413e-24
-1.82279e-23
1.39098e-22
-5.78467e-22
3.85351e-21
-1.40322e-20
1.06576e-19
-1.14775e-19
1.84858e-18
-3.53458e-19
2.28546e-17
-2.83803e-16
1.03434e-15
0
2.32493e-14
0
2.69056e-13
-4.56606e-12
5.65683e-11
2.88394e-13
2.77465e-10
1.21406e-12
5.99745e-11
2.37344e-13
1.84628e-11
2.60542e-12
3.2152e-11
1.28145e-11
5.06752e-11
2.93602e-10
0
7.3335e-09
0
8.00569e-08
0
1.24956e-07
0
1.21382e-07
0
8.82618e-08
0
4.75796e-08
0
1.27692e-08
0
-2.32895e-09
0
-3.22354e-10
0
1.4607e-11
0
0
-1.75949e-11
0
-5.3684e-13
0
-1.27481e-13
2.51851e-13
-8.54429e-14
4.86845e-13
5.63441e-13
7.28208e-13
6.10538e-12
2.66142e-12
9.80163e-12
1.00542e-11
5.54326e-12
1.0035e-11
3.62452e-10
0
6.47055e-11
0
1.01283e-12
0
5.18916e-13
0
1.40552e-13
0
4.37234e-14
0
1.08592e-14
3.17261e-17
1.33406e-15
4.92759e-17
1.08735e-15
4.92916e-17
1.02318e-15
4.75769e-17
9.53854e-16
4.24141e-17
8.5183e-16
3.43199e-17
7.03314e-16
2.50082e-17
5.23929e-16
1.64026e-17
3.58579e-16
1.71027e-16
-4.14044e-25
2.81609e-24
-1.38239e-23
1.06622e-22
-5.0493e-22
3.62376e-21
-1.18028e-20
1.05077e-19
-1.03769e-19
1.81931e-18
-1.08146e-18
2.51528e-17
-2.47661e-16
1.08792e-15
0
1.79531e-14
-1.03894e-14
2.81217e-13
-5.53146e-12
6.81015e-11
-6.38894e-13
2.74164e-10
-2.94106e-13
6.19331e-11
-1.22398e-12
1.97752e-11
9.57274e-14
3.20618e-11
6.36208e-12
1.52679e-10
1.16404e-11
0
4.16455e-11
5.13115e-12
2.69676e-10
0
3.66843e-10
0
3.86806e-10
0
3.49365e-10
0
1.86711e-10
0
9.78942e-11
0
1.09765e-10
0
4.01548e-11
0
1.36197e-11
0
0
-2.15534e-12
0
-5.46932e-14
3.35102e-13
-6.64601e-15
1.40017e-12
-6.00414e-13
4.03599e-12
1.234e-12
9.79866e-12
1.44393e-10
2.27314e-12
4.56594e-11
3.91776e-13
1.99021e-11
-6.57526e-12
1.97935e-10
-1.08213e-12
6.69912e-11
-3.08168e-14
7.37271e-13
-1.16454e-14
4.87972e-13
-2.59659e-15
1.24136e-13
-5.36701e-16
3.64946e-14
-5.44088e-17
9.30107e-15
-1.17604e-17
1.17747e-15
-6.95785e-18
1.04655e-15
-5.64059e-18
1.00679e-15
-4.7914e-18
9.3903e-16
-4.03547e-18
8.401e-16
-3.19903e-18
6.95102e-16
-2.46937e-18
5.18512e-16
-1.7585e-18
3.5239e-16
1.61247e-16
-2.64213e-25
2.02347e-24
-1.13685e-23
8.99236e-23
-4.7915e-22
3.63258e-21
-1.03607e-20
1.08232e-19
-1.01899e-19
1.83006e-18
-2.51515e-18
2.69853e-17
-9.48527e-17
9.72693e-16
0
1.18408e-14
-1.72052e-13
4.39957e-13
-6.36813e-12
1.26428e-10
-1.43878e-12
2.69574e-10
-1.48441e-12
6.12351e-11
-3.08361e-11
7.61183e-11
-4.17567e-11
6.13749e-10
-1.01498e-12
2.5958e-10
-1.06232e-12
1.21248e-13
-1.26413e-12
0
5.86211e-12
0
2.0811e-11
0
3.36267e-11
0
3.77337e-11
0
3.35071e-11
0
2.02963e-11
0
1.00197e-11
0
4.47988e-12
0
1.28821e-12
0
0
-1.31479e-13
2.91348e-14
-2.34915e-14
7.69805e-14
-4.44814e-15
6.48435e-12
-1.5331e-12
1.45378e-11
1.54619e-11
7.28363e-12
1.42419e-10
-1.70618e-12
1.89777e-10
-1.51774e-11
1.74195e-11
-2.42212e-11
8.52102e-11
-1.22573e-12
4.63161e-11
-8.96838e-14
6.61333e-13
-3.39875e-14
4.09477e-13
-8.49422e-15
1.03808e-13
-2.04136e-15
2.77227e-14
-2.20971e-16
7.01619e-15
-8.01144e-17
1.12094e-15
-6.15275e-17
1.01112e-15
-5.89617e-17
9.87425e-16
-5.62794e-17
9.22749e-16
-5.09399e-17
8.24319e-16
-4.18421e-17
6.77616e-16
-3.22004e-17
5.01444e-16
-2.07713e-17
3.34802e-16
1.33759e-16
-1.98737e-25
1.6482e-24
-1.10017e-23
8.85117e-23
-4.95279e-22
4.15701e-21
-1.01934e-20
1.18323e-19
-9.9726e-20
1.86004e-18
-2.21405e-18
2.46846e-17
-4.02258e-17
7.05665e-16
0
1.1668e-14
-1.30059e-13
5.58885e-13
-3.5428e-12
1.13939e-10
-2.46667e-12
9.88272e-11
-3.54968e-12
5.92093e-11
-1.20285e-10
1.75687e-10
-7.13229e-11
6.67615e-10
-1.50976e-11
4.39258e-11
-2.82846e-13
2.73017e-13
-4.01737e-13
0
-2.89517e-13
0
2.41797e-13
0
8.26429e-13
0
1.25296e-12
0
1.28922e-12
0
1.02339e-12
0
8.09349e-13
0
4.30817e-13
0
1.16135e-13
0
1.18013e-16
-1.35666e-14
1.90387e-14
-1.00453e-14
4.06293e-14
-2.53402e-15
9.62586e-12
-8.29704e-14
-1.54739e-11
5.29362e-11
-2.27867e-11
1.55696e-10
-2.04174e-11
2.14221e-10
-1.20575e-11
7.64209e-12
-9.90746e-12
1.79852e-13
-2.61787e-12
3.9483e-11
-1.60531e-13
1.01363e-12
-4.74885e-14
4.30283e-13
-1.10783e-14
7.31395e-14
-2.58241e-15
2.02254e-14
-2.24172e-16
4.71922e-15
-1.34036e-16
1.07932e-15
-1.11877e-16
9.98998e-16
-1.08417e-16
9.67103e-16
-1.04172e-16
9.05348e-16
-9.39137e-17
8.03443e-16
-7.64822e-17
6.49779e-16
-5.76529e-17
4.71694e-16
-3.34127e-17
3.00379e-16
1.00064e-16
-1.72312e-25
1.43319e-24
-1.29572e-23
1.03572e-22
-5.66679e-22
5.45596e-21
-1.08952e-20
1.34139e-19
-9.18455e-20
1.87699e-18
-1.0428e-18
2.0358e-17
0
6.29185e-16
0
1.45121e-14
-1.12402e-14
4.58455e-13
-2.30353e-12
4.71665e-11
0
7.04766e-11
-3.53307e-11
9.17909e-11
-1.51095e-10
8.07641e-10
-1.12427e-11
6.35347e-10
-1.79205e-12
1.28493e-12
-1.02501e-13
1.15887e-13
-4.81041e-14
1.77628e-14
-1.12228e-13
-1.69791e-14
-5.11903e-14
-6.87079e-14
7.33612e-15
-4.55633e-14
4.82068e-14
-1.29971e-14
7.05637e-14
-4.40692e-15
6.51095e-14
0
5.17867e-14
0
2.90454e-14
0
9.2658e-15
-1.22567e-15
4.64491e-15
-2.90692e-15
1.18708e-14
-4.62595e-15
3.5806e-14
-1.02723e-15
-3.37092e-12
9.18368e-12
-2.77672e-11
7.96773e-11
-5.10669e-11
1.81868e-10
-2.78139e-11
1.22136e-10
-3.50635e-12
5.34836e-12
-5.78255e-12
2.24072e-12
-3.15394e-12
3.95278e-11
-2.45884e-13
1.06492e-12
-5.56189e-14
4.96814e-13
-1.05013e-14
4.20332e-14
-2.33858e-15
1.48857e-14
-2.31006e-16
2.79874e-15
-1.71211e-16
1.05523e-15
-1.56973e-16
9.8712e-16
-1.52897e-16
9.47476e-16
-1.47035e-16
8.86361e-16
-1.30582e-16
7.7499e-16
-1.0427e-16
6.10073e-16
-7.54169e-17
4.29504e-16
-3.71229e-17
2.54548e-16
6.64368e-17
-2.24147e-25
1.69947e-24
-2.00132e-23
1.82426e-22
-6.95139e-22
8.06516e-21
-1.17193e-20
1.52411e-19
-7.77403e-20
1.84836e-18
-4.2396e-19
1.71156e-17
0
6.28155e-16
0
1.76374e-14
0
3.2315e-13
-2.28682e-12
1.15379e-11
-2.996e-13
1.74139e-10
-6.13665e-11
3.56783e-10
-1.14486e-10
3.8187e-10
-3.14826e-11
1.57312e-10
-1.464e-13
1.27033e-12
-4.87342e-14
8.6892e-14
-4.20817e-14
9.48361e-15
-2.31587e-14
0
-5.489e-14
0
-1.03123e-14
-3.48107e-14
-2.41037e-15
-4.13214e-15
9.29895e-16
-2.81104e-15
2.74537e-15
-1.71187e-15
3.25328e-15
-6.82724e-16
2.43054e-15
-4.1422e-16
1.97667e-15
-8.3114e-16
2.22525e-15
-1.63281e-15
3.68506e-15
-1.73852e-15
3.3578e-14
-2.38928e-15
9.82809e-13
9.92388e-12
-2.9284e-11
1.12775e-10
-4.23546e-11
1.97175e-10
-7.09489e-12
1.67397e-11
-2.73735e-12
3.46544e-12
-5.98962e-12
8.27856e-12
-2.71637e-12
4.12638e-11
-3.08401e-13
1.00574e-12
-6.23017e-14
4.88649e-13
-9.0983e-15
3.09686e-14
-1.69461e-15
1.01742e-14
-2.39335e-16
1.79057e-15
-2.05245e-16
1.03711e-15
-1.96653e-16
9.78024e-16
-1.92368e-16
9.3372e-16
-1.83344e-16
8.64139e-16
-1.58602e-16
7.36626e-16
-1.22802e-16
5.58877e-16
-8.31754e-17
3.77147e-16
-3.29124e-17
2.02483e-16
3.96729e-17
-1.39169e-24
3.39948e-24
-4.04982e-23
4.43333e-22
-9.21842e-22
1.34457e-20
-1.20521e-20
1.78975e-19
-6.78364e-20
1.83043e-18
-4.21335e-19
1.61602e-17
0
6.59141e-16
0
1.56115e-14
0
2.74413e-13
0
3.01427e-11
-5.73923e-12
1.25421e-10
-4.08688e-11
8.44576e-10
-3.58543e-11
1.95603e-10
-1.42499e-12
2.45529e-12
-6.07331e-14
2.40467e-13
-4.72362e-14
7.55437e-14
-4.6217e-14
7.35012e-15
-1.91748e-13
-1.32088e-13
-1.07553e-13
-1.34909e-13
-1.68238e-14
-5.68443e-14
-2.20672e-15
-1.30874e-15
-7.90734e-16
-1.45888e-15
-2.77126e-16
-9.39766e-16
1.75401e-16
-6.50708e-16
5.18188e-16
-5.47377e-16
6.62359e-16
-6.1956e-16
6.61694e-16
-7.5574e-16
0
-6.56046e-16
0
2.99865e-15
-9.55328e-12
1.10538e-11
-9.28714e-11
1.32875e-10
-3.89589e-11
1.79667e-10
-1.38472e-12
7.80026e-12
-1.50433e-12
2.85536e-12
-8.37718e-12
1.11069e-11
-1.55732e-12
4.03907e-11
-2.96521e-13
7.04209e-13
-4.56815e-14
3.88402e-13
-5.60262e-15
1.09798e-14
-1.10591e-15
4.4536e-15
-2.58347e-16
1.56389e-15
-2.39008e-16
1.02369e-15
-2.31748e-16
9.70369e-16
-2.27053e-16
9.24437e-16
-2.117e-16
8.39425e-16
-1.763e-16
6.88198e-16
-1.30977e-16
4.99865e-16
-8.09517e-17
3.20063e-16
-2.44808e-17
1.51569e-16
2.14448e-17
-3.74473e-24
8.16945e-24
-9.80866e-23
1.20053e-21
-1.36896e-21
2.51343e-20
-1.23888e-20
2.28692e-19
-6.24537e-20
1.86821e-18
-1.16605e-18
1.63224e-17
-5.74055e-18
6.78911e-16
0
6.92423e-15
-2.13921e-13
1.78243e-13
0
1.28635e-10
-1.82405e-11
1.19431e-10
-1.0288e-11
8.25498e-10
-2.89802e-12
0
-1.01244e-13
7.98744e-13
-6.43878e-14
2.30006e-13
-4.26162e-14
6.97382e-14
-4.23599e-13
1.47607e-14
-6.02583e-13
-2.99794e-13
-4.98815e-13
-4.9541e-13
-1.09538e-14
-4.03866e-14
-2.62968e-15
-1.62545e-15
-1.47023e-15
-1.24631e-15
-1.07153e-15
-1.24912e-15
-7.25772e-16
-9.82963e-16
-5.12928e-16
-7.5562e-16
-5.46129e-16
-5.80421e-16
-9.35965e-16
-3.60964e-16
-8.03499e-16
1.58421e-16
-3.6033e-14
2.59712e-14
-3.00621e-11
1.43814e-11
-1.37108e-10
1.56901e-10
-3.07394e-11
2.13384e-10
-1.20389e-12
4.82259e-12
-1.40601e-12
3.05921e-12
-4.44162e-12
1.54455e-11
-9.09068e-13
2.57852e-11
-1.53642e-13
2.5616e-13
-3.70674e-14
5.79126e-14
-2.36464e-15
1.01729e-14
-6.01655e-16
2.91337e-15
-2.79864e-16
1.32503e-15
-2.68767e-16
1.0144e-15
-2.61786e-16
9.63761e-16
-2.5653e-16
9.15891e-16
-2.31186e-16
8.14179e-16
-1.8383e-16
6.32828e-16
-1.3021e-16
4.40875e-16
-7.15194e-17
2.65853e-16
-1.56483e-17
1.07808e-16
1.04411e-17
-8.76201e-24
2.04337e-23
-2.47511e-22
3.15537e-21
-2.30449e-21
5.00748e-20
-1.38867e-20
3.31037e-19
-6.19845e-20
2.08427e-18
-1.83681e-18
1.79459e-17
-3.05238e-17
6.8318e-16
0
6.21458e-15
-6.08607e-14
1.88944e-13
-1.03368e-13
9.67946e-11
-2.37424e-12
3.76045e-10
-1.56926e-12
9.36811e-12
-1.96413e-13
2.64789e-13
-5.90691e-14
8.32757e-13
-5.82651e-14
4.22508e-13
-1.93135e-13
1.90772e-13
-6.77618e-13
4.49336e-14
-5.73609e-13
-2.65452e-13
-2.87241e-13
-2.00112e-13
-5.78417e-15
-2.78474e-15
-3.098e-15
-2.63027e-15
-2.15784e-15
-2.11982e-15
-1.80277e-15
-1.59002e-15
-1.51132e-15
-1.27385e-15
-1.37147e-15
-8.95481e-16
-1.49337e-15
-4.5838e-16
-1.9975e-15
1.40618e-16
-3.65941e-15
1.48842e-15
-9.11662e-14
6.22635e-14
-7.98332e-11
1.67341e-11
-1.29821e-10
1.83452e-10
-2.64301e-11
2.76146e-10
-2.38696e-12
3.76748e-12
-2.3075e-12
2.88425e-12
-1.46005e-11
2.29593e-11
-2.2771e-13
1.55795e-11
-4.43341e-14
7.00196e-14
-1.59306e-14
1.33577e-14
-1.8093e-15
3.48839e-14
-5.46938e-16
1.66354e-15
-3.00094e-16
1.15462e-15
-2.9231e-16
1.00741e-15
-2.86775e-16
9.58285e-16
-2.79498e-16
9.07033e-16
-2.41436e-16
7.87481e-16
-1.83951e-16
5.78573e-16
-1.23679e-16
3.91402e-16
-5.82175e-17
2.18951e-16
-8.5666e-18
7.32562e-17
4.50921e-18
-1.55106e-23
5.19548e-23
-5.81484e-22
7.58074e-21
-4.16448e-21
9.97011e-20
-1.80433e-20
5.32909e-19
-6.91122e-20
2.65022e-18
-1.40503e-18
2.12722e-17
-1.27445e-18
7.12263e-16
0
8.84426e-15
0
9.76193e-14
3.14688e-13
4.92588e-11
4.50281e-13
3.98076e-10
-2.35756e-13
2.6034e-11
-6.47196e-14
5.14768e-12
-1.10242e-12
8.58454e-12
-1.79131e-13
9.47996e-12
-6.40768e-13
3.6418e-13
-7.18444e-13
1.39022e-13
-5.03931e-13
-2.19212e-13
-2.40459e-14
-5.30027e-14
-5.10023e-15
-5.56671e-14
-4.66992e-15
-5.00433e-15
-2.93851e-15
-4.38405e-15
-2.47632e-15
-2.07477e-15
-2.16639e-15
-1.61688e-15
-2.03461e-15
-1.02713e-15
-2.16342e-15
-3.30043e-16
-2.67538e-15
6.49305e-16
-4.54805e-15
2.871e-15
-8.27216e-14
7.89487e-14
-1.11768e-10
1.35391e-11
-1.36252e-10
2.17296e-10
-8.52507e-11
3.30064e-10
-1.99946e-12
1.68632e-11
-6.63502e-12
2.39262e-12
-7.8161e-12
2.25072e-11
-6.02266e-14
1.23392e-11
-1.41673e-14
2.27488e-14
-1.38114e-14
8.19551e-15
-1.32667e-15
3.66768e-14
-3.94999e-16
1.38499e-15
-3.16425e-16
1.07595e-15
-3.1141e-16
1.00249e-15
-3.08203e-16
9.55863e-16
-2.9858e-16
8.9967e-16
-2.45911e-16
7.57328e-16
-1.82627e-16
5.39515e-16
-1.1467e-16
3.55051e-16
-4.43062e-17
1.78063e-16
-4.04751e-18
4.75246e-17
1.70288e-18
-3.78232e-23
1.48952e-22
-1.21787e-21
1.63463e-20
-7.58716e-21
1.89662e-19
-2.6154e-20
8.94516e-19
-8.42742e-20
3.64701e-18
-9.87458e-19
2.57315e-17
-1.98043e-17
7.85688e-16
0
1.26044e-14
0
4.09082e-14
4.1245e-13
3.3017e-11
3.70503e-12
4.15879e-10
-1.14515e-14
5.80326e-11
-3.77012e-12
1.58228e-11
-3.7707e-12
6.78422e-11
-1.17839e-12
8.0275e-12
-1.03066e-12
1.06879e-12
-7.6857e-13
8.70862e-14
-1.40624e-13
-3.37583e-14
-1.66602e-13
-1.24433e-13
-5.53995e-13
-4.45794e-13
-6.05336e-13
-9.25948e-13
-1.07549e-13
-8.59848e-13
-6.76705e-15
-3.45556e-13
-2.72644e-15
-5.83503e-15
-2.48643e-15
-1.29913e-15
-2.56478e-15
-2.54901e-16
-3.00784e-15
1.08877e-15
-4.14319e-15
3.63904e-15
-2.72563e-14
6.0205e-14
-4.35178e-11
9.28717e-12
-9.5925e-11
2.24663e-10
-9.10378e-11
3.81575e-10
-1.12349e-11
1.40176e-10
-6.9166e-12
2.20893e-12
-5.47932e-12
1.8715e-12
-1.84807e-14
9.52437e-13
-8.07402e-15
1.03473e-14
-1.17354e-14
8.3784e-15
-3.61258e-16
3.8856e-14
-3.57121e-16
1.16187e-15
-3.325e-16
1.0521e-15
-3.28295e-16
9.99503e-16
-3.26654e-16
9.55807e-16
-3.10658e-16
8.9137e-16
-2.50949e-16
7.31217e-16
-1.82258e-16
5.18752e-16
-1.03301e-16
3.24456e-16
-3.15095e-17
1.40545e-16
-1.65034e-18
2.93581e-17
5.57238e-19
-8.03864e-23
3.95809e-22
-2.27452e-21
3.164e-20
-1.33069e-20
3.36742e-19
-3.92979e-20
1.47966e-18
-1.06674e-19
5.17201e-18
-9.05388e-19
3.2275e-17
-1.1159e-16
9.61486e-16
0
1.30715e-14
2.77282e-14
2.42893e-14
3.98659e-13
3.18651e-11
8.57995e-12
4.20402e-10
2.13666e-12
3.67474e-10
-1.18723e-12
2.09673e-10
-9.12227e-13
8.22527e-11
-1.89889e-12
6.17914e-12
-1.05028e-12
1.27936e-12
-2.8791e-13
2.46337e-13
-3.93619e-13
1.36344e-14
-1.21504e-12
-2.38743e-13
-1.75673e-12
-9.70405e-13
-1.68283e-12
-9.15567e-13
-1.49708e-12
-1.08018e-12
-7.19247e-13
-1.09017e-12
-3.65654e-14
-5.01725e-13
-2.80195e-15
-3.39114e-14
-2.73595e-15
-2.80053e-16
-3.10526e-15
1.42941e-15
-3.82232e-15
4.39886e-15
-2.68106e-14
6.02103e-14
-2.93643e-11
1.02976e-11
-1.14055e-10
2.71656e-10
-1.04361e-10
4.28275e-10
-5.12199e-12
2.57104e-10
-1.4109e-12
1.34897e-12
-4.97571e-13
3.57596e-13
-2.27066e-15
3.25185e-13
-4.27546e-15
8.67591e-15
-6.252e-15
5.45435e-15
-4.11127e-16
6.95744e-15
-3.51783e-16
1.10478e-15
-3.44126e-16
1.04662e-15
-3.42823e-16
1.00058e-15
-3.42095e-16
9.5708e-16
-3.20986e-16
8.8596e-16
-2.59328e-16
7.20046e-16
-1.8067e-16
5.05314e-16
-8.86874e-17
2.90392e-16
-2.08524e-17
1.05305e-16
-5.72726e-19
1.71024e-17
1.42215e-19
-1.5143e-22
9.43448e-22
-3.81596e-21
5.52238e-20
-2.17372e-20
5.52177e-19
-5.70206e-20
2.34404e-18
-1.46553e-19
7.50225e-18
-1.51031e-18
4.96787e-17
-1.12027e-16
1.13144e-15
0
9.45227e-15
1.79161e-14
1.29697e-14
3.5986e-12
3.00927e-11
1.21512e-11
1.79356e-10
6.66703e-12
3.66115e-10
1.47225e-12
1.9723e-10
-9.34917e-13
3.56042e-11
-7.90758e-13
1.91417e-12
-2.10753e-13
1.00997e-12
-3.22919e-13
2.25776e-13
-1.21148e-12
2.38541e-13
-1.99992e-12
-3.87893e-13
-1.97454e-12
-9.70586e-13
-1.8496e-12
-1.03615e-12
-1.67667e-12
-1.19991e-12
-1.40831e-12
-1.31521e-12
-9.15769e-13
-1.08021e-12
-2.46817e-14
-4.11635e-13
-2.78642e-15
-1.22652e-14
-3.05796e-15
1.66934e-15
-1.09829e-15
5.54313e-15
-3.05979e-14
7.33931e-14
-3.57084e-11
1.38424e-11
-1.08924e-10
3.58132e-10
-1.2023e-10
4.75241e-10
-1.61564e-12
3.89228e-10
-4.02508e-13
7.29072e-13
-1.66154e-13
2.41408e-13
-5.74248e-14
2.59315e-13
-4.15227e-15
4.88215e-14
-1.80479e-15
4.41927e-15
-3.69721e-16
2.35194e-15
-3.57812e-16
1.0944e-15
-3.55078e-16
1.04646e-15
-3.55824e-16
1.00263e-15
-3.56336e-16
9.60285e-16
-3.33738e-16
8.85483e-16
-2.6837e-16
7.17456e-16
-1.735e-16
4.86544e-16
-7.09184e-17
2.46853e-16
-1.27208e-17
7.31765e-17
-1.40623e-19
9.25398e-18
3.15691e-20
-2.5593e-22
1.97341e-21
-5.77842e-21
8.73802e-20
-3.2459e-20
8.34115e-19
-7.9094e-20
3.52822e-18
-2.34369e-19
1.1152e-17
-3.94734e-18
8.82069e-17
-5.48859e-17
1.28962e-15
-8.88838e-23
3.42795e-15
1.3243e-15
6.0661e-15
1.27614e-12
1.99602e-11
3.94997e-12
7.40115e-11
9.80895e-12
3.42618e-10
4.2866e-12
1.87605e-10
0
1.08515e-11
-1.21842e-13
1.59627e-12
-2.22922e-13
5.7705e-13
-9.57778e-13
9.57428e-13
-2.06758e-12
6.27635e-13
-2.08779e-12
-2.66107e-13
-1.79069e-12
-6.99797e-13
-1.33347e-12
-1.93485e-13
-1.34844e-12
-6.50138e-13
-1.45058e-12
-1.1772e-12
-1.20466e-12
-1.39207e-12
-5.85437e-13
-9.18602e-13
-1.92481e-14
-1.37367e-13
-4.16917e-15
3.11207e-15
-6.34766e-15
8.22385e-15
-9.21445e-14
1.50035e-13
-4.31243e-11
4.9747e-11
-9.93782e-11
3.79428e-10
-1.37097e-10
5.19832e-10
-3.57287e-12
6.09819e-10
-4.64964e-13
1.06432e-12
-2.4674e-13
6.16907e-13
-8.7852e-14
1.27431e-12
-3.77371e-15
8.46198e-14
-2.49469e-15
3.20424e-15
-3.68013e-16
5.65999e-15
-3.67038e-16
1.09436e-15
-3.66636e-16
1.04758e-15
-3.69639e-16
1.00669e-15
-3.71976e-16
9.70004e-16
-3.50351e-16
8.99775e-16
-2.73587e-16
7.15494e-16
-1.56656e-16
4.48444e-16
-5.16392e-17
1.93051e-16
-7.08352e-18
4.61877e-17
-3.39099e-20
4.6027e-18
8.13926e-21
-3.90594e-22
3.61555e-21
-7.93091e-21
1.25976e-19
-4.47493e-20
1.16425e-18
-1.11454e-19
5.06202e-18
-3.5321e-19
1.64972e-17
-1.51378e-17
1.0565e-16
-1.31377e-17
1.6218e-15
-3.32102e-18
3.09455e-15
1.33198e-14
1.78178e-14
4.9636e-13
4.40083e-12
2.35456e-12
5.99684e-11
1.05863e-11
3.34829e-10
5.7921e-12
1.93724e-10
1.30311e-13
2.15636e-11
-1.3874e-13
1.17804e-12
-9.6344e-13
7.9248e-13
-1.87435e-12
1.95817e-12
-2.07076e-12
9.24573e-13
-1.00479e-12
-1.5678e-13
-3.13829e-13
-6.58454e-14
-2.9984e-13
-3.04413e-13
-2.24519e-13
-2.25452e-13
-7.88365e-13
-2.48399e-14
-1.07227e-12
-1.18055e-12
-7.67622e-13
-1.21782e-12
-2.8412e-13
-3.6461e-13
-1.45636e-14
5.90448e-14
0
2.05697e-14
-8.39682e-13
8.16737e-13
-5.77018e-11
2.28514e-10
-1.04174e-10
4.14581e-10
-1.53274e-10
5.72757e-10
-3.22453e-11
7.61313e-10
-1.01383e-12
6.45532e-12
-6.03977e-13
7.26174e-13
-2.74206e-13
2.49388e-12
-3.45411e-15
8.06329e-14
-3.68374e-15
2.89344e-15
-3.79645e-16
7.71384e-15
-3.79935e-16
1.09852e-15
-3.81917e-16
1.05046e-15
-3.92843e-16
1.021e-15
-3.9732e-16
9.91809e-16
-3.69762e-16
9.24972e-16
-2.66696e-16
6.95635e-16
-1.28535e-16
3.79508e-16
-3.36127e-17
1.3494e-16
-3.57811e-18
2.6105e-17
-8.37851e-21
2.08361e-18
1.95679e-21
-5.40954e-22
5.83853e-21
-9.91104e-21
1.66258e-19
-5.84084e-20
1.50939e-18
-1.67077e-19
6.96775e-18
-3.98312e-19
2.34273e-17
-1.70084e-17
9.70157e-17
-2.37182e-17
2.75021e-15
-1.50255e-17
2.44555e-14
1.55554e-15
3.65959e-14
1.07842e-12
1.57073e-12
8.9383e-12
4.58449e-10
3.96407e-12
3.3538e-10
2.35722e-12
1.92258e-10
0
2.38286e-11
-3.71398e-13
1.93389e-12
-1.40341e-12
3.89289e-12
-2.13638e-12
2.27326e-12
-1.01509e-12
5.91668e-13
-5.74951e-13
-4.38227e-14
-3.1707e-13
-6.14258e-13
-3.80589e-13
-3.51458e-13
-3.54257e-13
-7.72737e-13
-1.86293e-13
-1.13359e-12
-4.9564e-13
-5.09569e-14
-6.93812e-13
-1.18943e-12
-2.78707e-13
-9.57787e-13
0
1.92006e-13
0
2.78313e-14
-1.09183e-11
1.66808e-11
-4.99649e-11
2.94569e-10
-9.98337e-11
4.52934e-10
-1.5587e-10
6.24473e-10
-1.17288e-10
7.23111e-10
-1.11202e-12
1.13739e-10
-9.21984e-13
6.17734e-13
-2.59182e-13
2.36206e-12
-3.94218e-15
2.45655e-13
-4.33096e-15
2.63271e-15
-3.85334e-16
8.35511e-15
-3.98144e-16
1.10361e-15
-4.02166e-16
1.05502e-15
-4.13785e-16
1.04321e-15
-4.07079e-16
1.00593e-15
-3.86399e-16
9.39808e-16
-2.38832e-16
6.4321e-16
-9.29598e-17
2.82872e-16
-1.93682e-17
8.26591e-17
-1.63296e-18
1.31558e-17
-1.97448e-21
8.52787e-19
4.38336e-22
-6.80048e-22
8.37478e-21
-1.13425e-20
2.01626e-19
-7.35681e-20
1.82748e-18
-2.93665e-19
9.19419e-18
-4.68849e-19
3.1515e-17
0
6.1125e-17
-6.29586e-16
6.03041e-15
0
8.17557e-14
0
5.90711e-14
1.02494e-12
2.6313e-12
7.03495e-12
4.4968e-10
8.53875e-12
3.34905e-10
5.08182e-12
1.93637e-10
-1.8275e-13
1.31722e-11
-9.60091e-13
5.26082e-12
-2.09494e-12
4.73507e-12
-1.16794e-12
1.38292e-12
-1.21011e-13
1.5692e-13
-1.26187e-12
-3.75326e-14
-4.37291e-12
-4.06277e-12
-1.38519e-11
-3.82168e-11
-7.19925e-12
-5.57138e-11
-7.44548e-13
-3.35144e-11
-2.23934e-13
0
-1.98667e-13
-2.00718e-13
-1.54374e-13
-5.32653e-13
0
1.0762e-13
0
8.8961e-14
-1.02472e-11
7.95531e-11
-4.50791e-11
3.3758e-10
-1.07677e-10
5.14874e-10