/*--------------------------------*- C++ -*----------------------------------*\
  =========                 |
  \\      /  F ield         | OpenFOAM: The Open Source CFD Toolbox
   \\    /   O peration     | Website:  https://openfoam.org
    \\  /    A nd           | Version:  9
     \\/     M anipulation  |
\*---------------------------------------------------------------------------*/
FoamFile
{
    format      ascii;
    class       surfaceScalarField;
    location    "0.17";
    object      phi;
}
// * * * * * * * * * * * * * * * * * * * * * * * * * * * * * * * * * * * * * //

dimensions      [0 3 -1 0 0 0 0];

internalField   nonuniform List<scalar> 
9850
(
-1.65185e-06
1.54184e-05
-1.72649e-06
1.56958e-05
-1.79416e-06
1.60531e-05
-1.84608e-06
1.64854e-05
-1.86983e-06
1.69526e-05
-1.85399e-06
1.73727e-05
-1.80372e-06
1.77024e-05
-1.74676e-06
1.80913e-05
-1.64433e-06
1.87222e-05
-1.27703e-06
1.88841e-05
-5.67389e-07
1.64992e-05
2.09954e-07
1.00718e-05
-1.65637e-07
2.98702e-06
-2.71125e-07
8.96628e-07
-3.79726e-07
1.45134e-07
-4.58887e-07
1.45825e-07
-5.19883e-07
2.15889e-07
-5.68147e-07
1.15518e-07
-5.97398e-07
-1.19495e-07
-5.91912e-07
-4.23554e-07
-5.49688e-07
-5.5899e-07
-4.75261e-07
-6.1427e-07
-3.88461e-07
-5.24984e-07
-3.13893e-07
-3.36665e-07
-2.64447e-07
-1.32711e-07
-2.43265e-07
2.70057e-08
-2.52555e-07
1.37235e-07
-2.94153e-07
2.46852e-07
-3.56329e-07
4.16491e-07
-3.94218e-07
6.3954e-07
-2.60475e-07
7.92934e-07
8.45588e-08
1.45846e-06
5.33416e-07
2.52857e-06
1.06442e-06
3.73366e-06
1.56426e-06
4.8569e-06
1.95087e-06
5.66266e-06
2.19588e-06
6.06552e-06
2.3189e-06
6.11671e-06
2.36097e-06
5.93372e-06
2.36142e-06
5.63396e-06
2.34678e-06
5.30041e-06
2.33013e-06
4.97695e-06
2.31552e-06
4.67926e-06
2.30274e-06
4.40835e-06
2.29047e-06
4.16012e-06
2.27766e-06
3.93022e-06
2.26387e-06
3.7155e-06
2.24909e-06
3.51401e-06
2.23357e-06
3.32438e-06
3.14385e-06
-1.56678e-06
1.54816e-05
-1.62586e-06
1.57549e-05
-1.67467e-06
1.61019e-05
-1.70432e-06
1.6515e-05
-1.70277e-06
1.69511e-05
-1.66021e-06
1.73302e-05
-1.58121e-06
1.76234e-05
-1.48377e-06
1.79938e-05
-1.32514e-06
1.85636e-05
-9.13645e-07
1.84726e-05
-1.8167e-07
1.57673e-05
4.82907e-07
9.40723e-06
2.46394e-08
3.44529e-06
-2.32947e-07
1.15421e-06
-3.72641e-07
2.84829e-07
-4.31111e-07
2.04295e-07
-4.65445e-07
2.50223e-07
-5.01968e-07
1.52042e-07
-5.40889e-07
-8.05745e-08
-5.67287e-07
-3.97156e-07
-5.62857e-07
-5.6342e-07
-5.21583e-07
-6.55545e-07
-4.5273e-07
-5.93837e-07
-3.81531e-07
-4.07863e-07
-3.27365e-07
-1.86877e-07
-2.97102e-07
-3.2578e-09
-2.97565e-07
1.37698e-07
-3.3159e-07
2.80878e-07
-3.86894e-07
4.71795e-07
-4.67901e-07
7.20547e-07
-3.43148e-07
6.68179e-07
-2.06247e-08
1.13593e-06
3.68569e-07
2.13937e-06
8.00323e-07
3.3019e-06
1.24512e-06
4.41211e-06
1.61796e-06
5.28982e-06
1.87666e-06
5.80682e-06
2.02338e-06
5.97e-06
2.08663e-06
5.87047e-06
2.10075e-06
5.61984e-06
2.09279e-06
5.30837e-06
2.0786e-06
4.99114e-06
2.06489e-06
4.69298e-06
2.05305e-06
4.42019e-06
2.04236e-06
4.17081e-06
2.03178e-06
3.94079e-06
2.02063e-06
3.72664e-06
2.00869e-06
3.52596e-06
1.99597e-06
3.33709e-06
3.15798e-06
-1.48247e-06
1.55327e-05
-1.52714e-06
1.57996e-05
-1.55921e-06
1.6134e-05
-1.56981e-06
1.65256e-05
-1.54743e-06
1.69287e-05
-1.48399e-06
1.72667e-05
-1.38384e-06
1.75232e-05
-1.25615e-06
1.78662e-05
-1.06133e-06
1.83688e-05
-6.64283e-07
1.80756e-05
-1.63665e-08
1.51193e-05
4.6205e-07
8.92882e-06
2.3576e-07
3.67158e-06
-1.73387e-07
1.56336e-06
-3.62122e-07
4.73564e-07
-4.02911e-07
2.45085e-07
-4.00035e-07
2.47347e-07
-4.12874e-07
1.6488e-07
-4.52093e-07
-4.13554e-08
-5.0466e-07
-3.44589e-07
-5.38851e-07
-5.29228e-07
-5.39629e-07
-6.54767e-07
-5.02209e-07
-6.31257e-07
-4.48759e-07
-4.61313e-07
-4.05623e-07
-2.30013e-07
-3.81245e-07
-2.76353e-08
-3.79649e-07
1.36102e-07
-4.01519e-07
3.02748e-07
-4.53875e-07
5.24151e-07
-5.32706e-07
7.99378e-07
-4.03427e-07
5.389e-07
-1.45983e-07
8.78489e-07
1.9412e-07
1.79927e-06
5.77574e-07
2.91845e-06
9.74098e-07
4.01558e-06
1.32431e-06
4.9396e-06
1.58429e-06
5.54684e-06
1.74513e-06
5.80915e-06
1.8247e-06
5.7909e-06
1.85118e-06
5.59336e-06
1.85015e-06
5.3094e-06
1.83879e-06
5.0025e-06
1.82582e-06
4.70594e-06
1.81424e-06
4.43177e-06
1.80415e-06
4.1809e-06
1.79476e-06
3.95018e-06
1.78533e-06
3.73608e-06
1.77544e-06
3.53585e-06
1.76493e-06
3.3476e-06
3.16979e-06
-1.40014e-06
1.55729e-05
-1.4319e-06
1.58313e-05
-1.44938e-06
1.61514e-05
-1.44395e-06
1.65202e-05
-1.40502e-06
1.68898e-05
-1.32641e-06
1.71881e-05
-1.21303e-06
1.74099e-05
-1.06744e-06
1.77206e-05
-8.52147e-07
1.81535e-05
-4.7816e-07
1.77016e-05
1.04573e-07
1.45366e-05
5.1855e-07
8.51484e-06
7.7075e-07
3.41938e-06
-7.67599e-08
2.41087e-06
-3.28101e-07
7.24905e-07
-3.58574e-07
2.75558e-07
-3.24843e-07
2.13616e-07
-3.12728e-07
1.52765e-07
-3.43893e-07
-1.01907e-08
-4.10888e-07
-2.77594e-07
-4.76244e-07
-4.63872e-07
-5.21232e-07
-6.09779e-07
-5.2658e-07
-6.2591e-07
-5.05511e-07
-4.82381e-07
-4.94837e-07
-2.40688e-07
-5.05476e-07
-1.69962e-08
-5.25631e-07
1.56257e-07
-5.47305e-07
3.24422e-07
-5.4065e-07
5.17496e-07
-4.6938e-07
7.28108e-07
-4.03288e-07
4.72808e-07
-2.23289e-07
6.98491e-07
9.10824e-08
1.4849e-06
4.21537e-07
2.58799e-06
7.64295e-07
3.67283e-06
1.07898e-06
4.62492e-06
1.32592e-06
5.29991e-06
1.48929e-06
5.64578e-06
1.57781e-06
5.70238e-06
1.61306e-06
5.55811e-06
1.61776e-06
5.3047e-06
1.60896e-06
5.0113e-06
1.59656e-06
4.71834e-06
1.5848e-06
4.44353e-06
1.57465e-06
4.19105e-06
1.56568e-06
3.95915e-06
1.55721e-06
3.74454e-06
1.54874e-06
3.54432e-06
1.53991e-06
3.35642e-06
3.17978e-06
-1.32043e-06
1.56033e-05
-1.34093e-06
1.58518e-05
-1.34608e-06
1.61566e-05
-1.32775e-06
1.65018e-05
-1.27648e-06
1.68385e-05
-1.18788e-06
1.70995e-05
-1.0678e-06
1.72898e-05
-9.1472e-07
1.75675e-05
-6.90319e-07
1.79291e-05
-3.40031e-07
1.73513e-05
1.72927e-07
1.40237e-05
7.29904e-07
7.95786e-06
1.23939e-06
2.90989e-06
1.88966e-07
3.4613e-06
-1.82083e-07
1.09595e-06
-2.45976e-07
3.39451e-07
-2.21967e-07
1.89607e-07
-2.02812e-07
1.3361e-07
-2.25763e-07
1.27604e-08
-2.93975e-07
-2.09382e-07
-3.77631e-07
-3.80217e-07
-4.60666e-07
-5.26743e-07
-5.123e-07
-5.74276e-07
-5.2693e-07
-4.67751e-07
-5.51783e-07
-2.15834e-07
-6.03919e-07
3.51394e-08
-6.47491e-07
1.99829e-07
-6.03607e-07
2.80539e-07
-4.46775e-07
3.60663e-07
-2.79596e-07
5.60929e-07
-2.45181e-07
4.38393e-07
-2.10311e-07
6.63621e-07
-4.48178e-09
1.27907e-06
3.09391e-07
2.27412e-06
6.09917e-07
3.3723e-06
8.821e-07
4.35274e-06
1.10359e-06
5.07842e-06
1.25772e-06
5.49165e-06
1.34664e-06
5.61346e-06
1.38571e-06
5.51904e-06
1.39384e-06
5.29657e-06
1.38677e-06
5.01836e-06
1.37461e-06
4.7305e-06
1.36236e-06
4.45579e-06
1.35164e-06
4.20177e-06
1.34243e-06
3.96836e-06
1.33415e-06
3.75281e-06
1.32625e-06
3.55223e-06
1.31821e-06
3.36446e-06
3.18903e-06
-1.24392e-06
1.56248e-05
-1.25479e-06
1.58627e-05
-1.24979e-06
1.61516e-05
-1.22149e-06
1.64735e-05
-1.16174e-06
1.67788e-05
-1.06768e-06
1.70055e-05
-9.45919e-07
1.7168e-05
-7.93133e-07
1.74147e-05
-5.71143e-07
1.77071e-05
-2.45201e-07
1.70254e-05
1.711e-07
1.36074e-05
5.94243e-07
7.53472e-06
6.23168e-07
2.88096e-06
3.38275e-07
3.74619e-06
1.46747e-07
1.28748e-06
-1.95899e-08
5.05789e-07
-6.83813e-08
2.38398e-07
-7.58366e-08
1.41065e-07
-9.78764e-08
3.48002e-08
-1.61368e-07
-1.4589e-07
-2.50691e-07
-2.90894e-07
-3.61916e-07
-4.15519e-07
-4.56046e-07
-4.80146e-07
-4.96933e-07
-4.26864e-07
-5.25736e-07
-1.87031e-07
-5.78546e-07
8.7949e-08
-5.76072e-07
1.97355e-07
-4.30376e-07
1.34842e-07
9.23719e-08
-1.62084e-07
2.24523e-07
4.28778e-07
1.41431e-07
5.21485e-07
5.73031e-09
7.99322e-07
6.71726e-08
1.21763e-06
2.97348e-07
2.04395e-06
5.23946e-07
3.1457e-06
7.35845e-07
4.14084e-06
9.15969e-07
4.89829e-06
1.04799e-06
5.35963e-06
1.1283e-06
5.53316e-06
1.16576e-06
5.48157e-06
1.17467e-06
5.28766e-06
1.1684e-06
5.02463e-06
1.15634e-06
4.74256e-06
1.14366e-06
4.46847e-06
1.13241e-06
4.21303e-06
1.12287e-06
3.9779e-06
1.11463e-06
3.76105e-06
1.10711e-06
3.55974e-06
1.09964e-06
3.37193e-06
3.1975e-06
-1.17102e-06
1.56387e-05
-1.17381e-06
1.58655e-05
-1.16068e-06
1.61384e-05
-1.12502e-06
1.64379e-05
-1.06008e-06
1.67138e-05
-9.64362e-07
1.69098e-05
-8.4504e-07
1.70487e-05
-6.98731e-07
1.72684e-05
-4.90462e-07
1.74988e-05
-1.9395e-07
1.67288e-05
1.37676e-07
1.32757e-05
4.44978e-07
7.22742e-06
5.27263e-07
2.79868e-06
5.22143e-07
3.75131e-06
4.70207e-07
1.33942e-06
2.5522e-07
7.20776e-07
1.22613e-07
3.71006e-07
7.16936e-08
1.91984e-07
4.39029e-08
6.25909e-08
-1.60066e-08
-8.59809e-08
-1.09967e-07
-1.96934e-07
-2.39291e-07
-2.86194e-07
-3.73103e-07
-3.46334e-07
-4.45889e-07
-3.54079e-07
-4.63801e-07
-1.69119e-07
-4.99583e-07
1.23732e-07
-4.42706e-07
1.40477e-07
-2.39315e-07
-6.85489e-08
-1.94193e-07
-2.07205e-07
8.04438e-08
1.54142e-07
2.22984e-07
3.78945e-07
7.50113e-08
9.47295e-07
8.31203e-08
1.20952e-06
2.5534e-07
1.87173e-06
4.39849e-07
2.96119e-06
6.02834e-07
3.97785e-06
7.40961e-07
4.76017e-06
8.45998e-07
5.25459e-06
9.1282e-07
5.46633e-06
9.45465e-07
5.44893e-06
9.53807e-07
5.27932e-06
9.48319e-07
5.03012e-06
9.37053e-07
4.75382e-06
9.24845e-07
4.48068e-06
9.13886e-07
4.22399e-06
9.04722e-07
3.98707e-06
8.9711e-07
3.76867e-06
8.90519e-07
3.56633e-06
8.84223e-07
3.37822e-06
3.20465e-06
-1.10195e-06
1.56461e-05
-1.09809e-06
1.58616e-05
-1.07863e-06
1.6119e-05
-1.03783e-06
1.63971e-05
-9.70413e-07
1.66464e-05
-8.76157e-07
1.68155e-05
-7.62662e-07
1.69352e-05
-6.27387e-07
1.71331e-05
-4.38968e-07
1.73104e-05
-1.73143e-07
1.6463e-05
1.20479e-07
1.29821e-05
4.31029e-07
6.91687e-06
4.19995e-07
2.80971e-06
7.27991e-07
3.44331e-06
5.53808e-07
1.5136e-06
4.2625e-07
8.48334e-07
2.83163e-07
5.14092e-07
2.29841e-07
2.45306e-07
1.99898e-07
9.2534e-08
1.34823e-07
-2.09051e-08
3.52277e-08
-9.73388e-08
-9.76935e-08
-1.53273e-07
-2.58667e-07
-1.85361e-07
-3.9093e-07
-2.21816e-07
-4.79059e-07
-8.09896e-08
-4.74516e-07
1.19189e-07
-4.5305e-07
1.1901e-07
-3.27312e-07
-1.94287e-07
-2.41857e-07
-2.92659e-07
-5.21617e-08
-3.55537e-08
4.4946e-08
2.81838e-07
1.80204e-07
8.12037e-07
1.74382e-07
1.21534e-06
2.15757e-07
1.83035e-06
3.44726e-07
2.83222e-06
4.59233e-07
3.86335e-06
5.57577e-07
4.66182e-06
6.35576e-07
5.17659e-06
6.87975e-07
5.41393e-06
7.15432e-07
5.42147e-06
7.23747e-07
5.27101e-06
7.20296e-07
5.03357e-06
7.11385e-07
4.76273e-06
7.01174e-07
4.49089e-06
6.91792e-07
4.23337e-06
6.83962e-07
3.9949e-06
6.77641e-07
3.77499e-06
6.7243e-07
3.57155e-06
6.67639e-07
3.38301e-06
3.21004e-06
-1.03677e-06
1.5648e-05
-1.02752e-06
1.58524e-05
-1.00328e-06
1.60947e-05
-9.59183e-07
1.6353e-05
-8.91407e-07
1.65786e-05
-8.00935e-07
1.6725e-05
-6.95703e-07
1.683e-05
-5.74337e-07
1.70117e-05
-4.08507e-07
1.71446e-05
-1.7598e-07
1.62305e-05
8.63734e-08
1.27197e-05
3.43677e-07
6.65957e-06
2.93776e-07
2.85961e-06
4.32814e-07
3.30428e-06
5.26305e-07
1.42011e-06
3.47095e-07
1.02754e-06
4.00165e-07
4.61022e-07
3.68623e-07
2.76848e-07
3.45539e-07
1.15617e-07
2.64256e-07
6.03781e-08
1.60106e-07
6.81142e-09
4.66539e-08
-3.98208e-08
-5.63844e-08
-8.23223e-08
-2.44242e-07
-3.39576e-08
-5.20639e-07
1.95407e-07
-9.12574e-07
5.11124e-07
-5.68617e-07
-2.24947e-07
-3.26234e-07
-4.36669e-07
-1.91985e-07
-4.26908e-07
-5.17258e-08
-1.75813e-07
5.44872e-08
1.75625e-07
1.99538e-07
6.66987e-07
2.29267e-07
1.18561e-06
1.85802e-07
1.87382e-06
2.52499e-07
2.76553e-06
3.06002e-07
3.80984e-06
3.60922e-07
4.6069e-06
4.10605e-07
5.12691e-06
4.48176e-07
5.37636e-06
4.70893e-07
5.39876e-06
4.80372e-07
5.26153e-06
4.80659e-07
5.03329e-06
4.7597e-07
4.76742e-06
4.69488e-07
4.49737e-06
4.63091e-07
4.23977e-06
4.57603e-07
4.00038e-06
4.53179e-07
3.77941e-06
4.49573e-07
3.57515e-06
4.46155e-07
3.38643e-06
3.21422e-06
-9.75445e-07
1.56452e-05
-9.61871e-07
1.58388e-05
-9.34113e-07
1.6067e-05
-8.88167e-07
1.6307e-05
-8.21521e-07
1.6512e-05
-7.36321e-07
1.66398e-05
-6.40758e-07
1.67344e-05
-5.35065e-07
1.69061e-05
-3.94866e-07
1.70044e-05
-2.01728e-07
1.60374e-05
2.04093e-08
1.24976e-05
1.7687e-07
6.50311e-06
4.36094e-08
2.99287e-06
1.73244e-07
3.17464e-06
1.99067e-07
1.39429e-06
4.08499e-07
8.18111e-07
6.22359e-07
2.47163e-07
4.55677e-07
4.4353e-07
3.85584e-07
1.8571e-07
3.25749e-07
1.20213e-07
2.52077e-07
8.04834e-08
1.87778e-07
2.44784e-08
1.03849e-07
1.60621e-09
-1.09541e-07
1.79433e-07
-1.29499e-07
2.15365e-07
5.0672e-08
3.30954e-07
2.61731e-08
-2.00448e-07
1.4644e-08
-4.2514e-07
-2.46585e-09
-4.09798e-07
4.90662e-08
-2.27345e-07
1.14427e-07
1.10265e-07
1.68356e-07
6.13058e-07
1.77574e-07
1.1764e-06
1.40077e-07
1.91131e-06
9.13076e-08
2.8143e-06
1.09731e-07
3.79142e-06
1.35605e-07
4.58103e-06
1.64548e-07
5.09797e-06
1.91302e-07
5.34961e-06
2.11619e-07
5.37844e-06
2.2416e-07
5.24899e-06
2.30013e-07
5.02744e-06
2.31312e-07
4.76612e-06
2.30141e-07
4.49854e-06
2.28006e-07
4.24191e-06
2.25752e-07
4.00264e-06
2.23689e-07
3.78147e-06
2.21717e-07
3.57712e-06
2.19404e-07
3.38874e-06
3.21697e-06
-9.17845e-07
1.56385e-05
-9.00826e-07
1.58218e-05
-8.7054e-07
1.60367e-05
-8.23763e-07
1.62603e-05
-7.59138e-07
1.64474e-05
-6.79909e-07
1.65606e-05
-5.94538e-07
1.6649e-05
-5.05191e-07
1.68167e-05
-3.92435e-07
1.68916e-05
-2.41793e-07
1.58867e-05
-6.4784e-08
1.23206e-05
-2.92075e-08
6.46753e-06
-1.93802e-07
3.15747e-06
1.06012e-08
2.97024e-06
3.42327e-08
1.37066e-06
1.42156e-07
7.10188e-07
1.90983e-07
1.98336e-07
3.47267e-07
2.87246e-07
3.46014e-07
1.86963e-07
3.2855e-07
1.37678e-07
2.99255e-07
1.09778e-07
2.50233e-07
7.35004e-08
1.9149e-07
6.03489e-08
2.14647e-07
1.56276e-07
2.11592e-07
2.18419e-07
3.62297e-07
1.80249e-07
3.15221e-07
-1.53372e-07
2.36109e-07
-3.46027e-07
1.68699e-07
-3.42387e-07
1.55827e-07
-2.14473e-07
1.93909e-07
7.21838e-08
1.62188e-07
6.44778e-07
1.09219e-07
1.22937e-06
2.55584e-08
1.99497e-06
-7.13743e-08
2.91123e-06
-1.04334e-07
3.82438e-06
-1.07025e-07
4.58372e-06
-9.52521e-08
5.08619e-06
-7.63338e-08
5.33069e-06
-5.63432e-08
5.35845e-06
-3.92564e-08
5.2319e-06
-2.66146e-08
5.01479e-06
-1.82122e-08
4.75772e-06
-1.30446e-08
4.49337e-06
-1.00147e-08
4.23888e-06
-8.28636e-09
4.00091e-06
-7.39595e-09
3.78058e-06
-7.25686e-09
3.57699e-06
-7.88919e-09
3.38938e-06
3.21725e-06
-8.63791e-07
1.56285e-05
-8.44022e-07
1.5802e-05
-8.11921e-07
1.60046e-05
-7.64948e-07
1.62133e-05
-7.02704e-07
1.63851e-05
-6.29424e-07
1.64873e-05
-5.5385e-07
1.65735e-05
-4.79901e-07
1.67428e-05
-3.92897e-07
1.68046e-05
-2.82004e-07
1.57758e-05
-1.56453e-07
1.21951e-05
-2.6121e-07
6.57229e-06
-4.54489e-07
3.35075e-06
-2.10829e-07
2.72658e-06
-1.53535e-07
1.31336e-06
-1.00807e-07
6.5746e-07
-6.71478e-08
1.64677e-07
7.09046e-08
1.49194e-07
1.59236e-07
9.86326e-08
2.15548e-07
8.13655e-08
2.4577e-07
7.95564e-08
2.55989e-07
6.32813e-08
2.59119e-07
5.72189e-08
2.92784e-07
1.22612e-07
3.60463e-07
1.5074e-07
4.58273e-07
8.244e-08
4.24902e-07
-1.20001e-07
3.32683e-07
-2.53809e-07
2.48102e-07
-2.57806e-07
1.66442e-07
-1.32812e-07
1.29102e-07
1.09523e-07
7.03009e-08
7.0358e-07
-2.54522e-08
1.32512e-06
-1.60526e-07
2.13005e-06
-2.77862e-07
3.02857e-06
-3.32194e-07
3.87871e-06
-3.5546e-07
4.60699e-06
-3.5695e-07
5.08768e-06
-3.43606e-07
5.31735e-06
-3.22819e-07
5.33766e-06
-3.00785e-07
5.20987e-06
-2.81267e-07
4.99528e-06
-2.65729e-07
4.74218e-06
-2.54147e-07
4.48179e-06
-2.45842e-07
4.23057e-06
-2.40047e-07
3.99512e-06
-2.36222e-07
3.77676e-06
-2.34148e-07
3.57491e-06
-2.33617e-07
3.38885e-06
3.21724e-06
-8.13078e-07
1.56159e-05
-7.91091e-07
1.578e-05
-7.57649e-07
1.59712e-05
-7.10783e-07
1.61664e-05
-6.50831e-07
1.63252e-05
-5.82801e-07
1.64193e-05
-5.15594e-07
1.65063e-05
-4.54162e-07
1.66813e-05
-3.87169e-07
1.67376e-05
-3.06823e-07
1.56955e-05
-2.32139e-07
1.21204e-05
-3.83586e-07
6.72373e-06
-5.27508e-07
3.49467e-06
-3.70978e-07
2.57005e-06
-2.9068e-07
1.23306e-06
-2.12777e-07
5.79557e-07
-1.72963e-07
1.24863e-07
-6.5168e-08
4.13987e-08
2.83123e-08
5.15259e-09
1.00092e-07
9.58578e-09
1.52135e-07
2.75133e-08
1.85758e-07
2.96593e-08
2.06096e-07
3.68806e-08
2.55182e-07
7.35268e-08
3.27867e-07
7.80539e-08
3.92706e-07
1.76015e-08
3.72458e-07
-9.97538e-08
2.981e-07
-1.7945e-07
1.97116e-07
-1.56822e-07
6.98038e-08
-5.5001e-09
-6.5632e-08
2.44959e-07
-1.23207e-07
7.61155e-07
-2.17605e-07
1.41952e-06
-3.36768e-07
2.24921e-06
-4.56637e-07
3.14844e-06
-5.44782e-07
3.96686e-06
-5.91319e-07
4.65352e-06
-6.0605e-07
5.10242e-06
-5.98018e-07
5.30932e-06
-5.76725e-07
5.31637e-06
-5.50541e-07
5.18368e-06
-5.25162e-07
4.9699e-06
-5.03468e-07
4.72049e-06
-4.86279e-07
4.4646e-06
-4.73308e-07
4.2176e-06
-4.63902e-07
3.98571e-06
-4.57501e-07
3.77036e-06
-4.5376e-07
3.57117e-06
-4.52216e-07
3.3873e-06
3.21688e-06
-7.65504e-07
1.5601e-05
-7.41698e-07
1.57562e-05
-7.07194e-07
1.59366e-05
-6.60469e-07
1.61197e-05
-6.02378e-07
1.62671e-05
-5.38367e-07
1.63553e-05
-4.77167e-07
1.64451e-05
-4.2384e-07
1.6628e-05
-3.68142e-07
1.66819e-05
-3.08983e-07
1.56363e-05
-2.84182e-07
1.20956e-05
-4.67827e-07
6.90738e-06
-5.76501e-07
3.60335e-06
-4.20816e-07
2.41436e-06
-3.30645e-07
1.14289e-06
-2.50209e-07
4.99122e-07
-2.05325e-07
7.99787e-08
-1.27185e-07
-3.67405e-08
-5.86444e-08
-6.33881e-08
2.71057e-09
-5.1769e-08
5.37435e-08
-2.35196e-08
9.49025e-08
-1.14997e-08
1.30024e-07
1.75938e-09
1.80879e-07
2.26714e-08
2.38764e-07
2.01689e-08
2.78558e-07
-2.21926e-08
2.68703e-07
-8.98984e-08
2.1648e-07
-1.27227e-07
1.28206e-07
-6.85476e-08
-1.93095e-08
1.42015e-07
-1.5752e-07
3.8317e-07
-2.97828e-07
9.01464e-07
-3.99113e-07
1.5208e-06
-5.20963e-07
2.37106e-06
-6.43217e-07
3.27069e-06
-7.46499e-07
4.07014e-06
-8.09185e-07
4.71621e-06
-8.3422e-07
5.12745e-06
-8.30554e-07
5.30565e-06
-8.09197e-07
5.29501e-06
-7.80166e-07
5.15465e-06
-7.50578e-07
4.94031e-06
-7.24349e-07
4.69426e-06
-7.02944e-07
4.4432e-06
-6.86399e-07
4.20106e-06
-6.74195e-07
3.97351e-06
-6.65805e-07
3.76197e-06
-6.60812e-07
3.56618e-06
-6.58592e-07
3.38508e-06
3.21638e-06
-7.20885e-07
1.55842e-05
-6.95559e-07
1.57309e-05
-6.6014e-07
1.59012e-05
-6.13412e-07
1.6073e-05
-5.56531e-07
1.62102e-05
-4.95024e-07
1.62938e-05
-4.36957e-07
1.6387e-05
-3.86806e-07
1.65779e-05
-3.34935e-07
1.663e-05
-2.84147e-07
1.55855e-05
-2.87189e-07
1.20986e-05
-4.43305e-07
7.06349e-06
-5.52121e-07
3.71216e-06
-3.96747e-07
2.25899e-06
-3.24361e-07
1.07051e-06
-2.55623e-07
4.30385e-07
-2.16712e-07
4.10673e-08
-1.68015e-07
-8.54366e-08
-1.22515e-07
-1.08888e-07
-7.48728e-08
-9.94114e-08
-3.05023e-08
-6.789e-08
1.12704e-08
-5.32723e-08
5.07836e-08
-3.77538e-08
9.54218e-08
-2.19668e-08
1.37839e-07
-2.22478e-08
1.62489e-07
-4.6843e-08
1.56153e-07
-8.35626e-08
1.24421e-07
-9.54939e-08
8.12621e-08
-2.53889e-08
2.52234e-08
1.98054e-07
-1.39139e-07
5.47532e-07
-2.9711e-07
1.05943e-06
-4.84864e-07
1.70856e-06
-6.56633e-07
2.54283e-06
-8.08473e-07
3.42253e-06
-9.29163e-07
4.19083e-06
-1.00441e-06
4.79146e-06
-1.03664e-06
5.15968e-06
-1.03601e-06
5.30501e-06
-1.01484e-06
5.27384e-06
-9.84257e-07
5.12408e-06
-9.52245e-07
4.9083e-06
-9.23332e-07
4.66535e-06
-8.99381e-07
4.41925e-06
-8.80666e-07
4.18234e-06
-8.66813e-07
3.95965e-06
-8.57359e-07
3.75251e-06
-8.5181e-07
3.56063e-06
-8.4934e-07
3.38261e-06
3.21579e-06
-6.7907e-07
1.55658e-05
-6.52457e-07
1.57043e-05
-6.162e-07
1.5865e-05
-5.69254e-07
1.6026e-05
-5.12863e-07
1.61538e-05
-4.52307e-07
1.62332e-05
-3.94408e-07
1.63291e-05
-3.4212e-07
1.65256e-05
-2.86243e-07
1.65742e-05
-2.32997e-07
1.55323e-05
-2.4126e-07
1.21069e-05
-4.05139e-07
7.22737e-06
-5.20425e-07
3.82745e-06
-3.93627e-07
2.13219e-06
-3.12572e-07
9.89452e-07
-2.52579e-07
3.70391e-07
-2.25348e-07
1.38372e-08
-2.00598e-07
-1.10187e-07
-1.74307e-07
-1.35178e-07
-1.36892e-07
-1.36826e-07
-9.903e-08
-1.05752e-07
-6.05195e-08
-9.17829e-08
-2.33306e-08
-7.49426e-08
1.29859e-08
-5.82833e-08
4.19584e-08
-5.12202e-08
5.27484e-08
-5.7633e-08
3.7248e-08
-6.80622e-08
-1.27428e-09
-5.69716e-08
-5.07674e-08
2.41043e-08
-1.13612e-07
2.60899e-07
-2.39355e-07
6.73274e-07
-3.89226e-07
1.20931e-06
-5.85899e-07
1.90523e-06
-7.83027e-07
2.73996e-06
-9.52888e-07
3.59239e-06
-1.08821e-06
4.32615e-06
-1.17239e-06
4.87564e-06
-1.2095e-06
5.19679e-06
-1.21111e-06
5.30662e-06
-1.19065e-06
5.25338e-06
-1.15991e-06
5.09334e-06
-1.12729e-06
4.87567e-06
-1.09756e-06
4.63562e-06
-1.07279e-06
4.39447e-06
-1.05341e-06
4.16296e-06
-1.03919e-06
3.94544e-06
-1.02973e-06
3.74306e-06
-1.02444e-06
3.55533e-06
-1.02229e-06
3.38046e-06
3.21544e-06
-6.39945e-07
1.55461e-05
-6.12254e-07
1.56766e-05
-5.75229e-07
1.58279e-05
-5.27877e-07
1.59787e-05
-4.71336e-07
1.60973e-05
-4.10342e-07
1.61722e-05
-3.49968e-07
1.62687e-05
-2.90379e-07
1.6466e-05
-2.22573e-07
1.65064e-05
-1.62241e-07
1.5472e-05
-1.74454e-07
1.21191e-05
-3.57644e-07
7.41056e-06
-4.56084e-07
3.92589e-06
-3.58311e-07
2.03442e-06
-2.90363e-07
9.21505e-07
-2.46921e-07
3.26949e-07
-2.36728e-07
3.64397e-09
-2.32172e-07
-1.14742e-07
-2.17834e-07
-1.49517e-07
-1.88507e-07
-1.66152e-07
-1.56591e-07
-1.37668e-07
-1.22671e-07
-1.25703e-07
-8.9852e-08
-1.07761e-07
-6.09836e-08
-8.71517e-08
-4.2719e-08
-6.94848e-08
-4.42082e-08
-5.61437e-08
-7.31574e-08
-3.9113e-08
-1.30383e-07
2.53729e-10
-2.05708e-07
9.94291e-08
-2.8993e-07
3.45122e-07
-4.14014e-07
7.97359e-07
-5.42533e-07
1.33782e-06
-7.31999e-07
2.0947e-06
-9.27963e-07
2.93592e-06
-1.1002e-06
3.76463e-06
-1.23481e-06
4.46076e-06
-1.31776e-06
4.95859e-06
-1.3546e-06
5.23363e-06
-1.35648e-06
5.3085e-06
-1.33669e-06
5.23359e-06
-1.30685e-06
5.06351e-06
-1.27516e-06
4.84398e-06
-1.24628e-06
4.60675e-06
-1.2223e-06
4.37048e-06
-1.20376e-06
4.14442e-06
-1.19061e-06
3.93229e-06
-1.18254e-06
3.73498e-06
-1.17885e-06
3.55164e-06
-1.1783e-06
3.37992e-06
3.21619e-06
-6.03428e-07
1.55253e-05
-5.74877e-07
1.5648e-05
-5.37198e-07
1.57903e-05
-4.89369e-07
1.59308e-05
-4.32262e-07
1.60402e-05
-3.69859e-07
1.61098e-05
-3.05315e-07
1.62042e-05
-2.36251e-07
1.63969e-05
-1.54122e-07
1.64242e-05
-8.13824e-08
1.53992e-05
-9.24008e-08
1.21301e-05
-2.61943e-07
7.58011e-06
-3.50352e-07
4.0143e-06
-2.98378e-07
1.98244e-06
-2.63581e-07
8.86708e-07
-2.42373e-07
3.05741e-07
-2.49352e-07
1.06235e-08
-2.60027e-07
-1.04067e-07
-2.54736e-07
-1.54808e-07
-2.34696e-07
-1.86192e-07
-2.08797e-07
-1.63567e-07
-1.79147e-07
-1.55353e-07
-1.49898e-07
-1.3701e-07
-1.25729e-07
-1.11321e-07
-1.13762e-07
-8.14511e-08
-1.22819e-07
-4.7087e-08
-1.62057e-07
1.24483e-10
-2.38244e-07
7.6441e-08
-3.4721e-07
2.08395e-07
-4.69788e-07
4.677e-07
-5.99591e-07
9.27161e-07
-7.32695e-07
1.47093e-06
-8.96689e-07
2.25869e-06
-1.07531e-06
3.11454e-06
-1.23633e-06
3.92566e-06
-1.3602e-06
4.58462e-06
-1.43817e-06
5.03657e-06
-1.47211e-06
5.26756e-06
-1.47327e-06
5.30966e-06
-1.4544e-06
5.21472e-06
-1.42641e-06
5.03552e-06
-1.39687e-06
4.81444e-06
-1.37007e-06
4.57995e-06
-1.3479e-06
4.34831e-06
-1.33092e-06
4.12744e-06
-1.31906e-06
3.92043e-06
-1.31183e-06
3.72774e-06
-1.30813e-06
3.54795e-06
-1.30636e-06
3.37814e-06
3.21496e-06
-5.69467e-07
1.55037e-05
-5.40306e-07
1.56189e-05
-5.02167e-07
1.57521e-05
-4.53959e-07
1.58826e-05
-3.9619e-07
1.59824e-05
-3.31978e-07
1.60456e-05
-2.62556e-07
1.61348e-05
-1.82745e-07
1.63171e-05
-8.52661e-08
1.63268e-05
7.75968e-09
1.53062e-05
4.55694e-09
1.21333e-05
-1.45651e-07
7.73031e-06
-2.36529e-07
4.10518e-06
-2.36616e-07
1.98253e-06
-2.33662e-07
8.83754e-07
-2.37228e-07
3.09307e-07
-2.64856e-07
3.82525e-08
-2.87597e-07
-8.13268e-08
-2.92435e-07
-1.4997e-07
-2.80334e-07
-1.98292e-07
-2.58877e-07
-1.85024e-07
-2.31405e-07
-1.82825e-07
-2.03233e-07
-1.65182e-07
-1.8001e-07
-1.34545e-07
-1.69272e-07
-9.21892e-08
-1.79636e-07
-3.67233e-08
-2.20618e-07
4.11067e-08
-3.0182e-07
1.57643e-07
-4.24547e-07
3.31122e-07
-5.59195e-07
6.02348e-07
-7.23203e-07
1.09117e-06
-8.72879e-07
1.6206e-06
-1.03378e-06
2.41959e-06
-1.19741e-06
3.27817e-06
-1.34586e-06
4.07411e-06
-1.45919e-06
4.69795e-06
-1.52981e-06
5.10719e-06
-1.5608e-06
5.29856e-06
-1.56215e-06
5.31101e-06
-1.5455e-06
5.19808e-06
-1.52077e-06
5.01078e-06
-1.49473e-06
4.7884e-06
-1.47119e-06
4.55641e-06
-1.45186e-06
4.32898e-06
-1.43729e-06
4.11287e-06
-1.42739e-06
3.91053e-06
-1.42153e-06
3.72189e-06
-1.4185e-06
3.54491e-06
-1.41691e-06
3.37655e-06
3.21419e-06
-5.38021e-07
1.54816e-05
-5.08546e-07
1.55894e-05
-4.70241e-07
1.57138e-05
-4.21938e-07
1.58343e-05
-3.63751e-07
1.59242e-05
-2.97886e-07
1.59797e-05
-2.23926e-07
1.60608e-05
-1.33848e-07
1.6227e-05
-2.04212e-08
1.62133e-05
9.60074e-08
1.51898e-05
9.66067e-08
1.21327e-05
-3.21451e-08
7.85907e-06
-1.34919e-07
4.20795e-06
-1.82713e-07
2.03032e-06
-2.02771e-07
9.03813e-07
-2.37112e-07
3.43648e-07
-2.84089e-07
8.52303e-08
-3.19216e-07
-4.62002e-08
-3.33306e-07
-1.3588e-07
-3.26689e-07
-2.0491e-07
-3.06367e-07
-2.05347e-07
-2.77873e-07
-2.11318e-07
-2.47359e-07
-1.95696e-07
-2.2136e-07
-1.60543e-07
-2.0768e-07
-1.05869e-07
-2.14729e-07
-2.9675e-08
-2.51854e-07
7.82324e-08
-3.30071e-07
2.3586e-07
-4.5972e-07
4.60771e-07
-6.40009e-07
7.82636e-07
-7.96845e-07
1.24801e-06
-9.91283e-07
1.81504e-06
-1.12804e-06
2.55635e-06
-1.27569e-06
3.42581e-06
-1.41425e-06
4.21268e-06
-1.52187e-06
4.80557e-06
-1.58968e-06
5.175e-06
-1.62103e-06
5.32991e-06
-1.62527e-06
5.31525e-06
-1.61309e-06
5.1859e-06
-1.59346e-06
4.99115e-06
-1.57244e-06
4.76738e-06
-1.55342e-06
4.53739e-06
-1.538e-06
4.31356e-06
-1.52671e-06
4.10158e-06
-1.51942e-06
3.90324e-06
-1.51534e-06
3.71781e-06
-1.51324e-06
3.54281e-06
-1.51204e-06
3.37535e-06
3.21365e-06
-5.09046e-07
1.54592e-05
-4.79597e-07
1.55599e-05
-4.41517e-07
1.56757e-05
-3.93585e-07
1.57864e-05
-3.35555e-07
1.58662e-05
-2.68791e-07
1.5913e-05
-1.91652e-07
1.59837e-05
-9.43323e-08
1.61297e-05
3.06613e-08
1.60883e-05
1.59159e-07
1.50613e-05
1.8041e-07
1.21115e-05
6.91233e-08
7.97035e-06
-4.18828e-08
4.31896e-06
-1.22479e-07
2.11092e-06
-1.73769e-07
9.55103e-07
-2.38825e-07
4.08704e-07
-3.06283e-07
1.52688e-07
-3.54842e-07
2.35865e-09
-3.76276e-07
-1.14445e-07
-3.71625e-07
-2.09561e-07
-3.48668e-07
-2.28303e-07
-3.15088e-07
-2.44899e-07
-2.7951e-07
-2.31275e-07
-2.47392e-07
-1.92661e-07
-2.27613e-07
-1.25648e-07
-2.28105e-07
-2.91828e-08
-2.57552e-07
1.07678e-07
-3.25048e-07
3.03357e-07
-4.35757e-07
5.7148e-07
-5.83766e-07
9.30645e-07
-7.47002e-07
1.41124e-06
-9.5327e-07
2.02131e-06
-1.13056e-06
2.73363e-06
-1.29508e-06
3.59034e-06
-1.43879e-06
4.35639e-06
-1.54991e-06
4.91669e-06
-1.62151e-06
5.2466e-06
-1.65786e-06
5.36626e-06
-1.66826e-06
5.32566e-06
-1.66288e-06
5.18051e-06
-1.65002e-06
4.97829e-06
-1.63524e-06
4.7526e-06
-1.62168e-06
4.52384e-06
-1.6109e-06
4.30277e-06
-1.60341e-06
4.09409e-06
-1.599e-06
3.89884e-06
-1.59682e-06
3.71563e-06
-1.59575e-06
3.54174e-06
-1.59509e-06
3.37469e-06
3.21337e-06
-4.82483e-07
1.5437e-05
-4.53429e-07
1.55309e-05
-4.1605e-07
1.56384e-05
-3.69102e-07
1.57394e-05
-3.12088e-07
1.58092e-05
-2.45738e-07
1.58466e-05
-1.67746e-07
1.59057e-05
-6.78614e-08
1.60298e-05
6.13958e-08
1.59591e-05
1.96615e-07
1.4926e-05
2.32737e-07
1.20753e-05
1.50978e-07
8.05211e-06
4.39486e-08
4.42599e-06
-5.00592e-08
2.20493e-06
-1.45038e-07
1.05008e-06
-2.45389e-07
5.09056e-07
-3.33767e-07
2.41066e-07
-3.92197e-07
6.07885e-08
-4.16299e-07
-9.03433e-08
-4.10759e-07
-2.15101e-07
-3.84461e-07
-2.54602e-07
-3.44236e-07
-2.85123e-07
-2.98434e-07
-2.77077e-07
-2.57476e-07
-2.33619e-07
-2.28365e-07
-1.54759e-07
-2.19349e-07
-3.81989e-08
-2.39208e-07
1.27537e-07
-2.97851e-07
3.62e-07
-3.95559e-07
6.69188e-07
-5.19658e-07
1.05474e-06
-6.82391e-07
1.57397e-06
-8.84682e-07
2.2236e-06
-1.08681e-06
2.93576e-06
-1.27766e-06
3.78119e-06
-1.43722e-06
4.51595e-06
-1.55835e-06
5.03782e-06
-1.6381e-06
5.32635e-06
-1.6823e-06
5.41046e-06
-1.7007e-06
5.34405e-06
-1.70324e-06
5.18305e-06
-1.69783e-06
4.97288e-06
-1.68972e-06
4.74449e-06
-1.68194e-06
4.51606e-06
-1.67603e-06
4.29686e-06
-1.6725e-06
4.09056e-06
-1.67107e-06
3.8974e-06
-1.67085e-06
3.71541e-06
-1.67095e-06
3.54183e-06
-1.67093e-06
3.37467e-06
3.21331e-06
-4.58236e-07
1.54151e-05
-4.29964e-07
1.55026e-05
-3.93814e-07
1.56022e-05
-3.48551e-07
1.56942e-05
-2.93575e-07
1.57542e-05
-2.29249e-07
1.57823e-05
-1.53152e-07
1.58296e-05
-5.54223e-08
1.59321e-05
7.07761e-08
1.58329e-05
2.02057e-07
1.47948e-05
2.51107e-07
1.20263e-05
2.04165e-07
8.09905e-06
1.09231e-07
4.52092e-06
-2.43528e-09
2.31659e-06
-1.34562e-07
1.18221e-06
-2.62006e-07
6.365e-07
-3.65995e-07
3.45055e-07
-4.28819e-07
1.23612e-07
-4.49364e-07
-6.97986e-08
-4.39024e-07
-2.25441e-07
-4.10985e-07
-2.82642e-07
-3.6373e-07
-3.32378e-07
-3.05771e-07
-3.35035e-07
-2.52233e-07
-2.87157e-07
-2.10111e-07
-1.96881e-07
-1.88523e-07
-5.97868e-08
-1.94512e-07
1.33526e-07
-2.43714e-07
4.11202e-07
-3.39726e-07
7.652e-07
-4.59653e-07
1.17467e-06
-6.18955e-07
1.73328e-06
-8.20651e-07
2.4253e-06
-1.0411e-06
3.15621e-06
-1.2562e-06
3.99629e-06
-1.43324e-06
4.69298e-06
-1.56601e-06
5.17059e-06
-1.65483e-06
5.41516e-06
-1.70713e-06
5.46276e-06
-1.73328e-06
5.37021e-06
-1.74326e-06
5.19302e-06
-1.74473e-06
4.97436e-06
-1.74278e-06
4.74254e-06
-1.74038e-06
4.51366e-06
-1.73904e-06
4.29552e-06
-1.73923e-06
4.09075e-06
-1.74054e-06
3.89872e-06
-1.74215e-06
3.71702e-06
-1.74333e-06
3.54301e-06
-1.74388e-06
3.37522e-06
3.21344e-06
-4.36169e-07
1.53939e-05
-4.09062e-07
1.54755e-05
-3.74672e-07
1.55678e-05
-3.31819e-07
1.56513e-05
-2.79931e-07
1.57023e-05
-2.19281e-07
1.57217e-05
-1.47815e-07
1.57581e-05
-5.65081e-08
1.58408e-05
6.05697e-08
1.57158e-05
1.84674e-07
1.46707e-05
2.45245e-07
1.19657e-05
2.31967e-07
8.11233e-06
1.48266e-07
4.60462e-06
1.24965e-08
2.45236e-06
-1.46069e-07
1.34077e-06
-2.93465e-07
7.83896e-07
-4.02208e-07
4.53799e-07
-4.62721e-07
1.84125e-07
-4.7106e-07
-6.14595e-08
-4.5064e-07
-2.4586e-07
-4.17432e-07
-3.1585e-07
-3.63946e-07
-3.85864e-07
-2.95255e-07
-4.03726e-07
-2.31464e-07
-3.50949e-07
-1.77997e-07
-2.50349e-07
-1.39245e-07
-9.85382e-08
-1.27821e-07
1.22102e-07
-1.59162e-07
4.42542e-07
-2.41736e-07
8.47774e-07
-3.61312e-07
1.29425e-06
-5.39447e-07
1.91141e-06
-7.58721e-07
2.64457e-06
-1.01398e-06
3.41147e-06
-1.25187e-06
4.23418e-06
-1.44557e-06
4.88668e-06
-1.58863e-06
5.31366e-06
-1.68472e-06
5.51124e-06
-1.74314e-06
5.52118e-06
-1.77508e-06
5.40214e-06
-1.79066e-06
5.2086e-06
-1.79744e-06
4.98114e-06
-1.80038e-06
4.74547e-06
-1.80237e-06
4.51565e-06
-1.80485e-06
4.298e-06
-1.80813e-06
4.09402e-06
-1.81168e-06
3.90228e-06
-1.81472e-06
3.72006e-06
-1.81672e-06
3.54501e-06
-1.81769e-06
3.37619e-06
3.21369e-06
-4.16102e-07
1.53736e-05
-3.90515e-07