/*--------------------------------*- C++ -*----------------------------------*\
  =========                 |
  \\      /  F ield         | OpenFOAM: The Open Source CFD Toolbox
   \\    /   O peration     | Website:  https://openfoam.org
    \\  /    A nd           | Version:  9
     \\/     M anipulation  |
\*---------------------------------------------------------------------------*/
FoamFile
{
    format      ascii;
    class       volScalarField;
    location    "0.17";
    object      rAU;
}
// * * * * * * * * * * * * * * * * * * * * * * * * * * * * * * * * * * * * * //

dimensions      [-1 3 1 0 0 0 0];

internalField   nonuniform List<scalar> 
5000
(
1.8199e-05
1.81031e-05
1.79875e-05
1.78554e-05
1.772e-05
1.76052e-05
1.75242e-05
1.74376e-05
1.72915e-05
1.72555e-05
1.76856e-05
1.85653e-05
1.60567e-06
3.19713e-08
2.49123e-08
2.48548e-08
2.47776e-08
2.4797e-08
2.47582e-08
2.4606e-08
2.44294e-08
2.4405e-08
2.44859e-08
2.46394e-08
2.4805e-08
2.48725e-08
2.47831e-08
2.46609e-08
2.4462e-08
4.3796e-08
4.18347e-06
1.78579e-05
1.70297e-05
1.84945e-05
1.80607e-05
1.71113e-05
1.64464e-05
1.60484e-05
1.583e-05
1.57063e-05
1.56159e-05
1.5524e-05
1.54162e-05
1.52903e-05
1.51482e-05
1.49925e-05
1.48248e-05
1.46457e-05
1.44552e-05
1.51253e-05
1.82015e-05
1.81102e-05
1.80013e-05
1.78789e-05
1.77568e-05
1.76584e-05
1.75931e-05
1.75177e-05
1.73953e-05
1.74342e-05
1.79591e-05
1.98229e-05
6.44594e-06
3.49771e-08
2.486e-08
2.48281e-08
2.4774e-08
2.4806e-08
2.4807e-08
2.46319e-08
2.44189e-08
2.43496e-08
2.43969e-08
2.45406e-08
2.47162e-08
2.48433e-08
2.4738e-08
2.45928e-08
2.46004e-08
6.02674e-08
1.25851e-05
1.86732e-05
1.80798e-05
1.83955e-05
1.85555e-05
1.75526e-05
1.67969e-05
1.63149e-05
1.60368e-05
1.58796e-05
1.57765e-05
1.56845e-05
1.5582e-05
1.54621e-05
1.53249e-05
1.51725e-05
1.5007e-05
1.48294e-05
1.464e-05
1.5334e-05
1.82073e-05
1.81209e-05
1.8019e-05
1.79064e-05
1.77974e-05
1.77145e-05
1.76636e-05
1.76001e-05
1.75014e-05
1.7593e-05
1.78711e-05
1.99841e-05
1.79846e-05
4.305e-08
2.48044e-08
2.48123e-08
2.47898e-08
2.4833e-08
2.48728e-08
2.46903e-08
2.44545e-08
2.4339e-08
2.43392e-08
2.44555e-08
2.46251e-08
2.4778e-08
2.46695e-08
2.45043e-08
2.57531e-08
1.05923e-07
1.54614e-05
1.81883e-05
1.87737e-05
1.85914e-05
1.89619e-05
1.79728e-05
1.7145e-05
1.65879e-05
1.6251e-05
1.60571e-05
1.59371e-05
1.58418e-05
1.57433e-05
1.56297e-05
1.54984e-05
1.53507e-05
1.51885e-05
1.50133e-05
1.48258e-05
1.55446e-05
1.82158e-05
1.81346e-05
1.80398e-05
1.79367e-05
1.78403e-05
1.77716e-05
1.77334e-05
1.76811e-05
1.76041e-05
1.77239e-05
1.80264e-05
1.9912e-05
2.10397e-05
6.44871e-08
2.50398e-08
2.48141e-08
2.48298e-08
2.48779e-08
2.49447e-08
2.47721e-08
2.45329e-08
2.43795e-08
2.4327e-08
2.44011e-08
2.45508e-08
2.46884e-08
2.45514e-08
2.43658e-08
3.04847e-08
3.99893e-07
1.70004e-05
1.75026e-05
1.72887e-05
1.92145e-05
1.93688e-05
1.83522e-05
1.74741e-05
1.68563e-05
1.64665e-05
1.62364e-05
1.60975e-05
1.59968e-05
1.59009e-05
1.57934e-05
1.56687e-05
1.55268e-05
1.53691e-05
1.51974e-05
1.50125e-05
1.57571e-05
1.82267e-05
1.81507e-05
1.80628e-05
1.79689e-05
1.78841e-05
1.78281e-05
1.78005e-05
1.77581e-05
1.77006e-05
1.78559e-05
1.84213e-05
2.03684e-05
2.19106e-05
1.35633e-07
2.65853e-08
2.48567e-08
2.49001e-08
2.49411e-08
2.50098e-08
2.4867e-08
2.46453e-08
2.44714e-08
2.43712e-08
2.43966e-08
2.4527e-08
2.46257e-08
2.44364e-08
2.4541e-08
5.44578e-08
6.15364e-06
1.87966e-05
1.8395e-05
1.72055e-05
1.9476e-05
1.97466e-05
1.86846e-05
1.77727e-05
1.71102e-05
1.66771e-05
1.64148e-05
1.62575e-05
1.61504e-05
1.60563e-05
1.59547e-05
1.58371e-05
1.57019e-05
1.55499e-05
1.53828e-05
1.52017e-05
1.59742e-05
1.82394e-05
1.81685e-05
1.80873e-05
1.8002e-05
1.79279e-05
1.78829e-05
1.78639e-05
1.78298e-05
1.77897e-05
1.79822e-05
1.89546e-05
2.08833e-05
2.26486e-05
1.30176e-06
3.16315e-08
2.48673e-08
2.49921e-08
2.5017e-08
2.50685e-08
2.49683e-08
2.47798e-08
2.46067e-08
2.44723e-08
2.44467e-08
2.45675e-08
2.46188e-08
2.44719e-08
3.34064e-08
2.7971e-07
1.68717e-05
1.97136e-05
1.97553e-05
1.73797e-05
1.72244e-05
1.98327e-05
1.89506e-05
1.80274e-05
1.73409e-05
1.68784e-05
1.6591e-05
1.6418e-05
1.63049e-05
1.62121e-05
1.61161e-05
1.60056e-05
1.58774e-05
1.57317e-05
1.55698e-05
1.53927e-05
1.61936e-05
1.82535e-05
1.81876e-05
1.81127e-05
1.80354e-05
1.79707e-05
1.7935e-05
1.79227e-05
1.78949e-05
1.78696e-05
1.80866e-05
1.88134e-05
2.10472e-05
2.27754e-05
1.22571e-05
6.39565e-08
2.56576e-08
2.48721e-08
2.49886e-08
2.50708e-08
2.50523e-08
2.49276e-08
2.47712e-08
2.46198e-08
2.45348e-08
2.4627e-08
2.46522e-08
3.01139e-08
1.50779e-07
1.84239e-05
1.48308e-05
1.87513e-05
2.15295e-05
1.74037e-05
1.67364e-05
1.94399e-05
1.91884e-05
1.82531e-05
1.7555e-05
1.70741e-05
1.67687e-05
1.65833e-05
1.64649e-05
1.63728e-05
1.62815e-05
1.61776e-05
1.60563e-05
1.59167e-05
1.57599e-05
1.55867e-05
1.64165e-05
1.82687e-05
1.82076e-05
1.81385e-05
1.80684e-05
1.80119e-05
1.7984e-05
1.79763e-05
1.79526e-05
1.79389e-05
1.81653e-05
1.88628e-05
2.11695e-05
2.2829e-05
2.15747e-05
2.59233e-06
5.30426e-08
2.56252e-08
2.48851e-08
2.49744e-08
2.50129e-08
2.49741e-08
2.49287e-08
2.48092e-08
2.46712e-08
2.48261e-08
3.45058e-08
1.5143e-07
1.92765e-05
2.33407e-05
2.23562e-05
2.18979e-05
2.26981e-05
2.00792e-05
1.6887e-05
1.83575e-05
1.93895e-05
1.84631e-05
1.77622e-05
1.72719e-05
1.69546e-05
1.67597e-05
1.66365e-05
1.65445e-05
1.64568e-05
1.63585e-05
1.62433e-05
1.61098e-05
1.59584e-05
1.57895e-05
1.66501e-05
1.82847e-05
1.8228e-05
1.81642e-05
1.81006e-05
1.80511e-05
1.80293e-05
1.80246e-05
1.8003e-05
1.79976e-05
1.82261e-05
1.89545e-05
2.1303e-05
2.28699e-05
2.24761e-05
2.24021e-05
2.30563e-06
7.03695e-08
3.19518e-08
2.64049e-08
2.52696e-08
2.53065e-08
2.58759e-08
2.79155e-08
3.35295e-08
5.76267e-08
2.93896e-07
1.6044e-05
2.33232e-05
2.35041e-05
2.37533e-05
2.3599e-05
2.29797e-05
2.23163e-05
1.75934e-05
1.79516e-05
1.95141e-05
1.86561e-05
1.79658e-05
1.74754e-05
1.71526e-05
1.69515e-05
1.68244e-05
1.67317e-05
1.66462e-05
1.65522e-05
1.64424e-05
1.63145e-05
1.61685e-05
1.60043e-05
1.6899e-05
1.83011e-05
1.82486e-05
1.81897e-05
1.81317e-05
1.80883e-05
1.80711e-05
1.80678e-05
1.80461e-05
1.80459e-05
1.82851e-05
1.90362e-05
2.14082e-05
2.29295e-05
2.27849e-05
2.33774e-05
2.06845e-05
1.70852e-05
2.60251e-07
1.0506e-07
7.2079e-08
6.76322e-08
7.74801e-08
1.17933e-07
2.75973e-07
3.7824e-06
1.71446e-05
2.03451e-05
2.36477e-05
2.37071e-05
2.37766e-05
2.36625e-05
2.30561e-05
2.24083e-05
2.09259e-05
1.81149e-05
1.94873e-05
1.88527e-05
1.8174e-05
1.76885e-05
1.73648e-05
1.71602e-05
1.70299e-05
1.69359e-05
1.68513e-05
1.676e-05
1.66543e-05
1.65312e-05
1.63903e-05
1.62309e-05
1.71623e-05
1.83179e-05
1.82691e-05
1.82147e-05
1.81618e-05
1.81232e-05
1.81095e-05
1.81063e-05
1.80828e-05
1.80845e-05
1.83284e-05
1.90821e-05
2.14246e-05
2.2857e-05
2.28616e-05
2.15147e-05
2.29849e-05
2.15419e-05
1.98652e-05
1.5834e-05
1.35655e-05
1.29129e-05
1.32416e-05
1.5187e-05
1.82763e-05
1.92029e-05
2.14063e-05
2.31774e-05
2.35902e-05
2.35906e-05
2.35712e-05
2.36071e-05
2.14581e-05
2.22608e-05
2.14916e-05
1.82716e-05
1.93912e-05
1.88503e-05
1.82019e-05
1.77518e-05
1.74611e-05
1.72837e-05
1.71739e-05
1.70947e-05
1.70207e-05
1.69373e-05
1.68379e-05
1.67202e-05
1.65834e-05
1.64264e-05
1.4144e-05
1.83348e-05
1.82896e-05
1.82392e-05
1.81906e-05
1.81562e-05
1.81449e-05
1.81407e-05
1.81141e-05
1.81151e-05
1.83208e-05
1.91088e-05
2.13502e-05
2.24648e-05
1.99944e-05
1.99584e-05
2.39689e-05
2.41054e-05
2.33676e-05
2.23295e-05
2.15235e-05
2.11149e-05
2.11985e-05
2.18142e-05
2.27112e-05
2.33146e-05
2.36147e-05
2.37138e-05
2.35904e-05
2.35856e-05
2.34424e-05
2.28055e-05
1.94007e-05
2.11278e-05
2.1377e-05
1.85854e-05
1.92545e-05
1.86585e-05
1.80153e-05
1.75669e-05
1.72749e-05
1.70939e-05
1.69794e-05
1.68949e-05
1.68157e-05
1.67272e-05
1.66228e-05
1.64997e-05
1.63573e-05
1.61943e-05
1.38467e-05
1.83517e-05
1.83097e-05
1.8263e-05
1.82184e-05
1.81875e-05
1.81777e-05
1.8172e-05
1.81415e-05
1.81407e-05
1.82876e-05
1.91775e-05
2.12642e-05
2.24418e-05
1.8358e-05
2.11592e-05
2.407e-05
2.43202e-05
2.43192e-05
2.43227e-05
2.42744e-05
2.41282e-05
2.40759e-05
2.40552e-05
2.39932e-05
2.39331e-05
2.3907e-05
2.38049e-05
2.36931e-05
2.37001e-05
2.323e-05
1.99936e-05
1.93282e-05
1.92802e-05
2.12104e-05
1.99777e-05
1.91017e-05
1.84639e-05
1.78329e-05
1.73921e-05
1.71034e-05
1.69219e-05
1.68038e-05
1.67143e-05
1.66293e-05
1.65349e-05
1.64245e-05
1.62955e-05
1.61467e-05
1.59774e-05
1.35709e-05
1.83685e-05
1.83296e-05
1.82862e-05
1.82452e-05
1.82173e-05
1.82088e-05
1.82013e-05
1.8167e-05
1.81649e-05
1.83582e-05
1.92822e-05
2.1166e-05
1.98168e-05
1.83915e-05
2.31784e-05
2.41008e-05
2.4346e-05
2.44046e-05
2.44304e-05
2.44509e-05
2.43712e-05
2.43057e-05
2.42486e-05
2.41652e-05
2.40851e-05
2.40267e-05
2.3906e-05
2.38198e-05
2.38426e-05
2.25355e-05
1.97317e-05
1.91555e-05
1.95489e-05
2.10212e-05
1.99852e-05
1.88968e-05
1.82704e-05
1.76598e-05
1.7233e-05
1.69518e-05
1.67718e-05
1.66511e-05
1.65563e-05
1.64648e-05
1.63637e-05
1.62466e-05
1.61109e-05
1.59552e-05
1.57793e-05
1.33209e-05
1.83851e-05
1.83491e-05
1.83089e-05
1.82712e-05
1.82461e-05
1.82385e-05
1.82295e-05
1.81924e-05
1.81903e-05
1.84665e-05
1.92723e-05
2.09973e-05
1.88666e-05
1.92812e-05
2.37376e-05
2.41377e-05
2.43626e-05
2.43897e-05
2.43942e-05
2.44158e-05
2.43708e-05
2.43542e-05
2.4318e-05
2.42512e-05
2.41799e-05
2.41026e-05
2.40027e-05
2.39392e-05
2.39608e-05
2.25992e-05
1.96218e-05
1.90582e-05
2.10331e-05
2.08369e-05
1.97671e-05
1.86892e-05
1.80874e-05
1.75016e-05
1.70933e-05
1.68222e-05
1.66454e-05
1.65224e-05
1.64221e-05
1.63236e-05
1.6215e-05
1.60904e-05
1.59472e-05
1.57841e-05
1.56013e-05
1.3098e-05
1.84016e-05
1.83682e-05
1.8331e-05
1.82964e-05
1.8274e-05
1.82676e-05
1.82578e-05
1.82192e-05
1.82192e-05
1.85137e-05
1.93389e-05
1.90539e-05
1.95389e-05
2.29409e-05
2.38357e-05
2.41728e-05
2.43774e-05
2.4355e-05
2.43416e-05
2.43683e-05
2.43091e-05
2.42957e-05
2.42945e-05
2.42828e-05
2.42375e-05
2.41675e-05
2.41023e-05
2.40647e-05
2.40315e-05
2.27804e-05
1.94513e-05
1.92117e-05
2.15574e-05
2.06016e-05
1.95366e-05
1.84914e-05
1.79197e-05
1.7362e-05
1.69748e-05
1.67156e-05
1.65425e-05
1.64174e-05
1.63113e-05
1.62053e-05
1.60886e-05
1.59558e-05
1.58045e-05
1.56336e-05
1.54437e-05
1.29021e-05
1.84177e-05
1.83869e-05
1.83525e-05
1.8321e-05
1.83013e-05
1.82963e-05
1.82866e-05
1.82488e-05
1.82537e-05
1.84767e-05
1.94556e-05
1.90428e-05
2.21109e-05
2.33237e-05
2.38863e-05
2.42049e-05
2.43846e-05
2.42834e-05
2.42732e-05
2.43239e-05
2.4256e-05
2.4236e-05
2.42299e-05
2.42227e-05
2.42052e-05
2.41679e-05
2.41078e-05
2.40276e-05
2.3873e-05
2.2607e-05
1.92636e-05
1.93577e-05
2.13192e-05
2.03336e-05
1.92989e-05
1.83151e-05
1.77649e-05
1.72408e-05
1.68764e-05
1.66301e-05
1.64612e-05
1.6334e-05
1.62219e-05
1.6108e-05
1.59829e-05
1.58414e-05
1.56813e-05
1.55019e-05
1.53043e-05
1.27282e-05
1.84335e-05
1.84051e-05
1.83735e-05
1.83449e-05
1.8328e-05
1.83247e-05
1.83162e-05
1.8281e-05
1.82926e-05
1.84723e-05
1.93158e-05
2.0565e-05
2.25331e-05
2.33966e-05
2.39308e-05
2.42269e-05
2.43361e-05
2.42747e-05
2.42643e-05
2.42992e-05
2.42098e-05
2.41827e-05
2.41721e-05
2.41626e-05
2.41468e-05
2.41175e-05
2.40627e-05
2.39328e-05
2.3689e-05
2.24495e-05
1.90659e-05
1.9057e-05
2.10408e-05
2.00722e-05
1.90174e-05
1.819e-05
1.76297e-05
1.71399e-05
1.67979e-05
1.65642e-05
1.63991e-05
1.62694e-05
1.61513e-05
1.60297e-05
1.58963e-05
1.57468e-05
1.55792e-05
1.53937e-05
1.51925e-05
1.25966e-05
1.84489e-05
1.84228e-05
1.83938e-05
1.83682e-05
1.8354e-05
1.83528e-05
1.83464e-05
1.83156e-05
1.83356e-05
1.85616e-05
1.89951e-05
2.11358e-05
2.25415e-05
2.34423e-05
2.38491e-05
2.42341e-05
2.43094e-05
2.42728e-05
2.42936e-05
2.42739e-05
2.41675e-05
2.41334e-05
2.41194e-05
2.41104e-05
2.41006e-05
2.40845e-05
2.40108e-05
2.38218e-05
2.35359e-05
2.24817e-05
1.88989e-05
1.84125e-05
2.07487e-05
1.98567e-05
1.88295e-05
1.8063e-05
1.75189e-05
1.70603e-05
1.67389e-05
1.65159e-05
1.63533e-05
1.62205e-05
1.60962e-05
1.5967e-05
1.58255e-05
1.5668e-05
1.54932e-05
1.53019e-05
1.50967e-05
1.24793e-05
1.84638e-05
1.84399e-05
1.84134e-05
1.83906e-05
1.83792e-05
1.83804e-05
1.83768e-05
1.83519e-05
1.83817e-05
1.86295e-05
1.89598e-05
2.10744e-05
2.25377e-05
2.2736e-05
2.37713e-05
2.4212e-05
2.42866e-05
2.43099e-05
2.42809e-05
2.42361e-05
2.4082e-05
2.4053e-05
2.40696e-05
2.4065e-05
2.40642e-05
2.40648e-05
2.39577e-05
2.37392e-05
2.34153e-05
2.26356e-05
1.89172e-05
1.79967e-05
2.00395e-05
1.96885e-05
1.87362e-05
1.79964e-05
1.74349e-05
1.70016e-05
1.66968e-05
1.64817e-05
1.632e-05
1.61834e-05
1.60525e-05
1.59156e-05
1.57663e-05
1.56012e-05
1.54198e-05
1.52235e-05
1.50151e-05
1.23808e-05
1.84782e-05
1.84563e-05
1.84322e-05
1.8412e-05
1.84034e-05
1.8407e-05
1.84066e-05
1.83882e-05
1.84191e-05
1.86624e-05
1.89415e-05
2.05373e-05
2.18448e-05
2.26269e-05
2.37888e-05
2.413e-05
2.42819e-05
2.4318e-05
2.42526e-05
2.41113e-05
2.39755e-05
2.39304e-05
2.39288e-05
2.40118e-05
2.40361e-05
2.40555e-05
2.3928e-05
2.36858e-05
2.33365e-05
2.26502e-05
1.90384e-05
1.78502e-05
1.93127e-05
1.95788e-05
1.86802e-05
1.794e-05
1.73702e-05
1.69569e-05
1.66651e-05
1.64556e-05
1.62935e-05
1.61526e-05
1.60152e-05
1.5871e-05
1.57141e-05
1.55421e-05
1.5355e-05
1.51548e-05
1.49437e-05
1.22951e-05
1.84919e-05
1.84719e-05
1.845e-05
1.84322e-05
1.84261e-05
1.84321e-05
1.84348e-05
1.84226e-05
1.8455e-05
1.86934e-05
1.90359e-05
2.01658e-05
2.15717e-05
2.26624e-05
2.38678e-05
2.41387e-05
2.42484e-05
2.42921e-05
2.4157e-05
2.40877e-05
2.39389e-05
2.38876e-05
2.38728e-05
2.38796e-05
2.39925e-05
2.40547e-05
2.39226e-05
2.36577e-05
2.32836e-05
2.25759e-05
1.8689e-05
1.77261e-05
1.87578e-05
1.94756e-05
1.8584e-05
1.78596e-05
1.73108e-05
1.69153e-05
1.66349e-05
1.64301e-05
1.62675e-05
1.61225e-05
1.59792e-05
1.58282e-05
1.56645e-05
1.54864e-05
1.52946e-05
1.50912e-05
1.4878e-05
1.22169e-05
1.8505e-05
1.84866e-05
1.84666e-05
1.84511e-05
1.84472e-05
1.84551e-05
1.84605e-05
1.84537e-05
1.84918e-05
1.87316e-05
1.94938e-05
2.01344e-05
2.15114e-05
2.30945e-05
2.38927e-05
2.41072e-05
2.41881e-05
2.41591e-05
2.41498e-05
2.40728e-05
2.39403e-05
2.38675e-05
2.3831e-05
2.38453e-05
2.38859e-05
2.40485e-05
2.39448e-05
2.3658e-05
2.32538e-05
2.23559e-05
1.82997e-05
1.76129e-05
1.80818e-05
1.93492e-05
1.84736e-05
1.77699e-05
1.72445e-05
1.68671e-05
1.65982e-05
1.63986e-05
1.62361e-05
1.6088e-05
1.59397e-05
1.57829e-05
1.56134e-05
1.54302e-05
1.52346e-05
1.50289e-05
1.48142e-05
1.21418e-05
1.85174e-05
1.85004e-05
1.84821e-05
1.84683e-05
1.84663e-05
1.84758e-05
1.8483e-05
1.84802e-05
1.85275e-05
1.87999e-05
1.95877e-05
2.01509e-05
2.14638e-05
2.31153e-05
2.38293e-05
2.40293e-05
2.40571e-05
2.41093e-05
2.41511e-05
2.415e-05
2.39799e-05
2.39093e-05
2.38811e-05
2.38162e-05
2.3868e-05
2.39644e-05
2.39908e-05
2.36885e-05
2.32577e-05
2.12955e-05
1.82209e-05
1.74993e-05
1.69171e-05
1.91699e-05
1.83401e-05
1.76589e-05
1.71633e-05
1.68058e-05
1.65498e-05
1.63566e-05
1.61956e-05
1.60456e-05
1.58935e-05
1.57318e-05
1.55575e-05
1.53704e-05
1.51722e-05
1.49649e-05
1.47493e-05
1.20662e-05
1.8529e-05
1.85131e-05
1.84962e-05
1.84839e-05
1.84832e-05
1.84936e-05
1.85017e-05
1.85016e-05
1.85605e-05
1.88561e-05
1.92364e-05
2.01297e-05
2.14337e-05
2.30269e-05
2.37456e-05
2.39165e-05
2.39594e-05
2.40669e-05
2.42324e-05
2.41395e-05
2.39763e-05
2.38988e-05
2.386e-05
2.38811e-05
2.38585e-05
2.39565e-05
2.40295e-05
2.37326e-05
2.31293e-05
1.89344e-05
1.8129e-05
1.73508e-05
1.65865e-05
1.85748e-05
1.81762e-05
1.75284e-05
1.70634e-05
1.67288e-05
1.64876e-05
1.63025e-05
1.61443e-05
1.59936e-05
1.58386e-05
1.56731e-05
1.54951e-05
1.53052e-05
1.51054e-05
1.48973e-05
1.46813e-05
1.19875e-05
1.85398e-05
1.85249e-05
1.8509e-05
1.84977e-05
1.84978e-05
1.85084e-05
1.85163e-05
1.85171e-05
1.85859e-05
1.88966e-05
1.89341e-05
2.01469e-05
2.14089e-05
2.30163e-05
2.36429e-05
2.37594e-05
2.38889e-05
2.41272e-05
2.42218e-05
2.39898e-05
2.3266e-05
2.27189e-05
2.36028e-05
2.38908e-05
2.39476e-05
2.39866e-05
2.40582e-05
2.37632e-05
2.2306e-05
1.87227e-05
1.79592e-05
1.71358e-05
1.64205e-05
1.82959e-05
1.7983e-05
1.73769e-05
1.69454e-05
1.66373e-05
1.64129e-05
1.6237e-05
1.60826e-05
1.5932e-05
1.5775e-05
1.56066e-05
1.54259e-05
1.52342e-05
1.50337e-05
1.48254e-05
1.46091e-05
1.18785e-05
1.85498e-05
1.85356e-05
1.85204e-05
1.85098e-05
1.85101e-05
1.85201e-05
1.85266e-05
1.85267e-05
1.85978e-05
1.89289e-05
1.89801e-05
2.01748e-05
2.14037e-05
2.30593e-05
2.34847e-05
2.366e-05
2.38875e-05
2.41078e-05
2.41808e-05
2.38385e-05
2.14029e-05
2.1399e-05
2.14137e-05
2.35693e-05
2.39857e-05
2.40589e-05
2.41227e-05
2.37407e-05
2.12988e-05
1.8616e-05
1.81407e-05
1.72798e-05
1.71351e-05
1.82711e-05
1.77729e-05
1.72125e-05
1.68171e-05
1.65365e-05
1.63294e-05
1.61632e-05
1.60129e-05
1.58628e-05
1.5704e-05
1.55334e-05
1.53509e-05
1.51584e-05
1.49578e-05
1.47497e-05
1.45333e-05
1.17409e-05
1.85592e-05
1.85454e-05
1.85306e-05
1.85202e-05
1.85201e-05
1.85288e-05
1.85325e-05
1.85304e-05
1.86035e-05
1.8922e-05
1.93932e-05
2.02098e-05
2.19949e-05
2.30269e-05
2.34025e-05
2.36208e-05
2.38485e-05
2.40883e-05
2.41276e-05
2.39178e-05
2.23886e-05
2.13534e-05
2.13786e-05
2.15235e-05
2.38239e-05
2.40485e-05
2.41255e-05
2.34231e-05
2.10226e-05
1.96404e-05
2.03898e-05
1.95125e-05
1.88828e-05
1.82196e-05
1.75616e-05
1.70461e-05
1.66876e-05
1.64327e-05
1.62423e-05
1.60852e-05
1.59385e-05
1.57884e-05
1.56281e-05
1.54557e-05
1.52722e-05
1.50797e-05
1.48795e-05
1.46716e-05
1.4455e-05
1.16006e-05
1.85678e-05
1.85543e-05
1.85395e-05
1.85289e-05
1.8528e-05
1.85344e-05
1.85342e-05
1.85287e-05
1.86029e-05
1.88876e-05
1.97768e-05
2.02562e-05
2.21962e-05
2.29419e-05
2.33243e-05
2.35612e-05
2.37983e-05
2.40893e-05
2.35843e-05
2.3251e-05
2.34175e-05
2.30439e-05
2.1363e-05
2.13852e-05
2.3324e-05
2.40575e-05
2.40829e-05
2.30632e-05
2.08034e-05
2.1439e-05
2.04505e-05
1.95762e-05
1.87633e-05
1.79851e-05
1.7352e-05
1.68845e-05
1.65615e-05
1.63308e-05
1.6156e-05
1.60067e-05
1.58625e-05
1.5712e-05
1.55502e-05
1.53765e-05
1.51926e-05
1.50004e-05
1.48008e-05
1.45931e-05
1.43762e-05
1.14606e-05
1.8576e-05
1.85625e-05
1.85475e-05
1.85364e-05
1.8534e-05
1.85374e-05
1.85322e-05
1.85222e-05
1.85968e-05
1.89e-05
1.98222e-05
2.09329e-05
2.20868e-05
2.28234e-05
2.32131e-05
2.34794e-05
2.37705e-05
2.38223e-05
2.30882e-05
2.29191e-05
2.33755e-05
2.36662e-05
2.29258e-05
2.13853e-05
2.28436e-05
2.40026e-05
2.39194e-05
2.27302e-05
2.06264e-05
2.11256e-05
2.00581e-05
1.87115e-05
1.845e-05
1.77218e-05
1.7147e-05
1.67316e-05
1.64417e-05
1.6235e-05
1.60739e-05
1.59308e-05
1.5788e-05
1.56364e-05
1.54731e-05
1.52986e-05
1.51148e-05
1.49233e-05
1.47241e-05
1.45163e-05
1.42988e-05
1.13245e-05
1.85836e-05
1.857e-05
1.85547e-05
1.85426e-05
1.85385e-05
1.8538e-05
1.85269e-05
1.85116e-05
1.85867e-05
1.89545e-05
1.98437e-05
2.07355e-05
2.15739e-05
2.27096e-05
2.31138e-05
2.34165e-05
2.36746e-05
2.32299e-05
2.3049e-05
2.2875e-05
2.27732e-05
2.36639e-05
2.3865e-05
2.14499e-05
2.17741e-05
2.39845e-05
2.37282e-05
2.23153e-05
2.03662e-05
2.076e-05
1.94259e-05
1.81841e-05
1.80727e-05
1.74745e-05
1.69579e-05
1.65903e-05
1.63346e-05
1.61494e-05
1.59995e-05
1.58605e-05
1.57176e-05
1.55645e-05
1.53998e-05
1.52248e-05
1.50414e-05
1.48504e-05
1.46514e-05
1.44433e-05
1.42249e-05
1.11957e-05
1.8591e-05
1.85771e-05
1.85612e-05
1.85481e-05
1.85417e-05
1.85369e-05
1.8519e-05
1.84978e-05
1.85755e-05
1.89679e-05
1.96354e-05
2.03494e-05
2.13847e-05
2.2617e-05
2.30361e-05
2.33824e-05
2.3696e-05
2.32828e-05
2.30223e-05
2.32408e-05
2.34655e-05
2.37336e-05
2.38837e-05
2.28043e-05
2.17957e-05
2.36516e-05
2.34903e-05
2.19178e-05
2.00782e-05
2.03829e-05
1.87102e-05
1.78549e-05
1.74738e-05
1.7253e-05
1.67928e-05
1.64702e-05
1.62451e-05
1.60775e-05
1.59356e-05
1.57981e-05
1.56539e-05
1.54987e-05
1.53327e-05
1.51575e-05
1.49744e-05
1.47837e-05
1.45844e-05
1.43756e-05
1.41562e-05
1.10769e-05
1.85981e-05
1.85841e-05
1.85675e-05
1.85532e-05
1.85443e-05
1.85347e-05
1.85094e-05
1.8482e-05
1.85638e-05
1.89626e-05
1.92264e-05
2.03098e-05
2.17242e-05
2.25444e-05
2.29884e-05
2.33755e-05
2.31727e-05
2.32926e-05
2.34869e-05
2.37035e-05
2.35752e-05
2.36608e-05
2.38632e-05
2.39974e-05
2.18272e-05
2.35172e-05
2.31409e-05
2.11471e-05
2.0056e-05
2.00235e-05
1.83928e-05
1.75619e-05
1.72614e-05
1.70617e-05
1.6656e-05
1.63743e-05
1.61751e-05
1.60208e-05
1.58833e-05
1.57452e-05
1.55985e-05
1.5441e-05
1.52738e-05
1.50984e-05
1.49154e-05
1.47244e-05
1.45246e-05
1.43147e-05
1.40941e-05
1.09701e-05
1.86053e-05
1.8591e-05
1.85738e-05
1.85582e-05
1.85467e-05
1.8532e-05
1.8499e-05
1.84656e-05
1.8553e-05
1.89759e-05
1.92223e-05
2.02732e-05
2.18359e-05
2.24926e-05
2.29777e-05
2.33748e-05
2.31511e-05
2.33966e-05
2.34218e-05
2.28706e-05
2.31269e-05
2.35817e-05
2.38442e-05
2.41232e-05
2.18152e-05
2.33848e-05
2.28219e-05
2.11367e-05
2.06695e-05
1.97025e-05
1.8086e-05
1.73192e-05
1.7322e-05
1.69061e-05
1.65505e-05
1.63039e-05
1.6125e-05
1.59793e-05
1.58427e-05
1.57022e-05
1.55522e-05
1.53924e-05
1.52241e-05
1.50483e-05
1.4865e-05
1.46735e-05
1.44726e-05
1.42615e-05
1.40394e-05
1.08768e-05
1.86127e-05
1.85982e-05
1.85805e-05
1.85637e-05
1.85496e-05
1.85298e-05
1.84893e-05
1.84501e-05
1.85442e-05
1.89868e-05
1.92254e-05
2.02413e-05
2.17952e-05
2.24656e-05
2.30029e-05
2.34568e-05
2.34166e-05
2.39604e-05
2.27432e-05
2.16112e-05
2.15221e-05
2.3044e-05
2.38166e-05
2.39951e-05
2.15279e-05
2.20009e-05
2.26602e-05
2.16809e-05
2.06758e-05
1.9469e-05
1.79657e-05
1.73389e-05
1.72201e-05
1.67872e-05
1.64763e-05
1.62582e-05
1.60934e-05
1.59516e-05
1.58133e-05
1.56689e-05
1.55154e-05
1.53533e-05
1.51839e-05
1.50074e-05
1.48234e-05
1.46309e-05
1.44287e-05
1.42161e-05
1.39927e-05
1.07972e-05
1.86203e-05
1.86058e-05
1.85878e-05
1.85701e-05
1.85536e-05
1.8529e-05
1.84814e-05
1.84375e-05
1.85378e-05
1.86711e-05
1.9233e-05
2.06931e-05
2.17735e-05
2.24644e-05
2.30507e-05
2.35465e-05
2.42206e-05
2.38034e-05
2.16479e-05
2.14125e-05
2.13599e-05
2.16279e-05
2.36013e-05
2.36953e-05
2.12564e-05
2.08529e-05
2.23908e-05
2.14762e-05
2.03635e-05
1.92603e-05
1.83117e-05
1.76063e-05
1.70983e-05
1.67053e-05
1.64311e-05
1.62339e-05
1.60775e-05
1.59357e-05
1.57935e-05
1.56445e-05
1.54875e-05
1.53233e-05
1.51526e-05
1.49752e-05
1.47901e-05
1.45962e-05
1.43925e-05
1.41785e-05
1.39537e-05
1.07309e-05
1.86284e-05
1.86142e-05
1.85961e-05
1.85778e-05
1.85594e-05
1.85306e-05
1.84771e-05
1.843e-05
1.8536e-05
1.85265e-05
1.9535e-05
2.08984e-05
2.17566e-05
2.24572e-05
2.31445e-05
2.372e-05
2.43394e-05
2.24492e-05
2.13708e-05
2.12168e-05
2.12214e-05
2.15261e-05
2.28513e-05
2.33778e-05
2.10447e-05
2.05775e-05
2.20106e-05
2.1164e-05
2.00684e-05
1.90379e-05
1.81778e-05
1.75039e-05
1.70055e-05
1.66554e-05
1.64096e-05
1.62263e-05
1.60731e-05
1.59284e-05
1.57811e-05
1.56275e-05
1.54673e-05
1.53012e-05
1.51292e-05
1.49505e-05
1.4764e-05
1.45685e-05
1.43632e-05
1.41476e-05
1.39215e-05
1.06765e-05
1.86371e-05
1.86234e-05
1.86057e-05
1.85872e-05
1.85676e-05
1.85357e-05
1.84778e-05
1.84295e-05
1.84866e-05
1.85359e-05
1.9761e-05
2.07245e-05
2.1571e-05
2.2482e-05
2.32925e-05
2.39267e-05
2.41306e-05
2.20128e-05
2.15211e-05
2.20251e-05
2.14494e-05
2.15074e-05
2.23042e-05
2.30362e-05
2.11872e-05
2.02823e-05
2.16727e-05
2.08632e-05
1.97965e-05
1.88132e-05
1.80078e-05
1.73908e-05
1.69431e-05
1.66292e-05
1.64042e-05
1.6229e-05
1.60754e-05
1.59261e-05
1.57737e-05
1.56159e-05
1.5453e-05
1.52851e-05
1.51116e-05
1.49315e-05
1.47434e-05
1.45462e-05
1.43393e-05
1.41223e-05
1.3895e-05
1.06317e-05
1.86465e-05
1.86335e-05
1.86167e-05
1.85987e-05
1.85788e-05
1.8545e-05
1.84846e-05
1.84369e-05
1.81736e-05
1.85534e-05
1.97435e-05
1.98586e-05
2.07697e-05
2.25961e-05
2.34294e-05
2.40183e-05
2.36531e-05
2.27707e-05
2.26155e-05
2.26521e-05
2.27994e-05
2.17809e-05
2.16147e-05
2.26005e-05
2.13963e-05
1.99467e-05
2.14036e-05
2.05762e-05
1.95477e-05
1.86147e-05
1.78667e-05
1.73048e-05
1.69018e-05
1.6617e-05
1.64069e-05
1.62357e-05
1.60796e-05
1.59255e-05
1.57684e-05
1.56073e-05
1.54422e-05
1.52727e-05
1.50978e-05
1.49161e-05
1.47263e-05
1.45275e-05
1.43192e-05
1.41009e-05
1.38726e-05
1.0594e-05
1.86565e-05
1.86448e-05
1.86293e-05
1.86126e-05
1.85932e-05
1.85592e-05
1.84983e-05
1.84484e-05
1.83444e-05
1.87441e-05
1.93027e-05
1.98033e-05
2.11018e-05
2.2747e-05
2.3534e-05
2.40168e-05
2.27936e-05
2.24832e-05
2.23369e-05
2.24823e-05
2.27283e-05
2.26446e-05
2.1342e-05
2.22076e-05
2.09915e-05
1.96198e-05
2.11058e-05
2.02988e-05
1.92842e-05
1.84387e-05
1.77471e-05
1.7236e-05
1.68714e-05
1.661e-05
1.64103e-05
1.62407e-05
1.60815e-05
1.59232e-05
1.57625e-05
1.5599e-05
1.54323e-05
1.52616e-05
1.50853e-05
1.49021e-05
1.47108e-05
1.45105e-05
1.43009e-05
1.40815e-05
1.38524e-05
1.05604e-05
1.86671e-05
1.86571e-05
1.86435e-05
1.86288e-05
1.86113e-05
1.85786e-05
1.85196e-05
1.84637e-05
1.8594e-05
1.90445e-05
1.8921e-05
1.98489e-05
2.1048e-05
2.26979e-05
2.35745e-05
2.3848e-05
2.22441e-05
2.15604e-05
2.17303e-05
2.23542e-05
2.27229e-05
2.29555e-05
2.14645e-05
2.09694e-05
2.04218e-05
1.93155e-05
2.06584e-05
1.97085e-05
1.88817e-05
1.82782e-05
1.76397e-05
1.71744e-05
1.68427e-05
1.66004e-05
1.64085e-05
1.62395e-05
1.60777e-05
1.59163e-05
1.57535e-05
1.55886e-05
1.5421e-05
1.52493e-05
1.50719e-05
1.48874e-05
1.46947e-05
1.44932e-05
1.42825e-05
1.40623e-05
1.38324e-05
1.05277e-05
1.86784e-05
1.86704e-05
1.86593e-05
1.86474e-05
1.86329e-05
1.85941e-05
1.85193e-05
1.8453e-05
1.85813e-05
1.90347e-05
1.88725e-05
1.98079e-05
2.07675e-05
2.24128e-05
2.36166e-05
2.34582e-05
2.18414e-05
2.12522e-05
2.11502e-05
2.19532e-05
2.27927e-05
2.26507e-05
2.19268e-05
2.12696e-05
2.06647e-05
1.90214e-05
1.90826e-05
1.92958e-05
1.86341e-05
1.81245e-05
1.75356e-05
1.71116e-05
1.68087e-05
1.65825e-05
1.63971e-05
1.62288e-05
1.60656e-05
1.59028e-05
1.57392e-05
1.5574e-05
1.54061e-05
1.52338e-05
1.50555e-05
1.48699e-05
1.46762e-05
1.44737e-05
1.42622e-05
1.40414e-05
1.38111e-05
1.04932e-05
1.86901e-05
1.86845e-05
1.86764e-05
1.86682e-05
1.86462e-05
1.85936e-05
1.85114e-05
1.84481e-05
1.85583e-05
1.89771e-05
1.88144e-05
1.97393e-05
2.07184e-05
2.25357e-05
2.36559e-05
2.25755e-05
2.14578e-05
2.09891e-05
2.10235e-05
2.17411e-05
2.2885e-05
2.23864e-05
2.18393e-05
2.14306e-05
2.10172e-05
1.87603e-05
1.80976e-05
1.89888e-05
1.84852e-05
1.7969e-05
1.74269e-05
1.70412e-05
1.67642e-05
1.65526e-05
1.63733e-05
1.62068e-05
1.60438e-05
1.58813e-05
1.57182e-05
1.55536e-05
1.5386e-05
1.52135e-05
1.50346e-05
1.48483e-05
1.46538e-05
1.44507e-05
1.42386e-05
1.40174e-05
1.37868e-05
1.04544e-05
1.8702e-05
1.86992e-05
1.86947e-05
1.86848e-05
1.86552e-05
1.85973e-05
1.85115e-05
1.84438e-05
1.85437e-05
1.88445e-05
1.91398e-05
1.96979e-05
2.13472e-05
2.26232e-05
2.33526e-05
2.19433e-05
2.11314e-05
2.07863e-05
2.10024e-05
2.22004e-05
2.2879e-05
2.21552e-05
2.15847e-05
2.11745e-05
2.08429e-05
1.85048e-05
1.78018e-05
1.87066e-05
1.8261e-05
1.78071e-05
1.73093e-05
1.69594e-05
1.67067e-05
1.65088e-05
1.63362e-05
1.61727e-05
1.60117e-05
1.5851e-05
1.56897e-05
1.55264e-05
1.53595e-05
1.51872e-05
1.50082e-05
1.48215e-05
1.46265e-05
1.4423e-05
1.42106e-05
1.39891e-05
1.37583e-05
1.04095e-05
1.8714e-05
1.87142e-05
1.87135e-05
1.87007e-05
1.8666e-05
1.86078e-05
1.85211e-05
1.84504e-05
1.8542e-05
1.87831e-05
1.9657e-05
2.0159e-05
2.07486e-05
2.23317e-05
2.31484e-05
2.17613e-05
2.08684e-05
2.07477e-05
2.16553e-05
2.25977e-05
2.27103e-05
2.19601e-05
2.13724e-05
2.09573e-05
2.05265e-05
1.8011e-05
1.75039e-05
1.84663e-05
1.78945e-05
1.76275e-05
1.71813e-05
1.68653e-05
1.66356e-05
1.64512e-05
1.62861e-05
1.61272e-05
1.59697e-05
1.58121e-05
1.56535e-05
1.54921e-05
1.53263e-05
1.51545e-05
1.49756e-05
1.47888e-05
1.45937e-05
1.43899e-05
1.41774e-05
1.39558e-05
1.3725e-05
1.0357e-05
1.87256e-05
1.8729e-05
1.87324e-05
1.87187e-05
1.8682e-05
1.86258e-05
1.8541e-05
1.84708e-05
1.85572e-05
1.87782e-05
1.9663e-05
1.98293e-05
2.06731e-05
2.17373e-05
2.26912e-05
2.16037e-05
2.06878e-05
2.12345e-05
2.1831e-05
2.2812e-05
2.24889e-05
2.179e-05
2.12113e-05
2.07924e-05
2.02664e-05
1.76849e-05
1.72182e-05
1.82834e-05
1.76182e-05
1.73746e-05
1.70426e-05
1.67595e-05
1.65521e-05
1.63813e-05
1.62245e-05
1.60714e-05
1.59187e-05
1.57653e-05
1.56098e-05
1.54508e-05
1.52864e-05
1.51153e-05
1.49368e-05
1.47501e-05
1.45551e-05
1.43513e-05
1.41388e-05
1.39171e-05
1.36863e-05
1.02966e-05
1.87366e-05
1.87432e-05
1.87484e-05
1.87364e-05
1.87033e-05
1.86512e-05
1.85715e-05
1.85054e-05
1.85892e-05
1.8922e-05
1.96697e-05
1.96253e-05
2.06813e-05
2.1994e-05
2.23913e-05
2.12867e-05
2.08605e-05
2.13603e-05
2.20616e-05
2.28639e-05
2.03997e-05
2.14098e-05
2.11039e-05
2.05546e-05
1.9963e-05
1.74002e-05
1.69799e-05
1.81434e-05
1.73966e-05
1.70997e-05
1.68945e-05
1.6644e-05
1.64585e-05
1.63015e-05
1.61537e-05
1.60075e-05
1.58605e-05
1.57117e-05
1.55598e-05
1.54031e-05
1.52403e-05
1.50702e-05
1.48922e-05
1.47059e-05
1.4511e-05
1.43074e-05
1.40949e-05
1.38732e-05
1.36424e-05
1.02284e-05
1.87467e-05
1.87563e-05
1.87652e-05
1.87576e-05
1.87296e-05
1.86838e-05
1.8612e-05
1.85538e-05
1.86387e-05
1.90182e-05
1.91678e-05
1.96453e-05
2.07186e-05
2.24175e-05
2.21272e-05
2.11017e-05
2.08973e-05
2.15476e-05
2.23954e-05
2.18985e-05
1.99466e-05
2.04512e-05
2.0951e-05
2.01812e-05
1.82711e-05
1.71016e-05
1.67506e-05
1.79931e-05
1.71596e-05
1.68783e-05
1.6741e-05
1.65227e-05
1.63585e-05
1.6215e-05
1.60767e-05
1.59378e-05
1.57969e-05
1.56529e-05
1.55045e-05
1.53503e-05
1.51891e-05
1.502e-05
1.48427e-05
1.46568e-05
1.44622e-05
1.42588e-05
1.40463e-05
1.38247e-05
1.35937e-05
1.01533e-05
1.87554e-05
1.87678e-05
1.87825e-05
1.87819e-05
1.87603e-05
1.87228e-05
1.86615e-05
1.86149e-05
1.87054e-05
1.90837e-05
1.88663e-05
1.9704e-05
2.09029e-05
2.28568e-05
2.18462e-05
2.10117e-05
2.12572e-05
2.18259e-05
2.26433e-05
2.08356e-05
1.99085e-05
1.96446e-05
2.06366e-05
1.94447e-05
1.72905e-05
1.68317e-05
1.75236e-05
1.77639e-05
1.70811e-05
1.66976e-05
1.65892e-05
1.64013e-05
1.62566e-05
1.61259e-05
1.59967e-05
1.58652e-05
1.57302e-05
1.55908e-05
1.54458e-05
1.52938e-05
1.51341e-05
1.49661e-05
1.47894e-05
1.4604e-05
1.44098e-05
1.42065e-05
1.3994e-05
1.37723e-05
1.35412e-05
1.00726e-05
1.87624e-05
1.87773e-05
1.87962e-05
1.88052e-05
1.87946e-05
1.8767e-05
1.87186e-05
1.86866e-05
1.87884e-05
1.91704e-05
1.96316e-05
2.04456e-05
2.17977e-05
2.30709e-05
2.17196e-05
2.11475e-05
2.15482e-05