/*--------------------------------*- C++ -*----------------------------------*\
  =========                 |
  \\      /  F ield         | OpenFOAM: The Open Source CFD Toolbox
   \\    /   O peration     | Website:  https://openfoam.org
    \\  /    A nd           | Version:  9
     \\/     M anipulation  |
\*---------------------------------------------------------------------------*/
FoamFile
{
    format      ascii;
    class       volVectorField;
    location    "0.17";
    object      U;
}
// * * * * * * * * * * * * * * * * * * * * * * * * * * * * * * * * * * * * * //

dimensions      [0 1 -1 0 0 0 0];

internalField   nonuniform List<vector> 
5000
(
(-0.336139 0 -0.0553759)
(-0.35519 0 -0.00893044)
(-0.37329 0 0.0513412)
(-0.388878 0 0.12488)
(-0.399233 0 0.205307)
(-0.400763 0 0.278828)
(-0.391368 0 0.336886)
(-0.375242 0 0.40281)
(-0.358001 0 0.5131)
(-0.325625 0 0.563415)
(-0.217886 0 0.190011)
(0.126317 0 -0.863901)
(0.0503967 0 -2.17474)
(0.0122832 0 -2.4834)
(-0.0137955 0 -2.60495)
(-0.0397197 0 -2.60086)
(-0.0563207 0 -2.58787)
(-0.0702233 0 -2.60428)
(-0.0802985 0 -2.64275)
(-0.083341 0 -2.69134)
(-0.0775245 0 -2.73123)
(-0.0627973 0 -2.74453)
(-0.041529 0 -2.72825)
(-0.019776 0 -2.68983)
(-0.00350454 0 -2.64548)
(0.00552303 0 -2.60887)
(0.00732844 0 -2.58277)
(0.00143034 0 -2.55487)
(-0.015007 0 -2.50467)
(-0.0289247 0 -2.42546)
(-0.0260494 0 -2.3366)
(0.026482 0 -2.07278)
(0.137082 0 -1.63511)
(0.26238 0 -1.11167)
(0.398595 0 -0.591333)
(0.514799 0 -0.17388)
(0.594456 0 0.0946216)
(0.638268 0 0.224018)
(0.656022 0 0.254931)
(0.659097 0 0.232389)
(0.656074 0 0.190057)
(0.651689 0 0.146472)
(0.647724 0 0.108522)
(0.644388 0 0.0767828)
(0.64135 0 0.0496131)
(0.638264 0 0.0252901)
(0.63497 0 0.00270787)
(0.63133 0 -0.0186595)
(0.627884 0 -0.0391322)
(0.621813 0 -0.060653)
(-0.316658 0 -0.0438027)
(-0.3322 0 0.00219705)
(-0.346018 0 0.0610154)
(-0.356506 0 0.131591)
(-0.360914 0 0.206999)
(-0.355765 0 0.27371)
(-0.339472 0 0.325832)
(-0.316732 0 0.389662)
(-0.28786 0 0.490357)
(-0.231662 0 0.497054)
(-0.13883 0 0.0720213)
(0.210113 0 -0.991284)
(0.121834 0 -2.05448)
(0.0268817 0 -2.45196)
(-0.0116131 0 -2.58567)
(-0.0373089 0 -2.58931)
(-0.0452345 0 -2.57929)
(-0.0540047 0 -2.59654)
(-0.0637674 0 -2.63659)
(-0.072047 0 -2.68941)
(-0.0755965 0 -2.7362)
(-0.0706398 0 -2.75753)
(-0.0563095 0 -2.74655)
(-0.037084 0 -2.70795)
(-0.020272 0 -2.65939)
(-0.00924412 0 -2.61655)
(-0.00493486 0 -2.58202)
(-0.00882317 0 -2.54413)
(-0.0227781 0 -2.48681)
(-0.0377965 0 -2.40864)
(-0.0492642 0 -2.38317)
(0.00616548 0 -2.17833)
(0.105206 0 -1.78283)
(0.208314 0 -1.29157)
(0.322813 0 -0.779069)
(0.430682 0 -0.333456)
(0.51169 0 -0.0169963)
(0.561279 0 0.161099)
(0.585227 0 0.229143)
(0.592766 0 0.228689)
(0.592128 0 0.196173)
(0.588676 0 0.155126)
(0.584985 0 0.11675)
(0.581811 0 0.0841837)
(0.579073 0 0.0567979)
(0.576475 0 0.0329703)
(0.573803 0 0.0113409)
(0.570877 0 -0.00890594)
(0.568075 0 -0.0282762)
(0.563015 0 -0.0481279)
(-0.297241 0 -0.03433)
(-0.309473 0 0.0108122)
(-0.319445 0 0.0677248)
(-0.32546 0 0.134906)
(-0.324876 0 0.204923)
(-0.314419 0 0.26468)
(-0.29273 0 0.310561)
(-0.2651 0 0.370472)
(-0.229693 0 0.460059)
(-0.15638 0 0.427071)
(-0.077346 0 -0.0458811)
(0.228911 0 -1.10536)
(0.168585 0 -1.98334)
(0.0509224 0 -2.3978)
(-0.0074775 0 -2.55988)
(-0.0358741 0 -2.58126)
(-0.0330272 0 -2.57636)
(-0.0333316 0 -2.59188)
(-0.0400873 0 -2.62942)
(-0.051821 0 -2.68218)
(-0.0638556 0 -2.73281)
(-0.0697878 0 -2.76204)
(-0.0654481 0 -2.75907)
(-0.0523395 0 -2.72351)
(-0.0388741 0 -2.67284)
(-0.0301623 0 -2.62534)
(-0.0266603 0 -2.58364)
(-0.0283566 0 -2.53689)
(-0.0371931 0 -2.46893)
(-0.0529748 0 -2.38237)
(-0.0661858 0 -2.4136)
(-0.0124807 0 -2.27169)
(0.0696113 0 -1.90784)
(0.159514 0 -1.44145)
(0.259159 0 -0.945231)
(0.358067 0 -0.484963)
(0.437092 0 -0.131753)
(0.489475 0 0.0893782)
(0.517863 0 0.194071)
(0.52923 0 0.218172)
(0.530962 0 0.198536)
(0.528581 0 0.162271)
(0.525199 0 0.124527)
(0.522068 0 0.0912741)
(0.519406 0 0.0633355)
(0.51703 0 0.0395384)
(0.514728 0 0.0184586)
(0.512298 0 -0.000945096)
(0.509976 0 -0.0193475)
(0.50577 0 -0.0375965)
(-0.278152 0 -0.026752)
(-0.287398 0 0.0170963)
(-0.293976 0 0.0717048)
(-0.296125 0 0.135134)
(-0.291409 0 0.199571)
(-0.276965 0 0.252584)
(-0.251558 0 0.292423)
(-0.220544 0 0.347169)
(-0.182641 0 0.42506)
(-0.0995886 0 0.360548)
(-0.0253332 0 -0.152048)
(0.208184 0 -1.18014)
(0.301441 0 -2.06262)
(0.0898814 0 -2.31078)
(0.00107091 0 -2.52749)
(-0.028229 0 -2.57692)
(-0.0182329 0 -2.58024)
(-0.0103861 0 -2.592)
(-0.0126975 0 -2.62313)
(-0.0254314 0 -2.67141)
(-0.0431079 0 -2.72186)
(-0.0589123 0 -2.75684)
(-0.0664581 0 -2.7627)
(-0.0627402 0 -2.73201)
(-0.0568101 0 -2.6792)
(-0.0573455 0 -2.6272)
(-0.062614 0 -2.58017)
(-0.0670646 0 -2.52687)
(-0.0661888 0 -2.45362)
(-0.065806 0 -2.37219)
(-0.0458172 0 -2.45614)
(-0.0198036 0 -2.34873)
(0.0437817 0 -2.02387)
(0.127787 0 -1.57721)
(0.213281 0 -1.09225)
(0.299545 0 -0.624705)
(0.372689 0 -0.244112)
(0.424494 0 0.0136335)
(0.454929 0 0.152658)
(0.468822 0 0.202058)
(0.472422 0 0.19735)
(0.471002 0 0.167815)
(0.467909 0 0.131901)
(0.464748 0 0.0983695)
(0.462013 0 0.0697492)
(0.459669 0 0.0456075)
(0.457542 0 0.0246584)
(0.455428 0 0.00573727)
(0.453442 0 -0.0119588)
(0.449917 0 -0.0288676)
(-0.259553 0 -0.0209102)
(-0.266162 0 0.0213852)
(-0.269808 0 0.0735005)
(-0.268746 0 0.13303)
(-0.26077 0 0.191877)
(-0.243542 0 0.238411)
(-0.216003 0 0.272624)
(-0.182876 0 0.32172)
(-0.144929 0 0.387818)
(-0.0596245 0 0.299943)
(0.0178753 0 -0.243087)
(0.184127 0 -1.23944)
(0.434523 0 -2.08672)
(0.18949 0 -2.14894)
(0.0362202 0 -2.4725)
(0.0051171 0 -2.5718)
(0.00744996 0 -2.58738)
(0.0153884 0 -2.59573)
(0.0160983 0 -2.61868)
(0.00465668 0 -2.65954)
(-0.0149806 0 -2.70582)
(-0.0377331 0 -2.74257)
(-0.0570666 0 -2.75627)
(-0.0639225 0 -2.73218)
(-0.0656626 0 -2.67561)
(-0.0776087 0 -2.61664)
(-0.0926645 0 -2.56832)
(-0.0919725 0 -2.52313)
(-0.0717105 0 -2.46516)
(-0.0287756 0 -2.4086)
(0.0203096 0 -2.47898)
(-0.00471429 0 -2.39534)
(0.0292616 0 -2.12621)
(0.10265 0 -1.69674)
(0.180028 0 -1.21813)
(0.254675 0 -0.747814)
(0.319042 0 -0.348156)
(0.366909 0 -0.0607849)
(0.396762 0 0.108743)
(0.411522 0 0.182522)
(0.416163 0 0.193546)
(0.415386 0 0.172048)
(0.412481 0 0.138992)
(0.409227 0 0.105669)
(0.40632 0 0.0763836)
(0.403859 0 0.0516333)
(0.401723 0 0.0304481)
(0.399726 0 0.0116578)
(0.39788 0 -0.00558193)
(0.39465 0 -0.0212509)
(-0.241593 0 -0.0166381)
(-0.2459 0 0.0239296)
(-0.247069 0 0.0734277)
(-0.243432 0 0.129029)
(-0.233009 0 0.182469)
(-0.214033 0 0.222994)
(-0.18577 0 0.252216)
(-0.151774 0 0.295809)
(-0.11506 0 0.350248)
(-0.0341436 0 0.244375)
(0.0436232 0 -0.319698)
(0.164673 0 -1.32067)
(0.246081 0 -2.14449)
(0.216575 0 -2.01754)
(0.111553 0 -2.41198)
(0.07955 0 -2.55584)
(0.0533237 0 -2.58795)
(0.0473952 0 -2.5982)
(0.0466809 0 -2.6154)
(0.0374905 0 -2.64847)
(0.0184729 0 -2.68766)
(-0.00802862 0 -2.72102)
(-0.0374924 0 -2.73991)
(-0.0545304 0 -2.72677)
(-0.0590109 0 -2.66956)
(-0.0713647 0 -2.60217)
(-0.0830866 0 -2.56283)
(-0.0711162 0 -2.54856)
(-0.00984051 0 -2.53559)
(0.142064 0 -2.46754)
(0.144584 0 -2.46527)
(0.0789729 0 -2.37956)
(0.0618948 0 -2.18725)
(0.106281 0 -1.8103)
(0.167599 0 -1.33019)
(0.224984 0 -0.851945)
(0.275908 0 -0.43824)
(0.316188 0 -0.128194)
(0.342711 0 0.0667366)
(0.356551 0 0.162382)
(0.361281 0 0.188598)
(0.360765 0 0.175579)
(0.357962 0 0.146017)
(0.354634 0 0.113316)
(0.351577 0 0.083463)
(0.34899 0 0.0579636)
(0.346808 0 0.0362924)
(0.344875 0 0.0173916)
(0.34316 0 0.000488843)
(0.340192 0 -0.0138995)
(-0.224375 0 -0.0137334)
(-0.226705 0 0.0250019)
(-0.225829 0 0.0718302)
(-0.220202 0 0.123583)
(-0.208049 0 0.171928)
(-0.188163 0 0.207013)
(-0.160318 0 0.231955)
(-0.126747 0 0.270624)
(-0.0922139 0 0.31402)
(-0.0184764 0 0.192646)
(0.0538368 0 -0.382499)
(0.155505 0 -1.39651)
(0.188531 0 -2.16287)
(0.21469 0 -1.96244)
(0.18479 0 -2.32604)
(0.160989 0 -2.50878)
(0.110492 0 -2.57252)
(0.0859654 0 -2.59479)
(0.08109 0 -2.61223)
(0.0735728 0 -2.63859)
(0.0552432 0 -2.66889)
(0.0265097 0 -2.69441)
(-0.0109712 0 -2.71319)
(-0.0388854 0 -2.7141)
(-0.0475613 0 -2.66479)
(-0.0546069 0 -2.59017)
(-0.0571413 0 -2.56677)
(-0.0321745 0 -2.60437)
(0.0269648 0 -2.70634)
(0.0386636 0 -2.52711)
(0.11619 0 -2.46395)
(0.108782 0 -2.31863)
(0.0771555 0 -2.18711)
(0.101524 0 -1.88708)
(0.152651 0 -1.41255)
(0.197545 0 -0.930294)
(0.236506 0 -0.508673)
(0.268148 0 -0.183543)
(0.289878 0 0.0305365)
(0.301741 0 0.144166)
(0.306021 0 0.183795)
(0.305643 0 0.178826)
(0.303067 0 0.152919)
(0.299887 0 0.121084)
(0.296906 0 0.0907594)
(0.294388 0 0.0644222)
(0.29232 0 0.0420492)
(0.290576 0 0.0227841)
(0.289113 0 0.00602031)
(0.286638 0 -0.00730417)
(-0.207958 0 -0.0120029)
(-0.20862 0 0.0248547)
(-0.206089 0 0.0690376)
(-0.198981 0 0.117114)
(-0.185724 0 0.160779)
(-0.165596 0 0.191047)
(-0.139017 0 0.212418)
(-0.106994 0 0.246962)
(-0.0756149 0 0.280572)
(-0.00929087 0 0.14532)
(0.0551548 0 -0.43398)
(0.151277 0 -1.4478)
(0.173821 0 -2.15552)
(0.226384 0 -1.9998)
(0.226372 0 -2.31741)
(0.196744 0 -2.47167)
(0.150716 0 -2.53765)
(0.125809 0 -2.58059)
(0.119948 0 -2.60641)
(0.112397 0 -2.62795)
(0.0925037 0 -2.64876)
(0.0619666 0 -2.66536)
(0.0222336 0 -2.67829)
(-0.0150101 0 -2.68668)
(-0.0472233 0 -2.64808)
(-0.0577754 0 -2.5859)
(-0.0489179 0 -2.5888)
(-0.0340494 0 -2.65117)
(-0.00418403 0 -2.73708)
(0.0226325 0 -2.60801)
(0.070918 0 -2.50751)
(0.102295 0 -2.30579)
(0.109905 0 -2.17756)
(0.107485 0 -1.92504)
(0.134055 0 -1.47223)
(0.167216 0 -0.987123)
(0.195306 0 -0.559865)
(0.218211 0 -0.225428)
(0.234827 0 0.00178606)
(0.244489 0 0.128955)
(0.24833 0 0.179464)
(0.248334 0 0.181497)
(0.246363 0 0.159047)
(0.243738 0 0.128195)
(0.241195 0 0.0975104)
(0.239028 0 0.0703168)
(0.23728 0 0.0470838)
(0.235865 0 0.0272099)
(0.234738 0 0.0103306)
(0.232872 0 -0.00224997)
(-0.192372 0 -0.0112759)
(-0.191646 0 0.0237093)
(-0.1878 0 0.0653288)
(-0.179636 0 0.10996)
(-0.165794 0 0.14942)
(-0.145934 0 0.175542)
(-0.121183 0 0.19407)
(-0.0915072 0 0.225422)
(-0.0641189 0 0.250806)
(-0.00538429 0 0.10351)
(0.0498187 0 -0.478968)
(0.14191 0 -1.48917)
(0.133973 0 -2.14615)
(0.172878 0 -2.05846)
(0.18528 0 -2.47412)
(0.172368 0 -2.4755)
(0.165913 0 -2.51935)
(0.161713 0 -2.56243)
(0.156227 0 -2.5938)
(0.146523 0 -2.61309)
(0.123755 0 -2.62658)
(0.0937478 0 -2.6372)
(0.0683319 0 -2.64542)
(0.0373154 0 -2.65003)
(-0.025953 0 -2.62223)
(-0.0922932 0 -2.58317)
(-0.155291 0 -2.6295)
(-0.0465087 0 -2.72771)
(0.00802605 0 -2.73214)
(0.0343782 0 -2.65554)
(0.0672801 0 -2.54706)
(0.10176 0 -2.35963)
(0.126407 0 -2.18425)
(0.11361 0 -1.92142)
(0.117385 0 -1.50927)
(0.136151 0 -1.02265)
(0.151044 0 -0.592991)
(0.164715 0 -0.254348)
(0.176075 0 -0.0195957)
(0.183516 0 0.116536)
(0.187116 0 0.17502)
(0.187881 0 0.182675)
(0.186985 0 0.163316)
(0.185382 0 0.133578)
(0.183677 0 0.102797)
(0.182166 0 0.0749521)
(0.180938 0 0.0509492)
(0.179957 0 0.0304612)
(0.179169 0 0.0134118)
(0.177762 0 0.00142761)
(-0.177625 0 -0.0113955)
(-0.175756 0 0.0217607)
(-0.170881 0 0.0609391)
(-0.161995 0 0.102393)
(-0.147966 0 0.13815)
(-0.128727 0 0.160825)
(-0.106104 0 0.177256)
(-0.0792659 0 0.206415)
(-0.0564683 0 0.225207)
(-0.00621865 0 0.0679444)
(0.0377689 0 -0.519149)
(0.123011 0 -1.52511)
(0.0704612 0 -2.135)
(0.10618 0 -2.08978)
(0.10809 0 -2.43501)
(0.141235 0 -2.45176)
(0.222141 0 -2.54306)
(0.186224 0 -2.5684)
(0.170842 0 -2.5935)
(0.158512 0 -2.60502)
(0.141597 0 -2.61099)
(0.12206 0 -2.61868)
(0.105739 0 -2.62704)
(0.0778106 0 -2.61541)
(0.0138305 0 -2.57294)
(0.0452721 0 -2.47973)
(0.0950403 0 -2.68544)
(0.0721925 0 -2.75307)
(0.0668073 0 -2.75069)
(0.0699121 0 -2.68957)
(0.0867758 0 -2.57885)
(0.102899 0 -2.40526)
(0.114657 0 -2.19549)
(0.105974 0 -1.90495)
(0.0909251 0 -1.51694)
(0.0907338 0 -1.03711)
(0.0975647 0 -0.609719)
(0.105219 0 -0.271664)
(0.112639 0 -0.0345861)
(0.118557 0 0.106034)
(0.122435 0 0.169487)
(0.124434 0 0.181248)
(0.125074 0 0.164571)
(0.124923 0 0.136163)
(0.124423 0 0.105744)
(0.123841 0 0.0777224)
(0.123303 0 0.0533511)
(0.122826 0 0.0325891)
(0.122373 0 0.0157074)
(0.121348 0 0.00470029)
(-0.163702 0 -0.0122215)
(-0.160897 0 0.0191739)
(-0.155227 0 0.0560596)
(-0.145864 0 0.0946217)
(-0.13192 0 0.127171)
(-0.1135 0 0.147089)
(-0.0930813 0 0.162154)
(-0.0692952 0 0.190146)
(-0.0512873 0 0.204087)
(-0.0101342 0 0.039178)
(0.0220243 0 -0.553293)
(0.0952439 0 -1.5453)
(0.00266364 0 -2.10985)
(0.0451088 0 -2.10679)
(0.0796685 0 -2.37583)
(0.0853206 0 -2.48382)
(0.104781 0 -2.61766)
(0.140082 0 -2.55596)
(0.157438 0 -2.58753)
(0.153919 0 -2.59871)
(0.146357 0 -2.60204)
(0.136407 0 -2.61237)
(0.12294 0 -2.61601)
(0.114055 0 -2.56906)
(0.115757 0 -2.53488)
(0.135134 0 -2.52322)
(0.163447 0 -2.66597)
(0.140156 0 -2.72947)
(0.116164 0 -2.7349)
(0.104669 0 -2.69425)
(0.110916 0 -2.59639)
(0.111647 0 -2.41064)
(0.10213 0 -2.18981)
(0.0848258 0 -1.88124)
(0.0576634 0 -1.48602)
(0.0419524 0 -1.03242)
(0.0398767 0 -0.613838)
(0.0419248 0 -0.280221)
(0.0461595 0 -0.0450319)
(0.051182 0 0.0962148)
(0.0557707 0 0.161875)
(0.0593371 0 0.17628)
(0.0618084 0 0.16189)
(0.0633829 0 0.135079)
(0.0643329 0 0.105589)
(0.0648897 0 0.0780199)
(0.0652024 0 0.0538684)
(0.0653584 0 0.0333547)
(0.0654968 0 0.0169233)
(0.0649265 0 0.00562843)
(-0.150576 0 -0.0136348)
(-0.147007 0 0.0160793)
(-0.140722 0 0.0508312)
(-0.131046 0 0.0867835)
(-0.117339 0 0.116586)
(-0.0997936 0 0.134384)
(-0.0814505 0 0.148763)
(-0.0606198 0 0.17659)
(-0.0470207 0 0.1875)
(-0.0148358 0 0.0173758)
(0.00736188 0 -0.579314)
(0.0597075 0 -1.54052)
(-0.0616596 0 -2.07814)
(-0.0142029 0 -2.14267)
(0.0359527 0 -2.38625)
(0.0322952 0 -2.5078)
(0.0411791 0 -2.59815)
(0.0670622 0 -2.57439)
(0.0990323 0 -2.59324)
(0.115914 0 -2.59549)
(0.125742 0 -2.59221)
(0.13094 0 -2.59835)
(0.131223 0 -2.59925)
(0.134003 0 -2.57533)
(0.146573 0 -2.56973)
(0.170173 0 -2.58926)
(0.184083 0 -2.65904)
(0.165821 0 -2.70343)
(0.140359 0 -2.70939)
(0.118069 0 -2.67712)
(0.101903 0 -2.59508)
(0.0917341 0 -2.39193)
(0.0743457 0 -2.16156)
(0.044686 0 -1.83955)
(0.00931101 0 -1.43721)
(-0.0125779 0 -1.0121)
(-0.0201035 0 -0.607377)
(-0.0223533 0 -0.282041)
(-0.0204834 0 -0.0524329)
(-0.0159307 0 0.08612)
(-0.010465 0 0.151592)
(-0.0052804 0 0.167357)
(-0.000962981 0 0.154901)
(0.00235306 0 0.129948)
(0.00478137 0 0.10195)
(0.00650773 0 0.0754893)
(0.00768284 0 0.0522007)
(0.00841186 0 0.032522)
(0.00891227 0 0.0169155)
(0.00863782 0 0.0056098)
(-0.138214 0 -0.0155376)
(-0.134017 0 0.0125771)
(-0.12725 0 0.0453495)
(-0.11736 0 0.0789513)
(-0.103934 0 0.106408)
(-0.0871947 0 0.122639)
(-0.0706136 0 0.136923)
(-0.0522917 0 0.165432)
(-0.0420582 0 0.174915)
(-0.017312 0 0.00192125)
(-0.00146811 0 -0.596011)
(0.0239804 0 -1.51504)
(-0.0885384 0 -2.04881)
(-0.0414063 0 -2.18286)
(-0.0104924 0 -2.41084)
(0.00361043 0 -2.51858)
(0.0186338 0 -2.59285)
(0.0346058 0 -2.60364)
(0.0643533 0 -2.61197)
(0.084466 0 -2.61105)
(0.0993349 0 -2.60696)
(0.110187 0 -2.60794)
(0.115826 0 -2.60697)
(0.123397 0 -2.59573)
(0.138911 0 -2.59366)
(0.159149 0 -2.61101)
(0.167053 0 -2.65016)
(0.154092 0 -2.67999)
(0.131283 0 -2.68042)
(0.103095 0 -2.64133)
(0.0633897 0 -2.56089)
(0.0416941 0 -2.36508)
(0.0265124 0 -2.12119)
(-0.000728385 0 -1.78758)
(-0.0340988 0 -1.38916)
(-0.0612727 0 -0.982172)
(-0.0764918 0 -0.591852)
(-0.0835141 0 -0.278085)
(-0.0838884 0 -0.0574385)
(-0.0798064 0 0.0755016)
(-0.0736239 0 0.138717)
(-0.0670693 0 0.154718)
(-0.0611697 0 0.14387)
(-0.0563413 0 0.120985)
(-0.0526138 0 0.0949845)
(-0.049849 0 0.0702536)
(-0.0478998 0 0.0484826)
(-0.0466474 0 0.0302661)
(-0.0458689 0 0.0159949)
(-0.0459017 0 0.005356)
(-0.126581 0 -0.0178496)
(-0.121863 0 0.00874346)
(-0.114708 0 0.0396747)
(-0.104649 0 0.0711495)
(-0.0914691 0 0.0965887)
(-0.0753656 0 0.111689)
(-0.0600932 0 0.126323)
(-0.0435402 0 0.15606)
(-0.03513 0 0.165076)
(-0.0155863 0 -0.0092375)
(-0.00351731 0 -0.604)
(-0.00360411 0 -1.4847)
(-0.0972626 0 -2.02688)
(-0.0520689 0 -2.207)
(-0.0240232 0 -2.42359)
(-0.00558421 0 -2.52984)
(0.0117227 0 -2.6018)
(0.023762 0 -2.62108)
(0.0447597 0 -2.62557)
(0.0605646 0 -2.62358)
(0.0743797 0 -2.61953)
(0.0861688 0 -2.61761)
(0.0949878 0 -2.61501)
(0.105131 0 -2.60871)
(0.119478 0 -2.60835)
(0.133722 0 -2.62105)
(0.138485 0 -2.64534)
(0.129935 0 -2.66252)
(0.112171 0 -2.65213)
(0.0849441 0 -2.59702)
(0.0455022 0 -2.51667)
(0.00706236 0 -2.33383)
(-0.020295 0 -2.08597)
(-0.0475698 0 -1.74079)
(-0.0793034 0 -1.34077)
(-0.108791 0 -0.941924)
(-0.129378 0 -0.567474)
(-0.139794 0 -0.268698)
(-0.141883 0 -0.0601798)
(-0.138227 0 0.0646376)
(-0.131563 0 0.123877)
(-0.124026 0 0.13917)
(-0.116966 0 0.129616)
(-0.111007 0 0.108922)
(-0.10629 0 0.085292)
(-0.102723 0 0.0627941)
(-0.100173 0 0.043105)
(-0.0985194 0 0.0269057)
(-0.0975663 0 0.0144424)
(-0.0974234 0 0.00499076)
(-0.115643 0 -0.0205054)
(-0.110489 0 0.00463587)
(-0.10301 0 0.0338412)
(-0.0927932 0 0.0633669)
(-0.0797727 0 0.0870341)
(-0.0640742 0 0.101296)
(-0.0495813 0 0.116516)
(-0.0339408 0 0.147666)
(-0.0256626 0 0.156494)
(-0.00877345 0 -0.0180329)
(0.0014901 0 -0.604836)
(-0.00916698 0 -1.45514)
(-0.0833005 0 -2.01042)
(-0.0499779 0 -2.23015)
(-0.018688 0 -2.43562)
(-0.00578003 0 -2.54228)
(0.0101311 0 -2.61007)
(0.0183834 0 -2.63081)
(0.0308502 0 -2.63456)
(0.0421984 0 -2.63245)
(0.0538037 0 -2.629)
(0.0648232 0 -2.62635)
(0.0747169 0 -2.62332)
(0.085148 0 -2.61948)
(0.0967888 0 -2.62017)
(0.10639 0 -2.62906)
(0.109207 0 -2.64358)
(0.10372 0 -2.65149)
(0.0939104 0 -2.63356)
(0.0847581 0 -2.56633)
(0.0556824 0 -2.46768)
(0.0132763 0 -2.28539)
(-0.0304801 0 -2.04054)
(-0.0767373 0 -1.68977)
(-0.117417 0 -1.28813)
(-0.152186 0 -0.894664)
(-0.176997 0 -0.536714)
(-0.189829 0 -0.255207)
(-0.193152 0 -0.0611124)
(-0.189827 0 0.0537984)
(-0.182907 0 0.10785)
(-0.174804 0 0.121747)
(-0.16706 0 0.113224)
(-0.16042 0 0.0947556)
(-0.1551 0 0.0737207)
(-0.151048 0 0.0538045)
(-0.148154 0 0.0366253)
(-0.146305 0 0.022872)
(-0.145319 0 0.0125553)
(-0.145058 0 0.00454488)
(-0.105372 0 -0.0234507)
(-0.0998496 0 0.000297771)
(-0.0920946 0 0.0278652)
(-0.081715 0 0.0555703)
(-0.0687506 0 0.077626)
(-0.0532124 0 0.0911924)
(-0.0389468 0 0.10699)
(-0.0233534 0 0.139373)
(-0.0133587 0 0.147863)
(0.00345349 0 -0.0261671)
(0.0140469 0 -0.602401)
(-0.000815918 0 -1.42776)
(-0.0681652 0 -1.99252)
(-0.0498955 0 -2.25505)
(-0.0164844 0 -2.44823)
(-0.00352831 0 -2.55331)
(0.0094893 0 -2.61558)
(0.0135972 0 -2.63643)
(0.0196776 0 -2.6402)
(0.0275778 0 -2.63928)
(0.0373172 0 -2.63718)
(0.0471111 0 -2.63489)
(0.0565908 0 -2.632)
(0.0659656 0 -2.629)
(0.0747878 0 -2.62894)
(0.0806198 0 -2.63359)
(0.0805463 0 -2.64069)
(0.073407 0 -2.64196)
(0.061295 0 -2.62056)
(0.0490434 0 -2.54776)
(0.0251056 0 -2.41788)
(-0.00926014 0 -2.22799)
(-0.0527614 0 -1.96909)
(-0.105295 0 -1.62019)
(-0.151607 0 -1.2247)
(-0.190371 0 -0.841222)
(-0.218186 0 -0.501534)
(-0.232697 0 -0.239047)
(-0.236856 0 -0.0608114)
(-0.233831 0 0.0431804)
(-0.22692 0 0.0913822)
(-0.218681 0 0.103497)
(-0.210732 0 0.0958271)
(-0.20387 0 0.0795654)
(-0.198351 0 0.0612337)
(-0.194162 0 0.0441178)
(-0.191219 0 0.0297372)
(-0.189421 0 0.0186755)
(-0.188573 0 0.0106034)
(-0.188299 0 0.0040467)
(-0.0957432 0 -0.0266388)
(-0.0899135 0 -0.00423608)
(-0.0819247 0 0.021756)
(-0.0713788 0 0.0477213)
(-0.0583803 0 0.068244)
(-0.0427931 0 0.0811236)
(-0.0282447 0 0.0972496)
(-0.0119205 0 0.130263)
(0.00124583 0 0.13786)
(0.0198416 0 -0.0352858)
(0.0323013 0 -0.600415)
(0.0119414 0 -1.4002)
(-0.0526812 0 -1.97379)
(-0.0370749 0 -2.27425)
(-0.0103059 0 -2.46112)
(0.000428669 0 -2.56211)
(0.0083642 0 -2.61862)
(0.00805341 0 -2.63864)
(0.00986489 0 -2.64341)
(0.015482 0 -2.64479)
(0.0235871 0 -2.64433)
(0.0320636 0 -2.64271)
(0.0405663 0 -2.63991)
(0.0485859 0 -2.63661)
(0.0550639 0 -2.63448)
(0.0578929 0 -2.63433)
(0.0547396 0 -2.63416)
(0.0440947 0 -2.62795)
(0.0262798 0 -2.60192)
(0.00616835 0 -2.52489)
(-0.0199746 0 -2.37645)
(-0.0506209 0 -2.17794)
(-0.0893993 0 -1.89393)
(-0.140806 0 -1.5415)
(-0.187886 0 -1.15432)
(-0.227045 0 -0.783719)
(-0.254749 0 -0.46415)
(-0.269092 0 -0.221665)
(-0.273244 0 -0.0598487)
(-0.270309 0 0.0329466)
(-0.263576 0 0.0751512)
(-0.255552 0 0.0853793)
(-0.247815 0 0.0784854)
(-0.241148 0 0.0644019)
(-0.235822 0 0.0488338)
(-0.231862 0 0.0346954)
(-0.229219 0 0.0233696)
(-0.227815 0 0.0152229)
(-0.227451 0 0.0095475)
(-0.22753 0 0.00439054)
(-0.0867369 0 -0.0300261)
(-0.0806609 0 -0.00893263)
(-0.0724852 0 0.0155255)
(-0.0617876 0 0.0397931)
(-0.0487013 0 0.0587923)
(-0.0329359 0 0.0708822)
(-0.0177529 0 0.0869107)
(-0.000184453 0 0.119651)
(0.0169424 0 0.125506)
(0.0382584 0 -0.0461498)
(0.0540047 0 -0.5984)
(0.0308086 0 -1.37028)
(-0.0240331 0 -1.95701)
(-0.0145762 0 -2.28617)
(-0.000944239 0 -2.46985)
(0.00502159 0 -2.56752)
(0.00668693 0 -2.61881)
(0.00261763 0 -2.63801)
(0.00156642 0 -2.64496)
(0.00500991 0 -2.64891)
(0.0111966 0 -2.65021)
(0.0183824 0 -2.64945)
(0.0259834 0 -2.64678)
(0.0330194 0 -2.64263)
(0.0380727 0 -2.63785)
(0.0390982 0 -2.63246)
(0.0338486 0 -2.62425)
(0.0202435 0 -2.60808)
(-0.0037832 0 -2.57344)
(-0.0352929 0 -2.4918)
(-0.06687 0 -2.3352)
(-0.0990884 0 -2.13324)
(-0.134186 0 -1.82755)
(-0.179038 0 -1.46735)
(-0.223034 0 -1.08563)
(-0.25964 0 -0.728093)
(-0.285332 0 -0.428092)
(-0.298736 0 -0.205005)
(-0.302476 0 -0.0589913)
(-0.29959 0 0.0231285)
(-0.293222 0 0.0596796)
(-0.285713 0 0.0681704)
(-0.27851 0 0.0620585)
(-0.272327 0 0.0501055)
(-0.267417 0 0.0372896)
(-0.263809 0 0.0261838)
(-0.261439 0 0.0179526)
(-0.260184 0 0.0125925)
(-0.259715 0 0.00880354)
(-0.25909 0 0.00414925)
(-0.0783386 0 -0.0335696)
(-0.0720808 0 -0.0137538)
(-0.0637774 0 0.00919788)
(-0.052972 0 0.0317846)
(-0.0397973 0 0.0492229)
(-0.0238252 0 0.060347)
(-0.00784391 0 0.0757699)
(0.0111686 0 0.10727)
(0.0324382 0 0.110571)
(0.0576973 0 -0.0595898)
(0.0784709 0 -0.596978)
(0.0548578 0 -1.34221)
(0.0109759 0 -1.94229)
(0.00842419 0 -2.29047)
(0.00875283 0 -2.47277)
(0.00969874 0 -2.56895)
(0.00479729 0 -2.61588)
(-0.00306889 0 -2.63513)
(-0.00668746 0 -2.64497)
(-0.00552608 0 -2.65153)
(-0.000907683 0 -2.65491)
(0.00548315 0 -2.65542)
(0.0127215 0 -2.65307)
(0.0195156 0 -2.64802)
(0.0242551 0 -2.64041)
(0.0249011 0 -2.62966)
(0.0192579 0 -2.61297)
(0.00508907 0 -2.585)
(-0.0204257 0 -2.53787)
(-0.0552116 0 -2.45135)
(-0.0923762 0 -2.2876)
(-0.132809 0 -2.08578)
(-0.170825 0 -1.76987)
(-0.211236 0 -1.40264)
(-0.251895 0 -1.02381)
(-0.285611 0 -0.678387)
(-0.308909 0 -0.39547)
(-0.321148 0 -0.190128)
(-0.324568 0 -0.0585127)
(-0.322019 0 0.0139771)
(-0.316375 0 0.0455137)
(-0.309738 0 0.0525362)
(-0.303396 0 0.0472154)
(-0.297979 0 0.0372756)
(-0.293726 0 0.0270673)
(-0.290669 0 0.018821)
(-0.288726 0 0.0133576)
(-0.287762 0 0.0101674)
(-0.287441 0 0.00752998)
(-0.286765 0 0.00331957)
(-0.0705347 0 -0.0372246)
(-0.0641668 0 -0.0186535)
(-0.0558106 0 0.00281377)
(-0.0449753 0 0.0237277)
(-0.0317711 0 0.0395474)
(-0.015667 0 0.0494973)
(0.00108571 0 0.0638022)
(0.0214826 0 0.0930858)
(0.0464401 0 0.0929854)
(0.0770219 0 -0.0768915)
(0.10227 0 -0.596498)
(0.078277 0 -1.31866)
(0.0429959 0 -1.92681)
(0.0274032 0 -2.28618)
(0.0186052 0 -2.47124)
(0.0135627 0 -2.56584)
(0.00175592 0 -2.60963)
(-0.00970387 0 -2.63025)
(-0.0159463 0 -2.64332)
(-0.0167207 0 -2.65296)
(-0.0128431 0 -2.65901)
(-0.00633108 0 -2.66125)
(0.00136892 0 -2.65951)
(0.00876766 0 -2.65368)
(0.0141877 0 -2.64331)
(0.0155628 0 -2.62734)
(0.0107548 0 -2.60236)
(-0.00263525 0 -2.56225)
(-0.0283595 0 -2.49973)
(-0.0693974 0 -2.40155)
(-0.109229 0 -2.23529)
(-0.155835 0 -2.02819)
(-0.19904 0 -1.71941)
(-0.233546 0 -1.3459)
(-0.270295 0 -0.968143)
(-0.302025 0 -0.633421)
(-0.324082 0 -0.365866)
(-0.336029 0 -0.176346)
(-0.339876 0 -0.0575874)
(-0.338294 0 0.00635786)
(-0.33389 0 0.0334881)
(-0.328549 0 0.0392395)
(-0.323411 0 0.0346329)
(-0.31905 0 0.0265026)
(-0.315699 0 0.0186577)
(-0.313386 0 0.0129596)
(-0.311993 0 0.00979611)
(-0.311368 0 0.00819042)
(-0.311227 0 0.00632815)
(-0.310574 0 0.00271803)
(-0.0633096 0 -0.0409435)
(-0.056911 0 -0.023578)
(-0.0485933 0 -0.00356873)
(-0.0378385 0 0.0156869)
(-0.0247228 0 0.0298357)
(-0.00865914 0 0.0384092)
(0.00861516 0 0.0511454)
(0.0300086 0 0.077339)
(0.0574037 0 0.072958)
(0.09177 0 -0.0977458)
(0.12115 0 -0.597861)
(0.0999275 0 -1.29857)
(0.0707089 0 -1.90853)
(0.0459932 0 -2.27464)
(0.0305266 0 -2.46529)
(0.0165242 0 -2.55751)
(-0.00199989 0 -2.59999)
(-0.0173036 0 -2.6232)
(-0.0260519 0 -2.64022)
(-0.0279311 0 -2.65373)
(-0.0239157 0 -2.66331)
(-0.0164053 0 -2.66775)
(-0.00732727 0 -2.66677)
(0.00149344 0 -2.66041)
(0.00838151 0 -2.64736)
(0.011307 0 -2.6263)
(0.00826519 0 -2.59333)
(-0.0030575 0 -2.54169)
(-0.0250532 0 -2.46394)
(-0.0587678 0 -2.34987)
(-0.0945074 0 -2.18172)
(-0.143545 0 -1.9591)
(-0.194858 0 -1.66439)
(-0.237424 0 -1.28902)
(-0.27604 0 -0.913675)
(-0.308668 0 -0.588996)
(-0.331518 0 -0.336268)
(-0.344539 0 -0.161447)
(-0.349786 0 -0.0545189)
(-0.34986 0 0.00159286)
(-0.347187 0 0.0246383)
(-0.343495 0 0.0291061)
(-0.339829 0 0.0249934)
(-0.33673 0 0.0183669)
(-0.334438 0 0.0125398)
(-0.33297 0 0.00895553)
(-0.332177 0 0.00753236)
(-0.331904 0 0.00695927)
(-0.331948 0 0.00556241)
(-0.331385 0 0.00239401)
(-0.0566437 0 -0.0446758)
(-0.0502998 0 -0.0284682)
(-0.0421249 0 -0.00987662)
(-0.0315872 0 0.00775383)
(-0.0187302 0 0.0202106)
(-0.00295897 0 0.027257)
(0.0144028 0 0.0381113)
(0.0360835 0 0.0606872)
(0.0644815 0 0.0514258)
(0.100347 0 -0.120219)
(0.132014 0 -0.602669)
(0.116014 0 -1.28248)
(0.0935572 0 -1.88961)
(0.066516 0 -2.25961)
(0.0438499 0 -2.45305)
(0.0183899 0 -2.54353)
(-0.00696741 0 -2.58684)
(-0.0258692 0 -2.61413)
(-0.0359765 0 -2.63623)
(-0.0379162 0 -2.65452)
(-0.033431 0 -2.66832)
(-0.0247422 0 -2.67558)
(-0.0134431 0 -2.67582)
(-0.00213576 0 -2.66891)
(0.00698373 0 -2.65332)
(0.0122272 0 -2.62726)
(0.0116914 0 -2.58645)
(0.00270746 0 -2.52358)
(-0.0170493 0 -2.43292)
(-0.0459507 0 -2.30686)
(-0.0775616 0 -2.12766)
(-0.125647 0 -1.8873)
(-0.179532 0 -1.59557)
(-0.230583 0 -1.22254)
(-0.274167 0 -0.8543)
(-0.3097 0 -0.541158)
(-0.334664 0 -0.303619)
(-0.349641 0 -0.143281)
(-0.356867 0 -0.0477945)
(-0.358958 0 0.000744442)
(-0.358231 0 0.0197169)
(-0.356319 0 0.0226908)
(-0.354212 0 0.0187338)
(-0.352445 0 0.0132261)
(-0.351263 0 0.00898509)
(-0.350671 0 0.00698146)
(-0.350495 0 0.00668062)
(-0.350592 0 0.00659075)
(-0.350829 0 0.00529886)
(-0.350407 0 0.00226953)
(-0.0505116 0 -0.0483694)
(-0.0443104 0 -0.0332613)
(-0.0363891 0 -0.0160258)
(-0.0262199 0 4.02631e-05)
(-0.0138251 0 0.0108338)
(0.00135629 0 0.0162956)
(0.0182909 0 0.0251476)
(0.0393949 0 0.0440018)
(0.0673476 0 0.0297875)
(0.102261 0 -0.142775)
(0.133479 0 -0.610338)
(0.124714 0 -1.27174)
(0.110069 0 -1.87238)
(0.0820834 0 -2.24255)
(0.0510111 0 -2.43395)
(0.0166978 0 -2.52428)
(-0.0137026 0 -2.5706)
(-0.0349438 0 -2.60375)
(-0.0448426 0 -2.63231)
(-0.0454464 0 -2.65575)
(-0.0404136 0 -2.67392)
(-0.0307207 0 -2.68495)
(-0.0168547 0 -2.68744)
(-0.00241886 0 -2.68009)
(0.00983237 0 -2.66218)
(0.0182336 0 -2.63131)
(0.0211292 0 -2.58292)
(0.0153681 0 -2.50812)
(-0.00317811 0 -2.40406)
(-0.0311852 0 -2.26892)
(-0.0622536 0 -2.07534)
(-0.109753 0 -1.8177)
(-0.164593 0 -1.51932)
(-0.222258 0 -1.14553)
(-0.271408 0 -0.787478)
(-0.310343 0 -0.488268)
(-0.337751 0 -0.266722)
(-0.354831 0 -0.121069)
(-0.364035 0 -0.0369735)
(-0.368045 0 0.004014)
(-0.369126 0 0.0187831)
(-0.368852 0 0.0199901)
(-0.368187 0 0.0158421)
(-0.367666 0 0.0110721)
(-0.367527 0 0.00797151)
(-0.367751 0 0.00699714)
(-0.368145 0 0.00721661)
(-0.368579 0 0.00709267)
(-0.368976 0 0.00552672)
(-0.368712 0 0.00230863)
(-0.044881 0 -0.0519722)
(-0.0389077 0 -0.037893)
(-0.0313496 0 -0.0219269)
(-0.0217023 0 -0.00733284)
(-0.00998227 0 0.00188371)
(0.00430367 0 0.00580977)
(0.0202934 0 0.0127357)
(0.0399856 0 0.0280808)
(0.0661478 0 0.00929558)
(0.0987932 0 -0.164163)
(0.128233 0 -0.61946)
(0.127922 0 -1.26674)
(0.120404 0 -1.85812)
(0.0897055 0 -2.22226)
(0.0508524 0 -2.4095)
(0.0105693 0 -2.50116)
(-0.0227874 0 -2.5526)
(-0.0442737 0 -2.59318)
(-0.0519727 0 -2.62951)
(-0.0492014 0 -2.65801)
(-0.0425183 0 -2.6803)
(-0.0316908 0 -2.6963)
(-0.015608 0 -2.70215)
(0.00150707 0 -2.69434)
(0.0163388 0 -2.67449)
(0.0282131 0 -2.63973)
(0.0353413 0 -2.58437)
(0.0341804 0 -2.49729)
(0.0200289 0 -2.37801)
(-0.00387397 0 -2.23316)
(-0.0402812 0 -2.02253)
(-0.0926368 0 -1.74724)
(-0.153447 0 -1.43332)
(-0.2183 0 -1.05865)
(-0.272712 0 -0.713373)
(-0.314865 0 -0.430418)
(-0.344354 0 -0.225936)
(-0.363068 0 -0.0953276)
(-0.373752 0 -0.0226752)
(-0.379199 0 0.0107465)
(-0.381656 0 0.0212117)
(-0.382663 0 0.0204606)
(-0.383162 0 0.0158784)
(-0.383674 0 0.0115512)
(-0.38441 0 0.00919518)
(-0.385307 0 0.00873755)
(-0.386159 0 0.00893456)
(-0.386842 0 0.00832456)
(-0.387332 0 0.00615149)
(-0.387232 0 0.00247161)
(-0.0397115 0 -0.0554359)
(-0.0340432 0 -0.0423003)
(-0.0269493 0 -0.0274924)
(-0.0179673 0 -0.0142465)
(-0.00712324 0 -0.00646566)
(0.00598169 0 -0.0039291)
(0.0205453 0 0.00131402)
(0.0381504 0 0.0135457)
(0.0614689 0 -0.00934224)
(0.0918929 0 -0.184293)
(0.120014 0 -0.630469)
(0.12745 0 -1.26707)
(0.123347 0 -1.84499)
(0.0889666 0 -2.19812)
(0.0454695 0 -2.38147)
(0.0019224 0 -2.47566)
(-0.0329211 0 -2.53402)
(-0.0534757 0 -2.58366)
(-0.0563993 0 -2.62948)
(-0.0454673 0 -2.66298)
(-0.0332564 0 -2.68766)
(-0.0218995 0 -2.70825)
(-0.00623649 0 -2.71937)
(0.0116054 0 -2.71107)
(0.0271271 0 -2.68916)
(0.0403527 0 -2.65188)
(0.0501416 0 -2.59037)
(0.0528542 0 -2.49206)
(0.0446829 0 -2.35789)
(0.0261754 0 -2.19799)
(-0.0196365 0 -1.9589)
(-0.085477 0 -1.66573)
(-0.156163 0 -1.33724)
(-0.22521 0 -0.96579)
(-0.282604 0 -0.633537)
(-0.326631 0 -0.368922)
(-0.357087 0 -0.182642)
(-0.376425 0 -0.0674503)
(-0.38771 0 -0.00623784)
(-0.393841 0 0.0197167)
(-0.397056 0 0.0259363)
(-0.398856 0 0.0232207)
(-0.400148 0 0.0181363)
(-0.401409 0 0.0140852)
(-0.402782 0 0.0121562)
(-0.404154 0 0.0117697)
(-0.405304 0 0.0114904)
(-0.406119 0 0.0100461)
(-0.406624 0 0.00703367)
(-0.40668 0 0.00271458)
(-0.0349543 0 -0.0587191)