/*--------------------------------*- C++ -*----------------------------------*\
  =========                 |
  \\      /  F ield         | OpenFOAM: The Open Source CFD Toolbox
   \\    /   O peration     | Website:  https://openfoam.org
    \\  /    A nd           | Version:  9
     \\/     M anipulation  |
\*---------------------------------------------------------------------------*/
FoamFile
{
    format      ascii;
    class       volScalarField;
    location    "0.11";
    object      p_rgh;
}
// * * * * * * * * * * * * * * * * * * * * * * * * * * * * * * * * * * * * * //

dimensions      [1 -1 -2 0 0 0 0];

internalField   nonuniform List<scalar> 
5000
(
-0.0781891
-0.164848
-0.292311
-0.249706
-0.133432
-0.0704743
-0.0413419
-0.0262078
-0.0159121
-0.00713837
0.000134387
0.00282886
-0.00702992
-0.0501877
-0.0185606
-0.145185
-0.106101
-0.0924362
-0.023962
0.000533948
0.00628782
0.00658427
0.00548654
0.00430118
0.00342257
0.00285561
0.00251251
0.00231626
0.00220773
0.00214447
0.00209785
0.00205012
0.00199185
0.00191935
0.00183228
0.00173196
0.00162028
0.00149992
0.00137329
0.00124285
0.00111074
0.000978712
0.000848147
0.000720137
0.000595555
0.000475103
0.000359355
0.000248926
0.000144523
4.61245e-05
-0.0808013
-0.12941
-0.191953
-0.173489
-0.116506
-0.0730354
-0.0424355
-0.0222497
-0.00781677
0.00374422
0.0129468
0.0187821
0.0255747
0.00640037
0.122734
-0.137668
0.00842298
-0.059787
0.0044465
0.0163014
0.0202362
0.0201288
0.0184626
0.0164902
0.0145749
0.0129788
0.0116333
0.0105017
0.00954105
0.00871129
0.00797933
0.00732006
0.00671593
0.00615505
0.00562897
0.00513149
0.00465819
0.00420624
0.00377396
0.00336037
0.00296475
0.00258649
0.00222505
0.00187995
0.00155077
0.00123715
0.000938744
0.000655775
0.000387963
0.000129
-0.0694685
-0.101339
-0.140603
-0.128015
-0.0907788
-0.0600822
-0.0343346
-0.0146033
0.00121675
0.0151228
0.0278642
0.0393377
0.0650217
0.0506628
0.19096
-0.00844277
0.0944049
0.00446222
0.0439159
0.0354406
0.0345329
0.0320155
0.0288736
0.0258589
0.0230754
0.020686
0.0186138
0.0168204
0.0152575
0.0138803
0.0126512
0.0115408
0.0105273
0.00959385
0.00872702
0.00791645
0.00715456
0.00643596
0.00575671
0.0051137
0.00450429
0.00392615
0.00337725
0.00285574
0.00235997
0.00188842
0.00143964
0.00101312
0.00060751
0.000206814
-0.0550011
-0.0772457
-0.102778
-0.0938066
-0.06736
-0.0439445
-0.0224882
-0.00435012
0.0117955
0.0275226
0.0439887
0.0592768
0.100034
0.0888121
0.230344
0.112126
0.158742
0.0691731
0.0827513
0.0572289
0.050689
0.0446696
0.0394173
0.0350168
0.0312422
0.0280093
0.0252226
0.0228028
0.0206802
0.0187982
0.017112
0.0155866
0.0141946
0.0129137
0.0117266
0.01062
0.00958393
0.00861092
0.00769491
0.00683083
0.0060143
0.00524155
0.00450923
0.00381433
0.00315409
0.00252606
0.00192803
0.0013593
0.000817791
0.000279001
-0.0410132
-0.0552495
-0.0698231
-0.0637985
-0.0463106
-0.0283859
-0.0100365
0.00688986
0.0231388
0.0400214
0.0593437
0.0760796
0.124631
0.120027
0.247281
0.181098
0.193239
0.115089
0.110494
0.0768274
0.066402
0.0572736
0.0500664
0.0443059
0.0394915
0.0354101
0.0319038
0.0288547
0.0261727
0.0237886
0.0216484
0.0197098
0.0179389
0.016309
0.0147993
0.0133937
0.0120802
0.0108486
0.0096909
0.00860009
0.00757037
0.00659668
0.00567451
0.00479979
0.00396884
0.00317843
0.00242575
0.00171004
0.00102879
0.000350481
-0.0272739
-0.0355233
-0.0429707
-0.0386183
-0.0270197
-0.0132508
0.00249486
0.0183129
0.0344202
0.0517679
0.0727865
0.0897256
0.139737
0.141945
0.250229
0.210853
0.207483
0.14266
0.127935
0.0924949
0.0800406
0.068668
0.0600276
0.0531448
0.0474003
0.0425413
0.0383638
0.0347225
0.0315121
0.0286518
0.0260789
0.0237437
0.0216073
0.0196394
0.0178165
0.0161201
0.0145354
0.0130503
0.0116547
0.0103403
0.00910003
0.0079276
0.00681752
0.00576477
0.00476496
0.00381426
0.00290934
0.0020493
0.00123126
0.000417998
-0.0139907
-0.0184767
-0.0219675
-0.0182994
-0.00974957
0.00134564
0.0149434
0.0295783
0.0452199
0.0624124
0.0836572
0.101339
0.149107
0.156806
0.247124
0.222709
0.213396
0.16024
0.139497
0.104737
0.0913122
0.0783966
0.0688499
0.0611101
0.0546107
0.049098
0.0443407
0.0401799
0.0365004
0.0332127
0.0302467
0.0275479
0.0250742
0.022793
0.0206786
0.01871
0.0168704
0.0151458
0.0135249
0.0119982
0.0105574
0.00919541
0.00790574
0.00668271
0.00552138
0.0044175
0.00336733
0.00236976
0.00142145
0.000480347
-0.00163644
-0.00376745
-0.00495602
-0.00151672
0.00547508
0.0149386
0.0269132
0.0404246
0.0554092
0.072107
0.0930649
0.110532
0.155285
0.166567
0.240329
0.225806
0.214755
0.171819
0.147614
0.114303
0.100559
0.08658
0.0765166
0.0681421
0.0610648
0.0550308
0.049795
0.0451956
0.0411121
0.037449
0.0341326
0.0311064
0.028327
0.02576
0.0233777
0.0211574
0.0190805
0.0171321
0.0152998
0.013573
0.0119427
0.0104009
0.00894031
0.00755497
0.00623961
0.0049897
0.00380113
0.00267256
0.00160015
0.000537576
0.00966686
0.00918815
0.0095334
0.0129207
0.0189797
0.0273462
0.0381055
0.0506366
0.064886
0.0808587
0.101214
0.119077
0.157567
0.171999
0.231097
0.223243
0.212534
0.178263
0.152822
0.121404
0.10794
0.0935479
0.0831143
0.074286
0.066797
0.0603676
0.0547515
0.0497916
0.0453654
0.0413762
0.0377506
0.0344323
0.0313776
0.028551
0.0259231
0.0234702
0.0211729
0.0190156
0.0169851
0.0150701
0.0132605
0.0115477
0.00992445
0.00838436
0.0069221
0.00553292
0.00421235
0.00295874
0.00176783
0.000589503
0.0200286
0.0207721
0.0221874
0.025609
0.0310745
0.0386369
0.0484311
0.0600768
0.0735502
0.0886176
0.107866
0.124961
0.158853
0.174407
0.22093
0.217272
0.207842
0.180649
0.155588
0.12734
0.112788
0.0990031
0.0886076
0.0795637
0.0718278
0.065122
0.0592186
0.0539712
0.0492602
0.0449926
0.0410984
0.037523
0.0342228
0.0311617
0.02831
0.0256435
0.0231429
0.020792
0.0185768
0.0164852
0.0145067
0.0126326
0.0108555
0.00916895
0.00756761
0.00604644
0.00460059
0.00322807
0.0019242
0.000635704
0.0295592
0.0311867
0.0333354
0.0368446
0.0419585
0.048932
0.057937
0.0687604
0.0813967
0.0954365
0.113314
0.129078
0.158416
0.175671
0.210907
0.209763
0.201892
0.18036
0.15642
0.131241
0.116742
0.103391
0.0931209
0.0840334
0.0761862
0.0693088
0.063202
0.0577337
0.0527926
0.0482932
0.0441704
0.0403722
0.0368555
0.0335848
0.0305312
0.0276709
0.0249846
0.0224555
0.0200692
0.0178132
0.015677
0.0136519
0.0117306
0.00990679
0.00817484
0.00652941
0.00496527
0.00348012
0.00206893
0.000675746
0.0383387
0.0405962
0.0432493
0.0468713
0.0517919
0.0583351
0.0666744
0.0767346
0.0885133
0.101492
0.117959
0.132468
0.157959
0.174737
0.201362
0.201891
0.195512
0.17857
0.156108
0.133591
0.119718
0.106878
0.0968094
0.0877912
0.0799286
0.0729627
0.0667228
0.0610923
0.0559714
0.0512841
0.0469705
0.0429814
0.0392758
0.0358199
0.0325861
0.0295514
0.0266965
0.0240045
0.0214606
0.0190526
0.0167702
0.014605
0.0125498
0.0105981
0.00874419
0.00698221
0.00530666
0.00371501
0.00220201
0.000709331
0.046447
0.0491612
0.0521736
0.0559047
0.060711
0.0669227
0.0746964
0.084046
0.0949839
0.106926
0.121981
0.135298
0.157449
0.172417
0.192612
0.194222
0.18907
0.175761
0.155192
0.134882
0.121756
0.109554
0.0997871
0.0909297
0.083124
0.0761343
0.069818
0.0640753
0.0588192
0.0539829
0.049512
0.0453611
0.041492
0.0378737
0.0344801
0.0312891
0.0282816
0.0254406
0.0227522
0.0202043
0.0177873
0.0154929
0.013314
0.0112438
0.00927626
0.00740522
0.00562494
0.0039328
0.00232347
0.000736212
0.0539667
0.0570213
0.0602977
0.0641225
0.0688515
0.0747815
0.082067
0.0907502
0.100867
0.111808
0.125453
0.137532
0.156659
0.169689
0.184896
0.187018
0.182741
0.172251
0.153749
0.135473
0.123095
0.111578
0.102171
0.0935387
0.085844
0.0788802
0.0725332
0.06672
0.0613662
0.056414
0.0518145
0.0475271
0.0435175
0.0397574
0.0362223
0.032891
0.0297449
0.0267682
0.0239475
0.0212715
0.0187311
0.016318
0.014025
0.0118452
0.00977182
0.0077988
0.00592019
0.00413347
0.0024333
0.000756178
0.0609732
0.0642902
0.0677633
0.0716664
0.0763354
0.0820129
0.0888583
0.0969183
0.10624
0.116221
0.1285
0.139333
0.155691
0.166914
0.17823
0.180407
0.176646
0.168275
0.151849
0.135548
0.12394
0.113114
0.104086
0.0957116
0.0881621
0.0812602
0.0749178
0.0690673
0.0636462
0.0586048
0.0539009
0.049499
0.0453688
0.0414845
0.0378234
0.0343655
0.0310937
0.0279932
0.0250518
0.0222589
0.0196057
0.0170837
0.0146856
0.0124039
0.0102321
0.00816367
0.00619285
0.00431729
0.00253169
0.000769172
0.0675301
0.0710511
0.0746719
0.0786418
0.0832558
0.0887105
0.095152
0.102633
0.111204
0.120275
0.131264
0.1409
0.154708
0.164194
0.172519
0.174467
0.170885
0.164095
0.149655
0.135248
0.124422
0.114284
0.105638
0.0975367
0.0901514
0.0833354
0.0770231
0.07116
0.0656946
0.0605855
0.0557972
0.0512991
0.0470647
0.0430707
0.0392963
0.0357237
0.0323373
0.029124
0.0260726
0.023173
0.0204163
0.0177941
0.0152985
0.0129223
0.0106585
0.00850083
0.00644357
0.00448469
0.002619
0.000775247
0.0736913
0.0773655
0.0810991
0.0851272
0.0896867
0.0949449
0.101021
0.107966
0.115832
0.124051
0.13383
0.14233
0.153798
0.161612
0.167672
0.169251
0.165585
0.159914
0.147423
0.134741
0.124663
0.11519
0.106919
0.0990935
0.0918818
0.0851663
0.0789006
0.0730418
0.0675489
0.0623886
0.0575314
0.0529515
0.0486256
0.0445331
0.040656
0.0369786
0.0334877
0.0301714
0.0270193
0.0240217
0.0211695
0.0184542
0.0158679
0.0134031
0.0110532
0.00881182
0.00667343
0.0046364
0.00269563
0.000774522
0.0795067
0.0832902
0.0871103
0.0911847
0.0956892
0.100765
0.106511
0.11296
0.120166
0.12759
0.136239
0.143658
0.153014
0.159272
0.163638
0.16482
0.160908
0.155994
0.145323
0.134165
0.124787
0.115931
0.108015
0.100457
0.0934194
0.0868103
0.0805998
0.0747558
0.0692469
0.0640473
0.0591327
0.0544812
0.0500729
0.0458905
0.041919
0.0381455
0.0345586
0.0311476
0.0279026
0.0248139
0.0218724
0.0190697
0.016398
0.0138499
0.0114188
0.0090986
0.00688381
0.00477327
0.002762
0.000767119
0.0850224
0.0888792
0.0927664
0.0968677
0.101313
0.106213
0.111657
0.117648
0.124237
0.130924
0.138529
0.144929
0.152424
0.157289
0.160397
0.16124
0.156993
0.152595
0.143498
0.133635
0.124897
0.116595
0.109004
0.101697
0.0948257
0.0883213
0.0821679
0.0763436
0.0708257
0.065594
0.060629
0.0559123
0.051428
0.0471623
0.0431035
0.039241
0.035565
0.0320656
0.0287332
0.0255583
0.0225322
0.0196464
0.0168935
0.0142662
0.0117581
0.00936319
0.00707607
0.00489606
0.00281834
0.000753066
0.0902789
0.0941841
0.0981204
0.102229
0.106608
0.11134
0.116503
0.122075
0.128093
0.134103
0.140753
0.146211
0.152108
0.155769
0.157936
0.158524
0.15395
0.149914
0.142076
0.133257
0.125077
0.117259
0.109957
0.102877
0.0961565
0.0897484
0.0836491
0.0778449
0.0723201
0.0670592
0.0620467
0.0572684
0.0527124
0.0483686
0.044228
0.0402821
0.0365219
0.0329383
0.029522
0.0262642
0.0231563
0.0201905
0.0173593
0.0146559
0.012074
0.00960763
0.00725148
0.00500538
0.00286471
0.000732286
0.0953097
0.0992493
0.103222
0.107322
0.111628
0.116206
0.121107
0.126293
0.13179
0.137182
0.142967
0.147573
0.152136
0.154791
0.156226
0.156469
0.151995
0.148069
0.141148
0.133116
0.125399
0.117988
0.110934
0.104051
0.0974608
0.0911365
0.0850838
0.0792957
0.0737617
0.0684706
0.0634107
0.0585724
0.0539477
0.0495296
0.0453112
0.0412853
0.0374436
0.0337779
0.0302795
0.0269403
0.0237523
0.020708
0.0178004
0.0150229
0.0123693
0.00983387
0.00741127
0.00510182
0.00290111
0.000704634
0.100143
0.104114
0.108111
0.112194
0.116425
0.120861
0.125518
0.130352
0.135375
0.140208
0.14522
0.149072
0.152554
0.154398
0.155252
0.155109
0.151002
0.147046
0.140746
0.133274
0.125918
0.118835
0.111986
0.105266
0.0987821
0.0925257
0.0865085
0.0807284
0.0751792
0.0698536
0.0647447
0.0598467
0.0551549
0.0506646
0.0463704
0.0422657
0.0383434
0.0345959
0.0310157
0.0275953
0.0243274
0.0212051
0.0182218
0.0153711
0.0126471
0.010044
0.00755681
0.0051861
0.00292767
0.000669955
0.104805
0.108809
0.112818
0.116879
0.121039
0.125342
0.129777
0.134289
0.138886
0.14322
0.147551
0.150753
0.153381
0.154592
0.154985
0.1545
0.150756
0.146757
0.140859
0.133764
0.126674
0.119843
0.113154
0.106561
0.100159
0.0939519
0.0879556
0.0821719
0.0765986
0.0712328
0.0660717
0.0611129
0.056354
0.0517916
0.0474212
0.0432372
0.0392333
0.0354031
0.03174
0.0282374
0.0248889
0.0216881
0.0186286
0.0157047
0.0129105
0.0102407
0.00768995
0.00525937
0.00294483
0.000628155
0.10932
0.113355
0.117365
0.121403
0.125499
0.129679
0.133912
0.138139
0.142357
0.14625
0.149993
0.152647
0.154611
0.155337
0.155364
0.154618
0.151106
0.147104
0.141457
0.1346
0.127693
0.121045
0.114472
0.107971
0.101625
0.0954461
0.0894535
0.0836524
0.0780447
0.0726317
0.067414
0.0623915
0.0575632
0.0529265
0.0484776
0.0442119
0.0401241
0.0362091
0.0324611
0.0288746
0.0254438
0.022163
0.0190264
0.0160284
0.0131638
0.0104271
0.00781326
0.00532338
0.00295341
0.000579227
0.113711
0.117772
0.121778
0.125796
0.129835
0.133902
0.137957
0.141935
0.14582
0.149331
0.152573
0.154774
0.156227
0.15658
0.156309
0.155358
0.151985
0.148006
0.142501
0.135782
0.128989
0.122465
0.115969
0.109526
0.103208
0.0970357
0.0910281
0.0851947
0.0795417
0.0740734
0.068793
0.0637017
0.0587993
0.0540837
0.0495521
0.0452009
0.0410259
0.0370229
0.0331874
0.0295144
0.0259991
0.0226362
0.0194208
0.0163476
0.0134115
0.0106074
0.00792995
0.00538036
0.00295459
0.000523229
0.118003
0.122083
0.12609
0.13009
0.134081
0.138047
0.141947
0.14571
0.149307
0.15249
0.155312
0.157144
0.158201
0.158273
0.157743
0.156533
0.153438
0.1494
0.143956
0.137307
0.130571
0.124122
0.117666
0.11125
0.104934
0.0987449
0.0927037
0.0868232
0.0811129
0.0755798
0.0702283
0.0650606
0.0600769
0.0552761
0.050656
0.0462142
0.0419476
0.0378528
0.0339262
0.0301638
0.0265612
0.0231142
0.019818
0.0166679
0.013659
0.0107861
0.0080436
0.00543284
0.00294968
0.000460195
0.122219
0.126316
0.130332
0.134319
0.138266
0.142147
0.145916
0.149496
0.152847
0.155754
0.15823
0.159763
0.160517
0.160369
0.15963
0.158234
0.15526
0.151208
0.145791
0.139167
0.132446
0.12603
0.119583
0.113163
0.106824
0.100596
0.0945034
0.0885607
0.0827805
0.0771711
0.071738
0.0664839
0.0614099
0.0565156
0.0517999
0.0472613
0.0428976
0.0387064
0.0346847
0.0308294
0.0271368
0.0236031
0.020224
0.016995
0.0139113
0.0109673
0.00815751
0.00548302
0.00293972
0.000389969
0.126374
0.130496
0.134529
0.138508
0.142421
0.146232
0.149891
0.153319
0.156467
0.159145
0.16134
0.162636
0.163156
0.162835
0.161926
0.160379
0.157452
0.153393
0.147983
0.141354
0.134617
0.128199
0.121733
0.115282
0.108898
0.102611
0.0964492
0.0904291
0.0845649
0.0788659
0.0733385
0.0679864
0.0628113
0.057814
0.0529943
0.0483516
0.0438844
0.0395913
0.0354699
0.0315179
0.0277321
0.024109
0.0206445
0.017334
0.0141725
0.0111544
0.00827404
0.00553224
0.00292507
0.000312014
0.130484
0.134642
0.138699
0.142678
0.146567
0.150326
0.153898
0.157204
0.160188
0.162683
0.164654
0.165764
0.166104
0.165646
0.164593
0.162917
0.160004
0.155937
0.150516
0.143864
0.137087
0.13064
0.124129
0.117624
0.111173
0.104809
0.0985612
0.0924479
0.0864843
0.080681
0.0750454
0.0695822
0.0642942
0.0591832
0.05425
0.0494946
0.0449168
0.0405155
0.0362895
0.0322364
0.0283536
0.0246376
0.0210841
0.0176885
0.0144455
0.0113494
0.00839419
0.00558076
0.00290534
0.000225415
0.134564
0.138767
0.142856
0.146847
0.150726
0.154449
0.157958
0.161171
0.164029
0.166381
0.168178
0.169146
0.169349
0.16878
0.167607
0.165819
0.162904
0.158825
0.153384
0.146692
0.139855
0.133357
0.126781
0.120202
0.113666
0.107208
0.100857
0.0946343
0.0885554
0.0826324
0.0768739
0.0712859
0.0658723
0.0606359
0.0555785
0.0507013
0.0460047
0.0414885
0.0371517
0.0329923
0.0290076
0.0251939
0.0215468
0.0180613
0.0147319
0.0115527
0.00851772
0.00562784
0.00287957
0.000129029
0.138626
0.142885
0.147016
0.151031
0.154914
0.15862
0.162088
0.165237
0.168003
0.170249
0.171917
0.172781
0.172882
0.172225
0.170951
0.16907
0.166143
0.162048
0.156578
0.149837
0.142926
0.136357
0.129699
0.12303
0.116392
0.109823
0.103353
0.0970043
0.090794
0.0847358
0.0788395
0.0731124
0.0675597
0.0621856
0.0569929
0.0519839
0.0471597
0.0425207
0.038066
0.0337937
0.0297006
0.0257829
0.0220358
0.018454
0.0150321
0.011764
0.00864372
0.00567234
0.00284658
2.15843e-05
0.142684
0.147009
0.151194
0.155244
0.159146
0.162853
0.166303
0.169415
0.17212
0.174295
0.175874
0.176668
0.176698
0.175974
0.174619
0.172659
0.169716
0.165598
0.160095
0.153297
0.1463
0.139647
0.132893
0.126117
0.119362
0.112668
0.106063
0.0995725
0.0932155
0.0870068
0.0809578
0.0750772
0.0693719
0.0638473
0.0585076
0.0533562
0.0483948
0.0436239
0.0390427
0.034649
0.0304393
0.0264093
0.0225541
0.0188684
0.0153467
0.011983
0.00877153
0.00571328
0.0028052
-9.83271e-05
0.146749
0.151152
0.1554
0.159498
0.163433
0.16716
0.170614
0.173715
0.17639
0.178526
0.180052
0.180808
0.180794
0.180024
0.178606
0.17658
0.173616
0.169474
0.163935
0.157074
0.149982
0.143233
0.13637
0.129475
0.122589
0.115754
0.109
0.102353
0.0958347
0.0894608
0.0832445
0.0771963
0.0713247
0.0656369
0.0601384
0.0548333
0.049724
0.0448108
0.0400928
0.0355673
0.0312306
0.0270784
0.0231056
0.0193071
0.0156774
0.0122108
0.00890152
0.00575039
0.00275448
-0.000232276
0.150831
0.155322
0.159644
0.163804
0.167789
0.171554
0.175034
0.178148
0.180822
0.182951
0.184459
0.185204
0.185172
0.184374
0.18291
0.18083
0.177844
0.173677
0.168099
0.16117
0.153977
0.147124
0.140141
0.133113
0.126083
0.119093
0.112176
0.10536
0.0986658
0.0921127
0.0857151
0.0794857
0.0734348
0.0675713
0.0619019
0.0564313
0.0511621
0.0460946
0.0412275
0.036558
0.0320825
0.0277966
0.0236956
0.0197743
0.0160278
0.0124501
0.00903538
0.00578433
0.0026939
-0.000381928
0.154937
0.159526
0.163935
0.168171
0.172222
0.176045
0.179572
0.182725
0.185427
0.187578
0.189099
0.18986
0.189833
0.189027
0.187533
0.185411
0.182402
0.178211
0.172594
0.165595
0.158295
0.151327
0.144213
0.13704
0.129854
0.122697
0.115604
0.108604
0.101722
0.0949765
0.0883848
0.0819616
0.0757191
0.0696677
0.0638151
0.0581664
0.0527241
0.0474886
0.0424586
0.0376315
0.033004
0.028572
0.024331
0.0202764
0.0164029
0.0127048
0.0091758
0.00581632
0.00262322
-0.000549001
0.159072
0.163772
0.168281
0.172608
0.176743
0.180642
0.18424
0.187456
0.190214
0.192416
0.193978
0.194779
0.194781
0.193986
0.192479
0.190327
0.187299
0.183084
0.177428
0.170356
0.162945
0.155853
0.148597
0.141267
0.133911
0.126575
0.119294
0.112099
0.105015
0.0980655
0.0912681
0.0846397
0.0781943
0.0719433
0.0658949
0.0600545
0.0544248
0.0490066
0.0437988
0.0387995
0.0340059
0.0294145
0.0250212
0.0208212
0.0168094
0.0129798
0.00932596
0.00584787
0.00254235
-0.000735293
0.163241
0.168063
0.172688
0.177124
0.181361
0.185356
0.189046
0.192352
0.195193
0.197472
0.199102
0.199969
0.200024
0.19926
0.197757
0.195587
0.192544
0.188308
0.182614
0.175468
0.167938
0.160712
0.153303
0.145805
0.138268
0.130739
0.123257
0.115854
0.108558
0.101393
0.0943789
0.087535
0.0808759
0.0744136
0.0681566
0.0621106
0.0562788
0.0506626
0.0452618
0.0400754
0.0351012
0.0303363
0.0257769
0.0214182
0.0172549
0.013281
0.00948975
0.00588094
0.00245138
-0.000942666
0.167445
0.172405
0.177161
0.181722
0.18608
0.190193
0.193999
0.19742
0.200371
0.202755
0.204481
0.20544
0.205571
0.20486
0.203379
0.201205
0.198153
0.193899
0.188167
0.180944
0.173289
0.16592
0.158347
0.150667
0.142935
0.135201
0.127505
0.119882
0.112362
0.104971
0.0977306
0.0906611
0.0837777
0.0770923
0.0706138
0.0643483
0.0582998
0.0524706
0.0468619
0.0414735
0.036304
0.0313508
0.0266103
0.0220778
0.017748
0.0136148
0.00967164
0.00591794
0.00235058
-0.00117316
0.171685
0.176799
0.181703
0.186408
0.190906
0.195161
0.199109
0.202671
0.205759
0.208276
0.210127
0.211205
0.211437
0.210801
0.20936
0.207195
0.204141
0.199874
0.194104
0.1868
0.179013
0.171493
0.163744
0.15587
0.14793
0.139976
0.132053
0.124197
0.116441
0.108813
0.101336
0.0940304
0.0869112
0.0799905
0.0732775
0.066779
0.0605
0.054444
0.0486133
0.0430084
0.0376286
0.0324714
0.0275336
0.0228107
0.0182977
0.0139886
0.00987695
0.00596199
0.00224067
-0.00142874
0.175961
0.181245
0.186315
0.191184
0.195847
0.200268
0.204385
0.208116
0.21137
0.214049
0.216056
0.21728
0.217638
0.217097
0.215715
0.213573
0.210525
0.206249
0.200443
0.193055
0.18513
0.177449
0.169513
0.161432
0.153269
0.145082
0.136917
0.128815
0.120811
0.112934
0.105208
0.0976535
0.0902857
0.0831168
0.0761563
0.0694119
0.0628898
0.0565942
0.0505282
0.0446926
0.0390872
0.0337099
0.0285578
0.023627
0.0189127
0.0144092
0.0101103
0.00601513
0.0021208
-0.00171287
0.18027
0.185744
0.191
0.196056
0.200909
0.205524
0.209838
0.213767
0.217217
0.220089
0.222282
0.22368
0.22419
0.223766
0.222461
0.220356
0.217323
0.213042
0.207202
0.199728
0.191661
0.183811
0.175677
0.167376
0.158978
0.150542
0.142121
0.133758
0.125491
0.11735
0.10936
0.101542
0.0939104
0.086479
0.0792577
0.072255
0.0654775
0.0589299
0.0526152
0.0465348
0.0406884
0.0350746
0.0296909
0.0245338
0.019599
0.0148812
0.0103744
0.00607772
0.00198875
-0.00203018
0.18461
0.190294
0.19576
0.201029
0.2061
0.210937
0.215478
0.219634
0.223313
0.226411
0.22882
0.23042
0.231106
0.230821
0.229611
0.22756
0.224552
0.220272
0.214399
0.206839
0.198626
0.190601
0.18226
0.173728
0.16508
0.156382
0.14769
0.13905
0.130502
0.122079
0.113808
0.105707
0.0977959
0.0900864
0.08259
0.0753156
0.0682697
0.0614569
0.05488
0.0485402
0.0424374
0.0365707
0.0309377
0.0255357
0.0203605
0.0154075
0.0106709
0.00615036
0.00184414
-0.00238357
0.18898
0.194895
0.200597
0.206107
0.211424
0.216514
0.221311
0.225729
0.229668
0.233024
0.235682
0.237513
0.2384
0.238277
0.237182
0.2352
0.232229
0.227957
0.222056
0.214411
0.20605
0.197844
0.189288
0.180515
0.171606
0.162631
0.153652
0.144717
0.13587
0.127145
0.11857
0.110168
0.101957
0.0939514
0.0861637
0.0786022
0.0712731
0.0641805
0.0573266
0.0507123
0.0443377
0.0382014
0.0323016
0.0266353
0.0211991
0.0159887
0.0109995
0.00623197
0.00168578
-0.0027757
0.193375
0.199547
0.205511
0.211291
0.216884
0.222257
0.227343
0.232055
0.23629
0.239938
0.242876
0.244968
0.246083
0.246146
0.245187
0.243291
0.240369
0.236115
0.230191
0.222463
0.213954
0.205564
0.196788
0.187765
0.178583
0.169318
0.160035
0.150787
0.141619
0.13257
0.123669
0.114943
0.106412
0.0980909
0.0899928
0.0821262
0.0744967
0.0671077
0.059961
0.0530568
0.0463945
0.0399722
0.0337874
0.0278371
0.022118
0.0166268
0.0113601
0.00632021
0.00150895
-0.00321267
0.197792
0.204245
0.210501
0.216579
0.222478
0.228166
0.233576
0.238617
0.243183
0.247157
0.250409
0.252793
0.254166
0.25444
0.253641
0.25185
0.24899
0.244764
0.238824
0.231018
0.222361
0.213787
0.204785
0.195504
0.186038
0.17647
0.166866
0.157285
0.147776
0.13838
0.129132
0.120059
0.111184
0.102525
0.0940953
0.0859027
0.0779533
0.0702502
0.0627945
0.0555854
0.0486208
0.0418974
0.0354112
0.0291582
0.0231349
0.0173384
0.0117665
0.00642342
0.00131396
-0.00370211
0.202226
0.208988
0.215561
0.221966
0.228204
0.23424
0.240009
0.245415
0.250349
0.254685
0.258286
0.260996
0.262658
0.263172
0.262555
0.260889
0.258109
0.253922
0.247975
0.240097
0.231296
0.222534
0.213302
0.203755
0.193996
0.18411
0.17417
0.164237
0.154366
0.144602
0.134983
0.12554
0.116299
0.107278
0.0984916
0.0899504
0.0816607
0.0736258
0.0658462
0.0583198
0.0510425
0.0440087
0.0372119
0.0306454
0.0243032
0.0181803
0.0122734
0.0065868
0.00112733
-0.00424476
0.206674
0.213768
0.220686
0.227449
0.234056
0.240475
0.246638
0.252447
0.257786
0.262522
0.266511
0.269583
0.271568
0.272352
0.271944
0.270427
0.267743
0.26361
0.257666
0.249724
0.24078
0.23183
0.222363
0.212542
0.202476
0.192258
0.181965
0.171663
0.161411
0.151258
0.141247
0.13141
0.121777
0.112369
0.103203
0.09429
0.0856398
0.0772565
0.0691407
0.06129
0.053699
0.0463602
0.039264
0.0323995
0.0257543
0.0193147
0.0130668
0.00700277
0.00111213
-0.00477456
0.21113
0.21858
0.22587
0.233019
0.240028
0.246865
0.253459
0.259709
0.265492
0.270669
0.275085
0.278559
0.280905
0.281992
0.281824
0.28048
0.277915
0.273851
0.267924
0.259924
0.250838
0.241698
0.231988
0.221882
0.211497
0.200932
0.190269
0.17958
0.168928
0.158367
0.147941
0.137688
0.127638
0.117818
0.108246
0.0989395
0.0899087
0.0811606
0.0726981
0.0645207
0.0566249
0.0490043
0.0416494
0.0345468
0.0276774
0.0210138
0.0145173
0.00814531
0.00183496
-0.00482802
0.215586
0.223416
0.231104
0.238669
0.246113
0.253402
0.260464
0.267194
0.273462
0.279124
0.284012
0.287931
0.290679
0.292108
0.292212
0.291071
0.288648
0.284673
0.278775
0.270724
0.261498
0.252161
0.2422
0.231797
0.221078
0.21015
0.199099
0.188005
0.176933
0.165941
0.155078
0.144384
0.133893
0.123636
0.113635
0.103911
0.0944774
0.0853453
0.076522
0.0680124
0.0598203
0.0519486
0.0444008
0.0371824
0.0303026
0.0237779
0.0176355
0.0119264
0.00676801
0.00219239
0.220031
0.228264
0.236377
0.244387
0.252298
0.260075
0.267643
0.274895
0.281694
0.287888
0.293297
0.297708
0.300904
0.302717
0.303133
0.302228
0.299974
0.296108
0.290251
0.282156
0.272788
0.263249
0.253025
0.24231
0.231241
0.21993
0.208472
0.19695
0.185435
0.17399
0.162665
0.151505
0.140549
0.12983
0.119376
0.109208
0.0993459
0.0898027
0.0805903
0.0717185
0.0631957
0.0550295
0.0472261
0.0397908
0.0327275
0.0260373
0.0197159
0.0137481
0.00811762
0.00273863
0.224454
0.233113
0.241675
0.25016
0.258571
0.266872
0.274988
0.282806
0.290186
0.296963
0.302946
0.307904
0.311598
0.313843
0.314613
0.313981
0.311925
0.30819
0.30239
0.294256
0.284744
0.274993
0.264494
0.253451
0.242011
0.230296
0.218407
0.206433
0.194449
0.182522
0.170709
0.159057
0.14761
0.136404
0.12547
0.114833
0.104512
0.0945259
0.0848872
0.0756078
0.0666962
0.0581583
0.0499962
0.0422089
0.0347913
0.0277351
0.0210283
0.0146564
0.00861252
0.00285501
0.228837
0.237944
0.246983
0.255972
0.264917
0.273781
0.282489
0.290923
0.298937
0.306356
0.312972
0.318535
0.322782
0.325514
0.326684
0.326364
0.324539
0.320959
0.315231
0.307065
0.297405
0.287434
0.276645
0.265255
0.253423
0.241279
0.228932
0.216476
0.203993
0.191555
0.179223
0.167051
0.155085
0.143366
0.131926
0.120792
0.109987
0.0995293
0.0894346
0.079714
0.0703751
0.0614219
0.0528545
0.0446698
0.0368619
0.0294224
0.0223397
0.0156007
0.00919586
0.00306808
0.233161
0.24274
0.252281
0.261806
0.271321
0.280792
0.29014
0.299245
0.307952
0.316074
0.323386
0.32962
0.334484
0.337758
0.33938
0.339416
0.337857
0.334457
0.328817
0.320626
0.310816
0.300616
0.289521
0.277764
0.265515
0.252915
0.240079
0.22711
0.214096
0.201113
0.188231
0.175507
0.162993
0.150731
0.138758
0.127103
0.115791
0.104843
0.0942729
0.0840926
0.0743081
0.0649212
0.0559302
0.0473299
0.0391122
0.0312658
0.0237766
0.0166281
0.00981088
0.00327813
0.237405
0.247479
0.25755
0.267645
0.277771
0.287895
0.297937
0.307772
0.317236
0.326128
0.334207
0.341179
0.346727
0.350606
0.352734
0.353172
0.351916
0.348726
0.343194
0.334987
0.325026
0.314588
0.303172
0.291026
0.278334
0.265248
0.251892
0.238376
0.224796
0.211236
0.19777
0.184462
0.171368
0.158533
0.145999
0.133797
0.121955
0.110495
0.0994304
0.0887711
0.078521
0.068679
0.0592401
0.0501959
0.0415351
0.0332444
0.025309
0.0177137
0.0104506
0.00348617
0.241543
0.252137
0.26277
0.273473
0.284255
0.295084
0.305878
0.316506
0.326795
0.33653
0.345448
0.353232
0.359536
0.364084
0.366778
0.36767
0.366759
0.36381
0.358408
0.350197
0.340086
0.329402
0.317648
0.305091
0.291929
0.278325
0.264416
0.250319
0.23614
0.221969
0.207887
0.193963
0.180256
0.166818
0.153692
0.140915
0.128515
0.116514
0.104925
0.0937572
0.0830107
0.072682
0.0627631
0.0532423
0.0441061
0.0353401
0.0269304
0.0188643
0.0111358
0.00371654
0.24555
0.256691
0.26792
0.279272
0.290759
0.302349
0.313957
0.325446
0.336632
0.347286
0.357122
0.365796
0.37293
0.378218
0.381541
0.382942
0.382423
0.379753
0.374508
0.366309
0.356049
0.345111
0.333004
0.320011
0.30635
0.292197
0.277701
0.262991
0.24818
0.233366
0.218635
0.204062
0.189712
0.175638
0.16189
0.148503
0.135509
0.122929
0.110775
0.0990531
0.0877641
0.0769019
0.0664569
0.056416
0.0467654
0.0374915
0.0285827
0.0200293
0.0118306
0.00395742
0.249396
0.261115
0.272977
0.285024
0.297269
0.309679
0.322166
0.334587
0.346747
0.358398
0.369235
0.378881
0.386924
0.393029
0.39705
0.399023
0.398949
0.396601
0.391544
0.383376
0.372971
0.361771
0.349292
0.335839
0.321648
0.306912
0.291795
0.276437
0.26096
0.24547
0.23006
0.214808
0.199783
0.185044
0.170639
0.156606
0.142975
0.129767
0.116994
0.104661
0.092768
0.0813101
0.0702785
0.0596629
0.0494524
0.0396376
0.0302101
0.0211637
0.0125021
0.00419073
0.253053
0.265381
0.277918
0.290708
0.303766
0.317058
0.330492
0.343918
0.357129
0.369862
0.381786
0.392492
0.401533
0.408536
0.413334
0.415948
0.416379
0.414402
0.40957
0.401455
0.39091
0.37944
0.366572
0.352631
0.337877
0.322523
0.306747
0.290702
0.274521
0.258319
0.242194
0.22623
0.210499
0.19506
0.179963
0.165243
0.15093
0.137042
0.123592
0.110586
0.0980243
0.0859055
0.0742258
0.0629811
0.0521675
0.0417812
0.0318183
0.0222753
0.0131575
0.00441743
0.25649
0.269461
0.282714
0.296297
0.310224
0.32446
0.338911
0.353418
0.367763
0.381666
0.394768
0.40663
0.416764
0.42476
0.430422
0.433755
0.43476
0.433209
0.428644
0.420607
0.409929
0.398181
0.384904
0.370447
0.355094
0.339081
0.322603
0.305827
0.288899
0.271941
0.25506
0.238343
0.221866
0.205688
0.189855
0.174405
0.159361
0.144744
0.130564
0.11683
0.103546
0.0907146
0.0783403
0.0664267
0.0549776
0.0439951
0.0334789
0.023426
0.0138408
0.00466036
0.259676
0.273323
0.287334
0.301758
0.316609
0.331853
0.34739
0.363056
0.378622
0.393788
0.408172
0.421296
0.43263
0.441722
0.448346
0.452488
0.454144
0.453082
0.448831
0.440901
0.430096
0.418063
0.404357
0.389352
0.373362
0.356645
0.339416
0.321859
0.30413
0.286364
0.268674
0.251153
0.233877
0.216906
0.200287
0.184054
0.168231
0.152836
0.137883
0.123382
0.109341
0.0957722
0.0826838
0.0700862
0.0579876
0.046393
0.0353013
0.0247059
0.0146072
0.00493869
0.262577
0.276931
0.291739
0.307049
0.322878
0.33919
0.355884
0.372791
0.38967
0.406204
0.421982
0.436486
0.449141
0.459449
0.467146
0.472197
0.47459
0.474088
0.470202
0.46241
0.451487
0.439161
0.425004
0.409417
0.392747
0.375277
0.357244
0.338847
0.320258
0.301622
0.283058
0.264667
0.246526
0.228696
0.211226
0.194149
0.177492
0.161274
0.145511
0.130217
0.115407
0.101096
0.0872962
0.0740182
0.0612688
0.0490488
0.0373515
0.0261625
0.0154767
0.00524257
0.265158
0.280244
0.295882
0.312119
0.328975
0.346415
0.364338
0.382571
0.400865
0.418882
0.436181
0.452201
0.466314
0.477971
0.486865
0.492938
0.496164
0.4963
0.492835
0.485215
0.474182
0.461554
0.446919
0.430715
0.413318
0.395041
0.376143
0.356844
0.337328