/*--------------------------------*- C++ -*----------------------------------*\
  =========                 |
  \\      /  F ield         | OpenFOAM: The Open Source CFD Toolbox
   \\    /   O peration     | Website:  https://openfoam.org
    \\  /    A nd           | Version:  9
     \\/     M anipulation  |
\*---------------------------------------------------------------------------*/
FoamFile
{
    format      ascii;
    class       surfaceScalarField;
    location    "0.11";
    object      phi;
}
// * * * * * * * * * * * * * * * * * * * * * * * * * * * * * * * * * * * * * //

dimensions      [0 3 -1 0 0 0 0];

internalField   nonuniform List<scalar> 
9850
(
-4.75119e-07
9.77734e-06
-4.56146e-07
8.26269e-06
-5.77483e-07
6.62765e-06
-6.42013e-07
7.14035e-06
-6.02525e-07
8.83845e-06
-5.72413e-07
9.86327e-06
-5.60074e-07
1.02829e-05
-5.55887e-07
1.04868e-05
-5.54424e-07
1.06678e-05
-5.52783e-07
1.09107e-05
-5.4803e-07
1.12818e-05
-5.36852e-07
1.1869e-05
-5.11503e-07
1.28003e-05
-4.47162e-07
1.38879e-05
-1.94966e-07
1.18297e-05
-6.58104e-07
2.2274e-07
-7.09857e-07
7.68346e-06
-5.98767e-07
1.37565e-05
-5.68361e-07
1.3274e-05
-5.5534e-07
1.23469e-05
-5.50534e-07
9.65924e-06
-5.48893e-07
8.99756e-06
-5.48543e-07
8.46992e-06
-5.48617e-07
8.02727e-06
-5.48796e-07
7.63958e-06
-5.48947e-07
7.28855e-06
-5.49047e-07
6.96356e-06
-5.49099e-07
6.65835e-06
-5.49115e-07
6.36916e-06
-5.49104e-07
6.09353e-06
-5.49076e-07
5.8298e-06
-5.49038e-07
5.57682e-06
-5.48996e-07
5.33379e-06
-5.48953e-07
5.10012e-06
-5.48913e-07
4.87543e-06
-5.48876e-07
4.6594e-06
-5.48844e-07
4.4518e-06
-5.48816e-07
4.2524e-06
-5.48793e-07
4.06101e-06
-5.48773e-07
3.87743e-06
-5.48757e-07
3.70146e-06
-5.48744e-07
3.5329e-06
-5.48733e-07
3.37152e-06
-5.48725e-07
3.2171e-06
-5.48718e-07
3.06942e-06
-5.48713e-07
2.92823e-06
-5.48709e-07
2.7933e-06
-5.48706e-07
2.66439e-06
-5.48702e-07
2.54125e-06
2.42372e-06
-3.95335e-07
9.71035e-06
-3.96494e-07
8.26385e-06
-5.91927e-07
6.82308e-06
-7.14163e-07
7.26259e-06
-6.73752e-07
8.79804e-06
-6.18204e-07
9.80772e-06
-5.87223e-07
1.02519e-05
-5.73192e-07
1.04728e-05
-5.66035e-07
1.06606e-05
-5.5831e-07
1.0903e-05
-5.4289e-07
1.12663e-05
-5.13148e-07
1.18393e-05
-4.46739e-07
1.27339e-05
-3.09157e-07
1.37503e-05
5.26621e-08
1.14679e-05
-9.28344e-07
1.20375e-06
-9.12862e-07
7.66798e-06
-6.97874e-07
1.35415e-05
-6.08783e-07
1.31849e-05
-5.72535e-07
1.23106e-05
-5.57586e-07
9.64429e-06
-5.51086e-07
8.99106e-06
-5.48751e-07
8.46758e-06
-5.48105e-07
8.02663e-06
-5.48062e-07
7.63954e-06
-5.48205e-07
7.2887e-06
-5.48355e-07
6.96371e-06
-5.48458e-07
6.65846e-06
-5.48503e-07
6.36921e-06
-5.48499e-07
6.09353e-06
-5.48456e-07
5.82976e-06
-5.48388e-07
5.57676e-06
-5.48306e-07
5.3337e-06
-5.4822e-07
5.10004e-06
-5.48136e-07
4.87535e-06
-5.48058e-07
4.65933e-06
-5.47988e-07
4.45173e-06
-5.47927e-07
4.25234e-06
-5.47873e-07
4.06096e-06
-5.47828e-07
3.87739e-06
-5.4779e-07
3.70142e-06
-5.47759e-07
3.53287e-06
-5.47733e-07
3.37149e-06
-5.47713e-07
3.21708e-06
-5.47697e-07
3.0694e-06
-5.47684e-07
2.92822e-06
-5.47673e-07
2.79329e-06
-5.47664e-07
2.66438e-06
-5.47651e-07
2.54124e-06
2.42371e-06
-3.58713e-07
9.64193e-06
-3.80068e-07
8.28521e-06
-5.94875e-07
7.03789e-06
-7.39592e-07
7.4073e-06
-7.11798e-07
8.77025e-06
-6.51813e-07
9.74773e-06
-6.12203e-07
1.02123e-05
-5.90785e-07
1.04514e-05
-5.77661e-07
1.06475e-05
-5.63621e-07
1.08889e-05
-5.38509e-07
1.12412e-05
-4.95913e-07
1.17967e-05
-4.12163e-07
1.26502e-05
-2.13943e-07
1.35521e-05
1.21126e-07
1.11328e-05
-9.73563e-07
2.29843e-06
-1.01846e-06
7.71288e-06
-7.47493e-07
1.32705e-05
-6.40134e-07
1.30776e-05
-5.88367e-07
1.22589e-05
-5.65026e-07
9.62095e-06
-5.53936e-07
8.97997e-06
-5.4927e-07
8.46291e-06
-5.47513e-07
8.02487e-06
-5.46965e-07
7.63899e-06
-5.469e-07
7.28863e-06
-5.4698e-07
6.96379e-06
-5.47069e-07
6.65855e-06
-5.47119e-07
6.36926e-06
-5.47119e-07
6.09353e-06
-5.47075e-07
5.82972e-06
-5.46999e-07
5.57668e-06
-5.46905e-07
5.33361e-06
-5.46803e-07
5.09994e-06
-5.46701e-07
4.87525e-06
-5.46604e-07
4.65923e-06
-5.46515e-07
4.45164e-06
-5.46436e-07
4.25226e-06
-5.46367e-07
4.06089e-06
-5.46309e-07
3.87733e-06
-5.46259e-07
3.70138e-06
-5.46219e-07
3.53283e-06
-5.46186e-07
3.37146e-06
-5.46159e-07
3.21706e-06
-5.46138e-07
3.06938e-06
-5.4612e-07
2.9282e-06
-5.46105e-07
2.79328e-06
-5.4609e-07
2.66436e-06
-5.46072e-07
2.54122e-06
2.42369e-06
-3.43272e-07
9.5794e-06
-3.808e-07
8.32273e-06
-5.93539e-07
7.25063e-06
-7.45498e-07
7.55926e-06
-7.32483e-07
8.75723e-06
-6.75078e-07
9.69033e-06
-6.32334e-07
1.01696e-05
-6.06609e-07
1.04256e-05
-5.89178e-07
1.06301e-05
-5.70752e-07
1.08705e-05
-5.40045e-07
1.12105e-05
-4.91279e-07
1.17479e-05
-4.04872e-07
1.25638e-05
-1.84918e-07
1.33321e-05
9.60462e-08
1.08518e-05
-9.2033e-07
3.31481e-06
-1.02881e-06
7.82135e-06
-7.63131e-07
1.30048e-05
-6.53397e-07
1.29678e-05
-5.96497e-07
1.2202e-05
-5.69121e-07
9.59357e-06
-5.55351e-07
8.9662e-06
-5.49061e-07
8.45662e-06
-5.46358e-07
8.02217e-06
-5.45336e-07
7.63797e-06
-5.45034e-07
7.28833e-06
-5.45009e-07
6.96376e-06
-5.45061e-07
6.6586e-06
-5.45104e-07
6.3693e-06
-5.45109e-07
6.09353e-06
-5.45071e-07
5.82968e-06
-5.45e-07
5.57661e-06
-5.44907e-07
5.33352e-06
-5.44804e-07
5.09983e-06
-5.44698e-07
4.87514e-06
-5.44596e-07
4.65913e-06
-5.44501e-07
4.45155e-06
-5.44416e-07
4.25218e-06
-5.44342e-07
4.06082e-06
-5.44279e-07
3.87727e-06
-5.44225e-07
3.70132e-06
-5.4418e-07
3.53278e-06
-5.44144e-07
3.37142e-06
-5.44114e-07
3.21703e-06
-5.4409e-07
3.06936e-06
-5.4407e-07
2.92818e-06
-5.44052e-07
2.79326e-06
-5.44035e-07
2.66435e-06
-5.44018e-07
2.5412e-06
2.42368e-06
-3.42283e-07
9.52768e-06
-3.92139e-07
8.37259e-06
-5.90563e-07
7.44905e-06
-7.39517e-07
7.70822e-06
-7.4172e-07
8.75943e-06
-6.91511e-07
9.64012e-06
-6.48945e-07
1.0127e-05
-6.21138e-07
1.03978e-05
-6.01161e-07
1.06101e-05
-5.8057e-07
1.08499e-05
-5.49472e-07
1.11794e-05
-4.98609e-07
1.1697e-05
-4.15475e-07
1.24806e-05
-2.01384e-07
1.3118e-05
2.17253e-08
1.06287e-05
-8.48357e-07
4.18489e-06
-9.95499e-07
7.96849e-06
-7.60275e-07
1.27696e-05
-6.52465e-07
1.286e-05
-5.96203e-07
1.21457e-05
-5.68474e-07
9.56585e-06
-5.54074e-07
8.9518e-06
-5.47136e-07
8.44969e-06
-5.43993e-07
8.01902e-06
-5.42715e-07
7.63669e-06
-5.42289e-07
7.2879e-06
-5.42221e-07
6.9637e-06
-5.42272e-07
6.65865e-06
-5.42334e-07
6.36936e-06
-5.42366e-07
6.09356e-06
-5.42356e-07
5.82967e-06
-5.4231e-07
5.57656e-06
-5.42239e-07
5.33345e-06
-5.42152e-07
5.09975e-06
-5.42058e-07
4.87505e-06
-5.41966e-07
4.65904e-06
-5.41878e-07
4.45146e-06
-5.41799e-07
4.2521e-06
-5.41728e-07
4.06075e-06
-5.41667e-07
3.8772e-06
-5.41615e-07
3.70127e-06
-5.41572e-07
3.53274e-06
-5.41536e-07
3.37139e-06
-5.41506e-07
3.217e-06
-5.41482e-07
3.06934e-06
-5.41461e-07
2.92816e-06
-5.41443e-07
2.79324e-06
-5.41425e-07
2.66433e-06
-5.41409e-07
2.54119e-06
2.42367e-06
-3.50362e-07
9.48823e-06
-4.07805e-07
8.43003e-06
-5.87938e-07
7.62919e-06
-7.28583e-07
7.84886e-06
-7.43254e-07
8.77411e-06
-7.02577e-07
9.59944e-06
-6.62814e-07
1.00872e-05
-6.34825e-07
1.03698e-05
-6.13864e-07
1.05891e-05
-5.92506e-07
1.08286e-05
-5.61957e-07
1.11489e-05
-5.13714e-07
1.16488e-05
-4.34795e-07
1.24017e-05
-2.36102e-07
1.29194e-05
-5.99756e-08
1.04526e-05
-7.90106e-07
4.91502e-06
-9.52427e-07
8.13081e-06
-7.47428e-07
1.25646e-05
-6.42869e-07
1.27555e-05
-5.89649e-07
1.20925e-05
-5.63542e-07
9.53974e-06
-5.49881e-07
8.93814e-06
-5.43103e-07
8.44291e-06
-5.40019e-07
8.01594e-06
-5.38789e-07
7.63546e-06
-5.38421e-07
7.28754e-06
-5.38422e-07
6.9637e-06
-5.38549e-07
6.65878e-06
-5.38686e-07
6.3695e-06
-5.38787e-07
6.09367e-06
-5.3884e-07
5.82972e-06
-5.38849e-07
5.57657e-06
-5.38824e-07
5.33342e-06
-5.38775e-07
5.0997e-06
-5.38714e-07
4.87499e-06
-5.38647e-07
4.65897e-06
-5.3858e-07
4.45139e-06
-5.38518e-07
4.25203e-06
-5.38461e-07
4.06069e-06
-5.3841e-07
3.87715e-06
-5.38367e-07
3.70123e-06
-5.3833e-07
3.5327e-06
-5.383e-07
3.37136e-06
-5.38274e-07
3.21697e-06
-5.38253e-07
3.06931e-06
-5.38234e-07
2.92814e-06
-5.38216e-07
2.79322e-06
-5.38199e-07
2.66431e-06
-5.38185e-07
2.54117e-06
2.42366e-06
-3.62913e-07
9.46e-06
-4.24068e-07
8.49119e-06
-5.86392e-07
7.79151e-06
-7.17077e-07
7.97955e-06
-7.40742e-07
8.79777e-06
-7.09714e-07
9.56842e-06
-6.74343e-07
1.00519e-05
-6.4771e-07
1.03432e-05
-6.27086e-07
1.05685e-05
-6.06151e-07
1.08076e-05
-5.77107e-07
1.11198e-05
-5.33148e-07
1.16048e-05
-4.59312e-07
1.23279e-05
-2.75092e-07
1.27351e-05
-1.33847e-07
1.03113e-05
-7.47064e-07
5.52824e-06
-9.09083e-07
8.29283e-06
-7.26568e-07
1.23821e-05
-6.2708e-07
1.2656e-05
-5.78366e-07
1.20438e-05
-5.55144e-07
9.51652e-06
-5.42982e-07
8.92598e-06
-5.36976e-07
8.4369e-06
-5.34376e-07
8.01334e-06
-5.33473e-07
7.63456e-06
-5.33351e-07
7.28741e-06
-5.33552e-07
6.9639e-06
-5.33846e-07
6.65907e-06
-5.34126e-07
6.36978e-06
-5.34348e-07
6.09389e-06
-5.34504e-07
5.82988e-06
-5.346e-07
5.57667e-06
-5.34648e-07
5.33347e-06
-5.34661e-07
5.09971e-06
-5.3465e-07
4.87498e-06
-5.34626e-07
4.65895e-06
-5.34594e-07
4.45136e-06
-5.3456e-07
4.252e-06
-5.34527e-07
4.06066e-06
-5.34496e-07
3.87712e-06
-5.34469e-07
3.7012e-06
-5.34445e-07
3.53268e-06
-5.34424e-07
3.37134e-06
-5.34407e-07
3.21696e-06
-5.34391e-07
3.0693e-06
-5.34376e-07
2.92813e-06
-5.34362e-07
2.79321e-06
-5.34347e-07
2.6643e-06
-5.34336e-07
2.54116e-06
2.42366e-06
-3.77295e-07
9.44121e-06
-4.39674e-07
8.55357e-06
-5.85966e-07
7.9378e-06
-7.06734e-07
8.10032e-06
-7.36676e-07
8.82771e-06
-7.14409e-07
9.54615e-06
-6.84077e-07
1.00215e-05
-6.59841e-07
1.0319e-05
-6.40636e-07
1.05493e-05
-6.21346e-07
1.07883e-05
-5.95697e-07
1.10942e-05
-5.54658e-07
1.15638e-05
-4.87317e-07
1.22605e-05
-3.13375e-07
1.25612e-05
-1.98191e-07
1.01962e-05
-7.14822e-07
6.04487e-06
-8.66594e-07
8.44461e-06
-6.99547e-07
1.22151e-05
-6.06338e-07
1.25628e-05
-5.6304e-07
1.20005e-05
-5.4392e-07
9.4974e-06
-5.33678e-07
8.91573e-06
-5.28911e-07
8.43213e-06
-5.27142e-07
8.01157e-06
-5.26809e-07
7.63422e-06
-5.27107e-07
7.28771e-06
-5.27632e-07
6.96442e-06
-5.28184e-07
6.65962e-06
-5.28674e-07
6.37027e-06
-5.2907e-07
6.09428e-06
-5.2937e-07
5.83018e-06
-5.29586e-07
5.57688e-06
-5.29733e-07
5.33362e-06
-5.29829e-07
5.09981e-06
-5.29888e-07
4.87503e-06
-5.29922e-07
4.65898e-06
-5.29938e-07
4.45138e-06
-5.29944e-07
4.25201e-06
-5.29943e-07
4.06065e-06
-5.2994e-07
3.87712e-06
-5.29934e-07
3.7012e-06
-5.29929e-07
3.53267e-06
-5.29923e-07
3.37133e-06
-5.29916e-07
3.21695e-06
-5.29909e-07
3.06929e-06
-5.29901e-07
2.92812e-06
-5.29891e-07
2.7932e-06
-5.2988e-07
2.66429e-06
-5.29871e-07
2.54115e-06
2.42365e-06
-3.92352e-07
9.43018e-06
-4.54422e-07
8.61564e-06
-5.86549e-07
8.06993e-06
-6.97994e-07
8.21176e-06
-7.32291e-07
8.86201e-06
-7.17728e-07
9.53159e-06
-6.92587e-07
9.99639e-06
-6.71382e-07
1.02978e-05
-6.54388e-07
1.05323e-05
-6.37631e-07
1.07716e-05
-6.16558e-07
1.10731e-05
-5.84274e-07
1.15315e-05
-5.17334e-07
1.21936e-05
-3.49795e-07
1.23937e-05
-2.53751e-07
1.01001e-05
-6.90237e-07
6.48136e-06
-8.25515e-07
8.57988e-06
-6.69142e-07
1.20587e-05
-5.82276e-07
1.24759e-05
-5.43762e-07
1.1962e-05
-5.29587e-07
9.48322e-06
-5.22173e-07
8.90832e-06
-5.19116e-07
8.42908e-06
-5.18459e-07
8.01091e-06
-5.18897e-07
7.63466e-06
-5.19761e-07
7.28857e-06
-5.2072e-07
6.96538e-06
-5.21612e-07
6.66052e-06
-5.22374e-07
6.37103e-06
-5.22992e-07
6.0949e-06
-5.23473e-07
5.83066e-06
-5.23838e-07
5.57725e-06
-5.2411e-07
5.33389e-06
-5.24309e-07
5.1e-06
-5.24454e-07
4.87518e-06
-5.24558e-07
4.65908e-06
-5.24634e-07
4.45145e-06
-5.24689e-07
4.25206e-06
-5.2473e-07
4.06069e-06
-5.2476e-07
3.87715e-06
-5.24782e-07
3.70122e-06
-5.24798e-07
3.53269e-06
-5.2481e-07
3.37134e-06
-5.24818e-07
3.21696e-06
-5.24821e-07
3.06929e-06
-5.2482e-07
2.92812e-06
-5.24816e-07
2.79319e-06
-5.24809e-07
2.66428e-06
-5.24803e-07
2.54114e-06
2.42365e-06
-4.07541e-07
9.42549e-06
-4.68333e-07
8.67643e-06
-5.88025e-07
8.18962e-06
-6.90901e-07
8.31464e-06
-7.28149e-07
8.89926e-06
-7.20278e-07
9.52372e-06
-7.00244e-07
9.97636e-06
-6.82403e-07
1.02799e-05
-6.68099e-07
1.0518e-05
-6.54367e-07
1.07578e-05
-6.37575e-07
1.10563e-05
-6.10424e-07
1.15044e-05
-5.48574e-07
1.21318e-05
-3.83473e-07
1.22286e-05
-3.01079e-07
1.00177e-05
-6.70957e-07
6.85124e-06
-7.86884e-07
8.69581e-06
-6.37808e-07
1.19096e-05
-5.57122e-07
1.23952e-05
-5.25359e-07
1.19302e-05
-5.14208e-07
9.47207e-06
-5.09193e-07
8.9033e-06
-5.07933e-07
8.42782e-06
-5.08538e-07
8.01152e-06
-5.09884e-07
7.63601e-06
-5.11425e-07
7.29011e-06
-5.12901e-07
6.96685e-06
-5.14198e-07
6.66181e-06
-5.15284e-07
6.37212e-06
-5.16162e-07
6.09578e-06
-5.16856e-07
5.83135e-06
-5.17396e-07
5.57779e-06
-5.17812e-07
5.3343e-06
-5.18131e-07
5.10032e-06
-5.18375e-07
4.87542e-06
-5.18562e-07
4.65927e-06
-5.18707e-07
4.4516e-06
-5.18819e-07
4.25217e-06
-5.18907e-07
4.06078e-06
-5.18975e-07
3.87722e-06
-5.19029e-07
3.70127e-06
-5.19071e-07
3.53273e-06
-5.19103e-07
3.37137e-06
-5.19126e-07
3.21698e-06
-5.19142e-07
3.06931e-06
-5.1915e-07
2.92813e-06
-5.19152e-07
2.7932e-06
-5.1915e-07
2.66428e-06
-5.19145e-07
2.54114e-06
2.42364e-06
-4.22508e-07
9.42588e-06
-4.81442e-07
8.73536e-06
-5.90278e-07
8.29846e-06
-6.85395e-07
8.40976e-06
-7.24533e-07
8.9384e-06
-7.22395e-07
9.52158e-06
-7.07218e-07
9.96118e-06
-6.92842e-07
1.02655e-05
-6.81421e-07
1.05066e-05
-6.70832e-07
1.07473e-05
-6.58088e-07
1.10436e-05
-6.34935e-07
1.14812e-05
-5.7087e-07
1.20677e-05
-4.1269e-07
1.20704e-05
-3.40407e-07
9.94543e-06
-6.54796e-07
7.16562e-06
-7.51407e-07
8.79242e-06
-6.06995e-07
1.17652e-05
-5.29817e-07
1.2318e-05
-5.04256e-07
1.19046e-05
-4.97362e-07
9.46518e-06
-4.95111e-07
8.90105e-06
-4.95714e-07
8.42842e-06
-4.97642e-07
8.01344e-06
-4.99965e-07
7.63833e-06
-5.02245e-07
7.2924e-06
-5.04291e-07
6.9689e-06
-5.06036e-07
6.66356e-06
-5.07479e-07
6.37356e-06
-5.08646e-07
6.09694e-06
-5.09575e-07
5.83228e-06
-5.10308e-07
5.57852e-06
-5.10883e-07
5.33488e-06
-5.11334e-07
5.10077e-06
-5.11688e-07
4.87577e-06
-5.11966e-07
4.65955e-06
-5.12186e-07
4.45182e-06
-5.12361e-07
4.25235e-06
-5.12501e-07
4.06092e-06
-5.12612e-07
3.87733e-06
-5.12701e-07
3.70136e-06
-5.12771e-07
3.5328e-06
-5.12825e-07
3.37143e-06
-5.12865e-07
3.21702e-06
-5.12893e-07
3.06934e-06
-5.12911e-07
2.92814e-06
-5.12919e-07
2.7932e-06
-5.12921e-07
2.66428e-06
-5.12919e-07
2.54114e-06
2.42364e-06
-4.36999e-07
9.43035e-06
-4.93779e-07
8.79214e-06
-5.93182e-07
8.39786e-06
-6.81344e-07
8.49792e-06
-7.21567e-07
8.97862e-06
-7.24262e-07
9.52427e-06
-7.1357e-07
9.95049e-06
-7.02594e-07
1.02546e-05
-6.9408e-07
1.04981e-05
-6.8659e-07
1.07398e-05
-6.77691e-07
1.10347e-05
-6.58099e-07
1.14616e-05
-5.93388e-07
1.2003e-05
-4.37953e-07
1.19149e-05
-3.72112e-07
9.87959e-06
-6.39865e-07
7.43338e-06
-7.18996e-07
8.87155e-06
-5.78158e-07
1.16244e-05
-5.03373e-07
1.22433e-05
-4.82904e-07
1.18842e-05
-4.79773e-07
9.46205e-06
-4.80284e-07
8.90157e-06
-4.82772e-07
8.43091e-06
-4.86039e-07
8.01671e-06
-4.89359e-07
7.64165e-06
-4.92399e-07
7.29544e-06
-4.95034e-07
6.97153e-06
-4.97245e-07
6.66577e-06
-4.99061e-07
6.37537e-06
-5.0053e-07
6.09841e-06
-5.01706e-07
5.83346e-06
-5.02642e-07
5.57946e-06
-5.03384e-07
5.33562e-06
-5.03973e-07
5.10136e-06
-5.04442e-07
4.87624e-06
-5.04816e-07
4.65992e-06
-5.05116e-07
4.45212e-06
-5.05357e-07
4.25259e-06
-5.05551e-07
4.06111e-06
-5.05706e-07
3.87748e-06
-5.05831e-07
3.70148e-06
-5.0593e-07
3.5329e-06
-5.06007e-07
3.3715e-06
-5.06065e-07
3.21707e-06
-5.06106e-07
3.06938e-06
-5.06133e-07
2.92817e-06
-5.06148e-07
2.79322e-06
-5.06154e-07
2.66428e-06
-5.06155e-07
2.54114e-06
2.42364e-06
-4.50844e-07
9.43804e-06
-5.05363e-07
8.84666e-06
-5.96587e-07
8.48909e-06
-6.78546e-07
8.57988e-06
-7.19244e-07
9.01932e-06
-7.25944e-07
9.53097e-06
-7.19282e-07
9.94383e-06
-7.11516e-07
1.02468e-05
-7.05817e-07
1.04924e-05
-7.01298e-07
1.07352e-05
-6.95916e-07
1.10293e-05
-6.78975e-07
1.14447e-05
-6.12474e-07
1.19365e-05
-4.59019e-07
1.17615e-05
-3.97e-07
9.81757e-06
-6.2486e-07
7.66124e-06
-6.89187e-07
8.93588e-06
-5.52716e-07
1.14879e-05
-4.78445e-07
1.2169e-05
-4.62025e-07
1.18677e-05
-4.62216e-07
9.46224e-06
-4.65243e-07
8.90459e-06
-4.6949e-07
8.43515e-06
-4.74033e-07
8.02125e-06
-4.78313e-07
7.64593e-06
-4.82089e-07
7.29921e-06
-4.853e-07
6.97474e-06
-4.87969e-07
6.66844e-06
-4.90154e-07
6.37756e-06
-4.91922e-07
6.10018e-06
-4.93343e-07
5.83488e-06
-4.9448e-07
5.58059e-06
-4.9539e-07
5.33653e-06
-4.96118e-07
5.10209e-06
-4.96702e-07
4.87683e-06
-4.97171e-07
4.66039e-06
-4.97551e-07
4.45249e-06
-4.97857e-07
4.25289e-06
-4.98105e-07
4.06136e-06
-4.98306e-07
3.87768e-06
-4.98466e-07
3.70164e-06
-4.98594e-07
3.53302e-06
-4.98693e-07
3.3716e-06
-4.98769e-07
3.21715e-06
-4.98823e-07
3.06943e-06
-4.98859e-07
2.92821e-06
-4.9888e-07
2.79324e-06
-4.9889e-07
2.66429e-06
-4.98893e-07
2.54114e-06
2.42364e-06
-4.63931e-07
9.44826e-06
-5.16192e-07
8.89892e-06
-6.00317e-07
8.57321e-06
-6.76736e-07
8.6563e-06
-7.17438e-07
9.06002e-06
-7.27388e-07
9.54092e-06
-7.24254e-07
9.94069e-06
-7.19406e-07
1.0242e-05
-7.16298e-07
1.04893e-05
-7.14481e-07
1.07334e-05
-7.12038e-07
1.10268e-05
-6.96566e-07
1.14292e-05
-6.27439e-07
1.18674e-05
-4.75831e-07
1.16099e-05
-4.16024e-07
9.75777e-06
-6.09144e-07
7.85436e-06
-6.6136e-07
8.9881e-06
-5.29136e-07
1.13557e-05
-4.55727e-07
1.20956e-05
-4.42283e-07
1.18543e-05
-4.45301e-07
9.46525e-06
-4.50516e-07
8.90981e-06
-4.56299e-07
8.44094e-06
-4.61969e-07
8.02692e-06
-4.67107e-07
7.65107e-06
-4.7155e-07
7.30366e-06
-4.75287e-07
6.97848e-06
-4.78378e-07
6.67153e-06
-4.80903e-07
6.38009e-06
-4.8295e-07
6.10223e-06
-4.846e-07
5.83653e-06
-4.85927e-07
5.58192e-06
-4.86994e-07
5.3376e-06
-4.87852e-07
5.10295e-06
-4.88545e-07
4.87752e-06
-4.89105e-07
4.66095e-06
-4.8956e-07
4.45295e-06
-4.89929e-07
4.25326e-06
-4.90228e-07
4.06166e-06
-4.90471e-07
3.87793e-06
-4.90665e-07
3.70184e-06
-4.9082e-07
3.53318e-06
-4.90941e-07
3.37172e-06
-4.91032e-07
3.21724e-06
-4.91099e-07
3.0695e-06
-4.91143e-07
2.92825e-06
-4.9117e-07
2.79327e-06
-4.91184e-07
2.66431e-06
-4.91189e-07
2.54115e-06
2.42364e-06
-4.76188e-07
9.46048e-06
-5.26245e-07
8.94898e-06
-6.04172e-07
8.65114e-06
-6.75617e-07
8.72774e-06
-7.15948e-07
9.10035e-06
-7.28458e-07
9.55343e-06
-7.28316e-07
9.94055e-06
-7.26e-07
1.02396e-05
-7.25123e-07
1.04884e-05
-7.25565e-07
1.07339e-05
-7.25282e-07
1.10266e-05
-7.10112e-07
1.1414e-05
-6.38035e-07
1.17953e-05
-4.88865e-07
1.14607e-05
-4.30538e-07
9.69944e-06
-5.93106e-07
8.01692e-06
-6.36018e-07
9.03101e-06
-5.10046e-07
1.12297e-05
-4.36538e-07
1.20221e-05
-4.24566e-07
1.18423e-05
-4.29663e-07
9.47035e-06
-4.36618e-07
8.91676e-06
-4.43635e-07
8.44795e-06
-4.5021e-07
8.0335e-06
-4.56046e-07
7.6569e-06
-4.61038e-07
7.30865e-06
-4.65214e-07
6.98266e-06
-4.6866e-07
6.67497e-06
-4.71475e-07
6.3829e-06
-4.7376e-07
6.10451e-06
-4.75608e-07
5.83838e-06
-4.77099e-07
5.58341e-06
-4.78303e-07
5.3388e-06
-4.79275e-07
5.10392e-06
-4.80063e-07
4.87831e-06
-4.80703e-07
4.66159e-06
-4.81224e-07
4.45347e-06
-4.81648e-07
4.25369e-06
-4.81993e-07
4.06201e-06
-4.82273e-07
3.87821e-06
-4.82498e-07
3.70206e-06
-4.82677e-07
3.53336e-06
-4.82817e-07
3.37186e-06
-4.82922e-07
3.21735e-06
-4.83e-07
3.06957e-06
-4.83052e-07
2.9283e-06
-4.83085e-07
2.7933e-06
-4.83102e-07
2.66433e-06
-4.83109e-07
2.54115e-06
2.42364e-06
-4.87578e-07
9.47421e-06
-5.355e-07
8.99691e-06
-6.07958e-07
8.7236e-06
-6.74893e-07
8.79468e-06
-7.1455e-07
9.14001e-06
-7.28991e-07
9.56787e-06
-7.31281e-07
9.94284e-06
-7.31029e-07
1.02394e-05
-7.31897e-07
1.04893e-05
-7.33988e-07
1.0736e-05
-7.34902e-07
1.10275e-05
-7.1889e-07
1.1398e-05
-6.43959e-07
1.17203e-05
-4.98703e-07
1.13155e-05
-4.42125e-07
9.64286e-06
-5.78087e-07
8.15289e-06
-6.14023e-07
9.06694e-06
-4.95802e-07
1.11115e-05
-4.21902e-07
1.19482e-05
-4.0984e-07
1.18303e-05
-4.16013e-07
9.47652e-06
-4.24089e-07
8.92484e-06
-4.31933e-07
8.4558e-06
-4.39122e-07
8.04069e-06
-4.45438e-07
7.66322e-06
-4.50817e-07
7.31403e-06
-4.55309e-07
6.98715e-06
-4.59014e-07
6.67868e-06
-4.62045e-07
6.38593e-06
-4.6451e-07
6.10698e-06
-4.66508e-07
5.84037e-06
-4.68125e-07
5.58503e-06
-4.69434e-07
5.34011e-06
-4.70496e-07
5.10498e-06
-4.71359e-07
4.87917e-06
-4.72062e-07
4.66229e-06
-4.72635e-07
4.45404e-06
-4.73103e-07
4.25416e-06
-4.73484e-07
4.06239e-06
-4.73794e-07
3.87852e-06
-4.74043e-07
3.70231e-06
-4.74242e-07
3.53356e-06
-4.74397e-07
3.37202e-06
-4.74515e-07
3.21747e-06
-4.74601e-07
3.06966e-06
-4.74661e-07
2.92837e-06
-4.74698e-07
2.79334e-06
-4.74719e-07
2.66435e-06
-4.74728e-07
2.54116e-06
2.42364e-06
-4.981e-07
9.48908e-06
-5.43951e-07
9.04275e-06
-6.11514e-07
8.79116e-06
-6.7431e-07
8.85748e-06
-7.13035e-07
9.17873e-06
-7.28835e-07
9.58367e-06
-7.32985e-07
9.94699e-06
-7.3427e-07
1.02407e-05
-7.36299e-07
1.04913e-05
-7.39272e-07
1.07389e-05
-7.40258e-07
1.10285e-05
-7.223e-07
1.13801e-05
-6.44977e-07
1.1643e-05
-5.05695e-07
1.11762e-05
-4.52071e-07
9.58924e-06
-5.65609e-07
8.26642e-06
-5.96477e-07
9.09781e-06
-4.87118e-07
1.10021e-05
-4.12595e-07
1.18736e-05
-3.98872e-07
1.18165e-05
-4.04968e-07
9.48262e-06
-4.13419e-07
8.93329e-06
-4.21594e-07
8.46397e-06
-4.2904e-07
8.04813e-06
-4.35572e-07
7.66975e-06
-4.41137e-07
7.31959e-06
-4.45789e-07
6.9918e-06
-4.49634e-07
6.68252e-06
-4.52784e-07
6.38908e-06
-4.55353e-07
6.10955e-06
-4.5744e-07
5.84246e-06
-4.59134e-07
5.58672e-06
-4.60509e-07
5.34148e-06
-4.61627e-07
5.1061e-06
-4.62537e-07
4.88008e-06
-4.6328e-07
4.66304e-06
-4.63887e-07
4.45465e-06
-4.64384e-07
4.25465e-06
-4.64789e-07
4.06279e-06
-4.65118e-07
3.87885e-06
-4.65384e-07
3.70258e-06
-4.65596e-07
3.53377e-06
-4.65762e-07
3.37219e-06
-4.65889e-07
3.21759e-06
-4.65982e-07
3.06976e-06
-4.66047e-07
2.92843e-06
-4.66089e-07
2.79338e-06
-4.66113e-07
2.66437e-06
-4.66125e-07
2.54117e-06
2.42365e-06
-5.07785e-07
9.50475e-06
-5.5161e-07
9.08658e-06
-6.14726e-07
8.85427e-06
-6.73672e-07
8.91642e-06
-7.11242e-07
9.2163e-06
-7.27882e-07
9.60031e-06
-7.33332e-07
9.95244e-06
-7.35594e-07
1.02429e-05
-7.38133e-07
1.04938e-05
-7.41127e-07
1.07419e-05
-7.40993e-07
1.10283e-05
-7.20104e-07
1.13592e-05
-6.41113e-07
1.1564e-05
-5.09926e-07
1.1045e-05
-4.61038e-07
9.54035e-06
-5.56692e-07
8.36208e-06
-5.84146e-07
9.12526e-06
-4.8416e-07
1.09021e-05
-4.08925e-07
1.17984e-05
-3.92096e-07
1.17997e-05
-3.96935e-07
9.48746e-06
-4.04957e-07
8.94131e-06
-4.12917e-07
8.47193e-06
-4.20226e-07
8.05544e-06
-4.26677e-07
7.6762e-06
-4.322e-07
7.32511e-06
-4.36838e-07
6.99644e-06
-4.40683e-07
6.68637e-06
-4.43843e-07
6.39224e-06
-4.46427e-07
6.11213e-06
-4.48531e-07
5.84457e-06
-4.50243e-07
5.58843e-06
-4.51635e-07
5.34288e-06
-4.52769e-07
5.10724e-06
-4.53694e-07
4.88101e-06
-4.5445e-07
4.66379e-06
-4.55068e-07
4.45527e-06
-4.55575e-07
4.25516e-06
-4.55989e-07
4.06321e-06
-4.56326e-07
3.87918e-06
-4.56598e-07
3.70285e-06
-4.56816e-07
3.53399e-06
-4.56987e-07
3.37236e-06
-4.57118e-07
3.21773e-06
-4.57216e-07
3.06985e-06
-4.57285e-07
2.9285e-06
-4.5733e-07
2.79343e-06
-4.57357e-07
2.6644e-06
-4.57371e-07
2.54119e-06
2.42365e-06
-5.16675e-07
9.52093e-06
-5.58508e-07
9.12841e-06
-6.17529e-07
8.9133e-06
-6.72853e-07
8.97175e-06
-7.09073e-07
9.25252e-06
-7.26088e-07
9.61733e-06
-7.32307e-07
9.95866e-06
-7.3499e-07
1.02456e-05
-7.3739e-07
1.04962e-05
-7.39545e-07
1.07441e-05
-7.37191e-07
1.1026e-05
-7.12629e-07
1.13346e-05
-6.3281e-07
1.14842e-05
-5.11431e-07
1.09236e-05
-4.6911e-07
9.49803e-06
-5.51498e-07
8.44446e-06
-5.7695e-07
9.15072e-06
-4.86307e-07
1.08115e-05
-4.10505e-07
1.17226e-05
-3.89486e-07
1.17787e-05
-3.92019e-07
9.48999e-06
-3.9884e-07
8.94813e-06
-4.06046e-07
8.47914e-06
-4.12823e-07
8.06222e-06
-4.18892e-07
7.68227e-06
-4.2414e-07
7.33036e-06
-4.28579e-07
7.00088e-06
-4.32277e-07
6.69006e-06
-4.3533e-07
6.39529e-06
-4.37833e-07
6.11463e-06
-4.39877e-07
5.84661e-06
-4.41542e-07
5.5901e-06
-4.42898e-07
5.34423e-06
-4.44004e-07
5.10834e-06
-4.44907e-07
4.88191e-06
-4.45646e-07
4.66453e-06
-4.46251e-07
4.45588e-06
-4.46747e-07
4.25565e-06
-4.47152e-07
4.06361e-06
-4.47483e-07
3.87951e-06
-4.47751e-07
3.70312e-06
-4.47965e-07
3.5342e-06
-4.48134e-07
3.37253e-06
-4.48265e-07
3.21786e-06
-4.48362e-07
3.06995e-06
-4.48432e-07
2.92857e-06
-4.4848e-07
2.79347e-06
-4.48509e-07
2.66443e-06
-4.48524e-07
2.5412e-06
2.42365e-06
-5.24824e-07
9.53739e-06
-5.64692e-07
9.16828e-06
-6.199e-07
8.9685e-06
-6.71791e-07
9.02364e-06
-7.06493e-07
9.28722e-06
-7.23476e-07
9.63431e-06
-7.29988e-07
9.96517e-06
-7.32587e-07
1.02482e-05
-7.34261e-07
1.04979e-05
-7.3483e-07
1.07447e-05
-7.29407e-07
1.10206e-05
-7.0078e-07
1.1306e-05
-6.20991e-07
1.14044e-05
-5.10454e-07
1.08131e-05
-4.76083e-07
9.46366e-06
-5.49412e-07
8.51779e-06
-5.73921e-07
9.17522e-06
-4.9225e-07
1.07298e-05
-4.16287e-07
1.16466e-05
-3.90535e-07
1.17529e-05
-3.89995e-07
9.48945e-06
-3.94972e-07
8.95311e-06
-4.00953e-07
8.48512e-06
-4.06841e-07
8.06811e-06
-4.12249e-07
7.68767e-06
-4.17002e-07
7.33511e-06
-4.21064e-07
7.00494e-06
-4.24475e-07
6.69347e-06
-4.27303e-07
6.39812e-06
-4.2963e-07
6.11696e-06
-4.31534e-07
5.84851e-06
-4.33088e-07
5.59165e-06
-4.34354e-07
5.3455e-06
-4.35386e-07
5.10937e-06
-4.36229e-07
4.88275e-06
-4.36919e-07
4.66522e-06
-4.37484e-07
4.45644e-06
-4.37947e-07
4.25612e-06
-4.38326e-07
4.06399e-06
-4.38635e-07
3.87982e-06
-4.38885e-07
3.70337e-06
-4.39087e-07
3.5344e-06
-4.39246e-07
3.37269e-06
-4.3937e-07
3.21798e-06
-4.39463e-07
3.07004e-06
-4.3953e-07
2.92864e-06
-4.39577e-07
2.79352e-06
-4.39606e-07
2.66446e-06
-4.39622e-07
2.54122e-06
2.42366e-06
-5.32285e-07
9.55392e-06
-5.70208e-07
9.20621e-06
-6.2185e-07
9.02014e-06
-6.70471e-07
9.07226e-06
-7.0352e-07
9.32027e-06
-7.20129e-07
9.65092e-06
-7.26532e-07
9.97157e-06
-7.28622e-07
1.02503e-05
-7.29101e-07
1.04984e-05
-7.27538e-07
1.07431e-05
-7.18548e-07
1.10116e-05
-6.85871e-07
1.12733e-05
-6.06936e-07
1.13255e-05
-5.07546e-07
1.07137e-05
-4.81717e-07
9.43783e-06
-5.48934e-07
8.58501e-06
-5.73524e-07
9.19982e-06
-5.00306e-07
1.06566e-05
-4.24825e-07
1.15712e-05
-3.94379e-07
1.17225e-05
-3.90363e-07
9.48543e-06
-3.93053e-07
8.95579e-06
-3.9745e-07
8.48951e-06
-4.02164e-07
8.07282e-06
-4.06679e-07
7.69219e-06
-4.10746e-07
7.33918e-06
-4.14276e-07
7.00847e-06
-4.17269e-07
6.69647e-06
-4.19767e-07
6.40062e-06
-4.21829e-07
6.11902e-06
-4.23519e-07
5.8502e-06
-4.24898e-07
5.59303e-06
-4.26022e-07
5.34662e-06
-4.26937e-07
5.11029e-06
-4.27682e-07
4.8835e-06
-4.28291e-07
4.66583e-06
-4.2879e-07
4.45694e-06
-4.29197e-07
4.25653e-06
-4.29531e-07
4.06433e-06
-4.29803e-07
3.8801e-06
-4.30024e-07
3.70359e-06
-4.30202e-07
3.53458e-06
-4.30343e-07
3.37283e-06
-4.30452e-07
3.21809e-06
-4.30536e-07
3.07013e-06
-4.30596e-07
2.9287e-06
-4.30639e-07
2.79356e-06
-4.30666e-07
2.66448e-06
-4.30681e-07
2.54123e-06
2.42367e-06
-5.39116e-07
9.57036e-06
-5.75112e-07
9.2422e-06
-6.23407e-07
9.06844e-06
-6.68911e-07
9.11776e-06
-7.0021e-07
9.35157e-06
-7.16169e-07
9.66688e-06
-7.22142e-07
9.97755e-06
-7.23403e-07
1.02516e-05
-7.22366e-07
1.04973e-05
-7.18357e-07
1.07391e-05
-7.05675e-07
1.09989e-05
-6.69338e-07
1.1237e-05
-5.92029e-07
1.12482e-05
-5.03487e-07
1.06251e-05
-4.8602e-07
9.42036e-06
-5.49197e-07
8.64819e-06
-5.74259e-07
9.22488e-06
-5.08838e-07
1.05912e-05
-4.34616e-07
1.14969e-05
-4e-07
1.16879e-05
-3.92463e-07
9.4779e-06
-3.92646e-07
8.95598e-06
-3.95237e-07
8.4921e-06
-3.98581e-07
8.07616e-06
-4.02032e-07
7.69564e-06
-4.05266e-07
7.34241e-06
-4.08138e-07
7.01134e-06
-4.10606e-07
6.69894e-06
-4.12681e-07
6.4027e-06
-4.144e-07
6.12074e-06
-4.1581e-07
5.85161e-06
-4.16958e-07
5.59418e-06
-4.17891e-07
5.34755e-06
-4.18647e-07
5.11104e-06
-4.19261e-07
4.88411e-06
-4.1976e-07
4.66633e-06
-4.20166e-07
4.45734e-06
-4.20497e-07
4.25686e-06
-4.20767e-07
4.0646e-06
-4.20987e-07
3.88032e-06
-4.21166e-07
3.70377e-06
-4.21309e-07
3.53473e-06
-4.21423e-07
3.37294e-06
-4.21512e-07
3.21818e-06
-4.2158e-07
3.0702e-06
-4.21629e-07
2.92875e-06
-4.21664e-07
2.7936e-06
-4.21686e-07
2.66451e-06
-4.21699e-07
2.54125e-06
2.42367e-06
-5.45374e-07
9.58656e-06
-5.7947e-07
9.2763e-06
-6.24619e-07
9.11359e-06
-6.67148e-07
9.16029e-06
-6.96634e-07
9.38106e-06
-7.11739e-07
9.68199e-06
-7.17045e-07
9.98285e-06
-7.17262e-07
1.02518e-05
-7.14533e-07
1.04946e-05
-7.07989e-07
1.07325e-05
-6.91801e-07
1.09827e-05
-6.52471e-07
1.11976e-05
-5.77483e-07
1.11732e-05
-4.9908e-07
1.05467e-05
-4.89166e-07
9.41045e-06
-5.495e-07
8.70852e-06
-5.7495e-07
9.25033e-06
-5.16601e-07
1.05328e-05
-4.44386e-07
1.14247e-05
-4.06422e-07
1.16499e-05
-3.956e-07
9.46707e-06
-3.93261e-07
8.95364e-06
-3.9396e-07
8.4928e-06
-3.95829e-07
8.07803e-06
-3.98109e-07
7.69792e-06
-4.00408e-07
7.34471e-06
-4.02529e-07
7.01346e-06
-4.0439e-07
6.7008e-06
-4.05969e-07
6.40428e-06
-4.07282e-07
6.12205e-06
-4.08355e-07
5.85269e-06
-4.09225e-07
5.59505e-06
-4.09924e-07
5.34825e-06
-4.10486e-07
5.11161e-06
-4.10936e-07
4.88456e-06
-4.11298e-07
4.66669e-06
-4.11589e-07
4.45764e-06
-4.11825e-07
4.25709e-06
-4.12015e-07
4.06479e-06
-4.12169e-07
3.88047e-06
-4.12293e-07
3.7039e-06
-4.12392e-07
3.53483e-06
-4.12471e-07
3.37302e-06
-4.12532e-07
3.21824e-06
-4.12578e-07
3.07024e-06
-4.12612e-07
2.92878e-06
-4.12636e-07
2.79362e-06
-4.12651e-07
2.66452e-06
-4.12659e-07
2.54125e-06
2.42367e-06
-5.51121e-07
9.60239e-06
-5.83351e-07
9.30853e-06
-6.25537e-07
9.15578e-06
-6.65229e-07
9.19998e-06
-6.92876e-07
9.40871e-06
-7.06981e-07
9.69609e-06
-7.11462e-07
9.98733e-06
-7.10515e-07
1.02508e-05
-7.06048e-07
1.04901e-05
-6.97054e-07
1.07235e-05
-6.7776e-07
1.09634e-05
-6.36239e-07
1.11561e-05
-5.64167e-07
1.11011e-05
-4.94949e-07
1.04775e-05
-4.91396e-07
9.40689e-06
-5.49366e-07
8.76649e-06
-5.7487e-07
9.27583e-06
-5.22812e-07
1.04808e-05
-4.53236e-07
1.13551e-05
-4.1285e-07
1.16095e-05
-3.99151e-07
9.45338e-06
-3.94427e-07
8.94892e-06
-3.93256e-07
8.49163e-06
-3.93627e-07
8.07841e-06
-3.9469e-07
7.69898e-06
-3.95998e-07
7.34602e-06
-3.97309e-07
7.01477e-06
-3.98504e-07
6.70199e-06
-3.99535e-07
6.40531e-06
-4.00391e-07
6.12291e-06
-4.01085e-07
5.85338e-06
-4.01636e-07
5.5956e-06
-4.02068e-07
5.34869e-06
-4.02404e-07
5.11194e-06
-4.02664e-07
4.88482e-06
-4.02866e-07
4.66689e-06
-4.03022e-07
4.45779e-06
-4.03144e-07
4.25721e-06
-4.03239e-07
4.06488e-06
-4.03314e-07
3.88054e-06
-4.03373e-07
3.70395e-06
-4.03419e-07
3.53487e-06
-4.03455e-07
3.37306e-06
-4.03482e-07
3.21827e-06
-4.03502e-07
3.07026e-06
-4.03516e-07
2.9288e-06