/*--------------------------------*- C++ -*----------------------------------*\
  =========                 |
  \\      /  F ield         | OpenFOAM: The Open Source CFD Toolbox
   \\    /   O peration     | Website:  https://openfoam.org
    \\  /    A nd           | Version:  9
     \\/     M anipulation  |
\*---------------------------------------------------------------------------*/
FoamFile
{
    format      ascii;
    class       volScalarField;
    location    "0.11";
    object      rAU;
}
// * * * * * * * * * * * * * * * * * * * * * * * * * * * * * * * * * * * * * //

dimensions      [-1 3 1 0 0 0 0];

internalField   nonuniform List<scalar> 
5000
(
1.71787e-05
1.82245e-05
1.95388e-05
1.90961e-05
1.77978e-05
1.71169e-05
1.6855e-05
1.67289e-05
1.6617e-05
1.64691e-05
1.62485e-05
1.59118e-05
1.54024e-05
1.48311e-05
1.58423e-05
2.76028e-05
1.85841e-05
1.4858e-05
1.51298e-05
1.56299e-05
1.58687e-05
1.60002e-05
1.60634e-05
1.60795e-05
1.60662e-05
1.60346e-05
1.59916e-05
1.59411e-05
1.58855e-05
1.58263e-05
1.57642e-05
1.56999e-05
1.56335e-05
1.55651e-05
1.54946e-05
1.54215e-05
1.53456e-05
1.52664e-05
1.51834e-05
1.50961e-05
1.50039e-05
1.49062e-05
1.48025e-05
1.46922e-05
1.45747e-05
1.44494e-05
1.43157e-05
1.41731e-05
1.4021e-05
1.20849e-05
2.25428e-05
2.31837e-05
2.38266e-05
2.35553e-05
2.28368e-05
2.24234e-05
2.22575e-05
2.21767e-05
2.21045e-05
2.20091e-05
2.18676e-05
2.16505e-05
2.13219e-05
2.09715e-05
2.18757e-05
2.71333e-05
2.32544e-05
2.0871e-05
2.10671e-05
2.14251e-05
2.15268e-05
2.15908e-05
2.16101e-05
2.15951e-05
2.15578e-05
2.15059e-05
2.14439e-05
2.13743e-05
2.12985e-05
2.12173e-05
2.1131e-05
2.10397e-05
2.09434e-05
2.08418e-05
2.07344e-05
2.06208e-05
2.05004e-05
2.03727e-05
2.02368e-05
2.00921e-05
1.99379e-05
1.97735e-05
1.9598e-05
1.94108e-05
1.92111e-05
1.89982e-05
1.87715e-05
1.85302e-05
1.82738e-05
1.51194e-05
2.25848e-05
2.31907e-05
2.37396e-05
2.34895e-05
2.28359e-05
2.24317e-05
2.22599e-05
2.21755e-05
2.21032e-05
2.20108e-05
2.18767e-05
2.16709e-05
2.13635e-05
2.10623e-05
2.20233e-05
2.64518e-05
2.32319e-05
2.09379e-05
2.10903e-05
2.14335e-05
2.15305e-05
2.15927e-05
2.16111e-05
2.15957e-05
2.15584e-05
2.15065e-05
2.14446e-05
2.1375e-05
2.12993e-05
2.12182e-05
2.11319e-05
2.10408e-05
2.09445e-05
2.08429e-05
2.07356e-05
2.06221e-05
2.05018e-05
2.0374e-05
2.02382e-05
2.00936e-05
1.99395e-05
1.97751e-05
1.95997e-05
1.94125e-05
1.92129e-05
1.9e-05
1.87733e-05
1.85321e-05
1.82758e-05
1.51217e-05
2.26192e-05
2.31817e-05
2.36451e-05
2.34221e-05
2.28373e-05
2.24462e-05
2.22678e-05
2.21781e-05
2.21043e-05
2.20143e-05
2.18871e-05
2.16908e-05
2.13998e-05
2.11463e-05
2.21569e-05
2.58645e-05
2.32099e-05
2.10357e-05
2.11276e-05
2.14509e-05
2.154e-05
2.15977e-05
2.16138e-05
2.15974e-05
2.15596e-05
2.15076e-05
2.14457e-05
2.13762e-05
2.13006e-05
2.12195e-05
2.11334e-05
2.10423e-05
2.09461e-05
2.08446e-05
2.07373e-05
2.06239e-05
2.05036e-05
2.03759e-05
2.02402e-05
2.00956e-05
1.99416e-05
1.97772e-05
1.96019e-05
1.94148e-05
1.92152e-05
1.90024e-05
1.87758e-05
1.85346e-05
1.82783e-05
1.51248e-05
2.26456e-05
2.31612e-05
2.35521e-05
2.33568e-05
2.28375e-05
2.24625e-05
2.22785e-05
2.21828e-05
2.21069e-05
2.20183e-05
2.18961e-05
2.17077e-05
2.14293e-05
2.12207e-05
2.22699e-05
2.53876e-05
2.31731e-05
2.1136e-05
2.11713e-05
2.14738e-05
2.15539e-05
2.16057e-05
2.16184e-05
2.16003e-05
2.15618e-05
2.15095e-05
2.14475e-05
2.1378e-05
2.13024e-05
2.12214e-05
2.11354e-05
2.10443e-05
2.09482e-05
2.08468e-05
2.07396e-05
2.06262e-05
2.05061e-05
2.03785e-05
2.02428e-05
2.00983e-05
1.99443e-05
1.978e-05
1.96048e-05
1.94178e-05
1.92183e-05
1.90055e-05
1.8779e-05
1.85379e-05
1.82816e-05
1.51287e-05
2.26638e-05
2.31333e-05
2.34655e-05
2.32953e-05
2.28348e-05
2.24782e-05
2.22902e-05
2.21887e-05
2.21101e-05
2.20222e-05
2.19041e-05
2.17221e-05
2.1454e-05
2.12865e-05
2.23336e-05
2.49702e-05
2.31224e-05
2.1229e-05
2.12176e-05
2.14989e-05
2.15701e-05
2.16155e-05
2.16245e-05
2.16045e-05
2.1565e-05
2.15122e-05
2.145e-05
2.13805e-05
2.13049e-05
2.12239e-05
2.11379e-05
2.1047e-05
2.0951e-05
2.08496e-05
2.07425e-05
2.06292e-05
2.05091e-05
2.03816e-05
2.0246e-05
2.01016e-05
1.99477e-05
1.97836e-05
1.96084e-05
1.94215e-05
1.9222e-05
1.90094e-05
1.87829e-05
1.85419e-05
1.82858e-05
1.51337e-05
2.2675e-05
2.31019e-05
2.33866e-05
2.32379e-05
2.28286e-05
2.24917e-05
2.23017e-05
2.2195e-05
2.21135e-05
2.20255e-05
2.19104e-05
2.17334e-05
2.14747e-05
2.13455e-05
2.23728e-05
2.46193e-05
2.3066e-05
2.13148e-05
2.12649e-05
2.15248e-05
2.15872e-05
2.16263e-05
2.16316e-05
2.16096e-05
2.1569e-05
2.15156e-05
2.14531e-05
2.13835e-05
2.13079e-05
2.1227e-05
2.11411e-05
2.10502e-05
2.09543e-05
2.0853e-05
2.0746e-05
2.06328e-05
2.05128e-05
2.03854e-05
2.02499e-05
2.01056e-05
1.99518e-05
1.97878e-05
1.96127e-05
1.94259e-05
1.92266e-05
1.90141e-05
1.87877e-05
1.85468e-05
1.82907e-05
1.51396e-05
2.26809e-05
2.3069e-05
2.33153e-05
2.31846e-05
2.28195e-05
2.25022e-05
2.23121e-05
2.22009e-05
2.21164e-05
2.20278e-05
2.19144e-05
2.17417e-05
2.14917e-05
2.13999e-05
2.24024e-05
2.43306e-05
2.30104e-05
2.13952e-05
2.13117e-05
2.15505e-05
2.16042e-05
2.16375e-05
2.16394e-05
2.16153e-05
2.15735e-05
2.15196e-05
2.14568e-05
2.13871e-05
2.13115e-05
2.12306e-05
2.11448e-05
2.1054e-05
2.09582e-05
2.0857e-05
2.07501e-05
2.0637e-05
2.05171e-05
2.03898e-05
2.02545e-05
2.01103e-05
1.99566e-05
1.97927e-05
1.96177e-05
1.94311e-05
1.92319e-05
1.90195e-05
1.87932e-05
1.85524e-05
1.82965e-05
1.51465e-05
2.26825e-05
2.3036e-05
2.32508e-05
2.31351e-05
2.28079e-05
2.25096e-05
2.23209e-05
2.22061e-05
2.21186e-05
2.2029e-05
2.19162e-05
2.17461e-05
2.15056e-05
2.14517e-05
2.24256e-05
2.40916e-05
2.29595e-05
2.14715e-05
2.13572e-05
2.15752e-05
2.16204e-05
2.16488e-05
2.16474e-05
2.16213e-05
2.15785e-05
2.1524e-05
2.1461e-05
2.13911e-05
2.13155e-05
2.12347e-05
2.1149e-05
2.10583e-05
2.09625e-05
2.08615e-05
2.07547e-05
2.06418e-05
2.0522e-05
2.03948e-05
2.02596e-05
2.01156e-05
1.9962e-05
1.97983e-05
1.96235e-05
1.94369e-05
1.92379e-05
1.90257e-05
1.87995e-05
1.85589e-05
1.8303e-05
1.51543e-05
2.26808e-05
2.30035e-05
2.31923e-05
2.30893e-05
2.27944e-05
2.25142e-05
2.23279e-05
2.22102e-05
2.21199e-05
2.20289e-05
2.1916e-05
2.17482e-05
2.15187e-05
2.15024e-05
2.2445e-05
2.38927e-05
2.29154e-05
2.15444e-05
2.14006e-05
2.15978e-05
2.16351e-05
2.16594e-05
2.16552e-05
2.16274e-05
2.15836e-05
2.15287e-05
2.14654e-05
2.13955e-05
2.13199e-05
2.12392e-05
2.11535e-05
2.1063e-05
2.09674e-05
2.08665e-05
2.07598e-05
2.0647e-05
2.05274e-05
2.04004e-05
2.02653e-05
2.01214e-05
1.99681e-05
1.98045e-05
1.96298e-05
1.94435e-05
1.92446e-05
1.90325e-05
1.88066e-05
1.85661e-05
1.83104e-05
1.51631e-05
2.26766e-05
2.29719e-05
2.31391e-05
2.30466e-05
2.27796e-05
2.25163e-05
2.23331e-05
2.22132e-05
2.21203e-05
2.20277e-05
2.19143e-05
2.1749e-05
2.15333e-05
2.15543e-05
2.24627e-05
2.37268e-05
2.28789e-05
2.16145e-05
2.14426e-05
2.16187e-05
2.16487e-05
2.16692e-05
2.16625e-05
2.16332e-05
2.15887e-05
2.15334e-05
2.147e-05
2.14001e-05
2.13246e-05
2.12439e-05
2.11584e-05
2.1068e-05
2.09726e-05
2.08718e-05
2.07654e-05
2.06527e-05
2.05333e-05
2.04065e-05
2.02716e-05
2.01279e-05
1.99747e-05
1.98113e-05
1.96368e-05
1.94507e-05
1.9252e-05
1.90401e-05
1.88143e-05
1.8574e-05
1.83185e-05
1.51728e-05
2.26704e-05
2.29414e-05
2.30904e-05
2.30068e-05
2.27638e-05
2.25161e-05
2.23366e-05
2.2215e-05
2.21197e-05
2.20255e-05
2.19113e-05
2.17486e-05
2.15487e-05
2.16055e-05
2.24799e-05
2.35883e-05
2.28496e-05
2.16823e-05
2.14829e-05
2.16372e-05
2.16605e-05
2.16779e-05
2.16691e-05
2.16387e-05
2.15936e-05
2.1538e-05
2.14746e-05
2.14047e-05
2.13294e-05
2.12489e-05
2.11636e-05
2.10734e-05
2.09781e-05
2.08776e-05
2.07713e-05
2.06588e-05
2.05396e-05
2.0413e-05
2.02783e-05
2.01348e-05
1.99819e-05
1.98187e-05
1.96444e-05
1.94585e-05
1.926e-05
1.90483e-05
1.88228e-05
1.85826e-05
1.83273e-05
1.51833e-05
2.26628e-05
2.29122e-05
2.30457e-05
2.29696e-05
2.27473e-05
2.25139e-05
2.23385e-05
2.22157e-05
2.21183e-05
2.20224e-05
2.19074e-05
2.17479e-05
2.15659e-05
2.16577e-05
2.24976e-05
2.34728e-05
2.2827e-05
2.17475e-05
2.15217e-05
2.16534e-05
2.16704e-05
2.16852e-05
2.16749e-05
2.16436e-05
2.15981e-05
2.15425e-05
2.14791e-05
2.14094e-05
2.13342e-05
2.1254e-05
2.11689e-05
2.10789e-05
2.09839e-05
2.08836e-05
2.07776e-05
2.06653e-05
2.05463e-05
2.04199e-05
2.02855e-05
2.01422e-05
1.99895e-05
1.98265e-05
1.96526e-05
1.94668e-05
1.92686e-05
1.90572e-05
1.88318e-05
1.85919e-05
1.83367e-05
1.51947e-05
2.26541e-05
2.28843e-05
2.30046e-05
2.29348e-05
2.27304e-05
2.25103e-05
2.2339e-05
2.22156e-05
2.21163e-05
2.20189e-05
2.1903e-05
2.17474e-05
2.15855e-05
2.17111e-05
2.25164e-05
2.33768e-05
2.28099e-05
2.18105e-05
2.15596e-05
2.16675e-05
2.16783e-05
2.16911e-05
2.16796e-05
2.16478e-05
2.16022e-05
2.15466e-05
2.14834e-05
2.1414e-05
2.13391e-05
2.12591e-05
2.11743e-05
2.10846e-05
2.09899e-05
2.08898e-05
2.07841e-05
2.06721e-05
2.05534e-05
2.04272e-05
2.0293e-05
2.01501e-05
1.99976e-05
1.98349e-05
1.96612e-05
1.94757e-05
1.92777e-05
1.90665e-05
1.88414e-05
1.86017e-05
1.83467e-05
1.52067e-05
2.26447e-05
2.28578e-05
2.29666e-05
2.29022e-05
2.27135e-05
2.25054e-05
2.23385e-05
2.22148e-05
2.21139e-05
2.20151e-05
2.18987e-05
2.17481e-05
2.16079e-05
2.17654e-05
2.25362e-05
2.32974e-05
2.2797e-05
2.187e-05
2.15957e-05
2.16797e-05
2.16841e-05
2.16953e-05
2.16832e-05
2.16511e-05
2.16056e-05
2.15502e-05
2.14874e-05
2.14183e-05
2.13438e-05
2.12642e-05
2.11797e-05
2.10904e-05
2.09959e-05
2.08962e-05
2.07908e-05
2.06791e-05
2.05606e-05
2.04348e-05
2.03009e-05
2.01582e-05
2.0006e-05
1.98436e-05
1.96702e-05
1.9485e-05
1.92873e-05
1.90763e-05
1.88515e-05
1.8612e-05
1.83573e-05
1.52194e-05
2.26349e-05
2.28326e-05
2.29314e-05
2.28716e-05
2.26967e-05
2.24998e-05
2.23373e-05
2.22137e-05
2.21116e-05
2.20116e-05
2.1895e-05
2.17506e-05
2.16334e-05
2.18203e-05
2.25565e-05
2.32316e-05
2.27865e-05
2.1925e-05
2.16301e-05
2.16901e-05
2.1688e-05
2.1698e-05
2.16856e-05
2.16535e-05
2.16083e-05
2.15533e-05
2.14909e-05
2.14223e-05
2.13482e-05
2.12691e-05
2.1185e-05
2.10961e-05
2.1002e-05
2.09027e-05
2.07975e-05
2.06862e-05
2.05681e-05
2.04425e-05
2.03089e-05
2.01666e-05
2.00147e-05
1.98526e-05
1.96795e-05
1.94946e-05
1.92972e-05
1.90865e-05
1.88619e-05
1.86227e-05
1.83682e-05
1.52325e-05
2.26248e-05
2.28086e-05
2.28987e-05
2.28431e-05
2.26804e-05
2.24937e-05
2.23356e-05
2.22126e-05
2.21096e-05
2.20088e-05
2.18927e-05
2.17557e-05
2.16621e-05
2.1875e-05
2.25767e-05
2.31768e-05
2.2777e-05
2.19746e-05
2.16625e-05
2.16991e-05
2.16902e-05
2.16991e-05
2.16868e-05
2.1655e-05
2.16102e-05
2.15559e-05
2.1494e-05
2.1426e-05
2.13524e-05
2.12738e-05
2.11902e-05
2.11017e-05
2.10081e-05
2.09091e-05
2.08043e-05
2.06934e-05
2.05756e-05
2.04504e-05
2.03172e-05
2.01751e-05
2.00236e-05
1.98618e-05
1.9689e-05
1.95044e-05
1.93073e-05
1.90969e-05
1.88726e-05
1.86336e-05
1.83794e-05
1.5246e-05
2.26146e-05
2.27859e-05
2.28683e-05
2.28164e-05
2.26647e-05
2.24874e-05
2.23338e-05
2.22116e-05
2.21081e-05
2.20071e-05
2.18924e-05
2.17639e-05
2.16937e-05
2.19284e-05
2.25958e-05
2.31304e-05
2.27674e-05
2.20185e-05
2.16929e-05
2.17072e-05
2.16909e-05
2.16989e-05
2.16869e-05
2.16557e-05
2.16115e-05
2.15578e-05
2.14967e-05
2.14293e-05
2.13563e-05
2.12783e-05
2.11952e-05
2.11072e-05
2.1014e-05
2.09154e-05
2.08111e-05
2.07005e-05
2.05831e-05
2.04583e-05
2.03254e-05
2.01838e-05
2.00326e-05
1.98711e-05
1.96986e-05
1.95144e-05
1.93176e-05
1.91075e-05
1.88835e-05
1.86448e-05
1.83907e-05
1.52597e-05
2.26043e-05
2.27644e-05
2.28401e-05
2.27915e-05
2.26496e-05
2.24812e-05
2.2332e-05
2.2211e-05
2.21076e-05
2.20068e-05
2.18943e-05
2.17753e-05
2.17277e-05
2.19799e-05
2.26131e-05
2.30902e-05
2.27572e-05
2.20566e-05
2.17217e-05
2.1715e-05
2.16909e-05
2.16979e-05
2.16862e-05
2.16557e-05
2.16122e-05
2.15593e-05
2.14989e-05
2.14322e-05
2.13599e-05
2.12825e-05
2.12e-05
2.11125e-05
2.10198e-05
2.09217e-05
2.08178e-05
2.07077e-05
2.05907e-05
2.04663e-05
2.03337e-05
2.01924e-05
2.00416e-05
1.98805e-05
1.97084e-05
1.95244e-05
1.9328e-05
1.91182e-05
1.88945e-05
1.8656e-05
1.84022e-05
1.52735e-05
2.25942e-05
2.27441e-05
2.28139e-05
2.27683e-05
2.26353e-05
2.24752e-05
2.23304e-05
2.2211e-05
2.21081e-05
2.20082e-05
2.18987e-05
2.17898e-05
2.17635e-05
2.20285e-05
2.26279e-05
2.30546e-05
2.27461e-05
2.20896e-05
2.17492e-05
2.17231e-05
2.16908e-05
2.16964e-05
2.16851e-05
2.16552e-05
2.16125e-05
2.15604e-05
2.15007e-05
2.14348e-05
2.13632e-05
2.12864e-05
2.12046e-05
2.11176e-05
2.10255e-05
2.09279e-05
2.08245e-05
2.07147e-05
2.05982e-05
2.04742e-05
2.03421e-05
2.02011e-05
2.00507e-05
1.98899e-05
1.97182e-05
1.95346e-05
1.93384e-05
1.9129e-05
1.89055e-05
1.86674e-05
1.84138e-05
1.52875e-05
2.25843e-05
2.2725e-05
2.27895e-05
2.27467e-05
2.26219e-05
2.24695e-05
2.23292e-05
2.22117e-05
2.21098e-05
2.20112e-05
2.19055e-05
2.18071e-05
2.18002e-05
2.20736e-05
2.26398e-05
2.30223e-05
2.27345e-05
2.21184e-05
2.17757e-05
2.17321e-05
2.1691e-05
2.16949e-05
2.16838e-05
2.16545e-05
2.16126e-05
2.15612e-05
2.15024e-05
2.14373e-05
2.13664e-05
2.12903e-05
2.1209e-05
2.11227e-05
2.10311e-05
2.0934e-05
2.0831e-05
2.07218e-05
2.06057e-05
2.04821e-05
2.03504e-05
2.02098e-05
2.00598e-05
1.98994e-05
1.9728e-05
1.95447e-05
1.93489e-05
1.91398e-05
1.89167e-05
1.86788e-05
1.84255e-05
1.53016e-05
2.25745e-05
2.27069e-05
2.27669e-05
2.27267e-05
2.26093e-05
2.24642e-05
2.23285e-05
2.22132e-05
2.21125e-05
2.20157e-05
2.19145e-05
2.18266e-05
2.18368e-05
2.21148e-05
2.26486e-05
2.29923e-05
2.27225e-05
2.21438e-05
2.18016e-05
2.17422e-05
2.16923e-05
2.1694e-05
2.16827e-05
2.16539e-05
2.16127e-05
2.15621e-05
2.15041e-05
2.14396e-05
2.13695e-05
2.12941e-05
2.12134e-05
2.11277e-05
2.10366e-05
2.09401e-05
2.08376e-05
2.07288e-05
2.06132e-05
2.049e-05
2.03587e-05
2.02186e-05
2.00689e-05
1.99089e-05
1.97379e-05
1.9555e-05
1.93595e-05
1.91507e-05
1.89279e-05
1.86902e-05
1.84372e-05
1.53158e-05
2.25651e-05
2.26899e-05
2.27459e-05
2.27081e-05
2.25976e-05
2.24594e-05
2.23282e-05
2.22153e-05
2.21163e-05
2.20217e-05
2.19252e-05
2.18475e-05
2.18727e-05
2.21518e-05
2.26542e-05
2.29641e-05
2.27106e-05
2.21665e-05
2.18271e-05
2.17537e-05
2.16947e-05
2.16938e-05
2.16822e-05
2.16537e-05
2.1613e-05
2.15631e-05
2.15058e-05
2.14421e-05
2.13727e-05
2.12979e-05
2.12179e-05
2.11327e-05
2.10422e-05
2.09462e-05
2.08442e-05
2.07359e-05
2.06207e-05
2.0498e-05
2.03671e-05
2.02274e-05
2.00781e-05
1.99185e-05
1.97478e-05
1.95653e-05
1.93702e-05
1.91617e-05
1.89391e-05
1.87018e-05
1.84491e-05
1.53301e-05
2.2556e-05
2.26739e-05
2.27263e-05
2.26909e-05
2.25867e-05
2.24551e-05
2.23283e-05
2.2218e-05
2.2121e-05
2.20289e-05
2.19373e-05
2.18693e-05
2.19073e-05
2.21848e-05
2.26571e-05
2.29375e-05
2.2699e-05
2.21871e-05
2.18522e-05
2.17665e-05
2.16985e-05
2.16946e-05
2.16824e-05
2.1654e-05
2.16138e-05
2.15644e-05
2.15078e-05
2.14448e-05
2.1376e-05
2.13018e-05
2.12224e-05
2.11379e-05
2.10479e-05
2.09524e-05
2.0851e-05
2.07431e-05
2.06284e-05
2.05061e-05
2.03756e-05
2.02363e-05
2.00875e-05
1.99282e-05
1.97579e-05
1.95758e-05
1.9381e-05
1.91728e-05
1.89506e-05
1.87135e-05
1.8461e-05
1.53445e-05
2.25472e-05
2.26589e-05
2.27082e-05
2.26749e-05
2.25767e-05
2.24512e-05
2.23289e-05
2.22214e-05
2.21264e-05
2.2037e-05
2.19504e-05
2.18915e-05
2.19401e-05
2.22139e-05
2.26576e-05
2.29123e-05
2.26879e-05
2.2206e-05
2.18769e-05
2.17805e-05
2.17038e-05
2.16966e-05
2.16834e-05
2.1655e-05
2.16151e-05
2.15662e-05
2.15101e-05
2.14477e-05
2.13796e-05
2.1306e-05
2.12272e-05
2.11432e-05
2.10538e-05
2.09588e-05
2.08579e-05
2.07505e-05
2.06362e-05
2.05144e-05
2.03843e-05
2.02455e-05
2.0097e-05
1.99382e-05
1.97682e-05
1.95864e-05
1.9392e-05
1.91842e-05
1.89622e-05
1.87255e-05
1.84732e-05
1.53593e-05
2.25388e-05
2.26448e-05
2.26913e-05
2.26601e-05
2.25675e-05
2.24479e-05
2.23299e-05
2.22253e-05
2.21325e-05
2.20459e-05
2.19642e-05
2.19136e-05
2.1971e-05
2.22395e-05
2.26563e-05
2.28885e-05
2.26776e-05
2.22234e-05
2.1901e-05
2.17953e-05
2.17104e-05
2.16997e-05
2.16854e-05
2.16568e-05
2.1617e-05
2.15686e-05
2.1513e-05
2.14511e-05
2.13836e-05
2.13106e-05
2.12324e-05
2.11489e-05
2.106e-05
2.09655e-05
2.0865e-05
2.07581e-05
2.06443e-05
2.05229e-05
2.03933e-05
2.02548e-05
2.01067e-05
1.99483e-05
1.97788e-05
1.95973e-05
1.94032e-05
1.91957e-05
1.89741e-05
1.87376e-05
1.84856e-05
1.53743e-05
2.25308e-05
2.26316e-05
2.26756e-05
2.26465e-05
2.2559e-05
2.2445e-05
2.23313e-05
2.22295e-05
2.21392e-05
2.20553e-05
2.19784e-05
2.19354e-05
2.2e-05
2.2262e-05
2.26537e-05
2.28663e-05
2.2668e-05
2.22397e-05
2.19244e-05
2.18108e-05
2.17182e-05
2.1704e-05
2.16884e-05
2.16594e-05
2.16197e-05
2.15716e-05
2.15164e-05
2.1455e-05
2.1388e-05
2.13156e-05
2.12379e-05
2.11549e-05
2.10665e-05
2.09725e-05
2.08725e-05
2.07661e-05
2.06527e-05
2.05317e-05
2.04026e-05
2.02645e-05
2.01168e-05
1.99588e-05
1.97896e-05
1.96085e-05
1.94148e-05
1.92076e-05
1.89863e-05
1.87501e-05
1.84984e-05
1.53897e-05
2.25231e-05
2.26192e-05
2.2661e-05
2.26338e-05
2.25511e-05
2.24425e-05
2.2333e-05
2.22342e-05
2.21462e-05
2.20652e-05
2.19928e-05
2.19567e-05
2.20269e-05
2.22819e-05
2.26502e-05
2.28455e-05
2.26593e-05
2.22548e-05
2.19471e-05
2.18269e-05
2.1727e-05
2.17094e-05
2.16924e-05
2.16629e-05
2.16232e-05
2.15753e-05
2.15205e-05
2.14595e-05
2.1393e-05
2.1321e-05
2.12438e-05
2.11613e-05
2.10735e-05
2.09799e-05
2.08804e-05
2.07744e-05
2.06615e-05
2.05409e-05
2.04122e-05
2.02745e-05
2.01273e-05
1.99696e-05
1.98008e-05
1.96201e-05
1.94267e-05
1.92199e-05
1.89988e-05
1.8763e-05
1.85115e-05
1.54055e-05
2.25157e-05
2.26075e-05
2.26474e-05
2.2622e-05
2.2544e-05
2.24404e-05
2.2335e-05
2.22391e-05
2.21535e-05
2.20753e-05
2.20073e-05
2.19773e-05
2.20521e-05
2.22995e-05
2.26461e-05
2.28263e-05
2.26513e-05
2.22691e-05
2.19692e-05
2.18434e-05
2.17369e-05
2.17157e-05
2.16972e-05
2.16673e-05
2.16275e-05
2.15797e-05
2.15252e-05
2.14646e-05
2.13985e-05
2.1327e-05
2.12503e-05
2.11683e-05
2.10809e-05
2.09878e-05
2.08887e-05
2.07832e-05
2.06707e-05
2.05506e-05
2.04222e-05
2.0285e-05
2.01381e-05
1.99809e-05
1.98125e-05
1.96321e-05
1.94391e-05
1.92326e-05
1.90119e-05
1.87763e-05
1.85251e-05
1.5422e-05
2.25087e-05
2.25965e-05
2.26348e-05
2.26111e-05
2.25374e-05
2.24387e-05
2.23372e-05
2.22442e-05
2.21611e-05
2.20856e-05
2.20217e-05
2.19973e-05
2.20756e-05
2.23153e-05
2.26417e-05
2.28086e-05
2.26442e-05
2.22826e-05
2.19905e-05
2.18601e-05
2.17475e-05
2.1723e-05
2.1703e-05
2.16725e-05
2.16326e-05
2.15849e-05
2.15306e-05
2.14704e-05
2.14047e-05
2.13336e-05
2.12573e-05
2.11758e-05
2.10888e-05
2.09962e-05
2.08976e-05
2.07925e-05
2.06804e-05
2.05607e-05
2.04328e-05
2.0296e-05
2.01495e-05
1.99926e-05
1.98246e-05
1.96446e-05
1.94519e-05
1.92458e-05
1.90254e-05
1.87901e-05
1.85392e-05
1.54391e-05
2.2502e-05
2.25862e-05
2.2623e-05
2.2601e-05
2.25313e-05
2.24372e-05
2.23396e-05
2.22495e-05
2.21687e-05
2.20959e-05
2.20359e-05
2.20166e-05
2.20975e-05
2.23294e-05
2.26373e-05
2.27924e-05
2.2638e-05
2.22955e-05
2.20113e-05
2.18771e-05
2.17589e-05
2.17312e-05
2.17097e-05
2.16786e-05
2.16385e-05
2.15908e-05
2.15368e-05
2.14769e-05
2.14115e-05
2.13409e-05
2.1265e-05
2.11839e-05
2.10974e-05
2.10052e-05
2.0907e-05
2.08024e-05
2.06907e-05
2.05714e-05
2.04439e-05
2.03075e-05
2.01615e-05
2.0005e-05
1.98373e-05
1.96577e-05
1.94654e-05
1.92596e-05
1.90396e-05
1.88046e-05
1.85539e-05
1.54569e-05
2.24956e-05
2.25765e-05
2.26119e-05
2.25916e-05
2.25258e-05
2.2436e-05
2.23422e-05
2.22549e-05
2.21765e-05
2.21063e-05
2.205e-05
2.20353e-05
2.21182e-05
2.23423e-05
2.2633e-05
2.27777e-05
2.26326e-05
2.2308e-05
2.20315e-05
2.18942e-05
2.1771e-05
2.17402e-05
2.17172e-05
2.16855e-05
2.16452e-05
2.15976e-05
2.15437e-05
2.14841e-05
2.14191e-05
2.13488e-05
2.12734e-05
2.11927e-05
2.11066e-05
2.10149e-05
2.09171e-05
2.08128e-05
2.07016e-05
2.05828e-05
2.04557e-05
2.03197e-05
2.0174e-05
2.0018e-05
1.98507e-05
1.96715e-05
1.94795e-05
1.92741e-05
1.90544e-05
1.88197e-05
1.85693e-05
1.54755e-05
2.24895e-05
2.25674e-05
2.26016e-05
2.25829e-05
2.25206e-05
2.24351e-05
2.23449e-05
2.22604e-05
2.21844e-05
2.21168e-05
2.20639e-05
2.20533e-05
2.21376e-05
2.23541e-05
2.2629e-05
2.27643e-05
2.2628e-05
2.232e-05
2.20513e-05
2.19115e-05
2.17838e-05
2.175e-05
2.17255e-05
2.16932e-05
2.16527e-05
2.16051e-05
2.15514e-05
2.14921e-05
2.14274e-05
2.13575e-05
2.12824e-05
2.12022e-05
2.11165e-05
2.10252e-05
2.09278e-05
2.0824e-05
2.07132e-05
2.05948e-05
2.04681e-05
2.03326e-05
2.01873e-05
2.00316e-05
1.98648e-05
1.96859e-05
1.94944e-05
1.92893e-05
1.90699e-05
1.88355e-05
1.85855e-05
1.5495e-05
2.24837e-05
2.25588e-05
2.2592e-05
2.25747e-05
2.25159e-05
2.24343e-05
2.23476e-05
2.2266e-05
2.21923e-05
2.21271e-05
2.20777e-05
2.20708e-05
2.2156e-05
2.23651e-05
2.26253e-05
2.27524e-05
2.26243e-05
2.23318e-05
2.20707e-05
2.19289e-05
2.17971e-05
2.17605e-05
2.17346e-05
2.17017e-05
2.1661e-05
2.16134e-05
2.15599e-05
2.15008e-05
2.14364e-05
2.13669e-05
2.12923e-05
2.12124e-05
2.11272e-05
2.10363e-05
2.09393e-05
2.08359e-05
2.07256e-05
2.06076e-05
2.04813e-05
2.03462e-05
2.02013e-05
2.00461e-05
1.98796e-05
1.97012e-05
1.951e-05
1.93053e-05
1.90862e-05
1.88522e-05
1.86025e-05
1.55155e-05
2.24782e-05
2.25507e-05
2.25829e-05
2.25671e-05
2.25116e-05
2.24338e-05
2.23505e-05
2.22715e-05
2.22001e-05
2.21375e-05
2.20912e-05
2.20877e-05
2.21735e-05
2.23754e-05
2.26221e-05
2.27417e-05
2.26213e-05
2.23434e-05
2.20897e-05
2.19465e-05
2.1811e-05
2.17717e-05
2.17445e-05
2.17109e-05
2.16701e-05
2.16226e-05
2.15692e-05
2.15103e-05
2.14463e-05
2.13771e-05
2.13029e-05
2.12234e-05
2.11386e-05
2.10481e-05
2.09516e-05
2.08487e-05
2.07387e-05
2.06212e-05
2.04954e-05
2.03606e-05
2.02162e-05
2.00614e-05
1.98954e-05
1.97173e-05
1.95265e-05
1.93222e-05
1.91035e-05
1.88698e-05
1.86204e-05
1.55372e-05
2.24729e-05
2.2543e-05
2.25744e-05
2.256e-05
2.25075e-05
2.24334e-05
2.23534e-05
2.22771e-05
2.2208e-05
2.21477e-05
2.21044e-05
2.21041e-05
2.21902e-05
2.23852e-05
2.26194e-05
2.27323e-05
2.26192e-05
2.23548e-05
2.21085e-05
2.19642e-05
2.18254e-05
2.17836e-05
2.17551e-05
2.1721e-05
2.16799e-05
2.16325e-05
2.15793e-05
2.15207e-05
2.1457e-05
2.13882e-05
2.13143e-05
2.12353e-05
2.11509e-05
2.10608e-05
2.09648e-05
2.08622e-05
2.07527e-05
2.06356e-05
2.05103e-05
2.0376e-05
2.0232e-05
2.00776e-05
1.9912e-05
1.97344e-05
1.9544e-05
1.93401e-05
1.91218e-05
1.88884e-05
1.86393e-05
1.55602e-05
2.24677e-05
2.25357e-05
2.25664e-05
2.25533e-05
2.25038e-05
2.24331e-05
2.23563e-05
2.22827e-05
2.22158e-05
2.21579e-05
2.21175e-05
2.212e-05
2.22061e-05
2.23945e-05
2.26172e-05
2.27241e-05
2.26178e-05
2.23663e-05
2.21271e-05
2.19821e-05
2.18404e-05
2.17962e-05
2.17664e-05
2.17318e-05
2.16906e-05
2.16433e-05
2.15902e-05
2.15319e-05
2.14685e-05
2.14001e-05
2.13266e-05
2.1248e-05
2.1164e-05
2.10744e-05
2.09788e-05
2.08767e-05
2.07677e-05
2.0651e-05
2.05261e-05
2.03923e-05
2.02488e-05
2.00949e-05
1.99297e-05
1.97525e-05
1.95626e-05
1.9359e-05
1.91411e-05
1.89082e-05
1.86594e-05
1.55845e-05
2.24628e-05
2.25287e-05
2.25588e-05
2.2547e-05
2.25003e-05
2.2433e-05
2.23593e-05
2.22882e-05
2.22236e-05
2.2168e-05
2.21304e-05
2.21356e-05
2.22215e-05
2.24036e-05
2.26156e-05
2.27171e-05
2.26172e-05
2.23778e-05
2.21456e-05
2.20003e-05
2.18559e-05
2.18095e-05
2.17785e-05
2.17434e-05
2.17022e-05
2.16549e-05
2.1602e-05
2.1544e-05
2.14809e-05
2.14129e-05
2.13398e-05
2.12616e-05
2.11781e-05
2.10889e-05
2.09938e-05
2.08922e-05
2.07836e-05
2.06674e-05
2.0543e-05
2.04096e-05
2.02666e-05
2.01132e-05
1.99485e-05
1.97718e-05
1.95823e-05
1.93791e-05
1.91617e-05
1.89291e-05
1.86807e-05
1.56103e-05
2.24581e-05
2.25221e-05
2.25516e-05
2.25411e-05
2.2497e-05
2.24329e-05
2.23622e-05
2.22937e-05
2.22313e-05
2.2178e-05
2.21431e-05
2.21507e-05
2.22364e-05
2.24124e-05
2.26146e-05
2.27112e-05
2.26174e-05
2.23893e-05
2.2164e-05
2.20186e-05
2.18719e-05
2.18234e-05
2.17913e-05
2.17559e-05
2.17145e-05
2.16673e-05
2.16147e-05
2.1557e-05
2.14943e-05
2.14266e-05
2.1354e-05
2.12762e-05
2.11931e-05
2.11045e-05
2.10098e-05
2.09087e-05
2.08006e-05
2.06849e-05
2.0561e-05
2.04281e-05
2.02856e-05
2.01326e-05
1.99684e-05
1.97922e-05
1.96032e-05
1.94005e-05
1.91835e-05
1.89513e-05
1.87033e-05
1.56377e-05
2.24535e-05
2.25158e-05
2.25448e-05
2.25355e-05
2.24939e-05
2.24329e-05
2.23652e-05
2.22992e-05
2.2239e-05
2.2188e-05
2.21556e-05
2.21655e-05
2.22509e-05
2.24212e-05
2.26143e-05
2.27065e-05
2.26184e-05
2.24011e-05
2.21824e-05
2.20373e-05
2.18886e-05
2.18381e-05
2.1805e-05
2.17691e-05
2.17277e-05
2.16806e-05
2.16283e-05
2.15709e-05
2.15086e-05
2.14413e-05
2.13691e-05
2.12918e-05
2.12092e-05
2.1121e-05
2.10268e-05
2.09262e-05
2.08186e-05
2.07035e-05
2.05801e-05
2.04478e-05
2.03058e-05
2.01533e-05
1.99897e-05
1.98139e-05
1.96254e-05
1.94232e-05
1.92067e-05
1.89749e-05
1.87273e-05
1.56669e-05
2.2449e-05
2.25097e-05
2.25383e-05
2.25301e-05
2.2491e-05
2.2433e-05
2.23681e-05
2.23046e-05
2.22466e-05
2.21978e-05
2.2168e-05
2.21801e-05
2.2265e-05
2.243e-05
2.26146e-05
2.27028e-05
2.26201e-05
2.2413e-05
2.2201e-05
2.20563e-05
2.19059e-05
2.18535e-05
2.18194e-05
2.17832e-05
2.17418e-05
2.16949e-05
2.16428e-05
2.15858e-05
2.15238e-05
2.1457e-05
2.13853e-05
2.13085e-05
2.12264e-05
2.11387e-05
2.10451e-05
2.0945e-05
2.08379e-05
2.07233e-05
2.06004e-05
2.04687e-05
2.03272e-05
2.01754e-05
2.00122e-05
1.98371e-05
1.96491e-05
1.94475e-05
1.92314e-05
1.90001e-05
1.8753e-05
1.56981e-05
2.24446e-05
2.25038e-05
2.2532e-05
2.2525e-05
2.24882e-05
2.24331e-05
2.2371e-05
2.23099e-05
2.22541e-05
2.22076e-05
2.21803e-05
2.21944e-05
2.22789e-05
2.24387e-05
2.26156e-05
2.27002e-05
2.26227e-05
2.24253e-05
2.22197e-05
2.20757e-05
2.19238e-05
2.18697e-05
2.18346e-05
2.17981e-05
2.17567e-05
2.17101e-05
2.16583e-05
2.16017e-05
2.15402e-05
2.14738e-05
2.14026e-05
2.13263e-05
2.12447e-05
2.11576e-05
2.10645e-05
2.09649e-05
2.08584e-05
2.07444e-05
2.06221e-05
2.0491e-05
2.03501e-05
2.01988e-05
2.00363e-05
1.98617e-05
1.96743e-05
1.94732e-05
1.92577e-05
1.9027e-05
1.87803e-05
1.57314e-05
2.24402e-05
2.24981e-05
2.2526e-05
2.25201e-05
2.24856e-05
2.24332e-05
2.23739e-05
2.23152e-05
2.22616e-05
2.22173e-05
2.21925e-05
2.22086e-05
2.22925e-05
2.24476e-05
2.26173e-05
2.26987e-05
2.26261e-05
2.24379e-05
2.22386e-05
2.20955e-05
2.19424e-05
2.18867e-05
2.18507e-05
2.18139e-05
2.17726e-05
2.17262e-05
2.16748e-05
2.16186e-05
2.15575e-05
2.14917e-05
2.1421e-05
2.13452e-05
2.12642e-05
2.11777e-05
2.10851e-05
2.09862e-05
2.08803e-05
2.07669e-05
2.06452e-05
2.05147e-05
2.03745e-05
2.02238e-05
2.00619e-05
1.9888e-05
1.97011e-05
1.95007e-05
1.92857e-05
1.90555e-05
1.88093e-05
1.57667e-05
2.24359e-05
2.24925e-05
2.25202e-05
2.25153e-05
2.2483e-05
2.24334e-05
2.23767e-05
2.23204e-05
2.2269e-05
2.2227e-05
2.22045e-05
2.22225e-05
2.2306e-05
2.24566e-05
2.26197e-05
2.26983e-05
2.26304e-05
2.2451e-05
2.22578e-05
2.21157e-05
2.19616e-05
2.19045e-05
2.18677e-05
2.18307e-05
2.17895e-05
2.17434e-05
2.16924e-05
2.16366e-05
2.15761e-05
2.15108e-05
2.14406e-05
2.13654e-05
2.1285e-05
2.1199e-05
2.11071e-05
2.10088e-05
2.09036e-05
2.07908e-05
2.06698e-05
2.05399e-05
2.04004e-05
2.02504e-05
2.00891e-05
1.99158e-05
1.97297e-05
1.95298e-05
1.93154e-05
1.90858e-05
1.884e-05
1.58041e-05
2.24316e-05
2.24871e-05
2.25145e-05
2.25107e-05
2.24805e-05
2.24335e-05
2.23794e-05
2.23255e-05
2.22764e-05
2.22366e-05
2.22165e-05
2.22364e-05
2.23195e-05
2.24659e-05
2.26228e-05
2.26988e-05
2.26355e-05
2.24645e-05
2.22774e-05
2.21365e-05
2.19817e-05
2.19231e-05
2.18856e-05
2.18484e-05
2.18074e-05
2.17617e-05
2.17111e-05
2.16558e-05
2.15958e-05
2.15311e-05
2.14615e-05
2.13869e-05
2.13072e-05
2.12218e-05
2.11306e-05
2.10329e-05
2.09284e-05
2.08163e-05
2.0696e-05
2.05668e-05
2.0428e-05
2.02787e-05
2.01182e-05
1.99456e-05
1.97601e-05
1.95608e-05
1.93471e-05
1.9118e-05
1.88728e-05
1.5844e-05
2.24273e-05
2.24817e-05
2.25089e-05
2.25062e-05
2.2478e-05
2.24335e-05
2.23821e-05
2.23306e-05
2.22836e-05
2.22461e-05
2.22285e-05
2.22502e-05
2.23328e-05
2.24753e-05
2.26266e-05
2.27005e-05
2.26416e-05
2.24786e-05
2.22974e-05
2.21579e-05
2.20025e-05
2.19427e-05
2.19045e-05
2.18672e-05
2.18264e-05
2.1781e-05
2.17309e-05
2.16762e-05
2.16167e-05
2.15526e-05
2.14837e-05
2.14098e-05
2.13307e-05
2.12461e-05
2.11555e-05
2.10586e-05
2.09548e-05
2.08434e-05
2.07239e-05
2.05955e-05
2.04574e-05
2.03089e-05
2.01491e-05
1.99773e-05
1.97925e-05
1.9594e-05
1.9381e-05
1.91525e-05
1.89079e-05
1.58869e-05
2.2423e-05
2.24763e-05
2.25034e-05
2.25017e-05
2.24755e-05
2.24335e-05
2.23846e-05
2.23355e-05
2.22908e-05
2.22557e-05
2.22404e-05
2.22639e-05
2.23462e-05
2.2485e-05
2.26312e-05
2.27032e-05
2.26485e-05
2.24933e-05
2.23179e-05
2.21799e-05
2.20242e-05
2.19633e-05
2.19244e-05
2.1887e-05
2.18465e-05
2.18016e-05
2.1752e-05
2.16978e-05
2.1639e-05
2.15756e-05
2.15074e-05
2.14342e-05
2.13558e-05
2.12719e-05
2.11821e-05
2.10859e-05
2.09829e-05
2.08723e-05
2.07536e-05
2.0626e-05
2.04887e-05
2.0341e-05
2.01821e-05
2.00111e-05
1.98272e-05
1.96296e-05
1.94174e-05
1.91898e-05
1.8946e-05
1.59337e-05
2.24186e-05
2.2471e-05
2.2498e-05
2.24973e-05
2.2473e-05
2.24335e-05
2.23871e-05
2.23404e-05
2.2298e-05
2.22651e-05
2.22522e-05
2.22775e-05
2.23596e-05
2.24951e-05
2.26366e-05
2.27069e-05
2.26564e-05
2.25087e-05
2.2339e-05
2.22027e-05
2.20468e-05
2.19848e-05
2.19454e-05
2.1908e-05
2.18678e-05
2.18233e-05
2.17743e-05
2.17208e-05
2.16627e-05
2.16e-05
2.15325e-05
2.146e-05
2.13824e-05
2.12993e-05
2.12103e-05
2.1115e-05
2.10127e-05
2.0903e-05
2.07851e-05
2.06584e-05
2.0522e-05
2.03753e-05
2.02173e-05
2.00473e-05
1.98644e-05
1.96678e-05
1.94567e-05
1.92305e-05
1.89882e-05
1.5987e-05
2.2414e-05
2.24656e-05
2.24926e-05
2.24928e-05
2.24705e-05
2.24333e-05
2.23894e-05
2.23451e-05
2.2305e-05
2.22745e-05
2.22641e-05
2.22912e-05
2.23731e-05
2.25055e-05
2.26427e-05
2.27117e-05
2.26653e-05
2.25247e-05
2.23607e-05
2.22262e-05
2.20704e-05
2.20075e-05
2.19676e-05
2.19302e-05
2.18904e-05
2.18464e-05
2.17981e-05
2.17452e-05
2.16879e-05
2.16259e-05
2.15592e-05
2.14876e-05
2.14108e-05
2.13285e-05
2.12403e-05
2.11459e-05
2.10445e-05
2.09357e-05
2.08187e-05
2.06929e-05
2.05574e-05
2.04116e-05
2.02545e-05
2.00853e-05
1.99022e-05
1.97033e-05
1.94891e-05
1.92601e-05
1.90154e-05
2.02896e-05
2.24093e-05
2.24601e-05
2.24871e-05
2.24883e-05
2.24678e-05
2.2433e-05
2.23916e-05
2.23497e-05
2.23119e-05
2.22839e-05
2.22759e-05
2.23048e-05
2.23866e-05
2.25162e-05
2.26496e-05
2.27175e-05
2.26751e-05
2.25416e-05