/*--------------------------------*- C++ -*----------------------------------*\
  =========                 |
  \\      /  F ield         | OpenFOAM: The Open Source CFD Toolbox
   \\    /   O peration     | Website:  https://openfoam.org
    \\  /    A nd           | Version:  9
     \\/     M anipulation  |
\*---------------------------------------------------------------------------*/
FoamFile
{
    format      ascii;
    class       surfaceVectorField;
    location    "0.11";
    object      Uf;
}
// * * * * * * * * * * * * * * * * * * * * * * * * * * * * * * * * * * * * * //

dimensions      [0 1 -1 0 0 0 0];

internalField   nonuniform List<vector> 
9850
(
(0.0184489 0 -0.470597)
(0.0209087 0 -0.348509)
(0.0231924 0 -0.743355)
(0.0351207 0 -0.60095)
(-0.00714207 0 -0.842295)
(0.0146635 0 -0.873457)
(-0.0232746 0 -0.647945)
(-0.0277332 0 -0.788007)
(-0.0134024 0 -0.415157)
(-0.0294849 0 -0.50499)
(-0.00587454 0 -0.296568)
(-0.0158284 0 -0.334188)
(-0.00278982 0 -0.24622)
(-0.00814265 0 -0.264249)
(-0.00174299 0 -0.214787)
(-0.00475886 0 -0.230265)
(-0.00137716 0 -0.179595)
(-0.00330047 0 -0.200102)
(-0.000967051 0 -0.12822)
(-0.00232197 0 -0.159616)
(0.000221235 0 -0.0477764)
(-0.000745641 0 -0.0977726)
(0.00301588 0 0.0801386)
(0.00269408 0 0.000100399)
(0.009353 0 0.252324)
(0.0117587 0 0.155326)
(0.0254381 0 0.187235)
(0.0157974 0 0.336584)
(0.0884872 0 -1.00507)
(0.0952074 0 -0.00645367)
(-0.0272973 0 -1.36851)
(0.0634256 0 -1.94094)
(-0.0402356 0 -0.184603)
(-0.130702 0 -0.697488)
(-0.0124631 0 0.28387)
(-0.025075 0 0.31468)
(-0.00486144 0 0.160104)
(-0.0166768 0 0.234271)
(-0.00160617 0 0.0328546)
(-0.00629857 0 0.0797469)
(-0.00040486 0 -0.0303152)
(-0.00222742 0 -0.00790681)
(5.59593e-06 0 -0.0650384)
(-0.000646966 0 -0.0530084)
(9.30303e-05 0 -0.0826744)
(-3.77548e-05 0 -0.0771682)
(7.45473e-05 0 -0.0898069)
(0.000129482 0 -0.0882987)
(2.97695e-05 0 -0.0906535)
(0.000137518 0 -0.0915063)
(-7.94673e-06 0 -0.0878378)
(0.000101967 0 -0.0900612)
(-3.29554e-05 0 -0.0829272)
(6.6737e-05 0 -0.0859246)
(-4.60796e-05 0 -0.0768628)
(4.15849e-05 0 -0.0802677)
(-4.99693e-05 0 -0.0702342)
(2.84753e-05 0 -0.0738068)
(-4.7285e-05 0 -0.0634338)
(2.61158e-05 0 -0.0670093)
(-4.02953e-05 0 -0.0567312)
(3.19877e-05 0 -0.0601962)
(-3.08088e-05 0 -0.0503097)
(4.34313e-05 0 -0.0535886)
(-2.02141e-05 0 -0.0442864)
(5.80739e-05 0 -0.0473333)
(-9.52352e-06 0 -0.0387278)
(7.40191e-05 0 -0.0415194)
(5.93278e-07 0 -0.0336632)
(8.99141e-05 0 -0.0361924)
(9.75706e-06 0 -0.0290949)
(0.000104905 0 -0.0313661)
(1.78226e-05 0 -0.0250071)
(0.00011851 0 -0.0270323)
(2.47541e-05 0 -0.021372)
(0.000130522 0 -0.023168)
(3.06154e-05 0 -0.018155)
(0.000140915 0 -0.0197412)
(3.55099e-05 0 -0.0153176)
(0.000149756 0 -0.0167144)
(3.95523e-05 0 -0.0128202)
(0.000157172 0 -0.0140482)
(4.28525e-05 0 -0.0106241)
(0.000163311 0 -0.0117031)
(4.55094e-05 0 -0.00869293)
(0.000168323 0 -0.00964106)
(4.76115e-05 0 -0.00699316)
(0.000172352 0 -0.00782694)
(4.92466e-05 0 -0.00549553)
(0.000175545 0 -0.00622911)
(5.0506e-05 0 -0.00417566)
(0.000178069 0 -0.00482053)
(5.1466e-05 0 -0.00301355)
(0.000180016 0 -0.00357936)
(5.2214e-05 0 -0.00199154)
(0.000181674 0 -0.00248742)
(5.32271e-05 0 -0.00106862)
(0.000184442 0 -0.0015289)
(0.000186232 0 -0.000636796)
(0.0383951 0 -0.476815)
(0.0341564 0 -0.359673)
(0.0381053 0 -0.733608)
(0.0511115 0 -0.600757)
(-0.010753 0 -0.824357)
(0.0200211 0 -0.840885)
(-0.041312 0 -0.645261)
(-0.0384617 0 -0.767634)
(-0.0312091 0 -0.422042)
(-0.0447823 0 -0.511725)
(-0.0173221 0 -0.301276)
(-0.0273117 0 -0.343446)
(-0.00957711 0 -0.248354)
(-0.0158648 0 -0.269413)
(-0.00606929 0 -0.215773)
(-0.00992202 0 -0.232604)
(-0.00427998 0 -0.180329)
(-0.00685985 0 -0.201295)
(-0.00234875 0 -0.129343)
(-0.00455292 0 -0.160903)
(0.00150634 0 -0.049924)
(-0.00118289 0 -0.100343)
(0.00894165 0 0.0754513)
(0.00480504 0 -0.00485648)
(0.0255441 0 0.240982)
(0.0221472 0 0.144257)
(0.0599396 0 0.149687)
(0.0236478 0 0.313654)
(0.150394 0 -0.943286)
(0.158662 0 -0.0667567)
(-0.0948572 0 -1.27541)
(0.0710939 0 -1.77744)
(-0.0909866 0 -0.194847)
(-0.20299 0 -0.700069)
(-0.0372397 0 0.267257)
(-0.0405542 0 0.278849)
(-0.014967 0 0.153695)
(-0.0314277 0 0.219422)
(-0.00590491 0 0.030067)
(-0.0118095 0 0.0737055)
(-0.00216783 0 -0.0318419)
(-0.00481899 0 -0.0109559)
(-0.000542777 0 -0.0658806)
(-0.00170895 0 -0.0543991)
(4.10754e-05 0 -0.0831962)
(-0.000316552 0 -0.0776923)
(0.000202504 0 -0.0901901)
(0.000193481 0 -0.0884507)
(0.000213166 0 -0.090975)
(0.00033856 0 -0.0915168)
(0.000177581 0 -0.0881273)
(0.000349363 0 -0.0900242)
(0.000139981 0 -0.0831952)
(0.000324989 0 -0.0858836)
(0.000114265 0 -0.077113)
(0.000296939 0 -0.0802382)
(0.000102894 0 -0.070468)
(0.000278792 0 -0.073793)
(0.000104072 0 -0.0636518)
(0.000273768 0 -0.0670107)
(0.0001148 0 -0.0569337)
(0.000280357 0 -0.0602101)
(0.000131847 0 -0.0504967)
(0.000295477 0 -0.0536119)
(0.000152266 0 -0.0444579)
(0.000315901 0 -0.0473627)
(0.000173733 0 -0.0388842)
(0.000338903 0 -0.0415519)
(0.000194672 0 -0.0338048)
(0.000362458 0 -0.0362256)
(0.000214152 0 -0.0292224)
(0.000385178 0 -0.0313985)
(0.000231694 0 -0.0251212)
(0.000406189 0 -0.0270629)
(0.000247124 0 -0.0214735)
(0.00042501 0 -0.0231962)
(0.000260442 0 -0.0182445)
(0.000441461 0 -0.0197666)
(0.000271759 0 -0.0153957)
(0.000455563 0 -0.0167371)
(0.00028124 0 -0.0128877)
(0.000467456 0 -0.0140681)
(0.000289069 0 -0.0106816)
(0.000477344 0 -0.0117202)
(0.000295435 0 -0.00874094)
(0.000485448 0 -0.00965563)
(0.00030053 0 -0.00703237)
(0.00049199 0 -0.00783914)
(0.000304567 0 -0.00552663)
(0.000497217 0 -0.00623922)
(0.000307794 0 -0.00419938)
(0.000501433 0 -0.00482899)
(0.000310456 0 -0.00303064)
(0.000504794 0 -0.00358669)
(0.000312881 0 -0.00200416)
(0.000507967 0 -0.00249445)
(0.000316009 0 -0.00107686)
(0.000514243 0 -0.00153851)
(0.000515053 0 -0.000646313)
(0.0475504 0 -0.482502)
(0.0418091 0 -0.371077)
(0.0422118 0 -0.713113)
(0.0567819 0 -0.597198)
(-0.01149 0 -0.792042)
(0.0210783 0 -0.805084)
(-0.0476692 0 -0.636362)
(-0.0410653 0 -0.743515)
(-0.0407207 0 -0.431125)
(-0.0518242 0 -0.516358)
(-0.0257245 0 -0.309832)
(-0.0349448 0 -0.353443)
(-0.0158219 0 -0.252968)
(-0.0221646 0 -0.276015)
(-0.0104674 0 -0.218046)
(-0.0146879 0 -0.236173)
(-0.00718638 0 -0.181966)
(-0.0103636 0 -0.203482)
(-0.00367642 0 -0.131853)
(-0.00686748 0 -0.163243)
(0.00260154 0 -0.0547213)
(-0.00191078 0 -0.104528)
(0.0132504 0 0.0657561)
(0.00521169 0 -0.0119558)
(0.0341881 0 0.219915)
(0.0288139 0 0.130299)
(0.083743 0 0.103133)
(0.0245941 0 0.280617)
(0.16751 0 -0.887688)
(0.187961 0 -0.122602)
(-0.106162 0 -1.18776)
(0.0728774 0 -1.59499)
(-0.117386 0 -0.216737)
(-0.220218 0 -0.692586)
(-0.0496445 0 0.23692)
(-0.0480533 0 0.233688)
(-0.0228048 0 0.141555)
(-0.0399966 0 0.201529)
(-0.00986295 0 0.0246373)
(-0.0149182 0 0.0650775)
(-0.00402763 0 -0.0345887)
(-0.00676521 0 -0.0157167)
(-0.00125534 0 -0.0670456)
(-0.00256001 0 -0.0567718)
(-8.87597e-05 0 -0.0835774)
(-0.000513214 0 -0.0787396)
(0.000350573 0 -0.090237)
(0.000324598 0 -0.0888644)
(0.000487477 0 -0.0908962)
(0.000638308 0 -0.0916519)
(0.000503799 0 -0.0880143)
(0.000729244 0 -0.090041)
(0.000483881 0 -0.0830884)
(0.000737299 0 -0.0858618)
(0.000461635 0 -0.0770267)
(0.000719993 0 -0.0802127)
(0.000449057 0 -0.0704054)
(0.000703824 0 -0.0737778)
(0.000448957 0 -0.063611)
(0.000698087 0 -0.0670104)
(0.000459939 0 -0.0569111)
(0.000703668 0 -0.0602244)
(0.000478895 0 -0.0504878)
(0.000718504 0 -0.0536379)
(0.000502521 0 -0.0444587)
(0.000739708 0 -0.0473967)
(0.000528087 0 -0.038891)
(0.000764533 0 -0.0415905)
(0.000553635 0 -0.033815)
(0.000790704 0 -0.0362661)
(0.000577883 0 -0.029234)
(0.000816473 0 -0.0314388)
(0.000600064 0 -0.0251329)
(0.000840634 0 -0.0271015)
(0.000619793 0 -0.0214845)
(0.000862474 0 -0.0232322)
(0.000636953 0 -0.0182544)
(0.000881682 0 -0.0197994)
(0.000651606 0 -0.0154043)
(0.000898225 0 -0.0167664)
(0.000663912 0 -0.0128949)
(0.00091223 0 -0.0140938)
(0.000674084 0 -0.0106876)
(0.000923911 0 -0.0117424)
(0.000682367 0 -0.00874594)
(0.000933515 0 -0.00967454)
(0.000689026 0 -0.00703663)
(0.000941304 0 -0.00785505)
(0.000694368 0 -0.00553061)
(0.000947568 0 -0.00625259)
(0.000698749 0 -0.00420369)
(0.000952693 0 -0.00484049)
(0.000702569 0 -0.00303631)
(0.0009569 0 -0.00359722)
(0.000706345 0 -0.00201324)
(0.00096117 0 -0.00250543)
(0.000710756 0 -0.00108982)
(0.000970418 0 -0.00155207)
(0.000967508 0 -0.000659274)
(0.0514109 0 -0.485745)
(0.0457461 0 -0.381499)
(0.0420288 0 -0.690754)
(0.0570092 0 -0.590943)
(-0.0111559 0 -0.758779)
(0.0201192 0 -0.769627)
(-0.0491458 0 -0.624531)
(-0.0399994 0 -0.718188)
(-0.045892 0 -0.438345)
(-0.0542516 0 -0.518527)
(-0.0315408 0 -0.31893)
(-0.0398717 0 -0.363011)
(-0.0208547 0 -0.258739)
(-0.0270836 0 -0.283139)
(-0.0144236 0 -0.221373)
(-0.0188636 0 -0.240461)
(-0.0100656 0 -0.18459)
(-0.0137416 0 -0.206387)
(-0.00545927 0 -0.135607)
(-0.00946002 0 -0.166314)
(0.00221761 0 -0.061196)
(-0.00329318 0 -0.109646)
(0.0144089 0 0.0538902)
(0.00357966 0 -0.0200833)
(0.0360108 0 0.193375)
(0.0303931 0 0.115897)
(0.0909994 0 0.0563096)
(0.0224466 0 0.243958)
(0.16124 0 -0.830959)
(0.188179 0 -0.169429)
(-0.0928538 0 -1.09899)
(0.0692494 0 -1.4256)
(-0.119973 0 -0.237635)
(-0.203961 0 -0.674507)
(-0.053554 0 0.202149)
(-0.0514122 0 0.189408)
(-0.0261204 0 0.126812)
(-0.042261 0 0.18324)
(-0.0118954 0 0.017341)
(-0.0153787 0 0.0555941)
(-0.00505146 0 -0.0385525)
(-0.0074843 0 -0.0213005)
(-0.00160909 0 -0.0688985)
(-0.00272969 0 -0.0597178)
(-3.63903e-05 0 -0.0843051)
(-0.000321526 0 -0.0801514)
(0.000639332 0 -0.0904332)
(0.000707839 0 -0.0895007)
(0.000894774 0 -0.090859)
(0.00114101 0 -0.0919043)
(0.000970245 0 -0.0878893)
(0.00129429 0 -0.0901191)
(0.000976448 0 -0.0829449)
(0.00132815 0 -0.0858684)
(0.000963435 0 -0.0768948)
(0.00131982 0 -0.0801977)
(0.000952646 0 -0.0702963)
(0.00130415 0 -0.0737648)
(0.000951583 0 -0.0635274)
(0.00129505 0 -0.0670089)
(0.000960997 0 -0.0568509)
(0.00129593 0 -0.0602366)
(0.000978754 0 -0.0504472)
(0.00130632 0 -0.0536622)
(0.00100194 0 -0.044433)
(0.00132407 0 -0.0474302)
(0.00102785 0 -0.0388761)
(0.00134659 0 -0.0416297)
(0.00105434 0 -0.0338074)
(0.0013714 0 -0.0363081)
(0.00107987 0 -0.0292312)
(0.00139646 0 -0.0314812)
(0.00110348 0 -0.025133)
(0.00142032 0 -0.0271426)
(0.00112465 0 -0.0214863)
(0.00144213 0 -0.0232708)
(0.0011432 0 -0.0182569)
(0.00146148 0 -0.0198349)
(0.00115913 0 -0.0154071)
(0.00147827 0 -0.0167982)
(0.00117257 0 -0.0128977)
(0.00149259 0 -0.0141219)
(0.00118372 0 -0.0106903)
(0.0015046 0 -0.0117668)
(0.00119284 0 -0.00874852)
(0.00151456 0 -0.0096954)
(0.00120023 0 -0.00703928)
(0.0015227 0 -0.00787273)
(0.00120621 0 -0.00553372)
(0.00152931 0 -0.00626759)
(0.00121121 0 -0.00420795)
(0.0015348 0 -0.00485361)
(0.00121567 0 -0.00304271)
(0.00153938 0 -0.00360952)
(0.00122 0 -0.00202291)
(0.00154428 0 -0.00251804)
(0.00122435 0 -0.0011008)
(0.00155564 0 -0.00156542)
(0.00154834 0 -0.000668954)
(0.0516581 0 -0.486709)
(0.0470121 0 -0.390119)
(0.0391941 0 -0.669596)
(0.0540936 0 -0.582634)
(-0.010412 0 -0.7287)
(0.0180609 0 -0.736557)
(-0.0476505 0 -0.612079)
(-0.0372939 0 -0.693363)
(-0.0482012 0 -0.443239)
(-0.0538824 0 -0.51816)
(-0.0356489 0 -0.327181)
(-0.0428492 0 -0.371379)
(-0.0250076 0 -0.26473)
(-0.0309269 0 -0.290233)
(-0.0180557 0 -0.225305)
(-0.0225656 0 -0.245095)
(-0.0130614 0 -0.187909)
(-0.0170609 0 -0.209717)
(-0.00791377 0 -0.140032)
(-0.0124282 0 -0.169746)
(-0.000139307 0 -0.0682631)
(-0.00550125 0 -0.114829)
(0.0125764 0 0.042084)
(0.000243519 0 -0.0285605)
(0.0333601 0 0.166936)
(0.0276462 0 0.102041)
(0.0868827 0 0.0167419)
(0.0198088 0 0.208276)
(0.14266 0 -0.772979)
(0.172001 0 -0.206614)
(-0.0748605 0 -1.00975)
(0.0621873 0 -1.28058)
(-0.111646 0 -0.248874)
(-0.177301 0 -0.649983)
(-0.0528399 0 0.170726)
(-0.0524064 0 0.150204)
(-0.0258874 0 0.112319)
(-0.0404151 0 0.165272)
(-0.0118221 0 0.00961447)
(-0.0138088 0 0.0462171)
(-0.00488967 0 -0.0430634)
(-0.00692973 0 -0.0269565)
(-0.0012897 0 -0.071241)
(-0.00203318 0 -0.0627987)
(0.000444643 0 -0.0854232)
(0.000428623 0 -0.0817084)
(0.00123043 0 -0.0909226)
(0.00148728 0 -0.0902407)
(0.0015501 0 -0.0910403)
(0.00195615 0 -0.09222)
(0.0016564 0 -0.0879312)
(0.0021235 0 -0.0902292)
(0.00167354 0 -0.0829318)
(0.00215669 0 -0.085887)
(0.0016608 0 -0.076868)
(0.00214088 0 -0.0801832)
(0.00164516 0 -0.0702753)
(0.00211386 0 -0.073746)
(0.00163733 0 -0.0635197)
(0.00209192 0 -0.066999)
(0.00163974 0 -0.0568577)
(0.00208036 0 -0.0602397)
(0.00165118 0 -0.0504665)
(0.00207977 0 -0.053678)
(0.00166911 0 -0.0444615)
(0.00208834 0 -0.0474561)
(0.00169087 0 -0.0389105)
(0.00210337 0 -0.0416627)
(0.00171417 0 -0.0338448)
(0.00212211 0 -0.0363451)
(0.0017373 0 -0.0292694)
(0.00214226 0 -0.0315197)
(0.00175914 0 -0.0251703)
(0.00216217 0 -0.0271807)
(0.00177904 0 -0.0215215)
(0.00218083 0 -0.0233072)
(0.00179667 0 -0.0182895)
(0.0021977 0 -0.0198686)
(0.00181196 0 -0.0154365)
(0.00221256 0 -0.0168288)
(0.00182496 0 -0.0129239)
(0.00222537 0 -0.0141491)
(0.00183584 0 -0.0107132)
(0.00223625 0 -0.0117906)
(0.00184482 0 -0.00876832)
(0.00224535 0 -0.00971601)
(0.00185217 0 -0.00705634)
(0.0022529 0 -0.0078904)
(0.00185823 0 -0.00554867)
(0.00225912 0 -0.00628283)
(0.00186341 0 -0.00422165)
(0.00226442 0 -0.00486724)
(0.00186811 0 -0.00305609)
(0.0022689 0 -0.00362253)
(0.00187257 0 -0.00203611)
(0.00227392 0 -0.00253102)
(0.00187651 0 -0.00111138)
(0.00228671 0 -0.00157752)
(0.00227588 0 -0.000676371)
(0.0496383 0 -0.485952)
(0.0463995 0 -0.396694)
(0.0352776 0 -0.649524)
(0.0496634 0 -0.57306)
(-0.00975572 0 -0.701174)
(0.0155583 0 -0.706535)
(-0.044917 0 -0.599353)
(-0.0342075 0 -0.669922)
(-0.0485848 0 -0.446229)
(-0.052057 0 -0.515715)
(-0.0384156 0 -0.334393)
(-0.0444331 0 -0.378158)
(-0.0284748 0 -0.270547)
(-0.0339137 0 -0.29686)
(-0.0214775 0 -0.229428)
(-0.0258822 0 -0.24976)
(-0.0162373 0 -0.191473)
(-0.0203424 0 -0.21321)
(-0.0108976 0 -0.144494)
(-0.0157159 0 -0.173306)
(-0.00326059 0 -0.0750999)
(-0.00850787 0 -0.11992)
(0.00880026 0 0.0311626)
(-0.00426664 0 -0.0366009)
(0.02853 0 0.14295)
(0.0222108 0 0.0888881)
(0.0782033 0 -0.0162308)
(0.0169451 0 0.17516)
(0.122235 0 -0.720543)
(0.151138 0 -0.235968)
(-0.0602978 0 -0.927723)
(0.0542096 0 -1.1589)
(-0.100878 0 -0.253061)
(-0.151951 0 -0.62293)
(-0.0496282 0 0.143835)
(-0.051068 0 0.116038)
(-0.0234884 0 0.0988485)
(-0.036172 0 0.147845)
(-0.0101835 0 0.00233413)
(-0.0108342 0 0.0373472)
(-0.00365679 0 -0.0474338)
(-0.00528339 0 -0.0322814)
(-0.000241468 0 -0.0736104)
(-0.000488507 0 -0.0657217)
(0.0014531 0 -0.0866329)
(0.00176048 0 -0.0832297)
(0.00222399 0 -0.0915019)
(0.00271579 0 -0.0909666)
(0.00253158 0 -0.0912934)
(0.00313635 0 -0.0925238)
(0.00262363 0 -0.0880259)
(0.00326136 0 -0.0903246)
(0.00262331 0 -0.0829562)
(0.00325829 0 -0.0858867)
(0.00259159 0 -0.0768682)
(0.00321043 0 -0.0801471)
(0.00255722 0 -0.0702743)
(0.00315409 0 -0.073705)
(0.0025319 0 -0.0635274)
(0.00310585 0 -0.0669673)
(0.00251864 0 -0.0568769)
(0.00307156 0 -0.0602223)
(0.00251649 0 -0.050496)
(0.00305174 0 -0.0536751)
(0.00252289 0 -0.0444989)
(0.00304418 0 -0.0474653)
(0.00253502 0 -0.0389528)
(0.00304571 0 -0.0416811)
(0.00255039 0 -0.0338894)
(0.00305315 0 -0.0363695)
(0.00256705 0 -0.0293141)
(0.0030639 0 -0.0315475)
(0.00258367 0 -0.0252135)
(0.00307606 0 -0.0272098)
(0.00259936 0 -0.021562)
(0.00308835 0 -0.0233359)
(0.00261361 0 -0.0183266)
(0.00310003 0 -0.0198959)
(0.00262618 0 -0.01547)
(0.00311066 0 -0.0168539)
(0.00263701 0 -0.0129534)
(0.00312006 0 -0.0141718)
(0.00264618 0 -0.010739)
(0.0031282 0 -0.0118109)
(0.00265385 0 -0.00879052)
(0.00313514 0 -0.00973373)
(0.00266024 0 -0.00707541)
(0.00314101 0 -0.00790584)
(0.00266563 0 -0.00556528)
(0.00314598 0 -0.00629647)
(0.00267037 0 -0.00423672)
(0.00315039 0 -0.00487983)
(0.0026748 0 -0.00307028)
(0.00315422 0 -0.00363487)
(0.00267898 0 -0.002049)
(0.00315885 0 -0.00254326)
(0.00268246 0 -0.0011207)
(0.00317254 0 -0.00158829)
(0.00315893 0 -0.000682589)
(0.0465006 0 -0.483795)
(0.0445937 0 -0.401399)
(0.0312118 0 -0.630353)
(0.0447846 0 -0.562868)
(-0.00936926 0 -0.675687)
(0.0130072 0 -0.67948)
(-0.0420406 0 -0.586449)
(-0.0314113 0 -0.648141)
(-0.0479567 0 -0.447586)
(-0.0497342 0 -0.511771)
(-0.0401998 0 -0.340522)
(-0.0451308 0 -0.38333)
(-0.0313569 0 -0.275991)
(-0.0362389 0 -0.302755)
(-0.0246988 0 -0.233484)
(-0.0288653 0 -0.254199)
(-0.0195428 0 -0.195011)
(-0.0235733 0 -0.216648)
(-0.014309 0 -0.14876)
(-0.0192452 0 -0.176795)
(-0.00704804 0 -0.0814234)
(-0.012158 0 -0.124761)
(0.00394164 0 0.0210485)
(-0.00951489 0 -0.0439273)
(0.0224007 0 0.120876)
(0.0153021 0 0.0765823)
(0.0684558 0 -0.0449321)
(0.0133967 0 0.144457)
(0.103767 0 -0.67685)
(0.130889 0 -0.259509)
(-0.0495371 0 -0.85702)
(0.0464372 0 -1.05669)
(-0.090042 0 -0.254741)
(-0.130328 0 -0.595927)
(-0.0444133 0 0.119627)
(-0.0473807 0 0.0856187)
(-0.0195412 0 0.0861823)
(-0.0302727 0 0.131264)
(-0.00736285 0 -0.00428376)
(-0.00681092 0 0.0292283)
(-0.00155724 0 -0.0513557)
(-0.00270505 0 -0.0370181)
(0.00148334 0 -0.0757403)
(0.00181605 0 -0.0683239)
(0.00298481 0 -0.0877199)
(0.00363043 0 -0.0845777)
(0.00363481 0 -0.0920012)
(0.00438942 0 -0.0915787)
(0.00386045 0 -0.0914848)
(0.00468625 0 -0.0927468)
(0.00389098 0 -0.0880669)
(0.00471464 0 -0.0903564)
(0.00384079 0 -0.0829313)
(0.00463865 0 -0.0858324)
(0.00376722 0 -0.0768227)
(0.00453208 0 -0.0800634)
(0.00369729 0 -0.0702312)
(0.00442676 0 -0.0736215)
(0.00364166 0 -0.0634966)
(0.00433771 0 -0.0668977)
(0.00360265 0 -0.0568609)
(0.00426961 0 -0.0601712)
(0.00357872 0 -0.0504938)
(0.00422172 0 -0.0536422)
(0.00356679 0 -0.0445078)
(0.00419072 0 -0.0474482)
(0.00356359 0 -0.0389698)
(0.0041726 0 -0.0416763)
(0.00356619 0 -0.0339116)
(0.00416357 0 -0.0363738)
(0.0035723 0 -0.029339)
(0.00416056 0 -0.0315578)
(0.00358019 0 -0.0252393)
(0.00416127 0 -0.0272236)
(0.00358869 0 -0.0215873)
(0.00416409 0 -0.0233515)
(0.00359702 0 -0.0183505)
(0.00416794 0 -0.0199119)
(0.00360472 0 -0.0154919)
(0.00417214 0 -0.0168695)
(0.0036116 0 -0.0129731)
(0.00417629 0 -0.0141864)
(0.00361757 0 -0.0107564)
(0.00418015 0 -0.0118242)
(0.0036227 0 -0.00880578)
(0.00418366 0 -0.00974571)
(0.00362711 0 -0.00708886)
(0.00418682 0 -0.00791664)
(0.00363102 0 -0.00557755)
(0.00418971 0 -0.00630648)
(0.0036347 0 -0.00424855)
(0.00419258 0 -0.00488969)
(0.00363834 0 -0.00308201)
(0.00419527 0 -0.00364516)
(0.00364189 0 -0.00205988)
(0.00419912 0 -0.00255379)
(0.00364486 0 -0.0011286)
(0.00421328 0 -0.00159756)
(0.00419729 0 -0.000687982)
(0.0429051 0 -0.480541)
(0.0420835 0 -0.404531)
(0.0273103 0 -0.612271)
(0.039951 0 -0.552471)
(-0.00926269 0 -0.652288)
(0.0105454 0 -0.655099)
(-0.0394548 0 -0.57366)
(-0.0291269 0 -0.628013)
(-0.0469402 0 -0.447532)
(-0.0474264 0 -0.50678)
(-0.0413735 0 -0.345502)
(-0.0453385 0 -0.387041)
(-0.0337904 0 -0.280892)
(-0.0380982 0 -0.307811)
(-0.0277315 0 -0.237303)
(-0.0315775 0 -0.258238)
(-0.0229303 0 -0.19838)
(-0.0267481 0 -0.219848)
(-0.0181077 0 -0.152739)
(-0.0229507 0 -0.18001)
(-0.0116954 0 -0.0872613)
(-0.0163314 0 -0.129036)
(-0.00143571 0 0.0116091)
(-0.0150937 0 -0.0507672)
(0.0153996 0 0.10012)
(0.00775278 0 0.0653586)
(0.0588851 0 -0.0703658)
(0.00910238 0 0.115467)
(0.0876811 0 -0.640446)
(0.112652 0 -0.278706)
(-0.0414767 0 -0.796757)
(0.0391969 0 -0.970587)
(-0.0794198 0 -0.255898)
(-0.112051 0 -0.570631)
(-0.0376579 0 0.0971489)
(-0.0419204 0 0.0577775)
(-0.0143557 0 0.0743049)
(-0.0232022 0 0.115729)
(-0.00353119 0 -0.0101493)
(-0.00198816 0 0.022012)
(0.00124878 0 -0.0547232)
(0.00065374 0 -0.0409179)
(0.00380925 0 -0.0775475)
(0.00475371 0 -0.0705152)
(0.00500102 0 -0.0885937)
(0.00598859 0 -0.0856476)
(0.00544325 0 -0.0923468)
(0.0064791 0 -0.0919953)
(0.00552639 0 -0.0915594)
(0.00658481 0 -0.0928291)
(0.00545208 0 -0.0880135)
(0.00646911 0 -0.0902796)
(0.00532083 0 -0.082827)
(0.00628678 0 -0.0856899)
(0.00518266 0 -0.0767089)
(0.00609643 0 -0.0799061)
(0.00506014 0 -0.0701284)
(0.00592359 0 -0.0734752)
(0.00496116 0 -0.0634131)
(0.00577992 0 -0.0667738)
(0.0048862 0 -0.0567984)
(0.0056673 0 -0.0600728)
(0.00483233 0 -0.0504506)
(0.00558273 0 -0.053568)
(0.00479544 0 -0.0444807)
(0.00552128 0 -0.047395)
(0.00477143 0 -0.0389553)
(0.00547771 0 -0.04164)
(0.0047567 0 -0.0339063)
(0.00544741 0 -0.0363505)
(0.00474838 0 -0.02934)
(0.00542664 0 -0.031544)
(0.00474429 0 -0.0252442)
(0.00541258 0 -0.0272165)
(0.00474284 0 -0.0215946)
(0.00540314 0 -0.0233489)
(0.00474292 0 -0.0183589)
(0.00539685 0 -0.0199122)
(0.00474384 0 -0.0155006)
(0.00539268 0 -0.0168716)
(0.00474514 0 -0.0129816)
(0.00538996 0 -0.0141894)
(0.0047466 0 -0.0107644)
(0.00538825 0 -0.0118277)
(0.00474813 0 -0.00881333)
(0.00538727 0 -0.0097495)
(0.00474972 0 -0.00709617)
(0.00538688 0 -0.00792075)
(0.00475148 0 -0.00558508)
(0.00538703 0 -0.00631121)
(0.00475358 0 -0.00425679)
(0.00538785 0 -0.0048955)
(0.00475606 0 -0.00309102)
(0.00538902 0 -0.00365236)
(0.00475875 0 -0.0020687)
(0.00539181 0 -0.00256193)
(0.00476112 0 -0.00113523)
(0.00540615 0 -0.00160507)
(0.00538805 0 -0.000692552)
(0.0391407 0 -0.476523)
(0.0391634 0 -0.406368)
(0.0236233 0 -0.595436)
(0.0353212 0 -0.542126)
(-0.00940848 0 -0.630988)
(0.00818575 0 -0.633077)
(-0.0372697 0 -0.561245)
(-0.0273623 0 -0.609439)
(-0.045844 0 -0.446332)
(-0.04534 0 -0.501064)
(-0.0422031 0 -0.349345)
(-0.0453048 0 -0.389468)
(-0.0359179 0 -0.285127)
(-0.0396477 0 -0.312)
(-0.0306166 0 -0.240744)
(-0.0340809 0 -0.261772)
(-0.0263682 0 -0.201436)
(-0.029858 0 -0.22268)
(-0.0221789 0 -0.156247)
(-0.0267347 0 -0.182803)
(-0.0169108 0 -0.0923529)
(-0.0208476 0 -0.132548)
(-0.00883979 0 0.00293353)
(-0.020726 0 -0.0561476)
(0.00789522 0 0.080372)
(9.4594e-05 0 0.0542021)
(0.0497799 0 -0.0932103)
(0.00445906 0 0.0875438)
(0.073791 0 -0.60963)
(0.0965419 0 -0.294714)
(-0.0353305 0 -0.745243)
(0.0326982 0 -0.897839)
(-0.0691499 0 -0.257288)
(-0.0965078 0 -0.548085)
(-0.0300568 0 0.0762021)
(-0.0355231 0 0.0317155)
(-0.00834021 0 0.063369)
(-0.015491 0 0.101251)
(0.00128818 0 -0.0151075)
(0.003425 0 0.0155931)
(0.00483195 0 -0.0573767)
(0.00465358 0 -0.0438091)
(0.00668555 0 -0.0789431)
(0.00813274 0 -0.0721016)
(0.0074497 0 -0.0891863)
(0.0087609 0 -0.0863337)
(0.00761399 0 -0.0924912)
(0.0089325 0 -0.0921501)
(0.00750458 0 -0.0914839)
(0.00879454 0 -0.0927211)
(0.00728845 0 -0.0878423)
(0.00849836 0 -0.0900558)
(0.00704888 0 -0.0826271)
(0.00818237 0 -0.0854297)
(0.00682575 0 -0.0765155)
(0.00788722 0 -0.0796519)
(0.00663514 0 -0.069958)
(0.00763125 0 -0.0732475)
(0.00648083 0 -0.0632715)
(0.00742104 0 -0.0665804)
(0.0063605 0 -0.0566857)
(0.00725442 0 -0.0599147)
(0.00626921 0 -0.0503638)
(0.00712552 0 -0.0534423)
(0.00620131 0 -0.0444157)
(0.00702736 0 -0.0472969)
(0.00615152 0 -0.0389078)
(0.00695326 0 -0.0415647)
(0.00611536 0 -0.0338723)
(0.00689753 0 -0.0362931)
(0.0060892 0 -0.0293161)
(0.00685559 0 -0.0315005)
(0.00607026 0 -0.0252277)
(0.00682392 0 -0.0271835)
(0.00605647 0 -0.0215834)
(0.00679988 0 -0.0233238)
(0.00604634 0 -0.0183513)
(0.0067815 0 -0.019893)
(0.00603884 0 -0.0154956)
(0.00676738 0 -0.0168567)
(0.00603327 0 -0.0129785)
(0.0067565 0 -0.014178)
(0.00602917 0 -0.0107627)
(0.00674816 0 -0.0118189)
(0.00602626 0 -0.00881287)
(0.00674185 0 -0.00974311)
(0.00602438 0 -0.00709707)
(0.00673727 0 -0.00791658)
(0.00602352 0 -0.00558761)
(0.00673419 0 -0.00630939)
(0.00602366 0 -0.00426122)
(0.0067326 0 -0.00489628)
(0.00602473 0 -0.00309711)
(0.00673201 0 -0.00365574)
(0.00602641 0 -0.00207536)
(0.00673356 0 -0.00256721)
(0.00602813 0 -0.00114054)
(0.00674784 0 -0.00161064)
(0.00672791 0 -0.000696259)
(0.0353434 0 -0.472008)
(0.0360153 0 -0.407151)
(0.0201455 0 -0.57983)
(0.0309393 0 -0.531994)
(-0.00977751 0 -0.611601)
(0.00591571 0 -0.613128)
(-0.0354966 0 -0.549312)
(-0.0260679 0 -0.592292)
(-0.0448085 0 -0.444232)
(-0.0435457 0 -0.494856)
(-0.0428407 0 -0.352136)
(-0.0451705 0 -0.39078)
(-0.0378322 0 -0.288642)
(-0.0409859 0 -0.315339)
(-0.0333719 0 -0.243696)
(-0.0364091 0 -0.264745)
(-0.0297959 0 -0.204038)
(-0.0328715 0 -0.225064)
(-0.0263629 0 -0.159122)
(-0.0304783 0 -0.185091)
(-0.0221649 0 -0.096439)
(-0.0254423 0 -0.135346)
(-0.0153772 0 -0.00488816)
(-0.026242 0 -0.0606726)
(8.53075e-05 0 0.0612606)
(-0.00747244 0 0.043894)
(0.0413605 0 -0.114297)
(-7.04727e-05 0 0.0600272)
(0.0619591 0 -0.583504)
(0.0826024 0 -0.308446)
(-0.0305104 0 -0.701307)
(0.0271707 0 -0.836193)
(-0.0594923 0 -0.259433)
(-0.0832096 0 -0.528764)
(-0.0222232 0 0.0565723)
(-0.0288733 0 0.00686958)
(-0.00205167 0 0.05346)
(-0.00760467 0 0.0878034)
(0.00588908 0 -0.0191479)
(0.00917306 0 0.0102993)
(0.00867668 0 -0.0593068)
(0.00914453 0 -0.0460834)
(0.00993039 0 -0.0798538)
(0.0118094 0 -0.0731745)
(0.0102456 0 -0.0894385)
(0.0118551 0 -0.0866166)
(0.0100943 0 -0.092391)
(0.0116781 0 -0.0920077)
(0.00975779 0 -0.0912246)
(0.0112652 0 -0.0923889)
(0.00937246 0 -0.0875272)
(0.0107659 0 -0.0896567)
(0.00900358 0 -0.0823112)
(0.0102972 0 -0.085029)
(0.00867922 0 -0.0762263)
(0.00988223 0 -0.0792823)
(0.00840789 0 -0.0697069)
(0.00953164 0 -0.0729232)
(0.00818835 0 -0.0630613)
(0.00924575 0 -0.0663052)
(0.00801482 0 -0.056514)
(0.00901769 0 -0.0596865)
(0.00787982 0 -0.0502261)
(0.00883837 0 -0.0532561)
(0.00777582 0 -0.0443066)
(0.00869855 0 -0.0471466)
(0.00769612 0 -0.0388219)
(0.0085899 0 -0.0414438)
(0.00763509 0 -0.0338048)
(0.00850546 0 -0.0361961)
(0.00758825 0 -0.029263)
(0.00843967 0 -0.0314224)
(0.00755211 0 -0.0251858)
(0.00838821 0 -0.0271204)
(0.00752405 0 -0.0215501)
(0.00834774 0 -0.0232725)
(0.00750212 0 -0.0183247)
(0.00831579 0 -0.019851)
(0.00748492 0 -0.0154742)
(0.00829049 0 -0.0168224)
(0.00747143 0 -0.0129614)
(0.00827046 0 -0.0141498)
(0.00746094 0 -0.0107492)
(0.0082547 0 -0.0117961)
(0.00745295 0 -0.00880272)
(0.00824246 0 -0.00972495)
(0.00744714 0 -0.00709016)
(0.0082332 0 -0.00790284)
(0.00744329 0 -0.00558403)
(0.00822656 0 -0.00630002)
(0.00744125 0 -0.00426096)
(0.00822231 0 -0.00489124)
(0.00744075 0 -0.00309969)
(0.00821979 0 -0.00365476)
(0.00744135 0 -0.00207955)
(0.00822004 0 -0.00256936)
(0.00744242 0 -0.00114445)
(0.00823411 0 -0.00161419)
(0.0082126 0 -0.000699106)
(0.0316018 0 -0.467167)
(0.0327694 0 -0.407085)
(0.0168682 0 -0.565344)
(0.0268239 0 -0.522172)
(-0.0103408 0 -0.593879)
(0.00372647 0 -0.594989)
(-0.0341201 0 -0.537877)
(-0.025188 0 -0.576439)
(-0.0439044 0 -0.441424)
(-0.0420641 0 -0.488333)
(-0.0433699 0 -0.353989)
(-0.0450143 0 -0.391136)
(-0.0395758 0 -0.291441)
(-0.042166 0 -0.317869)
(-0.0359818 0 -0.24611)
(-0.0385681 0 -0.267141)
(-0.0331266 0 -0.206122)
(-0.0357433 0 -0.226968)
(-0.0304792 0 -0.161348)
(-0.0340853 0 -0.186856)
(-0.0272931 0 -0.0996892)
(-0.0299452 0 -0.13747)
(-0.021505 0 -0.0121288)
(-0.031482 0 -0.0645314)
(-0.0054887 0 0.0425905)
(-0.0147243 0 0.0332164)
(0.0340561 0 -0.134116)
(-0.00413892 0 0.033664)
(0.0521269 0 -0.561471)
(0.0708192 0 -0.320493)
(-0.0264702 0 -0.664048)
(0.0227806 0 -0.783795)
(-0.0506231 0 -0.26272)
(-0.0716719 0 -0.512662)
(-0.01452 0 0.0378839)
(-0.0224049 0 -0.0171991)
(0.0047744 0 0.044535)
(0.000142711 0 0.0749405)
(0.0111649 0 -0.0223042)
(0.0149676 0 0.00603899)
(0.0128883 0 -0.0605911)
(0.0139219 0 -0.0474895)
(0.0134511 0 -0.0802706)
(0.0157032 0 -0.0736561)
(0.0133001 0 -0.0893249)
(0.0151854 0 -0.0864811)
(0.0128183 0 -0.0920182)
(0.0146399 0 -0.091554)
(0.0122375 0 -0.0907552)
(0.0139389 0 -0.0918152)
(0.0116674 0 -0.0870457)
(0.0132268 0 -0.089066)
(0.0111561 0 -0.0818603)
(0.0125955 0 -0.0844733)
(0.0107198 0 -0.0758252)
(0.0120526 0 -0.078785)
(0.0103591 0 -0.0693618)
(0.0116009 0 -0.072492)
(0.0100674 0 -0.062771)
(0.0112337 0 -0.0659394)
(0.00983502 0 -0.0562737)
(0.0109395 0 -0.0593809)
(0.00965174 0 -0.0500292)
(0.0107058 0 -0.0530033)
(0.00950792 0 -0.0441461)
(0.0105211 0 -0.0469385)
(0.00939523 0 -0.0386913)
(0.0103753 0 -0.0412728)
(0.00930682 0 -0.0336984)
(0.0102601 0 -0.0360554)
(0.00923721 0 -0.029176)
(0.0101687 0 -0.0313063)
(0.00918215 0 -0.0251143)
(0.010096 0 -0.0270242)
(0.00913841 0 -0.021491)
(0.0100379 0 -0.0231924)
(0.00910353 0 -0.0182758)
(0.00999141 0 -0.0197841)
(0.0090757 0 -0.0154337)
(0.00995415 0 -0.0167665)
(0.00905355 0 -0.0129279)
(0.00992434 0 -0.0141033)
(0.0090361 0 -0.0107221)
(0.00990066 0 -0.0117577)
(0.0090226 0 -0.00878131)
(0.0098821 0 -0.00969393)
(0.00901252 0 -0.00707422)
(0.00986791 0 -0.00787869)
(0.00900548 0 -0.00557341)
(0.0098575 0 -0.00628242)
(0.0090011 0 -0.00425537)
(0.00985048 0 -0.00487992)
(0.00899896 0 -0.00309839)
(0.00984598 0 -0.00364914)
(0.00899848 0 -0.00208111)
(0.00984491 0 -0.00256828)
(0.00899893 0 -0.00114694)
(0.00985872 0 -0.00161575)
(0.00983582 0 -0.000701142)
(0.027979 0 -0.46212)
(0.0295248 0 -0.406341)
(0.013784 0 -0.551868)
(0.0229842 0 -0.512708)
(-0.0110666 0 -0.577606)
(0.00161609 0 -0.578422)
(-0.0331073 0 -0.526935)
(-0.0246629 0 -0.561746)
(-0.0431631 0 -0.438063)
(-0.0408854 0 -0.481629)
(-0.0438369 0 -0.355019)
(-0.0448752 0 -0.390687)
(-0.0411637 0 -0.293565)
(-0.0432115 0 -0.319651)
(-0.0384196 0 -0.247994)
(-0.040546 0 -0.268971)
(-0.0362912 0 -0.207701)
(-0.0384245 0 -0.228387)
(-0.0344186 0 -0.162987)
(-0.037477 0 -0.188105)
(-0.0321941 0 -0.102322)
(-0.0342483 0 -0.138953)
(-0.0272959 0 -0.0191824)
(-0.0363467 0 -0.0677968)
(-0.0111181 0 0.0241982)
(-0.0213003 0 0.0224311)
(0.0277405 0 -0.152883)
(-0.00744744 0 0.00775817)
(0.0442008 0 -0.543015)
(0.0609771 0 -0.331467)
(-0.0227375 0 -0.632609)
(0.019588 0 -0.739169)
(-0.0425202 0 -0.267279)
(-0.0613857 0 -0.499473)
(-0.00731077 0 0.0197537)
(-0.0163807 0 -0.0406721)
(0.0113855 0 0.0363615)
(0.00751625 0 0.0624763)
(0.0165027 0 -0.0245823)
(0.0206059 0 0.00262754)
(0.0172856 0 -0.0611931)
(0.0187778 0 -0.0481282)
(0.0171578 0 -0.0801843)
(0.0196924 0 -0.0735467)
(0.0165358 0 -0.0888412)
(0.0186499 0 -0.0859228)
(0.015719 0 -0.0913631)
(0.0177369 0 -0.0907847)
(0.014889 0 -0.0900636)
(0.0167519 0 -0.0909953)
(0.0141291 0 -0.0863857)
(0.0158288 0 -0.0882786)
(0.0134704 0 -0.0812633)
(0.0150345 0 -0.0837574)
(0.0129176 0 -0.0753025)
(0.0143629 0 -0.0781547)
(0.0124636 0 -0.068914)