/*--------------------------------*- C++ -*----------------------------------*\
  =========                 |
  \\      /  F ield         | OpenFOAM: The Open Source CFD Toolbox
   \\    /   O peration     | Website:  https://openfoam.org
    \\  /    A nd           | Version:  9
     \\/     M anipulation  |
\*---------------------------------------------------------------------------*/
FoamFile
{
    format      ascii;
    class       volScalarField;
    location    "0.07";
    object      alpha.water;
}
// * * * * * * * * * * * * * * * * * * * * * * * * * * * * * * * * * * * * * //

dimensions      [0 0 0 0 0 0 0];

internalField   nonuniform List<scalar> 
20000
(
4.39284e-319
4.19659e-319
4.00905e-319
3.8298e-319
3.65846e-319
3.49482e-319
3.3384e-319
6.37809e-319
1.30997e-317
1.91789e-316
2.8838e-315
4.49644e-314
7.26289e-313
1.21421e-311
2.0989e-310
3.74735e-309
6.9018e-308
1.30965e-306
2.55721e-305
5.13257e-304
1.05788e-302
2.23501e-301
4.80865e-300
1.02987e-298
2.07253e-297
3.64767e-296
5.78661e-295
9.44446e-294
1.69271e-292
3.47867e-291
1.37312e-287
9.91087e-287
1.18784e-286
3.98438e-285
1.75479e-283
5.07511e-281
2.6803e-280
3.05897e-280
1.16642e-278
4.75553e-277
3.63909e-275
5.7274e-277
6.61379e-276
2.08454e-274
6.10551e-273
1.74285e-271
7.8246e-273
1.19502e-271
4.43141e-270
1.62569e-268
6.81325e-267
5.62783e-265
8.32471e-267
7.17566e-266
2.60049e-264
9.29664e-263
3.79669e-261
2.89125e-259
3.25353e-261
5.91075e-263
1.26425e-264
2.80512e-266
6.11897e-268
1.35453e-269
1.9531e-269
6.46809e-268
1.46096e-265
9.4708e-268
1.87525e-269
4.13455e-271
1.26386e-272
7.19878e-274
1.88549e-275
5.1902e-277
1.54544e-278
4.91567e-280
1.65087e-281
5.95117e-283
2.75498e-284
1.17104e-284
8.65707e-286
3.18518e-288
1.26246e-289
5.61344e-291
2.69617e-292
1.4043e-293
7.95054e-295
4.86403e-296
3.17533e-297
2.18039e-298
1.55626e-299
1.14569e-300
8.6642e-302
6.72056e-303
5.34701e-304
4.36727e-305
3.66629e-306
3.16757e-307
2.81964e-308
2.5687e-309
4.39284e-319
4.19659e-319
4.00885e-319
3.8296e-319
3.65826e-319
3.49463e-319
6.67641e-319
7.65309e-318
9.99136e-317
1.39329e-315
2.01725e-314
3.0231e-313
4.68441e-312
7.49745e-311
1.23799e-309
2.10619e-308
3.68667e-307
6.6297e-306
1.22319e-304
2.31295e-303
4.47832e-302
8.85981e-301
1.77572e-299
3.50373e-298
6.3793e-297
9.99035e-296
1.38885e-294
1.98933e-293
3.57812e-292
9.99095e-291
2.8915e-287
3.11152e-286
5.36177e-286
1.23822e-284
3.67329e-283
1.80336e-280
1.36563e-279
2.82304e-279
7.76452e-278
2.34595e-276
1.09982e-274
6.04356e-276
7.00215e-275
1.87833e-273
4.69091e-272
1.19102e-270
5.28236e-272
6.08052e-271
1.88941e-269
5.58782e-268
1.81065e-266
1.55385e-264
3.4547e-266
4.37484e-265
1.27018e-263
3.60512e-262
1.16462e-260
9.04716e-259
9.86398e-261
2.21395e-262
5.56659e-264
1.40959e-265
3.4827e-267
8.61815e-269
6.11737e-269
1.65695e-267
2.77172e-265
2.21587e-267
5.82779e-269
1.52497e-270
5.38846e-272
3.51559e-273
1.01482e-274
3.18601e-276
1.07674e-277
3.87974e-279
1.50643e-280
6.54178e-282
3.77917e-283
1.08525e-283
4.67392e-285
1.47473e-287
3.70352e-289
1.68569e-290
8.68748e-292
4.94669e-293
3.08936e-294
2.08745e-295
1.49778e-296
1.12171e-297
8.65841e-299
6.83905e-300
5.51137e-301
4.52962e-302
3.80044e-303
3.26044e-304
2.8653e-305
2.58387e-306
2.39445e-307
2.26434e-308
4.39313e-319
4.19679e-319
4.00905e-319
3.8298e-319
3.65846e-319
3.49463e-319
2.33677e-318
3.09317e-317
3.95695e-316
5.34178e-315
7.45895e-314
1.07646e-312
1.60395e-311
2.46463e-310
3.90041e-309
6.348e-308
1.06083e-306
1.81728e-305
3.18621e-304
5.70878e-303
1.0435e-301
1.93916e-300
3.62508e-299
6.61297e-298
1.10433e-296
1.57693e-295
1.97446e-294
2.51451e-293
5.03297e-292
1.60049e-290
3.4829e-287
5.53681e-286
1.39399e-285
2.64365e-284
7.27189e-283
4.4878e-280
4.77737e-279
1.33673e-278
2.96345e-277
7.36418e-276
2.37432e-274
3.69577e-275
3.75843e-274
8.73753e-273
1.91413e-271
4.26103e-270
1.97835e-271
1.8369e-270
4.98169e-269
1.243e-267
3.21468e-266
2.64872e-264
1.06058e-265
1.53183e-264
3.78511e-263
8.96891e-262
2.38932e-260
1.70491e-258
2.01057e-260
5.15192e-262
1.44579e-263
4.04305e-265
1.10952e-266
3.04982e-268
1.29712e-268
3.2419e-267
3.89752e-265
4.50594e-267
1.26619e-268
3.65457e-270
1.44621e-271
1.03056e-272
3.22615e-274
1.1093e-275
4.10715e-277
1.61117e-278
6.81317e-280
3.22717e-281
2.02349e-282
4.20483e-283
1.68024e-284
5.67447e-287
1.20678e-288
4.76419e-290
2.35079e-291
1.32659e-292
8.40456e-294
5.85296e-295
4.37132e-296
3.42576e-297
2.77309e-298
2.29777e-299
1.94098e-300
1.66989e-301
1.46424e-302
1.31051e-303
1.19935e-304
1.12432e-305
1.08126e-306
1.05891e-307
4.39382e-319
4.19738e-319
4.00964e-319
3.83039e-319
3.65895e-319
6.99024e-319
7.34506e-318
8.83409e-317
1.10526e-315
1.43995e-314
1.94004e-313
2.69963e-312
3.87517e-311
5.73039e-310
8.71651e-309
1.36164e-307
2.18063e-306
3.57348e-305
5.98075e-304
1.02024e-302
1.76955e-301
3.10642e-300
5.45517e-299
9.29652e-298
1.4479e-296
1.93487e-295
2.25774e-294
2.69796e-293
5.65813e-292
1.90746e-290
3.24311e-287
7.30837e-286
2.61372e-285
4.40502e-284
1.34021e-282
9.58444e-280
1.27603e-278
4.52085e-278
8.55256e-277
1.86889e-275
4.60252e-274
1.59284e-274
1.38822e-273
2.84954e-272
5.55233e-271
1.078e-269
5.42161e-271
4.34664e-270
1.06544e-268
2.36599e-267
5.3827e-266
3.75523e-264
2.73869e-265
4.0471e-264
8.94998e-263
1.87439e-261
4.44552e-260
2.61648e-258
3.5871e-260
9.71094e-262
2.93353e-263
8.86577e-265
2.65345e-266
7.96034e-268
2.39983e-268
5.6356e-267
5.06397e-265
8.22056e-267
2.41383e-268
7.48832e-270
3.23874e-271
2.41497e-272
8.00295e-274
2.89999e-275
1.13043e-276
4.62808e-278
2.03101e-279
9.95267e-281
6.48937e-282
9.8973e-283
4.20115e-284
2.05525e-286
4.31862e-288
1.69384e-289
7.78571e-291
4.06952e-292
2.40372e-293
1.58479e-294
1.14439e-295
8.84844e-297
7.18628e-298
6.04705e-299
5.2292e-300
4.62829e-301
4.18686e-302
3.87153e-303
3.66251e-304
3.54894e-305
3.52648e-306
3.56478e-307
4.39501e-319
4.19847e-319
4.01073e-319
3.83128e-319
3.65984e-319
1.39838e-318
1.7699e-317
2.08302e-316
2.50719e-315
3.13355e-314
4.05577e-313
5.42693e-312
7.49483e-311
1.06646e-309
1.56064e-308
2.34422e-307
3.60695e-306
5.67266e-305
9.09813e-304
1.48445e-302
2.45628e-301
4.09966e-300
6.81673e-299
1.0965e-297
1.61606e-296
2.06299e-295
2.3053e-294
2.63901e-293
5.52406e-292
1.90709e-290
2.43126e-287
7.97177e-286
3.91537e-285
6.20199e-284
2.24456e-282
1.76831e-279
2.74568e-278
1.1957e-277
2.05067e-276
4.11291e-275
8.55105e-274
5.38318e-274
4.03076e-273
7.38276e-272
1.29388e-270
2.18776e-269
1.2146e-270
8.95148e-270
2.03559e-268
4.19157e-267
9.17903e-266
4.91657e-264
6.09917e-265
8.94643e-264
1.83759e-262
3.57222e-261
8.08509e-260
3.64542e-258
6.02075e-260
1.65134e-261
5.24797e-263
1.68319e-264
5.38733e-266
1.72751e-267
4.297e-268
9.33421e-267
6.42529e-265
1.51436e-266
4.49395e-268
1.46205e-269
6.73317e-271
5.01655e-272
1.70475e-273
6.26284e-275
2.48369e-276
1.03298e-277
4.5981e-279
2.2772e-280
1.50071e-281
1.77967e-282
8.22671e-284
6.1648e-286
1.61065e-287
6.41667e-289
2.886e-290
1.44083e-291
7.96563e-293
4.85957e-294
3.25112e-295
2.36012e-296
1.83425e-297
1.50556e-298
1.29047e-299
1.14588e-300
1.04889e-301
9.87172e-303
9.54223e-304
9.47177e-305
9.65678e-306
1.00231e-306
4.39679e-319
4.20015e-319
4.01221e-319
3.83276e-319
3.66122e-319
4.5464e-318
4.3762e-317
4.80568e-316
5.39985e-315
6.32262e-314
7.70682e-313
9.75923e-312
1.28092e-310
1.73826e-309
2.43256e-308
3.50105e-307
5.16802e-306
7.80231e-305
1.20126e-303
1.88025e-302
2.98041e-301
4.75444e-300
7.53472e-299
1.15394e-297
1.62832e-296
2.01692e-295
2.20283e-294
2.41741e-293
4.93695e-292
1.70918e-290
1.5903e-287
7.70004e-286
4.97153e-285
8.16419e-284
3.45034e-282
2.84359e-279
4.94334e-278
2.58671e-277
4.26465e-276
8.1805e-275
1.54261e-273
1.53352e-273
9.95191e-273
1.63376e-271
2.5957e-270
3.82034e-269
2.36935e-270
1.69639e-269
3.64295e-268
7.1376e-267
1.55528e-265
6.20533e-264
1.20559e-264
1.7518e-263
3.42851e-262
6.38666e-261
1.41734e-259
4.83456e-258
9.70259e-260
2.69801e-261
8.88713e-263
2.97324e-264
9.97069e-266
3.34544e-267
7.89255e-268
1.57228e-266
8.08381e-265
2.65512e-266
8.30601e-268
2.79692e-269
1.3389e-270
9.6095e-272
3.25773e-273
1.1798e-274
4.6655e-276
1.94431e-277
8.6392e-279
4.25624e-280
2.78253e-281
2.80166e-282
1.38175e-283
1.6784e-285
5.26446e-287
2.17198e-288
1.00196e-289
5.05203e-291
2.7672e-292
1.63978e-293
1.04843e-294
7.21334e-296
5.31655e-297
4.17e-298
3.4537e-299
2.99818e-300
2.71154e-301
2.54358e-302
2.4677e-303
2.47178e-304
2.55363e-305
2.69459e-306
4.39916e-319
4.20242e-319
4.01438e-319
3.83474e-319
1.4652e-318
1.60951e-317
1.44384e-316
1.40663e-315
1.41907e-314
1.49459e-313
1.64469e-312
1.89126e-311
2.27089e-310
2.84245e-309
3.69953e-308
4.99061e-307
6.95177e-306
9.95915e-305
1.46116e-303
2.18562e-302
3.31566e-301
5.063e-300
7.67786e-299
1.12712e-297
1.53742e-296
1.87049e-295
2.02828e-294
2.14559e-293
4.18919e-292
1.42668e-290
1.16665e-287
6.81775e-286
5.53245e-285
1.0189e-283
4.9548e-282
4.04806e-279
7.70838e-278
4.79373e-277
7.82899e-276
1.49394e-274
2.7015e-273
3.84585e-273
2.19813e-272
3.2397e-271
4.68772e-270
6.00208e-269
4.21876e-270
3.08343e-269
6.30209e-268
1.18635e-266
2.54726e-265
7.70223e-264
2.18583e-264
3.15992e-263
5.98787e-262
1.08574e-260
2.35729e-259
6.24731e-258
1.52355e-259
4.39021e-261
1.48969e-262
5.12465e-264
1.76619e-265
6.07921e-267
1.54871e-267
2.83802e-266
1.01156e-264
4.37459e-266
1.48707e-267
5.17205e-269
2.53215e-270
1.71782e-271
5.72216e-273
2.00876e-274
7.80004e-276
3.20564e-277
1.40137e-278
6.83516e-280
4.40489e-281
3.9497e-282
2.05174e-283
4.19436e-285
1.40944e-286
6.13122e-288
2.986e-289
1.57834e-290
8.97053e-292
5.45174e-293
3.53061e-294
2.43088e-295
1.77514e-296
1.37041e-297
1.11393e-298
9.49321e-300
8.4494e-301
7.82933e-302
7.53514e-303
7.52016e-304
7.77377e-305
8.24369e-306
4.40232e-319
4.20529e-319
4.01715e-319
7.67442e-319
8.79684e-318
7.63246e-317
6.61159e-316
5.92312e-315
5.46772e-314
5.21141e-313
5.13648e-312
5.24497e-311
5.56013e-310
6.13157e-309
7.04546e-308
8.44175e-307
1.05422e-305
1.36938e-304
1.84358e-303
2.55935e-302
3.63918e-301
5.25082e-300
7.57695e-299
1.06751e-297
1.41753e-296
1.71379e-295
1.88114e-294
2.01386e-293
3.53095e-292
1.18341e-290
9.47276e-288
5.78608e-286
5.56631e-285
1.21222e-283
6.75189e-282
5.19448e-279
1.06987e-277
7.75655e-277
1.28236e-275
2.5222e-274
4.5783e-273
8.70255e-273
4.48226e-272
5.94302e-271
7.85444e-270
8.74711e-269
7.1206e-270
5.54526e-269
1.07869e-267
1.94406e-266
4.01574e-265
9.50178e-264
3.74596e-264
5.41283e-263
1.0023e-261
1.77717e-260
3.73079e-259
7.9643e-258
2.35624e-259
7.22329e-261
2.53259e-262
8.88752e-264
3.10124e-265
1.0771e-266
3.27814e-267
5.5712e-266
1.25949e-264
6.76306e-266
2.5151e-267
9.05542e-269
4.49996e-270
2.87394e-271
9.36155e-273
3.15822e-274
1.19196e-275
4.78277e-277
2.04316e-278
9.82435e-280
6.1989e-281
5.08687e-282
2.75604e-283
7.92883e-285
3.02719e-286
1.43172e-287
7.52922e-289
4.27383e-290
2.59444e-291
1.67511e-292
1.1456e-293
8.26935e-295
6.27856e-296
4.9968e-297
4.15462e-298
3.59864e-299
3.24006e-300
3.02775e-301
2.93399e-302
2.94716e-303
3.06823e-304
3.28289e-305
4.40628e-319
4.20895e-319
8.04082e-319
6.52853e-318
5.09881e-317
4.20454e-316
3.54518e-315
3.06679e-314
2.72064e-313
2.47444e-312
2.30667e-311
2.20365e-310
2.15777e-309
2.16656e-308
2.23265e-307
2.36453e-306
2.57834e-305
2.90105e-304
3.37566e-303
4.06882e-302
5.08083e-301
6.55326e-300
8.65546e-299
1.15031e-297
1.4965e-296
1.85106e-295
2.15813e-294
2.48512e-293
3.73317e-292
1.34087e-290
8.17208e-288
4.97233e-286
5.34385e-285
1.39311e-283
8.88049e-282
6.12068e-279
1.3838e-277
1.12255e-276
1.89865e-275
3.95968e-274
7.4996e-273
1.80219e-272
8.59162e-272
1.02939e-270
1.24631e-269
1.2085e-268
1.17403e-269
9.9863e-269
1.84089e-267
3.16179e-266
6.13714e-265
1.17182e-263
6.21354e-264
9.01129e-263
1.6383e-261
2.83717e-260
5.68353e-259
1.0084e-257
3.60521e-259
1.20246e-260
4.39622e-262
1.57366e-263
5.5183e-265
1.91211e-266
7.2488e-267
1.15306e-265
1.55827e-264
9.8517e-266
3.97617e-267
1.48307e-268
7.46147e-270
4.50225e-271
1.43646e-272
4.65048e-274
1.6976e-275
6.60619e-277
2.73925e-278
1.29086e-279
7.95914e-281
6.08686e-282
3.41104e-283
1.24322e-284
5.44689e-286
2.84809e-287
1.64227e-288
1.01824e-289
6.7332e-291
4.72341e-292
3.49673e-293
2.71735e-294
2.20581e-295
1.86267e-296
1.63111e-297
1.47815e-298
1.38469e-299
1.34041e-300
1.34118e-301
1.38793e-302
1.48664e-303
1.63595e-304
4.41082e-319
8.42639e-319
4.82923e-318
3.69018e-317
2.92623e-316
2.37697e-315
1.97911e-314
1.69081e-313
1.48143e-312
1.33025e-311
1.22326e-310
1.15102e-309
1.10722e-308
1.08783e-307
1.09046e-306
1.11402e-305
1.15844e-304
1.22463e-303
1.31457e-302
1.43175e-301
1.58254e-300
1.77888e-299
2.04282e-298
2.40986e-297
2.92185e-296
3.59927e-295
4.42682e-294
5.48596e-293
7.62929e-292
2.31262e-290
7.38429e-288
4.4583e-286
5.14135e-285
1.5858e-283
1.14956e-281
6.75547e-279
1.68604e-277
1.49907e-276
2.60953e-275
5.86499e-274
1.18832e-272
3.44913e-272
1.56242e-271
1.70469e-270
1.89895e-269
1.60821e-268
1.93292e-269
1.80162e-268
3.1383e-267
5.11826e-266
9.16638e-265
1.44963e-263
1.01361e-263
1.48006e-262
2.64659e-261
4.46163e-260
8.42631e-259
1.27254e-257
5.45743e-259
2.01006e-260
7.74333e-262
2.84419e-263
1.00352e-264
3.45665e-266
1.58454e-266
2.34672e-265
1.91528e-264
1.36173e-265
5.88155e-267
2.26695e-268
1.15332e-269
6.62339e-271
2.07934e-272
6.48603e-274
2.28822e-275
8.60909e-277
3.45407e-278
1.59015e-279
9.53836e-281
6.89167e-282
3.97508e-283
1.72919e-284
8.65195e-286
5.04049e-287
3.22236e-288
2.21162e-289
1.61667e-290
1.25042e-291
1.01584e-292
8.60628e-294
7.55911e-295
6.85488e-296
6.4026e-297
6.15316e-298
6.08445e-299
6.19467e-300
6.50084e-301
7.0413e-302
7.88179e-303
9.0543e-304
4.41616e-319
3.79629e-318
2.8202e-317
2.16262e-316
1.69398e-315
1.3672e-314
1.13503e-313
9.69218e-313
8.50978e-312
7.6791e-311
7.11814e-310
6.77331e-309
6.6107e-308
6.61034e-307
6.76217e-306
7.06268e-305
7.51139e-304
8.10629e-303
8.83741e-302
9.67834e-301
1.05772e-299
1.14524e-298
1.22049e-297
1.27659e-296
1.31885e-295
1.37289e-294
1.47988e-293
1.69206e-292
2.15649e-291
4.39922e-290
7.07221e-288
4.29488e-286
5.16879e-285
1.85056e-283
1.49393e-281
7.13043e-279
1.95689e-277
1.8656e-276
3.36492e-275
8.29693e-274
1.82128e-272
6.15603e-272
2.70692e-271
2.71799e-270
2.80329e-269
2.08548e-268
3.21612e-269
3.24568e-268
5.33834e-267
8.23267e-266
1.34571e-264
1.80282e-263
1.63952e-263
2.41374e-262
4.24392e-261
6.94024e-260
1.22461e-258
1.60334e-257
8.15772e-259
3.34034e-260
1.36786e-261
5.19924e-263
1.86158e-264
6.41345e-266
3.28656e-266
4.51878e-265
2.33683e-264
1.79895e-265
8.19239e-267
3.24783e-268
1.66766e-269
9.17738e-271
2.8531e-272
8.64751e-274
2.95744e-275
1.07662e-276
4.18373e-278
1.88347e-279
1.09894e-280
7.5692e-282
4.48249e-283
2.24582e-284
1.27442e-285
8.30795e-287
5.93908e-288
4.55991e-289
3.72196e-290
3.19897e-291
2.86691e-292
2.65694e-293
2.53174e-294
2.4726e-295
2.47219e-296
2.53102e-297
2.65607e-298
2.86129e-299
3.16961e-300
3.61687e-301
4.2581e-302
5.13685e-303
2.65327e-318
2.32295e-317
1.69422e-316
1.28987e-315
1.01075e-314
8.17533e-314
6.82384e-313
5.8772e-312
5.22211e-311
4.78534e-310
4.52001e-309
4.39719e-308
4.40057e-307
4.52292e-306
4.76347e-305
5.1253e-304
5.61198e-303
6.22239e-302
6.94276e-301
7.7349e-300
8.52167e-299
9.1739e-298
9.51209e-297
9.3489e-296
8.60186e-295
7.44542e-294
6.3277e-293
5.71497e-292
5.90524e-291
8.25248e-290
7.48777e-288
4.57827e-286
5.68722e-285
2.29464e-283
1.98397e-281
7.41957e-279
2.22571e-277
2.23031e-276
4.164e-275
1.13454e-273
2.70609e-272
1.03308e-271
4.47794e-271
4.18736e-270
4.02737e-269
2.6578e-268
5.40935e-269
5.79114e-268
9.00748e-267
1.30905e-265
1.94794e-264
2.25731e-263
2.63494e-263
3.90627e-262
6.73881e-261
1.06686e-259
1.75098e-258
2.01861e-257
1.20179e-258
5.47171e-260
2.3957e-261
9.50213e-263
3.49439e-264
1.21708e-265
6.34174e-266
8.11822e-265
2.82787e-264
2.28876e-265
1.08362e-266
4.39381e-268
2.27003e-269
1.20409e-270
3.73122e-272
1.1108e-273
3.70466e-275
1.31036e-276
4.95545e-278
2.19046e-279
1.24549e-280
8.24993e-282
5.02531e-283
2.83939e-284
1.81798e-285
1.33112e-286
1.07109e-287
9.25659e-289
8.46602e-290
8.08708e-291
7.97778e-292
8.0628e-293
8.31143e-294
8.72461e-295
9.32819e-296
1.01717e-296
1.13328e-297
1.29274e-298
1.51295e-299
1.82026e-300
2.25505e-301
2.85751e-302
1.9043e-317
1.42534e-316
1.05021e-315
7.99882e-315
6.30035e-314
5.13442e-313
4.32869e-312
3.77458e-311
3.40291e-310
3.16964e-309
3.0473e-308
3.0197e-307
3.07862e-306
3.22148e-305
3.44954e-304
3.76579e-303
4.17214e-302
4.66488e-301
5.22791e-300
5.82301e-299
6.37841e-298
6.77995e-297
6.87594e-296
6.51592e-295
5.64151e-294
4.39868e-293
3.13977e-292
2.2087e-291
1.71615e-290
1.67693e-289
9.41888e-288
5.52903e-286
7.14388e-285
3.10494e-283
2.72996e-281
7.89854e-279
2.55176e-277
2.64325e-276
5.08489e-275
1.52293e-273
3.91252e-272
1.64371e-271
7.09252e-271
6.25167e-270
5.6493e-269
3.34928e-268
9.11983e-269
1.01357e-267
1.49518e-266
2.04642e-265
2.78412e-264
2.84831e-263
4.20205e-263
6.25085e-262
1.05545e-260
1.61581e-259
2.46711e-258
2.54013e-257
1.74302e-258
8.78748e-260
4.12522e-261
1.7211e-262
6.56637e-264
2.34508e-265
1.13363e-265
1.35947e-264
3.392e-264
2.82828e-265
1.37373e-266
5.66041e-268
2.9311e-269
1.50576e-270
4.67925e-272
1.38355e-273
4.53371e-275
1.56829e-276
5.8148e-278
2.53953e-279
1.41347e-280
9.10127e-282
5.72961e-283
3.61092e-284
2.60317e-285
2.14737e-286
1.95006e-287
1.89594e-288
1.93459e-289
2.03985e-290
2.19827e-291
2.40593e-292
2.66738e-293
2.99548e-294
3.41224e-295
3.95113e-296
4.6617e-297
5.6176e-298
6.93008e-299
8.77033e-300
1.14059e-300
1.51448e-301
1.28188e-316
9.28077e-316
6.86051e-315
5.2539e-314
4.16935e-313
3.42764e-312
2.91798e-311
2.57077e-310
2.34187e-309
2.20331e-308
2.13773e-307
2.13495e-306
2.1897e-305
2.30013e-304
2.46638e-303
2.68903e-302
2.96696e-301
3.29412e-300
3.65482e-299
4.01762e-298
4.32901e-297
4.51024e-296
4.46496e-295
4.10862e-294
3.42582e-293
2.52953e-292
1.64713e-291
9.87024e-291
6.08067e-290
4.65932e-289
1.51543e-287
7.67513e-286
1.04577e-284
4.62448e-283
3.92273e-281
8.95346e-279
3.0363e-277
3.20145e-276
6.30224e-275
2.03775e-273
5.52764e-272
2.50037e-271
1.08012e-270
9.07834e-270
7.77359e-269
4.19299e-268
1.52411e-268
1.72787e-267
2.42785e-266
3.13905e-265
3.93307e-264
3.62363e-263
6.63514e-263
9.86132e-262
1.62521e-260
2.40516e-259
3.42859e-258
3.19445e-257
2.4893e-258
1.3809e-259
6.93525e-261
3.07035e-262
1.22716e-263
4.54771e-265
1.88815e-265
2.13314e-264
4.03153e-264
3.41456e-265
1.68225e-266
6.99822e-268
3.61733e-269
1.80674e-270
5.66078e-272
1.67916e-273
5.45009e-275
1.8583e-276
6.81452e-278
2.96113e-279
1.62231e-280
1.02608e-281
6.73478e-283
4.72387e-284
3.83717e-285
3.56724e-286
3.64229e-287
3.95153e-288
4.45024e-289
5.12199e-290
5.96933e-291
7.01483e-292
8.30564e-293
9.92031e-294
1.19798e-294
1.46655e-295
1.82494e-296
2.31442e-297
2.99875e-298
3.97823e-299
5.41329e-300
7.50918e-301
9.61444e-316
6.9621e-315
5.18723e-314
4.00623e-313
3.20591e-312
2.65633e-311
2.27702e-310
2.0173e-309
1.84486e-308
1.73907e-307
1.68688e-306
1.6803e-305
1.71474e-304
1.78779e-303
1.89813e-302
2.04434e-301
2.22327e-300
2.42788e-299
2.64423e-298
2.84799e-297
3.00156e-296
3.05409e-295
2.94902e-294
2.64438e-293
2.14603e-292
1.53591e-291
9.5538e-291
5.26682e-290
2.80772e-289
1.77643e-288
3.37847e-287
1.24272e-285
1.8221e-284
7.48895e-283
5.87852e-281
1.10628e-278
3.79276e-277
4.05259e-276
8.10935e-275
2.7508e-273
7.66077e-272
3.66467e-271
1.58953e-270
1.28683e-269
1.05264e-268
5.23168e-268
2.50145e-268
2.85823e-267
3.8456e-266
4.72556e-265
5.49803e-264
4.6479e-263
1.03501e-262
1.53023e-261
2.45655e-260
3.51534e-259
4.70352e-258
4.01368e-257
3.50627e-258
2.12738e-259
1.14436e-260
5.38736e-262
2.27151e-263
8.8397e-265
2.96917e-265
3.16071e-264
4.74802e-264
4.0455e-265
2.00229e-266
8.35692e-268
4.29568e-269
2.09306e-270
6.64213e-272
1.99335e-273
6.4598e-275
2.18924e-276
8.01027e-278
3.48652e-279
1.89214e-280
1.1889e-281
8.22407e-283
6.43981e-284
5.89581e-285
6.14737e-286
6.98319e-287
8.33931e-288
1.02244e-288
1.26909e-289
1.58363e-290
1.98206e-291
2.48949e-292
3.14439e-293
4.00501e-294
5.15958e-295
6.74302e-296
8.96482e-297
1.21563e-297
1.68514e-298
2.39262e-299
3.45999e-300
1.03965e-314
7.58226e-314
5.68755e-313
4.41468e-312
3.54343e-311
2.93843e-310
2.51504e-309
2.21939e-308
2.01668e-307
1.88423e-306
1.8072e-305
1.77592e-304
1.78408e-303
1.82747e-302
1.90281e-301
2.00657e-300
2.13362e-299
2.2754e-298
2.41783e-297
2.53911e-296
2.60854e-295
2.58802e-294
2.43927e-293
2.13937e-292
1.70302e-291
1.19838e-290
7.3118e-290
3.89239e-289
1.92718e-288
1.05761e-287
1.21665e-286
2.38663e-285
3.66586e-284
1.28251e-282
9.07759e-281
1.48478e-278
4.96439e-277
5.40536e-276
1.09378e-274
3.76821e-273
1.04468e-271
5.20965e-271
2.27175e-270
1.78634e-269
1.40603e-268
6.51914e-268
4.00722e-268
4.58099e-267
5.93301e-266
6.97211e-265
7.61265e-264
6.00766e-263
1.59224e-262
2.33307e-261
3.64431e-260
5.04738e-259
6.37578e-258
5.03667e-257
4.88288e-258
3.23028e-259
1.85779e-260
9.30482e-262
4.1533e-263
1.7085e-264
4.4867e-265
4.45999e-264
5.54285e-264
4.71958e-265
2.32714e-266
9.68786e-268
4.93702e-269
2.35417e-270
7.59621e-272
2.32213e-273
7.57039e-275
2.57112e-276
9.46378e-278
4.15123e-279
2.24627e-280
1.41837e-281
1.04624e-282
9.18261e-284
9.44424e-285
1.09285e-285
1.36083e-286
1.76189e-287
2.32117e-288
3.07523e-289
4.07595e-290
5.39877e-291
7.15568e-292
9.51528e-293
1.27342e-293
1.72078e-294
2.35552e-295
3.27628e-296
4.64356e-297
6.72401e-298
9.96982e-299
1.5062e-299
1.9412e-313
1.40554e-312
1.04524e-311
8.02741e-311
6.3628e-310
5.20079e-309
4.3795e-308
3.79541e-307
3.38108e-306
3.09192e-305
2.89799e-304
2.77891e-303
2.72042e-302
2.71205e-301
2.74521e-300
2.81151e-299
2.90101e-298
3.00038e-297
3.09097e-296
3.14739e-295
3.13731e-294
3.0245e-293
2.77695e-292
2.38177e-291
1.86418e-290
1.29832e-289
7.88873e-289
4.18334e-288
2.03429e-287
1.03596e-286
7.88188e-286
5.7192e-285
7.99882e-284
2.24714e-282
1.41703e-280
2.10542e-278
6.71783e-277
7.53192e-276
1.53614e-274
5.22941e-273
1.40471e-271
7.22225e-271
3.16718e-270
2.43553e-269
1.85589e-268
8.12145e-268
6.24713e-268
7.11677e-267
8.9204e-266
1.00896e-264
1.04517e-263
7.81701e-263
2.41241e-262
3.49478e-261
5.31018e-260
7.12854e-259
8.54976e-258
6.31006e-257
6.73382e-258
4.82808e-259
2.96683e-260
1.58063e-261
7.47674e-263
3.25804e-264
6.646e-265
6.0419e-264
6.41784e-264
5.43354e-265
2.64988e-266
1.09481e-267
5.51966e-269
2.584e-270
8.5064e-272
2.6633e-273
8.79506e-275
3.01653e-276
1.12512e-277
5.00086e-279
2.71607e-280
1.74305e-281
1.38565e-282
1.36456e-283
1.56354e-284
1.9802e-285
2.66201e-286
3.68732e-287
5.16647e-288
7.25049e-289
1.015e-289
1.41687e-290
1.97585e-291
2.7609e-292
3.87945e-293
5.50226e-294
7.90663e-295
1.15535e-295
1.72283e-296
2.63059e-297
4.12555e-298
6.61762e-299
6.83501e-312
4.84421e-311
3.52374e-310
2.64436e-309
2.04605e-308
1.63093e-307
1.33802e-306
1.1286e-305
9.77568e-305
8.68348e-304
7.8977e-303
7.34143e-302
6.96015e-301
6.71342e-300
6.56898e-299
6.49821e-298
6.47231e-297
6.45913e-296
6.42052e-295
6.31119e-294
6.08017e-293
5.67703e-292
5.06507e-291
4.24235e-290
3.26561e-289
2.26703e-288
1.37824e-287
7.35671e-287
3.61015e-286
1.77382e-285
9.85108e-285
2.20652e-284
1.82789e-283
4.39278e-282
2.18954e-280
3.04e-278
9.22212e-277
1.07514e-275
2.20634e-274
7.29787e-273
1.86495e-271
9.8063e-271
4.3234e-270
3.26935e-269
2.42425e-268
1.01186e-267
9.47492e-268
1.07385e-266
1.30968e-265
1.43496e-264
1.42429e-263
1.02236e-262
3.59506e-262
5.13921e-261
7.60668e-260
9.91803e-259
1.13549e-257
7.88774e-257
9.20022e-258
7.11105e-259
4.66123e-260
2.63811e-261
1.32092e-262
6.08693e-264
9.82426e-265
7.91492e-264
7.37623e-264
6.18164e-265
2.96431e-266
1.21096e-267
6.03407e-269
2.78245e-270
9.37234e-272
3.01893e-273
1.01612e-274
3.54391e-276
1.34788e-277
6.1004e-279
3.34785e-280
2.2075e-281
1.90698e-282
2.09963e-283
2.64939e-284
3.62265e-285
5.19345e-286
7.62571e-287
1.12948e-287
1.67333e-288
2.47147e-289
3.64008e-290
5.35963e-291
7.91919e-292
1.17951e-292
1.77944e-293
2.73252e-294
4.29185e-295
6.92681e-296
1.15361e-296
1.98931e-297
3.53227e-298
4.96249e-310
3.42468e-309
2.42502e-308
1.77042e-307
1.33184e-306
1.03152e-305
8.21738e-305
6.72562e-304
5.64853e-303
4.86109e-302
4.27984e-301
3.84784e-300
3.52516e-299
3.28281e-298
3.09873e-297
2.95491e-296
2.83553e-295
2.72545e-294
2.60944e-293
2.47195e-292
2.29787e-291
2.07465e-290
1.79605e-289
1.46729e-288
1.11138e-287
7.66774e-287
4.67309e-286
2.53646e-285
1.26929e-284
6.11438e-284
2.68028e-283
2.89305e-283
4.4602e-283
9.24926e-282
3.67145e-280
4.3315e-278
1.2623e-276
1.53943e-275
3.17664e-274
1.01461e-272
2.44683e-271
1.30882e-270
5.79706e-270
4.32978e-269
3.13748e-268
1.26073e-267
1.40045e-267
1.57876e-266
1.88301e-265
2.01021e-264
1.92816e-263
1.34154e-262
5.26541e-262
7.41995e-261
1.07221e-259
1.36116e-258
1.4947e-257
9.83465e-257
1.24593e-257
1.03338e-258
7.20762e-260
4.32319e-261
2.28482e-262
1.10843e-263
1.46595e-264
1.00892e-263
8.42446e-264
6.95873e-265
3.2679e-266
1.31734e-267
6.48908e-269
2.95749e-270
1.02192e-271
3.39929e-273
1.1726e-274
4.18406e-276
1.63146e-277
7.55241e-279
4.21564e-280
2.88616e-281
2.72934e-282
3.34535e-283
4.60522e-284
6.74111e-285
1.02535e-285
1.59453e-286
2.50519e-287
3.94895e-288
6.23089e-289
9.85365e-290
1.56747e-290
2.52057e-291
4.11967e-292
6.88048e-293
1.17992e-293
2.08573e-294
3.81098e-295
7.2089e-296
1.41203e-296
2.83567e-297
4.60582e-308
3.09432e-307
2.13268e-306
1.5147e-305
1.10794e-304
8.3392e-304
6.4523e-303
5.1261e-302
4.17623e-301
3.484e-300
2.97137e-299
2.58589e-298
2.29146e-297
2.06253e-296
1.8804e-295
1.73081e-294
1.60229e-293
1.48521e-292
1.37116e-291
1.25281e-290
1.12419e-289
9.81419e-289
8.23893e-288
6.5574e-287
4.88116e-286
3.32646e-285
2.03053e-284
1.12256e-283
5.71735e-283
2.69681e-282
9.86896e-282
8.88364e-282
2.04707e-282
1.96585e-281
6.77988e-280
5.99321e-278
1.70482e-276
2.17861e-275
4.51798e-274
1.39452e-272
3.17515e-271
1.72283e-270
7.65856e-270
5.66847e-269
4.02766e-268
1.57049e-267
2.02356e-267
2.27054e-266
2.66042e-265
2.78087e-264
2.59529e-263
1.76276e-262
7.57379e-262
1.05227e-260
1.48848e-259
1.84465e-258
1.95127e-257
1.22288e-256
1.67499e-257
1.48381e-258
1.09761e-259
6.95481e-261
3.86457e-262
1.96224e-263
2.21466e-264
1.25802e-263
9.57454e-264
7.76686e-265
3.56632e-266
1.41879e-267
6.91858e-269
3.12769e-270
1.11102e-271
3.82877e-273
1.36033e-274
4.99314e-276
2.00557e-277
9.537e-279
5.45061e-280
3.9235e-281
4.13279e-282
5.69868e-283
8.61199e-284
1.3606e-284
2.22571e-285
3.74163e-286
6.41166e-287
1.11339e-287
1.9549e-288
3.47211e-289
6.25186e-290
1.14472e-290
2.13745e-291
4.07932e-292
7.97021e-293
1.59577e-293
3.27576e-294
6.89522e-295
1.48774e-295
3.25842e-296
3.86232e-306
2.52726e-305
1.69642e-304
1.17295e-303
8.34887e-303
6.11242e-302
4.59819e-301
3.55011e-300
2.80934e-299
2.27528e-298
1.88283e-297
1.58896e-296
1.3646e-295
1.18968e-294
1.04994e-293
9.35003e-293
8.37046e-292
7.50047e-291
6.69292e-290
5.91164e-289
5.13128e-288
4.33886e-287
3.53627e-286
2.7429e-285
2.00075e-284
1.34549e-283
8.21285e-283
4.60159e-282
2.36499e-281
1.08255e-280
3.43367e-280
2.9215e-280
4.56778e-281
5.31817e-281
1.27718e-279
8.21483e-278
2.27291e-276
3.03245e-275
6.3094e-274
1.88748e-272
4.08026e-271
2.244e-270
1.00017e-269
7.35162e-269
5.13468e-268
1.95565e-267
2.86989e-267
3.20888e-266
3.7085e-265
3.81034e-264
3.47701e-263
2.31559e-262
1.06813e-261
1.46668e-260
2.03689e-259
2.47108e-258
2.52785e-257
1.51631e-256
2.23632e-257
2.10716e-258
1.64725e-259
1.0986e-260
6.39092e-262
3.37638e-263
3.37546e-264
1.54118e-263
1.08467e-263
8.62388e-265
3.87831e-266
1.52654e-267
7.38859e-269
3.32548e-270
1.21652e-271
4.35517e-273
1.60112e-274
6.07721e-276
2.5266e-277
1.23999e-278
7.31378e-280
5.69598e-281
7.20564e-282
1.20339e-282
2.10954e-283
3.7767e-284
6.98373e-285
1.33711e-285
2.6312e-286
5.27827e-287
1.07159e-287
2.1936e-288
4.52424e-289
9.41102e-290
1.97796e-290
4.20908e-291
9.08747e-292
1.9944e-292
4.45688e-293
1.01558e-293
2.36182e-294
5.55777e-295
2.72426e-304
1.73733e-303
1.13669e-302
7.65838e-302
5.31014e-301
3.78596e-300
2.77263e-299
2.08323e-298
1.60373e-297
1.26306e-296
1.01599e-295
8.33088e-295
6.9486e-294
5.88088e-293
5.03632e-292
4.35031e-291
3.77631e-290
3.28028e-289
2.83731e-288
2.42964e-287
2.04573e-286
1.67989e-285
1.33232e-284
1.00883e-283
7.20759e-283
4.78414e-282
2.9235e-281
1.64404e-280
8.44428e-280
3.71776e-279
1.05215e-278
8.7879e-279
1.60395e-279
7.16143e-280
5.04848e-279
1.62961e-277
3.11596e-276
4.17461e-275
8.6763e-274
2.51694e-272
5.20181e-271
2.90178e-270
1.29603e-269
9.46816e-269
6.50966e-268
2.43447e-267
4.01307e-267
4.47766e-266
5.12241e-265
5.19183e-264
4.64447e-263
3.03921e-262
1.47977e-261
2.01161e-260
2.75074e-259
3.27574e-258
3.252e-257
1.8749e-256
2.96613e-257
2.96136e-258
2.43776e-259
1.70497e-260
1.03417e-261
5.65689e-263
5.1606e-264
1.86197e-263
1.22722e-263
9.57177e-265
4.24005e-266
1.65989e-267
8.00617e-269
3.60232e-270
1.359e-271
5.06563e-273
1.93563e-274
7.63879e-276
3.30524e-277
1.6841e-278
1.04177e-279
1.01241e-280
2.13271e-281
5.27604e-282
1.18636e-282
2.5562e-283
5.54427e-284
1.22978e-284
2.77831e-285
6.33711e-286
1.44842e-286
3.30784e-287
7.5523e-288
1.72795e-288
3.97419e-289
9.21796e-290
2.16275e-290
5.14677e-291
1.24515e-291
3.06822e-292
7.70985e-293
1.95854e-293
1.62804e-302
1.01255e-301
6.46211e-301
4.24616e-300
2.87083e-299
1.99539e-298
1.42429e-297
1.04279e-296
7.82048e-296
5.99868e-295
4.69812e-294
3.74978e-293
3.04341e-292
2.50567e-291
2.08684e-290
1.75257e-289
1.47881e-288
1.24852e-287
1.04963e-286
8.73811e-286
7.15673e-285
5.72268e-284
4.42743e-283
3.27952e-282
2.29899e-281
1.50805e-280
9.17672e-280
5.14956e-279
2.61769e-278
1.10217e-277
2.85389e-277
2.39409e-277
5.3658e-278
2.64218e-278
1.14314e-277
1.78833e-276
6.60608e-276
5.77926e-275
1.18676e-273
3.32109e-272
6.59571e-271
3.73735e-270
1.6731e-269
1.2141e-268
8.21955e-268
3.03041e-267
5.55841e-267
6.19683e-266
7.03869e-265
7.05612e-264
6.19835e-263
3.98685e-262
2.01881e-261
2.71956e-260
3.6713e-259
4.30238e-258
4.15749e-257
2.312e-256
3.90919e-257
4.1207e-258
3.55965e-259
2.60192e-260
1.6401e-261
9.2575e-263
7.88005e-264
2.22554e-263
1.38947e-263
1.06832e-264
4.7089e-266
1.84844e-267
8.9347e-269
4.03819e-270
1.57298e-271
6.11524e-273
2.43894e-274