/*--------------------------------*- C++ -*----------------------------------*\
  =========                 |
  \\      /  F ield         | OpenFOAM: The Open Source CFD Toolbox
   \\    /   O peration     | Website:  https://openfoam.org
    \\  /    A nd           | Version:  9
     \\/     M anipulation  |
\*---------------------------------------------------------------------------*/
FoamFile
{
    format      ascii;
    class       surfaceScalarField;
    location    "0.07";
    object      alphaPhi0.water;
}
// * * * * * * * * * * * * * * * * * * * * * * * * * * * * * * * * * * * * * //

dimensions      [0 3 -1 0 0 0 0];

internalField   nonuniform List<scalar> 
39700
(
0
0
0
0
0
0
0
0
0
0
0
0
0
0
0
0
4.94066e-324
3.95253e-323
7.41098e-323
6.27463e-322
1.08694e-321
9.81708e-321
1.6981e-320
1.59514e-319
2.74617e-319
2.6839e-318
4.59846e-318
4.6705e-317
7.96446e-317
8.39691e-316
1.42536e-315
1.55774e-314
2.63301e-314
2.97768e-313
5.01516e-313
5.85614e-312
9.84058e-312
1.18304e-310
1.98768e-310
2.45086e-309
4.12902e-309
5.19629e-308
8.7893e-308
1.1235e-306
1.88992e-306
2.45594e-305
3.94182e-305
5.32025e-304
7.52811e-304
1.10563e-302
1.33832e-302
2.16652e-301
2.39443e-301
4.16559e-300
4.60116e-300
8.40863e-299
1.02584e-298
1.82931e-297
3.22926e-297
4.33022e-296
3.83502e-294
2.5375e-293
-9.14676e-294
1.87798e-292
3.75807e-293
1.94941e-291
1.74415e-291
6.66951e-290
1.2046e-289
2.94434e-288
1.94477e-287
1.32863e-286
1.23948e-287
6.9603e-286
8.36398e-287
5.19505e-285
3.90343e-285
1.94464e-283
2.611e-283
6.66082e-282
-3.17897e-284
7.15821e-281
1.73304e-283
6.57379e-282
2.24616e-282
1.01541e-280
6.82925e-281
3.15126e-279
2.35607e-279
8.1854e-278
6.36858e-278
1.31562e-276
3.09514e-279
1.07451e-277
4.60838e-278
1.7533e-276
1.76266e-276
6.44863e-275
6.67698e-275
2.45204e-273
3.73301e-273
9.46455e-272
1.24499e-271
2.25337e-270
2.83182e-273
1.18735e-271
2.57879e-272
1.08298e-270
1.00181e-270
3.8003e-269
3.73658e-269
1.40289e-267
2.04704e-267
5.21464e-266
6.40205e-266
1.19741e-264
1.087e-267
4.59193e-266
2.06686e-269
8.7353e-268
4.62427e-271
1.79902e-269
1.05612e-272
3.95529e-271
2.36222e-274
8.65111e-273
5.46417e-276
1.93777e-274
8.86615e-276
2.86873e-274
4.90659e-274
7.99414e-273
1.19505e-272
2.92996e-271
2.78876e-274
1.28994e-272
6.14011e-276
2.76066e-274
1.3735e-277
5.82753e-276
4.82945e-279
1.26802e-277
2.60471e-280
4.78094e-279
7.31701e-282
1.76654e-280
1.99202e-283
4.97205e-282
6.02537e-285
1.40501e-283
2.0051e-286
4.28016e-285
7.28644e-288
1.39827e-286
3.08913e-289
4.93664e-288
2.13754e-290
2.0092e-289
4.03714e-291
1.5436e-290
4.801e-294
2.0791e-291
6.23365e-295
2.03373e-293
3.38467e-296
7.93482e-295
1.71995e-297
3.20419e-296
8.92381e-299
1.39252e-297
4.8827e-300
6.5957e-299
2.85282e-301
3.42129e-300
1.77894e-302
1.93525e-301
1.17387e-303
1.17925e-302
8.10656e-305
7.62276e-304
5.80315e-306
5.15533e-305
4.27902e-307
3.61215e-306
3.23912e-308
2.60689e-307
2.51421e-309
1.93261e-308
2.00143e-310
1.47061e-309
1.6354e-311
1.14906e-310
1.37335e-312
9.22764e-312
1.18676e-313
7.62532e-313
1.05646e-314
6.49151e-314
5.65587e-315
0
0
0
0
0
0
0
0
0
0
0
0
0
0
4.94066e-324
2.47033e-323
3.95253e-323
3.11261e-322
5.2865e-322
4.5454e-321
7.67778e-321
6.86405e-320
1.15414e-319
1.07212e-318
1.79488e-318
1.73041e-317
2.88505e-317
2.8827e-316
4.78824e-316
4.95031e-315
8.1963e-315
8.75021e-314
1.44535e-313
1.58949e-312
2.62271e-312
2.96215e-311
4.89214e-311
5.65353e-310
9.37082e-310
1.10326e-308
1.83975e-308
2.1972e-307
3.67881e-307
4.44977e-306
7.34418e-306
9.0721e-305
1.3975e-304
1.81516e-303
2.41296e-303
3.41629e-302
3.97447e-302
5.91416e-301
6.93e-301
9.85745e-300
1.31809e-299
1.7386e-298
3.2201e-298
3.78193e-297
1.25167e-296
1.20841e-295
7.48562e-294
8.21735e-293
-9.16327e-293
7.2332e-292
1.66841e-292
8.54097e-291
6.77121e-291
2.0435e-289
3.33009e-289
6.03123e-288
7.21763e-287
5.63417e-286
-5.15586e-286
4.34231e-285
3.34736e-286
4.70935e-284
1.96994e-284
1.28399e-282
1.2152e-282
3.22385e-281
-1.22188e-282
2.95545e-280
1.20519e-282
6.69396e-281
1.9354e-281
1.06965e-279
5.24222e-280
2.83902e-278
1.82299e-278
6.23752e-277
4.08595e-277
9.04485e-276
2.14957e-278
7.22022e-277
2.46503e-277
8.92212e-276
8.26696e-276
2.74342e-274
2.72089e-274
8.40057e-273
1.1979e-272
2.48361e-271
1.75139e-271
7.07445e-270
9.54953e-273
4.87086e-271
1.47905e-271
6.57571e-270
5.04611e-270
1.8487e-268
1.66225e-268
5.41721e-267
7.45569e-267
1.57871e-265
9.59982e-266
4.23007e-264
2.53855e-267
1.37725e-265
6.81363e-269
3.26077e-267
1.94268e-270
7.89831e-269
5.32732e-272
1.98347e-270
1.40773e-273
4.91475e-272
3.88921e-275
1.22884e-273
3.45348e-275
8.91596e-274
1.46918e-273
1.99451e-272
-8.18967e-275
8.11875e-271
4.07933e-274
2.96906e-272
1.47375e-275
8.53933e-274
4.3896e-277
2.14407e-275
2.0397e-278
5.35733e-277
1.17299e-279
2.35059e-278
3.91681e-281
9.45488e-280
1.26205e-282
3.04887e-281
4.48648e-284
9.7668e-283
1.78237e-285
3.36158e-284
8.04752e-287
1.26466e-285
4.40482e-288
5.33555e-287
3.53372e-289
2.65724e-288
2.16543e-290
2.22875e-289
-3.59341e-294
1.32964e-290
-7.67683e-297
9.0874e-293
4.30615e-296
2.277e-294
3.38028e-297
9.47999e-296
2.24114e-298
4.43699e-297
1.47417e-299
2.30356e-298
1.00515e-300
1.32097e-299
7.16453e-302
8.26804e-301
5.31024e-303
5.54549e-302
4.05564e-304
3.9137e-303
3.16832e-305
2.86444e-304
2.52178e-306
2.1543e-305
2.04266e-307
1.65722e-306
1.68486e-308
1.30196e-307
1.41733e-309
1.04488e-308
1.21826e-310
8.57615e-310
1.07204e-311
7.21021e-311
9.67542e-313
6.21938e-312
8.96945e-314
5.51229e-313
4.98559e-314
0
0
0
0
0
0
0
0
0
0
0
0
0
4.94066e-324
9.88131e-324
9.38725e-323
1.4822e-322
1.23516e-321
2.03555e-321
1.74208e-320
2.85323e-320
2.53688e-319
4.13656e-319
3.81569e-318
6.19656e-318
5.92165e-317
9.58149e-317
9.47026e-316
1.52755e-315
1.55852e-314
2.50782e-314
2.63512e-313
4.2341e-313
4.56938e-312
7.34145e-312
8.1108e-311
1.30534e-310
1.47083e-309
2.37591e-309
2.71933e-308
4.41333e-308
5.11269e-307
8.30195e-307
9.72924e-306
1.54883e-305
1.85236e-304
2.74055e-304
3.43444e-303
4.40264e-303
5.93139e-302
6.80536e-302
9.28338e-301
1.11467e-300
1.37512e-299
1.96208e-299
2.14334e-298
5.31046e-298
5.18132e-297
2.27551e-296
1.87713e-295
1.3539e-293
1.3496e-292
-1.96812e-292
1.58052e-291
5.19016e-292
2.14896e-290
1.6444e-290
4.29692e-289
7.27506e-289
1.16647e-287
1.75468e-286
1.67561e-285
-3.69001e-285
1.83773e-284
3.39932e-286
2.18961e-283
5.08922e-284
4.8572e-282
3.16234e-282
9.93022e-281
-9.27632e-282
7.99582e-280
5.90262e-282
3.94171e-280
9.25658e-281
5.70884e-279
2.26484e-279
1.31951e-277
7.46427e-278
2.52019e-276
1.36039e-276
3.26603e-275
7.94282e-278
2.68785e-276
7.6814e-277
2.69227e-275
2.30413e-275
7.21128e-274
6.74113e-274
1.85877e-272
2.30114e-272
4.35372e-271
1.72496e-271
1.37827e-269
2.46944e-272
1.47755e-270
5.02539e-271
2.28787e-269
1.5236e-269
5.48089e-268
4.51181e-268
1.33869e-266
1.63195e-266
3.19586e-265
8.71544e-266
9.04877e-264
4.08062e-267
2.77672e-265
1.4414e-268
7.54831e-267
4.82938e-270
2.04356e-268
1.51913e-271
5.67225e-270
4.59982e-273
1.56143e-271
1.43248e-274
4.33187e-273
7.90673e-275
1.87238e-273
2.93911e-273
3.80604e-272
-1.80281e-274
1.51058e-270
6.46683e-274
5.95485e-272
2.80481e-275
1.84545e-273
9.8876e-277
5.12031e-275
5.40786e-278
1.42291e-276
3.19258e-279
6.95664e-278
1.20301e-280
2.98539e-279
4.39145e-282
1.059e-280
1.73651e-283
3.71443e-282
7.5759e-285
1.38835e-283
3.71304e-286
5.66878e-285
2.17718e-287
2.59027e-286
1.8433e-288
1.37496e-287
8.79981e-290
1.15857e-288
-1.49032e-293
5.5729e-290
-6.72302e-296
3.37922e-292
8.69205e-296
7.26538e-294
7.55254e-297
2.63807e-295
5.24158e-298
1.18548e-296
3.59186e-299
6.11424e-298
2.56295e-300
3.56495e-299
1.92159e-301
2.30459e-300
1.50318e-302
1.61167e-301
1.21293e-303
1.19177e-302
1.00061e-304
9.15538e-304
8.39738e-306
7.22733e-305
7.15686e-307
5.83002e-306
6.19676e-308
4.79586e-307
5.45902e-309
4.02319e-308
4.90249e-310
3.44547e-309
4.49735e-311
3.01696e-310
4.2226e-312
2.70559e-311
4.06441e-313
2.48884e-312
2.33135e-313
0
0
0
0
0
0
0
0
0
0
0
0
4.94066e-324
1.97626e-323
3.45846e-323
2.66795e-322
4.19956e-322
3.45352e-321
5.48413e-321
4.69412e-320
7.42679e-320
6.59469e-319
1.03928e-318
9.56349e-318
1.50167e-317
1.4297e-316
2.23766e-316
2.20018e-315
3.43417e-315
3.47988e-314
5.42052e-314
5.64672e-313
8.78576e-313
9.3823e-312
1.45984e-311
1.59289e-310
2.48201e-310
2.75699e-309
4.30769e-309
4.85247e-308
7.60206e-308
8.65695e-307
1.3524e-306
1.55677e-305
2.3754e-305
2.78746e-304
3.95477e-304
4.83747e-303
6.01341e-303
7.79132e-302
8.77236e-302
1.13169e-300
1.3437e-300
1.54041e-299
2.2502e-299
2.23526e-298
6.40876e-298
5.65594e-297
2.84082e-296
2.16911e-295
1.61915e-293
1.57777e-292
-1.54541e-292
2.49431e-291
1.1712e-291
3.8967e-290
3.03623e-290
7.05358e-289
1.38598e-288
2.10357e-287
3.57865e-286
4.21186e-285
-1.33015e-284
5.76045e-284
-1.74639e-284
7.28153e-283
1.10437e-283
1.38901e-281
6.41508e-282
2.48008e-280
-4.02694e-281
1.8243e-279
2.2445e-281
1.63613e-279
3.28938e-280
2.09528e-278
7.25713e-279
4.29823e-277
2.21081e-277
7.23068e-276
3.2332e-276
8.36864e-275
2.09656e-277
7.31893e-276
1.83099e-276
6.35568e-275
5.00855e-275
1.53708e-273
1.34403e-273
3.5149e-272
3.94584e-272
7.2011e-271
2.15723e-271
2.20776e-269
5.74456e-272
3.7737e-270
1.31185e-270
5.99826e-269
3.59473e-269
1.28903e-267
9.80383e-268
2.77494e-266
3.07927e-266
5.87077e-265
9.6808e-266
1.56025e-263
6.19213e-267
4.90534e-265
2.55884e-268
1.41397e-266
9.47865e-270
4.12891e-268
3.29466e-271
1.23953e-269
1.10183e-272
3.72263e-271
3.69555e-274
1.12676e-272
1.47641e-274
3.42791e-273
4.99234e-273
6.46377e-272
3.45997e-273
2.4078e-270
1.1863e-273
1.07509e-271
5.30074e-275
3.49993e-273
2.02112e-276
1.0454e-274
1.20814e-277
3.15315e-276
7.03953e-279
1.64988e-277
2.84238e-280
7.35475e-279
1.10957e-281
2.76053e-280
4.59065e-283
1.01969e-281
2.06258e-284
3.96972e-283
1.03117e-285
1.67726e-284
6.21837e-287
7.87194e-286
5.20732e-288
4.29423e-287
2.27471e-289
3.29377e-288
-3.60433e-293
1.56364e-289
-8.39138e-296
1.19188e-291
4.04669e-295
2.55115e-293
2.87071e-296
9.25094e-295
1.76797e-297
3.88141e-296
1.10479e-298
1.85756e-297
7.31664e-300
1.01167e-298
5.19525e-301
6.20296e-300
3.93342e-302
4.20107e-301
3.13662e-303
3.06871e-302
2.60057e-304
2.36724e-303
2.21985e-305
1.89886e-304
1.93941e-306
1.56869e-305
1.7295e-307
1.32793e-306
1.57328e-308
1.14952e-307
1.46075e-309
1.01727e-308
1.38592e-310
9.20898e-310
1.34558e-311
8.53759e-311
1.33861e-312
8.11565e-312
7.84779e-313
0
0
0
0
0
0
0
0
0
0
0
4.94066e-324
4.94066e-324
4.94066e-323
7.90505e-323
6.22523e-322
9.43665e-322
7.83094e-321
1.18823e-320
1.02094e-319
1.54618e-319
1.37782e-318
2.08219e-318
1.92117e-317
2.89693e-317
2.763e-316
4.15746e-316
4.09112e-315
6.14415e-315
6.2245e-314
9.33409e-314
9.71097e-313
1.45492e-312
1.55004e-311
2.32203e-311
2.52522e-310
3.78576e-310
4.18788e-309
6.28652e-309
7.04935e-308
1.05832e-307
1.19984e-306
1.78949e-306
2.05223e-305
2.97851e-305
3.48288e-304
4.70644e-304
5.71415e-303
6.84089e-303
8.70574e-302
9.51547e-302
1.1988e-300
1.37842e-300
1.54135e-299
2.21357e-299
2.12286e-298
6.32499e-298
5.35277e-297
2.82268e-296
2.10479e-295
1.50821e-293
1.39183e-292
4.80662e-293
3.16718e-291
2.06566e-291
5.65432e-290
4.67986e-290
9.7902e-289
2.33289e-288
3.45911e-287
6.47015e-286
8.9617e-285
-3.08718e-284
1.41085e-283
-4.89892e-284
1.89784e-282
2.58937e-283
3.29967e-281
1.23209e-281
5.38671e-280
-1.18316e-280
3.83348e-279
7.33262e-281
5.33783e-279
9.4742e-280
6.04394e-278
1.91421e-278
1.11182e-276
5.28681e-277
1.66567e-275
6.18686e-276
1.72591e-274
4.44284e-277
1.62957e-275
3.71815e-276
1.30445e-274
9.42986e-275
2.92694e-273
2.38791e-273
6.18235e-272
6.61306e-272
1.21415e-270
3.57288e-271
3.20902e-269
1.22574e-271
8.32592e-270
2.88534e-270
1.31509e-268
7.29835e-269
2.6329e-267
1.87977e-267
5.24239e-266
5.47728e-266
1.05549e-264
1.74995e-265
2.40328e-263
9.65045e-267
8.16575e-265
4.23323e-268
2.38859e-266
1.66035e-269
7.35497e-268
6.16365e-271
2.3449e-269
2.20276e-272
7.53511e-271
7.69906e-274
2.43887e-272
2.56322e-274
6.073e-273
7.85238e-273
1.04775e-271
4.76758e-272
3.54793e-270
2.5449e-273
1.96628e-271
1.05543e-274
6.48597e-273
4.11355e-276
2.03428e-274
2.52806e-277
6.49187e-276
1.37883e-278
3.47771e-277
5.6089e-280
1.55744e-278
2.22966e-281
5.94476e-280
9.31605e-283
2.23563e-281
4.22211e-284
8.82564e-283
2.10505e-285
3.77467e-284
1.27513e-286
1.77786e-285
1.03667e-287
9.73437e-287
4.41736e-289
6.71026e-288
-4.25672e-293
3.32293e-289
2.6312e-293
3.50621e-291
2.22627e-294
9.36078e-293
1.29746e-295
3.46343e-294
7.24627e-297
1.42465e-295
4.16892e-298
6.52166e-297
2.53369e-299
3.32967e-298
1.64565e-300
1.89207e-299
1.14717e-301
1.18887e-300
8.55792e-303
8.16207e-302
6.77586e-304
6.02975e-303
5.63502e-305
4.72036e-304
4.87628e-306
3.86661e-305
4.36078e-307
3.28462e-306
4.01305e-308
2.87765e-307
3.79191e-309
2.59235e-308
3.67587e-310
2.39824e-309
3.65591e-311
2.27788e-310
3.73178e-312
2.22191e-311
2.20638e-312
0
0
0
0
0
0
0
0
0
0
0
1.4822e-323
1.4822e-323
1.23516e-322
1.77864e-322
1.43773e-321
2.01579e-321
1.68575e-320
2.37349e-320
2.05882e-319
2.91015e-319
2.61643e-318
3.71024e-318
3.45232e-317
4.90793e-317
4.71834e-316
6.7201e-316
6.6623e-315
9.50076e-315
9.69243e-314
1.38336e-313
1.44872e-312
2.06896e-312
2.2182e-311
3.16961e-311
3.46864e-310
4.95869e-310
5.52155e-309
7.89255e-309
8.91583e-308
1.2711e-307
1.45387e-306
2.05105e-306
2.37766e-305
3.2528e-305
3.84949e-304
4.91091e-304
6.02055e-303
6.87426e-303
8.77738e-302
9.21481e-302
1.16503e-300
1.27867e-300
1.44561e-299
1.95298e-299
1.88963e-298
5.45297e-298
4.63742e-297
2.42772e-296
1.83238e-295
1.15366e-293
1.02093e-292
1.41192e-292
3.47662e-291
3.01498e-291
6.96923e-290
6.64113e-290
1.27187e-288
3.57016e-288
5.241e-287
1.05681e-285
1.62966e-284
-4.9032e-284
2.81752e-283
3.02173e-285
4.05364e-282
6.42579e-283
6.80283e-281
2.31361e-281
1.0606e-279
-2.51183e-280
7.60456e-279
2.17247e-280
1.47375e-278
2.33272e-279
1.48301e-277
4.36644e-278
2.45503e-276
1.08564e-276
3.30238e-275
1.0146e-275
3.07217e-274
8.14739e-277
3.16031e-275
6.83163e-276
2.46207e-274
1.63127e-274
5.22173e-273
3.96687e-273
1.04505e-271
1.07536e-271
2.03615e-270
5.90612e-271
4.42017e-269
2.43906e-271
1.63283e-269
5.64635e-270
2.55405e-268
1.34424e-268
4.88844e-267
3.31876e-267
9.29124e-266
9.21363e-266
1.83182e-264
3.33904e-265
3.46812e-263
1.57205e-266
1.30691e-264
6.91348e-268
3.87711e-266
2.78606e-269
1.24043e-267
1.07243e-270
4.12808e-269
3.97635e-272
1.39078e-270
1.414e-273
4.71507e-272
4.45531e-274
1.10427e-272
1.24842e-272
1.72877e-271
1.19553e-271
4.98606e-270
5.4776e-273
3.43196e-271
2.14919e-274
1.19442e-272
8.37725e-276
3.8802e-274
5.09002e-277
1.28012e-275
2.48473e-278
6.77861e-277
9.71489e-280
2.96331e-278
3.84109e-281
1.11666e-279
1.61199e-282
4.19023e-281
7.25636e-284
1.6558e-282
3.54316e-285
7.0602e-284
2.13855e-286
3.28365e-285
1.68644e-287
1.77605e-286
7.50939e-289
1.15108e-287
3.14236e-291
5.92011e-289
1.79446e-292
9.40456e-291
9.88159e-294
3.01706e-292
5.24582e-295
1.16064e-293
2.83128e-296
4.90495e-295
1.59049e-297
2.27042e-296
9.38127e-299
1.15e-297
5.84179e-300
6.35619e-299
3.85998e-301
3.82142e-300
2.71472e-302
2.48871e-301
2.03119e-303
1.74468e-302
1.61027e-304
1.3057e-303
1.34421e-305
1.03377e-304
1.17385e-306
8.58724e-306
1.06643e-307
7.43433e-307
1.00379e-308
6.67611e-308
9.76295e-310
6.19957e-309
9.7965e-311
5.9427e-310
1.01322e-311
5.87446e-311
5.93108e-312
0
0
0
0
0
0
0
0
0
4.94066e-324
4.94066e-324
4.44659e-323
5.43472e-323
4.15015e-322
5.13828e-322
4.2045e-321
5.21733e-321
4.42732e-320
5.52316e-320
4.86388e-319
6.11436e-319
5.58001e-318
7.07946e-318
6.68547e-317
8.56733e-317
8.35826e-316
1.08194e-315
1.08848e-314
1.42239e-314
1.47264e-313
1.94051e-313
2.06292e-312
2.73716e-312
2.98041e-311
3.97551e-311
4.42207e-310
5.91893e-310
6.70755e-309
8.98661e-309
1.03506e-307
1.38191e-307
1.61555e-306
2.12922e-306
2.53007e-305
3.2265e-305
3.92286e-304
4.6742e-304
5.88683e-303
6.33338e-303
8.29163e-302
8.25263e-302
1.07497e-300
1.11045e-300
1.3095e-299
1.61389e-299
1.63322e-298
4.30475e-298
3.81966e-297
1.89576e-296
1.48654e-295
9.35318e-294
8.1045e-293
2.01293e-292
3.42355e-291
3.74555e-291
7.54433e-290
8.79943e-290
1.5683e-288
5.0967e-288
7.44448e-287
1.57667e-285
2.57869e-284
-4.97367e-284
4.7737e-283
3.75812e-284
7.42493e-282
1.53713e-282
1.23962e-280
4.29551e-281
1.92326e-279
-3.85839e-280
1.43653e-278
5.60477e-280
3.60134e-278
5.04226e-279
3.25722e-277
8.86774e-278
4.85389e-276
1.98774e-276
5.89349e-275
1.48805e-275
4.93234e-274
1.33829e-276
5.59786e-275
1.18776e-275
4.45421e-274
2.69249e-274
9.00679e-273
6.34044e-273
1.72428e-271
1.67206e-271
3.30376e-270
9.10354e-271
5.90099e-269
4.5882e-271
2.9404e-269
1.02368e-269
4.571e-268
2.3265e-268
8.49897e-267
5.53758e-267
1.56633e-265
1.46185e-265
3.02069e-264
5.85063e-265
4.81049e-263
2.6459e-266
2.04e-264
1.15046e-267
6.27005e-266
4.68112e-269
2.07148e-267
1.8265e-270
7.0935e-269
6.8534e-272
2.45801e-270
2.42656e-273
8.56128e-272
8.22546e-274
2.14641e-272
2.14868e-272
3.05634e-271
2.22666e-271
6.78247e-270
1.08879e-272
5.64193e-271
4.22586e-274
2.1332e-272
1.64531e-275
7.1577e-274
9.67711e-277
2.40476e-275
4.18422e-278
1.23557e-276
1.53288e-279
5.19111e-278
5.91049e-281
1.89594e-279
2.43418e-282
6.99155e-281
1.06656e-283
2.72335e-282
5.13576e-285
1.14051e-283
3.11995e-286
5.21176e-285
2.40028e-287
2.77262e-286
1.13833e-288
1.72415e-287
1.99577e-290
9.18241e-289
6.91765e-292
2.32184e-290
3.32743e-293
7.9772e-292
1.73285e-294
3.24782e-293
9.47234e-296
1.45143e-294
5.43011e-297
7.05086e-296
3.26497e-298
3.71014e-297
2.06077e-299
2.10558e-298
1.36836e-300
1.28349e-299
9.5791e-302
8.37112e-301
7.07487e-303
5.81735e-302
5.50589e-304
4.28657e-303
4.50211e-305
3.33158e-304
3.8542e-306
2.71726e-305
3.44243e-307
2.31541e-306
3.19843e-308
2.0541e-307
3.0846e-309
1.89241e-308
3.08313e-310
1.80754e-309
3.1903e-311
1.78799e-310
1.81437e-311
0
0
0
0
0
0
0
0
4.94066e-324
2.47033e-323
2.47033e-323
2.07508e-322
2.37152e-322
1.89227e-321
2.11954e-321
1.77024e-320
1.96688e-320
1.70502e-319
1.88412e-319
1.695e-318
1.86791e-318
1.74158e-317
1.92008e-317
1.85279e-316
2.05077e-316
2.04494e-315
2.28064e-315
2.3461e-314
2.64524e-314
2.80206e-313
3.20248e-313
3.48618e-312
4.04478e-312
4.51515e-311
5.31805e-311
6.07394e-310
7.25015e-310
8.454e-309
1.0189e-308
1.21081e-307
1.4638e-307
1.77168e-306
2.12358e-306
2.62277e-305
3.05259e-305
3.87247e-304
4.23616e-304
5.58199e-303
5.5692e-303
7.65063e-302
7.11884e-302
9.81059e-301
9.45627e-301
1.19808e-299
1.36953e-299
1.49723e-298
3.28063e-298
3.13154e-297
1.44443e-296
1.19857e-295
7.91134e-294
6.9456e-293
2.25427e-292
3.1633e-291
4.07513e-291
7.39986e-290
1.09522e-289
1.84507e-288
6.92194e-288
1.00624e-286
2.18855e-285
3.62265e-284
-9.00089e-285
7.08876e-283
1.27812e-283
1.18772e-281
3.35195e-282
2.01806e-280
7.88578e-281
3.23408e-279
-3.38338e-280
2.59547e-278
1.22708e-279
7.99272e-278
9.73453e-279
6.60774e-277
1.63953e-277
8.86925e-276
3.33423e-276
9.758e-275
2.0168e-275
7.35776e-274
2.05608e-276
9.40687e-275
2.00674e-275
7.96993e-274
4.3339e-274
1.53733e-272
9.92536e-273
2.8044e-271
2.49091e-271
5.16429e-270
1.32866e-270
7.73621e-269
8.26006e-271
5.00887e-269
1.7722e-269
7.77208e-268
3.87871e-268
1.41665e-266
8.9047e-267
2.54354e-265
2.20958e-265
4.7467e-264
9.55125e-265
6.50876e-263
4.51065e-266
3.13809e-264
1.97022e-267
1.02575e-265
8.06406e-269
3.51012e-267
3.14655e-270
1.22704e-268
1.17238e-271
4.30855e-270
4.07238e-273
1.51686e-271
1.64937e-273
4.50229e-272
4.0705e-272
5.87304e-271
3.56786e-271
9.00824e-270
1.93556e-272
8.72037e-271
7.68854e-274
3.60299e-272
3.02282e-275
1.25065e-273
1.71496e-276
4.25229e-275
6.62356e-278
2.11042e-276
2.24337e-279
8.48416e-278
8.33241e-281
2.97321e-279
3.3379e-282
1.06648e-280
1.42342e-283
4.05479e-282
6.7818e-285
1.65581e-283
4.12319e-286
7.40477e-285
3.09195e-287
3.8528e-286
1.55037e-288
2.31925e-287
4.32801e-290
1.27416e-288
1.70234e-291
4.34339e-290
8.49809e-293
1.69336e-291
4.62607e-294
7.52337e-293
2.65789e-295
3.63727e-294
1.60422e-296
1.89968e-295
1.01561e-297
1.06886e-296
6.74293e-299
6.45105e-298
4.69582e-300
4.15618e-299
3.42975e-301
2.84367e-300
2.62459e-302
2.0555e-301
2.10029e-303
1.56182e-302
1.75338e-304
1.24187e-303
1.52348e-305
1.02957e-304
1.37505e-306
8.87541e-306
1.28749e-307
7.94104e-307
1.24958e-308
7.3666e-308
1.25673e-309
7.08224e-309
1.30948e-310
7.05588e-310
7.22481e-311
0
0
0
0
0
0
0
1.4822e-323
1.97626e-323
1.33398e-322
1.43279e-322
1.15117e-321
1.23022e-321
1.01432e-320
1.06768e-320
9.16047e-320
9.51373e-320
8.4798e-319
8.69511e-319
8.04387e-318
8.15013e-318
7.81656e-317
7.83414e-317
7.77961e-316
7.72367e-316
7.93072e-315
7.81394e-315
8.28394e-314
8.11913e-314
8.87285e-313
8.67587e-313
9.75706e-312
9.55059e-312
1.10339e-310
1.0852e-310
1.28571e-309
1.27502e-309
1.54673e-308
1.55022e-308
1.92358e-307
1.94751e-307
2.47235e-306
2.51327e-306
3.2732e-305
3.28998e-305
4.42664e-304
4.28543e-304
6.02362e-303
5.48007e-303
8.08635e-302
7.04228e-302
1.05701e-300
9.69994e-301
1.3596e-299
1.48766e-299
1.81053e-298
3.06281e-298
3.22808e-297
1.48624e-296
1.31943e-295
6.82377e-294
6.21535e-293
2.18478e-292
2.91513e-291
4.09569e-291
6.92936e-290
1.2971e-289
2.09745e-288
9.09586e-288
1.31519e-286
2.83565e-285
4.61193e-284
1.1055e-284
9.69932e-283
2.88616e-283
1.69901e-281
6.52588e-282
2.97148e-280
1.39415e-280
5.07397e-279
1.34299e-280
4.50219e-278
2.285e-279
1.63557e-277
1.70359e-278
1.26043e-276
2.81353e-277
1.52851e-275
5.22805e-276
1.53015e-274
2.58696e-275
1.04137e-273
3.05907e-276
1.54553e-274
3.32102e-275
1.42809e-273
6.94729e-274
2.61536e-272
1.53656e-272
4.52671e-271
3.58932e-271
7.83175e-270
1.87217e-270
1.00389e-268
1.44436e-270
8.2632e-269
2.99357e-269
1.28491e-267
6.33661e-268
2.30665e-266
1.39957e-266
4.03043e-265
3.22582e-265
7.18896e-264
1.48453e-264
8.66496e-263
7.67871e-266
4.77778e-264
3.45448e-267
1.69863e-265
1.43179e-268
6.07619e-267
5.56784e-270
2.16822e-268
2.03272e-271
7.65856e-270
6.93747e-273
2.69386e-271
3.49001e-273
9.86972e-272
8.16388e-272
1.18941e-270
5.16079e-271
1.17324e-269
3.07623e-272
1.27216e-270
1.27156e-273
5.69304e-272
5.11519e-275
2.04456e-273
2.81024e-276
7.02714e-275
9.85609e-278
3.37715e-276
3.07887e-279
1.30249e-277
1.09666e-280
4.36807e-279
4.24207e-282
1.5165e-280
1.74404e-283
5.59134e-282
8.17102e-285
2.21055e-283
5.01103e-286
9.61337e-285
3.66756e-287
4.88906e-286
1.91889e-288
2.86377e-287
6.95329e-290
1.61498e-288
3.18794e-291
6.74494e-290
1.74524e-292
3.01204e-291
1.02837e-293
1.48503e-292
6.37166e-295
7.88943e-294
4.14295e-296
4.50675e-295
2.82765e-297
2.76515e-296
2.02432e-298
1.81497e-297
1.51764e-299
1.2667e-298
1.18858e-300
9.33522e-300
9.69589e-302
7.21673e-301
8.21452e-303
5.81934e-302
7.2105e-304
4.87389e-303
6.54642e-305
4.22777e-304
6.14186e-306
3.7921e-305
5.95321e-307
3.5148e-306
5.96325e-308
3.36674e-307
6.17694e-309
3.33473e-308
6.62098e-310
3.4183e-309
3.60004e-310
0
0
0
0
0
9.88131e-324
9.88131e-324
9.38725e-323
9.88131e-323
7.65802e-322
7.95446e-322
6.51179e-321
6.6353e-321
5.661e-320
5.68818e-320
5.04851e-319
5.00345e-319
4.61542e-318
4.51278e-318
4.32236e-317
4.17025e-317
4.1432e-316
3.94521e-316
4.06134e-315
3.8175e-315
4.06726e-314
3.77452e-314
4.15698e-313
3.80924e-313
4.33108e-312
3.91893e-312
4.59416e-311
4.10425e-311
4.95456e-310
4.36858e-310
5.42444e-309
4.71762e-309
6.02054e-308
5.15946e-308
6.76665e-307
5.7058e-307
7.70039e-306
6.37561e-306
8.88893e-305
7.20291e-305
1.04594e-303
8.25805e-304
1.26432e-302
9.73166e-303
1.58163e-301
1.22297e-301
2.05286e-300
1.73415e-300
2.76586e-299
2.81684e-299
3.93001e-298
5.42544e-298
6.44627e-297
2.31699e-296
2.20841e-295
6.0406e-294
5.75196e-293
2.13228e-292
2.76525e-291
4.02935e-291
6.50974e-290
1.49957e-289
2.3619e-288
1.17647e-287
1.69354e-286
3.44989e-285
5.43662e-284
2.81714e-284
1.23971e-282
5.12164e-283
2.24271e-281
1.1e-281
4.0632e-280
2.39171e-280
7.52352e-279
8.39856e-280
7.53438e-278
3.69412e-279
3.11768e-277
2.74391e-278
2.28144e-276
4.55485e-277
2.51564e-275
7.7728e-276
2.30442e-274
3.20052e-275
1.41963e-273
4.55148e-276
2.53751e-274
5.5526e-275
2.56331e-273
1.11924e-273
4.44338e-272
2.36104e-272
7.27421e-271
5.05165e-271
1.16151e-269
2.58833e-270
1.2959e-268
2.48762e-270
1.34119e-268
5.00029e-269
2.09672e-267
1.02443e-267
3.71323e-266
2.16751e-266
6.29405e-265
4.60034e-265
1.06076e-263
2.23089e-264
1.14063e-262
1.29458e-265
7.19864e-264
6.12379e-267
2.82591e-265
2.59882e-268
1.06784e-266
1.01257e-269
3.91297e-268
3.6119e-271
1.39235e-269
1.21739e-272
4.87253e-271
7.35556e-273
2.13971e-271
1.60199e-271
2.36944e-270
6.9155e-271
1.50363e-269
4.43028e-272
1.76327e-270
1.91128e-273
8.42138e-272
7.94244e-275
3.11946e-273
4.25771e-276
1.08401e-274
1.38179e-277
5.07455e-276
4.00672e-279
1.88872e-277
1.3685e-280
6.08028e-279
5.09463e-282
2.04145e-280
2.01541e-283
7.27669e-282
9.29133e-285
2.77535e-283
5.69618e-286
1.17004e-284
4.07349e-287
5.79346e-286
2.2041e-288
3.31632e-287
9.54916e-290
1.91367e-288
5.04373e-291
9.29253e-290
3.07571e-292
4.72918e-291
1.9967e-293
2.60769e-292
1.35753e-294
1.53991e-293
9.68081e-296
9.7523e-295
7.24951e-297
6.62195e-296
5.69004e-298
4.79646e-297
4.66194e-299
3.67595e-298
3.96834e-300
2.95475e-299
3.49466e-301
2.47219e-300
3.174e-302
2.14111e-301
2.96769e-303
1.91283e-302
2.85446e-304
1.75968e-303
2.82474e-305
1.66607e-304
2.87805e-306
1.62414e-305
3.02251e-307
1.63167e-306
3.27609e-308
1.69155e-307
3.6693e-309
1.81208e-308
1.99233e-309
0
0
0
9.88131e-324
9.88131e-324
6.91692e-323
6.91692e-323
5.43472e-322
5.43472e-322
4.44165e-321
4.3873e-321
3.74403e-320
3.65263e-320
3.24562e-319
3.12916e-319
2.89295e-318
2.75712e-318
2.65026e-317
2.49756e-317
2.4942e-316
2.32474e-316
2.40996e-315
2.22194e-315
2.38897e-314
2.17872e-314
2.42736e-313
2.18908e-313
2.52499e-312
2.25016e-312
2.6847e-311
2.36106e-311
2.91153e-310
2.52148e-310
3.21154e-309
2.72979e-309
3.58978e-308
2.98027e-308
4.04698e-307
3.25895e-307
4.5746e-306
3.53885e-306
5.14899e-305
3.77681e-305
5.72815e-304
3.91944e-304
6.25955e-303
3.93446e-303
6.71407e-302
3.88452e-302
7.1571e-301
4.02577e-301
7.83214e-300
4.87071e-300
9.19308e-299
7.23328e-299
1.19551e-297
1.31453e-297
1.78283e-296
3.98901e-296
4.07024e-295
5.63348e-294
5.58679e-293
2.17055e-292
2.78895e-291
4.07008e-291
6.39869e-290
1.7542e-289
2.72654e-288
1.52368e-287
2.19012e-286
3.98835e-285
6.06678e-284
4.86011e-284
1.49972e-282
8.03323e-283
2.75707e-281
1.68577e-281
5.2157e-280
3.82219e-280
1.06766e-278
2.15133e-279
1.21715e-277
5.39691e-279
5.58321e-277
4.15652e-278
3.93481e-276
7.05923e-277
3.98214e-275
1.10592e-275
3.36408e-274
3.87648e-275
1.88444e-273
6.89933e-276
4.21286e-274
9.298e-275
4.59453e-273
1.80637e-273
7.53063e-272
3.59573e-272
1.16195e-270
6.9933e-271
1.69405e-269
3.55126e-270
1.6698e-268
4.25485e-270
2.15913e-268
8.30391e-269
3.39901e-267
1.64403e-267
5.93593e-266
3.31679e-266
9.72781e-265
6.45569e-265
1.53558e-263
3.27314e-264
1.48894e-262
2.14906e-265
1.07121e-263
1.08318e-266
4.67582e-265
4.75756e-268
1.88313e-266
1.88047e-269
7.14578e-268
6.64908e-271
2.5837e-269
2.21339e-272
9.0482e-271
1.48046e-272
4.40342e-271
2.94268e-271
4.47181e-270
8.68523e-271
1.8999e-269
5.87016e-272
2.33759e-270
2.63654e-273
1.17338e-271
1.13678e-274
4.46004e-273
5.97095e-276
1.56611e-274
1.8289e-277
7.17701e-276
4.99845e-279
2.59843e-277
1.64569e-280
8.09347e-279
5.90961e-282
2.63568e-280
2.25984e-283
9.08909e-282
1.03207e-284
3.34625e-283
6.31515e-286
1.36918e-284
4.38416e-287
6.60484e-286
2.43498e-288
3.70083e-287
1.20919e-289
2.18123e-288
7.24827e-291
1.19499e-289
4.93388e-292
6.88393e-291
3.5597e-293
4.26378e-292
2.68874e-294
2.82378e-293
2.1313e-295
2.00403e-294
1.77268e-296
1.52123e-295
1.53979e-297
1.22547e-296
1.3875e-298
1.03668e-297
1.28907e-299
9.11873e-299
1.22949e-300
8.27884e-300
1.20109e-301
7.72279e-301
1.20097e-302
7.38582e-302
1.22965e-303
7.23809e-303
1.29065e-304
7.27271e-304
1.39084e-305
7.50136e-305
1.54141e-306
7.95484e-306
1.75983e-307
8.688e-307
2.07284e-308
9.78866e-308
1.13025e-308
0
4.94066e-324
4.94066e-324
5.43472e-323
4.94066e-323
4.05134e-322
3.95253e-322
3.23613e-321
3.08791e-321
2.64918e-320
2.50244e-320
2.23817e-319
2.09405e-319
1.95073e-318
1.80857e-318
1.75374e-317
1.61177e-317
1.62588e-316
1.48157e-316
1.55383e-315
1.40393e-315
1.52987e-314
1.37021e-314
1.55046e-313
1.3756e-313
1.6154e-312
1.41799e-312
1.72723e-311
1.49713e-311
1.89081e-310
1.61367e-310
2.11258e-309
1.76789e-309
2.39933e-308
1.95769e-308
2.75576e-307
2.17543e-307
3.18024e-306
2.40338e-306
3.65803e-305
2.6083e-305
4.1523e-304
2.73786e-304
4.59552e-303
2.7266e-303
4.88971e-302
2.52645e-302
4.93228e-301
2.1687e-301
4.68362e-300
1.81176e-300
4.25404e-299
1.68455e-299
3.91633e-298
1.98556e-298
3.99145e-297
3.07596e-297
4.7796e-296
6.82187e-296
7.38303e-295
5.83996e-294
5.95005e-293
2.4142e-292
3.08863e-291
4.44719e-291
6.89565e-290
2.15646e-289
3.34461e-288
2.00607e-287
2.89437e-286
4.48448e-285
6.61456e-284
7.08782e-284
1.76939e-282
1.11837e-282
3.25523e-281
2.36838e-281
6.42626e-280
5.79379e-280
1.46654e-278
4.36389e-279
1.90301e-277
7.63198e-279
9.45976e-277
6.11586e-278
6.48109e-276
1.06172e-276
6.08593e-275
1.5153e-275
4.78362e-274
4.64999e-275
2.45509e-273
1.07295e-275
7.07316e-274
1.55204e-274
8.1575e-273
2.88191e-273
1.26598e-271
5.4115e-272
1.83534e-270
9.56558e-271
2.43704e-269
4.86119e-270
2.153e-268
7.234e-270
3.45443e-268
1.36971e-268
5.47106e-267
2.61939e-267
9.39986e-266
5.01356e-266
1.48671e-264
8.95418e-265
2.18836e-263
4.71031e-264
1.93069e-262
3.49432e-265
1.5712e-263
1.89288e-266
7.6291e-265
8.66434e-268
3.29437e-266
3.53165e-269
1.30501e-267
1.25836e-270
4.85393e-269
4.20061e-272
1.7189e-270
2.80048e-272
8.43567e-271
4.99052e-271
7.89326e-270
1.03197e-270
2.36977e-269
7.26311e-272
2.98494e-270
3.38504e-273
1.55258e-271
1.51416e-274
6.01959e-273
7.8195e-276
2.13183e-274
2.30068e-277
9.6011e-276
6.05082e-279
3.40894e-277
1.93818e-280
1.03827e-278
6.75797e-282
3.29867e-280
2.52323e-283
1.10491e-281
1.15101e-284
3.9438e-283
6.99462e-286
1.57328e-284
4.69856e-287
7.41353e-286
2.67683e-288
4.0772e-287
1.4862e-289
2.4598e-288
9.97801e-291
1.49502e-289
7.57425e-292
9.70147e-291
6.10767e-293
6.77534e-292
5.16896e-294
5.06715e-293
4.59071e-295
4.05581e-294
4.26147e-296
3.45392e-295
4.10149e-297
3.09493e-296
4.05906e-298