/*--------------------------------*- C++ -*----------------------------------*\
  =========                 |
  \\      /  F ield         | OpenFOAM: The Open Source CFD Toolbox
   \\    /   O peration     | Website:  https://openfoam.org
    \\  /    A nd           | Version:  9
     \\/     M anipulation  |
\*---------------------------------------------------------------------------*/
FoamFile
{
    format      ascii;
    class       volScalarField;
    location    "0.07";
    object      p;
}
// * * * * * * * * * * * * * * * * * * * * * * * * * * * * * * * * * * * * * //

dimensions      [1 -1 -2 0 0 0 0];

internalField   nonuniform List<scalar> 
20000
(
1.30883
1.30865
1.30848
1.30829
1.30807
1.3078
1.30748
1.30708
1.30658
1.30598
1.30523
1.3043
1.30316
1.30175
1.30002
1.29787
1.2952
1.29186
1.28766
1.28231
1.27542
1.26654
1.25546
1.24364
1.23752
1.24771
1.25871
1.21691
1.08295
0.743746
0.202062
0.279396
0.616773
0.751942
0.631037
0.40401
0.366975
0.651338
0.808263
1.06137
0.290928
1.09923
1.01563
1.08586
1.18694
1.14226
1.19494
1.12626
1.12598
1.06418
1.1057
0.705888
1.10194
1.05586
1.11242
1.05563
1.12023
0.733036
1.11712
1.09593
1.14828
1.15993
1.15692
1.14232
1.06708
1.10413
0.295095
1.09746
1.08956
1.17298
1.24966
1.22018
1.25743
1.22369
1.21531
1.19874
1.16419
1.09332
0.926186
0.566174
0.768898
1.00419
1.13672
1.20462
1.24558
1.27049
1.28529
1.29389
1.2989
1.30192
1.30388
1.30524
1.30623
1.30698
1.30755
1.30799
1.30832
1.30858
1.30878
1.30893
1.30682
1.30655
1.30632
1.30608
1.30581
1.30552
1.30517
1.30476
1.30428
1.30369
1.30297
1.30209
1.30101
1.29969
1.29807
1.29607
1.29361
1.29058
1.28684
1.28226
1.27671
1.27018
1.26293
1.25545
1.24824
1.24202
1.22703
1.17561
1.06803
0.834296
0.501456
0.614412
0.742788
0.80244
0.687913
0.572604
0.56455
0.742215
0.839536
1.10192
0.614796
1.10476
1.03099
1.11355
1.17971
1.12722
1.19968
1.14249
1.15183
1.08018
1.13045
0.839912
1.13622
1.06824
1.14253
1.06464
1.14451
0.863323
1.14735
1.11092
1.1645
1.16958
1.16591
1.16102
1.0665
1.14161
0.650902
1.16229
1.10744
1.18967
1.24013
1.21087
1.25446
1.2321
1.22607
1.20861
1.17932
1.13306
1.08319
0.977803
1.01144
1.09414
1.16486
1.2085
1.23882
1.25951
1.27356
1.28321
1.28995
1.29471
1.29811
1.30055
1.30232
1.30362
1.30458
1.3053
1.30585
1.30628
1.30663
1.30691
1.30491
1.3047
1.30453
1.30434
1.30413
1.30389
1.30361
1.30327
1.30287
1.30238
1.30177
1.30103
1.30012
1.299
1.29763
1.29593
1.29386
1.29133
1.28825
1.28454
1.28011
1.27488
1.26882
1.26196
1.25428
1.24584
1.23142
1.19309
1.13153
1.01333
0.774048
0.880883
0.959919
0.935675
0.852207
0.763133
0.764289
0.905425
0.91896
1.17125
0.847141
1.18114
1.06582
1.1366
1.19078
1.1365
1.20288
1.15008
1.17999
1.1026
1.19089
0.960981
1.19449
1.09249
1.18278
1.0888
1.20341
0.97923
1.20036
1.13363
1.18899
1.18544
1.18094
1.19236
1.10449
1.24052
0.918252
1.26039
1.14422
1.21269
1.2499
1.22193
1.25712
1.23924
1.24388
1.23634
1.22895
1.22034
1.26287
1.21439
1.21236
1.24366
1.24883
1.25634
1.26698
1.27613
1.2833
1.28876
1.29287
1.29594
1.29826
1.30001
1.30134
1.30234
1.30309
1.30366
1.3041
1.30444
1.30472
1.30495
1.30298
1.30286
1.30279
1.3027
1.30259
1.30246
1.3023
1.30209
1.30183
1.30149
1.30107
1.30053
1.29986
1.29901
1.29796
1.29666
1.29506
1.2931
1.29071
1.28782
1.28433
1.28016
1.27524
1.26963
1.26354
1.25734
1.24938
1.22682
1.19559
1.15051
1.00591
1.08142
1.14217
1.06738
1.01156
0.942541
0.9556
1.05429
1.00508
1.20658
1.00825
1.22418
1.10909
1.1638
1.20451
1.15384
1.21323
1.16223
1.21048
1.13264
1.24286
1.07235
1.24888
1.1276
1.22553
1.12448
1.25373
1.0855
1.24994
1.16413
1.21705
1.206
1.20157
1.22817
1.15398
1.30211
1.10638
1.32706
1.18783
1.24036
1.26164
1.23883
1.26544
1.25355
1.26623
1.26726
1.27778
1.28366
1.34512
1.33573
1.33207
1.33345
1.30999
1.30075
1.29827
1.29768
1.29813
1.29898
1.29986
1.30065
1.30134
1.30189
1.30231
1.30262
1.30284
1.30298
1.30306
1.3031
1.30312
1.30311
1.30106
1.30105
1.3011
1.30115
1.30118
1.30119
1.30118
1.30114
1.30107
1.30093
1.30074
1.30045
1.30007
1.29956
1.29889
1.29803
1.29695
1.2956
1.29394
1.29191
1.28947
1.28657
1.28322
1.2795
1.27546
1.27135
1.26782
1.2567
1.24252
1.24207
1.17188
1.21826
1.27377
1.16829
1.13667
1.08725
1.11291
1.16852
1.08178
1.22136
1.11251
1.24887
1.15176
1.19303
1.21965
1.17397
1.22715
1.182
1.24064
1.16582
1.28171
1.16118
1.28928
1.16652
1.26389
1.16363
1.29091
1.17048
1.28696
1.19728
1.24449
1.22869
1.22461
1.26028
1.19952
1.33246
1.22257
1.36205
1.22791
1.26726
1.2735
1.25526
1.27638
1.27068
1.28553
1.28975
1.30886
1.31553
1.3683
1.37556
1.37336
1.36377
1.33622
1.32425
1.31695
1.31202
1.30904
1.30721
1.30604
1.30525
1.30467
1.3042
1.30379
1.30341
1.30304
1.30268
1.30233
1.30198
1.30165
1.30131
1.29915
1.29927
1.29947
1.29967
1.29986
1.30004
1.30022
1.30038
1.30051
1.30061
1.30067
1.30068
1.30062
1.30047
1.30022
1.29984
1.29931
1.29861
1.29771
1.29659
1.29522
1.29362
1.29179
1.28979
1.28763
1.28537
1.28489
1.28233
1.27905
1.30415
1.28116
1.30884
1.36351
1.24357
1.23249
1.19489
1.23292
1.25659
1.14883
1.23488
1.17842
1.26963
1.19056
1.22052
1.23776
1.19624
1.24352
1.20441
1.26755
1.19817
1.31126
1.22437
1.31857
1.20375
1.29519
1.20097
1.31868
1.23135
1.31417
1.22876
1.26902
1.25113
1.24717
1.28589
1.23765
1.34987
1.28857
1.37865
1.26065
1.28966
1.28604
1.27059
1.28765
1.28507
1.29941
1.30556
1.32646
1.3325
1.37292
1.38031
1.3795
1.37011
1.34621
1.33458
1.32577
1.31953
1.31534
1.31238
1.31018
1.30848
1.3071
1.30593
1.30491
1.30398
1.30313
1.30233
1.30157
1.30085
1.30017
1.29951
1.29725
1.29751
1.29787
1.29823
1.2986
1.29898
1.29935
1.29972
1.30009
1.30044
1.30078
1.30109
1.30137
1.3016
1.30178
1.30188
1.30191
1.30185
1.3017
1.30144
1.30107
1.3006
1.30006
1.29952
1.29907
1.29878
1.30096
1.30517
1.30997
1.34921
1.35447
1.3687
1.41948
1.30169
1.30571
1.27404
1.32035
1.3251
1.20617
1.25026
1.22101
1.28627
1.22302
1.24495
1.2578
1.22051
1.26141
1.22675
1.29046
1.22798
1.33446
1.2687
1.34088
1.23717
1.32014
1.23457
1.33989
1.27437
1.3352
1.25683
1.2902
1.27182
1.26792
1.30531
1.26811
1.3616
1.32455
1.38507
1.28563
1.30703
1.29709
1.28616
1.29858
1.29691
1.31097
1.31776
1.33511
1.34312
1.37307
1.37748
1.37747
1.37043
1.35092
1.33981
1.33053
1.32389
1.31918
1.31561
1.31281
1.31054
1.30864
1.30698
1.30551
1.30416
1.30292
1.30176
1.30066
1.29963
1.29864
1.29769
1.29534
1.29576
1.29628
1.29683
1.29738
1.29795
1.29854
1.29913
1.29974
1.30035
1.30097
1.30159
1.30221
1.30282
1.30342
1.30401
1.30457
1.30513
1.30566
1.30619
1.30671
1.30725
1.30785
1.3086
1.30971
1.31132
1.31567
1.3247
1.3351
1.38134
1.40383
1.40649
1.44913
1.34618
1.36044
1.33557
1.3765
1.37792
1.25413
1.2663
1.25097
1.29998
1.25
1.26714
1.27838
1.24545
1.28008
1.24909
1.30897
1.25521
1.3528
1.30121
1.35821
1.26641
1.3401
1.26409
1.3561
1.30597
1.3517
1.28113
1.30834
1.29016
1.28679
1.31892
1.29216
1.36933
1.34348
1.38482
1.30388
1.32034
1.30723
1.30013
1.30852
1.30723
1.32028
1.32618
1.34061
1.34999
1.37112
1.37327
1.37341
1.3678
1.35224
1.34204
1.33304
1.32642
1.32147
1.31754
1.31436
1.31172
1.30945
1.30744
1.30562
1.30395
1.30241
1.30095
1.29958
1.29828
1.29704
1.29584
1.29343
1.294
1.2947
1.29542
1.29617
1.29694
1.29774
1.29856
1.29941
1.30028
1.30118
1.30211
1.30306
1.30404
1.30505
1.30608
1.30716
1.30828
1.30945
1.31069
1.31202
1.31347
1.3151
1.31699
1.31943
1.3226
1.32838
1.34037
1.35382
1.40206
1.43355
1.42757
1.46181
1.37899
1.39945
1.37999
1.41304
1.41752
1.29421
1.28346
1.27507
1.31288
1.27426
1.28809
1.29855
1.26973
1.29826
1.27154
1.32362
1.28045
1.36685
1.32558
1.3715
1.29151
1.35592
1.28953
1.3682
1.32956
1.36442
1.30175
1.32374
1.30596
1.30375
1.32784
1.31107
1.37322
1.35199
1.37976
1.31684
1.33038
1.31632
1.31192
1.31711
1.31599
1.32733
1.33216
1.34437
1.35252
1.36706
1.36756
1.36736
1.3627
1.35052
1.34157
1.33336
1.32714
1.32222
1.31821
1.31489
1.31205
1.30955
1.3073
1.30525
1.30335
1.30157
1.2999
1.29831
1.2968
1.29537
1.29397
1.29151
1.29223
1.2931
1.29401
1.29494
1.29591
1.29691
1.29795
1.29904
1.30017
1.30134
1.30256
1.30383
1.30516
1.30655
1.30801
1.30954
1.31118
1.31293
1.31481
1.31686
1.31911
1.32163
1.32448
1.32794
1.33229
1.33895
1.35245
1.36703
1.41427
1.44781
1.4381
1.46735
1.40233
1.42619
1.4114
1.43735
1.44349
1.3281
1.30378
1.2974
1.32608
1.2977
1.30794
1.31759
1.29255
1.3154
1.29162
1.337
1.30363
1.37722
1.34372
1.38154
1.31264
1.36812
1.311
1.37696
1.34691
1.37401
1.31891
1.3366
1.31913
1.31779
1.33528
1.32455
1.3735
1.35421
1.37166
1.32578
1.33755
1.32404
1.32156
1.32418
1.32298
1.33233
1.33598
1.3459
1.35224
1.36165
1.36105
1.36044
1.35653
1.34706
1.3393
1.33203
1.32632
1.32165
1.31777
1.31446
1.31156
1.30897
1.3066
1.30441
1.30236
1.30043
1.2986
1.29686
1.2952
1.29361
1.29208
1.28958
1.29045
1.29148
1.29255
1.29367
1.29482
1.29603
1.29728
1.29859
1.29996
1.30138
1.30288
1.30445
1.3061
1.30784
1.30967
1.31163
1.31373
1.31599
1.31843
1.32108
1.324
1.32725
1.33088
1.33514
1.34034
1.34755
1.36169
1.37662
1.42115
1.45191
1.44168
1.46924
1.41799
1.44392
1.43335
1.45248
1.45764
1.35681
1.3265
1.32065
1.34087
1.32097
1.32645
1.33494
1.31346
1.33144
1.30988
1.34953
1.32328
1.38473
1.35717
1.38905
1.3301
1.37725
1.32879
1.38321
1.35947
1.38111
1.3329
1.34714
1.32988
1.32896
1.34179
1.33315
1.371
1.35343
1.3623
1.33183
1.34236
1.3304
1.329
1.32967
1.32828
1.33558
1.33791
1.34548
1.35023
1.3559
1.35479
1.35396
1.35066
1.34315
1.33632
1.32985
1.32463
1.32027
1.31656
1.31334
1.31046
1.30784
1.30542
1.30316
1.30103
1.29901
1.29708
1.29524
1.29348
1.2918
1.29016
1.28762
1.28863
1.28982
1.29105
1.29233
1.29367
1.29505
1.2965
1.29802
1.29961
1.30127
1.30302
1.30486
1.3068
1.30884
1.31102
1.31335
1.31584
1.31853
1.32144
1.3246
1.32807
1.3319
1.33615
1.34104
1.34688
1.35449
1.36886
1.3841
1.42446
1.45011
1.44101
1.46785
1.42716
1.45495
1.4484
1.46066
1.46391
1.37938
1.34993
1.34436
1.35761
1.34383
1.34347
1.3503
1.33217
1.34633
1.32671
1.36127
1.33883
1.39025
1.36714
1.39464
1.34438
1.38394
1.34336
1.38763
1.36848
1.38629
1.34422
1.35567
1.33867
1.33776
1.34671
1.33818
1.36664
1.35162
1.35391
1.33592
1.34549
1.3353
1.33452
1.33378
1.33211
1.33743
1.33851
1.34391
1.34705
1.3504
1.34918
1.34835
1.34552
1.33933
1.33321
1.32737
1.32254
1.31844
1.3149
1.31177
1.30895
1.30634
1.30391
1.30162
1.29945
1.29738
1.29539
1.2935
1.29167
1.28992
1.28823
1.28564
1.28678
1.28811
1.28949
1.29092
1.29242
1.29397
1.2956
1.29731
1.29909
1.30097
1.30294
1.30502
1.30721
1.30952
1.31199
1.31462
1.31746
1.32051
1.32381
1.32738
1.33128
1.33557
1.34031
1.34568
1.352
1.35994
1.37397
1.39002
1.42515
1.44509
1.43746
1.46314
1.43093
1.46082
1.45837
1.46395
1.46578
1.39616
1.372
1.36733
1.37513
1.3654
1.3589
1.36308
1.34921
1.35991
1.34181
1.37169
1.35161
1.39436
1.37456
1.39876
1.356
1.3889
1.35503
1.39069
1.37488
1.38996
1.3533
1.36273
1.34568
1.34472
1.34993
1.34078
1.36135
1.34983
1.34791
1.33873
1.34754
1.33883
1.33842
1.33673
1.33472
1.33825
1.33828
1.34187
1.34353
1.34509
1.34405
1.34331
1.34091
1.33564
1.33011
1.32477
1.32024
1.31636
1.31297
1.30994
1.30717
1.30459
1.30217
1.29988
1.29769
1.29559
1.29358
1.29165
1.2898
1.28801
1.28628
1.28363
1.28489
1.28634
1.28786
1.28943
1.29106
1.29277
1.29456
1.29643
1.29839
1.30045
1.30261
1.30489
1.3073
1.30984
1.31255
1.31544
1.31854
1.32188
1.32548
1.32938
1.33361
1.33825
1.34334
1.34907
1.35576
1.36404
1.3778
1.39379
1.42371
1.43825
1.43143
1.45479
1.43024
1.4625
1.46433
1.46384
1.46344
1.40931
1.39207
1.38821
1.39184
1.38459
1.3728
1.37459
1.3639
1.37201
1.35505
1.38052
1.36249
1.39746
1.38017
1.40175
1.36541
1.39272
1.36411
1.39277
1.37941
1.39233
1.36154
1.3663
1.3526
1.34998
1.35237
1.34188
1.35606
1.34817
1.34464
1.34087
1.34888
1.34119
1.34102
1.33871
1.33633
1.33831
1.33746
1.33957
1.34004
1.34029
1.33928
1.33863
1.33655
1.33213
1.32705
1.32211
1.31784
1.31413
1.31087
1.30792
1.30521
1.30267
1.30027
1.29799
1.2958
1.2937
1.29168
1.28974
1.28787
1.28607
1.28432
1.2816
1.28295
1.28452
1.28614
1.28783
1.2896
1.29144
1.29336
1.29537
1.29748
1.2997
1.30203
1.30448
1.30706
1.30979
1.31268
1.31577
1.31907
1.32262
1.32645
1.33057
1.33504
1.33991
1.34525
1.35122
1.35814
1.3666
1.37999
1.39575
1.42037
1.43034
1.42278
1.44243
1.42572
1.46056
1.46677
1.46092
1.45963
1.41973
1.40943
1.40612
1.40661
1.40069
1.38492
1.385
1.37616
1.38265
1.36656
1.38791
1.37215
1.39931
1.38462
1.40386
1.37301
1.39564
1.37125
1.39421
1.3827
1.3936
1.36823
1.37003
1.35781
1.35436
1.35369
1.34306
1.35181
1.34745
1.34323
1.34265
1.34975
1.34267
1.34262
1.33988
1.33714
1.33779
1.33619
1.33705
1.33659
1.33598
1.33497
1.33438
1.33254
1.32866
1.32402
1.31942
1.31538
1.31182
1.30866
1.30579
1.30313
1.30064
1.29826
1.29599
1.29382
1.29173
1.28971
1.28777
1.2859
1.28411
1.28236
1.27952
1.28097
1.28263
1.28435
1.28615
1.28802
1.28997
1.29201
1.29414
1.29637
1.29872
1.30118
1.30377
1.30649
1.30936
1.3124
1.31563
1.31907
1.32276
1.32672
1.33098
1.33559
1.34058
1.34605
1.35213
1.35914
1.36759
1.38026
1.39539
1.41544
1.42146
1.41129
1.42628
1.41798
1.45548
1.46612
1.4564
1.4555
1.42742
1.42337
1.42057
1.4188
1.41349
1.3951
1.39385
1.38652
1.39193
1.37648
1.39401
1.37982
1.40092
1.38835
1.40541
1.37934
1.39769
1.3769
1.39524
1.38527
1.39435
1.37314
1.37381
1.36208
1.3581
1.35567
1.34441
1.34935
1.34796
1.34324
1.34428
1.35031
1.3435
1.34346
1.34041
1.3373
1.33683
1.33459
1.33443
1.33324
1.33209
1.33109
1.33052
1.32881
1.32535
1.32107
1.31678
1.31291
1.30948
1.30641
1.3036
1.30099
1.29853
1.29618
1.29394
1.29178
1.2897
1.2877
1.28577
1.28392
1.28213
1.2804
1.27742
1.27894
1.28068
1.28249
1.28437
1.28633
1.28837
1.2905
1.29273
1.29506
1.29751
1.30007
1.30277
1.3056
1.30858
1.31172
1.31505
1.31858
1.32234
1.32637
1.33068
1.33532
1.34033
1.34579
1.35185
1.35878
1.36702
1.37869
1.39253
1.40868
1.41116
1.39719
1.40745
1.40782
1.44787
1.46272
1.45128
1.45165
1.43252
1.43361
1.43142
1.42826
1.42317
1.40345
1.40117
1.39523
1.39984
1.38489
1.39903
1.38555
1.40276
1.39157
1.40662
1.38455
1.39925
1.38148
1.39607
1.3874
1.3949
1.37701
1.37684
1.36589
1.36166
1.35812
1.34672
1.34908
1.34951
1.34432
1.34587
1.35067
1.3439
1.34375
1.34044
1.33698
1.33557
1.33279
1.33179
1.33002
1.32853
1.3275
1.32695
1.32532
1.32219
1.31823
1.31418
1.31047
1.30714
1.30414
1.30138
1.29881
1.29638
1.29407
1.29185
1.28971
1.28765
1.28567
1.28376
1.28192
1.28015
1.27843
1.27528
1.27687
1.27867
1.28054
1.28249
1.28452
1.28664
1.28885
1.29116
1.29357
1.29609
1.29873
1.3015
1.30441
1.30746
1.31067
1.31406
1.31763
1.32142
1.32544
1.32973
1.33432
1.33925
1.34459
1.35047
1.35714
1.36496
1.37546
1.38748
1.39982
1.3993
1.38133
1.38782
1.39633
1.43858
1.45693
1.44603
1.44858
1.43549
1.44033
1.43884
1.43516
1.43018
1.41017
1.40718
1.40241
1.40643
1.39192
1.40325
1.39023
1.40439
1.39434
1.40763
1.38873
1.40064
1.38527
1.39683
1.38914
1.39577
1.37986
1.37927
1.3693
1.36507
1.36081
1.35049
1.3509
1.35182
1.34606
1.34739
1.35086
1.34398
1.34365
1.34012
1.3363
1.33408
1.33085
1.32917
1.32698
1.32525
1.32424
1.32351
1.32199
1.31914
1.31546
1.31163
1.30805
1.30481
1.30186
1.29915
1.29662
1.29422
1.29193
1.28973
1.28762
1.28558
1.28362
1.28173
1.27991
1.27816
1.27646
1.27312
1.27476
1.27661
1.27853
1.28054
1.28263
1.2848
1.28707
1.28944
1.2919
1.29447
1.29716
1.29998
1.30293
1.30603
1.30928
1.31269
1.31627
1.32004
1.32401
1.32822
1.33269
1.33746
1.34258
1.34816
1.35441
1.36159
1.3707
1.38059
1.38932
1.38638
1.36517
1.36948
1.38476
1.42867
1.4492
1.44087
1.44641
1.43678
1.44396
1.44321
1.43986
1.43499
1.41542
1.41201
1.40821
1.41183
1.39775
1.40678
1.39422
1.4057
1.39675
1.40851
1.39204
1.40196
1.38844
1.39758
1.39128
1.3958
1.38232
1.38151
1.37239
1.36841
1.3638
1.35547
1.35435
1.3546
1.34816
1.34883
1.3509
1.34384
1.34329
1.33954
1.33537
1.33244
1.32881
1.32657
1.32407
1.3222
1.32111
1.32028
1.31879
1.31615
1.31273
1.3091
1.30565
1.30248
1.29959
1.29692
1.29442
1.29205
1.28979
1.28761
1.28552
1.28351
1.28157
1.27971
1.27791
1.27617
1.27449
1.27093
1.27261
1.2745
1.27646
1.27851
1.28064
1.28286
1.28518
1.28759
1.29009
1.2927
1.29543
1.29827
1.30124
1.30435
1.3076
1.311
1.31455
1.31827
1.32217
1.32626
1.33057
1.33512
1.33994
1.34513
1.35083
1.3572
1.36481
1.37255
1.37815
1.37343
1.35033
1.35416
1.37436
1.41906
1.44038
1.43589
1.44486
1.43675
1.44512
1.44508
1.4427
1.43805
1.41935
1.41577
1.41279
1.41617
1.40252
1.40965
1.39756
1.4068
1.3989
1.40935
1.3948
1.40312
1.39108
1.3982
1.39278
1.39629
1.38471
1.38362
1.37525
1.37172
1.36702
1.36114
1.35874
1.35759
1.35045
1.35018
1.35078
1.34351
1.34272
1.33877
1.33423
1.33068
1.32668
1.32399
1.32128
1.31932
1.31812
1.31715
1.31564
1.31319
1.31001
1.30658
1.30326
1.30017
1.29733
1.2947
1.29222
1.28988
1.28764
1.28549
1.28342
1.28143
1.27952
1.27767
1.27589
1.27418
1.27252
1.26871
1.27044
1.27236
1.27435
1.27642
1.27859
1.28084
1.28319
1.28563
1.28817
1.29081
1.29355
1.2964
1.29938
1.30248
1.30571
1.30908
1.31258
1.31623
1.32003
1.32398
1.3281
1.3324
1.3369
1.34165
1.34676
1.35225
1.35843
1.36424
1.36739
1.36183
1.33779
1.34294
1.36594
1.41038
1.43161
1.43111
1.44336
1.43565
1.44445
1.44505
1.44398
1.43967
1.42211
1.41858
1.41627
1.41953
1.40634
1.41194
1.40037
1.40774
1.40082
1.41013
1.39721
1.40409
1.39329
1.3988
1.39393
1.39703
1.38687
1.38556
1.3779
1.37494
1.37023
1.36693
1.36341
1.36067
1.35289
1.3514
1.35048
1.34304
1.34201
1.33785
1.33295
1.3288
1.32445
1.32138
1.31854
1.31654
1.31521
1.31407
1.31254
1.31024
1.30729
1.30406
1.30087
1.29787
1.29508
1.29248
1.29003
1.28771
1.28549
1.28336
1.28132
1.27935
1.27746
1.27564
1.27389
1.2722
1.27056
1.26649
1.26825
1.27018
1.2722
1.27429
1.27648
1.27875
1.28112
1.28358
1.28614
1.2888
1.29156
1.29442
1.29739
1.30048
1.30368
1.307
1.31045
1.31402
1.3177
1.32151
1.32544
1.32949
1.33368
1.33801
1.34253
1.34721
1.35215
1.3564
1.35787
1.35359
1.32798
1.33511
1.35973
1.40317
1.42378
1.4265
1.44121
1.43365
1.44258
1.44372
1.44386
1.44007
1.42386
1.42058
1.41877
1.42199
1.40932
1.4137
1.40262
1.40873
1.40255
1.41038
1.39975
1.4049
1.39518
1.39944
1.39503
1.39771
1.38873
1.38733
1.38031
1.37793
1.37324
1.37226
1.36781
1.36374
1.35544
1.35248
1.35
1.34244
1.3412
1.33684
1.33154
1.32683
1.32212
1.31869
1.31575
1.31374
1.31232
1.31104
1.30948
1.30732
1.30458
1.30154
1.29849
1.29557
1.29284
1.29027
1.28784
1.28554
1.28334
1.28123
1.27921
1.27727
1.27541
1.27362
1.2719
1.27025
1.26862
1.26425
1.26605
1.268
1.27003
1.27214
1.27434
1.27663
1.27901
1.28148
1.28405
1.28672
1.28949
1.29236
1.29532
1.29838
1.30155
1.30483
1.30822
1.3117
1.31529
1.31897
1.32273
1.32656
1.33046
1.33443
1.33845
1.34246
1.34639
1.34938
1.3494
1.34364
1.32503
1.3313
1.35568
1.3978
1.41743
1.42198
1.43784
1.43087
1.44002
1.44162
1.44249
1.4394
1.42476
1.42189
1.42038
1.4236
1.41156
1.41498
1.40477
1.40932
1.40414
1.41097
1.40148
1.40554
1.39681
1.4001
1.39607
1.39832
1.39036
1.38895
1.38246
1.38062
1.37594
1.37669
1.37154
1.36675
1.35804
1.3534
1.34936
1.34175
1.34031
1.33575
1.33005
1.32477
1.31965
1.31588
1.31284
1.31085
1.30939
1.30803
1.30647
1.30443
1.30188
1.29903
1.29611
1.29329
1.2906
1.28807
1.28567
1.28338
1.2812
1.2791
1.27709
1.27517
1.27332
1.27155
1.26987
1.26831
1.26679
1.26201
1.26384
1.26581
1.26786
1.26998
1.2722
1.27449
1.27688
1.27936
1.28193
1.2846
1.28737
1.29023
1.29319
1.29623
1.29938
1.30261
1.30594
1.30936
1.31286
1.31643
1.32005
1.32372
1.3274
1.33108
1.33472
1.33822
1.34142
1.34351
1.34279
1.33723
1.32274
1.32948
1.3532
1.39439
1.41281
1.41743
1.43289
1.42737
1.43706
1.43898
1.44014
1.43783
1.42493
1.42262
1.42121
1.42443
1.41312
1.41579
1.40637
1.40994
1.40553
1.41156
1.40278
1.40609
1.39821
1.40074
1.39704
1.39892
1.39183
1.39043
1.38437
1.38294
1.37822
1.37999
1.37443
1.36965
1.36062
1.35415
1.34862
1.341
1.33938
1.33463
1.3285
1.32264
1.31707
1.31291
1.30977
1.30781
1.30639
1.30505
1.30352
1.30159
1.29921
1.29652
1.29374
1.291
1.28838
1.28588
1.28351
1.28124
1.27908
1.277
1.27502
1.27311
1.27128
1.26953
1.26786
1.26632
1.26484
1.25978
1.26164
1.26363
1.2657
1.26784
1.27007
1.27238
1.27477
1.27725
1.27982
1.28249
1.28524
1.28809
1.29103
1.29406
1.29718
1.30038
1.30367
1.30704
1.31047
1.31396
1.31749
1.32103
1.32456
1.32805
1.33143
1.33459
1.3373
1.33885
1.33783
1.33295
1.32152
1.32889
1.35305
1.39159
1.40973
1.41272
1.42632
1.42323
1.43385
1.43604
1.43698
1.43548
1.42443
1.4229
1.42135
1.42452
1.41411
1.41616
1.40739
1.41055
1.40657
1.41198
1.40392
1.40661
1.39944
1.40139
1.39796
1.39953
1.39316
1.39175
1.38605
1.38487
1.38007
1.38215
1.3764
1.37241
1.36308
1.35474
1.34783
1.34024
1.33843
1.33349
1.32693
1.32048
1.31443
1.30986
1.30656
1.30465
1.30334
1.3021
1.30065
1.29883
1.29658
1.29404
1.29138
1.28873
1.28617
1.28372
1.28137
1.27913
1.27699
1.27494
1.27298
1.2711
1.2693
1.26757
1.26591
1.26434
1.26286
1.25754
1.25946
1.26148
1.26357
1.26574
1.26799
1.27031
1.27271
1.27519
1.27775
1.28041
1.28315
1.28598
1.2889
1.29191
1.295
1.29818
1.30143
1.30477
1.30816
1.3116
1.31507
1.31854
1.32199
1.32537
1.32861
1.33157
1.33401
1.33525
1.33418
1.32996
1.32116
1.329
1.35334
1.39084
1.40793
1.4078
1.41846
1.41859
1.43045
1.43285
1.43324
1.4325
1.42378
1.42233
1.42084
1.4239
1.41462
1.41627
1.408
1.41095
1.40766
1.41184
1.4049
1.40705
1.40055
1.40206
1.39885
1.40013
1.39438
1.39295
1.38752
1.38644
1.38152
1.38328
1.37726
1.37523
1.36533
1.3552
1.34706
1.3395
1.33749
1.33236
1.32539
1.31838
1.31183
1.30683
1.30335
1.30147
1.3003
1.2992
1.29787
1.29614
1.29401
1.29159
1.28904
1.28648
1.28398
1.28157
1.27926
1.27704
1.27492
1.27288
1.27092
1.26904
1.26723
1.26549
1.26381
1.26222
1.26075
1.25533
1.25732
1.25939
1.26153
1.26373
1.26599
1.26832
1.27072
1.2732
1.27575
1.27838
1.2811
1.28391
1.28681
1.28979
1.29286
1.29602
1.29925
1.30256
1.30594
1.30936
1.31281
1.31626
1.31969
1.32304
1.32623
1.32912
1.33144
1.33255
1.33157
1.32797
1.32128
1.32962
1.35444
1.3913
1.40668
1.40269
1.40999
1.41372
1.42688
1.42947
1.42908
1.42899
1.42248
1.42155
1.41977
1.42257
1.41467
1.41536
1.40904
1.41116
1.40831
1.41182
1.40574
1.40743
1.40158
1.40275
1.39973
1.40073
1.3955
1.39404
1.38883
1.38771
1.38267
1.38376
1.37826
1.37696
1.36718
1.35553
1.34638
1.33884
1.33659
1.33126
1.32393
1.31643
1.30938
1.30398
1.3003
1.29841
1.29737
1.29642
1.2952
1.29357
1.29153
1.28921
1.28676
1.28428
1.28183
1.27946
1.27718
1.27498
1.27287
1.27083
1.26888
1.267
1.2652
1.26347
1.26181
1.26022
1.25873
1.2532
1.25536
1.25752
1.25969
1.2619
1.26416
1.26648
1.26885
1.2713
1.27382
1.27643
1.27912
1.28189
1.28476
1.28772
1.29077
1.29391
1.29714
1.30044
1.30381
1.30724
1.3107
1.31418
1.31764
1.32102
1.32425
1.32716
1.32947
1.33058
1.32979
1.32672
1.32185
1.33085
1.35636
1.39215
1.4053
1.39757
1.40177
1.409
1.42311
1.42586
1.42474
1.4252
1.42068
1.42034
1.41842
1.42082
1.4142
1.41462
1.40943
1.41115
1.40862
1.41179
1.4064
1.40777
1.40254
1.40347
1.4006
1.40136
1.39657
1.39505
1.39002
1.38876
1.3836
1.38376
1.37863
1.3785
1.36869
1.35578
1.34585
1.33829
1.33576
1.33024
1.32261
1.31475
1.30718
1.30146
1.29758
1.29563
1.29466
1.29383
1.29271
1.29115
1.28918
1.28694
1.28457
1.28215
1.27976
1.27742
1.27516
1.27298
1.27087
1.26885
1.2669
1.26503
1.26323
1.26151
1.25985
1.25827
1.25675
1.2518
1.25421
1.25625
1.25832
1.26043
1.26259
1.26481
1.26712
1.2695
1.27197
1.27453
1.27717
1.27992
1.28276
1.28569
1.28873
1.29186
1.29508
1.29839
1.30177
1.30523
1.30873
1.31226
1.31579
1.31926
1.32259
1.3256
1.328
1.32922
1.32866
1.32602
1.32287
1.33286
1.3587
1.39288
1.4035
1.39275
1.39478
1.40485
1.41915
1.422
1.42047
1.42138
1.41857
1.41878
1.41667
1.41865
1.41322
1.4139
1.40943
1.41103
1.40877
1.41158
1.40688
1.40808
1.40346
1.40423
1.40151
1.40204
1.39762
1.39604
1.39115
1.38968
1.38443
1.38359
1.3786
1.37977
1.36985
1.35598
1.34551
1.33787
1.33502
1.32932
1.3214
1.31323
1.30552
1.29945
1.29534
1.29327
1.29229
1.29151
1.29044
1.28892
1.287
1.28482
1.2825
1.28013
1.27778
1.27547
1.27322
1.27105
1.26895
1.26693
1.26498
1.2631
1.2613
1.25957
1.2579
1.25631
1.25479
1.25325
1.25461
1.25593
1.25752
1.2593
1.26123
1.26329
1.26547
1.26776
1.27015
1.27265
1.27525
1.27796
1.28077
1.28368
1.2867
1.28983
1.29305
1.29638
1.29979
1.30329
1.30685
1.31046
1.3141
1.3177
1.32117
1.32436
1.32693
1.32832
1.32803
1.32577
1.32426
1.33554
1.36122
1.39316
1.40132
1.38865
1.38993
1.40161
1.41509
1.41795
1.41644
1.41768
1.4162
1.41691
1.41463
1.41632
1.41183
1.41289
1.40923
1.41083
1.40879
1.41124
1.40722
1.40838
1.40437
1.40504
1.40246
1.40278
1.3987
1.39703
1.39226
1.39055
1.38526
1.38354
1.37922
1.3799
1.3706
1.35616
1.34539
1.33757
1.33441
1.3284
1.3205
1.31212
1.30425
1.29797
1.29367
1.29143
1.29034
1.28952
1.28845
1.28693
1.28504
1.28288
1.28059
1.27825
1.27591
1.27362
1.27138
1.2692
1.2671
1.26506
1.2631
1.26121
1.2594
1.25765
1.25597
1.25437
1.25284
1.25113
1.25267
1.25424
1.25593
1.25771
1.25961
1.26161
1.26373
1.26596
1.2683
1.27075
1.27331
1.27599
1.27877
1.28167
1.28468
1.2878
1.29104
1.29438
1.29784
1.30139
1.30502
1.30874
1.3125
1.31626
1.31992
1.32333
1.32613
1.32778
1.32776
1.3259
1.32599
1.33867
1.36371
1.3927
1.39965
1.38511
1.38791
1.39951
1.41106
1.41383
1.41278
1.41418
1.41349
1.41487
1.4124
1.41371
1.41029
1.41172
1.40889
1.41055
1.40872
1.41087
1.4075
1.40869
1.40529
1.40593
1.40347
1.40362
1.39981
1.39806
1.3934
1.39145
1.38616
1.38366
1.37957
1.38007
1.37114
1.35633
1.34551
1.33739
1.33395
1.32765
1.31978
1.31136
1.30344
1.29704
1.29257
1.29012
1.28884
1.28791
1.28675
1.28521
1.2833
1.28115
1.27886
1.27653
1.27419
1.27188
1.26963
1.26744
1.26532
1.26327
1.26129
1.25937
1.25753
1.25577
1.25407
1.25245
1.2509
1.24904
1.25059
1.25223
1.25398
1.25581
1.25773
1.25974
1.26184
1.26405
1.26637
1.26879
1.27133
1.27398
1.27675
1.27964
1.28264
1.28577
1.28901
1.29238
1.29587
1.29948
1.3032
1.30702
1.31092
1.31486
1.31875
1.32241
1.32551
1.32746
1.32777
1.32642
1.32807
1.34209
1.36598
1.39113
1.39533
1.38642
1.38884
1.39858
1.4072
1.40977
1.40955
1.41098
1.41098
1.41223
1.40996
1.41097
1.40867
1.41048
1.40845
1.41024
1.4086
1.41049
1.40775
1.40903
1.40623
1.40691
1.40457
1.40455
1.40101
1.39916
1.3946
1.39242
1.38717
1.3841
1.37993
1.38016
1.37147
1.35654
1.34588
1.33769
1.3333
1.327
1.31926
1.31093
1.30306
1.29662
1.29201
1.28931
1.28779
1.28666
1.28537
1.28375
1.2818
1.27962
1.27732
1.27497
1.27261
1.27028
1.26801
1.26579
1.26363
1.26155
1.25954
1.25759
1.25572
1.25392
1.25219
1.25054
1.24896
1.24701
1.24861
1.25027
1.25202
1.25385
1.25577
1.25778
1.25988
1.26208
1.26438
1.26679
1.26931
1.27194
1.2747
1.27757
1.28057
1.2837
1.28695
1.29034
1.29387
1.29754
1.30134
1.30527
1.30931
1.31343
1.31755
1.32151
1.32495
1.3273
1.32804
1.32738
1.3306
1.34571
1.36806
1.38911
1.39249
1.38822
1.3922
1.39846
1.40363
1.40589
1.40671
1.408
1.40819
1.40957
1.40732
1.40827
1.40698
1.40918
1.40795
1.40991
1.40845
1.41012
1.40797
1.40939
1.40722
1.40797
1.40576
1.40561
1.4023
1.40035
1.39589
1.39351
1.38832
1.38492
1.38055
1.38018
1.37168
1.3571
1.34599
1.33787
1.33298
1.32657
1.31896
1.31078
1.30304
1.29661
1.29188
1.28894
1.28713
1.28575
1.28428
1.28255
1.28053
1.2783
1.27596
1.27358
1.27118
1.26882
1.2665
1.26424
1.26204
1.25991
1.25786
1.25587
1.25395
1.25211
1.25034
1.24865
1.24703
1.24504
1.24665
1.24831
1.25005
1.25188
1.25378
1.25578
1.25787
1.26006
1.26234
1.26474
1.26724
1.26986
1.2726
1.27547
1.27846
1.28158
1.28484
1.28825
1.29181
1.29552
1.29939
1.30342
1.3076
1.3119
1.31626
1.32052
1.32435
1.32719
1.32854
1.32882
1.33364
1.34951
1.37003
1.38689
1.39038
1.3909
1.39692
1.3986
1.40041
1.40226
1.40414
1.40516
1.40527
1.40695
1.4045
1.40561
1.40526
1.40786
1.40741
1.40957
1.40829
1.40977
1.4082
1.40981
1.40825
1.40912
1.40704
1.40678
1.40368
1.40164
1.39728
1.39474
1.38961
1.38607
1.38143
1.38027
1.37188
1.35752
1.34624
1.33808
1.33288
1.32636
1.31888
1.31089
1.3033
1.2969
1.29207
1.28888
1.28678
1.28512
1.28345
1.28158
1.27947
1.27718
1.27479
1.27235
1.26991
1.26749
1.26511
1.2628
1.26054
1.25836
1.25624
1.2542
1.25223
1.25034
1.24851
1.24677
1.24511
1.24308
1.24467
1.24632
1.24805
1.24987
1.25176
1.25375
1.25582
1.25799
1.26027
1.26264
1.26513
1.26773
1.27046
1.2733
1.27628
1.2794
1.28266
1.28607
1.28965
1.29339
1.29732
1.30143
1.30573
1.31019
1.31477
1.31934
1.3236
1.32704
1.32918
1.33069
1.33715
1.3534
1.37185
1.38465
1.38853
1.39374
1.40107
1.39897
1.39752
1.39886
1.40163
1.40237
1.40218
1.40374
1.40216
1.40312
1.40357
1.40654
1.40684
1.40921
1.40811
1.40946
1.40843
1.41027
1.40934
1.41035
1.4084
1.40807
1.40518
1.40305
1.39878
1.39612
1.39104
1.38747
1.38253
1.38055
1.3722
1.35795
1.34659
1.3384
1.33293
1.32633
1.31899
1.3112
1.30374
1.29737
1.29246
1.28905
1.28665
1.28472
1.28284
1.28081
1.2786
1.27624
1.27378
1.27128
1.26877
1.26628
1.26384
1.26145
1.25913
1.25688
1.2547
1.25259
1.25055
1.24859
1.24671
1.24491
1.24319
1.24111
1.24268
1.24432
1.24604
1.24783
1.24971
1.25168
1.25374
1.25589
1.25815
1.26051
1.26297
1.26556
1.26826
1.27108
1.27405
1.27715
1.2804
1.2838
1.28738
1.29114
1.2951
1.29927
1.30365
1.30824
1.31302
1.31787
1.32257
1.32668
1.32978
1.33277
1.34085
1.35707
1.37333
1.38251
1.38666
1.39555
1.4037
1.39825
1.39464
1.39554
1.39894
1.39949
1.399
1.40068
1.39962
1.40075
1.40191
1.40525
1.40623
1.40883
1.40792
1.40917
1.40866
1.41077
1.41046
1.41165
1.40985
1.40948
1.40676
1.40457
1.40039
1.39764
1.39261
1.38905
1.3838
1.38104
1.37273
1.35857
1.34702
1.33884
1.33317
1.32652
1.31931
1.31165
1.30428
1.29791
1.29292
1.28932
1.28667
1.28448
1.28239
1.28021
1.2779
1.27545
1.27292
1.27035
1.26776
1.2652
1.26268
1.26021
1.2578
1.25547
1.25321
1.25102
1.24891
1.24688
1.24492
1.24306
1.24127
1.23914
1.2407
1.24231
1.24401
1.24579
1.24765
1.24959
1.25163
1.25376
1.256
1.25833
1.26077
1.26333
1.266
1.2688
1.27174
1.27482
1.27804
1.28143
1.285
1.28875
1.29272
1.2969
1.30133
1.30601
1.31093
1.31603
1.32113
1.32593
1.33008
1.33465
1.34419
1.36001
1.3741
1.38027
1.3843
1.3952
1.40342
1.39582
1.39142
1.39199
1.39596
1.39642
1.3957
1.39762
1.39707
1.39853
1.40028
1.40399
1.40557
1.40841
1.40772
1.40891
1.40888
1.41132
1.41164
1.41301
1.41137
1.41099
1.40844
1.40621
1.40211
1.3993
1.39431
1.39076
1.38525
1.38184
1.37357
1.35943
1.34754
1.33939
1.33362
1.32696
1.31983
1.31222
1.30485
1.29845
1.29338
1.28962
1.28675
1.28434
1.28207
1.27975
1.27733
1.2748
1.2722
1.26955
1.26688
1.26423
1.26162
1.25906
1.25656
1.25413
1.25178
1.24951
1.24731
1.2452
1.24316
1.24122
1.23937
1.23717
1.23871
1.24031
1.24198
1.24374
1.24557
1.24749
1.24951
1.25161
1.25381
1.25612