/*--------------------------------*- C++ -*----------------------------------*\
  =========                 |
  \\      /  F ield         | OpenFOAM: The Open Source CFD Toolbox
   \\    /   O peration     | Website:  https://openfoam.org
    \\  /    A nd           | Version:  9
     \\/     M anipulation  |
\*---------------------------------------------------------------------------*/
FoamFile
{
    format      ascii;
    class       volScalarField;
    location    "0.07";
    object      p_rgh;
}
// * * * * * * * * * * * * * * * * * * * * * * * * * * * * * * * * * * * * * //

dimensions      [1 -1 -2 0 0 0 0];

internalField   nonuniform List<scalar> 
20000
(
-0.000127266
-0.000301908
-0.000472231
-0.000663978
-0.000887282
-0.00115422
-0.00147916
-0.00187839
-0.00237083
-0.00297883
-0.00372927
-0.00465489
-0.00579606
-0.00720318
-0.0089401
-0.011089
-0.0137581
-0.0170929
-0.0212945
-0.0266449
-0.0335323
-0.0424187
-0.0535005
-0.0653111
-0.0714397
-0.0612452
-0.0502503
-0.0920447
-0.226003
-0.56521
-1.10689
-1.02956
-0.692182
-0.557014
-0.677919
-0.904946
-0.941981
-0.657617
-0.500692
-0.247583
-1.01803
-0.209728
-0.293329
-0.223097
-0.122021
-0.166698
-0.114017
-0.182695
-0.182977
-0.244777
-0.203255
-0.603068
-0.207011
-0.253099
-0.196539
-0.253328
-0.188724
-0.57592
-0.191839
-0.213025
-0.160672
-0.149029
-0.152039
-0.166637
-0.24188
-0.204824
-1.01386
-0.211496
-0.219397
-0.13598
-0.0592944
-0.0887722
-0.0515221
-0.0852692
-0.0936461
-0.110211
-0.144766
-0.215631
-0.38277
-0.742781
-0.540057
-0.304761
-0.172238
-0.104335
-0.0633775
-0.0384684
-0.0236691
-0.0150662
-0.0100591
-0.00703213
-0.0050757
-0.00371806
-0.00272484
-0.00197638
-0.00140541
-0.00096872
-0.000634898
-0.000378497
-0.000177355
-2.37392e-05
-0.000176625
-0.000439035
-0.000671325
-0.000914321
-0.00117935
-0.00147731
-0.00182181
-0.00222869
-0.00271636
-0.00330652
-0.00402511
-0.00490344
-0.00597961
-0.00730035
-0.00892349
-0.0109209
-0.0133817
-0.0164157
-0.0201536
-0.024738
-0.0302876
-0.0368104
-0.0440681
-0.0515465
-0.0587521
-0.0649689
-0.0799641
-0.13138
-0.238959
-0.472698
-0.805537
-0.692582
-0.564206
-0.504554
-0.61908
-0.734389
-0.742443
-0.564779
-0.467457
-0.205078
-0.692197
-0.202232
-0.276007
-0.193439
-0.127279
-0.179779
-0.107318
-0.164508
-0.155166
-0.226812
-0.176545
-0.467081
-0.170775
-0.238757
-0.164468
-0.242356
-0.162486
-0.44367
-0.159647
-0.196071
-0.142494
-0.137416
-0.141082
-0.145972
-0.240498
-0.165384
-0.656091
-0.1447
-0.19955
-0.117322
-0.066861
-0.0961252
-0.0525337
-0.0748925
-0.0809189
-0.0983872
-0.127671
-0.173935
-0.223801
-0.329191
-0.295549
-0.212854
-0.142132
-0.0984908
-0.0681696
-0.0474868
-0.0334352
-0.0237812
-0.0170402
-0.0122788
-0.00888778
-0.00644817
-0.00467662
-0.00337766
-0.0024147
-0.00169165
-0.00114019
-0.000709844
-0.000362792
-8.02068e-05
-0.000117125
-0.000330872
-0.000505093
-0.000693219
-0.000904289
-0.00114516
-0.00142632
-0.00176086
-0.00216448
-0.0026561
-0.00325839
-0.00399849
-0.00490897
-0.00602912
-0.00740635
-0.00909757
-0.01117
-0.0137013
-0.0167779
-0.0204903
-0.0249249
-0.0301533
-0.0362117
-0.0430725
-0.0507484
-0.0591886
-0.0736099
-0.111943
-0.173502
-0.291703
-0.530983
-0.424149
-0.345113
-0.369356
-0.452824
-0.541898
-0.540742
-0.399607
-0.386071
-0.133779
-0.457891
-0.123895
-0.239211
-0.168433
-0.114255
-0.168532
-0.102157
-0.154951
-0.125044
-0.202428
-0.114142
-0.344051
-0.110541
-0.212546
-0.122251
-0.216231
-0.101624
-0.325802
-0.104674
-0.171405
-0.116039
-0.119595
-0.12409
-0.112674
-0.200541
-0.0645147
-0.38678
-0.0446382
-0.160808
-0.0923464
-0.055129
-0.0830971
-0.0479124
-0.0657951
-0.06115
-0.0686874
-0.0760814
-0.0846873
-0.0421589
-0.0906422
-0.0926725
-0.0613729
-0.056198
-0.048688
-0.0380504
-0.0288983
-0.0217294
-0.0162688
-0.0121651
-0.00909341
-0.00677309
-0.00501772
-0.00369274
-0.00269396
-0.00194059
-0.00137009
-0.000933695
-0.000591753
-0.000312309
-7.86184e-05
-9.31533e-05
-0.00020893
-0.000283853
-0.000370975
-0.000477759
-0.000608852
-0.000772707
-0.000979886
-0.00124316
-0.00157795
-0.00200263
-0.00253912
-0.00321353
-0.00405715
-0.00510729
-0.00640783
-0.00800969
-0.00997152
-0.0123605
-0.0152532
-0.0187372
-0.0229079
-0.0278308
-0.0334363
-0.0395257
-0.0457292
-0.0536946
-0.0762507
-0.10748
-0.152558
-0.297159
-0.22165
-0.1609
-0.235695
-0.29151
-0.360528
-0.347469
-0.248776
-0.297992
-0.0964857
-0.29482
-0.0788926
-0.193979
-0.13927
-0.09856
-0.14923
-0.0898431
-0.140844
-0.0925866
-0.170429
-0.0602117
-0.230724
-0.0541885
-0.175473
-0.0775436
-0.178586
-0.0493357
-0.217572
-0.0531276
-0.138938
-0.0860159
-0.0970681
-0.101497
-0.0748988
-0.149089
-0.000960137
-0.196685
0.0239907
-0.115241
-0.0627143
-0.0414294
-0.0642394
-0.0376277
-0.0495165
-0.036843
-0.0358098
-0.0252851
-0.0194099
0.0420503
0.0326573
0.0289988
0.0303806
0.00691546
-0.0023168
-0.00479926
-0.0053849
-0.00493873
-0.00408751
-0.00321383
-0.00241642
-0.00173325
-0.00118277
-0.000759739
-0.000449091
-0.000232941
-9.312e-05
-1.17577e-05
2.9625e-05
4.74584e-05
4.00583e-05
-4.7907e-05
-5.47174e-05
-4.73964e-06
3.87028e-05
6.91498e-05
8.3734e-05
7.58815e-05
3.72555e-05
-4.20856e-05
-0.000173989
-0.000372503
-0.000654318
-0.00103942
-0.00155173
-0.00221949
-0.00307533
-0.00415643
-0.00550484
-0.00716735
-0.00919464
-0.0116373
-0.0145342
-0.0178842
-0.0216111
-0.0256442
-0.029755
-0.0332866
-0.0444027
-0.0585909
-0.0590416
-0.129231
-0.0828503
-0.0273377
-0.132816
-0.16444
-0.213856
-0.188202
-0.132588
-0.219323
-0.079749
-0.188599
-0.0522343
-0.149345
-0.108073
-0.0814583
-0.127136
-0.0739604
-0.119112
-0.0604725
-0.135288
-0.0193985
-0.13993
-0.0118305
-0.134591
-0.0372147
-0.137475
-0.0101996
-0.130624
-0.0141495
-0.103828
-0.0566211
-0.0724215
-0.0765011
-0.0408327
-0.101587
0.0313526
-0.0785336
0.0609399
-0.0732024
-0.0338514
-0.0276085
-0.0458441
-0.0247298
-0.0304244
-0.0155749
-0.0113582
0.00774752
0.0144208
0.0671907
0.0744531
0.0722501
0.0626663
0.0351136
0.0231448
0.0158389
0.0109077
0.00792806
0.00610517
0.00493061
0.00413962
0.00355854
0.00308772
0.00267843
0.00229766
0.00193173
0.00157299
0.0012189
0.000872447
0.000539276
0.000202969
6.36007e-06
0.00012754
0.000323446
0.000520017
0.00071169
0.000897492
0.00107265
0.00123104
0.00136556
0.00146781
0.00152794
0.00153411
0.00147213
0.00132504
0.00107333
0.000695266
0.000167359
-0.000534841
-0.00143575
-0.00255877
-0.00392215
-0.0055294
-0.00735928
-0.00935552
-0.0115113
-0.0137747
-0.0142583
-0.0168199
-0.0200978
0.0050054
-0.0179872
0.00969148
0.0643623
-0.0555758
-0.0666575
-0.104253
-0.0662248
-0.0425533
-0.150313
-0.0642616
-0.120722
-0.0295159
-0.108589
-0.0786306
-0.0613904
-0.102907
-0.0556268
-0.0947347
-0.0315985
-0.10098
0.0121102
-0.0747708
0.0194258
-0.0953961
-0.00395391
-0.098171
0.0195348
-0.0677958
0.0150253
-0.0703829
-0.03013
-0.0480129
-0.0519733
-0.0132512
-0.0614908
0.0507276
-0.0105775
0.0795041
-0.0384976
-0.00948245
-0.0131076
-0.0285536
-0.0114941
-0.0140773
0.000261326
0.0064099
0.0273138
0.0333506
0.0737737
0.0811689
0.0803584
0.0709626
0.0470664
0.0354303
0.0266261
0.0203796
0.0161992
0.0132307
0.0110323
0.00933417
0.00795459
0.0067857
0.00576105
0.004836
0.00398251
0.00318312
0.00242676
0.00170878
0.00102893
0.000363576
6.43445e-05
0.000327045
0.000683949
0.00104908
0.00141788
0.00179137
0.00216653
0.00253934
0.00290538
0.00325952
0.00359573
0.00390666
0.00418343
0.00441563
0.00459186
0.00470025
0.00472954
0.00467003
0.00451343
0.00425209
0.00388369
0.00341726
0.00287524
0.00233255
0.00188913
0.00159256
0.00378076
0.00798388
0.0127901
0.052028
0.0572896
0.0715169
0.1223
0.00450765
0.0085246
-0.0231389
0.0231673
0.0279165
-0.0910099
-0.0469238
-0.0761763
-0.0109131
-0.0741603
-0.0522369
-0.0393881
-0.0766738
-0.035774
-0.0704308
-0.00672302
-0.0691991
0.0372795
-0.0284797
0.0436964
-0.0600104
0.0229534
-0.0626098
0.0427097
-0.022818
0.0380181
-0.0403522
-0.00697938
-0.0253654
-0.0292636
0.00812947
-0.0290698
0.0644143
0.027371
0.0878903
-0.0115567
0.00984833
-9.73347e-05
-0.0110272
0.00139334
-0.00027409
0.0137885
0.0205804
0.037929
0.0459336
0.075884
0.0802919
0.0802837
0.0732425
0.0537388
0.0426251
0.0333505
0.0267022
0.0219939
0.0184218
0.015627
0.0133602
0.0114517
0.00979631
0.00832177
0.00697917
0.00573764
0.00457648
0.00348121
0.00244357
0.00145997
0.000503855
0.000121616
0.00053438
0.00106153
0.00160453
0.00215988
0.00273058
0.00331517
0.00391165
0.00451807
0.00513228
0.00575161
0.00637264
0.00699113
0.00760241
0.0082018
0.00878549
0.00935232
0.00990357
0.0104408
0.0109657
0.0114888
0.0120327
0.012629
0.0133749
0.0144923
0.0160935
0.0204473
0.0294795
0.0398757
0.0861232
0.108609
0.111267
0.153906
0.0509555
0.0652206
0.0403522
0.0812778
0.0827021
-0.0410883
-0.0289234
-0.0442478
0.0047619
-0.0452264
-0.0280794
-0.0168384
-0.0497683
-0.0151428
-0.0461336
0.0137473
-0.0400094
0.0575734
0.00598792
0.0629856
-0.0288117
0.0448828
-0.0311362
0.0608796
0.0107469
0.0564774
-0.0140922
0.0131221
-0.00506488
-0.00843291
0.023702
-0.00305755
0.0741116
0.0482598
0.0895977
0.00865423
0.0251232
0.012004
0.00490549
0.0132961
0.0120084
0.0250609
0.0309582
0.0453848
0.0547667
0.0758968
0.0780443
0.0781883
0.0725774
0.0570161
0.0468182
0.0378204
0.0312021
0.026247
0.0223143
0.0191425
0.0165005
0.0142257
0.0122149
0.010399
0.00873221
0.00718338
0.00573084
0.00435876
0.00305706
0.00182006
0.000620303
0.000173637
0.000740056
0.00144058
0.00216458
0.00290964
0.0036805
0.00447717
0.00529941
0.00614753
0.00702192
0.00792281
0.00885011
0.00980358
0.0107831
0.0117892
0.0128249
0.0138974
0.0150164
0.0161908
0.0174308
0.0187593
0.0202146
0.0218449
0.0237302
0.0261687
0.0293436
0.0351166
0.0471059
0.0605623
0.108805
0.140287
0.134309
0.168555
0.0857287
0.106191
0.0867353
0.119776
0.124259
0.000945365
-0.00980374
-0.0181874
0.0196161
-0.0190047
-0.00517217
0.00529041
-0.0235335
0.00500108
-0.0217239
0.0303613
-0.0128071
0.0735897
0.0323178
0.0782448
-0.00174721
0.0626649
-0.00373411
0.0749361
0.0362964
0.0711616
0.00849191
0.030482
0.0127034
0.0104924
0.0345829
0.0178147
0.079963
0.0587351
0.0865036
0.023577
0.037123
0.0230586
0.0186632
0.0238553
0.0227286
0.0340668
0.0389045
0.0511145
0.0592575
0.073805
0.074297
0.0741029
0.0694358
0.0572614
0.0483119
0.0401027
0.0338784
0.0289639
0.0249498
0.0216279
0.0187875
0.0162895
0.0140444
0.0119918
0.0100911
0.00831365
0.00663932
0.00505283
0.00354387
0.00210595
0.000712177
0.000215527
0.000934818
0.00180638
0.00270886
0.0036409
0.00460871
0.00561359
0.00665694
0.00774099
0.00886819
0.0100411
0.0112626
0.0125356
0.0138636
0.0152514
0.0167078
0.0182465
0.0198835
0.0216336
0.0235158
0.0255594
0.0278121
0.0303323
0.0331828
0.0366385
0.0409972
0.0476509
0.0611548
0.0757303
0.122973
0.156516
0.146798
0.176054
0.111037
0.134896
0.120105
0.14605
0.152192
0.0368029
0.012481
0.00610036
0.0347822
0.00640545
0.0166385
0.0262877
0.00124794
0.0240978
0.000325795
0.0457011
0.0123319
0.0859222
0.0524251
0.0902407
0.0213394
0.0768177
0.0196997
0.0856616
0.0556129
0.0827113
0.0276076
0.0452994
0.0278314
0.026492
0.0439795
0.0332484
0.0822038
0.0629157
0.0803658
0.0344815
0.0462567
0.0327426
0.030264
0.0328774
0.0316868
0.0410371
0.0446857
0.0546009
0.0609374
0.0703529
0.0697548
0.0691453
0.0652309
0.0557599
0.0479993
0.0407283
0.0350204
0.0303543
0.0264695
0.0231633
0.0202672
0.0176706
0.015301
0.0131086
0.0110593
0.00912933
0.0073014
0.00556233
0.00390296
0.0023171
0.000779624
0.000242229
0.00110949
0.00214522
0.00321903
0.0043304
0.00548678
0.00669064
0.00794483
0.00925308
0.0106195
0.0120486
0.0135453
0.0151151
0.0167642
0.0185009
0.0203392
0.0222978
0.0243961
0.0266531
0.0290924
0.0317453
0.0346684
0.0379154
0.0415468
0.0458063
0.0510073
0.0582107
0.0723512
0.0872886
0.131818
0.16257
0.152345
0.179902
0.128654
0.154584
0.144018
0.163149
0.168309
0.0674777
0.0371655
0.03131
0.0515343
0.0316307
0.0371176
0.0456048
0.0241275
0.0421004
0.0205482
0.0601898
0.0339439
0.0953949
0.0678331
0.0997099
0.0407679
0.0879108
0.0394557
0.0938753
0.0701368
0.0917739
0.0435677
0.0578053
0.0405414
0.0396202
0.0524515
0.0438171
0.0816667
0.0640976
0.0729689
0.0424926
0.0530262
0.0410647
0.0396601
0.0403318
0.0389437
0.0462447
0.0485727
0.0561411
0.0608949
0.0665657
0.0654587
0.0646269
0.0613272
0.0538128
0.0469794
0.0405172
0.0352969
0.0309367
0.0272271
0.0240034
0.0211271
0.0185087
0.0160885
0.0138258
0.0116931
0.0096711
0.00774602
0.00590723
0.00414732
0.00246099
0.000825302
0.000248938
0.00125583
0.00244529
0.00367961
0.00495884
0.00629147
0.00768097
0.00913126
0.0106472
0.0122342
0.0138983
0.0156464
0.0174853
0.0194227
0.0214702
0.0236458
0.0259719
0.0284691
0.0311593
0.0340683
0.0372297
0.0406978
0.0445261
0.0487779
0.0536685
0.0595072
0.0671138
0.0814854
0.0967225
0.13709
0.162737
0.153636
0.180479
0.139781
0.167575
0.161023
0.17329
0.176532
0.0920069
0.062561
0.0569891
0.0702406
0.0564569
0.056096
0.0629274
0.0447915
0.0589527
0.0393404
0.0738991
0.0514604
0.102876
0.0797705
0.107262
0.0570073
0.0965673
0.0559881
0.100254
0.0811054
0.0989149
0.0568462
0.068295
0.0512961
0.0503877
0.0593327
0.0508036
0.0792659
0.0642488
0.0665394
0.0485488
0.0581182
0.0479259
0.0471423
0.0464069
0.0447319
0.0500573
0.0511403
0.0565345
0.0596714
0.0630263
0.0618067
0.0609727
0.0581484
0.0519611
0.0458363
0.0399958
0.0351646
0.0310653
0.0275257
0.0244006
0.0215739
0.0189705
0.0165401
0.0142491
0.012075
0.0100026
0.00802102
0.00612214
0.00430028
0.00255112
0.000853738
0.000231194
0.00136693
0.00269689
0.00407801
0.00551075
0.00700445
0.00856328
0.0101918
0.0118957
0.0136812
0.0155559
0.0175277
0.0196045
0.0217946
0.0241111
0.0265751
0.0292121
0.032047
0.035101
0.0383935
0.0419667
0.0458719
0.05016
0.0548934
0.0602635
0.0665913
0.0745269
0.0885577
0.104606
0.139739
0.159682
0.152049
0.177733
0.145519
0.175412
0.172959
0.17854
0.180368
0.110749
0.086593
0.0819151
0.0897165
0.0799905
0.0734931
0.0776724
0.0638002
0.0745022
0.0564006
0.0862768
0.0662022
0.108944
0.0891433
0.113344
0.0705888
0.103488
0.0696148
0.105276
0.0894639
0.104544
0.0678859
0.0773201
0.0602654
0.0593057
0.064515
0.0553643
0.075934
0.0644219
0.0624975
0.0533221
0.0621277
0.053417
0.0530074
0.0513204
0.0493062
0.0528401
0.052873
0.0564628
0.0581139
0.0596827
0.0586351
0.0579015
0.0555032
0.0502246
0.0446985
0.0393538
0.0348326
0.0309481
0.0275546
0.0245234
0.0217541
0.0191811
0.016761
0.0144655
0.012276
0.0101805
0.0081704
0.00623975
0.00438432
0.00260055
0.000869109
0.000185214
0.00143768
0.0028933
0.00440568
0.00597573
0.00761328
0.00932292
0.0111096
0.0129794
0.0149393
0.0169977
0.0191632
0.0214439
0.0238492
0.0263935
0.0290977
0.0319864
0.035089
0.0384323
0.0420319
0.0459259
0.050164
0.0547988
0.0598932
0.0656189
0.0723134
0.0805884
0.0943532
0.110342
0.140262
0.154798
0.147982
0.17134
0.146788
0.179052
0.180879
0.180388
0.179991
0.125856
0.108622
0.104756
0.10839
0.101138
0.0893454
0.0911393
0.0804533
0.08856
0.0716004
0.0970692
0.0790422
0.114013
0.096724
0.118298
0.0819616
0.109268
0.0806633
0.109324
0.0959609
0.108885
0.0780882
0.0828524
0.0691491
0.0665269
0.0689252
0.0584268
0.0726131
0.0647246
0.0611884
0.0574233
0.0654288
0.0577432
0.0575732
0.0552603
0.0528845
0.0548619
0.0540108
0.0561179
0.0565854
0.0568354
0.0558345
0.0551812
0.0530993
0.0486776
0.0436037
0.0386555
0.0343896
0.0306838
0.0274155
0.0244698
0.021758
0.0192215
0.0168225
0.0145365
0.0123481
0.0102476
0.0082285
0.00628626
0.00441781
0.0026201
0.0008747
0.000108084
0.00146426
0.00302979
0.00465699
0.00634718
0.00811034
0.00995111
0.0118745
0.0138867
0.0159956
0.0182103
0.0205397
0.0229913
0.0255733
0.0283003
0.0311933
0.0342779
0.0375835
0.0411364
0.044959
0.049082
0.0535516
0.0584231
0.0637633
0.0697308
0.0766546
0.0851152
0.0985066
0.114263
0.138886
0.148848
0.141288
0.160945
0.144233
0.179075
0.185282
0.179436
0.178145
0.13824
0.127946
0.124628
0.125119
0.119199
0.103432
0.103514
0.0946718
0.101165
0.0850748
0.106422
0.0906598
0.117827
0.103132
0.122369
0.0915199
0.114149
0.0897593
0.112725
0.101212
0.112114
0.0867447
0.0885455
0.0763184
0.0728685
0.072207
0.0615767
0.0703193
0.065964
0.0617432
0.061165
0.0682605
0.0611787
0.0611313
0.0583933
0.05565
0.0563029
0.0546981
0.0555641
0.0551051
0.0544967
0.0534791
0.0528905
0.0510487
0.0471766
0.0425282
0.0379372
0.0338909
0.0303358
0.0271743
0.0243043
0.0216463
0.0191479
0.0167752
0.0145071
0.0123305
0.0102373
0.00822267
0.00628304
0.00441617
0.00261932
0.000874173
-1.78831e-06
0.00144469
0.00310399
0.00482917
0.00662203
0.00849243
0.0104448
0.0124839
0.0146156
0.0168479
0.0191904
0.0216523
0.0242413
0.0269657
0.0298377
0.0328745
0.0361006
0.0395464
0.0432347
0.0471953
0.0514566
0.0560593
0.0610574
0.0665202
0.0726026
0.0796135
0.088061
0.100734
0.115865
0.135913
0.141932
0.131767
0.146754
0.138452
0.175953
0.18659
0.176876
0.17597
0.147893
0.143847
0.141043
0.139277
0.133961
0.115573
0.114322
0.106993
0.112404
0.096954
0.11448
0.100298
0.121393
0.108826
0.125883
0.0998153
0.118165
0.0973696
0.115716
0.105745
0.114823
0.0936185
0.0942835
0.0825591
0.0785771
0.0761455
0.0648867
0.069829
0.0684317
0.0637099
0.064759
0.0707873
0.063977
0.0639312
0.060881
0.0577725
0.0573074
0.0550668
0.0549028
0.0537094
0.0525607
0.0515594
0.0509901
0.0492868
0.0458235
0.0415472
0.0372525
0.0333869
0.0299555
0.026882
0.0240759
0.0214656
0.0190035
0.0166589
0.014413
0.0122545
0.0101767
0.00817539
0.00624794
0.00439238
0.00260629
0.000871307
-0.000144537
0.00137926
0.00311653
0.00492322
0.00680167
0.00876135
0.0108062
0.0129401
0.0151686
0.0174999
0.0199438
0.0225097
0.0252052
0.0280383
0.0310192
0.0341605
0.0374834
0.0410158
0.0447783
0.0488018
0.0531143
0.0577533
0.0627687
0.0682277
0.0742814
0.0812137
0.0894514
0.101131
0.114971
0.131119
0.1336
0.119631
0.129886
0.130259
0.170302
0.185159
0.173712
0.174088
0.154958
0.156047
0.153859
0.150695
0.14561
0.125884
0.123601
0.117664
0.122272
0.107323
0.121466
0.107987
0.125195
0.11401
0.129055
0.10699
0.121689
0.103917
0.118502
0.109839
0.117333
0.0994492
0.099276
0.0883295
0.0840932
0.0805534
0.0691589
0.071519
0.0719423
0.066754
0.0683014
0.0731061
0.0663318
0.0661838
0.0628794
0.0594121
0.0580027
0.0552289
0.054226
0.0524613
0.050962
0.0499397
0.0493859
0.0477572
0.0446284
0.0406712
0.0366211
0.0329057
0.029575
0.0265725
0.0238188
0.0212494
0.0188204
0.0165037
0.014282
0.0121452
0.0100872
0.00810466
0.00619502
0.00435634
0.00258637
0.000867482
-0.000319086
0.00126976
0.00306979
0.00494236
0.00689027
0.00892235
0.0110419
0.0132519
0.0155572
0.017965
0.0204846
0.0231255
0.0258957
0.0288042
0.0318597
0.0350711
0.0384545
0.0420302
0.0458161
0.0498403
0.0541289
0.0587172
0.06365
0.0689874
0.0748694
0.0815432
0.0893603
0.0998604
0.111883
0.124218
0.123698
0.105725
0.112216
0.120727
0.162978
0.181328
0.170428
0.172978
0.159887
0.164724
0.163237
0.159557
0.154575
0.13457
0.131574
0.126805
0.130823
0.116318
0.127649
0.114631
0.12879
0.11874
0.132024
0.11313
0.125036
0.109672
0.121225
0.113542
0.120168
0.104258
0.103672
0.0936946
0.0894663
0.0852067
0.074886
0.0753032
0.0762193
0.0704613
0.0717873
0.0752616
0.0683772
0.0680519
0.0645208
0.0607002
0.0584833
0.055253
0.0535693
0.0513748
0.049651
0.0486338
0.0479122
0.0463866
0.0435378
0.0398618
0.0360294
0.0324485
0.0292042
0.0262609
0.0235512
0.0210173
0.0186186
0.0163289
0.0141321
0.0120187
0.00998297
0.00802167
0.0061324
0.00431311
0.00256154
0.000861404
-0.000522761
0.00112044
0.00296941
0.00489364
0.00689655
0.00898604
0.0111643
0.0134332
0.0157964
0.0182604
0.0208337
0.0235248
0.0263419
0.0292947
0.0323911
0.0356377
0.0390462
0.042628
0.0463967
0.0503747
0.0545833
0.059053
0.0638212
0.0689379
0.0745208
0.0807698
0.0879472
0.0970607
0.106955
0.115679
0.112736
0.0915255
0.0958427
0.111125
0.155029
0.175561
0.167232
0.172771
0.163143
0.170324
0.169572
0.166216
0.161352
0.141783
0.138368
0.13457
0.138189
0.124109
0.13314
0.120579
0.132065
0.123112
0.134874
0.1184
0.128325
0.114805
0.123942
0.117636
0.122162
0.108678
0.107868
0.0987482
0.0947701
0.0901651
0.0818271
0.0807058
0.0809571
0.0745195
0.075195
0.0772636
0.0701967
0.0696483
0.0659017
0.0617278
0.0588052
0.0551718
0.0529342
0.0504319
0.0485588
0.0474656
0.0466374
0.0451456
0.0425092
0.0390886
0.0354613
0.0320087
0.028844
0.0259533
0.0232824
0.0207801
0.0184093
0.0161456
0.0139738
0.0118845
0.00987215
0.0079333
0.00606558
0.00426691
0.00253442
0.000852269
-0.000751699
0.000937224
0.00282357
0.00478699
0.00683121
0.00896363
0.0111862
0.0135001
0.0159077
0.018414
0.0210255
0.0237486
0.0265905
0.0295611
0.0326684
0.0359182
0.0393193
0.0428761
0.0465963
0.050495
0.0545856
0.0588907
0.0634373
0.0682625
0.0734527
0.0791549
0.0855202
0.0931335
0.100873
0.106467
0.101749
0.0786552
0.0824802
0.102682
0.147383
0.168702
0.16421
0.173185
0.165075
0.173439
0.173401
0.171025
0.16637
0.147669
0.144088
0.141111
0.14449
0.130839
0.137975
0.125887
0.135119
0.12722
0.137676
0.123118
0.131441
0.119405
0.126526
0.1211
0.124608
0.11303
0.111939
0.103575
0.100046
0.0953384
0.0894653
0.0870636
0.0859172
0.0787765
0.0785035
0.0791019
0.0718366
0.0710471
0.0670895
0.0625558
0.059
0.0549998
0.0523095
0.0496016
0.0476407
0.0464389
0.045469
0.0439652
0.0415084
0.0383307
0.034904
0.0315801
0.0284941
0.0256534
0.0230179
0.0205443
0.018199
0.0159594
0.0138111
0.0117451
0.00975571
0.00783921
0.00599309
0.00421583
0.00250496
0.000842887
-0.00100166
0.000725594
0.00263969
0.00463247
0.00670755
0.00887137
0.0111259
0.0134724
0.0159128
0.0184508
0.0210902
0.0238342
0.0266882
0.0296608
0.0327598
0.0359906
0.03936
0.042868
0.0465172
0.050315
0.0542662
0.0583836
0.0626818
0.0671822
0.071937
0.0770393
0.0825321
0.0887106
0.0945286
0.0976729
0.0921152
0.0680737
0.0732258
0.096227
0.140667
0.161892
0.161394
0.173642
0.165934
0.174731
0.175331
0.174261
0.169952
0.15239
0.14886
0.146555
0.149814
0.136626
0.142223
0.130657
0.138026
0.131105
0.140409
0.127499
0.134372
0.123576
0.129081
0.124218
0.127315
0.117156
0.115845
0.108185
0.105221
0.100511
0.097217
0.0936993
0.0909532
0.0831754
0.0816882
0.0807622
0.0733242
0.0722993
0.0681357
0.0632303
0.0590873
0.054736
0.0516628
0.0488218
0.0468211
0.0454977
0.0443584
0.0428222
0.0405236
0.0375761
0.0343481
0.0311576
0.0281534
0.025363
0.0227614
0.0203136
0.0179908
0.0157726
0.0136457
0.011602
0.00963592
0.00774377
0.0059223
0.00416935
0.00248269
0.000843347
-0.00126621
0.000495303
0.00243048
0.00444446
0.00654096
0.00872593
0.0110013
0.0133687
0.0158307
0.0183905
0.0210501
0.0238095
0.0266706
0.0296396
0.0327223
0.0359233
0.039248
0.0426944
0.0462614
0.0499502
0.053758
0.0576875
0.0617402
0.0659218
0.0702529
0.0747778
0.0794581
0.0843943
0.0886477
0.090116
0.0858338
0.0602221
0.0673524
0.0919724
0.135412
0.15603
0.158749
0.17346
0.1659
0.174829
0.175967
0.176108
0.172315
0.156107
0.152822
0.151012
0.154233
0.14157
0.145945
0.134865
0.140972
0.134797
0.142627
0.131993
0.137147
0.127428
0.131686
0.127275
0.129957
0.120974
0.119581
0.112553
0.110178
0.105491
0.104506
0.100054
0.0959839
0.0876841
0.0847268
0.0822445
0.0746856
0.0734455
0.0690826
0.0637879
0.0590767
0.0543626
0.0509385
0.0479989
0.0459912
0.0445694
0.0432872
0.0417235
0.039562
0.0368256
0.0337913
0.0307384
0.0278206
0.0250826
0.0225143
0.0200903
0.0177872
0.0155877
0.0134805
0.0114586
0.00951768
0.00765478
0.00586692
0.0041503
0.00249395
0.000861349
-0.00153949
0.000254264
0.00220704
0.0042378
0.00634951
0.00854812
0.0108361
0.0132156
0.0156896
0.0182616
0.0209324
0.0237002
0.0265642
0.0295275
0.0325928
0.0357628
0.0390412
0.0424257
0.0459128
0.0494986
0.0531747
0.056935
0.0607704
0.0646718
0.0686347
0.072662
0.0766689
0.0806011
0.0835919
0.0836128
0.077849
0.0592338
0.0655094
0.0898877
0.132004
0.15164
0.156189
0.172051
0.165082
0.174231
0.175824
0.176699
0.173611
0.158968
0.156099
0.154587
0.15781
0.145767
0.149189
0.138983
0.143532
0.138348
0.145175
0.135685
0.139745
0.131018
0.134304
0.13028
0.13253
0.124566
0.123163
0.11667
0.114826
0.110145
0.110895
0.10575
0.100958
0.092252
0.087604
0.0835715
0.0759535
0.0745203
0.069963
0.0642577
0.0589757
0.0538618
0.0500836
0.0470512
0.0450554
0.0435989
0.0422432
0.0406784
0.0386373
0.036089
0.033237
0.0303216
0.0274938
0.0248111
0.022277
0.0198758
0.0175898
0.0154048
0.013311
0.0113019
0.00937364
0.00752437
0.00575581
0.00407979
0.00251514
0.00100331
-0.00181585
1.09887e-05
0.00198078
0.00402825
0.00615505
0.00836574
0.0106628
0.013049
0.0155276
0.0181024
0.0207741
0.0235408
0.0264009
0.0293554
0.0324039
0.0355463
0.0387842
0.0421153
0.0455342
0.0490333
0.0526007
0.0562242
0.0598871
0.0635688
0.0672454
0.0708891
0.0743878
0.0775864
0.0796802
0.078963
0.0734022
0.0589055
0.0656524
0.0893684
0.130563
0.148976
0.153601
0.169059
0.163544
0.17323
0.175149
0.176307
0.174001
0.161101
0.158794
0.157377
0.1606
0.149293
0.151957
0.142535
0.146107
0.1417
0.147732
0.13895
0.142262
0.134381
0.136911
0.133212
0.135093
0.128
0.126598
0.120539
0.119107
0.11439
0.116159
0.110599
0.105823
0.096795
0.0903157
0.0847895
0.0771671
0.0755517
0.0708015
0.0646689
0.0588059
0.0532444
0.0490824
0.0459365
0.0439762
0.0425635
0.0412204
0.0396948
0.0377643
0.0353788
0.0326922
0.0299094
0.0271733
0.0245496
0.0220535
0.0196788
0.0174139
0.0152483
0.0131743
0.0111862
0.00928055
0.00745379
0.00570277
0.00403489
0.00248648
0.0010146
-0.00209109
-0.000226111
0.00176415
0.00383116
0.0059764
0.00820228
0.0105101
0.0129021
0.0153821
0.0179534
0.0206179
0.0233748
0.0262235
0.0291638
0.032194
0.0353116
0.0385163
0.0418051
0.0451717
0.0486059
0.0520937
0.0556199
0.0591631
0.0626947
0.0661775
0.0695618
0.0727177
0.0754369
0.0769792
0.0759652
0.0710826
0.0596536
0.067026
0.0911779
0.12972
0.147858
0.150856
0.16445
0.161362
0.171978
0.174168
0.175111
0.173615
0.162561
0.161033
0.159479
0.162655
0.152242
0.154292
0.145527
0.148678
0.144699
0.150113
0.142057
0.144739
0.137576
0.139523
0.136094
0.137658
0.131297
0.129887
0.124177
0.123004
0.118201
0.120278
0.114536
0.11054
0.101212
0.0928721
0.0859611
0.0783678
0.0765649
0.0716215
0.0650603
0.0586151
0.0525665
0.0479892
0.0446945
0.0427815
0.0414765
0.0402274
0.0387831
0.0369574
0.0347099
0.0321682
0.0295085
0.0268633
0.0243019
0.0218486
0.0195054
0.0172668
0.0151259
0.0130768
0.011115
0.00923648
0.00743639
0.00570653
0.00404212
0.00247584
0.000990292
-0.00236233
-0.00044899
0.00157164
0.00366628
0.00583579
0.00808127
0.0104031
0.012803
0.0152836
0.0178483
0.0205002
0.023241
0.0260712
0.0289913
0.0319997
0.0350937
0.0382714
0.0415291
0.0448598
0.048252
0.0516912
0.0551607
0.0586372
0.0620868
0.0654639
0.068704
0.0716645
0.0741045
0.0753432
0.0742715
0.0700582
0.0612574
0.0690962
0.0934391
0.130931
0.148025
0.147893
0.158558
0.158683
0.170547
0.172939
0.173336
0.172595
0.163879
0.162427
0.160934
0.163998
0.154713
0.15636
0.148094
0.151046
0.147755
0.151934
0.144994
0.147145
0.140649
0.142154
0.138946
0.14022
0.134472
0.133043
0.127612
0.126538
0.121615
0.123378
0.117357
0.115322
0.105421
0.0952901
0.0871544
0.0795982
0.0775864
0.0724507
0.0654826
0.0584785
0.0519265
0.0469234
0.0434441
0.0415631
0.0403965
0.0392945
0.037961
0.0362346
0.0341023
0.0316835
0.0291342
0.0265752
0.0240759
0.0216657
0.0193529
0.0171361
0.0150104
0.0129709
0.0110127
0.00913132
0.00732278
0.00558201
0.00390524
0.0023178
0.00084875
-0.00261762
-0.000625632
0.00144694
0.00358303
0.00578248
0.00804687
0.0103788
0.012781
0.0152561
0.0178079
0.0204411
0.0231598
0.0259662
0.0288615
0.0318457
0.0349171
0.0380734
0.0413105
0.0446207
0.0479927
0.0514122
0.0548625
0.0583198
0.061748
0.0650964
0.0682901
0.0711769
0.073492
0.0746026
0.0736254
0.0700238
0.0633344
0.0716731
0.0964977
0.133357
0.148732
0.14475
0.152043
0.155779
0.168939
0.171526
0.171132
0.171044
0.164535
0.163607
0.16183
0.164623
0.15673
0.15742
0.1511
0.153218
0.150368
0.153878
0.147797
0.149483
0.143632
0.144805
0.141782
0.142787
0.137557
0.136093
0.130883
0.129771
0.124725
0.125818
0.120313
0.119016
0.109236
0.0975829
0.0884354
0.0809007
0.078646
0.0733194
0.0659903
0.0584896
0.0514403
0.0460327
0.0423566
0.0404661
0.0394242
0.0384777
0.0372601
0.0356234
0.0335854
0.031268
0.0288136
0.0263323
0.0238907
0.0215211
0.0192357
0.0170368
0.0149223
0.0128892
0.0109347
0.00905628
0.00725261
0.00552243
0.00386261
0.0022794
0.000790887
-0.00278659
-0.000619321
0.00153577
0.0037114
0.00592227
0.00817947
0.0104935
0.0128721
0.0153201
0.0178426
0.0204458
0.0231347
0.0259122
0.0287801
0.0317396
0.0347907
0.0379312
0.0411567
0.0444602
0.0478311
0.0512563
0.0547197
0.0581983
0.061656
0.0650399
0.0682674
0.0711783
0.073489
0.0746014
0.0738066
0.0707364
0.0658724
0.0748653
0.100377
0.136165
0.14932
0.141585
0.145784
0.153021
0.167127
0.169876
0.168756
0.16922
0.164698
0.164357
0.16244
0.164841
0.158219
0.158637
0.153449
0.155169
0.152637
0.155812
0.150421
0.151784
0.146557
0.147485
0.144622
0.14538
0.140589
0.139071
0.134039
0.132783
0.127623
0.127782
0.122645
0.122521
0.112713
0.0997949
0.0898644
0.0823113
0.0797745
0.0742558
0.0666291
0.0587721
0.0511972
0.0454822
0.0415986
0.0396494
0.0386786
0.0378509
0.0367283
0.0351636
0.0331987
0.0309609
0.0285834
0.0261672
0.0237752
0.0214409
0.0191796
0.0169968
0.0148933
0.0128682
0.0109202
0.00904774
0.00724953
0.00552415
0.00386941
0.00228451
0.000772618
-0.00222029
0.000192336
0.00223456
0.00429863
0.00640573
0.00856669
0.0107947
0.0130981
0.0154816
0.0179492
0.0205056
0.0231545
0.0258978
0.0287367
0.0316727
0.0347065
0.0378364
0.0410586
0.0443671
0.0477532
0.0512054
0.0547086
0.0582417
0.0617706
0.0652421
0.0685685
0.0715822
0.0739837
0.0751977
0.0746416
0.0720052
0.0688505
0.0788425
0.104683
0.138858
0.149476
0.13873
0.140756
0.150829
0.165132
0.167976
0.166446
0.167362
0.164555
0.164761
0.162651
0.164633
0.159205
0.159878
0.155409
0.157008
0.154748
0.157557
0.152856
0.154061
0.149443
0.150207
0.147487
0.14802
0.143605
0.142017
0.137129
0.135663
0.13041
0.129569
0.124578
0.125747
0.115827
0.101965
0.0914864
0.083848
0.0810033
0.0752955
0.0673837
0.0592078
0.051501
0.0454345
0.0413244
0.0392553
0.0382717
0.0374926
0.0364212
0.0349008
0.0329848
0.0308027
0.0284807
0.0261122
0.0237567
0.0214478
0.0192028
0.0170295
0.0149307
0.0129071
0.0109581
0.00908258
0.00727931
0.00554684
0.00388448
0.00229332
0.000772829
0.001192
0.00255425
0.00387644
0.00546688
0.00724685
0.0091759
0.0112351
0.0134123
0.0156997
0.0180933
0.0205914
0.0231936
0.0258999