/*--------------------------------*- C++ -*----------------------------------*\
  =========                 |
  \\      /  F ield         | OpenFOAM: The Open Source CFD Toolbox
   \\    /   O peration     | Website:  https://openfoam.org
    \\  /    A nd           | Version:  9
     \\/     M anipulation  |
\*---------------------------------------------------------------------------*/
FoamFile
{
    format      ascii;
    class       surfaceScalarField;
    location    "0.07";
    object      phi;
}
// * * * * * * * * * * * * * * * * * * * * * * * * * * * * * * * * * * * * * //

dimensions      [0 3 -1 0 0 0 0];

internalField   nonuniform List<scalar> 
39700
(
3.75286e-07
2.19941e-06
3.75363e-07
2.30009e-06
3.75448e-07
2.40543e-06
3.75549e-07
2.5149e-06
3.75676e-07
2.62872e-06
3.7583e-07
2.74696e-06
3.76016e-07
2.86965e-06
3.76236e-07
2.99677e-06
3.76495e-07
3.12828e-06
3.76798e-07
3.2641e-06
3.77155e-07
3.40413e-06
3.77576e-07
3.54817e-06
3.78075e-07
3.69599e-06
3.78672e-07
3.84721e-06
3.79395e-07
4.00134e-06
3.80284e-07
4.15765e-06
3.81399e-07
4.31515e-06
3.82828e-07
4.4724e-06
3.84702e-07
4.62718e-06
3.87185e-07
4.77594e-06
3.90342e-07
4.91257e-06
3.93523e-07
5.02661e-06
3.93472e-07
5.10492e-06
3.82458e-07
5.15929e-06
3.60976e-07
5.32518e-06
3.64434e-07
5.93853e-06
4.12439e-07
7.21467e-06
4.86104e-07
8.92837e-06
6.03197e-07
1.08341e-05
9.68388e-07
1.25253e-05
3.04664e-07
1.90501e-06
-1.16918e-07
1.65608e-06
3.15473e-07
1.64483e-05
4.3192e-07
1.67722e-05
6.87836e-07
1.68531e-05
3.90877e-07
2.72692e-06
4.08084e-08
2.45559e-06
2.81024e-07
1.69684e-05
3.41058e-07
1.66836e-05
5.62559e-07
1.40721e-05
-7.50159e-08
1.86347e-06
3.0801e-07
1.15736e-05
3.42817e-07
1.53344e-05
3.27938e-07
1.50937e-05
3.81337e-07
1.34353e-05
3.66418e-07
7.62985e-06
3.98299e-07
1.36702e-05
3.85267e-07
1.4655e-05
3.96944e-07
1.45419e-05
4.07754e-07
1.50686e-05
5.45362e-07
1.39344e-05
2.23343e-07
4.02807e-06
3.45678e-07
1.42092e-05
3.60006e-07
1.50953e-05
3.84803e-07
1.46093e-05
3.98676e-07
1.50815e-05
5.36576e-07
1.37787e-05
2.23655e-07
4.16013e-06
3.39124e-07
1.40624e-05
3.5076e-07
1.47789e-05
3.66036e-07
1.42295e-05
3.76469e-07
1.40965e-05
3.85657e-07
1.41331e-05
4.02851e-07
1.42964e-05
4.51905e-07
1.46992e-05
7.73912e-07
1.2481e-05
6.62417e-08
1.89357e-06
2.97245e-07
1.36011e-05
3.29291e-07
1.47229e-05
3.31909e-07
1.40852e-05
3.78724e-07
1.00599e-05
3.63102e-07
6.69497e-06
3.90854e-07
9.33122e-06
3.84344e-07
9.56762e-06
3.89621e-07
9.08926e-06
4.07497e-07
8.70826e-06
4.41918e-07
8.4731e-06
5.2621e-07
8.30246e-06
8.58671e-07
7.33541e-06
2.63313e-07
1.36568e-06
-2.9713e-08
2.29492e-06
1.97704e-07
6.37604e-06
2.71752e-07
6.30032e-06
3.08411e-07
5.72345e-06
3.31964e-07
5.17832e-06
3.48173e-07
4.7084e-06
3.5906e-07
4.3126e-06
3.65847e-07
3.9857e-06
3.69712e-07
3.71857e-06
3.71751e-07
3.49906e-06
3.72798e-07
3.31438e-06
3.73365e-07
3.15372e-06
3.73719e-07
3.00922e-06
3.73977e-07
2.87578e-06
3.74185e-07
2.7503e-06
3.74358e-07
2.63094e-06
3.74493e-07
2.51671e-06
3.74584e-07
2.40712e-06
3.74637e-07
2.30203e-06
2.20117e-06
3.75743e-07
2.19933e-06
3.75932e-07
2.2999e-06
3.76142e-07
2.40522e-06
3.76399e-07
2.51465e-06
3.76726e-07
2.62839e-06
3.77134e-07
2.74655e-06
3.77631e-07
2.86915e-06
3.78229e-07
2.99617e-06
3.78938e-07
3.12757e-06
3.79776e-07
3.26327e-06
3.80764e-07
3.40314e-06
3.81931e-07
3.547e-06
3.83314e-07
3.6946e-06
3.84962e-07
3.84556e-06
3.86939e-07
3.99936e-06
3.89332e-07
4.15526e-06
3.92255e-07
4.31223e-06
3.95852e-07
4.4688e-06
4.00279e-07
4.62275e-06
4.05605e-07
4.77062e-06
4.11463e-07
4.90672e-06
4.16068e-07
5.022e-06
4.14366e-07
5.10662e-06
3.98758e-07
5.1749e-06
3.76607e-07
5.34733e-06
3.96467e-07
5.91867e-06
5.00329e-07
7.11081e-06
6.67794e-07
8.76091e-06
9.11311e-07
1.05906e-05
1.28556e-06
1.21511e-05
2.70781e-07
2.91979e-06
-2.21074e-07
2.14794e-06
2.9219e-07
1.5935e-05
5.36677e-07
1.65277e-05
9.05724e-07
1.64841e-05
4.01418e-07
3.23123e-06
-1.89421e-07
3.04642e-06
1.23637e-07
1.66553e-05
2.73632e-07
1.65336e-05
5.40858e-07
1.38049e-05
-2.27808e-07
2.63213e-06
1.93703e-07
1.11521e-05
2.77337e-07
1.52508e-05
2.78667e-07
1.50924e-05
3.81663e-07
1.33323e-05
3.46279e-07
7.66523e-06
4.1164e-07
1.36048e-05
4.06231e-07
1.46604e-05
4.36288e-07
1.45118e-05
4.82129e-07
1.50227e-05
6.57458e-07
1.37591e-05
1.17441e-07
4.56808e-06
2.80279e-07
1.40464e-05
3.3896e-07
1.50366e-05
3.96213e-07
1.4552e-05
4.5716e-07
1.50205e-05
6.35966e-07
1.35999e-05
1.11458e-07
4.68463e-06
2.61107e-07
1.39128e-05
3.09527e-07
1.47305e-05
3.49552e-07
1.41895e-05
3.78264e-07
1.40677e-05
4.04596e-07
1.41068e-05
4.53277e-07
1.42477e-05
5.69468e-07
1.4583e-05
9.04331e-07
1.21462e-05
-5.67347e-08
2.85464e-06
1.77005e-07
1.33674e-05
2.52274e-07
1.46476e-05
2.86155e-07
1.40513e-05
3.72923e-07
9.97314e-06
3.36202e-07
6.73169e-06
3.90009e-07
9.27742e-06
3.98808e-07
9.55882e-06
4.1869e-07
9.06938e-06
4.62074e-07
8.66487e-06
5.39385e-07
8.39578e-06
6.80608e-07
8.16124e-06
9.4502e-07
7.071e-06
2.07646e-07
2.10306e-06
-2.56025e-07
2.75859e-06
-2.71312e-08
6.14715e-06
1.14358e-07
6.15883e-06
1.99165e-07
5.63864e-06
2.56565e-07
5.12092e-06
2.96613e-07
4.66835e-06
3.24078e-07
4.28514e-06
3.42115e-07
3.96766e-06
3.53591e-07
3.7071e-06
3.60737e-07
3.49192e-06
3.65202e-07
3.30992e-06
3.68088e-07
3.15083e-06
3.70046e-07
3.00726e-06
3.71438e-07
2.87439e-06
3.72457e-07
2.74928e-06
3.73209e-07
2.63019e-06
3.73746e-07
2.51617e-06
3.7409e-07
2.40677e-06
3.74278e-07
2.30184e-06
2.20099e-06
3.75432e-07
2.19917e-06
3.75674e-07
2.29966e-06
3.75966e-07
2.40493e-06
3.76341e-07
2.51427e-06
3.76823e-07
2.62791e-06
3.77427e-07
2.74594e-06
3.7817e-07
2.86841e-06
3.79064e-07
2.99527e-06
3.80131e-07
3.1265e-06
3.81394e-07
3.262e-06
3.82884e-07
3.40165e-06
3.8464e-07
3.54525e-06
3.86712e-07
3.69253e-06
3.89163e-07
3.84311e-06
3.92072e-07
3.99645e-06
3.95537e-07
4.15179e-06
3.99674e-07
4.3081e-06
4.04609e-07
4.46387e-06
4.10437e-07
4.61692e-06
4.17102e-07
4.76395e-06
4.24061e-07
4.89976e-06
4.29447e-07
5.01661e-06
4.28589e-07
5.10748e-06
4.15192e-07
5.1883e-06
3.98469e-07
5.36406e-06
4.31817e-07
5.88532e-06
5.6705e-07
6.97558e-06
7.84545e-07
8.54341e-06
1.0597e-06
1.03154e-05
1.43469e-06
1.17761e-05
3.92546e-07
3.96193e-06
-1.75543e-07
2.71603e-06
3.57183e-07
1.54023e-05
6.10225e-07
1.62746e-05
9.98187e-07
1.60961e-05
3.95086e-07
3.83433e-06
-2.81494e-07
3.723e-06
2.48329e-08
1.6349e-05
1.82457e-07
1.63759e-05
4.46392e-07
1.3541e-05
-2.66916e-07
3.34544e-06
1.50825e-07
1.07343e-05
2.44375e-07
1.51572e-05
2.55806e-07
1.5081e-05
3.83779e-07
1.32043e-05
3.24962e-07
7.72405e-06
4.05926e-07
1.35239e-05
4.19636e-07
1.46467e-05
4.61713e-07
1.44697e-05
5.36946e-07
1.49475e-05
7.11604e-07
1.35845e-05
7.13341e-08
5.20835e-06
2.34288e-07
1.38834e-05
3.28908e-07
1.4942e-05
4.01392e-07
1.44795e-05
4.9781e-07
1.49241e-05
6.7901e-07
1.34187e-05
5.78122e-08
5.30583e-06
2.04516e-07
1.37661e-05
2.81363e-07
1.46536e-05
3.34865e-07
1.4136e-05
3.76501e-07
1.40261e-05
4.15874e-07
1.40674e-05
4.7215e-07
1.41915e-05
6.12979e-07
1.44421e-05
9.17408e-07
1.18417e-05
-5.59098e-08
3.82795e-06
1.33845e-07
1.31776e-05
2.18447e-07
1.4563e-05
2.66465e-07
1.40033e-05
3.6935e-07
9.87025e-06
3.14607e-07
6.78643e-06
3.76351e-07
9.21567e-06
3.99113e-07
9.53606e-06
4.26082e-07
9.04241e-06
4.74043e-07
8.61691e-06
5.5021e-07
8.31962e-06
6.79495e-07
8.03196e-06
9.15421e-07
6.83507e-06
2.21742e-07
2.79674e-06
-2.69926e-07
3.25026e-06
-6.40908e-08
5.94131e-06
6.61275e-08
6.02861e-06
1.54222e-07
5.55055e-06
2.19592e-07
5.05555e-06
2.68051e-07
4.61989e-06
3.02786e-07
4.2504e-06
3.26605e-07
3.94384e-06
3.42493e-07
3.69121e-06
3.52907e-07
3.4815e-06
3.5983e-07
3.303e-06
3.64562e-07
3.1461e-06
3.67904e-07
3.00392e-06
3.70328e-07
2.87197e-06
3.7211e-07
2.74749e-06
3.73415e-07
2.62888e-06
3.74341e-07
2.51525e-06
3.7495e-07
2.40617e-06
3.75294e-07
2.3015e-06
2.20082e-06
3.74055e-07
2.19903e-06
3.74314e-07
2.2994e-06
3.74665e-07
2.40458e-06
3.75129e-07
2.51381e-06
3.75729e-07
2.62731e-06
3.76485e-07
2.74519e-06
3.77413e-07
2.86748e-06
3.78534e-07
2.99415e-06
3.79871e-07
3.12517e-06
3.81452e-07
3.26042e-06
3.83314e-07
3.39979e-06
3.85501e-07
3.54306e-06
3.88068e-07
3.68997e-06
3.91081e-07
3.8401e-06
3.94621e-07
3.99291e-06
3.98784e-07
4.14763e-06
4.03675e-07
4.3032e-06
4.09398e-07
4.45814e-06
4.16011e-07
4.61031e-06
4.23405e-07
4.75656e-06
4.30992e-07
4.89217e-06
4.36938e-07
5.01067e-06
4.37049e-07
5.10737e-06
4.26593e-07
5.19875e-06
4.1575e-07
5.3749e-06
4.54115e-07
5.84696e-06
5.97571e-07
6.83212e-06
8.37147e-07
8.30384e-06
1.13419e-06
1.00184e-05
1.49176e-06
1.14185e-05
5.03288e-07
4.95041e-06
-8.05751e-08
3.29989e-06
4.36214e-07
1.48855e-05
6.77694e-07
1.60332e-05
1.03123e-06
1.57426e-05
3.79846e-07
4.48571e-06
-2.98656e-07
4.40151e-06
-2.42361e-08
1.60746e-05
1.28218e-07
1.62235e-05
3.52837e-07
1.33164e-05
-2.61328e-07
3.95961e-06
1.3664e-07
1.03364e-05
2.34875e-07
1.5059e-05
2.50031e-07
1.50658e-05
3.91191e-07
1.30632e-05
3.06152e-07
7.80909e-06
3.90322e-07
1.34397e-05
4.232e-07
1.46138e-05
4.70214e-07
1.44227e-05
5.64334e-07
1.48534e-05
7.29505e-07
1.34193e-05
6.27149e-08
5.87514e-06
2.11065e-07
1.37351e-05
3.25306e-07
1.48277e-05
4.00844e-07
1.4404e-05
5.18857e-07
1.48061e-05
6.89468e-07
1.3248e-05
4.23742e-08
5.95293e-06
1.74008e-07
1.36345e-05
2.65044e-07
1.45626e-05
3.23905e-07
1.40771e-05
3.72417e-07
1.39776e-05
4.16657e-07
1.40232e-05
4.66343e-07
1.41418e-05
6.15232e-07
1.42932e-05
8.88977e-07
1.1568e-05
-4.15202e-09
4.72108e-06
1.38304e-07
1.30352e-05
2.1611e-07
1.44852e-05
2.65039e-07
1.39543e-05
3.69248e-07
9.76604e-06
2.9702e-07
6.85865e-06
3.59109e-07
9.15358e-06
3.86553e-07
9.50862e-06
4.09825e-07
9.01914e-06
4.49205e-07
8.57753e-06
5.11016e-07
8.2578e-06
6.25637e-07
7.91733e-06
8.04795e-07
6.65592e-06
2.40548e-07
3.36098e-06
-1.79526e-07
3.67033e-06
-2.59087e-08
5.78769e-06
8.78146e-08
5.91489e-06
1.6454e-07
5.47382e-06
2.22987e-07
4.99711e-06
2.68142e-07
4.57474e-06
3.01707e-07
4.21684e-06
3.25645e-07
3.9199e-06
3.41944e-07
3.67491e-06
3.52993e-07
3.47045e-06
3.60581e-07
3.29541e-06
3.65929e-07
3.14075e-06
3.69806e-07
3.00004e-06
3.72676e-07
2.8691e-06
3.74817e-07
2.74535e-06
3.764e-07
2.6273e-06
3.77534e-07
2.51411e-06
3.78298e-07
2.4054e-06
3.78752e-07
2.30104e-06
2.20062e-06
3.71345e-07
2.19888e-06
3.71623e-07
2.29912e-06
3.72022e-07
2.40418e-06
3.72556e-07
2.51327e-06
3.73246e-07
2.62662e-06
3.74112e-07
2.74432e-06
3.75175e-07
2.86641e-06
3.76456e-07
2.99287e-06
3.77982e-07
3.12364e-06
3.79782e-07
3.25862e-06
3.81894e-07
3.39767e-06
3.84364e-07
3.54059e-06
3.87246e-07
3.68708e-06
3.90604e-07
3.83674e-06
3.94516e-07
3.989e-06
3.99067e-07
4.14308e-06
4.04348e-07
4.29792e-06
4.10435e-07
4.45206e-06
4.17344e-07
4.6034e-06
4.24911e-07
4.74899e-06
4.32487e-07
4.8846e-06
4.38306e-07
5.00485e-06
4.38794e-07
5.10688e-06
4.30771e-07
5.20678e-06
4.24307e-07
5.38136e-06
4.62506e-07
5.80876e-06
6.00624e-07
6.694e-06
8.4217e-07
8.06229e-06
1.14643e-06
9.71413e-06
1.48036e-06
1.10846e-05
6.23654e-07
5.80711e-06
4.33251e-08
3.88022e-06
5.17902e-07
1.44109e-05
7.43636e-07
1.58074e-05
1.03467e-06
1.54515e-05
3.69714e-07
5.15066e-06
-2.63158e-07
5.03438e-06
-2.97455e-08
1.58412e-05
1.18036e-07
1.60757e-05
3.02205e-07
1.31322e-05
-2.26902e-07
4.48871e-06
1.3432e-07
9.97514e-06
2.34047e-07
1.49593e-05
2.55116e-07
1.50447e-05
4.03084e-07
1.29152e-05
2.89393e-07
7.92278e-06
3.7039e-07
1.33587e-05
4.18e-07
1.45662e-05
4.64334e-07
1.43764e-05
5.68063e-07
1.47497e-05
7.18529e-07
1.32688e-05
7.6833e-08
6.51684e-06
2.02519e-07
1.36094e-05
3.24048e-07
1.47062e-05
3.96625e-07
1.43314e-05
5.23519e-07
1.46792e-05
6.75724e-07
1.30958e-05
5.18384e-08
6.57681e-06
1.61802e-07
1.35245e-05
2.57802e-07
1.44666e-05
3.16915e-07
1.4018e-05
3.66805e-07
1.39277e-05
4.10148e-07
1.39799e-05
4.47541e-07
1.41044e-05
5.95582e-07
1.41452e-05
8.41038e-07
1.13225e-05
6.48676e-08
5.49725e-06
1.64478e-07
1.29356e-05
2.31594e-07
1.44181e-05
2.76639e-07
1.39093e-05
3.72465e-07
9.67021e-06
2.8045e-07
6.95067e-06
3.33404e-07
9.10063e-06
3.60264e-07
9.48175e-06
3.78859e-07
9.00054e-06
4.12107e-07
8.54428e-06
4.60341e-07
8.20957e-06
5.59948e-07
7.81773e-06
6.91178e-07
6.52469e-06
2.55973e-07
3.79619e-06
-7.25251e-08
3.99883e-06
3.75642e-08
5.6776e-06
1.33323e-07
5.81913e-06
1.97741e-07
5.40941e-06
2.47105e-07
4.94774e-06
2.85897e-07
4.53595e-06
3.15167e-07
4.18757e-06
3.36201e-07
3.89887e-06
3.50785e-07
3.66033e-06
3.60815e-07
3.46043e-06
3.67815e-07
3.28841e-06
3.72829e-07
3.13574e-06
3.76522e-07
2.99635e-06
3.79296e-07
2.86633e-06
3.81392e-07
2.74326e-06
3.8296e-07
2.62573e-06
3.84099e-07
2.51297e-06
3.84882e-07
2.40462e-06
3.85362e-07
2.30056e-06
2.2004e-06
3.67111e-07
2.19873e-06
3.6741e-07
2.29882e-06
3.67844e-07
2.40374e-06
3.68427e-07
2.51269e-06
3.69177e-07
2.62587e-06
3.70114e-07
2.74339e-06
3.71259e-07
2.86527e-06
3.72636e-07
2.9915e-06
3.74269e-07
3.12201e-06
3.76188e-07
3.2567e-06
3.78431e-07
3.39543e-06
3.81038e-07
3.53798e-06
3.84061e-07
3.68406e-06
3.87558e-07
3.83324e-06
3.91594e-07
3.98496e-06
3.96238e-07
4.13844e-06
4.01556e-07
4.29261e-06
4.07588e-07
4.44602e-06
4.14299e-07
4.59669e-06
4.21462e-07
4.74183e-06
4.28402e-07
4.87766e-06
4.33513e-07
4.99974e-06
4.33901e-07
5.10649e-06
4.27573e-07
5.21311e-06
4.23781e-07
5.38515e-06
4.58742e-07
5.7738e-06
5.83709e-07
6.56903e-06
8.12102e-07
7.8339e-06
1.10789e-06
9.41835e-06
1.42282e-06
1.07697e-05
7.28567e-07
6.50136e-06
1.68169e-07
4.44062e-06
5.97152e-07
1.3982e-05
8.0372e-07
1.56009e-05
1.02928e-06
1.5226e-05
3.73584e-07
5.80636e-06
-1.96296e-07
5.60426e-06
3.58302e-09
1.56413e-05
1.39145e-07
1.59401e-05
2.80484e-07
1.29908e-05
-1.72791e-07
4.94199e-06
1.41177e-07
9.66117e-06
2.35187e-07
1.48653e-05
2.64204e-07
1.50157e-05
4.14175e-07
1.27652e-05
2.72657e-07
8.0643e-06
3.4832e-07
1.3283e-05
4.05726e-07
1.45088e-05
4.49452e-07
1.43327e-05
5.55324e-07
1.46438e-05
6.91139e-07
1.3133e-05
9.86632e-08
7.10931e-06
2.03652e-07
1.35044e-05
3.23658e-07
1.45862e-05
3.91448e-07
1.42636e-05
5.17605e-07
1.45531e-05
6.49669e-07
1.29638e-05
7.17582e-08
7.15472e-06
1.63076e-07
1.34332e-05
2.57149e-07
1.43725e-05
3.13641e-07
1.39615e-05
3.60955e-07
1.38804e-05
3.99835e-07
1.3941e-05
4.24026e-07
1.40802e-05
5.63366e-07
1.40059e-05
7.92141e-07
1.10938e-05
1.38349e-07
6.15104e-06
2.02997e-07
1.28709e-05
2.55797e-07
1.43653e-05
2.95084e-07
1.387e-05
3.76795e-07
9.5885e-06
2.64025e-07
7.06344e-06
3.03085e-07
9.06157e-06
3.30109e-07
9.45473e-06
3.49316e-07
8.98133e-06
3.76569e-07
8.51703e-06
4.11985e-07
8.17415e-06
5.01598e-07
7.72811e-06
6.05826e-07
6.42046e-06
2.72896e-07
4.12912e-06
1.90036e-08
4.25272e-06
1.02357e-07
5.59425e-06
1.83424e-07
5.73806e-06
2.37458e-07
5.35537e-06
2.78761e-07
4.90644e-06
3.1138e-07
4.50333e-06
3.36001e-07
4.16295e-06
3.53638e-07
3.88123e-06
3.65878e-07
3.64809e-06
3.74308e-07
3.452e-06
3.80198e-07
3.28252e-06
3.84442e-07
3.13149e-06
3.87595e-07
2.9932e-06
3.89987e-07
2.86394e-06
3.91817e-07
2.74143e-06
3.93205e-07
2.62434e-06
3.94234e-07
2.51194e-06
3.9496e-07
2.40389e-06
3.95422e-07
2.3001e-06
2.20018e-06
3.61192e-07
2.19856e-06
3.61506e-07
2.29851e-06
3.61963e-07
2.40329e-06
3.62574e-07
2.51208e-06
3.63355e-07
2.62509e-06
3.64324e-07
2.74242e-06
3.65502e-07
2.86409e-06
3.6691e-07
2.99009e-06
3.68572e-07
3.12035e-06
3.70515e-07
3.25476e-06
3.7277e-07
3.39318e-06
3.75376e-07
3.53538e-06
3.78372e-07
3.68106e-06
3.81807e-07
3.82981e-06
3.8573e-07
3.98104e-06
3.90186e-07
4.13398e-06
3.95212e-07
4.28758e-06
4.00807e-07
4.44043e-06
4.06889e-07
4.59061e-06
4.13186e-07
4.73553e-06
4.19032e-07
4.87181e-06
4.23014e-07
4.99576e-06
4.22815e-07
5.10669e-06
4.17176e-07
5.21874e-06
4.14168e-07
5.38816e-06
4.43683e-07
5.74428e-06
5.51335e-07
6.46138e-06
7.57412e-07
7.62782e-06
1.0332e-06
9.14256e-06
1.33374e-06
1.04691e-05
8.05462e-07
7.02964e-06
2.82782e-07
4.9633e-06
6.67753e-07
1.3597e-05
8.55349e-07
1.54133e-05
1.02357e-06
1.50578e-05
3.93362e-07
6.43657e-06
-1.12265e-07
6.10989e-06
6.80682e-08
1.5461e-05
1.83192e-07
1.5825e-05
2.82118e-07
1.28919e-05
-1.10155e-07
5.33426e-06
1.47696e-07
9.40332e-06
2.32564e-07
1.47804e-05
2.72135e-07
1.49761e-05
4.21526e-07
1.26159e-05
2.55565e-07
8.23026e-06
3.22503e-07
1.32161e-05
3.89023e-07
1.44423e-05
4.29207e-07
1.42925e-05
5.34221e-07
1.45388e-05
6.57044e-07
1.30102e-05
1.21295e-07
7.64506e-06
2.10788e-07
1.34149e-05
3.24655e-07
1.44723e-05
3.87518e-07
1.42008e-05
5.07781e-07
1.44328e-05
6.20299e-07
1.28513e-05
9.54447e-08
7.67958e-06
1.73902e-07
1.33547e-05
2.62064e-07
1.42843e-05
3.13893e-07
1.39097e-05
3.56239e-07
1.3838e-05
3.88858e-07
1.39084e-05
3.99782e-07
1.40693e-05
5.2919e-07
1.38765e-05
7.53373e-07
1.08696e-05
2.10938e-07
6.69348e-06
2.45903e-07
1.28359e-05
2.82005e-07
1.43292e-05
3.14491e-07
1.38375e-05
3.80532e-07
9.52246e-06
2.49182e-07
7.19479e-06
2.72985e-07
9.03776e-06
2.9882e-07
9.4289e-06
3.15988e-07
8.96417e-06
3.3617e-07
8.49685e-06
3.68504e-07
8.14182e-06
4.55547e-07
7.64107e-06
5.44737e-07
6.33127e-06
2.91121e-07
4.38273e-06
9.35556e-08
4.45029e-06
1.60659e-07
5.52715e-06
2.32044e-07
5.66668e-06
2.78702e-07
5.30871e-06
3.13457e-07
4.87168e-06
3.40568e-07
4.47622e-06
3.60857e-07
4.14266e-06
3.75241e-07
3.86685e-06
3.85101e-07
3.63823e-06
3.91814e-07
3.44528e-06
3.96473e-07
3.27786e-06
3.99816e-07
3.12815e-06
4.02304e-07
2.99071e-06
4.04207e-07
2.86203e-06
4.05684e-07
2.73995e-06
4.06828e-07
2.6232e-06
4.07701e-07
2.51107e-06
4.08343e-07
2.40325e-06
4.0877e-07
2.29967e-06
2.19997e-06
3.53457e-07
2.19838e-06
3.53785e-07
2.29818e-06
3.54257e-07
2.40281e-06
3.54881e-07
2.51146e-06
3.55669e-07
2.6243e-06
3.56639e-07
2.74145e-06
3.57806e-07
2.86292e-06
3.59189e-07
2.98871e-06
3.60808e-07
3.11873e-06
3.62686e-07
3.25288e-06
3.64849e-07
3.39101e-06
3.67324e-07
3.5329e-06
3.70142e-07
3.67825e-06
3.73336e-07
3.82662e-06
3.76933e-07
3.97744e-06
3.80958e-07
4.12995e-06
3.85411e-07
4.28313e-06
3.90256e-07
4.43558e-06
3.95365e-07
4.5855e-06
4.00437e-07
4.73046e-06
4.04818e-07
4.86743e-06
4.07253e-07
4.99332e-06
4.05859e-07
5.10809e-06
3.99792e-07
5.22481e-06
3.95743e-07
5.39221e-06
4.18519e-07
5.72151e-06
5.07185e-07
6.37272e-06
6.86301e-07
7.44871e-06
9.36335e-07
8.89253e-06
1.22658e-06
1.01789e-05
8.40566e-07
7.41565e-06
3.79521e-07
5.42434e-06
7.23435e-07
1.32531e-05
8.96738e-07
1.524e-05
1.0199e-06
1.49346e-05
4.20612e-07
7.03586e-06
-2.22833e-08
6.55278e-06
1.53362e-07
1.52853e-05
2.47026e-07
1.57314e-05
3.04856e-07
1.28341e-05
-4.82955e-08
5.68741e-06
1.46056e-07
9.20897e-06
2.22654e-07
1.47038e-05
2.75831e-07
1.4923e-05
4.23521e-07
1.24682e-05
2.38533e-07
8.41525e-06
2.94292e-07
1.31603e-05
3.66361e-07
1.43702e-05
4.04203e-07
1.42546e-05
5.10231e-07
1.44327e-05
6.21364e-07
1.2899e-05
1.42669e-07
8.12376e-06
2.20934e-07
1.33366e-05
3.27376e-07
1.43659e-05
3.85616e-07
1.41425e-05
4.98369e-07
1.432e-05
5.92451e-07
1.27572e-05
1.20927e-07
8.1511e-06
1.90819e-07
1.32848e-05
2.7181e-07
1.42034e-05
3.17518e-07
1.3864e-05
3.53369e-07
1.38022e-05
3.7844e-07
1.38833e-05
3.78299e-07
1.40694e-05
5.00323e-07
1.37544e-05
7.25784e-07
1.06441e-05
2.76314e-07
7.14295e-06
2.84618e-07
1.28276e-05
3.04918e-07
1.43089e-05
3.31323e-07
1.38111e-05
3.80737e-07
9.47305e-06
2.36114e-07
7.33941e-06
2.4476e-07
9.02912e-06
2.68343e-07
9.40531e-06
2.84141e-07
8.94837e-06
3.01382e-07
8.47961e-06
3.34147e-07
8.10906e-06
4.19313e-07
7.55591e-06
4.99222e-07
6.25136e-06
3.0706e-07
4.5749e-06
1.54052e-07
4.60329e-06
2.10774e-07
5.47043e-06
2.76822e-07
5.60063e-06
3.19246e-07
5.26629e-06
3.49246e-07
4.84168e-06
3.71841e-07
4.45362e-06
3.88267e-07
4.12623e-06
3.99662e-07
3.85545e-06
4.07286e-07
3.6306e-06
4.1234e-07
3.44023e-06
4.15761e-07
3.27444e-06
4.18177e-07
3.12573e-06
4.19968e-07
2.98892e-06
4.21351e-07
2.86065e-06
4.22446e-07
2.73886e-06
4.23323e-07
2.62232e-06
4.24021e-07
2.51037e-06
4.24563e-07
2.40271e-06
4.24947e-07
2.29929e-06
2.19977e-06
3.43864e-07
2.19819e-06
3.44205e-07
2.29784e-06
3.44688e-07
2.40233e-06
3.45314e-07
2.51083e-06
3.46093e-07
2.62352e-06
3.47035e-07
2.7405e-06
3.48154e-07
2.8618e-06
3.49465e-07
2.9874e-06
3.50981e-07
3.11721e-06
3.5272e-07
3.25114e-06
3.54699e-07
3.38903e-06
3.56935e-07
3.53067e-06
3.59447e-07
3.67573e-06
3.62248e-07
3.82381e-06
3.65346e-07
3.97434e-06
3.68737e-07
4.12656e-06
3.7239e-07
4.27947e-06
3.76228e-07
4.43175e-06
3.80083e-07
4.58165e-06
3.83622e-07
4.72692e-06
3.86201e-07
4.86485e-06
3.8668e-07
4.99284e-06
3.83478e-07
5.11129e-06
3.76004e-07
5.23229e-06
3.69673e-07
5.39854e-06
3.84355e-07
5.70683e-06
4.54636e-07
6.30243e-06
6.05675e-07
7.29767e-06
8.28545e-07
8.66966e-06
1.11414e-06
9.89329e-06
8.41862e-07
7.68793e-06
4.3568e-07
5.83052e-06
7.59951e-07
1.29288e-05
9.26089e-07
1.50738e-05
1.01914e-06
1.48415e-05
4.61428e-07
7.59357e-06
6.82916e-08
6.94592e-06
2.46138e-07
1.51075e-05
3.27976e-07
1.56495e-05
3.43358e-07
1.28187e-05
9.21496e-09
6.02156e-06
1.34494e-07
9.08369e-06
2.05403e-07
1.46329e-05
2.74548e-07
1.48538e-05
4.19932e-07
1.23228e-05
2.22081e-07
8.6131e-06
2.66064e-07
1.31164e-05
3.36761e-07
1.42995e-05
3.79565e-07
1.42118e-05
4.8577e-07
1.43265e-05
5.86348e-07
1.27985e-05
1.62209e-07
8.54789e-06
2.32367e-07
1.32665e-05
3.31568e-07
1.42667e-05
3.85334e-07
1.40888e-05
4.90535e-07
1.42148e-05
5.6781e-07
1.26799e-05
1.47399e-07
8.57151e-06
2.11502e-07
1.32207e-05
2.85467e-07
1.41294e-05
3.24235e-07
1.38252e-05
3.52655e-07
1.37738e-05
3.67996e-07
1.38679e-05
3.63051e-07
1.40743e-05
4.78322e-07
1.36392e-05
7.03902e-07
1.04185e-05
3.27961e-07
7.51889e-06
3.12848e-07
1.28428e-05
3.20772e-07
1.4301e-05
3.43696e-07
1.37882e-05
3.77364e-07
9.43938e-06
2.24525e-07
7.49225e-06
2.19322e-07
9.03432e-06
2.40209e-07
9.38443e-06
2.54141e-07
8.93444e-06
2.681e-07
8.46565e-06
3.01164e-07
8.07599e-06
3.88693e-07
7.46838e-06
4.62369e-07
6.17768e-06
3.17891e-07
4.71937e-06
2.0178e-07
4.71941e-06
2.52836e-07
5.41937e-06
3.16615e-07
5.53685e-06
3.57284e-07
5.22562e-06
3.84273e-07
4.81469e-06
4.0339e-07
4.4345e-06
4.16762e-07
4.11286e-06
4.25649e-07
3.84657e-06
4.31321e-07
3.62493e-06
4.34888e-07
3.43666e-06
4.37177e-07
3.27215e-06
4.38727e-07
3.12418e-06
4.39856e-07
2.98779e-06
4.40737e-07
2.85977e-06
4.4146e-07
2.73813e-06
4.42072e-07
2.62171e-06
4.42594e-07
2.50985e-06
4.43033e-07
2.40227e-06
4.43367e-07
2.29896e-06
2.19958e-06
3.32465e-07
2.19799e-06
3.32818e-07
2.29748e-06
3.33307e-07
2.40184e-06
3.33928e-07
2.51021e-06
3.34682e-07
2.62277e-06
3.35575e-07
2.73961e-06
3.36617e-07
2.86076e-06
3.37815e-07
2.9862e-06
3.39179e-07
3.11585e-06
3.40718e-07
3.2496e-06
3.4244e-07
3.38731e-06
3.4435e-07
3.52876e-06
3.46452e-07
3.67363e-06
3.4874e-07
3.82153e-06
3.51201e-07
3.97188e-06
3.53799e-07
4.12396e-06
3.56472e-07
4.2768e-06
3.59101e-07
4.42912e-06
3.61477e-07
4.57927e-06
3.6323e-07
4.72517e-06
3.63715e-07
4.86436e-06
3.61876e-07
4.99468e-06
3.5634e-07
5.11682e-06
3.46617e-07
5.24201e-06
3.3717e-07
5.40799e-06
3.44296e-07
5.6997e-06
3.97378e-07
6.24935e-06
5.20933e-07
7.17411e-06
7.19176e-07
8.47142e-06
1.00638e-06
9.60608e-06
8.24907e-07
7.86941e-06
4.77108e-07
6.17832e-06
7.79605e-07
1.26263e-05
9.4254e-07
1.49109e-05
1.01903e-06
1.47651e-05
5.08384e-07
8.10421e-06
1.56216e-07
7.29809e-06
3.33205e-07
1.49305e-05
4.0843e-07
1.55743e-05
3.97167e-07
1.283e-05
6.26145e-08
6.35611e-06
1.16211e-07
9.0301e-06
1.83414e-07
1.45657e-05
2.69221e-07
1.4768e-05
4.11111e-07
1.21809e-05
2.06811e-07
8.8174e-06
2.40591e-07
1.30826e-05
3.12038e-07
1.4228e-05
3.5877e-07
1.41651e-05
4.61594e-07
1.42237e-05
5.5308e-07
1.2707e-05
1.80295e-07
8.92068e-06
2.44659e-07
1.32021e-05
3.36779e-07
1.41745e-05
3.8582e-07
1.40397e-05
4.83515e-07
1.41172e-05
5.46394e-07
1.2617e-05
1.7456e-07
8.94335e-06
2.34782e-07
1.31605e-05
3.02099e-07
1.40621e-05
3.33671e-07
1.37936e-05
3.54489e-07
1.3753e-05
3.59508e-07
1.38629e-05
3.51854e-07
1.4082e-05
4.61261e-07
1.35298e-05
6.80922e-07
1.01989e-05
3.62278e-07
7.83754e-06
3.28153e-07
1.28769e-05
3.27661e-07
1.43015e-05
3.50467e-07
1.37654e-05
3.7098e-07
9.41887e-06
2.14154e-07
7.64908e-06
1.97352e-07
9.05113e-06
2.15119e-07
9.36666e-06
2.268e-07
8.92276e-06
2.38206e-07
8.45424e-06
2.72129e-07
8.04207e-06
3.59862e-07
7.38064e-06
4.298e-07
6.10774e-06
3.22959e-07
4.82621e-06
2.38786e-07
4.80358e-06
2.88225e-07
5.36993e-06
3.5169e-07
5.47338e-06
3.92357e-07
5.18495e-06
4.17633e-07
4.78942e-06
4.34298e-07
4.41784e-06
4.45247e-07
4.10191e-06
4.52124e-07
3.83969e-06
4.56204e-07
3.62085e-06
4.58535e-07
3.43433e-06
4.59867e-07
3.27082e-06
4.60674e-07
3.12337e-06
4.61228e-07
2.98724e-06
4.61669e-07
2.85933e-06
4.62064e-07
2.73774e-06
4.62441e-07
2.62133e-06
4.62807e-07
2.50948e-06
4.6315e-07
2.40193e-06
4.63438e-07
2.29867e-06
2.1994e-06
3.19374e-07
2.19778e-06
3.19744e-07
2.29711e-06
3.20238e-07
2.40135e-06
3.20844e-07
2.5096e-06
3.21561e-07
2.62205e-06
3.22387e-07
2.73878e-06
3.23325e-07
2.85982e-06
3.2438e-07
2.98514e-06
3.25554e-07
3.11467e-06
3.26846e-07
3.24831e-06
3.28254e-07
3.38591e-06
3.29771e-07
3.52724e-06
3.31384e-07
3.67202e-06
3.3307e-07
3.81984e-06
3.34787e-07
3.97016e-06
3.36475e-07
4.12228e-06
3.38032e-07
4.27524e-06
3.393e-07
4.42785e-06
3.40024e-07
4.57854e-06
3.39798e-07
4.7254e-06
3.37962e-07
4.8662e-06
3.33511e-07
4.99913e-06
3.25199e-07
5.12514e-06
3.12561e-07
5.25464e-06
2.99198e-07
5.42135e-06
2.98408e-07
5.70049e-06
3.35428e-07
6.21233e-06
4.35206e-07
7.07433e-06
6.16393e-07
8.29023e-06
9.09483e-07
9.31299e-06
8.01921e-07
7.97697e-06
5.05368e-07
6.47488e-06
7.85213e-07
1.23465e-05
9.46739e-07
1.47494e-05
1.01684e-06
1.4695e-05
5.57255e-07
8.5638e-06
2.38932e-07
7.61641e-06
4.22173e-07
1.47472e-05
4.89429e-07
1.5507e-05
4.50796e-07
1.28686e-05
1.11311e-07
6.69559e-06
9.66775e-08
9.04473e-06
1.60912e-07
1.45015e-05
2.61935e-07
1.4667e-05
3.97532e-07
1.20453e-05
1.93223e-07
9.02171e-06
2.18994e-07
1.30568e-05
2.89837e-07
1.41572e-05
3.40608e-07
1.41143e-05
4.37677e-07
1.41266e-05
5.22048e-07
1.26226e-05
1.97799e-07
9.24493e-06
2.57973e-07
1.31419e-05
3.42665e-07
1.40899e-05
3.86424e-07
1.3996e-05
4.7636e-07
1.40272e-05
5.27841e-07
1.25655e-05
2.02423e-07
9.26877e-06
2.60063e-07
1.31029e-05
3.21048e-07
1.40011e-05
3.45468e-07
1.37692e-05
3.59666e-07
1.37388e-05
3.56049e-07
1.38665e-05
3.4405e-07
1.4094e-05
4.47819e-07
1.3426e-05
6.52443e-07
9.99426e-06
3.76863e-07
8.11312e-06
3.30997e-07
1.29227e-05
3.25839e-07
1.43066e-05
3.51329e-07
1.37399e-05
3.60806e-07
9.40939e-06
2.04664e-07
7.80522e-06
1.79333e-07
9.07646e-06
1.93942e-07
9.35205e-06
2.03527e-07
8.91317e-06
2.13471e-07
8.4443e-06
2.49202e-07
8.00634e-06
3.36768e-07
7.29308e-06
4.01916e-07
6.0426e-06
3.24681e-07
4.90345e-06
2.68396e-07
4.85986e-06
3.19149e-07
5.31917e-06
3.83194e-07
5.40934e-06
4.24644e-07
5.1435e-06
4.49089e-07
4.76497e-06
4.64013e-07
4.40291e-06
4.73147e-07
4.09278e-06
4.78444e-07
3.83439e-06
4.81261e-07
3.61803e-06
4.82606e-07
3.43298e-06
4.8317e-07
3.27025e-06
4.8338e-07
3.12316e-06
4.8347e-07
2.98715e-06
4.83555e-07
2.85924e-06
4.83685e-07
2.73761e-06
4.83873e-07
2.62115e-06
4.84113e-07
2.50924e-06
4.84381e-07
2.40166e-06
4.84631e-07
2.29842e-06
2.19924e-06
3.04752e-07
2.19753e-06
3.05148e-07
2.29672e-06
3.05649e-07
2.40085e-06
3.06236e-07
2.50902e-06
3.06902e-07
2.62138e-06
3.07645e-07
2.73804e-06
3.08461e-07
2.85901e-06
3.09349e-07
2.98425e-06
3.10302e-07
3.11372e-06
3.11313e-07
3.2473e-06
3.12367e-07
3.38485e-06
3.13444e-07
3.52616e-06
3.14515e-07
3.67095e-06
3.15534e-07
3.81882e-06
3.16439e-07
3.96926e-06
3.17135e-07
4.12158e-06
3.17488e-07
4.27489e-06
3.17297e-07
4.42804e-06
3.16262e-07
4.57958e-06
3.13931e-07
4.72773e-06
3.09622e-07
4.87051e-06
3.02351e-07
5.0064e-06
2.90936e-07
5.13655e-06
2.74903e-07
5.27068e-06
2.57173e-07
5.43908e-06
2.48925e-07
5.70874e-06
2.72638e-07
6.18862e-06
3.5423e-07
6.99274e-06
5.2575e-07
8.11871e-06
8.27294e-07
9.01144e-06
7.82688e-07
8.02158e-06
5.27131e-07
6.73043e-06
7.80756e-07
1.20928e-05
9.4013e-07
1.459e-05
1.00986e-06
1.46252e-05
6.03407e-07
8.97026e-06
3.11445e-07
7.90837e-06
4.95762e-07
1.45629e-05
5.6047e-07
1.54423e-05
5.02433e-07
1.29266e-05
1.55832e-07
7.04219e-06
8.15043e-08
9.11906e-06
1.42497e-07
1.44405e-05
2.55344e-07
1.45541e-05
3.79668e-07
1.1921e-05
1.81552e-07
9.21982e-06
2.01868e-07
1.30365e-05
2.7068e-07
1.40884e-05
3.22121e-07
1.40629e-05
4.14647e-07
1.40341e-05
4.93574e-07
1.25437e-05
2.15248e-07
9.52325e-06
2.72299e-07
1.30849e-05
3.49074e-07
1.40131e-05
3.8789e-07
1.39572e-05
4.69023e-07
1.39461e-05
5.12118e-07
1.25224e-05
2.30801e-07
9.55008e-06
2.86624e-07
1.3047e-05
3.42035e-07
1.39457e-05
3.59097e-07
1.37522e-05
3.68804e-07
1.37291e-05
3.57859e-07
1.38775e-05
3.42753e-07
1.41091e-05
4.38785e-07
1.333e-05
6.18373e-07
9.81467e-06
3.7313e-07
8.35836e-06
3.23375e-07
1.29725e-05
3.1715e-07
1.43129e-05
3.46898e-07
1.37102e-05
3.47993e-07
9.4083e-06
1.96177e-07
7.95704e-06
1.65622e-07
9.10701e-06
1.7743e-07
9.34025e-06
1.85397e-07
8.90521e-06
1.95183e-07
8.43451e-06
2.33694e-07
7.96783e-06
3.20155e-07
7.20662e-06
3.7976e-07
5.98299e-06
3.26611e-07
4.9566e-06
2.94007e-07
4.89247e-06
3.4754e-07
5.26564e-06
4.12461e-07
5.34442e-06
4.54919e-07
5.10104e-06
4.78963e-07
4.74093e-06
4.92602e-07
4.38928e-06
5.00291e-07
4.08509e-06
5.04322e-07
3.83036e-06
5.06129e-07
3.61623e-06
5.06692e-07
3.43242e-06
5.06653e-07
3.27029e-06
5.06397e-07
3.12342e-06
5.06127e-07
2.98742e-06
5.05941e-07
2.85943e-06
5.05871e-07
2.73768e-06
5.05918e-07
2.6211e-06
5.06066e-07
2.5091e-06
5.0628e-07
2.40144e-06
5.06505e-07
2.29819e-06
2.19909e-06
2.8879e-07
2.19725e-06
2.89221e-07
2.29629e-06
2.89733e-07
2.40034e-06
2.90297e-07
2.50845e-06
2.90904e-07
2.62078e-06
2.9155e-07
2.7374e-06
2.9223e-07
2.85833e-06
2.92934e-07
2.98355e-06
2.93649e-07
3.113e-06
2.94357e-07
3.24659e-06
2.95033e-07
3.38417e-06
2.95643e-07
3.52555e-06
2.9614e-07
3.67045e-06
2.9646e-07
3.8185e-06
2.96515e-07
3.96921e-06
2.96181e-07
4.12191e-06
2.95288e-07
4.27578e-06
2.93592e-07
4.42974e-06
2.90748e-07
4.58242e-06
2.86258e-07
4.73222e-06
2.79403e-07
4.87736e-06
2.69196e-07
5.01661e-06
2.54493e-07
5.15125e-06
2.34797e-07
5.29037e-06
2.12536e-07
5.46134e-06
1.97342e-07
5.72393e-06
2.09789e-07
6.17617e-06
2.79214e-07
6.92332e-06
4.48793e-07
7.94913e-06
7.61715e-07
8.69852e-06
7.72653e-07
8.01064e-06
5.48296e-07
6.95479e-06
7.7057e-07
1.18706e-05
9.24685e-07
1.44359e-05
9.9577e-07
1.45541e-05
6.41479e-07
9.32455e-06
3.73276e-07
8.17658e-06
5.49225e-07
1.4387e-05