/*--------------------------------*- C++ -*----------------------------------*\
  =========                 |
  \\      /  F ield         | OpenFOAM: The Open Source CFD Toolbox
   \\    /   O peration     | Website:  https://openfoam.org
    \\  /    A nd           | Version:  9
     \\/     M anipulation  |
\*---------------------------------------------------------------------------*/
FoamFile
{
    format      ascii;
    class       volScalarField;
    location    "0.07";
    object      rAU;
}
// * * * * * * * * * * * * * * * * * * * * * * * * * * * * * * * * * * * * * //

dimensions      [-1 3 1 0 0 0 0];

internalField   nonuniform List<scalar> 
20000
(
1.25482e-05
1.45524e-05
1.47223e-05
1.48837e-05
1.50369e-05
1.51827e-05
1.53218e-05
1.54549e-05
1.55829e-05
1.57065e-05
1.58266e-05
1.5944e-05
1.60595e-05
1.61741e-05
1.62887e-05
1.64045e-05
1.6523e-05
1.6646e-05
1.67758e-05
1.69163e-05
1.7074e-05
1.72602e-05
1.74901e-05
1.77522e-05
1.78917e-05
1.75491e-05
1.66457e-05
1.55845e-05
1.46038e-05
1.38764e-05
2.49828e-05
2.48207e-05
1.35287e-05
1.34581e-05
1.33731e-05
2.36469e-05
2.38582e-05
1.33589e-05
1.35162e-05
1.46084e-05
2.49348e-05
1.59046e-05
1.40795e-05
1.41998e-05
1.49772e-05
1.86484e-05
1.48234e-05
1.43917e-05
1.44385e-05
1.41942e-05
1.46865e-05
2.21232e-05
1.45524e-05
1.41969e-05
1.44082e-05
1.41914e-05
1.47635e-05
2.19686e-05
1.46259e-05
1.43415e-05
1.45938e-05
1.46551e-05
1.46357e-05
1.45509e-05
1.43551e-05
1.53625e-05
2.49017e-05
1.4841e-05
1.43665e-05
1.46639e-05
1.55093e-05
1.78308e-05
1.52996e-05
1.48338e-05
1.48381e-05
1.47757e-05
1.46029e-05
1.43565e-05
1.46681e-05
2.36214e-05
2.12138e-05
1.47239e-05
1.45277e-05
1.48033e-05
1.50849e-05
1.53234e-05
1.55061e-05
1.56247e-05
1.56781e-05
1.56735e-05
1.56231e-05
1.55396e-05
1.54332e-05
1.53107e-05
1.51764e-05
1.50323e-05
1.48796e-05
1.47183e-05
1.45477e-05
1.52506e-05
1.54746e-05
1.86263e-05
1.88893e-05
1.91377e-05
1.9372e-05
1.95929e-05
1.98012e-05
1.99978e-05
2.01835e-05
2.03593e-05
2.0526e-05
2.06844e-05
2.08356e-05
2.09804e-05
2.11199e-05
2.1255e-05
2.13869e-05
2.1517e-05
2.1647e-05
2.17796e-05
2.19187e-05
2.20712e-05
2.22454e-05
2.24339e-05
2.25524e-05
2.23997e-05
2.18728e-05
2.1156e-05
2.04363e-05
1.99175e-05
2.5608e-05
2.60505e-05
1.99498e-05
1.97401e-05
1.96511e-05
2.53892e-05
2.55758e-05
1.9762e-05
1.98249e-05
2.06897e-05
2.58471e-05
2.17323e-05
2.02388e-05
2.02931e-05
2.08967e-05
2.32212e-05
2.07558e-05
2.04018e-05
2.04439e-05
2.02496e-05
2.06477e-05
2.47907e-05
2.06486e-05
2.03017e-05
2.04459e-05
2.0261e-05
2.07127e-05
2.47314e-05
2.07041e-05
2.04166e-05
2.05912e-05
2.06225e-05
2.05988e-05
2.05305e-05
2.03808e-05
2.11776e-05
2.57131e-05
2.09206e-05
2.0462e-05
2.06515e-05
2.12224e-05
2.26386e-05
2.10061e-05
2.06154e-05
2.05943e-05
2.05203e-05
2.03557e-05
2.01346e-05
2.03715e-05
2.44986e-05
2.37634e-05
2.05832e-05
2.03882e-05
2.0456e-05
2.05406e-05
2.06024e-05
2.06281e-05
2.06116e-05
2.05524e-05
2.04544e-05
2.03244e-05
2.0169e-05
1.99934e-05
1.98011e-05
1.95939e-05
1.93727e-05
1.91377e-05
1.88885e-05
1.86245e-05
1.98109e-05
1.54755e-05
1.86272e-05
1.88901e-05
1.91385e-05
1.93727e-05
1.95935e-05
1.98017e-05
1.99981e-05
2.01836e-05
2.03591e-05
2.05255e-05
2.06837e-05
2.08345e-05
2.0979e-05
2.1118e-05
2.12527e-05
2.13843e-05
2.1514e-05
2.16438e-05
2.1776e-05
2.19146e-05
2.20656e-05
2.22352e-05
2.24145e-05
2.25286e-05
2.23992e-05
2.19109e-05
2.12054e-05
2.04899e-05
1.99978e-05
2.49879e-05
2.57543e-05
2.01109e-05
1.97969e-05
1.97431e-05
2.50709e-05
2.52173e-05
1.98605e-05
1.98999e-05
2.0814e-05
2.54738e-05
2.18915e-05
2.02787e-05
2.03044e-05
2.09439e-05
2.32002e-05
2.07873e-05
2.04032e-05
2.04507e-05
2.0258e-05
2.06901e-05
2.44856e-05
2.0724e-05
2.03379e-05
2.047e-05
2.0281e-05
2.07619e-05
2.44408e-05
2.07781e-05
2.04531e-05
2.06156e-05
2.06381e-05
2.06089e-05
2.05434e-05
2.04137e-05
2.12817e-05
2.52019e-05
2.10015e-05
2.05002e-05
2.06751e-05
2.12722e-05
2.26165e-05
2.10439e-05
2.0627e-05
2.06052e-05
2.05402e-05
2.03918e-05
2.0209e-05
2.05344e-05
2.38469e-05
2.3333e-05
2.07215e-05
2.04918e-05
2.05585e-05
2.06245e-05
2.06691e-05
2.06791e-05
2.06491e-05
2.05792e-05
2.04731e-05
2.03374e-05
2.01779e-05
1.99995e-05
1.9805e-05
1.95962e-05
1.93738e-05
1.91378e-05
1.88878e-05
1.86232e-05
1.98089e-05
1.5478e-05
1.86295e-05
1.88925e-05
1.91408e-05
1.9375e-05
1.95958e-05
1.98039e-05
2.00002e-05
2.01856e-05
2.03609e-05
2.05272e-05
2.06852e-05
2.08359e-05
2.09802e-05
2.11191e-05
2.12537e-05
2.13852e-05
2.15149e-05
2.16447e-05
2.1777e-05
2.19152e-05
2.20645e-05
2.22295e-05
2.24002e-05
2.2511e-05
2.24092e-05
2.19739e-05
2.12992e-05
2.05897e-05
2.01164e-05
2.44281e-05
2.54493e-05
2.02855e-05
1.98539e-05
1.98447e-05
2.47384e-05
2.48684e-05
1.99533e-05
1.99568e-05
2.0923e-05
2.51555e-05
2.20567e-05
2.03149e-05
2.0312e-05
2.09935e-05
2.31648e-05
2.0824e-05
2.04141e-05
2.04651e-05
2.02827e-05
2.0743e-05
2.41564e-05
2.07869e-05
2.03787e-05
2.04974e-05
2.03158e-05
2.08195e-05
2.41256e-05
2.08379e-05
2.04905e-05
2.06407e-05
2.06568e-05
2.06241e-05
2.05625e-05
2.04643e-05
2.13923e-05
2.47416e-05
2.10667e-05
2.05273e-05
2.06933e-05
2.13203e-05
2.2582e-05
2.10845e-05
2.06474e-05
2.06262e-05
2.05753e-05
2.0448e-05
2.03067e-05
2.07164e-05
2.33294e-05
2.29756e-05
2.09033e-05
2.05894e-05
2.06107e-05
2.06699e-05
2.07082e-05
2.07106e-05
2.06725e-05
2.05956e-05
2.04841e-05
2.03443e-05
2.0182e-05
2.00014e-05
1.98053e-05
1.95952e-05
1.93717e-05
1.91348e-05
1.88841e-05
1.86188e-05
1.98032e-05
1.54828e-05
1.86337e-05
1.88967e-05
1.9145e-05
1.93792e-05
1.95999e-05
1.9808e-05
2.00043e-05
2.01896e-05
2.03649e-05
2.05311e-05
2.0689e-05
2.08397e-05
2.0984e-05
2.1123e-05
2.12577e-05
2.13893e-05
2.15193e-05
2.16493e-05
2.17817e-05
2.19198e-05
2.20678e-05
2.22287e-05
2.23923e-05
2.25019e-05
2.24279e-05
2.20502e-05
2.14201e-05
2.07238e-05
2.02595e-05
2.39499e-05
2.51188e-05
2.04399e-05
1.99072e-05
1.99368e-05
2.44034e-05
2.45509e-05
2.00434e-05
2.00065e-05
2.10024e-05
2.48845e-05
2.22175e-05
2.03496e-05
2.03188e-05
2.10446e-05
2.31163e-05
2.08616e-05
2.04334e-05
2.04842e-05
2.03187e-05
2.08017e-05
2.38383e-05
2.08364e-05
2.04214e-05
2.05252e-05
2.03592e-05
2.08798e-05
2.38189e-05
2.08831e-05
2.05267e-05
2.06644e-05
2.06764e-05
2.06415e-05
2.05821e-05
2.05236e-05
2.15032e-05
2.43232e-05
2.10926e-05
2.05454e-05
2.07058e-05
2.13629e-05
2.25362e-05
2.11246e-05
2.06743e-05
2.06526e-05
2.06141e-05
2.05044e-05
2.04053e-05
2.08731e-05
2.29425e-05
2.27034e-05
2.10363e-05
2.06436e-05
2.06359e-05
2.06911e-05
2.07265e-05
2.07247e-05
2.06821e-05
2.06008e-05
2.04858e-05
2.03435e-05
2.01794e-05
1.99974e-05
1.98002e-05
1.95893e-05
1.9365e-05
1.91274e-05
1.8876e-05
1.86102e-05
1.97925e-05
1.54901e-05
1.864e-05
1.8903e-05
1.91513e-05
1.93855e-05
1.96062e-05
1.98142e-05
2.00105e-05
2.01958e-05
2.03711e-05
2.05373e-05
2.06953e-05
2.0846e-05
2.09905e-05
2.11296e-05
2.12645e-05
2.13965e-05
2.15268e-05
2.16573e-05
2.17901e-05
2.19282e-05
2.2075e-05
2.22326e-05
2.23906e-05
2.25004e-05
2.24522e-05
2.21313e-05
2.15539e-05
2.08799e-05
2.0418e-05
2.35735e-05
2.47739e-05
2.05605e-05
1.99562e-05
2.00119e-05
2.40759e-05
2.42722e-05
2.01302e-05
2.00528e-05
2.10573e-05
2.46562e-05
2.23649e-05
2.03819e-05
2.03274e-05
2.10969e-05
2.30562e-05
2.0898e-05
2.04583e-05
2.05054e-05
2.03608e-05
2.08613e-05
2.35488e-05
2.08747e-05
2.04633e-05
2.05515e-05
2.04057e-05
2.09373e-05
2.35376e-05
2.09163e-05
2.05599e-05
2.06858e-05
2.06952e-05
2.06586e-05
2.05986e-05
2.05848e-05
2.16104e-05
2.39734e-05
2.11001e-05
2.05555e-05
2.07139e-05
2.13983e-05
2.24792e-05
2.11599e-05
2.07035e-05
2.06787e-05
2.0649e-05
2.05528e-05
2.04946e-05
2.09965e-05
2.26509e-05
2.24784e-05
2.11045e-05
2.06678e-05
2.06477e-05
2.06992e-05
2.07325e-05
2.07278e-05
2.06817e-05
2.05973e-05
2.04799e-05
2.03359e-05
2.01706e-05
1.99877e-05
1.97899e-05
1.95783e-05
1.93534e-05
1.91152e-05
1.88633e-05
1.85968e-05
1.97763e-05
1.55002e-05
1.86486e-05
1.89116e-05
1.91599e-05
1.9394e-05
1.96147e-05
1.98228e-05
2.0019e-05
2.02043e-05
2.03797e-05
2.05459e-05
2.0704e-05
2.08549e-05
2.09995e-05
2.11388e-05
2.12741e-05
2.14065e-05
2.15373e-05
2.16683e-05
2.18016e-05
2.19397e-05
2.20857e-05
2.22405e-05
2.23943e-05
2.25053e-05
2.24802e-05
2.22118e-05
2.16905e-05
2.10455e-05
2.05864e-05
2.32974e-05
2.44616e-05
2.06707e-05
2.00016e-05
2.00692e-05
2.37627e-05
2.40324e-05
2.01984e-05
2.00771e-05
2.10893e-05
2.44613e-05
2.2493e-05
2.04126e-05
2.03404e-05
2.11506e-05
2.29862e-05
2.0933e-05
2.04881e-05
2.05273e-05
2.04053e-05
2.09183e-05
2.32923e-05
2.09053e-05
2.05026e-05
2.05755e-05
2.04513e-05
2.09886e-05
2.32859e-05
2.09413e-05
2.0589e-05
2.07042e-05
2.07118e-05
2.06737e-05
2.06109e-05
2.06433e-05
2.17132e-05
2.36851e-05
2.1095e-05
2.05589e-05
2.07194e-05
2.14273e-05
2.24126e-05
2.11874e-05
2.07326e-05
2.07058e-05
2.06828e-05
2.05974e-05
2.05763e-05
2.10956e-05
2.24303e-05
2.22599e-05
2.11119e-05
2.06854e-05
2.06521e-05
2.06992e-05
2.07304e-05
2.0723e-05
2.06742e-05
2.05872e-05
2.0468e-05
2.03228e-05
2.01565e-05
1.99731e-05
1.97747e-05
1.95626e-05
1.93373e-05
1.90986e-05
1.88461e-05
1.85791e-05
1.97549e-05
1.55133e-05
1.86597e-05
1.89226e-05
1.91709e-05
1.9405e-05
1.96256e-05
1.98336e-05
2.00298e-05
2.02152e-05
2.03905e-05
2.05568e-05
2.0715e-05
2.08661e-05
2.10109e-05
2.11505e-05
2.12862e-05
2.1419e-05
2.15503e-05
2.16819e-05
2.18156e-05
2.19538e-05
2.20991e-05
2.22517e-05
2.24023e-05
2.25152e-05
2.25104e-05
2.22888e-05
2.18231e-05
2.12115e-05
2.07606e-05
2.31094e-05
2.41953e-05
2.07736e-05
2.00455e-05
2.01113e-05
2.34673e-05
2.38259e-05
2.02605e-05
2.00877e-05
2.1099e-05
2.42872e-05
2.25972e-05
2.04433e-05
2.03599e-05
2.1206e-05
2.29087e-05
2.09647e-05
2.05219e-05
2.05503e-05
2.04514e-05
2.09717e-05
2.30675e-05
2.09309e-05
2.05389e-05
2.05971e-05
2.04942e-05
2.10324e-05
2.30627e-05
2.0961e-05
2.0614e-05
2.0719e-05
2.07254e-05
2.06858e-05
2.06184e-05
2.06978e-05
2.18134e-05
2.34489e-05
2.10822e-05
2.05582e-05
2.07238e-05
2.14499e-05
2.23389e-05
2.12063e-05
2.07603e-05
2.07314e-05
2.0712e-05
2.06371e-05
2.06517e-05
2.11792e-05
2.22654e-05
2.20921e-05
2.1118e-05
2.0702e-05
2.06536e-05
2.06942e-05
2.07223e-05
2.07123e-05
2.0661e-05
2.05719e-05
2.04513e-05
2.0305e-05
2.01382e-05
1.99543e-05
1.97555e-05
1.95431e-05
1.93173e-05
1.90782e-05
1.88252e-05
1.85576e-05
1.97291e-05
1.55295e-05
1.86734e-05
1.89362e-05
1.91843e-05
1.94183e-05
1.96389e-05
1.98468e-05
2.00429e-05
2.02282e-05
2.04036e-05
2.057e-05
2.07282e-05
2.08794e-05
2.10244e-05
2.11644e-05
2.13004e-05
2.14336e-05
2.15654e-05
2.16974e-05
2.18315e-05
2.19699e-05
2.21145e-05
2.22653e-05
2.24137e-05
2.25286e-05
2.25412e-05
2.23605e-05
2.1947e-05
2.13717e-05
2.0938e-05
2.29885e-05
2.398e-05
2.08794e-05
2.00915e-05
2.01431e-05
2.31938e-05
2.36087e-05
2.02936e-05
2.00891e-05
2.10875e-05
2.41154e-05
2.26664e-05
2.04749e-05
2.03868e-05
2.12628e-05
2.28264e-05
2.0992e-05
2.05575e-05
2.05747e-05
2.04979e-05
2.1021e-05
2.28718e-05
2.09531e-05
2.05723e-05
2.06165e-05
2.05343e-05
2.10689e-05
2.2866e-05
2.09772e-05
2.06351e-05
2.07301e-05
2.07355e-05
2.06945e-05
2.06218e-05
2.07481e-05
2.19126e-05
2.32558e-05
2.10656e-05
2.05559e-05
2.07288e-05
2.14669e-05
2.22611e-05
2.12167e-05
2.07854e-05
2.07549e-05
2.07385e-05
2.06765e-05
2.07257e-05
2.12536e-05
2.21448e-05
2.19658e-05
2.11263e-05
2.07208e-05
2.06558e-05
2.06873e-05
2.0711e-05
2.06978e-05
2.06439e-05
2.05529e-05
2.04309e-05
2.02838e-05
2.01165e-05
1.99323e-05
1.97332e-05
1.95204e-05
1.92943e-05
1.90547e-05
1.88013e-05
1.85332e-05
1.96999e-05
1.55487e-05
1.86895e-05
1.89522e-05
1.92001e-05
1.9434e-05
1.96543e-05
1.98621e-05
2.00581e-05
2.02434e-05
2.04187e-05
2.0585e-05
2.07434e-05
2.08946e-05
2.10398e-05
2.118e-05
2.13163e-05
2.14498e-05
2.15821e-05
2.17145e-05
2.18489e-05
2.19873e-05
2.21313e-05
2.22807e-05
2.24274e-05
2.2544e-05
2.2571e-05
2.24253e-05
2.20594e-05
2.15228e-05
2.11171e-05
2.29152e-05
2.37999e-05
2.09846e-05
2.01412e-05
2.01697e-05
2.29454e-05
2.34103e-05
2.03245e-05
2.00898e-05
2.10618e-05
2.39279e-05
2.26904e-05
2.05068e-05
2.04206e-05
2.13204e-05
2.27419e-05
2.10147e-05
2.05918e-05
2.05991e-05
2.05433e-05
2.10666e-05
2.27025e-05
2.09728e-05
2.0603e-05
2.06338e-05
2.05717e-05
2.10992e-05
2.26936e-05
2.0991e-05
2.06529e-05
2.07377e-05
2.07421e-05
2.06989e-05
2.06228e-05
2.07945e-05
2.20106e-05
2.30985e-05
2.10475e-05
2.0554e-05
2.0736e-05
2.14793e-05
2.21818e-05
2.12196e-05
2.08074e-05
2.07756e-05
2.07616e-05
2.07139e-05
2.0799e-05
2.13231e-05
2.20591e-05
2.18741e-05
2.11388e-05
2.07432e-05
2.06603e-05
2.06804e-05
2.06981e-05
2.06812e-05
2.06245e-05
2.05315e-05
2.04082e-05
2.02604e-05
2.00925e-05
1.9908e-05
1.97086e-05
1.94955e-05
1.92691e-05
1.90291e-05
1.87753e-05
1.85066e-05
1.96683e-05
1.55707e-05
1.87079e-05
1.89704e-05
1.92181e-05
1.94517e-05
1.96719e-05
1.98794e-05
2.00753e-05
2.02604e-05
2.04356e-05
2.06019e-05
2.07602e-05
2.09114e-05
2.10567e-05
2.1197e-05
2.13335e-05
2.14673e-05
2.15998e-05
2.17325e-05
2.18671e-05
2.20053e-05
2.21488e-05
2.22968e-05
2.24421e-05
2.25604e-05
2.25995e-05
2.24837e-05
2.21605e-05
2.16643e-05
2.1297e-05
2.28764e-05
2.36506e-05
2.10872e-05
2.01948e-05
2.01953e-05
2.27241e-05
2.32325e-05
2.03567e-05
2.00867e-05
2.10274e-05
2.37433e-05
2.26857e-05
2.05376e-05
2.04602e-05
2.13772e-05
2.2658e-05
2.10329e-05
2.0625e-05
2.0624e-05
2.05866e-05
2.1109e-05
2.25569e-05
2.09906e-05
2.06307e-05
2.06491e-05
2.06065e-05
2.11245e-05
2.25436e-05
2.10031e-05
2.06676e-05
2.07417e-05
2.0745e-05
2.06983e-05
2.06211e-05
2.08375e-05
2.21048e-05
2.29702e-05
2.10305e-05
2.05535e-05
2.07462e-05
2.14883e-05
2.21034e-05
2.12163e-05
2.08256e-05
2.07928e-05
2.07808e-05
2.07484e-05
2.08679e-05
2.13857e-05
2.19989e-05
2.18102e-05
2.11557e-05
2.07687e-05
2.06676e-05
2.06742e-05
2.06847e-05
2.06634e-05
2.06037e-05
2.05087e-05
2.03842e-05
2.02355e-05
2.00672e-05
1.98823e-05
1.96826e-05
1.94692e-05
1.92424e-05
1.90021e-05
1.87478e-05
1.84787e-05
1.96351e-05
1.55953e-05
1.87285e-05
1.89907e-05
1.92381e-05
1.94714e-05
1.96912e-05
1.98985e-05
2.00941e-05
2.0279e-05
2.0454e-05
2.06201e-05
2.07783e-05
2.09295e-05
2.10748e-05
2.12151e-05
2.13516e-05
2.14856e-05
2.16182e-05
2.1751e-05
2.18855e-05
2.20235e-05
2.21662e-05
2.23129e-05
2.24569e-05
2.25764e-05
2.26254e-05
2.25349e-05
2.22497e-05
2.17967e-05
2.1477e-05
2.28633e-05
2.35233e-05
2.1184e-05
2.02514e-05
2.02226e-05
2.25314e-05
2.30734e-05
2.03955e-05
2.00866e-05
2.09876e-05
2.35603e-05
2.26542e-05
2.05657e-05
2.05033e-05
2.1431e-05
2.25768e-05
2.10475e-05
2.06562e-05
2.06489e-05
2.0628e-05
2.11485e-05
2.24329e-05
2.10068e-05
2.06554e-05
2.06622e-05
2.06381e-05
2.11458e-05
2.24142e-05
2.10142e-05
2.06795e-05
2.07424e-05
2.0745e-05
2.06931e-05
2.06157e-05
2.08757e-05
2.21905e-05
2.28638e-05
2.10162e-05
2.05551e-05
2.07597e-05
2.14946e-05
2.20278e-05
2.12083e-05
2.084e-05
2.08064e-05
2.07962e-05
2.07801e-05
2.09321e-05
2.14403e-05
2.19568e-05
2.17675e-05
2.11766e-05
2.07966e-05
2.06772e-05
2.0669e-05
2.06711e-05
2.0645e-05
2.05823e-05
2.04852e-05
2.03594e-05
2.02099e-05
2.00411e-05
1.98558e-05
1.96558e-05
1.94421e-05
1.9215e-05
1.89743e-05
1.87196e-05
1.84499e-05
1.96009e-05
1.56222e-05
1.8751e-05
1.90127e-05
1.92598e-05
1.94927e-05
1.97122e-05
1.99191e-05
2.01144e-05
2.02989e-05
2.04736e-05
2.06395e-05
2.07975e-05
2.09485e-05
2.10936e-05
2.12339e-05
2.13703e-05
2.15042e-05
2.16367e-05
2.17693e-05
2.19036e-05
2.2041e-05
2.21828e-05
2.23281e-05
2.24707e-05
2.25911e-05
2.26482e-05
2.25796e-05
2.23301e-05
2.19235e-05
2.16577e-05
2.28707e-05
2.34107e-05
2.12714e-05
2.03091e-05
2.02526e-05
2.23673e-05
2.29314e-05
2.04384e-05
2.00921e-05
2.09478e-05
2.33808e-05
2.26002e-05
2.05895e-05
2.05473e-05
2.1479e-05
2.24974e-05
2.1059e-05
2.06848e-05
2.06724e-05
2.06668e-05
2.11849e-05
2.23283e-05
2.1022e-05
2.06771e-05
2.06732e-05
2.06662e-05
2.11638e-05
2.23036e-05
2.10248e-05
2.06895e-05
2.07393e-05
2.07428e-05
2.06847e-05
2.06068e-05
2.09075e-05
2.22624e-05
2.27714e-05
2.10036e-05
2.05586e-05
2.07761e-05
2.14988e-05
2.19561e-05
2.11971e-05
2.08507e-05
2.08164e-05
2.08085e-05
2.08096e-05
2.09908e-05
2.14859e-05
2.19262e-05
2.17403e-05
2.12008e-05
2.08266e-05
2.0689e-05
2.06649e-05
2.06577e-05
2.06263e-05
2.05604e-05
2.04614e-05
2.03342e-05
2.0184e-05
2.00146e-05
1.9829e-05
1.96287e-05
1.94147e-05
1.91872e-05
1.89461e-05
1.8691e-05
1.84209e-05
1.95664e-05
1.5651e-05
1.8775e-05
1.90364e-05
1.9283e-05
1.95154e-05
1.97344e-05
1.99409e-05
2.01358e-05
2.03199e-05
2.04943e-05
2.06598e-05
2.08174e-05
2.09682e-05
2.1113e-05
2.1253e-05
2.13892e-05
2.15227e-05
2.1655e-05
2.17872e-05
2.19209e-05
2.20575e-05
2.21981e-05
2.23418e-05
2.24826e-05
2.26034e-05
2.26673e-05
2.2618e-05
2.24034e-05
2.20481e-05
2.18398e-05
2.28962e-05
2.33086e-05
2.13465e-05
2.0366e-05
2.02852e-05
2.22308e-05
2.28075e-05
2.04869e-05
2.0104e-05
2.09114e-05
2.32075e-05
2.25299e-05
2.06089e-05
2.05902e-05
2.15214e-05
2.24213e-05
2.10681e-05
2.07102e-05
2.06936e-05
2.07032e-05
2.12181e-05
2.22406e-05
2.10366e-05
2.0696e-05
2.06821e-05
2.06909e-05
2.11792e-05
2.22095e-05
2.10354e-05
2.0699e-05
2.07354e-05
2.07378e-05
2.06743e-05
2.05961e-05
2.09325e-05
2.23167e-05
2.26877e-05
2.09916e-05
2.05635e-05
2.07945e-05
2.15013e-05
2.18891e-05
2.11841e-05
2.08582e-05
2.08235e-05
2.08188e-05
2.08377e-05
2.10449e-05
2.15251e-05
2.19048e-05
2.17251e-05
2.12281e-05
2.08586e-05
2.07031e-05
2.06622e-05
2.06448e-05
2.06077e-05
2.05385e-05
2.04375e-05
2.03091e-05
2.01581e-05
1.99882e-05
1.98022e-05
1.96016e-05
1.93873e-05
1.91594e-05
1.8918e-05
1.86624e-05
1.83918e-05
1.9532e-05
1.56815e-05
1.88004e-05
1.90613e-05
1.93073e-05
1.95392e-05
1.97577e-05
1.99637e-05
2.0158e-05
2.03417e-05
2.05156e-05
2.06806e-05
2.08378e-05
2.09881e-05
2.11325e-05
2.12721e-05
2.14078e-05
2.15409e-05
2.16726e-05
2.18041e-05
2.1937e-05
2.20724e-05
2.22114e-05
2.2353e-05
2.24919e-05
2.26124e-05
2.26819e-05
2.26501e-05
2.24709e-05
2.21744e-05
2.20278e-05
2.29395e-05
2.32161e-05
2.14088e-05
2.04212e-05
2.03198e-05
2.21185e-05
2.26976e-05
2.05382e-05
2.0122e-05
2.08804e-05
2.30429e-05
2.24496e-05
2.06245e-05
2.06304e-05
2.15565e-05
2.23492e-05
2.10757e-05
2.07322e-05
2.07119e-05
2.07368e-05
2.12492e-05
2.21674e-05
2.10512e-05
2.07131e-05
2.06898e-05
2.07124e-05
2.11923e-05
2.21296e-05
2.10463e-05
2.07071e-05
2.07313e-05
2.07316e-05
2.06622e-05
2.05837e-05
2.09489e-05
2.23509e-05
2.26079e-05
2.09795e-05
2.05697e-05
2.08145e-05
2.15022e-05
2.18272e-05
2.11704e-05
2.08632e-05
2.08283e-05
2.08278e-05
2.08654e-05
2.10951e-05
2.15589e-05
2.18906e-05
2.17191e-05
2.12582e-05
2.08929e-05
2.07201e-05
2.06616e-05
2.06329e-05
2.05895e-05
2.05168e-05
2.04137e-05
2.02841e-05
2.01323e-05
1.9962e-05
1.97756e-05
1.95747e-05
1.936e-05
1.91319e-05
1.889e-05
1.8634e-05
1.8363e-05
1.94977e-05
1.57133e-05
1.88269e-05
1.90873e-05
1.93327e-05
1.95639e-05
1.97818e-05
1.99872e-05
2.0181e-05
2.03641e-05
2.05374e-05
2.07019e-05
2.08585e-05
2.10082e-05
2.1152e-05
2.12909e-05
2.1426e-05
2.15584e-05
2.16892e-05
2.18197e-05
2.19513e-05
2.20852e-05
2.22221e-05
2.23612e-05
2.24976e-05
2.2617e-05
2.26909e-05
2.26753e-05
2.25322e-05
2.22984e-05
2.22181e-05
2.29986e-05
2.31349e-05
2.146e-05
2.04746e-05
2.0356e-05
2.20268e-05
2.26029e-05
2.05915e-05
2.01451e-05
2.08557e-05
2.2889e-05
2.23652e-05
2.06374e-05
2.06671e-05
2.15835e-05
2.22816e-05
2.10821e-05
2.07508e-05
2.07274e-05
2.07663e-05
2.12774e-05
2.21059e-05
2.10658e-05
2.07282e-05
2.06964e-05
2.07313e-05
2.12035e-05
2.20614e-05
2.10569e-05
2.07131e-05
2.07266e-05
2.07249e-05
2.06507e-05
2.05732e-05
2.09593e-05
2.23654e-05
2.25282e-05
2.09664e-05
2.05766e-05
2.08355e-05
2.15019e-05
2.17705e-05
2.11567e-05
2.08661e-05
2.08313e-05
2.08364e-05
2.0893e-05
2.11421e-05
2.15888e-05
2.18822e-05
2.172e-05
2.12907e-05
2.09294e-05
2.074e-05
2.06635e-05
2.06225e-05
2.05721e-05
2.04955e-05
2.03902e-05
2.02594e-05
2.01069e-05
1.99361e-05
1.97493e-05
1.95481e-05
1.93332e-05
1.91047e-05
1.88625e-05
1.86061e-05
1.83345e-05
1.94639e-05
1.57461e-05
1.88542e-05
1.9114e-05
1.93588e-05
1.95893e-05
1.98065e-05
2.00112e-05
2.02043e-05
2.03867e-05
2.05594e-05
2.07232e-05
2.08791e-05
2.10281e-05
2.11712e-05
2.13093e-05
2.14435e-05
2.15748e-05
2.17045e-05
2.18338e-05
2.19637e-05
2.20955e-05
2.22299e-05
2.23659e-05
2.2499e-05
2.26167e-05
2.26937e-05
2.2693e-05
2.25874e-05
2.24208e-05
2.2408e-05
2.30699e-05
2.30676e-05
2.15041e-05
2.05276e-05
2.03939e-05
2.19519e-05
2.25224e-05
2.06461e-05
2.01718e-05
2.08368e-05
2.27465e-05
2.22814e-05
2.06491e-05
2.06999e-05
2.16026e-05
2.22188e-05
2.10881e-05
2.07662e-05
2.07402e-05
2.07924e-05
2.13024e-05
2.20536e-05
2.10805e-05
2.07418e-05
2.07027e-05
2.07481e-05
2.12132e-05
2.20033e-05
2.10692e-05
2.07188e-05
2.07221e-05
2.07184e-05
2.06408e-05
2.05648e-05
2.09657e-05
2.23621e-05
2.24462e-05
2.09518e-05
2.05842e-05
2.08572e-05
2.15007e-05
2.17189e-05
2.11435e-05
2.08674e-05
2.08329e-05
2.08447e-05
2.09206e-05
2.11863e-05
2.16161e-05
2.18786e-05
2.1726e-05
2.13247e-05
2.09677e-05
2.07628e-05
2.06679e-05
2.06138e-05
2.05556e-05
2.04747e-05
2.03671e-05
2.0235e-05
2.00817e-05
1.99104e-05
1.97234e-05
1.95219e-05
1.93067e-05
1.90779e-05
1.88354e-05
1.85786e-05
1.83066e-05
1.94307e-05
1.57795e-05
1.8882e-05
1.91413e-05
1.93853e-05
1.96151e-05
1.98316e-05
2.00355e-05
2.02279e-05
2.04095e-05
2.05813e-05
2.07444e-05
2.08994e-05
2.10476e-05
2.11897e-05
2.13268e-05
2.146e-05
2.15901e-05
2.17184e-05
2.1846e-05
2.19739e-05
2.21032e-05
2.22345e-05
2.23669e-05
2.24961e-05
2.26111e-05
2.26782e-05
2.26798e-05
2.26249e-05
2.25393e-05
2.25921e-05
2.31484e-05
2.30163e-05
2.15456e-05
2.05816e-05
2.04342e-05
2.18899e-05
2.2454e-05
2.0701e-05
2.02005e-05
2.08222e-05
2.26152e-05
2.22013e-05
2.06605e-05
2.07289e-05
2.16143e-05
2.21608e-05
2.10938e-05
2.07788e-05
2.07507e-05
2.08154e-05
2.13241e-05
2.20088e-05
2.10954e-05
2.07539e-05
2.07087e-05
2.07632e-05
2.12219e-05
2.19538e-05
2.10826e-05
2.07249e-05
2.0718e-05
2.07127e-05
2.06332e-05
2.05595e-05
2.09705e-05
2.23444e-05
2.23617e-05
2.09354e-05
2.05922e-05
2.08795e-05
2.14989e-05
2.16723e-05
2.11311e-05
2.08676e-05
2.08336e-05
2.08531e-05
2.09481e-05
2.12281e-05
2.16414e-05
2.18786e-05
2.17357e-05
2.13596e-05
2.10077e-05
2.07885e-05
2.06753e-05
2.06072e-05
2.05404e-05
2.04546e-05
2.03445e-05
2.02109e-05
2.00569e-05
1.98852e-05
1.96978e-05
1.94961e-05
1.92806e-05
1.90516e-05
1.88088e-05
1.85518e-05
1.82794e-05
1.93984e-05
1.58131e-05
1.89099e-05
1.91686e-05
1.9412e-05
1.9641e-05
1.98566e-05
2.00598e-05
2.02513e-05
2.04321e-05
2.06031e-05
2.07652e-05
2.09193e-05
2.10665e-05
2.12075e-05
2.13435e-05
2.14753e-05
2.16041e-05
2.17307e-05
2.18563e-05
2.19819e-05
2.21084e-05
2.22362e-05
2.23644e-05
2.24893e-05
2.25972e-05
2.26583e-05
2.26751e-05
2.26665e-05
2.26514e-05
2.27643e-05
2.32276e-05
2.29816e-05
2.15886e-05
2.06382e-05
2.04779e-05
2.18378e-05
2.23951e-05
2.07551e-05
2.02293e-05
2.08101e-05
2.24938e-05
2.21265e-05
2.06722e-05
2.07541e-05
2.16195e-05
2.21074e-05
2.10995e-05
2.07888e-05
2.0759e-05
2.08355e-05
2.13425e-05
2.197e-05
2.11101e-05
2.07649e-05
2.07143e-05
2.0777e-05
2.12298e-05
2.19116e-05
2.10977e-05
2.07317e-05
2.07148e-05
2.07081e-05
2.06283e-05
2.05575e-05
2.09755e-05
2.23159e-05
2.22756e-05
2.09174e-05
2.06008e-05
2.09024e-05
2.14969e-05
2.16306e-05
2.11196e-05
2.08668e-05
2.08335e-05
2.08617e-05
2.09756e-05
2.12678e-05
2.16655e-05
2.18817e-05
2.17481e-05
2.13951e-05
2.1049e-05
2.08172e-05
2.0686e-05
2.06032e-05
2.05268e-05
2.04356e-05
2.03225e-05
2.01874e-05
2.00325e-05
1.98603e-05
1.96727e-05
1.94707e-05
1.9255e-05
1.90258e-05
1.87828e-05
1.85255e-05
1.82528e-05
1.93669e-05
1.58465e-05
1.89376e-05
1.91958e-05
1.94385e-05
1.96667e-05
1.98815e-05
2.00838e-05
2.02744e-05
2.04543e-05
2.06243e-05
2.07854e-05
2.09385e-05
2.10846e-05
2.12244e-05
2.13591e-05
2.14895e-05
2.16166e-05
2.17414e-05
2.18648e-05
2.19878e-05
2.21112e-05
2.22353e-05
2.23592e-05
2.24795e-05
2.2579e-05
2.26419e-05
2.26832e-05
2.27123e-05
2.2755e-05
2.29184e-05
2.33005e-05
2.2962e-05
2.16354e-05
2.06986e-05
2.05258e-05
2.17939e-05
2.23426e-05
2.08071e-05
2.0257e-05
2.07983e-05
2.23811e-05
2.20575e-05
2.06844e-05
2.07756e-05
2.16191e-05
2.20585e-05
2.11053e-05
2.07966e-05
2.07654e-05
2.0853e-05
2.13574e-05
2.19359e-05
2.11246e-05
2.07755e-05
2.07195e-05
2.07896e-05
2.12367e-05
2.18743e-05
2.11135e-05
2.07395e-05
2.07124e-05
2.07046e-05
2.06258e-05
2.05587e-05
2.09817e-05
2.22796e-05
2.21895e-05
2.08983e-05
2.06099e-05
2.09256e-05
2.14947e-05
2.15937e-05
2.11092e-05
2.08652e-05
2.08327e-05
2.08702e-05
2.10028e-05
2.13057e-05
2.16892e-05
2.18879e-05
2.17631e-05
2.14314e-05
2.1092e-05
2.08492e-05
2.07006e-05
2.06025e-05
2.05157e-05
2.04183e-05
2.03017e-05
2.01647e-05
2.00089e-05
1.98361e-05
1.96482e-05
1.9446e-05
1.92301e-05
1.90006e-05
1.87574e-05
1.84997e-05
1.82267e-05
1.93359e-05
1.58794e-05
1.89648e-05
1.92225e-05
1.94645e-05
1.96919e-05
1.99058e-05
2.01072e-05
2.02969e-05
2.04758e-05
2.06449e-05
2.08049e-05
2.09569e-05
2.11018e-05
2.12404e-05
2.13736e-05
2.15025e-05
2.16279e-05
2.17507e-05
2.18718e-05
2.19921e-05
2.21123e-05
2.22327e-05
2.23523e-05
2.24682e-05
2.25651e-05
2.2636e-05
2.27022e-05
2.27609e-05
2.28481e-05
2.30497e-05
2.33616e-05
2.29548e-05
2.16872e-05
2.07636e-05
2.0579e-05
2.17585e-05
2.22937e-05
2.08555e-05
2.02824e-05
2.07854e-05
2.22755e-05
2.19936e-05
2.06971e-05
2.07937e-05
2.16142e-05
2.20138e-05
2.11113e-05
2.08026e-05
2.077e-05
2.08681e-05
2.13688e-05
2.19055e-05
2.11385e-05
2.07854e-05
2.07242e-05
2.0801e-05
2.1243e-05
2.18419e-05
2.11298e-05
2.0748e-05
2.07107e-05
2.07018e-05
2.06248e-05
2.05623e-05
2.09892e-05
2.22381e-05
2.21052e-05
2.08787e-05
2.06193e-05
2.09487e-05
2.14924e-05
2.15612e-05
2.10999e-05
2.08626e-05
2.08311e-05
2.08786e-05
2.10295e-05
2.13421e-05
2.17128e-05
2.18973e-05
2.17811e-05
2.1469e-05
2.1137e-05
2.08849e-05
2.07197e-05
2.06059e-05
2.05078e-05
2.04034e-05
2.02827e-05
2.01435e-05
1.99865e-05
1.98132e-05
1.96248e-05
1.94224e-05
1.92063e-05
1.89766e-05
1.87331e-05
1.84752e-05
1.82018e-05
1.93064e-05
1.59115e-05
1.89913e-05
1.92484e-05
1.94897e-05
1.97163e-05
1.99294e-05
2.01299e-05
2.03186e-05
2.04966e-05
2.06646e-05
2.08235e-05
2.09744e-05
2.1118e-05
2.12553e-05
2.13871e-05
2.15144e-05
2.16379e-05
2.17587e-05
2.18776e-05
2.19952e-05
2.21124e-05
2.22292e-05
2.23449e-05
2.24571e-05
2.25559e-05
2.26389e-05
2.27159e-05
2.27979e-05
2.29294e-05
2.31561e-05
2.34068e-05
2.29537e-05
2.17428e-05
2.08332e-05
2.06383e-05
2.17333e-05
2.22468e-05
2.08988e-05
2.03054e-05
2.07709e-05
2.21764e-05
2.19339e-05
2.07099e-05
2.08087e-05
2.16059e-05
2.19729e-05
2.11173e-05
2.0807e-05
2.07732e-05
2.08812e-05
2.13771e-05
2.18781e-05
2.11518e-05
2.07942e-05
2.07283e-05
2.08113e-05
2.12486e-05
2.18135e-05
2.11463e-05
2.07573e-05
2.07095e-05
2.06994e-05
2.06246e-05
2.05672e-05
2.09972e-05
2.21929e-05
2.20245e-05
2.08593e-05
2.06288e-05
2.09712e-05
2.14899e-05
2.1533e-05
2.10915e-05
2.08592e-05
2.08285e-05
2.08862e-05
2.1055e-05
2.13764e-05
2.17361e-05
2.19097e-05
2.18021e-05
2.15082e-05
2.11841e-05
2.09246e-05
2.07437e-05
2.06142e-05
2.05041e-05
2.03918e-05
2.02664e-05
2.01246e-05
1.99661e-05
1.97919e-05
1.96032e-05
1.94005e-05
1.91842e-05
1.89544e-05
1.87106e-05
1.84525e-05
1.81787e-05
1.92788e-05
1.59424e-05
1.90168e-05
1.92734e-05
1.95139e-05
1.97398e-05
1.9952e-05
2.01516e-05
2.03394e-05
2.05164e-05
2.06834e-05
2.08412e-05
2.09909e-05
2.11333e-05
2.12692e-05
2.13996e-05
2.15253e-05
2.16471e-05
2.17659e-05
2.18826e-05
2.19977e-05
2.21121e-05
2.22257e-05
2.23382e-05
2.24476e-05
2.25502e-05
2.26427e-05
2.27293e-05
2.28336e-05
2.29983e-05
2.32373e-05
2.34361e-05
2.29532e-05
2.18001e-05
2.09073e-05
2.0705e-05
2.17209e-05
2.22014e-05
2.09357e-05
2.03263e-05
2.07553e-05
2.20834e-05
2.18772e-05
2.07224e-05
2.08214e-05
2.15954e-05
2.19357e-05
2.11233e-05
2.08101e-05
2.07751e-05
2.08929e-05
2.13839e-05
2.18534e-05
2.11654e-05
2.08024e-05
2.07318e-05
2.08206e-05
2.12535e-05
2.17887e-05
2.11629e-05
2.0767e-05
2.07087e-05
2.06971e-05
2.06242e-05
2.05724e-05
2.10043e-05
2.2145e-05
2.19485e-05
2.08406e-05
2.06378e-05
2.09923e-05
2.14869e-05
2.15087e-05
2.10841e-05
2.08546e-05
2.08245e-05
2.08925e-05
2.10782e-05
2.14077e-05
2.17584e-05
2.19242e-05
2.18257e-05
2.15491e-05
2.12333e-05
2.0968e-05
2.07729e-05
2.06279e-05
2.05054e-05
2.03843e-05
2.02536e-05
2.01085e-05
1.99482e-05
1.97731e-05
1.95838e-05
1.93808e-05
1.91643e-05
1.89343e-05
1.86904e-05
1.8432e-05
1.81579e-05
1.92533e-05
1.5972e-05
1.90412e-05
1.92972e-05
1.95371e-05
1.97622e-05
1.99736e-05
2.01723e-05
2.03593e-05
2.05353e-05
2.07012e-05
2.0858e-05
2.10065e-05
2.11477e-05
2.12823e-05
2.14113e-05
2.15355e-05
2.16556e-05
2.17726e-05
2.18872e-05
2.20002e-05
2.2112e-05
2.22231e-05
2.2333e-05
2.24406e-05
2.25435e-05
2.26411e-05
2.2741e-05
2.28677e-05
2.30553e-05
2.32965e-05
2.34524e-05
2.29524e-05
2.18572e-05
2.09858e-05
2.07814e-05
2.17245e-05
2.21585e-05
2.09654e-05
2.03457e-05
2.07405e-05
2.19977e-05
2.18234e-05
2.07346e-05
2.08327e-05
2.1584e-05
2.19021e-05
2.11293e-05
2.08121e-05
2.07758e-05
2.09026e-05
2.1389e-05
2.18313e-05
2.11785e-05
2.081e-05
2.07347e-05
2.08288e-05
2.12579e-05
2.17671e-05
2.11795e-05
2.0777e-05
2.07079e-05
2.06944e-05
2.0623e-05
2.05767e-05
2.10092e-05
2.20948e-05
2.18781e-05
2.0823e-05
2.06457e-05
2.10114e-05
2.14834e-05
2.14879e-05
2.10776e-05
2.08489e-05
2.08188e-05
2.08968e-05
2.10982e-05
2.14346e-05
2.1778e-05
2.19392e-05
2.18508e-05
2.15909e-05
2.1284e-05
2.10147e-05
2.08068e-05
2.06471e-05
2.05119e-05
2.03817e-05
2.02449e-05
2.00962e-05
1.99337e-05
1.97573e-05
1.95673e-05
1.9364e-05
1.91475e-05
1.89176e-05
1.8674e-05
1.84163e-05
1.81432e-05
1.9239e-05
1.6e-05
1.90644e-05
1.93198e-05
1.95591e-05
1.97835e-05
1.99941e-05
2.0192e-05
2.03781e-05
2.05532e-05
2.07181e-05
2.08739e-05
2.10213e-05
2.11613e-05
2.12947e-05
2.14224e-05
2.15451e-05
2.16637e-05
2.17791e-05
2.18919e-05
2.20029e-05
2.21128e-05
2.22218e-05
2.233e-05
2.24366e-05
2.25408e-05
2.26439e-05
2.27559e-05
2.29e-05
2.31015e-05
2.33374e-05
2.34567e-05
2.29498e-05
2.1912e-05
2.10682e-05
2.08699e-05
2.17468e-05
2.21202e-05
2.09881e-05
2.03648e-05
2.07284e-05
2.19194e-05
2.17717e-05
2.07461e-05
2.08436e-05
2.15729e-05
2.18723e-05
2.11351e-05
2.08134e-05
2.07753e-05
2.0911e-05
2.13932e-05
2.18119e-05
2.11911e-05
2.08171e-05
2.0737e-05
2.08359e-05
2.12617e-05
2.17483e-05
2.11958e-05
2.07873e-05
2.07071e-05
2.06911e-05
2.06206e-05
2.05796e-05