/*--------------------------------*- C++ -*----------------------------------*\
  =========                 |
  \\      /  F ield         | OpenFOAM: The Open Source CFD Toolbox
   \\    /   O peration     | Website:  https://openfoam.org
    \\  /    A nd           | Version:  9
     \\/     M anipulation  |
\*---------------------------------------------------------------------------*/
FoamFile
{
    format      ascii;
    class       volVectorField;
    location    "0.07";
    object      U;
}
// * * * * * * * * * * * * * * * * * * * * * * * * * * * * * * * * * * * * * //

dimensions      [0 1 -1 0 0 0 0];

internalField   nonuniform List<vector> 
20000
(
(7.78449e-05 0 -0.00566714)
(9.73356e-05 0 -0.0110646)
(0.000115474 0 -0.0164639)
(0.000138117 0 -0.0223299)
(0.000166572 0 -0.0286053)
(0.000201661 0 -0.0353227)
(0.000244134 0 -0.0425468)
(0.000294735 0 -0.0503514)
(0.000354453 0 -0.0588115)
(0.000424614 0 -0.0680025)
(0.000506976 0 -0.0780029)
(0.000603877 0 -0.0888992)
(0.000718447 0 -0.100792)
(0.000854937 0 -0.113801)
(0.00101922 0 -0.128077)
(0.00121961 0 -0.143808)
(0.00146827 0 -0.161242)
(0.00178336 0 -0.180725)
(0.00219204 0 -0.202769)
(0.00273218 0 -0.228216)
(0.0034402 0 -0.25855)
(0.00427458 0 -0.296377)
(0.00482741 0 -0.344948)
(0.00370804 0 -0.400474)
(-0.000924305 0 -0.425098)
(-0.00467885 0 -0.33307)
(0.00245728 0 -0.0928951)
(0.0185799 0 0.216427)
(0.0429044 0 0.53748)
(0.067239 0 0.809443)
(0.179578 0 -1.59026)
(-0.188233 0 -1.5851)
(-0.0261335 0 0.995745)
(-0.000901861 0 1.00974)
(0.023874 0 1.0403)
(0.107788 0 -1.39615)
(-0.105678 0 -1.44781)
(-0.0286796 0 1.05841)
(-0.0262739 0 0.988579)
(0.0364183 0 0.574608)
(-0.0331413 0 -1.58613)
(-0.0628329 0 0.176956)
(0.000525702 0 0.760562)
(-0.0121241 0 0.714283)
(-0.00423113 0 0.446565)
(0.00076302 0 -0.532615)
(0.00099829 0 0.483572)
(0.00464082 0 0.641243)
(0.00416285 0 0.625422)
(0.00148996 0 0.713195)
(0.0286802 0 0.540063)
(0.00290596 0 -1.17964)
(-0.0273972 0 0.584571)
(-0.00147074 0 0.718009)
(-0.000138373 0 0.638297)
(-0.000525246 0 0.71562)
(0.0263792 0 0.514204)
(0.00250568 0 -1.15598)
(-0.0285035 0 0.55914)
(-0.0031002 0 0.664981)
(-0.00480316 0 0.573673)
(-0.000742895 0 0.550842)
(0.00138509 0 0.556795)
(0.00573403 0 0.585101)
(0.0024079 0 0.655986)
(0.0636555 0 0.320451)
(0.0137003 0 -1.59299)
(-0.0591164 0 0.496244)
(-0.00623895 0 0.658165)
(-0.0128197 0 0.548255)
(-0.0036696 0 0.25966)
(-0.00019896 0 -0.372406)
(-0.000399254 0 0.299891)
(0.00405134 0 0.451642)
(0.00237642 0 0.445729)
(0.00556872 0 0.459535)
(0.0117121 0 0.509886)
(0.0247981 0 0.585694)
(0.0572229 0 0.466548)
(0.114288 0 -1.53132)
(-0.126993 0 -1.14181)
(-0.0552789 0 0.460673)
(-0.0338577 0 0.502907)
(-0.0207566 0 0.384602)
(-0.0135201 0 0.269965)
(-0.00861777 0 0.1724)
(-0.005244 0 0.0936062)
(-0.00304574 0 0.0345422)
(-0.00173404 0 -0.00553419)
(-0.00101865 0 -0.0293981)
(-0.000650114 0 -0.0410711)
(-0.000458396 0 -0.0445504)
(-0.000348069 0 -0.0430324)
(-0.000273451 0 -0.0387517)
(-0.000215584 0 -0.0331423)
(-0.00016786 0 -0.0270707)
(-0.000129008 0 -0.0210211)
(-0.0001004 0 -0.0151975)
(-8.16493e-05 0 -0.00956263)
(-6.30464e-05 0 -0.00413246)
(0.000168794 0 -0.00564881)
(0.000231632 0 -0.0111607)
(0.000273918 0 -0.0165563)
(0.000329439 0 -0.0224343)
(0.000402168 0 -0.028732)
(0.000493921 0 -0.0354747)
(0.000606941 0 -0.0427252)
(0.000743529 0 -0.0505572)
(0.000906466 0 -0.0590467)
(0.00109936 0 -0.0682701)
(0.00132695 0 -0.0783071)
(0.00159543 0 -0.0892458)
(0.00191289 0 -0.101188)
(0.00228989 0 -0.114258)
(0.00274037 0 -0.128608)
(0.00328282 0 -0.144432)
(0.0039418 0 -0.161986)
(0.00474921 0 -0.181624)
(0.00574314 0 -0.203873)
(0.00695727 0 -0.22957)
(0.00838019 0 -0.260138)
(0.00982933 0 -0.297901)
(0.0106126 0 -0.345272)
(0.00891559 0 -0.39737)
(0.00258059 0 -0.419317)
(-0.00120278 0 -0.334983)
(0.0151637 0 -0.108233)
(0.0505661 0 0.193301)
(0.106918 0 0.501875)
(0.150645 0 0.73336)
(0.248134 0 -1.391)
(-0.267956 0 -1.4802)
(-0.0395616 0 0.917103)
(0.00612439 0 0.982788)
(0.0600756 0 0.991763)
(0.185789 0 -1.30157)
(-0.178744 0 -1.34376)
(-0.0704601 0 1.01263)
(-0.0734835 0 0.971566)
(0.0627689 0 0.531248)
(-0.0510474 0 -1.43207)
(-0.128557 0 0.108272)
(-0.00354063 0 0.750189)
(-0.0332071 0 0.714112)
(-0.00525936 0 0.433338)
(-0.000350199 0 -0.523369)
(-0.00256012 0 0.473456)
(0.0112182 0 0.642016)
(0.0121657 0 0.621662)
(0.00626078 0 0.708436)
(0.0731598 0 0.514238)
(0.00328398 0 -1.09231)
(-0.0687443 0 0.559632)
(-0.00474961 0 0.712529)
(-0.000482126 0 0.631674)
(0.000495049 0 0.709955)
(0.0656994 0 0.488042)
(0.00221074 0 -1.0719)
(-0.0725813 0 0.53588)
(-0.00877891 0 0.660207)
(-0.0140773 0 0.569235)
(-0.00182787 0 0.547595)
(0.00304634 0 0.55378)
(0.0171632 0 0.579627)
(0.00676437 0 0.643437)
(0.133284 0 0.266247)
(0.015454 0 -1.41012)
(-0.125721 0 0.456061)
(-0.0144175 0 0.649029)
(-0.0341019 0 0.544709)
(-0.00525002 0 0.246092)
(-0.00263667 0 -0.36236)
(-0.00610198 0 0.289255)
(0.00870245 0 0.450915)
(0.00620748 0 0.442664)
(0.0149772 0 0.452097)
(0.0283731 0 0.495641)
(0.0504399 0 0.553543)
(0.116013 0 0.371549)
(0.126794 0 -1.26494)
(-0.187579 0 -0.972486)
(-0.117161 0 0.37752)
(-0.0799531 0 0.463928)
(-0.0526252 0 0.363365)
(-0.0359008 0 0.255743)
(-0.0240572 0 0.16234)
(-0.0157441 0 0.0866227)
(-0.0101518 0 0.0299586)
(-0.00655866 0 -0.00835283)
(-0.0043145 0 -0.0310593)
(-0.00292039 0 -0.0420606)
(-0.00203594 0 -0.0451846)
(-0.00144875 0 -0.0434864)
(-0.00103891 0 -0.0391106)
(-0.000741472 0 -0.0334422)
(-0.000521515 0 -0.0273232)
(-0.000360699 0 -0.0212236)
(-0.000250165 0 -0.0153368)
(-0.000179973 0 -0.00964827)
(-0.000140546 0 -0.00431141)
(7.93531e-05 0 -0.00578662)
(0.000160691 0 -0.0113497)
(0.000217345 0 -0.0167608)
(0.000297936 0 -0.0226757)
(0.000404717 0 -0.0290235)
(0.000540296 0 -0.0358201)
(0.000708289 0 -0.0431258)
(0.000912429 0 -0.0510147)
(0.00115697 0 -0.0595639)
(0.00144727 0 -0.0688516)
(0.00179016 0 -0.0789594)
(0.00219434 0 -0.089978)
(0.0026708 0 -0.102012)
(0.00323341 0 -0.11519)
(0.00389964 0 -0.129667)
(0.00469141 0 -0.145644)
(0.00563564 0 -0.163384)
(0.0067636 0 -0.183244)
(0.00810627 0 -0.205744)
(0.00967883 0 -0.231679)
(0.0114349 0 -0.262313)
(0.0131421 0 -0.299513)
(0.0140873 0 -0.344717)
(0.0126421 0 -0.392443)
(0.0072664 0 -0.412669)
(0.00537249 0 -0.341429)
(0.0263195 0 -0.138672)
(0.0699963 0 0.147)
(0.142393 0 0.441951)
(0.203662 0 0.643767)
(0.272136 0 -1.20983)
(-0.246725 0 -1.38914)
(-0.0338917 0 0.815703)
(0.0235539 0 0.937705)
(0.0872414 0 0.91932)
(0.206772 0 -1.2035)
(-0.199922 0 -1.22822)
(-0.0966067 0 0.952845)
(-0.106201 0 0.944077)
(0.0560027 0 0.477454)
(-0.0682152 0 -1.29788)
(-0.151538 0 0.0227193)
(-0.00173577 0 0.734984)
(-0.048715 0 0.714217)
(-0.00158368 0 0.412165)
(-0.00245 0 -0.516537)
(-0.00842707 0 0.461105)
(0.0147387 0 0.642449)
(0.017967 0 0.615671)
(0.00870916 0 0.698808)
(0.103035 0 0.480168)
(0.00360906 0 -0.983167)
(-0.0953617 0 0.528684)
(-0.0057511 0 0.699964)
(-0.000992968 0 0.62048)
(0.000788069 0 0.697279)
(0.0910076 0 0.453022)
(0.00166019 0 -0.965879)
(-0.102104 0 0.507552)
(-0.0110759 0 0.649923)
(-0.0224548 0 0.561229)
(-0.00231345 0 0.541683)
(0.00251324 0 0.548306)
(0.0251292 0 0.570642)
(0.00436198 0 0.621045)
(0.158703 0 0.200021)
(0.0183143 0 -1.23636)
(-0.149226 0 0.411863)
(-0.0127257 0 0.63507)
(-0.0490054 0 0.538322)
(-0.00309838 0 0.224445)
(-0.00541118 0 -0.353157)
(-0.0131753 0 0.275696)
(0.00979811 0 0.448211)
(0.0057525 0 0.436903)
(0.0173869 0 0.439338)
(0.0315469 0 0.472392)
(0.0474623 0 0.50835)
(0.127187 0 0.272527)
(0.11101 0 -1.02418)
(-0.173836 0 -0.804903)
(-0.136235 0 0.28312)
(-0.0914131 0 0.407392)
(-0.063636 0 0.326449)
(-0.0457763 0 0.228715)
(-0.0319261 0 0.142091)
(-0.0217071 0 0.0717907)
(-0.0145646 0 0.0195338)
(-0.00976115 0 -0.0153831)
(-0.00659149 0 -0.0357038)
(-0.0045074 0 -0.045156)
(-0.00310449 0 -0.0473159)
(-0.00212668 0 -0.0450193)
(-0.00142364 0 -0.040258)
(-0.000907675 0 -0.0343229)
(-0.000527148 0 -0.0280005)
(-0.000251047 0 -0.0217278)
(-6.04453e-05 0 -0.0156784)
(6.5458e-05 0 -0.00984085)
(0.000117402 0 -0.0044216)
(-0.000264028 0 -0.00590941)
(-0.000183427 0 -0.0115434)
(-0.000117233 0 -0.017)
(-1.80596e-05 0 -0.0229743)
(0.00011483 0 -0.0293914)
(0.000283877 0 -0.0362614)
(0.000493802 0 -0.0436424)
(0.000749313 0 -0.0516087)
(0.00105566 0 -0.0602386)
(0.00141931 0 -0.0696121)
(0.00184831 0 -0.0798132)
(0.00235261 0 -0.0909349)
(0.00294446 0 -0.103085)
(0.00363887 0 -0.116394)
(0.00445416 0 -0.131023)
(0.0054124 0 -0.147175)
(0.0065393 0 -0.165113)
(0.00786252 0 -0.185191)
(0.00940585 0 -0.207909)
(0.0111731 0 -0.233997)
(0.013103 0 -0.26455)
(0.014949 0 -0.301034)
(0.0160197 0 -0.344174)
(0.0149093 0 -0.388449)
(0.0106598 0 -0.408442)
(0.0100849 0 -0.350856)
(0.0323427 0 -0.174265)
(0.0784302 0 0.0915015)
(0.155875 0 0.375705)
(0.234747 0 0.562909)
(0.282268 0 -1.05126)
(-0.194402 0 -1.29962)
(-0.0256522 0 0.721613)
(0.0466679 0 0.891962)
(0.107411 0 0.851069)
(0.203052 0 -1.10559)
(-0.200766 0 -1.11811)
(-0.109395 0 0.899837)
(-0.121087 0 0.916877)
(0.0398893 0 0.434535)
(-0.0822544 0 -1.19003)
(-0.158073 0 -0.0476724)
(0.00263362 0 0.718734)
(-0.0585332 0 0.71293)
(0.00412576 0 0.389225)
(-0.00455481 0 -0.506535)
(-0.0146242 0 0.44694)
(0.0151047 0 0.639398)
(0.0208788 0 0.608056)
(0.00786632 0 0.68444)
(0.118533 0 0.449382)
(0.00469967 0 -0.874494)
(-0.108597 0 0.500189)
(-0.00539428 0 0.681987)
(-0.00149099 0 0.607328)
(-0.000154337 0 0.67879)
(0.103463 0 0.421199)
(0.0019742 0 -0.860087)
(-0.117973 0 0.482027)
(-0.0108839 0 0.635561)
(-0.029048 0 0.551448)
(-0.0022492 0 0.533999)
(-0.000164347 0 0.541199)
(0.0289799 0 0.561119)
(-0.00212606 0 0.595475)
(0.16173 0 0.147331)
(0.0237566 0 -1.08569)
(-0.150565 0 0.381183)
(-0.00503415 0 0.620936)
(-0.0572753 0 0.530269)
(0.000810434 0 0.202265)
(-0.00770836 0 -0.341163)
(-0.0204287 0 0.261031)
(0.00704162 0 0.442435)
(0.00123562 0 0.430177)
(0.0131765 0 0.426552)
(0.0257331 0 0.450947)
(0.0329715 0 0.470037)
(0.11129 0 0.207409)
(0.0850121 0 -0.831682)
(-0.142811 0 -0.66022)
(-0.128257 0 0.215223)
(-0.0824346 0 0.35791)
(-0.0599789 0 0.291159)
(-0.0444748 0 0.201028)
(-0.0315984 0 0.120301)
(-0.0218329 0 0.0552168)
(-0.0148005 0 0.00744587)
(-0.0099241 0 -0.0239084)
(-0.00662231 0 -0.0416521)
(-0.00438327 0 -0.0493521)
(-0.00282393 0 -0.0503526)
(-0.00170472 0 -0.0472835)
(-0.00088128 0 -0.0419875)
(-0.000266655 0 -0.0356598)
(0.000191578 0 -0.0290281)
(0.00052613 0 -0.0224947)
(0.000761048 0 -0.0162148)
(0.000924477 0 -0.0101697)
(0.000990775 0 -0.00457463)
(-0.000942999 0 -0.00602586)
(-0.000858573 0 -0.0117512)
(-0.000785476 0 -0.0172801)
(-0.00067136 0 -0.0233312)
(-0.000518386 0 -0.0298316)
(-0.000324398 0 -0.0367893)
(-8.39676e-05 0 -0.0442608)
(0.00020827 0 -0.0523203)
(0.000558135 0 -0.0610472)
(0.000972612 0 -0.0705232)
(0.00146018 0 -0.0808342)
(0.00203111 0 -0.0920757)
(0.00269774 0 -0.104358)
(0.00347486 0 -0.117814)
(0.00438007 0 -0.132606)
(0.00543394 0 -0.148939)
(0.00665923 0 -0.167075)
(0.00807833 0 -0.187361)
(0.00970636 0 -0.210271)
(0.0115343 0 -0.236477)
(0.0134852 0 -0.266927)
(0.0153053 0 -0.302767)
(0.0163579 0 -0.344235)
(0.0155036 0 -0.386005)
(0.0122169 0 -0.406477)
(0.0123067 0 -0.360914)
(0.0336294 0 -0.208655)
(0.0789827 0 0.0357197)
(0.153863 0 0.309888)
(0.24506 0 0.492004)
(0.281664 0 -0.901863)
(-0.135345 0 -1.20572)
(-0.0163576 0 0.638211)
(0.0712626 0 0.851528)
(0.122613 0 0.795962)
(0.189432 0 -0.998974)
(-0.189832 0 -1.01237)
(-0.11076 0 0.857237)
(-0.120919 0 0.89135)
(0.0262329 0 0.401434)
(-0.0882811 0 -1.09655)
(-0.156376 0 -0.109841)
(0.00620077 0 0.70177)
(-0.0642258 0 0.709761)
(0.010741 0 0.36509)
(-0.00614441 0 -0.490388)
(-0.0212224 0 0.432978)
(0.0119919 0 0.63251)
(0.0212091 0 0.59992)
(0.00466281 0 0.667307)
(0.121906 0 0.422724)
(0.00526239 0 -0.767458)
(-0.111507 0 0.477122)
(-0.00535576 0 0.661476)
(-0.00189433 0 0.594345)
(-0.00174686 0 0.657468)
(0.105652 0 0.393874)
(0.00216681 0 -0.755879)
(-0.122943 0 0.461791)
(-0.0099673 0 0.619321)
(-0.0334994 0 0.541238)
(-0.00171534 0 0.525535)
(-0.00407931 0 0.533608)
(0.0293828 0 0.553289)
(-0.00935843 0 0.569733)
(0.152137 0 0.105023)
(0.0295869 0 -0.948746)
(-0.140585 0 0.36137)
(0.00427405 0 0.608234)
(-0.0601242 0 0.521911)
(0.00576351 0 0.181571)
(-0.00961452 0 -0.324022)
(-0.0279921 0 0.247729)
(0.00104001 0 0.435397)
(-0.00516387 0 0.424533)
(0.0055149 0 0.416637)
(0.016211 0 0.435488)
(0.018383 0 0.440175)
(0.0877328 0 0.165335)
(0.0604102 0 -0.674945)
(-0.112653 0 -0.537031)
(-0.109688 0 0.172456)
(-0.0678383 0 0.32042)
(-0.0508586 0 0.263828)
(-0.0376531 0 0.178733)
(-0.0264905 0 0.101964)
(-0.0180352 0 0.0407736)
(-0.0118634 0 -0.00339305)
(-0.0075284 0 -0.0317856)
(-0.00456232 0 -0.0473273)
(-0.00251498 0 -0.05349)
(-0.00106412 0 -0.053442)
(-5.88001e-06 0 -0.0496497)
(0.00078494 0 -0.0438332)
(0.00138304 0 -0.0371079)
(0.0018343 0 -0.0301528)
(0.00216728 0 -0.0233425)
(0.00240477 0 -0.016818)
(0.00257598 0 -0.0105513)
(0.00264677 0 -0.00475331)
(-0.00200514 0 -0.00614861)
(-0.00191284 0 -0.0119768)
(-0.00183511 0 -0.0175925)
(-0.00171059 0 -0.0237308)
(-0.00154386 0 -0.0303227)
(-0.00133356 0 -0.0373761)
(-0.00107401 0 -0.0449465)
(-0.00075961 0 -0.0531078)
(-0.000384425 0 -0.06194)
(5.84925e-05 0 -0.0715264)
(0.000577393 0 -0.0819548)
(0.00118201 0 -0.0933222)
(0.0018838 0 -0.105741)
(0.00269615 0 -0.119346)
(0.00363462 0 -0.1343)
(0.00471658 0 -0.150809)
(0.0059598 0 -0.16913)
(0.00737892 0 -0.189602)
(0.00897793 0 -0.212674)
(0.0107334 0 -0.23896)
(0.012555 0 -0.269276)
(0.0141924 0 -0.304502)
(0.0150856 0 -0.344521)
(0.0143658 0 -0.384322)
(0.0118289 0 -0.405502)
(0.0121475 0 -0.370238)
(0.0311052 0 -0.239867)
(0.0737149 0 -0.0173638)
(0.141741 0 0.245717)
(0.238325 0 0.427211)
(0.271952 0 -0.770545)
(-0.0826582 0 -1.10921)
(-0.00483159 0 0.563186)
(0.0943689 0 0.815965)
(0.134047 0 0.753299)
(0.174891 0 -0.88804)
(-0.171956 0 -0.912967)
(-0.102112 0 0.821907)
(-0.109777 0 0.867162)
(0.0171781 0 0.375008)
(-0.084458 0 -1.01421)
(-0.14912 0 -0.166143)
(0.00796184 0 0.684901)
(-0.067393 0 0.705283)
(0.0174119 0 0.340152)
(-0.00752676 0 -0.468789)
(-0.0284263 0 0.419864)
(0.00601789 0 0.623309)
(0.0194839 0 0.592189)
(0.000483408 0 0.649397)
(0.116999 0 0.399201)
(0.00460127 0 -0.664223)
(-0.107896 0 0.458398)
(-0.00582376 0 0.640812)
(-0.00223432 0 0.582462)
(-0.00308038 0 0.635815)
(0.101278 0 0.370423)
(0.00162292 0 -0.655369)
(-0.120613 0 0.445543)
(-0.00873104 0 0.603041)
(-0.035965 0 0.531378)
(-0.000793084 0 0.517186)
(-0.00823381 0 0.526484)
(0.027274 0 0.547971)
(-0.0155323 0 0.545295)
(0.135656 0 0.0671547)
(0.036022 0 -0.828081)
(-0.1239 0 0.34856)
(0.0131279 0 0.59777)
(-0.0590532 0 0.514492)
(0.0110136 0 0.163293)
(-0.0116831 0 -0.301921)
(-0.0353756 0 0.2372)
(-0.00646044 0 0.428709)
(-0.0123677 0 0.419957)
(-0.00358007 0 0.409076)
(0.00578608 0 0.424781)
(0.00708775 0 0.414592)
(0.0658803 0 0.133129)
(0.0427511 0 -0.551972)
(-0.0878273 0 -0.439152)
(-0.0897489 0 0.142457)
(-0.0535469 0 0.290174)
(-0.0403222 0 0.242378)
(-0.0288401 0 0.161266)
(-0.0194092 0 0.0873325)
(-0.0123368 0 0.0290709)
(-0.00715208 0 -0.0122698)
(-0.00351492 0 -0.0383)
(-0.00103011 0 -0.0520674)
(0.000693513 0 -0.0569868)
(0.00192197 0 -0.0560922)
(0.00282092 0 -0.0517133)
(0.00349896 0 -0.0454703)
(0.00401783 0 -0.0384133)
(0.00441455 0 -0.031183)
(0.00471212 0 -0.0241331)
(0.00492899 0 -0.0173937)
(0.0050904 0 -0.0109263)
(0.00516165 0 -0.00493518)
(-0.00348891 0 -0.00627933)
(-0.00338804 0 -0.0122156)
(-0.0033085 0 -0.0179249)
(-0.00317791 0 -0.024156)
(-0.00300353 0 -0.0308429)
(-0.00278522 0 -0.0379945)
(-0.00251753 0 -0.0456656)
(-0.00219505 0 -0.0539299)
(-0.0018122 0 -0.0628681)
(-0.00136261 0 -0.0725643)
(-0.000838885 0 -0.0831078)
(-0.000232571 0 -0.0945971)
(0.00046601 0 -0.107146)
(0.00126787 0 -0.120889)
(0.00218527 0 -0.13599)
(0.00323102 0 -0.152652)
(0.00441633 0 -0.17113)
(0.00574682 0 -0.191748)
(0.00721508 0 -0.214929)
(0.00878566 0 -0.241229)
(0.0103606 0 -0.271345)
(0.0117018 0 -0.305935)
(0.0123218 0 -0.344636)
(0.0115699 0 -0.382811)
(0.00946572 0 -0.40475)
(0.00960038 0 -0.378261)
(0.0253818 0 -0.267278)
(0.0638576 0 -0.0663461)
(0.123179 0 0.184388)
(0.219262 0 0.365176)
(0.255205 0 -0.667263)
(-0.041141 0 -1.01648)
(0.00860772 0 0.495783)
(0.114045 0 0.783644)
(0.142365 0 0.721105)
(0.163981 0 -0.779597)
(-0.15002 0 -0.822786)
(-0.0856761 0 0.790884)
(-0.090617 0 0.845927)
(0.0127965 0 0.355114)
(-0.072674 0 -0.943064)
(-0.140474 0 -0.21404)
(0.00695063 0 0.669739)
(-0.0695807 0 0.699619)
(0.0231016 0 0.315094)
(-0.00921132 0 -0.442907)
(-0.0358516 0 0.407875)
(-0.00145034 0 0.612794)
(0.0161658 0 0.585169)
(-0.00376081 0 0.631721)
(0.107722 0 0.377932)
(0.00307914 0 -0.569032)
(-0.101074 0 0.442567)
(-0.00623157 0 0.621156)
(-0.00251288 0 0.571646)
(-0.00348596 0 0.615104)
(0.09388 0 0.350269)
(0.000716979 0 -0.562446)
(-0.114153 0 0.431754)
(-0.00684728 0 0.587693)
(-0.0367354 0 0.522257)
(0.000485546 0 0.509567)
(-0.0119016 0 0.520393)
(0.0237367 0 0.545113)
(-0.0201324 0 0.522926)
(0.118041 0 0.0302397)
(0.04325 0 -0.727028)
(-0.104201 0 0.34078)
(0.0204162 0 0.590265)
(-0.0555415 0 0.508483)
(0.0156772 0 0.148107)
(-0.0140599 0 -0.27557)
(-0.0419666 0 0.230085)
(-0.0143809 0 0.422544)
(-0.02005 0 0.415617)
(-0.012417 0 0.403149)
(-0.00426025 0 0.416282)
(-0.00164463 0 0.390134)
(0.0483964 0 0.105422)
(0.0311456 0 -0.459829)
(-0.0682499 0 -0.364448)
(-0.0718436 0 0.117759)
(-0.0407109 0 0.263447)
(-0.0294598 0 0.223976)
(-0.0193163 0 0.14665)
(-0.011481 0 0.0752077)
(-0.00566158 0 0.0194477)
(-0.00140602 0 -0.0195033)
(0.0015414 0 -0.0435567)
(0.00353318 0 -0.0558597)
(0.00489868 0 -0.0597694)
(0.00586344 0 -0.0582012)
(0.0065703 0 -0.0533648)
(0.00710683 0 -0.0467942)
(0.00752227 0 -0.0394846)
(0.00784557 0 -0.0320449)
(0.00809427 0 -0.0248123)
(0.00828169 0 -0.0179061)
(0.00842666 0 -0.0112751)
(0.00849781 0 -0.00511287)
(-0.00542714 0 -0.00641849)
(-0.00531707 0 -0.0124651)
(-0.00523692 0 -0.01827)
(-0.00510295 0 -0.0245945)
(-0.00492559 0 -0.0313752)
(-0.00470621 0 -0.0386222)
(-0.0044399 0 -0.0463901)
(-0.00412184 0 -0.0547526)
(-0.00374722 0 -0.0637906)
(-0.00331069 0 -0.0735891)
(-0.00280627 0 -0.0842381)
(-0.00222739 0 -0.0958367)
(-0.00156684 0 -0.108499)
(-0.000816768 0 -0.12236)
(3.10372e-05 0 -0.137582)
(0.000983906 0 -0.154365)
(0.00204576 0 -0.172956)
(0.00321295 0 -0.193667)
(0.00446753 0 -0.216892)
(0.00576405 0 -0.243132)
(0.00699958 0 -0.272982)
(0.00794947 0 -0.306924)
(0.00818343 0 -0.344436)
(0.0071958 0 -0.381258)
(0.00516811 0 -0.4039)
(0.0047711 0 -0.384761)
(0.0170229 0 -0.290453)
(0.0505439 0 -0.109845)
(0.100589 0 0.127785)
(0.192679 0 0.305003)
(0.234679 0 -0.591803)
(-0.0116699 0 -0.933346)
(0.0218929 0 0.435174)
(0.129065 0 0.753758)
(0.148249 0 0.69743)
(0.157872 0 -0.676473)
(-0.126033 0 -0.743885)
(-0.0649283 0 0.762189)
(-0.0655424 0 0.828651)
(0.0135831 0 0.342016)
(-0.0562165 0 -0.881169)
(-0.133487 0 -0.252027)
(0.00259388 0 0.656484)
(-0.071887 0 0.692122)
(0.027063 0 0.29028)
(-0.0114125 0 -0.413491)
(-0.043071 0 0.397524)
(-0.00909047 0 0.601165)
(0.0117991 0 0.578753)
(-0.0079058 0 0.614264)
(0.0967674 0 0.358509)
(0.00118752 0 -0.484021)
(-0.0931818 0 0.428772)
(-0.00622735 0 0.60279)
(-0.00269096 0 0.561628)
(-0.00285245 0 0.595673)
(0.0857804 0 0.333142)
(-1.03781e-06 0 -0.479003)
(-0.105648 0 0.419555)
(-0.00415432 0 0.573581)
(-0.0360549 0 0.514098)
(0.00210484 0 0.502991)
(-0.0146401 0 0.515559)
(0.0196358 0 0.544311)
(-0.0235677 0 0.502202)
(0.103091 0 -0.00717443)
(0.0500357 0 -0.644476)
(-0.0850148 0 0.337333)
(0.0252317 0 0.585719)
(-0.050979 0 0.50372)
(0.01914 0 0.136338)
(-0.0165561 0 -0.245826)
(-0.0475842 0 0.226488)
(-0.0221353 0 0.416756)
(-0.0276197 0 0.411507)
(-0.0206044 0 0.398419)
(-0.0140495 0 0.407832)
(-0.00909206 0 0.365678)
(0.0349561 0 0.0803846)
(0.0230506 0 -0.391237)
(-0.0531316 0 -0.307631)
(-0.0566769 0 0.09671)
(-0.0294715 0 0.238804)
(-0.0188492 0 0.207301)
(-0.00969025 0 0.133928)
(-0.00317681 0 0.064942)
(0.00159108 0 0.0114841)
(0.00502822 0 -0.0253702)
(0.0073304 0 -0.047731)
(0.00884496 0 -0.0588085)
(0.0098558 0 -0.061896)
(0.0105548 0 -0.059794)
(0.0110627 0 -0.0546087)
(0.0114494 0 -0.0477984)
(0.0117536 0 -0.0403104)
(0.0119969 0 -0.0327266)
(0.0121914 0 -0.0253691)
(0.0123454 0 -0.0183466)
(0.0124706 0 -0.0115922)
(0.0125402 0 -0.00528367)
(-0.00782987 0 -0.00656756)
(-0.00771063 0 -0.0127258)
(-0.00763026 0 -0.0186246)
(-0.00749456 0 -0.0250381)
(-0.00731769 0 -0.0319062)
(-0.00710275 0 -0.0392404)
(-0.00684566 0 -0.0470956)
(-0.00654253 0 -0.0555456)
(-0.00618963 0 -0.0646714)
(-0.005783 0 -0.0745584)
(-0.00531849 0 -0.0852967)
(-0.00479189 0 -0.0969855)
(-0.00419894 0 -0.109739)
(-0.00353545 0 -0.12369)
(-0.00279786 0 -0.138999)
(-0.0019848 0 -0.155862)
(-0.00110017 0 -0.174516)
(-0.000157063 0 -0.19526)
(0.00081649 0 -0.21846)
(0.00176542 0 -0.24457)
(0.00258071 0 -0.274093)
(0.00304942 0 -0.307382)
(0.00279101 0 -0.343815)
(0.00138029 0 -0.379473)
(-0.000936548 0 -0.402634)
(-0.00210072 0 -0.389462)
(0.0066147 0 -0.309185)
(0.0349306 0 -0.147)
(0.075861 0 0.076972)
(0.162658 0 0.246524)
(0.212535 0 -0.538199)
(0.00819763 0 -0.860362)
(0.033262 0 0.380298)
(0.138461 0 0.725684)
(0.152521 0 0.680019)
(0.155286 0 -0.579676)
(-0.101476 0 -0.674014)
(-0.0434594 0 0.732676)
(-0.0369073 0 0.814565)
(0.0195496 0 0.336181)
(-0.0379018 0 -0.824355)
(-0.128473 0 -0.278813)
(-0.00504347 0 0.644419)
(-0.0746314 0 0.682055)
(0.0290717 0 0.265802)
(-0.0141291 0 -0.381387)
(-0.0498347 0 0.389197)
(-0.0160981 0 0.589086)
(0.00681396 0 0.572202)
(-0.0121965 0 0.596609)
(0.0855335 0 0.340866)
(-0.000836806 0 -0.408855)
(-0.0851928 0 0.416497)
(-0.00579264 0 0.585652)
(-0.00274498 0 0.552294)
(-0.00151999 0 0.5775)
(0.0779254 0 0.318925)
(-0.000269959 0 -0.404729)
(-0.0961463 0 0.408462)
(-0.000794195 0 0.560675)
(-0.0341123 0 0.507041)
(0.0040207 0 0.497598)
(-0.0162048 0 0.512155)
(0.015506 0 0.544883)
(-0.0263673 0 0.48249)
(0.091643 0 -0.0450856)
(0.0545252 0 -0.576211)
(-0.0688724 0 0.338005)
(0.0269181 0 0.583554)
(-0.0464396 0 0.49975)
(0.02102 0 0.127928)
(-0.0191381 0 -0.213771)
(-0.0522175 0 0.226186)
(-0.0294118 0 0.411465)
(-0.034716 0 0.407796)
(-0.0282856 0 0.394441)
(-0.023189 0 0.39889)
(-0.0157827 0 0.34105)
(0.0241241 0 0.0574498)
(0.016419 0 -0.339546)
(-0.0418615 0 -0.263999)
(-0.0441874 0 0.0784092)
(-0.0198499 0 0.215464)
(-0.00898012 0 0.191662)
(-0.000441535 0 0.122672)
(0.00512643 0 0.0562861)
(0.00907819 0 0.00500252)
(0.0118069 0 -0.0299985)
(0.013552 0 -0.0509127)
(0.0146441 0 -0.0609725)
(0.0153337 0 -0.0634003)
(0.0157874 0 -0.0608905)
(0.0161073 0 -0.0554563)
(0.0163504 0 -0.0484884)
(0.0165467 0 -0.0408925)
(0.0167115 0 -0.033227)
(0.0168521 0 -0.0258006)
(0.0169719 0 -0.0187105)
(0.0170761 0 -0.0118725)
(0.0171426 0 -0.00544397)
(-0.010684 0 -0.00672577)
(-0.0105561 0 -0.012996)
(-0.0104757 0 -0.0189854)
(-0.0103397 0 -0.0254805)
(-0.0101663 0 -0.0324253)
(-0.0099603 0 -0.0398337)
(-0.00971886 0 -0.0477618)
(-0.00943923 0 -0.0562835)
(-0.00911906 0 -0.0654799)
(-0.00875605 0 -0.0754361)
(-0.00834817 0 -0.086242)
(-0.00789391 0 -0.0979961)
(-0.00739233 0 -0.110811)
(-0.00684328 0 -0.124818)
(-0.00624818 0 -0.140175)
(-0.0056121 0 -0.15707)
(-0.0049471 0 -0.175734)
(-0.00427595 0 -0.196448)
(-0.00363675 0 -0.219555)
(-0.00309433 0 -0.245461)
(-0.00276624 0 -0.274596)
(-0.00286025 0 -0.307208)
(-0.00371424 0 -0.342614)
(-0.00569528 0 -0.377206)
(-0.00857349 0 -0.400664)
(-0.010722 0 -0.392193)
(-0.00536185 0 -0.323638)
(0.017985 0 -0.177697)
(0.05074 0 0.0322079)
(0.132326 0 0.188505)
(0.1907 0 -0.501074)
(0.021027 0 -0.797519)
(0.0415644 0 0.328623)
(0.142445 0 0.698468)
(0.155465 0 0.666455)
(0.154495 0 -0.490347)
(-0.0774733 0 -0.612088)
(-0.0236881 0 0.70283)
(-0.00730816 0 0.801783)
(0.0295068 0 0.336302)
(-0.0201157 0 -0.768754)
(-0.12418 0 -0.293552)
(-0.0151477 0 0.633034)
(-0.077479 0 0.669117)
(0.0292153 0 0.241765)
(-0.0173165 0 -0.347645)
(-0.0556509 0 0.382795)
(-0.0223205 0 0.57717)
(0.0011845 0 0.56485)
(-0.0166187 0 0.57897)
(0.0745468 0 0.324923)
(-0.00281939 0 -0.342551)
(-0.0772785 0 0.405361)
(-0.00502261 0 0.569679)
(-0.00268387 0 0.543693)
(2.95569e-05 0 0.56056)
(0.0703981 0 0.307368)
(-1.97193e-05 0 -0.338791)
(-0.0860104 0 0.39816)
(0.0029917 0 0.548894)
(-0.0310775 0 0.501174)
(0.00623602 0 0.493473)
(-0.0166195 0 0.510407)
(0.0118058 0 0.546121)
(-0.0284495 0 0.463663)
(0.0825882 0 -0.0825717)
(0.0553476 0 -0.518739)
(-0.0568409 0 0.342367)
(0.0252984 0 0.583099)
(-0.0426701 0 0.496057)
(0.0211363 0 0.122513)
(-0.0218939 0 -0.180423)
(-0.055864 0 0.228783)
(-0.0359838 0 0.406879)
(-0.0410717 0 0.404618)
(-0.0353183 0 0.391162)
(-0.0312996 0 0.389715)
(-0.0215037 0 0.316025)
(0.0151153 0 0.0360532)
(0.0101575 0 -0.30073)
(-0.0337425 0 -0.231289)
(-0.033929 0 0.0614713)
(-0.0116004 0 0.192622)
(-3.44731e-05 0 0.176372)
(0.00819284 0 0.112386)
(0.0131491 0 0.0489043)
(0.0164885 0 -0.000255964)
(0.0186516 0 -0.0335699)
(0.0199472 0 -0.0532265)
(0.0206915 0 -0.0624367)
(0.0211116 0 -0.0643408)
(0.0213561 0 -0.0615316)
(0.0215136 0 -0.0559362)
(0.0216315 0 -0.0488844)
(0.0217329 0 -0.0412449)
(0.0218282 0 -0.033555)
(0.0219207 0 -0.026111)
(0.0220098 0 -0.0189982)
(0.0220944 0 -0.0121138)
(0.0221576 0 -0.00559169)
(-0.013962 0 -0.00689445)
(-0.0138241 0 -0.0132756)
(-0.0137427 0 -0.0193496)
(-0.0136076 0 -0.0259157)
(-0.0134403 0 -0.0329232)
(-0.0132473 0 -0.0403893)
(-0.0130269 0 -0.0483721)
(-0.0127777 0 -0.0569459)
(-0.012499 0 -0.0661916)
(-0.0121903 0 -0.0761935)
(-0.011852 0 -0.0870409)
(-0.0114855 0 -0.0988309)
(-0.0110934 0 -0.111674)
(-0.0106798 0 -0.125699)
(-0.0102516 0 -0.141059)
(-0.00982037 0 -0.157937)
(-0.0094068 0 -0.176552)
(-0.00904351 0 -0.197169)
(-0.00877888 0 -0.220107)
(-0.00868807 0 -0.245731)
(-0.00889848 0 -0.274407)
(-0.00961755 0 -0.306297)
(-0.0111539 0 -0.340679)
(-0.013837 0 -0.374221)
(-0.0174793 0 -0.397758)
(-0.020772 0 -0.392957)
(-0.0184142 0 -0.334126)
(0.000386481 0 -0.202465)
(0.0267345 0 -0.00767016)
(0.103961 0 0.129558)
(0.170962 0 -0.47723)
(0.0299154 0 -0.743996)
(0.0466575 0 0.280037)
(0.142063 0 0.671468)
(0.156751 0 0.654657)
(0.154312 0 -0.409251)
(-0.0543332 0 -0.556454)
(-0.00691235 0 0.672797)
(0.0200125 0 0.789841)
(0.0416396 0 0.340771)
(-0.00366439 0 -0.712603)
(-0.119662 0 -0.296344)
(-0.026222 0 0.622138)
(-0.0796927 0 0.653425)
(0.0277483 0 0.218429)
(-0.0209177 0 -0.313357)
(-0.0602372 0 0.37794)
(-0.0276802 0 0.565329)
(-0.00478983 0 0.556679)
(-0.0209736 0 0.562114)
(0.0638341 0 0.310389)
(-0.00456188 0 -0.284498)
(-0.0693146 0 0.395052)
(-0.00399239 0 0.55491)
(-0.00252743 0 0.535935)
(0.00144413 0 0.544897)
(0.0631017 0 0.297994)
(0.000751225 0 -0.280706)
(-0.0753526 0 0.388397)
(0.00702154 0 0.5382)
(-0.0271195 0 0.4965)
(0.00881158 0 0.490602)
(-0.0160371 0 0.510319)
(0.00905728 0 0.54781)
(-0.0291913 0 0.4458)
(0.074578 0 -0.118323)
(0.0521523 0 -0.469535)
(-0.0488016 0 0.34942)
(0.0207643 0 0.583735)
(-0.0400943 0 0.492133)
(0.0195573 0 0.119592)
(-0.0248572 0 -0.146744)
(-0.058559 0 0.233687)
(-0.0416266 0 0.403075)
(-0.0464142 0 0.40201)
(-0.0413104 0 0.388477)
(-0.0379452 0 0.380328)
(-0.025897 0 0.29096)
(0.00766058 0 0.0159215)
(0.00446976 0 -0.27228)
(-0.0277235 0 -0.208398)
(-0.0252508 0 0.0444699)
(-0.00424744 0 0.169661)
(0.00812994 0 0.160883)
(0.0162349 0 0.102585)
(0.0208097 0 0.0423959)
(0.0236862 0 -0.00458956)
(0.0254098 0 -0.0363121)
(0.0263506 0 -0.0548452)
(0.0268179 0 -0.0633317)
(0.0270223 0 -0.0648166)
(0.0270986 0 -0.061793)
(0.027125 0 -0.0561068)
(0.0271416 0 -0.0490317)
(0.0271663 0 -0.0414024)
(0.0272056 0 -0.0337367)
(0.0272597 0 -0.0263185)
(0.0273242 0 -0.0192207)
(0.0273931 0 -0.0123212)
(0.0274538 0 -0.00572833)
(-0.0176253 0 -0.00708168)
(-0.0174738 0 -0.0135712)
(-0.0173892 0 -0.0197177)
(-0.0172556 0 -0.0263387)
(-0.0170969 0 -0.0333911)
(-0.0169204 0 -0.0408959)
(-0.0167255 0 -0.0489128)
(-0.0165123 0 -0.0575166)
(-0.0162816 0 -0.0667875)
(-0.0160351 0 -0.076809)
(-0.0157756 0 -0.0876688)
(-0.0155077 0 -0.0994622)
(-0.0152378 0 -0.112297)
(-0.0149743 0 -0.126299)
(-0.0147296 0 -0.141615)
(-0.0145221 0 -0.15842)
(-0.0143812 0 -0.176923)
(-0.0143491 0 -0.197374)
(-0.0144845 0 -0.220065)
(-0.0148739 0 -0.245323)
(-0.0156568 0 -0.273457)
(-0.0170433 0 -0.30456)
(-0.0193241 0 -0.337888)
(-0.0228128 0 -0.37035)
(-0.0273581 0 -0.39375)
(-0.0318657 0 -0.391805)
(-0.0321258 0 -0.341116)
(-0.0175496 0 -0.222446)
(0.00479436 0 -0.0449346)
(0.0791479 0 0.0691002)
(0.154667 0 -0.464642)
(0.037789 0 -0.698253)
(0.0493351 0 0.235342)
(0.138689 0 0.644635)
(0.155842 0 0.643221)
(0.153811 0 -0.336923)
(-0.0333174 0 -0.50567)
(0.00680318 0 0.642319)
(0.0425393 0 0.778798)
(0.0536726 0 0.348985)
(0.0106765 0 -0.655318)
(-0.114218 0 -0.288455)
(-0.0365039 0 0.611699)
(-0.0804084 0 0.635425)
(0.0250639 0 0.196542)
(-0.0248091 0 -0.279663)
(-0.063521 0 0.374202)
(-0.0320626 0 0.553628)
(-0.0104689 0 0.54804)
(-0.0248788 0 0.546338)
(0.0534198 0 0.296872)
(-0.0059139 0 -0.234343)
(-0.0612877 0 0.385335)
(-0.00273756 0 0.541442)
(-0.0022891 0 0.529071)
(0.00261019 0 0.53062)
(0.0561805 0 0.290251)
(0.00198375 0 -0.230191)
(-0.0643639 0 0.378985)
(0.0111828 0 0.528565)
(-0.022421 0 0.493004)
(0.0118051 0 0.488713)
(-0.0144709 0 0.511643)
(0.00782321 0 0.550042)
(-0.0279143 0 0.429091)
(0.0671817 0 -0.150723)
(0.045507 0 -0.426432)
(-0.0440917 0 0.357745)
(0.0141777 0 0.584833)
(-0.0387927 0 0.487582)
(0.0165715 0 0.118625)
(-0.0279554 0 -0.113614)
(-0.0603485 0 0.240148)
(-0.0461425 0 0.4)
(-0.0505503 0 0.399892)
(-0.0459399 0 0.386048)
(-0.0427083 0 0.370376)
(-0.0287499 0 0.266174)
(0.00182688 0 -0.00275611)
(0.000103166 0 -0.252239)
(-0.0227368 0 -0.194132)
(-0.0175432 0 0.0265526)
(0.00263387 0 0.146343)
(0.0157342 0 0.144978)
(0.0238166 0 0.0929823)
(0.0281433 0 0.0364864)
(0.0306511 0 -0.00822644)
(0.032022 0 -0.0384145)
(0.032679 0 -0.0559246)
(0.0329256 0 -0.0637845)
(0.0329595 0 -0.0649312)
(0.0329042 0 -0.0617591)
(0.0328289 0 -0.0560369)
(0.0327675 0 -0.0489863)
(0.0327339 0 -0.0414098)
(0.0327312 0 -0.0338068)
(0.0327568 0 -0.0264486)