/*--------------------------------*- C++ -*----------------------------------*\
  =========                 |
  \\      /  F ield         | OpenFOAM: The Open Source CFD Toolbox
   \\    /   O peration     | Website:  https://openfoam.org
    \\  /    A nd           | Version:  9
     \\/     M anipulation  |
\*---------------------------------------------------------------------------*/
FoamFile
{
    format      ascii;
    class       surfaceVectorField;
    location    "0.07";
    object      Uf;
}
// * * * * * * * * * * * * * * * * * * * * * * * * * * * * * * * * * * * * * //

dimensions      [0 1 -1 0 0 0 0];

internalField   nonuniform List<vector> 
39700
(
(8.53399e-05 0 -0.00830139)
(0.000123319 0 -0.00565809)
(0.000104662 0 -0.0136997)
(0.000164484 0 -0.0111122)
(0.000125832 0 -0.0193268)
(0.000194696 0 -0.0165092)
(0.000151277 0 -0.0253926)
(0.000233778 0 -0.0223804)
(0.000182892 0 -0.0318837)
(0.00028437 0 -0.0286656)
(0.000221547 0 -0.0388484)
(0.000347791 0 -0.0353941)
(0.000267926 0 -0.0463558)
(0.000425538 0 -0.0426296)
(0.000322883 0 -0.0544804)
(0.000519132 0 -0.0504461)
(0.000387561 0 -0.0632972)
(0.00063046 0 -0.058919)
(0.000463483 0 -0.0728832)
(0.000761987 0 -0.0681242)
(0.00055267 0 -0.0833208)
(0.000916963 0 -0.0781408)
(0.000657818 0 -0.0947033)
(0.00109965 0 -0.0890559)
(0.000782562 0 -0.107141)
(0.00131567 0 -0.100971)
(0.000931871 0 -0.120768)
(0.00157241 0 -0.114008)
(0.0011127 0 -0.135754)
(0.00187979 0 -0.128318)
(0.00133505 0 -0.152317)
(0.00225122 0 -0.144094)
(0.00161372 0 -0.170751)
(0.00270503 0 -0.161588)
(0.00197098 0 -0.191484)
(0.00326628 0 -0.181151)
(0.00243951 0 -0.215189)
(0.00396759 0 -0.203307)
(0.00306018 0 -0.243021)
(0.00484472 0 -0.228902)
(0.0038494 0 -0.277011)
(0.00591019 0 -0.259393)
(0.00464472 0 -0.320082)
(0.00705195 0 -0.297217)
(0.00463192 0 -0.372047)
(0.00772002 0 -0.345046)
(0.0018784 0 -0.412492)
(0.00631182 0 -0.398191)
(-0.00349198 0 -0.380184)
(0.000828142 0 -0.420658)
(-0.00262751 0 -0.215852)
(-0.00294082 0 -0.333583)
(0.00937367 0 0.0580699)
(0.00881048 0 -0.101611)
(0.0277899 0 0.373117)
(0.034573 0 0.203712)
(0.0570631 0 0.670212)
(0.0749113 0 0.517918)
(0.148361 0 -0.269656)
(0.108942 0 0.754668)
(-0.0175701 0 -1.58768)
(0.213856 0 -1.48258)
(-0.122966 0 -0.294677)
(-0.228095 0 -1.52406)
(-0.0148679 0 1.00274)
(-0.0328475 0 0.941306)
(0.0142438 0 1.02502)
(0.00261127 0 0.995285)
(0.078223 0 -0.177926)
(0.0419748 0 1.00878)
(0.00398311 0 -1.42198)
(0.146789 0 -1.34559)
(-0.083534 0 -0.194698)
(-0.142211 0 -1.39081)
(-0.0234801 0 1.0235)
(-0.0495698 0 1.02799)
(-0.00847159 0 0.781593)
(-0.0498787 0 0.980517)
(0.0469036 0 -0.505763)
(0.0495936 0 0.545279)
(-0.11249 0 -0.704589)
(-0.0420944 0 -1.4895)
(-0.0167336 0 0.468759)
(-0.095695 0 0.128854)
(-0.00803172 0 0.737422)
(-0.00150747 0 0.755661)
(-0.0117515 0 0.580424)
(-0.0226656 0 0.715543)
(0.0015981 0 -0.0430251)
(-0.00474524 0 0.439143)
(-0.00213146 0 -0.0245213)
(0.000206411 0 -0.528435)
(0.00583856 0 0.562408)
(-0.000780915 0 0.478288)
(0.00258075 0 0.633333)
(0.00792951 0 0.64242)
(0.00549985 0 0.669308)
(0.00816426 0 0.62357)
(0.00820241 0 0.626629)
(0.00387537 0 0.711353)
(0.0426045 0 -0.319789)
(0.05092 0 0.52233)
(-0.0379003 0 -0.297535)
(0.00309497 0 -1.12873)
(-0.00731663 0 0.65129)
(-0.0480708 0 0.568125)
(-0.00373468 0 0.678153)
(-0.00311017 0 0.715799)
(0.00246475 0 0.676958)
(-0.000310249 0 0.634803)
(0.00593288 0 0.614912)
(-1.50983e-05 0 0.713505)
(0.0404079 0 -0.32089)
(0.0460393 0 0.496367)
(-0.0378224 0 -0.298422)
(0.00235821 0 -1.10672)
(-0.00895519 0 0.612061)
(-0.0505424 0 0.543665)
(-0.0060461 0 0.619327)
(-0.00593955 0 0.663071)
(-0.00222697 0 0.562258)
(-0.00944023 0 0.571508)
(0.000381209 0 0.553819)
(-0.00128538 0 0.549333)
(0.00267825 0 0.570948)
(0.00221572 0 0.555448)
(0.00697679 0 0.620544)
(0.0114486 0 0.582658)
(0.0192401 0 0.488219)
(0.00458614 0 0.649783)
(0.099742 0 -0.636271)
(0.0984697 0 0.280096)
(-0.0771756 0 -0.548374)
(0.0145771 0 -1.48448)
(-0.0194249 0 0.577205)
(-0.0924189 0 0.466777)
(-0.0114133 0 0.60321)
(-0.0103282 0 0.65374)
(-0.0107589 0 0.389436)
(-0.0234608 0 0.547453)
(0.000944836 0 -0.0639251)
(-0.00445981 0 0.251804)
(-0.00296065 0 -0.0282243)
(-0.00141782 0 -0.367667)
(0.00397746 0 0.37758)
(-0.00325062 0 0.294124)
(0.0023499 0 0.448615)
(0.0063769 0 0.452317)
(0.00366905 0 0.452797)
(0.00429195 0 0.444475)
(0.00813823 0 0.485312)
(0.010273 0 0.455683)
(0.0167434 0 0.548696)
(0.0200426 0 0.502237)
(0.0378165 0 0.524698)
(0.037619 0 0.566334)
(0.120932 0 -0.556259)
(0.0866181 0 0.393073)
(-0.0279077 0 -1.33191)
(0.120541 0 -1.37177)
(-0.101164 0 -0.321421)
(-0.157286 0 -1.0451)
(-0.04431 0 0.482294)
(-0.0862201 0 0.400197)
(-0.0257981 0 0.442341)
(-0.0569054 0 0.480523)
(-0.0166333 0 0.325914)
(-0.0366909 0 0.37315)
(-0.010745 0 0.220017)
(-0.0247104 0 0.262438)
(-0.00669271 0 0.132062)
(-0.0163375 0 0.167093)
(-0.00397097 0 0.0633685)
(-0.0104941 0 0.0899528)
(-0.0022743 0 0.0140252)
(-0.00659879 0 0.0322127)
(-0.00130819 0 -0.0177513)
(-0.00414635 0 -0.00688408)
(-0.000798264 0 -0.0353741)
(-0.00266657 0 -0.0301184)
(-0.000536541 0 -0.0428523)
(-0.00178525 0 -0.041445)
(-0.000394724 0 -0.0437733)
(-0.00124717 0 -0.0447605)
(-0.000306388 0 -0.0408409)
(-0.000898407 0 -0.0431752)
(-0.000241864 0 -0.03588)
(-0.000656178 0 -0.0388696)
(-0.00018974 0 -0.0300339)
(-0.000478528 0 -0.0332495)
(-0.000146657 0 -0.0239736)
(-0.000344688 0 -0.0271686)
(-0.000112812 0 -0.0180397)
(-0.000244854 0 -0.0211048)
(-9.01727e-05 0 -0.0123128)
(-0.000175282 0 -0.0152575)
(-7.69022e-05 0 -0.00678267)
(-0.000130811 0 -0.00960105)
(-0.000101796 0 -0.00422025)
(0.000199708 0 -0.0083389)
(0.000124074 0 -0.00571898)
(0.000247009 0 -0.013794)
(0.000196161 0 -0.0112594)
(0.000299392 0 -0.0194251)
(0.000245631 0 -0.0166646)
(0.000363716 0 -0.0255079)
(0.000313688 0 -0.0225623)
(0.00044544 0 -0.0320228)
(0.000403442 0 -0.0288859)
(0.000547398 0 -0.0390133)
(0.000517108 0 -0.0356561)
(0.00067178 0 -0.0465476)
(0.000657615 0 -0.0429343)
(0.000821052 0 -0.0547005)
(0.000827979 0 -0.0507947)
(0.000998368 0 -0.0635482)
(0.00103172 0 -0.0593138)
(0.00120787 0 -0.0731687)
(0.00127331 0 -0.0685689)
(0.00145496 0 -0.0836458)
(0.00155856 0 -0.0786407)
(0.00174675 0 -0.0950744)
(0.00189489 0 -0.0896188)
(0.0020925 0 -0.107567)
(0.00229185 0 -0.101607)
(0.00250442 0 -0.121262)
(0.00276165 0 -0.11473)
(0.0029987 0 -0.136331)
(0.00332001 0 -0.129144)
(0.00359689 0 -0.152999)
(0.00398711 0 -0.145047)
(0.00432758 0 -0.171571)
(0.00478872 0 -0.162697)
(0.00522691 0 -0.192483)
(0.0057564 0 -0.182453)
(0.00633379 0 -0.216414)
(0.0069247 0 -0.204835)
(0.00766527 0 -0.244489)
(0.00831805 0 -0.230654)
(0.00912971 0 -0.278568)
(0.00990755 0 -0.26123)
(0.010281 0 -0.32102)
(0.0114857 0 -0.298594)
(0.00985539 0 -0.370698)
(0.0123499 0 -0.344561)
(0.00595352 0 -0.408081)
(0.0107788 0 -0.39395)
(0.000415624 0 -0.378158)
(0.00492349 0 -0.41492)
(0.00538068 0 -0.224317)
(0.00208486 0 -0.338487)
(0.0313461 0 0.0389315)
(0.0207416 0 -0.126062)
(0.0732125 0 0.343901)
(0.0602812 0 0.166128)
(0.134092 0 0.614851)
(0.124655 0 0.465817)
(0.227654 0 -0.221925)
(0.177154 0 0.678334)
(-0.0260409 0 -1.4356)
(0.260135 0 -1.31345)
(-0.149005 0 -0.281547)
(-0.257341 0 -1.44209)
(-0.0206887 0 0.949946)
(-0.0367266 0 0.855762)
(0.0404331 0 0.987276)
(0.0148392 0 0.954537)
(0.132695 0 -0.154903)
(0.0736585 0 0.947268)
(0.0066184 0 -1.32266)
(0.196281 0 -1.26154)
(-0.141091 0 -0.165562)
(-0.189333 0 -1.29234)
(-0.0628269 0 0.9921)
(-0.0835334 0 0.975812)
(-0.0253282 0 0.751407)
(-0.0898422 0 0.955518)
(0.0414785 0 -0.450411)
(0.0593858 0 0.500741)
(-0.150688 0 -0.661899)
(-0.0596313 0 -1.36139)
(-0.0453103 0 0.429231)
(-0.140047 0 0.058602)
(-0.0244019 0 0.73215)
(-0.0026382 0 0.741722)
(-0.0240693 0 0.573725)
(-0.0409611 0 0.715321)
(0.00167967 0 -0.0450155)
(-0.00342152 0 0.421977)
(-0.00716637 0 -0.0249566)
(-0.0014001 0 -0.522538)
(0.00917392 0 0.557736)
(-0.00549359 0 0.467394)
(0.00782165 0 0.631839)
(0.0129785 0 0.643321)
(0.015336 0 0.665049)
(0.0150663 0 0.61856)
(0.0267961 0 0.611337)
(0.00748497 0 0.703713)
(0.0706284 0 -0.289038)
(0.0880972 0 0.493109)
(-0.0643758 0 -0.266341)
(0.00344652 0 -1.03873)
(-0.0236662 0 0.636081)
(-0.082053 0 0.540985)
(-0.00899602 0 0.672102)
(-0.00525036 0 0.706019)
(0.00531725 0 0.670815)
(-0.000737547 0 0.625261)
(0.020554 0 0.598998)
(0.000641559 0 0.703348)
(0.0652553 0 -0.291932)
(0.0783535 0 0.466566)
(-0.0658717 0 -0.268012)
(0.00193546 0 -1.0193)
(-0.0284594 0 0.598043)
(-0.0873425 0 0.518723)
(-0.0163542 0 0.614721)
(-0.00992742 0 0.655001)
(-0.00634807 0 0.558415)
(-0.018266 0 0.564838)
(0.000830049 0 0.550687)
(-0.00207066 0 0.544548)
(0.00741285 0 0.566703)
(0.00277979 0 0.551059)
(0.0195832 0 0.611532)
(0.0211462 0 0.574544)
(0.0486309 0 0.454842)
(0.00556318 0 0.630418)
(0.132347 0 -0.571939)
(0.145994 0 0.224285)
(-0.10792 0 -0.477032)
(0.0168841 0 -1.3243)
(-0.0494849 0 0.552545)
(-0.137474 0 0.42782)
(-0.0306676 0 0.596869)
(-0.0135716 0 0.641195)
(-0.0221974 0 0.380375)
(-0.0415537 0 0.541807)
(-0.000505272 0 -0.0654044)
(-0.0041742 0 0.234106)
(-0.00968546 0 -0.0287668)
(-0.00402392 0 -0.359811)
(0.00376614 0 0.372017)
(-0.00963864 0 0.282048)
(0.00596588 0 0.446691)
(0.00925028 0 0.450246)
(0.0109364 0 0.447493)
(0.00597999 0 0.439565)
(0.0217823 0 0.474389)
(0.016182 0 0.444445)
(0.0411103 0 0.525284)
(0.02996 0 0.48123)
(0.076416 0 0.460372)
(0.0489511 0 0.526081)
(0.142519 0 -0.466247)
(0.1216 0 0.314019)
(-0.0418246 0 -1.11522)
(0.118902 0 -1.14052)
(-0.157742 0 -0.281352)
(-0.180707 0 -0.892565)
(-0.100519 0 0.421757)
(-0.126698 0 0.32121)
(-0.0651466 0 0.412445)
(-0.0856831 0 0.429307)
(-0.0439447 0 0.308268)
(-0.0581306 0 0.340948)
(-0.0295949 0 0.207926)
(-0.0408385 0 0.239576)
(-0.0195828 0 0.123577)
(-0.0279917 0 0.150361)
(-0.0127167 0 0.0576136)
(-0.0187256 0 0.0779165)
(-0.00820738 0 0.0103451)
(-0.0123582 0 0.0239208)
(-0.00533832 0 -0.0199774)
(-0.0081599 0 -0.0124181)
(-0.00355174 0 -0.0366914)
(-0.00545299 0 -0.0337331)
(-0.0024355 0 -0.0436599)
(-0.00371389 0 -0.043814)
(-0.00171395 0 -0.0443152)
(-0.00257022 0 -0.0463667)
(-0.00122445 0 -0.0412462)
(-0.00178771 0 -0.0443182)
(-0.000876668 0 -0.0362087)
(-0.00123127 0 -0.0397214)
(-0.000621796 0 -0.0303096)
(-0.000824573 0 -0.0339043)
(-0.000433849 0 -0.0242005)
(-0.000524331 0 -0.0276751)
(-0.000299682 0 -0.0182099)
(-0.000305873 0 -0.021484)
(-0.000213636 0 -0.0124246)
(-0.000155305 0 -0.0155125)
(-0.000166672 0 -0.00691607)
(-5.72574e-05 0 -0.00974709)
(-1.15719e-05 0 -0.00436634)
(0.000121973 0 -0.00850167)
(-9.23376e-05 0 -0.00584752)
(0.000182361 0 -0.0139906)
(-1.13679e-05 0 -0.0114473)
(0.000255547 0 -0.0196475)
(5.0056e-05 0 -0.0168817)
(0.000349213 0 -0.0257738)
(0.000139938 0 -0.0228271)
(0.000469608 0 -0.0323406)
(0.000259773 0 -0.0292104)
(0.000620799 0 -0.0393857)
(0.000412087 0 -0.0360446)
(0.000806308 0 -0.046976)
(0.000601045 0 -0.0433888)
(0.00103002 0 -0.0551872)
(0.000830871 0 -0.0513172)
(0.00129672 0 -0.0640968)
(0.00110632 0 -0.0599076)
(0.00161245 0 -0.0737847)
(0.00143329 0 -0.069239)
(0.00198494 0 -0.084337)
(0.00181924 0 -0.0793944)
(0.00242399 0 -0.0958514)
(0.00227348 0 -0.0904657)
(0.00294204 0 -0.108444)
(0.00280763 0 -0.102559)
(0.00355478 0 -0.122255)
(0.00343614 0 -0.115804)
(0.00428196 0 -0.137465)
(0.0041769 0 -0.13036)
(0.00514805 0 -0.154302)
(0.0050519 0 -0.146427)
(0.0061823 0 -0.173076)
(0.00608747 0 -0.164268)
(0.00741614 0 -0.194225)
(0.00731306 0 -0.184239)
(0.00887325 0 -0.218402)
(0.00875606 0 -0.206846)
(0.0105394 0 -0.24663)
(0.010426 0 -0.232847)
(0.0122792 0 -0.280469)
(0.012269 0 -0.263412)
(0.0136256 0 -0.321575)
(0.0140456 0 -0.300204)
(0.0134112 0 -0.36801)
(0.0150535 0 -0.344317)
(0.0100618 0 -0.402314)
(0.0137757 0 -0.39031)
(0.00588112 0 -0.3779)
(0.00896308 0 -0.410588)
(0.0142182 0 -0.242473)
(0.0077287 0 -0.346723)
(0.0480265 0 0.000750236)
(0.0293311 0 -0.157898)
(0.1024 0 0.290951)
(0.0742133 0 0.117316)
(0.171189 0 0.540447)
(0.149134 0 0.406946)
(0.264936 0 -0.189759)
(0.219204 0 0.601848)
(0.00440041 0 -1.29948)
(0.277202 0 -1.13975)
(-0.137622 0 -0.286717)
(-0.220563 0 -1.34741)
(-0.0044402 0 0.876704)
(-0.029772 0 0.766974)
(0.0588203 0 0.928512)
(0.0351109 0 0.912364)
(0.155811 0 -0.14209)
(0.0973262 0 0.882608)
(0.00503541 0 -1.21586)
(0.204912 0 -1.16102)
(-0.16411 0 -0.137685)
(-0.200344 0 -1.17958)
(-0.0875279 0 0.948461)
(-0.103001 0 0.924757)
(-0.0481218 0 0.710765)
(-0.113644 0 0.929248)
(0.0178619 0 -0.410211)
(0.047946 0 0.456752)
(-0.160465 0 -0.637578)
(-0.0752348 0 -1.2425)
(-0.0560298 0 0.378851)
(-0.154805 0 -0.0110215)
(-0.0326423 0 0.724601)
(0.000448926 0 0.72613)
(-0.0297846 0 0.563191)
(-0.0536241 0 0.713416)
(0.00220868 0 -0.052186)
(0.00127104 0 0.400648)
(-0.0124956 0 -0.027716)
(-0.00350241 0 -0.512735)
(0.00774534 0 0.551777)
(-0.0115256 0 0.4539)
(0.011173 0 0.62906)
(0.0149217 0 0.641036)
(0.0216921 0 0.657239)
(0.0194229 0 0.611548)
(0.0405003 0 0.589488)
(0.00828774 0 0.691174)
(0.0841649 0 -0.251499)
(0.110784 0 0.463999)
(-0.0759025 0 -0.227241)
(0.00415436 0 -0.932018)
(-0.035164 0 0.614324)
(-0.101979 0 0.513826)
(-0.0115091 0 0.660222)
(-0.00557269 0 0.690249)
(0.00661192 0 0.65888)
(-0.00124198 0 0.613181)
(0.0307164 0 0.57515)
(0.000316866 0 0.687278)
(0.0760165 0 -0.256429)
(0.0972351 0 0.436366)
(-0.079283 0 -0.229164)
(0.00181719 0 -0.915771)
(-0.0426071 0 0.578737)
(-0.110038 0 0.494273)
(-0.0233952 0 0.605576)
(-0.0109799 0 0.642193)
(-0.0100199 0 0.551456)
(-0.0257514 0 0.555921)
(0.000389292 0 0.544994)
(-0.00228132 0 0.537608)
(0.0102324 0 0.559474)
(0.00117445 0 0.544497)
(0.0243014 0 0.595843)
(0.0270546 0 0.565165)
(0.0595088 0 0.410533)
(0.00111796 0 0.606946)
(0.135616 0 -0.518168)
(0.160217 0 0.173547)
(-0.107714 0 -0.412248)
(0.0210354 0 -1.16208)
(-0.0602748 0 0.523466)
(-0.149895 0 0.396194)
(-0.0391244 0 0.586696)
(-0.00887992 0 0.627095)
(-0.0271199 0 0.365589)
(-0.0531404 0 0.533803)
(-0.0013985 0 -0.0712576)
(-0.00114397 0 0.213121)
(-0.0150842 0 -0.0312168)
(-0.00655977 0 -0.348098)
(0.000351759 0 0.364014)
(-0.016802 0 0.26819)
(0.00604224 0 0.442422)
(0.00841987 0 0.444887)
(0.0127844 0 0.43815)
(0.00349406 0 0.432905)
(0.0247748 0 0.45626)
(0.0152817 0 0.432021)
(0.0438165 0 0.490801)
(0.02864 0 0.460533)
(0.0761377 0 0.387621)
(0.0402169 0 0.489232)
(0.135119 0 -0.391321)
(0.119238 0 0.243481)
(-0.0383005 0 -0.911922)
(0.0980111 0 -0.922963)
(-0.161218 0 -0.247891)
(-0.158323 0 -0.730817)
(-0.109759 0 0.346741)
(-0.132246 0 0.250179)
(-0.0772042 0 0.365953)
(-0.0869238 0 0.38217)
(-0.0551806 0 0.276414)
(-0.0618074 0 0.307499)
(-0.038838 0 0.184368)
(-0.0451255 0 0.213539)
(-0.0267234 0 0.106101)
(-0.0317623 0 0.130115)
(-0.0180395 0 0.0450378)
(-0.02177 0 0.0626935)
(-0.0120849 0 0.00165815)
(-0.0146826 0 0.0129714)
(-0.00811279 0 -0.0257863)
(-0.00984263 0 -0.0200797)
(-0.0055094 0 -0.0405429)
(-0.0066069 0 -0.0390005)
(-0.00377858 0 -0.0462618)
(-0.00444533 0 -0.0474873)
(-0.00259545 0 -0.0461402)
(-0.00296421 0 -0.0490005)
(-0.00176004 0 -0.0425818)
(-0.0019157 0 -0.0462689)
(-0.00115414 0 -0.0372195)
(-0.00115246 0 -0.0412055)
(-0.00070852 0 -0.0310862)
(-0.000587165 0 -0.0350492)
(-0.000382277 0 -0.0247892)
(-0.000167785 0 -0.0285543)
(-0.000150852 0 -0.0186308)
(0.000137542 0 -0.0221382)
(1.36967e-06 0 -0.0126899)
(0.000350301 0 -0.0159639)
(8.74983e-05 0 -0.00706647)
(0.000494967 0 -0.010015)
(0.000554089 0 -0.00450128)
(-0.000222214 0 -0.0086591)
(-0.000603513 0 -0.00596827)
(-0.000157581 0 -0.0142065)
(-0.000521 0 -0.0116483)
(-6.98811e-05 0 -0.0199158)
(-0.000451354 0 -0.0171418)
(4.61861e-05 0 -0.0261062)
(-0.00034471 0 -0.0231553)
(0.000196259 0 -0.0327443)
(-0.000201778 0 -0.029615)
(0.000385103 0 -0.0398637)
(-2.02602e-05 0 -0.0365299)
(0.000617201 0 -0.0475304)
(0.000204917 0 -0.0439574)
(0.000897437 0 -0.0558206)
(0.000478792 0 -0.0519717)
(0.00123164 0 -0.0648134)
(0.000806899 0 -0.0606517)
(0.00162703 0 -0.0745908)
(0.00119596 0 -0.0700782)
(0.00209254 0 -0.0852412)
(0.00165425 0 -0.0803363)
(0.00263929 0 -0.0968649)
(0.00219186 0 -0.0915203)
(0.00328092 0 -0.109581)
(0.0028211 0 -0.103739)
(0.00403416 0 -0.123534)
(0.00355686 0 -0.117125)
(0.0049192 0 -0.138906)
(0.00441712 0 -0.131839)
(0.00595982 0 -0.155929)
(0.00542317 0 -0.148085)
(0.00718262 0 -0.174912)
(0.00659927 0 -0.166125)
(0.00861343 0 -0.196279)
(0.00797043 0 -0.186311)
(0.0102666 0 -0.220641)
(0.00955611 0 -0.209128)
(0.0121152 0 -0.248909)
(0.0113537 0 -0.235279)
(0.0140118 0 -0.282356)
(0.0132941 0 -0.265792)
(0.0154984 0 -0.322088)
(0.0151271 0 -0.301982)
(0.0155262 0 -0.365783)
(0.0161888 0 -0.344348)
(0.0129122 0 -0.398207)
(0.0152065 0 -0.387469)
(0.0102013 0 -0.380337)
(0.0114383 0 -0.407779)
(0.0197926 0 -0.26467)
(0.0111958 0 -0.356197)
(0.0556567 0 -0.0445573)
(0.0329861 0 -0.191671)
(0.115551 0 0.230208)
(0.0787064 0 0.0635481)
(0.189813 0 0.46707)
(0.154869 0 0.343392)
(0.279204 0 -0.162952)
(0.239904 0 0.528917)
(0.0320859 0 -1.17544)
(0.281966 0 -0.975009)
(-0.11388 0 -0.289002)
(-0.164873 0 -1.2501)
(0.0153174 0 0.806787)
(-0.0210049 0 0.680843)
(0.0756873 0 0.871515)
(0.0589653 0 0.872117)
(0.164071 0 -0.127258)
(0.115012 0 0.823686)
(0.0012255 0 -1.11185)
(0.196242 0 -1.05246)
(-0.1684 0 -0.109137)
(-0.195299 0 -1.06649)
(-0.0997951 0 0.908357)
(-0.110078 0 0.879021)
(-0.0616815 0 0.675706)
(-0.121003 0 0.903839)
(-0.00552689 0 -0.377749)
(0.0330611 0 0.419315)
(-0.159068 0 -0.618853)
(-0.0852678 0 -1.14014)
(-0.0595762 0 0.335531)
(-0.157225 0 -0.0773494)
(-0.0350172 0 0.715832)
(0.0044172 0 0.709758)
(-0.0312284 0 0.551078)
(-0.0613795 0 0.71089)
(0.00406177 0 -0.058655)
(0.00743339 0 0.377121)
(-0.0171982 0 -0.0297978)
(-0.00534961 0 -0.498562)
(0.00384445 0 0.543169)
(-0.0179233 0 0.439872)
(0.0120639 0 0.623727)
(0.0135483 0 0.635556)
(0.0238173 0 0.646248)
(0.021044 0 0.603712)
(0.0473475 0 0.566911)
(0.00626457 0 0.675487)
(0.0886401 0 -0.212556)
(0.120219 0 0.436471)
(-0.0780574 0 -0.187152)
(0.00498103 0 -0.820886)
(-0.0409698 0 0.591088)
(-0.110052 0 0.489101)
(-0.0124095 0 0.644657)
(-0.00537502 0 0.671209)
(0.00647481 0 0.643059)
(-0.00169266 0 0.600591)
(0.0359782 0 0.549994)
(-0.000950597 0 0.667609)
(0.078631 0 -0.219444)
(0.104557 0 0.407931)
(-0.0831425 0 -0.18903)
(0.0020705 0 -0.807922)
(-0.050234 0 0.558794)
(-0.120458 0 0.472334)
(-0.0274751 0 0.593505)
(-0.0104256 0 0.62702)
(-0.0127597 0 0.542724)
(-0.0312737 0 0.546111)
(-0.00063177 0 0.537599)
(-0.00198227 0 0.529523)
(0.0104283 0 0.551159)
(-0.00212183 0 0.537124)
(0.0228498 0 0.578297)
(0.0291814 0 0.556884)
(0.060072 0 0.371403)
(-0.00574225 0 0.582131)
(0.128508 0 -0.469177)
(0.156934 0 0.127923)
(-0.0947741 0 -0.352251)
(0.0266717 0 -1.01323)
(-0.0591602 0 0.50106)
(-0.145575 0 0.372452)
(-0.0397087 0 0.575603)
(-0.000380053 0 0.614127)
(-0.0274763 0 0.349762)
(-0.0586997 0 0.525648)
(-0.00142412 0 -0.0759419)
(0.00328697 0 0.191866)
(-0.019481 0 -0.0328704)
(-0.00866144 0 -0.332645)
(-0.00395887 0 0.353901)
(-0.0242104 0 0.254256)
(0.00290224 0 0.43616)
(0.00404081 0 0.438426)
(0.00872016 0 0.428321)
(-0.00196412 0 0.427158)
(0.0185651 0 0.439041)
(0.00934572 0 0.42182)
(0.0340179 0 0.46072)
(0.0209721 0 0.443738)
(0.0626732 0 0.335585)
(0.0256772 0 0.456562)
(0.107463 0 -0.324552)
(0.0995112 0 0.189916)
(-0.0335992 0 -0.743902)
(0.0727112 0 -0.746004)
(-0.138617 0 -0.212038)
(-0.127732 0 -0.592623)
(-0.100213 0 0.288272)
(-0.118973 0 0.197168)
(-0.0717824 0 0.323737)
(-0.0751364 0 0.341005)
(-0.0526011 0 0.245017)
(-0.0554187 0 0.278366)
(-0.0379893 0 0.1597)
(-0.041064 0 0.19026)
(-0.0267007 0 0.0869813)
(-0.0290445 0 0.11125)
(-0.0183092 0 0.0307606)
(-0.019934 0 0.0479832)
(-0.0123249 0 -0.0086059)
(-0.013332 0 0.00196722)
(-0.00825001 0 -0.0329923)
(-0.00872625 0 -0.0279396)
(-0.00548772 0 -0.0455941)
(-0.00559232 0 -0.0445893)
(-0.0035908 0 -0.0498643)
(-0.00344912 0 -0.0515131)
(-0.00225385 0 -0.0487814)
(-0.00194403 0 -0.0519768)
(-0.0012845 0 -0.0445723)
(-0.000855301 0 -0.0485325)
(-0.000567042 0 -0.038748)
(-4.81702e-05 0 -0.0429628)
(-3.18421e-05 0 -0.0322647)
(0.000558193 0 -0.0364243)
(0.000363815 0 -0.0256833)
(0.00101294 0 -0.0296206)
(0.000647449 0 -0.0192797)
(0.00134671 0 -0.02294)
(0.000838433 0 -0.01312)
(0.00158291 0 -0.0165303)
(0.000951966 0 -0.0073053)
(0.00175023 0 -0.0103682)
(0.00181877 0 -0.00466636)
(-0.000899923 0 -0.0088201)
(-0.00147407 0 -0.0060875)
(-0.000830379 0 -0.0144496)
(-0.00138571 0 -0.0118647)
(-0.000730648 0 -0.0202334)
(-0.0013103 0 -0.0174376)
(-0.000597064 0 -0.0265037)
(-0.00119098 0 -0.023533)
(-0.000424585 0 -0.0332273)
(-0.00103112 0 -0.0300799)
(-0.000208038 0 -0.0404358)
(-0.000828977 0 -0.0370863)
(5.76759e-05 0 -0.0481943)
(-0.000578989 0 -0.0446083)
(0.000378023 0 -0.0565795)
(-0.00027567 0 -0.0527198)
(0.000759369 0 -0.065672)
(8.68551e-05 0 -0.0615007)
(0.0012094 0 -0.0755555)
(0.000515552 0 -0.0710333)
(0.00173746 0 -0.0863206)
(0.00101879 0 -0.0814048)
(0.00235488 0 -0.0980701)
(0.00160656 0 -0.0927112)
(0.00307531 0 -0.110925)
(0.00229077 0 -0.105064)
(0.003915 0 -0.125033)
(0.0030855 0 -0.118597)
(0.00489297 0 -0.140578)
(0.00400735 0 -0.133473)
(0.00603074 0 -0.157791)
(0.00507526 0 -0.149897)
(0.00735086 0 -0.176976)
(0.00630952 0 -0.16813)
(0.00887257 0 -0.198542)
(0.00772863 0 -0.188514)
(0.0106 0 -0.223061)
(0.00934214 0 -0.211513)
(0.0124917 0 -0.251338)
(0.0111339 0 -0.237769)
(0.0143856 0 -0.284418)
(0.0130201 0 -0.268168)
(0.0158404 0 -0.323005)
(0.0147488 0 -0.303721)
(0.0159624 0 -0.364621)
(0.0157218 0 -0.344488)
(0.0139566 0 -0.395997)
(0.0149347 0 -0.385289)
(0.0123407 0 -0.38424)
(0.0120229 0 -0.406105)
(0.0218904 0 -0.286604)
(0.0122271 0 -0.36563)
(0.0564198 0 -0.0893878)
(0.0323673 0 -0.224186)
(0.116806 0 0.169528)
(0.0763488 0 0.0093382)
(0.192872 0 0.39877)
(0.147802 0 0.278294)
(0.276353 0 -0.134792)
(0.241693 0 0.460808)
(0.0621775 0 -1.05379)
(0.276808 0 -0.832225)
(-0.0829048 0 -0.283753)
(-0.109001 0 -1.15337)
(0.0357395 0 0.744869)
(-0.0105946 0 0.601747)
(0.092173 0 0.823745)
(0.0828158 0 0.834495)
(0.164931 0 -0.101506)
(0.12833 0 0.77518)
(-0.00130754 0 -1.00567)
(0.182162 0 -0.941633)
(-0.159526 0 -0.0775683)
(-0.180894 0 -0.961013)
(-0.101172 0 0.874294)
(-0.106436 0 0.840119)
(-0.0642272 0 0.646392)
(-0.115348 0 0.879208)
(-0.0181848 0 -0.347559)
(0.0217055 0 0.38862)
(-0.150462 0 -0.603196)
(-0.0863696 0 -1.05196)
(-0.0601561 0 0.295965)
(-0.152748 0 -0.137553)
(-0.0352244 0 0.705765)
(0.00708131 0 0.693137)
(-0.0299572 0 0.537425)
(-0.0658094 0 0.707379)
(0.00703482 0 -0.062649)
(0.0140765 0 0.35246)
(-0.0213877 0 -0.0287048)
(-0.00683559 0 -0.479613)
(-0.0011385 0 0.532744)
(-0.0248244 0 0.426372)
(0.0107638 0 0.616215)
(0.00900491 0 0.627621)
(0.0223475 0 0.633614)
(0.0203465 0 0.59599)
(0.0482798 0 0.545016)
(0.00257311 0 0.658199)
(0.0858962 0 -0.172367)
(0.119452 0 0.411393)
(-0.0745278 0 -0.145168)
(0.00493183 0 -0.713937)
(-0.0431063 0 0.569299)
(-0.109702 0 0.468153)
(-0.0127241 0 0.62791)
(-0.00558976 0 0.650954)
(0.00542023 0 0.625906)
(-0.00206433 0 0.588495)
(0.0371437 0 0.525671)
(-0.00241362 0 0.64646)
(0.075195 0 -0.181002)
(0.103465 0 0.382564)
(-0.0807765 0 -0.147044)
(0.00189486 0 -0.703941)
(-0.0532856 0 0.540556)
(-0.121778 0 0.454007)
(-0.0292857 0 0.580279)
(-0.00934917 0 0.61102)
(-0.0145073 0 0.533387)
(-0.0347322 0 0.536258)
(-0.00203476 0 0.529572)
(-0.00125421 0 0.521208)
(0.00880089 0 0.543449)
(-0.00615656 0 0.5299)
(0.0181493 0 0.561511)
(0.0283284 0 0.550652)
(0.0551595 0 0.337378)
(-0.0124453 0 0.557458)
(0.116524 0 -0.421862)
(0.143897 0 0.0870136)
(-0.0775192 0 -0.293688)
(0.0328045 0 -0.883868)
(-0.0526165 0 0.484802)
(-0.132243 0 0.35585)
(-0.0358377 0 0.565072)
(0.00870098 0 0.602941)
(-0.0245764 0 0.334615)
(-0.0595887 0 0.518141)
(-0.000619752 0 -0.0772669)
(0.00838856 0 0.17232)
(-0.0236235 0 -0.0313149)
(-0.0106488 0 -0.312959)
(-0.0103852 0 0.343806)
(-0.0316839 0 0.242371)
(-0.00367009 0 0.429835)
(-0.00271022 0 0.432102)
(0.000978691 0 0.42049)
(-0.00876579 0 0.422566)
(0.0092906 0 0.426287)
(0.000967418 0 0.413208)
(0.0213493 0 0.437887)
(0.0109985 0 0.430632)
(0.046251 0 0.299471)
(0.0127354 0 0.428172)
(0.0790585 0 -0.264845)
(0.0768066 0 0.150681)
(-0.0297427 0 -0.60434)
(0.0515806 0 -0.609514)
(-0.111867 0 -0.17381)
(-0.10024 0 -0.484554)
(-0.084345 0 0.248206)
(-0.0997183 0 0.159178)
(-0.0604052 0 0.291448)
(-0.0606926 0 0.306342)
(-0.0443009 0 0.220264)
(-0.0455904 0 0.253906)
(-0.0319598 0 0.139432)
(-0.0332466 0 0.170598)
(-0.0222617 0 0.0706379)
(-0.0229499 0 0.0950426)
(-0.0149443 0 0.0181625)
(-0.015186 0 0.0351556)
(-0.00968591 0 -0.0179286)
(-0.00950776 0 -0.00770219)
(-0.00603978 0 -0.0397421)
(-0.00552166 0 -0.0349725)
(-0.00353231 0 -0.0504822)
(-0.00279622 0 -0.0496627)
(-0.00178239 0 -0.0534654)
(-0.000910731 0 -0.0552271)
(-0.000528705 0 -0.0515005)
(0.000428927 0 -0.0547679)
(0.000394508 0 -0.0466719)
(0.00140752 0 -0.0506884)
(0.00108794 0 -0.0403902)
(0.00214195 0 -0.0446614)
(0.00161192 0 -0.0335473)
(0.00270043 0 -0.0377707)
(0.00200384 0 -0.0266663)
(0.00312442 0 -0.030677)
(0.00228861 0 -0.0200023)
(0.0034397 0 -0.0237452)
(0.00248443 0 -0.0136098)
(0.00366688 0 -0.0171111)
(0.00260452 0 -0.00758303)
(0.00383319 0 -0.0107418)
(0.00390421 0 -0.00484517)
(-0.0019583 0 -0.00899306)
(-0.00274703 0 -0.00621419)
(-0.00188369 0 -0.0147175)
(-0.00265044 0 -0.0120968)
(-0.00177505 0 -0.0205883)
(-0.0025718 0 -0.0177598)
(-0.0016293 0 -0.026948)
(-0.00244425 0 -0.0239451)
(-0.00144186 0 -0.0337651)
(-0.00227369 0 -0.0305851)
(-0.00120759 0 -0.0410709)
(-0.00205939 0 -0.0376883)
(-0.000921216 0 -0.0489296)
(-0.00179577 0 -0.0453098)
(-0.000577119 0 -0.0574184)
(-0.00147733 0 -0.0535234)
(-0.000168897 0 -0.0666187)
(-0.00109831 0 -0.0624095)
(0.000311004 0 -0.076616)
(-0.000652058 0 -0.0720519)
(0.000871572 0 -0.0875027)
(-0.000130746 0 -0.082539)
(0.00152348 0 -0.0993833)
(0.00047472 0 -0.0939686)
(0.00227927 0 -0.112381)
(0.0011749 0 -0.106454)
(0.00315347 0 -0.126644)
(0.00198201 0 -0.120129)
(0.00416241 0 -0.142357)
(0.00290995 0 -0.135159)
(0.00532347 0 -0.159751)
(0.0039738 0 -0.151747)
(0.00665298 0 -0.179122)
(0.00518807 0 -0.17015)
(0.00816097 0 -0.200862)
(0.00656287 0 -0.190698)
(0.00983867 0 -0.225503)
(0.0080965 0 -0.213828)
(0.0116294 0 -0.253756)
(0.00975955 0 -0.240125)
(0.0133643 0 -0.286468)
(0.0114578 0 -0.270344)
(0.0146421 0 -0.324033)
(0.0129471 0 -0.30525)
(0.0147392 0 -0.363946)
(0.0137037 0 -0.344598)
(0.0131572 0 -0.394659)
(0.0129678 0 -0.383569)
(0.0122092 0 -0.388291)
(0.0106473 0 -0.405123)
(0.0209493 0 -0.30661)
(0.010874 0 -0.374263)
(0.0521913 0 -0.131274)
(0.0282435 0 -0.253606)
(0.109289 0 0.111033)
(0.0687863 0 -0.0419198)
(0.183236 0 0.334295)
(0.13246 0 0.215009)
(0.261968 0 -0.111398)
(0.228793 0 0.396573)
(0.0884058 0 -0.939876)
(0.263579 0 -0.716517)
(-0.0516938 0 -0.27301)
(-0.0618996 0 -1.05997)
(0.055552 0 0.689575)
(0.00188806 0 0.530249)
(0.107194 0 0.784632)
(0.104207 0 0.800067)
(0.163585 0 -0.0673707)
(0.138206 0 0.737586)
(-0.00034005 0 -0.900504)
(0.169436 0 -0.83235)
(-0.14281 0 -0.04553)
(-0.160988 0 -0.866033)
(-0.0928403 0 0.844535)
(-0.0938942 0 0.806806)
(-0.0589497 0 0.621085)
(-0.100197 0 0.856615)
(-0.0236151 0 -0.319602)
(0.0149873 0 0.365064)
(-0.136934 0 -0.590177)
(-0.078566 0 -0.976412)
(-0.0584418 0 0.259379)
(-0.144797 0 -0.189881)
(-0.0349393 0 0.695092)
(0.00745624 0 0.677468)
(-0.0276851 0 0.522718)
(-0.0684869 0 0.702543)
(0.00980764 0 -0.0643185)
(0.0202568 0 0.327465)
(-0.0255719 0 -0.0244625)
(-0.00836904 0 -0.456027)
(-0.00665601 0 0.521587)
(-0.032139 0 0.413762)
(0.00769538 0 0.607749)
(0.00228378 0 0.618054)
(0.018627 0 0.620793)
(0.0178248 0 0.588702)
(0.0450949 0 0.524299)
(-0.0016387 0 0.640554)
(0.0790486 0 -0.132511)
(0.11236 0 0.388757)
(-0.0690703 0 -0.102912)
(0.00384021 0 -0.615191)
(-0.042823 0 0.549605)
(-0.104485 0 0.450655)
(-0.0128216 0 0.611637)
(-0.00602766 0 0.630953)
(0.00412599 0 0.609139)
(-0.0023736 0 0.577196)
(0.0356651 0 0.503119)
(-0.00328317 0 0.625434)
(0.0686811 0 -0.142473)
(0.0975789 0 0.360553)
(-0.0757965 0 -0.104913)
(0.00116995 0 -0.607623)
(-0.0529671 0 0.524292)
(-0.117383 0 0.438787)
(-0.0294488 0 0.567209)
(-0.00778916 0 0.595341)
(-0.0153258 0 0.524282)
(-0.0363502 0 0.526843)
(-0.0034974 0 0.521835)
(-0.000153769 0 0.513323)
(0.00622255 0 0.537227)
(-0.0100677 0 0.52342)
(0.0122704 0 0.546633)
(0.0255053 0 0.54662)
(0.0471055 0 0.306225)
(-0.0178323 0 0.534234)
(0.104299 0 -0.380463)
(0.126848 0 0.0488845)
(-0.0591489 0 -0.23976)
(0.039636 0 -0.774903)
(-0.0429869 0 0.473165)
(-0.11405 0 0.345075)
(-0.0297868 0 0.556131)
(0.0167721 0 0.594141)
(-0.0199652 0 0.321221)
(-0.0572974 0 0.511593)
(0.000462791 0 -0.0748725)
(0.0133454 0 0.155654)
(-0.0277299 0 -0.0259186)
(-0.0128715 0 -0.288831)
(-0.0179647 0 0.335243)
(-0.0386711 0 0.233605)
(-0.0112089 0 0.424229)
(-0.0104207 0 0.42574)
(-0.00640704 0 0.414387)
(-0.0162089 0 0.417823)
(0.000406195 0 0.417116)
(-0.00799856 0 0.406148)
(0.00926024 0 0.419565)
(0.000762911 0 0.421008)
(0.0316633 0 0.270497)
(0.00272156 0 0.40263)
(0.0577204 0 -0.217608)
(0.0571384 0 0.119519)
(-0.0255122 0 -0.494214)
(0.0369483 0 -0.505101)
(-0.0889852 0 -0.141398)
(-0.0780386 0 -0.40103)
(-0.0681469 0 0.21808)
(-0.0807962 0 0.130414)
(-0.0478801 0 0.265705)
(-0.0471289 0 0.276997)
(-0.0343717 0 0.200853)
(-0.034891 0 0.233389)
(-0.0240457 0 0.123416)
(-0.0240782 0 0.154147)
(-0.0158911 0 0.0575056)
(-0.0154451 0 0.0814146)
(-0.00973593 0 0.00790658)
(-0.00899918 0 0.0243654)
(-0.00532649 0 -0.025596)
(-0.00427905 0 -0.0158105)
(-0.00226651 0 -0.0453482)
(-0.000986762 0 -0.0408749)
(-0.000159039 0 -0.0545859)
(0.00125153 0 -0.0539268)
(0.00131331 0 -0.0565288)
(0.0027961 0 -0.058352)
(0.00237437 0 -0.0538505)
(0.00389271 0 -0.0571301)
(0.0031626 0 -0.0485172)
(0.00469561 0 -0.0525292)
(0.00376071 0 -0.0418575)
(0.00530289 0 -0.0461266)
(0.00421809 0 -0.0347118)
(0.00577005 0 -0.038946)
(0.0045652 0 -0.0275738)
(0.00613006 0 -0.0316127)
(0.00482234 0 -0.0206829)
(0.00640319 0 -0.0244723)
(0.00500399 0 -0.0140827)
(0.00660534 0 -0.0176499)
(0.00511935 0 -0.00785916)