/*--------------------------------*- C++ -*----------------------------------*\
  =========                 |
  \\      /  F ield         | OpenFOAM: The Open Source CFD Toolbox
   \\    /   O peration     | Website:  https://openfoam.org
    \\  /    A nd           | Version:  9
     \\/     M anipulation  |
\*---------------------------------------------------------------------------*/
FoamFile
{
    format      ascii;
    class       surfaceScalarField;
    location    "0.01";
    object      alphaPhi0.water;
}
// * * * * * * * * * * * * * * * * * * * * * * * * * * * * * * * * * * * * * //

dimensions      [0 3 -1 0 0 0 0];

internalField   nonuniform List<scalar> 
9850
(
-1.03538e-23
1.59751e-22
-8.488e-22
2.70259e-20
-1.72598e-20
5.11185e-19
-9.89791e-20
3.98166e-18
-5.64961e-19
1.67019e-17
0
1.61022e-16
0
2.84276e-15
0
6.44302e-14
0
1.18002e-12
-4.76733e-13
1.98087e-11
1.35521e-11
1.56132e-10
9.45501e-10
2.33201e-10
1.20261e-07
8.36056e-08
2.87352e-07
8.71655e-07
2.84723e-07
9.76843e-07
3.22986e-07
9.41795e-07
3.54263e-07
9.83737e-07
3.69101e-07
1.01351e-06
3.75496e-07
1.02072e-06
3.78865e-07
1.02238e-06
3.80511e-07
8.37348e-07
3.81369e-07
8.00556e-07
3.81336e-07
7.66233e-07
3.8035e-07
7.34703e-07
3.79988e-07
7.02878e-07
3.85576e-07
6.60941e-07
4.02795e-07
6.03451e-07
4.25097e-07
5.52204e-07
4.27057e-07
5.53103e-07
2.17357e-07
5.55364e-07
0
1.33388e-07
0
4.21283e-09
0
8.31108e-10
0
1.94508e-10
0
4.92487e-11
0
1.11871e-11
0
2.50285e-12
0
5.90431e-13
0
1.42431e-13
0
3.51091e-14
0
8.75533e-15
7.90854e-17
2.14591e-15
8.55843e-17
6.59782e-16
7.07345e-17
3.83453e-16
4.86647e-17
2.45072e-16
2.74953e-17
1.40041e-16
1.34372e-17
6.95975e-17
6.03239e-18
3.10906e-17
2.36716e-18
1.27476e-17
3.59153e-18
-1.4423e-23
5.04214e-22
-1.1363e-21
5.07874e-20
-2.05886e-20
8.13777e-19
-9.08889e-20
5.22924e-18
-4.19537e-19
1.70668e-17
0
1.50711e-16
0
2.77532e-15
0
7.08186e-14
0
1.38849e-12
1.65387e-13
2.8049e-11
1.76954e-11
2.354e-10
8.11256e-10
1.08649e-10
1.17275e-07
4.16451e-08
2.67581e-07
8.13421e-07
2.59754e-07
9.85107e-07
3.13653e-07
8.87896e-07
3.54902e-07
9.42487e-07
3.71637e-07
9.96774e-07
3.77512e-07
1.01485e-06
3.80455e-07
1.01944e-06
3.82071e-07
8.35732e-07
3.83073e-07
7.99554e-07
3.83056e-07
7.6625e-07
3.81355e-07
7.36404e-07
3.78874e-07
7.05359e-07
3.80848e-07
6.58967e-07
3.92844e-07
5.91448e-07
4.0701e-07
5.37995e-07
3.98149e-07
5.61093e-07
1.52741e-07
5.06049e-07
0
6.6058e-08
0
1.65387e-09
0
6.35478e-10
0
1.35378e-10
0
4.09905e-11
0
1.01698e-11
0
2.38435e-12
0
5.71989e-13
0
1.37551e-13
0
3.36254e-14
0
8.37144e-15
3.94542e-17
2.0924e-15
4.77228e-17
6.33576e-16
4.06581e-17
3.73323e-16
2.75054e-17
2.32186e-16
1.49869e-17
1.25217e-16
7.1005e-18
5.84636e-17
3.13881e-18
2.511e-17
1.17014e-18
9.94195e-18
2.28527e-18
-7.99788e-24
1.4157e-21
-9.60417e-22
8.1753e-20
-1.85774e-20
1.14942e-18
-7.20524e-20
6.6485e-18
-2.84107e-19
1.84372e-17
0
1.53291e-16
0
3.11708e-15
0
8.5773e-14
0
1.77804e-12
3.41519e-12
3.84545e-11
3.68452e-11
3.81731e-10
2.7565e-10
2.9324e-10
6.19925e-08
6.73877e-09
2.9716e-07
6.40383e-07
2.68754e-07
1.01521e-06
3.18786e-07
8.37865e-07
3.60378e-07
9.00893e-07
3.76584e-07
9.80568e-07
3.80951e-07
1.01048e-06
3.82677e-07
1.01771e-06
3.8391e-07
8.34499e-07
3.85432e-07
7.98033e-07
3.87101e-07
7.64581e-07
3.87125e-07
7.36379e-07
3.8205e-07
7.10435e-07
3.70763e-07
6.70252e-07
3.55868e-07
6.0633e-07
3.42242e-07
5.5153e-07
3.19949e-07
5.79791e-07
6.1337e-08
2.99456e-07
0
7.22583e-09
0
6.36257e-10
-1.35113e-11
4.6671e-10
-3.26159e-12
8.58113e-11
-6.67004e-13
2.7243e-11
-8.13901e-14
7.28166e-12
0
1.79872e-12
0
4.35654e-13
0
1.03607e-13
0
2.48812e-14
0
6.15362e-15
1.10929e-17
1.61746e-15
1.29246e-17
5.41012e-16
1.11985e-17
3.3231e-16
7.15044e-18
1.9089e-16
3.64262e-18
9.2611e-17
1.66423e-18
4.01484e-17
7.0902e-19
1.62609e-17
2.3634e-19
5.7526e-18
9.5404e-19
1.13565e-23
2.93828e-21
1.20959e-24
1.09884e-19
-8.02787e-21
1.38519e-18
-4.1772e-20
8.18752e-18
-1.7505e-19
2.41888e-17
0
2.10461e-16
0
4.41638e-15
0
1.07926e-13
0
2.03973e-12
2.57998e-12
4.77118e-11
5.63852e-11
3.81067e-10
1.85089e-10
3.61986e-10
6.48236e-09
6.778e-10
3.85203e-07
3.30893e-07
3.79231e-07
1.06538e-06
3.67301e-07
8.49838e-07
3.76364e-07
8.91824e-07
3.82827e-07
9.74105e-07
3.84611e-07
1.0087e-06
3.85073e-07
1.01725e-06
3.86009e-07
8.33564e-07
3.89367e-07
7.94674e-07
3.96972e-07
7.56976e-07
4.06156e-07
7.27196e-07
4.04867e-07
7.11724e-07
3.79658e-07
6.95458e-07
3.36422e-07
6.49551e-07
2.97727e-07
5.89518e-07
2.24761e-07
4.47232e-07
0
6.75048e-08
0
3.89657e-09
-5.25363e-11
3.649e-10
-3.39732e-11
2.53617e-10
-7.33107e-12
2.61333e-11
-2.24337e-12
1.47808e-11
-4.74766e-13
2.85899e-12
-1.0544e-13
8.23039e-13
-2.26079e-14
1.72062e-13
-4.92752e-15
4.33352e-14
-1.04668e-15
9.98522e-15
-2.18831e-16
2.72131e-15
-5.26233e-17
9.02051e-16
-2.43353e-17
4.10505e-16
-1.31356e-17
2.50224e-16
-6.34131e-18
1.25486e-16
-2.76955e-18
5.46998e-17
-1.14758e-18
2.22997e-17
-4.26737e-19
8.46406e-18
-9.43519e-20
2.55461e-18
2.6695e-19
5.0124e-23
4.47993e-21
9.95945e-22
1.19149e-19
6.11175e-21
1.42602e-18
7.17748e-21
9.55044e-18
-4.06028e-20
3.78036e-17
0
3.48862e-16
0
6.37126e-15
0
1.16267e-13
9.86117e-14
2.15444e-12
7.6499e-12
3.9565e-11
5.65711e-11
2.19353e-10
1.02871e-10
2.77757e-10
6.71525e-10
1.61928e-10
3.45052e-07
1.02471e-07
5.28807e-07
8.41055e-07
4.54252e-07
9.24907e-07
4.06562e-07
9.39515e-07
3.87984e-07
9.9268e-07
3.86591e-07
1.01009e-06
3.87121e-07
1.01672e-06
3.88203e-07
8.32482e-07
3.94305e-07
7.88572e-07
4.11141e-07
7.40139e-07
4.36458e-07
7.01878e-07
4.49163e-07
6.99017e-07
4.27888e-07
7.16723e-07
3.86202e-07
6.90963e-07
3.61424e-07
5.8763e-07
7.37861e-08
1.44893e-07
0
1.8138e-09
0
8.99568e-10
-3.77983e-11
1.69736e-10
-1.37807e-11
3.44757e-11
-5.65587e-12
8.78881e-12
-1.44499e-12
2.40056e-12
-3.38899e-13
5.71441e-13
-8.00356e-14
1.71859e-13
-1.68296e-14
3.67743e-14
-3.89704e-15
9.01314e-15
-8.99554e-16
2.50818e-15
-2.32292e-16
1.06713e-15
-8.39894e-17
5.32303e-16
-4.40677e-17
2.87847e-16
-2.20024e-17
1.53525e-16
-9.76304e-18
6.70429e-17
-4.08663e-18
2.71487e-17
-1.61845e-18
1.04961e-17
-5.22952e-19
3.62435e-18
-7.79496e-20
8.77966e-19
5.68307e-20
1.01988e-22
5.1037e-21
2.01815e-21
1.19669e-19
1.84677e-20
1.40441e-18
9.79321e-20
1.0122e-17
4.28617e-19
5.67929e-17
8.04111e-18
4.78695e-16
1.20973e-16
7.08758e-15
1.83871e-15
1.1568e-13
1.1509e-13
2.23776e-12
1.86372e-12
2.08667e-11
6.32093e-12
8.24501e-11
3.65831e-11
2.86606e-10
7.96899e-11
1.37052e-10
1.30246e-07
8.422e-09
5.46704e-07
3.127e-07
5.02746e-07
9.66424e-07
4.2288e-07
1.01937e-06
3.87243e-07
1.02829e-06
3.85916e-07
1.01141e-06
3.88371e-07
1.01426e-06
3.88819e-07
8.32033e-07
3.93991e-07
7.83399e-07
4.12928e-07
7.21195e-07
4.44821e-07
6.69977e-07
4.64464e-07
6.79353e-07
4.42288e-07
7.38609e-07
3.93414e-07
7.30985e-07
1.12091e-07
2.56329e-07
6.26714e-10
2.0634e-09
-2.30856e-11
0
-7.05218e-11
1.15686e-10
-1.98296e-11
7.80807e-11
-4.97512e-12
1.40431e-11
-1.26823e-12
2.0074e-12
-3.39863e-13
6.9433e-13
-9.86245e-14
1.87147e-13
-2.1332e-14
4.7354e-14
-5.02073e-15
1.1384e-14
-1.22448e-15
2.8935e-15
-3.76866e-16
8.10327e-16
-1.60447e-16
5.18061e-16
-7.98366e-17
3.25899e-16
-4.03343e-17
1.70473e-16
-1.80922e-17
7.70044e-17
-7.60164e-18
3.12591e-17
-3.0734e-18
1.22415e-17
-1.12079e-18
4.46018e-18
-2.93509e-19
1.33644e-18
-2.85419e-20
2.48932e-19
1.07795e-20
1.4758e-22
5.16494e-21
2.90185e-21
1.12019e-19
2.94114e-20
1.30514e-18
1.93836e-19
1.01565e-17
1.23924e-18
6.62255e-17
2.36596e-17
5.06612e-16
4.7832e-16
7.06299e-15
7.26081e-15
1.13386e-13
5.58108e-14
1.82513e-12
3.47664e-13
1.21103e-11
-9.2556e-13
8.84968e-11
-1.19906e-12
2.89909e-10
0
6.53093e-10
0
2.11882e-09
2.41238e-07
4.12647e-08
4.3429e-07
5.92775e-07
4.04975e-07
1.04855e-06
3.80259e-07
1.05299e-06
3.83887e-07
1.00774e-06
3.88312e-07
1.00981e-06
3.85892e-07
8.3442e-07
3.82356e-07
7.86912e-07
3.83537e-07
7.19971e-07
3.87505e-07
6.6592e-07
3.74202e-07
6.91918e-07
2.98709e-07
7.7197e-07
8.7675e-08
2.68219e-07
6.57947e-10
2.57913e-09
0
1.2596e-10
-9.9219e-11
0
-7.26323e-11
3.31664e-11
-9.71819e-12
2.32259e-11
-1.52373e-12
3.86042e-12
-4.96783e-13
5.57718e-13
-1.28213e-13
2.07721e-13
-3.4763e-14
5.67001e-14
-8.04434e-15
1.48887e-14
-1.86675e-15
3.54943e-15
-4.87636e-16
1.03151e-15
-1.94525e-16
4.38909e-16
-1.12789e-16
3.08521e-16
-5.86525e-17
1.86136e-16
-2.69249e-17
8.63536e-17
-1.14761e-17
3.594e-17
-4.72496e-18
1.44011e-17
-1.81197e-18
5.44779e-18
-5.72498e-19
1.79032e-18
-1.1564e-19
4.37718e-19
-7.63017e-21
6.19226e-20
2.51247e-21
1.82411e-22
4.92703e-21
3.42431e-21
9.46937e-20
3.65554e-20
1.10638e-18
2.78297e-19
9.56253e-18
2.00697e-18
6.69991e-17
3.7154e-17
5.06801e-16
8.18807e-16
6.23982e-15
9.26244e-15
1.04848e-13
1.03953e-13
7.1744e-13
1.25888e-12
1.64862e-11
0
3.78533e-10
0
2.66351e-10
7.07969e-10
2.14564e-09
5.6006e-09
4.9648e-10
4.5164e-08
5.4035e-12
2.66677e-07
3.39501e-08
3.67035e-07
7.68652e-07
3.72798e-07
1.04608e-06
3.77218e-07
1.00308e-06
3.85712e-07
1.00097e-06
3.85042e-07
8.34879e-07
3.80765e-07
7.90908e-07
3.66457e-07
7.33495e-07
3.33231e-07
6.95708e-07
2.12345e-07
5.65517e-07
4.70882e-08
1.33819e-07
1.74048e-10
2.69896e-09
2.64394e-11
1.16166e-10
-9.42681e-12
0
-2.76739e-11
0
-1.93211e-11
9.49918e-12
-2.91965e-12
3.62952e-12
-4.37125e-13
7.7714e-13
-1.53731e-13
1.42982e-13
-4.02941e-14
5.88851e-14
-1.10791e-14
1.61678e-14
-2.49885e-15
4.50219e-15
-6.2442e-16
1.21405e-15
-2.16356e-16
4.59774e-16
-1.26475e-16
2.91182e-16
-7.55989e-17
1.90453e-16
-3.65228e-17
9.86205e-17
-1.60216e-17
4.27003e-17
-6.76047e-18
1.76267e-17
-2.68085e-18
6.8947e-18
-9.19459e-19
2.39173e-18
-2.35099e-19
6.61138e-19
-3.58278e-20
1.25135e-19
-1.93357e-21
1.35807e-20
6.1097e-22
1.97479e-22
4.16904e-21
3.41032e-21
7.15502e-20
3.8368e-20
8.5917e-19
3.32538e-19
8.188e-18
2.61016e-18
6.34875e-17
4.43855e-17
4.60693e-16
8.62913e-16
5.30258e-15
6.38172e-15
5.18833e-14
1.91124e-13
1.84519e-13
1.93005e-12
2.09448e-11
0
3.68946e-10
-1.04707e-11
3.01557e-10
2.04665e-09
1.03181e-09
2.36993e-09
8.43359e-10
1.42025e-09
1.16815e-10
1.67746e-08
1.48297e-09
2.78762e-07
2.23429e-08
3.44873e-07
6.03691e-07
3.55568e-07
9.10657e-07
3.80252e-07
9.71058e-07
4.06082e-07
8.04686e-07
4.34353e-07
6.91404e-07
4.08541e-07
5.007e-07
2.12682e-07
2.56149e-07
3.22346e-08
2.45667e-09
2.12188e-11
9.4705e-10
2.99036e-11
0
0
3.51042e-12
-3.60469e-12
0
-4.92661e-12
0
-2.70254e-12
2.28264e-12
-5.60388e-13
9.34951e-13
-1.12826e-13
2.23855e-13
-4.40312e-14
4.39788e-14
-1.22323e-14
1.71198e-14
-3.37729e-15
4.69153e-15
-8.03317e-16
1.47452e-15
-2.63636e-16
5.04557e-16
-1.40765e-16
2.97128e-16
-8.95011e-17
2.05959e-16
-4.78838e-17
1.148e-16
-2.19208e-17
5.28588e-17
-9.5008e-18
2.24384e-17
-3.86326e-18
9.00363e-18
-1.38392e-18
3.22235e-18
-3.93574e-19
9.481e-19
-7.71735e-20
2.05341e-19
-8.94867e-21
2.93477e-20
-4.7297e-22
2.61961e-21
1.41973e-22
1.82984e-22
3.08316e-21
2.99983e-21
5.03565e-20
3.54322e-20
6.21873e-19
3.39039e-19
6.31094e-18
2.90377e-18
5.34906e-17
3.49687e-17
4.01088e-16
4.08882e-16
3.78489e-15
3.09741e-15
1.41349e-14
1.91418e-13
1.21188e-13
4.97673e-12
2.17626e-11
2.32044e-11
1.16311e-10
4.17815e-11
4.78029e-10
-2.46369e-11
1.83236e-09
-4.10263e-13
0
2.55985e-11
2.03628e-12
1.02755e-09
0
1.80381e-08
3.68615e-10
1.42808e-07
9.04046e-09
2.24266e-07
6.36972e-08
2.54769e-07
1.97933e-07
2.79267e-07
1.34542e-07
2.1265e-07
4.77842e-08
8.88761e-08
1.52175e-09
1.38741e-08
7.22901e-10
1.23429e-09
0
1.96087e-10
0
2.83559e-12
0
0
1.86871e-13
-9.78017e-13
2.94271e-13
-1.22669e-12
4.77362e-14
-6.71342e-13
5.64317e-13
-1.5802e-13
2.40121e-13
-3.56185e-14
5.60723e-14
-1.33566e-14
1.22933e-14
-3.62048e-15
4.81333e-15
-1.02143e-15
1.52692e-15
-3.09854e-16
5.86031e-16
-1.63481e-16
3.19787e-16
-1.07236e-16
2.28321e-16
-6.20838e-17
1.39662e-16
-2.99566e-17
6.80637e-17
-1.32599e-17
2.9255e-17
-5.47623e-18
1.18815e-17
-2.00066e-18
4.30958e-18
-5.9791e-19
1.29955e-18
-1.31773e-19
3.0016e-19
-1.96426e-20
4.90178e-20
-1.97079e-21
5.85195e-21
-1.10601e-22
5.85073e-22
3.18645e-23
1.51049e-22
2.1138e-21
2.41471e-21
3.37152e-20
2.97248e-20
4.2722e-19
3.03888e-19
4.51276e-18
2.71107e-18
3.92932e-17
2.41111e-17
3.18322e-16
2.88488e-16
2.10312e-15
3.69605e-15
1.1206e-14
6.70031e-13
3.49612e-13
4.66838e-12
4.79876e-11
3.04779e-11
3.70612e-11
1.44089e-10
8.17969e-10
7.31658e-10
1.40477e-09
6.97929e-13
2.1115e-10
-1.03962e-12
6.55381e-13
3.3439e-11
2.95277e-12
2.52925e-10
1.45297e-11
4.55801e-09
3.60441e-10
9.43394e-09
6.32454e-10
1.20957e-08
4.43152e-10
9.97231e-09
2.23804e-10
5.46269e-09
1.25892e-10
2.71372e-09
0
8.28262e-10
0
1.57863e-10
0
3.08222e-11
0
0
1.26238e-12
-2.99327e-13
1.87043e-13
-2.71226e-13
1.46595e-14
-3.13615e-13
3.75197e-14
-1.73026e-13
1.48378e-13
-4.01045e-14
6.24247e-14
-1.01141e-14
1.44715e-14
-3.71435e-15
3.57094e-15
-1.0551e-15
1.56221e-15
-3.75927e-16
6.16727e-16
-1.89267e-16
3.5812e-16
-1.2841e-16
2.5562e-16
-8.03233e-17
1.69377e-16
-4.10088e-17
8.87848e-17
-1.82648e-17
3.88481e-17
-7.55941e-18
1.54638e-17
-2.76868e-18
5.60731e-18
-8.40255e-19
1.69058e-18
-1.9581e-19
3.99433e-19
-3.30875e-20
7.01661e-20
-4.29445e-21
9.79388e-21
-4.58365e-22
1.30472e-21
-2.49547e-23
1.33253e-22
6.95158e-24
1.14531e-22
1.37044e-21
1.81829e-21
2.17633e-20
2.32688e-20
2.84323e-19
2.48957e-19
3.10391e-18
2.22274e-18
2.69077e-17
1.83957e-17
2.14834e-16
2.23229e-16
1.36367e-15
6.97277e-15
4.82785e-15
3.02055e-13
1.45065e-12
5.56197e-12
5.97575e-11
4.65707e-11
3.46872e-11
3.2512e-10
1.20588e-09
-1.95066e-10
3.77017e-10
-8.06193e-13
1.15379e-11
-1.56049e-13
6.65057e-14
4.11151e-13
0
8.64687e-12
1.1157e-14
2.88891e-10
0
6.07649e-10
1.35775e-11
6.19006e-10
1.43977e-11
4.90856e-10
3.59334e-12
3.10295e-10
0
1.64171e-10
0
8.06023e-11
0
2.29008e-11
0
2.32257e-12
0
7.26105e-16
5.34149e-13
-1.09418e-13
1.07712e-13
-7.94948e-14
7.37369e-15
-8.55405e-14
1.28172e-14
-4.54463e-14
3.94175e-14
-1.07376e-14
1.64246e-14
-2.89621e-15
3.8074e-15
-1.07702e-15
1.25839e-15
-3.97499e-16
6.51225e-16
-2.20795e-16
3.9136e-16
-1.51986e-16
2.88238e-16
-1.01322e-16
2.02136e-16
-5.50275e-17
1.13506e-16
-2.48338e-17
5.10154e-17
-1.00184e-17
1.98544e-17
-3.63552e-18
6.93407e-18
-1.09713e-18
2.07615e-18
-2.61299e-19
4.89396e-19
-4.76282e-20
8.98379e-20
-7.19897e-21
1.41039e-20
-1.00049e-21
2.19734e-21
-1.04225e-22
3.014e-22
-5.47626e-24
2.93385e-23
1.48464e-24
8.14884e-23
8.56313e-22
1.31321e-21
1.39036e-20
1.75908e-20
1.89736e-19
1.96249e-19
2.15719e-18
1.74883e-18
1.87842e-17
1.46886e-17
1.54464e-16
1.9173e-16
1.15595e-15
5.39639e-15
3.40897e-15
1.10931e-12
1.57473e-12
4.58676e-12
1.53628e-11
4.51675e-11
2.47744e-11
2.20193e-10
1.30982e-09
-1.06242e-11
3.60736e-10
-1.09054e-13
7.22086e-13
-4.87568e-14
3.50006e-15
9.63278e-15
3.58116e-14
8.39056e-13
-2.38417e-13
7.67114e-12
-2.49647e-14
2.35703e-11
0
2.93197e-11
0
2.79365e-11
2.61939e-13
2.56554e-11
1.63229e-12
1.46418e-11
0
7.29438e-12
0
2.48666e-12
0
1.02711e-13
2.45571e-13
-7.65581e-14
1.10007e-13
-3.15685e-14
2.9267e-14
-2.2883e-14
5.92033e-15
-2.39295e-14
5.86245e-15
-1.20297e-14
1.09068e-14
-2.91198e-15
4.42964e-15
-8.89662e-16
1.20626e-15
-4.21704e-16
5.96563e-16
-2.42265e-16
4.35889e-16
-1.76229e-16
3.18458e-16
-1.23202e-16
2.34973e-16
-7.08552e-17
1.39613e-16
-3.27076e-17
6.48066e-17
-1.28513e-17
2.48341e-17
-4.47557e-18
8.24689e-18
-1.33723e-18
2.37538e-18
-3.19358e-19
5.62118e-19
-6.14514e-20
1.06073e-19
-1.0455e-20
1.84106e-20
-1.68131e-21
3.20712e-21
-2.29853e-22
5.1346e-22
-2.31152e-23
6.71041e-23
-1.17475e-24
6.34991e-24
3.12185e-25
5.62116e-23
5.36281e-22
9.43797e-22
9.13555e-21
1.33758e-20
1.31553e-19
1.57603e-19
1.58128e-18
1.45883e-18
1.45685e-17
1.32152e-17
1.28789e-16
1.8481e-16
9.76972e-16
4.87749e-15
2.89514e-15
2.71772e-13
1.91044e-12
1.51923e-12
2.77783e-12
1.64584e-11
1.20818e-11
1.30009e-10
1.20188e-09
-6.61972e-13
3.11709e-10
-2.15726e-14
5.67048e-14
-4.11069e-14
7.08497e-15
-1.25101e-14
-1.07258e-14
1.54137e-13
-4.46992e-14
2.74651e-13
-4.18757e-14
1.09545e-12
-1.08714e-16
1.36081e-12
0
1.51711e-12
0
1.53977e-12
3.23321e-13
1.82328e-12
0
1.4174e-12
0
1.22694e-13
0
-3.72186e-14
7.83273e-14
-2.14696e-14
2.73982e-14
-8.33125e-15
7.57935e-15
-6.46187e-15
2.72574e-15
-6.85544e-15
2.48969e-15
-3.26987e-15
3.42331e-15
-8.62038e-16
1.40672e-15
-3.8034e-16
5.4841e-16
-2.63062e-16
4.34908e-16
-1.96188e-16
3.54493e-16
-1.43045e-16
2.59135e-16
-8.67293e-17
1.64034e-16
-4.10639e-17
7.87753e-17
-1.58932e-17
2.98976e-17
-5.26851e-18
9.52344e-18
-1.51874e-18
2.59803e-18
-3.67066e-19
6.07646e-19
-7.35837e-20
1.19974e-19
-1.37435e-20
2.2433e-20
-2.45635e-21
4.25683e-21
-3.8885e-22
7.5675e-22
-5.1574e-23
1.15629e-22
-5.0183e-24
1.46697e-23
-2.48038e-25
1.35324e-24
6.47208e-26
3.93449e-23
3.52086e-22
6.99457e-22
6.33568e-21
1.05181e-20
9.59671e-20
1.32571e-19
1.22803e-18
1.324e-18
1.23516e-17
1.27814e-17
1.12309e-16
2.83794e-16
6.81602e-16
1.42191e-14
5.63029e-15
4.08278e-13
1.531e-12
6.83213e-13
1.84013e-12
5.94167e-11
1.46436e-11
4.42529e-11
5.77254e-10
-4.88782e-14
0
-6.08306e-15
1.26789e-14
-2.02051e-15
4.35142e-15
-3.17664e-16
-3.72011e-15
1.12739e-15
-1.42872e-14
2.15812e-15
-3.26332e-14
1.44697e-15
-9.70348e-16
8.57348e-14
4.32924e-15
1.16925e-13
7.68285e-15
3.18669e-13
5.99913e-14
3.65251e-13
3.03456e-14
1.38586e-13
0
-1.43825e-14
2.56725e-14
-1.48851e-14
1.68113e-14
-5.70793e-15
7.13413e-15
-2.50192e-15
2.27169e-15
-2.08462e-15
1.31542e-15
-2.08756e-15
1.18639e-15
-9.45531e-16
1.265e-15
-3.50636e-16
6.10851e-16
-2.51349e-16
4.02647e-16
-2.10757e-16
3.65116e-16
-1.58367e-16
2.82733e-16
-1.00695e-16
1.81801e-16
-4.90828e-17
9.18899e-17
-1.88373e-17
3.4714e-17
-6.01522e-18
1.0712e-17
-1.65552e-18
2.79508e-18
-3.99564e-19
6.37423e-19
-8.42713e-20
1.30861e-19
-1.68214e-20
2.61197e-20
-3.25383e-21
5.27892e-21
-5.71243e-22
1.01214e-21
-8.79241e-23
1.72065e-22
-1.13417e-23
2.55708e-23
-1.07043e-24
3.17526e-24
-5.1632e-26
2.85332e-25
1.32778e-26
2.88795e-23
2.46336e-22
5.40844e-22
4.61303e-21
8.54764e-21
7.24932e-20
1.15366e-19
9.84169e-19
1.25444e-18
1.07865e-17
1.19455e-17
9.78259e-17
2.70084e-16
4.5787e-16
2.12592e-14
4.26316e-15
2.2e-13
3.17181e-13
8.49727e-13
1.17016e-12
3.16269e-11
2.9451e-11
2.28045e-11
1.33482e-10
-2.01517e-12
0
-5.25573e-15
7.56208e-13
-3.72186e-15
3.87471e-15
-7.55462e-16
-3.59121e-15
3.76242e-15
-5.92171e-14
1.5422e-14
-1.20013e-13
5.22775e-16
-1.78731e-15
2.44938e-15
1.94589e-16
4.22525e-14
2.46215e-15
8.9037e-14
5.32546e-14
3.61815e-14
0
-4.76224e-15
1.04443e-14
-7.26685e-15
6.45784e-15
-4.05774e-15
4.05497e-15
-1.90391e-15
1.98212e-15
-1.06738e-15
1.23001e-15
-8.81693e-16
1.10333e-15
-7.51661e-16
8.22982e-16
-3.74825e-16
5.82596e-16
-2.36746e-16
3.98918e-16
-2.0696e-16
3.42291e-16
-1.69748e-16
2.96789e-16
-1.10863e-16
1.97303e-16
-5.62478e-17
1.0176e-16
-2.15436e-17
3.95004e-17
-6.70913e-18
1.1851e-17
-1.78051e-18
3.00843e-18
-4.22626e-19
6.70822e-19
-9.2619e-20
1.39978e-19
-1.95882e-20
2.91894e-20
-4.00561e-21
6.22514e-21
-7.60341e-22
1.26002e-21
-1.30025e-22
2.3209e-22
-1.95045e-23
3.84435e-23
-2.45269e-24
5.5706e-24
-2.26332e-25
6.7799e-25
-1.06485e-26
5.93714e-26
2.69554e-27
2.21935e-23
1.8009e-22
4.29216e-22
3.4308e-21
7.02207e-21
5.51035e-20
1.00841e-19
7.88409e-19
1.18005e-18
9.23887e-18
1.11994e-17
8.20964e-17
1.9902e-16
4.16704e-16
4.6098e-15
6.47323e-15
7.68356e-14
4.58719e-14
7.75762e-13
4.79874e-13
6.92816e-12
4.4295e-11
5.60542e-12
7.11948e-11
-3.8521e-13
5.17935e-12
-3.89755e-15
3.85363e-13
-3.29921e-15
4.12952e-15
-1.08341e-14
-1.48213e-14
6.2945e-16
-1.36537e-13
1.97957e-14
-1.37143e-13
1.98596e-15
-3.40448e-14
4.04316e-15
1.82066e-16
1.33184e-14
2.90542e-14
2.43213e-15
2.30672e-15
-2.90072e-15
7.33352e-16
-2.97928e-15
3.01918e-15
-2.24283e-15
2.00145e-15
-1.38944e-15
1.49327e-15
-8.91644e-16
1.15516e-15
-6.79864e-16
1.08364e-15
-5.17165e-16
8.6409e-16
-3.56868e-16
5.65184e-16
-2.33927e-16
3.92805e-16
-1.95149e-16
3.19213e-16
-1.69847e-16
2.80003e-16
-1.18992e-16
2.10783e-16
-6.17361e-17
1.10569e-16
-2.41745e-17
4.37799e-17
-7.37617e-18
1.32041e-17
-1.91819e-18
3.25967e-18
-4.47394e-19
7.21528e-19
-9.93678e-20
1.50794e-19
-2.17962e-20
3.17302e-20
-4.68017e-21
7.00398e-21
-9.39928e-22
1.48996e-21
-1.74097e-22
2.91054e-22
-2.90653e-23
5.23315e-23
-4.25825e-24
8.4651e-24
-5.23106e-25
1.20554e-24
-4.72482e-26
1.43606e-25
-2.16943e-27
1.2249e-26
5.42255e-28
1.73792e-23
1.33002e-22
3.39969e-22
2.53006e-21
5.68552e-21
4.11308e-20
8.62195e-20
6.16449e-19
1.06967e-18
7.58649e-18
1.04545e-17
6.81433e-17
1.45244e-16
4.41187e-16
2.94903e-15
5.75484e-15
2.61352e-14
2.16566e-14
3.12544e-13
1.57695e-13
6.42128e-12
2.73851e-11
1.69548e-12
4.91742e-11
-5.5117e-13
3.53665e-11
-1.76712e-14
1.57568e-11
-8.17097e-15
5.09522e-15
-2.48198e-14
-1.20012e-14
-1.76228e-14
-1.43399e-13
-7.34144e-15
-1.44905e-13
-1.40485e-15
-3.68081e-14
-1.44695e-15
8.04155e-17
-1.57897e-15
0
-1.44718e-15
0
-1.28338e-15
1.23946e-15
-1.09606e-15
1.14536e-15
-9.09451e-16
1.04772e-15
-7.78506e-16
1.10971e-15
-6.54911e-16
1.09901e-15
-4.96881e-16
9.0777e-16
-3.25404e-16
5.95816e-16
-2.31108e-16
3.87488e-16
-1.83346e-16
3.02804e-16
-1.58647e-16
2.54977e-16
-1.22129e-16
2.04759e-16
-6.65834e-17
1.19882e-16
-2.65979e-17
4.81457e-17
-8.15983e-18
1.47938e-17
-2.07615e-18
3.62969e-18
-4.80858e-19
7.90446e-19
-1.06707e-19
1.65887e-19
-2.35717e-20
3.47466e-20
-5.22706e-21
7.62024e-21
-1.10154e-21
1.68299e-21
-2.16382e-22
3.4613e-22
-3.91942e-23
6.61729e-23
-6.39962e-24
1.16381e-23
-9.1735e-25
1.84175e-24
-1.10934e-25
2.57799e-25
-9.79183e-27
3.00983e-26
-4.38624e-28
2.50557e-27
1.08348e-28
1.34746e-23
9.66545e-23
2.62932e-22
1.81759e-21
4.46979e-21
2.98878e-20
7.12061e-20
4.67518e-19
9.31967e-19
6.01486e-18
9.71253e-18
5.92687e-17
1.03848e-16
4.56641e-16
1.25084e-15
3.22658e-15
8.18415e-15
1.29696e-14
1.24389e-13
3.9698e-14
3.29321e-12
5.81779e-12
1.41607e-12
3.42288e-11
2.61995e-14
1.68163e-11
-5.99197e-13
2.02526e-11
-2.05584e-14
2.0572e-13
-2.29821e-14
-1.18389e-14
-3.37749e-14
-2.45403e-14
-2.5962e-14
-1.3841e-13
-3.68528e-16
-8.69944e-16
-4.31439e-16
7.87725e-17
-5.95823e-16
3.91684e-17
-5.48852e-16
1.61007e-16
-6.24531e-16
7.83047e-16
-5.95804e-16
8.69967e-16
-6.48245e-16
1.00216e-15
-6.53774e-16
1.08765e-15
-5.35228e-16
9.73874e-16
-3.55488e-16
6.64616e-16
-2.26404e-16
4.14046e-16
-1.72858e-16
2.86492e-16
-1.44682e-16
2.30985e-16
-1.1555e-16
1.85948e-16
-7.0287e-17
1.21661e-16
-2.91052e-17
5.34917e-17
-9.08244e-18
1.6712e-17
-2.29832e-18
4.15772e-18
-5.23623e-19
8.9452e-19
-1.15882e-19
1.85854e-19
-2.54875e-20
3.89811e-20
-5.67681e-21
8.24242e-21
-1.23508e-21
1.83621e-21
-2.54774e-22
3.9349e-22
-4.90297e-23
7.9254e-23
-8.69876e-24
1.48494e-23
-1.39134e-24
2.55893e-24
-1.95457e-25
3.97278e-25
-2.32624e-26
5.46688e-26
-2.00844e-27
6.25668e-27
-8.79892e-29
5.08892e-28
2.15411e-29
1.01869e-23
6.85278e-23
1.97118e-22
1.27226e-21
3.42153e-21
2.13706e-20
5.70964e-20
3.48024e-19
7.90758e-19
4.69912e-18
8.89686e-18
5.27359e-17
8.62124e-17
4.38552e-16
6.71108e-16
9.779e-16
5.08975e-15
3.99763e-14
3.117e-14
1.84111e-14
2.17593e-12
3.66534e-12
3.90094e-12
1.09768e-10
2.11832e-13
6.42321e-11
-3.61451e-14
2.33257e-11
-5.07648e-14
5.91653e-13
-2.17216e-15
-1.75159e-14
-1.38932e-14
-4.03203e-15
-3.73577e-16
-9.92199e-15
-9.53459e-17
-1.21273e-15
-1.7488e-16
9.36863e-17
-3.20041e-16
2.33825e-16
-4.21211e-16
4.912e-16
-5.06982e-16
8.03578e-16
-5.68971e-16
9.3533e-16
-6.18202e-16
9.88399e-16
-5.7497e-16
9.87326e-16
-4.06709e-16
7.36176e-16
-2.49031e-16
4.63168e-16
-1.67107e-16
2.9081e-16
-1.31507e-16
2.12057e-16
-1.04439e-16
1.65475e-16
-6.93643e-17
1.14899e-16
-3.17803e-17
5.73523e-17
-1.0203e-17
1.92834e-17
-2.60589e-18
4.87732e-18
-5.85184e-19
1.0504e-18
-1.27599e-19
2.14128e-19
-2.79967e-20
4.44725e-20
-6.13968e-21
9.39408e-21
-1.3487e-21
1.9761e-21
-2.87111e-22
4.31387e-22
-5.80658e-23
9.07091e-23
-1.09626e-23
1.79284e-23
-1.90766e-24
3.29677e-24
-2.99333e-25
5.57475e-25
-4.13161e-26
8.52113e-26
-4.83924e-27
1.15246e-26
-4.08707e-28
1.29379e-27
-1.75396e-29
1.02813e-28
4.26822e-30
7.51267e-24
4.7749e-23
1.44491e-22
8.81427e-22
2.58879e-21
1.5306e-20
4.50144e-20
2.57687e-19
6.58792e-19
3.64433e-18
8.17881e-18
4.57444e-17
6.68062e-17
3.61145e-16
7.70397e-16
7.04663e-16
7.45899e-15
4.14177e-14
1.31567e-14
9.87383e-15
3.98805e-12
1.24221e-12
1.05646e-11
1.27334e-10
5.73462e-13
7.09009e-11
-4.23742e-14
6.86336e-12
-3.97378e-13
2.9122e-12
-9.72262e-15
-2.80172e-13
-2.46822e-15
-3.50671e-15
-2.46312e-15
-6.15724e-15
-1.57014e-16
-3.05452e-16
-2.53601e-16
1.25649e-16
-3.75565e-16
3.71563e-16
-4.95233e-16
6.70023e-16
-5.63917e-16
8.49897e-16
-5.88686e-16
9.30691e-16
-5.70707e-16
8.8652e-16
-4.52063e-16
7.60773e-16
-2.85952e-16
5.14573e-16
-1.7402e-16
3.13398e-16
-1.22166e-16
2.03527e-16
-9.29626e-17
1.47824e-16
-6.44645e-17
1.0397e-16
-3.32661e-17
5.79026e-17
-1.16177e-17
2.20633e-17
-3.02459e-18
5.90638e-18
-6.75244e-19
1.27911e-18
-1.43923e-19
2.56231e-19
-3.11238e-20
5.19884e-20
-6.80184e-21
1.08911e-20
-1.47443e-21
2.28561e-21
-3.16413e-22
4.71633e-22
-6.58705e-23
1.00059e-22
-1.30721e-23
2.06663e-23
-2.42405e-24
4.01591e-24
-4.14239e-25
7.25627e-25
-6.38492e-26
1.20555e-25
-8.68718e-27
1.81441e-26
-1.00101e-27
2.41352e-27
-8.27648e-29
2.66115e-28
-3.48076e-30
2.06945e-29
8.44094e-31
5.46489e-24
3.32023e-23
1.05379e-22
6.16185e-22
1.95925e-21
1.10685e-20
3.50995e-20
1.90035e-19
5.37268e-19
2.78489e-18
7.26118e-18
3.76327e-17
5.49982e-17
2.8885e-16
1.02116e-16
4.29386e-16
8.15902e-15
4.30994e-14
1.11419e-14
5.34633e-15
2.04894e-12
1.24562e-11
1.44085e-11
1.35939e-10
7.66121e-12
1.01849e-10
0
5.50367e-12
-5.56923e-13
1.88302e-12
-1.11572e-14
-1.20362e-13
-6.90165e-15
-2.46672e-15
-3.31306e-15
-3.97823e-15
-2.79282e-16
1.98501e-16
-3.43154e-16
1.67438e-16
-4.76547e-16
4.68859e-16
-5.53081e-16
7.2023e-16
-5.80854e-16
8.46875e-16
-5.39294e-16
8.04391e-16
-4.56152e-16
6.98324e-16
-3.18347e-16
5.29277e-16
-1.92598e-16
3.41943e-16
-1.20469e-16
2.10401e-16
-8.39672e-17
1.37964e-16
-5.78976e-17
9.33475e-17
-3.28122e-17
5.53632e-17
-1.30072e-17
2.41697e-17
-3.60844e-18
7.25203e-18
-8.07096e-19
1.62751e-18
-1.68026e-19
3.20798e-19
-3.53997e-20
6.30428e-20
-7.64869e-21
1.29394e-20
-1.65068e-21
2.70447e-21
-3.50686e-22
5.55958e-22
-7.3513e-23
1.11959e-22
-1.49565e-23
2.29867e-23
-2.91318e-24
4.65991e-24
-5.31161e-25
8.92318e-25
-8.92379e-26
1.58645e-25
-1.35264e-26
2.59238e-26
-1.81391e-27
3.84131e-27
-2.05755e-28
5.02827e-28
-1.66761e-29
5.45191e-29
-6.8879e-31
4.15538e-30
1.66829e-31
3.98077e-24
2.34023e-23
7.75715e-23
4.39209e-22
1.48489e-21
8.0494e-21
2.69612e-20
1.38576e-19
4.26607e-19
2.08111e-18
6.11259e-18
2.9365e-17
3.93724e-17
2.35343e-16
3.38702e-16
3.30197e-16
5.63876e-15
1.26792e-14
7.22408e-15
3.02932e-15
4.10163e-12
3.74941e-11
1.78034e-11
1.42638e-10
7.76242e-12
7.31876e-11
0
7.32248e-12
-1.74272e-13
4.19625e-12
-1.2254e-14
2.13295e-13
-1.15357e-14
-1.33623e-15
-4.39433e-16
-2.80741e-15
-2.78639e-16
6.79287e-17
-3.93456e-16
2.17072e-16
-5.16944e-16
5.33798e-16
-5.59236e-16
7.19485e-16
-5.14086e-16
7.28022e-16
-4.27905e-16
6.28861e-16
-3.20699e-16
4.97324e-16
-2.09995e-16
3.48872e-16
-1.27584e-16
2.24769e-16
-8.05148e-17
1.39862e-16
-5.24761e-17
8.80943e-17
-3.08996e-17
5.22452e-17
-1.38714e-17
2.5133e-17
-4.32867e-18
8.68451e-18
-1.00569e-18
2.14117e-18
-2.049e-19
4.25342e-19
-4.16564e-20
8.03558e-20
-8.80348e-21
1.59104e-20
-1.88711e-21
3.28898e-21
-3.98705e-22
6.75692e-22
-8.28412e-23
1.35272e-22
-1.69657e-23
2.66244e-23
-3.37282e-24
5.24909e-24
-6.44111e-25
1.04221e-24
-1.15555e-25
1.96886e-25
-1.91064e-26
3.45109e-26
-2.85069e-27
5.55271e-27
-3.76697e-28
8.09613e-28
-4.20825e-29
1.04324e-28
-3.34772e-30
1.11341e-29
-1.36092e-31
8.33073e-31
3.29844e-32
2.93939e-24
1.6866e-23
5.78602e-23
3.18505e-22
1.11963e-21
5.8308e-21
2.0302e-20
9.94308e-20
3.2829e-19
1.51373e-18
4.92599e-18
2.19918e-17
3.56505e-17
1.89841e-16
8.53928e-17
3.79338e-16
1.72662e-15
1.53859e-15
2.88776e-15
1.59656e-15
5.1189e-12
3.11255e-11
2.11827e-11
1.47211e-10
1.40627e-12
1.27842e-11
0
1.27521e-11
1.40988e-14
7.55628e-12
-9.62493e-15
9.08141e-13
-1.15449e-14
-2.06497e-16
-1.82179e-16
5.26717e-16
-2.76905e-16
1.10915e-16
-4.08654e-16
2.50628e-16
-4.85381e-16
5.24733e-16
-4.83456e-16
6.49692e-16
-4.00018e-16
5.68966e-16
-3.03806e-16
4.61656e-16
-2.10479e-16
3.39015e-16
-1.35444e-16
2.29584e-16
-8.30899e-17
1.48243e-16
-5.05994e-17
9.04922e-17
-2.92211e-17
5.19347e-17
-1.4123e-17
2.58705e-17
-5.0336e-18
1.00056e-17
-1.28719e-18
2.81029e-18
-2.64203e-19
5.95325e-19
-5.14225e-20
1.09818e-19
-1.04589e-20
2.05714e-20
-2.21386e-21
4.12873e-21
-4.66091e-22
8.48697e-22
-9.60604e-23
1.69864e-22
-1.95213e-23
3.31382e-23
-3.90182e-24
6.37441e-24
-7.5833e-25
1.2014e-24
-1.41689e-25
2.32136e-25
-2.50063e-26
4.31466e-26
-4.07252e-27
7.47903e-27
-5.98641e-28
1.18639e-27
-7.7912e-29
1.70133e-28
-8.57406e-30
2.15761e-29
-6.70197e-31
2.268e-30
-2.68714e-32
1.66789e-31
6.52762e-33
2.20624e-24
1.23836e-23
4.34313e-23
2.32277e-22
8.32149e-22
4.16798e-21
1.49481e-20
7.00356e-20
2.44179e-19
1.06992e-18
3.78201e-18
1.58103e-17
3.01421e-17
1.45437e-16
7.08468e-17
3.5767e-16
6.09522e-16
1.04187e-15
1.18425e-15
9.38273e-16
1.21261e-11
7.11754e-12
1.81955e-11
5.94853e-11
2.46134e-13
2.72185e-11
1.13483e-12
1.63007e-11
2.731e-13
9.36129e-12
-4.19757e-15
2.50545e-12
-6.15596e-15
9.43442e-16
-1.31188e-15
9.90007e-16
-2.47744e-16
1.89471e-15
-3.64983e-16
2.84355e-16
-4.07346e-16
4.6009e-16
-3.70584e-16
5.43713e-16
-2.87341e-16
4.2747e-16
-2.04082e-16
3.33374e-16
-1.35771e-16
2.31947e-16
-8.68887e-17
1.53924e-16
-5.23879e-17
9.75217e-17
-2.9355e-17
5.59821e-17
-1.44323e-17
2.80772e-17
-5.65131e-18
1.15335e-17
-1.63582e-18
3.6288e-18
-3.58026e-19
8.5586e-19
-6.79458e-20
1.62161e-19
-1.30367e-20
2.8768e-20
-2.67292e-21
5.43195e-21
-5.61777e-22
1.09871e-21
-1.15532e-22
2.21993e-22
-2.32337e-23
4.32719e-23
-4.6122e-24
8.24179e-24
-8.96803e-25
1.54535e-24
-1.70556e-25
2.82645e-25
-3.11477e-26
5.18079e-26
-5.39371e-27
9.41669e-27
-8.65593e-28
1.61335e-27
-1.25463e-28
2.53099e-28
-1.60743e-29
3.57119e-29
-1.74225e-30
4.4563e-30
-1.33911e-31
4.61159e-31
-5.30402e-33
3.33696e-32
1.2938e-33
1.6668e-24
9.11879e-24
3.23821e-23
1.67762e-22
6.06525e-22
2.93011e-21
1.07326e-20
4.83033e-20
1.75421e-19
7.34713e-19
2.74888e-18
1.0821e-17
2.39086e-17
1.03618e-16
6.40861e-17
2.97959e-16
3.20993e-16