/*--------------------------------*- C++ -*----------------------------------*\
  =========                 |
  \\      /  F ield         | OpenFOAM: The Open Source CFD Toolbox
   \\    /   O peration     | Website:  https://openfoam.org
    \\  /    A nd           | Version:  9
     \\/     M anipulation  |
\*---------------------------------------------------------------------------*/
FoamFile
{
    format      ascii;
    class       volScalarField;
    location    "0.01";
    object      alpha.water;
}
// * * * * * * * * * * * * * * * * * * * * * * * * * * * * * * * * * * * * * //

dimensions      [0 0 0 0 0 0 0];

internalField   nonuniform List<scalar> 
5000
(
9.87275e-18
2.22122e-15
4.58257e-14
3.92579e-13
1.82135e-12
1.63403e-11
2.72748e-10
5.71711e-09
1.00002e-07
1.58754e-06
1.53475e-05
1.44909e-05
0.0498026
0.782865
0.999977
0.999995
1
1
1
1
1
1
1
1
1
1
0.999999
0.999983
0.999982
0.903207
0.181126
0.000420257
0.0002603
5.61871e-05
1.16717e-05
2.37954e-06
5.2178e-07
1.21731e-07
3.18384e-08
8.68679e-09
2.44397e-09
6.57521e-10
2.47896e-10
1.64892e-10
1.14823e-10
7.00508e-11
3.66878e-11
1.71897e-11
7.62669e-12
2.17748e-12
3.41759e-17
4.49027e-15
7.71272e-14
5.3184e-13
1.87782e-12
1.56034e-11
2.65144e-10
6.32e-09
1.18827e-07
2.28454e-06
5.63886e-06
8.61152e-06
0.0224593
0.731109
0.999977
0.999996
1
1
1
1
1
1
1
1
1
1
0.999999
0.999973
0.999976
0.840214
0.114475
0.000428082
0.000267498
5.05872e-05
1.19985e-05
2.80955e-06
6.51238e-07
1.647e-07
4.21005e-08
1.10302e-08
2.91561e-09
7.569e-10
2.46178e-10
1.62924e-10
1.11324e-10
6.56918e-11
3.32979e-11
1.53371e-11
6.5277e-12
1.67702e-12
1.10386e-16
7.79315e-15
1.15665e-13
6.87358e-13
1.98468e-12
1.59916e-11
2.87633e-10
7.5628e-09
1.57254e-07
3.26648e-06
4.70431e-05
3.40528e-05
4.60474e-05
0.604586
0.999922
0.999999
0.999999
1
1
1
1
1
1
1
1
1
0.999996
0.999956
0.999961
0.649043
0.0152363
0.000252289
0.000271367
3.76534e-05
1.03285e-05
2.52254e-06
5.97605e-07
1.53609e-07
3.87877e-08
9.99457e-09
2.6018e-09
6.84094e-10
2.32316e-10
1.53088e-10
9.82793e-11
5.37629e-11
2.57702e-11
1.14307e-11
4.57199e-12
9.29164e-13
2.60054e-16
1.16258e-14
1.52708e-13
8.60531e-13
2.40607e-12
1.97511e-11
3.84859e-10
9.88447e-09
2.03885e-07
5.51736e-06
6.49153e-05
5.37372e-05
5.60065e-05
0.380319
0.994514
0.999997
0.999999
1
1
1
1
1
1
1
1
0.999999
0.999995
0.999995
0.953098
0.313458
0.000426467
0.000188945
0.000211957
1.39756e-05
7.95464e-06
1.48733e-06
4.22618e-07
9.82805e-08
2.58607e-08
6.27564e-09
1.65814e-09
4.83441e-10
1.96505e-10
1.2882e-10
7.37703e-11
3.60497e-11
1.60862e-11
6.71993e-12
2.34917e-12
3.18592e-13
4.57159e-16
1.40357e-14
1.68471e-13
1.03604e-12
3.51235e-12
3.11564e-11
5.85441e-10
1.22778e-08
2.19734e-07
5.32022e-06
6.70084e-05
7.90822e-05
6.78524e-05
0.163873
0.888136
0.999974
0.999999
1
1
1
1
1
1
1
1
0.999997
0.999997
0.999987
0.616495
0.0375702
0.000366476
0.000114336
3.89917e-05
6.09794e-06
3.53341e-06
3.71007e-07
1.83292e-07
2.69252e-08
8.73965e-09
2.06302e-09
6.63632e-10
2.72851e-10
1.45294e-10
8.83376e-11
4.37578e-11
1.94126e-11
8.17028e-12
3.14685e-12
8.94814e-13
6.52428e-14
5.8975e-16
1.41743e-14
1.66166e-13
1.16351e-12
5.51994e-12
4.82375e-11
7.63794e-10
1.25433e-08
2.48035e-07
4.43198e-06
1.68114e-05
8.21402e-05
7.74861e-05
0.0359486
0.603115
0.999883
0.999995
0.999996
1
1
1
1
1
0.999998
0.999998
0.999997
0.999988
0.739899
0.0803677
0.000267078
0.000281497
6.37401e-05
1.35955e-06
5.34693e-07
1.4059e-07
4.96017e-08
1.16274e-08
3.07433e-09
7.95564e-10
3.90484e-10
2.64671e-10
1.65814e-10
9.40098e-11
4.86442e-11
2.14026e-11
8.96705e-12
3.56645e-12
1.20795e-12
2.56171e-13
8.04323e-15
6.18317e-16
1.36354e-14
1.57473e-13
1.17571e-12
7.2967e-12
5.70627e-11
7.86224e-10
1.23055e-08
2.40092e-07
1.35883e-06
1.53489e-06
8.03395e-05
9.20801e-05
0.00123761
0.210038
0.88194
0.99997
0.999994
0.99999
1
0.999998
0.999991
0.999983
0.999989
0.999997
0.999988
0.722867
0.0890908
0.000217817
6.42652e-05
0.000180877
2.17901e-05
3.6855e-07
9.99912e-08
3.12399e-08
8.90456e-09
2.31181e-09
7.00902e-10
2.57476e-10
1.45678e-10
1.42367e-10
9.81445e-11
5.07654e-11
2.28392e-11
9.64463e-12
3.93192e-12
1.43708e-12
3.9809e-13
5.87388e-14
4.85564e-16
6.00231e-16
1.21383e-14
1.40529e-13
1.13575e-12
7.70276e-12
5.6843e-11
7.26478e-10
1.23495e-08
1.40744e-07
1.60005e-06
3.96218e-05
6.5149e-05
0.000606622
0.00279386
0.000715272
0.358781
0.962724
0.999978
0.999989
0.999932
0.999938
0.99999
0.999986
0.999986
0.967803
0.571438
0.0647915
0.000209198
2.0162e-05
1.95335e-05
3.87964e-05
4.48787e-06
1.00659e-07
2.75593e-08
9.75792e-09
2.705e-09
7.56341e-10
2.9027e-10
1.56162e-10
1.09603e-10
8.89421e-11
5.31027e-11
2.4752e-11
1.07303e-11
4.51021e-12
1.73286e-12
5.42359e-13
1.13432e-13
1.10571e-14
8.37698e-18
5.36308e-16
9.71215e-15
1.13965e-13
1.02129e-12
7.45179e-12
5.35857e-11
6.41685e-10
1.06308e-08
3.13424e-08
2.41767e-06
7.19183e-05
6.79828e-05
0.00155295
0.00248088
0.000567908
0.000803463
0.363573
0.889768
0.999976
0.999942
0.999952
0.999982
0.969612
0.765005
0.347071
0.0307774
0.000209198
2.20475e-05
4.11007e-06
2.05143e-06
1.28299e-06
1.04705e-07
3.19116e-08
7.62001e-09
2.88544e-09
8.80867e-10
2.85706e-10
1.52934e-10
1.01701e-10
8.39617e-11
5.49286e-11
2.79646e-11
1.25962e-11
5.44576e-12
2.16484e-12
7.23797e-13
1.77545e-13
2.56414e-14
1.41591e-15
4.45586e-19
4.26472e-16
7.08593e-15
8.54657e-14
8.31269e-13
6.62933e-12
4.82587e-11
5.19535e-10
3.40564e-09
3.66625e-09
1.6721e-06
4.81048e-05
9.27546e-05
0.00154855
5.4205e-05
7.64574e-06
2.72731e-05
0.000224609
0.184432
0.498058
0.667835
0.646626
0.516982
0.291548
0.0917361
0.00114029
0.000331897
8.90803e-05
3.13382e-06
7.07808e-07
3.83221e-07
2.69147e-07
2.61833e-08
6.92547e-09
2.22997e-09
8.83944e-10
3.11709e-10
1.5219e-10
1.00841e-10
8.32326e-11
6.0658e-11
3.31012e-11
1.54073e-11
6.78973e-12
2.74813e-12
9.46278e-13
2.50253e-13
4.32659e-14
3.76124e-15
8.65174e-17
1.31211e-20
3.04063e-16
4.85458e-15
6.01343e-14
6.16988e-13
5.24578e-12
4.05934e-11
3.25504e-10
2.66033e-10
1.62069e-08
4.89346e-06
9.68561e-06
0.00015062
0.00154548
0.000193816
1.72154e-07
2.66976e-05
6.94049e-06
0.000198089
0.00262211
0.00877614
0.00752209
0.0030195
0.000264195
0.000178607
0.000173115
7.72824e-05
1.40203e-05
6.5083e-07
7.46561e-08
8.04999e-08
5.88758e-08
6.80978e-09
1.89997e-09
7.13728e-10
3.22846e-10
1.65121e-10
1.0376e-10
8.70445e-11
6.74769e-11
4.04107e-11
1.95191e-11
8.50799e-12
3.45482e-12
1.195e-12
3.23738e-13
6.06156e-14
6.50289e-15
3.20343e-16
8.20085e-18
-1.00765e-20
2.02289e-16
3.17836e-15
4.04661e-14
4.30446e-13
3.70483e-12
2.93039e-11
1.74379e-10
1.76502e-10
1.25993e-07
7.99528e-06
4.04349e-06
0.000257617
0.00151352
2.49908e-07
2.54457e-08
1.3917e-07
1.1269e-06
5.15203e-06
1.46741e-05
1.95905e-05
2.04497e-05
2.22411e-05
2.93058e-05
5.21579e-05
4.67249e-05
1.32734e-05
3.87444e-07
8.90595e-08
2.39068e-08
1.88636e-08
1.2981e-08
1.88259e-09
5.90184e-10
2.76221e-10
1.7028e-10
1.13675e-10
9.22684e-11
7.49561e-11
4.85858e-11
2.46944e-11
1.06871e-11
4.19065e-12
1.43915e-12
3.8658e-13
7.4116e-14
8.81271e-15
6.26569e-16
4.38785e-17
1.83909e-18
-2.18739e-21
1.28e-16
2.02773e-15
2.67947e-14
2.95267e-13
2.52098e-12
1.99128e-11
1.34979e-10
1.3869e-10
1.4032e-07
6.83263e-06
1.8369e-06
0.000304794
0.0014099
1.99765e-08
1.47859e-08
3.95825e-07
1.32611e-06
1.01874e-06
1.08547e-06
1.16081e-06
1.57574e-06
5.72588e-06
6.54791e-06
6.05609e-06
5.43556e-06
1.56114e-06
5.24643e-08
1.13552e-08
5.95781e-09
5.0195e-09
3.06469e-09
5.87969e-10
2.30615e-10
1.59671e-10
1.19144e-10
9.97704e-11
8.21478e-11
5.6725e-11
3.03377e-11
1.31627e-11
4.94037e-12
1.61979e-12
4.29241e-13
8.13148e-14
1.02931e-14
9.4824e-16
9.8003e-17
9.94158e-18
3.5292e-19
-5.27284e-22
7.94003e-17
1.30604e-15
1.81565e-14
2.10031e-13
1.84466e-12
1.56406e-11
1.17917e-10
1.11624e-10
1.71505e-07
8.374e-07
1.06654e-06
0.000329831
0.00101465
7.10391e-09
1.25781e-08
3.11667e-07
4.10877e-07
3.0922e-07
5.89226e-07
4.16478e-07
9.97961e-08
1.64963e-07
7.71142e-07
2.35669e-06
1.09006e-06
5.52239e-08
1.09781e-08
2.20248e-09
1.31229e-09
1.20185e-09
8.33596e-10
2.31177e-10
1.3869e-10
1.21047e-10
1.06105e-10
8.76434e-11
6.38851e-11
3.57292e-11
1.56358e-11
5.65694e-12
1.73618e-12
4.40539e-13
8.34999e-14
1.10513e-14
1.25846e-15
1.67325e-16
2.24022e-17
1.94972e-18
6.95554e-20
-1.29277e-22
5.06492e-17
8.8144e-16
1.29423e-14
1.59143e-13
1.51256e-12
1.34824e-11
8.86163e-11
1.47292e-10
2.79852e-07
1.18985e-07
9.79799e-07
0.00035622
0.000298534
6.03909e-09
5.81956e-09
5.40767e-09
2.49798e-09
1.55388e-09
1.55949e-09
4.8882e-08
2.13745e-08
8.66868e-08
5.35843e-07
5.08862e-07
8.08519e-08
6.54947e-09
1.93343e-09
6.97954e-10
5.08704e-10
4.46583e-10
2.9649e-10
1.36128e-10
1.08908e-10
1.07818e-10
9.30713e-11
6.79991e-11
4.03124e-11
1.78491e-11
6.26839e-12
1.81087e-12
4.30847e-13
8.14073e-14
1.1605e-14
1.55724e-15
2.47857e-16
3.82384e-17
4.5067e-18
3.77207e-19
1.39165e-20
-4.20929e-23
3.443e-17
6.30035e-16
9.66914e-15
1.26457e-13
1.31745e-12
1.18649e-11
5.60368e-11
6.07461e-11
1.9688e-07
4.02268e-08
2.26392e-06
0.000234736
2.04395e-05
2.92385e-07
5.93726e-09
5.78903e-09
1.41425e-08
4.19841e-08
1.55465e-09
5.27762e-10
1.57007e-09
1.39726e-07
1.68633e-07
3.23227e-08
3.69672e-09
1.36766e-09
6.25029e-10
3.98208e-10
3.16074e-10
2.30952e-10
1.50381e-10
1.03194e-10
9.69228e-11
9.43654e-11
7.14597e-11
4.30069e-11
1.97861e-11
6.77364e-12
1.86586e-12
4.17935e-13
7.74471e-14
1.20765e-14
1.84864e-15
3.30946e-16
5.63493e-17
7.87795e-18
9.03627e-19
7.6717e-20
2.7586e-21
-1.46683e-23
2.48229e-17
4.67061e-16
7.37303e-15
1.0194e-13
1.14585e-12
1.01509e-11
4.38855e-11
5.32558e-10
1.18027e-08
1.34732e-08
5.15604e-06
2.26348e-05
1.50797e-05
6.07294e-09
5.99632e-09
1.42671e-08
1.0939e-07
1.12314e-07
3.44621e-08
1.59277e-10
3.45895e-08
7.18619e-08
8.81897e-09
1.50507e-09
7.54174e-10
4.963e-10
3.67172e-10
3.06332e-10
2.3993e-10
1.50746e-10
1.01146e-10
8.82791e-11
8.53497e-11
7.33136e-11
4.50454e-11
2.11023e-11
7.30611e-12
1.9253e-12
4.15466e-13
7.52201e-14
1.24833e-14
2.1282e-15
4.08822e-16
7.5224e-17
1.18606e-17
1.61753e-18
1.79881e-19
1.55803e-20
5.35649e-22
-3.57024e-24
1.83714e-17
3.47796e-16
5.57706e-15
8.09842e-14
9.63244e-13
8.41548e-12
4.62602e-11
6.34082e-10
6.25154e-10
6.52384e-09
7.69661e-06
3.72306e-06
7.17498e-06
1.39341e-06
6.07294e-09
2.56948e-08
1.12203e-07
1.12384e-07
8.03974e-08
1.30443e-10
8.79775e-09
2.73993e-09
7.21132e-10
4.33361e-10
3.5771e-10
3.3493e-10
3.03053e-10
2.48772e-10
1.73453e-10
1.08753e-10
8.22831e-11
7.54253e-11
6.76825e-11
4.69794e-11
2.22421e-11
7.84398e-12
2.04779e-12
4.26157e-13
7.70759e-14
1.31665e-14
2.37609e-15
4.81946e-16
9.33369e-17
1.61584e-17
2.48957e-18
3.31848e-19
3.74178e-20
3.15217e-21
1.01553e-22
-1.04137e-24
1.35163e-17
2.53951e-16
4.11548e-15
6.2488e-14
7.78539e-13
7.18376e-12
5.04244e-11
4.9216e-10
5.02582e-10
1.33737e-09
2.97862e-06
3.04747e-06
3.42682e-06
8.44807e-06
1.59253e-07
2.22868e-08
8.22603e-08
1.11573e-07
1.95164e-08
1.23392e-10
2.34137e-10
4.66103e-10
3.09497e-10
3.02334e-10
2.92088e-10
2.98787e-10
2.61854e-10
1.89619e-10
1.19048e-10
8.09582e-11
6.75723e-11
5.93889e-11
4.51889e-11
2.36836e-11
8.45691e-12
2.25128e-12
4.61169e-13
8.26387e-14
1.44256e-14
2.66437e-15
5.45747e-16
1.10892e-16
2.04551e-17
3.4609e-18
5.21877e-19
6.80745e-20
7.74576e-21
6.36979e-22
1.96164e-23
-2.60865e-25
9.72317e-18
1.8032e-16
2.96916e-15
4.70395e-14
6.14494e-13
6.39818e-12
4.98734e-11
1.80863e-10
2.44379e-09
8.78225e-10
1.88228e-09
7.90492e-06
4.06429e-06
8.44378e-06
2.68747e-07
1.64084e-08
2.87476e-09
2.37166e-08
1.23392e-10
1.23392e-10
1.23392e-10
2.00595e-10
2.79211e-10
2.82524e-10
2.74782e-10
2.68014e-10
2.08346e-10
1.33195e-10
8.36042e-11
6.17575e-11
5.15968e-11
4.05518e-11
2.40343e-11
9.33118e-12
2.53669e-12
5.29067e-13
9.34013e-14
1.647e-14
3.08871e-15
6.13553e-16
1.28068e-16
2.47097e-17
4.46734e-18
7.405e-19
1.09461e-19
1.40596e-20
1.59875e-21
1.27618e-22
3.80368e-24
-5.88349e-26
6.84135e-18
1.25627e-16
2.12884e-15
3.50388e-14
4.80669e-13
5.66633e-12
4.51835e-11
4.68297e-11
4.94568e-09
5.09629e-10
3.83486e-09
2.06452e-05
1.48156e-05
5.50271e-06
1.34866e-06
6.0552e-07
2.63486e-09
2.49482e-09
2.48417e-09
1.23392e-10
1.8481e-10
2.52722e-10
2.76084e-10
2.70438e-10
2.47386e-10
2.1733e-10
1.48844e-10
9.11656e-11
5.96394e-11
4.54074e-11
3.5307e-11
2.28477e-11
1.01368e-11
2.95962e-12
6.34138e-13
1.12478e-13
1.94617e-14
3.69249e-15
7.3648e-16
1.47037e-16
2.92713e-17
5.50195e-18
9.74779e-19
1.58539e-19
2.30065e-20
2.95488e-21
3.29985e-22
2.56661e-23
7.22125e-25
-1.24909e-26
4.76533e-18
8.75425e-17
1.53803e-15
2.60227e-14
3.72079e-13
4.8135e-12
3.69209e-11
4.76125e-11
4.88511e-09
2.68006e-10
4.59286e-07
2.08704e-05
2.06426e-05
2.37314e-06
2.14443e-06
1.25916e-06
2.80348e-09
5.13163e-09
1.27278e-09
1.23923e-10
2.17441e-10
2.62751e-10
2.6657e-10
2.39078e-10
2.0184e-10
1.56294e-10
1.00889e-10
6.21203e-11
4.19667e-11
3.07506e-11
2.07047e-11
1.04686e-11
3.49501e-12
7.95944e-13
1.43504e-13
2.42832e-14
4.5121e-15
9.12581e-16
1.82039e-16
3.49732e-17
6.71305e-18
1.22759e-18
2.12885e-19
3.40252e-20
4.85507e-21
6.2041e-22
6.81617e-23
5.18761e-24
1.40161e-25
-2.54152e-27
3.34093e-18
6.20081e-17
1.12135e-15
1.9185e-14
2.82854e-13
3.88058e-12
3.04219e-11
3.26894e-11
3.4124e-09
1.48293e-10
3.35583e-06
2.08958e-05
2.08704e-05
1.77506e-06
1.32548e-06
1.06012e-06
2.61425e-09
8.80098e-09
1.23063e-10
1.29877e-10
2.35737e-10
2.53911e-10
2.3398e-10
1.90759e-10
1.48757e-10
1.05092e-10
6.71496e-11
4.23041e-11
2.81974e-11
1.85877e-11
1.02386e-11
3.98997e-12
1.03285e-12
1.94261e-13
3.23074e-14
5.74359e-15
1.15349e-15
2.3505e-16
4.51987e-17
8.33677e-18
1.54815e-18
2.76254e-19
4.66546e-20
7.33127e-21
1.0303e-21
1.30301e-22
1.41071e-23
1.05568e-24
2.79498e-26
-4.95517e-28
2.38939e-18
4.48281e-17
8.18792e-16
1.39533e-14
2.09825e-13
2.98807e-12
2.48897e-11
4.16865e-11
5.95057e-10
9.53974e-11
4.78344e-06
2.08851e-05
1.2925e-05
1.83852e-06
1.27542e-06
9.51772e-07
2.51867e-09
8.68011e-09
1.24612e-10
1.2711e-10
2.22003e-10
2.28333e-10
1.85388e-10
1.41904e-10
1.02909e-10
6.94202e-11
4.49039e-11
2.83336e-11
1.76189e-11
9.88988e-12
4.33345e-12
1.31895e-12
2.77026e-13
4.63395e-14
7.7735e-15
1.49793e-15
3.10548e-16
6.12278e-17
1.13254e-17
2.02376e-18
3.60489e-19
6.30439e-20
1.03111e-20
1.58902e-21
2.20096e-22
2.74068e-23
2.92881e-24
2.16571e-25
5.75852e-27
-9.14209e-29
1.74831e-18
3.2815e-17
5.9243e-16
9.97851e-15
1.51403e-13
2.2106e-12
1.97571e-11
4.28892e-11
6.76179e-11
7.48212e-11
2.47805e-06
2.06946e-05
3.06507e-06
3.48948e-06
3.57741e-06
1.1543e-06
2.49156e-09
4.57305e-09
1.55602e-10
1.20095e-10
1.9115e-10
1.89778e-10
1.38601e-10
1.02237e-10
7.02453e-11
4.6592e-11
3.01262e-11
1.82651e-11
1.0084e-11
4.66432e-12
1.62371e-12
3.97854e-13
7.16889e-14
1.14927e-14
2.04396e-15
4.16687e-16
8.532e-17
1.61734e-17
2.91191e-18
5.05244e-19
8.49566e-20
1.46016e-20
2.32618e-21
3.47089e-22
4.74087e-23
5.78136e-24
6.09851e-25
4.48416e-26
1.22545e-27
-1.54795e-29
1.29448e-18
2.39715e-17
4.22198e-16
6.99552e-15
1.06197e-13
1.56288e-12
1.4719e-11
3.86736e-11
8.95095e-11
6.65817e-11
2.33287e-07
3.25236e-06
2.62869e-06
3.66652e-06
3.68111e-06
2.27002e-06
2.47172e-09
3.33116e-09
4.57216e-09
9.15663e-11
1.41401e-10
1.50443e-10
1.01471e-10
7.36178e-11
4.88622e-11
3.19309e-11
2.00067e-11
1.11653e-11
5.29309e-12
1.99908e-12
5.62756e-13
1.15497e-13
1.88924e-14
3.05859e-15
5.77989e-16
1.19893e-16
2.37968e-17
4.39348e-18
7.77438e-19
1.31552e-19
2.10754e-20
3.42403e-21
5.3856e-22
7.76334e-23
1.03238e-23
1.2249e-24
1.27505e-25
9.30824e-27
2.69052e-28
-2.29746e-30
9.50872e-19
1.72144e-17
2.95848e-16
4.80131e-15
7.23257e-14
1.05019e-12
1.02009e-11
3.21203e-11
9.97258e-11
6.18356e-11
-1.69354e-10
8.5368e-08
2.36586e-06
3.67972e-06
3.6812e-06
2.82232e-06
2.49156e-09
2.98982e-09
5.45381e-09
9.31922e-11
9.58531e-11
1.16398e-10
7.4042e-11
5.37338e-11
3.48874e-11
2.21366e-11
1.29963e-11
6.46256e-12
2.59462e-12
8.0759e-13
1.89047e-13
3.38388e-14
5.25126e-15
8.7562e-16
1.71814e-16
3.52946e-17
6.80025e-18
1.23724e-18
2.16008e-19
3.57463e-20
5.55778e-21
8.29492e-22
1.26974e-22
1.79826e-23
2.31031e-24
2.65501e-25
2.68298e-26
1.93019e-27
5.86084e-29
-2.2709e-31
6.77723e-19
1.20121e-17
2.04391e-16
3.24193e-15
4.78457e-14
6.73445e-13
6.65686e-12
2.63203e-11
9.96479e-11
5.86814e-11
2.67925e-11
2.12895e-06
3.67958e-06
3.68044e-06
3.68228e-06
1.80952e-06
2.64398e-09
2.61643e-09
5.45249e-09
1.40398e-10
5.81026e-11
8.80439e-11
5.50914e-11
3.96562e-11
2.54363e-11
1.53531e-11
8.23048e-12
3.58551e-12
1.2229e-12
3.2009e-13
6.41976e-14
1.03575e-14
1.56195e-15
2.67073e-16
5.30744e-17
1.06747e-17
2.01085e-18
3.61713e-19
6.23138e-20
1.01393e-20
1.5405e-21
2.18286e-22
3.03351e-23
4.28727e-24
5.39098e-25
6.00621e-26
5.68786e-27
4.0352e-28
1.21023e-29
-1.17273e-32
4.60723e-19
8.13252e-18
1.41651e-16
2.20198e-15
3.09879e-14
4.17611e-13
4.21501e-12
2.18316e-11
9.28946e-11
5.84728e-11
2.8839e-11
2.47543e-06
3.58823e-06
3.20483e-06
1.64953e-06
1.92793e-07
4.67575e-09
1.02615e-09
3.6811e-09
4.49653e-10
5.15307e-11
6.50946e-11
4.2833e-11
2.94257e-11
1.878e-11
1.0581e-11
5.11001e-12
1.9463e-12
5.71896e-13
1.2897e-13
2.27598e-14
3.38291e-15
4.99005e-16
8.61973e-17
1.70284e-17
3.34239e-18
6.18374e-19
1.09831e-19
1.86507e-20
2.99527e-21
4.50101e-22
6.27817e-23
8.06091e-24
1.03313e-24
1.30353e-25
1.42933e-26
1.31591e-27
8.99875e-29
2.86706e-30
-2.28988e-33
2.94802e-19
5.48023e-18
1.05526e-16
1.58184e-15
2.0259e-14
2.57288e-13
2.68656e-12
1.82215e-11
7.67029e-11
5.77574e-11
5.71276e-11
5.20011e-07
3.51056e-06
9.31355e-07
3.39903e-08
3.52795e-09
3.00224e-09
4.62166e-10
8.62788e-10
7.7759e-10
5.03361e-11
5.12931e-11
3.42462e-11
2.20677e-11
1.39207e-11
7.24234e-12
3.14533e-12
1.05659e-12
2.72656e-13
5.42741e-14
8.61931e-15
1.19593e-15
1.71904e-16
2.94609e-17
5.70129e-18
1.0892e-18
1.97967e-19
3.46633e-20
5.79832e-21
9.1923e-22
1.37014e-22
1.89544e-23
2.42031e-24
2.80985e-25
3.19276e-26
3.51473e-27
3.24402e-28
2.18589e-29
6.83833e-31
-4.41365e-34
1.80966e-19
4.05868e-18
9.44386e-17
1.34725e-15
1.42605e-14
1.67145e-13
1.78609e-12
1.44859e-11
5.79456e-11
5.74413e-11
5.77458e-11
2.75546e-10
1.22755e-06
1.29115e-07
4.85989e-09
6.85761e-10
6.15756e-10
4.18434e-10
3.16646e-10
6.09499e-10
4.70669e-11
4.33234e-11
2.75903e-11
1.68841e-11
1.03135e-11
4.95119e-12
1.94624e-12
5.85243e-13
1.35415e-13
2.43485e-14
3.54985e-15
4.63883e-16
6.44191e-17
1.07369e-17
2.00538e-18
3.70846e-19
6.60024e-20
1.13729e-20
1.87376e-21
2.92877e-22
4.3179e-23
5.95389e-24
7.58563e-25
8.83152e-26
9.16225e-27
8.94623e-28
8.11936e-29
5.49461e-30
1.88118e-31
-7.20942e-36
1.15191e-19
3.70231e-18
9.5805e-17
1.34613e-15
1.19706e-14
1.23592e-13
1.29129e-12
1.08508e-11
5.54546e-11
5.70169e-11
5.71083e-11
9.08629e-11
2.3095e-08
1.06798e-08
1.24689e-09
3.86455e-10
3.0778e-10
3.85737e-10
1.54432e-10
2.28957e-10
5.0045e-11
3.79037e-11
2.2486e-11
1.33101e-11
7.68182e-12
3.42023e-12
1.23053e-12
3.37071e-13
7.13837e-14
1.18501e-14
1.61561e-15
2.00255e-16
2.65716e-17
4.21254e-18
7.46639e-19
1.32527e-19
2.29625e-20
3.87982e-21
6.28933e-22
9.68582e-23
1.40935e-23
1.92671e-24
2.45737e-25
2.88554e-26
3.05877e-27
2.79196e-28
2.24852e-29
1.42384e-30
5.09595e-32
5.62073e-35
9.32312e-20
3.79422e-18
1.02631e-16
1.40849e-15
1.17652e-14
1.08219e-13
1.05171e-12
9.93365e-12
6.90479e-11
5.8356e-11
8.30012e-11
7.67747e-11
3.91594e-09
8.45109e-09
3.2517e-08
2.89627e-10
2.59602e-10
2.63887e-10
8.02708e-11
7.71914e-11
5.37419e-11
3.55328e-11
1.95433e-11
1.08307e-11
5.87313e-12
2.43047e-12
8.10431e-13
2.05837e-13
4.06578e-14
6.35462e-15
8.23302e-16
9.73235e-17
1.21916e-17
1.79614e-18
2.96513e-19
4.99883e-20
8.36948e-21
1.37881e-21
2.19147e-22
3.32115e-23
4.76605e-24
6.43447e-25
8.14057e-26
9.58603e-27
1.03105e-27
9.85066e-29
7.74881e-30
4.68937e-31
1.54819e-32
3.69751e-35
9.55817e-20
4.18245e-18
1.16813e-16
1.56285e-15
1.2105e-14
1.07216e-13
1.00304e-12
9.23946e-12
1.37525e-10
1.11452e-10
4.36353e-10
5.09468e-10
1.60786e-09
5.79924e-09
2.60451e-07
1.65115e-07
7.26245e-09
6.08072e-11
6.1998e-11
6.37478e-11
5.59381e-11
3.46809e-11
1.92616e-11
9.26773e-12
4.71691e-12
1.81993e-12
5.67465e-13
1.3576e-13
2.53921e-14
3.79362e-15
4.72541e-16
5.34477e-17
6.25536e-18
8.38865e-19
1.2658e-19
2.00256e-20
3.21241e-21
5.1243e-22
7.94088e-23
1.18009e-23
1.66781e-24
2.22148e-25
2.77311e-26
3.23586e-27
3.49227e-28
3.38826e-29
2.82847e-30
1.80852e-31
6.47332e-33
1.78982e-35
1.1065e-19
4.99299e-18
1.35802e-16
1.77499e-15
1.29372e-14
1.10558e-13
1.03745e-12
5.84255e-12
3.22306e-10
6.13446e-10
1.43516e-09
7.87636e-10
9.89113e-10
2.47212e-08
2.93126e-07
2.94234e-07
2.68806e-08
4.31209e-11
4.06537e-11
4.97973e-11
5.58099e-11
3.39037e-11
2.00285e-11
8.62637e-12
4.04554e-12
1.46866e-12
4.29274e-13
9.7856e-14
1.74992e-14
2.52168e-15
3.03863e-16
3.29325e-17
3.58096e-18
4.31372e-19
5.85498e-20
8.57843e-21
1.30544e-21
2.00089e-22
3.00396e-23
4.35268e-24
6.03194e-25
7.91201e-26
9.73857e-27
1.11988e-27
1.19669e-28
1.16365e-29
9.84737e-31
6.60119e-32
2.80737e-33
6.80171e-36
1.49071e-19
6.18321e-18
1.52314e-16
1.94837e-15
1.40477e-14
1.20689e-13
1.1804e-12
1.20097e-12
5.39675e-10
1.5076e-09
1.62002e-09
6.91755e-10
6.14444e-10
2.37647e-07
2.96103e-07
2.93412e-07
2.68361e-08
3.71611e-11
3.71873e-11
3.46028e-11
4.09021e-11
3.16508e-11
2.19519e-11
8.69528e-12
3.71185e-12
1.28866e-12
3.52617e-13
7.70286e-14
1.32293e-14
1.84492e-15
2.15527e-16
2.24113e-17
2.26677e-18
2.44719e-19
2.95863e-20
3.96131e-21
5.64924e-22
8.24451e-23
1.19144e-23
1.67261e-24
2.25679e-25
2.89823e-26
3.5084e-27
3.96932e-28
4.17155e-29
4.01191e-30
3.38809e-31
2.29419e-32
9.89023e-34
2.00385e-36
2.15198e-19
7.44911e-18
1.6382e-16
2.02736e-15
1.50266e-14
1.39525e-13
1.4616e-12
1.35695e-12
5.4964e-10
1.62002e-09
1.62002e-09
5.4974e-10
4.99796e-10
2.9499e-07
2.96746e-07
2.32673e-07
1.26934e-08
4.69053e-09
3.00949e-08
1.59585e-11
1.28452e-11
2.542e-11
2.32613e-11
9.13418e-12
3.58914e-12
1.21382e-12
3.11735e-13
6.53497e-14
1.07977e-14
1.45753e-15
1.65211e-16
1.65317e-17
1.56749e-18
1.53018e-19
1.64696e-20
1.99231e-21
2.62389e-22
3.60274e-23
4.97559e-24
6.7307e-25
8.77909e-26
1.09424e-26
1.29291e-27
1.4335e-28
1.4767e-29
1.39374e-30
1.16331e-31
7.85603e-33
3.39776e-34
6.52457e-37
3.00977e-19
8.69456e-18
1.71868e-16
2.04844e-15
1.56666e-14
1.62629e-13
1.75334e-12
1.62023e-12
4.3431e-10
1.56498e-09
1.36386e-09
4.30518e-10
4.64828e-10
2.95274e-07
2.96535e-07
5.66093e-08
2.01169e-09
1.44239e-08
8.25239e-08
3.74216e-08
1.19599e-11
1.89928e-11
2.26674e-11
9.75973e-12
3.54443e-12
1.19071e-12
2.91075e-13
5.8532e-14
9.32863e-15
1.21944e-15
1.34349e-16
1.30075e-17
1.17072e-18
1.05084e-19
1.01603e-20
1.10449e-21
1.32335e-22
1.68291e-23
2.19892e-24
2.85272e-25
3.58169e-26
4.30176e-27
4.91276e-28
5.29437e-29
5.32458e-30
4.91696e-31
4.03554e-32
2.70176e-33
1.16946e-34
2.23405e-37
4.04002e-19
9.99695e-18
1.79121e-16
2.05902e-15
1.60554e-14
1.81976e-13
1.91032e-12
3.50277e-12
2.44906e-10
1.10643e-09
7.11914e-10
4.12575e-10
2.44519e-09
1.53929e-07
2.29516e-07
1.25945e-08
7.19211e-10
1.4038e-08
8.42885e-08
8.66274e-08
1.19715e-11
1.1832e-11
1.92963e-11
1.07073e-11
3.57103e-12
1.17881e-12
2.81135e-13
5.42501e-14
8.36546e-15
1.06126e-15
1.14128e-16
1.07874e-17
9.3631e-19
7.90371e-20
6.98292e-21
6.82895e-22
7.36089e-23
8.51547e-24
1.03704e-24
1.28174e-25
1.54665e-26
1.78569e-27
1.95772e-28
2.02968e-29
1.9764e-30
1.7801e-31
1.43498e-32
9.52193e-34
4.14637e-35
8.38593e-38
5.29849e-19
1.154e-17
1.88102e-16
2.07502e-15
1.63356e-14
1.95703e-13
1.97043e-12
5.07543e-12
1.17526e-10
4.90096e-10
4.02316e-10
4.10101e-10
6.03891e-09
6.46595e-09
1.59647e-08
3.43953e-09
4.69844e-10
6.85943e-09
8.20174e-08
8.72876e-08
3.99877e-09
8.03328e-12
1.29471e-11
1.11179e-11
3.6269e-12
1.16168e-12
2.75655e-13
5.13464e-14
7.68441e-15
9.49013e-16
1.00106e-16
9.32621e-18
7.94345e-19
6.43482e-20
5.3068e-21
4.72989e-22
4.57509e-23
4.75079e-24
5.29322e-25
6.15595e-26
7.12169e-27
7.92328e-28
8.34724e-29
8.28427e-30
7.73405e-31
6.74147e-32
5.32916e-33
3.51451e-34
1.53071e-35
2.18786e-39
6.89899e-19
1.35633e-17
2.01537e-16
2.11052e-15
1.66219e-14
2.073e-13
1.99954e-12
5.08756e-12
6.6015e-11
2.46454e-10
3.82452e-10
4.02053e-10
3.32212e-09
1.88196e-09
1.65064e-09
8.02566e-10
3.8616e-10
9.58676e-10
1.97666e-08
8.75753e-08
6.96232e-08
7.66061e-12
8.25296e-12
1.04517e-11
3.72039e-12
1.13286e-12
2.70492e-13
4.92475e-14
7.18957e-15
8.68839e-16
9.03625e-17
8.36715e-18
7.07012e-19
5.6164e-20
4.40691e-21
3.62697e-22
3.18314e-23
2.96141e-24
2.96091e-25
3.17866e-26
3.4982e-27
3.76192e-28
3.83626e-29
3.65897e-30
3.25844e-31
2.7107e-32
2.06752e-33
1.33348e-34
5.77481e-36
-4.85475e-54
8.97824e-19
1.63353e-17
2.22852e-16
2.18735e-15
1.70241e-14
2.20083e-13
2.0272e-12
4.64694e-12
4.45317e-11
2.32828e-10
4.12456e-10
4.54593e-10
6.31131e-10
9.70767e-10
6.99304e-10
4.45916e-10
3.37662e-10
3.62795e-10
1.6736e-08
8.77419e-08
8.75608e-08
7.50937e-12
7.4888e-12
8.92102e-12
3.88345e-12
1.09182e-12
2.62995e-13
4.75848e-14
6.8344e-15
8.14966e-16
8.41857e-17
7.79705e-18
6.55071e-19
5.14376e-20
3.87564e-21
3.02331e-22
2.46151e-23
2.05977e-24
1.84868e-25
1.79772e-26
1.84386e-27
1.90167e-28
1.88656e-29
1.74861e-30
1.4961e-31
1.18016e-32
8.4722e-34
4.94437e-35
9.47234e-37
-4.92908e-38
1.16635e-18
2.00989e-17
2.55425e-16
2.3319e-15
1.76817e-14
2.35529e-13
2.06698e-12
4.02857e-12
3.60178e-11
2.49639e-10
5.12838e-10
6.52544e-10
6.55692e-10
7.09894e-10
4.71204e-10
3.65323e-10
2.96252e-10
4.83803e-10
8.09352e-08
8.76103e-08
8.0867e-08
7.44968e-12
7.44968e-12
7.83307e-12
4.08107e-12
1.04414e-12
2.5149e-13
4.60569e-14
6.58561e-15
7.82595e-16
8.08224e-17
7.56727e-18
6.58283e-19
5.19576e-20
3.86506e-21
2.77764e-22
2.04664e-23
1.61287e-24
1.30586e-25
1.13151e-26
1.06346e-27
1.04219e-28
1.0076e-29
9.20077e-31
7.72127e-32
5.88569e-33
3.96042e-34
2.00545e-35
2.73283e-38
-2.20834e-37
1.50238e-18
2.49714e-17
3.0107e-16
2.56733e-15
1.87467e-14
2.54464e-13
2.12419e-12
3.71287e-12
3.37112e-11
2.89213e-10
7.1916e-10
8.98856e-10
8.75551e-10
6.78602e-10
4.75801e-10
2.97157e-10
2.71165e-10
2.68357e-09
8.13281e-08
8.60112e-08
2.05245e-08
4.55775e-11
8.26095e-12
7.16411e-12
4.21239e-12
9.96581e-13
2.35683e-13
4.44244e-14
6.41379e-15
7.66977e-16
8.03712e-17
7.67461e-18
6.75045e-19
5.40346e-20
3.98746e-21
2.8252e-22
1.97803e-23
1.38128e-24
1.03036e-25
8.17182e-27
6.88878e-28
6.20433e-29
5.78777e-30
5.25149e-31
4.41769e-32
3.31912e-33
2.08612e-34
8.79775e-36
0
-3.56714e-37
1.90182e-18
3.08449e-17
3.58683e-16
2.89846e-15
2.03396e-14
2.75657e-13
2.19275e-12
3.72413e-12
3.34634e-11
3.24512e-10
8.95815e-10
9.21981e-10
9.21442e-10
6.8579e-10
4.11806e-10
2.61956e-10
2.70297e-10
1.61805e-08
2.15597e-08
1.68729e-08
4.28917e-10
2.89088e-10
1.62889e-11
6.92892e-12
4.20726e-12
9.46147e-13
2.16699e-13
4.2533e-14
6.28887e-15
7.65117e-16
8.14747e-17
7.93437e-18
7.08944e-19
5.77203e-20
4.27314e-21
2.98269e-22
2.03225e-23
1.3793e-24
9.36564e-26
6.62046e-27
5.01077e-28
4.10351e-29
3.53809e-30
3.09281e-31
2.6036e-32
1.98349e-33
1.28741e-34
5.67662e-36
-1.07497e-37
-3.6342e-37
2.34516e-18
3.73234e-17
4.23597e-16
3.29867e-15
2.23766e-14
2.90419e-13
2.23035e-12
3.83719e-12
3.35858e-11
3.2357e-10
9.14743e-10
9.22801e-10
9.221e-10
6.33783e-10
2.67543e-10
2.62619e-10
2.8377e-09
2.27229e-08
3.11215e-09
1.12763e-09
4.26183e-10
4.31606e-10
4.20014e-11
7.1546e-12
4.09212e-12
8.83007e-13
1.96291e-13
4.0316e-14
6.1775e-15
7.699e-16
8.38229e-17
8.32349e-18
7.62405e-19
6.35183e-20
4.75351e-21
3.2783e-22
2.18322e-23
1.43696e-24
9.56341e-26
6.51741e-27
4.5575e-28
3.32742e-29
2.61059e-30
2.21414e-31
1.95698e-32
1.66881e-33
1.23907e-34
6.16728e-36
-6.06938e-38
-2.55174e-37
2.79748e-18
4.37659e-17
4.87792e-16
3.71059e-15
2.45362e-14
2.9456e-13
2.22601e-12
4.13373e-12
3.35555e-11
3.00599e-10
8.56449e-10
9.22649e-10
8.75937e-10
4.92852e-10
1.57199e-10
4.58135e-10
1.996e-08
2.29362e-08
2.36892e-09
5.78669e-10
4.35172e-10
4.31229e-10
8.58047e-11
8.1808e-12
3.80328e-12
8.05279e-13
1.76057e-13
3.77648e-14
6.04576e-15
7.77717e-16
8.69634e-17
8.85136e-18
8.32363e-19
7.11857e-20
5.44385e-21
3.77749e-22
2.4682e-23
1.57988e-24
1.02412e-25
6.80793e-27
4.70197e-28
3.38506e-29
2.62729e-30
2.24379e-31
2.02483e-32
1.79305e-33
1.43318e-34
9.15649e-36
3.11772e-37
-9.158e-38
3.21256e-18
4.93861e-17
5.41948e-16
4.05725e-15
2.63389e-14
2.93134e-13
2.19625e-12
4.58856e-12
3.2997e-11
2.47943e-10
6.81613e-10
8.69487e-10
6.84327e-10
3.23514e-10
8.05353e-11
1.69575e-09
2.29362e-08
2.30198e-08
4.0117e-09
4.88651e-10
4.53412e-10
4.26876e-10
1.26081e-10
1.03117e-11
3.40512e-12
7.24374e-13
1.57126e-13
3.49012e-14
5.86246e-15
7.83371e-16
9.05112e-17
9.4677e-18
9.15078e-19
8.05741e-20
6.3419e-21
4.48706e-22
2.94038e-23
1.85226e-24
1.16682e-25
7.60959e-27
5.19505e-28
3.73255e-29
2.9154e-30
2.56304e-31
2.42489e-32
2.30377e-33
2.10618e-34
1.93329e-35
1.98848e-36
6.6483e-38
3.54352e-18
5.33917e-17
5.76034e-16
4.26696e-15
2.73875e-14
2.87258e-13
2.12105e-12
4.95598e-12
3.12431e-11
1.82643e-10
4.55526e-10
6.34408e-10
4.34445e-10
1.87353e-10
7.47283e-11
2.45672e-09
2.30198e-08
2.30198e-08
6.57555e-09
4.92613e-10
4.82361e-10
4.20515e-10
1.3734e-10
1.26845e-11
3.08663e-12
6.6078e-13
1.40447e-13
3.17622e-14
5.60282e-15
7.81915e-16
9.38099e-17
1.01244e-17
1.00591e-18
9.13404e-20
7.43977e-21
5.43021e-22
3.63284e-23
2.30365e-24
1.44454e-25
9.32177e-27
6.35893e-28
4.67856e-29
3.81048e-30
3.54989e-31
3.58646e-32
3.72529e-33
3.99349e-34
4.91135e-35
7.30168e-36
4.46668e-37
3.74019e-18
5.51539e-17
5.8574e-16
4.31649e-15
2.75783e-14
2.74531e-13
1.98399e-12
5.03285e-12
2.8157e-11
1.30448e-10
2.87745e-10
3.729e-10
2.5596e-10
9.33432e-11
6.96919e-11
1.95948e-09
2.29976e-08
2.30198e-08
6.29815e-09
5.08647e-10
5.1058e-10
3.99303e-10
1.33773e-10
1.42679e-11
3.03061e-12
6.34586e-13
1.26345e-13
2.8472e-14
5.2549e-15
7.707e-16
9.61414e-17
1.07405e-17
1.09837e-18
1.03028e-19
8.71474e-21
6.6137e-22
4.58308e-23
2.98744e-24
1.90919e-25
1.25607e-26
8.86985e-28
6.86945e-29
5.97255e-30
5.95856e-31
6.43443e-32
7.21548e-33
8.55167e-34
1.22777e-34
2.10914e-35
1.37317e-36
3.79413e-18
5.51166e-17
5.82615e-16
4.28654e-15
2.7336e-14
2.53898e-13
1.79024e-12
4.96827e-12
2.43089e-11
9.48729e-11
1.92551e-10
2.30018e-10
1.48284e-10
3.98324e-11
6.68901e-11
1.29707e-09
8.10433e-09
1.54892e-08
3.9575e-09
5.75293e-10
5.46376e-10
3.60271e-10
1.21529e-10
1.51881e-11
3.06131e-12
6.35597e-13
1.14983e-13
2.51699e-14
4.82796e-15