/*--------------------------------*- C++ -*----------------------------------*\
  =========                 |
  \\      /  F ield         | OpenFOAM: The Open Source CFD Toolbox
   \\    /   O peration     | Website:  https://openfoam.org
    \\  /    A nd           | Version:  9
     \\/     M anipulation  |
\*---------------------------------------------------------------------------*/
FoamFile
{
    format      ascii;
    class       volScalarField;
    location    "0.01";
    object      p;
}
// * * * * * * * * * * * * * * * * * * * * * * * * * * * * * * * * * * * * * //

dimensions      [1 -1 -2 0 0 0 0];

internalField   nonuniform List<scalar> 
5000
(
0.274769
0.266734
0.256891
0.244835
0.230086
0.211948
0.189187
0.159587
0.119937
0.0609822
-0.0278025
-0.0698768
0.358164
26.7402
30.4331
29.8214
29.5248
29.3918
29.338
29.314
29.2752
29.2378
29.2267
29.2878
29.4709
29.8214
30.3664
31.1043
31.9719
30.6137
2.73312
-0.41266
-0.378342
-0.336928
-0.280479
-0.214193
-0.147552
-0.0867167
-0.0330389
0.0140954
0.0557007
0.0927256
0.125939
0.155937
0.183183
0.208037
0.230795
0.251722
0.271081
0.288861
0.270905
0.262849
0.253191
0.241634
0.227723
0.210935
0.190562
0.164851
0.131701
0.08705
0.023281
-0.0249312
-0.285186
23.1102
30.003
29.5942
29.4763
29.3572
29.3207
29.3087
29.2634
29.2061
29.1595
29.1723
29.3019
29.6169
30.1862
30.9282
31.6928
26.3187
0.889117
-0.37164
-0.352277
-0.324865
-0.274141
-0.211832
-0.148425
-0.0896416
-0.0370658
0.00952362
0.0509101
0.0879248
0.121269
0.151495
0.179038
0.204243
0.227383
0.248692
0.268401
0.286551
0.267493
0.259562
0.250192
0.239195
0.226253
0.211095
0.193516
0.17243
0.147293
0.119294
0.0850236
0.0767287
0.106658
13.7671
28.7392
28.9684
29.3247
29.2683
29.2955
29.3138
29.2571
29.1614
29.0413
28.9414
28.9308
29.1329
29.7148
30.6626
31.7804
13.8654
-0.205024
-0.345196
-0.323031
-0.308279
-0.26051
-0.202648
-0.143389
-0.0876463
-0.0371503
0.00801857
0.048434
0.0847894
0.117703
0.147683
0.175146
0.200436
0.223844
0.245627
0.266014
0.284675
0.264493
0.256788
0.247776
0.237356
0.22541
0.211957
0.197236
0.180846
0.163782
0.15375
0.158944
0.18277
0.316021
3.81676
26.7603
28.1318
29.0716
29.1615
29.2781
29.3429
29.2746
29.1302
28.9025
28.61
28.3367
28.3197
28.8184
30.2617
29.7332
3.61141
-0.299464
-0.328232
-0.301444
-0.288422
-0.242994
-0.189391
-0.134297
-0.0820703
-0.0343281
0.00874086
0.0475545
0.0826694
0.114605
0.143806
0.170641
0.195416
0.218381
0.239767
0.259751
0.277422
0.261846
0.254381
0.245756
0.235937
0.224943
0.213013
0.200778
0.188503
0.178096
0.18337
0.210391
0.250175
0.345397
0.993018
19.4989
28.1267
28.8448
29.0514
29.2963
29.4132
29.3363
29.148
28.7989
28.2334
27.4849
26.7335
26.3999
27.6301
15.7989
0.438002
-0.354306
-0.324311
-0.297513
-0.269668
-0.225985
-0.175065
-0.123378
-0.0744949
-0.0296939
0.010907
0.0476706
0.0810683
0.111545
0.139481
0.165195
0.188947
0.210944
0.231373
0.250348
0.267178
0.259507
0.252285
0.244034
0.234766
0.224589
0.213841
0.203358
0.193966
0.187714
0.199667
0.237976
0.28886
0.342397
0.500102
8.28062
28.7555
28.4165
28.8421
29.3975
29.5507
29.4627
29.2675
28.8441
27.9337
26.3426
23.9611
22.3637
16.315
1.68214
-0.429756
-0.373031
-0.348004
-0.30366
-0.260563
-0.211659
-0.160905
-0.111646
-0.0657711
-0.0239186
0.0140285
0.0484658
0.0798335
0.108531
0.134897
0.159205
0.181678
0.202506
0.221883
0.239851
0.255566
0.257443
0.250459
0.242542
0.233723
0.224162
0.214182
0.20454
0.19622
0.19066
0.199668
0.240146
0.275128
0.318068
0.310582
2.98453
20.6117
27.0665
28.3302
29.5922
29.7822
29.6811
29.5825
29.2603
28.0818
25.7998
20.8776
13.7655
1.59512
-0.262405
-0.317681
-0.307484
-0.319643
-0.285012
-0.240723
-0.19228
-0.143773
-0.0977404
-0.0553542
-0.0168151
0.0181514
0.0499562
0.0790032
0.105642
0.13016
0.152786
0.173695
0.193051
0.211044
0.227722
0.242267
0.255626
0.248864
0.241228
0.232746
0.223582
0.213946
0.2043
0.195193
0.186468
0.184107
0.198019
0.209957
0.255416
0.512807
0.175059
6.26739
23.7113
27.8524
29.9649
30.0461
29.8544
30.03
30.1416
29.7154
23.8385
8.37262
0.804571
-0.222438
-0.240197
-0.258894
-0.263929
-0.263369
-0.239758
-0.203998
-0.162753
-0.120505
-0.0799875
-0.0423877
-0.00794311
0.023522
0.0523087
0.0787215
0.103026
0.125443
0.14615
0.165292
0.183006
0.199448
0.214688
0.228174
0.254034
0.247476
0.24007
0.23183
0.222873
0.213259
0.203077
0.192182
0.178785
0.165499
0.16556
0.151715
0.374872
0.379966
0.239391
0.37981
7.43168
23.5429
31.0263
30.5454
29.6542
30.3964
30.4792
18.5367
5.04431
0.074956
-0.153766
-0.190097
-0.203075
-0.213643
-0.218309
-0.211411
-0.191991
-0.163189
-0.129397
-0.0942463
-0.0600116
-0.027751
0.00221275
0.0298995
0.0554593
0.0790708
0.100902
0.121101
0.139797
0.157108
0.173151
0.188043
0.20184
0.214175
0.252653
0.246282
0.239072
0.231013
0.222151
0.212421
0.201631
0.189213
0.172706
0.154595
0.13019
0.123999
0.482428
0.189879
0.243907
0.254773
0.158752
3.46861
10.6593
18.8249
17.9824
11.2691
3.78126
0.998185
-0.0487227
-0.0653991
-0.137659
-0.153586
-0.163616
-0.174905
-0.17984
-0.171878
-0.153564
-0.128341
-0.0996031
-0.0699768
-0.0410213
-0.0134841
0.0123634
0.0364814
0.0589274
0.07979
0.0991641
0.117144
0.133821
0.149287
0.163643
0.176993
0.189378
0.200476
0.251476
0.245283
0.238253
0.230347
0.221545
0.211726
0.200548
0.187376
0.170146
0.152237
0.12962
0.141398
0.451907
0.180005
0.232046
0.236408
0.220457
0.239868
0.20873
-0.00971379
-0.258484
-0.249556
-0.183767
-0.140203
-0.128551
-0.120553
-0.127195
-0.131983
-0.1395
-0.147299
-0.148343
-0.139413
-0.122153
-0.0996381
-0.0746818
-0.0492543
-0.0244376
-0.000748477
0.0216127
0.0425959
0.0622173
0.08052
0.0975614
0.113408
0.12813
0.141803
0.154512
0.16635
0.177353
0.187238
0.2505
0.244484
0.237631
0.229879
0.22115
0.211321
0.200004
0.186644
0.169898
0.156391
0.144542
0.172219
0.481717
0.185966
0.216276
0.222865
0.202993
0.184048
0.120055
-0.000201509
-0.100778
-0.133862
-0.139004
-0.133711
-0.127962
-0.120783
-0.122626
-0.125046
-0.128238
-0.129677
-0.124932
-0.11326
-0.0960631
-0.0755183
-0.0535661
-0.0315085
-0.0100545
0.0104469
0.0298483
0.0481005
0.0652024
0.0811791
0.0960733
0.109939
0.122837
0.134828
0.145985
0.156381
0.16605
0.174782
0.249725
0.243892
0.237226
0.229639
0.221015
0.21124
0.199931
0.186619
0.170507
0.158034
0.150529
0.19253
0.468611
0.181215
0.194197
0.1988
0.180365
0.150109
0.0836832
-0.011524
-0.0849935
-0.116195
-0.123852
-0.122415
-0.120646
-0.119281
-0.120538
-0.120709
-0.119668
-0.115433
-0.10595
-0.0917428
-0.0742685
-0.0551046
-0.0354642
-0.0160943
0.00260347
0.0204263
0.0372824
0.0531381
0.0679943
0.0818748
0.0948191
0.106876
0.118096
0.128534
0.138249
0.147296
0.155705
0.163348
0.24915
0.243514
0.237048
0.229644
0.221163
0.211472
0.200195
0.186862
0.170543
0.156691
0.145212
0.197677
0.33269
0.175944
0.177523
0.176915
0.157193
0.119089
0.0513205
-0.0314215
-0.0893907
-0.113719
-0.118786
-0.11763
-0.117512
-0.118067
-0.118196
-0.115854
-0.110573
-0.101527
-0.0885519
-0.0727163
-0.0552934
-0.0373607
-0.0196173
-0.0024459
0.01396
0.0295067
0.0441548
0.0578974
0.0707505
0.0827459
0.0939254
0.104334
0.114018
0.123026
0.131404
0.139194
0.146426
0.153048
0.248773
0.243354
0.237106
0.229906
0.221598
0.212007
0.200733
0.187199
0.170124
0.153543
0.137304
0.214497
0.203213
0.165916
0.161549
0.157068
0.13466
0.0894723
0.0207113
-0.0535269
-0.101498
-0.120252
-0.122488
-0.120203
-0.119068
-0.118476
-0.115908
-0.109828
-0.100071
-0.0870079
-0.0715563
-0.054876
-0.0378936
-0.0212222
-0.00518507
0.0100706
0.0244843
0.0380367
0.050732
0.0625915
0.073649
0.0839461
0.0935269
0.102435
0.110712
0.1184
0.125539
0.132155
0.138287
0.14396
0.248594
0.243415
0.237412
0.230444
0.22234
0.212885
0.201649
0.187982
0.170475
0.152466
0.140482
0.173707
0.169603
0.153659
0.147326
0.140356
0.115067
0.0651705
-0.00441648
-0.0735971
-0.115753
-0.131092
-0.130931
-0.126669
-0.123201
-0.119271
-0.112219
-0.101282
-0.0871705
-0.0710677
-0.0541626
-0.0373582
-0.0211752
-0.00584858
0.00855654
0.0220447
0.0346428
0.0463845
0.0573093
0.0674619
0.076891
0.0856444
0.093767
0.1013
0.108282
0.114753
0.120742
0.126263
0.131365
0.136169
0.248609
0.243702
0.237978
0.231283
0.223434
0.214185
0.203102
0.189543
0.172347
0.154171
0.144534
0.145934
0.155305
0.141721
0.136114
0.128053
0.101028
0.0486943
-0.0206621
-0.0867659
-0.125432
-0.138839
-0.137811
-0.131908
-0.125209
-0.116368
-0.103901
-0.0882216
-0.0707692
-0.0529346
-0.0356695
-0.019459
-0.00444886
0.00939197
0.022156
0.0339377
0.0448188
0.0548696
0.0641546
0.0727348
0.0806667
0.0880007
0.0947801
0.101043
0.106827
0.11217
0.117093
0.121591
0.125731
0.129744
0.248813
0.244209
0.238807
0.232438
0.224911
0.215961
0.20515
0.191828
0.174944
0.156037
0.144935
0.139246
0.143073
0.132207
0.128375
0.121252
0.0946106
0.0422117
-0.0255826
-0.0886313
-0.125445
-0.138322
-0.137184
-0.129845
-0.119358
-0.105415
-0.0882482
-0.0693155
-0.0502625
-0.0322068
-0.0156615
-0.000716415
0.0127523
0.0249301
0.03599
0.0460718
0.0552866
0.0637256
0.0714667
0.0785776
0.0851163
0.0911315
0.0966634
0.101747
0.106418
0.110712
0.114642
0.118186
0.121428
0.124717
0.249196
0.244925
0.239888
0.233905
0.226778
0.218223
0.207775
0.194735
0.177979
0.158209
0.141964
0.135102
0.134891
0.126593
0.124715
0.120899
0.0972763
0.0477058
-0.0167208
-0.0766821
-0.112273
-0.125166
-0.124124
-0.115316
-0.10153
-0.0839678
-0.0642978
-0.0444316
-0.0257597
-0.0089342
0.00594312
0.0190508
0.0306519
0.040992
0.050269
0.0586361
0.0662134
0.0730979
0.0793691
0.0850927
0.0903226
0.0951027
0.0994683
0.10345
0.107083
0.1104
0.113404
0.116057
0.11846
0.121083
0.249751
0.24584
0.241207
0.23567
0.229022
0.220967
0.211
0.19838
0.181861
0.161561
0.142346
0.131578
0.128673
0.124248
0.126167
0.127676
0.109665
0.0658578
0.00702952
-0.0489288
-0.0831212
-0.0961704
-0.0954366
-0.0858636
-0.0706309
-0.0521903
-0.0328858
-0.0145033
0.0020215
0.0164507
0.0289375
0.0397759
0.0492572
0.0576209
0.0650523
0.0716951
0.077662
0.0830424
0.0879075
0.0923141
0.0963081
0.0999263
0.103198
0.106149
0.108811
0.111215
0.113355
0.115175
0.116795
0.118802
0.250464
0.246946
0.242754
0.237722
0.231634
0.224194
0.214875
0.202927
0.187012
0.166757
0.145885
0.135553
0.129205
0.125584
0.133667
0.141719
0.131326
0.0958052
0.0447466
-0.00568371
-0.0377751
-0.0509977
-0.0512309
-0.0426256
-0.0287039
-0.0124324
0.00388224
0.0188635
0.0319841
0.0432495
0.0528942
0.061198
0.0684066
0.0747156
0.080277
0.0852089
0.0896037
0.0935335
0.0970544
0.10021
0.103036
0.10556
0.107805
0.109791
0.111545
0.113098
0.114433
0.115477
0.116369
0.117809
0.251317
0.248226
0.244517
0.240049
0.234605
0.227901
0.219426
0.208456
0.193666
0.17423
0.153191
0.140983
0.136449
0.134009
0.147381
0.162541
0.160832
0.135195
0.0934246
0.0498675
0.0205046
0.0068818
0.00455499
0.0100719
0.020075
0.0317997
0.0433692
0.0538304
0.0628994
0.0706435
0.0772517
0.0829198
0.0878144
0.0920688
0.0957887
0.0990571
0.101938
0.104482
0.106726
0.108698
0.110423
0.11192
0.113203
0.114287
0.115196
0.115958
0.116547
0.116875
0.117094
0.118013
0.252288
0.249655
0.246471
0.242624
0.237903
0.232058
0.224622
0.214928
0.201799
0.184048
0.164346
0.151801
0.14761
0.148998
0.167012
0.188802
0.195945
0.180575
0.148582
0.112372
0.0858065
0.0712771
0.0657175
0.0665216
0.0709883
0.076959
0.0830753
0.0886879
0.0935959
0.0978111
0.101416
0.104501
0.107146
0.10942
0.111378
0.113065
0.114515
0.115751
0.116793
0.117655
0.11835
0.118888
0.119276
0.119524
0.119651
0.119682
0.119586
0.119258
0.118863
0.119307
0.253348
0.251195
0.248575
0.245397
0.241472
0.236594
0.230367
0.222209
0.21117
0.19593
0.178708
0.168257
0.162648
0.169637
0.19168
0.21891
0.233979
0.228063
0.20527
0.175839
0.151556
0.135584
0.126137
0.12158
0.120099
0.120228
0.121046
0.122072
0.123092
0.124021
0.124828
0.125506
0.126057
0.126489
0.126811
0.12703
0.12715
0.127173
0.1271
0.126933
0.126675
0.126327
0.12589
0.125369
0.12478
0.124145
0.123424
0.122501
0.12155
0.121565
0.25447
0.252809
0.250778
0.248302
0.245227
0.241402
0.236511
0.230087
0.221432
0.209401
0.195752
0.187618
0.18378
0.194235
0.219616
0.250936
0.27226
0.274154
0.259041
0.235126
0.212363
0.194667
0.181351
0.171722
0.164825
0.159785
0.155987
0.153032
0.15066
0.148698
0.147025
0.145555
0.14423
0.143005
0.14185
0.140738
0.139648
0.138564
0.137474
0.136368
0.135241
0.134086
0.1329
0.131682
0.130445
0.129208
0.127927
0.126471
0.125021
0.12465
0.255626
0.254462
0.253029
0.25127
0.249078
0.246356
0.242872
0.238298
0.232169
0.2237
0.213849
0.207001
0.208434
0.221688
0.249208
0.283141
0.308504
0.316128
0.30671
0.286806
0.264895
0.245557
0.228946
0.215144
0.203876
0.194695
0.187186
0.180992
0.17582
0.171436
0.167658
0.164347
0.161397
0.158727
0.156271
0.15398
0.151813
0.149741
0.147741
0.145795
0.143888
0.142012
0.140157
0.138317
0.136503
0.134731
0.132951
0.131024
0.129134
0.128416
0.256785
0.25612
0.255282
0.25424
0.252938
0.251328
0.249263
0.246557
0.242949
0.238029
0.232397
0.229936
0.233974
0.249807
0.2783
0.313813
0.340857
0.352103
0.346499
0.329258
0.307801
0.287207
0.268176
0.251342
0.236892
0.22466
0.214363
0.20568
0.198308
0.191984
0.186492
0.181659
0.177348
0.17345
0.169879
0.166568
0.163465
0.16053
0.157733
0.15505
0.152462
0.149953
0.147511
0.145128
0.142809
0.140568
0.138353
0.136014
0.13374
0.132716
0.257918
0.257743
0.257487
0.257151
0.256721
0.256196
0.255506
0.254596
0.253373
0.251708
0.250024
0.251223
0.258998
0.276924
0.305929
0.340262
0.368009
0.381138
0.377834
0.362281
0.341166
0.319861
0.299352
0.280601
0.264073
0.249779
0.237529
0.227043
0.218031
0.210225
0.203393
0.197347
0.19193
0.187019
0.182517
0.178346
0.174447
0.170777
0.1673
0.163986
0.160813
0.157763
0.154819
0.151969
0.149217
0.146575
0.143986
0.141298
0.138695
0.137403
0.258992
0.259291
0.259597
0.259942
0.260347
0.260846
0.261443
0.262188
0.263128
0.264335
0.266276
0.271329
0.282183
0.301404
0.32999
0.362603
0.389485
0.40312
0.401025
0.386564
0.365885
0.344444
0.323305
0.303589
0.285906
0.270372
0.256874
0.245179
0.23502
0.22614
0.218308
0.21133
0.205045
0.199324
0.194065
0.189189
0.184635
0.180355
0.176311
0.172472
0.168812
0.16531
0.161946
0.158706
0.155592
0.152614
0.149713
0.146734
0.143858
0.142337
0.259977
0.260724
0.261565
0.262555
0.263736
0.265176
0.266939
0.269156
0.271984
0.275638
0.280659
0.288562
0.302121
0.322278
0.349943
0.380252
0.405281
0.418474
0.4169
0.403238
0.383194
0.362127
0.341045
0.321111
0.302991
0.28687
0.272695
0.260279
0.249389
0.239785
0.231248
0.223588
0.216648
0.210302
0.20445
0.199016
0.193937
0.189167
0.184667
0.180404
0.176348
0.172479
0.168775
0.165219
0.16181
0.158558
0.155405
0.152194
0.149099
0.147388
0.260847
0.26201
0.263351
0.264936
0.26682
0.2691
0.271889
0.275367
0.279765
0.285386
0.292797
0.303091
0.318105
0.338911
0.365273
0.39296
0.415811
0.427959
0.426524
0.413567
0.394379
0.374089
0.353575
0.333972
0.315951
0.299741
0.285333
0.272587
0.261303
0.251266
0.242272
0.234144
0.226736
0.219932
0.213637
0.207778
0.202298
0.19715
0.192295
0.1877
0.183336
0.179179
0.175208
0.171405
0.167767
0.164302
0.160954
0.157566
0.154305
0.152441
0.261579
0.263126
0.264923
0.267041
0.269545
0.272554
0.276214
0.280732
0.286374
0.293479
0.302609
0.314582
0.330586
0.351314
0.376068
0.401179
0.421526
0.432465
0.431009
0.418774
0.400631
0.381405
0.361814
0.342923
0.325385
0.309449
0.295145
0.28237
0.270959
0.26072
0.251473
0.243059
0.235346
0.228229
0.221624
0.215462
0.209691
0.204265
0.199149
0.194308
0.189714
0.185344
0.181174
0.177187
0.17338
0.169759
0.166268
0.162755
0.159376
0.157392
0.262156
0.264051
0.266255
0.268837
0.271871
0.275496
0.279871
0.28521
0.291786
0.29994
0.310193
0.323163
0.339592
0.359744
0.382702
0.405292
0.423278
0.43292
0.431416
0.419951
0.402989
0.385011
0.366565
0.348637
0.331841
0.316434
0.302477
0.289898
0.278561
0.268304
0.25897
0.250421
0.242541
0.235239
0.228439
0.222081
0.216116
0.210504
0.205209
0.200199
0.195446
0.190928
0.186622
0.182511
0.178589
0.174863
0.171278
0.167683
0.164229
0.162164
0.26256
0.264767
0.267323
0.270297
0.273775
0.277902
0.28284
0.288793
0.296026
0.304856
0.31574
0.329131
0.34546
0.36469
0.385806
0.405991
0.4218
0.430185
0.42868
0.41803
0.402333
0.385694
0.368518
0.351699
0.335807
0.3211
0.307656
0.295432
0.284321
0.274186
0.264897
0.256335
0.248404
0.241024
0.23413
0.227668
0.221595
0.215874
0.210473
0.205361
0.200513
0.195907
0.191521
0.187338
0.183353
0.17957
0.175939
0.172309
0.16882
0.166717
0.26278
0.265258
0.268109
0.271406
0.275244
0.279765
0.285123
0.291505
0.299152
0.308347
0.319464
0.332829
0.348657
0.366719
0.385957
0.403956
0.417775
0.425037
0.423589
0.413781
0.399384
0.38411
0.368252
0.352611
0.337712
0.323805
0.310982
0.299222
0.288444
0.278537
0.269395
0.26092
0.253032
0.245663
0.238759
0.232271
0.226163
0.2204
0.214955
0.209801
0.204913
0.20027
0.195854
0.191647
0.187642
0.183845
0.180209
0.176589
0.173111
0.170978
0.262807
0.265511
0.268602
0.272157
0.276278
0.281092
0.28674
0.293388
0.301247
0.310553
0.321601
0.334616
0.349659
0.366404
0.383782
0.399743
0.411849
0.418136
0.416784
0.407833
0.394722
0.380792
0.366246
0.351797
0.337924
0.324867
0.312727
0.3015
0.291129
0.281527
0.27261
0.2643
0.25653
0.249245
0.242398
0.235949
0.229866
0.224119
0.218684
0.213536
0.208653
0.204016
0.199608
0.195412
0.191421
0.187637
0.184021
0.180441
0.177002
0.174821
0.262639
0.265522
0.268801
0.272557
0.276886
0.281902
0.287724
0.2945
0.302405
0.311628
0.32239
0.334829
0.348909
0.364274
0.379855
0.393944
0.404552
0.410047
0.408765
0.40068
0.38881
0.376169
0.362892
0.34961
0.336759
0.324566
0.313135
0.302481
0.292564
0.283321
0.274686
0.266598
0.259004
0.25186
0.245127
0.23877
0.232763
0.227079
0.221698
0.216597
0.211757
0.207161
0.202791
0.198633
0.194677
0.190925
0.187341
0.183805
0.180409
0.178174
0.262272
0.265294
0.268716
0.27262
0.27709
0.282222
0.288121
0.294909
0.302729
0.311725
0.322049
0.33377
0.346793
0.360753
0.374654
0.387058
0.396376
0.401135
0.399953
0.392711
0.382009
0.370582
0.358508
0.346344
0.334483
0.323141
0.312425
0.302359
0.292924
0.284074
0.27576
0.267937
0.260564
0.253605
0.247028
0.240806
0.234915
0.229333
0.224042
0.219023
0.214256
0.209727
0.205419
0.201318
0.197415
0.19371
0.190167
0.186678
0.183327
0.181057
0.26171
0.264834
0.26836
0.272361
0.27691
0.282086
0.287978
0.294687
0.302323
0.310987
0.320774
0.331699
0.343634
0.356185
0.368544
0.379457
0.387615
0.391769
0.390659
0.384222
0.374601
0.364301
0.35335
0.342239
0.331322
0.320802
0.310786
0.30131
0.292367
0.283929
0.275963
0.268434
0.261313
0.254572
0.248186
0.242132
0.23639
0.230942
0.225772
0.220862
0.216197
0.21176
0.207539
0.203519
0.19969
0.19605
0.192565
0.189129
0.185817
0.183547
0.260955
0.264152
0.267745
0.271799
0.276371
0.281529
0.287346
0.293904
0.301282
0.309543
0.318734
0.328834
0.339692
0.350928
0.361845
0.371431
0.378561
0.382179
0.381137
0.375411
0.366799
0.357535
0.347623
0.337493
0.327464
0.317726
0.308386
0.299488
0.291037
0.28302
0.275415
0.2682
0.261353
0.254854
0.248683
0.242821
0.237252
0.231961
0.226934
0.222154
0.217608
0.213281
0.209161
0.205235
0.201496
0.197943
0.194546
0.191193
0.18796
0.185815
0.260012
0.263255
0.266883
0.270947
0.275495
0.280583
0.286273
0.292626
0.299693
0.307506
0.316076
0.325352
0.335176
0.345201
0.354823
0.363202
0.369413
0.372543
0.371566
0.366457
0.358777
0.35045
0.34149
0.332266
0.323064
0.314063
0.305367
0.297027
0.289061
0.281464
0.274227
0.267336
0.260777
0.254536
0.248597
0.242945
0.237566
0.232448
0.227577
0.222942
0.218529
0.214327
0.210325
0.206514
0.20289
0.199453
0.196186
0.192993
0.189912
0.187779
0.258886
0.262152
0.265783
0.269821
0.274305
0.279285
0.284807
0.290914
0.297635
0.304976
0.31292
0.321398
0.33025
0.339165
0.347622
0.354924
0.36031
0.36299
0.362068
0.3575
0.35066
0.343178
0.335084
0.326689
0.318251
0.309937
0.30185
0.294046
0.28655
0.279368
0.2725
0.265938
0.259676
0.253702
0.248006
0.242575
0.237398
0.232465
0.227764
0.223286
0.219018
0.214952
0.211077
0.207388
0.203878
0.200546
0.197378
0.194311
0.19136
0.189117
0.257586
0.26085
0.264456
0.268436
0.272826
0.277666
0.28299
0.288825
0.295179
0.302041
0.309371
0.317091
0.325043
0.33295
0.340365
0.346709
0.351351
0.353613
0.352734
0.34864
0.342531
0.335821
0.328507
0.320866
0.313131
0.305454
0.297939
0.290644
0.283602
0.276827
0.270323
0.264092
0.258129
0.252428
0.24698
0.241777
0.236808
0.232066
0.22754
0.223222
0.2191
0.215165
0.211409
0.207824
0.204406
0.201151
0.198044
0.195031
0.192141
0.189884
0.256124
0.259362
0.262916
0.266814
0.271086
0.275763
0.280868
0.286413
0.292391
0.298776
0.305517
0.312526
0.319655
0.326654
0.333142
0.338632
0.342603
0.34448
0.343624
0.339943
0.334472
0.328454
0.321841
0.314883
0.307789
0.300702
0.293721
0.286909
0.280303
0.273922
0.267777
0.261872
0.256207
0.250779
0.245582
0.240608
0.23585
0.231301
0.226954
0.222798
0.218826
0.215028
0.211396
0.207925
0.204609
0.201447
0.198419
0.19546
0.19261
0.190471
0.254509
0.257699
0.261181
0.264977
0.269113
0.273611
0.278483
0.283728
0.28933
0.295251
0.301432
0.307783
0.314163
0.320348
0.326011
0.330743
0.334111
0.335633
0.334767
0.33145
0.326552
0.321136
0.315151
0.308808
0.302298
0.295753
0.289271
0.282916
0.276726
0.270726
0.26493
0.259346
0.253975
0.248818
0.24387
0.239126
0.234581
0.230229
0.226065
0.222081
0.218271
0.214625
0.211138
0.207803
0.204615
0.201574
0.198662
0.195804
0.193038
0.191068
0.252752
0.255877
0.25927
0.26295
0.266938
0.271246
0.275876
0.280818
0.286049
0.291524
0.297179
0.302924
0.308625
0.314083
0.319014
0.323072
0.325899
0.327099
0.326226
0.323213
0.318806
0.313918
0.308488
0.302698
0.296717
0.290672
0.284654
0.278728
0.272935
0.267301
0.261843
0.25657
0.251487
0.246595
0.241894
0.237379
0.233048
0.228896
0.22492
0.221114
0.217472
0.213988
0.210656
0.207469
0.204424
0.201523
0.198751
0.196038
0.19341
0.191586
0.250863
0.253911
0.257204
0.260759
0.264589
0.268699
0.273083
0.277724
0.282594
0.287644
0.292809
0.297999
0.303087
0.307895
0.312175
0.315636
0.317981
0.318888
0.317999
0.315243
0.31126
0.306833
0.301892
0.296597
0.291098
0.285511
0.279925
0.274402
0.268984
0.2637
0.258565
0.253593
0.248789
0.244157
0.239697
0.235408
0.231288
0.227336
0.223547
0.21992
0.216448
0.213126
0.209951
0.206916
0.20402
0.201264
0.198638
0.196079
0.193607
0.191883
0.248852
0.251814
0.255
0.258423
0.26209
0.265997
0.270134
0.274481
0.279003
0.283652
0.288362
0.293044
0.297579
0.301807
0.30551
0.308442
0.310361
0.311005
0.310093
0.307553
0.303933
0.299909
0.295399
0.290545
0.285481
0.280314
0.275128
0.269982
0.264919
0.259965
0.25514
0.250457
0.245922
0.241542
0.237317
0.233249
0.229337
0.225581
0.221978
0.218527
0.215224
0.212064
0.209044
0.20616
0.20341
0.200794
0.198304
0.195888
0.193558
0.191901
0.246728
0.249599
0.252674
0.255961
0.259459
0.263162
0.267055
0.271115
0.275306
0.279579
0.283867
0.288086
0.292123
0.295832
0.299025
0.301491
0.303034
0.303447
0.302508
0.300148
0.296839
0.293164
0.289033
0.284572
0.279902
0.275119
0.270303
0.265508
0.260777
0.256136
0.251605
0.247197
0.242921
0.238784
0.234788
0.230935
0.227227
0.223664
0.220244
0.216967
0.21383
0.210828
0.207959
0.205219
0.202606
0.200121
0.197756
0.195466
0.193258
0.191653
0.244499
0.247277
0.250237
0.253384
0.256712
0.260212
0.263866
0.26765
0.271528
0.275449
0.279348
0.283144
0.286732
0.289979
0.292721
0.294779
0.295994
0.296205
0.295238
0.293028
0.289984
0.286612
0.282814
0.278705
0.274389
0.269957
0.26548
0.261011
0.25659
0.252243
0.24799
0.243845
0.239817
0.235914
0.23214
0.228497
0.224988
0.221613
0.218373
0.215266
0.212289
0.209439
0.206714
0.204111
0.201627
0.199262
0.197011
0.194833
0.192734
0.191171
0.242176
0.244857
0.2477
0.250704
0.253862
0.257162
0.260585
0.264105
0.267687
0.27128
0.274822
0.278233
0.281416
0.284253
0.286597
0.288299
0.28923
0.289266
0.288274
0.286189
0.283372
0.280262
0.276757
0.27296
0.268964
0.26485
0.260685
0.256517
0.252385
0.248314
0.244323
0.240427
0.236637
0.23296
0.229401
0.225962
0.222647
0.219456
0.21639
0.213447
0.210625
0.207921
0.205333
0.202858
0.200494
0.19824
0.196092
0.194016
0.192013
0.190487
0.239768
0.242349
0.245072
0.247932
0.250921
0.254025
0.257226
0.260497
0.263802
0.26709
0.270302
0.273363
0.276184
0.278655
0.280651
0.282045
0.282733
0.28262
0.281604
0.279623
0.276999
0.274117
0.27087
0.267352
0.263643
0.259819
0.255938
0.252048
0.248184
0.24437
0.240627
0.236969
0.233406
0.229946
0.226595
0.223355
0.220228
0.217217
0.21432
0.211536
0.208864
0.2063
0.203842
0.201489
0.199237
0.197088
0.195036
0.193053
0.191136
0.189639
0.237286
0.239763
0.242363
0.24508
0.247902
0.250818
0.253807
0.256842
0.259887
0.262893
0.265803
0.268546
0.27104
0.273188
0.274879
0.276008
0.276489
0.27625
0.275213
0.273321
0.270863
0.268179
0.265159
0.261888
0.258438
0.254875
0.251255
0.24762
0.244005
0.240433
0.236923
0.233491
0.230145
0.226895
0.223744
0.220696
0.217754
0.214917
0.212185
0.209557
0.20703
0.2046
0.202265
0.200022
0.197869
0.195805
0.193829
0.19192
0.190082
0.188636
0.234738
0.237109
0.239585
0.242159
0.24482
0.247555
0.250343
0.253156
0.255958
0.258703
0.261335
0.26379
0.265991
0.267853
0.269279
0.270179
0.270486
0.270141
0.269086
0.267271
0.264955
0.262443
0.259624
0.256573
0.253355
0.25003
0.246647
0.243249
0.239864
0.236518
0.233228
0.230009
0.226871
0.223821
0.220865
0.218004
0.215241
0.212576
0.210008
0.207536
0.205156
0.202864
0.200658
0.198534
0.196489
0.194522
0.19263
0.190796
0.189019
0.187523
0.232133
0.234397
0.236749
0.239183
0.241689
0.24425
0.246848
0.249452
0.252027
0.25453
0.256908
0.259101
0.261041
0.26265
0.263845
0.26455
0.264709
0.264277
0.263208
0.261458
0.259266
0.256905
0.254263
0.251408
0.248399
0.245289
0.242125
0.238944
0.235774
0.232639
0.229557
0.22654
0.223599
0.22074
0.21797
0.215289
0.212701
0.210205
0.207801
0.205486
0.203258
0.201113
0.199045
0.197051
0.195123
0.193255
0.191436
0.189645
0.187868
0.186295
0.229479
0.231635
0.233866
0.236165
0.238521
0.240918
0.243335
0.245743
0.248107
0.250386
0.252531
0.254487
0.256192
0.257578
0.258572
0.25911
0.259145
0.25864
0.257561
0.255869
0.253785
0.251556
0.249071
0.246393
0.243572
0.240659
0.237694
0.234714
0.231744
0.228807
0.225918
0.223092
0.220336
0.21766
0.215066
0.212557
0.210137
0.207804
0.205561
0.203404
0.201332
0.199341
0.197427
0.195584
0.193804
0.192076
0.190381
0.188688
0.186961
0.185273
0.22678
0.228831
0.230945
0.233115
0.235328
0.237569
0.239815
0.242039
0.244206
0.246278
0.24821
0.249951
0.251447
0.252636
0.253455
0.253849
0.25378
0.253216
0.25213
0.250489
0.2485
0.246388
0.244044
0.241524
0.238875
0.236141
0.23336
0.230565
0.227781
0.225028
0.222321
0.219672
0.217091
0.214584
0.212155
0.209808
0.207546
0.205369
0.203279
0.201277
0.199363
0.197538
0.195804
0.194164
0.192627
0.191203
0.189909
0.188765
0.187809
0.187137
0.224044
0.225993
0.227995
0.230041
0.232118
0.234211
0.236296
0.238346
0.24033
0.242211
0.243948
0.245496
0.246804
0.247818
0.248485
0.248757
0.248599
0.247986
0.246897
0.245304
0.243399
0.241392
0.239175
0.236799
0.234306
0.231737
0.229126
0.226503
0.22389
0.221307
0.218769
0.216285
0.213865
0.211514
0.209239
0.20704
0.204923
0.202887
0.200936
0.199071
0.197293
0.195603
0.194005
0.192499
0.191088
0.189775
0.188558
0.187431
0.186379
0.185412
0.221274
0.223126
0.22502
0.226948
0.228897
0.230848
0.232781
0.234669
0.236483
0.238188
0.239747
0.24112
0.24226
0.243121
0.243655
0.243821
0.243589
0.242938
0.241849
0.240298
0.238471
0.236559
0.234458
0.232213
0.229863
0.227446
0.224991
0.222527
0.220074
0.217649
0.215265
0.212933
0.210661
0.208454
0.206317
0.204252
0.202264
0.200353
0.198521
0.196769
0.195098
0.193507
0.191996
0.190565
0.189211
0.187931
0.186723
0.185577
0.184489
0.183472
0.218476
0.220234
0.222025
0.223841
0.225667
0.227485
0.229274
0.231011
0.232666
0.23421
0.235607
0.236822
0.237812
0.238537
0.238955
0.23903
0.238737
0.238055
0.236969
0.235461
0.233704
0.23188
0.229885
0.227761
0.225544
0.223266
0.220956
0.218639
0.216332
0.214052
0.211811
0.209618
0.207481
0.205404
0.203392
0.201448
0.199574
0.197772
0.196042
0.194386
0.192802
0.191291
0.18985
0.188477
0.187171
0.185929
0.184747
0.183618
0.182539
0.181519
0.215654
0.217321
0.219014
0.220722
0.22243
0.224122
0.225777
0.227371
0.228881
0.230276
0.231527
0.232599
0.233456
0.234061
0.234378
0.234376
0.234031
0.233325
0.232247
0.230778
0.229089
0.227346
0.22545
0.223439
0.221344
0.219195
0.217019
0.214837
0.212665
0.210519
0.208408
0.206343
0.204328
0.202369
0.200471
0.198635
0.196863
0.195158
0.193519
0.191947
0.190441
0.189
0.187623
0.186307
0.18505
0.18385
0.182704
0.181605
0.18055
0.179551
0.212812
0.214392
0.21599
0.217594
0.21919
0.220761
0.222289
0.223752
0.225127
0.226387
0.227505
0.228449
0.229187
0.229687
0.229916
0.229847
0.22946
0.228737
0.227669
0.226241
0.224616
0.22295
0.221146
0.219239
0.217258
0.215229
0.213176
0.211118
0.209071
0.207047
0.205056
0.203106
0.201204
0.199353
0.197558
0.19582
0.194142
0.192524
0.190968
0.189474
0.188039
0.186665
0.185348
0.184088
0.182882
0.181728
0.180622
0.179561
0.178541
0.177575
0.209954
0.211449
0.212954
0.214458
0.215947
0.217405
0.218814
0.220155
0.221406
0.222542
0.223539
0.224369
0.225002
0.225409
0.225562
0.225437
0.225014
0.224281
0.223226
0.221839
0.220276
0.218682
0.216965
0.215156
0.213281
0.211363
0.209424
0.207481
0.205547
0.203636
0.201755
0.199912
0.198112
0.19636
0.194659
0.193012
0.19142
0.189884
0.188405
0.186983
0.185617
0.184306
0.183049
0.181844
0.180689
0.179583
0.178522
0.177504
0.176524
0.175596
0.207085
0.208496
0.209911
0.211318
0.212704
0.214055
0.215353
0.216581
0.217718
0.218742
0.21963
0.220357
0.220897
0.221222
0.221309
0.221137
0.220687
0.219948
0.21891
0.217564
0.21606
0.214536
0.212901
0.211183
0.209406
0.207591
0.205757
0.20392
0.202092
0.200284
0.198504
0.196759
0.195054
0.193394
0.191781
0.190218
0.188706
0.187247
0.185841
0.184488
0.183187
0.181938
0.180739
0.179589
0.178486
0.177429
0.176415
0.175441
0.174504
0.173617
0.204206
0.205536
0.206863
0.208177
0.209466
0.210715
0.21191
0.213033
0.214065
0.214988
0.215778
0.216413
0.216869
0.217124
0.217154
0.216941
0.21647
0.215729
0.214711
0.213406
0.211961
0.210503
0.208945
0.207313
0.205627
0.203908
0.202171
0.200432
0.198701
0.196988
0.195302
0.193648
0.192032
0.190457
0.188927
0.187443
0.186007
0.184621
0.183284
0.181997
0.180759
0.17957
0.178427
0.177331
0.176279
0.175271
0.174304
0.173375
0.172482
0.171636