/*--------------------------------*- C++ -*----------------------------------*\
  =========                 |
  \\      /  F ield         | OpenFOAM: The Open Source CFD Toolbox
   \\    /   O peration     | Website:  https://openfoam.org
    \\  /    A nd           | Version:  9
     \\/     M anipulation  |
\*---------------------------------------------------------------------------*/
FoamFile
{
    format      ascii;
    class       volScalarField;
    location    "0.01";
    object      p_rgh;
}
// * * * * * * * * * * * * * * * * * * * * * * * * * * * * * * * * * * * * * //

dimensions      [1 -1 -2 0 0 0 0];

internalField   nonuniform List<scalar> 
5000
(
-0.0220362
-0.0300713
-0.0399143
-0.0519704
-0.0667189
-0.0848573
-0.107618
-0.13722
-0.176898
-0.236294
-0.329158
-0.370979
-14.7055
-205.683
-266.365
-266.982
-267.28
-267.413
-267.467
-267.491
-267.53
-267.567
-267.579
-267.517
-267.334
-266.984
-266.439
-265.696
-264.828
-237.491
-51.2689
-0.834075
-0.752329
-0.650393
-0.580745
-0.511704
-0.444512
-0.383558
-0.329854
-0.282712
-0.241105
-0.20408
-0.170866
-0.140868
-0.113623
-0.0887678
-0.0660103
-0.0450832
-0.0257245
-0.00794444
-0.0239384
-0.0319944
-0.0416526
-0.0532095
-0.0671205
-0.083908
-0.104281
-0.129994
-0.163177
-0.208466
-0.273223
-0.322311
-7.19537
-192.532
-264.833
-265.248
-265.367
-265.486
-265.523
-265.535
-265.58
-265.637
-265.684
-265.671
-265.541
-265.226
-264.657
-263.907
-263.143
-221.46
-33.1243
-0.792574
-0.725911
-0.634609
-0.572518
-0.507503
-0.44346
-0.384533
-0.331921
-0.285323
-0.243934
-0.206919
-0.173575
-0.143348
-0.115805
-0.0906006
-0.06746
-0.0461514
-0.026442
-0.00829259
-0.0253882
-0.033319
-0.0426891
-0.0536863
-0.0666278
-0.0817863
-0.0993651
-0.120453
-0.145634
-0.174543
-0.221622
-0.226116
-0.199696
-163.421
-264.119
-263.913
-263.556
-263.613
-263.586
-263.567
-263.624
-263.72
-263.84
-263.94
-263.95
-263.748
-263.165
-262.206
-261.089
-176.33
-4.95586
-0.711894
-0.695311
-0.612177
-0.556413
-0.496268
-0.436445
-0.380573
-0.330043
-0.284866
-0.244448
-0.208092
-0.175179
-0.145198
-0.117735
-0.092445
-0.0690372
-0.0472539
-0.0268676
-0.00820579
-0.0264264
-0.0341314
-0.0431437
-0.0535628
-0.0655092
-0.0789627
-0.0936836
-0.110077
-0.127197
-0.138773
-0.150842
-0.123767
0.00882435
-107.006
-262.565
-262.787
-261.847
-261.758
-261.641
-261.576
-261.645
-261.789
-262.017
-262.309
-262.583
-262.599
-262.099
-260.656
-247.555
-87.7794
-0.714326
-0.674064
-0.653963
-0.583403
-0.536225
-0.480743
-0.425339
-0.373018
-0.325255
-0.28218
-0.243365
-0.20825
-0.176314
-0.147113
-0.120278
-0.0955032
-0.0725384
-0.0511519
-0.0311682
-0.0134977
-0.0271117
-0.0345767
-0.0432016
-0.0530201
-0.064014
-0.0759444
-0.0881799
-0.100458
-0.110924
-0.107123
-0.0979099
-0.0616112
0.0368528
-46.601
-237.167
-260.823
-260.112
-259.906
-259.661
-259.544
-259.621
-259.809
-260.158
-260.724
-261.472
-262.223
-262.556
-261.324
-162.453
-10.6963
-0.749053
-0.646274
-0.597726
-0.560386
-0.515962
-0.464129
-0.412388
-0.36346
-0.318654
-0.278051
-0.241287
-0.207889
-0.177413
-0.149476
-0.123762
-0.10001
-0.0780129
-0.0575838
-0.0386091
-0.0217795
-0.0274887
-0.0347106
-0.0429608
-0.052229
-0.0624068
-0.0731542
-0.0836375
-0.0930325
-0.0993519
-0.0885991
-0.0538392
-0.0216854
0.0331861
-10.0936
-164.924
-258.206
-258.577
-258.152
-257.598
-257.445
-257.533
-257.728
-258.151
-259.061
-260.652
-263.033
-264.628
-196.107
-21.6469
-0.793325
-0.740733
-0.653274
-0.591045
-0.547712
-0.498695
-0.447915
-0.398644
-0.352767
-0.310914
-0.272967
-0.23853
-0.207162
-0.178464
-0.152099
-0.12779
-0.105318
-0.0844893
-0.0651118
-0.0471447
-0.0314288
-0.0275906
-0.0345746
-0.0424916
-0.0513104
-0.060871
-0.0708511
-0.0804931
-0.0888166
-0.0944417
-0.0857525
-0.0453241
-0.0327818
0.00681479
-0.326857
-57.1085
-230.804
-257.958
-256.701
-255.438
-255.251
-255.352
-255.448
-255.768
-256.948
-259.233
-264.152
-192.355
-24.0584
-0.609461
-0.621014
-0.644022
-0.610881
-0.57015
-0.525785
-0.477322
-0.428809
-0.382774
-0.340388
-0.301848
-0.266882
-0.235077
-0.20603
-0.179391
-0.154873
-0.132248
-0.111338
-0.0919821
-0.0739892
-0.0573115
-0.0427666
-0.0274451
-0.0342068
-0.0418434
-0.0503251
-0.0594897
-0.0691255
-0.0787712
-0.0878821
-0.0966429
-0.099417
-0.0962565
-0.0915372
-0.199201
-0.560333
-0.310282
-95.4746
-248.819
-255.213
-253.103
-253.006
-253.199
-253.039
-252.926
-253.352
-250.128
-153.506
-17.8008
-0.564668
-0.52897
-0.547489
-0.557971
-0.547709
-0.522857
-0.487077
-0.445827
-0.403577
-0.363059
-0.325459
-0.291014
-0.259549
-0.230763
-0.20435
-0.180045
-0.157628
-0.136922
-0.117779
-0.100065
-0.0836236
-0.0683836
-0.0548969
-0.0270752
-0.0336336
-0.0410395
-0.0492792
-0.058236
-0.0678506
-0.0780326
-0.0889299
-0.102333
-0.116289
-0.135746
-0.148486
-0.342348
-0.597843
-0.201202
-0.126934
-94.9511
-226.61
-250.076
-250.548
-251.441
-250.708
-242.096
-196.579
-92.7042
-8.84932
-0.493624
-0.477398
-0.485338
-0.495329
-0.499778
-0.492549
-0.473109
-0.444301
-0.410507
-0.375356
-0.341121
-0.30886
-0.278897
-0.25121
-0.22565
-0.202038
-0.180207
-0.160008
-0.141313
-0.124001
-0.107959
-0.0930667
-0.0792691
-0.0669339
-0.0264945
-0.0328653
-0.0400753
-0.0481347
-0.0569967
-0.0667265
-0.0775168
-0.0899357
-0.106442
-0.125018
-0.162372
-0.181014
-0.228561
-0.104384
-0.0373723
-0.0319796
-0.183031
-48.2428
-128.512
-167.692
-162.62
-133.18
-77.8013
-24.8632
-0.645861
-0.437102
-0.441648
-0.433608
-0.44296
-0.45416
-0.459063
-0.451032
-0.432713
-0.407489
-0.378751
-0.349124
-0.320169
-0.292631
-0.266784
-0.242666
-0.22022
-0.199357
-0.179983
-0.162003
-0.145326
-0.12986
-0.115504
-0.102154
-0.0897697
-0.0786715
-0.0257096
-0.0319026
-0.0389327
-0.046838
-0.0556398
-0.0654596
-0.0766372
-0.0898095
-0.107044
-0.126304
-0.150247
-0.177495
-0.253234
-0.150849
-0.0451871
-0.04817
-0.0586502
-0.0921697
-0.794539
-2.71708
-2.6186
-1.36287
-0.534111
-0.466846
-0.453673
-0.419138
-0.408262
-0.409348
-0.416706
-0.424506
-0.425545
-0.416601
-0.399339
-0.376824
-0.351867
-0.32644
-0.301623
-0.277934
-0.255573
-0.234589
-0.214968
-0.196665
-0.179624
-0.163777
-0.149055
-0.135382
-0.122673
-0.110835
-0.0998322
-0.0899477
-0.0247232
-0.0307396
-0.0375918
-0.0453439
-0.0540729
-0.0639025
-0.075219
-0.0885789
-0.10536
-0.12103
-0.131794
-0.173836
-0.209646
-0.0893258
-0.0589538
-0.0523965
-0.07254
-0.0925914
-0.159202
-0.280811
-0.381623
-0.415201
-0.422284
-0.423275
-0.416032
-0.399656
-0.397956
-0.400294
-0.403468
-0.404905
-0.400158
-0.388483
-0.371286
-0.350742
-0.328789
-0.306732
-0.285278
-0.264776
-0.245375
-0.227123
-0.210021
-0.194044
-0.17915
-0.165284
-0.152387
-0.140395
-0.129238
-0.118842
-0.109174
-0.100441
-0.0235364
-0.029369
-0.0360357
-0.0436227
-0.0522458
-0.0620211
-0.07333
-0.0866421
-0.102792
-0.117092
-0.123233
-0.163936
-0.189535
-0.0920521
-0.0790682
-0.0745691
-0.093258
-0.12343
-0.189874
-0.285102
-0.358685
-0.391019
-0.398901
-0.39733
-0.395391
-0.392968
-0.393814
-0.393973
-0.392931
-0.388696
-0.379213
-0.365004
-0.34753
-0.328366
-0.308725
-0.289356
-0.270658
-0.252835
-0.235979
-0.220123
-0.205267
-0.191386
-0.178442
-0.166386
-0.155166
-0.144727
-0.135012
-0.125965
-0.117557
-0.109913
-0.0221497
-0.0277851
-0.0342515
-0.0416556
-0.0501362
-0.0598276
-0.0711044
-0.0844377
-0.100803
-0.114836
-0.126376
-0.163015
-0.213609
-0.0953575
-0.0937799
-0.0944685
-0.114218
-0.152294
-0.220138
-0.302834
-0.360717
-0.385063
-0.390294
-0.389568
-0.389107
-0.389382
-0.389498
-0.387154
-0.381873
-0.372826
-0.359851
-0.344016
-0.326593
-0.30866
-0.290917
-0.273745
-0.257339
-0.241793
-0.227144
-0.213402
-0.200549
-0.188553
-0.177374
-0.166965
-0.157281
-0.148274
-0.139895
-0.132106
-0.124873
-0.118252
-0.020564
-0.0259834
-0.032231
-0.0394312
-0.0477396
-0.0573305
-0.0686039
-0.0821382
-0.0992882
-0.115826
-0.132297
-0.150688
-0.14645
-0.103422
-0.10779
-0.112271
-0.134678
-0.179865
-0.248626
-0.322877
-0.370841
-0.389613
-0.39197
-0.389677
-0.388427
-0.387815
-0.385246
-0.379165
-0.369408
-0.356345
-0.340894
-0.324213
-0.307231
-0.29056
-0.274522
-0.259267
-0.244853
-0.231301
-0.218605
-0.206746
-0.195688
-0.185391
-0.17581
-0.166902
-0.158626
-0.150937
-0.143798
-0.137182
-0.13105
-0.125377
-0.0187812
-0.0239598
-0.0299632
-0.0369312
-0.0450348
-0.0544903
-0.0657259
-0.0793933
-0.0969526
-0.11492
-0.127498
-0.156368
-0.103232
-0.113794
-0.120051
-0.127021
-0.152312
-0.202216
-0.271792
-0.340972
-0.383129
-0.398504
-0.398351
-0.394053
-0.390577
-0.386647
-0.379594
-0.368657
-0.354546
-0.338443
-0.321538
-0.304733
-0.28855
-0.273224
-0.258819
-0.245331
-0.232733
-0.220991
-0.210066
-0.199913
-0.190484
-0.181731
-0.173608
-0.166076
-0.159093
-0.152622
-0.146633
-0.141113
-0.136011
-0.131206
-0.0168041
-0.0217113
-0.0274354
-0.0341307
-0.0419793
-0.0512288
-0.0623111
-0.0758704
-0.0930698
-0.111246
-0.122246
-0.125481
-0.114107
-0.123694
-0.129301
-0.137364
-0.164414
-0.216749
-0.286085
-0.352179
-0.390854
-0.404271
-0.403226
-0.397322
-0.390622
-0.381781
-0.369314
-0.353635
-0.336183
-0.318348
-0.301083
-0.284872
-0.269862
-0.256021
-0.243257
-0.231476
-0.220594
-0.210544
-0.201259
-0.192678
-0.184747
-0.177413
-0.170633
-0.16437
-0.158586
-0.153243
-0.148321
-0.143823
-0.139682
-0.135669
-0.0146386
-0.0192424
-0.0246446
-0.0310135
-0.0385398
-0.0474905
-0.0583018
-0.071623
-0.0885072
-0.107415
-0.120542
-0.125186
-0.122267
-0.131611
-0.135078
-0.142206
-0.16887
-0.221269
-0.289055
-0.352083
-0.388898
-0.401774
-0.400636
-0.393297
-0.382809
-0.368867
-0.3517
-0.332767
-0.313714
-0.295658
-0.279113
-0.264168
-0.250699
-0.238521
-0.227461
-0.21738
-0.208165
-0.199726
-0.191985
-0.184874
-0.178335
-0.17232
-0.166788
-0.161704
-0.157033
-0.152739
-0.148809
-0.145265
-0.142023
-0.138734
-0.0122928
-0.0165641
-0.0216016
-0.027584
-0.0347112
-0.0432659
-0.0537139
-0.0667542
-0.0835108
-0.103281
-0.120303
-0.127183
-0.127494
-0.137103
-0.136816
-0.140596
-0.164234
-0.213813
-0.278215
-0.338171
-0.373762
-0.386656
-0.385613
-0.376805
-0.363019
-0.345457
-0.325787
-0.305921
-0.287249
-0.270423
-0.255546
-0.242438
-0.230837
-0.220497
-0.21122
-0.202853
-0.195276
-0.188391
-0.18212
-0.176397
-0.171167
-0.166387
-0.162021
-0.158039
-0.154406
-0.151089
-0.148085
-0.145433
-0.143029
-0.140406
-0.00977636
-0.0136868
-0.0183206
-0.0238569
-0.0305052
-0.0385602
-0.0485276
-0.0611478
-0.0776665
-0.0979664
-0.117182
-0.129999
-0.131908
-0.137468
-0.13343
-0.131856
-0.149863
-0.193676
-0.252498
-0.308456
-0.342648
-0.355698
-0.354964
-0.345391
-0.330158
-0.311718
-0.292413
-0.274031
-0.257506
-0.243077
-0.23059
-0.219751
-0.21027
-0.201906
-0.194475
-0.187832
-0.181865
-0.176485
-0.17162
-0.167213
-0.163219
-0.159601
-0.156329
-0.153378
-0.150717
-0.148312
-0.146172
-0.144353
-0.142733
-0.140725
-0.0071015
-0.0106196
-0.0148117
-0.0198431
-0.0259309
-0.0333713
-0.0426905
-0.0546384
-0.0705546
-0.0908079
-0.111681
-0.127324
-0.132173
-0.133398
-0.124246
-0.116002
-0.12624
-0.161761
-0.212819
-0.263249
-0.29534
-0.308563
-0.308796
-0.300191
-0.286269
-0.269998
-0.253683
-0.238702
-0.225581
-0.214316
-0.204671
-0.196367
-0.189159
-0.18285
-0.177288
-0.172356
-0.167962
-0.164032
-0.160511
-0.157355
-0.154529
-0.152005
-0.14976
-0.147775
-0.14602
-0.144468
-0.143132
-0.142088
-0.141196
-0.139757
-0.00428584
-0.00737731
-0.0110866
-0.0155541
-0.0209987
-0.0277024
-0.036177
-0.0471478
-0.0619386
-0.0813738
-0.102529
-0.11995
-0.124425
-0.122201
-0.10877
-0.093384
-0.0947716
-0.120409
-0.162179
-0.205736
-0.235099
-0.248722
-0.251048
-0.245531
-0.235528
-0.223804
-0.212234
-0.201773
-0.192704
-0.18496
-0.178352
-0.172683
-0.167789
-0.163534
-0.159815
-0.156546
-0.153665
-0.151121
-0.148878
-0.146905
-0.14518
-0.143684
-0.142401
-0.141317
-0.140407
-0.139646
-0.139057
-0.138728
-0.138509
-0.13759
-0.00135311
-0.0039867
-0.0071701
-0.0110169
-0.015738
-0.0215836
-0.0290189
-0.0387131
-0.0518436
-0.069593
-0.0901455
-0.107135
-0.111319
-0.105093
-0.0869655
-0.0651084
-0.0576971
-0.073069
-0.105059
-0.141269
-0.167835
-0.182364
-0.187924
-0.18712
-0.182653
-0.176682
-0.170566
-0.164953
-0.160045
-0.15583
-0.152225
-0.149141
-0.146495
-0.144221
-0.142263
-0.140576
-0.139127
-0.13789
-0.136848
-0.135986
-0.135291
-0.134753
-0.134365
-0.134118
-0.13399
-0.133959
-0.134055
-0.134384
-0.134779
-0.134334
0.00166923
-0.000484221
-0.00310411
-0.00628219
-0.0102076
-0.0150857
-0.0213119
-0.0294705
-0.0405096
-0.0557496
-0.0741735
-0.0886729
-0.0922806
-0.0825049
-0.0603204
-0.0330085
-0.0177011
-0.0236183
-0.0464096
-0.0758398
-0.100124
-0.116096
-0.125542
-0.1301
-0.13158
-0.131451
-0.130633
-0.129607
-0.128587
-0.127658
-0.126851
-0.126174
-0.125623
-0.12519
-0.124868
-0.124649
-0.124529
-0.124507
-0.124579
-0.124746
-0.125005
-0.125353
-0.125789
-0.12631
-0.126899
-0.127534
-0.128255
-0.129178
-0.130129
-0.130114
0.00475308
0.00309209
0.00106078
-0.00141572
-0.00449031
-0.00831571
-0.0132062
-0.0196305
-0.0282852
-0.0403159
-0.0545832
-0.0672619
-0.066702
-0.0563532
-0.0309938
0.000930997
0.0225421
0.024436
0.00932324
-0.0145909
-0.0373541
-0.0550506
-0.0683662
-0.077995
-0.0848919
-0.0899319
-0.0937302
-0.0966857
-0.0990572
-0.101019
-0.102692
-0.104162
-0.105488
-0.106712
-0.107867
-0.10898
-0.11007
-0.111153
-0.112243
-0.113349
-0.114477
-0.115631
-0.116817
-0.118035
-0.119272
-0.120509
-0.121791
-0.123247
-0.124696
-0.125067
0.00787048
0.00670717
0.00527418
0.0035151
0.0013231
-0.00139963
-0.00488319
-0.00945748
-0.0155859
-0.0240557
-0.0339643
-0.0415594
-0.0399719
-0.0269746
0.00054206
0.034824
0.0607477
0.0683724
0.0589534
0.0390505
0.0171398
-0.00219854
-0.0188095
-0.0326111
-0.0438792
-0.0530601
-0.0605691
-0.0667631
-0.0719352
-0.0763194
-0.0800976
-0.0834085
-0.0863581
-0.0890286
-0.0914842
-0.0937757
-0.0959423
-0.098014
-0.100014
-0.101961
-0.103867
-0.105743
-0.107598
-0.109438
-0.111252
-0.113024
-0.114804
-0.116732
-0.118622
-0.119339
0.0109922
0.0103265
0.00948853
0.00844714
0.00714466
0.00553468
0.00346963
0.000764007
-0.00284398
-0.00776426
-0.0133957
-0.0158779
-0.0124002
0.00311049
0.0316025
0.0673272
0.0950627
0.106309
0.100704
0.0834644
0.0620081
0.0414134
0.0223831
0.00554904
-0.00890158
-0.0211334
-0.0314301
-0.0401128
-0.0474849
-0.0538091
-0.0593012
-0.0641341
-0.068445
-0.0723428
-0.0759138
-0.079225
-0.0823283
-0.085263
-0.0880598
-0.0907431
-0.0933317
-0.0958402
-0.0982818
-0.100666
-0.102985
-0.105225
-0.10744
-0.109779
-0.112053
-0.113077
0.0140869
0.0139117
0.0136561
0.01332
0.0128901
0.0123648
0.0116747
0.0107645
0.00954188
0.00787677
0.00619284
0.00687347
0.0142703
0.0321959
0.0612012
0.0959897
0.124177
0.137306
0.134002
0.118449
0.0973343
0.0760298
0.0555207
0.0367699
0.0202417
0.00594734
-0.00630262
-0.0167878
-0.0257999
-0.0336067
-0.0404382
-0.0464847
-0.0519013
-0.0568118
-0.0613145
-0.0654857
-0.0693838
-0.073054
-0.0765316
-0.0798454
-0.0830182
-0.0860683
-0.0890122
-0.0918621
-0.0946141
-0.0972561
-0.0998449
-0.102534
-0.105137
-0.106428
0.0171227
0.0174214
0.0177279
0.0180732
0.0184774
0.0189767
0.0195736
0.0203183
0.0212589
0.0224653
0.0244064
0.0288619
0.0394471
0.05876
0.0877226
0.120688
0.147615
0.16125
0.159155
0.144695
0.124015
0.102575
0.0814356
0.0617202
0.0440363
0.0285031
0.0150052
0.00330971
-0.00684928
-0.0157296
-0.0235612
-0.0305392
-0.0368242
-0.0425451
-0.047804
-0.05268
-0.0572342
-0.0615142
-0.0655579
-0.0693969
-0.0730572
-0.0765596
-0.0799232
-0.0831628
-0.086277
-0.0892556
-0.0921563
-0.0951356
-0.0980116
-0.0995323
0.0200696
0.0208165
0.0216575
0.0226476
0.0238284
0.0252683
0.0270322
0.0292488
0.0320765
0.0357307
0.0407521
0.0485302
0.0613728
0.0821474
0.110028
0.140344
0.165373
0.178566
0.176993
0.163331
0.143287
0.12222
0.101138
0.0812035
0.0630834
0.0469631
0.0327876
0.0203717
0.00948141
-0.000122286
-0.00865934
-0.0163195
-0.0232596
-0.0296056
-0.035457
-0.0408917
-0.0459701
-0.0507398
-0.0552399
-0.0595037
-0.0635589
-0.0674283
-0.0711327
-0.0746887
-0.0780971
-0.081349
-0.084502
-0.0877137
-0.0908081
-0.0925196
0.0229014
0.024065
0.0254054
0.0269905
0.0288746
0.0311544
0.0339435
0.0374219
0.0418198
0.0474408
0.0548522
0.0651459
0.0798684
0.100935
0.127327
0.155014
0.177866
0.190013
0.188579
0.175622
0.156434
0.136144
0.11563
0.0960265
0.0780062
0.0617953
0.0473877
0.034642
0.0233582
0.0133207
0.00432647
-0.00380132
-0.0112089
-0.0180137
-0.0243088
-0.0301675
-0.0356477
-0.0407957
-0.0456503
-0.0502452
-0.0546091
-0.0587659
-0.0627371
-0.0665404
-0.0701784
-0.0736432
-0.0769913
-0.0803797
-0.08364
-0.0855044
0.025596
0.0271428
0.0289398
0.0310579
0.0335614
0.0365706
0.0402311
0.0447492
0.0503906
0.0574962
0.0666255
0.0785987
0.0945971
0.115329
0.140084
0.165196
0.185543
0.196482
0.195025
0.18279
0.164647
0.145422
0.125831
0.10694
0.0894021
0.0734654
0.0591613
0.0463872
0.0349754
0.0247369
0.01549
0.00707576
-0.000636978
-0.00775399
-0.0143597
-0.0205213
-0.0262927
-0.0317179
-0.0368344
-0.0416751
-0.0462689
-0.0506397
-0.0548093
-0.058796
-0.0626033
-0.0662247
-0.0697149
-0.0732288
-0.0766069
-0.0785911
0.0281344
0.0300299
0.0322337
0.0348154
0.0378502
0.0414745
0.0458497
0.0511884
0.0577643
0.0659191
0.0761717
0.0891418
0.10557
0.125721
0.148673
0.171271
0.189257
0.198899
0.197395
0.18593
0.168968
0.150989
0.132544
0.114616
0.0978195
0.0824131
0.0684556
0.0558768
0.0445399
0.0342832
0.0249491
0.0163993
0.00851959
0.00121724
-0.00558249
-0.0119401
-0.0179048
-0.0235173
-0.0288127
-0.0338227
-0.0385751
-0.0430935
-0.0473993
-0.0515107
-0.0554325
-0.0591587
-0.0627429
-0.0663378
-0.0697921
-0.071857
0.0305007
0.032708
0.0352639
0.0382377
0.041716
0.0458428
0.0507805
0.0567341
0.0639665
0.0727968
0.0836807
0.0970712
0.1134
0.132629
0.153687
0.173894
0.189739
0.198126
0.19662
0.185971
0.170274
0.153635
0.136459
0.11964
0.103748
0.0890406
0.0755968
0.0633732
0.0522614
0.0421272
0.0328375
0.0242757
0.0163445
0.00896446
0.00207044
-0.00439102
-0.0104639
-0.0161851
-0.0215867
-0.0266983
-0.0315461
-0.0361524
-0.040538
-0.0447209
-0.0487064
-0.0524891
-0.05612
-0.0597507
-0.0632388
-0.0653421
0.0326826
0.0351605
0.0380116
0.0413083
0.0451468
0.0496681
0.0550257
0.0614078
0.069055
0.0782492
0.089366
0.102732
0.118559
0.136616
0.155793
0.173791
0.187672
0.194939
0.193492
0.183684
0.169286
0.154013
0.138155
0.122514
0.107614
0.0937077
0.0808848
0.0691251
0.0583463
0.0484401
0.0392977
0.0308229
0.0229346
0.015566
0.0086613
0.00217396
-0.00393462
-0.009697
-0.0151421
-0.0202965
-0.0251845
-0.029827
-0.0342431
-0.0384504
-0.0424553
-0.0462526
-0.0498885
-0.0535086
-0.0569866
-0.059119
0.0346721
0.0373755
0.0404662
0.044022
0.0481423
0.0529572
0.0586047
0.0652524
0.0731113
0.0824171
0.0934658
0.106481
0.121523
0.138215
0.155579
0.171541
0.183708
0.190001
0.188648
0.179697
0.166587
0.152657
0.138111
0.123662
0.109789
0.0967322
0.0845917
0.0733651
0.0629933
0.0533921
0.044475
0.0361643
0.0283943
0.0211094
0.0142626
0.00781418
0.00173078
-0.00401593
-0.00945134
-0.0145994
-0.0194822
-0.0241188
-0.0285269
-0.0327229
-0.0367144
-0.040498
-0.0441139
-0.0476947
-0.0511335
-0.0533139
0.0364653
0.0393485
0.0426277
0.0463841
0.0507132
0.0557288
0.0615512
0.0683264
0.0762312
0.0854541
0.0962163
0.108656
0.122735
0.138034
0.153615
0.167718
0.178376
0.183873
0.182585
0.174507
0.162636
0.149996
0.136719
0.123437
0.110585
0.0983924
0.086962
0.0763077
0.0663905
0.0571478
0.0485127
0.0404247
0.0328311
0.0256871
0.0189536
0.0125971
0.0065893
0.000905773
-0.00447564
-0.00957625
-0.0144161
-0.0190128
-0.0233824
-0.0275407
-0.0314961
-0.035248
-0.0388327
-0.0423687
-0.0457639
-0.0479997
0.0380612
0.0410824
0.0445047
0.0484083
0.0528784
0.0580109
0.0639093
0.0706974
0.078518
0.0875134
0.0978371
0.109559
0.122581
0.136476
0.150377
0.162834
0.172165
0.176921
0.175724
0.168491
0.157797
0.146371
0.134297
0.122133
0.110272
0.09893
0.0882134
0.078148
0.0687124
0.0598624
0.0515489
0.0437258
0.0363526
0.0293936
0.022817
0.016595
0.0107037
0.00512216
-0.000168885
-0.0051885
-0.00995495
-0.0144845
-0.0187924
-0.0228932
-0.026796
-0.0305018
-0.0340447
-0.0375331
-0.0408845
-0.0431542
0.0394612
0.0425849
0.0461103
0.0501117
0.0546606
0.0598369
0.0657283
0.0724374
0.080074
0.0887377
0.0985241
0.10945
0.121384
0.133902
0.146244
0.157205
0.165366
0.169517
0.168392
0.161953
0.152351
0.142051
0.131101
0.11999
0.109073
0.098553
0.088537
0.0790608
0.0701179
0.0616802
0.0537136
0.0461849
0.0390639
0.032323
0.0259369
0.0198828
0.0141407
0.00869287
0.00352265
-0.00138691
-0.00605238
-0.0104888
-0.0147101
-0.0187307
-0.0225597
-0.0261992
-0.0296841
-0.0331207
-0.0364319
-0.038702
0.0406681
0.0438646
0.0474575
0.0515113
0.0560834
0.0612412
0.0670585
0.0736165
0.0809948
0.0892556
0.0984469
0.108547
0.119404
0.130639
0.141555
0.151143
0.158273
0.16189
0.160831
0.155105
0.146511
0.137248
0.127336
0.117206
0.107177
0.0974389
0.0880988
0.0792006
0.0707499
0.0627328
0.0551276
0.0479123
0.0410654
0.0345664
0.0283954
0.0225337
0.016965
0.011674
0.00664626
0.00186673
-0.00267962
-0.00700648
-0.0111264
-0.0150522
-0.0187916
-0.0223441
-0.0257415
-0.0290939
-0.0323271
-0.0344721
0.0416864
0.0449298
0.0485573
0.0526213
0.0571696
0.0622582
0.0679481
0.0743006
0.0813679
0.0891809
0.0977504
0.107027
0.11685
0.126876
0.136497
0.144876
0.151088
0.154217
0.153236
0.148112
0.140436
0.132125
0.123165
0.113941
0.104739
0.0957374
0.0870415
0.0787022
0.0707356
0.0631389
0.0559017
0.0490108
0.0424521
0.0362109
0.0302717
0.0246195
0.0192407
0.0141224
0.00925214
0.00461698
0.000203854
-0.00399874
-0.00800057
-0.0118109
-0.0154356
-0.018872
-0.0221396
-0.0253328
-0.0284137
-0.0305464
0.0425225
0.0457883
0.0494194
0.0534574
0.057942
0.0629213
0.0684434
0.0745506
0.0812718
0.088613
0.0965569
0.105035
0.113887
0.122802
0.131258
0.138561
0.143947
0.146627
0.145701
0.141118
0.134278
0.126814
0.11872
0.110325
0.101888
0.0935738
0.0854866
0.0776826
0.0701866
0.0630052
0.0561366
0.0495751
0.0433127
0.0373391
0.0316428
0.0262117
0.0210348
0.0161014
0.0114011
0.00692274
0.00265514
-0.00141168
-0.005286
-0.00897529
-0.0124851
-0.0158169
-0.018985
-0.0220525
-0.025003
-0.027246
0.0431851
0.0464489
0.0500546
0.0540352
0.0584251
0.0632646
0.0685889
0.0744235
0.0807781
0.0876393
0.09497
0.102689
0.110642
0.118549
0.125964
0.132308
0.13695
0.139212
0.138315
0.13422
0.128113
0.121419
0.114105
0.106465
0.0987295
0.0910528
0.0835373
0.0762428
0.0692008
0.0624256
0.0559222
0.0496906
0.0437275
0.0380265
0.0325789
0.0273754
0.0224069
0.0176644
0.0131389
0.00882043
0.00469857
0.000763736
-0.00299239
-0.00657713
-0.00999545
-0.0132498
-0.0163574
-0.0193708
-0.0222605
-0.0245175
0.0436844
0.0469224
0.0504767
0.0543746
0.0586463
0.0633234
0.0684287
0.0739733
0.0799518
0.0863367
0.0930776
0.100087
0.107215
0.114214
0.120703
0.126193
0.130164
0.13204
0.131168
0.127486
0.122029
0.116014
0.109402
0.102444
0.0953497
0.0882622
0.0812814
0.0744697
0.0678636
0.061483
0.0553379
0.049433
0.0437682
0.0383401
0.0331428
0.028169
0.0234112
0.0188622
0.0145143
0.0103587
0.00638626
0.00258834
-0.0010428
-0.00451435
-0.0078306
-0.0109925
-0.0140205
-0.0169794
-0.0198292
-0.021968
0.0440313
0.0472219
0.0507034
0.0544995
0.0586354
0.0631336
0.0680057
0.0732509
0.0788525
0.0847734
0.0909547
0.0973057
0.103685
0.10987
0.115534
0.120266
0.123634
0.125152
0.124285
0.120969
0.116075
0.110659
0.104674
0.0983311
0.0918206
0.085276
0.078794
0.0724384
0.0662488
0.0602491
0.0544531
0.0488684
0.0434978
0.0383404
0.0333923
0.0286485
0.0241035
0.019752
0.0155879
0.0116042
0.00779332
0.00414794
0.000661191
-0.00267406
-0.00586238
-0.00890313
-0.0118153
-0.0146729
-0.0174389
-0.0194091
0.0442364
0.047362
0.0507546
0.054435
0.0584225
0.0627304
0.0673605
0.0723032
0.0775335
0.0830082
0.0886638
0.0944089
0.10011
0.105568
0.110499
0.114557
0.117383
0.118579
0.11771
0.114698
0.11029
0.105402
0.0999724
0.0941825
0.0882021
0.0821567
0.0761391
0.0702131
0.06442
0.0587861
0.0533275
0.0480543
0.0429714
0.03808
0.0333784
0.0288636
0.0245322
0.0203807
0.0164046
0.0125988
0.00895681
0.00547262
0.00214038
-0.00104613
-0.00409102
-0.00699247
-0.00976443
-0.0124776
-0.015105
-0.0169297
0.0443098
0.0473577
0.0506504
0.0542056
0.0580356
0.0621454
0.0665294
0.0711711
0.0760405
0.0810907
0.0862558
0.0914454
0.0965339
0.101342
0.105622
0.109083
0.111424
0.11233
0.111445
0.10869
0.104706
0.10028
0.0953388
0.090044
0.0845445
0.0789574
0.0733714
0.0678487
0.0624312
0.0571463
0.0520119
0.0470395
0.0422358
0.0376039
0.0331439
0.0288548
0.024735
0.0207823
0.0169942
0.0133665
0.00989437
0.00657289
0.00339743
0.000363184
-0.00253305
-0.00528925
-0.00791573
-0.010474
-0.012946
-0.0146706
0.0442608
0.0472229
0.0504089
0.0538322
0.0574984
0.0614058
0.065543
0.0698893
0.0744115
0.0790608
0.0837705
0.0884523
0.0929879
0.0972153
0.100919
0.103851
0.105765
0.106409
0.105501
0.102962
0.0993417
0.0953177
0.0908072
0.0859535
0.0808897
0.0757229
0.0705367
0.0653912
0.0603278
0.0553742
0.0505491
0.0458654
0.041331
0.0369505
0.032726
0.0286578
0.0247458
0.0209895
0.0173872
0.0139362
0.0106328
0.00747291
0.00445299
0.0015691
-0.00118148
-0.00379731
-0.00628694
-0.00870295
-0.0110335
-0.01269
0.0440984
0.0469701
0.0500448
0.0533316
0.0568299
0.0605331
0.0644262
0.0684858
0.0726768
0.0769496
0.0812379
0.0854561
0.0894933
0.0932027
0.0963954
0.0988613
0.1004
0.100813
0.0998771
0.0975187
0.0942097
0.0905348
0.0864033
0.0819431
0.0772727
0.0724901
0.0676733
0.0628792
0.0581478
0.0535069
0.0489757
0.0445676
0.0402919
0.0361545
0.0321586
0.028306
0.0245978
0.0210344
0.0176152
0.0143382
0.0112005
0.00819855
0.00532941
0.00258968
-2.31773e-05
-0.00250838
-0.00487337
-0.00716344
-0.00937123
-0.0109763
0.0438319
0.0466098
0.0495701
0.0527168
0.0560451
0.0595449
0.0631992
0.0669831
0.0708603
0.0747813
0.0786807
0.0824764
0.0860644
0.0893119
0.0920535
0.0941111
0.0953225
0.0955333
0.0945696
0.0923607
0.089317
0.0859448
0.0821468
0.0780373
0.0737218
0.0692895
0.0648124
0.0603442
0.055923
0.0515761
0.0473228
0.0431774
0.0391497
0.0352466
0.0314725
0.0278299
0.0243208
0.0209462
0.0177059
0.0145986
0.0116215
0.00877174
0.00604665
0.00344329
0.000959237
-0.00140526
-0.00365665
-0.00583401
-0.00793365
-0.00949621
0.0434707
0.0461519
0.0489948
0.051999
0.0551568
0.0584564
0.0618795
0.0654002
0.0689819
0.0725751
0.0761164
0.0795273
0.082711
0.0855474
0.0878918
0.0895937
0.0905226
0.0905579
0.0895681
0.0874837
0.0846662
0.0815564
0.0780517
0.0742548
0.0702589
0.0661451
0.0619794
0.0578122
0.0536798
0.0496085
0.0456178
0.0417221
0.0379319
0.0342547
0.0306953
0.0272569
0.0239417
0.020751
0.0176848
0.0147419
0.0119197
0.00921581
0.0066276
0.00415254
0.0017884
-0.000464969
-0.00261301
-0.00468921
-0.00669256
-0.00821832
0.043025
0.0456061
0.0483287
0.0511889
0.0541776
0.0572819
0.060483
0.0637542
0.0670585
0.0703472
0.0735592
0.0766201
0.0794405
0.0819119
0.0839078
0.0853015
0.0859893
0.085876
0.0848602
0.0828801
0.0802559
0.0773738
0.0741271
0.0706084
0.0669001
0.0630754
0.0591946
0.0553047
0.0514403
0.0476271
0.0438841
0.0402258
0.0366629
0.0332032
0.0298516
0.0266114
0.023485
0.0204734
0.0175766
0.0147931
0.0121207
0.0095567
0.00709894
0.00474529
0.00249388
0.00034463
-0.00170695
-0.0036899
-0.00560763
-0.00710433
0.0425045
0.0449822
0.0475822
0.0502983
0.0531209
0.0560366
0.0590258
0.0620612
0.0651058
0.0681122
0.0710217
0.0737649
0.076259
0.0784069
0.0800982
0.0812264
0.0817079
0.0814687
0.0804313
0.0785399
0.0760815
0.0733973
0.0703778
0.0671066
0.0636566
0.0600938
0.0564735
0.0528391
0.0492236
0.0456516
0.0421421
0.0387093
0.0353638
0.0321133
0.0289626
0.025915
0.0229724
0.0201356
0.0174041
0.0147761
0.0122487
0.00981885
0.00748366
0.00524052
0.00308729
0.00102373
-0.000952472
-0.00286119
-0.00469964
-0.00614561
0.0419186
0.0442901
0.0467662
0.0493397
0.0520007
0.0547354
0.0575233
0.0603366
0.0631386
0.0658834
0.0685156
0.0709702
0.0731719
0.0750336
0.0764595
0.0773597
0.0776664
0.0773217
0.0762667
0.0744513
0.0721356
0.0696237
0.0668046
0.0637537
0.0605357
0.0572104
0.0538282
0.0504293
0.047045
0.0436988
0.0404092
0.0371901
0.034052
0.0310022
0.0280455
0.0251847
0.0224216
0.0197566
0.0171891
0.0147168
0.0123366
0.0100451
0.0078387
0.00571438
0.00366936
0.00170236
-0.000189686
-0.00202364
-0.00380074
-0.00529605
0.0412758
0.0435395
0.0458921
0.0483262
0.0508314
0.0533931
0.0559903
0.0585946
0.0611701
0.0636728
0.0660507
0.0682439
0.0701837
0.0717926
0.0729874
0.0736924
0.0738517
0.0734192
0.0723504
0.0706007
0.0684086
0.0660473
0.0634054
0.060551
0.0575418
0.0544321
0.0512678
0.0480863
0.0449168
0.041782
0.0386994
0.0356824
0.0327413
0.0298831
0.0271123
0.0244319
0.0218434
0.0193475
0.0169433
0.0146289
0.012401
0.0102556
0.00818814
0.00619346
0.00426535
0.00239725
0.000579136
-0.0012125
-0.00298879
-0.00456195
0.0405832
0.0427395
0.0449709
0.04727
0.0496259
0.0520231
0.0544397
0.0568476
0.0592118
0.0614906
0.0636357
0.0655919
0.0672972
0.0686829
0.0696768
0.0702145
0.0702497
0.0697448
0.0686658
0.0669737
0.0648895
0.0626606
0.0601761
0.0574976
0.054677
0.0517635
0.0487992
0.0458185
0.0428488
0.0399114
0.0370229
0.0341963
0.0314412
0.0287644
0.0261703
0.023662
0.0212413
0.0189092
0.0166655
0.0145089
0.012437
0.0104462
0.00853222
0.00668919
0.00490889
0.00318038
0.00148611
-0.000207333
-0.00193426
-0.00362218
0.0398471
0.041898
0.0440121
0.0461816
0.0483951
0.0506359
0.0528819
0.0551053
0.0572725
0.0593445
0.0612765
0.0630181
0.0645137
0.0657023
0.0665213
0.0669158
0.0668465
0.0662821
0.0651964
0.0635558
0.0615665
0.0594548
0.057111
0.054591
0.0519417
0.0492075
0.0464271
0.0436322
0.040848
0.0380945
0.0353873
0.0327386
0.0301574
0.0276504
0.0252219
0.0228752
0.0206126
0.0184358
0.0163461
0.0143439
0.0124298
0.0106046
0.00887037
0.00723111
0.00569358
0.0042693
0.00297549
0.00183191
0.00087527
0.00020342
0.0390728
0.0410218
0.0430233
0.0450693
0.0471471
0.0492396
0.0513244
0.0533747
0.0553585
0.0572396
0.0589768
0.0605244
0.0618323
0.0628468
0.0635135
0.0637851
0.0636278
0.0630149
0.061926
0.0603321
0.0584278
0.0564209
0.054204
0.0518278
0.0493347
0.0467653
0.0441544
0.0415312
0.038919
0.0363362
0.0337972
0.0313134
0.0288933
0.0265431
0.0242673
0.0220691
0.0199512
0.0179159
0.0159649
0.0140997
0.0123216
0.0106321
0.00903334
0.0075275
0.00611695
0.00480369
0.00358673
0.00245944
0.0014074
0.000440621
0.0382651
0.0401164
0.0420105
0.0439386
0.0458874
0.0478391
0.0497719
0.0516599
0.0534734
0.0551786