/*--------------------------------*- C++ -*----------------------------------*\
  =========                 |
  \\      /  F ield         | OpenFOAM: The Open Source CFD Toolbox
   \\    /   O peration     | Website:  https://openfoam.org
    \\  /    A nd           | Version:  9
     \\/     M anipulation  |
\*---------------------------------------------------------------------------*/
FoamFile
{
    format      ascii;
    class       surfaceScalarField;
    location    "0.01";
    object      phi;
}
// * * * * * * * * * * * * * * * * * * * * * * * * * * * * * * * * * * * * * //

dimensions      [0 3 -1 0 0 0 0];

internalField   nonuniform List<scalar> 
9850
(
-8.40892e-08
8.28698e-06
-1.19427e-07
8.35825e-06
-1.57431e-07
8.43957e-06
-1.97424e-07
8.53275e-06
-2.37958e-07
8.63913e-06
-2.78032e-07
8.76407e-06
-3.20276e-07
8.93752e-06
-3.61819e-07
9.21741e-06
-3.53194e-07
9.51983e-06
-1.83687e-07
9.27487e-06
1.91994e-07
7.58247e-06
5.00584e-07
4.35518e-06
3.54108e-07
1.99715e-06
2.90166e-07
1.18364e-06
2.85829e-07
9.76424e-07
3.22907e-07
9.40478e-07
3.54006e-07
9.81313e-07
3.68953e-07
1.01075e-06
3.75409e-07
1.01786e-06
3.78804e-07
1.01936e-06
3.80453e-07
8.34801e-07
3.81285e-07
7.98103e-07
3.81199e-07
7.63867e-07
3.8012e-07
7.32425e-07
3.79546e-07
7.00886e-07
3.84638e-07
6.59755e-07
4.01126e-07
6.03283e-07
4.23081e-07
5.51818e-07
4.26275e-07
5.49733e-07
3.874e-07
6.28246e-07
3.4233e-07
8.11099e-07
3.81196e-07
1.24748e-06
4.58406e-07
2.45389e-06
5.27525e-07
3.2225e-06
5.84872e-07
3.62791e-06
6.21366e-07
3.74186e-06
6.37587e-07
3.65694e-06
6.3959e-07
3.46892e-06
6.33942e-07
3.24636e-06
6.25303e-07
3.0253e-06
6.16206e-07
2.81937e-06
6.07734e-07
2.63124e-06
6.00223e-07
2.45964e-06
5.93718e-07
2.30249e-06
5.88171e-07
2.15793e-06
5.83518e-07
2.02452e-06
5.79758e-07
1.90112e-06
5.77174e-07
1.78681e-06
5.76728e-07
1.68075e-06
1.58215e-06
-5.20073e-08
8.31564e-06
-8.27067e-08
8.38895e-06
-1.15066e-07
8.47193e-06
-1.48095e-07
8.56578e-06
-1.79912e-07
8.67095e-06
-2.09211e-07
8.79337e-06
-2.37116e-07
8.96542e-06
-2.54706e-07
9.23499e-06
-2.07358e-07
9.47248e-06
-1.69112e-09
9.0692e-06
3.81833e-07
7.19894e-06
6.41802e-07
4.09521e-06
4.23927e-07
2.21502e-06
2.71746e-07
1.33582e-06
2.60515e-07
9.87655e-07
3.13096e-07
8.87896e-07
3.54368e-07
9.4004e-07
3.71355e-07
9.93765e-07
3.77361e-07
1.01186e-06
3.80368e-07
1.01635e-06
3.82009e-07
8.33161e-07
3.83001e-07
7.97111e-07
3.82938e-07
7.63931e-07
3.81164e-07
7.34198e-07
3.78591e-07
7.03459e-07
3.80439e-07
6.57907e-07
3.92438e-07
5.91284e-07
4.07278e-07
5.36977e-07
4.00702e-07
5.56309e-07
3.37602e-07
6.91347e-07
2.75332e-07
8.73369e-07
1.67961e-07
1.35485e-06
1.78818e-07
2.44303e-06
2.1e-07
3.19131e-06
2.50562e-07
3.58734e-06
2.88396e-07
3.70402e-06
3.169e-07
3.62844e-06
3.3517e-07
3.45065e-06
3.45453e-07
3.23608e-06
3.50652e-07
3.0201e-06
3.52998e-07
2.81702e-06
3.53834e-07
2.6304e-06
3.53874e-07
2.4596e-06
3.53484e-07
2.30288e-06
3.52855e-07
2.15856e-06
3.52119e-07
2.02525e-06
3.51514e-07
1.90173e-06
3.51639e-07
1.78668e-06
3.53431e-07
1.67896e-06
1.57852e-06
-1.90118e-08
8.34056e-06
-4.53326e-08
8.41527e-06
-7.25283e-08
8.49912e-06
-9.9365e-08
8.59261e-06
-1.23933e-07
8.69552e-06
-1.45141e-07
8.81457e-06
-1.63069e-07
8.98335e-06
-1.65062e-07
9.23699e-06
-9.70754e-08
9.4045e-06
1.2111e-07
8.85101e-06
4.59392e-07
6.86066e-06
6.4777e-07
3.90684e-06
5.85967e-07
2.27682e-06
3.0308e-07
1.61871e-06
2.66903e-07
1.02383e-06
3.16956e-07
8.37843e-07
3.59399e-07
8.97597e-07
3.76173e-07
9.76992e-07
3.80762e-07
1.00727e-06
3.82592e-07
1.01452e-06
3.83871e-07
8.31882e-07
3.85363e-07
7.95619e-07
3.86884e-07
7.6241e-07
3.86692e-07
7.34389e-07
3.81579e-07
7.08573e-07
3.7075e-07
6.68737e-07
3.56807e-07
6.05227e-07
3.44169e-07
5.49615e-07
3.25668e-07
5.74809e-07
3.04095e-07
7.1292e-07
2.64462e-07
9.13002e-07
1.78051e-08
1.60151e-06
-4.8736e-08
2.50957e-06
-6.5866e-08
3.20844e-06
-4.9176e-08
3.57065e-06
-1.69996e-08
3.67184e-06
1.70835e-08
3.59436e-06
4.5931e-08
3.4218e-06
6.78489e-08
3.21416e-06
8.38059e-08
3.00414e-06
9.53556e-08
2.80547e-06
1.03778e-07
2.62198e-06
1.09933e-07
2.45344e-06
1.1435e-07
2.29847e-06
1.17352e-07
2.15556e-06
1.19226e-07
2.02338e-06
1.20429e-07
1.90052e-06
1.21739e-07
1.78537e-06
1.24227e-07
1.67647e-06
1.57354e-06
1.45494e-08
8.36187e-06
-7.64386e-09
8.43747e-06
-3.0147e-08
8.52163e-06
-5.17389e-08
8.6142e-06
-7.07652e-08
8.71454e-06
-8.66542e-08
8.83046e-06
-9.92248e-08
8.99592e-06
-9.42466e-08
9.23201e-06
-2.17688e-08
9.33202e-06
1.85065e-07
8.64418e-06
4.64251e-07
6.58147e-06
6.39386e-07
3.7317e-06
8.09819e-07
2.10639e-06
4.72206e-07
1.95632e-06
3.73588e-07
1.12245e-06
3.63922e-07
8.4751e-07
3.75097e-07
8.86422e-07
3.82393e-07
9.69696e-07
3.8443e-07
1.00523e-06
3.85014e-07
1.01394e-06
3.85996e-07
8.309e-07
3.8925e-07
7.92365e-07
3.96473e-07
7.55188e-07
4.05086e-07
7.25776e-07
4.03564e-07
7.10095e-07
3.78774e-07
6.93526e-07
3.35584e-07
6.48417e-07
2.96096e-07
5.89103e-07
3.23478e-07
5.47427e-07
4.13892e-07
6.22506e-07
2.17146e-07
1.10975e-06
-9.1476e-08
1.91013e-06
-2.57559e-07
2.67565e-06
-3.11825e-07
3.26271e-06
-3.16769e-07
3.5756e-06
-2.92477e-07
3.64755e-06
-2.57278e-07
3.55916e-06
-2.22603e-07
3.38713e-06
-1.93129e-07
3.18468e-06
-1.69608e-07
2.98062e-06
-1.51279e-07
2.78714e-06
-1.37113e-07
2.60782e-06
-1.26255e-07
2.44259e-06
-1.18074e-07
2.29028e-06
-1.12051e-07
2.14954e-06
-1.07608e-07
2.01893e-06
-1.03985e-07
1.8969e-06
-1.00353e-07
1.78174e-06
-9.59439e-08
1.67206e-06
1.56697e-06
4.84626e-08
8.37969e-06
3.01122e-08
8.45582e-06
1.1798e-08
8.53994e-06
-5.44415e-09
8.63145e-06
-2.04391e-08
8.72954e-06
-3.33912e-08
8.84341e-06
-4.46457e-08
9.00718e-06
-4.09484e-08
9.22831e-06
1.93699e-08
9.2717e-06
1.76468e-07
8.48708e-06
3.92996e-07
6.36495e-06
5.92285e-07
3.53241e-06
8.70379e-07
1.82829e-06
6.60439e-07
2.16626e-06
5.28715e-07
1.25418e-06
4.51798e-07
9.24426e-07
4.05729e-07
9.3249e-07
3.87774e-07
9.87652e-07
3.86453e-07
1.00655e-06
3.87088e-07
1.0133e-06
3.88229e-07
8.29759e-07
3.9421e-07
7.86384e-07
4.10583e-07
7.38815e-07
4.35235e-07
7.01124e-07
4.47774e-07
6.97556e-07
4.2647e-07
7.14831e-07
3.83722e-07
6.91165e-07
3.70046e-07
6.02779e-07
3.75745e-07
5.41729e-07
3.77418e-07
6.20833e-07
9.06759e-08
1.39649e-06
-2.15157e-07
2.21596e-06
-4.30409e-07
2.8909e-06
-5.32109e-07
3.36441e-06
-5.58307e-07
3.6018e-06
-5.41752e-07
3.631e-06
-5.07122e-07
3.52453e-06
-4.69294e-07
3.3493e-06
-4.35095e-07
3.15048e-06
-4.06534e-07
2.95206e-06
-3.83491e-07
2.7641e-06
-3.65191e-07
2.58952e-06
-3.50798e-07
2.42819e-06
-3.39539e-07
2.27903e-06
-3.30643e-07
2.14064e-06
-3.23301e-07
2.01159e-06
-3.16822e-07
1.89042e-06
-3.10906e-07
1.77582e-06
-3.05879e-07
1.66704e-06
1.56415e-06
8.2561e-08
8.39419e-06
6.78012e-08
8.47058e-06
5.32501e-08
8.55449e-06
3.96488e-08
8.64505e-06
2.75682e-08
8.74162e-06
1.59439e-08
8.85504e-06
3.34183e-09
9.01978e-06
-7.0273e-10
9.23236e-06
3.24739e-08
9.23853e-06
1.15305e-07
8.40425e-06
2.23797e-07
6.25645e-06
2.27893e-07
3.52832e-06
2.82218e-07
1.77397e-06
5.16381e-07
1.9321e-06
5.92205e-07
1.17835e-06
5.05388e-07
1.01124e-06
4.23777e-07
1.0141e-06
3.87432e-07
1.024e-06
3.85797e-07
1.00819e-06
3.88366e-07
1.01073e-06
3.88993e-07
8.29133e-07
3.94339e-07
7.81038e-07
4.13487e-07
7.19667e-07
4.45921e-07
6.68689e-07
4.67161e-07
6.76316e-07
4.46053e-07
7.35939e-07
4.00797e-07
7.36421e-07
3.29588e-07
6.73988e-07
2.25318e-07
6.45999e-07
-4.45654e-09
8.50607e-07
-2.23591e-07
1.61563e-06
-4.69541e-07
2.46191e-06
-6.61166e-07
3.08253e-06
-7.62655e-07
3.4659e-06
-7.90316e-07
3.62946e-06
-7.7349e-07
3.61417e-06
-7.3683e-07
3.48787e-06
-6.95918e-07
3.30839e-06
-6.58188e-07
3.11276e-06
-6.26145e-07
2.92001e-06
-5.99967e-07
2.73792e-06
-5.78993e-07
2.56854e-06
-5.62343e-07
2.41154e-06
-5.49086e-07
2.26577e-06
-5.38308e-07
2.12986e-06
-5.29277e-07
2.00256e-06
-5.21672e-07
1.88281e-06
-5.15644e-07
1.7698e-06
-5.11671e-07
1.66306e-06
1.5627e-06
1.16736e-07
8.4055e-06
1.05371e-07
8.48194e-06
9.42873e-08
8.56558e-06
8.38969e-08
8.65544e-06
7.41771e-08
8.75134e-06
6.33579e-08
8.86586e-06
4.89966e-08
9.03414e-06
3.59726e-08
9.24538e-06
3.80462e-08
9.23645e-06
4.36036e-08
8.39869e-06
-1.99695e-08
6.32003e-06
-3.24463e-07
3.83281e-06
-3.65467e-07
1.81497e-06
5.25574e-08
1.51408e-06
4.4369e-07
7.87218e-07
4.5604e-07
9.98893e-07
4.06676e-07
1.06347e-06
3.80298e-07
1.05037e-06
3.83752e-07
1.00473e-06
3.88386e-07
1.0061e-06
3.86247e-07
8.31271e-07
3.83338e-07
7.83948e-07
3.85996e-07
7.17008e-07
3.93249e-07
6.61437e-07
3.83391e-07
6.86173e-07
3.18867e-07
8.00464e-07
2.7262e-07
7.82668e-07
2.05241e-07
7.41367e-07
1.58533e-07
6.92707e-07
-2.13543e-07
1.22268e-06
-5.22948e-07
1.92503e-06
-7.54285e-07
2.69325e-06
-9.19945e-07
3.24819e-06
-1.00212e-06
3.54807e-06
-1.01629e-06
3.64363e-06
-9.90594e-07
3.58847e-06
-9.48194e-07
3.44547e-06
-9.03228e-07
3.26342e-06
-8.6237e-07
3.0719e-06
-8.27819e-07
2.88546e-06
-7.99627e-07
2.70973e-06
-7.77015e-07
2.54593e-06
-7.58947e-07
2.39348e-06
-7.44369e-07
2.25119e-06
-7.32401e-07
2.1179e-06
-7.22501e-07
1.99266e-06
-7.14481e-07
1.8748e-06
-7.08409e-07
1.76372e-06
-7.04538e-07
1.65919e-06
1.56136e-06
1.50912e-07
8.41372e-06
1.42816e-07
8.49004e-06
1.35046e-07
8.57335e-06
1.27734e-07
8.66275e-06
1.20426e-07
8.75865e-06
1.11059e-07
8.87522e-06
9.70424e-08
9.04816e-06
8.07593e-08
9.26166e-06
6.81049e-08
9.24911e-06
4.7772e-08
8.41903e-06
-6.10868e-08
6.42889e-06
-1.6927e-07
3.94099e-06
2.37137e-07
1.40857e-06
6.12175e-07
1.13904e-06
5.15788e-07
8.83606e-07
3.78842e-07
1.13584e-06
3.80412e-07
1.0619e-06
3.72093e-07
1.05869e-06
3.77126e-07
9.99701e-07
3.8592e-07
9.97305e-07
3.84844e-07
8.32347e-07
3.80406e-07
7.88387e-07
3.67731e-07
7.29683e-07
3.38461e-07
6.90706e-07
2.72478e-07
7.52156e-07
2.61534e-07
8.11408e-07
6.9116e-08
9.75086e-07
1.57619e-07
6.52864e-07
-4.1703e-08
8.92029e-07
-3.84435e-07
1.56541e-06
-7.48423e-07
2.28902e-06
-1.00237e-06
2.9472e-06
-1.15395e-06
3.39976e-06
-1.21807e-06
3.61219e-06
-1.21837e-06
3.64393e-06
-1.18377e-06
3.55388e-06
-1.13615e-06
3.39785e-06
-1.08811e-06
3.21538e-06
-1.04529e-06
3.02908e-06
-1.00932e-06
2.84949e-06
-9.7993e-07
2.68034e-06
-9.56102e-07
2.5221e-06
-9.36666e-07
2.37404e-06
-9.20593e-07
2.23512e-06
-9.07174e-07
2.10448e-06
-8.96027e-07
1.98152e-06
-8.86991e-07
1.86576e-06
-8.80131e-07
1.75686e-06
-8.75802e-07
1.65486e-06
1.55992e-06
1.8503e-07
8.4189e-06
1.80141e-07
8.49493e-06
1.75651e-07
8.57784e-06
1.7152e-07
8.66688e-06
1.6709e-07
8.76308e-06
1.60535e-07
8.88178e-06
1.50137e-07
9.05856e-06
1.38488e-07
9.27331e-06
1.29384e-07
9.25821e-06
1.03383e-07
8.44503e-06
-3.94409e-08
6.57171e-06
-7.17603e-08
3.97331e-06
6.61411e-07
6.75395e-07
8.79062e-07
9.21388e-07
4.30409e-07
1.33226e-06
1.49447e-07
1.4168e-06
3.98861e-07
8.12481e-07
3.69434e-07
1.08812e-06
3.58517e-07
1.01062e-06
3.80238e-07
9.75585e-07
4.03294e-07
8.09291e-07
4.31115e-07
7.60565e-07
4.58894e-07
7.01905e-07
4.42536e-07
7.07063e-07
3.84638e-07
8.10055e-07
-5.39008e-09
1.20144e-06
1.83595e-07
7.86101e-07
7.99044e-08
7.56555e-07
-2.27547e-07
1.19948e-06
-6.15116e-07
1.95298e-06
-9.70803e-07
2.6447e-06
-1.21838e-06
3.19478e-06
-1.35149e-06
3.53287e-06
-1.39775e-06
3.65846e-06
-1.38651e-06
3.63268e-06
-1.34607e-06
3.51345e-06
-1.29615e-06
3.34793e-06
-1.24751e-06
3.16674e-06
-1.20465e-06
2.98622e-06
-1.16858e-06
2.81342e-06
-1.13871e-06
2.65046e-06
-1.1139e-06
2.4973e-06
-1.09305e-06
2.35319e-06
-1.07535e-06
2.21741e-06
-1.06034e-06
2.08948e-06
-1.04785e-06
1.96902e-06
-1.03785e-06
1.85576e-06
-1.03058e-06
1.7496e-06
-1.02635e-06
1.65063e-06
1.55866e-06
2.19025e-07
8.42109e-06
2.17326e-07
8.49663e-06
2.16161e-07
8.579e-06
2.15417e-07
8.66763e-06
2.14432e-07
8.76406e-06
2.11957e-07
8.88425e-06
2.07598e-07
9.06292e-06
2.04394e-07
9.27652e-06
2.04569e-07
9.25803e-06
1.90355e-07
8.45924e-06
1.48436e-07
6.61363e-06
3.38699e-07
3.78305e-06
-2.07598e-07
1.22169e-06
1.02747e-09
7.12763e-07
1.60704e-07
1.17258e-06
3.88812e-07
1.18869e-06
4.22323e-07
7.7897e-07
3.82566e-07
1.12788e-06
3.45305e-07
1.04788e-06
3.87404e-07
9.33486e-07
4.83294e-07
7.13401e-07
5.96616e-07
6.47243e-07
6.46426e-07
6.52094e-07
5.99116e-07
7.54373e-07
5.57479e-07
8.51692e-07
6.31456e-07
1.12746e-06
4.0861e-07
1.00895e-06
4.5803e-08
1.11936e-06
-4.1902e-07
1.6643e-06
-8.46367e-07
2.38033e-06
-1.19066e-06
2.98899e-06
-1.41122e-06
3.41535e-06
-1.51793e-06
3.63957e-06
-1.54469e-06
3.68523e-06
-1.52313e-06
3.61111e-06
-1.47913e-06
3.46945e-06
-1.42929e-06
3.29809e-06
-1.38208e-06
3.11953e-06
-1.34067e-06
2.94481e-06
-1.30544e-06
2.77819e-06
-1.2756e-06
2.62062e-06
-1.25012e-06
2.47181e-06
-1.2282e-06
2.33126e-06
-1.20938e-06
2.1986e-06
-1.1935e-06
2.0736e-06
-1.18055e-06
1.95606e-06
-1.17063e-06
1.84584e-06
-1.16391e-06
1.74288e-06
-1.16031e-06
1.64704e-06
1.55765e-06
2.5282e-07
8.42031e-06
2.5431e-07
8.49514e-06
2.56539e-07
8.57677e-06
2.59377e-07
8.66479e-06
2.62273e-07
8.76117e-06
2.64634e-07
8.88189e-06
2.67371e-07
9.06018e-06
2.7361e-07
9.27028e-06
2.81704e-07
9.24994e-06
2.73955e-07
8.46699e-06
2.81151e-07
6.60643e-06
4.09764e-07
3.65444e-06
5.37643e-07
1.09381e-06
1.08332e-07
1.14207e-06
-2.72653e-08
1.30818e-06
2.37361e-07
9.24067e-07
3.81725e-07
6.34606e-07
5.01794e-07
1.00781e-06
4.85322e-07
1.06435e-06
5.07173e-07
9.11635e-07
5.69496e-07
6.51078e-07
5.82317e-07
6.34422e-07
5.83231e-07
6.51181e-07
5.91526e-07
7.46078e-07
5.51289e-07
8.9193e-07
5.44656e-07
1.13409e-06
2.98219e-07
1.25538e-06
-1.53685e-07
1.57127e-06
-6.57649e-07
2.16827e-06
-1.08303e-06
2.80571e-06
-1.39242e-06
3.29839e-06
-1.57635e-06
3.59927e-06
-1.65455e-06
3.71777e-06
-1.66315e-06
3.69383e-06
-1.63336e-06
3.58133e-06
-1.58775e-06
3.42383e-06
-1.53949e-06
3.24983e-06
-1.49471e-06
3.07475e-06
-1.45531e-06
2.90542e-06
-1.42119e-06
2.74407e-06
-1.39159e-06
2.59102e-06
-1.36583e-06
2.44605e-06
-1.34352e-06
2.30895e-06
-1.32454e-06
2.17962e-06
-1.3089e-06
2.05795e-06
-1.29661e-06
1.94378e-06
-1.28768e-06
1.83691e-06
-1.28195e-06
1.73715e-06
-1.27898e-06
1.64406e-06
1.5568e-06
2.86314e-07
8.41659e-06
2.90997e-07
8.49046e-06
2.96675e-07
8.5711e-06
3.03231e-07
8.65823e-06
3.1026e-07
8.75414e-06
3.17743e-07
8.87441e-06
3.27523e-07
9.0504e-06
3.41878e-07
9.25592e-06
3.54845e-07
9.23697e-06
3.34828e-07
8.48701e-06
3.11684e-07
6.62958e-06
2.48696e-07
3.71743e-06
-2.44041e-07
1.58655e-06
-3.42705e-07
1.24074e-06
-2.0384e-07
1.16931e-06
1.06529e-07
6.13699e-07
4.4704e-07
2.94095e-07
9.04222e-07
5.50628e-07
1.19128e-06
7.77293e-07
1.22212e-06
8.8079e-07
1.1136e-06
7.59607e-07
9.65085e-07
7.82932e-07
7.97113e-07
8.19152e-07
6.54704e-07
8.88488e-07
5.11977e-07
1.03466e-06
3.69058e-07
1.27701e-06
4.0323e-08
1.58412e-06
-4.47336e-07
2.05892e-06
-9.35093e-07
2.65602e-06
-1.32015e-06
3.19077e-06
-1.57784e-06
3.55607e-06
-1.71702e-06
3.73845e-06
-1.76547e-06
3.76623e-06
-1.7579e-06
3.68626e-06
-1.72216e-06
3.54558e-06
-1.67646e-06
3.37813e-06
-1.63052e-06
3.20389e-06
-1.58831e-06
3.03254e-06
-1.55078e-06
2.86789e-06
-1.51765e-06
2.71094e-06
-1.48844e-06
2.56181e-06
-1.4629e-06
2.42051e-06
-1.44101e-06
2.28706e-06
-1.4228e-06
2.16141e-06
-1.40825e-06
2.0434e-06
-1.39724e-06
1.93277e-06
-1.38953e-06
1.8292e-06
-1.3847e-06
1.73231e-06
-1.38215e-06
1.64152e-06
1.55604e-06
3.19397e-07
8.40995e-06
3.27267e-07
8.48259e-06
3.36424e-07
8.56194e-06
3.46768e-07
8.64789e-06
3.58041e-07
8.74287e-06
3.70613e-07
8.86184e-06
3.8682e-07
9.03419e-06
4.07777e-07
9.23497e-06
4.20679e-07
9.22407e-06
3.90937e-07
8.51675e-06
3.22503e-07
6.69801e-06
1.67654e-07
3.87228e-06
-3.41988e-07
2.09619e-06
-5.1343e-07
1.41218e-06
-3.17654e-07
9.73539e-07
2.16352e-08
2.7441e-07
4.31667e-07
-1.15937e-07
9.46773e-07
3.55209e-08
1.34349e-06
3.80574e-07
1.47479e-06
7.49495e-07
1.37835e-06
8.56042e-07
1.16797e-06
9.9332e-07
9.12179e-07
1.07494e-06
6.62179e-07
1.13849e-06
4.19431e-07
1.2774e-06
1.29694e-07
1.56675e-06
-2.89141e-07
2.00295e-06
-7.81133e-07
2.55092e-06
-1.222e-06
3.09689e-06
-1.54488e-06
3.51365e-06
-1.74262e-06
3.75381e-06
-1.83556e-06
3.83138e-06
-1.8556e-06
3.78628e-06
-1.83422e-06
3.66488e-06
-1.79425e-06
3.50561e-06
-1.74919e-06
3.33307e-06
-1.70546e-06
3.16016e-06
-1.66536e-06
2.99243e-06
-1.62924e-06
2.83177e-06
-1.59695e-06
2.67865e-06
-1.56843e-06
2.53329e-06
-1.54374e-06
2.39583e-06
-1.523e-06
2.26632e-06
-1.50619e-06
2.1446e-06
-1.49314e-06
2.03035e-06
-1.48353e-06
1.92316e-06
-1.47691e-06
1.82258e-06
-1.47274e-06
1.72814e-06
-1.4705e-06
1.63928e-06
1.55534e-06
3.51945e-07
8.40043e-06
3.62986e-07
8.47155e-06
3.75625e-07
8.5493e-06
3.89786e-07
8.63373e-06
4.05326e-07
8.72733e-06
4.22895e-07
8.84427e-06
4.44968e-07
9.01212e-06
4.71234e-07
9.2087e-06
4.84774e-07
9.21053e-06
4.49218e-07
8.55231e-06
3.50971e-07
6.79626e-06
1.56656e-07
4.06659e-06
-3.36626e-07
2.58947e-06
-4.95361e-07
1.57091e-06
-3.38143e-07
8.1632e-07
-1.96887e-08
-4.40443e-08
3.80505e-07
-5.16131e-07
8.38042e-07
-4.22016e-07
1.20252e-06
1.60948e-08
1.35804e-06
5.93978e-07
1.29817e-06
9.1591e-07
1.10443e-06
1.18706e-06
8.40155e-07
1.33921e-06
5.46036e-07
1.43261e-06
2.1583e-07
1.60761e-06
-1.84109e-07
1.96669e-06
-6.55543e-07
2.47439e-06
-1.12114e-06
3.01651e-06
-1.49527e-06
3.47103e-06
-1.74589e-06
3.76427e-06
-1.88248e-06
3.8904e-06
-1.93263e-06
3.88153e-06
-1.92829e-06
3.78193e-06
-1.89605e-06
3.63264e-06
-1.85318e-06
3.46274e-06
-1.80876e-06
3.28865e-06
-1.76661e-06
3.11801e-06
-1.72787e-06
2.9537e-06
-1.69277e-06
2.79667e-06
-1.66143e-06
2.64731e-06
-1.63405e-06
2.50591e-06
-1.61081e-06
2.37259e-06
-1.59174e-06
2.24724e-06
-1.57662e-06
2.12949e-06
-1.56511e-06
2.01884e-06
-1.55671e-06
1.91477e-06
-1.55092e-06
1.81679e-06
-1.54722e-06
1.72444e-06
-1.54519e-06
1.63725e-06
1.55471e-06
3.83828e-07
8.38809e-06
3.98004e-07
8.45737e-06
4.14116e-07
8.53319e-06
4.32119e-07
8.61572e-06
4.51981e-07
8.70746e-06
4.74558e-07
8.82169e-06
5.02489e-07
8.98419e-06
5.34861e-07
9.17633e-06
5.53085e-07
9.19231e-06
5.20289e-07
8.58511e-06
4.29203e-07
6.88734e-06
1.22482e-07
4.37331e-06
-2.58729e-07
2.97068e-06
-4.4165e-07
1.75384e-06
-3.29159e-07
7.0383e-07
-5.39191e-08
-3.19284e-07
2.99252e-07
-8.69302e-07
6.70657e-07
-7.93421e-07
9.55544e-07
-2.68792e-07
1.07463e-06
4.74889e-07
1.02252e-06
9.68025e-07
8.55454e-07
1.35413e-06
6.08183e-07
1.58648e-06
2.91902e-07
1.74889e-06
-1.01184e-07
2.0007e-06
-5.61605e-07
2.42711e-06
-1.03473e-06
2.94751e-06
-1.44384e-06
3.42562e-06
-1.7392e-06
3.76639e-06
-1.91592e-06
3.94099e-06
-1.99577e-06
3.97025e-06
-2.00951e-06
3.89527e-06
-1.98593e-06
3.75836e-06
-1.94575e-06
3.59246e-06
-1.90083e-06
3.41782e-06
-1.85669e-06
3.24451e-06
-1.81535e-06
3.07667e-06
-1.77744e-06
2.91579e-06
-1.74328e-06
2.76251e-06
-1.71318e-06
2.61721e-06
-1.68741e-06
2.48013e-06
-1.66601e-06
2.35119e-06
-1.64877e-06
2.23e-06
-1.63528e-06
2.11601e-06
-1.62506e-06
2.00861e-06
-1.61757e-06
1.90728e-06
-1.61233e-06
1.81155e-06
-1.60892e-06
1.72103e-06
-1.60702e-06
1.63535e-06
1.5541e-06
4.14911e-07
8.37298e-06
4.32178e-07
8.4401e-06
4.51737e-07
8.51363e-06
4.73602e-07
8.59386e-06
4.97856e-07
8.68321e-06
5.25554e-07
8.79399e-06
5.59523e-07
8.95022e-06
5.98642e-07
9.13721e-06
6.23362e-07
9.16758e-06
5.93637e-07
8.61483e-06
4.62903e-07
7.01808e-06
1.10166e-07
4.72605e-06
-1.89061e-07
3.26991e-06
-3.76892e-07
1.94167e-06
-3.16194e-07
6.43132e-07
-1.0035e-07
-5.35128e-07
1.81383e-07
-1.15103e-06
4.52674e-07
-1.06471e-06
6.54666e-07
-4.70784e-07
7.21754e-07
4.07801e-07
6.5878e-07
1.031e-06
5.03744e-07
1.50916e-06
2.61075e-07
1.82915e-06
-7.57556e-08
2.08572e-06
-5.05084e-07
2.43003e-06
-9.73522e-07
2.89554e-06
-1.40243e-06
3.37643e-06
-1.7325e-06
3.75569e-06
-1.94432e-06
3.97821e-06
-2.05164e-06
4.04831e-06
-2.08292e-06
4.00153e-06
-2.06794e-06
3.88029e-06
-2.03021e-06
3.72063e-06
-1.98438e-06
3.54663e-06
-1.9378e-06
3.37124e-06
-1.89346e-06
3.20017e-06
-1.85242e-06
3.03564e-06
-1.81519e-06
2.87856e-06
-1.78217e-06
2.72949e-06
-1.75368e-06
2.58872e-06
-1.72979e-06
2.45624e-06
-1.71028e-06
2.33168e-06
-1.69472e-06
2.21444e-06
-1.68256e-06
2.10385e-06
-1.67328e-06
1.99933e-06
-1.66639e-06
1.90039e-06
-1.66149e-06
1.80665e-06
-1.65825e-06
1.7178e-06
-1.65643e-06
1.63353e-06
1.55351e-06
4.45056e-07
8.35517e-06
4.65345e-07
8.41981e-06
4.88309e-07
8.49067e-06
5.14036e-07
8.56813e-06
5.42729e-07
8.65452e-06
5.75611e-07
8.76111e-06
6.15577e-07
8.91025e-06
6.61223e-07
9.09156e-06
6.91021e-07
9.13779e-06
6.58221e-07
8.64763e-06
4.9711e-07
7.17919e-06
1.48856e-07
5.0743e-06
-1.40879e-07
3.55965e-06
-3.19176e-07
2.11996e-06
-3.07536e-07
6.31492e-07
-1.62302e-07
-6.80362e-07
3.34347e-08
-1.34677e-06
2.13238e-07
-1.24452e-06
3.21626e-07
-5.79172e-07
3.32591e-07
3.96835e-07
2.48309e-07
1.11528e-06
8.46889e-08
1.67278e-06
-1.67104e-07
2.08094e-06
-5.23669e-07
2.44228e-06
-9.55449e-07
2.86181e-06
-1.38371e-06
3.32381e-06
-1.73494e-06
3.72765e-06
-1.97451e-06
3.99526e-06
-2.10563e-06
4.10933e-06
-2.15271e-06
4.09539e-06
-2.14545e-06
3.99427e-06
-2.10939e-06
3.84423e-06
-2.06176e-06
3.673e-06
-2.01187e-06
3.49674e-06
-1.96378e-06
3.32315e-06
-1.91901e-06
3.1554e-06
-1.87822e-06
2.99484e-06
-1.84187e-06
2.84222e-06
-1.81032e-06
2.69793e-06
-1.78366e-06
2.56205e-06
-1.76165e-06
2.43424e-06
-1.74384e-06
2.31386e-06
-1.72962e-06
2.20023e-06
-1.71845e-06
2.09267e-06
-1.70981e-06
1.9907e-06
-1.70332e-06
1.8939e-06
-1.69865e-06
1.80198e-06
-1.69553e-06
1.71468e-06
-1.69377e-06
1.63177e-06
1.55295e-06
4.74114e-07
8.33478e-06
4.97334e-07
8.39659e-06
5.23631e-07
8.46437e-06
5.53184e-07
8.53858e-06
5.86309e-07
8.62139e-06
6.24369e-07
8.72305e-06
6.70225e-07
8.8644e-06
7.22312e-07
9.03948e-06
7.57819e-07
9.10228e-06
7.26509e-07
8.67894e-06
5.48787e-07
7.35691e-06
2.125e-07
5.41059e-06
-7.98203e-08
3.85197e-06
-2.66797e-07
2.30694e-06
-3.02466e-07
6.67161e-07
-2.35427e-07
-7.47402e-07
-1.34481e-07
-1.44772e-06
-5.36983e-08
-1.3253e-06
-2.70193e-08
-6.05851e-07
-7.75129e-08
4.47329e-07
-1.91516e-07
1.22928e-06
-3.75738e-07
1.85701e-06
-6.48462e-07
2.35367e-06
-1.0093e-06
2.80312e-06
-1.40478e-06
3.25729e-06
-1.75657e-06
3.6756e-06
-2.01253e-06
3.98362e-06
-2.16177e-06
4.1445e-06
-2.22178e-06
4.16934e-06
-2.2207e-06
4.09431e-06
-2.18518e-06
3.95875e-06
-2.13463e-06
3.79368e-06
-2.08032e-06
3.61869e-06
-2.0275e-06
3.44391e-06
-1.97818e-06
3.27383e-06
-1.93318e-06
3.1104e-06
-1.89298e-06
2.95465e-06
-1.85793e-06
2.80717e-06
-1.82814e-06
2.66814e-06
-1.80336e-06
2.53727e-06
-1.78307e-06
2.41395e-06
-1.76665e-06
2.29744e-06
-1.75347e-06
2.18705e-06
-1.743e-06
2.08221e-06
-1.73485e-06
1.98254e-06
-1.72866e-06
1.88771e-06
-1.72419e-06
1.7975e-06
-1.7212e-06
1.7117e-06
-1.71951e-06
1.63008e-06
1.5524e-06
5.01933e-07
8.31192e-06
5.27963e-07
8.37056e-06
5.57488e-07
8.43484e-06
5.90789e-07
8.50528e-06
6.28299e-07
8.58388e-06
6.71529e-07
8.67982e-06
7.23334e-07
8.81259e-06
7.8236e-07
8.98045e-06
8.25386e-07
9.05925e-06
7.97522e-07
8.70681e-06
6.16202e-07
7.53823e-06
2.9211e-07
5.73468e-06
-9.22631e-10
4.145e-06
-2.06912e-07
2.51293e-06
-2.93713e-07
7.53962e-07
-3.10739e-07
-7.30376e-07
-3.08545e-07
-1.44991e-06
-3.28013e-07
-1.30583e-06
-3.87595e-07
-5.46269e-07
-5.00943e-07
5.60678e-07
-6.50611e-07
1.37895e-06
-8.62121e-07
2.06852e-06
-1.1462e-06
2.63774e-06
-1.4815e-06
3.13842e-06
-1.80743e-06
3.58323e-06
-2.06334e-06
3.9315e-06
-2.22234e-06
4.14262e-06
-2.29132e-06
4.21348e-06
-2.2944e-06
4.17243e-06
-2.25818e-06
4.05808e-06
-2.20359e-06
3.90417e-06
-2.14377e-06
3.73385e-06
-2.0852e-06
3.56012e-06
-2.03049e-06
3.38919e-06
-1.98057e-06
3.22392e-06
-1.93597e-06
3.06579e-06
-1.89698e-06
2.91566e-06
-1.86368e-06
2.77388e-06
-1.83582e-06
2.64028e-06
-1.81285e-06
2.51429e-06
-1.79405e-06
2.39516e-06
-1.77877e-06
2.28215e-06
-1.76641e-06
2.17469e-06
-1.75653e-06
2.07234e-06
-1.74879e-06
1.97479e-06
-1.7429e-06
1.88182e-06
-1.73863e-06
1.79324e-06
-1.73578e-06
1.70885e-06
-1.73417e-06
1.62846e-06
1.55189e-06
5.28357e-07
8.28673e-06
5.57045e-07
8.34188e-06
5.8965e-07
8.40224e-06
6.26571e-07
8.46836e-06
6.68382e-07
8.54207e-06
7.16756e-07
8.63145e-06
7.74678e-07
8.75467e-06
8.41344e-07
8.91379e-06
8.94164e-07
9.00643e-06
8.74783e-07
8.72619e-06
7.03219e-07
7.70979e-06
3.92632e-07
6.04527e-06
9.95132e-08
4.43812e-06
-1.2462e-07
2.73706e-06
-2.73221e-07
9.02563e-07
-3.77709e-07
-6.25889e-07
-4.7382e-07
-1.3538e-06
-5.90972e-07
-1.18868e-06
-7.37035e-07
-4.00206e-07
-9.17474e-07
7.41117e-07
-1.10567e-06
1.56715e-06
-1.337e-06
2.29985e-06
-1.60945e-06
2.91019e-06
-1.89036e-06
3.41933e-06
-2.12827e-06
3.82114e-06
-2.28658e-06
4.08982e-06
-2.35979e-06
4.21582e-06
-2.36508e-06
4.21878e-06
-2.32721e-06
4.13455e-06
-2.2679e-06
3.99877e-06
-2.20181e-06
3.83808e-06
-2.13672e-06
3.66876e-06
-2.07589e-06
3.49929e-06
-2.02049e-06
3.33379e-06
-1.971e-06
3.17442e-06
-1.92768e-06
3.02247e-06
-1.89058e-06
2.87855e-06
-1.8594e-06
2.7427e-06
-1.83354e-06
2.61442e-06
-1.81225e-06
2.493e-06
-1.79477e-06
2.37768e-06
-1.78047e-06
2.26785e-06
-1.76884e-06
2.16306e-06
-1.75951e-06
2.063e-06
-1.75217e-06
1.96746e-06
-1.74659e-06
1.87624e-06
-1.74254e-06
1.78919e-06
-1.73984e-06
1.70615e-06
-1.73832e-06
1.62694e-06
1.5514e-06
5.53231e-07
8.2594e-06
5.8439e-07
8.31072e-06
6.19878e-07
8.36675e-06
6.60228e-07
8.42801e-06
7.06176e-07
8.49612e-06
7.59578e-07
8.57805e-06
8.23712e-07
8.69053e-06
8.98625e-07
8.83887e-06
9.63792e-07
8.94127e-06
9.59909e-07
8.73007e-06
8.11331e-07
7.85837e-06
5.19392e-07
6.33721e-06
2.254e-07
4.73211e-06
-2.25714e-08
2.98503e-06
-2.35746e-07
1.11574e-06
-4.26449e-07
-4.35186e-07
-6.15829e-07
-1.16442e-06
-8.23788e-07
-9.80719e-07
-1.05151e-06
-1.72489e-07
-1.29626e-06
9.85868e-07
-1.51634e-06
1.78723e-06
-1.75085e-06
2.53436e-06
-1.98893e-06
3.14827e-06
-2.19931e-06
3.6297e-06
-2.34827e-06
3.9701e-06
-2.42159e-06
4.16313e-06
-2.42808e-06
4.22231e-06
-2.38872e-06
4.17942e-06
-2.32498e-06
4.07082e-06
-2.25267e-06
3.92646e-06
-2.18086e-06
3.76627e-06
-2.11363e-06
3.60153e-06
-2.05245e-06
3.43811e-06
-1.99782e-06
3.27916e-06
-1.94996e-06
3.12657e-06
-1.90887e-06
2.98138e-06
-1.87422e-06
2.84391e-06
-1.84538e-06
2.71386e-06
-1.82153e-06
2.59057e-06
-1.80183e-06
2.4733e-06
-1.78557e-06
2.36143e-06
-1.7722e-06
2.25448e-06
-1.76128e-06
2.15214e-06
-1.7525e-06
2.05422e-06
-1.74559e-06
1.96055e-06
-1.74033e-06
1.87098e-06
-1.73652e-06
1.78538e-06
-1.73398e-06
1.7036e-06
-1.73254e-06
1.6255e-06
1.55094e-06
5.76407e-07
8.23012e-06
6.0981e-07
8.27731e-06
6.47925e-07
8.32864e-06
6.91427e-07
8.3845e-06
7.41232e-07
8.44632e-06
7.99374e-07
8.51991e-06
8.69534e-07
8.62037e-06
9.52856e-07
8.75555e-06
1.03201e-06
8.86211e-06
1.05036e-06
8.71172e-06
9.33979e-07
7.97476e-06
6.68585e-07
6.6026e-06
3.74521e-07
5.02617e-06
9.74722e-08
3.26208e-06
-1.77445e-07
1.39065e-06
-4.48464e-07
-1.64166e-07
-7.22187e-07
-8.90697e-07
-1.00926e-06
-6.93645e-07
-1.3069e-06
1.25149e-07
-1.60344e-06
1.28241e-06
-1.84156e-06
2.02535e-06
-2.06237e-06
2.75517e-06
-2.25316e-06
3.33905e-06
-2.39249e-06
3.76903e-06
-2.46553e-06
4.04314e-06
-2.47464e-06
4.17224e-06
-2.43604e-06
4.18372e-06
-2.36993e-06
4.11331e-06
-2.29285e-06
3.99374e-06
-2.2152e-06
3.8488e-06
-2.14203e-06
3.69311e-06
-2.07532e-06
3.53482e-06
-2.01569e-06
3.37849e-06
-1.96337e-06
3.22684e-06
-1.91833e-06
3.08152e-06
-1.88023e-06
2.94328e-06
-1.84842e-06
2.8121e-06
-1.82203e-06
2.68747e-06
-1.80015e-06
2.56869e-06
-1.782e-06
2.45515e-06
-1.76693e-06
2.34636e-06
-1.75448e-06
2.24203e-06
-1.7443e-06
2.14196e-06
-1.7361e-06
2.04602e-06
-1.72965e-06
1.95409e-06
-1.72474e-06
1.86607e-06
-1.72118e-06
1.78182e-06
-1.71881e-06
1.70123e-06
-1.71747e-06
1.62416e-06
1.55051e-06
5.97748e-07
8.19913e-06
6.33121e-07
8.24194e-06
6.73549e-07
8.28821e-06
7.19834e-07
8.33822e-06
7.73067e-07
8.39309e-06
8.35435e-07
8.45754e-06
9.1101e-07
8.5448e-06
1.00216e-06
8.6644e-06
1.09527e-06
8.76901e-06
1.1394e-06
8.66759e-06
1.06154e-06
8.05261e-06
8.28618e-07
6.83552e-06
5.40622e-07
5.31417e-06
2.36723e-07
3.56598e-06
-9.40335e-08
1.72141e-06
-4.3873e-07
1.8053e-07
-7.84787e-07
-5.4464e-07
-1.13528e-06
-3.4315e-07
-1.48527e-06
4.75141e-07
-1.81498e-06
1.61212e-06
-2.05606e-06
2.26642e-06
-2.25224e-06
2.95135e-06
-2.39455e-06
3.48136e-06
-2.47418e-06
3.84866e-06
-2.49161e-06
4.06058e-06
-2.45921e-06
4.13983e-06
-2.39533e-06
4.11984e-06
-2.31698e-06
4.03496e-06
-2.23589e-06
3.91264e-06
-2.15838e-06
3.7713e-06
-2.0872e-06
3.62192e-06
-2.0233e-06
3.47092e-06
-1.96702e-06
3.3222e-06
-1.91838e-06
3.1782e-06
-1.87709e-06
3.04023e-06
-1.8425e-06
2.9087e-06
-1.81374e-06
2.78333e-06
-1.78983e-06
2.66356e-06
-1.76991e-06
2.54877e-06
-1.75329e-06
2.43852e-06
-1.73943e-06
2.3325e-06
-1.72794e-06
2.23055e-06
-1.71854e-06
2.13255e-06
-1.71095e-06
2.03844e-06
-1.70499e-06
1.94813e-06
-1.70045e-06
1.86153e-06
-1.69716e-06
1.77854e-06
-1.69497e-06
1.69904e-06
-1.69373e-06
1.62292e-06
1.55011e-06
6.17133e-07
8.1667e-06
6.54164e-07
8.20491e-06
6.96529e-07
8.24584e-06
7.45136e-07
8.28961e-06
8.01219e-07
8.337e-06
8.67069e-07
8.39169e-06
9.47015e-07
8.46485e-06
1.0446e-06
8.56682e-06
1.1499e-06
8.6637e-06
1.21914e-06
8.59835e-06
1.18014e-06
8.09161e-06
9.85142e-07
7.03052e-06
7.09276e-07
5.59004e-06
3.84484e-07
3.89077e-06
9.45748e-09
2.09644e-06
-3.96335e-07
5.86323e-07
-8.01096e-07
-1.39879e-07
-1.19761e-06
5.33614e-08
-1.58017e-06
8.57702e-07
-1.92384e-06
1.95579e-06
-2.15615e-06
2.49874e-06
-2.32421e-06
3.1194e-06
-2.42548e-06
3.58264e-06
-2.46236e-06
3.88553e-06
-2.44544e-06
4.04366e-06
-2.39152e-06
4.08592e-06
-2.31788e-06
4.0462e-06
-2.23769e-06
3.95477e-06
-2.1589e-06
3.83385e-06
-2.08538e-06
3.69778e-06
-2.01872e-06
3.55527e-06
-1.95957e-06
3.41177e-06
-1.90811e-06
3.27075e-06
-1.8642e-06
3.13428e-06
-1.82726e-06
3.0033e-06
-1.79646e-06
2.87789e-06
-1.7708e-06
2.75768e-06
-1.74937e-06
2.64213e-06
-1.73141e-06
2.53081e-06
-1.71633e-06
2.42345e-06
-1.70372e-06
2.31989e-06
-1.69325e-06
2.22008e-06
-1.68467e-06
2.12397e-06
-1.67775e-06
2.03152e-06
-1.6723e-06
1.94268e-06
-1.66816e-06
1.85738e-06
-1.66516e-06
1.77554e-06
-1.66315e-06
1.69703e-06
-1.66202e-06
1.62179e-06
1.54975e-06
6.34462e-07
8.1331e-06
6.72804e-07
8.16657e-06
7.16682e-07
8.20196e-06
7.67073e-07
8.23922e-06
8.25307e-07
8.27877e-06
8.93709e-07
8.32329e-06
9.76669e-07
8.38189e-06
1.07862e-06
8.46487e-06
1.19308e-06
8.54924e-06
1.28313e-06
8.5083e-06
1.27744e-06
8.0973e-06
1.12641e-06
7.18155e-06
8.69765e-07
5.84668e-06
5.35194e-07
4.22535e-06
1.29511e-07
2.50212e-06
-3.24633e-07
1.04047e-06
-7.73656e-07