/*--------------------------------*- C++ -*----------------------------------*\
  =========                 |
  \\      /  F ield         | OpenFOAM: The Open Source CFD Toolbox
   \\    /   O peration     | Website:  https://openfoam.org
    \\  /    A nd           | Version:  9
     \\/     M anipulation  |
\*---------------------------------------------------------------------------*/
FoamFile
{
    format      ascii;
    class       volScalarField;
    location    "0.01";
    object      rAU;
}
// * * * * * * * * * * * * * * * * * * * * * * * * * * * * * * * * * * * * * //

dimensions      [-1 3 1 0 0 0 0];

internalField   nonuniform List<scalar> 
5000
(
3.77047e-05
3.75817e-05
3.74445e-05
3.72916e-05
3.71228e-05
3.69341e-05
3.66925e-05
3.63347e-05
3.59679e-05
3.62233e-05
3.76288e-05
3.99074e-05
8.93885e-07
6.4482e-08
5.09581e-08
5.09472e-08
5.07891e-08
5.06934e-08
5.06643e-08
5.06506e-08
5.04387e-08
5.03701e-08
5.03016e-08
5.02288e-08
5.01558e-08
5.00973e-08
5.00546e-08
4.99763e-08
4.97843e-08
5.54696e-08
2.75951e-07
2.34195e-05
3.08166e-05
3.39093e-05
3.35522e-05
3.2841e-05
3.23759e-05
3.21223e-05
3.19585e-05
3.18021e-05
3.16143e-05
3.13816e-05
3.11017e-05
3.07755e-05
3.04043e-05
2.9989e-05
2.95301e-05
2.90273e-05
2.84788e-05
3.14162e-05
3.77053e-05
3.75846e-05
3.7451e-05
3.73041e-05
3.71449e-05
3.6969e-05
3.67406e-05
3.64093e-05
3.61376e-05
3.65595e-05
3.81924e-05
4.07843e-05
1.74073e-06
6.90464e-08
5.09951e-08
5.10843e-08
5.08766e-08
5.07238e-08
5.06725e-08
5.06535e-08
5.04388e-08
5.03682e-08
5.02967e-08
5.02208e-08
5.01516e-08
5.01191e-08
5.01295e-08
5.0092e-08
4.9865e-08
5.99616e-08
4.39733e-07
2.72426e-05
3.15649e-05
3.4955e-05
3.44233e-05
3.36855e-05
3.31896e-05
3.29e-05
3.27071e-05
3.25313e-05
3.23322e-05
3.20939e-05
3.18121e-05
3.14861e-05
3.11167e-05
3.0704e-05
3.02484e-05
2.97499e-05
2.92083e-05
3.23716e-05
3.76973e-05
3.75937e-05
3.74644e-05
3.73239e-05
3.71745e-05
3.70102e-05
3.67938e-05
3.649e-05
3.63094e-05
3.6755e-05
3.72117e-05
4.08428e-05
1.19821e-05
8.32138e-08
5.0915e-08
5.1182e-08
5.09546e-08
5.0748e-08
5.06745e-08
5.06525e-08
5.04373e-08
5.03659e-08
5.029e-08
5.02037e-08
5.0126e-08
5.01152e-08
5.02051e-08
5.02767e-08
5.00982e-08
7.90019e-08
3.01469e-06
3.37175e-05
3.19613e-05
3.55862e-05
3.48784e-05
3.42654e-05
3.39263e-05
3.3703e-05
3.34914e-05
3.33003e-05
3.30914e-05
3.2848e-05
3.25645e-05
3.22394e-05
3.18727e-05
3.14641e-05
3.10137e-05
3.05222e-05
2.99899e-05
3.33855e-05
3.76474e-05
3.75829e-05
3.74834e-05
3.73496e-05
3.72089e-05
3.70541e-05
3.68465e-05
3.65669e-05
3.64661e-05
3.69364e-05
3.70356e-05
4.04639e-05
3.22777e-05
1.30279e-07
5.08342e-08
5.10505e-08
5.09397e-08
5.07485e-08
5.06705e-08
5.06483e-08
5.04342e-08
5.03644e-08
5.02835e-08
5.01745e-08
5.00513e-08
5.00045e-08
5.01239e-08
5.03003e-08
5.33581e-08
1.67573e-07
2.28746e-05
3.5457e-05
3.29171e-05
3.56143e-05
3.43643e-05
3.37182e-05
3.33498e-05
3.31806e-05
3.3084e-05
3.2986e-05
3.28513e-05
3.26672e-05
3.24306e-05
3.21419e-05
3.18023e-05
3.14137e-05
3.09798e-05
3.05061e-05
2.9998e-05
2.30781e-05
3.75868e-05
3.75175e-05
3.74389e-05
3.73508e-05
3.72415e-05
3.7098e-05
3.68948e-05
3.66322e-05
3.65555e-05
3.71448e-05
3.75132e-05
4.03334e-05
4.06592e-05
2.90762e-07
5.67054e-08
5.07036e-08
5.07718e-08
5.06976e-08
5.06633e-08
5.06451e-08
5.04314e-08
5.03675e-08
5.02911e-08
5.01598e-08
4.99538e-08
4.97806e-08
4.98145e-08
5.01009e-08
8.46715e-08
1.35695e-06
3.11449e-05
3.70866e-05
3.65607e-05
3.5251e-05
3.39294e-05
3.32295e-05
3.28475e-05
3.26598e-05
3.2538e-05
3.24139e-05
3.22548e-05
3.20484e-05
3.17916e-05
3.1485e-05
3.11304e-05
3.07309e-05
3.02903e-05
2.98122e-05
2.92972e-05
2.23455e-05
3.75302e-05
3.74566e-05
3.73743e-05
3.72834e-05
3.71843e-05
3.70653e-05
3.68886e-05
3.66512e-05
3.66078e-05
3.73604e-05
3.94718e-05
4.08691e-05
4.34054e-05
1.23751e-06
8.38586e-08
5.05234e-08
5.05662e-08
5.06232e-08
5.06619e-08
5.06477e-08
5.04309e-08
5.03824e-08
5.03399e-08
5.02297e-08
4.99673e-08
4.96644e-08
4.96743e-08
6.99594e-08
6.51079e-07
3.47214e-05
3.47473e-05
3.73129e-05
3.65173e-05
3.46435e-05
3.34334e-05
3.2753e-05
3.23994e-05
3.22065e-05
3.20656e-05
3.19168e-05
3.17322e-05
3.15016e-05
3.12226e-05
3.08963e-05
3.05253e-05
3.01124e-05
2.96601e-05
2.91689e-05
2.86382e-05
2.16662e-05
3.74774e-05
3.74001e-05
3.73144e-05
3.7221e-05
3.71203e-05
3.69994e-05
3.68211e-05
3.65954e-05
3.66008e-05
3.7531e-05
4.01104e-05
4.08116e-05
4.236e-05
2.10697e-05
2.40516e-07
5.80319e-08
5.05462e-08
5.05855e-08
5.06746e-08
5.06573e-08
5.04324e-08
5.04049e-08
5.04278e-08
5.0413e-08
5.0209e-08
5.00422e-08
7.17728e-08
5.88912e-07
3.54261e-05
4.23116e-05
3.60253e-05
3.72049e-05
3.55156e-05
3.38994e-05
3.28831e-05
3.23128e-05
3.20039e-05
3.18159e-05
3.16596e-05
3.14873e-05
3.12773e-05
3.10222e-05
3.07211e-05
3.03758e-05
2.99891e-05
2.95629e-05
2.9098e-05
2.85946e-05
2.80522e-05
2.10755e-05
3.74285e-05
3.73478e-05
3.72589e-05
3.71628e-05
3.70597e-05
3.69352e-05
3.67518e-05
3.65275e-05
3.65538e-05
3.74797e-05
3.85013e-05
4.11626e-05
2.8814e-05
1.28338e-05
1.31334e-05
1.44267e-07
5.31371e-08
5.06209e-08
5.06989e-08
5.06851e-08
5.04363e-08
5.03984e-08
5.04388e-08
5.04948e-08
5.27664e-08
9.19739e-08
8.04314e-07
3.63211e-05
4.53235e-05
4.26642e-05
3.8713e-05
3.66811e-05
3.46536e-05
3.32691e-05
3.2429e-05
3.19547e-05
3.16825e-05
3.14952e-05
3.13216e-05
3.1125e-05
3.08899e-05
3.06118e-05
3.02914e-05
2.99308e-05
2.9532e-05
2.90955e-05
2.86216e-05
2.81099e-05
2.75589e-05
2.05831e-05
3.73833e-05
3.72995e-05
3.72076e-05
3.71086e-05
3.70022e-05
3.68725e-05
3.66817e-05
3.64522e-05
3.64796e-05
3.73561e-05
3.74799e-05
4.10152e-05
1.91977e-05
1.43434e-05
3.04633e-05
1.74317e-05
1.42429e-07
5.77693e-08
5.09624e-08
5.07709e-08
5.04704e-08
5.05396e-08
5.25245e-08
6.7679e-08
1.53437e-07
1.65361e-06
3.76142e-05
4.57874e-05
4.49486e-05
4.16594e-05
3.83734e-05
3.57682e-05
3.3928e-05
3.27753e-05
3.20874e-05
3.16893e-05
3.14403e-05
3.12456e-05
3.10505e-05
3.08283e-05
3.05688e-05
3.02702e-05
2.99336e-05
2.95606e-05
2.91515e-05
2.87059e-05
2.82232e-05
2.77019e-05
2.71397e-05
2.01657e-05
3.73419e-05
3.72552e-05
3.71604e-05
3.70584e-05
3.69481e-05
3.68127e-05
3.66142e-05
3.63784e-05
3.63998e-05
3.72503e-05
3.81376e-05
3.97736e-05
1.9675e-05
4.67236e-05
4.799e-05
4.49851e-05
2.19495e-05
2.79605e-07
1.05251e-07
7.82187e-08
8.03715e-08
1.01032e-07
1.80433e-07
5.71095e-07
2.01151e-05
3.43265e-05
4.21367e-05
4.55213e-05
4.36778e-05
4.00897e-05
3.70789e-05
3.48442e-05
3.33328e-05
3.2399e-05
3.18411e-05
3.15016e-05
3.12645e-05
3.10565e-05
3.08377e-05
3.05905e-05
3.03089e-05
2.99925e-05
2.96418e-05
2.92568e-05
2.88365e-05
2.83796e-05
2.78848e-05
2.73504e-05
2.67753e-05
1.98054e-05
3.73043e-05
3.7215e-05
3.71175e-05
3.70124e-05
3.68981e-05
3.67573e-05
3.65525e-05
3.63114e-05
3.63238e-05
3.70314e-05
3.91353e-05
3.76834e-05
1.94661e-05
4.09989e-05
4.84132e-05
4.74947e-05
4.81529e-05
3.23429e-05
1.18958e-05
4.9464e-06
5.58847e-06
1.11635e-05
3.04248e-05
3.71193e-05
3.9682e-05
4.22125e-05
4.44461e-05
4.43758e-05
4.18147e-05
3.84936e-05
3.59094e-05
3.40749e-05
3.28673e-05
3.21245e-05
3.16712e-05
3.13732e-05
3.11389e-05
3.09145e-05
3.06731e-05
3.04038e-05
3.01035e-05
2.97717e-05
2.94076e-05
2.90096e-05
2.85758e-05
2.81048e-05
2.75953e-05
2.70468e-05
2.646e-05
1.9497e-05
3.72705e-05
3.7179e-05
3.70789e-05
3.69709e-05
3.68528e-05
3.67074e-05
3.64983e-05
3.62545e-05
3.62558e-05
3.68458e-05
3.92092e-05
3.45752e-05
2.0285e-05
4.75662e-05
4.80084e-05
4.92468e-05
4.95458e-05
4.74275e-05
4.55067e-05
4.48383e-05
4.419e-05
4.44661e-05
4.45694e-05
4.38168e-05
4.38511e-05
4.45869e-05
4.47481e-05
4.30571e-05
3.98657e-05
3.70301e-05
3.4913e-05
3.34566e-05
3.25166e-05
3.19336e-05
3.15602e-05
3.12886e-05
3.10508e-05
3.08097e-05
3.05486e-05
3.02613e-05
2.99456e-05
2.95998e-05
2.92217e-05
2.8809e-05
2.83599e-05
2.78734e-05
2.73493e-05
2.67882e-05
2.61921e-05
1.92374e-05
3.72407e-05
3.71472e-05
3.70448e-05
3.69342e-05
3.68128e-05
3.66637e-05
3.64524e-05
3.62075e-05
3.61979e-05
3.68299e-05
3.91886e-05
3.34719e-05
2.09277e-05
4.7501e-05
4.8091e-05
4.9866e-05
5.01398e-05
4.91018e-05
4.76586e-05
4.66299e-05
4.53579e-05
4.49392e-05
4.49718e-05
4.51133e-05
4.50722e-05
4.48889e-05
4.36468e-05
4.09973e-05
3.81177e-05
3.57855e-05
3.41088e-05
3.29846e-05
3.22665e-05
3.18092e-05
3.14929e-05
3.12361e-05
3.09914e-05
3.07356e-05
3.04588e-05
3.01569e-05
2.98275e-05
2.94676e-05
2.90744e-05
2.86458e-05
2.81807e-05
2.76791e-05
2.71418e-05
2.65704e-05
2.59671e-05
1.90207e-05
3.72149e-05
3.71197e-05
3.70155e-05
3.69025e-05
3.67782e-05
3.66262e-05
3.64143e-05
3.6169e-05
3.61441e-05
3.68948e-05
3.90993e-05
3.29645e-05
2.44957e-05
4.7232e-05
4.8416e-05
5.03426e-05
4.99138e-05
4.93674e-05
4.86636e-05
4.7213e-05
4.55512e-05
4.4972e-05
4.48297e-05
4.48772e-05
4.49464e-05
4.4151e-05
4.19137e-05
3.91006e-05
3.66481e-05
3.47883e-05
3.34967e-05
3.26482e-05
3.21035e-05
3.1738e-05
3.14589e-05
3.12085e-05
3.09563e-05
3.06885e-05
3.03992e-05
3.00848e-05
2.97417e-05
2.93668e-05
2.89574e-05
2.85125e-05
2.80321e-05
2.75171e-05
2.69688e-05
2.63891e-05
2.57801e-05
1.88413e-05
3.71932e-05
3.70967e-05
3.6991e-05
3.6876e-05
3.67492e-05
3.65952e-05
3.63834e-05
3.61368e-05
3.60887e-05
3.6799e-05
3.88277e-05
3.28293e-05
3.62182e-05
4.70394e-05
4.87261e-05
5.02241e-05
4.92256e-05
4.88236e-05
4.91626e-05
4.79845e-05
4.60501e-05
4.51842e-05
4.48387e-05
4.48273e-05
4.44605e-05
4.26731e-05
3.99708e-05
3.74724e-05
3.5474e-05
3.40333e-05
3.30621e-05
3.24304e-05
3.20131e-05
3.17095e-05
3.14522e-05
3.1203e-05
3.0944e-05
3.06667e-05
3.03665e-05
3.00395e-05
2.9682e-05
2.92912e-05
2.88656e-05
2.84054e-05
2.79114e-05
2.73851e-05
2.6828e-05
2.62418e-05
2.56281e-05
1.86958e-05
3.71757e-05
3.70783e-05
3.69714e-05
3.68549e-05
3.67262e-05
3.65706e-05
3.63596e-05
3.61117e-05
3.60442e-05
3.66862e-05
3.85959e-05
3.55749e-05
4.4052e-05
4.68018e-05
4.89597e-05
4.96942e-05
4.868e-05
4.8542e-05
4.92138e-05
4.88016e-05
4.67173e-05
4.5631e-05
4.51077e-05
4.46482e-05
4.31538e-05
4.07001e-05
3.82379e-05
3.61522e-05
3.4585e-05
3.34992e-05
3.27823e-05
3.23115e-05
3.19816e-05
3.17164e-05
3.14702e-05
3.12199e-05
3.09546e-05
3.06687e-05
3.03575e-05
3.00171e-05
2.96443e-05
2.92377e-05
2.8797e-05
2.83233e-05
2.78181e-05
2.72827e-05
2.67185e-05
2.61269e-05
2.55092e-05
1.85819e-05
3.71624e-05
3.70645e-05
3.6957e-05
3.68395e-05
3.67093e-05
3.65529e-05
3.63435e-05
3.6095e-05
3.60094e-05
3.65782e-05
3.82816e-05
4.09122e-05
4.37733e-05
4.65741e-05
4.90845e-05
4.92893e-05
4.83101e-05
4.84936e-05
4.94907e-05
4.96023e-05
4.74563e-05
4.62186e-05
4.50347e-05
4.33417e-05
4.12133e-05
3.89088e-05
3.6808e-05
3.51472e-05
3.39579e-05
3.31579e-05
3.26321e-05
3.22732e-05
3.19985e-05
3.17549e-05
3.15134e-05
3.12604e-05
3.09887e-05
3.06933e-05
3.03699e-05
3.00151e-05
2.96271e-05
2.92056e-05
2.87517e-05
2.82669e-05
2.77524e-05
2.72096e-05
2.66395e-05
2.60432e-05
2.54218e-05
1.84975e-05
3.71533e-05
3.70555e-05
3.69478e-05
3.68298e-05
3.66988e-05
3.65424e-05
3.63353e-05
3.60868e-05
3.59773e-05
3.64681e-05
3.79505e-05
4.09758e-05
4.3534e-05
4.62604e-05
4.91072e-05
4.90283e-05
4.78236e-05
4.81914e-05
4.96701e-05
4.99409e-05
4.73751e-05
4.53554e-05
4.34966e-05
4.15506e-05
3.9455e-05
3.74237e-05
3.57172e-05
3.44418e-05
3.35616e-05
3.29786e-05
3.25871e-05
3.23e-05
3.20571e-05
3.18239e-05
3.15829e-05
3.13254e-05
3.10458e-05
3.07393e-05
3.04022e-05
3.00326e-05
2.96301e-05
2.91955e-05
2.87304e-05
2.82362e-05
2.7714e-05
2.71648e-05
2.65894e-05
2.59888e-05
2.53639e-05
1.84407e-05
3.71485e-05
3.70512e-05
3.6944e-05
3.68262e-05
3.66952e-05
3.65395e-05
3.63355e-05
3.60874e-05
3.59522e-05
3.63585e-05
3.78018e-05
4.04564e-05
4.32184e-05
4.57389e-05
4.90374e-05
4.89378e-05
4.75148e-05
4.77249e-05
4.90804e-05
4.89691e-05
4.60943e-05
4.39206e-05
4.19188e-05
3.99349e-05
3.8003e-05
3.62985e-05
3.49604e-05
3.40045e-05
3.33606e-05
3.29309e-05
3.26262e-05
3.23806e-05
3.21535e-05
3.19233e-05
3.16793e-05
3.14148e-05
3.11247e-05
3.0805e-05
3.04534e-05
3.00693e-05
2.96535e-05
2.92076e-05
2.8733e-05
2.82308e-05
2.77019e-05
2.7147e-05
2.65668e-05
2.5962e-05
2.53338e-05
1.84098e-05
3.7148e-05
3.70518e-05
3.69457e-05
3.68287e-05
3.66985e-05
3.65446e-05
3.63444e-05
3.60974e-05
3.59362e-05
3.62512e-05
3.75723e-05
3.96529e-05
4.25106e-05
4.53406e-05
4.88954e-05
4.90428e-05
4.74154e-05
4.74785e-05
4.86999e-05
4.79291e-05
4.48204e-05
4.25525e-05
4.05082e-05
3.86098e-05
3.69165e-05
3.55331e-05
3.45051e-05
3.37943e-05
3.33175e-05
3.29869e-05
3.27322e-05
3.25069e-05
3.22847e-05
3.20522e-05
3.18014e-05
3.15266e-05
3.12235e-05
3.08891e-05
3.05227e-05
3.01251e-05
2.96976e-05
2.92419e-05
2.8759e-05
2.82498e-05
2.77148e-05
2.71546e-05
2.65698e-05
2.59612e-05
2.53296e-05
1.8403e-05
3.71517e-05
3.70572e-05
3.69528e-05
3.68376e-05
3.67091e-05
3.6558e-05
3.63628e-05
3.61185e-05
3.59332e-05
3.61537e-05
3.72701e-05
3.87169e-05
4.15192e-05
4.50506e-05
4.86179e-05
4.93342e-05
4.75339e-05
4.74609e-05
4.85567e-05
4.68838e-05
4.3635e-05
4.13542e-05
3.93671e-05
3.76341e-05
3.61964e-05
3.50915e-05
3.43031e-05
3.37657e-05
3.33966e-05
3.31227e-05
3.28918e-05
3.26725e-05
3.24478e-05
3.22081e-05
3.19466e-05
3.16583e-05
3.13399e-05
3.09902e-05
3.06097e-05
3.01998e-05
2.9762e-05
2.92976e-05
2.88073e-05
2.82918e-05
2.77513e-05
2.71862e-05
2.65971e-05
2.59847e-05
2.535e-05
1.8419e-05
3.71596e-05
3.70673e-05
3.69654e-05
3.68528e-05
3.67272e-05
3.65801e-05
3.63916e-05
3.61525e-05
3.59477e-05
3.60773e-05
3.69741e-05
3.81801e-05
4.06496e-05
4.45008e-05
4.80521e-05
4.98476e-05
4.78822e-05
4.76821e-05
4.83639e-05
4.59022e-05
4.26183e-05
4.04029e-05
3.8543e-05
3.70065e-05
3.58024e-05
3.49173e-05
3.42996e-05
3.38739e-05
3.3566e-05
3.33184e-05
3.3094e-05
3.28714e-05
3.26383e-05
3.23868e-05
3.21109e-05
3.18066e-05
3.14721e-05
3.11074e-05
3.07138e-05
3.02928e-05
2.98459e-05
2.93738e-05
2.88769e-05
2.83555e-05
2.78099e-05
2.72402e-05
2.66471e-05
2.60312e-05
2.53934e-05
1.84564e-05
3.71716e-05
3.70821e-05
3.69834e-05
3.68744e-05
3.67528e-05
3.66113e-05
3.64314e-05
3.62007e-05
3.59835e-05
3.60333e-05
3.66438e-05
3.7696e-05
4.00608e-05
4.37853e-05
4.74416e-05
5.01302e-05
4.84614e-05
4.81407e-05
4.774e-05
4.50398e-05
4.18176e-05
3.97252e-05
3.80271e-05
3.66831e-05
3.56717e-05
3.4947e-05
3.44406e-05
3.40788e-05
3.37991e-05
3.35582e-05
3.33293e-05
3.30967e-05
3.28506e-05
3.25835e-05
3.22906e-05
3.1969e-05
3.16183e-05
3.12396e-05
3.08342e-05
3.04035e-05
2.99485e-05
2.94694e-05
2.89664e-05
2.84397e-05
2.78892e-05
2.73153e-05
2.67184e-05
2.60991e-05
2.54584e-05
1.8514e-05
3.71875e-05
3.71014e-05
3.70066e-05
3.69021e-05
3.67858e-05
3.66513e-05
3.64822e-05
3.62638e-05
3.60424e-05
3.60284e-05
3.64479e-05
3.72823e-05
3.9794e-05
4.30244e-05
4.66755e-05
4.96707e-05
4.92638e-05
4.86247e-05
4.69197e-05
4.43248e-05
4.12397e-05
3.93026e-05
3.77735e-05
3.65989e-05
3.57353e-05
3.51192e-05
3.46786e-05
3.43472e-05
3.40749e-05
3.38287e-05
3.35885e-05
3.33414e-05
3.30785e-05
3.27932e-05
3.24819e-05
3.21431e-05
3.17773e-05
3.13858e-05
3.09699e-05
3.05307e-05
3.00683e-05
2.95829e-05
2.90744e-05
2.85427e-05
2.79878e-05
2.74099e-05
2.68095e-05
2.61871e-05
2.55436e-05
1.85905e-05
3.72071e-05
3.7125e-05
3.70348e-05
3.69357e-05
3.68258e-05
3.66999e-05
3.65435e-05
3.63412e-05
3.61239e-05
3.60633e-05
3.64176e-05
3.70655e-05
3.95223e-05
4.22233e-05
4.56353e-05
4.87312e-05
4.9499e-05
4.84396e-05
4.62091e-05
4.37592e-05
4.08606e-05
3.90899e-05
3.772e-05
3.66854e-05
3.5929e-05
3.53818e-05
3.49755e-05
3.46537e-05
3.43767e-05
3.41187e-05
3.38631e-05
3.35983e-05
3.33163e-05
3.30117e-05
3.2682e-05
3.2327e-05
3.19475e-05
3.15448e-05
3.11198e-05
3.06729e-05
3.0204e-05
2.97129e-05
2.91993e-05
2.86631e-05
2.81042e-05
2.75227e-05
2.6919e-05
2.62936e-05
2.56475e-05
1.86846e-05
3.72301e-05
3.71525e-05
3.70676e-05
3.69747e-05
3.68723e-05
3.67562e-05
3.66143e-05
3.6431e-05
3.62255e-05
3.61343e-05
3.64425e-05
3.73392e-05
3.90902e-05
4.15172e-05
4.46831e-05
4.77261e-05
4.88873e-05
4.7718e-05
4.56068e-05
4.33266e-05
4.06405e-05
3.90329e-05
3.78045e-05
3.6881e-05
3.62001e-05
3.56942e-05
3.53028e-05
3.49793e-05
3.46916e-05
3.44185e-05
3.41451e-05
3.38611e-05
3.35592e-05
3.32355e-05
3.28887e-05
3.25191e-05
3.21276e-05
3.17152e-05
3.12822e-05
3.08285e-05
3.03537e-05
2.98575e-05
2.93394e-05
2.87991e-05
2.82366e-05
2.76518e-05
2.70451e-05
2.64171e-05
2.57684e-05
1.8795e-05
3.72563e-05
3.71836e-05
3.71045e-05
3.70184e-05
3.69244e-05
3.68192e-05
3.66929e-05
3.65309e-05
3.63434e-05
3.62357e-05
3.64546e-05
3.7252e-05
3.86796e-05
4.08798e-05
4.37729e-05
4.67723e-05
4.81289e-05
4.70603e-05
4.51001e-05
4.3001e-05
4.05358e-05
3.90801e-05
3.79735e-05
3.71371e-05
3.6509e-05
3.60274e-05
3.56407e-05
3.53103e-05
3.50096e-05
3.472e-05
3.44281e-05
3.41245e-05
3.38034e-05
3.3462e-05
3.30999e-05
3.27176e-05
3.23159e-05
3.18951e-05
3.14552e-05
3.09956e-05
3.05158e-05
3.0015e-05
2.94929e-05
2.89491e-05
2.83833e-05
2.77957e-05
2.71863e-05
2.65558e-05
2.59048e-05
1.89203e-05
3.72852e-05
3.72178e-05
3.71449e-05
3.70663e-05
3.69814e-05
3.68878e-05
3.67778e-05
3.66383e-05
3.64733e-05
3.63612e-05
3.65065e-05
3.70802e-05
3.83299e-05
4.03166e-05
4.29189e-05
4.58657e-05
4.73426e-05
4.64587e-05
4.4671e-05
4.2755e-05
4.05076e-05
3.9189e-05
3.81859e-05
3.74184e-05
3.68285e-05
3.63621e-05
3.59755e-05
3.56368e-05
3.53228e-05
3.50168e-05
3.47067e-05
3.43845e-05
3.40458e-05
3.36888e-05
3.33137e-05
3.29208e-05
3.25106e-05
3.20828e-05
3.16369e-05
3.11723e-05
3.06881e-05
3.01835e-05
2.9658e-05
2.91111e-05
2.85426e-05
2.79524e-05
2.73408e-05
2.67081e-05
2.60549e-05
1.9059e-05
3.73166e-05
3.72546e-05
3.71883e-05
3.71176e-05
3.70421e-05
3.69605e-05
3.68671e-05
3.67505e-05
3.66108e-05
3.65047e-05
3.65988e-05
3.70445e-05
3.81014e-05
3.98738e-05
4.22411e-05
4.48856e-05
4.64302e-05
4.59035e-05
4.43005e-05
4.25641e-05
4.05243e-05
3.93279e-05
3.8413e-05
3.77016e-05
3.71413e-05
3.66858e-05
3.62984e-05
3.59516e-05
3.56251e-05
3.53037e-05
3.49769e-05
3.46381e-05
3.42841e-05
3.39141e-05
3.35283e-05
3.31268e-05
3.27095e-05
3.2276e-05
3.18253e-05
3.13566e-05
3.08687e-05
3.0361e-05
2.98327e-05
2.92834e-05
2.87126e-05
2.81204e-05
2.75068e-05
2.68722e-05
2.62172e-05
1.92097e-05
3.73499e-05
3.72937e-05
3.72342e-05
3.71714e-05
3.71057e-05
3.70362e-05
3.6959e-05
3.68648e-05
3.67515e-05
3.6659e-05
3.67201e-05
3.71228e-05
3.79517e-05
3.95552e-05
4.16184e-05
4.39428e-05
4.55777e-05
4.53858e-05
4.39722e-05
4.24085e-05
4.0563e-05
3.94747e-05
3.8636e-05
3.79721e-05
3.74369e-05
3.6991e-05
3.66032e-05
3.62496e-05
3.59121e-05
3.55771e-05
3.52357e-05
3.48828e-05
3.45164e-05
3.4136e-05
3.37417e-05
3.33335e-05
3.29108e-05
3.24728e-05
3.20183e-05
3.15463e-05
3.10558e-05
3.05456e-05
3.00153e-05
2.9464e-05
2.88916e-05
2.82978e-05
2.76827e-05
2.70465e-05
2.63898e-05
1.93709e-05
3.73849e-05
3.73345e-05
3.72818e-05
3.72271e-05
3.7171e-05
3.71134e-05
3.70518e-05
3.69789e-05
3.68916e-05
3.68172e-05
3.68597e-05
3.71942e-05
3.79385e-05
3.92641e-05
4.10397e-05
4.31005e-05
4.47943e-05
4.4899e-05
4.36728e-05
4.22737e-05
4.06077e-05
3.96156e-05
3.88438e-05
3.82216e-05
3.77093e-05
3.7273e-05
3.6886e-05
3.65273e-05
3.61806e-05
3.58343e-05
3.5481e-05
3.5117e-05
3.47409e-05
3.43527e-05
3.39522e-05
3.3539e-05
3.31124e-05
3.26712e-05
3.2214e-05
3.17398e-05
3.12473e-05
3.07356e-05
3.02039e-05
2.96515e-05
2.90779e-05
2.8483e-05
2.78667e-05
2.72292e-05
2.65712e-05
1.95412e-05
3.74211e-05
3.73765e-05
3.73305e-05
3.72838e-05
3.72372e-05
3.7191e-05
3.71441e-05
3.70909e-05
3.7028e-05
3.69736e-05
3.70078e-05
3.72783e-05
3.79245e-05
3.90237e-05
4.05522e-05
4.23651e-05
4.40749e-05
4.44302e-05
4.33927e-05
4.21494e-05
4.06481e-05
3.97421e-05
3.90301e-05
3.84459e-05
3.79552e-05
3.75291e-05
3.71443e-05
3.67823e-05
3.64287e-05
3.60737e-05
3.57114e-05
3.53392e-05
3.49563e-05
3.45627e-05
3.4158e-05
3.37417e-05
3.33126e-05
3.28693e-05
3.24107e-05
3.19352e-05
3.14417e-05
3.09292e-05
3.03968e-05
2.98437e-05
2.92696e-05
2.8674e-05
2.80569e-05
2.74186e-05
2.67595e-05
1.97189e-05
3.74582e-05
3.74192e-05
3.73799e-05
3.73409e-05
3.73033e-05
3.72679e-05
3.72345e-05
3.7199e-05
3.71582e-05
3.7124e-05
3.71569e-05
3.73787e-05
3.79148e-05
3.88403e-05
4.0146e-05
4.17311e-05
4.32807e-05
4.38356e-05
4.31255e-05
4.20287e-05
4.06785e-05
3.98499e-05
3.9192e-05
3.86429e-05
3.81732e-05
3.77579e-05
3.73768e-05
3.70134e-05
3.66553e-05
3.62943e-05
3.5926e-05
3.55485e-05
3.51614e-05
3.47647e-05
3.43578e-05
3.39399e-05
3.35097e-05
3.30657e-05
3.26066e-05
3.21309e-05
3.16374e-05
3.11249e-05
3.05926e-05
3.00397e-05
2.94656e-05
2.88699e-05
2.82527e-05
2.7614e-05
2.69541e-05
1.99036e-05
3.74958e-05
3.74623e-05
3.74294e-05
3.73978e-05
3.73687e-05
3.73433e-05
3.7322e-05
3.73022e-05
3.7281e-05
3.72657e-05
3.73015e-05
3.7487e-05
3.79312e-05
3.87066e-05
3.98089e-05
4.11857e-05
4.25848e-05
4.32923e-05
4.28674e-05
4.19075e-05
4.06955e-05
3.99372e-05
3.93286e-05
3.88123e-05
3.8363e-05
3.79592e-05
3.7583e-05
3.72201e-05
3.68599e-05
3.64957e-05
3.61242e-05
3.57441e-05
3.53553e-05
3.49576e-05
3.45503e-05
3.41323e-05
3.37024e-05
3.3259e-05
3.28005e-05
3.23257e-05
3.18332e-05
3.13219e-05
3.07908e-05
3.0239e-05
2.96659e-05
2.9071e-05
2.84541e-05
2.78152e-05
2.71547e-05
2.00949e-05
3.75335e-05
3.75054e-05
3.74785e-05
3.74538e-05
3.74327e-05
3.74164e-05
3.74059e-05
3.73997e-05
3.73953e-05
3.73969e-05
3.7438e-05
3.75966e-05
3.79655e-05
3.86104e-05
3.95426e-05
4.0729e-05
4.19804e-05
4.27986e-05
4.26167e-05
4.17833e-05
4.06981e-05
4.00038e-05
3.94405e-05
3.89549e-05
3.85255e-05
3.81335e-05
3.77635e-05
3.7403e-05
3.7043e-05
3.66782e-05
3.63061e-05
3.59259e-05
3.55376e-05
3.51407e-05
3.47346e-05
3.4318e-05
3.38896e-05
3.34478e-05
3.29911e-05
3.25182e-05
3.20277e-05
3.15184e-05
3.09894e-05
3.04396e-05
2.9868e-05
2.9274e-05
2.86574e-05
2.80183e-05
2.73571e-05
2.02888e-05
3.75711e-05
3.7548e-05
3.75268e-05
3.75086e-05
3.74947e-05
3.74866e-05
3.74856e-05
3.7491e-05
3.75007e-05
3.75171e-05
3.75643e-05
3.77032e-05
3.80107e-05
3.85398e-05
3.93312e-05
4.0352e-05
4.14605e-05
4.22995e-05
4.23201e-05
4.16552e-05
4.06863e-05
4.00506e-05
3.9529e-05
3.90723e-05
3.8662e-05
3.82823e-05
3.79196e-05
3.75631e-05
3.72055e-05
3.68424e-05
3.64721e-05
3.6094e-05
3.5708e-05
3.53136e-05
3.49101e-05
3.44961e-05
3.40702e-05
3.36309e-05
3.31767e-05
3.27062e-05
3.22182e-05
3.17114e-05
3.11846e-05
3.06365e-05
3.00662e-05
2.94728e-05
2.88562e-05
2.82168e-05
2.75552e-05
2.04796e-05
3.76083e-05
3.75899e-05
3.75741e-05
3.75618e-05
3.75544e-05
3.75536e-05
3.75608e-05
3.75758e-05
3.75973e-05
3.7626e-05
3.76793e-05
3.78036e-05
3.80615e-05
3.84984e-05
3.9165e-05
4.00442e-05
4.10168e-05
4.17892e-05
4.19714e-05
4.15231e-05
4.0661e-05
4.00794e-05
3.95962e-05
3.91664e-05
3.87748e-05
3.84075e-05
3.8053e-05
3.77021e-05
3.73488e-05
3.69896e-05
3.6623e-05
3.62488e-05
3.58667e-05
3.54762e-05
3.50764e-05
3.46659e-05
3.42433e-05
3.38072e-05
3.33559e-05
3.28882e-05
3.24027e-05
3.18982e-05
3.13732e-05
3.08266e-05
3.02572e-05
2.96643e-05
2.9048e-05
2.84087e-05
2.77473e-05
2.0666e-05
3.76448e-05
3.76309e-05
3.76199e-05
3.7613e-05
3.76116e-05
3.76171e-05
3.76312e-05
3.76542e-05
3.76851e-05
3.7724e-05
3.77828e-05
3.7896e-05
3.8114e-05
3.8476e-05
3.90359e-05
3.97943e-05
4.06385e-05
4.13404e-05
4.16489e-05
4.13861e-05
4.06235e-05
4.00921e-05
3.96444e-05
3.92399e-05
3.88661e-05
3.85115e-05
3.8166e-05
3.78222e-05
3.74748e-05
3.7121e-05
3.67599e-05
3.63911e-05
3.60142e-05
3.56287e-05
3.52335e-05
3.48274e-05
3.44088e-05
3.39762e-05
3.35283e-05
3.30637e-05
3.25808e-05
3.20785e-05
3.15554e-05
3.10103e-05
3.04421e-05
2.98502e-05
2.92348e-05
2.85963e-05
2.79354e-05
2.08495e-05
3.76805e-05
3.76707e-05
3.76642e-05
3.76621e-05
3.76658e-05
3.76768e-05
3.76968e-05
3.77263e-05
3.77647e-05
3.78116e-05
3.78749e-05
3.79796e-05
3.81655e-05
3.84718e-05
3.8941e-05
3.95871e-05
4.03177e-05
4.09478e-05
4.13201e-05
4.12141e-05
4.05756e-05
4.00909e-05
3.96763e-05
3.92954e-05
3.89389e-05
3.8597e-05
3.82613e-05
3.79255e-05
3.75854e-05
3.72385e-05
3.68841e-05
3.65218e-05
3.61512e-05
3.57715e-05
3.53817e-05
3.49805e-05
3.45664e-05
3.41381e-05
3.36939e-05
3.32326e-05
3.27527e-05
3.2253e-05
3.17322e-05
3.11892e-05
3.0623e-05
3.00331e-05
2.94196e-05
2.87827e-05
2.81229e-05
2.10331e-05
3.77152e-05
3.77091e-05
3.77066e-05
3.77089e-05
3.77171e-05
3.77328e-05
3.77576e-05
3.77922e-05
3.78364e-05
3.78894e-05
3.7956e-05
3.80541e-05
3.82143e-05
3.84753e-05
3.88728e-05
3.94182e-05
4.00467e-05
4.06056e-05
4.09667e-05
4.09927e-05
4.05186e-05
4.0078e-05
3.96942e-05
3.93357e-05
3.89958e-05
3.86667e-05
3.83414e-05
3.80146e-05
3.76826e-05
3.73437e-05
3.6997e-05
3.66421e-05
3.62784e-05
3.59052e-05
3.55213e-05
3.51256e-05
3.47166e-05
3.42929e-05
3.3853e-05
3.33957e-05
3.29196e-05
3.24236e-05
3.19065e-05
3.13675e-05
3.08058e-05
3.02209e-05
2.96124e-05
2.898e-05
2.83232e-05
2.12301e-05
3.77487e-05
3.7746e-05
3.77472e-05
3.77532e-05
3.77654e-05
3.7785e-05
3.78136e-05
3.78522e-05
3.79007e-05
3.79581e-05
3.8027e-05
3.81195e-05
3.82596e-05
3.84809e-05
3.88177e-05
3.92814e-05
3.98184e-05
4.03082e-05
4.06527e-05
4.07854e-05
4.04531e-05
4.00556e-05
3.97008e-05
3.93633e-05
3.90394e-05
3.87231e-05
3.84086e-05
3.80914e-05
3.77685e-05
3.74382e-05
3.70998e-05
3.67528e-05
3.63966e-05
3.60303e-05
3.56528e-05
3.5263e-05
3.48594e-05
3.44406e-05
3.40054e-05
3.35525e-05
3.30805e-05
3.25884e-05
3.20752e-05
3.154e-05
3.09823e-05
3.04013e-05
2.97961e-05
2.91654e-05
2.8508e-05
2.141e-05
3.7781e-05
3.77813e-05
3.77857e-05
3.77951e-05
3.78105e-05
3.78334e-05
3.78652e-05
3.79067e-05
3.79581e-05
3.80185e-05
3.80886e-05
3.81764e-05
3.83006e-05
3.84903e-05
3.87772e-05
3.91711e-05
3.96265e-05
4.00506e-05
4.03713e-05
4.05386e-05
4.03196e-05
4.00256e-05
3.9698e-05
3.93805e-05
3.90721e-05
3.87685e-05
3.84651e-05
3.81579e-05
3.78445e-05
3.75234e-05
3.71937e-05
3.6855e-05
3.65065e-05
3.61474e-05
3.57766e-05
3.53928e-05
3.49948e-05
3.45812e-05
3.41506e-05
3.37018e-05
3.32335e-05
3.27445e-05
3.22338e-05
3.17007e-05
3.11442e-05
3.05635e-05
2.99574e-05
2.93246e-05
2.86644e-05
2.15622e-05
3.78119e-05
3.7815e-05
3.78222e-05
3.78344e-05
3.78527e-05
3.78782e-05
3.79124e-05
3.7956e-05
3.80093e-05
3.80712e-05
3.81416e-05
3.82255e-05
3.83373e-05
3.85023e-05
3.87482e-05
3.90823e-05
3.94655e-05
3.98286e-05
4.01204e-05
4.02973e-05
4.01725e-05
3.99896e-05
3.96878e-05
3.93892e-05
3.90957e-05
3.88047e-05
3.85125e-05
3.82157e-05
3.79121e-05
3.76004e-05
3.72797e-05
3.69494e-05
3.66089e-05
3.62571e-05
3.58931e-05
3.55156e-05
3.51233e-05
3.47149e-05
3.4289e-05
3.38444e-05
3.33796e-05
3.28936e-05
3.23851e-05
3.18532e-05
3.12971e-05
3.07157e-05
3.0108e-05
2.94733e-05
2.88118e-05
2.17086e-05
3.78414e-05
3.78469e-05
3.78566e-05
3.78712e-05
3.78918e-05
3.79195e-05
3.79554e-05
3.80004e-05
3.80546e-05
3.81172e-05
3.81872e-05
3.82676e-05
3.83699e-05
3.85155e-05
3.87279e-05
3.90108e-05
3.93308e-05
3.96382e-05
3.99019e-05
4.008e-05
3.99679e-05
3.98785e-05
3.96716e-05
3.93911e-05
3.9112e-05
3.88333e-05
3.85522e-05
3.82659e-05
3.79723e-05
3.76701e-05
3.73584e-05
3.70367e-05
3.67041e-05
3.63598e-05
3.60027e-05
3.56317e-05
3.52454e-05
3.48426e-05
3.44218e-05
3.39818e-05
3.35213e-05
3.30389e-05
3.25336e-05
3.20043e-05
3.145e-05
3.08701e-05
3.02638e-05
2.96309e-05
2.89717e-05
2.18704e-05
3.78695e-05
3.78771e-05
3.78889e-05
3.79056e-05
3.79281e-05
3.79574e-05
3.79945e-05
3.80402e-05
3.80948e-05
3.81572e-05
3.82262e-05
3.83036e-05
3.83986e-05
3.85292e-05
3.87139e-05
3.89531e-05
3.92182e-05
3.94756e-05
3.97131e-05
3.98869e-05
3.97739e-05
3.97397e-05
3.96225e-05
3.93873e-05
3.9122e-05
3.88554e-05
3.85854e-05
3.83095e-05
3.80258e-05
3.77331e-05
3.74304e-05
3.71172e-05
3.67927e-05
3.64559e-05
3.61059e-05
3.57416e-05
3.53616e-05
3.49646e-05
3.45495e-05
3.41148e-05
3.36593e-05
3.31817e-05
3.26809e-05
3.21558e-05
3.16057e-05
3.10299e-05
3.0428e-05
2.97997e-05
2.91449e-05
2.20465e-05
3.78961e-05
3.79056e-05
3.79192e-05
3.79376e-05
3.79616e-05
3.7992e-05
3.80299e-05
3.80759e-05
3.81301e-05
3.81918e-05
3.82595e-05
3.83343e-05
3.84237e-05
3.85425e-05
3.87043e-05
3.89064e-05
3.91243e-05
3.93381e-05
3.95484e-05
3.97132e-05
3.95969e-05
3.95688e-05
3.95263e-05
3.93755e-05
3.91267e-05
3.88717e-05
3.86125e-05
3.83469e-05
3.80731e-05
3.77898e-05
3.74961e-05
3.71913e-05
3.68748e-05
3.65456e-05
3.62028e-05
3.58453e-05
3.54718e-05
3.50811e-05
3.4672e-05
3.42431e-05
3.37932e-05
3.3321e-05
3.28255e-05
3.23057e-05
3.17608e-05
3.11902e-05
3.05934e-05
2.99699e-05
2.93192e-05
2.22237e-05
3.79213e-05
3.79324e-05
3.79475e-05
3.79672e-05
3.79924e-05
3.80237e-05
3.80619e-05
3.81077e-05
3.81613e-05
3.82217e-05
3.82879e-05
3.83605e-05
3.84456e-05
3.85548e-05
3.86976e-05
3.88682e-05
3.90458e-05
3.92226e-05
3.94064e-05
3.95594e-05
3.94371e-05
3.94119e-05
3.9373e-05
3.92953e-05
3.91267e-05
3.8883e-05
3.86343e-05
3.83787e-05
3.81146e-05
3.78405e-05
3.75556e-05
3.72593e-05
3.69507e-05
3.66291e-05
3.62935e-05
3.59429e-05
3.5576e-05
3.51918e-05
3.47889e-05
3.4366e-05
3.39219e-05
3.34554e-05
3.29654e-05
3.24509e-05
3.1911e-05
3.13452e-05
3.07528e-05
3.01332e-05
2.94853e-05
2.23927e-05
3.79451e-05
3.79575e-05
3.79738e-05
3.79947e-05
3.80207e-05
3.80525e-05
3.80908e-05
3.81361e-05
3.81887e-05
3.82477e-05
3.83121e-05
3.83827e-05
3.84643e-05
3.85657e-05
3.86926e-05
3.88367e-05
3.89811e-05
3.91261e-05
3.92853e-05
3.94246e-05
3.92936e-05
3.92688e-05
3.92318e-05
3.91651e-05
3.90663e-05
3.88896e-05
3.86511e-05
3.84053e-05
3.81505e-05
3.78855e-05
3.76092e-05
3.73211e-05
3.70204e-05
3.67063e-05
3.63779e-05
3.60342e-05
3.56741e-05
3.52963e-05
3.48996e-05
3.44828e-05
3.40445e-05
3.35836e-05
3.30988e-05
3.25892e-05
3.20538e-05
3.14921e-05
3.09032e-05
3.02864e-05
2.96408e-05
2.25511e-05
3.79674e-05
3.7981e-05
3.79983e-05
3.802e-05
3.80466e-05
3.80786e-05
3.81167e-05
3.81614e-05
3.82127e-05
3.82701e-05
3.83328e-05
3.84015e-05
3.848e-05
3.85748e-05
3.86881e-05
3.88102e-05
3.89274e-05
3.90459e-05
3.9183e-05
3.93073e-05
3.9166e-05
3.9139e-05
3.91025e-05
3.90364e-05
3.89516e-05
3.88421e-05
3.86632e-05
3.84268e-05
3.81811e-05
3.79248e-05
3.7657e-05
3.7377e-05
3.7084e-05
3.67773e-05
3.6456e-05
3.61192e-05
3.57657e-05
3.53943e-05
3.50038e-05
3.45928e-05
3.41601e-05
3.37044e-05
3.32245e-05
3.27194e-05
3.21881e-05
3.16298e-05
3.1044e-05
3.04296e-05
2.97858e-05
2.26993e-05
3.79883e-05
3.80029e-05
3.8021e-05
3.80433e-05
3.80702e-05
3.81023e-05
3.814e-05
3.81838e-05
3.82337e-05
3.82894e-05
3.83503e-05
3.84171e-05
3.84928e-05
3.85818e-05
3.86834e-05
3.87874e-05