/*--------------------------------*- C++ -*----------------------------------*\
  =========                 |
  \\      /  F ield         | OpenFOAM: The Open Source CFD Toolbox
   \\    /   O peration     | Website:  https://openfoam.org
    \\  /    A nd           | Version:  9
     \\/     M anipulation  |
\*---------------------------------------------------------------------------*/
FoamFile
{
    format      ascii;
    class       volVectorField;
    location    "0.01";
    object      U;
}
// * * * * * * * * * * * * * * * * * * * * * * * * * * * * * * * * * * * * * //

dimensions      [0 1 -1 0 0 0 0];

internalField   nonuniform List<vector> 
5000
(
(-0.110472 0 0.11269)
(-0.118947 0 0.124362)
(-0.128125 0 0.137747)
(-0.13792 0 0.153191)
(-0.148074 0 0.17098)
(-0.158089 0 0.191962)
(-0.16793 0 0.220899)
(-0.178956 0 0.26814)
(-0.187601 0 0.323592)
(-0.176201 0 0.296504)
(-0.116575 0 0.0301259)
(0.0464341 0 -0.517389)
(0.00307226 0 -0.951848)
(-0.0157833 0 -1.07541)
(-0.0260505 0 -1.10345)
(-0.0184079 0 -1.10535)
(-0.00785074 0 -1.09941)
(-0.00259124 0 -1.09614)
(-0.0003872 0 -1.09575)
(0.000647907 0 -1.09575)
(0.00121027 0 -1.09548)
(0.00150064 0 -1.09508)
(0.00160795 0 -1.09451)
(0.00145931 0 -1.09367)
(0.00106955 0 -1.09295)
(0.00118302 0 -1.09427)
(0.00368413 0 -1.09948)
(0.00949521 0 -1.1054)
(0.0142814 0 -1.10187)
(0.0112588 0 -1.07666)
(-0.00158993 0 -1.01172)
(-0.0143722 0 -0.843652)
(0.0114453 0 -0.371208)
(0.028775 0 -0.0337621)
(0.0476809 0 0.188624)
(0.0598678 0 0.305459)
(0.0653197 0 0.342038)
(0.066673 0 0.331465)
(0.065707 0 0.30038)
(0.0636754 0 0.264151)
(0.0613684 0 0.229312)
(0.059156 0 0.197659)
(0.0571665 0 0.169142)
(0.0554275 0 0.143244)
(0.053933 0 0.119485)
(0.0526641 0 0.0975384)
(0.0515956 0 0.077245)
(0.0507744 0 0.0585988)
(0.0505118 0 0.0417277)
(0.0511079 0 0.0266595)
(-0.102983 0 0.117781)
(-0.110413 0 0.129858)
(-0.118318 0 0.143594)
(-0.126566 0 0.15925)
(-0.134814 0 0.176964)
(-0.142423 0 0.197656)
(-0.149289 0 0.226606)
(-0.156326 0 0.272809)
(-0.157577 0 0.318409)
(-0.133136 0 0.264434)
(-0.0655209 0 -0.0334658)
(0.0849697 0 -0.555925)
(0.0340557 0 -0.923364)
(-0.0159368 0 -1.05793)
(-0.03404 0 -1.10308)
(-0.0227883 0 -1.1129)
(-0.00850408 0 -1.1054)
(-0.00194943 0 -1.09879)
(0.000198773 0 -1.09682)
(0.00106617 0 -1.09633)
(0.0015847 0 -1.09585)
(0.00190237 0 -1.09529)
(0.00205533 0 -1.09448)
(0.00187102 0 -1.09333)
(0.00114451 0 -1.09271)
(0.00059512 0 -1.09572)
(0.00227941 0 -1.10452)
(0.006545 0 -1.11231)
(0.00923283 0 -1.10243)
(0.00374158 0 -1.0608)
(-0.0169519 0 -0.989088)
(-0.042455 0 -0.826509)
(-0.0567501 0 -0.383094)
(-0.0465324 0 -0.0514256)
(-0.0347421 0 0.169481)
(-0.0246669 0 0.289579)
(-0.0169011 0 0.331663)
(-0.0115238 0 0.326271)
(-0.00830275 0 0.298851)
(-0.00658103 0 0.264723)
(-0.00573994 0 0.23088)
(-0.00538179 0 0.199603)
(-0.00528469 0 0.17116)
(-0.00533029 0 0.145198)
(-0.00545587 0 0.121308)
(-0.00562859 0 0.0991886)
(-0.00582244 0 0.0786216)
(-0.00593868 0 0.0593177)
(-0.00566129 0 0.0408973)
(-0.00476462 0 0.0230933)
(-0.0952441 0 0.122252)
(-0.101666 0 0.134624)
(-0.108399 0 0.148559)
(-0.115248 0 0.164204)
(-0.121826 0 0.181585)
(-0.127522 0 0.201763)
(-0.132278 0 0.230269)
(-0.13668 0 0.274093)
(-0.133455 0 0.308083)
(-0.101404 0 0.228326)
(-0.0341559 0 -0.0942731)
(0.081006 0 -0.598306)
(0.0852512 0 -0.863319)
(-0.00731205 0 -1.02574)
(-0.0301941 0 -1.10261)
(-0.0215678 0 -1.12371)
(-0.00764645 0 -1.11319)
(-0.000568389 0 -1.10182)
(0.00125919 0 -1.09774)
(0.00173813 0 -1.09677)
(0.00205776 0 -1.09617)
(0.00236441 0 -1.09552)
(0.00275849 0 -1.0945)
(0.0031048 0 -1.09284)
(0.00259055 0 -1.09163)
(0.000559082 0 -1.09497)
(-0.00254676 0 -1.10518)
(-0.00640069 0 -1.11242)
(-0.00935469 0 -1.09563)
(-0.0126531 0 -1.04225)
(-0.0235418 0 -0.966334)
(-0.0517821 0 -0.752588)
(-0.105321 0 -0.373105)
(-0.11008 0 -0.0538635)
(-0.107906 0 0.158216)
(-0.101345 0 0.274739)
(-0.0930196 0 0.317508)
(-0.0852811 0 0.314932)
(-0.0791321 0 0.290627)
(-0.0745529 0 0.258997)
(-0.0712073 0 0.226892)
(-0.0687601 0 0.196779)
(-0.0669625 0 0.169137)
(-0.065652 0 0.143768)
(-0.0647298 0 0.120361)
(-0.064134 0 0.0986435)
(-0.0637905 0 0.0782914)
(-0.063525 0 0.058737)
(-0.0629241 0 0.0394668)
(-0.0619217 0 0.021426)
(-0.0873393 0 0.126098)
(-0.0928011 0 0.138644)
(-0.0984404 0 0.15267)
(-0.104053 0 0.168201)
(-0.109268 0 0.185152)
(-0.113593 0 0.204732)
(-0.117081 0 0.232611)
(-0.120244 0 0.27349)
(-0.115665 0 0.295643)
(-0.0810605 0 0.191766)
(-0.0199424 0 -0.146568)
(0.0616652 0 -0.628882)
(0.125719 0 -0.893195)
(0.0363735 0 -0.973903)
(0.00398331 0 -1.08976)
(-0.00360878 0 -1.12911)
(-0.00160537 0 -1.11902)
(0.00154006 0 -1.10432)
(0.00240418 0 -1.09836)
(0.00248631 0 -1.09696)
(0.00256636 0 -1.0964)
(0.00293104 0 -1.09596)
(0.00411387 0 -1.0952)
(0.00648845 0 -1.09321)
(0.0082828 0 -1.08998)
(0.00568356 0 -1.08965)
(-0.00396216 0 -1.09651)
(-0.0168558 0 -1.10403)
(-0.0172524 0 -1.09461)
(-0.0121666 0 -1.04183)
(0.0141177 0 -0.957103)
(-0.0733504 0 -0.664846)
(-0.148319 0 -0.332381)
(-0.168116 0 -0.0401972)
(-0.173402 0 0.155665)
(-0.170164 0 0.262593)
(-0.162231 0 0.301863)
(-0.153343 0 0.299836)
(-0.145359 0 0.277774)
(-0.138813 0 0.248614)
(-0.13365 0 0.218635)
(-0.129636 0 0.190223)
(-0.126538 0 0.16395)
(-0.124178 0 0.139743)
(-0.122421 0 0.11737)
(-0.121144 0 0.0965237)
(-0.120194 0 0.0766832)
(-0.119316 0 0.0569816)
(-0.118056 0 0.0364185)
(-0.116816 0 0.0139452)
(-0.079324 0 0.129349)
(-0.0838734 0 0.142008)
(-0.088507 0 0.156048)
(-0.0930418 0 0.171397)
(-0.0971738 0 0.187921)
(-0.100608 0 0.207027)
(-0.103555 0 0.234404)
(-0.106622 0 0.272407)
(-0.103661 0 0.283865)
(-0.0740839 0 0.159917)
(-0.0251622 0 -0.188658)
(0.0306412 0 -0.65739)
(0.118844 0 -0.949318)
(0.0834439 0 -0.918493)
(0.0486935 0 -1.06045)
(0.0289308 0 -1.11924)
(0.011016 0 -1.11639)
(0.00380391 0 -1.10372)
(0.00291085 0 -1.09838)
(0.00305107 0 -1.09699)
(0.0030703 0 -1.09662)
(0.00358045 0 -1.09701)
(0.00597447 0 -1.09786)
(0.0117013 0 -1.09697)
(0.0181289 0 -1.09114)
(0.0175421 0 -1.08313)
(0.00688113 0 -1.08389)
(-0.00131272 0 -1.09624)
(-0.000667064 0 -1.10112)
(-0.000350369 0 -1.06538)
(-0.00934349 0 -0.863465)
(-0.115114 0 -0.560707)
(-0.184573 0 -0.264985)
(-0.218667 0 -0.0111974)
(-0.232174 0 0.161756)
(-0.232235 0 0.253943)
(-0.225027 0 0.286298)
(-0.215611 0 0.282825)
(-0.206507 0 0.262063)
(-0.198671 0 0.235111)
(-0.192261 0 0.207371)
(-0.187134 0 0.180944)
(-0.183082 0 0.156384)
(-0.179907 0 0.133658)
(-0.177425 0 0.112519)
(-0.175439 0 0.0925368)
(-0.173748 0 0.0730453)
(-0.172161 0 0.0532343)
(-0.170564 0 0.0325034)
(-0.169814 0 0.0109375)
(-0.0712377 0 0.132036)
(-0.0749201 0 0.144757)
(-0.0786279 0 0.158768)
(-0.0822149 0 0.173935)
(-0.0854733 0 0.190127)
(-0.0883493 0 0.209003)
(-0.0912453 0 0.236261)
(-0.0949262 0 0.272128)
(-0.0954943 0 0.275395)
(-0.0777962 0 0.138369)
(-0.0487834 0 -0.218642)
(-0.0236849 0 -0.680906)
(-0.0659999 0 -0.975903)
(0.0279515 0 -0.910508)
(0.0571884 0 -1.04944)
(0.0458698 0 -1.10219)
(0.0203691 0 -1.10427)
(0.00446021 0 -1.09864)
(0.00224731 0 -1.09794)
(0.00330702 0 -1.09715)
(0.00343829 0 -1.09684)
(0.00371179 0 -1.0985)
(0.00612889 0 -1.10267)
(0.0130133 0 -1.10558)
(0.0220944 0 -1.0982)
(0.0226192 0 -1.07928)
(0.0127725 0 -1.07312)
(-0.000403021 0 -1.08741)
(-0.0177944 0 -1.09458)
(-0.0610002 0 -1.06892)
(-0.118211 0 -0.763509)
(-0.184314 0 -0.458383)
(-0.240911 0 -0.185325)
(-0.276211 0 0.0299522)
(-0.29077 0 0.173839)
(-0.290663 0 0.247635)
(-0.282967 0 0.270903)
(-0.272782 0 0.264699)
(-0.262766 0 0.244566)
(-0.254007 0 0.219576)
(-0.246749 0 0.194091)
(-0.240891 0 0.169797)
(-0.236229 0 0.147121)
(-0.232532 0 0.125965)
(-0.22957 0 0.105989)
(-0.227132 0 0.0867241)
(-0.225059 0 0.0676703)
(-0.223249 0 0.048431)
(-0.221753 0 0.0289067)
(-0.221575 0 0.00948432)
(-0.0631106 0 0.134181)
(-0.0659652 0 0.146926)
(-0.0688051 0 0.160891)
(-0.0715296 0 0.175914)
(-0.0740316 0 0.191918)
(-0.0764763 0 0.210847)
(-0.0794306 0 0.238478)
(-0.0837568 0 0.273457)
(-0.087892 0 0.272246)
(-0.0836487 0 0.130582)
(-0.0782348 0 -0.226773)
(-0.120833 0 -0.670156)
(-0.258147 0 -0.966177)
(-0.139279 0 -0.953118)
(0.0126432 0 -1.08157)
(0.024802 0 -1.09582)
(0.0136463 0 -1.09175)
(0.00224993 0 -1.09263)
(0.000912248 0 -1.09831)
(0.00332319 0 -1.09798)
(0.00338433 0 -1.0968)
(0.00251344 0 -1.09912)
(0.00208205 0 -1.10629)
(0.00351951 0 -1.11235)
(0.00657811 0 -1.10061)
(-0.00319109 0 -1.06995)
(-0.019789 0 -1.06184)
(-0.0289677 0 -1.07049)
(-0.0413141 0 -1.06542)
(-0.094344 0 -0.945531)
(-0.19014 0 -0.679725)
(-0.256271 0 -0.371837)
(-0.307187 0 -0.115936)
(-0.338157 0 0.0684324)
(-0.348829 0 0.184218)
(-0.34597 0 0.23978)
(-0.336517 0 0.254038)
(-0.325113 0 0.2451)
(-0.314187 0 0.225591)
(-0.304715 0 0.202627)
(-0.29689 0 0.179536)
(-0.290581 0 0.157549)
(-0.285546 0 0.136894)
(-0.28151 0 0.117365)
(-0.278225 0 0.0985973)
(-0.275517 0 0.0802629)
(-0.273285 0 0.0621414)
(-0.271444 0 0.0440748)
(-0.269992 0 0.0260538)
(-0.269789 0 0.00847666)
(-0.0549679 0 0.135804)
(-0.057022 0 0.148542)
(-0.0590278 0 0.162454)
(-0.0609278 0 0.177382)
(-0.0626962 0 0.193335)
(-0.0646336 0 0.212548)
(-0.0673407 0 0.240918)
(-0.0715225 0 0.276102)
(-0.076751 0 0.273668)
(-0.0780069 0 0.133391)
(-0.0833228 0 -0.208811)
(-0.136884 0 -0.619501)
(-0.120393 0 -0.999342)
(0.0558097 0 -1.07211)
(0.0612193 0 -1.14392)
(0.000491688 0 -1.09387)
(0.00224014 0 -1.08481)
(0.000325179 0 -1.08946)
(-0.00151745 0 -1.09942)
(0.00221231 0 -1.09967)
(0.00301289 0 -1.0967)
(0.00216062 0 -1.09808)
(0.000992496 0 -1.10419)
(-0.00328711 0 -1.10657)
(-0.0177034 0 -1.0864)
(-0.0320054 0 -1.05394)
(-0.0386275 0 -1.04805)
(-0.0705566 0 -1.06268)
(-0.0688675 0 -1.04072)
(-0.141438 0 -0.831333)
(-0.240929 0 -0.57608)
(-0.318429 0 -0.290813)
(-0.367944 0 -0.0590417)
(-0.394293 0 0.0967026)
(-0.400793 0 0.187591)
(-0.395151 0 0.227435)
(-0.384026 0 0.234371)
(-0.371639 0 0.223671)
(-0.360117 0 0.205318)
(-0.350242 0 0.184696)
(-0.342105 0 0.164203)
(-0.335507 0 0.14463)
(-0.330155 0 0.12601)
(-0.325758 0 0.108085)
(-0.322094 0 0.0905853)
(-0.319038 0 0.073362)
(-0.316519 0 0.0563388)
(-0.314483 0 0.03946)
(-0.312942 0 0.0229353)
(-0.3125 0 0.00732328)
(-0.0468306 0 0.136917)
(-0.0481007 0 0.149621)
(-0.0492848 0 0.163474)
(-0.0503596 0 0.17834)
(-0.0513472 0 0.194332)
(-0.0525813 0 0.213929)
(-0.0545403 0 0.243087)
(-0.0575011 0 0.278767)
(-0.0613908 0 0.276297)
(-0.0614029 0 0.138904)
(-0.0754141 0 -0.183434)
(-0.159568 0 -0.601898)
(-0.0103367 0 -1.08086)
(0.120265 0 -1.11383)
(0.0775384 0 -1.11528)
(-0.0679474 0 -1.06779)
(0.00473108 0 -1.08904)
(0.00466 0 -1.08668)
(-0.00645048 0 -1.09624)
(-0.00250793 0 -1.09882)
(0.0038407 0 -1.09514)
(0.0102629 0 -1.09505)
(0.0199189 0 -1.09748)
(0.0216673 0 -1.0946)
(0.0081716 0 -1.07372)
(-0.00970115 0 -1.042)
(-0.109962 0 -1.01739)
(-0.0345247 0 -1.07441)
(-0.105136 0 -0.963297)
(-0.199183 0 -0.716266)
(-0.296964 0 -0.455029)
(-0.374453 0 -0.20525)
(-0.420301 0 -0.00898398)
(-0.441304 0 0.116585)
(-0.444 0 0.184657)
(-0.436248 0 0.211214)
(-0.424186 0 0.212584)
(-0.411499 0 0.201135)
(-0.399939 0 0.184435)
(-0.390072 0 0.166335)
(-0.381879 0 0.148418)
(-0.375105 0 0.131092)
(-0.369447 0 0.114269)
(-0.364655 0 0.0977551)
(-0.360579 0 0.0814471)
(-0.357146 0 0.0653433)
(-0.354318 0 0.0494825)
(-0.352109 0 0.0340306)
(-0.350592 0 0.019451)
(-0.350129 0 0.00617692)
(-0.0387192 0 0.137529)
(-0.0392136 0 0.150168)
(-0.0395752 0 0.163947)
(-0.039803 0 0.178755)
(-0.0399363 0 0.194808)
(-0.0402663 0 0.21474)
(-0.0410811 0 0.244436)
(-0.042128 0 0.280235)
(-0.0435712 0 0.277503)
(-0.0415386 0 0.143302)
(-0.0552426 0 -0.164146)
(-0.0221913 0 -0.616106)
(-0.0295093 0 -1.13427)
(-0.170506 0 -1.12642)
(-0.0633581 0 -1.04317)
(-0.0214409 0 -1.00896)
(0.0158452 0 -1.12767)
(0.00854419 0 -1.08383)
(-0.00587063 0 -1.09101)
(-0.00682691 0 -1.09656)
(0.0123024 0 -1.09669)
(0.0398438 0 -1.10038)
(0.0631558 0 -1.10572)
(0.0646919 0 -1.09783)
(0.0468059 0 -1.06833)
(0.0588795 0 -0.936746)
(0.0447805 0 -1.01126)
(-0.0191514 0 -1.00986)
(-0.141674 0 -0.84434)
(-0.2566 0 -0.588337)
(-0.354589 0 -0.337011)
(-0.426122 0 -0.122906)
(-0.465174 0 0.0344256)
(-0.480059 0 0.129912)
(-0.479082 0 0.177503)
(-0.46973 0 0.193035)
(-0.457352 0 0.1903)
(-0.444934 0 0.178795)
(-0.43378 0 0.163912)
(-0.424222 0 0.14818)
(-0.416143 0 0.132501)
(-0.409278 0 0.117025)
(-0.403381 0 0.101675)
(-0.398296 0 0.0864156)
(-0.393958 0 0.0713199)
(-0.390348 0 0.0565167)
(-0.387467 0 0.0421869)
(-0.385348 0 0.0286588)
(-0.384021 0 0.0163394)
(-0.383665 0 0.00525995)
(-0.0306561 0 0.137646)
(-0.030379 0 0.150186)
(-0.0299127 0 0.163861)
(-0.0292675 0 0.178589)
(-0.0284824 0 0.194669)
(-0.0277687 0 0.214787)
(-0.0272302 0 0.244632)
(-0.0261746 0 0.280056)
(-0.0250173 0 0.27688)
(-0.0214957 0 0.145548)
(-0.0360593 0 -0.159965)
(-0.00931019 0 -0.641303)
(0.0399263 0 -1.0715)
(0.00550353 0 -1.1193)
(-0.106999 0 -1.0543)
(-0.0713754 0 -1.08337)
(-0.0151287 0 -1.16788)
(0.0274037 0 -1.07817)
(0.0265827 0 -1.08907)
(0.0258735 0 -1.10967)
(0.0401261 0 -1.1213)
(0.0539211 0 -1.12598)
(0.0544508 0 -1.12509)
(0.0522865 0 -1.09409)
(0.0481082 0 -1.0441)
(0.0490706 0 -0.965223)
(0.0295511 0 -0.968339)
(-0.0639668 0 -0.889812)
(-0.198672 0 -0.695678)
(-0.317894 0 -0.451989)
(-0.410234 0 -0.228553)
(-0.471752 0 -0.0521424)
(-0.502469 0 0.0682368)
(-0.511387 0 0.136526)
(-0.507246 0 0.167029)
(-0.496848 0 0.174068)
(-0.484614 0 0.168615)
(-0.472789 0 0.157531)
(-0.462234 0 0.144367)
(-0.453076 0 0.130606)
(-0.445153 0 0.116687)
(-0.438258 0 0.102677)
(-0.432254 0 0.088625)
(-0.427085 0 0.0746718)
(-0.422749 0 0.0610124)
(-0.419252 0 0.0478532)
(-0.41659 0 0.0354364)
(-0.414748 0 0.0240452)
(-0.413648 0 0.013828)
(-0.413355 0 0.00452485)
(-0.0226663 0 0.13727)
(-0.0216211 0 0.149671)
(-0.0203227 0 0.163205)
(-0.0187836 0 0.177812)
(-0.0170379 0 0.193854)
(-0.0152113 0 0.213982)
(-0.0132538 0 0.243594)
(-0.0102124 0 0.278306)
(-0.00690924 0 0.274978)
(-0.0035801 0 0.147163)
(-0.0208221 0 -0.162119)
(-0.002359 0 -0.655024)
(-0.0735334 0 -1.0463)
(-0.201848 0 -1.06365)
(-0.174308 0 -1.05746)
(-0.114504 0 -1.1364)
(-0.0316792 0 -1.18433)
(0.0764264 0 -1.11964)
(0.17503 0 -1.09491)
(0.214686 0 -1.12059)
(0.206843 0 -1.14648)
(0.172214 0 -1.14373)
(0.127878 0 -1.11786)
(0.0860692 0 -1.07917)
(0.0514131 0 -1.03248)
(0.0230078 0 -0.962797)
(-0.0271701 0 -0.889228)
(-0.13793 0 -0.75138)
(-0.271266 0 -0.54304)
(-0.382852 0 -0.321935)
(-0.463183 0 -0.13415)
(-0.51179 0 0.00392349)
(-0.533192 0 0.0911531)
(-0.536474 0 0.136544)
(-0.529774 0 0.153809)
(-0.518834 0 0.154895)
(-0.507029 0 0.147952)
(-0.495895 0 0.137568)
(-0.485923 0 0.125865)
(-0.477114 0 0.113617)
(-0.469338 0 0.101056)
(-0.462494 0 0.0883169)
(-0.456554 0 0.0756047)
(-0.451529 0 0.0631651)
(-0.447428 0 0.0512214)
(-0.444238 0 0.0399643)
(-0.441908 0 0.0295749)
(-0.440354 0 0.0201809)
(-0.439435 0 0.0117253)
(-0.439151 0 0.00387673)
(-0.0147768 0 0.136405)
(-0.0129685 0 0.148625)
(-0.0108372 0 0.16197)
(-0.00839113 0 0.176407)
(-0.00566235 0 0.192334)
(-0.00270413 0 0.212308)
(0.000658349 0 0.241395)
(0.00541361 0 0.275266)
(0.00999728 0 0.272571)
(0.0121793 0 0.15052)
(-0.00939276 0 -0.158087)
(-0.00877622 0 -0.641126)
(-0.104957 0 -0.962561)
(-0.244963 0 -1.04199)
(-0.202237 0 -1.08636)
(-0.137411 0 -1.1923)
(-0.0435614 0 -1.25086)
(0.0759673 0 -1.21868)
(0.198453 0 -1.16925)
(0.270414 0 -1.13014)
(0.275352 0 -1.10141)
(0.233387 0 -1.07681)
(0.169486 0 -1.05535)
(0.102784 0 -1.03101)
(0.0422816 0 -0.986815)
(-0.0183807 0 -0.905831)
(-0.103641 0 -0.783774)
(-0.225919 0 -0.608458)
(-0.35 0 -0.401717)
(-0.446913 0 -0.209308)
(-0.511433 0 -0.0585942)
(-0.546215 0 0.0439455)
(-0.558383 0 0.103296)
(-0.556638 0 0.130774)
(-0.547955 0 0.138569)
(-0.536788 0 0.135901)
(-0.52547 0 0.128357)
(-0.514933 0 0.118731)
(-0.505405 0 0.108168)
(-0.496858 0 0.0970774)
(-0.489247 0 0.0856843)
(-0.482579 0 0.0742491)
(-0.476886 0 0.0630634)
(-0.472187 0 0.0523693)
(-0.468461 0 0.042325)
(-0.465644 0 0.0330316)
(-0.463635 0 0.0245524)
(-0.462311 0 0.016882)
(-0.461522 0 0.00988784)
(-0.461236 0 0.00328848)
(-0.00701668 0 0.135057)
(-0.0044533 0 0.147049)
(-0.00149206 0 0.160154)
(0.00186723 0 0.174366)
(0.00559208 0 0.1901)
(0.00968352 0 0.209787)
(0.0144171 0 0.238168)
(0.0207404 0 0.271251)
(0.0265074 0 0.270242)
(0.0280003 0 0.155889)
(0.00366841 0 -0.144285)
(-0.0108818 0 -0.608271)
(-0.108631 0 -0.873228)
(-0.236902 0 -1.01961)
(-0.204593 0 -1.11895)
(-0.143679 0 -1.24878)
(-0.052045 0 -1.32145)
(0.0573474 0 -1.30367)
(0.164648 0 -1.23913)
(0.235835 0 -1.15814)
(0.250209 0 -1.08614)
(0.217098 0 -1.03202)
(0.155147 0 -0.995057)
(0.0820763 0 -0.965807)
(0.00489405 0 -0.915011)
(-0.083749 0 -0.814237)
(-0.194392 0 -0.659687)
(-0.318333 0 -0.469643)
(-0.427456 0 -0.278654)
(-0.50589 0 -0.118921)
(-0.553183 0 -0.00370089)
(-0.574733 0 0.0682328)
(-0.578705 0 0.105727)
(-0.572872 0 0.120315)
(-0.562756 0 0.121964)
(-0.551504 0 0.117234)
(-0.540562 0 0.109625)
(-0.53042 0 0.100687)
(-0.521179 0 0.0910247)
(-0.512855 0 0.0809529)
(-0.50549 0 0.0707796)
(-0.499144 0 0.060835)
(-0.493849 0 0.0513858)
(-0.489582 0 0.0425777)
(-0.486271 0 0.0344551)
(-0.483806 0 0.0270117)
(-0.482054 0 0.0202152)
(-0.480894 0 0.0140008)
(-0.480196 0 0.00824649)
(-0.479902 0 0.00275079)
(0.000582982 0 0.133233)
(0.00389038 0 0.144945)
(0.0076754 0 0.157756)
(0.0119499 0 0.171685)
(0.0166829 0 0.187149)
(0.0219212 0 0.206438)
(0.0280299 0 0.233991)
(0.0359528 0 0.266372)
(0.0433028 0 0.267743)
(0.0453555 0 0.162086)
(0.0270594 0 -0.125999)
(-0.00368472 0 -0.562715)
(-0.112576 0 -0.802431)
(-0.212379 0 -0.990518)
(-0.197321 0 -1.14225)
(-0.145485 0 -1.29923)
(-0.0650647 0 -1.38529)
(0.0274266 0 -1.37264)
(0.112307 0 -1.29306)
(0.166887 0 -1.18219)
(0.177961 0 -1.07714)
(0.15104 0 -0.995817)
(0.096579 0 -0.939024)
(0.0244432 0 -0.894363)
(-0.0644867 0 -0.824936)
(-0.172706 0 -0.700056)
(-0.293644 0 -0.528315)
(-0.408679 0 -0.343153)
(-0.498531 0 -0.177953)
(-0.556948 0 -0.0520489)
(-0.587491 0 0.0313533)
(-0.597409 0 0.0786318)
(-0.594725 0 0.10021)
(-0.585832 0 0.106331)
(-0.574724 0 0.104438)
(-0.563397 0 0.0987957)
(-0.552646 0 0.0914108)
(-0.542712 0 0.0831142)
(-0.533676 0 0.0743152)
(-0.525613 0 0.0653649)
(-0.518606 0 0.0566229)
(-0.512702 0 0.0483805)
(-0.507879 0 0.0407877)
(-0.504057 0 0.0338572)
(-0.501118 0 0.0275274)
(-0.498927 0 0.0217199)
(-0.497355 0 0.0163632)
(-0.496302 0 0.0113943)
(-0.495664 0 0.00673283)
(-0.495349 0 0.00224606)
(0.00799001 0 0.130942)
(0.0120271 0 0.142323)
(0.0166262 0 0.154783)
(0.0218139 0 0.168363)
(0.0275678 0 0.183475)
(0.0339761 0 0.202253)
(0.0414836 0 0.228845)
(0.0510346 0 0.260474)
(0.0602185 0 0.264356)
(0.0626312 0 0.16767)
(0.0454721 0 -0.107128)
(-0.00416066 0 -0.508616)
(-0.113334 0 -0.745257)
(-0.18561 0 -0.958812)
(-0.187837 0 -1.15629)
(-0.148336 0 -1.34063)
(-0.0849394 0 -1.4387)
(-0.0135044 0 -1.42597)
(0.0480708 0 -1.33298)
(0.0838271 0 -1.19732)
(0.0863257 0 -1.06563)
(0.0598698 0 -0.962036)
(0.009897 0 -0.885013)
(-0.0627583 0 -0.817886)
(-0.16099 0 -0.721754)
(-0.277629 0 -0.576347)
(-0.394319 0 -0.402885)
(-0.49194 0 -0.236488)
(-0.559888 0 -0.102012)
(-0.598539 0 -0.00803335)
(-0.61416 0 0.0488759)
(-0.61462 0 0.077755)
(-0.60693 0 0.0887037)
(-0.595873 0 0.089839)
(-0.584048 0 0.0862148)
(-0.572578 0 0.0803691)
(-0.561862 0 0.0734039)
(-0.552043 0 0.0658435)
(-0.543225 0 0.0580839)
(-0.535508 0 0.050509)
(-0.528951 0 0.0434313)
(-0.523535 0 0.0370134)
(-0.519171 0 0.0312574)
(-0.515732 0 0.0260665)
(-0.513076 0 0.0213208)
(-0.511073 0 0.0169224)
(-0.509612 0 0.012809)
(-0.508629 0 0.00894593)
(-0.508034 0 0.00529149)
(-0.507684 0 0.00176063)
(0.0151714 0 0.128197)
(0.0199196 0 0.139191)
(0.0253182 0 0.151239)
(0.0314112 0 0.164398)
(0.0381933 0 0.179067)
(0.0457873 0 0.197211)
(0.0546956 0 0.222693)
(0.0658243 0 0.253423)
(0.0768136 0 0.259819)
(0.0794959 0 0.172731)
(0.0613431 0 -0.0838857)
(-0.000498781 0 -0.450695)
(-0.103738 0 -0.695783)
(-0.165726 0 -0.928098)
(-0.1786 0 -1.16231)
(-0.153478 0 -1.37101)
(-0.110625 0 -1.47868)
(-0.0633582 0 -1.4634)
(-0.0256744 0 -1.35833)
(-0.00797421 0 -1.20329)
(-0.0149946 0 -1.05036)
(-0.0441785 0 -0.928144)
(-0.0950418 0 -0.829994)
(-0.172213 0 -0.73544)
(-0.275224 0 -0.612519)
(-0.38798 0 -0.45693)
(-0.488946 0 -0.294832)
(-0.563878 0 -0.154747)
(-0.609425 0 -0.0511535)
(-0.630126 0 0.0153581)
(-0.633481 0 0.0519979)
(-0.626815 0 0.0683511)
(-0.6156 0 0.0729417)
(-0.603047 0 0.0715663)
(-0.590653 0 0.0673643)
(-0.578983 0 0.0617728)
(-0.568244 0 0.0554658)
(-0.558561 0 0.048898)
(-0.550044 0 0.0424804)
(-0.542756 0 0.0365466)
(-0.536682 0 0.0312755)
(-0.531727 0 0.0266719)
(-0.52775 0 0.0226215)
(-0.524602 0 0.0189744)
(-0.522145 0 0.015606)
(-0.520265 0 0.0124382)
(-0.518877 0 0.00943768)
(-0.517948 0 0.00659726)
(-0.517393 0 0.0038998)
(-0.517001 0 0.00129095)
(0.0220929 0 0.12501)
(0.0275283 0 0.135561)
(0.0337053 0 0.147131)
(0.0406875 0 0.159791)
(0.048495 0 0.173916)
(0.057279 0 0.191302)
(0.0675787 0 0.215536)
(0.0802615 0 0.24526)
(0.0931104 0 0.254319)
(0.0968419 0 0.177905)
(0.0777589 0 -0.055637)
(0.0103322 0 -0.392265)
(-0.0868305 0 -0.648511)
(-0.148155 0 -0.898038)
(-0.169171 0 -1.16063)
(-0.160396 0 -1.38886)
(-0.140258 0 -1.50332)
(-0.118344 0 -1.48474)
(-0.104944 0 -1.36896)
(-0.105412 0 -1.19918)
(-0.122281 0 -1.02968)
(-0.157127 0 -0.890926)
(-0.213419 0 -0.770425)
(-0.295089 0 -0.648644)
(-0.394793 0 -0.507267)
(-0.492745 0 -0.353559)
(-0.570806 0 -0.211433)
(-0.621323 0 -0.0996009)
(-0.646152 0 -0.023442)
(-0.651917 0 0.0215942)
(-0.645989 0 0.0441733)
(-0.634344 0 0.052923)
(-0.620778 0 0.0542692)
(-0.607192 0 0.051992)
(-0.594344 0 0.0479397)
(-0.582504 0 0.0429855)
(-0.571811 0 0.0376694)
(-0.562373 0 0.0324428)
(-0.554256 0 0.0276674)
(-0.547444 0 0.023545)
(-0.541834 0 0.0200922)
(-0.537274 0 0.0171898)
(-0.5336 0 0.0146686)
(-0.530668 0 0.0123809)
(-0.528356 0 0.0102313)
(-0.526567 0 0.00817596)
(-0.52524 0 0.00620802)
(-0.524364 0 0.00433704)
(-0.523852 0 0.00255831)
(-0.523414 0 0.000839007)
(0.0287194 0 0.1214)
(0.0348114 0 0.131452)
(0.0417382 0 0.142474)
(0.0495845 0 0.15455)
(0.0584025 0 0.168028)
(0.0683752 0 0.184527)
(0.0800652 0 0.207397)
(0.0943542 0 0.236008)
(0.10921 0 0.247812)
(0.114789 0 0.182963)
(0.0948895 0 -0.0249446)
(0.0266281 0 -0.336589)
(-0.0653031 0 -0.6002)
(-0.128561 0 -0.865697)
(-0.157899 0 -1.15055)
(-0.167251 0 -1.39295)
(-0.171001 0 -1.51159)
(-0.174748 0 -1.48925)
(-0.185487 0 -1.3654)
(-0.204808 0 -1.18449)
(-0.233393 0 -1.00197)
(-0.276342 0 -0.847553)
(-0.338447 0 -0.705959)
(-0.419241 0 -0.563945)
(-0.506552 0 -0.415904)
(-0.582401 0 -0.273839)
(-0.635006 0 -0.155263)
(-0.662616 0 -0.0694274)
(-0.670138 0 -0.015138)
(-0.664599 0 0.0147627)
(-0.652253 0 0.0286844)
(-0.637396 0 0.0335129)
(-0.622348 0 0.03367)
(-0.608086 0 0.0314891)
(-0.594954 0 0.0281082)
(-0.583096 0 0.0241903)
(-0.572613 0 0.0202503)
(-0.563565 0 0.0166944)
(-0.55593 0 0.0137596)
(-0.549601 0 0.0114855)
(-0.544411 0 0.0097583)
(-0.540181 0 0.00839829)
(-0.536749 0 0.007239)
(-0.533989 0 0.00616796)
(-0.531798 0 0.00512954)
(-0.530092 0 0.00410974)
(-0.528825 0 0.00311873)
(-0.528006 0 0.00217296)
(-0.52754 0 0.00127418)
(-0.527058 0 0.000407367)
(0.0350155 0 0.117389)
(0.0417261 0 0.126885)
(0.0493649 0 0.13729)
(0.0580401 0 0.148692)
(0.0678394 0 0.161414)
(0.0789889 0 0.176892)
(0.0920695 0 0.198264)
(0.108054 0 0.225572)
(0.125133 0 0.239956)
(0.133571 0 0.187208)
(0.114589 0 0.00530051)
(0.0495458 0 -0.283797)
(-0.0384816 0 -0.55116)
(-0.103331 0 -0.829846)
(-0.142452 0 -1.13073)
(-0.17185 0 -1.38249)
(-0.199668 0 -1.50325)
(-0.22848 0 -1.47712)
(-0.262685 0 -1.34731)
(-0.301518 0 -1.15883)
(-0.343479 0 -0.966239)
(-0.394435 0 -0.798401)
(-0.458488 0 -0.641198)
(-0.53104 0 -0.489378)
(-0.59932 0 -0.345346)
(-0.650468 0 -0.220446)
(-0.679156 0 -0.124751)
(-0.68774 0 -0.0601413)
(-0.682297 0 -0.0215167)
(-0.669082 0 -0.00108156)
(-0.65276 0 0.00831068)
(-0.636052 0 0.011678)
(-0.620186 0 0.0119032)
(-0.605599 0 0.0104665)
(-0.592445 0 0.00820564)
(-0.580811 0 0.00572996)
(-0.570745 0 0.00351314)
(-0.56222 0 0.00184729)
(-0.555118 0 0.000811052)
(-0.549259 0 0.000308857)
(-0.544446 0 0.000159297)
(-0.540499 0 0.000181969)
(-0.537277 0 0.000247963)
(-0.534674 0 0.000289607)
(-0.532599 0 0.000285913)
(-0.530979 0 0.000243187)
(-0.529777 0 0.000180012)
(-0.529018 0 0.000114653)
(-0.5286 0 5.34237e-05)
(-0.528075 0 -2.30622e-06)
(0.040947 0 0.113005)
(0.04823 0 0.12189)
(0.0565319 0 0.131607)
(0.0659874 0 0.142245)
(0.0767191 0 0.154094)
(0.0890106 0 0.168407)
(0.10346 0 0.188101)
(0.1212 0 0.213814)
(0.140738 0 0.230268)
(0.152991 0 0.189532)
(0.137896 0 0.0326146)
(0.0792905 0 -0.23345)
(-0.00522646 0 -0.501964)
(-0.0720455 0 -0.790359)
(-0.122914 0 -1.1002)
(-0.172269 0 -1.35736)
(-0.223224 0 -1.47879)
(-0.275444 0 -1.44918)
(-0.33145 0 -1.31517)
(-0.389076 0 -1.12227)
(-0.44381 0 -0.923304)
(-0.499905 0 -0.746956)
(-0.56044 0 -0.582391)
(-0.619168 0 -0.430836)
(-0.666087 0 -0.297945)
(-0.694271 0 -0.191608)
(-0.703414 0 -0.115393)
(-0.698052 0 -0.0663665)
(-0.684065 0 -0.0377569)
(-0.666332 0 -0.0224051)
(-0.647942 0 -0.014772)
(-0.630405 0 -0.0113871)
(-0.614288 0 -0.0103434)
(-0.59977 0 -0.0105623)
(-0.586928 0 -0.0113003)
(-0.575796 0 -0.0119889)
(-0.566339 0 -0.0122563)
(-0.558432 0 -0.0119626)
(-0.551883 0 -0.0111679)
(-0.546475 0 -0.0100438)
(-0.54201 0 -0.00877815)
(-0.538327 0 -0.00751411)
(-0.535307 0 -0.00633169)
(-0.532859 0 -0.00525869)
(-0.530905 0 -0.00429139)
(-0.529376 0 -0.00341157)
(-0.528243 0 -0.0025972)
(-0.527547 0 -0.00183005)
(-0.527179 0 -0.00109952)
(-0.526613 0 -0.000388815)
(0.046481 0 0.108279)
(0.0542821 0 0.116501)
(0.0631858 0 0.125463)
(0.0733557 0 0.135246)
(0.0849465 0 0.146103)
(0.0983081 0 0.1591)
(0.114055 0 0.176904)
(0.133509 0 0.200639)
(0.155638 0 0.21832)
(0.172311 0 0.188635)
(0.16401 0 0.0551077)
(0.113919 0 -0.186401)
(0.0338721 0 -0.452481)
(-0.0360524 0 -0.746283)
(-0.0991677 0 -1.05893)
(-0.166949 0 -1.31819)
(-0.239115 0 -1.43946)
(-0.312063 0 -1.40707)
(-0.386854 0 -1.27047)
(-0.460386 0 -1.07633)
(-0.524765 0 -0.875714)
(-0.581926 0 -0.697416)
(-0.634658 0 -0.533917)
(-0.677554 0 -0.390159)
(-0.704846 0 -0.271768)
(-0.714697 0 -0.182516)
(-0.709951 0 -0.121278)
(-0.695774 0 -0.0826104)
(-0.677085 0 -0.0596385)
(-0.657298 0 -0.0464331)
(-0.638245 0 -0.0389259)
(-0.62068 0 -0.034706)
(-0.604843 0 -0.032376)
(-0.590818 0 -0.0310078)
(-0.578633 0 -0.0299066)
(-0.56825 0 -0.0285949)
(-0.559542 0 -0.0268457)
(-0.552308 0 -0.0246613)
(-0.546315 0 -0.0221876)
(-0.541345 0 -0.0196111)
(-0.537216 0 -0.0170852)
(-0.533794 0 -0.0147014)
(-0.530978 0 -0.0124945)
(-0.528694 0 -0.0104626)
(-0.526869 0 -0.00858614)
(-0.525437 0 -0.0068404)
(-0.524378 0 -0.00520218)
(-0.523747 0 -0.00365379)
(-0.52343 0 -0.00218046)
(-0.522827 0 -0.000750877)
(0.0515874 0 0.103247)
(0.0598437 0 0.110758)
(0.0692754 0 0.118905)
(0.0800749 0 0.127748)
(0.0924239 0 0.137499)
(0.106738 0 0.149037)
(0.123644 0 0.164732)
(0.144626 0 0.18607)
(0.169235 0 0.203945)
(0.19045 0 0.183535)
(0.190714 0 0.0714761)
(0.150469 0 -0.144281)
(0.0768019 0 -0.403522)
(0.00385211 0 -0.697438)
(-0.0704643 0 -1.00779)
(-0.154882 0 -1.26622)
(-0.245729 0 -1.3871)
(-0.335926 0 -1.35318)
(-0.425259 0 -1.21583)
(-0.510138 0 -1.02372)
(-0.579845 0 -0.826533)
(-0.634461 0 -0.652778)
(-0.677552 0 -0.497085)
(-0.705907 0 -0.365564)
(-0.717871 0 -0.262153)
(-0.715148 0 -0.1871)
(-0.702069 0 -0.136501)
(-0.683444 0 -0.104133)
(-0.662988 0 -0.0838838)
(-0.642904 0 -0.0711333)
(-0.624209 0 -0.0629137)
(-0.607271 0 -0.0574293)
(-0.592214 0 -0.0535083)
(-0.579081 0 -0.0502937)
(-0.567846 0 -0.0471758)
(-0.558391 0 -0.0438148)
(-0.550515 0 -0.04013)
(-0.543975 0 -0.0362212)
(-0.538534 0 -0.0322611)
(-0.533994 0 -0.0284076)
(-0.530202 0 -0.0247621)
(-0.527048 0 -0.021366)
(-0.524448 0 -0.0182193)
(-0.522337 0 -0.0153)
(-0.52065 0 -0.0125788)
(-0.519323 0 -0.0100277)
(-0.518342 0 -0.0076233)
(-0.517778 0 -0.0053485)
(-0.517515 0 -0.00318461)
(-0.516878 0 -0.00108693)
(0.0562398 0 0.0979503)
(0.0648807 0 0.104711)
(0.0747546 0 0.11199)
(0.0860799 0 0.119821)
(0.0990603 0 0.128365)
(0.114162 0 0.13832)
(0.132018 0 0.151726)
(0.154209 0 0.170275)
(0.180873 0 0.187313)
(0.206244 0 0.173991)
(0.215058 0 0.081145)
(0.185228 0 -0.108374)
(0.119845 0 -0.356153)
(0.0455005 0 -0.644599)
(-0.0381724 0 -0.948466)
(-0.136608 0 -1.20309)
(-0.242683 0 -1.32393)
(-0.346209 0 -1.29039)
(-0.445335 0 -1.15443)
(-0.536533 0 -0.967532)
(-0.607413 0 -0.778358)
(-0.657306 0 -0.614291)
(-0.691174 0 -0.470718)
(-0.708257 0 -0.353198)
(-0.710035 0 -0.263537)
(-0.700185 0 -0.199555)
(-0.683337 0 -0.156144)
(-0.66349 0 -0.127366)
(-0.643279 0 -0.108187)
(-0.624083 0 -0.0950769)
(-0.606485 0 -0.0857796)
(-0.590715 0 -0.0788164)
(-0.576864 0 -0.0731281)
(-0.564942 0 -0.067947)
(-0.554861 0 -0.0627972)
(-0.546435 0 -0.0574899)
(-0.539423 0 -0.0520566)
(-0.533578 0 -0.0466399)
(-0.528685 0 -0.0413944)
(-0.524578 0 -0.0364284)
(-0.521133 0 -0.0317903)
(-0.518259 0 -0.027482)
(-0.515887 0 -0.0234787)
(-0.513961 0 -0.0197458)
(-0.51242 0 -0.0162486)
(-0.511204 0 -0.0129571)
(-0.510307 0 -0.00984818)
(-0.509813 0 -0.00690548)
(-0.509604 0 -0.00410683)
(-0.508939 0 -0.00139525)
(0.0604167 0 0.0924354)
(0.0693647 0 0.0984152)
(0.0795856 0 0.104785)
(0.0913178 0 0.111548)
(0.10478 0 0.118808)
(0.120468 0 0.127092)
(0.139006 0 0.138091)
(0.161999 0 0.153556)
(0.190046 0 0.168858)
(0.218773 0 0.160499)
(0.234455 0 0.0846639)
(0.215149 0 -0.0795073)
(0.159751 0 -0.311487)
(0.0863972 0 -0.589166)
(-0.00381904 0 -0.882875)
(-0.112971 0 -1.13092)
(-0.230723 0 -1.25239)
(-0.343581 0 -1.22156)
(-0.44809 0 -1.08938)
(-0.541143 0 -0.910524)
(-0.610133 0 -0.732855)
(-0.654634 0 -0.581751)
(-0.681086 0 -0.452313)
(-0.69075 0 -0.348703)
(-0.687035 0 -0.270851)
(-0.674362 0 -0.215251)
(-0.656982 0 -0.176661)
(-0.638016 0 -0.149929)
(-0.619306 0 -0.131052)
(-0.601761 0 -0.117286)
(-0.585796 0 -0.106793)
(-0.571608 0 -0.098271)
(-0.559279 0 -0.0907675)
(-0.548776 0 -0.0836498)
(-0.539956 0 -0.0765996)
(-0.532595 0 -0.0695575)
(-0.526449 0 -0.0626187)