/*--------------------------------*- C++ -*----------------------------------*\
  =========                 |
  \\      /  F ield         | OpenFOAM: The Open Source CFD Toolbox
   \\    /   O peration     | Website:  https://openfoam.org
    \\  /    A nd           | Version:  9
     \\/     M anipulation  |
\*---------------------------------------------------------------------------*/
FoamFile
{
    format      ascii;
    class       surfaceVectorField;
    location    "0.01";
    object      Uf;
}
// * * * * * * * * * * * * * * * * * * * * * * * * * * * * * * * * * * * * * //

dimensions      [0 1 -1 0 0 0 0];

internalField   nonuniform List<vector> 
9850
(
(-0.114755 0 0.118526)
(-0.106728 0 0.115235)
(-0.123589 0 0.131055)
(-0.11468 0 0.127113)
(-0.13309 0 0.145469)
(-0.123221 0 0.140666)
(-0.143088 0 0.162086)
(-0.132243 0 0.156196)
(-0.153222 0 0.181471)
(-0.141444 0 0.173927)
(-0.16324 0 0.206431)
(-0.150256 0 0.194749)
(-0.173801 0 0.244519)
(-0.158609 0 0.223658)
(-0.184187 0 0.295866)
(-0.167641 0 0.270305)
(-0.182031 0 0.310048)
(-0.172589 0 0.32071)
(-0.139654 0 0.163315)
(-0.154669 0 0.279882)
(-0.0457339 0 -0.243632)
(-0.0910477 0 -0.0021844)
(0.0314138 0 -0.734618)
(0.0657019 0 -0.540066)
(-0.00520515 0 -1.01363)
(0.018564 0 -0.933071)
(-0.0211908 0 -1.08943)
(-0.01586 0 -1.06866)
(-0.0222751 0 -1.1044)
(-0.0300453 0 -1.10319)
(-0.0130056 0 -1.10238)
(-0.0205981 0 -1.10918)
(-0.00523076 0 -1.09777)
(-0.00817741 0 -1.10238)
(-0.00149399 0 -1.09594)
(-0.00227034 0 -1.09747)
(0.000119891 0 -1.09575)
(-9.42136e-05 0 -1.09628)
(0.000968789 0 -1.09561)
(0.000857039 0 -1.09604)
(0.00138089 0 -1.09528)
(0.00139748 0 -1.09566)
(0.00158905 0 -1.09479)
(0.00170151 0 -1.09517)
(0.00156749 0 -1.09408)
(0.00183164 0 -1.09449)
(0.00129784 0 -1.0933)
(0.00166517 0 -1.0935)
(0.00115427 0 -1.09363)
(0.00110703 0 -1.09285)
(0.00242715 0 -1.09694)
(0.000889071 0 -1.09503)
(0.00654924 0 -1.10251)
(0.00298177 0 -1.102)
(0.0120381 0 -1.1036)
(0.0080201 0 -1.10865)
(0.0128365 0 -1.08897)
(0.0117571 0 -1.10157)
(0.00311768 0 -1.04342)
(0.00750019 0 -1.0689)
(-0.00814975 0 -0.92568)
(-0.00927093 0 -0.999096)
(0.00156667 0 -0.601785)
(-0.0284136 0 -0.835442)
(0.0208692 0 -0.198453)
(-0.0226524 0 -0.377667)
(0.0381489 0 0.0800883)
(-0.0088787 0 -0.0423285)
(0.0524857 0 0.248438)
(0.00646939 0 0.179058)
(0.0616093 0 0.324186)
(0.0176004 0 0.297419)
(0.0656644 0 0.336625)
(0.0242093 0 0.336753)
(0.0661653 0 0.315551)
(0.0275746 0 0.328789)
(0.0647531 0 0.281833)
(0.0287021 0 0.29955)
(0.0625934 0 0.246315)
(0.0285472 0 0.26438)
(0.0603193 0 0.213107)
(0.0278142 0 0.230044)
(0.0582011 0 0.18306)
(0.0268871 0 0.198584)
(0.0563235 0 0.155884)
(0.0259409 0 0.170106)
(0.0546973 0 0.131081)
(0.0250486 0 0.144179)
(0.0533106 0 0.108249)
(0.0242386 0 0.120357)
(0.0521472 0 0.0871493)
(0.0235177 0 0.0983293)
(0.0512073 0 0.0676991)
(0.0228866 0 0.0779061)
(0.0505613 0 0.0499617)
(0.0224178 0 0.0589456)
(0.0504498 0 0.0340136)
(0.0224253 0 0.0413281)
(0.0231716 0 0.0248945)
(-0.106734 0 0.123819)
(-0.0991136 0 0.120012)
(-0.114409 0 0.136726)
(-0.106039 0 0.13223)
(-0.122499 0 0.151422)
(-0.113358 0 0.146059)
(-0.130756 0 0.168107)
(-0.120907 0 0.161701)
(-0.13871 0 0.18731)
(-0.12832 0 0.179229)
(-0.146035 0 0.212131)
(-0.134972 0 0.199632)
(-0.153011 0 0.249707)
(-0.140783 0 0.228309)
(-0.157409 0 0.295609)
(-0.146503 0 0.273237)
(-0.145572 0 0.291421)
(-0.145516 0 0.312819)
(-0.094155 0 0.115484)
(-0.11727 0 0.245604)
(0.00172608 0 -0.294695)
(-0.0498384 0 -0.0661051)
(0.0667181 0 -0.739644)
(0.0829879 0 -0.583393)
(0.0122496 0 -0.990647)
(0.0596535 0 -0.896759)
(-0.0257957 0 -1.08051)
(-0.0116244 0 -1.04329)
(-0.0286036 0 -1.10799)
(-0.0321171 0 -1.10132)
(-0.0154583 0 -1.10915)
(-0.0221781 0 -1.11795)
(-0.00514015 0 -1.1021)
(-0.00807527 0 -1.10926)
(-0.000893538 0 -1.09781)
(-0.00125891 0 -1.1003)
(0.000608036 0 -1.09658)
(0.000728983 0 -1.09729)
(0.00135982 0 -1.09607)
(0.00140215 0 -1.09654)
(0.00176999 0 -1.09556)
(0.00182123 0 -1.09599)
(0.0020181 0 -1.09488)
(0.00213339 0 -1.09538)
(0.00200213 0 -1.09389)
(0.00240691 0 -1.09448)
(0.00155882 0 -1.09301)
(0.00248791 0 -1.09309)
(0.000915404 0 -1.09425)
(0.00186753 0 -1.09221)
(0.0013774 0 -1.10022)
(0.000577101 0 -1.09551)
(0.00437713 0 -1.10851)
(-0.000133679 0 -1.10526)
(0.00808734 0 -1.10725)
(7.21542e-05 0 -1.11288)
(0.00644334 0 -1.08112)
(-6.0933e-05 0 -1.0996)
(-0.00933177 0 -1.02409)
(-0.00445574 0 -1.04911)
(-0.0248993 0 -0.905856)
(-0.0202469 0 -0.978611)
(-0.051742 0 -0.599503)
(-0.0471185 0 -0.79839)
(-0.0490277 0 -0.213297)
(-0.0810354 0 -0.381597)
(-0.0412323 0 0.0616672)
(-0.0783063 0 -0.0541683)
(-0.0310917 0 0.230965)
(-0.071324 0 0.162902)
(-0.0216332 0 0.311124)
(-0.0630057 0 0.281611)
(-0.0145073 0 0.328903)
(-0.0549603 0 0.324261)
(-0.00993982 0 0.312234)
(-0.0484025 0 0.32039)
(-0.00736904 0 0.28138)
(-0.0437174 0 0.294591)
(-0.00606925 0 0.247397)
(-0.040567 0 0.26175)
(-0.00548277 0 0.214868)
(-0.0384736 0 0.2288)
(-0.00527383 0 0.185042)
(-0.037071 0 0.198119)
(-0.00526378 0 0.157869)
(-0.0361236 0 0.170083)
(-0.0053612 0 0.132967)
(-0.0354911 0 0.144417)
(-0.00551854 0 0.109984)
(-0.0350929 0 0.120762)
(-0.00570263 0 0.0886593)
(-0.0348813 0 0.0988253)
(-0.00585384 0 0.068739)
(-0.0348064 0 0.0783336)
(-0.00582248 0 0.0498874)
(-0.0347319 0 0.0588525)
(-0.00537454 0 0.0317826)
(-0.0342927 0 0.0399344)
(-0.0333432 0 0.0219296)
(-0.0984852 0 0.128438)
(-0.0912917 0 0.124165)
(-0.105065 0 0.141591)
(-0.0972334 0 0.136617)
(-0.111864 0 0.156381)
(-0.10342 0 0.150592)
(-0.118574 0 0.172894)
(-0.10965 0 0.166173)
(-0.124715 0 0.191674)
(-0.115547 0 0.183324)
(-0.130018 0 0.216016)
(-0.120558 0 0.203167)
(-0.1345 0 0.252181)
(-0.124679 0 0.231297)
(-0.134998 0 0.291088)
(-0.128462 0 0.273569)
(-0.118001 0 0.268205)
(-0.12456 0 0.301488)
(-0.0634548 0 0.0670265)
(-0.0912325 0 0.20924)
(0.0211158 0 -0.346289)
(-0.0270492 0 -0.122486)
(0.0682102 0 -0.730812)
(0.0713356 0 -0.61479)
(0.0527596 0 -0.94453)
(0.105485 0 -0.886458)
(-0.0179622 0 -1.06418)
(0.0145307 0 -0.996144)
(-0.0270065 0 -1.11316)
(-0.0131054 0 -1.09529)
(-0.0144933 0 -1.11845)
(-0.0125883 0 -1.12629)
(-0.00388246 0 -1.1075)
(-0.00462591 0 -1.11633)
(0.000310905 0 -1.09978)
(0.000485836 0 -1.1031)
(0.00145821 0 -1.09726)
(0.00183169 0 -1.09805)
(0.00191584 0 -1.09644)
(0.00211222 0 -1.09684)
(0.00223551 0 -1.09584)
(0.00231206 0 -1.09625)
(0.0026085 0 -1.095)
(0.00264773 0 -1.0957)
(0.00298864 0 -1.09365)
(0.00343618 0 -1.09482)
(0.00294085 0 -1.09222)
(0.00479663 0 -1.09304)
(0.00166248 0 -1.09334)
(0.00543667 0 -1.09095)
(-0.00104486 0 -1.1002)
(0.00312132 0 -1.0927)
(-0.00453047 0 -1.10888)
(-0.00325446 0 -1.10148)
(-0.00769008 0 -1.10382)
(-0.0116283 0 -1.10927)
(-0.0123152 0 -1.0683)
(-0.0133036 0 -1.09407)
(-0.0177085 0 -1.00338)
(-0.0124098 0 -1.04234)
(-0.0276168 0 -0.856907)
(-0.00471207 0 -0.965572)
(-0.089281 0 -0.558312)
(-0.0625662 0 -0.713272)
(-0.105916 0 -0.20967)
(-0.12682 0 -0.357511)
(-0.110199 0 0.0547102)
(-0.139098 0 -0.047664)
(-0.106026 0 0.21787)
(-0.140654 0 0.156255)
(-0.0979822 0 0.296635)
(-0.135754 0 0.268168)
(-0.0894614 0 0.316189)
(-0.127625 0 0.309324)
(-0.0822495 0 0.302489)
(-0.119312 0 0.307129)
(-0.07677 0 0.274434)
(-0.112246 0 0.284022)
(-0.0727808 0 0.242561)
(-0.106683 0 0.253678)
(-0.0698934 0 0.211476)
(-0.102429 0 0.222671)
(-0.0677878 0 0.182628)
(-0.0991981 0 0.193431)
(-0.066249 0 0.156149)
(-0.0967505 0 0.166489)
(-0.0651448 0 0.131785)
(-0.094915 0 0.141713)
(-0.0643942 0 0.109243)
(-0.0935752 0 0.118833)
(-0.0639258 0 0.0882243)
(-0.0926392 0 0.0975625)
(-0.063625 0 0.0682806)
(-0.0919923 0 0.0774831)
(-0.0632975 0 0.0488716)
(-0.0914203 0 0.0578811)
(-0.0626756 0 0.0302308)
(-0.0904901 0 0.0379996)
(-0.0893686 0 0.0178656)
(-0.0900949 0 0.132371)
(-0.0833316 0 0.127716)
(-0.0956432 0 0.145657)
(-0.0883372 0 0.140316)
(-0.101269 0 0.160436)
(-0.0934737 0 0.154342)
(-0.106667 0 0.176677)
(-0.0985472 0 0.169772)
(-0.111424 0 0.194942)
(-0.103221 0 0.186495)
(-0.115396 0 0.218672)
(-0.1071 0 0.205815)
(-0.118538 0 0.253051)
(-0.110318 0 0.233392)
(-0.117294 0 0.284567)
(-0.113433 0 0.272739)
(-0.0991745 0 0.243705)
(-0.109663 0 0.289408)
(-0.0474661 0 0.0225987)
(-0.0775722 0 0.174768)
(0.0223304 0 -0.387725)
(-0.0225523 0 -0.169017)
(0.0661143 0 -0.761038)
(0.0461532 0 -0.643979)
(0.108722 0 -0.933549)
(0.122281 0 -0.914864)
(0.0243193 0 -1.03183)
(0.0599087 0 -0.939875)
(-0.000335188 0 -1.10943)
(0.0263384 0 -1.07885)
(-0.00275183 0 -1.12406)
(0.012661 0 -1.12468)
(4.20075e-05 0 -1.11167)
(0.00470533 0 -1.11819)
(0.00186595 0 -1.10134)
(0.00267199 0 -1.10431)
(0.00237512 0 -1.09766)
(0.00265751 0 -1.09839)
(0.00252132 0 -1.09665)
(0.00276869 0 -1.09694)
(0.0027668 0 -1.09617)
(0.00281833 0 -1.09645)
(0.00358028 0 -1.09557)
(0.00325575 0 -1.0964)
(0.00538597 0 -1.09418)
(0.00504417 0 -1.09644)
(0.00753933 0 -1.09156)
(0.0090949 0 -1.09507)
(0.00715871 0 -1.08981)
(0.0132058 0 -1.09057)
(0.000961306 0 -1.09316)
(0.0116128 0 -1.08628)
(-0.00983628 0 -1.10036)
(0.00145948 0 -1.08974)
(-0.0197082 0 -1.09921)
(-0.00908426 0 -1.09802)
(-0.0128628 0 -1.06759)
(-0.00895974 0 -1.10226)
(0.00974077 0 -0.998456)
(-0.0062585 0 -1.0707)
(-0.0394458 0 -0.807483)
(0.00238711 0 -0.900847)
(-0.116601 0 -0.494641)
(-0.0942321 0 -0.606772)
(-0.158122 0 -0.182798)
(-0.166446 0 -0.297392)
(-0.171689 0 0.060074)
(-0.193392 0 -0.0270587)
(-0.172925 0 0.210406)
(-0.202788 0 0.158224)
(-0.166851 0 0.282697)
(-0.201199 0 0.258018)
(-0.158052 0 0.300825)
(-0.193629 0 0.293898)
(-0.149383 0 0.288541)
(-0.184477 0 0.291188)
(-0.142015 0 0.262845)
(-0.175933 0 0.269809)
(-0.136134 0 0.233266)
(-0.168742 0 0.24178)
(-0.131552 0 0.204089)
(-0.162955 0 0.212946)
(-0.128011 0 0.176772)
(-0.158385 0 0.185547)
(-0.125296 0 0.151557)
(-0.15481 0 0.16015)
(-0.123251 0 0.128289)
(-0.152043 0 0.136702)
(-0.121745 0 0.106698)
(-0.149923 0 0.114964)
(-0.120634 0 0.0863664)
(-0.148292 0 0.0945686)
(-0.119728 0 0.066597)
(-0.146971 0 0.0749219)
(-0.118821 0 0.0464543)
(-0.145738 0 0.0551887)
(-0.117718 0 0.0249133)
(-0.14431 0 0.03457)
(-0.143315 0 0.0125033)
(-0.0816166 0 0.135678)
(-0.0752808 0 0.130687)
(-0.0862042 0 0.149028)
(-0.0793967 0 0.143374)
(-0.0907828 0 0.163722)
(-0.0835674 0 0.157395)
(-0.0950933 0 0.179659)
(-0.0876283 0 0.172646)
(-0.098842 0 0.197474)
(-0.0913236 0 0.188994)
(-0.10208 0 0.220715)
(-0.0944786 0 0.207973)
(-0.104894 0 0.253406)
(-0.0974001 0 0.235267)
(-0.103969 0 0.278136)
(-0.100774 0 0.272123)
(-0.0888898 0 0.221891)
(-0.0995774 0 0.279355)
(-0.0496153 0 -0.0143702)
(-0.07594 0 0.148585)
(0.00451677 0 -0.423024)
(-0.0369728 0 -0.205105)
(0.0543389 0 -0.803354)
(0.00347818 0 -0.677194)
(0.123863 0 -0.933905)
(0.0264219 0 -0.961213)
(0.0713775 0 -0.98947)
(0.0556977 0 -0.904885)
(0.0384464 0 -1.08984)
(0.0529409 0 -1.0569)
(0.0192173 0 -1.11781)
(0.0374003 0 -1.11186)
(0.0077001 0 -1.11006)
(0.0156926 0 -1.11051)
(0.0032112 0 -1.10105)
(0.00413206 0 -1.10132)
(0.00288107 0 -1.09769)
(0.00257908 0 -1.09817)
(0.0030398 0 -1.09679)
(0.00317904 0 -1.09705)
(0.00332502 0 -1.09682)
(0.00325429 0 -1.09669)
(0.00482015 0 -1.09745)
(0.00364612 0 -1.09768)
(0.0089134 0 -1.09741)
(0.00605168 0 -1.10012)
(0.0150764 0 -1.09399)
(0.0123573 0 -1.10087)
(0.0182114 0 -1.08704)
(0.0201116 0 -1.09367)
(0.0128852 0 -1.08352)
(0.0200807 0 -1.08076)
(0.0021983 0 -1.09021)
(0.00982681 0 -1.07813)
(-0.00122064 0 -1.09874)
(-0.000857868 0 -1.09412)
(0.000203993 0 -1.08283)
(-0.00923074 0 -1.10396)
(0.000622242 0 -0.962011)
(-0.0306753 0 -1.07122)
(-0.0710633 0 -0.708468)
(-0.063777 0 -0.806516)
(-0.147522 0 -0.409312)
(-0.149714 0 -0.501234)
(-0.201334 0 -0.135059)
(-0.212742 0 -0.219475)
(-0.22676 0 0.0773458)
(-0.247439 0 0.0115575)
(-0.233309 0 0.208951)
(-0.261472 0 0.168658)
(-0.22917 0 0.270507)
(-0.261449 0 0.251102)
(-0.220513 0 0.28452)
(-0.253997 0 0.278721)
(-0.211056 0 0.272196)
(-0.244196 0 0.273798)
(-0.202506 0 0.248265)
(-0.234636 0 0.253317)
(-0.195366 0 0.22091)
(-0.226339 0 0.227333)
(-0.189605 0 0.193842)
(-0.219505 0 0.200719)
(-0.18503 0 0.16837)
(-0.214013 0 0.175361)
(-0.181432 0 0.144749)
(-0.209655 0 0.151746)
(-0.178617 0 0.122836)
(-0.20622 0 0.129807)
(-0.176393 0 0.102289)
(-0.203497 0 0.109248)
(-0.174558 0 0.0825582)
(-0.201285 0 0.0896217)
(-0.172938 0 0.0629031)
(-0.199403 0 0.070342)
(-0.171459 0 0.0426211)
(-0.197705 0 0.0508016)
(-0.170202 0 0.0214628)
(-0.196159 0 0.0306604)
(-0.195694 0 0.0102053)
(-0.073092 0 0.138396)
(-0.0671741 0 0.133103)
(-0.076782 0 0.151762)
(-0.0704426 0 0.145834)
(-0.0804197 0 0.166351)
(-0.0737165 0 0.15982)
(-0.0838201 0 0.182031)
(-0.0768723 0 0.174913)
(-0.0868402 0 0.199565)
(-0.0797524 0 0.191008)
(-0.0897463 0 0.222632)
(-0.0824128 0 0.209911)
(-0.0928968 0 0.254195)
(-0.085338 0 0.237368)
(-0.0939079 0 0.273762)
(-0.0893415 0 0.272797)
(-0.0856138 0 0.206882)
(-0.0916931 0 0.273825)
(-0.0649059 0 -0.0401364)
(-0.0807225 0 0.13478)
(-0.037783 0 -0.449774)
(-0.0635091 0 -0.223187)
(-0.0367591 0 -0.828405)
(-0.0722592 0 -0.677876)
(-0.0231777 0 -0.943206)
(-0.162074 0 -0.970267)
(0.0353631 0 -0.979975)
(-0.0556636 0 -0.943912)
(0.054319 0 -1.07582)
(0.0349158 0 -1.06954)
(0.0326148 0 -1.10323)
(0.0353359 0 -1.09739)
(0.0122121 0 -1.10145)
(0.0170077 0 -1.09691)
(0.00312585 0 -1.09829)
(0.00335507 0 -1.09526)
(0.00271689 0 -1.09754)
(0.00157978 0 -1.0979)
(0.00335934 0 -1.09698)
(0.0033151 0 -1.09747)
(0.00351599 0 -1.09769)
(0.00341131 0 -1.09681)
(0.00485242 0 -1.10063)
(0.00311262 0 -1.09882)
(0.00963938 0 -1.10416)
(0.00410547 0 -1.10441)
(0.0177479 0 -1.1018)
(0.00826641 0 -1.10851)
(0.023058 0 -1.08852)
(0.0143362 0 -1.09892)
(0.0177809 0 -1.07613)
(0.00971407 0 -1.07529)
(0.00646697 0 -1.08043)
(-0.00350826 0 -1.06583)
(-0.0113353 0 -1.09108)
(-0.0146854 0 -1.07383)
(-0.0374028 0 -1.08144)
(-0.0295543 0 -1.07279)
(-0.0948464 0 -0.912566)
(-0.0776721 0 -0.999161)
(-0.14963 0 -0.607301)
(-0.154175 0 -0.734426)
(-0.211117 0 -0.318591)
(-0.220293 0 -0.41636)
(-0.259024 0 -0.0751139)
(-0.274049 0 -0.15011)
(-0.284396 0 0.103615)
(-0.307184 0 0.0500936)
(-0.291311 0 0.211619)
(-0.319799 0 0.179675)
(-0.287105 0 0.259547)
(-0.318317 0 0.244072)
(-0.27794 0 0.267727)
(-0.309742 0 0.262654)
(-0.267712 0 0.254392)
(-0.298948 0 0.25499)
(-0.258279 0 0.231772)
(-0.288476 0 0.235123)
(-0.250269 0 0.206529)
(-0.279361 0 0.211124)
(-0.243724 0 0.181654)
(-0.271819 0 0.186829)
(-0.238481 0 0.158188)
(-0.265736 0 0.163687)
(-0.234318 0 0.13629)
(-0.260887 0 0.142025)
(-0.231004 0 0.115739)
(-0.257021 0 0.121688)
(-0.228309 0 0.0961265)
(-0.253898 0 0.102324)
(-0.226052 0 0.0769695)
(-0.251324 0 0.0835364)
(-0.22415 0 0.0578208)
(-0.249172 0 0.0649657)
(-0.222643 0 0.0384355)
(-0.247346 0 0.0463318)
(-0.22165 0 0.0189634)
(-0.245872 0 0.0275708)
(-0.245682 0 0.00902683)
(-0.0645483 0 0.140554)
(-0.0590393 0 0.134988)
(-0.0673896 0 0.153908)
(-0.0614936 0 0.147728)
(-0.0701604 0 0.168402)
(-0.0639164 0 0.161667)
(-0.072758 0 0.183916)
(-0.0662287 0 0.176644)
(-0.075188 0 0.201382)
(-0.0683639 0 0.192628)
(-0.0778928 0 0.224662)
(-0.0705549 0 0.211714)
(-0.0814831 0 0.255968)
(-0.0733857 0 0.239761)
(-0.0847391 0 0.272851)
(-0.0776396 0 0.274968)
(-0.0842207 0 0.201414)
(-0.0823215 0 0.27348)
(-0.0828314 0 -0.0480953)
(-0.0808278 0 0.133854)
(-0.0987246 0 -0.448465)
(-0.0807788 0 -0.212591)
(-0.174848 0 -0.818167)
(-0.128859 0 -0.627127)
(-0.185099 0 -0.959648)
(-0.18927 0 -0.963433)
(-0.0805929 0 -1.01735)
(-0.0417345 0 -1.01358)
(0.0171904 0 -1.0887)
(0.0369313 0 -1.13473)
(0.0202778 0 -1.09379)
(0.0126468 0 -1.09945)
(0.00793666 0 -1.09219)
(0.00794322 0 -1.08868)
(0.00134227 0 -1.09547)
(0.00128755 0 -1.09087)
(0.00220577 0 -1.09815)
(-0.000302601 0 -1.09847)
(0.00336422 0 -1.09733)
(0.00276775 0 -1.09825)
(0.00282956 0 -1.09799)
(0.00319861 0 -1.09638)
(0.00210213 0 -1.10279)
(0.00233703 0 -1.0982)
(0.00276679 0 -1.10939)
(0.00153727 0 -1.10501)
(0.00457998 0 -1.10634)
(0.000116198 0 -1.11021)
(0.00211559 0 -1.08491)
(-0.00556264 0 -1.09648)
(-0.0140155 0 -1.0658)
(-0.0175983 0 -1.05858)
(-0.0255773 0 -1.06627)
(-0.0292083 0 -1.05326)
(-0.042422 0 -1.06789)
(-0.0497621 0 -1.05462)
(-0.054099 0 -1.00404)
(-0.0550908 0 -1.05882)
(-0.147118 0 -0.809452)
(-0.117891 0 -0.882471)
(-0.224469 0 -0.522102)
(-0.215535 0 -0.632639)
(-0.282304 0 -0.240829)
(-0.28735 0 -0.336529)
(-0.323718 0 -0.021549)
(-0.337565 0 -0.0901441)
(-0.344261 0 0.127709)
(-0.366225 0 0.0812945)
(-0.347805 0 0.212663)
(-0.374811 0 0.185321)
(-0.341381 0 0.247079)
(-0.37056 0 0.233336)
(-0.330781 0 0.249462)
(-0.360272 0 0.244073)
(-0.319539 0 0.235113)
(-0.348376 0 0.234318)
(-0.309325 0 0.213835)
(-0.337152 0 0.21542)
(-0.300687 0 0.190806)
(-0.327479 0 0.193647)
(-0.293639 0 0.16828)
(-0.319497 0 0.17187)
(-0.287986 0 0.146975)
(-0.313044 0 0.151102)
(-0.283469 0 0.126896)
(-0.30785 0 0.131476)
(-0.279825 0 0.107757)
(-0.303634 0 0.11276)
(-0.276833 0 0.089211)
(-0.30016 0 0.094636)
(-0.274357 0 0.0709856)
(-0.297277 0 0.0768647)
(-0.272353 0 0.0528922)
(-0.294902 0 0.0592971)
(-0.270835 0 0.034849)
(-0.292964 0 0.0418296)
(-0.269867 0 0.0170552)
(-0.291467 0 0.0245597)
(-0.291144 0 0.00793243)
(-0.0560042 0 0.142173)
(-0.0508993 0 0.136357)
(-0.0580282 0 0.155498)
(-0.0525614 0 0.149078)
(-0.0599709 0 0.169918)
(-0.0541563 0 0.162962)
(-0.0617987 0 0.185359)
(-0.0556437 0 0.177863)
(-0.0636258 0 0.202942)
(-0.0570217 0 0.193846)
(-0.0659674 0 0.226733)
(-0.0586075 0 0.213275)
(-0.0694717 0 0.25851)
(-0.0609405 0 0.242098)
(-0.0735424 0 0.274885)
(-0.0645118 0 0.277682)
(-0.076706 0 0.20353)
(-0.0690709 0 0.275589)
(-0.0817893 0 -0.0377098)
(-0.0697049 0 0.137243)
(-0.109004 0 -0.414156)
(-0.0793684 0 -0.194448)
(-0.13605 0 -0.809421)
(-0.148226 0 -0.609097)
(-0.0344479 0 -1.03572)
(-0.0653647 0 -1.03117)
(0.0593116 0 -1.10802)
(0.0880375 0 -1.07609)
(0.0352148 0 -1.1189)
(0.0693789 0 -1.11866)
(0.000978181 0 -1.08934)
(-0.0337279 0 -1.07662)
(0.00137083 0 -1.08714)
(0.00348561 0 -1.08895)
(-0.000709047 0 -1.09444)
(0.00249259 0 -1.08948)
(0.000549232 0 -1.09955)
(-0.00398397 0 -1.09931)
(0.00274779 0 -1.09803)
(-0.000147809 0 -1.09971)
(0.00247877 0 -1.0974)
(0.0034268 0 -1.09616)
(0.00136914 0 -1.10121)
(0.00621175 0 -1.09725)
(-0.00179962 0 -1.10541)
(0.0104557 0 -1.10217)
(-0.00911695 0 -1.09625)
(0.00919009 0 -1.10332)
(-0.0256127 0 -1.06979)
(-0.00476589 0 -1.08019)
(-0.0283487 0 -1.05093)
(-0.0208533 0 -1.05574)
(-0.0764533 0 -1.05554)
(-0.0742946 0 -1.00098)
(-0.0543276 0 -1.05144)
(-0.0525406 0 -1.07985)
(-0.104158 0 -0.933523)
(-0.0870016 0 -0.999229)
(-0.189841 0 -0.700657)
(-0.17031 0 -0.774983)
(-0.280838 0 -0.430038)
(-0.268947 0 -0.512896)
(-0.344326 0 -0.172158)
(-0.346441 0 -0.248894)
(-0.382219 0 0.0206914)
(-0.394122 0 -0.035278)
(-0.39825 0 0.143233)
(-0.417799 0 0.105642)
(-0.398324 0 0.207989)
(-0.422396 0 0.185439)
(-0.389676 0 0.230986)
(-0.415699 0 0.218883)
(-0.377771 0 0.228893)
(-0.404106 0 0.223203)
(-0.36576 0 0.214275)
(-0.391569 0 0.212233)
(-0.355056 0 0.19476)
(-0.380028 0 0.194772)
(-0.346063 0 0.174204)
(-0.370157 0 0.175452)
(-0.338715 0 0.154183)
(-0.361992 0 0.156273)
(-0.332758 0 0.135098)
(-0.355306 0 0.13784)
(-0.327899 0 0.116834)
(-0.349801 0 0.120129)
(-0.323881 0 0.0991261)
(-0.345207 0 0.102916)
(-0.320526 0 0.0817679)
(-0.341337 0 0.0860154)
(-0.317739 0 0.064647)
(-0.338092 0 0.069353)
(-0.31548 0 0.0476977)
(-0.335418 0 0.0529099)
(-0.313765 0 0.0310002)
(-0.333296 0 0.036743)
(-0.312683 0 0.0149427)
(-0.331767 0 0.0211931)
(-0.331314 0 0.00675582)
(-0.0474748 0 0.143269)
(-0.0427749 0 0.137221)
(-0.0486969 0 0.156547)
(-0.0436572 0 0.149893)
(-0.0498194 0 0.170907)
(-0.04443 0 0.163711)
(-0.0508523 0 0.186336)
(-0.0450813 0 0.178551)
(-0.0519597 0 0.20413)
(-0.0456418 0 0.194584)
(-0.0535984 0 0.228508)
(-0.0464238 0 0.214368)
(-0.056198 0 0.260927)
(-0.0478107 0 0.243831)
(-0.0591104 0 0.277532)
(-0.0498145 0 0.279623)
(-0.0613863 0 0.2076)
(-0.052481 0 0.277106)
(-0.0678864 0 -0.0222649)
(-0.0514708 0 0.141576)
(-0.103592 0 -0.392666)
(-0.0653283 0 -0.170644)
(-0.111672 0 -0.841377)
(-0.0908794 0 -0.60371)
(0.0716204 0 -1.09734)
(-0.019923 0 -1.15336)
(0.126033 0 -1.11456)
(-0.0251201 0 -1.11236)
(0.01387 0 -1.09153)
(0.00709016 0 -1.04389)
(-0.0563704 0 -1.07841)
(-0.0446942 0 -1.0298)
(0.00598309 0 -1.08786)
(0.0102882 0 -1.13052)
(-0.00137369 0 -1.09146)
(0.0066021 0 -1.08458)
(-0.00410289 0 -1.09753)
(-0.00616056 0 -1.09749)
(0.00132713 0 -1.0968)
(-0.00466742 0 -1.10333)
(0.00709122 0 -1.0951)
(0.00807154 0 -1.10086)
(0.0140466 0 -1.09629)
(0.0250533 0 -1.1032)
(0.0209912 0 -1.096)
(0.0415373 0 -1.1084)
(0.0169018 0 -1.08391)
(0.0431796 0 -1.09947)
(0.00242716 0 -1.05748)
(0.0274887 0 -1.06589)
(-0.0950798 0 -1.0294)
(0.0245892 0 -0.954713)
(-0.0478335 0 -1.04658)
(-0.0325906 0 -1.05233)
(-0.0737562 0 -1.01753)
(-0.026838 0 -1.05029)
(-0.150619 0 -0.83683)
(-0.123405 0 -0.907307)
(-0.247511 0 -0.582526)
(-0.227891 0 -0.653433)
(-0.336433 0 -0.327155)
(-0.325777 0 -0.395883)
(-0.398327 0 -0.104772)
(-0.400288 0 -0.16346)
(-0.431604 0 0.0553008)
(-0.442737 0 0.0129045)
(-0.443171 0 0.151435)
(-0.460681 0 0.123211)
(-0.440359 0 0.198253)
(-0.461541 0 0.180958)
(-0.43025 0 0.211915)
(-0.452989 0 0.20199)
(-0.41777 0 0.206723)
(-0.440769 0 0.201325)
(-0.40561 0 0.192585)
(-0.428216 0 0.189872)
(-0.394895 0 0.175169)
(-0.41686 0 0.174103)
(-0.385877 0 0.157163)
(-0.407147 0 0.157206)
(-0.378409 0 0.139548)
(-0.399011 0 0.140423)
(-0.372207 0 0.122479)
(-0.392191 0 0.124032)
(-0.366994 0 0.105815)
(-0.386414 0 0.107954)
(-0.362569 0 0.0894063)
(-0.381476 0 0.0920746)
(-0.358818 0 0.0732028)
(-0.377269 0 0.0763789)
(-0.355694 0 0.0572234)
(-0.373747 0 0.0609311)
(-0.353194 0 0.0415719)
(-0.370892 0 0.045841)
(-0.351377 0 0.0265666)
(-0.368729 0 0.0313535)
(-0.35032 0 0.0126553)
(-0.367306 0 0.0179041)
(-0.366897 0 0.00572624)
(-0.0389759 0 0.143849)
(-0.0346876 0 0.137586)
(-0.0394007 0 0.157058)
(-0.0347963 0 0.150176)
(-0.0396919 0 0.171351)
(-0.034744 0 0.163905)
(-0.0398781 0 0.186782)
(-0.0345352 0 0.178676)
(-0.0401243 0 0.204774)
(-0.0342094 0 0.194748)
(-0.040743 0 0.229588)
(-0.0340175 0 0.21478)
(-0.0418329 0 0.262336)
(-0.0341556 0 0.244557)
(-0.0426337 0 0.278869)
(-0.0341513 0 0.280157)
(-0.0425901 0 0.210402)
(-0.0342942 0 0.277077)
(-0.0461435 0 -0.010422)
(-0.0315171 0 0.143945)
(-0.0566232 0 -0.390126)
(-0.0456509 0 -0.163658)
(-0.00905748 0 -0.87519)
(-0.0157507 0 -0.63542)
(-0.145632 0 -1.13035)
(0.00520849 0 -1.06231)
(-0.0934754 0 -1.0848)
(-0.082501 0 -1.14714)
(-0.0535561 0 -1.02606)
(-0.0851786 0 -1.0705)
(0.00347064 0 -1.06831)
(-0.0464082 0 -1.06781)
(0.0118486 0 -1.10575)
(0.000358258 0 -1.1361)
(0.00190931 0 -1.08742)
(0.017974 0 -1.07795)
(-0.0074061 0 -1.09379)
(0.010356 0 -1.09128)
(0.00311868 0 -1.09663)
(0.00952328 0 -1.11035)
(0.0270912 0 -1.09858)
(0.0262142 0 -1.12042)
(0.0554217 0 -1.10312)
(0.0468825 0 -1.12745)
(0.0678743 0 -1.10168)
(0.0588033 0 -1.11958)
(0.0560468 0 -1.08272)
(0.0584892 0 -1.08834)
(0.0456374 0 -1.00096)
(0.0474571 0 -1.05561)
(0.0641316 0 -0.974893)
(0.053975 0 -0.973876)
(0.00842028 0 -1.01054)
(0.0371658 0 -0.991778)
(-0.0822815 0 -0.925123)
(-0.0415591 0 -0.946883)
(-0.198487 0 -0.71328)
(-0.170173 0 -0.768334)
(-0.305324 0 -0.459671)
(-0.287247 0 -0.519408)
(-0.391396 0 -0.2274)
(-0.382411 0 -0.282619)
(-0.446538 0 -0.0423602)
(-0.448937 0 -0.0873452)
(-0.473214 0 0.08331)
(-0.483821 0 0.0515285)
(-0.479906 0 0.154277)
(-0.495723 0 0.133376)
(-0.474515 0 0.185455)
(-0.493164 0 0.172369)
(-0.463515 0 0.191635)
(-0.483289 0 0.183608)
(-0.451055 0 0.18441)
(-0.470983 0 0.179482)
(-0.439252 0 0.171176)
(-0.458861 0 0.168168)
(-0.428901 0 0.155858)
(-0.448007 0 0.154136)
(-0.420093 0 0.140153)
(-0.438649 0 0.139386)
(-0.412633 0 0.124578)
(-0.430648 0 0.124589)
(-0.406263 0 0.109166)
(-0.423768 0 0.109849)
(-0.400781 0 0.0938627)
(-0.417817 0 0.0951527)
(-0.396077 0 0.0786874)
(-0.412691 0 0.0805516)
(-0.392108 0 0.0637414)
(-0.408354 0 0.0661786)
(-0.388869 0 0.0491806)
(-0.4048 0 0.0522011)
(-0.386389 0 0.0352612)
(-0.402029 0 0.0388308)
(-0.38471 0 0.0223519)
(-0.400048 0 0.0263731)
(-0.38381 0 0.0106673)
(-0.398835 0 0.0151048)
(-0.39851 0 0.0049048)
(-0.0305273 0 0.143916)
(-0.0266612 0 0.137456)
(-0.0301547 0 0.157023)
(-0.026 0 0.149928)
(-0.0295976 0 0.171225)
(-0.0251177 0 0.163533)
(-0.028888 0 0.186629)
(-0.0240255 0 0.178202)
(-0.0281641 0 0.204728)
(-0.0227602 0 0.194266)
(-0.0275739 0 0.22971)
(-0.02149 0 0.214386)
(-0.0268894 0 0.262344)
(-0.020242 0 0.244101)
(-0.0253296 0 0.278468)
(-0.0181935 0 0.279117)
(-0.0233063 0 0.211214)
(-0.0159632 0 0.275728)
(-0.0252434 0 -0.0072085)
(-0.0125379 0 0.145236)
(-0.0234446 0 -0.400634)
(-0.0284407 0 -0.164857)
(0.00870864 0 -0.856402)
(-0.0058346 0 -0.656856)
(0.0406786 0 -1.0954)
(-0.0168036 0 -1.08363)
(-0.0666492 0 -1.0868)
(-0.0981723 0 -1.07558)
(-0.100549 0 -1.06883)
(-0.140653 0 -1.0479)
(-0.0343919 0 -1.12562)
(-0.0929398 0 -1.11192)
(0.00169911 0 -1.12302)
(-0.023404 0 -1.16016)
(0.0317162 0 -1.08362)
(0.051915 0 -1.09796)
(0.0275983 0 -1.09937)
(0.100806 0 -1.08854)
(0.033061 0 -1.11607)
(0.12028 0 -1.11399)
(0.0486416 0 -1.1237)
(0.123485 0 -1.13313)
(0.051847 0 -1.12553)
(0.113068 0 -1.13019)
(0.0520755 0 -1.10922)
(0.0911643 0 -1.11978)
(0.0541494 0 -1.0685)
(0.0691778 0 -1.09029)
(0.0440899 0 -1.00372)
(0.0497606 0 -1.04567)
(0.0424317 0 -0.966818)
(0.0360392 0 -0.972157)
(-0.0191776 0 -0.928137)
(0.00119048 0 -0.924816)
(-0.132153 0 -0.790425)
(-0.100948 0 -0.818079)
(-0.258144 0 -0.570921)
(-0.234969 0 -0.617658)
(-0.364489 0 -0.337601)
(-0.350373 0 -0.386001)
(-0.441837 0 -0.13824)
(-0.436708 0 -0.180837)
(-0.487819 0 0.00948556)
(-0.491771 0 -0.0238741)
(-0.50737 0 0.103198)
(-0.51783 0 0.0798367)
(-0.50952 0 0.152142)
(-0.523931 0 0.136641)
(-0.502073 0 0.170633)
(-0.51851 0 0.160505)
(-0.490669 0 0.171277)
(-0.507841 0 0.164548)
(-0.478604 0 0.162941)
(-0.495821 0 0.158332)
(-0.467409 0 0.150792)
(-0.484342 0 0.147583)
(-0.45756 0 0.137322)
(-0.474078 0 0.135138)
(-0.44903 0 0.12348)
(-0.465095 0 0.122127)
(-0.441631 0 0.109514)
(-0.457245 0 0.108884)
(-0.435189 0 0.095483)
(-0.450376 0 0.0955082)
(-0.429611 0 0.0814817)
(-0.444404 0 0.0821263)
(-0.424868 0 0.0676788)
(-0.439307 0 0.0689303)
(-0.420957 0 0.0542756)
(-0.435089 0 0.0561291)
(-0.417885 0 0.0414964)
(-0.431745 0 0.043921)
(-0.415652 0 0.0296047)
(-0.429249 0 0.0325177)
(-0.41422 0 0.0188145)
(-0.427551 0 0.0221255)
(-0.413476 0 0.00906527)
(-0.426542 0 0.0127899)
(-0.426253 0 0.00420862)
(-0.0221537 0 0.143471)
(-0.0187215 0 0.136836)
(-0.0209831 0 0.156438)
(-0.0172948 0 0.149147)
(-0.0195635 0 0.170509)
(-0.0155799 0 0.162587)
(-0.0179246 0 0.185833)
(-0.0135874 0 0.17711)
(-0.0161672 0 0.203918)
(-0.0113501 0 0.193094)
(-0.0142966 0 0.228788)
(-0.0089577 0 0.213139)
(-0.0118514 0 0.26095)
(-0.00629773 0 0.242471)
(-0.00826286 0 0.276642)
(-0.00239942 0 0.276725)
(-0.00502098 0 0.21107)
(0.00154402 0 0.273567)
(-0.0100253 0 -0.00747803)
(0.00429958 0 0.148573)
(-0.0158112 0 -0.408572)
(-0.0151074 0 -0.161)
(-0.0315584 0 -0.850663)
(-0.00556761 0 -0.646358)
(-0.154742 0 -1.05497)
(-0.0892452 0 -1.0015)
(-0.179408 0 -1.06056)
(-0.223406 0 -1.05914)
(-0.144692 0 -1.09693)
(-0.188272 0 -1.07104)
(-0.0671001 0 -1.16037)
(-0.125958 0 -1.16365)
(0.0180276 0 -1.15199)
(-0.0376203 0 -1.21691)
(0.132323 0 -1.10727)
(0.0761968 0 -1.17416)
(0.204088 0 -1.10775)
(0.186742 0 -1.13638)
(0.211799 0 -1.13484)
(0.24255 0 -1.11913)
(0.184667 0 -1.14507)
(0.241098 0 -1.11099)
(0.147539 0 -1.13049)
(0.202801 0 -1.09842)
(0.105546 0 -1.09805)
(0.148682 0 -1.08209)
(0.0699437 0 -1.05527)
(0.0944268 0 -1.05676)
(0.0342621 0 -0.996807)
(0.0468473 0 -1.01043)
(-0.00146769 0 -0.925134)
(0.00231356 0 -0.935136)
(-0.0836515 0 -0.818657)
(-0.0654056 0 -0.835492)
(-0.205566 0 -0.644721)
(-0.181925 0 -0.679084)
(-0.327505 0 -0.429846)
(-0.310633 0 -0.471828)
(-0.423771 0 -0.225798)
(-0.414883 0 -0.265238)
(-0.488192 0 -0.0634633)
(-0.487308 0 -0.0960645)
(-0.522987 0 0.0485805)
(-0.529002 0 0.0241543)
(-0.5351 0 0.114391)
(-0.545787 0 0.0973761)
(-0.533208 0 0.145383)
(-0.546556 0 0.133766)
(-0.524271 0 0.154365)
(-0.538865 0 0.146267)
(-0.512847 0 0.151341)
(-0.527811 0 0.145456)
(-0.501361 0 0.142636)
(-0.51625 0 0.138197)
(-0.49081 0 0.131576)
(-0.505414 0 0.128181)
(-0.481428 0 0.119595)
(-0.495664 0 0.11704)
(-0.473144 0 0.107186)
(-0.486986 0 0.105366)
(-0.465841 0 0.094534)
(-0.479293 0 0.0933849)
(-0.459457 0 0.0818089)
(-0.472536 0 0.0812957)
(-0.453984 0 0.0692363)
(-0.46672 0 0.0693451)
(-0.449431 0 0.0570505)
(-0.461858 0 0.057777)
(-0.445794 0 0.0454584)
(-0.457945 0 0.0467818)
(-0.443043 0 0.0346455)
(-0.454941 0 0.0365056)
(-0.441116 0 0.0247657)
(-0.452771 0 0.0270704)
(-0.439906 0 0.0158521)
(-0.451332 0 0.0185375)
(-0.439271 0 0.00770726)
(-0.450479 0 0.0108123)
(-0.450193 0 0.00358596)
(-0.0138831 0 0.142515)
(-0.0108967 0 0.135729)
(-0.0119156 0 0.155298)
(-0.00871088 0 0.147835)
(-0.0096263 0 0.169189)
(-0.00616461 0 0.161061)
(-0.00704031 0 0.184371)
(-0.00326195 0 0.175386)
(-0.00422202 0 0.202321)
(-3.51341e-05 0 0.191215)
(-0.00107894 0 0.226851)
(0.0034897 0 0.211044)
(0.00297281 0 0.258331)
(0.00753772 0 0.23977)
(0.00821196 0 0.273919)
(0.013077 0 0.273232)
(0.0114376 0 0.211546)
(0.0182523 0 0.271416)
(0.00400195 0 -0.0037835)
(0.0200898 0 0.15353)
(-0.0131065 0 -0.399606)
(-0.00286217 0 -0.149594)
(-0.0518187 0 -0.801844)
(-0.009829 0 -0.62055)
(-0.179229 0 -1.00228)
(-0.106794 0 -0.916564)
(-0.22209 0 -1.06417)
(-0.240933 0 -1.03057)
(-0.173146 0 -1.13933)
(-0.203415 0 -1.10367)
(-0.0883235 0 -1.22158)
(-0.140545 0 -1.22019)
(0.0141844 0 -1.23477)
(-0.0478032 0 -1.28525)
(0.142961 0 -1.19397)
(0.0666574 0 -1.26001)
(0.242141 0 -1.1497)
(0.181551 0 -1.2025)
(0.274965 0 -1.11433)
(0.253125 0 -1.14101)
(0.250856 0 -1.08881)
(0.262781 0 -1.09133)
(0.198259 0 -1.06582)
(0.225243 0 -1.0534)
(0.134312 0 -1.04289)
(0.162316 0 -1.02468)
(0.0718125 0 -1.00838)
(0.0924304 0 -0.997908)
(0.0111255 0 -0.945356)
(0.0235878 0 -0.95048)
(-0.0613086 0 -0.843344)
(-0.0510648 0 -0.860084)
(-0.166017 0 -0.694021)