/*--------------------------------*- C++ -*----------------------------------*\
  =========                 |
  \\      /  F ield         | OpenFOAM: The Open Source CFD Toolbox
   \\    /   O peration     | Website:  https://openfoam.org
    \\  /    A nd           | Version:  9
     \\/     M anipulation  |
\*---------------------------------------------------------------------------*/
FoamFile
{
    format      ascii;
    class       volScalarField;
    location    "0.2";
    object      alpha.water;
}
// * * * * * * * * * * * * * * * * * * * * * * * * * * * * * * * * * * * * * //

dimensions      [0 0 0 0 0 0 0];

internalField   nonuniform List<scalar> 
5000
(
-1.44896e-47
-9.29912e-48
-1.08616e-47
-1.73986e-47
-3.05597e-47
-5.62117e-47
-1.07677e-46
-2.15013e-46
-4.48445e-46
-9.78937e-46
-2.2412e-45
-5.39188e-45
-1.36564e-44
-3.64672e-44
-1.02731e-43
-3.05117e-43
-9.53517e-43
-3.12509e-42
-1.06953e-41
-3.80213e-41
-1.39505e-40
-5.24246e-40
-2.00027e-39
-7.68152e-39
-2.94796e-38
-1.12683e-37
-4.30133e-37
-1.65691e-36
-6.56369e-36
-2.73974e-35
-1.23598e-34
-6.75508e-34
-3.78382e-33
-2.07732e-32
-1.07051e-31
-5.09354e-31
-2.43498e-30
-1.56942e-29
-1.58774e-28
-1.89586e-27
-2.16901e-26
-2.21772e-25
-1.91864e-24
-1.27689e-23
-5.32366e-23
-6.29109e-23
-1.02473e-24
3.06288e-22
2.05745e-20
6.02333e-20
-7.19445e-47
-4.58722e-47
-5.29394e-47
-8.391e-47
-1.4583e-46
-2.65087e-46
-5.01026e-46
-9.85442e-46
-2.02093e-45
-4.33068e-45
-9.71891e-45
-2.2896e-44
-5.67588e-44
-1.48382e-43
-4.09637e-43
-1.19418e-42
-3.66981e-42
-1.18481e-41
-3.99962e-41
-1.40348e-40
-5.08342e-40
-1.88484e-39
-7.08887e-39
-2.67966e-38
-1.01039e-37
-3.78512e-37
-1.41109e-36
-5.2826e-36
-2.0211e-35
-8.10045e-35
-3.50056e-34
-1.83861e-33
-1.00218e-32
-5.43199e-32
-2.79607e-31
-1.32511e-30
-5.92678e-30
-3.02434e-29
-2.36903e-28
-2.55777e-27
-2.84235e-26
-2.85749e-25
-2.43106e-24
-1.58933e-23
-6.46374e-23
-6.73169e-23
-1.05829e-24
4.27694e-22
2.37718e-20
9.89583e-20
-3.33837e-46
-2.11583e-46
-2.41455e-46
-3.78869e-46
-6.51718e-46
-1.17109e-45
-2.18448e-45
-4.23296e-45
-8.53703e-45
-1.79596e-44
-3.95062e-44
-9.11163e-44
-2.20993e-43
-5.65297e-43
-1.52837e-42
-4.37032e-42
-1.31986e-41
-4.19544e-41
-1.39647e-40
-4.83597e-40
-1.72902e-39
-6.32622e-39
-2.34598e-38
-8.73337e-38
-3.23776e-37
-1.18992e-36
-4.33804e-36
-1.58086e-35
-5.85118e-35
-2.25352e-34
-9.32122e-34
-4.69146e-33
-2.47891e-32
-1.32163e-31
-6.77943e-31
-3.21861e-30
-1.40198e-29
-6.10821e-29
-3.50457e-28
-3.08301e-27
-3.19305e-26
-3.10092e-25
-2.54997e-24
-1.60102e-23
-6.1327e-23
-4.56389e-23
-7.79012e-25
6.09982e-22
2.99295e-20
2.18415e-19
-1.45451e-45
-9.16739e-46
-1.03539e-45
-1.60914e-45
-2.74064e-45
-4.86976e-45
-8.96776e-45
-1.71245e-44
-3.39714e-44
-7.01679e-44
-1.51292e-43
-3.41561e-43
-8.10241e-43
-2.02691e-42
-5.36335e-42
-1.5032e-41
-4.45824e-41
-1.39443e-40
-4.57438e-40
-1.56285e-39
-5.51506e-39
-1.99133e-38
-7.28288e-38
-2.67118e-37
-9.74308e-37
-3.51601e-36
-1.25509e-35
-4.45941e-35
-1.59959e-34
-5.92733e-34
-2.34608e-33
-1.12873e-32
-5.76024e-32
-3.00972e-31
-1.53407e-30
-7.30584e-30
-3.1704e-29
-1.28029e-28
-5.62526e-28
-3.57161e-27
-3.16441e-26
-2.89027e-25
-2.26802e-24
-1.34831e-23
-4.73789e-23
-2.14612e-23
6.30756e-26
1.43919e-21
6.17749e-20
5.09784e-19
-5.97176e-45
-3.74551e-45
-4.19133e-45
-6.45545e-45
-1.08903e-44
-1.91413e-44
-3.48103e-44
-6.55259e-44
-1.27894e-43
-2.59414e-43
-5.48294e-43
-1.21159e-42
-2.81028e-42
-6.87211e-42
-1.7785e-41
-4.88204e-41
-1.42085e-40
-4.36979e-40
-1.41201e-39
-4.75768e-39
-1.65675e-38
-5.90327e-38
-2.12964e-37
-7.69846e-37
-2.76426e-36
-9.80344e-36
-3.43047e-35
-1.19023e-34
-4.14523e-34
-1.4803e-33
-5.60782e-33
-2.57407e-32
-1.26433e-31
-6.45101e-31
-3.25743e-30
-1.55456e-29
-6.78777e-29
-2.68407e-28
-1.0131e-27
-4.48854e-27
-2.93023e-26
-2.36653e-25
-1.74811e-24
-9.68415e-24
-2.96296e-23
-7.25627e-24
1.48846e-23
4.50373e-21
1.53182e-19
8.34472e-19
-2.31795e-44
-1.44804e-44
-1.6075e-44
-2.45518e-44
-4.10417e-44
-7.1382e-44
-1.28243e-43
-2.38043e-43
-4.57266e-43
-9.1104e-43
-1.88786e-42
-4.0833e-42
-9.25941e-42
-2.21245e-41
-5.59679e-41
-1.50356e-40
-4.29054e-40
-1.29651e-39
-4.12403e-39
-1.36977e-38
-4.70564e-38
-1.65447e-37
-5.88796e-37
-2.09839e-36
-7.42094e-36
-2.58839e-35
-8.8883e-35
-3.01583e-34
-1.02168e-33
-3.52269e-33
-1.27824e-32
-5.59021e-32
-2.63429e-31
-1.30798e-30
-6.52361e-30
-3.11348e-29
-1.37164e-28
-5.45386e-28
-1.95636e-27
-6.79559e-27
-2.88481e-26
-1.76984e-25
-1.1867e-24
-5.99015e-24
-1.5047e-23
-1.29435e-24
1.05422e-22
1.28365e-20
3.15622e-19
1.18946e-18
-8.53858e-44
-5.31517e-44
-5.85999e-44
-8.8809e-44
-1.47164e-43
-2.53369e-43
-4.49851e-43
-8.23695e-43
-1.55781e-42
-3.04964e-42
-6.19728e-42
-1.31219e-41
-2.90885e-41
-6.78951e-41
-1.67794e-40
-4.40836e-40
-1.23241e-39
-3.6561e-39
-1.144e-38
-3.7436e-38
-1.26829e-37
-4.39934e-37
-1.54453e-36
-5.42783e-36
-1.89136e-35
-6.49229e-35
-2.18987e-34
-7.2762e-34
-2.40204e-33
-8.01267e-33
-2.78862e-32
-1.1609e-31
-5.23316e-31
-2.5199e-30
-1.23777e-29
-5.89375e-29
-2.61808e-28
-1.05653e-27
-3.79729e-27
-1.20718e-26
-3.62276e-26
-1.34713e-25
-7.14026e-25
-3.15315e-24
-6.02306e-24
2.83176e-24
4.31083e-22
2.64349e-20
5.02107e-19
1.96201e-18
-2.99373e-43
-1.85744e-43
-2.03596e-43
-3.06365e-43
-5.03462e-43
-8.58374e-43
-1.50673e-42
-2.72264e-42
-5.07167e-42
-9.75939e-42
-1.94554e-41
-4.03355e-41
-8.74169e-41
-1.99281e-40
-4.8094e-40
-1.23487e-39
-3.37933e-39
-9.83395e-39
-3.02462e-38
-9.74552e-38
-3.25465e-37
-1.11354e-36
-3.85648e-36
-1.33657e-35
-4.59041e-35
-1.55155e-34
-5.14494e-34
-1.67611e-33
-5.40119e-33
-1.7467e-32
-5.84052e-32
-2.31367e-31
-9.95119e-31
-4.63102e-30
-2.23375e-29
-1.0585e-28
-4.73122e-28
-1.93996e-27
-7.11764e-27
-2.26076e-26
-5.95366e-26
-1.33701e-25
-3.86015e-25
-1.42273e-24
-1.67896e-24
1.93973e-23
1.08507e-21
3.92367e-20
6.42847e-19
4.03197e-18
-1.00187e-42
-6.19586e-43
-6.75826e-43
-1.01039e-42
-1.64734e-42
-2.78243e-42
-4.83068e-42
-8.61816e-42
-1.58194e-41
-2.99364e-41
-5.85684e-41
-1.18934e-40
-2.52043e-40
-5.6115e-40
-1.32205e-39
-3.31548e-39
-8.8745e-39
-2.53105e-38
-7.64594e-38
-2.4241e-37
-7.97651e-37
-2.691e-36
-9.19248e-36
-3.14217e-35
-1.06394e-34
-3.54258e-34
-1.15571e-33
-3.69554e-33
-1.16429e-32
-3.65775e-32
-1.17743e-31
-4.44014e-31
-1.81774e-30
-8.14719e-30
-3.84722e-29
-1.80964e-28
-8.11738e-28
-3.3742e-27
-1.26729e-26
-4.14009e-26
-1.09308e-25
-2.02327e-25
-2.32505e-25
-5.39146e-25
-2.53947e-25
5.52145e-23
1.78736e-21
4.57482e-20
7.28147e-19
8.00109e-18
-3.20759e-42
-1.97726e-42
-2.14805e-42
-3.19259e-42
-5.16648e-42
-8.64853e-42
-1.48573e-41
-2.6182e-41
-4.73818e-41
-8.82226e-41
-1.69475e-40
-3.37235e-40
-6.99011e-40
-1.52004e-39
-3.49521e-39
-8.55692e-39
-2.23861e-38
-6.25213e-38
-1.85346e-37
-5.77804e-37
-1.87228e-36
-6.22615e-36
-2.09749e-35
-7.07137e-35
-2.361e-34
-7.74747e-34
-2.48812e-33
-7.81682e-33
-2.4112e-32
-7.37333e-32
-2.28987e-31
-8.2282e-31
-3.20009e-30
-1.37644e-29
-6.34288e-29
-2.95375e-28
-1.32588e-27
-5.56779e-27
-2.13388e-26
-7.19284e-26
-1.979e-25
-3.75136e-25
-2.9422e-25
-1.70509e-25
1.00103e-24
9.23145e-23
2.21268e-21
4.65732e-20
7.95628e-19
1.33859e-17
-9.84734e-42
-6.04934e-42
-6.54998e-42
-9.68355e-42
-1.55608e-41
-2.58266e-41
-4.39213e-41
-7.64902e-41
-1.36546e-40
-2.50294e-40
-4.72371e-40
-9.21545e-40
-1.86907e-39
-3.97049e-39
-8.90994e-39
-2.12857e-38
-5.43898e-38
-1.48626e-37
-4.32023e-37
-1.32329e-36
-4.22002e-36
-1.38273e-35
-4.5929e-35
-1.52715e-34
-5.02855e-34
-1.62668e-33
-5.14554e-33
-1.58959e-32
-4.80689e-32
-1.43343e-31
-4.30444e-31
-1.47596e-30
-5.44619e-30
-2.23977e-29
-1.00379e-28
-4.61506e-28
-2.06712e-27
-8.73622e-27
-3.39963e-26
-1.17623e-25
-3.37493e-25
-6.87256e-25
-6.21389e-25
-4.0276e-26
2.11592e-24
1.07515e-22
2.29286e-21
4.6179e-20
8.69562e-19
1.87063e-17
-2.90517e-41
-1.77777e-41
-1.91951e-41
-2.82429e-41
-4.50854e-41
-7.42241e-41
-1.25014e-40
-2.15267e-40
-3.79277e-40
-6.84845e-40
-1.27057e-39
-2.43164e-39
-4.82819e-39
-1.00228e-38
-2.19509e-38
-5.1157e-38
-1.27597e-37
-3.40875e-37
-9.7071e-37
-2.91905e-36
-9.15582e-36
-2.95459e-35
-9.67391e-35
-3.17214e-34
-1.0302e-33
-3.28618e-33
-1.02433e-32
-3.1139e-32
-9.24186e-32
-2.69213e-31
-7.83417e-31
-2.56806e-30
-8.98481e-30
-3.52065e-29
-1.52863e-28
-6.91916e-28
-3.08363e-27
-1.30672e-26
-5.13624e-26
-1.81114e-25
-5.3704e-25
-1.16459e-24
-1.25497e-24
-2.61752e-26
2.14564e-24
1.07798e-22
2.275e-21
4.61638e-20
9.59057e-19
2.30577e-17
-8.25022e-41
-5.02673e-41
-5.41516e-41
-7.93346e-41
-1.25861e-40
-2.05612e-40
-3.43135e-40
-5.84511e-40
-1.01701e-39
-1.81007e-39
-3.30346e-39
-6.20614e-39
-1.2071e-38
-2.44979e-38
-5.23716e-38
-1.19046e-37
-2.8969e-37
-7.56029e-37
-2.10738e-36
-6.21654e-36
-1.91648e-35
-6.08786e-35
-1.96422e-34
-6.35095e-34
-2.03438e-33
-6.40029e-33
-1.96669e-32
-5.88702e-32
-1.71659e-31
-4.89216e-31
-1.38259e-30
-4.34189e-30
-1.4403e-29
-5.3604e-29
-2.24579e-28
-9.97624e-28
-4.4116e-27
-1.86788e-26
-7.37956e-26
-2.63375e-25
-7.98978e-25
-1.81338e-24
-2.20485e-24
-5.06883e-26
1.85717e-24
1.06089e-22
2.24932e-21
4.69003e-20
1.05011e-18
2.6083e-17
-2.25836e-40
-1.36952e-40
-1.47281e-40
-2.14941e-40
-3.39007e-40
-5.49772e-40
-9.09482e-40
-1.53338e-39
-2.63624e-39
-4.62779e-39
-8.31411e-39
-1.5344e-38
-2.92546e-38
-5.80762e-38
-1.21228e-37
-2.68765e-37
-6.37827e-37
-1.62504e-36
-4.43019e-36
-1.28093e-35
-3.87857e-35
-1.21215e-34
-3.85248e-34
-1.22802e-33
-3.87983e-33
-1.20404e-32
-3.64844e-32
-1.07598e-31
-3.08518e-31
-8.61443e-31
-2.36925e-30
-7.14444e-30
-2.24827e-29
-7.92522e-29
-3.19073e-28
-1.38641e-27
-6.06595e-27
-2.55781e-26
-1.01118e-25
-3.63004e-25
-1.11657e-24
-2.61212e-24
-3.43345e-24
-1.02628e-25
1.35162e-24
1.02979e-22
2.23354e-21
4.88505e-20
1.12225e-18
2.63686e-17
-5.96611e-40
-3.59984e-40
-3.86702e-40
-5.62398e-40
-8.82134e-40
-1.42064e-39
-2.33065e-39
-3.89116e-39
-6.61409e-39
-1.14594e-38
-2.02811e-38
-3.67974e-38
-6.88233e-38
-1.33735e-37
-2.72694e-37
-5.8972e-37
-1.36453e-36
-3.39195e-36
-9.03711e-36
-2.55905e-35
-7.60497e-35
-2.33695e-34
-7.31328e-34
-2.29766e-33
-7.15922e-33
-2.19172e-32
-6.5507e-32
-1.90425e-31
-5.3734e-31
-1.47184e-30
-3.94712e-30
-1.14566e-29
-3.42392e-29
-1.14045e-28
-4.39383e-28
-1.86106e-27
-8.03384e-27
-3.36308e-26
-1.32495e-25
-4.75829e-25
-1.47268e-24
-3.50792e-24
-4.84569e-24
-1.69624e-25
9.22904e-25
9.90493e-23
2.21413e-21
4.96525e-20
1.12079e-18
2.52002e-17
-1.52279e-39
-9.13954e-40
-9.81308e-40
-1.42274e-39
-2.21998e-39
-3.55162e-39
-5.78071e-39
-9.56191e-39
-1.60785e-38
-2.75126e-38
-4.80037e-38
-8.5695e-38
-1.57359e-37
-2.99523e-37
-5.96945e-37
-1.25959e-36
-2.84142e-36
-6.88842e-36
-1.79236e-35
-4.96685e-35
-1.44761e-34
-4.37118e-34
-1.34627e-33
-4.16749e-33
-1.28044e-32
-3.86691e-32
-1.14017e-31
-3.26821e-31
-9.0819e-31
-2.44313e-30
-6.40007e-30
-1.79245e-29
-5.09565e-29
-1.60086e-28
-5.8768e-28
-2.41778e-27
-1.02695e-26
-4.25528e-26
-1.66442e-25
-5.95003e-25
-1.84053e-24
-4.4189e-24
-6.28727e-24
-2.80129e-25
6.39111e-25
9.39747e-23
2.15419e-21
4.88158e-20
1.06593e-18
2.15563e-17
-3.75864e-39
-2.24344e-39
-2.40914e-39
-3.48327e-39
-5.40835e-39
-8.59832e-39
-1.38902e-38
-2.27745e-38
-3.79063e-38
-6.41044e-38
-1.10352e-37
-1.93991e-37
-3.50037e-37
-6.53198e-37
-1.27328e-36
-2.62266e-36
-5.76847e-36
-1.36345e-35
-3.46272e-35
-9.38356e-35
-2.68022e-34
-7.9475e-34
-2.40774e-33
-7.34097e-33
-2.22349e-32
-6.62346e-32
-1.92675e-31
-5.44728e-31
-1.49152e-30
-3.94447e-30
-1.01103e-29
-2.7389e-29
-7.42174e-29
-2.19657e-28
-7.65015e-28
-3.04526e-27
-1.26925e-26
-5.19163e-26
-2.0091e-25
-7.11656e-25
-2.18669e-24
-5.24393e-24
-7.55893e-24
-5.01354e-25
5.56589e-25
8.65726e-23
2.01966e-21
4.53381e-20
9.11961e-19
1.59539e-17
-8.97748e-39
-5.32855e-39
-5.72664e-39
-8.26001e-39
-1.27653e-38
-2.01742e-38
-3.23599e-38
-5.26185e-38
-8.67394e-38
-1.45071e-37
-2.4658e-37
-4.27227e-37
-7.58204e-37
-1.38836e-36
-2.64922e-36
-5.32998e-36
-1.14335e-35
-2.63455e-35
-6.5278e-35
-1.72874e-34
-4.83566e-34
-1.40715e-33
-4.19104e-33
-1.25799e-32
-3.75511e-32
-1.10315e-31
-3.16587e-31
-8.82942e-31
-2.38314e-30
-6.20099e-30
-1.55747e-29
-4.09082e-29
-1.05917e-28
-2.95181e-28
-9.7119e-28
-3.72488e-27
-1.51915e-26
-6.1179e-26
-2.33477e-25
-8.15885e-25
-2.47558e-24
-5.87836e-24
-8.44788e-24
-6.67082e-25
3.95108e-25
7.93408e-23
1.8045e-21
3.79861e-20
6.96147e-19
1.11099e-17
-2.07602e-38
-1.22551e-38
-1.31891e-38
-1.89843e-38
-2.92109e-38
-4.59058e-38
-7.31429e-38
-1.18007e-37
-1.92778e-37
-3.19086e-37
-5.35942e-37
-9.16009e-37
-1.60042e-36
-2.87845e-36
-5.38164e-36
-1.05839e-35
-2.21533e-35
-4.97678e-35
-1.20272e-34
-3.11101e-34
-8.51664e-34
-2.43051e-33
-7.11257e-33
-2.10081e-32
-6.17773e-32
-1.78934e-31
-5.06532e-31
-1.39363e-30
-3.70901e-30
-9.50209e-30
-2.34167e-29
-5.97674e-29
-1.48253e-28
-3.89176e-28
-1.20478e-27
-4.43178e-27
-1.76332e-26
-6.97363e-26
-2.61615e-25
-8.98021e-25
-2.67459e-24
-6.23246e-24
-8.78261e-24
-6.14946e-25
4.24214e-25
8.20365e-23
1.59801e-21
3.01434e-20
5.15846e-19
8.03774e-18
-4.64712e-38
-2.73045e-38
-2.94494e-38
-4.23151e-38
-6.4843e-38
-1.01365e-37
-1.60495e-37
-2.57048e-37
-4.16383e-37
-6.8254e-37
-1.13374e-36
-1.91323e-36
-3.29403e-36
-5.82514e-36
-1.06819e-35
-2.0554e-35
-4.20054e-35
-9.20273e-35
-2.16888e-34
-5.47728e-34
-1.46662e-33
-4.10222e-33
-1.17881e-32
-3.42442e-32
-9.91617e-32
-2.8308e-31
-7.90286e-31
-2.14484e-30
-5.62946e-30
-1.4207e-29
-3.43904e-29
-8.54705e-29
-2.03685e-28
-5.04177e-28
-1.46325e-27
-5.13697e-27
-1.98749e-26
-7.69877e-26
-2.82999e-25
-9.4993e-25
-2.75907e-24
-6.2462e-24
-8.4658e-24
-4.82177e-25
1.76284e-24
1.06177e-22
1.61062e-21
2.46842e-20
4.06164e-19
6.16794e-18
-1.00789e-37
-5.89707e-38
-6.37876e-38
-9.15203e-38
-1.39705e-37
-2.17308e-37
-3.42053e-37
-5.44101e-37
-8.74463e-37
-1.42057e-36
-2.33545e-36
-3.89476e-36
-6.61454e-36
-1.15131e-35
-2.07298e-35
-3.90664e-35
-7.80143e-35
-1.66756e-34
-3.83289e-34
-9.44767e-34
-2.47317e-33
-6.77617e-33
-1.91102e-32
-5.45712e-32
-1.55537e-31
-4.37453e-31
-1.20401e-30
-3.22279e-30
-8.34215e-30
-2.07464e-29
-4.93741e-29
-1.19706e-28
-2.74847e-28
-6.42626e-28
-1.74321e-27
-5.80977e-27
-2.1779e-26
-8.24033e-26
-2.958e-25
-9.66165e-25
-2.71628e-24
-5.89817e-24
-7.43942e-24
-2.35192e-25
1.14173e-23
2.16886e-22
1.84916e-21
2.35597e-20
3.53946e-19
5.77745e-18
-2.11771e-37
-1.2354e-37
-1.34062e-37
-1.9211e-37
-2.92231e-37
-4.52474e-37
-7.08342e-37
-1.11966e-36
-1.78645e-36
-2.87804e-36
-4.68675e-36
-7.7309e-36
-1.2964e-35
-2.2234e-35
-3.93531e-35
-7.27152e-35
-1.42024e-34
-2.96368e-34
-6.64511e-34
-1.59852e-33
-4.08944e-33
-1.09702e-32
-3.03475e-32
-8.51456e-32
-2.38748e-31
-6.6127e-31
-1.79366e-30
-4.73381e-30
-1.20833e-29
-2.96187e-29
-6.93508e-29
-1.64286e-28
-3.64418e-28
-8.06723e-28
-2.04066e-27
-6.42052e-27
-2.32264e-26
-8.55822e-26
-2.989e-25
-9.4471e-25
-2.54776e-24
-5.215e-24
-5.74829e-24
-5.12278e-26
5.69552e-23
6.32842e-22
2.91183e-21
2.48992e-20
3.47412e-19
6.29923e-18
-4.31695e-37
-2.512e-37
-2.73499e-37
-3.9151e-37
-5.93633e-37
-9.15337e-37
-1.42582e-36
-2.24073e-36
-3.55143e-36
-5.67804e-36
-9.16608e-36
-1.49683e-35
-2.48086e-35
-4.19706e-35
-7.31099e-35
-1.32608e-34
-2.53585e-34
-5.16995e-34
-1.13124e-33
-2.65586e-33
-6.63851e-33
-1.7429e-32
-4.72733e-32
-1.30254e-31
-3.59149e-31
-9.79164e-31
-2.61631e-30
-6.80569e-30
-1.7127e-29
-4.13805e-29
-9.53743e-29
-2.21053e-28
-4.74946e-28
-9.98232e-28
-2.35118e-27
-6.94306e-27
-2.41278e-26
-8.62924e-26
-2.92015e-25
-8.87241e-25
-2.2688e-24
-4.25543e-24
-3.43679e-24
1.15667e-24
2.18802e-22
1.97287e-21
6.49229e-21
3.00452e-20
3.56048e-19
7.79533e-18
-8.53914e-37
-4.95829e-37
-5.41857e-37
-7.75017e-37
-1.17164e-36
-1.79968e-36
-2.79071e-36
-4.36265e-36
-6.87277e-36
-1.09123e-35
-1.74763e-35
-2.82781e-35
-4.63689e-35
-7.74664e-35
-1.32962e-34
-2.37024e-34
-4.44275e-34
-8.8572e-34
-1.89238e-33
-4.33693e-33
-1.05908e-32
-2.7206e-32
-7.23243e-32
-1.95622e-31
-5.30171e-31
-1.42213e-30
-3.74146e-30
-9.58841e-30
-2.3782e-29
-5.66308e-29
-1.28522e-28
-2.91762e-28
-6.08632e-28
-1.21825e-27
-2.67021e-27
-7.35677e-27
-2.44311e-26
-8.44904e-26
-2.7571e-25
-7.98951e-25
-1.90814e-24
-3.14979e-24
-1.45902e-24
8.50797e-24
6.95787e-22
5.79216e-21
1.66116e-20
4.35668e-20
3.57268e-19
1.03492e-17
-1.63853e-36
-9.50012e-37
-1.04278e-36
-1.49069e-36
-2.24749e-36
-3.4401e-36
-5.31289e-36
-8.26609e-36
-1.29511e-35
-2.04351e-35
-3.24933e-35
-5.21413e-35
-8.46694e-35
-1.39841e-34
-2.36783e-34
-4.15356e-34
-7.64002e-34
-1.49092e-33
-3.11256e-33
-6.96586e-33
-1.66201e-32
-4.17677e-32
-1.08798e-31
-2.88778e-31
-7.68966e-31
-2.02852e-30
-5.25218e-30
-1.32542e-29
-3.23865e-29
-7.59902e-29
-1.69836e-28
-3.77946e-28
-7.67086e-28
-1.46693e-27
-2.99308e-27
-7.64794e-27
-2.41252e-26
-8.03191e-26
-2.51311e-25
-6.87639e-25
-1.49866e-24
-1.99501e-24
-2.51587e-25
3.76756e-23
1.91726e-21
1.54901e-20
4.17675e-20
7.38465e-20
3.45159e-19
1.5139e-17
-3.04857e-36
-1.76668e-36
-1.94932e-36
-2.7861e-36
-4.19066e-36
-6.39425e-36
-9.8397e-36
-1.52449e-35
-2.37699e-35
-3.72977e-35
-5.89277e-35
-9.38573e-35
-1.51078e-34
-2.46944e-34
-4.12981e-34
-7.13748e-34
-1.28992e-33
-2.46668e-33
-5.03603e-33
-1.10117e-32
-2.56755e-32
-6.31237e-32
-1.61088e-31
-4.19477e-31
-1.09712e-30
-2.84511e-30
-7.24618e-30
-1.79972e-29
-4.33015e-29
-1.00076e-28
-2.20256e-28
-4.80762e-28
-9.51085e-28
-1.74326e-27
-3.31502e-27
-7.81027e-27
-2.3239e-26
-7.40876e-26
-2.20757e-25
-5.63096e-25
-1.08325e-24
-9.95509e-25
5.28442e-25
1.27401e-22
4.70354e-21
3.74677e-20
9.82399e-20
1.38617e-19
3.34466e-19
2.89876e-17
-5.49647e-36
-3.18815e-36
-3.53905e-36
-5.0593e-36
-7.59499e-36
-1.15576e-35
-1.77294e-35
-2.737e-35
-4.24964e-35
-6.63596e-35
-1.04257e-34
-1.64964e-34
-2.63469e-34
-4.26663e-34
-7.05573e-34
-1.20293e-33
-2.13868e-33
-4.01221e-33
-8.01836e-33
-1.71415e-32
-3.90725e-32
-9.39857e-32
-2.34964e-31
-6.00182e-31
-1.54143e-30
-3.92819e-30
-9.83678e-30
-2.40321e-29
-5.69026e-29
-1.29473e-28
-2.80556e-28
-6.00852e-28
-1.16034e-27
-2.04477e-27
-3.63112e-27
-7.84469e-27
-2.18369e-26
-6.62357e-26
-1.86334e-25
-4.34967e-25
-6.97813e-25
-3.56872e-25
4.28635e-24
3.5732e-22
1.04632e-20
8.22665e-20
2.14019e-19
2.72763e-19
4.19453e-19
7.56607e-17
-9.59704e-36
-5.58169e-36
-6.23863e-36
-8.92417e-36
-1.33771e-35
-2.03125e-35
-3.10789e-35
-4.78368e-35
-7.4014e-35
-1.15103e-34
-1.79972e-34
-2.83146e-34
-4.49138e-34
-7.21371e-34
-1.18099e-33
-1.98869e-33
-3.48264e-33
-6.41743e-33
-1.25673e-32
-2.62868e-32
-5.86046e-32
-1.37957e-31
-3.37897e-31
-8.46595e-31
-2.13473e-30
-5.3446e-30
-1.31537e-29
-3.15934e-29
-7.35716e-29
-1.64713e-28
-3.51275e-28
-7.3822e-28
-1.39331e-27
-2.36742e-27
-3.93615e-27
-7.75845e-27
-2.00116e-26
-5.72901e-26
-1.50483e-25
-3.12769e-25
-3.76573e-25
-3.25138e-26
1.87331e-23
8.78005e-22
2.13976e-20
1.65552e-19
4.32777e-19
5.33433e-19
8.01108e-19
2.21474e-16
-1.62162e-35
-9.47775e-36
-1.06742e-35
-1.52858e-35
-2.28915e-35
-3.47056e-35
-5.29972e-35
-8.13894e-35
-1.25579e-34
-1.94653e-34
-3.03151e-34
-4.74656e-34
-7.48522e-34
-1.19364e-33
-1.93684e-33
-3.22531e-33
-5.57063e-33
-1.00953e-32
-1.93939e-32
-3.97264e-32
-8.66781e-32
-1.99756e-31
-4.79418e-31
-1.17824e-30
-2.91675e-30
-7.17286e-30
-1.7344e-29
-4.09338e-29
-9.36895e-29
-2.06249e-28
-4.32678e-28
-8.92147e-28
-1.64711e-27
-2.70544e-27
-4.22438e-27
-7.56356e-27
-1.78744e-26
-4.78111e-26
-1.15476e-25
-2.04973e-25
-1.55729e-25
6.64197e-25
5.92771e-23
1.95044e-21
4.06462e-20
3.08617e-19
8.17866e-19
1.00448e-18
1.84253e-18
6.18813e-16
-2.64969e-35
-1.56033e-35
-1.77195e-35
-2.54148e-35
-3.80476e-35
-5.76331e-35
-8.79002e-35
-1.34787e-34
-2.07561e-34
-3.20941e-34
-4.98298e-34
-7.77186e-34
-1.21968e-33
-1.93318e-33
-3.11263e-33
-5.13212e-33
-8.75351e-33
-1.56214e-32
-2.94747e-32
-5.91843e-32
-1.26469e-31
-2.85466e-31
-6.7152e-31
-1.61907e-30
-3.93493e-30
-9.50402e-30
-2.25721e-29
-5.23227e-29
-1.17629e-28
-2.54436e-28
-5.24715e-28
-1.06115e-27
-1.91748e-27
-3.05143e-27
-4.48949e-27
-7.27513e-27
-1.55456e-26
-3.83458e-26
-8.31791e-26
-1.15759e-25
-2.57437e-26
3.20983e-24
1.54174e-22
3.98583e-21
7.22575e-20
5.37421e-19
1.45423e-18
1.81001e-18
5.04234e-18
1.56277e-15
-4.1838e-35
-2.48982e-35
-2.8527e-35
-4.10006e-35
-6.14011e-35
-9.29956e-35
-1.41772e-34
-2.17243e-34
-3.34169e-34
-5.15903e-34
-7.99275e-34
-1.24298e-33
-1.94324e-33
-3.0647e-33
-4.90211e-33
-8.01273e-33
-1.3514e-32
-2.37804e-32
-4.41238e-32
-8.69433e-32
-1.82102e-31
-4.02818e-31
-9.29089e-31
-2.19806e-30
-5.24525e-30
-1.24425e-29
-2.90205e-29
-6.60446e-29
-1.4575e-28
-3.09527e-28
-6.2702e-28
-1.243e-27
-2.19888e-27
-3.39651e-27
-4.72451e-27
-6.90952e-27
-1.31434e-26
-2.9384e-26
-5.53122e-26
-5.25084e-26
8.9229e-26
1.03746e-23
3.49633e-22
7.56908e-21
1.20948e-19
8.80901e-19
2.45074e-18
3.12584e-18
1.49305e-17
3.54644e-15
-6.38004e-35
-3.84994e-35
-4.45235e-35
-6.41567e-35
-9.61795e-35
-1.45767e-34
-2.22315e-34
-3.40716e-34
-5.24001e-34
-8.08473e-34
-1.25104e-33
-1.9418e-33
-3.02739e-33
-4.75603e-33
-7.56635e-33
-1.22758e-32
-2.04996e-32
-3.56176e-32
-6.50738e-32
-1.25971e-31
-2.58848e-31
-5.61489e-31
-1.27034e-30
-2.94986e-30
-6.91285e-30
-1.61065e-29
-3.68888e-29
-8.23968e-29
-1.78396e-28
-3.71668e-28
-7.3892e-28
-1.4348e-27
-2.48473e-27
-3.73068e-27
-4.92195e-27
-6.48283e-27
-1.07745e-26
-2.12626e-26
-3.2094e-26
-1.17913e-26
4.9253e-25
2.69124e-23
7.14189e-22
1.34447e-20
1.91529e-19
1.36747e-18
3.93548e-18
5.1884e-18
4.32565e-17
7.28572e-15
-9.39295e-35
-5.76797e-35
-6.73497e-35
-9.73467e-35
-1.46197e-34
-2.21906e-34
-3.38889e-34
-5.19919e-34
-8.00215e-34
-1.23506e-33
-1.91072e-33
-2.96308e-33
-4.61187e-33
-7.22532e-33
-1.14461e-32
-1.84558e-32
-3.05561e-32
-5.24926e-32
-9.45607e-32
-1.80054e-31
-3.63327e-31
-7.73405e-31
-1.71723e-30
-3.91521e-30
-9.0125e-30
-2.06281e-29
-4.6393e-29
-1.01686e-28
-2.15886e-28
-4.40901e-28
-8.5947e-28
-1.63313e-27
-2.76767e-27
-4.04323e-27
-5.074e-27
-6.00975e-27
-8.53444e-27
-1.43161e-26
-1.5286e-26
1.64874e-26
1.6444e-24
5.99798e-23
1.33808e-21
2.245e-20
2.87867e-19
2.01029e-18
6.05615e-18
8.50833e-18
1.23683e-16
1.36819e-14
-1.33504e-34
-8.37332e-35
-9.87313e-35
-1.43212e-34
-2.15625e-34
-3.28064e-34
-5.02146e-34
-7.71886e-34
-1.19006e-33
-1.83917e-33
-2.84751e-33
-4.41652e-33
-6.87009e-33
-1.07458e-32
-1.69711e-32
-2.723e-32
-4.47575e-32
-7.61296e-32
-1.35405e-31
-2.53924e-31
-5.03702e-31
-1.05302e-30
-2.29581e-30
-5.14137e-30
-1.16287e-29
-2.6152e-29
-5.77623e-29
-1.24224e-28
-2.58515e-28
-5.17166e-28
-9.87503e-28
-1.83419e-27
-3.03996e-27
-4.32333e-27
-5.17279e-27
-5.50133e-27
-6.48758e-27
-8.606e-27
-4.03689e-27
1.08421e-25
4.24989e-24
1.19045e-22
2.32433e-21
3.53854e-20
4.12058e-19
2.79603e-18
8.98041e-18
1.45935e-17
3.26371e-16
2.3715e-14
-1.83256e-34
-1.17814e-34
-1.40286e-34
-2.043e-34
-3.08614e-34
-4.71064e-34
-7.2329e-34
-1.11499e-33
-1.7236e-33
-2.66977e-33
-4.14082e-33
-6.43028e-33
-1.00077e-32
-1.56458e-32
-2.46639e-32
-3.94285e-32
-6.44272e-32
-1.08657e-31
-1.91082e-31
-3.53372e-31
-6.89848e-31
-1.41752e-30
-3.03649e-30
-6.68219e-30
-1.48552e-29
-3.28347e-29
-7.12356e-29
-1.50319e-28
-3.06541e-28
-6.00312e-28
-1.12168e-27
-2.03399e-27
-3.29387e-27
-4.5606e-27
-5.21071e-27
-4.96431e-27
-4.68049e-27
-4.37246e-27
3.31635e-27
3.43556e-25
9.29883e-24
2.14901e-22
3.77111e-21
5.2848e-20
5.64818e-19
3.71022e-18
1.2909e-17
2.70308e-17
7.60888e-16
3.82668e-14
-2.43144e-34
-1.60756e-34
-1.93296e-34
-2.82732e-34
-4.28809e-34
-6.57195e-34
-1.013e-33
-1.56739e-33
-2.43151e-33
-3.77831e-33
-5.87632e-33
-9.14597e-33
-1.42569e-32
-2.23029e-32
-3.51341e-32
-5.60324e-32
-9.11432e-32
-1.52625e-31
-2.6576e-31
-4.85317e-31
-9.33451e-31
-1.88698e-30
-3.97403e-30
-8.59783e-30
-1.8794e-29
-4.08406e-29
-8.70543e-29
-1.80265e-28
-3.60175e-28
-6.90092e-28
-1.26056e-27
-2.22859e-27
-3.52213e-27
-4.74575e-27
-5.18118e-27
-4.40237e-27
-3.1443e-27
-1.67727e-27
2.51398e-26
8.18062e-25
1.79367e-23
3.5768e-22
5.75167e-21
7.51462e-20
7.46808e-19
4.76879e-18
1.81242e-17
5.24243e-17
1.56219e-15
5.78893e-14
-3.12219e-34
-2.12904e-34
-2.58491e-34
-3.79896e-34
-5.78861e-34
-8.91323e-34
-1.38017e-33
-2.1451e-33
-3.34217e-33
-5.21443e-33
-8.13988e-33
-1.27102e-32
-1.9865e-32
-3.11293e-32
-4.90621e-32
-7.81552e-32
-1.26721e-31
-2.10996e-31
-3.64297e-31
-6.57812e-31
-1.24801e-30
-2.48424e-30
-5.14733e-30
-1.0954e-29
-2.35532e-29
-5.03377e-29
-1.05454e-28
-2.14328e-28
-4.19562e-28
-7.86163e-28
-1.4026e-27
-2.41421e-27
-3.71831e-27
-4.87116e-27
-5.07943e-27
-3.81736e-27
-1.85021e-27
-7.97738e-29
7.57783e-26
1.6509e-24
3.12324e-23
5.54507e-22
8.30623e-21
1.02427e-19
9.60189e-19
6.01932e-18
2.50393e-17
1.00521e-16
2.86339e-15
8.25827e-14
-3.88659e-34
-2.7402e-34
-3.35924e-34
-4.96172e-34
-7.59887e-34
-1.17613e-33
-1.83061e-33
-2.85989e-33
-4.47836e-33
-7.02089e-33
-1.10098e-32
-1.72633e-32
-2.70783e-32
-4.25497e-32
-6.71684e-32
-1.07005e-31
-1.73167e-31
-2.87086e-31
-4.92179e-31
-8.79961e-31
-1.64872e-30
-3.23475e-30
-6.59887e-30
-1.38206e-29
-2.92438e-29
-6.14912e-29
-1.2665e-28
-2.52724e-28
-4.84757e-28
-8.88061e-28
-1.54624e-27
-2.58742e-27
-3.87707e-27
-4.9313e-27
-4.9034e-27
-3.21478e-27
-9.17944e-28
3.15093e-27
1.67808e-25
2.95824e-24
4.98858e-23
8.08292e-22
1.1461e-20
1.35045e-19
1.21029e-18
7.52773e-18
3.42062e-17
1.82835e-16
4.76037e-15
1.11703e-13
-4.70315e-34
-3.43382e-34
-4.24913e-34
-6.30793e-34
-9.71235e-34
-1.51162e-33
-2.36611e-33
-3.71752e-33
-5.85415e-33
-9.22833e-33
-1.45482e-32
-2.29255e-32
-3.61209e-32
-5.69698e-32
-9.01701e-32
-1.43822e-31
-2.32595e-31
-3.84457e-31
-6.55365e-31
-1.16171e-30
-2.1521e-30
-4.16589e-30
-8.37356e-30
-1.72695e-29
-3.59755e-29
-7.44547e-29
-1.50827e-28
-2.95597e-28
-5.55691e-28
-9.95182e-28
-1.68989e-27
-2.7452e-27
-3.99444e-27
-4.92295e-27
-4.65333e-27
-2.59524e-27
-3.65346e-28
1.16087e-26
3.14304e-25
4.82174e-24
7.40416e-23
1.11947e-21
1.52795e-20
1.74073e-19
1.50742e-18
9.37144e-18
4.62664e-17
3.10004e-16
7.28574e-15
1.44105e-13
-5.5435e-34
-4.19696e-34
-5.24056e-34
-7.8186e-34
-1.21046e-33
-1.8949e-33
-2.98382e-33
-4.71649e-33
-7.47253e-33
-1.18508e-32
-1.87932e-32
-2.97834e-32
-4.71725e-32
-7.47413e-32
-1.18726e-31
-1.89801e-31
-3.0711e-31
-5.06749e-31
-8.60054e-31
-1.51347e-30
-2.7755e-30
-5.30614e-30
-1.05172e-29
-2.13715e-29
-4.38508e-29
-8.93598e-29
-1.78116e-28
-3.42991e-28
-6.3214e-28
-1.10674e-27
-1.83187e-27
-2.885e-27
-4.06785e-27
-4.84522e-27
-4.33191e-27
-1.9677e-27
-9.80225e-29
2.76568e-26
5.26078e-25
7.26458e-24
1.03415e-22
1.49164e-21
1.99349e-20
2.21805e-19
1.86867e-18
1.16411e-17
6.18669e-17
4.89399e-16
1.0412e-14
1.7849e-13
-6.37777e-34
-5.01166e-34
-6.31299e-34
-9.46452e-34
-1.47341e-33
-2.32028e-33
-3.67619e-33
-5.84762e-33
-9.32399e-33
-1.48824e-32
-2.37521e-32
-3.78773e-32
-6.0346e-32
-9.61231e-32
-1.53373e-31
-2.45986e-31
-3.98656e-31
-6.57447e-31
-1.11233e-30
-1.94563e-30
-3.53624e-30
-6.68369e-30
-1.30739e-29
-2.61922e-29
-5.2958e-29
-1.06304e-28
-2.08576e-28
-3.9482e-28
-7.13681e-28
-1.22175e-27
-1.97047e-27
-3.00476e-27
-4.09613e-27
-4.69939e-27
-3.94384e-27
-1.35135e-27
4.26923e-28
5.36048e-26
8.10017e-25
1.02616e-23
1.37853e-22
1.94012e-21
2.57875e-20
2.82178e-19
2.31937e-18
1.44487e-17
8.1631e-17
7.25113e-16
1.40866e-14
2.13791e-13
-7.17942e-34
-5.85678e-34
-7.44133e-34
-1.1209e-33
-1.7546e-33
-2.77963e-33
-4.43146e-33
-7.09436e-33
-1.13865e-32
-1.82962e-32
-2.93974e-32
-4.71919e-32
-7.56678e-32
-1.21245e-31
-1.94463e-31
-3.13168e-31
-5.08836e-31
-8.39605e-31
-1.41774e-30
-2.46782e-30
-4.45049e-30
-8.32462e-30
-1.60837e-29
-3.17872e-29
-6.33622e-29
-1.25336e-28
-2.42173e-28
-4.50838e-28
-7.99663e-28
-1.33895e-27
-2.10385e-27
-3.10282e-27
-4.07945e-27
-4.48886e-27
-3.49598e-27
-8.01689e-28
2.153e-27
9.12589e-26
1.17039e-24
1.37961e-23
1.78257e-22
2.50173e-21
3.3457e-20
3.61067e-19
2.8942e-18
1.79414e-17
1.06287e-16
1.02112e-15
1.82808e-14
2.49409e-13
-7.92692e-34
-6.71019e-34
-8.5983e-34
-1.3011e-33
-2.04771e-33
-3.26315e-33
-5.23457e-33
-8.43398e-33
-1.36265e-32
-2.20448e-32
-3.56658e-32
-5.76511e-32
-9.30644e-32
-1.50078e-31
-2.42103e-31
-3.91769e-31
-6.38719e-31
-1.05551e-30
-1.78071e-30
-3.08808e-30
-5.53193e-30
-1.02507e-29
-1.95779e-29
-3.81954e-29
-7.50962e-29
-1.46443e-28
-2.7876e-28
-5.10613e-28
-8.8917e-28
-1.4568e-27
-2.23005e-27
-3.17791e-27
-4.01914e-27
-4.219e-27
-2.99751e-27
-4.12264e-28
6.10578e-27
1.42971e-25
1.6153e-24
1.79555e-23
2.27659e-22
3.24475e-21
4.38846e-20
4.66406e-19
3.63772e-18
2.23225e-17
1.36992e-16
1.38629e-15
2.3028e-14
2.85275e-13
-8.60496e-34
-7.55074e-34
-9.75671e-34
-1.48289e-33
-2.34604e-33
-3.76007e-33
-6.0683e-33
-9.8391e-33
-1.60012e-32
-2.60626e-32
-4.24599e-32
-6.91175e-32
-1.12355e-31
-1.82411e-31
-2.96103e-31
-4.81741e-31
-7.88651e-31
-1.30635e-30
-2.20401e-30
-3.81186e-30
-6.79006e-30
-1.24766e-29
-2.35757e-29
-4.54332e-29
-8.81502e-29
-1.69533e-28
-3.18059e-28
-5.73507e-28
-9.81009e-28
-1.5735e-27
-2.34696e-27
-3.22902e-27
-3.91742e-27
-3.89647e-27
-2.45348e-27
-1.16156e-28
1.34707e-26
2.12506e-25
2.16718e-24
2.30449e-23
2.92337e-22
4.27919e-21
5.8369e-20
6.08029e-19
4.60421e-18
2.7878e-17
1.75762e-16
1.83897e-15
2.84382e-14
3.21785e-13
-9.2051e-34
-8.35994e-34
-1.08913e-33
-1.66228e-33
-2.64298e-33
-4.25941e-33
-6.91431e-33
-1.12794e-32
-1.84607e-32
-3.02689e-32
-4.96526e-32
-8.13958e-32
-1.33253e-31
-2.17843e-31
-3.55942e-31
-5.82487e-31
-9.58078e-31
-1.59189e-30
-2.68816e-30
-4.64098e-30
-8.22853e-30
-1.50072e-29
-2.80792e-29
-5.34864e-29
-1.02461e-28
-1.94425e-28
-3.5964e-28
-6.38662e-28
-1.0737e-27
-1.68691e-27
-2.45233e-27
-3.25541e-27
-3.7772e-27
-3.52902e-27
-1.87472e-27
9.17397e-29
2.55435e-26
3.06163e-25
2.87547e-24
2.97072e-23
3.83088e-22
5.76578e-21
7.85517e-20
7.97146e-19
5.85691e-18
3.50052e-17
2.25904e-16
2.40946e-15
3.46877e-14
3.59654e-13
-9.72492e-34
-9.12274e-34
-1.198e-33
-1.83566e-33
-2.93237e-33
-4.75045e-33
-7.75409e-33
-1.27229e-32
-2.09507e-32
-3.45721e-32
-5.70917e-32
-9.42396e-32
-1.55369e-31
-2.55782e-31
-4.20756e-31
-6.928e-31
-1.14541e-30
-1.91014e-30
-3.23082e-30
-5.57266e-30
-9.84336e-30
-1.78347e-29
-3.30689e-29
-6.23046e-29
-1.17904e-28
-2.20835e-28
-4.02924e-28
-7.05002e-28
-1.16551e-27
-1.7947e-27
-2.5438e-27
-3.25649e-27
-3.60179e-27
-3.12539e-27
-1.28877e-27
9.37418e-28
4.34536e-26
4.34372e-25
3.83131e-24
3.90651e-23
5.16631e-22
7.92018e-21
1.06331e-19
1.04554e-18
7.46679e-18
4.42376e-17
2.92303e-16
3.13955e-15
4.19862e-14
3.99715e-13
-1.01659e-33
-9.82741e-34