/*--------------------------------*- C++ -*----------------------------------*\
  =========                 |
  \\      /  F ield         | OpenFOAM: The Open Source CFD Toolbox
   \\    /   O peration     | Website:  https://openfoam.org
    \\  /    A nd           | Version:  9
     \\/     M anipulation  |
\*---------------------------------------------------------------------------*/
FoamFile
{
    format      ascii;
    class       volScalarField;
    location    "0.2";
    object      p;
}
// * * * * * * * * * * * * * * * * * * * * * * * * * * * * * * * * * * * * * //

dimensions      [1 -1 -2 0 0 0 0];

internalField   nonuniform List<scalar> 
5000
(
4.0233
4.02422
4.02515
4.02604
4.02699
4.02797
4.02899
4.03007
4.0312
4.03238
4.03362
4.03492
4.03628
4.03769
4.03915
4.04063
4.04212
4.04358
4.04499
4.04631
4.04752
4.04858
4.0495
4.05026
4.05087
4.05132
4.05161
4.05177
4.05183
4.05187
4.05198
4.05223
4.05257
4.05277
4.05245
4.05107
4.04808
4.04306
4.03603
4.02752
4.0185
4.0097
4.0011
3.99175
3.98017
3.96491
3.94513
3.92071
3.89159
3.85771
4.02124
4.02212
4.023
4.02385
4.02474
4.02567
4.02664
4.02766
4.02872
4.02984
4.03101
4.03223
4.03351
4.03484
4.03621
4.0376
4.03899
4.04035
4.04165
4.04287
4.04396
4.04492
4.04573
4.04639
4.04689
4.04724
4.04743
4.04748
4.04743
4.04736
4.04731
4.04737
4.04752
4.04749
4.04692
4.04524
4.0419
4.03648
4.02904
4.02021
4.01097
4.00207
3.99342
3.98405
3.97245
3.95725
3.93771
3.91386
3.88575
3.85326
4.01916
4.02
4.02084
4.02164
4.02249
4.02337
4.02429
4.02525
4.02625
4.02731
4.02842
4.02957
4.03077
4.03201
4.03328
4.03457
4.03585
4.0371
4.03828
4.03936
4.04032
4.04116
4.04186
4.04242
4.04286
4.04315
4.0433
4.04333
4.04326
4.04316
4.04305
4.04297
4.04289
4.04257
4.04163
4.03955
4.0358
4.03005
4.02239
4.01345
4.00417
3.99522
3.98648
3.97703
3.96548
3.95059
3.93164
3.90862
3.88199
3.85162
4.01706
4.01784
4.01864
4.01941
4.02021
4.02105
4.02192
4.02283
4.02378
4.02479
4.02583
4.02692
4.02804
4.0292
4.03038
4.03157
4.03274
4.03387
4.03492
4.03587
4.03671
4.03742
4.03802
4.03851
4.03888
4.03914
4.03928
4.03931
4.03925
4.03914
4.03898
4.03879
4.03851
4.0379
4.0366
4.03413
4.03001
4.02398
4.01616
4.00717
3.9979
3.98896
3.9802
3.97076
3.95938
3.94493
3.92672
3.90464
3.87936
3.85133
4.01492
4.01564
4.01641
4.01714
4.0179
4.0187
4.01953
4.02039
4.0213
4.02225
4.02324
4.02426
4.02531
4.02639
4.02749
4.02858
4.02965
4.03067
4.03161
4.03244
4.03316
4.03378
4.03429
4.0347
4.03503
4.03526
4.0354
4.03543
4.03537
4.03524
4.03504
4.03473
4.03426
4.03341
4.03181
4.02901
4.02459
4.01832
4.01037
4.00136
3.99213
3.98325
3.97458
3.96526
3.95415
3.9402
3.92274
3.90171
3.87784
3.85201
4.01275
4.01341
4.01415
4.01483
4.01556
4.01632
4.01711
4.01794
4.01881
4.01971
4.02065
4.02161
4.0226
4.02361
4.02462
4.02563
4.02661
4.02752
4.02835
4.02908
4.0297
4.03021
4.03065
4.031
4.03129
4.03151
4.03165
4.03169
4.03163
4.03148
4.03122
4.03081
4.03018
4.02912
4.02727
4.0242
4.01953
4.01306
4.00501
3.99599
3.98683
3.97806
3.96953
3.96044
3.94967
3.93625
3.91958
3.89971
3.87749
3.85386
4.01055
4.01114
4.01185
4.0125
4.01319
4.01392
4.01468
4.01547
4.0163
4.01716
4.01805
4.01897
4.0199
4.02084
4.02178
4.02271
4.0236
4.02442
4.02515
4.02578
4.02631
4.02674
4.02711
4.02742
4.02768
4.02789
4.02803
4.02808
4.02802
4.02785
4.02754
4.02704
4.02628
4.02504
4.02298
4.0197
4.01482
4.0082
4.00007
3.99106
3.98199
3.97336
3.96502
3.9562
3.94583
3.93297
3.9171
3.89839
3.87783
3.8564
4.0083
4.00883
4.00951
4.01013
4.01079
4.01149
4.01222
4.01298
4.01378
4.01461
4.01546
4.01633
4.01721
4.0181
4.01898
4.01983
4.02064
4.02138
4.02202
4.02256
4.02301
4.02337
4.02368
4.02395
4.0242
4.02441
4.02455
4.02461
4.02455
4.02437
4.02402
4.02343
4.02257
4.02118
4.01896
4.01549
4.01044
4.00371
3.99553
3.98656
3.97758
3.96912
3.961
3.95249
3.94254
3.93023
3.91513
3.89753
3.87851
3.85917
4.00598
4.00645
4.00712
4.00771
4.00835
4.00903
4.00974
4.01048
4.01125
4.01206
4.01288
4.01371
4.01455
4.01538
4.01621
4.017
4.01774
4.0184
4.01897
4.01943
4.0198
4.02009
4.02035
4.0206
4.02083
4.02105
4.02121
4.02128
4.02122
4.02103
4.02064
4.02
4.01904
4.01754
4.01518
4.01156
4.00639
3.99956
3.99137
3.98245
3.97361
3.96532
3.95745
3.94926
3.93972
3.92794
3.91356
3.89696
3.87933
3.86184
4.0036
4.00401
4.00467
4.00525
4.00587
4.00654
4.00723
4.00796
4.00872
4.0095
4.0103
4.01111
4.01191
4.0127
4.01348
4.01422
4.0149
4.0155
4.01599
4.01638
4.01668
4.01692
4.01714
4.01737
4.0176
4.01782
4.018
4.01809
4.01804
4.01784
4.01743
4.01673
4.01571
4.01412
4.01165
4.00792
4.00264
3.99576
3.98757
3.97873
3.97003
3.96193
3.95431
3.94643
3.93729
3.926
3.91225
3.89654
3.88011
3.86419
4.00115
4.00152
4.00219
4.00275
4.00336
4.00403
4.00472
4.00544
4.00619
4.00696
4.00775
4.00853
4.00931
4.01007
4.01081
4.01151
4.01214
4.01268
4.01311
4.01343
4.01368
4.01387
4.01405
4.01426
4.01449
4.01473
4.01493
4.01504
4.015
4.0148
4.01437
4.01364
4.01257
4.01092
4.00836
4.00455
3.9992
3.99229
3.98413
3.97538
3.96683
3.95892
3.95154
3.94396
3.93518
3.92432
3.91112
3.89616
3.88069
3.86601
3.99865
3.99898
3.99966
4.00022
4.00083
4.0015
4.00219
4.00291
4.00366
4.00443
4.00521
4.00599
4.00675
4.00749
4.0082
4.00886
4.00945
4.00994
4.01032
4.01059
4.01078
4.01093
4.01109
4.01128
4.01152
4.01178
4.01201
4.01214
4.01211
4.01192
4.01148
4.01073
4.00963
4.00793
4.00531
4.00144
3.99605
3.98913
3.98102
3.97239
3.96398
3.95627
3.94912
3.94181
3.93334
3.92284
3.91011
3.89573
3.88099
3.86717
3.99608
3.99638
3.99708
3.99765
3.99827
3.99895
3.99965
4.00038
4.00114
4.00192
4.00271
4.00348
4.00424
4.00496
4.00566
4.00629
4.00685
4.0073
4.00763
4.00786
4.008
4.00812
4.00825
4.00844
4.00869
4.00897
4.00922
4.00938
4.00938
4.00919
4.00876
4.008
4.00688
4.00515
4.0025
3.99859
3.99317
3.98627
3.97823
3.96972
3.96148
3.95395
3.94701
3.93995
3.93173
3.92153
3.90914
3.8952
3.88095
3.86766
3.99345
3.99373
3.99444
3.99504
3.99568
3.99638
3.9971
3.99786
3.99864
3.99944
4.00024
4.00102
4.00178
4.00251
4.00319
4.00382
4.00435
4.00477
4.00506
4.00525
4.00536
4.00544
4.00555
4.00573
4.00599
4.0063
4.00658
4.00677
4.0068
4.00663
4.00621
4.00545
4.00432
4.00258
3.99991
3.99599
3.99057
3.98371
3.97576
3.96738
3.95929
3.95194
3.9452
3.93834
3.93034
3.92035
3.9082
3.89453
3.88056
3.86747
3.99076
3.99102
3.99176
3.99239
3.99306
3.99379
3.99455
3.99534
3.99616
3.99698
3.99781
3.99861
3.99939
4.00013
4.00082
4.00143
4.00195
4.00235
4.00262
4.00277
4.00284
4.00289
4.00299
4.00317
4.00345
4.00378
4.00409
4.00432
4.00437
4.00422
4.00382
4.00308
4.00195
4.00022
3.99755
3.99363
3.98824
3.98143
3.97358
3.96534
3.95741
3.95024
3.94367
3.93699
3.92915
3.91931
3.90728
3.89372
3.87982
3.86663
3.98801
3.98825
3.98903
3.9897
3.99042
3.9912
3.99201
3.99285
3.9937
3.99457
3.99543
3.99627
3.99708
3.99784
3.99854
3.99916
3.99967
4.00006
4.0003
4.00042
4.00046
4.00049
4.00058
4.00076
4.00104
4.0014
4.00176
4.00202
4.0021
4.00198
4.0016
4.00088
3.99978
3.99806
3.99541
3.99151
3.98616
3.97942
3.97168
3.96359
3.95582
3.94881
3.94241
3.93587
3.92816
3.91841
3.90641
3.89281
3.87877
3.86522
3.98521
3.98544
3.98626
3.987
3.98778
3.98862
3.98948
3.99038
3.99129
3.99221
3.99312
3.99401
3.99485
3.99564
3.99636
3.997
3.99752
3.99789
3.99812
3.99822
3.99824
3.99824
3.99831
3.99849
3.99879
3.99918
3.99957
3.99987
3.99999
3.9999
3.99955
3.99886
3.99779
3.9961
3.99349
3.98963
3.98433
3.97768
3.97006
3.96211
3.95452
3.94767
3.94141
3.93499
3.92738
3.91768
3.90565
3.89188
3.87751
3.86337
3.98236
3.98259
3.98348
3.98429
3.98514
3.98605
3.98699
3.98795
3.98893
3.98992
3.99089
3.99182
3.99271
3.99354
3.9943
3.99496
3.99549
3.99587
3.99608
3.99617
3.99616
3.99615
3.99621
3.99638
3.9967
3.99711
3.99754
3.99787
3.99803
3.99798
3.99767
3.99701
3.99598
3.99434
3.99177
3.98797
3.98275
3.9762
3.96871
3.96091
3.95349
3.94681
3.94068
3.93435
3.92681
3.91715
3.90505
3.89103
3.87618
3.86127
3.97951
3.97976
3.98071
3.98162
3.98255
3.98354
3.98455
3.98559
3.98664
3.9877
3.98874
3.98974
3.99068
3.99156
3.99236
3.99305
3.9936
3.99399
3.9942
3.99427
3.99425
3.99422
3.99426
3.99443
3.99476
3.9952
3.99566
3.99603
3.99624
3.99622
3.99595
3.99534
3.99435
3.99276
3.99026
3.98653
3.9814
3.97496
3.96761
3.95998
3.95273
3.94622
3.94022
3.93398
3.92649
3.91684
3.90466
3.89035
3.87494
3.85913
3.97673
3.977
3.97805
3.97904
3.98003
3.98109
3.98219
3.98331
3.98444
3.98557
3.98669
3.98776
3.98877
3.98971
3.99055
3.99128
3.99186
3.99226
3.99248
3.99254
3.9925
3.99245
3.99248
3.99265
3.99298
3.99344
3.99393
3.99435
3.99459
3.99461
3.99439
3.99383
3.99289
3.99137
3.98894
3.9853
3.98028
3.97397
3.96677
3.95931
3.95224
3.9459
3.94004
3.93389
3.92644
3.9168
3.90454
3.88997
3.87397
3.8572
3.97365
3.97407
3.97535
3.97641
3.97749
3.97866
3.97986
3.98108
3.98231
3.98353
3.98473
3.98588
3.98697
3.98797
3.98888
3.98965
3.99026
3.99068
3.99091
3.99096
3.99092
3.99085
3.99086
3.99102
3.99136
3.99183
3.99235
3.99281
3.9931
3.99316
3.99298
3.99248
3.99161
3.99016
3.98781
3.98427
3.97938
3.97322
3.96618
3.95889
3.95201
3.94586
3.94016
3.93411
3.9267
3.91708
3.90477
3.88997
3.87343
3.85572
3.97053
3.97126
3.97269
3.97379
3.97499
3.97628
3.9776
3.97893
3.98026
3.98159
3.98288
3.98412
3.98529
3.98637
3.98734
3.98816
3.98882
3.98926
3.9895
3.98956
3.9895
3.98942
3.98941
3.98956
3.98989
3.99038
3.99093
3.99142
3.99175
3.99186
3.99173
3.99129
3.99048
3.98912
3.98687
3.98345
3.97869
3.9727
3.96584
3.95874
3.95204
3.94609
3.94058
3.93466
3.92733
3.91773
3.9054
3.89046
3.87349
3.85495
3.96767
3.96861
3.97005
3.97129
3.97264
3.97406
3.97547
3.97691
3.97835
3.97977
3.98117
3.9825
3.98375
3.9849
3.98594
3.98682
3.98752
3.988
3.98825
3.98832
3.98825
3.98815
3.98813
3.98826
3.98858
3.98907
3.98964
3.99017
3.99054
3.99069
3.99062
3.99024
3.98951
3.98824
3.9861
3.98281
3.97821
3.9724
3.96574
3.95884
3.95235
3.94661
3.9413
3.93557
3.92836
3.91883
3.90654
3.89153
3.87428
3.85509
3.96491
3.96585
3.96733
3.96879
3.97032
3.97187
3.97342
3.97498
3.97654
3.97808
3.97957
3.981
3.98234
3.98357
3.98468
3.98562
3.98637
3.98688
3.98716
3.98723
3.98716
3.98705
3.987
3.98711
3.98742
3.98791
3.9885
3.98906
3.98947
3.98967
3.98964
3.98934
3.98869
3.98752
3.9855
3.98235
3.97792
3.97231
3.96588
3.9592
3.95293
3.94741
3.94234
3.93684
3.92982
3.92044
3.90825
3.8933
3.87593
3.85632
3.96219
3.96314
3.96471
3.96636
3.96803
3.96972
3.97143
3.97313
3.97482
3.97648
3.97809
3.97962
3.98106
3.98238
3.98356
3.98457
3.98536
3.98592
3.98622
3.9863
3.98623
3.9861
3.98602
3.98611
3.9864
3.98689
3.98749
3.98807
3.98852
3.98877
3.9888
3.98857
3.98801
3.98694
3.98506
3.98206
3.97781
3.97242
3.96623
3.95981
3.95379
3.94851
3.9437
3.93847
3.93172
3.92258
3.91062
3.89584
3.87855
3.85881
3.95958
3.96063
3.96232
3.96413
3.96594
3.96776
3.9696
3.97143
3.97324
3.97502
3.97674
3.97838
3.97991
3.98132
3.98258
3.98365
3.9845
3.98509
3.98543
3.98552
3.98545
3.9853
3.9852
3.98525
3.98552
3.98599
3.9866
3.98721
3.9877
3.98799
3.98808
3.98792
3.98745
3.9865
3.98476
3.98194
3.97789
3.97272
3.96679
3.96065
3.95491
3.9499
3.94538
3.94048
3.93408
3.92529
3.91367
3.89925
3.88225
3.86268
3.95708
3.95826
3.96008
3.96206
3.96402
3.96599
3.96796
3.96991
3.97184
3.97373
3.97555
3.97728
3.97891
3.9804
3.98173
3.98287
3.98377
3.98441
3.98477
3.98488
3.9848
3.98464
3.98451
3.98452
3.98476
3.98522
3.98582
3.98645
3.98698
3.98732
3.98748
3.98739
3.98702
3.98619
3.98461
3.98197
3.97812
3.9732
3.96755
3.96172
3.95629
3.95159
3.94739
3.94286
3.93689
3.92856
3.91744
3.90355
3.88709
3.86801
3.9547
3.95605
3.95799
3.96014
3.96225
3.96436
3.96646
3.96855
3.97059
3.97259
3.97451
3.97633
3.97804
3.97961
3.98101
3.98221
3.98317
3.98385
3.98424
3.98437
3.98429
3.98411
3.98394
3.98392
3.98412
3.98455
3.98515
3.9858
3.98637
3.98676
3.98697
3.98696
3.98669
3.98599
3.98457
3.98213
3.97852
3.97385
3.96849
3.96299
3.9579
3.95355
3.94972
3.94561
3.94014
3.9324
3.92193
3.90876
3.89309
3.87485
3.95248
3.95402
3.95608
3.9584
3.96065
3.9629
3.96513
3.96733
3.96949
3.97159
3.9736
3.97552
3.97731
3.97895
3.98042
3.98168
3.98268
3.9834
3.98383
3.98397
3.98389
3.98369
3.98349
3.98343
3.98359
3.98399
3.98458
3.98524
3.98584
3.98628
3.98656
3.98663
3.98645
3.98589
3.98465
3.98243
3.97906
3.97466
3.9696
3.96445
3.95973
3.95576
3.95234
3.94871
3.94383
3.93678
3.92711
3.91487
3.90025
3.88319
3.95045
3.9522
3.95437
3.95684
3.95924
3.96161
3.96396
3.96628
3.96854
3.97073
3.97283
3.97482
3.97669
3.9784
3.97993
3.98124
3.9823
3.98306
3.98351
3.98367
3.98359
3.98338
3.98315
3.98304
3.98315
3.98351
3.98408
3.98476
3.98539
3.98588
3.98623
3.98638
3.9863
3.98587
3.98482
3.98283
3.97973
3.97562
3.97088
3.96608
3.96176
3.95821
3.95524
3.95214
3.94791
3.94166
3.93295
3.92182
3.90851
3.89295
3.94865
3.95061
3.95288
3.95549
3.95801
3.9605
3.96295
3.96537
3.96772
3.96999
3.97217
3.97423
3.97617
3.97794
3.97953
3.98089
3.98199
3.98279
3.98327
3.98345
3.98338
3.98315
3.98289
3.98273
3.98279
3.98311
3.98366
3.98434
3.98501
3.98556
3.98597
3.98621
3.98623
3.98593
3.98506
3.98332
3.98051
3.97671
3.9723
3.96787
3.96395
3.96085
3.95837
3.95586
3.95234
3.94698
3.93936
3.92953
3.91775
3.90401
3.94711
3.9493
3.95163
3.95435
3.95697
3.95954
3.96209
3.96458
3.96701
3.96936
3.9716
3.97373
3.97572
3.97755
3.97919
3.98059
3.98173
3.98257
3.98308
3.98328
3.98322
3.98298
3.98269
3.9825
3.98251
3.98278
3.9833
3.98398
3.98468
3.98528
3.98578
3.9861
3.98622
3.98605
3.98537
3.98388
3.98137
3.97791
3.97386
3.9698
3.9663
3.96366
3.9617
3.95981
3.95707
3.95268
3.94626
3.93789
3.92785
3.91619
3.94586
3.94826
3.95063
3.95342
3.95611
3.95874
3.96135
3.96391
3.96639
3.9688
3.9711
3.97328
3.97532
3.9772
3.97888
3.98033
3.9815
3.98237
3.98292
3.98314
3.98309
3.98285
3.98255
3.98231
3.98227
3.9825
3.98298
3.98365
3.98439
3.98505
3.98563
3.98605
3.98627
3.98623
3.98572
3.98448
3.98229
3.9792
3.97553
3.97187
3.96879
3.96661
3.9652
3.96395
3.96203
3.95868
3.95355
3.94675
3.93862
3.92927
3.94491
3.94751
3.94987
3.95269
3.95541
3.95807
3.96072
3.96331
3.96584
3.96828
3.97063
3.97286
3.97494
3.97686
3.97858
3.98006
3.98127
3.98217
3.98275
3.983
3.98297
3.98274
3.98243
3.98217
3.98208
3.98226
3.9827
3.98336
3.98412
3.98484
3.98552
3.98605
3.98637
3.98645
3.98611
3.98511
3.98325
3.98053
3.97727
3.97402
3.97139
3.96969
3.96882
3.96825
3.96717
3.96489
3.96112
3.95599
3.94988
3.94301
3.94428
3.94704
3.94936
3.95214
3.95485
3.95751
3.96015
3.96276
3.96531
3.96778
3.97015
3.97241
3.97453
3.97648
3.97824
3.97975
3.98099
3.98193
3.98254
3.98283
3.98283
3.98262
3.98231
3.98203
3.98191
3.98204
3.98244
3.98308
3.98386
3.98465
3.98542
3.98607
3.98651
3.98671
3.98654
3.98576
3.98421
3.98188
3.97904
3.97624
3.97406
3.97285
3.97254
3.97264
3.97242
3.97124
3.96885
3.96544
3.96143
3.95714
3.94394
3.94683
3.94905
3.95175
3.95441
3.95702
3.95964
3.96222
3.96477
3.96725
3.96964
3.97192
3.97406
3.97604
3.97782
3.97937
3.98064
3.98161
3.98226
3.98259
3.98263
3.98245
3.98216
3.98188
3.98174
3.98183
3.9822
3.98282
3.98361
3.98445
3.98533
3.98611
3.98668
3.98701
3.98699
3.98643
3.98518
3.98322
3.98081
3.97847
3.97676
3.97605
3.97631
3.97708
3.97771
3.97763
3.97663
3.97495
3.97307
3.97139
3.94384
3.9468
3.94889
3.95147
3.95403
3.95657
3.95912
3.96167
3.96418
3.96665
3.96904
3.97134
3.9735
3.9755
3.9773
3.97887
3.98017
3.98118
3.98187
3.98225
3.98234
3.98221
3.98196
3.9817
3.98156
3.98162
3.98195
3.98255
3.98334
3.98424
3.98522
3.98614
3.98686
3.98734
3.98747
3.98711
3.98613
3.98453
3.98254
3.98066
3.97943
3.97923
3.98005
3.98151
3.98299
3.98399
3.98436
3.98438
3.98459
3.98549
3.94395
3.94695
3.94886
3.95127
3.9537
3.95613
3.95859
3.96106
3.96353
3.96596
3.96834
3.97063
3.9728
3.97482
3.97664
3.97823
3.97956
3.9806
3.98133
3.98177
3.98193
3.98187
3.98168
3.98146
3.98133
3.98139
3.9817
3.98227
3.98306
3.984
3.98508
3.98615
3.98703
3.98767
3.98797
3.98781
3.98707
3.9858
3.98421
3.98277
3.98202
3.98233
3.98372
3.98585
3.98815
3.9902
3.99189
3.99355
3.99578
3.99916
3.94414
3.9471
3.94882
3.95105
3.95334
3.95564
3.95799
3.96037
3.96277
3.96516
3.9675
3.96978
3.97195
3.97397
3.9758
3.97741
3.97876
3.97984
3.98063
3.98113
3.98137
3.9814
3.98129
3.98114
3.98105
3.98112
3.98141
3.98197
3.98276
3.98373
3.9849
3.98613
3.98717
3.98799
3.98847
3.9885
3.98801
3.98703
3.9858
3.98478
3.98449
3.9853
3.98725
3.99002
3.99312
3.99616
3.99911
4.00232
4.00645
4.01214
3.94432
3.94717
3.94872
3.95077
3.95291
3.95507
3.95729
3.95957
3.96189
3.96421
3.96651
3.96876
3.97091
3.97293
3.97477
3.97639
3.97777
3.97889
3.97973
3.98031
3.98064
3.98077
3.98077
3.98071
3.98069
3.98079
3.98109
3.98164
3.98243
3.98343
3.98468
3.98604
3.98727
3.98828
3.98896
3.9892
3.98893
3.98822
3.98732
3.98668
3.98682
3.98809
3.99056
3.99395
3.9978
4.00178
4.00589
4.01053
4.01639
4.0242
3.94444
3.94722
3.94862
3.95046
3.95242
3.95442
3.9565
3.95866
3.96087
3.96312
3.96536
3.96756
3.96969
3.9717
3.97354
3.97517
3.97658
3.97773
3.97863
3.97929
3.97973
3.97998
3.9801
3.98016
3.98023
3.98039
3.98073
3.98128
3.98208
3.9831
3.98441
3.9859
3.9873
3.98852
3.98941
3.98986
3.98982
3.98937
3.98877
3.98846
3.98898
3.99067
3.99362
3.99758
4.00212
4.00696
4.01211
4.01803
4.02543
4.0351
3.94445
3.94715
3.94841
3.95005
3.95184
3.95368
3.95562
3.95764
3.95974
3.96189
3.96406
3.9662
3.96829
3.97027
3.9721
3.97375
3.97517
3.97636
3.97732
3.97807
3.97862
3.97901
3.97928
3.97948
3.97967
3.97992
3.9803
3.98088
3.98169
3.98272
3.98409
3.9857
3.98726
3.98868
3.9898
3.99048
3.99068
3.99047
3.99013
3.99013
3.99097
3.99303
3.9964
4.00086
4.00602
4.01161
4.01767
4.02469
4.03341
4.04465
3.9443
3.94688
3.948
3.94946
3.9511
3.95279
3.95459
3.95649
3.95847
3.96052
3.9626
3.96468
3.96672
3.96867
3.97048
3.97212
3.97357
3.9748
3.97582
3.97666
3.97733
3.97786
3.97829
3.97864
3.97898
3.97934
3.97981
3.98043
3.98126
3.98232
3.98372
3.98543
3.98714
3.98875
3.9901
3.99103
3.99146
3.9915
3.99141
3.99166
3.99278
3.99515
3.99888
4.00376
4.00944
4.01567
4.02249
4.03041
4.04019
4.05268
3.94397
3.94641
3.9474
3.94871
3.9502
3.95176
3.95343
3.9552
3.95707
3.95901
3.96101
3.96302
3.965
3.96691
3.9687
3.97033
3.97179
3.97305
3.97414
3.97507
3.97586
3.97654
3.97713
3.97766
3.97816
3.97867
3.97923
3.97992
3.98079
3.98188
3.98332
3.9851
3.98694
3.98874
3.9903
3.99147
3.99216
3.99243
3.99259
3.99307
3.99442
3.99704
4.00105
4.00627
4.01238
4.0191
4.02653
4.03513
4.04569
4.05909
3.94343
3.94571
3.9466
3.94778
3.94915
3.95059
3.95213
3.95379
3.95555
3.95739
3.9593
3.96123
3.96315
3.96501
3.96677
3.96839
3.96986
3.97116
3.97231
3.97333
3.97424
3.97507
3.97583
3.97654
3.97722
3.97788
3.97857
3.97935
3.98028
3.9814
3.98288
3.98473
3.98667
3.98863
3.9904
3.9918
3.99273
3.99325
3.99363
3.99433
3.99588
3.99869
4.00292
4.0084
4.01481
4.02191
4.02975
4.03881
4.04987
4.06382
3.94267
3.94479
3.94561
3.94668
3.94794
3.94928
3.95072
3.95228
3.95393
3.95568
3.9575
3.95935
3.9612
3.96301
3.96473
3.96634
3.96781
3.96915
3.97036
3.97147
3.9725
3.97347
3.9744
3.97529
3.97614
3.97697
3.97782
3.97871
3.97972
3.98089
3.98242
3.98432
3.98635
3.98843
3.99038
3.992
3.99317
3.99392
3.99452
3.99542
3.99713
4.0001
4.00447
4.01013
4.01674
4.02407
4.03216
4.04145
4.05271
4.06685
3.94168
3.94366
3.94442
3.94541
3.94659
3.94785
3.9492
3.95066
3.95223
3.95389
3.95562
3.95739
3.95918
3.96093
3.96262
3.96421
3.96569
3.96706
3.96832
3.96951
3.97065
3.97176
3.97285
3.97391
3.97495
3.97596
3.97696
3.97799
3.9791
3.98034
3.98192
3.98387
3.98598
3.98817
3.99026
3.99207
3.99346
3.99443
3.99524
3.99632
3.99816
4.00124
4.00572
4.01146
4.01817
4.0256
4.03376
4.04306
4.05423
4.06817
3.9405
3.94234
3.94307
3.944
3.94512
3.9463
3.94758
3.94897
3.95046
3.95204
3.95369
3.95539
3.95711
3.95881
3.96047
3.96204
3.96353
3.96492
3.96623
3.9675
3.96874
3.96998
3.97121
3.97244
3.97365
3.97484
3.976
3.97717
3.9784
3.97974
3.98138
3.9834
3.98557
3.98784
3.99006
3.99202
3.99359
3.99477
3.99577
3.997
3.99896
4.0021
4.00663
4.0124
4.01912
4.02652
4.03458
4.04366
4.05447
4.06786
3.93915
3.94086
3.94157
3.94247
3.94354
3.94467
3.94589
3.94722
3.94864
3.95014
3.95173
3.95336
3.95502
3.95668
3.9583
3.95985
3.96134
3.96276
3.96412
3.96545
3.96679
3.96814
3.96951
3.97089
3.97226
3.97361
3.97494
3.97627
3.97763
3.97908
3.98081
3.98289
3.98512
3.98747
3.98978
3.99187
3.99359
3.99494
3.9961
3.99746
3.99951
4.0027
4.00721
4.01293
4.01958
4.02684
4.03465
4.04332
4.0535
4.06602
3.93766
3.93925
3.93997
3.94084
3.94187
3.94296
3.94414
3.94541
3.94678
3.94823
3.94975
3.95132
3.95293
3.95454
3.95613
3.95767
3.95916
3.9606
3.96201
3.9634
3.96482
3.96626
3.96775
3.96927
3.97079
3.9723
3.97379
3.97527
3.97678
3.97834
3.98018
3.98235
3.98465
3.98706
3.98944
3.99163
3.99348
3.99496
3.99625
3.99771
3.99982
4.003
4.00745
4.01308
4.01957
4.02659
4.03401
4.04209
4.05141
4.06275
3.93606
3.93755
3.93827
3.93913
3.94014
3.9412
3.94234
3.94357
3.94489
3.94629
3.94776
3.94929
3.95085
3.95242
3.95398
3.95551
3.95701
3.95847
3.95992
3.96136
3.96285
3.96438
3.96596
3.96759
3.96925
3.9709
3.97255
3.97419
3.97584
3.97754
3.97949
3.98176
3.98414
3.98661
3.98906
3.99132
3.99326
3.99485
3.99623
3.99776
3.99988
4.00303
4.00738
4.01285
4.01911
4.0258
4.03272
4.04004
4.04831
4.05821
3.93437
3.93578
3.93651
3.93737
3.93835
3.93939
3.94051
3.94171
3.94299
3.94435
3.94578
3.94726
3.94878
3.95032
3.95186
3.95339
3.95489
3.95638
3.95786
3.95935
3.96089
3.96249
3.96416
3.96589
3.96765
3.96943
3.97122
3.973
3.9748
3.97664
3.97873
3.98111
3.98358
3.98613
3.98863
3.99096
3.99297
3.99463
3.99608
3.99764
3.99975
4.00281
4.00702
4.01228
4.01825
4.02451
4.03083
4.03728
4.04431
4.05255
3.93262
3.93396
3.9347
3.93556
3.93653
3.93756
3.93866
3.93983
3.94108
3.94241
3.9438
3.94525
3.94673
3.94825
3.94977
3.9513
3.95281
3.95432
3.95583
3.95737
3.95896
3.96061
3.96235
3.96415
3.96601
3.9679
3.96981
3.97173
3.97368
3.97566
3.97789
3.9804
3.98297
3.98559
3.98816
3.99055
3.99261
3.99433
3.99582
3.99738
3.99944
4.00239
4.00641
4.01141
4.01703
4.02281
4.02843
4.0339
4.03957
4.04598
3.93082
3.93209
3.93285
3.93371
3.93468
3.9357
3.93678
3.93794
3.93917
3.94047
3.94183
3.94325
3.94471
3.94621
3.94772
3.94925
3.95077
3.9523
3.95384
3.95542
3.95705
3.95875
3.96054
3.9624
3.96434
3.96632
3.96833
3.97038
3.97246
3.97458
3.97696
3.97961
3.98229
3.985
3.98765
3.99009
3.99221
3.99397
3.99548
3.99702
3.99901
4.0018
4.0056
4.0103
4.01552
4.02076
4.02563
4.03004
4.03424
4.0387
3.92898
3.9302
3.93098
3.93184
3.93281
3.93382
3.9349
3.93604
3.93725
3.93853
3.93987
3.94127
3.94271
3.9442
3.9457
3.94723
3.94876
3.95031
3.95188
3.95349
3.95516
3.9569
3.95873
3.96064
3.96263
3.96469
3.96679
3.96895
3.97115
3.97341
3.97593
3.97872
3.98153
3.98435
3.98707
3.98958
3.99176
3.99356
3.99508
3.9966
3.99849
4.00112
4.00466
4.00902
4.0138
4.01846
4.02254
4.02584
4.02852
4.03095
3.92711
3.92829
3.92908
3.92996
3.93092
3.93193
3.933
3.93414
3.93534
3.9366
3.93792
3.9393
3.94073
3.9422
3.94371
3.94524
3.94679
3.94836
3.94995
3.95159
3.95329
3.95506
3.95692
3.95887
3.9609
3.96302
3.9652
3.96744
3.96975
3.97214
3.9748
3.97774
3.98068
3.9836
3.98642
3.98901
3.99126
3.99311
3.99465
3.99614
3.99793
4.00037
4.00365
4.00765
4.01196
4.01602
4.01927
4.02145
4.02259
4.02298
3.92522
3.92637
3.92718
3.92806
3.92902
3.93003
3.9311
3.93223
3.93342
3.93467
3.93598
3.93734
3.93876
3.94023
3.94174
3.94327
3.94484
3.94642
3.94804
3.94971
3.95143
3.95323
3.95511
3.95709
3.95915
3.96131
3.96355
3.96588
3.96828
3.97078
3.97357
3.97665
3.97972
3.98277
3.98569
3.98838
3.9907
3.99262
3.99419
3.99566
3.99736
3.99962
4.00262
4.00625
4.01009
4.01353
4.01597
4.01703
4.01667
4.01503
3.92332
3.92444
3.92526
3.92614
3.92711
3.92812
3.92919
3.93031
3.93149
3.93273
3.93403
3.93539
3.93681
3.93827
3.93978
3.94132
3.9429
3.9445
3.94614
3.94783
3.94958
3.95139
3.9533
3.95529
3.95739
3.95958
3.96187
3.96425
3.96674
3.96933
3.97225
3.97546
3.97867
3.98183
3.98487
3.98766
3.99009
3.99208
3.99371
3.99518
3.9968
3.9989
4.00163
4.0049
4.00827
4.01111
4.01276
4.01275
4.01093
4.00737
3.9214
3.9225
3.92333
3.92422
3.92519
3.9262
3.92727
3.92839
3.92957
3.9308
3.93209
3.93345
3.93485
3.93632
3.93783
3.93938
3.94096
3.94259
3.94425
3.94596
3.94772
3.94956
3.95148
3.95349
3.9556
3.95781
3.96014
3.96258
3.96514
3.96781
3.97084
3.97417
3.9775
3.98079
3.98395
3.98686
3.9894
3.9915
3.99321
3.99471
3.99629
3.99824
4.00073
4.00365
4.00657
4.00884
4.00974
4.00874
4.00557
4.00021
3.91947
3.92055
3.92139
3.92229
3.92326
3.92428
3.92534
3.92646
3.92763
3.92886
3.93015
3.9315
3.9329
3.93436
3.93588
3.93743
3.93903
3.94067
3.94235
3.94408
3.94586
3.94771
3.94964
3.95166
3.95379
3.95603
3.95838
3.96086
3.96348
3.96623
3.96934
3.97279
3.97623
3.97964
3.98292
3.98596
3.98863
3.99086
3.99268
3.99424
3.99581
3.99766
3.99994
4.00255
4.00507
4.00681
4.00704
4.00513
4.00075
3.99377
3.91754
3.91859
3.91945
3.92035
3.92132
3.92234
3.92341
3.92452
3.92569
3.92692
3.9282
3.92955
3.93095
3.93241
3.93392
3.93548
3.93709
3.93874
3.94044
3.94218
3.94398
3.94585
3.94779
3.94982
3.95196
3.95421
3.95659
3.9591
3.96176
3.96457
3.96777
3.97132
3.97487
3.97839
3.98179
3.98496
3.98777
3.99016
3.99212
3.99379
3.99539
3.99718
3.9993
4.00164
4.0038
4.00509
4.00473
4.00205
3.99662
3.98824
3.9156
3.91663
3.9175
3.91841
3.91938
3.9204
3.92146
3.92257
3.92374
3.92496
3.92625
3.92759
3.92899
3.93045
3.93196
3.93353
3.93514
3.9368
3.93851
3.94027
3.94209
3.94396
3.94592
3.94796
3.9501
3.95237
3.95477
3.95731
3.96001
3.96287
3.96614
3.96977
3.97342
3.97704
3.98056
3.98386
3.98683
3.98939
3.99152
3.99334
3.99503
3.99681
3.99882
4.00095
4.00281
4.00372
4.00288
3.99957
3.99329
3.98375
3.91365
3.91467
3.91554
3.91646
3.91743
3.91844
3.91951
3.92062
3.92178
3.923
3.92428
3.92562
3.92702
3.92847
3.92999
3.93155
3.93317
3.93485
3.93657
3.93834
3.94017
3.94206
3.94402
3.94607
3.94822
3.9505
3.95291
3.95548
3.95821
3.96111
3.96444
3.96815
3.97188
3.9756
3.97924
3.98268
3.98581
3.98856
3.99089
3.9929
3.99472
3.99656
3.99852
4.0005
4.00214
4.00275
4.00154
3.99776
3.99085
3.98043
3.91171
3.91271
3.91359
3.9145
3.91547
3.91648
3.91754
3.91865
3.91981
3.92103
3.9223
3.92364
3.92503
3.92649
3.928
3.92957
3.93119
3.93287
3.9346
3.93638
3.93822
3.94012
3.94209
3.94415
3.94631
3.9486
3.95103
3.95361
3.95637
3.95931
3.96269
3.96647
3.97028
3.97409
3.97783
3.9814
3.98471
3.98766
3.99023
3.99246
3.99448
3.99642
3.99839
4.00031
4.00179
4.00221
4.00076
3.99667
3.98935
3.97834
3.90976
3.91075
3.91163
3.91254
3.91351
3.91452
3.91557
3.91668
3.91783
3.91904
3.92031
3.92164
3.92303
3.92448
3.92599
3.92756
3.92918
3.93086
3.9326
3.93439
3.93624
3.93815
3.94013
3.94219
3.94437
3.94667
3.94911
3.95171
3.95449
3.95747
3.96089
3.96473
3.9686
3.9725
3.97634
3.98005
3.98353
3.98671
3.98954
3.99204
3.99429
3.99641
3.99846
4.00037
4.00178
4.0021
4.00053
3.99632
3.98883
3.97753
3.90781
3.90879
3.90966
3.91057
3.91154
3.91254
3.91359
3.91469
3.91584
3.91705
3.91831
3.91963
3.92102
3.92246
3.92396
3.92553
3.92715
3.92884
3.93058
3.93237
3.93423
3.93614
3.93813
3.94021
3.94239
3.9447
3.94716
3.94978
3.95258
3.95558
3.95905
3.96294
3.96688
3.97084
3.97478
3.97863
3.98229
3.98571
3.98882
3.99163
3.99417
3.99652
3.99872
4.00069
4.00212
4.00243
4.00088
3.99672
3.98928
3.978
3.90585
3.90682
3.90769
3.9086
3.90956
3.91056
3.9116
3.9127
3.91384
3.91504
3.9163
3.91761
3.91898
3.92042
3.92191
3.92347
3.92509
3.92678
3.92852
3.93032
3.93218
3.9341
3.9361
3.93818
3.94037
3.9427
3.94517
3.94781
3.95063
3.95366
3.95716
3.9611
3.96509
3.96913
3.97317
3.97714
3.981
3.98466
3.98808
3.99123
3.99411
3.99675
3.99916
4.00127
4.00279
4.0032
4.0018
3.99786
3.9907
3.97974
3.90389
3.90485
3.90572
3.90662
3.90757
3.90857
3.9096
3.91069
3.91183
3.91302
3.91426
3.91557
3.91693
3.91835
3.91984
3.92139
3.92301
3.92469
3.92643
3.92823
3.93009
3.93202
3.93402
3.93611
3.93832
3.94065
3.94314
3.94579
3.94864
3.95169
3.95523
3.95921
3.96326
3.96737
3.9715
3.9756
3.97965
3.98357
3.98733
3.99086
3.99412
3.9971
3.99978
4.0021
4.00379
4.00439
4.00326
3.9997
3.99305
3.98268
3.90193
3.90288
3.90374
3.90464
3.90558
3.90657
3.9076
3.90867
3.9098
3.91098
3.91222
3.91351
3.91486
3.91627
3.91775
3.91929
3.9209
3.92257
3.92431
3.92611
3.92797
3.9299
3.9319
3.934
3.93622
3.93856
3.94106
3.94374
3.9466
3.94968
3.95325
3.95728
3.96138
3.96555
3.96977
3.97401
3.97825
3.98245
3.98656
3.9905
3.99419
3.99756
4.00059
4.00317
4.00511
4.00599
4.00524
4.00222
3.99628
3.98676
3.89997
3.9009
3.90175
3.90264
3.90358
3.90456
3.90558
3.90665
3.90776
3.90893
3.91015
3.91143
3.91276
3.91416
3.91563
3.91716
3.91876
3.92042
3.92215
3.92394
3.9258
3.92773
3.92974
3.93185
3.93407
3.93643
3.93894
3.94163
3.94452
3.94762
3.95123
3.9553
3.95945
3.96369
3.96799
3.97237
3.97681
3.9813
3.98578
3.99016
3.99432
3.99814
4.00155
4.00447
4.00673
4.00796
4.0077
4.00536
4.00031
3.99189
3.898
3.89891
3.89976
3.90065
3.90157
3.90254
3.90355
3.90461
3.90571
3.90686
3.90807
3.90933
3.91065
3.91203
3.91348
3.915
3.91658
3.91824
3.91996
3.92174
3.9236
3.92552
3.92753
3.92965
3.93187
3.93424
3.93677
3.93947
3.94238
3.94551
3.94915
3.95326
3.95746
3.96176
3.96616
3.97067
3.97532
3.9801
3.98498
3.98983
3.99449
3.9988
4.00266
4.00598
4.00861
4.01028
4.0106
4.00907
4.00508
3.99795
3.89603
3.89693
3.89777
3.89864
3.89956
3.90052
3.90151
3.90256
3.90365
3.90478
3.90597
3.90721
3.90852
3.90988
3.91131
3.91281
3.91438
3.91602
3.91772
3.9195
3.92134
3.92327
3.92528
3.92739
3.92963
3.932
3.93454
3.93726
3.94019
3.94334
3.94701
3.95117
3.95542
3.95978
3.96426
3.96891
3.97377
3.97886
3.98415
3.98949
3.99469
3.99954
4.00389
4.00765
4.01072
4.0129
4.01389
4.01327
4.01048
4.00484
3.89406
3.89494
3.89577
3.89663
3.89754
3.89848
3.89947
3.90049
3.90157
3.90269
3.90386
3.90508
3.90636
3.90771
3.90912
3.9106
3.91214
3.91376
3.91545
3.91721
3.91905
3.92097
3.92298
3.92509
3.92733
3.92971
3.93226
3.93499
3.93794
3.94111
3.94481
3.949
3.9533
3.95773
3.9623
3.96709
3.97217
3.97757
3.98328
3.98914
3.99491
4.00033
4.00521
4.00946
4.01302
4.01577
4.0175
4.01789
4.01642
4.01241
3.89209
3.89295
3.89377
3.89462
3.89551
3.89644
3.89741
3.89842
3.89947
3.90057
3.90172
3.90293
3.90419
3.90551
3.9069
3.90835
3.90988
3.91147
3.91314
3.91489
3.91671
3.91862
3.92062
3.92273
3.92497
3.92736
3.92992
3.93266
3.93562
3.93881
3.94254
3.94677
3.95111
3.9556
3.96027
3.9652
3.97049
3.97621
3.98235
3.98874
3.99511
4.00113
4.00659
4.01137
4.01546
4.01883
4.02137
4.02284
4.02279
4.02053
3.89012
3.89096
3.89177
3.89261
3.89348
3.89439
3.89534
3.89634
3.89737
3.89845
3.89957
3.90076
3.90199
3.90329
3.90465
3.90608
3.90758
3.90915