/*--------------------------------*- C++ -*----------------------------------*\
  =========                 |
  \\      /  F ield         | OpenFOAM: The Open Source CFD Toolbox
   \\    /   O peration     | Website:  https://openfoam.org
    \\  /    A nd           | Version:  9
     \\/     M anipulation  |
\*---------------------------------------------------------------------------*/
FoamFile
{
    format      ascii;
    class       volScalarField;
    location    "0.2";
    object      rAU;
}
// * * * * * * * * * * * * * * * * * * * * * * * * * * * * * * * * * * * * * //

dimensions      [-1 3 1 0 0 0 0];

internalField   nonuniform List<scalar> 
5000
(
6.91739e-06
7.95914e-06
8.01674e-06
8.07309e-06
8.12726e-06
8.1788e-06
8.22784e-06
8.27473e-06
8.31992e-06
8.36376e-06
8.40648e-06
8.44804e-06
8.48811e-06
8.52612e-06
8.56139e-06
8.59339e-06
8.62202e-06
8.64784e-06
8.67209e-06
8.69645e-06
8.72255e-06
8.75143e-06
8.78317e-06
8.8168e-06
8.85064e-06
8.88286e-06
8.91208e-06
8.93766e-06
8.95976e-06
8.98043e-06
9.0297e-06
9.03342e-06
9.03275e-06
9.02823e-06
9.01931e-06
9.00622e-06
8.99077e-06
8.97696e-06
8.97062e-06
8.97711e-06
8.99767e-06
9.02671e-06
9.05286e-06
9.06458e-06
9.05709e-06
9.03551e-06
9.01134e-06
8.99539e-06
8.99207e-06
8.99838e-06
6.91645e-06
7.95798e-06
8.01544e-06
8.07175e-06
8.12592e-06
8.17751e-06
8.22662e-06
8.27359e-06
8.31883e-06
8.36271e-06
8.40541e-06
8.44688e-06
8.48679e-06
8.52458e-06
8.55961e-06
8.5914e-06
8.61992e-06
8.64577e-06
8.67021e-06
8.69486e-06
8.72131e-06
8.7505e-06
8.78245e-06
8.81614e-06
8.84989e-06
8.88192e-06
8.91088e-06
8.9362e-06
8.95805e-06
8.9785e-06
9.02759e-06
9.03103e-06
9.03004e-06
9.02512e-06
9.01574e-06
9.00224e-06
8.98659e-06
8.97295e-06
8.96723e-06
8.97461e-06
8.99596e-06
9.02521e-06
9.05077e-06
9.06125e-06
9.05242e-06
9.02992e-06
9.00541e-06
8.98943e-06
8.986e-06
8.99168e-06
6.91542e-06
7.95678e-06
8.01412e-06
8.0704e-06
8.1246e-06
8.17625e-06
8.22543e-06
8.27247e-06
8.31776e-06
8.36165e-06
8.40431e-06
8.44567e-06
8.48541e-06
8.52298e-06
8.55777e-06
8.58938e-06
8.61781e-06
8.64372e-06
8.66834e-06
8.6933e-06
8.72008e-06
8.74958e-06
8.78171e-06
8.81544e-06
8.8491e-06
8.88093e-06
8.90963e-06
8.93468e-06
8.95629e-06
8.97652e-06
9.02546e-06
9.02863e-06
9.02731e-06
9.022e-06
9.01218e-06
8.99829e-06
8.98245e-06
8.969e-06
8.96387e-06
8.97211e-06
8.99417e-06
9.02359e-06
9.04854e-06
9.05784e-06
9.04778e-06
9.02449e-06
8.99975e-06
8.98382e-06
8.98029e-06
8.98548e-06
6.91443e-06
7.9556e-06
8.01283e-06
8.0691e-06
8.12334e-06
8.17507e-06
8.22432e-06
8.27142e-06
8.31675e-06
8.36064e-06
8.40323e-06
8.44447e-06
8.48401e-06
8.52134e-06
8.55591e-06
8.58733e-06
8.61569e-06
8.64166e-06
8.66649e-06
8.69175e-06
8.71886e-06
8.74863e-06
8.78093e-06
8.8147e-06
8.84825e-06
8.87988e-06
8.90833e-06
8.93312e-06
8.95449e-06
8.97452e-06
9.02331e-06
9.02621e-06
9.02458e-06
9.01888e-06
9.00863e-06
8.99436e-06
8.97836e-06
8.96511e-06
8.96056e-06
8.9696e-06
8.99231e-06
9.02184e-06
9.04618e-06
9.05436e-06
9.04318e-06
9.01921e-06
8.99434e-06
8.97853e-06
8.97496e-06
8.97978e-06
6.91362e-06
7.9545e-06
8.01163e-06
8.0679e-06
8.1222e-06
8.17401e-06
8.22334e-06
8.2705e-06
8.31586e-06
8.35972e-06
8.40223e-06
8.44331e-06
8.48263e-06
8.51972e-06
8.55404e-06
8.58529e-06
8.61358e-06
8.63962e-06
8.66465e-06
8.6902e-06
8.71763e-06
8.74766e-06
8.78012e-06
8.8139e-06
8.84735e-06
8.87877e-06
8.90697e-06
8.93152e-06
8.95266e-06
8.97248e-06
9.02114e-06
9.02378e-06
9.02184e-06
9.01577e-06
9.00511e-06
8.99049e-06
8.97434e-06
8.96129e-06
8.9573e-06
8.96708e-06
8.99037e-06
9.01996e-06
9.04369e-06
9.05082e-06
9.03862e-06
9.01409e-06
8.98918e-06
8.97355e-06
8.97001e-06
8.97453e-06
6.91311e-06
7.9535e-06
8.01055e-06
8.06683e-06
8.12121e-06
8.1731e-06
8.22251e-06
8.26974e-06
8.31512e-06
8.35894e-06
8.40135e-06
8.44224e-06
8.48133e-06
8.51814e-06
8.55221e-06
8.58327e-06
8.61149e-06
8.6376e-06
8.66282e-06
8.68865e-06
8.71637e-06
8.74665e-06
8.77925e-06
8.81304e-06
8.84638e-06
8.87761e-06
8.90557e-06
8.92987e-06
8.9508e-06
8.97042e-06
9.01897e-06
9.02135e-06
9.01911e-06
9.01268e-06
9.00162e-06
8.98668e-06
8.97041e-06
8.95755e-06
8.95409e-06
8.96455e-06
8.98835e-06
9.01794e-06
9.04107e-06
9.04721e-06
9.0341e-06
9.00913e-06
8.98425e-06
8.96888e-06
8.96541e-06
8.96969e-06
6.91289e-06
7.95262e-06
8.00959e-06
8.06591e-06
8.12037e-06
8.17236e-06
8.22187e-06
8.26915e-06
8.31455e-06
8.35833e-06
8.40061e-06
8.4413e-06
8.48013e-06
8.51665e-06
8.55045e-06
8.58132e-06
8.60945e-06
8.63561e-06
8.66101e-06
8.6871e-06
8.7151e-06
8.7456e-06
8.77832e-06
8.81212e-06
8.84535e-06
8.87639e-06
8.90412e-06
8.92819e-06
8.9489e-06
8.96834e-06
9.01679e-06
9.01892e-06
9.0164e-06
9.00962e-06
8.99819e-06
8.98294e-06
8.96656e-06
8.9539e-06
8.95094e-06
8.96201e-06
8.98624e-06
9.01579e-06
9.03832e-06
9.04353e-06
9.02963e-06
9.00431e-06
8.97955e-06
8.96447e-06
8.96113e-06
8.96522e-06
6.91296e-06
7.95188e-06
8.0088e-06
8.06516e-06
8.11972e-06
8.17182e-06
8.22142e-06
8.26877e-06
8.31418e-06
8.3579e-06
8.40004e-06
8.44052e-06
8.47907e-06
8.51529e-06
8.5488e-06
8.57944e-06
8.60748e-06
8.63367e-06
8.65923e-06
8.68556e-06
8.7138e-06
8.7445e-06
8.77733e-06
8.81112e-06
8.84424e-06
8.8751e-06
8.90261e-06
8.92647e-06
8.94698e-06
8.96624e-06
9.01461e-06
9.01651e-06
9.01371e-06
9.0066e-06
8.99482e-06
8.97929e-06
8.96282e-06
8.95035e-06
8.94784e-06
8.95946e-06
8.98405e-06
9.01351e-06
9.03544e-06
9.0398e-06
9.0252e-06
8.99963e-06
8.97506e-06
8.96029e-06
8.95711e-06
8.96105e-06
6.91344e-06
7.9513e-06
8.00821e-06
8.06464e-06
8.1193e-06
8.17151e-06
8.22121e-06
8.26862e-06
8.31403e-06
8.35769e-06
8.39968e-06
8.43993e-06
8.47818e-06
8.51407e-06
8.54727e-06
8.57768e-06
8.6056e-06
8.6318e-06
8.65749e-06
8.68402e-06
8.71248e-06
8.74335e-06
8.77627e-06
8.81004e-06
8.84305e-06
8.87374e-06
8.90105e-06
8.9247e-06
8.94503e-06
8.96412e-06
9.01243e-06
9.01411e-06
9.01104e-06
9.00363e-06
8.99152e-06
8.97573e-06
8.95918e-06
8.94689e-06
8.9448e-06
8.9569e-06
8.98178e-06
9.0111e-06
9.03245e-06
9.03603e-06
9.02082e-06
8.99508e-06
8.97074e-06
8.95632e-06
8.95331e-06
8.95714e-06
6.91442e-06
7.9509e-06
8.00784e-06
8.06436e-06
8.11913e-06
8.17145e-06
8.22123e-06
8.2687e-06
8.31411e-06
8.3577e-06
8.39953e-06
8.43954e-06
8.47748e-06
8.51303e-06
8.54591e-06
8.57606e-06
8.60383e-06
8.63002e-06
8.6558e-06
8.68249e-06
8.71113e-06
8.74215e-06
8.77513e-06
8.80888e-06
8.84179e-06
8.87231e-06
8.89944e-06
8.9229e-06
8.94305e-06
8.96199e-06
9.01026e-06
9.01172e-06
9.00842e-06
9.00071e-06
8.9883e-06
8.97227e-06
8.95566e-06
8.94354e-06
8.94182e-06
8.95434e-06
8.97943e-06
9.00858e-06
9.02936e-06
9.03222e-06
9.01648e-06
8.99065e-06
8.96657e-06
8.95251e-06
8.94967e-06
8.9534e-06
6.91587e-06
7.95065e-06
8.00767e-06
8.06432e-06
8.1192e-06
8.17162e-06
8.2215e-06
8.26902e-06
8.31443e-06
8.35793e-06
8.3996e-06
8.43936e-06
8.47698e-06
8.51217e-06
8.54471e-06
8.5746e-06
8.6022e-06
8.62833e-06
8.65417e-06
8.68098e-06
8.70976e-06
8.74089e-06
8.77391e-06
8.80762e-06
8.84043e-06
8.87081e-06
8.89776e-06
8.92105e-06
8.94105e-06
8.95985e-06
9.0081e-06
9.00936e-06
9.00583e-06
8.99785e-06
8.98517e-06
8.96892e-06
8.95225e-06
8.9403e-06
8.93891e-06
8.95177e-06
8.97701e-06
9.00595e-06
9.02618e-06
9.02838e-06
9.01221e-06
8.98633e-06
8.96254e-06
8.94883e-06
8.94616e-06
8.94979e-06
6.91773e-06
7.95054e-06
8.00767e-06
8.06448e-06
8.1195e-06
8.17203e-06
8.222e-06
8.26956e-06
8.31497e-06
8.35839e-06
8.39989e-06
8.43939e-06
8.47668e-06
8.51152e-06
8.54371e-06
8.5733e-06
8.6007e-06
8.62675e-06
8.65261e-06
8.67949e-06
8.70837e-06
8.73957e-06
8.7726e-06
8.80628e-06
8.83899e-06
8.86923e-06
8.89603e-06
8.91917e-06
8.93902e-06
8.95769e-06
9.00595e-06
9.00703e-06
9.00328e-06
8.99506e-06
8.98212e-06
8.96568e-06
8.94897e-06
8.93716e-06
8.93606e-06
8.9492e-06
8.97453e-06
9.00323e-06
9.02293e-06
9.02453e-06
9.00798e-06
8.98212e-06
8.95863e-06
8.94526e-06
8.94273e-06
8.94624e-06
6.92006e-06
7.95058e-06
8.00784e-06
8.06485e-06
8.12002e-06
8.17267e-06
8.22273e-06
8.27034e-06
8.31574e-06
8.35907e-06
8.4004e-06
8.43964e-06
8.4766e-06
8.51107e-06
8.5429e-06
8.57218e-06
8.59936e-06
8.62529e-06
8.65111e-06
8.67803e-06
8.70696e-06
8.73819e-06
8.77122e-06
8.80483e-06
8.83745e-06
8.86756e-06
8.89423e-06
8.91724e-06
8.93697e-06
8.95553e-06
9.00381e-06
9.00472e-06
9.00078e-06
8.99233e-06
8.97916e-06
8.96255e-06
8.9458e-06
8.93412e-06
8.93327e-06
8.94664e-06
8.972e-06
9.00043e-06
9.01961e-06
9.02067e-06
9.00382e-06
8.97801e-06
8.95481e-06
8.94175e-06
8.93934e-06
8.9427e-06
6.92295e-06
7.95081e-06
8.00822e-06
8.06544e-06
8.12078e-06
8.17356e-06
8.2237e-06
8.27136e-06
8.31674e-06
8.35998e-06
8.40113e-06
8.4401e-06
8.47673e-06
8.51083e-06
8.54228e-06
8.57124e-06
8.59817e-06
8.62395e-06
8.6497e-06
8.6766e-06
8.70553e-06
8.73675e-06
8.76974e-06
8.80329e-06
8.83581e-06
8.86581e-06
8.89237e-06
8.91526e-06
8.93488e-06
8.95335e-06
9.00168e-06
9.00243e-06
8.99832e-06
8.98968e-06
8.9763e-06
8.95954e-06
8.94275e-06
8.93119e-06
8.93054e-06
8.94408e-06
8.96942e-06
8.99756e-06
9.01626e-06
9.01683e-06
8.99974e-06
8.97399e-06
8.95109e-06
8.93831e-06
8.93596e-06
8.93915e-06
6.92655e-06
7.95133e-06
8.00885e-06
8.06627e-06
8.1218e-06
8.1747e-06
8.22493e-06
8.27263e-06
8.31799e-06
8.36113e-06
8.40209e-06
8.44079e-06
8.47708e-06
8.51079e-06
8.54187e-06
8.57048e-06
8.59715e-06
8.62273e-06
8.64836e-06
8.6752e-06
8.70408e-06
8.73525e-06
8.76817e-06
8.80164e-06
8.83406e-06
8.86397e-06
8.89043e-06
8.91323e-06
8.93277e-06
8.95115e-06
8.99956e-06
9.00018e-06
8.99591e-06
8.98709e-06
8.97353e-06
8.95664e-06
8.93982e-06
8.92835e-06
8.92787e-06
8.94153e-06
8.96681e-06
8.99465e-06
9.01287e-06
9.01302e-06
8.99573e-06
8.97008e-06
8.94744e-06
8.9349e-06
8.93259e-06
8.93556e-06
6.931e-06
7.95226e-06
8.00983e-06
8.06744e-06
8.12313e-06
8.17615e-06
8.22646e-06
8.27419e-06
8.31951e-06
8.36254e-06
8.4033e-06
8.44172e-06
8.47765e-06
8.51097e-06
8.54166e-06
8.56991e-06
8.59628e-06
8.62164e-06
8.64711e-06
8.67382e-06
8.70261e-06
8.73368e-06
8.76651e-06
8.79988e-06
8.83221e-06
8.86204e-06
8.88842e-06
8.91114e-06
8.93061e-06
8.94894e-06
8.99745e-06
8.99794e-06
8.99355e-06
8.98458e-06
8.97086e-06
8.95384e-06
8.937e-06
8.92561e-06
8.92526e-06
8.93899e-06
8.96417e-06
8.99169e-06
9.00948e-06
9.00925e-06
8.9918e-06
8.96626e-06
8.94387e-06
8.93152e-06
8.92919e-06
8.93189e-06
6.93647e-06
7.95372e-06
8.01129e-06
8.06903e-06
8.12485e-06
8.17798e-06
8.22835e-06
8.27608e-06
8.32135e-06
8.36424e-06
8.40478e-06
8.44289e-06
8.47846e-06
8.51138e-06
8.54166e-06
8.56954e-06
8.59558e-06
8.62068e-06
8.64594e-06
8.67249e-06
8.70112e-06
8.73206e-06
8.76476e-06
8.79802e-06
8.83026e-06
8.86001e-06
8.88633e-06
8.909e-06
8.92842e-06
8.9467e-06
8.99535e-06
8.99574e-06
8.99123e-06
8.98213e-06
8.96827e-06
8.95115e-06
8.93429e-06
8.92296e-06
8.92271e-06
8.93646e-06
8.9615e-06
8.98871e-06
9.00609e-06
9.00553e-06
8.98797e-06
8.96255e-06
8.94038e-06
8.92817e-06
8.92577e-06
8.92817e-06
6.943e-06
7.95581e-06
8.01335e-06
8.07116e-06
8.12706e-06
8.18025e-06
8.23064e-06
8.27835e-06
8.32352e-06
8.36625e-06
8.40654e-06
8.44433e-06
8.47952e-06
8.51202e-06
8.54188e-06
8.56936e-06
8.59505e-06
8.61985e-06
8.64486e-06
8.67119e-06
8.69963e-06
8.73038e-06
8.76292e-06
8.79605e-06
8.82819e-06
8.85788e-06
8.88416e-06
8.9068e-06
8.9262e-06
8.94445e-06
8.99325e-06
8.99355e-06
8.98896e-06
8.97974e-06
8.96577e-06
8.94856e-06
8.93167e-06
8.92039e-06
8.92021e-06
8.93395e-06
8.95883e-06
8.98572e-06
9.00272e-06
9.00188e-06
8.98425e-06
8.95896e-06
8.93698e-06
8.92486e-06
8.92234e-06
8.92438e-06
6.95057e-06
7.95848e-06
8.01598e-06
8.07383e-06
8.12979e-06
8.183e-06
8.23337e-06
8.28101e-06
8.32606e-06
8.36858e-06
8.4086e-06
8.44605e-06
8.48084e-06
8.51291e-06
8.54232e-06
8.56939e-06
8.5947e-06
8.61917e-06
8.64388e-06
8.66994e-06
8.69813e-06
8.72866e-06
8.76101e-06
8.79398e-06
8.82602e-06
8.85565e-06
8.8819e-06
8.90454e-06
8.92393e-06
8.94218e-06
8.99115e-06
8.99139e-06
8.98673e-06
8.97743e-06
8.96336e-06
8.94607e-06
8.92916e-06
8.91791e-06
8.91775e-06
8.93145e-06
8.95614e-06
8.98272e-06
8.99938e-06
8.99831e-06
8.98065e-06
8.95548e-06
8.93366e-06
8.92159e-06
8.91891e-06
8.92055e-06
6.95867e-06
7.9617e-06
8.01919e-06
8.07707e-06
8.13304e-06
8.18623e-06
8.23654e-06
8.28408e-06
8.32896e-06
8.37126e-06
8.41098e-06
8.44807e-06
8.48243e-06
8.51405e-06
8.54301e-06
8.56964e-06
8.59454e-06
8.61864e-06
8.64301e-06
8.66875e-06
8.69664e-06
8.7269e-06
8.75902e-06
8.79182e-06
8.82375e-06
8.85333e-06
8.87957e-06
8.90221e-06
8.92162e-06
8.93988e-06
8.98905e-06
8.98925e-06
8.98454e-06
8.97517e-06
8.96102e-06
8.94367e-06
8.92673e-06
8.91549e-06
8.91535e-06
8.92897e-06
8.95346e-06
8.97972e-06
8.99608e-06
8.99483e-06
8.97718e-06
8.95214e-06
8.93045e-06
8.91839e-06
8.91549e-06
8.91671e-06
6.96732e-06
7.96567e-06
8.02322e-06
8.08102e-06
8.1369e-06
8.18999e-06
8.24018e-06
8.28756e-06
8.33224e-06
8.37428e-06
8.41368e-06
8.45037e-06
8.48431e-06
8.51546e-06
8.54395e-06
8.57011e-06
8.59459e-06
8.61827e-06
8.64227e-06
8.66764e-06
8.69518e-06
8.72512e-06
8.75697e-06
8.78958e-06
8.82139e-06
8.85093e-06
8.87717e-06
8.89983e-06
8.91926e-06
8.93756e-06
8.98696e-06
8.98713e-06
8.98239e-06
8.97297e-06
8.95876e-06
8.94135e-06
8.92438e-06
8.91315e-06
8.91298e-06
8.92651e-06
8.95078e-06
8.97674e-06
8.99282e-06
8.99145e-06
8.97385e-06
8.94895e-06
8.92736e-06
8.91526e-06
8.91213e-06
8.9129e-06
6.97578e-06
7.96976e-06
8.02759e-06
8.08538e-06
8.14117e-06
8.19414e-06
8.24419e-06
8.2914e-06
8.33586e-06
8.37762e-06
8.41667e-06
8.45297e-06
8.48646e-06
8.51713e-06
8.54514e-06
8.57083e-06
8.59484e-06
8.61809e-06
8.64166e-06
8.66662e-06
8.69377e-06
8.72334e-06
8.75489e-06
8.78727e-06
8.81895e-06
8.84844e-06
8.87469e-06
8.89739e-06
8.91687e-06
8.93521e-06
8.98486e-06
8.98503e-06
8.98028e-06
8.97084e-06
8.95658e-06
8.93912e-06
8.92212e-06
8.91087e-06
8.91067e-06
8.92407e-06
8.9481e-06
8.97378e-06
8.98963e-06
8.98819e-06
8.97066e-06
8.94591e-06
8.92441e-06
8.91223e-06
8.90884e-06
8.90915e-06
6.98428e-06
7.97358e-06
8.03182e-06
8.08973e-06
8.14554e-06
8.19847e-06
8.24843e-06
8.29549e-06
8.33974e-06
8.38123e-06
8.41994e-06
8.45584e-06
8.48888e-06
8.51908e-06
8.54659e-06
8.57179e-06
8.59533e-06
8.6181e-06
8.6412e-06
8.66571e-06
8.69241e-06
8.72158e-06
8.75278e-06
8.78491e-06
8.81645e-06
8.84588e-06
8.87214e-06
8.8949e-06
8.91444e-06
8.93285e-06
8.98277e-06
8.98294e-06
8.9782e-06
8.96875e-06
8.95446e-06
8.93696e-06
8.91994e-06
8.90866e-06
8.9084e-06
8.92165e-06
8.94544e-06
8.97084e-06
8.98651e-06
8.98504e-06
8.96764e-06
8.94304e-06
8.92161e-06
8.90934e-06
8.90566e-06
8.90554e-06
6.99343e-06
7.97771e-06
8.03624e-06
8.09429e-06
8.15014e-06
8.20305e-06
8.25293e-06
8.29986e-06
8.3439e-06
8.38512e-06
8.42349e-06
8.45899e-06
8.49158e-06
8.52129e-06
8.54831e-06
8.573e-06
8.59604e-06
8.61831e-06
8.64092e-06
8.66492e-06
8.69113e-06
8.71985e-06
8.75067e-06
8.78251e-06
8.81388e-06
8.84325e-06
8.86954e-06
8.89235e-06
8.91198e-06
8.93046e-06
8.98067e-06
8.98088e-06
8.97616e-06
8.96672e-06
8.95242e-06
8.93489e-06
8.91783e-06
8.90652e-06
8.90617e-06
8.91925e-06
8.9428e-06
8.96795e-06
8.98346e-06
8.98202e-06
8.96479e-06
8.94036e-06
8.91898e-06
8.90659e-06
8.90264e-06
8.90209e-06
7.0038e-06
7.98268e-06
8.04131e-06
8.09942e-06
8.15525e-06
8.20809e-06
8.25785e-06
8.30459e-06
8.34841e-06
8.38933e-06
8.42735e-06
8.46243e-06
8.49456e-06
8.52379e-06
8.55029e-06
8.57447e-06
8.59699e-06
8.61874e-06
8.6408e-06
8.66426e-06
8.68994e-06
8.71816e-06
8.74856e-06
8.78009e-06
8.81127e-06
8.84057e-06
8.86688e-06
8.88976e-06
8.90948e-06
8.92806e-06
8.97858e-06
8.97883e-06
8.97416e-06
8.96475e-06
8.95044e-06
8.93289e-06
8.9158e-06
8.90444e-06
8.90399e-06
8.91689e-06
8.94018e-06
8.96509e-06
8.98049e-06
8.97914e-06
8.96211e-06
8.93787e-06
8.91654e-06
8.90403e-06
8.8998e-06
8.89887e-06
7.01544e-06
7.98863e-06
8.04723e-06
8.10525e-06
8.16097e-06
8.21367e-06
8.26325e-06
8.30977e-06
8.35331e-06
8.3939e-06
8.43153e-06
8.46619e-06
8.49784e-06
8.52657e-06
8.55255e-06
8.5762e-06
8.59818e-06
8.61937e-06
8.64087e-06
8.66375e-06
8.68885e-06
8.71653e-06
8.74647e-06
8.77765e-06
8.80862e-06
8.83784e-06
8.86417e-06
8.88713e-06
8.90695e-06
8.92564e-06
8.97648e-06
8.97679e-06
8.97219e-06
8.96282e-06
8.94853e-06
8.93097e-06
8.91384e-06
8.90242e-06
8.90185e-06
8.91455e-06
8.93759e-06
8.96228e-06
8.97761e-06
8.97639e-06
8.95961e-06
8.93558e-06
8.91431e-06
8.90167e-06
8.89718e-06
8.89591e-06
7.02796e-06
7.99544e-06
8.05394e-06
8.11181e-06
8.16733e-06
8.21982e-06
8.26915e-06
8.3154e-06
8.35862e-06
8.39885e-06
8.43607e-06
8.47026e-06
8.50143e-06
8.52963e-06
8.55508e-06
8.57819e-06
8.5996e-06
8.62022e-06
8.64112e-06
8.66338e-06
8.68787e-06
8.71497e-06
8.7444e-06
8.77521e-06
8.80595e-06
8.83508e-06
8.86142e-06
8.88447e-06
8.90439e-06
8.9232e-06
8.97439e-06
8.97478e-06
8.97025e-06
8.96095e-06
8.94668e-06
8.92911e-06
8.91196e-06
8.90046e-06
8.89976e-06
8.91226e-06
8.93504e-06
8.95952e-06
8.97483e-06
8.97379e-06
8.95731e-06
8.93351e-06
8.91229e-06
8.89953e-06
8.89481e-06
8.89327e-06
7.04098e-06
8.00292e-06
8.06133e-06
8.11901e-06
8.17429e-06
8.22651e-06
8.27556e-06
8.32149e-06
8.36436e-06
8.40418e-06
8.44096e-06
8.47467e-06
8.50533e-06
8.53299e-06
8.55789e-06
8.58043e-06
8.60126e-06
8.62127e-06
8.64155e-06
8.66316e-06
8.68699e-06
8.71347e-06
8.74237e-06
8.77277e-06
8.80325e-06
8.83227e-06
8.85862e-06
8.88176e-06
8.90181e-06
8.92075e-06
8.9723e-06
8.97278e-06
8.96835e-06
8.95912e-06
8.9449e-06
8.92733e-06
8.91014e-06
8.89857e-06
8.89773e-06
8.91e-06
8.93252e-06
8.95682e-06
8.97214e-06
8.97133e-06
8.95519e-06
8.93166e-06
8.91051e-06
8.89763e-06
8.89271e-06
8.89097e-06
7.05416e-06
8.01092e-06
8.06926e-06
8.12673e-06
8.18176e-06
8.2337e-06
8.28243e-06
8.32802e-06
8.3705e-06
8.4099e-06
8.44621e-06
8.47942e-06
8.50954e-06
8.53665e-06
8.56097e-06
8.58292e-06
8.60315e-06
8.62253e-06
8.64215e-06
8.66308e-06
8.68622e-06
8.71205e-06
8.74037e-06
8.77033e-06
8.80053e-06
8.82943e-06
8.85579e-06
8.87903e-06
8.89921e-06
8.9183e-06
8.97022e-06
8.97081e-06
8.96649e-06
8.95735e-06
8.94318e-06
8.92562e-06
8.9084e-06
8.89674e-06
8.89575e-06
8.90779e-06
8.93005e-06
8.95418e-06
8.96954e-06
8.96902e-06
8.95326e-06
8.93002e-06
8.90895e-06
8.89597e-06
8.89089e-06
8.88902e-06
7.06704e-06
8.01923e-06
8.07754e-06
8.13483e-06
8.1896e-06
8.24125e-06
8.28968e-06
8.33492e-06
8.37701e-06
8.41598e-06
8.45182e-06
8.48451e-06
8.51408e-06
8.54061e-06
8.56434e-06
8.58568e-06
8.60527e-06
8.624e-06
8.64292e-06
8.66313e-06
8.68555e-06
8.71068e-06
8.7384e-06
8.76789e-06
8.79778e-06
8.82655e-06
8.85293e-06
8.87626e-06
8.89658e-06
8.91583e-06
8.96814e-06
8.96885e-06
8.96465e-06
8.95562e-06
8.94152e-06
8.92398e-06
8.90673e-06
8.89498e-06
8.89382e-06
8.90562e-06
8.92763e-06
8.95161e-06
8.96705e-06
8.96685e-06
8.95152e-06
8.9286e-06
8.90763e-06
8.89457e-06
8.88935e-06
8.88744e-06
7.07898e-06
8.02756e-06
8.0859e-06
8.14306e-06
8.19762e-06
8.24903e-06
8.29718e-06
8.3421e-06
8.38383e-06
8.42238e-06
8.45775e-06
8.48992e-06
8.51893e-06
8.54488e-06
8.56799e-06
8.58869e-06
8.60763e-06
8.62567e-06
8.64387e-06
8.66332e-06
8.68499e-06
8.70939e-06
8.73647e-06
8.76545e-06
8.79502e-06
8.82365e-06
8.85003e-06
8.87346e-06
8.89394e-06
8.91336e-06
8.96606e-06
8.96691e-06
8.96286e-06
8.95394e-06
8.93992e-06
8.92241e-06
8.90512e-06
8.89328e-06
8.89195e-06
8.9035e-06
8.92526e-06
8.9491e-06
8.96466e-06
8.96482e-06
8.94995e-06
8.92739e-06
8.90654e-06
8.89342e-06
8.88811e-06
8.88622e-06
7.0892e-06
8.03554e-06
8.09403e-06
8.15114e-06
8.20558e-06
8.25681e-06
8.30476e-06
8.34943e-06
8.39085e-06
8.42902e-06
8.46396e-06
8.49564e-06
8.5241e-06
8.54945e-06
8.57194e-06
8.59199e-06
8.61024e-06
8.62755e-06
8.64499e-06
8.66366e-06
8.68453e-06
8.70817e-06
8.73457e-06
8.76302e-06
8.79225e-06
8.82071e-06
8.84709e-06
8.87063e-06
8.89128e-06
8.91088e-06
8.96399e-06
8.96499e-06
8.96109e-06
8.95231e-06
8.93838e-06
8.9209e-06
8.90358e-06
8.89164e-06
8.89013e-06
8.90143e-06
8.92294e-06
8.94667e-06
8.96236e-06
8.96293e-06
8.94856e-06
8.92638e-06
8.90567e-06
8.8925e-06
8.88714e-06
8.88534e-06
7.09689e-06
8.04277e-06
8.10154e-06
8.15872e-06
8.21315e-06
8.26434e-06
8.31219e-06
8.35671e-06
8.39791e-06
8.43579e-06
8.47035e-06
8.50159e-06
8.52954e-06
8.55432e-06
8.57619e-06
8.59557e-06
8.61311e-06
8.62967e-06
8.64632e-06
8.66416e-06
8.68419e-06
8.70702e-06
8.73271e-06
8.7606e-06
8.78946e-06
8.81775e-06
8.84413e-06
8.86778e-06
8.8886e-06
8.9084e-06
8.96193e-06
8.9631e-06
8.95937e-06
8.95073e-06
8.9369e-06
8.91945e-06
8.90211e-06
8.89007e-06
8.88837e-06
8.89942e-06
8.92067e-06
8.9443e-06
8.96016e-06
8.96116e-06
8.94733e-06
8.92555e-06
8.90501e-06
8.89182e-06
8.88643e-06
8.88478e-06
7.10122e-06
8.04881e-06
8.10802e-06
8.16544e-06
8.22002e-06
8.27131e-06
8.3192e-06
8.36371e-06
8.40482e-06
8.44253e-06
8.47682e-06
8.5077e-06
8.5352e-06
8.55945e-06
8.58072e-06
8.59943e-06
8.61625e-06
8.63204e-06
8.64786e-06
8.66483e-06
8.68398e-06
8.70597e-06
8.73091e-06
8.75821e-06
8.78666e-06
8.81477e-06
8.84114e-06
8.86491e-06
8.88591e-06
8.90592e-06
8.95988e-06
8.96123e-06
8.95768e-06
8.9492e-06
8.93548e-06
8.91808e-06
8.9007e-06
8.88855e-06
8.88666e-06
8.89745e-06
8.91846e-06
8.942e-06
8.95805e-06
8.95951e-06
8.94625e-06
8.9249e-06
8.90453e-06
8.89133e-06
8.88594e-06
8.88449e-06
7.1015e-06
8.05325e-06
8.11309e-06
8.17092e-06
8.22582e-06
8.27739e-06
8.32551e-06
8.37017e-06
8.41136e-06
8.44904e-06
8.4832e-06
8.51383e-06
8.54098e-06
8.56478e-06
8.58549e-06
8.60356e-06
8.61966e-06
8.63466e-06
8.64963e-06
8.6657e-06
8.68394e-06
8.70504e-06
8.72919e-06
8.75585e-06
8.78388e-06
8.81178e-06
8.83813e-06
8.86202e-06
8.88321e-06
8.90344e-06
8.95784e-06
8.95939e-06
8.95602e-06
8.94772e-06
8.93411e-06
8.91676e-06
8.89936e-06
8.88709e-06
8.885e-06
8.89553e-06
8.9163e-06
8.93976e-06
8.95603e-06
8.95798e-06
8.9453e-06
8.92441e-06
8.90423e-06
8.89103e-06
8.88565e-06
8.88443e-06
7.09727e-06
8.05576e-06
8.11641e-06
8.17484e-06
8.23025e-06
8.28229e-06
8.33083e-06
8.37584e-06
8.41728e-06
8.45511e-06
8.4893e-06
8.51984e-06
8.54676e-06
8.57021e-06
8.59045e-06
8.60794e-06
8.62334e-06
8.63755e-06
8.65164e-06
8.66679e-06
8.68407e-06
8.70426e-06
8.72757e-06
8.75356e-06
8.78113e-06
8.8088e-06
8.83512e-06
8.85912e-06
8.88051e-06
8.90097e-06
8.95582e-06
8.95757e-06
8.95441e-06
8.94628e-06
8.9328e-06
8.91551e-06
8.89807e-06
8.88569e-06
8.88339e-06
8.89365e-06
8.91419e-06
8.93758e-06
8.95407e-06
8.95653e-06
8.94447e-06
8.92404e-06
8.90406e-06
8.89087e-06
8.88552e-06
8.88455e-06
7.08842e-06
8.05618e-06
8.1178e-06
8.17699e-06
8.23309e-06
8.28577e-06
8.33492e-06
8.38046e-06
8.42235e-06
8.46053e-06
8.49494e-06
8.52556e-06
8.55242e-06
8.57565e-06
8.59552e-06
8.6125e-06
8.62725e-06
8.6407e-06
8.65393e-06
8.66813e-06
8.68443e-06
8.70365e-06
8.72609e-06
8.75137e-06
8.77844e-06
8.80585e-06
8.83212e-06
8.85624e-06
8.87782e-06
8.89852e-06
8.95381e-06
8.95579e-06
8.95284e-06
8.9449e-06
8.93156e-06
8.91431e-06
8.89685e-06
8.88435e-06
8.88183e-06
8.89182e-06
8.91212e-06
8.93546e-06
8.95219e-06
8.95517e-06
8.94373e-06
8.92379e-06
8.90402e-06
8.89083e-06
8.8855e-06
8.88479e-06
7.07489e-06
8.05433e-06
8.1171e-06
8.17722e-06
8.23418e-06
8.28768e-06
8.33761e-06
8.38387e-06
8.42641e-06
8.46512e-06
8.49995e-06
8.53084e-06
8.55781e-06
8.58098e-06
8.60062e-06
8.61719e-06
8.63137e-06
8.6441e-06
8.65648e-06
8.66973e-06
8.68502e-06
8.70325e-06
8.72478e-06
8.7493e-06
8.77584e-06
8.80295e-06
8.82916e-06
8.85337e-06
8.87516e-06
8.89609e-06
8.95184e-06
8.95405e-06
8.95132e-06
8.94357e-06
8.93037e-06
8.91318e-06
8.89569e-06
8.88305e-06
8.88032e-06
8.89003e-06
8.91009e-06
8.93338e-06
8.95036e-06
8.95388e-06
8.94307e-06
8.92362e-06
8.90406e-06
8.89088e-06
8.88556e-06
8.88509e-06
7.05791e-06
8.05053e-06
8.11449e-06
8.17564e-06
8.23356e-06
8.288e-06
8.33884e-06
8.38598e-06
8.42932e-06
8.46875e-06
8.50418e-06
8.53552e-06
8.56279e-06
8.58607e-06
8.60563e-06
8.62193e-06
8.63565e-06
8.64772e-06
8.65929e-06
8.67161e-06
8.6859e-06
8.7031e-06
8.72368e-06
8.74741e-06
8.77337e-06
8.80015e-06
8.82625e-06
8.85055e-06
8.87252e-06
8.8937e-06
8.9499e-06
8.95235e-06
8.94985e-06
8.9423e-06
8.92924e-06
8.91211e-06
8.89458e-06
8.88181e-06
8.87885e-06
8.88828e-06
8.9081e-06
8.93134e-06
8.94858e-06
8.95264e-06
8.94248e-06
8.92352e-06
8.90417e-06
8.89097e-06
8.88564e-06
8.88539e-06
7.0383e-06
8.04522e-06
8.11035e-06
8.17253e-06
8.23144e-06
8.28687e-06
8.3387e-06
8.38681e-06
8.43108e-06
8.47137e-06
8.50755e-06
8.53953e-06
8.56726e-06
8.59084e-06
8.61049e-06
8.62665e-06
8.64002e-06
8.65153e-06
8.66235e-06
8.67377e-06
8.68706e-06
8.70324e-06
8.72284e-06
8.74574e-06
8.77107e-06
8.79747e-06
8.82344e-06
8.84779e-06
8.86994e-06
8.89135e-06
8.948e-06
8.95069e-06
8.94843e-06
8.94109e-06
8.92817e-06
8.91111e-06
8.89354e-06
8.88062e-06
8.87742e-06
8.88656e-06
8.90614e-06
8.92933e-06
8.94684e-06
8.95144e-06
8.94192e-06
8.92345e-06
8.9043e-06
8.89108e-06
8.88571e-06
8.88564e-06
7.01632e-06
8.03855e-06
8.10488e-06
8.16811e-06
8.22802e-06
8.28446e-06
8.33732e-06
8.38645e-06
8.43172e-06
8.47298e-06
8.51004e-06
8.5428e-06
8.57116e-06
8.59519e-06
8.61509e-06
8.63127e-06
8.64443e-06
8.65549e-06
8.66565e-06
8.67622e-06
8.68853e-06
8.70369e-06
8.72229e-06
8.74432e-06
8.76898e-06
8.79496e-06
8.82075e-06
8.84512e-06
8.86744e-06
8.88907e-06
8.94616e-06
8.9491e-06
8.94707e-06
8.93993e-06
8.92716e-06
8.91016e-06
8.89255e-06
8.87948e-06
8.87603e-06
8.88488e-06
8.90421e-06
8.92736e-06
8.94512e-06
8.95027e-06
8.94139e-06
8.9234e-06
8.90444e-06
8.89117e-06
8.88572e-06
8.88578e-06
6.99261e-06
8.03073e-06
8.09831e-06
8.16259e-06
8.2235e-06
8.28095e-06
8.33484e-06
8.38503e-06
8.43135e-06
8.47363e-06
8.51168e-06
8.54532e-06
8.57445e-06
8.59908e-06
8.61938e-06
8.63574e-06
8.64881e-06
8.65955e-06
8.66913e-06
8.67893e-06
8.69032e-06
8.70446e-06
8.72207e-06
8.74319e-06
8.76715e-06
8.79266e-06
8.81822e-06
8.84258e-06
8.86502e-06
8.88687e-06
8.94438e-06
8.94756e-06
8.94578e-06
8.93885e-06
8.92623e-06
8.90929e-06
8.89162e-06
8.87839e-06
8.87469e-06
8.88322e-06
8.9023e-06
8.9254e-06
8.94342e-06
8.94911e-06
8.94086e-06
8.92335e-06
8.90457e-06
8.89121e-06
8.88564e-06
8.88576e-06
6.96801e-06
8.02204e-06
8.0909e-06
8.15624e-06
8.21815e-06
8.27659e-06
8.33149e-06
8.38272e-06
8.43011e-06
8.47345e-06
8.51253e-06
8.54714e-06
8.57714e-06
8.60249e-06
8.62332e-06
8.63998e-06
8.65312e-06
8.66365e-06
8.67278e-06
8.68189e-06
8.69241e-06
8.70557e-06
8.72218e-06
8.74239e-06
8.7656e-06
8.79059e-06
8.81588e-06
8.84018e-06
8.86272e-06
8.88477e-06
8.94267e-06
8.9461e-06
8.94455e-06
8.93783e-06
8.92536e-06
8.90847e-06
8.89076e-06
8.87736e-06
8.87338e-06
8.88159e-06
8.90042e-06
8.92346e-06
8.94173e-06
8.94796e-06
8.94033e-06
8.92328e-06
8.90465e-06
8.89118e-06
8.88543e-06
8.88555e-06
6.94329e-06
8.01282e-06
8.08295e-06
8.14935e-06
8.21223e-06
8.27163e-06
8.32751e-06
8.37975e-06
8.42818e-06
8.47258e-06
8.51271e-06
8.54833e-06
8.57926e-06
8.60541e-06
8.62688e-06
8.64397e-06
8.65729e-06
8.66775e-06
8.67653e-06
8.68505e-06
8.69477e-06
8.70701e-06
8.72265e-06
8.74194e-06
8.76436e-06
8.78879e-06
8.81376e-06
8.83795e-06
8.86056e-06
8.88277e-06
8.94105e-06
8.94472e-06
8.9434e-06
8.93689e-06
8.92457e-06
8.90773e-06
8.88995e-06
8.87637e-06
8.87211e-06
8.87999e-06
8.89855e-06
8.92153e-06
8.94005e-06
8.94679e-06
8.93977e-06
8.92318e-06
8.90467e-06
8.89105e-06
8.88507e-06
8.8851e-06
6.91909e-06
8.0034e-06
8.07474e-06
8.14218e-06
8.206e-06
8.26632e-06
8.32312e-06
8.37632e-06
8.42575e-06
8.47118e-06
8.51234e-06
8.54898e-06
8.58087e-06
8.60789e-06
8.63007e-06
8.64769e-06
8.6613e-06
8.67179e-06
8.68034e-06
8.68837e-06
8.69739e-06
8.70877e-06
8.72347e-06
8.74183e-06
8.76347e-06
8.78729e-06
8.81188e-06
8.83592e-06
8.85855e-06
8.8809e-06
8.93953e-06
8.94342e-06
8.94234e-06
8.93603e-06
8.92385e-06
8.90707e-06
8.88922e-06
8.87544e-06
8.87088e-06
8.87842e-06
8.8967e-06
8.9196e-06
8.93836e-06
8.94562e-06
8.93919e-06
8.92303e-06
8.90462e-06
8.89081e-06
8.88453e-06
8.88438e-06
6.89602e-06
7.99408e-06
8.06654e-06
8.13498e-06
8.1997e-06
8.26088e-06
8.31855e-06
8.37265e-06
8.42301e-06
8.4694e-06
8.51156e-06
8.54919e-06
8.58205e-06
8.60995e-06
8.6329e-06
8.65111e-06
8.66511e-06
8.67573e-06
8.68416e-06
8.69181e-06
8.70022e-06
8.7108e-06
8.72461e-06
8.74208e-06
8.76291e-06
8.78609e-06
8.81027e-06
8.83411e-06
8.85672e-06
8.87917e-06
8.93812e-06
8.94223e-06
8.94136e-06
8.93525e-06
8.92321e-06
8.90647e-06
8.88855e-06
8.87457e-06
8.8697e-06
8.87688e-06
8.89487e-06
8.91769e-06
8.93667e-06
8.94442e-06
8.93858e-06
8.92282e-06
8.90449e-06
8.89044e-06
8.8838e-06
8.88338e-06
6.87456e-06
7.98514e-06
8.05862e-06
8.12797e-06
8.19352e-06
8.2555e-06
8.31397e-06
8.36889e-06
8.42011e-06
8.46741e-06
8.5105e-06
8.54908e-06
8.58287e-06
8.61165e-06
8.63539e-06
8.65424e-06
8.66869e-06
8.67954e-06
8.68794e-06
8.69531e-06
8.7032e-06
8.71308e-06
8.72606e-06
8.74267e-06
8.76269e-06
8.78521e-06
8.80893e-06
8.83253e-06
8.85507e-06
8.87759e-06
8.93682e-06
8.94113e-06
8.94048e-06
8.93457e-06
8.92266e-06
8.90596e-06
8.88795e-06
8.87376e-06
8.86857e-06
8.87538e-06
8.89305e-06
8.91578e-06
8.93497e-06
8.94321e-06
8.93793e-06
8.92256e-06
8.90428e-06
8.88995e-06
8.88287e-06
8.88209e-06
6.85501e-06
7.97679e-06
8.05116e-06
8.12133e-06
8.18764e-06
8.25035e-06
8.30955e-06
8.36521e-06
8.41721e-06
8.46532e-06
8.50928e-06
8.54874e-06
8.58341e-06
8.61305e-06
8.63756e-06
8.65708e-06
8.67202e-06
8.68317e-06
8.69163e-06
8.69882e-06
8.70629e-06
8.71555e-06
8.72777e-06
8.74356e-06
8.76279e-06
8.78465e-06
8.80787e-06
8.83118e-06
8.85362e-06
8.87618e-06
8.93565e-06
8.94014e-06
8.9397e-06
8.93397e-06
8.9222e-06
8.90553e-06
8.88743e-06
8.87302e-06
8.86748e-06
8.87391e-06
8.89127e-06
8.91388e-06
8.93327e-06
8.94197e-06
8.93724e-06
8.92225e-06
8.90399e-06
8.88933e-06
8.88176e-06
8.88052e-06
6.83751e-06
7.96917e-06
8.04428e-06
8.11518e-06
8.18217e-06
8.24553e-06
8.30537e-06
8.3617e-06
8.41439e-06
8.46324e-06
8.50797e-06
8.54825e-06
8.58374e-06
8.61419e-06
8.63946e-06
8.65964e-06
8.6751e-06
8.68659e-06
8.69518e-06
8.70228e-06
8.70942e-06
8.71815e-06
8.72969e-06
8.74472e-06
8.76319e-06
8.78438e-06
8.80709e-06
8.83007e-06
8.85237e-06
8.87493e-06
8.93461e-06
8.93927e-06
8.93902e-06
8.93348e-06
8.92183e-06
8.90519e-06
8.88699e-06
8.87234e-06
8.86646e-06
8.87249e-06
8.88951e-06
8.91199e-06
8.93157e-06
8.94072e-06
8.93652e-06
8.92188e-06
8.90362e-06
8.8886e-06
8.88046e-06
8.87868e-06
6.82204e-06
7.9623e-06
8.03806e-06
8.10958e-06
8.17717e-06
8.24111e-06
8.30152e-06
8.35842e-06
8.41173e-06
8.46123e-06
8.50665e-06
8.54766e-06
8.58391e-06
8.61511e-06