/*--------------------------------*- C++ -*----------------------------------*\
  =========                 |
  \\      /  F ield         | OpenFOAM: The Open Source CFD Toolbox
   \\    /   O peration     | Website:  https://openfoam.org
    \\  /    A nd           | Version:  9
     \\/     M anipulation  |
\*---------------------------------------------------------------------------*/
FoamFile
{
    format      ascii;
    class       volVectorField;
    location    "0.2";
    object      U;
}
// * * * * * * * * * * * * * * * * * * * * * * * * * * * * * * * * * * * * * //

dimensions      [0 1 -1 0 0 0 0];

internalField   nonuniform List<vector> 
5000
(
(-0.133011 0 0.08398)
(-0.133857 0 0.167252)
(-0.134917 0 0.212473)
(-0.136098 0 0.246704)
(-0.137356 0 0.274878)
(-0.138621 0 0.298964)
(-0.139854 0 0.319437)
(-0.141032 0 0.335948)
(-0.142151 0 0.347933)
(-0.143236 0 0.35502)
(-0.144347 0 0.357332)
(-0.145583 0 0.355691)
(-0.147073 0 0.351689)
(-0.148951 0 0.347516)
(-0.151314 0 0.345493)
(-0.154177 0 0.34736)
(-0.157434 0 0.353487)
(-0.160845 0 0.362336)
(-0.164077 0 0.370497)
(-0.166785 0 0.373463)
(-0.168718 0 0.367014)
(-0.169807 0 0.348726)
(-0.170196 0 0.318986)
(-0.17021 0 0.281022)
(-0.17026 0 0.239897)
(-0.170745 0 0.200888)
(-0.171963 0 0.167921)
(-0.174076 0 0.142719)
(-0.177129 0 0.124946)
(-0.181072 0 0.113221)
(-0.186323 0 0.106025)
(-0.192982 0 0.104468)
(-0.200629 0 0.110967)
(-0.209472 0 0.127653)
(-0.219787 0 0.156102)
(-0.231634 0 0.19583)
(-0.244559 0 0.242286)
(-0.257336 0 0.284992)
(-0.268116 0 0.308384)
(-0.275181 0 0.297939)
(-0.278053 0 0.250149)
(-0.278255 0 0.179678)
(-0.278983 0 0.116203)
(-0.28358 0 0.0898034)
(-0.293677 0 0.113342)
(-0.30834 0 0.174665)
(-0.324914 0 0.244662)
(-0.340922 0 0.29508)
(-0.355723 0 0.313773)
(-0.369884 0 0.308162)
(-0.132773 0 0.0854532)
(-0.133622 0 0.170063)
(-0.134681 0 0.21577)
(-0.135856 0 0.250144)
(-0.137103 0 0.278252)
(-0.138351 0 0.302148)
(-0.139564 0 0.322367)
(-0.140722 0 0.338613)
(-0.141827 0 0.35038)
(-0.142907 0 0.357359)
(-0.144026 0 0.359727)
(-0.145282 0 0.358347)
(-0.146796 0 0.354807)
(-0.148691 0 0.351236)
(-0.151046 0 0.349834)
(-0.153859 0 0.352171)
(-0.15701 0 0.358447)
(-0.160259 0 0.367013)
(-0.163285 0 0.374453)
(-0.165771 0 0.37638)
(-0.167496 0 0.368796)
(-0.168418 0 0.34953)
(-0.168699 0 0.319169)
(-0.168662 0 0.281037)
(-0.16871 0 0.240173)
(-0.16922 0 0.201735)
(-0.170473 0 0.169496)
(-0.172612 0 0.145038)
(-0.175674 0 0.127939)
(-0.179602 0 0.116792)
(-0.184806 0 0.11016)
(-0.191379 0 0.109219)
(-0.198901 0 0.116432)
(-0.207577 0 0.133992)
(-0.217662 0 0.163414)
(-0.229185 0 0.203971)
(-0.241662 0 0.250688)
(-0.253866 0 0.292642)
(-0.264022 0 0.314132)
(-0.270553 0 0.301107)
(-0.27313 0 0.251123)
(-0.273335 0 0.180017)
(-0.274274 0 0.118031)
(-0.279066 0 0.0947002)
(-0.289084 0 0.121475)
(-0.303228 0 0.18482)
(-0.318842 0 0.255166)
(-0.333551 0 0.304897)
(-0.346769 0 0.322955)
(-0.359539 0 0.317859)
(-0.132477 0 0.086944)
(-0.133342 0 0.172897)
(-0.134416 0 0.219079)
(-0.1356 0 0.253579)
(-0.136846 0 0.281601)
(-0.138085 0 0.30529)
(-0.13928 0 0.325248)
(-0.140416 0 0.341234)
(-0.141498 0 0.352797)
(-0.142559 0 0.359686)
(-0.143666 0 0.362131)
(-0.144918 0 0.361024)
(-0.14643 0 0.357942)
(-0.148315 0 0.354947)
(-0.150637 0 0.354113)
(-0.15338 0 0.356849)
(-0.156413 0 0.363202)
(-0.159496 0 0.371428)
(-0.162321 0 0.378121)
(-0.164596 0 0.379025)
(-0.166128 0 0.370356)
(-0.166901 0 0.35018)
(-0.167087 0 0.319271)
(-0.16701 0 0.28103)
(-0.167058 0 0.240463)
(-0.167592 0 0.20261)
(-0.168871 0 0.171094)
(-0.171024 0 0.147365)
(-0.174077 0 0.130917)
(-0.177971 0 0.120326)
(-0.183107 0 0.114233)
(-0.189569 0 0.11388)
(-0.196938 0 0.121778)
(-0.205413 0 0.140175)
(-0.215227 0 0.170517)
(-0.22638 0 0.211832)
(-0.23836 0 0.258731)
(-0.249957 0 0.299882)
(-0.25948 0 0.319497)
(-0.265503 0 0.304018)
(-0.26784 0 0.252031)
(-0.268116 0 0.180467)
(-0.269323 0 0.12003)
(-0.274337 0 0.0996596)
(-0.284273 0 0.129418)
(-0.297885 0 0.194475)
(-0.312544 0 0.264893)
(-0.326031 0 0.313746)
(-0.337733 0 0.331013)
(-0.349014 0 0.325912)
(-0.132193 0 0.0884811)
(-0.133088 0 0.175798)
(-0.134194 0 0.222443)
(-0.135397 0 0.257041)
(-0.136651 0 0.284947)
(-0.137885 0 0.308403)
(-0.139062 0 0.32808)
(-0.140169 0 0.343795)
(-0.141216 0 0.355153)
(-0.14224 0 0.361959)
(-0.143312 0 0.364493)
(-0.144528 0 0.363666)
(-0.146005 0 0.361038)
(-0.147845 0 0.358594)
(-0.150103 0 0.358284)
(-0.152748 0 0.361362)
(-0.155644 0 0.367733)
(-0.158551 0 0.375575)
(-0.161176 0 0.381509)
(-0.163248 0 0.381412)
(-0.164601 0 0.371711)
(-0.16524 0 0.350695)
(-0.165347 0 0.319304)
(-0.165241 0 0.281007)
(-0.165296 0 0.240768)
(-0.165853 0 0.203509)
(-0.167151 0 0.172708)
(-0.169306 0 0.149689)
(-0.172336 0 0.133869)
(-0.176179 0 0.123811)
(-0.181226 0 0.118233)
(-0.187552 0 0.11844)
(-0.194741 0 0.126992)
(-0.202981 0 0.146184)
(-0.212486 0 0.177389)
(-0.223225 0 0.219386)
(-0.234667 0 0.26639)
(-0.245628 0 0.306701)
(-0.254518 0 0.324485)
(-0.260063 0 0.306694)
(-0.262217 0 0.252906)
(-0.262629 0 0.181055)
(-0.264153 0 0.122212)
(-0.269412 0 0.104679)
(-0.279266 0 0.137162)
(-0.292344 0 0.203635)
(-0.306061 0 0.273893)
(-0.318369 0 0.321736)
(-0.328732 0 0.338234)
(-0.338483 0 0.332985)
(-0.131998 0 0.0900995)
(-0.132931 0 0.178813)
(-0.134082 0 0.225896)
(-0.135312 0 0.260554)
(-0.136577 0 0.288303)
(-0.137805 0 0.311487)
(-0.13896 0 0.33085)
(-0.14003 0 0.34627)
(-0.141027 0 0.357409)
(-0.141992 0 0.36413)
(-0.142998 0 0.366753)
(-0.144147 0 0.366208)
(-0.14555 0 0.364026)
(-0.147305 0 0.362114)
(-0.14946 0 0.362293)
(-0.151976 0 0.365668)
(-0.15471 0 0.372014)
(-0.157427 0 0.379446)
(-0.159847 0 0.384621)
(-0.161721 0 0.383554)
(-0.162907 0 0.372877)
(-0.163426 0 0.351089)
(-0.163467 0 0.319281)
(-0.163343 0 0.280975)
(-0.163412 0 0.241088)
(-0.163992 0 0.204427)
(-0.165304 0 0.174328)
(-0.167451 0 0.151998)
(-0.170444 0 0.136785)
(-0.174221 0 0.127237)
(-0.17916 0 0.122151)
(-0.185327 0 0.122891)
(-0.192312 0 0.132063)
(-0.200288 0 0.152005)
(-0.209447 0 0.184011)
(-0.219733 0 0.226613)
(-0.230604 0 0.273652)
(-0.240911 0 0.313097)
(-0.249174 0 0.329109)
(-0.254279 0 0.309164)
(-0.256305 0 0.253779)
(-0.256908 0 0.181801)
(-0.258786 0 0.124579)
(-0.2643 0 0.109741)
(-0.274066 0 0.144691)
(-0.286608 0 0.212305)
(-0.299409 0 0.2822)
(-0.310584 0 0.328914)
(-0.319754 0 0.344575)
(-0.328204 0 0.339216)
(-0.131949 0 0.0918075)
(-0.132921 0 0.181961)
(-0.134121 0 0.229456)
(-0.135383 0 0.264128)
(-0.136661 0 0.291669)
(-0.137883 0 0.314531)
(-0.13901 0 0.333537)
(-0.140031 0 0.348626)
(-0.14096 0 0.359522)
(-0.141843 0 0.366141)
(-0.142755 0 0.368845)
(-0.143799 0 0.368576)
(-0.145088 0 0.366831)
(-0.146718 0 0.365434)
(-0.148729 0 0.366076)
(-0.151078 0 0.369717)
(-0.153622 0 0.376011)
(-0.156129 0 0.383022)
(-0.158336 0 0.387452)
(-0.160013 0 0.385459)
(-0.161039 0 0.37387)
(-0.16145 0 0.35138)
(-0.161439 0 0.319217)
(-0.161308 0 0.280945)
(-0.161396 0 0.241429)
(-0.161999 0 0.205362)
(-0.163321 0 0.175948)
(-0.165452 0 0.154283)
(-0.168397 0 0.13965)
(-0.172093 0 0.13059)
(-0.176907 0 0.125969)
(-0.182897 0 0.127213)
(-0.189653 0 0.136968)
(-0.197338 0 0.157611)
(-0.20612 0 0.190354)
(-0.21592 0 0.233487)
(-0.226193 0 0.280497)
(-0.235838 0 0.319065)
(-0.243491 0 0.333388)
(-0.248195 0 0.311461)
(-0.250145 0 0.254692)
(-0.250985 0 0.182744)
(-0.253241 0 0.127156)
(-0.259009 0 0.114857)
(-0.268675 0 0.15201)
(-0.280687 0 0.220498)
(-0.292617 0 0.289843)
(-0.302748 0 0.335332)
(-0.310856 0 0.350069)
(-0.318207 0 0.344581)
(-0.132054 0 0.0935944)
(-0.133073 0 0.18524)
(-0.134332 0 0.233135)
(-0.135631 0 0.267773)
(-0.136925 0 0.295045)
(-0.138138 0 0.317525)
(-0.139229 0 0.336119)
(-0.140189 0 0.35083)
(-0.141034 0 0.361445)
(-0.14181 0 0.367936)
(-0.142598 0 0.370704)
(-0.143503 0 0.370698)
(-0.14464 0 0.369379)
(-0.146101 0 0.368481)
(-0.147927 0 0.369567)
(-0.150071 0 0.373454)
(-0.152392 0 0.379685)
(-0.154668 0 0.38628)
(-0.156648 0 0.389996)
(-0.158125 0 0.38713)
(-0.158995 0 0.374699)
(-0.159308 0 0.351581)
(-0.159254 0 0.319125)
(-0.159124 0 0.280925)
(-0.159237 0 0.241794)
(-0.159867 0 0.206313)
(-0.161196 0 0.177562)
(-0.163303 0 0.156535)
(-0.166189 0 0.142456)
(-0.169793 0 0.133858)
(-0.174469 0 0.129678)
(-0.180263 0 0.131393)
(-0.186772 0 0.141694)
(-0.194141 0 0.162986)
(-0.202519 0 0.196399)
(-0.211807 0 0.23999)
(-0.221464 0 0.286915)
(-0.230444 0 0.324609)
(-0.23751 0 0.337338)
(-0.241854 0 0.313614)
(-0.243775 0 0.255676)
(-0.244886 0 0.183903)
(-0.247533 0 0.129947)
(-0.253543 0 0.120023)
(-0.263096 0 0.159118)
(-0.274586 0 0.228233)
(-0.285699 0 0.296871)
(-0.294891 0 0.341086)
(-0.302077 0 0.354887)
(-0.308513 0 0.349247)
(-0.132312 0 0.0955129)
(-0.133417 0 0.188699)
(-0.134751 0 0.236958)
(-0.136088 0 0.271502)
(-0.137394 0 0.298431)
(-0.13859 0 0.320456)
(-0.139634 0 0.33857)
(-0.140517 0 0.352847)
(-0.141257 0 0.363134)
(-0.141903 0 0.36946)
(-0.142539 0 0.372265)
(-0.143271 0 0.372504)
(-0.144217 0 0.371595)
(-0.145471 0 0.371183)
(-0.14707 0 0.372699)
(-0.14897 0 0.376823)
(-0.151035 0 0.382992)
(-0.153053 0 0.389193)
(-0.154791 0 0.392238)
(-0.15606 0 0.388565)
(-0.156775 0 0.375371)
(-0.156994 0 0.351701)
(-0.156905 0 0.319013)
(-0.156785 0 0.280924)
(-0.156929 0 0.242187)
(-0.157586 0 0.20728)
(-0.15892 0 0.179167)
(-0.160998 0 0.158746)
(-0.163817 0 0.145193)
(-0.167319 0 0.137032)
(-0.171843 0 0.133265)
(-0.177428 0 0.135421)
(-0.183673 0 0.146225)
(-0.190708 0 0.168114)
(-0.19866 0 0.202131)
(-0.207417 0 0.246111)
(-0.216447 0 0.292906)
(-0.224771 0 0.329742)
(-0.231275 0 0.340984)
(-0.235301 0 0.315653)
(-0.237233 0 0.256751)
(-0.238639 0 0.185287)
(-0.241672 0 0.132945)
(-0.247906 0 0.125225)
(-0.257327 0 0.166011)
(-0.268308 0 0.235532)
(-0.278659 0 0.303342)
(-0.287017 0 0.346262)
(-0.293428 0 0.359161)
(-0.299142 0 0.353383)
(-0.132781 0 0.0976671)
(-0.134011 0 0.192437)
(-0.135435 0 0.240951)
(-0.136801 0 0.275296)
(-0.138102 0 0.301795)
(-0.13926 0 0.323287)
(-0.140237 0 0.34085)
(-0.141021 0 0.354629)
(-0.141633 0 0.364536)
(-0.142124 0 0.370656)
(-0.142578 0 0.373467)
(-0.143107 0 0.373927)
(-0.143827 0 0.373411)
(-0.144834 0 0.373468)
(-0.146168 0 0.375405)
(-0.147787 0 0.379765)
(-0.149562 0 0.385885)
(-0.151296 0 0.391726)
(-0.152772 0 0.39416)
(-0.153822 0 0.389756)
(-0.154379 0 0.375886)
(-0.154506 0 0.351748)
(-0.154388 0 0.318891)
(-0.154283 0 0.280947)
(-0.154462 0 0.242613)
(-0.155148 0 0.208264)
(-0.156485 0 0.180759)
(-0.15853 0 0.160913)
(-0.161277 0 0.147854)
(-0.164669 0 0.140104)
(-0.169033 0 0.136723)
(-0.174397 0 0.139285)
(-0.180365 0 0.150551)
(-0.18705 0 0.172981)
(-0.19456 0 0.207538)
(-0.202773 0 0.251841)
(-0.211176 0 0.298469)
(-0.218859 0 0.334475)
(-0.224833 0 0.344349)
(-0.228579 0 0.317602)
(-0.230554 0 0.257938)
(-0.232266 0 0.1869)
(-0.235673 0 0.136141)
(-0.242101 0 0.130448)
(-0.25137 0 0.172687)
(-0.261851 0 0.242417)
(-0.271497 0 0.309308)
(-0.279123 0 0.35094)
(-0.284899 0 0.36299)
(-0.290076 0 0.357124)
(-0.133525 0 0.100108)
(-0.134889 0 0.196506)
(-0.136404 0 0.245106)
(-0.137784 0 0.279101)
(-0.139055 0 0.30507)
(-0.140151 0 0.32595)
(-0.141033 0 0.342896)
(-0.141695 0 0.356119)
(-0.142153 0 0.365594)
(-0.142463 0 0.371466)
(-0.142709 0 0.37425)
(-0.143004 0 0.374904)
(-0.143467 0 0.37476)
(-0.144194 0 0.375274)
(-0.145227 0 0.377623)
(-0.14653 0 0.382224)
(-0.147982 0 0.388319)
(-0.149403 0 0.393846)
(-0.150597 0 0.395737)
(-0.151415 0 0.390693)
(-0.151806 0 0.376242)
(-0.151841 0 0.351722)
(-0.151696 0 0.318762)
(-0.151611 0 0.281)
(-0.151829 0 0.243073)
(-0.152546 0 0.209265)
(-0.153887 0 0.182336)
(-0.155895 0 0.16303)
(-0.158565 0 0.150435)
(-0.161842 0 0.143068)
(-0.166039 0 0.140045)
(-0.171174 0 0.14298)
(-0.176856 0 0.154664)
(-0.183181 0 0.177581)
(-0.19024 0 0.212612)
(-0.197904 0 0.25718)
(-0.205685 0 0.303614)
(-0.212749 0 0.338828)
(-0.218229 0 0.347456)
(-0.221732 0 0.319483)
(-0.223774 0 0.259246)
(-0.225793 0 0.188736)
(-0.229548 0 0.139517)
(-0.236134 0 0.135676)
(-0.245226 0 0.179142)
(-0.255217 0 0.248911)
(-0.264212 0 0.314823)
(-0.271202 0 0.355201)
(-0.27647 0 0.366477)
(-0.28127 0 0.360596)
(-0.134537 0 0.102818)
(-0.136027 0 0.200889)
(-0.137623 0 0.249391)
(-0.139004 0 0.282862)
(-0.140225 0 0.308186)
(-0.141234 0 0.32838)
(-0.142 0 0.344646)
(-0.142514 0 0.357257)
(-0.142796 0 0.366253)
(-0.1429 0 0.371836)
(-0.142914 0 0.374559)
(-0.14295 0 0.375382)
(-0.143127 0 0.375588)
(-0.143544 0 0.376542)
(-0.144244 0 0.379298)
(-0.145198 0 0.384148)
(-0.146297 0 0.390248)
(-0.147378 0 0.395516)
(-0.148267 0 0.396946)
(-0.148838 0 0.391359)
(-0.149055 0 0.376432)
(-0.148994 0 0.351624)
(-0.148823 0 0.318631)
(-0.148761 0 0.281087)
(-0.14902 0 0.243572)
(-0.149772 0 0.210283)
(-0.151116 0 0.183898)
(-0.153088 0 0.165096)
(-0.155678 0 0.152933)
(-0.158837 0 0.145922)
(-0.162864 0 0.143228)
(-0.167766 0 0.146501)
(-0.173156 0 0.158559)
(-0.179116 0 0.181907)
(-0.185719 0 0.217351)
(-0.192836 0 0.26213)
(-0.20001 0 0.30835)
(-0.206482 0 0.342819)
(-0.211504 0 0.350329)
(-0.214798 0 0.321315)
(-0.216924 0 0.260682)
(-0.219239 0 0.190785)
(-0.22331 0 0.14305)
(-0.230011 0 0.140886)
(-0.238898 0 0.185372)
(-0.248405 0 0.255033)
(-0.256796 0 0.319934)
(-0.263236 0 0.359117)
(-0.268107 0 0.369713)
(-0.272661 0 0.363908)
(-0.135788 0 0.105772)
(-0.137389 0 0.20555)
(-0.139052 0 0.253772)
(-0.140421 0 0.286538)
(-0.141576 0 0.311094)
(-0.142479 0 0.330521)
(-0.143106 0 0.346046)
(-0.143451 0 0.357992)
(-0.143535 0 0.366463)
(-0.143412 0 0.371719)
(-0.143171 0 0.374348)
(-0.142925 0 0.37531)
(-0.142792 0 0.375843)
(-0.142871 0 0.377221)
(-0.14321 0 0.380378)
(-0.143786 0 0.385489)
(-0.144503 0 0.391629)
(-0.145218 0 0.396702)
(-0.145782 0 0.397759)
(-0.146089 0 0.391739)
(-0.146122 0 0.376447)
(-0.14596 0 0.351451)
(-0.145762 0 0.318497)
(-0.145724 0 0.28121)
(-0.146029 0 0.244112)
(-0.146816 0 0.211321)
(-0.148166 0 0.185445)
(-0.150102 0 0.16711)
(-0.152613 0 0.155345)
(-0.155654 0 0.148663)
(-0.159511 0 0.146271)
(-0.164177 0 0.149846)
(-0.169274 0 0.162234)
(-0.174868 0 0.185959)
(-0.181017 0 0.221757)
(-0.187597 0 0.266699)
(-0.194183 0 0.312695)
(-0.200096 0 0.346472)
(-0.204697 0 0.352992)
(-0.207812 0 0.323113)
(-0.210031 0 0.262244)
(-0.212624 0 0.193029)
(-0.21697 0 0.146713)
(-0.223741 0 0.146054)
(-0.232393 0 0.191366)
(-0.241417 0 0.2608)
(-0.249244 0 0.32468)
(-0.255202 0 0.362745)
(-0.259765 0 0.372773)
(-0.264179 0 0.36715)
(-0.137285 0 0.108939)
(-0.138968 0 0.21044)
(-0.140673 0 0.258206)
(-0.142013 0 0.290087)
(-0.143085 0 0.313749)
(-0.143863 0 0.332324)
(-0.14433 0 0.347046)
(-0.144485 0 0.358274)
(-0.144349 0 0.366177)
(-0.143977 0 0.371068)
(-0.143459 0 0.373572)
(-0.142908 0 0.374646)
(-0.142442 0 0.375482)
(-0.142159 0 0.377265)
(-0.142111 0 0.380817)
(-0.142281 0 0.386202)
(-0.142591 0 0.392422)
(-0.142917 0 0.397369)
(-0.143134 0 0.398153)
(-0.143162 0 0.391814)
(-0.143 0 0.376277)
(-0.142732 0 0.351198)
(-0.142506 0 0.318361)
(-0.142492 0 0.281372)
(-0.142845 0 0.244695)
(-0.143672 0 0.212382)
(-0.14503 0 0.186979)
(-0.146933 0 0.169073)
(-0.149367 0 0.157674)
(-0.152293 0 0.151293)
(-0.155981 0 0.149173)
(-0.160416 0 0.153016)
(-0.165223 0 0.165689)
(-0.170452 0 0.189738)
(-0.176155 0 0.225835)
(-0.182212 0 0.270898)
(-0.188235 0 0.316666)
(-0.193623 0 0.34981)
(-0.19784 0 0.355466)
(-0.200803 0 0.324888)
(-0.203119 0 0.263927)
(-0.205965 0 0.195446)
(-0.210542 0 0.150476)
(-0.217334 0 0.151153)
(-0.225718 0 0.197115)
(-0.234255 0 0.266224)
(-0.241545 0 0.329094)
(-0.247075 0 0.366133)
(-0.251396 0 0.375711)
(-0.25574 0 0.370384)
(-0.139069 0 0.112241)
(-0.140776 0 0.215456)
(-0.142483 0 0.262615)
(-0.143771 0 0.293452)
(-0.14474 0 0.316099)
(-0.145373 0 0.333737)
(-0.145659 0 0.34759)
(-0.1456 0 0.358052)
(-0.14522 0 0.365344)
(-0.144577 0 0.369837)
(-0.143759 0 0.372185)
(-0.14288 0 0.373344)
(-0.142057 0 0.37446)
(-0.141389 0 0.376631)
(-0.140928 0 0.380573)
(-0.140669 0 0.386247)
(-0.140547 0 0.39259)
(-0.140462 0 0.397488)
(-0.140315 0 0.398101)
(-0.14005 0 0.391568)
(-0.139684 0 0.375912)
(-0.139303 0 0.350861)
(-0.139046 0 0.318222)
(-0.139058 0 0.281573)
(-0.13946 0 0.245325)
(-0.14033 0 0.213469)
(-0.141702 0 0.188503)
(-0.143577 0 0.170989)
(-0.14594 0 0.159923)
(-0.148755 0 0.153814)
(-0.152281 0 0.151937)
(-0.156489 0 0.156012)
(-0.161011 0 0.168928)
(-0.165885 0 0.193249)
(-0.171153 0 0.229593)
(-0.176705 0 0.274742)
(-0.182194 0 0.320285)
(-0.187093 0 0.352858)
(-0.190963 0 0.357773)
(-0.193796 0 0.326649)
(-0.196206 0 0.265721)
(-0.199276 0 0.198012)
(-0.204034 0 0.154306)
(-0.210799 0 0.156156)
(-0.21888 0 0.202606)
(-0.226922 0 0.271309)
(-0.233693 0 0.333199)
(-0.238829 0 0.369314)
(-0.242948 0 0.378563)
(-0.247263 0 0.373646)
(-0.141186 0 0.115543)
(-0.142841 0 0.220426)
(-0.144496 0 0.266889)
(-0.145702 0 0.296565)
(-0.146545 0 0.318089)
(-0.14701 0 0.334704)
(-0.14709 0 0.347624)
(-0.146791 0 0.357267)
(-0.146141 0 0.36391)
(-0.145199 0 0.367973)
(-0.144055 0 0.37014)
(-0.142823 0 0.37136)
(-0.141618 0 0.372734)
(-0.140539 0 0.375278)
(-0.139643 0 0.379607)
(-0.138932 0 0.385589)
(-0.138357 0 0.392103)
(-0.137842 0 0.397031)
(-0.137315 0 0.397584)
(-0.136745 0 0.390985)
(-0.136165 0 0.375341)
(-0.135666 0 0.350435)
(-0.135375 0 0.318079)
(-0.135412 0 0.281816)
(-0.135867 0 0.246005)
(-0.136785 0 0.214586)
(-0.138176 0 0.190024)
(-0.14003 0 0.172864)
(-0.142329 0 0.162097)
(-0.145041 0 0.156233)
(-0.148413 0 0.154569)
(-0.152404 0 0.158841)
(-0.15665 0 0.171956)
(-0.161179 0 0.196501)
(-0.166028 0 0.233045)
(-0.171099 0 0.278249)
(-0.176085 0 0.323575)
(-0.180532 0 0.355639)
(-0.184087 0 0.35993)
(-0.186808 0 0.3284)
(-0.189306 0 0.267616)
(-0.192568 0 0.2007)
(-0.197459 0 0.158171)
(-0.204147 0 0.161034)
(-0.211889 0 0.207822)
(-0.21942 0 0.276056)
(-0.225679 0 0.337007)
(-0.230439 0 0.372307)
(-0.234371 0 0.381347)
(-0.238664 0 0.37695)
(-0.143686 0 0.118706)
(-0.145219 0 0.22515)
(-0.146764 0 0.270882)
(-0.147844 0 0.299336)
(-0.148527 0 0.31965)
(-0.148793 0 0.335158)
(-0.148636 0 0.347078)
(-0.148065 0 0.355855)
(-0.147111 0 0.361812)
(-0.145838 0 0.365418)
(-0.144338 0 0.367381)
(-0.142724 0 0.368643)
(-0.14111 0 0.370256)
(-0.139595 0 0.373162)
(-0.138238 0 0.377879)
(-0.137053 0 0.384192)
(-0.136007 0 0.390931)
(-0.135047 0 0.395975)
(-0.134126 0 0.396584)
(-0.13324 0 0.390053)
(-0.132439 0 0.374558)
(-0.131817 0 0.349915)
(-0.13149 0 0.317929)
(-0.131552 0 0.282102)
(-0.132062 0 0.246739)
(-0.133032 0 0.21574)
(-0.13445 0 0.191548)
(-0.136291 0 0.174705)
(-0.138536 0 0.164204)
(-0.141156 0 0.158555)
(-0.144384 0 0.157075)
(-0.148168 0 0.161509)
(-0.152151 0 0.174782)
(-0.156349 0 0.199503)
(-0.160797 0 0.236202)
(-0.165411 0 0.281437)
(-0.169927 0 0.326557)
(-0.173957 0 0.358176)
(-0.177228 0 0.361953)
(-0.179851 0 0.330145)
(-0.182427 0 0.269597)
(-0.185849 0 0.203482)
(-0.190826 0 0.162038)
(-0.197386 0 0.16576)
(-0.204754 0 0.212747)
(-0.211756 0 0.280459)
(-0.217497 0 0.340521)
(-0.221881 0 0.375114)
(-0.22562 0 0.384061)
(-0.229866 0 0.380283)
(-0.146634 0 0.121634)
(-0.147992 0 0.22945)
(-0.149366 0 0.274434)
(-0.150264 0 0.30164)
(-0.150738 0 0.320679)
(-0.15076 0 0.335006)
(-0.150321 0 0.345864)
(-0.149435 0 0.353728)
(-0.148138 0 0.35897)
(-0.146496 0 0.362098)
(-0.144604 0 0.363843)
(-0.142573 0 0.365133)
(-0.14052 0 0.366977)
(-0.138541 0 0.370239)
(-0.136701 0 0.375353)
(-0.135021 0 0.382027)
(-0.133487 0 0.389049)
(-0.132068 0 0.394301)
(-0.130744 0 0.395086)
(-0.129535 0 0.388761)
(-0.128506 0 0.373553)
(-0.127757 0 0.349296)
(-0.127389 0 0.317771)
(-0.127476 0 0.282432)
(-0.128042 0 0.247531)
(-0.12907 0 0.216936)
(-0.130523 0 0.193083)
(-0.132362 0 0.176521)
(-0.134564 0 0.166253)
(-0.137103 0 0.16079)
(-0.1402 0 0.159464)
(-0.143792 0 0.164024)
(-0.147525 0 0.177413)
(-0.151408 0 0.202266)
(-0.155475 0 0.239082)
(-0.159659 0 0.284325)
(-0.163736 0 0.329256)
(-0.167383 0 0.36049)
(-0.170396 0 0.363855)
(-0.172933 0 0.331884)
(-0.175576 0 0.271649)
(-0.179124 0 0.206332)
(-0.184141 0 0.165876)
(-0.190529 0 0.170304)
(-0.197486 0 0.217362)
(-0.203937 0 0.28451)
(-0.209146 0 0.343735)
(-0.213137 0 0.377728)
(-0.216654 0 0.386688)
(-0.220804 0 0.38361)
(-0.150044 0 0.124235)
(-0.151223 0 0.233159)
(-0.152376 0 0.277354)
(-0.153026 0 0.303296)
(-0.153224 0 0.321019)
(-0.15294 0 0.33411)
(-0.152164 0 0.343858)
(-0.150911 0 0.350778)
(-0.149222 0 0.355286)
(-0.147169 0 0.357928)
(-0.144845 0 0.35945)
(-0.142363 0 0.360766)
(-0.139838 0 0.362839)
(-0.137368 0 0.366463)
(-0.135022 0 0.371991)
(-0.13283 0 0.379066)
(-0.130795 0 0.386438)
(-0.128906 0 0.391995)
(-0.127172 0 0.39308)
(-0.125633 0 0.3871)
(-0.124372 0 0.37232)
(-0.12349 0 0.348573)
(-0.123079 0 0.317603)
(-0.123188 0 0.282805)
(-0.123812 0 0.248384)
(-0.124902 0 0.218181)
(-0.126398 0 0.194639)
(-0.128246 0 0.178323)
(-0.130419 0 0.168254)
(-0.132889 0 0.162949)
(-0.13587 0 0.161746)
(-0.139285 0 0.166397)
(-0.142783 0 0.179862)
(-0.146369 0 0.204803)
(-0.150076 0 0.241698)
(-0.153856 0 0.286933)
(-0.157526 0 0.331691)
(-0.160821 0 0.362601)
(-0.1636 0 0.365649)
(-0.166057 0 0.333616)
(-0.168753 0 0.273758)
(-0.172397 0 0.209225)
(-0.177412 0 0.169655)
(-0.183586 0 0.174641)
(-0.190096 0 0.221646)
(-0.195969 0 0.288192)
(-0.200625 0 0.346635)
(-0.204195 0 0.380129)
(-0.207443 0 0.389193)
(-0.211423 0 0.386877)
(-0.153914 0 0.126654)
(-0.154839 0 0.236279)
(-0.155738 0 0.279501)
(-0.156101 0 0.304118)
(-0.155969 0 0.320488)
(-0.15532 0 0.332308)
(-0.15415 0 0.34092)
(-0.152478 0 0.346884)
(-0.150352 0 0.350657)
(-0.147843 0 0.352818)
(-0.145049 0 0.354126)
(-0.142082 0 0.355478)
(-0.139057 0 0.357791)
(-0.136071 0 0.361792)
(-0.133199 0 0.367762)
(-0.13048 0 0.375285)
(-0.127933 0 0.383081)
(-0.125569 0 0.389046)
(-0.12342 0 0.390558)
(-0.121548 0 0.385065)
(-0.120049 0 0.370854)
(-0.119029 0 0.347741)
(-0.118569 0 0.317419)
(-0.118698 0 0.283221)
(-0.119379 0 0.2493)
(-0.120536 0 0.219482)
(-0.122083 0 0.196224)
(-0.123952 0 0.180122)
(-0.126107 0 0.170219)
(-0.128524 0 0.165042)
(-0.131403 0 0.163932)
(-0.134656 0 0.168638)
(-0.137938 0 0.18214)
(-0.141245 0 0.207128)
(-0.144614 0 0.244068)
(-0.148016 0 0.289281)
(-0.151307 0 0.333882)
(-0.154277 0 0.364526)
(-0.156843 0 0.367344)
(-0.159225 0 0.335337)
(-0.161961 0 0.275909)
(-0.165669 0 0.212137)
(-0.170646 0 0.173349)
(-0.176566 0 0.178745)
(-0.182597 0 0.22558)
(-0.187866 0 0.291489)
(-0.191939 0 0.3492)
(-0.195051 0 0.382286)
(-0.197969 0 0.391531)
(-0.201685 0 0.390012)
(-0.157996 0 0.12827)
(-0.15876 0 0.238544)
(-0.159424 0 0.280809)
(-0.159447 0 0.304008)
(-0.158922 0 0.318957)
(-0.157853 0 0.329468)
(-0.156238 0 0.336929)
(-0.154102 0 0.341937)
(-0.151496 0 0.344987)
(-0.148495 0 0.346687)
(-0.145198 0 0.347801)
(-0.141718 0 0.349211)
(-0.138167 0 0.351785)
(-0.134647 0 0.35619)
(-0.131234 0 0.362641)
(-0.127978 0 0.370668)
(-0.124914 0 0.378969)
(-0.122072 0 0.385449)
(-0.119506 0 0.387516)
(-0.117298 0 0.382651)
(-0.115558 0 0.369148)
(-0.114394 0 0.346792)
(-0.113879 0 0.317215)
(-0.114021 0 0.283677)
(-0.114758 0 0.250281)
(-0.115984 0 0.220844)
(-0.117589 0 0.197847)
(-0.119489 0 0.181928)
(-0.121641 0 0.172161)
(-0.124017 0 0.167082)
(-0.12681 0 0.166032)
(-0.129919 0 0.170758)
(-0.132999 0 0.184258)
(-0.136047 0 0.209254)
(-0.139099 0 0.246207)
(-0.142149 0 0.291384)
(-0.145087 0 0.335849)
(-0.147758 0 0.366278)
(-0.150126 0 0.368946)
(-0.152435 0 0.337046)
(-0.155198 0 0.278088)
(-0.158945 0 0.215047)
(-0.163847 0 0.176933)
(-0.169482 0 0.182595)
(-0.175004 0 0.229143)
(-0.179641 0 0.294381)
(-0.183101 0 0.351407)
(-0.185708 0 0.384163)
(-0.188228 0 0.393644)
(-0.191572 0 0.39293)
(-0.162331 0 0.130356)
(-0.163244 0 0.240311)
(-0.163606 0 0.281067)
(-0.163128 0 0.302736)
(-0.162102 0 0.31623)
(-0.160531 0 0.325429)
(-0.158403 0 0.331752)
(-0.15575 0 0.33583)
(-0.152621 0 0.33819)
(-0.149095 0 0.339463)
(-0.145269 0 0.34042)
(-0.141254 0 0.341919)
(-0.137162 0 0.344789)
(-0.133096 0 0.349634)
(-0.129135 0 0.356612)
(-0.12534 0 0.365206)
(-0.121757 0 0.374098)
(-0.118438 0 0.381202)
(-0.115455 0 0.383952)
(-0.11291 0 0.379854)
(-0.110924 0 0.367195)
(-0.109608 0 0.345719)
(-0.10903 0 0.316982)
(-0.109177 0 0.284167)
(-0.109966 0 0.251326)
(-0.111262 0 0.222271)
(-0.11293 0 0.199517)
(-0.114872 0 0.183752)
(-0.117032 0 0.174089)
(-0.119382 0 0.169078)
(-0.122104 0 0.168058)
(-0.125084 0 0.172769)
(-0.127981 0 0.186228)
(-0.130787 0 0.211194)
(-0.133545 0 0.24813)
(-0.136264 0 0.293261)
(-0.138875 0 0.337607)
(-0.141268 0 0.367872)
(-0.143451 0 0.370461)
(-0.145689 0 0.338737)
(-0.148465 0 0.280282)
(-0.152225 0 0.217935)
(-0.157024 0 0.180387)
(-0.162344 0 0.18617)
(-0.167333 0 0.232317)
(-0.171312 0 0.296849)
(-0.174127 0 0.353228)
(-0.176182 0 0.38572)
(-0.178229 0 0.395471)
(-0.181089 0 0.395539)
(-0.166738 0 0.13351)
(-0.167822 0 0.24167)
(-0.167811 0 0.279986)
(-0.166816 0 0.299975)
(-0.16528 0 0.312052)
(-0.163184 0 0.320003)
(-0.16052 0 0.325255)
(-0.157328 0 0.328465)
(-0.153661 0 0.330195)
(-0.149595 0 0.331097)
(-0.145229 0 0.331945)
(-0.140672 0 0.333579)
(-0.136035 0 0.336784)
(-0.131421 0 0.342115)
(-0.126913 0 0.349672)
(-0.122581 0 0.358903)
(-0.118486 0 0.368473)
(-0.114694 0 0.376308)
(-0.111297 0 0.379867)
(-0.108414 0 0.376669)
(-0.106176 0 0.364987)
(-0.104701 0 0.344511)
(-0.104047 0 0.31671)
(-0.104191 0 0.284684)
(-0.105024 0 0.252433)
(-0.106389 0 0.223765)
(-0.108125 0 0.201239)
(-0.110116 0 0.185603)
(-0.112296 0 0.176015)
(-0.114631 0 0.171043)
(-0.117298 0 0.170021)
(-0.120165 0 0.174681)
(-0.122895 0 0.188063)
(-0.125478 0 0.212963)
(-0.127961 0 0.249852)
(-0.130373 0 0.294926)
(-0.132677 0 0.339169)
(-0.13481 0 0.369316)
(-0.13682 0 0.371893)
(-0.138985 0 0.340406)
(-0.141761 0 0.282479)
(-0.145514 0 0.220785)
(-0.150185 0 0.183692)
(-0.155166 0 0.189456)
(-0.159603 0 0.235089)
(-0.162904 0 0.298874)
(-0.165043 0 0.354637)
(-0.166498 0 0.386914)
(-0.167998 0 0.396949)
(-0.170263 0 0.397744)
(-0.171163 0 0.136282)
(-0.171899 0 0.242247)
(-0.171474 0 0.277709)
(-0.170098 0 0.295842)
(-0.168137 0 0.306495)
(-0.165569 0 0.31323)
(-0.162413 0 0.317454)
(-0.158714 0 0.319849)
(-0.154529 0 0.321003)
(-0.14994 0 0.321587)
(-0.145045 0 0.322377)
(-0.139954 0 0.324191)
(-0.134781 0 0.327778)
(-0.129627 0 0.33364)
(-0.124583 0 0.341833)
(-0.119725 0 0.351769)
(-0.115126 0 0.362104)
(-0.110869 0 0.370775)
(-0.107062 0 0.375262)
(-0.103839 0 0.373093)
(-0.101345 0 0.362516)
(-0.0996991 0 0.343154)
(-0.0989588 0 0.316386)
(-0.0990872 0 0.285217)
(-0.0999571 0 0.253595)
(-0.101386 0 0.225326)
(-0.103193 0 0.20302)
(-0.10524 0 0.187489)
(-0.107449 0 0.177949)
(-0.109782 0 0.172987)
(-0.112405 0 0.171931)
(-0.115176 0 0.176505)
(-0.117755 0 0.189774)
(-0.120132 0 0.214571)
(-0.122358 0 0.251386)
(-0.124483 0 0.296393)
(-0.126501 0 0.34055)
(-0.12839 0 0.370621)
(-0.130234 0 0.373244)
(-0.132326 0 0.34205)
(-0.135091 0 0.284668)
(-0.138817 0 0.223582)
(-0.143338 0 0.186835)
(-0.147964 0 0.192438)
(-0.151834 0 0.237445)
(-0.154443 0 0.300442)
(-0.155881 0 0.35561)
(-0.156694 0 0.387707)
(-0.15758 0 0.398018)
(-0.159148 0 0.399455)
(-0.17568 0 0.137642)
(-0.175712 0 0.24166)
(-0.17486 0 0.274467)
(-0.173145 0 0.290663)
(-0.170768 0 0.299815)
(-0.167746 0 0.305292)
(-0.164114 0 0.308478)
(-0.159922 0 0.310068)
(-0.155232 0 0.310673)
(-0.15013 0 0.310976)
(-0.144717 0 0.311748)
(-0.139106 0 0.313784)
(-0.133408 0 0.317794)
(-0.127729 0 0.324234)
(-0.122162 0 0.333116)
(-0.116791 0 0.343824)
(-0.111701 0 0.355007)
(-0.106989 0 0.364613)
(-0.102777 0 0.37014)
(-0.0992146 0 0.369121)
(-0.0964566 0 0.359769)
(-0.0946298 0 0.341636)
(-0.0937893 0 0.315995)
(-0.0938895 0 0.285756)
(-0.0947862 0 0.254806)
(-0.0962757 0 0.226954)
(-0.0981528 0 0.204861)
(-0.100261 0 0.189418)
(-0.102508 0 0.179898)
(-0.104848 0 0.174918)
(-0.107441 0 0.173798)
(-0.110128 0 0.178252)
(-0.112572 0 0.191371)
(-0.11476 0 0.216031)
(-0.116748 0 0.252746)
(-0.118604 0 0.297676)
(-0.120354 0 0.341759)
(-0.122013 0 0.371793)
(-0.123699 0 0.374517)
(-0.125714 0 0.343663)
(-0.128457 0 0.286839)
(-0.132141 0 0.226315)
(-0.136496 0 0.189803)
(-0.140755 0 0.195108)
(-0.144052 0 0.239379)
(-0.145961 0 0.30154)
(-0.14668 0 0.356125)
(-0.146816 0 0.388065)
(-0.147033 0 0.398623)
(-0.147816 0 0.400589)
(-0.180513 0 0.137473)
(-0.179791 0 0.239485)
(-0.178444 0 0.270018)
(-0.176296 0 0.284341)
(-0.173436 0 0.291966)
(-0.169915 0 0.296166)
(-0.165773 0 0.298316)
(-0.16106 0 0.299124)
(-0.155846 0 0.299215)
(-0.150221 0 0.299278)
(-0.144287 0 0.300076)
(-0.138157 0 0.302378)
(-0.131942 0 0.306855)
(-0.125748 0 0.31392)
(-0.119671 0 0.323545)
(-0.113802 0 0.33509)
(-0.108233 0 0.347198)
(-0.103075 0 0.357832)
(-0.0984634 0 0.364505)
(-0.0945603 0 0.364748)
(-0.0915324 0 0.356737)
(-0.0895135 0 0.33994)
(-0.0885597 0 0.315523)
(-0.0886187 0 0.286287)
(-0.0895325 0 0.256058)
(-0.0910769 0 0.228645)
(-0.0930243 0 0.206766)
(-0.0951974 0 0.191394)
(-0.0974893 0 0.181871)
(-0.0998465 0 0.176846)
(-0.10242 0 0.17563)
(-0.105038 0 0.179931)
(-0.10736 0 0.192865)
(-0.109374 0 0.217355)
(-0.111142 0 0.253943)
(-0.112747 0 0.298785)
(-0.114244 0 0.342807)
(-0.115686 0 0.372839)
(-0.117219 0 0.375712)
(-0.119156 0 0.345241)
(-0.121867 0 0.288985)
(-0.125494 0 0.228973)
(-0.129672 0 0.19259)
(-0.133558 0 0.197464)
(-0.136284 0 0.240888)
(-0.137493 0 0.302164)
(-0.137485 0 0.356169)
(-0.136923 0 0.387961)
(-0.136428 0 0.398725)
(-0.136365 0 0.401081)
(-0.185742 0 0.135938)
(-0.184319 0 0.235465)
(-0.182381 0 0.263956)
(-0.179678 0 0.276528)
(-0.176249 0 0.282681)
(-0.172162 0 0.285658)
(-0.167456 0 0.28683)
(-0.162184 0 0.286922)
(-0.156419 0 0.286568)
(-0.150253 0 0.28646)
(-0.143788 0 0.287348)
(-0.137136 0 0.289976)
(-0.130406 0 0.294975)
(-0.123705 0 0.302719)
(-0.117129 0 0.313143)
(-0.110772 0 0.325587)
(-0.104736 0 0.338695)
(-0.0991406 0 0.350443)
(-0.0941335 0 0.35836)
(-0.0898891 0 0.35997)
(-0.0865855 0 0.353409)
(-0.0843644 0 0.338054)
(-0.0832851 0 0.314954)
(-0.0832913 0 0.286798)
(-0.084213 0 0.257343)
(-0.0858075 0 0.230396)
(-0.0878249 0 0.208736)
(-0.0900669 0 0.193421)
(-0.0924102 0 0.183873)
(-0.0947925 0 0.178777)
(-0.0973573 0 0.177436)
(-0.0999173 0 0.18155)
(-0.102131 0 0.194266)
(-0.103987 0 0.218552)