/*--------------------------------*- C++ -*----------------------------------*\
  =========                 |
  \\      /  F ield         | OpenFOAM: The Open Source CFD Toolbox
   \\    /   O peration     | Website:  https://openfoam.org
    \\  /    A nd           | Version:  9
     \\/     M anipulation  |
\*---------------------------------------------------------------------------*/
FoamFile
{
    format      ascii;
    class       surfaceVectorField;
    location    "0.2";
    object      Uf;
}
// * * * * * * * * * * * * * * * * * * * * * * * * * * * * * * * * * * * * * //

dimensions      [0 1 -1 0 0 0 0];

internalField   nonuniform List<vector> 
9850
(
(-0.133464 0 0.124621)
(-0.132892 0 0.0847164)
(-0.134371 0 0.189322)
(-0.13374 0 0.168657)
(-0.135488 0 0.229179)
(-0.134799 0 0.214121)
(-0.136712 0 0.260454)
(-0.135977 0 0.248424)
(-0.137973 0 0.286633)
(-0.137229 0 0.276565)
(-0.139223 0 0.308956)
(-0.138486 0 0.300556)
(-0.140429 0 0.327495)
(-0.139709 0 0.320902)
(-0.141578 0 0.341797)
(-0.140877 0 0.337281)
(-0.14268 0 0.351392)
(-0.141989 0 0.349156)
(-0.143778 0 0.356148)
(-0.143071 0 0.356189)
(-0.14495 0 0.356531)
(-0.144186 0 0.358529)
(-0.146311 0 0.353738)
(-0.145432 0 0.357019)
(-0.14799 0 0.349652)
(-0.146935 0 0.353248)
(-0.150105 0 0.346529)
(-0.148821 0 0.349376)
(-0.152712 0 0.346404)
(-0.15118 0 0.347664)
(-0.155768 0 0.35035)
(-0.154018 0 0.349766)
(-0.159099 0 0.357806)
(-0.157222 0 0.355967)
(-0.162422 0 0.366319)
(-0.160552 0 0.364675)
(-0.165398 0 0.371945)
(-0.163681 0 0.372475)
(-0.167727 0 0.370315)
(-0.166278 0 0.374922)
(-0.169248 0 0.358088)
(-0.168107 0 0.367905)
(-0.169996 0 0.334211)
(-0.169113 0 0.349128)
(-0.170202 0 0.300457)
(-0.169448 0 0.319078)
(-0.170235 0 0.260951)
(-0.169436 0 0.28103)
(-0.170498 0 0.220859)
(-0.169485 0 0.240036)
(-0.171341 0 0.184798)
(-0.169983 0 0.201312)
(-0.172996 0 0.155621)
(-0.171218 0 0.168708)
(-0.175566 0 0.134045)
(-0.173344 0 0.143879)
(-0.179056 0 0.119224)
(-0.176401 0 0.126443)
(-0.183435 0 0.109985)
(-0.180337 0 0.115007)
(-0.189655 0 0.105247)
(-0.185565 0 0.108093)
(-0.196812 0 0.107717)
(-0.192181 0 0.106844)
(-0.205059 0 0.11931)
(-0.199765 0 0.1137)
(-0.214642 0 0.141878)
(-0.208525 0 0.130823)
(-0.225724 0 0.175966)
(-0.218725 0 0.159759)
(-0.238108 0 0.219058)
(-0.230409 0 0.199901)
(-0.250952 0 0.263639)
(-0.24311 0 0.246487)
(-0.262717 0 0.296688)
(-0.255601 0 0.288818)
(-0.271631 0 0.303161)
(-0.266069 0 0.31126)
(-0.276605 0 0.274044)
(-0.272867 0 0.299525)
(-0.278164 0 0.214913)
(-0.275591 0 0.250638)
(-0.278656 0 0.14794)
(-0.275795 0 0.179849)
(-0.281335 0 0.103003)
(-0.276629 0 0.117119)
(-0.288682 0 0.101572)
(-0.281323 0 0.0922527)
(-0.301046 0 0.144003)
(-0.291381 0 0.117409)
(-0.316643 0 0.209663)
(-0.305784 0 0.179742)
(-0.332942 0 0.269871)
(-0.321878 0 0.249912)
(-0.348327 0 0.304427)
(-0.337236 0 0.299974)
(-0.362793 0 0.310967)
(-0.351246 0 0.318293)
(-0.364712 0 0.312925)
(-0.133228 0 0.126747)
(-0.132625 0 0.0861984)
(-0.134136 0 0.19237)
(-0.133482 0 0.171479)
(-0.135249 0 0.232546)
(-0.134549 0 0.217424)
(-0.136465 0 0.263862)
(-0.135728 0 0.251861)
(-0.137712 0 0.289914)
(-0.136974 0 0.279926)
(-0.138943 0 0.312015)
(-0.138218 0 0.303719)
(-0.14013 0 0.330296)
(-0.139422 0 0.323807)
(-0.141261 0 0.344356)
(-0.140569 0 0.339924)
(-0.142354 0 0.353786)
(-0.141662 0 0.351589)
(-0.143453 0 0.358515)
(-0.142733 0 0.358522)
(-0.144639 0 0.359053)
(-0.143846 0 0.360929)
(-0.146021 0 0.356619)
(-0.1451 0 0.359685)
(-0.147722 0 0.353064)
(-0.146613 0 0.356375)
(-0.149841 0 0.350552)
(-0.148503 0 0.353092)
(-0.15242 0 0.350975)
(-0.150842 0 0.351974)
(-0.155398 0 0.355234)
(-0.15362 0 0.35451)
(-0.158596 0 0.362628)
(-0.156712 0 0.360825)
(-0.161736 0 0.370644)
(-0.159877 0 0.369221)
(-0.164497 0 0.375393)
(-0.162803 0 0.376288)
(-0.166611 0 0.372679)
(-0.165183 0 0.377704)
(-0.167944 0 0.359393)
(-0.166812 0 0.369578)
(-0.168554 0 0.334712)
(-0.16766 0 0.349857)
(-0.16868 0 0.300559)
(-0.167893 0 0.319222)
(-0.168686 0 0.261094)
(-0.167836 0 0.281036)
(-0.16896 0 0.221414)
(-0.167884 0 0.24032)
(-0.169833 0 0.186001)
(-0.168406 0 0.202174)
(-0.171519 0 0.157559)
(-0.169672 0 0.170296)
(-0.174106 0 0.136693)
(-0.171818 0 0.146202)
(-0.177593 0 0.122498)
(-0.174875 0 0.129427)
(-0.181944 0 0.11381)
(-0.178787 0 0.118557)
(-0.188095 0 0.109689)
(-0.183957 0 0.112193)
(-0.195147 0 0.112825)
(-0.190474 0 0.111545)
(-0.203248 0 0.125212)
(-0.19792 0 0.119101)
(-0.212632 0 0.148703)
(-0.206495 0 0.137079)
(-0.223438 0 0.183692)
(-0.216444 0 0.166962)
(-0.235435 0 0.227329)
(-0.227783 0 0.207899)
(-0.247767 0 0.271665)
(-0.240011 0 0.254709)
(-0.258934 0 0.303387)
(-0.251911 0 0.296262)
(-0.267268 0 0.30762)
(-0.261751 0 0.316816)
(-0.271829 0 0.276115)
(-0.268028 0 0.302565)
(-0.273244 0 0.21557)
(-0.270485 0 0.251581)
(-0.273843 0 0.149024)
(-0.270726 0 0.180249)
(-0.276724 0 0.106366)
(-0.271798 0 0.11904)
(-0.284128 0 0.108088)
(-0.276701 0 0.0971886)
(-0.296191 0 0.153148)
(-0.286678 0 0.125451)
(-0.311044 0 0.219993)
(-0.300556 0 0.189643)
(-0.3262 0 0.280032)
(-0.315693 0 0.260016)
(-0.340197 0 0.313926)
(-0.329791 0 0.309305)
(-0.353188 0 0.320407)
(-0.342251 0 0.326954)
(-0.354276 0 0.321824)
(-0.132942 0 0.128893)
(-0.132335 0 0.0877125)
(-0.133864 0 0.195436)
(-0.133215 0 0.174347)
(-0.134989 0 0.235917)
(-0.134305 0 0.220761)
(-0.136208 0 0.267255)
(-0.135499 0 0.25531)
(-0.137451 0 0.293163)
(-0.136748 0 0.283274)
(-0.138668 0 0.315031)
(-0.137985 0 0.306847)
(-0.139834 0 0.33305)
(-0.139171 0 0.326664)
(-0.140944 0 0.346878)
(-0.140292 0 0.342515)
(-0.142016 0 0.356159)
(-0.141357 0 0.353975)
(-0.1431 0 0.360879)
(-0.1424 0 0.360822)
(-0.144277 0 0.361591)
(-0.143489 0 0.363312)
(-0.145656 0 0.35952)
(-0.144723 0 0.362345)
(-0.14735 0 0.35648)
(-0.146218 0 0.35949)
(-0.149449 0 0.35454)
(-0.14808 0 0.356771)
(-0.151977 0 0.355448)
(-0.15037 0 0.356198)
(-0.154861 0 0.359949)
(-0.153064 0 0.359106)
(-0.157918 0 0.367216)
(-0.156029 0 0.365468)
(-0.160875 0 0.374694)
(-0.159023 0 0.373502)
(-0.16343 0 0.378562)
(-0.161749 0 0.379816)
(-0.165342 0 0.374794)
(-0.163922 0 0.380219)
(-0.166503 0 0.360509)
(-0.165365 0 0.371035)
(-0.16699 0 0.335095)
(-0.16607 0 0.350439)
(-0.167049 0 0.300607)
(-0.166217 0 0.319289)
(-0.167034 0 0.261231)
(-0.166125 0 0.28102)
(-0.167321 0 0.221989)
(-0.166177 0 0.240617)
(-0.168218 0 0.187229)
(-0.166723 0 0.203061)
(-0.169924 0 0.159513)
(-0.168011 0 0.171902)
(-0.172514 0 0.139337)
(-0.170165 0 0.148528)
(-0.17598 0 0.125748)
(-0.173206 0 0.132393)
(-0.180283 0 0.117586)
(-0.177075 0 0.122068)
(-0.186341 0 0.114056)
(-0.182167 0 0.116232)
(-0.193261 0 0.117829)
(-0.18856 0 0.116158)
(-0.201185 0 0.130977)
(-0.19584 0 0.124383)
(-0.210333 0 0.155346)
(-0.204197 0 0.143178)
(-0.220818 0 0.191175)
(-0.213856 0 0.173952)
(-0.232382 0 0.235281)
(-0.224802 0 0.215609)
(-0.244161 0 0.279306)
(-0.236514 0 0.262561)
(-0.254706 0 0.30969)
(-0.247793 0 0.303293)
(-0.26247 0 0.311758)
(-0.256999 0 0.321992)
(-0.266658 0 0.278024)
(-0.262783 0 0.305357)
(-0.26799 0 0.216249)
(-0.265028 0 0.252469)
(-0.268759 0 0.150248)
(-0.265373 0 0.180762)
(-0.271884 0 0.109845)
(-0.266738 0 0.121123)
(-0.279356 0 0.114539)
(-0.271874 0 0.10217)
(-0.291113 0 0.161946)
(-0.281769 0 0.133289)
(-0.305222 0 0.229684)
(-0.295114 0 0.199049)
(-0.319273 0 0.28932)
(-0.309303 0 0.269383)
(-0.33192 0 0.32238)
(-0.3222 0 0.317737)
(-0.343464 0 0.328463)
(-0.333232 0 0.33465)
(-0.343748 0 0.329476)
(-0.132676 0 0.131096)
(-0.132096 0 0.0892904)
(-0.133627 0 0.198563)
(-0.133009 0 0.177306)
(-0.134776 0 0.239329)
(-0.134138 0 0.22417)
(-0.13601 0 0.270661)
(-0.135355 0 0.258798)
(-0.137253 0 0.296395)
(-0.136614 0 0.286625)
(-0.138459 0 0.318006)
(-0.137845 0 0.309945)
(-0.139602 0 0.33575)
(-0.139011 0 0.329465)
(-0.14068 0 0.349338)
(-0.1401 0 0.345032)
(-0.141716 0 0.358475)
(-0.141122 0 0.356281)
(-0.142763 0 0.363196)
(-0.142116 0 0.363045)
(-0.143906 0 0.364089)
(-0.143155 0 0.365623)
(-0.145249 0 0.362383)
(-0.144338 0 0.364937)
(-0.146904 0 0.359845)
(-0.145777 0 0.362532)
(-0.148948 0 0.358443)
(-0.147575 0 0.360354)
(-0.151395 0 0.359786)
(-0.149781 0 0.360289)
(-0.154163 0 0.364471)
(-0.152362 0 0.363515)
(-0.157063 0 0.37156)
(-0.155177 0 0.369874)
(-0.159832 0 0.378471)
(-0.157989 0 0.377511)
(-0.162186 0 0.381462)
(-0.160512 0 0.383065)
(-0.163907 0 0.376678)
(-0.162485 0 0.382484)
(-0.164911 0 0.361454)
(-0.163754 0 0.372295)
(-0.165291 0 0.335374)
(-0.164333 0 0.350893)
(-0.165295 0 0.300613)
(-0.164407 0 0.319293)
(-0.165269 0 0.261368)
(-0.164292 0 0.280992)
(-0.16557 0 0.222583)
(-0.164354 0 0.240929)
(-0.166489 0 0.188476)
(-0.164922 0 0.203969)
(-0.168205 0 0.161473)
(-0.166227 0 0.173519)
(-0.170785 0 0.141968)
(-0.168378 0 0.150844)
(-0.174214 0 0.12896)
(-0.17139 0 0.135328)
(-0.178452 0 0.121303)
(-0.1752 0 0.125525)
(-0.184392 0 0.118337)
(-0.180193 0 0.120192)
(-0.191154 0 0.122716)
(-0.186439 0 0.120666)
(-0.198871 0 0.136588)
(-0.193527 0 0.129528)
(-0.207747 0 0.161786)
(-0.201635 0 0.149095)
(-0.217869 0 0.198387)
(-0.210966 0 0.1807)
(-0.228957 0 0.242888)
(-0.221479 0 0.223)
(-0.240149 0 0.286546)
(-0.232636 0 0.270022)
(-0.250059 0 0.315593)
(-0.24327 0 0.3099)
(-0.257268 0 0.31559)
(-0.251846 0 0.326798)
(-0.261126 0 0.2798)
(-0.257171 0 0.307929)
(-0.262435 0 0.21698)
(-0.259261 0 0.253342)
(-0.26343 0 0.151634)
(-0.259768 0 0.181426)
(-0.266835 0 0.113446)
(-0.261469 0 0.123393)
(-0.274389 0 0.120921)
(-0.266856 0 0.107206)
(-0.285838 0 0.170399)
(-0.276666 0 0.140922)
(-0.299211 0 0.238764)
(-0.289476 0 0.207964)
(-0.312195 0 0.297814)
(-0.302735 0 0.27804)
(-0.323562 0 0.329985)
(-0.314476 0 0.325315)
(-0.333679 0 0.335609)
(-0.324243 0 0.341395)
(-0.333344 0 0.336096)
(-0.132504 0 0.133396)
(-0.131974 0 0.0909533)
(-0.133494 0 0.201792)
(-0.132926 0 0.180387)
(-0.134676 0 0.242811)
(-0.134102 0 0.227676)
(-0.13593 0 0.274097)
(-0.135348 0 0.262341)
(-0.137176 0 0.299618)
(-0.136619 0 0.289986)
(-0.138369 0 0.320937)
(-0.137844 0 0.313009)
(-0.139483 0 0.338375)
(-0.138985 0 0.332193)
(-0.140517 0 0.351706)
(-0.14003 0 0.347448)
(-0.141498 0 0.360689)
(-0.140994 0 0.358466)
(-0.142483 0 0.36541)
(-0.141917 0 0.365135)
(-0.143559 0 0.366487)
(-0.142877 0 0.367799)
(-0.144832 0 0.365143)
(-0.143973 0 0.367392)
(-0.146407 0 0.363092)
(-0.145319 0 0.365429)
(-0.148358 0 0.362201)
(-0.147012 0 0.363774)
(-0.150689 0 0.36394)
(-0.149095 0 0.364185)
(-0.153311 0 0.368765)
(-0.151527 0 0.367693)
(-0.156036 0 0.375641)
(-0.154166 0 0.374013)
(-0.158608 0 0.381971)
(-0.156778 0 0.381234)
(-0.160761 0 0.3841)
(-0.159092 0 0.386037)
(-0.162298 0 0.378343)
(-0.160867 0 0.384507)
(-0.163158 0 0.362244)
(-0.161973 0 0.373374)
(-0.163445 0 0.335565)
(-0.162438 0 0.351235)
(-0.163407 0 0.300586)
(-0.162453 0 0.31925)
(-0.163378 0 0.261508)
(-0.162326 0 0.28096)
(-0.163697 0 0.223196)
(-0.162404 0 0.241259)
(-0.164634 0 0.189737)
(-0.162996 0 0.204895)
(-0.166354 0 0.16343)
(-0.164313 0 0.175138)
(-0.168913 0 0.144573)
(-0.166452 0 0.153141)
(-0.17229 0 0.132125)
(-0.169421 0 0.138218)
(-0.176445 0 0.12495)
(-0.173157 0 0.128914)
(-0.182247 0 0.122521)
(-0.178034 0 0.124061)
(-0.188827 0 0.127477)
(-0.184112 0 0.125052)
(-0.19631 0 0.142034)
(-0.190983 0 0.134516)
(-0.20488 0 0.168008)
(-0.198813 0 0.154809)
(-0.214604 0 0.205312)
(-0.207783 0 0.187183)
(-0.225178 0 0.250133)
(-0.217827 0 0.23005)
(-0.235757 0 0.293374)
(-0.228398 0 0.277075)
(-0.245028 0 0.321103)
(-0.238374 0 0.316081)
(-0.251703 0 0.319137)
(-0.246333 0 0.331249)
(-0.255278 0 0.281471)
(-0.251237 0 0.310312)
(-0.256618 0 0.21779)
(-0.253225 0 0.254235)
(-0.257887 0 0.15319)
(-0.253946 0 0.182272)
(-0.261596 0 0.11716)
(-0.256014 0 0.125866)
(-0.269232 0 0.127216)
(-0.261655 0 0.112296)
(-0.280368 0 0.178498)
(-0.271371 0 0.148346)
(-0.293015 0 0.247253)
(-0.283648 0 0.216396)
(-0.304975 0 0.305557)
(-0.296013 0 0.286013)
(-0.315164 0 0.336745)
(-0.306666 0 0.332108)
(-0.32401 0 0.341895)
(-0.315305 0 0.347292)
(-0.323205 0 0.341863)
(-0.132478 0 0.135807)
(-0.132002 0 0.0927005)
(-0.133511 0 0.205141)
(-0.132997 0 0.1836)
(-0.134731 0 0.246377)
(-0.134226 0 0.231295)
(-0.136007 0 0.277569)
(-0.135507 0 0.26595)
(-0.137258 0 0.302827)
(-0.136793 0 0.293357)
(-0.138433 0 0.323807)
(-0.13801 0 0.316028)
(-0.139508 0 0.340901)
(-0.139119 0 0.334828)
(-0.140485 0 0.353944)
(-0.14011 0 0.349728)
(-0.141391 0 0.362752)
(-0.140997 0 0.360484)
(-0.142288 0 0.36746)
(-0.141826 0 0.367038)
(-0.143264 0 0.368714)
(-0.142676 0 0.369775)
(-0.144428 0 0.367724)
(-0.143651 0 0.369637)
(-0.145884 0 0.366149)
(-0.144864 0 0.368106)
(-0.1477 0 0.365747)
(-0.14641 0 0.366958)
(-0.149877 0 0.367853)
(-0.148328 0 0.367822)
(-0.15232 0 0.372789)
(-0.150575 0 0.371586)
(-0.154846 0 0.379433)
(-0.153007 0 0.377848)
(-0.157206 0 0.385184)
(-0.155398 0 0.384652)
(-0.159153 0 0.386479)
(-0.157492 0 0.388725)
(-0.160512 0 0.379803)
(-0.159069 0 0.386295)
(-0.161238 0 0.362894)
(-0.160017 0 0.374285)
(-0.161443 0 0.335683)
(-0.160379 0 0.351481)
(-0.161375 0 0.300539)
(-0.160346 0 0.319171)
(-0.161352 0 0.261659)
(-0.160216 0 0.280935)
(-0.161692 0 0.223827)
(-0.160316 0 0.241612)
(-0.162647 0 0.191006)
(-0.160933 0 0.205838)
(-0.164364 0 0.165374)
(-0.162259 0 0.176755)
(-0.166891 0 0.147142)
(-0.164378 0 0.155409)
(-0.170204 0 0.135229)
(-0.167293 0 0.141054)
(-0.174261 0 0.128512)
(-0.170943 0 0.132225)
(-0.179906 0 0.126591)
(-0.175688 0 0.127824)
(-0.186283 0 0.13209)
(-0.18158 0 0.129304)
(-0.193506 0 0.14729)
(-0.188213 0 0.139332)
(-0.201742 0 0.173982)
(-0.19574 0 0.160299)
(-0.211034 0 0.21192)
(-0.204319 0 0.193377)
(-0.221066 0 0.256992)
(-0.213864 0 0.236739)
(-0.231014 0 0.299781)
(-0.223828 0 0.283706)
(-0.239648 0 0.326226)
(-0.233141 0 0.321837)
(-0.245819 0 0.322424)
(-0.2405 0 0.335362)
(-0.249156 0 0.283077)
(-0.245025 0 0.312537)
(-0.250577 0 0.218718)
(-0.24696 0 0.255183)
(-0.252153 0 0.15495)
(-0.247936 0 0.183322)
(-0.256178 0 0.121007)
(-0.250387 0 0.128549)
(-0.263889 0 0.133434)
(-0.256276 0 0.117437)
(-0.274708 0 0.186254)
(-0.265885 0 0.155559)
(-0.286654 0 0.255171)
(-0.277637 0 0.224359)
(-0.297657 0 0.312588)
(-0.289158 0 0.293348)
(-0.30679 0 0.3427)
(-0.29882 0 0.338196)
(-0.31454 0 0.347325)
(-0.306466 0 0.352459)
(-0.31336 0 0.346885)
(-0.132611 0 0.138322)
(-0.132183 0 0.0945535)
(-0.133694 0 0.208615)
(-0.133245 0 0.186969)
(-0.134959 0 0.25004)
(-0.134541 0 0.235046)
(-0.136263 0 0.281083)
(-0.13586 0 0.269637)
(-0.137518 0 0.306017)
(-0.13716 0 0.296738)
(-0.138671 0 0.3266)
(-0.138364 0 0.318991)
(-0.139698 0 0.343299)
(-0.139432 0 0.337345)
(-0.140602 0 0.356011)
(-0.140353 0 0.351839)
(-0.141413 0 0.364613)
(-0.141145 0 0.36229)
(-0.142195 0 0.369287)
(-0.141857 0 0.368698)
(-0.14304 0 0.370701)
(-0.142568 0 0.371485)
(-0.144058 0 0.370054)
(-0.143387 0 0.371601)
(-0.145354 0 0.368941)
(-0.144429 0 0.370488)
(-0.146993 0 0.369011)
(-0.145786 0 0.369832)
(-0.148975 0 0.371464)
(-0.147498 0 0.371133)
(-0.151205 0 0.376495)
(-0.149521 0 0.375139)
(-0.153503 0 0.382904)
(-0.151713 0 0.381339)
(-0.155634 0 0.388094)
(-0.15386 0 0.387737)
(-0.157367 0 0.388597)
(-0.15572 0 0.391118)
(-0.158547 0 0.381063)
(-0.157092 0 0.387848)
(-0.159146 0 0.363416)
(-0.157885 0 0.375035)
(-0.15928 0 0.335741)
(-0.158151 0 0.351642)
(-0.159191 0 0.300481)
(-0.15808 0 0.319069)
(-0.159181 0 0.261827)
(-0.157955 0 0.280925)
(-0.159547 0 0.224478)
(-0.158083 0 0.241991)
(-0.160518 0 0.192281)
(-0.158726 0 0.206797)
(-0.162227 0 0.1673)
(-0.160058 0 0.178365)
(-0.164713 0 0.149663)
(-0.16215 0 0.157641)
(-0.167951 0 0.13826)
(-0.165003 0 0.143825)
(-0.171899 0 0.131978)
(-0.168556 0 0.135445)
(-0.17737 0 0.130536)
(-0.173156 0 0.131472)
(-0.183525 0 0.136543)
(-0.178845 0 0.133407)
(-0.190467 0 0.15234)
(-0.185222 0 0.143959)
(-0.198343 0 0.179693)
(-0.192425 0 0.16555)
(-0.207176 0 0.218194)
(-0.200589 0 0.199265)
(-0.216644 0 0.263453)
(-0.209612 0 0.24305)
(-0.225951 0 0.305762)
(-0.218955 0 0.289911)
(-0.233959 0 0.330974)
(-0.227608 0 0.327175)
(-0.239656 0 0.325476)
(-0.234392 0 0.339161)
(-0.2428 0 0.284645)
(-0.238578 0 0.314633)
(-0.244343 0 0.219789)
(-0.240504 0 0.256212)
(-0.246249 0 0.156925)
(-0.241762 0 0.184593)
(-0.25059 0 0.124985)
(-0.244602 0 0.131443)
(-0.258365 0 0.13957)
(-0.250724 0 0.12262)
(-0.268865 0 0.193676)
(-0.260212 0 0.162559)
(-0.28014 0 0.262552)
(-0.271447 0 0.231876)
(-0.290265 0 0.318978)
(-0.282179 0 0.300098)
(-0.298465 0 0.347986)
(-0.290954 0 0.343663)
(-0.305292 0 0.352067)
(-0.297752 0 0.35701)
(-0.303828 0 0.351294)
(-0.132921 0 0.140992)
(-0.132547 0 0.0965903)
(-0.134078 0 0.212252)
(-0.133714 0 0.190568)
(-0.135396 0 0.253817)
(-0.135093 0 0.238955)
(-0.136726 0 0.284645)
(-0.136445 0 0.273399)
(-0.137978 0 0.309181)
(-0.137748 0 0.300114)
(-0.1391 0 0.329297)
(-0.138925 0 0.321872)
(-0.140065 0 0.345538)
(-0.139935 0 0.33971)
(-0.140879 0 0.357867)
(-0.140769 0 0.353738)
(-0.141573 0 0.366221)
(-0.141445 0 0.363835)
(-0.142214 0 0.370829)
(-0.142013 0 0.370058)
(-0.142896 0 0.372381)
(-0.142558 0 0.372866)
(-0.143733 0 0.37206)
(-0.143189 0 0.373216)
(-0.144829 0 0.371394)
(-0.144022 0 0.372503)
(-0.146252 0 0.371922)
(-0.145152 0 0.372326)
(-0.147998 0 0.374711)
(-0.146619 0 0.374052)
(-0.149979 0 0.379834)
(-0.148379 0 0.378294)
(-0.15202 0 0.386018)
(-0.150299 0 0.384439)
(-0.1539 0 0.390679)
(-0.152174 0 0.39046)
(-0.155409 0 0.390445)
(-0.153782 0 0.393199)
(-0.156407 0 0.382125)
(-0.154941 0 0.389161)
(-0.15688 0 0.363819)
(-0.155577 0 0.375629)
(-0.156949 0 0.335748)
(-0.15575 0 0.351725)
(-0.156847 0 0.300424)
(-0.155647 0 0.318952)
(-0.156857 0 0.262018)
(-0.155534 0 0.280936)
(-0.157252 0 0.225151)
(-0.155695 0 0.242401)
(-0.15824 0 0.193559)
(-0.156367 0 0.207773)
(-0.159937 0 0.1692)
(-0.157702 0 0.179963)
(-0.162375 0 0.152131)
(-0.159764 0 0.15983)
(-0.165529 0 0.14121)
(-0.162547 0 0.146524)
(-0.169357 0 0.135338)
(-0.165994 0 0.138568)
(-0.17464 0 0.134343)
(-0.170438 0 0.134994)
(-0.180559 0 0.140823)
(-0.175912 0 0.137353)
(-0.187201 0 0.157169)
(-0.182019 0 0.148388)
(-0.194697 0 0.185122)
(-0.188879 0 0.170548)
(-0.203051 0 0.224121)
(-0.19661 0 0.204835)
(-0.211939 0 0.269508)
(-0.205095 0 0.248976)
(-0.220605 0 0.311324)
(-0.213811 0 0.295688)
(-0.228004 0 0.335363)
(-0.221815 0 0.332108)
(-0.233262 0 0.328318)
(-0.228054 0 0.342666)
(-0.236252 0 0.286202)
(-0.23194 0 0.316626)
(-0.237948 0 0.221019)
(-0.233894 0 0.257343)
(-0.240195 0 0.159116)
(-0.235452 0 0.186091)
(-0.244841 0 0.129085)
(-0.238673 0 0.13454)
(-0.25266 0 0.145618)
(-0.245003 0 0.127833)
(-0.262837 0 0.200772)
(-0.254349 0 0.169344)
(-0.273476 0 0.269437)
(-0.26508 0 0.238969)
(-0.282805 0 0.324802)
(-0.275078 0 0.306318)
(-0.290197 0 0.352711)
(-0.28307 0 0.348591)
(-0.296274 0 0.356272)
(-0.289163 0 0.361062)
(-0.294609 0 0.355235)
(-0.133465 0 0.14392)
(-0.133153 0 0.0988879)
(-0.134719 0 0.216114)
(-0.13445 0 0.194472)
(-0.136093 0 0.257713)
(-0.13592 0 0.243028)
(-0.137437 0 0.288229)
(-0.137293 0 0.277199)
(-0.138668 0 0.312284)
(-0.138578 0 0.303433)
(-0.139737 0 0.331859)
(-0.139706 0 0.324619)
(-0.14062 0 0.347575)
(-0.140635 0 0.341873)
(-0.141321 0 0.359464)
(-0.141358 0 0.355374)
(-0.141873 0 0.367523)
(-0.141893 0 0.365065)
(-0.142346 0 0.372028)
(-0.142293 0 0.371061)
(-0.142836 0 0.373691)
(-0.142643 0 0.373859)
(-0.143458 0 0.373675)
(-0.143055 0 0.374416)
(-0.144319 0 0.373439)
(-0.143647 0 0.374086)
(-0.145486 0 0.374413)
(-0.144514 0 0.374372)
(-0.146959 0 0.377533)
(-0.145697 0 0.376515)
(-0.148654 0 0.382752)
(-0.147159 0 0.380995)
(-0.150408 0 0.388736)
(-0.148772 0 0.387103)
(-0.152015 0 0.392914)
(-0.150349 0 0.392787)
(-0.153283 0 0.39201)
(-0.151685 0 0.394949)
(-0.154091 0 0.382987)
(-0.152619 0 0.390225)
(-0.154439 0 0.364105)
(-0.153093 0 0.376064)
(-0.154447 0 0.335712)
(-0.153174 0 0.351735)
(-0.154337 0 0.300372)
(-0.153042 0 0.318827)
(-0.154372 0 0.262238)
(-0.152947 0 0.280974)
(-0.1548 0 0.225849)
(-0.153145 0 0.242844)
(-0.155804 0 0.19484)
(-0.153847 0 0.208765)
(-0.157487 0 0.171073)
(-0.155186 0 0.181548)
(-0.159873 0 0.154539)
(-0.157213 0 0.161972)
(-0.162935 0 0.144072)
(-0.159921 0 0.149145)
(-0.166635 0 0.138583)
(-0.163255 0 0.141586)
(-0.17172 0 0.138004)
(-0.167536 0 0.138384)
(-0.177389 0 0.144918)
(-0.172785 0 0.141133)
(-0.183718 0 0.161766)
(-0.17861 0 0.152607)
(-0.190819 0 0.19026)
(-0.185116 0 0.175281)
(-0.198679 0 0.22969)
(-0.1924 0 0.210075)
(-0.206981 0 0.275155)
(-0.200339 0 0.254511)
(-0.215012 0 0.316472)
(-0.20843 0 0.301041)
(-0.221826 0 0.339412)
(-0.215804 0 0.336651)
(-0.226679 0 0.330975)
(-0.221531 0 0.345901)
(-0.229552 0 0.28777)
(-0.225156 0 0.318541)
(-0.231423 0 0.222419)
(-0.227164 0 0.258591)
(-0.234009 0 0.16152)
(-0.229029 0 0.187816)
(-0.238938 0 0.133295)
(-0.232611 0 0.137826)
(-0.246778 0 0.151568)
(-0.239117 0 0.133059)
(-0.256627 0 0.207552)
(-0.248298 0 0.17591)
(-0.266662 0 0.275863)
(-0.258534 0 0.245659)
(-0.275274 0 0.330124)
(-0.267855 0 0.312059)
(-0.281981 0 0.356965)
(-0.275163 0 0.353062)
(-0.287471 0 0.360057)
(-0.280685 0 0.364722)
(-0.285673 0 0.358845)
(-0.134287 0 0.147155)
(-0.134031 0 0.101463)
(-0.135645 0 0.220225)
(-0.135458 0 0.198697)
(-0.137068 0 0.261697)
(-0.137014 0 0.247248)
(-0.138406 0 0.291775)
(-0.138394 0 0.280982)
(-0.139591 0 0.315261)
(-0.13964 0 0.306628)
(-0.140582 0 0.334221)
(-0.140693 0 0.327165)
(-0.141357 0 0.34935)
(-0.141516 0 0.343772)
(-0.141919 0 0.360743)
(-0.142104 0 0.356688)
(-0.142305 0 0.36846)
(-0.142475 0 0.365924)
(-0.142583 0 0.372825)
(-0.142681 0 0.371652)
(-0.142853 0 0.374569)
(-0.142811 0 0.374405)
(-0.14323 0 0.374834)
(-0.142977 0 0.375143)
(-0.143822 0 0.375011)
(-0.143297 0 0.375175)
(-0.144699 0 0.376421)
(-0.143869 0 0.375908)
(-0.145864 0 0.379869)
(-0.144735 0 0.378461)
(-0.147239 0 0.385199)
(-0.145864 0 0.383186)
(-0.148676 0 0.391017)
(-0.14714 0 0.389284)
(-0.149985 0 0.394769)
(-0.148391 0 0.394682)
(-0.150994 0 0.393275)
(-0.149432 0 0.396342)
(-0.151603 0 0.38364)
(-0.150126 0 0.391027)
(-0.151821 0 0.364275)
(-0.150431 0 0.376337)
(-0.151769 0 0.335636)
(-0.150418 0 0.351673)
(-0.151655 0 0.300332)
(-0.15026 0 0.318697)
(-0.151719 0 0.26249)
(-0.150186 0 0.281044)
(-0.152182 0 0.226573)
(-0.150425 0 0.243323)
(-0.153204 0 0.196122)
(-0.151159 0 0.209774)
(-0.154871 0 0.172914)
(-0.152501 0 0.183117)
(-0.1572 0 0.156883)
(-0.154492 0 0.164063)
(-0.160167 0 0.14684)
(-0.157121 0 0.151684)
(-0.163733 0 0.141709)
(-0.160339 0 0.144495)
(-0.168612 0 0.141513)
(-0.164452 0 0.141637)
(-0.174024 0 0.148822)
(-0.16947 0 0.144741)
(-0.18003 0 0.166122)
(-0.175006 0 0.156611)
(-0.186724 0 0.195096)
(-0.181148 0 0.179744)
(-0.194084 0 0.234896)
(-0.187979 0 0.214982)
(-0.2018 0 0.280397)
(-0.19537 0 0.259655)
(-0.209211 0 0.321221)
(-0.202847 0 0.305981)
(-0.215468 0 0.343142)
(-0.209616 0 0.340823)
(-0.219953 0 0.333469)
(-0.214867 0 0.348892)
(-0.222738 0 0.289365)
(-0.218265 0 0.320398)
(-0.224796 0 0.223991)
(-0.220349 0 0.259963)
(-0.22771 0 0.164127)
(-0.222516 0 0.189758)
(-0.232892 0 0.137597)
(-0.226429 0 0.141281)
(-0.240721 0 0.157409)
(-0.233072 0 0.138278)
(-0.250235 0 0.214027)
(-0.242062 0 0.182253)
(-0.259698 0 0.281867)
(-0.251811 0 0.251967)
(-0.267668 0 0.335012)
(-0.260504 0 0.317373)
(-0.273803 0 0.360839)
(-0.267219 0 0.357152)
(-0.278849 0 0.363536)
(-0.272289 0 0.368086)
(-0.276966 0 0.362241)
(-0.135372 0 0.150682)
(-0.135162 0 0.104295)
(-0.136825 0 0.224561)
(-0.136708 0 0.20322)
(-0.138286 0 0.265727)
(-0.138338 0 0.251582)
(-0.139602 0 0.295221)
(-0.139713 0 0.2847)
(-0.140719 0 0.318041)
(-0.140901 0 0.30964)
(-0.141608 0 0.336319)
(-0.141857 0 0.32945)
(-0.142251 0 0.350801)
(-0.142553 0 0.345347)
(-0.142652 0 0.361647)
(-0.142983 0 0.357625)
(-0.142847 0 0.368978)
(-0.143166 0 0.366358)
(-0.142907 0 0.373165)
(-0.143156 0 0.371778)
(-0.142931 0 0.374961)
(-0.143042 0 0.374454)
(-0.143037 0 0.375482)
(-0.142937 0 0.375346)
(-0.143331 0 0.376054)
(-0.14296 0 0.375716)
(-0.143886 0 0.377887)
(-0.143208 0 0.376882)
(-0.14471 0 0.381665)
(-0.143727 0 0.379839)
(-0.145735 0 0.387125)
(-0.144492 0 0.384819)
(-0.146825 0 0.392819)
(-0.1454 0 0.390939)
(-0.147811 0 0.396214)
(-0.146298 0 0.39611)
(-0.148543 0 0.394219)
(-0.147024 0 0.397353)
(-0.148941 0 0.384074)
(-0.147463 0 0.39155)
(-0.149023 0 0.364324)
(-0.147589 0 0.37644)
(-0.148909 0 0.335521)
(-0.147477 0 0.351538)
(-0.148793 0 0.300307)
(-0.147293 0 0.318564)
(-0.148889 0 0.262778)
(-0.147242 0 0.281149)
(-0.14939 0 0.227325)
(-0.147525 0 0.243842)
(-0.150431 0 0.197406)
(-0.148294 0 0.210803)
(-0.152082 0 0.174721)
(-0.149641 0 0.184672)
(-0.154354 0 0.15916)
(-0.151595 0 0.166103)
(-0.157222 0 0.149511)
(-0.154145 0 0.154139)
(-0.160651 0 0.144711)
(-0.157245 0 0.147293)
(-0.16532 0 0.144865)
(-0.161187 0 0.14475)
(-0.170469 0 0.15253)
(-0.165971 0 0.148174)
(-0.176147 0 0.170233)
(-0.171215 0 0.160396)
(-0.18243 0 0.199629)
(-0.176992 0 0.183933)
(-0.189289 0 0.239741)
(-0.183368 0 0.219554)
(-0.196428 0 0.28524)
(-0.190216 0 0.264414)
(-0.203238 0 0.325584)
(-0.197096 0 0.310522)
(-0.208971 0 0.346574)
(-0.203289 0 0.344645)
(-0.213123 0 0.335822)
(-0.2081 0 0.35166)
(-0.215846 0 0.290998)
(-0.211305 0 0.322213)
(-0.218094 0 0.225733)
(-0.213477 0 0.261461)
(-0.221313 0 0.166917)
(-0.215931 0 0.191905)
(-0.226711 0 0.141968)
(-0.22014 0 0.144879)
(-0.234495 0 0.163129)
(-0.226876 0 0.143467)
(-0.243663 0 0.220203)
(-0.235646 0 0.188365)
(-0.252581 0 0.287484)
(-0.244911 0 0.257913)
(-0.259975 0 0.339525)
(-0.25302 0 0.322302)
(-0.265635 0 0.364415)
(-0.259219 0 0.360925)
(-0.270361 0 0.366811)
(-0.263936 0 0.371237)
(-0.26842 0 0.365522)
(-0.136687 0 0.154469)
(-0.136536 0 0.107356)
(-0.138222 0 0.229085)
(-0.138179 0 0.207995)
(-0.139708 0 0.269764)
(-0.139862 0 0.255989)
(-0.140986 0 0.298523)
(-0.141217 0 0.288313)
(-0.142018 0 0.320576)
(-0.14233 0 0.312422)
(-0.142786 0 0.338098)
(-0.143171 0 0.331423)
(-0.143275 0 0.351876)
(-0.143718 0 0.346546)
(-0.143493 0 0.362126)
(-0.143968 0 0.358133)
(-0.143476 0 0.369028)
(-0.143942 0 0.36632)
(-0.143295 0 0.373002)
(-0.143695 0 0.371394)
(-0.143051 0 0.374818)
(-0.143315 0 0.37396)
(-0.14286 0 0.37557)
(-0.142916 0 0.374978)
(-0.142831 0 0.376516)
(-0.142617 0 0.375663)
(-0.143037 0 0.378762)
(-0.142515 0 0.377243)
(-0.143492 0 0.382872)
(-0.14266 0 0.380598)
(-0.144136 0 0.388485)
(-0.143033 0 0.385846)
(-0.144852 0 0.394105)
(-0.143547 0 0.392026)
(-0.145492 0 0.397218)
(-0.144067 0 0.397036)
(-0.145929 0 0.394821)
(-0.144458 0 0.397956)
(-0.146102 0 0.384276)
(-0.144626 0 0.391777)
(-0.14604 0 0.364247)
(-0.144561 0 0.376362)
(-0.145862 0 0.335368)
(-0.144346 0 0.351325)
(-0.145744 0 0.300299)
(-0.144134 0 0.31843)
(-0.145875 0 0.263104)
(-0.144108 0 0.281291)
(-0.146417 0 0.228108)
(-0.144437 0 0.244404)
(-0.147479 0 0.198692)
(-0.145244 0 0.211852)
(-0.149115 0 0.176496)
(-0.146598 0 0.186212)
(-0.15133 0 0.161368)
(-0.148518 0 0.168091)
(-0.1541 0 0.152084)
(-0.15099 0 0.15651)
(-0.157391 0 0.147587)
(-0.153973 0 0.149978)
(-0.161849 0 0.148058)
(-0.157746 0 0.147722)
(-0.166735 0 0.15604)
(-0.162297 0 0.151431)
(-0.172082 0 0.174096)
(-0.167249 0 0.163961)
(-0.177955 0 0.203858)
(-0.17266 0 0.187848)
(-0.184318 0 0.244228)
(-0.178586 0 0.223796)
(-0.190894 0 0.289697)
(-0.184904 0 0.268798)
(-0.197131 0 0.329583)
(-0.191209 0 0.31468)
(-0.202374 0 0.349732)
(-0.196859 0 0.34814)
(-0.206227 0 0.338052)
(-0.201269 0 0.354228)
(-0.208906 0 0.292678)
(-0.204307 0 0.323999)
(-0.21134 0 0.227636)
(-0.206575 0 0.263084)
(-0.214836 0 0.169871)
(-0.209295 0 0.194236)
(-0.220406 0 0.146384)
(-0.213756 0 0.148592)
(-0.228106 0 0.16871)
(-0.220538 0 0.148601)
(-0.236915 0 0.226083)
(-0.229056 0 0.194238)
(-0.245309 0 0.29274)
(-0.237836 0 0.263509)
(-0.252181 0 0.343713)
(-0.245394 0 0.326884)
(-0.257446 0 0.367759)
(-0.251139 0 0.364435)
(-0.261947 0 0.369962)
(-0.25558 0 0.374238)
(-0.259959 0 0.368763)
(-0.138232 0 0.158477)
(-0.138177 0 0.11059)
(-0.139824 0 0.233752)
(-0.139872 0 0.212948)
(-0.141315 0 0.273766)
(-0.141578 0 0.260411)
(-0.142538 0 0.301636)
(-0.142892 0 0.29177)
(-0.143466 0 0.322815)
(-0.143912 0 0.314924)
(-0.144092 0 0.339509)
(-0.144618 0 0.333031)
(-0.144407 0 0.352526)
(-0.144995 0 0.347318)
(-0.14442 0 0.362131)
(-0.145043 0 0.358163)
(-0.144168 0 0.368564)
(-0.144785 0 0.36576)
(-0.143725 0 0.37229)
(-0.144277 0 0.370453)
(-0.14319 0 0.374096)
(-0.143609 0 0.372879)
(-0.142681 0 0.375054)
(-0.142894 0 0.373995)
(-0.142305 0 0.376352)
(-0.14225 0 0.374971)
(-0.142136 0 0.378999)
(-0.141774 0 0.376949)
(-0.142195 0 0.383445)
(-0.141519 0 0.380696)
(-0.142433 0 0.389237)
(-0.141475 0 0.386225)
(-0.14275 0 0.394836)
(-0.141569 0 0.392507)
(-0.143021 0 0.397752)
(-0.141689 0 0.397429)
(-0.143145 0 0.395059)
(-0.141724 0 0.398127)
(-0.14308 0 0.384231)
(-0.141606 0 0.391691)
(-0.142866 0 0.364037)
(-0.141342 0 0.376095)
(-0.14262 0 0.335172)
(-0.141018 0 0.35103)
(-0.1425 0 0.300308)
(-0.140776 0 0.318292)
(-0.142667 0 0.263472)
(-0.140775 0 0.281473)
(-0.143252 0 0.228925)
(-0.141152 0 0.24501)
(-0.144339 0 0.199984)
(-0.142001 0 0.212926)
(-0.145963 0 0.17824)
(-0.143366 0 0.187741)
(-0.148124 0 0.16351)
(-0.145255 0 0.170031)
(-0.150798 0 0.15456)
(-0.147653 0 0.158799)
(-0.153955 0 0.150339)
(-0.150524 0 0.152554)
(-0.158204 0 0.151094)
(-0.154131 0 0.150555)
(-0.162828 0 0.159352)
(-0.158453 0 0.154514)
(-0.167849 0 0.177713)
(-0.163117 0 0.167308)
(-0.173317 0 0.207786)
(-0.168169 0 0.191493)
(-0.179194 0 0.248366)
(-0.173654 0 0.227714)
(-0.185227 0 0.293782)
(-0.179459 0 0.27282)
(-0.190919 0 0.333238)
(-0.185215 0 0.318475)
(-0.195709 0 0.352638)
(-0.190358 0 0.351333)
(-0.199294 0 0.340177)
(-0.194402 0 0.356619)
(-0.201946 0 0.294407)
(-0.1973 0 0.325767)
(-0.204554 0 0.229687)
(-0.199662 0 0.264822)
(-0.208292 0 0.172961)
(-0.202621 0 0.196728)
(-0.213987 0 0.150814)
(-0.207288 0 0.152389)
(-0.221564 0 0.174134)
(-0.214067 0 0.153652)
(-0.229995 0 0.23167)
(-0.222299 0 0.199858)
(-0.237877 0 0.297659)
(-0.230588 0 0.268764)
(-0.244269 0 0.347614)
(-0.237619 0 0.331144)
(-0.249198 0 0.370922)
(-0.242952 0 0.367721)
(-0.253544 0 0.373047)
(-0.247172 0 0.377134)