/*--------------------------------*- C++ -*----------------------------------*\
  =========                 |
  \\      /  F ield         | OpenFOAM: The Open Source CFD Toolbox
   \\    /   O peration     | Website:  https://openfoam.org
    \\  /    A nd           | Version:  9
     \\/     M anipulation  |
\*---------------------------------------------------------------------------*/
FoamFile
{
    format      ascii;
    class       surfaceScalarField;
    location    "0.1";
    object      alphaPhi0.water;
}
// * * * * * * * * * * * * * * * * * * * * * * * * * * * * * * * * * * * * * //

dimensions      [0 3 -1 0 0 0 0];

internalField   nonuniform List<scalar> 
9850
(
0
0
0
0
0
0
0
0
0
0
0
0
0
0
0
0
0
0
0
0
0
0
0
0
0
0
0
0
0
0
0
0
0
0
0
0
0
0
0
0
0
0
0
0
0
0
0
0
0
0
0
0
0
0
0
0
0
0
0
0
0
0
0
0
0
0
0
0
0
0
0
0
0
0
0
0
0
0
0
0
0
0
0
0
0
0
0
0
0
0
0
0
0
0
0
0
0
0
0
0
0
0
0
0
0
0
0
0
0
0
0
0
0
0
0
0
0
0
0
0
0
0
0
0
0
0
0
0
0
0
0
0
0
0
0
0
0
0
0
0
0
0
0
0
0
0
0
0
0
0
0
0
0
0
0
0
0
0
0
0
0
0
0
0
0
0
0
0
0
0
0
0
0
0
0
0
0
0
0
0
0
0
0
0
0
0
0
0
0
0
0
0
0
0
0
0
0
0
0
0
0
0
0
0
0
0
0
0
0
0
0
0
0
0
0
0
0
0
0
0
0
0
0
0
0
0
0
0
0
0
0
0
0
0
0
0
0
0
0
0
0
0
0
0
0
0
0
0
0
0
0
0
0
0
0
0
0
0
0
0
0
0
0
0
0
0
0
0
0
0
0
0
0
0
0
0
0
0
0
0
0
0
0
0
0
0
0
0
0
0
0
0
0
0
0
0
0
0
0
0
0
0
0
0
0
0
0
0
0
0
0
0
0
0
0
0
0
0
0
0
0
0
0
0
0
0
0
0
0
0
0
0
0
0
0
0
0
0
0
0
0
0
0
0
0
0
0
0
0
0
0
0
0
0
0
0
0
0
0
0
0
0
0
0
0
0
0
0
0
0
0
0
0
0
0
0
0
0
0
0
0
0
0
0
0
0
0
0
0
0
0
0
0
0
0
0
0
0
0
0
0
0
0
0
0
0
0
0
0
0
0
0
0
0
0
0
0
0
0
0
0
0
0
0
0
0
0
0
0
0
0
0
0
0
0
0
0
0
0
0
0
0
0
0
0
0
0
0
0
0
0
0
0
0
0
0
0
0
0
0
0
0
0
0
0
0
0
0
0
0
0
0
0
0
0
0
0
0
0
0
0
0
0
0
0
0
0
0
0
0
0
0
0
0
0
0
0
0
0
0
0
0
0
0
0
0
0
0
0
0
0
0
0
0
0
0
0
0
0
0
0
0
0
0
0
0
0
0
0
0
0
0
0
0
0
0
0
0
0
0
0
0
0
0
0
0
0
0
0
0
0
0
0
0
0
0
0
0
0
0
0
0
0
0
0
0
0
0
0
0
0
0
0
0
0
0
0
0
0
0
0
0
0
0
0
0
0
0
0
0
0
0
0
0
0
0
0
0
0
0
0
0
0
0
0
0
0
0
0
0
0
0
0
0
0
0
0
0
0
0
0
0
0
0
0
0
0
0
0
0
0
0
0
0
0
0
0
0
0
0
0
0
0
0
0
0
0
0
0
0
0
0
0
0
0
0
0
0
0
0
0
0
0
0
0
0
0
0
0
0
0
0
0
0
0
0
0
0
0
0
0
0
0
0
0
0
0
0
0
0
0
0
0
0
0
0
0
0
0
0
0
0
0
0
0
0
0
0
0
0
0
0
0
0
0
0
0
0
0
0
0
0
0
0
0
0
0
0
0
0
0
0
0
0
0
0
0
0
0
0
0
0
0
0
0
0
0
0
0
0
0
0
0
0
0
0
0
0
0
0
0
0
0
0
0
0
0
0
0
0
0
0
0
0
0
0
0
0
0
0
0
0
0
0
0
0
0
0
0
0
0
0
0
0
0
0
0
0
0
0
0
0
0
0
0
0
0
0
0
0
0
0
0
0
0
0
0
0
0
0
0
0
0
0
0
0
0
0
0
0
0
0
0
0
0
0
0
0
0
0
0
0
0
0
0
0
0
0
0
0
0
0
0
0
0
0
0
0
0
0
0
0
0
0
0
0
0
0
0
0
0
0
0
0
0
0
0
0
0
0
0
0
0
0
0
0
0
0
0
0
0
0
0
0
0
0
0
0
0
0
0
0
0
0
0
0
0
0
0
0
0
0
0
0
0
0
0
0
0
0
0
0
0
0
0
0
0
0
0
0
0
0
0
0
0
0
0
0
0
0
0
0
0
0
0
0
0
0
0
0
0
0
0
0
0
0
0
0
0
0
0
0
0
0
0
0
0
0
0
0
0
0
0
0
0
0
0
0
0
0
0
0
0
0
0
0
0
0
0
0
0
0
0
0
0
0
0
0
0
0
0
0
0
0
0
0
0
0
0
0
0
0
0
0
0
0
0
0
0
0
0
0
0
0
0
0
0
0
0
0
0
0
0
0
0
0
0
0
0
0
0
0
0
0
0
0
0
0
0
0
0
0
0
0
0
0
0
0
0
0
0
0
0
0
0
0
0
0
0
0
0
0
0
0
0
0
0
0
0
0
0
0
0
0
0
0
0
0
0
0
0
0
0
0
0
0
0
0
0
0
0
0
0
0
0
0
0
0
0
0
0
0
0
0
0
0
0
0
0
0
0
0
0
0
0
0
0
0
0
0
0
0
0
0
0
0
0
0
0
0
0
0
0
0
0
0
0
0
0
0
0
0
0
0
0
0
0
0
0
0
0
0
0
0
0
0
0
0
0
0
0
0
0
0
0
0
0
0
0
0
0
0
0
0
0
0
0
0
0
0
0
0
0
0
0
0
0
0
0
0
0
0
0
0
0
0
0
0
0
0
0
0
0
0
0
0
0
0
0
0
0
0
0
0
0
0
0
0
0
0
0
0
0
0
0
0
0
0
0
0
0
0
0
0
0
0
0
0
0
0
0
0
0
0
0
0
0
0
0
0
0
0
0
0
0
0
0
0
0
0
0
0
0
0
0
0
0
0
0
0
0
0
0
0
0
0
0
0
0
0
0
0
0
0
0
0
0
0
0
0
0
0
0
0
0
0
0
0
0
0
0
0
0
0
0
0
0
0
0
0
0
0
0
0
0
0
0
0
0
0
0
0
0
0
0
0
0
0
0
0
0
0
0
0
0
0
0
0
0
0
0
0
0
0
0
0
0
0
0
0
0
0
0
0
0
0
0
0
0
0
0
0
0
0
0
0
0
0
0
0
0
0
0
0
0
0
0
0
0
0
0
0
0
0
0
0
0
0
0
0
0
0
0
0
0
0
0
0
0
0
0
0
0
0
0
0
0
0
0
0
0
0
0
0
0
0
0
0
0
0
0
0
0
0
0
0
0
0
0
0
0
0
0
0
0
0
0
0
0
0
0
0
0
0
0
0
0
0
0
0
0
0
0
0
0
0
0
0
0
0
0
0
0
0
0
0
0
0
0
0
0
0
0
0
0
0
0
0
0
0
0
0
0
0
0
0
0
0
0
0
0
0
0
0
0
0
0
0
0
0
0
0
0
0
0
0
0
0
0
0
0
0
0
0
0
0
0
0
0
0
0
0
0
0
0
0
0
0
0
0
0
0
0
0
0
0
0
0
0
0
0
0
0
0
0
0
0
0
0
0
0
0
0
0
0
0
0
0
0
0
0
0
0
0
0
0
0
0
0
0
0
0
0
0
0
0
0
0
0
0
0
0
0
0
0
0
0
0
0
0
0
0
0
0
0
0
0
0
0
0
0
0
0
0
0
0
0
0
0
0
0
0
0
0
0
0
0
0
0
0
0
0
0
0
0
0
0
0
0
0
0
0
0
0
0
0
0
0
0
0
0
0
0
0
0
0
0
0
0
0
0
0
0
0
0
0
0
0
0
0
0
0
0
0
0
0
0
0
0
0
0
0
0
0
0
0
0
0
0
0
0
0
0
0
0
0
0
0
0
0
0
0
0
0
0
0
0
0
0
0
0
0
0
0
0
0
0
0
0
0
0
0
0
0
0
0
0
0
0
0
0
0
0
0
0
0
0
0
0
0
0
0
0
0
0
0
0
0
0
0
0
0
0
0
0
0
0
0
0
0
0
0
0
0
0
0
0
0
0
0
0
0
0
0
0
0
0
0
0
0
0
0
0
0
0
0
0
0
0
0
0
0
0
0
0
0
0
0
0
0
0
0
0
0
0
0
0
0
0
0
0
0
0
0
0
0
0
0
0
0
0
0
0
0
0
0
0
0
0
0
0
0
0
0
0
0
0
0
0
0
0
0
0
0
0
0
0
0
0
0
0
0
0
0
0
0
0
0
0
0
0
0
0
0
0
0
0
0
0
0
0
0
0
0
0
0
0
0
0
0
0
0
0
0
0
0
0
0
0
0
0
0
0
0
0
0
0
0
0
0
0
0
0
0
0
0
0
0
0
0
0
0
0
0
0
0
0
0
0
0
0
0
0
0
0
0
0
0
0
0
0
0
0
0
0
0
0
0
0
0
0
0
0
0
0
0
0
0
0
0
0
0
0
0
0
0
0
0
0
0
0
0
0
0
0
0
0
0
0
0
0
0
0
0
0
0
0
0
0
0
0
0
0
0
0
0
0
0
0
0
0
0
0
0
0
0
0
0
0
0
0
0
0
0
0
0
0
0
0
0
0
0
0
0
0
0
0
0
0
0
0
0
0
0
0
0
0
0
0
0
0
0
0
0
0
0
0
0
0
0
0
0
0
0
0
0
0
0
0
0
0
0
0
0
0
0
0
0
0
0
0
0
0
0
0
0
0
0
0
0
0
0
0
0
0
0
0
0
0
0
0
0
0
0
0
0
0
0
0
0
0
0
0
0
0
0
0
0
0
0
0
0
0
0
0
0
0
0
4.94066e-324
0
4.94066e-324
0
4.94066e-324
0
4.94066e-324
0
0
0
0
0
0
0
0
0
0
0
0
0
0
0
0
0
0
0
0
0
0
0
0
0
0
0
0
0
0
0
0
0
0
0
0
0
0
0
0
0
0
0
0
0
0
0
0
0
0
0
0
0
0
0
0
0
0
0
0
0
0
0
0
0
0
0
0
0
0
0
0
0
0
0
0
0
0
0
0
0
0
0
0
0
0
0
0
0
0
9.88131e-324
-4.94066e-324
1.97626e-323
-4.94066e-324
3.45846e-323
-0
3.95253e-323
0
1.97626e-323
0
4.94066e-324
0
0
0
0
0
0
0
0
0
0
0
0
0
0
0
0
0
0
0
0
0
0
0
0
0
0
0
0
0
0
0
0
0
0
0
0
0
0
0
0
0
0
0
0
0
0
0
0
0
0
0
0
0
0
0
0
0
0
0
0
0
0
0
0
0
0
0
0
0
0
0
0
0
0
0
0
0
0
0
0
0
0
0
0
4.94066e-324
-4.94066e-324
1.4822e-323
-1.4822e-323
5.43472e-323
-1.97626e-323
1.33398e-322
-2.47033e-323
2.37152e-322
-1.4822e-323
2.42092e-322
-4.94066e-324
1.38338e-322
0
5.43472e-323
0
1.4822e-323
0
4.94066e-324
0
0
0
0
0
0
0
0
0
0
0
0
0
0
0
0
0
0
0
0
0
0
0
0
0
0
0
0
0
0
0
0
0
0
0
0
0
0
0
0
0
0
0
0
0
0
0
0
0
0
0
0
0
0
0
0
0
0
0
0
0
0
0
0
0
0
0
0
0
0
0
0
0
0
0
0
0
-4.94066e-324
9.88131e-324
-9.88131e-324
3.45846e-323
-2.96439e-323
1.13635e-322
-7.90505e-323
3.40905e-322
-1.33398e-322
8.34971e-322
-1.38338e-322
1.43773e-321
-7.90505e-323
1.47232e-321
-2.96439e-323
8.69556e-322
-9.88131e-324
3.40905e-322
-0
1.03754e-322
0
2.47033e-323
0
4.94066e-324
0
0
0
0
0
0
0
0
0
0
0
0
0
0
0
0
0
0
0
0
0
0
0
0
0
0
0
0
0
0
0
0
0
0
0
0
0
0
0
0
0
0
0
0
0
0
0
0
0
0
0
0
0
0
0
0
0
0
0
0
0
0
0
0
0
0
0
0
0
0
0
0
4.94066e-324
-4.94066e-324
1.4822e-323
-1.97626e-323
5.43472e-323
-5.92879e-323
2.02567e-322
-1.82804e-322
6.71929e-322
-4.496e-322
2.01085e-321
-7.75683e-322
4.89125e-321
-7.95446e-322
8.38429e-321
-4.64422e-322
8.65109e-321
-1.77864e-322
5.14816e-321
-5.43472e-323
2.04543e-321
-1.4822e-323
6.37345e-322
-4.94066e-324
1.58101e-322
0
3.95253e-323
0
9.88131e-324
0
0
0
0
0
0
0
0
0
0
0
0
0
0
0
0
0
0
0
0
0
0
0
0
0
0
0
0
0
0
0
0
0
0
0
0
0
0
0
0
0
0
0
0
0
0
0
0
0
0
0
0
0
0
0
0
0
0
0
0
0
0
0
0
0
0
0
0
4.94066e-324
-9.88131e-324
2.47033e-323
-2.96439e-323
9.38725e-323
-1.03754e-322
3.31024e-322
-3.45846e-322
1.16105e-321
-1.0326e-321
3.83889e-321
-2.51973e-321
1.13981e-320
-4.34778e-321
2.75837e-320
-4.48118e-321
4.72129e-320
-2.62843e-321
4.89076e-320
-1.02272e-321
2.94265e-320
-3.16202e-322
1.18724e-320
-9.38725e-323
3.76478e-321
-2.47033e-323
9.38725e-322
-4.94066e-324
2.56914e-322
-0
6.91692e-323
0
1.4822e-323
0
4.94066e-324
0
0
0
0
0
0
0
0
0
0
0
0
0
0
0
0
0
0
0
0
0
0
0
0
0
0
0
0
0
0
0
0
0
0
0
0
0
0
0
0
0
0
0
0
0
0
0
0
0
0
0
0
0
0
0
0
0
0
0
0
4.94066e-324
-4.94066e-324
9.88131e-324
-1.4822e-323
4.44659e-323
-4.94066e-323
1.4822e-322
-1.67982e-322
5.2865e-322
-5.78057e-322
1.85275e-321
-1.90215e-321
6.41297e-321
-5.63235e-321
2.11065e-320
-1.37004e-320
6.23857e-320
-2.35818e-320
1.50315e-319
-2.43723e-320
2.56904e-319
-1.44613e-320
2.67304e-319
-5.70646e-321
1.62617e-319
-1.76876e-321
6.65062e-320
-5.33591e-322
2.13634e-320
-1.5316e-322
5.3952e-321
-4.44659e-323
1.51678e-321
-9.88131e-324
4.10074e-322
-4.94066e-324
1.13635e-322
0
2.96439e-323
0
4.94066e-324
0
0
0
0
0
0
0
0
0
0
0
0
0
0
0
0
0
0
0
0
0
0
0
0
0
0
0
0
0
0
0
0
0
0
0
0
0
0
0
0
0
0
0
0
0
0
0
0
0
0
0
0
0
0
0
0
4.94066e-324
-4.94066e-324
1.97626e-323
-2.47033e-323
6.91692e-323
-7.90505e-323
2.37152e-322
-2.66795e-322
8.15208e-322
-9.14021e-322
2.8557e-321
-3.10273e-321
9.9653e-321
-1.01086e-320
3.42832e-320
-2.97872e-320
1.12301e-319
-7.20644e-320
3.30322e-319
-1.23754e-319
7.92664e-319
-1.28368e-319
1.35292e-318
-7.69408e-320
1.4141e-318
-3.07457e-320
8.69817e-319
-9.65898e-321
3.60554e-319
-2.93969e-321
1.17375e-319
-8.59674e-322
3.00244e-320
-2.47033e-322
8.52757e-321
-6.91692e-323
2.36163e-321
-1.97626e-323
6.47226e-322
-4.94066e-324
1.77864e-322
0
4.94066e-323
0
9.88131e-324
0
4.94066e-324
0
0
0
0
0
0
0
0
0
0
0
0
0
0
0
0
0
0
0
0
0
0
0
0
0
0
0
0
0
0
0
0
0
0
0
0
0
0
0
0
0
0
0
0
0
0
0
0
0
-4.94066e-324
9.88131e-324
-9.88131e-324
2.96439e-323
-3.45846e-323
1.03754e-322
-1.18576e-322
3.65609e-322
-4.05134e-322
1.24505e-321
-1.38338e-321
4.28849e-321
-4.74797e-321
1.4906e-320
-1.6072e-320
5.18571e-320
-5.20597e-320
1.77533e-319
-1.52577e-319
5.78753e-319
-3.67313e-319
1.69433e-318
-6.29351e-319
4.04999e-318
-6.5521e-319
6.90484e-318
-3.96764e-319
7.25109e-318
-1.60586e-319
4.50968e-318
-5.10716e-320
1.89477e-318
-1.57311e-320
6.2524e-319
-4.64916e-321
1.61974e-319
-1.3488e-321
4.65509e-320
-3.85371e-322
1.30433e-320
-1.13635e-322
3.6215e-321
-3.45846e-323
1.00789e-321
-9.88131e-324
2.81617e-322
-4.94066e-324
7.90505e-323
0
1.97626e-323
0
4.94066e-324
0
0
0
0
0
0
0
0
0
0
0
0
0
0
0
0
0
0
0
0
0
0
0
0
0
0
0
0
0
0
0
0
0
0
0
0
0
0
0
0
0
0
0
0
0
-4.94066e-324
9.88131e-324
-1.4822e-323
4.44659e-323
-5.43472e-323
1.58101e-322
-1.82804e-322
5.48413e-322
-6.12641e-322
1.86757e-321
-2.06519e-321
6.36357e-321
-7.02561e-321
2.18377e-320
-2.39819e-320
7.55426e-320
-8.07303e-320
2.61608e-319
-2.60106e-319
8.91502e-319
-7.58124e-319
2.89266e-318
-1.81631e-318
8.42934e-318
-3.10549e-318
2.00741e-317
-3.24529e-318
3.41942e-317
-1.98536e-318
3.60831e-317
-8.138e-319
2.26909e-317
-2.62082e-319
9.66381e-318
-8.16542e-320
3.23272e-318
-2.44118e-320
8.48271e-319
-7.14419e-321
2.46751e-319
-2.07508e-321
6.99399e-320
-6.0276e-322
1.96292e-320
-1.77864e-322
5.51871e-321
-5.43472e-323
1.56125e-321
-1.4822e-323
4.496e-322
-4.94066e-324
1.28457e-322
0
3.95253e-323
0
9.88131e-324
0
4.94066e-324
0
0
0
0
0
0
0
0
0
0
0
0
0
0
0
0
0
0
0
0
0
0
0
0
0
0
0
0
0
0
0
0
0
0
0
0
0
0
4.94066e-324
-4.94066e-324
1.4822e-323
-2.47033e-323
5.92879e-323
-7.90505e-323
2.2233e-322
-2.71736e-322
7.95446e-322
-9.09081e-322
2.73712e-321
-3.0385e-321
9.3082e-321
-1.02173e-320
3.15856e-320
-3.46291e-320
1.07914e-319
-1.17583e-319
3.71651e-319
-3.93795e-319
1.28131e-318
-1.26194e-318
4.34655e-318
-3.65822e-318
1.40378e-317
-8.72335e-318
4.07224e-317
-1.48861e-317
9.66368e-317
-1.56162e-317
1.645e-316
-9.65099e-318
1.74454e-316
-4.0062e-318
1.1093e-316
-1.30649e-318
4.78909e-317
-4.11804e-319
1.62424e-317
-1.24509e-319
4.31767e-318
-3.68277e-320
1.27146e-318
-1.08102e-320
3.64645e-319
-3.18178e-321
1.03517e-319
-9.43665e-322
2.94018e-320
-2.86558e-322
8.42382e-321
-8.89318e-323
2.44562e-321
-2.96439e-323
7.21336e-322
-9.88131e-324
2.17389e-322
-4.94066e-324
6.42285e-323
0
1.97626e-323
0
4.94066e-324
0
0
0
0
0
0
0
0
0
0
0
0
0
0
0
0
0
0
0
0
0
0
0
0
0
0
0
0
0
0
0
0
0
0
0
-9.88131e-324
1.97626e-323
-2.96439e-323
7.90505e-323
-1.08694e-322
2.96439e-322
-3.90312e-322
1.09683e-321
-1.31916e-321
3.87842e-321
-4.41201e-321
1.3325e-320
-1.46985e-320
4.51082e-320
-4.9204e-320
1.52409e-319
-1.65942e-319
5.18393e-319
-5.60542e-319
1.77736e-318
-1.86747e-318
6.10002e-318
-5.9522e-318
2.05984e-317
-1.7162e-317
6.62183e-317
-4.07379e-317
1.91247e-316
-6.93939e-317
4.52318e-316
-7.30834e-317
7.69603e-316
-4.56254e-317
8.20358e-316
-1.91791e-317
5.27478e-316
-6.33375e-318
2.30856e-316
-2.01985e-318
7.93903e-317
-6.17631e-319
2.13832e-317
-1.84677e-319
6.37611e-318
-5.47968e-320
1.8507e-318
-1.62943e-320
5.31496e-319
-4.89125e-321
1.52671e-319
-1.49208e-321
4.4209e-320
-4.64422e-322
1.29742e-320
-1.4822e-322
3.87347e-321
-4.44659e-323
1.17588e-321
-1.4822e-323
3.65609e-322
-4.94066e-324
1.13635e-322
0
3.45846e-323
0
9.88131e-324
0
4.94066e-324
0
0
0
0
0
0
0
0
0
0
0
0
0
0
0
0
0
0
0
0
0
0
0
0
0
0
0
0
0
0
0
-3.95253e-323
9.38725e-323
-1.4822e-322
3.80431e-322
-5.33591e-322
1.43773e-321
-1.85275e-321
5.25686e-321
-6.27463e-321
1.84682e-320
-2.08891e-320
6.31317e-320
-6.92433e-320
2.1275e-319
-2.30664e-319
7.15679e-319
-7.73974e-319
2.42335e-318
-2.60088e-318
8.27114e-318
-8.61905e-318
2.8258e-317
-2.7323e-317
9.49829e-317
-7.83605e-317
3.03944e-316
-1.8518e-316
8.74039e-316
-3.14922e-316
2.06058e-315
-3.32992e-316
3.50506e-315
-2.09986e-316
3.75589e-315
-8.93828e-317
2.44211e-315
-2.98914e-317
1.08358e-315
-9.64506e-318
3.77888e-316
-2.98314e-318
1.03147e-316
-9.01907e-319
3.11509e-317
-2.70511e-319
9.1534e-318
-8.12886e-320
2.66017e-318
-2.46489e-320
7.7299e-319
-7.58391e-321
2.26336e-319
-2.37152e-321
6.71485e-320
-7.5592e-322
2.02567e-320
-2.47033e-322
6.22523e-321
-8.39912e-323
1.95156e-321
-2.96439e-323
6.22523e-322
-9.88131e-324
1.97626e-322
-4.94066e-324
6.42285e-323
0
1.97626e-323
0
4.94066e-324
0
0
0
0
0
0
0
0
0
0
0
0
0
0
0
0
0
0
0
0
0
0
0
0
0
0
0
0
0
-1.82804e-322
4.5454e-322
-6.91692e-322
1.79346e-321
-2.49503e-321
6.77364e-321
-8.64615e-321
2.45353e-320
-2.91054e-320
8.56858e-320
-9.63873e-320
2.91435e-319
-3.17926e-319
9.77632e-319
-1.05374e-318
3.27396e-318
-3.51742e-318
1.10356e-317
-1.17578e-317
3.7493e-317
-3.87554e-317
1.27503e-316
-1.22189e-316
4.26598e-316
-3.48574e-316
1.35887e-315
-8.20161e-316
3.89107e-315
-1.39269e-315
9.14537e-315
-1.47858e-315
1.5555e-314
-9.4177e-316
1.67582e-314
-4.05909e-316
1.10192e-314
-1.37461e-316
4.95709e-315
-4.48815e-317
1.75332e-315
-1.40426e-317
4.85095e-316
-4.29356e-318
1.48414e-316
-1.30204e-318
4.41617e-317
-3.95509e-319
1.29924e-317
-1.21199e-319
3.82058e-318
-3.76626e-320
1.13164e-318
-1.1907e-320
3.39468e-319
-3.83395e-321
1.03502e-319
-1.25987e-321
3.2139e-320
-4.19956e-322
1.01679e-320
-1.43279e-322
3.27566e-321
-4.94066e-323
1.07212e-321
-1.4822e-323
3.55727e-322
-4.94066e-324
1.18576e-322
-0
3.95253e-323
0
1.4822e-323
0
4.94066e-324
0
0
0
0
0
0
0
0
0
0
0
0
0
0
0
0
0
0
0
0
0
0
0
0
0
-8.59674e-322
2.15413e-321
-3.19166e-321
8.32995e-321
-1.14179e-320
3.10817e-320
-3.93375e-320
1.11688e-319
-1.31708e-319
3.87718e-319
-4.33923e-319
1.31213e-318
-1.42402e-318
4.38116e-318
-4.69547e-318
1.46049e-317
-1.55913e-317
4.90023e-317
-5.18387e-317
1.6571e-316
-1.69942e-316
5.60908e-316
-5.32868e-316
1.86796e-315
-1.5121e-315
5.92297e-315
-3.54266e-315
1.68895e-314
-6.00731e-315
3.95805e-314
-6.404e-315
6.73273e-314
-4.11976e-315
7.29357e-314
-1.79784e-315
4.8501e-314
-6.16541e-316
2.21228e-314
-2.03705e-316
7.93716e-315
-6.44837e-317
2.22633e-315
-1.99431e-317
6.90211e-316
-6.11638e-318
2.08044e-316
-1.87855e-318
6.19838e-317
-5.81876e-319
1.84526e-317
-1.82686e-319
5.53097e-318
-5.83343e-320
1.67826e-318
-1.89771e-320
5.17356e-319
-6.2944e-321
1.6235e-319
-2.12448e-321
5.18917e-320
-7.31217e-322
1.68872e-320
-2.56914e-322
5.58788e-321
-8.89318e-323
1.87745e-321
-3.45846e-323
6.42285e-322
-9.88131e-324
2.2233e-322
-4.94066e-324
7.90505e-323
0
2.47033e-323
0
4.94066e-324
0
0
0
0
0
0
0
0
0
0
0
0
0
0
0
0
0
0
0
0
0
0
0
-3.92288e-321
9.98507e-321
-1.44168e-320
3.78355e-320
-5.10864e-320
1.39391e-319
-1.74795e-319
4.96546e-319
-5.82009e-319
1.71296e-318
-1.90759e-318
5.76717e-318
-6.22799e-318
1.9165e-317
-2.04285e-317
6.35906e-317
-6.74703e-317
2.12362e-316
-2.23111e-316
7.14754e-316
-7.27403e-316
2.40796e-315
-2.26825e-315
7.98153e-315
-6.40258e-315
2.51926e-314
-1.49375e-314
7.15417e-314
-2.5297e-314
1.67191e-313
-2.70794e-314
2.84468e-313
-1.75935e-314
3.09905e-313
-7.77323e-315
2.08423e-313
-2.69943e-315
9.64002e-314
-9.02565e-316
3.50878e-314
-2.8911e-316
9.97983e-315
-9.04632e-317
3.13609e-315
-2.80656e-317
9.57899e-316
-8.71778e-318
2.89122e-316
-2.7301e-318
8.71684e-317
-8.6627e-319
2.645e-317
-2.79429e-319
8.12089e-318
-9.17974e-320
2.53186e-318
-3.07309e-320
8.03168e-319
-1.04791e-320
2.59414e-319
-3.63632e-321
8.52856e-320
-1.28457e-321
2.85125e-320
-4.59481e-322
9.68369e-321
-1.67982e-322
3.33494e-321
-5.92879e-323
1.16599e-321
-2.47033e-323
4.10074e-322
-9.88131e-324
1.4822e-322
-4.94066e-324
4.94066e-323
0
1.4822e-323
0
4.94066e-324
0
0
0
0
0
0
0
0
0
0
0
0
0
0
0
0
0
0
0
-1.75937e-320
4.55232e-320
-6.37048e-320
1.68536e-319
-2.23535e-319
6.11792e-319
-7.59453e-319
2.15852e-318
-2.51412e-318
7.39633e-318
-8.19659e-318
2.47677e-317
-2.6621e-317
8.1906e-317
-8.6856e-317
2.70485e-316
-2.85308e-316
8.99002e-316
-9.38256e-316
3.01135e-315
-3.04192e-315
1.00966e-314
-9.43279e-315
3.33085e-314
-2.64852e-314
1.04653e-313
-6.1535e-314
2.95984e-313
-1.04086e-313
6.89853e-313
-1.11885e-313
1.17424e-312
-7.34087e-314
1.28661e-312
-3.28354e-314
8.75169e-313
-1.15469e-314
4.10489e-313
-3.90721e-315
1.51598e-313
-1.26665e-315
4.37328e-314
-4.01067e-316
1.39343e-314
-1.25896e-316
4.31439e-315
-3.95582e-317
1.3197e-315
-1.25275e-317
4.03094e-316
-4.01812e-318
1.23864e-316
-1.3096e-318
3.84933e-317
-4.34531e-319
1.21412e-317
-1.46881e-319
3.8945e-318
-5.05676e-320
1.27144e-318
-1.77172e-320
4.22392e-319
-6.31416e-321
1.42681e-319
-2.28258e-321
4.8957e-320
-8.39912e-322
1.70453e-320
-3.11261e-322
6.01772e-321
-1.18576e-322
2.14919e-321
-4.44659e-323
7.80624e-322
-1.4822e-323
2.81617e-322
-4.94066e-324
1.03754e-322
-0
3.45846e-323
0
1.4822e-323
0
4.94066e-324
0
0
0
0
0
0
0
0
0
0
0
0
0
0
0
-7.75683e-320
2.04504e-319
-2.7602e-319
7.37442e-319
-9.57781e-319
2.63143e-318
-3.22917e-318
9.18402e-318
-1.06256e-317
3.12399e-317
-3.44543e-317
1.04021e-316
-1.11308e-316
3.42279e-316
-3.61206e-316
1.1249e-315
-1.17997e-315
3.72081e-315
-3.85867e-315
1.2403e-314
-1.24395e-314
4.13843e-314
-3.83568e-314
1.35874e-313
-1.07126e-313
4.24949e-313
-2.47872e-313
1.19701e-312
-4.18795e-313
2.78269e-312
-4.52063e-313
4.73919e-312
-2.99507e-313
5.22321e-312
-1.3562e-313
3.5936e-312
-4.82924e-314
1.70945e-312
-1.65392e-314
6.40645e-313
-5.42719e-315
1.87499e-313
-1.73923e-315
6.05931e-314
-5.52482e-316
1.90244e-314
-1.75637e-316
5.89942e-315
-5.62561e-317
1.82616e-315
-1.82421e-317
5.68447e-316
-6.00821e-318
1.78864e-316
-2.01375e-318
5.70899e-317
-6.87359e-319
1.85224e-317
-2.38905e-319
6.11377e-318
-8.45e-320
2.05285e-318
-3.039e-320
7.00758e-319
-1.11017e-320
2.42996e-319
-4.11557e-321
8.55079e-320
-1.55137e-321
3.05086e-320
-5.92879e-322
1.10275e-320
-2.2727e-322
4.03652e-321
-8.89318e-323
1.49702e-321
-3.45846e-323
5.58294e-322
-1.4822e-323
2.12448e-322
-4.94066e-324
7.90505e-323
-0
2.96439e-323
0
9.88131e-324
0
4.94066e-324
0
0
0
0
0
0
0
0
0
0
0
-3.36627e-319
9.07307e-319
-1.17403e-318
3.17484e-318
-4.02265e-318
1.11061e-317
-1.34494e-317
3.82853e-317
-4.39757e-317
1.29186e-316
-1.41802e-316
4.27595e-316
-4.55636e-316
1.39978e-315
-1.47052e-315
4.57786e-315
-4.77695e-315
1.50681e-314
-1.55325e-314
4.99818e-314
-4.97856e-314
1.65952e-313
-1.52637e-313
5.4223e-313
-4.24024e-313
1.688e-312
-9.7711e-313
4.73574e-312
-1.64909e-312
1.09817e-311
-1.78756e-312
1.87156e-311
-1.19582e-312
2.07502e-311
-5.48109e-313
1.44406e-311
-1.97631e-313
6.96727e-312
-6.85089e-314
2.65016e-312
-2.27579e-314
7.87116e-313
-7.38237e-315
2.58074e-313
-2.37346e-315
8.21907e-314
-7.63492e-316
2.58466e-314
-2.47364e-316
8.11082e-315
-8.11033e-317
2.55833e-315
-2.69969e-317
8.15279e-316
-9.14045e-318
2.63407e-316
-3.15139e-318
8.64567e-317
-1.10622e-318
2.88646e-317
-3.95119e-319
9.80093e-318
-1.43496e-319
3.3826e-318
-5.29441e-320
1.18571e-318
-1.98269e-320
4.21749e-319
-7.5345e-321
1.52113e-319
-2.90511e-321
5.55972e-320
-1.13635e-321
2.05877e-320
-4.496e-322
7.72225e-321
-1.82804e-322
2.93475e-321
-7.41098e-323
1.12647e-321
-2.96439e-323
4.39718e-322
-1.4822e-323
1.72923e-322
-4.94066e-324
6.91692e-323
-0
2.47033e-323
0
9.88131e-324
0
4.94066e-324
0
0
0
0
0
0
0
-1.44065e-318
3.98374e-318
-4.90903e-318
1.34729e-317
-1.65785e-317
4.60575e-317
-5.49194e-317
1.56533e-316
-1.7837e-316
5.23493e-316
-5.71883e-316
1.72175e-315
-1.82752e-315
5.60651e-315
-5.86548e-315
1.82444e-314
-1.89459e-314
5.97546e-314
-6.12476e-314
1.97222e-313
-1.95169e-313
6.51569e-313
-5.94907e-313
2.11851e-312
-1.64375e-312
6.56438e-312
-3.77234e-312
1.83429e-311
-6.35995e-312
4.2432e-311
-6.92276e-312
7.23722e-311
-4.67566e-312
8.07267e-311
-2.16917e-312
5.68291e-311
-7.91976e-313
2.78121e-311
-2.77893e-313
1.07394e-311
-9.34593e-314
3.23777e-312
-3.06908e-314
1.07736e-312
-9.98753e-315
3.48148e-313
-3.25117e-315
1.11059e-313
-1.06557e-315
3.53405e-314
-3.53245e-316
1.12987e-314
-1.18871e-316
3.64733e-315
-4.06763e-317
1.1934e-315
-1.41673e-317
3.96541e-316
-5.02257e-318
1.3395e-316
-1.81162e-318
4.60023e-317
-6.64375e-319
1.60549e-317
-2.47537e-319
5.69005e-318
-9.36353e-320
2.04629e-318
-3.59433e-320
7.46207e-319
-1.39969e-320
2.75783e-319
-5.52859e-321
1.03265e-319
-2.21341e-321
3.91695e-320
-8.99199e-322
1.50542e-320
-3.70549e-322
5.85962e-321
-1.5316e-322
2.31223e-321
-6.42285e-323
9.23903e-322
-2.96439e-323
3.7549e-322
-9.88131e-324
1.5316e-322
-4.94066e-324
6.42285e-323
0
2.47033e-323
0
9.88131e-324
0
4.94066e-324
0
0
0
-6.09147e-318
1.73433e-317
-2.0208e-317
5.64612e-317
-6.71186e-317
1.8795e-316
-2.20066e-316
6.28378e-316
-7.0965e-316
2.08056e-315
-2.26186e-315
6.79643e-315
-7.18789e-315
2.20098e-314
-2.29406e-314
7.12599e-314
-7.36744e-314
2.32222e-313
-2.36774e-313
7.62583e-313
-7.50016e-313
2.50666e-312
-2.27275e-312
8.1097e-312
-6.24552e-312
2.50104e-311
-1.42744e-311
6.96066e-311
-2.40408e-311
1.60637e-310
-2.62768e-311
2.74228e-310
-1.79166e-311
3.07766e-310
-8.41218e-312
2.19173e-310
-3.10997e-312
1.08811e-310
-1.10457e-312
4.26625e-311
-3.76116e-313
1.30594e-311
-1.2504e-313
4.41136e-312
-4.11884e-314
1.44684e-312
-1.35678e-314
4.68317e-313
-4.49875e-315
1.51151e-313
-1.50864e-315
4.89956e-314
-5.13282e-316
1.6033e-314
-1.77506e-316
5.31443e-315
-6.24561e-317
1.78799e-315
-2.23629e-317
6.11233e-316
-8.14587e-318
2.12365e-316
-3.01682e-318
7.49643e-317
-1.13521e-318
2.68695e-317
-4.33765e-319
9.77221e-318
-1.68219e-319
3.60396e-318
-6.619e-320
1.34713e-318
-2.64226e-320
5.10217e-319
-1.06965e-320
1.95774e-319
-4.39224e-321
7.61059e-320
-1.83298e-321
2.99799e-320
-7.75683e-322
1.19663e-320
-3.31024e-322
4.84184e-321
-1.43279e-322
1.98614e-321
-6.42285e-323
8.2509e-322
-2.96439e-323
3.45846e-322
-1.4822e-323
1.4822e-322
-4.94066e-324
6.42285e-323
-4.94066e-324
2.96439e-323
0
9.88131e-324
4.94066e-324
-2.54961e-317
7.49905e-317
-8.20242e-317
2.34109e-316
-2.67242e-316
7.5588e-316
-8.66122e-316
2.47952e-315
-2.77159e-315
8.11716e-315
-8.7801e-315
2.6321e-314
-2.77445e-314
8.4753e-314
-8.80471e-314
2.72982e-313
-2.81121e-313
8.85067e-313
-8.98081e-313
2.89156e-312
-2.82764e-312
9.45606e-312
-8.51734e-312
3.04387e-311
-2.32766e-311
9.34263e-311
-5.298e-311
2.58968e-310
-8.91345e-311
5.9625e-310
-9.78243e-311
1.01887e-309
-6.73283e-311
1.15059e-309
-3.19901e-311
8.28935e-310
-1.19751e-311
4.17516e-310
-4.30501e-312
1.66251e-310
-1.48417e-312
5.16848e-311
-4.99513e-313
1.77279e-311
-1.66537e-313
5.90286e-312
-5.55228e-314
1.93904e-312
-1.86304e-314
6.35043e-313
-6.31959e-315
2.08829e-313
-2.17374e-315
6.92859e-314
-7.59692e-316
2.32709e-314
-2.70042e-316
7.92912e-315
-9.76613e-317
2.74396e-315
-3.59273e-317
9.6476e-316
-1.34378e-317
3.44559e-316
-5.10724e-318
1.24936e-316
-1.97131e-318
4.59645e-317
-7.72398e-319
1.71483e-317
-3.07126e-319
6.48461e-318
-1.23907e-319
2.48477e-318
-5.07208e-320
9.64663e-319
-2.1062e-320
3.79447e-319
-8.87836e-321
1.51238e-319
-3.79442e-321
6.10962e-320
-1.65018e-321
2.50195e-320
-7.26276e-322
1.03902e-320
-3.26083e-322
4.37248e-321
-1.4822e-322
1.86757e-321
-6.91692e-323
8.10268e-322
-2.96439e-323
3.55727e-322
-1.4822e-323
1.58101e-322
-4.94066e-324
6.91692e-323
2.96439e-323
-1.05835e-316
3.22482e-316
-3.28824e-316
9.62226e-316
-1.04775e-315
3.0008e-315
-3.35126e-315
9.62858e-315
-1.06348e-314
3.11155e-314
-3.34765e-314
1.00086e-313
-1.05177e-313
3.20351e-313
-3.31868e-313
1.02638e-312
-1.05337e-312
3.31059e-312
-3.3448e-312
1.07598e-311
-1.04665e-311
3.50039e-311
-3.13355e-311
1.12099e-310
-8.51554e-311
3.42407e-310
-1.93012e-310
9.45266e-310
-3.24378e-310
2.17136e-309
-3.57439e-310
3.71429e-309
-2.48293e-310
4.22084e-309
-1.19373e-310
3.07643e-309
-4.52437e-311
1.57224e-309
-1.64618e-311
6.35943e-310
-5.74575e-312
2.00834e-310
-1.95741e-312
6.99646e-311
-6.60619e-313
2.36543e-311
-2.22946e-313
7.88938e-312
-7.56946e-314
2.62302e-312
-2.59686e-314
8.75209e-313
-9.03026e-315
2.94473e-313
-3.18934e-315
1.00245e-313
-1.14534e-315
3.46026e-314
-4.18382e-316
1.21258e-314
-1.55446e-316
4.3158e-315
-5.87201e-317
1.55995e-315
-2.25414e-317
5.72378e-316
-8.78925e-318
2.1308e-316
-3.47954e-318
8.0439e-317
-1.39819e-318
3.07804e-317
-5.70172e-319
1.19357e-317
-2.35946e-319
4.68952e-318
-9.90799e-320
1.86688e-318
-4.22278e-320
7.53109e-319
-1.82656e-320
3.07907e-319
-8.01869e-321
1.27617e-319
-3.57704e-321
5.36308e-320
-1.61559e-321
2.28555e-320
-7.41098e-322
9.88131e-321
-3.45846e-322
4.3379e-321
-1.63042e-322
1.92686e-321
-7.90505e-323
8.69556e-322
-3.45846e-323
3.95253e-322
1.67982e-322
-4.36482e-316
1.38055e-315
-1.30417e-315
3.92728e-315
-4.05e-315
1.17796e-314
-1.27601e-314
3.68427e-314
-4.01226e-314
1.173e-313
-1.25463e-313
3.73959e-313
-3.91881e-313
1.18944e-312
-1.22937e-312
3.79029e-312
-3.8789e-312
1.21618e-311
-1.22413e-311
3.93193e-311
-3.80661e-311
1.27239e-310
-1.13259e-310
4.05356e-310
-3.06032e-310
1.23208e-309
-6.90699e-310
3.38738e-309
-1.1595e-309
7.76318e-309
-1.28272e-309
1.32942e-308
-8.99169e-310
1.52029e-308
-4.37381e-310
1.12108e-308
-1.67829e-310
5.81406e-309
-6.17949e-311
2.38931e-309
-2.18328e-311
7.66664e-310
-7.52871e-312
2.71311e-310
-2.57239e-312
9.31702e-311
-8.78596e-313
3.15657e-311
-3.01782e-313
1.06559e-311
-1.04701e-313
3.60837e-312
-3.68054e-314
1.23152e-312
-1.31361e-314
4.25054e-313
-4.76568e-315
1.48687e-313
-1.75833e-315
5.27807e-314
-6.59774e-316
1.90228e-314
-2.51704e-316
6.96099e-315
-9.75904e-317
2.58536e-315
-3.84384e-317
9.7416e-316
-1.53747e-317
3.72219e-316
-6.24331e-318
1.44167e-316
-2.57345e-318
5.65872e-317
-1.07665e-318
2.25062e-317
-4.57179e-319
9.0701e-318
-1.97048e-319
3.70411e-318
-8.62095e-320
1.53315e-318
-3.82901e-320
6.43278e-319
-1.72676e-320
2.73663e-319
-7.90505e-321
1.18067e-319
-3.67585e-321
5.16694e-320
-1.73417e-321
2.29444e-320
-8.3003e-322
1.03359e-320
-4.00193e-322
4.72327e-321
-1.82804e-322
2.17883e-321
9.38725e-322
-1.79129e-315
5.88683e-315
-5.12644e-315
1.59419e-314
-1.54559e-314
4.5803e-314
-4.78576e-314
1.39097e-313
-1.48958e-313
4.35305e-313
-4.62543e-313
1.37403e-312
-1.43615e-312
4.34122e-312
-4.47908e-312
1.37572e-311
-1.40475e-311
4.39087e-311
-4.40566e-311
1.41203e-310
-1.3613e-310
4.54485e-310
-4.02474e-310
1.44022e-309
-1.08118e-309
4.35563e-309
-2.42958e-309
1.19251e-308
-4.07375e-309
2.72666e-308
-4.52398e-309
4.67462e-308
-3.19972e-309
5.37985e-308
-1.57454e-309
4.0138e-308
-6.11589e-310
2.11261e-308
-2.27841e-310
8.82244e-309
-8.1464e-311
2.87687e-309
-2.844e-311
1.03431e-309
-9.83516e-312
3.60981e-310
-3.39887e-312
1.2425e-310
-1.18087e-312
4.2596e-311
-4.14262e-313
1.46424e-311
-1.47195e-313
5.07083e-312
-5.30833e-314
1.77506e-312
-1.94534e-314
6.29467e-313
-7.24869e-315
2.26425e-313
-2.74659e-315
8.26653e-314
-1.05809e-315
3.06341e-314
-4.14296e-316
1.15204e-314
-1.64819e-316
4.39495e-315
-6.66004e-317
1.70015e-315
-2.73284e-317
6.66698e-316
-1.13855e-317
2.64956e-316
-4.81556e-318
1.06702e-316
-2.06772e-318
4.35427e-317
-9.01349e-319
1.80067e-317
-3.98904e-319
7.54715e-318
-1.79247e-319
3.20656e-318
-8.17777e-320
1.38128e-318
-3.78899e-320
6.03392e-319
-1.78259e-320
2.67349e-319
-8.51769e-321
1.20172e-319
-4.13039e-321
5.48067e-320
-2.02567e-321
2.53604e-320
-9.33784e-322
1.18477e-320
5.20251e-321
-7.32473e-315
2.50054e-314
-2.00065e-314
6.44435e-314
-5.83176e-314
1.76715e-313
-1.7699e-313
5.18893e-313
-5.44642e-313
1.59184e-312
-1.67869e-312
4.96859e-312
-5.18048e-312
1.55862e-311
-1.60621e-311
4.9111e-311
-5.00698e-311
1.55906e-310
-1.56043e-310
4.98665e-310
-4.79037e-310
1.59629e-309
-1.40717e-309
5.03114e-309
-3.75764e-309
1.5138e-308
-8.40652e-309
4.12695e-308
-1.40773e-308
9.41407e-308
-1.56912e-308
1.61582e-307
-1.11957e-308
1.87147e-307
-5.5726e-309
1.41272e-307
-2.19074e-309
7.54741e-308
-8.25459e-310
3.20342e-308
-2.98728e-310
1.06163e-308
-1.05547e-310
3.87994e-309
-3.69312e-311
1.37637e-309
-1.29103e-311
4.81373e-310
-4.53599e-312
1.67633e-310
-1.60868e-312
5.85133e-311
-5.77639e-313
2.05682e-311
-2.10445e-313
7.30486e-312
-7.78869e-314
2.62698e-312
-2.93036e-314
9.57877e-313
-1.12097e-314
3.54369e-313
-4.35973e-315
1.33035e-313
-1.72353e-315
5.06736e-314
-6.92396e-316
1.95782e-314
-2.82592e-316
7.67005e-315
-1.17151e-316
3.04601e-315
-4.93227e-317
1.22599e-315
-2.10876e-317
5.00047e-316
-9.15522e-318
2.06681e-316
-4.03617e-318
8.65721e-317
-1.80691e-318
3.6753e-317
-8.21443e-319
1.58165e-317
-3.7923e-319
6.90091e-318
-1.77794e-319
3.05319e-318
-8.46532e-320
1.37003e-318
-4.09383e-320
6.23605e-319
-2.00986e-320
2.87976e-319
-9.98013e-321
1.34915e-319
-4.68374e-321
6.38481e-320
2.85372e-320
-2.98702e-314
1.05774e-313
-7.76469e-314
2.59656e-313
-2.17887e-313
6.77626e-313
-6.46136e-313
1.9155e-312
-1.96287e-312
5.7422e-312
-6.00195e-312
1.76963e-311
-1.84069e-311
5.50849e-311
-5.67328e-311
1.72548e-310
-1.75773e-310
5.44786e-310
-5.44312e-310
1.73299e-309
-1.65999e-309
5.51684e-309
-4.84413e-309
1.72919e-308
-1.28568e-308
5.17572e-308
-2.86316e-308
1.40489e-307
-4.78786e-308
3.19702e-307
-5.35576e-308
5.4936e-307
-3.85426e-308
6.40349e-307
-1.94016e-308
4.89093e-307
-7.71795e-309
2.65252e-307
-2.9403e-309
1.14443e-307
-1.07691e-309
3.85512e-308
-3.8494e-310
1.43275e-308
-1.36234e-310
5.16674e-309
-4.81592e-311
1.83651e-309
-1.7106e-311
6.49819e-310
-6.13097e-312
2.30396e-310
-2.22404e-312
8.2231e-311
-8.18264e-313
2.96402e-311
-3.05741e-313
1.08134e-311
-1.16103e-313
3.99827e-312
-4.48221e-314
1.4994e-312
-1.75922e-314
5.70434e-313
-7.01905e-315
2.20146e-313
-2.84634e-315
8.61674e-314
-1.17291e-315
3.41968e-314
-4.91074e-316
1.37573e-314
-2.08872e-316
5.60937e-315
-9.02463e-317
2.31784e-315
-3.96074e-317
9.70591e-316
-1.76568e-317
4.11902e-316
-7.99519e-318
1.77173e-316
-3.67727e-318
7.72518e-317
-1.71789e-318
3.41499e-317
-8.15149e-319
1.53076e-317