/*--------------------------------*- C++ -*----------------------------------*\
  =========                 |
  \\      /  F ield         | OpenFOAM: The Open Source CFD Toolbox
   \\    /   O peration     | Website:  https://openfoam.org
    \\  /    A nd           | Version:  9
     \\/     M anipulation  |
\*---------------------------------------------------------------------------*/
FoamFile
{
    format      ascii;
    class       volScalarField;
    location    "0.1";
    object      p;
}
// * * * * * * * * * * * * * * * * * * * * * * * * * * * * * * * * * * * * * //

dimensions      [1 -1 -2 0 0 0 0];

internalField   nonuniform List<scalar> 
5000
(
1.83938
1.83823
1.8376
1.83756
1.83804
1.8389
1.83998
1.84113
1.84222
1.84311
1.84373
1.84396
1.84353
1.84177
1.8378
1.83325
1.83383
1.83883
1.84283
1.84486
1.84568
1.84601
1.84614
1.84618
1.84616
1.84611
1.84603
1.84595
1.84585
1.84576
1.84566
1.84557
1.84548
1.8454
1.84532
1.84524
1.84517
1.84511
1.84505
1.845
1.84495
1.8449
1.84486
1.84481
1.84476
1.84471
1.84466
1.8446
1.84454
1.84445
1.84365
1.84279
1.84225
1.84213
1.84239
1.84294
1.84368
1.84449
1.84528
1.84593
1.84635
1.84647
1.84614
1.84503
1.84269
1.83974
1.83923
1.84144
1.84389
1.84563
1.84653
1.84693
1.84707
1.84705
1.84694
1.84678
1.84658
1.84635
1.84612
1.84589
1.84565
1.84543
1.84521
1.84501
1.84482
1.84464
1.84446
1.8443
1.84414
1.84399
1.84385
1.84371
1.84357
1.84343
1.84329
1.84315
1.843
1.84286
1.84271
1.84254
1.84638
1.84575
1.84537
1.84529
1.8455
1.84592
1.8465
1.84713
1.84772
1.84818
1.84844
1.8484
1.84797
1.84699
1.84529
1.84331
1.84294
1.84423
1.84567
1.84679
1.84738
1.84762
1.84765
1.84752
1.84731
1.84704
1.84672
1.84639
1.84604
1.84569
1.84535
1.84502
1.8447
1.84439
1.84409
1.8438
1.84352
1.84325
1.843
1.84275
1.84251
1.84227
1.84205
1.84183
1.84161
1.8414
1.84119
1.84099
1.8408
1.84059
1.84892
1.84848
1.84823
1.8482
1.84839
1.84874
1.8492
1.8497
1.85014
1.85046
1.85059
1.85045
1.84997
1.84907
1.84771
1.84627
1.84596
1.84672
1.84754
1.84815
1.84842
1.84845
1.84831
1.84805
1.84771
1.84731
1.84688
1.84643
1.84597
1.84551
1.84506
1.84461
1.84418
1.84376
1.84335
1.84295
1.84257
1.84221
1.84185
1.84151
1.84118
1.84086
1.84055
1.84025
1.83997
1.83969
1.83942
1.83916
1.83891
1.83866
1.85166
1.85138
1.85124
1.85126
1.85143
1.85173
1.85209
1.85246
1.85278
1.85298
1.853
1.85279
1.85228
1.85147
1.8504
1.84929
1.84891
1.84919
1.84951
1.84971
1.84969
1.8495
1.84918
1.84876
1.84827
1.84774
1.84718
1.8466
1.84602
1.84544
1.84486
1.84429
1.84374
1.8432
1.84268
1.84218
1.84169
1.84122
1.84076
1.84032
1.8399
1.8395
1.8391
1.83873
1.83836
1.83801
1.83768
1.83735
1.83704
1.83672
1.85447
1.85434
1.8543
1.85437
1.85454
1.85479
1.85507
1.85535
1.85556
1.85566
1.85559
1.85531
1.8548
1.85406
1.85317
1.85225
1.85177
1.85167
1.85157
1.85141
1.8511
1.8507
1.85019
1.8496
1.84896
1.84827
1.84757
1.84685
1.84613
1.84542
1.84471
1.84402
1.84335
1.84269
1.84205
1.84143
1.84084
1.84026
1.8397
1.83917
1.83865
1.83815
1.83768
1.83722
1.83678
1.83635
1.83594
1.83555
1.83518
1.8348
1.85723
1.85723
1.85729
1.8574
1.85758
1.85781
1.85804
1.85824
1.85837
1.85838
1.85824
1.85792
1.85739
1.85668
1.85588
1.85505
1.85446
1.85407
1.85365
1.85317
1.85259
1.85197
1.85126
1.8505
1.84969
1.84885
1.848
1.84714
1.84628
1.84543
1.84459
1.84377
1.84297
1.84219
1.84143
1.8407
1.83999
1.83931
1.83865
1.83801
1.8374
1.83682
1.83625
1.83571
1.83519
1.8347
1.83422
1.83376
1.83332
1.83287
1.85995
1.86006
1.8602
1.86037
1.86057
1.86078
1.86098
1.86113
1.8612
1.86115
1.86095
1.86058
1.86004
1.85933
1.85855
1.85772
1.85702
1.85641
1.85573
1.85496
1.85413
1.85329
1.8524
1.85145
1.85047
1.84947
1.84847
1.84746
1.84645
1.84546
1.84449
1.84354
1.84261
1.84171
1.84083
1.83998
1.83916
1.83837
1.83761
1.83687
1.83617
1.83549
1.83484
1.83422
1.83362
1.83305
1.83249
1.83197
1.83146
1.83094
1.86266
1.86288
1.8631
1.86333
1.86355
1.86376
1.86394
1.86405
1.86407
1.86397
1.86372
1.86331
1.86274
1.86202
1.86122
1.86035
1.85954
1.85874
1.85783
1.85681
1.85574
1.85469
1.8536
1.85247
1.85132
1.85016
1.84899
1.84783
1.84668
1.84554
1.84443
1.84334
1.84228
1.84125
1.84025
1.83929
1.83835
1.83745
1.83659
1.83575
1.83495
1.83418
1.83345
1.83274
1.83206
1.8314
1.83078
1.83018
1.8296
1.82902
1.86538
1.86571
1.86601
1.86629
1.86655
1.86677
1.86693
1.86702
1.867
1.86686
1.86657
1.86612
1.86551
1.86476
1.86392
1.863
1.86207
1.86109
1.85997
1.85871
1.85741
1.85616
1.85488
1.85357
1.85224
1.85091
1.84957
1.84825
1.84695
1.84567
1.84441
1.84319
1.84199
1.84083
1.83971
1.83862
1.83758
1.83656
1.83559
1.83466
1.83376
1.83289
1.83206
1.83127
1.8305
1.82977
1.82907
1.82839
1.82775
1.82709
1.86813
1.86855
1.86893
1.86927
1.86956
1.8698
1.86997
1.87004
1.86999
1.86982
1.86949
1.869
1.86835
1.86756
1.86666
1.86567
1.86462
1.86347
1.86215
1.86066
1.85915
1.85771
1.85623
1.85474
1.85323
1.85172
1.85022
1.84874
1.84728
1.84584
1.84444
1.84307
1.84174
1.84045
1.8392
1.83799
1.83683
1.8357
1.83462
1.83358
1.83258
1.83162
1.83069
1.82981
1.82896
1.82814
1.82736
1.82661
1.82589
1.82516
1.87089
1.87141
1.87187
1.87227
1.87261
1.87287
1.87304
1.8731
1.87304
1.87283
1.87247
1.87195
1.87125
1.87041
1.86944
1.86837
1.8672
1.86589
1.86438
1.86268
1.86095
1.85932
1.85766
1.85597
1.85429
1.8526
1.85093
1.84928
1.84766
1.84607
1.84452
1.843
1.84153
1.84011
1.83873
1.83739
1.83611
1.83487
1.83367
1.83252
1.83142
1.83036
1.82934
1.82836
1.82743
1.82653
1.82566
1.82484
1.82404
1.82324
1.87368
1.87429
1.87483
1.8753
1.87568
1.87597
1.87615
1.87622
1.87615
1.87592
1.87553
1.87496
1.87422
1.87332
1.87228
1.87112
1.86983
1.86837
1.86667
1.86476
1.86283
1.86101
1.85915
1.85728
1.85541
1.85355
1.85171
1.84989
1.8481
1.84635
1.84465
1.84298
1.84137
1.83981
1.83829
1.83683
1.83542
1.83406
1.83275
1.83149
1.83028
1.82912
1.828
1.82693
1.8259
1.82492
1.82397
1.82306
1.8222
1.82131
1.8765
1.87721
1.87783
1.87836
1.87879
1.87912
1.87932
1.8794
1.87932
1.87908
1.87866
1.87805
1.87727
1.8763
1.87518
1.87392
1.87252
1.8709
1.86903
1.86692
1.86478
1.86277
1.86073
1.85867
1.85662
1.85457
1.85255
1.85056
1.84861
1.8467
1.84483
1.84302
1.84126
1.83955
1.8379
1.8363
1.83476
1.83328
1.83185
1.83048
1.82916
1.82789
1.82668
1.82551
1.82439
1.82332
1.82228
1.8213
1.82035
1.81939
1.87935
1.88016
1.88086
1.88146
1.88195
1.88232
1.88255
1.88264
1.88256
1.88231
1.88186
1.88122
1.88039
1.87936
1.87816
1.8768
1.87527
1.87351
1.87147
1.86916
1.86682
1.86462
1.86238
1.86014
1.8579
1.85567
1.85347
1.8513
1.84918
1.8471
1.84508
1.84311
1.84119
1.83934
1.83755
1.83582
1.83415
1.83254
1.83099
1.8295
1.82807
1.82669
1.82537
1.8241
1.82289
1.82172
1.8206
1.81953
1.81851
1.81746
1.88224
1.88315
1.88394
1.88462
1.88516
1.88558
1.88584
1.88595
1.88588
1.88562
1.88515
1.88448
1.88359
1.8825
1.88122
1.87976
1.87811
1.8762
1.87399
1.87148
1.86894
1.86655
1.86412
1.86169
1.85926
1.85685
1.85446
1.85212
1.84982
1.84758
1.84539
1.84326
1.84119
1.83918
1.83724
1.83537
1.83357
1.83183
1.83015
1.82854
1.82699
1.82551
1.82408
1.82271
1.8214
1.82014
1.81893
1.81777
1.81666
1.81553
1.88518
1.88619
1.88707
1.88782
1.88844
1.8889
1.88921
1.88934
1.88927
1.88901
1.88853
1.88782
1.88688
1.88573
1.88436
1.88281
1.88103
1.87898
1.8766
1.87389
1.87115
1.86857
1.86595
1.86333
1.86071
1.85811
1.85554
1.85301
1.85054
1.84812
1.84576
1.84347
1.84124
1.83908
1.83699
1.83497
1.83303
1.83115
1.82935
1.82761
1.82594
1.82434
1.82281
1.82134
1.81992
1.81857
1.81726
1.81602
1.81482
1.8136
1.88817
1.88928
1.89026
1.89109
1.89177
1.8923
1.89264
1.8928
1.89276
1.89249
1.89199
1.89126
1.89027
1.88905
1.88761
1.88595
1.88405
1.88186
1.87931
1.8764
1.87346
1.87069
1.86788
1.86506
1.86225
1.85946
1.8567
1.85399
1.85133
1.84874
1.8462
1.84374
1.84135
1.83903
1.83679
1.83462
1.83253
1.83051
1.82858
1.82671
1.82492
1.82321
1.82156
1.81997
1.81846
1.817
1.8156
1.81426
1.81298
1.81168
1.89121
1.89243
1.8935
1.89442
1.89518
1.89576
1.89616
1.89635
1.89632
1.89606
1.89556
1.89479
1.89376
1.89248
1.89095
1.88919
1.88718
1.88484
1.88212
1.87902
1.87588
1.87292
1.86992
1.8669
1.86389
1.8609
1.85795
1.85505
1.85221
1.84943
1.84672
1.84408
1.84152
1.83904
1.83664
1.83432
1.83208
1.82992
1.82784
1.82585
1.82393
1.82209
1.82033
1.81863
1.81701
1.81545
1.81395
1.81252
1.81114
1.80974
1.8943
1.89563
1.89681
1.89782
1.89866
1.89931
1.89976
1.89999
1.89999
1.89973
1.89922
1.89843
1.89736
1.89601
1.89441
1.89255
1.89042
1.88794
1.88505
1.88175
1.87842
1.87526
1.87206
1.86884
1.86563
1.86245
1.8593
1.85621
1.85317
1.85021
1.84731
1.8445
1.84176
1.83911
1.83654
1.83407
1.83167
1.82937
1.82715
1.82502
1.82297
1.82101
1.81912
1.81731
1.81557
1.8139
1.8123
1.81077
1.8093
1.80781
1.89745
1.8989
1.90018
1.90129
1.90221
1.90293
1.90344
1.90372
1.90374
1.90351
1.90299
1.90218
1.90107
1.89966
1.89798
1.89603
1.89377
1.89115
1.8881
1.88461
1.88107
1.87772
1.87432
1.87091
1.86749
1.8641
1.86076
1.85746
1.85423
1.85107
1.84799
1.84499
1.84207
1.83925
1.83651
1.83387
1.83132
1.82887
1.8265
1.82423
1.82205
1.81995
1.81794
1.816
1.81415
1.81237
1.81067
1.80904
1.80747
1.80588
1.90066
1.90223
1.90363
1.90483
1.90584
1.90664
1.90721
1.90754
1.9076
1.90738
1.90687
1.90604
1.90489
1.90343
1.90167
1.89962
1.89726
1.89449
1.89127
1.88759
1.88385
1.88031
1.87671
1.87309
1.86947
1.86587
1.86232
1.85882
1.85538
1.85203
1.84875
1.84556
1.84246
1.83945
1.83655
1.83374
1.83102
1.82841
1.8259
1.82348
1.82115
1.81892
1.81678
1.81472
1.81275
1.81086
1.80904
1.8073
1.80564
1.80394
1.90393
1.90563
1.90714
1.90846
1.90956
1.91044
1.91108
1.91146
1.91156
1.91137
1.91086
1.91002
1.90884
1.90733
1.9055
1.90335
1.90087
1.89797
1.89458
1.89071
1.88677
1.88303
1.87923
1.8754
1.87157
1.86776
1.86399
1.86028
1.85664
1.85308
1.8496
1.84621
1.84292
1.83973
1.83665
1.83366
1.83078
1.82801
1.82533
1.82276
1.82029
1.81792
1.81565
1.81346
1.81137
1.80935
1.80742
1.80558
1.8038
1.802
1.90727
1.9091
1.91073
1.91215
1.91336
1.91433
1.91504
1.91549
1.91563
1.91547
1.91497
1.91412
1.91292
1.91136
1.90945
1.90722
1.90462
1.90158
1.89803
1.89396
1.88982
1.88589
1.88188
1.87784
1.87379
1.86977
1.86579
1.86186
1.858
1.85423
1.85055
1.84696
1.84347
1.84009
1.83682
1.83365
1.8306
1.82765
1.82482
1.82209
1.81947
1.81696
1.81454
1.81222
1.81
1.80786
1.80581
1.80385
1.80197
1.80006
1.91067
1.91264
1.91439
1.91593
1.91725
1.91831
1.91911
1.91961
1.91981
1.91968
1.9192
1.91835
1.91712
1.91552
1.91355
1.91123
1.90852
1.90534
1.90163
1.89736
1.89302
1.88889
1.88467
1.88041
1.87615
1.87191
1.8677
1.86356
1.85948
1.85549
1.85159
1.8478
1.84411
1.84053
1.83706
1.83371
1.83048
1.82736
1.82436
1.82147
1.81869
1.81603
1.81346
1.81101
1.80865
1.80638
1.80421
1.80213
1.80014
1.79811
1.91414
1.91624
1.91813
1.9198
1.92122
1.92238
1.92327
1.92385
1.92411
1.92402
1.92356
1.92271
1.92147
1.91982
1.91779
1.91538
1.91256
1.90925
1.90537
1.90091
1.89636
1.89203
1.88761
1.88313
1.87865
1.87418
1.86975
1.86538
1.86108
1.85687
1.85275
1.84874
1.84484
1.84105
1.83739
1.83384
1.83042
1.82712
1.82395
1.82089
1.81795
1.81513
1.81242
1.80981
1.80732
1.80492
1.80262
1.80042
1.7983
1.79616
1.91767
1.91992
1.92195
1.92374
1.92528
1.92655
1.92753
1.92819
1.92851
1.92847
1.92804
1.9272
1.92594
1.92426
1.92217
1.91968
1.91675
1.9133
1.90927
1.90462
1.89986
1.89533
1.89069
1.886
1.88129
1.87659
1.87193
1.86733
1.8628
1.85836
1.85402
1.84978
1.84567
1.84167
1.8378
1.83405
1.83043
1.82695
1.82359
1.82036
1.81725
1.81426
1.8114
1.80864
1.806
1.80347
1.80103
1.7987
1.79647
1.7942
1.92126
1.92367
1.92584
1.92776
1.92942
1.93081
1.93189
1.93264
1.93303
1.93304
1.93265
1.93183
1.93056
1.92885
1.9267
1.92413
1.92109
1.91752
1.91332
1.90848
1.90352
1.89878
1.89393
1.88902
1.88408
1.87915
1.87426
1.86942
1.86465
1.85998
1.8554
1.85094
1.8466
1.84238
1.83829
1.83434
1.83052
1.82684
1.82329
1.81988
1.81659
1.81344
1.81041
1.8075
1.80471
1.80203
1.79946
1.79699
1.79463
1.79223
1.92491
1.92748
1.9298
1.93186
1.93366
1.93516
1.93635
1.93719
1.93766
1.93774
1.93739
1.93659
1.93532
1.93358
1.93138
1.92873
1.9256
1.92189
1.91754
1.9125
1.90734
1.9024
1.89734
1.8922
1.88703
1.88187
1.87673
1.87165
1.86664
1.86172
1.85691
1.85221
1.84764
1.84319
1.83888
1.83471
1.83069
1.8268
1.82305
1.81945
1.81598
1.81265
1.80945
1.80638
1.80343
1.8006
1.79789
1.79529
1.79279
1.79026
1.92863
1.93136
1.93383
1.93604
1.93797
1.9396
1.9409
1.94185
1.94241
1.94255
1.94225
1.94148
1.94021
1.93846
1.93621
1.93349
1.93026
1.92643
1.92192
1.9167
1.91133
1.90619
1.90091
1.89555
1.89015
1.88474
1.87936
1.87403
1.86877
1.86361
1.85855
1.8536
1.84879
1.84411
1.83957
1.83518
1.83093
1.82683
1.82288
1.81908
1.81542
1.8119
1.80853
1.80529
1.80218
1.79919
1.79633
1.79358
1.79095
1.78828
1.93239
1.93529
1.93793
1.94029
1.94237
1.94413
1.94556
1.94661
1.94726
1.94749
1.94724
1.94651
1.94526
1.94349
1.9412
1.93842
1.9351
1.93114
1.92648
1.92107
1.9155
1.91015
1.90465
1.89906
1.89342
1.88777
1.88214
1.87656
1.87105
1.86563
1.86031
1.85512
1.85006
1.84514
1.84036
1.83573
1.83126
1.82694
1.82277
1.81876
1.81491
1.8112
1.80764
1.80422
1.80094
1.79779
1.79477
1.79188
1.7891
1.78628
1.93621
1.93929
1.94209
1.94461
1.94684
1.94875
1.9503
1.95148
1.95223
1.95254
1.95237
1.95167
1.95045
1.94867
1.94636
1.94351
1.9401
1.93603
1.93121
1.92561
1.91984
1.91429
1.90857
1.90275
1.89687
1.89097
1.88509
1.87924
1.87347
1.86779
1.86222
1.85677
1.85145
1.84628
1.84126
1.83638
1.83167
1.82712
1.82274
1.81851
1.81445
1.81054
1.80679
1.80319
1.79973
1.79641
1.79322
1.79017
1.78725
1.78428
1.94007
1.94333
1.94631
1.949
1.95139
1.95345
1.95514
1.95645
1.95732
1.95772
1.95762
1.95699
1.95579
1.95402
1.95168
1.94879
1.94529
1.9411
1.93613
1.93035
1.92436
1.91861
1.91267
1.90661
1.90048
1.89433
1.88819
1.88209
1.87605
1.87011
1.86427
1.85855
1.85297
1.84754
1.84226
1.83714
1.83218
1.82739
1.82278
1.81833
1.81405
1.80993
1.80598
1.80218
1.79854
1.79504
1.79168
1.78847
1.78539
1.78226
1.94397
1.94742
1.95058
1.95345
1.95601
1.95823
1.96008
1.96152
1.96252
1.96303
1.96302
1.96245
1.9613
1.95954
1.95719
1.95425
1.95067
1.94637
1.94125
1.93527
1.92908
1.92311
1.91694
1.91064
1.90427
1.89786
1.89146
1.88509
1.87879
1.87257
1.86646
1.86047
1.85462
1.84892
1.84337
1.83799
1.83278
1.82775
1.82289
1.81821
1.81371
1.80938
1.80521
1.80121
1.79737
1.79369
1.79015
1.78677
1.78352
1.78023
1.9479
1.95155
1.95491
1.95796
1.9607
1.9631
1.96511
1.9667
1.96784
1.96847
1.96857
1.96808
1.96698
1.96525
1.9629
1.95991
1.95626
1.95184
1.94657
1.9404
1.93399
1.9278
1.9214
1.91486
1.90823
1.90156
1.89489
1.88825
1.88167
1.87518
1.86879
1.86252
1.85639
1.85041
1.8446
1.83895
1.83348
1.82819
1.82309
1.81817
1.81343
1.80887
1.80448
1.80027
1.79623
1.79235
1.78863
1.78506
1.78164
1.77818
1.95186
1.95572
1.95927
1.96253
1.96547
1.96804
1.97023
1.97199
1.97328
1.97406
1.97427
1.97389
1.97286
1.97117
1.96881
1.9658
1.96207
1.95755
1.95212
1.94575
1.93911
1.93269
1.92605
1.91926
1.91237
1.90543
1.89849
1.89157
1.88472
1.87794
1.87126
1.86471
1.85829
1.85203
1.84594
1.84002
1.83428
1.82873
1.82336
1.81819
1.8132
1.80841
1.8038
1.79937
1.79511
1.79103
1.78711
1.78336
1.77976
1.77611
1.95583
1.95991
1.96368
1.96715
1.97029
1.97308
1.97546
1.97741
1.97887
1.9798
1.98016
1.97988
1.97894
1.97731
1.97497
1.97193
1.96814
1.9635
1.95792
1.95133
1.94446
1.9378
1.93091
1.92385
1.91669
1.90948
1.90226
1.89506
1.88791
1.88084
1.87387
1.86703
1.86032
1.85377
1.84739
1.84119
1.83517
1.82934
1.82371
1.81828
1.81304
1.808
1.80315
1.79849
1.79402
1.78972
1.78559
1.78164
1.77785
1.77401
1.9598
1.96412
1.96812
1.97182
1.97519
1.9782
1.9808
1.98295
1.98461
1.98572
1.98624
1.9861
1.98526
1.9837
1.98139
1.97833
1.97448
1.96973
1.96399
1.95718
1.95006
1.94315
1.93599
1.92866
1.92121
1.91371
1.90619
1.8987
1.89125
1.88389
1.87662
1.86948
1.86248
1.85563
1.84896
1.84246
1.83616
1.83005
1.82414
1.81844
1.81294
1.80764
1.80255
1.79765
1.79294
1.78842
1.78408
1.77992
1.77594
1.7719
1.96378
1.96835
1.9726
1.97655
1.98016
1.98341
1.98625
1.98864
1.99052
1.99184
1.99254
1.99256
1.99185
1.99037
1.9881
1.98504
1.98113
1.97628
1.97037
1.96333
1.95595
1.94877
1.94132
1.93369
1.92594
1.91813
1.91031
1.9025
1.89475
1.88707
1.8795
1.87205
1.86475
1.8576
1.85063
1.84383
1.83723
1.83083
1.82464
1.81866
1.81289
1.80733
1.80198
1.79683
1.79188
1.78713
1.78257
1.7782
1.77401
1.76975
1.96775
1.97259
1.97711
1.98133
1.98521
1.98873
1.99184
1.99449
1.99662
1.99818
1.99909
1.99929
1.99873
1.99736
1.99515
1.9921
1.98814
1.98318
1.9771
1.96982
1.96215
1.95469
1.94694
1.93898
1.93091
1.92277
1.91461
1.90648
1.8984
1.8904
1.88251
1.87475
1.86713
1.85967
1.85239
1.84529
1.83839
1.83169
1.82521
1.81894
1.81289
1.80705
1.80143
1.79603
1.79083
1.78584
1.78104
1.77645
1.77205
1.76758
1.97171
1.97683
1.98165
1.98616
1.99035
1.99418
1.99758
2.00053
2.00294
2.00476
2.00592
2.00634
2.00595
2.00471
2.00258
1.99955
1.99555
1.99048
1.98422
1.9767
1.96873
1.96095
1.95287
1.94457
1.93614
1.92764
1.91913
1.91064
1.90222
1.89388
1.88566
1.87757
1.86962
1.86184
1.85424
1.84683
1.83961
1.83261
1.82583
1.81926
1.81292
1.8068
1.80091
1.79523
1.78978
1.78454
1.7795
1.77468
1.77005
1.76536
1.97565
1.98109
1.98622
1.99107
1.99559
1.99975
2.0035
2.00678
2.00951
2.01163
2.01307
2.01373
2.01355
2.01246
2.01043
2.00743
2.00341
1.99824
1.9918
1.98401
1.97572
1.96761
1.95916
1.95049
1.94167
1.93279
1.92389
1.91502
1.90623
1.89752
1.88894
1.8805
1.87221
1.8641
1.85616
1.84843
1.8409
1.83358
1.82649
1.81962
1.81298
1.80657
1.80039
1.79445
1.78873
1.78323
1.77794
1.77288
1.76802
1.7631
1.97957
1.98535
1.99084
1.99605
2.00095
2.00549
2.00961
2.01326
2.01636
2.01882
2.02057
2.02152
2.02157
2.02067
2.01876
2.01581
2.01176
2.00649
1.99987
1.9918
1.98318
1.97472
1.96588
1.9568
1.94757
1.93826
1.92894
1.91966
1.91045
1.90135
1.89238
1.88356
1.87491
1.86644
1.85816
1.85009
1.84223
1.83459
1.82718
1.81999
1.81305
1.80634
1.79988
1.79365
1.78765
1.78189
1.77635
1.77104
1.76594
1.76078
1.98346
1.98961
1.9955
2.00112
2.00643
2.01139
2.01594
2.02001
2.02351
2.02636
2.02846
2.02973
2.03005
2.02936
2.02759
2.02472
2.02066
2.0153
2.00849
2.00015
1.99117
1.98233
1.97309
1.96357
1.95388
1.94411
1.93433
1.92459
1.91493
1.90539
1.896
1.88677
1.87772
1.86887
1.86023
1.8518
1.84359
1.83562
1.82787
1.82037
1.81311
1.8061
1.79934
1.79282
1.78654
1.78051
1.7747
1.76914
1.76381
1.75841
1.98732
1.9939
2.00022
2.00629
2.01206
2.0175
2.02251
2.02704
2.031
2.03428
2.03678
2.0384
2.03904
2.03859
2.03699
2.0342
2.03015
2.02471
2.01772
2.00909
1.99975
1.99053
1.98085
1.97087
1.96069
1.95042
1.94013
1.92988
1.91972
1.9097
1.89983
1.89016
1.88068
1.87142
1.86238
1.85356
1.84499
1.83666
1.82857
1.82074
1.81316
1.80583
1.79876
1.79194
1.78538
1.77907
1.773
1.76719
1.76162
1.75597
1.99117
1.99819
2.005
2.01157
2.01786
2.02381
2.02935
2.03439
2.03885
2.04261
2.04556
2.04758
2.04855
2.04838
2.04698
2.0443
2.04027
2.03476
2.0276
2.01868
2.00898
1.99936
1.98923
1.97876
1.96807
1.95725
1.94641
1.9356
1.9249
1.91434
1.90396
1.89378
1.88382
1.8741
1.86463
1.8554
1.84643
1.83771
1.82927
1.82108
1.81316
1.80551
1.79813
1.791
1.78415
1.77756
1.77122
1.76516
1.75935
1.75345
1.99499
2.00252
2.00985
2.01697
2.02382
2.03034
2.03646
2.04207
2.04708
2.05136
2.0548
2.05727
2.05862
2.05876
2.05758
2.05504
2.05106
2.04549
2.03817
2.02898
2.01891
2.00889
1.99831
1.98732
1.97608
1.96469
1.95325
1.94185
1.93055
1.9194
1.90844
1.89771
1.88722
1.87699
1.86702
1.85734
1.84793
1.83881
1.82997
1.82141
1.81313
1.80514
1.79743
1.78999
1.78284
1.77596
1.76936
1.76303
1.75698
1.75085
1.9988
2.00687
2.01478
2.02249
2.02997
2.03712
2.04386
2.05009
2.0557
2.06056
2.06454
2.06749
2.06927
2.06975
2.06883
2.06645
2.06253
2.05693
2.04946
2.04001
2.0296
2.01917
2.00812
1.99662
1.98481
1.97282
1.96075
1.94871
1.93676
1.92497
1.91338
1.90203
1.89095
1.88015
1.86964
1.85945
1.84956
1.83998
1.83071
1.82174
1.81308
1.80473
1.79667
1.78891
1.78144
1.77427
1.76739
1.76081
1.75452
1.74814
2.00259
2.01126
2.01979
2.02816
2.0363
2.04413
2.05155
2.05845
2.06472
2.07021
2.07477
2.07825
2.0805
2.08136
2.08073
2.07855
2.07472
2.0691
2.06151
2.05182
2.04106
2.03024
2.01873
2.0067
1.99431
1.9817
1.96898
1.95627
1.94364
1.93115
1.91888
1.90686
1.89512
1.88369
1.87258
1.86181
1.85139
1.8413
1.83155
1.82214
1.81306
1.80431
1.79588
1.78777
1.77998
1.7725
1.76533
1.75848
1.75194
1.74532
2.00639
2.01568
2.02488
2.03395
2.04281
2.05137
2.05952
2.06715
2.07413
2.08029
2.08549
2.08955
2.0923
2.09359
2.0933
2.09134
2.08763
2.08203
2.07434
2.06442
2.05333
2.04212
2.03015
2.01759
2.00462
1.99139
1.97801
1.96461
1.95126
1.93805
1.92505
1.9123
1.89985
1.88773
1.87596
1.86456
1.85353
1.84288
1.83261
1.8227
1.81316
1.80397
1.79514
1.78665
1.7785
1.77068
1.7632
1.75606
1.74926
1.74237
2.01017
2.02014
2.03006
2.03987
2.0495
2.05883
2.06777
2.07618
2.08391
2.09081
2.09669
2.10138
2.1047
2.10646
2.10654
2.10485
2.1013
2.09574
2.08797
2.07784
2.06643
2.05484
2.0424
2.02932
2.01578
2.00192
1.98788
1.97378
1.95971
1.94575
1.93199
1.91848
1.90528
1.89242
1.87993
1.86784
1.85615
1.84488
1.83402
1.82357
1.81352
1.80385
1.79457
1.78566
1.77711
1.76892
1.76108
1.75361
1.7465
1.73929
2.01395
2.02463
2.03531
2.04591
2.05634
2.0665
2.07627
2.0855
2.09405
2.10173
2.10836
2.11374
2.11768
2.11997
2.12047
2.1191
2.11575
2.11026
2.10244
2.09211
2.08038
2.06841
2.05551
2.04191
2.02779
2.01331
1.99861
1.98381
1.96901
1.95431
1.93978
1.9255
1.91152
1.89788
1.88464
1.87181
1.85942
1.84747
1.83598
1.82494
1.81434
1.80416
1.79439
1.78503
1.77605
1.76743
1.75917
1.75128
1.74376
1.73611
2.01772
2.02914
2.0406
2.05203
2.06331
2.07434
2.08498
2.0951
2.10451
2.11304
2.12049
2.12663
2.13125
2.13414
2.13513
2.13413
2.13102
2.12564
2.11779
2.10727
2.09522
2.08286
2.0695
2.05537
2.04067
2.02556
2.0102
1.9947
1.97919
1.96374
1.94846
1.9334
1.91864
1.90423
1.89021
1.87662
1.8635
1.85086
1.83871
1.82704
1.81587
1.80516
1.79491
1.78509
1.77566
1.76659
1.75785
1.74943
1.74132
1.73294
2.02146
2.03365
2.04593
2.05821
2.07037
2.08231
2.09389
2.10494
2.11529
2.12473
2.13307
2.14005
2.14544
2.149
2.15056
2.14999
2.14717
2.14194
2.13407
2.12337
2.11099
2.09823
2.08438
2.06971
2.05441
2.03866
2.02263
2.00645
1.99022
1.97405
1.95802
1.94222
1.92669
1.91151
1.89673
1.88239
1.86853
1.85519
1.84237
1.83009
1.81835
1.80715
1.79646
1.78625
1.77649
1.76709
1.758
1.7491
1.74025
1.73043
2.02516
2.03814
2.05126
2.06442
2.0775
2.09039
2.10295
2.11499
2.12635
2.1368
2.14611
2.15402
2.16027
2.1646
2.1668
2.16674
2.16428
2.15923
2.15138
2.1405
2.12778
2.11459
2.10023
2.08497
2.06904
2.05263
2.03591
2.01902
2.00208
1.98519
1.96844
1.9519
1.93564
1.91973
1.90422
1.88916
1.87459
1.86055
1.84707
1.83418
1.8219
1.81024
1.7992
1.78878
1.779
1.76989
1.76147
1.7538
1.74702
1.74103
2.02879
2.04258
2.05655
2.07062
2.08465
2.09854
2.11213
2.12525
2.13769
2.14923
2.15962
2.16858
2.1758
2.181
2.18394
2.18446
2.18242
2.17761
2.16979
2.15875
2.14567
2.13203
2.11712
2.10123
2.08462
2.0675
2.05005
2.03242
2.01475
1.99713
1.97966
1.9624
1.94544
1.92883
1.91263
1.89688
1.88163
1.86692
1.8528
1.83928
1.8264
1.81418
1.80262
1.79173
1.78151
1.77197
1.76309
1.75487
1.74732
1.74013
2.03232
2.04692
2.06177
2.07676
2.09179
2.10673
2.12142
2.13569
2.14932
2.16206
2.17365
2.18376
2.19208
2.19827
2.20205
2.20325
2.20169
2.19717
2.18943
2.17822
2.16477
2.15065
2.13515
2.11859
2.10124
2.08335
2.06511
2.04669
2.02823
2.00985
1.99163
1.97366
1.956
1.93872
1.92185
1.90546
1.88957
1.87422
1.85946
1.84531
1.8318
1.81893
1.80671
1.79515
1.78425
1.77399
1.76435
1.75529
1.74677
1.73865
2.03571
2.05113
2.06687
2.08282
2.09889
2.11493
2.1308
2.14631
2.16123
2.1753
2.18822
2.19963
2.20918
2.21648
2.22122
2.22318
2.22219
2.21801
2.21038
2.19903
2.18522
2.1706
2.15446
2.13717
2.11903
2.1003
2.0812
2.06191
2.0426
2.02338
2.00436
1.98563
1.96725
1.94928
1.93177
1.91474
1.89824
1.8823
1.86693
1.85217
1.83801
1.82447
1.81155
1.79924
1.78755
1.77644
1.76589
1.75584
1.74626
1.73712
2.0389
2.05517
2.07182
2.08876
2.10591
2.12313
2.14026
2.15712
2.17346
2.18899
2.20338
2.21624
2.22715
2.23569
2.24151
2.24435
2.244
2.24024
2.23276
2.2213
2.20711
2.19198
2.17519
2.15713
2.13814
2.1185
2.09846
2.07822
2.05796
2.03782
2.01792
1.99835
1.97919
1.96048
1.94227
1.9246
1.90748
1.89094
1.87497
1.85959
1.84479
1.83056
1.81689
1.80376
1.79117
1.77909
1.76751
1.75639
1.74572
1.73558
2.04185
2.05897
2.07655
2.09454
2.11283
2.1313
2.1498
2.16813
2.18601
2.20315
2.21916
2.23362
2.24605
2.25597
2.26299
2.26681
2.2672
2.26392
2.25666
2.24511
2.23057
2.21492
2.19745
2.17859
2.15869
2.13809
2.11704
2.09577
2.07448
2.05333
2.03245
2.01194
1.99188
1.97234
1.95335
1.93494
1.91713
1.89992
1.88331
1.86727
1.8518
1.83686
1.82242
1.80847
1.79498
1.78194
1.76933
1.75714
1.74536
1.73414
2.0445
2.06249
2.08105
2.10012
2.11963
2.13945
2.15942
2.17934
2.19891
2.2178
2.23559
2.2518
2.2659
2.27735
2.28571
2.29062
2.29186
2.28914
2.28215
2.27055
2.25567
2.23949
2.22133
2.20163
2.1808
2.15918
2.13707
2.11471
2.09231
2.07006
2.0481
2.02654
2.00548
1.98496
1.96506
1.94578
1.92714
1.90913
1.89174
1.87495
1.85872
1.843
1.82777
1.81297
1.7986
1.78462
1.77102
1.75779
1.74495
1.73269
2.04679
2.06568
2.08525
2.10548
2.12628
2.14755
2.16911
2.19074
2.21214
2.23294
2.25266
2.27079
2.28671
2.29985
2.30968
2.31583
2.31802
2.31596
2.3093
2.2977
2.28248
2.26577
2.24688
2.22632
2.20451
2.18183
2.1586
2.1351
2.11155
2.08814
2.06502
2.04232
2.02013
1.99852
1.97754
1.95722
1.93756
1.91857
1.90021
1.88247
1.8653
1.84866
1.83251
1.8168
1.80151
1.78661
1.7721
1.75797
1.74426
1.73116
2.04865
2.06847
2.08912
2.11057
2.13275
2.15557
2.17884
2.20232
2.22568
2.24853
2.27034
2.29054
2.30847
2.32346
2.33494
2.34247
2.34575
2.34445
2.3382
2.32662
2.31107
2.2938
2.27415
2.25267
2.22982
2.20603
2.18163
2.15693
2.13218
2.10755
2.08322
2.05931
2.03591
2.0131
1.99091
1.96939
1.94853
1.92833
1.90877
1.88984
1.87151
1.85373
1.83649
1.81974
1.80348
1.78768
1.77236
1.75753
1.7432
1.72952
2.05002
2.07083
2.0926
2.11535
2.13901
2.16347
2.18855
2.214
2.23947
2.26451
2.28858
2.31104
2.33116
2.34819
2.36151
2.3706
2.37512
2.37471
2.36895
2.35744
2.34153
2.32366
2.30318
2.2807
2.25673
2.23173
2.20609
2.18012
2.15409
2.12819
2.10259
2.0774
2.05273
2.02863
2.00514
1.98229
1.96008
1.93851
1.91757
1.89725
1.87754
1.85843
1.83992
1.82201
1.80471
1.78802
1.77196
1.75655
1.74181
1.72778
2.05085
2.07267
2.09564
2.11976
2.14497
2.17118
2.19818
2.22571
2.25341
2.28081
2.30731
2.33222
2.35475
2.37406
2.38944
2.40031
2.40626
2.40687
2.4017
2.39028
2.37399
2.35545
2.33406
2.31046
2.28524
2.25891
2.2319
2.20454
2.17712
2.14985
2.12288
2.09634
2.07032
2.04486
2.02
1.99575
1.97211
1.94909
1.92668
1.90488
1.8837
1.86317
1.84331
1.82417
1.80578
1.78818
1.77139
1.75544
1.74033
1.726
2.05107
2.07395
2.09816
2.12372
2.15056
2.17859
2.2076
2.23733
2.2674
2.29731
2.32645
2.35405
2.37924
2.4011
2.41881
2.43171
2.4393
2.44111
2.43662
2.42534
2.40863
2.38935
2.36692
2.34207
2.31544
2.28761
2.25905
2.23013
2.20115
2.17233
2.14386
2.11583
2.08834
2.06142
2.0351
2.00939
1.98429
1.9598
1.93594
1.9127
1.89013
1.86825
1.84713
1.82682
1.80739
1.78889
1.77134
1.75475
1.73911
1.72431
2.05062
2.07459
2.10008
2.12712
2.15565
2.18557
2.21668
2.24872
2.2813
2.31392
2.34592
2.37648
2.40464
2.42938
2.44973
2.46495
2.47442
2.47761
2.47393
2.46282
2.44567
2.42556
2.40197
2.3757
2.34748
2.31795
2.28762
2.2569
2.22614
2.19557
2.16538
2.13567
2.10653
2.07799
2.05009
2.02283
1.99623
1.97029
1.94504
1.9205
1.8967
1.8737
1.85155
1.83028
1.80997
1.79063
1.77229
1.7549
1.73842
1.72279
2.04943
2.0745
2.1013
2.12984
2.16009
2.19195
2.22524
2.25971
2.29497
2.33052
2.36566
2.39951
2.43099
2.45896
2.48232
2.50018
2.51181
2.5166
2.51386
2.50297
2.48533
2.4643
2.4394
2.41154
2.38153
2.35007
2.31773
2.28498
2.25219
2.21961
2.18745
2.15583
2.12482
2.09448
2.06484
2.03592
2.00774
1.98034
1.95375
1.92802
1.90319
1.8793
1.85636
1.83438
1.81338
1.79331
1.77415
1.75581
1.73824
1.72144
2.04742
2.07358
2.10167
2.13173
2.16371
2.19755
2.2331
2.27013
2.30827
2.347
2.3856
2.4231
2.45831
2.48992
2.51669
2.53755
2.55166
2.55826
2.55661
2.54599
2.52781
2.50576
2.4794
2.44975
2.41771
2.38407
2.34948
2.31444
2.27935
2.24452
2.21015
2.17638
2.14331
2.11098
2.07946
2.04877
2.01896
1.99007
1.96215
1.93528
1.90949
1.8848
1.86119
1.83862
1.81701
1.79627
1.77629
1.75696
1.7382
1.72015
2.04452
2.07172
2.10107
2.13261
2.16632
2.20218
2.24008
2.27981
2.32104
2.36325
2.40566
2.44722
2.4866
2.52231
2.55292
2.57717
2.5941
2.6028
2.60239
2.5921
2.57332
2.55009
2.52208
2.49039
2.45605
2.41995
2.38281
2.3452
2.30758
2.27025
2.23345
2.19734
2.16204
2.12761
2.09412
2.06162
2.03016
1.99979
1.97056
1.94255
1.91577
1.89023
1.86587
1.8426
1.82029
1.79879
1.77795
1.75765
1.73786
1.71875
2.04063
2.0688
2.09934
2.1323
2.16772
2.20563
2.24596
2.28857
2.33314
2.37914
2.42574
2.4718
2.51581
2.55611
2.59103
2.61914
2.63928
2.65038
2.65142
2.6415
2.62201
2.59743
2.56748
2.53344
2.49646
2.45755
2.41753
2.37705
2.33659
2.29652
2.2571
2.21849
2.18084
2.14425
2.10878
2.0745
2.04145
2.00968
1.97922
1.95008
1.92228
1.89576
1.87046
1.84625
1.823
1.80054
1.77875
1.75757
1.73698
1.71717
2.03565
2.06469
2.09631
2.13062
2.16772
2.2077
2.25056
2.29622
2.34437
2.39449
2.44568
2.49667
2.54582
2.59123
2.63101
2.66351
2.68733
2.70122
2.70395
2.69445
2.67412
2.64792
2.6157
2.5789
2.53884
2.49669
2.45338
2.40964
2.36603
2.32294
2.28067
2.23942
2.19934
2.16054
2.12311
2.0871
2.05256
2.0195
1.9879
1.95772
1.92889
1.90133
1.87494
1.8496
1.8252
1.80164
1.77886
1.75685
1.73568
1.71545
2.02946
2.05924
2.09182
2.12739
2.16612
2.20819
2.25368
2.30254
2.35452
2.40906
2.46521
2.52161
2.57641
2.62753
2.67282
2.71035
2.73844
2.75559
2.76029
2.75128
2.72993
2.70183
2.66692
2.62686
2.58321
2.53729
2.49019
2.44275
2.39558
2.34915
2.30379
2.25973
2.21712
2.17608
2.13669
2.099
2.06302
2.02872
1.99603
1.96484
1.93503
1.90644
1.87896
1.85247
1.82693
1.8023
1.77861
1.7559
1.73424
1.7137
2.02196
2.05231
2.08571
2.12243
2.16274
2.2069
2.25507
2.30728
2.36327
2.4225
2.48399
2.54626
2.60732
2.66483
2.71639
2.75974
2.79283
2.81383
2.82088
2.81245
2.7899
2.75954
2.72145
2.67756
2.62969
2.57939
2.52792
2.47625
2.4251
2.37497
2.32624
2.27917
2.23392
2.19058
2.14922
2.10985
2.07244
2.03689
2.00309
1.97086
1.94004
1.91046
1.88197
1.8545
1.82802
1.80255
1.77818
1.75493
1.73287
1.71199
2.013
2.04377
2.07784
2.11558
2.15739
2.20361
2.25448
2.31009
2.37024
2.43439
2.50156
2.5702
2.63817
2.70291
2.76168
2.8118
2.85079
2.87636
2.88621