/*--------------------------------*- C++ -*----------------------------------*\
  =========                 |
  \\      /  F ield         | OpenFOAM: The Open Source CFD Toolbox
   \\    /   O peration     | Website:  https://openfoam.org
    \\  /    A nd           | Version:  9
     \\/     M anipulation  |
\*---------------------------------------------------------------------------*/
FoamFile
{
    format      ascii;
    class       surfaceScalarField;
    location    "0.1";
    object      phi;
}
// * * * * * * * * * * * * * * * * * * * * * * * * * * * * * * * * * * * * * //

dimensions      [0 3 -1 0 0 0 0];

internalField   nonuniform List<scalar> 
9850
(
-7.42636e-07
7.82359e-06
-7.43047e-07
7.76572e-06
-7.43516e-07
7.73845e-06
-7.43923e-07
7.74203e-06
-7.44211e-07
7.77091e-06
-7.44378e-07
7.81904e-06
-7.44423e-07
7.88149e-06
-7.4435e-07
7.95248e-06
-7.44186e-07
8.02466e-06
-7.43948e-07
8.09034e-06
-7.43599e-07
8.14112e-06
-7.43017e-07
8.1626e-06
-7.4193e-07
8.1252e-06
-7.40414e-07
7.98297e-06
-7.405e-07
7.72663e-06
-7.44286e-07
7.5061e-06
-7.47359e-07
7.57415e-06
-7.46611e-07
7.89771e-06
-7.45013e-07
8.21038e-06
-7.44116e-07
8.39944e-06
-7.43771e-07
6.93598e-06
-7.43617e-07
6.64507e-06
-7.43539e-07
6.35406e-06
-7.43494e-07
6.07027e-06
-7.43465e-07
5.79636e-06
-7.43446e-07
5.53344e-06
-7.43432e-07
5.28202e-06
-7.43422e-07
5.04218e-06
-7.43415e-07
4.81368e-06
-7.43408e-07
4.59599e-06
-7.43403e-07
4.38841e-06
-7.43399e-07
4.19016e-06
-7.43396e-07
4.00054e-06
-7.43395e-07
3.81895e-06
-7.43396e-07
3.64488e-06
-7.43399e-07
3.47795e-06
-7.43403e-07
3.31785e-06
-7.43407e-07
3.16432e-06
-7.43411e-07
3.01716e-06
-7.43415e-07
2.87616e-06
-7.43417e-07
2.74114e-06
-7.43416e-07
2.61195e-06
-7.43414e-07
2.48841e-06
-7.4341e-07
2.37037e-06
-7.43403e-07
2.25768e-06
-7.43393e-07
2.15016e-06
-7.43382e-07
2.04765e-06
-7.43368e-07
1.94997e-06
-7.43358e-07
1.85693e-06
1.7682e-06
-7.41534e-07
7.82412e-06
-7.42467e-07
7.76665e-06
-7.43533e-07
7.73952e-06
-7.44477e-07
7.74298e-06
-7.45169e-07
7.7716e-06
-7.45577e-07
7.81945e-06
-7.45685e-07
7.8816e-06
-7.45502e-07
7.95229e-06
-7.45071e-07
8.02422e-06
-7.44417e-07
8.08968e-06
-7.43462e-07
8.14017e-06
-7.41983e-07
8.16112e-06
-7.39629e-07
8.12284e-06
-7.37058e-07
7.9804e-06
-7.37923e-07
7.72749e-06
-7.44982e-07
7.51316e-06
-7.50911e-07
7.58007e-06
-7.5025e-07
7.89705e-06
-7.47311e-07
8.20744e-06
-7.45236e-07
8.39736e-06
-7.44302e-07
6.93505e-06
-7.4381e-07
6.64458e-06
-7.43532e-07
6.35378e-06
-7.43354e-07
6.0701e-06
-7.43236e-07
5.79624e-06
-7.43154e-07
5.53336e-06
-7.43096e-07
5.28196e-06
-7.43056e-07
5.04214e-06
-7.43027e-07
4.81365e-06
-7.4299e-07
4.59595e-06
-7.42974e-07
4.38839e-06
-7.42959e-07
4.19014e-06
-7.42947e-07
4.00053e-06
-7.42939e-07
3.81894e-06
-7.42935e-07
3.64488e-06
-7.42934e-07
3.47795e-06
-7.42936e-07
3.31785e-06
-7.42938e-07
3.16433e-06
-7.4294e-07
3.01716e-06
-7.42941e-07
2.87616e-06
-7.42938e-07
2.74114e-06
-7.42932e-07
2.61194e-06
-7.42922e-07
2.4884e-06
-7.4291e-07
2.37036e-06
-7.42894e-07
2.25766e-06
-7.42876e-07
2.15015e-06
-7.42856e-07
2.04763e-06
-7.42838e-07
1.94995e-06
-7.42832e-07
1.85692e-06
1.76822e-06
-7.40843e-07
7.8249e-06
-7.42135e-07
7.76794e-06
-7.43601e-07
7.74098e-06
-7.4491e-07
7.74428e-06
-7.45881e-07
7.77257e-06
-7.4645e-07
7.82001e-06
-7.46585e-07
7.88173e-06
-7.46291e-07
7.952e-06
-7.45617e-07
8.02355e-06
-7.44592e-07
8.08866e-06
-7.4313e-07
8.1387e-06
-7.4098e-07
8.15897e-06
-7.37923e-07
8.11978e-06
-7.35083e-07
7.97756e-06
-7.36782e-07
7.72919e-06
-7.45582e-07
7.52196e-06
-7.52846e-07
7.58734e-06
-7.523e-07
7.89651e-06
-7.48736e-07
8.20388e-06
-7.45979e-07
8.39461e-06
-7.44635e-07
6.93371e-06
-7.43861e-07
6.64381e-06
-7.43385e-07
6.3533e-06
-7.43071e-07
6.06978e-06
-7.42854e-07
5.79603e-06
-7.42699e-07
5.53321e-06
-7.42584e-07
5.28184e-06
-7.42498e-07
5.04205e-06
-7.42431e-07
4.81358e-06
-7.42388e-07
4.59591e-06
-7.42339e-07
4.38834e-06
-7.42299e-07
4.1901e-06
-7.42268e-07
4.0005e-06
-7.42243e-07
3.81892e-06
-7.42226e-07
3.64486e-06
-7.42214e-07
3.47794e-06
-7.42207e-07
3.31785e-06
-7.42202e-07
3.16432e-06
-7.42198e-07
3.01716e-06
-7.42194e-07
2.87615e-06
-7.42188e-07
2.74113e-06
-7.4218e-07
2.61193e-06
-7.4217e-07
2.48839e-06
-7.42158e-07
2.37035e-06
-7.42146e-07
2.25765e-06
-7.42133e-07
2.15013e-06
-7.42122e-07
2.04762e-06
-7.42119e-07
1.94995e-06
-7.42132e-07
1.85693e-06
1.76824e-06
-7.40374e-07
7.82586e-06
-7.41927e-07
7.76949e-06
-7.43682e-07
7.74274e-06
-7.45258e-07
7.74586e-06
-7.46431e-07
7.77374e-06
-7.47111e-07
7.82069e-06
-7.47253e-07
7.88187e-06
-7.46856e-07
7.9516e-06
-7.45973e-07
8.02267e-06
-7.44641e-07
8.08733e-06
-7.42779e-07
8.13684e-06
-7.40162e-07
8.15635e-06
-7.36667e-07
8.11629e-06
-7.33729e-07
7.97462e-06
-7.36012e-07
7.73147e-06
-7.45825e-07
7.53177e-06
-7.53916e-07
7.59543e-06
-7.53547e-07
7.89614e-06
-7.49615e-07
8.19995e-06
-7.46394e-07
8.39139e-06
-7.4474e-07
6.93205e-06
-7.43731e-07
6.6428e-06
-7.43076e-07
6.35265e-06
-7.42627e-07
6.06933e-06
-7.42306e-07
5.7957e-06
-7.4207e-07
5.53297e-06
-7.41892e-07
5.28166e-06
-7.41755e-07
5.04191e-06
-7.41649e-07
4.81347e-06
-7.41564e-07
4.59582e-06
-7.41487e-07
4.38826e-06
-7.41421e-07
4.19004e-06
-7.41367e-07
4.00044e-06
-7.41323e-07
3.81887e-06
-7.4129e-07
3.64483e-06
-7.41266e-07
3.47792e-06
-7.41249e-07
3.31783e-06
-7.41236e-07
3.16431e-06
-7.41227e-07
3.01715e-06
-7.41218e-07
2.87615e-06
-7.4121e-07
2.74113e-06
-7.412e-07
2.61192e-06
-7.41189e-07
2.48838e-06
-7.41178e-07
2.37034e-06
-7.41167e-07
2.25764e-06
-7.41156e-07
2.15012e-06
-7.41151e-07
2.04762e-06
-7.41154e-07
1.94995e-06
-7.41171e-07
1.85695e-06
1.76826e-06
-7.40099e-07
7.82695e-06
-7.41823e-07
7.77122e-06
-7.43773e-07
7.74469e-06
-7.45529e-07
7.74762e-06
-7.4684e-07
7.77505e-06
-7.47592e-07
7.82144e-06
-7.47726e-07
7.88201e-06
-7.47239e-07
7.95112e-06
-7.46184e-07
8.02161e-06
-7.44607e-07
8.08575e-06
-7.42446e-07
8.13468e-06
-7.39502e-07
8.1534e-06
-7.3575e-07
8.11254e-06
-7.32831e-07
7.9717e-06
-7.35479e-07
7.73412e-06
-7.45685e-07
7.54197e-06
-7.54191e-07
7.60393e-06
-7.54118e-07
7.89607e-06
-7.50064e-07
8.19589e-06
-7.46521e-07
8.38784e-06
-7.4461e-07
6.93014e-06
-7.43393e-07
6.64158e-06
-7.42573e-07
6.35183e-06
-7.41992e-07
6.06875e-06
-7.41565e-07
5.79528e-06
-7.41243e-07
5.53265e-06
-7.40996e-07
5.28142e-06
-7.40802e-07
5.04172e-06
-7.40646e-07
4.81331e-06
-7.40515e-07
4.59569e-06
-7.40404e-07
4.38815e-06
-7.4031e-07
4.18994e-06
-7.40232e-07
4.00036e-06
-7.40168e-07
3.81881e-06
-7.40118e-07
3.64478e-06
-7.4008e-07
3.47788e-06
-7.40051e-07
3.3178e-06
-7.4003e-07
3.16429e-06
-7.40013e-07
3.01713e-06
-7.39998e-07
2.87613e-06
-7.39985e-07
2.74111e-06
-7.39971e-07
2.61191e-06
-7.39956e-07
2.48837e-06
-7.39942e-07
2.37033e-06
-7.39928e-07
2.25763e-06
-7.39916e-07
2.15011e-06
-7.39909e-07
2.04761e-06
-7.39913e-07
1.94995e-06
-7.39925e-07
1.85696e-06
1.76827e-06
-7.4001e-07
7.82811e-06
-7.41834e-07
7.77304e-06
-7.43896e-07
7.74675e-06
-7.45758e-07
7.74948e-06
-7.47147e-07
7.77644e-06
-7.47931e-07
7.82223e-06
-7.48041e-07
7.88212e-06
-7.47468e-07
7.95054e-06
-7.46268e-07
8.02041e-06
-7.44494e-07
8.08397e-06
-7.42104e-07
8.13229e-06
-7.38936e-07
8.15024e-06
-7.35059e-07
8.10866e-06
-7.32242e-07
7.96889e-06
-7.35108e-07
7.73699e-06
-7.45313e-07
7.55218e-06
-7.539e-07
7.61252e-06
-7.54094e-07
7.89626e-06
-7.50061e-07
8.19186e-06
-7.4632e-07
8.3841e-06
-7.44208e-07
6.92803e-06
-7.42812e-07
6.64019e-06
-7.41841e-07
6.35086e-06
-7.41134e-07
6.06805e-06
-7.40602e-07
5.79475e-06
-7.40193e-07
5.53224e-06
-7.39872e-07
5.28109e-06
-7.39615e-07
5.04146e-06
-7.39403e-07
4.8131e-06
-7.39226e-07
4.59551e-06
-7.39076e-07
4.388e-06
-7.3895e-07
4.18981e-06
-7.38844e-07
4.00026e-06
-7.38757e-07
3.81872e-06
-7.38687e-07
3.64471e-06
-7.38633e-07
3.47782e-06
-7.3859e-07
3.31776e-06
-7.38557e-07
3.16426e-06
-7.38531e-07
3.0171e-06
-7.38508e-07
2.87611e-06
-7.38487e-07
2.74109e-06
-7.38467e-07
2.61189e-06
-7.38448e-07
2.48835e-06
-7.3843e-07
2.37031e-06
-7.38413e-07
2.25761e-06
-7.38399e-07
2.1501e-06
-7.38392e-07
2.04761e-06
-7.38394e-07
1.94996e-06
-7.38404e-07
1.85697e-06
1.76828e-06
-7.40086e-07
7.8293e-06
-7.41955e-07
7.77491e-06
-7.44065e-07
7.74886e-06
-7.45972e-07
7.75139e-06
-7.47389e-07
7.77786e-06
-7.4817e-07
7.82301e-06
-7.48238e-07
7.88218e-06
-7.47579e-07
7.94988e-06
-7.46251e-07
8.01908e-06
-7.44314e-07
8.08204e-06
-7.41744e-07
8.12972e-06
-7.3842e-07
8.14691e-06
-7.34492e-07
8.10473e-06
-7.31801e-07
7.9662e-06
-7.3478e-07
7.73997e-06
-7.4478e-07
7.56218e-06
-7.53245e-07
7.62099e-06
-7.5361e-07
7.89663e-06
-7.4964e-07
8.18789e-06
-7.45776e-07
8.38024e-06
-7.43513e-07
6.92577e-06
-7.41966e-07
6.63864e-06
-7.4086e-07
6.34975e-06
-7.40036e-07
6.06722e-06
-7.39401e-07
5.79411e-06
-7.38903e-07
5.53174e-06
-7.38506e-07
5.2807e-06
-7.38182e-07
5.04114e-06
-7.37913e-07
4.81283e-06
-7.37687e-07
4.59528e-06
-7.37494e-07
4.3878e-06
-7.37331e-07
4.18965e-06
-7.37194e-07
4.00012e-06
-7.37081e-07
3.81861e-06
-7.36988e-07
3.64461e-06
-7.36914e-07
3.47775e-06
-7.36856e-07
3.3177e-06
-7.36809e-07
3.16421e-06
-7.36771e-07
3.01707e-06
-7.36739e-07
2.87608e-06
-7.36711e-07
2.74106e-06
-7.36685e-07
2.61186e-06
-7.36661e-07
2.48832e-06
-7.3664e-07
2.37028e-06
-7.36621e-07
2.25759e-06
-7.36607e-07
2.15009e-06
-7.366e-07
2.0476e-06
-7.36602e-07
1.94996e-06
-7.3661e-07
1.85698e-06
1.76828e-06
-7.40302e-07
7.8305e-06
-7.42173e-07
7.77678e-06
-7.44284e-07
7.75097e-06
-7.4619e-07
7.75329e-06
-7.47596e-07
7.77927e-06
-7.48346e-07
7.82376e-06
-7.48354e-07
7.88219e-06
-7.47607e-07
7.94914e-06
-7.46161e-07
8.01763e-06
-7.44084e-07
8.07996e-06
-7.41369e-07
8.12701e-06
-7.37928e-07
8.14347e-06
-7.33978e-07
8.10078e-06
-7.31396e-07
7.96361e-06
-7.34407e-07
7.74298e-06
-7.44097e-07
7.57187e-06
-7.52326e-07
7.62922e-06
-7.52778e-07
7.89708e-06
-7.48863e-07
8.18398e-06
-7.44911e-07
8.37629e-06
-7.42523e-07
6.92338e-06
-7.40848e-07
6.63697e-06
-7.39621e-07
6.34853e-06
-7.38685e-07
6.06629e-06
-7.37952e-07
5.79338e-06
-7.37366e-07
5.53115e-06
-7.36891e-07
5.28022e-06
-7.36499e-07
5.04074e-06
-7.3617e-07
4.81251e-06
-7.35891e-07
4.59501e-06
-7.35653e-07
4.38757e-06
-7.3545e-07
4.18945e-06
-7.35279e-07
3.99995e-06
-7.35136e-07
3.81846e-06
-7.35018e-07
3.6445e-06
-7.34923e-07
3.47765e-06
-7.34846e-07
3.31762e-06
-7.34784e-07
3.16415e-06
-7.34734e-07
3.01701e-06
-7.34691e-07
2.87603e-06
-7.34655e-07
2.74103e-06
-7.34623e-07
2.61183e-06
-7.34595e-07
2.48829e-06
-7.34571e-07
2.37026e-06
-7.34551e-07
2.25757e-06
-7.34537e-07
2.15007e-06
-7.34531e-07
2.04759e-06
-7.34533e-07
1.94996e-06
-7.34539e-07
1.85699e-06
1.76829e-06
-7.40641e-07
7.83168e-06
-7.42482e-07
7.77863e-06
-7.44558e-07
7.75304e-06
-7.46425e-07
7.75516e-06
-7.47788e-07
7.78063e-06
-7.48481e-07
7.82445e-06
-7.48416e-07
7.88213e-06
-7.47575e-07
7.9483e-06
-7.46017e-07
8.01608e-06
-7.43814e-07
8.07776e-06
-7.40975e-07
8.12417e-06
-7.37438e-07
8.13994e-06
-7.33472e-07
8.09682e-06
-7.3097e-07
7.96111e-06
-7.33948e-07
7.74596e-06
-7.43264e-07
7.58119e-06
-7.51186e-07
7.63714e-06
-7.5166e-07
7.89756e-06
-7.47781e-07
8.1801e-06
-7.43748e-07
8.37226e-06
-7.41251e-07
6.92089e-06
-7.3946e-07
6.63518e-06
-7.38119e-07
6.34719e-06
-7.37078e-07
6.06525e-06
-7.36248e-07
5.79255e-06
-7.35574e-07
5.53048e-06
-7.3502e-07
5.27967e-06
-7.34557e-07
5.04028e-06
-7.34166e-07
4.81212e-06
-7.33832e-07
4.59467e-06
-7.33545e-07
4.38728e-06
-7.333e-07
4.1892e-06
-7.33092e-07
3.99974e-06
-7.32918e-07
3.81829e-06
-7.32773e-07
3.64435e-06
-7.32655e-07
3.47753e-06
-7.32558e-07
3.31752e-06
-7.3248e-07
3.16407e-06
-7.32416e-07
3.01695e-06
-7.32362e-07
2.87598e-06
-7.32317e-07
2.74098e-06
-7.32279e-07
2.61179e-06
-7.32246e-07
2.48826e-06
-7.32219e-07
2.37023e-06
-7.32197e-07
2.25755e-06
-7.32183e-07
2.15006e-06
-7.32177e-07
2.04759e-06
-7.32178e-07
1.94996e-06
-7.32183e-07
1.85699e-06
1.76829e-06
-7.41096e-07
7.83281e-06
-7.42878e-07
7.78041e-06
-7.44887e-07
7.75505e-06
-7.46686e-07
7.75696e-06
-7.47977e-07
7.78192e-06
-7.48593e-07
7.82507e-06
-7.4844e-07
7.88198e-06
-7.475e-07
7.94736e-06
-7.45829e-07
8.01441e-06
-7.43508e-07
8.07544e-06
-7.40557e-07
8.12121e-06
-7.36934e-07
8.13631e-06
-7.3295e-07
8.09283e-06
-7.30496e-07
7.95866e-06
-7.33383e-07
7.74884e-06
-7.42275e-07
7.59008e-06
-7.49839e-07
7.64471e-06
-7.50288e-07
7.898e-06
-7.46422e-07
8.17623e-06
-7.42308e-07
8.36814e-06
-7.39706e-07
6.91828e-06
-7.37803e-07
6.63327e-06
-7.36353e-07
6.34574e-06
-7.35208e-07
6.0641e-06
-7.34282e-07
5.79162e-06
-7.3352e-07
5.52972e-06
-7.32885e-07
5.27903e-06
-7.32349e-07
5.03975e-06
-7.31893e-07
4.81166e-06
-7.31501e-07
4.59428e-06
-7.31164e-07
4.38695e-06
-7.30875e-07
4.18892e-06
-7.30628e-07
3.9995e-06
-7.30419e-07
3.81808e-06
-7.30246e-07
3.64418e-06
-7.30102e-07
3.47739e-06
-7.29984e-07
3.31741e-06
-7.29888e-07
3.16397e-06
-7.29809e-07
3.01687e-06
-7.29744e-07
2.87591e-06
-7.29689e-07
2.74092e-06
-7.29643e-07
2.61175e-06
-7.29605e-07
2.48822e-06
-7.29575e-07
2.3702e-06
-7.29552e-07
2.25753e-06
-7.29537e-07
2.15004e-06
-7.2953e-07
2.04758e-06
-7.2953e-07
1.94996e-06
-7.29534e-07
1.857e-06
1.7683e-06
-7.41662e-07
7.83387e-06
-7.4336e-07
7.78211e-06
-7.45275e-07
7.75697e-06
-7.46979e-07
7.75866e-06
-7.48175e-07
7.78312e-06
-7.48694e-07
7.82559e-06
-7.48439e-07
7.88172e-06
-7.47391e-07
7.94631e-06
-7.45607e-07
8.01262e-06
-7.43172e-07
8.073e-06
-7.40111e-07
8.11815e-06
-7.36405e-07
8.13261e-06
-7.32395e-07
8.08882e-06
-7.29958e-07
7.95622e-06
-7.327e-07
7.75158e-06
-7.41127e-07
7.59851e-06
-7.48295e-07
7.65187e-06
-7.48677e-07
7.89839e-06
-7.44805e-07
8.17236e-06
-7.40603e-07
8.36394e-06
-7.37895e-07
6.91558e-06
-7.35881e-07
6.63126e-06
-7.34322e-07
6.34418e-06
-7.33072e-07
6.06285e-06
-7.32048e-07
5.7906e-06
-7.31195e-07
5.52887e-06
-7.30477e-07
5.27832e-06
-7.29866e-07
5.03914e-06
-7.29343e-07
4.81114e-06
-7.28891e-07
4.59383e-06
-7.28501e-07
4.38656e-06
-7.28164e-07
4.18858e-06
-7.27876e-07
3.99921e-06
-7.27632e-07
3.81784e-06
-7.27427e-07
3.64397e-06
-7.27257e-07
3.47722e-06
-7.27116e-07
3.31726e-06
-7.27001e-07
3.16385e-06
-7.26906e-07
3.01677e-06
-7.26827e-07
2.87583e-06
-7.26762e-07
2.74086e-06
-7.26709e-07
2.61169e-06
-7.26665e-07
2.48818e-06
-7.26631e-07
2.37017e-06
-7.26605e-07
2.2575e-06
-7.26588e-07
2.15002e-06
-7.2658e-07
2.04757e-06
-7.26579e-07
1.94996e-06
-7.26582e-07
1.857e-06
1.7683e-06
-7.42335e-07
7.83485e-06
-7.43927e-07
7.7837e-06
-7.45725e-07
7.75877e-06
-7.47311e-07
7.76025e-06
-7.48391e-07
7.7842e-06
-7.48794e-07
7.82599e-06
-7.48424e-07
7.88135e-06
-7.47259e-07
7.94514e-06
-7.45358e-07
8.01072e-06
-7.42805e-07
8.07045e-06
-7.39636e-07
8.11498e-06
-7.35843e-07
8.12881e-06
-7.31794e-07
8.08477e-06
-7.29341e-07
7.95377e-06
-7.31894e-07
7.75414e-06
-7.3982e-07
7.60643e-06
-7.46559e-07
7.65861e-06
-7.46841e-07
7.89867e-06
-7.42943e-07
8.16846e-06
-7.38645e-07
8.35964e-06
-7.35824e-07
6.91276e-06
-7.33695e-07
6.62913e-06
-7.32024e-07
6.34251e-06
-7.30668e-07
6.06149e-06
-7.29542e-07
5.78947e-06
-7.28596e-07
5.52792e-06
-7.27791e-07
5.27751e-06
-7.27102e-07
5.03845e-06
-7.26508e-07
4.81054e-06
-7.25993e-07
4.59332e-06
-7.25547e-07
4.38611e-06
-7.25161e-07
4.18819e-06
-7.24829e-07
3.99888e-06
-7.24547e-07
3.81755e-06
-7.24309e-07
3.64373e-06
-7.2411e-07
3.47702e-06
-7.23946e-07
3.3171e-06
-7.2381e-07
3.16372e-06
-7.23698e-07
3.01666e-06
-7.23605e-07
2.87574e-06
-7.23529e-07
2.74078e-06
-7.23466e-07
2.61163e-06
-7.23416e-07
2.48813e-06
-7.23377e-07
2.37013e-06
-7.23348e-07
2.25747e-06
-7.23329e-07
2.15e-06
-7.23319e-07
2.04756e-06
-7.23316e-07
1.94996e-06
-7.23318e-07
1.857e-06
1.7683e-06
-7.43115e-07
7.83573e-06
-7.4458e-07
7.78516e-06
-7.46241e-07
7.76043e-06
-7.47688e-07
7.7617e-06
-7.48632e-07
7.78514e-06
-7.48903e-07
7.82626e-06
-7.48404e-07
7.88085e-06
-7.47112e-07
7.94385e-06
-7.45086e-07
8.00869e-06
-7.42411e-07
8.06778e-06
-7.39127e-07
8.1117e-06
-7.3524e-07
8.12493e-06
-7.31136e-07
8.08067e-06
-7.28636e-07
7.95127e-06
-7.30962e-07
7.75646e-06
-7.3836e-07
7.61383e-06
-7.44642e-07
7.66489e-06
-7.44791e-07
7.89882e-06
-7.40849e-07
8.16452e-06
-7.36441e-07
8.35523e-06
-7.335e-07
6.90981e-06
-7.31248e-07
6.62688e-06
-7.2946e-07
6.34072e-06
-7.27991e-07
6.06002e-06
-7.2676e-07
5.78824e-06
-7.25715e-07
5.52687e-06
-7.24821e-07
5.27662e-06
-7.2405e-07
5.03768e-06
-7.23382e-07
4.80987e-06
-7.228e-07
4.59273e-06
-7.22295e-07
4.3856e-06
-7.21856e-07
4.18775e-06
-7.21479e-07
3.9985e-06
-7.21156e-07
3.81723e-06
-7.20883e-07
3.64346e-06
-7.20654e-07
3.47679e-06
-7.20464e-07
3.31691e-06
-7.20306e-07
3.16356e-06
-7.20175e-07
3.01653e-06
-7.20068e-07
2.87563e-06
-7.19979e-07
2.7407e-06
-7.19907e-07
2.61156e-06
-7.1985e-07
2.48807e-06
-7.19805e-07
2.37008e-06
-7.19772e-07
2.25744e-06
-7.19751e-07
2.14998e-06
-7.19739e-07
2.04755e-06
-7.19735e-07
1.94995e-06
-7.19736e-07
1.857e-06
1.76831e-06
-7.44001e-07
7.83649e-06
-7.45323e-07
7.78649e-06
-7.46828e-07
7.76193e-06
-7.48118e-07
7.76299e-06
-7.4891e-07
7.78593e-06
-7.49032e-07
7.82638e-06
-7.48389e-07
7.88021e-06
-7.46959e-07
7.94242e-06
-7.44797e-07
8.00653e-06
-7.4199e-07
8.06497e-06
-7.38582e-07
8.10829e-06
-7.34587e-07
8.12093e-06
-7.3041e-07
8.07649e-06
-7.27837e-07
7.9487e-06
-7.29905e-07
7.75853e-06
-7.36758e-07
7.62068e-06
-7.42558e-07
7.67069e-06
-7.4254e-07
7.8988e-06
-7.38528e-07
8.16051e-06
-7.33995e-07
8.3507e-06
-7.30923e-07
6.90674e-06
-7.2854e-07
6.62449e-06
-7.26626e-07
6.33881e-06
-7.25039e-07
6.05844e-06
-7.23697e-07
5.7869e-06
-7.22549e-07
5.52573e-06
-7.2156e-07
5.27563e-06
-7.20703e-07
5.03682e-06
-7.19956e-07
4.80913e-06
-7.19305e-07
4.59208e-06
-7.18737e-07
4.38503e-06
-7.18243e-07
4.18726e-06
-7.17816e-07
3.99807e-06
-7.1745e-07
3.81686e-06
-7.1714e-07
3.64315e-06
-7.16879e-07
3.47653e-06
-7.16661e-07
3.31669e-06
-7.1648e-07
3.16338e-06
-7.1633e-07
3.01638e-06
-7.16206e-07
2.87551e-06
-7.16105e-07
2.74059e-06
-7.16022e-07
2.61148e-06
-7.15957e-07
2.48801e-06
-7.15906e-07
2.37003e-06
-7.15869e-07
2.2574e-06
-7.15845e-07
2.14996e-06
-7.15831e-07
2.04754e-06
-7.15827e-07
1.94995e-06
-7.15828e-07
1.857e-06
1.76831e-06
-7.44996e-07
7.83711e-06
-7.4616e-07
7.78765e-06
-7.47494e-07
7.76327e-06
-7.4861e-07
7.7641e-06
-7.49232e-07
7.78655e-06
-7.4919e-07
7.82634e-06
-7.48388e-07
7.87941e-06
-7.46805e-07
7.94084e-06
-7.44495e-07
8.00422e-06
-7.41544e-07
8.06202e-06
-7.37997e-07
8.10474e-06
-7.33878e-07
8.11681e-06
-7.29608e-07
8.07222e-06
-7.26939e-07
7.94603e-06
-7.28729e-07
7.76032e-06
-7.35026e-07
7.62698e-06
-7.40322e-07
7.67599e-06
-7.40096e-07
7.89857e-06
-7.35984e-07
8.1564e-06
-7.31309e-07
8.34602e-06
-7.28093e-07
6.90353e-06
-7.25569e-07
6.62197e-06
-7.23521e-07
6.33676e-06
-7.21808e-07
6.05672e-06
-7.20349e-07
5.78544e-06
-7.19092e-07
5.52447e-06
-7.18002e-07
5.27454e-06
-7.17054e-07
5.03587e-06
-7.16225e-07
4.8083e-06
-7.15499e-07
4.59136e-06
-7.14864e-07
4.3844e-06
-7.1431e-07
4.1867e-06
-7.13831e-07
3.99759e-06
-7.1342e-07
3.81645e-06
-7.1307e-07
3.6428e-06
-7.12774e-07
3.47623e-06
-7.12526e-07
3.31644e-06
-7.1232e-07
3.16318e-06
-7.12149e-07
3.01621e-06
-7.12009e-07
2.87537e-06
-7.11893e-07
2.74048e-06
-7.118e-07
2.61138e-06
-7.11726e-07
2.48793e-06
-7.1167e-07
2.36998e-06
-7.1163e-07
2.25736e-06
-7.11603e-07
2.14993e-06
-7.11589e-07
2.04752e-06
-7.11585e-07
1.94995e-06
-7.11587e-07
1.85701e-06
1.76831e-06
-7.46103e-07
7.83759e-06
-7.47096e-07
7.78864e-06
-7.48243e-07
7.76441e-06
-7.49171e-07
7.76503e-06
-7.49607e-07
7.78699e-06
-7.49384e-07
7.82612e-06
-7.48408e-07
7.87843e-06
-7.46657e-07
7.93909e-06
-7.44183e-07
8.00175e-06
-7.41072e-07
8.05891e-06
-7.37369e-07
8.10104e-06
-7.33108e-07
8.11255e-06
-7.28725e-07
8.06784e-06
-7.25938e-07
7.94324e-06
-7.27436e-07
7.76182e-06
-7.33172e-07
7.63272e-06
-7.37942e-07
7.68076e-06
-7.37466e-07
7.8981e-06
-7.33219e-07
8.15215e-06
-7.28379e-07
8.34118e-06
-7.25007e-07
6.90015e-06
-7.22331e-07
6.61929e-06
-7.20141e-07
6.33457e-06
-7.18294e-07
6.05488e-06
-7.16709e-07
5.78385e-06
-7.15337e-07
5.5231e-06
-7.14141e-07
5.27334e-06
-7.13096e-07
5.03482e-06
-7.12179e-07
4.80738e-06
-7.11373e-07
4.59055e-06
-7.10667e-07
4.38369e-06
-7.1005e-07
4.18609e-06
-7.09515e-07
3.99705e-06
-7.09054e-07
3.81599e-06
-7.08661e-07
3.64241e-06
-7.08328e-07
3.4759e-06
-7.08049e-07
3.31617e-06
-7.07816e-07
3.16294e-06
-7.07623e-07
3.01602e-06
-7.07464e-07
2.87521e-06
-7.07334e-07
2.74035e-06
-7.0723e-07
2.61128e-06
-7.07148e-07
2.48785e-06
-7.07086e-07
2.36992e-06
-7.07043e-07
2.25732e-06
-7.07016e-07
2.14991e-06
-7.07003e-07
2.04751e-06
-7.07e-07
1.94994e-06
-7.07004e-07
1.85701e-06
1.76832e-06
-7.47326e-07
7.83791e-06
-7.48135e-07
7.78945e-06
-7.49083e-07
7.76536e-06
-7.49808e-07
7.76576e-06
-7.50042e-07
7.78722e-06
-7.49623e-07
7.8257e-06
-7.48456e-07
7.87726e-06
-7.4652e-07
7.93715e-06
-7.43866e-07
7.99909e-06
-7.40577e-07
8.05562e-06
-7.367e-07
8.09716e-06
-7.32276e-07
8.10813e-06
-7.27761e-07
8.06332e-06
-7.24836e-07
7.94031e-06
-7.26027e-07
7.76301e-06
-7.31197e-07
7.63789e-06
-7.35422e-07
7.68499e-06
-7.34653e-07
7.89733e-06
-7.30235e-07
8.14773e-06
-7.25206e-07
8.33616e-06
-7.21664e-07
6.89661e-06
-7.18824e-07
6.61645e-06
-7.1648e-07
6.33222e-06
-7.14491e-07
6.05289e-06
-7.12773e-07
5.78214e-06
-7.11278e-07
5.5216e-06
-7.0997e-07
5.27203e-06
-7.08821e-07
5.03367e-06
-7.07811e-07
4.80637e-06
-7.0692e-07
4.58966e-06
-7.06137e-07
4.38291e-06
-7.05452e-07
4.1854e-06
-7.04856e-07
3.99646e-06
-7.04342e-07
3.81548e-06
-7.03903e-07
3.64197e-06
-7.0353e-07
3.47553e-06
-7.03217e-07
3.31585e-06
-7.02956e-07
3.16268e-06
-7.02739e-07
3.0158e-06
-7.02561e-07
2.87503e-06
-7.02416e-07
2.74021e-06
-7.023e-07
2.61117e-06
-7.0221e-07
2.48776e-06
-7.02144e-07
2.36985e-06
-7.02098e-07
2.25727e-06
-7.02072e-07
2.14988e-06
-7.0206e-07
2.0475e-06
-7.0206e-07
1.94994e-06
-7.02066e-07
1.85702e-06
1.76832e-06
-7.48666e-07
7.83806e-06
-7.4928e-07
7.79007e-06
-7.50017e-07
7.7661e-06
-7.50524e-07
7.76626e-06
-7.50543e-07
7.78724e-06
-7.49912e-07
7.82507e-06
-7.48538e-07
7.87589e-06
-7.464e-07
7.93501e-06
-7.43548e-07
7.99624e-06
-7.40063e-07
8.05213e-06
-7.35991e-07
8.09309e-06
-7.31386e-07
8.10352e-06
-7.26718e-07
8.05866e-06
-7.23632e-07
7.93723e-06
-7.24498e-07
7.76388e-06
-7.29097e-07
7.64249e-06
-7.3276e-07
7.68865e-06
-7.31661e-07
7.89623e-06
-7.27033e-07
8.1431e-06
-7.21791e-07
8.33091e-06
-7.18062e-07
6.89288e-06
-7.15045e-07
6.61344e-06
-7.12537e-07
6.32972e-06
-7.10394e-07
6.05074e-06
-7.08535e-07
5.78028e-06
-7.06909e-07
5.51998e-06
-7.05481e-07
5.27061e-06
-7.04222e-07
5.03241e-06
-7.03111e-07
4.80526e-06
-7.0213e-07
4.58868e-06
-7.01265e-07
4.38204e-06
-7.00507e-07
4.18464e-06
-6.99846e-07
3.9958e-06
-6.99275e-07
3.81491e-06
-6.98786e-07
3.64148e-06
-6.9837e-07
3.47511e-06
-6.98021e-07
3.3155e-06
-6.97728e-07
3.16239e-06
-6.97486e-07
3.01556e-06
-6.97288e-07
2.87483e-06
-6.97127e-07
2.74004e-06
-6.96999e-07
2.61104e-06
-6.96901e-07
2.48766e-06
-6.9683e-07
2.36978e-06
-6.96783e-07
2.25723e-06
-6.96757e-07
2.14985e-06
-6.96747e-07
2.04749e-06
-6.9675e-07
1.94995e-06
-6.96759e-07
1.85702e-06
1.76833e-06
-7.50126e-07
7.83804e-06
-7.50536e-07
7.79048e-06
-7.5105e-07
7.76661e-06
-7.51327e-07
7.76654e-06
-7.51116e-07
7.78703e-06
-7.50257e-07
7.82421e-06
-7.48661e-07
7.87429e-06
-7.46305e-07
7.93266e-06
-7.43237e-07
7.99317e-06
-7.39536e-07
8.04843e-06
-7.3525e-07
8.08881e-06
-7.30442e-07
8.09871e-06
-7.25599e-07
8.05382e-06
-7.22327e-07
7.93396e-06
-7.22847e-07
7.7644e-06
-7.26866e-07
7.64651e-06
-7.29953e-07
7.69174e-06
-7.2849e-07
7.89477e-06
-7.23618e-07
8.13823e-06
-7.18135e-07
8.32543e-06
-7.14202e-07
6.88895e-06
-7.10993e-07
6.61023e-06
-7.08306e-07
6.32703e-06
-7.05999e-07
6.04844e-06
-7.03988e-07
5.77827e-06
-7.02223e-07
5.51821e-06
-7.00666e-07
5.26905e-06
-6.9929e-07
5.03104e-06
-6.98072e-07
4.80404e-06
-6.96993e-07
4.5876e-06
-6.96041e-07
4.38109e-06
-6.95204e-07
4.18381e-06
-6.94474e-07
3.99507e-06
-6.93841e-07
3.81427e-06
-6.93298e-07
3.64093e-06
-6.92837e-07
3.47465e-06
-6.92448e-07
3.31511e-06
-6.92123e-07
3.16206e-06
-6.91854e-07
3.01529e-06
-6.91634e-07
2.87461e-06
-6.91456e-07
2.73987e-06
-6.91316e-07
2.6109e-06
-6.91209e-07
2.48756e-06
-6.91133e-07
2.3697e-06
-6.91084e-07
2.25718e-06
-6.91058e-07
2.14983e-06
-6.9105e-07
2.04748e-06
-6.91056e-07
1.94995e-06
-6.91067e-07
1.85704e-06
1.76834e-06
-7.51711e-07
7.83783e-06
-7.51906e-07
7.79067e-06
-7.52185e-07
7.76689e-06
-7.52221e-07
7.76658e-06
-7.51766e-07
7.78658e-06
-7.50666e-07
7.82311e-06
-7.48831e-07
7.87246e-06
-7.46239e-07
7.93007e-06
-7.42937e-07
7.98987e-06
-7.39002e-07
8.0445e-06
-7.34482e-07
8.08429e-06
-7.29452e-07
8.09368e-06
-7.2441e-07
8.04877e-06
-7.20921e-07
7.93047e-06
-7.2107e-07
7.76454e-06
-7.24501e-07
7.64994e-06
-7.27e-07
7.69423e-06
-7.25143e-07
7.89291e-06
-7.19993e-07
8.13308e-06
-7.1424e-07
8.31968e-06
-7.10084e-07
6.88479e-06
-7.06665e-07
6.60681e-06
-7.03787e-07
6.32415e-06
-7.01302e-07
6.04595e-06
-6.99128e-07
5.77609e-06
-6.97213e-07
5.51629e-06
-6.95519e-07
5.26735e-06
-6.94017e-07
5.02953e-06
-6.92683e-07
4.8027e-06
-6.91501e-07
4.58642e-06
-6.90454e-07
4.38004e-06
-6.89533e-07
4.18289e-06
-6.88728e-07
3.99426e-06
-6.8803e-07
3.81358e-06
-6.87431e-07
3.64033e-06
-6.8692e-07
3.47414e-06
-6.86489e-07
3.31468e-06
-6.86129e-07
3.1617e-06
-6.85831e-07
3.01499e-06
-6.85587e-07
2.87437e-06
-6.85391e-07
2.73967e-06
-6.85238e-07
2.61074e-06
-6.85122e-07
2.48744e-06
-6.8504e-07
2.36962e-06
-6.84988e-07
2.25713e-06
-6.84962e-07
2.1498e-06
-6.84956e-07
2.04748e-06
-6.84963e-07
1.94996e-06
-6.84977e-07
1.85705e-06
1.76835e-06
-7.53425e-07
7.83743e-06
-7.53394e-07
7.79064e-06
-7.5343e-07
7.76693e-06
-7.53212e-07
7.76636e-06
-7.52501e-07
7.78586e-06
-7.51144e-07
7.82175e-06
-7.49055e-07
7.87037e-06
-7.4621e-07
7.92722e-06
-7.42656e-07
7.98632e-06
-7.38467e-07
8.04031e-06
-7.33694e-07
8.07952e-06
-7.28419e-07
8.08841e-06
-7.23152e-07
8.04351e-06
-7.19416e-07
7.92674e-06
-7.19169e-07
7.7643e-06
-7.22003e-07
7.65277e-06
-7.23902e-07
7.69613e-06
-7.21622e-07
7.89063e-06
-7.1616e-07
8.12762e-06
-7.10108e-07
8.31362e-06
-7.05707e-07
6.88039e-06
-7.02061e-07
6.60316e-06
-6.98974e-07
6.32106e-06
-6.96298e-07
6.04328e-06
-6.93949e-07
5.77374e-06
-6.91872e-07
5.51421e-06
-6.9003e-07
5.26551e-06
-6.88393e-07
5.0279e-06
-6.86936e-07
4.80125e-06
-6.85642e-07
4.58512e-06
-6.84495e-07
4.3789e-06
-6.83485e-07
4.18187e-06
-6.826e-07
3.99338e-06
-6.81831e-07
3.81281e-06
-6.81171e-07
3.63967e-06
-6.80607e-07
3.47358e-06
-6.80131e-07
3.3142e-06
-6.79733e-07
3.1613e-06
-6.79404e-07
3.01466e-06
-6.79136e-07
2.8741e-06
-6.7892e-07
2.73945e-06
-6.78752e-07
2.61057e-06
-6.78626e-07
2.48731e-06
-6.78538e-07
2.36953e-06
-6.78483e-07
2.25707e-06
-6.78456e-07
2.14977e-06
-6.78451e-07
2.04747e-06
-6.7846e-07
1.94997e-06
-6.78475e-07
1.85706e-06
1.76836e-06
-7.55272e-07
7.83683e-06
-7.55008e-07
7.79037e-06
-7.5479e-07
7.76671e-06
-7.54308e-07
7.76588e-06
-7.53328e-07
7.78488e-06
-7.517e-07
7.82012e-06
-7.4934e-07
7.86801e-06
-7.46226e-07
7.92411e-06
-7.42401e-07
7.9825e-06
-7.37939e-07
8.03585e-06
-7.32891e-07
8.07447e-06
-7.27349e-07
8.08287e-06
-7.21829e-07
8.03799e-06
-7.17815e-07
7.92272e-06
-7.17147e-07
7.76363e-06
-7.19375e-07
7.655e-06
-7.20662e-07
7.69742e-06
-7.17929e-07
7.88789e-06
-7.12118e-07
8.12181e-06
-7.05737e-07
8.30724e-06
-7.01069e-07
6.87572e-06
-6.97177e-07
6.59927e-06
-6.93864e-07
6.31775e-06
-6.90982e-07
6.04039e-06
-6.88443e-07
5.7712e-06
-6.86193e-07
5.51196e-06
-6.84191e-07
5.26351e-06
-6.82409e-07
5.02611e-06
-6.80821e-07
4.79966e-06
-6.79407e-07
4.58371e-06
-6.78153e-07
4.37764e-06
-6.77046e-07
4.18077e-06
-6.76076e-07
3.99241e-06
-6.75232e-07
3.81196e-06
-6.74506e-07
3.63895e-06
-6.73886e-07
3.47296e-06
-6.73362e-07
3.31368e-06
-6.72924e-07
3.16086e-06
-6.72561e-07
3.0143e-06
-6.72266e-07
2.8738e-06
-6.7203e-07
2.73922e-06
-6.71846e-07
2.61039e-06
-6.71709e-07
2.48718e-06
-6.71614e-07
2.36943e-06
-6.71555e-07
2.25701e-06
-6.71527e-07
2.14974e-06
-6.71522e-07
2.04746e-06
-6.71533e-07
1.94998e-06
-6.7155e-07
1.85708e-06
1.76837e-06
-7.5726e-07
7.83601e-06
-7.56755e-07
7.78987e-06
-7.56274e-07
7.76623e-06
-7.55516e-07
7.76512e-06
-7.54254e-07
7.78362e-06
-7.52342e-07
7.81821e-06
-7.49696e-07
7.86537e-06
-7.46294e-07
7.92071e-06
-7.4218e-07
7.97838e-06
-7.37423e-07
8.03109e-06
-7.32079e-07
8.06912e-06
-7.26246e-07
8.07703e-06
-7.20446e-07
8.03219e-06
-7.16122e-07
7.9184e-06
-7.15009e-07
7.76252e-06
-7.1662e-07
7.65661e-06
-7.17281e-07
7.69808e-06
-7.14063e-07
7.88468e-06
-7.07867e-07
8.11561e-06
-7.01123e-07
8.3005e-06
-6.96165e-07
6.87077e-06
-6.92007e-07
6.59511e-06
-6.88451e-07
6.31419e-06
-6.85346e-07
6.03729e-06
-6.82603e-07
5.76846e-06
-6.80166e-07
5.50953e-06
-6.77995e-07
5.26134e-06
-6.76057e-07
5.02418e-06
-6.74327e-07
4.79793e-06
-6.72785e-07
4.58216e-06
-6.71415e-07
4.37627e-06
-6.70205e-07
4.17956e-06
-6.69143e-07
3.99134e-06
-6.68219e-07
3.81104e-06
-6.67423e-07
3.63815e-06
-6.66742e-07
3.47227e-06
-6.66166e-07
3.3131e-06
-6.65685e-07
3.16038e-06
-6.65287e-07
3.0139e-06
-6.64963e-07
2.87348e-06
-6.64704e-07
2.73896e-06
-6.64504e-07
2.61019e-06
-6.64355e-07
2.48703e-06
-6.64253e-07
2.36933e-06
-6.6419e-07
2.25695e-06
-6.6416e-07
2.14971e-06
-6.64156e-07
2.04746e-06
-6.64168e-07
1.94999e-06
-6.64187e-07
1.8571e-06
1.76839e-06
-7.59396e-07
7.83497e-06
-7.58641e-07
7.78911e-06
-7.57888e-07
7.76548e-06
-7.56844e-07
7.76407e-06
-7.55289e-07
7.78207e-06
-7.53078e-07
7.816e-06
-7.5013e-07
7.86242e-06
-7.46423e-07
7.917e-06
-7.41998e-07
7.97396e-06
-7.36927e-07
8.02602e-06
-7.31264e-07
8.06346e-06
-7.25115e-07
8.07089e-06
-7.19006e-07
8.02608e-06
-7.14341e-07
7.91373e-06
-7.1276e-07
7.76094e-06
-7.13741e-07
7.65759e-06
-7.1376e-07
7.6981e-06
-7.10025e-07
7.88094e-06
-7.03405e-07
8.10899e-06
-6.96263e-07
8.29336e-06
-6.90992e-07
6.86549e-06
-6.86547e-07
6.59066e-06
-6.82729e-07
6.31037e-06
-6.79384e-07
6.03394e-06
-6.76422e-07
5.7655e-06
-6.73785e-07
5.50689e-06
-6.7143e-07
5.25898e-06
-6.69324e-07
5.02207e-06
-6.67443e-07
4.79604e-06
-6.65763e-07
4.58048e-06
-6.6427e-07
4.37478e-06
-6.62949e-07
4.17823e-06
-6.61789e-07
3.99018e-06
-6.60778e-07
3.81003e-06
-6.59906e-07
3.63728e-06
-6.59161e-07
3.47153e-06
-6.5853e-07
3.31247e-06
-6.58002e-07
3.15985e-06
-6.57565e-07
3.01346e-06
-6.57211e-07
2.87312e-06
-6.56928e-07
2.73867e-06
-6.5671e-07
2.60997e-06
-6.56549e-07
2.48686e-06
-6.56438e-07
2.36922e-06
-6.56371e-07
2.25688e-06
-6.56339e-07
2.14968e-06
-6.56336e-07