/*--------------------------------*- C++ -*----------------------------------*\
  =========                 |
  \\      /  F ield         | OpenFOAM: The Open Source CFD Toolbox
   \\    /   O peration     | Website:  https://openfoam.org
    \\  /    A nd           | Version:  9
     \\/     M anipulation  |
\*---------------------------------------------------------------------------*/
FoamFile
{
    format      ascii;
    class       volScalarField;
    location    "0.1";
    object      rAU;
}
// * * * * * * * * * * * * * * * * * * * * * * * * * * * * * * * * * * * * * //

dimensions      [-1 3 1 0 0 0 0];

internalField   nonuniform List<scalar> 
5000
(
2.14604e-05
2.15201e-05
2.15486e-05
2.15453e-05
2.1516e-05
2.14671e-05
2.14037e-05
2.1332e-05
2.12595e-05
2.11937e-05
2.1143e-05
2.1121e-05
2.11563e-05
2.12956e-05
2.15559e-05
2.17911e-05
2.17253e-05
2.13921e-05
2.10777e-05
2.08846e-05
2.06834e-05
2.05983e-05
2.05345e-05
2.04752e-05
2.04168e-05
2.03571e-05
2.02946e-05
2.02279e-05
2.01564e-05
2.00797e-05
1.99978e-05
1.99107e-05
1.98188e-05
1.97221e-05
1.96205e-05
1.95137e-05
1.94015e-05
1.92832e-05
1.91582e-05
1.90259e-05
1.88855e-05
1.87362e-05
1.85772e-05
1.84077e-05
1.82267e-05
1.80334e-05
1.78271e-05
1.7607e-05
1.73724e-05
1.43836e-05
2.8091e-05
2.81287e-05
2.81463e-05
2.81438e-05
2.81247e-05
2.80932e-05
2.80525e-05
2.80064e-05
2.79597e-05
2.79174e-05
2.78849e-05
2.78715e-05
2.78959e-05
2.79878e-05
2.81539e-05
2.82978e-05
2.82536e-05
2.80431e-05
2.7841e-05
2.77067e-05
2.74472e-05
2.73417e-05
2.72561e-05
2.71705e-05
2.70821e-05
2.69891e-05
2.68904e-05
2.67849e-05
2.66717e-05
2.65503e-05
2.64204e-05
2.62818e-05
2.61342e-05
2.59772e-05
2.58105e-05
2.56334e-05
2.54454e-05
2.52456e-05
2.50333e-05
2.48075e-05
2.45674e-05
2.43121e-05
2.40406e-05
2.3752e-05
2.34455e-05
2.31204e-05
2.27758e-05
2.24112e-05
2.20261e-05
1.74294e-05
2.80911e-05
2.81284e-05
2.81457e-05
2.81429e-05
2.81238e-05
2.80924e-05
2.80518e-05
2.8006e-05
2.79596e-05
2.79177e-05
2.78857e-05
2.7873e-05
2.78984e-05
2.79906e-05
2.81541e-05
2.82931e-05
2.82487e-05
2.80422e-05
2.78418e-05
2.77074e-05
2.74475e-05
2.7342e-05
2.72565e-05
2.71709e-05
2.70825e-05
2.69896e-05
2.6891e-05
2.67855e-05
2.66723e-05
2.6551e-05
2.64212e-05
2.62826e-05
2.6135e-05
2.59781e-05
2.58114e-05
2.56344e-05
2.54464e-05
2.52466e-05
2.50343e-05
2.48086e-05
2.45685e-05
2.43132e-05
2.40418e-05
2.37532e-05
2.34468e-05
2.31216e-05
2.27771e-05
2.24125e-05
2.20274e-05
1.74308e-05
2.8091e-05
2.81277e-05
2.81447e-05
2.81419e-05
2.81229e-05
2.80916e-05
2.80513e-05
2.80058e-05
2.79598e-05
2.79183e-05
2.78868e-05
2.78748e-05
2.79011e-05
2.79933e-05
2.81537e-05
2.82873e-05
2.82433e-05
2.80417e-05
2.78435e-05
2.77088e-05
2.74484e-05
2.73426e-05
2.7257e-05
2.71715e-05
2.70831e-05
2.69903e-05
2.68917e-05
2.67863e-05
2.66732e-05
2.65519e-05
2.64221e-05
2.62836e-05
2.61361e-05
2.59792e-05
2.58126e-05
2.56356e-05
2.54477e-05
2.5248e-05
2.50357e-05
2.481e-05
2.457e-05
2.43147e-05
2.40433e-05
2.37548e-05
2.34484e-05
2.31233e-05
2.27788e-05
2.24142e-05
2.20291e-05
1.74327e-05
2.80906e-05
2.81268e-05
2.81435e-05
2.81407e-05
2.81219e-05
2.80908e-05
2.80509e-05
2.80058e-05
2.79602e-05
2.79191e-05
2.78882e-05
2.78768e-05
2.79038e-05
2.79958e-05
2.81527e-05
2.82811e-05
2.82378e-05
2.80415e-05
2.78456e-05
2.77107e-05
2.74497e-05
2.73436e-05
2.72579e-05
2.71724e-05
2.7084e-05
2.69913e-05
2.68927e-05
2.67873e-05
2.66743e-05
2.65531e-05
2.64234e-05
2.6285e-05
2.61375e-05
2.59807e-05
2.58141e-05
2.56372e-05
2.54493e-05
2.52497e-05
2.50375e-05
2.48119e-05
2.45719e-05
2.43167e-05
2.40453e-05
2.37569e-05
2.34506e-05
2.31255e-05
2.2781e-05
2.24165e-05
2.20314e-05
1.74352e-05
2.809e-05
2.81257e-05
2.81422e-05
2.81394e-05
2.81208e-05
2.80901e-05
2.80506e-05
2.80059e-05
2.79608e-05
2.79202e-05
2.78897e-05
2.7879e-05
2.79067e-05
2.79981e-05
2.81513e-05
2.82747e-05
2.82323e-05
2.80414e-05
2.78482e-05
2.77131e-05
2.74514e-05
2.7345e-05
2.72592e-05
2.71735e-05
2.70852e-05
2.69925e-05
2.6894e-05
2.67887e-05
2.66758e-05
2.65547e-05
2.6425e-05
2.62866e-05
2.61392e-05
2.59825e-05
2.5816e-05
2.56392e-05
2.54514e-05
2.52518e-05
2.50397e-05
2.48141e-05
2.45742e-05
2.43191e-05
2.40478e-05
2.37595e-05
2.34532e-05
2.31282e-05
2.27837e-05
2.24192e-05
2.20341e-05
1.74383e-05
2.80892e-05
2.81244e-05
2.81408e-05
2.81381e-05
2.81197e-05
2.80894e-05
2.80503e-05
2.80062e-05
2.79615e-05
2.79214e-05
2.78915e-05
2.78814e-05
2.79095e-05
2.80003e-05
2.81498e-05
2.82683e-05
2.82269e-05
2.80415e-05
2.7851e-05
2.77158e-05
2.74535e-05
2.73467e-05
2.72608e-05
2.71751e-05
2.70867e-05
2.6994e-05
2.68956e-05
2.67904e-05
2.66775e-05
2.65565e-05
2.6427e-05
2.62887e-05
2.61413e-05
2.59847e-05
2.58183e-05
2.56415e-05
2.54538e-05
2.52543e-05
2.50423e-05
2.48168e-05
2.4577e-05
2.4322e-05
2.40508e-05
2.37625e-05
2.34563e-05
2.31313e-05
2.27869e-05
2.24224e-05
2.20374e-05
1.74419e-05
2.80883e-05
2.81231e-05
2.81392e-05
2.81367e-05
2.81187e-05
2.80888e-05
2.80502e-05
2.80066e-05
2.79624e-05
2.79228e-05
2.78933e-05
2.78838e-05
2.79123e-05
2.80023e-05
2.81482e-05
2.82622e-05
2.82219e-05
2.80417e-05
2.7854e-05
2.77188e-05
2.7456e-05
2.73488e-05
2.72627e-05
2.71769e-05
2.70886e-05
2.69959e-05
2.68975e-05
2.67924e-05
2.66796e-05
2.65587e-05
2.64292e-05
2.6291e-05
2.61438e-05
2.59873e-05
2.5821e-05
2.56443e-05
2.54567e-05
2.52573e-05
2.50454e-05
2.482e-05
2.45803e-05
2.43253e-05
2.40542e-05
2.3766e-05
2.34599e-05
2.3135e-05
2.27907e-05
2.24262e-05
2.20412e-05
1.74461e-05
2.80873e-05
2.81217e-05
2.81377e-05
2.81353e-05
2.81176e-05
2.80882e-05
2.80501e-05
2.8007e-05
2.79634e-05
2.79242e-05
2.78953e-05
2.78863e-05
2.79152e-05
2.80043e-05
2.81467e-05
2.82564e-05
2.82171e-05
2.8042e-05
2.78572e-05
2.7722e-05
2.74587e-05
2.73512e-05
2.72649e-05
2.71791e-05
2.70907e-05
2.69981e-05
2.68998e-05
2.67947e-05
2.6682e-05
2.65612e-05
2.64319e-05
2.62938e-05
2.61467e-05
2.59902e-05
2.5824e-05
2.56475e-05
2.546e-05
2.52607e-05
2.50489e-05
2.48236e-05
2.4584e-05
2.43292e-05
2.40582e-05
2.37701e-05
2.3464e-05
2.31392e-05
2.27949e-05
2.24305e-05
2.20456e-05
1.74508e-05
2.80863e-05
2.81202e-05
2.81361e-05
2.81339e-05
2.81166e-05
2.80877e-05
2.80502e-05
2.80076e-05
2.79645e-05
2.79258e-05
2.78974e-05
2.78888e-05
2.79181e-05
2.80063e-05
2.81452e-05
2.82509e-05
2.82126e-05
2.80425e-05
2.78605e-05
2.77255e-05
2.74618e-05
2.73539e-05
2.72674e-05
2.71815e-05
2.70932e-05
2.70006e-05
2.69024e-05
2.67974e-05
2.66848e-05
2.65641e-05
2.64349e-05
2.62969e-05
2.61499e-05
2.59936e-05
2.58275e-05
2.56511e-05
2.54637e-05
2.52645e-05
2.50528e-05
2.48277e-05
2.45882e-05
2.43335e-05
2.40626e-05
2.37746e-05
2.34686e-05
2.31439e-05
2.27997e-05
2.24354e-05
2.20505e-05
1.74562e-05
2.80852e-05
2.81188e-05
2.81346e-05
2.81325e-05
2.81156e-05
2.80872e-05
2.80502e-05
2.80083e-05
2.79657e-05
2.79275e-05
2.78995e-05
2.78915e-05
2.7921e-05
2.80083e-05
2.81438e-05
2.82458e-05
2.82086e-05
2.80432e-05
2.7864e-05
2.77292e-05
2.74651e-05
2.73569e-05
2.72703e-05
2.71843e-05
2.7096e-05
2.70035e-05
2.69053e-05
2.68004e-05
2.66879e-05
2.65673e-05
2.64382e-05
2.63004e-05
2.61535e-05
2.59974e-05
2.58314e-05
2.56551e-05
2.54678e-05
2.52688e-05
2.50573e-05
2.48323e-05
2.45929e-05
2.43383e-05
2.40675e-05
2.37796e-05
2.34738e-05
2.31492e-05
2.2805e-05
2.24408e-05
2.2056e-05
1.74622e-05
2.8084e-05
2.81173e-05
2.8133e-05
2.81312e-05
2.81147e-05
2.80868e-05
2.80504e-05
2.8009e-05
2.7967e-05
2.79293e-05
2.79018e-05
2.78942e-05
2.7924e-05
2.80103e-05
2.81426e-05
2.82411e-05
2.82049e-05
2.8044e-05
2.78676e-05
2.77331e-05
2.74688e-05
2.73602e-05
2.72734e-05
2.71875e-05
2.70992e-05
2.70067e-05
2.69086e-05
2.68038e-05
2.66914e-05
2.6571e-05
2.6442e-05
2.63043e-05
2.61576e-05
2.60016e-05
2.58357e-05
2.56596e-05
2.54725e-05
2.52736e-05
2.50622e-05
2.48373e-05
2.45981e-05
2.43437e-05
2.4073e-05
2.37852e-05
2.34795e-05
2.3155e-05
2.28109e-05
2.24468e-05
2.2062e-05
1.74689e-05
2.80829e-05
2.81158e-05
2.81315e-05
2.81299e-05
2.81138e-05
2.80864e-05
2.80506e-05
2.80098e-05
2.79684e-05
2.79312e-05
2.79041e-05
2.7897e-05
2.7927e-05
2.80124e-05
2.81417e-05
2.82368e-05
2.82016e-05
2.8045e-05
2.78714e-05
2.77372e-05
2.74727e-05
2.73639e-05
2.72769e-05
2.71909e-05
2.71026e-05
2.70102e-05
2.69122e-05
2.68076e-05
2.66953e-05
2.6575e-05
2.64462e-05
2.63087e-05
2.61621e-05
2.60062e-05
2.58405e-05
2.56645e-05
2.54776e-05
2.52789e-05
2.50676e-05
2.48429e-05
2.46038e-05
2.43495e-05
2.4079e-05
2.37914e-05
2.34858e-05
2.31614e-05
2.28174e-05
2.24534e-05
2.20687e-05
1.74762e-05
2.80818e-05
2.81144e-05
2.813e-05
2.81286e-05
2.8113e-05
2.80861e-05
2.80509e-05
2.80108e-05
2.79699e-05
2.79331e-05
2.79065e-05
2.78999e-05
2.79301e-05
2.80146e-05
2.81409e-05
2.8233e-05
2.81987e-05
2.80463e-05
2.78754e-05
2.77416e-05
2.74769e-05
2.73678e-05
2.72807e-05
2.71947e-05
2.71065e-05
2.70142e-05
2.69163e-05
2.68117e-05
2.66996e-05
2.65795e-05
2.64508e-05
2.63134e-05
2.6167e-05
2.60113e-05
2.58458e-05
2.567e-05
2.54832e-05
2.52846e-05
2.50735e-05
2.4849e-05
2.46101e-05
2.4356e-05
2.40856e-05
2.37981e-05
2.34927e-05
2.31684e-05
2.28245e-05
2.24606e-05
2.2076e-05
1.74842e-05
2.80806e-05
2.8113e-05
2.81286e-05
2.81275e-05
2.81122e-05
2.80859e-05
2.80513e-05
2.80118e-05
2.79714e-05
2.79352e-05
2.79091e-05
2.79029e-05
2.79333e-05
2.80169e-05
2.81404e-05
2.82296e-05
2.81962e-05
2.80478e-05
2.78796e-05
2.77461e-05
2.74814e-05
2.7372e-05
2.72849e-05
2.71988e-05
2.71107e-05
2.70184e-05
2.69207e-05
2.68163e-05
2.67043e-05
2.65843e-05
2.64558e-05
2.63186e-05
2.61724e-05
2.60169e-05
2.58515e-05
2.56759e-05
2.54893e-05
2.52909e-05
2.508e-05
2.48557e-05
2.4617e-05
2.4363e-05
2.40928e-05
2.38055e-05
2.35002e-05
2.3176e-05
2.28323e-05
2.24684e-05
2.20839e-05
1.74929e-05
2.80795e-05
2.81116e-05
2.81272e-05
2.81264e-05
2.81116e-05
2.80858e-05
2.80518e-05
2.80129e-05
2.79731e-05
2.79374e-05
2.79118e-05
2.7906e-05
2.79366e-05
2.80193e-05
2.81401e-05
2.82267e-05
2.81942e-05
2.80495e-05
2.7884e-05
2.7751e-05
2.74862e-05
2.73766e-05
2.72893e-05
2.72033e-05
2.71152e-05
2.70231e-05
2.69255e-05
2.68212e-05
2.67095e-05
2.65896e-05
2.64613e-05
2.63243e-05
2.61783e-05
2.60229e-05
2.58578e-05
2.56823e-05
2.54959e-05
2.52978e-05
2.5087e-05
2.48629e-05
2.46244e-05
2.43706e-05
2.41006e-05
2.38134e-05
2.35083e-05
2.31842e-05
2.28407e-05
2.24769e-05
2.20925e-05
1.75023e-05
2.80784e-05
2.81103e-05
2.81259e-05
2.81253e-05
2.8111e-05
2.80858e-05
2.80524e-05
2.80141e-05
2.79749e-05
2.79397e-05
2.79145e-05
2.79093e-05
2.79401e-05
2.80219e-05
2.81401e-05
2.82242e-05
2.81926e-05
2.80516e-05
2.78886e-05
2.77561e-05
2.74913e-05
2.73815e-05
2.72942e-05
2.72082e-05
2.71202e-05
2.70282e-05
2.69307e-05
2.68266e-05
2.6715e-05
2.65954e-05
2.64673e-05
2.63305e-05
2.61846e-05
2.60295e-05
2.58646e-05
2.56893e-05
2.55031e-05
2.53052e-05
2.50946e-05
2.48707e-05
2.46324e-05
2.43788e-05
2.4109e-05
2.3822e-05
2.3517e-05
2.31931e-05
2.28497e-05
2.2486e-05
2.21018e-05
1.75125e-05
2.80773e-05
2.8109e-05
2.81247e-05
2.81244e-05
2.81105e-05
2.80858e-05
2.80531e-05
2.80154e-05
2.79768e-05
2.79421e-05
2.79175e-05
2.79127e-05
2.79436e-05
2.80246e-05
2.81404e-05
2.82222e-05
2.81915e-05
2.80539e-05
2.78934e-05
2.77614e-05
2.74968e-05
2.73867e-05
2.72994e-05
2.72134e-05
2.71255e-05
2.70337e-05
2.69363e-05
2.68324e-05
2.6721e-05
2.66016e-05
2.64737e-05
2.63371e-05
2.61915e-05
2.60366e-05
2.58719e-05
2.56969e-05
2.55109e-05
2.53131e-05
2.51029e-05
2.48791e-05
2.46411e-05
2.43877e-05
2.41181e-05
2.38313e-05
2.35264e-05
2.32027e-05
2.28594e-05
2.24959e-05
2.21117e-05
1.75234e-05
2.80763e-05
2.81078e-05
2.81235e-05
2.81235e-05
2.81101e-05
2.8086e-05
2.80539e-05
2.80168e-05
2.79788e-05
2.79447e-05
2.79206e-05
2.79162e-05
2.79474e-05
2.80275e-05
2.81409e-05
2.82206e-05
2.81908e-05
2.80566e-05
2.78985e-05
2.77671e-05
2.75026e-05
2.73923e-05
2.73049e-05
2.7219e-05
2.71313e-05
2.70396e-05
2.69424e-05
2.68387e-05
2.67275e-05
2.66083e-05
2.64807e-05
2.63443e-05
2.61989e-05
2.60442e-05
2.58798e-05
2.5705e-05
2.55192e-05
2.53217e-05
2.51117e-05
2.48882e-05
2.46504e-05
2.43972e-05
2.41278e-05
2.38412e-05
2.35365e-05
2.3213e-05
2.28698e-05
2.25065e-05
2.21224e-05
1.75351e-05
2.80753e-05
2.81066e-05
2.81224e-05
2.81227e-05
2.81098e-05
2.80863e-05
2.80548e-05
2.80183e-05
2.7981e-05
2.79474e-05
2.79238e-05
2.79199e-05
2.79513e-05
2.80305e-05
2.81418e-05
2.82195e-05
2.81907e-05
2.80597e-05
2.7904e-05
2.7773e-05
2.75087e-05
2.73983e-05
2.73109e-05
2.72251e-05
2.71374e-05
2.70459e-05
2.6949e-05
2.68454e-05
2.67345e-05
2.66155e-05
2.64881e-05
2.6352e-05
2.62069e-05
2.60524e-05
2.58882e-05
2.57137e-05
2.55282e-05
2.53309e-05
2.51212e-05
2.48979e-05
2.46603e-05
2.44074e-05
2.41382e-05
2.38518e-05
2.35474e-05
2.3224e-05
2.2881e-05
2.25178e-05
2.21339e-05
1.75477e-05
2.80743e-05
2.81055e-05
2.81214e-05
2.8122e-05
2.81096e-05
2.80866e-05
2.80558e-05
2.802e-05
2.79833e-05
2.79503e-05
2.79272e-05
2.79238e-05
2.79553e-05
2.80338e-05
2.8143e-05
2.82188e-05
2.8191e-05
2.80631e-05
2.79097e-05
2.77793e-05
2.75152e-05
2.74047e-05
2.73173e-05
2.72315e-05
2.71441e-05
2.70527e-05
2.6956e-05
2.68527e-05
2.6742e-05
2.66233e-05
2.64961e-05
2.63602e-05
2.62154e-05
2.60612e-05
2.58973e-05
2.5723e-05
2.55378e-05
2.53408e-05
2.51313e-05
2.49083e-05
2.4671e-05
2.44183e-05
2.41493e-05
2.38632e-05
2.35589e-05
2.32358e-05
2.28929e-05
2.25299e-05
2.21461e-05
1.75612e-05
2.80733e-05
2.81045e-05
2.81205e-05
2.81214e-05
2.81095e-05
2.80871e-05
2.80569e-05
2.80218e-05
2.79857e-05
2.79533e-05
2.79308e-05
2.79279e-05
2.79596e-05
2.80373e-05
2.81445e-05
2.82187e-05
2.81918e-05
2.80669e-05
2.79158e-05
2.7786e-05
2.75221e-05
2.74115e-05
2.7324e-05
2.72384e-05
2.71511e-05
2.706e-05
2.69635e-05
2.68604e-05
2.675e-05
2.66315e-05
2.65047e-05
2.63691e-05
2.62245e-05
2.60706e-05
2.5907e-05
2.5733e-05
2.5548e-05
2.53513e-05
2.51421e-05
2.49194e-05
2.46823e-05
2.44299e-05
2.41612e-05
2.38753e-05
2.35713e-05
2.32483e-05
2.29057e-05
2.25428e-05
2.21592e-05
1.75756e-05
2.80724e-05
2.81035e-05
2.81196e-05
2.81209e-05
2.81095e-05
2.80878e-05
2.80582e-05
2.80238e-05
2.79883e-05
2.79565e-05
2.79345e-05
2.79322e-05
2.7964e-05
2.8041e-05
2.81463e-05
2.8219e-05
2.8193e-05
2.80711e-05
2.79222e-05
2.7793e-05
2.75295e-05
2.74187e-05
2.73313e-05
2.72458e-05
2.71587e-05
2.70677e-05
2.69715e-05
2.68687e-05
2.67585e-05
2.66404e-05
2.65138e-05
2.63785e-05
2.62342e-05
2.60806e-05
2.59173e-05
2.57436e-05
2.5559e-05
2.53626e-05
2.51536e-05
2.49312e-05
2.46944e-05
2.44423e-05
2.41739e-05
2.38882e-05
2.35844e-05
2.32616e-05
2.29192e-05
2.25565e-05
2.21731e-05
1.75909e-05
2.80716e-05
2.81026e-05
2.81189e-05
2.81205e-05
2.81096e-05
2.80885e-05
2.80596e-05
2.80259e-05
2.79911e-05
2.79599e-05
2.79385e-05
2.79366e-05
2.79687e-05
2.8045e-05
2.81486e-05
2.82198e-05
2.81948e-05
2.80757e-05
2.7929e-05
2.78004e-05
2.75372e-05
2.74264e-05
2.7339e-05
2.72536e-05
2.71667e-05
2.7076e-05
2.698e-05
2.68775e-05
2.67677e-05
2.66498e-05
2.65235e-05
2.63886e-05
2.62446e-05
2.60913e-05
2.59283e-05
2.57549e-05
2.55706e-05
2.53745e-05
2.51659e-05
2.49438e-05
2.47073e-05
2.44555e-05
2.41873e-05
2.39019e-05
2.35984e-05
2.32758e-05
2.29336e-05
2.25711e-05
2.21878e-05
1.76071e-05
2.80707e-05
2.81017e-05
2.81182e-05
2.81203e-05
2.81099e-05
2.80894e-05
2.80612e-05
2.80281e-05
2.7994e-05
2.79634e-05
2.79426e-05
2.79413e-05
2.79736e-05
2.80493e-05
2.81512e-05
2.82211e-05
2.81971e-05
2.80808e-05
2.79363e-05
2.78082e-05
2.75454e-05
2.74345e-05
2.73471e-05
2.7262e-05
2.71753e-05
2.70848e-05
2.69891e-05
2.68869e-05
2.67774e-05
2.66598e-05
2.65339e-05
2.63993e-05
2.62557e-05
2.61027e-05
2.594e-05
2.5767e-05
2.5583e-05
2.53872e-05
2.51789e-05
2.49572e-05
2.4721e-05
2.44695e-05
2.42016e-05
2.39165e-05
2.36132e-05
2.32909e-05
2.29489e-05
2.25866e-05
2.22035e-05
1.76244e-05
2.807e-05
2.8101e-05
2.81176e-05
2.81201e-05
2.81102e-05
2.80904e-05
2.80629e-05
2.80306e-05
2.79971e-05
2.79672e-05
2.7947e-05
2.79462e-05
2.79788e-05
2.80538e-05
2.81541e-05
2.82229e-05
2.82e-05
2.80864e-05
2.7944e-05
2.78164e-05
2.75541e-05
2.74431e-05
2.73558e-05
2.72708e-05
2.71844e-05
2.70942e-05
2.69988e-05
2.68969e-05
2.67877e-05
2.66705e-05
2.6545e-05
2.64107e-05
2.62674e-05
2.61148e-05
2.59525e-05
2.57798e-05
2.55961e-05
2.54008e-05
2.51928e-05
2.49714e-05
2.47355e-05
2.44843e-05
2.42168e-05
2.39319e-05
2.36289e-05
2.33069e-05
2.29651e-05
2.2603e-05
2.22202e-05
1.76428e-05
2.80692e-05
2.81002e-05
2.81171e-05
2.812e-05
2.81107e-05
2.80915e-05
2.80647e-05
2.80331e-05
2.80004e-05
2.79711e-05
2.79516e-05
2.79514e-05
2.79842e-05
2.80587e-05
2.81575e-05
2.82252e-05
2.82034e-05
2.80925e-05
2.79521e-05
2.78251e-05
2.75633e-05
2.74522e-05
2.73651e-05
2.72803e-05
2.7194e-05
2.71042e-05
2.70091e-05
2.69076e-05
2.67987e-05
2.66819e-05
2.65567e-05
2.64228e-05
2.62799e-05
2.61277e-05
2.59657e-05
2.57934e-05
2.56101e-05
2.54151e-05
2.52075e-05
2.49864e-05
2.47509e-05
2.45001e-05
2.42328e-05
2.39483e-05
2.36456e-05
2.33238e-05
2.29823e-05
2.26204e-05
2.22378e-05
1.76623e-05
2.80685e-05
2.80996e-05
2.81167e-05
2.812e-05
2.81113e-05
2.80928e-05
2.80667e-05
2.80359e-05
2.80039e-05
2.79753e-05
2.79564e-05
2.79568e-05
2.79899e-05
2.80639e-05
2.81613e-05
2.82281e-05
2.82073e-05
2.80991e-05
2.79608e-05
2.78344e-05
2.7573e-05
2.74619e-05
2.73748e-05
2.72902e-05
2.72043e-05
2.71148e-05
2.702e-05
2.69189e-05
2.68104e-05
2.6694e-05
2.65692e-05
2.64356e-05
2.62932e-05
2.61413e-05
2.59797e-05
2.58078e-05
2.56249e-05
2.54303e-05
2.52231e-05
2.50024e-05
2.47673e-05
2.45167e-05
2.42499e-05
2.39656e-05
2.36632e-05
2.33417e-05
2.30005e-05
2.26389e-05
2.22565e-05
1.76829e-05
2.80679e-05
2.8099e-05
2.81164e-05
2.81202e-05
2.8112e-05
2.80942e-05
2.80689e-05
2.80388e-05
2.80075e-05
2.79797e-05
2.79614e-05
2.79625e-05
2.79958e-05
2.80694e-05
2.81656e-05
2.82315e-05
2.82119e-05
2.81062e-05
2.79699e-05
2.78441e-05
2.75833e-05
2.74722e-05
2.73852e-05
2.73008e-05
2.72152e-05
2.7126e-05
2.70316e-05
2.69308e-05
2.68228e-05
2.67068e-05
2.65824e-05
2.64493e-05
2.63072e-05
2.61558e-05
2.59946e-05
2.58231e-05
2.56406e-05
2.54464e-05
2.52396e-05
2.50193e-05
2.47846e-05
2.45344e-05
2.42679e-05
2.3984e-05
2.36819e-05
2.33607e-05
2.30198e-05
2.26584e-05
2.22763e-05
1.77048e-05
2.80672e-05
2.80985e-05
2.81162e-05
2.81204e-05
2.81129e-05
2.80958e-05
2.80712e-05
2.80419e-05
2.80114e-05
2.79843e-05
2.79667e-05
2.79684e-05
2.80021e-05
2.80753e-05
2.81703e-05
2.82355e-05
2.8217e-05
2.81139e-05
2.79796e-05
2.78544e-05
2.75942e-05
2.7483e-05
2.73962e-05
2.73121e-05
2.72268e-05
2.71379e-05
2.70439e-05
2.69436e-05
2.68359e-05
2.67203e-05
2.65964e-05
2.64638e-05
2.63221e-05
2.61711e-05
2.60104e-05
2.58393e-05
2.56573e-05
2.54635e-05
2.52571e-05
2.50372e-05
2.48029e-05
2.45531e-05
2.4287e-05
2.40035e-05
2.37017e-05
2.33809e-05
2.30402e-05
2.26791e-05
2.22973e-05
1.7728e-05
2.80666e-05
2.8098e-05
2.8116e-05
2.81207e-05
2.81138e-05
2.80974e-05
2.80737e-05
2.80452e-05
2.80155e-05
2.79891e-05
2.79723e-05
2.79747e-05
2.80087e-05
2.80815e-05
2.81755e-05
2.82401e-05
2.82228e-05
2.81222e-05
2.79899e-05
2.78652e-05
2.76056e-05
2.74945e-05
2.74078e-05
2.7324e-05
2.7239e-05
2.71505e-05
2.7057e-05
2.6957e-05
2.68498e-05
2.67347e-05
2.66113e-05
2.64791e-05
2.63379e-05
2.61874e-05
2.60271e-05
2.58565e-05
2.56749e-05
2.54815e-05
2.52756e-05
2.50562e-05
2.48223e-05
2.45729e-05
2.43072e-05
2.40241e-05
2.37227e-05
2.34022e-05
2.30618e-05
2.2701e-05
2.23194e-05
1.77525e-05
2.8066e-05
2.80976e-05
2.81159e-05
2.81211e-05
2.81149e-05
2.80993e-05
2.80763e-05
2.80487e-05
2.80198e-05
2.79942e-05
2.79782e-05
2.79812e-05
2.80157e-05
2.80882e-05
2.81813e-05
2.82453e-05
2.82292e-05
2.81311e-05
2.80008e-05
2.78767e-05
2.76178e-05
2.75066e-05
2.74201e-05
2.73366e-05
2.7252e-05
2.71639e-05
2.70708e-05
2.69713e-05
2.68646e-05
2.675e-05
2.6627e-05
2.64953e-05
2.63546e-05
2.62046e-05
2.60448e-05
2.58747e-05
2.56936e-05
2.55007e-05
2.52952e-05
2.50762e-05
2.48428e-05
2.45939e-05
2.43286e-05
2.40458e-05
2.37448e-05
2.34247e-05
2.30847e-05
2.27242e-05
2.23429e-05
1.77786e-05
2.80654e-05
2.80972e-05
2.81159e-05
2.81217e-05
2.81161e-05
2.81012e-05
2.80791e-05
2.80523e-05
2.80242e-05
2.79995e-05
2.79843e-05
2.79881e-05
2.8023e-05
2.80953e-05
2.81875e-05
2.82511e-05
2.82363e-05
2.81407e-05
2.80122e-05
2.78887e-05
2.76306e-05
2.75195e-05
2.74332e-05
2.735e-05
2.72657e-05
2.71781e-05
2.70854e-05
2.69865e-05
2.68803e-05
2.67662e-05
2.66437e-05
2.65125e-05
2.63724e-05
2.62229e-05
2.60636e-05
2.58939e-05
2.57133e-05
2.55209e-05
2.53159e-05
2.50974e-05
2.48645e-05
2.4616e-05
2.43512e-05
2.40689e-05
2.37683e-05
2.34485e-05
2.31089e-05
2.27488e-05
2.23678e-05
1.78061e-05
2.80649e-05
2.80969e-05
2.81159e-05
2.81222e-05
2.81174e-05
2.81033e-05
2.80821e-05
2.80561e-05
2.8029e-05
2.80051e-05
2.79907e-05
2.79952e-05
2.80306e-05
2.81028e-05
2.81943e-05
2.82576e-05
2.82441e-05
2.81509e-05
2.80244e-05
2.79015e-05
2.76441e-05
2.75331e-05
2.7447e-05
2.73641e-05
2.72803e-05
2.71931e-05
2.7101e-05
2.70025e-05
2.68968e-05
2.67833e-05
2.66614e-05
2.65307e-05
2.63911e-05
2.62422e-05
2.60834e-05
2.59143e-05
2.57342e-05
2.55424e-05
2.53379e-05
2.51199e-05
2.48874e-05
2.46395e-05
2.43751e-05
2.40933e-05
2.37931e-05
2.34737e-05
2.31345e-05
2.27747e-05
2.2394e-05
1.78353e-05
2.80643e-05
2.80965e-05
2.8116e-05
2.81229e-05
2.81188e-05
2.81055e-05
2.80852e-05
2.80602e-05
2.80339e-05
2.80109e-05
2.79974e-05
2.80028e-05
2.80387e-05
2.81108e-05
2.82016e-05
2.82647e-05
2.82526e-05
2.81618e-05
2.80372e-05
2.7915e-05
2.76584e-05
2.75475e-05
2.74616e-05
2.73791e-05
2.72957e-05
2.72091e-05
2.71174e-05
2.70195e-05
2.69144e-05
2.68014e-05
2.66801e-05
2.655e-05
2.6411e-05
2.62626e-05
2.61044e-05
2.59359e-05
2.57563e-05
2.5565e-05
2.53611e-05
2.51437e-05
2.49117e-05
2.46643e-05
2.44004e-05
2.41191e-05
2.38194e-05
2.35004e-05
2.31616e-05
2.28022e-05
2.24218e-05
1.78661e-05
2.80637e-05
2.80962e-05
2.81162e-05
2.81237e-05
2.81203e-05
2.81079e-05
2.80884e-05
2.80644e-05
2.80391e-05
2.8017e-05
2.80044e-05
2.80106e-05
2.80472e-05
2.81192e-05
2.82096e-05
2.82726e-05
2.82618e-05
2.81734e-05
2.80508e-05
2.79292e-05
2.76735e-05
2.75627e-05
2.74771e-05
2.73949e-05
2.7312e-05
2.72259e-05
2.71348e-05
2.70375e-05
2.6933e-05
2.68206e-05
2.66999e-05
2.65704e-05
2.6432e-05
2.62842e-05
2.61266e-05
2.59587e-05
2.57797e-05
2.5589e-05
2.53857e-05
2.51688e-05
2.49375e-05
2.46906e-05
2.44272e-05
2.41464e-05
2.38471e-05
2.35286e-05
2.31902e-05
2.28312e-05
2.24512e-05
1.78987e-05
2.80631e-05
2.80959e-05
2.81163e-05
2.81245e-05
2.81219e-05
2.81103e-05
2.80918e-05
2.80687e-05
2.80444e-05
2.80234e-05
2.80118e-05
2.80189e-05
2.8056e-05
2.81282e-05
2.82181e-05
2.82811e-05
2.82718e-05
2.81859e-05
2.80652e-05
2.79443e-05
2.76895e-05
2.75788e-05
2.74935e-05
2.74117e-05
2.73293e-05
2.72437e-05
2.71532e-05
2.70565e-05
2.69526e-05
2.68409e-05
2.67208e-05
2.6592e-05
2.64543e-05
2.63071e-05
2.61501e-05
2.59828e-05
2.58045e-05
2.56144e-05
2.54117e-05
2.51954e-05
2.49646e-05
2.47183e-05
2.44555e-05
2.41752e-05
2.38765e-05
2.35585e-05
2.32205e-05
2.2862e-05
2.24824e-05
1.79335e-05
2.80625e-05
2.80956e-05
2.81165e-05
2.81253e-05
2.81235e-05
2.81129e-05
2.80954e-05
2.80733e-05
2.805e-05
2.803e-05
2.80194e-05
2.80275e-05
2.80654e-05
2.81377e-05
2.82273e-05
2.82904e-05
2.82825e-05
2.81991e-05
2.80804e-05
2.79602e-05
2.77064e-05
2.75958e-05
2.75108e-05
2.74295e-05
2.73476e-05
2.72626e-05
2.71727e-05
2.70767e-05
2.69734e-05
2.68624e-05
2.6743e-05
2.66149e-05
2.64778e-05
2.63313e-05
2.6175e-05
2.60084e-05
2.58307e-05
2.56413e-05
2.54392e-05
2.52236e-05
2.49934e-05
2.47477e-05
2.44855e-05
2.42058e-05
2.39076e-05
2.35901e-05
2.32526e-05
2.28945e-05
2.25153e-05
1.797e-05
2.80618e-05
2.80953e-05
2.81167e-05
2.81262e-05
2.81252e-05
2.81156e-05
2.80991e-05
2.80781e-05
2.80559e-05
2.80369e-05
2.80274e-05
2.80365e-05
2.80752e-05
2.81477e-05
2.82371e-05
2.83005e-05
2.82942e-05
2.82132e-05
2.80964e-05
2.79769e-05
2.77242e-05
2.76138e-05
2.75291e-05
2.74483e-05
2.7367e-05
2.72826e-05
2.71934e-05
2.7098e-05
2.69955e-05
2.68852e-05
2.67665e-05
2.66391e-05
2.65027e-05
2.6357e-05
2.62014e-05
2.60354e-05
2.58585e-05
2.56697e-05
2.54683e-05
2.52533e-05
2.50238e-05
2.47787e-05
2.45171e-05
2.4238e-05
2.39403e-05
2.36233e-05
2.32863e-05
2.29285e-05
2.25496e-05
1.80082e-05
2.8061e-05
2.80949e-05
2.81169e-05
2.81271e-05
2.8127e-05
2.81183e-05
2.81029e-05
2.8083e-05
2.80619e-05
2.80441e-05
2.80357e-05
2.80459e-05
2.80854e-05
2.81583e-05
2.82476e-05
2.83113e-05
2.83066e-05
2.82281e-05
2.81134e-05
2.79947e-05
2.7743e-05
2.76329e-05
2.75485e-05
2.74682e-05
2.73875e-05
2.73038e-05
2.72152e-05
2.71206e-05
2.70188e-05
2.69093e-05
2.67914e-05
2.66648e-05
2.65291e-05
2.63841e-05
2.62293e-05
2.60641e-05
2.58878e-05
2.56998e-05
2.54991e-05
2.52848e-05
2.5056e-05
2.48116e-05
2.45506e-05
2.4272e-05
2.39749e-05
2.36585e-05
2.33219e-05
2.29645e-05
2.2586e-05
1.80488e-05
2.80602e-05
2.80945e-05
2.8117e-05
2.8128e-05
2.81288e-05
2.81211e-05
2.81068e-05
2.80881e-05
2.80682e-05
2.80516e-05
2.80444e-05
2.80558e-05
2.80962e-05
2.81694e-05
2.82588e-05
2.8323e-05
2.832e-05
2.8244e-05
2.81313e-05
2.80134e-05
2.77629e-05
2.7653e-05
2.75691e-05
2.74893e-05
2.74092e-05
2.73262e-05
2.72384e-05
2.71445e-05
2.70435e-05
2.69348e-05
2.68177e-05
2.66919e-05
2.65571e-05
2.64129e-05
2.62588e-05
2.60944e-05
2.59189e-05
2.57316e-05
2.55317e-05
2.53181e-05
2.509e-05
2.48463e-05
2.4586e-05
2.43081e-05
2.40116e-05
2.36957e-05
2.33596e-05
2.30027e-05
2.26246e-05
1.8092e-05
2.80592e-05
2.8094e-05
2.81171e-05
2.81289e-05
2.81306e-05
2.8124e-05
2.81108e-05
2.80933e-05
2.80747e-05
2.80593e-05
2.80534e-05
2.8066e-05
2.81074e-05
2.81812e-05
2.82708e-05
2.83355e-05
2.83343e-05
2.82609e-05
2.81502e-05
2.80332e-05
2.7784e-05
2.76743e-05
2.75908e-05
2.75116e-05
2.74322e-05
2.73499e-05
2.72629e-05
2.71698e-05
2.70697e-05
2.69618e-05
2.68456e-05
2.67206e-05
2.65867e-05
2.64433e-05
2.62901e-05
2.61265e-05
2.59518e-05
2.57653e-05
2.55662e-05
2.53534e-05
2.51261e-05
2.48831e-05
2.46235e-05
2.43463e-05
2.40505e-05
2.37352e-05
2.33996e-05
2.30433e-05
2.26657e-05
1.81381e-05
2.80582e-05
2.80934e-05
2.81172e-05
2.81297e-05
2.81324e-05
2.81269e-05
2.81149e-05
2.80987e-05
2.80814e-05
2.80673e-05
2.80628e-05
2.80767e-05
2.81192e-05
2.81936e-05
2.82835e-05
2.83489e-05
2.83496e-05
2.82788e-05
2.81703e-05
2.80541e-05
2.78062e-05
2.76968e-05
2.76138e-05
2.75352e-05
2.74565e-05
2.7375e-05
2.72889e-05
2.71967e-05
2.70974e-05
2.69904e-05
2.68751e-05
2.67511e-05
2.6618e-05
2.64755e-05
2.63232e-05
2.61605e-05
2.59867e-05
2.58011e-05
2.56028e-05
2.53908e-05
2.51643e-05
2.49221e-05
2.46633e-05
2.43868e-05
2.40917e-05
2.3777e-05
2.34421e-05
2.30863e-05
2.27093e-05
1.8187e-05
2.80569e-05
2.80926e-05
2.81171e-05
2.81305e-05
2.81342e-05
2.81299e-05
2.81191e-05
2.81042e-05
2.80882e-05
2.80756e-05
2.80725e-05
2.80878e-05
2.81315e-05
2.82067e-05
2.8297e-05
2.83633e-05
2.83659e-05
2.82978e-05
2.81914e-05
2.80762e-05
2.78297e-05
2.77207e-05
2.76381e-05
2.75602e-05
2.74823e-05
2.74016e-05
2.73164e-05
2.72251e-05
2.71268e-05
2.70207e-05
2.69064e-05
2.67833e-05
2.66512e-05
2.65097e-05
2.63583e-05
2.61965e-05
2.60237e-05
2.5839e-05
2.56415e-05
2.54305e-05
2.52048e-05
2.49635e-05
2.47055e-05
2.44298e-05
2.41354e-05
2.38214e-05
2.34872e-05
2.3132e-05
2.27555e-05
1.82389e-05
2.80555e-05
2.80917e-05
2.81169e-05
2.81312e-05
2.8136e-05
2.81328e-05
2.81234e-05
2.81098e-05
2.80953e-05
2.80842e-05
2.80826e-05
2.80994e-05
2.81444e-05
2.82205e-05
2.83113e-05
2.83786e-05
2.83832e-05
2.83179e-05
2.82138e-05
2.80996e-05
2.78545e-05
2.77459e-05
2.76639e-05
2.75867e-05
2.75096e-05
2.74298e-05
2.73455e-05
2.72552e-05
2.71579e-05
2.70529e-05
2.69396e-05
2.68175e-05
2.66865e-05
2.6546e-05
2.63956e-05
2.62348e-05
2.60629e-05
2.58791e-05
2.56827e-05
2.54726e-05
2.52478e-05
2.50074e-05
2.47503e-05
2.44754e-05
2.41818e-05
2.38685e-05
2.3535e-05
2.31804e-05
2.28045e-05
1.8294e-05
2.80539e-05
2.80907e-05
2.81165e-05
2.81318e-05
2.81377e-05
2.81357e-05
2.81276e-05
2.81155e-05
2.81025e-05
2.8093e-05
2.8093e-05
2.81114e-05
2.81578e-05
2.82349e-05
2.83265e-05
2.83948e-05
2.84017e-05
2.83392e-05
2.82374e-05
2.81243e-05
2.78807e-05
2.77726e-05
2.76912e-05
2.76147e-05
2.75385e-05
2.74597e-05
2.73763e-05
2.72871e-05
2.71909e-05
2.70869e-05
2.69747e-05
2.68538e-05
2.67238e-05
2.65844e-05
2.64351e-05
2.62753e-05
2.61045e-05
2.59218e-05
2.57264e-05
2.55173e-05
2.52935e-05
2.5054e-05
2.47978e-05
2.45238e-05
2.4231e-05
2.39186e-05
2.35857e-05
2.32319e-05
2.28566e-05
1.83527e-05
2.8052e-05
2.80894e-05
2.8116e-05
2.81322e-05
2.81392e-05
2.81386e-05
2.81319e-05
2.81213e-05
2.81099e-05
2.8102e-05
2.81038e-05
2.81239e-05
2.81719e-05
2.82501e-05
2.83425e-05
2.84122e-05
2.84213e-05
2.83617e-05
2.82624e-05
2.81504e-05
2.79085e-05
2.78008e-05
2.772e-05
2.76444e-05
2.75691e-05
2.74913e-05
2.7409e-05
2.73209e-05
2.72258e-05
2.7123e-05
2.7012e-05
2.68923e-05
2.67634e-05
2.66252e-05
2.6477e-05
2.63184e-05
2.61487e-05
2.59671e-05
2.57727e-05
2.55647e-05
2.5342e-05
2.51036e-05
2.48484e-05
2.45753e-05
2.42834e-05
2.39719e-05
2.36398e-05
2.32866e-05
2.2912e-05
1.84152e-05
2.80499e-05
2.80878e-05
2.81153e-05
2.81324e-05
2.81406e-05
2.81413e-05
2.81361e-05
2.81272e-05
2.81174e-05
2.81113e-05
2.81149e-05
2.81369e-05
2.81865e-05
2.8266e-05
2.83595e-05
2.84306e-05
2.84421e-05
2.83856e-05
2.82888e-05
2.8178e-05
2.79378e-05
2.78307e-05
2.77506e-05
2.76758e-05
2.76016e-05
2.75249e-05
2.74437e-05
2.73567e-05
2.72629e-05
2.71613e-05
2.70515e-05
2.6933e-05
2.68055e-05
2.66684e-05
2.65215e-05
2.63641e-05
2.61956e-05
2.60152e-05
2.5822e-05
2.56152e-05
2.53936e-05
2.51563e-05
2.49021e-05
2.46301e-05
2.43392e-05
2.40286e-05
2.36973e-05
2.33449e-05
2.2971e-05
1.84818e-05
2.80474e-05
2.8086e-05
2.81142e-05
2.81325e-05
2.81419e-05
2.8144e-05
2.81403e-05
2.8133e-05
2.81251e-05
2.81208e-05
2.81263e-05
2.81503e-05
2.82017e-05
2.82827e-05
2.83774e-05
2.84501e-05
2.84642e-05
2.84109e-05
2.83166e-05
2.82072e-05
2.79689e-05
2.78624e-05
2.7783e-05
2.77092e-05
2.7636e-05
2.75604e-05
2.74805e-05
2.73948e-05
2.73022e-05
2.7202e-05
2.70935e-05
2.69763e-05
2.68501e-05
2.67144e-05
2.65688e-05
2.64127e-05
2.62455e-05
2.60664e-05
2.58745e-05
2.56689e-05
2.54485e-05
2.52124e-05
2.49595e-05
2.46886e-05
2.43987e-05
2.4089e-05
2.37587e-05
2.34071e-05
2.3034e-05
1.85531e-05
2.80446e-05
2.80838e-05
2.81129e-05
2.81322e-05
2.81429e-05
2.81464e-05
2.81444e-05
2.81388e-05
2.81328e-05
2.81305e-05
2.81381e-05
2.81642e-05
2.82176e-05
2.83002e-05
2.83964e-05
2.84709e-05
2.84877e-05
2.84376e-05