/*--------------------------------*- C++ -*----------------------------------*\
  =========                 |
  \\      /  F ield         | OpenFOAM: The Open Source CFD Toolbox
   \\    /   O peration     | Website:  https://openfoam.org
    \\  /    A nd           | Version:  9
     \\/     M anipulation  |
\*---------------------------------------------------------------------------*/
FoamFile
{
    format      ascii;
    class       volVectorField;
    location    "0.1";
    object      U;
}
// * * * * * * * * * * * * * * * * * * * * * * * * * * * * * * * * * * * * * //

dimensions      [0 1 -1 0 0 0 0];

internalField   nonuniform List<vector> 
5000
(
(0.000249214 0 -0.137371)
(0.000168386 0 -0.14704)
(5.49117e-05 0 -0.151594)
(-5.64128e-05 0 -0.150996)
(-0.000143324 0 -0.146177)
(-0.000200246 0 -0.138149)
(-0.000226566 0 -0.127734)
(-0.00022262 0 -0.115896)
(-0.000192504 0 -0.10386)
(-0.000142306 0 -0.0929067)
(-7.21555e-05 0 -0.0844281)
(3.82379e-05 0 -0.0808114)
(0.00024374 0 -0.0869566)
(0.000592664 0 -0.110564)
(0.000842947 0 -0.153461)
(0.000328583 0 -0.190715)
(-0.000661795 0 -0.179361)
(-0.000932452 0 -0.124999)
(-0.000566842 0 -0.0727844)
(-0.000247583 0 -0.0413517)
(-0.000102748 0 -0.0266022)
(-4.50002e-05 0 -0.0195964)
(-1.75479e-05 0 -0.0153044)
(-2.74623e-06 0 -0.0122923)
(6.24069e-06 0 -0.00996472)
(1.2223e-05 0 -0.00798695)
(1.63637e-05 0 -0.00612487)
(1.92647e-05 0 -0.00421356)
(2.1275e-05 0 -0.00216553)
(2.30638e-05 0 2.98263e-05)
(2.4674e-05 0 0.00231311)
(2.58136e-05 0 0.00458776)
(2.66394e-05 0 0.00674861)
(2.70749e-05 0 0.00870048)
(2.70598e-05 0 0.0103701)
(2.66038e-05 0 0.011709)
(2.5787e-05 0 0.0126914)
(2.47452e-05 0 0.0133094)
(2.36508e-05 0 0.0135688)
(2.26895e-05 0 0.0134852)
(2.20346e-05 0 0.0130825)
(2.18199e-05 0 0.0123911)
(2.21229e-05 0 0.0114484)
(2.2975e-05 0 0.0102971)
(2.43952e-05 0 0.00898219)
(2.64162e-05 0 0.00754717)
(2.90216e-05 0 0.006032)
(3.2575e-05 0 0.00447191)
(3.67948e-05 0 0.00289608)
(3.44456e-05 0 0.001217)
(0.000577448 0 -0.13763)
(0.000386269 0 -0.147261)
(0.000124512 0 -0.151797)
(-0.00013396 0 -0.151201)
(-0.000339957 0 -0.146391)
(-0.000477545 0 -0.138371)
(-0.000541746 0 -0.127964)
(-0.000530966 0 -0.116136)
(-0.000452249 0 -0.104109)
(-0.000317026 0 -0.0931665)
(-0.000125409 0 -0.0847148)
(0.000160376 0 -0.0811688)
(0.000629927 0 -0.0874747)
(0.00133596 0 -0.111247)
(0.00177556 0 -0.153847)
(0.000670319 0 -0.190258)
(-0.00137265 0 -0.178879)
(-0.00198977 0 -0.125219)
(-0.00129899 0 -0.0732123)
(-0.000633904 0 -0.0416671)
(-0.000290787 0 -0.0268266)
(-0.000128316 0 -0.019774)
(-3.70565e-05 0 -0.0154595)
(1.76693e-05 0 -0.0124346)
(5.30177e-05 0 -0.0100966)
(7.77432e-05 0 -0.00810907)
(9.50908e-05 0 -0.00623706)
(0.000107157 0 -0.00431564)
(0.000115664 0 -0.00225756)
(0.000123973 0 -5.32174e-05)
(0.000130622 0 0.00223565)
(0.00013444 0 0.00451578)
(0.000137788 0 0.00668173)
(0.000140293 0 0.0086382)
(0.000141825 0 0.0103119)
(0.000142434 0 0.0116546)
(0.000142312 0 0.0126401)
(0.000141758 0 0.0132607)
(0.000141131 0 0.013522)
(0.000140797 0 0.0134398)
(0.000141065 0 0.0130379)
(0.000142132 0 0.0123471)
(0.000144061 0 0.011405)
(0.000146815 0 0.0102543)
(0.000150334 0 0.00893995)
(0.000154545 0 0.00750547)
(0.000159321 0 0.00599105)
(0.000165236 0 0.00443216)
(0.000171675 0 0.00286873)
(0.000160517 0 0.00121318)
(0.000793597 0 -0.137443)
(0.000521595 0 -0.146995)
(0.000157322 0 -0.151509)
(-0.000202272 0 -0.150943)
(-0.000491308 0 -0.146191)
(-0.000685147 0 -0.138237)
(-0.000773526 0 -0.127898)
(-0.000751858 0 -0.116136)
(-0.000628011 0 -0.104165)
(-0.000416059 0 -0.0932717)
(-0.000115617 0 -0.0848815)
(0.000313822 0 -0.0814346)
(0.000958577 0 -0.0878866)
(0.00183807 0 -0.111645)
(0.00230301 0 -0.153518)
(0.000810464 0 -0.188745)
(-0.0018151 0 -0.17768)
(-0.00261437 0 -0.125366)
(-0.00174328 0 -0.073807)
(-0.000881117 0 -0.0420791)
(-0.000411306 0 -0.0270445)
(-0.00016879 0 -0.0198862)
(-2.09352e-05 0 -0.0155181)
(7.36159e-05 0 -0.0124661)
(0.000137743 0 -0.0101122)
(0.000183543 0 -0.00811522)
(0.000216757 0 -0.00623741)
(0.000241121 0 -0.00431222)
(0.000259977 0 -0.00225166)
(0.00027398 0 -4.71496e-05)
(0.00028542 0 0.00224084)
(0.000296357 0 0.00452102)
(0.000305347 0 0.00668768)
(0.000312391 0 0.00864551)
(0.000317648 0 0.010321)
(0.000321289 0 0.0116655)
(0.000323608 0 0.0126527)
(0.000325009 0 0.0132744)
(0.000325946 0 0.0135361)
(0.000326855 0 0.0134534)
(0.000328084 0 0.0130503)
(0.000329829 0 0.0123577)
(0.000332117 0 0.0114135)
(0.000334863 0 0.0102605)
(0.000337947 0 0.00894379)
(0.000341151 0 0.00750702)
(0.000344109 0 0.00599116)
(0.000346884 0 0.00443429)
(0.000349684 0 0.00288073)
(0.000334599 0 0.0012384)
(0.000941878 0 -0.137172)
(0.000611053 0 -0.14662)
(0.000173188 0 -0.151098)
(-0.00025959 0 -0.150562)
(-0.000609413 0 -0.145879)
(-0.000843832 0 -0.13801)
(-0.000947795 0 -0.127764)
(-0.00091402 0 -0.116093)
(-0.000750587 0 -0.104205)
(-0.000473775 0 -0.0933859)
(-8.44834e-05 0 -0.0850846)
(0.000455038 0 -0.0817666)
(0.00121966 0 -0.0883712)
(0.0021937 0 -0.112043)
(0.00264522 0 -0.153026)
(0.000917218 0 -0.186948)
(-0.00204648 0 -0.1762)
(-0.00297867 0 -0.125368)
(-0.00202192 0 -0.0744071)
(-0.00103484 0 -0.042546)
(-0.000469903 0 -0.0273064)
(-0.00016062 0 -0.0200268)
(3.745e-05 0 -0.0155926)
(0.000169931 0 -0.0125041)
(0.00026341 0 -0.0101287)
(0.000331728 0 -0.0081186)
(0.0003827 0 -0.00623276)
(0.000421275 0 -0.00430299)
(0.000451301 0 -0.00224037)
(0.000474723 0 -3.70376e-05)
(0.000494715 0 0.00225236)
(0.000512887 0 0.00453329)
(0.00052794 0 0.00670061)
(0.000540161 0 0.0086594)
(0.000549721 0 0.0103361)
(0.000556859 0 0.0116817)
(0.000561968 0 0.0126695)
(0.000565555 0 0.0132912)
(0.000568164 0 0.0135521)
(0.000570314 0 0.0134677)
(0.000572413 0 0.0130622)
(0.000574708 0 0.0123669)
(0.000577265 0 0.0114199)
(0.000580037 0 0.0102643)
(0.000582933 0 0.00894527)
(0.000585706 0 0.00750705)
(0.000587746 0 0.00599187)
(0.000588856 0 0.00443996)
(0.000590437 0 0.00289627)
(0.000576318 0 0.00125577)
(0.00103208 0 -0.136973)
(0.000662005 0 -0.146314)
(0.000175086 0 -0.150755)
(-0.000307446 0 -0.15025)
(-0.000699166 0 -0.145639)
(-0.000960879 0 -0.13786)
(-0.00107345 0 -0.127713)
(-0.00102734 0 -0.116142)
(-0.000830514 0 -0.104345)
(-0.000501185 0 -0.0936103)
(-4.29316e-05 0 -0.0854057)
(0.000577442 0 -0.0822208)
(0.00142208 0 -0.0889685)
(0.00244174 0 -0.112518)
(0.00286538 0 -0.15258)
(0.00102495 0 -0.185221)
(-0.0020936 0 -0.174759)
(-0.00312963 0 -0.12537)
(-0.00216597 0 -0.0750607)
(-0.00110669 0 -0.0431038)
(-0.000466363 0 -0.0276625)
(-9.87032e-05 0 -0.0202556)
(0.000145139 0 -0.0157476)
(0.000313943 0 -0.0126145)
(0.000436808 0 -0.0102105)
(0.000528673 0 -0.00818112)
(0.000598726 0 -0.00628159)
(0.000653172 0 -0.00434236)
(0.000696191 0 -0.00227342)
(0.000731382 0 -6.58306e-05)
(0.000761544 0 0.0022272)
(0.000787321 0 0.00451117)
(0.000808841 0 0.00668159)
(0.000826589 0 0.00864364)
(0.000840762 0 0.0103236)
(0.000851708 0 0.0116722)
(0.000859938 0 0.0126626)
(0.000866064 0 0.0132861)
(0.000870738 0 0.0135478)
(0.000874568 0 0.0134636)
(0.000878047 0 0.0130575)
(0.000881491 0 0.0123612)
(0.000885028 0 0.0114131)
(0.000888659 0 0.0102566)
(0.000892326 0 0.00893713)
(0.000895753 0 0.0074995)
(0.000898143 0 0.00598753)
(0.000899215 0 0.00444267)
(0.000901796 0 0.00290727)
(0.000888513 0 0.00126613)
(0.00106717 0 -0.136807)
(0.000673893 0 -0.14604)
(0.000158655 0 -0.150443)
(-0.000352994 0 -0.149971)
(-0.000769282 0 -0.145437)
(-0.00104578 0 -0.137754)
(-0.00115986 0 -0.127714)
(-0.00110007 0 -0.116251)
(-0.000873976 0 -0.104552)
(-0.000501266 0 -0.0939085)
(1.13352e-05 0 -0.0858036)
(0.000691586 0 -0.0827484)
(0.00158815 0 -0.0896225)
(0.00261821 0 -0.113014)
(0.00299873 0 -0.152141)
(0.00112461 0 -0.183545)
(-0.00201401 0 -0.173356)
(-0.00311036 0 -0.125375)
(-0.0021805 0 -0.0757489)
(-0.00108662 0 -0.0437257)
(-0.000389926 0 -0.0280866)
(2.6291e-05 0 -0.0205482)
(0.000310857 0 -0.0159606)
(0.000513902 0 -0.0127772)
(0.000665424 0 -0.0103394)
(0.000781141 0 -0.00828567)
(0.000871104 0 -0.006368)
(0.000942538 0 -0.00441524)
(0.00100023 0 -0.00233662)
(0.00104831 0 -0.000121355)
(0.00108916 0 0.00217732)
(0.00112357 0 0.00446645)
(0.00115256 0 0.00664205)
(0.00117663 0 0.00860932)
(0.00119613 0 0.0102944)
(0.00121156 0 0.0116479)
(0.00122357 0 0.0126425)
(0.00123286 0 0.0132693)
(0.00124018 0 0.0135335)
(0.00124624 0 0.0134507)
(0.00125159 0 0.0130452)
(0.00125661 0 0.0123491)
(0.00126146 0 0.0114009)
(0.00126619 0 0.0102444)
(0.00127075 0 0.00892527)
(0.0012748 0 0.00748926)
(0.00127745 0 0.00598161)
(0.00127862 0 0.00444401)
(0.00128259 0 0.00291522)
(0.00126877 0 0.00127305)
(0.00105454 0 -0.136624)
(0.000650372 0 -0.145746)
(0.000122618 0 -0.150109)
(-0.00040184 0 -0.149671)
(-0.00082842 0 -0.145217)
(-0.00110894 0 -0.137637)
(-0.0012179 0 -0.127713)
(-0.00114223 0 -0.116367)
(-0.000889075 0 -0.104776)
(-0.000479193 0 -0.0942303)
(7.75237e-05 0 -0.0862291)
(0.00080319 0 -0.0833014)
(0.00173401 0 -0.0902852)
(0.00275637 0 -0.113485)
(0.00308924 0 -0.151666)
(0.00122629 0 -0.181874)
(-0.00185325 0 -0.171947)
(-0.00296992 0 -0.125339)
(-0.00208299 0 -0.0764262)
(-0.000973787 0 -0.0443693)
(-0.000235441 0 -0.0285416)
(0.00022004 0 -0.020871)
(0.000540144 0 -0.0162009)
(0.000774808 0 -0.0129642)
(0.000953783 0 -0.0104895)
(0.00109315 0 -0.00840873)
(0.00120352 0 -0.00647057)
(0.00129264 0 -0.00450228)
(0.00136591 0 -0.00241218)
(0.00142743 0 -0.000187892)
(0.00147961 0 0.00211787)
(0.00152383 0 0.00441352)
(0.0015613 0 0.00659542)
(0.00159257 0 0.00856889)
(0.00161821 0 0.01026)
(0.00163887 0 0.0116191)
(0.00165529 0 0.0126186)
(0.0016683 0 0.0132494)
(0.00167875 0 0.0135165)
(0.0016874 0 0.0134356)
(0.00169487 0 0.0130312)
(0.00170157 0 0.0123355)
(0.00170774 0 0.0113877)
(0.00171344 0 0.0102315)
(0.00171861 0 0.00891315)
(0.00172291 0 0.00747941)
(0.00172543 0 0.00597656)
(0.0017265 0 0.00444571)
(0.00173176 0 0.00292199)
(0.00171673 0 0.00127856)
(0.00100197 0 -0.136423)
(0.000596408 0 -0.145431)
(6.78492e-05 0 -0.149754)
(-0.000457171 0 -0.14935)
(-0.000882983 0 -0.144978)
(-0.00115879 0 -0.137507)
(-0.00125684 0 -0.127704)
(-0.00116287 0 -0.116483)
(-0.000883645 0 -0.105006)
(-0.00044076 0 -0.0945648)
(0.000152993 0 -0.0866702)
(0.000914499 0 -0.0838664)
(0.00186983 0 -0.0909432)
(0.00287983 0 -0.113925)
(0.00317164 0 -0.151162)
(0.00134633 0 -0.180225)
(-0.00163439 0 -0.170548)
(-0.00274388 0 -0.125266)
(-0.00189459 0 -0.0770828)
(-0.000776101 0 -0.0450215)
(-4.631e-06 0 -0.0290165)
(0.000483596 0 -0.0212158)
(0.000835197 0 -0.0164623)
(0.0010991 0 -0.0131708)
(0.0013043 0 -0.0106575)
(0.00146694 0 -0.008548)
(0.00159795 0 -0.00658795)
(0.00170527 0 -0.004603)
(0.00179464 0 -0.00250014)
(0.00187015 0 -0.000265777)
(0.00193447 0 0.00204845)
(0.00198938 0 0.00435175)
(0.00203607 0 0.00654089)
(0.00207528 0 0.00852139)
(0.00210772 0 0.0102193)
(0.00213418 0 0.0115846)
(0.00215553 0 0.0125897)
(0.00217269 0 0.013225)
(0.00218658 0 0.0134956)
(0.00219807 0 0.0134171)
(0.00220782 0 0.0130143)
(0.0022163 0 0.0123197)
(0.00222378 0 0.0113727)
(0.00223036 0 0.0102175)
(0.00223601 0 0.00890076)
(0.0022404 0 0.00747004)
(0.00224273 0 0.00597226)
(0.00224377 0 0.0044475)
(0.00225041 0 0.00292777)
(0.00223396 0 0.00128311)
(0.000914411 0 -0.136219)
(0.00051519 0 -0.145116)
(-4.98059e-06 0 -0.149398)
(-0.000521009 0 -0.149029)
(-0.00093723 0 -0.144741)
(-0.00120109 0 -0.137381)
(-0.00128318 0 -0.127704)
(-0.00116841 0 -0.116611)
(-0.000863228 0 -0.105254)
(-0.000389895 0 -0.0949188)
(0.000236354 0 -0.0871311)
(0.00102782 0 -0.0844461)
(0.0020027 0 -0.0916004)
(0.00300189 0 -0.114344)
(0.00326388 0 -0.150655)
(0.00149441 0 -0.178631)
(-0.00136644 0 -0.169192)
(-0.00245054 0 -0.125182)
(-0.00162987 0 -0.0777292)
(-0.000502011 0 -0.0456854)
(0.000298602 0 -0.0295134)
(0.000815958 0 -0.0215852)
(0.0011966 0 -0.0167487)
(0.0014881 0 -0.0134018)
(0.00171867 0 -0.0108487)
(0.00190434 0 -0.00870915)
(0.00205618 0 -0.00672593)
(0.00218218 0 -0.00472307)
(0.00228818 0 -0.00260607)
(0.00237832 0 -0.000360229)
(0.00245553 0 0.00196387)
(0.00252175 0 0.00427608)
(0.00257826 0 0.00647363)
(0.00262598 0 0.0084623)
(0.00266577 0 0.0101681)
(0.00269852 0 0.0115407)
(0.00272521 0 0.0125522)
(0.00274688 0 0.0131931)
(0.00276454 0 0.0134681)
(0.00277911 0 0.0133929)
(0.00279133 0 0.0129926)
(0.00280173 0 0.0123001)
(0.00281062 0 0.0113549)
(0.00281814 0 0.0102017)
(0.0028243 0 0.00888746)
(0.00282884 0 0.00746051)
(0.00283111 0 0.00596792)
(0.00283232 0 0.00444865)
(0.00284044 0 0.00293228)
(0.00282244 0 0.0012868)
(0.000794442 0 -0.136024)
(0.000408307 0 -0.144811)
(-9.57539e-05 0 -0.149055)
(-0.00059486 0 -0.14872)
(-0.000994042 0 -0.144518)
(-0.00123968 0 -0.13727)
(-0.00130126 0 -0.127721)
(-0.00116309 0 -0.116758)
(-0.000831348 0 -0.105522)
(-0.000328821 0 -0.0952952)
(0.00032735 0 -0.0876135)
(0.00114554 0 -0.0850424)
(0.00213769 0 -0.0922618)
(0.00312971 0 -0.114754)
(0.00337371 0 -0.150162)
(0.00167478 0 -0.17711)
(-0.00105224 0 -0.167898)
(-0.00209764 0 -0.125102)
(-0.00129688 0 -0.078373)
(-0.000157598 0 -0.0463637)
(0.00067081 0 -0.0300332)
(0.00121583 0 -0.0219803)
(0.00162442 0 -0.0170615)
(0.00194276 0 -0.0136589)
(0.00219838 0 -0.0110653)
(0.00240719 0 -0.00889462)
(0.00258022 0 -0.00688703)
(0.00272542 0 -0.00486488)
(0.00284861 0 -0.00273227)
(0.00295405 0 -0.000473466)
(0.00304478 0 0.00186188)
(0.0031229 0 0.00418433)
(0.00318981 0 0.00639165)
(0.00324659 0 0.0083898)
(0.00329421 0 0.0101047)
(0.0033337 0 0.0114859)
(0.00336615 0 0.0125051)
(0.00339269 0 0.0131527)
(0.00341442 0 0.0134331)
(0.00343234 0 0.0133625)
(0.00344726 0 0.0129658)
(0.00345975 0 0.0122763)
(0.00347019 0 0.011334)
(0.00347877 0 0.0101837)
(0.00348556 0 0.008873)
(0.0034904 0 0.00745045)
(0.00349276 0 0.00596311)
(0.00349425 0 0.00444891)
(0.00350388 0 0.00293562)
(0.00348419 0 0.00128982)
(0.000643667 0 -0.135841)
(0.000276649 0 -0.144521)
(-0.000204624 0 -0.148728)
(-0.000679985 0 -0.148428)
(-0.00105564 0 -0.14431)
(-0.00127749 0 -0.137175)
(-0.00131432 0 -0.127755)
(-0.00115004 0 -0.116924)
(-0.000790606 0 -0.10581)
(-0.00025901 0 -0.0956922)
(0.000426002 0 -0.0881152)
(0.00126951 0 -0.0856538)
(0.00227856 0 -0.0929281)
(0.0032679 0 -0.115161)
(0.00350529 0 -0.149692)
(0.00188952 0 -0.175666)
(-0.000692777 0 -0.16667)
(-0.00168875 0 -0.125032)
(-0.00090049 0 -0.0790174)
(0.000252804 0 -0.0470567)
(0.00110933 0 -0.0305751)
(0.00168208 0 -0.0223998)
(0.00211858 0 -0.0173996)
(0.00246376 0 -0.0139413)
(0.00274469 0 -0.0113065)
(0.00297713 0 -0.00910401)
(0.00317195 0 -0.00707104)
(0.00333696 0 -0.00502833)
(0.00347798 0 -0.00287878)
(0.00359935 0 -0.000605667)
(0.00370426 0 0.00174226)
(0.00379489 0 0.0040763)
(0.0038728 0 0.00629475)
(0.00393919 0 0.00830373)
(0.00399517 0 0.0100291)
(0.00404186 0 0.0114201)
(0.00408047 0 0.0124483)
(0.00411224 0 0.0131037)
(0.00413836 0 0.0133909)
(0.0041599 0 0.0133258)
(0.00417773 0 0.0129338)
(0.00419251 0 0.0122485)
(0.00420466 0 0.01131)
(0.00421446 0 0.0101636)
(0.00422204 0 0.00885725)
(0.00422734 0 0.00743964)
(0.00422997 0 0.00595765)
(0.00423182 0 0.00444832)
(0.00424294 0 0.00293808)
(0.00422145 0 0.00129238)
(0.000463244 0 -0.13567)
(0.000120727 0 -0.144246)
(-0.000331942 0 -0.148418)
(-0.000777609 0 -0.148154)
(-0.00112405 0 -0.14412)
(-0.0013171 0 -0.137098)
(-0.00132515 0 -0.127807)
(-0.00113194 0 -0.117108)
(-0.000743139 0 -0.106117)
(-0.000181808 0 -0.0961083)
(0.000532169 0 -0.0886348)
(0.00140121 0 -0.0862791)
(0.00242831 0 -0.0935996)
(0.00342003 0 -0.115568)
(0.00366154 0 -0.14925)
(0.00213971 0 -0.174302)
(-0.000289293 0 -0.16551)
(-0.00122669 0 -0.124976)
(-0.000444414 0 -0.0796645)
(0.00072576 0 -0.0477651)
(0.00161199 0 -0.031139)
(0.00221368 0 -0.0228432)
(0.00267891 0 -0.0177621)
(0.00305162 0 -0.0142482)
(0.00335864 0 -0.0115721)
(0.00361552 0 -0.00933714)
(0.00383291 0 -0.00727791)
(0.0040185 0 -0.00521355)
(0.00417811 0 -0.00304584)
(0.00431616 0 -0.00075716)
(0.00443595 0 0.00160464)
(0.00453977 0 0.00395163)
(0.00462931 0 0.00618256)
(0.00470588 0 0.00820371)
(0.00477072 0 0.00994082)
(0.00482507 0 0.011343)
(0.00487027 0 0.0123814)
(0.00490763 0 0.0130459)
(0.00493844 0 0.013341)
(0.00496386 0 0.0132826)
(0.00498485 0 0.0128965)
(0.00500212 0 0.0122163)
(0.00501619 0 0.0112827)
(0.00502738 0 0.0101411)
(0.00503594 0 0.00883984)
(0.0050419 0 0.00742767)
(0.00504496 0 0.00595123)
(0.00504727 0 0.00444683)
(0.0050599 0 0.0029398)
(0.0050365 0 0.00129463)
(0.000253866 0 -0.135515)
(-5.93944e-05 0 -0.143991)
(-0.000478378 0 -0.148129)
(-0.000889133 0 -0.1479)
(-0.00120131 0 -0.143951)
(-0.00136097 0 -0.137041)
(-0.00133637 0 -0.127879)
(-0.00111117 0 -0.117313)
(-0.000690851 0 -0.106444)
(-9.83312e-05 0 -0.0965437)
(0.000645821 0 -0.0891725)
(0.00154198 0 -0.0869189)
(0.00258956 0 -0.0942784)
(0.0035891 0 -0.11598)
(0.0038445 0 -0.148842)
(0.00242512 0 -0.173024)
(0.000155615 0 -0.164424)
(-0.000714651 0 -0.124939)
(6.8398e-05 0 -0.0803171)
(0.00125877 0 -0.0484903)
(0.00217714 0 -0.0317263)
(0.00280983 0 -0.0233116)
(0.00330532 0 -0.0181502)
(0.00370681 0 -0.0145806)
(0.00404112 0 -0.0118629)
(0.00432353 0 -0.00959486)
(0.00456451 0 -0.00750851)
(0.00477163 0 -0.00542143)
(0.00495073 0 -0.0032344)
(0.00510633 0 -0.000928894)
(0.00524179 0 0.00144811)
(0.00535955 0 0.0038094)
(0.00546138 0 0.00605418)
(0.00554875 0 0.0080889)
(0.005623 0 0.00983917)
(0.00568551 0 0.0112538)
(0.0057377 0 0.0123038)
(0.00578102 0 0.0129787)
(0.00581685 0 0.0132829)
(0.00584643 0 0.0132324)
(0.0058708 0 0.0128532)
(0.00589078 0 0.0121792)
(0.00590696 0 0.0112514)
(0.00591974 0 0.0101156)
(0.00592946 0 0.0088202)
(0.00593624 0 0.00741404)
(0.00593982 0 0.00594352)
(0.0059426 0 0.00444434)
(0.00595672 0 0.00294088)
(0.00593127 0 0.00129668)
(1.57017e-05 0 -0.135378)
(-0.000264157 0 -0.143758)
(-0.000645004 0 -0.147864)
(-0.00101624 0 -0.147671)
(-0.00128958 0 -0.143805)
(-0.00141155 0 -0.137008)
(-0.00135043 0 -0.127973)
(-0.00108996 0 -0.117539)
(-0.000635396 0 -0.106793)
(-9.39503e-06 0 -0.0970001)
(0.000767207 0 -0.0897297)
(0.00169325 0 -0.0875752)
(0.0027648 0 -0.0949678)
(0.0037777 0 -0.116401)
(0.0040553 0 -0.148474)
(0.00274406 0 -0.171836)
(0.00063809 0 -0.163416)
(-0.000156127 0 -0.124926)
(0.000635795 0 -0.0809789)
(0.00185051 0 -0.0492347)
(0.00280406 0 -0.032339)
(0.00347027 0 -0.023807)
(0.003998 0 -0.0185653)
(0.00442998 0 -0.01494)
(0.00479307 0 -0.0121802)
(0.00510236 0 -0.00987854)
(0.00536813 0 -0.00776415)
(0.00559791 0 -0.00565327)
(0.00579757 0 -0.0034457)
(0.0059717 0 -0.00112207)
(0.00612376 0 0.00127151)
(0.00625629 0 0.00364851)
(0.0063712 0 0.00590859)
(0.00647005 0 0.00795831)
(0.00655432 0 0.00972316)
(0.00662551 0 0.0111517)
(0.00668517 0 0.0122146)
(0.00673485 0 0.0129012)
(0.00677602 0 0.0132158)
(0.00681003 0 0.0131744)
(0.00683803 0 0.0128033)
(0.00686092 0 0.0121366)
(0.00687936 0 0.0112158)
(0.00689386 0 0.0100867)
(0.00690481 0 0.008798)
(0.00691241 0 0.00739856)
(0.00691646 0 0.00593453)
(0.00691958 0 0.00444106)
(0.00693505 0 0.00294162)
(0.00690733 0 0.00129874)
(-0.000251524 0 -0.135262)
(-0.000494385 0 -0.14355)
(-0.000833186 0 -0.147627)
(-0.00116077 0 -0.147469)
(-0.00139105 0 -0.143687)
(-0.0014712 0 -0.137)
(-0.00136964 0 -0.128093)
(-0.0010703 0 -0.117789)
(-0.000578188 0 -0.107165)
(8.44121e-05 0 -0.0974793)
(0.000896734 0 -0.0903087)
(0.00185647 0 -0.0882508)
(0.00295622 0 -0.095671)
(0.00398781 0 -0.116837)
(0.00429428 0 -0.148152)
(0.00309428 0 -0.17074)
(0.00115421 0 -0.16249)
(0.000445623 0 -0.124944)
(0.00125637 0 -0.0816545)
(0.00250075 0 -0.0500013)
(0.00349287 0 -0.0329798)
(0.00419533 0 -0.0243316)
(0.00475757 0 -0.0190093)
(0.00522203 0 -0.015328)
(0.00561563 0 -0.0125258)
(0.00595332 0 -0.0101897)
(0.00624526 0 -0.00804625)
(0.00649897 0 -0.00591041)
(0.0067204 0 -0.00368106)
(0.0069142 0 -0.00133795)
(0.00708392 0 0.00107361)
(0.0072322 0 0.0034678)
(0.00736106 0 0.00574468)
(0.00747219 0 0.00781091)
(0.00756719 0 0.00959183)
(0.00764768 0 0.0110357)
(0.00771533 0 0.012113)
(0.00777179 0 0.0128126)
(0.00781866 0 0.013139)
(0.0078574 0 0.0131081)
(0.00788926 0 0.0127463)
(0.00791521 0 0.0120882)
(0.00793602 0 0.0111754)
(0.00795226 0 0.0100542)
(0.00796437 0 0.00877329)
(0.00797264 0 0.00738153)
(0.00797692 0 0.00592481)
(0.00798009 0 0.00443769)
(0.00799667 0 0.00294266)
(0.00796639 0 0.00130115)
(-0.00054834 0 -0.13517)
(-0.000751045 0 -0.143369)
(-0.00104432 0 -0.14742)
(-0.0013245 0 -0.147298)
(-0.00150776 0 -0.143598)
(-0.00154205 0 -0.137022)
(-0.00139607 0 -0.12824)
(-0.00105395 0 -0.118067)
(-0.000520495 0 -0.107563)
(0.000182515 0 -0.0979839)
(0.00103463 0 -0.0909122)
(0.00203259 0 -0.0889485)
(0.00316521 0 -0.0963913)
(0.00422055 0 -0.117291)
(0.00456143 0 -0.147878)
(0.00347436 0 -0.169737)
(0.00170142 0 -0.16165)
(0.00108824 0 -0.125001)
(0.00192921 0 -0.0823496)
(0.00320963 0 -0.0507934)
(0.00424411 0 -0.033651)
(0.00498571 0 -0.0248874)
(0.00558494 0 -0.0194844)
(0.00608404 0 -0.0157465)
(0.00651006 0 -0.0129012)
(0.00687783 0 -0.0105298)
(0.00719748 0 -0.00835631)
(0.00747657 0 -0.00619434)
(0.00772112 0 -0.0039419)
(0.00793586 0 -0.00157792)
(0.00812444 0 0.0008531)
(0.00828957 0 0.003266)
(0.0084334 0 0.00556122)
(0.00855772 0 0.00764551)
(0.00866426 0 0.00944406)
(0.00875474 0 0.0109048)
(0.00883096 0 0.0119979)
(0.0088947 0 0.0127122)
(0.00894767 0 0.0130517)
(0.00899144 0 0.0130327)
(0.00902736 0 0.0126817)
(0.00905651 0 0.0120336)
(0.00907973 0 0.0111303)
(0.00909763 0 0.0100183)
(0.00911075 0 0.00874648)
(0.00911945 0 0.00736364)
(0.00912363 0 0.00591523)
(0.00912653 0 0.00443515)
(0.00914395 0 0.0029448)
(0.00911088 0 0.00130431)
(-0.000875356 0 -0.135103)
(-0.00103504 0 -0.143219)
(-0.00127965 0 -0.147245)
(-0.00150894 0 -0.14716)
(-0.00164141 0 -0.143541)
(-0.0016259 0 -0.137075)
(-0.00143148 0 -0.128418)
(-0.00104251 0 -0.118373)
(-0.000463578 0 -0.10799)
(0.00028412 0 -0.0985166)
(0.00118059 0 -0.0915431)
(0.00222169 0 -0.0896714)
(0.00339205 0 -0.0971319)
(0.0044761 0 -0.117766)
(0.00485678 0 -0.147653)
(0.0038843 0 -0.168828)
(0.00227926 0 -0.1609)
(0.00177061 0 -0.125103)
(0.00265349 0 -0.0830702)
(0.00397707 0 -0.0516149)
(0.00505817 0 -0.0343554)
(0.00584208 0 -0.0254769)
(0.00648102 0 -0.0199926)
(0.00701716 0 -0.0161976)
(0.00747769 0 -0.0133084)
(0.00787741 0 -0.0109007)
(0.00822649 0 -0.00869604)
(0.00853256 0 -0.00650669)
(0.00880173 0 -0.00422984)
(0.00903883 0 -0.00184357)
(0.00924757 0 0.000608421)
(0.00943079 0 0.0030416)
(0.0095907 0 0.00535678)
(0.00972922 0 0.00746077)
(0.00984817 0 0.00927857)
(0.00994941 0 0.0107579)
(0.0100349 0 0.0118685)
(0.0101064 0 0.0125989)
(0.0101659 0 0.0129532)
(0.010215 0 0.0129477)
(0.0102552 0 0.012609)
(0.0102877 0 0.0119725)
(0.0103133 0 0.0110802)
(0.0103329 0 0.00997917)
(0.0103468 0 0.00871809)
(0.0103557 0 0.0073456)
(0.0103596 0 0.00590663)
(0.010362 0 0.00443425)
(0.01038 0 0.00294865)
(0.010344 0 0.00130854)
(-0.00123318 0 -0.135063)
(-0.00134717 0 -0.1431)
(-0.00154017 0 -0.147104)
(-0.00171532 0 -0.147057)
(-0.00179344 0 -0.14352)
(-0.00172434 0 -0.137162)
(-0.00147749 0 -0.128629)
(-0.00103752 0 -0.118712)
(-0.000408806 0 -0.108448)
(0.000388094 0 -0.0990803)
(0.00133371 0 -0.0922048)
(0.00242295 0 -0.090423)
(0.00363599 0 -0.0978962)
(0.00475406 0 -0.118266)
(0.00518062 0 -0.147481)
(0.00432526 0 -0.168013)
(0.00288874 0 -0.160242)
(0.00249249 0 -0.125258)
(0.00342832 0 -0.0838226)
(0.00480249 0 -0.0524698)
(0.00593503 0 -0.035096)
(0.00676484 0 -0.0261028)
(0.00744657 0 -0.0205364)
(0.00802244 0 -0.0166834)
(0.00851982 0 -0.0137495)
(0.00895361 0 -0.0113045)
(0.00933404 0 -0.00906737)
(0.00966888 0 -0.00684936)
(0.00996433 0 -0.00454671)
(0.0102253 0 -0.00213668)
(0.0104557 0 0.000337834)
(0.0106583 0 0.00279292)
(0.0108355 0 0.00512974)
(0.0109892 0 0.00725516)
(0.0111215 0 0.00909399)
(0.0112344 0 0.0105936)
(0.0113297 0 0.0117234)
(0.0114096 0 0.0124719)
(0.0114761 0 0.0128428)
(0.0115309 0 0.0128525)
(0.0115757 0 0.0125279)
(0.0116116 0 0.0119047)
(0.0116398 0 0.0110254)
(0.0116609 0 0.00993701)
(0.0116757 0 0.0086884)
(0.0116847 0 0.0073278)
(0.0116881 0 0.00589944)
(0.0116899 0 0.00443539)
(0.0117086 0 0.00295452)
(0.0116695 0 0.00131396)
(-0.00162245 0 -0.135051)
(-0.00168819 0 -0.143014)
(-0.00182685 0 -0.146999)
(-0.00194483 0 -0.146991)
(-0.00196521 0 -0.143535)
(-0.00183885 0 -0.137285)
(-0.00153568 0 -0.128876)
(-0.00104057 0 -0.119086)
(-0.000357685 0 -0.108941)
(0.000493017 0 -0.0996784)
(0.00149256 0 -0.0929005)
(0.00263493 0 -0.0912066)
(0.00389575 0 -0.0986877)
(0.00505379 0 -0.118794)
(0.00553341 0 -0.147364)
(0.00479865 0 -0.167295)
(0.00353117 0 -0.159679)
(0.00325387 0 -0.12547)
(0.00425274 0 -0.0846128)
(0.00568506 0 -0.0533625)
(0.00687436 0 -0.0358764)
(0.00775414 0 -0.026768)
(0.00848217 0 -0.0211186)
(0.0091008 0 -0.0172067)
(0.00963771 0 -0.0142268)
(0.010108 0 -0.0117432)
(0.0105219 0 -0.00947247)
(0.0108875 0 -0.00722446)
(0.0112111 0 -0.00489456)
(0.0114976 0 -0.00245922)
(0.0117511 0 3.94398e-05)
(0.0119745 0 0.00251815)
(0.0121702 0 0.0048784)
(0.0123403 0 0.0070271)
(0.012487 0 0.00888883)
(0.0126122 0 0.0104107)
(0.0127182 0 0.0115617)
(0.0128071 0 0.0123301)
(0.012881 0 0.0127195)
(0.012942 0 0.0127464)
(0.0129915 0 0.0124379)
(0.0130312 0 0.01183)
(0.0130619 0 0.0109655)
(0.0130847 0 0.00989174)
(0.0131004 0 0.00865739)
(0.0131096 0 0.00731023)
(0.0131126 0 0.00589361)
(0.0131138 0 0.0044385)
(0.0131333 0 0.00296234)
(0.0130911 0 0.00132055)
(-0.00204396 0 -0.13507)
(-0.00205903 0 -0.142963)
(-0.00214077 0 -0.146932)
(-0.00219871 0 -0.146965)
(-0.00215816 0 -0.14359)
(-0.00197102 0 -0.137448)
(-0.0016077 0 -0.129162)
(-0.00105334 0 -0.119498)
(-0.000311889 0 -0.109471)
(0.000597251 0 -0.100314)
(0.00165555 0 -0.0936334)
(0.00285604 0 -0.0920255)
(0.00416998 0 -0.0995103)
(0.00537466 0 -0.119356)
(0.00591538 0 -0.147307)
(0.00530531 0 -0.166673)
(0.00420725 0 -0.159213)
(0.00405455 0 -0.125745)
(0.00512589 0 -0.0854465)
(0.00662408 0 -0.0542977)
(0.00787587 0 -0.0367004)
(0.00881015 0 -0.0274763)
(0.00958839 0 -0.0217424)
(0.0102532 0 -0.0177701)
(0.0108326 0 -0.014743)
(0.011342 0 -0.0122196)
(0.0117919 0 -0.00991377)
(0.0121905 0 -0.00763427)
(0.0125442 0 -0.00527559)
(0.0128581 0 -0.00281332)
(0.0131364 0 -0.000288784)
(0.013382 0 0.00221537)
(0.0135975 0 0.00460097)
(0.0137852 0 0.00677492)
(0.0139471 0 0.00866161)
(0.0140856 0 0.0102078)
(0.014203 0 0.0113821)
(0.0143015 0 0.0121725)
(0.0143835 0 0.0125825)
(0.014451 0 0.0126288)
(0.0145057 0 0.0123384)
(0.0145493 0 0.0117479)
(0.0145828 0 0.0109003)
(0.0146074 0 0.00984308)
(0.0146241 0 0.00862477)
(0.0146336 0 0.00729253)
(0.0146364 0 0.00588879)
(0.0146373 0 0.00444325)
(0.0146575 0 0.00297186)
(0.0146124 0 0.00132821)
(-0.00249871 0 -0.13512)
(-0.00246083 0 -0.142949)
(-0.00248326 0 -0.146906)
(-0.00247846 0 -0.146979)
(-0.00237391 0 -0.143687)
(-0.00212256 0 -0.137652)
(-0.00169533 0 -0.129488)
(-0.00107762 0 -0.11995)
(-0.000273178 0 -0.110041)
(0.000699102 0 -0.10099)
(0.00182108 0 -0.0944069)
(0.00308481 0 -0.0928832)
(0.00445756 0 -0.100368)
(0.00571613 0 -0.119957)
(0.00632636 0 -0.147314)
(0.00584512 0 -0.166151)
(0.00491686 0 -0.158846)
(0.00489407 0 -0.126089)
(0.00604716 0 -0.0863294)
(0.00761922 0 -0.0552802)
(0.00893963 0 -0.0375722)
(0.00993323 0 -0.0282311)
(0.0107659 0 -0.0224113)
(0.0114806 0 -0.018377)
(0.0121059 0 -0.0153011)
(0.0126574 0 -0.0127363)
(0.013146 0 -0.0103938)
(0.0135799 0 -0.00808128)
(0.0139659 0 -0.00569217)
(0.0143092 0 -0.00320123)
(0.0146139 0 -0.000648976)
(0.0148833 0 0.00188257)
(0.0151201 0 0.00429556)
(0.0153265 0 0.00649691)
(0.0155048 0 0.00841077)
(0.0156576 0 0.00998347)
(0.0157871 0 0.0111834)
(0.015896 0 0.0119981)
(0.0159865 0 0.0124311)
(0.016061 0 0.0124989)
(0.0161213 0 0.012229)
(0.016169 0 0.011658)
(0.0162056 0 0.0108294)
(0.0162323 0 0.00979064)
(0.0162501 0 0.00859012)
(0.0162601 0 0.00727431)
(0.0162628 0 0.00588456)
(0.0162634 0 0.0044493)
(0.0162847 0 0.00298289)
(0.0162363 0 0.00133686)
(-0.002988 0 -0.135204)
(-0.00289506 0 -0.142973)
(-0.00285591 0 -0.146921)
(-0.00278581 0 -0.147037)
(-0.0026143 0 -0.143827)
(-0.00229538 0 -0.1379)
(-0.00180048 0 -0.129858)
(-0.00111528 0 -0.120446)
(-0.000243354 0 -0.110655)
(0.000796886 0 -0.10171)
(0.0019876 0 -0.0952244)
(0.00331991 0 -0.0937836)
(0.00475752 0 -0.101266)
(0.00607755 0 -0.120601)
(0.00676558 0 -0.14739)
(0.00641717 0 -0.165729)
(0.00565935 0 -0.15858)
(0.00577192 0 -0.126505)
(0.00701627 0 -0.0872674)
(0.00867066 0 -0.0563151)
(0.0100661 0 -0.0384962)
(0.0111241 0 -0.0290367)
(0.0120158 0 -0.0231287)
(0.0127844 0 -0.0190305)
(0.0134591 0 -0.0159042)
(0.014056 0 -0.0132963)
(0.0145861 0 -0.0109155)
(0.015058 0 -0.00856816)
(0.0154786 0 -0.00614684)
(0.0158534 0 -0.00362537)
(0.0161865 0 -0.00104341)
(0.0164814 0 0.00151762)
(0.0167408 0 0.00396021)
(0.0169673 0 0.00619125)
(0.0171632 0 0.00813464)
(0.0173312 0 0.00973633)
(0.0174738 0 0.0109643)
(0.0175937 0 0.0118058)
(0.0176935 0 0.0122641)
(0.0177754 0 0.0123559)
(0.0178416 0 0.0121088)
(0.0178939 0 0.0115596)
(0.0179338 0 0.0107522)
(0.0179626 0 0.00973404)
(0.0179817 0 0.00855312)
(0.0179923 0 0.00725526)
(0.0179951 0 0.0058807)
(0.0179954 0 0.0044565)
(0.0180178 0 0.00299532)
(0.0179662 0 0.00134648)
(-0.00351339 0 -0.135323)
(-0.00336341 0 -0.143037)
(-0.00326054 0 -0.146978)
(-0.00312265 0 -0.14714)
(-0.00288129 0 -0.144014)
(-0.00249147 0 -0.138194)
(-0.00192514 0 -0.130274)
(-0.00116827 0 -0.120988)
(-0.000224263 0 -0.111316)
(0.000888899 0 -0.102477)
(0.00215361 0 -0.0960894)
(0.00356008 0 -0.0947304)
(0.00506889 0 -0.102208)
(0.00645804 0 -0.121295)
(0.00723182 0 -0.147537)
(0.00702021 0 -0.165408)
(0.00643411 0 -0.158417)
(0.00668789 0 -0.127)
(0.00803331 0 -0.0882664)
(0.00977894 0 -0.0574076)
(0.0112562 0 -0.0394768)
(0.0123839 0 -0.0298969)
(0.0133392 0 -0.0238986)
(0.014166 0 -0.0197345)
(0.014894 0 -0.0165557)
(0.0155396 0 -0.0139027)
(0.0161144 0 -0.0114818)
(0.0166271 0 -0.0090978)
(0.0170849 0 -0.00664234)
(0.0174933 0 -0.00408832)
(0.0178569 0 -0.00147455)
(0.0181791 0 0.00111821)
(0.0184629 0 0.00359277)
(0.0187108 0 0.00585598)
(0.0189256 0 0.00783145)
(0.01911 0 0.00946473)
(0.0192666 0 0.0107234)