/*--------------------------------*- C++ -*----------------------------------*\
  =========                 |
  \\      /  F ield         | OpenFOAM: The Open Source CFD Toolbox
   \\    /   O peration     | Website:  https://openfoam.org
    \\  /    A nd           | Version:  9
     \\/     M anipulation  |
\*---------------------------------------------------------------------------*/
FoamFile
{
    format      ascii;
    class       volScalarField;
    location    "0.19";
    object      p_rgh;
}
// * * * * * * * * * * * * * * * * * * * * * * * * * * * * * * * * * * * * * //

dimensions      [1 -1 -2 0 0 0 0];

internalField   nonuniform List<scalar> 
5000
(
-0.0408699
-0.0282947
-0.0162096
-0.00793429
-0.00460622
-0.00502398
-0.00775821
-0.0109193
-0.0133415
-0.0149898
-0.0161538
-0.0168574
-0.0168687
-0.0175892
-0.0294613
-0.139718
-0.0828099
-0.0210068
-0.0168558
-0.0163609
-0.0156873
-0.0147331
-0.0137342
-0.0128066
-0.0119691
-0.0112111
-0.0105194
-0.00988311
-0.00929282
-0.00873904
-0.00821223
-0.0077033
-0.00720427
-0.00670884
-0.00621262
-0.00571321
-0.00521
-0.00470394
-0.00419723
-0.00369308
-0.00319559
-0.00270969
-0.00224124
-0.00179694
-0.00138398
-0.00100891
-0.000676091
-0.000388118
-0.000153037
3.76302e-06
-0.0293798
-0.0191097
-0.0103724
-0.00434976
-0.0011303
-3.10243e-05
-0.000652608
-0.00215611
-0.00383064
-0.00543618
-0.00704895
-0.00897739
-0.0120369
-0.0211737
-0.0268524
-0.080879
-0.0519472
-0.0261154
-0.0175206
-0.0116208
-0.00946991
-0.00823133
-0.00733309
-0.00662462
-0.00604738
-0.00556795
-0.00516218
-0.0048112
-0.0045
-0.00421656
-0.00395124
-0.00369647
-0.00344656
-0.00319757
-0.00294714
-0.00269428
-0.00243923
-0.00218318
-0.0019281
-0.00167657
-0.00143162
-0.00119656
-0.000974796
-0.000769513
-0.000583307
-0.000417683
-0.000272359
-0.000145711
-3.93488e-05
3.19142e-05
-0.0221562
-0.0125269
-0.00484258
0.000460321
0.00351415
0.0048925
0.00477785
0.0038231
0.00252783
0.0010376
-0.000760188
-0.0031866
-0.00633018
-0.0160314
-0.0149357
-0.0554221
-0.0332426
-0.0178739
-0.0127811
-0.00715821
-0.00496133
-0.00363927
-0.00280247
-0.00224339
-0.00185678
-0.00158426
-0.0013903
-0.00125094
-0.00114892
-0.00107131
-0.00100831
-0.000952569
-0.000898779
-0.000843372
-0.000784249
-0.000720532
-0.000652332
-0.000580517
-0.000506495
-0.000432004
-0.000358924
-0.00028912
-0.000224318
-0.000166025
-0.000115545
-7.41256e-05
-4.25655e-05
-1.96328e-05
-1.66303e-06
1.2812e-05
-0.0145593
-0.0055691
0.00130792
0.00615032
0.00900315
0.0103393
0.0103382
0.00961959
0.00855398
0.00720823
0.00545906
0.0030555
0.000918872
-0.00777686
-0.00392105
-0.0359827
-0.0186079
-0.00829823
-0.00567105
-0.00152965
-3.58693e-05
0.00102937
0.00165694
0.00200942
0.00218379
0.00224102
0.00222017
0.00214731
0.00204063
0.00191341
0.00177555
0.00163436
0.00149516
0.00136155
0.00123575
0.00111888
0.00101114
0.000912095
0.000820862
0.000736292
0.000657119
0.000582062
0.000509895
0.000439529
0.00037012
0.000300976
0.000231361
0.000161644
9.44698e-05
3.18517e-05
-0.00531252
0.0027114
0.0083468
0.0125144
0.015122
0.0164815
0.016706
0.0162716
0.0154315
0.0142558
0.0126803
0.0104149
0.00903181
0.00110779
0.0056592
-0.0165185
-0.00469274
0.000560942
0.00203369
0.00509481
0.00586479
0.00650508
0.00677531
0.00682484
0.00672309
0.00651777
0.00624348
0.00592492
0.0055798
0.00522107
0.00485828
0.00449842
0.00414647
0.00380587
0.00347876
0.00316629
0.00286886
0.00258627
0.00231793
0.00206303
0.00182058
0.00158959
0.00136911
0.00115832
0.000956659
0.000763836
0.00057934
0.000402675
0.000234648
7.61957e-05
0.00462273
0.0116656
0.0159874
0.0194452
0.0217767
0.0231631
0.023627
0.0234707
0.0228504
0.0218556
0.0204925
0.0183633
0.0174298
0.010513
0.0150435
0.000406162
0.0080143
0.00959464
0.010128
0.0121294
0.0122653
0.0124479
0.012303
0.011996
0.0115728
0.011068
0.0105101
0.00992044
0.00931481
0.00870502
0.00809978
0.00750542
0.00692647
0.00636599
0.00582597
0.00530748
0.00481096
0.00433635
0.00388325
0.00345102
0.00303891
0.00264613
0.00227195
0.00191565
0.00157664
0.00125451
0.00094873
0.000658606
0.000383968
0.000124354
0.0144966
0.0206745
0.0239269
0.0268272
0.0288766
0.0302061
0.030793
0.0308225
0.0303832
0.0295613
0.0284236
0.0264807
0.0259175
0.0202639
0.0243276
0.0141283
0.0191189
0.0188105
0.0184736
0.0192925
0.0187977
0.018503
0.0179295
0.0172506
0.0164877
0.0156669
0.0148116
0.0139395
0.0130639
0.012195
0.0113404
0.0105058
0.00969505
0.008911
0.00815541
0.00742929
0.00673306
0.00606672
0.00542991
0.00482209
0.00424254
0.00369046
0.003165
0.00266525
0.00219026
0.00173906
0.0013106
0.000903704
0.000517117
0.000146653
0.0241885
0.0295876
0.0320271
0.0345237
0.0363082
0.0375225
0.0381347
0.0382672
0.0379661
0.0372985
0.036386
0.0346798
0.0344192
0.0299274
0.0332794
0.0257759
0.0290726
0.0278492
0.0268014
0.0265161
0.0253984
0.0246056
0.0235957
0.0225382
0.0214274
0.0202828
0.0191232
0.0179625
0.0168115
0.015679
0.0145714
0.0134935
0.0124488
0.0114398
0.0104681
0.00953442
0.00863926
0.00778251
0.00696378
0.00618242
0.00543759
0.0047283
0.0040535
0.00341202
0.00280268
0.00222424
0.00167545
0.0011553
0.000663041
0.000193453
0.0337489
0.0384484
0.0402537
0.0424345
0.0439815
0.0450798
0.0456869
0.0458849
0.045694
0.0451594
0.0444502
0.0429792
0.0429052
0.0393227
0.0419385
0.0363008
0.0383812
0.0366084
0.0349779
0.0337758
0.0320877
0.0307956
0.0293492
0.0279088
0.0264428
0.0249674
0.0234966
0.0220406
0.0206081
0.0192062
0.0178405
0.0165148
0.0152324
0.0139951
0.0128044
0.0116609
0.0105649
0.00951615
0.00851409
0.00755794
0.00664668
0.00577914
0.00495405
0.00417005
0.00342574
0.00271966
0.00205027
0.00141614
0.000816151
0.000243374
0.0431595
0.0472632
0.0485799
0.0505033
0.0518448
0.0528482
0.0534524
0.0537018
0.0536046
0.0531823
0.0526405
0.0513713
0.0513798
0.0484874
0.0504364
0.0461126
0.0472862
0.0451394
0.0430037
0.0410464
0.0388534
0.0370743
0.0352075
0.0333826
0.0315566
0.0297447
0.027956
0.0261978
0.0244771
0.0227996
0.0211697
0.0195908
0.0180654
0.0165951
0.0151812
0.0138239
0.0125233
0.0112791
0.0100906
0.00895664
0.00787617
0.00684777
0.00586992
0.00494101
0.00405934
0.00322314
0.00243051
0.00167964
0.000969191
0.00029205
0.0523676
0.055992
0.0569616
0.0586878
0.0598615
0.0607922
0.0613931
0.0616853
0.0616682
0.0613391
0.0609279
0.0598244
0.0598495
0.0574776
0.0588343
0.0553911
0.0558859
0.0534895
0.0509111
0.0483112
0.0456567
0.0434241
0.0411495
0.0389424
0.036756
0.0346048
0.0324938
0.0304282
0.0284138
0.0264551
0.0245557
0.0227183
0.0209451
0.0192373
0.0175957
0.0160206
0.0145117
0.0130685
0.0116901
0.0103753
0.00912276
0.00793076
0.00679757
0.0057213
0.00469997
0.0037315
0.00281371
0.0019444
0.00112188
0.000339709
0.0613515
0.0646083
0.0653617
0.0669514
0.0679987
0.0688769
0.0694747
0.0698016
0.0698518
0.0695993
0.0692866
0.0683176
0.0683179
0.0663273
0.0671617
0.0642816
0.0642571
0.0616882
0.0587261
0.0555746
0.0524788
0.0498233
0.0471552
0.0445721
0.0420281
0.0395369
0.037101
0.0347246
0.0324125
0.0301682
0.0279949
0.0258947
0.0238693
0.0219198
0.0200466
0.0182498
0.0165289
0.0148833
0.0133118
0.011813
0.0103853
0.00902688
0.00773575
0.00650978
0.00534671
0.00424418
0.00319971
0.00221065
0.00127474
0.000386552
0.0701262
0.0731161
0.073763
0.0752691
0.0762308
0.0770782
0.0776784
0.0780364
0.078144
0.0779541
0.077713
0.07685
0.0767957
0.0750733
0.0754565
0.07292
0.0724828
0.0697726
0.066475
0.0628432
0.0593309
0.0562713
0.0532222
0.0502703
0.0473721
0.0445413
0.0417791
0.0390893
0.0364761
0.0339425
0.0314912
0.029124
0.0268424
0.024647
0.0225381
0.0205157
0.018579
0.016727
0.0149586
0.0132721
0.0116657
0.0101375
0.00868515
0.0073065
0.00599908
0.00476032
0.00358748
0.00247753
0.00142747
0.000432485
0.0787208
0.0815317
0.082161
0.0836277
0.084542
0.0853814
0.0859943
0.0863852
0.0865439
0.0864063
0.0862141
0.085431
0.0852998
0.0837579
0.083758
0.0814144
0.0806376
0.0777898
0.0741924
0.0701319
0.066226
0.0627783
0.0593582
0.0560437
0.0527943
0.0496242
0.0465343
0.0435287
0.0406112
0.0377846
0.0350512
0.0324129
0.0298706
0.0274251
0.0250762
0.0228238
0.0206668
0.0186042
0.0166345
0.0147558
0.0129662
0.0112635
0.0096456
0.00811006
0.00665449
0.00527639
0.00397308
0.00274154
0.00157814
0.00047707
0.0871632
0.0898712
0.0905552
0.0920208
0.0929234
0.0937771
0.0944155
0.0948443
0.0950511
0.0949585
0.0947973
0.0940717
0.0938489
0.0924203
0.0920957
0.089841
0.0887779
0.0857867
0.0819164
0.0774614
0.0731772
0.0693552
0.0655726
0.0619001
0.0583016
0.0547922
0.0513733
0.0480494
0.0448242
0.0417007
0.0386812
0.0357672
0.0329599
0.0302596
0.0276662
0.0251791
0.0227972
0.0205192
0.0183432
0.0162672
0.0142889
0.0124059
0.010616
0.00891664
0.00730568
0.00578091
0.00434042
0.00298305
0.0017082
0.000509545
0.0954788
0.0981494
0.0989476
0.100446
0.101371
0.102259
0.102937
0.10341
0.103665
0.103613
0.103471
0.102784
0.102462
0.101095
0.100492
0.0983436
0.0968574
0.0938044
0.0896801
0.0848534
0.0801999
0.0760136
0.0718748
0.0678478
0.0639015
0.0600524
0.0563027
0.0526576
0.0491213
0.0456969
0.0423868
0.0391928
0.0361157
0.0331559
0.0303133
0.0275869
0.0249755
0.0224773
0.0200901
0.0178115
0.0156387
0.013569
0.0115996
0.00972791
0.00795169
0.00626917
0.00467882
0.00318085
0.00178948
0.000531618
0.103691
0.106382
0.107343
0.108906
0.109883
0.110826
0.111557
0.112084
0.112388
0.112376
0.112243
0.111583
0.111157
0.109813
0.108944
0.106824
0.105057
0.101901
0.0975131
0.0923292
0.0873113
0.0827674
0.0782763
0.0738969
0.0696033
0.0654134
0.0613306
0.0573611
0.0535096
0.04978
0.0461747
0.0426958
0.0393442
0.0361202
0.0330237
0.0300535
0.0272081
0.0244854
0.0218828
0.019397
0.0170246
0.0147616
0.0126034
0.010545
0.00858069
0.00670372
0.00490406
0.00315646
0.00143522
-4.94941e-05
0.111822
0.114586
0.11575
0.117405
0.118462
0.119479
0.120277
0.120867
0.121224
0.121254
0.121128
0.120484
0.119953
0.118602
0.117485
0.115344
0.11338
0.110091
0.105443
0.0999098
0.0945292
0.0896319
0.0847907
0.0800597
0.0754181
0.0708853
0.0664662
0.0621684
0.0579976
0.0539578
0.0500524
0.0462834
0.0426521
0.0391591
0.0358039
0.0325856
0.0295024
0.0265521
0.0237315
0.0210373
0.0184652
0.0160107
0.0136685
0.011433
0.00929793
0.00725744
0.00530738
0.00342249
0.00151425
-0.00013604
0.119892
0.122778
0.124177
0.12595
0.127113
0.128222
0.129101
0.129765
0.130182
0.130257
0.130138
0.129505
0.128873
0.127493
0.126155
0.123968
0.121821
0.118387
0.113488
0.107616
0.101871
0.096623
0.0914327
0.0863497
0.0813583
0.0764795
0.0717203
0.0670896
0.0625941
0.0582389
0.0540277
0.049963
0.0460466
0.0422791
0.0386603
0.0351895
0.0318649
0.0286843
0.025645
0.0227435
0.0199765
0.0173402
0.014831
0.0124456
0.0101813
0.00803611
0.00601504
0.00412314
0.00227197
0.000417346
0.127921
0.130975
0.132637
0.134552
0.135844
0.137062
0.138037
0.138786
0.139271
0.139396
0.139288
0.138664
0.137939
0.136517
0.13498
0.132728
0.130401
0.126815
0.121669
0.115465
0.109355
0.103759
0.0982187
0.0927817
0.0874373
0.0822084
0.0771042
0.0721352
0.0673093
0.0626324
0.058109
0.0537424
0.0495345
0.0454865
0.0415984
0.0378696
0.0342987
0.0308836
0.0276218
0.0245102
0.0215456
0.0187248
0.0160442
0.0135003
0.0110895
0.00880638
0.00664658
0.00461511
0.00268419
0.000764587
0.135925
0.139192
0.141142
0.14322
0.144662
0.146005
0.147092
0.147938
0.148501
0.148684
0.148593
0.147979
0.147172
0.1457
0.143984
0.141651
0.139148
0.135399
0.130012
0.123476
0.117005
0.11106
0.105167
0.0993716
0.0936697
0.0880855
0.0826304
0.0773166
0.0721534
0.0671479
0.0623053
0.0576295
0.0531231
0.0487874
0.0446229
0.0406292
0.0368049
0.0331479
0.0296555
0.0263245
0.0231513
0.0201317
0.0172613
0.0145355
0.0119491
0.0094965
0.00717104
0.00497077
0.0028959
0.000909875
0.143923
0.147444
0.149705
0.151965
0.153577
0.15506
0.156274
0.157232
0.157884
0.158135
0.158069
0.15747
0.156594
0.155067
0.153191
0.150764
0.148091
0.144163
0.138543
0.131675
0.124843
0.118546
0.112294
0.106136
0.100071
0.0941248
0.0883119
0.082646
0.0771379
0.0717959
0.066626
0.061633
0.0568198
0.0521884
0.0477394
0.0434725
0.0393862
0.0354785
0.0317464
0.0281863
0.0247941
0.0215653
0.0184951
0.0155784
0.0128101
0.010185
0.00769751
0.00534138
0.00311369
0.00100402
0.151928
0.155745
0.158337
0.1608
0.162598
0.164238
0.165594
0.166677
0.167431
0.167761
0.167732
0.167155
0.166223
0.164642
0.162622
0.160092
0.15725
0.15314
0.147288
0.140088
0.13289
0.126236
0.119619
0.113092
0.106657
0.100342
0.0941628
0.0881365
0.0822748
0.0765874
0.0710814
0.0657622
0.0606334
0.0556973
0.0509548
0.0464058
0.0420489
0.0378818
0.0339015
0.0301041
0.0264854
0.0230406
0.0197647
0.0166524
0.013698
0.010896
0.00824017
0.00572371
0.0033394
0.00108306
0.159955
0.164107
0.167049
0.169734
0.171736
0.173547
0.175062
0.176286
0.177156
0.177578
0.177598
0.177051
0.176078
0.174447
0.172299
0.16966
0.166649
0.162354
0.156274
0.148738
0.141168
0.134149
0.127162
0.120258
0.113445
0.106751
0.100198
0.0938018
0.087577
0.0815345
0.0756825
0.0700273
0.0645731
0.0593227
0.0542773
0.0494369
0.0448001
0.0403648
0.0361276
0.0320847
0.0282315
0.024563
0.0210738
0.0177582
0.0146102
0.0116235
0.0087916
0.00610771
0.00356377
0.00115628
0.168015
0.172541
0.175853
0.178779
0.181
0.182999
0.184688
0.186071
0.187071
0.1876
0.187683
0.187177
0.186179
0.184504
0.182244
0.179493
0.176313
0.171828
0.165528
0.157648
0.149698
0.142309
0.134942
0.127653
0.120452
0.113372
0.106433
0.0996567
0.0930583
0.08665
0.0804414
0.0744395
0.0686494
0.0630742
0.0577157
0.0525737
0.0476474
0.0429342
0.0384309
0.0341334
0.0300369
0.026136
0.0224253
0.0188985
0.0155494
0.0123713
0.00935752
0.00650089
0.00379295
0.00123011
0.17612
0.181058
0.184759
0.187945
0.190401
0.192604
0.194486
0.196043
0.197192
0.197842
0.198005
0.197551
0.196544
0.194836
0.192478
0.189615
0.186265
0.18159
0.175069
0.166841
0.158505
0.150736
0.142981
0.135297
0.127698
0.120219
0.112885
0.105717
0.0987333
0.0919477
0.0853708
0.0790108
0.0728733
0.0669622
0.0612794
0.0558252
0.0505986
0.0455973
0.040818
0.0362562
0.0319072
0.0277653
0.0238247
0.0200789
0.0165214
0.0131452
0.0099432
0.00690783
0.00403014
0.00130642
0.184282
0.189668
0.193777
0.197242
0.19995
0.202374
0.204467
0.206217
0.207532
0.20832
0.208581
0.208194
0.207194
0.205463
0.203025
0.20005
0.196528
0.191671
0.18492
0.176341
0.16761
0.159454
0.1513
0.143211
0.135203
0.127314
0.119571
0.111999
0.104618
0.0974422
0.0904846
0.0837539
0.0772568
0.0709976
0.0649786
0.0592006
0.0536626
0.0483623
0.0432962
0.0384602
0.0338489
0.0294566
0.0252773
0.0213042
0.0175303
0.0139484
0.010551
0.00733006
0.00427617
0.00138553
0.192514
0.198384
0.202918
0.206681
0.209657
0.21232
0.214643
0.216605
0.218106
0.21905
0.219427
0.219122
0.218147
0.216408
0.213906
0.210821
0.207125
0.202099
0.195106
0.186175
0.177041
0.168486
0.159923
0.151416
0.142987
0.134675
0.126511
0.118521
0.110729
0.103149
0.0957973
0.0886825
0.0818125
0.0751922
0.0688244
0.06271
0.0568484
0.0512374
0.0458734
0.0407521
0.0358681
0.0312155
0.0267879
0.0225783
0.0185794
0.0147836
0.0111828
0.00776898
0.00453185
0.00146765
0.200829
0.207216
0.212194
0.216273
0.219533
0.222454
0.225026
0.227221
0.228929
0.230051
0.230559
0.230356
0.229423
0.227689
0.225139
0.221956
0.218086
0.212899
0.205658
0.19637
0.186822
0.177858
0.168872
0.159935
0.151071
0.142323
0.133723
0.125302
0.117083
0.109086
0.101325
0.0938114
0.0865542
0.0795587
0.0728282
0.0663642
0.060166
0.0542315
0.0485574
0.0431391
0.0379712
0.0330475
0.0283613
0.0239054
0.0196722
0.0156535
0.011841
0.0082261
0.00479802
0.00155298
0.209243
0.216175
0.221613
0.226026
0.229589
0.232785
0.235628
0.238078
0.240015
0.241336
0.241999
0.241914
0.241042
0.239328
0.236745
0.233478
0.229451
0.224093
0.216604
0.206955
0.196981
0.187596
0.178174
0.168793
0.15948
0.15028
0.14123
0.132361
0.1237
0.115269
0.107083
0.099156
0.0914962
0.0841105
0.0770026
0.0701744
0.0636255
0.0573541
0.0513568
0.0456289
0.0401649
0.0349585
0.0300027
0.0252899
0.0208122
0.0165609
0.0125276
0.00870287
0.00507548
0.00164168
0.21777
0.225271
0.231184
0.235951
0.239832
0.243325
0.246461
0.24919
0.25138
0.252922
0.253764
0.253818
0.253025
0.251344
0.248744
0.245409
0.241247
0.235717
0.227978
0.217959
0.207547
0.197727
0.187855
0.178015
0.168238
0.158571
0.149053
0.13972
0.1306
0.121718
0.113091
0.104733
0.096654
0.0888617
0.0813605
0.0741526
0.067238
0.0606151
0.0542804
0.0482293
0.0424563
0.0369547
0.0317172
0.0267362
0.022003
0.0175089
0.0132447
0.00920075
0.00536505
0.00173394
0.226425
0.234512
0.240914
0.246053
0.250273
0.254084
0.257536
0.260569
0.263039
0.264828
0.265873
0.266091
0.265394
0.263762
0.261158
0.257775
0.253502
0.247804
0.239812
0.229411
0.218548
0.20828
0.197942
0.187628
0.177369
0.167217
0.157215
0.1474
0.137804
0.128453
0.119366
0.110559
0.102044
0.0938273
0.0859158
0.0783115
0.071015
0.0640248
0.0573376
0.0509489
0.0448527
0.0390424
0.0335105
0.0282488
0.0232485
0.0185002
0.0139945
0.00972127
0.00566762
0.00183006
0.23522
0.243904
0.250807
0.256339
0.260917
0.26507
0.268864
0.272229
0.275007
0.277073
0.278351
0.27875
0.278176
0.276608
0.274016
0.270605
0.266244
0.260383
0.252133
0.241343
0.230016
0.219284
0.208464
0.197659
0.186902
0.176247
0.165741
0.155425
0.145334
0.135494
0.125929
0.116654
0.107682
0.0990234
0.0906831
0.0826646
0.0749689
0.0675946
0.0605387
0.0537965
0.0473621
0.0412287
0.0353885
0.0298328
0.0245527
0.0195382
0.0147796
0.0102661
0.00598424
0.00193046
0.244164
0.253451
0.260867
0.266813
0.271773
0.276292
0.280456
0.284182
0.2873
0.289673
0.291214
0.291827
0.2914
0.289915
0.287351
0.283929
0.279501
0.273484
0.264971
0.253783
0.241979
0.230769
0.219451
0.208137
0.196863
0.185687
0.174657
0.16382
0.153212
0.142864
0.132799
0.123036
0.113588
0.104467
0.095678
0.0872263
0.0791127
0.0713363
0.0638942
0.0567817
0.049993
0.0435209
0.0373574
0.0314936
0.02592
0.0206265
0.0156025
0.0108372
0.00631607
0.00203562
0.253264
0.263156
0.271095
0.277478
0.282846
0.287759
0.292321
0.296441
0.299932
0.302647
0.304487
0.305347
0.305097
0.303717
0.301201
0.297783
0.293301
0.287131
0.278353
0.266762
0.254471
0.242769
0.230935
0.219093
0.207283
0.195565
0.183991
0.172611
0.161465
0.150586
0.139999
0.129725
0.11978
0.110175
0.100917
0.0920117
0.0834604
0.0752626
0.0674156
0.0599149
0.0527545
0.045927
0.0394243
0.033237
0.0273554
0.0217687
0.0164663
0.0114366
0.00666443
0.00214612
0.262524
0.27302
0.281492
0.288335
0.294139
0.299476
0.304469
0.309016
0.312919
0.316015
0.318193
0.319337
0.3193
0.318054
0.315605
0.312204
0.307677
0.301355
0.292311
0.280314
0.267526
0.255317
0.24295
0.230561
0.218194
0.205912
0.193772
0.181826
0.170118
0.158684
0.147553
0.136745
0.126279
0.116167
0.106418
0.0970372
0.0880268
0.079387
0.0711151
0.0632069
0.0556562
0.0484555
0.0415964
0.0350693
0.028864
0.0229693
0.0173741
0.0120667
0.00703073
0.00226253
0.271948
0.283044
0.292059
0.299387
0.305656
0.311448
0.316906
0.32192
0.326276
0.329796
0.332355
0.333826
0.334043
0.332963
0.330605
0.32723
0.32266
0.316188
0.306878
0.294474
0.28118
0.26845
0.255531
0.242574
0.229629
0.21676
0.20403
0.191494
0.1792
0.167187
0.155485
0.144119
0.133108
0.122464
0.1122
0.10232
0.0928279
0.0837239
0.0750058
0.0666694
0.0587085
0.0511155
0.0438817
0.0369973
0.0304514
0.0242327
0.0183296
0.0127298
0.00741644
0.00238538
0.281535
0.293228
0.302795
0.310634
0.317399
0.32368
0.329639
0.335162
0.340016
0.344008
0.346997
0.348842
0.349359
0.348482
0.34624
0.342901
0.33829
0.331667
0.322095
0.309283
0.295474
0.282207
0.268716
0.255171
0.241623
0.228144
0.214798
0.201646
0.18874
0.176121
0.163822
0.151871
0.140288
0.129088
0.118282
0.107878
0.0978803
0.0882886
0.0791014
0.0703147
0.0619224
0.0539167
0.0462886
0.039028
0.0321237
0.0255638
0.0193363
0.0134286
0.00782307
0.00251517
0.291284
0.303568
0.3137
0.322074
0.329367
0.336174
0.342675
0.348752
0.354155
0.35867
0.362142
0.364414
0.36528
0.364647
0.362551
0.359259
0.354607
0.347837
0.338006
0.324787
0.310451
0.296631
0.282548
0.26839
0.254216
0.2401
0.226112
0.212317
0.19877
0.185516
0.172593
0.160028
0.147845
0.13606
0.124687
0.113732
0.103202
0.0930974
0.0834167
0.0741561
0.0653096
0.0568693
0.048826
0.041169
0.033887
0.0269676
0.0203982
0.0141657
0.00825212
0.0026523
0.301187
0.314061
0.324769
0.333706
0.341559
0.34893
0.356018
0.362698
0.368705
0.373801
0.377813
0.380569
0.381837
0.381494
0.379574
0.376344
0.371658
0.364746
0.354662
0.341034
0.326158
0.311768
0.29707
0.282274
0.267448
0.252668
0.238009
0.223541
0.209324
0.195406
0.181827
0.168619
0.155806
0.143407
0.131436
0.119902
0.108812
0.0981677
0.0879674
0.0782077
0.0688826
0.0599843
0.0515032
0.0434284
0.0357481
0.0284493
0.021519
0.0149439
0.00870513
0.00279717
0.311234
0.324696
0.335996
0.345524
0.353971
0.361948
0.36967
0.37701
0.38368
0.389418
0.394033
0.397334
0.399061
0.399055
0.397347
0.3942
0.389489
0.382446
0.372116
0.358074
0.342645
0.327664
0.312327
0.296868
0.28136
0.265888
0.250528
0.235357
0.220437
0.205823
0.191557
0.177673
0.164198
0.151153
0.138554
0.126411
0.114732
0.103518
0.0927703
0.0824844
0.0726548
0.0632733
0.0543303
0.0458146
0.0377137
0.0300144
0.0227032
0.015766
0.00918372
0.00295021
0.321407
0.335459
0.347372
0.35752
0.366598
0.375224
0.383633
0.391693
0.399091
0.40554
0.410827
0.414738
0.416985
0.417366
0.415907
0.412869
0.40815
0.400993
0.390422
0.375964
0.359964
0.344371
0.328369
0.312218
0.296
0.279804
0.263712
0.247803
0.232148
0.216803
0.201815
0.187221
0.173051
0.159327
0.146066
0.133282
0.120982
0.109169
0.0978432
0.0870023
0.0766402
0.0667488
0.0573181
0.0483366
0.0397915
0.031669
0.0239551
0.0166353
0.00968969
0.00311189
0.331683
0.346333
0.358883
0.369684
0.379431
0.388756
0.397909
0.406753
0.414951
0.422184
0.428216
0.432809
0.435641
0.436462
0.435295
0.432396
0.427695
0.42044
0.409637
0.394756
0.378168
0.361941
0.345247
0.328374
0.311414
0.294462
0.277603
0.260923
0.244496
0.228385
0.212639
0.197299
0.182397
0.167957
0.154001
0.14054
0.127585
0.11514
0.103205
0.0917785
0.0808541
0.070424
0.0604779
0.0510042
0.0419895
0.0334196
0.0252797
0.0175551
0.0102251
0.00328279
0.342035
0.357296
0.370512
0.382003
0.392462
0.402536
0.412495
0.422195
0.43127
0.439367
0.446227
0.451579
0.455065
0.456383
0.455552
0.452829
0.448174
0.440844
0.429816
0.414507
0.397313
0.380429
0.363015
0.345388
0.327654
0.30991
0.292248
0.27476
0.257524
0.240608
0.224065
0.20794
0.192268
0.177076
0.162386
0.148212
0.134567
0.121454
0.108876
0.0968309
0.0853125
0.0743131
0.0638224
0.0538282
0.0443168
0.0352733
0.0266827
0.0185294
0.0107921
0.00346364
0.35243
0.368326
0.38224
0.394461
0.405677
0.416557
0.42739
0.438022
0.448058
0.457108
0.464884
0.471079
0.475294
0.477172
0.476726
0.474219
0.46964
0.46226
0.451016
0.435274
0.417457
0.399891
0.381728
0.363315
0.344771
0.326199
0.307697
0.289361
0.271276
0.253514
0.236134
0.219183
0.2027
0.186715
0.171251
0.156326
0.141952
0.128135
0.114878
0.102179
0.0900328
0.0784316
0.0673648
0.05682
0.0467829
0.0372381
0.0281699
0.0195623
0.0113934
0.00365537
0.362836
0.379398
0.394047
0.40704
0.419065
0.430809
0.442587
0.454236
0.465325
0.475423
0.484212
0.491349
0.496366
0.498877
0.498869
0.496617
0.49215
0.484741
0.473293
0.457114
0.438659
0.420388
0.401446
0.382213
0.362823
0.343384
0.324002
0.304776
0.285799
0.267148
0.248887
0.231067
0.213729
0.196908
0.180629
0.164911
0.149768
0.135207
0.121233
0.107843
0.0950333
0.0827957
0.0711195
0.0599918
0.0493979
0.0393219
0.0297474
0.0206581
0.0120312
0.00385869
0.373217
0.390489
0.405914
0.419723
0.432607
0.44528
0.458079
0.470836
0.483078
0.494329
0.504235
0.512411
0.518332
0.521549
0.522034
0.52008
0.515758
0.508345
0.496704
0.480088
0.460981
0.441982
0.422231
0.402142
0.381867
0.361522
0.341216
0.321057
0.301143
0.281558
0.262369
0.243633
0.225396
0.207693
0.190553
0.173998
0.158043
0.142697
0.127965
0.113845
0.100334
0.0874228
0.0751016
0.0633567
0.0521732
0.0415344
0.0314232
0.0218228
0.0127098
0.00407565
0.383541
0.401575
0.417818
0.432488
0.446286
0.459954
0.473858
0.487819
0.501323
0.513842
0.524978
0.534306
0.541236
0.545241
0.546279
0.544669
0.540523
0.53313
0.521309
0.504258
0.484488
0.464739
0.444147
0.423167
0.401967
0.380672
0.359399
0.33826
0.317362
0.296793
0.276628
0.256928
0.237741
0.219109
0.201061
0.183622
0.16681
0.150634
0.1351
0.120208
0.105954
0.0923302
0.0793255
0.0669263
0.0551169
0.0438802
0.0331986
0.023055
0.0134252
0.00430076
0.393776
0.412636
0.429739
0.445314
0.460079
0.474812
0.489908
0.505181
0.520065
0.533977
0.546471
0.557072
0.56512
0.570004
0.571665
0.570444
0.566508
0.559157
0.547173
0.529691
0.509249
0.488729
0.467265
0.445355
0.423188
0.400899
0.378611
0.356444
0.33451
0.312907
0.291714
0.270997
0.25081
0.231197
0.212191
0.193819
0.1761
0.159047
0.142665
0.126957
0.111917
0.0975381
0.0838098
0.0707179
0.0582466
0.0463782
0.0350943
0.0243771
0.0142017
0.00455222
0.40389
0.423646
0.441654
0.458173
0.473959
0.48983
0.506213
0.522913
0.539308
0.554749
0.568738
0.580745
0.590032
0.595895
0.598254
0.597472
0.593777
0.586492
0.574363
0.556459
0.535337
0.514025
0.491658
0.468779
0.4456
0.42227
0.398917
0.37567
0.352648
0.329956
0.30768
0.285892
0.26465
0.244002
0.223984
0.204627
0.18595
0.167969
0.150691
0.134117
0.118244
0.103064
0.0885675
0.0747392
0.0615628
0.0490204
0.0370928
0.0257612
0.0150059
0.00482168
0.413853
0.434579
0.453534
0.471036
0.487896
0.50498
0.522753
0.541006
0.559051
0.576168
0.591801
0.60536
0.616016
0.622969
0.626106
0.625817
0.622399
0.615207
0.602954
0.58464
0.562831
0.540707
0.517404
0.493514
0.469278
0.444856
0.420386
0.396003
0.371837
0.347998
0.324582
0.301665
0.279311
0.25757
0.236485
0.216086
0.196397
0.177434
0.159206
0.141715
0.124959
0.108929
0.0936158
0.0790043
0.0650778
0.0518186
0.0392081
0.0272253
0.0158415
0.00506987
0.423629
0.445403
0.465348
0.483867
0.501851
0.520229
0.539503
0.559444
0.579292
0.598245
0.615684
0.630951
0.643118
0.651279
0.655285
0.655549
0.652448
0.645379
0.633027
0.614315
0.591816
0.568859
0.544587
0.519643
0.494301
0.468734
0.44309
0.417514
0.392143
0.367098
0.34248
0.318372
0.294844
0.271951
0.249738
0.228239
0.20748
0.187479
0.168246
0.149785
0.132095
0.115168
0.0989943
0.0835591
0.0688456
0.0548347
0.0415073
0.0288428
0.0167971
0.00534602
0.433177
0.456076
0.477051
0.49662
0.515781
0.535538
0.556432
0.578211
0.600026
0.620988
0.640407
0.657549
0.671381
0.680877
0.685849
0.686737
0.684
0.67709
0.664668
0.645575
0.622381
0.598571
0.573294
0.547252
0.52075
0.493982
0.467105
0.440275
0.413636
0.38732
0.361434
0.336071
0.311304
0.287194
0.263789
0.241127
0.219237
0.198138
0.177842
0.158355
0.139676
0.121798
0.104711
0.0883987
0.0728441
0.0580255
0.0439214
0.0305135
0.017767
0.00563468
0.442451
0.466547
0.48859
0.509242
0.529635
0.550861
0.573507
0.597283
0.621245
0.644401
0.665988
0.685187
0.700848
0.711816
0.717858
0.719451
0.717136
0.710428
0.697969
0.678514
0.654622
0.629938
0.60362
0.576431
0.548715
0.520686
0.492514
0.464362
0.436389
0.408732
0.38151
0.354822
0.328747
0.303351
0.278686
0.254794
0.231706
0.209444
0.188023
0.167447
0.147717
0.128828
0.110767
0.0935203
0.0770692
0.0613932
0.04647
0.0322808
0.0187983
0.005973
0.451391
0.476752
0.4999
0.521669
0.543351
0.566147
0.590687
0.616635
0.642935
0.668488
0.692443
0.713892
0.731557
0.744152
0.751369
0.753765
0.75194
0.745486
0.733027
0.713232
0.68864
0.663061
0.635664
0.607277
0.578289
0.548935
0.519399
0.489857
0.460476
0.431406
0.402774
0.374686
0.347229
0.320474
0.294477
0.269284
0.244929
0.221437
0.198823
0.177095
0.156254
0.136295
0.117206
0.0989729
0.0815775
0.0649987
0.0492132
0.0341986
0.0199269
0.00635354
0.459931
0.486613
0.510899
0.533824
0.556861
0.581338
0.607927
0.636235
0.665081
0.693245
0.719787
0.743693
0.763548
0.777934
0.786446
0.789753
0.7885
0.782361
0.769946
0.749835
0.724543
0.698047
0.669531
0.639893
0.609569
0.578821
0.54785
0.516842
0.485976
0.455414
0.425293
0.395726
0.366809
0.338617
0.311212
0.284644
0.25895
0.234157
0.210283
0.187338
0.165322
0.144232
0.124056
0.104779
0.086382
0.0688425
0.0521367
0.0362405
0.0211248
0.00674968
0.467989
0.496035
0.521492
0.54562
0.570088
0.596367
0.625175
0.656045
0.687659
0.718668
0.748029
0.774616
0.796861
0.813208
0.823162
0.827494
0.826906
0.821151
0.80883
0.788432
0.762443
0.735008
0.705332
0.674386
0.642659
0.610444
0.577959
0.545404
0.512971
0.480832
0.449136
0.418007
0.387546
0.357835
0.328942
0.300921
0.273811
0.247644
0.222438
0.198205
0.174946
0.152657
0.131328
0.110942
0.0914795
0.0729183
0.0552335
0.0384008
0.0223903
0.00716213
0.475475
0.504908
0.531573
0.556957
0.582944
0.611162
0.642372
0.676022
0.710643
0.744744
0.777176
0.806686
0.831537
0.850026
0.861584
0.867069
0.867249
0.86196
0.849789
0.82914
0.802457
0.774065
0.743185
0.71087
0.677667
0.643905
0.609822
0.575632
0.541542
0.507736
0.474376
0.441593
0.4095
0.378184
0.347719
0.318161
0.289557
0.261936
0.235322
0.209726
0.185151
0.161593
0.139041
0.117479
0.0968882
0.0772439
0.0585215
0.0406957
0.0237365
0.00760064
0.482283
0.513113
0.541021
0.567725
0.595333
0.62564
0.659449
0.696113
0.733995
0.771457
0.80723
0.839924
0.867617
0.888447
0.901787
0.90856
0.909625
0.904891
0.892937
0.872078
0.844712
0.815343
0.783215
0.749465
0.714708
0.679312
0.643538
0.607618
0.571774
0.536204
0.501081
0.46655
0.43273
0.399718
0.367591
0.336411
0.306226
0.277071
0.248969
0.221933
0.195967
0.171067
0.147222
0.124417
0.102632
0.0818412
0.0620196
0.0431405
0.0251742
0.00807391
0.4883
0.520519
0.549706
0.577803
0.607149
0.63971
0.67633
0.716256
0.75767
0.79878
0.838187
0.874348
0.905142
0.928533
0.943839
0.952051
0.954129
0.95005
0.938389
0.917372
0.88934
0.858977
0.825553
0.790298
0.753902
0.716776
0.67921
0.641457
0.603752
0.566312
0.529323
0.492941
0.457294
0.422488
0.388604
0.355711
0.323858
0.293082
0.263409
0.234852
0.207417
0.1811
0.15589
0.13177
0.108721
0.0867177
0.0657318
0.0457361
0.0267008
0.00857879
0.493405
0.526988
0.557491
0.587063
0.618276
0.653268
0.692927
0.736378
0.781613
0.826676
0.870033
0.909971
0.944148
0.970344
0.987818
0.997631
1.00086
0.997548
0.986268
0.965158
0.936483
0.90511
0.870342
0.833506
0.795375
0.756413
0.716945
0.677243
0.637564
0.598139
0.55917
0.520826
0.483246
0.446542
0.410802
0.376097
0.342482
0.309995
0.278664
0.248503
0.219518
0.191706
0.165056
0.139551
0.11517
0.0918865
0.0696716
0.0484959
0.0283276
0.00911097
0.497469
0.532382
0.564232
0.595368
0.628587
0.666202
0.709138
0.756391
0.805752
0.855096
0.902743