/*--------------------------------*- C++ -*----------------------------------*\
  =========                 |
  \\      /  F ield         | OpenFOAM: The Open Source CFD Toolbox
   \\    /   O peration     | Website:  https://openfoam.org
    \\  /    A nd           | Version:  9
     \\/     M anipulation  |
\*---------------------------------------------------------------------------*/
FoamFile
{
    format      ascii;
    class       surfaceScalarField;
    location    "0.19";
    object      phi;
}
// * * * * * * * * * * * * * * * * * * * * * * * * * * * * * * * * * * * * * //

dimensions      [0 3 -1 0 0 0 0];

internalField   nonuniform List<scalar> 
9850
(
-4.59863e-08
1.86745e-05
-4.59682e-08
1.83555e-05
-4.43555e-08
1.79408e-05
-4.20534e-08
1.75444e-05
-4.02171e-08
1.73801e-05
-3.90822e-08
1.75016e-05
-3.88907e-08
1.77232e-05
-3.92689e-08
1.78916e-05
-3.96821e-08
1.79831e-05
-3.99695e-08
1.8028e-05
-4.02816e-08
1.80516e-05
-4.07623e-08
1.80511e-05
-3.97616e-08
1.7963e-05
-2.80166e-08
1.75033e-05
2.22462e-09
1.58107e-05
-6.0039e-08
1.29123e-05
-7.17936e-08
1.39776e-05
-4.61688e-08
1.66343e-05
-4.04492e-08
1.77211e-05
-4.05449e-08
1.79621e-05
-4.08994e-08
1.46917e-05
-4.10266e-08
1.39828e-05
-4.10394e-08
1.33028e-05
-4.10205e-08
1.26566e-05
-4.09991e-08
1.2043e-05
-4.09812e-08
1.146e-05
-4.09667e-08
1.09058e-05
-4.0956e-08
1.0379e-05
-4.09501e-08
9.87822e-06
-4.09505e-08
9.40205e-06
-4.09582e-08
8.94911e-06
-4.09735e-08
8.51807e-06
-4.09958e-08
8.10765e-06
-4.10242e-08
7.71668e-06
-4.10571e-08
7.3441e-06
-4.10928e-08
6.98893e-06
-4.11296e-08
6.65028e-06
-4.11655e-08
6.32734e-06
-4.11988e-08
6.01936e-06
-4.12276e-08
5.72561e-06
-4.12494e-08
5.44541e-06
-4.12615e-08
5.17811e-06
-4.12605e-08
4.92306e-06
-4.12436e-08
4.67966e-06
-4.12095e-08
4.44735e-06
-4.11601e-08
4.22565e-06
-4.10962e-08
4.01417e-06
-4.1004e-08
3.81246e-06
-4.08513e-08
3.61959e-06
3.43377e-06
-5.51631e-08
1.86765e-05
-5.43187e-08
1.83546e-05
-5.03693e-08
1.79368e-05
-4.53079e-08
1.75394e-05
-4.10711e-08
1.73759e-05
-3.81432e-08
1.74987e-05
-3.70949e-08
1.77222e-05
-3.74466e-08
1.7892e-05
-3.81578e-08
1.79838e-05
-3.86984e-08
1.80285e-05
-3.90436e-08
1.8052e-05
-3.8728e-08
1.80507e-05
-3.29983e-08
1.79572e-05
-7.89144e-09
1.74782e-05
3.07817e-08
1.5772e-05
-7.02801e-08
1.30134e-05
-9.9967e-08
1.40073e-05
-5.9465e-08
1.65938e-05
-4.43011e-08
1.77059e-05
-4.20416e-08
1.79598e-05
-4.2023e-08
1.46917e-05
-4.2061e-08
1.39828e-05
-4.20005e-08
1.33028e-05
-4.19047e-08
1.26565e-05
-4.18141e-08
1.20429e-05
-4.17403e-08
1.14599e-05
-4.16841e-08
1.09057e-05
-4.1645e-08
1.0379e-05
-4.16235e-08
9.8782e-06
-4.16209e-08
9.40205e-06
-4.16376e-08
8.94913e-06
-4.1673e-08
8.5181e-06
-4.17251e-08
8.1077e-06
-4.17907e-08
7.71675e-06
-4.18658e-08
7.34417e-06
-4.19462e-08
6.98901e-06
-4.20271e-08
6.65036e-06
-4.21042e-08
6.32742e-06
-4.21727e-08
6.01943e-06
-4.22278e-08
5.72566e-06
-4.22643e-08
5.44545e-06
-4.22766e-08
5.17812e-06
-4.22596e-08
4.92305e-06
-4.22103e-08
4.67961e-06
-4.21305e-08
4.44727e-06
-4.20268e-08
4.22554e-06
-4.19008e-08
4.01404e-06
-4.17249e-08
3.81228e-06
-4.14518e-08
3.61932e-06
3.43348e-06
-6.34847e-08
1.86778e-05
-6.1318e-08
1.83524e-05
-5.54915e-08
1.7931e-05
-4.84203e-08
1.75323e-05
-4.24055e-08
1.73699e-05
-3.79993e-08
1.74942e-05
-3.60483e-08
1.77202e-05
-3.60832e-08
1.7892e-05
-3.67503e-08
1.79845e-05
-3.71991e-08
1.8029e-05
-3.71519e-08
1.80519e-05
-3.59033e-08
1.80495e-05
-2.78404e-08
1.79492e-05
4.40039e-09
1.74459e-05
4.52854e-08
1.57311e-05
-7.4104e-08
1.31328e-05
-1.14764e-07
1.40479e-05
-6.79712e-08
1.6547e-05
-4.80108e-08
1.7686e-05
-4.40447e-08
1.79559e-05
-4.33749e-08
1.4691e-05
-4.30411e-08
1.39825e-05
-4.27638e-08
1.33025e-05
-4.25286e-08
1.26563e-05
-4.23389e-08
1.20427e-05
-4.21921e-08
1.14597e-05
-4.20825e-08
1.09056e-05
-4.20059e-08
1.03789e-05
-4.19608e-08
9.87816e-06
-4.19467e-08
9.40204e-06
-4.19628e-08
8.94915e-06
-4.20067e-08
8.51815e-06
-4.20746e-08
8.10777e-06
-4.21614e-08
7.71683e-06
-4.2261e-08
7.34427e-06
-4.23668e-08
6.98912e-06
-4.24724e-08
6.65047e-06
-4.2571e-08
6.32752e-06
-4.26564e-08
6.01951e-06
-4.27223e-08
5.72573e-06
-4.27621e-08
5.44549e-06
-4.27696e-08
5.17813e-06
-4.27393e-08
4.92302e-06
-4.26686e-08
4.67954e-06
-4.25605e-08
4.44716e-06
-4.24235e-08
4.22541e-06
-4.22627e-08
4.01388e-06
-4.20655e-08
3.81209e-06
-4.18286e-08
3.61908e-06
3.43332e-06
-7.07135e-08
1.86793e-05
-6.75395e-08
1.83493e-05
-6.00726e-08
1.79235e-05
-5.12451e-08
1.75235e-05
-4.3703e-08
1.73624e-05
-3.80602e-08
1.74886e-05
-3.53117e-08
1.77175e-05
-3.49973e-08
1.78917e-05
-3.55151e-08
1.7985e-05
-3.57786e-08
1.80293e-05
-3.54034e-08
1.80516e-05
-3.37602e-08
1.80478e-05
-2.47685e-08
1.79402e-05
1.21126e-08
1.7409e-05
5.25858e-08
1.56907e-05
-7.44695e-08
1.32599e-05
-1.2279e-07
1.40963e-05
-7.33244e-08
1.64976e-05
-5.02564e-08
1.76629e-05
-4.55065e-08
1.79511e-05
-4.44623e-08
1.46899e-05
-4.37963e-08
1.39818e-05
-4.3275e-08
1.3302e-05
-4.287e-08
1.26559e-05
-4.25604e-08
1.20424e-05
-4.2327e-08
1.14595e-05
-4.2154e-08
1.09054e-05
-4.20314e-08
1.03788e-05
-4.19544e-08
9.87808e-06
-4.19204e-08
9.402e-06
-4.19267e-08
8.94915e-06
-4.19694e-08
8.51819e-06
-4.20427e-08
8.10784e-06
-4.21398e-08
7.71693e-06
-4.22527e-08
7.34439e-06
-4.2373e-08
6.98924e-06
-4.24926e-08
6.65059e-06
-4.26033e-08
6.32763e-06
-4.26978e-08
6.01961e-06
-4.27686e-08
5.7258e-06
-4.28084e-08
5.44553e-06
-4.28104e-08
5.17813e-06
-4.27686e-08
4.92297e-06
-4.26806e-08
4.67945e-06
-4.25504e-08
4.44703e-06
-4.2389e-08
4.22525e-06
-4.2208e-08
4.0137e-06
-4.20124e-08
3.81189e-06
-4.18269e-08
3.61889e-06
3.43323e-06
-7.64707e-08
1.86811e-05
-7.27469e-08
1.83455e-05
-6.40627e-08
1.79149e-05
-5.38084e-08
1.75132e-05
-4.49705e-08
1.73535e-05
-3.82956e-08
1.74819e-05
-3.48464e-08
1.7714e-05
-3.41604e-08
1.7891e-05
-3.44849e-08
1.79853e-05
-3.45901e-08
1.80294e-05
-3.40451e-08
1.8051e-05
-3.21838e-08
1.8046e-05
-2.23139e-08
1.79303e-05
1.67513e-08
1.737e-05
5.20922e-08
1.56553e-05
-7.22378e-08
1.33842e-05
-1.24194e-07
1.41482e-05
-7.68485e-08
1.64502e-05
-5.17018e-08
1.76378e-05
-4.62535e-08
1.79457e-05
-4.49865e-08
1.46887e-05
-4.4111e-08
1.39809e-05
-4.34025e-08
1.33012e-05
-4.28456e-08
1.26553e-05
-4.24185e-08
1.2042e-05
-4.20955e-08
1.14592e-05
-4.18541e-08
1.09052e-05
-4.16798e-08
1.03786e-05
-4.15646e-08
9.87796e-06
-4.15037e-08
9.40194e-06
-4.14925e-08
8.94914e-06
-4.15254e-08
8.51822e-06
-4.15952e-08
8.10791e-06
-4.16932e-08
7.71703e-06
-4.18098e-08
7.3445e-06
-4.19353e-08
6.98936e-06
-4.20601e-08
6.65071e-06
-4.21751e-08
6.32775e-06
-4.22718e-08
6.0197e-06
-4.23421e-08
5.72587e-06
-4.23783e-08
5.44556e-06
-4.23729e-08
5.17813e-06
-4.23204e-08
4.92292e-06
-4.2219e-08
4.67935e-06
-4.20741e-08
4.44689e-06
-4.1899e-08
4.22507e-06
-4.17105e-08
4.01351e-06
-4.15254e-08
3.81171e-06
-4.13742e-08
3.61874e-06
3.43317e-06
-8.09173e-08
1.86834e-05
-7.6976e-08
1.83416e-05
-6.74879e-08
1.79054e-05
-5.61492e-08
1.75019e-05
-4.62444e-08
1.73436e-05
-3.87028e-08
1.74744e-05
-3.46317e-08
1.771e-05
-3.35637e-08
1.789e-05
-3.36661e-08
1.79854e-05
-3.36267e-08
1.80293e-05
-3.29642e-08
1.80504e-05
-3.08456e-08
1.80439e-05
-2.00982e-08
1.79196e-05
1.88177e-08
1.73311e-05
4.73962e-08
1.56267e-05
-6.93231e-08
1.35009e-05
-1.21596e-07
1.42005e-05
-7.84086e-08
1.6407e-05
-5.24103e-08
1.76118e-05
-4.63309e-08
1.79396e-05
-4.49008e-08
1.46872e-05
-4.38989e-08
1.39799e-05
-4.30631e-08
1.33004e-05
-4.23887e-08
1.26546e-05
-4.18609e-08
1.20414e-05
-4.14548e-08
1.14588e-05
-4.11461e-08
1.09049e-05
-4.0918e-08
1.03784e-05
-4.07606e-08
9.87781e-06
-4.06673e-08
9.40185e-06
-4.06321e-08
8.94911e-06
-4.06479e-08
8.51824e-06
-4.07059e-08
8.10797e-06
-4.07961e-08
7.71712e-06
-4.09078e-08
7.34462e-06
-4.10299e-08
6.98948e-06
-4.1152e-08
6.65084e-06
-4.12642e-08
6.32786e-06
-4.13573e-08
6.01979e-06
-4.14229e-08
5.72593e-06
-4.1453e-08
5.44559e-06
-4.14407e-08
5.17811e-06
-4.1381e-08
4.92286e-06
-4.12733e-08
4.67925e-06
-4.11248e-08
4.44674e-06
-4.09514e-08
4.2249e-06
-4.07751e-08
4.01334e-06
-4.06192e-08
3.81155e-06
-4.05106e-08
3.61863e-06
3.43314e-06
-8.43662e-08
1.8686e-05
-8.04641e-08
1.83377e-05
-7.04626e-08
1.78954e-05
-5.82962e-08
1.74897e-05
-4.75015e-08
1.73328e-05
-3.9218e-08
1.74661e-05
-3.45997e-08
1.77054e-05
-3.3167e-08
1.78885e-05
-3.30395e-08
1.79853e-05
-3.2857e-08
1.80291e-05
-3.21004e-08
1.80496e-05
-2.97359e-08
1.80415e-05
-1.82801e-08
1.79081e-05
1.92196e-08
1.72936e-05
4.14694e-08
1.56045e-05
-6.65381e-08
1.36089e-05
-1.17305e-07
1.42513e-05
-7.82713e-08
1.6368e-05
-5.22174e-08
1.75857e-05
-4.57065e-08
1.79331e-05
-4.42085e-08
1.46858e-05
-4.31504e-08
1.39789e-05
-4.22353e-08
1.32995e-05
-4.14739e-08
1.26539e-05
-4.08642e-08
1.20408e-05
-4.03851e-08
1.14583e-05
-4.00131e-08
1.09045e-05
-3.97316e-08
1.03781e-05
-3.95298e-08
9.8776e-06
-3.94003e-08
9.40172e-06
-3.9336e-08
8.94904e-06
-3.93286e-08
8.51823e-06
-3.93683e-08
8.10801e-06
-3.94441e-08
7.71719e-06
-3.95443e-08
7.34472e-06
-3.96569e-08
6.9896e-06
-3.9771e-08
6.65095e-06
-3.98759e-08
6.32796e-06
-3.99623e-08
6.01988e-06
-4.00217e-08
5.72599e-06
-4.00461e-08
5.44562e-06
-4.00291e-08
5.1781e-06
-3.99663e-08
4.9228e-06
-3.98587e-08
4.67914e-06
-3.97149e-08
4.44659e-06
-3.95533e-08
4.22474e-06
-3.9399e-08
4.01318e-06
-3.92762e-08
3.81143e-06
-3.9201e-08
3.61856e-06
3.43312e-06
-8.70674e-08
1.86892e-05
-8.34176e-08
1.83341e-05
-7.30991e-08
1.7885e-05
-6.02798e-08
1.74769e-05
-4.87176e-08
1.73213e-05
-3.97793e-08
1.74572e-05
-3.46779e-08
1.77003e-05
-3.2917e-08
1.78868e-05
-3.25783e-08
1.79849e-05
-3.22702e-08
1.80288e-05
-3.14588e-08
1.80488e-05
-2.89091e-08
1.80389e-05
-1.69357e-08
1.78961e-05
1.87226e-08
1.72579e-05
3.55707e-08
1.55876e-05
-6.39067e-08
1.37084e-05
-1.1238e-07
1.42997e-05
-7.69116e-08
1.63325e-05
-5.11201e-08
1.75599e-05
-4.43668e-08
1.79263e-05
-4.29081e-08
1.46843e-05
-4.1868e-08
1.39778e-05
-4.09184e-08
1.32985e-05
-4.00973e-08
1.26531e-05
-3.94225e-08
1.20402e-05
-3.88799e-08
1.14577e-05
-3.84498e-08
1.09041e-05
-3.81164e-08
1.03777e-05
-3.78694e-08
9.87736e-06
-3.7701e-08
9.40155e-06
-3.76038e-08
8.94895e-06
-3.75688e-08
8.5182e-06
-3.75856e-08
8.10802e-06
-3.76423e-08
7.71725e-06
-3.77266e-08
7.3448e-06
-3.78261e-08
6.9897e-06
-3.79291e-08
6.65105e-06
-3.80248e-08
6.32806e-06
-3.81036e-08
6.01996e-06
-3.8157e-08
5.72605e-06
-3.81773e-08
5.44564e-06
-3.81584e-08
5.17808e-06
-3.80972e-08
4.92274e-06
-3.79956e-08
4.67904e-06
-3.78645e-08
4.44646e-06
-3.77245e-08
4.2246e-06
-3.76026e-08
4.01306e-06
-3.75212e-08
3.81135e-06
-3.74861e-08
3.61852e-06
3.43312e-06
-8.92112e-08
1.86931e-05
-8.59664e-08
1.83308e-05
-7.54677e-08
1.78745e-05
-6.21263e-08
1.74636e-05
-4.98938e-08
1.7309e-05
-4.03675e-08
1.74476e-05
-3.48286e-08
1.76947e-05
-3.27776e-08
1.78847e-05
-3.22592e-08
1.79844e-05
-3.18547e-08
1.80284e-05
-3.10274e-08
1.8048e-05
-2.83525e-08
1.80363e-05
-1.60365e-08
1.78838e-05
1.77217e-08
1.72241e-05
3.01915e-08
1.55752e-05
-6.12339e-08
1.37998e-05
-1.07151e-07
1.43457e-05
-7.46634e-08
1.63e-05
-4.92329e-08
1.75345e-05
-4.23742e-08
1.79195e-05
-4.09979e-08
1.46829e-05
-4.00582e-08
1.39769e-05
-3.91144e-08
1.32976e-05
-3.82583e-08
1.26522e-05
-3.75332e-08
1.20394e-05
-3.69359e-08
1.14571e-05
-3.64518e-08
1.09036e-05
-3.60681e-08
1.03774e-05
-3.57753e-08
9.87706e-06
-3.55662e-08
9.40134e-06
-3.54333e-08
8.94881e-06
-3.53675e-08
8.51813e-06
-3.5358e-08
8.10801e-06
-3.53924e-08
7.71729e-06
-3.54579e-08
7.34487e-06
-3.55418e-08
6.98978e-06
-3.5632e-08
6.65114e-06
-3.57176e-08
6.32814e-06
-3.57888e-08
6.02003e-06
-3.58372e-08
5.72609e-06
-3.58553e-08
5.44566e-06
-3.58377e-08
5.17806e-06
-3.57821e-08
4.92268e-06
-3.56922e-08
4.67895e-06
-3.55803e-08
4.44635e-06
-3.54687e-08
4.22448e-06
-3.53839e-08
4.01298e-06
-3.53434e-08
3.81131e-06
-3.53427e-08
3.61852e-06
3.43313e-06
-9.09736e-08
1.86979e-05
-8.82137e-08
1.8328e-05
-7.76188e-08
1.78639e-05
-6.38511e-08
1.74498e-05
-5.1033e-08
1.72962e-05
-4.09739e-08
1.74376e-05
-3.50417e-08
1.76888e-05
-3.27337e-08
1.78824e-05
-3.2066e-08
1.79837e-05
-3.15927e-08
1.80279e-05
-3.07796e-08
1.80471e-05
-2.80345e-08
1.80335e-05
-1.55315e-08
1.78713e-05
1.64351e-08
1.71922e-05
2.55964e-08
1.5566e-05
-5.83248e-08
1.38837e-05
-1.01693e-07
1.4389e-05
-7.17421e-08
1.62701e-05
-4.66982e-08
1.75094e-05
-3.97944e-08
1.79126e-05
-3.85948e-08
1.46817e-05
-3.77513e-08
1.3976e-05
-3.6833e-08
1.32967e-05
-3.59591e-08
1.26513e-05
-3.51944e-08
1.20387e-05
-3.45485e-08
1.14565e-05
-3.40138e-08
1.09031e-05
-3.35805e-08
1.03769e-05
-3.32413e-08
9.87673e-06
-3.29898e-08
9.40109e-06
-3.28189e-08
8.94864e-06
-3.27196e-08
8.51803e-06
-3.2681e-08
8.10798e-06
-3.26906e-08
7.7173e-06
-3.27352e-08
7.34491e-06
-3.28019e-08
6.98985e-06
-3.28782e-08
6.65122e-06
-3.29531e-08
6.32822e-06
-3.30168e-08
6.02009e-06
-3.30608e-08
5.72614e-06
-3.3078e-08
5.44567e-06
-3.30634e-08
5.17805e-06
-3.30157e-08
4.92263e-06
-3.29394e-08
4.67887e-06
-3.28482e-08
4.44626e-06
-3.27647e-08
4.2244e-06
-3.27131e-08
4.01292e-06
-3.27052e-08
3.8113e-06
-3.27299e-08
3.61855e-06
3.43316e-06
-9.25302e-08
1.87034e-05
-9.02666e-08
1.83258e-05
-7.96041e-08
1.78533e-05
-6.54635e-08
1.74356e-05
-5.21308e-08
1.72829e-05
-4.16036e-08
1.74271e-05
-3.53177e-08
1.76825e-05
-3.27816e-08
1.78799e-05
-3.19894e-08
1.7983e-05
-3.14701e-08
1.80274e-05
-3.0698e-08
1.80464e-05
-2.79389e-08
1.80308e-05
-1.53652e-08
1.78587e-05
1.50223e-08
1.71618e-05
2.18839e-08
1.55591e-05
-5.50838e-08
1.39607e-05
-9.60421e-08
1.443e-05
-6.83273e-08
1.62424e-05
-4.36697e-08
1.74848e-05
-3.67319e-08
1.79056e-05
-3.56857e-08
1.46807e-05
-3.49689e-08
1.39753e-05
-3.40911e-08
1.32958e-05
-3.32072e-08
1.26504e-05
-3.24076e-08
1.20379e-05
-3.17159e-08
1.14558e-05
-3.11314e-08
1.09025e-05
-3.06482e-08
1.03764e-05
-3.02612e-08
9.87634e-06
-2.99652e-08
9.40079e-06
-2.97541e-08
8.94843e-06
-2.9619e-08
8.5179e-06
-2.95491e-08
8.10791e-06
-2.95318e-08
7.71728e-06
-2.95538e-08
7.34493e-06
-2.96018e-08
6.9899e-06
-2.96633e-08
6.65128e-06
-2.9727e-08
6.32828e-06
-2.97829e-08
6.02015e-06
-2.98225e-08
5.72618e-06
-2.98387e-08
5.44569e-06
-2.9827e-08
5.17803e-06
-2.97862e-08
4.92259e-06
-2.97218e-08
4.67881e-06
-2.9648e-08
4.44618e-06
-2.95864e-08
4.22434e-06
-2.95585e-08
4.0129e-06
-2.95717e-08
3.81131e-06
-2.96113e-08
3.61859e-06
3.43319e-06
-9.40502e-08
1.87098e-05
-9.22317e-08
1.8324e-05
-8.14787e-08
1.78425e-05
-6.69762e-08
1.74211e-05
-5.31815e-08
1.72691e-05
-4.22496e-08
1.74161e-05
-3.56579e-08
1.76759e-05
-3.29223e-08
1.78771e-05
-3.20251e-08
1.79821e-05
-3.14799e-08
1.80269e-05
-3.07756e-08
1.80457e-05
-2.80547e-08
1.8028e-05
-1.54779e-08
1.78462e-05
1.35918e-08
1.71327e-05
1.89898e-08
1.55537e-05
-5.1562e-08
1.40313e-05
-9.02712e-08
1.44687e-05
-6.45782e-08
1.62167e-05
-4.02876e-08
1.74605e-05
-3.32799e-08
1.78986e-05
-3.23571e-08
1.46797e-05
-3.17485e-08
1.39747e-05
-3.09082e-08
1.3295e-05
-3.00134e-08
1.26495e-05
-2.91781e-08
1.2037e-05
-2.84393e-08
1.14551e-05
-2.78033e-08
1.09018e-05
-2.7268e-08
1.03759e-05
-2.68306e-08
9.8759e-06
-2.64876e-08
9.40045e-06
-2.62336e-08
8.94818e-06
-2.60603e-08
8.51772e-06
-2.5957e-08
8.1078e-06
-2.5911e-08
7.71723e-06
-2.59087e-08
7.34493e-06
-2.59368e-08
6.98992e-06
-2.59824e-08
6.65133e-06
-2.60339e-08
6.32833e-06
-2.60811e-08
6.0202e-06
-2.61154e-08
5.72621e-06
-2.61295e-08
5.4457e-06
-2.61186e-08
5.17802e-06
-2.60819e-08
4.92256e-06
-2.6025e-08
4.67875e-06
-2.59618e-08
4.44612e-06
-2.59128e-08
4.22429e-06
-2.58968e-08
4.01288e-06
-2.59188e-08
3.81133e-06
-2.59635e-08
3.61863e-06
3.43323e-06
-9.56817e-08
1.87169e-05
-9.42081e-08
1.83225e-05
-8.33021e-08
1.78316e-05
-6.84157e-08
1.74063e-05
-5.4192e-08
1.72549e-05
-4.29135e-08
1.74048e-05
-3.60637e-08
1.76691e-05
-3.31559e-08
1.78742e-05
-3.21698e-08
1.79811e-05
-3.16158e-08
1.80263e-05
-3.10034e-08
1.80451e-05
-2.83586e-08
1.80254e-05
-1.58016e-08
1.78336e-05
1.22042e-08
1.71047e-05
1.6741e-08
1.55492e-05
-4.79267e-08
1.40959e-05
-8.44896e-08
1.45052e-05
-6.06093e-08
1.61928e-05
-3.66452e-08
1.74365e-05
-2.95025e-08
1.78915e-05
-2.86502e-08
1.46789e-05
-2.81233e-08
1.39742e-05
-2.7306e-08
1.32941e-05
-2.6391e-08
1.26486e-05
-2.55134e-08
1.20362e-05
-2.47224e-08
1.14543e-05
-2.40301e-08
1.09012e-05
-2.34384e-08
1.03753e-05
-2.29468e-08
9.87541e-06
-2.25533e-08
9.40006e-06
-2.22533e-08
8.94788e-06
-2.20389e-08
8.51751e-06
-2.18997e-08
8.10766e-06
-2.18228e-08
7.71716e-06
-2.17945e-08
7.3449e-06
-2.18009e-08
6.98993e-06
-2.18291e-08
6.65136e-06
-2.18669e-08
6.32837e-06
-2.1904e-08
6.02023e-06
-2.19311e-08
5.72624e-06
-2.19408e-08
5.44571e-06
-2.19281e-08
5.17801e-06
-2.18919e-08
4.92252e-06
-2.18377e-08
4.67869e-06
-2.17789e-08
4.44606e-06
-2.17346e-08
4.22424e-06
-2.17214e-08
4.01287e-06
-2.17437e-08
3.81136e-06
-2.17876e-08
3.61868e-06
3.43326e-06
-9.75366e-08
1.87244e-05
-9.62836e-08
1.83212e-05
-8.51419e-08
1.78205e-05
-6.98299e-08
1.73909e-05
-5.51899e-08
1.72402e-05
-4.36057e-08
1.73933e-05
-3.65361e-08
1.7662e-05
-3.3479e-08
1.78712e-05
-3.24164e-08
1.798e-05
-3.18662e-08
1.80258e-05
-3.13603e-08
1.80446e-05
-2.88059e-08
1.80228e-05
-1.62556e-08
1.78211e-05
1.08914e-08
1.70776e-05
1.49328e-08
1.55452e-05
-4.43562e-08
1.41552e-05
-7.8799e-08
1.45397e-05
-5.64743e-08
1.61705e-05
-3.27794e-08
1.74128e-05
-2.54329e-08
1.78841e-05
-2.45935e-08
1.46781e-05
-2.41155e-08
1.39737e-05
-2.33011e-08
1.32933e-05
-2.23516e-08
1.26477e-05
-2.14209e-08
1.20352e-05
-2.05689e-08
1.14534e-05
-1.98132e-08
1.09004e-05
-1.91589e-08
1.03747e-05
-1.86076e-08
9.87486e-06
-1.81588e-08
9.39961e-06
-1.78086e-08
8.94753e-06
-1.75497e-08
8.51725e-06
-1.73713e-08
8.10749e-06
-1.72607e-08
7.71705e-06
-1.72037e-08
7.34485e-06
-1.71862e-08
6.98991e-06
-1.71946e-08
6.65136e-06
-1.72165e-08
6.32839e-06
-1.72409e-08
6.02026e-06
-1.72585e-08
5.72626e-06
-1.72612e-08
5.44572e-06
-1.7244e-08
5.17799e-06
-1.72058e-08
4.92248e-06
-1.71519e-08
4.67864e-06
-1.70954e-08
4.44601e-06
-1.70541e-08
4.2242e-06
-1.70433e-08
4.01286e-06
-1.70663e-08
3.81138e-06
-1.71095e-08
3.61872e-06
3.4333e-06
-9.96795e-08
1.87324e-05
-9.85302e-08
1.83201e-05
-8.70705e-08
1.7809e-05
-7.12853e-08
1.73752e-05
-5.6221e-08
1.72251e-05
-4.43451e-08
1.73814e-05
-3.70751e-08
1.76547e-05
-3.38829e-08
1.7868e-05
-3.27514e-08
1.79789e-05
-3.22108e-08
1.80252e-05
-3.18109e-08
1.80442e-05
-2.93323e-08
1.80204e-05
-1.67489e-08
1.78085e-05
9.67741e-09
1.70511e-05
1.34002e-08
1.55414e-05
-4.07838e-08
1.42094e-05
-7.32461e-08
1.45722e-05
-5.21647e-08
1.61494e-05
-2.86663e-08
1.73893e-05
-2.10651e-08
1.78765e-05
-2.01951e-08
1.46772e-05
-1.97362e-08
1.39732e-05
-1.89035e-08
1.32925e-05
-1.79026e-08
1.26467e-05
-1.69054e-08
1.20342e-05
-1.59812e-08
1.14525e-05
-1.51527e-08
1.08996e-05
-1.44277e-08
1.03739e-05
-1.38098e-08
9.87424e-06
-1.32996e-08
9.3991e-06
-1.28939e-08
8.94712e-06
-1.25856e-08
8.51694e-06
-1.23639e-08
8.10727e-06
-1.22158e-08
7.7169e-06
-1.21267e-08
7.34476e-06
-1.20818e-08
6.98987e-06
-1.20672e-08
6.65135e-06
-1.20699e-08
6.3284e-06
-1.20785e-08
6.02027e-06
-1.20831e-08
5.72626e-06
-1.20758e-08
5.44571e-06
-1.20513e-08
5.17797e-06
-1.20091e-08
4.92244e-06
-1.19553e-08
4.67859e-06
-1.19031e-08
4.44595e-06
-1.18704e-08
4.22417e-06
-1.18724e-08
4.01286e-06
-1.19141e-08
3.81142e-06
-1.19803e-08
3.61879e-06
3.43335e-06
-1.02128e-07
1.87407e-05
-1.00996e-07
1.8319e-05
-8.91532e-08
1.77972e-05
-7.28524e-08
1.73589e-05
-5.73402e-08
1.72096e-05
-4.51574e-08
1.73692e-05
-3.7682e-08
1.76472e-05
-3.43562e-08
1.78647e-05
-3.31568e-08
1.79777e-05
-3.26228e-08
1.80247e-05
-3.23105e-08
1.80438e-05
-2.98641e-08
1.80179e-05
-1.71937e-08
1.77958e-05
8.58062e-09
1.70254e-05
1.19989e-08
1.5538e-05
-3.79105e-08
1.42593e-05
-6.78635e-08
1.46021e-05
-4.76428e-08
1.61292e-05
-2.42534e-08
1.73659e-05
-1.6369e-08
1.78687e-05
-1.54444e-08
1.46763e-05
-1.49849e-08
1.39728e-05
-1.41158e-08
1.32916e-05
-1.30465e-08
1.26456e-05
-1.19674e-08
1.20331e-05
-1.09581e-08
1.14515e-05
-1.00457e-08
1.08987e-05
-9.24041e-09
1.03731e-05
-8.54748e-09
9.87355e-06
-7.96844e-09
9.39852e-06
-7.50066e-09
8.94666e-06
-7.13709e-09
8.51658e-06
-6.86689e-09
8.107e-06
-6.67647e-09
7.71671e-06
-6.55077e-09
7.34463e-06
-6.47446e-09
6.98979e-06
-6.43279e-09
6.65131e-06
-6.41225e-09
6.32838e-06
-6.40085e-09
6.02026e-06
-6.3884e-09
5.72625e-06
-6.36688e-09
5.44569e-06
-6.33169e-09
5.17793e-06
-6.28354e-09
4.92239e-06
-6.23066e-09
4.67853e-06
-6.18951e-09
4.44591e-06
-6.18207e-09
4.22416e-06
-6.2303e-09
4.01291e-06
-6.35001e-09
3.81154e-06
-6.52502e-09
3.61896e-06
3.43339e-06
-1.04868e-07
1.87492e-05
-1.03704e-07
1.83178e-05
-9.14364e-08
1.77849e-05
-7.45886e-08
1.7342e-05
-5.85965e-08
1.71936e-05
-4.60702e-08
1.73567e-05
-3.83626e-08
1.76395e-05
-3.48903e-08
1.78612e-05
-3.3615e-08
1.79764e-05
-3.30742e-08
1.80242e-05
-3.28131e-08
1.80436e-05
-3.03323e-08
1.80154e-05
-1.75171e-08
1.7783e-05
7.63438e-09
1.70002e-05
1.08313e-08
1.55348e-05
-3.4896e-08
1.4305e-05
-6.24694e-08
1.46297e-05
-4.28676e-08
1.61096e-05
-1.94957e-08
1.73426e-05
-1.13135e-08
1.78605e-05
-1.03243e-08
1.46753e-05
-9.85344e-09
1.39723e-05
-8.93383e-09
1.32907e-05
-7.77978e-09
1.26445e-05
-6.60316e-09
1.2032e-05
-5.49464e-09
1.14504e-05
-4.4859e-09
1.08977e-05
-3.5895e-09
1.03722e-05
-2.81191e-09
9.87277e-06
-2.15545e-09
9.39786e-06
-1.61789e-09
8.94612e-06
-1.1922e-09
8.51615e-06
-8.67279e-10
8.10667e-06
-6.29059e-10
7.71647e-06
-4.61857e-10
7.34446e-06
-3.49585e-10
6.98968e-06
-2.76698e-10
6.65123e-06
-2.28817e-10
6.32833e-06
-1.93051e-10
6.02022e-06
-1.58215e-10
5.72621e-06
-1.15283e-10
5.44564e-06
-5.8406e-11
5.17788e-06
1.34633e-11
4.92232e-06
9.51823e-11
4.67845e-06
1.75944e-10
4.44583e-06
2.43162e-10
4.2241e-06
2.88547e-10
4.01286e-06
2.99338e-10
3.81153e-06
1.11974e-10
3.61915e-06
3.43514e-06
-1.07881e-07
1.87581e-05
-1.06659e-07
1.83166e-05
-9.39438e-08
1.77722e-05
-7.65262e-08
1.73246e-05
-6.00204e-08
1.71771e-05
-4.71062e-08
1.73438e-05
-3.91273e-08
1.76315e-05
-3.54834e-08
1.78575e-05
-3.41139e-08
1.7975e-05
-3.35418e-08
1.80236e-05
-3.32817e-08
1.80433e-05
-3.06861e-08
1.80128e-05
-1.76699e-08
1.777e-05
6.88386e-09
1.69757e-05
9.94668e-09
1.55318e-05
-3.18467e-08
1.43468e-05
-5.6987e-08
1.46548e-05
-3.77855e-08
1.60904e-05
-1.43807e-08
1.73192e-05
-5.88644e-09
1.7852e-05
-4.82326e-09
1.46742e-05
-4.33289e-09
1.39718e-05
-3.35036e-09
1.32897e-05
-2.09585e-09
1.26432e-05
-8.05485e-10
1.20307e-05
4.17196e-10
1.14492e-05
1.53555e-09
1.08965e-05
2.53493e-09
1.03712e-05
3.4078e-09
9.8719e-06
4.15116e-09
9.39712e-06
4.767e-09
8.9455e-06
5.26234e-09
8.51566e-06
5.64859e-09
8.10628e-06
5.9403e-09
7.71618e-06
6.15376e-09
7.34425e-06
6.3058e-09
6.98953e-06
6.41277e-09
6.65113e-06
6.48992e-09
6.32825e-06
6.5511e-09
6.02016e-06
6.60855e-09
5.72616e-06
6.67246e-09
5.44558e-06
6.75011e-09
5.1778e-06
6.84445e-09
4.92223e-06
6.95324e-09
4.67834e-06
7.07005e-09
4.44571e-06
7.18737e-09
4.22398e-06
7.29751e-09
4.01275e-06
7.35528e-09
3.81147e-06
6.95179e-09
3.61955e-06
3.43837e-06
-1.11173e-07
1.87673e-05
-1.09866e-07
1.83153e-05
-9.66844e-08
1.7759e-05
-7.86724e-08
1.73066e-05
-6.16205e-08
1.71601e-05
-4.82783e-08
1.73304e-05
-3.99885e-08
1.76233e-05
-3.61423e-08
1.78537e-05
-3.46508e-08
1.79735e-05
-3.40137e-08
1.80229e-05
-3.36964e-08
1.8043e-05
-3.09045e-08
1.80101e-05
-1.76396e-08
1.77567e-05
6.35617e-09
1.69517e-05
9.40564e-09
1.55287e-05
-2.86473e-08
1.43849e-05
-5.13823e-08
1.46776e-05
-3.24429e-08
1.60714e-05
-8.9507e-09
1.72957e-05
-1.03238e-10
1.78431e-05
1.05546e-09
1.46731e-05
1.58046e-09
1.39713e-05
2.64066e-09
1.32887e-05
4.01226e-09
1.26418e-05
5.43329e-09
1.20293e-05
6.78591e-09
1.14478e-05
8.02812e-09
1.08953e-05
9.14323e-09
1.03701e-05
1.01228e-08
9.87092e-06
1.09632e-08
9.39628e-06
1.16663e-08
8.9448e-06
1.22392e-08
8.51509e-06
1.26935e-08
8.10583e-06
1.30441e-08
7.71583e-06
1.3308e-08
7.34399e-06
1.35024e-08
6.98933e-06
1.36441e-08
6.65099e-06
1.37489e-08
6.32815e-06
1.38307e-08
6.02008e-06
1.39016e-08
5.72609e-06
1.39709e-08
5.44551e-06
1.40444e-08
5.17772e-06
1.41224e-08
4.92215e-06
1.41991e-08
4.67827e-06
1.42634e-08
4.44565e-06
1.43013e-08
4.22394e-06
1.42931e-08
4.01276e-06
1.41698e-08
3.81159e-06
1.35818e-08
3.62014e-06
3.44049e-06
-1.14793e-07
1.87768e-05
-1.13351e-07
1.83138e-05
-9.96657e-08
1.77453e-05
-8.10206e-08
1.72879e-05
-6.33886e-08
1.71425e-05
-4.95903e-08
1.73166e-05
-4.09616e-08
1.76146e-05
-3.68797e-08
1.78496e-05
-3.52321e-08
1.79719e-05
-3.44908e-08
1.80222e-05
-3.40588e-08
1.80426e-05
-3.09981e-08
1.8007e-05
-1.7446e-08
1.77431e-05
6.06023e-09
1.69282e-05
9.24909e-09
1.55255e-05
-2.5247e-08
1.44194e-05
-4.5655e-08
1.4698e-05
-2.68971e-08
1.60527e-05
-3.27158e-09
1.72721e-05
5.99411e-09
1.78339e-05
7.29448e-09
1.46718e-05
7.88284e-09
1.39707e-05
9.04127e-09
1.32875e-05
1.05491e-08
1.26403e-05
1.21191e-08
1.20277e-05
1.36186e-08
1.14463e-05
1.5e-08
1.08939e-05
1.62445e-08
1.03689e-05
1.73429e-08
9.86982e-06
1.82912e-08
9.39533e-06
1.9091e-08
8.944e-06
1.97495e-08
8.51443e-06
2.02786e-08
8.1053e-06
2.06936e-08
7.71541e-06
2.10118e-08
7.34367e-06
2.12509e-08
6.98909e-06
2.1428e-08
6.65081e-06
2.1559e-08
6.32802e-06
2.16575e-08
6.01998e-06
2.17351e-08
5.72601e-06
2.18003e-08
5.44544e-06
2.18572e-08
5.17767e-06
2.1905e-08
4.9221e-06
2.19369e-08
4.67823e-06
2.19422e-08
4.44564e-06
2.19101e-08
4.22397e-06
2.18309e-08
4.01284e-06
2.16721e-08
3.81175e-06
2.12765e-08
3.62053e-06
3.44141e-06
-1.1883e-07
1.87863e-05
-1.17163e-07
1.83121e-05
-1.02906e-07
1.77311e-05
-8.35659e-08
1.72686e-05
-6.53141e-08
1.71242e-05
-5.10405e-08
1.73023e-05
-4.20548e-08
1.76056e-05
-3.77102e-08
1.78453e-05
-3.58713e-08
1.797e-05
-3.49858e-08
1.80213e-05
-3.43877e-08
1.8042e-05
-3.10008e-08
1.80036e-05
-1.71291e-08
1.77293e-05
5.98493e-09
1.6905e-05
9.47274e-09
1.5522e-05
-2.1661e-08
1.44505e-05
-3.98386e-08
1.47161e-05
-2.12059e-08
1.6034e-05
2.59729e-09
1.72483e-05
1.2357e-08
1.78241e-05
1.38696e-08
1.46702e-05
1.45648e-08
1.397e-05
1.58493e-08
1.32862e-05
1.75159e-08
1.26387e-05
1.92555e-08
1.20259e-05
2.09205e-08
1.14446e-05
2.24576e-08
1.08924e-05
2.38463e-08
1.03675e-05
2.50765e-08
9.86859e-06
2.61441e-08
9.39427e-06
2.70505e-08
8.94309e-06
2.78031e-08
8.51368e-06
2.84142e-08
8.10469e-06
2.88995e-08
7.71493e-06
2.92768e-08
7.34329e-06
2.95644e-08
6.98881e-06
2.97799e-08
6.65059e-06
2.99395e-08
6.32786e-06
3.00574e-08
6.01986e-06
3.01454e-08
5.72592e-06
3.02123e-08
5.44538e-06
3.0263e-08
5.17762e-06
3.02972e-08
4.92207e-06
3.03097e-08
4.67822e-06
3.02921e-08
4.44566e-06
3.02357e-08
4.22403e-06
3.01345e-08
4.01294e-06
2.99802e-08
3.81191e-06
2.97401e-08
3.62077e-06
3.44176e-06
-1.23396e-07
1.87959e-05
-1.21374e-07
1.83101e-05
-1.06438e-07
1.77161e-05
-8.63171e-08
1.72485e-05
-6.73964e-08
1.71053e-05
-5.26305e-08
1.72876e-05
-4.32775e-08
1.75963e-05
-3.86473e-08
1.78406e-05
-3.65839e-08
1.7968e-05
-3.55171e-08
1.80203e-05
-3.47106e-08
1.80412e-05
-3.09543e-08
1.79998e-05
-1.67331e-08
1.77151e-05
6.1043e-09
1.68822e-05
1.00378e-08
1.55181e-05
-1.79342e-08
1.44785e-05
-3.39961e-08
1.47322e-05
-1.54065e-08
1.60155e-05
8.62122e-09
1.72242e-05
1.89563e-08
1.78138e-05
2.07602e-08
1.46684e-05
2.16154e-08
1.39692e-05
2.30602e-08
1.32848e-05
2.49122e-08
1.26368e-05
2.68444e-08
1.2024e-05
2.86955e-08
1.14428e-05
3.04066e-08
1.08907e-05
3.19555e-08
1.03659e-05
3.33317e-08
9.86722e-06
3.45309e-08
9.39307e-06
3.55546e-08
8.94207e-06
3.64106e-08
8.51282e-06
3.71116e-08
8.10399e-06
3.7674e-08
7.71437e-06
3.81164e-08
7.34285e-06
3.84577e-08
6.98847e-06
3.87165e-08
6.65033e-06
3.89099e-08
6.32766e-06
3.90529e-08
6.01972e-06
3.91583e-08
5.72581e-06
3.92357e-08
5.4453e-06
3.92908e-08
5.17756e-06
3.93244e-08
4.92203e-06
3.93324e-08
4.67821e-06
3.93078e-08
4.44569e-06
3.92435e-08
4.22409e-06
3.91365e-08
4.01305e-06
3.89903e-08
3.81205e-06
3.88195e-08
3.62095e-06
3.44191e-06
-1.28593e-07
1.88053e-05
-1.2606e-07
1.83076e-05
-1.10309e-07
1.77004e-05
-8.9301e-08
1.72275e-05
-6.96516e-08
1.70856e-05
-5.437e-08
1.72723e-05
-4.46377e-08
1.75866e-05
-3.97001e-08
1.78357e-05
-3.73839e-08
1.79657e-05
-3.61025e-08
1.8019e-05
-3.50528e-08
1.80401e-05
-3.08939e-08
1.79957e-05
-1.6292e-08
1.77005e-05
6.38979e-09
1.68595e-05
1.08963e-08
1.55136e-05
-1.41025e-08
1.45035e-05
-2.81249e-08
1.47462e-05
-9.49854e-09
1.59968e-05
1.48037e-08
1.71999e-05
2.57895e-08
1.78028e-05
2.79579e-08
1.46663e-05
2.90279e-08
1.39681e-05
3.0671e-08
1.32831e-05
3.27383e-08
1.26347e-05
3.48889e-08
1.20219e-05
3.69487e-08
1.14407e-05
3.88538e-08
1.08888e-05
4.05805e-08
1.03642e-05
4.21181e-08
9.86568e-06
4.34623e-08
9.39172e-06
4.4615e-08
8.94092e-06
4.55846e-08
8.51185e-06
4.63843e-08
8.10319e-06
4.70315e-08
7.71372e-06
4.75457e-08
7.34234e-06
4.79468e-08
6.98806e-06
4.82546e-08
6.65003e-06
4.84871e-08
6.32743e-06
4.86605e-08
6.01954e-06
4.87884e-08
5.72569e-06
4.88813e-08
5.44521e-06
4.89457e-08
5.1775e-06
4.89833e-08
4.92199e-06
4.89911e-08
4.67821e-06
4.89634e-08
4.44571e-06
4.88951e-08
4.22416e-06
4.87851e-08
4.01316e-06
4.86414e-08
3.8122e-06
4.84889e-08
3.6211e-06
3.44203e-06
-1.34499e-07
1.88144e-05
-1.31288e-07
1.83044e-05
-1.14567e-07
1.76837e-05
-9.25564e-08
1.72055e-05
-7.21093e-08
1.70652e-05
-5.62762e-08
1.72565e-05
-4.61443e-08
1.75764e-05
-4.08801e-08
1.78304e-05
-3.82816e-08
1.79631e-05
-3.67552e-08
1.80174e-05
-3.54311e-08
1.80388e-05
-3.08397e-08
1.79911e-05
-1.58237e-08
1.76854e-05
6.81899e-09
1.68369e-05
1.20052e-08
1.55084e-05
-1.01907e-08
1.45257e-05
-2.22353e-08
1.47583e-05
-3.46594e-09
1.59781e-05
2.11795e-08
1.71753e-05
3.28764e-08
1.77911e-05
3.54693e-08
1.46637e-05
3.6804e-08
1.39668e-05
3.86836e-08
1.32813e-05
4.0998e-08
1.26324e-05
4.33951e-08
1.20195e-05
4.56883e-08
1.14384e-05
4.7809e-08
1.08866e-05
4.97325e-08
1.03623e-05
5.14481e-08
9.86396e-06
5.29519e-08
9.39022e-06
5.42466e-08
8.93962e-06
5.53409e-08
8.51076e-06
5.62492e-08
8.10228e-06
5.69898e-08
7.71298e-06
5.75833e-08
7.34174e-06
5.8051e-08
6.9876e-06
5.84135e-08
6.64966e-06
5.86903e-08
6.32715e-06
5.88985e-08
6.01934e-06
5.90527e-08
5.72553e-06
5.91644e-08
5.4451e-06
5.92406e-08
5.17742e-06
5.92837e-08
4.92195e-06
5.92918e-08
4.6782e-06
5.92602e-08
4.44575e-06
5.91849e-08
4.22424e-06
5.90663e-08
4.01327e-06
5.89137e-08
3.81235e-06
5.87542e-08
3.62126e-06
3.44215e-06
-1.41164e-07
1.88232e-05
-1.37108e-07
1.83003e-05
-1.19254e-07
1.76658e-05
-9.61234e-08
1.71823e-05
-7.48038e-08
1.70439e-05
-5.83712e-08
1.724e-05