/*--------------------------------*- C++ -*----------------------------------*\
  =========                 |
  \\      /  F ield         | OpenFOAM: The Open Source CFD Toolbox
   \\    /   O peration     | Website:  https://openfoam.org
    \\  /    A nd           | Version:  9
     \\/     M anipulation  |
\*---------------------------------------------------------------------------*/
FoamFile
{
    format      ascii;
    class       volScalarField;
    location    "0.19";
    object      rAU;
}
// * * * * * * * * * * * * * * * * * * * * * * * * * * * * * * * * * * * * * //

dimensions      [-1 3 1 0 0 0 0];

internalField   nonuniform List<scalar> 
5000
(
1.17908e-05
1.18903e-05
1.20226e-05
1.21521e-05
1.22067e-05
1.21665e-05
1.20937e-05
1.20389e-05
1.20094e-05
1.1995e-05
1.19875e-05
1.19878e-05
1.2016e-05
1.21655e-05
1.2748e-05
1.38948e-05
1.34434e-05
1.2454e-05
1.20938e-05
1.20142e-05
1.19889e-05
1.19882e-05
1.19918e-05
1.19943e-05
1.19954e-05
1.1995e-05
1.19933e-05
1.199e-05
1.19851e-05
1.19785e-05
1.19702e-05
1.19601e-05
1.19483e-05
1.19347e-05
1.19191e-05
1.19016e-05
1.1882e-05
1.186e-05
1.18356e-05
1.18084e-05
1.17781e-05
1.17446e-05
1.17075e-05
1.16666e-05
1.16215e-05
1.15718e-05
1.15169e-05
1.14563e-05
1.13902e-05
1.02511e-05
1.70205e-05
1.70986e-05
1.72018e-05
1.73019e-05
1.73441e-05
1.73141e-05
1.72587e-05
1.72166e-05
1.71938e-05
1.71826e-05
1.71768e-05
1.71771e-05
1.72005e-05
1.73223e-05
1.77592e-05
1.85134e-05
1.82215e-05
1.75312e-05
1.72586e-05
1.71936e-05
1.71491e-05
1.71357e-05
1.71281e-05
1.71186e-05
1.7107e-05
1.7093e-05
1.70767e-05
1.70577e-05
1.7036e-05
1.70112e-05
1.69832e-05
1.69519e-05
1.69169e-05
1.68782e-05
1.68354e-05
1.67883e-05
1.67364e-05
1.66795e-05
1.6617e-05
1.65486e-05
1.64736e-05
1.63917e-05
1.63023e-05
1.62048e-05
1.60986e-05
1.59831e-05
1.58575e-05
1.57211e-05
1.55737e-05
1.34988e-05
1.7018e-05
1.70971e-05
1.72016e-05
1.73024e-05
1.73448e-05
1.73149e-05
1.72592e-05
1.72168e-05
1.71939e-05
1.71828e-05
1.71771e-05
1.71778e-05
1.7203e-05
1.73306e-05
1.7768e-05
1.848e-05
1.82091e-05
1.75392e-05
1.72615e-05
1.71937e-05
1.71487e-05
1.71353e-05
1.71279e-05
1.71185e-05
1.71068e-05
1.70929e-05
1.70765e-05
1.70576e-05
1.70358e-05
1.7011e-05
1.69831e-05
1.69517e-05
1.69167e-05
1.6878e-05
1.68352e-05
1.6788e-05
1.67361e-05
1.66792e-05
1.66167e-05
1.65482e-05
1.64733e-05
1.63913e-05
1.63019e-05
1.62045e-05
1.60983e-05
1.59829e-05
1.58573e-05
1.5721e-05
1.55736e-05
1.34984e-05
1.70159e-05
1.7096e-05
1.72019e-05
1.73035e-05
1.7346e-05
1.7316e-05
1.72599e-05
1.72171e-05
1.71941e-05
1.71831e-05
1.71775e-05
1.71785e-05
1.72057e-05
1.73386e-05
1.77766e-05
1.84447e-05
1.81958e-05
1.75497e-05
1.72658e-05
1.71943e-05
1.71485e-05
1.71352e-05
1.71278e-05
1.71184e-05
1.71068e-05
1.70929e-05
1.70766e-05
1.70576e-05
1.70359e-05
1.70111e-05
1.69831e-05
1.69517e-05
1.69167e-05
1.68779e-05
1.68351e-05
1.67879e-05
1.6736e-05
1.66791e-05
1.66166e-05
1.65481e-05
1.64732e-05
1.63913e-05
1.63019e-05
1.62045e-05
1.60984e-05
1.5983e-05
1.58575e-05
1.57212e-05
1.55738e-05
1.34985e-05
1.7014e-05
1.70955e-05
1.72027e-05
1.7305e-05
1.73476e-05
1.73173e-05
1.72607e-05
1.72174e-05
1.71942e-05
1.71833e-05
1.71779e-05
1.71793e-05
1.72085e-05
1.73479e-05
1.77858e-05
1.84103e-05
1.81821e-05
1.75613e-05
1.72712e-05
1.71952e-05
1.71487e-05
1.71353e-05
1.71279e-05
1.71186e-05
1.7107e-05
1.70931e-05
1.70767e-05
1.70578e-05
1.70361e-05
1.70113e-05
1.69833e-05
1.69519e-05
1.69169e-05
1.68781e-05
1.68353e-05
1.67881e-05
1.67362e-05
1.66793e-05
1.66168e-05
1.65484e-05
1.64735e-05
1.63916e-05
1.63023e-05
1.6205e-05
1.6099e-05
1.59836e-05
1.58581e-05
1.57218e-05
1.55744e-05
1.34991e-05
1.70124e-05
1.70954e-05
1.7204e-05
1.7307e-05
1.73495e-05
1.73189e-05
1.72616e-05
1.72177e-05
1.71943e-05
1.71835e-05
1.71783e-05
1.718e-05
1.72115e-05
1.73576e-05
1.77943e-05
1.83782e-05
1.81687e-05
1.75728e-05
1.72773e-05
1.71965e-05
1.7149e-05
1.71356e-05
1.71283e-05
1.71189e-05
1.71073e-05
1.70934e-05
1.70771e-05
1.70582e-05
1.70365e-05
1.70117e-05
1.69837e-05
1.69523e-05
1.69173e-05
1.68786e-05
1.68357e-05
1.67886e-05
1.67367e-05
1.66798e-05
1.66173e-05
1.6549e-05
1.64741e-05
1.63923e-05
1.63031e-05
1.62058e-05
1.60999e-05
1.59846e-05
1.58591e-05
1.57228e-05
1.55754e-05
1.35002e-05
1.7011e-05
1.70954e-05
1.72056e-05
1.73093e-05
1.73517e-05
1.73207e-05
1.72626e-05
1.72181e-05
1.71944e-05
1.71836e-05
1.71786e-05
1.71808e-05
1.72146e-05
1.73673e-05
1.78013e-05
1.83485e-05
1.81556e-05
1.75837e-05
1.72838e-05
1.71982e-05
1.71497e-05
1.71362e-05
1.71288e-05
1.71195e-05
1.71079e-05
1.7094e-05
1.70777e-05
1.70588e-05
1.70371e-05
1.70123e-05
1.69843e-05
1.69529e-05
1.6918e-05
1.68792e-05
1.68365e-05
1.67893e-05
1.67375e-05
1.66806e-05
1.66182e-05
1.65499e-05
1.64751e-05
1.63934e-05
1.63042e-05
1.6207e-05
1.61012e-05
1.59859e-05
1.58605e-05
1.57242e-05
1.55767e-05
1.35018e-05
1.70096e-05
1.70956e-05
1.72074e-05
1.73118e-05
1.73541e-05
1.73226e-05
1.72638e-05
1.72185e-05
1.71946e-05
1.71838e-05
1.7179e-05
1.71816e-05
1.72178e-05
1.73766e-05
1.7807e-05
1.83212e-05
1.81432e-05
1.75939e-05
1.72905e-05
1.72001e-05
1.71505e-05
1.71369e-05
1.71295e-05
1.71202e-05
1.71086e-05
1.70947e-05
1.70785e-05
1.70596e-05
1.70379e-05
1.70131e-05
1.69852e-05
1.69538e-05
1.69189e-05
1.68802e-05
1.68374e-05
1.67903e-05
1.67385e-05
1.66817e-05
1.66194e-05
1.65511e-05
1.64764e-05
1.63948e-05
1.63057e-05
1.62086e-05
1.61028e-05
1.59876e-05
1.58622e-05
1.57259e-05
1.55784e-05
1.35039e-05
1.70083e-05
1.70959e-05
1.72093e-05
1.73146e-05
1.73567e-05
1.73247e-05
1.7265e-05
1.72189e-05
1.71947e-05
1.7184e-05
1.71792e-05
1.71823e-05
1.7221e-05
1.73855e-05
1.78114e-05
1.82962e-05
1.81315e-05
1.76034e-05
1.72974e-05
1.72023e-05
1.71514e-05
1.71378e-05
1.71304e-05
1.71211e-05
1.71095e-05
1.70957e-05
1.70794e-05
1.70606e-05
1.70389e-05
1.70142e-05
1.69862e-05
1.69549e-05
1.692e-05
1.68814e-05
1.68386e-05
1.67916e-05
1.67399e-05
1.66831e-05
1.66209e-05
1.65527e-05
1.64781e-05
1.63966e-05
1.63076e-05
1.62105e-05
1.61048e-05
1.59896e-05
1.58642e-05
1.57279e-05
1.55804e-05
1.35065e-05
1.70069e-05
1.70961e-05
1.72114e-05
1.73175e-05
1.73595e-05
1.73269e-05
1.72663e-05
1.72194e-05
1.71949e-05
1.71841e-05
1.71795e-05
1.71831e-05
1.72242e-05
1.73939e-05
1.78148e-05
1.82733e-05
1.81206e-05
1.76124e-05
1.73044e-05
1.72046e-05
1.71526e-05
1.71388e-05
1.71315e-05
1.71222e-05
1.71106e-05
1.70968e-05
1.70806e-05
1.70617e-05
1.70401e-05
1.70154e-05
1.69875e-05
1.69563e-05
1.69214e-05
1.68828e-05
1.68401e-05
1.67932e-05
1.67415e-05
1.66848e-05
1.66227e-05
1.65546e-05
1.64801e-05
1.63986e-05
1.63097e-05
1.62128e-05
1.61072e-05
1.59921e-05
1.58667e-05
1.57304e-05
1.55829e-05
1.35097e-05
1.70053e-05
1.70962e-05
1.72135e-05
1.73205e-05
1.73624e-05
1.73293e-05
1.72677e-05
1.722e-05
1.7195e-05
1.71842e-05
1.71797e-05
1.71837e-05
1.72273e-05
1.74019e-05
1.78174e-05
1.82523e-05
1.81104e-05
1.76209e-05
1.73114e-05
1.7207e-05
1.71537e-05
1.71399e-05
1.71326e-05
1.71234e-05
1.71119e-05
1.70981e-05
1.70819e-05
1.70631e-05
1.70415e-05
1.70169e-05
1.69891e-05
1.69578e-05
1.69231e-05
1.68845e-05
1.68419e-05
1.6795e-05
1.67434e-05
1.66868e-05
1.66248e-05
1.65568e-05
1.64824e-05
1.64011e-05
1.63123e-05
1.62154e-05
1.61099e-05
1.59949e-05
1.58695e-05
1.57333e-05
1.55858e-05
1.35136e-05
1.70035e-05
1.70962e-05
1.72157e-05
1.73237e-05
1.73656e-05
1.73318e-05
1.72692e-05
1.72206e-05
1.71952e-05
1.71844e-05
1.71798e-05
1.71844e-05
1.72303e-05
1.74095e-05
1.78195e-05
1.82331e-05
1.81009e-05
1.76289e-05
1.73184e-05
1.72096e-05
1.7155e-05
1.71411e-05
1.7134e-05
1.71248e-05
1.71134e-05
1.70996e-05
1.70835e-05
1.70647e-05
1.70432e-05
1.70186e-05
1.69908e-05
1.69597e-05
1.6925e-05
1.68865e-05
1.6844e-05
1.67971e-05
1.67457e-05
1.66892e-05
1.66272e-05
1.65593e-05
1.6485e-05
1.64038e-05
1.63152e-05
1.62185e-05
1.6113e-05
1.59981e-05
1.58728e-05
1.57366e-05
1.55892e-05
1.35181e-05
1.70015e-05
1.70961e-05
1.72179e-05
1.7327e-05
1.73688e-05
1.73344e-05
1.72707e-05
1.72212e-05
1.71954e-05
1.71844e-05
1.71799e-05
1.71849e-05
1.72334e-05
1.74168e-05
1.78213e-05
1.82155e-05
1.80919e-05
1.76365e-05
1.73253e-05
1.72122e-05
1.71564e-05
1.71424e-05
1.71354e-05
1.71264e-05
1.7115e-05
1.71013e-05
1.70852e-05
1.70665e-05
1.70451e-05
1.70205e-05
1.69928e-05
1.69618e-05
1.69271e-05
1.68887e-05
1.68463e-05
1.67995e-05
1.67482e-05
1.66918e-05
1.66299e-05
1.65622e-05
1.6488e-05
1.6407e-05
1.63185e-05
1.62219e-05
1.61166e-05
1.60017e-05
1.58766e-05
1.57404e-05
1.55931e-05
1.35233e-05
1.69993e-05
1.7096e-05
1.72201e-05
1.73304e-05
1.73721e-05
1.7337e-05
1.72723e-05
1.72218e-05
1.71955e-05
1.71845e-05
1.718e-05
1.71854e-05
1.72363e-05
1.74239e-05
1.78228e-05
1.81994e-05
1.80836e-05
1.76436e-05
1.73323e-05
1.7215e-05
1.71578e-05
1.71438e-05
1.7137e-05
1.71281e-05
1.71168e-05
1.71031e-05
1.70871e-05
1.70685e-05
1.70471e-05
1.70227e-05
1.69951e-05
1.69641e-05
1.69295e-05
1.68912e-05
1.68489e-05
1.68023e-05
1.6751e-05
1.66947e-05
1.6633e-05
1.65654e-05
1.64914e-05
1.64105e-05
1.63221e-05
1.62257e-05
1.61205e-05
1.60058e-05
1.58808e-05
1.57447e-05
1.55975e-05
1.35291e-05
1.69969e-05
1.70957e-05
1.72224e-05
1.73339e-05
1.73756e-05
1.73398e-05
1.72739e-05
1.72225e-05
1.71957e-05
1.71845e-05
1.71799e-05
1.71859e-05
1.72393e-05
1.74307e-05
1.78242e-05
1.81847e-05
1.80757e-05
1.76504e-05
1.73392e-05
1.72179e-05
1.71594e-05
1.71453e-05
1.71387e-05
1.71299e-05
1.71187e-05
1.71052e-05
1.70893e-05
1.70708e-05
1.70495e-05
1.70251e-05
1.69976e-05
1.69667e-05
1.69322e-05
1.6894e-05
1.68518e-05
1.68053e-05
1.67541e-05
1.6698e-05
1.66364e-05
1.6569e-05
1.64951e-05
1.64144e-05
1.63262e-05
1.62299e-05
1.61249e-05
1.60103e-05
1.58854e-05
1.57494e-05
1.56023e-05
1.35354e-05
1.69943e-05
1.70953e-05
1.72247e-05
1.73374e-05
1.73791e-05
1.73425e-05
1.72756e-05
1.72231e-05
1.71959e-05
1.71845e-05
1.71799e-05
1.71863e-05
1.72423e-05
1.74374e-05
1.78255e-05
1.81712e-05
1.80684e-05
1.7657e-05
1.73462e-05
1.72209e-05
1.71611e-05
1.71469e-05
1.71405e-05
1.71319e-05
1.71209e-05
1.71074e-05
1.70916e-05
1.70732e-05
1.7052e-05
1.70278e-05
1.70003e-05
1.69695e-05
1.69352e-05
1.68971e-05
1.6855e-05
1.68086e-05
1.67576e-05
1.67016e-05
1.66402e-05
1.65729e-05
1.64993e-05
1.64187e-05
1.63307e-05
1.62346e-05
1.61297e-05
1.60153e-05
1.58904e-05
1.57545e-05
1.56074e-05
1.35421e-05
1.69916e-05
1.70949e-05
1.72271e-05
1.73411e-05
1.73827e-05
1.73454e-05
1.72773e-05
1.72238e-05
1.7196e-05
1.71845e-05
1.71798e-05
1.71868e-05
1.72453e-05
1.74439e-05
1.78266e-05
1.81588e-05
1.80618e-05
1.76634e-05
1.73532e-05
1.72241e-05
1.71628e-05
1.71487e-05
1.71425e-05
1.71341e-05
1.71232e-05
1.71099e-05
1.70942e-05
1.70759e-05
1.70548e-05
1.70307e-05
1.70033e-05
1.69726e-05
1.69384e-05
1.69004e-05
1.68585e-05
1.68123e-05
1.67614e-05
1.67056e-05
1.66444e-05
1.65773e-05
1.65038e-05
1.64234e-05
1.63356e-05
1.62397e-05
1.6135e-05
1.60206e-05
1.58958e-05
1.576e-05
1.56132e-05
1.35483e-05
1.69888e-05
1.70945e-05
1.72295e-05
1.73449e-05
1.73864e-05
1.73483e-05
1.7279e-05
1.72245e-05
1.71962e-05
1.71845e-05
1.71797e-05
1.71873e-05
1.72485e-05
1.74502e-05
1.78276e-05
1.81476e-05
1.80559e-05
1.76698e-05
1.73604e-05
1.72275e-05
1.71648e-05
1.71505e-05
1.71446e-05
1.71365e-05
1.71257e-05
1.71124e-05
1.70962e-05
1.70772e-05
1.70553e-05
1.70305e-05
1.70025e-05
1.69712e-05
1.69364e-05
1.68979e-05
1.68556e-05
1.6809e-05
1.67579e-05
1.67018e-05
1.66403e-05
1.6573e-05
1.64993e-05
1.64186e-05
1.63305e-05
1.62343e-05
1.61293e-05
1.60147e-05
1.58897e-05
1.57537e-05
1.56065e-05
1.64747e-05
1.69858e-05
1.7094e-05
1.7232e-05
1.73487e-05
1.73902e-05
1.73512e-05
1.72808e-05
1.72252e-05
1.71964e-05
1.71845e-05
1.71797e-05
1.71879e-05
1.72517e-05
1.74564e-05
1.78285e-05
1.81373e-05
1.80507e-05
1.76761e-05
1.73676e-05
1.7231e-05
1.71665e-05
1.71517e-05
1.71455e-05
1.71367e-05
1.7125e-05
1.71108e-05
1.70942e-05
1.70749e-05
1.70528e-05
1.70277e-05
1.69995e-05
1.6968e-05
1.6933e-05
1.68943e-05
1.68517e-05
1.68049e-05
1.67535e-05
1.66972e-05
1.66355e-05
1.6568e-05
1.6494e-05
1.64132e-05
1.6325e-05
1.62286e-05
1.61234e-05
1.60086e-05
1.58835e-05
1.57474e-05
1.55998e-05
1.64643e-05
1.69827e-05
1.70934e-05
1.72346e-05
1.73527e-05
1.73941e-05
1.73543e-05
1.72826e-05
1.7226e-05
1.71966e-05
1.71846e-05
1.71797e-05
1.71886e-05
1.72551e-05
1.74624e-05
1.78294e-05
1.8128e-05
1.80462e-05
1.76824e-05
1.73749e-05
1.72332e-05
1.7165e-05
1.71498e-05
1.71438e-05
1.7135e-05
1.71232e-05
1.71088e-05
1.70919e-05
1.70725e-05
1.70502e-05
1.70249e-05
1.69964e-05
1.69646e-05
1.69293e-05
1.68904e-05
1.68475e-05
1.68004e-05
1.67488e-05
1.66923e-05
1.66304e-05
1.65626e-05
1.64884e-05
1.64074e-05
1.63189e-05
1.62224e-05
1.6117e-05
1.6002e-05
1.58767e-05
1.57403e-05
1.55922e-05
1.64539e-05
1.69794e-05
1.70928e-05
1.72372e-05
1.73568e-05
1.73981e-05
1.73574e-05
1.72845e-05
1.72268e-05
1.71968e-05
1.71846e-05
1.71797e-05
1.71893e-05
1.72585e-05
1.74684e-05
1.78303e-05
1.81197e-05
1.80423e-05
1.76887e-05
1.73816e-05
1.72348e-05
1.71635e-05
1.71479e-05
1.71419e-05
1.71331e-05
1.71212e-05
1.71067e-05
1.70896e-05
1.70699e-05
1.70473e-05
1.70218e-05
1.6993e-05
1.6961e-05
1.69254e-05
1.68862e-05
1.6843e-05
1.67957e-05
1.67438e-05
1.6687e-05
1.66248e-05
1.65568e-05
1.64824e-05
1.64012e-05
1.63124e-05
1.62156e-05
1.611e-05
1.59948e-05
1.58692e-05
1.57325e-05
1.55841e-05
1.64439e-05
1.69759e-05
1.70922e-05
1.72399e-05
1.7361e-05
1.74022e-05
1.73606e-05
1.72864e-05
1.72276e-05
1.71971e-05
1.71847e-05
1.71797e-05
1.71901e-05
1.7262e-05
1.74742e-05
1.78312e-05
1.81122e-05
1.8039e-05
1.76951e-05
1.73876e-05
1.72357e-05
1.71619e-05
1.7146e-05
1.714e-05
1.71312e-05
1.71192e-05
1.71044e-05
1.70871e-05
1.70672e-05
1.70444e-05
1.70185e-05
1.69895e-05
1.69571e-05
1.69213e-05
1.68817e-05
1.68383e-05
1.67907e-05
1.67385e-05
1.66814e-05
1.66189e-05
1.65506e-05
1.6476e-05
1.63945e-05
1.63055e-05
1.62084e-05
1.61024e-05
1.59869e-05
1.5861e-05
1.57241e-05
1.55754e-05
1.64336e-05
1.69723e-05
1.70915e-05
1.72426e-05
1.73654e-05
1.74064e-05
1.73639e-05
1.72884e-05
1.72285e-05
1.71974e-05
1.71848e-05
1.71798e-05
1.71911e-05
1.72657e-05
1.748e-05
1.78321e-05
1.81055e-05
1.80363e-05
1.77014e-05
1.73936e-05
1.72368e-05
1.71604e-05
1.7144e-05
1.71381e-05
1.71292e-05
1.7117e-05
1.71021e-05
1.70845e-05
1.70643e-05
1.70412e-05
1.70151e-05
1.69857e-05
1.69531e-05
1.69169e-05
1.6877e-05
1.68333e-05
1.67853e-05
1.67328e-05
1.66754e-05
1.66127e-05
1.65441e-05
1.64691e-05
1.63873e-05
1.6298e-05
1.62006e-05
1.60944e-05
1.59786e-05
1.58524e-05
1.57152e-05
1.55661e-05
1.64229e-05
1.69686e-05
1.70909e-05
1.72455e-05
1.73699e-05
1.74108e-05
1.73673e-05
1.72905e-05
1.72294e-05
1.71978e-05
1.71849e-05
1.718e-05
1.71921e-05
1.72694e-05
1.74858e-05
1.78332e-05
1.80995e-05
1.80341e-05
1.77078e-05
1.73997e-05
1.72379e-05
1.7159e-05
1.7142e-05
1.7136e-05
1.71272e-05
1.71148e-05
1.70996e-05
1.70818e-05
1.70613e-05
1.70379e-05
1.70114e-05
1.69818e-05
1.69488e-05
1.69122e-05
1.68721e-05
1.6828e-05
1.67797e-05
1.67268e-05
1.66691e-05
1.6606e-05
1.65371e-05
1.64618e-05
1.63797e-05
1.62901e-05
1.61924e-05
1.60858e-05
1.59697e-05
1.58432e-05
1.57057e-05
1.55563e-05
1.64115e-05
1.69648e-05
1.70902e-05
1.72485e-05
1.73746e-05
1.74154e-05
1.73708e-05
1.72926e-05
1.72304e-05
1.71981e-05
1.71851e-05
1.71802e-05
1.71932e-05
1.72733e-05
1.74915e-05
1.78345e-05
1.80943e-05
1.80325e-05
1.77135e-05
1.74052e-05
1.72392e-05
1.71575e-05
1.71399e-05
1.7134e-05
1.71251e-05
1.71126e-05
1.70971e-05
1.7079e-05
1.70582e-05
1.70345e-05
1.70077e-05
1.69776e-05
1.69442e-05
1.69074e-05
1.68668e-05
1.68223e-05
1.67737e-05
1.67205e-05
1.66624e-05
1.65989e-05
1.65297e-05
1.6454e-05
1.63716e-05
1.62816e-05
1.61836e-05
1.60767e-05
1.59602e-05
1.58334e-05
1.56955e-05
1.5546e-05
1.63994e-05
1.69609e-05
1.70897e-05
1.72517e-05
1.73795e-05
1.742e-05
1.73743e-05
1.72948e-05
1.72314e-05
1.71986e-05
1.71853e-05
1.71804e-05
1.71945e-05
1.72772e-05
1.74973e-05
1.78359e-05
1.80898e-05
1.80314e-05
1.77184e-05
1.74099e-05
1.72406e-05
1.71561e-05
1.71378e-05
1.71319e-05
1.71229e-05
1.71102e-05
1.70945e-05
1.70761e-05
1.70549e-05
1.70308e-05
1.70037e-05
1.69733e-05
1.69395e-05
1.69022e-05
1.68613e-05
1.68164e-05
1.67673e-05
1.67138e-05
1.66553e-05
1.65915e-05
1.65218e-05
1.64458e-05
1.6363e-05
1.62727e-05
1.61743e-05
1.6067e-05
1.59502e-05
1.5823e-05
1.56848e-05
1.55349e-05
1.63866e-05
1.69568e-05
1.70892e-05
1.72551e-05
1.73846e-05
1.74249e-05
1.7378e-05
1.72971e-05
1.72325e-05
1.71991e-05
1.71856e-05
1.71808e-05
1.71958e-05
1.72813e-05
1.75031e-05
1.78375e-05
1.80854e-05
1.80303e-05
1.77235e-05
1.74147e-05
1.72421e-05
1.71548e-05
1.71358e-05
1.71297e-05
1.71207e-05
1.71078e-05
1.70918e-05
1.70731e-05
1.70515e-05
1.70271e-05
1.69995e-05
1.69687e-05
1.69345e-05
1.68968e-05
1.68554e-05
1.68101e-05
1.67607e-05
1.67067e-05
1.66478e-05
1.65835e-05
1.65135e-05
1.64371e-05
1.63539e-05
1.62632e-05
1.61644e-05
1.60568e-05
1.59396e-05
1.5812e-05
1.56735e-05
1.55233e-05
1.63731e-05
1.69527e-05
1.70888e-05
1.72588e-05
1.739e-05
1.743e-05
1.73819e-05
1.72994e-05
1.72337e-05
1.71996e-05
1.7186e-05
1.71812e-05
1.71973e-05
1.72855e-05
1.7509e-05
1.78394e-05
1.80811e-05
1.80289e-05
1.77284e-05
1.74197e-05
1.72438e-05
1.71535e-05
1.71337e-05
1.71276e-05
1.71185e-05
1.71054e-05
1.7089e-05
1.70699e-05
1.7048e-05
1.70231e-05
1.69952e-05
1.69639e-05
1.69293e-05
1.68911e-05
1.68493e-05
1.68036e-05
1.67536e-05
1.66992e-05
1.66399e-05
1.65752e-05
1.65047e-05
1.64279e-05
1.63443e-05
1.62532e-05
1.61539e-05
1.60459e-05
1.59283e-05
1.58004e-05
1.56615e-05
1.55109e-05
1.63588e-05
1.69486e-05
1.70887e-05
1.72628e-05
1.73956e-05
1.74352e-05
1.73858e-05
1.73019e-05
1.72349e-05
1.72002e-05
1.71864e-05
1.71817e-05
1.71989e-05
1.72899e-05
1.75149e-05
1.78414e-05
1.80774e-05
1.80268e-05
1.77324e-05
1.74248e-05
1.72456e-05
1.71523e-05
1.71316e-05
1.71254e-05
1.71162e-05
1.71029e-05
1.70862e-05
1.70667e-05
1.70444e-05
1.70191e-05
1.69906e-05
1.69589e-05
1.69238e-05
1.68852e-05
1.68429e-05
1.67966e-05
1.67462e-05
1.66913e-05
1.66315e-05
1.65664e-05
1.64955e-05
1.64182e-05
1.63341e-05
1.62426e-05
1.61429e-05
1.60345e-05
1.59164e-05
1.57881e-05
1.56488e-05
1.54979e-05
1.63437e-05
1.69444e-05
1.70887e-05
1.7267e-05
1.74016e-05
1.74407e-05
1.73899e-05
1.73044e-05
1.72363e-05
1.72009e-05
1.71869e-05
1.71823e-05
1.72007e-05
1.72944e-05
1.75209e-05
1.78436e-05
1.80743e-05
1.80254e-05
1.77367e-05
1.74302e-05
1.72477e-05
1.71512e-05
1.71295e-05
1.71231e-05
1.71139e-05
1.71003e-05
1.70833e-05
1.70634e-05
1.70406e-05
1.70148e-05
1.69859e-05
1.69537e-05
1.69181e-05
1.68789e-05
1.68361e-05
1.67894e-05
1.67385e-05
1.6683e-05
1.66227e-05
1.65571e-05
1.64857e-05
1.6408e-05
1.63234e-05
1.62314e-05
1.61313e-05
1.60223e-05
1.59039e-05
1.57751e-05
1.56354e-05
1.54842e-05
1.63278e-05
1.69402e-05
1.7089e-05
1.72716e-05
1.74079e-05
1.74464e-05
1.73942e-05
1.73071e-05
1.72377e-05
1.72017e-05
1.71874e-05
1.7183e-05
1.72026e-05
1.72991e-05
1.75269e-05
1.7846e-05
1.80718e-05
1.80245e-05
1.77415e-05
1.74359e-05
1.72499e-05
1.71501e-05
1.71274e-05
1.71209e-05
1.71115e-05
1.70977e-05
1.70803e-05
1.70599e-05
1.70367e-05
1.70104e-05
1.6981e-05
1.69482e-05
1.69121e-05
1.68724e-05
1.6829e-05
1.67818e-05
1.67303e-05
1.66743e-05
1.66135e-05
1.65473e-05
1.64754e-05
1.63972e-05
1.63121e-05
1.62196e-05
1.6119e-05
1.60096e-05
1.58906e-05
1.57614e-05
1.56213e-05
1.54697e-05
1.63111e-05
1.69361e-05
1.70896e-05
1.72767e-05
1.74145e-05
1.74524e-05
1.73986e-05
1.73099e-05
1.72392e-05
1.72026e-05
1.71881e-05
1.71839e-05
1.72047e-05
1.73039e-05
1.7533e-05
1.78484e-05
1.80698e-05
1.80243e-05
1.77466e-05
1.74419e-05
1.72524e-05
1.71491e-05
1.71253e-05
1.71186e-05
1.71092e-05
1.70951e-05
1.70772e-05
1.70564e-05
1.70326e-05
1.70059e-05
1.69759e-05
1.69426e-05
1.69058e-05
1.68656e-05
1.68216e-05
1.67737e-05
1.67217e-05
1.66652e-05
1.66038e-05
1.6537e-05
1.64645e-05
1.63858e-05
1.63001e-05
1.62071e-05
1.6106e-05
1.59961e-05
1.58766e-05
1.57469e-05
1.56064e-05
1.54545e-05
1.62935e-05
1.69321e-05
1.70906e-05
1.72821e-05
1.74216e-05
1.74587e-05
1.74033e-05
1.73129e-05
1.72409e-05
1.72035e-05
1.71888e-05
1.71848e-05
1.72071e-05
1.7309e-05
1.75391e-05
1.7851e-05
1.80682e-05
1.80246e-05
1.7752e-05
1.74482e-05
1.72552e-05
1.71483e-05
1.71232e-05
1.71163e-05
1.71068e-05
1.70924e-05
1.70741e-05
1.70528e-05
1.70285e-05
1.70011e-05
1.69706e-05
1.69367e-05
1.68993e-05
1.68584e-05
1.68138e-05
1.67654e-05
1.67127e-05
1.66555e-05
1.65935e-05
1.65262e-05
1.64531e-05
1.63737e-05
1.62875e-05
1.61939e-05
1.60922e-05
1.59818e-05
1.58618e-05
1.57316e-05
1.55907e-05
1.54384e-05
1.62749e-05
1.69283e-05
1.70919e-05
1.7288e-05
1.7429e-05
1.74653e-05
1.74082e-05
1.7316e-05
1.72426e-05
1.72046e-05
1.71897e-05
1.71859e-05
1.72097e-05
1.73143e-05
1.75453e-05
1.78536e-05
1.80671e-05
1.80254e-05
1.77579e-05
1.74548e-05
1.72582e-05
1.71475e-05
1.71211e-05
1.71139e-05
1.71043e-05
1.70897e-05
1.7071e-05
1.70491e-05
1.70242e-05
1.69962e-05
1.6965e-05
1.69305e-05
1.68925e-05
1.6851e-05
1.68057e-05
1.67566e-05
1.67032e-05
1.66454e-05
1.65828e-05
1.65148e-05
1.64411e-05
1.63611e-05
1.62743e-05
1.618e-05
1.60778e-05
1.59667e-05
1.58462e-05
1.57155e-05
1.55741e-05
1.54214e-05
1.62553e-05
1.69248e-05
1.70938e-05
1.72943e-05
1.74368e-05
1.74722e-05
1.74133e-05
1.73193e-05
1.72445e-05
1.72058e-05
1.71906e-05
1.71873e-05
1.72125e-05
1.73198e-05
1.75515e-05
1.78563e-05
1.80663e-05
1.80267e-05
1.77641e-05
1.74619e-05
1.72616e-05
1.71469e-05
1.7119e-05
1.71116e-05
1.71019e-05
1.70869e-05
1.70677e-05
1.70453e-05
1.70198e-05
1.69912e-05
1.69593e-05
1.69241e-05
1.68854e-05
1.68432e-05
1.67972e-05
1.67473e-05
1.66933e-05
1.66348e-05
1.65714e-05
1.65028e-05
1.64284e-05
1.63477e-05
1.62602e-05
1.61654e-05
1.60624e-05
1.59508e-05
1.58297e-05
1.56984e-05
1.55565e-05
1.54034e-05
1.62345e-05
1.69217e-05
1.70961e-05
1.73012e-05
1.7445e-05
1.74794e-05
1.74188e-05
1.73228e-05
1.72466e-05
1.7207e-05
1.71917e-05
1.71887e-05
1.72156e-05
1.73256e-05
1.75578e-05
1.78591e-05
1.8066e-05
1.80284e-05
1.77707e-05
1.74692e-05
1.72653e-05
1.71464e-05
1.7117e-05
1.71092e-05
1.70994e-05
1.70841e-05
1.70644e-05
1.70414e-05
1.70152e-05
1.69859e-05
1.69534e-05
1.69174e-05
1.6878e-05
1.6835e-05
1.67883e-05
1.67377e-05
1.66829e-05
1.66236e-05
1.65595e-05
1.64901e-05
1.6415e-05
1.63336e-05
1.62454e-05
1.61499e-05
1.60463e-05
1.59339e-05
1.58122e-05
1.56803e-05
1.55379e-05
1.53843e-05
1.62125e-05
1.69189e-05
1.7099e-05
1.73086e-05
1.74538e-05
1.74871e-05
1.74244e-05
1.73266e-05
1.72487e-05
1.72084e-05
1.71929e-05
1.71904e-05
1.72191e-05
1.73317e-05
1.75643e-05
1.78621e-05
1.80661e-05
1.80306e-05
1.77776e-05
1.7477e-05
1.72695e-05
1.71462e-05
1.7115e-05
1.71067e-05
1.70968e-05
1.70813e-05
1.70611e-05
1.70374e-05
1.70105e-05
1.69805e-05
1.69472e-05
1.69105e-05
1.68703e-05
1.68265e-05
1.6779e-05
1.67275e-05
1.6672e-05
1.66119e-05
1.6547e-05
1.64769e-05
1.6401e-05
1.63188e-05
1.62299e-05
1.61335e-05
1.60292e-05
1.59161e-05
1.57937e-05
1.56612e-05
1.55182e-05
1.53642e-05
1.61892e-05
1.69167e-05
1.71025e-05
1.73165e-05
1.7463e-05
1.74951e-05
1.74304e-05
1.73304e-05
1.7251e-05
1.72098e-05
1.71942e-05
1.71923e-05
1.72228e-05
1.7338e-05
1.75709e-05
1.78654e-05
1.80667e-05
1.80332e-05
1.77848e-05
1.74852e-05
1.72741e-05
1.71463e-05
1.71131e-05
1.71043e-05
1.70943e-05
1.70785e-05
1.70577e-05
1.70333e-05
1.70057e-05
1.69749e-05
1.69408e-05
1.69032e-05
1.68622e-05
1.68176e-05
1.67692e-05
1.67169e-05
1.66605e-05
1.65996e-05
1.65339e-05
1.64629e-05
1.63861e-05
1.63032e-05
1.62134e-05
1.61163e-05
1.60111e-05
1.58973e-05
1.57741e-05
1.5641e-05
1.54973e-05
1.53428e-05
1.61645e-05
1.69151e-05
1.71066e-05
1.73251e-05
1.74727e-05
1.75035e-05
1.74366e-05
1.73345e-05
1.72534e-05
1.72113e-05
1.71956e-05
1.71944e-05
1.72268e-05
1.73446e-05
1.75777e-05
1.7869e-05
1.80677e-05
1.80363e-05
1.77923e-05
1.74938e-05
1.72792e-05
1.71468e-05
1.71115e-05
1.7102e-05
1.70917e-05
1.70756e-05
1.70542e-05
1.70291e-05
1.70007e-05
1.69691e-05
1.69341e-05
1.68957e-05
1.68538e-05
1.68083e-05
1.6759e-05
1.67058e-05
1.66485e-05
1.65867e-05
1.652e-05
1.64482e-05
1.63706e-05
1.62867e-05
1.61961e-05
1.60981e-05
1.59921e-05
1.58775e-05
1.57535e-05
1.56196e-05
1.54753e-05
1.53202e-05
1.61385e-05
1.69141e-05
1.71114e-05
1.73342e-05
1.74828e-05
1.75122e-05
1.7443e-05
1.73387e-05
1.72559e-05
1.7213e-05
1.71971e-05
1.71967e-05
1.72311e-05
1.73514e-05
1.75848e-05
1.78731e-05
1.80694e-05
1.80398e-05
1.78002e-05
1.75028e-05
1.72848e-05
1.71478e-05
1.71101e-05
1.70997e-05
1.70892e-05
1.70727e-05
1.70507e-05
1.70248e-05
1.69956e-05
1.69631e-05
1.69272e-05
1.68879e-05
1.6845e-05
1.67986e-05
1.67483e-05
1.66942e-05
1.66359e-05
1.65731e-05
1.65055e-05
1.64327e-05
1.63542e-05
1.62694e-05
1.61779e-05
1.6079e-05
1.59721e-05
1.58566e-05
1.57318e-05
1.55971e-05
1.5452e-05
1.52964e-05
1.6111e-05
1.69139e-05
1.7117e-05
1.73438e-05
1.74933e-05
1.75212e-05
1.74496e-05
1.7343e-05
1.72585e-05
1.72146e-05
1.71987e-05
1.71992e-05
1.72356e-05
1.73585e-05
1.75921e-05
1.78776e-05
1.80717e-05
1.80439e-05
1.78084e-05
1.75122e-05
1.7291e-05
1.71492e-05
1.71089e-05
1.70976e-05
1.70867e-05
1.70698e-05
1.70472e-05
1.70205e-05
1.69903e-05
1.69569e-05
1.69201e-05
1.68798e-05
1.68359e-05
1.67884e-05
1.67372e-05
1.6682e-05
1.66227e-05
1.65589e-05
1.64903e-05
1.64165e-05
1.63369e-05
1.62512e-05
1.61587e-05
1.60588e-05
1.5951e-05
1.58345e-05
1.57088e-05
1.55733e-05
1.54275e-05
1.52712e-05
1.6082e-05
1.69146e-05
1.71233e-05
1.7354e-05
1.75043e-05
1.75305e-05
1.74564e-05
1.73473e-05
1.72611e-05
1.72164e-05
1.72004e-05
1.72018e-05
1.72405e-05
1.73659e-05
1.75998e-05
1.78826e-05
1.80746e-05
1.80486e-05
1.78171e-05
1.75221e-05
1.72978e-05
1.71511e-05
1.71081e-05
1.70956e-05
1.70843e-05
1.70669e-05
1.70436e-05
1.7016e-05
1.69849e-05
1.69505e-05
1.69127e-05
1.68713e-05
1.68264e-05
1.67779e-05
1.67255e-05
1.66693e-05
1.66088e-05
1.6544e-05
1.64743e-05
1.63994e-05
1.63188e-05
1.6232e-05
1.61385e-05
1.60376e-05
1.59287e-05
1.58113e-05
1.56847e-05
1.55483e-05
1.54017e-05
1.52448e-05
1.60514e-05
1.69161e-05
1.71302e-05
1.73646e-05
1.75155e-05
1.75399e-05
1.74632e-05
1.73517e-05
1.72637e-05
1.72181e-05
1.72022e-05
1.72047e-05
1.72455e-05
1.73736e-05
1.76079e-05
1.78882e-05
1.80781e-05
1.80538e-05
1.78261e-05
1.75324e-05
1.73052e-05
1.71536e-05
1.71077e-05
1.70938e-05
1.70819e-05
1.7064e-05
1.70401e-05
1.70115e-05
1.69794e-05
1.69439e-05
1.6905e-05
1.68626e-05
1.68165e-05
1.67668e-05
1.67133e-05
1.66559e-05
1.65944e-05
1.65283e-05
1.64575e-05
1.63815e-05
1.62998e-05
1.62119e-05
1.61172e-05
1.60152e-05
1.59054e-05
1.57869e-05
1.56593e-05
1.55219e-05
1.53745e-05
1.52168e-05
1.60192e-05
1.69185e-05
1.71379e-05
1.73756e-05
1.75269e-05
1.75495e-05
1.747e-05
1.73561e-05
1.72663e-05
1.72199e-05
1.72041e-05
1.72077e-05
1.72509e-05
1.73815e-05
1.76163e-05
1.78943e-05
1.80824e-05
1.80597e-05
1.78357e-05
1.75432e-05
1.73131e-05
1.71566e-05
1.71076e-05
1.70923e-05
1.70797e-05
1.70612e-05
1.70364e-05
1.7007e-05
1.69738e-05
1.69372e-05
1.68971e-05
1.68535e-05
1.68063e-05
1.67553e-05
1.67006e-05
1.6642e-05
1.65792e-05
1.65119e-05
1.64399e-05
1.63627e-05
1.62798e-05
1.61907e-05
1.60949e-05
1.59917e-05
1.58807e-05
1.57612e-05
1.56325e-05
1.54942e-05
1.53459e-05
1.51874e-05
1.59853e-05
1.69217e-05
1.71461e-05
1.7387e-05
1.75386e-05
1.75591e-05
1.74769e-05
1.73604e-05
1.72689e-05
1.72217e-05
1.7206e-05
1.72109e-05
1.72566e-05
1.73898e-05
1.76252e-05
1.79011e-05
1.80873e-05
1.80662e-05
1.78458e-05
1.75545e-05
1.73216e-05
1.71601e-05
1.71079e-05
1.70909e-05
1.70775e-05
1.70584e-05
1.70328e-05
1.70023e-05
1.6968e-05
1.69302e-05
1.68889e-05
1.6844e-05
1.67955e-05
1.67433e-05
1.66873e-05
1.66274e-05
1.65633e-05
1.64948e-05
1.64214e-05
1.63429e-05
1.62587e-05
1.61684e-05
1.60713e-05
1.5967e-05
1.58548e-05
1.57341e-05
1.56044e-05
1.5465e-05
1.53157e-05
1.51564e-05
1.59495e-05
1.69257e-05
1.71549e-05
1.73986e-05
1.75503e-05
1.75688e-05
1.74837e-05
1.73646e-05
1.72714e-05
1.72234e-05
1.7208e-05
1.72143e-05
1.72625e-05
1.73984e-05
1.76345e-05
1.79085e-05
1.80929e-05
1.80734e-05
1.78564e-05
1.75664e-05
1.73308e-05
1.71641e-05
1.71087e-05
1.70898e-05
1.70755e-05
1.70557e-05
1.70292e-05
1.69976e-05
1.69621e-05
1.6923e-05
1.68804e-05
1.68343e-05
1.67844e-05
1.67308e-05
1.66735e-05
1.66121e-05
1.65466e-05
1.64767e-05
1.6402e-05
1.63222e-05
1.62366e-05
1.6145e-05
1.60466e-05
1.5941e-05
1.58275e-05
1.57056e-05
1.55747e-05
1.54342e-05
1.52838e-05
1.51237e-05
1.59118e-05
1.69304e-05
1.7164e-05
1.74103e-05
1.7562e-05
1.75784e-05
1.74904e-05
1.73687e-05
1.72738e-05
1.72251e-05
1.721e-05
1.72178e-05
1.72688e-05
1.74073e-05
1.76443e-05
1.79166e-05
1.80994e-05
1.80813e-05
1.78677e-05
1.75788e-05
1.73406e-05
1.71688e-05
1.71098e-05
1.70889e-05
1.70736e-05
1.7053e-05
1.70256e-05
1.69929e-05
1.69561e-05
1.69157e-05
1.68717e-05
1.68241e-05
1.67728e-05
1.67178e-05
1.6659e-05
1.65962e-05
1.65292e-05
1.64579e-05
1.63817e-05
1.63004e-05
1.62134e-05
1.61204e-05
1.60206e-05
1.59136e-05
1.57988e-05
1.56756e-05
1.55434e-05
1.54017e-05
1.52503e-05
1.50892e-05
1.5872e-05
1.69356e-05
1.71735e-05
1.74221e-05
1.75738e-05
1.7588e-05
1.74969e-05
1.73726e-05
1.7276e-05
1.72267e-05
1.72121e-05
1.72216e-05
1.72753e-05
1.74166e-05
1.76547e-05
1.79255e-05
1.81066e-05
1.809e-05
1.78796e-05
1.75919e-05
1.7351e-05
1.7174e-05
1.71114e-05
1.70883e-05
1.70718e-05
1.70503e-05
1.7022e-05
1.69881e-05
1.69499e-05
1.69081e-05
1.68627e-05
1.68136e-05
1.67608e-05
1.67042e-05
1.66439e-05
1.65795e-05
1.6511e-05
1.64381e-05
1.63604e-05
1.62775e-05
1.61891e-05
1.60945e-05
1.59933e-05
1.58848e-05
1.57686e-05
1.5644e-05
1.55104e-05
1.53675e-05
1.52149e-05
1.50528e-05
1.583e-05
1.69411e-05
1.71831e-05
1.74339e-05
1.75854e-05
1.75973e-05
1.75032e-05
1.73762e-05
1.7278e-05
1.72282e-05
1.72141e-05
1.72254e-05
1.72822e-05
1.74263e-05
1.76658e-05
1.79353e-05
1.81147e-05
1.80995e-05
1.78922e-05
1.76057e-05
1.73622e-05
1.71798e-05
1.71134e-05
1.7088e-05
1.70702e-05
1.70478e-05
1.70184e-05
1.69832e-05
1.69436e-05
1.69003e-05
1.68533e-05
1.68027e-05
1.67483e-05
1.66901e-05
1.66281e-05
1.65621e-05
1.64919e-05
1.64174e-05
1.6338e-05
1.62536e-05
1.61635e-05
1.60673e-05
1.59645e-05
1.58546e-05
1.57368e-05
1.56108e-05
1.54758e-05
1.53315e-05
1.51776e-05
1.50145e-05
1.57858e-05
1.69469e-05
1.71927e-05
1.74457e-05
1.75969e-05
1.76065e-05
1.75091e-05
1.73795e-05
1.72797e-05
1.72294e-05
1.72161e-05
1.72294e-05
1.72892e-05
1.74364e-05
1.76775e-05
1.79461e-05