/*--------------------------------*- C++ -*----------------------------------*\
  =========                 |
  \\      /  F ield         | OpenFOAM: The Open Source CFD Toolbox
   \\    /   O peration     | Website:  https://openfoam.org
    \\  /    A nd           | Version:  9
     \\/     M anipulation  |
\*---------------------------------------------------------------------------*/
FoamFile
{
    format      ascii;
    class       surfaceVectorField;
    location    "0.19";
    object      Uf;
}
// * * * * * * * * * * * * * * * * * * * * * * * * * * * * * * * * * * * * * //

dimensions      [0 1 -1 0 0 0 0];

internalField   nonuniform List<vector> 
9850
(
(-0.00138634 0 0.293369)
(-0.00238749 0 0.319866)
(-0.00138181 0 0.232363)
(-0.00256704 0 0.266688)
(-0.000978648 0 0.164855)
(-0.00215171 0 0.197575)
(-0.000403115 0 0.118113)
(-0.00128228 0 0.131518)
(5.5959e-05 0 0.114484)
(-0.000393806 0 0.104136)
(0.00033968 0 0.143017)
(0.000257662 0 0.124376)
(0.000387563 0 0.175469)
(0.000582269 0 0.161319)
(0.000293007 0 0.197106)
(0.000582812 0 0.189387)
(0.000189694 0 0.208479)
(0.000445125 0 0.204625)
(0.000117854 0 0.214195)
(0.000324537 0 0.212112)
(3.98384e-05 0 0.216094)
(0.000242398 0 0.216053)
(-8.03494e-05 0 0.208764)
(0.000178022 0 0.215954)
(0.000169843 0 0.163819)
(0.000323089 0 0.201273)
(0.00310609 0 -0.0137349)
(0.00150754 0 0.124656)
(0.0106664 0 -0.400825)
(0.0128352 0 -0.15744)
(-0.00489951 0 -0.556158)
(0.0066843 0 -0.640497)
(-0.00783816 0 -0.240654)
(-0.0138588 0 -0.462955)
(-0.00143197 0 0.0723358)
(-0.00684408 0 -0.0201665)
(-2.05803e-06 0 0.181455)
(-0.000695909 0 0.160962)
(-2.5985e-05 0 0.202798)
(-0.000262948 0 0.201129)
(-0.000114611 0 0.201585)
(-0.000243617 0 0.204051)
(-0.000146407 0 0.196064)
(-0.000277378 0 0.199102)
(-0.000149624 0 0.190044)
(-0.000277294 0 0.192986)
(-0.000144888 0 0.184256)
(-0.000263776 0 0.187042)
(-0.000139539 0 0.178732)
(-0.000248572 0 0.181405)
(-0.000135057 0 0.173411)
(-0.000235654 0 0.175996)
(-0.000131447 0 0.16827)
(-0.000225477 0 0.170769)
(-0.000128763 0 0.163306)
(-0.000217873 0 0.165721)
(-0.000127296 0 0.158503)
(-0.000212938 0 0.160847)
(-0.000127399 0 0.153822)
(-0.000210985 0 0.156122)
(-0.000129322 0 0.149206)
(-0.0002123 0 0.151496)
(-0.000133135 0 0.144584)
(-0.000216965 0 0.146901)
(-0.000138722 0 0.139884)
(-0.000224797 0 0.142264)
(-0.000145815 0 0.135036)
(-0.000235369 0 0.137514)
(-0.000154042 0 0.129982)
(-0.000248068 0 0.132584)
(-0.000162973 0 0.124673)
(-0.000262163 0 0.127421)
(-0.000172157 0 0.119069)
(-0.000276873 0 0.121981)
(-0.000181145 0 0.113139)
(-0.000291402 0 0.116229)
(-0.000189478 0 0.106854)
(-0.000304953 0 0.110136)
(-0.000196664 0 0.100186)
(-0.000316707 0 0.103674)
(-0.000202122 0 0.0930995)
(-0.000325777 0 0.0968121)
(-0.000205138 0 0.0855516)
(-0.000331167 0 0.0895118)
(-0.000204898 0 0.077491)
(-0.000331798 0 0.0817243)
(-0.000200665 0 0.068869)
(-0.000326697 0 0.0733958)
(-0.000192153 0 0.0596594)
(-0.000315439 0 0.064483)
(-0.000179807 0 0.049878)
(-0.000298704 0 0.0549782)
(-0.000163808 0 0.039542)
(-0.000277734 0 0.0449196)
(-0.000140765 0 0.0284526)
(-0.000250185 0 0.0342919)
(-0.000102595 0 0.0157876)
(-0.000205474 0 0.0226946)
(-0.000133027 0 0.00893625)
(-0.00368055 0 0.293016)
(-0.00451868 0 0.320198)
(-0.00346944 0 0.231824)
(-0.00470535 0 0.266547)
(-0.00248209 0 0.164239)
(-0.0038757 0 0.196917)
(-0.00121675 0 0.117565)
(-0.00237413 0 0.130674)
(-0.00015755 0 0.11402)
(-0.000898948 0 0.10343)
(0.00057442 0 0.142618)
(0.000231943 0 0.123888)
(0.000836511 0 0.175139)
(0.000883231 0 0.161144)
(0.000748584 0 0.196804)
(0.000988718 0 0.189445)
(0.000570779 0 0.208167)
(0.000828385 0 0.204743)
(0.000435638 0 0.213877)
(0.000673667 0 0.212202)
(0.000349321 0 0.215784)
(0.000598294 0 0.21611)
(0.000428242 0 0.208261)
(0.00062413 0 0.215901)
(0.00186066 0 0.162112)
(0.00125984 0 0.200318)
(0.00813737 0 -0.0178752)
(0.00285385 0 0.120472)
(0.0178056 0 -0.397929)
(0.0202045 0 -0.163885)
(-0.00745979 0 -0.549305)
(0.0104346 0 -0.623653)
(-0.0148815 0 -0.241928)
(-0.0213528 0 -0.458007)
(-0.00475603 0 0.0691128)
(-0.0110096 0 -0.0269168)
(-0.000965032 0 0.180501)
(-0.00176368 0 0.158435)
(-0.00040018 0 0.202515)
(-0.000884985 0 0.200752)
(-0.000395522 0 0.201351)
(-0.00059931 0 0.204048)
(-0.000405023 0 0.195813)
(-0.000559088 0 0.199111)
(-0.000389885 0 0.189789)
(-0.000512228 0 0.192973)
(-0.000365947 0 0.184008)
(-0.000466137 0 0.18702)
(-0.000343293 0 0.178494)
(-0.000426329 0 0.181383)
(-0.00032485 0 0.173187)
(-0.000394681 0 0.175977)
(-0.000310801 0 0.16806)
(-0.000370467 0 0.170754)
(-0.000301013 0 0.163109)
(-0.000352757 0 0.16571)
(-0.000295646 0 0.158319)
(-0.000341194 0 0.160841)
(-0.000294988 0 0.153652)
(-0.00033583 0 0.156121)
(-0.000299172 0 0.14905)
(-0.00033674 0 0.151501)
(-0.000308027 0 0.144441)
(-0.000343737 0 0.146913)
(-0.000321046 0 0.139753)
(-0.000356268 0 0.142283)
(-0.000337441 0 0.134918)
(-0.000373433 0 0.137539)
(-0.000356227 0 0.129875)
(-0.000394069 0 0.132614)
(-0.00037631 0 0.124576)
(-0.000416851 0 0.127455)
(-0.000396556 0 0.118982)
(-0.00044039 0 0.122017)
(-0.000415821 0 0.11306)
(-0.000463291 0 0.116265)
(-0.000432951 0 0.106782)
(-0.00048418 0 0.110169)
(-0.000446731 0 0.100118)
(-0.000501685 0 0.103702)
(-0.000455852 0 0.093033)
(-0.000514388 0 0.0968314)
(-0.000458925 0 0.0854833)
(-0.000520803 0 0.0895186)
(-0.00045467 0 0.0774173)
(-0.000519461 0 0.0817143)
(-0.000442348 0 0.0687873)
(-0.000509193 0 0.0733656)
(-0.000422387 0 0.0595692)
(-0.000489748 0 0.0644317)
(-0.000396475 0 0.0497779)
(-0.000462645 0 0.0549083)
(-0.000364966 0 0.0394167)
(-0.000430493 0 0.0448305)
(-0.000320989 0 0.0282588)
(-0.000390958 0 0.0341614)
(-0.000252715 0 0.0155157)
(-0.000332314 0 0.0224822)
(-0.000253307 0 0.00870245)
(-0.00576096 0 0.293151)
(-0.00629656 0 0.320415)
(-0.00521928 0 0.231348)
(-0.00657956 0 0.266186)
(-0.00376263 0 0.163325)
(-0.00535153 0 0.195946)
(-0.00199485 0 0.116611)
(-0.00333213 0 0.129496)
(-0.000491133 0 0.113285)
(-0.00141591 0 0.102428)
(0.000610397 0 0.142221)
(9.6735e-05 0 0.123153)
(0.00109815 0 0.175097)
(0.00104812 0 0.160819)
(0.00108944 0 0.196956)
(0.00128601 0 0.189451)
(0.000922649 0 0.20834)
(0.00115269 0 0.204854)
(0.000810465 0 0.214005)
(0.00101274 0 0.212277)
(0.000822251 0 0.215816)
(0.000984183 0 0.216103)
(0.00113439 0 0.207701)
(0.00108678 0 0.215693)
(0.00315013 0 0.159038)
(0.00213857 0 0.198974)
(0.0112103 0 -0.0243131)
(0.00369703 0 0.115098)
(0.0214316 0 -0.391297)
(0.0244592 0 -0.1707)
(-0.00841576 0 -0.535618)
(0.0126643 0 -0.603755)
(-0.0185807 0 -0.242916)
(-0.0252283 0 -0.45123)
(-0.00688257 0 0.0634612)
(-0.0135184 0 -0.0347155)
(-0.00189247 0 0.178774)
(-0.00256635 0 0.155108)
(-0.000900945 0 0.202329)
(-0.00144288 0 0.200091)
(-0.000733506 0 0.201372)
(-0.000934532 0 0.203911)
(-0.000650045 0 0.195834)
(-0.000810234 0 0.199039)
(-0.000580709 0 0.189798)
(-0.000696239 0 0.192911)
(-0.000521909 0 0.184014)
(-0.000604121 0 0.186964)
(-0.000474493 0 0.178504)
(-0.000532001 0 0.181336)
(-0.000437796 0 0.1732)
(-0.000476983 0 0.175939)
(-0.000410382 0 0.168077)
(-0.00043564 0 0.170724)
(-0.000391232 0 0.163131)
(-0.000405497 0 0.165688)
(-0.000379958 0 0.158347)
(-0.000385294 0 0.160827)
(-0.000376445 0 0.153686)
(-0.000374536 0 0.156117)
(-0.000380461 0 0.149091)
(-0.000372886 0 0.151506)
(-0.000391436 0 0.144489)
(-0.000379759 0 0.146928)
(-0.000408415 0 0.139808)
(-0.000394174 0 0.142308)
(-0.00043011 0 0.134978)
(-0.00041476 0 0.137571)
(-0.000455008 0 0.12994)
(-0.000439855 0 0.132654)
(-0.000481478 0 0.124643)
(-0.000467636 0 0.127499)
(-0.000507861 0 0.119049)
(-0.000496226 0 0.122063)
(-0.000532527 0 0.113124)
(-0.000523782 0 0.11631)
(-0.000553882 0 0.106839)
(-0.000548534 0 0.11021)
(-0.000570341 0 0.100166)
(-0.000568766 0 0.103735)
(-0.0005803 0 0.0930667)
(-0.000582773 0 0.0968525)
(-0.000582172 0 0.0854979)
(-0.000588841 0 0.0895228)
(-0.000574598 0 0.0774083)
(-0.000585348 0 0.0816966)
(-0.000556927 0 0.0687521)
(-0.000571083 0 0.0733223)
(-0.000529884 0 0.0595087)
(-0.00054589 0 0.0643622)
(-0.000495638 0 0.0496939)
(-0.000511639 0 0.054816)
(-0.000455456 0 0.0393003)
(-0.000472087 0 0.0447169)
(-0.000406143 0 0.0280901)
(-0.000427428 0 0.0340152)
(-0.000346921 0 0.0153296)
(-0.000371889 0 0.0222979)
(-0.000317906 0 0.00857039)
(-0.00756815 0 0.293272)
(-0.00768576 0 0.320657)
(-0.00677465 0 0.230687)
(-0.00820918 0 0.265657)
(-0.00490793 0 0.162114)
(-0.00663484 0 0.194702)
(-0.00270106 0 0.11535)
(-0.00418384 0 0.128024)
(-0.000815527 0 0.112302)
(-0.00189763 0 0.101171)
(0.000595181 0 0.141683)
(-6.30178e-05 0 0.122213)
(0.00128231 0 0.175036)
(0.00114209 0 0.160361)
(0.00136091 0 0.197175)
(0.00150549 0 0.189399)
(0.00123145 0 0.208606)
(0.00141803 0 0.204941)
(0.00116557 0 0.214197)
(0.00131229 0 0.212321)
(0.00125938 0 0.215841)
(0.00133291 0 0.21604)
(0.00167018 0 0.206956)
(0.00144496 0 0.215419)
(0.0039181 0 0.15526)
(0.00277843 0 0.197475)
(0.0131384 0 -0.0310946)
(0.00434518 0 0.108951)
(0.0232567 0 -0.383689)
(0.0265492 0 -0.177445)
(-0.00850714 0 -0.520215)
(0.0136719 0 -0.582579)
(-0.0205871 0 -0.243192)
(-0.0265606 0 -0.443177)
(-0.00822088 0 0.0571996)
(-0.0149309 0 -0.0429597)
(-0.00245386 0 0.176559)
(-0.0031329 0 0.151263)
(-0.00126639 0 0.202015)
(-0.00179424 0 0.1993)
(-0.00100534 0 0.20136)
(-0.00114915 0 0.203698)
(-0.000838834 0 0.195857)
(-0.000973451 0 0.198897)
(-0.000708524 0 0.189827)
(-0.000798803 0 0.192794)
(-0.000607262 0 0.184051)
(-0.000660743 0 0.186869)
(-0.000529867 0 0.178548)
(-0.000554823 0 0.18126)
(-0.000471527 0 0.17325)
(-0.000474601 0 0.175878)
(-0.00042827 0 0.168132)
(-0.000414351 0 0.170677)
(-0.000397624 0 0.163191)
(-0.000370051 0 0.165653)
(-0.000378375 0 0.158412)
(-0.000339455 0 0.160804)
(-0.000369874 0 0.153759)
(-0.000321453 0 0.156106)
(-0.000371451 0 0.14917)
(-0.000315243 0 0.151509)
(-0.000382113 0 0.144576)
(-0.000319818 0 0.146943)
(-0.000400455 0 0.139902)
(-0.000333765 0 0.142334)
(-0.000424727 0 0.135077)
(-0.000355274 0 0.137608)
(-0.000452944 0 0.130041)
(-0.000382245 0 0.132699)
(-0.000483028 0 0.124744)
(-0.000412426 0 0.127549)
(-0.000512911 0 0.119146)
(-0.00044355 0 0.122116)
(-0.000540604 0 0.113214)
(-0.000473426 0 0.116361)
(-0.000564215 0 0.106919)
(-0.000499988 0 0.110256)
(-0.000581911 0 0.100229)
(-0.000521279 0 0.103771)
(-0.00059188 0 0.0931099)
(-0.000535397 0 0.0968737)
(-0.000592371 0 0.0855153)
(-0.000540475 0 0.0895238)
(-0.000581924 0 0.0773954)
(-0.000534809 0 0.0816722)
(-0.000559922 0 0.0687068)
(-0.000517233 0 0.0732684)
(-0.000527359 0 0.0594332)
(-0.000487781 0 0.0642785)
(-0.000487021 0 0.0495925)
(-0.00044857 0 0.0547073)
(-0.000441759 0 0.0391736)
(-0.000404052 0 0.0445889)
(-0.000392872 0 0.027943)
(-0.000357196 0 0.0338701)
(-0.000346502 0 0.0152118)
(-0.000308013 0 0.0221536)
(-0.000271357 0 0.00849914)
(-0.00900744 0 0.293157)
(-0.0087354 0 0.320971)
(-0.0080765 0 0.229739)
(-0.00956822 0 0.265037)
(-0.00590544 0 0.160637)
(-0.00771857 0 0.193254)
(-0.00334187 0 0.113857)
(-0.0049429 0 0.126315)
(-0.0011324 0 0.111101)
(-0.00234889 0 0.0996978)
(0.000536321 0 0.140926)
(-0.000240438 0 0.1211)
(0.00139864 0 0.174771)
(0.00117384 0 0.159786)
(0.00157013 0 0.197216)
(0.00165485 0 0.189284)
(0.00148902 0 0.208706)
(0.0016258 0 0.204995)
(0.00146272 0 0.21422)
(0.00156126 0 0.212338)
(0.00159896 0 0.215689)
(0.0016272 0 0.215949)
(0.00206429 0 0.206021)
(0.00171492 0 0.215109)
(0.00453176 0 0.151222)
(0.00326247 0 0.19583)
(0.014298 0 -0.0374846)
(0.00504502 0 0.102441)
(0.0231333 0 -0.376234)
(0.0269392 0 -0.183335)
(-0.00794922 0 -0.505301)
(0.0135935 0 -0.561858)
(-0.0209382 0 -0.24296)
(-0.0260614 0 -0.434518)
(-0.00910188 0 0.0510705)
(-0.0154699 0 -0.0508506)
(-0.00281522 0 0.174071)
(-0.00355435 0 0.147072)
(-0.00145315 0 0.201503)
(-0.001942 0 0.198392)
(-0.0011364 0 0.20118)
(-0.00120966 0 0.20344)
(-0.000917526 0 0.195731)
(-0.00100987 0 0.198709)
(-0.000740401 0 0.189729)
(-0.000790029 0 0.192635)
(-0.000601177 0 0.183974)
(-0.000615079 0 0.186738)
(-0.000494397 0 0.17849)
(-0.000479393 0 0.181154)
(-0.000413641 0 0.173208)
(-0.000375174 0 0.175795)
(-0.000353303 0 0.168104)
(-0.000295927 0 0.170612)
(-0.00030973 0 0.163175)
(-0.000236724 0 0.165604)
(-0.000280925 0 0.158409)
(-0.000194606 0 0.16077)
(-0.000265686 0 0.153768)
(-0.000167948 0 0.156087)
(-0.000262893 0 0.149193)
(-0.000155516 0 0.151505)
(-0.00027113 0 0.144611)
(-0.000155901 0 0.146954)
(-0.000288576 0 0.139947)
(-0.000167298 0 0.14236)
(-0.000313066 0 0.135131)
(-0.000187513 0 0.137646)
(-0.000342219 0 0.130101)
(-0.000214072 0 0.132745)
(-0.000373589 0 0.124807)
(-0.00024438 0 0.127602)
(-0.000404783 0 0.119208)
(-0.000275859 0 0.12217)
(-0.000433533 0 0.113271)
(-0.000306052 0 0.116414)
(-0.000457712 0 0.106966)
(-0.000332676 0 0.110302)
(-0.000475296 0 0.100262)
(-0.000353605 0 0.103806)
(-0.000484332 0 0.0931231)
(-0.000366822 0 0.0968928)
(-0.000482998 0 0.0855032)
(-0.000370409 0 0.0895208)
(-0.000469873 0 0.0773534)
(-0.000362694 0 0.0816415)
(-0.000444524 0 0.0686331)
(-0.000342687 0 0.0732062)
(-0.00040829 0 0.0593306)
(-0.000310777 0 0.0641853)
(-0.000364521 0 0.0494676)
(-0.000269488 0 0.0545892)
(-0.000317403 0 0.0390342)
(-0.000223791 0 0.0444556)
(-0.000271108 0 0.0278049)
(-0.000178762 0 0.0337328)
(-0.000233318 0 0.0151172)
(-0.000137954 0 0.0220361)
(-0.000113136 0 0.00844911)
(-0.0101191 0 0.292952)
(-0.00952826 0 0.321343)
(-0.00913378 0 0.228622)
(-0.010678 0 0.26438)
(-0.00676173 0 0.158964)
(-0.00861969 0 0.191673)
(-0.00392707 0 0.112172)
(-0.00562434 0 0.124425)
(-0.00145088 0 0.109719)
(-0.00277934 0 0.098047)
(0.000434532 0 0.14)
(-0.000436528 0 0.119843)
(0.0014523 0 0.174356)
(0.00115324 0 0.159107)
(0.0017193 0 0.197129)
(0.0017458 0 0.189106)
(0.00169371 0 0.208695)
(0.00178231 0 0.205012)
(0.00170356 0 0.214139)
(0.00176023 0 0.212332)
(0.00186918 0 0.215439)
(0.00187047 0 0.215839)
(0.00239882 0 0.204969)
(0.00192909 0 0.214756)
(0.00508568 0 0.147084)
(0.00364112 0 0.194039)
(0.0148147 0 -0.0433849)
(0.00578338 0 0.0959546)
(0.0219593 0 -0.368908)
(0.0262666 0 -0.188098)
(-0.00722054 0 -0.490999)
(0.0128672 0 -0.542404)
(-0.0202888 0 -0.24237)
(-0.0245886 0 -0.425805)
(-0.00949193 0 0.045171)
(-0.0153775 0 -0.0580485)
(-0.00299235 0 0.171428)
(-0.00379367 0 0.142739)
(-0.00147249 0 0.200886)
(-0.00188606 0 0.197378)
(-0.00111496 0 0.20091)
(-0.00111158 0 0.203148)
(-0.000864488 0 0.195517)
(-0.000906424 0 0.198495)
(-0.000655555 0 0.189547)
(-0.000656313 0 0.192447)
(-0.000486938 0 0.183823)
(-0.000455285 0 0.186579)
(-0.000355003 0 0.178366)
(-0.000295672 0 0.181024)
(-0.00025348 0 0.173107)
(-0.000170294 0 0.175689)
(-0.000176303 0 0.168022)
(-7.32303e-05 0 0.170528)
(-0.000119275 0 0.163111)
(7.29043e-07 0 0.165539)
(-7.99147e-05 0 0.158362)
(5.48783e-05 0 0.160723)
(-5.65896e-05 0 0.153739)
(9.11566e-05 0 0.156058)
(-4.77911e-05 0 0.149181)
(0.000111124 0 0.151493)
(-5.17325e-05 0 0.144615)
(0.000116512 0 0.14696)
(-6.62364e-05 0 0.139965)
(0.000109442 0 0.142381)
(-8.87947e-05 0 0.135161)
(9.24176e-05 0 0.13768)
(-0.00011671 0 0.13014)
(6.82019e-05 0 0.13279)
(-0.000147249 0 0.12485)
(3.96582e-05 0 0.127653)
(-0.000177773 0 0.119252)
(9.59567e-06 0 0.122224)
(-0.000205815 0 0.113312)
(-1.93417e-05 0 0.116465)
(-0.000229094 0 0.106998)
(-4.47272e-05 0 0.110347)
(-0.000245492 0 0.100281)
(-6.43419e-05 0 0.103839)
(-0.000253031 0 0.0931227)
(-7.61348e-05 0 0.0969088)
(-0.000249952 0 0.085478)
(-7.82249e-05 0 0.0895139)
(-0.000235014 0 0.0772989)
(-6.9066e-05 0 0.0816066)
(-0.000208094 0 0.0685481)
(-4.79066e-05 0 0.0731402)
(-0.000170963 0 0.0592191)
(-1.55275e-05 0 0.0640899)
(-0.000127628 0 0.0493389)
(2.50178e-05 0 0.0544724)
(-8.35497e-05 0 0.0389013)
(6.81628e-05 0 0.044331)
(-4.45784e-05 0 0.0276875)
(0.000107616 0 0.0336172)
(-1.74307e-05 0 0.015046)
(0.000138879 0 0.0219516)
(0.000153278 0 0.00842173)
(-0.0109813 0 0.29279)
(-0.0101345 0 0.321783)
(-0.0100058 0 0.227451)
(-0.0115886 0 0.263729)
(-0.00750542 0 0.157155)
(-0.00937885 0 0.190006)
(-0.00446381 0 0.110321)
(-0.00624386 0 0.122398)
(-0.00176514 0 0.108188)
(-0.00318973 0 0.0962479)
(0.000305721 0 0.138963)
(-0.000642497 0 0.118463)
(0.0014603 0 0.173867)
(0.00109886 0 0.158338)
(0.00181849 0 0.196998)
(0.00179463 0 0.188868)
(0.00185036 0 0.208658)
(0.00189631 0 0.204991)
(0.00189599 0 0.214043)
(0.00191288 0 0.212301)
(0.00208514 0 0.215169)
(0.00206452 0 0.215712)
(0.00267624 0 0.203839)
(0.00209569 0 0.214362)
(0.00554021 0 0.142946)
(0.00391753 0 0.19213)
(0.0149151 0 -0.0487081)
(0.00646063 0 0.0897046)
(0.0204776 0 -0.361676)
(0.0251042 0 -0.191807)
(-0.00652429 0 -0.47735)
(0.0119293 0 -0.524403)
(-0.019216 0 -0.241494)
(-0.0227746 0 -0.417344)
(-0.00945759 0 0.0395657)
(-0.0148922 0 -0.0645541)
(-0.00294412 0 0.168713)
(-0.00380083 0 0.138397)
(-0.0013164 0 0.200231)
(-0.00162444 0 0.196293)
(-0.000941907 0 0.200631)
(-0.000855131 0 0.202842)
(-0.000677376 0 0.195289)
(-0.000661358 0 0.198269)
(-0.0004486 0 0.189346)
(-0.000395102 0 0.192242)
(-0.000258241 0 0.183653)
(-0.000177967 0 0.1864)
(-0.000105829 0 0.178224)
(1.20897e-07 0 0.180873)
(1.3958e-05 0 0.172991)
(0.000143505 0 0.175565)
(0.000106949 0 0.167928)
(0.000256702 0 0.170427)
(0.000177331 0 0.163037)
(0.000344805 0 0.165458)
(0.000227773 0 0.158308)
(0.000411096 0 0.160663)
(0.000260149 0 0.153704)
(0.000457613 0 0.156017)
(0.000276233 0 0.149165)
(0.000486097 0 0.151472)
(0.000278083 0 0.144617)
(0.000498482 0 0.146957)
(0.000268148 0 0.139983)
(0.000497108 0 0.142395)
(0.000249198 0 0.135191)
(0.000484702 0 0.137709)
(0.000224166 0 0.13018)
(0.000464242 0 0.13283)
(0.000195995 0 0.124896)
(0.000438785 0 0.1277)
(0.000167492 0 0.119298)
(0.000411302 0 0.122274)
(0.000141255 0 0.113354)
(0.000384565 0 0.116514)
(0.000119646 0 0.107032)
(0.000361089 0 0.110389)
(0.000104812 0 0.1003)
(0.000343136 0 0.103869)
(9.87026e-05 0 0.0931224)
(0.000332749 0 0.0969217)
(0.000102967 0 0.0854527)
(0.000331734 0 0.0895044)
(0.000118644 0 0.0772448)
(0.000341476 0 0.0815699)
(0.000145551 0 0.068465)
(0.000362467 0 0.0730743)
(0.000181501 0 0.0591125)
(0.000393539 0 0.0639974)
(0.0002219 0 0.0492211)
(0.000431088 0 0.0543635)
(0.00026048 0 0.0387891)
(0.000468913 0 0.0442218)
(0.000291174 0 0.0275997)
(0.000500224 0 0.0335261)
(0.000309976 0 0.0150002)
(0.000521571 0 0.0218931)
(0.000526918 0 0.0084041)
(-0.0116566 0 0.292713)
(-0.0106046 0 0.322316)
(-0.0107442 0 0.226281)
(-0.0123466 0 0.263121)
(-0.00816455 0 0.155257)
(-0.0100348 0 0.188286)
(-0.00495972 0 0.108339)
(-0.00681401 0 0.120261)
(-0.00206918 0 0.106532)
(-0.0035793 0 0.0943209)
(0.000165405 0 0.137837)
(-0.000850649 0 0.116973)
(0.00144076 0 0.173329)
(0.00102547 0 0.157487)
(0.00188098 0 0.196846)
(0.00181456 0 0.188574)
(0.00196567 0 0.208618)
(0.00197581 0 0.204934)
(0.00204268 0 0.213957)
(0.00202361 0 0.21225)
(0.00224554 0 0.214897)
(0.00220994 0 0.215577)
(0.00288295 0 0.202652)
(0.00221521 0 0.213937)
(0.00587629 0 0.138901)
(0.00409636 0 0.190134)
(0.0147909 0 -0.0533881)
(0.00701299 0 0.0837615)
(0.0190029 0 -0.354627)
(0.0237914 0 -0.194615)
(-0.00586645 0 -0.464529)
(0.0110334 0 -0.507824)
(-0.0179847 0 -0.24044)
(-0.0209045 0 -0.409266)
(-0.00911766 0 0.0342948)
(-0.014171 0 -0.0704655)
(-0.00266979 0 0.165988)
(-0.00356984 0 0.134098)
(-0.000981481 0 0.199563)
(-0.00117131 0 0.195168)
(-0.000616791 0 0.200366)
(-0.000444612 0 0.202545)
(-0.000356772 0 0.19507)
(-0.000276946 0 0.198046)
(-0.000119378 0 0.189148)
(-7.13692e-06 0 0.192029)
(8.59026e-05 0 0.18348)
(0.000217092 0 0.186207)
(0.000254613 0 0.178079)
(0.000409004 0 0.180707)
(0.000390245 0 0.172871)
(0.000567435 0 0.175425)
(0.000497786 0 0.16783)
(0.000695094 0 0.17031)
(0.000581136 0 0.162961)
(0.000796634 0 0.165363)
(0.00064289 0 0.158253)
(0.000875012 0 0.160589)
(0.000684974 0 0.153669)
(0.000932177 0 0.155965)
(0.000709277 0 0.14915)
(0.000969896 0 0.15144)
(0.000718019 0 0.14462)
(0.000990188 0 0.146945)
(0.000713826 0 0.140002)
(0.000995515 0 0.142401)
(0.000699643 0 0.135224)
(0.000988745 0 0.13773)
(0.000678575 0 0.130222)
(0.000973002 0 0.132863)
(0.000653708 0 0.124943)
(0.00095148 0 0.127742)
(0.000627968 0 0.119347)
(0.000927264 0 0.122319)
(0.000604038 0 0.113398)
(0.000903213 0 0.116558)
(0.000584326 0 0.107067)
(0.000881897 0 0.110427)
(0.000570984 0 0.100321)
(0.000865597 0 0.103896)
(0.000565908 0 0.0931237)
(0.000856325 0 0.0969324)
(0.00057062 0 0.0854296)
(0.000855794 0 0.0894939)
(0.000585933 0 0.0771944)
(0.000865206 0 0.0815341)
(0.000611318 0 0.0683882)
(0.000884763 0 0.073012)
(0.000644109 0 0.0590168)
(0.000912889 0 0.0639131)
(0.000679113 0 0.0491209)
(0.000945456 0 0.0542691)
(0.000709586 0 0.0387027)
(0.000975805 0 0.0441356)
(0.00072994 0 0.0275417)
(0.000997214 0 0.0334657)
(0.000738706 0 0.0149758)
(0.0010081 0 0.0218658)
(0.00100477 0 0.00840399)
(-0.0121926 0 0.292724)
(-0.0109811 0 0.322968)
(-0.0113814 0 0.225127)
(-0.0129889 0 0.26258)
(-0.00875669 0 0.153296)
(-0.0106153 0 0.186536)
(-0.00542133 0 0.106251)
(-0.00734236 0 0.118037)
(-0.00236322 0 0.104768)
(-0.00394858 0 0.0922822)
(1.83605e-05 0 0.136626)
(-0.0010591 0 0.115386)
(0.00140308 0 0.172731)
(0.000938959 0 0.156564)
(0.00191583 0 0.196658)
(0.00181228 0 0.188232)
(0.00204543 0 0.20856)
(0.0020262 0 0.204848)
(0.00214656 0 0.213865)
(0.00209719 0 0.212182)
(0.00235338 0 0.214615)
(0.0023097 0 0.215439)
(0.00302212 0 0.201419)
(0.00229098 0 0.213491)
(0.00610111 0 0.134992)
(0.00419027 0 0.188081)
(0.0145406 0 -0.0574774)
(0.00742439 0 0.0781351)
(0.0176581 0 -0.34786)
(0.0224916 0 -0.196693)
(-0.00519824 0 -0.452621)
(0.0102989 0 -0.492586)
(-0.0166775 0 -0.239316)
(-0.0190456 0 -0.401613)
(-0.00855562 0 0.029335)
(-0.0132956 0 -0.0758801)
(-0.00219799 0 0.16328)
(-0.00312895 0 0.12986)
(-0.000483323 0 0.198893)
(-0.000554891 0 0.194025)
(-0.000139248 0 0.200118)
(0.000109758 0 0.202264)
(9.56784e-05 0 0.19486)
(0.000242053 0 0.197845)
(0.000331636 0 0.188946)
(0.000504194 0 0.191817)
(0.000545648 0 0.183299)
(0.000729121 0 0.186005)
(0.00072693 0 0.177923)
(0.00093131 0 0.180528)
(0.000876264 0 0.172738)
(0.00110232 0 0.17527)
(0.000997271 0 0.167721)
(0.00124309 0 0.170178)
(0.00109321 0 0.162873)
(0.00135751 0 0.165254)
(0.00116641 0 0.158187)
(0.00144794 0 0.160501)
(0.00121867 0 0.153624)
(0.00151609 0 0.155899)
(0.00125189 0 0.149126)
(0.00156361 0 0.151397)
(0.00126834 0 0.144615)
(0.00159252 0 0.146923)
(0.00127074 0 0.140015)
(0.00160531 0 0.142398)
(0.00126214 0 0.135251)
(0.00160493 0 0.137743)
(0.00124576 0 0.130258)
(0.00159459 0 0.132889)
(0.00122479 0 0.124986)
(0.00157759 0 0.127777)
(0.00120223 0 0.119391)
(0.00155708 0 0.122358)
(0.00118083 0 0.113439)
(0.00153599 0 0.116597)
(0.00116302 0 0.107099)
(0.00151692 0 0.110461)
(0.00115094 0 0.10034)
(0.00150217 0 0.103921)
(0.00114641 0 0.0931242)
(0.00149372 0 0.096942)
(0.00115081 0 0.0854077)
(0.00149317 0 0.089484)
(0.0011647 0 0.0771479)
(0.00150155 0 0.0815016)
(0.00118719 0 0.0683195)
(0.0015188 0 0.0729569)
(0.00121517 0 0.0589351)
(0.00154296 0 0.0638412)
(0.00124306 0 0.049042)
(0.00156955 0 0.0541938)
(0.00126425 0 0.0386443)
(0.00159185 0 0.0440757)
(0.00127439 0 0.0275133)
(0.00160379 0 0.0334356)
(0.00127456 0 0.0149727)
(0.00160564 0 0.0218652)
(0.00159609 0 0.00841625)
(-0.0126332 0 0.292831)
(-0.0113077 0 0.323757)
(-0.0119432 0 0.223996)
(-0.0135492 0 0.26212)
(-0.00929448 0 0.151284)
(-0.0111425 0 0.18477)
(-0.00585253 0 0.104074)
(-0.00783387 0 0.115743)
(-0.00264801 0 0.102905)
(-0.0042975 0 0.0901459)
(-0.000133256 0 0.13533)
(-0.00126745 0 0.113709)
(0.00134982 0 0.172071)
(0.000840446 0 0.155576)
(0.00192682 0 0.196427)
(0.00178971 0 0.187848)
(0.00209373 0 0.208475)
(0.00205012 0 0.204736)
(0.00221206 0 0.213761)
(0.00213769 0 0.212103)
(0.00241534 0 0.21432)
(0.00236757 0 0.215304)
(0.0031016 0 0.200155)
(0.00232629 0 0.213034)
(0.00622737 0 0.131221)
(0.00421064 0 0.185998)
(0.014219 0 -0.061088)
(0.00770542 0 0.0728074)
(0.0165093 0 -0.341439)
(0.0212825 0 -0.19822)
(-0.00447097 0 -0.441602)
(0.00977486 0 -0.478599)
(-0.0153131 0 -0.238189)
(-0.0171925 0 -0.394385)
(-0.0078253 0 0.0246389)
(-0.0123102 0 -0.0808719)
(-0.00156432 0 0.160602)
(-0.00252166 0 0.125686)
(0.000161639 0 0.19823)
(0.000192425 0 0.192874)
(0.000461523 0 0.199891)
(0.000792723 0 0.20202)
(0.000672396 0 0.19466)
(0.000887649 0 0.197665)
(0.000901977 0 0.18874)
(0.00113361 0 0.191611)
(0.00112045 0 0.183105)
(0.00135632 0 0.185799)
(0.00131163 0 0.177751)
(0.0015666 0 0.180339)
(0.00147311 0 0.17259)
(0.0017486 0 0.175103)
(0.00160679 0 0.167595)
(0.00190174 0 0.170033)
(0.0017151 0 0.162769)
(0.0020288 0 0.16513)
(0.00179991 0 0.158104)
(0.00213142 0 0.1604)
(0.00186278 0 0.153564)
(0.00221093 0 0.15582)
(0.00190551 0 0.149087)
(0.00226881 0 0.15134)
(0.00193032 0 0.144598)
(0.00230695 0 0.146889)
(0.00193997 0 0.140016)
(0.00232783 0 0.142384)
(0.00193758 0 0.135266)
(0.00233444 0 0.137747)
(0.00192642 0 0.130286)
(0.00233005 0 0.132907)
(0.00190977 0 0.12502)
(0.00231799 0 0.127805)
(0.00189068 0 0.119428)
(0.00230151 0 0.122392)
(0.00187195 0 0.113473)
(0.00228359 0 0.116632)
(0.00185602 0 0.107127)
(0.00226686 0 0.110492)
(0.00184503 0 0.100356)
(0.00225363 0 0.103943)
(0.00184073 0 0.093124)
(0.00224586 0 0.0969511)
(0.00184437 0 0.0853876)
(0.0022451 0 0.0894759)
(0.00185632 0 0.0771068)
(0.00225227 0 0.0814737)
(0.00187539 0 0.0682611)
(0.00226707 0 0.0729101)
(0.00189817 0 0.0588697)
(0.00228732 0 0.0637826)
(0.00191905 0 0.0489859)
(0.00230835 0 0.0541375)
(0.00193196 0 0.0386129)
(0.00232378 0 0.0440391)
(0.00193392 0 0.0275111)
(0.0023284 0 0.0334298)
(0.00192776 0 0.0149873)
(0.00232366 0 0.0218843)
(0.00231059 0 0.00843773)
(-0.0130223 0 0.293049)
(-0.0116296 0 0.324687)
(-0.0124564 0 0.222899)
(-0.0140613 0 0.261743)
(-0.0097908 0 0.149234)
(-0.0116374 0 0.182993)
(-0.00625565 0 0.10182)
(-0.00829372 0 0.113386)
(-0.00292248 0 0.100955)
(-0.00462548 0 0.0879238)
(-0.000290664 0 0.13396)
(-0.00147425 0 0.111955)
(0.0012808 0 0.171357)
(0.000730157 0 0.154528)
(0.00191482 0 0.196162)
(0.00174672 0 0.187425)
(0.00211287 0 0.20837)
(0.00204833 0 0.204604)
(0.00224269 0 0.21365)
(0.00214777 0 0.212017)
(0.00243573 0 0.214021)
(0.00238618 0 0.215175)
(0.0031255 0 0.198877)
(0.00232214 0 0.212574)
(0.00626892 0 0.127581)
(0.0041657 0 0.183902)
(0.0138658 0 -0.0643292)
(0.00787711 0 0.0677427)
(0.0155812 0 -0.335395)
(0.0202003 0 -0.199364)
(-0.00366072 0 -0.431401)
(0.00945774 0 -0.465771)
(-0.0139003 0 -0.237077)
(-0.0153438 0 -0.387558)
(-0.0069716 0 0.0201706)
(-0.011246 0 -0.085491)
(-0.0008072 0 0.157955)
(-0.00179432 0 0.121576)
(0.000927263 0 0.197585)
(0.00104166 0 0.191718)
(0.0011888 0 0.199692)
(0.00158696 0 0.201806)
(0.00136801 0 0.194474)
(0.00164822 0 0.197511)
(0.00158746 0 0.188534)
(0.00187558 0 0.191414)
(0.00180843 0 0.182904)
(0.00209575 0 0.185591)
(0.00200833 0 0.177567)
(0.00231338 0 0.180141)
(0.00218126 0 0.172426)
(0.00250595 0 0.174923)
(0.00232739 0 0.167453)
(0.00267148 0 0.169874)
(0.00244818 0 0.162649)
(0.00281145 0 0.164993)
(0.00254494 0 0.158007)
(0.00292668 0 0.160284)
(0.00261892 0 0.15349)
(0.00301811 0 0.155727)
(0.00267171 0 0.149036)
(0.00308694 0 0.151271)
(0.00270548 0 0.144567)
(0.00313491 0 0.146842)
(0.00272295 0 0.140005)
(0.00316448 0 0.142359)
(0.00272727 0 0.135272)
(0.00317861 0 0.137741)
(0.00272177 0 0.130304)
(0.00318061 0 0.132916)
(0.00270977 0 0.125047)
(0.00317389 0 0.127825)
(0.0026944 0 0.119458)
(0.00316173 0 0.122419)
(0.00267848 0 0.113503)
(0.00314719 0 0.116661)
(0.00266451 0 0.107152)
(0.00313295 0 0.110519)
(0.00265462 0 0.100371)
(0.00312136 0 0.103963)
(0.00265055 0 0.0931244)
(0.0031144 0 0.0969597)
(0.00265349 0 0.0853707)
(0.00311363 0 0.0894693)
(0.00266368 0 0.0770724)
(0.00311991 0 0.0814498)
(0.00267977 0 0.0682135)
(0.00313286 0 0.0728706)
(0.00269823 0 0.0588199)
(0.00315015 0 0.0637351)
(0.00271363 0 0.0489494)
(0.00316717 0 0.054096)
(0.00272061 0 0.0386025)
(0.00317804 0 0.0440194)
(0.0027173 0 0.0275271)
(0.00317836 0 0.0334396)
(0.00270741 0 0.0150134)
(0.00316987 0 0.0219151)
(0.00315563 0 0.00846449)
(-0.0134023 0 0.293379)
(-0.0119886 0 0.325749)
(-0.0129477 0 0.221838)
(-0.0145579 0 0.261439)
(-0.0102594 0 0.147148)
(-0.0121205 0 0.181201)
(-0.00663383 0 0.0994942)
(-0.00872939 0 0.110969)
(-0.00318514 0 0.0989273)
(-0.00493412 0 0.0856247)
(-0.000452162 0 0.132526)
(-0.00167871 0 0.110133)
(0.00119576 0 0.170598)
(0.000608056 0 0.153429)
(0.00187967 0 0.195869)
(0.00168277 0 0.186969)
(0.00210394 0 0.208253)
(0.00202094 0 0.204455)
(0.00224026 0 0.213542)
(0.00212914 0 0.211926)
(0.00241632 0 0.213728)
(0.00236744 0 0.215057)
(0.00309656 0 0.197598)
(0.00227927 0 0.21212)
(0.00624077 0 0.12406)
(0.00406421 0 0.181806)
(0.0135082 0 -0.0672974)
(0.00796367 0 0.0628978)
(0.0148577 0 -0.329755)
(0.0192533 0 -0.200263)
(-0.00278027 0 -0.421948)
(0.00930279 0 -0.454013)
(-0.0124576 0 -0.235983)
(-0.0135226 0 -0.381107)
(-0.00603432 0 0.0159094)
(-0.0101281 0 -0.0897732)
(3.83369e-05 0 0.155336)
(-0.000985115 0 0.117528)
(0.00179025 0 0.196953)
(0.00196953 0 0.19055)
(0.00202097 0 0.199522)
(0.00247756 0 0.201618)
(0.0021731 0 0.194305)
(0.00251264 0 0.197381)
(0.00238317 0 0.188332)
(0.00272394 0 0.191225)
(0.00260687 0 0.182698)
(0.00294353 0 0.18538)
(0.00281571 0 0.177373)
(0.0031694 0 0.179935)
(0.0030004 0 0.17225)
(0.00337337 0 0.174732)
(0.00315941 0 0.167297)
(0.00355214 0 0.169701)
(0.00329324 0 0.162515)
(0.00370582 0 0.16484)
(0.00340259 0 0.157895)
(0.00383448 0 0.160153)
(0.00348832 0 0.153402)
(0.00393862 0 0.15562)
(0.00355183 0 0.148971)
(0.00401914 0 0.151187)
(0.00359515 0 0.144525)
(0.00407765 0 0.146782)
(0.00362099 0 0.139983)
(0.00411652 0 0.142321)
(0.00363249 0 0.135268)
(0.00413871 0 0.137723)
(0.00363305 0 0.130314)
(0.00414758 0 0.132915)
(0.00362603 0 0.125067)
(0.00414659 0 0.127836)
(0.00361464 0 0.119483)
(0.00413911 0 0.122439)
(0.00360176 0 0.113529)
(0.00412825 0 0.116684)
(0.00358995 0 0.107173)
(0.00411679 0 0.110542)
(0.00358139 0 0.100384)
(0.00410714 0 0.10398)
(0.00357787 0 0.0931253)
(0.00410136 0 0.0969671)
(0.00358058 0 0.0853565)