/*--------------------------------*- C++ -*----------------------------------*\
  =========                 |
  \\      /  F ield         | OpenFOAM: The Open Source CFD Toolbox
   \\    /   O peration     | Website:  https://openfoam.org
    \\  /    A nd           | Version:  9
     \\/     M anipulation  |
\*---------------------------------------------------------------------------*/
FoamFile
{
    format      ascii;
    class       surfaceScalarField;
    location    "0.03";
    object      alphaPhi0.water;
}
// * * * * * * * * * * * * * * * * * * * * * * * * * * * * * * * * * * * * * //

dimensions      [0 3 -1 0 0 0 0];

internalField   nonuniform List<scalar> 
9850
(
-1.97303e-288
3.203e-288
-8.21498e-288
1.41648e-287
-3.51197e-287
6.18232e-287
-1.54504e-286
2.77036e-286
-6.99638e-286
1.27745e-285
-3.26139e-285
6.06281e-285
-1.5652e-284
2.96196e-284
-7.73408e-284
1.48969e-283
-3.93499e-283
7.71367e-283
-2.06153e-282
4.11239e-282
-1.11212e-281
2.2574e-281
-6.17761e-281
1.27587e-280
-3.5333e-280
7.4247e-280
-2.08066e-279
4.44842e-279
-1.26135e-278
2.74382e-278
-7.87097e-278
1.74212e-277
-5.05481e-277
1.13846e-276
-3.34023e-276
7.6559e-276
-2.27058e-275
5.29691e-275
-1.58733e-274
3.76955e-274
-1.14082e-273
2.75849e-273
-8.42616e-273
2.07501e-272
-6.39308e-272
1.60388e-271
-4.98017e-271
1.27329e-270
-3.98097e-270
1.0377e-269
-3.26344e-269
8.67668e-269
-2.74167e-268
7.43881e-268
-2.35882e-267
6.53467e-267
-2.07661e-266
5.87756e-266
-1.86906e-265
5.40822e-265
-1.94644e-264
5.93229e-264
-1.98295e-263
6.14933e-263
-1.97183e-262
6.23535e-262
-1.91194e-261
6.17097e-261
-1.80572e-260
5.95474e-260
-1.65916e-259
5.59647e-259
-1.48129e-258
5.11678e-258
-1.28325e-257
4.5453e-257
-1.07715e-256
3.91761e-256
-8.7467e-256
3.27146e-255
-6.85943e-255
2.64268e-254
-5.1858e-254
2.06157e-253
-3.77203e-253
1.55031e-252
-2.6342e-252
1.12165e-251
-1.76215e-251
7.79117e-251
-1.12636e-250
5.18402e-250
-6.86103e-250
3.29597e-249
-3.97103e-249
1.99707e-248
-2.17689e-248
1.14985e-247
6.27127e-247
-9.70385e-286
1.57599e-285
-4.03696e-285
6.96438e-285
-1.72441e-284
3.03729e-284
-7.58009e-284
1.35998e-283
-3.42963e-283
6.26607e-283
-1.59739e-282
2.97151e-282
-7.6596e-282
1.45053e-281
-3.78152e-281
7.28933e-281
-1.92228e-280
3.77128e-280
-1.00618e-279
2.00889e-279
-5.42304e-279
1.1018e-278
-3.00966e-278
6.22199e-278
-1.7198e-277
3.61769e-277
-1.01181e-276
2.16564e-276
-6.12817e-276
1.33464e-275
-3.82051e-275
8.46681e-275
-2.45129e-274
5.52831e-274
-1.61833e-273
3.71456e-273
-1.09908e-272
2.56789e-272
-7.67654e-272
1.82596e-271
-5.51225e-271
1.33515e-270
-4.06778e-270
1.00356e-269
-3.08365e-269
7.75123e-269
-2.40013e-268
6.14917e-268
-1.91702e-267
5.008e-267
-1.57027e-266
4.18475e-266
-1.31823e-265
3.58559e-265
-1.13335e-264
3.14807e-264
-9.97103e-264
2.83013e-263
-8.96916e-263
2.60306e-262
-9.335e-262
2.85433e-261
-9.50561e-261
2.95795e-260
-9.449e-260
2.99889e-259
-9.15996e-259
2.96788e-258
-8.65034e-258
2.86424e-257
-7.94876e-257
2.69265e-256
-7.09819e-256
2.46292e-255
-6.15167e-255
2.18915e-254
-5.16661e-254
1.88829e-253
-4.19865e-253
1.57834e-252
-3.29592e-252
1.27644e-251
-2.49472e-251
9.97089e-251
-1.81719e-250
7.50968e-250
-1.27115e-249
5.44274e-249
-8.51965e-249
3.788e-248
-5.45766e-248
2.52588e-247
-3.33263e-247
1.60974e-246
-1.93418e-246
9.77879e-246
-1.06355e-245
5.64591e-245
3.0884e-244
-3.67178e-283
5.96332e-283
-1.52681e-282
2.63406e-282
-6.51886e-282
1.14825e-281
-2.86422e-281
5.13912e-281
-1.29533e-280
2.36679e-280
-6.03037e-280
1.12189e-279
-2.89025e-279
5.47404e-279
-1.42623e-278
2.74963e-278
-7.24661e-278
1.42195e-277
-3.79127e-277
7.57108e-277
-2.04242e-276
4.15062e-276
-1.13296e-275
2.34289e-275
-6.47097e-275
1.36166e-274
-3.80527e-274
8.14784e-274
-2.30366e-273
5.0193e-273
-1.43553e-272
3.18293e-272
-9.20654e-272
2.07747e-271
-6.07551e-271
1.39539e-270
-4.12448e-270
9.64312e-270
-2.87962e-269
6.85484e-269
-2.067e-268
5.01085e-268
-1.52483e-267
3.76546e-267
-1.15557e-266
2.90771e-266
-8.99178e-266
2.30633e-265
-7.18018e-265
1.87808e-264
-5.8803e-264
1.56922e-263
-4.93575e-263
1.34452e-262
-4.24315e-262
1.18051e-261
-3.73296e-261
1.0614e-260
-3.35803e-260
9.76427e-260
-3.49526e-259
1.07098e-258
-3.55986e-258
1.11027e-257
-3.53981e-257
1.12621e-256
-3.4331e-256
1.11527e-255
-3.24404e-255
1.07717e-254
-2.98317e-254
1.01357e-253
-2.66637e-253
9.28102e-253
-2.3133e-252
8.25965e-252
-1.94532e-251
7.13461e-251
-1.58315e-250
5.97306e-250
-1.24481e-249
4.83912e-249
-9.43966e-249
3.78752e-248
-6.89028e-248
2.85878e-247
-4.83099e-247
2.07683e-246
-3.24617e-246
1.44911e-245
-2.08533e-245
9.68945e-245
-1.27728e-244
6.19333e-244
-7.43782e-244
3.77412e-243
-4.10465e-243
2.18629e-242
1.20012e-241
-1.3374e-280
2.17153e-280
-5.55916e-280
9.58831e-280
-2.37264e-279
4.17818e-279
-1.04208e-278
1.8693e-278
-4.71094e-278
8.60576e-278
-2.19231e-277
4.07773e-277
-1.05033e-276
1.98891e-276
-5.18099e-276
9.98672e-276
-2.63141e-275
5.16266e-275
-1.37616e-274
2.74784e-274
-7.41077e-274
1.50588e-273
-4.10928e-273
8.49727e-273
-2.34617e-272
4.93683e-272
-1.37916e-271
2.95311e-271
-8.34628e-271
1.81863e-270
-5.1992e-270
1.15292e-269
-3.33331e-269
7.5229e-269
-2.199e-268
5.05164e-268
-1.49239e-267
3.49021e-267
-1.04167e-266
2.48051e-266
-7.47529e-266
1.81292e-265
-5.51335e-265
1.36214e-264
-4.17741e-264
1.05174e-263
-3.25007e-263
8.34168e-263
-2.59499e-262
6.79265e-262
-2.12507e-261
5.6758e-261
-1.78369e-260
4.86352e-260
-1.53347e-259
4.27093e-259
-1.34923e-258
3.8409e-258
-1.21393e-257
3.53449e-257
-1.26382e-256
3.87828e-256
-1.28761e-255
4.02257e-255
-1.28095e-254
4.08283e-254
-1.24306e-253
4.04623e-253
-1.17546e-252
3.91143e-252
-1.08187e-251
3.6843e-251
-9.67962e-251
3.37757e-250
-8.40781e-250
3.00987e-249
-7.0799e-249
2.60378e-248
-5.77063e-248
2.18349e-247
-4.54519e-247
1.77221e-246
-3.45333e-246
1.38988e-245
-2.52606e-245
1.05136e-244
-1.77526e-244
7.65601e-244
-1.19595e-243
5.35567e-243
-7.70437e-243
3.59089e-242
-4.73343e-242
2.30195e-241
-2.76547e-241
1.40713e-240
-1.5316e-240
8.17798e-240
4.5046e-239
-4.86955e-278
7.90308e-278
-2.02326e-277
3.48807e-277
-8.63143e-277
1.51929e-276
-3.78927e-276
6.79427e-276
-1.71225e-275
3.12654e-275
-7.96467e-275
1.48083e-274
-3.81413e-274
7.21961e-274
-1.88056e-273
3.62355e-273
-9.547e-273
1.8724e-272
-4.99061e-272
9.96165e-272
-2.6863e-271
5.45695e-271
-1.48889e-270
3.07792e-270
-8.49704e-270
1.78752e-269
-4.99273e-269
1.06884e-268
-3.02019e-268
6.57978e-268
-1.88062e-267
4.16972e-267
-1.20523e-266
2.71983e-266
-7.94796e-266
1.82577e-265
-5.39211e-265
1.26106e-264
-3.76236e-264
8.95991e-264
-2.69912e-263
6.54686e-263
-1.99016e-262
4.91795e-262
-1.50754e-261
3.79659e-261
-1.17263e-260
3.01077e-260
-9.36113e-260
2.45146e-259
-7.66493e-259
2.04831e-258
-6.43309e-258
1.75519e-257
-5.53047e-257
1.54145e-256
-4.86616e-256
1.38644e-255
-4.37862e-255
1.27612e-254
-4.55926e-254
1.40067e-253
-4.64629e-253
1.45336e-252
-4.62397e-252
1.4759e-251
-4.48941e-251
1.4636e-250
-4.24787e-250
1.41593e-249
-3.9126e-249
1.3349e-248
-3.50381e-248
1.22504e-247
-3.04664e-247
1.09297e-246
-2.56856e-246
9.46768e-246
-2.09646e-245
7.95127e-245
-1.65383e-244
6.46425e-244
-1.25873e-243
5.07887e-243
-9.22532e-243
3.8495e-242
-6.49727e-242
2.80924e-241
-4.38739e-241
1.96974e-240
-2.83366e-240
1.32398e-239
-1.74583e-239
8.51004e-239
-1.02309e-238
5.21672e-238
-5.68478e-238
3.04095e-237
1.6803e-236
-1.77973e-275
2.88664e-275
-7.39079e-275
1.27336e-274
-3.15128e-274
5.54339e-274
-1.38268e-273
2.47767e-273
-6.24449e-273
1.13955e-272
-2.90307e-272
5.39436e-272
-1.38946e-271
2.62855e-271
-6.84697e-271
1.31858e-270
-3.47408e-270
6.80986e-270
-1.81505e-269
3.62111e-269
-9.76452e-269
1.98259e-268
-5.4091e-268
1.11768e-267
-3.08529e-267
6.48765e-267
-1.81191e-266
3.87731e-266
-1.09548e-265
2.38571e-265
-6.8179e-265
1.51115e-264
-4.3672e-264
9.85246e-264
-2.87859e-263
6.61087e-263
-1.95201e-262
4.56421e-262
-1.36142e-261
3.24164e-261
-9.76272e-261
2.36775e-260
-7.19556e-260
1.77804e-259
-5.44867e-259
1.37222e-258
-4.23682e-258
1.08791e-257
-3.38127e-257
8.85621e-257
-2.76791e-256
7.39853e-256
-2.32261e-255
6.33908e-255
-1.99642e-254
5.56681e-254
-1.75646e-253
5.00707e-253
-1.58043e-252
4.60899e-252
-1.64567e-251
5.05963e-251
-1.67729e-250
5.25131e-250
-1.66961e-249
5.33466e-249
-1.62158e-248
5.29272e-248
-1.53505e-247
5.12337e-247
-1.41472e-246
4.83366e-246
-1.26783e-245
4.43961e-245
-1.10336e-244
3.96486e-244
-9.3117e-244
3.43836e-243
-7.60912e-243
2.89131e-242
-6.01066e-242
2.35392e-241
-4.58166e-241
1.85234e-240
-3.36363e-240
1.4064e-239
-2.37343e-239
1.02828e-238
-1.60604e-238
7.22465e-238
-1.03967e-237
4.8668e-237
-6.42147e-237
3.13559e-236
-3.77336e-236
1.92698e-235
-2.10284e-235
1.12629e-234
6.24098e-234
-6.52492e-273
1.05749e-272
-2.70792e-272
4.66181e-272
-1.15385e-271
2.02815e-271
-5.05944e-271
9.05916e-271
-2.28344e-270
4.16384e-270
-1.06088e-269
1.96979e-269
-5.0742e-269
9.59217e-269
-2.49881e-268
4.80866e-268
-1.26703e-267
2.48186e-267
-6.6153e-267
1.31887e-266
-3.55654e-266
7.2163e-266
-1.96887e-265
4.06559e-265
-1.12229e-264
2.35843e-264
-6.58668e-264
1.40863e-263
-3.9798e-263
8.66209e-263
-2.47534e-262
5.48346e-262
-1.58461e-261
3.57306e-261
-1.04385e-260
2.39613e-260
-7.07439e-260
1.65342e-259
-4.93122e-259
1.1737e-258
-3.53428e-258
8.56874e-258
-2.60359e-257
6.43166e-257
-1.97055e-256
4.96157e-256
-1.53159e-255
3.93207e-255
-1.2218e-254
3.1998e-254
-9.99791e-254
2.67232e-253
-8.38666e-253
2.28907e-252
-7.20682e-252
2.0098e-251
-6.33912e-251
1.80746e-250
-5.7029e-250
1.66364e-249
-5.93757e-249
1.82631e-248
-6.05151e-248
1.89567e-247
-6.02428e-247
1.92613e-246
-5.85205e-246
1.91156e-245
-5.54139e-245
1.85116e-244
-5.10916e-244
1.7474e-243
-4.58113e-243
1.60598e-242
-3.98953e-242
1.43536e-241
-3.36966e-241
1.24587e-240
-2.75618e-240
1.04874e-239
-2.17962e-239
8.54818e-239
-1.66355e-238
6.73558e-238
-1.22306e-237
5.12148e-237
-8.64417e-237
3.75055e-236
-5.85989e-236
2.63976e-235
-3.80096e-235
1.78163e-234
-2.35282e-234
1.15023e-233
-1.38588e-233
7.08435e-233
-7.74357e-233
4.15043e-232
2.3056e-231
-2.3967e-270
3.8807e-270
-9.93911e-270
1.70945e-269
-4.23187e-269
7.43147e-269
-1.85417e-268
3.31689e-268
-8.36186e-268
1.52337e-267
-3.88188e-267
7.20111e-267
-1.85528e-266
3.504e-266
-9.1293e-266
1.75525e-265
-4.62547e-265
9.05233e-265
-2.41314e-264
4.80678e-264
-1.29635e-263
2.62808e-263
-7.171e-263
1.47952e-262
-4.08447e-262
8.57622e-262
-2.39534e-261
5.1186e-261
-1.44622e-260
3.14528e-260
-8.98851e-260
1.98967e-259
-5.74986e-259
1.29557e-258
-3.78498e-258
8.68232e-258
-2.56336e-257
5.98714e-257
-1.78558e-256
4.24732e-256
-1.27891e-255
3.09888e-255
-9.4153e-255
2.32464e-254
-7.12173e-254
1.79229e-253
-5.53207e-253
1.41965e-252
-4.41073e-252
1.15471e-251
-3.60745e-251
9.6393e-251
-3.02467e-250
8.2536e-250
-2.59807e-249
7.24415e-249
-2.28443e-248
6.51296e-248
-2.05452e-247
5.99338e-247
-2.1385e-246
6.57833e-246
-2.17916e-245
6.8277e-245
-2.16918e-244
6.93758e-244
-2.10721e-243
6.88595e-243
-1.99559e-242
6.66984e-242
-1.84037e-241
6.29807e-241
-1.65075e-240
5.79094e-240
-1.43826e-239
5.17857e-239
-1.21552e-238
4.498e-238
-9.94966e-238
3.78932e-237
-7.87526e-237
3.09152e-236
-6.01688e-236
2.43857e-235
-4.42897e-235
1.85641e-234
-3.1345e-234
1.3613e-233
-2.12814e-233
9.59538e-233
-1.38276e-232
6.48659e-232
-8.57566e-232
4.19513e-231
-5.06188e-231
2.58872e-230
-2.8348e-230
1.51973e-229
8.46085e-229
-8.80917e-268
1.42481e-267
-3.64997e-267
6.27072e-267
-1.55272e-266
2.72367e-266
-6.7971e-266
1.21459e-265
-3.0626e-265
5.57338e-265
-1.4205e-264
2.63225e-264
-6.78297e-264
1.27969e-263
-3.33473e-263
6.40466e-263
-1.68807e-262
3.30015e-262
-8.79892e-262
1.75083e-261
-4.72264e-261
9.56415e-261
-2.61009e-260
5.37958e-260
-1.48535e-259
3.11564e-259
-8.70318e-259
1.85793e-258
-5.2501e-258
1.14069e-257
-3.26021e-257
7.20982e-257
-2.08376e-256
4.6908e-256
-1.37054e-255
3.14101e-255
-9.27426e-255
2.16426e-254
-6.45505e-254
1.53415e-253
-4.61976e-253
1.1185e-252
-3.39848e-252
8.38437e-252
-2.56872e-251
6.45985e-251
-1.99394e-250
5.11341e-250
-1.58871e-249
4.15652e-249
-1.29854e-248
3.46776e-248
-1.08811e-247
2.96765e-247
-9.34128e-247
2.60342e-246
-8.20944e-246
2.33961e-245
-7.37988e-245
2.15215e-244
-7.67845e-244
2.36145e-243
-7.82191e-243
2.45039e-242
-7.78426e-242
2.48946e-241
-7.56078e-241
2.4708e-240
-7.15997e-240
2.39335e-239
-6.60341e-239
2.26025e-238
-5.924e-238
2.07875e-237
-5.16287e-237
1.85958e-236
-4.36507e-236
1.61593e-235
-3.5749e-235
1.36211e-234
-2.83144e-234
1.11205e-233
-2.16501e-233
8.77888e-233
-1.59516e-232
6.68939e-232
-1.13018e-231
4.91052e-231
-7.6829e-231
3.46543e-230
-4.99912e-230
2.34579e-229
-3.10534e-229
1.51934e-228
-1.83625e-228
9.39059e-228
-1.03039e-227
5.52251e-227
3.08043e-226
-3.23198e-265
5.22095e-265
-1.33776e-264
2.29541e-264
-5.68508e-264
9.95984e-264
-2.4861e-263
4.4369e-263
-1.11901e-262
2.03386e-262
-5.1848e-262
9.59576e-262
-2.47319e-261
4.66022e-261
-1.21463e-260
2.32995e-260
-6.14211e-260
1.19931e-259
-3.19816e-259
6.3561e-259
-1.71475e-258
3.46851e-258
-9.46708e-258
1.94893e-257
-5.3819e-257
1.12758e-256
-3.15017e-256
6.71713e-256
-1.89834e-255
4.11984e-255
-1.17762e-254
2.60135e-254
-7.51906e-254
1.69079e-253
-4.94047e-253
1.13105e-252
-3.33982e-252
7.78575e-252
-2.32229e-251
5.51374e-251
-1.66041e-250
4.0161e-250
-1.22031e-249
3.00777e-249
-9.21505e-249
2.31531e-248
-7.14662e-248
1.83115e-247
-5.68918e-247
1.48724e-246
-4.64615e-246
1.2398e-245
-3.89007e-245
1.06019e-244
-3.33696e-244
9.29398e-244
-2.93047e-243
8.34657e-243
-2.63251e-242
7.67296e-242
-2.73721e-241
8.41431e-241
-2.7867e-240
8.72679e-240
-2.77185e-239
8.86208e-239
-2.69108e-238
8.79246e-238
-2.5475e-237
8.51445e-237
-2.34882e-236
8.03936e-236
-2.10676e-235
7.39293e-235
-1.8359e-234
6.61326e-234
-1.55221e-233
5.74712e-233
-1.27137e-232
4.84516e-232
-1.00718e-231
3.95665e-231
-7.70376e-231
3.12461e-230
-5.67858e-230
2.38198e-229
-4.02561e-229
1.74952e-228
-2.73851e-228
1.23547e-227
-1.78339e-227
8.36946e-227
-1.10888e-226
5.42554e-226
-6.5644e-226
3.35667e-225
-3.68827e-225
1.9762e-224
1.10367e-223
-1.03328e-262
1.66961e-262
-4.26372e-262
7.3195e-262
-1.80618e-261
3.16616e-261
-7.87254e-261
1.40596e-260
-3.5315e-260
6.42373e-260
-1.63059e-259
3.02048e-259
-7.75019e-259
1.46182e-258
-3.79224e-258
7.28245e-258
-1.91038e-257
3.73477e-257
-9.90839e-257
1.97186e-256
-5.29117e-256
1.07185e-255
-2.90913e-255
5.99845e-255
-1.64673e-254
3.45615e-254
-9.59631e-254
2.05011e-253
-5.75663e-253
1.25189e-252
-3.55436e-252
7.86897e-252
-2.25848e-251
5.09073e-251
-1.47656e-250
3.3891e-250
-9.9304e-250
2.32138e-249
-6.86827e-249
1.63557e-248
-4.88379e-248
1.18504e-247
-3.56895e-247
8.8268e-247
-2.67926e-246
6.75649e-246
-2.06527e-245
5.31258e-245
-1.63377e-244
4.28893e-244
-1.32556e-243
3.55316e-243
-1.10237e-242
3.01888e-242
-9.39012e-242
2.62882e-241
-8.18638e-241
2.34454e-240
-7.29854e-240
2.13988e-239
-7.52763e-239
2.32917e-238
-7.5999e-238
2.39651e-237
-7.49411e-237
2.41371e-236
-7.21054e-236
2.3744e-235
-6.7623e-235
2.27904e-234
-6.17459e-234
2.13214e-233
-5.48249e-233
1.94201e-232
-4.7275e-232
1.71995e-231
-3.95326e-231
1.4792e-230
-3.20098e-230
1.23357e-229
-2.50553e-229
9.95973e-229
-1.89248e-228
7.77224e-228
-1.3767e-227
5.85154e-227
-9.62541e-227
4.24193e-226
-6.45335e-226
2.9546e-225
-4.13876e-225
1.97274e-224
-2.53228e-224
1.25946e-223
-1.47381e-223
7.6676e-223
-8.13365e-223
4.43814e-222
2.43451e-221
-1.97308e-260
3.19765e-260
-8.0893e-260
1.39362e-259
-3.4039e-259
5.98945e-259
-1.47348e-258
2.64193e-258
-6.5632e-258
1.1988e-257
-3.00846e-257
5.59713e-257
-1.41928e-256
2.68922e-256
-6.89156e-256
1.32975e-255
-3.44444e-255
6.76745e-255
-1.77209e-254
3.54502e-254
-9.38479e-254
1.91145e-253
-5.11598e-253
1.06088e-252
-2.87067e-252
6.06061e-252
-1.65791e-251
3.56371e-251
-9.85408e-251
2.15672e-250
-6.02695e-250
1.34322e-249
-3.79257e-249
8.60807e-249
-2.45494e-248
5.67548e-248
-1.63425e-247
3.84902e-247
-1.11853e-246
2.6844e-246
-7.86844e-246
1.92475e-245
-5.68702e-245
1.41839e-244
-4.22135e-244
1.07385e-243
-3.21647e-243
8.34914e-243
-2.51438e-242
6.66307e-242
-2.01533e-241
5.45513e-241
-1.65517e-240
4.579e-240
-1.39194e-239
3.93809e-239
-1.19765e-238
3.46773e-238
-1.05345e-237
3.12393e-237
-1.07117e-236
3.35502e-236
-1.06591e-235
3.40365e-235
-1.03565e-234
3.37918e-234
-9.81554e-234
3.27577e-233
-9.06485e-233
3.09753e-232
-8.14814e-232
2.85399e-231
-7.11994e-231
2.55931e-230
-6.04003e-230
2.23094e-229
-4.96742e-229
1.88782e-228
-3.95444e-228
1.54851e-227
-3.04217e-227
1.22933e-226
-2.25763e-226
9.4296e-226
-1.61307e-225
6.97581e-225
-1.10733e-224
4.96724e-224
-7.28694e-224
3.39724e-223
-4.58549e-223
2.2265e-222
-2.75194e-222
1.3948e-221
-1.57052e-221
8.32932e-221
-8.4962e-221
4.72747e-220
2.54201e-219
-2.38574e-258
3.87957e-258
-9.71012e-258
1.67964e-257
-4.05529e-257
7.16629e-257
-1.74194e-256
3.13733e-256
-7.69772e-256
1.41263e-255
-3.49993e-255
6.54342e-255
-1.63743e-254
3.11843e-254
-7.88319e-254
1.52919e-253
-3.90571e-253
7.7163e-253
-1.99145e-252
4.00684e-252
-1.04499e-251
2.14118e-251
-5.64323e-251
1.17751e-250
-3.13612e-250
6.66394e-250
-1.79341e-249
3.8809e-249
-1.05522e-248
2.32562e-248
-6.38747e-248
1.43386e-247
-3.97709e-247
9.09454e-247
-2.54663e-246
5.93316e-246
-1.67659e-245
3.98049e-245
-1.13456e-244
2.74555e-244
-7.88918e-244
1.94645e-243
-5.63474e-243
1.41788e-242
-4.13209e-242
1.06084e-241
-3.10962e-241
8.14884e-241
-2.4002e-240
6.4233e-240
-1.899e-239
5.19275e-239
-1.53906e-238
4.30277e-238
-1.27683e-237
3.65193e-237
-1.08345e-236
3.17258e-236
-9.3957e-236
2.81881e-235
-9.41217e-235
2.98486e-234
-9.22508e-234
2.98354e-233
-8.82617e-233
2.91784e-232
-8.23504e-232
2.78557e-231
-7.48498e-231
2.5933e-230
-6.6199e-230
2.35186e-229
-5.69003e-229
2.07533e-228
-4.74687e-228
1.77967e-227
-3.83805e-227
1.4811e-226
-3.00304e-226
1.19452e-225
-2.27009e-225
9.32144e-225
-1.65493e-224
7.02629e-224
-1.16129e-223
5.10658e-223
-7.82738e-223
3.57141e-222
-5.05631e-222
2.39845e-221
-3.12269e-221
1.54313e-220
-1.83887e-220
9.48781e-220
-1.02955e-219
5.55967e-219
-5.46333e-219
3.0958e-218
1.63291e-217
-2.05277e-256
3.34933e-256
-8.29195e-256
1.44011e-255
-3.43608e-255
6.09797e-255
-1.46419e-254
2.64886e-254
-6.41751e-254
1.18318e-253
-2.89344e-253
5.43582e-253
-1.34209e-252
2.56891e-252
-6.40462e-252
1.24893e-251
-3.14466e-251
6.24686e-251
-1.58867e-250
3.2147e-250
-8.25801e-250
1.7021e-249
-4.41663e-249
9.27251e-249
-2.43031e-248
5.1972e-248
-1.37581e-247
2.99697e-247
-8.01182e-247
1.77788e-246
-4.79874e-246
1.08489e-245
-2.95578e-245
6.80888e-245
-1.87188e-244
4.39438e-244
-1.21855e-243
2.91583e-243
-8.15155e-243
1.98869e-242
-5.60186e-242
1.39376e-241
-3.95324e-241
1.00342e-240
-2.86363e-240
7.41804e-240
-2.12819e-239
5.6288e-239
-1.62177e-238
4.38176e-238
-1.26645e-237
3.4974e-237
-1.01279e-236
2.86046e-236
-8.2884e-236
2.39568e-235
-6.93583e-235
2.05313e-234
-5.9298e-234
1.79906e-233
-5.8522e-233
1.87825e-232
-5.64978e-232
1.84975e-231
-5.32308e-231
1.782e-230
-4.88971e-230
1.67542e-229
-4.37452e-229
1.53576e-228
-3.80723e-228
1.37101e-227
-3.21949e-227
1.19061e-226
-2.64174e-226
1.00455e-225
-2.10039e-225
8.22356e-225
-1.61569e-224
6.5224e-224
-1.20045e-223
5.00422e-223
-8.59985e-223
3.70781e-222
-5.9288e-222
2.64826e-221
-3.9253e-221
1.81976e-220
-2.49022e-220
1.20049e-219
-1.51011e-219
7.58581e-219
-8.73061e-219
4.57999e-218
-4.79849e-218
2.635e-217
-2.49946e-217
1.44043e-216
7.4582e-216
-1.37237e-254
2.24652e-254
-5.50048e-254
9.59076e-254
-2.26107e-253
4.02954e-253
-9.55587e-253
1.73634e-252
-4.1531e-252
7.6921e-252
-1.85639e-251
3.50424e-251
-8.53478e-251
1.64182e-250
-4.03621e-250
7.91177e-250
-1.9635e-249
3.92163e-249
-9.82595e-249
1.99951e-248
-5.05832e-248
1.04871e-247
-2.67866e-247
5.65796e-247
-1.45911e-246
3.14001e-246
-8.17494e-246
1.79244e-245
-4.71045e-245
1.05238e-244
-2.79101e-244
6.35425e-244
-1.70024e-243
3.94514e-243
-1.06468e-242
2.51822e-242
-6.85142e-242
1.65222e-241
-4.52973e-241
1.11398e-240
-3.07576e-240
7.71616e-240
-2.14415e-239
5.489e-239
-1.53388e-238
4.00857e-238
-1.1255e-237
3.00399e-237
-8.46587e-237
2.3089e-236
-6.52384e-236
1.81913e-235
-5.14693e-235
1.46825e-234
-4.1543e-234
1.21318e-233
-3.42769e-233
1.02548e-232
-2.88865e-232
8.86033e-232
-2.80821e-231
9.11864e-231
-2.67002e-230
8.84644e-230
-2.477e-229
8.39391e-229
-2.23991e-228
7.77117e-228
-1.97227e-227
7.01288e-227
-1.68904e-226
6.1621e-226
-1.40514e-225
5.266e-225
-1.13405e-224
4.3713e-224
-8.86673e-224
3.51994e-223
-6.70582e-223
2.74555e-222
-4.89765e-222
2.07117e-221
-3.44828e-221
1.50859e-220
-2.336e-220
1.05902e-219
-1.51951e-219
7.15119e-219
-9.4697e-219
4.63526e-218
-5.64059e-218
2.87745e-217
-3.20287e-217
1.70652e-216
-1.72886e-216
9.64355e-216
-8.84417e-216
5.17768e-215
2.6331e-214
-7.73273e-253
1.27042e-252
-3.07297e-252
5.38159e-252
-1.25214e-251
2.24185e-251
-5.24438e-251
9.57555e-251
-2.25835e-250
4.20398e-250
-9.99969e-250
1.89759e-249
-4.55319e-249
8.80711e-249
-2.13209e-248
4.20327e-248
-1.02677e-247
2.06296e-247
-5.08547e-247
1.04126e-246
-2.59046e-246
5.40511e-246
-1.35707e-245
2.88553e-245
-7.3111e-245
1.5842e-244
-4.05032e-244
8.94416e-244
-2.30714e-243
5.19253e-243
-1.35107e-242
3.09943e-242
-8.13258e-242
1.9019e-241
-5.03076e-241
1.19957e-240
-3.19733e-240
7.775e-240
-2.08722e-239
5.17736e-239
-1.39903e-238
3.54099e-238
-9.62508e-238
2.48659e-237
-6.79371e-237
1.79218e-236
-4.91721e-236
1.32515e-235
-3.6475e-235
1.00471e-234
-2.77118e-234
7.80648e-234
-2.15494e-233
6.21214e-233
-1.71394e-232
5.05945e-232
-1.39316e-231
4.21433e-231
-1.15632e-230
3.58727e-230
-1.10637e-229
3.63616e-229
-1.03516e-228
3.47205e-228
-9.44848e-228
3.24207e-227
-8.40484e-227
2.95328e-226
-7.27868e-226
2.62178e-225
-6.1297e-225
2.26587e-224
-5.01372e-224
1.90422e-223
-3.97782e-223
1.5542e-222
-3.05693e-222
1.23034e-221
-2.27208e-221
9.43292e-221
-1.63062e-220
6.99362e-220
-1.12802e-219
5.00577e-219
-7.50741e-219
3.45282e-218
-4.79729e-218
2.29073e-217
-2.93683e-217
1.4587e-216
-1.71834e-216
8.89565e-216
-9.58457e-216
5.18267e-215
-5.08232e-215
2.87712e-214
-2.55431e-214
1.51762e-213
7.58326e-213
-4.20224e-251
6.94743e-251
-1.65026e-250
2.91155e-250
-6.64261e-250
1.19858e-249
-2.74761e-249
5.05723e-249
-1.16818e-248
2.19271e-248
-5.10565e-248
9.77195e-248
-2.29409e-247
4.47668e-247
-1.05978e-246
2.10834e-246
-5.0337e-246
1.02084e-245
-2.4583e-245
5.08196e-245
-1.23441e-244
2.60116e-244
-6.37315e-244
1.36889e-243
-3.38297e-243
7.40671e-243
-1.84612e-242
4.12019e-242
-1.03562e-241
2.35621e-241
-5.97112e-241
1.38507e-240
-3.53801e-240
8.36823e-240
-2.15389e-239
5.19549e-239
-1.34692e-238
3.31408e-238
-8.64966e-238
2.17141e-237
-5.70229e-237
1.46096e-236
-3.85772e-236
1.00904e-235
-2.67705e-235
7.15149e-235
-1.90464e-234
5.19887e-234
-1.38853e-233
3.87464e-233
-1.03662e-232
2.95884e-232
-7.91971e-232
2.31369e-231
-6.18757e-231
1.85137e-230
-4.93976e-230
1.51487e-229
-4.02629e-229
1.26649e-228
-3.78061e-228
1.26069e-227
-3.47144e-227
1.1814e-226
-3.1095e-226
1.08264e-225
-2.71442e-225
9.6784e-225
-2.30683e-224
8.4319e-224
-1.90642e-223
7.15137e-223
-1.53023e-222
5.89791e-222
-1.19144e-221
4.72409e-221
-8.98571e-221
3.67008e-220
-6.55466e-220
2.76154e-219
-4.61705e-219
2.00947e-218
-3.13503e-218
1.41172e-217
-2.0482e-217
9.5584e-217
-1.28493e-216
6.22527e-216
-7.72361e-216
3.89202e-215
-4.43792e-215
2.33062e-214
-2.43139e-214
1.33354e-213
-1.26666e-213
7.27213e-213
-6.25618e-213
3.76903e-212
1.85104e-211
-2.84181e-249
4.76505e-249
-1.09271e-248
1.95963e-248
-4.30367e-248
7.8986e-248
-1.74102e-247
3.26096e-247
-7.23628e-247
1.38281e-246
-3.09046e-246
6.02442e-246
-1.35633e-245
2.69685e-245
-6.11754e-245
1.24057e-244
-2.83584e-244
5.86471e-244
-1.35113e-243
2.84939e-243
-6.61659e-243
1.42284e-242
-3.33037e-242
7.30247e-242
-1.72292e-241
3.85204e-241
-9.16071e-241
2.08839e-240
-5.00561e-240
1.16362e-239
-2.81064e-239
6.66285e-239
-1.6215e-238
3.92025e-238
-9.60994e-238
2.36982e-237
-5.84962e-237
1.47161e-236
-3.65623e-236
9.38552e-236
-2.34591e-235
6.14618e-235
-1.54461e-234
4.13151e-234
-1.04323e-233
2.84985e-233
-7.22441e-233
2.01638e-232
-5.1269e-232
1.46272e-231
-3.72634e-231
1.08733e-230
-2.77211e-230
8.27779e-230
-2.10932e-229
6.44972e-229
-1.6404e-228
5.13979e-228
-1.30282e-227
4.18596e-227
-1.19145e-226
4.06013e-226
-1.06609e-225
3.70566e-225
-9.31017e-225
3.30921e-224
-7.9277e-224
2.88424e-223
-6.57526e-223
2.45109e-222
-5.30601e-222
2.02886e-221
-4.1609e-221
1.63387e-220
-3.16671e-220
1.27857e-219
-2.33572e-219
9.70938e-219
-1.66714e-218
7.14504e-218
-1.14964e-217
5.08741e-217
-7.6459e-217
3.49904e-216
-4.89514e-216
2.32054e-215
-3.01089e-215
1.4811e-214
-1.77532e-214
9.07917e-214
-1.00114e-213
5.33346e-213
-5.38595e-213
2.99531e-212
-2.75675e-212
1.6041e-211
-1.33856e-211
8.16929e-211
3.94482e-210
-2.84721e-247
4.87262e-247
-1.06363e-246
1.95346e-246
-4.0652e-246
7.64965e-246
-1.59446e-245
3.06473e-245
-6.41962e-245
1.26001e-244
-2.65348e-244
5.31754e-244
-1.12609e-243
2.30383e-243
-4.90695e-243
1.02478e-242
-2.19563e-242
4.68036e-242
-1.00887e-241
2.19496e-241
-4.7605e-241
1.05704e-240
-2.30687e-240
5.22738e-240
-1.14802e-239
2.65471e-239
-5.86713e-239
1.3845e-238
-3.07922e-238
7.41486e-238
-1.65948e-237
4.0779e-237
-9.18318e-237
2.3029e-236
-5.21747e-236
1.33531e-235
-3.04313e-235
7.94922e-235
-1.82184e-234
4.85784e-234
-1.11929e-233
3.047e-233
-7.05546e-233
1.96124e-232
-4.56175e-232
1.29514e-231
-3.02425e-231
8.77224e-231
-2.055e-230
6.09205e-230
-1.43059e-229
4.33614e-229
-1.01978e-228
3.16176e-228
-7.43954e-228
2.36056e-227
-5.551e-227
1.80354e-226
-4.23343e-226
1.40926e-225
-3.71663e-225
1.31256e-224
-3.19728e-224
1.15002e-223
-2.68837e-223
9.87355e-223
-2.20739e-222
8.2855e-222
-1.76816e-221
6.78958e-221
-1.38019e-220
5.42761e-220
-1.04859e-219
4.22798e-219
-7.74369e-219
3.20539e-218
-5.55061e-218
2.36194e-217
-3.85574e-217
1.68913e-216
-2.59131e-216
1.1705e-215
-1.68187e-215
7.8461e-215
-1.05217e-214
5.07819e-214
-6.33136e-214
3.16722e-213
-3.65646e-213
1.89951e-212
-2.02183e-212
1.09299e-211
-1.06769e-211
6.01934e-211
-5.3701e-211
3.16462e-210
-2.56503e-210
1.58394e-209
7.52533e-209
-3.57578e-245
6.2382e-245
-1.29892e-244
2.44027e-244
-4.82124e-244
9.2921e-244
-1.83454e-243
3.61532e-243
-7.15831e-243
1.442e-242
-2.86445e-242
5.89777e-242
-1.17555e-241
2.47371e-241
-4.94795e-241
1.06407e-240
-2.13601e-240
4.69423e-240
-9.4576e-240
2.12394e-239
-4.29492e-239
9.85613e-239
-2.00041e-238
4.69088e-238
-9.55568e-238
2.28971e-237
-4.68129e-237
1.14622e-236
-2.35184e-236
5.88444e-236
-1.21161e-235
3.09789e-235
-6.4003e-235
1.67234e-234
-3.46642e-234
9.25654e-234
-1.92469e-233
5.25292e-233
-1.09545e-232
3.05588e-232
-6.39025e-232
1.82224e-231
-3.82006e-231
1.11366e-230
-2.33978e-230
6.97439e-230
-1.46806e-229
4.475e-229
-9.43346e-229
2.94119e-228
-6.20644e-228
1.97966e-227
-4.17955e-227
1.3642e-226
-2.8801e-226
9.62182e-226
-2.0302e-225
6.94379e-225
-1.46346e-224
5.12576e-224
-1.21315e-223
4.5123e-223
-9.87166e-223
3.73295e-222
-7.86635e-222
3.03145e-221
-6.13485e-221
2.41079e-220
-4.67913e-220
1.87634e-219
-3.48713e-219
1.42818e-218
-2.53657e-218
1.06214e-217
-1.79869e-217
7.7096e-217
-1.24158e-216
5.45482e-216
-8.32918e-216
3.75658e-215
-5.42081e-215
2.51396e-214
-3.41601e-214
1.63189e-213
-2.07998e-213
1.0255e-212
-1.22099e-212
6.22533e-212
-6.89366e-212
3.64241e-211
-3.73406e-211
2.04912e-210
-1.93533e-210
1.10558e-209
-9.57093e-210
5.70541e-209
-4.50298e-209
2.80824e-208
1.31445e-207
-4.59746e-243
8.16159e-243
-1.62672e-242
3.11992e-242
-5.87445e-242
1.15718e-241
-2.17281e-241
4.38038e-241
-8.23373e-241
1.69829e-240
-3.19678e-240
6.74569e-240
-1.27167e-239
2.74519e-239
-5.18306e-239
1.1446e-238
-2.16439e-238
4.88961e-238
-9.26001e-238
2.14004e-237
-4.05873e-237
9.5958e-237
-1.8224e-236
4.4079e-236
-8.38185e-236
2.07417e-235
-3.94854e-235
9.99736e-235
-1.90498e-234
4.93529e-234
-9.41124e-234
2.49506e-233
-4.76051e-233
1.29163e-232
-2.46517e-232
6.84585e-232
-1.30666e-231
3.7144e-231
-7.08806e-231
2.06279e-230
-3.93429e-230
1.17234e-229
-2.23408e-229
6.81722e-229
-1.29759e-228
4.05542e-228
-7.70719e-228
2.46746e-227
-4.68033e-227
1.53519e-226
-2.90525e-226
9.76505e-226
-1.84301e-225
6.34874e-225
-1.19466e-224
4.21805e-224
-7.91216e-224
2.86337e-223
-5.35391e-223
1.98585e-222
-4.15475e-222
1.64098e-221
-3.16668e-221
1.27081e-220
-2.36572e-220
9.66594e-220
-1.73231e-219
7.20625e-219
-1.24319e-218
5.26589e-218
-8.74104e-218
3.77116e-217
-6.01817e-217
2.64594e-216
-4.05393e-216
1.81775e-215
-2.6687e-215
1.22171e-214
-1.71438e-214
8.02375e-214
-1.07283e-213
5.14179e-213
-6.52682e-213
3.20929e-212
-3.85153e-212
1.94701e-211
-2.19919e-211
1.14551e-210
-1.21186e-210
6.51958e-210
-6.42713e-210
3.57999e-209
-3.27122e-209
1.89137e-208
-1.5931e-208
9.58634e-208
-7.40094e-208
4.64739e-207
2.14838e-206
-5.58005e-241
1.00767e-240
-1.92325e-240
3.76448e-240
-6.75782e-240
1.36008e-239
-2.43005e-239
5.00944e-239
-8.9452e-239
1.88818e-238
-3.37087e-238
7.28542e-238
-1.30037e-237
2.87762e-237
-5.13516e-237
1.16352e-236
-2.0758e-236
4.81581e-236
-8.58881e-236
2.0403e-235
-3.63718e-235
8.8476e-235
-1.57629e-234
3.92669e-234
-6.99041e-234
1.78343e-233
-3.17179e-233
8.28824e-233
-1.47224e-232
3.94085e-232
-6.98971e-232
1.9168e-231
-3.39367e-231
9.53569e-231
-1.68472e-230
4.85111e-230
-8.54968e-230
2.52326e-229
-4.43445e-229
1.34162e-228
-2.35016e-228
7.29029e-228
-1.27239e-227
4.04772e-227
-7.03543e-227
2.29572e-226
-3.97187e-226
1.32971e-225
-2.28881e-225
7.86327e-225
-1.3459e-224
4.74611e-224
-8.07403e-224
2.92303e-223
-4.94044e-223
1.83643e-222
-3.08325e-222
1.17675e-221
-1.9627e-221
7.69001e-221
-1.42738e-220
5.97769e-220
-1.01886e-219
4.33807e-219
-7.12485e-219
3.08995e-218
-4.88383e-218
2.15621e-217
-3.28335e-217
1.47486e-216
-2.16595e-216
9.89401e-216
-1.40241e-215
6.51261e-215
-8.91225e-215
4.20738e-214
-5.55666e-214
2.66764e-213
-3.39611e-213
1.65928e-212
-2.03192e-212
1.01159e-211
-1.18795e-211
6.03657e-211
-6.77154e-211
3.51944e-210
-3.75356e-210
2.00018e-209
-2.01757e-209
1.10518e-208
-1.04839e-208
5.91997e-208
-5.24996e-208
3.06473e-207
-2.52537e-207
1.52852e-206
-1.16306e-206
7.32052e-206
3.35567e-205
-6.23554e-239
1.14579e-238
-2.09202e-238
4.18088e-238
-7.14718e-238
1.47035e-237
-2.49682e-237
5.26551e-237
-8.92193e-237
1.92813e-236
-3.26105e-236
7.22174e-236