/*--------------------------------*- C++ -*----------------------------------*\
  =========                 |
  \\      /  F ield         | OpenFOAM: The Open Source CFD Toolbox
   \\    /   O peration     | Website:  https://openfoam.org
    \\  /    A nd           | Version:  9
     \\/     M anipulation  |
\*---------------------------------------------------------------------------*/
FoamFile
{
    format      ascii;
    class       volScalarField;
    location    "0.03";
    object      alpha.water;
}
// * * * * * * * * * * * * * * * * * * * * * * * * * * * * * * * * * * * * * //

dimensions      [0 0 0 0 0 0 0];

internalField   nonuniform List<scalar> 
5000
(
2.18506e-282
9.21873e-282
3.83846e-281
1.641e-280
7.21945e-280
3.26923e-279
1.52399e-278
7.31406e-278
3.61416e-277
1.83888e-276
9.63408e-276
5.19738e-275
2.88715e-274
1.65137e-273
9.72485e-273
5.89572e-272
3.67916e-271
2.36291e-270
1.5615e-269
1.06152e-268
7.42137e-268
5.33416e-267
3.94012e-266
2.98967e-265
2.32914e-264
1.862e-263
1.52655e-262
1.28262e-261
1.10364e-260
9.71724e-260
8.74724e-259
9.11091e-258
9.2834e-257
9.23301e-256
8.95423e-255
8.45839e-254
7.77342e-253
6.94146e-252
6.01469e-251
5.0497e-250
4.10132e-249
3.21703e-248
2.43258e-247
1.76973e-246
1.2361e-245
8.27003e-245
5.28681e-244
3.22061e-243
1.86408e-242
1.02184e-241
1.07513e-279
4.5326e-279
1.8858e-278
8.05577e-278
3.54127e-277
1.60232e-276
7.46335e-276
3.57892e-275
1.767e-274
8.98292e-274
4.70227e-273
2.53461e-272
1.40678e-271
8.03952e-271
4.73039e-270
2.86537e-269
1.7866e-268
1.14647e-267
7.57007e-267
5.14204e-266
3.59209e-265
2.57985e-264
1.90421e-263
1.44384e-262
1.12407e-261
8.9805e-261
7.35822e-260
6.17907e-259
5.31427e-258
4.67712e-257
4.20882e-256
4.3826e-255
4.46492e-254
4.44062e-253
4.30708e-252
4.0697e-251
3.74174e-250
3.34327e-249
2.89914e-248
2.43632e-247
1.98102e-246
1.55596e-245
1.17836e-244
8.58762e-244
6.00986e-243
4.02955e-242
2.58208e-241
1.57699e-240
9.15285e-240
5.03218e-239
4.0682e-277
1.71434e-276
7.12931e-276
3.04416e-275
1.3376e-274
6.0496e-274
2.81655e-273
1.35003e-272
6.66249e-272
3.38551e-271
1.77143e-270
9.5442e-270
5.29502e-269
3.02476e-268
1.77902e-267
1.0772e-266
6.71394e-266
4.30682e-265
2.84281e-264
1.9304e-263
1.34815e-262
9.68001e-262
7.14336e-261
5.41541e-260
4.21553e-259
3.36764e-258
2.75924e-257
2.31717e-256
1.99309e-255
1.75447e-254
1.57924e-253
1.64506e-252
1.67681e-251
1.66875e-250
1.61983e-249
1.53197e-248
1.41004e-247
1.26145e-246
1.09543e-245
9.22022e-245
7.51047e-244
5.9106e-243
4.48588e-242
3.27692e-241
2.29914e-240
1.54579e-239
9.93437e-239
6.08639e-238
3.54426e-237
1.95542e-236
1.48144e-274
6.24049e-274
2.59421e-273
1.10729e-272
4.86362e-272
2.19887e-271
1.02336e-270
4.90339e-270
2.41898e-269
1.22875e-268
6.42701e-268
3.46158e-267
1.9198e-266
1.09632e-265
6.446e-265
3.90189e-264
2.43128e-263
1.5592e-262
1.02894e-261
6.98557e-261
4.87769e-260
3.5018e-259
2.58388e-258
1.95873e-257
1.52472e-256
1.21809e-255
9.98126e-255
8.38348e-254
7.21264e-253
6.35105e-252
5.719e-251
5.96033e-250
6.07914e-249
6.05446e-248
5.88217e-247
5.56885e-246
5.13166e-245
4.597e-244
3.99793e-243
3.37064e-242
2.75064e-241
2.16905e-240
1.64981e-239
1.20804e-238
8.49744e-238
5.72875e-237
3.69246e-236
2.26922e-235
1.32574e-234
7.33935e-234
5.39159e-272
2.27021e-271
9.43329e-271
4.02466e-270
1.76701e-269
7.98528e-269
3.71479e-268
1.77915e-267
8.77331e-267
4.45463e-266
2.32903e-265
1.25389e-264
6.95132e-264
3.96806e-263
2.33221e-262
1.41122e-261
8.7903e-261
5.63546e-260
3.71781e-259
2.52335e-258
1.7615e-257
1.26434e-256
9.32761e-256
7.06991e-255
5.50287e-254
4.39605e-253
3.60226e-252
3.02585e-251
2.60364e-250
2.29313e-249
2.06554e-248
2.15357e-247
2.19764e-246
2.19012e-245
2.12943e-244
2.01782e-243
1.86134e-242
1.66938e-241
1.45377e-240
1.22749e-239
1.00336e-238
7.92644e-238
6.04093e-237
4.43284e-236
3.12533e-235
2.11226e-234
1.36507e-233
8.41279e-233
4.92962e-232
2.73762e-231
1.96932e-269
8.28774e-269
3.44193e-268
1.46769e-267
6.44039e-267
2.90892e-266
1.35252e-265
6.47429e-265
3.19089e-264
1.61931e-263
8.46187e-263
4.55332e-262
2.52298e-261
1.43949e-260
8.4564e-260
5.11454e-259
3.18433e-258
2.04058e-257
1.34565e-256
9.12959e-256
6.37087e-255
4.57129e-254
3.37144e-253
2.55474e-252
1.98806e-251
1.58793e-250
1.30105e-249
1.09281e-248
9.40332e-248
8.28253e-247
7.46171e-246
7.78169e-245
7.9438e-244
7.9204e-243
7.7055e-242
7.30687e-241
6.74595e-240
6.05621e-239
5.27992e-238
4.46376e-237
3.65386e-236
2.89104e-235
2.20712e-234
1.62263e-233
1.14635e-232
7.76463e-232
5.02976e-231
3.10755e-230
1.82576e-229
1.01676e-228
7.21441e-267
3.0342e-266
1.25931e-265
5.36643e-265
2.35332e-264
1.06223e-263
4.93572e-263
2.36112e-262
1.16294e-261
5.89793e-261
3.08006e-260
1.65633e-259
9.17193e-259
5.22983e-258
3.07045e-257
1.85595e-256
1.15486e-255
7.39642e-255
4.87489e-254
3.30569e-253
2.30567e-252
1.65363e-251
1.21907e-250
9.23407e-250
7.18331e-249
5.73581e-248
4.69839e-247
3.94559e-246
3.39461e-245
2.98979e-244
2.6935e-243
2.80927e-242
2.86836e-241
2.86077e-240
2.7843e-239
2.64165e-238
2.44044e-237
2.1926e-236
1.91328e-235
1.6192e-234
1.32697e-233
1.05131e-232
8.03778e-232
5.91868e-231
4.18871e-230
2.84253e-229
1.84509e-228
1.14245e-227
6.72783e-227
3.75602e-226
2.64751e-264
1.11263e-263
4.61436e-263
1.96488e-262
8.60991e-262
3.88334e-261
1.80304e-260
8.6187e-260
4.24181e-259
2.14962e-258
1.12174e-257
6.02775e-257
3.33539e-256
1.90044e-255
1.11495e-254
6.73454e-254
4.18761e-253
2.68017e-252
1.7653e-251
1.19629e-250
8.33881e-250
5.97708e-249
4.40391e-248
3.33407e-247
2.59237e-246
2.06907e-245
1.69417e-244
1.42223e-243
1.22328e-242
1.07715e-241
9.70254e-241
1.01189e-239
1.0332e-238
1.03059e-237
1.00327e-236
9.52184e-236
8.80047e-235
7.91118e-234
6.90801e-233
5.85092e-232
4.79939e-231
3.80643e-230
2.91366e-229
2.14834e-228
1.52263e-227
1.03494e-226
6.72949e-226
4.17463e-225
2.4634e-224
1.37827e-223
9.72044e-262
4.08145e-261
1.69121e-260
7.19512e-260
3.15005e-259
1.41952e-258
6.585e-258
3.14491e-257
1.54645e-256
7.83002e-256
4.08238e-255
2.19178e-254
1.21175e-253
6.89837e-253
4.04368e-252
2.44044e-251
1.51624e-250
9.69648e-250
6.38155e-249
4.32126e-248
3.00991e-247
2.15589e-246
1.58736e-245
1.20095e-244
9.33206e-244
7.44394e-243
6.09189e-242
5.11156e-241
4.39458e-240
3.86818e-239
3.48319e-238
3.63181e-237
3.70776e-236
3.69821e-235
3.60031e-234
3.41746e-233
3.15931e-232
2.84105e-231
2.48192e-230
2.10333e-229
1.7265e-228
1.37041e-227
1.04997e-226
7.74996e-226
5.49926e-225
3.7428e-224
2.43722e-223
1.51433e-222
8.95137e-222
5.01768e-221
3.56189e-259
1.49403e-258
6.18443e-258
2.62843e-257
1.14955e-256
5.17488e-256
2.39809e-255
1.14411e-254
5.62009e-254
2.84264e-253
1.48055e-252
7.94067e-252
4.38556e-251
2.49411e-250
1.46052e-249
8.80562e-249
5.46547e-248
3.49178e-247
2.29582e-246
1.55313e-245
1.0808e-244
7.73433e-244
5.68966e-243
4.30094e-242
3.33929e-241
2.66154e-240
2.17646e-239
1.8249e-238
1.56787e-237
1.3792e-236
1.24122e-235
1.29352e-234
1.32e-233
1.31613e-232
1.28093e-231
1.21563e-230
1.12368e-229
1.01045e-228
8.82778e-228
7.48232e-227
6.14334e-226
4.87794e-225
3.73899e-224
2.7613e-223
1.96065e-222
1.33542e-221
8.70335e-221
5.41291e-220
3.20308e-219
1.79764e-218
1.13907e-256
4.76416e-256
1.96601e-255
8.32906e-255
3.63079e-254
1.62894e-253
7.52248e-253
3.5761e-252
1.75019e-251
8.81898e-251
4.57536e-250
2.44408e-249
1.34427e-248
7.61248e-248
4.43822e-247
2.66377e-246
1.64565e-245
1.04633e-244
6.8455e-244
4.60737e-243
3.18931e-242
2.26989e-241
1.66044e-240
1.24788e-239
9.63049e-239
7.62822e-238
6.19786e-237
5.16213e-236
4.40443e-235
3.84667e-234
3.43608e-233
3.55249e-232
3.5955e-231
3.55449e-230
3.42891e-229
3.22429e-228
2.95197e-227
2.62815e-226
2.2723e-225
1.90514e-224
1.54653e-223
1.21344e-222
9.18574e-222
6.69546e-221
4.68902e-220
3.14775e-219
2.02038e-218
1.23645e-217
7.19317e-217
3.96503e-216
2.18156e-254
9.07094e-254
3.71916e-253
1.56513e-252
6.77592e-252
3.01858e-251
1.38389e-250
6.52996e-250
3.17146e-249
1.58552e-248
8.1596e-248
4.3227e-247
2.35736e-246
1.32333e-245
7.64635e-245
4.5472e-244
2.78281e-243
1.7523e-242
1.13509e-241
7.56231e-241
5.1804e-240
3.64772e-239
2.6392e-238
1.96126e-237
1.49625e-236
1.17123e-235
9.40149e-235
7.73367e-234
6.51495e-233
5.61605e-232
4.94984e-231
5.04584e-230
5.0341e-229
4.90427e-228
4.66078e-227
4.31627e-226
3.89067e-225
3.40927e-224
2.90025e-223
2.39174e-222
1.90903e-221
1.47231e-220
1.09513e-219
7.84073e-219
5.39173e-218
3.55275e-217
2.23749e-216
1.34313e-215
7.6618e-215
4.13982e-214
2.6468e-252
1.09327e-251
4.44998e-251
1.85864e-250
7.98469e-250
3.52899e-249
1.60481e-248
7.50955e-248
3.61622e-247
1.79213e-246
9.14056e-246
4.79811e-245
2.59213e-244
1.44117e-243
8.24554e-243
4.85429e-242
2.94022e-241
1.83195e-240
1.17392e-239
7.73502e-239
5.23912e-238
3.64664e-237
2.6074e-236
1.91433e-235
1.4425e-234
1.11498e-233
8.83499e-233
7.17224e-232
5.96089e-231
5.06793e-230
4.40409e-229
4.42341e-228
4.3472e-227
4.17074e-226
3.90243e-225
3.55719e-224
3.15521e-223
2.71991e-222
2.27562e-221
1.84514e-220
1.44765e-219
1.09714e-218
8.01738e-218
5.63776e-217
3.80673e-216
2.46238e-215
1.52202e-214
8.96504e-214
5.01715e-213
2.6591e-212
2.28506e-250
9.3737e-250
3.78664e-249
1.56928e-248
6.68787e-248
2.93171e-247
1.32204e-246
6.13342e-246
2.92766e-245
1.43788e-244
7.2664e-244
3.77849e-243
2.02168e-242
1.11297e-241
6.30378e-241
3.67303e-240
2.20139e-239
1.3569e-238
8.59983e-238
5.60304e-237
3.7517e-236
2.58086e-235
1.82336e-234
1.32241e-233
9.84094e-233
7.51007e-232
5.87389e-231
4.70539e-230
3.8579e-229
3.23479e-228
2.77155e-227
2.74268e-226
2.65518e-225
2.50879e-224
2.31125e-223
2.07385e-222
1.81031e-221
1.53542e-220
1.26361e-219
1.00759e-218
7.77239e-218
5.79014e-217
4.15808e-216
2.87281e-215
1.90546e-214
1.21051e-213
7.34721e-213
4.24892e-212
2.33431e-211
1.21444e-210
1.53268e-248
6.24272e-248
2.50224e-247
1.02869e-246
4.34801e-246
1.88999e-245
8.44953e-245
3.88552e-244
1.83797e-243
8.94373e-243
4.47718e-242
2.30567e-241
1.22149e-240
6.6568e-240
3.73156e-239
2.15141e-238
1.27557e-237
7.77618e-237
4.87325e-236
3.13877e-235
2.07715e-234
1.41189e-233
9.85375e-233
7.05797e-232
5.1859e-231
3.90656e-230
3.01526e-229
2.38302e-228
1.92707e-227
1.59326e-226
1.34567e-225
1.31181e-224
1.25081e-223
1.16377e-222
1.05551e-221
9.322e-221
8.00765e-220
6.68202e-219
5.40918e-218
4.24176e-217
3.21715e-216
2.35601e-215
1.66291e-214
1.12901e-213
7.35759e-213
4.59185e-212
2.73763e-211
1.555e-210
8.39046e-210
4.28728e-209
8.6674e-247
3.50296e-246
1.39215e-245
5.67309e-245
2.37637e-244
1.02347e-243
4.53264e-243
2.06431e-242
9.66883e-242
4.65767e-241
2.30765e-240
1.17592e-239
6.16295e-239
3.32184e-238
1.84127e-237
1.04945e-236
6.1497e-236
3.70443e-235
2.29338e-234
1.45887e-233
9.53275e-233
6.39649e-232
4.40579e-231
3.11371e-230
2.25679e-229
1.67657e-228
1.27585e-227
9.93894e-227
7.92018e-226
6.45117e-225
5.36648e-224
5.14908e-223
4.83159e-222
4.4231e-221
3.94643e-220
3.42813e-219
2.89591e-218
2.37601e-217
1.89087e-216
1.45748e-215
1.08642e-214
7.81832e-214
5.42213e-213
3.61676e-212
2.31552e-211
1.41962e-210
8.31421e-210
4.63922e-209
2.45923e-208
1.23464e-207
4.7399e-245
1.89519e-244
7.44306e-244
2.99623e-243
1.23949e-242
5.27066e-242
2.30401e-241
1.03547e-240
4.78471e-240
2.27329e-239
1.11058e-238
5.57879e-238
2.88152e-237
1.5303e-236
8.35553e-236
4.69002e-235
2.70596e-234
1.60453e-233
9.77609e-233
6.11893e-232
3.93331e-231
2.59583e-230
1.7582e-229
1.22167e-228
8.70393e-228
6.35506e-227
4.75225e-226
3.6372e-225
2.84721e-224
2.27779e-223
1.86077e-222
1.75219e-221
1.61359e-220
1.44967e-219
1.26933e-218
1.08207e-217
8.97035e-217
7.22274e-216
5.641e-215
4.26727e-214
3.12187e-213
2.2051e-212
1.50111e-211
9.8295e-211
6.17844e-210
3.71946e-209
2.13934e-208
1.17259e-207
6.10731e-207
3.01353e-206
3.25098e-243
1.27557e-242
4.90502e-242
1.93204e-241
7.81685e-241
3.24944e-240
1.38802e-239
6.09305e-239
2.74889e-238
1.27465e-237
6.07511e-237
2.97617e-236
1.49867e-235
7.75692e-235
4.12659e-234
2.25623e-233
1.26772e-232
7.31914e-232
4.3413e-231
2.64496e-230
1.65484e-229
1.06293e-228
7.00688e-228
4.73858e-227
3.28609e-226
2.33558e-225
1.70037e-224
1.26721e-223
9.6611e-223
7.52916e-222
5.99329e-221
5.49654e-220
4.9326e-219
4.32055e-218
3.69023e-217
3.07018e-216
2.48527e-215
1.95502e-214
1.4925e-213
1.10419e-212
7.9044e-212
5.46593e-211
3.6446e-210
2.33877e-209
1.44136e-208
8.51204e-208
4.80532e-207
2.5865e-206
1.32371e-205
6.42188e-205
3.32439e-241
1.27157e-240
4.75048e-240
1.8158e-239
7.12283e-239
2.86823e-238
1.18577e-237
5.03331e-237
2.19384e-236
9.81928e-236
4.51339e-235
2.13054e-234
1.03288e-233
5.14268e-233
2.62969e-232
1.38097e-231
7.44748e-231
4.12433e-230
2.34519e-229
1.36909e-228
8.20447e-228
5.0461e-227
3.18457e-226
2.06166e-225
1.36871e-224
9.31472e-224
6.49519e-223
4.63832e-222
3.39036e-221
2.53502e-220
1.93768e-219
1.70597e-218
1.47186e-217
1.24128e-216
1.02231e-215
8.21416e-215
6.4318e-214
4.90176e-213
3.63108e-212
2.61062e-211
1.8188e-210
1.22576e-209
7.97633e-209
5.00159e-208
3.01572e-207
1.74444e-206
9.65694e-206
5.10275e-205
2.56646e-204
1.22501e-203
4.25609e-239
1.58846e-238
5.77052e-238
2.14206e-237
8.15176e-237
3.18127e-236
1.27324e-235
5.22645e-235
2.20041e-234
9.5019e-234
4.20858e-233
1.91196e-232
8.90905e-232
4.25781e-231
2.08703e-230
1.04914e-229
5.40858e-229
2.85919e-228
1.54981e-227
8.61295e-227
4.90695e-226
2.86553e-225
1.71502e-224
1.05179e-223
6.60853e-223
4.25297e-222
2.80271e-221
1.89077e-220
1.30543e-219
9.22119e-219
6.66195e-218
5.53806e-217
4.51945e-216
3.61204e-215
2.82547e-214
2.16163e-213
1.61594e-212
1.17909e-211
8.38667e-211
5.80653e-210
3.90671e-209
2.54966e-208
1.61088e-207
9.83155e-207
5.78313e-206
3.27059e-205
1.77374e-204
9.19964e-204
4.55013e-203
2.13963e-202
5.56836e-237
2.03089e-236
7.18635e-236
2.59539e-235
9.60082e-235
3.63872e-234
1.41301e-233
5.62216e-233
2.29206e-232
9.57424e-232
4.09757e-231
1.79669e-230
8.07078e-230
3.71384e-229
1.75048e-228
8.45028e-228
4.17753e-227
2.11469e-226
1.09596e-225
5.81429e-225
3.15709e-224
1.75425e-223
9.97308e-223
5.7999e-222
3.44967e-221
2.09802e-220
1.30443e-219
8.28951e-219
5.38358e-218
3.57283e-217
2.42297e-216
1.8855e-215
1.44119e-214
1.0798e-213
7.93041e-213
5.70843e-212
4.02593e-211
2.78031e-210
1.87855e-209
1.24035e-208
7.99111e-208
5.0146e-207
3.05866e-206
1.80921e-205
1.03519e-204
5.71425e-204
3.03452e-203
1.54576e-202
7.52998e-202
3.49697e-201
6.87501e-235
2.45049e-234
8.4465e-234
2.96815e-233
1.06745e-232
3.92995e-232
1.48121e-231
5.71526e-231
2.25753e-230
9.12836e-230
3.77822e-229
1.60061e-228
6.93976e-228
3.07907e-227
1.39783e-226
6.49216e-226
3.0843e-225
1.4986e-224
7.44548e-224
3.78179e-223
1.96339e-222
1.04165e-221
5.64602e-221
3.12577e-220
1.76706e-219
1.01978e-218
6.00622e-218
3.60935e-217
2.21266e-216
1.38367e-215
8.82705e-215
6.43697e-214
4.60753e-213
3.23123e-212
2.22135e-211
1.49781e-210
9.91027e-210
6.43596e-209
4.10226e-208
2.56523e-207
1.57231e-206
9.43312e-206
5.52931e-205
3.15929e-204
1.75493e-203
9.44971e-203
4.91722e-202
2.46471e-201
1.18611e-200
5.46196e-200
7.81738e-233
2.72157e-232
9.13142e-232
3.11993e-231
1.09005e-230
3.89569e-230
1.42417e-229
5.32561e-229
2.037e-228
7.96902e-228
3.18842e-227
1.30456e-226
5.45786e-226
2.33451e-225
1.02076e-224
4.56176e-224
2.0833e-223
9.72072e-223
4.63325e-222
2.25538e-221
1.12099e-220
5.68747e-220
2.94485e-219
1.55563e-218
8.38146e-218
4.60428e-217
2.57803e-216
1.47081e-215
8.54803e-215
5.0601e-214
3.05114e-213
2.09518e-212
1.41089e-211
9.29906e-211
6.00362e-210
3.80059e-209
2.36167e-208
1.44204e-207
8.65999e-207
5.11801e-206
2.977e-205
1.70346e-204
9.57714e-204
5.28033e-203
2.84776e-202
1.49776e-201
7.65612e-201
3.79002e-200
1.81025e-199
8.31161e-199
8.10842e-231
2.75528e-230
8.99053e-230
2.98382e-229
1.01181e-228
3.50684e-228
1.2423e-227
4.49796e-227
1.66442e-226
6.2942e-226
2.43226e-225
9.60351e-225
3.87391e-224
1.59628e-223
6.71811e-223
2.8873e-222
1.26698e-221
5.67537e-221
2.59468e-220
1.21044e-219
5.76077e-219
2.79632e-218
1.38405e-217
6.98316e-217
3.59054e-216
1.88075e-215
1.00326e-214
5.44819e-214
3.01107e-213
1.69335e-212
9.69038e-212
6.29526e-211
4.00832e-210
2.49602e-209
1.52146e-208
9.08902e-208
5.32899e-207
3.07148e-206
1.7433e-205
9.75948e-205
5.39604e-204
2.94866e-203
1.59226e-202
8.48693e-202
4.45562e-201
2.29708e-200
1.15865e-199
5.69459e-199
2.71541e-198
1.25079e-197
7.63002e-229
2.52881e-228
8.01734e-228
2.58208e-227
8.48957e-227
2.85069e-226
9.77609e-226
3.42383e-225
1.22453e-224
4.47199e-224
1.66753e-223
6.34808e-223
2.46693e-222
9.78497e-222
3.96087e-221
1.63599e-220
6.89387e-220
2.96319e-219
1.29895e-218
5.806e-218
2.64564e-217
1.22874e-216
5.81526e-216
2.80382e-215
1.37685e-214
6.88414e-214
3.50343e-213
1.81414e-212
9.55537e-212
5.11859e-211
2.7886e-210
1.72023e-209
1.04006e-208
6.14827e-208
3.55679e-207
2.01617e-206
1.12166e-205
6.13664e-205
3.30938e-204
1.76364e-203
9.31095e-203
4.87963e-202
2.54155e-201
1.31551e-200
6.75627e-200
3.43285e-199
1.71854e-198
8.43566e-198
4.03897e-197
1.87637e-196
6.48827e-227
2.09599e-226
6.45073e-226
2.01411e-225
6.41465e-225
2.08484e-224
6.91488e-224
2.34041e-223
8.08292e-223
2.84828e-222
1.024e-221
3.75556e-221
1.40496e-220
5.36062e-220
2.0858e-219
8.27517e-219
3.34709e-218
1.38e-217
5.79895e-217
2.48318e-216
1.0834e-215
4.81522e-215
2.17981e-214
1.00487e-213
4.7163e-213
2.25311e-212
1.09529e-211
5.41641e-211
2.72401e-210
1.39301e-209
7.24392e-209
4.2566e-208
2.45268e-207
1.38214e-206
7.624e-206
4.12197e-205
2.18816e-204
1.1431e-203
5.89318e-203
3.00822e-202
1.52584e-201
7.71638e-201
3.90053e-200
1.97281e-199
9.9744e-199
5.02584e-198
2.51178e-197
1.23778e-196
5.9762e-196
2.80897e-195
4.97082e-225
1.56422e-224
4.66943e-224
1.41217e-223
4.35278e-223
1.36812e-222
4.385e-222
1.43312e-221
4.77578e-221
1.62264e-220
5.62066e-220
1.98472e-219
7.14367e-219
2.62065e-218
9.79752e-218
3.73248e-217
1.44878e-216
5.7291e-216
2.3078e-215
9.46874e-215
3.95659e-214
1.68359e-213
7.29444e-213
3.2176e-212
1.44475e-211
6.60235e-211
3.07012e-210
1.4523e-209
6.98722e-209
3.41866e-208
1.70123e-207
9.55094e-207
5.26289e-206
2.83826e-205
1.49945e-204
7.77084e-204
3.95799e-203
1.98629e-202
9.8533e-202
4.8509e-201
2.38086e-200
1.17029e-199
5.78272e-199
2.87803e-198
1.44181e-197
7.24571e-197
3.63181e-196
1.80272e-195
8.79397e-195
4.18472e-194
3.42239e-223
1.04857e-222
3.03389e-222
8.88054e-222
2.64713e-221
8.04032e-221
2.48855e-220
7.84844e-220
2.52211e-219
8.25788e-219
2.75467e-218
9.36136e-218
3.24077e-217
1.14279e-216
4.10449e-216
1.5014e-215
5.59306e-215
2.12171e-214
8.19563e-214
3.22338e-213
1.29078e-212
5.26243e-212
2.18421e-211
9.22899e-211
3.96952e-210
1.73782e-209
7.74279e-209
3.51027e-208
1.61909e-207
7.59761e-207
3.62791e-206
1.95217e-205
1.03242e-204
5.35015e-204
2.71951e-203
1.35797e-202
6.67503e-202
3.23882e-201
1.55695e-200
7.449e-200
3.56588e-199
1.71732e-198
8.35881e-198
4.1219e-197
2.05772e-196
1.03564e-195
5.21899e-195
2.61152e-194
1.28639e-193
6.1871e-193
2.11274e-221
6.3003e-221
1.76588e-220
4.99978e-220
1.44042e-219
4.22559e-219
1.26232e-218
3.84004e-218
1.18952e-217
3.752e-217
1.20503e-216
3.94057e-216
1.31199e-215
4.4473e-215
1.53477e-214
5.39206e-214
1.92852e-213
7.0217e-213
2.6026e-212
9.8202e-212
3.77214e-211
1.47509e-210
5.87261e-210
2.38032e-209
9.82297e-209
4.12719e-208
1.76544e-207
7.68793e-207
3.40801e-206
1.53804e-205
7.06911e-205
3.65906e-204
1.86479e-203
9.32858e-203
4.58604e-202
2.21944e-201
1.05982e-200
5.00879e-200
2.35224e-199
1.10318e-198
5.19676e-198
2.47332e-197
1.19498e-196
5.87416e-196
2.9339e-195
1.48139e-194
7.50279e-194
3.77688e-193
1.87247e-192
9.06587e-192
1.16746e-219
3.38775e-219
9.19471e-219
2.51704e-218
7.00574e-218
1.98427e-217
5.71969e-217
1.67793e-216
5.0096e-216
1.52217e-215
4.70706e-215
1.48137e-214
4.74465e-214
1.54659e-213
5.13072e-213
1.73231e-212
5.95289e-212
2.0821e-211
7.41265e-211
2.68639e-210
9.91124e-210
3.72299e-209
1.424e-208
5.54672e-208
2.20052e-207
8.89254e-207
3.66077e-206
1.5353e-205
6.56025e-205
2.85671e-204
1.26843e-203
6.34284e-203
3.13015e-202
1.51985e-201
7.27125e-201
3.4345e-200
1.6058e-199
7.45659e-199
3.45341e-198
1.60335e-197
7.50488e-197
3.56094e-196
1.71969e-195
8.46348e-195
4.23497e-194
2.14206e-193
1.08623e-192
5.47177e-192
2.7136e-191
1.3142e-190
5.76496e-218
1.62793e-217
4.27798e-217
1.1321e-216
3.04384e-216
8.32319e-216
2.315e-215
6.54974e-215
1.88505e-214
5.519e-214
1.64381e-213
4.981e-213
1.53558e-212
4.8166e-212
1.53727e-211
4.9927e-211
1.65018e-210
5.55112e-210
1.90081e-209
6.62618e-209
2.35193e-208
8.50165e-208
3.13031e-207
1.17429e-206
4.48929e-206
1.74942e-205
6.95078e-205
2.81638e-204
1.16409e-203
4.91046e-203
2.1157e-202
1.02746e-201
4.93897e-201
2.34327e-200
1.09922e-199
5.11021e-199
2.36116e-198
1.08808e-197
5.02154e-197
2.33176e-196
1.09464e-195
5.21649e-195
2.52956e-194
1.24784e-193
6.24143e-193
3.14635e-192
1.58626e-191
7.93202e-191
3.90272e-190
1.87594e-189
2.53762e-216
6.97623e-216
1.77564e-215
4.54395e-215
1.18058e-214
3.11786e-214
8.37156e-214
2.28548e-213
6.34451e-213
1.79103e-212
5.14189e-212
1.5014e-211
4.45933e-211
1.34736e-210
4.14186e-210
1.29557e-209
4.12429e-209
1.33639e-208
4.40859e-208
1.48095e-207
5.06719e-207
1.76643e-206
6.27584e-206
2.27323e-205
8.39813e-205
3.1657e-204
1.21814e-203
4.78692e-203
1.92212e-202
7.89232e-202
3.31766e-201
1.57487e-200
7.42742e-200
3.47103e-199
1.61067e-198
7.44034e-198
3.43148e-197
1.5852e-196
7.36055e-196
3.4472e-195
1.63328e-194
7.84416e-194
3.81998e-193
1.88302e-192
9.36035e-192
4.66699e-191
2.31922e-190
1.14117e-189
5.52487e-189
2.61675e-188
9.93578e-215
2.66134e-214
6.56642e-214
1.6263e-213
4.08654e-213
1.04329e-212
2.70679e-212
7.13768e-212
1.9132e-211
5.2133e-211
1.44434e-210
4.06907e-210
1.16588e-209
3.39796e-209
1.00757e-208
3.04029e-208
9.33764e-208
2.91981e-207
9.29803e-207
3.01637e-206
9.97216e-206
3.3611e-205
1.15547e-204
4.05364e-204
1.45209e-203
5.31475e-203
1.9889e-202
7.61567e-202
2.98638e-201
1.20064e-200
4.9568e-200
2.31779e-199
1.0815e-198
5.0231e-198
2.32731e-197
1.07828e-196
5.00815e-196
2.33739e-195
1.09854e-194
5.20752e-194
2.49197e-193
1.20356e-192
5.85887e-192
2.86748e-191
1.40616e-190
6.88096e-190
3.34529e-189
1.60865e-188
7.6184e-188
3.53904e-187
3.45743e-213
9.03297e-213
2.16314e-212
5.1914e-212
1.26325e-211
3.12176e-211
7.837e-211
1.99898e-210
5.18128e-210
1.36491e-209
3.655e-209
9.95111e-209
2.75519e-208
7.75952e-208
2.2235e-207
6.48473e-207
1.92548e-206
5.82291e-206
1.79419e-205
5.63529e-205
1.8051e-204
5.90023e-204
1.96923e-203
6.71581e-203
2.34226e-202
8.3619e-202
3.05879e-201
1.14774e-200
4.42312e-200
1.75334e-199
7.16313e-199
3.32768e-198
1.54968e-197
7.21541e-197
3.36494e-196
1.57455e-195
7.40313e-195
3.50086e-194
1.66573e-193
7.97216e-193
3.83412e-192
1.85e-191
8.93663e-191
4.31149e-190
2.07224e-189
9.89775e-189
4.687e-188
2.19554e-187
1.01515e-186
4.62277e-186
1.07038e-211
2.73112e-211
6.35696e-211
1.48058e-210
3.49432e-210
8.37221e-210
2.03716e-209
5.03497e-209
1.26426e-208
3.22573e-208
8.36507e-208
2.20533e-207
5.91239e-207
1.61243e-206
4.47492e-206
1.26431e-205
3.63818e-205
1.06682e-204
3.18947e-204
9.72819e-204
3.02921e-203
9.63713e-203
3.1352e-202
1.04403e-201
3.56274e-201
1.24743e-200
4.48747e-200
1.661e-199
6.3359e-199
2.49517e-198
1.01665e-197
4.73054e-197
2.2151e-196
1.04043e-195
4.90635e-195
2.32424e-194
1.10609e-193
5.28511e-193
2.53268e-192
1.21528e-191
5.82775e-191
2.78705e-190
1.32659e-189
6.27364e-189
2.94393e-188
1.36961e-187
6.31482e-187
2.88516e-186
1.30613e-185
5.85671e-185
2.9571e-210
7.37848e-210
1.67194e-209
3.78534e-209
8.67974e-209
2.01989e-208
4.77261e-208
1.14522e-207
2.79134e-207
6.91255e-207
1.73973e-206
4.45126e-206
1.15824e-205
3.06626e-205
8.26274e-205
2.26765e-204
6.34202e-204
1.80872e-203
5.26423e-203
1.56487e-202
4.75558e-202
1.47898e-201
4.71255e-201
1.54047e-200
5.17344e-200
1.78778e-199
6.36764e-199
2.34155e-198
8.90501e-198
3.50883e-197
1.43525e-196
6.72878e-196
3.18156e-195
1.51082e-194
7.20307e-194
3.44555e-193
1.65163e-192
7.92082e-192
3.79297e-191
1.80978e-190
8.58639e-190
4.04341e-189
1.88734e-188
8.72591e-188
3.9963e-187
1.81452e-186
8.18067e-186
3.66906e-185
1.63983e-184
7.30945e-184
7.32326e-209
1.78935e-208
3.95375e-208
8.71668e-208
1.94542e-207
4.40555e-207
1.01282e-206
2.36439e-206
5.60626e-206
1.35057e-205
3.30667e-205
8.23128e-205
2.08421e-204
5.37087e-204
1.40941e-203
3.769e-203
1.0279e-202
2.86156e-202
8.13968e-202
2.36833e-201
7.0572e-201
2.15655e-200
6.76794e-200
2.18483e-199
7.26741e-199
2.49523e-198
8.85879e-198
3.25754e-197
1.24257e-196
4.92369e-196
2.02948e-195
9.60728e-195
4.58686e-194
2.19718e-193
1.05454e-192
5.06299e-192
2.427e-191
1.15916e-190
5.50444e-190
2.59377e-189
1.21089e-188
5.59474e-188
2.55758e-187
1.15754e-186
5.19546e-186
2.31868e-185
1.03229e-184
4.59931e-184
2.05516e-183
9.21127e-183
1.63494e-207
3.9172e-207
8.45448e-207
1.81832e-206
3.95741e-206
8.73824e-206
1.95867e-205
4.45814e-205
1.0307e-204
2.42129e-204
5.78189e-204
1.40413e-203
3.46981e-203
8.73069e-203
2.23858e-202
5.85411e-202
1.56299e-201
4.2653e-201
1.19122e-200
3.40945e-200
1.00156e-199
3.02464e-199
9.40603e-199
3.01749e-198
1.00037e-197
3.43325e-197
1.22165e-196
4.51285e-196
1.73238e-195
6.91598e-195
2.87284e-194
1.37066e-193
6.58307e-193
3.16408e-192
1.51891e-191
7.26797e-191
3.4594e-190
1.6347e-189
7.65557e-189
3.54856e-188
1.62692e-187
7.37892e-187
3.31473e-186
1.47827e-185
6.56728e-185
2.91804e-184
1.30168e-183
5.84315e-183
2.63917e-182
1.19585e-181
3.31163e-206
7.79109e-206
1.64537e-205
3.45866e-205
7.3551e-205
1.58683e-204
3.47558e-204
7.731e-204
1.74709e-203
4.01276e-203
9.37212e-203
2.22716e-202
5.38873e-202
1.32861e-201
3.34124e-201
8.58007e-201
2.25267e-200
6.05527e-200
1.66904e-199
4.72504e-199
1.37626e-198
4.13156e-198
1.2806e-197
4.10529e-197
1.3633e-196
4.69623e-196
1.67989e-195
6.24417e-195
2.41243e-194
9.6878e-194
4.04292e-193
1.93494e-192
9.29504e-192
4.45425e-191
2.12486e-190
1.00715e-189
4.73497e-189
2.20492e-188
1.01608e-187
4.63282e-187
2.09149e-186
9.36599e-186
4.17286e-185
1.85693e-184
8.28815e-184
3.72298e-183
1.68533e-182
7.67737e-182
3.5048e-181
1.59391e-180
6.12879e-205
1.41784e-204
2.93523e-204
6.04247e-204
1.25822e-203
2.65828e-203
5.70281e-203
1.24284e-202
2.75277e-202
6.19981e-202
1.42071e-201
3.31486e-201
7.88186e-201
1.91176e-200
4.73575e-200
1.1997e-199
3.11266e-199
8.28466e-199
2.26594e-198
6.38003e-198
1.85254e-197
5.5568e-197
1.72455e-196
5.54533e-196
1.84958e-195
6.4042e-195
2.30299e-194
8.60117e-194
3.33513e-193
1.34189e-192
5.59843e-192
2.67228e-191
1.27638e-190
6.06382e-190
2.86028e-189
1.3377e-188
6.19696e-188
2.84253e-187
1.29159e-186
5.82174e-186
2.60967e-185
1.16748e-184
5.23375e-184
2.35977e-183
1.07236e-182
4.90931e-182
2.25671e-181
1.03591e-180
4.71826e-180
2.11971e-179
1.04424e-203
2.37898e-203
4.83736e-203
9.77359e-203
1.99739e-202
4.14272e-202
8.72796e-202
1.86888e-201
4.06938e-201
9.01637e-201
2.0343e-200
4.678e-200
1.09753e-199
2.63026e-199
6.44771e-199
1.61918e-198
4.17242e-198
1.10519e-197
3.01444e-197
8.48092e-197
2.46511e-196
7.41306e-196
2.30906e-195
7.4566e-195
2.49784e-194
8.6819e-194
3.13066e-193
1.17063e-192
4.53567e-192
1.81943e-191
7.54961e-191
3.57503e-190
1.6898e-189
7.92857e-189
3.68874e-188
1.70092e-187
7.77549e-187
3.52785e-186
1.59214e-185
7.17003e-185
3.23435e-184
1.46684e-183
6.7047e-183
3.08927e-182
1.43112e-181
6.63214e-181
3.05501e-180
1.38982e-179
6.21074e-179
2.71639e-178
1.65166e-202
3.71146e-202
7.42841e-202
1.4766e-201
2.96942e-201
6.06286e-201
1.25815e-200
2.65533e-200
5.70333e-200
1.24766e-199
2.7823e-199
6.33145e-199
1.472e-198
3.50111e-198
8.53184e-198
2.13364e-197
5.48493e-197
1.45185e-196
3.96343e-196
1.11749e-195
3.25818e-195
9.83284e-195
3.07362e-194
9.95539e-194
3.34155e-193
1.16209e-192
4.18532e-192
1.55989e-191
6.01108e-191
2.39295e-190
9.8337e-190
4.60235e-189
2.14718e-188
9.93935e-188
4.5651e-187
2.0824e-186
9.45233e-186
4.28192e-185
1.94285e-184
8.86224e-184
4.07513e-183
1.89035e-182
8.82824e-182
4.132e-181
1.92616e-180
8.88288e-180
4.02802e-179
1.78738e-178
7.73709e-178
3.26329e-177
2.44733e-201
5.43389e-201
1.07309e-200
2.10429e-200
4.17621e-200
8.42027e-200
1.7268e-199
3.60467e-199
7.66539e-199
1.662e-198
3.67784e-198
8.31597e-198
1.92374e-197
4.55939e-197
1.10879e-196
2.7711e-196
7.12837e-196
1.89015e-195
5.17285e-195
1.46269e-194
4.27661e-194
1.29359e-193
4.04898e-193
1.31145e-192
4.3947e-192
1.523e-191
5.45516e-191
2.01802e-190
7.70406e-190
3.0334e-189
1.23146e-188
5.68849e-188
2.62055e-187
1.19987e-186
5.46896e-186
2.4881e-185
1.13379e-184
5.19432e-184
2.4e-183
1.11998e-182
5.27355e-182
2.49703e-181
1.18312e-180
5.58075e-180
2.61042e-179
1.20861e-178
5.54116e-178
2.52005e-177
1.13771e-176
5.08147e-176
3.43125e-200
7.54237e-200
1.47354e-199
2.85918e-199
5.61812e-199
1.1224e-198
2.28275e-198
4.73043e-198
9.99638e-198
2.15622e-197
4.75232e-197
1.07148e-196
2.47446e-196
5.8611e-196
1.42591e-195
3.56797e-195
9.19464e-195
2.44306e-194
6.69923e-194
1.89713e-193
5.55046e-193
1.67798e-192
5.24148e-192
1.69139e-191
5.63661e-191
1.93908e-190
6.88269e-190
2.51929e-189
9.50563e-189
3.69704e-188
1.48293e-187
6.77668e-187
3.09904e-186
1.41713e-185
6.51684e-185
3.04424e-184
1.47074e-183
7.58143e-183
4.36265e-182
2.91802e-181
2.26963e-180
1.96022e-179
1.77168e-178
1.60134e-177
1.40704e-176
1.18117e-175
9.36046e-175
6.93337e-174
4.75327e-173
2.98348e-172
4.60126e-199
1.0034e-198
1.94488e-198
3.74605e-198
7.31231e-198
1.4525e-197
2.9399e-197
6.06852e-197
1.27861e-196
2.7523e-196
6.05878e-196
1.36545e-195
3.15401e-195
7.47605e-195
1.82065e-194
4.56069e-194
1.17634e-193
3.1268e-193
8.56952e-193
2.42184e-192
7.05307e-192
2.11198e-191
6.46299e-191
1.98778e-190
5.84561e-190
1.34846e-189
-1.11298e-189
-5.83249e-188
-7.31252e-187
-7.75445e-186
-7.90226e-185
-9.1331e-184
-1.01534e-182
-1.08862e-181
-1.12576e-180
-1.12153e-179
-1.07452e-178
-9.87987e-178
-8.69802e-177
-7.31337e-176
-5.85638e-175
-4.4527e-174
-3.20352e-173
-2.17271e-172
-1.38327e-171
-8.22748e-171
-4.54677e-170
-2.31994e-169
-1.0849e-168
-4.60967e-168
5.96712e-198
1.29365e-197
2.49475e-197
4.78468e-197
9.30753e-197
1.84394e-196
3.72518e-196
7.6805e-196
1.61735e-195
3.48126e-195
7.66573e-195
1.72843e-194
3.99436e-194
9.47062e-194
2.3061e-193
5.77222e-193
1.48622e-192
3.93749e-192
1.07265e-191
2.99601e-191
8.50527e-191
2.39227e-190
6.12465e-190
8.87942e-190
-6.27608e-189