/*--------------------------------*- C++ -*----------------------------------*\
  =========                 |
  \\      /  F ield         | OpenFOAM: The Open Source CFD Toolbox
   \\    /   O peration     | Website:  https://openfoam.org
    \\  /    A nd           | Version:  9
     \\/     M anipulation  |
\*---------------------------------------------------------------------------*/
FoamFile
{
    format      ascii;
    class       volScalarField;
    location    "0.03";
    object      p_rgh;
}
// * * * * * * * * * * * * * * * * * * * * * * * * * * * * * * * * * * * * * //

dimensions      [1 -1 -2 0 0 0 0];

internalField   nonuniform List<scalar> 
5000
(
1.07169e-05
1.89181e-05
2.45739e-05
2.93147e-05
3.31068e-05
3.58734e-05
3.74872e-05
3.77718e-05
3.65059e-05
3.34206e-05
2.82014e-05
2.04895e-05
9.87799e-06
-4.09527e-06
-2.19559e-05
-4.42999e-05
-7.18014e-05
-0.000105224
-0.000145433
-0.000193409
-0.000250258
-0.000317235
-0.00039576
-0.000487446
-0.00059412
-0.000717861
-0.000861039
-0.00102636
-0.00121689
-0.00143612
-0.00170971
-0.00204154
-0.0024054
-0.00280228
-0.00323315
-0.00369886
-0.0042001
-0.00473733
-0.00531071
-0.00592009
-0.00656492
-0.00724415
-0.00795614
-0.00869854
-0.00946811
-0.0102607
-0.0110709
-0.0118921
-0.0127157
-0.0135306
1.49881e-05
3.342e-05
5.00784e-05
6.61327e-05
8.12758e-05
9.5586e-05
0.000109064
0.000121641
0.000133185
0.000143516
0.000152405
0.000159577
0.000164709
0.000167425
0.000167286
0.000163787
0.00015635
0.000144305
0.000126887
0.000103217
7.22934e-05
3.29698e-05
-1.60604e-05
-7.62844e-05
-0.000149391
-0.000237299
-0.000342188
-0.000466534
-0.000613123
-0.000785076
-0.0010033
-0.00127323
-0.00157381
-0.00190569
-0.00226963
-0.00266628
-0.00309615
-0.00355952
-0.00405638
-0.00458641
-0.00514889
-0.00574261
-0.00636578
-0.00701592
-0.00768973
-0.00838298
-0.00909037
-0.00980528
-0.0105196
-0.0112239
1.18257e-05
3.3038e-05
5.52791e-05
7.76041e-05
9.97656e-05
0.000121779
0.000143566
0.000165011
0.000185979
0.000206306
0.000225798
0.000244222
0.000261302
0.000276713
0.000290075
0.000300945
0.000308808
0.000313067
0.000313028
0.00030789
0.000296726
0.000278473
0.000251913
0.000215655
0.000168116
0.000107496
3.17538e-05
-6.14252e-05
-0.000174641
-0.000310726
-0.00048694
-0.00070981
-0.000962207
-0.0012446
-0.00155761
-0.0019018
-0.00227753
-0.00268497
-0.00312401
-0.00359424
-0.00409485
-0.00462453
-0.00518142
-0.005763
-0.00636596
-0.00698612
-0.00761827
-0.00825606
-0.00889175
-0.00951707
1.34043e-05
3.97352e-05
6.76882e-05
9.62546e-05
0.000125316
0.000154841
0.000184739
0.000214883
0.000245137
0.000275355
0.000305361
0.000334952
0.000363885
0.000391879
0.000418602
0.000443669
0.000466622
0.00048693
0.000503965
0.000516998
0.000525178
0.000527525
0.000522906
0.000510025
0.000487403
0.000453356
0.000405974
0.000343087
0.000262243
0.00016075
2.4767e-05
-0.000152509
-0.000357999
-0.000592197
-0.00085569
-0.00114893
-0.0014722
-0.00182559
-0.00220895
-0.00262177
-0.0030632
-0.0035319
-0.00402598
-0.00454293
-0.0050795
-0.0056316
-0.00619425
-0.00676141
-0.00732577
-0.00788021
1.61605e-05
4.91163e-05
8.41287e-05
0.000120191
0.000157203
0.000195177
0.000234046
0.000273722
0.000314105
0.000355079
0.000396501
0.000438201
0.000479978
0.000521596
0.000562775
0.000603207
0.000642462
0.000680092
0.00071554
0.00074815
0.000777154
0.000801659
0.000820626
0.000832863
0.000837002
0.000831481
0.000814526
0.000784125
0.000737984
0.000673555
0.000580601
0.000452117
0.000296822
0.000114165
-9.63962e-05
-0.000335235
-0.000602579
-0.000898459
-0.00122266
-0.00157465
-0.00195351
-0.00235791
-0.00278599
-0.00323526
-0.00370255
-0.00418395
-0.00467473
-0.0051692
-0.0056606
-0.00614293
1.94499e-05
5.96484e-05
0.000102444
0.000146653
0.000192241
0.000239253
0.000287666
0.000337435
0.000388501
0.000440786
0.000494185
0.000548572
0.000603795
0.000659673
0.000715981
0.000772448
0.000828739
0.000884458
0.000939115
0.000992135
0.00104284
0.00109041
0.00113392
0.00117229
0.00120425
0.00122838
0.00124303
0.00124636
0.00123626
0.00121037
0.00116219
0.00108421
0.000980711
0.000851174
0.000695114
0.000512207
0.000302267
6.53018e-05
-0.000198434
-0.000488384
-0.000803626
-0.00114283
-0.00150418
-0.00188529
-0.0022831
-0.00269387
-0.00311319
-0.00353576
-0.00395538
-0.00436716
2.30337e-05
7.08861e-05
0.000121846
0.000174582
0.000229102
0.000285494
0.00034378
0.000403951
0.000465986
0.000529847
0.000595474
0.000662788
0.000731688
0.000802043
0.000873683
0.000946394
0.0010199
0.00109388
0.00116791
0.00124149
0.00131403
0.0013848
0.00145298
0.00151759
0.00157747
0.00163133
0.00167767
0.00171479
0.00174076
0.00175343
0.00175006
0.00172249
0.0016706
0.00159393
0.00149204
0.00136463
0.00121153
0.00103277
0.000828625
0.000599652
0.000346768
7.12577e-05
-0.000225148
-0.000540154
-0.000870869
-0.00121381
-0.00156484
-0.00191913
-0.00227099
-0.00261657
2.68581e-05
8.27438e-05
0.000142254
0.00020391
0.000267757
0.000333914
0.000402434
0.000473345
0.000546663
0.000622394
0.000700526
0.000781029
0.000863851
0.000948909
0.00103608
0.00112522
0.0012161
0.00130847
0.00140198
0.0014962
0.00159064
0.00168465
0.00177751
0.00186833
0.00195609
0.00203961
0.00211754
0.00218831
0.00225017
0.00230115
0.00234223
0.00236468
0.002364
0.00233974
0.00229147
0.00221889
0.00212185
0.00200038
0.00185473
0.00168547
0.00149348
0.00127999
0.00104662
0.000795538
0.000529426
0.00025151
-3.44035e-05
-0.000323931
-0.000611905
-0.000895371
3.08522e-05
9.50943e-05
0.000163497
0.00023443
0.000307968
0.00038425
0.000463364
0.000545373
0.000630336
0.000718299
0.000809294
0.000903334
0.00100041
0.0011005
0.00120352
0.00130937
0.00141792
0.00152895
0.00164219
0.00175731
0.00187386
0.00199132
0.00210905
0.00222626
0.00234207
0.0024554
0.00256504
0.00266957
0.00276739
0.0028567
0.0029422
0.00301465
0.00306515
0.00309322
0.00309841
0.00308043
0.0030391
0.00297445
0.00288672
0.00277644
0.00264444
0.00249189
0.00232031
0.00213169
0.00192849
0.00171365
0.00149065
0.00126342
0.00103661
0.000812303
3.49815e-05
0.00010786
0.000185452
0.000265964
0.000349489
0.000436201
0.000526221
0.000619651
0.000716589
0.000817121
0.00092132
0.00102924
0.00114091
0.00125635
0.00137555
0.00149846
0.00162499
0.00175499
0.00188829
0.00202459
0.00216356
0.00230475
0.00244761
0.00259147
0.00273557
0.00287893
0.00302049
0.00315898
0.00329294
0.00342075
0.00355084
0.00367344
0.00377521
0.00385564
0.00391426
0.00395075
0.00396494
0.00395682
0.0039266
0.00387477
0.00380212
0.00370971
0.00359896
0.00347169
0.00333009
0.00317685
0.00301506
0.00284822
0.00268043
0.002513
3.92189e-05
0.00012096
0.000207973
0.000298293
0.000392044
0.00048944
0.000590638
0.000695773
0.000804975
0.000918366
0.00103605
0.00115814
0.00128469
0.00141579
0.00155145
0.0016917
0.00183649
0.00198576
0.00213936
0.00229712
0.00245874
0.00262389
0.00279211
0.00296284
0.0031354
0.00330898
0.00348262
0.00365521
0.00382544
0.00399185
0.0041666
0.00433938
0.00449241
0.00462511
0.00473699
0.00482773
0.00489712
0.00494512
0.00497191
0.00497795
0.00496393
0.00493084
0.00487995
0.0048129
0.00473165
0.00463857
0.00453637
0.00442813
0.00431743
0.00420486
4.35533e-05
0.000134347
0.000230971
0.000331299
0.000435492
0.000543799
0.000656407
0.00077348
0.000895182
0.00102167
0.00115309
0.00128958
0.00143126
0.00157825
0.00173063
0.00188846
0.00205175
0.0022205
0.00239465
0.00257406
0.00275855
0.00294784
0.00314159
0.00333933
0.00354049
0.00374439
0.0039502
0.00415695
0.00436348
0.00456849
0.00478785
0.00501073
0.00521484
0.00539957
0.00556443
0.00570905
0.00583322
0.00593684
0.00602008
0.00608331
0.00612716
0.00615251
0.0061605
0.00615255
0.0061304
0.00609608
0.00605197
0.00600069
0.00594533
0.00588587
4.79671e-05
0.000147966
0.000254364
0.000364882
0.000479716
0.000599137
0.000723357
0.00085257
0.000986973
0.00112676
0.00127212
0.00142324
0.00158027
0.00174337
0.00191267
0.00208829
0.00227029
0.00245873
0.0026536
0.00285484
0.00306236
0.00327595
0.00349535
0.00372021
0.00395007
0.00418436
0.00442238
0.0046633
0.0049061
0.00514964
0.00541348
0.00568625
0.0059412
0.00617768
0.00639516
0.00659328
0.00677177
0.00693051
0.00706962
0.00718942
0.00729043
0.00737342
0.00743939
0.00748955
0.00752539
0.00754865
0.00756133
0.00756566
0.00756422
0.00755649
5.24537e-05
0.000161802
0.000278135
0.000399009
0.000524642
0.000655334
0.000791327
0.000932849
0.00108013
0.00123341
0.0013929
0.00155882
0.00173139
0.0019108
0.00209721
0.0022908
0.00249168
0.00269997
0.00291573
0.00313896
0.00336962
0.00360763
0.00385278
0.00410484
0.00436346
0.00462817
0.00489841
0.00517347
0.00545247
0.00573441
0.00604255
0.00636495
0.00667044
0.00695833
0.00722808
0.00747928
0.00771165
0.00792505
0.00811952
0.00829533
0.00845291
0.00859288
0.00871609
0.00882355
0.00891651
0.0089964
0.00906489
0.00912378
0.00917518
0.00921815
5.70068e-05
0.000175838
0.000302243
0.000433607
0.000570172
0.000712268
0.000860175
0.00101415
0.00117447
0.00134139
0.00151517
0.00169607
0.00188433
0.0020802
0.00228389
0.0024956
0.00271553
0.00294381
0.00318058
0.00342591
0.00367984
0.00394233
0.00421331
0.00449261
0.00478
0.00507513
0.00537755
0.00568666
0.00600173
0.00632188
0.00667406
0.00704579
0.00740147
0.00774039
0.00806199
0.00836586
0.00865168
0.00891929
0.00916868
0.00940003
0.00961367
0.0098101
0.00998998
0.0101541
0.0103036
0.0104394
0.010563
0.0106757
0.0107792
0.0108722
6.16145e-05
0.000190029
0.000326598
0.000468542
0.000616142
0.000769762
0.00092971
0.00109628
0.00126976
0.00145046
0.00163866
0.00183467
0.00203877
0.00225123
0.00247233
0.0027023
0.00294139
0.00318979
0.00344768
0.0037152
0.00399246
0.00427951
0.00457634
0.00488289
0.00519903
0.00552452
0.00585902
0.00620204
0.00655298
0.00691109
0.00730699
0.00772767
0.00813314
0.00852266
0.00889568
0.00925178
0.00959064
0.00991204
0.0102159
0.0105024
0.0107718
0.0110242
0.0112604
0.0114808
0.0116863
0.0118776
0.0120558
0.0122219
0.0123771
0.0125198
6.62621e-05
0.00020433
0.000351128
0.000503731
0.000662455
0.000827693
0.000999779
0.00117904
0.00136579
0.00156036
0.00176309
0.00197431
0.00219434
0.0024235
0.0026621
0.00291043
0.00316877
0.00343737
0.00371645
0.00400623
0.00430686
0.00461848
0.00494117
0.00527496
0.0056198
0.00597556
0.006342
0.00671874
0.00710529
0.00750105
0.00794028
0.00840947
0.00886429
0.00930398
0.00972798
0.0101359
0.0105274
0.0109022
0.0112603
0.0116016
0.0119263
0.0122345
0.0125267
0.0128031
0.0130644
0.0133111
0.0135438
0.0137632
0.01397
0.0141625
7.09357e-05
0.000218702
0.000375792
0.000539133
0.000709062
0.000885994
0.00107029
0.0012623
0.00146237
0.00167089
0.00188821
0.0021147
0.00235072
0.00259665
0.00285281
0.00311955
0.00339718
0.00368601
0.00398632
0.00429836
0.00462238
0.00495857
0.00530709
0.00566806
0.00604151
0.00642741
0.0068256
0.00723581
0.00765765
0.0080907
0.00857282
0.00909004
0.00959373
0.0100831
0.0105577
0.011017
0.0114608
0.0118887
0.0123007
0.0126966
0.0130765
0.0134404
0.0137885
0.014121
0.0144381
0.0147402
0.0150276
0.0153005
0.0155591
0.0158019
7.56397e-05
0.000233163
0.000400609
0.000574742
0.000755921
0.000944587
0.00114113
0.00134593
0.00155938
0.00178188
0.00201384
0.00225564
0.00250769
0.0027704
0.00304414
0.00332928
0.0036262
0.00393525
0.00425676
0.00459104
0.0049384
0.0052991
0.00567337
0.00606141
0.00646333
0.00687916
0.00730885
0.00775222
0.00820899
0.0086789
0.00920343
0.00976816
0.0103202
0.0108588
0.0113836
0.0118939
0.0123897
0.0128705
0.0133362
0.0137867
0.0142217
0.0146414
0.0150455
0.0154343
0.0158076
0.0161656
0.016508
0.016835
0.0171462
0.01744
8.03746e-05
0.000247704
0.000425539
0.000610487
0.000802937
0.00100336
0.00121218
0.0014298
0.00165666
0.00189318
0.00213978
0.00239691
0.002665
0.00294448
0.00323577
0.0035393
0.00385546
0.00418467
0.0045273
0.00488374
0.00525435
0.00563945
0.00603934
0.00645427
0.00688444
0.00732995
0.00779081
0.00826695
0.00875823
0.00926454
0.00983096
0.0104426
0.0110425
0.01163
0.0122045
0.0127656
0.0133132
0.0138467
0.0143661
0.0148712
0.0153616
0.0158372
0.0162979
0.0167434
0.0171736
0.0175881
0.0179865
0.0183684
0.0187331
0.0190788
8.512e-05
0.000262259
0.000450473
0.00064623
0.000849955
0.00106215
0.00128325
0.00151372
0.00175399
0.00200452
0.00226577
0.00253821
0.00282231
0.00311853
0.00342733
0.00374917
0.00408451
0.00443379
0.00479746
0.00517594
0.00556966
0.005979
0.00640432
0.00684592
0.00730405
0.00777889
0.00827054
0.00877902
0.00930433
0.00984654
0.0104543
0.0111124
0.0117596
0.0123955
0.0130194
0.0136311
0.0142303
0.0148166
0.0153898
0.0159497
0.0164958
0.017028
0.0175458
0.0180489
0.0185368
0.0190089
0.0194644
0.0199024
0.0203218
0.0207208
8.98502e-05
0.000276763
0.000475328
0.000681882
0.000896873
0.00112082
0.00135421
0.00159749
0.00185114
0.00211565
0.00239151
0.00267921
0.00297925
0.00329214
0.00361837
0.00395844
0.00431285
0.00468209
0.00506667
0.00546705
0.00588371
0.00631709
0.0067676
0.00723558
0.00772133
0.00822511
0.00874709
0.00928742
0.00984625
0.0104238
0.0110724
0.0117764
0.0124705
0.0131543
0.0138274
0.0144895
0.0151403
0.0157795
0.0164068
0.0170219
0.0176244
0.0182139
0.0187898
0.0193516
0.0198984
0.0204294
0.0209433
0.021439
0.0219145
0.0223683
9.45641e-05
0.000291222
0.000500119
0.000717452
0.000943685
0.00117936
0.00142497
0.00168101
0.00194798
0.00222638
0.00251675
0.00281961
0.00313549
0.00346493
0.00380847
0.00416663
0.00453996
0.00492902
0.00533432
0.00575642
0.0061958
0.00665298
0.00712837
0.00762238
0.00813536
0.00866761
0.00921944
0.00979109
0.0103829
0.0109954
0.0116842
0.0124336
0.0131742
0.0139057
0.0146278
0.0153402
0.0160427
0.0167351
0.0174169
0.0180879
0.0187476
0.0193954
0.0200306
0.0206524
0.0212596
0.021851
0.0224251
0.02298
0.0235135
0.0240238
9.92739e-05
0.000305666
0.00052487
0.000752938
0.000990362
0.0012377
0.00149546
0.00176417
0.00204435
0.00233654
0.0026413
0.00295918
0.00329075
0.00363658
0.00399724
0.00437331
0.00476538
0.00517403
0.00559984
0.00604339
0.00650522
0.00698586
0.00748578
0.00800541
0.00854515
0.00910539
0.00968651
0.010289
0.0109132
0.0115601
0.0122887
0.013083
0.0138698
0.0146487
0.0154197
0.0161825
0.016937
0.0176829
0.01842
0.0191478
0.0198657
0.0205731
0.021269
0.0219524
0.0226218
0.0232755
0.0239116
0.0245277
0.025121
0.0256897
0.00010397
0.000320053
0.000549501
0.000788232
0.00103676
0.00129567
0.0015655
0.00184678
0.00214006
0.00244592
0.00276493
0.00309767
0.00344475
0.00380678
0.00418436
0.00457811
0.00498866
0.00541663
0.00586266
0.00632734
0.00681127
0.00731498
0.00783898
0.00838375
0.00894972
0.00953739
0.0101473
0.0107799
0.0114361
0.0121168
0.0128848
0.0137236
0.0145563
0.0153826
0.0162025
0.0170159
0.0178228
0.018623
0.0194161
0.0202018
0.0209793
0.0217478
0.0225062
0.0232529
0.0239864
0.0247044
0.0254045
0.0260839
0.0267392
0.0273683
0.000108626
0.0003343
0.000573881
0.000823172
0.00108271
0.00135308
0.00163486
0.0019286
0.00223487
0.00255425
0.00288734
0.00323477
0.00359717
0.00397517
0.00436943
0.00478059
0.00520934
0.00565634
0.00612223
0.00660767
0.00711325
0.00763956
0.00818713
0.00875647
0.0093481
0.00996259
0.0106006
0.0112629
0.0119505
0.0126646
0.0134716
0.0143546
0.015233
0.0161066
0.0169756
0.0178401
0.0187
0.0195553
0.0204057
0.0212506
0.0220892
0.0229205
0.0237432
0.0245554
0.025355
0.0261395
0.0269058
0.0276507
0.0283701
0.0290616
0.000113227
0.000348364
0.000597942
0.00085766
0.00112807
0.00140978
0.00170337
0.00200941
0.00232849
0.00266122
0.00300821
0.00337011
0.0037476
0.00414133
0.004552
0.00498029
0.00542692
0.00589258
0.00637795
0.0068837
0.00741045
0.00795881
0.00852936
0.00912265
0.00973931
0.01038
0.0110455
0.0117369
0.0124553
0.0132025
0.014048
0.014975
0.015899
0.0168201
0.0177386
0.0186548
0.0195686
0.0204802
0.0213891
0.0222947
0.0231963
0.0240924
0.0249814
0.0258613
0.0267293
0.0275824
0.0284172
0.0292297
0.0300155
0.0307716
0.000117771
0.000362241
0.000621677
0.000891671
0.00117279
0.00146567
0.00177089
0.00208904
0.00242072
0.00276656
0.0031272
0.00350333
0.00389563
0.00430481
0.00473159
0.00517669
0.00564083
0.00612475
0.00662915
0.00715471
0.00770208
0.00827189
0.00886478
0.00948138
0.0101224
0.0107886
0.0114811
0.0122009
0.0129498
0.0137295
0.0146133
0.0155842
0.0165539
0.0175228
0.0184914
0.01946
0.0204288
0.0213979
0.0223669
0.0233352
0.0243016
0.0252646
0.0262222
0.0271718
0.0281105
0.0290346
0.0299402
0.0308226
0.031677
0.0324999
0.000122257
0.000375923
0.000645062
0.000925166
0.00121682
0.00152066
0.00183728
0.00216729
0.00251132
0.00287001
0.00324404
0.0036341
0.00404091
0.00446522
0.00490775
0.00536927
0.00585052
0.00635224
0.00687515
0.00741996
0.00798733
0.00857795
0.00919249
0.00983169
0.0104964
0.0111875
0.0119062
0.0126541
0.0134328
0.0142449
0.0151668
0.0161815
0.0171972
0.0182144
0.0192337
0.0202558
0.0212809
0.0223091
0.02334
0.0243727
0.025406
0.0264381
0.0274665
0.0284883
0.0294999
0.0304973
0.0314759
0.0324305
0.0333558
0.0342476
0.000126674
0.000389368
0.000668017
0.000958029
0.00126
0.00157456
0.00190234
0.00224396
0.00260006
0.00297131
0.00335841
0.00376208
0.00418307
0.00462213
0.00508003
0.00555753
0.0060554
0.00657439
0.00711524
0.00767866
0.00826537
0.00887609
0.00951157
0.0101727
0.0108603
0.0115756
0.0123201
0.0130954
0.0139038
0.0147479
0.0157078
0.0167665
0.0178285
0.0188946
0.0199657
0.0210425
0.0221254
0.0232143
0.024309
0.0254082
0.0265107
0.027614
0.0287155
0.0298117
0.0308985
0.0319714
0.0330251
0.0340542
0.0350526
0.0360157
0.000130994
0.000402498
0.000690418
0.00099009
0.00130211
0.00162714
0.00196581
0.00231876
0.00268665
0.00307016
0.00347002
0.00388695
0.00432174
0.00477515
0.00524796
0.00574094
0.00625488
0.00679055
0.00734869
0.00793005
0.00853537
0.00916544
0.0098211
0.0105033
0.0112132
0.0119522
0.0127218
0.0135241
0.0143617
0.0152377
0.0162357
0.0173388
0.0184477
0.0195636
0.0206875
0.0218204
0.0229626
0.0241142
0.0252745
0.0264425
0.0276161
0.028793
0.0299697
0.0311425
0.0323067
0.0334572
0.0345883
0.035694
0.0367679
0.0378045
0.000135189
0.000415236
0.000712144
0.00102118
0.00134297
0.00167817
0.00202744
0.00239142
0.00277079
0.00316623
0.0035785
0.00400833
0.0044565
0.00492381
0.00541103
0.00591895
0.00644837
0.00700005
0.00757478
0.00817332
0.00879649
0.00944513
0.0101202
0.0108228
0.0115543
0.0123161
0.0131104
0.0139393
0.0148059
0.0157138
0.01675
0.0178979
0.0190546
0.0202213
0.0213994
0.0225898
0.0237932
0.0250092
0.0262374
0.027476
0.0287231
0.0299755
0.0312296
0.032481
0.0337247
0.0349548
0.0361654
0.03735
0.0385016
0.0396143
0.000139247
0.000427543
0.000733118
0.00105121
0.00138244
0.00172749
0.00208703
0.0024617
0.00285219
0.00325921
0.00368349
0.00412579
0.0045869
0.00506761
0.00556869
0.00609096
0.00663519
0.0072022
0.00779277
0.00840772
0.00904793
0.00971434
0.010408
0.0111303
0.0118826
0.0126668
0.0134851
0.0143403
0.0152357
0.0161757
0.0172505
0.0184439
0.0196492
0.0208679
0.0221016
0.0233513
0.0246175
0.0259
0.0271978
0.0285092
0.0298317
0.0311617
0.0324952
0.0338271
0.035152
0.0364638
0.0377559
0.0390215
0.0402533
0.0414447
0.000143165
0.000439398
0.000753298
0.00108009
0.00142042
0.00177497
0.0021444
0.00252937
0.00293059
0.00334875
0.0037846
0.00423891
0.00471244
0.00520599
0.00572035
0.0062563
0.00681467
0.00739625
0.00800189
0.00863245
0.00928888
0.00997225
0.0106838
0.0114249
0.0121974
0.0130033
0.0138453
0.0147265
0.0156507
0.0166229
0.0177368
0.0189765
0.0202315
0.0215035
0.0227943
0.024105
0.0254359
0.0267867
0.0281562
0.0295422
0.0309419
0.0323513
0.0337658
0.0351801
0.0365881
0.0379833
0.0393589
0.0407077
0.0420222
0.0432954
0.000146929
0.000450772
0.000772645
0.00110778
0.00145682
0.00182046
0.00219937
0.00259421
0.00300569
0.00343452
0.00388144
0.0043472
0.00483259
0.00533838
0.00586535
0.00641431
0.00698606
0.00758145
0.00820136
0.00884671
0.00951856
0.0102181
0.0109466
0.0117059
0.0124979
0.013325
0.0141903
0.0150973
0.0160504
0.0170551
0.0182088
0.0194958
0.0208017
0.0221285
0.023478
0.0248512
0.0262486
0.0276694
0.0291123
0.0305747
0.0320532
0.0335436
0.0350407
0.0365387
0.0380313
0.0395118
0.040973
0.0424074
0.0438075
0.0451658
0.000150528
0.000461632
0.0007911
0.00113418
0.00149152
0.00186381
0.00225173
0.00265597
0.00307721
0.00351617
0.00397359
0.00445021
0.00494682
0.00546418
0.00600307
0.00656428
0.00714865
0.00775705
0.0083904
0.00904972
0.00973615
0.010451
0.0111959
0.0119726
0.0127835
0.0136314
0.0145196
0.0154524
0.0164346
0.0174723
0.0186665
0.0200018
0.0213599
0.0227429
0.0241526
0.0255901
0.0270555
0.028548
0.0300658
0.0316059
0.0331647
0.0347372
0.0363181
0.0379013
0.0394801
0.0410476
0.0425965
0.0441192
0.045608
0.0470552
0.000153954
0.000471941
0.000808586
0.00115917
0.00152435
0.00190482
0.00230127
0.00271437
0.00314481
0.00359333
0.00406063
0.00454747
0.00505462
0.00558283
0.00613287
0.00670556
0.00730173
0.00792231
0.00856827
0.00924071
0.00994091
0.0106703
0.0114307
0.0122243
0.0130536
0.0139218
0.0148328
0.0157914
0.016803
0.0178743
0.0191099
0.0204947
0.0219063
0.0233468
0.0248183
0.0263215
0.0278564
0.0294219
0.0310158
0.0326348
0.0342747
0.0359304
0.0375962
0.0392657
0.0409322
0.0425885
0.0442275
0.0458415
0.0474225
0.0489627
0.000157189
0.000481643
0.000825
0.00118262
0.00155514
0.00194328
0.00234771
0.00276912
0.00320818
0.00366562
0.00414215
0.00463851
0.00515546
0.00569375
0.00625415
0.00683749
0.00744463
0.00807653
0.00873424
0.00941897
0.0101321
0.0108753
0.0116505
0.0124603
0.0133075
0.0141958
0.0151296
0.0161141
0.0171556
0.018261
0.0195389
0.0209744
0.0224407
0.0239402
0.0254747
0.0270449
0.0286504
0.03029
0.0319609
0.0336595
0.0353813
0.037121
0.0388724
0.0406293
0.042385
0.0441323
0.045864
0.0475725
0.0492498
0.0508877
0.000160212
0.00049067
0.000840233
0.00120436
0.0015837
0.00197896
0.0023908
0.0028199
0.00326695
0.00373264
0.0042177
0.00472284
0.00524882
0.00579638
0.00636631
0.00695944
0.00757668
0.00821904
0.00888764
0.0095838
0.0103091
0.0110653
0.0118547
0.0126801
0.0135448
0.014453
0.0154095
0.0164203
0.0174921
0.0186325
0.0199535
0.0214408
0.022963
0.0245227
0.0261213
0.0277595
0.0294366
0.0311508
0.0328993
0.034678
0.036482
0.038306
0.0401439
0.0419894
0.0438358
0.0456763
0.0475038
0.0493105
0.0510884
0.0528291
0.000163002
0.000498966
0.000854196
0.00122429
0.00160987
0.00201164
0.00243027
0.00286641
0.00332076
0.003794
0.00428683
0.00479997
0.00533415
0.00589014
0.00646874
0.00707079
0.00769725
0.00834918
0.0090278
0.00973456
0.0104711
0.0112397
0.0120426
0.0128831
0.0137651
0.0146931
0.0156726
0.01671
0.0178126
0.0189886
0.0203537
0.0218937
0.023473
0.0250937
0.0267574
0.0284642
0.0302133
0.0320026
0.0338286
0.0356874
0.0375738
0.0394824
0.0414074
0.0433427
0.0452818
0.0472181
0.0491447
0.0510538
0.0529372
0.0547862
0.000165547
0.000506491
0.000866814
0.00124227
0.00163347
0.00204112
0.00246587
0.00290836
0.00336928
0.00384929
0.0043491
0.0048694
0.00541094
0.00597448
0.00656085
0.00717093
0.00780571
0.00846632
0.0091541
0.00987062
0.0106178
0.0113979
0.0122139
0.0130692
0.0139681
0.0149159
0.0159185
0.0169829
0.0181169
0.0193292
0.0207392
0.0223329
0.0239699
0.0256524
0.0273816
0.0291574
0.0309786
0.0328427
0.0347461
0.0366846
0.0386533
0.0406468
0.0426597
0.0446861
0.04672
0.0487551
0.0507846
0.0528006
0.0547946
0.0567577
0.000167835
0.000513207
0.00087801
0.0012582
0.00165436
0.00206721
0.00249736
0.00294545
0.00341216
0.00389813
0.00440406
0.00493066
0.00547866
0.00604886
0.00664209
0.00725927
0.00790145
0.00856987
0.00926595
0.00999143
0.0107484
0.0115395
0.012368
0.0132378
0.0141537
0.0151213
0.0161473
0.0172391
0.0184051
0.0196542
0.0211097
0.0227576
0.0244529
0.0261975
0.0279924
0.0298371
0.0317299
0.0336683
0.0356485
0.0376662
0.0397169
0.0417956
0.0438972
0.0460164
0.0481476
0.0502849
0.0524212
0.054549
0.0566593
0.0587423
0.000169847
0.000519053
0.000887682
0.00127192
0.00167236
0.00208966
0.00252446
0.00297737
0.00344904
0.00394012
0.0044513
0.00498329
0.00553684
0.00611275
0.0067119
0.00733526
0.00798394
0.00865926
0.0093628
0.0100965
0.0108626
0.0116642
0.0125048
0.0133888
0.0143216
0.0153092
0.0163589
0.0174785
0.0186768
0.0199632
0.0214647
0.0231671
0.0249209
0.0267276
0.0285878
0.0305007
0.0324644
0.0344761
0.0365321
0.0386284
0.0407609
0.0429251
0.0451165
0.0473305
0.0495618
0.0518047
0.0540525
0.056297
0.0585292
0.0607384
0.00017156
0.000523961
0.000895717
0.0012833
0.00168725
0.00210825
0.00254689
0.00300378
0.00347956
0.00397486
0.00449038
0.00502684
0.005585
0.00616568
0.0067698
0.0073984
0.00805265
0.008734
0.00944418
0.0101853
0.01096
0.0117716
0.012624
0.0135221
0.0144718
0.0154796
0.0165532
0.0177009
0.0189319
0.0202559
0.0218034
0.0235604
0.0253724
0.0272407
0.0291654
0.0311454
0.0331787
0.0352624
0.0373931
0.0395673
0.0417813
0.0440316
0.0463142
0.0486252
0.0509597
0.0533122
0.0556759
0.0580425
0.0604024
0.0627438
0.000172955
0.000527867
0.000902008
0.00129216
0.00169884
0.00212272
0.00256436
0.00302437
0.00350336
0.00400198
0.00452092
0.0050609
0.0056227
0.0062072
0.00681534
0.00744822
0.00810714
0.00879365
0.00950967
0.0102576
0.0110402
0.0118614
0.0127254
0.0136376
0.0146042
0.0156324
0.0167301
0.0179062
0.01917
0.0205315
0.0221249
0.0239361
0.0258057
0.0277345
0.0297224
0.031768
0.0338692
0.0360233
0.0382275
0.0404788
0.0427744
0.0451115
0.047487
0.0498975
0.0523386
0.0548047
0.057289
0.0597829
0.0622762
0.064756
0.000174012
0.000530715
0.000906448
0.00129836
0.00170693
0.00213282
0.00257659
0.00303881
0.00352011
0.00402112
0.00454253
0.00508507
0.00564957
0.00623691
0.00684811
0.00748435
0.00814702
0.00883785
0.00955896
0.010313
0.0111032
0.0119335
0.0128089
0.0137351
0.0147188
0.0157674
0.0168894
0.0180938
0.0193904
0.0207893
0.0224281
0.0242926
0.0262185
0.0282064
0.0302556
0.0323648
0.034532
0.0367548
0.0390312
0.041359
0.0437364
0.0461614
0.0486317
0.0511444
0.0536954
0.0562792
0.0588889
0.0615152
0.0641475
0.0667718
0.000174713
0.000532444
0.00090893
0.00130174
0.00171132
0.00213834
0.00258332
0.00304684
0.0035295
0.00403195
0.00455487
0.00509903
0.00566524
0.00625447
0.00686777
0.00750643
0.00817198
0.00886633
0.00959182
0.0103514
0.0111486
0.011988
0.0128746
0.0138147
0.0148154
0.0158845
0.0170308
0.0182635
0.0195926
0.0210282
0.0227115
0.0246279
0.0266085
0.0286533
0.0307616
0.0329321
0.035163
0.0374529
0.0398003
0.0422042
0.0446637
0.0471778
0.0497449
0.0523626
0.055027
0.0577327
0.0604721
0.0632359
0.0660126
0.0687873
0.00017504
0.000532993
0.000909354
0.00130216
0.00171185
0.00213906
0.00258432
0.00304819
0.00353127
0.0040342
0.00455767
0.00510246
0.00566943
0.00625957
0.00687404
0.00751421
0.0081818
0.00887889
0.00960812
0.0103727
0.0111766
0.0120246
0.0129224
0.0138764
0.014894
0.0159836
0.0171539
0.0184146
0.0197756
0.0212471
0.0229734
0.0249398
0.0269727
0.0290719
0.0312366
0.0334658
0.0357583
0.0381134
0.0405308
0.0430106
0.0455528
0.0481574
0.0508235
0.053549
0.0563302
0.0591614
0.062035
0.0649408
0.0678672
0.0707984
0.000174976
0.000532311
0.000907635
0.00129952
0.00170837
0.00213483
0.00257942
0.00304267
0.00352519
0.00402762
0.00455066
0.00509511
0.00566186
0.00625197
0.00686667
0.0075075
0.00817631
0.00887545
0.00960781
0.0103769
0.0111872
0.0120436
0.0129523
0.01392
0.0149544
0.0160642
0.0172582
0.0185463
0.0199383
0.0214443
0.0232119
0.0252257
0.0273081
0.0294587
0.0316769
0.033962
0.0363138
0.0387325
0.041219
0.0437746
0.0464003
0.0490968
0.051864
0.0546999
0.057601
0.0605614
0.0635729
0.0666254
0.0697064
0.0728003
0.00017451
0.000530368
0.000903723
0.00129373
0.00170079
0.00212553
0.00256845
0.0030301
0.00351107
0.00401202
0.00453364
0.00507677
0.00564234
0.00623147
0.00684552
0.00748615
0.00815544
0.00885596
0.0095909
0.0103641
0.0111803
0.0120449
0.0129643
0.0139455
0.0149965
0.0161259
0.0173431
0.0186576
0.0200793
0.0216182
0.0234246
0.0254828
0.0276115
0.0298102
0.0320786
0.0344169
0.0368257
0.0393065
0.0418614
0.0444927
0.0472026
0.0499926
0.0528628
0.0558116
0.0588353
0.0619279
0.0650811
0.0682843
0.0715251
0.074788
0.000173639
0.000527147
0.00089759
0.00128477
0.00168905
0.00211107
0.00255134
0.00301038
0.0034888
0.00398725
0.00450647
0.00504729
0.00561072
0.00619796
0.00681048
0.00745013
0.00811918
0.00882048
0.0095575
0.0103344
0.0111562
0.0120287
0.0129584
0.0139527
0.0150197
0.0161683
0.0174077
0.0187474
0.0201972
0.0217668
0.023609
0.0257082
0.0278795
0.0301226
0.032438
0.0348266
0.0372902
0.0398317
0.0424544
0.0451616
0.0479564
0.050841
0.0538159
0.0568795
0.0600282
0.0632557
0.0665538
0.0699118
0.0733175
0.0767563
0.000172359
0.000522642
0.000889223
0.0012726
0.00167311
0.00209143
0.00252802
0.00298345
0.0034583
0.00395325
0.00446905
0.00500658
0.00556692
0.00615137
0.00676154
0.00739945
0.00806761
0.00876911
0.00950772
0.0102879
0.0111149
0.0119949
0.0129345
0.0139414
0.0150238
0.0161907
0.0174511
0.0188145
0.0202903
0.0218879
0.0237626
0.0258988
0.0281087
0.0303925
0.0327514
0.0351876
0.0377041
0.0403049
0.0429947
0.0457778
0.0486581
0.0516383
0.054719
0.057899
0.0611744
0.0645391
0.067985
0.0715019
0.075078
0.0786999
0.000170668
0.00051685
0.00087862
0.00125722
0.00165298
0.00206658
0.0024985
0.00294928
0.00341955
0.00390997
0.00442135
0.00495462
0.00551094
0.00609172
0.00669874
0.0073342
0.00800084
0.008702
0.00944172
0.0102247
0.0110566
0.0119435
0.0128925
0.0139113
0.0150083
0.0161923
0.0174722
0.0188573
0.0203565
0.021979
0.0238825
0.0260515
0.0282958
0.0306164
0.0330156
0.0354966
0.0380639
0.0407227
0.0434789
0.0463378
0.0493038
0.0523801
0.0555674
0.0588646
0.0622679
0.0657717
0.0693683
0.0730483
0.0768005
0.0806132
0.000168567
0.000509772
0.000865787
0.00123865
0.00162868
0.00203656
0.00246279
0.00290791
0.00337255
0.00385744
0.0043634
0.00489145
0.00544284
0.00601912
0.00662222
0.00725455
0.00791907
0.00861935
0.00935968
0.010145
0.0109811
0.0118745
0.0128322
0.0138621
0.0149725
0.0161721
0.0174697
0.018874
0.0203937
0.0220378
0.023966
0.0261631
0.0284376
0.0307912
0.0332272
0.0357504
0.0383665
0.041082
0.0439038
0.0468379
0.0498895
0.0530617
0.0563557
0.0597703
0.0633023
0.0669468
0.0706969
0.0745443
0.0784789
0.0824906
0.000166057
0.000501417
0.000850745
0.00121692
0.00160023
0.00200141
0.00242093
0.00285937
0.00331739
0.00379573
0.0042953
0.00481719
0.00536276
0.00593372
0.00653217
0.00716071
0.0078225
0.00852135
0.00926176
0.0100489
0.0108887
0.0117877
0.0127533
0.0137932
0.0149157
0.0161292
0.0174422
0.018863
0.0203999
0.0220617
0.0240102
0.0262309
0.0285312
0.0309138
0.0333835
0.0359461
0.038609
0.0413797