/*--------------------------------*- C++ -*----------------------------------*\
  =========                 |
  \\      /  F ield         | OpenFOAM: The Open Source CFD Toolbox
   \\    /   O peration     | Website:  https://openfoam.org
    \\  /    A nd           | Version:  9
     \\/     M anipulation  |
\*---------------------------------------------------------------------------*/
FoamFile
{
    format      ascii;
    class       volVectorField;
    location    "0.03";
    object      U;
}
// * * * * * * * * * * * * * * * * * * * * * * * * * * * * * * * * * * * * * //

dimensions      [0 1 -1 0 0 0 0];

internalField   nonuniform List<vector> 
5000
(
(-8.8709e-06 0 -0.000877396)
(-4.00168e-06 0 -0.00165848)
(-2.34507e-06 0 -0.0025031)
(-1.26803e-06 0 -0.00340772)
(-2.2458e-07 0 -0.00436862)
(8.51802e-07 0 -0.00538789)
(2.01999e-06 0 -0.00646948)
(3.29287e-06 0 -0.00761782)
(4.68518e-06 0 -0.00883786)
(6.20863e-06 0 -0.0101351)
(7.87109e-06 0 -0.011515)
(9.67913e-06 0 -0.0129834)
(1.16403e-05 0 -0.0145455)
(1.37638e-05 0 -0.0162067)
(1.60603e-05 0 -0.0179725)
(1.85413e-05 0 -0.0198483)
(2.12193e-05 0 -0.0218397)
(2.41075e-05 0 -0.0239527)
(2.72207e-05 0 -0.0261935)
(3.05752e-05 0 -0.0285688)
(3.41893e-05 0 -0.0310858)
(3.8084e-05 0 -0.0337522)
(4.22831e-05 0 -0.0365763)
(4.68142e-05 0 -0.0395673)
(5.17095e-05 0 -0.0427352)
(5.70062e-05 0 -0.0460912)
(6.27468e-05 0 -0.0496476)
(6.89769e-05 0 -0.0534181)
(7.57453e-05 0 -0.0574178)
(8.31231e-05 0 -0.0616627)
(9.14859e-05 0 -0.0665507)
(0.000100759 0 -0.0719741)
(0.000110468 0 -0.0774449)
(0.000120558 0 -0.0829676)
(0.000131013 0 -0.0885456)
(0.000141796 0 -0.0941798)
(0.00015285 0 -0.0998691)
(0.000164104 0 -0.10561)
(0.000175473 0 -0.111398)
(0.000186849 0 -0.117225)
(0.000198101 0 -0.123082)
(0.000209061 0 -0.128959)
(0.000219525 0 -0.134842)
(0.000229245 0 -0.140713)
(0.000237927 0 -0.146554)
(0.000245229 0 -0.15234)
(0.000250732 0 -0.158044)
(0.000253893 0 -0.163634)
(0.000254 0 -0.169068)
(0.000250258 0 -0.174294)
(-3.23589e-05 0 -0.000921429)
(-2.18937e-05 0 -0.00167597)
(-1.78122e-05 0 -0.00251522)
(-1.49442e-05 0 -0.00341849)
(-1.21909e-05 0 -0.00437948)
(-9.3664e-06 0 -0.00539945)
(-6.30722e-06 0 -0.00648191)
(-2.95942e-06 0 -0.00763123)
(7.29361e-07 0 -0.00885236)
(4.79564e-06 0 -0.0101507)
(9.26255e-06 0 -0.0115319)
(1.41505e-05 0 -0.0130015)
(1.94822e-05 0 -0.0145649)
(2.52852e-05 0 -0.0162276)
(3.15906e-05 0 -0.0179948)
(3.84328e-05 0 -0.0198721)
(4.5849e-05 0 -0.0218652)
(5.38791e-05 0 -0.02398)
(6.25666e-05 0 -0.0262228)
(7.19591e-05 0 -0.0286002)
(8.21092e-05 0 -0.0311193)
(9.30759e-05 0 -0.033788)
(0.000104926 0 -0.0366146)
(0.000117735 0 -0.0396083)
(0.00013159 0 -0.0427791)
(0.00014659 0 -0.0461382)
(0.000162843 0 -0.0496979)
(0.000180464 0 -0.053472)
(0.000199569 0 -0.0574756)
(0.000220328 0 -0.0617246)
(0.000244055 0 -0.0666172)
(0.000270544 0 -0.072046)
(0.000298136 0 -0.0775222)
(0.000326704 0 -0.0830506)
(0.000356205 0 -0.0886343)
(0.000386531 0 -0.0942745)
(0.000417517 0 -0.0999699)
(0.000448954 0 -0.105717)
(0.000480581 0 -0.111511)
(0.000512082 0 -0.117345)
(0.000543062 0 -0.123209)
(0.000573036 0 -0.129092)
(0.000601409 0 -0.134982)
(0.000627468 0 -0.14086)
(0.000650376 0 -0.146707)
(0.00066915 0 -0.1525)
(0.000682605 0 -0.15821)
(0.000689278 0 -0.163806)
(0.000687382 0 -0.169246)
(0.000674732 0 -0.174476)
(-5.35793e-05 0 -0.000943425)
(-4.43726e-05 0 -0.00169262)
(-4.00881e-05 0 -0.00252609)
(-3.6498e-05 0 -0.00342605)
(-3.30009e-05 0 -0.00438605)
(-2.92207e-05 0 -0.00540606)
(-2.49714e-05 0 -0.0064888)
(-2.01759e-05 0 -0.00763846)
(-1.47758e-05 0 -0.00885994)
(-8.7303e-06 0 -0.0101586)
(-2.00924e-06 0 -0.0115401)
(5.41708e-06 0 -0.01301)
(1.3583e-05 0 -0.0145737)
(2.25302e-05 0 -0.0162365)
(3.23072e-05 0 -0.018004)
(4.29679e-05 0 -0.0198815)
(5.45713e-05 0 -0.0218748)
(6.71812e-05 0 -0.0239897)
(8.0867e-05 0 -0.0262326)
(9.57046e-05 0 -0.02861)
(0.000111777 0 -0.0311293)
(0.000129178 0 -0.033798)
(0.000148011 0 -0.0366246)
(0.000168394 0 -0.0396183)
(0.000190457 0 -0.0427892)
(0.000214351 0 -0.0461483)
(0.000240236 0 -0.049708)
(0.000268276 0 -0.0534821)
(0.000298613 0 -0.0574856)
(0.000331467 0 -0.0617344)
(0.000369339 0 -0.0666262)
(0.000411834 0 -0.0720547)
(0.000455872 0 -0.0775305)
(0.000501323 0 -0.0830585)
(0.000548142 0 -0.0886417)
(0.000596148 0 -0.0942812)
(0.000645072 0 -0.0999758)
(0.000694568 0 -0.105722)
(0.000744207 0 -0.111514)
(0.000793464 0 -0.117346)
(0.000841693 0 -0.123208)
(0.000888103 0 -0.129089)
(0.000931733 0 -0.134974)
(0.000971441 0 -0.140849)
(0.00100589 0 -0.146691)
(0.00103351 0 -0.152477)
(0.00105244 0 -0.158181)
(0.00106043 0 -0.163768)
(0.00105491 0 -0.169197)
(0.00103237 0 -0.174415)
(-8.43654e-05 0 -0.000959761)
(-7.71136e-05 0 -0.00170901)
(-7.30153e-05 0 -0.00253898)
(-6.90739e-05 0 -0.0034362)
(-6.50327e-05 0 -0.00439568)
(-6.05483e-05 0 -0.00541622)
(-5.53977e-05 0 -0.00649975)
(-4.94674e-05 0 -0.00765021)
(-4.26893e-05 0 -0.00887246)
(-3.50142e-05 0 -0.0101718)
(-2.64018e-05 0 -0.011554)
(-1.68112e-05 0 -0.0130243)
(-6.19571e-06 0 -0.0145885)
(5.50083e-06 0 -0.0162517)
(1.83427e-05 0 -0.0180195)
(3.2402e-05 0 -0.0198974)
(4.77579e-05 0 -0.0218909)
(6.44955e-05 0 -0.024006)
(8.27083e-05 0 -0.026249)
(0.000102498 0 -0.0286265)
(0.000123977 0 -0.0311458)
(0.000147269 0 -0.0338145)
(0.000172512 0 -0.036641)
(0.000199861 0 -0.0396346)
(0.000229487 0 -0.0428053)
(0.000261582 0 -0.0461642)
(0.000296354 0 -0.0497237)
(0.000334008 0 -0.0534974)
(0.000374717 0 -0.0575004)
(0.000418723 0 -0.0617485)
(0.000469672 0 -0.0666389)
(0.000527001 0 -0.0720663)
(0.000586238 0 -0.0775412)
(0.000647254 0 -0.0830682)
(0.000709981 0 -0.0886503)
(0.000774163 0 -0.0942883)
(0.000839427 0 -0.099981)
(0.000905291 0 -0.105725)
(0.000971162 0 -0.111515)
(0.00103631 0 -0.117343)
(0.00109986 0 -0.123201)
(0.00116071 0 -0.129077)
(0.00121757 0 -0.134957)
(0.0012689 0 -0.140824)
(0.0013129 0 -0.146658)
(0.00134748 0 -0.152434)
(0.0013702 0 -0.158126)
(0.00137812 0 -0.1637)
(0.00136803 0 -0.169113)
(0.00133554 0 -0.174313)
(-0.000129996 0 -0.000970924)
(-0.000124176 0 -0.00172326)
(-0.000120375 0 -0.00255235)
(-0.000116002 0 -0.00344855)
(-0.000111261 0 -0.00440824)
(-0.000105984 0 -0.00542984)
(-9.99223e-05 0 -0.00651472)
(-9.29273e-05 0 -0.0076666)
(-8.49018e-05 0 -0.00889026)
(-7.5773e-05 0 -0.010191)
(-6.54805e-05 0 -0.0115744)
(-5.3966e-05 0 -0.013046)
(-4.11662e-05 0 -0.0146113)
(-2.70086e-05 0 -0.0162756)
(-1.14147e-05 0 -0.0180445)
(5.71186e-06 0 -0.0199233)
(2.447e-05 0 -0.0219178)
(4.49609e-05 0 -0.0240338)
(6.73039e-05 0 -0.0262778)
(9.16252e-05 0 -0.0286562)
(0.000118063 0 -0.0311764)
(0.000146771 0 -0.033846)
(0.000177917 0 -0.0366734)
(0.00021169 0 -0.0396679)
(0.000248297 0 -0.0428395)
(0.000287968 0 -0.0461993)
(0.000330949 0 -0.0497596)
(0.000377492 0 -0.0535343)
(0.000427806 0 -0.0575381)
(0.000482152 0 -0.0617867)
(0.00054516 0 -0.0666773)
(0.000616133 0 -0.0721055)
(0.000689367 0 -0.0775813)
(0.000764705 0 -0.0831092)
(0.000842026 0 -0.0886919)
(0.000920989 0 -0.0943304)
(0.00100112 0 -0.100023)
(0.0010818 0 -0.105767)
(0.00116228 0 -0.111556)
(0.00124164 0 -0.117383)
(0.00131876 0 -0.123238)
(0.00139229 0 -0.129111)
(0.0014606 0 -0.134987)
(0.00152181 0 -0.140848)
(0.0015737 0 -0.146675)
(0.00161372 0 -0.152443)
(0.00163891 0 -0.158124)
(0.00164579 0 -0.163684)
(0.00163067 0 -0.169082)
(0.00158841 0 -0.174263)
(-0.000191294 0 -0.000979542)
(-0.00018621 0 -0.00173556)
(-0.000182664 0 -0.00256591)
(-0.000177878 0 -0.00346245)
(-0.000172468 0 -0.00442285)
(-0.000166415 0 -0.00544567)
(-0.000159495 0 -0.00653211)
(-0.000151531 0 -0.00768569)
(-0.000142392 0 -0.0089111)
(-0.000131973 0 -0.0102136)
(-0.000120193 0 -0.0115986)
(-0.000106973 0 -0.0130718)
(-9.22318e-05 0 -0.0146387)
(-7.58794e-05 0 -0.0163046)
(-5.78168e-05 0 -0.018075)
(-3.79329e-05 0 -0.0199553)
(-1.61101e-05 0 -0.0219512)
(7.77843e-06 0 -0.0240688)
(3.38716e-05 0 -0.0263142)
(6.23181e-05 0 -0.0286941)
(9.32816e-05 0 -0.0312157)
(0.000126941 0 -0.0338868)
(0.000163495 0 -0.0367157)
(0.000203161 0 -0.0397117)
(0.000246178 0 -0.0428849)
(0.00029281 0 -0.0462463)
(0.000343336 0 -0.0498084)
(0.000398045 0 -0.0535847)
(0.000457187 0 -0.0575902)
(0.00052104 0 -0.0618403)
(0.000595129 0 -0.0667322)
(0.000678634 0 -0.0721622)
(0.000764705 0 -0.07764)
(0.000853148 0 -0.0831697)
(0.000943777 0 -0.0887541)
(0.00103617 0 -0.094394)
(0.00112974 0 -0.100088)
(0.00122376 0 -0.105832)
(0.00131731 0 -0.111621)
(0.0014093 0 -0.117447)
(0.00149838 0 -0.123301)
(0.00158296 0 -0.129171)
(0.00166113 0 -0.135043)
(0.00173066 0 -0.140899)
(0.001789 0 -0.146718)
(0.00183319 0 -0.152477)
(0.00185983 0 -0.158147)
(0.00186501 0 -0.163694)
(0.00184467 0 -0.169074)
(0.00179313 0 -0.174236)
(-0.000267821 0 -0.000986888)
(-0.000263018 0 -0.00174692)
(-0.000259607 0 -0.00257969)
(-0.000254525 0 -0.00347755)
(-0.000248586 0 -0.00443905)
(-0.000241891 0 -0.00546321)
(-0.000234251 0 -0.00655128)
(-0.00022547 0 -0.00770671)
(-0.000215382 0 -0.00893405)
(-0.000203857 0 -0.0102385)
(-0.000190789 0 -0.0116254)
(-0.000176083 0 -0.0131005)
(-0.00015964 0 -0.0146691)
(-0.000141352 0 -0.0163368)
(-0.000121104 0 -0.0181089)
(-9.87664e-05 0 -0.0199909)
(-7.42037e-05 0 -0.0219886)
(-4.7268e-05 0 -0.0241078)
(-1.78012e-05 0 -0.0263548)
(1.43682e-05 0 -0.0287364)
(4.9427e-05 0 -0.0312597)
(8.7578e-05 0 -0.0339325)
(0.000129045 0 -0.0367631)
(0.000174073 0 -0.0397608)
(0.000222931 0 -0.0429357)
(0.000275911 0 -0.046299)
(0.00033332 0 -0.0498628)
(0.000395478 0 -0.053641)
(0.000462663 0 -0.0576483)
(0.000535172 0 -0.0619)
(0.00061939 0 -0.0667934)
(0.000714369 0 -0.0722254)
(0.000812151 0 -0.0777051)
(0.000912509 0 -0.0832367)
(0.0010152 0 -0.0888228)
(0.00111971 0 -0.094464)
(0.00122537 0 -0.100159)
(0.00133132 0 -0.105903)
(0.0014365 0 -0.111691)
(0.00153965 0 -0.117516)
(0.00163922 0 -0.123368)
(0.00173339 0 -0.129234)
(0.00182 0 -0.135101)
(0.00189655 0 -0.14095)
(0.00196014 0 -0.146761)
(0.0020075 0 -0.152509)
(0.00203489 0 -0.158165)
(0.00203802 0 -0.163695)
(0.0020126 0 -0.169057)
(0.00195256 0 -0.174196)
(-0.000359562 0 -0.000993788)
(-0.000354803 0 -0.00175798)
(-0.000351455 0 -0.00259379)
(-0.000346165 0 -0.00349363)
(-0.000339841 0 -0.00445661)
(-0.000332653 0 -0.00548229)
(-0.000324441 0 -0.00657211)
(-0.000314995 0 -0.00772953)
(-0.000304122 0 -0.00895899)
(-0.000291663 0 -0.0102656)
(-0.000277494 0 -0.0116546)
(-0.000261502 0 -0.0131318)
(-0.000243574 0 -0.0147024)
(-0.000223588 0 -0.0163721)
(-0.000201412 0 -0.0181461)
(-0.000176901 0 -0.0200301)
(-0.000149902 0 -0.0220296)
(-0.000120248 0 -0.0241506)
(-8.77621e-05 0 -0.0263995)
(-5.22519e-05 0 -0.0287829)
(-1.35101e-05 0 -0.0313079)
(2.86895e-05 0 -0.0339825)
(7.45939e-05 0 -0.0368149)
(0.000124472 0 -0.0398145)
(0.000178618 0 -0.0429912)
(0.000237348 0 -0.0463563)
(0.000300996 0 -0.049922)
(0.000369905 0 -0.053702)
(0.000444376 0 -0.0577111)
(0.00052472 0 -0.0619644)
(0.000618129 0 -0.0668593)
(0.000723535 0 -0.072293)
(0.000831927 0 -0.0777746)
(0.000943049 0 -0.0833079)
(0.0010566 0 -0.0888954)
(0.00117199 0 -0.0945375)
(0.00128846 0 -0.100233)
(0.00140503 0 -0.105977)
(0.00152052 0 -0.111764)
(0.0016335 0 -0.117587)
(0.00174225 0 -0.123435)
(0.00184474 0 -0.129297)
(0.00193859 0 -0.135157)
(0.00202105 0 -0.140998)
(0.00208897 0 -0.146799)
(0.0021388 0 -0.152534)
(0.0021665 0 -0.158174)
(0.00216755 0 -0.163686)
(0.00213747 0 -0.169025)
(0.00206999 0 -0.174139)
(-0.000466971 0 -0.00100053)
(-0.000462157 0 -0.00176898)
(-0.00045886 0 -0.00260817)
(-0.000453432 0 -0.00351041)
(-0.000446834 0 -0.0044752)
(-0.000439267 0 -0.00550259)
(-0.000430593 0 -0.00659432)
(-0.000420598 0 -0.00775391)
(-0.000409064 0 -0.00898571)
(-0.000395813 0 -0.0102947)
(-0.000380698 0 -0.0116861)
(-0.000363593 0 -0.0131656)
(-0.00034437 0 -0.0147385)
(-0.000322895 0 -0.0164104)
(-0.00029902 0 -0.0181866)
(-0.000272587 0 -0.0200726)
(-0.000243426 0 -0.0220742)
(-0.000211355 0 -0.0241974)
(-0.000176176 0 -0.0264483)
(-0.00013768 0 -0.0288336)
(-9.56408e-05 0 -0.0313607)
(-4.98102e-05 0 -0.0340372)
(7.92808e-08 0 -0.0368717)
(5.43177e-05 0 -0.0398732)
(0.000113222 0 -0.0430519)
(0.00017713 0 -0.046419)
(0.000246398 0 -0.0499867)
(0.00032139 0 -0.0537687)
(0.00040243 0 -0.0577797)
(0.000489829 0 -0.0620348)
(0.000591519 0 -0.0669312)
(0.000706314 0 -0.0723668)
(0.000824245 0 -0.0778503)
(0.000945029 0 -0.0833852)
(0.00106831 0 -0.0889741)
(0.00119342 0 -0.0946171)
(0.00131951 0 -0.100312)
(0.0014455 0 -0.106056)
(0.00157008 0 -0.111842)
(0.00169169 0 -0.117662)
(0.00180846 0 -0.123506)
(0.00191817 0 -0.129363)
(0.00201825 0 -0.135216)
(0.00210575 0 -0.141048)
(0.0021773 0 -0.146837)
(0.00222913 0 -0.152558)
(0.00225699 0 -0.158181)
(0.00225616 0 -0.163672)
(0.00222207 0 -0.168988)
(0.00214835 0 -0.174075)
(-0.000590814 0 -0.00100719)
(-0.000585907 0 -0.00177996)
(-0.000582673 0 -0.00262273)
(-0.000577154 0 -0.00352767)
(-0.000570347 0 -0.00449454)
(-0.000562466 0 -0.00552384)
(-0.000553389 0 -0.00661767)
(-0.000542905 0 -0.0077796)
(-0.000530787 0 -0.00901395)
(-0.000516837 0 -0.0103255)
(-0.00050089 0 -0.0117196)
(-0.000482805 0 -0.0132016)
(-0.000462443 0 -0.0147771)
(-0.000439654 0 -0.0164514)
(-0.000414281 0 -0.01823)
(-0.000386149 0 -0.0201184)
(-0.000355074 0 -0.0221223)
(-0.000320857 0 -0.0242477)
(-0.000283286 0 -0.0265009)
(-0.000242132 0 -0.0288885)
(-0.000197153 0 -0.0314178)
(-0.000148081 0 -0.0340965)
(-9.46313e-05 0 -0.0369332)
(-3.64953e-05 0 -0.0399369)
(2.66653e-05 0 -0.0431178)
(9.52084e-05 0 -0.0464871)
(0.000169505 0 -0.0500571)
(0.000249942 0 -0.0538412)
(0.00033686 0 -0.0578543)
(0.000430573 0 -0.0621113)
(0.000539667 0 -0.0670095)
(0.00066285 0 -0.0724471)
(0.000789293 0 -0.0779327)
(0.00091869 0 -0.0834694)
(0.00105062 0 -0.0890597)
(0.00118435 0 -0.0947036)
(0.00131895 0 -0.100399)
(0.00145325 0 -0.106142)
(0.00158583 0 -0.111926)
(0.00171501 0 -0.117744)
(0.00183876 0 -0.123584)
(0.00195475 0 -0.129434)
(0.00206022 0 -0.13528)
(0.00215207 0 -0.141102)
(0.00222674 0 -0.146878)
(0.0022803 0 -0.152584)
(0.00230835 0 -0.15819)
(0.00230604 0 -0.163659)
(0.00226876 0 -0.16895)
(0.00219014 0 -0.174008)
(-0.00073191 0 -0.00101381)
(-0.000726894 0 -0.00179093)
(-0.000723733 0 -0.00263743)
(-0.000718138 0 -0.0035453)
(-0.000711138 0 -0.00451453)
(-0.000702955 0 -0.00554598)
(-0.000693481 0 -0.00664206)
(-0.000682518 0 -0.0078065)
(-0.000669839 0 -0.00904355)
(-0.000655236 0 -0.0103579)
(-0.000638529 0 -0.0117548)
(-0.000619563 0 -0.0132396)
(-0.000598183 0 -0.0148177)
(-0.000574228 0 -0.0164947)
(-0.000547525 0 -0.0182759)
(-0.000517888 0 -0.0201669)
(-0.000485117 0 -0.0221733)
(-0.000448999 0 -0.0243012)
(-0.000409308 0 -0.0265568)
(-0.000365798 0 -0.0289469)
(-0.000318211 0 -0.0314786)
(-0.000266264 0 -0.0341598)
(-0.000209655 0 -0.0369988)
(-0.000148057 0 -0.0400049)
(-8.11187e-05 0 -0.0431882)
(-8.46447e-06 0 -0.0465599)
(7.02951e-05 0 -0.0501323)
(0.000155561 0 -0.0539188)
(0.000247693 0 -0.0579341)
(0.000347004 0 -0.0621931)
(0.000462661 0 -0.0670933)
(0.000593276 0 -0.0725332)
(0.000727247 0 -0.0780208)
(0.000864251 0 -0.0835595)
(0.00100381 0 -0.0891512)
(0.00114512 0 -0.094796)
(0.00128719 0 -0.100492)
(0.00142876 0 -0.106234)
(0.00156833 0 -0.112016)
(0.0017041 0 -0.117831)
(0.00183393 0 -0.123666)
(0.00195537 0 -0.12951)
(0.00206553 0 -0.135347)
(0.00216117 0 -0.141159)
(0.00223861 0 -0.146922)
(0.0022938 0 -0.152612)
(0.00232223 0 -0.158199)
(0.00231898 0 -0.163646)
(0.00227946 0 -0.16891)
(0.00219736 0 -0.17394)
(-0.000890819 0 -0.00102038)
(-0.000885696 0 -0.00180189)
(-0.000882602 0 -0.00265225)
(-0.000876926 0 -0.00356332)
(-0.000869731 0 -0.00453519)
(-0.000861238 0 -0.00556903)
(-0.000851351 0 -0.00666754)
(-0.000839893 0 -0.00783461)
(-0.00082665 0 -0.00907447)
(-0.000811411 0 -0.0103918)
(-0.000793988 0 -0.0117916)
(-0.00077421 0 -0.0132792)
(-0.000751907 0 -0.0148602)
(-0.000726905 0 -0.01654)
(-0.000699017 0 -0.018324)
(-0.000668044 0 -0.0202177)
(-0.000633774 0 -0.0222268)
(-0.000595978 0 -0.0243574)
(-0.000554416 0 -0.0266157)
(-0.000508832 0 -0.0290083)
(-0.000458949 0 -0.0315426)
(-0.000404472 0 -0.0342263)
(-0.000345084 0 -0.0370679)
(-0.000280445 0 -0.0400766)
(-0.000210188 0 -0.0432624)
(-0.000133925 0 -0.0466367)
(-5.12517e-05 0 -0.0502115)
(3.82475e-05 0 -0.0540005)
(0.000134947 0 -0.0580182)
(0.000239157 0 -0.0622794)
(0.000360565 0 -0.0671817)
(0.000497686 0 -0.0726238)
(0.000638237 0 -0.0781136)
(0.000781876 0 -0.0836542)
(0.000928071 0 -0.0892473)
(0.00107598 0 -0.0948929)
(0.00122452 0 -0.100589)
(0.0013724 0 -0.10633)
(0.001518 0 -0.11211)
(0.00165946 0 -0.117921)
(0.00179456 0 -0.123752)
(0.00192072 0 -0.129589)
(0.00203497 0 -0.135418)
(0.00213397 0 -0.141218)
(0.00221395 0 -0.146968)
(0.00227078 0 -0.152641)
(0.0022999 0 -0.158207)
(0.00229638 0 -0.163631)
(0.00225564 0 -0.168869)
(0.00217156 0 -0.173869)
(-0.00106769 0 -0.00102693)
(-0.00106247 0 -0.00181285)
(-0.00105944 0 -0.00266723)
(-0.00105369 0 -0.00358172)
(-0.00104631 0 -0.00455652)
(-0.00103752 0 -0.00559301)
(-0.00102722 0 -0.00669415)
(-0.00101527 0 -0.00786397)
(-0.00100147 0 -0.00910673)
(-0.000985623 0 -0.010427)
(-0.000967523 0 -0.0118298)
(-0.000946993 0 -0.0133205)
(-0.00092385 0 -0.0149045)
(-0.000897906 0 -0.0165872)
(-0.000868963 0 -0.018374)
(-0.000836808 0 -0.0202706)
(-0.000801217 0 -0.0222826)
(-0.00076195 0 -0.024416)
(-0.000718753 0 -0.026677)
(-0.000671357 0 -0.0290724)
(-0.000619475 0 -0.0316094)
(-0.000562799 0 -0.0342958)
(-0.000501 0 -0.03714)
(-0.000433725 0 -0.0401514)
(-0.000360597 0 -0.0433399)
(-0.000281216 0 -0.0467168)
(-0.000195163 0 -0.0502943)
(-0.000102013 0 -0.0540859)
(-1.37986e-06 0 -0.058106)
(0.000107049 0 -0.0623694)
(0.000233411 0 -0.0672739)
(0.000376132 0 -0.0727184)
(0.00052233 0 -0.0782104)
(0.000671656 0 -0.0837528)
(0.000823532 0 -0.0893474)
(0.000977066 0 -0.0949937)
(0.00113114 0 -0.100689)
(0.00128438 0 -0.10643)
(0.00143514 0 -0.112208)
(0.00158147 0 -0.118015)
(0.00172107 0 -0.123841)
(0.00185131 0 -0.129671)
(0.00196915 0 -0.13549)
(0.00207116 0 -0.141279)
(0.00215355 0 -0.147014)
(0.00221213 0 -0.15267)
(0.00224235 0 -0.158216)
(0.00223929 0 -0.163616)
(0.00219842 0 -0.168827)
(0.00211389 0 -0.173797)
(-0.00126238 0 -0.00103344)
(-0.00125707 0 -0.00182381)
(-0.00125411 0 -0.00268231)
(-0.00124832 0 -0.00360045)
(-0.00124079 0 -0.00457846)
(-0.00123175 0 -0.00561787)
(-0.0012211 0 -0.00672183)
(-0.0012087 0 -0.00789452)
(-0.00119439 0 -0.00914025)
(-0.00117797 0 -0.0104636)
(-0.00115925 0 -0.0118695)
(-0.00113804 0 -0.0133632)
(-0.00111415 0 -0.0149503)
(-0.00108737 0 -0.016636)
(-0.00105749 0 -0.0184259)
(-0.0010243 0 -0.0203254)
(-0.000987564 0 -0.0223403)
(-0.000947023 0 -0.0244766)
(-0.000902416 0 -0.0267405)
(-0.000853465 0 -0.0291388)
(-0.00079987 0 -0.0316786)
(-0.000741317 0 -0.0343678)
(-0.000677464 0 -0.0372148)
(-0.00060795 0 -0.040229)
(-0.000532389 0 -0.0434203)
(-0.000450368 0 -0.0467999)
(-0.00036146 0 -0.0503801)
(-0.000265231 0 -0.0541743)
(-0.000161284 0 -0.058197)
(-4.93085e-05 0 -0.0624627)
(8.12231e-05 0 -0.0673695)
(0.000228646 0 -0.0728163)
(0.000379577 0 -0.0783106)
(0.000533661 0 -0.0838549)
(0.000690282 0 -0.0894508)
(0.000848512 0 -0.0950979)
(0.0010072 0 -0.100793)
(0.00116492 0 -0.106533)
(0.00131999 0 -0.112308)
(0.0014704 0 -0.118112)
(0.00161383 0 -0.123932)
(0.00174757 0 -0.129755)
(0.00186855 0 -0.135564)
(0.00197332 0 -0.141341)
(0.00205806 0 -0.147062)
(0.00211859 0 -0.1527)
(0.00215037 0 -0.158226)
(0.00214857 0 -0.163602)
(0.00210872 0 -0.168785)
(0.00202527 0 -0.173725)
(-0.00147469 0 -0.00103989)
(-0.0014693 0 -0.00183471)
(-0.00146642 0 -0.00269743)
(-0.00146062 0 -0.0036194)
(-0.00145301 0 -0.00460085)
(-0.00144378 0 -0.00564342)
(-0.00143285 0 -0.00675041)
(-0.0014201 0 -0.00792611)
(-0.00140536 0 -0.0091749)
(-0.00138845 0 -0.0105013)
(-0.00136919 0 -0.0119104)
(-0.00134739 0 -0.0134073)
(-0.00132283 0 -0.0149974)
(-0.00129533 0 -0.0166862)
(-0.00126466 0 -0.0184792)
(-0.00123058 0 -0.0203818)
(-0.00119287 0 -0.0223998)
(-0.00115125 0 -0.024539)
(-0.00110545 0 -0.0268059)
(-0.00105519 0 -0.0292071)
(-0.00100017 0 -0.0317499)
(-0.000940052 0 -0.034442)
(-0.000874497 0 -0.0372919)
(-0.000803134 0 -0.0403089)
(-0.000725568 0 -0.043503)
(-0.000641379 0 -0.0468855)
(-0.000550132 0 -0.0504685)
(-0.000451386 0 -0.0542654)
(-0.000344736 0 -0.0582907)
(-0.000229874 0 -0.0625588)
(-9.59488e-05 0 -0.0674679)
(5.52925e-05 0 -0.0729172)
(0.000210055 0 -0.0784137)
(0.000367985 0 -0.0839599)
(0.000528436 0 -0.0895572)
(0.000690457 0 -0.0952049)
(0.000852869 0 -0.1009)
(0.00101423 0 -0.106638)
(0.0011728 0 -0.112411)
(0.00132657 0 -0.118211)
(0.00147318 0 -0.124025)
(0.0016099 0 -0.129841)
(0.00173366 0 -0.13564)
(0.00184099 0 -0.141405)
(0.00192808 0 -0.147111)
(0.0019908 0 -0.152732)
(0.00202468 0 -0.158236)
(0.00202498 0 -0.163588)
(0.0019873 0 -0.168745)
(0.00190647 0 -0.173654)
(-0.00170454 0 -0.00104629)
(-0.00169909 0 -0.00184553)
(-0.0016963 0 -0.0027125)
(-0.00169051 0 -0.00363842)
(-0.00168285 0 -0.0046235)
(-0.00167352 0 -0.00566945)
(-0.0016624 0 -0.00677966)
(-0.00164937 0 -0.00795852)
(-0.00163429 0 -0.00921048)
(-0.00161699 0 -0.0105401)
(-0.00159729 0 -0.0119523)
(-0.00157499 0 -0.0134524)
(-0.00154989 0 -0.0150458)
(-0.00152178 0 -0.0167377)
(-0.00149044 0 -0.0185338)
(-0.00145564 0 -0.0204396)
(-0.00141712 0 -0.0224606)
(-0.00137461 0 -0.024603)
(-0.00132785 0 -0.0268729)
(-0.00127654 0 -0.0292771)
(-0.00122036 0 -0.0318228)
(-0.00115899 0 -0.0345179)
(-0.00109208 0 -0.0373708)
(-0.00101925 0 -0.0403907)
(-0.0009401 0 -0.0435877)
(-0.000854207 0 -0.0469731)
(-0.000761128 0 -0.0505589)
(-0.000660418 0 -0.0543586)
(-0.000551667 0 -0.0583865)
(-0.000434571 0 -0.0626571)
(-0.000298018 0 -0.0675686)
(-0.000143832 0 -0.0730203)
(1.3877e-05 0 -0.0785191)
(0.000174759 0 -0.0840671)
(0.000338145 0 -0.0896658)
(0.000503073 0 -0.0953142)
(0.000668351 0 -0.101009)
(0.000832519 0 -0.106746)
(0.000993841 0 -0.112517)
(0.00115028 0 -0.118312)
(0.00129948 0 -0.124121)
(0.00143872 0 -0.129928)
(0.00156492 0 -0.135718)
(0.00167467 0 -0.141471)
(0.00176417 0 -0.147162)
(0.00182938 0 -0.152765)
(0.0018659 0 -0.158249)
(0.00186916 0 -0.163577)
(0.00183482 0 -0.168706)
(0.00175814 0 -0.173586)
(-0.00195207 0 -0.00105264)
(-0.00194653 0 -0.00185627)
(-0.00194381 0 -0.00272752)
(-0.00193804 0 -0.00365746)
(-0.00193036 0 -0.0046463)
(-0.00192095 0 -0.00569579)
(-0.0019097 0 -0.00680938)
(-0.00189648 0 -0.00799154)
(-0.00188115 0 -0.00924677)
(-0.00186355 0 -0.0105797)
(-0.00184349 0 -0.0119952)
(-0.0018208 0 -0.0134985)
(-0.00179527 0 -0.015095)
(-0.00176669 0 -0.0167902)
(-0.00173482 0 -0.0185895)
(-0.00169944 0 -0.0204984)
(-0.00166028 0 -0.0225226)
(-0.00161709 0 -0.0246681)
(-0.00156958 0 -0.0269411)
(-0.00151745 0 -0.0293483)
(-0.0014604 0 -0.0318971)
(-0.00139809 0 -0.0345952)
(-0.00133016 0 -0.037451)
(-0.00125624 0 -0.0404739)
(-0.00117593 0 -0.0436739)
(-0.00108879 0 -0.0470622)
(-0.000994375 0 -0.0506509)
(-0.000892248 0 -0.0544534)
(-0.000781991 0 -0.058484)
(-0.000663306 0 -0.062757)
(-0.000524884 0 -0.0676709)
(-0.000368614 0 -0.0731251)
(-0.000208834 0 -0.0786261)
(-4.58816e-05 0 -0.0841761)
(0.000119562 0 -0.089776)
(0.000286532 0 -0.095425)
(0.00045384 0 -0.10112)
(0.000620026 0 -0.106855)
(0.00078336 0 -0.112623)
(0.000941817 0 -0.118415)
(0.00109305 0 -0.124218)
(0.00123437 0 -0.130018)
(0.00136274 0 -0.135798)
(0.00147478 0 -0.141538)
(0.00156679 0 -0.147214)
(0.0016348 0 -0.1528)
(0.00167455 0 -0.158263)
(0.00168163 0 -0.163567)
(0.0016518 0 -0.16867)
(0.00158076 0 -0.173521)
(-0.00221745 0 -0.00105901)
(-0.0022118 0 -0.00186702)
(-0.00220913 0 -0.00274253)
(-0.00220334 0 -0.00367653)
(-0.00219563 0 -0.00466921)
(-0.00218616 0 -0.00572234)
(-0.0021748 0 -0.00683943)
(-0.00216143 0 -0.008025)
(-0.00214592 0 -0.00928359)
(-0.00212809 0 -0.0106198)
(-0.00210778 0 -0.0120386)
(-0.0020848 0 -0.0135452)
(-0.00205894 0 -0.015145)
(-0.00203 0 -0.0168435)
(-0.00199774 0 -0.018646)
(-0.00196194 0 -0.0205581)
(-0.00192232 0 -0.0225854)
(-0.00187863 0 -0.024734)
(-0.00183059 0 -0.0270101)
(-0.0017779 0 -0.0294205)
(-0.00172024 0 -0.0319723)
(-0.00165729 0 -0.0346734)
(-0.00158869 0 -0.0375323)
(-0.00151405 0 -0.0405581)
(-0.00143298 0 -0.0437611)
(-0.00134504 0 -0.0471523)
(-0.0012498 0 -0.0507439)
(-0.00114679 0 -0.0545492)
(-0.00103562 0 -0.0585824)
(-0.000915986 0 -0.0628579)
(-0.000776446 0 -0.0677742)
(-0.000618948 0 -0.0732309)
(-0.000457964 0 -0.0787342)
(-0.000293813 0 -0.084286)
(-0.000127179 0 -0.0898873)
(4.09853e-05 0 -0.095537)
(0.000209503 0 -0.101232)
(0.000376932 0 -0.106966)
(0.000541564 0 -0.112731)
(0.000701404 0 -0.118519)
(0.000854141 0 -0.124316)
(0.000997132 0 -0.130108)
(0.0011274 0 -0.135879)
(0.00124165 0 -0.141607)
(0.00133628 0 -0.147268)
(0.00140743 0 -0.152837)
(0.00145099 0 -0.15828)
(0.00146276 0 -0.163561)
(0.0014386 0 -0.168638)
(0.00137467 0 -0.173461)
(-0.00250074 0 -0.00106544)
(-0.00249496 0 -0.00187785)
(-0.0024923 0 -0.00275764)
(-0.00248648 0 -0.00369571)
(-0.00247871 0 -0.00469227)
(-0.00246918 0 -0.0057491)
(-0.00245774 0 -0.00686976)
(-0.00244426 0 -0.00805881)
(-0.0024286 0 -0.0093208)
(-0.00241062 0 -0.0106604)
(-0.00239012 0 -0.0120825)
(-0.00236694 0 -0.0135925)
(-0.00234086 0 -0.0151956)
(-0.00231168 0 -0.0168973)
(-0.00227917 0 -0.018703)
(-0.00224309 0 -0.0206183)
(-0.00220319 0 -0.0226488)
(-0.0021592 0 -0.0248006)
(-0.00211084 0 -0.0270798)
(-0.00205782 0 -0.0294933)
(-0.00199983 0 -0.0320482)
(-0.00193654 0 -0.0347523)
(-0.0018676 0 -0.0376141)
(-0.00179261 0 -0.040643)
(-0.00171119 0 -0.0438489)
(-0.00162291 0 -0.047243)
(-0.00152731 0 -0.0508375)
(-0.00142397 0 -0.0546456)
(-0.00131247 0 -0.0586815)
(-0.00119252 0 -0.0629594)
(-0.00105261 0 -0.0678782)
(-0.000894737 0 -0.0733373)
(-0.000733409 0 -0.0788428)
(-0.000568923 0 -0.0843965)
(-0.000401957 0 -0.0899992)
(-0.000233438 0 -0.0956494)
(-6.45189e-05 0 -0.101344)
(0.000103392 0 -0.107077)
(0.000268625 0 -0.11284)
(0.000429233 0 -0.118623)
(0.000582959 0 -0.124415)
(0.000727232 0 -0.1302)
(0.00085916 0 -0.135961)
(0.000975545 0 -0.141677)
(0.00107291 0 -0.147325)
(0.00114753 0 -0.152876)
(0.0011955 0 -0.1583)
(0.00121281 0 -0.163559)
(0.00119546 0 -0.168611)
(0.00114006 0 -0.173407)
(-0.0028018 0 -0.00107197)
(-0.0027959 0 -0.00188882)
(-0.00279324 0 -0.00277289)
(-0.00278739 0 -0.00371505)
(-0.00277957 0 -0.0047155)
(-0.00276998 0 -0.00577607)
(-0.00275847 0 -0.00690033)
(-0.00274492 0 -0.00809287)
(-0.00272917 0 -0.00935831)
(-0.00271109 0 -0.0107013)
(-0.00269049 0 -0.0121268)
(-0.00266719 0 -0.01364)
(-0.00264099 0 -0.0152464)
(-0.00261168 0 -0.0169514)
(-0.00257905 0 -0.0187603)
(-0.00254284 0 -0.0206788)
(-0.00250282 0 -0.0227125)
(-0.00245871 0 -0.0248674)
(-0.00241026 0 -0.0271498)
(-0.00235715 0 -0.0295663)
(-0.0022991 0 -0.0321242)
(-0.00223577 0 -0.0348314)
(-0.00216681 0 -0.0376962)
(-0.00209184 0 -0.040728)
(-0.00201048 0 -0.0439368)
(-0.00192228 0 -0.0473339)
(-0.00182684 0 -0.0509312)
(-0.00172369 0 -0.054742)
(-0.00161244 0 -0.0587805)
(-0.00149282 0 -0.0630609)
(-0.00135328 0 -0.067982)
(-0.00119587 0 -0.0734437)
(-0.00103506 0 -0.0789514)
(-0.000871094 0 -0.084507)
(-0.000704647 0 -0.090111)
(-0.000536607 0 -0.0957619)
(-0.000368084 0 -0.101456)
(-0.000200443 0 -0.107188)
(-3.52958e-05 0 -0.112948)
(0.000125473 0 -0.118728)
(0.000279685 0 -0.124514)
(0.000424858 0 -0.130292)
(0.000558206 0 -0.136044)
(0.000676656 0 -0.141749)
(0.000776873 0 -0.147383)
(0.000855316 0 -0.152918)
(0.000908254 0 -0.158323)
(0.000931919 0 -0.163561)
(0.000922479 0 -0.16859)
(0.000876985 0 -0.17336)
(-0.0031204 0 -0.00107858)
(-0.0031144 0 -0.00189989)
(-0.00311176 0 -0.00278828)
(-0.00310588 0 -0.00373452)
(-0.00309803 0 -0.00473886)
(-0.00308842 0 -0.00580316)
(-0.00307688 0 -0.00693103)
(-0.0030633 0 -0.00812709)
(-0.00304753 0 -0.00939597)
(-0.00302941 0 -0.0107423)
(-0.00300878 0 -0.0121712)
(-0.00298545 0 -0.0136877)
(-0.00295923 0 -0.0152974)
(-0.00292991 0 -0.0170056)
(-0.00289728 0 -0.0188178)
(-0.00286109 0 -0.0207394)
(-0.00282111 0 -0.0227763)
(-0.00277708 0 -0.0249343)
(-0.00272874 0 -0.0272197)
(-0.00267579 0 -0.0296393)
(-0.00261793 0 -0.0322002)
(-0.00255485 0 -0.0349103)
(-0.00248621 0 -0.0377781)
(-0.00241162 0 -0.0408128)
(-0.00233071 0 -0.0440245)
(-0.00224306 0 -0.0474243)
(-0.00214824 0 -0.0510244)
(-0.00204582 0 -0.054838)
(-0.00193541 0 -0.058879)
(-0.00181673 0 -0.0631618)
(-0.00167831 0 -0.0680853)
(-0.00152222 0 -0.0735494)
(-0.00136276 0 -0.0790594)
(-0.00120018 0 -0.0846168)
(-0.0010351 0 -0.0902222)
(-0.000868364 0 -0.0958738)
(-0.000701034 0 -0.101568)
(-0.000534408 0 -0.107298)
(-0.00037003 0 -0.113057)
(-0.000209701 0 -0.118833)
(-5.55045e-05 0 -0.124614)
(9.01869e-05 0 -0.130386)
(0.000224716 0 -0.136129)
(0.000345155 0 -0.141823)
(0.000448335 0 -0.147444)
(0.00053091 0 -0.152964)
(0.00058936 0 -0.158351)
(0.000620173 0 -0.163569)
(0.000619702 0 -0.168575)
(0.000585426 0 -0.173321)
(-0.00345629 0 -0.00108524)
(-0.00345021 0 -0.00191103)
(-0.00344759 0 -0.00280371)
(-0.00344173 0 -0.00375403)
(-0.00343388 0 -0.00476225)
(-0.00342429 0 -0.00583028)
(-0.00341278 0 -0.00696175)
(-0.00339923 0 -0.00816132)
(-0.00338349 0 -0.00943363)
(-0.00336542 0 -0.0107834)
(-0.00334484 0 -0.0122156)
(-0.00332158 0 -0.0137354)
(-0.00329544 0 -0.0153483)
(-0.00326622 0 -0.0170597)
(-0.00323371 0 -0.018875)
(-0.0031977 0 -0.0207998)
(-0.00315793 0 -0.0228398)
(-0.00311416 0 -0.0250009)
(-0.00306613 0 -0.0272893)
(-0.00301357 0 -0.0297118)
(-0.00295618 0 -0.0322757)
(-0.00289365 0 -0.0349887)
(-0.00282564 0 -0.0378593)
(-0.00275179 0 -0.0408969)
(-0.00267173 0 -0.0441114)
(-0.00258506 0 -0.047514)
(-0.00249135 0 -0.0511168)
(-0.00239019 0 -0.054933)
(-0.0022812 0 -0.0589765)
(-0.00216411 0 -0.0632616)
(-0.00202754 0 -0.0681875)
(-0.00187359 0 -0.073654)
(-0.00171635 0 -0.0791661)
(-0.001556 0 -0.0847254)
(-0.00139313 0 -0.0903322)
(-0.00122853 0 -0.0959846)
(-0.00106318 0 -0.101679)
(-0.000898322 0 -0.107408)
(-0.000735397 0 -0.113165)
(-0.000576114 0 -0.118938)
(-0.00042244 0 -0.124714)
(-0.00027662 0 -0.130479)
(-0.000141162 0 -0.136214)
(-1.88281e-05 0 -0.141898)
(8.7401e-05 0 -0.147507)
(0.000174393 0 -0.153012)
(0.000238862 0 -0.158383)