/*--------------------------------*- C++ -*----------------------------------*\
  =========                 |
  \\      /  F ield         | OpenFOAM: The Open Source CFD Toolbox
   \\    /   O peration     | Website:  https://openfoam.org
    \\  /    A nd           | Version:  9
     \\/     M anipulation  |
\*---------------------------------------------------------------------------*/
FoamFile
{
    format      ascii;
    class       surfaceVectorField;
    location    "0.03";
    object      Uf;
}
// * * * * * * * * * * * * * * * * * * * * * * * * * * * * * * * * * * * * * //

dimensions      [0 1 -1 0 0 0 0];

internalField   nonuniform List<vector> 
9850
(
(-5.32758e-06 0 -0.0012586)
(-2.06149e-05 0 -0.00089909)
(-3.13429e-06 0 -0.0020707)
(-1.29477e-05 0 -0.00166681)
(-1.81981e-06 0 -0.0029446)
(-1.00786e-05 0 -0.00250877)
(-7.51729e-07 0 -0.00387669)
(-8.10612e-06 0 -0.00341275)
(2.96008e-07 0 -0.00486607)
(-6.20772e-06 0 -0.00437369)
(1.41633e-06 0 -0.00591576)
(-4.2573e-06 0 -0.00539329)
(2.63359e-06 0 -0.00702993)
(-2.14361e-06 0 -0.00647528)
(3.96305e-06 0 -0.00821326)
(1.66723e-07 0 -0.00762405)
(5.41859e-06 0 -0.00947096)
(2.70727e-06 0 -0.00884456)
(7.00963e-06 0 -0.0108086)
(5.50214e-06 0 -0.0101423)
(8.74294e-06 0 -0.0122317)
(8.56682e-06 0 -0.0115227)
(1.06254e-05 0 -0.0137458)
(1.19148e-05 0 -0.0129916)
(1.26653e-05 0 -0.0153563)
(1.55613e-05 0 -0.0145543)
(1.48727e-05 0 -0.0170685)
(1.95245e-05 0 -0.0162161)
(1.72587e-05 0 -0.018888)
(2.38254e-05 0 -0.0179825)
(1.98352e-05 0 -0.0208202)
(2.84871e-05 0 -0.0198589)
(2.26152e-05 0 -0.0228709)
(3.35341e-05 0 -0.021851)
(2.56125e-05 0 -0.0250463)
(3.89933e-05 0 -0.0239647)
(2.88426e-05 0 -0.0273528)
(4.48937e-05 0 -0.0262063)
(3.23228e-05 0 -0.0297973)
(5.12671e-05 0 -0.0285825)
(3.60726e-05 0 -0.0323871)
(5.81492e-05 0 -0.0311004)
(4.01143e-05 0 -0.0351305)
(6.55799e-05 0 -0.0337677)
(4.44735e-05 0 -0.038036)
(7.36045e-05 0 -0.0365928)
(4.91799e-05 0 -0.0411134)
(8.22747e-05 0 -0.0395848)
(5.42682e-05 0 -0.0443731)
(9.16498e-05 0 -0.0427539)
(5.97782e-05 0 -0.0478269)
(0.000101798 0 -0.0461111)
(6.57548e-05 0 -0.0514878)
(0.000112795 0 -0.0496689)
(7.22449e-05 0 -0.0553701)
(0.000124721 0 -0.0534408)
(7.92958e-05 0 -0.0594895)
(0.000137657 0 -0.0574421)
(8.69458e-05 0 -0.0638607)
(0.000151725 0 -0.0616886)
(9.60505e-05 0 -0.0692624)
(0.00016777 0 -0.0665783)
(0.000105563 0 -0.0747095)
(0.000185652 0 -0.0720039)
(0.000115463 0 -0.0802062)
(0.000204302 0 -0.0774768)
(0.00012574 0 -0.0857566)
(0.000223631 0 -0.0830018)
(0.000136368 0 -0.0913627)
(0.000243609 0 -0.088582)
(0.000147298 0 -0.0970245)
(0.000264163 0 -0.0942186)
(0.000158466 0 -0.10274)
(0.000285184 0 -0.0999103)
(0.000169794 0 -0.108504)
(0.000306529 0 -0.105654)
(0.000181187 0 -0.114311)
(0.000328027 0 -0.111444)
(0.000192526 0 -0.120153)
(0.000349465 0 -0.117273)
(0.000203663 0 -0.126021)
(0.000370581 0 -0.123133)
(0.000214413 0 -0.1319)
(0.000391049 0 -0.129013)
(0.000224549 0 -0.137777)
(0.000410467 0 -0.134898)
(0.000233802 0 -0.143633)
(0.000428356 0 -0.140772)
(0.000241854 0 -0.149447)
(0.000444151 0 -0.146615)
(0.000248332 0 -0.155192)
(0.00045719 0 -0.152403)
(0.000252763 0 -0.160839)
(0.000466668 0 -0.158109)
(0.000254522 0 -0.166351)
(0.000471586 0 -0.163701)
(0.000252847 0 -0.171681)
(0.000470691 0 -0.169138)
(0.000462495 0 -0.174364)
(-2.55751e-05 0 -0.00128969)
(-4.29691e-05 0 -0.000931997)
(-2.01664e-05 0 -0.00208557)
(-3.31332e-05 0 -0.00168364)
(-1.64839e-05 0 -0.00295606)
(-2.89501e-05 0 -0.00251968)
(-1.35731e-05 0 -0.0038875)
(-2.57211e-05 0 -0.00342097)
(-1.08058e-05 0 -0.00487728)
(-2.25959e-05 0 -0.00438114)
(-7.87522e-06 0 -0.00592775)
(-1.92936e-05 0 -0.00540081)
(-4.68238e-06 0 -0.00704284)
(-1.56393e-05 0 -0.00648308)
(-1.17266e-06 0 -0.0082272)
(-1.15677e-05 0 -0.00763222)
(2.6969e-06 0 -0.00948602)
(-7.02324e-06 0 -0.00885316)
(6.95631e-06 0 -0.0108248)
(-1.96733e-06 0 -0.0101513)
(1.1627e-05 0 -0.0122491)
(3.62665e-06 0 -0.0115322)
(1.673e-05 0 -0.0137645)
(9.78377e-06 0 -0.0130014)
(2.22898e-05 0 -0.0153764)
(1.65326e-05 0 -0.0145645)
(2.8336e-05 0 -0.0170901)
(2.39077e-05 0 -0.0162267)
(3.49013e-05 0 -0.018911)
(3.19489e-05 0 -0.0179935)
(4.20217e-05 0 -0.0208449)
(4.07003e-05 0 -0.0198702)
(4.97354e-05 0 -0.0228974)
(5.02101e-05 0 -0.0218627)
(5.80843e-05 0 -0.0250746)
(6.05301e-05 0 -0.0239768)
(6.71135e-05 0 -0.0273831)
(7.17168e-05 0 -0.0262188)
(7.68731e-05 0 -0.0298296)
(8.38319e-05 0 -0.0285954)
(8.74188e-05 0 -0.0324218)
(9.69433e-05 0 -0.0311136)
(9.88133e-05 0 -0.0351675)
(0.000111127 0 -0.0337813)
(0.000111128 0 -0.0380757)
(0.000126469 0 -0.0366068)
(0.000124443 0 -0.0411558)
(0.000143064 0 -0.0395993)
(0.000138852 0 -0.0444185)
(0.000161024 0 -0.0427688)
(0.000154459 0 -0.0478755)
(0.00018047 0 -0.0461266)
(0.000171377 0 -0.0515399)
(0.00020154 0 -0.0496848)
(0.000189723 0 -0.055426)
(0.00022437 0 -0.0534573)
(0.000209597 0 -0.0595493)
(0.000249091 0 -0.0574591)
(0.000231026 0 -0.0639247)
(0.000275897 0 -0.0617061)
(0.000257176 0 -0.0693316)
(0.000306697 0 -0.0665957)
(0.000284259 0 -0.0747841)
(0.000341189 0 -0.0720219)
(0.000312333 0 -0.0802864)
(0.000377004 0 -0.0774955)
(0.000341379 0 -0.0858424)
(0.000414013 0 -0.0830211)
(0.000371313 0 -0.0914544)
(0.000452173 0 -0.0886019)
(0.000401995 0 -0.0971222)
(0.000491339 0 -0.094239)
(0.000433239 0 -0.102844)
(0.000531295 0 -0.0999311)
(0.00046481 0 -0.108614)
(0.000571761 0 -0.105675)
(0.000496422 0 -0.114428)
(0.000612394 0 -0.111465)
(0.00052772 0 -0.120277)
(0.000652773 0 -0.117294)
(0.000558267 0 -0.12615)
(0.000692378 0 -0.123154)
(0.000587523 0 -0.132037)
(0.000730569 0 -0.129032)
(0.000614836 0 -0.137921)
(0.000766571 0 -0.134916)
(0.000639432 0 -0.143783)
(0.000799454 0 -0.140788)
(0.000660404 0 -0.149603)
(0.000828132 0 -0.146629)
(0.000676674 0 -0.155355)
(0.00085133 0 -0.152414)
(0.000686918 0 -0.161008)
(0.000867523 0 -0.158116)
(0.000689477 0 -0.166526)
(0.000874856 0 -0.163703)
(0.000682427 0 -0.171861)
(0.000871147 0 -0.169133)
(0.000853551 0 -0.174352)
(-4.83478e-05 0 -0.00130907)
(-6.89724e-05 0 -0.000951716)
(-4.27775e-05 0 -0.0020994)
(-6.07431e-05 0 -0.00170096)
(-3.84003e-05 0 -0.00296532)
(-5.65517e-05 0 -0.00253265)
(-3.47788e-05 0 -0.00389458)
(-5.27859e-05 0 -0.00343119)
(-3.11633e-05 0 -0.00488387)
(-4.90168e-05 0 -0.00439086)
(-2.71622e-05 0 -0.00593449)
(-4.48845e-05 0 -0.00541106)
(-2.26471e-05 0 -0.00704989)
(-4.01845e-05 0 -0.00649411)
(-1.75571e-05 0 -0.0082346)
(-3.48217e-05 0 -0.00764408)
(-1.18438e-05 0 -0.00949377)
(-2.87325e-05 0 -0.00886584)
(-5.47017e-06 0 -0.0108329)
(-2.18723e-05 0 -0.0101648)
(1.59354e-06 0 -0.0122575)
(-1.42055e-05 0 -0.0115464)
(9.37895e-06 0 -0.0137731)
(-5.69708e-06 0 -0.0130164)
(1.79242e-05 0 -0.0153852)
(3.69362e-06 0 -0.0145802)
(2.72744e-05 0 -0.0170991)
(1.40155e-05 0 -0.0162431)
(3.74806e-05 0 -0.0189203)
(2.53249e-05 0 -0.0180105)
(4.85995e-05 0 -0.0208543)
(3.76849e-05 0 -0.019888)
(6.0692e-05 0 -0.022907)
(5.11646e-05 0 -0.0218811)
(7.38246e-05 0 -0.0250843)
(6.58383e-05 0 -0.0239959)
(8.807e-05 0 -0.0273929)
(8.17877e-05 0 -0.0262385)
(0.000103508 0 -0.0298395)
(9.91014e-05 0 -0.0286157)
(0.000120226 0 -0.0324317)
(0.000117877 0 -0.0311346)
(0.000138322 0 -0.0351775)
(0.000138224 0 -0.0338029)
(0.000157908 0 -0.0380857)
(0.000160262 0 -0.0366291)
(0.000179107 0 -0.0411659)
(0.000184127 0 -0.0396223)
(0.000202059 0 -0.0444286)
(0.000209972 0 -0.0427926)
(0.000226921 0 -0.0478856)
(0.000237967 0 -0.0461511)
(0.000253856 0 -0.0515499)
(0.000268295 0 -0.0497101)
(0.000283029 0 -0.055436)
(0.000301142 0 -0.0534835)
(0.000314559 0 -0.0595592)
(0.000336665 0 -0.057486)
(0.000348431 0 -0.0639341)
(0.000375095 0 -0.0617337)
(0.000390506 0 -0.0693405)
(0.000419505 0 -0.0666238)
(0.000433795 0 -0.0747926)
(0.000469417 0 -0.0720508)
(0.000478523 0 -0.0802945)
(0.000521055 0 -0.0775253)
(0.000524671 0 -0.0858501)
(0.000574288 0 -0.0830519)
(0.000572103 0 -0.0914615)
(0.000629061 0 -0.0886336)
(0.000620594 0 -0.0971285)
(0.000685156 0 -0.0942713)
(0.000669837 0 -0.102849)
(0.000742249 0 -0.0999639)
(0.000719443 0 -0.108618)
(0.000799929 0 -0.105708)
(0.000768938 0 -0.11443)
(0.000857685 0 -0.111498)
(0.000817738 0 -0.120277)
(0.000914889 0 -0.117327)
(0.000865125 0 -0.126148)
(0.000970774 0 -0.123185)
(0.000910223 0 -0.132032)
(0.0010244 0 -0.129062)
(0.000951985 0 -0.137912)
(0.00107465 0 -0.134944)
(0.000989169 0 -0.14377)
(0.00112017 0 -0.140813)
(0.00102033 0 -0.149584)
(0.00115939 0 -0.146649)
(0.00104375 0 -0.155329)
(0.0011905 0 -0.152429)
(0.00105737 0 -0.160974)
(0.00121132 0 -0.158125)
(0.00105868 0 -0.166483)
(0.00121928 0 -0.163704)
(0.00104479 0 -0.171806)
(0.00121147 0 -0.169124)
(0.00118395 0 -0.17433)
(-8.04818e-05 0 -0.00132543)
(-0.00010718 0 -0.000965382)
(-7.55733e-05 0 -0.00211408)
(-0.000100645 0 -0.00171623)
(-7.11294e-05 0 -0.00297687)
(-9.66953e-05 0 -0.00254582)
(-6.7089e-05 0 -0.00390448)
(-9.25379e-05 0 -0.00344259)
(-6.2857e-05 0 -0.00489376)
(-8.81467e-05 0 -0.00440224)
(-5.80545e-05 0 -0.00594504)
(-8.32661e-05 0 -0.00542336)
(-5.25219e-05 0 -0.00706123)
(-7.766e-05 0 -0.00650762)
(-4.6178e-05 0 -0.00824673)
(-7.11974e-05 0 -0.00765885)
(-3.89637e-05 0 -0.00950663)
(-6.37955e-05 0 -0.00888186)
(-3.08325e-05 0 -0.0108464)
(-5.53936e-05 0 -0.010182)
(-2.17436e-05 0 -0.0122716)
(-4.59412e-05 0 -0.0115648)
(-1.1654e-05 0 -0.0137877)
(-3.53886e-05 0 -0.0130359)
(-5.12315e-07 0 -0.0154002)
(-2.3681e-05 0 -0.0146006)
(1.17412e-05 0 -0.0171145)
(-1.07539e-05 0 -0.0162645)
(2.51746e-05 0 -0.018936)
(3.46399e-06 0 -0.018033)
(3.98652e-05 0 -0.0208703)
(1.90569e-05 0 -0.0199114)
(5.58932e-05 0 -0.0229231)
(3.61139e-05 0 -0.0219055)
(7.33482e-05 0 -0.0251007)
(5.47282e-05 0 -0.0240211)
(9.23279e-05 0 -0.0274093)
(7.50061e-05 0 -0.0262647)
(0.000112939 0 -0.029856)
(9.70617e-05 0 -0.0286428)
(0.000135299 0 -0.0324482)
(0.00012102 0 -0.0311627)
(0.00015954 0 -0.035194)
(0.00014702 0 -0.0338319)
(0.000185807 0 -0.0381021)
(0.000175214 0 -0.0366591)
(0.000214264 0 -0.0411821)
(0.000205775 0 -0.0396533)
(0.000245091 0 -0.0444446)
(0.000238892 0 -0.0428246)
(0.000278489 0 -0.0479014)
(0.000274775 0 -0.0461841)
(0.000314663 0 -0.0515655)
(0.000313651 0 -0.0497442)
(0.000353817 0 -0.0554511)
(0.00035575 0 -0.0535186)
(0.000396113 0 -0.0595737)
(0.000401262 0 -0.0575222)
(0.000441578 0 -0.0639476)
(0.000450437 0 -0.0617707)
(0.000498258 0 -0.0693526)
(0.000507416 0 -0.0666615)
(0.00055656 0 -0.0748037)
(0.000571567 0 -0.0720896)
(0.000616677 0 -0.0803047)
(0.000637802 0 -0.0775653)
(0.000678566 0 -0.0858592)
(0.000705979 0 -0.0830931)
(0.00074204 0 -0.0914693)
(0.000776004 0 -0.0886759)
(0.000806789 0 -0.0971347)
(0.000847576 0 -0.0943145)
(0.000872384 0 -0.102853)
(0.000920272 0 -0.100008)
(0.000938291 0 -0.10862)
(0.000993545 0 -0.105752)
(0.00100385 0 -0.114429)
(0.00106672 0 -0.111542)
(0.00106825 0 -0.120272)
(0.00113898 0 -0.11737)
(0.00113051 0 -0.126139)
(0.00120931 0 -0.123227)
(0.00118944 0 -0.132017)
(0.0012765 0 -0.129102)
(0.00124362 0 -0.13789)
(0.00133908 0 -0.13498)
(0.00129139 0 -0.143741)
(0.00139535 0 -0.140845)
(0.00133079 0 -0.149546)
(0.0014433 0 -0.146676)
(0.00135957 0 -0.15528)
(0.0014806 0 -0.152449)
(0.00137503 0 -0.160913)
(0.00150455 0 -0.158136)
(0.00137396 0 -0.166407)
(0.00151196 0 -0.163703)
(0.00135275 0 -0.171713)
(0.00149935 0 -0.16911)
(0.00146197 0 -0.174301)
(-0.000127015 0 -0.0013381)
(-0.000160645 0 -0.000975242)
(-0.000122772 0 -0.0021279)
(-0.000155193 0 -0.00172942)
(-0.000118267 0 -0.00298974)
(-0.00015152 0 -0.00255916)
(-0.000113674 0 -0.00391693)
(-0.00014694 0 -0.00345555)
(-0.000108697 0 -0.00490683)
(-0.000141865 0 -0.00441561)
(-0.000103042 0 -0.00595932)
(-0.000136199 0 -0.00543785)
(-9.65245e-05 0 -0.0070769)
(-0.000129709 0 -0.00652354)
(-8.9028e-05 0 -0.00826381)
(-0.000122229 0 -0.00767631)
(-8.04659e-05 0 -0.00952509)
(-0.000113647 0 -0.00890087)
(-7.07705e-05 0 -0.0108662)
(-0.000103873 0 -0.0102025)
(-5.98827e-05 0 -0.0122926)
(-9.28368e-05 0 -0.0115868)
(-4.77422e-05 0 -0.0138099)
(-8.04695e-05 0 -0.0130592)
(-3.42815e-05 0 -0.0154235)
(-6.6699e-05 0 -0.0146254)
(-1.9423e-05 0 -0.0171389)
(-5.1444e-05 0 -0.0162906)
(-3.07994e-06 0 -0.0189614)
(-3.46157e-05 0 -0.0180603)
(1.48378e-05 0 -0.0208967)
(-1.61105e-05 0 -0.0199399)
(3.44372e-05 0 -0.0229505)
(4.17997e-06 0 -0.0219352)
(5.58294e-05 0 -0.025129)
(2.63696e-05 0 -0.0240521)
(7.91349e-05 0 -0.0274386)
(5.05877e-05 0 -0.0262969)
(0.000104486 0 -0.0298862)
(7.69716e-05 0 -0.0286762)
(0.000132028 0 -0.0324793)
(0.000105672 0 -0.0311972)
(0.000161922 0 -0.0352259)
(0.000136856 0 -0.0338677)
(0.000194346 0 -0.0381349)
(0.000170706 0 -0.0366961)
(0.000229499 0 -0.0412158)
(0.000207425 0 -0.0396915)
(0.000267598 0 -0.0444792)
(0.000247238 0 -0.042864)
(0.000308881 0 -0.0479369)
(0.000290389 0 -0.0462248)
(0.000353595 0 -0.0516019)
(0.000337143 0 -0.0497863)
(0.000401982 0 -0.0554884)
(0.000387768 0 -0.053562)
(0.000454248 0 -0.0596117)
(0.000442496 0 -0.0575669)
(0.000510463 0 -0.0639859)
(0.000501596 0 -0.0618166)
(0.000580562 0 -0.0693914)
(0.000570144 0 -0.0667082)
(0.000652685 0 -0.0748434)
(0.000647383 0 -0.0721377)
(0.000726973 0 -0.0803453)
(0.000727036 0 -0.0776149)
(0.000803322 0 -0.0859006)
(0.000808927 0 -0.083144)
(0.000881484 0 -0.0915112)
(0.000892902 0 -0.088728)
(0.000961054 0 -0.0971768)
(0.000978578 0 -0.0943676)
(0.00104149 0 -0.102895)
(0.00106543 0 -0.100061)
(0.00112211 0 -0.108661)
(0.00115278 0 -0.105806)
(0.00120208 0 -0.114469)
(0.0012398 0 -0.111595)
(0.00128037 0 -0.12031)
(0.00132547 0 -0.117422)
(0.00135575 0 -0.126174)
(0.00140857 0 -0.123277)
(0.00142674 0 -0.132049)
(0.00148762 0 -0.129149)
(0.00149159 0 -0.137917)
(0.00156086 0 -0.135023)
(0.00154822 0 -0.143762)
(0.00162624 0 -0.140883)
(0.00159428 0 -0.149559)
(0.00168135 0 -0.146706)
(0.001627 0 -0.155283)
(0.00172345 0 -0.15247)
(0.00164316 0 -0.160904)
(0.00174937 0 -0.158146)
(0.00163898 0 -0.166383)
(0.0017554 0 -0.1637)
(0.00161031 0 -0.171673)
(0.00173767 0 -0.16909)
(0.00169077 0 -0.174262)
(-0.000188756 0 -0.00134852)
(-0.000229557 0 -0.000983219)
(-0.000184953 0 -0.00214081)
(-0.000224614 0 -0.00174124)
(-0.000180347 0 -0.00300347)
(-0.000221135 0 -0.0025728)
(-0.000175224 0 -0.00393117)
(-0.000216202 0 -0.00347)
(-0.000169523 0 -0.00492204)
(-0.000210527 0 -0.00443094)
(-0.000163051 0 -0.00597591)
(-0.000204153 0 -0.00545444)
(-0.000155622 0 -0.00709512)
(-0.000196873 0 -0.00654169)
(-0.000147086 0 -0.00828376)
(-0.000188501 0 -0.00769619)
(-0.000137324 0 -0.00954677)
(-0.000178887 0 -0.00892256)
(-0.000126243 0 -0.0108895)
(-0.000167915 0 -0.010226)
(-0.000113761 0 -0.0123176)
(-0.000155491 0 -0.011612)
(-9.98004e-05 0 -0.0138366)
(-0.000141528 0 -0.0130861)
(-8.42748e-05 0 -0.0154517)
(-0.000125936 0 -0.0146539)
(-6.70897e-05 0 -0.0171686)
(-0.000108616 0 -0.0163207)
(-4.81406e-05 0 -0.0189927)
(-8.94602e-05 0 -0.0180919)
(-2.73121e-05 0 -0.0209294)
(-6.83497e-05 0 -0.0199731)
(-4.48319e-06 0 -0.0229847)
(-4.51569e-05 0 -0.0219699)
(2.04779e-05 0 -0.0251646)
(-1.97448e-05 0 -0.0240883)
(4.77159e-05 0 -0.0274757)
(8.03522e-06 0 -0.0263345)
(7.73875e-05 0 -0.0299248)
(3.83432e-05 0 -0.0287153)
(0.000109663 0 -0.0325193)
(7.13543e-05 0 -0.0312377)
(0.000144732 0 -0.0352675)
(0.00010726 0 -0.0339097)
(0.0001828 0 -0.0381779)
(0.00014627 0 -0.0367395)
(0.000224097 0 -0.0412604)
(0.000188617 0 -0.0397364)
(0.000268875 0 -0.0445254)
(0.000234555 0 -0.0429104)
(0.000317405 0 -0.0479848)
(0.00028436 0 -0.0462728)
(0.000369969 0 -0.0516514)
(0.000338328 0 -0.0498357)
(0.000426844 0 -0.0555395)
(0.000396762 0 -0.053613)
(0.000488268 0 -0.0596644)
(0.000459925 0 -0.0576194)
(0.000554332 0 -0.0640401)
(0.000528106 0 -0.0618704)
(0.000636803 0 -0.0694472)
(0.000607259 0 -0.0667632)
(0.000721611 0 -0.0749011)
(0.000696501 0 -0.0721942)
(0.00080887 0 -0.0804048)
(0.000788428 0 -0.077673)
(0.000898425 0 -0.0859619)
(0.000882828 0 -0.0832037)
(0.000989953 0 -0.0915741)
(0.000979486 0 -0.088789)
(0.00108296 0 -0.097241)
(0.00107794 0 -0.0944296)
(0.00117679 0 -0.10296)
(0.00117755 0 -0.100124)
(0.00127061 0 -0.108726)
(0.00127754 0 -0.105868)
(0.00136342 0 -0.114534)
(0.00137691 0 -0.111657)
(0.001454 0 -0.120374)
(0.00147447 0 -0.117482)
(0.00154089 0 -0.126236)
(0.0015688 0 -0.123335)
(0.00162233 0 -0.132107)
(0.00165817 0 -0.129203)
(0.00169626 0 -0.137971)
(0.00174056 0 -0.135072)
(0.00176028 0 -0.143809)
(0.0018136 0 -0.140925)
(0.00181163 0 -0.149598)
(0.00187457 0 -0.146741)
(0.00184715 0 -0.155312)
(0.00192035 0 -0.152494)
(0.00186316 0 -0.16092)
(0.00194736 0 -0.158157)
(0.00185547 0 -0.166384)
(0.00195152 0 -0.163695)
(0.00181949 0 -0.171655)
(0.00192864 0 -0.169066)
(0.00187285 0 -0.174217)
(-0.00026546 0 -0.00135782)
(-0.000313691 0 -0.000990342)
(-0.000261851 0 -0.00215335)
(-0.00030891 0 -0.00175246)
(-0.00025714 0 -0.00301789)
(-0.000305531 0 -0.00258675)
(-0.00025161 0 -0.00394681)
(-0.000300345 0 -0.0034856)
(-0.000245325 0 -0.00493889)
(-0.000294214 0 -0.00444784)
(-0.000238173 0 -0.00599425)
(-0.000287272 0 -0.00547276)
(-0.000229977 0 -0.00711519)
(-0.000279346 0 -0.00656171)
(-0.00022056 0 -0.00830571)
(-0.000270233 0 -0.00771813)
(-0.000209773 0 -0.00957066)
(-0.000259752 0 -0.00894652)
(-0.000197496 0 -0.0109154)
(-0.00024776 0 -0.010252)
(-0.00018363 0 -0.0123453)
(-0.000234142 0 -0.01164)
(-0.000168078 0 -0.0138661)
(-0.000218793 0 -0.0131161)
(-0.000150737 0 -0.015483)
(-0.000201607 0 -0.0146858)
(-0.000131494 0 -0.0172017)
(-0.00018247 0 -0.0163544)
(-0.000110229 0 -0.0190274)
(-0.000161258 0 -0.0181274)
(-8.68078e-05 0 -0.0209659)
(-0.000137834 0 -0.0200104)
(-6.10898e-05 0 -0.0230229)
(-0.000112053 0 -0.022009)
(-3.29216e-05 0 -0.0252045)
(-8.37581e-05 0 -0.0241291)
(-2.13878e-06 0 -0.0275172)
(-5.27817e-05 0 -0.026377)
(3.14366e-05 0 -0.0299679)
(-1.89418e-05 0 -0.0287595)
(6.80002e-05 0 -0.0325641)
(1.79585e-05 0 -0.0312836)
(0.000107766 0 -0.035314)
(5.81337e-05 0 -0.0339572)
(0.000150966 0 -0.0382261)
(0.000101819 0 -0.0367887)
(0.00019786 0 -0.0413103)
(0.000149273 0 -0.0397873)
(0.000248725 0 -0.0445772)
(0.000200775 0 -0.0429631)
(0.000303864 0 -0.0480383)
(0.000256629 0 -0.0463272)
(0.000363589 0 -0.0517067)
(0.000317158 0 -0.049892)
(0.000428205 0 -0.0555967)
(0.000382691 0 -0.053671)
(0.000497971 0 -0.0597233)
(0.00045352 0 -0.0576791)
(0.000573003 0 -0.0641005)
(0.000529946 0 -0.0619316)
(0.000666815 0 -0.0695094)
(0.000618759 0 -0.0668257)
(0.00076321 0 -0.0749652)
(0.000718952 0 -0.0722584)
(0.000862278 0 -0.0804709)
(0.000822039 0 -0.077739)
(0.000963819 0 -0.0860298)
(0.000927779 0 -0.0832714)
(0.00106744 0 -0.0916434)
(0.0010359 0 -0.0888581)
(0.00117255 0 -0.0973113)
(0.00114585 0 -0.0944997)
(0.00127838 0 -0.103031)
(0.00125691 0 -0.100194)
(0.00138398 0 -0.108797)
(0.00136817 0 -0.105939)
(0.00148819 0 -0.114604)
(0.00147851 0 -0.111726)
(0.00158959 0 -0.120442)
(0.00158657 0 -0.11755)
(0.00168652 0 -0.126301)
(0.00169073 0 -0.1234)
(0.00177697 0 -0.132167)
(0.00178906 0 -0.129264)
(0.00185862 0 -0.138025)
(0.0018793 0 -0.135127)
(0.00192876 0 -0.143856)
(0.0019588 0 -0.140972)
(0.00198432 0 -0.149635)
(0.00202456 0 -0.146778)
(0.00202178 0 -0.155337)
(0.00207315 0 -0.152519)
(0.00203713 0 -0.16093)
(0.00210069 0 -0.158167)
(0.00202583 0 -0.166376)
(0.00210278 0 -0.163688)
(0.001983 0 -0.171626)
(0.00207503 0 -0.169038)
(0.00201127 0 -0.174164)
(-0.000357242 0 -0.00136675)
(-0.000413266 0 -0.00099716)
(-0.000353693 0 -0.0021659)
(-0.00040848 0 -0.00176349)
(-0.000348884 0 -0.00303296)
(-0.000405158 0 -0.00260099)
(-0.000343061 0 -0.00396362)
(-0.000399799 0 -0.00350204)
(-0.000336337 0 -0.0049572)
(-0.000393338 0 -0.00446592)
(-0.000328653 0 -0.00601418)
(-0.00038596 0 -0.00549246)
(-0.00031984 0 -0.00713699)
(-0.000377517 0 -0.00658325)
(-0.000309699 0 -0.00832957)
(-0.000367797 0 -0.00774175)
(-0.000298054 0 -0.00959666)
(-0.000356593 0 -0.00897239)
(-0.000284762 0 -0.0109435)
(-0.000343738 0 -0.0102802)
(-0.000269705 0 -0.0123756)
(-0.000329096 0 -0.0116704)
(-0.000252771 0 -0.0138983)
(-0.000312548 0 -0.0131487)
(-0.00023384 0 -0.0155173)
(-0.000293972 0 -0.0147205)
(-0.000212788 0 -0.0172379)
(-0.000273241 0 -0.0163913)
(-0.000189475 0 -0.0190656)
(-0.000250216 0 -0.0181664)
(-0.000163752 0 -0.0210059)
(-0.000224744 0 -0.0200514)
(-0.00013546 0 -0.0230648)
(-0.000196664 0 -0.0220519)
(-0.000104428 0 -0.0252482)
(-0.000165801 0 -0.024174)
(-7.04694e-05 0 -0.0275627)
(-0.000131969 0 -0.0264239)
(-3.33858e-05 0 -0.0300152)
(-9.49662e-05 0 -0.0288083)
(7.03968e-06 0 -0.0326133)
(-5.45754e-05 0 -0.0313343)
(5.10427e-05 0 -0.0353649)
(-1.05604e-05 0 -0.0340099)
(9.88818e-05 0 -0.0382789)
(3.73366e-05 0 -0.0368433)
(0.000150838 0 -0.0413649)
(8.93948e-05 0 -0.0398438)
(0.000207218 0 -0.0446335)
(0.00014592 0 -0.0430215)
(0.000268346 0 -0.0480965)
(0.000207239 0 -0.0463876)
(0.00033456 0 -0.0517668)
(0.000273697 0 -0.0499543)
(0.000406189 0 -0.0556586)
(0.000345648 0 -0.0537353)
(0.000483513 0 -0.0597869)
(0.000423403 0 -0.0577453)
(0.000566679 0 -0.0641656)
(0.000507274 0 -0.0619995)
(0.000670779 0 -0.0695762)
(0.000604824 0 -0.0668951)
(0.000777683 0 -0.0750338)
(0.000714924 0 -0.0723297)
(0.000887438 0 -0.0805413)
(0.000828086 0 -0.0778122)
(0.000999793 0 -0.0861016)
(0.000944039 0 -0.0833463)
(0.00111428 0 -0.0917164)
(0.00106245 0 -0.0889344)
(0.00123024 0 -0.0973851)
(0.0011827 0 -0.094577)
(0.00134679 0 -0.103105)
(0.00130398 0 -0.100272)
(0.00146285 0 -0.10887)
(0.00142527 0 -0.106016)
(0.00157712 0 -0.114675)
(0.0015453 0 -0.111802)
(0.00168803 0 -0.120511)
(0.0016626 0 -0.117624)
(0.0017937 0 -0.126366)
(0.00177535 0 -0.12347)
(0.00189192 0 -0.132227)
(0.00188145 0 -0.129329)
(0.00198014 0 -0.138077)
(0.00197842 0 -0.135186)
(0.0020554 0 -0.143898)
(0.0020634 0 -0.141022)
(0.00211434 0 -0.149666)
(0.00213314 0 -0.146817)
(0.00215318 0 -0.155354)
(0.00218397 0 -0.152545)
(0.00216764 0 -0.16093)
(0.00221175 0 -0.158177)
(0.00215293 0 -0.166355)
(0.00221185 0 -0.163678)
(0.00210399 0 -0.171582)
(0.00217977 0 -0.169005)
(0.00210917 0 -0.174105)
(-0.000464641 0 -0.00137557)
(-0.000528893 0 -0.00100386)
(-0.000461105 0 -0.00217855)
(-0.000524032 0 -0.00177448)
(-0.00045622 0 -0.00304851)
(-0.000520767 0 -0.00261546)
(-0.000450191 0 -0.00398128)
(-0.000515293 0 -0.00351905)
(-0.000443142 0 -0.00497662)
(-0.000508591 0 -0.00448489)
(-0.000435038 0 -0.00603541)
(-0.000500866 0 -0.00551323)
(-0.000425721 0 -0.00716026)
(-0.000491991 0 -0.00660602)
(-0.000414977 0 -0.00835509)
(-0.000481752 0 -0.00776679)
(-0.000402607 0 -0.00962455)
(-0.000469926 0 -0.00899987)
(-0.000388449 0 -0.0109738)
(-0.000456325 0 -0.0103101)
(-0.000372364 0 -0.0124082)
(-0.000440794 0 -0.0117029)
(-0.000354227 0 -0.0139333)
(-0.000423199 0 -0.0131837)
(-0.000333907 0 -0.0155545)
(-0.000403406 0 -0.0147579)
(-0.000311263 0 -0.0172773)
(-0.000381274 0 -0.0164309)
(-0.000286143 0 -0.0191071)
(-0.00035665 0 -0.0182083)
(-0.000258382 0 -0.0210495)
(-0.000329368 0 -0.0200956)
(-0.000227803 0 -0.0231104)
(-0.00029925 0 -0.0220984)
(-0.000194219 0 -0.0252959)
(-0.000266106 0 -0.0242227)
(-0.000157426 0 -0.0276124)
(-0.000229731 0 -0.0264747)
(-0.000117205 0 -0.030067)
(-0.000189906 0 -0.0288612)
(-7.33193e-05 0 -0.032667)
(-0.000146397 0 -0.0313894)
(-2.55123e-05 0 -0.0354206)
(-9.89458e-05 0 -0.034067)
(2.64953e-05 0 -0.0383366)
(-4.7276e-05 0 -0.0369026)
(8.30061e-05 0 -0.0414246)
(8.9112e-06 0 -0.0399052)
(0.00014435 0 -0.0446952)
(6.99435e-05 0 -0.0430851)
(0.000210871 0 -0.0481602)
(0.000136169 0 -0.0464533)
(0.000282931 0 -0.0518325)
(0.000207952 0 -0.0500221)
(0.000360879 0 -0.0557263)
(0.000285666 0 -0.0538052)
(0.000445017 0 -0.0598564)
(0.000369645 0 -0.0578172)
(0.000535518 0 -0.0642366)
(0.000460201 0 -0.0620733)
(0.000648871 0 -0.069649)
(0.000565593 0 -0.0669706)
(0.00076523 0 -0.0751085)
(0.000684582 0 -0.0724073)
(0.000884589 0 -0.0806178)
(0.000806769 0 -0.0778918)
(0.00100664 0 -0.0861797)
(0.000931859 0 -0.0834277)
(0.00113085 0 -0.0917956)
(0.00105946 0 -0.0890172)
(0.00125647 0 -0.0974648)
(0.00118888 0 -0.0946607)
(0.00138254 0 -0.103184)
(0.00131923 0 -0.100356)
(0.00150786 0 -0.108949)
(0.00144937 0 -0.1061)
(0.00163099 0 -0.114752)
(0.00157796 0 -0.111885)
(0.00175022 0 -0.120584)
(0.00170335 0 -0.117703)
(0.0018635 0 -0.126435)
(0.00182361 0 -0.123546)
(0.00196845 0 -0.132289)
(0.00193646 0 -0.129399)
(0.0020623 0 -0.138132)
(0.00203924 0 -0.135248)
(0.00214188 0 -0.143942)
(0.00212891 0 -0.141075)
(0.00220363 0 -0.149697)
(0.00220202 0 -0.146858)
(0.00224354 0 -0.15537)
(0.00225472 0 -0.152572)
(0.00225712 0 -0.160927)
(0.00228267 0 -0.158186)
(0.00223945 0 -0.16633)
(0.0022811 0 -0.163666)
(0.00218534 0 -0.171531)
(0.00224542 0 -0.168969)
(0.00216925 0 -0.174042)
(-0.000588455 0 -0.00138435)
(-0.000661362 0 -0.0010105)
(-0.000584925 0 -0.00219128)
(-0.000656401 0 -0.00178545)
(-0.000579987 0 -0.00306439)
(-0.000653203 0 -0.00263008)
(-0.000573807 0 -0.00399955)
(-0.000647646 0 -0.00353649)
(-0.000566498 0 -0.00499689)
(-0.000640743 0 -0.00450455)
(-0.000558038 0 -0.00605769)
(-0.00063271 0 -0.00553492)
(-0.000548276 0 -0.00718475)
(-0.000623435 0 -0.00662988)
(-0.000536997 0 -0.00838203)
(-0.000612712 0 -0.00779307)
(-0.000523987 0 -0.00965407)
(-0.000600313 0 -0.00902877)
(-0.000509064 0 -0.0110059)
(-0.000586036 0 -0.0103418)
(-0.000492076 0 -0.0124429)
(-0.00056971 0 -0.0117372)
(-0.000472881 0 -0.0139705)
(-0.000551184 0 -0.0132206)
(-0.000451337 0 -0.0155942)
(-0.000530313 0 -0.0147974)
(-0.00042729 0 -0.0173194)
(-0.000506941 0 -0.0164731)
(-0.000400573 0 -0.0191516)
(-0.000480903 0 -0.018253)
(-0.000371008 0 -0.0210964)
(-0.000452019 0 -0.0201427)
(-0.000338402 0 -0.0231596)
(-0.000420096 0 -0.0221479)
(-0.000302552 0 -0.0253474)
(-0.000384928 0 -0.0242746)
(-0.000263237 0 -0.0276662)
(-0.000346297 0 -0.026529)
(-0.000220221 0 -0.0301229)
(-0.000303965 0 -0.0289178)
(-0.000173249 0 -0.0327252)
(-0.000257682 0 -0.0314483)
(-0.000122046 0 -0.035481)
(-0.000207173 0 -0.0341283)
(-6.63121e-05 0 -0.0383991)
(-0.000152143 0 -0.0369661)
(-5.72498e-06 0 -0.0414894)
(-9.22763e-05 0 -0.0399711)
(6.00565e-05 0 -0.0447622)
(-2.72267e-05 0 -0.0431532)
(0.000131405 0 -0.0482294)
(4.3372e-05 0 -0.0465237)
(0.000208696 0 -0.0519039)
(0.0001199 0 -0.0500949)
(0.0002923 0 -0.0557998)
(0.000202752 0 -0.0538802)
(0.000382535 0 -0.0599319)
(0.000292277 0 -0.0578945)
(0.000479601 0 -0.0643139)
(0.000388789 0 -0.0621525)
(0.000601218 0 -0.0697283)
(0.000501164 0 -0.0670517)
(0.000726021 0 -0.0751899)
(0.000628063 0 -0.0724905)
(0.000853944 0 -0.080701)
(0.00075827 0 -0.0779771)
(0.000984626 0 -0.0862646)
(0.00089147 0 -0.0835148)
(0.00111747 0 -0.0918816)
(0.00102721 0 -0.0891058)
(0.00125166 0 -0.0975514)
(0.00116474 0 -0.0947502)
(0.00138613 0 -0.103271)
(0.00130307 0 -0.100446)
(0.0015196 0 -0.109034)
(0.00144101 0 -0.106189)
(0.00165052 0 -0.114835)
(0.00157708 0 -0.111972)
(0.00177702 0 -0.120664)
(0.00170955 0 -0.117788)
(0.00189693 0 -0.126509)
(0.00183635 0 -0.123626)
(0.00200771 0 -0.132357)
(0.00195506 0 -0.129473)
(0.00210641 0 -0.138191)
(0.00206288 0 -0.135314)
(0.00218972 0 -0.14399)
(0.00215662 0 -0.141131)
(0.00225389 0 -0.149731)
(0.00223267 0 -0.146901)
(0.00229475 0 -0.155387)
(0.00228705 0 -0.152599)
(0.00230768 0 -0.160924)
(0.00231529 0 -0.158195)
(0.00228766 0 -0.166304)
(0.00231251 0 -0.163653)
(0.00222947 0 -0.171479)
(0.00227411 0 -0.16893)
(0.00219375 0 -0.173974)
(-0.000729516 0 -0.00139308)
(-0.000811364 0 -0.0010171)
(-0.00072599 0 -0.00220406)
(-0.000806295 0 -0.00179641)
(-0.000721006 0 -0.00308052)
(-0.000803168 0 -0.00264484)
(-0.000714692 0 -0.00401834)
(-0.000797532 0 -0.00355431)
(-0.00070714 0 -0.00501793)
(-0.000790435 0 -0.00452487)
(-0.000698332 0 -0.00608092)
(-0.000782096 0 -0.00555751)
(-0.000688132 0 -0.00721037)
(-0.000772416 0 -0.00665481)
(-0.000676333 0 -0.00841024)
(-0.000761206 0 -0.00782057)
(-0.000662717 0 -0.00968503)
(-0.000748245 0 -0.00905903)
(-0.00064709 0 -0.0110397)
(-0.000733323 0 -0.0103749)
(-0.000629282 0 -0.0124794)
(-0.000716259 0 -0.0117732)
(-0.00060914 0 -0.0140098)
(-0.000696887 0 -0.0132594)
(-0.000586506 0 -0.0156361)
(-0.000675045 0 -0.014839)
(-0.000561212 0 -0.017364)
(-0.000650566 0 -0.0165174)
(-0.00053308 0 -0.0191988)
(-0.000623271 0 -0.0183)
(-0.000501917 0 -0.0211461)
(-0.000592966 0 -0.0201923)
(-0.000467517 0 -0.0232118)
(-0.000559445 0 -0.0222001)
(-0.000429659 0 -0.0254021)
(-0.000522489 0 -0.0243294)
(-0.000388109 0 -0.0277233)
(-0.000481862 0 -0.0265863)
(-0.000342614 0 -0.0301825)
(-0.000437315 0 -0.0289777)
(-0.000292904 0 -0.0327872)
(-0.00038858 0 -0.0315107)
(-0.000238687 0 -0.0355453)
(-0.000335368 0 -0.0341931)
(-0.000179647 0 -0.0384659)
(-0.000277369 0 -0.0370334)
(-0.000115447 0 -0.0415585)
(-0.000214251 0 -0.0400408)
(-4.57212e-05 0 -0.0448338)
(-0.000145653 0 -0.0432254)
(2.99113e-05 0 -0.0483034)
(-7.11948e-05 0 -0.0465984)
(0.000111845 0 -0.0519803)
(9.52171e-06 0 -0.050172)
(0.000200466 0 -0.0558785)
(9.69044e-05 0 -0.0539598)
(0.000296107 0 -0.0600127)
(0.00019132 0 -0.0579763)
(0.000398992 0 -0.0643967)
(0.00029308 0 -0.0622364)
(0.000527933 0 -0.0698132)
(0.000411613 0 -0.0671377)
(0.000660209 0 -0.075277)
(0.000545481 0 -0.0725787)
(0.000795702 0 -0.0807901)
(0.000682742 0 -0.0780674)
(0.000934 0 -0.0863553)
(0.000823063 0 -0.083607)
(0.00107445 0 -0.0919736)
(0.000965939 0 -0.0891994)
(0.00121616 0 -0.0976438)
(0.00111055 0 -0.0948447)
(0.00135801 0 -0.103363)
(0.00125586 0 -0.10054)
(0.00149861 0 -0.109125)
(0.00140058 0 -0.106282)
(0.0016363 0 -0.114923)
(0.00154317 0 -0.112064)
(0.00176914 0 -0.120748)
(0.00168178 0 -0.117876)
(0.00189481 0 -0.126588)
(0.00181425 0 -0.123709)
(0.00201065 0 -0.132429)
(0.00193804 0 -0.12955)
(0.00211359 0 -0.138253)
(0.00205025 0 -0.135383)
(0.00220017 0 -0.144041)
(0.00214757 0 -0.141189)
(0.00226653 0 -0.149767)
(0.00222628 0 -0.146945)
(0.00230838 0 -0.155406)
(0.00228229 0 -0.152627)
(0.00232103 0 -0.160922)
(0.00231107 0 -0.158203)
(0.00229941 0 -0.166278)
(0.00230768 0 -0.163638)
(0.00223833 0 -0.171425)
(0.00226755 0 -0.16889)
(0.00218446 0 -0.173904)
(-0.00088839 0 -0.0014018)
(-0.000979256 0 -0.00102366)
(-0.000884863 0 -0.00221691)
(-0.000974083 0 -0.00180737)