/*--------------------------------*- C++ -*----------------------------------*\
  =========                 |
  \\      /  F ield         | OpenFOAM: The Open Source CFD Toolbox
   \\    /   O peration     | Website:  https://openfoam.org
    \\  /    A nd           | Version:  9
     \\/     M anipulation  |
\*---------------------------------------------------------------------------*/
FoamFile
{
    format      ascii;
    class       volScalarField;
    location    "0.15";
    object      alpha.water;
}
// * * * * * * * * * * * * * * * * * * * * * * * * * * * * * * * * * * * * * //

dimensions      [0 0 0 0 0 0 0];

internalField   nonuniform List<scalar> 
20000
(
4.15173e-319
3.9632e-319
3.78276e-319
3.61024e-319
3.44512e-319
3.28712e-319
3.13574e-319
2.99088e-319
2.85204e-319
2.71914e-319
2.59187e-319
2.47023e-319
2.35403e-319
2.24326e-319
2.13753e-319
2.03713e-319
1.94148e-319
1.85057e-319
1.76421e-319
1.682e-319
1.60393e-319
1.52982e-319
1.45967e-319
1.39307e-319
1.32983e-319
1.26965e-319
1.21155e-319
1.15503e-319
1.10038e-319
1.04841e-319
8.57303e-320
8.575e-320
8.58093e-320
8.59081e-320
8.60366e-320
8.6165e-320
8.62836e-320
8.63824e-320
8.64615e-320
8.65109e-320
8.65405e-320
8.65603e-320
8.65801e-320
8.65998e-320
8.66196e-320
8.66591e-320
8.66986e-320
8.67382e-320
8.67876e-320
8.6837e-320
8.68765e-320
8.6916e-320
8.69358e-320
8.69358e-320
8.6916e-320
8.68963e-320
8.68765e-320
8.68567e-320
8.6837e-320
8.6837e-320
8.68469e-320
8.68765e-320
8.69457e-320
8.70741e-320
8.72718e-320
8.74496e-320
8.74694e-320
8.72718e-320
8.69852e-320
8.67184e-320
1.05789e-319
1.10789e-319
1.16066e-319
1.21619e-319
1.27449e-319
1.33576e-319
1.39998e-319
1.46757e-319
1.53832e-319
1.61263e-319
1.6905e-319
1.77221e-319
1.85788e-319
1.9478e-319
2.04207e-319
2.14089e-319
2.24464e-319
2.35333e-319
2.46736e-319
2.58693e-319
2.71222e-319
2.84364e-319
2.98139e-319
3.12576e-319
3.27724e-319
3.43593e-319
3.60213e-319
3.77644e-319
3.95885e-319
4.14985e-319
4.15163e-319
3.9631e-319
3.78267e-319
3.61014e-319
3.44502e-319
3.28702e-319
3.13574e-319
2.99088e-319
2.85194e-319
2.71914e-319
2.59187e-319
2.47013e-319
2.35393e-319
2.24306e-319
2.13753e-319
2.03703e-319
1.94148e-319
1.85057e-319
1.76411e-319
1.682e-319
1.60393e-319
1.52982e-319
1.45967e-319
1.39307e-319
1.32993e-319
1.26965e-319
1.21155e-319
1.15513e-319
1.10048e-319
1.04841e-319
8.57303e-320
8.575e-320
8.58093e-320
8.59081e-320
8.60366e-320
8.6165e-320
8.62836e-320
8.63824e-320
8.64615e-320
8.65109e-320
8.65405e-320
8.65603e-320
8.65801e-320
8.65998e-320
8.66196e-320
8.66591e-320
8.66986e-320
8.67382e-320
8.67876e-320
8.6837e-320
8.68765e-320
8.6916e-320
8.69358e-320
8.69358e-320
8.6916e-320
8.68963e-320
8.68765e-320
8.68567e-320
8.6837e-320
8.6837e-320
8.68469e-320
8.68765e-320
8.69457e-320
8.70741e-320
8.72718e-320
8.74397e-320
8.74595e-320
8.72718e-320
8.69852e-320
8.67184e-320
1.05789e-319
1.10789e-319
1.16066e-319
1.21619e-319
1.27449e-319
1.33576e-319
1.39998e-319
1.46747e-319
1.53832e-319
1.61253e-319
1.6905e-319
1.77211e-319
1.85788e-319
1.9478e-319
2.04207e-319
2.14089e-319
2.24464e-319
2.35333e-319
2.46736e-319
2.58683e-319
2.71222e-319
2.84355e-319
2.98129e-319
3.12576e-319
3.27714e-319
3.43583e-319
3.60213e-319
3.77624e-319
3.95865e-319
4.14976e-319
4.15153e-319
3.963e-319
3.78267e-319
3.61004e-319
3.44502e-319
3.28692e-319
3.13574e-319
2.99078e-319
2.85194e-319
2.71904e-319
2.59187e-319
2.47013e-319
2.35393e-319
2.24306e-319
2.13753e-319
2.03693e-319
1.94138e-319
1.85057e-319
1.76411e-319
1.682e-319
1.60393e-319
1.52982e-319
1.45967e-319
1.39307e-319
1.32993e-319
1.26975e-319
1.21155e-319
1.15513e-319
1.10048e-319
1.04841e-319
8.57303e-320
8.575e-320
8.58093e-320
8.59081e-320
8.60366e-320
8.6165e-320
8.62836e-320
8.63824e-320
8.64615e-320
8.65208e-320
8.65405e-320
8.65603e-320
8.65801e-320
8.65998e-320
8.66196e-320
8.66591e-320
8.66986e-320
8.67382e-320
8.67876e-320
8.6837e-320
8.68765e-320
8.6916e-320
8.69358e-320
8.69358e-320
8.6916e-320
8.68963e-320
8.68765e-320
8.68567e-320
8.6837e-320
8.6837e-320
8.68469e-320
8.68765e-320
8.69457e-320
8.70741e-320
8.72718e-320
8.74397e-320
8.74595e-320
8.72718e-320
8.69852e-320
8.67283e-320
1.05789e-319
1.10789e-319
1.16066e-319
1.21619e-319
1.27449e-319
1.33576e-319
1.39998e-319
1.46747e-319
1.53822e-319
1.61243e-319
1.6904e-319
1.77211e-319
1.85788e-319
1.94771e-319
2.04197e-319
2.14089e-319
2.24454e-319
2.35323e-319
2.46717e-319
2.58673e-319
2.71203e-319
2.84345e-319
2.98119e-319
3.12566e-319
3.27704e-319
3.43573e-319
3.60194e-319
3.77614e-319
3.95855e-319
4.14946e-319
4.15153e-319
3.963e-319
3.78267e-319
3.61004e-319
3.44502e-319
3.28702e-319
3.13574e-319
2.99088e-319
2.85194e-319
2.71914e-319
2.59187e-319
2.47013e-319
2.35393e-319
2.24306e-319
2.13753e-319
2.03693e-319
1.94138e-319
1.85047e-319
1.76401e-319
1.682e-319
1.60393e-319
1.52982e-319
1.45967e-319
1.39307e-319
1.33002e-319
1.26975e-319
1.21165e-319
1.15513e-319
1.10048e-319
1.04841e-319
8.57303e-320
8.575e-320
8.58093e-320
8.5918e-320
8.60465e-320
8.6165e-320
8.62836e-320
8.63824e-320
8.64615e-320
8.65208e-320
8.65504e-320
8.65702e-320
8.65801e-320
8.65998e-320
8.66196e-320
8.66591e-320
8.66986e-320
8.67382e-320
8.67975e-320
8.6837e-320
8.68765e-320
8.6916e-320
8.69358e-320
8.69358e-320
8.6916e-320
8.68963e-320
8.68765e-320
8.68567e-320
8.6837e-320
8.6837e-320
8.68469e-320
8.68765e-320
8.69457e-320
8.70741e-320
8.72619e-320
8.74299e-320
8.74496e-320
8.72718e-320
8.69852e-320
8.67283e-320
1.05789e-319
1.10789e-319
1.16066e-319
1.21609e-319
1.27449e-319
1.33566e-319
1.39998e-319
1.46737e-319
1.53813e-319
1.61243e-319
1.6903e-319
1.77211e-319
1.85769e-319
1.94761e-319
2.04187e-319
2.14069e-319
2.24444e-319
2.35314e-319
2.46717e-319
2.58663e-319
2.71193e-319
2.84325e-319
2.98099e-319
3.12546e-319
3.27684e-319
3.43553e-319
3.60174e-319
3.77595e-319
3.95826e-319
4.14916e-319
4.15173e-319
3.9631e-319
3.78276e-319
3.61014e-319
3.44502e-319
3.28712e-319
3.13574e-319
2.99088e-319
2.85204e-319
2.71914e-319
2.59187e-319
2.47013e-319
2.35393e-319
2.24306e-319
2.13753e-319
2.03693e-319
1.94138e-319
1.85047e-319
1.76401e-319
1.6819e-319
1.60393e-319
1.52982e-319
1.45967e-319
1.39307e-319
1.33002e-319
1.26975e-319
1.21165e-319
1.15513e-319
1.10048e-319
1.04841e-319
8.57303e-320
8.575e-320
8.58093e-320
8.5918e-320
8.60465e-320
8.6165e-320
8.62836e-320
8.63824e-320
8.64615e-320
8.65208e-320
8.65504e-320
8.65702e-320
8.65801e-320
8.65998e-320
8.66196e-320
8.66591e-320
8.66986e-320
8.67382e-320
8.67975e-320
8.6837e-320
8.68765e-320
8.6916e-320
8.69358e-320
8.69358e-320
8.6916e-320
8.68963e-320
8.68765e-320
8.68567e-320
8.68469e-320
8.6837e-320
8.68469e-320
8.68765e-320
8.69457e-320
8.70741e-320
8.72619e-320
8.74299e-320
8.74496e-320
8.72718e-320
8.69852e-320
8.67283e-320
1.05789e-319
1.10789e-319
1.16066e-319
1.21609e-319
1.27439e-319
1.33556e-319
1.39989e-319
1.46737e-319
1.53813e-319
1.61243e-319
1.6903e-319
1.77192e-319
1.85769e-319
1.94751e-319
2.04178e-319
2.14069e-319
2.24424e-319
2.35294e-319
2.46697e-319
2.58643e-319
2.71173e-319
2.84305e-319
2.9808e-319
3.12526e-319
3.27664e-319
3.43524e-319
3.60154e-319
3.77565e-319
3.95796e-319
4.14877e-319
4.15173e-319
3.9632e-319
3.78276e-319
3.61024e-319
3.44522e-319
3.28712e-319
3.13583e-319
2.99088e-319
2.85214e-319
2.71914e-319
2.59197e-319
2.47033e-319
2.35403e-319
2.24316e-319
2.13753e-319
2.03693e-319
1.94138e-319
1.85037e-319
1.76401e-319
1.6819e-319
1.60393e-319
1.52982e-319
1.45967e-319
1.39307e-319
1.33002e-319
1.26975e-319
1.21165e-319
1.15513e-319
1.10058e-319
1.04841e-319
8.57303e-320
8.575e-320
8.58093e-320
8.5918e-320
8.60465e-320
8.6165e-320
8.62836e-320
8.63824e-320
8.64615e-320
8.65208e-320
8.65504e-320
8.65702e-320
8.65801e-320
8.65998e-320
8.66196e-320
8.66591e-320
8.66986e-320
8.67382e-320
8.67975e-320
8.6837e-320
8.68765e-320
8.6916e-320
8.69358e-320
8.69358e-320
8.6916e-320
8.69061e-320
8.68765e-320
8.68567e-320
8.68469e-320
8.6837e-320
8.68469e-320
8.68765e-320
8.69457e-320
8.70741e-320
8.72619e-320
8.74299e-320
8.74496e-320
8.72718e-320
8.69852e-320
8.67283e-320
1.05789e-319
1.10789e-319
1.16056e-319
1.21599e-319
1.27429e-319
1.33556e-319
1.39979e-319
1.46728e-319
1.53803e-319
1.61224e-319
1.6901e-319
1.77192e-319
1.85749e-319
1.94741e-319
2.04168e-319
2.14049e-319
2.24405e-319
2.35274e-319
2.46677e-319
2.58624e-319
2.71153e-319
2.84285e-319
2.9806e-319
3.12497e-319
3.27625e-319
3.43494e-319
3.60115e-319
3.77525e-319
3.95747e-319
4.14827e-319
4.15193e-319
3.96339e-319
3.78296e-319
3.61043e-319
3.44522e-319
3.28732e-319
3.13593e-319
2.99107e-319
2.85224e-319
2.71934e-319
2.59207e-319
2.47033e-319
2.35412e-319
2.24326e-319
2.13753e-319
2.03703e-319
1.94138e-319
1.85037e-319
1.76401e-319
1.6819e-319
1.60393e-319
1.52982e-319
1.45967e-319
1.39317e-319
1.33002e-319
1.26985e-319
1.21165e-319
1.15513e-319
1.10058e-319
1.04841e-319
8.57303e-320
8.575e-320
8.58093e-320
8.5918e-320
8.60465e-320
8.61749e-320
8.62935e-320
8.63923e-320
8.64615e-320
8.65208e-320
8.65603e-320
8.65702e-320
8.65801e-320
8.65998e-320
8.66196e-320
8.66591e-320
8.66986e-320
8.67382e-320
8.67975e-320
8.6837e-320
8.68765e-320
8.6916e-320
8.69358e-320
8.69358e-320
8.69259e-320
8.69061e-320
8.68765e-320
8.68567e-320
8.68469e-320
8.6837e-320
8.68469e-320
8.68765e-320
8.69457e-320
8.70741e-320
8.72619e-320
8.74299e-320
8.74496e-320
8.72718e-320
8.69852e-320
8.67283e-320
1.05789e-319
1.10789e-319
1.16056e-319
1.21599e-319
1.27429e-319
1.33556e-319
1.39979e-319
1.46718e-319
1.53793e-319
1.61224e-319
1.6901e-319
1.77172e-319
1.85739e-319
1.94721e-319
2.04148e-319
2.14029e-319
2.24385e-319
2.35254e-319
2.46657e-319
2.58594e-319
2.71123e-319
2.84256e-319
2.9802e-319
3.12457e-319
3.27585e-319
3.43455e-319
3.60065e-319
3.77466e-319
3.95697e-319
4.14768e-319
4.15213e-319
3.96359e-319
3.78316e-319
3.61063e-319
3.44542e-319
3.28741e-319
3.13613e-319
2.99117e-319
2.85234e-319
2.71944e-319
2.59216e-319
2.47053e-319
2.35422e-319
2.24326e-319
2.13762e-319
2.03703e-319
1.94138e-319
1.85037e-319
1.76401e-319
1.6818e-319
1.60393e-319
1.52982e-319
1.45967e-319
1.39317e-319
1.33012e-319
1.26995e-319
1.21175e-319
1.15522e-319
1.10058e-319
1.04841e-319
8.57303e-320
8.575e-320
8.58093e-320
8.59279e-320
8.60465e-320
8.61749e-320
8.62935e-320
8.63923e-320
8.64615e-320
8.65208e-320
8.65603e-320
8.65801e-320
8.65899e-320
8.65998e-320
8.66295e-320
8.66591e-320
8.66986e-320
8.6748e-320
8.67975e-320
8.6837e-320
8.68864e-320
8.6916e-320
8.69358e-320
8.69358e-320
8.69259e-320
8.69061e-320
8.68765e-320
8.68567e-320
8.68469e-320
8.6837e-320
8.68469e-320
8.68765e-320
8.69457e-320
8.70741e-320
8.72619e-320
8.74299e-320
8.74397e-320
8.72619e-320
8.69852e-320
8.67283e-320
1.05789e-319
1.10779e-319
1.16046e-319
1.21599e-319
1.27429e-319
1.33546e-319
1.39969e-319
1.46718e-319
1.53793e-319
1.61204e-319
1.6899e-319
1.77152e-319
1.85729e-319
1.94701e-319
2.04128e-319
2.14009e-319
2.24365e-319
2.35235e-319
2.46618e-319
2.58564e-319
2.71084e-319
2.84216e-319
2.97981e-319
3.12417e-319
3.27546e-319
3.43395e-319
3.60016e-319
3.77407e-319
3.95628e-319
4.14699e-319
4.15252e-319
3.96379e-319
3.78336e-319
3.61083e-319
3.44561e-319
3.28761e-319
3.13633e-319
2.99127e-319
2.85254e-319
2.71953e-319
2.59226e-319
2.47053e-319
2.35432e-319
2.24345e-319
2.13772e-319
2.03713e-319
1.94148e-319
1.85037e-319
1.76401e-319
1.6818e-319
1.60384e-319
1.52982e-319
1.45967e-319
1.39327e-319
1.33012e-319
1.26995e-319
1.21184e-319
1.15532e-319
1.10058e-319
1.04841e-319
8.57303e-320
8.575e-320
8.58093e-320
8.59279e-320
8.60465e-320
8.61848e-320
8.63034e-320
8.64022e-320
8.64714e-320
8.65208e-320
8.65603e-320
8.65801e-320
8.65899e-320
8.65998e-320
8.66295e-320
8.66591e-320
8.66986e-320
8.6748e-320
8.67975e-320
8.68469e-320
8.68864e-320
8.6916e-320
8.69358e-320
8.69358e-320
8.69259e-320
8.69061e-320
8.68864e-320
8.68567e-320
8.68469e-320
8.6837e-320
8.68469e-320
8.68765e-320
8.69556e-320
8.70741e-320
8.72619e-320
8.742e-320
8.74299e-320
8.72619e-320
8.69852e-320
8.67283e-320
1.05789e-319
1.10779e-319
1.16046e-319
1.21599e-319
1.2742e-319
1.33536e-319
1.39959e-319
1.46698e-319
1.53773e-319
1.61194e-319
1.6898e-319
1.77142e-319
1.85709e-319
1.94682e-319
2.04108e-319
2.1399e-319
2.24345e-319
2.35195e-319
2.46588e-319
2.58535e-319
2.71044e-319
2.84177e-319
2.97941e-319
3.12368e-319
3.27486e-319
3.43336e-319
3.59947e-319
3.77338e-319
3.95549e-319
4.1461e-319
4.15272e-319
3.96409e-319
3.78365e-319
3.61103e-319
3.44581e-319
3.28781e-319
3.13653e-319
2.99147e-319
2.85274e-319
2.71973e-319
2.59246e-319
2.47072e-319
2.35442e-319
2.24345e-319
2.13772e-319
2.03713e-319
1.94148e-319
1.85047e-319
1.76401e-319
1.6818e-319
1.60384e-319
1.52982e-319
1.45967e-319
1.39327e-319
1.33022e-319
1.26995e-319
1.21184e-319
1.15532e-319
1.10058e-319
1.04851e-319
8.57303e-320
8.575e-320
8.58093e-320
8.59279e-320
8.60465e-320
8.61848e-320
8.63034e-320
8.64022e-320
8.64813e-320
8.65208e-320
8.65603e-320
8.65801e-320
8.65899e-320
8.66097e-320
8.66295e-320
8.66591e-320
8.66986e-320
8.67579e-320
8.67975e-320
8.68469e-320
8.68864e-320
8.6916e-320
8.69358e-320
8.69358e-320
8.69259e-320
8.69061e-320
8.68864e-320
8.68666e-320
8.68469e-320
8.6837e-320
8.68469e-320
8.68765e-320
8.69556e-320
8.70741e-320
8.7252e-320
8.74101e-320
8.74299e-320
8.72619e-320
8.69852e-320
8.67283e-320
1.05789e-319
1.1077e-319
1.16046e-319
1.2158e-319
1.2741e-319
1.33536e-319
1.39959e-319
1.46698e-319
1.53763e-319
1.61184e-319
1.68961e-319
1.77132e-319
1.8569e-319
1.94662e-319
2.04079e-319
2.1395e-319
2.24306e-319
2.35175e-319
2.46559e-319
2.58495e-319
2.71005e-319
2.84127e-319
2.97882e-319
3.12309e-319
3.27427e-319
3.43277e-319
3.59877e-319
3.77259e-319
3.9546e-319
4.14511e-319
4.15312e-319
3.96438e-319
3.78395e-319
3.61122e-319
3.44611e-319
3.28801e-319
3.13672e-319
2.99167e-319
2.85293e-319
2.71993e-319
2.59266e-319
2.47092e-319
2.35452e-319
2.24365e-319
2.13792e-319
2.03723e-319
1.94148e-319
1.85057e-319
1.76401e-319
1.6819e-319
1.60393e-319
1.52982e-319
1.45967e-319
1.39327e-319
1.33022e-319
1.27005e-319
1.21184e-319
1.15532e-319
1.10068e-319
1.04851e-319
8.57303e-320
8.575e-320
8.58192e-320
8.59279e-320
8.60564e-320
8.61848e-320
8.63034e-320
8.64022e-320
8.64813e-320
8.65307e-320
8.65603e-320
8.65801e-320
8.65998e-320
8.66097e-320
8.66394e-320
8.6669e-320
8.67085e-320
8.67579e-320
8.67975e-320
8.68469e-320
8.68963e-320
8.6916e-320
8.69358e-320
8.69358e-320
8.69358e-320
8.6916e-320
8.68864e-320
8.68666e-320
8.68567e-320
8.6837e-320
8.68567e-320
8.68765e-320
8.69556e-320
8.70741e-320
8.7252e-320
8.74101e-320
8.74299e-320
8.7252e-320
8.69852e-320
8.67283e-320
1.05789e-319
1.1077e-319
1.16046e-319
1.2158e-319
1.2741e-319
1.33516e-319
1.39939e-319
1.46678e-319
1.53753e-319
1.61164e-319
1.68951e-319
1.77113e-319
1.8567e-319
1.94642e-319
2.04049e-319
2.1393e-319
2.24276e-319
2.35136e-319
2.46519e-319
2.58446e-319
2.70965e-319
2.84078e-319
2.97823e-319
3.12249e-319
3.27358e-319
3.43198e-319
3.59788e-319
3.7717e-319
3.95351e-319
4.14403e-319
4.15351e-319
3.96478e-319
3.78425e-319
3.61162e-319
3.4464e-319
3.2883e-319
3.13692e-319
2.99196e-319
2.85313e-319
2.72013e-319
2.59286e-319
2.47112e-319
2.35472e-319
2.24375e-319
2.13792e-319
2.03733e-319
1.94158e-319
1.85057e-319
1.76401e-319
1.6819e-319
1.60393e-319
1.52982e-319
1.45967e-319
1.39327e-319
1.33022e-319
1.27014e-319
1.21194e-319
1.15542e-319
1.10078e-319
1.0486e-319
8.57303e-320
8.575e-320
8.58192e-320
8.59279e-320
8.60564e-320
8.61848e-320
8.63034e-320
8.64022e-320
8.64813e-320
8.65405e-320
8.65603e-320
8.65801e-320
8.65998e-320
8.66196e-320
8.66394e-320
8.6669e-320
8.67085e-320
8.67579e-320
8.67975e-320
8.68567e-320
8.68963e-320
8.69259e-320
8.69358e-320
8.69358e-320
8.69358e-320
8.6916e-320
8.68963e-320
8.68666e-320
8.68567e-320
8.6837e-320
8.68567e-320
8.68765e-320
8.69556e-320
8.70741e-320
8.7252e-320
8.74101e-320
8.74299e-320
8.7252e-320
8.69852e-320
8.67283e-320
1.05779e-319
1.1077e-319
1.16036e-319
1.2158e-319
1.274e-319
1.33516e-319
1.39929e-319
1.46668e-319
1.53733e-319
1.61144e-319
1.68931e-319
1.77083e-319
1.8564e-319
1.94612e-319
2.04029e-319
2.13891e-319
2.24247e-319
2.35096e-319
2.4647e-319
2.58396e-319
2.70906e-319
2.84019e-319
2.97763e-319
3.1217e-319
3.27279e-319
3.43109e-319
3.5969e-319
3.77061e-319
3.95243e-319
4.14274e-319
4.15391e-319
3.96517e-319
3.78464e-319
3.61192e-319
3.4467e-319
3.2885e-319
3.13712e-319
2.99226e-319
2.85333e-319
2.72033e-319
2.59305e-319
2.47132e-319
2.35491e-319
2.24385e-319
2.13812e-319
2.03743e-319
1.94168e-319
1.85057e-319
1.76411e-319
1.6819e-319
1.60393e-319
1.52982e-319
1.45967e-319
1.39327e-319
1.33032e-319
1.27014e-319
1.21204e-319
1.15552e-319
1.10078e-319
1.0486e-319
8.57303e-320
8.575e-320
8.58192e-320
8.59279e-320
8.60662e-320
8.61848e-320
8.63034e-320
8.64022e-320
8.64813e-320
8.65405e-320
8.65702e-320
8.65899e-320
8.65998e-320
8.66196e-320
8.66394e-320
8.66789e-320
8.67184e-320
8.67579e-320
8.68073e-320
8.68567e-320
8.68963e-320
8.69259e-320
8.69457e-320
8.69457e-320
8.69358e-320
8.6916e-320
8.68963e-320
8.68765e-320
8.68567e-320
8.68469e-320
8.68567e-320
8.68765e-320
8.69556e-320
8.70741e-320
8.7252e-320
8.74101e-320
8.742e-320
8.7252e-320
8.69852e-320
8.67283e-320
1.05779e-319
1.1077e-319
1.16026e-319
1.2157e-319
1.2739e-319
1.33497e-319
1.39919e-319
1.46658e-319
1.53714e-319
1.61125e-319
1.68911e-319
1.77063e-319
1.85611e-319
1.94583e-319
2.0399e-319
2.13851e-319
2.24207e-319
2.35047e-319
2.4642e-319
2.58337e-319
2.70847e-319
2.83949e-319
2.97694e-319
3.12091e-319
3.2719e-319
3.4302e-319
3.59591e-319
3.76952e-319
3.95114e-319
4.14136e-319
4.1545e-319
3.96557e-319
3.78504e-319
3.61221e-319
3.447e-319
3.2889e-319
3.13751e-319
2.99246e-319
2.85353e-319
2.72052e-319
2.59325e-319
2.47151e-319
2.35511e-319
2.24405e-319
2.13832e-319
2.03753e-319
1.94168e-319
1.85067e-319
1.76411e-319
1.682e-319
1.60393e-319
1.52992e-319
1.45977e-319
1.39336e-319
1.33042e-319
1.27014e-319
1.21204e-319
1.15552e-319
1.10078e-319
1.0486e-319
8.57303e-320
8.575e-320
8.58192e-320
8.59279e-320
8.60662e-320
8.61947e-320
8.63133e-320
8.64121e-320
8.64813e-320
8.65405e-320
8.65801e-320
8.65899e-320
8.65998e-320
8.66196e-320
8.66394e-320
8.66789e-320
8.67184e-320
8.67579e-320
8.68172e-320
8.68567e-320
8.68963e-320
8.69358e-320
8.69457e-320
8.69457e-320
8.69358e-320
8.6916e-320
8.68963e-320
8.68765e-320
8.68567e-320
8.68469e-320
8.68567e-320
8.68864e-320
8.69556e-320
8.7084e-320
8.7252e-320
8.74101e-320
8.742e-320
8.7252e-320
8.69852e-320
8.67283e-320
1.0577e-319
1.1077e-319
1.16026e-319
1.2156e-319
1.2738e-319
1.33497e-319
1.3991e-319
1.46639e-319
1.53704e-319
1.61105e-319
1.68882e-319
1.77034e-319
1.85591e-319
1.94553e-319
2.0395e-319
2.13812e-319
2.24158e-319
2.34997e-319
2.46361e-319
2.58288e-319
2.70787e-319
2.8388e-319
2.97615e-319
3.12012e-319
3.27101e-319
3.42911e-319
3.59482e-319
3.76824e-319
3.94976e-319
4.13987e-319
4.15499e-319
3.96616e-319
3.78553e-319
3.61261e-319
3.44739e-319
3.28919e-319
3.13771e-319
2.99275e-319
2.85392e-319
2.72092e-319
2.59345e-319
2.47171e-319
2.35531e-319
2.24424e-319
2.13841e-319
2.03763e-319
1.94188e-319
1.85077e-319
1.76421e-319
1.682e-319
1.60393e-319
1.52992e-319
1.45987e-319
1.39346e-319
1.33042e-319
1.27034e-319
1.21214e-319
1.15552e-319
1.10078e-319
1.0486e-319
8.57303e-320
8.575e-320
8.58291e-320
8.59378e-320
8.60662e-320
8.62046e-320
8.63231e-320
8.6422e-320
8.64911e-320
8.65405e-320
8.65801e-320
8.65998e-320
8.66097e-320
8.66196e-320
8.66492e-320
8.66789e-320
8.67184e-320
8.67678e-320
8.68172e-320
8.68567e-320
8.68963e-320
8.69358e-320
8.69556e-320
8.69556e-320
8.69358e-320
8.6916e-320
8.68963e-320
8.68765e-320
8.68567e-320
8.68567e-320
8.68567e-320
8.68864e-320
8.69556e-320
8.7084e-320
8.7252e-320
8.74002e-320
8.74101e-320
8.7252e-320
8.69951e-320
8.67283e-320
1.0577e-319
1.1076e-319
1.16016e-319
1.2156e-319
1.2737e-319
1.33477e-319
1.399e-319
1.46619e-319
1.53684e-319
1.61085e-319
1.68862e-319
1.77014e-319
1.85551e-319
1.94524e-319
2.03921e-319
2.13772e-319
2.24108e-319
2.34948e-319
2.46311e-319
2.58218e-319
2.70708e-319
2.83811e-319
2.97526e-319
3.11914e-319
3.26992e-319
3.42803e-319
3.59354e-319
3.76695e-319
3.94838e-319
4.13829e-319
4.15549e-319
3.96666e-319
3.78593e-319
3.6131e-319
3.44779e-319
3.28959e-319
3.13811e-319
2.99305e-319
2.85412e-319
2.72112e-319
2.59375e-319
2.47191e-319
2.35551e-319
2.24444e-319
2.13851e-319
2.03772e-319
1.94188e-319
1.85077e-319
1.76421e-319
1.682e-319
1.60393e-319
1.53002e-319
1.45987e-319
1.39346e-319
1.33052e-319
1.27034e-319
1.21224e-319
1.15562e-319
1.10088e-319
1.0486e-319
8.57303e-320
8.575e-320
8.58291e-320
8.59378e-320
8.60662e-320
8.62046e-320
8.63231e-320
8.6422e-320
8.6501e-320
8.65504e-320
8.65801e-320
8.65998e-320
8.66196e-320
8.66295e-320
8.66591e-320
8.66789e-320
8.67184e-320
8.67777e-320
8.68172e-320
8.68666e-320
8.69061e-320
8.69358e-320
8.69556e-320
8.69556e-320
8.69457e-320
8.6916e-320
8.68963e-320
8.68765e-320
8.68567e-320
8.68567e-320
8.68567e-320
8.68963e-320
8.69556e-320
8.7084e-320
8.7252e-320
8.74002e-320
8.74101e-320
8.7252e-320
8.69951e-320
8.67283e-320
1.0577e-319
1.1075e-319
1.16007e-319
1.2154e-319
1.2736e-319
1.33467e-319
1.3988e-319
1.46609e-319
1.53664e-319
1.61065e-319
1.68832e-319
1.76974e-319
1.85522e-319
1.94484e-319
2.03871e-319
2.13733e-319
2.24059e-319
2.34899e-319
2.46242e-319
2.58159e-319
2.70639e-319
2.83722e-319
2.97447e-319
3.11815e-319
3.26894e-319
3.42684e-319
3.59225e-319
3.76537e-319
3.94679e-319
4.13652e-319
4.15618e-319
3.96715e-319
3.78652e-319
3.6136e-319
3.44818e-319
3.28998e-319
3.1385e-319
2.99344e-319
2.85451e-319
2.72141e-319
2.59404e-319
2.47221e-319
2.3557e-319
2.24464e-319
2.13871e-319
2.03792e-319
1.94207e-319
1.85087e-319
1.76431e-319
1.682e-319
1.60403e-319
1.53002e-319
1.45987e-319
1.39346e-319
1.33062e-319
1.27034e-319
1.21224e-319
1.15572e-319
1.10098e-319
1.0487e-319
8.57303e-320
8.575e-320
8.58291e-320
8.59477e-320
8.60761e-320
8.62046e-320
8.63231e-320
8.6422e-320
8.6501e-320
8.65603e-320
8.65801e-320
8.65998e-320
8.66196e-320
8.66394e-320
8.66591e-320
8.66888e-320
8.67283e-320
8.67777e-320
8.68172e-320
8.68765e-320
8.6916e-320
8.69358e-320
8.69556e-320
8.69556e-320
8.69457e-320
8.69259e-320
8.69061e-320
8.68765e-320
8.68666e-320
8.68567e-320
8.68567e-320
8.68963e-320
8.69654e-320
8.70939e-320
8.7252e-320
8.74002e-320
8.74101e-320
8.7252e-320
8.69951e-320
8.67283e-320
1.0577e-319
1.1075e-319
1.16007e-319
1.2154e-319
1.2735e-319
1.33457e-319
1.3986e-319
1.46589e-319
1.53645e-319
1.61046e-319
1.68812e-319
1.76955e-319
1.85492e-319
1.94444e-319
2.03832e-319
2.13683e-319
2.24009e-319
2.34839e-319
2.46183e-319
2.5808e-319
2.7055e-319
2.83633e-319
2.97348e-319
3.11716e-319
3.26775e-319
3.42546e-319
3.59077e-319
3.76379e-319
3.94502e-319
4.13464e-319
4.15687e-319
3.96774e-319
3.78701e-319
3.61409e-319
3.44868e-319
3.29038e-319
3.1389e-319
2.99384e-319
2.85481e-319
2.72171e-319
2.59434e-319
2.4725e-319
2.356e-319
2.24484e-319
2.13891e-319
2.03802e-319
1.94207e-319
1.85097e-319
1.76441e-319
1.68219e-319
1.60413e-319
1.53002e-319
1.45996e-319
1.39356e-319
1.33062e-319
1.27054e-319
1.21234e-319
1.15572e-319
1.10098e-319
1.0487e-319
8.57303e-320
8.575e-320
8.58291e-320
8.59477e-320
8.60761e-320
8.62046e-320
8.6333e-320
8.64318e-320
8.6501e-320
8.65603e-320
8.65899e-320
8.66097e-320
8.66196e-320
8.66394e-320
8.66591e-320
8.66986e-320
8.67382e-320
8.67777e-320
8.68271e-320
8.68765e-320
8.6916e-320
8.69457e-320
8.69556e-320
8.69654e-320
8.69556e-320
8.69358e-320
8.69061e-320
8.68864e-320
8.68666e-320
8.68567e-320
8.68666e-320
8.68963e-320
8.69654e-320
8.70939e-320
8.7252e-320
8.74002e-320
8.74101e-320
8.7252e-320
8.69951e-320
8.67382e-320
1.0577e-319
1.1075e-319
1.16007e-319
1.2153e-319
1.2734e-319
1.33437e-319
1.3985e-319
1.4657e-319
1.53625e-319
1.61026e-319
1.68773e-319
1.76915e-319
1.85452e-319
1.94405e-319
2.03792e-319
2.13634e-319
2.2395e-319
2.3477e-319
2.46104e-319
2.58001e-319
2.70471e-319
2.83534e-319
2.9724e-319
3.11597e-319
3.26647e-319
3.42407e-319
3.58929e-319
3.76221e-319
3.94324e-319
4.13256e-319
4.15756e-319
3.96843e-319
3.78761e-319
3.61458e-319
3.44917e-319
3.29087e-319
3.13929e-319
2.99414e-319
2.85511e-319
2.7221e-319
2.59464e-319
2.4727e-319
2.3563e-319
2.24503e-319
2.13911e-319
2.03812e-319
1.94227e-319
1.85107e-319
1.76441e-319
1.68219e-319
1.60413e-319
1.53012e-319
1.46006e-319
1.39366e-319
1.33072e-319
1.27054e-319
1.21244e-319
1.15582e-319
1.10098e-319
1.0488e-319
8.57303e-320
8.575e-320
8.58291e-320
8.59477e-320
8.6086e-320
8.62145e-320
8.63429e-320
8.64417e-320
8.65109e-320
8.65603e-320
8.65998e-320
8.66196e-320
8.66196e-320
8.66394e-320
8.66591e-320
8.66986e-320
8.67382e-320
8.67876e-320
8.6837e-320
8.68765e-320
8.6916e-320
8.69556e-320
8.69654e-320
8.69753e-320
8.69556e-320
8.69358e-320
8.6916e-320
8.68963e-320
8.68765e-320
8.68666e-320
8.68765e-320
8.68963e-320
8.69753e-320
8.70939e-320
8.7252e-320
8.74002e-320
8.74101e-320
8.7252e-320
8.69951e-320
8.67382e-320
1.0577e-319
1.1074e-319
1.15987e-319
1.2152e-319
1.27331e-319
1.33437e-319
1.3983e-319
1.4655e-319
1.53595e-319
1.60996e-319
1.68753e-319
1.76885e-319
1.85413e-319
1.94365e-319
2.03733e-319
2.13575e-319
2.23891e-319
2.34701e-319
2.46035e-319
2.57922e-319
2.70372e-319
2.83436e-319
2.97131e-319
3.11479e-319
3.26508e-319
3.42259e-319
3.58761e-319
3.76033e-319
3.94116e-319
4.13039e-319
4.15825e-319
3.96913e-319
3.7882e-319
3.61518e-319
3.44967e-319
3.29127e-319
3.13969e-319
2.99453e-319
2.8555e-319
2.7224e-319
2.59493e-319
2.473e-319
2.3565e-319
2.24523e-319
2.1393e-319
2.03832e-319
1.94237e-319
1.85117e-319
1.76451e-319
1.68219e-319
1.60413e-319
1.53022e-319
1.46006e-319
1.39366e-319
1.33082e-319
1.27064e-319
1.21254e-319
1.15592e-319
1.10107e-319
1.0488e-319
8.57303e-320
8.575e-320
8.58291e-320
8.59477e-320
8.6086e-320
8.62243e-320
8.63429e-320
8.64417e-320
8.65208e-320
8.65702e-320
8.65998e-320
8.66196e-320
8.66394e-320
8.66492e-320
8.66789e-320
8.66986e-320
8.67382e-320
8.67975e-320
8.6837e-320
8.68864e-320
8.69259e-320
8.69556e-320
8.69753e-320
8.69753e-320
8.69556e-320
8.69358e-320
8.6916e-320
8.68963e-320
8.68765e-320
8.68765e-320
8.68765e-320
8.69061e-320
8.69753e-320
8.70939e-320
8.72619e-320
8.74002e-320
8.74101e-320
8.7252e-320
8.69951e-320
8.67382e-320
1.0577e-319
1.1074e-319
1.15987e-319
1.21511e-319
1.27321e-319
1.33417e-319
1.39821e-319
1.4653e-319
1.53575e-319
1.60967e-319
1.68714e-319
1.76846e-319
1.85373e-319
1.94306e-319
2.03693e-319
2.13515e-319
2.23822e-319
2.34622e-319
2.45956e-319
2.57833e-319
2.70274e-319
2.83327e-319
2.97013e-319
3.1134e-319
3.2636e-319
3.42101e-319
3.58583e-319
3.75846e-319
3.93909e-319
4.12812e-319
4.15904e-319
3.96982e-319
3.78889e-319
3.61577e-319
3.45016e-319
3.29186e-319
3.14018e-319
2.99503e-319
2.8559e-319
2.7227e-319
2.59523e-319
2.47329e-319
2.35669e-319
2.24553e-319
2.1395e-319
2.03851e-319
1.94247e-319
1.85126e-319
1.7646e-319
1.68229e-319
1.60423e-319
1.53022e-319
1.46006e-319
1.39386e-319
1.33082e-319
1.27074e-319
1.21263e-319
1.15592e-319
1.10117e-319
1.0488e-319
8.57402e-320
8.575e-320
8.58291e-320
8.59477e-320
8.6086e-320
8.62243e-320
8.63429e-320
8.64417e-320
8.65208e-320
8.65801e-320
8.65998e-320
8.66196e-320
8.66394e-320
8.66591e-320
8.66789e-320
8.67085e-320
8.67579e-320
8.67975e-320
8.68469e-320
8.68963e-320
8.69358e-320
8.69654e-320
8.69753e-320
8.69753e-320
8.69753e-320
8.69457e-320
8.69259e-320
8.68963e-320
8.68765e-320
8.68765e-320
8.68765e-320
8.6916e-320
8.69753e-320
8.70939e-320
8.72619e-320
8.74002e-320
8.74101e-320
8.7252e-320
8.69951e-320
8.67382e-320
1.0576e-319
1.1073e-319
1.15987e-319
1.21501e-319
1.27311e-319
1.33398e-319
1.39801e-319
1.4651e-319
1.53556e-319
1.60937e-319
1.68684e-319
1.76816e-319
1.85334e-319
1.94267e-319
2.03634e-319
2.13456e-319
2.23752e-319
2.34553e-319
2.45867e-319
2.57734e-319
2.70175e-319
2.83218e-319
2.96874e-319
3.11202e-319
3.26202e-319
3.41933e-319
3.58395e-319
3.75628e-319
3.93672e-319
4.12565e-319
4.15984e-319
3.97051e-319
3.78948e-319
3.61636e-319
3.45075e-319
3.29226e-319
3.14068e-319
2.99542e-319
2.85629e-319
2.72309e-319
2.59562e-319
2.47369e-319
2.35709e-319
2.24582e-319
2.1397e-319
2.03871e-319
1.94267e-319
1.85136e-319
1.7647e-319
1.68239e-319
1.60433e-319
1.53022e-319
1.46026e-319
1.39386e-319
1.33101e-319
1.27084e-319
1.21263e-319
1.15611e-319
1.10117e-319
1.0488e-319
8.57402e-320
8.57599e-320
8.5839e-320
8.59575e-320
8.60959e-320
8.62243e-320
8.63528e-320
8.64516e-320
8.65307e-320
8.65801e-320
8.66196e-320
8.66295e-320
8.66394e-320
8.66591e-320
8.66789e-320
8.67184e-320
8.67579e-320
8.67975e-320
8.68567e-320
8.68963e-320
8.69358e-320
8.69753e-320
8.69852e-320
8.69852e-320
8.69753e-320
8.69556e-320
8.69358e-320
8.69061e-320
8.68963e-320
8.68765e-320
8.68864e-320
8.6916e-320
8.69852e-320
8.71038e-320
8.72718e-320
8.74002e-320
8.74101e-320
8.7252e-320
8.69951e-320
8.67382e-320
1.0576e-319
1.1073e-319
1.15967e-319
1.21501e-319
1.27291e-319
1.33388e-319
1.39781e-319
1.46481e-319
1.53526e-319
1.60907e-319
1.68654e-319
1.76767e-319
1.85284e-319
1.94207e-319
2.03575e-319
2.13387e-319
2.23673e-319
2.34464e-319
2.45778e-319
2.57635e-319
2.70056e-319
2.8309e-319
2.96736e-319
3.11044e-319
3.26044e-319
3.41745e-319
3.58198e-319
3.75411e-319
3.93434e-319
4.12298e-319
4.16072e-319
3.9713e-319
3.79027e-319
3.61705e-319
3.45134e-319
3.29285e-319
3.14107e-319
2.99582e-319
2.85669e-319
2.72349e-319
2.59602e-319
2.47389e-319
2.35729e-319
2.24602e-319
2.1399e-319
2.03891e-319
1.94286e-319
1.85156e-319
1.7648e-319
1.68249e-319
1.60433e-319
1.53042e-319
1.46026e-319
1.39396e-319
1.33101e-319
1.27093e-319
1.21283e-319
1.15611e-319
1.10127e-319
1.0489e-319
8.57402e-320
8.57599e-320
8.5839e-320
8.59674e-320
8.61058e-320
8.62441e-320
8.63627e-320
8.64615e-320
8.65405e-320
8.65801e-320
8.66196e-320
8.66394e-320
8.66492e-320
8.66591e-320
8.66888e-320
8.67184e-320
8.67579e-320
8.68172e-320
8.68567e-320
8.69061e-320
8.69457e-320
8.69753e-320
8.69951e-320
8.69951e-320
8.69753e-320
8.69556e-320
8.69358e-320
8.6916e-320
8.68963e-320
8.68864e-320
8.68963e-320
8.6916e-320
8.69951e-320
8.71137e-320
8.72718e-320
8.74002e-320
8.74101e-320
8.7252e-320
8.69951e-320
8.67382e-320
1.0576e-319
1.1073e-319
1.15967e-319
1.21481e-319
1.27281e-319
1.33368e-319
1.39761e-319
1.46461e-319
1.53496e-319
1.60868e-319
1.68615e-319