/*--------------------------------*- C++ -*----------------------------------*\
  =========                 |
  \\      /  F ield         | OpenFOAM: The Open Source CFD Toolbox
   \\    /   O peration     | Website:  https://openfoam.org
    \\  /    A nd           | Version:  9
     \\/     M anipulation  |
\*---------------------------------------------------------------------------*/
FoamFile
{
    format      ascii;
    class       volScalarField;
    location    "0.15";
    object      p;
}
// * * * * * * * * * * * * * * * * * * * * * * * * * * * * * * * * * * * * * //

dimensions      [1 -1 -2 0 0 0 0];

internalField   nonuniform List<scalar> 
20000
(
2.92268
2.92266
2.92264
2.92263
2.92262
2.92262
2.92261
2.92259
2.92255
2.92248
2.92235
2.92216
2.92188
2.92152
2.9211
2.92063
2.92016
2.9197
2.91932
2.91903
2.91888
2.91889
2.91909
2.91947
2.91997
2.92046
2.92081
2.92092
2.92076
2.92047
2.92027
2.92046
2.92103
2.92181
2.92264
2.9234
2.92401
2.92448
2.92482
2.92508
2.92529
2.92546
2.92561
2.92573
2.92585
2.92592
2.92598
2.92602
2.92603
2.92601
2.92599
2.92598
2.926
2.92606
2.92614
2.92623
2.92631
2.92636
2.92638
2.92636
2.92627
2.92609
2.92574
2.92509
2.92407
2.92302
2.92294
2.92408
2.92525
2.92574
2.92569
2.92545
2.92516
2.92484
2.92452
2.92422
2.92393
2.92367
2.92344
2.92323
2.92304
2.92289
2.92276
2.92265
2.92257
2.92251
2.92248
2.92245
2.92245
2.92246
2.92247
2.92249
2.92252
2.92255
2.92257
2.92259
2.9226
2.92261
2.92261
2.92264
2.92073
2.92072
2.92071
2.9207
2.92071
2.92071
2.92072
2.92073
2.92073
2.92072
2.92069
2.92062
2.92052
2.92037
2.92018
2.91995
2.91971
2.91948
2.91928
2.91913
2.91906
2.91907
2.91918
2.91937
2.91962
2.91992
2.92026
2.92061
2.92088
2.92103
2.92116
2.92147
2.92198
2.92266
2.92341
2.92414
2.92483
2.92543
2.92596
2.92642
2.92682
2.92718
2.92751
2.92779
2.92809
2.92825
2.92845
2.92861
2.92876
2.92888
2.92899
2.92911
2.92923
2.92937
2.9295
2.92962
2.9297
2.92974
2.92973
2.92966
2.9295
2.92922
2.92878
2.92817
2.92742
2.92679
2.92674
2.92733
2.92786
2.92796
2.92772
2.92736
2.92693
2.92648
2.92602
2.92556
2.92512
2.9247
2.92431
2.92394
2.9236
2.92329
2.923
2.92274
2.9225
2.92229
2.92209
2.92192
2.92176
2.92161
2.92148
2.92135
2.92124
2.92113
2.92103
2.92093
2.92085
2.92078
2.92073
2.92071
2.91879
2.91881
2.91883
2.91885
2.91887
2.91889
2.91891
2.91893
2.91894
2.91894
2.91893
2.9189
2.91885
2.91877
2.91867
2.91856
2.91844
2.91833
2.91824
2.91819
2.9182
2.91828
2.91842
2.91865
2.91893
2.91926
2.91962
2.91999
2.92032
2.92061
2.92093
2.92139
2.922
2.92272
2.9235
2.92428
2.92502
2.9257
2.92632
2.92689
2.9274
2.92787
2.9283
2.92867
2.92897
2.92936
2.92968
2.92996
2.9302
2.93042
2.93062
2.93081
2.931
2.93117
2.93134
2.93147
2.93156
2.9316
2.93158
2.93149
2.9313
2.931
2.93058
2.93004
2.92943
2.92888
2.92868
2.9289
2.92906
2.92891
2.92853
2.92807
2.92755
2.92699
2.92642
2.92586
2.92531
2.92477
2.92427
2.92378
2.92333
2.9229
2.92251
2.92214
2.92179
2.92147
2.92118
2.9209
2.92065
2.92041
2.92019
2.91999
2.91979
2.91962
2.91945
2.9193
2.91916
2.91904
2.91893
2.91882
2.91684
2.91688
2.91692
2.91697
2.91701
2.91706
2.9171
2.91714
2.91718
2.91721
2.91722
2.91723
2.91722
2.91719
2.91715
2.91711
2.91707
2.91704
2.91704
2.91707
2.91715
2.91729
2.9175
2.91779
2.91814
2.91854
2.91895
2.91934
2.91972
2.92008
2.92052
2.92111
2.92182
2.92262
2.92347
2.92431
2.92512
2.92589
2.9266
2.92725
2.92787
2.92844
2.92897
2.92946
2.9299
2.93036
2.93077
2.93114
2.93148
2.93178
2.93206
2.93232
2.93257
2.93279
2.93298
2.93313
2.93324
2.93328
2.93326
2.93315
2.93295
2.93265
2.93223
2.93172
2.93116
2.93062
2.93031
2.93027
2.93016
2.92981
2.92929
2.92871
2.92807
2.9274
2.92673
2.92605
2.92538
2.92474
2.92412
2.92352
2.92296
2.92242
2.92192
2.92145
2.921
2.92058
2.92019
2.91983
2.91948
2.91916
2.91886
2.91858
2.91832
2.91807
2.91784
2.91763
2.91743
2.91724
2.91707
2.9169
2.91489
2.91494
2.915
2.91507
2.91513
2.91519
2.91526
2.91533
2.91539
2.91546
2.91551
2.91557
2.91562
2.91566
2.9157
2.91574
2.91579
2.91585
2.91593
2.91605
2.91621
2.91643
2.9167
2.91704
2.91743
2.91786
2.91832
2.91878
2.91924
2.91972
2.92029
2.92101
2.92182
2.9227
2.92362
2.92454
2.92543
2.92628
2.92709
2.92785
2.92858
2.92926
2.92991
2.93053
2.93111
2.93165
2.93216
2.93263
2.93306
2.93346
2.93382
2.93416
2.93446
2.93473
2.93496
2.93514
2.93527
2.93532
2.93529
2.93518
2.93497
2.93466
2.93425
2.93374
2.93319
2.93264
2.93221
2.93193
2.93157
2.93102
2.93034
2.92963
2.92887
2.92808
2.92727
2.92647
2.92568
2.92491
2.92416
2.92345
2.92276
2.92211
2.92149
2.9209
2.92034
2.91982
2.91932
2.91886
2.91842
2.918
2.91761
2.91724
2.9169
2.91657
2.91626
2.91597
2.9157
2.91544
2.9152
2.91497
2.91293
2.91301
2.91309
2.91317
2.91325
2.91334
2.91343
2.91353
2.91363
2.91372
2.91383
2.91393
2.91404
2.91415
2.91426
2.91439
2.91452
2.91467
2.91485
2.91506
2.9153
2.91559
2.91592
2.91631
2.91674
2.91722
2.91772
2.91826
2.91883
2.91943
2.92015
2.921
2.92192
2.92288
2.92388
2.92488
2.92585
2.9268
2.92771
2.92859
2.92943
2.93023
2.931
2.93173
2.93243
2.93309
2.93371
2.93428
2.93482
2.93531
2.93576
2.93618
2.93655
2.93687
2.93714
2.93735
2.9375
2.93756
2.93754
2.93743
2.93721
2.93689
2.93647
2.93595
2.93539
2.93479
2.93424
2.93374
2.93316
2.93241
2.93156
2.93072
2.92982
2.9289
2.92796
2.92702
2.9261
2.9252
2.92432
2.92347
2.92265
2.92187
2.92113
2.92042
2.91974
2.9191
2.9185
2.91792
2.91738
2.91687
2.91638
2.91592
2.91549
2.91508
2.91469
2.91432
2.91397
2.91364
2.91333
2.91304
2.91098
2.91107
2.91118
2.91128
2.91139
2.91151
2.91163
2.91176
2.91189
2.91202
2.91217
2.91232
2.91248
2.91265
2.91283
2.91302
2.91323
2.91346
2.91371
2.914
2.91432
2.91468
2.91508
2.91553
2.91602
2.91655
2.91712
2.91774
2.9184
2.91912
2.91996
2.92094
2.92197
2.92303
2.92411
2.9252
2.92627
2.92732
2.92834
2.92932
2.93027
2.93119
2.93208
2.93293
2.93374
2.93451
2.93524
2.93592
2.93656
2.93715
2.93769
2.93818
2.93862
2.939
2.93931
2.93956
2.93973
2.93981
2.93979
2.93968
2.93945
2.93912
2.93868
2.93815
2.93754
2.93689
2.93623
2.93555
2.93477
2.93383
2.93283
2.93183
2.9308
2.92973
2.92866
2.92759
2.92653
2.92548
2.92447
2.92349
2.92254
2.92163
2.92076
2.91993
2.91913
2.91838
2.91766
2.91698
2.91633
2.91571
2.91513
2.91458
2.91406
2.91356
2.9131
2.91265
2.91223
2.91184
2.91146
2.91111
2.90903
2.90914
2.90927
2.9094
2.90954
2.90969
2.90984
2.91
2.91016
2.91034
2.91052
2.91072
2.91092
2.91114
2.91138
2.91163
2.91191
2.9122
2.91253
2.91288
2.91327
2.9137
2.91417
2.91469
2.91525
2.91586
2.9165
2.9172
2.91795
2.91876
2.91972
2.92082
2.92196
2.92313
2.92431
2.9255
2.92667
2.92782
2.92894
2.93003
2.9311
2.93213
2.93313
2.9341
2.93502
2.9359
2.93674
2.93753
2.93827
2.93895
2.93958
2.94014
2.94065
2.94109
2.94145
2.94174
2.94193
2.94203
2.94202
2.94191
2.94168
2.94133
2.94087
2.9403
2.93965
2.93893
2.93816
2.93734
2.93639
2.93527
2.9341
2.93296
2.93178
2.93058
2.92936
2.92815
2.92695
2.92577
2.92462
2.9235
2.92242
2.92138
2.92039
2.91943
2.91852
2.91764
2.91681
2.91602
2.91527
2.91455
2.91388
2.91323
2.91262
2.91205
2.9115
2.91098
2.91049
2.91003
2.90959
2.90918
2.90707
2.90722
2.90737
2.90752
2.90769
2.90786
2.90804
2.90823
2.90844
2.90865
2.90887
2.90911
2.90937
2.90964
2.90993
2.91024
2.91057
2.91093
2.91132
2.91174
2.9122
2.9127
2.91324
2.91383
2.91446
2.91514
2.91587
2.91664
2.91748
2.91839
2.91946
2.92068
2.92193
2.92321
2.9245
2.92579
2.92707
2.92832
2.92955
2.93076
2.93194
2.93309
2.9342
2.93528
2.93632
2.93732
2.93826
2.93916
2.93999
2.94077
2.94148
2.94213
2.9427
2.9432
2.94361
2.94394
2.94416
2.94428
2.94429
2.94417
2.94393
2.94357
2.94308
2.94248
2.94178
2.94098
2.94011
2.93915
2.93805
2.93676
2.93543
2.93414
2.93281
2.93146
2.93011
2.92875
2.92741
2.92609
2.92481
2.92355
2.92234
2.92117
2.92004
2.91896
2.91792
2.91693
2.91599
2.91508
2.91423
2.91341
2.91264
2.9119
2.9112
2.91054
2.90992
2.90932
2.90876
2.90822
2.90772
2.90724
2.90512
2.90529
2.90546
2.90565
2.90584
2.90604
2.90625
2.90647
2.90671
2.90696
2.90722
2.90751
2.90781
2.90813
2.90847
2.90883
2.90923
2.90965
2.9101
2.91059
2.91112
2.91169
2.9123
2.91296
2.91366
2.91442
2.91522
2.91608
2.91701
2.91802
2.9192
2.92054
2.92191
2.9233
2.9247
2.9261
2.92748
2.92885
2.93019
2.93151
2.93281
2.93407
2.9353
2.9365
2.93765
2.93876
2.93982
2.94082
2.94176
2.94263
2.94343
2.94415
2.9448
2.94536
2.94583
2.94619
2.94645
2.94659
2.94661
2.9465
2.94626
2.94588
2.94536
2.94472
2.94395
2.94309
2.94211
2.94102
2.93976
2.93831
2.93681
2.93538
2.93391
2.93241
2.93091
2.92941
2.92792
2.92647
2.92504
2.92365
2.9223
2.92099
2.91973
2.91852
2.91736
2.91625
2.91519
2.91418
2.91321
2.91229
2.91142
2.91059
2.9098
2.90905
2.90834
2.90767
2.90703
2.90643
2.90585
2.90531
2.90317
2.90336
2.90356
2.90377
2.90399
2.90422
2.90446
2.90471
2.90498
2.90527
2.90557
2.9059
2.90624
2.90661
2.907
2.90742
2.90787
2.90836
2.90887
2.90943
2.91002
2.91066
2.91134
2.91207
2.91285
2.91368
2.91456
2.91551
2.91653
2.91764
2.91893
2.92039
2.92189
2.92339
2.92491
2.92642
2.92791
2.92939
2.93085
2.93229
2.9337
2.93508
2.93643
2.93775
2.93902
2.94024
2.94141
2.94252
2.94356
2.94453
2.94542
2.94622
2.94694
2.94757
2.94809
2.9485
2.94879
2.94896
2.949
2.94889
2.94864
2.94824
2.9477
2.94701
2.94619
2.94524
2.94417
2.94295
2.94154
2.93993
2.93827
2.93668
2.93506
2.93341
2.93176
2.93012
2.92849
2.92689
2.92532
2.92379
2.9223
2.92086
2.91947
2.91813
2.91684
2.91561
2.91442
2.9133
2.91222
2.9112
2.91022
2.90929
2.90841
2.90757
2.90678
2.90603
2.90531
2.90463
2.90399
2.90338
2.90122
2.90143
2.90165
2.90189
2.90213
2.90239
2.90266
2.90295
2.90326
2.90358
2.90392
2.90429
2.90467
2.90509
2.90553
2.906
2.90651
2.90705
2.90763
2.90825
2.90891
2.90961
2.91037
2.91117
2.91203
2.91293
2.9139
2.91493
2.91604
2.91725
2.91865
2.92024
2.92186
2.92348
2.92512
2.92674
2.92835
2.92995
2.93153
2.93308
2.93461
2.93611
2.93758
2.93901
2.9404
2.94174
2.94302
2.94424
2.94539
2.94645
2.94744
2.94833
2.94912
2.94981
2.95039
2.95086
2.95119
2.95139
2.95144
2.95134
2.95109
2.95068
2.9501
2.94937
2.94848
2.94746
2.94628
2.94494
2.94339
2.94161
2.93979
2.93805
2.93628
2.93448
2.93268
2.93088
2.92911
2.92736
2.92564
2.92397
2.92234
2.92076
2.91924
2.91777
2.91635
2.91499
2.91369
2.91245
2.91126
2.91012
2.90904
2.90802
2.90704
2.90611
2.90523
2.90439
2.9036
2.90284
2.90213
2.90145
2.89927
2.8995
2.89975
2.90001
2.90028
2.90057
2.90087
2.90119
2.90153
2.90188
2.90226
2.90267
2.9031
2.90356
2.90405
2.90458
2.90514
2.90574
2.90637
2.90705
2.90778
2.90856
2.90938
2.91026
2.91119
2.91217
2.91322
2.91434
2.91554
2.91685
2.91837
2.92008
2.92182
2.92357
2.92532
2.92707
2.9288
2.93051
2.93221
2.93388
2.93553
2.93716
2.93875
2.9403
2.94181
2.94327
2.94466
2.94599
2.94724
2.94841
2.94949
2.95047
2.95134
2.9521
2.95275
2.95326
2.95364
2.95387
2.95395
2.95386
2.9536
2.95317
2.95257
2.95179
2.95085
2.94974
2.94847
2.94701
2.94531
2.94337
2.94139
2.9395
2.93756
2.93561
2.93366
2.93171
2.92978
2.92788
2.92602
2.9242
2.92243
2.92071
2.91905
2.91745
2.9159
2.91441
2.91299
2.91163
2.91032
2.90908
2.90789
2.90676
2.90569
2.90467
2.9037
2.90277
2.9019
2.90106
2.90027
2.89953
2.89732
2.89757
2.89784
2.89813
2.89843
2.89874
2.89907
2.89942
2.89979
2.90019
2.9006
2.90105
2.90152
2.90203
2.90257
2.90314
2.90376
2.90441
2.90511
2.90585
2.90664
2.90748
2.90838
2.90933
2.91034
2.9114
2.91253
2.91374
2.91504
2.91644
2.91807
2.91991
2.92178
2.92365
2.92553
2.9274
2.92925
2.93109
2.9329
2.9347
2.93647
2.93822
2.93993
2.94161
2.94324
2.94482
2.94633
2.94777
2.94913
2.9504
2.95158
2.95265
2.95361
2.95445
2.95516
2.95573
2.95615
2.95642
2.95652
2.95645
2.9562
2.95575
2.95512
2.9543
2.95329
2.9521
2.95073
2.94915
2.94732
2.94521
2.94307
2.94102
2.93893
2.93682
2.93471
2.9326
2.93052
2.92847
2.92646
2.92449
2.92257
2.92071
2.91891
2.91717
2.91549
2.91387
2.91232
2.91084
2.90942
2.90806
2.90677
2.90554
2.90436
2.90324
2.90218
2.90116
2.9002
2.89929
2.89842
2.8976
2.89537
2.89564
2.89594
2.89625
2.89657
2.89691
2.89727
2.89766
2.89806
2.89849
2.89894
2.89942
2.89994
2.90049
2.90107
2.9017
2.90236
2.90307
2.90383
2.90463
2.90549
2.9064
2.90737
2.90839
2.90948
2.91062
2.91184
2.91313
2.91452
2.91602
2.91777
2.91974
2.92173
2.92374
2.92574
2.92773
2.92971
2.93167
2.93361
2.93553
2.93743
2.9393
2.94114
2.94294
2.94469
2.94639
2.94802
2.94958
2.95105
2.95243
2.95371
2.95488
2.95592
2.95684
2.95762
2.95826
2.95874
2.95905
2.95918
2.95912
2.95887
2.95842
2.95776
2.9569
2.95583
2.95456
2.95309
2.95139
2.94942
2.94715
2.94484
2.94263
2.94038
2.93811
2.93584
2.93357
2.93133
2.92912
2.92695
2.92483
2.92277
2.92076
2.91882
2.91693
2.91512
2.91337
2.9117
2.91009
2.90855
2.90708
2.90567
2.90433
2.90305
2.90183
2.90067
2.89957
2.89852
2.89752
2.89657
2.89567
2.89341
2.89371
2.89403
2.89437
2.89472
2.89509
2.89548
2.89589
2.89632
2.89679
2.89728
2.8978
2.89835
2.89894
2.89958
2.90025
2.90097
2.90173
2.90254
2.90341
2.90433
2.90531
2.90635
2.90745
2.90861
2.90984
2.91113
2.91252
2.914
2.9156
2.91747
2.91957
2.92169
2.92382
2.92594
2.92806
2.93016
2.93225
2.93432
2.93637
2.93839
2.94039
2.94236
2.94429
2.94617
2.94799
2.94974
2.95142
2.95301
2.9545
2.95589
2.95715
2.95829
2.9593
2.96016
2.96086
2.9614
2.96175
2.96192
2.96189
2.96165
2.96119
2.9605
2.9596
2.95847
2.95713
2.95556
2.95374
2.95163
2.9492
2.94671
2.94435
2.94193
2.9395
2.93705
2.93462
2.93222
2.92984
2.92752
2.92524
2.92302
2.92086
2.91877
2.91675
2.9148
2.91292
2.91111
2.90937
2.90771
2.90612
2.9046
2.90315
2.90176
2.90044
2.89918
2.89798
2.89684
2.89575
2.89472
2.89375
2.89146
2.89178
2.89213
2.89248
2.89286
2.89326
2.89368
2.89412
2.89459
2.89508
2.89561
2.89616
2.89676
2.89739
2.89807
2.89879
2.89956
2.90038
2.90125
2.90218
2.90316
2.90421
2.90532
2.90649
2.90773
2.90904
2.91042
2.91189
2.91347
2.91518
2.91716
2.91939
2.92163
2.92389
2.92615
2.92839
2.93063
2.93284
2.93504
2.93721
2.93937
2.94149
2.94359
2.94565
2.94766
2.94961
2.9515
2.9533
2.95501
2.95662
2.95811
2.95948
2.96072
2.96182
2.96276
2.96354
2.96414
2.96455
2.96476
2.96475
2.96452
2.96406
2.96335
2.96241
2.96122
2.9598
2.95814
2.95621
2.95395
2.95136
2.9487
2.94617
2.94359
2.94098
2.93837
2.93576
2.93319
2.93065
2.92815
2.92571
2.92333
2.92102
2.91878
2.91661
2.91452
2.9125
2.91056
2.9087
2.90691
2.9052
2.90356
2.90199
2.90049
2.89907
2.8977
2.89641
2.89517
2.894
2.89288
2.89183
2.88951
2.88985
2.89022
2.8906
2.891
2.89143
2.89187
2.89235
2.89284
2.89337
2.89393
2.89453
2.89516
2.89584
2.89656
2.89733
2.89815
2.89902
2.89995
2.90093
2.90198
2.9031
2.90428
2.90553
2.90685
2.90824
2.9097
2.91126
2.91294
2.91474
2.91684
2.9192
2.92158
2.92397
2.92635
2.92873
2.93109
2.93343
2.93576
2.93806
2.94035
2.94261
2.94484
2.94703
2.94918
2.95126
2.95327
2.95521
2.95704
2.95877
2.96038
2.96187
2.96321
2.9644
2.96544
2.96629
2.96697
2.96744
2.96769
2.96772
2.96751
2.96704
2.96632
2.96534
2.9641
2.96261
2.96085
2.95879
2.9564
2.95364
2.95081
2.94811
2.94536
2.94257
2.93978
2.937
2.93424
2.93153
2.92886
2.92626
2.92371
2.92124
2.91885
2.91653
2.91429
2.91213
2.91005
2.90806
2.90614
2.9043
2.90254
2.90086
2.89925
2.89771
2.89624
2.89485
2.89351
2.89225
2.89104
2.88991
2.88755
2.88792
2.88831
2.88872
2.88915
2.8896
2.89007
2.89057
2.8911
2.89166
2.89226
2.89289
2.89356
2.89428
2.89504
2.89586
2.89672
2.89765
2.89864
2.89968
2.9008
2.90198
2.90323
2.90456
2.90595
2.90742
2.90897
2.91062
2.91239
2.9143
2.91651
2.919
2.92151
2.92403
2.92655
2.92906
2.93155
2.93402
2.93648
2.93892
2.94134
2.94373
2.9461
2.94843
2.95071
2.95293
2.95508
2.95715
2.95911
2.96097
2.9627
2.96431
2.96576
2.96706
2.96819
2.96914
2.96989
2.97042
2.97073
2.9708
2.97061
2.97015
2.96942
2.9684
2.96711
2.96554
2.96369
2.96152
2.95898
2.95605
2.95304
2.95018
2.94724
2.94428
2.9413
2.93834
2.9354
2.9325
2.92966
2.92688
2.92417
2.92153
2.91897
2.9165
2.91411
2.91181
2.90959
2.90745
2.9054
2.90344
2.90155
2.89975
2.89802
2.89637
2.8948
2.8933
2.89187
2.8905
2.88921
2.88799
2.8856
2.88599
2.8864
2.88683
2.88729
2.88776
2.88827
2.8888
2.88936
2.88995
2.89058
2.89125
2.89196
2.89271
2.89352
2.89438
2.8953
2.89627
2.89732
2.89842
2.8996
2.90085
2.90218
2.90358
2.90505
2.9066
2.90824
2.90997
2.91184
2.91384
2.91618
2.9188
2.92144
2.92409
2.92674
2.92938
2.932
2.93461
2.9372
2.93977
2.94233
2.94486
2.94737
2.94984
2.95227
2.95463
2.95692
2.95913
2.96123
2.96322
2.96508
2.96681
2.96839
2.9698
2.97103
2.97207
2.97291
2.97352
2.97388
2.97399
2.97383
2.97338
2.97264
2.9716
2.97025
2.96861
2.96667
2.96438
2.9617
2.9586
2.95542
2.95237
2.94926
2.94611
2.94294
2.93979
2.93666
2.93357
2.93055
2.92758
2.9247
2.92189
2.91917
2.91653
2.91399
2.91153
2.90916
2.90689
2.9047
2.9026
2.90059
2.89866
2.89681
2.89505
2.89336
2.89176
2.89022
2.88876
2.88738
2.88607
2.88365
2.88406
2.88449
2.88495
2.88543
2.88593
2.88646
2.88702
2.88761
2.88823
2.88889
2.8896
2.89035
2.89114
2.89199
2.8929
2.89386
2.89489
2.89599
2.89716
2.8984
2.89972
2.90111
2.90258
2.90414
2.90577
2.90749
2.90931
2.91127
2.91338
2.91583
2.91858
2.92136
2.92415
2.92693
2.9297
2.93245
2.93519
2.93792
2.94063
2.94333
2.946
2.94865
2.95127
2.95384
2.95635
2.95879
2.96114
2.96339
2.96552
2.96752
2.96938
2.97108
2.97261
2.97396
2.9751
2.97603
2.97672
2.97715
2.97731
2.97718
2.97675
2.976
2.97493
2.97354
2.97183
2.96979
2.96739
2.96457
2.9613
2.95793
2.95471
2.95141
2.94807
2.94471
2.94135
2.93803
2.93475
2.93153
2.92838
2.92531
2.92233
2.91943
2.91663
2.91392
2.9113
2.90879
2.90636
2.90403
2.90179
2.89965
2.89759
2.89562
2.89374
2.89194
2.89023
2.88859
2.88703
2.88555
2.88415
2.88169
2.88213
2.88258
2.88306
2.88357
2.88409
2.88465
2.88524
2.88586
2.88651
2.88721
2.88795
2.88873
2.88957
2.89046
2.89141
2.89242
2.8935
2.89466
2.89588
2.89719
2.89857
2.90004
2.90158
2.90321
2.90492
2.90673
2.90864
2.9107
2.91291
2.91548
2.91836
2.92127
2.92418
2.9271
2.93
2.93289
2.93577
2.93863
2.94148
2.94432
2.94714
2.94994
2.95271
2.95544
2.9581
2.96069
2.96319
2.96559
2.96787
2.97001
2.97201
2.97385
2.97551
2.97698
2.97823
2.97926
2.98003
2.98054
2.98076
2.98067
2.98025
2.97951
2.97841
2.97698
2.9752
2.97308
2.97056
2.96759
2.96415
2.9606
2.9572
2.95371
2.95017
2.94661
2.94306
2.93953
2.93605
2.93263
2.92928
2.92602
2.92285
2.91977
2.91679
2.91391
2.91113
2.90845
2.90588
2.9034
2.90102
2.89874
2.89655
2.89445
2.89245
2.89054
2.88871
2.88697
2.8853
2.88372
2.88223
2.87974
2.88019
2.88067
2.88117
2.8817
2.88225
2.88284
2.88345
2.8841
2.88479
2.88552
2.88629
2.88711
2.88799
2.88892
2.88991
2.89098
2.89211
2.89332
2.8946
2.89597
2.89742
2.89895
2.90057
2.90227
2.90407
2.90595
2.90796
2.91011
2.91242
2.9151
2.91812
2.92116
2.92421
2.92726
2.93029
2.93332
2.93633
2.93934
2.94233
2.94532
2.94829
2.95124
2.95417
2.95705
2.95987
2.96262
2.96529
2.96784
2.97027
2.97257
2.97472
2.9767
2.9785
2.98009
2.98146
2.9826
2.98347
2.98405
2.98433
2.98429
2.9839
2.98316
2.98205
2.98057
2.97873
2.97652
2.97389
2.97078
2.96717
2.96344
2.95985
2.95617
2.95243
2.94866
2.9449
2.94116
2.93747
2.93385
2.9303
2.92684
2.92347
2.9202
2.91703
2.91397
2.91102
2.90817
2.90544
2.9028
2.90027
2.89785
2.89553
2.8933
2.89117
2.88914
2.8872
2.88535
2.88358
2.8819
2.88031
2.87778
2.87826
2.87876
2.87928
2.87983
2.88041
2.88102
2.88167
2.88234
2.88306
2.88382
2.88463
2.88549
2.8864
2.88737
2.88842
2.88952
2.89071
2.89197
2.89331
2.89474
2.89625
2.89786
2.89955
2.90133
2.9032
2.90517
2.90726
2.9095
2.91191
2.91472
2.91786
2.92103
2.92422
2.9274
2.93057
2.93373
2.93689
2.94003
2.94318
2.94631
2.94944
2.95255
2.95564
2.95868
2.96167
2.96459
2.96742
2.97014
2.97273
2.97519
2.9775
2.97963
2.98157
2.9833
2.9848
2.98604
2.98702
2.98769
2.98804
2.98805
2.98769
2.98696
2.98584
2.98433
2.98244
2.98014
2.9774
2.97415
2.97036
2.96644
2.96267
2.95879
2.95484
2.95087
2.94689
2.94294
2.93904
2.93519
2.93143
2.92776
2.92419
2.92072
2.91736
2.91411
2.91097
2.90795
2.90504
2.90225
2.89956
2.89699
2.89453
2.89217
2.88991
2.88776
2.8857
2.88373
2.88186
2.88008
2.8784
2.87582
2.87632
2.87684
2.87739
2.87796
2.87857
2.8792
2.87987
2.88058
2.88133
2.88212
2.88296
2.88386
2.88481
2.88582
2.88691
2.88807
2.8893
2.89061
2.89201
2.8935
2.89508
2.89675
2.89851
2.90036
2.90231
2.90437
2.90654
2.90888
2.91139
2.91431
2.91758
2.92089
2.9242
2.92752
2.93083
2.93413
2.93743
2.94072
2.94401
2.9473
2.95059
2.95386
2.95712
2.96033
2.9635
2.96659
2.96959
2.97249
2.97525
2.97788
2.98035
2.98264
2.98473
2.98661
2.98824
2.98961
2.99069
2.99146
2.99189
2.99196
2.99164
2.99093
2.9898
2.98827
2.98632
2.98394
2.98109
2.9777
2.97374
2.96963
2.96567
2.96159
2.95743
2.95324
2.94904
2.94487
2.94074
2.93668
2.9327
2.9288
2.92501
2.92133
2.91777
2.91432
2.91099
2.90778
2.9047
2.90174
2.89889
2.89616
2.89355
2.89105
2.88867
2.88638
2.8842
2.88213
2.88015
2.87826
2.87648
2.87386
2.87438
2.87493
2.8755
2.87609
2.87672
2.87738
2.87808
2.87881
2.87959
2.88041
2.88129
2.88222
2.88321
2.88427
2.8854
2.8866
2.88788
2.88925
2.89071
2.89225
2.89389
2.89563
2.89746
2.89939
2.90141
2.90355
2.90581
2.90824
2.91084
2.91388
2.91728
2.92072
2.92417
2.92762
2.93107
2.93451
2.93795
2.94139
2.94484
2.94829
2.95174
2.95518
2.95861
2.962
2.96535
2.96862
2.97181
2.97488
2.97783
2.98064
2.98328
2.98574
2.98799
2.99001
2.99179
2.99329
2.99449
2.99536
2.99588
2.99602
2.99575
2.99507
2.99395
2.99239
2.99039
2.98793
2.98497
2.98145
2.97731
2.97301
2.96886
2.96457
2.9602
2.95579
2.95137
2.94696
2.9426
2.93831
2.93409
2.92997
2.92596
2.92206
2.91828
2.91462
2.91109
2.90769
2.90442
2.90127
2.89826
2.89537
2.89261
2.88996
2.88744
2.88502
2.88272
2.88052
2.87843
2.87645
2.87457
2.8719
2.87244
2.87301
2.8736
2.87422
2.87487
2.87556
2.87628
2.87704
2.87785
2.8787
2.87961
2.88058
2.88161
2.88271
2.88388
2.88513
2.88646
2.88788
2.88939
2.89099
2.8927
2.8945
2.8964
2.8984
2.9005
2.90271
2.90506
2.90757
2.91028
2.91342
2.91696
2.92053
2.92411
2.9277
2.93128
2.93487
2.93846
2.94205
2.94565
2.94927
2.95289
2.9565
2.96011
2.96369
2.96722
2.97068
2.97406
2.97733
2.98047
2.98346
2.98628
2.98891
2.99134
2.99352
2.99545
2.9971
2.99843
2.99941
3.00003
3.00025
3.00004
2.99939
2.99828
2.9967
2.99466
2.99213
2.98907
2.9854
2.98109
2.9766
2.97225
2.96775
2.96316
2.95852
2.95386
2.94922
2.94462
2.94009
2.93563
2.93128
2.92703
2.9229
2.91889
2.91502
2.91127
2.90767
2.9042
2.90087
2.89768
2.89462
2.89169
2.8889
2.88623
2.88368
2.88125
2.87893
2.87673
2.87463
2.87266
2.86994
2.8705
2.87108
2.8717
2.87234
2.87302
2.87373
2.87448
2.87527
2.8761
2.87699
2.87793
2.87893
2.88
2.88114
2.88235
2.88365
2.88503
2.8865
2.88806
2.88972
2.89148
2.89335
2.89532
2.89739
2.89956
2.90185
2.90428
2.90688
2.90968
2.91294
2.9166
2.9203
2.92402
2.92774
2.93147
2.9352
2.93894
2.94269
2.94646
2.95024
2.95403
2.95783
2.96162
2.96539
2.96911
2.97277
2.97635
2.97982
2.98316
2.98635
2.98936
2.99218
2.99478
2.99714
2.99923
3.00103
3.0025
3.00362
3.00434
3.00465
3.00451
3.00391
3.00282
3.00123
2.99915
2.99655
2.99339
2.98958
2.98509
2.9804
2.97584
2.97113
2.96631
2.96144
2.95654
2.95165
2.94681
2.94202
2.93732
2.93272
2.92823
2.92386
2.91962
2.91551
2.91155
2.90773
2.90406
2.90053
2.89715
2.89392
2.89082
2.88787
2.88505
2.88236
2.87979
2.87735
2.87503
2.87283
2.87074
2.86798
2.86856
2.86916
2.8698
2.87046
2.87116
2.87189
2.87267
2.87349
2.87435
2.87527
2.87624
2.87728
2.87838
2.87956
2.88082
2.88216
2.88358
2.8851
2.88672
2.88844
2.89026
2.89219
2.89422
2.89636
2.89861
2.90097
2.90348
2.90617
2.90906
2.91243
2.91622
2.92005
2.9239
2.92776
2.93163
2.93551
2.9394
2.94331
2.94724
2.95119
2.95516
2.95915
2.96313
2.9671
2.97102
2.97489
2.97868
2.98236
2.98591
2.9893
2.99251
2.99553
2.99832
3.00087
3.00314
3.00511
3.00673
3.00798
3.00883
3.00924
3.00919
3.00864
3.00758
3.00599
3.00388
3.00122
2.99795
2.994
2.98933
2.98443
2.97967
2.97473
2.96967
2.96455
2.95941
2.95427
2.94916
2.94413
2.93917
2.93431
2.92957
2.92495
2.92046
2.91612
2.91193
2.90789
2.904
2.90027
2.8967
2.89327
2.89
2.88688
2.8839
2.88106
2.87836
2.87579
2.87334
2.87103
2.86883
2.86602
2.86661
2.86724
2.86789
2.86858
2.8693
2.87006
2.87086
2.8717
2.8726
2.87354
2.87455
2.87562
2.87676
2.87798
2.87927
2.88066
2.88213
2.8837
2.88537
2.88714
2.88902
2.89101
2.89311
2.89531
2.89763
2.90007
2.90265
2.90543
2.90841
2.91189
2.9158
2.91976
2.92375
2.92775
2.93176
2.93579
2.93984
2.94391
2.94801
2.95213
2.95629
2.96046
2.96465
2.96881
2.97295
2.97703
2.98103
2.98494
2.98871
2.99232
2.99574
2.99897
3.00197
3.00471
3.00718
3.00933
3.01112
3.01253
3.01352
3.01405
3.01409
3.01361
3.01259
3.01101
3.00887
3.00614
3.00277
2.99868
2.99382
2.9887
2.98373
2.97856
2.97326
2.96788
2.96248
2.95707
2.95171
2.9464
2.94117
2.93605
2.93105
2.92617
2.92143
2.91685
2.91242
2.90815
2.90404
2.90009
2.89631
2.8927
2.88924
2.88595
2.8828
2.87981
2.87696
2.87425
2.87167
2.86923
2.86692
2.86406
2.86467
2.86531
2.86599
2.86669
2.86743
2.86822
2.86904
2.86991
2.87083
2.87181
2.87285
2.87395
2.87513
2.87638
2.87772
2.87914
2.88066
2.88228
2.884
2.88583
2.88776
2.88981
2.89197
2.89424
2.89663
2.89913
2.9018
2.90465
2.90773
2.91131
2.91535
2.91944
2.92356
2.9277
2.93186
2.93604
2.94024
2.94448
2.94875
2.95306
2.9574
2.96177
2.96615
2.97053
2.97489
2.97919
2.98342
2.98755
2.99156
2.99539
2.99905
3.0025
3.00572
3.00868
3.01136
3.0137
3.01569
3.01727
3.01842
3.01908
3.01923
3.01883
3.01786
3.01629
3.01413
3.01134
3.00787
3.00363
2.99858
2.99324
2.98804
2.98263
2.97708
2.97144
2.96576
2.96009
2.95444
2.94885
2.94335
2.93795
2.93268
2.92753
2.92254
2.9177
2.91302
2.90851
2.90418
2.90001
2.89602
2.8922
2.88855
2.88507
2.88176
2.8786
2.8756
2.87274
2.87003
2.86745
2.86502
2.86209
2.86272
2.86338
2.86408
2.8648
2.86557
2.86637
2.86722
2.86812
2.86907
2.87007
2.87114
2.87228
2.87349
2.87478
2.87615
2.87762
2.87918
2.88084
2.88261
2.88449
2.88649
2.88859
2.89081
2.89315
2.8956
2.89817
2.90091
2.90384
2.90701
2.9107
2.91486
2.91908
2.92334
2.92762
2.93192
2.93625
2.94061
2.94502
2.94946
2.95395
2.95849
2.96306
2.96765
2.97225
2.97683
2.98136
2.98583
2.9902
2.99445
2.99853
3.00243
3.00612
3.00958
3.01278
3.01568
3.01825
3.02045
3.02222
3.02354
3.02436
3.02463
3.02432
3.02341
3.02187
3.01969
3.01684
3.01327
3.00889
3.00364
2.99807
2.99264
2.98698
2.98116
2.97525
2.96929
2.96332
2.95738
2.9515
2.94571
2.94003
2.93447
2.92905
2.92378
2.91868
2.91375
2.909
2.90443
2.90003
2.89582
2.8918
2.88795
2.88428
2.88078
2.87745
2.87428
2.87126
2.8684
2.86569
2.86312
2.86013
2.86077
2.86145
2.86217
2.86291
2.8637
2.86453
2.8654
2.86632
2.8673
2.86833
2.86943
2.87059
2.87184
2.87316
2.87457
2.87608
2.87768
2.87939
2.88121
2.88314
2.88519
2.88735
2.88963
2.89202
2.89453
2.89718
2.89998
2.90299
2.90625
2.91004
2.91433
2.91868
2.92307
2.92749
2.93194
2.93642
2.94095
2.94552
2.95014
2.95482
2.95955
2.96433
2.96914
2.97396
2.97877
2.98354
2.98825
2.99288
2.99738
3.00173
3.00588
3.00984
3.01356
3.01702
3.02017
3.02298
3.02541
3.0274
3.02891
3.02989
3.0303
3.03011
3.02926
3.02775
3.02556
3.02266
3.01899
3.01446
3.00901
3.00321
2.99754
2.99161
2.98552
2.97932
2.97306
2.96679
2.96055
2.95436
2.94827
2.94228
2.93643
2.93073
2.92518
2.91981
2.91462
2.90962
2.9048
2.90017
2.89573
2.89149
2.88743
2.88356
2.87987
2.87635
2.87301
2.86983
2.86681
2.86394
2.86123
2.85816
2.85882
2.85952
2.86025
2.86102
2.86183
2.86268
2.86357
2.86452
2.86552
2.86658
2.8677
2.8689
2.87017
2.87153
2.87298
2.87453
2.87617
2.87793
2.87979
2.88177
2.88387
2.88608
2.88842
2.89087
2.89344
2.89614
2.89902
2.90211
2.90545
2.90935
2.91375
2.91823
2.92275
2.92732
2.93192
2.93655
2.94124
2.94598
2.95078
2.95565
2.96058
2.96557
2.9706
2.97565
2.9807
2.98573
2.99069
2.99558
3.00036
3.00498
3.00942
3.01365
3.01766
3.02139
3.02482
3.0279
3.03058
3.0328
3.03453
3.0357
3.03627
3.03619
3.03543
3.03396
3.03177
3.02882
3.02505
3.02037
3.01471
3.00868
3.00276
2.99657
2.99018
2.98368
2.97711
2.97052
2.96395
2.95745
2.95104
2.94474
2.93858
2.93258
2.92675
2.9211
2.91564
2.91037
2.9053
2.90043
2.89576
2.89128
2.88701
2.88293
2.87904
2.87533
2.8718
2.86844
2.86524
2.86221
2.85934
2.85619
2.85687
2.85759
2.85834
2.85913
2.85995
2.86082
2.86174
2.86271
2.86373
2.86482
2.86597
2.8672
2.8685
2.86989
2.87138
2.87296
2.87464
2.87644
2.87835
2.88037
2.88252
2.88479
2.88717
2.88968
2.89231
2.89507
2.89802
2.90118
2.9046
2.9086
2.91313
2.91773
2.92239
2.92709
2.93184
2.93663
2.94148
2.94639
2.95138
2.95644
2.96158
2.96678
2.97204
2.97733
2.98263
2.98791
2.99314
2.99831
3.00337
3.00829
3.01303
3.01757
3.02188
3.02592
3.02965
3.03302
3.03597
3.03845
3.04041
3.04179
3.04253
3.0426
3.04193
3.04051
3.03833
3.03534
3.03147
3.02665
3.02078
3.0145
3.00832
3.00185
2.99517
2.98835
2.98145
2.97453
2.96762
2.96078
2.95404
2.94741
2.94094
2.93463
2.92849
2.92255
2.91681
2.91127
2.90594
2.90081
2.8959
2.89119
2.88669
2.88239
2.87828
2.87437
2.87064
2.86709
2.86371
2.8605
2.85746
2.85422
2.85492
2.85565
2.85642
2.85723
2.85807
2.85896
2.8599
2.86089
2.86194
2.86305
2.86423
2.86548
2.86681
2.86824
2.86975
2.87137
2.87309
2.87493
2.87688
2.87895
2.88114
2.88346
2.8859
2.88845
2.89114
2.89396
2.89697
2.90021
2.90371
2.90781
2.91246
2.91718
2.92197
2.92682
2.93171
2.93665
2.94167
2.94675
2.95192
2.95718
2.96253
2.96795
2.97344
2.97898
2.98453
2.99009
2.9956
3.00106
3.00643
3.01166
3.01672
3.02158
3.02623
3.0306
3.03465
3.03833
3.04158
3.04434
3.04656
3.04817
3.04911
3.04932
3.04877
3.04742
3.04525
3.04222
3.03827
3.0333
3.02722
3.02069
3.01426
3.00749
3.0005
2.99335
2.98611
2.97884
2.97158
2.96439
2.9573
2.95033
2.94352
2.93688
2.93043
2.92419
2.91815
2.91232
2.90672
2.90133
2.89616
2.89121
2.88647
2.88194
2.87761
2.87348
2.86954
2.86579
2.86221
2.85881
2.85559
2.85225
2.85296
2.85372
2.8545
2.85533
2.85619
2.8571
2.85806
2.85907
2.86014
2.86127
2.86248
2.86375
2.86512
2.86657
2.86811
2.86977
2.87152
2.8734
2.87539
2.8775
2.87974
2.8821
2.88458
2.88719
2.88993
2.89281
2.89588
2.89919
2.90277
2.90697
2.91173
2.91658
2.9215
2.92648
2.93151
2.93662
2.94179
2.94705
2.95241
2.95787
2.96342
2.96907
2.9748
2.98059
2.98642
2.99226
2.99807
3.00383
3.00952
3.01508
3.02048
3.0257
3.0307
3.03542
3.03982
3.04384
3.04741
3.05048
3.05298
3.05483
3.05599
3.05638
3.05596
3.05469
3.05255
3.04949
3.04546
3.04034
3.03406
3.02728
3.02057
3.01351
3.00619
2.9987
2.9911
2.98347
2.97585
2.96829
2.96084
2.95351
2.94635
2.93937
2.93259
2.92602
2.91967
2.91355
2.90765
2.90198
2.89655
2.89133
2.88634
2.88157
2.87701
2.87265
2.86849
2.86451
2.86073
2.85713
2.85372
2.85028
2.85101
2.85178
2.85258
2.85342
2.8543
2.85523
2.85621
2.85724
2.85833
2.85949
2.86071
2.86201
2.8634
2.86488
2.86646
2.86814