/*--------------------------------*- C++ -*----------------------------------*\
  =========                 |
  \\      /  F ield         | OpenFOAM: The Open Source CFD Toolbox
   \\    /   O peration     | Website:  https://openfoam.org
    \\  /    A nd           | Version:  9
     \\/     M anipulation  |
\*---------------------------------------------------------------------------*/
FoamFile
{
    format      ascii;
    class       volScalarField;
    location    "0.15";
    object      p_rgh;
}
// * * * * * * * * * * * * * * * * * * * * * * * * * * * * * * * * * * * * * //

dimensions      [1 -1 -2 0 0 0 0];

internalField   nonuniform List<scalar> 
20000
(
-2.28706e-05
-4.49768e-05
-6.02053e-05
-7.19524e-05
-8.12599e-05
-8.95206e-05
-9.9045e-05
-0.000117297
-0.0001552
-0.00022795
-0.000353495
-0.000548742
-0.000824461
-0.00118071
-0.00160471
-0.00207191
-0.00254964
-0.00300125
-0.00338926
-0.00367704
-0.00382947
-0.00381502
-0.00361312
-0.00323207
-0.00273497
-0.0022453
-0.00189706
-0.00178643
-0.00194084
-0.00223629
-0.00243046
-0.00224148
-0.00167686
-0.000893601
-6.00148e-05
0.000695972
0.00131
0.00177549
0.00211891
0.00237721
0.00258268
0.00275471
0.0029018
0.00302943
0.00314888
0.00321797
0.00327865
0.00331447
0.00332285
0.0033096
0.00328829
0.00327838
0.00329767
0.00335267
0.00343464
0.00352484
0.00360422
0.00365833
0.00367736
0.00365267
0.00356676
0.00338507
0.00303375
0.0023875
0.00136674
0.00031792
0.000233498
0.00137046
0.00254853
0.00303386
0.00298159
0.00274982
0.00245048
0.00213213
0.00181587
0.00151242
0.00122802
0.000966537
0.000730345
0.000520733
0.000338183
0.000182545
5.31529e-05
-5.10817e-05
-0.000131609
-0.00019019
-0.000228852
-0.000249868
-0.000255743
-0.000249205
-0.000233191
-0.000210814
-0.000185292
-0.000159797
-0.000137138
-0.000119295
-0.000106892
-9.83838e-05
-9.04505e-05
-6.66608e-05
-1.49074e-05
-2.68553e-05
-3.46836e-05
-3.79052e-05
-3.7234e-05
-3.50299e-05
-2.14043e-05
-1.13932e-05
-8.82421e-06
-2.02574e-05
-5.44492e-05
-0.000120736
-0.000226905
-0.000376709
-0.000567759
-0.000790525
-0.00102876
-0.00126116
-0.00146375
-0.00161258
-0.00168686
-0.00167251
-0.00156616
-0.00137704
-0.00112353
-0.000821759
-0.000479808
-0.000130036
0.00013804
0.000285553
0.00042041
0.0007242
0.00124172
0.00191721
0.00266269
0.00340156
0.00408471
0.00468999
0.0052159
0.00567442
0.00608019
0.0064417
0.00676237
0.0070485
0.00734527
0.00751023
0.00770297
0.00787096
0.00801324
0.00813635
0.00824966
0.00836432
0.00848871
0.00862232
0.00875523
0.00887244
0.00895888
0.00900208
0.00899152
0.00891487
0.00875283
0.00847519
0.0080418
0.00742589
0.00667824
0.00604316
0.00599573
0.00658267
0.00711928
0.00721805
0.00697922
0.00661975
0.006192
0.00573614
0.00527416
0.00481917
0.00437953
0.00396065
0.00356603
0.0031977
0.00285665
0.00254298
0.00225614
0.00199505
0.00175825
0.00154392
0.00135002
0.00117434
0.00101462
0.000868575
0.000734098
0.000609348
0.000492929
0.00038407
0.000282844
0.000190381
0.000108991
4.19883e-05
-8.85807e-06
-3.56529e-05
1.00165e-05
2.84264e-05
4.4813e-05
6.42494e-05
8.72596e-05
0.000113386
0.000129638
0.000145432
0.000157151
0.00015981
0.000148268
0.000117681
6.4478e-05
-1.24592e-05
-0.000110817
-0.000224338
-0.000342898
-0.000453168
-0.000539734
-0.000586566
-0.000578756
-0.000504404
-0.000356437
-0.000134596
0.000151411
0.000481604
0.000838891
0.00120736
0.00154251
0.00182803
0.0021501
0.00260863
0.00321647
0.00393879
0.00471751
0.00549706
0.00623873
0.00692265
0.00754368
0.00810675
0.00862028
0.00908983
0.0095167
0.00989294
0.0101884
0.0105779
0.0109014
0.0111779
0.0114215
0.0116405
0.0118418
0.0120327
0.0122172
0.0123938
0.012555
0.0126887
0.0127819
0.0128231
0.0128018
0.0127054
0.0125187
0.0122222
0.0118
0.0112584
0.0106453
0.0100946
0.00990128
0.0101166
0.0102779
0.010129
0.00975184
0.00929359
0.00876902
0.00821197
0.00764378
0.00707865
0.00652632
0.00599342
0.00548436
0.00500194
0.00454768
0.00412208
0.0037249
0.00335532
0.00301207
0.00269358
0.00239806
0.00212369
0.00186867
0.00163134
0.00141026
0.00120431
0.00101269
0.00083488
0.000670623
0.000519753
0.000382239
0.000258663
0.000147786
4.08379e-05
2.25807e-05
6.47536e-05
0.000105686
0.00014883
0.000193227
0.000238341
0.000281636
0.000322782
0.000358913
0.000387217
0.000404724
0.000408778
0.000397859
0.000372387
0.00033529
0.000292207
0.000251304
0.000222812
0.000218396
0.000250474
0.000331487
0.000472974
0.000684296
0.000970017
0.00132361
0.00172
0.00212716
0.00252521
0.00289734
0.0032586
0.00369957
0.00428754
0.00499969
0.00580181
0.00664803
0.00749323
0.00830538
0.00906828
0.00977751
0.0104358
0.0110485
0.0116194
0.0121501
0.0126424
0.013086
0.0135399
0.0139504
0.014321
0.014657
0.0149632
0.0152447
0.0155055
0.0157471
0.0159671
0.0161596
0.0163137
0.0164183
0.016463
0.0164377
0.016331
0.0161317
0.0158278
0.0154135
0.014903
0.0143385
0.0138035
0.0134945
0.0134544
0.0133454
0.0129903
0.0124663
0.0118895
0.0112531
0.0105859
0.00990698
0.00923004
0.00856505
0.00791918
0.00729746
0.00670323
0.0061385
0.0056042
0.00510045
0.00462674
0.00418206
0.0037651
0.00337437
0.00300828
0.00266534
0.0023441
0.00204329
0.00176176
0.00149846
0.00125241
0.00102264
0.000808045
0.000607461
0.000420359
0.000246735
8.035e-05
2.91851e-05
8.74416e-05
0.000146903
0.000208969
0.000272836
0.000338167
0.000404793
0.000471389
0.000536605
0.000599189
0.000657803
0.0007113
0.000759139
0.000801853
0.000841531
0.000882126
0.000929529
0.000991373
0.00107664
0.00119513
0.00135679
0.00157069
0.00184371
0.00217876
0.00257168
0.00300598
0.00345948
0.00392087
0.00438358
0.00486163
0.00543662
0.00615322
0.0069661
0.00784778
0.00876466
0.00968172
0.0105733
0.0114255
0.0122334
0.0129974
0.0137204
0.0144051
0.0150527
0.0156682
0.016253
0.0167977
0.0173005
0.0177695
0.0182029
0.0186011
0.0189671
0.0193024
0.0196064
0.0198764
0.0201065
0.0202872
0.0204091
0.0204623
0.0204374
0.0203248
0.0201161
0.0198046
0.0193893
0.0188858
0.0183327
0.0177829
0.017354
0.017072
0.0167134
0.0161586
0.0154802
0.0147728
0.0140107
0.0132195
0.0124163
0.0116146
0.0108245
0.0100536
0.00930748
0.00859001
0.00790368
0.0072499
0.00662918
0.00604133
0.00548562
0.00496096
0.00446603
0.00399938
0.00355956
0.00314514
0.00275473
0.002387
0.00204063
0.00171433
0.00140689
0.00111707
0.000843584
0.000585704
0.000343558
0.00011375
3.57545e-05
0.000111417
0.000190631
0.000273065
0.000358601
0.000447288
0.000538975
0.000633448
0.000730533
0.000830082
0.000931984
0.00103626
0.00114322
0.00125365
0.00136917
0.00149247
0.00162753
0.00177961
0.00195512
0.00216115
0.00240487
0.00269259
0.0030286
0.00341423
0.00384754
0.00432143
0.00482731
0.0053651
0.0059339
0.00654014
0.00725632
0.00810497
0.00902231
0.00998945
0.010984
0.0119802
0.0129583
0.0139063
0.0148184
0.015693
0.0165312
0.017334
0.0181019
0.0188355
0.0195362
0.0201977
0.0208112
0.0213873
0.0219225
0.0224157
0.0228687
0.0232813
0.0236512
0.0239753
0.0242473
0.0244593
0.0246029
0.0246685
0.0246474
0.0245318
0.0243153
0.0239943
0.0235707
0.023059
0.0224916
0.0218997
0.0213483
0.0208476
0.0202622
0.0195106
0.0186702
0.0178237
0.016927
0.0160023
0.0150655
0.0141299
0.0132058
0.0123013
0.0114223
0.0105734
0.00975756
0.00897659
0.00823144
0.00752221
0.00684845
0.00620926
0.00560347
0.00502973
0.00448663
0.00397273
0.00348662
0.00302691
0.0025922
0.00218117
0.00179254
0.00142506
0.00107743
0.000748774
0.00043901
0.00014516
4.4841e-05
0.000141122
0.000243065
0.000349451
0.000460386
0.000576182
0.00069697
0.000822968
0.000954477
0.0010919
0.00123575
0.00138673
0.00154574
0.00171403
0.00189333
0.00208601
0.00229517
0.00252469
0.00277914
0.00306372
0.0033835
0.00374317
0.00414607
0.00459358
0.00508533
0.00561859
0.00619079
0.00680706
0.00747089
0.008188
0.009031
0.0100072
0.0110343
0.0120977
0.0131818
0.0142672
0.0153386
0.0163859
0.0174032
0.0183881
0.0193399
0.0202586
0.0211435
0.0219923
0.0228026
0.0235779
0.0243065
0.0249912
0.0256281
0.0262161
0.0267558
0.0272456
0.0276828
0.0280626
0.0283793
0.0286259
0.0287941
0.0288749
0.0288604
0.0287439
0.0285201
0.0281868
0.0277474
0.0272138
0.0266119
0.0259607
0.0252963
0.0246196
0.023839
0.0228995
0.0218933
0.020902
0.0198651
0.018802
0.0177273
0.0166541
0.0155928
0.0145518
0.0135375
0.0125548
0.0116072
0.0106969
0.00982523
0.00899264
0.00819892
0.00744341
0.00672513
0.00604289
0.00539538
0.00478125
0.00419914
0.00364765
0.00312537
0.00263092
0.00216292
0.00172
0.00130074
0.000904121
0.000529829
0.000174853
5.50905e-05
0.000173872
0.00030013
0.000432004
0.000569898
0.00071437
0.000865765
0.00102453
0.00119124
0.00136658
0.00155139
0.00174668
0.00195366
0.0021739
0.00240927
0.00266209
0.00293513
0.00323168
0.00355545
0.0039105
0.00430096
0.00473076
0.00520307
0.00571965
0.00628092
0.00688555
0.0075326
0.00822849
0.00897958
0.00979419
0.0107509
0.0118491
0.0129891
0.0141572
0.0153409
0.0165243
0.0176953
0.0188453
0.0199691
0.0210638
0.0221282
0.023161
0.0241607
0.0251245
0.0260482
0.0269326
0.0277717
0.0285617
0.0292992
0.0299813
0.0306071
0.0311741
0.031679
0.0321162
0.0324803
0.0327643
0.0329597
0.0330584
0.0330528
0.0329368
0.0327056
0.0323577
0.0318962
0.0313306
0.0306817
0.0299627
0.0291941
0.0283705
0.0274196
0.0263029
0.0251319
0.0239935
0.0228131
0.0216082
0.020393
0.0191803
0.0179805
0.0168019
0.0156513
0.0145341
0.0134541
0.0124139
0.0114152
0.0104586
0.0095443
0.00867195
0.00784078
0.00704981
0.00629788
0.00558372
0.00490597
0.00426323
0.00365403
0.00307686
0.00253019
0.0020125
0.0015222
0.00105812
0.000619842
0.00020423
6.5769e-05
0.000207394
0.000357896
0.000515216
0.00068
0.000853025
0.00103483
0.0012261
0.00142763
0.00164041
0.00186552
0.00210424
0.00235802
0.00262854
0.00291773
0.00322782
0.00356137
0.00392126
0.00431073
0.00473329
0.00519255
0.00569197
0.0062345
0.00682196
0.0074551
0.00813353
0.00885762
0.00963489
0.0104736
0.011384
0.0124516
0.0136706
0.0149259
0.016204
0.0174935
0.0187811
0.0200567
0.0213132
0.0225459
0.0237519
0.0249296
0.026077
0.027192
0.0282714
0.0293108
0.0303062
0.0312535
0.0321476
0.0329852
0.0337615
0.0344739
0.0351193
0.035693
0.0361898
0.0366039
0.0369278
0.0371533
0.0372724
0.0372781
0.0371641
0.0369258
0.0365618
0.0360745
0.035471
0.0347683
0.0339761
0.0331053
0.0321456
0.0310368
0.0297504
0.028417
0.0271309
0.0258048
0.0244557
0.0230977
0.0217433
0.020403
0.0190852
0.017797
0.016544
0.0153303
0.0141588
0.0130315
0.0119494
0.0109131
0.00992236
0.00897685
0.00807574
0.00721801
0.00640245
0.00562771
0.00489234
0.00419475
0.00353333
0.00290643
0.00231233
0.00174931
0.00121609
0.000712174
0.000234366
7.66676e-05
0.000241248
0.00041585
0.000598509
0.000790052
0.000991458
0.00120346
0.00142695
0.00166298
0.00191274
0.00217759
0.00245906
0.00275881
0.00307868
0.00342063
0.0037868
0.00417954
0.00460145
0.0050554
0.00554446
0.00607182
0.00664055
0.00725333
0.00791191
0.00861729
0.0093701
0.0101724
0.0110331
0.011962
0.0129701
0.0141502
0.0154914
0.0168644
0.0182559
0.0196557
0.021052
0.0224365
0.023803
0.0251475
0.0264672
0.0277601
0.0290238
0.0302556
0.0314514
0.0326066
0.0337156
0.0347723
0.0357722
0.0367108
0.0375822
0.0383827
0.039108
0.0397527
0.0403117
0.0407785
0.0411451
0.0414036
0.0415461
0.0415653
0.0414548
0.04121
0.040829
0.0403136
0.0396686
0.0389078
0.0380389
0.0370661
0.0359751
0.0347146
0.0332623
0.0317671
0.0303324
0.0288585
0.0273626
0.0258592
0.0243606
0.0228774
0.0214182
0.0199904
0.0185995
0.0172501
0.0159452
0.0146871
0.0134774
0.0123167
0.0112054
0.0101433
0.00912974
0.00816392
0.00724466
0.0063706
0.00554023
0.0047519
0.00400389
0.0032944
0.00262161
0.00198365
0.00137912
0.000807454
0.000265518
8.76392e-05
0.000275309
0.000474085
0.000682162
0.000900537
0.00113038
0.00137258
0.00162819
0.00189847
0.00218482
0.00248883
0.00281223
0.0031569
0.00352481
0.00391798
0.00433855
0.00478876
0.005271
0.00578786
0.00634211
0.00693663
0.00757422
0.00825737
0.00898785
0.00976684
0.0105958
0.011478
0.0124237
0.0134441
0.0145508
0.0158442
0.017309
0.0188019
0.02031
0.0218238
0.0233328
0.02483
0.02631
0.0277692
0.029205
0.030615
0.0319967
0.0333468
0.0346602
0.0359317
0.037155
0.0383233
0.0394309
0.0404722
0.0414407
0.0423309
0.043138
0.0438563
0.0444803
0.0450025
0.045415
0.0457097
0.0458785
0.0459136
0.0458084
0.045558
0.0451598
0.0446147
0.0439259
0.0431045
0.042157
0.0410834
0.0398655
0.0384579
0.0368416
0.035184
0.033599
0.0319749
0.0303297
0.0286781
0.0270327
0.0254041
0.0238012
0.0222315
0.0207006
0.0192132
0.0177727
0.0163818
0.0150421
0.013755
0.0125209
0.0113399
0.0102118
0.00913562
0.0081104
0.00713475
0.00620712
0.00532576
0.00448886
0.00369451
0.00294073
0.00222554
0.00154746
0.000905872
0.000297787
9.84504e-05
0.000309157
0.000532113
0.000765582
0.00101074
0.00126893
0.00154119
0.00182873
0.00213293
0.00245541
0.00279795
0.00316248
0.00355103
0.00396567
0.00440854
0.00488178
0.00538762
0.00592836
0.00650647
0.00712454
0.0077853
0.0084914
0.00924527
0.0100487
0.0109029
0.0118097
0.0127734
0.0138051
0.0149174
0.0161225
0.0175293
0.0191186
0.0207335
0.0223613
0.0239926
0.0256179
0.0272311
0.0288275
0.0304041
0.031958
0.0334871
0.0349884
0.0364581
0.0378906
0.0392796
0.0406184
0.0418997
0.0431166
0.0442627
0.0453302
0.0463124
0.0472037
0.0479986
0.0486904
0.0492712
0.0497331
0.0500675
0.0502657
0.0503195
0.0502218
0.0499673
0.0495525
0.0489773
0.0482435
0.0473603
0.0463334
0.0451601
0.0438192
0.0422678
0.0404888
0.038668
0.0369309
0.0351543
0.0333573
0.0315547
0.0297597
0.0279832
0.0262342
0.0245201
0.0228468
0.0212193
0.0196411
0.0181152
0.0166437
0.015228
0.0138692
0.0125675
0.0113227
0.0101342
0.00900087
0.00792145
0.00689429
0.00591758
0.0049894
0.00410774
0.00327053
0.00247563
0.00172153
0.00100765
0.000331213
0.000108933
0.000342443
0.000589461
0.000848213
0.00112
0.00140633
0.00170835
0.00202741
0.0023651
0.0027232
0.00310365
0.00350856
0.00394007
0.00440039
0.00489175
0.00541635
0.00597646
0.00657437
0.00721252
0.00789345
0.00861983
0.00939426
0.0102191
0.0110961
0.0120265
0.0130124
0.0140585
0.0151769
0.0163814
0.0176851
0.0192055
0.0209203
0.0226591
0.0244092
0.0261611
0.027906
0.0296382
0.0313537
0.0330498
0.0347241
0.036374
0.0379965
0.0395873
0.0411405
0.042649
0.044105
0.045501
0.0468291
0.0480818
0.0492506
0.0503276
0.0513065
0.0521811
0.052944
0.0535872
0.0541025
0.0544805
0.0547117
0.0547874
0.0547001
0.0544438
0.0540138
0.0534091
0.0526303
0.0516849
0.0505784
0.0493063
0.0478444
0.0461513
0.0442101
0.0422254
0.0403345
0.0384031
0.0364513
0.0344948
0.0325472
0.0306197
0.0287215
0.0268602
0.0250419
0.0232716
0.0215533
0.0198902
0.0182847
0.0167386
0.0152531
0.0138286
0.0124651
0.0111621
0.00991845
0.00873286
0.00760367
0.006529
0.00550686
0.00453519
0.00361181
0.0027345
0.0019017
0.00111293
0.000365766
0.00011903
0.000375106
0.000646062
0.000929955
0.0012282
0.00154243
0.0018739
0.00222413
0.00259487
0.00298806
0.00340581
0.00385035
0.004324
0.00482909
0.00536797
0.00594295
0.00655632
0.00721045
0.00790779
0.00865091
0.00944248
0.0102851
0.011181
0.012132
0.0131393
0.0142048
0.015334
0.0165398
0.0178371
0.0192399
0.0208747
0.0227159
0.0245804
0.0264549
0.02833
0.0301971
0.0320509
0.0338881
0.0357061
0.0375027
0.0392754
0.0410209
0.0427348
0.0444106
0.0460406
0.0476162
0.0491291
0.0505708
0.0519327
0.0532053
0.0543806
0.0554509
0.0564088
0.0572469
0.0579572
0.0585302
0.0589559
0.0592243
0.0593259
0.0592525
0.0589971
0.0585542
0.0579213
0.0570982
0.0560912
0.0549053
0.0535347
0.0519532
0.0501193
0.048016
0.0458663
0.0438197
0.0417307
0.0396209
0.0375069
0.035403
0.0333207
0.0312695
0.0292574
0.0272906
0.0253745
0.0235132
0.0217104
0.0199685
0.0182897
0.0166753
0.0151258
0.0136413
0.0122213
0.0108647
0.0095703
0.00833628
0.0071608
0.00604183
0.00497725
0.00396485
0.00300231
0.00208807
0.00122174
0.000401399
0.00012881
0.000407369
0.000702253
0.00101117
0.00133565
0.00167752
0.00203817
0.00241924
0.0028226
0.00325035
0.00370475
0.00418818
0.00470313
0.00525212
0.00583761
0.00646204
0.00712781
0.00783736
0.00859322
0.00939803
0.0102545
0.0111652
0.0121324
0.0131577
0.0142422
0.0153881
0.0166009
0.0178947
0.0192853
0.0207879
0.0225378
0.0245066
0.0264981
0.028499
0.0304993
0.0324908
0.0344686
0.0364297
0.0383718
0.0402928
0.0421903
0.0440611
0.0459003
0.0477009
0.0494548
0.0511526
0.0527853
0.0543435
0.0558177
0.0571976
0.0584749
0.0596407
0.0606863
0.0616047
0.0623869
0.0630226
0.0635009
0.0638111
0.0639432
0.0638878
0.0636367
0.0631835
0.0625245
0.0616585
0.0605908
0.0593262
0.0578578
0.0561574
0.0541831
0.0519173
0.049601
0.0473963
0.0451465
0.0428749
0.0405992
0.0383345
0.0360928
0.0338841
0.0317167
0.0295973
0.0275316
0.0255241
0.0235784
0.0216975
0.0198834
0.0181375
0.0164605
0.0148525
0.0133128
0.0118406
0.0104344
0.00909261
0.00781331
0.0065945
0.00543406
0.00432972
0.00327911
0.00228066
0.00133411
0.000438101
0.000138368
0.000439376
0.000758093
0.00109188
0.00144243
0.00181174
0.00220132
0.00261289
0.00304846
0.00351021
0.00400058
0.00452216
0.00507763
0.00566966
0.00630089
0.0069739
0.00769127
0.00845554
0.00926938
0.0101355
0.0110567
0.0120355
0.0130741
0.0141741
0.0153363
0.0165628
0.0178597
0.0192419
0.0207264
0.0223291
0.0241948
0.0262921
0.0284121
0.0305409
0.0326683
0.0347862
0.03689
0.0389769
0.0410451
0.0430926
0.0451172
0.0471154
0.0490823
0.0510104
0.052891
0.0547141
0.0564698
0.058148
0.0597383
0.0612296
0.0626131
0.0638791
0.0650179
0.066022
0.0668815
0.0675853
0.0681217
0.0684792
0.0686467
0.0686137
0.068371
0.0679107
0.0672281
0.0663212
0.0651943
0.0638518
0.0622864
0.0604677
0.058353
0.0559237
0.0534388
0.0510731
0.0486589
0.0462212
0.043779
0.0413481
0.0389416
0.0365701
0.0342424
0.0319658
0.0297463
0.0275886
0.0254967
0.0234735
0.0215213
0.0196412
0.017834
0.0160996
0.0144374
0.0128465
0.0113256
0.00987288
0.0084867
0.007165
0.00590569
0.00470649
0.00356498
0.00247954
0.00145008
0.000475919
0.000147727
0.000471095
0.000813405
0.00117186
0.00154835
0.00194495
0.00236321
0.00280494
0.00327223
0.00376742
0.00429314
0.00485218
0.0054474
0.00608169
0.00675786
0.0074787
0.00824695
0.00906536
0.00993672
0.0108639
0.0118496
0.0128965
0.0140067
0.0151815
0.0164216
0.0177291
0.0191105
0.0205813
0.02216
0.0238634
0.0258454
0.0280723
0.030322
0.03258
0.034836
0.0370819
0.0393134
0.041528
0.0437242
0.0459002
0.0480539
0.0501821
0.0522792
0.0543378
0.0563483
0.0583001
0.0601826
0.0619849
0.0636955
0.0653028
0.0667976
0.0681693
0.0694073
0.0705031
0.0714459
0.0722238
0.0728243
0.073235
0.0734435
0.0734379
0.0732078
0.0727443
0.0720411
0.0710956
0.0699111
0.0684921
0.0668303
0.0648937
0.0626382
0.060044
0.0573882
0.0548584
0.0522757
0.0496671
0.0470529
0.0444502
0.041873
0.0393328
0.0368393
0.0344003
0.0320222
0.0297101
0.0274681
0.0252992
0.0232054
0.0211879
0.0192473
0.0173834
0.0155955
0.0138828
0.0122439
0.0106772
0.00918095
0.0077533
0.00639213
0.00509514
0.00385988
0.00268474
0.00156972
0.000514905
0.000156774
0.000502354
0.000868095
0.00125111
0.00165339
0.00207707
0.00252371
0.00299519
0.00349372
0.00402183
0.00458231
0.00517815
0.00581242
0.00648821
0.00720858
0.00797655
0.00879507
0.0096671
0.0105956
0.0115834
0.0126336
0.0137485
0.0149303
0.0161799
0.0174981
0.0188867
0.0203527
0.0219125
0.0235857
0.0253901
0.0274892
0.0298465
0.0322268
0.0346153
0.0370012
0.0393765
0.0417371
0.0440809
0.0464068
0.0487133
0.0509985
0.053259
0.0554894
0.0576817
0.0598257
0.0619103
0.0639238
0.0658548
0.0676907
0.0694192
0.071031
0.0725147
0.0738584
0.0750523
0.0760849
0.0769436
0.0776149
0.078085
0.0783402
0.0783674
0.0781548
0.077692
0.0769717
0.0759901
0.07475
0.0732557
0.0714983
0.069444
0.0670472
0.0642867
0.0614574
0.0587602
0.0560047
0.05322
0.050428
0.0476473
0.0448932
0.0421782
0.039513
0.0369059
0.034364
0.0318927
0.0294962
0.0271773
0.024938
0.0227793
0.0207016
0.0187045
0.0167875
0.0149495
0.0131892
0.0115053
0.00989589
0.00835923
0.00689322
0.00549557
0.00416376
0.00289621
0.00169303
0.000555102
0.000165458
0.00053317
0.000922304
0.00132982
0.00175768
0.0022081
0.00268273
0.00318356
0.00371291
0.00427347
0.00486818
0.00550022
0.00617286
0.00688945
0.00765334
0.00846778
0.00933599
0.0102611
0.0112463
0.0122945
0.0134088
0.0145915
0.0158447
0.0171692
0.0185653
0.0200351
0.0215858
0.0232347
0.0250028
0.0269085
0.0291251
0.0316135
0.0341253
0.0366452
0.0391619
0.0416677
0.0441587
0.0466333
0.0490906
0.0515297
0.0539488
0.0563446
0.0587115
0.0610412
0.0633228
0.0655445
0.067694
0.0697589
0.0717255
0.0735809
0.075316
0.0769186
0.0783746
0.0796734
0.0808029
0.0817495
0.0824986
0.0830348
0.0833429
0.0834086
0.0832184
0.0827608
0.0820269
0.0810123
0.0797188
0.0781507
0.0762987
0.074127
0.0715884
0.06866
0.0656547
0.0627866
0.0598539
0.0568878
0.0539121
0.0509472
0.0480097
0.0451135
0.0422701
0.039489
0.0367775
0.0341415
0.0315851
0.0291112
0.0267216
0.0244171
0.0221978
0.0200635
0.0180133
0.0160463
0.0141613
0.0123568
0.0106311
0.00898239
0.00740863
0.0059075
0.00447644
0.00311385
0.00182
0.000596522
0.000173836
0.00056373
0.000976154
0.00140792
0.00186104
0.00233783
0.00284006
0.00336985
0.00392967
0.00452228
0.00515077
0.00581846
0.0065289
0.00728571
0.00809251
0.00895287
0.00987024
0.010848
0.0118894
0.0129976
0.0141756
0.0154258
0.01675
0.018149
0.0196229
0.0211737
0.0228091
0.0245473
0.0264102
0.0284176
0.0307519
0.0333718
0.0360157
0.0386676
0.0413161
0.0439534
0.046576
0.0491828
0.0517735
0.0543475
0.0569032
0.0594375
0.0619446
0.0644157
0.0668395
0.0692034
0.0714942
0.0736986
0.0758019
0.0777904
0.0796555
0.0813838
0.0829594
0.0843705
0.0856044
0.0866464
0.0874803
0.0880894
0.0884569
0.0885669
0.0884045
0.0879566
0.0872132
0.0861688
0.0848246
0.0831848
0.0812394
0.078951
0.0762703
0.0731726
0.0699887
0.0669462
0.0638317
0.0606789
0.0575138
0.0543583
0.0512309
0.0481469
0.0451188
0.042157
0.0392694
0.0364622
0.0337397
0.0311048
0.028559
0.0261031
0.0237371
0.0214606
0.0192729
0.017173
0.0151595
0.013231
0.0113859
0.00962215
0.00793781
0.00633049
0.00479757
0.00333744
0.0019505
0.000639138
0.000181781
0.000593742
0.00102917
0.00148479
0.00196279
0.00246563
0.00299517
0.00355362
0.00414356
0.00476786
0.00542971
0.00613265
0.00688046
0.00767706
0.00852637
0.00943222
0.0103983
0.0114282
0.0125254
0.0136931
0.0149343
0.0162515
0.0176463
0.0191193
0.0206706
0.0223022
0.0240221
0.0258494
0.0278072
0.0299161
0.0323682
0.0351198
0.037896
0.0406805
0.0434614
0.0462311
0.0489865
0.0517272
0.0544535
0.0571649
0.0598603
0.0625366
0.065188
0.0678051
0.0703761
0.0728875
0.0753252
0.0776754
0.079922
0.0820505
0.0840524
0.0859136
0.0876163
0.0891474
0.0904936
0.0916384
0.0925645
0.0932533
0.0936867
0.0938472
0.0937181
0.093285
0.0925365
0.091466
0.0900743
0.0883651
0.0863281
0.0839239
0.081101
0.0778328
0.0744677
0.0712474
0.0679469
0.0646025
0.0612422
0.0578902
0.0545664
0.0512877
0.048068
0.0449183
0.0418474
0.0388617
0.0359657
0.0331625
0.0304536
0.0278397
0.025321
0.022897
0.0205668
0.0183294
0.0161835
0.0141274
0.0121595
0.0102778
0.00848007
0.00676393
0.00512666
0.00356663
0.00208438
0.000682897
0.000188994
0.000622552
0.0010806
0.00155978
0.00206238
0.002591
0.00314758
0.00373439
0.0043541
0.00500969
0.00570454
0.0064424
0.0072273
0.00806342
0.00895494
0.00990596
0.0109204
0.0120021
0.0131545
0.0143811
0.0156849
0.0170684
0.0185332
0.0200797
0.0217079
0.0234198
0.0252238
0.02714
0.0291925
0.0314028
0.0339725
0.0368557
0.0397644
0.0426817
0.0455954
0.0484984
0.051388
0.0542644
0.0571284
0.0599801
0.0628186
0.0656408
0.0684408
0.0712088
0.0739323
0.0765971
0.0791882
0.0816907
0.0840877
0.0863635
0.0885097
0.0905112
0.0923488
0.0940079
0.095474
0.0967293
0.0977548
0.0985306
0.0990366
0.0992539
0.099164
0.0987511
0.0980023
0.0969101
0.0954745
0.093699
0.0915724
0.0890536
0.0860888
0.0826489
0.0791004
0.0756993
0.0722088
0.0686681
0.0651074
0.0615529
0.0580264
0.0545462
0.0511274
0.0477822
0.0445198
0.0413472
0.0382694
0.0352896
0.0324096
0.0296303
0.0269519
0.0243741
0.0218958
0.019516
0.0172332
0.0150456
0.0129514
0.0109485
0.0090346
0.00720707
0.00546308
0.00380093
0.00222131
0.000727682
0.000195347
0.000649984
0.00113033
0.00163284
0.00215982
0.00271395
0.00329722
0.003912
0.00456104
0.00524751
0.00597501
0.0067475
0.00756924
0.00844464
0.00937811
0.010374
0.0114364
0.0125694
0.0137765
0.0150614
0.0164271
0.0178761
0.0194101
0.0210295
0.0227339
0.0245255
0.0264132
0.0284177
0.0305646
0.0328758
0.0355628
0.0385772
0.0416183
0.0446685
0.0477156
0.0507528
0.053778
0.0567921
0.0597963
0.0627913
0.0657765
0.0687489
0.0717022
0.0746264
0.0775082
0.0803325
0.0830835
0.0857455
0.0883004
0.0907313
0.0930296
0.0951793
0.0971597
0.0989547
0.100549
0.101922
0.103055
0.103924
0.10451
0.104791
0.104746
0.10436
0.103616
0.102507
0.101032
0.0991937
0.0969802
0.0943484
0.091242
0.0876297
0.0838959
0.0803112
0.0766272
0.0728859
0.0691198
0.0653571
0.0616214
0.0579326
0.0543071
0.0507578
0.0472951
0.0439266
0.0406576
0.0374921
0.0344322
0.0314792
0.0286334
0.0258946
0.0232618
0.0207339
0.0183091
0.0159855
0.0137612
0.0116338
0.00960067
0.00765911
0.00580604
0.00403971
0.0023609
0.000773333
0.000200894
0.000676279
0.00117868
0.0017042
0.00225521
0.00283446
0.003444
0.0040863
0.00476428
0.00548128
0.00624112
0.00704797
0.00790629
0.00882069
0.00979582
0.0108362
0.0119462
0.0131298
0.014391
0.0157334
0.0171601
0.0186739
0.0202764
0.0219677
0.0237477
0.0256182
0.0275888
0.029681
0.0319215
0.034333
0.0371366
0.0402818
0.043455
0.0466382
0.0498192
0.0529917
0.0561541
0.0593079
0.0624552
0.0655969
0.0687326
0.0718595
0.0749712
0.078057
0.0811031
0.0840936
0.0870116
0.0898405
0.0925613
0.0951557
0.097614
0.09992
0.102051
0.10399
0.105719
0.107219
0.108466
0.109438
0.110111
0.110462
0.11047
0.110116
0.109384
0.108264
0.106754
0.104857
0.10256
0.0998171
0.0965699
0.0927847
0.0888636
0.0850929
0.0812119
0.0772657
0.0732891
0.0693125
0.0653611
0.0614564
0.057616
0.053854
0.0501817
0.0466074
0.0431376
0.0397766
0.0365275
0.0333917
0.0303701
0.0274625
0.024668
0.0219854
0.0194128
0.0169482
0.0145893
0.0123334
0.0101778
0.00811939
0.00615487
0.00428237
0.0025028
0.000819804
0.000205602
0.000701389
0.00122549
0.00177356
0.00234811
0.00295203
0.00358744
0.00425693
0.00496357
0.00571088
0.00650284
0.00734382
0.00823846
0.0091916
0.010208
0.0112925
0.0124495
0.0136832
0.0149977
0.0163967
0.0178837
0.0194613
0.0211312
0.0228936
0.0247481
0.0266966
0.0287491
0.030928
0.033261
0.0357719
0.0386912
0.0419666
0.0452715
0.0485879
0.0519035
0.0552124
0.0585138
0.0618098
0.065103
0.0683949
0.0716852
0.0749714
0.0782466
0.0814999
0.0847166
0.08788
0.0909724
0.0939761
0.0968712
0.0996377
0.102264
0.104735
0.107024
0.109115
0.110989
0.112622
0.113992
0.115074
0.115842
0.116272
0.11634
0.116026
0.115313
0.114188
0.11265
0.110699
0.108322
0.10547
0.102083
0.0981239
0.0940138
0.0900541
0.0859725
0.0818168
0.0776245
0.0734278
0.0692539
0.0651257
0.0610621
0.0570785
0.0531872
0.0493976
0.045717
0.0421508
0.0387026
0.0353746
0.0321681
0.029083
0.0261188
0.0232742
0.0205472
0.0179357
0.015437
0.0130483
0.0107663
0.00858782
0.0065093
0.00452862
0.00264673
0.000866984
0.00020933
0.000724977
0.00127025
0.00184036
0.00243796
0.00306611
0.00372706
0.00442349
0.0051586
0.00593603
0.00675992
0.00763481
0.00856554
0.00955712
0.0106145
0.0117426
0.012946
0.0142292
0.0155962
0.017051
0.0185972
0.0202377
0.021974
0.0238064
0.0257342
0.0277595
0.0298926
0.0321568
0.0345811
0.0371901
0.0402239
0.0436285
0.0470649
0.0505147
0.0539657
0.0574124
0.0608547
0.0642955
0.0677378
0.0711835
0.0746328
0.078083
0.0815271
0.0849538
0.0883477
0.0916912
0.0949655
0.0981521
0.10123
0.104178
0.106981
0.109624
0.112081
0.114332
0.116358
0.118135
0.119637
0.120838
0.12171
0.122227
0.122364
0.122099
0.121412
0.120291
0.11873
0.116731
0.114277
0.111319
0.107792
0.103658
0.0993566
0.0952045
0.0909178
0.0865477
0.0821338
0.0777106
0.0733071
0.0689477
0.0646527
0.0604386
0.056319
0.0523045
0.0484035
0.0446222
0.0409651
0.0374352
0.0340342
0.0307626
0.0276201
0.0246054
0.0217167
0.0189516
0.0163072
0.0137803
0.0113677
0.00906549
0.00687004
0.00477887
0.00279276
0.000914553
0.000211991
0.000746906
0.00131283
0.00190448
0.0025247
0.0031767
0.00386282
0.00458587
0.00534915
0.00615643
0.00701198
0.00792052
0.00888704
0.00991671
0.0110146
0.0121859
0.0134351
0.014767
0.0161858
0.0176956
0.0193001
0.0210023
0.0228039
0.024705
0.0267049
0.0288055
0.0310176
0.0333654
0.0358793
0.038585
0.041732
0.0452651
0.0488325
0.052416
0.0560033
0.0595894
0.0631747
0.0667628
0.0703575
0.0739609
0.0775735
0.0811925
0.0848111
0.0884173
0.091995
0.0955257
0.0989898
0.102368
0.105637
0.108776
0.111765
0.114589
0.117221
0.119642
0.12183
0.12376
0.125404
0.126734
0.127721
0.128336
0.128553
0.128346
0.127695
0.126585
0.125009
0.122966
0.120439
0.117376
0.113711
0.1094
0.104903
0.100554
0.096057
0.0914664
0.0868245
0.0821679
0.0775274
0.0729289
0.0683941
0.063941
0.0595843
0.0553357
0.0512047
0.0471986
0.0433229
0.0395812
0.0359761
0.0325086
0.0291787
0.0259856
0.0229272
0.0200012
0.0172046
0.0145339
0.0119855
0.0095554
0.0072394
0.00503473
0.00294181
0.000962585
0.000213621
0.000767375
0.00135356
0.00196637
0.00260879
0.00328421
0.00399505
0.00474425
0.00553522
0.00637191
0.00725872
0.00820051
0.0092024
0.0102697
0.0114077
0.0126214
0.0139159
0.0152957
0.0167655
0.0183293
0.0199912
0.0217541
0.0236198
0.0255883
0.0276587
0.0298329
0.0321222
0.0345518
0.0371535
0.0399541
0.043213
0.0468735
0.0505718
0.0542893
0.0580138
0.0617408
0.0654714
0.0692096
0.0729598
0.0767247
0.0805049
0.0842978
0.0880963
0.091888
0.0956562
0.0993815
0.103043
0.106621
0.110092
0.11343
0.116615
0.119629
0.122448
0.125049
0.12741
0.129504
0.131301
0.132772
0.133885
0.13461
0.134918
0.134781
0.134176
0.133085
0.131501
0.12942
0.126824
0.123658
0.119852
0.115362
0.110665
0.106114
0.1014
0.096582
0.0917048
0.0868071
0.0819216
0.0770758
0.072293
0.0675922
0.0629895
0.0584977
0.0541275
0.0498872
0.0457832
0.0418203
0.0380016
0.0343291
0.0308031
0.0274228
0.0241867
0.0210921
0.0181362
0.0153153
0.0126255
0.0100624
0.00762132
0.00529903
0.00309559
0.00101182
0.000214292
0.000786645
0.00139282
0.00202643
0.00269065
0.003389
0.00412404
0.00489883
0.00571696
0.00658251
0.00750004
0.00847451
0.0095112
0.0106155
0.0117928
0.0130484
0.0143873
0.0158143
0.0173341
0.018951
0.0206692
0.0224916
0.0244201
0.0264545
0.0285937
0.0308397
0.0332041
0.0357134
0.038401
0.0412951
0.0446644
0.0484515
0.0522803
0.0561322