/*--------------------------------*- C++ -*----------------------------------*\
  =========                 |
  \\      /  F ield         | OpenFOAM: The Open Source CFD Toolbox
   \\    /   O peration     | Website:  https://openfoam.org
    \\  /    A nd           | Version:  9
     \\/     M anipulation  |
\*---------------------------------------------------------------------------*/
FoamFile
{
    format      ascii;
    class       surfaceScalarField;
    location    "0.15";
    object      phi;
}
// * * * * * * * * * * * * * * * * * * * * * * * * * * * * * * * * * * * * * //

dimensions      [0 3 -1 0 0 0 0];

internalField   nonuniform List<scalar> 
39700
(
3.1346e-07
2.98494e-06
3.13452e-07
3.12993e-06
3.1345e-07
3.28262e-06
3.13451e-07
3.44344e-06
3.13455e-07
3.61313e-06
3.13464e-07
3.79258e-06
3.13484e-07
3.98285e-06
3.1352e-07
4.18508e-06
3.13576e-07
4.4004e-06
3.13654e-07
4.62981e-06
3.13749e-07
4.87403e-06
3.13849e-07
5.1334e-06
3.13936e-07
5.4079e-06
3.13995e-07
5.69724e-06
3.14015e-07
6.001e-06
3.13989e-07
6.3188e-06
3.13919e-07
6.65038e-06
3.13812e-07
6.9956e-06
3.13671e-07
7.35435e-06
3.13504e-07
7.72642e-06
3.13318e-07
8.11121e-06
3.1313e-07
8.50745e-06
3.12976e-07
8.91298e-06
3.1291e-07
9.32534e-06
3.12977e-07
9.74494e-06
3.13155e-07
1.01813e-05
3.13369e-07
1.0656e-05
3.13547e-07
1.11898e-05
3.136e-07
1.178e-05
3.13489e-07
1.24022e-05
3.13257e-07
1.52085e-05
3.1305e-07
1.51987e-05
3.12933e-07
1.51541e-05
3.12911e-07
1.50857e-05
3.12963e-07
1.50038e-05
3.1305e-07
1.4919e-05
3.13139e-07
1.48406e-05
3.13211e-07
1.47744e-05
3.13259e-07
1.4723e-05
3.13287e-07
1.46866e-05
3.13301e-07
1.46637e-05
3.13309e-07
1.46506e-05
3.13316e-07
1.46414e-05
3.13321e-07
1.46306e-05
3.13339e-07
1.46147e-05
3.13346e-07
1.45931e-05
3.13361e-07
1.45662e-05
3.13378e-07
1.45356e-05
3.13393e-07
1.45032e-05
3.134e-07
1.44714e-05
3.13395e-07
1.44433e-05
3.13379e-07
1.4422e-05
3.13358e-07
1.44103e-05
3.13339e-07
1.44087e-05
3.1333e-07
1.44158e-05
3.13332e-07
1.44285e-05
3.13341e-07
1.44431e-05
3.13357e-07
1.44566e-05
3.13377e-07
1.44666e-05
3.13405e-07
1.44709e-05
3.13451e-07
1.44662e-05
3.13543e-07
1.44466e-05
3.13718e-07
1.44007e-05
3.13955e-07
1.43149e-05
3.13992e-07
1.41908e-05
3.13491e-07
1.40771e-05
3.12827e-07
1.40642e-05
3.12722e-07
1.41871e-05
3.1305e-07
1.4375e-05
3.13349e-07
1.4545e-05
3.13492e-07
1.19791e-05
3.13555e-07
1.14772e-05
3.13582e-07
1.09815e-05
3.13592e-07
1.04985e-05
3.13592e-07
1.00309e-05
3.13587e-07
9.5801e-06
3.13576e-07
9.14635e-06
3.13562e-07
8.72966e-06
3.13545e-07
8.32981e-06
3.13525e-07
7.94644e-06
3.13503e-07
7.57911e-06
3.13479e-07
7.22734e-06
3.13454e-07
6.89063e-06
3.13427e-07
6.56845e-06
3.134e-07
6.26029e-06
3.13374e-07
5.96562e-06
3.13347e-07
5.68392e-06
3.13322e-07
5.41468e-06
3.133e-07
5.15739e-06
3.13281e-07
4.91157e-06
3.13266e-07
4.67674e-06
3.13258e-07
4.45243e-06
3.13259e-07
4.23819e-06
3.13268e-07
4.0336e-06
3.13287e-07
3.83829e-06
3.13315e-07
3.6519e-06
3.13349e-07
3.47416e-06
3.13381e-07
3.3048e-06
3.13386e-07
3.14365e-06
2.99078e-06
3.13705e-07
2.98497e-06
3.13693e-07
3.12994e-06
3.13692e-07
3.28262e-06
3.13698e-07
3.44344e-06
3.1371e-07
3.61312e-06
3.13717e-07
3.79258e-06
3.13752e-07
3.98281e-06
3.13809e-07
4.18502e-06
3.13899e-07
4.40031e-06
3.14025e-07
4.62968e-06
3.14184e-07
4.87387e-06
3.14358e-07
5.13323e-06
3.14518e-07
5.40774e-06
3.14633e-07
5.69713e-06
3.14675e-07
6.00096e-06
3.14625e-07
6.31885e-06
3.14479e-07
6.65052e-06
3.14241e-07
6.99583e-06
3.13922e-07
7.35467e-06
3.13542e-07
7.7268e-06
3.13128e-07
8.11162e-06
3.12734e-07
8.50785e-06
3.12445e-07
8.91327e-06
3.12362e-07
9.32542e-06
3.12524e-07
9.74477e-06
3.12832e-07
1.01809e-05
3.13145e-07
1.06557e-05
3.13405e-07
1.11895e-05
3.13503e-07
1.17799e-05
3.1332e-07
1.24024e-05
3.12867e-07
1.52089e-05
3.12411e-07
1.51992e-05
3.12131e-07
1.51544e-05
3.12065e-07
1.50858e-05
3.12168e-07
1.50037e-05
3.12359e-07
1.49188e-05
3.12567e-07
1.48404e-05
3.12745e-07
1.47743e-05
3.12874e-07
1.47229e-05
3.12952e-07
1.46865e-05
3.12998e-07
1.46637e-05
3.13028e-07
1.46506e-05
3.13053e-07
1.46414e-05
3.13064e-07
1.46305e-05
3.13153e-07
1.46146e-05
3.1317e-07
1.45931e-05
3.13213e-07
1.45662e-05
3.13265e-07
1.45356e-05
3.13309e-07
1.45032e-05
3.13336e-07
1.44714e-05
3.13336e-07
1.44433e-05
3.1331e-07
1.44221e-05
3.13271e-07
1.44103e-05
3.13238e-07
1.44087e-05
3.13228e-07
1.44158e-05
3.13244e-07
1.44284e-05
3.13283e-07
1.4443e-05
3.1334e-07
1.44565e-05
3.13413e-07
1.44665e-05
3.13509e-07
1.44708e-05
3.13656e-07
1.44661e-05
3.13909e-07
1.44463e-05
3.14332e-07
1.44002e-05
3.14838e-07
1.43144e-05
3.14885e-07
1.41907e-05
3.13861e-07
1.40781e-05
3.12487e-07
1.40656e-05
3.12147e-07
1.41875e-05
3.12747e-07
1.43744e-05
3.13436e-07
1.45443e-05
3.13813e-07
1.19787e-05
3.14017e-07
1.1477e-05
3.14122e-07
1.09814e-05
3.14175e-07
1.04984e-05
3.14195e-07
1.00309e-05
3.14194e-07
9.5801e-06
3.14177e-07
9.14636e-06
3.14148e-07
8.72969e-06
3.14108e-07
8.32985e-06
3.14061e-07
7.94649e-06
3.14006e-07
7.57916e-06
3.13947e-07
7.2274e-06
3.13884e-07
6.89069e-06
3.13818e-07
6.56852e-06
3.13752e-07
6.26036e-06
3.13686e-07
5.96568e-06
3.13624e-07
5.68398e-06
3.13567e-07
5.41473e-06
3.13517e-07
5.15744e-06
3.13478e-07
4.91161e-06
3.13453e-07
4.67677e-06
3.13444e-07
4.45244e-06
3.13455e-07
4.23818e-06
3.13488e-07
4.03357e-06
3.1354e-07
3.83824e-06
3.13609e-07
3.65184e-06
3.13686e-07
3.47408e-06
3.13755e-07
3.30473e-06
3.13765e-07
3.14364e-06
2.99094e-06
3.13866e-07
2.98497e-06
3.13864e-07
3.12994e-06
3.13869e-07
3.28261e-06
3.13881e-07
3.44342e-06
3.13896e-07
3.6131e-06
3.13933e-07
3.79254e-06
3.13971e-07
3.98278e-06
3.14035e-07
4.18495e-06
3.14134e-07
4.40021e-06
3.14274e-07
4.62954e-06
3.1445e-07
4.87369e-06
3.14643e-07
5.13303e-06
3.1482e-07
5.40757e-06
3.14943e-07
5.69701e-06
3.14976e-07
6.00093e-06
3.14894e-07
6.31893e-06
3.14687e-07
6.65073e-06
3.14358e-07
6.99616e-06
3.1392e-07
7.35511e-06
3.13401e-07
7.72732e-06
3.12844e-07
8.11218e-06
3.12323e-07
8.50837e-06
3.11952e-07
8.91364e-06
3.11857e-07
9.32552e-06
3.12072e-07
9.74456e-06
3.12456e-07
1.01806e-05
3.1282e-07
1.06553e-05
3.13091e-07
1.11893e-05
3.13163e-07
1.17798e-05
3.12905e-07
1.24027e-05
3.12304e-07
1.52095e-05
3.11694e-07
1.51998e-05
3.11308e-07
1.51548e-05
3.11208e-07
1.50859e-05
3.11342e-07
1.50036e-05
3.11606e-07
1.49185e-05
3.119e-07
1.48401e-05
3.1216e-07
1.4774e-05
3.12356e-07
1.47227e-05
3.12483e-07
1.46863e-05
3.12562e-07
1.46636e-05
3.12619e-07
1.46505e-05
3.12674e-07
1.46413e-05
3.12753e-07
1.46305e-05
3.12772e-07
1.46146e-05
3.1285e-07
1.4593e-05
3.1294e-07
1.45661e-05
3.13029e-07
1.45355e-05
3.13107e-07
1.45031e-05
3.13162e-07
1.44713e-05
3.13181e-07
1.44433e-05
3.13164e-07
1.44221e-05
3.1313e-07
1.44103e-05
3.13104e-07
1.44088e-05
3.13109e-07
1.44158e-05
3.13152e-07
1.44284e-05
3.1323e-07
1.44429e-05
3.13337e-07
1.44564e-05
3.13472e-07
1.44663e-05
3.13646e-07
1.44706e-05
3.13891e-07
1.44658e-05
3.14278e-07
1.44459e-05
3.14875e-07
1.43996e-05
3.15546e-07
1.43138e-05
3.15612e-07
1.41907e-05
3.14345e-07
1.40794e-05
3.12612e-07
1.40673e-05
3.12109e-07
1.4188e-05
3.12818e-07
1.43737e-05
3.13736e-07
1.45434e-05
3.14281e-07
1.19781e-05
3.14612e-07
1.14766e-05
3.14805e-07
1.09812e-05
3.14913e-07
1.04983e-05
3.14968e-07
1.00309e-05
3.14984e-07
9.58009e-06
3.14973e-07
9.14638e-06
3.1494e-07
8.72972e-06
3.14889e-07
8.3299e-06
3.14825e-07
7.94655e-06
3.1475e-07
7.57924e-06
3.14666e-07
7.22749e-06
3.14577e-07
6.89078e-06
3.14484e-07
6.56861e-06
3.1439e-07
6.26045e-06
3.14299e-07
5.96577e-06
3.14213e-07
5.68406e-06
3.14136e-07
5.41481e-06
3.1407e-07
5.15751e-06
3.1402e-07
4.91166e-06
3.1399e-07
4.6768e-06
3.13984e-07
4.45244e-06
3.14004e-07
4.23816e-06
3.14052e-07
4.03352e-06
3.14127e-07
3.83816e-06
3.14223e-07
3.65174e-06
3.14328e-07
3.47397e-06
3.14421e-07
3.30464e-06
3.14458e-07
3.14361e-06
2.991e-06
3.13866e-07
2.98497e-06
3.13869e-07
3.12994e-06
3.13879e-07
3.2826e-06
3.13895e-07
3.44341e-06
3.1392e-07
3.61308e-06
3.13956e-07
3.7925e-06
3.14007e-07
3.98273e-06
3.14086e-07
4.18488e-06
3.14201e-07
4.40009e-06
3.1436e-07
4.62938e-06
3.14556e-07
4.8735e-06
3.14766e-07
5.13282e-06
3.14955e-07
5.40738e-06
3.15079e-07
5.69688e-06
3.15099e-07
6.00091e-06
3.14985e-07
6.31904e-06
3.14725e-07
6.65099e-06
3.14321e-07
6.99657e-06
3.13789e-07
7.35564e-06
3.13162e-07
7.72795e-06
3.12491e-07
8.11285e-06
3.11863e-07
8.50899e-06
3.11411e-07
8.91409e-06
3.11277e-07
9.32565e-06
3.11501e-07
9.74434e-06
3.11932e-07
1.01801e-05
3.12353e-07
1.06549e-05
3.12655e-07
1.1189e-05
3.12707e-07
1.17798e-05
3.12373e-07
1.2403e-05
3.11639e-07
1.52103e-05
3.10898e-07
1.52005e-05
3.10422e-07
1.51553e-05
3.10289e-07
1.5086e-05
3.10443e-07
1.50034e-05
3.1076e-07
1.49182e-05
3.11124e-07
1.48397e-05
3.11453e-07
1.47737e-05
3.11708e-07
1.47224e-05
3.11883e-07
1.46862e-05
3.11999e-07
1.46635e-05
3.12089e-07
1.46504e-05
3.12175e-07
1.46412e-05
3.12267e-07
1.46304e-05
3.12332e-07
1.46146e-05
3.12431e-07
1.45929e-05
3.12551e-07
1.4566e-05
3.12679e-07
1.45354e-05
3.12796e-07
1.4503e-05
3.12884e-07
1.44713e-05
3.12931e-07
1.44432e-05
3.12939e-07
1.44221e-05
3.12927e-07
1.44103e-05
3.12927e-07
1.44088e-05
3.12964e-07
1.44158e-05
3.13049e-07
1.44283e-05
3.13179e-07
1.44428e-05
3.13348e-07
1.44562e-05
3.13556e-07
1.44661e-05
3.13815e-07
1.44703e-05
3.14162e-07
1.44655e-05
3.14671e-07
1.44454e-05
3.15406e-07
1.43989e-05
3.16191e-07
1.4313e-05
3.1626e-07
1.41906e-05
3.14852e-07
1.40808e-05
3.12944e-07
1.40692e-05
3.12383e-07
1.41886e-05
3.13195e-07
1.43729e-05
3.14286e-07
1.45423e-05
3.14966e-07
1.19775e-05
3.15403e-07
1.14762e-05
3.15674e-07
1.0981e-05
3.1584e-07
1.04982e-05
3.15935e-07
1.00308e-05
3.15977e-07
9.58004e-06
3.1598e-07
9.14637e-06
3.15953e-07
8.72975e-06
3.15901e-07
8.32995e-06
3.15829e-07
7.94662e-06
3.15743e-07
7.57933e-06
3.15645e-07
7.22758e-06
3.15539e-07
6.89089e-06
3.15429e-07
6.56872e-06
3.15319e-07
6.26056e-06
3.15211e-07
5.96588e-06
3.1511e-07
5.68417e-06
3.1502e-07
5.4149e-06
3.14945e-07
5.15758e-06
3.14889e-07
4.91172e-06
3.14855e-07
4.67683e-06
3.14849e-07
4.45245e-06
3.14872e-07
4.23814e-06
3.14925e-07
4.03347e-06
3.15006e-07
3.83808e-06
3.15108e-07
3.65164e-06
3.15215e-07
3.47387e-06
3.15303e-07
3.30455e-06
3.15342e-07
3.14357e-06
2.99101e-06
3.137e-07
2.98497e-06
3.13703e-07
3.12993e-06
3.13711e-07
3.2826e-06
3.13726e-07
3.44339e-06
3.13751e-07
3.61305e-06
3.13788e-07
3.79246e-06
3.13847e-07
3.98267e-06
3.13937e-07
4.18479e-06
3.14068e-07
4.39996e-06
3.14246e-07
4.6292e-06
3.14463e-07
4.87328e-06
3.14693e-07
5.13259e-06
3.14898e-07
5.40717e-06
3.1503e-07
5.69675e-06
3.15045e-07
6.00089e-06
3.1491e-07
6.31918e-06
3.1461e-07
6.65129e-06
3.14149e-07
6.99703e-06
3.13544e-07
7.35624e-06
3.12832e-07
7.72866e-06
3.12069e-07
8.11361e-06
3.11354e-07
8.50971e-06
3.10827e-07
8.91461e-06
3.10639e-07
9.32584e-06
3.10836e-07
9.74414e-06
3.11268e-07
1.01797e-05
3.11717e-07
1.06544e-05
3.12051e-07
1.11886e-05
3.12107e-07
1.17797e-05
3.11729e-07
1.24034e-05
3.10888e-07
1.52111e-05
3.10034e-07
1.52014e-05
3.09475e-07
1.51558e-05
3.09303e-07
1.50862e-05
3.0946e-07
1.50033e-05
3.09812e-07
1.49179e-05
3.10226e-07
1.48393e-05
3.10611e-07
1.47733e-05
3.10918e-07
1.47221e-05
3.1114e-07
1.4686e-05
3.11298e-07
1.46633e-05
3.11422e-07
1.46503e-05
3.11539e-07
1.46411e-05
3.11655e-07
1.46303e-05
3.11772e-07
1.46144e-05
3.11908e-07
1.45927e-05
3.12054e-07
1.45658e-05
3.12217e-07
1.45352e-05
3.12373e-07
1.45028e-05
3.12499e-07
1.44711e-05
3.12583e-07
1.44431e-05
3.12627e-07
1.4422e-05
3.12654e-07
1.44103e-05
3.12697e-07
1.44087e-05
3.12784e-07
1.44157e-05
3.12927e-07
1.44282e-05
3.13124e-07
1.44426e-05
3.1337e-07
1.4456e-05
3.13663e-07
1.44658e-05
3.14018e-07
1.447e-05
3.14474e-07
1.4465e-05
3.15101e-07
1.44448e-05
3.15951e-07
1.4398e-05
3.16805e-07
1.43121e-05
3.16857e-07
1.41905e-05
3.15382e-07
1.40823e-05
3.13442e-07
1.40712e-05
3.12914e-07
1.41891e-05
3.13844e-07
1.4372e-05
3.1509e-07
1.45411e-05
3.15887e-07
1.19767e-05
3.16417e-07
1.14757e-05
3.16763e-07
1.09806e-05
3.16986e-07
1.04979e-05
3.17124e-07
1.00306e-05
3.17199e-07
9.57997e-06
3.17224e-07
9.14635e-06
3.17211e-07
8.72977e-06
3.17166e-07
8.33e-06
3.17097e-07
7.94669e-06
3.17009e-07
7.57941e-06
3.16906e-07
7.22769e-06
3.16793e-07
6.891e-06
3.16675e-07
6.56884e-06
3.16557e-07
6.26068e-06
3.16441e-07
5.966e-06
3.16332e-07
5.68427e-06
3.16236e-07
5.415e-06
3.16155e-07
5.15766e-06
3.16094e-07
4.91178e-06
3.16058e-07
4.67687e-06
3.16048e-07
4.45246e-06
3.16068e-07
4.23812e-06
3.16117e-07
4.03342e-06
3.16191e-07
3.83801e-06
3.1628e-07
3.65155e-06
3.16367e-07
3.47378e-06
3.1643e-07
3.30449e-06
3.16453e-07
3.14355e-06
2.99101e-06
3.13371e-07
2.98497e-06
3.1337e-07
3.12993e-06
3.13373e-07
3.28259e-06
3.13384e-07
3.44338e-06
3.13405e-07
3.61303e-06
3.13441e-07
3.79243e-06
3.13503e-07
3.98261e-06
3.136e-07
4.18469e-06
3.13744e-07
4.39982e-06
3.13938e-07
4.62901e-06
3.14174e-07
4.87304e-06
3.14423e-07
5.13234e-06
3.14645e-07
5.40695e-06
3.14787e-07
5.69661e-06
3.14803e-07
6.00088e-06
3.14657e-07
6.31933e-06
3.14331e-07
6.65161e-06
3.13829e-07
6.99753e-06
3.1317e-07
7.3569e-06
3.12394e-07
7.72943e-06
3.11562e-07
8.11444e-06
3.10777e-07
8.51049e-06
3.10184e-07
8.91521e-06
3.09934e-07
9.32609e-06
3.10075e-07
9.744e-06
3.10473e-07
1.01793e-05
3.10922e-07
1.0654e-05
3.1128e-07
1.11883e-05
3.11351e-07
1.17796e-05
3.10953e-07
1.24038e-05
3.10035e-07
1.5212e-05
3.09089e-07
1.52023e-05
3.08453e-07
1.51564e-05
3.08238e-07
1.50864e-05
3.08384e-07
1.50031e-05
3.08753e-07
1.49175e-05
3.09202e-07
1.48388e-05
3.09631e-07
1.47729e-05
3.09985e-07
1.47217e-05
3.10252e-07
1.46857e-05
3.10453e-07
1.46631e-05
3.10617e-07
1.46501e-05
3.10769e-07
1.4641e-05
3.10921e-07
1.46301e-05
3.1108e-07
1.46143e-05
3.11257e-07
1.45926e-05
3.1144e-07
1.45656e-05
3.11639e-07
1.4535e-05
3.11835e-07
1.45026e-05
3.12004e-07
1.4471e-05
3.12134e-07
1.4443e-05
3.12227e-07
1.44219e-05
3.12307e-07
1.44102e-05
3.1241e-07
1.44086e-05
3.12564e-07
1.44155e-05
3.12781e-07
1.44279e-05
3.1306e-07
1.44423e-05
3.13395e-07
1.44556e-05
3.13786e-07
1.44654e-05
3.14249e-07
1.44695e-05
3.14821e-07
1.44645e-05
3.15568e-07
1.4444e-05
3.16518e-07
1.43971e-05
3.17417e-07
1.43112e-05
3.17453e-07
1.41905e-05
3.15973e-07
1.40838e-05
3.14089e-07
1.40731e-05
3.13678e-07
1.41895e-05
3.14747e-07
1.43709e-05
3.16139e-07
1.45397e-05
3.17046e-07
1.19757e-05
3.17666e-07
1.1475e-05
3.18086e-07
1.09802e-05
3.1837e-07
1.04976e-05
3.18557e-07
1.00305e-05
3.1867e-07
9.57986e-06
3.18725e-07
9.14629e-06
3.18734e-07
8.72976e-06
3.18706e-07
8.33003e-06
3.18648e-07
7.94675e-06
3.18566e-07
7.5795e-06
3.18467e-07
7.22778e-06
3.18356e-07
6.89111e-06
3.18238e-07
6.56896e-06
3.18118e-07
6.2608e-06
3.18e-07
5.96611e-06
3.1789e-07
5.68438e-06
3.17791e-07
5.4151e-06
3.17708e-07
5.15775e-06
3.17645e-07
4.91185e-06
3.17605e-07
4.67691e-06
3.1759e-07
4.45247e-06
3.17602e-07
4.2381e-06
3.17639e-07
4.03339e-06
3.17694e-07
3.83795e-06
3.17759e-07
3.65149e-06
3.17816e-07
3.47372e-06
3.1785e-07
3.30445e-06
3.17856e-07
3.14354e-06
2.99102e-06
3.12878e-07
2.98498e-06
3.12874e-07
3.12994e-06
3.12873e-07
3.28259e-06
3.12878e-07
3.44338e-06
3.12894e-07
3.61301e-06
3.12929e-07
3.79239e-06
3.12993e-07
3.98254e-06
3.13096e-07
4.18459e-06
3.13251e-07
4.39966e-06
3.1346e-07
4.6288e-06
3.13712e-07
4.87279e-06
3.1398e-07
5.13208e-06
3.14218e-07
5.40671e-06
3.14372e-07
5.69645e-06
3.14392e-07
6.00086e-06
3.14239e-07
6.31948e-06
3.13895e-07
6.65196e-06
3.13363e-07
6.99806e-06
3.12663e-07
7.3576e-06
3.11835e-07
7.73026e-06
3.10948e-07
8.11533e-06
3.10104e-07
8.51134e-06
3.09449e-07
8.91586e-06
3.09131e-07
9.32641e-06
3.09204e-07
9.74393e-06
3.09551e-07
1.0179e-05
3.09988e-07
1.06535e-05
3.10366e-07
1.11879e-05
3.10455e-07
1.17796e-05
3.10046e-07
1.24042e-05
3.09067e-07
1.5213e-05
3.08043e-07
1.52033e-05
3.07339e-07
1.51572e-05
3.07079e-07
1.50866e-05
3.07206e-07
1.5003e-05
3.0758e-07
1.49171e-05
3.08053e-07
1.48384e-05
3.08517e-07
1.47724e-05
3.08912e-07
1.47213e-05
3.09223e-07
1.46854e-05
3.09467e-07
1.46629e-05
3.09674e-07
1.46499e-05
3.09866e-07
1.46408e-05
3.10058e-07
1.46299e-05
3.10257e-07
1.46141e-05
3.10473e-07
1.45924e-05
3.10701e-07
1.45654e-05
3.10942e-07
1.45348e-05
3.11183e-07
1.45024e-05
3.11402e-07
1.44707e-05
3.11586e-07
1.44428e-05
3.11739e-07
1.44218e-05
3.11887e-07
1.44101e-05
3.12065e-07
1.44084e-05
3.12301e-07
1.44153e-05
3.12607e-07
1.44276e-05
3.12981e-07
1.4442e-05
3.13419e-07
1.44552e-05
3.1392e-07
1.44649e-05
3.14501e-07
1.44689e-05
3.15197e-07
1.44638e-05
3.16065e-07
1.44432e-05
3.17113e-07
1.4396e-05
3.18055e-07
1.43103e-05
3.18095e-07
1.41905e-05
3.16663e-07
1.40852e-05
3.14912e-07
1.40748e-05
3.14658e-07
1.41897e-05
3.15882e-07
1.43697e-05
3.17422e-07
1.45381e-05
3.18439e-07
1.19747e-05
3.19152e-07
1.14743e-05
3.1965e-07
1.09797e-05
3.2e-07
1.04973e-05
3.20241e-07
1.00302e-05
3.204e-07
9.5797e-06
3.20493e-07
9.1462e-06
3.20532e-07
8.72972e-06
3.20528e-07
8.33003e-06
3.20489e-07
7.94679e-06
3.20422e-07
7.57956e-06
3.20334e-07
7.22787e-06
3.20231e-07
6.89121e-06
3.20119e-07
6.56907e-06
3.20003e-07
6.26091e-06
3.19889e-07
5.96623e-06
3.1978e-07
5.68449e-06
3.19682e-07
5.4152e-06
3.19598e-07
5.15783e-06
3.19533e-07
4.91191e-06
3.19488e-07
4.67695e-06
3.19466e-07
4.4525e-06
3.19466e-07
4.2381e-06
3.19486e-07
4.03337e-06
3.1952e-07
3.83792e-06
3.19556e-07
3.65145e-06
3.19583e-07
3.47369e-06
3.19592e-07
3.30444e-06
3.19584e-07
3.14355e-06
2.99103e-06
3.12231e-07
2.98498e-06
3.12225e-07
3.12994e-06
3.1222e-07
3.2826e-06
3.12221e-07
3.44338e-06
3.12235e-07
3.613e-06
3.12269e-07
3.79236e-06
3.12334e-07
3.98248e-06
3.12444e-07
4.18448e-06
3.12608e-07
4.3995e-06
3.1283e-07
4.62858e-06
3.13098e-07
4.87252e-06
3.13382e-07
5.13179e-06
3.13635e-07
5.40646e-06
3.13801e-07
5.69628e-06
3.13826e-07
6.00083e-06
3.13669e-07
6.31963e-06
3.13311e-07
6.65231e-06
3.12754e-07
6.99862e-06
3.12019e-07
7.35833e-06
3.11148e-07
7.73113e-06
3.10211e-07
8.11627e-06
3.09312e-07
8.51224e-06
3.08596e-07
8.91658e-06
3.0821e-07
9.3268e-06
3.08212e-07
9.74392e-06
3.08509e-07
1.01787e-05
3.08935e-07
1.06531e-05
3.09329e-07
1.11875e-05
3.09432e-07
1.17795e-05
3.09011e-07
1.24046e-05
3.07979e-07
1.5214e-05
3.06884e-07
1.52044e-05
3.06117e-07
1.51579e-05
3.05812e-07
1.50869e-05
3.05918e-07
1.50029e-05
3.06292e-07
1.49167e-05
3.06782e-07
1.48379e-05
3.07275e-07
1.47719e-05
3.07706e-07
1.47209e-05
3.08058e-07
1.4685e-05
3.08346e-07
1.46626e-05
3.08596e-07
1.46497e-05
3.08831e-07
1.46405e-05
3.09064e-07
1.46297e-05
3.09305e-07
1.46138e-05
3.09562e-07
1.45921e-05
3.09837e-07
1.45651e-05
3.10125e-07
1.45345e-05
3.10418e-07
1.45021e-05
3.10695e-07
1.44705e-05
3.10943e-07
1.44426e-05
3.11167e-07
1.44216e-05
3.11395e-07
1.44099e-05
3.1166e-07
1.44082e-05
3.11992e-07
1.4415e-05
3.124e-07
1.44272e-05
3.12883e-07
1.44415e-05
3.13435e-07
1.44546e-05
3.14058e-07
1.44643e-05
3.14766e-07
1.44682e-05
3.15594e-07
1.44629e-05
3.16588e-07
1.44422e-05
3.17738e-07
1.43949e-05
3.18737e-07
1.43093e-05
3.18811e-07
1.41904e-05
3.17475e-07
1.40865e-05
3.15899e-07
1.40764e-05
3.15835e-07
1.41898e-05
3.1723e-07
1.43683e-05
3.18927e-07
1.45364e-05
3.20059e-07
1.19736e-05
3.20871e-07
1.14735e-05
3.21453e-07
1.09791e-05
3.21875e-07
1.04969e-05
3.22179e-07
1.00299e-05
3.22391e-07
9.57949e-06
3.22529e-07
9.14606e-06
3.22606e-07
8.72964e-06
3.22633e-07
8.33e-06
3.2262e-07
7.9468e-06
3.22574e-07
7.57961e-06
3.22503e-07
7.22794e-06
3.22415e-07
6.8913e-06
3.22314e-07
6.56917e-06
3.22207e-07
6.26102e-06
3.22099e-07
5.96634e-06
3.21994e-07
5.6846e-06
3.21899e-07
5.41529e-06
3.21815e-07
5.15792e-06
3.21748e-07
4.91198e-06
3.21698e-07
4.677e-06
3.21668e-07
4.45253e-06
3.21656e-07
4.23812e-06
3.2166e-07
4.03336e-06
3.21672e-07
3.83791e-06
3.21683e-07
3.65144e-06
3.21685e-07
3.47369e-06
3.21673e-07
3.30445e-06
3.21654e-07
3.14357e-06
2.99104e-06
3.11448e-07
2.98498e-06
3.11441e-07
3.12995e-06
3.11435e-07
3.2826e-06
3.11434e-07
3.44338e-06
3.11446e-07
3.61299e-06
3.11481e-07
3.79232e-06
3.11549e-07
3.98241e-06
3.11663e-07
4.18436e-06
3.11834e-07
4.39933e-06
3.12064e-07
4.62835e-06
3.12343e-07
4.87225e-06
3.12637e-07
5.1315e-06
3.12901e-07
5.40619e-06
3.13075e-07
5.69611e-06
3.13103e-07
6.0008e-06
3.12943e-07
6.31979e-06
3.12573e-07
6.65268e-06
3.11994e-07
6.9992e-06
3.11228e-07
7.3591e-06
3.10319e-07
7.73204e-06
3.09336e-07
8.11725e-06
3.08385e-07
8.51319e-06
3.07611e-07
8.91735e-06
3.07163e-07
9.32724e-06
3.07106e-07
9.74398e-06
3.0736e-07
1.01784e-05
3.07773e-07
1.06527e-05
3.08175e-07
1.11871e-05
3.08284e-07
1.17793e-05
3.07847e-07
1.24051e-05
3.06762e-07
1.52151e-05
3.05603e-07
1.52056e-05
3.04777e-07
1.51587e-05
3.0443e-07
1.50873e-05
3.04514e-07
1.50028e-05
3.04886e-07
1.49164e-05
3.05389e-07
1.48374e-05
3.05907e-07
1.47714e-05
3.06372e-07
1.47205e-05
3.06762e-07
1.46846e-05
3.07091e-07
1.46623e-05
3.07384e-07
1.46494e-05
3.07661e-07
1.46402e-05
3.07935e-07
1.46294e-05
3.0822e-07
1.46136e-05
3.08524e-07
1.45918e-05
3.08849e-07
1.45648e-05
3.0919e-07
1.45341e-05
3.0954e-07
1.45018e-05
3.09883e-07
1.44701e-05
3.10204e-07
1.44422e-05
3.10511e-07
1.44212e-05
3.1083e-07
1.44095e-05
3.11195e-07
1.44078e-05
3.11634e-07
1.44145e-05
3.12156e-07
1.44267e-05
3.1276e-07
1.44409e-05
3.13439e-07
1.4454e-05
3.14194e-07
1.44636e-05
3.15039e-07
1.44674e-05
3.16005e-07
1.4462e-05
3.17133e-07
1.4441e-05
3.18395e-07
1.43936e-05
3.19474e-07
1.43082e-05
3.19624e-07
1.41903e-05
3.1843e-07
1.40877e-05
3.17063e-07
1.40778e-05
3.17204e-07
1.41897e-05
3.18779e-07
1.43667e-05
3.20642e-07
1.45346e-05
3.21899e-07
1.19723e-05
3.22819e-07
1.14726e-05
3.23493e-07
1.09784e-05
3.23996e-07
1.04964e-05
3.2437e-07
1.00295e-05
3.24644e-07
9.57921e-06
3.24834e-07
9.14587e-06
3.24957e-07
8.72952e-06
3.25022e-07
8.32994e-06
3.25042e-07
7.94678e-06
3.25023e-07
7.57962e-06
3.24976e-07
7.22799e-06
3.24906e-07
6.89137e-06
3.2482e-07
6.56925e-06
3.24725e-07
6.26112e-06
3.24626e-07
5.96644e-06
3.24529e-07
5.6847e-06
3.24437e-07
5.41538e-06
3.24356e-07
5.158e-06
3.24287e-07
4.91205e-06
3.24234e-07
4.67706e-06
3.24197e-07
4.45256e-06
3.24176e-07
4.23814e-06
3.24167e-07
4.03337e-06
3.24163e-07
3.83791e-06
3.24156e-07
3.65144e-06
3.2414e-07
3.47371e-06
3.24115e-07
3.30448e-06
3.24089e-07
3.14359e-06
2.99106e-06
3.10544e-07
2.98499e-06
3.10537e-07
3.12996e-06
3.10531e-07
3.28261e-06
3.10531e-07
3.44338e-06
3.10545e-07
3.61298e-06
3.1058e-07
3.79229e-06
3.1065e-07
3.98234e-06
3.10766e-07
4.18424e-06
3.1094e-07
4.39915e-06
3.11173e-07
4.62812e-06
3.11454e-07
4.87197e-06
3.11751e-07
5.1312e-06
3.12018e-07
5.40593e-06
3.12193e-07
5.69593e-06
3.12221e-07
6.00077e-06
3.12055e-07
6.31996e-06
3.11673e-07
6.65307e-06
3.11074e-07
6.99979e-06
3.1028e-07
7.35989e-06
3.09335e-07
7.73298e-06
3.0831e-07
8.11828e-06
3.07312e-07
8.51418e-06
3.06489e-07
8.91818e-06
3.05991e-07
9.32774e-06
3.05887e-07
9.74409e-06
3.0611e-07
1.01782e-05
3.0651e-07
1.06523e-05
3.06907e-07
1.11867e-05
3.07006e-07
1.17792e-05
3.06545e-07
1.24055e-05
3.05409e-07
1.52163e-05
3.0419e-07
1.52068e-05
3.03312e-07
1.51596e-05
3.02928e-07
1.50877e-05
3.02993e-07
1.50027e-05
3.03361e-07
1.4916e-05
3.03877e-07
1.48369e-05
3.04417e-07
1.47708e-05
3.04911e-07
1.472e-05
3.05336e-07
1.46842e-05
3.05704e-07
1.46619e-05
3.06036e-07
1.46491e-05
3.06354e-07
1.46399e-05
3.06671e-07
1.46291e-05
3.07e-07
1.46132e-05
3.07354e-07
1.45914e-05
3.07734e-07
1.45644e-05
3.08135e-07
1.45337e-05
3.0855e-07
1.45013e-05
3.08966e-07
1.44697e-05
3.09371e-07
1.44418e-05
3.09771e-07
1.44208e-05
3.10193e-07
1.44091e-05
3.10668e-07
1.44073e-05
3.11226e-07
1.4414e-05
3.11873e-07
1.44261e-05
3.12608e-07
1.44401e-05
3.13425e-07
1.44532e-05
3.14322e-07
1.44627e-05
3.15312e-07
1.44664e-05
3.16425e-07
1.44609e-05
3.17696e-07
1.44398e-05
3.19087e-07
1.43922e-05
3.20276e-07
1.4307e-05
3.2055e-07
1.419e-05
3.19544e-07
1.40887e-05
3.18412e-07
1.40789e-05
3.18765e-07
1.41893e-05
3.20523e-07
1.43649e-05
3.22561e-07
1.45325e-05
3.23953e-07
1.1971e-05
3.24991e-07
1.14716e-05
3.25769e-07
1.09777e-05
3.26363e-07
1.04958e-05
3.26817e-07
1.00291e-05
3.2716e-07
9.57887e-06
3.27412e-07
9.14562e-06
3.27587e-07
8.72934e-06
3.27698e-07
8.32983e-06
3.27757e-07
7.94672e-06
3.27772e-07
7.57961e-06
3.27752e-07
7.22801e-06
3.27705e-07
6.89142e-06
3.27639e-07
6.56932e-06
3.2756e-07
6.2612e-06
3.27473e-07
5.96652e-06
3.27385e-07
5.68479e-06
3.273e-07
5.41547e-06
3.27222e-07
5.15808e-06
3.27155e-07
4.91212e-06
3.27101e-07
4.67711e-06
3.27061e-07
4.4526e-06
3.27034e-07
4.23816e-06
3.27018e-07
4.03339e-06
3.27005e-07
3.83792e-06
3.26988e-07
3.65146e-06
3.26964e-07
3.47373e-06
3.26933e-07
3.30451e-06
3.26903e-07
3.14362e-06
2.99108e-06
3.09524e-07
2.98499e-06
3.09519e-07
3.12996e-06
3.09516e-07
3.28261e-06
3.09519e-07
3.44337e-06
3.09534e-07
3.61296e-06
3.09571e-07
3.79225e-06
3.09642e-07
3.98227e-06
3.09758e-07
4.18413e-06
3.09929e-07
4.39898e-06
3.10158e-07
4.62789e-06
3.10434e-07
4.87169e-06
3.10726e-07
5.1309e-06
3.10987e-07
5.40567e-06
3.11157e-07
5.69576e-06
3.11177e-07
6.00075e-06
3.11002e-07
6.32013e-06
3.10606e-07
6.65346e-06
3.09987e-07
7.00041e-06
3.09167e-07
7.36071e-06
3.08189e-07
7.73396e-06
3.07127e-07
8.11934e-06
3.06089e-07
8.51522e-06
3.05226e-07
8.91904e-06
3.0469e-07
9.32828e-06
3.04556e-07
9.74422e-06
3.04757e-07
1.0178e-05
3.05143e-07
1.06519e-05
3.05522e-07
1.11863e-05
3.05596e-07
1.17792e-05
3.051e-07
1.2406e-05
3.03912e-07
1.52174e-05
3.0264e-07
1.52081e-05
3.01716e-07
1.51605e-05
3.013e-07
1.50881e-05
3.01349e-07
1.50027e-05
3.01717e-07
1.49156e-05
3.02242e-07
1.48363e-05
3.02802e-07
1.47703e-05
3.03323e-07
1.47194e-05
3.0378e-07
1.46837e-05
3.04182e-07
1.46615e-05
3.04552e-07
1.46487e-05
3.04908e-07
1.46396e-05
3.05268e-07
1.46287e-05
3.05644e-07
1.46129e-05
3.0605e-07
1.4591e-05
3.06489e-07
1.4564e-05
3.06957e-07
1.45333e-05
3.07445e-07
1.45008e-05
3.07943e-07
1.44692e-05
3.08441e-07
1.44413e-05
3.08945e-07
1.44203e-05
3.09479e-07
1.44086e-05
3.10076e-07
1.44067e-05
3.10762e-07
1.44133e-05
3.11546e-07
1.44253e-05
3.12423e-07
1.44393e-05
3.13388e-07
1.44522e-05
3.14438e-07
1.44616e-05
3.15584e-07
1.44652e-05
3.16855e-07
1.44596e-05
3.1828e-07
1.44383e-05
3.19819e-07
1.43907e-05
3.21151e-07
1.43057e-05
3.21592e-07
1.41895e-05
3.20816e-07
1.40895e-05
3.19944e-07
1.40798e-05
3.20518e-07
1.41887e-05
3.22463e-07
1.4363e-05
3.24684e-07
1.45303e-05
3.26221e-07
1.19694e-05
3.2739e-07
1.14704e-05
3.28283e-07
1.09768e-05
3.28978e-07
1.04951e-05
3.29522e-07
1.00285e-05
3.29945e-07
9.57845e-06
3.30266e-07
9.1453e-06
3.30502e-07
8.72911e-06
3.30666e-07
8.32966e-06
3.3077e-07
7.94662e-06
3.30824e-07
7.57956e-06
3.30838e-07
7.228e-06
3.30819e-07
6.89144e-06
3.30776e-07
6.56937e-06
3.30716e-07
6.26126e-06
3.30645e-07
5.9666e-06
3.30569e-07
5.68486e-06
3.30493e-07
5.41555e-06
3.30421e-07
5.15815e-06
3.30358e-07
4.91218e-06
3.30305e-07
4.67716e-06
3.30266e-07
4.45264e-06
3.30238e-07
4.23819e-06
3.30219e-07
4.03341e-06
3.30203e-07
3.83794e-06
3.30183e-07
3.65148e-06
3.30157e-07
3.47376e-06
3.30124e-07
3.30454e-06
3.30094e-07
3.14365e-06
2.99109e-06
3.08388e-07
2.98499e-06
3.08387e-07
3.12996e-06
3.08387e-07
3.28261e-06
3.08392e-07
3.44337e-06
3.0841e-07
3.61294e-06
3.08449e-07
3.79221e-06
3.08519e-07
3.9822e-06
3.08632e-07
4.18402e-06
3.08798e-07
4.39881e-06
3.09019e-07
4.62766e-06
3.09284e-07
4.87142e-06
3.09565e-07
5.13062e-06
3.09813e-07
5.40542e-06
3.09971e-07
5.6956e-06
3.0998e-07
6.00074e-06
3.09791e-07
6.32032e-06
3.09379e-07
6.65387e-06
3.0874e-07
7.00105e-06
3.07894e-07
7.36156e-06
3.06886e-07
7.73497e-06
3.05788e-07
8.12044e-06
3.04716e-07
8.5163e-06
3.0382e-07
8.91993e-06
3.03258e-07
9.32884e-06
3.03106e-07
9.74437e-06
3.03294e-07
1.01778e-05
3.03666e-07
1.06515e-05
3.04019e-07
1.1186e-05
3.04054e-07
1.17791e-05
3.03515e-07
1.24066e-05
3.02272e-07
1.52187e-05
3.00949e-07
1.52094e-05
2.99985e-07
1.51615e-05
2.99543e-07
1.50885e-05
2.99579e-07
1.50026e-05
2.99947e-07
1.49153e-05
3.00483e-07
1.48358e-05
3.0106e-07
1.47697e-05
3.01605e-07
1.47189e-05
3.0209e-07
1.46833e-05
3.02524e-07
1.46611e-05
3.02929e-07
1.46483e-05
3.03323e-07
1.46392e-05
3.03725e-07
1.46283e-05
3.04149e-07
1.46124e-05
3.0461e-07
1.45906e-05
3.05114e-07
1.45635e-05
3.05654e-07
1.45327e-05
3.06223e-07
1.45003e-05
3.06811e-07
1.44686e-05
3.07411e-07
1.44407e-05
3.08028e-07
1.44197e-05
3.08685e-07
1.44079e-05
3.09414e-07
1.4406e-05
3.10239e-07
1.44125e-05
3.1117e-07
1.44244e-05
3.12201e-07
1.44382e-05
3.13325e-07
1.44511e-05
3.14539e-07
1.44604e-05
3.15854e-07
1.44639e-05
3.17294e-07
1.44582e-05
3.1889e-07
1.44367e-05
3.20597e-07
1.4389e-05
3.22102e-07
1.43042e-05
3.22749e-07
1.41889e-05
3.22237e-07
1.409e-05
3.21648e-07
1.40804e-05
3.22456e-07
1.41879e-05
3.24598e-07
1.43608e-05
3.27013e-07
1.45279e-05
3.28708e-07
1.19677e-05
3.30019e-07
1.14691e-05
3.31039e-07
1.09757e-05
3.31848e-07
1.04943e-05
3.32492e-07
1.00279e-05
3.33003e-07
9.57794e-06
3.33403e-07
9.1449e-06
3.33708e-07
8.7288e-06
3.33932e-07
8.32944e-06
3.34088e-07
7.94646e-06
3.34187e-07
7.57946e-06
3.3424e-07
7.22794e-06
3.34254e-07
6.89142e-06
3.34239e-07
6.56938e-06
3.34201e-07
6.2613e-06
3.34149e-07
5.96665e-06
3.34088e-07
5.68492e-06
3.34023e-07
5.41561e-06
3.3396e-07
5.15821e-06
3.33904e-07
4.91224e-06
3.33856e-07
4.67721e-06
3.33819e-07
4.45268e-06
3.33793e-07
4.23822e-06
3.33775e-07
4.03343e-06
3.33759e-07
3.83796e-06
3.33739e-07
3.6515e-06
3.33713e-07
3.47379e-06
3.33682e-07
3.30457e-06
3.33652e-07
3.14368e-06
2.99111e-06
3.07132e-07
2.98499e-06
3.07133e-07
3.12996e-06
3.07136e-07
3.28261e-06
3.07144e-07
3.44336e-06
3.07164e-07
3.61292e-06
3.07203e-07
3.79217e-06
3.07271e-07
3.98213e-06
3.0738e-07
4.18391e-06
3.0754e-07
4.39866e-06
3.07751e-07
4.62745e-06
3.08003e-07
4.87117e-06
3.08269e-07
5.13036e-06
3.08502e-07
5.40518e-06
3.08644e-07
5.69546e-06
3.08637e-07
6.00075e-06
3.08432e-07
6.32053e-06
3.08002e-07
6.6543e-06
3.07341e-07
7.00171e-06
3.06469e-07
7.36243e-06
3.05431e-07
7.73601e-06
3.04302e-07
8.12157e-06
3.03197e-07
8.5174e-06
3.02275e-07
8.92086e-06
3.01693e-07
9.32942e-06
3.01529e-07
9.74454e-06
3.01711e-07
1.01776e-05
3.02069e-07
1.06512e-05
3.02392e-07
1.11857e-05
3.02381e-07
1.17791e-05
3.01793e-07
1.24072e-05
3.00492e-07
1.522e-05
2.9912e-07
1.52108e-05
2.98118e-07
1.51625e-05
2.97652e-07
1.5089e-05
2.97678e-07
1.50026e-05
2.98047e-07
1.49149e-05
2.98593e-07
1.48352e-05
2.99187e-07
1.47691e-05
2.99753e-07
1.47183e-05
3.00265e-07
1.46828e-05
3.00728e-07