/*--------------------------------*- C++ -*----------------------------------*\
  =========                 |
  \\      /  F ield         | OpenFOAM: The Open Source CFD Toolbox
   \\    /   O peration     | Website:  https://openfoam.org
    \\  /    A nd           | Version:  9
     \\/     M anipulation  |
\*---------------------------------------------------------------------------*/
FoamFile
{
    format      ascii;
    class       volScalarField;
    location    "0.15";
    object      rAU;
}
// * * * * * * * * * * * * * * * * * * * * * * * * * * * * * * * * * * * * * //

dimensions      [-1 3 1 0 0 0 0];

internalField   nonuniform List<scalar> 
20000
(
1.1424e-05
1.3022e-05
1.31445e-05
1.32572e-05
1.33601e-05
1.34531e-05
1.3536e-05
1.36084e-05
1.36703e-05
1.3722e-05
1.37643e-05
1.37984e-05
1.38258e-05
1.38484e-05
1.38678e-05
1.38855e-05
1.39026e-05
1.39198e-05
1.3938e-05
1.39578e-05
1.39801e-05
1.40062e-05
1.40378e-05
1.40766e-05
1.4122e-05
1.41672e-05
1.4199e-05
1.42069e-05
1.41966e-05
1.41885e-05
1.42125e-05
1.42203e-05
1.42405e-05
1.42715e-05
1.43087e-05
1.43474e-05
1.43833e-05
1.44137e-05
1.44374e-05
1.44542e-05
1.44647e-05
1.44707e-05
1.4475e-05
1.448e-05
1.44873e-05
1.44974e-05
1.45099e-05
1.45242e-05
1.45394e-05
1.45543e-05
1.45675e-05
1.45775e-05
1.4583e-05
1.45837e-05
1.45803e-05
1.45743e-05
1.45674e-05
1.4561e-05
1.45563e-05
1.45543e-05
1.45566e-05
1.45659e-05
1.45876e-05
1.46283e-05
1.46876e-05
1.47424e-05
1.47484e-05
1.46889e-05
1.45993e-05
1.45159e-05
1.44235e-05
1.43723e-05
1.43331e-05
1.42984e-05
1.42662e-05
1.42355e-05
1.42056e-05
1.41759e-05
1.41461e-05
1.41159e-05
1.40848e-05
1.40526e-05
1.40189e-05
1.39836e-05
1.39461e-05
1.39064e-05
1.38639e-05
1.38185e-05
1.37696e-05
1.3717e-05
1.36602e-05
1.35988e-05
1.35325e-05
1.34607e-05
1.33828e-05
1.32984e-05
1.32067e-05
1.31069e-05
1.29981e-05
1.35858e-05
1.48985e-05
1.77354e-05
1.79622e-05
1.81736e-05
1.83697e-05
1.85507e-05
1.87168e-05
1.88682e-05
1.9005e-05
1.91278e-05
1.92374e-05
1.93352e-05
1.94226e-05
1.95013e-05
1.95728e-05
1.96386e-05
1.96999e-05
1.97577e-05
1.98126e-05
1.98657e-05
1.99177e-05
1.99699e-05
2.00238e-05
2.00808e-05
2.01407e-05
2.01983e-05
2.02438e-05
2.02695e-05
2.02797e-05
2.0295e-05
2.03617e-05
2.03721e-05
2.03878e-05
2.04117e-05
2.04403e-05
2.04698e-05
2.04971e-05
2.05202e-05
2.05381e-05
2.05508e-05
2.05587e-05
2.05633e-05
2.05665e-05
2.05703e-05
2.05758e-05
2.05834e-05
2.05929e-05
2.06037e-05
2.06151e-05
2.06263e-05
2.06363e-05
2.06437e-05
2.06479e-05
2.06484e-05
2.06459e-05
2.06414e-05
2.06362e-05
2.06314e-05
2.06278e-05
2.06263e-05
2.0628e-05
2.06349e-05
2.06512e-05
2.06817e-05
2.07259e-05
2.07664e-05
2.07711e-05
2.07274e-05
2.06605e-05
2.05932e-05
2.0474e-05
2.04132e-05
2.0365e-05
2.03187e-05
2.02727e-05
2.0226e-05
2.0178e-05
2.0128e-05
2.00756e-05
2.00203e-05
1.99616e-05
1.98992e-05
1.98326e-05
1.97611e-05
1.96845e-05
1.9602e-05
1.95132e-05
1.94175e-05
1.93143e-05
1.9203e-05
1.90829e-05
1.89533e-05
1.88136e-05
1.8663e-05
1.85007e-05
1.8326e-05
1.8138e-05
1.79358e-05
1.77186e-05
1.88129e-05
1.48983e-05
1.77352e-05
1.7962e-05
1.81734e-05
1.83695e-05
1.85506e-05
1.87167e-05
1.8868e-05
1.90048e-05
1.91277e-05
1.92374e-05
1.93351e-05
1.94225e-05
1.95011e-05
1.95725e-05
1.96383e-05
1.96996e-05
1.97573e-05
1.98123e-05
1.98654e-05
1.99175e-05
1.99698e-05
2.00239e-05
2.00811e-05
2.0141e-05
2.01987e-05
2.02442e-05
2.02698e-05
2.02798e-05
2.0295e-05
2.03616e-05
2.03722e-05
2.0388e-05
2.0412e-05
2.04406e-05
2.04702e-05
2.04975e-05
2.05205e-05
2.05384e-05
2.0551e-05
2.05589e-05
2.05635e-05
2.05666e-05
2.05704e-05
2.0576e-05
2.05836e-05
2.0593e-05
2.06038e-05
2.06152e-05
2.06264e-05
2.06363e-05
2.06438e-05
2.06479e-05
2.06485e-05
2.06459e-05
2.06414e-05
2.06362e-05
2.06314e-05
2.06279e-05
2.06263e-05
2.0628e-05
2.06349e-05
2.06513e-05
2.06817e-05
2.07256e-05
2.07658e-05
2.07705e-05
2.07272e-05
2.06607e-05
2.05934e-05
2.0474e-05
2.04131e-05
2.03648e-05
2.03184e-05
2.02724e-05
2.02256e-05
2.01775e-05
2.01275e-05
2.00751e-05
2.00197e-05
1.99611e-05
1.98987e-05
1.9832e-05
1.97606e-05
1.96839e-05
1.96014e-05
1.95127e-05
1.9417e-05
1.93138e-05
1.92025e-05
1.90823e-05
1.89528e-05
1.8813e-05
1.86624e-05
1.85002e-05
1.83254e-05
1.81374e-05
1.79352e-05
1.77179e-05
1.88119e-05
1.48983e-05
1.77352e-05
1.79621e-05
1.81734e-05
1.83695e-05
1.85506e-05
1.87167e-05
1.88681e-05
1.90049e-05
1.91278e-05
1.92374e-05
1.93352e-05
1.94225e-05
1.9501e-05
1.95724e-05
1.96381e-05
1.96994e-05
1.9757e-05
1.9812e-05
1.98651e-05
1.99173e-05
1.99697e-05
2.00239e-05
2.00813e-05
2.01415e-05
2.01992e-05
2.02446e-05
2.02701e-05
2.028e-05
2.02951e-05
2.03616e-05
2.03722e-05
2.03881e-05
2.04123e-05
2.0441e-05
2.04706e-05
2.04979e-05
2.05209e-05
2.05387e-05
2.05513e-05
2.05592e-05
2.05637e-05
2.05668e-05
2.05706e-05
2.05761e-05
2.05837e-05
2.05932e-05
2.0604e-05
2.06154e-05
2.06265e-05
2.06364e-05
2.06439e-05
2.0648e-05
2.06485e-05
2.0646e-05
2.06415e-05
2.06363e-05
2.06315e-05
2.06279e-05
2.06264e-05
2.0628e-05
2.0635e-05
2.06513e-05
2.06817e-05
2.07255e-05
2.07652e-05
2.07697e-05
2.07269e-05
2.06609e-05
2.05936e-05
2.0474e-05
2.04129e-05
2.03645e-05
2.0318e-05
2.02719e-05
2.02251e-05
2.01769e-05
2.01269e-05
2.00744e-05
2.00191e-05
1.99604e-05
1.98979e-05
1.98312e-05
1.97598e-05
1.96831e-05
1.96006e-05
1.95118e-05
1.94161e-05
1.93129e-05
1.92016e-05
1.90815e-05
1.89519e-05
1.88122e-05
1.86615e-05
1.84993e-05
1.83246e-05
1.81365e-05
1.79343e-05
1.77169e-05
1.88107e-05
1.48986e-05
1.77355e-05
1.79623e-05
1.81737e-05
1.83698e-05
1.85509e-05
1.8717e-05
1.88684e-05
1.90052e-05
1.91281e-05
1.92377e-05
1.93355e-05
1.94227e-05
1.95012e-05
1.95725e-05
1.96381e-05
1.96992e-05
1.97568e-05
1.98118e-05
1.98649e-05
1.99171e-05
1.99696e-05
2.00239e-05
2.00816e-05
2.01419e-05
2.01998e-05
2.02451e-05
2.02705e-05
2.02803e-05
2.02952e-05
2.03616e-05
2.03722e-05
2.03883e-05
2.04126e-05
2.04414e-05
2.04711e-05
2.04983e-05
2.05213e-05
2.05391e-05
2.05516e-05
2.05595e-05
2.0564e-05
2.05671e-05
2.05709e-05
2.05764e-05
2.0584e-05
2.05934e-05
2.06042e-05
2.06156e-05
2.06267e-05
2.06366e-05
2.0644e-05
2.06481e-05
2.06486e-05
2.06461e-05
2.06416e-05
2.06364e-05
2.06316e-05
2.0628e-05
2.06264e-05
2.0628e-05
2.0635e-05
2.06514e-05
2.06818e-05
2.07253e-05
2.07645e-05
2.07688e-05
2.07265e-05
2.0661e-05
2.05937e-05
2.04739e-05
2.04127e-05
2.03641e-05
2.03176e-05
2.02714e-05
2.02245e-05
2.01763e-05
2.01261e-05
2.00736e-05
2.00182e-05
1.99595e-05
1.9897e-05
1.98302e-05
1.97587e-05
1.9682e-05
1.95995e-05
1.95107e-05
1.9415e-05
1.93117e-05
1.92004e-05
1.90803e-05
1.89507e-05
1.88109e-05
1.86603e-05
1.84981e-05
1.83233e-05
1.81353e-05
1.79331e-05
1.77156e-05
1.88091e-05
1.48991e-05
1.77359e-05
1.79627e-05
1.81741e-05
1.83702e-05
1.85513e-05
1.87175e-05
1.88688e-05
1.90057e-05
1.91286e-05
1.92382e-05
1.93359e-05
1.94231e-05
1.95015e-05
1.95727e-05
1.96381e-05
1.96992e-05
1.97567e-05
1.98116e-05
1.98646e-05
1.99168e-05
1.99694e-05
2.0024e-05
2.00818e-05
2.01424e-05
2.02004e-05
2.02458e-05
2.02711e-05
2.02807e-05
2.02954e-05
2.03615e-05
2.03722e-05
2.03884e-05
2.04129e-05
2.04418e-05
2.04716e-05
2.04989e-05
2.05218e-05
2.05395e-05
2.05521e-05
2.05598e-05
2.05643e-05
2.05674e-05
2.05712e-05
2.05767e-05
2.05843e-05
2.05937e-05
2.06045e-05
2.06158e-05
2.0627e-05
2.06368e-05
2.06442e-05
2.06483e-05
2.06488e-05
2.06462e-05
2.06417e-05
2.06365e-05
2.06317e-05
2.06281e-05
2.06265e-05
2.06281e-05
2.06351e-05
2.06516e-05
2.06819e-05
2.07251e-05
2.07637e-05
2.07679e-05
2.07261e-05
2.0661e-05
2.05938e-05
2.04738e-05
2.04124e-05
2.03637e-05
2.0317e-05
2.02707e-05
2.02238e-05
2.01755e-05
2.01253e-05
2.00727e-05
2.00172e-05
1.99584e-05
1.98958e-05
1.9829e-05
1.97575e-05
1.96807e-05
1.95982e-05
1.95093e-05
1.94135e-05
1.93103e-05
1.91989e-05
1.90787e-05
1.89491e-05
1.88094e-05
1.86587e-05
1.84965e-05
1.83217e-05
1.81337e-05
1.79314e-05
1.77139e-05
1.88071e-05
1.48999e-05
1.77365e-05
1.79634e-05
1.81747e-05
1.83709e-05
1.85519e-05
1.87181e-05
1.88695e-05
1.90064e-05
1.91292e-05
1.92389e-05
1.93366e-05
1.94237e-05
1.9502e-05
1.9573e-05
1.96383e-05
1.96992e-05
1.97566e-05
1.98114e-05
1.98645e-05
1.99167e-05
1.99693e-05
2.0024e-05
2.00821e-05
2.01429e-05
2.0201e-05
2.02464e-05
2.02717e-05
2.02811e-05
2.02956e-05
2.03615e-05
2.03722e-05
2.03885e-05
2.04132e-05
2.04423e-05
2.04721e-05
2.04994e-05
2.05223e-05
2.05401e-05
2.05525e-05
2.05603e-05
2.05647e-05
2.05678e-05
2.05716e-05
2.0577e-05
2.05846e-05
2.05941e-05
2.06048e-05
2.06161e-05
2.06272e-05
2.06371e-05
2.06444e-05
2.06485e-05
2.0649e-05
2.06464e-05
2.06419e-05
2.06367e-05
2.06318e-05
2.06282e-05
2.06266e-05
2.06282e-05
2.06353e-05
2.06517e-05
2.0682e-05
2.07248e-05
2.0763e-05
2.0767e-05
2.07257e-05
2.06611e-05
2.05939e-05
2.04736e-05
2.0412e-05
2.03632e-05
2.03164e-05
2.027e-05
2.02229e-05
2.01745e-05
2.01242e-05
2.00715e-05
2.0016e-05
1.99571e-05
1.98945e-05
1.98276e-05
1.9756e-05
1.96792e-05
1.95965e-05
1.95076e-05
1.94118e-05
1.93085e-05
1.9197e-05
1.90768e-05
1.89472e-05
1.88074e-05
1.86568e-05
1.84945e-05
1.83197e-05
1.81317e-05
1.79293e-05
1.77118e-05
1.88046e-05
1.49009e-05
1.77373e-05
1.79641e-05
1.81755e-05
1.83716e-05
1.85527e-05
1.87189e-05
1.88703e-05
1.90072e-05
1.91301e-05
1.92398e-05
1.93374e-05
1.94244e-05
1.95026e-05
1.95735e-05
1.96387e-05
1.96994e-05
1.97567e-05
1.98114e-05
1.98643e-05
1.99165e-05
1.99693e-05
2.00241e-05
2.00824e-05
2.01434e-05
2.02017e-05
2.02471e-05
2.02723e-05
2.02816e-05
2.02958e-05
2.03616e-05
2.03722e-05
2.03887e-05
2.04135e-05
2.04428e-05
2.04727e-05
2.05001e-05
2.0523e-05
2.05406e-05
2.05531e-05
2.05608e-05
2.05652e-05
2.05683e-05
2.0572e-05
2.05775e-05
2.0585e-05
2.05945e-05
2.06052e-05
2.06165e-05
2.06276e-05
2.06374e-05
2.06447e-05
2.06487e-05
2.06492e-05
2.06466e-05
2.06421e-05
2.06369e-05
2.0632e-05
2.06284e-05
2.06268e-05
2.06284e-05
2.06354e-05
2.06519e-05
2.06821e-05
2.07246e-05
2.07622e-05
2.07661e-05
2.07253e-05
2.06611e-05
2.0594e-05
2.04734e-05
2.04116e-05
2.03626e-05
2.03157e-05
2.02691e-05
2.0222e-05
2.01735e-05
2.01231e-05
2.00703e-05
2.00146e-05
1.99557e-05
1.9893e-05
1.9826e-05
1.97543e-05
1.96774e-05
1.95947e-05
1.95057e-05
1.94098e-05
1.93064e-05
1.91949e-05
1.90747e-05
1.8945e-05
1.88052e-05
1.86545e-05
1.84921e-05
1.83173e-05
1.81292e-05
1.79268e-05
1.77092e-05
1.88015e-05
1.49021e-05
1.77382e-05
1.79651e-05
1.81764e-05
1.83725e-05
1.85536e-05
1.87198e-05
1.88712e-05
1.90081e-05
1.9131e-05
1.92407e-05
1.93383e-05
1.94253e-05
1.95033e-05
1.95741e-05
1.96391e-05
1.96996e-05
1.97568e-05
1.98114e-05
1.98643e-05
1.99165e-05
1.99692e-05
2.00242e-05
2.00827e-05
2.0144e-05
2.02024e-05
2.02479e-05
2.0273e-05
2.02822e-05
2.02961e-05
2.03616e-05
2.03722e-05
2.03889e-05
2.04139e-05
2.04433e-05
2.04733e-05
2.05007e-05
2.05236e-05
2.05413e-05
2.05537e-05
2.05613e-05
2.05657e-05
2.05688e-05
2.05725e-05
2.0578e-05
2.05855e-05
2.05949e-05
2.06056e-05
2.0617e-05
2.0628e-05
2.06378e-05
2.06451e-05
2.0649e-05
2.06495e-05
2.06469e-05
2.06424e-05
2.06371e-05
2.06323e-05
2.06286e-05
2.0627e-05
2.06286e-05
2.06357e-05
2.06521e-05
2.06823e-05
2.07244e-05
2.07614e-05
2.07652e-05
2.07248e-05
2.06611e-05
2.0594e-05
2.04732e-05
2.04111e-05
2.0362e-05
2.03149e-05
2.02682e-05
2.02209e-05
2.01723e-05
2.01218e-05
2.00689e-05
2.00131e-05
1.99541e-05
1.98912e-05
1.98242e-05
1.97524e-05
1.96753e-05
1.95926e-05
1.95035e-05
1.94075e-05
1.9304e-05
1.91925e-05
1.90722e-05
1.89424e-05
1.88025e-05
1.86518e-05
1.84894e-05
1.83145e-05
1.81263e-05
1.79239e-05
1.77062e-05
1.8798e-05
1.49034e-05
1.77393e-05
1.79661e-05
1.81775e-05
1.83736e-05
1.85546e-05
1.87208e-05
1.88722e-05
1.90092e-05
1.91321e-05
1.92418e-05
1.93394e-05
1.94263e-05
1.95042e-05
1.95748e-05
1.96397e-05
1.97e-05
1.9757e-05
1.98115e-05
1.98643e-05
1.99165e-05
1.99693e-05
2.00244e-05
2.00831e-05
2.01446e-05
2.02032e-05
2.02487e-05
2.02738e-05
2.02828e-05
2.02965e-05
2.03617e-05
2.03723e-05
2.03891e-05
2.04142e-05
2.04438e-05
2.0474e-05
2.05014e-05
2.05243e-05
2.0542e-05
2.05543e-05
2.0562e-05
2.05663e-05
2.05694e-05
2.0573e-05
2.05785e-05
2.05861e-05
2.05955e-05
2.06062e-05
2.06175e-05
2.06285e-05
2.06382e-05
2.06455e-05
2.06494e-05
2.06499e-05
2.06473e-05
2.06427e-05
2.06375e-05
2.06325e-05
2.06289e-05
2.06272e-05
2.06288e-05
2.06359e-05
2.06524e-05
2.06824e-05
2.07241e-05
2.07607e-05
2.07643e-05
2.07244e-05
2.06611e-05
2.05941e-05
2.04729e-05
2.04106e-05
2.03613e-05
2.0314e-05
2.02672e-05
2.02197e-05
2.0171e-05
2.01204e-05
2.00673e-05
2.00115e-05
1.99523e-05
1.98893e-05
1.98221e-05
1.97502e-05
1.96731e-05
1.95902e-05
1.9501e-05
1.94049e-05
1.93014e-05
1.91897e-05
1.90693e-05
1.89395e-05
1.87995e-05
1.86487e-05
1.84862e-05
1.83113e-05
1.8123e-05
1.79204e-05
1.77027e-05
1.87939e-05
1.4905e-05
1.77406e-05
1.79673e-05
1.81786e-05
1.83747e-05
1.85558e-05
1.8722e-05
1.88734e-05
1.90104e-05
1.91333e-05
1.9243e-05
1.93406e-05
1.94274e-05
1.95052e-05
1.95757e-05
1.96403e-05
1.97005e-05
1.97573e-05
1.98117e-05
1.98644e-05
1.99166e-05
1.99694e-05
2.00246e-05
2.00835e-05
2.01452e-05
2.02039e-05
2.02495e-05
2.02746e-05
2.02834e-05
2.02969e-05
2.03618e-05
2.03724e-05
2.03893e-05
2.04147e-05
2.04444e-05
2.04747e-05
2.05022e-05
2.05251e-05
2.05427e-05
2.0555e-05
2.05626e-05
2.0567e-05
2.057e-05
2.05737e-05
2.05791e-05
2.05867e-05
2.05961e-05
2.06067e-05
2.0618e-05
2.0629e-05
2.06387e-05
2.06459e-05
2.06499e-05
2.06503e-05
2.06477e-05
2.06431e-05
2.06378e-05
2.06329e-05
2.06292e-05
2.06275e-05
2.06291e-05
2.06362e-05
2.06527e-05
2.06826e-05
2.07239e-05
2.07599e-05
2.07635e-05
2.0724e-05
2.06611e-05
2.05941e-05
2.04726e-05
2.04101e-05
2.03605e-05
2.03131e-05
2.02661e-05
2.02185e-05
2.01696e-05
2.01188e-05
2.00656e-05
2.00096e-05
1.99503e-05
1.98872e-05
1.98199e-05
1.97479e-05
1.96706e-05
1.95876e-05
1.94983e-05
1.94021e-05
1.92984e-05
1.91867e-05
1.90662e-05
1.89363e-05
1.87962e-05
1.86453e-05
1.84827e-05
1.83076e-05
1.81192e-05
1.79166e-05
1.76988e-05
1.87892e-05
1.49067e-05
1.7742e-05
1.79687e-05
1.818e-05
1.8376e-05
1.85571e-05
1.87232e-05
1.88747e-05
1.90117e-05
1.91347e-05
1.92444e-05
1.93419e-05
1.94287e-05
1.95064e-05
1.95766e-05
1.96411e-05
1.97011e-05
1.97578e-05
1.9812e-05
1.98646e-05
1.99167e-05
1.99696e-05
2.00249e-05
2.0084e-05
2.01459e-05
2.02048e-05
2.02504e-05
2.02755e-05
2.02841e-05
2.02973e-05
2.03619e-05
2.03725e-05
2.03896e-05
2.04151e-05
2.0445e-05
2.04754e-05
2.0503e-05
2.05259e-05
2.05435e-05
2.05558e-05
2.05634e-05
2.05677e-05
2.05707e-05
2.05744e-05
2.05798e-05
2.05873e-05
2.05967e-05
2.06074e-05
2.06187e-05
2.06296e-05
2.06393e-05
2.06465e-05
2.06504e-05
2.06508e-05
2.06482e-05
2.06436e-05
2.06383e-05
2.06333e-05
2.06296e-05
2.06279e-05
2.06295e-05
2.06366e-05
2.0653e-05
2.06827e-05
2.07237e-05
2.07592e-05
2.07627e-05
2.07236e-05
2.06611e-05
2.05941e-05
2.04722e-05
2.04095e-05
2.03597e-05
2.03121e-05
2.02649e-05
2.02171e-05
2.01681e-05
2.01171e-05
2.00638e-05
2.00076e-05
1.99482e-05
1.98849e-05
1.98175e-05
1.97453e-05
1.96679e-05
1.95847e-05
1.94953e-05
1.9399e-05
1.92952e-05
1.91833e-05
1.90627e-05
1.89327e-05
1.87925e-05
1.86415e-05
1.84788e-05
1.83036e-05
1.81151e-05
1.79123e-05
1.76944e-05
1.87841e-05
1.49086e-05
1.77435e-05
1.79702e-05
1.81814e-05
1.83775e-05
1.85585e-05
1.87247e-05
1.88761e-05
1.90131e-05
1.91361e-05
1.92458e-05
1.93433e-05
1.943e-05
1.95076e-05
1.95777e-05
1.9642e-05
1.97018e-05
1.97583e-05
1.98123e-05
1.98649e-05
1.99169e-05
1.99698e-05
2.00253e-05
2.00845e-05
2.01466e-05
2.02057e-05
2.02514e-05
2.02764e-05
2.02849e-05
2.02978e-05
2.03621e-05
2.03727e-05
2.03899e-05
2.04156e-05
2.04457e-05
2.04762e-05
2.05039e-05
2.05268e-05
2.05444e-05
2.05566e-05
2.05642e-05
2.05685e-05
2.05715e-05
2.05751e-05
2.05805e-05
2.05881e-05
2.05975e-05
2.06081e-05
2.06194e-05
2.06303e-05
2.06399e-05
2.06471e-05
2.0651e-05
2.06514e-05
2.06487e-05
2.06441e-05
2.06388e-05
2.06338e-05
2.06301e-05
2.06283e-05
2.06299e-05
2.0637e-05
2.06534e-05
2.0683e-05
2.07236e-05
2.07586e-05
2.07619e-05
2.07232e-05
2.06611e-05
2.05941e-05
2.04718e-05
2.04089e-05
2.03588e-05
2.0311e-05
2.02636e-05
2.02157e-05
2.01664e-05
2.01153e-05
2.00618e-05
2.00055e-05
1.99458e-05
1.98824e-05
1.98148e-05
1.97425e-05
1.96649e-05
1.95816e-05
1.9492e-05
1.93956e-05
1.92917e-05
1.91796e-05
1.90589e-05
1.89287e-05
1.87884e-05
1.86373e-05
1.84744e-05
1.82991e-05
1.81105e-05
1.79076e-05
1.76896e-05
1.87784e-05
1.49107e-05
1.77452e-05
1.79719e-05
1.81831e-05
1.83791e-05
1.85601e-05
1.87262e-05
1.88777e-05
1.90147e-05
1.91377e-05
1.92473e-05
1.93448e-05
1.94315e-05
1.95089e-05
1.95789e-05
1.9643e-05
1.97026e-05
1.97589e-05
1.98128e-05
1.98652e-05
1.99172e-05
1.99701e-05
2.00257e-05
2.00851e-05
2.01474e-05
2.02066e-05
2.02524e-05
2.02773e-05
2.02856e-05
2.02983e-05
2.03623e-05
2.03729e-05
2.03902e-05
2.04162e-05
2.04464e-05
2.04771e-05
2.05048e-05
2.05277e-05
2.05453e-05
2.05575e-05
2.0565e-05
2.05693e-05
2.05723e-05
2.05759e-05
2.05814e-05
2.05889e-05
2.05983e-05
2.06089e-05
2.06202e-05
2.06311e-05
2.06407e-05
2.06478e-05
2.06517e-05
2.0652e-05
2.06494e-05
2.06447e-05
2.06394e-05
2.06344e-05
2.06306e-05
2.06288e-05
2.06304e-05
2.06374e-05
2.06538e-05
2.06833e-05
2.07235e-05
2.0758e-05
2.07612e-05
2.07229e-05
2.06612e-05
2.05942e-05
2.04715e-05
2.04082e-05
2.03579e-05
2.03099e-05
2.02623e-05
2.02141e-05
2.01647e-05
2.01134e-05
2.00597e-05
2.00032e-05
1.99433e-05
1.98798e-05
1.9812e-05
1.97394e-05
1.96617e-05
1.95783e-05
1.94885e-05
1.93919e-05
1.92878e-05
1.91756e-05
1.90547e-05
1.89244e-05
1.8784e-05
1.86327e-05
1.84697e-05
1.82943e-05
1.81055e-05
1.79025e-05
1.76844e-05
1.87722e-05
1.49129e-05
1.77471e-05
1.79737e-05
1.81848e-05
1.83808e-05
1.85618e-05
1.87279e-05
1.88794e-05
1.90164e-05
1.91393e-05
1.9249e-05
1.93464e-05
1.9433e-05
1.95103e-05
1.95801e-05
1.9644e-05
1.97035e-05
1.97596e-05
1.98133e-05
1.98656e-05
1.99176e-05
1.99705e-05
2.00262e-05
2.00858e-05
2.01483e-05
2.02077e-05
2.02535e-05
2.02783e-05
2.02864e-05
2.02988e-05
2.03625e-05
2.03731e-05
2.03906e-05
2.04167e-05
2.04472e-05
2.04779e-05
2.05057e-05
2.05287e-05
2.05462e-05
2.05584e-05
2.0566e-05
2.05702e-05
2.05732e-05
2.05768e-05
2.05822e-05
2.05898e-05
2.05992e-05
2.06098e-05
2.0621e-05
2.06319e-05
2.06415e-05
2.06486e-05
2.06524e-05
2.06528e-05
2.06501e-05
2.06455e-05
2.06401e-05
2.0635e-05
2.06312e-05
2.06294e-05
2.06309e-05
2.0638e-05
2.06543e-05
2.06836e-05
2.07235e-05
2.07576e-05
2.07606e-05
2.07226e-05
2.06612e-05
2.05942e-05
2.04711e-05
2.04075e-05
2.0357e-05
2.03087e-05
2.02609e-05
2.02125e-05
2.01628e-05
2.01113e-05
2.00574e-05
2.00007e-05
1.99407e-05
1.98769e-05
1.98089e-05
1.97362e-05
1.96583e-05
1.95746e-05
1.94847e-05
1.93879e-05
1.92836e-05
1.91713e-05
1.90502e-05
1.89198e-05
1.87792e-05
1.86277e-05
1.84646e-05
1.8289e-05
1.81001e-05
1.78969e-05
1.76787e-05
1.87656e-05
1.49154e-05
1.77491e-05
1.79756e-05
1.81868e-05
1.83827e-05
1.85636e-05
1.87297e-05
1.88812e-05
1.90182e-05
1.91411e-05
1.92508e-05
1.93482e-05
1.94346e-05
1.95118e-05
1.95815e-05
1.96452e-05
1.97044e-05
1.97603e-05
1.98139e-05
1.98661e-05
1.9918e-05
1.99709e-05
2.00267e-05
2.00865e-05
2.01493e-05
2.02087e-05
2.02546e-05
2.02794e-05
2.02873e-05
2.02994e-05
2.03627e-05
2.03733e-05
2.0391e-05
2.04174e-05
2.0448e-05
2.04789e-05
2.05067e-05
2.05297e-05
2.05472e-05
2.05594e-05
2.05669e-05
2.05712e-05
2.05741e-05
2.05778e-05
2.05832e-05
2.05907e-05
2.06001e-05
2.06108e-05
2.0622e-05
2.06329e-05
2.06424e-05
2.06495e-05
2.06533e-05
2.06536e-05
2.06509e-05
2.06463e-05
2.06409e-05
2.06358e-05
2.06319e-05
2.06301e-05
2.06316e-05
2.06386e-05
2.06549e-05
2.06841e-05
2.07236e-05
2.07572e-05
2.07601e-05
2.07224e-05
2.06613e-05
2.05943e-05
2.04706e-05
2.04068e-05
2.0356e-05
2.03074e-05
2.02594e-05
2.02108e-05
2.01609e-05
2.01091e-05
2.0055e-05
1.9998e-05
1.99378e-05
1.98738e-05
1.98056e-05
1.97327e-05
1.96546e-05
1.95707e-05
1.94806e-05
1.93836e-05
1.92791e-05
1.91666e-05
1.90454e-05
1.89147e-05
1.8774e-05
1.86223e-05
1.84591e-05
1.82833e-05
1.80942e-05
1.78909e-05
1.76725e-05
1.87583e-05
1.49181e-05
1.77512e-05
1.79778e-05
1.81888e-05
1.83847e-05
1.85656e-05
1.87317e-05
1.88831e-05
1.90201e-05
1.9143e-05
1.92527e-05
1.935e-05
1.94364e-05
1.95134e-05
1.95829e-05
1.96464e-05
1.97054e-05
1.97611e-05
1.98146e-05
1.98666e-05
1.99184e-05
1.99714e-05
2.00273e-05
2.00873e-05
2.01503e-05
2.02099e-05
2.02558e-05
2.02805e-05
2.02882e-05
2.03e-05
2.0363e-05
2.03736e-05
2.03914e-05
2.0418e-05
2.04489e-05
2.04799e-05
2.05078e-05
2.05308e-05
2.05483e-05
2.05605e-05
2.0568e-05
2.05722e-05
2.05752e-05
2.05788e-05
2.05842e-05
2.05918e-05
2.06012e-05
2.06118e-05
2.0623e-05
2.06339e-05
2.06434e-05
2.06505e-05
2.06543e-05
2.06545e-05
2.06518e-05
2.06472e-05
2.06417e-05
2.06366e-05
2.06327e-05
2.06309e-05
2.06323e-05
2.06393e-05
2.06555e-05
2.06846e-05
2.07237e-05
2.07568e-05
2.07596e-05
2.07223e-05
2.06615e-05
2.05944e-05
2.04702e-05
2.0406e-05
2.03549e-05
2.03061e-05
2.02578e-05
2.02089e-05
2.01588e-05
2.01068e-05
2.00524e-05
1.99952e-05
1.99348e-05
1.98705e-05
1.98021e-05
1.97289e-05
1.96506e-05
1.95665e-05
1.94762e-05
1.9379e-05
1.92743e-05
1.91616e-05
1.90401e-05
1.89093e-05
1.87684e-05
1.86165e-05
1.84531e-05
1.82771e-05
1.80879e-05
1.78844e-05
1.76659e-05
1.87505e-05
1.4921e-05
1.77536e-05
1.798e-05
1.81911e-05
1.83869e-05
1.85678e-05
1.87338e-05
1.88852e-05
1.90221e-05
1.91451e-05
1.92546e-05
1.93519e-05
1.94382e-05
1.95151e-05
1.95844e-05
1.96477e-05
1.97065e-05
1.9762e-05
1.98153e-05
1.98672e-05
1.9919e-05
1.9972e-05
2.0028e-05
2.00882e-05
2.01513e-05
2.02111e-05
2.0257e-05
2.02816e-05
2.02891e-05
2.03007e-05
2.03633e-05
2.03739e-05
2.03919e-05
2.04187e-05
2.04498e-05
2.04809e-05
2.05089e-05
2.05319e-05
2.05495e-05
2.05616e-05
2.05691e-05
2.05733e-05
2.05763e-05
2.05799e-05
2.05853e-05
2.05929e-05
2.06023e-05
2.0613e-05
2.06242e-05
2.0635e-05
2.06445e-05
2.06516e-05
2.06553e-05
2.06556e-05
2.06529e-05
2.06482e-05
2.06427e-05
2.06376e-05
2.06336e-05
2.06317e-05
2.06331e-05
2.06401e-05
2.06563e-05
2.06851e-05
2.07239e-05
2.07566e-05
2.07592e-05
2.07222e-05
2.06616e-05
2.05945e-05
2.04698e-05
2.04053e-05
2.03539e-05
2.03047e-05
2.02561e-05
2.0207e-05
2.01566e-05
2.01043e-05
2.00497e-05
1.99923e-05
1.99315e-05
1.9867e-05
1.97984e-05
1.9725e-05
1.96464e-05
1.9562e-05
1.94715e-05
1.9374e-05
1.92691e-05
1.91562e-05
1.90345e-05
1.89035e-05
1.87623e-05
1.86103e-05
1.84467e-05
1.82705e-05
1.8081e-05
1.78774e-05
1.76587e-05
1.87421e-05
1.4924e-05
1.7756e-05
1.79824e-05
1.81934e-05
1.83892e-05
1.857e-05
1.8736e-05
1.88873e-05
1.90243e-05
1.91472e-05
1.92567e-05
1.93539e-05
1.94401e-05
1.95169e-05
1.9586e-05
1.96491e-05
1.97077e-05
1.9763e-05
1.98161e-05
1.98679e-05
1.99196e-05
1.99726e-05
2.00287e-05
2.00891e-05
2.01525e-05
2.02124e-05
2.02583e-05
2.02828e-05
2.029e-05
2.03013e-05
2.03636e-05
2.03742e-05
2.03924e-05
2.04194e-05
2.04507e-05
2.0482e-05
2.05101e-05
2.05331e-05
2.05507e-05
2.05628e-05
2.05702e-05
2.05744e-05
2.05774e-05
2.05811e-05
2.05865e-05
2.05941e-05
2.06035e-05
2.06142e-05
2.06254e-05
2.06363e-05
2.06458e-05
2.06528e-05
2.06565e-05
2.06568e-05
2.0654e-05
2.06493e-05
2.06438e-05
2.06387e-05
2.06347e-05
2.06327e-05
2.0634e-05
2.06409e-05
2.06571e-05
2.06858e-05
2.07243e-05
2.07565e-05
2.0759e-05
2.07222e-05
2.06619e-05
2.05947e-05
2.04694e-05
2.04045e-05
2.03528e-05
2.03033e-05
2.02544e-05
2.0205e-05
2.01543e-05
2.01018e-05
2.00469e-05
1.99891e-05
1.99281e-05
1.98634e-05
1.97944e-05
1.97207e-05
1.96419e-05
1.95573e-05
1.94664e-05
1.93687e-05
1.92636e-05
1.91504e-05
1.90285e-05
1.88973e-05
1.87559e-05
1.86036e-05
1.84398e-05
1.82634e-05
1.80737e-05
1.78699e-05
1.76511e-05
1.87331e-05
1.49272e-05
1.77586e-05
1.7985e-05
1.81959e-05
1.83916e-05
1.85724e-05
1.87383e-05
1.88896e-05
1.90265e-05
1.91494e-05
1.92589e-05
1.9356e-05
1.94421e-05
1.95188e-05
1.95877e-05
1.96506e-05
1.9709e-05
1.97641e-05
1.9817e-05
1.98686e-05
1.99202e-05
1.99733e-05
2.00295e-05
2.00901e-05
2.01537e-05
2.02137e-05
2.02596e-05
2.0284e-05
2.0291e-05
2.0302e-05
2.03639e-05
2.03746e-05
2.03929e-05
2.04202e-05
2.04517e-05
2.04831e-05
2.05113e-05
2.05344e-05
2.05519e-05
2.0564e-05
2.05715e-05
2.05757e-05
2.05786e-05
2.05823e-05
2.05878e-05
2.05954e-05
2.06048e-05
2.06155e-05
2.06267e-05
2.06376e-05
2.06471e-05
2.06541e-05
2.06578e-05
2.0658e-05
2.06553e-05
2.06505e-05
2.0645e-05
2.06398e-05
2.06358e-05
2.06338e-05
2.06351e-05
2.06419e-05
2.0658e-05
2.06866e-05
2.07247e-05
2.07565e-05
2.07589e-05
2.07223e-05
2.06622e-05
2.05949e-05
2.04691e-05
2.04038e-05
2.03516e-05
2.03019e-05
2.02527e-05
2.02029e-05
2.01519e-05
2.00991e-05
2.00439e-05
1.99858e-05
1.99245e-05
1.98595e-05
1.97902e-05
1.97162e-05
1.96371e-05
1.95522e-05
1.94611e-05
1.93631e-05
1.92577e-05
1.91443e-05
1.90221e-05
1.88906e-05
1.8749e-05
1.85965e-05
1.84324e-05
1.82558e-05
1.80659e-05
1.78619e-05
1.76429e-05
1.87234e-05
1.49306e-05
1.77614e-05
1.79877e-05
1.81985e-05
1.83942e-05
1.85749e-05
1.87408e-05
1.8892e-05
1.90289e-05
1.91517e-05
1.92612e-05
1.93582e-05
1.94442e-05
1.95207e-05
1.95895e-05
1.96522e-05
1.97103e-05
1.97652e-05
1.98179e-05
1.98694e-05
1.9921e-05
1.9974e-05
2.00304e-05
2.00912e-05
2.01549e-05
2.02151e-05
2.0261e-05
2.02853e-05
2.02921e-05
2.03028e-05
2.03643e-05
2.0375e-05
2.03935e-05
2.0421e-05
2.04527e-05
2.04843e-05
2.05126e-05
2.05357e-05
2.05532e-05
2.05653e-05
2.05728e-05
2.0577e-05
2.058e-05
2.05836e-05
2.05891e-05
2.05968e-05
2.06062e-05
2.06169e-05
2.06282e-05
2.0639e-05
2.06485e-05
2.06555e-05
2.06592e-05
2.06594e-05
2.06567e-05
2.06519e-05
2.06464e-05
2.06411e-05
2.06371e-05
2.0635e-05
2.06363e-05
2.06431e-05
2.06591e-05
2.06875e-05
2.07253e-05
2.07567e-05
2.07588e-05
2.07225e-05
2.06626e-05
2.05953e-05
2.04687e-05
2.0403e-05
2.03505e-05
2.03004e-05
2.02508e-05
2.02008e-05
2.01494e-05
2.00963e-05
2.00407e-05
1.99824e-05
1.99207e-05
1.98553e-05
1.97858e-05
1.97115e-05
1.9632e-05
1.95469e-05
1.94554e-05
1.93572e-05
1.92515e-05
1.91378e-05
1.90153e-05
1.88835e-05
1.87416e-05
1.85889e-05
1.84245e-05
1.82477e-05
1.80575e-05
1.78533e-05
1.76341e-05
1.87131e-05
1.49341e-05
1.77642e-05
1.79905e-05
1.82013e-05
1.83969e-05
1.85775e-05
1.87433e-05
1.88945e-05
1.90313e-05
1.91541e-05
1.92635e-05
1.93605e-05
1.94464e-05
1.95228e-05
1.95913e-05
1.96538e-05
1.97117e-05
1.97664e-05
1.98189e-05
1.98703e-05
1.99218e-05
1.99748e-05
2.00313e-05
2.00923e-05
2.01563e-05
2.02166e-05
2.02624e-05
2.02866e-05
2.02931e-05
2.03035e-05
2.03646e-05
2.03754e-05
2.03941e-05
2.04219e-05
2.04538e-05
2.04856e-05
2.05139e-05
2.05371e-05
2.05546e-05
2.05667e-05
2.05741e-05
2.05783e-05
2.05813e-05
2.0585e-05
2.05905e-05
2.05982e-05
2.06077e-05
2.06185e-05
2.06297e-05
2.06406e-05
2.06501e-05
2.06571e-05
2.06608e-05
2.0661e-05
2.06582e-05
2.06534e-05
2.06479e-05
2.06426e-05
2.06385e-05
2.06364e-05
2.06376e-05
2.06443e-05
2.06603e-05
2.06886e-05
2.0726e-05
2.07569e-05
2.0759e-05
2.07228e-05
2.06631e-05
2.05956e-05
2.04684e-05
2.04023e-05
2.03494e-05
2.02989e-05
2.0249e-05
2.01985e-05
2.01468e-05
2.00933e-05
2.00374e-05
1.99787e-05
1.99167e-05
1.9851e-05
1.97811e-05
1.97065e-05
1.96267e-05
1.95412e-05
1.94494e-05
1.93508e-05
1.92449e-05
1.91308e-05
1.90081e-05
1.8876e-05
1.87338e-05
1.85808e-05
1.84161e-05
1.8239e-05
1.80486e-05
1.78441e-05
1.76247e-05
1.87021e-05
1.49379e-05
1.77673e-05
1.79934e-05
1.82042e-05
1.83997e-05
1.85802e-05
1.8746e-05
1.88971e-05
1.90339e-05
1.91566e-05
1.92659e-05
1.93629e-05
1.94486e-05
1.95249e-05
1.95932e-05
1.96555e-05
1.97132e-05
1.97677e-05
1.982e-05
1.98712e-05
1.99226e-05
1.99757e-05
2.00323e-05
2.00935e-05
2.01577e-05
2.02181e-05
2.02639e-05
2.02879e-05
2.02942e-05
2.03043e-05
2.0365e-05
2.03758e-05
2.03947e-05
2.04228e-05
2.04549e-05
2.04869e-05
2.05153e-05
2.05385e-05
2.0556e-05
2.05681e-05
2.05756e-05
2.05798e-05
2.05828e-05
2.05865e-05
2.05921e-05
2.05998e-05
2.06093e-05
2.06201e-05
2.06314e-05
2.06423e-05
2.06518e-05
2.06587e-05
2.06624e-05
2.06626e-05
2.06599e-05
2.06551e-05
2.06495e-05
2.06442e-05
2.064e-05
2.06379e-05
2.0639e-05
2.06457e-05
2.06616e-05
2.06898e-05
2.07268e-05
2.07574e-05
2.07592e-05
2.07232e-05
2.06637e-05
2.05961e-05
2.04682e-05
2.04016e-05
2.03482e-05
2.02973e-05
2.0247e-05
2.01962e-05
2.01441e-05
2.00902e-05
2.0034e-05
1.99749e-05
1.99125e-05
1.98464e-05
1.97761e-05
1.97012e-05
1.9621e-05
1.95352e-05
1.94431e-05
1.93441e-05
1.92378e-05
1.91235e-05
1.90004e-05
1.8868e-05
1.87255e-05
1.85722e-05
1.84072e-05
1.82298e-05
1.80392e-05
1.78344e-05
1.76148e-05
1.86904e-05
1.49417e-05
1.77704e-05
1.79965e-05
1.82072e-05
1.84026e-05
1.85831e-05
1.87488e-05
1.88998e-05
1.90365e-05
1.91592e-05
1.92685e-05
1.93653e-05
1.9451e-05
1.9527e-05
1.95952e-05
1.96573e-05
1.97148e-05
1.9769e-05
1.98211e-05
1.98722e-05
1.99235e-05
1.99766e-05
2.00334e-05
2.00948e-05
2.01592e-05
2.02197e-05
2.02655e-05
2.02893e-05
2.02953e-05
2.03052e-05
2.03655e-05
2.03763e-05
2.03954e-05
2.04237e-05
2.04561e-05
2.04882e-05
2.05167e-05
2.054e-05
2.05575e-05
2.05696e-05
2.0577e-05
2.05813e-05
2.05843e-05
2.05881e-05
2.05937e-05
2.06014e-05
2.0611e-05
2.06218e-05
2.06332e-05
2.06441e-05
2.06536e-05
2.06606e-05
2.06643e-05
2.06645e-05
2.06617e-05
2.06569e-05
2.06513e-05
2.0646e-05
2.06417e-05
2.06395e-05
2.06406e-05
2.06473e-05
2.06631e-05
2.06911e-05
2.07279e-05
2.0758e-05
2.07596e-05
2.07238e-05
2.06644e-05
2.05966e-05
2.0468e-05
2.04009e-05
2.03471e-05
2.02957e-05
2.0245e-05
2.01938e-05
2.01413e-05
2.0087e-05
2.00304e-05
1.99709e-05
1.99081e-05
1.98416e-05
1.97709e-05
1.96956e-05
1.96151e-05
1.95288e-05
1.94363e-05
1.93371e-05
1.92304e-05
1.91156e-05
1.89923e-05
1.88595e-05
1.87167e-05
1.85631e-05
1.83978e-05
1.82201e-05
1.80291e-05
1.78241e-05
1.76043e-05
1.8678e-05
1.49458e-05
1.77737e-05
1.79998e-05
1.82103e-05
1.84057e-05
1.85861e-05
1.87517e-05
1.89027e-05
1.90393e-05
1.91619e-05
1.92711e-05
1.93678e-05
1.94534e-05
1.95293e-05
1.95973e-05
1.96591e-05
1.97164e-05
1.97704e-05
1.98223e-05
1.98733e-05
1.99245e-05
1.99776e-05
2.00345e-05
2.00961e-05
2.01608e-05
2.02213e-05
2.02671e-05
2.02907e-05
2.02964e-05
2.0306e-05
2.03659e-05
2.03768e-05
2.03962e-05
2.04247e-05
2.04574e-05
2.04896e-05
2.05182e-05
2.05415e-05
2.05591e-05
2.05712e-05
2.05786e-05
2.05828e-05
2.05859e-05
2.05897e-05
2.05954e-05
2.06032e-05
2.06128e-05
2.06237e-05
2.06351e-05
2.0646e-05
2.06555e-05
2.06625e-05
2.06662e-05
2.06664e-05
2.06636e-05
2.06589e-05
2.06533e-05
2.06479e-05
2.06436e-05
2.06414e-05
2.06424e-05
2.0649e-05
2.06648e-05
2.06926e-05
2.0729e-05
2.07588e-05