/*--------------------------------*- C++ -*----------------------------------*\
  =========                 |
  \\      /  F ield         | OpenFOAM: The Open Source CFD Toolbox
   \\    /   O peration     | Website:  https://openfoam.org
    \\  /    A nd           | Version:  9
     \\/     M anipulation  |
\*---------------------------------------------------------------------------*/
FoamFile
{
    format      ascii;
    class       volVectorField;
    location    "0.15";
    object      U;
}
// * * * * * * * * * * * * * * * * * * * * * * * * * * * * * * * * * * * * * //

dimensions      [0 1 -1 0 0 0 0];

internalField   nonuniform List<vector> 
20000
(
(2.43201e-05 0 -0.00108902)
(2.03934e-05 0 -0.00198914)
(1.92408e-05 0 -0.00240392)
(1.91957e-05 0 -0.00233687)
(1.9836e-05 0 -0.00160695)
(2.13979e-05 0 2.64376e-05)
(2.4877e-05 0 0.00282809)
(3.16897e-05 0 0.00704478)
(4.31403e-05 0 0.0128449)
(6.00381e-05 0 0.0202579)
(8.19157e-05 0 0.0291316)
(0.000106582 0 0.0391288)
(0.000130362 0 0.049772)
(0.000149013 0 0.0605241)
(0.000158937 0 0.0708766)
(0.000158056 0 0.080412)
(0.000146002 0 0.0888263)
(0.000123654 0 0.0959102)
(9.24504e-05 0 0.101504)
(5.38777e-05 0 0.105438)
(9.54413e-06 0 0.107467)
(-3.77528e-05 0 0.107193)
(-8.17545e-05 0 0.104054)
(-0.000110735 0 0.097532)
(-0.00011095 0 0.0879607)
(-7.87793e-05 0 0.077886)
(-2.70974e-05 0 0.0722837)
(2.42391e-05 0 0.074995)
(5.42785e-05 0 0.0840395)
(4.578e-05 0 0.0932992)
(2.37823e-07 0 0.0983979)
(-5.65017e-05 0 0.0967752)
(-9.77286e-05 0 0.089348)
(-0.000114779 0 0.0779524)
(-0.000110295 0 0.0643109)
(-9.21532e-05 0 0.0501777)
(-6.95424e-05 0 0.0371087)
(-4.92002e-05 0 0.0260883)
(-3.41643e-05 0 0.0175139)
(-2.47554e-05 0 0.0114433)
(-1.96689e-05 0 0.00764251)
(-1.69825e-05 0 0.0054595)
(-1.52411e-05 0 0.0039251)
(-1.38976e-05 0 0.00212317)
(-1.08697e-05 0 -0.000509502)
(-7.83676e-06 0 -0.00411966)
(-5.17961e-06 0 -0.00859289)
(-9.10415e-07 0 -0.0136875)
(3.13187e-06 0 -0.0190873)
(5.91193e-06 0 -0.0243858)
(6.29648e-06 0 -0.0290777)
(3.69163e-06 0 -0.0326163)
(-1.15549e-06 0 -0.0345764)
(-6.33761e-06 0 -0.0348347)
(-9.87566e-06 0 -0.0336451)
(-1.0819e-05 0 -0.0315366)
(-9.36076e-06 0 -0.0291011)
(-6.18177e-06 0 -0.026851)
(-1.81419e-06 0 -0.025185)
(4.01126e-06 0 -0.0244681)
(1.28984e-05 0 -0.0252358)
(2.92e-05 0 -0.0285133)
(6.17453e-05 0 -0.0361533)
(0.000116143 0 -0.0504317)
(0.00016024 0 -0.0711501)
(0.000104326 0 -0.0901666)
(-5.9613e-05 0 -0.0923321)
(-0.000165202 0 -0.0717728)
(-0.000126885 0 -0.0404111)
(-4.03177e-05 0 -0.0120885)
(1.4856e-05 0 0.0070456)
(3.8643e-05 0 0.0192844)
(4.92572e-05 0 0.0282739)
(5.35918e-05 0 0.0352271)
(5.47913e-05 0 0.0407826)
(5.41009e-05 0 0.0452834)
(5.20733e-05 0 0.0489291)
(4.90027e-05 0 0.0518478)
(4.50759e-05 0 0.0541282)
(4.04296e-05 0 0.0558344)
(3.51766e-05 0 0.0570147)
(2.94188e-05 0 0.0577062)
(2.32557e-05 0 0.0579379)
(1.67902e-05 0 0.0577329)
(1.01328e-05 0 0.0571094)
(3.4062e-06 0 0.0560821)
(-3.24809e-06 0 0.0546618)
(-9.6608e-06 0 0.0528556)
(-1.56244e-05 0 0.0506671)
(-2.0882e-05 0 0.0480963)
(-2.51195e-05 0 0.0451406)
(-2.79659e-05 0 0.0417955)
(-2.90137e-05 0 0.0380566)
(-2.78848e-05 0 0.0339242)
(-2.43543e-05 0 0.0294098)
(-1.84826e-05 0 0.0245473)
(-1.07801e-05 0 0.0194007)
(-1.8983e-06 0 0.014067)
(4.66928e-06 0 0.00869491)
(-1.10052e-05 0 0.0036069)
(8.72206e-05 0 -0.00105221)
(8.01315e-05 0 -0.00196759)
(7.9285e-05 0 -0.0023887)
(8.02064e-05 0 -0.002323)
(8.24033e-05 0 -0.00159374)
(8.46098e-05 0 3.67616e-05)
(8.94205e-05 0 0.00283218)
(0.000100474 0 0.00703677)
(0.000118578 0 0.0128191)
(0.000145754 0 0.0202112)
(0.000182189 0 0.0290651)
(0.000225013 0 0.0390482)
(0.000268223 0 0.0496859)
(0.000303871 0 0.0604415)
(0.000324105 0 0.0708037)
(0.000323124 0 0.0803516)
(0.000298177 0 0.0887776)
(0.000249423 0 0.0958707)
(0.000179125 0 0.10147)
(9.09935e-05 0 0.105408)
(-9.48969e-06 0 0.107436)
(-0.000113014 0 0.107156)
(-0.000202897 0 0.104002)
(-0.000254017 0 0.0974564)
(-0.000244298 0 0.0878653)
(-0.000179307 0 0.0777902)
(-9.35204e-05 0 0.0721945)
(-1.53229e-05 0 0.0748926)
(3.41925e-05 0 0.083925)
(2.18141e-05 0 0.0931938)
(-6.7073e-05 0 0.0983005)
(-0.000189465 0 0.0966752)
(-0.000284288 0 0.089235)
(-0.00032651 0 0.0778257)
(-0.000319027 0 0.0641746)
(-0.000278953 0 0.0500361)
(-0.000226699 0 0.0369642)
(-0.000177444 0 0.0259411)
(-0.000139018 0 0.0173635)
(-0.000113563 0 0.0112883)
(-9.87427e-05 0 0.00748063)
(-8.98388e-05 0 0.00528907)
(-8.31465e-05 0 0.00374636)
(-7.92735e-05 0 0.00193904)
(-6.66367e-05 0 -0.000689287)
(-5.28917e-05 0 -0.00431554)
(-4.56977e-05 0 -0.00879909)
(-3.37164e-05 0 -0.0139003)
(-2.12371e-05 0 -0.019305)
(-1.19077e-05 0 -0.0246073)
(-8.31863e-06 0 -0.0293019)
(-1.17607e-05 0 -0.0328431)
(-2.05284e-05 0 -0.0348067)
(-3.01865e-05 0 -0.0350699)
(-3.59222e-05 0 -0.033886)
(-3.51606e-05 0 -0.0317823)
(-2.80369e-05 0 -0.0293501)
(-1.58886e-05 0 -0.0271017)
(1.96186e-07 0 -0.0254362)
(2.08532e-05 0 -0.0247198)
(4.96895e-05 0 -0.0254903)
(9.60609e-05 0 -0.0287769)
(0.000177924 0 -0.0364352)
(0.000305368 0 -0.0507261)
(0.000408445 0 -0.0713953)
(0.000292112 0 -0.0902853)
(-6.9866e-05 0 -0.0924077)
(-0.000318688 0 -0.0719682)
(-0.000251435 0 -0.0407003)
(-6.15602e-05 0 -0.0123643)
(7.2327e-05 0 0.00681035)
(0.000139865 0 0.0190803)
(0.000176123 0 0.028089)
(0.000194832 0 0.0350556)
(0.000203504 0 0.040622)
(0.000205742 0 0.0451325)
(0.000203401 0 0.0487875)
(0.000197557 0 0.0517154)
(0.000188917 0 0.0540046)
(0.000178002 0 0.0557196)
(0.000165236 0 0.0569086)
(0.000150995 0 0.0576086)
(0.000135634 0 0.0578487)
(0.000119511 0 0.0576517)
(0.000102998 0 0.0570362)
(8.64969e-05 0 0.0560163)
(7.04561e-05 0 0.054603)
(5.53875e-05 0 0.0528031)
(4.18819e-05 0 0.0506201)
(3.06156e-05 0 0.0480538)
(2.23422e-05 0 0.0451011)
(1.7868e-05 0 0.0417572)
(1.79783e-05 0 0.0380178)
(2.32622e-05 0 0.0338832)
(3.38369e-05 0 0.0293658)
(4.91117e-05 0 0.024501)
(6.77044e-05 0 0.0193546)
(8.8394e-05 0 0.0140293)
(0.00010335 0 0.00870398)
(7.35489e-05 0 0.00379322)
(0.000124745 0 -0.00104483)
(0.000121185 0 -0.00196642)
(0.000122933 0 -0.00239484)
(0.000125183 0 -0.00233407)
(0.00012863 0 -0.00160883)
(0.000134805 0 1.65116e-05)
(0.000143577 0 0.00280374)
(0.000155943 0 0.00699544)
(0.000175862 0 0.012761)
(0.000205783 0 0.020136)
(0.000246038 0 0.0289782)
(0.000293627 0 0.0389613)
(0.000341827 0 0.0496147)
(0.000381267 0 0.0604013)
(0.00040216 0 0.0708054)
(0.000396661 0 0.0803997)
(0.000360346 0 0.0888702)
(0.000292456 0 0.0960012)
(0.000195331 0 0.10163)
(7.3923e-05 0 0.105586)
(-6.36123e-05 0 0.107618)
(-0.000203396 0 0.107322)
(-0.000321791 0 0.104121)
(-0.000385158 0 0.097497)
(-0.000366724 0 0.0878205)
(-0.000280359 0 0.0776991)
(-0.00017844 0 0.0721091)
(-9.49577e-05 0 0.0748373)
(-4.51559e-05 0 0.0839253)
(-6.73302e-05 0 0.0932678)
(-0.000186016 0 0.0984186)
(-0.000351499 0 0.0967907)
(-0.000482627 0 0.0893122)
(-0.000542546 0 0.0778567)
(-0.000533467 0 0.064169)
(-0.000478101 0 0.0500115)
(-0.000404216 0 0.0369369)
(-0.000332749 0 0.0259215)
(-0.000275157 0 0.0173565)
(-0.000235423 0 0.0112941)
(-0.000210964 0 0.00749615)
(-0.000195108 0 0.00531013)
(-0.000181397 0 0.00377017)
(-0.000165803 0 0.00196436)
(-0.000153872 0 -0.000657677)
(-0.00014012 0 -0.0042858)
(-0.00011972 0 -0.00877581)
(-9.77958e-05 0 -0.013878)
(-7.55726e-05 0 -0.0192805)
(-5.81782e-05 0 -0.0245782)
(-4.86313e-05 0 -0.0292663)
(-4.86963e-05 0 -0.0328008)
(-5.6199e-05 0 -0.0347604)
(-6.50225e-05 0 -0.0350238)
(-6.83816e-05 0 -0.0338436)
(-6.24573e-05 0 -0.031745)
(-4.69944e-05 0 -0.0293175)
(-2.3542e-05 0 -0.027073)
(6.60021e-06 0 -0.0254116)
(4.42322e-05 0 -0.024701)
(9.39419e-05 0 -0.0254828)
(0.000167481 0 -0.028792)
(0.000286784 0 -0.0364863)
(0.000464295 0 -0.0507954)
(0.000610876 0 -0.0713728)
(0.000470652 0 -0.0900445)
(-1.70826e-06 0 -0.0920881)
(-0.00033986 0 -0.0718495)
(-0.000263787 0 -0.0407732)
(-1.45396e-05 0 -0.0124628)
(0.000172214 0 0.00675232)
(0.000276198 0 0.0190588)
(0.000338259 0 0.02809)
(0.000374042 0 0.0350696)
(0.00039349 0 0.0406442)
(0.000401917 0 0.0451606)
(0.000402337 0 0.0488202)
(0.000396625 0 0.0517518)
(0.000386067 0 0.0540443)
(0.000371621 0 0.0557622)
(0.000354069 0 0.0569538)
(0.000334102 0 0.057656)
(0.000312362 0 0.0578978)
(0.000289481 0 0.0577021)
(0.0002661 0 0.0570872)
(0.000242886 0 0.0560671)
(0.000220556 0 0.0546525)
(0.000199891 0 0.0528499)
(0.000181748 0 0.0506625)
(0.000167055 0 0.0480895)
(0.00015679 0 0.0451274)
(0.00015194 0 0.0417711)
(0.000153414 0 0.0380161)
(0.00016185 0 0.0338631)
(0.000177308 0 0.0293263)
(0.000198905 0 0.0244431)
(0.000224625 0 0.0192836)
(0.000252204 0 0.0139596)
(0.000275447 0 0.00867501)
(0.000260688 0 0.00386115)
(0.000123449 0 -0.00104544)
(0.000122353 0 -0.00197135)
(0.000124921 0 -0.00240582)
(0.000128128 0 -0.00235134)
(0.000133026 0 -0.00163189)
(0.000140498 0 -1.33236e-05)
(0.000151138 0 0.0027627)
(0.000166627 0 0.00693866)
(0.000190375 0 0.0126849)
(0.000224722 0 0.0200405)
(0.00026983 0 0.0288699)
(0.000322259 0 0.0388536)
(0.000374483 0 0.0495258)
(0.000416024 0 0.06035)
(0.000435841 0 0.0708064)
(0.000424924 0 0.08046)
(0.00037801 0 0.0889896)
(0.000293981 0 0.0961732)
(0.000175395 0 0.101844)
(2.80666e-05 0 0.105827)
(-0.000138197 0 0.107868)
(-0.000306827 0 0.107552)
(-0.000450158 0 0.104294)
(-0.000529252 0 0.0975746)
(-0.000512797 0 0.0877947)
(-0.000416251 0 0.0776134)
(-0.000300994 0 0.0720246)
(-0.000207563 0 0.0747889)
(-0.000154443 0 0.0839478)
(-0.000186732 0 0.0933845)
(-0.00033284 0 0.0985997)
(-0.000535342 0 0.0969763)
(-0.000697042 0 0.089454)
(-0.000772584 0 0.0779407)
(-0.000764019 0 0.0642048)
(-0.000697864 0 0.0500201)
(-0.000607267 0 0.0369392)
(-0.000517708 0 0.0259317)
(-0.00044363 0 0.0173815)
(-0.000390526 0 0.0113352)
(-0.000355809 0 0.00755)
(-0.000331738 0 0.00537189)
(-0.000310902 0 0.00383593)
(-0.000287633 0 0.00202984)
(-0.000268558 0 -0.000602477)
(-0.000249336 0 -0.00421479)
(-0.000221602 0 -0.00870287)
(-0.000189882 0 -0.0138026)
(-0.000157824 0 -0.0192007)
(-0.000131361 0 -0.0244914)
(-0.00011397 0 -0.0291706)
(-0.000107676 0 -0.032697)
(-0.000109755 0 -0.0346519)
(-0.000112988 0 -0.0349159)
(-0.000109386 0 -0.0337408)
(-9.42496e-05 0 -0.031649)
(-6.70008e-05 0 -0.029228)
(-2.92741e-05 0 -0.0269892)
(1.76966e-05 0 -0.0253333)
(7.48993e-05 0 -0.0246304)
(0.000147495 0 -0.0254261)
(0.000248458 0 -0.0287612)
(0.000400475 0 -0.0364924)
(0.000613935 0 -0.0508104)
(0.000786461 0 -0.0712713)
(0.000630757 0 -0.0897002)
(9.68716e-05 0 -0.0916686)
(-0.000284302 0 -0.0716678)
(-0.000191962 0 -0.0408258)
(0.000101996 0 -0.0125618)
(0.000328665 0 0.00669575)
(0.000462485 0 0.0190463)
(0.000547448 0 0.028107)
(0.000599936 0 0.0351051)
(0.000631242 0 0.0406917)
(0.000647643 0 0.0452164)
(0.000652932 0 0.0488823)
(0.000649617 0 0.0518188)
(0.000639481 0 0.0541154)
(0.000623894 0 0.0558367)
(0.000603991 0 0.0570311)
(0.000580773 0 0.0577354)
(0.000555164 0 0.0579787)
(0.000528055 0 0.0577836)
(0.000500326 0 0.0571683)
(0.000472868 0 0.0561467)
(0.000446597 0 0.0547291)
(0.00042247 0 0.0529217)
(0.000401491 0 0.0507271)
(0.000384702 0 0.0481443)
(0.000373154 0 0.0451693)
(0.000367861 0 0.0417967)
(0.000369696 0 0.0380221)
(0.000379198 0 0.033847)
(0.000396262 0 0.0292874)
(0.000419672 0 0.0243838)
(0.000446624 0 0.0192119)
(0.000473309 0 0.0138938)
(0.000494736 0 0.00864392)
(0.000489455 0 0.00387955)
(8.1967e-05 0 -0.00104587)
(8.16165e-05 0 -0.00197399)
(8.30733e-05 0 -0.00241269)
(8.58315e-05 0 -0.00236315)
(9.06366e-05 0 -0.00164884)
(9.81371e-05 0 -3.70039e-05)
(0.000109655 0 0.00272875)
(0.000127526 0 0.00688937)
(0.000154778 0 0.0126158)
(0.000193619 0 0.019951)
(0.000243954 0 0.0287655)
(0.000301819 0 0.0387471)
(0.0003589 0 0.0494353)
(0.000403702 0 0.0602944)
(0.000424071 0 0.0708009)
(0.000409992 0 0.0805129)
(0.000355512 0 0.0891012)
(0.000259279 0 0.0963373)
(0.000124107 0 0.102049)
(-4.34387e-05 0 0.106059)
(-0.00023227 0 0.108105)
(-0.00042396 0 0.107765)
(-0.000588523 0 0.104444)
(-0.000684599 0 0.0976267)
(-0.000678591 0 0.0877459)
(-0.000584566 0 0.0775109)
(-0.000464614 0 0.0719268)
(-0.000361699 0 0.0747241)
(-0.000301115 0 0.0839462)
(-0.000337716 0 0.0934709)
(-0.00050472 0 0.0987489)
(-0.000738445 0 0.0971284)
(-0.000926974 0 0.0895592)
(-0.00101793 0 0.0779836)
(-0.001013 0 0.064195)
(-0.000940964 0 0.0499795)
(-0.000838649 0 0.0368895)
(-0.000734996 0 0.0258879)
(-0.000646966 0 0.0173511)
(-0.000581386 0 0.0113196)
(-0.000535887 0 0.00754555)
(-0.000502383 0 0.00537322)
(-0.000473483 0 0.00383873)
(-0.000444038 0 0.00203182)
(-0.000414216 0 -0.000605383)
(-0.000384413 0 -0.00421745)
(-0.000350008 0 -0.00870306)
(-0.000309659 0 -0.0138027)
(-0.000268315 0 -0.0191982)
(-0.000232129 0 -0.0244831)
(-0.000205452 0 -0.0291547)
(-0.000190178 0 -0.032674)
(-0.000183081 0 -0.0346254)
(-0.000176321 0 -0.0348915)
(-0.000161191 0 -0.0337231)
(-0.00013252 0 -0.0316399)
(-8.96036e-05 0 -0.0292273)
(-3.41278e-05 0 -0.0269959)
(3.29012e-05 0 -0.0253472)
(0.000112689 0 -0.0246539)
(0.000210685 0 -0.0254655)
(0.000340362 0 -0.0288289)
(0.000523017 0 -0.0365982)
(0.000762963 0 -0.0509202)
(0.000946974 0 -0.0712523)
(0.000778576 0 -0.0894274)
(0.000218064 0 -0.091315)
(-0.000168935 0 -0.0715498)
(-4.90249e-05 0 -0.0409503)
(0.000284883 0 -0.0127399)
(0.000545672 0 0.00656063)
(0.000705693 0 0.0189588)
(0.00081146 0 0.0280537)
(0.000880134 0 0.0350752)
(0.000923935 0 0.0406786)
(0.000949663 0 0.0452162)
(0.000961613 0 0.0488926)
(0.000962743 0 0.0518381)
(0.000955227 0 0.0541425)
(0.000940791 0 0.0558706)
(0.000920883 0 0.0570708)
(0.000896785 0 0.0577802)
(0.000869674 0 0.0580276)
(0.000840667 0 0.0578355)
(0.000810841 0 0.0572219)
(0.000781258 0 0.0562005)
(0.000752974 0 0.0547813)
(0.000727051 0 0.0529702)
(0.000704561 0 0.0507695)
(0.000686573 0 0.0481777)
(0.000674116 0 0.0451907)
(0.000668121 0 0.0418028)
(0.000669298 0 0.0380102)
(0.00067793 0 0.0338153)
(0.000693577 0 0.0292362)
(0.000714616 0 0.0243174)
(0.00073763 0 0.0191406)
(0.000758173 0 0.0138363)
(0.000772964 0 0.008619)
(0.000768515 0 0.00388187)
(-5.24857e-07 0 -0.00104484)
(-5.31801e-07 0 -0.0019741)
(-7.25636e-07 0 -0.00241592)
(7.87372e-07 0 -0.00237084)
(4.45536e-06 0 -0.00166225)
(1.12632e-05 0 -5.85448e-05)
(2.2969e-05 0 0.00269507)
(4.21916e-05 0 0.00683834)
(7.19481e-05 0 0.0125432)
(0.000114421 0 0.0198564)
(0.000169274 0 0.0286552)
(0.000232101 0 0.0386345)
(0.00029394 0 0.0493393)
(0.000342461 0 0.0602347)
(0.000364563 0 0.0707934)
(0.000349338 0 0.0805661)
(0.000290175 0 0.0892154)
(0.000185451 0 0.0965057)
(3.81623e-05 0 0.10226)
(-0.000144515 0 0.106296)
(-0.000350463 0 0.108345)
(-0.000559929 0 0.107979)
(-0.000741768 0 0.104593)
(-0.000854283 0 0.0976759)
(-0.000863773 0 0.087694)
(-0.000781897 0 0.0774036)
(-0.000666047 0 0.071819)
(-0.00055759 0 0.0746442)
(-0.000488806 0 0.0839273)
(-0.000524858 0 0.0935411)
(-0.000705565 0 0.0988842)
(-0.000964031 0 0.097266)
(-0.00117548 0 0.0896463)
(-0.00128157 0 0.0780036)
(-0.00128297 0 0.0641578)
(-0.00120934 0 0.0499076)
(-0.00109974 0 0.0368058)
(-0.000985578 0 0.0258081)
(-0.000885921 0 0.0172837)
(-0.0008088 0 0.0112662)
(-0.000752274 0 0.00750259)
(-0.000708413 0 0.00533534)
(-0.000669931 0 0.00380179)
(-0.000632639 0 0.00199437)
(-0.000593202 0 -0.000642789)
(-0.000551728 0 -0.00426135)
(-0.000507784 0 -0.00874795)
(-0.000458881 0 -0.0138508)
(-0.000407963 0 -0.0192455)
(-0.00036114 0 -0.024526)
(-0.000323454 0 -0.0291909)
(-0.000296549 0 -0.032704)
(-0.000276797 0 -0.034653)
(-0.000255989 0 -0.0349225)
(-0.00022505 0 -0.0337622)
(-0.000178729 0 -0.031689)
(-0.000116336 0 -0.0292862)
(-3.94752e-05 0 -0.0270637)
(5.09347e-05 0 -0.0254237)
(0.000156292 0 -0.0247417)
(0.000282258 0 -0.025571)
(0.000442054 0 -0.0289637)
(0.000654317 0 -0.0367693)
(0.000915253 0 -0.051088)
(0.00110314 0 -0.071281)
(0.000927456 0 -0.0892005)
(0.000368491 0 -0.091012)
(2.77159e-06 0 -0.0714838)
(0.000157962 0 -0.0411284)
(0.000530093 0 -0.0129721)
(0.000822779 0 0.00637398)
(0.00100786 0 0.0188228)
(0.00113398 0 0.0279551)
(0.00121926 0 0.0350031)
(0.00127664 0 0.0406267)
(0.00131322 0 0.0451806)
(0.00133367 0 0.0488707)
(0.00134125 0 0.0518282)
(0.00133848 0 0.0541432)
(0.00132738 0 0.0558808)
(0.00130965 0 0.0570895)
(0.00128684 0 0.0578061)
(0.00126033 0 0.0580595)
(0.00123144 0 0.0578722)
(0.00120141 0 0.0572618)
(0.00117142 0 0.056242)
(0.00114264 0 0.0548223)
(0.00111619 0 0.0530086)
(0.00109315 0 0.0508027)
(0.00107456 0 0.0482031)
(0.00106136 0 0.0452053)
(0.00105432 0 0.041804)
(0.00105392 0 0.0379957)
(0.00106013 0 0.0337842)
(0.00107213 0 0.0291902)
(0.00108798 0 0.0242619)
(0.00110413 0 0.0190867)
(0.00111669 0 0.0137993)
(0.00112499 0 0.00860748)
(0.0011186 0 0.00388531)
(-0.000123728 0 -0.00104314)
(-0.000123428 0 -0.00197243)
(-0.000125225 0 -0.00241647)
(-0.00012511 0 -0.00237585)
(-0.000122767 0 -0.00167431)
(-0.000116829 0 -8.11463e-05)
(-0.000105165 0 0.00265726)
(-8.49307e-05 0 0.00678003)
(-5.30269e-05 0 0.0124605)
(-7.31984e-06 0 0.0197499)
(5.16343e-05 0 0.0285322)
(0.000119043 0 0.03851)
(0.000185395 0 0.0492335)
(0.000237657 0 0.0601691)
(0.000261937 0 0.070785)
(0.00024657 0 0.0806241)
(0.000184378 0 0.0893402)
(7.34924e-05 0 0.0966899)
(-8.29769e-05 0 0.102491)
(-0.000277387 0 0.106555)
(-0.000496886 0 0.108609)
(-0.00072092 0 0.108217)
(-0.000917908 0 0.104765)
(-0.00104668 0 0.0977473)
(-0.00107408 0 0.0876614)
(-0.00100865 0 0.0773079)
(-0.000900901 0 0.0717118)
(-0.000789338 0 0.0745584)
(-0.000713172 0 0.0839054)
(-0.000746951 0 0.093617)
(-0.000937245 0 0.099034)
(-0.00121592 0 0.097421)
(-0.00144721 0 0.0897485)
(-0.00156789 0 0.0780338)
(-0.00157716 0 0.0641257)
(-0.00150469 0 0.0498367)
(-0.00139083 0 0.0367199)
(-0.00126878 0 0.0257245)
(-0.00115931 0 0.0172119)
(-0.00107152 0 0.0112084)
(-0.00100399 0 0.00745565)
(-0.000949256 0 0.00529416)
(-0.000900248 0 0.00376254)
(-0.000853157 0 0.00195492)
(-0.000804596 0 -0.000681865)
(-0.000752459 0 -0.00430406)
(-0.000697427 0 -0.00879386)
(-0.000638565 0 -0.0139002)
(-0.000576885 0 -0.0192951)
(-0.000518085 0 -0.0245718)
(-0.000467424 0 -0.0292306)
(-0.000426255 0 -0.0327383)
(-0.000390614 0 -0.034686)
(-0.000352115 0 -0.03496)
(-0.000301564 0 -0.033809)
(-0.00023388 0 -0.0317469)
(-0.000148449 0 -0.029355)
(-4.67835e-05 0 -0.0271425)
(7.01847e-05 0 -0.0255126)
(0.000203966 0 -0.0248432)
(0.000360287 0 -0.0256914)
(0.000551615 0 -0.0291131)
(0.000793419 0 -0.036951)
(0.00107371 0 -0.0512567)
(0.00126486 0 -0.0713018)
(0.00109019 0 -0.0889709)
(0.000552895 0 -0.0907208)
(0.000225897 0 -0.0714385)
(0.000422221 0 -0.0413292)
(0.000833286 0 -0.0132257)
(0.00115815 0 0.00616898)
(0.00136872 0 0.0186714)
(0.00151586 0 0.0278436)
(0.00161891 0 0.0349204)
(0.00169134 0 0.040566)
(0.00174048 0 0.0451379)
(0.00177128 0 0.0488435)
(0.00178729 0 0.0518147)
(0.00179126 0 0.0541418)
(0.00178547 0 0.0558902)
(0.00177187 0 0.0571084)
(0.00175222 0 0.0578333)
(0.0017281 0 0.0580936)
(0.00170097 0 0.0579116)
(0.00167223 0 0.057305)
(0.00164315 0 0.056287)
(0.00161497 0 0.0548672)
(0.00158883 0 0.0530511)
(0.0015658 0 0.0508405)
(0.00154687 0 0.0482336)
(0.00153287 0 0.045226)
(0.00152439 0 0.0418126)
(0.0015217 0 0.0379906)
(0.0015245 0 0.0337657)
(0.0015317 0 0.0291607)
(0.00154119 0 0.0242275)
(0.00154974 0 0.0190571)
(0.0015547 0 0.0137843)
(0.00155793 0 0.00860884)
(0.00154953 0 0.00389181)
(-0.000285234 0 -0.00104069)
(-0.000284812 0 -0.00196881)
(-0.00028786 0 -0.00241417)
(-0.000288778 0 -0.00237794)
(-0.000287389 0 -0.00168451)
(-0.000282027 0 -0.000103852)
(-0.000270242 0 0.00261683)
(-0.000248997 0 0.00671646)
(-0.000215119 0 0.0123702)
(-0.000166521 0 0.0196339)
(-0.00010393 0 0.0283988)
(-3.24414e-05 0 0.0383752)
(3.79873e-05 0 0.0491191)
(9.37383e-05 0 0.0600978)
(0.000120241 0 0.0707751)
(0.000105153 0 0.0806857)
(4.07781e-05 0 0.0894739)
(-7.50161e-05 0 0.0968881)
(-0.000239067 0 0.102739)
(-0.000443401 0 0.106835)
(-0.000674693 0 0.108897)
(-0.000911925 0 0.108479)
(-0.00112336 0 0.104962)
(-0.00126834 0 0.0978443)
(-0.00131385 0 0.0876526)
(-0.001265 0 0.0772285)
(-0.00116549 0 0.0716095)
(-0.00105167 0 0.0744709)
(-0.00096951 0 0.0838843)
(-0.0010015 0 0.093702)
(-0.00120012 0 0.0992025)
(-0.00149671 0 0.0975984)
(-0.00174595 0 0.0898718)
(-0.00188059 0 0.0780814)
(-0.00189821 0 0.0641065)
(-0.00182824 0 0.0497744)
(-0.00171185 0 0.0366396)
(-0.0015836 0 0.0256448)
(-0.00146564 0 0.0171431)
(-0.00136796 0 0.0111534)
(-0.00128972 0 0.00741159)
(-0.00122403 0 0.00525641)
(-0.00116427 0 0.00372757)
(-0.0011066 0 0.00192017)
(-0.00104808 0 -0.000717692)
(-0.000985706 0 -0.00434158)
(-0.00091921 0 -0.00883444)
(-0.000848669 0 -0.0139432)
(-0.000774866 0 -0.0193387)
(-0.000702508 0 -0.0246123)
(-0.0006367 0 -0.0292657)
(-0.000578655 0 -0.0327689)
(-0.00052414 0 -0.0347164)
(-0.000464682 0 -0.0349961)
(-0.000391184 0 -0.0338554)
(-0.000298807 0 -0.0318056)
(-0.000187045 0 -0.0294256)
(-5.74164e-05 0 -0.0272242)
(8.90928e-05 0 -0.0256056)
(0.000253992 0 -0.0249499)
(0.00044288 0 -0.0258177)
(0.000667268 0 -0.0292677)
(0.000939513 0 -0.0371332)
(0.00124055 0 -0.0514169)
(0.00143938 0 -0.0713085)
(0.00127599 0 -0.088737)
(0.000774336 0 -0.090441)
(0.000496433 0 -0.0714115)
(0.000738336 0 -0.0415478)
(0.0011906 0 -0.0134954)
(0.00154955 0 0.00595037)
(0.00178706 0 0.0185091)
(0.00195672 0 0.0277234)
(0.00207922 0 0.0348306)
(0.00216844 0 0.0404996)
(0.00223197 0 0.045091)
(0.00227501 0 0.0488133)
(0.00230134 0 0.0517992)
(0.00231392 0 0.0541395)
(0.00231526 0 0.0558996)
(0.00230753 0 0.0571281)
(0.00229267 0 0.057862)
(0.00227241 0 0.0581296)
(0.00224839 0 0.0579535)
(0.0022221 0 0.0573509)
(0.0021949 0 0.0563351)
(0.00216808 0 0.0549155)
(0.00214281 0 0.0530973)
(0.00212015 0 0.0508824)
(0.00210103 0 0.0482688)
(0.0020862 0 0.0452524)
(0.00207615 0 0.0418284)
(0.002071 0 0.0379951)
(0.00207028 0 0.0337596)
(0.00207275 0 0.0291474)
(0.00207631 0 0.0242129)
(0.00207821 0 0.0190486)
(0.00207705 0 0.013787)
(0.00207656 0 0.00861998)
(0.00206632 0 0.00390147)
(-0.000480932 0 -0.00103751)
(-0.000480368 0 -0.00196345)
(-0.00048412 0 -0.00240952)
(-0.000485471 0 -0.00237763)
(-0.000484438 0 -0.0016929)
(-0.000479188 0 -0.0001259)
(-0.000467077 0 0.00257555)
(-0.000444965 0 0.00665041)
(-0.000409646 0 0.0122759)
(-0.000359067 0 0.0195127)
(-0.000294041 0 0.0282594)
(-0.000219816 0 0.0382343)
(-0.000146597 0 0.0489993)
(-8.83922e-05 0 0.0600226)
(-6.03075e-05 0 0.0707637)
(-7.52837e-05 0 0.080749)
(-0.000141549 0 0.0896129)
(-0.000261567 0 0.0970951)
(-0.00043225 0 0.103)
(-0.000645453 0 0.10713)
(-0.00088752 0 0.109201)
(-0.00113707 0 0.108758)
(-0.00136213 0 0.105177)
(-0.00152213 0 0.0979602)
(-0.00158374 0 0.087662)
(-0.00154898 0 0.077162)
(-0.00145645 0 0.0715114)
(-0.00134165 0 0.0743818)
(-0.00125632 0 0.0838623)
(-0.00128863 0 0.0937914)
(-0.00149573 0 0.0993818)
(-0.00180886 0 0.0977895)
(-0.00207451 0 0.0900079)
(-0.00222212 0 0.0781387)
(-0.00224778 0 0.0640934)
(-0.00218065 0 0.0497148)
(-0.00206256 0 0.0365591)
(-0.00192917 0 0.0255629)
(-0.00180373 0 0.0170709)
(-0.00169698 0 0.0110942)
(-0.00160863 0 0.00736304)
(-0.00153235 0 0.00521416)
(-0.00146205 0 0.00368825)
(-0.00139384 0 0.00188131)
(-0.00132467 0 -0.000758412)
(-0.00125147 0 -0.00438484)
(-0.00117286 0 -0.00888054)
(-0.00108919 0 -0.0139915)
(-0.00100179 0 -0.019388)
(-0.000914144 0 -0.0246594)
(-0.000830928 0 -0.0293086)
(-0.000753401 0 -0.0328086)
(-0.000677165 0 -0.0347573)
(-0.000593786 0 -0.0350439)
(-0.000494377 0 -0.0339148)
(-0.0003743 0 -0.0318784)
(-0.000233193 0 -0.0295113)
(-7.26612e-05 0 -0.027322)
(0.000106176 0 -0.0257156)
(0.000304706 0 -0.0250746)
(0.000528254 0 -0.0259625)
(0.000787366 0 -0.0294398)
(0.00109179 0 -0.0373291)
(0.0014172 0 -0.0515842)
(0.00163172 0 -0.0713204)
(0.0014918 0 -0.0885192)
(0.00103716 0 -0.0901901)
(0.000814283 0 -0.0714138)
(0.00110367 0 -0.0417921)
(0.00159904 0 -0.013789)
(0.00199459 0 0.00571001)
(0.00226124 0 0.0183273)
(0.00245571 0 0.0275857)
(0.00259984 0 0.034725)
(0.00270791 0 0.040419)
(0.00278786 0 0.0450311)
(0.00284513 0 0.0487715)
(0.00288367 0 0.0517735)
(0.00290669 0 0.0541282)
(0.00291689 0 0.0559012)
(0.00291663 0 0.057141)
(0.00290801 0 0.0578846)
(0.00289294 0 0.0581606)
(0.00287317 0 0.057991)
(0.00285029 0 0.0573932)
(0.00282579 0 0.0563803)
(0.00280098 0 0.0549614)
(0.00277708 0 0.0531421)
(0.00275516 0 0.0509237)
(0.00273616 0 0.0483046)
(0.00272079 0 0.0452808)
(0.00270951 0 0.041848)
(0.0027024 0 0.0380056)
(0.00269891 0 0.0337623)
(0.00269776 0 0.0291459)
(0.00269697 0 0.0242128)
(0.00269421 0 0.0190552)
(0.00268899 0 0.0138018)
(0.00268615 0 0.00863819)
(0.00267447 0 0.00391384)
(-0.000707299 0 -0.00103425)
(-0.0007063 0 -0.0019577)
(-0.000710105 0 -0.00240438)
(-0.000711253 0 -0.00237689)
(-0.000709988 0 -0.00170111)
(-0.000704464 0 -0.000148235)
(-0.000691978 0 0.00253336)
(-0.000669378 0 0.00658283)
(-0.000633491 0 0.0121795)
(-0.000582298 0 0.019389)
(-0.000516626 0 0.0281171)
(-0.000441705 0 0.0380904)
(-0.000367756 0 0.0488765)
(-0.000308925 0 0.0599451)
(-0.000280641 0 0.0707515)
(-0.000296328 0 0.0808136)
(-0.000364736 0 0.0897556)
(-0.000488741 0 0.0973085)
(-0.000665461 0 0.10327)
(-0.000886717 0 0.107436)
(-0.00113861 0 0.109516)
(-0.00139935 0 0.10905)
(-0.00163652 0 0.105405)
(-0.00180916 0 0.09809)
(-0.00188333 0 0.0876843)
(-0.00185895 0 0.0771043)
(-0.00177186 0 0.071416)
(-0.00165822 0 0.074292)
(-0.00157393 0 0.0838398)
(-0.00160987 0 0.0938832)
(-0.00182632 0 0.0995677)
(-0.00215475 0 0.0979888)
(-0.00243509 0 0.0901511)
(-0.00259424 0 0.0782007)
(-0.00262701 0 0.0640819)
(-0.00256243 0 0.0496539)
(-0.00244296 0 0.0364749)
(-0.00230513 0 0.0254754)
(-0.00217304 0 0.0169917)
(-0.00205807 0 0.011027)
(-0.00196043 0 0.00730583)
(-0.00187429 0 0.00516291)
(-0.0017939 0 0.00363968)
(-0.0017154 0 0.00183309)
(-0.00163535 0 -0.00080868)
(-0.00155046 0 -0.00443884)
(-0.00145878 0 -0.00893819)
(-0.00136061 0 -0.014052)
(-0.00125785 0 -0.0194502)
(-0.00115307 0 -0.024721)
(-0.00105021 0 -0.0293675)
(-0.000950584 0 -0.0328658)
(-0.000849871 0 -0.0348171)
(-0.000739828 0 -0.0351121)
(-0.000611761 0 -0.033996)
(-0.000461205 0 -0.031974)
(-0.00028795 0 -0.0296209)
(-9.37371e-05 0 -0.0274447)
(0.000120095 0 -0.0258514)
(0.00035471 0 -0.0252257)
(0.000615079 0 -0.0261339)
(0.000910892 0 -0.0296379)
(0.00125008 0 -0.0375482)
(0.00160511 0 -0.0517705)
(0.00184524 0 -0.0713524)
(0.00174191 0 -0.0883325)
(0.00134454 0 -0.0899792)
(0.0011805 0 -0.0714531)
(0.00151749 0 -0.0420684)
(0.00205707 0 -0.0141126)
(0.00249177 0 0.00544149)
(0.00279021 0 0.0181195)
(0.00301232 0 0.0274243)
(0.00318068 0 0.0345975)
(0.00331001 0 0.040318)
(0.00340863 0 0.0449525)
(0.00348223 0 0.0487126)
(0.00353497 0 0.0517322)
(0.00357028 0 0.0541027)
(0.00359103 0 0.0558899)
(0.00359978 0 0.0571424)
(0.0035988 0 0.0578971)
(0.00359014 0 0.0581825)
(0.0035757 0 0.0580206)
(0.00355719 0 0.0574286)
(0.00353615 0 0.0564197)
(0.00351402 0 0.0550028)
(0.00349206 0 0.0531832)
(0.00347142 0 0.0509626)
(0.00345305 0 0.0483393)
(0.00343772 0 0.0453095)
(0.00342592 0 0.0418696)
(0.00341772 0 0.0380198)
(0.00341263 0 0.0337707)
(0.0034094 0 0.0291521)
(0.00340619 0 0.0242215)
(0.00340101 0 0.0190706)
(0.00339386 0 0.0138236)
(0.00339014 0 0.00866052)
(0.00337761 0 0.00392799)
(-0.000962622 0 -0.0010318)
(-0.00096084 0 -0.00195322)
(-0.000964212 0 -0.00240073)
(-0.000964694 0 -0.00237764)
(-0.000962802 0 -0.00171066)
(-0.000956802 0 -0.000171712)
(-0.000944033 0 0.00249026)
(-0.000921415 0 0.00651466)
(-0.000885861 0 0.0120829)
(-0.000835408 0 0.0192655)
(-0.000770848 0 0.0279754)
(-0.000697278 0 0.0379471)
(-0.000624747 0 0.0487543)
(-0.000567315 0 0.0598684)
(-0.000540524 0 0.0707407)
(-0.000558127 0 0.0808807)
(-0.00062934 0 0.0899028)
(-0.000757482 0 0.0975284)
(-0.000939963 0 0.103548)
(-0.00116867 0 0.107752)
(-0.00142949 0 0.109843)
(-0.00170019 0 0.109355)
(-0.00194764 0 0.105646)
(-0.00213013 0 0.098231)
(-0.00221305 0 0.0877159)
(-0.00219524 0 0.0770526)
(-0.00211204 0 0.0713236)
(-0.00200168 0 0.0742041)
(-0.00192276 0 0.0838204)
(-0.00196603 0 0.0939799)
(-0.00219316 0 0.0997609)
(-0.00253593 0 0.0981961)
(-0.00282924 0 0.0903011)
(-0.00299834 0 0.0782671)
(-0.00303701 0 0.0640722)
(-0.00297438 0 0.0495922)
(-0.00285353 0 0.0363878)
(-0.00271174 0 0.0253832)
(-0.00257372 0 0.0169066)
(-0.00245135 0 0.010953)
(-0.00234531 0 0.0072411)
(-0.00225014 0 0.00510374)
(-0.00216024 0 0.00358285)
(-0.00207163 0 0.00177616)
(-0.00198056 0 -0.000868033)
(-0.00188336 0 -0.00450271)
(-0.00177767 0 -0.00900705)
(-0.00166366 0 -0.014125)
(-0.00154359 0 -0.019526)
(-0.00141969 0 -0.0247976)
(-0.001295 0 -0.0294432)
(-0.00117075 0 -0.0329415)
(-0.00104291 0 -0.034897)
(-0.000903574 0 -0.0352019)
(-0.000744187 0 -0.0340998)
(-0.000560479 0 -0.0320935)
(-0.000352376 0 -0.0297556)
(-0.000121768 0 -0.0275934)
(0.00012976 0 -0.0260139)
(0.000403094 0 -0.025404)
(0.000702799 0 -0.0263328)
(0.00103787 0 -0.0298629)
(0.00141529 0 -0.0377922)
(0.00180603 0 -0.0519801)
(0.00208183 0 -0.0714109)
(0.00202716 0 -0.0881832)
(0.00169609 0 -0.089812)
(0.00159446 0 -0.0715303)
(0.0019795 0 -0.0423772)
(0.00256452 0 -0.0144675)
(0.003041 0 0.00514283)
(0.00337412 0 0.0178836)
(0.00362691 0 0.027237)
(0.00382234 0 0.034446)
(0.00397555 0 0.0401949)
(0.00409527 0 0.0448535)
(0.00418742 0 0.0486349)
(0.00425642 0 0.0516737)
(0.00430589 0 0.0540617)
(0.00433892 0 0.0558646)
(0.00435823 0 0.0571312)
(0.00436628 0 0.0578984)
(0.00436527 0 0.0581945)
(0.00435724 0 0.0580416)
(0.00434402 0 0.0574567)
(0.00432728 0 0.0564529)
(0.00430855 0 0.0550391)
(0.0042892 0 0.0532206)
(0.00427045 0 0.0509989)
(0.00425335 0 0.0483725)
(0.00423875 0 0.0453378)
(0.0042272 0 0.0418918)
(0.00421885 0 0.0380357)
(0.00421327 0 0.0337819)
(0.00420932 0 0.0291618)
(0.00420528 0 0.0242341)
(0.00419937 0 0.0190892)
(0.00419185 0 0.0138475)
(0.00418839 0 0.00868395)
(0.00417542 0 0.0039427)
(-0.00124691 0 -0.00103067)
(-0.0012442 0 -0.00195098)
(-0.001247 0 -0.00239963)
(-0.00124665 0 -0.00238077)
(-0.00124402 0 -0.00172206)
(-0.00123755 0 -0.000196315)
(-0.00122466 0 0.00244694)
(-0.00120242 0 0.00644735)
(-0.00116786 0 0.0119884)
(-0.0011191 0 0.0191452)
(-0.0010569 0 0.0278377)