/*--------------------------------*- C++ -*----------------------------------*\
  =========                 |
  \\      /  F ield         | OpenFOAM: The Open Source CFD Toolbox
   \\    /   O peration     | Website:  https://openfoam.org
    \\  /    A nd           | Version:  9
     \\/     M anipulation  |
\*---------------------------------------------------------------------------*/
FoamFile
{
    format      ascii;
    class       surfaceVectorField;
    location    "0.15";
    object      Uf;
}
// * * * * * * * * * * * * * * * * * * * * * * * * * * * * * * * * * * * * * //

dimensions      [0 1 -1 0 0 0 0];

internalField   nonuniform List<vector> 
39700
(
(2.15639e-05 0 -0.00152833)
(5.57703e-05 0 -0.00107118)
(1.95893e-05 0 -0.00219157)
(5.02624e-05 0 -0.00197961)
(1.91199e-05 0 -0.0023712)
(4.92629e-05 0 -0.00239792)
(1.94065e-05 0 -0.00198063)
(4.9701e-05 0 -0.00233197)
(2.04519e-05 0 -0.000809775)
(5.11197e-05 0 -0.00160296)
(2.26907e-05 0 0.00139379)
(5.30039e-05 0 2.85385e-05)
(2.76447e-05 0 0.00488605)
(5.71487e-05 0 0.00282501)
(3.65604e-05 0 0.00987553)
(6.60821e-05 0 0.00703385)
(5.06382e-05 0 0.0164628)
(8.08591e-05 0 0.0128235)
(7.01724e-05 0 0.0245887)
(0.000102896 0 0.0202251)
(9.38801e-05 0 0.0340107)
(0.000132052 0 0.029089)
(0.000118751 0 0.0443232)
(0.000165797 0 0.0390806)
(0.000140649 0 0.0550196)
(0.000199293 0 0.0497237)
(0.000155468 0 0.0655766)
(0.000226442 0 0.0604809)
(0.000160265 0 0.0755303)
(0.000241521 0 0.0708415)
(0.000153826 0 0.0845186)
(0.00024059 0 0.080386)
(0.00013649 0 0.0922837)
(0.000222089 0 0.0888084)
(0.000109515 0 0.0986403)
(0.000186539 0 0.0958985)
(7.44078e-05 0 0.103424)
(0.000135788 0 0.101497)
(3.26529e-05 0 0.106428)
(7.24356e-05 0 0.105434)
(-1.37807e-05 0 0.107333)
(2.722e-08 0 0.107464)
(-6.07576e-05 0 0.105661)
(-7.53833e-05 0 0.107189)
(-9.94117e-05 0 0.100871)
(-0.000142326 0 0.104044)
(-0.000115852 0 0.0928607)
(-0.000182376 0 0.0975078)
(-9.92067e-05 0 0.0830437)
(-0.000177624 0 0.0879202)
(-5.46992e-05 0 0.0751518)
(-0.000129043 0 0.0778366)
(-1.1767e-06 0 0.073607)
(-6.03089e-05 0 0.0722328)
(4.33131e-05 0 0.0794092)
(4.45808e-06 0 0.074941)
(5.65875e-05 0 0.0885587)
(4.42355e-05 0 0.083989)
(2.87674e-05 0 0.095592)
(3.3797e-05 0 0.0932611)
(-2.90148e-05 0 0.0975866)
(-3.34176e-05 0 0.0983663)
(-8.07788e-05 0 0.0930616)
(-0.000122983 0 0.0967415)
(-0.00011017 0 0.0836502)
(-0.000191008 0 0.0893066)
(-0.00011552 0 0.0711317)
(-0.000220644 0 0.0779031)
(-0.000102682 0 0.0572443)
(-0.000214661 0 0.064256)
(-8.09048e-05 0 0.0436432)
(-0.000185553 0 0.0501199)
(-5.86558e-05 0 0.0315985)
(-0.000148121 0 0.0370498)
(-4.07396e-05 0 0.0218011)
(-0.000113322 0 0.0260288)
(-2.86244e-05 0 0.0144786)
(-8.65912e-05 0 0.0174535)
(-2.1685e-05 0 0.00954292)
(-6.91591e-05 0 0.0113813)
(-1.81006e-05 0 0.006551)
(-5.92058e-05 0 0.00757766)
(-1.60228e-05 0 0.0046923)
(-5.34106e-05 0 0.00539107)
(-1.44216e-05 0 0.00302414)
(-4.91938e-05 0 0.00385314)
(-1.31931e-05 0 0.000806835)
(-4.65856e-05 0 0.00204834)
(-8.63575e-06 0 -0.00231458)
(-3.87532e-05 0 -0.000588655)
(-6.8661e-06 0 -0.00635628)
(-3.03643e-05 0 -0.00419912)
(-3.12711e-06 0 -0.0111402)
(-2.54386e-05 0 -0.00867539)
(1.21785e-06 0 -0.0163874)
(-1.73134e-05 0 -0.0137724)
(4.82234e-06 0 -0.0217365)
(-9.05262e-06 0 -0.0191739)
(6.56417e-06 0 -0.0267318)
(-2.99787e-06 0 -0.0244737)
(5.43885e-06 0 -0.030847)
(-1.01107e-06 0 -0.0291664)
(1.46533e-06 0 -0.0335964)
(-4.03452e-06 0 -0.0327059)
(-3.89933e-06 0 -0.0347055)
(-1.08419e-05 0 -0.0346674)
(-8.51831e-06 0 -0.0342399)
(-1.82621e-05 0 -0.034928)
(-1.07953e-05 0 -0.0325909)
(-2.28989e-05 0 -0.0337411)
(-1.04414e-05 0 -0.0303188)
(-2.29898e-05 0 -0.0316349)
(-8.01226e-06 0 -0.0279761)
(-1.86988e-05 0 -0.0292009)
(-4.19001e-06 0 -0.026018)
(-1.10352e-05 0 -0.0269515)
(8.86419e-07 0 -0.0248266)
(-8.09002e-07 0 -0.0252856)
(7.75888e-06 0 -0.024852)
(1.24322e-05 0 -0.0245688)
(1.94309e-05 0 -0.0268745)
(3.12939e-05 0 -0.0253376)
(4.23711e-05 0 -0.0323333)
(6.26304e-05 0 -0.0286192)
(8.60838e-05 0 -0.0432925)
(0.000119835 0 -0.0362686)
(0.000145407 0 -0.0607909)
(0.000210755 0 -0.0505544)
(0.000154662 0 -0.0806583)
(0.000284342 0 -0.0712471)
(2.92563e-05 0 -0.0912493)
(0.000198219 0 -0.0901946)
(-0.00013659 0 -0.0820525)
(-6.47395e-05 0 -0.0923401)
(-0.000162925 0 -0.056092)
(-0.000241945 0 -0.0718533)
(-8.09178e-05 0 -0.0262498)
(-0.00018916 0 -0.0405444)
(-6.17271e-06 0 -0.00155866)
(-5.0939e-05 0 -0.012212)
(2.95652e-05 0 0.0133113)
(4.35915e-05 0 0.00694374)
(4.53764e-05 0 0.0238866)
(8.92542e-05 0 0.0191989)
(5.21212e-05 0 0.0318336)
(0.00011269 0 0.0281976)
(5.45905e-05 0 0.0380712)
(0.000124212 0 0.0351567)
(5.47122e-05 0 0.0430868)
(0.000129148 0 0.0407169)
(5.32831e-05 0 0.0471498)
(0.000129921 0 0.0452218)
(5.06896e-05 0 0.0504233)
(0.000127737 0 0.0488715)
(4.71585e-05 0 0.0530152)
(0.00012328 0 0.0517941)
(4.28459e-05 0 0.0550017)
(0.000116997 0 0.0540782)
(3.78733e-05 0 0.0564387)
(0.000109216 0 0.0557882)
(3.23465e-05 0 0.0573687)
(0.000100206 0 0.0569723)
(2.6365e-05 0 0.0578248)
(9.02067e-05 0 0.0576675)
(2.00293e-05 0 0.0578329)
(7.94448e-05 0 0.0579029)
(1.34456e-05 0 0.0574137)
(6.81505e-05 0 0.0577014)
(6.72991e-06 0 0.0565835)
(5.65653e-05 0 0.0570814)
(1.37899e-08 0 0.055355)
(4.49516e-05 0 0.0560575)
(-6.54858e-06 0 0.0537371)
(3.3604e-05 0 0.0546402)
(-1.27694e-05 0 0.0517352)
(2.28633e-05 0 0.0528369)
(-1.84164e-05 0 0.049351)
(1.31287e-05 0 0.0506509)
(-2.32029e-05 0 0.0465832)
(4.86682e-06 0 0.0480821)
(-2.67839e-05 0 0.0434281)
(-1.38862e-06 0 0.0451276)
(-2.87632e-05 0 0.0398814)
(-5.04897e-06 0 0.0417827)
(-2.87335e-05 0 0.035941)
(-5.51771e-06 0 0.0380431)
(-2.63742e-05 0 0.0316131)
(-2.31134e-06 0 0.0339088)
(-2.15913e-05 0 0.0269205)
(4.74131e-06 0 0.0293919)
(-1.46355e-05 0 0.0219125)
(1.53145e-05 0 0.0245268)
(-6.21129e-06 0 0.0166701)
(2.84621e-05 0 0.0193787)
(1.91582e-06 0 0.0113168)
(4.32479e-05 0 0.0140475)
(3.04537e-06 0 0.00609011)
(5.40095e-05 0 0.00869752)
(3.12718e-05 0 0.00369776)
(8.28375e-05 0 -0.00149896)
(0.000105983 0 -0.00104968)
(7.98751e-05 0 -0.00217311)
(0.000100658 0 -0.00197039)
(7.96164e-05 0 -0.00235664)
(0.000101109 0 -0.00239715)
(8.10831e-05 0 -0.00196708)
(0.000102695 0 -0.00233611)
(8.41877e-05 0 -0.000797972)
(0.000105517 0 -0.00161133)
(8.59885e-05 0 0.00140107)
(0.000109708 0 2.39146e-05)
(9.46786e-05 0 0.00488424)
(0.000116499 0 0.00280373)
(0.000108973 0 0.00985887)
(0.000128209 0 0.00700047)
(0.000131332 0 0.0164269)
(0.00014722 0 0.0127737)
(0.000162981 0 0.0245324)
(0.000175769 0 0.0201579)
(0.000202684 0 0.0339374)
(0.000214114 0 0.0290087)
(0.000246085 0 0.04424)
(0.00025932 0 0.0389969)
(0.000286185 0 0.0549352)
(0.000305025 0 0.0496499)
(0.000314947 0 0.0654988)
(0.000342569 0 0.0604304)
(0.000325353 0 0.0754636)
(0.000363132 0 0.0708241)
(0.000312963 0 0.0844639)
(0.000359892 0 0.0804057)
(0.000276387 0 0.0922394)
(0.000329262 0 0.0888639)
(0.000216806 0 0.0986036)
(0.00027094 0 0.0959847)
(0.000137182 0 0.103392)
(0.000187228 0 0.101606)
(4.20423e-05 0 0.106397)
(8.24582e-05 0 0.105559)
(-6.13197e-05 0 0.107299)
(-3.6551e-05 0 0.107593)
(-0.000159906 0 0.105617)
(-0.000158205 0 0.107307)
(-0.000232232 0 0.100807)
(-0.000262344 0 0.104126)
(-0.000252912 0 0.0927755)
(-0.000319588 0 0.0975303)
(-0.0002123 0 0.0829481)
(-0.000305511 0 0.0878781)
(-0.000135316 0 0.0750592)
(-0.000229833 0 0.0777606)
(-5.71177e-05 0 0.0735113)
(-0.00013598 0 0.0721592)
(7.81867e-06 0 0.0793008)
(-5.51403e-05 0 0.0748828)
(3.23829e-05 0 0.0884486)
(-5.4817e-06 0 0.0839681)
(-1.33385e-05 0 0.0954902)
(-2.27581e-05 0 0.0932985)
(-0.000126676 0 0.0974879)
(-0.000126544 0 0.0984419)
(-0.000240642 0 0.0929551)
(-0.000270482 0 0.0968175)
(-0.000310652 0 0.0835304)
(-0.000383457 0 0.0893533)
(-0.000327134 0 0.0710001)
(-0.000434528 0 0.0779141)
(-0.000301462 0 0.0571053)
(-0.000426247 0 0.0642389)
(-0.000253573 0 0.0435001)
(-0.000378527 0 0.0500879)
(-0.000201665 0 0.0314526)
(-0.000315457 0 0.0370151)
(-0.000157107 0 0.0216523)
(-0.000255096 0 0.025999)
(-0.000124995 0 0.0143259)
(-0.000207087 0 0.017432)
(-0.000105282 0 0.00938446)
(-0.000174493 0 0.011368)
(-9.39758e-05 0 0.00638485)
(-0.000154854 0 0.00757005)
(-8.6378e-05 0 0.00451772)
(-0.000142473 0 0.00538595)
(-8.01154e-05 0 0.0028427)
(-0.000132272 0 0.00384894)
(-7.73015e-05 0 0.000624876)
(-0.000122538 0 0.00204645)
(-5.51815e-05 0 -0.00250241)
(-0.000110254 0 -0.000603389)
(-5.08978e-05 0 -0.00655731)
(-9.65058e-05 0 -0.00420195)
(-4.00906e-05 0 -0.0113497)
(-8.27086e-05 0 -0.00868255)
(-2.71903e-05 0 -0.0166027)
(-6.57561e-05 0 -0.0137809)
(-1.61014e-05 0 -0.0219562)
(-4.84048e-05 0 -0.0191812)
(-9.45049e-06 0 -0.0269546)
(-3.50429e-05 0 -0.024478)
(-9.42026e-06 0 -0.0310725)
(-2.8475e-05 0 -0.0291664)
(-1.58607e-05 0 -0.0338249)
(-3.02285e-05 0 -0.0327016)
(-2.56121e-05 0 -0.0349383)
(-3.83637e-05 0 -0.0346609)
(-3.37601e-05 0 -0.034478)
(-4.76045e-05 0 -0.0349226)
(-3.63635e-05 0 -0.0328342)
(-5.21519e-05 0 -0.0337395)
(-3.23432e-05 0 -0.0305662)
(-4.8809e-05 0 -0.0316378)
(-2.25815e-05 0 -0.0282259)
(-3.75157e-05 0 -0.0292076)
(-8.42634e-06 0 -0.0262689)
(-1.97153e-05 0 -0.0269611)
(9.78178e-06 0 -0.025078)
(3.3982e-06 0 -0.025298)
(3.39547e-05 0 -0.0251051)
(3.25427e-05 0 -0.0245851)
(7.06648e-05 0 -0.0271336)
(7.18157e-05 0 -0.0253622)
(0.000133858 0 -0.032606)
(0.000131771 0 -0.0286615)
(0.000239686 0 -0.0435806)
(0.000232354 0 -0.0363393)
(0.00036614 0 -0.0610607)
(0.000384831 0 -0.0506389)
(0.000377832 0 -0.0808403)
(0.00050966 0 -0.071255)
(0.000121904 0 -0.0913465)
(0.000381382 0 -0.0900241)
(-0.000221717 0 -0.082188)
(-3.57871e-05 0 -0.0921111)
(-0.000306679 0 -0.0563342)
(-0.000329274 0 -0.0717967)
(-0.000156579 0 -0.0265323)
(-0.000257611 0 -0.0406445)
(1.57084e-05 0 -0.00181211)
(-3.80499e-05 0 -0.0123268)
(0.000109975 0 0.0130919)
(0.00012227 0 0.00686684)
(0.000160747 0 0.0236923)
(0.000208032 0 0.0191555)
(0.000187216 0 0.0316555)
(0.000257191 0 0.0281738)
(0.000200308 0 0.0379053)
(0.000284437 0 0.0351444)
(0.000205405 0 0.0429311)
(0.000298497 0 0.0407119)
(0.00020513 0 0.0470037)
(0.000303829 0 0.0452222)
(0.000200886 0 0.0502864)
(0.000302869 0 0.0488762)
(0.000193532 0 0.0528873)
(0.000297091 0 0.0518025)
(0.000183664 0 0.0548826)
(0.000287492 0 0.0540901)
(0.000171746 0 0.0563283)
(0.000274811 0 0.0558032)
(0.000158173 0 0.057267)
(0.000259653 0 0.0569902)
(0.000143308 0 0.0577315)
(0.000242548 0 0.0576881)
(0.000127505 0 0.0577479)
(0.000223998 0 0.0579257)
(0.000111127 0 0.0573366)
(0.000204496 0 0.0577262)
(9.45628e-05 0 0.0565141)
(0.000184549 0 0.0571078)
(7.82365e-05 0 0.0552928)
(0.000164691 0 0.0560847)
(6.26306e-05 0 0.0536815)
(0.000145506 0 0.0546675)
(4.83009e-05 0 0.0516855)
(0.000127639 0 0.0528632)
(3.58877e-05 0 0.0493063)
(0.000111815 0 0.0506748)
(2.61146e-05 0 0.0465422)
(9.88354e-05 0 0.0481019)
(1.97682e-05 0 0.0433892)
(8.95662e-05 0 0.0451412)
(1.76474e-05 0 0.0398428)
(8.49041e-05 0 0.0417876)
(2.04465e-05 0 0.0359011)
(8.56961e-05 0 0.0380367)
(2.85344e-05 0 0.0315705)
(9.25561e-05 0 0.0338892)
(4.16854e-05 0 0.0268753)
(0.000105572 0 0.0293583)
(5.89042e-05 0 0.0218663)
(0.000124008 0 0.0244806)
(7.81931e-05 0 0.0166283)
(0.000146165 0 0.0193244)
(9.53004e-05 0 0.011303)
(0.000170299 0 0.0139969)
(9.78327e-05 0 0.00618992)
(0.000189398 0 0.00868973)
(0.000167118 0 0.00382588)
(0.000123086 0 -0.00149461)
(0.000124097 0 -0.00104509)
(0.000122674 0 -0.00217551)
(0.000121769 0 -0.00196911)
(0.000123995 0 -0.00236518)
(0.000123927 0 -0.00240107)
(0.000126771 0 -0.00198011)
(0.000126655 0 -0.00234397)
(0.000130733 0 -0.000815581)
(0.000130828 0 -0.00162201)
(0.0001398 0 0.00137682)
(0.000137651 0 6.16133e-07)
(0.000149391 0 0.00484951)
(0.000147358 0 0.00278023)
(0.000165369 0 0.00980934)
(0.000161285 0 0.00696316)
(0.000190196 0 0.0163604)
(0.000183118 0 0.0127185)
(0.000225234 0 0.0244514)
(0.000215253 0 0.0200836)
(0.000269226 0 0.0338505)
(0.000257934 0 0.0289197)
(0.000317359 0 0.0441607)
(0.000307943 0 0.038904)
(0.000361586 0 0.0548791)
(0.000358155 0 0.0495686)
(0.000392276 0 0.065479)
(0.000398646 0 0.0603766)
(0.000400531 0 0.0754879)
(0.000419 0 0.0708102)
(0.000380126 0 0.0845337)
(0.000410793 0 0.0804381)
(0.000328391 0 0.0923505)
(0.000369178 0 0.0889424)
(0.000246056 0 0.0987483)
(0.000293219 0 0.0961038)
(0.000136722 0 0.103561)
(0.000185363 0 0.101757)
(6.89606e-06 0 0.106578)
(5.09948e-05 0 0.10573)
(-0.00013247 0 0.107473)
(-0.000100905 0 0.107768)
(-0.000262734 0 0.10576)
(-0.000255111 0 0.107463)
(-0.000355312 0 0.100888)
(-0.000385974 0 0.104232)
(-0.000379094 0 0.0927744)
(-0.000457205 0 0.0975561)
(-0.000325474 0 0.0828808)
(-0.000439761 0 0.0878226)
(-0.000229401 0 0.0749709)
(-0.000348305 0 0.0776658)
(-0.000138366 0 0.0734406)
(-0.000239717 0 0.0720736)
(-7.06773e-05 0 0.0792727)
(-0.00015126 0 0.0748222)
(-5.27006e-05 0 0.0884849)
(-9.97992e-05 0 0.0839529)
(-0.000117188 0 0.095584)
(-0.000127031 0 0.0933513)
(-0.000267461 0 0.0976047)
(-0.000259428 0 0.0985422)
(-0.000419762 0 0.0930514)
(-0.00044342 0 0.0969191)
(-0.000516271 0 0.0835844)
(-0.000589834 0 0.0894177)
(-0.000541277 0 0.0710128)
(-0.000657565 0 0.0779308)
(-0.000507817 0 0.0570902)
(-0.000648743 0 0.0642165)
(-0.000441948 0 0.0434742)
(-0.000587983 0 0.0500439)
(-0.000368398 0 0.0314292)
(-0.000505741 0 0.036966)
(-0.000303292 0 0.021639)
(-0.000425228 0 0.0259555)
(-0.000254432 0 0.0143253)
(-0.000359394 0 0.0173993)
(-0.000222573 0 0.00939512)
(-0.000312975 0 0.0113467)
(-0.000202818 0 0.00640314)
(-0.000283387 0 0.00755679)
(-0.000188509 0 0.00454015)
(-0.000263423 0 0.00537635)
(-0.000174797 0 0.00286727)
(-0.000246149 0 0.00383977)
(-0.000155006 0 0.000653344)
(-0.000226718 0 0.00203326)
(-0.000150301 0 -0.00247174)
(-0.000211215 0 -0.000606487)
(-0.000130948 0 -0.0065308)
(-0.000194728 0 -0.00421479)
(-0.000108393 0 -0.0113269)
(-0.000170661 0 -0.0086975)
(-8.62051e-05 0 -0.0165792)
(-0.000143839 0 -0.0137956)
(-6.65203e-05 0 -0.0219293)
(-0.000116698 0 -0.0191943)
(-5.29003e-05 0 -0.0269222)
(-9.47698e-05 0 -0.024487)
(-4.82009e-05 0 -0.0310335)
(-8.13005e-05 0 -0.0291694)
(-5.22843e-05 0 -0.0337806)
(-7.81861e-05 0 -0.0326989)
(-6.08377e-05 0 -0.0348921)
(-8.29771e-05 0 -0.0346553)
(-6.72913e-05 0 -0.0344337)
(-8.90053e-05 0 -0.0349185)
(-6.61177e-05 0 -0.0327943)
(-8.88836e-05 0 -0.0337405)
(-5.54052e-05 0 -0.0305312)
(-7.83535e-05 0 -0.0316451)
(-3.58824e-05 0 -0.0281953)
(-5.69976e-05 0 -0.0292209)
(-9.09016e-06 0 -0.0262423)
(-2.64081e-05 0 -0.0269793)
(2.46607e-05 0 -0.0250563)
(1.21484e-05 0 -0.0253207)
(6.80227e-05 0 -0.0250919)
(5.95657e-05 0 -0.0246143)
(0.000129427 0 -0.0271374)
(0.000120718 0 -0.0254034)
(0.000226066 0 -0.0326392)
(0.00020797 0 -0.0287262)
(0.000375418 0 -0.0436408)
(0.000343629 0 -0.0364391)
(0.000543227 0 -0.0610841)
(0.000539115 0 -0.0507509)
(0.000559634 0 -0.0807087)
(0.000698669 0 -0.0712661)
(0.000242968 0 -0.0910663)
(0.000550705 0 -0.0898131)
(-0.000190327 0 -0.0819688)
(4.75817e-05 0 -0.0918223)
(-0.00031625 0 -0.0563113)
(-0.000312081 0 -0.0717128)
(-0.00013894 0 -0.026618)
(-0.000227875 0 -0.0407627)
(9.06073e-05 0 -0.00188837)
(4.3728e-05 0 -0.0124799)
(0.000226961 0 0.0130526)
(0.000250439 0 0.00675563)
(0.000309632 0 0.0236823)
(0.000369342 0 0.0190848)
(0.000357792 0 0.0316632)
(0.000442853 0 0.0281307)
(0.000384928 0 0.0379235)
(0.000486989 0 0.0351189)
(0.000398528 0 0.0429564)
(0.000512366 0 0.0406986)
(0.000402709 0 0.0470341)
(0.00052478 0 0.0452179)
(0.000399884 0 0.050321)
(0.000527634 0 0.0488793)
(0.000391609 0 0.0529254)
(0.000523121 0 0.0518121)
(0.000378992 0 0.0549238)
(0.000512774 0 0.0541052)
(0.000362897 0 0.0563723)
(0.000497757 0 0.0558235)
(0.000344054 0 0.0573133)
(0.00047903 0 0.057015)
(0.000323128 0 0.0577798)
(0.000457437 0 0.0577169)
(0.000300754 0 0.0577976)
(0.000433763 0 0.0579581)
(0.000277567 0 0.0573873)
(0.000408768 0 0.0577614)
(0.000254224 0 0.0565649)
(0.000383213 0 0.0571449)
(0.00023142 0 0.0553429)
(0.000357877 0 0.0561227)
(0.000209907 0 0.0537297)
(0.000333576 0 0.0547052)
(0.000190506 0 0.0517301)
(0.000311181 0 0.0528989)
(0.000174114 0 0.0493453)
(0.00029162 0 0.0507065)
(0.000161685 0 0.0465731)
(0.000275879 0 0.0481272)
(0.000154205 0 0.0434092)
(0.000264972 0 0.0451572)
(0.000152615 0 0.0398487)
(0.000259901 0 0.0417913)
(0.000157679 0 0.03589)
(0.000261555 0 0.0380251)
(0.000169732 0 0.0315405)
(0.000270524 0 0.0338599)
(0.000188395 0 0.0268263)
(0.000286785 0 0.0293106)
(0.000212324 0 0.0218017)
(0.000309288 0 0.0244164)
(0.00023871 0 0.016558)
(0.000335625 0 0.01925)
(0.000261814 0 0.0112542)
(0.000362757 0 0.0139286)
(0.000271071 0 0.00621056)
(0.000385092 0 0.00866104)
(0.000375071 0 0.0038712)
(0.000123065 0 -0.00149733)
(0.000102708 0 -0.00104543)
(0.000123975 0 -0.00218339)
(0.000101985 0 -0.00197193)
(0.000126338 0 -0.00237923)
(0.000103997 0 -0.00240807)
(0.000130455 0 -0.00200021)
(0.00010698 0 -0.0023556)
(0.000136496 0 -0.000841946)
(0.000111831 0 -0.00163828)
(0.000145635 0 0.00134152)
(0.000119317 0 -2.28561e-05)
(0.000158482 0 0.00480079)
(0.000130397 0 0.00274877)
(0.000178041 0 0.0097431)
(0.000147076 0 0.00691749)
(0.000206995 0 0.0162748)
(0.000172576 0 0.012654)
(0.000246681 0 0.0243497)
(0.000209171 0 0.0199993)
(0.000295525 0 0.0337424)
(0.000256892 0 0.0288208)
(0.000348068 0 0.0440622)
(0.000312039 0 0.0388026)
(0.000395305 0 0.0548086)
(0.000366692 0 0.0494817)
(0.000426434 0 0.0654533)
(0.000409863 0 0.0603219)
(0.00043137 0 0.0755179)
(0.000429956 0 0.0708019)
(0.000402917 0 0.0846229)
(0.000417458 0 0.0804833)
(0.000337836 0 0.0924955)
(0.000366761 0 0.0890411)
(0.00023681 0 0.0989407)
(0.00027663 0 0.0962499)
(0.000103989 0 0.103788)
(0.000149751 0 0.10194)
(-5.28757e-05 0 0.106823)
(-7.68601e-06 0 0.105936)
(-0.000220697 0 0.107714)
(-0.000185234 0 0.107978)
(-0.000377569 0 0.105962)
(-0.000365394 0 0.10765)
(-0.000490532 0 0.101015)
(-0.00051934 0 0.10436)
(-0.000524151 0 0.0928015)
(-0.000606925 0 0.0975927)
(-0.000468095 0 0.0828257)
(-0.000595694 0 0.0877646)
(-0.000360271 0 0.0748858)
(-0.000500409 0 0.0775594)
(-0.000255111 0 0.0733737)
(-0.000382804 0 0.0719748)
(-0.000179629 0 0.0792589)
(-0.000284631 0 0.0747546)
(-0.00016666 0 0.0885534)
(-0.000227779 0 0.0839419)
(-0.000250198 0 0.0957297)
(-0.000262224 0 0.0934196)
(-0.000433754 0 0.097788)
(-0.00041878 0 0.0986647)
(-0.000618788 0 0.0932151)
(-0.000636893 0 0.0970426)
(-0.000737804 0 0.0836973)
(-0.000812008 0 0.089497)
(-0.000771029 0 0.0710728)
(-0.000895255 0 0.0779529)
(-0.000732704 0 0.0571125)
(-0.000888509 0 0.0641909)
(-0.000653275 0 0.0434796)
(-0.000819414 0 0.0499909)
(-0.000562461 0 0.0314355)
(-0.000722958 0 0.0369053)
(-0.000480214 0 0.0216566)
(-0.000626352 0 0.0259005)
(-0.000416489 0 0.0143584)
(-0.000545298 0 0.0173567)
(-0.000372718 0 0.00944261)
(-0.000485956 0 0.0113174)
(-0.000343567 0 0.00646095)
(-0.000445848 0 0.00753726)
(-0.000321219 0 0.00460391)
(-0.000417061 0 0.00536139)
(-0.000299614 0 0.00293289)
(-0.000392192 0 0.00382534)
(-0.000276573 0 0.000713683)
(-0.000365836 0 0.00201792)
(-0.000260405 0 -0.00240863)
(-0.000341387 0 -0.000617211)
(-0.00023573 0 -0.00645883)
(-0.000316875 0 -0.00423116)
(-0.000205645 0 -0.0112527)
(-0.000285805 0 -0.00871746)
(-0.000173679 0 -0.0165016)
(-0.000249771 0 -0.0138168)
(-0.000144406 0 -0.021846)
(-0.00021307 0 -0.0192137)
(-0.000122357 0 -0.026831)
(-0.000181745 0 -0.0245017)
(-0.000110541 0 -0.0309338)
(-0.000159711 0 -0.0291772)
(-0.000108646 0 -0.0336745)
(-0.000148927 0 -0.0327002)
(-0.00011161 0 -0.0347839)
(-0.000146418 0 -0.0346534)
(-0.000111715 0 -0.0343284)
(-0.000144655 0 -0.0349186)
(-0.000102423 0 -0.0326949)
(-0.000135288 0 -0.0337469)
(-8.12526e-05 0 -0.0304385)
(-0.000113385 0 -0.0316595)
(-4.87161e-05 0 -0.0281086)
(-7.83022e-05 0 -0.0292429)
(-6.34315e-06 0 -0.0261613)
(-3.17009e-05 0 -0.0270078)
(4.56386e-05 0 -0.0249819)
(2.52989e-05 0 -0.0253557)
(0.000110382 0 -0.0250283)
(9.37942e-05 0 -0.0246577)
(0.00019719 0 -0.0270936)
(0.00017909 0 -0.0254616)
(0.000324299 0 -0.0326268)
(0.00029441 0 -0.0288112)
(0.000508141 0 -0.0436514)
(0.000461746 0 -0.0365619)
(0.000704286 0 -0.0610408)
(0.000688449 0 -0.0508818)
(0.000721577 0 -0.0804857)
(0.000866718 0 -0.0712778)
(0.000369663 0 -0.0906844)
(0.000704666 0 -0.0895785)
(-0.000107505 0 -0.0816682)
(0.000157468 0 -0.0915042)
(-0.000247728 0 -0.0562468)
(-0.000226618 0 -0.0716193)
(-4.45902e-05 0 -0.0266938)
(-0.000120494 0 -0.0408981)
(0.000228244 0 -0.00196401)
(0.000193439 0 -0.0126617)
(0.00039821 0 0.0130186)
(0.000437169 0 0.00661706)
(0.000507246 0 0.0236849)
(0.000584089 0 0.0189916)
(0.000575228 0 0.0316897)
(0.000679454 0 0.0280698)
(0.000616727 0 0.0379651)
(0.000740035 0 0.03508)
(0.000640274 0 0.0430081)
(0.000777589 0 0.0406754)
(0.000650879 0 0.0470932)
(0.000798653 0 0.0452071)
(0.000651678 0 0.0503857)
(0.000807273 0 0.0488786)
(0.000644798 0 0.0529946)
(0.00080618 0 0.05182)
(0.000631808 0 0.0549967)
(0.000797354 0 0.0541208)
(0.000613956 0 0.0564482)
(0.000782342 0 0.0558458)
(0.000592306 0 0.0573917)
(0.000762437 0 0.0570434)
(0.000567816 0 0.0578599)
(0.000738779 0 0.0577506)
(0.000541395 0 0.0578788)
(0.000712419 0 0.0579962)
(0.000513929 0 0.0574686)
(0.000684361 0 0.057803)
(0.000486303 0 0.0566453)
(0.000655583 0 0.0571888)
(0.000459425 0 0.055421)
(0.000627063 0 0.0561676)
(0.000434231 0 0.0538038)
(0.000599785 0 0.0547493)
(0.000411704 0 0.0517982)
(0.000574761 0 0.0529403)
(0.000392864 0 0.0494049)
(0.000553026 0 0.0507429)
(0.000378756 0 0.0466213)
(0.000535637 0 0.0481559)
(0.000370412 0 0.0434427)
(0.000523635 0 0.0451751)
(0.000368774 0 0.0398643)
(0.000517991 0 0.0417952)
(0.000374539 0 0.0358847)
(0.000519497 0 0.038012)
(0.000387899 0 0.0315127)
(0.000528564 0 0.0338275)
(0.00040821 0 0.026777)
(0.00054492 0 0.0292587)
(0.00043363 0 0.0217361)
(0.000567144 0 0.0243481)
(0.000460451 0 0.0164893)
(0.000592127 0 0.0191744)
(0.000482343 0 0.0112061)
(0.000615741 0 0.0138638)
(0.000492088 0 0.00620481)
(0.00063385 0 0.00863083)
(0.000628985 0 0.0038807)
(8.17338e-05 0 -0.00149884)
(4.07211e-05 0 -0.00104527)
(8.23366e-05 0 -0.0021881)
(4.05423e-05 0 -0.00197381)
(8.43089e-05 0 -0.00238851)
(4.11738e-05 0 -0.00241392)
(8.81453e-05 0 -0.00201453)
(4.33094e-05 0 -0.00236644)
(9.42897e-05 0 -0.000862181)
(4.7546e-05 0 -0.00165483)
(0.000103664 0 0.00131283)
(5.47001e-05 0 -4.69356e-05)
(0.000118293 0 0.00475935)
(6.6312e-05 0 0.00271295)
(0.000140766 0 0.00968416)
(8.48588e-05 0 0.00686502)
(0.000173688 0 0.0161958)
(0.000113363 0 0.0125807)
(0.000218181 0 0.0242529)
(0.00015402 0 0.0199049)
(0.00027227 0 0.033637)
(0.000206614 0 0.0287114)
(0.000329868 0 0.0439635)
(0.00026696 0 0.0386915)
(0.000381097 0 0.0547351)
(0.00032642 0 0.0493874)
(0.000414114 0 0.0654221)
(0.000373082 0 0.060264)
(0.000417779 0 0.0755408)
(0.000394317 0 0.0707956)
(0.000384037 0 0.0847044)
(0.000379665 0 0.0805369)
(0.000309167 0 0.0926328)
(0.000322844 0 0.0891546)
(0.000193847 0 0.0991251)
(0.000222365 0 0.0964167)
(4.27216e-05 0 0.104006)
(8.11345e-05 0 0.102149)
(-0.000135454 0 0.107057)
(-9.39767e-05 0 0.10617)
(-0.000326018 0 0.107939)
(-0.000291367 0 0.108217)
(-0.000504892 0 0.106145)
(-0.000491945 0 0.107864)
(-0.000636605 0 0.101117)
(-0.000665145 0 0.10451)
(-0.000683626 0 0.0928044)
(-0.000769441 0 0.0976438)
(-0.000634482 0 0.0827507)
(-0.000771182 0 0.0877138)
(-0.000526269 0 0.0747855)
(-0.000683232 0 0.0774527)
(-0.00041409 0 0.073292)
(-0.00056533 0 0.0718693)
(-0.000330607 0 0.0792249)
(-0.000459645 0 0.0746799)
(-0.000316659 0 0.0885947)
(-0.00039496 0 0.0839302)
(-0.000411118 0 0.0958443)
(-0.000431287 0 0.0934969)
(-0.000621476 0 0.0979387)
(-0.000605142 0 0.098805)
(-0.00083479 0 0.0933438)
(-0.000851238 0 0.0971848)
(-0.000974697 0 0.0837714)
(-0.00105123 0 0.0895903)
(-0.00101762 0 0.0710893)
(-0.00114975 0 0.0779815)
(-0.000978432 0 0.0570872)
(-0.00114798 0 0.0641647)
(-0.000890463 0 0.0434345)
(-0.00107515 0 0.0499321)
(-0.000786905 0 0.0313887)
(-0.000969194 0 0.0368362)
(-0.00069072 0 0.0216195)
(-0.000860287 0 0.0258362)
(-0.000613791 0 0.0143354)
(-0.000766444 0 0.0173053)
(-0.000558319 0 0.00943258)
(-0.000695093 0 0.0112803)
(-0.000518965 0 0.00645939)
(-0.000644081 0 0.00751094)
(-0.00048776 0 0.00460598)
(-0.000605398 0 0.00534054)
(-0.000458605 0 0.00293527)
(-0.000571707 0 0.0038059)
(-0.000429542 0 0.000713217)
(-0.000538339 0 0.00199858)
(-0.000400296 0 -0.00241142)
(-0.000503709 0 -0.000636641)
(-0.000366369 0 -0.00646026)
(-0.000468071 0 -0.00425368)
(-0.000329904 0 -0.0112529)
(-0.000428896 0 -0.00874167)
(-0.000289102 0 -0.0165005)
(-0.00038427 0 -0.0138439)
(-0.000250198 0 -0.0218407)
(-0.000338139 0 -0.0192395)
(-0.000218655 0 -0.0268189)
(-0.000296634 0 -0.0245226)
(-0.000197664 0 -0.0309144)
(-0.000264453 0 -0.0291912)
(-0.000186629 0 -0.0336497)
(-0.000243364 0 -0.0327076)
(-0.00017997 0 -0.0347584)
(-0.000229939 0 -0.034658)
(-0.000169227 0 -0.0343073)
(-0.000216155 0 -0.0349259)
(-0.000147391 0 -0.0326815)
(-0.00019312 0 -0.0337617)
(-0.000111658 0 -0.0304336)
(-0.000155624 0 -0.0316836)
(-6.24013e-05 0 -0.0281116)
(-0.00010297 0 -0.029276)
(-9.18056e-07 0 -0.0261716)
(-3.68015e-05 0 -0.0270491)
(7.22585e-05 0 -0.0250006)
(4.1918e-05 0 -0.0254048)
(0.000161105 0 -0.0250597)
(0.00013449 0 -0.0247172)
(0.000275074 0 -0.0271472)
(0.000246471 0 -0.0255378)
(0.000431917 0 -0.0327135)
(0.000391208 0 -0.0289159)
(0.00064439 0 -0.0437592)
(0.000588667 0 -0.0367037)
(0.00085778 0 -0.0610862)
(0.000839108 0 -0.0510242)
(0.000870819 0 -0.0803398)
(0.00102506 0 -0.0712865)
(0.000502152 0 -0.0903712)
(0.000853016 0 -0.0893328)
(1.71378e-05 0 -0.0814324)
(0.000293277 0 -0.0911809)
(-0.000114808 0 -0.05625)
(-8.30817e-05 0 -0.0715313)
(0.000117697 0 -0.0268451)
(5.44685e-05 0 -0.041053)
(0.000429063 0 -0.00211845)
(0.000407488 0 -0.0128692)
(0.000628354 0 0.0129078)
(0.000684226 0 0.00645462)
(0.000760859 0 0.0236149)
(0.000856779 0 0.0188784)
(0.000847336 0 0.0316483)
(0.00097272 0 0.0279923)
(0.000903213 0 0.0379438)
(0.0010497 0 0.0350275)
(0.00093767 0 0.0430016)
(0.00110029 0 0.0406416)
(0.000956265 0 0.0470984)
(0.00113144 0 0.0451879)
(0.000962607 0 0.0504006)
(0.00114764 0 0.0488717)
(0.000959248 0 0.0530178)
(0.001152 0 0.0518238)
(0.000948134 0 0.0550272)
(0.00114686 0 0.054134)
(0.000930847 0 0.0564851)
(0.00113408 0 0.0558674)
(0.000908748 0 0.057434)
(0.00111527 0 0.0570724)
(0.000883065 0 0.0579069)
(0.00109181 0 0.057786)
(0.000854945 0 0.0579292)
(0.001065 0 0.0580368)
(0.000825484 0 0.0575214)
(0.00103605 0 0.0578476)
(0.000795754 0 0.056699)
(0.00100612 0 0.0572361)
(0.000766812 0 0.0554739)
(0.00097634 0 0.0562159)
(0.00073972 0 0.0538541)
(0.000947808 0 0.0547969)
(0.000715542 0 0.0518435)
(0.000921619 0 0.0529849)
(0.000695348 0 0.0494426)
(0.000898855 0 0.050782)
(0.000680185 0 0.0466485)
(0.000880566 0 0.0481868)
(0.000671031 0 0.0434563)
(0.000867737 0 0.0451948)
(0.000668707 0 0.0398612)
(0.000861221 0 0.0418007)
(0.000673707 0 0.0358626)
(0.000861611 0 0.0380006)
(0.000685924 0 0.031471)
(0.000869031 0 0.0337979)
(0.000704317 0 0.026718)
(0.000882855 0 0.0292117)
(0.000726517 0 0.0216671)
(0.000901296 0 0.0242885)
(0.000748336 0 0.0164251)
(0.000920878 0 0.0191129)
(0.000764073 0 0.0111653)
(0.00093743 0 0.0138172)
(0.00076986 0 0.00619383)
(0.000948979 0 0.0086129)
(0.000943557 0 0.00388353)
(-7.48334e-07 0 -0.00149837)
(-6.21265e-05 0 -0.00104404)
(-8.71185e-07 0 -0.00218973)
(-6.19799e-05 0 -0.00197342)
(-1.12521e-08 0 -0.00239392)
(-6.29754e-05 0 -0.00241646)
(2.57853e-06 0 -0.00202501)
(-6.21615e-05 0 -0.00237375)
(7.77888e-06 0 -0.000879558)
(-5.91556e-05 0 -0.00166883)
(1.69776e-05 0 0.00128536)
(-5.27829e-05 0 -7.05491e-05)
(3.23627e-05 0 0.0047172)
(-4.10981e-05 0 0.00267528)
(5.67347e-05 0 0.0096226)
(-2.13695e-05 0 0.00680812)
(9.27042e-05 0 0.0161124)
(9.4606e-06 0 0.0125006)
(0.000141232 0 0.0241507)
(5.35507e-05 0 0.0198019)
(0.000199999 0 0.0335256)
(0.000110454 0 0.0285924)
(0.000262383 0 0.043859)
(0.000175572 0 0.0385711)
(0.000317783 0 0.0546568)
(0.000239667 0 0.0492854)
(0.000353487 0 0.0653879)
(0.000290059 0 0.0602012)
(0.000357449 0 0.075563)
(0.00031325 0 0.0707888)
(0.000320836 0 0.0847874)
(0.000297954 0 0.0805951)
(0.000239454 0 0.0927735)
(0.000237277 0 0.089278)
(0.000113911 0 0.0993142)
(0.000129472 0 0.0965982)
(-5.07686e-05 0 0.10423)
(-2.24073e-05 0 0.102376)
(-0.000244985 0 0.107296)
(-0.000210951 0 0.106426)
(-0.000452913 0 0.108167)
(-0.000423675 0 0.108478)
(-0.000649177 0 0.106327)
(-0.000640425 0 0.108099)
(-0.00079741 0 0.101217)
(-0.000829838 0 0.104679)
(-0.000859911 0 0.0928042)
(-0.000950484 0 0.0977117)
(-0.000824586 0 0.0826718)
(-0.000968926 0 0.0876772)
(-0.000725141 0 0.074678)
(-0.000895275 0 0.0773546)
(-0.000612951 0 0.0731978)
(-0.000783474 0 0.0717638)
(-0.000523446 0 0.0791748)
(-0.000673464 0 0.0745997)
(-0.000505552 0 0.0886193)
(-0.000600989 0 0.0839151)
(-0.000605038 0 0.0959438)
(-0.000635904 0 0.0935782)
(-0.000834721 0 0.0980751)
(-0.000821405 0 0.0989583)
(-0.00107121 0 0.0934562)
(-0.00108997 0 0.0973426)
(-0.00123006 0 0.083825)
(-0.00131134 0 0.0896963)
(-0.00128388 0 0.0710807)
(-0.00142473 0 0.0780174)
(-0.0012473 0 0.0570327)
(-0.00143006 0 0.0641403)
(-0.00115514 0 0.0433567)
(-0.00135702 0 0.0498706)
(-0.00104285 0 0.0313069)
(-0.00124528 0 0.0367612)
(-0.00093566 0 0.0215459)
(-0.00112718 0 0.0257647)
(-0.000847141 0 0.0142749)
(-0.00102262 0 0.0172462)
(-0.000780339 0 0.00938438)
(-0.000940161 0 0.0112357)
(-0.000730248 0 0.00641897)
(-0.000878132 0 0.00747748)
(-0.000689174 0 0.00456857)
(-0.000828834 0 0.00531313)
(-0.000651233 0 0.00289808)
(-0.000785089 0 0.00378062)
(-0.000613158 0 0.000675789)
(-0.000742898 0 0.00197324)
(-0.000573407 0 -0.00245207)
(-0.000698899 0 -0.000663071)
(-0.000529136 0 -0.00650465)
(-0.000652094 0 -0.00428311)
(-0.000483456 0 -0.0112994)
(-0.000602606 0 -0.00877203)
(-0.000433587 0 -0.0165481)
(-0.000548723 0 -0.0138771)
(-0.000384612 0 -0.0218857)
(-0.000492424 0 -0.0192721)
(-0.000342277 0 -0.0268584)
(-0.000439612 0 -0.0245508)
(-0.000309941 0 -0.0309475)
(-0.000395439 0 -0.0292127)
(-0.000286749 0 -0.0336785)