/*--------------------------------*- C++ -*----------------------------------*\
  =========                 |
  \\      /  F ield         | OpenFOAM: The Open Source CFD Toolbox
   \\    /   O peration     | Website:  https://openfoam.org
    \\  /    A nd           | Version:  9
     \\/     M anipulation  |
\*---------------------------------------------------------------------------*/
FoamFile
{
    format      ascii;
    class       surfaceScalarField;
    location    "0.09";
    object      alphaPhi0.water;
}
// * * * * * * * * * * * * * * * * * * * * * * * * * * * * * * * * * * * * * //

dimensions      [0 3 -1 0 0 0 0];

internalField   nonuniform List<scalar> 
9850
(
-2.07664e-69
-1.10365e-68
-3.9936e-69
-2.21793e-68
-1.22709e-68
-7.13817e-68
-4.12538e-68
-2.51929e-67
-1.49966e-67
-9.63673e-67
-5.97959e-67
-4.05347e-66
-2.64382e-66
-1.89569e-65
-1.29861e-65
-9.87563e-65
-7.03304e-65
-5.68697e-64
-4.1464e-64
-3.57261e-63
-2.62673e-63
-2.41496e-62
-1.76977e-62
-1.7367e-61
-1.25945e-61
-1.31775e-60
-9.42659e-61
-1.0489e-59
-7.40007e-60
-8.7232e-59
-6.07752e-59
-7.55681e-58
-5.20441e-58
-6.80218e-57
-4.62423e-57
-6.34839e-56
-4.23515e-56
-6.13129e-55
-3.9682e-55
-6.11776e-54
-3.77825e-54
-6.29729e-53
-3.64282e-53
-6.6766e-52
-3.5632e-52
-7.27466e-51
-3.56164e-51
-8.11652e-50
-3.66992e-50
-9.2257e-49
-3.90929e-49
-1.0616e-47
-4.26537e-48
-1.22842e-46
-4.6723e-47
-1.42155e-45
-5.03406e-46
-1.64079e-44
-5.29781e-45
-1.89034e-43
-5.47687e-44
-2.54426e-42
-6.65525e-43
-3.21743e-41
-7.99268e-42
-3.90667e-40
-9.24968e-41
-4.54179e-39
-9.95998e-40
-5.01672e-38
-9.71506e-39
-5.18653e-37
-8.41261e-38
-4.90154e-36
-6.28826e-37
-4.08951e-35
-3.83671e-36
-2.85069e-34
-1.71166e-35
-1.50308e-33
-4.45046e-35
-4.86396e-33
-2.44965e-35
-3.60719e-33
-2.54159e-35
-5.79557e-33
5.17741e-34
1.83991e-31
-6.21866e-33
1.10626e-29
-9.73489e-31
2.4668e-28
-3.94828e-29
4.52931e-27
-2.84778e-27
8.3876e-26
-1.43754e-26
1.33584e-24
5.60695e-24
-8.55521e-69
-4.54551e-68
-1.3645e-68
-7.57734e-68
-3.90735e-68
-2.27347e-67
-1.27274e-67
-7.77766e-67
-4.54708e-67
-2.92559e-66
-1.79391e-66
-1.21843e-65
-7.86417e-66
-5.65412e-65
-3.82832e-65
-2.92163e-64
-2.05257e-64
-1.66693e-63
-1.19699e-63
-1.03659e-62
-7.498e-63
-6.93252e-62
-4.99507e-62
-4.93123e-61
-3.51515e-61
-3.70029e-60
-2.60204e-60
-2.91226e-59
-2.02031e-59
-2.39428e-58
-1.64101e-58
-2.04999e-57
-1.3896e-57
-1.8235e-56
-1.22063e-56
-1.68161e-55
-1.10498e-55
-1.60477e-54
-1.02329e-54
-1.58222e-53
-9.63258e-54
-1.60931e-52
-9.18767e-53
-1.68577e-51
-8.89703e-52
-1.81414e-50
-8.80726e-51
-1.99806e-49
-8.98157e-50
-2.24035e-48
-9.45136e-49
-2.54096e-47
-1.01625e-47
-2.89549e-46
-1.09511e-46
-3.29667e-45
-1.16065e-45
-3.74003e-44
-1.20344e-44
-4.23053e-43
-1.22921e-43
-5.5838e-42
-1.47366e-42
-6.91435e-41
-1.73927e-41
-8.21621e-40
-1.97219e-40
-9.34904e-39
-2.08211e-39
-1.0121e-37
-2.00152e-38
-1.02934e-36
-1.72689e-37
-9.64914e-36
-1.31255e-36
-8.12449e-35
-8.46545e-36
-5.92014e-34
-4.31398e-35
-3.50722e-33
-1.51063e-34
-1.48892e-32
-2.3073e-34
-2.92551e-32
-1.64581e-36
-2.93718e-34
1.47584e-33
2.21189e-31
3.07961e-32
1.34124e-29
-5.24347e-31
2.84685e-28
-3.22768e-29
4.98952e-27
-1.85177e-27
8.74048e-26
-1.20908e-26
1.35947e-24
8.45679e-24
-5.81103e-68
-3.09124e-67
-6.54522e-68
-3.63988e-67
-1.50562e-67
-8.77605e-67
-4.27029e-67
-2.61552e-66
-1.39398e-66
-8.99511e-66
-5.21879e-66
-3.55762e-65
-2.22396e-65
-1.60614e-64
-1.06474e-64
-8.16905e-64
-5.63706e-64
-4.60615e-63
-3.24884e-63
-2.83278e-62
-2.01123e-62
-1.87327e-61
-1.32415e-61
-1.31719e-60
-9.21036e-61
-9.7685e-60
-6.74019e-60
-7.59728e-59
-5.17463e-59
-6.17142e-58
-4.15639e-58
-5.22045e-57
-3.48041e-57
-4.58771e-56
-3.0229e-56
-4.17999e-55
-2.70562e-55
-3.94169e-54
-2.47772e-54
-3.84092e-53
-2.30747e-53
-3.86167e-52
-2.17913e-52
-3.99862e-51
-2.09113e-51
-4.25294e-50
-2.05222e-50
-4.62788e-49
-2.07363e-49
-5.12411e-48
-2.15843e-48
-5.73535e-47
-2.29081e-47
-6.44554e-46
-2.43336e-46
-7.23266e-45
-2.543e-45
-8.08113e-44
-2.60436e-44
-8.99489e-43
-2.63391e-43
-1.16704e-41
-3.12015e-42
-1.41844e-40
-3.62285e-41
-1.65279e-39
-4.0272e-40
-1.84279e-38
-4.16554e-39
-1.95438e-37
-3.93354e-38
-1.94919e-36
-3.35447e-37
-1.79817e-35
-2.54915e-36
-1.50283e-34
-1.67981e-35
-1.10724e-33
-9.12665e-35
-6.88945e-33
-3.72269e-34
-3.33003e-32
-8.90205e-34
-9.86666e-32
-1.915e-36
-2.79055e-34
1.71291e-33
1.64525e-31
6.41162e-32
1.0773e-29
4.16896e-31
2.49335e-28
-1.0663e-29
4.46562e-27
-7.03002e-28
7.63084e-26
-9.24652e-27
1.33168e-24
1.3849e-23
-5.30619e-67
-2.8309e-66
-4.9771e-67
-2.7765e-66
-9.22614e-67
-5.3967e-66
-2.07976e-66
-1.27902e-65
-5.41265e-66
-3.50928e-65
-1.69e-65
-1.15846e-64
-6.41564e-65
-4.66314e-64
-2.88773e-64
-2.23175e-63
-1.48102e-63
-1.22e-62
-8.37311e-63
-7.36499e-62
-5.10692e-62
-4.80048e-61
-3.31743e-61
-3.33077e-60
-2.27821e-60
-2.4381e-59
-1.64682e-59
-1.87174e-58
-1.24933e-58
-1.50094e-57
-9.919e-58
-1.25349e-56
-8.21116e-57
-1.08771e-55
-7.05117e-56
-9.78813e-55
-6.24056e-55
-9.1191e-54
-5.65291e-54
-8.78221e-53
-5.21076e-53
-8.72923e-52
-4.8753e-52
-8.93767e-51
-4.63956e-51
-9.39974e-50
-4.51764e-50
-1.0112e-48
-4.52694e-49
-1.10653e-47
-4.66597e-48
-1.2235e-46
-4.89497e-47
-1.35775e-45
-5.13479e-46
-1.50381e-44
-5.30285e-45
-1.65774e-43
-5.37645e-44
-1.81949e-42
-5.39468e-43
-2.32606e-41
-6.32509e-42
-2.78211e-40
-7.23682e-41
-3.18692e-39
-7.89908e-40
-3.48954e-38
-8.01483e-39
-3.6312e-37
-7.4351e-38
-3.55207e-36
-6.25143e-37
-3.21705e-35
-4.71432e-36
-2.64952e-34
-3.12074e-35
-1.94184e-33
-1.74591e-34
-1.2274e-32
-7.73481e-34
-6.31752e-32
-2.34339e-33
-2.29991e-31
-2.43561e-33
-2.98732e-31
3.60143e-33
1.31824e-31
6.26417e-32
4.98475e-30
9.8968e-31
1.53616e-28
6.12534e-30
3.08202e-27
-1.58709e-28
5.53842e-26
-4.94187e-27
1.09556e-24
1.42926e-23
-4.66428e-66
-2.5001e-65
-4.27323e-66
-2.39551e-65
-7.4221e-66
-4.36447e-65
-1.48173e-65
-9.16613e-65
-3.17215e-65
-2.07036e-64
-7.66188e-65
-5.29164e-64
-2.25344e-64
-1.65176e-63
-8.43126e-64
-6.57719e-63
-3.90192e-63
-3.24703e-62
-2.09622e-62
-1.8638e-61
-1.24341e-61
-1.18184e-60
-7.92469e-61
-8.04485e-60
-5.3572e-60
-5.79394e-59
-3.81778e-59
-4.38112e-58
-2.85803e-58
-3.46231e-57
-2.24056e-57
-2.85089e-56
-1.83228e-56
-2.44021e-55
-1.55488e-55
-2.16714e-54
-1.36041e-54
-1.99367e-53
-1.21891e-53
-1.89699e-52
-1.11232e-52
-1.86389e-51
-1.03144e-51
-1.88718e-50
-9.73899e-51
-1.96305e-49
-9.41452e-50
-2.08872e-48
-9.3622e-49
-2.26031e-47
-9.56393e-48
-2.47105e-46
-9.92956e-47
-2.71062e-45
-1.03027e-45
-2.96714e-44
-1.05342e-44
-3.23208e-43
-1.05941e-43
-3.50452e-42
-1.05643e-42
-4.424e-41
-1.22783e-41
-5.21975e-40
-1.38671e-40
-5.8934e-39
-1.48935e-39
-6.35387e-38
-1.48565e-38
-6.50335e-37
-1.35643e-37
-6.25199e-36
-1.12533e-36
-5.56407e-35
-8.40751e-36
-4.5097e-34
-5.55402e-35
-3.26836e-33
-3.1477e-34
-2.06729e-32
-1.46076e-33
-1.09559e-31
-5.06498e-33
-4.45037e-31
-9.74994e-33
-1.02983e-30
5.89914e-33
3.39542e-32
2.93037e-32
1.44695e-30
8.03667e-31
5.85839e-29
1.29399e-29
1.72412e-27
1.06241e-28
3.41436e-26
-5.8954e-28
7.34558e-25
1.02781e-23
-3.58314e-65
-1.93281e-64
-3.34153e-65
-1.88552e-64
-5.80697e-65
-3.43873e-64
-1.13006e-64
-7.0448e-64
-2.26138e-64
-1.48865e-63
-4.74571e-64
-3.3091e-63
-1.10558e-63
-8.19005e-63
-3.12378e-63
-2.46513e-62
-1.14703e-62
-9.6638e-62
-5.37304e-62
-4.8394e-61
-2.97501e-61
-2.86503e-60
-1.82837e-60
-1.88013e-59
-1.20748e-59
-1.32185e-58
-8.45037e-59
-9.80363e-58
-6.22738e-58
-7.61464e-57
-4.81247e-57
-6.16964e-56
-3.88306e-56
-5.20124e-55
-3.25354e-55
-4.55352e-54
-2.81256e-54
-4.13304e-53
-2.49197e-53
-3.8833e-52
-2.25123e-52
-3.7705e-51
-2.06931e-51
-3.77475e-50
-1.9392e-50
-3.88391e-49
-1.86177e-49
-4.08851e-48
-1.83828e-48
-4.37747e-47
-1.86252e-47
-4.73472e-46
-1.91566e-46
-5.13839e-45
-1.96864e-45
-5.56485e-44
-1.99597e-44
-5.99767e-43
-1.9942e-43
-6.43446e-42
-1.97885e-42
-8.03533e-41
-2.28268e-41
-9.37197e-40
-2.5488e-40
-1.04535e-38
-2.69889e-39
-1.11242e-37
-2.65276e-38
-1.12272e-36
-2.3894e-37
-1.06336e-35
-1.95994e-36
-9.31975e-35
-1.45218e-35
-7.44376e-34
-9.55966e-35
-5.33063e-33
-5.45109e-34
-3.35509e-32
-2.60007e-33
-1.80034e-31
-9.77408e-33
-7.76286e-31
-2.47383e-32
-2.29125e-30
-1.86074e-32
-2.03505e-30
3.16139e-32
6.55518e-31
5.11772e-31
2.6408e-29
1.24355e-29
9.09529e-28
1.86658e-28
2.12141e-26
2.3252e-27
4.66392e-25
5.55099e-24
-2.39896e-64
-1.30426e-63
-2.2845e-64
-1.29963e-63
-4.02214e-64
-2.40279e-63
-7.84631e-64
-4.93879e-63
-1.55284e-63
-1.03321e-62
-3.12798e-63
-2.20702e-62
-6.57604e-63
-4.93489e-62
-1.52358e-62
-1.21922e-61
-4.25867e-62
-3.64126e-61
-1.55693e-61
-1.42383e-60
-7.37541e-61
-7.21213e-60
-4.18021e-60
-4.36272e-59
-2.6445e-59
-2.93518e-58
-1.80139e-58
-2.11561e-57
-1.30082e-57
-1.60707e-56
-9.88185e-57
-1.27727e-55
-7.85211e-56
-1.0582e-54
-6.48719e-55
-9.11755e-54
-5.53565e-54
-8.15511e-53
-4.84724e-53
-7.55965e-52
-4.33375e-52
-7.24918e-51
-3.94851e-51
-7.17351e-50
-3.67278e-50
-7.3001e-49
-3.5027e-49
-7.60351e-48
-3.43502e-48
-8.05689e-47
-3.45358e-47
-8.62591e-46
-3.52177e-46
-9.26776e-45
-3.58848e-45
-9.9388e-44
-3.61225e-44
-1.06098e-42
-3.58974e-43
-1.12765e-41
-3.54799e-42
-1.39516e-40
-4.06582e-41
-1.61138e-39
-4.49387e-40
-1.779e-38
-4.69926e-39
-1.87243e-37
-4.56029e-38
-1.86748e-36
-4.06095e-37
-1.74651e-35
-3.30053e-36
-1.51093e-34
-2.42944e-35
-1.1917e-33
-1.59463e-34
-8.44268e-33
-9.1262e-34
-5.28056e-32
-4.4296e-33
-2.84599e-31
-1.74986e-32
-1.26695e-30
-5.11252e-32
-4.21359e-30
-7.62471e-32
-7.18157e-30
5.34181e-32
2.66337e-31
3.13904e-31
1.14041e-29
9.02943e-30
4.52754e-28
1.94018e-28
1.35058e-26
3.26136e-27
2.97264e-25
3.28834e-24
-1.42018e-63
-7.79622e-63
-1.37443e-63
-7.89916e-63
-2.44961e-63
-1.4796e-62
-4.81114e-63
-3.06519e-62
-9.54851e-63
-6.43839e-62
-1.91072e-62
-1.36791e-61
-3.89684e-62
-2.9707e-61
-8.30711e-62
-6.75999e-61
-1.95304e-61
-1.6994e-60
-5.53981e-61
-5.15751e-60
-2.05755e-60
-2.04794e-59
-9.93855e-60
-1.05497e-58
-5.76898e-59
-6.50353e-58
-3.74986e-58
-4.46437e-57
-2.62878e-57
-3.2846e-56
-1.95334e-56
-2.54715e-55
-1.52382e-55
-2.06682e-54
-1.23872e-54
-1.74838e-53
-1.04184e-53
-1.53832e-52
-9.00666e-53
-1.40503e-51
-7.96413e-52
-1.32939e-50
-7.18963e-51
-1.29949e-49
-6.63671e-50
-1.30746e-48
-6.28699e-49
-1.34725e-47
-6.12417e-48
-1.41297e-46
-6.11181e-47
-1.49781e-45
-6.18279e-46
-1.59392e-44
-6.25167e-45
-1.69372e-43
-6.25396e-44
-1.79239e-42
-6.18722e-43
-1.88925e-41
-6.09484e-42
-2.31863e-40
-6.943e-41
-2.65559e-39
-7.60362e-40
-2.90643e-38
-7.86251e-39
-3.03062e-37
-7.54502e-38
-2.99214e-36
-6.65424e-37
-2.76824e-35
-5.36816e-36
-2.36842e-34
-3.93177e-35
-1.84822e-33
-2.5757e-34
-1.29741e-32
-1.4784e-33
-8.06617e-32
-7.26327e-33
-4.35056e-31
-2.96189e-32
-1.96969e-30
-9.3952e-32
-6.97473e-30
-1.85117e-31
-1.53181e-29
2.95678e-32
5.16526e-32
1.23407e-31
3.12442e-30
6.00426e-30
2.26799e-28
1.69637e-28
8.56728e-27
3.19493e-27
1.92413e-25
2.18409e-24
-7.54014e-63
-4.19261e-62
-7.37268e-63
-4.29492e-62
-1.32627e-62
-8.12774e-62
-2.61979e-62
-1.69537e-61
-5.22295e-62
-3.58169e-61
-1.04685e-61
-7.63173e-61
-2.12086e-61
-1.64831e-60
-4.39664e-61
-3.65097e-60
-9.58024e-61
-8.51167e-60
-2.31879e-60
-2.20453e-59
-6.81152e-60
-6.92013e-59
-2.62012e-59
-2.8356e-58
-1.30509e-58
-1.49728e-57
-7.79074e-58
-9.41665e-57
-5.20549e-57
-6.58499e-56
-3.74952e-56
-4.93584e-55
-2.85742e-55
-3.90169e-54
-2.27827e-54
-3.22919e-53
-1.88445e-53
-2.78786e-52
-1.6058e-52
-2.50419e-51
-1.40276e-51
-2.33455e-50
-1.25377e-50
-2.25196e-49
-1.14796e-49
-2.23862e-48
-1.07982e-48
-2.28121e-47
-1.04464e-47
-2.36765e-46
-1.03491e-46
-2.48519e-45
-1.03892e-45
-2.62012e-44
-1.04302e-44
-2.76e-43
-1.03759e-43
-2.89726e-42
-1.02253e-42
-3.03103e-41
-1.0043e-41
-3.69368e-40
-1.13779e-40
-4.19996e-39
-1.23556e-39
-4.56255e-38
-1.2647e-38
-4.71941e-37
-1.2016e-37
-4.6188e-36
-1.05094e-36
-4.23317e-35
-8.42657e-36
-3.58711e-34
-6.14851e-35
-2.77371e-33
-4.02321e-34
-1.93189e-32
-2.31534e-33
-1.19466e-31
-1.14792e-32
-6.43829e-31
-4.78301e-32
-2.94106e-30
-1.59611e-31
-1.07833e-29
-3.65363e-31
-2.69839e-29
-1.93817e-31
-1.54897e-29
1.7405e-31
1.26128e-30
3.49454e-30
9.98288e-29
1.37766e-28
5.65167e-27
2.80995e-27
1.32235e-25
1.55174e-24
-3.63095e-62
-2.05431e-61
-3.56971e-62
-2.11752e-61
-6.46264e-62
-4.03704e-61
-1.28114e-61
-8.46099e-61
-2.56235e-61
-1.79544e-60
-5.14823e-61
-3.83947e-60
-1.04249e-60
-8.29722e-60
-2.14243e-60
-1.82333e-59
-4.5327e-60
-4.12877e-59
-1.0172e-59
-9.91271e-59
-2.56642e-59
-2.67017e-58
-7.93916e-59
-8.78452e-58
-3.21354e-58
-3.76038e-57
-1.66765e-57
-2.04981e-56
-1.0284e-56
-1.31857e-55
-7.0668e-56
-9.39705e-55
-5.21815e-55
-7.17472e-54
-4.06151e-54
-5.78039e-53
-3.29358e-53
-4.87997e-52
-2.76027e-52
-4.30006e-51
-2.37824e-51
-3.94234e-50
-2.10201e-50
-3.7474e-49
-1.90731e-49
-3.6768e-48
-1.78035e-48
-3.70273e-47
-1.70981e-47
-3.80167e-46
-1.68119e-46
-3.95068e-45
-1.67493e-45
-4.12682e-44
-1.67006e-44
-4.3104e-43
-1.65268e-43
-4.49018e-42
-1.62285e-42
-4.66519e-41
-1.58946e-41
-5.64938e-40
-1.79143e-40
-6.3833e-39
-1.93012e-39
-6.88985e-38
-1.9573e-38
-7.07705e-37
-1.84298e-37
-6.87286e-36
-1.60011e-36
-6.24669e-35
-1.27639e-35
-5.24832e-34
-9.28542e-35
-4.02565e-33
-6.07157e-34
-2.78478e-32
-3.50246e-33
-1.71385e-31
-1.74888e-32
-9.22214e-31
-7.39933e-32
-4.23219e-30
-2.55202e-31
-1.58296e-29
-6.38851e-31
-4.26571e-29
-6.39612e-31
-4.54207e-29
-1.7567e-32
-1.31216e-30
1.70792e-30
3.95518e-29
1.15904e-28
4.29314e-27
2.53895e-27
1.05425e-25
1.35921e-24
-1.60018e-61
-9.26408e-61
-1.57513e-61
-9.56859e-61
-2.86332e-61
-1.83376e-60
-5.68525e-61
-3.85409e-60
-1.13876e-60
-8.20047e-60
-2.29117e-60
-1.75804e-59
-4.64146e-60
-3.8042e-59
-9.51189e-60
-8.34074e-59
-1.98916e-59
-1.86687e-58
-4.31756e-59
-4.33222e-58
-1.0062e-58
-1.0763e-57
-2.67824e-58
-3.03964e-57
-8.84754e-58
-1.05865e-56
-3.8134e-57
-4.77534e-56
-2.07673e-56
-2.70197e-55
-1.32653e-55
-1.78295e-54
-9.36603e-55
-1.29696e-53
-7.06655e-54
-1.00964e-52
-5.59409e-53
-8.29677e-52
-4.59746e-52
-7.14865e-51
-3.89845e-51
-6.42965e-50
-3.40174e-50
-6.01136e-49
-3.05501e-49
-5.81335e-48
-2.82703e-48
-5.77988e-47
-2.69335e-47
-5.86668e-46
-2.6273e-46
-6.03378e-45
-2.59729e-45
-6.24394e-44
-2.57211e-44
-6.46703e-43
-2.53225e-43
-6.68679e-42
-2.47773e-42
-6.90228e-41
-2.41984e-41
-8.31045e-40
-2.71357e-40
-9.33736e-39
-2.90201e-39
-1.00214e-37
-2.9175e-38
-1.02302e-36
-2.72461e-37
-9.86662e-36
-2.35005e-36
-8.90022e-35
-1.86618e-35
-7.42005e-34
-1.3542e-34
-5.65015e-33
-8.85036e-34
-3.88464e-32
-5.11569e-33
-2.38026e-31
-2.56868e-32
-1.27829e-30
-1.09894e-31
-5.87828e-30
-3.87522e-31
-2.22379e-29
-1.02563e-30
-6.25808e-29
-1.35148e-30
-8.65368e-29
-2.86476e-32
-1.90247e-30
8.66562e-31
2.10383e-29
1.11639e-28
3.8115e-27
2.61058e-27
9.76393e-26
1.35332e-24
-6.49456e-61
-3.87488e-60
-6.37765e-61
-3.9967e-60
-1.16235e-60
-7.68818e-60
-2.30807e-60
-1.61794e-59
-4.62317e-60
-3.44655e-59
-9.30357e-60
-7.39751e-59
-1.88472e-59
-1.60179e-58
-3.85762e-59
-3.50818e-58
-8.02652e-59
-7.8087e-58
-1.71615e-58
-1.78262e-57
-3.84757e-58
-4.25095e-57
-9.39922e-58
-1.09832e-56
-2.67022e-57
-3.27644e-56
-9.52579e-57
-1.2177e-55
-4.40456e-56
-5.82225e-55
-2.52546e-55
-3.43294e-54
-1.67079e-54
-2.33024e-53
-1.20911e-53
-1.73364e-52
-9.28908e-53
-1.37809e-51
-7.4581e-52
-1.15633e-50
-6.20715e-51
-1.01726e-49
-5.33603e-50
-9.33315e-49
-4.73507e-49
-8.88035e-48
-4.33807e-48
-8.70548e-47
-4.09576e-47
-8.72742e-46
-3.96088e-46
-8.87817e-45
-3.88374e-45
-9.09862e-44
-3.81906e-44
-9.34357e-43
-3.73993e-43
-9.58991e-42
-3.64576e-42
-9.83667e-41
-3.54958e-41
-1.17796e-39
-3.96024e-40
-1.3167e-38
-4.20511e-39
-1.40595e-37
-4.19326e-38
-1.42725e-36
-3.88635e-37
-1.36789e-35
-3.33208e-36
-1.22537e-34
-2.63534e-35
-1.01428e-33
-1.90805e-34
-7.67172e-33
-1.24638e-33
-5.24479e-32
-7.21558e-33
-3.20038e-31
-3.63856e-32
-1.71479e-30
-1.5693e-31
-7.88831e-30
-5.61785e-31
-3.00245e-29
-1.54042e-30
-8.66717e-29
-2.34399e-30
-1.36961e-28
-3.46247e-32
-2.07612e-30
6.51929e-31
1.87287e-29
1.16368e-28
3.51024e-27
2.87083e-27
9.37652e-26
1.39385e-24
-2.43719e-60
-1.51247e-59
-2.38033e-60
-1.55332e-59
-4.34594e-60
-2.99689e-59
-8.62165e-60
-6.30813e-59
-1.72523e-59
-1.34379e-58
-3.46947e-59
-2.88443e-58
-7.02497e-59
-6.24435e-58
-1.4367e-58
-1.366e-57
-2.98219e-58
-3.02955e-57
-6.33134e-58
-6.85213e-57
-1.39291e-57
-1.59817e-56
-3.25166e-57
-3.92888e-56
-8.40918e-57
-1.06147e-55
-2.57688e-56
-3.36978e-55
-1.00054e-55
-1.34535e-54
-4.97723e-55
-6.84573e-54
-3.00264e-54
-4.21738e-53
-2.05233e-53
-2.95146e-52
-1.51764e-52
-2.25011e-51
-1.18464e-51
-1.82918e-50
-9.64497e-51
-1.56837e-49
-8.14773e-50
-1.40824e-48
-7.12918e-49
-1.31553e-47
-6.4553e-48
-1.26945e-46
-6.03161e-47
-1.25544e-45
-5.77673e-46
-1.26209e-44
-5.61399e-45
-1.28019e-43
-5.47884e-44
-1.30303e-42
-5.33461e-43
-1.32733e-41
-5.17885e-42
-1.35295e-40
-5.0247e-41
-1.61175e-39
-5.57683e-40
-1.79282e-38
-5.88058e-39
-1.90529e-37
-5.81872e-38
-1.92421e-36
-5.3545e-37
-1.83338e-35
-4.56551e-36
-1.63173e-34
-3.59744e-35
-1.34158e-33
-2.59912e-34
-1.00833e-32
-1.69674e-33
-6.85689e-32
-9.8332e-33
-4.16734e-31
-4.97396e-32
-2.22712e-30
-2.15751e-31
-1.02361e-29
-7.80159e-31
-3.90615e-29
-2.18791e-30
-1.14399e-28
-3.61602e-30
-1.94737e-28
-3.92367e-32
-2.15085e-30
7.47815e-31
1.95626e-29
1.09839e-28
2.7818e-27
2.97449e-27
8.37517e-26
1.28816e-24
-8.47491e-60
-5.53514e-59
-8.21131e-60
-5.64612e-59
-1.50157e-59
-1.09232e-58
-2.97434e-59
-2.29812e-58
-5.94251e-59
-4.89188e-58
-1.19376e-58
-1.0493e-57
-2.41564e-58
-2.26955e-57
-4.9384e-58
-4.95715e-57
-1.02422e-57
-1.09605e-56
-2.16809e-57
-2.46327e-56
-4.7275e-57
-5.66781e-56
-1.07814e-56
-1.35343e-55
-2.64264e-56
-3.44317e-55
-7.30262e-56
-9.78988e-55
-2.43485e-55
-3.33394e-54
-1.03317e-54
-1.43823e-53
-5.5214e-54
-7.80736e-53
-3.49152e-53
-5.03213e-52
-2.45681e-52
-3.63605e-51
-1.85268e-51
-2.84479e-50
-1.46966e-50
-2.36723e-49
-1.21636e-49
-2.07372e-48
-1.04686e-48
-1.89723e-47
-9.34883e-48
-1.79856e-46
-8.62959e-47
-1.75187e-45
-8.17372e-46
-1.73834e-44
-7.8644e-45
-1.74365e-43
-7.61064e-44
-1.75796e-42
-7.36259e-43
-1.77661e-41
-7.11376e-42
-1.79923e-40
-6.87442e-41
-2.13225e-39
-7.58842e-40
-2.36062e-38
-7.94718e-39
-2.49751e-37
-7.80532e-38
-2.51006e-36
-7.13419e-37
-2.3783e-35
-6.05135e-36
-2.10363e-34
-4.7515e-35
-1.71852e-33
-3.4257e-34
-1.28387e-32
-2.23447e-33
-8.68614e-32
-1.29564e-32
-5.25823e-31
-6.56719e-32
-2.802e-30
-2.85918e-31
-1.28542e-29
-1.04035e-30
-4.90534e-29
-2.95792e-30
-1.44694e-28
-5.13565e-30
-2.57069e-28
-4.54195e-32
-2.29978e-30
7.60125e-31
1.71108e-29
7.93308e-29
1.62302e-27
2.68928e-27
6.52592e-26
1.02003e-24
-2.73108e-59
-1.90544e-58
-2.61983e-59
-1.92661e-58
-4.80012e-59
-3.73869e-58
-9.49234e-59
-7.85949e-58
-1.89348e-58
-1.67108e-57
-3.80032e-58
-3.58041e-57
-7.68916e-58
-7.73429e-57
-1.57277e-57
-1.68635e-56
-3.26453e-57
-3.71803e-56
-6.91076e-57
-8.31411e-56
-1.50237e-56
-1.89507e-55
-3.38869e-56
-4.44212e-55
-8.06796e-56
-1.08876e-54
-2.0917e-55
-2.88038e-54
-6.22617e-55
-8.68866e-54
-2.27328e-54
-3.20276e-53
-1.05455e-53
-1.5002e-52
-6.02501e-53
-8.69281e-52
-3.9728e-52
-5.86065e-51
-2.8699e-51
-4.37476e-50
-2.20718e-50
-3.5149e-49
-1.78355e-49
-2.99338e-48
-1.50557e-48
-2.67468e-47
-1.32278e-47
-2.48517e-46
-1.20365e-46
-2.37955e-45
-1.12542e-45
-2.32688e-44
-1.07043e-44
-2.30508e-43
-1.02589e-43
-2.29975e-42
-9.85012e-43
-2.30416e-41
-9.46382e-42
-2.31744e-40
-9.10267e-41
-2.73163e-39
-9.99066e-40
-3.01002e-38
-1.03925e-38
-3.17085e-37
-1.01342e-37
-3.17198e-36
-9.20316e-37
-2.98938e-35
-7.76746e-36
-2.6283e-34
-6.0781e-35
-2.13383e-33
-4.37262e-34
-1.58486e-32
-2.84893e-33
-1.06693e-31
-1.65187e-32
-6.43305e-31
-8.38143e-32
-3.417e-30
-3.65616e-31
-1.56319e-29
-1.33448e-30
-5.95309e-29
-3.82207e-30
-1.75947e-28
-6.83325e-30
-3.20225e-28
-5.55657e-32
-2.62143e-30
4.92222e-31
9.43503e-30
5.40425e-29
1.29932e-27
2.38949e-27
5.92078e-26
8.19803e-25
-8.13748e-59
-6.1833e-58
-7.7174e-59
-6.1877e-58
-1.41818e-58
-1.20536e-57
-2.80098e-58
-2.53185e-57
-5.58193e-58
-5.37664e-57
-1.12039e-57
-1.15063e-56
-2.26961e-57
-2.48232e-56
-4.65303e-57
-5.40314e-56
-9.68805e-57
-1.18826e-55
-2.05735e-56
-2.64619e-55
-4.4797e-56
-5.98886e-55
-1.00721e-55
-1.38582e-54
-2.36395e-55
-3.31468e-54
-5.90576e-55
-8.36702e-54
-1.6289e-54
-2.31761e-53
-5.26007e-54
-7.49667e-53
-2.11241e-53
-3.02015e-52
-1.06797e-52
-1.54022e-51
-6.47788e-52
-9.50828e-51
-4.43326e-51
-6.69553e-50
-3.28502e-50
-5.16123e-49
-2.58132e-49
-4.25588e-48
-2.13045e-48
-3.7026e-47
-1.83637e-47
-3.36314e-46
-1.64302e-46
-3.15827e-45
-1.51304e-45
-3.03738e-44
-1.41974e-44
-2.9665e-43
-1.34516e-43
-2.92449e-42
-1.27992e-42
-2.90162e-41
-1.22133e-41
-2.89603e-40
-1.16819e-40
-3.39389e-39
-1.27431e-39
-3.7217e-38
-1.31666e-38
-3.90391e-37
-1.2751e-37
-3.88772e-36
-1.15083e-36
-3.64483e-35
-9.66613e-36
-3.18574e-34
-7.5378e-35
-2.57061e-33
-5.40993e-34
-1.89832e-32
-3.51957e-33
-1.27164e-31
-2.03941e-32
-7.63592e-31
-1.03477e-31
-4.04113e-30
-4.51503e-31
-1.84182e-29
-1.64842e-30
-6.98622e-29
-4.73103e-30
-2.06017e-28
-8.59273e-30
-3.7936e-28
-6.95003e-32
-3.07765e-30
4.87808e-31
9.30394e-30
6.6785e-29
1.65634e-27
2.62993e-27
6.2371e-26
7.97144e-25
-2.23013e-58
-1.89322e-57
-2.08998e-58
-1.87347e-57
-3.85893e-58
-3.66785e-57
-7.62122e-58
-7.70013e-57
-1.51971e-57
-1.63364e-56
-3.05659e-57
-3.49296e-56
-6.21446e-57
-7.52826e-56
-1.2807e-56
-1.63653e-55
-2.68382e-56
-3.59195e-55
-5.73927e-56
-7.9734e-55
-1.25736e-55
-1.79476e-54
-2.83516e-55
-4.11405e-54
-6.62315e-55
-9.6746e-54
-1.62194e-54
-2.36636e-53
-4.26351e-54
-6.18327e-53
-1.25788e-53
-1.81164e-52
-4.43997e-53
-6.36982e-52
-1.96546e-52
-2.82814e-51
-1.07621e-51
-1.56848e-50
-6.88226e-51
-1.02754e-49
-4.87499e-50
-7.53943e-49
-3.7076e-49
-5.99162e-48
-2.98151e-48
-5.05873e-47
-2.51364e-47
-4.47938e-46
-2.20497e-46
-4.11491e-45
-1.99435e-45
-3.88249e-44
-1.84139e-44
-3.72982e-43
-1.72061e-43
-3.62584e-42
-1.61895e-42
-3.55636e-41
-1.53167e-41
-3.51787e-40
-1.45513e-40
-4.0956e-39
-1.57668e-39
-4.46781e-38
-1.61806e-38
-4.66637e-37
-1.55655e-37
-4.62645e-36
-1.39654e-36
-4.31526e-35
-1.16748e-35
-3.74981e-34
-9.07199e-35
-3.00737e-33
-6.49377e-34
-2.20807e-32
-4.21646e-33
-1.47168e-31
-2.43991e-32
-8.79866e-31
-1.2366e-31
-4.63689e-30
-5.38738e-31
-2.10308e-29
-1.9617e-30
-7.92811e-29
-5.61235e-30
-2.32245e-28
-1.02334e-29
-4.27966e-28
-8.375e-32
-3.50345e-30
6.67091e-31
1.37465e-29
1.10098e-28
2.8866e-27
3.31232e-27
7.7835e-26
1.27375e-24
-5.57253e-58
-5.47112e-57
-5.16464e-58
-5.35203e-57
-9.60955e-58
-1.05461e-56
-1.90234e-57
-2.21396e-56
-3.80671e-57
-4.69529e-56
-7.69872e-57
-1.00365e-55
-1.57723e-56
-2.16253e-55
-3.28189e-56
-4.69856e-55
-6.95494e-56
-1.03017e-54
-1.50511e-55
-2.28197e-54
-3.33455e-55
-5.11679e-54
-7.58232e-55
-1.16488e-53
-1.7756e-54
-2.70625e-53
-4.31045e-54
-6.47597e-53
-1.10083e-53
-1.62559e-52
-3.05202e-53
-4.43448e-52
-9.70814e-53
-1.39473e-51
-3.77623e-52
-5.40914e-51
-1.84013e-51
-2.65653e-50
-1.08295e-50
-1.59453e-49
-7.26279e-50
-1.10301e-48
-5.31693e-49
-8.4029e-48
-4.15081e-48
-6.86144e-47
-3.41213e-47
-5.9061e-46
-2.92553e-46
-5.29271e-45
-2.59072e-45
-4.88525e-44
-2.34609e-44
-4.60283e-43
-2.15505e-43
-4.39961e-42
-1.9992e-42
-4.25501e-41
-1.87069e-41
-4.16295e-40
-1.76214e-40
-4.80836e-39
-1.89483e-39
-5.21422e-38
-1.93101e-38
-5.42111e-37
-1.84552e-37
-5.3509e-36
-1.64639e-36
-4.96578e-35
-1.36998e-35
-4.29021e-34
-1.06064e-34
-3.41981e-33
-7.56919e-34
-2.4962e-32
-4.90231e-33
-1.65498e-31
-2.8305e-32
-9.84709e-31
-1.43113e-31
-5.16347e-30
-6.21262e-31
-2.32712e-29
-2.24846e-30
-8.69453e-29
-6.37186e-30
-2.51588e-28
-1.15007e-29
-4.57804e-28
-9.16423e-32
-3.64173e-30
8.72909e-31
1.80978e-29
1.98947e-28
4.83244e-27
4.13596e-27
9.03089e-26
1.67147e-24
-1.25176e-57
-1.49081e-56
-1.15135e-57
-1.44295e-56
-2.16878e-57
-2.8661e-56
-4.32222e-57
-6.02132e-56
-8.72285e-57
-1.2776e-55
-1.78379e-56
-2.73289e-55
-3.70492e-56
-5.89301e-55
-7.83371e-56
-1.28117e-54
-1.68966e-55
-2.80949e-54
-3.72333e-55
-6.21926e-54
-8.39016e-55
-1.39156e-53
-1.93444e-54
-3.15369e-53
-4.56758e-54
-7.26458e-53
-1.10783e-53
-1.71178e-52
-2.78428e-53
-4.17806e-52
-7.40824e-53
-1.08333e-51
-2.1794e-52
-3.12756e-51
-7.56287e-52
-1.07565e-50
-3.26219e-51
-4.65309e-50
-1.74205e-50
-2.52314e-49
-1.09412e-49
-1.62777e-48
-7.66239e-49
-1.1816e-47
-5.78589e-48
-9.29952e-47
-4.62424e-47
-7.76137e-46
-3.86389e-46
-6.76723e-45
-3.33896e-45
-6.09202e-44
-2.95433e-44
-5.60968e-43
-2.65671e-43
-5.25221e-42
-2.41988e-42
-4.98989e-41
-2.23148e-41
-4.81318e-40
-2.07872e-40
-5.50302e-39
-2.21504e-39
-5.92415e-38
-2.24053e-38
-6.12768e-37
-2.1275e-37
-6.02059e-36
-1.88745e-36
-5.55908e-35
-1.56337e-35
-4.77516e-34
-1.20568e-34
-3.783e-33
-8.57461e-34
-2.74472e-32
-5.53572e-33
-1.80959e-31
-3.18594e-32
-1.07088e-30
-1.60452e-31
-5.58115e-30
-6.92347e-31
-2.4946e-29
-2.47984e-30
-9.20287e-29
-6.90177e-30
-2.60969e-28
-1.20832e-29
-4.59788e-28
-9.75623e-32
-3.70107e-30
1.61404e-30
4.10518e-29
2.89191e-28
6.31559e-27
4.76144e-27
9.37309e-26
1.74758e-24
-2.47892e-57
-3.82285e-56
-2.27994e-57
-3.67081e-56
-4.37886e-57
-7.36059e-56
-8.84976e-57
-1.54912e-55
-1.81573e-56
-3.29237e-55
-3.7868e-56
-7.05631e-55
-8.04493e-56
-1.52481e-54
-1.74382e-55
-3.32199e-54
-3.85993e-55
-7.29767e-54
-8.72481e-55
-1.61717e-53
-2.01223e-54
-3.61784e-53
-4.72924e-54
-8.18164e-53
-1.13153e-53
-1.8747e-52
-2.75789e-53
-4.37124e-52
-6.88128e-53
-1.04621e-51
-1.78333e-52
-2.61684e-51
-4.95973e-52
-7.08903e-51
-1.5675e-51
-2.20753e-50
-6.01329e-51
-8.45186e-50
-2.88514e-50
-4.1001e-49
-1.67821e-49
-2.43999e-48
-1.11678e-48
-1.67677e-47
-8.12858e-48
-1.26793e-46
-6.3024e-47
-1.02411e-45
-5.12062e-46
-8.67098e-45
-4.30516e-45
-7.59264e-44
-3.70698e-44
-6.80755e-43
-3.24706e-43
-6.21392e-42
-2.88782e-42
-5.76919e-41
-2.61064e-41
-5.45982e-40
-2.39531e-40
-6.15601e-39
-2.52311e-39
-6.56342e-38
-2.53065e-38
-6.74673e-37
-2.38702e-37
-6.59592e-36
-2.10613e-36
-6.05903e-35
-1.73647e-35
-5.1745e-34
-1.33366e-34
-4.07386e-33
-9.44751e-34
-2.93739e-32
-6.07513e-33
-1.92498e-31
-3.48113e-32
-1.13212e-30
-1.74316e-31
-5.85611e-30
-7.45402e-31
-2.58925e-29
-2.62765e-30
-9.38408e-29
-7.09554e-30
-2.5777e-28
-1.16459e-29
-4.25228e-28
-9.92906e-32
-3.61141e-30
1.2643e-29
4.0353e-28
3.63761e-28
7.70639e-27
4.64553e-27
8.57275e-26
1.28839e-24
-4.21116e-57
-9.21138e-56
-3.92588e-57
-8.81008e-56
-7.77737e-57
-1.78544e-55
-1.61362e-56
-3.76925e-55
-3.40913e-56
-8.03574e-55
-7.34513e-56
-1.72819e-54
-1.61613e-55
-3.74836e-54
-3.63241e-55
-8.19752e-54
-8.33248e-55
-1.80737e-53
-1.94722e-54
-4.01743e-53
-4.62443e-54
-9.0061e-53
-1.11314e-53
-2.03756e-52
-2.70971e-53
-4.65866e-52
-6.6659e-53
-1.07945e-51
-1.66147e-52
-2.54973e-51
-4.23759e-52
-6.21851e-51
-1.13312e-51
-1.60818e-50
-3.3298e-51
-4.63033e-50
-1.15012e-50
-1.58877e-49
-4.94037e-50
-6.87202e-49
-2.63525e-49
-3.73607e-48
-1.65493e-48
-2.41449e-47
-1.15763e-47
-1.74947e-46
-8.69793e-47
-1.36642e-45
-6.86585e-46
-1.12281e-44
-5.60644e-45
-9.54905e-44
-4.68203e-44
-8.31043e-43
-3.97341e-43
-7.35816e-42
-3.42637e-42
-6.63172e-41
-3.0142e-41
-6.11416e-40
-2.70699e-40
-6.75794e-39
-2.80711e-39
-7.1069e-38
-2.78647e-38
-7.24523e-37
-2.60933e-37
-7.04254e-36
-2.28949e-36
-6.4345e-35
-1.87877e-35
-5.46288e-34
-1.43657e-34
-4.2736e-33
-1.01308e-33
-3.06144e-32
-6.48325e-33
-1.99318e-31
-3.69397e-32
-1.16384e-30
-1.83527e-31
-5.96459e-30
-7.74837e-31
-2.60006e-29
-2.66801e-30
-9.1919e-29
-6.85336e-30
-2.39905e-28
-9.7013e-30
-3.41051e-28
8.66615e-30
3.83662e-29
7.56901e-29
2.37968e-27
4.5879e-28
1.05521e-26
4.32326e-27
8.15578e-26
7.81998e-25
-5.7118e-57
-2.08545e-55
-5.5897e-57
-1.9949e-55
-1.17469e-56
-4.08926e-55
-2.56758e-56
-8.67196e-55
-5.71973e-56
-1.85756e-54
-1.3001e-55
-4.01553e-54
-3.0157e-55
-8.75743e-54
-7.12817e-55
-1.92618e-53
-1.71247e-54
-4.27098e-53
-4.16785e-54
-9.5437e-53
-1.02429e-53
-2.14907e-52
-2.53389e-53
-4.87734e-52
-6.29377e-53
-1.11626e-51
-1.56765e-52
-2.58035e-51
-3.92102e-52
-6.04772e-51
-9.91654e-52
-1.45013e-50
-2.58194e-51
-3.62769e-50
-7.18296e-51
-9.83687e-50
-2.26978e-50
-3.07439e-49
-8.75426e-50
-1.18934e-48
-4.25039e-49
-5.86439e-48
-2.50182e-48
-3.54073e-47
-1.67752e-47
-2.45259e-46
-1.22169e-46
-1.85328e-45
-9.37929e-46
-1.47991e-44
-7.44196e-45
-1.22321e-43
-6.01909e-44
-1.03205e-42
-4.92751e-43
-8.82742e-42
-4.08873e-42
-7.66701e-41
-3.46644e-41
-6.82189e-40
-3.01899e-40
-7.32485e-39
-3.06102e-39
-7.54645e-38
-2.99659e-38
-7.60197e-37
-2.78211e-37
-7.33554e-36
-2.42659e-36
-6.66273e-35
-1.98146e-35
-5.62238e-34
-1.50782e-34
-4.36968e-33
-1.0579e-33
-3.10893e-32
-6.73121e-33
-2.00961e-31
-3.80794e-32
-1.16368e-30
-1.87243e-31
-5.89586e-30
-7.76872e-31
-2.52297e-29
-2.58581e-30
-8.61334e-29
-6.12097e-30
-2.07004e-28
-6.08315e-30
-2.06525e-28
2.14616e-29
4.93302e-28
2.71377e-28
8.85423e-27
6.76776e-28
1.89263e-26
4.5066e-27
9.0417e-26
6.28064e-25
-5.46094e-57
-4.42024e-55
-6.14122e-57
-4.26226e-55
-1.45363e-56
-8.8374e-55
-3.51474e-56
-1.88592e-54
-8.58288e-56
-4.06654e-54
-2.12019e-55
-8.85268e-54
-5.2959e-55
-1.94508e-53
-1.33505e-54
-4.31137e-53
-3.3876e-54
-9.6349e-53
-8.62712e-54
-2.16936e-52
-2.19946e-53
-4.91937e-52
-5.60031e-53
-1.1231e-51
-1.4214e-52
-2.58117e-51
-3.59224e-52
-5.97506e-51
-9.04738e-52
-1.3963e-50
-2.28208e-51
-3.31422e-50
-5.84207e-51
-8.10428e-50
-1.56174e-50
-2.10161e-49
-4.5905e-50
-6.08472e-49
-1.60236e-49
-2.12246e-48
-7.04988e-49
-9.4512e-48
-3.86254e-48
-5.29541e-47
-2.47588e-47
-3.49786e-46
-1.74964e-46
-2.56051e-45
-1.3103e-45
-1.99322e-44
-1.0134e-44
-1.60647e-43
-7.95217e-44
-1.31657e-42
-6.27105e-43
-1.08652e-41
-4.97654e-42
-9.04077e-41
-4.02226e-41
-7.68156e-40
-3.35415e-40
-7.91239e-39
-3.28943e-39
-7.90005e-38
-3.15595e-38
-7.8134e-37
-2.89725e-37
-7.46321e-36
-2.50969e-36
-6.73186e-35
-2.03837e-35
-5.64433e-34
-1.54296e-34
-4.35704e-33
-1.07628e-33
-3.07757e-32
-6.80175e-33
-1.9736e-31
-3.81406e-32
-1.13175e-30
-1.85066e-31
-5.65359e-30
-7.50038e-31
-2.36136e-29
-2.37626e-30
-7.66816e-29
-4.89301e-30
-1.60239e-28
-1.52153e-30
-5.00204e-29
8.50416e-29
2.29168e-27
7.58359e-28
2.50871e-26
1.33808e-27
4.36735e-26
5.09011e-27
1.1276e-25
9.47452e-25
-2.43142e-57
-8.78563e-55
-4.49865e-57
-8.6051e-55
-1.41167e-56
-1.8034e-54
-4.15637e-56
-3.8787e-54
-1.17952e-55
-8.43414e-54
-3.27653e-55