/*--------------------------------*- C++ -*----------------------------------*\
  =========                 |
  \\      /  F ield         | OpenFOAM: The Open Source CFD Toolbox
   \\    /   O peration     | Website:  https://openfoam.org
    \\  /    A nd           | Version:  9
     \\/     M anipulation  |
\*---------------------------------------------------------------------------*/
FoamFile
{
    format      ascii;
    class       volScalarField;
    location    "0.09";
    object      alpha.water;
}
// * * * * * * * * * * * * * * * * * * * * * * * * * * * * * * * * * * * * * //

dimensions      [0 0 0 0 0 0 0];

internalField   nonuniform List<scalar> 
5000
(
-5.08157e-63
-9.76759e-63
-2.99998e-62
-1.0085e-61
-3.66808e-61
-1.46454e-60
-6.49023e-60
-3.19845e-59
-1.73952e-58
-1.03054e-57
-6.56149e-57
-4.44132e-56
-3.17153e-55
-2.37748e-54
-1.86503e-53
-1.52758e-52
-1.30379e-51
-1.15688e-50
-1.06399e-49
-1.0105e-48
-9.87018e-48
-9.88027e-47
-1.01151e-45
-1.05887e-44
-1.13431e-43
-1.24323e-42
-1.389e-41
-1.56905e-40
-1.77276e-39
-1.9855e-38
-2.20098e-37
-2.774e-36
-3.3442e-35
-3.86209e-34
-4.23791e-33
-4.35027e-32
-4.08546e-31
-3.39498e-30
-2.36143e-29
-1.24274e-28
-4.01153e-28
-2.96766e-28
-4.76172e-28
9.95472e-27
6.38571e-25
1.51732e-23
2.93479e-22
5.9127e-21
1.02267e-19
3.63876e-19
-2.09298e-62
-3.33718e-62
-9.555e-62
-3.11333e-61
-1.11341e-60
-4.401e-60
-1.935e-59
-9.4574e-59
-5.09567e-58
-2.98817e-57
-1.88242e-56
-1.26043e-55
-8.90263e-55
-6.60014e-54
-5.11941e-53
-4.14503e-52
-3.4962e-51
-3.06489e-50
-2.78417e-49
-2.61127e-48
-2.51866e-47
-2.48971e-46
-2.51704e-45
-2.60157e-44
-2.75048e-43
-2.9727e-42
-3.27129e-41
-3.63495e-40
-4.03491e-39
-4.43588e-38
-4.82356e-37
-5.95756e-36
-7.03324e-35
-7.95043e-34
-8.5466e-33
-8.62533e-32
-8.03122e-31
-6.73346e-30
-4.89515e-29
-2.89403e-28
-1.22537e-27
-2.40146e-27
-2.40774e-29
1.85025e-26
1.12565e-24
2.39279e-23
4.18289e-22
7.29749e-21
1.13078e-19
5.13554e-19
-1.42339e-61
-1.60308e-61
-3.68831e-61
-1.04685e-60
-3.42251e-60
-1.28455e-59
-5.4939e-59
-2.64271e-58
-1.40708e-57
-8.1602e-57
-5.08319e-56
-3.36491e-55
-2.34939e-54
-1.72159e-53
-1.31973e-52
-1.05589e-51
-8.79922e-51
-7.62002e-50
-6.83738e-49
-6.33426e-48
-6.03538e-47
-5.89456e-46
-5.88888e-45
-6.01482e-44
-6.28229e-43
-6.70352e-42
-7.27622e-41
-7.96658e-40
-8.70575e-39
-9.41617e-38
-1.00684e-36
-1.22151e-35
-1.41489e-34
-1.56723e-33
-1.64974e-32
-1.63176e-31
-1.49459e-30
-1.24352e-29
-9.13934e-29
-5.67418e-28
-2.73503e-27
-8.08202e-27
-2.28263e-29
1.51521e-26
1.0006e-24
2.21957e-23
3.92285e-22
6.72813e-21
1.1088e-19
9.70509e-19
-1.30353e-60
-1.22281e-60
-2.26788e-60
-5.11823e-60
-1.3348e-59
-4.1809e-59
-1.5941e-58
-7.21465e-58
-3.72394e-57
-2.11992e-56
-1.30169e-55
-8.50399e-55
-5.86177e-54
-4.24113e-53
-3.21029e-52
-2.5363e-51
-2.08716e-50
-1.78489e-49
-1.58169e-48
-1.44737e-47
-1.36255e-46
-1.31527e-45
-1.29911e-44
-1.31207e-43
-1.35493e-42
-1.42878e-41
-1.53153e-40
-1.65471e-39
-1.78338e-38
-1.90179e-37
-2.00442e-36
-2.39482e-35
-2.72847e-34
-2.96796e-33
-3.064e-32
-2.97079e-31
-2.67034e-30
-2.18895e-29
-1.60014e-28
-1.00906e-27
-5.17867e-27
-1.8801e-26
-2.43865e-26
1.26644e-26
6.14391e-25
1.6276e-23
3.0568e-22
5.36771e-21
9.82468e-20
1.15293e-18
-1.15121e-59
-1.05497e-59
-1.83385e-59
-3.66702e-59
-7.87164e-59
-1.90869e-58
-5.64258e-58
-2.1245e-57
-9.9027e-57
-5.36016e-56
-3.20225e-55
-2.0528e-54
-1.39255e-53
-9.92681e-53
-7.40735e-52
-5.77126e-51
-4.68499e-50
-3.95341e-49
-3.45804e-48
-3.12466e-47
-2.90604e-46
-2.77278e-45
-2.70842e-44
-2.70608e-43
-2.7646e-42
-2.8833e-41
-3.05524e-40
-3.2616e-39
-3.47237e-38
-3.65779e-37
-3.80825e-36
-4.49156e-35
-5.04623e-34
-5.40452e-33
-5.48531e-32
-5.224e-31
-4.6125e-30
-3.72026e-29
-2.68894e-28
-1.69661e-27
-8.96426e-27
-3.63107e-26
-8.39087e-26
2.0785e-27
1.9412e-25
7.66985e-24
1.91673e-22
3.58627e-21
7.36938e-20
9.70195e-19
-8.89987e-59
-8.30311e-59
-1.44459e-58
-2.81737e-58
-5.65702e-58
-1.19278e-57
-2.79552e-57
-7.95538e-57
-2.94445e-56
-1.39052e-55
-7.75688e-55
-4.79482e-54
-3.17614e-53
-2.22144e-52
-1.62969e-51
-1.24971e-50
-9.99266e-50
-8.31115e-49
-7.16982e-48
-6.39379e-47
-5.8728e-46
-5.53825e-45
-5.35037e-44
-5.28976e-43
-5.3487e-42
-5.52056e-41
-5.78752e-40
-6.11117e-39
-6.43529e-38
-6.70689e-37
-6.91041e-36
-8.06227e-35
-8.95208e-34
-9.46252e-33
-9.46573e-32
-8.8769e-31
-7.71619e-30
-6.132e-29
-4.37893e-28
-2.74899e-27
-1.47049e-26
-6.32228e-26
-1.86356e-25
-1.65677e-25
8.6006e-26
3.19466e-24
1.04656e-22
2.21834e-21
4.81782e-20
6.09374e-19
-6.00558e-58
-5.72249e-58
-1.00913e-57
-1.97423e-57
-3.92379e-57
-7.94888e-57
-1.68286e-56
-3.93063e-56
-1.10831e-55
-4.08721e-55
-1.9511e-54
-1.11201e-53
-7.05116e-53
-4.79456e-52
-3.44116e-51
-2.58914e-50
-2.03469e-49
-1.66525e-48
-1.41511e-47
-1.24435e-46
-1.12816e-45
-1.05117e-44
-1.00427e-43
-9.82577e-43
-9.83577e-42
-1.0051e-40
-1.04315e-39
-1.09043e-38
-1.13701e-37
-1.17394e-36
-1.19883e-35
-1.38589e-34
-1.52369e-33
-1.59275e-32
-1.57378e-31
-1.45665e-30
-1.24944e-29
-9.80377e-29
-6.92539e-28
-4.3199e-27
-2.32068e-26
-1.03008e-25
-3.42137e-25
-5.8377e-25
2.0053e-26
1.49483e-24
5.24485e-23
1.39737e-21
3.05825e-20
3.43691e-19
-3.58967e-57
-3.47751e-57
-6.21177e-57
-1.22456e-56
-2.44317e-56
-4.92206e-56
-1.01197e-55
-2.17691e-55
-5.16688e-55
-1.47905e-54
-5.53597e-54
-2.68771e-53
-1.56216e-52
-1.01203e-51
-7.03772e-51
-5.16795e-50
-3.97794e-49
-3.19594e-48
-2.67053e-47
-2.31249e-46
-2.0675e-45
-1.90219e-44
-1.79655e-43
-1.73922e-42
-1.72363e-41
-1.74426e-40
-1.79294e-39
-1.85661e-38
-1.91861e-37
-1.96454e-36
-1.99084e-35
-2.28356e-34
-2.4896e-33
-2.57785e-32
-2.52037e-31
-2.30672e-30
-1.95626e-29
-1.51854e-28
-1.0628e-27
-6.58905e-27
-3.54197e-26
-1.59886e-25
-5.6546e-25
-1.24342e-24
0
4.34758e-25
2.6613e-23
8.83052e-22
1.95154e-20
2.17061e-19
-1.93026e-56
-1.89029e-56
-3.41058e-56
-6.76826e-56
-1.35789e-55
-2.74311e-55
-5.60834e-55
-1.1743e-54
-2.58493e-54
-6.31576e-54
-1.86926e-53
-7.22129e-53
-3.59653e-52
-2.13561e-51
-1.41209e-50
-1.00253e-49
-7.5182e-49
-5.90872e-48
-4.84273e-47
-4.12185e-46
-3.62903e-45
-3.29359e-44
-3.07304e-43
-2.94241e-42
-2.88644e-41
-2.89271e-40
-2.94561e-39
-3.02289e-38
-3.09793e-37
-3.1485e-36
-3.16935e-35
-3.61102e-34
-3.90855e-33
-4.01399e-32
-3.88857e-31
-3.52424e-30
-2.95957e-29
-2.27621e-28
-1.58053e-27
-9.74539e-27
-5.2339e-26
-2.38373e-25
-8.72974e-25
-2.18756e-24
-1.26041e-24
0
1.2485e-23
5.62397e-22
1.28226e-20
1.46318e-19
-9.45687e-56
-9.31645e-56
-1.69301e-55
-3.37493e-55
-6.79972e-55
-1.37839e-54
-2.81951e-54
-5.85709e-54
-1.25241e-53
-2.83714e-53
-7.20782e-53
-2.23649e-52
-9.03416e-52
-4.65172e-51
-2.83049e-50
-1.91115e-49
-1.38441e-48
-1.05897e-47
-8.48379e-47
-7.07977e-46
-6.1267e-45
-5.4772e-44
-5.0434e-43
-4.77279e-42
-4.63246e-41
-4.59672e-40
-4.63711e-39
-4.71727e-38
-4.79633e-37
-4.84129e-36
-4.84447e-35
-5.48744e-34
-5.90253e-33
-6.01831e-32
-5.78308e-31
-5.19591e-30
-4.32558e-29
-3.29989e-28
-2.27559e-27
-1.39624e-26
-7.48649e-26
-3.42531e-25
-1.27978e-24
-3.45413e-24
-3.69238e-24
-1.07189e-25
4.93641e-24
3.90238e-22
9.31042e-21
1.10177e-19
-4.26403e-55
-4.20811e-55
-7.68473e-55
-1.53584e-54
-3.10209e-54
-6.30328e-54
-1.29098e-53
-2.67582e-53
-5.65635e-53
-1.23882e-52
-2.90379e-52
-7.73799e-52
-2.54436e-51
-1.08463e-50
-5.80759e-50
-3.63179e-49
-2.50663e-48
-1.85232e-47
-1.44388e-46
-1.17756e-45
-9.99177e-45
-8.78256e-44
-7.9697e-43
-7.44668e-42
-7.14635e-41
-7.01838e-40
-7.01288e-39
-7.0723e-38
-7.13598e-37
-7.15641e-36
-7.12245e-35
-8.02577e-34
-8.58522e-33
-8.69783e-32
-8.29722e-31
-7.39653e-30
-6.10931e-29
-4.62667e-28
-3.17083e-27
-1.9368e-26
-1.03634e-25
-4.7512e-25
-1.79562e-24
-5.06202e-24
-7.02892e-24
-1.55311e-25
2.05684e-24
3.25042e-22
8.11147e-21
1.08703e-19
-1.78315e-54
-1.75676e-54
-3.21922e-54
-6.4405e-54
-1.30213e-53
-2.6487e-53
-5.42832e-53
-1.12402e-52
-2.36337e-52
-5.09355e-52
-1.14647e-51
-2.79635e-51
-7.87977e-51
-2.76903e-50
-1.25342e-49
-7.00571e-49
-4.51219e-48
-3.18599e-47
-2.40134e-46
-1.90614e-45
-1.58116e-44
-1.36333e-43
-1.21705e-42
-1.12128e-41
-1.06291e-40
-1.03249e-39
-1.02152e-38
-1.02112e-37
-1.02251e-36
-1.01904e-35
-1.00905e-34
-1.13158e-33
-1.20438e-32
-1.21311e-31
-1.14957e-30
-1.01745e-29
-8.34314e-29
-6.27597e-28
-4.27665e-27
-2.60115e-26
-1.38849e-25
-6.3678e-25
-2.42153e-24
-7.00386e-24
-1.11164e-23
-1.69398e-25
1.42318e-24
3.02345e-22
7.83559e-21
1.12654e-19
-6.95816e-54
-6.82344e-54
-1.25371e-53
-2.50817e-53
-5.07025e-53
-1.03135e-52
-2.1133e-52
-4.37142e-52
-9.16057e-52
-1.95678e-51
-4.30977e-51
-1.00074e-50
-2.55537e-50
-7.6745e-50
-2.90193e-49
-1.40009e-48
-8.18444e-48
-5.43477e-47
-3.92688e-46
-3.0183e-45
-2.43889e-44
-2.05726e-43
-1.80278e-42
-1.63495e-41
-1.52893e-40
-1.4676e-39
-1.43682e-38
-1.42312e-37
-1.41409e-36
-1.40052e-35
-1.37997e-34
-1.54047e-33
-1.6319e-32
-1.63488e-31
-1.53972e-30
-1.35368e-29
-1.10254e-28
-8.24146e-28
-5.58587e-27
-3.38344e-26
-1.80122e-25
-8.25324e-25
-3.14696e-24
-9.23622e-24
-1.57956e-23
-1.75421e-25
1.58009e-24
2.59028e-22
7.26487e-21
1.08365e-19
-2.54558e-53
-2.47846e-53
-4.56504e-53
-9.12655e-53
-1.84331e-52
-3.7468e-52
-7.67128e-52
-1.58471e-51
-3.31181e-51
-7.03248e-51
-1.52882e-50
-3.45024e-50
-8.30079e-50
-2.23394e-49
-7.20825e-49
-2.94904e-48
-1.51901e-47
-9.2874e-47
-6.3573e-46
-4.70014e-45
-3.6839e-44
-3.0305e-43
-2.60036e-42
-2.31667e-41
-2.13374e-40
-2.02138e-39
-1.95646e-38
-1.91887e-37
-1.89125e-36
-1.86113e-35
-1.82475e-34
-2.02791e-33
-2.13866e-32
-2.13166e-31
-1.99589e-30
-1.74366e-29
-1.41112e-28
-1.0485e-27
-7.0699e-27
-4.26488e-26
-2.26367e-25
-1.03526e-24
-3.94792e-24
-1.16726e-23
-2.08397e-23
-1.87503e-25
1.50488e-24
1.71104e-22
5.9457e-21
9.24835e-20
-8.75955e-53
-8.45063e-53
-1.56086e-52
-3.11747e-52
-6.28874e-52
-1.2769e-51
-2.61145e-51
-5.38671e-51
-1.123e-50
-2.37391e-50
-5.11529e-50
-1.1339e-49
-2.62982e-49
-6.58874e-49
-1.88387e-48
-6.58689e-48
-2.92741e-47
-1.60861e-46
-1.02689e-45
-7.23936e-45
-5.47558e-44
-4.37728e-43
-3.66747e-42
-3.20215e-41
-2.89898e-40
-2.70597e-39
-2.58586e-38
-2.50886e-37
-2.45101e-36
-2.39548e-35
-2.3366e-34
-2.58509e-33
-2.71442e-32
-2.69232e-31
-2.50677e-30
-2.1767e-29
-1.75075e-28
-1.29335e-27
-8.67717e-27
-5.21293e-26
-2.75762e-25
-1.25763e-24
-4.78658e-24
-1.41832e-23
-2.59467e-23
-2.1367e-25
8.50964e-25
1.01855e-22
4.75319e-21
7.13702e-20
-2.84136e-52
-2.71193e-52
-5.02706e-52
-1.00311e-51
-2.02107e-51
-4.09933e-51
-8.37492e-51
-1.72521e-50
-3.58925e-50
-7.56036e-50
-1.61858e-49
-3.54418e-49
-8.02637e-49
-1.91968e-48
-5.04188e-48
-1.54717e-47
-5.91327e-47
-2.85883e-46
-1.67021e-45
-1.11009e-44
-8.05112e-44
-6.22925e-43
-5.08039e-42
-4.33575e-41
-3.84924e-40
-3.53282e-39
-3.32725e-38
-3.18873e-37
-3.08429e-36
-2.99148e-35
-2.90168e-34
-3.19527e-33
-3.34062e-32
-3.29773e-31
-3.05389e-30
-2.63614e-29
-2.10755e-28
-1.54811e-27
-1.03345e-26
-6.1823e-26
-3.25809e-25
-1.48029e-24
-5.61217e-24
-1.65956e-23
-3.07247e-23
-2.50804e-25
7.47105e-25
1.18796e-22
4.90754e-21
6.37919e-20
-8.69628e-52
-8.20481e-52
-1.52829e-51
-3.04783e-51
-6.13539e-51
-1.24359e-50
-2.53903e-50
-5.22592e-50
-1.08569e-49
-2.28094e-49
-4.85993e-49
-1.05486e-48
-2.3501e-48
-5.44903e-48
-1.35045e-47
-3.75389e-47
-1.25196e-46
-5.26744e-46
-2.76311e-45
-1.70747e-44
-1.17807e-43
-8.78067e-43
-6.94773e-42
-5.77915e-41
-5.0179e-40
-4.51688e-39
-4.18279e-38
-3.95138e-37
-3.77749e-36
-3.63127e-35
-3.49982e-34
-3.83434e-33
-3.99109e-32
-3.92153e-31
-3.61249e-30
-3.10033e-29
-2.46395e-28
-1.79964e-27
-1.19525e-26
-7.11794e-26
-3.73489e-25
-1.68863e-24
-6.36331e-24
-1.86961e-23
-3.46478e-23
-2.85457e-25
9.78484e-25
1.87068e-22
5.8198e-21
8.72411e-20
-2.5123e-51
-2.34254e-51
-4.39125e-51
-8.75761e-51
-1.76257e-50
-3.57265e-50
-7.29521e-50
-1.50153e-49
-3.11796e-49
-6.54117e-49
-1.38928e-48
-2.99679e-48
-6.59955e-48
-1.4977e-47
-3.5666e-47
-9.23072e-47
-2.75319e-46
-1.01137e-45
-4.69519e-45
-2.65658e-44
-1.72698e-43
-1.23335e-42
-9.43505e-42
-7.62716e-41
-6.45857e-40
-5.68529e-39
-5.16116e-38
-4.79208e-37
-4.51621e-36
-4.29403e-35
-4.10659e-34
-4.47282e-33
-4.63387e-32
-4.53195e-31
-4.15331e-30
-3.54424e-29
-2.80009e-28
-2.03339e-27
-1.34331e-26
-7.96008e-26
-4.15529e-25
-1.86678e-24
-6.97268e-24
-2.02408e-23
-3.70503e-23
-2.96687e-25
1.24637e-24
3.2316e-22
6.90293e-21
1.22941e-19
-6.84502e-51
-6.3142e-51
-1.19312e-50
-2.38154e-50
-4.79665e-50
-9.73305e-50
-1.98994e-49
-4.10062e-49
-8.52202e-49
-1.78784e-48
-3.79167e-48
-8.14711e-48
-1.77989e-47
-3.97889e-47
-9.21478e-47
-2.26669e-46
-6.20374e-46
-2.01992e-45
-8.25427e-45
-4.2163e-44
-2.55464e-43
-1.73754e-42
-1.28066e-41
-1.00348e-40
-8.26465e-40
-7.09237e-39
-6.28941e-38
-5.71759e-37
-5.29205e-36
-4.96091e-35
-4.69696e-34
-5.079e-33
-5.23423e-32
-5.09463e-31
-4.64515e-30
-3.9417e-29
-3.09565e-28
-2.23478e-27
-1.46802e-26
-8.65052e-26
-4.48754e-25
-1.99933e-24
-7.37443e-24
-2.09831e-23
-3.71985e-23
-3.01492e-25
2.2749e-24
4.57509e-22
7.68444e-21
1.43244e-19
-1.75566e-50
-1.6068e-50
-3.06535e-50
-6.1307e-50
-1.23721e-49
-2.51641e-49
-5.15848e-49
-1.06587e-48
-2.22049e-48
-4.66647e-48
-9.90164e-48
-2.12426e-47
-4.61852e-47
-1.02197e-46
-2.32105e-46
-5.50682e-46
-1.41373e-45
-4.16536e-45
-1.50548e-44
-6.87475e-44
-3.83983e-43
-2.4711e-42
-1.74918e-41
-1.3259e-40
-1.05997e-39
-8.84326e-39
-7.63149e-38
-6.7605e-37
-6.1134e-36
-5.62272e-35
-5.25067e-34
-5.62344e-33
-5.75849e-32
-5.57611e-31
-5.05797e-30
-4.26798e-29
-3.33186e-28
-2.39066e-27
-1.56088e-26
-9.13907e-26
-4.7047e-25
-2.07335e-24
-7.51374e-24
-2.0714e-23
-3.43916e-23
-2.94162e-25
1.77411e-23
5.63281e-22
7.26661e-21
1.20842e-19
-4.23325e-50
-3.86014e-50
-7.44415e-50
-1.49379e-49
-3.025e-49
-6.17673e-49
-1.2716e-48
-2.63913e-48
-5.52164e-48
-1.16473e-47
-2.47805e-47
-5.32144e-47
-1.15495e-46
-2.54018e-46
-5.69378e-46
-1.31692e-45
-3.22606e-45
-8.78311e-45
-2.84287e-44
-1.15663e-43
-5.89774e-43
-3.56728e-42
-2.41841e-41
-1.77189e-40
-1.37404e-39
-1.11273e-38
-9.31501e-38
-8.00019e-37
-7.02096e-36
-6.29083e-35
-5.75958e-34
-6.08458e-33
-6.1785e-32
-5.9475e-31
-5.36601e-30
-4.50235e-29
-3.49349e-28
-2.49072e-27
-1.61547e-26
-9.38917e-26
-4.78795e-25
-2.08021e-24
-7.35415e-24
-1.92674e-23
-2.75749e-23
1.3212e-24
1.10975e-22
7.30212e-22
6.6223e-21
8.11604e-20
-9.59784e-50
-8.75722e-50
-1.70847e-49
-3.44467e-49
-7.01124e-49
-1.43968e-48
-2.98184e-48
-6.2279e-48
-1.31128e-47
-2.7824e-47
-5.94982e-47
-1.28233e-46
-2.78687e-46
-6.11601e-46
-1.36022e-45
-3.09222e-45
-7.32404e-45
-1.87668e-44
-5.52866e-44
-2.01021e-43
-9.28983e-43
-5.24624e-42
-3.39826e-41
-2.40753e-40
-1.81322e-39
-1.42614e-38
-1.15662e-37
-9.59074e-37
-8.10883e-36
-7.0119e-35
-6.23725e-34
-6.45546e-33
-6.47639e-32
-6.18809e-31
-5.5506e-30
-4.63028e-29
-3.57039e-28
-2.52855e-27
-1.62813e-26
-9.38217e-26
-4.72901e-25
-2.0168e-24
-6.88593e-24
-1.66155e-23
-1.66927e-23
2.12176e-23
4.47644e-22
1.17695e-21
7.01789e-21
4.90187e-20
-2.03907e-49
-1.87595e-49
-3.70231e-49
-7.51368e-49
-1.54009e-48
-3.18629e-48
-6.65245e-48
-1.40109e-47
-2.97509e-47
-6.36484e-47
-1.37139e-46
-2.97462e-46
-6.49381e-46
-1.42732e-45
-3.1648e-45
-7.11979e-45
-1.64753e-44
-4.03447e-44
-1.10018e-43
-3.60403e-43
-1.50299e-42
-7.87138e-42
-4.85922e-41
-3.33295e-40
-2.4454e-39
-1.87406e-38
-1.4752e-37
-1.17953e-36
-9.55103e-36
-7.88657e-35
-6.73085e-34
-6.75152e-33
-6.64937e-32
-6.28842e-31
-5.60224e-30
-4.64486e-29
-3.55853e-28
-2.50233e-27
-1.59837e-26
-9.11934e-26
-4.53113e-25
-1.88599e-24
-6.12553e-24
-1.28543e-23
-4.04161e-24
1.10303e-22
1.35689e-21
2.5093e-21
8.19275e-21
6.33883e-20
-4.06223e-49
-3.79717e-49
-7.57666e-49
-1.55036e-48
-3.20632e-48
-6.69682e-48
-1.41225e-47
-3.00556e-47
-6.45025e-47
-1.39458e-46
-3.0353e-46
-6.6444e-46
-1.46159e-45
-3.2292e-45
-7.1706e-45
-1.60595e-44
-3.66214e-44
-8.68029e-44
-2.22646e-43
-6.6471e-43
-2.49862e-42
-1.20482e-41
-7.0618e-41
-4.69442e-40
-3.3689e-39
-2.5291e-38
-1.94244e-37
-1.5024e-36
-1.16323e-35
-9.09183e-35
-7.33554e-34
-7.0196e-33
-6.71468e-32
-6.25271e-31
-5.52185e-30
-4.54744e-29
-3.46027e-28
-2.41486e-27
-1.52879e-26
-8.62144e-26
-4.20856e-25
-1.69622e-24
-5.1151e-24
-8.17054e-24
-9.32102e-25
3.77796e-22
3.39107e-21
5.93354e-21
1.20577e-20
1.20935e-19
-7.61669e-49
-7.2717e-49
-1.46614e-48
-3.02885e-48
-6.33087e-48
-1.33729e-47
-2.85385e-47
-6.14938e-47
-1.33659e-46
-2.927e-46
-6.45109e-46
-1.42903e-45
-3.1771e-45
-7.08067e-45
-1.58131e-44
-3.54499e-44
-8.02605e-44
-1.86135e-43
-4.55743e-43
-1.25705e-42
-4.26898e-42
-1.88099e-41
-1.04046e-40
-6.7001e-40
-4.71987e-39
-3.49199e-38
-2.6363e-37
-1.98724e-36
-1.47803e-35
-1.09058e-34
-8.21073e-34
-7.34794e-33
-6.71441e-32
-6.10064e-31
-5.32101e-30
-4.34729e-29
-3.28385e-28
-2.27309e-27
-1.42476e-26
-7.92562e-26
-3.78454e-25
-1.46066e-24
-3.93404e-24
-3.35106e-24
2.06945e-24
9.83223e-22
7.40322e-21
1.30774e-20
2.26534e-20
2.66947e-19
-1.34349e-48
-1.31738e-48
-2.68487e-48
-5.60553e-48
-1.18628e-47
-2.5384e-47
-5.49143e-47
-1.20022e-46
-2.64724e-46
-5.88439e-46
-1.31635e-45
-2.95836e-45
-6.66689e-45
-1.50387e-44
-3.39147e-44
-7.64862e-44
-1.73066e-43
-3.96371e-43
-9.3893e-43
-2.42867e-42
-7.49927e-42
-2.99865e-41
-1.55124e-40
-9.64435e-40
-6.68098e-39
-4.89617e-38
-3.66097e-37
-2.7153e-36
-1.9596e-35
-1.37322e-34
-9.59737e-34
-7.87686e-33
-6.72044e-32
-5.86865e-31
-5.02147e-30
-4.06055e-29
-3.04229e-28
-2.08721e-27
-1.29361e-26
-7.08e-26
-3.28701e-25
-1.19302e-24
-2.64281e-24
-8.34947e-25
1.36509e-23
2.15825e-21
1.46129e-20
2.58401e-20
4.47923e-20
6.23211e-19
-2.22809e-48
-2.2548e-48
-4.65309e-48
-9.83675e-48
-2.11065e-47
-4.58179e-47
-1.00642e-46
-2.23496e-46
-5.01143e-46
-1.13297e-45
-2.57807e-45
-5.89259e-45
-1.34981e-44
-3.09176e-44
-7.06755e-44
-1.61082e-43
-3.66387e-43
-8.35387e-43
-1.93775e-42
-4.7735e-42
-1.35469e-41
-4.8957e-41
-2.34105e-40
-1.39531e-39
-9.49566e-39
-6.91336e-38
-5.14997e-37
-3.79204e-36
-2.68763e-35
-1.81225e-34
-1.18343e-33
-8.80953e-33
-6.83932e-32
-5.61074e-31
-4.65413e-30
-3.7086e-29
-2.75188e-28
-1.8694e-27
-1.14383e-26
-6.13876e-26
-2.748e-25
-9.12945e-25
-1.39079e-24
-2.45442e-25
4.40235e-23
4.20439e-21
2.66043e-20
4.64747e-20
8.62881e-20
1.48446e-18
-3.47849e-48
-3.6496e-48
-7.63747e-48
-1.63868e-47
-3.56783e-47
-7.86841e-47
-1.75745e-46
-3.97157e-46
-9.06892e-46
-2.08911e-45
-4.84551e-45
-1.129e-44
-2.63574e-44
-6.14893e-44
-1.42977e-43
-3.30679e-43
-7.5995e-43
-1.73705e-42
-3.98762e-42
-9.49646e-42
-2.51328e-41
-8.21923e-41
-3.58813e-40
-2.02736e-39
-1.34934e-38
-9.76188e-38
-7.26953e-37
-5.34898e-36
-3.76303e-35
-2.47903e-34
-1.53718e-33
-1.04215e-32
-7.21672e-32
-5.39917e-31
-4.25774e-30
-3.31626e-29
-2.4305e-28
-1.63254e-27
-9.84095e-27
-5.1552e-26
-2.19786e-25
-6.39865e-25
-3.9703e-25
-6.46254e-26
1.01858e-22
7.45611e-21
4.51914e-20
7.7909e-20
1.60244e-19
3.44605e-18
-5.12811e-48
-5.59715e-48
-1.18952e-47
-2.59297e-47
-5.73526e-47
-1.28665e-46
-2.92608e-46
-6.73889e-46
-1.56953e-45
-3.69045e-45
-8.7418e-45
-2.08087e-44
-4.96335e-44
-1.18262e-43
-2.80593e-43
-6.60933e-43
-1.54147e-42
-3.55349e-42
-8.14693e-42
-1.90148e-41
-4.77229e-41
-1.42381e-40
-5.61845e-40
-2.96509e-39
-1.9137e-38
-1.37208e-37
-1.02233e-36
-7.54569e-36
-5.30898e-35
-3.46197e-34
-2.07795e-33
-1.30675e-32
-8.04105e-32
-5.32495e-31
-3.87758e-30
-2.90994e-29
-2.09601e-28
-1.38901e-27
-8.2247e-27
-4.17736e-26
-1.66397e-25
-3.90943e-25
-1.01714e-25
2.49677e-25
2.0358e-22
1.22168e-20
7.20596e-20
1.23501e-19
2.87751e-19
7.53467e-18
-7.1653e-48
-8.15527e-48
-1.76024e-47
-3.90031e-47
-8.7779e-47
-2.00576e-46
-4.65058e-46
-1.09304e-45
-2.60047e-45
-6.25135e-45
-1.51504e-44
-3.6918e-44
-9.01708e-44
-2.19988e-43
-5.34082e-43
-1.28523e-42
-3.05302e-42
-7.13501e-42
-1.64615e-41
-3.81014e-41
-9.22331e-41
-2.54682e-40
-9.05125e-40
-4.38812e-39
-2.71172e-38
-1.91584e-37
-1.42616e-36
-1.05728e-35
-7.47185e-35
-4.86683e-34
-2.87479e-33
-1.71844e-32
-9.5453e-32
-5.49791e-31
-3.56439e-30
-2.51619e-29
-1.76491e-28
-1.14975e-27
-6.65863e-27
-3.24618e-26
-1.17226e-25
-1.85471e-25
-3.44331e-26
1.08981e-24
3.75588e-22
1.86906e-20
1.08235e-19
1.85813e-19
4.98496e-19
1.58671e-17
-9.49795e-48
-1.13084e-47
-2.47749e-47
-5.58903e-47
-1.28174e-46
-2.98708e-46
-7.07044e-46
-1.69816e-45
-4.13273e-45
-1.01723e-44
-2.52642e-44
-6.31339e-44
-1.5821e-43
-3.96054e-43
-9.86171e-43
-2.43067e-42
-5.89871e-42
-1.4037e-41
-3.27924e-41
-7.60047e-41
-1.80211e-40
-4.69001e-40
-1.50885e-39
-6.62189e-39
-3.85435e-38
-2.65911e-37
-1.97017e-36
-1.46586e-35
-1.04232e-34
-6.81698e-34
-4.00857e-33
-2.32881e-32
-1.20063e-31
-6.04619e-31
-3.37341e-30
-2.16054e-29
-1.4514e-28
-9.23601e-28
-5.19603e-27
-2.39202e-26
-7.43184e-26
-4.51722e-26
-8.88687e-27
2.30571e-24
6.51333e-22
2.6891e-20
1.53506e-19
2.65399e-19
8.34525e-19
3.65217e-17
-1.19992e-47
-1.49795e-47
-3.33188e-47
-7.66184e-47
-1.79266e-46
-4.26592e-46
-1.032e-45
-2.53577e-45
-6.31999e-45
-1.59473e-44
-4.06422e-44
-1.04302e-43
-2.68586e-43
-6.91063e-43
-1.76791e-42
-4.47145e-42
-1.11147e-41
-2.70288e-41
-6.4255e-41
-1.50287e-40
-3.53556e-40
-8.83664e-40
-2.60824e-39
-1.02779e-38
-5.53264e-38
-3.68036e-37
-2.69704e-36
-2.00852e-35
-1.43645e-34
-9.45414e-34
-5.57158e-33
-3.19662e-32
-1.57408e-31
-7.11461e-31
-3.36352e-30
-1.86688e-29
-1.16693e-28
-7.17186e-28
-3.87811e-27
-1.64515e-26
-4.06152e-26
-1.12126e-26
4.25305e-26
4.7399e-24
1.06435e-21
3.65364e-20
2.05874e-19
3.60828e-19
1.35021e-18
8.61617e-17
-1.46008e-47
-1.91015e-47
-4.31355e-47
-1.01174e-46
-2.41697e-46
-5.87738e-46
-1.45425e-45
-3.65837e-45
-9.34462e-45
-2.41913e-44
-6.33175e-44
-1.67036e-43
-4.42423e-43
-1.1711e-42
-3.08122e-42
-8.00831e-42
-2.04335e-41
-5.09235e-41
-1.23669e-40
-2.93639e-40
-6.92429e-40
-1.6903e-39
-4.66307e-39
-1.65283e-38
-8.09252e-38
-5.10837e-37
-3.66896e-36
-2.72213e-35
-1.95391e-34
-1.29413e-33
-7.66728e-33
-4.38677e-32
-2.10975e-31
-8.86148e-31
-3.59626e-30
-1.65709e-29
-9.20012e-29
-5.34833e-28
-2.73236e-27
-1.0279e-26
-1.71699e-26
-3.01793e-27
1.82069e-25
1.04184e-23
1.6416e-21
4.70044e-20
2.61495e-19
4.68956e-19
2.15339e-18
1.96873e-16
-1.74153e-47
-2.37517e-47
-5.43701e-47
-1.30013e-46
-3.17103e-46
-7.88031e-46
-1.99453e-45
-5.13764e-45
-1.3451e-44
-3.57293e-44
-9.60496e-44
-2.60477e-43
-7.09667e-43
-1.93283e-42
-5.23235e-42
-1.39885e-41
-3.66953e-41
-9.39175e-41
-2.33678e-40
-5.65791e-40
-1.34759e-39
-3.25727e-39
-8.566e-39
-2.76343e-38
-1.21792e-37
-7.16711e-37
-4.98379e-36
-3.65859e-35
-2.62564e-34
-1.74698e-33
-1.04112e-32
-5.9694e-32
-2.84467e-31
-1.14537e-30
-4.13437e-30
-1.55099e-29
-7.16479e-29
-3.78884e-28
-1.7778e-27
-5.65136e-27
-4.15874e-27
6.58581e-27
4.75304e-25
2.24879e-23
2.39447e-21
5.7358e-20
3.15276e-19
5.90036e-19
3.45702e-18
4.33421e-16
-2.0973e-47
-2.94335e-47
-6.79203e-47
-1.65128e-46
-4.10522e-46
-1.04131e-45
-2.69307e-45
-7.09551e-45
-1.90208e-44
-5.17836e-44
-1.4282e-43
-3.97723e-43
-1.11358e-42
-3.11873e-42
-8.68543e-42
-2.38945e-41
-6.45011e-41
-1.69773e-40
-4.33676e-40
-1.07417e-39
-2.59834e-39
-6.28239e-39
-1.60337e-38
-4.79539e-38
-1.90125e-37
-1.02603e-36
-6.80497e-36
-4.89654e-35
-3.49376e-34
-2.32751e-33
-1.3934e-32
-8.01933e-32
-3.8169e-31
-1.50602e-30
-5.0399e-30
-1.56634e-29
-5.6022e-29
-2.5103e-28
-1.04278e-27
-2.50383e-27
-5.71031e-28
4.698e-26
1.05059e-24
4.64524e-23
3.30742e-21
6.65177e-20
3.6306e-19
7.39219e-19
5.86457e-18
8.94108e-16
-2.67001e-47
-3.7644e-47
-8.63903e-47
-2.11973e-46
-5.34639e-46
-1.37926e-45
-3.6335e-45
-9.76335e-45
-2.67221e-44
-7.43622e-44
-2.09878e-43
-5.98787e-43
-1.71958e-42
-4.94503e-42
-1.41547e-41
-4.0058e-41
-1.11289e-40
-3.01432e-40
-7.91454e-40
-2.00952e-39
-4.95468e-39
-1.20697e-38
-3.03322e-38
-8.5838e-38
-3.09071e-37
-1.51294e-36
-9.41588e-36
-6.56215e-35
-4.61969e-34
-3.0665e-33
-1.83893e-32
-1.06166e-31
-5.06464e-31
-1.9844e-30
-6.37148e-30
-1.7187e-29
-4.53424e-29
-1.51619e-28
-5.10876e-28
-6.00215e-28
4.96793e-27
1.34641e-25
2.18367e-24
8.95003e-23
4.33718e-21
7.37459e-20
4.04478e-19
9.58576e-19
1.19634e-17
1.68317e-15
-3.80144e-47
-5.21898e-47
-1.16181e-46
-2.83416e-46
-7.18248e-46
-1.87102e-45
-4.99051e-45
-1.36018e-44
-3.78196e-44
-1.07077e-43
-3.07953e-43
-8.9676e-43
-2.63304e-42
-7.75507e-42
-2.27726e-41
-6.62083e-41
-1.89163e-40
-5.27124e-40
-1.42311e-39
-3.70746e-39
-9.33658e-39
-2.30278e-38
-5.7609e-38
-1.57165e-37
-5.22468e-37
-2.31457e-36
-1.33182e-35
-8.8654e-35
-6.09799e-34
-4.00696e-33
-2.39676e-32
-1.38489e-31
-6.62563e-31
-2.59553e-30
-8.18116e-30
-2.02095e-29
-3.97168e-29
-8.09346e-29
-1.62864e-28
3.54323e-28
1.91817e-26
2.77874e-25
4.393e-24
1.56807e-22
5.42666e-21
7.91958e-20
4.43845e-19
1.32389e-18
2.76976e-17
2.86865e-15
-6.30328e-47
-8.2484e-47
-1.72533e-46
-4.08784e-46
-1.02482e-45
-2.665e-45
-7.12991e-45
-1.95501e-44
-5.48131e-44
-1.56823e-43
-4.5677e-43
-1.35021e-42
-4.03428e-42
-1.21218e-41
-3.64011e-41
-1.08463e-40
-3.18145e-40
-9.11048e-40
-2.52729e-39
-6.75458e-39
-1.73893e-38
-4.35618e-38
-1.09319e-37
-2.91857e-37
-9.12898e-37
-3.68493e-36
-1.94087e-35
-1.21633e-34
-8.0798e-34
-5.21242e-33
-3.09229e-32
-1.78179e-31
-8.53755e-31
-3.35256e-30
-1.05109e-29
-2.48211e-29
-3.89607e-29
-3.48161e-29
-2.79895e-29
2.27703e-27
4.02159e-26
4.96029e-25
8.26168e-24
2.48741e-22
6.51958e-21
8.34744e-20
4.89475e-19
2.00769e-18
6.20502e-17
4.44892e-15
-1.21405e-46
-1.52018e-46
-2.92019e-46
-6.55096e-46
-1.59414e-45
-4.07964e-45
-1.08203e-44
-2.95424e-44
-8.27418e-44
-2.37161e-43
-6.94056e-43
-2.06787e-42
-6.24813e-42
-1.90495e-41
-5.82363e-41
-1.77186e-40
-5.3201e-40
-1.56198e-39
-4.44456e-39
-1.21737e-38
-3.2039e-38
-8.16642e-38
-2.06602e-37
-5.45781e-37
-1.63482e-36
-6.09302e-36
-2.92951e-35
-1.70691e-34
-1.08117e-33
-6.7805e-33
-3.96143e-32
-2.26506e-31
-1.08398e-30
-4.26665e-30
-1.33902e-29
-3.10684e-29
-4.26833e-29
-8.77542e-30
1.15082e-28
4.94481e-27
6.55389e-26
8.13614e-25
1.41667e-23
3.6111e-22
7.57257e-21
8.74494e-20
5.53956e-19
3.40221e-18
1.24518e-16
6.3382e-15
-2.62103e-46
-3.2071e-46
-5.64508e-46
-1.17873e-45
-2.73914e-45
-6.80749e-45
-1.76974e-44
-4.76201e-44
-1.31948e-43
-3.75392e-43
-1.09411e-42
-3.25845e-42
-9.88107e-42
-3.03616e-41
-9.39379e-41
-2.90386e-40
-8.8878e-40
-2.66637e-39
-7.76228e-39
-2.17506e-38
-5.84755e-38
-1.51741e-37
-3.88127e-37
-1.02223e-36
-2.97462e-36
-1.04e-35
-4.58563e-35
-2.46403e-34
-1.47006e-33
-8.86454e-33
-5.05747e-32
-2.85193e-31
-1.35778e-30
-5.34745e-30
-1.68352e-29
-3.89557e-29
-5.04603e-29
-3.10011e-30
3.30802e-28
7.57685e-27
9.52494e-26
1.25148e-24
2.21397e-23
4.86624e-22
8.56206e-21
9.21999e-20
6.55397e-19
6.08253e-18
2.18947e-16
8.38197e-15
-6.10022e-46
-7.44462e-46
-1.21592e-45
-2.35296e-45
-5.17452e-45
-1.23801e-44
-3.12912e-44
-8.23281e-44
-2.23891e-43
-6.2711e-43
-1.80523e-42
-5.32961e-42
-1.60897e-41
-4.94501e-41
-1.53783e-40
-4.80089e-40
-1.49015e-39
-4.54867e-39
-1.3503e-38
-3.86155e-38
-1.05889e-37
-2.79611e-37
-7.24019e-37
-1.91028e-36
-5.45813e-36
-1.81742e-35
-7.4223e-35
-3.66989e-34
-2.04197e-33
-1.17083e-32
-6.46158e-32
-3.56728e-31
-1.68105e-30
-6.60444e-30
-2.085e-29
-4.84463e-29
-6.19249e-29
-2.13801e-30
4.90302e-28
1.00473e-26
1.3002e-25
1.81771e-24
3.18734e-23
6.17105e-22
9.49789e-21
9.87491e-20
8.1384e-19
1.04529e-17
3.39011e-16
1.0309e-14
-1.49023e-45
-1.83598e-45
-2.82525e-45
-5.08722e-45
-1.05645e-44
-2.42455e-44
-5.93461e-44
-1.52018e-43
-4.03802e-43
-1.10742e-42
-3.12895e-42
-9.09443e-42
-2.71338e-41
-8.27984e-41
-2.56976e-40
-8.04867e-40
-2.51872e-39
-7.78382e-39
-2.34666e-38
-6.82796e-38
-1.90544e-37
-5.11301e-37
-1.34036e-36
-3.55238e-36
-1.00401e-35
-3.22445e-35
-1.23471e-34
-5.63702e-34
-2.90823e-33
-1.57001e-32
-8.29916e-32
-4.44848e-31
-2.06236e-30
-8.04975e-30
-2.54318e-29
-5.94687e-29
-7.67746e-29
-2.22395e-30
5.7199e-28
1.24273e-26
1.7007e-25
2.50044e-24
4.26829e-23
7.42632e-22
1.03609e-20
1.07713e-19
1.04091e-18
1.64138e-17
4.65271e-16
1.17723e-14
-3.76534e-45
-4.70444e-45
-6.90142e-45
-1.16403e-44
-2.28656e-44
-5.0333e-44
-1.19222e-43
-2.96967e-43
-7.69121e-43
-2.06002e-42
-5.6929e-42
-1.6215e-41
-4.75446e-41
-1.43139e-40
-4.40412e-40
-1.37474e-39
-4.31016e-39
-1.34092e-38
-4.08584e-38
-1.20493e-37
-3.41196e-37
-9.28436e-37
-2.46184e-36
-6.56195e-36
-1.84333e-35
-5.76518e-35
-2.0949e-34
-8.89745e-34
-4.252e-33
-2.1458e-32
-1.07644e-31
-5.55269e-31
-2.51483e-30
-9.70283e-30
-3.05803e-29
-7.19315e-29
-9.47702e-29
-2.51502e-30
6.12595e-28
1.47513e-26
2.13882e-25
3.25438e-24
5.38511e-23
8.55269e-22
1.11271e-20
1.18958e-19
1.32463e-18
2.28978e-17
5.7034e-16
1.24501e-14
-9.7624e-45
-1.23649e-44
-1.74246e-44
-2.77104e-44
-5.16571e-44
-1.09246e-43
-2.50653e-43
-6.0746e-43
-1.53422e-42
-4.01159e-42
-1.08292e-41
-3.01543e-41
-8.65775e-41
-2.5594e-40
-7.76284e-40
-2.40011e-39
-7.49199e-39
-2.33237e-38
-7.1441e-38
-2.1257e-37
-6.08634e-37
-1.67495e-36
-4.48526e-36
-1.20247e-35
-3.36692e-35
-1.03263e-34
-3.59776e-34
-1.43479e-33
-6.37222e-33
-2.9959e-32
-1.41572e-31
-6.96747e-31
-3.05904e-30
-1.15975e-29
-3.63132e-29
-8.57479e-29
-1.15715e-28
-2.89324e-30
6.27542e-28
1.69168e-26
2.59853e-25
4.03218e-24
6.38321e-23
9.41457e-22
1.17585e-20
1.30352e-19
1.61195e-18
2.85087e-17
6.35601e-16
1.25038e-14
-2.58358e-44
-3.30657e-44
-4.49561e-44
-6.78004e-44
-1.20413e-43
-2.45243e-43
-5.45933e-43
-1.28891e-42
-3.17783e-42
-8.11802e-42
-2.14107e-41
-5.82456e-41
-1.6346e-40
-4.73026e-40
-1.40823e-39
-4.28977e-39
-1.32537e-38
-4.104e-38
-1.25641e-37
-3.75317e-37
-1.08238e-36
-3.00306e-36
-8.10438e-36
-2.18387e-35
-6.10426e-35
-1.84455e-34
-6.21262e-34
-2.34818e-33
-9.75198e-33
-4.27351e-32
-1.89365e-31
-8.82613e-31
-3.72707e-30
-1.37921e-29
-4.26897e-29
-1.00875e-28
-1.39437e-28
-3.34184e-30
6.25083e-28
1.87968e-26
3.01679e-25
4.70663e-24
7.13611e-23
9.91107e-22
1.21285e-20
1.39663e-19
1.84188e-18
3.22067e-17
6.59711e-16
1.23523e-14
-6.95861e-44
-8.94531e-44
-1.17562e-43
-1.68991e-43
-2.87157e-43
-5.64859e-43
-1.22236e-42
-2.8154e-42
-6.78393e-42
-1.69465e-41
-4.36949e-41
-1.16145e-40
-3.1838e-40
-9.00321e-40
-2.62307e-39
-7.84064e-39
-2.38587e-38
-7.30867e-38
-2.22413e-37
-6.6366e-37
-1.91977e-36
-5.35167e-36
-1.45199e-35
-3.92821e-35
-1.0967e-34
-3.27489e-34
-1.07283e-33
-3.87509e-33
-1.5162e-32
-6.21614e-32
-2.57982e-31
-1.13293e-30
-4.5682e-30
-1.63835e-29
-4.98423e-29
-1.17375e-28
-1.65813e-28
-4.14341e-30
6.10608e-28
2.02293e-26
3.34343e-25
5.17434e-24
7.54645e-23
1.00128e-21
1.21545e-20
1.44214e-19
1.96702e-18
3.38427e-17
6.57282e-16
1.18941e-14
-1.89956e-43
-2.43602e-43
-3.09501e-43