/*--------------------------------*- C++ -*----------------------------------*\
  =========                 |
  \\      /  F ield         | OpenFOAM: The Open Source CFD Toolbox
   \\    /   O peration     | Website:  https://openfoam.org
    \\  /    A nd           | Version:  9
     \\/     M anipulation  |
\*---------------------------------------------------------------------------*/
FoamFile
{
    format      ascii;
    class       volScalarField;
    location    "0.09";
    object      p;
}
// * * * * * * * * * * * * * * * * * * * * * * * * * * * * * * * * * * * * * //

dimensions      [1 -1 -2 0 0 0 0];

internalField   nonuniform List<scalar> 
5000
(
1.45874
1.45879
1.45885
1.4589
1.45893
1.45894
1.45894
1.45891
1.45885
1.45877
1.45866
1.45852
1.45835
1.45815
1.45794
1.45769
1.45743
1.45716
1.45689
1.45663
1.4564
1.45621
1.45605
1.4559
1.45573
1.4555
1.4552
1.45482
1.45433
1.45372
1.45284
1.45174
1.45041
1.44888
1.44703
1.44472
1.44183
1.43833
1.4343
1.42977
1.42462
1.41861
1.41156
1.40346
1.3943
1.38392
1.37199
1.35819
1.34227
1.32377
1.45675
1.45676
1.4568
1.45682
1.45682
1.4568
1.45677
1.45671
1.45662
1.45651
1.45638
1.45621
1.45602
1.45581
1.45557
1.45531
1.45503
1.45474
1.45444
1.45416
1.4539
1.45367
1.45347
1.45326
1.45302
1.45272
1.45234
1.45188
1.45134
1.45068
1.44977
1.44863
1.44727
1.44568
1.44376
1.44136
1.43837
1.43477
1.43066
1.42606
1.42084
1.41476
1.40768
1.39958
1.39048
1.38025
1.3686
1.35526
1.34004
1.3225
1.45475
1.45472
1.45473
1.45472
1.45468
1.45464
1.45457
1.45448
1.45436
1.45422
1.45406
1.45388
1.45367
1.45345
1.4532
1.45294
1.45265
1.45236
1.45206
1.45176
1.45149
1.45123
1.45099
1.45072
1.4504
1.45
1.44953
1.44899
1.44839
1.4477
1.44679
1.44565
1.44425
1.4426
1.44059
1.43811
1.43505
1.43142
1.42728
1.42263
1.41734
1.41123
1.40418
1.39618
1.38723
1.37719
1.36589
1.35314
1.33874
1.3223
1.45274
1.45267
1.45264
1.4526
1.45253
1.45245
1.45235
1.45223
1.45209
1.45193
1.45174
1.45154
1.45133
1.4511
1.45085
1.45058
1.45031
1.45001
1.44971
1.44941
1.44913
1.44885
1.44857
1.44825
1.44785
1.44736
1.44679
1.44617
1.44552
1.44481
1.44389
1.44276
1.44134
1.43964
1.43756
1.43501
1.43192
1.42828
1.42413
1.41945
1.41412
1.40802
1.40106
1.39322
1.38446
1.3747
1.36384
1.35175
1.33822
1.32294
1.45072
1.4506
1.45055
1.45047
1.45037
1.45026
1.45013
1.44998
1.44981
1.44963
1.44943
1.44922
1.449
1.44877
1.44852
1.44826
1.44799
1.44771
1.44741
1.44711
1.44681
1.44651
1.44619
1.44582
1.44535
1.44478
1.44413
1.44344
1.44274
1.44201
1.44109
1.43996
1.43852
1.43679
1.43467
1.43208
1.42896
1.42532
1.42118
1.4165
1.41118
1.40513
1.39828
1.39062
1.38211
1.3727
1.36235
1.35096
1.33834
1.32425
1.44869
1.44853
1.44844
1.44834
1.44821
1.44806
1.4479
1.44773
1.44754
1.44734
1.44713
1.44691
1.44669
1.44646
1.44623
1.44598
1.44572
1.44544
1.44515
1.44485
1.44454
1.44422
1.44387
1.44344
1.44291
1.44226
1.44154
1.44079
1.44005
1.4393
1.43839
1.43725
1.43582
1.43407
1.43192
1.4293
1.42617
1.42254
1.41841
1.41376
1.40849
1.40253
1.39583
1.38838
1.38015
1.37115
1.36134
1.35066
1.33896
1.32607
1.44665
1.44645
1.44633
1.44619
1.44603
1.44586
1.44567
1.44547
1.44527
1.44505
1.44484
1.44462
1.4444
1.44418
1.44396
1.44373
1.44349
1.44323
1.44294
1.44264
1.44233
1.44199
1.44161
1.44113
1.44054
1.43983
1.43904
1.43824
1.43746
1.43669
1.43578
1.43465
1.43322
1.43146
1.4293
1.42667
1.42355
1.41993
1.41585
1.41124
1.40605
1.40021
1.39369
1.38647
1.37856
1.36998
1.36073
1.35077
1.33997
1.32822
1.4446
1.44435
1.4442
1.44403
1.44384
1.44364
1.44343
1.44322
1.443
1.44278
1.44256
1.44235
1.44214
1.44194
1.44174
1.44153
1.44131
1.44106
1.44079
1.4405
1.44018
1.43983
1.43941
1.4389
1.43825
1.43748
1.43663
1.43578
1.43496
1.43418
1.43326
1.43215
1.43073
1.42898
1.42682
1.42419
1.42108
1.41751
1.41347
1.40893
1.40384
1.39814
1.39181
1.38485
1.37728
1.36914
1.36046
1.3512
1.34126
1.33058
1.44253
1.44222
1.44205
1.44185
1.44163
1.44141
1.44118
1.44095
1.44073
1.44051
1.44029
1.4401
1.43991
1.43973
1.43956
1.43938
1.43918
1.43896
1.4387
1.43842
1.4381
1.43774
1.4373
1.43675
1.43605
1.43522
1.43432
1.43341
1.43256
1.43176
1.43085
1.42974
1.42834
1.42661
1.42446
1.42185
1.41877
1.41524
1.41126
1.40681
1.40184
1.3963
1.39019
1.3835
1.37628
1.36858
1.36046
1.35189
1.34276
1.33306
1.44042
1.44006
1.43986
1.43964
1.4394
1.43916
1.43892
1.43868
1.43846
1.43824
1.43805
1.43787
1.43772
1.43757
1.43743
1.43728
1.43712
1.43692
1.43669
1.43642
1.4361
1.43573
1.43527
1.43468
1.43394
1.43306
1.4321
1.43114
1.43026
1.42944
1.42854
1.42745
1.42607
1.42435
1.42222
1.41965
1.41661
1.41313
1.40923
1.40487
1.40003
1.39468
1.38879
1.38239
1.37552
1.36827
1.3607
1.35277
1.34439
1.33559
1.43828
1.43785
1.43764
1.4374
1.43714
1.43689
1.43664
1.43641
1.43619
1.436
1.43583
1.43568
1.43556
1.43546
1.43536
1.43526
1.43512
1.43496
1.43475
1.4345
1.43419
1.43381
1.43333
1.43271
1.43193
1.43099
1.42998
1.42898
1.42806
1.42723
1.42632
1.42525
1.4239
1.42221
1.42011
1.41756
1.41458
1.41117
1.40734
1.4031
1.39841
1.39324
1.38759
1.38147
1.37497
1.36816
1.36111
1.35379
1.34612
1.3381
1.43608
1.4356
1.43537
1.43512
1.43486
1.4346
1.43435
1.43413
1.43394
1.43377
1.43364
1.43354
1.43346
1.43341
1.43336
1.4333
1.43322
1.43309
1.43291
1.43267
1.43237
1.43199
1.43149
1.43084
1.43001
1.42903
1.42796
1.42691
1.42596
1.42511
1.42421
1.42316
1.42183
1.42017
1.4181
1.4156
1.41267
1.40934
1.40561
1.40148
1.39695
1.39198
1.38656
1.38074
1.3746
1.36823
1.36167
1.35492
1.34789
1.34058
1.43383
1.43329
1.43306
1.4328
1.43253
1.43228
1.43206
1.43186
1.43169
1.43157
1.43149
1.43144
1.43143
1.43144
1.43145
1.43145
1.43141
1.43132
1.43117
1.43095
1.43066
1.43028
1.42976
1.42908
1.4282
1.42716
1.42604
1.42494
1.42396
1.42309
1.4222
1.42116
1.41986
1.41824
1.41621
1.41376
1.41089
1.40763
1.404
1.40001
1.39564
1.39086
1.38569
1.38016
1.37438
1.36843
1.36235
1.35612
1.34968
1.34299
1.4315
1.43091
1.43068
1.43043
1.43018
1.42995
1.42975
1.42959
1.42948
1.42941
1.4294
1.42942
1.42948
1.42956
1.42964
1.42969
1.4297
1.42966
1.42954
1.42935
1.42907
1.42868
1.42815
1.42743
1.4265
1.4254
1.42422
1.42307
1.42206
1.42117
1.42028
1.41926
1.41799
1.4164
1.41442
1.41202
1.40922
1.40604
1.40252
1.39866
1.39446
1.38988
1.38495
1.37972
1.37429
1.36875
1.36312
1.35738
1.35146
1.34534
1.42908
1.42844
1.42824
1.42801
1.42779
1.4276
1.42745
1.42735
1.42731
1.42732
1.42738
1.42749
1.42763
1.42778
1.42793
1.42805
1.42812
1.42811
1.42803
1.42787
1.4276
1.4272
1.42665
1.42589
1.42491
1.42375
1.42251
1.42131
1.42025
1.41935
1.41846
1.41746
1.41622
1.41466
1.41272
1.41038
1.40764
1.40455
1.40114
1.39743
1.3934
1.38902
1.38432
1.37938
1.3743
1.36916
1.36396
1.35868
1.35325
1.34763
1.42655
1.42588
1.42572
1.42554
1.42537
1.42525
1.42517
1.42515
1.4252
1.4253
1.42546
1.42566
1.42589
1.42613
1.42636
1.42654
1.42666
1.4267
1.42666
1.42651
1.42625
1.42585
1.42527
1.42446
1.42343
1.4222
1.42089
1.41964
1.41854
1.41762
1.41673
1.41574
1.41453
1.41301
1.41111
1.40882
1.40616
1.40316
1.39987
1.3963
1.39244
1.38827
1.38381
1.37915
1.3744
1.36964
1.36486
1.36002
1.35504
1.34989
1.42389
1.42322
1.42313
1.42303
1.42294
1.4229
1.42293
1.42302
1.42317
1.42338
1.42365
1.42396
1.42429
1.42462
1.42492
1.42517
1.42535
1.42543
1.42542
1.42529
1.42503
1.42462
1.42401
1.42315
1.42205
1.42076
1.41938
1.41806
1.41693
1.41598
1.41509
1.41411
1.41292
1.41143
1.40958
1.40735
1.40476
1.40186
1.39868
1.39525
1.39156
1.38759
1.38337
1.379
1.37457
1.37017
1.3658
1.36139
1.35685
1.35214
1.42108
1.42044
1.42046
1.42047
1.4205
1.42059
1.42075
1.42097
1.42125
1.4216
1.42199
1.42241
1.42284
1.42326
1.42364
1.42395
1.42418
1.4243
1.42431
1.4242
1.42394
1.42351
1.42286
1.42195
1.42078
1.41941
1.41796
1.41658
1.41539
1.41442
1.41352
1.41256
1.41139
1.40993
1.40812
1.40595
1.40344
1.40063
1.39757
1.39428
1.39076
1.38698
1.38301
1.37891
1.3748
1.37075
1.36677
1.36278
1.35867
1.35441
1.41812
1.41757
1.41775
1.41792
1.4181
1.41835
1.41867
1.41905
1.41948
1.41997
1.42049
1.42102
1.42156
1.42206
1.42251
1.42288
1.42315
1.42331
1.42334
1.42323
1.42297
1.42251
1.42182
1.42086
1.41961
1.41816
1.41662
1.41518
1.41394
1.41294
1.41203
1.41107
1.40993
1.4085
1.40673
1.40462
1.40218
1.39946
1.39652
1.39338
1.39002
1.38643
1.38269
1.37887
1.37508
1.37137
1.36777
1.36418
1.36051
1.35669
1.41504
1.41466
1.41504
1.41541
1.4158
1.41624
1.41674
1.41729
1.41789
1.41852
1.41916
1.41981
1.42044
1.42102
1.42153
1.42195
1.42226
1.42244
1.42249
1.42239
1.42211
1.42162
1.42088
1.41985
1.41853
1.41699
1.41537
1.41385
1.41256
1.41153
1.41061
1.40966
1.40853
1.40713
1.4054
1.40334
1.40096
1.39835
1.39553
1.39253
1.38933
1.38593
1.38241
1.37886
1.37537
1.37201
1.36878
1.36559
1.36235
1.359
1.41191
1.41181
1.41244
1.41305
1.41368
1.41434
1.41504
1.41577
1.41652
1.41729
1.41805
1.41879
1.41949
1.42014
1.42069
1.42115
1.42148
1.42168
1.42174
1.42163
1.42134
1.42082
1.42003
1.41893
1.41753
1.4159
1.4142
1.4126
1.41125
1.41018
1.40924
1.40829
1.40718
1.40581
1.40412
1.4021
1.3998
1.39727
1.39458
1.39172
1.38868
1.38546
1.38215
1.37885
1.37567
1.37265
1.3698
1.36701
1.36421
1.36134
1.40879
1.4091
1.41006
1.41098
1.41186
1.41275
1.41364
1.41453
1.41542
1.41629
1.41714
1.41795
1.4187
1.41938
1.41997
1.42045
1.4208
1.42101
1.42107
1.42096
1.42065
1.42009
1.41925
1.41808
1.4166
1.41488
1.41309
1.41141
1.41
1.40889
1.40793
1.40698
1.40588
1.40453
1.40288
1.40091
1.39867
1.39623
1.39366
1.39094
1.38805
1.38502
1.38191
1.37885
1.37595
1.37327
1.37079
1.36843
1.36609
1.36371
1.406
1.40693
1.40828
1.40951
1.41063
1.41169
1.4127
1.41368
1.41462
1.41554
1.41642
1.41726
1.41803
1.41872
1.41932
1.41981
1.42017
1.42039
1.42045
1.42033
1.42
1.41941
1.41852
1.41729
1.41572
1.41392
1.41203
1.41027
1.40879
1.40764
1.40666
1.40571
1.40462
1.40329
1.40167
1.39974
1.39756
1.39522
1.39275
1.39017
1.38744
1.38458
1.38167
1.37884
1.37621
1.37384
1.37173
1.3698
1.36794
1.3661
1.40489
1.40685
1.40832
1.40952
1.41056
1.41151
1.4124
1.41328
1.41414
1.415
1.41584
1.41665
1.41741
1.4181
1.4187
1.41919
1.41956
1.41978
1.41985
1.41973
1.41938
1.41876
1.41782
1.41652
1.41488
1.41299
1.41102
1.40917
1.40763
1.40644
1.40543
1.40447
1.40339
1.40208
1.40048
1.39859
1.39648
1.39421
1.39186
1.3894
1.38681
1.38413
1.38143
1.37882
1.37643
1.37435
1.3726
1.37108
1.36972
1.36846
1.41327
1.41235
1.41173
1.41157
1.4117
1.41203
1.41251
1.4131
1.41378
1.41451
1.41526
1.41602
1.41675
1.41742
1.41802
1.41852
1.41891
1.41915
1.41922
1.4191
1.41875
1.41811
1.41713
1.41578
1.41407
1.41209
1.41003
1.40811
1.4065
1.40526
1.40422
1.40325
1.40218
1.40089
1.39931
1.39746
1.3954
1.39322
1.39096
1.38862
1.38617
1.38365
1.38114
1.37875
1.3766
1.3748
1.37337
1.37227
1.3714
1.37072
1.41166
1.41146
1.41127
1.41124
1.41134
1.41158
1.41196
1.41245
1.41305
1.41372
1.41445
1.41519
1.41592
1.4166
1.41722
1.41775
1.41817
1.41844
1.41854
1.41844
1.41809
1.41743
1.41642
1.41503
1.41326
1.41121
1.40907
1.40707
1.40539
1.4041
1.40303
1.40205
1.40098
1.3997
1.39814
1.39633
1.39432
1.39222
1.39007
1.38783
1.3855
1.38312
1.3808
1.37862
1.37671
1.37518
1.37406
1.37332
1.37293
1.37285
1.40971
1.40961
1.40955
1.40964
1.40984
1.41015
1.41059
1.41114
1.41179
1.4125
1.41327
1.41405
1.41483
1.41557
1.41625
1.41683
1.4173
1.41763
1.41777
1.41771
1.41737
1.41672
1.41569
1.41425
1.41243
1.41032
1.40811
1.40603
1.40429
1.40295
1.40184
1.40086
1.39979
1.39852
1.39698
1.39519
1.39324
1.39121
1.38915
1.38702
1.38479
1.38254
1.38038
1.3784
1.37673
1.37545
1.37462
1.37424
1.3743
1.37479
1.40754
1.40722
1.40711
1.40723
1.40752
1.40796
1.40854
1.40923
1.41
1.41084
1.41171
1.4126
1.41348
1.41431
1.41507
1.41574
1.41629
1.41669
1.4169
1.41688
1.41658
1.41594
1.4149
1.41344
1.41158
1.40942
1.40714
1.40499
1.40319
1.4018
1.40066
1.39966
1.39859
1.39733
1.3958
1.39404
1.39213
1.39018
1.38821
1.38617
1.38405
1.38191
1.37988
1.37808
1.37661
1.37558
1.37503
1.37499
1.37546
1.37649
1.4036
1.40266
1.40293
1.40344
1.40411
1.40491
1.4058
1.40675
1.40775
1.40879
1.40983
1.41086
1.41187
1.41282
1.4137
1.41448
1.41513
1.41562
1.41591
1.41596
1.4157
1.41508
1.41405
1.41257
1.41068
1.40848
1.40615
1.40394
1.40207
1.40064
1.39947
1.39845
1.39738
1.39612
1.39461
1.39287
1.391
1.38911
1.38722
1.38528
1.38325
1.38121
1.37929
1.37763
1.37635
1.37554
1.37525
1.37551
1.37637
1.3779
1.39107
1.394
1.3964
1.39826
1.39987
1.40133
1.40269
1.404
1.40527
1.40652
1.40774
1.40893
1.41008
1.41116
1.41216
1.41305
1.41381
1.4144
1.41479
1.41492
1.41472
1.41413
1.41311
1.41162
1.40971
1.40748
1.40511
1.40285
1.40094
1.39945
1.39825
1.39722
1.39615
1.3949
1.39339
1.39168
1.38985
1.38801
1.38619
1.38433
1.3824
1.38045
1.37862
1.37707
1.37593
1.3753
1.37524
1.37577
1.37697
1.37895
1.39033
1.39251
1.3941
1.39564
1.39718
1.39867
1.40012
1.40154
1.40293
1.40429
1.40563
1.40693
1.40818
1.40937
1.41048
1.41148
1.41235
1.41305
1.41353
1.41374
1.4136
1.41306
1.41205
1.41057
1.40865
1.4064
1.40401
1.40172
1.39976
1.39824
1.397
1.39596
1.39489
1.39364
1.39215
1.39046
1.38867
1.38688
1.38511
1.38332
1.38146
1.37959
1.37784
1.37637
1.37535
1.37487
1.37498
1.37574
1.37722
1.37957
1.38983
1.39163
1.39279
1.39405
1.39539
1.39673
1.39809
1.39946
1.40084
1.40221
1.40357
1.40492
1.40623
1.40749
1.40868
1.40978
1.41075
1.41155
1.41213
1.41242
1.41235
1.41185
1.41087
1.4094
1.40747
1.40522
1.40282
1.40052
1.39853
1.39698
1.39572
1.39467
1.3936
1.39234
1.39087
1.3892
1.38745
1.38571
1.38399
1.38225
1.38045
1.37863
1.37694
1.37554
1.37459
1.37421
1.37446
1.37538
1.37707
1.37971
1.38942
1.39104
1.39193
1.39294
1.39405
1.3952
1.3964
1.39765
1.39893
1.40025
1.40158
1.40292
1.40424
1.40554
1.40678
1.40795
1.409
1.40989
1.41056
1.41093
1.41093
1.41048
1.40952
1.40806
1.40615
1.40391
1.40152
1.39923
1.39724
1.39567
1.39439
1.39332
1.39227
1.39101
1.38954
1.38791
1.3862
1.3845
1.38282
1.38112
1.37935
1.37757
1.37591
1.37454
1.37363
1.37331
1.37365
1.37467
1.3765
1.37932
1.38903
1.3905
1.39113
1.39191
1.39281
1.39378
1.39482
1.39593
1.3971
1.39832
1.39959
1.40089
1.4022
1.4035
1.40477
1.40598
1.40709
1.40805
1.4088
1.40925
1.40931
1.40891
1.40799
1.40655
1.40466
1.40244
1.4001
1.39784
1.39586
1.39429
1.393
1.39194
1.39088
1.38963
1.38818
1.38657
1.3849
1.38325
1.38161
1.37993
1.37818
1.37641
1.37476
1.37339
1.37248
1.37217
1.37252
1.37359
1.37546
1.37835
1.38866
1.38998
1.39036
1.39091
1.39161
1.3924
1.39328
1.39423
1.39528
1.39639
1.39757
1.3988
1.40007
1.40135
1.40262
1.40386
1.40501
1.40602
1.40684
1.40735
1.40748
1.40712
1.40623
1.40482
1.40296
1.4008
1.39852
1.39632
1.39439
1.39284
1.39155
1.39049
1.38943
1.38821
1.38677
1.38519
1.38356
1.38195
1.38035
1.37869
1.37694
1.37516
1.37348
1.37207
1.37112
1.37077
1.37108
1.3721
1.37393
1.37677
1.38818
1.38935
1.3895
1.38983
1.39034
1.39096
1.39167
1.39249
1.39339
1.39439
1.39548
1.39663
1.39784
1.39908
1.40034
1.40157
1.40274
1.40379
1.40465
1.40522
1.40539
1.40508
1.40423
1.40286
1.40104
1.39895
1.39676
1.39466
1.3928
1.39129
1.39002
1.38897
1.38794
1.38674
1.38533
1.38377
1.38218
1.38061
1.37903
1.37739
1.37563
1.37382
1.3721
1.37062
1.36958
1.36913
1.36933
1.37023
1.3719
1.37456
1.38754
1.38853
1.38847
1.38861
1.38895
1.3894
1.38997
1.39064
1.39142
1.3923
1.39328
1.39435
1.39548
1.39667
1.39789
1.3991
1.40027
1.40133
1.40222
1.40282
1.40304
1.40277
1.40196
1.40063
1.39887
1.39687
1.3948
1.39284
1.39109
1.38966
1.38842
1.38739
1.38638
1.38522
1.38385
1.38233
1.38076
1.37922
1.37766
1.37602
1.37425
1.3724
1.3706
1.36903
1.36786
1.36726
1.36729
1.36797
1.36938
1.37172
1.38666
1.38748
1.38723
1.38721
1.3874
1.3877
1.38813
1.38867
1.38932
1.39009
1.39097
1.39194
1.393
1.39412
1.39528
1.39646
1.3976
1.39866
1.39955
1.40017
1.40041
1.40017
1.3994
1.39812
1.39644
1.39455
1.39264
1.39084
1.38925
1.38792
1.38674
1.38574
1.38477
1.38365
1.38233
1.38086
1.37933
1.3778
1.37625
1.37461
1.37281
1.3709
1.36901
1.36731
1.36598
1.36518
1.36497
1.36536
1.3664
1.36828
1.38552
1.38618
1.38579
1.38562
1.38567
1.38584
1.38614
1.38655
1.38709
1.38775
1.38852
1.3894
1.39037
1.39141
1.39251
1.39363
1.39474
1.39576
1.39663
1.39725
1.3975
1.39728
1.39655
1.39532
1.39373
1.39198
1.39025
1.38867
1.38727
1.38607
1.38498
1.38403
1.3831
1.38204
1.38079
1.37938
1.37788
1.37637
1.37482
1.37315
1.3713
1.36932
1.36732
1.36546
1.36394
1.3629
1.36239
1.36241
1.36298
1.36426
1.3841
1.38465
1.38414
1.38384
1.38377
1.38383
1.384
1.3843
1.38473
1.38528
1.38594
1.38672
1.3876
1.38856
1.38959
1.39064
1.39168
1.39266
1.39349
1.39407
1.39431
1.3941
1.3934
1.39223
1.39075
1.38916
1.38765
1.3863
1.38514
1.38412
1.38315
1.38226
1.38138
1.38039
1.37922
1.37788
1.37644
1.37494
1.37338
1.37167
1.36977
1.36769
1.36555
1.36351
1.36176
1.36044
1.35958
1.35915
1.35915
1.35969
1.38243
1.38287
1.38228
1.38188
1.38171
1.38166
1.38172
1.38192
1.38223
1.38267
1.38324
1.38392
1.3847
1.38558
1.38652
1.3875
1.38846
1.38936
1.39013
1.39066
1.39087
1.39065
1.38996
1.38886
1.38751
1.3861
1.38483
1.38377
1.38287
1.38207
1.38124
1.38044
1.37962
1.3787
1.37762
1.37637
1.37499
1.37353
1.37195
1.3702
1.36822
1.36603
1.36373
1.36149
1.35947
1.35782
1.35656
1.35562
1.35495
1.35465
1.38061
1.38093
1.38025
1.37977
1.3795
1.37935
1.37931
1.3794
1.37962
1.37996
1.38042
1.381
1.38169
1.38247
1.38332
1.38421
1.38509
1.3859
1.38658
1.38704
1.38718
1.38693
1.38626
1.38524
1.38401
1.38282
1.38183
1.38108
1.38048
1.37993
1.37928
1.37858
1.37785
1.37701
1.37602
1.37486
1.37356
1.37213
1.37055
1.36876
1.3667
1.36438
1.3619
1.35942
1.35711
1.35509
1.35338
1.35186
1.35045
1.34918
1.37848
1.37872
1.37801
1.37748
1.37714
1.3769
1.37678
1.37678
1.3769
1.37714
1.3775
1.37798
1.37857
1.37925
1.38001
1.3808
1.38158
1.38229
1.38287
1.38323
1.38329
1.38299
1.38232
1.38137
1.3803
1.37934
1.37866
1.37825
1.37798
1.3777
1.37726
1.3767
1.37606
1.37532
1.37443
1.37337
1.37214
1.37075
1.36919
1.36736
1.36522
1.36277
1.3601
1.35737
1.35473
1.35232
1.35011
1.34796
1.34573
1.3434
1.37619
1.37635
1.37563
1.37505
1.37465
1.37435
1.37415
1.37406
1.37409
1.37423
1.37449
1.37487
1.37536
1.37594
1.37659
1.37728
1.37795
1.37855
1.37901
1.37925
1.37922
1.37885
1.37818
1.3773
1.3764
1.37571
1.37535
1.37531
1.37539
1.37541
1.37521
1.37481
1.37429
1.37365
1.37286
1.3719
1.37075
1.36941
1.36786
1.36601
1.36381
1.36123
1.35837
1.35537
1.3524
1.34956
1.34682
1.344
1.3409
1.33743
1.37378
1.37388
1.37315
1.37254
1.37209
1.37173
1.37145
1.37128
1.37121
1.37126
1.37142
1.37169
1.37207
1.37255
1.37309
1.37366
1.37422
1.37469
1.37503
1.37514
1.37499
1.37455
1.37386
1.37305
1.37235
1.37194
1.37195
1.3723
1.37275
1.37308
1.37313
1.37292
1.37253
1.37201
1.37134
1.37047
1.3694
1.36812
1.36659
1.36473
1.36246
1.35977
1.35673
1.35347
1.35015
1.34687
1.34358
1.34007
1.33605
1.33139
1.37128
1.37132
1.37059
1.36996
1.36947
1.36904
1.3687
1.36844
1.36829
1.36824
1.3683
1.36846
1.36873
1.36909
1.36951
1.36996
1.37039
1.37074
1.37093
1.37091
1.37063
1.3701
1.3694
1.36868
1.36818
1.36809
1.3685
1.36926
1.37009
1.37074
1.37105
1.37104
1.37082
1.37043
1.36988
1.36912
1.36813
1.3669
1.36539
1.36353
1.36121
1.35842
1.3552
1.35168
1.34802
1.34431
1.34046
1.33624
1.33129
1.32541
1.36874
1.36869
1.36797
1.36733
1.36679
1.36632
1.36591
1.36558
1.36534
1.36519
1.36514
1.36519
1.36534
1.36557
1.36586
1.36618
1.36647
1.36668
1.36673
1.36657
1.36616
1.36555
1.36483
1.36421
1.36393
1.3642
1.36502
1.36622
1.36745
1.36841
1.36901
1.36921
1.36915
1.36892
1.3685
1.36785
1.36694
1.36577
1.36429
1.36243
1.36008
1.3572
1.35382
1.35006
1.34607
1.34192
1.33753
1.3326
1.32672
1.31962
1.36618
1.36605
1.36533
1.36468
1.36411
1.36358
1.36311
1.3627
1.36237
1.36212
1.36196
1.36189
1.3619
1.362
1.36214
1.36231
1.36246
1.36251
1.36241
1.36211
1.36158
1.36089
1.36018
1.35969
1.35966
1.3603
1.36157
1.36322
1.36484
1.36614
1.36701
1.36743
1.36756
1.36749
1.36721
1.36668
1.36586
1.36476
1.36331
1.36146
1.35908
1.35613
1.35261
1.34863
1.34432
1.33977
1.33485
1.32923
1.32245
1.31416
1.36364
1.36341
1.3627
1.36204
1.36143
1.36085
1.36032
1.35983
1.35941
1.35905
1.35877
1.35856
1.35843
1.35836
1.35835
1.35835
1.35833
1.35822
1.35797
1.35753
1.3569
1.35616
1.35549
1.35514
1.35541
1.35644
1.35817
1.36028
1.36232
1.36394
1.36509
1.36574
1.36606
1.36615
1.36602
1.36562
1.36491
1.36388
1.36248
1.36064
1.35826
1.35525
1.35161
1.34743
1.34284
1.33789
1.33247
1.3262
1.31857
1.30914
1.36114
1.36081
1.3601
1.35943
1.35878
1.35815
1.35755
1.35698
1.35646
1.35598
1.35557
1.35521
1.35491
1.35466
1.35445
1.35427
1.35406
1.35378
1.35338
1.35281
1.35211
1.35135
1.35076
1.35063
1.35122
1.35268
1.35489
1.35745
1.35989
1.36183
1.36327
1.36415
1.36466
1.36492
1.36495
1.36469
1.36409
1.36314
1.36181
1.36001
1.35763
1.35459
1.35086
1.34651
1.34166
1.33636
1.33048
1.32361
1.31519
1.3047
1.35868
1.35824
1.35755
1.35687
1.35619
1.3555
1.35482
1.35416
1.35352
1.35291
1.35234
1.35181
1.35131
1.35086
1.35044
1.35004
1.34963
1.34917
1.34862
1.34795
1.3472
1.34649
1.34605
1.34618
1.34715
1.34907
1.35175
1.35476
1.35758
1.35985
1.36156
1.36268
1.36338
1.36382
1.364
1.36389
1.36342
1.36257
1.36132
1.35957
1.35723
1.35418
1.35039
1.34591
1.34084
1.33523
1.32894
1.32153
1.3124
1.30096
1.35632
1.35573
1.35506
1.35438
1.35366
1.3529
1.35214
1.35136
1.35059
1.34983
1.34907
1.34833
1.34762
1.34693
1.34627
1.34563
1.34501
1.34437
1.34368
1.34294
1.3422
1.3416
1.34139
1.34186
1.34326
1.34566
1.34881
1.35225
1.35542
1.35799
1.35998
1.36134
1.36224
1.36285
1.36319
1.36323
1.3629
1.36217
1.36101
1.35935
1.35707
1.35405
1.35023
1.34566
1.34042
1.33455
1.32789
1.32003
1.31029
1.29803
1.3541
1.35334
1.35269
1.35199
1.35122
1.35038
1.3495
1.34859
1.34765
1.3467
1.34572
1.34475
1.34378
1.34283
1.34191
1.34103
1.34018
1.33936
1.33856
1.33779
1.33713
1.33673
1.33683
1.33773
1.33962
1.34251
1.34612
1.34994
1.35344
1.35628
1.35854
1.36013
1.36123
1.36201
1.36253
1.36273
1.36255
1.36195
1.36091
1.35935
1.35716
1.3542
1.3504
1.34578
1.34042
1.33434
1.3274
1.31916
1.30893
1.296
1.35204
1.35109
1.35045
1.34973
1.34887
1.34793
1.34691
1.34583
1.34468
1.34349
1.34226
1.34101
1.33976
1.33853
1.33734
1.33621
1.33515
1.33418
1.3333
1.33257
1.33206
1.33195
1.33246
1.33386
1.33629
1.33969
1.34372
1.34788
1.35165
1.35473
1.35723
1.35905
1.36035
1.36132
1.36201
1.36238
1.36236
1.36191
1.36101
1.35959
1.35751
1.35465
1.35092
1.3463
1.34087
1.33465
1.3275
1.31897
1.30836
1.29493
1.35016
1.349
1.34834
1.34758
1.34662
1.34552
1.34432
1.34301
1.34161
1.34014
1.33863
1.33708
1.33553
1.33401
1.33255
1.33119
1.32996
1.32887
1.32799
1.32735
1.32709
1.32736
1.32838
1.33035
1.33335
1.33724
1.34165
1.34609
1.35008
1.35335
1.35606
1.35811
1.35961
1.36077
1.36165
1.3622
1.36235
1.36207
1.36132
1.36006
1.35814
1.35542
1.35178
1.34722
1.34178
1.33548
1.32819
1.31947
1.30862
1.29484
1.34844
1.34703
1.34635
1.34552
1.34441
1.34312
1.34168
1.34009
1.3384
1.33661
1.33478
1.33292
1.33108
1.32929
1.3276
1.32605
1.32469
1.32356
1.32274
1.3223
1.32237
1.32312
1.32471
1.3273
1.33086
1.33521
1.33995
1.3446
1.34874
1.35216
1.35505
1.35729
1.35899
1.36035
1.36142
1.36217
1.36251
1.36241
1.36185
1.36077
1.35903
1.35649
1.353
1.34855
1.34315
1.33685
1.3295
1.32068
1.30971
1.29577
1.34685
1.34515
1.34443
1.34348
1.34217
1.34062
1.33889
1.337
1.33498
1.33287
1.33072
1.32857
1.32646
1.32445
1.32258
1.32091
1.31949
1.31841
1.31774
1.31759
1.31809
1.31937
1.32159
1.32479
1.32889
1.33363
1.33862
1.34341
1.34764
1.35116
1.35419
1.35661
1.3585
1.36005
1.36133
1.36228
1.36283
1.36294
1.36258
1.36172
1.3602
1.35787
1.35458
1.35028
1.34499
1.33874
1.33141
1.3226
1.31163
1.29769
1.34536
1.3433
1.34249
1.34137
1.33979
1.33794
1.33589
1.33366
1.33132
1.3289
1.32648
1.32409
1.32178
1.31962
1.31766
1.31596
1.31459
1.31365
1.31324
1.31346
1.31444
1.31631
1.31913
1.32291
1.32747
1.33253
1.33767
1.34252
1.34678
1.35035
1.35348
1.35606
1.35813
1.35988
1.36136
1.36253
1.36331
1.36364
1.36352
1.3629
1.36164
1.35956
1.35651
1.35241
1.34729
1.34116
1.33393
1.32521
1.31436
1.30059
1.34388
1.3414
1.34042
1.33905
1.33716
1.33499
1.33262
1.33009
1.32747
1.32482
1.3222
1.31965
1.31724
1.31503
1.31308
1.31145
1.31025
1.30955
1.30947
1.31013
1.31163
1.31407
1.31746
1.32172
1.32663
1.33188
1.33708
1.34191
1.34615
1.34973
1.35293
1.35563
1.35787
1.35981
1.36152
1.36291
1.36392
1.3645
1.36465
1.3643
1.36333
1.36154
1.35876
1.35493
1.35003
1.34409
1.33702
1.32849
1.31788
1.30442
1.34218
1.3392
1.33799
1.33633
1.33415
1.3317
1.32909
1.32635
1.32357
1.32079
1.31808
1.3155
1.31311
1.31096
1.30912
1.30769
1.30674
1.30637
1.3067
1.30782
1.30984
1.31279
1.31664
1.32124
1.32636
1.33167
1.33682
1.34156
1.34572
1.34927
1.3525
1.35533
1.35772
1.35986
1.36178
1.36341
1.36467
1.36552
1.36595
1.3659
1.36525
1.36378
1.36133
1.3578
1.35318
1.34749
1.34067
1.3324
1.32213
1.30912
1.33922
1.33611
1.33482
1.33303
1.3307
1.32814
1.32543
1.32264
1.31984
1.31708
1.31443
1.31194
1.30967
1.3077
1.3061
1.30494
1.30432
1.30435
1.3051
1.30669
1.30915
1.31251
1.31667
1.32146
1.32662
1.33184
1.33685
1.34143
1.34545
1.34895
1.3522
1.35512
1.35768
1.36
1.36214
1.36401
1.36553
1.36667
1.3674
1.36769
1.36738
1.36627
1.36419
1.36101
1.35672
1.35134
1.34482
1.3369
1.32706
1.31461
1.33604
1.33275
1.33135
1.32948
1.32714
1.3246
1.32197
1.31928
1.31661
1.31401
1.31154
1.30926
1.30723
1.30554
1.30424
1.30344
1.3032
1.30363
1.3048
1.30678
1.3096
1.31321
1.31751
1.3223
1.32734
1.33235
1.33711
1.34146
1.34533
1.34874
1.352
1.35501
1.35772
1.36023
1.36258
1.3647
1.36649
1.36793
1.369
1.36964
1.3697
1.36898
1.36729
1.3645
1.3606
1.35559
1.34944
1.34194
1.33261
1.32083
1.33206
1.32894
1.32767
1.32593
1.32378
1.32146
1.31906
1.31663
1.31422
1.31189
1.3097
1.30772
1.30601
1.30466
1.30372
1.30329
1.30344
1.30424
1.30577
1.30805
1.31107
1.31478
1.31904
1.32366
1.32843
1.33311
1.33754
1.34162
1.34529
1.34861
1.35186
1.35497
1.35782
1.36053
1.3631
1.36547
1.36755
1.3693
1.37071
1.37172
1.37217
1.37187
1.3706
1.36825
1.36477
1.36019
1.35447
1.34744
1.3387
1.32766
1.32745
1.32512
1.32427
1.3229
1.32112
1.31916
1.31711
1.31501
1.31294
1.31095
1.3091
1.30746
1.30611
1.30511
1.30454
1.30447
1.30497
1.30609
1.30787
1.31032
1.31341
1.31704
1.3211
1.3254
1.32977
1.33403
1.33808
1.34184
1.34531
1.34853
1.35177
1.35496
1.35797
1.36088
1.36368
1.3663
1.36867
1.37074
1.37251
1.3739
1.37477
1.3749
1.37408
1.37219
1.36919
1.36508
1.35985
1.35335
1.34525
1.33501
1.32676
1.3252
1.32343
1.3218
1.3201
1.31834
1.31653
1.31472
1.31295
1.31128
1.30976
1.30847
1.30746
1.30681
1.30657
1.30682
1.30759
1.30893
1.31086
1.31335
1.31635
1.31977
1.32349
1.32736
1.33125
1.33504
1.33866
1.3421
1.34535
1.34846
1.35168
1.35498
1.35815
1.36125
1.36428
1.36717
1.36983
1.37225
1.37438
1.37617
1.37746
1.37803
1.37769
1.3763
1.3738
1.37021
1.36551
1.35959
1.35217
1.34277
1.32111
1.32363
1.32275
1.32166
1.32031
1.31879
1.3172
1.31562
1.31411
1.31272
1.31151
1.31053
1.30984
1.30949
1.30954
1.31003
1.311
1.31247
1.31442
1.31682
1.31961
1.32271
1.32601
1.32938
1.33274
1.33603
1.33923
1.34233
1.34536
1.34837
1.35159
1.35498
1.35831
1.36162
1.3649
1.36805
1.37103
1.37378
1.37629
1.37849
1.38021
1.38124
1.38139
1.38051
1.37855
1.37551
1.37138
1.36609
1.35938
1.35086
1.33108
1.32836
1.32586
1.32386
1.32203
1.32033
1.31876
1.31731
1.31602
1.31489
1.31397
1.31329
1.31288
1.3128
1.31308
1.31375
1.31482
1.31631
1.31818
1.32041
1.32291
1.32562
1.32844
1.3313
1.33414
1.33694
1.33972
1.34251
1.34533
1.34824
1.35145
1.35495
1.35845
1.36197
1.36549
1.36892
1.37221
1.37531
1.37821
1.38082
1.38297
1.38447
1.38512
1.38478
1.38338
1.38093
1.37741
1.37277
1.3668
1.35917
1.32903
1.32738
1.32562
1.32406
1.32263
1.32131
1.3201
1.31901
1.31806
1.31728
1.31668
1.3163
1.31617
1.31632
1.31678
1.31755
1.31866
1.32009
1.32182
1.3238
1.32597
1.32826
1.33061
1.33297
1.33533
1.33768
1.34008
1.34258
1.34522
1.34804
1.35126
1.35487
1.35854
1.36227
1.36604
1.36976
1.37336
1.37682
1.3801
1.38312
1.38572
1.38769
1.38884
1.38905
1.38824
1.3864
1.38352
1.37956
1.37435
1.36761
1.32778
1.32645
1.32505
1.32394
1.32296
1.32207
1.32128
1.32059
1.32002
1.31959
1.31932
1.31923
1.31934
1.31968
1.32026
1.3211
1.32218
1.3235
1.32503
1.32674
1.32856
1.33045
1.33236
1.33428
1.3362
1.33817
1.34025
1.34251
1.345
1.34776
1.351
1.35472
1.35856
1.36251
1.36653
1.37053
1.37445
1.37827
1.38193
1.38537
1.3884
1.39084
1.39251
1.39327
1.39306
1.39186
1.38965
1.38639
1.38195
1.3761
1.32536
1.32443
1.3239
1.32346
1.32299
1.32255
1.32216
1.32186
1.32165
1.32155
1.32158
1.32175
1.32207
1.32256
1.32323
1.32408
1.3251
1.32628
1.3276
1.32902
1.33052
1.33204
1.33358
1.33512
1.3367
1.33836
1.34018
1.34226
1.34464
1.34736
1.35064
1.35448
1.3585
1.36267
1.36693
1.37122
1.37546
1.37962
1.38367
1.38751
1.39098
1.3939
1.39608
1.3974
1.3978
1.39726
1.39574
1.3932
1.38953
1.38455
1.32186
1.32188
1.32224
1.32232
1.32231
1.32232
1.32237
1.32247
1.32263
1.32287
1.32318
1.3236
1.32411
1.32472
1.32544
1.32627
1.32721
1.32824
1.32935
1.33052
1.33172
1.33294
1.33417
1.33542
1.33673
1.33817
1.33982
1.34178
1.3441
1.34682
1.35017
1.35415
1.35835
1.36274
1.36725
1.3718
1.37635
1.38086
1.38529
1.38953
1.39343
1.39681
1.3995
1.40139
1.40241
1.40254
1.40172
1.39991
1.39702
1.39289
1.32003
1.32042
1.32072
1.32088
1.32115
1.32149
1.3219
1.32235
1.32285
1.32339
1.32398
1.32461
1.32528
1.326
1.32675
1.32756
1.3284
1.32929
1.33021
1.33115
1.33211
1.33309
1.33409
1.33513
1.33627
1.33757
1.33913
1.34104
1.34336
1.34613
1.34957
1.35371
1.3581
1.3627
1.36745
1.37228
1.37712
1.38196
1.38675
1.39138
1.39571
1.39954
1.40274
1.40519
1.40684
1.40764
1.40754
1.40648
1.40436
1.40106
1.31859
1.31851
1.31873
1.31908
1.31956
1.32015
1.32082
1.32155
1.32233
1.32312
1.32393
1.32474
1.32554
1.32633
1.3271
1.32786
1.32862
1.32937
1.33013
1.33089
1.33166
1.33246
1.3333
1.33422
1.33526
1.33651
1.33806
1.34
1.34238
1.34525
1.34883
1.35315
1.35774
1.36256
1.36754
1.37262
1.37775
1.38291
1.38804
1.39305
1.39778
1.40206
1.40576
1.40877
1.41105
1.41253
1.41315
1.41283
1.41148
1.40898
1.31575
1.31507
1.31546
1.31606
1.31683
1.31775
1.31877
1.31983
1.32091
1.32196
1.32298
1.32394
1.32485
1.32569
1.32647
1.32719
1.32786
1.3285
1.32912
1.32974
1.33038
1.33106
1.33182
1.33268
1.33371
1.33499
1.3366
1.33863
1.34114
1.34415
1.34791
1.35245
1.35725
1.36229
1.36749
1.37281
1.37821
1.38367
1.38914
1.39451
1.39963
1.40434
1.40852
1.41209
1.415
1.41716
1.41851
1.41893
1.41834
1.41661
1.30789
1.30652
1.30861
1.31042
1.31216
1.31389
1.31555
1.31711
1.31856
1.3199
1.32112
1.32223
1.32322
1.3241
1.32487
1.32554
1.32614
1.3267
1.32722