/*--------------------------------*- C++ -*----------------------------------*\
  =========                 |
  \\      /  F ield         | OpenFOAM: The Open Source CFD Toolbox
   \\    /   O peration     | Website:  https://openfoam.org
    \\  /    A nd           | Version:  9
     \\/     M anipulation  |
\*---------------------------------------------------------------------------*/
FoamFile
{
    format      ascii;
    class       surfaceScalarField;
    location    "0.09";
    object      phi;
}
// * * * * * * * * * * * * * * * * * * * * * * * * * * * * * * * * * * * * * //

dimensions      [0 3 -1 0 0 0 0];

internalField   nonuniform List<scalar> 
9850
(
4.08817e-07
2.17321e-06
4.09022e-07
2.27153e-06
4.09212e-07
2.3799e-06
4.09275e-07
2.49826e-06
4.09108e-07
2.62712e-06
4.08624e-07
2.76739e-06
4.07763e-07
2.92016e-06
4.06507e-07
3.08664e-06
4.04891e-07
3.26798e-06
4.03016e-07
3.46516e-06
4.01058e-07
3.6787e-06
3.9926e-07
3.90841e-06
3.9791e-07
4.15306e-06
3.97279e-07
4.41016e-06
3.97522e-07
4.67597e-06
3.9853e-07
4.94614e-06
3.99788e-07
5.21693e-06
4.00285e-07
5.48745e-06
3.98602e-07
5.76223e-06
3.93265e-07
6.05294e-06
3.83363e-07
6.37727e-06
3.69203e-07
6.75277e-06
3.52612e-07
7.18562e-06
3.36464e-07
7.6587e-06
3.23372e-07
8.12793e-06
3.14092e-07
8.53595e-06
3.06685e-07
8.84315e-06
2.97452e-07
9.0602e-06
2.83688e-07
9.25505e-06
2.66428e-07
9.5187e-06
2.48068e-07
1.15564e-05
2.38736e-07
1.15967e-05
2.37584e-07
1.16821e-05
2.38076e-07
1.17607e-05
2.33738e-07
1.18372e-05
2.22205e-07
1.19196e-05
2.04917e-07
1.19932e-05
1.84278e-07
1.20407e-05
1.61552e-07
1.20665e-05
1.3683e-07
1.20891e-05
1.10059e-07
1.21185e-05
8.16674e-08
1.21481e-05
5.247e-08
1.2164e-05
2.3281e-08
1.21568e-05
-5.48744e-09
1.21254e-05
-3.42359e-08
1.20795e-05
-6.4328e-08
1.20395e-05
-9.75064e-08
1.203e-05
-1.3463e-07
1.20657e-05
1.21415e-05
4.09092e-07
2.17314e-06
4.09222e-07
2.2714e-06
4.093e-07
2.37982e-06
4.09215e-07
2.49834e-06
4.08861e-07
2.62747e-06
4.08154e-07
2.76809e-06
4.07039e-07
2.92128e-06
4.05506e-07
3.08818e-06
4.03605e-07
3.26989e-06
4.01455e-07
3.46731e-06
3.99255e-07
3.6809e-06
3.97274e-07
3.91039e-06
3.95821e-07
4.15452e-06
3.95181e-07
4.4108e-06
3.95509e-07
4.67565e-06
3.96681e-07
4.94497e-06
3.98152e-07
5.21546e-06
3.98886e-07
5.48672e-06
3.9746e-07
5.76365e-06
3.92436e-07
6.05796e-06
3.82975e-07
6.38673e-06
3.69456e-07
6.76629e-06
3.53713e-07
7.20136e-06
3.38511e-07
7.6739e-06
3.26244e-07
8.1402e-06
3.17447e-07
8.54475e-06
3.10117e-07
8.85048e-06
3.00782e-07
9.06953e-06
2.87179e-07
9.26865e-06
2.70679e-07
9.5352e-06
2.53846e-07
1.15733e-05
2.45997e-07
1.16046e-05
2.45745e-07
1.16824e-05
2.46551e-07
1.17599e-05
2.42278e-07
1.18414e-05
2.30885e-07
1.1931e-05
2.1396e-07
1.20101e-05
1.93901e-07
1.20608e-05
1.71907e-07
1.20885e-05
1.48033e-07
1.21129e-05
1.22245e-07
1.21443e-05
9.50243e-08
1.21753e-05
6.72422e-08
1.21918e-05
3.97637e-08
1.21843e-05
1.30347e-08
1.21521e-05
-1.33253e-08
1.21058e-05
-4.06296e-08
1.20668e-05
-7.04833e-08
1.20599e-05
-1.03587e-07
1.20989e-05
1.21768e-05
4.08789e-07
2.17309e-06
4.08839e-07
2.27135e-06
4.08794e-07
2.37987e-06
4.08544e-07
2.49859e-06
4.07987e-07
2.62803e-06
4.0704e-07
2.76904e-06
4.05656e-07
2.92266e-06
4.03837e-07
3.09e-06
4.01649e-07
3.27207e-06
3.99235e-07
3.46972e-06
3.96818e-07
3.68331e-06
3.94692e-07
3.91252e-06
3.93189e-07
4.15602e-06
3.92609e-07
4.41138e-06
3.93102e-07
4.67515e-06
3.94525e-07
4.94354e-06
3.96305e-07
5.21368e-06
3.97375e-07
5.48565e-06
3.96309e-07
5.76472e-06
3.91708e-07
6.06256e-06
3.82801e-07
6.39564e-06
3.70031e-07
6.77906e-06
3.55228e-07
7.21616e-06
3.41035e-07
7.68809e-06
3.29633e-07
8.1516e-06
3.21348e-07
8.55303e-06
3.14141e-07
8.85769e-06
3.04782e-07
9.07889e-06
2.9143e-07
9.28201e-06
2.75744e-07
9.55089e-06
2.60398e-07
1.15886e-05
2.53894e-07
1.16111e-05
2.54379e-07
1.16819e-05
2.55373e-07
1.17589e-05
2.51101e-07
1.18457e-05
2.39844e-07
1.19423e-05
2.23318e-07
1.20267e-05
2.03888e-07
1.20802e-05
1.82673e-07
1.21097e-05
1.59695e-07
1.21359e-05
1.34938e-07
1.2169e-05
1.08932e-07
1.22013e-05
8.25991e-08
1.22182e-05
5.6849e-08
1.221e-05
3.21614e-08
1.21768e-05
8.17938e-09
1.21298e-05
-1.63689e-08
1.20913e-05
-4.29622e-08
1.20864e-05
-7.21075e-08
1.2128e-05
1.22073e-05
4.07822e-07
2.17308e-06
4.07793e-07
2.27138e-06
4.07621e-07
2.38004e-06
4.07198e-07
2.49902e-06
4.06423e-07
2.62881e-06
4.05221e-07
2.77024e-06
4.03555e-07
2.92433e-06
4.01443e-07
3.09211e-06
3.98972e-07
3.27454e-06
3.96309e-07
3.47238e-06
3.93705e-07
3.68592e-06
3.91482e-07
3.91474e-06
3.89993e-07
4.15751e-06
3.89548e-07
4.41182e-06
3.90293e-07
4.67441e-06
3.92062e-07
4.94178e-06
3.94247e-07
5.2115e-06
3.95754e-07
5.48414e-06
3.95155e-07
5.76532e-06
3.91087e-07
6.06663e-06
3.82846e-07
6.40388e-06
3.70929e-07
6.79098e-06
3.5715e-07
7.22994e-06
3.44028e-07
7.70121e-06
3.3353e-07
8.1621e-06
3.25792e-07
8.56077e-06
3.18765e-07
8.86471e-06
3.09468e-07
9.08819e-06
2.96459e-07
9.29501e-06
2.81631e-07
9.56571e-06
2.67715e-07
1.16025e-05
2.62404e-07
1.16164e-05
2.63447e-07
1.16809e-05
2.64489e-07
1.17579e-05
2.60145e-07
1.18501e-05
2.49016e-07
1.19534e-05
2.32927e-07
1.20427e-05
2.14183e-07
1.2099e-05
1.93803e-07
1.21301e-05
1.71759e-07
1.2158e-05
1.48055e-07
1.21927e-05
1.23275e-07
1.22261e-05
9.84017e-08
1.2243e-05
7.43891e-08
1.2234e-05
5.17346e-08
1.21995e-05
3.00904e-08
1.21515e-05
8.22842e-09
1.21132e-05
-1.521e-08
1.21099e-05
-4.05378e-08
1.21533e-05
1.22333e-05
4.06143e-07
2.17308e-06
4.06048e-07
2.27148e-06
4.05753e-07
2.38034e-06
4.05148e-07
2.49962e-06
4.04141e-07
2.62981e-06
4.02666e-07
2.77172e-06
4.00702e-07
2.92629e-06
3.9829e-07
3.09452e-06
3.95539e-07
3.2773e-06
3.92645e-07
3.47528e-06
3.89889e-07
3.68867e-06
3.87622e-07
3.91701e-06
3.86217e-07
4.15891e-06
3.85992e-07
4.41205e-06
3.87082e-07
4.67332e-06
3.89295e-07
4.93956e-06
3.91986e-07
5.2088e-06
3.94034e-07
5.4821e-06
3.94009e-07
5.76534e-06
3.90583e-07
6.07005e-06
3.83117e-07
6.41135e-06
3.72153e-07
6.80194e-06
3.5948e-07
7.24261e-06
3.47484e-07
7.71321e-06
3.37928e-07
8.17165e-06
3.30777e-07
8.56792e-06
3.23992e-07
8.8715e-06
3.14847e-07
9.09733e-06
3.02267e-07
9.30759e-06
2.88329e-07
9.57965e-06
2.75769e-07
1.16151e-05
2.71487e-07
1.16207e-05
2.72908e-07
1.16794e-05
2.73859e-07
1.17569e-05
2.69369e-07
1.18545e-05
2.58361e-07
1.19644e-05
2.42743e-07
1.20584e-05
2.24735e-07
1.2117e-05
2.05234e-07
1.21496e-05
1.84155e-07
1.2179e-05
1.61523e-07
1.22154e-05
1.37978e-07
1.22496e-05
1.14558e-07
1.22665e-05
9.22566e-08
1.22563e-05
7.15866e-08
1.22201e-05
5.22106e-08
1.21708e-05
3.29425e-08
1.21324e-05
1.2521e-08
1.21303e-05
-9.20823e-09
1.21751e-05
1.22549e-05
4.03787e-07
2.1731e-06
4.03637e-07
2.27163e-06
4.03216e-07
2.38076e-06
4.02409e-07
2.50043e-06
4.01138e-07
2.63109e-06
3.99359e-07
2.7735e-06
3.97075e-07
2.92858e-06
3.94348e-07
3.09725e-06
3.9132e-07
3.28032e-06
3.88216e-07
3.47838e-06
3.8535e-07
3.69154e-06
3.83099e-07
3.91926e-06
3.81855e-07
4.16015e-06
3.81939e-07
4.41196e-06
3.83472e-07
4.67179e-06
3.8623e-07
4.9368e-06
3.8953e-07
5.2055e-06
3.92221e-07
5.4794e-06
3.92875e-07
5.76469e-06
3.90202e-07
6.07273e-06
3.83619e-07
6.41793e-06
3.73708e-07
6.81185e-06
3.62219e-07
7.2541e-06
3.51404e-07
7.72402e-06
3.42828e-07
8.18023e-06
3.36305e-07
8.57444e-06
3.29826e-07
8.87798e-06
3.20918e-07
9.10624e-06
3.08841e-07
9.31967e-06
2.95808e-07
9.59269e-06
2.84518e-07
1.16264e-05
2.81101e-07
1.16241e-05
2.82724e-07
1.16778e-05
2.83449e-07
1.17562e-05
2.78744e-07
1.18592e-05
2.67845e-07
1.19753e-05
2.52726e-07
1.20735e-05
2.35495e-07
1.21342e-05
2.16908e-07
1.21682e-05
1.96819e-07
1.21991e-05
1.75269e-07
1.22369e-05
1.52953e-07
1.22719e-05
1.30961e-07
1.22884e-05
1.10322e-07
1.2277e-05
9.15701e-08
1.22389e-05
7.43757e-08
1.2188e-05
5.75863e-08
1.21492e-05
4.00191e-08
1.21479e-05
2.1643e-08
1.21934e-05
1.22727e-05
4.00829e-07
2.17312e-06
4.0061e-07
2.27185e-06
4.00029e-07
2.38134e-06
3.98975e-07
2.50148e-06
3.97392e-07
2.63267e-06
3.95265e-07
2.77563e-06
3.92627e-07
2.93122e-06
3.89572e-07
3.1003e-06
3.86271e-07
3.28362e-06
3.82985e-07
3.48167e-06
3.80057e-07
3.69447e-06
3.77891e-07
3.92143e-06
3.76896e-07
4.16115e-06
3.77388e-07
4.41147e-06
3.79469e-07
4.66971e-06
3.82877e-07
4.9334e-06
3.86889e-07
5.20149e-06
3.90326e-07
5.47597e-06
3.91762e-07
5.76325e-06
3.89948e-07
6.07454e-06
3.84356e-07
6.42352e-06
3.75594e-07
6.82061e-06
3.65368e-07
7.26433e-06
3.55788e-07
7.7336e-06
3.48231e-07
8.18779e-06
3.4238e-07
8.5803e-06
3.36269e-07
8.88409e-06
3.27678e-07
9.11483e-06
3.16166e-07
9.33118e-06
3.0404e-07
9.60481e-06
2.93921e-07
1.16365e-05
2.912e-07
1.16268e-05
2.92854e-07
1.16762e-05
2.93223e-07
1.17558e-05
2.88234e-07
1.18642e-05
2.77433e-07
1.19861e-05
2.62839e-07
1.20881e-05
2.46419e-07
1.21506e-05
2.28775e-07
1.21858e-05
2.09689e-07
1.22182e-05
1.89219e-07
1.22574e-05
1.68112e-07
1.2293e-05
1.47509e-07
1.2309e-05
1.28475e-07
1.2296e-05
1.1156e-07
1.22558e-05
9.64403e-08
1.22032e-05
8.19881e-08
1.21637e-05
6.7091e-08
1.21628e-05
5.18107e-08
1.22087e-05
1.22868e-05
3.97241e-07
2.1732e-06
3.96886e-07
2.2722e-06
3.9608e-07
2.38214e-06
3.94719e-07
2.50284e-06
3.92771e-07
2.63462e-06
3.90258e-07
2.77814e-06
3.87244e-07
2.93423e-06
3.83857e-07
3.10369e-06
3.80303e-07
3.28718e-06
3.76876e-07
3.48509e-06
3.73952e-07
3.69739e-06
3.71959e-07
3.92342e-06
3.71314e-07
4.1618e-06
3.72327e-07
4.41046e-06
3.75071e-07
4.66696e-06
3.79242e-07
4.92922e-06
3.84073e-07
5.19666e-06
3.88359e-07
5.47168e-06
3.90681e-07
5.76093e-06
3.89831e-07
6.07539e-06
3.85334e-07
6.42802e-06
3.77819e-07
6.82813e-06
3.68932e-07
7.27322e-06
3.60644e-07
7.74189e-06
3.54146e-07
8.19428e-06
3.4901e-07
8.58543e-06
3.43328e-07
8.88977e-06
3.35123e-07
9.12304e-06
3.24222e-07
9.34208e-06
3.12989e-07
9.61605e-06
3.03931e-07
1.16455e-05
3.01739e-07
1.1629e-05
3.03256e-07
1.16746e-05
3.03145e-07
1.1756e-05
2.97806e-07
1.18696e-05
2.87093e-07
1.19968e-05
2.73046e-07
1.21021e-05
2.5747e-07
1.21662e-05
2.40791e-07
1.22025e-05
2.22712e-07
1.22363e-05
2.03307e-07
1.22768e-05
1.83377e-07
1.2313e-05
1.64114e-07
1.23283e-05
1.46615e-07
1.23135e-05
1.31442e-07
1.2271e-05
1.18273e-07
1.22163e-05
1.06e-07
1.2176e-05
9.35735e-08
1.21752e-05
8.11256e-08
1.22212e-05
1.22977e-05
3.9261e-07
2.17336e-06
3.92066e-07
2.27275e-06
3.90991e-07
2.38322e-06
3.89297e-07
2.50454e-06
3.86976e-07
2.63694e-06
3.84077e-07
2.78104e-06
3.80702e-07
2.93761e-06
3.77014e-07
3.10738e-06
3.73258e-07
3.29093e-06
3.69764e-07
3.48859e-06
3.66939e-07
3.70022e-06
3.65231e-07
3.92513e-06
3.65063e-07
4.16196e-06
3.6673e-07
4.40879e-06
3.70268e-07
4.66342e-06
3.75325e-07
4.92417e-06
3.8109e-07
5.1909e-06
3.86332e-07
5.46644e-06
3.89647e-07
5.75762e-06
3.89868e-07
6.07517e-06
3.86572e-07
6.43131e-06
3.80399e-07
6.8343e-06
3.72931e-07
7.28068e-06
3.65989e-07
7.74883e-06
3.60592e-07
8.19968e-06
3.56212e-07
8.58981e-06
3.51011e-07
8.89497e-06
3.43247e-07
9.1308e-06
3.32986e-07
9.35234e-06
3.22614e-07
9.62642e-06
3.14497e-07
1.16537e-05
3.12668e-07
1.16308e-05
3.13889e-07
1.16734e-05
3.13183e-07
1.17567e-05
3.07434e-07
1.18753e-05
2.96799e-07
1.20074e-05
2.8332e-07
1.21156e-05
2.68615e-07
1.21809e-05
2.52916e-07
1.22182e-05
2.3584e-07
1.22534e-05
2.17478e-07
1.22951e-05
1.98682e-07
1.23318e-05
1.80697e-07
1.23463e-05
1.6465e-07
1.23295e-05
1.51112e-07
1.22845e-05
1.39759e-07
1.22277e-05
1.29499e-07
1.21862e-05
1.19335e-07
1.21854e-05
1.09454e-07
1.2231e-05
1.23058e-05
3.86414e-07
2.17358e-06
3.85686e-07
2.27347e-06
3.84338e-07
2.38457e-06
3.82319e-07
2.50656e-06
3.79648e-07
2.63961e-06
3.76403e-07
2.78428e-06
3.7272e-07
2.94129e-06
3.68802e-07
3.11129e-06
3.64933e-07
3.2948e-06
3.61482e-07
3.49204e-06
3.58887e-07
3.70281e-06
3.57612e-07
3.9264e-06
3.58079e-07
4.1615e-06
3.60558e-07
4.40631e-06
3.65041e-07
4.65894e-06
3.71125e-07
4.91808e-06
3.7795e-07
5.18407e-06
3.84266e-07
5.46012e-06
3.88683e-07
5.7532e-06
3.90086e-07
6.07377e-06
3.88099e-07
6.4333e-06
3.83366e-07
6.83903e-06
3.77395e-07
7.28665e-06
3.71856e-07
7.75437e-06
3.67598e-07
8.20394e-06
3.64008e-07
8.5934e-06
3.59329e-07
8.89965e-06
3.52044e-07
9.13809e-06
3.4243e-07
9.36196e-06
3.3287e-07
9.63598e-06
3.25566e-07
1.1661e-05
3.23936e-07
1.16325e-05
3.24714e-07
1.16726e-05
3.23306e-07
1.17581e-05
3.17095e-07
1.18815e-05
3.0653e-07
1.2018e-05
2.93639e-07
1.21285e-05
2.79825e-07
1.21947e-05
2.65113e-07
1.22329e-05
2.49029e-07
1.22695e-05
2.31677e-07
1.23125e-05
2.13965e-07
1.23495e-05
1.97186e-07
1.23631e-05
1.82498e-07
1.23442e-05
1.7048e-07
1.22965e-05
1.60802e-07
1.22374e-05
1.52383e-07
1.21946e-05
1.44269e-07
1.21935e-05
1.36692e-07
1.22386e-05
1.23112e-05
3.783e-07
2.17386e-06
3.77399e-07
2.27437e-06
3.75784e-07
2.38618e-06
3.73453e-07
2.50889e-06
3.70466e-07
2.6426e-06
3.66929e-07
2.78782e-06
3.63013e-07
2.9452e-06
3.58962e-07
3.11535e-06
3.55104e-07
3.29866e-06
3.51845e-07
3.4953e-06
3.49649e-07
3.70501e-06
3.48993e-07
3.92706e-06
3.50286e-07
4.1602e-06
3.53766e-07
4.40283e-06
3.59372e-07
4.65333e-06
3.66643e-07
4.91081e-06
3.7467e-07
5.17605e-06
3.82187e-07
5.45261e-06
3.87827e-07
5.74756e-06
3.90526e-07
6.07107e-06
3.89957e-07
6.43387e-06
3.86763e-07
6.84223e-06
3.82368e-07
7.29105e-06
3.78284e-07
7.75846e-06
3.75201e-07
8.20702e-06
3.72429e-07
8.59617e-06
3.68298e-07
8.90378e-06
3.61509e-07
9.14487e-06
3.52527e-07
9.37094e-06
3.43711e-07
9.64479e-06
3.37081e-07
1.16676e-05
3.35493e-07
1.16341e-05
3.35691e-07
1.16725e-05
3.33489e-07
1.17603e-05
3.26771e-07
1.18883e-05
3.16273e-07
1.20285e-05
3.03984e-07
1.21408e-05
2.91077e-07
1.22076e-05
2.77352e-07
1.22466e-05
2.62241e-07
1.22846e-05
2.4586e-07
1.23289e-05
2.29171e-07
1.23662e-05
2.13519e-07
1.23787e-05
2.00091e-07
1.23577e-05
1.89469e-07
1.23071e-05
1.81319e-07
1.22455e-05
1.74567e-07
1.22014e-05
1.68294e-07
1.21997e-05
1.62765e-07
1.22441e-05
1.23144e-05
3.67912e-07
2.17424e-06
3.66806e-07
2.27548e-06
3.64927e-07
2.38806e-06
3.62315e-07
2.5115e-06
3.5906e-07
2.64585e-06
3.55306e-07
2.79157e-06
3.51261e-07
2.94925e-06
3.47212e-07
3.11939e-06
3.43529e-07
3.30234e-06
3.40654e-07
3.49817e-06
3.39072e-07
3.70659e-06
3.39262e-07
3.92687e-06
3.41612e-07
4.15785e-06
3.46314e-07
4.39813e-06
3.53248e-07
4.6464e-06
3.61887e-07
4.90217e-06
3.71276e-07
5.16666e-06
3.80135e-07
5.44375e-06
3.87127e-07
5.74057e-06
3.91244e-07
6.06695e-06
3.92206e-07
6.43291e-06
3.90649e-07
6.84378e-06
3.87906e-07
7.29379e-06
3.85329e-07
7.76103e-06
3.83448e-07
8.2089e-06
3.8151e-07
8.59811e-06
3.77937e-07
8.90736e-06
3.71638e-07
9.15117e-06
3.63248e-07
9.37933e-06
3.55091e-07
9.65295e-06
3.48987e-07
1.16737e-05
3.47289e-07
1.16358e-05
3.46783e-07
1.1673e-05
3.43707e-07
1.17633e-05
3.3645e-07
1.18955e-05
3.26018e-07
1.20389e-05
3.14346e-07
1.21524e-05
3.02354e-07
1.22196e-05
2.89609e-07
1.22594e-05
2.75443e-07
1.22987e-05
2.59985e-07
1.23443e-05
2.44253e-07
1.23819e-05
2.29643e-07
1.23933e-05
2.17368e-07
1.23699e-05
2.08016e-07
1.23165e-05
2.01244e-07
1.22523e-05
1.95984e-07
1.22067e-05
1.91345e-07
1.22044e-05
1.87621e-07
1.22479e-05
1.23157e-05
3.54752e-07
2.17475e-06
3.5342e-07
2.27681e-06
3.51298e-07
2.39018e-06
3.48457e-07
2.51434e-06
3.45016e-07
2.64929e-06
3.41154e-07
2.79544e-06
3.37123e-07
2.95328e-06
3.33257e-07
3.12326e-06
3.29965e-07
3.30564e-06
3.27718e-07
3.50042e-06
3.27015e-07
3.70729e-06
3.28324e-07
3.92556e-06
3.32002e-07
4.15418e-06
3.38182e-07
4.39195e-06
3.46676e-07
4.63791e-06
3.56886e-07
4.89196e-06
3.67812e-07
5.15573e-06
3.78167e-07
5.43339e-06
3.86649e-07
5.73209e-06
3.92311e-07
6.06129e-06
3.94919e-07
6.4303e-06
3.95097e-07
6.84361e-06
3.94077e-07
7.29481e-06
3.93051e-07
7.76206e-06
3.92392e-07
8.20956e-06
3.9129e-07
8.59921e-06
3.88265e-07
8.91038e-06
3.82427e-07
9.15701e-06
3.74564e-07
9.38719e-06
3.66961e-07
9.66055e-06
3.61229e-07
1.16794e-05
3.59275e-07
1.16377e-05
3.57956e-07
1.16743e-05
3.53944e-07
1.17674e-05
3.46125e-07
1.19033e-05
3.35764e-07
1.20493e-05
3.2472e-07
1.21635e-05
3.13644e-07
1.22307e-05
3.01864e-07
1.22712e-05
2.88609e-07
1.2312e-05
2.7402e-07
1.23589e-05
2.59172e-07
1.23967e-05
2.45511e-07
1.2407e-05
2.34278e-07
1.23812e-05
2.26065e-07
1.23247e-05
2.20522e-07
1.22578e-05
2.16582e-07
1.22106e-05
2.13378e-07
1.22076e-05
2.11225e-07
1.225e-05
1.23153e-05
3.38317e-07
2.17539e-06
3.36777e-07
2.27835e-06
3.34458e-07
2.3925e-06
3.31463e-07
2.51734e-06
3.27943e-07
2.65281e-06
3.24121e-07
2.79926e-06
3.20295e-07
2.95711e-06
3.16843e-07
3.12671e-06
3.14211e-07
3.30827e-06
3.12891e-07
3.50174e-06
3.13382e-07
3.7068e-06
3.1613e-07
3.92281e-06
3.21442e-07
4.14886e-06
3.29385e-07
4.384e-06
3.39691e-07
4.6276e-06
3.51693e-07
4.87996e-06
3.64345e-07
5.14308e-06
3.7636e-07
5.42138e-06
3.86477e-07
5.72197e-06
3.93814e-07
6.05395e-06
3.98183e-07
6.42593e-06
4.00188e-07
6.8416e-06
4.00957e-07
7.29404e-06
4.01518e-07
7.7615e-06
4.0209e-07
8.20899e-06
4.01813e-07
8.59949e-06
3.99306e-07
8.91289e-06
3.93873e-07
9.16244e-06
3.86449e-07
9.39462e-06
3.79278e-07
9.66772e-06
3.73756e-07
1.1685e-05
3.71406e-07
1.16401e-05
3.69181e-07
1.16765e-05
3.64185e-07
1.17724e-05
3.55794e-07
1.19117e-05
3.45513e-07
1.20596e-05
3.35104e-07
1.21739e-05
3.2494e-07
1.22409e-05
3.14102e-07
1.2282e-05
3.01716e-07
1.23244e-05
2.87936e-07
1.23727e-05
2.73895e-07
1.24108e-05
2.61087e-07
1.24198e-05
2.50782e-07
1.23915e-05
2.43574e-07
1.23319e-05
2.39108e-07
1.22623e-05
2.36319e-07
1.22134e-05
2.34356e-07
1.22096e-05
2.33555e-07
1.22508e-05
1.23134e-05
3.18162e-07
2.17613e-06
3.16463e-07
2.28005e-06
3.14011e-07
2.39495e-06
3.10962e-07
2.52039e-06
3.0751e-07
2.65626e-06
3.03924e-07
2.80284e-06
3.00549e-07
2.96048e-06
2.97804e-07
3.12946e-06
2.9616e-07
3.30991e-06
2.96118e-07
3.50178e-06
2.98163e-07
3.70476e-06
3.02703e-07
3.91827e-06
3.09984e-07
4.14158e-06
3.19994e-07
4.37399e-06
3.32378e-07
4.61522e-06
3.46398e-07
4.86594e-06
3.60969e-07
5.12851e-06
3.74809e-07
5.40754e-06
3.86709e-07
5.71007e-06
3.95852e-07
6.0448e-06
4.02093e-07
6.41969e-06
4.06011e-07
6.83768e-06
4.08627e-07
7.29143e-06
4.10801e-07
7.75932e-06
4.12601e-07
8.20719e-06
4.13121e-07
8.59897e-06
4.1108e-07
8.91493e-06
4.05975e-07
9.16755e-06
3.98878e-07
9.40171e-06
3.92001e-07
9.6746e-06
3.86521e-07
1.16904e-05
3.83645e-07
1.16429e-05
3.80434e-07
1.16797e-05
3.74425e-07
1.17784e-05
3.65463e-07
1.19207e-05
3.55273e-07
1.20698e-05
3.45505e-07
1.21837e-05
3.36241e-07
1.22501e-05
3.26314e-07
1.22919e-05
3.14749e-07
1.23359e-05
3.01713e-07
1.23857e-05
2.88396e-07
1.24241e-05
2.76341e-07
1.24319e-05
2.66846e-07
1.2401e-05
2.60509e-07
1.23383e-05
2.56969e-07
1.22658e-05
2.55161e-07
1.22152e-05
2.54253e-07
1.22105e-05
2.54597e-07
1.22505e-05
1.23103e-05
2.93837e-07
2.17693e-06
2.92058e-07
2.28183e-06
2.89586e-07
2.39743e-06
2.86641e-07
2.52333e-06
2.8347e-07
2.65944e-06
2.80389e-07
2.80593e-06
2.77785e-07
2.96308e-06
2.76106e-07
3.13114e-06
2.75835e-07
3.31018e-06
2.77469e-07
3.50015e-06
2.81463e-07
3.70076e-06
2.88173e-07
3.91156e-06
2.97768e-07
4.13199e-06
3.10148e-07
4.36161e-06
3.2487e-07
4.60049e-06
3.41129e-07
4.84968e-06
3.57805e-07
5.11183e-06
3.73634e-07
5.39171e-06
3.87458e-07
5.69624e-06
3.98531e-07
6.03373e-06
4.06746e-07
6.41147e-06
4.12655e-07
6.83177e-06
4.17164e-07
7.28692e-06
4.20966e-07
7.75552e-06
4.23979e-07
8.20418e-06
4.25255e-07
8.5977e-06
4.23611e-07
8.91657e-06
4.18732e-07
9.17243e-06
4.1183e-07
9.40861e-06
4.05094e-07
9.68134e-06
3.99485e-07
1.1696e-05
3.95959e-07
1.16465e-05
3.917e-07
1.1684e-05
3.84664e-07
1.17854e-05
3.75144e-07
1.19302e-05
3.65061e-07
1.20798e-05
3.55933e-07
1.21928e-05
3.47547e-07
1.22585e-05
3.38493e-07
1.2301e-05
3.27695e-07
1.23467e-05
3.15335e-07
1.23981e-05
3.02655e-07
1.24368e-05
2.91251e-07
1.24433e-05
2.82446e-07
1.24098e-05
2.76845e-07
1.23439e-05
2.7408e-07
1.22686e-05
2.73087e-07
1.22162e-05
2.73051e-07
1.22105e-05
2.7434e-07
1.22492e-05
1.23063e-05
2.64982e-07
2.17772e-06
2.63256e-07
2.28356e-06
2.60954e-07
2.39973e-06
2.58359e-07
2.52593e-06
2.55772e-07
2.66202e-06
2.53551e-07
2.80815e-06
2.52112e-07
2.96452e-06
2.51917e-07
3.13133e-06
2.53451e-07
3.30865e-06
2.57186e-07
3.49641e-06
2.63536e-07
3.69441e-06
2.72787e-07
3.90231e-06
2.85027e-07
4.11975e-06
3.0006e-07
4.34658e-06
3.17358e-07
4.5832e-06
3.36052e-07
4.83099e-06
3.55002e-07
5.09289e-06
3.72964e-07
5.37374e-06
3.88842e-07
5.68037e-06
4.01957e-07
6.02062e-06
4.12238e-07
6.40119e-06
4.20204e-07
6.82381e-06
4.26642e-07
7.28048e-06
4.32075e-07
7.75009e-06
4.36277e-07
8.19997e-06
4.38254e-07
8.59572e-06
4.36922e-07
8.9179e-06
4.32149e-07
9.1772e-06
4.2529e-07
9.41547e-06
4.18529e-07
9.6881e-06
4.12618e-07
1.1702e-05
4.08329e-07
1.16508e-05
4.02975e-07
1.16893e-05
3.94913e-07
1.17935e-05
3.84858e-07
1.19403e-05
3.74896e-07
1.20898e-05
3.66401e-07
1.22013e-05
3.58865e-07
1.22661e-05
3.50638e-07
1.23092e-05
3.40548e-07
1.23568e-05
3.28789e-07
1.24099e-05
3.16658e-07
1.24489e-05
3.058e-07
1.24541e-05
2.97566e-07
1.2418e-05
2.92565e-07
1.23489e-05
2.90424e-07
1.22707e-05
2.9008e-07
1.22165e-05
2.90734e-07
1.22098e-05
2.92773e-07
1.22471e-05
1.23014e-05
2.31385e-07
2.17838e-06
2.29955e-07
2.28499e-06
2.28137e-07
2.40154e-06
2.26262e-07
2.5278e-06
2.2467e-07
2.66361e-06
2.23748e-07
2.80907e-06
2.23928e-07
2.96434e-06
2.25676e-07
3.12958e-06
2.29459e-07
3.30487e-06
2.35715e-07
3.49016e-06
2.44801e-07
3.68533e-06
2.56929e-07
3.89018e-06
2.72095e-07
4.10458e-06
2.90015e-07
4.32866e-06
3.10078e-07
4.56313e-06
3.31363e-07
4.8097e-06
3.52719e-07
5.07153e-06
3.72934e-07
5.35353e-06
3.90976e-07
5.66233e-06
4.0623e-07
6.00536e-06
4.18656e-07
6.38877e-06
4.2873e-07
6.81373e-06
4.3712e-07
7.27209e-06
4.44181e-07
7.74303e-06
4.49538e-07
8.19462e-06
4.52153e-07
8.5931e-06
4.51036e-07
8.91902e-06
4.46233e-07
9.182e-06
4.3925e-07
9.42245e-06
4.3229e-07
9.69506e-06
4.259e-07
1.17083e-05
4.20746e-07
1.16559e-05
4.14264e-07
1.16958e-05
4.05193e-07
1.18025e-05
3.94632e-07
1.19508e-05
3.84806e-07
1.20996e-05
3.76929e-07
1.22092e-05
3.70204e-07
1.22728e-05
3.6275e-07
1.23167e-05
3.53303e-07
1.23663e-05
3.42069e-07
1.24211e-05
3.30397e-07
1.24606e-05
3.19979e-07
1.24645e-05
3.12195e-07
1.24258e-05
3.07659e-07
1.23534e-05
3.05992e-07
1.22724e-05
3.06131e-07
1.22164e-05
3.07294e-07
1.22087e-05
3.09889e-07
1.22446e-05
1.22958e-05
1.93242e-07
2.17867e-06
1.925e-07
2.28573e-06
1.91626e-07
2.40242e-06
1.90954e-07
2.52847e-06
1.9085e-07
2.66372e-06
1.91715e-07
2.8082e-06
1.93988e-07
2.96207e-06
1.98125e-07
3.12545e-06
2.04566e-07
3.29842e-06
2.13706e-07
3.48102e-06
2.25838e-07
3.67319e-06
2.41096e-07
3.87492e-06
2.59389e-07
4.08629e-06
2.80346e-07
4.3077e-06
3.03291e-07
4.54019e-06
3.27263e-07
4.78573e-06
3.51113e-07
5.04768e-06
3.73668e-07
5.33097e-06
3.93958e-07
5.64204e-06
4.11429e-07
5.98789e-06
4.26061e-07
6.37413e-06
4.38285e-07
6.80151e-06
4.48643e-07
7.26173e-06
4.57321e-07
7.73435e-06
4.63797e-07
8.18814e-06
4.66984e-07
8.58992e-06
4.65976e-07
8.92003e-06
4.60997e-07
9.18698e-06
4.53713e-07
9.42974e-06
4.46369e-07
9.7024e-06
4.39328e-07
1.17154e-05
4.33214e-07
1.1662e-05
4.25586e-07
1.17034e-05
4.15533e-07
1.18126e-05
4.04501e-07
1.19618e-05
3.94821e-07
1.21093e-05
3.87539e-07
1.22164e-05
3.81576e-07
1.22787e-05
3.74834e-07
1.23234e-05
3.65961e-07
1.23751e-05
3.55174e-07
1.24319e-05
3.43868e-07
1.24719e-05
3.33785e-07
1.24746e-05
3.26331e-07
1.24332e-05
3.22125e-07
1.23576e-05
3.20781e-07
1.22737e-05
3.21236e-07
1.22159e-05
3.22726e-07
1.22072e-05
3.2568e-07
1.22416e-05
1.22899e-05
1.51803e-07
2.17837e-06
1.52168e-07
2.28536e-06
1.52714e-07
2.40187e-06
1.53732e-07
2.52745e-06
1.55585e-07
2.66186e-06
1.5868e-07
2.80511e-06
1.6345e-07
2.9573e-06
1.70331e-07
3.11857e-06
1.79733e-07
3.28902e-06
1.91999e-07
3.46875e-06
2.07358e-07
3.65783e-06
2.25871e-07
3.85641e-06
2.47368e-07
4.06479e-06
2.71407e-07
4.28366e-06
2.97259e-07
4.51433e-06
3.23942e-07
4.75905e-06
3.50317e-07
5.0213e-06
3.75257e-07
5.30603e-06
3.97852e-07
5.61944e-06
4.176e-07
5.96814e-06
4.3449e-07
6.35724e-06
4.48894e-07
6.78711e-06
4.6123e-07
7.24939e-06
4.71513e-07
7.72407e-06
4.79074e-07
8.18058e-06
4.82768e-07
8.58622e-06
4.81765e-07
8.92103e-06
4.7646e-07
9.19229e-06
4.68689e-07
9.43751e-06
4.60775e-07
9.71032e-06
4.5291e-07
1.17233e-05
4.45752e-07
1.16692e-05
4.36972e-07
1.17122e-05
4.25973e-07
1.18236e-05
4.14506e-07
1.19733e-05
4.04976e-07
1.21188e-05
3.98255e-07
1.22232e-05
3.92994e-07
1.2284e-05
3.86896e-07
1.23295e-05
3.78525e-07
1.23835e-05
3.68104e-07
1.24423e-05
3.57075e-07
1.24829e-05
3.47221e-07
1.24845e-05
3.39978e-07
1.24405e-05
3.35967e-07
1.23616e-05
3.34795e-07
1.22749e-05
3.35398e-07
1.22153e-05
3.37028e-07
1.22056e-05
3.40139e-07
1.22385e-05
1.22838e-05
1.09533e-07
2.17725e-06
1.11327e-07
2.28357e-06
1.13636e-07
2.39956e-06
1.16669e-07
2.52442e-06
1.20775e-07
2.65776e-06
1.2636e-07
2.79953e-06
1.33843e-07
2.94982e-06
1.43634e-07
3.10878e-06
1.56106e-07
3.27655e-06
1.71551e-07
3.45331e-06
1.90139e-07
3.63924e-06
2.11864e-07
3.83468e-06
2.36491e-07
4.04016e-06
2.63525e-07
4.25663e-06
2.92201e-07
4.48566e-06
3.21533e-07
4.72972e-06
3.50407e-07
4.99243e-06
3.77739e-07
5.2787e-06
4.02674e-07
5.5945e-06
4.24745e-07
5.94607e-06
4.43936e-07
6.33805e-06
4.6055e-07
6.77049e-06
4.74875e-07
7.23507e-06
4.86757e-07
7.71219e-06
4.95374e-07
8.17196e-06
4.9952e-07
8.58208e-06
4.98423e-07
8.92213e-06
4.92642e-07
9.19807e-06
4.842e-07
9.44595e-06
4.75527e-07
9.71899e-06
4.66669e-07
1.17321e-05
4.58392e-07
1.16775e-05
4.48464e-07
1.17221e-05
4.36561e-07
1.18355e-05
4.24692e-07
1.19852e-05
4.15308e-07
1.21282e-05
4.09101e-07
1.22294e-05
4.04474e-07
1.22886e-05
3.98944e-07
1.2335e-05
3.91e-07
1.23915e-05
3.80866e-07
1.24524e-05
3.70023e-07
1.24938e-05
3.60296e-07
1.24942e-05
3.53146e-07
1.24476e-05
3.49198e-07
1.23656e-05
3.48048e-07
1.22761e-05
3.48629e-07
1.22148e-05
3.50205e-07
1.2204e-05
3.53258e-07
1.22354e-05
1.22777e-05
6.81924e-08
2.17477e-06
7.20002e-08
2.27976e-06
7.64888e-08
2.39507e-06
8.18174e-08
2.51909e-06
8.83598e-08
2.65122e-06
9.65304e-08
2.79135e-06
1.06748e-07
2.9396e-06
1.19404e-07
3.09612e-06
1.34839e-07
3.26112e-06
1.53304e-07
3.43484e-06
1.74919e-07
3.61763e-06
1.99627e-07
3.80997e-06
2.27148e-07
4.01264e-06
2.56953e-07
4.22683e-06
2.88264e-07
4.45435e-06
3.20105e-07
4.69788e-06
3.51391e-07
4.96115e-06
3.81087e-07
5.24901e-06
4.08375e-07
5.56722e-06
4.32807e-07
5.92164e-06
4.54342e-07
6.31652e-06
4.73202e-07
6.75163e-06
4.89536e-07
7.21873e-06
5.03022e-07
7.6987e-06
5.12684e-07
8.1623e-06
5.1724e-07
8.57752e-06
5.15964e-07
8.9234e-06
5.09569e-07
9.20446e-06
5.00274e-07
9.45525e-06
4.90657e-07
9.72861e-06
4.80642e-07
1.17421e-05
4.71178e-07
1.16869e-05
4.60113e-07
1.17332e-05
4.47351e-07
1.18482e-05
4.35109e-07
1.19974e-05
4.25854e-07
1.21375e-05
4.20104e-07
1.22351e-05
4.16031e-07
1.22927e-05
4.10988e-07
1.23401e-05
4.03393e-07
1.23991e-05
3.93468e-07
1.24624e-05
3.82724e-07
1.25045e-05
3.73025e-07
1.25039e-05
3.65854e-07
1.24548e-05
3.61839e-07
1.23696e-05
3.60562e-07
1.22773e-05
3.60949e-07
1.22144e-05
3.62274e-07
1.22027e-05
3.65041e-07
1.22327e-05
1.2272e-05
3.23348e-08
2.1705e-06
3.81585e-08
2.27394e-06
4.46278e-08
2.38861e-06
5.2004e-08
2.51172e-06
6.07016e-08
2.64252e-06
7.11658e-08
2.78089e-06
8.37979e-08
2.92697e-06
9.89703e-08
3.08095e-06
1.16992e-07
3.2431e-06
1.38079e-07
3.41376e-06
1.62311e-07
3.5934e-06
1.89593e-07
3.78269e-06
2.19618e-07
3.98262e-06
2.51843e-07
4.1946e-06
2.85498e-07
4.42069e-06
3.1963e-07
4.66375e-06
3.53194e-07
4.92758e-06
3.85193e-07
5.21701e-06
4.14837e-07
5.53757e-06
4.4167e-07
5.89481e-06
4.65602e-07
6.29258e-06
4.86757e-07
6.73048e-06
5.05138e-07
7.20035e-06
5.20251e-07
7.68359e-06
5.30967e-07
8.15158e-06
5.35915e-07
8.57257e-06
5.34395e-07
8.92492e-06
5.27263e-07
9.21159e-06
5.16946e-07
9.46556e-06
5.06206e-07
9.73935e-06
4.94875e-07
1.17535e-05
4.8416e-07
1.16976e-05
4.71974e-07
1.17454e-05
4.58397e-07
1.18618e-05
4.45804e-07
1.201e-05
4.36651e-07
1.21466e-05
4.31286e-07
1.22405e-05
4.27678e-07
1.22963e-05
4.23037e-07
1.23447e-05
4.15714e-07
1.24064e-05
4.05921e-07
1.24722e-05
3.95193e-07
1.25152e-05
3.85428e-07
1.25137e-05
3.78127e-07
1.24621e-05
3.73918e-07
1.23738e-05
3.72369e-07
1.22789e-05
3.72391e-07
1.22143e-05
3.73263e-07
1.22018e-05
3.75505e-07
1.22304e-05
1.22668e-05
7.633e-09
2.16373e-06
1.43882e-08
2.26718e-06
2.16938e-08
2.3813e-06
3.00861e-08
2.50332e-06
4.00598e-08
2.63254e-06
5.2022e-08
2.76893e-06
6.63507e-08
2.91264e-06
8.33746e-08
3.06393e-06
1.03354e-07
3.22312e-06
1.26456e-07
3.39065e-06
1.52718e-07
3.56713e-06
1.82018e-07
3.75339e-06
2.14035e-07
3.9506e-06
2.4823e-07
4.1604e-06
2.83859e-07
4.38506e-06
3.20007e-07
4.6276e-06
3.55672e-07
4.89192e-06
3.89891e-07
5.18279e-06
4.21882e-07
5.50558e-06
4.51161e-07
5.86553e-06
4.77558e-07
6.26619e-06
5.01078e-07
6.70696e-06
5.21566e-07
7.17986e-06
5.38356e-07
7.6668e-06
5.50161e-07
8.13978e-06
5.55509e-07
8.56722e-06
5.53708e-07
8.92672e-06
5.4574e-07
9.21956e-06
5.34248e-07
9.47706e-06
5.22215e-07
9.75138e-06
5.09416e-07
1.17663e-05
4.97393e-07
1.17097e-05
4.84104e-07
1.17587e-05
4.69754e-07
1.18762e-05
4.56823e-07
1.20229e-05
4.4773e-07
1.21557e-05
4.42668e-07
1.22456e-05
4.39429e-07
1.22995e-05
4.35101e-07
1.2349e-05
4.27973e-07
1.24135e-05
4.1824e-07
1.24819e-05
4.07452e-07
1.2526e-05
3.97531e-07
1.25236e-05
3.89998e-07
1.24696e-05
3.85476e-07
1.23783e-05
3.83511e-07
1.22809e-05
3.83001e-07
1.22149e-05
3.83217e-07
1.22016e-05
3.84687e-07
1.2229e-05
1.22625e-05
-4.92619e-09
2.1589e-06
4.86362e-10
2.26177e-06
7.24818e-09
2.37454e-06
1.57184e-08
2.49485e-06
2.62188e-08
2.62204e-06
3.90434e-08
2.7561e-06
5.44701e-08
2.89721e-06
7.27471e-08
3.04565e-06
9.4072e-08
3.20179e-06
1.18567e-07
3.36616e-06
1.46241e-07
3.53946e-06
1.76958e-07
3.72267e-06
2.10402e-07
3.91716e-06
2.46066e-07
4.12474e-06
2.8325e-07
4.34788e-06
3.21093e-07
4.58976e-06
3.58646e-07
4.85436e-06
3.94979e-07
5.14645e-06
4.293e-07
5.47126e-06
4.61071e-07
5.83376e-06
4.90017e-07
6.23724e-06
5.15994e-07
6.68098e-06
5.38677e-07
7.15718e-06
5.57221e-07
7.64825e-06
5.70177e-07
8.12682e-06
5.75966e-07
8.56143e-06
5.73876e-07
8.92881e-06
5.65003e-07
9.22843e-06
5.52206e-07
9.48985e-06
5.38729e-07
9.76485e-06
5.24318e-07
1.17807e-05
5.10931e-07
1.1723e-05
4.96556e-07
1.17731e-05
4.8147e-07
1.18913e-05
4.68203e-07
1.20362e-05
4.5912e-07
1.21648e-05
4.54267e-07
1.22504e-05
4.51294e-07
1.23025e-05
4.47188e-07
1.23532e-05
4.40181e-07
1.24205e-05
4.30441e-07
1.24916e-05
4.19522e-07
1.25369e-05
4.09368e-07
1.25337e-05
4.01509e-07
1.24775e-05
3.9656e-07