/*--------------------------------*- C++ -*----------------------------------*\
  =========                 |
  \\      /  F ield         | OpenFOAM: The Open Source CFD Toolbox
   \\    /   O peration     | Website:  https://openfoam.org
    \\  /    A nd           | Version:  9
     \\/     M anipulation  |
\*---------------------------------------------------------------------------*/
FoamFile
{
    format      ascii;
    class       volScalarField;
    location    "0.09";
    object      rAU;
}
// * * * * * * * * * * * * * * * * * * * * * * * * * * * * * * * * * * * * * //

dimensions      [-1 3 1 0 0 0 0];

internalField   nonuniform List<scalar> 
5000
(
1.60452e-05
1.94978e-05
1.97816e-05
2.0042e-05
2.02796e-05
2.04949e-05
2.06882e-05
2.08598e-05
2.10102e-05
2.11403e-05
2.12516e-05
2.13461e-05
2.1427e-05
2.14984e-05
2.15652e-05
2.16324e-05
2.17039e-05
2.17811e-05
2.18607e-05
2.19344e-05
2.19905e-05
2.20187e-05
2.20178e-05
2.20023e-05
2.20011e-05
2.20467e-05
2.2157e-05
2.23205e-05
2.24963e-05
2.26449e-05
2.2784e-05
2.27796e-05
2.2744e-05
2.27102e-05
2.26787e-05
2.26475e-05
2.26229e-05
2.26111e-05
2.26097e-05
2.26104e-05
2.2609e-05
2.26083e-05
2.26139e-05
2.26294e-05
2.26532e-05
2.2671e-05
2.26757e-05
2.26665e-05
2.26364e-05
2.25877e-05
1.6045e-05
1.9498e-05
1.97819e-05
2.00422e-05
2.02797e-05
2.04948e-05
2.06878e-05
2.08593e-05
2.10096e-05
2.11398e-05
2.12513e-05
2.13462e-05
2.14278e-05
2.15e-05
2.15676e-05
2.16354e-05
2.17069e-05
2.1783e-05
2.18605e-05
2.19311e-05
2.19836e-05
2.20087e-05
2.20062e-05
2.1991e-05
2.19917e-05
2.20394e-05
2.21507e-05
2.23133e-05
2.2487e-05
2.26341e-05
2.27743e-05
2.27732e-05
2.27404e-05
2.27069e-05
2.26731e-05
2.26389e-05
2.26117e-05
2.25984e-05
2.25959e-05
2.25954e-05
2.25928e-05
2.2591e-05
2.25957e-05
2.26106e-05
2.26357e-05
2.26617e-05
2.26732e-05
2.26641e-05
2.26341e-05
2.25863e-05
1.6046e-05
1.94989e-05
1.97828e-05
2.0043e-05
2.02803e-05
2.04952e-05
2.0688e-05
2.08592e-05
2.10095e-05
2.11397e-05
2.12515e-05
2.13469e-05
2.14292e-05
2.15023e-05
2.15707e-05
2.16389e-05
2.17103e-05
2.17854e-05
2.18607e-05
2.19281e-05
2.1977e-05
2.19991e-05
2.1995e-05
2.19801e-05
2.19825e-05
2.20321e-05
2.21442e-05
2.23058e-05
2.24773e-05
2.26232e-05
2.27649e-05
2.2767e-05
2.27369e-05
2.27034e-05
2.26674e-05
2.26301e-05
2.26006e-05
2.25859e-05
2.25822e-05
2.25806e-05
2.25768e-05
2.2574e-05
2.25779e-05
2.25923e-05
2.2617e-05
2.26472e-05
2.26678e-05
2.26634e-05
2.26338e-05
2.25871e-05
1.6048e-05
1.95007e-05
1.97845e-05
2.00446e-05
2.02816e-05
2.04962e-05
2.06888e-05
2.08598e-05
2.10099e-05
2.11403e-05
2.12523e-05
2.13482e-05
2.14313e-05
2.15052e-05
2.15744e-05
2.16431e-05
2.17143e-05
2.17882e-05
2.18612e-05
2.19254e-05
2.19708e-05
2.19899e-05
2.19843e-05
2.19697e-05
2.19736e-05
2.20249e-05
2.21374e-05
2.22979e-05
2.24675e-05
2.26124e-05
2.27558e-05
2.27611e-05
2.27334e-05
2.26999e-05
2.26616e-05
2.26214e-05
2.25896e-05
2.25735e-05
2.25688e-05
2.25661e-05
2.25612e-05
2.25573e-05
2.25606e-05
2.25747e-05
2.2599e-05
2.26286e-05
2.26541e-05
2.26596e-05
2.26352e-05
2.259e-05
1.60513e-05
1.95035e-05
1.97871e-05
2.00469e-05
2.02836e-05
2.04979e-05
2.06902e-05
2.08609e-05
2.1011e-05
2.11414e-05
2.12537e-05
2.13502e-05
2.1434e-05
2.15088e-05
2.15788e-05
2.1648e-05
2.17189e-05
2.17916e-05
2.18622e-05
2.19232e-05
2.1965e-05
2.19811e-05
2.19741e-05
2.19597e-05
2.1965e-05
2.20176e-05
2.21305e-05
2.22897e-05
2.24575e-05
2.26016e-05
2.27469e-05
2.27553e-05
2.27299e-05
2.26962e-05
2.26556e-05
2.26126e-05
2.25788e-05
2.25614e-05
2.25557e-05
2.25519e-05
2.25458e-05
2.25411e-05
2.25438e-05
2.25576e-05
2.25818e-05
2.2611e-05
2.26353e-05
2.26444e-05
2.26314e-05
2.25945e-05
1.60558e-05
1.95071e-05
1.97904e-05
2.00498e-05
2.02862e-05
2.05002e-05
2.06921e-05
2.08627e-05
2.10127e-05
2.11432e-05
2.12559e-05
2.1353e-05
2.14376e-05
2.15133e-05
2.15841e-05
2.16537e-05
2.17243e-05
2.17956e-05
2.18638e-05
2.19214e-05
2.19597e-05
2.19729e-05
2.19644e-05
2.19501e-05
2.19567e-05
2.20105e-05
2.21233e-05
2.22812e-05
2.24474e-05
2.25909e-05
2.27383e-05
2.27497e-05
2.27263e-05
2.26922e-05
2.26495e-05
2.26038e-05
2.25681e-05
2.25495e-05
2.25429e-05
2.2538e-05
2.25309e-05
2.25253e-05
2.25276e-05
2.25412e-05
2.25654e-05
2.25943e-05
2.26177e-05
2.26252e-05
2.26129e-05
2.2586e-05
1.60613e-05
1.95115e-05
1.97944e-05
2.00534e-05
2.02894e-05
2.0503e-05
2.06947e-05
2.08651e-05
2.1015e-05
2.11457e-05
2.12588e-05
2.13566e-05
2.14421e-05
2.15187e-05
2.15903e-05
2.16603e-05
2.17305e-05
2.18004e-05
2.18661e-05
2.19203e-05
2.1955e-05
2.19653e-05
2.19553e-05
2.19411e-05
2.19487e-05
2.20034e-05
2.21161e-05
2.22726e-05
2.24372e-05
2.25803e-05
2.273e-05
2.27442e-05
2.27226e-05
2.26881e-05
2.26431e-05
2.25951e-05
2.25576e-05
2.25379e-05
2.25304e-05
2.25245e-05
2.25163e-05
2.251e-05
2.25119e-05
2.25255e-05
2.25498e-05
2.25785e-05
2.26012e-05
2.26074e-05
2.25937e-05
2.25659e-05
1.60679e-05
1.95168e-05
1.97993e-05
2.00578e-05
2.02934e-05
2.05067e-05
2.06981e-05
2.08683e-05
2.10183e-05
2.11492e-05
2.12628e-05
2.13613e-05
2.14477e-05
2.15252e-05
2.15976e-05
2.16679e-05
2.17376e-05
2.1806e-05
2.1869e-05
2.19198e-05
2.1951e-05
2.19584e-05
2.19469e-05
2.19327e-05
2.1941e-05
2.19964e-05
2.21087e-05
2.22639e-05
2.24269e-05
2.25698e-05
2.27218e-05
2.27387e-05
2.27187e-05
2.26836e-05
2.26366e-05
2.25863e-05
2.25473e-05
2.25267e-05
2.25183e-05
2.25114e-05
2.25022e-05
2.24951e-05
2.24968e-05
2.25105e-05
2.2535e-05
2.25638e-05
2.25859e-05
2.2591e-05
2.25761e-05
2.25477e-05
1.60764e-05
1.95236e-05
1.98056e-05
2.00635e-05
2.02986e-05
2.05115e-05
2.07026e-05
2.08727e-05
2.10227e-05
2.11539e-05
2.1268e-05
2.13672e-05
2.14545e-05
2.1533e-05
2.16061e-05
2.16766e-05
2.17458e-05
2.18125e-05
2.18728e-05
2.19201e-05
2.19477e-05
2.19523e-05
2.19392e-05
2.19248e-05
2.19338e-05
2.19895e-05
2.21013e-05
2.2255e-05
2.24167e-05
2.25594e-05
2.27138e-05
2.27332e-05
2.27145e-05
2.26788e-05
2.26299e-05
2.25776e-05
2.25372e-05
2.25158e-05
2.25065e-05
2.24986e-05
2.24885e-05
2.24808e-05
2.24822e-05
2.24962e-05
2.2521e-05
2.25499e-05
2.25717e-05
2.25759e-05
2.25601e-05
2.25314e-05
1.60878e-05
1.95327e-05
1.98139e-05
2.00711e-05
2.03056e-05
2.05179e-05
2.07087e-05
2.08786e-05
2.10287e-05
2.11601e-05
2.12747e-05
2.13747e-05
2.14628e-05
2.15423e-05
2.1616e-05
2.16866e-05
2.1755e-05
2.18199e-05
2.18774e-05
2.19212e-05
2.19451e-05
2.19469e-05
2.19322e-05
2.19175e-05
2.19268e-05
2.19828e-05
2.20938e-05
2.2246e-05
2.24064e-05
2.25492e-05
2.27059e-05
2.27276e-05
2.27101e-05
2.26737e-05
2.2623e-05
2.25689e-05
2.25274e-05
2.25052e-05
2.24952e-05
2.24863e-05
2.24752e-05
2.24669e-05
2.24683e-05
2.24825e-05
2.25079e-05
2.2537e-05
2.25585e-05
2.2562e-05
2.25456e-05
2.25168e-05
1.61027e-05
1.95444e-05
1.98247e-05
2.00811e-05
2.03149e-05
2.05266e-05
2.07169e-05
2.08866e-05
2.10366e-05
2.11683e-05
2.12833e-05
2.1384e-05
2.1473e-05
2.15532e-05
2.16275e-05
2.1698e-05
2.17655e-05
2.18285e-05
2.1883e-05
2.19231e-05
2.19435e-05
2.19423e-05
2.19259e-05
2.19108e-05
2.19203e-05
2.19761e-05
2.20862e-05
2.22369e-05
2.23962e-05
2.2539e-05
2.26981e-05
2.27219e-05
2.27053e-05
2.26683e-05
2.26159e-05
2.25602e-05
2.25178e-05
2.24951e-05
2.24843e-05
2.24744e-05
2.24623e-05
2.24535e-05
2.24548e-05
2.24695e-05
2.24955e-05
2.2525e-05
2.25464e-05
2.25493e-05
2.25324e-05
2.25038e-05
1.61217e-05
1.95594e-05
1.98386e-05
2.00941e-05
2.0327e-05
2.0538e-05
2.07278e-05
2.08971e-05
2.1047e-05
2.11788e-05
2.12943e-05
2.13956e-05
2.14853e-05
2.15662e-05
2.16408e-05
2.1711e-05
2.17773e-05
2.18381e-05
2.18895e-05
2.1926e-05
2.19426e-05
2.19385e-05
2.19204e-05
2.19046e-05
2.19141e-05
2.19695e-05
2.20786e-05
2.22278e-05
2.23859e-05
2.25289e-05
2.26904e-05
2.2716e-05
2.27002e-05
2.26624e-05
2.26085e-05
2.25516e-05
2.25085e-05
2.24853e-05
2.24738e-05
2.24629e-05
2.24499e-05
2.24406e-05
2.2442e-05
2.24572e-05
2.24838e-05
2.25139e-05
2.25352e-05
2.25378e-05
2.25205e-05
2.24922e-05
1.61456e-05
1.95784e-05
1.98565e-05
2.01108e-05
2.03428e-05
2.05529e-05
2.0742e-05
2.09109e-05
2.10605e-05
2.11924e-05
2.13081e-05
2.14099e-05
2.15001e-05
2.15814e-05
2.16561e-05
2.17258e-05
2.17907e-05
2.1849e-05
2.18971e-05
2.19298e-05
2.19427e-05
2.19356e-05
2.19156e-05
2.1899e-05
2.19081e-05
2.19631e-05
2.20709e-05
2.22185e-05
2.23756e-05
2.25188e-05
2.26827e-05
2.27099e-05
2.26946e-05
2.26561e-05
2.26009e-05
2.2543e-05
2.24995e-05
2.24759e-05
2.24637e-05
2.24518e-05
2.24379e-05
2.24281e-05
2.24296e-05
2.24454e-05
2.24729e-05
2.25035e-05
2.2525e-05
2.25273e-05
2.25099e-05
2.2482e-05
1.61755e-05
1.96021e-05
1.98789e-05
2.0132e-05
2.03628e-05
2.0572e-05
2.07602e-05
2.09285e-05
2.10777e-05
2.12094e-05
2.13253e-05
2.14273e-05
2.15178e-05
2.15992e-05
2.16736e-05
2.17424e-05
2.18056e-05
2.18613e-05
2.19058e-05
2.19345e-05
2.19437e-05
2.19335e-05
2.19116e-05
2.1894e-05
2.19025e-05
2.19566e-05
2.20631e-05
2.22091e-05
2.23652e-05
2.25087e-05
2.26749e-05
2.27036e-05
2.26887e-05
2.26494e-05
2.25931e-05
2.25345e-05
2.24907e-05
2.24669e-05
2.24541e-05
2.24412e-05
2.24263e-05
2.24161e-05
2.24178e-05
2.24342e-05
2.24626e-05
2.24939e-05
2.25156e-05
2.25177e-05
2.25003e-05
2.24731e-05
1.62122e-05
1.96314e-05
1.99067e-05
2.01584e-05
2.03878e-05
2.05958e-05
2.07831e-05
2.09505e-05
2.10991e-05
2.12305e-05
2.13461e-05
2.14481e-05
2.15385e-05
2.16198e-05
2.16936e-05
2.17611e-05
2.18222e-05
2.18749e-05
2.19157e-05
2.19403e-05
2.19456e-05
2.19322e-05
2.19082e-05
2.18895e-05
2.18971e-05
2.19502e-05
2.20551e-05
2.21995e-05
2.23547e-05
2.24986e-05
2.2667e-05
2.2697e-05
2.26823e-05
2.26423e-05
2.2585e-05
2.2526e-05
2.24822e-05
2.24583e-05
2.24448e-05
2.24309e-05
2.24151e-05
2.24045e-05
2.24064e-05
2.24236e-05
2.24529e-05
2.2485e-05
2.2507e-05
2.25091e-05
2.24918e-05
2.24652e-05
1.62567e-05
1.96668e-05
1.99404e-05
2.01906e-05
2.04185e-05
2.06251e-05
2.0811e-05
2.09774e-05
2.11252e-05
2.12558e-05
2.1371e-05
2.14726e-05
2.15627e-05
2.16433e-05
2.17161e-05
2.17819e-05
2.18405e-05
2.18899e-05
2.19267e-05
2.19471e-05
2.19484e-05
2.19318e-05
2.19056e-05
2.18854e-05
2.1892e-05
2.19437e-05
2.20469e-05
2.21897e-05
2.2344e-05
2.24883e-05
2.2659e-05
2.26901e-05
2.26755e-05
2.26347e-05
2.25767e-05
2.25175e-05
2.2474e-05
2.24501e-05
2.2436e-05
2.24209e-05
2.24043e-05
2.23933e-05
2.23955e-05
2.24134e-05
2.24438e-05
2.24767e-05
2.24992e-05
2.25013e-05
2.24842e-05
2.24585e-05
1.63097e-05
1.97092e-05
1.99809e-05
2.02292e-05
2.04553e-05
2.06601e-05
2.08445e-05
2.10095e-05
2.11561e-05
2.12858e-05
2.14001e-05
2.15009e-05
2.15902e-05
2.16698e-05
2.17411e-05
2.18049e-05
2.18606e-05
2.19063e-05
2.19389e-05
2.19549e-05
2.19521e-05
2.19323e-05
2.19036e-05
2.18817e-05
2.18869e-05
2.19371e-05
2.20384e-05
2.21795e-05
2.23331e-05
2.24778e-05
2.26508e-05
2.26828e-05
2.26682e-05
2.26267e-05
2.25682e-05
2.25091e-05
2.2466e-05
2.24422e-05
2.24275e-05
2.24114e-05
2.23937e-05
2.23824e-05
2.23849e-05
2.24037e-05
2.24351e-05
2.24691e-05
2.2492e-05
2.24942e-05
2.24774e-05
2.24526e-05
1.6372e-05
1.97591e-05
2.00284e-05
2.02744e-05
2.04983e-05
2.07011e-05
2.08835e-05
2.10467e-05
2.11918e-05
2.13201e-05
2.14333e-05
2.1533e-05
2.16211e-05
2.16993e-05
2.17687e-05
2.18299e-05
2.18824e-05
2.19241e-05
2.19523e-05
2.19638e-05
2.19568e-05
2.19335e-05
2.19023e-05
2.18785e-05
2.1882e-05
2.19303e-05
2.20296e-05
2.2169e-05
2.23219e-05
2.24671e-05
2.26423e-05
2.26751e-05
2.26604e-05
2.26182e-05
2.25594e-05
2.25008e-05
2.24583e-05
2.24347e-05
2.24193e-05
2.24021e-05
2.23835e-05
2.23718e-05
2.23746e-05
2.23944e-05
2.2427e-05
2.24619e-05
2.24854e-05
2.24879e-05
2.24715e-05
2.24477e-05
1.64434e-05
1.98163e-05
2.00828e-05
2.0326e-05
2.05473e-05
2.07475e-05
2.09276e-05
2.10887e-05
2.12319e-05
2.13586e-05
2.14703e-05
2.15686e-05
2.16552e-05
2.17315e-05
2.17987e-05
2.1857e-05
2.19058e-05
2.19434e-05
2.19669e-05
2.19737e-05
2.19624e-05
2.19355e-05
2.19015e-05
2.18756e-05
2.18771e-05
2.19232e-05
2.20203e-05
2.21579e-05
2.23101e-05
2.24559e-05
2.26335e-05
2.2667e-05
2.26521e-05
2.26094e-05
2.25504e-05
2.24924e-05
2.24508e-05
2.24275e-05
2.24115e-05
2.23931e-05
2.23735e-05
2.23615e-05
2.23647e-05
2.23854e-05
2.24192e-05
2.24552e-05
2.24793e-05
2.24821e-05
2.24662e-05
2.24435e-05
1.65215e-05
1.98794e-05
2.01426e-05
2.03826e-05
2.06008e-05
2.07981e-05
2.09756e-05
2.11343e-05
2.12755e-05
2.14003e-05
2.15103e-05
2.1607e-05
2.16919e-05
2.17662e-05
2.18308e-05
2.18859e-05
2.19309e-05
2.19639e-05
2.19826e-05
2.19846e-05
2.19689e-05
2.19383e-05
2.19014e-05
2.18731e-05
2.18723e-05
2.19159e-05
2.20106e-05
2.21463e-05
2.22979e-05
2.24443e-05
2.26242e-05
2.26584e-05
2.26433e-05
2.26e-05
2.25412e-05
2.24841e-05
2.24435e-05
2.24205e-05
2.24039e-05
2.23844e-05
2.23638e-05
2.23514e-05
2.2355e-05
2.23768e-05
2.24118e-05
2.24489e-05
2.24736e-05
2.24768e-05
2.24615e-05
2.244e-05
1.66016e-05
1.99448e-05
2.02047e-05
2.04413e-05
2.06563e-05
2.08507e-05
2.10256e-05
2.11821e-05
2.13212e-05
2.14442e-05
2.15526e-05
2.16476e-05
2.17307e-05
2.18028e-05
2.18647e-05
2.19165e-05
2.19574e-05
2.19859e-05
2.19996e-05
2.19966e-05
2.19764e-05
2.1942e-05
2.1902e-05
2.18709e-05
2.18675e-05
2.19083e-05
2.20003e-05
2.2134e-05
2.2285e-05
2.24322e-05
2.26144e-05
2.26493e-05
2.26339e-05
2.25903e-05
2.25318e-05
2.24757e-05
2.24364e-05
2.24138e-05
2.23966e-05
2.23758e-05
2.23543e-05
2.23415e-05
2.23455e-05
2.23683e-05
2.24047e-05
2.24429e-05
2.24684e-05
2.2472e-05
2.24573e-05
2.24372e-05
1.66817e-05
2.00103e-05
2.02664e-05
2.04995e-05
2.07113e-05
2.0903e-05
2.10755e-05
2.123e-05
2.13674e-05
2.1489e-05
2.15959e-05
2.16896e-05
2.17709e-05
2.1841e-05
2.19002e-05
2.19486e-05
2.19854e-05
2.20091e-05
2.20178e-05
2.20098e-05
2.1985e-05
2.19466e-05
2.19032e-05
2.18691e-05
2.18627e-05
2.19004e-05
2.19894e-05
2.2121e-05
2.22713e-05
2.24193e-05
2.2604e-05
2.26396e-05
2.2624e-05
2.25801e-05
2.25221e-05
2.24674e-05
2.24294e-05
2.24073e-05
2.23894e-05
2.23675e-05
2.23449e-05
2.23317e-05
2.23362e-05
2.23601e-05
2.23977e-05
2.24371e-05
2.24634e-05
2.24675e-05
2.24536e-05
2.24348e-05
1.67511e-05
2.00681e-05
2.03214e-05
2.0552e-05
2.07617e-05
2.09516e-05
2.11227e-05
2.12759e-05
2.14123e-05
2.15331e-05
2.16392e-05
2.17319e-05
2.18119e-05
2.18802e-05
2.1937e-05
2.19821e-05
2.20148e-05
2.20338e-05
2.20375e-05
2.20243e-05
2.19948e-05
2.19522e-05
2.19052e-05
2.18678e-05
2.18579e-05
2.18921e-05
2.19778e-05
2.21071e-05
2.22568e-05
2.24056e-05
2.2593e-05
2.26293e-05
2.26136e-05
2.25695e-05
2.25121e-05
2.24589e-05
2.24225e-05
2.24009e-05
2.23825e-05
2.23593e-05
2.23356e-05
2.23221e-05
2.2327e-05
2.23519e-05
2.2391e-05
2.24316e-05
2.24586e-05
2.24633e-05
2.24501e-05
2.24329e-05
1.67966e-05
2.01101e-05
2.03635e-05
2.05941e-05
2.08038e-05
2.09937e-05
2.11647e-05
2.13179e-05
2.14544e-05
2.15752e-05
2.16813e-05
2.17737e-05
2.1853e-05
2.19199e-05
2.19746e-05
2.20168e-05
2.20456e-05
2.20601e-05
2.20586e-05
2.20404e-05
2.2006e-05
2.19591e-05
2.19081e-05
2.1867e-05
2.18533e-05
2.18835e-05
2.19655e-05
2.20924e-05
2.22412e-05
2.2391e-05
2.25812e-05
2.26183e-05
2.26026e-05
2.25584e-05
2.25019e-05
2.24504e-05
2.24156e-05
2.23947e-05
2.23756e-05
2.23512e-05
2.23264e-05
2.23125e-05
2.23179e-05
2.23439e-05
2.23843e-05
2.24261e-05
2.24539e-05
2.24592e-05
2.24469e-05
2.24312e-05
2.15453e-05
2.0123e-05
2.03922e-05
2.06288e-05
2.0839e-05
2.10295e-05
2.12013e-05
2.13555e-05
2.14929e-05
2.16146e-05
2.17215e-05
2.18143e-05
2.18936e-05
2.19597e-05
2.20128e-05
2.20524e-05
2.20778e-05
2.20879e-05
2.20816e-05
2.20582e-05
2.20188e-05
2.19673e-05
2.19121e-05
2.18668e-05
2.18489e-05
2.18747e-05
2.19527e-05
2.20767e-05
2.22247e-05
2.23755e-05
2.25685e-05
2.26066e-05
2.25909e-05
2.25469e-05
2.24914e-05
2.24418e-05
2.24087e-05
2.23885e-05
2.23688e-05
2.23432e-05
2.23173e-05
2.23029e-05
2.23087e-05
2.23358e-05
2.23776e-05
2.24206e-05
2.24493e-05
2.24551e-05
2.24437e-05
2.24296e-05
2.1533e-05
2.01159e-05
2.03941e-05
2.06479e-05
2.0868e-05
2.10595e-05
2.12326e-05
2.13882e-05
2.15273e-05
2.16506e-05
2.1759e-05
2.1853e-05
2.19329e-05
2.19991e-05
2.20512e-05
2.20889e-05
2.21112e-05
2.21174e-05
2.21064e-05
2.20779e-05
2.20335e-05
2.19771e-05
2.19174e-05
2.18676e-05
2.18448e-05
2.18657e-05
2.19392e-05
2.20601e-05
2.22071e-05
2.23588e-05
2.25549e-05
2.25942e-05
2.25787e-05
2.25349e-05
2.24806e-05
2.2433e-05
2.24017e-05
2.23823e-05
2.23621e-05
2.23352e-05
2.23081e-05
2.22934e-05
2.22996e-05
2.23277e-05
2.23708e-05
2.24151e-05
2.24445e-05
2.24509e-05
2.24404e-05
2.2428e-05
2.15343e-05
2.01205e-05
2.04018e-05
2.06629e-05
2.08893e-05
2.10825e-05
2.12575e-05
2.14152e-05
2.15566e-05
2.16823e-05
2.17929e-05
2.18889e-05
2.19704e-05
2.20373e-05
2.20892e-05
2.21257e-05
2.21457e-05
2.21484e-05
2.2133e-05
2.20998e-05
2.20502e-05
2.19888e-05
2.19241e-05
2.18693e-05
2.18413e-05
2.18568e-05
2.19253e-05
2.20426e-05
2.21884e-05
2.23411e-05
2.25404e-05
2.2581e-05
2.25659e-05
2.25225e-05
2.24695e-05
2.2424e-05
2.23947e-05
2.23761e-05
2.23554e-05
2.23272e-05
2.2299e-05
2.22837e-05
2.22903e-05
2.23195e-05
2.2364e-05
2.24094e-05
2.24396e-05
2.24465e-05
2.24369e-05
2.24262e-05
2.15506e-05
2.0137e-05
2.04209e-05
2.0679e-05
2.09022e-05
2.10976e-05
2.12751e-05
2.14356e-05
2.15799e-05
2.17087e-05
2.18223e-05
2.19211e-05
2.20048e-05
2.20734e-05
2.21261e-05
2.21621e-05
2.21806e-05
2.21805e-05
2.21615e-05
2.21236e-05
2.20691e-05
2.20025e-05
2.19325e-05
2.18723e-05
2.18385e-05
2.1848e-05
2.1911e-05
2.20244e-05
2.21686e-05
2.23222e-05
2.25248e-05
2.2567e-05
2.25525e-05
2.25096e-05
2.24581e-05
2.24148e-05
2.23875e-05
2.23698e-05
2.23486e-05
2.23192e-05
2.22898e-05
2.22741e-05
2.2281e-05
2.23112e-05
2.23569e-05
2.24035e-05
2.24344e-05
2.24418e-05
2.2433e-05
2.24239e-05
2.15764e-05
2.01625e-05
2.0444e-05
2.06901e-05
2.09067e-05
2.11046e-05
2.12849e-05
2.14486e-05
2.15964e-05
2.17288e-05
2.18461e-05
2.19483e-05
2.20352e-05
2.21063e-05
2.21607e-05
2.21974e-05
2.22153e-05
2.22134e-05
2.21913e-05
2.21494e-05
2.20901e-05
2.20183e-05
2.19428e-05
2.18766e-05
2.18366e-05
2.18396e-05
2.18965e-05
2.20054e-05
2.21478e-05
2.23021e-05
2.25083e-05
2.25522e-05
2.25385e-05
2.24963e-05
2.24464e-05
2.24054e-05
2.23801e-05
2.23633e-05
2.23418e-05
2.23112e-05
2.22806e-05
2.22643e-05
2.22715e-05
2.23027e-05
2.23496e-05
2.23972e-05
2.24288e-05
2.24366e-05
2.24286e-05
2.24209e-05
1.68228e-05
2.01765e-05
2.04432e-05
2.0683e-05
2.0902e-05
2.11025e-05
2.1286e-05
2.14532e-05
2.16049e-05
2.17414e-05
2.1863e-05
2.19694e-05
2.20603e-05
2.21348e-05
2.21919e-05
2.22303e-05
2.22488e-05
2.22461e-05
2.22219e-05
2.21767e-05
2.21131e-05
2.20361e-05
2.19549e-05
2.18826e-05
2.18358e-05
2.18317e-05
2.1882e-05
2.1986e-05
2.21261e-05
2.2281e-05
2.24907e-05
2.25366e-05
2.2524e-05
2.24827e-05
2.24344e-05
2.23957e-05
2.23726e-05
2.23568e-05
2.23349e-05
2.23031e-05
2.22713e-05
2.22544e-05
2.22619e-05
2.22939e-05
2.23421e-05
2.23907e-05
2.24228e-05
2.24309e-05
2.24234e-05
2.24171e-05
1.67738e-05
2.01443e-05
2.0417e-05
2.06613e-05
2.08843e-05
2.10887e-05
2.12762e-05
2.14478e-05
2.16041e-05
2.17454e-05
2.18718e-05
2.19832e-05
2.20787e-05
2.21576e-05
2.22184e-05
2.22597e-05
2.22799e-05
2.22777e-05
2.22526e-05
2.2205e-05
2.21376e-05
2.20559e-05
2.1969e-05
2.18901e-05
2.18362e-05
2.18245e-05
2.18677e-05
2.19662e-05
2.21036e-05
2.22589e-05
2.24722e-05
2.25203e-05
2.25089e-05
2.24687e-05
2.24221e-05
2.23858e-05
2.23648e-05
2.23501e-05
2.23279e-05
2.22949e-05
2.22619e-05
2.22445e-05
2.22521e-05
2.22849e-05
2.23342e-05
2.23836e-05
2.24162e-05
2.24245e-05
2.24174e-05
2.24123e-05
1.67038e-05
2.00943e-05
2.0374e-05
2.06243e-05
2.08527e-05
2.10623e-05
2.12549e-05
2.14316e-05
2.15932e-05
2.17399e-05
2.18718e-05
2.19886e-05
2.20896e-05
2.21736e-05
2.22391e-05
2.22844e-05
2.23076e-05
2.23071e-05
2.22822e-05
2.22334e-05
2.21631e-05
2.20771e-05
2.19847e-05
2.18993e-05
2.18379e-05
2.18183e-05
2.18539e-05
2.19464e-05
2.20807e-05
2.22359e-05
2.24528e-05
2.25032e-05
2.24934e-05
2.24543e-05
2.24096e-05
2.23757e-05
2.23569e-05
2.23432e-05
2.23207e-05
2.22867e-05
2.22525e-05
2.22344e-05
2.22421e-05
2.22757e-05
2.23259e-05
2.23761e-05
2.2409e-05
2.24173e-05
2.24105e-05
2.24062e-05
1.66168e-05
2.00301e-05
2.03172e-05
2.05743e-05
2.08089e-05
2.10245e-05
2.12228e-05
2.14052e-05
2.15724e-05
2.17248e-05
2.18627e-05
2.19854e-05
2.20923e-05
2.21821e-05
2.22531e-05
2.23033e-05
2.23306e-05
2.23332e-05
2.23099e-05
2.2261e-05
2.2189e-05
2.20995e-05
2.20019e-05
2.191e-05
2.1841e-05
2.18132e-05
2.18408e-05
2.19268e-05
2.20574e-05
2.22124e-05
2.24326e-05
2.24855e-05
2.24774e-05
2.24398e-05
2.23969e-05
2.23654e-05
2.23487e-05
2.23361e-05
2.23135e-05
2.22783e-05
2.2243e-05
2.22242e-05
2.22319e-05
2.22662e-05
2.23172e-05
2.23681e-05
2.24011e-05
2.24092e-05
2.24024e-05
2.23987e-05
1.65174e-05
1.99541e-05
2.02489e-05
2.05133e-05
2.07548e-05
2.09767e-05
2.11811e-05
2.13693e-05
2.15424e-05
2.17008e-05
2.18446e-05
2.19735e-05
2.20867e-05
2.21827e-05
2.22598e-05
2.23158e-05
2.23482e-05
2.2355e-05
2.23346e-05
2.22869e-05
2.22143e-05
2.21222e-05
2.20202e-05
2.19222e-05
2.18456e-05
2.18094e-05
2.18286e-05
2.19077e-05
2.20342e-05
2.21885e-05
2.24118e-05
2.24673e-05
2.24612e-05
2.24251e-05
2.23842e-05
2.2355e-05
2.23404e-05
2.23289e-05
2.23061e-05
2.227e-05
2.22334e-05
2.22139e-05
2.22216e-05
2.22564e-05
2.23081e-05
2.23595e-05
2.23925e-05
2.24002e-05
2.23931e-05
2.23897e-05
1.64085e-05
1.98685e-05
2.01712e-05
2.04432e-05
2.06918e-05
2.09203e-05
2.11309e-05
2.13252e-05
2.15041e-05
2.16684e-05
2.18183e-05
2.19534e-05
2.20729e-05
2.21754e-05
2.2259e-05
2.23213e-05
2.23597e-05
2.23717e-05
2.23554e-05
2.23103e-05
2.22383e-05
2.21447e-05
2.20391e-05
2.19353e-05
2.18514e-05
2.18068e-05
2.18175e-05
2.18894e-05
2.20114e-05
2.21645e-05
2.23907e-05
2.24488e-05
2.24447e-05
2.24104e-05
2.23714e-05
2.23445e-05
2.23319e-05
2.23215e-05
2.22987e-05
2.22616e-05
2.22239e-05
2.22036e-05
2.22112e-05
2.22463e-05
2.22987e-05
2.23504e-05
2.23831e-05
2.23902e-05
2.23826e-05
2.23791e-05
1.62936e-05
1.9775e-05
2.00856e-05
2.03654e-05
2.06213e-05
2.08566e-05
2.10735e-05
2.12737e-05
2.14586e-05
2.16287e-05
2.17846e-05
2.19258e-05
2.20516e-05
2.21606e-05
2.22509e-05
2.232e-05
2.23649e-05
2.2383e-05
2.23717e-05
2.23303e-05
2.22602e-05
2.21663e-05
2.20579e-05
2.19492e-05
2.18584e-05
2.18056e-05
2.18078e-05
2.18722e-05
2.19893e-05
2.21409e-05
2.23694e-05
2.243e-05
2.24282e-05
2.23958e-05
2.23587e-05
2.2334e-05
2.23234e-05
2.23141e-05
2.22912e-05
2.22532e-05
2.22143e-05
2.21932e-05
2.22006e-05
2.2236e-05
2.22888e-05
2.23407e-05
2.2373e-05
2.23793e-05
2.23708e-05
2.23667e-05
1.61761e-05
1.96759e-05
1.99933e-05
2.02808e-05
2.05441e-05
2.07864e-05
2.10098e-05
2.12162e-05
2.14069e-05
2.15828e-05
2.17444e-05
2.18916e-05
2.20236e-05
2.2139e-05
2.22361e-05
2.2312e-05
2.23639e-05
2.23885e-05
2.23832e-05
2.23465e-05
2.22793e-05
2.21862e-05
2.20762e-05
2.19634e-05
2.18663e-05
2.18057e-05
2.17996e-05
2.18565e-05
2.19684e-05
2.21179e-05
2.23483e-05
2.24112e-05
2.24118e-05
2.23813e-05
2.23462e-05
2.23237e-05
2.23149e-05
2.23066e-05
2.22837e-05
2.22448e-05
2.22049e-05
2.21829e-05
2.219e-05
2.22255e-05
2.22786e-05
2.23305e-05
2.23622e-05
2.23674e-05
2.23578e-05
2.23526e-05
1.60592e-05
1.95743e-05
1.98969e-05
2.01913e-05
2.04619e-05
2.07111e-05
2.09412e-05
2.11538e-05
2.13503e-05
2.15319e-05
2.16992e-05
2.1852e-05
2.19899e-05
2.21116e-05
2.22151e-05
2.22979e-05
2.23568e-05
2.23884e-05
2.23895e-05
2.23583e-05
2.22951e-05
2.22039e-05
2.20933e-05
2.19773e-05
2.18748e-05
2.1807e-05
2.17929e-05
2.18425e-05
2.1949e-05
2.2096e-05
2.23277e-05
2.23927e-05
2.23957e-05
2.23672e-05
2.23341e-05
2.23136e-05
2.23065e-05
2.22992e-05
2.22762e-05
2.22365e-05
2.21955e-05
2.21727e-05
2.21794e-05
2.22149e-05
2.22681e-05
2.23198e-05
2.23508e-05
2.23547e-05
2.23434e-05
2.23368e-05
1.5945e-05
1.94734e-05
1.97996e-05
2.00998e-05
2.03769e-05
2.06329e-05
2.08694e-05
2.10881e-05
2.12904e-05
2.14775e-05
2.165e-05
2.18083e-05
2.19517e-05
2.20793e-05
2.21891e-05
2.22785e-05
2.23444e-05
2.2383e-05
2.23909e-05
2.23657e-05
2.23073e-05
2.22188e-05
2.21087e-05
2.19907e-05
2.18837e-05
2.18095e-05
2.1788e-05
2.18304e-05
2.19314e-05
2.20756e-05
2.23078e-05
2.23747e-05
2.238e-05
2.23536e-05
2.23225e-05
2.23038e-05
2.22983e-05
2.22919e-05
2.22688e-05
2.22284e-05
2.21864e-05
2.21627e-05
2.21688e-05
2.22042e-05
2.22573e-05
2.23087e-05
2.23387e-05
2.23411e-05
2.23279e-05
2.23193e-05
1.58351e-05
1.93752e-05
1.97039e-05
2.00088e-05
2.02916e-05
2.05536e-05
2.07962e-05
2.10207e-05
2.12285e-05
2.14208e-05
2.15984e-05
2.17616e-05
2.19102e-05
2.20432e-05
2.21589e-05
2.22546e-05
2.23271e-05
2.23727e-05
2.23875e-05
2.23687e-05
2.23155e-05
2.22307e-05
2.2122e-05
2.20029e-05
2.18924e-05
2.18128e-05
2.17847e-05
2.18205e-05
2.19161e-05
2.20571e-05
2.22892e-05
2.23575e-05
2.23649e-05
2.23407e-05
2.23115e-05
2.22945e-05
2.22904e-05
2.22847e-05
2.22616e-05
2.22205e-05
2.21775e-05
2.21529e-05
2.21585e-05
2.21936e-05
2.22464e-05
2.22972e-05
2.23262e-05
2.23268e-05
2.23114e-05
2.23003e-05
1.5731e-05
1.9281e-05
1.96113e-05
1.99198e-05
2.02075e-05
2.04751e-05
2.07232e-05
2.09532e-05
2.11661e-05
2.13633e-05
2.15455e-05
2.17133e-05
2.18665e-05
2.20044e-05
2.21254e-05
2.22269e-05
2.23058e-05
2.23581e-05
2.23797e-05
2.23674e-05
2.23199e-05
2.22393e-05
2.21328e-05
2.20137e-05
2.19009e-05
2.18169e-05
2.17832e-05
2.18129e-05
2.19033e-05
2.20409e-05
2.22721e-05
2.23413e-05
2.23508e-05
2.23286e-05
2.23012e-05
2.22859e-05
2.2283e-05
2.22779e-05
2.22547e-05
2.22129e-05
2.2169e-05
2.21435e-05
2.21484e-05
2.2183e-05
2.22354e-05
2.22855e-05
2.23133e-05
2.23119e-05
2.2294e-05
2.22799e-05
1.5634e-05
1.91922e-05
1.95231e-05
1.98343e-05
2.0126e-05
2.03983e-05
2.06515e-05
2.08865e-05
2.11042e-05
2.13058e-05
2.14922e-05
2.16641e-05
2.18215e-05
2.19637e-05
2.20894e-05
2.21962e-05
2.22809e-05
2.23395e-05
2.23678e-05
2.2362e-05
2.23203e-05
2.22444e-05
2.21409e-05
2.20227e-05
2.19087e-05
2.18215e-05
2.17832e-05
2.18077e-05
2.18932e-05
2.20273e-05
2.22569e-05
2.23266e-05
2.23378e-05
2.23176e-05
2.22919e-05
2.22779e-05
2.22761e-05
2.22714e-05
2.22481e-05
2.22057e-05
2.21609e-05
2.21345e-05
2.21387e-05
2.21727e-05
2.22245e-05
2.22737e-05
2.23001e-05
2.22967e-05
2.22759e-05
2.22584e-05
1.55454e-05
1.91101e-05
1.94404e-05
1.97533e-05
2.00481e-05
2.03244e-05
2.05821e-05
2.08216e-05
2.10436e-05
2.12493e-05
2.14395e-05
2.1615e-05
2.1776e-05
2.1922e-05
2.20518e-05
2.21632e-05
2.22532e-05
2.23176e-05
2.23521e-05
2.23526e-05
2.23169e-05
2.22459e-05
2.2146e-05
2.20296e-05
2.19156e-05
2.18266e-05
2.17849e-05
2.18051e-05
2.18862e-05
2.20166e-05
2.22438e-05
2.23134e-05
2.23261e-05
2.23077e-05
2.22836e-05
2.22709e-05
2.22698e-05
2.22655e-05
2.2242e-05
2.21991e-05
2.21534e-05
2.21262e-05
2.21295e-05
2.21627e-05
2.22137e-05
2.2262e-05
2.22869e-05
2.22812e-05
2.22574e-05
2.22361e-05
1.54649e-05
1.90352e-05
1.93644e-05
1.96779e-05
1.99749e-05
2.02544e-05
2.05159e-05
2.07593e-05
2.09853e-05
2.11946e-05
2.13881e-05
2.15667e-05
2.17307e-05
2.18798e-05
2.20131e-05
2.21285e-05
2.2223e-05
2.22927e-05
2.2333e-05
2.23396e-05
2.23097e-05
2.22439e-05
2.21481e-05
2.20344e-05
2.19214e-05
2.18318e-05
2.17881e-05
2.18051e-05
2.18823e-05
2.2009e-05
2.22331e-05
2.23022e-05
2.2316e-05
2.22993e-05
2.22766e-05
2.22649e-05
2.22643e-05
2.22601e-05
2.22364e-05
2.2193e-05
2.21466e-05
2.21185e-05
2.21209e-05
2.21531e-05
2.22032e-05
2.22504e-05
2.22738e-05
2.22658e-05
2.22388e-05
2.22132e-05
1.53916e-05
1.8967e-05
1.92951e-05
1.96088e-05
1.99072e-05
2.01891e-05
2.04536e-05
2.07005e-05
2.09298e-05
2.11422e-05
2.13386e-05
2.15197e-05
2.16861e-05
2.18377e-05
2.19737e-05
2.20924e-05
2.21908e-05
2.22651e-05
2.23107e-05
2.23229e-05
2.22988e-05
2.22384e-05
2.21471e-05
2.20368e-05
2.1926e-05
2.18372e-05
2.17927e-05
2.18076e-05
2.18817e-05
2.20047e-05
2.22252e-05
2.22932e-05
2.23077e-05
2.22923e-05
2.22709e-05
2.226e-05
2.22597e-05
2.22555e-05
2.22315e-05
2.21876e-05
2.21406e-05
2.21117e-05
2.2113e-05
2.21442e-05
2.21932e-05
2.22392e-05
2.2261e-05
2.22507e-05
2.22202e-05
2.21902e-05
1.53256e-05
1.89056e-05
1.92326e-05
1.95463e-05
1.98455e-05
2.01292e-05
2.03961e-05
2.06456e-05
2.08777e-05
2.10927e-05
2.12914e-05
2.14745e-05
2.16428e-05
2.17962e-05
2.19343e-05
2.20554e-05
2.2157e-05
2.22353e-05
2.22855e-05
2.23031e-05
2.22845e-05
2.22294e-05
2.21431e-05
2.2037e-05
2.19294e-05
2.18427e-05
2.17989e-05
2.18129e-05
2.18844e-05
2.20038e-05
2.222e-05
2.22865e-05
2.23013e-05
2.22871e-05
2.22667e-05
2.22563e-05
2.22561e-05
2.22516e-05
2.22273e-05
2.2183e-05
2.21355e-05
2.21058e-05
2.21061e-05
2.2136e-05
2.21837e-05
2.22284e-05
2.22487e-05
2.22362e-05
2.22022e-05
2.21674e-05
1.5268e-05
1.88516e-05
1.91773e-05
1.94906e-05
1.97903e-05
2.00751e-05
2.03437e-05
2.05953e-05
2.08295e-05
2.10465e-05
2.1247e-05
2.14315e-05
2.1601e-05
2.17556e-05
2.18951e-05
2.20181e-05
2.21221e-05
2.22036e-05
2.22579e-05
2.22803e-05
2.22669e-05
2.22173e-05
2.21362e-05
2.2035e-05
2.19317e-05
2.18484e-05
2.18067e-05
2.18208e-05
2.18904e-05
2.20064e-05
2.22179e-05
2.22824e-05
2.22971e-05
2.22837e-05
2.22641e-05
2.2254e-05
2.22537e-05
2.22487e-05
2.2224e-05
2.21794e-05
2.21315e-05
2.2101e-05
2.21002e-05
2.21288e-05
2.21751e-05
2.22184e-05
2.22372e-05
2.22224e-05
2.21849e-05
2.21452e-05
1.52186e-05
1.88051e-05
1.91294e-05
1.94421e-05
1.97418e-05
2.00272e-05
2.02969e-05
2.05499e-05
2.07856e-05
2.10041e-05
2.12056e-05
2.13911e-05
2.15612e-05
2.17164e-05
2.18566e-05
2.19807e-05
2.20866e-05
2.21706e-05
2.22284e-05
2.2255e-05
2.22466e-05
2.22023e-05
2.21268e-05
2.20311e-05
2.19331e-05
2.18545e-05
2.18161e-05
2.18314e-05
2.18998e-05
2.20125e-05
2.22188e-05
2.22808e-05
2.22951e-05
2.22822e-05
2.22631e-05
2.22531e-05
2.22524e-05
2.22469e-05
2.22217e-05
2.21768e-05
2.21286e-05
2.20975e-05
2.20955e-05
2.21226e-05
2.21673e-05
2.22092e-05
2.22265e-05
2.22097e-05
2.21689e-05
2.21242e-05
1.5177e-05
1.87662e-05
1.90891e-05
1.9401e-05
1.97004e-05
1.9986e-05
2.02562e-05
2.051e-05
2.07465e-05
2.09657e-05
2.11678e-05
2.13536e-05
2.15238e-05
2.16791e-05
2.18195e-05
2.19441e-05
2.20511e-05
2.2137e-05
2.21976e-05
2.2228e-05
2.22241e-05
2.21851e-05
2.21153e-05
2.20258e-05
2.19341e-05
2.18612e-05
2.18273e-05
2.18449e-05
2.19125e-05
2.2022e-05
2.22227e-05
2.22821e-05
2.22954e-05
2.22827e-05
2.22638e-05
2.22536e-05
2.22524e-05
2.22461e-05
2.22204e-05
2.21754e-05
2.21271e-05
2.20954e-05
2.20922e-05
2.21177e-05
2.21606e-05
2.2201e-05
2.2217e-05
2.21984e-05
2.21543e-05
2.21047e-05
1.51433e-05
1.87351e-05
1.9057e-05
1.9368e-05
1.96668e-05
1.9952e-05
2.02222e-05
2.04761e-05
2.07128e-05
2.09321e-05
2.11341e-05
2.13196e-05
2.14895e-05
2.16443e-05
2.17844e-05