/*--------------------------------*- C++ -*----------------------------------*\
  =========                 |
  \\      /  F ield         | OpenFOAM: The Open Source CFD Toolbox
   \\    /   O peration     | Website:  https://openfoam.org
    \\  /    A nd           | Version:  9
     \\/     M anipulation  |
\*---------------------------------------------------------------------------*/
FoamFile
{
    format      ascii;
    class       volVectorField;
    location    "0.09";
    object      U;
}
// * * * * * * * * * * * * * * * * * * * * * * * * * * * * * * * * * * * * * //

dimensions      [0 1 -1 0 0 0 0];

internalField   nonuniform List<vector> 
5000
(
(-0.0566153 0 -0.006421)
(-0.0565612 0 -0.0126852)
(-0.0565073 0 -0.0148171)
(-0.0564708 0 -0.0135796)
(-0.0564778 0 -0.00925891)
(-0.0565552 0 -0.00189072)
(-0.0567219 0 0.00857718)
(-0.0569881 0 0.0221893)
(-0.0573523 0 0.0389186)
(-0.0577979 0 0.0585899)
(-0.0582905 0 0.0807891)
(-0.0587767 0 0.104772)
(-0.0591873 0 0.129398)
(-0.0594475 0 0.153133)
(-0.0594969 0 0.17417)
(-0.0593207 0 0.190741)
(-0.0589893 0 0.201646)
(-0.0586933 0 0.206957)
(-0.0587502 0 0.208676)
(-0.0595533 0 0.21091)
(-0.0614441 0 0.219012)
(-0.064532 0 0.237369)
(-0.0685458 0 0.266264)
(-0.072836 0 0.299383)
(-0.0766125 0 0.32428)
(-0.0793624 0 0.327286)
(-0.0812303 0 0.30146)
(-0.0830562 0 0.252819)
(-0.0858584 0 0.199171)
(-0.0899614 0 0.160261)
(-0.0949023 0 0.145096)
(-0.0986158 0 0.15257)
(-0.099598 0 0.167462)
(-0.0991871 0 0.180673)
(-0.099359 0 0.192997)
(-0.101356 0 0.206136)
(-0.105129 0 0.217927)
(-0.109996 0 0.225577)
(-0.115435 0 0.229704)
(-0.121345 0 0.233306)
(-0.127795 0 0.238046)
(-0.134743 0 0.24285)
(-0.142 0 0.245454)
(-0.149333 0 0.244254)
(-0.15657 0 0.239073)
(-0.163697 0 0.231444)
(-0.170942 0 0.224683)
(-0.178744 0 0.222866)
(-0.187511 0 0.228526)
(-0.197281 0 0.240929)
(-0.0565416 0 -0.00649678)
(-0.0564953 0 -0.0128174)
(-0.0564692 0 -0.0149193)
(-0.0564656 0 -0.0135748)
(-0.0565144 0 -0.00908641)
(-0.0566433 0 -0.00151059)
(-0.0568702 0 0.00918022)
(-0.0572036 0 0.0230021)
(-0.0576391 0 0.0398971)
(-0.058156 0 0.0596584)
(-0.0587145 0 0.081843)
(-0.0592551 0 0.105686)
(-0.0597024 0 0.130047)
(-0.0599769 0 0.153417)
(-0.060016 0 0.174057)
(-0.059807 0 0.190314)
(-0.0594264 0 0.201134)
(-0.0590728 0 0.20674)
(-0.0590688 0 0.20922)
(-0.0598042 0 0.212622)
(-0.0616056 0 0.222056)
(-0.064561 0 0.241515)
(-0.0683853 0 0.27088)
(-0.0724401 0 0.303649)
(-0.0759798 0 0.327571)
(-0.0785557 0 0.329525)
(-0.0803591 0 0.303202)
(-0.0822131 0 0.254911)
(-0.085037 0 0.202107)
(-0.0890352 0 0.163708)
(-0.0936699 0 0.148027)
(-0.0969583 0 0.153993)
(-0.0976248 0 0.167568)
(-0.0970786 0 0.180555)
(-0.0972285 0 0.193709)
(-0.099217 0 0.208049)
(-0.10293 0 0.220788)
(-0.107675 0 0.228981)
(-0.112945 0 0.233442)
(-0.118657 0 0.237362)
(-0.124881 0 0.242428)
(-0.131564 0 0.247487)
(-0.138502 0 0.25021)
(-0.145447 0 0.248987)
(-0.152217 0 0.243702)
(-0.158791 0 0.236027)
(-0.165395 0 0.229451)
(-0.172448 0 0.228111)
(-0.180304 0 0.234374)
(-0.188965 0 0.247232)
(-0.0566117 0 -0.00654558)
(-0.0565736 0 -0.012888)
(-0.0565782 0 -0.0149331)
(-0.0566111 0 -0.0134586)
(-0.0567058 0 -0.00878215)
(-0.0568905 0 -0.000981747)
(-0.0571817 0 0.00994356)
(-0.0575854 0 0.0239794)
(-0.0580937 0 0.0410351)
(-0.058681 0 0.0608708)
(-0.0593012 0 0.0830142)
(-0.0598884 0 0.106682)
(-0.0603608 0 0.130733)
(-0.060634 0 0.153692)
(-0.0606441 0 0.173895)
(-0.060381 0 0.189806)
(-0.0599282 0 0.200526)
(-0.0594928 0 0.206423)
(-0.0594026 0 0.209659)
(-0.0600434 0 0.214214)
(-0.0617271 0 0.224945)
(-0.0645219 0 0.245453)
(-0.0681311 0 0.275239)
(-0.0719307 0 0.307647)
(-0.0752212 0 0.330639)
(-0.0776162 0 0.331637)
(-0.0793475 0 0.304917)
(-0.0812142 0 0.257015)
(-0.0840362 0 0.204997)
(-0.0879079 0 0.166994)
(-0.0922318 0 0.150707)
(-0.0951204 0 0.155182)
(-0.0955143 0 0.167539)
(-0.0948718 0 0.180397)
(-0.0950233 0 0.194417)
(-0.0970091 0 0.209937)
(-0.100657 0 0.223579)
(-0.105268 0 0.232278)
(-0.110359 0 0.23705)
(-0.115863 0 0.241272)
(-0.121848 0 0.246643)
(-0.128251 0 0.251924)
(-0.134858 0 0.254721)
(-0.14141 0 0.253425)
(-0.147715 0 0.247991)
(-0.15374 0 0.240228)
(-0.1597 0 0.233778)
(-0.166009 0 0.232822)
(-0.172989 0 0.23957)
(-0.180555 0 0.252706)
(-0.0568494 0 -0.00656793)
(-0.0568173 0 -0.0128944)
(-0.0568531 0 -0.0148522)
(-0.0569241 0 -0.0132219)
(-0.0570676 0 -0.00833557)
(-0.0573121 0 -0.000293837)
(-0.0576712 0 0.0108756)
(-0.0581479 0 0.025126)
(-0.0587297 0 0.0423321)
(-0.0593851 0 0.0622201)
(-0.0600614 0 0.0842885)
(-0.0606854 0 0.107737)
(-0.0611689 0 0.131428)
(-0.0614233 0 0.153926)
(-0.0613836 0 0.173647)
(-0.0610437 0 0.189181)
(-0.0604947 0 0.199785)
(-0.0599526 0 0.205968)
(-0.0597503 0 0.209957)
(-0.0602695 0 0.21565)
(-0.0618076 0 0.227644)
(-0.0644141 0 0.249151)
(-0.0677839 0 0.279318)
(-0.07131 0 0.31136)
(-0.0743396 0 0.333476)
(-0.0765457 0 0.333615)
(-0.0781947 0 0.306593)
(-0.0800559 0 0.259111)
(-0.082851 0 0.207819)
(-0.0865755 0 0.170107)
(-0.0905877 0 0.153143)
(-0.0931063 0 0.156162)
(-0.093274 0 0.167408)
(-0.0925774 0 0.180225)
(-0.0927581 0 0.195133)
(-0.0947507 0 0.2118)
(-0.0983273 0 0.226294)
(-0.102792 0 0.235455)
(-0.107689 0 0.240512)
(-0.112972 0 0.245022)
(-0.11871 0 0.250683)
(-0.12483 0 0.256157)
(-0.131104 0 0.258985)
(-0.137262 0 0.257565)
(-0.143099 0 0.25193)
(-0.14858 0 0.244029)
(-0.153913 0 0.237647)
(-0.159496 0 0.236987)
(-0.165628 0 0.244101)
(-0.172154 0 0.257403)
(-0.0572674 0 -0.00656898)
(-0.0572368 0 -0.0128426)
(-0.0573012 0 -0.014678)
(-0.0574111 0 -0.0128602)
(-0.0576069 0 -0.00773814)
(-0.0579157 0 0.000562735)
(-0.0583474 0 0.0119843)
(-0.0589002 0 0.0264457)
(-0.0595561 0 0.0437859)
(-0.060277 0 0.063697)
(-0.0610027 0 0.0856489)
(-0.0616523 0 0.108826)
(-0.0621314 0 0.132102)
(-0.0623474 0 0.154082)
(-0.0622356 0 0.173274)
(-0.0617946 0 0.188398)
(-0.0611243 0 0.198869)
(-0.0604501 0 0.205334)
(-0.0601096 0 0.210074)
(-0.0604801 0 0.216892)
(-0.0618446 0 0.230115)
(-0.0642359 0 0.252579)
(-0.0673431 0 0.283093)
(-0.0705787 0 0.314776)
(-0.0733365 0 0.336075)
(-0.0753457 0 0.335455)
(-0.0769008 0 0.308222)
(-0.0787366 0 0.261184)
(-0.0814799 0 0.21056)
(-0.0850392 0 0.173041)
(-0.0887429 0 0.155346)
(-0.0909246 0 0.156956)
(-0.0909138 0 0.167197)
(-0.0902062 0 0.180055)
(-0.0904435 0 0.195868)
(-0.0924522 0 0.213644)
(-0.0959528 0 0.228936)
(-0.100258 0 0.238517)
(-0.104948 0 0.243835)
(-0.11 0 0.248616)
(-0.115486 0 0.254545)
(-0.121321 0 0.260185)
(-0.127261 0 0.26301)
(-0.133027 0 0.261425)
(-0.138405 0 0.255542)
(-0.143355 0 0.247449)
(-0.148083 0 0.241074)
(-0.152972 0 0.240637)
(-0.15829 0 0.248012)
(-0.163843 0 0.261362)
(-0.0578574 0 -0.00656079)
(-0.0578236 0 -0.0127461)
(-0.057915 0 -0.0144144)
(-0.0580672 0 -0.0123667)
(-0.0583223 0 -0.00697678)
(-0.0587034 0 0.00160214)
(-0.0592148 0 0.0132808)
(-0.0598487 0 0.0279439)
(-0.0605803 0 0.0453947)
(-0.0613638 0 0.065291)
(-0.062131 0 0.0870763)
(-0.0627936 0 0.109924)
(-0.0632509 0 0.13272)
(-0.0634073 0 0.154124)
(-0.0631995 0 0.172736)
(-0.0626322 0 0.187418)
(-0.0618152 0 0.197741)
(-0.0609834 0 0.204485)
(-0.0604787 0 0.209974)
(-0.0606735 0 0.217903)
(-0.0618369 0 0.232326)
(-0.0639863 0 0.255707)
(-0.0668082 0 0.286542)
(-0.0697366 0 0.317879)
(-0.0722122 0 0.338427)
(-0.074016 0 0.337146)
(-0.0754649 0 0.309788)
(-0.0772555 0 0.263215)
(-0.0799243 0 0.213202)
(-0.083304 0 0.175792)
(-0.0867064 0 0.15733)
(-0.0885865 0 0.15759)
(-0.0884444 0 0.166936)
(-0.0877666 0 0.17991)
(-0.088087 0 0.196631)
(-0.0901213 0 0.21547)
(-0.0935421 0 0.231499)
(-0.097678 0 0.241457)
(-0.102149 0 0.247011)
(-0.106963 0 0.252048)
(-0.112193 0 0.258227)
(-0.117742 0 0.264007)
(-0.123353 0 0.266794)
(-0.128736 0 0.265003)
(-0.133668 0 0.258825)
(-0.138105 0 0.250493)
(-0.142255 0 0.244073)
(-0.146484 0 0.243796)
(-0.151035 0 0.251343)
(-0.155683 0 0.264632)
(-0.0585965 0 -0.00655028)
(-0.0585619 0 -0.0126096)
(-0.0586861 0 -0.0140522)
(-0.0588909 0 -0.0117198)
(-0.0592177 0 -0.00602476)
(-0.0596833 0 0.00284901)
(-0.0602843 0 0.014783)
(-0.0610052 0 0.0296296)
(-0.0618137 0 0.047157)
(-0.0626559 0 0.0669903)
(-0.0634552 0 0.0885486)
(-0.0641157 0 0.110998)
(-0.0645312 0 0.133245)
(-0.0646044 0 0.154009)
(-0.0642747 0 0.171993)
(-0.0635547 0 0.186201)
(-0.0625649 0 0.196362)
(-0.0615498 0 0.203385)
(-0.0608554 0 0.209622)
(-0.0608482 0 0.21865)
(-0.0617835 0 0.234244)
(-0.0636649 0 0.258505)
(-0.066179 0 0.289643)
(-0.0687839 0 0.320654)
(-0.0709663 0 0.340519)
(-0.0725558 0 0.338676)
(-0.0738859 0 0.311274)
(-0.0756122 0 0.265183)
(-0.0781859 0 0.215729)
(-0.0813757 0 0.178358)
(-0.0844881 0 0.15911)
(-0.0861036 0 0.158094)
(-0.0858766 0 0.166655)
(-0.0852685 0 0.179813)
(-0.0856973 0 0.197436)
(-0.0877662 0 0.217278)
(-0.0911037 0 0.233977)
(-0.0950608 0 0.244263)
(-0.0993046 0 0.250032)
(-0.103875 0 0.255313)
(-0.108848 0 0.261729)
(-0.114114 0 0.267624)
(-0.119404 0 0.270341)
(-0.124414 0 0.268307)
(-0.128917 0 0.261793)
(-0.132866 0 0.25318)
(-0.136466 0 0.24667)
(-0.140076 0 0.246494)
(-0.143913 0 0.254137)
(-0.14773 0 0.267273)
(-0.0594827 0 -0.00652364)
(-0.0594651 0 -0.0124047)
(-0.0596403 0 -0.0135523)
(-0.0599135 0 -0.0108759)
(-0.060326 0 -0.00484181)
(-0.0608877 0 0.00433532)
(-0.061586 0 0.016512)
(-0.0623974 0 0.0315112)
(-0.0632809 0 0.0490686)
(-0.064174 0 0.0687783)
(-0.0649917 0 0.0900382)
(-0.0656307 0 0.112012)
(-0.0659804 0 0.133635)
(-0.0659429 0 0.153692)
(-0.0654625 0 0.170998)
(-0.0645612 0 0.184703)
(-0.0633711 0 0.194694)
(-0.0621467 0 0.201996)
(-0.061237 0 0.208983)
(-0.0610017 0 0.219097)
(-0.0616821 0 0.235834)
(-0.0632697 0 0.260946)
(-0.0654538 0 0.292372)
(-0.0677187 0 0.323085)
(-0.0695971 0 0.342342)
(-0.0709629 0 0.340036)
(-0.0721616 0 0.312665)
(-0.073806 0 0.267071)
(-0.0762675 0 0.218129)
(-0.0792614 0 0.180739)
(-0.0820988 0 0.160703)
(-0.083488 0 0.158497)
(-0.0832218 0 0.166384)
(-0.0827216 0 0.179786)
(-0.083283 0 0.198294)
(-0.0853949 0 0.219071)
(-0.0886458 0 0.236365)
(-0.0924154 0 0.246931)
(-0.0964247 0 0.252894)
(-0.100747 0 0.258411)
(-0.105465 0 0.265051)
(-0.110454 0 0.271042)
(-0.115432 0 0.273661)
(-0.120085 0 0.271348)
(-0.12418 0 0.264463)
(-0.127666 0 0.255532)
(-0.130753 0 0.24889)
(-0.133788 0 0.248762)
(-0.136967 0 0.256436)
(-0.140028 0 0.269345)
(-0.0606246 0 -0.00642364)
(-0.0606333 0 -0.0120586)
(-0.0608753 0 -0.0128595)
(-0.0612254 0 -0.00979642)
(-0.0617276 0 -0.00340091)
(-0.0623863 0 0.00607796)
(-0.0631801 0 0.0184739)
(-0.0640763 0 0.0335838)
(-0.0650247 0 0.0511125)
(-0.0659533 0 0.0706263)
(-0.0667682 0 0.0915061)
(-0.0673594 0 0.11292)
(-0.0676127 0 0.133838)
(-0.0674318 0 0.15312)
(-0.0667674 0 0.1697)
(-0.0656526 0 0.182878)
(-0.0642325 0 0.192694)
(-0.0627713 0 0.200282)
(-0.0616198 0 0.208019)
(-0.0611299 0 0.219209)
(-0.0615285 0 0.237065)
(-0.0627965 0 0.262999)
(-0.0646282 0 0.294708)
(-0.0665365 0 0.325158)
(-0.0680995 0 0.343885)
(-0.0692327 0 0.341213)
(-0.0702887 0 0.313949)
(-0.0718363 0 0.268866)
(-0.0741729 0 0.220393)
(-0.0769695 0 0.182941)
(-0.0795507 0 0.162129)
(-0.0807529 0 0.158825)
(-0.0804912 0 0.16615)
(-0.0801348 0 0.17985)
(-0.080851 0 0.199216)
(-0.0830138 0 0.220849)
(-0.0861749 0 0.238659)
(-0.0897497 0 0.249456)
(-0.0935185 0 0.255593)
(-0.0975924 0 0.26134)
(-0.102057 0 0.268197)
(-0.106778 0 0.274268)
(-0.111457 0 0.276763)
(-0.115771 0 0.27414)
(-0.11948 0 0.266851)
(-0.122535 0 0.25757)
(-0.125144 0 0.250761)
(-0.127651 0 0.250636)
(-0.130229 0 0.258285)
(-0.13261 0 0.270907)
(-0.0621651 0 -0.00625515)
(-0.0621879 0 -0.0115562)
(-0.0625006 0 -0.0119583)
(-0.0629287 0 -0.00848009)
(-0.0635163 0 -0.00171232)
(-0.0642638 0 0.00805987)
(-0.0651414 0 0.0206459)
(-0.0661073 0 0.0358169)
(-0.0671008 0 0.0532496)
(-0.0680398 0 0.0724859)
(-0.0688215 0 0.0928958)
(-0.0693296 0 0.113659)
(-0.0694481 0 0.133789)
(-0.0690836 0 0.152231)
(-0.0681959 0 0.168041)
(-0.066831 0 0.180674)
(-0.0651476 0 0.190316)
(-0.0634196 0 0.198201)
(-0.0619983 0 0.206695)
(-0.0612263 0 0.218951)
(-0.0613156 0 0.237901)
(-0.0622377 0 0.264637)
(-0.0636946 0 0.296629)
(-0.0652295 0 0.326858)
(-0.0664663 0 0.345138)
(-0.0673585 0 0.342199)
(-0.0682623 0 0.315114)
(-0.069702 0 0.270556)
(-0.0719061 0 0.222519)
(-0.0745097 0 0.184971)
(-0.0768572 0 0.163409)
(-0.077912 0 0.159107)
(-0.0776964 0 0.165977)
(-0.0775166 0 0.180022)
(-0.0784077 0 0.200211)
(-0.0806277 0 0.222616)
(-0.0836961 0 0.240857)
(-0.0870698 0 0.251833)
(-0.090594 0 0.258127)
(-0.0944194 0 0.264103)
(-0.0986373 0 0.271172)
(-0.1031 0 0.277308)
(-0.107496 0 0.279657)
(-0.11149 0 0.276698)
(-0.114839 0 0.268976)
(-0.117495 0 0.259317)
(-0.119666 0 0.25231)
(-0.121691 0 0.25215)
(-0.123727 0 0.259729)
(-0.125499 0 0.272016)
(-0.0641874 0 -0.00605856)
(-0.0642172 0 -0.0109275)
(-0.0646021 0 -0.0108602)
(-0.0651068 0 -0.00694057)
(-0.0657741 0 0.000199653)
(-0.0665993 0 0.0102471)
(-0.0675449 0 0.0229856)
(-0.0685587 0 0.0381595)
(-0.0695695 0 0.0554195)
(-0.0704846 0 0.0742882)
(-0.071193 0 0.0941314)
(-0.0715732 0 0.114149)
(-0.0715091 0 0.133408)
(-0.0709129 0 0.150947)
(-0.0697557 0 0.165953)
(-0.0680985 0 0.178031)
(-0.0661143 0 0.187511)
(-0.064086 0 0.195709)
(-0.0623643 0 0.20497)
(-0.061281 0 0.218286)
(-0.0610327 0 0.238311)
(-0.0615824 0 0.265829)
(-0.0626419 0 0.298112)
(-0.063787 0 0.328169)
(-0.0646871 0 0.346091)
(-0.0653314 0 0.342986)
(-0.0660764 0 0.316152)
(-0.0674014 0 0.272136)
(-0.0694714 0 0.224507)
(-0.0718918 0 0.186841)
(-0.074032 0 0.164564)
(-0.0749795 0 0.159369)
(-0.0748489 0 0.16589)
(-0.0748753 0 0.18032)
(-0.075958 0 0.201286)
(-0.0782403 0 0.224371)
(-0.0812128 0 0.242957)
(-0.0843805 0 0.254061)
(-0.0876577 0 0.260497)
(-0.0912371 0 0.266702)
(-0.0952154 0 0.273981)
(-0.0994324 0 0.280172)
(-0.103562 0 0.282357)
(-0.107259 0 0.279036)
(-0.110276 0 0.270858)
(-0.112566 0 0.260796)
(-0.114338 0 0.253567)
(-0.115929 0 0.25334)
(-0.11748 0 0.26081)
(-0.118714 0 0.272725)
(-0.0667681 0 -0.005804)
(-0.0668195 0 -0.0101558)
(-0.0672821 0 -0.00956344)
(-0.0678583 0 -0.00518679)
(-0.0685948 0 0.0023128)
(-0.0694825 0 0.0126027)
(-0.0704738 0 0.0254413)
(-0.0715059 0 0.0405458)
(-0.0724964 0 0.0575436)
(-0.0733428 0 0.0759439)
(-0.0739265 0 0.0951163)
(-0.0741229 0 0.114291)
(-0.0738183 0 0.1326)
(-0.0729333 0 0.14918)
(-0.071453 0 0.163356)
(-0.0694549 0 0.174882)
(-0.0671275 0 0.18422)
(-0.0647619 0 0.192759)
(-0.0627065 0 0.202803)
(-0.0612807 0 0.217175)
(-0.0606652 0 0.238258)
(-0.0608156 0 0.266547)
(-0.0614556 0 0.299135)
(-0.0621953 0 0.329077)
(-0.0627493 0 0.346736)
(-0.0631408 0 0.343569)
(-0.0637238 0 0.317059)
(-0.0649327 0 0.273604)
(-0.0668731 0 0.226363)
(-0.0691258 0 0.188567)
(-0.071089 0 0.165619)
(-0.0719693 0 0.159636)
(-0.0719599 0 0.165911)
(-0.0722181 0 0.180757)
(-0.0735062 0 0.20245)
(-0.0758537 0 0.226116)
(-0.0787273 0 0.244954)
(-0.0816852 0 0.256136)
(-0.0847149 0 0.262702)
(-0.0880524 0 0.26914)
(-0.0918005 0 0.276633)
(-0.0957862 0 0.282871)
(-0.0996685 0 0.284875)
(-0.103093 0 0.281174)
(-0.105807 0 0.272517)
(-0.107764 0 0.262033)
(-0.109179 0 0.25456)
(-0.110383 0 0.25424)
(-0.111504 0 0.26157)
(-0.112265 0 0.273086)
(-0.0700352 0 -0.00544097)
(-0.0701186 0 -0.00920716)
(-0.0706609 0 -0.00807345)
(-0.0712975 0 -0.00324655)
(-0.0720866 0 0.00458526)
(-0.0730136 0 0.0150699)
(-0.074019 0 0.0279398)
(-0.0750286 0 0.0428864)
(-0.0759491 0 0.0595182)
(-0.0766687 0 0.0773386)
(-0.0770634 0 0.0957307)
(-0.077008 0 0.113965)
(-0.0763939 0 0.131247)
(-0.0751538 0 0.146825)
(-0.0732889 0 0.160159)
(-0.0708957 0 0.171149)
(-0.068178 0 0.180381)
(-0.0654344 0 0.189296)
(-0.0630093 0 0.200145)
(-0.0612079 0 0.215577)
(-0.0601948 0 0.237708)
(-0.059919 0 0.26676)
(-0.0601181 0 0.299676)
(-0.0604378 0 0.329569)
(-0.0606384 0 0.347066)
(-0.0607749 0 0.343944)
(-0.0611967 0 0.317835)
(-0.0622936 0 0.274963)
(-0.0641153 0 0.228097)
(-0.0662217 0 0.190169)
(-0.0680418 0 0.166599)
(-0.0688951 0 0.159935)
(-0.0690399 0 0.166059)
(-0.0695515 0 0.181345)
(-0.071055 0 0.203706)
(-0.0734687 0 0.227849)
(-0.0762402 0 0.246847)
(-0.078986 0 0.258058)
(-0.0817696 0 0.264745)
(-0.0848714 0 0.271424)
(-0.0884003 0 0.279134)
(-0.0921706 0 0.285416)
(-0.0958264 0 0.287227)
(-0.0990029 0 0.283128)
(-0.101443 0 0.273975)
(-0.103104 0 0.263053)
(-0.104202 0 0.25532)
(-0.105064 0 0.254885)
(-0.105809 0 0.262049)
(-0.106159 0 0.273145)
(-0.0741249 0 -0.00496419)
(-0.0742331 0 -0.00808335)
(-0.0748497 0 -0.00641783)
(-0.0755318 0 -0.00116941)
(-0.076351 0 0.00695084)
(-0.0772854 0 0.017565)
(-0.0782628 0 0.0303784)
(-0.0791968 0 0.0450605)
(-0.0799839 0 0.0612083)
(-0.080505 0 0.0783282)
(-0.0806332 0 0.0958273)
(-0.0802459 0 0.113028)
(-0.0792435 0 0.129219)
(-0.0775735 0 0.143763)
(-0.0752567 0 0.156259)
(-0.0724093 0 0.166748)
(-0.0692506 0 0.175924)
(-0.0660855 0 0.185262)
(-0.0632523 0 0.196949)
(-0.061041 0 0.21345)
(-0.0595996 0 0.236623)
(-0.0588714 0 0.266441)
(-0.0586095 0 0.299716)
(-0.0584966 0 0.329635)
(-0.0583387 0 0.347077)
(-0.058221 0 0.344113)
(-0.0584869 0 0.318483)
(-0.0594817 0 0.276225)
(-0.0612022 0 0.229728)
(-0.0631892 0 0.191669)
(-0.0649035 0 0.16753)
(-0.0657695 0 0.160288)
(-0.0660984 0 0.166351)
(-0.0668808 0 0.182094)
(-0.0686058 0 0.205056)
(-0.0710845 0 0.229569)
(-0.0737508 0 0.248635)
(-0.0762835 0 0.259828)
(-0.0788245 0 0.266629)
(-0.0816985 0 0.273559)
(-0.0850208 0 0.281496)
(-0.088593 0 0.28782)
(-0.0920443 0 0.289429)
(-0.094999 0 0.284918)
(-0.0971965 0 0.275255)
(-0.0985966 0 0.263881)
(-0.0994174 0 0.255873)
(-0.0999831 0 0.255307)
(-0.100403 0 0.262286)
(-0.1004 0 0.272944)
(-0.0791528 0 -0.00439506)
(-0.0792701 0 -0.00681278)
(-0.0799496 0 -0.00463459)
(-0.0806575 0 0.000987205)
(-0.0814764 0 0.00932788)
(-0.0823754 0 0.0199807)
(-0.0832688 0 0.0326254)
(-0.0840593 0 0.0469163)
(-0.0846349 0 0.0624478)
(-0.0848718 0 0.0787398)
(-0.0846436 0 0.0952342)
(-0.0838341 0 0.111315)
(-0.0823565 0 0.126363)
(-0.0801766 0 0.139863)
(-0.0773368 0 0.151547)
(-0.073974 0 0.161589)
(-0.0703224 0 0.170774)
(-0.0666912 0 0.180598)
(-0.0634111 0 0.193163)
(-0.0607553 0 0.210749)
(-0.0588553 0 0.234967)
(-0.0576497 0 0.265562)
(-0.0569086 0 0.299238)
(-0.0563529 0 0.329265)
(-0.0558339 0 0.34677)
(-0.0554661 0 0.344081)
(-0.0555858 0 0.319015)
(-0.0564944 0 0.277402)
(-0.0581374 0 0.231274)
(-0.0600372 0 0.193094)
(-0.061686 0 0.16844)
(-0.0626041 0 0.160718)
(-0.0631434 0 0.166801)
(-0.0642095 0 0.18301)
(-0.0661581 0 0.206503)
(-0.0686987 0 0.231276)
(-0.0712569 0 0.250317)
(-0.0735774 0 0.261447)
(-0.0758811 0 0.268358)
(-0.0785372 0 0.275553)
(-0.0816669 0 0.283728)
(-0.0850596 0 0.290096)
(-0.0883291 0 0.291496)
(-0.0910893 0 0.286563)
(-0.0930755 0 0.276378)
(-0.0942501 0 0.264541)
(-0.0948341 0 0.256249)
(-0.0951477 0 0.255538)
(-0.0952929 0 0.262315)
(-0.09499 0 0.272523)
(-0.0852338 0 -0.00376009)
(-0.0853394 0 -0.00544124)
(-0.0860602 0 -0.00278303)
(-0.0867608 0 0.00313992)
(-0.0875331 0 0.0116019)
(-0.0883359 0 0.022172)
(-0.0890713 0 0.0345105)
(-0.0896327 0 0.0482651)
(-0.0899027 0 0.0630381)
(-0.0897565 0 0.0783733)
(-0.0890718 0 0.0937584)
(-0.0877429 0 0.108649)
(-0.0856993 0 0.122524)
(-0.0829281 0 0.13499)
(-0.0794946 0 0.145912)
(-0.0755567 0 0.155581)
(-0.0713619 0 0.164859)
(-0.0672216 0 0.175243)
(-0.063457 0 0.188737)
(-0.0603234 0 0.207434)
(-0.0579361 0 0.232709)
(-0.0562303 0 0.264099)
(-0.0549945 0 0.298226)
(-0.0539885 0 0.328454)
(-0.0531086 0 0.346145)
(-0.052498 0 0.343856)
(-0.0524852 0 0.319445)
(-0.0533286 0 0.278516)
(-0.0549236 0 0.232764)
(-0.0567734 0 0.194474)
(-0.0583997 0 0.169357)
(-0.0594082 0 0.161247)
(-0.0601809 0 0.167422)
(-0.061539 0 0.184097)
(-0.0637097 0 0.208044)
(-0.0663073 0 0.232966)
(-0.068755 0 0.251892)
(-0.070866 0 0.262917)
(-0.07294 0 0.269938)
(-0.0753897 0 0.277414)
(-0.0783423 0 0.285841)
(-0.0815748 0 0.292259)
(-0.0846861 0 0.293447)
(-0.0872795 0 0.288083)
(-0.0890863 0 0.277367)
(-0.0900712 0 0.265061)
(-0.0904579 0 0.256476)
(-0.0905631 0 0.255609)
(-0.0904816 0 0.26217)
(-0.089931 0 0.271916)
(-0.0924631 0 -0.00309761)
(-0.0925275 0 -0.00404597)
(-0.0932496 0 -0.000969423)
(-0.0938879 0 0.00515015)
(-0.0945446 0 0.0136011)
(-0.0951683 0 0.023939)
(-0.0956512 0 0.0358141)
(-0.0958809 0 0.0488775)
(-0.0957382 0 0.0627489)
(-0.0951008 0 0.0770068)
(-0.0938548 0 0.0911938)
(-0.0919084 0 0.104844)
(-0.0892106 0 0.117542)
(-0.0857715 0 0.129012)
(-0.0816799 0 0.139246)
(-0.0771131 0 0.148639)
(-0.0723302 0 0.158111)
(-0.0676423 0 0.16914)
(-0.0633589 0 0.183623)
(-0.0597172 0 0.203465)
(-0.0568167 0 0.229815)
(-0.054591 0 0.262029)
(-0.0528479 0 0.296668)
(-0.0513866 0 0.3272)
(-0.0501487 0 0.345209)
(-0.0493052 0 0.343451)
(-0.0491772 0 0.319789)
(-0.049981 0 0.279592)
(-0.0515627 0 0.234228)
(-0.0534037 0 0.195842)
(-0.0550524 0 0.17031)
(-0.0561888 0 0.161894)
(-0.0572144 0 0.168221)
(-0.0588685 0 0.185356)
(-0.0612562 0 0.209676)
(-0.0639047 0 0.234637)
(-0.0662403 0 0.25336)
(-0.0681467 0 0.264242)
(-0.0700009 0 0.271376)
(-0.0722574 0 0.279152)
(-0.0750494 0 0.287848)
(-0.0781419 0 0.294323)
(-0.0811191 0 0.295298)
(-0.0835737 0 0.289498)
(-0.0852332 0 0.278245)
(-0.0860642 0 0.265463)
(-0.0862929 0 0.25658)
(-0.086233 0 0.25555)
(-0.0859722 0 0.261885)
(-0.0852246 0 0.27116)
(-0.100907 0 -0.00247388)
(-0.100877 0 -0.00275987)
(-0.101527 0 0.000628416)
(-0.102016 0 0.00680518)
(-0.102459 0 0.0150859)
(-0.102797 0 0.025025)
(-0.102915 0 0.0362726)
(-0.102698 0 0.0484925)
(-0.102029 0 0.0613311)
(-0.100792 0 0.0744102)
(-0.0988837 0 0.0873356)
(-0.0962301 0 0.0997265)
(-0.092801 0 0.111272)
(-0.0886298 0 0.121814)
(-0.083828 0 0.131458)
(-0.0785902 0 0.140691)
(-0.0731837 0 0.15047)
(-0.067917 0 0.16224)
(-0.0630862 0 0.177779)
(-0.0589102 0 0.198806)
(-0.0554744 0 0.22626)
(-0.0527121 0 0.259336)
(-0.0504521 0 0.294556)
(-0.0485334 0 0.325502)
(-0.0469421 0 0.343969)
(-0.0458776 0 0.34288)
(-0.0456542 0 0.320072)
(-0.0464477 0 0.280659)
(-0.0480548 0 0.235699)
(-0.0499318 0 0.197232)
(-0.0516497 0 0.171328)
(-0.0529498 0 0.162677)
(-0.0542442 0 0.169207)
(-0.0561944 0 0.186784)
(-0.0587912 0 0.211395)
(-0.0614836 0 0.236286)
(-0.0637071 0 0.254724)
(-0.0654161 0 0.265429)
(-0.0670623 0 0.272681)
(-0.0691407 0 0.280778)
(-0.0717896 0 0.289761)
(-0.0747628 0 0.296302)
(-0.0776303 0 0.297066)
(-0.0799744 0 0.290828)
(-0.0815188 0 0.279034)
(-0.0822318 0 0.265774)
(-0.0823418 0 0.25659)
(-0.0821597 0 0.255391)
(-0.081767 0 0.261491)
(-0.080873 0 0.270285)
(-0.110541 0 -0.00202503)
(-0.110322 0 -0.00182378)
(-0.110786 0 0.00172339)
(-0.111007 0 0.00779855)
(-0.111114 0 0.0157449)
(-0.111042 0 0.0251233)
(-0.110674 0 0.0355927)
(-0.109895 0 0.0468374)
(-0.108592 0 0.0585385)
(-0.106658 0 0.0703686)
(-0.104004 0 0.0820026)
(-0.100573 0 0.0931483)
(-0.0963564 0 0.103598)
(-0.0914101 0 0.113307)
(-0.0858652 0 0.122482)
(-0.0799305 0 0.131685)
(-0.0738782 0 0.141894)
(-0.0680111 0 0.154505)
(-0.0626114 0 0.171172)
(-0.0578804 0 0.193429)
(-0.0538912 0 0.222022)
(-0.0505793 0 0.256006)
(-0.0477955 0 0.291885)
(-0.0454188 0 0.323363)
(-0.0434801 0 0.342434)
(-0.042207 0 0.34216)
(-0.0419093 0 0.320316)
(-0.0427239 0 0.281748)
(-0.0443981 0 0.237216)
(-0.0463587 0 0.198682)
(-0.0481934 0 0.17244)
(-0.0496917 0 0.163612)
(-0.0512674 0 0.170382)
(-0.0535103 0 0.188379)
(-0.056306 0 0.213196)
(-0.0590354 0 0.237912)
(-0.0611486 0 0.255986)
(-0.06267 0 0.266484)
(-0.0641227 0 0.273861)
(-0.0660391 0 0.282301)
(-0.0685633 0 0.291592)
(-0.0714383 0 0.298213)
(-0.0742205 0 0.29877)
(-0.0764823 0 0.292092)
(-0.0779438 0 0.279756)
(-0.0785746 0 0.266019)
(-0.0786053 0 0.256533)
(-0.0783446 0 0.255162)
(-0.0778677 0 0.26102)
(-0.076878 0 0.269323)
(-0.121048 0 -0.00199636)
(-0.120555 0 -0.00161356)
(-0.120706 0 0.00191952)
(-0.120534 0 0.00774867)
(-0.120186 0 0.0152229)
(-0.11959 0 0.0239108)
(-0.118629 0 0.0334868)
(-0.117193 0 0.0436627)
(-0.115174 0 0.0541612)
(-0.112475 0 0.0647119)
(-0.109022 0 0.0750633)
(-0.104776 0 0.0850126)
(-0.0997474 0 0.0944542)
(-0.0940116 0 0.103446)
(-0.0877161 0 0.112287)
(-0.0810795 0 0.121596)
(-0.0743752 0 0.13236)
(-0.0678982 0 0.145912)
(-0.0619161 0 0.163777)
(-0.0566146 0 0.187312)
(-0.0520576 0 0.217083)
(-0.0481853 0 0.252028)
(-0.0448725 0 0.288652)
(-0.0420382 0 0.320786)
(-0.0397577 0 0.340614)
(-0.038288 0 0.341307)
(-0.0379365 0 0.320546)
(-0.0388045 0 0.282894)
(-0.0405892 0 0.238817)
(-0.0426824 0 0.200228)
(-0.044682 0 0.173675)
(-0.0464114 0 0.164715)
(-0.048278 0 0.171749)
(-0.0508068 0 0.190135)
(-0.0537899 0 0.215072)
(-0.0565501 0 0.239513)
(-0.0585572 0 0.257151)
(-0.0599039 0 0.267417)
(-0.0611796 0 0.274928)
(-0.0629516 0 0.283735)
(-0.0653699 0 0.293356)
(-0.068168 0 0.300071)
(-0.0708893 0 0.300427)
(-0.0730965 0 0.293312)
(-0.0745069 0 0.280435)
(-0.0750914 0 0.266222)
(-0.0750824 0 0.256438)
(-0.0747873 0 0.254895)
(-0.0742759 0 0.260506)
(-0.0732427 0 0.268311)
(-0.131804 0 -0.00251646)
(-0.130975 0 -0.00238436)
(-0.130709 0 0.000919689)
(-0.13006 0 0.00636386)
(-0.129179 0 0.013251)
(-0.127989 0 0.0211497)
(-0.126376 0 0.0297529)
(-0.124234 0 0.0388052)
(-0.121464 0 0.0480757)
(-0.11798 0 0.0573545)
(-0.113722 0 0.0664657)
(-0.108667 0 0.0752956)
(-0.102842 0 0.0838355)
(-0.0963382 0 0.0922382)
(-0.0893145 0 0.100882)
(-0.0819945 0 0.110431)
(-0.0746493 0 0.121866)
(-0.0675646 0 0.13645)
(-0.0609942 0 0.155578)
(-0.0551113 0 0.180437)
(-0.0499744 0 0.211428)
(-0.0455323 0 0.247393)
(-0.0416853 0 0.284853)
(-0.038393 0 0.317775)
(-0.0357745 0 0.338517)
(-0.034118 0 0.340336)
(-0.0337315 0 0.320788)
(-0.0346838 0 0.28413)
(-0.0366224 0 0.240541)
(-0.0388977 0 0.20191)
(-0.0411106 0 0.175062)
(-0.0431022 0 0.165998)
(-0.0452664 0 0.173309)
(-0.0480725 0 0.192046)
(-0.0512307 0 0.217018)
(-0.054017 0 0.241089)
(-0.0559252 0 0.258226)
(-0.057113 0 0.268237)
(-0.0582304 0 0.275894)
(-0.0598768 0 0.285092)
(-0.0622082 0 0.295066)
(-0.0649504 0 0.30189)
(-0.0676346 0 0.302054)
(-0.0698148 0 0.294506)
(-0.0712053 0 0.281093)
(-0.0717787 0 0.26641)
(-0.0717698 0 0.256333)
(-0.0714854 0 0.25462)
(-0.0709908 0 0.259984)
(-0.0699703 0 0.267287)
(-0.142449 0 -0.00386146)
(-0.141092 0 -0.00446491)
(-0.140267 0 -0.00155301)
(-0.139059 0 0.00342734)
(-0.13759 0 0.00966476)
(-0.135773 0 0.0167212)
(-0.133493 0 0.0243141)
(-0.130649 0 0.0322267)
(-0.127148 0 0.0402782)
(-0.122913 0 0.0483223)
(-0.117896 0 0.0562592)
(-0.112086 0 0.0640619)
(-0.105524 0 0.0718132)
(-0.0983112 0 0.0797522)
(-0.0906119 0 0.0883257)
(-0.0826506 0 0.0982315)
(-0.074693 0 0.110435)
(-0.0670143 0 0.126125)
(-0.0598564 0 0.146568)
(-0.0533842 0 0.172791)
(-0.047656 0 0.205046)
(-0.0426336 0 0.242093)
(-0.0382457 0 0.280486)
(-0.034492 0 0.314329)
(-0.0315363 0 0.33615)
(-0.0296986 0 0.339259)
(-0.0292919 0 0.321063)
(-0.0303568 0 0.285489)
(-0.0324909 0 0.242429)
(-0.0349972 0 0.203766)
(-0.0374708 0 0.176628)
(-0.0397544 0 0.167474)
(-0.0422209 0 0.175059)
(-0.0452939 0 0.194103)
(-0.048615 0 0.219029)
(-0.0514252 0 0.242641)
(-0.0532448 0 0.25922)
(-0.0542927 0 0.268959)
(-0.0552726 0 0.276771)
(-0.0568127 0 0.286383)
(-0.0590763 0 0.296734)
(-0.0617829 0 0.303685)
(-0.0644532 0 0.303669)
(-0.0666329 0 0.295695)
(-0.0680341 0 0.281751)
(-0.0686312 0 0.266605)
(-0.068662 0 0.256245)
(-0.0684341 0 0.25437)
(-0.068009 0 0.25949)
(-0.0670623 0 0.266292)
(-0.151794 0 -0.00657829)
(-0.149856 0 -0.00831861)
(-0.148472 0 -0.00574277)
(-0.146766 0 -0.00117198)
(-0.144777 0 0.0044359)
(-0.142403 0 0.0106557)
(-0.139533 0 0.0172449)
(-0.136071 0 0.0240347)
(-0.131929 0 0.0309011)
(-0.127041 0 0.0377643)
(-0.121366 0 0.0446012)
(-0.114905 0 0.0514683)
(-0.107708 0 0.058534)
(-0.0998788 0 0.0661159)
(-0.0915851 0 0.0747196)
(-0.0830467 0 0.0850687)
(-0.0745205 0 0.0981078)
(-0.0662712 0 0.114952)
(-0.0585318 0 0.136745)
(-0.0514634 0 0.164362)
(-0.0451308 0 0.197921)
(-0.0395146 0 0.236116)
(-0.0345746 0 0.275542)
(-0.0303521 0 0.310447)
(-0.0270546 0 0.333512)
(-0.025036 0 0.338086)
(-0.0246185 0 0.321389)
(-0.0258195 0 0.287)
(-0.0281873 0 0.244519)
(-0.0309714 0 0.205833)
(-0.0337521 0 0.1784)
(-0.0363559 0 0.169153)
(-0.039128 0 0.176997)
(-0.0424566 0 0.1963)
(-0.0459296 0 0.221099)
(-0.0487637 0 0.244174)
(-0.0505086 0 0.260143)
(-0.0514384 0 0.269595)
(-0.0523035 0 0.277575)
(-0.0537573 0 0.287623)
(-0.0559715 0 0.298374)
(-0.0586622 0 0.305471)
(-0.0613407 0 0.305287)
(-0.0635453 0 0.296897)
(-0.0649863 0 0.282431)
(-0.0656412 0 0.266835)
(-0.065751 0 0.256203)
(-0.0656256 0 0.254178)
(-0.0653241 0 0.259063)
(-0.0645164 0 0.265369)
(-0.158212 0 -0.0109612)
(-0.156039 0 -0.0134785)
(-0.154315 0 -0.011061)
(-0.152385 0 -0.00690922)
(-0.150111 0 -0.00198802)
(-0.147385 0 0.00333907)
(-0.144112 0 0.00888772)
(-0.140203 0 0.014543)
(-0.135581 0 0.0202384)
(-0.130194 0 0.0259585)
(-0.124011 0 0.0317523)
(-0.117044 0 0.0377542)
(-0.109345 0 0.0442103)
(-0.101022 0 0.0515079)
(-0.0922369 0 0.0602041)
(-0.0832022 0 0.0710426)
(-0.0741637 0 0.0849458)
(-0.0653755 0 0.102959)
(-0.0570642 0 0.126109)
(-0.0493932 0 0.155136)
(-0.0424407 0 0.190034)
(-0.0362122 0 0.229443)
(-0.0307034 0 0.270008)
(-0.0259983 0 0.306116)
(-0.0223483 0 0.330598)
(-0.0201423 0 0.336816)
(-0.0197164 0 0.321778)
(-0.0210704 0 0.28869)
(-0.0237051 0 0.246844)
(-0.0268103 0 0.208148)
(-0.0299424 0 0.180405)
(-0.0328936 0 0.171045)
(-0.0359733 0 0.17912)
(-0.0395464 0 0.198628)
(-0.0431618 0 0.223226)
(-0.0460228 0 0.245692)
(-0.04771 0 0.261008)
(-0.0485461 0 0.270161)
(-0.0493205 0 0.278318)
(-0.0507085 0 0.288824)
(-0.0528913 0 0.299998)
(-0.055584 0 0.307261)
(-0.058291 0 0.306924)
(-0.0605441 0 0.298129)
(-0.0620529 0 0.283154)
(-0.0627981 0 0.267122)
(-0.0630256 0 0.256237)
(-0.0630488 0 0.254078)
(-0.0629257 0 0.258742)
(-0.0623249 0 0.264565)
(-0.161061 0 -0.0166055)
(-0.159419 0 -0.0182733)
(-0.157872 0 -0.0162801)
(-0.156004 0 -0.0128828)
(-0.15365 0 -0.00891775)
(-0.150746 0 -0.00467395)
(-0.147224 0 -0.000288697)
(-0.143018 0 0.00416469)
(-0.138069 0 0.00866524)
(-0.132337 0 0.0132507)
(-0.125803 0 0.0180316)
(-0.118481 0 0.0232089)
(-0.110428 0 0.0290963)
(-0.101745 0 0.0361419)
(-0.0925856 0 0.044947)
(-0.0831479 0 0.0562731)
(-0.0736637 0 0.0710228)
(-0.0643757 0 0.0901782)
(-0.0555065 0 0.114665)
(-0.0472271 0 0.145098)
(-0.0396362 0 0.181363)