/*--------------------------------*- C++ -*----------------------------------*\
  =========                 |
  \\      /  F ield         | OpenFOAM: The Open Source CFD Toolbox
   \\    /   O peration     | Website:  https://openfoam.org
    \\  /    A nd           | Version:  9
     \\/     M anipulation  |
\*---------------------------------------------------------------------------*/
FoamFile
{
    format      ascii;
    class       surfaceVectorField;
    location    "0.09";
    object      Uf;
}
// * * * * * * * * * * * * * * * * * * * * * * * * * * * * * * * * * * * * * //

dimensions      [0 1 -1 0 0 0 0];

internalField   nonuniform List<vector> 
9850
(
(-0.0565882 0 -0.00947823)
(-0.0565784 0 -0.00645893)
(-0.0565371 0 -0.0137256)
(-0.0565283 0 -0.0127514)
(-0.0564896 0 -0.0142131)
(-0.0564882 0 -0.0148682)
(-0.0564738 0 -0.0114709)
(-0.0564682 0 -0.0135773)
(-0.0565155 0 -0.00566286)
(-0.0564961 0 -0.00917278)
(-0.0566366 0 0.00321815)
(-0.0565993 0 -0.00170076)
(-0.0568518 0 0.0152206)
(-0.0567961 0 0.00887864)
(-0.0571658 0 0.030354)
(-0.0570958 0 0.0225957)
(-0.0575698 0 0.0485192)
(-0.0574957 0 0.0394079)
(-0.0580385 0 0.0694243)
(-0.057977 0 0.0591244)
(-0.0585281 0 0.0924938)
(-0.0585025 0 0.0813164)
(-0.0589776 0 0.11679)
(-0.0590159 0 0.105229)
(-0.0593151 0 0.140982)
(-0.0594449 0 0.129723)
(-0.0594727 0 0.1634)
(-0.0597122 0 0.153275)
(-0.0594121 0 0.182258)
(-0.0597565 0 0.174115)
(-0.05916 0 0.196063)
(-0.0595638 0 0.190529)
(-0.0588454 0 0.204238)
(-0.0592078 0 0.201391)
(-0.0587212 0 0.207796)
(-0.058883 0 0.20685)
(-0.0591421 0 0.209766)
(-0.0589095 0 0.208949)
(-0.0604763 0 0.214864)
(-0.0596788 0 0.211766)
(-0.0629519 0 0.227971)
(-0.0615248 0 0.220535)
(-0.0664918 0 0.251472)
(-0.0645465 0 0.239443)
(-0.0706395 0 0.282428)
(-0.0684655 0 0.268573)
(-0.0746765 0 0.311534)
(-0.0726381 0 0.301517)
(-0.0779496 0 0.325747)
(-0.0762961 0 0.325926)
(-0.0802695 0 0.314682)
(-0.0789591 0 0.328406)
(-0.0821212 0 0.27772)
(-0.0807947 0 0.302331)
(-0.0844295 0 0.226636)
(-0.0826347 0 0.253866)
(-0.0878705 0 0.180181)
(-0.0854477 0 0.20064)
(-0.0921855 0 0.153441)
(-0.0894983 0 0.161986)
(-0.0967755 0 0.148833)
(-0.0942861 0 0.146563)
(-0.0991084 0 0.160016)
(-0.097787 0 0.153282)
(-0.0993965 0 0.174068)
(-0.0986114 0 0.167515)
(-0.0992736 0 0.186835)
(-0.0981328 0 0.180614)
(-0.100358 0 0.199566)
(-0.0982937 0 0.193352)
(-0.103241 0 0.212032)
(-0.100287 0 0.207093)
(-0.107563 0 0.221752)
(-0.10403 0 0.219359)
(-0.112723 0 0.227641)
(-0.108835 0 0.227281)
(-0.118404 0 0.231505)
(-0.11419 0 0.231576)
(-0.124585 0 0.235676)
(-0.120001 0 0.235336)
(-0.131278 0 0.240448)
(-0.126338 0 0.240239)
(-0.138376 0 0.244152)
(-0.133153 0 0.245169)
(-0.145675 0 0.244854)
(-0.140251 0 0.247833)
(-0.152972 0 0.241664)
(-0.14739 0 0.246622)
(-0.160164 0 0.235259)
(-0.154393 0 0.24139)
(-0.167352 0 0.228064)
(-0.161244 0 0.233739)
(-0.174875 0 0.223775)
(-0.168168 0 0.22707)
(-0.183169 0 0.225696)
(-0.175596 0 0.225492)
(-0.19245 0 0.234728)
(-0.183908 0 0.23145)
(-0.193123 0 0.244071)
(-0.0565196 0 -0.00958158)
(-0.0565766 0 -0.00652119)
(-0.056487 0 -0.0138432)
(-0.0565345 0 -0.0128527)
(-0.0564674 0 -0.0142631)
(-0.0565237 0 -0.0149262)
(-0.0564888 0 -0.0113842)
(-0.0565384 0 -0.0135167)
(-0.0565772 0 -0.00538902)
(-0.0566101 0 -0.00893436)
(-0.056754 0 0.00370707)
(-0.0567669 0 -0.00124625)
(-0.0570328 0 0.015926)
(-0.057026 0 0.00956182)
(-0.0574161 0 0.0312477)
(-0.0573945 0 0.0234908)
(-0.0578914 0 0.0495417)
(-0.0578664 0 0.0404662)
(-0.0584287 0 0.0704857)
(-0.0584185 0 0.0602649)
(-0.0589787 0 0.0934798)
(-0.0590079 0 0.082429)
(-0.059474 0 0.117575)
(-0.0595717 0 0.106185)
(-0.0598373 0 0.141452)
(-0.0600316 0 0.130391)
(-0.0599972 0 0.16349)
(-0.0603055 0 0.153556)
(-0.0599153 0 0.181991)
(-0.06033 0 0.173978)
(-0.0596224 0 0.195595)
(-0.060094 0 0.190062)
(-0.0592544 0 0.20387)
(-0.0596773 0 0.200832)
(-0.0590709 0 0.20795)
(-0.0592828 0 0.206584)
(-0.0594276 0 0.21088)
(-0.0592357 0 0.209441)
(-0.0606836 0 0.217226)
(-0.0599238 0 0.213419)
(-0.0630489 0 0.231553)
(-0.0616664 0 0.223502)
(-0.0664286 0 0.255847)
(-0.0645415 0 0.243485)
(-0.0703642 0 0.286873)
(-0.0682582 0 0.27306)
(-0.0741648 0 0.315324)
(-0.0721854 0 0.305647)
(-0.0772315 0 0.328524)
(-0.0756005 0 0.329103)
(-0.0794308 0 0.316678)
(-0.078086 0 0.330579)
(-0.0812632 0 0.279634)
(-0.0798533 0 0.304057)
(-0.083597 0 0.22914)
(-0.0817137 0 0.255961)
(-0.0869978 0 0.183367)
(-0.0845366 0 0.203551)
(-0.0911228 0 0.156657)
(-0.0884716 0 0.165351)
(-0.0953311 0 0.15101)
(-0.0929509 0 0.149368)
(-0.0972934 0 0.16078)
(-0.0960393 0 0.15459)
(-0.0973563 0 0.174061)
(-0.0965696 0 0.167557)
(-0.0971547 0 0.187132)
(-0.0959752 0 0.18048)
(-0.0982231 0 0.200879)
(-0.0961259 0 0.194065)
(-0.101071 0 0.214418)
(-0.0981131 0 0.208992)
(-0.105303 0 0.224884)
(-0.101793 0 0.22218)
(-0.110317 0 0.231211)
(-0.106471 0 0.230624)
(-0.115816 0 0.235402)
(-0.111652 0 0.235241)
(-0.121784 0 0.239895)
(-0.11726 0 0.239315)
(-0.128231 0 0.244958)
(-0.123364 0 0.244536)
(-0.135036 0 0.248849)
(-0.129907 0 0.249706)
(-0.141982 0 0.249599)
(-0.13668 0 0.252463)
(-0.148852 0 0.246345)
(-0.143429 0 0.251202)
(-0.155534 0 0.239865)
(-0.149966 0 0.245845)
(-0.162124 0 0.232739)
(-0.156266 0 0.238132)
(-0.16895 0 0.228781)
(-0.162547 0 0.23162)
(-0.176413 0 0.231243)
(-0.169229 0 0.230467)
(-0.184689 0 0.240803)
(-0.176647 0 0.236967)
(-0.18476 0 0.249957)
(-0.0565952 0 -0.00964099)
(-0.0567306 0 -0.00655671)
(-0.0565828 0 -0.0138861)
(-0.0566954 0 -0.0128911)
(-0.0565941 0 -0.0142134)
(-0.0567156 0 -0.0148926)
(-0.0566565 0 -0.0111762)
(-0.0567676 0 -0.0133402)
(-0.0567958 0 -0.00497515)
(-0.0568867 0 -0.00855876)
(-0.0570325 0 0.00435036)
(-0.0571013 0 -0.000637686)
(-0.0573786 0 0.0167938)
(-0.0574265 0 0.0104097)
(-0.0578334 0 0.0323035)
(-0.0578667 0 0.0245529)
(-0.0583803 0 0.050716)
(-0.0584117 0 0.0416838)
(-0.0589838 0 0.071678)
(-0.059033 0 0.0615457)
(-0.0595882 0 0.0945653)
(-0.0596813 0 0.0836518)
(-0.0601196 0 0.11842)
(-0.0602869 0 0.10721)
(-0.0604952 0 0.141938)
(-0.0607649 0 0.131081)
(-0.0606403 0 0.163552)
(-0.0610287 0 0.15381)
(-0.0605171 0 0.181661)
(-0.0610138 0 0.173772)
(-0.0601612 0 0.195038)
(-0.0607123 0 0.189495)
(-0.0597164 0 0.203404)
(-0.0602114 0 0.200157)
(-0.0594489 0 0.208002)
(-0.0597227 0 0.206197)
(-0.0597152 0 0.211882)
(-0.0595764 0 0.209809)
(-0.0608655 0 0.219451)
(-0.0601565 0 0.214933)
(-0.0630923 0 0.234954)
(-0.0617674 0 0.226295)
(-0.0662848 0 0.25999)
(-0.064468 0 0.247302)
(-0.0699856 0 0.291056)
(-0.0679575 0 0.277279)
(-0.0735337 0 0.318868)
(-0.0716204 0 0.309504)
(-0.0763842 0 0.331126)
(-0.0747804 0 0.332057)
(-0.0784555 0 0.318596)
(-0.0770809 0 0.332625)
(-0.0802573 0 0.281539)
(-0.0787711 0 0.305754)
(-0.0825971 0 0.231628)
(-0.080635 0 0.258062)
(-0.0859351 0 0.18645)
(-0.0834436 0 0.206407)
(-0.0898565 0 0.15967)
(-0.0872417 0 0.16855)
(-0.0936931 0 0.152944)
(-0.0914097 0 0.151926)
(-0.095319 0 0.161361)
(-0.0941134 0 0.155674)
(-0.0951979 0 0.173968)
(-0.0943941 0 0.167477)
(-0.0949493 0 0.187407)
(-0.0937246 0 0.180314)
(-0.0960174 0 0.202177)
(-0.0938907 0 0.194777)
(-0.0988315 0 0.216758)
(-0.0958799 0 0.210868)
(-0.102963 0 0.227929)
(-0.099492 0 0.224934)
(-0.107821 0 0.234664)
(-0.10403 0 0.233863)
(-0.113124 0 0.239161)
(-0.109024 0 0.238777)
(-0.118869 0 0.243957)
(-0.114417 0 0.243145)
(-0.125058 0 0.249284)
(-0.120279 0 0.248663)
(-0.13156 0 0.253323)
(-0.12654 0 0.25404)
(-0.138143 0 0.254073)
(-0.132981 0 0.256852)
(-0.14458 0 0.250708)
(-0.139336 0 0.255494)
(-0.150752 0 0.244109)
(-0.145407 0 0.24996)
(-0.156748 0 0.237003)
(-0.15116 0 0.242129)
(-0.162885 0 0.2333)
(-0.156807 0 0.235712)
(-0.169533 0 0.236196)
(-0.162753 0 0.234899)
(-0.176819 0 0.246138)
(-0.169308 0 0.241825)
(-0.176354 0 0.255042)
(-0.0568371 0 -0.00965558)
(-0.0570584 0 -0.00656842)
(-0.0568444 0 -0.0138499)
(-0.057027 0 -0.0128684)
(-0.0568873 0 -0.0140566)
(-0.0570771 0 -0.0147651)
(-0.0569931 0 -0.0108371)
(-0.0571676 0 -0.013041)
(-0.0571867 0 -0.00441079)
(-0.0573373 0 -0.00803677)
(-0.0574872 0 0.00515744)
(-0.0576139 0 0.000134557)
(-0.0579037 0 0.0178306)
(-0.0580093 0 0.0114301)
(-0.0584317 0 0.0335235)
(-0.058524 0 0.025786)
(-0.0590495 0 0.0520384)
(-0.0591429 0 0.0430592)
(-0.0597153 0 0.0729906)
(-0.059831 0 0.0629588)
(-0.0603663 0 0.0957325)
(-0.060532 0 0.0849691)
(-0.0609222 0 0.1193)
(-0.0611688 0 0.108282)
(-0.0612943 0 0.142408)
(-0.0616502 0 0.131765)
(-0.0614054 0 0.163551)
(-0.0618854 0 0.154005)
(-0.0612193 0 0.181229)
(-0.0618096 0 0.173461)
(-0.060777 0 0.194356)
(-0.0614191 0 0.18879)
(-0.0602308 0 0.202802)
(-0.0608095 0 0.199327)
(-0.059854 0 0.207914)
(-0.0602014 0 0.205651)
(-0.0600037 0 0.212735)
(-0.0599299 0 0.210015)
(-0.0610207 0 0.221503)
(-0.0603748 0 0.216271)
(-0.0630811 0 0.23814)
(-0.0618261 0 0.22888)
(-0.0660604 0 0.263874)
(-0.064325 0 0.250866)
(-0.0695051 0 0.294956)
(-0.0675635 0 0.281206)
(-0.0727856 0 0.322154)
(-0.0709443 0 0.313069)
(-0.0754102 0 0.333543)
(-0.073838 0 0.334776)
(-0.0773445 0 0.320427)
(-0.0759457 0 0.334535)
(-0.0791013 0 0.283419)
(-0.0775477 0 0.307408)
(-0.0814255 0 0.234078)
(-0.0793962 0 0.260148)
(-0.0846777 0 0.189414)
(-0.0821654 0 0.209191)
(-0.0883847 0 0.162478)
(-0.0858074 0 0.171575)
(-0.0918638 0 0.154653)
(-0.0896653 0 0.154245)
(-0.0931916 0 0.161785)
(-0.0920155 0 0.156559)
(-0.0929308 0 0.173817)
(-0.0920939 0 0.167303)
(-0.0926702 0 0.187679)
(-0.0913918 0 0.18014)
(-0.0937564 0 0.203467)
(-0.0916008 0 0.195501)
(-0.0965385 0 0.219047)
(-0.0936015 0 0.212723)
(-0.100561 0 0.230875)
(-0.0971401 0 0.227616)
(-0.105247 0 0.237984)
(-0.101525 0 0.236987)
(-0.110342 0 0.242767)
(-0.106318 0 0.242174)
(-0.115853 0 0.247853)
(-0.111486 0 0.246819)
(-0.121779 0 0.25342)
(-0.117098 0 0.252613)
(-0.127974 0 0.257571)
(-0.123075 0 0.25817)
(-0.134192 0 0.258275)
(-0.129183 0 0.260997)
(-0.140195 0 0.254747)
(-0.135144 0 0.259496)
(-0.145859 0 0.24798)
(-0.140752 0 0.253735)
(-0.15127 0 0.240838)
(-0.145967 0 0.245737)
(-0.156735 0 0.237317)
(-0.150998 0 0.239355)
(-0.162595 0 0.240544)
(-0.156234 0 0.238806)
(-0.168927 0 0.250752)
(-0.161959 0 0.246046)
(-0.167999 0 0.259368)
(-0.0572568 0 -0.00963082)
(-0.0575624 0 -0.00656495)
(-0.0572806 0 -0.0137384)
(-0.0575302 0 -0.0127945)
(-0.0573543 0 -0.0137909)
(-0.0576081 0 -0.0145463)
(-0.0575054 0 -0.0103604)
(-0.0577391 0 -0.0126136)
(-0.0577573 0 -0.00368689)
(-0.0579646 0 -0.00735759)
(-0.0581261 0 0.00613705)
(-0.0583095 0 0.00108234)
(-0.0586169 0 0.0190422)
(-0.0587811 0 0.0126325)
(-0.0592201 0 0.0349086)
(-0.0593745 0 0.0271948)
(-0.0599079 0 0.0535036)
(-0.0600682 0 0.0445904)
(-0.0606313 0 0.0744106)
(-0.0608204 0 0.0644942)
(-0.0613202 0 0.0969607)
(-0.0615669 0 0.0863628)
(-0.061887 0 0.120186)
(-0.062223 0 0.109375)
(-0.0622382 0 0.142829)
(-0.0626912 0 0.132411)
(-0.0622945 0 0.163449)
(-0.0628774 0 0.154103)
(-0.062022 0 0.180655)
(-0.0627175 0 0.173006)
(-0.0614688 0 0.193508)
(-0.0622134 0 0.187909)
(-0.060796 0 0.202024)
(-0.0614698 0 0.198305)
(-0.060284 0 0.207647)
(-0.0607168 0 0.20491)
(-0.0602904 0 0.213401)
(-0.0602941 0 0.210024)
(-0.0611467 0 0.223346)
(-0.0605768 0 0.217398)
(-0.0630133 0 0.241079)
(-0.0618408 0 0.231222)
(-0.0657542 0 0.267472)
(-0.0641111 0 0.254143)
(-0.0689226 0 0.298556)
(-0.0670757 0 0.284819)
(-0.0719215 0 0.325171)
(-0.0701576 0 0.316329)
(-0.0743107 0 0.335772)
(-0.0727743 0 0.337252)
(-0.0760982 0 0.322164)
(-0.0746809 0 0.336301)
(-0.0777946 0 0.285265)
(-0.0761828 0 0.309006)
(-0.0800808 0 0.236477)
(-0.077996 0 0.2622)
(-0.0832258 0 0.192249)
(-0.0807021 0 0.211882)
(-0.0867104 0 0.165084)
(-0.0841716 0 0.174418)
(-0.0898504 0 0.156151)
(-0.0877247 0 0.156338)
(-0.0909207 0 0.162077)
(-0.0897556 0 0.157273)
(-0.0905655 0 0.173626)
(-0.0896791 0 0.167066)
(-0.0903279 0 0.187962)
(-0.0889864 0 0.179982)
(-0.0914503 0 0.204756)
(-0.0892653 0 0.196249)
(-0.0942023 0 0.22129)
(-0.0912867 0 0.214558)
(-0.0981067 0 0.233726)
(-0.0947474 0 0.230218)
(-0.102609 0 0.241176)
(-0.0989682 0 0.239988)
(-0.107484 0 0.246225)
(-0.103548 0 0.245424)
(-0.112754 0 0.25158)
(-0.108481 0 0.250332)
(-0.118412 0 0.257365)
(-0.11384 0 0.256385)
(-0.124298 0 0.261597)
(-0.119531 0 0.262095)
(-0.130153 0 0.262218)
(-0.125307 0 0.264901)
(-0.135728 0 0.258484)
(-0.130881 0 0.263213)
(-0.140896 0 0.251495)
(-0.136037 0 0.25718)
(-0.14574 0 0.244262)
(-0.14073 0 0.248966)
(-0.150557 0 0.240856)
(-0.145169 0 0.242567)
(-0.155662 0 0.244325)
(-0.149728 0 0.242209)
(-0.161095 0 0.254687)
(-0.154663 0 0.249668)
(-0.159763 0 0.262983)
(-0.0578458 0 -0.00957954)
(-0.058227 0 -0.0065558)
(-0.0578832 0 -0.0135603)
(-0.0581928 0 -0.0126782)
(-0.0579886 0 -0.013415)
(-0.0583006 0 -0.0142336)
(-0.0581902 0 -0.00973615)
(-0.058479 0 -0.0120435)
(-0.058508 0 -0.00278982)
(-0.05877 0 -0.00650101)
(-0.0589527 0 0.00730191)
(-0.0591934 0 0.00222537)
(-0.0595239 0 0.0204371)
(-0.0597496 0 0.0140317)
(-0.0602055 0 0.0364608)
(-0.0604269 0 0.0287867)
(-0.0609626 0 0.0551051)
(-0.061197 0 0.0462759)
(-0.0617384 0 0.0759234)
(-0.0620098 0 0.0661408)
(-0.062455 0 0.0982269)
(-0.0627931 0 0.0878126)
(-0.0630179 0 0.121049)
(-0.0634546 0 0.110461)
(-0.0633288 0 0.143166)
(-0.0638911 0 0.132983)
(-0.0633077 0 0.163208)
(-0.0640059 0 0.154067)
(-0.0629245 0 0.179902)
(-0.0637371 0 0.172365)
(-0.062235 0 0.192456)
(-0.0630935 0 0.18681)
(-0.06141 0 0.201032)
(-0.0621901 0 0.197052)
(-0.0607372 0 0.207164)
(-0.0612666 0 0.203935)
(-0.0605738 0 0.213844)
(-0.0606671 0 0.209799)
(-0.0612421 0 0.224942)
(-0.0607609 0 0.218277)
(-0.0628877 0 0.243737)
(-0.0618102 0 0.233286)
(-0.0653656 0 0.270756)
(-0.0638256 0 0.257107)
(-0.0682378 0 0.301836)
(-0.0664936 0 0.288093)
(-0.0709415 0 0.327907)
(-0.0692603 0 0.319267)
(-0.0730857 0 0.337802)
(-0.0715892 0 0.339474)
(-0.0747162 0 0.323794)
(-0.0732859 0 0.337912)
(-0.0763361 0 0.287058)
(-0.0746754 0 0.310531)
(-0.0785631 0 0.238806)
(-0.0764339 0 0.2642)
(-0.0815824 0 0.194944)
(-0.0790551 0 0.214466)
(-0.0848406 0 0.16749)
(-0.0823399 0 0.177076)
(-0.0876631 0 0.15746)
(-0.0855973 0 0.15822)
(-0.0885173 0 0.162263)
(-0.087345 0 0.157843)
(-0.0881114 0 0.173423)
(-0.0871605 0 0.166796)
(-0.0879303 0 0.188271)
(-0.0865176 0 0.179861)
(-0.0891066 0 0.206051)
(-0.0868922 0 0.197033)
(-0.0918313 0 0.223485)
(-0.0889437 0 0.216374)
(-0.0956109 0 0.236478)
(-0.0923229 0 0.232738)
(-0.0999189 0 0.244234)
(-0.0963694 0 0.24286)
(-0.104566 0 0.249529)
(-0.100727 0 0.248522)
(-0.109588 0 0.255137)
(-0.105419 0 0.25368)
(-0.114975 0 0.261117)
(-0.11052 0 0.259977)
(-0.120554 0 0.2654)
(-0.115928 0 0.265814)
(-0.126052 0 0.265899)
(-0.121379 0 0.268566)
(-0.131212 0 0.261914)
(-0.126575 0 0.266652)
(-0.1359 0 0.254659)
(-0.131292 0 0.260306)
(-0.140199 0 0.247283)
(-0.135485 0 0.251832)
(-0.144396 0 0.243935)
(-0.13936 0 0.245365)
(-0.148788 0 0.24757)
(-0.14328 0 0.245137)
(-0.153382 0 0.257988)
(-0.147474 0 0.25273)
(-0.151707 0 0.265939)
(-0.0585854 0 -0.00950756)
(-0.0590396 0 -0.0065374)
(-0.0586401 0 -0.0133137)
(-0.0590135 0 -0.012508)
(-0.0587852 0 -0.0129139)
(-0.0591632 0 -0.013803)
(-0.0590487 0 -0.00894031)
(-0.0594022 0 -0.0112985)
(-0.0594446 0 -0.0016939)
(-0.0597718 0 -0.00543375)
(-0.0599763 0 0.00867342)
(-0.0602855 0 0.00359184)
(-0.0606358 0 0.0220289)
(-0.0609351 0 0.0156473)
(-0.0613995 0 0.0381839)
(-0.0617013 0 0.0305703)
(-0.0622247 0 0.0568367)
(-0.0625473 0 0.0481129)
(-0.0630463 0 0.0775119)
(-0.063415 0 0.0678845)
(-0.0637782 0 0.0995049)
(-0.0642235 0 0.0892937)
(-0.0643197 0 0.121856)
(-0.0648732 0 0.111505)
(-0.0645687 0 0.143379)
(-0.0652558 0 0.133441)
(-0.0644455 0 0.162786)
(-0.0652737 0 0.153851)
(-0.0639253 0 0.178927)
(-0.0648686 0 0.171496)
(-0.0630732 0 0.19116)
(-0.064058 0 0.185453)
(-0.0620703 0 0.19979)
(-0.062968 0 0.195529)
(-0.0612111 0 0.206429)
(-0.0618483 0 0.202691)
(-0.060852 0 0.214028)
(-0.0610462 0 0.209303)
(-0.0613055 0 0.226261)
(-0.060925 0 0.218874)
(-0.0627036 0 0.246085)
(-0.0617328 0 0.23504)
(-0.064894 0 0.273702)
(-0.0634673 0 0.259726)
(-0.0674507 0 0.304778)
(-0.0658164 0 0.291008)
(-0.0698455 0 0.330349)
(-0.0682513 0 0.32187)
(-0.0717348 0 0.33962)
(-0.0702817 0 0.341431)
(-0.0731975 0 0.325302)
(-0.0717593 0 0.339357)
(-0.0747253 0 0.288779)
(-0.0730237 0 0.31197)
(-0.0768731 0 0.241047)
(-0.0747091 0 0.266128)
(-0.0797511 0 0.19749)
(-0.0772267 0 0.216929)
(-0.0827826 0 0.169702)
(-0.0803185 0 0.179549)
(-0.0853124 0 0.158602)
(-0.0832934 0 0.159907)
(-0.0859924 0 0.162375)
(-0.0847958 0 0.158296)
(-0.085579 0 0.173234)
(-0.0845492 0 0.16652)
(-0.0854867 0 0.188624)
(-0.0839951 0 0.1798)
(-0.0867341 0 0.207357)
(-0.0844901 0 0.197865)
(-0.0894343 0 0.225628)
(-0.0865805 0 0.218174)
(-0.0930828 0 0.23912)
(-0.0898748 0 0.23517)
(-0.0971878 0 0.247148)
(-0.0937381 0 0.245597)
(-0.101599 0 0.252673)
(-0.0978647 0 0.251462)
(-0.10637 0 0.258521)
(-0.102311 0 0.256861)
(-0.111488 0 0.264676)
(-0.107156 0 0.263388)
(-0.116765 0 0.268983)
(-0.112284 0 0.269332)
(-0.121915 0 0.269324)
(-0.117418 0 0.272)
(-0.126674 0 0.26505)
(-0.122249 0 0.269825)
(-0.130902 0 0.257487)
(-0.126548 0 0.263125)
(-0.134682 0 0.249925)
(-0.130266 0 0.254352)
(-0.138296 0 0.246582)
(-0.133609 0 0.247774)
(-0.14202 0 0.250315)
(-0.136932 0 0.24762)
(-0.14584 0 0.260705)
(-0.14044 0 0.255277)
(-0.143879 0 0.268296)
(-0.0594822 0 -0.0093939)
(-0.0600537 0 -0.00647354)
(-0.0595711 0 -0.0129648)
(-0.0600492 0 -0.0122315)
(-0.0597724 0 -0.0122461)
(-0.0602578 0 -0.0132057)
(-0.0601128 0 -0.00793097)
(-0.0605694 0 -0.010336)
(-0.0605997 0 -0.000362902)
(-0.0610268 0 -0.00412122)
(-0.0612281 0 0.0102781)
(-0.061637 0 0.00520675)
(-0.0619816 0 0.0238324)
(-0.062383 0 0.0174931)
(-0.0628284 0 0.0400801)
(-0.0632368 0 0.0325477)
(-0.0637168 0 0.058688)
(-0.0641528 0 0.0500909)
(-0.0645735 0 0.0791543)
(-0.0650637 0 0.0697027)
(-0.0653045 0 0.100763)
(-0.06588 0 0.0907727)
(-0.0658028 0 0.122565)
(-0.066495 0 0.112467)
(-0.0659641 0 0.143424)
(-0.0667966 0 0.133737)
(-0.0657108 0 0.162138)
(-0.0666874 0 0.153407)
(-0.0650248 0 0.177686)
(-0.066115 0 0.170349)
(-0.063982 0 0.189579)
(-0.0651069 0 0.183791)
(-0.0627744 0 0.198258)
(-0.0638018 0 0.193695)
(-0.0617029 0 0.205406)
(-0.062459 0 0.20114)
(-0.0611223 0 0.213919)
(-0.0614284 0 0.208502)
(-0.0613347 0 0.227265)
(-0.0610658 0 0.219154)
(-0.062459 0 0.24809)
(-0.0616053 0 0.23645)
(-0.0643379 0 0.276283)
(-0.0630331 0 0.261973)
(-0.0665595 0 0.307362)
(-0.065041 0 0.293541)
(-0.0686316 0 0.332483)
(-0.0671276 0 0.324122)
(-0.070256 0 0.341216)
(-0.0688483 0 0.343114)
(-0.07154 0 0.326677)
(-0.0700978 0 0.340625)
(-0.0729605 0 0.290413)
(-0.0712251 0 0.313307)
(-0.0750119 0 0.243185)
(-0.0728212 0 0.267969)
(-0.0777369 0 0.199881)
(-0.0752202 0 0.219261)
(-0.0805454 0 0.171729)
(-0.0781154 0 0.18184)
(-0.0828099 0 0.1596)
(-0.0808247 0 0.161416)
(-0.0833578 0 0.162441)
(-0.0821204 0 0.158661)
(-0.0829785 0 0.173085)
(-0.0818565 0 0.166267)
(-0.0830062 0 0.18904)
(-0.0814282 0 0.179818)
(-0.084341 0 0.208682)
(-0.082067 0 0.198755)
(-0.0870193 0 0.227718)
(-0.0842043 0 0.21996)
(-0.0905309 0 0.241648)
(-0.0874103 0 0.237512)
(-0.0944249 0 0.249912)
(-0.0910826 0 0.248193)
(-0.0985948 0 0.255652)
(-0.0949716 0 0.254242)
(-0.103115 0 0.261731)
(-0.0991699 0 0.259875)
(-0.107966 0 0.268047)
(-0.103761 0 0.266623)
(-0.112948 0 0.272352)
(-0.108616 0 0.272653)
(-0.117764 0 0.272505)
(-0.113445 0 0.27521)
(-0.122139 0 0.267905)
(-0.117928 0 0.272741)
(-0.125932 0 0.259998)
(-0.12183 0 0.265654)
(-0.129224 0 0.252211)
(-0.125101 0 0.256547)
(-0.132292 0 0.248826)
(-0.127948 0 0.249819)
(-0.135399 0 0.252599)
(-0.13072 0 0.249691)
(-0.138511 0 0.26289)
(-0.133598 0 0.257351)
(-0.136319 0 0.270114)
(-0.0606401 0 -0.0091738)
(-0.0613948 0 -0.00633994)
(-0.0607761 0 -0.0124495)
(-0.0614106 0 -0.011808)
(-0.0610447 0 -0.0113646)
(-0.0616879 0 -0.0124093)
(-0.0614682 0 -0.00667508)
(-0.062077 0 -0.00913845)
(-0.0620486 0 0.00122527)
(-0.0626219 0 -0.00255669)
(-0.0627733 0 0.0121278)
(-0.063325 0 0.00706897)
(-0.0636171 0 0.0258483)
(-0.0641607 0 0.0195601)
(-0.064539 0 0.0421387)
(-0.0650918 0 0.0347007)
(-0.065478 0 0.0606363)
(-0.0660628 0 0.0521815)
(-0.0663516 0 0.0808167)
(-0.0669965 0 0.0715567)
(-0.0670578 0 0.101957)
(-0.0677949 0 0.0922016)
(-0.0674848 0 0.123129)
(-0.0683445 0 0.11329)
(-0.0675267 0 0.143249)
(-0.0685304 0 0.133814)
(-0.06711 0 0.161212)
(-0.0682577 0 0.152676)
(-0.0662257 0 0.176131)
(-0.0674816 0 0.168872)
(-0.0649612 0 0.187669)
(-0.0662418 0 0.181777)
(-0.0635201 0 0.196397)
(-0.0646901 0 0.191506)
(-0.0622094 0 0.204058)
(-0.0630954 0 0.199242)
(-0.0613809 0 0.21348)
(-0.061809 0 0.207358)
(-0.0613255 0 0.227923)
(-0.0611781 0 0.219081)
(-0.0621495 0 0.249722)
(-0.0614221 0 0.237484)
(-0.0636927 0 0.278475)
(-0.0625171 0 0.263819)
(-0.0655597 0 0.309569)
(-0.0641614 0 0.295669)
(-0.0672952 0 0.334298)
(-0.065883 0 0.326009)
(-0.0686444 0 0.342581)
(-0.0672829 0 0.344512)
(-0.0697396 0 0.327907)
(-0.0682956 0 0.341707)
(-0.0710399 0 0.291946)
(-0.0692755 0 0.314532)
(-0.0729809 0 0.245209)
(-0.0707691 0 0.269712)
(-0.075546 0 0.202115)
(-0.0730395 0 0.221457)
(-0.0781391 0 0.173582)
(-0.0757396 0 0.183956)
(-0.0801683 0 0.160477)
(-0.0782039 0 0.162769)
(-0.0806256 0 0.162488)
(-0.0793324 0 0.158966)
(-0.0803202 0 0.173)
(-0.0790938 0 0.166063)
(-0.0804969 0 0.189533)
(-0.0788257 0 0.179936)
(-0.081934 0 0.210033)
(-0.0796294 0 0.199713)
(-0.0845929 0 0.229754)
(-0.0818208 0 0.221732)
(-0.0879624 0 0.244057)
(-0.0849355 0 0.239758)
(-0.0916388 0 0.252524)
(-0.0884098 0 0.250644)
(-0.0955637 0 0.258466)
(-0.0920562 0 0.256859)
(-0.0998325 0 0.264769)
(-0.0960059 0 0.26272)
(-0.104423 0 0.271232)
(-0.100347 0 0.269683)
(-0.109122 0 0.275515)
(-0.104939 0 0.275786)
(-0.113618 0 0.275452)
(-0.109476 0 0.278208)
(-0.11763 0 0.270496)
(-0.11363 0 0.275416)
(-0.121015 0 0.262211)
(-0.11716 0 0.26791)
(-0.123853 0 0.254165)
(-0.120015 0 0.258439)
(-0.126418 0 0.250698)
(-0.122405 0 0.251529)
(-0.128959 0 0.254461)
(-0.124671 0 0.251385)
(-0.131429 0 0.264596)
(-0.126978 0 0.258998)
(-0.129054 0 0.27145)
(-0.0621892 0 -0.00884231)
(-0.0631762 0 -0.00615726)
(-0.062371 0 -0.0117524)
(-0.0632025 0 -0.0112422)
(-0.062708 0 -0.0102608)
(-0.0635513 0 -0.0114098)
(-0.0632129 0 -0.00517707)
(-0.0640178 0 -0.00771091)
(-0.0638806 0 0.00305701)
(-0.0646452 0 -0.000756808)
(-0.0646917 0 0.0142025)
(-0.0654315 0 0.00915323)
(-0.0656125 0 0.0280502)
(-0.0663431 0 0.0218157)
(-0.0665921 0 0.044325)
(-0.067333 0 0.0369884)
(-0.0675593 0 0.0626379)
(-0.0683351 0 0.054335)
(-0.0684221 0 0.082447)
(-0.0692622 0 0.0733877)
(-0.0690709 0 0.103029)
(-0.0700072 0 0.0935144)
(-0.0693894 0 0.123483)
(-0.0704514 0 0.113905)
(-0.0692727 0 0.142789)
(-0.0704786 0 0.1336)
(-0.0686531 0 0.159947)
(-0.0699983 0 0.15159)
(-0.0675322 0 0.174207)
(-0.0689758 0 0.166998)
(-0.0660112 0 0.18538)
(-0.0674648 0 0.179353)
(-0.064305 0 0.194164)
(-0.065631 0 0.188915)
(-0.062726 0 0.202346)
(-0.0637528 0 0.196956)
(-0.0616217 0 0.212677)
(-0.0621813 0 0.205834)
(-0.061271 0 0.2282)
(-0.0612536 0 0.218619)
(-0.0617679 0 0.25095)
(-0.0611741 0 0.238107)
(-0.062951 0 0.280251)
(-0.06191 0 0.265234)
(-0.0644437 0 0.311382)
(-0.0631682 0 0.297371)
(-0.0658287 0 0.33578)
(-0.0645083 0 0.327514)
(-0.0668931 0 0.343704)
(-0.0655767 0 0.345615)
(-0.0677906 0 0.32898)
(-0.0663449 0 0.342593)
(-0.0689604 0 0.293368)
(-0.0671693 0 0.315633)
(-0.0707816 0 0.247112)
(-0.0685517 0 0.271346)
(-0.0731849 0 0.204194)
(-0.0706888 0 0.223513)
(-0.075575 0 0.175275)
(-0.0732008 0 0.185906)
(-0.0774011 0 0.161258)
(-0.0754446 0 0.163987)
(-0.0778085 0 0.162542)
(-0.0764457 0 0.159238)
(-0.077614 0 0.173)
(-0.0762727 0 0.165934)
(-0.0779661 0 0.190116)
(-0.0761959 0 0.180171)
(-0.0795188 0 0.211413)
(-0.0771829 0 0.200748)
(-0.0821601 0 0.231737)
(-0.079434 0 0.223493)
(-0.0853829 0 0.246345)
(-0.0824544 0 0.241906)
(-0.0888364 0 0.25498)
(-0.0857252 0 0.252946)
(-0.0925144 0 0.261115)
(-0.0891258 0 0.259311)
(-0.0965352 0 0.267637)
(-0.0928282 0 0.265401)
(-0.100873 0 0.27424)
(-0.0969263 0 0.272575)
(-0.105301 0 0.278483)
(-0.101266 0 0.278738)
(-0.109496 0 0.278178)
(-0.105529 0 0.281004)
(-0.113168 0 0.272837)
(-0.109375 0 0.277864)
(-0.116173 0 0.264147)
(-0.112558 0 0.269913)
(-0.118592 0 0.255813)
(-0.11503 0 0.260052)
(-0.120697 0 0.25223)
(-0.117002 0 0.252933)
(-0.122725 0 0.255939)
(-0.11881 0 0.252738)
(-0.12462 0 0.265872)
(-0.120603 0 0.260261)
(-0.122106 0 0.272361)
(-0.0642175 0 -0.00843483)
(-0.0654777 0 -0.0059315)
(-0.0644427 0 -0.0108946)
(-0.0655184 0 -0.0105417)
(-0.0648466 0 -0.00894719)
(-0.0659421 0 -0.0102118)
(-0.0654292 0 -0.00345577)
(-0.0664826 0 -0.00606354)
(-0.0661761 0 0.00510334)
(-0.0671844 0 0.00125651)
(-0.0670604 0 0.0164642)
(-0.0680409 0 0.0114253)
(-0.0680394 0 0.0303913)
(-0.0690093 0 0.024214)
(-0.069052 0 0.0465833)
(-0.0700323 0 0.0393533)
(-0.0700166 0 0.0646284)
(-0.071033 0 0.0564824)
(-0.0708314 0 0.0839727)
(-0.0719137 0 0.075117)
(-0.0713803 0 0.103901)
(-0.0725597 0 0.0946249)
(-0.0715443 0 0.123548)
(-0.0728481 0 0.114221)
(-0.071221 0 0.141968)
(-0.0726637 0 0.133005)
(-0.0703511 0 0.158271)
(-0.0719231 0 0.150065)
(-0.0689495 0 0.171848)
(-0.0706043 0 0.164656)
(-0.0671318 0 0.182658)
(-0.0687767 0 0.176457)
(-0.0651251 0 0.191512)
(-0.0666209 0 0.185867)
(-0.0632458 0 0.200229)
(-0.0644239 0 0.194235)
(-0.0618358 0 0.211469)
(-0.0625354 0 0.203887)
(-0.061161 0 0.228059)
(-0.0612808 0 0.217731)
(-0.0613033 0 0.251741)
(-0.060849 0 0.238286)
(-0.0621018 0 0.281585)
(-0.061199 0 0.266189)
(-0.0632006 0 0.312781)
(-0.0620487 0 0.298624)
(-0.0642214 0 0.336916)
(-0.0629911 0 0.328623)
(-0.0649923 0 0.344576)
(-0.0637182 0 0.346414)
(-0.0656854 0 0.32989)
(-0.0642361 0 0.343278)
(-0.066718 0 0.29467)
(-0.0649001 0 0.316606)
(-0.0684153 0 0.248891)
(-0.0661671 0 0.27287)
(-0.0706608 0 0.206124)
(-0.0681723 0 0.225435)
(-0.0728647 0 0.176824)
(-0.0705088 0 0.187704)
(-0.0745223 0 0.161966)
(-0.0725605 0 0.165092)
(-0.0749192 0 0.16263)
(-0.0734744 0 0.159502)
(-0.0748697 0 0.173105)
(-0.0734044 0 0.165901)
(-0.0754204 0 0.190803)
(-0.0735467 0 0.180538)
(-0.0770998 0 0.212829)
(-0.0747321 0 0.201868)
(-0.0797243 0 0.233664)
(-0.077047 0 0.225243)
(-0.0827965 0 0.248509)
(-0.0799701 0 0.243954)
(-0.0860234 0 0.257279)
(-0.0830329 0 0.255097)
(-0.0894544 0 0.263599)
(-0.0861863 0 0.261598)
(-0.0932322 0 0.270341)
(-0.0896447 0 0.26792)
(-0.0973276 0 0.277077)
(-0.0935079 0 0.275305)
(-0.1015 0 0.281264)
(-0.0976093 0 0.281519)
(-0.105413 0 0.280696)
(-0.101615 0 0.283613)
(-0.10877 0 0.274947)
(-0.105176 0 0.280102)
(-0.111425 0 0.265827)
(-0.108041 0 0.271683)
(-0.113463 0 0.257182)
(-0.110165 0 0.26141)
(-0.115151 0 0.253453)
(-0.111759 0 0.254058)
(-0.116719 0 0.257075)
(-0.113156 0 0.253783)
(-0.118101 0 0.266767)
(-0.114492 0 0.261182)
(-0.115489 0 0.272898)
(-0.0668146 0 -0.00792792)
(-0.0684016 0 -0.00562284)
(-0.067091 0 -0.00986671)
(-0.0684691 0 -0.00968198)
(-0.0675607 0 -0.00742741)
(-0.0689715 0 -0.00881867)
(-0.0682139 0 -0.0015266)
(-0.0695779 0 -0.00421654)
(-0.0690275 0 0.0073348)
(-0.0703407 0 0.00344946)
(-0.069966 0 0.0188686)
(-0.0712481 0 0.013837)
(-0.0709773 0 0.0328131)
(-0.0722464 0 0.0266915)
(-0.0719895 0 0.0488416)
(-0.0732673 0 0.0417172)
(-0.0729103 0 0.0665239)
(-0.0742228 0 0.0585322)
(-0.0736291 0 0.085301)
(-0.0750058 0 0.0766425)
(-0.0740245 0 0.104475)
(-0.0754949 0 0.0954249)
(-0.073977 0 0.123226)
(-0.0755654 0 0.114129)
(-0.0733896 0 0.140692)
(-0.0751061 0 0.131925)
(-0.072214 0 0.156099)
(-0.0740435 0 0.148004)
(-0.0704805 0 0.168981)
(-0.0723709 0 0.161759)
(-0.0683207 0 0.17944)
(-0.0701753 0 0.173016)
(-0.0659736 0 0.188387)
(-0.0676527 0 0.182302)
(-0.0637588 0 0.197661)
(-0.0650981 0 0.191028)
(-0.0620109 0 0.209817)
(-0.0628579 0 0.201475)
(-0.0609816 0 0.227465)
(-0.0612443 0 0.216377)
(-0.0607411 0 0.252065)
(-0.06043 0 0.237984)
(-0.0611302 0 0.282451)
(-0.0603673 0 0.266654)
(-0.0618161 0 0.313748)
(-0.0607868 0 0.299406)
(-0.0624603 0 0.337695)
(-0.0613165 0 0.329324)
(-0.0629305 0 0.34519)
(-0.0616939 0 0.346901)
(-0.0634151 0 0.330631)
(-0.0619579 0 0.343756)
(-0.0643083 0 0.295851)
(-0.0624603 0 0.317447)
(-0.065883 0 0.250548)
(-0.0636131 0 0.274284)
(-0.0679807 0 0.207917)
(-0.0654942 0 0.22723)
(-0.0700199 0 0.178248)
(-0.0676738 0 0.189368)
(-0.0715458 0 0.162628)
(-0.0695654 0 0.166109)
(-0.0719703 0 0.162774)
(-0.0704322 0 0.159785)
(-0.0720967 0 0.173334)
(-0.0704999 0 0.165985)
(-0.0728657 0 0.191603)
(-0.0708848 0 0.18105)
(-0.07468 0 0.214283)
(-0.0722806 0 0.203077)
(-0.0772879 0 0.235535)
(-0.0746612 0 0.226981)
(-0.0802059 0 0.250545)
(-0.0774838 0 0.2459)
(-0.0832041 0 0.259419)
(-0.0803356 0 0.257096)
(-0.0863902 0 0.265921)
(-0.0832423 0 0.263723)
(-0.0899317 0 0.272886)
(-0.0864619 0 0.27028)
(-0.0937963 0 0.279752)
(-0.0901004 0 0.277882)
(-0.0977292 0 0.283873)
(-0.0939784 0 0.284141)
(-0.101382 0 0.283024)
(-0.0977474 0 0.286048)
(-0.104451 0 0.276845)
(-0.101048 0 0.282147)
(-0.106789 0 0.267275)
(-0.103625 0 0.273242)
(-0.108481 0 0.258297)
(-0.105434 0 0.262539)
(-0.109796 0 0.2544)
(-0.10669 0 0.254935)
(-0.110956 0 0.257905)
(-0.107723 0 0.254556)
(-0.111887 0 0.267328)
(-0.108656 0 0.261803)
(-0.109212 0 0.273109)
(-0.0701046 0 -0.00727906)
(-0.07208 0 -0.00520311)
(-0.0704376 0 -0.00865385)
(-0.0721759 0 -0.00864576)
(-0.0709679 0 -0.00571768)
(-0.0727553 0 -0.00724592)
(-0.0716783 0 0.000575772)
(-0.0734146 0 -0.00220801)
(-0.0725386 0 0.0097023)
(-0.0742188 0 0.00576829)
(-0.0735041 0 0.0213511)
(-0.0751495 0 0.016318)
(-0.0745118 0 0.0352345)
(-0.0761409 0 0.02916)
(-0.0754784 0 0.0510036)
(-0.0771127 0 0.0439746)
(-0.0763014 0 0.0682155)
(-0.0779665 0 0.0603646)
(-0.0768631 0 0.0863149)
(-0.0785869 0 0.0778348)
(-0.0770389 0 0.10463)
(-0.0788483 0 0.0957805)
(-0.0767114 0 0.1224)
(-0.0786269 0 0.113498)
(-0.0757921 0 0.13885)
(-0.0778187 0 0.130234)
(-0.074247 0 0.153333)
(-0.0763636 0 0.145295)
(-0.0721236 0 0.165523)
(-0.0742728 0 0.15821)
(-0.069571 0 0.175655)
(-0.0716525 0 0.16895)
(-0.0668395 0 0.184732)
(-0.0687143 0 0.178153)
(-0.0642508 0 0.194591)
(-0.0657599 0 0.187279)
(-0.0621303 0 0.207677)