/*--------------------------------*- C++ -*----------------------------------*\
  =========                 |
  \\      /  F ield         | OpenFOAM: The Open Source CFD Toolbox
   \\    /   O peration     | Website:  https://openfoam.org
    \\  /    A nd           | Version:  9
     \\/     M anipulation  |
\*---------------------------------------------------------------------------*/
FoamFile
{
    format      ascii;
    class       surfaceScalarField;
    location    "0.13";
    object      alphaPhi0.water;
}
// * * * * * * * * * * * * * * * * * * * * * * * * * * * * * * * * * * * * * //

dimensions      [0 3 -1 0 0 0 0];

internalField   nonuniform List<scalar> 
9850
(
6.84244e-56
-2.38458e-56
2.26175e-55
-6.63627e-56
7.69676e-55
-2.29557e-55
2.68114e-54
-8.1795e-55
9.5547e-54
-2.9831e-54
3.48172e-53
-1.11278e-53
1.29664e-52
-4.24354e-53
4.93202e-52
-1.65344e-52
1.91473e-51
-6.57825e-52
7.58095e-51
-2.67044e-51
3.05838e-50
-1.10523e-50
1.25599e-49
-4.65941e-50
5.24504e-49
-1.99886e-49
2.22471e-48
-8.71632e-49
9.57266e-48
-3.85894e-48
4.17323e-47
-1.73235e-47
1.84094e-46
-7.87509e-47
8.20751e-46
-3.62019e-46
3.69431e-45
-1.68065e-45
1.67765e-44
-7.86971e-45
7.6853e-44
-3.71341e-44
3.55438e-43
-1.76502e-43
1.66319e-42
-8.45513e-43
7.90391e-42
-4.08966e-42
3.83501e-41
-2.00428e-41
1.91056e-40
-1.00009e-40
9.80796e-40
-5.10665e-40
5.18124e-39
-2.67689e-39
2.79407e-38
-1.43948e-38
1.51597e-37
-7.90135e-38
9.20375e-37
-5.12504e-37
5.20184e-36
-3.06997e-36
2.72e-35
-1.74225e-35
1.31741e-34
-9.24014e-35
5.93822e-34
-4.54758e-34
2.50708e-33
-2.08094e-33
9.97722e-33
-8.9322e-33
3.75346e-32
-3.63642e-32
1.32484e-31
-1.41564e-31
4.24717e-31
-5.25491e-31
1.15687e-30
-1.80268e-30
2.32071e-30
-5.31149e-30
2.49532e-30
-1.14972e-29
5.49034e-31
-1.31626e-29
-5.74931e-30
-3.03428e-30
-3.09723e-29
2.48239e-29
-6.64927e-28
5.27728e-28
-1.38105e-26
1.13653e-26
-2.7895e-25
2.35312e-25
6.5005e-24
2.2448e-55
-7.88127e-56
7.36868e-55
-2.1768e-55
2.49026e-54
-7.47756e-55
8.61434e-54
-2.64594e-54
3.04826e-53
-9.58247e-54
1.1029e-52
-3.54928e-53
4.07789e-52
-1.34386e-52
1.53988e-51
-5.19847e-52
5.93451e-51
-2.05319e-51
2.3323e-50
-8.27372e-51
9.33897e-50
-3.39889e-50
3.80624e-49
-1.42213e-49
1.57725e-48
-6.05439e-49
6.63724e-48
-2.61961e-48
2.83265e-47
-1.15054e-47
1.22437e-46
-5.12245e-47
5.35192e-46
-2.30849e-46
2.36232e-45
-1.05141e-45
1.0514e-44
-4.83172e-45
4.71222e-44
-2.23664e-44
2.12464e-43
-1.04132e-43
9.63355e-43
-4.86991e-43
4.39566e-42
-2.28626e-42
2.02281e-41
-1.07786e-41
9.42633e-41
-5.11261e-41
4.47332e-40
-2.44868e-40
2.17417e-39
-1.19024e-39
1.08549e-38
-5.90301e-39
5.55112e-38
-2.99834e-38
2.87651e-37
-1.56035e-37
1.68025e-36
-9.67103e-37
9.22205e-36
-5.5808e-36
4.72689e-35
-3.08366e-35
2.26403e-34
-1.60927e-34
1.01719e-33
-7.86385e-34
4.30636e-33
-3.59675e-33
1.72408e-32
-1.54924e-32
6.52506e-32
-6.33723e-32
2.30986e-31
-2.47604e-31
7.40651e-31
-9.19835e-31
2.02936e-30
-3.1545e-30
4.19027e-30
-9.36529e-30
4.85715e-30
-2.09215e-29
5.11656e-31
-2.58584e-29
-8.08512e-30
-2.85289e-30
-3.87109e-29
3.9345e-29
-8.496e-28
8.57252e-28
-1.89996e-26
1.9442e-26
-4.16016e-25
4.22149e-25
1.0778e-23
6.79077e-55
-2.40327e-55
2.21326e-54
-6.58615e-55
7.42686e-54
-2.24634e-54
2.55074e-53
-7.89237e-54
8.96077e-53
-2.83781e-53
3.21841e-52
-1.04349e-52
1.1812e-51
-3.922e-52
4.42712e-51
-1.50592e-51
1.6933e-50
-5.90328e-51
6.6041e-50
-2.36086e-50
2.62406e-49
-9.62444e-50
1.06115e-48
-3.99588e-49
4.36256e-48
-1.68786e-48
1.82108e-47
-7.24512e-48
7.70815e-47
-3.15639e-47
3.30344e-46
-1.39367e-46
1.43115e-45
-6.22698e-46
6.25712e-45
-2.81064e-45
2.75589e-44
-1.2792e-44
1.22061e-43
-5.85906e-44
5.42744e-43
-2.69521e-43
2.41951e-42
-1.24277e-42
1.08064e-41
-5.73475e-42
4.83803e-41
-2.64571e-41
2.17602e-40
-1.2205e-40
9.87527e-40
-5.64002e-40
4.5495e-39
-2.62072e-39
2.14065e-38
-1.23161e-38
1.0315e-37
-5.89471e-38
5.06552e-37
-2.89093e-37
2.82751e-36
-1.69922e-36
1.5016e-35
-9.38234e-36
7.53689e-35
-5.0287e-35
3.57374e-34
-2.57969e-34
1.60528e-33
-1.25334e-33
6.84976e-33
-5.74942e-33
2.77791e-32
-2.49766e-32
1.06575e-31
-1.03261e-31
3.80938e-31
-4.07107e-31
1.22884e-30
-1.51867e-30
3.39742e-30
-5.21808e-30
7.23208e-30
-1.56236e-29
9.19445e-30
-3.60906e-29
1.42516e-30
-4.91114e-29
-1.76292e-29
-7.99094e-30
-7.87335e-29
9.56491e-29
-1.64716e-27
2.02954e-27
-3.54647e-26
4.46566e-26
-7.25147e-25
9.36521e-25
2.20468e-23
1.90636e-54
-6.80459e-55
6.16799e-54
-1.84986e-54
2.05474e-53
-6.26342e-54
7.00523e-53
-2.18465e-53
2.44268e-52
-7.79759e-53
8.70738e-52
-2.84595e-52
3.17142e-51
-1.06162e-51
1.1795e-50
-4.04525e-51
4.47633e-50
-1.57355e-50
1.73212e-49
-6.24401e-50
6.82771e-49
-2.52546e-49
2.73893e-48
-1.04019e-48
1.11687e-47
-4.35845e-48
4.62385e-47
-1.85566e-47
1.94079e-46
-8.01771e-47
8.24639e-46
-3.51045e-46
3.54105e-45
-1.55503e-45
1.53387e-44
-6.95657e-45
6.6891e-44
-3.13669e-44
2.93058e-43
-1.42239e-43
1.28706e-42
-6.47158e-43
5.6543e-42
-2.94703e-42
2.48038e-41
-1.33999e-41
1.08532e-40
-6.07095e-41
4.73809e-40
-2.73681e-40
2.06843e-39
-1.22741e-39
9.07276e-39
-5.48596e-39
4.02663e-38
-2.45477e-38
1.82109e-37
-1.10848e-37
8.41182e-37
-5.10475e-37
4.4491e-36
-2.82436e-36
2.27203e-35
-1.47939e-35
1.11276e-34
-7.64059e-35
5.21673e-34
-3.83823e-34
2.34437e-33
-1.85194e-33
1.01093e-32
-8.53015e-33
4.17191e-32
-3.74866e-32
1.63176e-31
-1.57292e-31
5.92373e-31
-6.28305e-31
1.93265e-30
-2.36074e-30
5.40591e-30
-8.14331e-30
1.18517e-29
-2.45997e-29
1.65133e-29
-5.87022e-29
5.03963e-30
-8.80584e-29
-3.57242e-29
-2.83464e-29
-1.39855e-28
1.95791e-28
-2.83058e-27
4.08662e-27
-5.80324e-26
8.76302e-26
-1.09995e-24
1.79539e-24
4.0613e-23
4.99319e-54
-1.79867e-54
1.60352e-53
-4.84938e-54
5.3023e-53
-1.62975e-53
1.79418e-52
-5.64247e-53
6.20869e-52
-1.99887e-52
2.19617e-51
-7.24008e-52
7.93661e-51
-2.67999e-51
2.92846e-50
-1.01324e-50
1.1025e-49
-3.91029e-50
4.23164e-49
-1.53926e-49
1.65441e-48
-6.17544e-49
6.58181e-48
-2.52279e-48
2.66151e-47
-1.04835e-47
1.09256e-46
-4.42627e-47
4.54665e-46
-1.89634e-46
1.91509e-45
-8.23204e-46
8.15057e-45
-3.61493e-45
3.49827e-44
-1.60284e-44
1.511e-43
-7.16109e-44
6.55237e-43
-3.21627e-43
2.84549e-42
-1.4484e-42
1.23418e-41
-6.52188e-42
5.33231e-41
-2.92772e-41
2.28962e-40
-1.30645e-40
9.75567e-40
-5.77984e-40
4.12466e-39
-2.53024e-39
1.7346e-38
-1.09552e-38
7.29763e-38
-4.70182e-38
3.09883e-37
-2.01387e-37
1.33946e-36
-8.71442e-37
6.65287e-36
-4.51541e-36
3.23819e-35
-2.22299e-35
1.53761e-34
-1.09593e-34
7.09949e-34
-5.35346e-34
3.1863e-33
-2.55497e-33
1.38883e-32
-1.18012e-32
5.84385e-32
-5.25127e-32
2.33732e-31
-2.24153e-31
8.65874e-31
-9.09433e-31
2.87091e-30
-3.45214e-30
8.14792e-30
-1.19832e-29
1.83668e-29
-3.65502e-29
2.77426e-29
-8.99004e-29
1.34267e-29
-1.47247e-28
-5.95783e-29
-7.56855e-29
-2.07349e-28
3.2101e-28
-4.09286e-27
6.62402e-27
-7.88948e-26
1.39489e-25
-1.37539e-24
2.78404e-24
6.27148e-23
1.22654e-53
-4.4617e-54
3.90901e-53
-1.19266e-53
1.28283e-52
-3.97783e-53
4.30764e-52
-1.36682e-52
1.4791e-51
-4.80508e-52
5.19084e-51
-1.72698e-51
1.86093e-50
-6.34244e-51
6.811e-50
-2.37886e-50
2.54319e-49
-9.10646e-50
9.68037e-49
-3.55542e-49
3.75289e-48
-1.41463e-48
1.48035e-47
-5.73072e-48
5.9348e-47
-2.36128e-47
2.41514e-46
-9.88454e-47
9.96247e-46
-4.19831e-46
4.1591e-45
-1.80663e-45
1.75419e-44
-7.86356e-45
7.46014e-44
-3.45554e-44
3.19189e-43
-1.5298e-43
1.37057e-42
-6.80656e-43
5.88987e-42
-3.0354e-42
2.52547e-41
-1.35266e-41
1.07698e-40
-6.00365e-41
4.55305e-40
-2.64475e-40
1.9026e-39
-1.15229e-39
7.84249e-39
-4.94895e-39
3.18798e-38
-2.09012e-38
1.28192e-37
-8.6774e-38
5.13902e-37
-3.55575e-37
2.07797e-36
-1.45408e-36
9.62402e-36
-7.05369e-36
4.41846e-35
-3.23993e-35
2.01487e-34
-1.50776e-34
9.09987e-34
-7.08822e-34
4.06086e-33
-3.32179e-33
1.78459e-32
-1.53231e-32
7.64563e-32
-6.89306e-32
3.12929e-31
-2.99242e-31
1.18681e-30
-1.23489e-30
4.01628e-30
-4.74992e-30
1.16062e-29
-1.66421e-29
2.68795e-29
-5.13356e-29
4.34651e-29
-1.29891e-28
2.84023e-29
-2.29483e-28
-8.46258e-29
-1.60585e-28
-2.71608e-28
4.44039e-28
-5.25502e-27
9.17569e-27
-9.46531e-26
1.90541e-25
-1.54935e-24
3.75033e-24
8.53987e-23
2.83922e-53
-1.04363e-53
8.9783e-53
-2.76506e-53
2.92376e-52
-9.15079e-53
9.74139e-52
-3.12017e-52
3.31847e-51
-1.08839e-51
1.15527e-50
-3.88094e-51
4.10803e-50
-1.41392e-50
1.49113e-49
-5.26021e-50
5.52121e-49
-1.9971e-49
2.08376e-48
-7.73231e-49
8.00887e-48
-3.05056e-48
3.13167e-47
-1.22524e-47
1.24445e-46
-5.00482e-47
5.01924e-46
-2.07678e-46
2.05186e-45
-8.7431e-46
8.48845e-45
-3.72891e-45
3.54745e-44
-1.60851e-44
1.49468e-43
-7.00452e-44
6.33505e-43
-3.07265e-43
2.69406e-42
-1.35446e-42
1.14621e-41
-5.98314e-42
4.86307e-41
-2.64022e-41
2.05013e-40
-1.1598e-40
8.55488e-40
-5.0524e-40
3.51971e-39
-2.1737e-39
1.42263e-38
-9.19703e-39
5.63461e-38
-3.81177e-38
2.18682e-37
-1.5435e-37
8.35663e-37
-6.11226e-37
3.17944e-36
-2.38565e-36
1.37078e-35
-1.0898e-35
5.88117e-35
-4.661e-35
2.54528e-34
-2.02701e-34
1.11304e-33
-9.05366e-34
4.90072e-33
-4.12065e-33
2.15789e-32
-1.8837e-32
9.3719e-32
-8.52189e-32
3.9193e-31
-3.7527e-31
1.52401e-30
-1.57578e-30
5.28364e-30
-6.15913e-30
1.56131e-29
-2.18619e-29
3.7187e-29
-6.83869e-29
6.37553e-29
-1.77849e-28
5.11547e-29
-3.35474e-28
-1.07322e-28
-2.9086e-28
-3.23132e-28
5.50558e-28
-6.18037e-27
1.13786e-26
-1.05436e-25
2.29707e-25
-1.67746e-24
4.63012e-24
1.11567e-22
6.22137e-53
-2.31255e-53
1.95167e-52
-6.07035e-53
6.30567e-52
-1.99299e-52
2.08426e-51
-6.74234e-52
7.0431e-51
-2.33329e-51
2.43196e-50
-8.25336e-51
8.57622e-50
-2.98248e-50
3.08685e-49
-1.10043e-49
1.13322e-48
-4.14302e-49
4.23989e-48
-1.59048e-48
1.6153e-47
-6.22089e-48
6.26009e-47
-2.47684e-47
2.46525e-46
-1.00283e-46
9.85267e-46
-4.12425e-46
3.99081e-45
-1.72068e-45
1.63571e-44
-7.27223e-45
6.77218e-44
-3.10838e-44
2.82662e-43
-1.34119e-43
1.18671e-42
-5.82916e-43
4.99844e-42
-2.54579e-42
2.10601e-41
-1.1141e-41
8.84632e-41
-4.87003e-41
3.69063e-40
-2.11881e-40
1.52284e-39
-9.1384e-40
6.18682e-39
-3.89002e-39
2.46333e-38
-1.62651e-38
9.57128e-38
-6.64732e-38
3.61953e-37
-2.64406e-37
1.33387e-36
-1.0218e-36
4.8287e-36
-3.85181e-36
1.94966e-35
-1.67566e-35
7.78612e-35
-6.712e-35
3.16145e-34
-2.71517e-34
1.3209e-33
-1.13774e-33
5.67002e-33
-4.95714e-33
2.4768e-32
-2.21802e-32
1.08263e-31
-9.99984e-32
4.6076e-31
-4.44398e-31
1.8362e-30
-1.89669e-30
6.54113e-30
-7.55069e-30
1.98598e-29
-2.72664e-29
4.87894e-29
-8.68246e-29
8.82431e-29
-2.32235e-28
8.26292e-29
-4.64661e-28
-1.26017e-28
-4.74432e-28
-3.56975e-28
7.30566e-28
-6.70406e-27
1.31565e-26
-1.09108e-25
2.56221e-25
-1.6363e-24
5.58078e-24
1.42446e-22
1.2961e-52
-4.87622e-53
4.03246e-52
-1.26744e-52
1.29237e-51
-4.12712e-52
4.23715e-51
-1.38502e-51
1.42008e-50
-4.75439e-51
4.86283e-50
-1.66802e-50
1.70043e-49
-5.97786e-50
6.06815e-49
-2.18718e-49
2.20839e-48
-8.16466e-49
8.18993e-48
-3.10741e-48
3.09234e-47
-1.20481e-47
1.1876e-46
-4.75455e-47
4.63399e-46
-1.90782e-46
1.83488e-45
-7.7752e-46
7.36269e-45
-3.2143e-45
2.9893e-44
-1.34598e-44
1.2259e-43
-5.69993e-44
5.06805e-43
-2.43654e-43
2.10742e-42
-1.04914e-42
8.79164e-42
-4.53943e-42
3.66875e-41
-1.96819e-41
1.52626e-40
-8.52437e-41
6.30564e-40
-3.67479e-40
2.57597e-39
-1.57047e-39
1.03556e-38
-6.62351e-39
4.07541e-38
-2.74301e-38
1.56178e-37
-1.10941e-37
5.80167e-37
-4.35898e-37
2.0854e-36
-1.65768e-36
7.28203e-36
-6.10541e-36
2.78868e-35
-2.56463e-35
1.04196e-34
-9.74331e-35
3.94399e-34
-3.68316e-34
1.55243e-33
-1.43721e-33
6.39519e-33
-5.90321e-33
2.73384e-32
-2.54285e-32
1.19022e-31
-1.12748e-31
5.12027e-31
-5.01437e-31
2.08579e-30
-2.16792e-30
7.64772e-30
-8.80041e-30
2.39705e-29
-3.24667e-29
6.10081e-29
-1.0572e-28
1.16338e-28
-2.91419e-28
1.24411e-28
-6.16677e-28
-1.40502e-28
-7.25107e-28
-4.06282e-28
9.1435e-28
-6.79195e-27
1.46203e-26
-1.01111e-25
2.75762e-25
-2.03296e-24
6.87496e-24
1.63223e-22
2.57844e-52
-9.82927e-53
7.95314e-52
-2.52777e-52
2.52769e-51
-8.16066e-52
8.21826e-51
-2.71594e-51
2.73126e-50
-9.24575e-51
9.27356e-50
-3.21669e-50
3.21501e-49
-1.1431e-49
1.13736e-48
-4.14678e-49
4.1028e-48
-1.53465e-48
1.50797e-47
-5.78984e-48
5.64228e-47
-2.22502e-47
2.14703e-46
-8.70207e-47
8.29986e-46
-3.46019e-46
3.25556e-45
-1.39728e-45
1.29394e-44
-5.72303e-45
5.20327e-44
-2.37421e-44
2.11333e-43
-9.96014e-44
8.65255e-43
-4.21771e-43
3.56327e-42
-1.79907e-42
1.47224e-41
-7.71165e-42
6.08512e-41
-3.31275e-41
2.50767e-40
-1.42176e-40
1.02641e-39
-6.07476e-40
4.15472e-39
-2.5738e-39
1.65505e-38
-1.07651e-38
6.45321e-38
-4.4225e-38
2.44859e-37
-1.77462e-37
8.99085e-37
-6.91575e-37
3.18241e-36
-2.60476e-36
1.08637e-35
-9.46523e-36
4.01098e-35
-3.89153e-35
1.42142e-34
-1.42551e-34
5.0323e-34
-5.10357e-34
1.84875e-33
-1.85916e-33
7.18984e-33
-7.12308e-33
2.95736e-32
-2.90265e-32
1.2643e-31
-1.24437e-31
5.44162e-31
-5.46905e-31
2.2536e-30
-2.37877e-30
8.5024e-30
-9.83557e-30
2.76148e-29
-3.71912e-29
7.3165e-29
-1.24416e-28
1.47351e-28
-3.5438e-28
1.7809e-28
-7.92079e-28
-1.48712e-28
-1.05979e-27
-3.98366e-28
9.47905e-28
-6.00524e-27
1.67618e-26
-9.36942e-26
3.06751e-25
-2.33436e-24
7.67691e-24
1.71138e-22
4.91954e-52
-1.90303e-52
1.50363e-51
-4.83679e-52
4.73738e-51
-1.54736e-51
1.52696e-50
-5.10511e-51
5.03087e-50
-1.72295e-50
1.69333e-49
-5.94272e-50
5.81919e-49
-2.0936e-49
2.04045e-48
-7.52888e-49
7.29483e-48
-2.7619e-48
2.65696e-47
-1.03277e-47
9.85034e-47
-3.93342e-47
3.71355e-46
-1.52446e-46
1.42209e-45
-6.00627e-46
5.52513e-45
-2.40303e-45
2.17495e-44
-9.75075e-45
8.66158e-44
-4.00716e-44
3.48379e-43
-1.66522e-43
1.41249e-42
-6.98495e-43
5.76045e-42
-2.95139e-42
2.35712e-41
-1.25329e-41
9.64999e-41
-5.33428e-41
3.93977e-40
-2.26878e-40
1.59806e-39
-9.6098e-40
6.41281e-39
-4.03801e-39
2.5337e-38
-1.67597e-38
9.80346e-38
-6.83723e-38
3.69286e-37
-2.7267e-37
1.34619e-36
-1.05688e-36
4.72574e-36
-3.96043e-36
1.59448e-35
-1.43029e-35
5.76682e-35
-5.82043e-35
1.97402e-34
-2.08929e-34
6.62758e-34
-7.21482e-34
2.27668e-33
-2.48661e-33
8.26954e-33
-8.89407e-33
3.21637e-32
-3.38802e-32
1.3263e-31
-1.37931e-31
5.62891e-31
-5.8901e-31
2.34815e-30
-2.54751e-30
9.0839e-30
-1.06761e-29
3.06183e-29
-4.14095e-29
8.47763e-29
-1.4282e-28
1.80707e-28
-4.21374e-28
2.46402e-28
-9.9352e-28
-1.11951e-28
-1.50628e-27
-1.11911e-27
7.37391e-28
-5.63037e-27
1.70294e-26
-1.00711e-25
3.36376e-25
-2.40024e-24
7.97009e-24
1.60991e-22
9.04821e-52
-3.56024e-52
2.73803e-51
-8.92517e-52
8.54607e-51
-2.82685e-51
2.72939e-50
-9.23937e-51
8.91104e-50
-3.08973e-50
2.9723e-49
-1.05607e-49
1.01224e-48
-3.68707e-49
3.51721e-48
-1.31404e-48
1.246e-47
-4.77716e-48
4.49657e-47
-1.77024e-47
1.6516e-46
-6.68097e-47
6.16819e-46
-2.56563e-46
2.33974e-45
-1.00152e-45
9.00352e-45
-3.96971e-45
3.51005e-44
-1.59571e-44
1.38429e-43
-6.49594e-44
5.51351e-43
-2.67394e-43
2.21363e-42
-1.11101e-42
8.93988e-42
-4.65022e-42
3.6229e-41
-1.95627e-41
1.46917e-40
-8.25013e-41
5.943e-40
-3.47775e-40
2.38938e-39
-1.46053e-39
9.50904e-39
-6.08819e-39
3.72867e-38
-2.50861e-38
1.43315e-37
-1.01699e-37
5.36876e-37
-4.03542e-37
1.94866e-36
-1.55859e-36
6.81709e-36
-5.82827e-36
2.29136e-35
-2.10233e-35
8.2226e-35
-8.53683e-35
2.76761e-34
-3.04257e-34
8.98964e-34
-1.03192e-33
2.92995e-33
-3.43245e-33
9.95869e-33
-1.16223e-32
3.62161e-32
-4.14214e-32
1.41428e-31
-1.58216e-31
5.81096e-31
-6.44674e-31
2.40721e-30
-2.7276e-30
9.46974e-30
-1.14656e-29
3.30447e-29
-4.54481e-29
9.5736e-29
-1.61719e-28
2.16099e-28
-4.94646e-28
3.31016e-28
-1.22674e-27
1.78249e-29
-2.09146e-27
-3.2439e-27
-1.21893e-28
-4.90084e-27
1.52516e-26
-1.00672e-25
3.32624e-25
-2.26576e-24
7.28738e-24
1.40726e-22
1.61424e-51
-6.48149e-52
4.829e-51
-1.59769e-51
1.49152e-50
-5.00248e-51
4.71561e-50
-1.61796e-50
1.52451e-49
-5.35634e-50
5.03624e-49
-1.81294e-49
1.69888e-48
-6.26916e-49
5.84761e-48
-2.21327e-48
2.05214e-47
-7.97129e-48
7.33633e-47
-2.92648e-47
2.66927e-46
-1.09423e-46
9.87446e-46
-4.16307e-46
3.7099e-45
-1.60996e-45
1.4139e-44
-6.32168e-45
5.45887e-44
-2.51725e-44
2.13195e-43
-1.01508e-43
8.40869e-43
-4.13896e-43
3.34316e-42
-1.70351e-42
1.33709e-41
-7.06335e-42
5.36672e-41
-2.94393e-41
2.15595e-40
-1.23029e-40
8.6421e-40
-5.14069e-40
3.44466e-39
-2.14091e-39
1.35995e-38
-8.85547e-39
5.29482e-38
-3.62373e-38
2.02308e-37
-1.46061e-37
7.54561e-37
-5.77102e-37
2.732e-36
-2.22364e-36
9.55384e-36
-8.31377e-36
3.21561e-35
-3.00484e-35
1.15523e-34
-1.2241e-34
3.87813e-34
-4.37252e-34
1.24314e-33
-1.47808e-33
3.92931e-33
-4.84137e-33
1.26963e-32
-1.58586e-32
4.32703e-32
-5.3682e-32
1.58234e-31
-1.92654e-31
6.17749e-31
-7.40405e-31
2.49325e-30
-3.01086e-30
9.82997e-30
-1.24914e-29
3.5219e-29
-5.00856e-29
1.06434e-28
-1.83063e-28
2.53694e-28
-5.79133e-28
4.3016e-28
-1.50199e-27
2.19619e-28
-2.82581e-27
-2.7104e-27
-1.5648e-27
-4.20737e-27
1.24296e-26
-9.05657e-26
2.93339e-25
-1.94733e-24
6.16378e-24
1.11472e-22
2.8125e-51
-1.15708e-51
8.29964e-51
-2.79268e-51
2.53249e-50
-8.62605e-51
7.91542e-50
-2.75638e-50
2.53109e-49
-9.02164e-50
8.27377e-49
-3.0205e-49
2.76258e-48
-1.03362e-48
9.41419e-48
-3.61227e-48
3.2714e-47
-1.28817e-47
1.15817e-46
-4.68342e-47
4.17324e-46
-1.7344e-46
1.52894e-45
-6.53591e-46
5.68899e-45
-2.50368e-45
2.14723e-44
-9.7381e-45
8.20995e-44
-3.84105e-44
3.1753e-43
-1.5343e-43
1.24025e-42
-6.1972e-43
4.88339e-42
-2.52675e-42
1.93438e-41
-1.03796e-41
7.69081e-41
-4.28656e-41
3.06114e-40
-1.77541e-40
1.21618e-39
-7.35475e-40
4.80703e-39
-3.03814e-39
1.88329e-38
-1.2473e-38
7.28347e-38
-5.07064e-38
2.76806e-37
-2.03295e-37
1.02874e-36
-8.00278e-37
3.72003e-36
-3.07876e-36
1.30294e-35
-1.15231e-35
4.4056e-35
-4.1814e-35
1.59375e-34
-1.71475e-34
5.38961e-34
-6.17697e-34
1.7321e-33
-2.10313e-33
5.42465e-33
-6.895e-33
1.70485e-32
-2.23281e-32
5.5358e-32
-7.34244e-32
1.90176e-31
-2.51523e-31
6.97508e-31
-9.14115e-31
2.68901e-30
-3.53324e-30
1.04096e-29
-1.42095e-29
3.7706e-29
-5.66611e-29
1.17806e-28
-2.10302e-28
2.94537e-28
-6.83272e-28
5.42672e-28
-1.83684e-27
4.71035e-28
-3.72683e-27
-2.16033e-27
-3.50421e-27
-3.36581e-27
1.26856e-26
-7.44119e-26
2.36143e-25
-1.52136e-24
4.76596e-24
8.18322e-23
4.82166e-51
-2.04322e-51
1.39961e-50
-4.8027e-51
4.2096e-50
-1.45937e-50
1.29826e-49
-4.59709e-50
4.09968e-49
-1.48481e-49
1.32433e-48
-4.90982e-49
4.37222e-48
-1.66053e-48
1.47386e-47
-5.73863e-48
5.068e-47
-2.02459e-47
1.77589e-46
-7.28473e-47
6.33488e-46
-2.67055e-46
2.29791e-45
-9.96432e-46
8.4663e-45
-3.77985e-45
3.1643e-44
-1.45603e-44
1.19812e-43
-5.68833e-44
4.58905e-43
-2.25069e-43
1.77519e-42
-9.00542e-43
6.92294e-42
-3.63761e-42
2.71641e-41
-1.48059e-41
1.07001e-40
-6.05961e-41
4.22061e-40
-2.48788e-40
1.66241e-39
-1.02201e-39
6.51795e-39
-4.18868e-39
2.53502e-38
-1.70738e-38
9.74293e-38
-6.89813e-38
3.68503e-37
-2.75213e-37
1.3656e-36
-1.07996e-36
4.93656e-36
-4.15099e-36
1.73405e-35
-1.55663e-35
5.90278e-35
-5.67866e-35
2.15819e-34
-2.34944e-34
7.39991e-34
-8.56946e-34
2.41021e-33
-2.95956e-33
7.60228e-33
-9.82362e-33
2.37435e-32
-3.19823e-32
7.51694e-32
-1.044e-31
2.46654e-31
-3.49206e-31
8.52167e-31
-1.21946e-30
3.09872e-30
-4.49065e-30
1.15203e-29
-1.72994e-29
4.12832e-29
-6.72556e-29
1.31344e-28
-2.48917e-28
3.40817e-28
-8.20118e-28
6.6998e-28
-2.25868e-27
7.64527e-28
-4.83174e-27
-1.54967e-27
-5.94045e-27
-3.00339e-27
1.02195e-26
-5.53584e-26
1.68937e-25
-1.09799e-24
3.416e-24
5.74963e-23
8.20699e-51
-3.60585e-51
2.33508e-50
-8.20183e-51
6.90264e-50
-2.44309e-50
2.09518e-49
-7.56442e-50
6.51936e-49
-2.40487e-49
2.07726e-48
-7.83651e-49
6.77032e-48
-2.61448e-48
2.2547e-47
-8.92087e-48
7.66397e-47
-3.10966e-47
2.65595e-46
-1.10618e-46
9.37329e-46
-4.01108e-46
3.36481e-45
-1.48089e-45
1.22713e-44
-5.56032e-45
4.54068e-44
-2.12056e-44
1.70235e-43
-8.20367e-44
6.45703e-43
-3.21482e-43
2.47383e-42
-1.27418e-42
9.55637e-42
-5.09921e-42
3.71493e-41
-2.05667e-41
1.45011e-40
-8.34308e-41
5.67007e-40
-3.39625e-40
2.21487e-39
-1.38389e-39
8.61756e-39
-5.62921e-39
3.32876e-38
-2.27907e-38
1.27208e-37
-9.15495e-38
4.79125e-37
-3.63647e-37
1.77177e-36
-1.42328e-36
6.40845e-36
-5.46916e-36
2.26023e-35
-2.05657e-35
7.75818e-35
-7.55052e-35
2.87421e-34
-3.15675e-34
1.0033e-33
-1.16907e-33
3.33395e-33
-4.11416e-33
1.07039e-32
-1.39274e-32
3.37556e-32
-4.61013e-32
1.06378e-31
-1.51843e-31
3.40572e-31
-5.06302e-31
1.12473e-30
-1.73458e-30
3.85752e-30
-6.17164e-30
1.35519e-29
-2.27684e-29
4.69487e-29
-8.4993e-29
1.49149e-28
-3.07229e-28
3.96072e-28
-1.00898e-27
8.16461e-28
-2.80679e-27
1.09956e-27
-6.19927e-27
-9.37784e-28
-8.90663e-27
-2.7488e-27
7.76274e-27
-3.74873e-26
1.054e-25
-7.54434e-25
2.34578e-24
3.93194e-23
1.40218e-50
-6.43376e-51
3.89424e-50
-1.40645e-50
1.1273e-49
-4.08952e-50
3.35644e-49
-1.24002e-49
1.02599e-48
-3.86721e-49
3.21594e-48
-1.23805e-48
1.03239e-47
-4.0636e-48
3.39011e-47
-1.3658e-47
1.13728e-46
-4.69486e-47
3.89279e-46
-1.64844e-46
1.35781e-45
-5.90463e-46
4.8199e-45
-2.15488e-45
1.73893e-44
-8.00207e-45
6.3676e-44
-3.01961e-44
2.36316e-43
-1.15628e-43
8.87505e-43
-4.4865e-43
3.36747e-42
-1.76117e-42
1.28862e-41
-6.98247e-42
4.96359e-41
-2.79084e-41
1.92043e-40
-1.12228e-40
7.44588e-40
-4.53056e-40
2.88559e-39
-1.83168e-39
1.11464e-38
-7.39728e-39
4.27856e-38
-2.97592e-38
1.62678e-37
-1.18914e-37
6.10627e-37
-4.70539e-37
2.25522e-36
-1.83806e-36
8.17017e-36
-7.06654e-36
2.89684e-35
-2.66688e-35
1.00413e-34
-9.86468e-35
3.77667e-34
-4.1735e-34
1.3456e-33
-1.57248e-33
4.57952e-33
-5.65515e-33
1.50616e-32
-1.96105e-32
4.84577e-32
-6.6464e-32
1.54222e-31
-2.23289e-31
4.90568e-31
-7.53132e-31
1.57663e-30
-2.57706e-30
5.15038e-30
-9.01318e-30
1.70129e-29
-3.21263e-29
5.59944e-29
-1.14513e-28
1.74088e-28
-3.97537e-28
4.65566e-28
-1.27761e-27
9.90206e-28
-3.5346e-27
1.4915e-27
-7.91121e-27
6.88769e-29
-1.25368e-26
-1.59545e-26
-5.87477e-28
-2.38134e-26
6.18389e-26
-5.02486e-25
1.56295e-24
2.62029e-23
2.43342e-50
-1.17318e-50
6.56919e-50
-2.4505e-50
1.85473e-49
-6.92584e-50
5.39526e-49
-2.04824e-49
1.61394e-48
-6.24091e-49
4.95889e-48
-1.95528e-48
1.56296e-47
-6.29122e-48
5.04649e-47
-2.07618e-47
1.66685e-46
-7.01791e-47
5.6241e-46
-2.42636e-46
1.93566e-45
-8.56812e-46
6.78574e-45
-3.08584e-45
2.41947e-44
-1.13185e-44
8.76089e-44
-4.22176e-44
3.21676e-43
-1.59894e-43
1.19575e-42
-6.13949e-43
4.49244e-42
-2.38608e-42
1.70285e-41
-9.36999e-42
6.49963e-41
-3.71103e-41
2.49298e-40
-1.4794e-40
9.58714e-40
-5.92352e-40
3.68753e-39
-2.37675e-39
1.41486e-38
-9.53309e-39
5.40018e-38
-3.81255e-38
2.04439e-37
-1.51629e-37
7.65435e-37
-5.98088e-37
2.82638e-36
-2.33355e-36
1.02682e-35
-8.98399e-36
3.66499e-35
-3.4063e-35
1.28477e-34
-1.27091e-34
4.91364e-34
-5.44813e-34
1.79008e-33
-2.0916e-33
6.25457e-33
-7.7016e-33
2.11547e-32
-2.74331e-32
6.98556e-32
-9.56149e-32
2.26482e-31
-3.29779e-31
7.24611e-31
-1.13526e-30
2.29933e-30
-3.9271e-30
7.24483e-30
-1.36862e-29
2.2613e-29
-4.76528e-29
7.01822e-29
-1.62662e-28
2.10144e-28
-5.37592e-28
5.56966e-28
-1.66453e-27
1.2033e-27
-4.51137e-27
1.94279e-27
-1.0064e-26
1.13517e-27
-1.68125e-26
-9.87209e-27
-9.88108e-27
-1.49968e-26
3.80658e-26
-3.25997e-25
1.00896e-24
1.69351e-23
4.33317e-50
-2.20089e-50
1.13356e-49
-4.3809e-50
3.11062e-49
-1.19984e-49
8.80549e-49
-3.44875e-49
2.56696e-48
-1.0226e-48
7.69878e-48
-3.12227e-48
2.3728e-47
-9.80661e-48
7.50509e-47
-3.16482e-47
2.43259e-46
-1.04804e-46
8.06732e-46
-3.55606e-46
2.733e-45
-1.23439e-45
9.44268e-45
-4.37651e-45
3.32189e-44
-1.58233e-44
1.18794e-43
-5.82427e-44
4.31118e-43
-2.17894e-43
1.58509e-42
-8.27128e-43
5.8939e-42
-3.18033e-42
2.21235e-41
-1.23641e-41
8.36693e-41
-4.85087e-41
3.18166e-40
-1.91682e-40
1.21385e-39
-7.61266e-40
4.63546e-39
-3.03193e-39
1.76752e-38
-1.20817e-38
6.71229e-38
-4.80541e-38
2.53221e-37
-1.90324e-37
9.46604e-37
-7.48864e-37
3.49868e-36
-2.92084e-36
1.27633e-35
-1.12717e-35
4.59242e-35
-4.29832e-35
1.63047e-34
-1.61954e-34
6.35025e-34
-7.0432e-34
2.36901e-33
-2.75868e-33
8.51346e-33
-1.04151e-32
2.9687e-32
-3.81808e-32
1.00936e-31
-1.37228e-31
3.34977e-31
-4.87589e-31
1.08563e-30
-1.7216e-30
3.43282e-30
-6.06131e-30
1.05457e-29
-2.12202e-29
3.14078e-29
-7.2781e-29
9.20774e-29
-2.39415e-28
2.6306e-28
-7.5221e-28
6.81476e-28
-2.22093e-27
1.47374e-27
-5.82241e-27
2.46991e-27
-1.27673e-26
2.18376e-27
-2.1756e-26
-6.13014e-27
-1.91684e-26
-9.347e-27
3.11928e-26
-2.04726e-25
6.26263e-25
1.05298e-23
7.95884e-50
-4.25068e-50
2.01627e-49
-8.07712e-50
5.36833e-49
-2.14232e-49
1.47487e-48
-5.9747e-49
4.17542e-48
-1.71942e-48
1.21748e-47
-5.09849e-48
3.65353e-47
-1.55694e-47
1.12715e-46
-4.89257e-47
3.57024e-46
-1.58042e-46
1.1593e-45
-5.24087e-46
3.8526e-45
-1.78143e-45
1.30802e-44
-6.1965e-45
4.52887e-44
-2.2018e-44
1.59622e-43
-7.97773e-44
5.71638e-43
-2.94209e-43
2.07621e-42
-1.1023e-42
7.63356e-42
-4.18789e-42
2.83568e-41
-1.61031e-41
1.0622e-40
-6.25437e-41
4.00386e-40
-2.44872e-40
1.51548e-39
-9.64414e-40
5.74719e-39
-3.81261e-39
2.17869e-38
-1.5096e-38
8.23708e-38
-5.97352e-38
3.09896e-37
-2.35726e-37
1.15779e-36
-9.25828e-37
4.28827e-36
-3.61281e-36
1.57292e-35
-1.39886e-35
5.71356e-35
-5.37091e-35
2.05742e-34
-2.04599e-34
8.17248e-34
-9.03695e-34
3.12663e-33
-3.61547e-33
1.1575e-32
-1.40127e-32
4.16823e-32
-5.29443e-32
1.46152e-31
-1.96543e-31
4.97717e-31
-7.20511e-31
1.6399e-30
-2.61517e-30
5.19443e-30
-9.39856e-30
1.56808e-29
-3.31687e-29
4.50315e-29
-1.12562e-28
1.25587e-28
-3.58858e-28
3.41368e-28
-1.07452e-27
8.55369e-28
-3.01083e-27
1.82699e-27
-7.56564e-27
3.10169e-27
-1.61309e-26
3.2366e-27
-2.74066e-26
-3.71292e-27
-2.82659e-26
-7.07781e-27
2.21708e-26
-1.22279e-25
3.67764e-25
6.22889e-24
1.50655e-49
-8.41171e-50
3.70411e-49
-1.5345e-49
9.57749e-49
-3.95006e-49
2.55294e-48
-1.06985e-48
7.00828e-48
-2.9873e-48
1.98158e-47
-8.58981e-48
5.76991e-47
-2.54375e-47
1.72922e-46
-7.75667e-47
5.32927e-46
-2.4342e-46
1.68688e-45
-7.85462e-46
5.47576e-45
-2.60286e-45
1.81972e-44
-8.84465e-45
6.17952e-44
-3.07659e-44
2.14016e-43
-1.09347e-43
7.54418e-43
-3.96322e-43
2.70128e-42
-1.46188e-42
9.80474e-42
-5.47656e-42
3.60015e-41
-2.0794e-41
1.33452e-40
-7.98527e-41
4.9836e-40
-3.09489e-40
1.8709e-39
-1.20804e-39
7.04558e-39
-4.73878e-39
2.6559e-38
-1.8642e-38
1.00009e-37
-7.33968e-38
3.75465e-37
-2.88672e-37
1.40313e-36
-1.1323e-36
5.21342e-36
-4.42367e-36
1.92507e-35
-1.72e-35
7.06898e-35
-6.6556e-35
2.58547e-34
-2.56603e-34
1.04905e-33
-1.15239e-33
4.1221e-33
-4.71467e-33
1.57419e-32
-1.87798e-32
5.85949e-32
-7.32043e-32
2.12023e-31
-2.80842e-31
7.41687e-31
-1.0625e-30
2.48838e-30
-3.96571e-30
7.91894e-30
-1.4552e-29
2.36282e-29
-5.17844e-29
6.60416e-29
-1.74113e-28
1.76739e-28
-5.39868e-28
4.57734e-28
-1.54606e-27
1.10146e-27
-4.10849e-27
2.29584e-27
-9.84217e-27
3.87129e-27
-2.02422e-26
4.32779e-27
-3.37505e-26
-2.09179e-27
-3.70889e-26
-4.72105e-27
1.64951e-26
-6.75874e-26
1.98094e-25
3.46432e-24
2.92169e-49
-1.69199e-49
7.00159e-49
-2.98621e-49
1.76389e-48
-7.4925e-49
4.57244e-48
-1.97727e-48
1.21859e-47
-5.36939e-48
3.34086e-47
-1.49896e-47
9.42616e-47
-4.30433e-47
2.7374e-46
-1.2719e-46
8.18009e-46
-3.868e-46
2.51368e-45
-1.21031e-45
7.93488e-45
-3.89402e-45
2.56946e-44
-1.2869e-44
8.52082e-44
-4.36241e-44
2.88822e-43
-1.51431e-43
9.98603e-43
-5.37248e-43
3.5143e-42
-1.94407e-42
1.25608e-41
-7.15945e-42
4.54956e-41
-2.67741e-41
1.66626e-40
-1.01448e-40
6.15734e-40
-3.88594e-40
2.29078e-39
-1.50144e-39
8.56245e-39
-5.83907e-39
3.20897e-38
-2.28094e-38
1.20359e-37
-8.93295e-38
4.51071e-37
-3.50158e-37
1.68712e-36
-1.37197e-36
6.2936e-36
-5.36857e-36
2.34194e-35
-2.09743e-35
8.70414e-35
-8.18604e-35
3.23789e-34
-3.19717e-34
1.34399e-33
-1.46135e-33
5.43136e-33
-6.12015e-33
2.14169e-32
-2.5076e-32
8.24203e-32
-1.00889e-31
3.07785e-31
-3.99845e-31
1.10604e-30
-1.55998e-30
3.78033e-30
-5.98076e-30
1.21094e-29
-2.23722e-29
3.58828e-29
-8.01442e-29
9.83685e-29
-2.66811e-28
2.54606e-28
-8.0595e-28
6.30209e-28
-2.2148e-27
1.44961e-27
-5.59118e-27
2.91745e-27
-1.27398e-26
4.80544e-27
-2.51325e-26
5.47956e-27
-4.06563e-26
-1.52856e-28
-4.55e-26
-2.53485e-26
1.23626e-27
-3.45757e-26
9.81757e-26
1.83145e-24
5.75501e-49
-3.42885e-49
1.35112e-48
-5.90116e-49
3.33186e-48
-1.45057e-48
8.43501e-48
-3.74725e-48
2.1902e-47
-9.93837e-48
5.83739e-47
-2.70328e-47
1.59821e-46
-7.54686e-47
4.49783e-46
-2.16412e-46
1.30163e-45
-6.37842e-46
3.87354e-45
-1.93296e-45
1.18496e-44
-6.02325e-45
3.72343e-44
-1.92924e-44
1.20034e-43
-6.34677e-44
3.96377e-43
-2.14197e-43
1.33828e-42
-7.40441e-43
4.61012e-42
-2.61678e-42
1.61672e-41
-9.43472e-42
5.7586e-41
-3.46253e-41
2.07849e-40
-1.29046e-40
7.58464e-40
-4.87259e-40
2.79199e-39
-1.85966e-39
1.0346e-38
-7.15819e-39
3.85185e-38
-2.77319e-38
1.4384e-37
-1.07939e-37
5.38067e-37
-4.21457e-37
2.01461e-36
-1.64913e-36
7.54893e-36
-6.46359e-36
2.83295e-35
-2.53809e-35
1.06672e-34
-9.99625e-35
4.04044e-34
-3.95766e-34
1.7178e-33
-1.8425e-33
7.14642e-33
-7.90486e-33
2.91073e-32
-3.33288e-32
1.15768e-31
-1.38361e-31
4.45902e-31
-5.65817e-31
1.64496e-30
-2.27271e-30
5.72665e-30
-8.92965e-30
1.84919e-29
-3.39572e-29
5.46372e-29
-1.22122e-28
1.47762e-28
-4.01965e-28
3.7201e-28
-1.18373e-27
8.82479e-28
-3.13023e-27
1.93423e-27
-7.52686e-27
3.72518e-27
-1.63055e-26
5.9079e-27
-3.07342e-26
6.62148e-27
-4.7812e-26
1.35926e-27
-5.273e-26
-1.55991e-26
-1.0631e-26
-1.71839e-26
6.31623e-26
1.32444e-24
1.14108e-48
-6.94518e-49
2.63727e-48
-1.17358e-48
6.39657e-48
-2.84003e-48
1.58927e-47
-7.21629e-48
4.03996e-47
-1.87841e-47
1.05145e-46
-5.00234e-47
2.80412e-46
-1.3638e-46
7.66952e-46
-3.80967e-46
2.1529e-45
-1.09131e-45
6.20606e-45
-3.20821e-45
1.83771e-44
-9.68454e-45
5.58967e-44
-3.00286e-44
1.74561e-43
-9.56348e-44
5.59199e-43
-3.12697e-43
1.83513e-42
-1.04873e-42
6.15888e-42
-3.60296e-42
2.1096e-41
-1.26577e-41
7.35858e-41
-4.53798e-41
2.60781e-40
-1.65656e-40
9.36752e-40
-6.14274e-40
3.40292e-39
-2.30834e-39
1.24748e-38
-8.77073e-39
4.60634e-38
-3.36257e-38
1.71061e-37
-1.2985e-37
6.38211e-37
-5.04392e-37
2.39117e-36
-1.96926e-36
8.99994e-36
-7.72675e-36
3.40725e-35
-3.04891e-35
1.30056e-34
-1.21185e-34
5.01944e-34
-4.86498e-34
2.18737e-33
-2.30778e-33
9.37062e-33
-1.01452e-32
3.94076e-32
-4.40038e-32
1.61827e-31
-1.88289e-31
6.42119e-31
-7.93018e-31
2.42891e-30
-3.27135e-30
8.60868e-30
-1.31325e-29
2.80528e-29
-5.05948e-29
8.28991e-29
-1.82118e-28
2.21971e-28
-5.91771e-28
5.45211e-28
-1.69977e-27
1.24133e-27
-4.3347e-27
2.58674e-27
-9.95355e-27
4.73416e-27
-2.051e-26