/*--------------------------------*- C++ -*----------------------------------*\
  =========                 |
  \\      /  F ield         | OpenFOAM: The Open Source CFD Toolbox
   \\    /   O peration     | Website:  https://openfoam.org
    \\  /    A nd           | Version:  9
     \\/     M anipulation  |
\*---------------------------------------------------------------------------*/
FoamFile
{
    format      ascii;
    class       volScalarField;
    location    "0.13";
    object      p_rgh;
}
// * * * * * * * * * * * * * * * * * * * * * * * * * * * * * * * * * * * * * //

dimensions      [1 -1 -2 0 0 0 0];

internalField   nonuniform List<scalar> 
5000
(
-0.000774609
-0.00233276
-0.00397232
-0.0056914
-0.00749685
-0.00939304
-0.0113845
-0.0134765
-0.0156747
-0.0179854
-0.0204156
-0.0229731
-0.0256666
-0.0285055
-0.0315004
-0.034663
-0.038006
-0.0415438
-0.0452927
-0.0492724
-0.0535076
-0.0580309
-0.0628876
-0.0681414
-0.0738843
-0.0802397
-0.087372
-0.095584
-0.105252
-0.11642
-0.131198
-0.149834
-0.167748
-0.183891
-0.19902
-0.214324
-0.229684
-0.244804
-0.260904
-0.280515
-0.305276
-0.334451
-0.366805
-0.403124
-0.445488
-0.495142
-0.551993
-0.614516
-0.680682
-0.751416
-0.000805703
-0.0024113
-0.00410192
-0.00587293
-0.00773253
-0.00968505
-0.011735
-0.0138875
-0.0161482
-0.0185233
-0.0210198
-0.023645
-0.0264072
-0.0293155
-0.0323798
-0.0356108
-0.0390204
-0.0426215
-0.046429
-0.0504605
-0.0547377
-0.0592892
-0.0641543
-0.0693878
-0.0750692
-0.0813057
-0.0882411
-0.0961437
-0.10536
-0.115958
-0.129811
-0.146974
-0.163421
-0.178703
-0.194137
-0.211037
-0.228836
-0.246474
-0.264712
-0.286302
-0.31342
-0.34536
-0.380282
-0.418578
-0.462715
-0.514472
-0.573738
-0.638769
-0.707634
-0.781481
-0.000836554
-0.00249038
-0.00423251
-0.00605593
-0.00797021
-0.0099796
-0.0120885
-0.0143021
-0.0166258
-0.0190659
-0.0216289
-0.0243219
-0.027153
-0.0301306
-0.0332642
-0.0365639
-0.0400405
-0.0437061
-0.0475742
-0.0516603
-0.0559837
-0.0605692
-0.0654501
-0.0706727
-0.0763035
-0.0824332
-0.089185
-0.0967904
-0.105565
-0.115618
-0.128603
-0.144461
-0.159794
-0.17465
-0.190725
-0.209349
-0.229544
-0.249572
-0.269734
-0.292912
-0.321748
-0.355661
-0.392348
-0.431904
-0.477238
-0.530694
-0.592088
-0.659321
-0.730562
-0.807052
-0.000866486
-0.00256829
-0.00436156
-0.0062371
-0.00820594
-0.0102722
-0.0124401
-0.0147149
-0.0171021
-0.0196076
-0.0222378
-0.0249997
-0.0279008
-0.0309494
-0.0341541
-0.0375247
-0.0410713
-0.044805
-0.0487382
-0.0528846
-0.057261
-0.0618884
-0.0667947
-0.0720182
-0.0776132
-0.0836545
-0.0902457
-0.0975813
-0.105945
-0.115501
-0.127709
-0.142461
-0.157008
-0.171764
-0.188639
-0.208917
-0.2313
-0.253508
-0.275364
-0.299719
-0.329571
-0.364595
-0.402292
-0.44263
-0.48896
-0.544082
-0.607536
-0.676664
-0.749639
-0.827941
-0.000895733
-0.00264524
-0.0044891
-0.00641626
-0.0084392
-0.0105619
-0.0127887
-0.0151246
-0.0175753
-0.0201465
-0.0228445
-0.0256763
-0.0286489
-0.0317705
-0.0350493
-0.0384945
-0.0421158
-0.0459234
-0.0499284
-0.0541432
-0.0585818
-0.0632618
-0.068206
-0.0734449
-0.0790218
-0.0849972
-0.0914569
-0.0985611
-0.106563
-0.115686
-0.127229
-0.141086
-0.155122
-0.169991
-0.18767
-0.209373
-0.233614
-0.257719
-0.281014
-0.306093
-0.336175
-0.371374
-0.409377
-0.450233
-0.497641
-0.554612
-0.620154
-0.690916
-0.765026
-0.844235
-0.000924287
-0.00272167
-0.00461597
-0.00659461
-0.00867151
-0.0108506
-0.0131361
-0.0155333
-0.0180476
-0.0206849
-0.0234514
-0.0263539
-0.0293995
-0.0325959
-0.0359513
-0.0394746
-0.0431749
-0.0470618
-0.0511454
-0.0554366
-0.0599474
-0.0646922
-0.0696891
-0.0749618
-0.0805436
-0.0864822
-0.0928482
-0.0997709
-0.107475
-0.11624
-0.127235
-0.140393
-0.154126
-0.169214
-0.187592
-0.210392
-0.23608
-0.261738
-0.28618
-0.311517
-0.341033
-0.37547
-0.413133
-0.45439
-0.503133
-0.562247
-0.629953
-0.702123
-0.776898
-0.856335
-0.000951846
-0.00279714
-0.00474165
-0.00677169
-0.00890251
-0.0111379
-0.0134823
-0.0159409
-0.0185191
-0.0212229
-0.0240585
-0.0270326
-0.0301523
-0.0334252
-0.0368595
-0.0404638
-0.044247
-0.0482183
-0.0523868
-0.0567625
-0.0613557
-0.0661783
-0.0712442
-0.0765716
-0.0821851
-0.0881216
-0.0944387
-0.101239
-0.10872
-0.117208
-0.127773
-0.140406
-0.153974
-0.169302
-0.188197
-0.211713
-0.238387
-0.265207
-0.290485
-0.31567
-0.343936
-0.376794
-0.41358
-0.455231
-0.505647
-0.56723
-0.637188
-0.710566
-0.785568
-0.864652
-0.000978627
-0.00287182
-0.00486617
-0.00694724
-0.0091316
-0.0114231
-0.013826
-0.0163458
-0.018988
-0.0217584
-0.0246635
-0.0277098
-0.0309046
-0.0342556
-0.037771
-0.0414592
-0.0453291
-0.0493896
-0.0536494
-0.0581177
-0.0628037
-0.0677171
-0.0728691
-0.0782728
-0.0839463
-0.0899176
-0.0962337
-0.102975
-0.110315
-0.118611
-0.128864
-0.141119
-0.154606
-0.170135
-0.189334
-0.213179
-0.240368
-0.267937
-0.29375
-0.318494
-0.34505
-0.375736
-0.41124
-0.453301
-0.505672
-0.569934
-0.642143
-0.716526
-0.791382
-0.869621
-0.00100384
-0.00294405
-0.0049875
-0.00711913
-0.00935668
-0.0117039
-0.0141651
-0.0167459
-0.0194518
-0.0222888
-0.0252635
-0.0283825
-0.0316532
-0.0350835
-0.0386818
-0.0424565
-0.0464166
-0.0505707
-0.0549277
-0.0594962
-0.0642849
-0.0693021
-0.0745565
-0.0800581
-0.0858198
-0.0918631
-0.0982267
-0.104974
-0.112256
-0.12045
-0.130503
-0.14251
-0.155962
-0.171623
-0.190917
-0.214738
-0.242005
-0.269915
-0.295996
-0.320159
-0.344839
-0.373064
-0.407036
-0.449482
-0.503919
-0.570853
-0.645145
-0.720288
-0.794686
-0.871687
-0.00102794
-0.00301612
-0.00510784
-0.00728892
-0.00957843
-0.0119802
-0.0144986
-0.0171394
-0.0199083
-0.0228113
-0.0258552
-0.0290468
-0.0323938
-0.0359042
-0.0395866
-0.0434497
-0.0475027
-0.0517543
-0.0562135
-0.0608891
-0.0657894
-0.070922
-0.0762943
-0.081914
-0.0877908
-0.0939419
-0.1004
-0.107216
-0.114524
-0.122704
-0.13267
-0.144546
-0.157993
-0.173713
-0.192922
-0.216431
-0.243396
-0.271274
-0.297401
-0.32099
-0.343931
-0.369757
-0.40213
-0.444864
-0.501243
-0.570572
-0.646578
-0.722165
-0.79583
-0.871283
-0.00105157
-0.00308531
-0.00522429
-0.00745386
-0.00979435
-0.0122495
-0.014824
-0.0175237
-0.0203544
-0.0233226
-0.0264348
-0.0296985
-0.0331214
-0.0367119
-0.040479
-0.0444317
-0.0485793
-0.0529312
-0.0574966
-0.0622848
-0.0673041
-0.0725623
-0.078066
-0.0838222
-0.0898388
-0.0961308
-0.102728
-0.109672
-0.117083
-0.125336
-0.135323
-0.147182
-0.160656
-0.176379
-0.195372
-0.218359
-0.244724
-0.272252
-0.298254
-0.321394
-0.34299
-0.366813
-0.397729
-0.440601
-0.498555
-0.569726
-0.646861
-0.722486
-0.79516
-0.868827
-0.00107968
-0.00315144
-0.00533481
-0.00761067
-0.0100003
-0.0125075
-0.015137
-0.0178944
-0.020786
-0.023818
-0.0269976
-0.0303322
-0.0338302
-0.0375003
-0.0413517
-0.0453941
-0.0496372
-0.0540909
-0.0587651
-0.0636697
-0.0688138
-0.0742056
-0.0798521
-0.0857602
-0.0919381
-0.0983999
-0.105175
-0.1123
-0.119886
-0.128293
-0.138406
-0.150357
-0.163905
-0.179609
-0.198314
-0.220653
-0.246218
-0.27316
-0.298914
-0.321811
-0.342627
-0.365107
-0.394915
-0.437775
-0.496738
-0.568955
-0.646436
-0.72159
-0.793012
-0.864705
-0.00111118
-0.00321832
-0.00544434
-0.00776459
-0.0102007
-0.0127572
-0.0154388
-0.0182513
-0.0212011
-0.0242947
-0.0275394
-0.030943
-0.0345143
-0.0382624
-0.0421969
-0.0463281
-0.0506661
-0.0552218
-0.0600058
-0.065029
-0.0703016
-0.0758325
-0.0816302
-0.0877026
-0.094059
-0.100715
-0.1077
-0.115052
-0.122872
-0.131508
-0.141846
-0.153995
-0.167683
-0.183384
-0.20179
-0.223446
-0.248124
-0.274351
-0.299817
-0.322707
-0.343377
-0.365326
-0.394543
-0.437287
-0.496576
-0.568864
-0.645741
-0.719813
-0.789692
-0.859251
-0.00113129
-0.00327735
-0.00554497
-0.00790906
-0.0103908
-0.0129951
-0.0157266
-0.0185917
-0.0215968
-0.024749
-0.0280559
-0.0315257
-0.0351675
-0.0389909
-0.0430062
-0.047224
-0.0516553
-0.0563116
-0.0612048
-0.0663468
-0.0717491
-0.0774224
-0.0833764
-0.0896215
-0.0961691
-0.103037
-0.110259
-0.117873
-0.125976
-0.134905
-0.145553
-0.158003
-0.171909
-0.187663
-0.205822
-0.22685
-0.250668
-0.276175
-0.301394
-0.324558
-0.345718
-0.367978
-0.397207
-0.439797
-0.498693
-0.569972
-0.645184
-0.717462
-0.785472
-0.852752
-0.00113577
-0.00332623
-0.00563295
-0.00803812
-0.0105633
-0.0132131
-0.0159925
-0.0189079
-0.0219661
-0.0251742
-0.0285403
-0.0320732
-0.0357823
-0.0396778
-0.0437705
-0.0480717
-0.0525932
-0.0573475
-0.0623475
-0.0676066
-0.0731377
-0.0789534
-0.0850659
-0.0914881
-0.0982347
-0.105327
-0.112803
-0.120705
-0.12913
-0.138402
-0.149431
-0.162272
-0.176485
-0.19238
-0.210399
-0.230935
-0.254035
-0.278948
-0.304087
-0.327851
-0.350089
-0.373429
-0.40326
-0.445703
-0.503512
-0.572671
-0.645099
-0.714804
-0.780578
-0.845436
-0.00113581
-0.00337127
-0.00571456
-0.00815712
-0.0107219
-0.0134132
-0.0162364
-0.0191981
-0.0223053
-0.0255656
-0.0289871
-0.0325791
-0.0363514
-0.0403149
-0.0444808
-0.0488611
-0.0534685
-0.0583165
-0.0634193
-0.0687916
-0.0744483
-0.0804039
-0.0866735
-0.0932732
-0.100222
-0.107545
-0.115285
-0.12349
-0.132261
-0.141912
-0.153378
-0.166685
-0.181293
-0.197438
-0.215467
-0.235722
-0.258357
-0.282946
-0.308308
-0.333058
-0.356906
-0.381957
-0.412862
-0.455148
-0.511223
-0.577173
-0.645705
-0.712029
-0.77517
-0.837471
-0.00114209
-0.00341421
-0.00579037
-0.00826664
-0.0108671
-0.0135958
-0.0164584
-0.0194618
-0.0226133
-0.0259206
-0.0293924
-0.0330384
-0.0368687
-0.0408948
-0.0451284
-0.0495823
-0.05427
-0.059206
-0.0644058
-0.0698856
-0.075662
-0.0817523
-0.0881744
-0.0949481
-0.102096
-0.10965
-0.117657
-0.126173
-0.135301
-0.145352
-0.15729
-0.171122
-0.186206
-0.202717
-0.220937
-0.241179
-0.263704
-0.288376
-0.314394
-0.340598
-0.366538
-0.393757
-0.42601
-0.468037
-0.521758
-0.583479
-0.647067
-0.709228
-0.769339
-0.828961
-0.00115607
-0.00345383
-0.0058577
-0.00836321
-0.0109948
-0.0137565
-0.0166541
-0.0196946
-0.0228854
-0.0262347
-0.0297514
-0.0334456
-0.037328
-0.0414104
-0.0457053
-0.050226
-0.054987
-0.0600037
-0.0652931
-0.0708727
-0.0767612
-0.0829783
-0.0895451
-0.0964854
-0.103826
-0.111604
-0.119874
-0.128698
-0.138184
-0.148643
-0.161071
-0.175465
-0.191092
-0.208085
-0.226691
-0.247226
-0.270066
-0.295338
-0.322567
-0.350753
-0.379233
-0.408883
-0.442565
-0.484057
-0.534789
-0.591352
-0.649069
-0.706374
-0.763095
-0.81994
-0.00117095
-0.00348812
-0.00591504
-0.00844542
-0.0111033
-0.013893
-0.0168204
-0.0198926
-0.0231174
-0.026503
-0.0300587
-0.0337949
-0.0377229
-0.0418547
-0.0462035
-0.0507833
-0.0556095
-0.0606985
-0.0660684
-0.0717384
-0.077729
-0.0840626
-0.0907636
-0.0978594
-0.105382
-0.113373
-0.121895
-0.131016
-0.140852
-0.151712
-0.164632
-0.179607
-0.195827
-0.213406
-0.232591
-0.253738
-0.277362
-0.303827
-0.332899
-0.363631
-0.395022
-0.427207
-0.462118
-0.50265
-0.549718
-0.600309
-0.651407
-0.703316
-0.756362
-0.810368
-0.00118011
-0.00351442
-0.00596031
-0.00851136
-0.0111909
-0.0140035
-0.0169553
-0.0200536
-0.0233062
-0.0267218
-0.03031
-0.0340813
-0.0380475
-0.0422211
-0.0466156
-0.051246
-0.0561281
-0.0612797
-0.0667198
-0.0724691
-0.0785501
-0.0849876
-0.0918095
-0.0990469
-0.106736
-0.114925
-0.123681
-0.133082
-0.143249
-0.154493
-0.16789
-0.183448
-0.200292
-0.218542
-0.238485
-0.260558
-0.285438
-0.31371
-0.345271
-0.379074
-0.413634
-0.448275
-0.484015
-0.522986
-0.565689
-0.609634
-0.653605
-0.699791
-0.748989
-0.800145
-0.0011836
-0.00353234
-0.00599288
-0.00855982
-0.0112559
-0.0140862
-0.0170567
-0.020175
-0.0234491
-0.026888
-0.0305015
-0.0343005
-0.0382969
-0.0425038
-0.0469353
-0.0516066
-0.0565346
-0.0617379
-0.0672366
-0.0730527
-0.0792106
-0.0857377
-0.0926648
-0.100027
-0.107865
-0.116231
-0.125199
-0.134855
-0.145328
-0.156927
-0.170775
-0.186899
-0.204378
-0.223362
-0.244212
-0.267494
-0.294064
-0.324715
-0.359336
-0.396604
-0.434413
-0.471237
-0.507241
-0.543936
-0.581593
-0.618408
-0.655051
-0.695454
-0.740766
-0.789113
-0.00118377
-0.00354245
-0.00601276
-0.00859047
-0.0112978
-0.0141399
-0.0171231
-0.020255
-0.0235439
-0.0269989
-0.0306301
-0.0344487
-0.0384669
-0.0426981
-0.0471568
-0.0518588
-0.0568219
-0.0620651
-0.0676096
-0.0734788
-0.0796988
-0.0862993
-0.093314
-0.100781
-0.108746
-0.117266
-0.126419
-0.136301
-0.147047
-0.158965
-0.173224
-0.18988
-0.207983
-0.227735
-0.249602
-0.274317
-0.30293
-0.336422
-0.37449
-0.415389
-0.456281
-0.494811
-0.530402
-0.56408
-0.596105
-0.625588
-0.65507
-0.689922
-0.731455
-0.777082
-0.00118006
-0.00354443
-0.00601915
-0.00860213
-0.011315
-0.014163
-0.0171525
-0.0202914
-0.0235881
-0.0270518
-0.0306929
-0.0345227
-0.0385537
-0.0427996
-0.0472754
-0.0519974
-0.0569837
-0.0622544
-0.0678312
-0.0737387
-0.0800046
-0.0866608
-0.0937438
-0.101295
-0.109363
-0.118009
-0.127318
-0.137391
-0.148369
-0.160563
-0.175182
-0.19232
-0.211012
-0.231531
-0.254471
-0.280766
-0.311682
-0.348204
-0.389871
-0.434248
-0.477759
-0.517325
-0.551767
-0.581768
-0.607793
-0.630115
-0.653004
-0.682826
-0.720827
-0.763861
-0.00117117
-0.003538
-0.00601184
-0.0085944
-0.0113068
-0.0141544
-0.0171436
-0.0202825
-0.0235796
-0.0270443
-0.030687
-0.0345194
-0.038554
-0.0428049
-0.0472872
-0.0520178
-0.0570153
-0.0623002
-0.067895
-0.0738252
-0.08012
-0.0868133
-0.0939438
-0.101556
-0.109701
-0.118444
-0.127875
-0.1381
-0.149267
-0.161684
-0.176601
-0.194154
-0.213376
-0.234619
-0.258624
-0.286533
-0.319803
-0.359374
-0.4044
-0.45172
-0.497077
-0.536849
-0.569419
-0.595269
-0.615275
-0.631045
-0.6483
-0.67386
-0.708689
-0.749282
-0.00115859
-0.0035236
-0.00599128
-0.0085676
-0.0112735
-0.0141141
-0.0170962
-0.0202278
-0.0235177
-0.0269753
-0.0306111
-0.034437
-0.0384657
-0.0427113
-0.0471892
-0.0519168
-0.056913
-0.0621985
-0.0677965
-0.0737333
-0.0800392
-0.0867499
-0.0939061
-0.101554
-0.109748
-0.118557
-0.128073
-0.138409
-0.149716
-0.162299
-0.177443
-0.195329
-0.214992
-0.236875
-0.26186
-0.29129
-0.326771
-0.369094
-0.416832
-0.466192
-0.512366
-0.551422
-0.581492
-0.602999
-0.617405
-0.627683
-0.640581
-0.662809
-0.694897
-0.733218
-0.00114551
-0.00350198
-0.00595767
-0.00852162
-0.0112146
-0.0140417
-0.0170097
-0.0201269
-0.0234018
-0.0268441
-0.0304644
-0.0342746
-0.0382875
-0.0425173
-0.0469799
-0.0516925
-0.0566744
-0.0619466
-0.0675327
-0.0734595
-0.0797583
-0.0864662
-0.0936255
-0.101285
-0.109499
-0.11834
-0.127904
-0.138305
-0.149699
-0.162385
-0.177678
-0.195797
-0.215789
-0.238179
-0.263982
-0.294703
-0.332027
-0.376461
-0.425932
-0.476128
-0.521907
-0.559324
-0.586461
-0.603792
-0.613472
-0.619686
-0.629679
-0.649559
-0.679362
-0.715588
-0.0011335
-0.00347356
-0.00591108
-0.00845636
-0.0111299
-0.0139366
-0.0168836
-0.0199788
-0.023231
-0.0266499
-0.0302461
-0.0340313
-0.0380186
-0.0422223
-0.0466582
-0.0513439
-0.0562985
-0.0615434
-0.0671023
-0.0730022
-0.0792755
-0.0859601
-0.0930996
-0.100743
-0.108949
-0.117789
-0.12736
-0.137779
-0.149206
-0.161929
-0.177283
-0.195524
-0.215708
-0.238431
-0.264812
-0.296461
-0.335032
-0.380672
-0.430664
-0.480243
-0.524405
-0.559404
-0.583424
-0.597119
-0.603321
-0.607106
-0.615644
-0.634093
-0.66204
-0.69636
-0.00112161
-0.00343797
-0.00585129
-0.00837181
-0.0110194
-0.0137991
-0.0167179
-0.0197838
-0.0230055
-0.0263927
-0.029956
-0.0337072
-0.0376591
-0.0418262
-0.0462243
-0.050871
-0.0557855
-0.0609891
-0.0665053
-0.0723618
-0.078591
-0.0852317
-0.0923282
-0.099931
-0.108098
-0.116902
-0.12644
-0.136831
-0.148233
-0.160923
-0.176249
-0.19449
-0.214709
-0.237553
-0.264205
-0.296308
-0.335363
-0.381086
-0.430226
-0.477789
-0.519229
-0.551257
-0.572282
-0.583196
-0.587381
-0.590352
-0.598702
-0.616471
-0.642935
-0.675537
-0.00110795
-0.0033945
-0.00577791
-0.00826781
-0.0108833
-0.0136294
-0.016513
-0.0195423
-0.0227258
-0.0260732
-0.029595
-0.0333029
-0.0372099
-0.04133
-0.0456792
-0.0502751
-0.0551366
-0.060285
-0.0657436
-0.07154
-0.0777069
-0.0842833
-0.0913141
-0.0988499
-0.106949
-0.115683
-0.125148
-0.135463
-0.146782
-0.15937
-0.174574
-0.192688
-0.212774
-0.235503
-0.262071
-0.294071
-0.33276
-0.377371
-0.424268
-0.468593
-0.506501
-0.535317
-0.553752
-0.56293
-0.566544
-0.570081
-0.579191
-0.596809
-0.622089
-0.653162
-0.00109132
-0.00334282
-0.00569078
-0.00814431
-0.0107215
-0.0134276
-0.0162695
-0.019255
-0.0223928
-0.0256925
-0.0291643
-0.0328201
-0.0366724
-0.0407354
-0.045025
-0.0495583
-0.0543543
-0.0594338
-0.0648201
-0.0705403
-0.076627
-0.0831193
-0.090062
-0.0975056
-0.105508
-0.114139
-0.123492
-0.133684
-0.144866
-0.157282
-0.172273
-0.190131
-0.20991
-0.232275
-0.258381
-0.289688
-0.327137
-0.369504
-0.412961
-0.453141
-0.487073
-0.512757
-0.529211
-0.537709
-0.541975
-0.547059
-0.557498
-0.575267
-0.599583
-0.629305
-0.00107151
-0.00328311
-0.00559025
-0.00800172
-0.0105348
-0.0131946
-0.015988
-0.0189229
-0.0220077
-0.0252519
-0.0286656
-0.0322605
-0.0360489
-0.040045
-0.0442642
-0.0487237
-0.053442
-0.0584395
-0.0637391
-0.0693675
-0.0753569
-0.081746
-0.0885792
-0.0959062
-0.103784
-0.11228
-0.121485
-0.13151
-0.142501
-0.154681
-0.16937
-0.186847
-0.20615
-0.227908
-0.253177
-0.283219
-0.318615
-0.357779
-0.396942
-0.43247
-0.462357
-0.48525
-0.50041
-0.509123
-0.51488
-0.522031
-0.534004
-0.552031
-0.575533
-0.604057
-0.00104886
-0.00321576
-0.00547685
-0.00784075
-0.0103239
-0.0129314
-0.01567
-0.0185475
-0.0215722
-0.0247533
-0.0281011
-0.0316266
-0.0353422
-0.0392618
-0.0434006
-0.0477752
-0.052404
-0.0573068
-0.062506
-0.0680278
-0.0739036
-0.0801713
-0.0868745
-0.0940619
-0.101789
-0.110121
-0.119143
-0.12896
-0.13971
-0.151595
-0.165901
-0.182882
-0.201555
-0.22248
-0.246573
-0.274841
-0.307514
-0.342782
-0.377176
-0.40795
-0.434053
-0.454658
-0.469154
-0.478688
-0.486335
-0.495642
-0.509059
-0.527309
-0.550087
-0.577522
-0.00102376
-0.00314123
-0.0053512
-0.00766218
-0.0100898
-0.0126391
-0.0153168
-0.0181304
-0.0210882
-0.0241992
-0.0274732
-0.0309214
-0.0345557
-0.0383896
-0.0424381
-0.0467175
-0.0512455
-0.0560416
-0.0611274
-0.0665284
-0.0722752
-0.0784045
-0.0849588
-0.0919852
-0.0995368
-0.107677
-0.116484
-0.126057
-0.136522
-0.148059
-0.161912
-0.178298
-0.196205
-0.216106
-0.238738
-0.264833
-0.294309
-0.325293
-0.354816
-0.381083
-0.403874
-0.422733
-0.437028
-0.447654
-0.457186
-0.468401
-0.482973
-0.501322
-0.52341
-0.549804
-0.000996509
-0.00305993
-0.00521394
-0.0074669
-0.00983365
-0.0123192
-0.0149301
-0.0176737
-0.0205581
-0.023592
-0.0267851
-0.0301482
-0.033693
-0.0374326
-0.0413816
-0.0455558
-0.0499724
-0.0546504
-0.0596106
-0.0648776
-0.070481
-0.0764563
-0.0828441
-0.0896899
-0.0970444
-0.104967
-0.113531
-0.122827
-0.132969
-0.144115
-0.157456
-0.173164
-0.1902
-0.208929
-0.229891
-0.253542
-0.279564
-0.306177
-0.331041
-0.353279
-0.373327
-0.390908
-0.405246
-0.416922
-0.428024
-0.440683
-0.456018
-0.474289
-0.495667
-0.520996
-0.000967296
-0.00297226
-0.00506571
-0.00725582
-0.00955666
-0.0119732
-0.0145117
-0.0171795
-0.0199843
-0.0229346
-0.02604
-0.0293107
-0.0327583
-0.0363954
-0.0402362
-0.0442958
-0.0485912
-0.0531403
-0.0579636
-0.0630845
-0.0685313
-0.0743379
-0.0805435
-0.0871911
-0.0943289
-0.102012
-0.110309
-0.119299
-0.129088
-0.139807
-0.152592
-0.16756
-0.183649
-0.201107
-0.220275
-0.241353
-0.263873
-0.286283
-0.306928
-0.325731
-0.343576
-0.360201
-0.374607
-0.387054
-0.39922
-0.412757
-0.428426
-0.446412
-0.467003
-0.491168
-0.000936265
-0.00287861
-0.00490718
-0.00702988
-0.00926008
-0.0116026
-0.0140636
-0.01665
-0.0193695
-0.0222302
-0.0252413
-0.0284129
-0.0317561
-0.0352831
-0.0390074
-0.0429439
-0.0471086
-0.0515191
-0.0561949
-0.0611585
-0.0664367
-0.0720618
-0.0780707
-0.0845046
-0.0914086
-0.0988341
-0.106842
-0.115506
-0.124915
-0.135183
-0.147379
-0.161568
-0.176667
-0.192807
-0.210139
-0.228649
-0.247805
-0.266373
-0.283365
-0.299333
-0.315407
-0.331226
-0.345539
-0.358332
-0.370977
-0.384809
-0.400386
-0.41786
-0.437528
-0.460363
-0.000903554
-0.00277939
-0.00473904
-0.00679009
-0.00894523
-0.0112091
-0.0135877
-0.0160877
-0.0187164
-0.0214818
-0.0243927
-0.0274589
-0.030691
-0.0341008
-0.0377012
-0.0415064
-0.0455319
-0.0497948
-0.0543136
-0.0591098
-0.0642086
-0.0696404
-0.0754402
-0.0816467
-0.0883021
-0.0954542
-0.103158
-0.111477
-0.12049
-0.130289
-0.141879
-0.15527
-0.169367
-0.184192
-0.199725
-0.215787
-0.231861
-0.247071
-0.261013
-0.274674
-0.289261
-0.304255
-0.31819
-0.330842
-0.34338
-0.356959
-0.372043
-0.388755
-0.407312
-0.428597
-0.000869311
-0.00267504
-0.00456203
-0.00653751
-0.00861347
-0.0107944
-0.0130861
-0.015495
-0.018028
-0.0206928
-0.023498
-0.0264529
-0.0295679
-0.032854
-0.0363235
-0.0399901
-0.0438686
-0.0479755
-0.0523287
-0.0569485
-0.0618583
-0.0670867
-0.0726663
-0.0786338
-0.0850284
-0.0918943
-0.0992811
-0.107244
-0.115848
-0.125172
-0.136151
-0.148745
-0.161858
-0.175414
-0.189251
-0.203078
-0.216449
-0.228841
-0.240309
-0.252074
-0.265299
-0.279317
-0.292517
-0.304545
-0.316442
-0.329277
-0.343492
-0.359173
-0.376385
-0.395864
-0.000833692
-0.00256602
-0.00437693
-0.00627322
-0.00826624
-0.0103603
-0.012561
-0.0148744
-0.0173071
-0.0198666
-0.022561
-0.0253994
-0.0283916
-0.0315481
-0.0348806
-0.0384018
-0.0421262
-0.0460697
-0.0502495
-0.0546848
-0.0593974
-0.0644135
-0.0697637
-0.0754823
-0.0816061
-0.0881758
-0.095236
-0.102834
-0.111025
-0.119874
-0.130249
-0.142065
-0.154237
-0.166605
-0.178903
-0.190774
-0.201873
-0.211992
-0.221488
-0.231639
-0.243488
-0.256282
-0.268371
-0.27933
-0.290127
-0.301795
-0.314791
-0.32915
-0.344751
-0.362155
-0.000796851
-0.00245277
-0.00418449
-0.00599831
-0.00790498
-0.00990862
-0.0120145
-0.0142285
-0.0165569
-0.0190066
-0.0215857
-0.0243028
-0.0271671
-0.0301887
-0.0333784
-0.0367484
-0.0403123
-0.0440857
-0.0480852
-0.0523289
-0.056837
-0.0616334
-0.0667465
-0.0722082
-0.0780531
-0.0843189
-0.091046
-0.0982751
-0.106052
-0.114433
-0.12422
-0.135291
-0.146585
-0.157879
-0.168831
-0.179062
-0.188338
-0.19669
-0.20462
-0.213313
-0.223667
-0.234939
-0.245548
-0.255058
-0.264374
-0.274514
-0.285965
-0.298699
-0.312407
-0.327466
-0.000758942
-0.00233574
-0.00398549
-0.00571389
-0.00753114
-0.00944116
-0.0114489
-0.01356
-0.0157802
-0.0181164
-0.020576
-0.0231675
-0.0258995
-0.0287814
-0.0318234
-0.0350367
-0.0384346
-0.042032
-0.045845
-0.0498907
-0.0541879
-0.0587584
-0.0636281
-0.0688266
-0.0743866
-0.0803431
-0.0867331
-0.0935918
-0.100958
-0.108881
-0.118104
-0.128476
-0.138971
-0.149322
-0.159146
-0.168067
-0.175953
-0.182976
-0.189642
-0.196929
-0.2056
-0.215035
-0.223832
-0.231577
-0.239107
-0.247419
-0.257023
-0.267831
-0.279361
-0.29182
-0.000720131
-0.00221541
-0.00378072
-0.00542111
-0.00714622
-0.00895975
-0.0108664
-0.0128714
-0.0149802
-0.0171993
-0.0195359
-0.0219979
-0.0245936
-0.0273317
-0.0302215
-0.0332736
-0.0365006
-0.0399168
-0.0435379
-0.0473801
-0.0514609
-0.0558001
-0.0604213
-0.0653519
-0.0706226
-0.0762662
-0.082317
-0.0888061
-0.095767
-0.103249
-0.111935
-0.121661
-0.131445
-0.140997
-0.149919
-0.157855
-0.164742
-0.170794
-0.176392
-0.182244
-0.189013
-0.19631
-0.203008
-0.208739
-0.214246
-0.220486
-0.227974
-0.23657
-0.245652
-0.255278
-0.000680591
-0.00209228
-0.00357103
-0.00512113
-0.00675171
-0.00846626
-0.0102692
-0.0121653
-0.0141599
-0.0162589
-0.0184694
-0.0207986
-0.0232544
-0.0258449
-0.0285788
-0.0314658
-0.0345177
-0.0377484
-0.0411728
-0.0448067
-0.0486662
-0.0527695
-0.057138
-0.061797
-0.0667755
-0.0721042
-0.0778154
-0.0839375
-0.090501
-0.0975566
-0.105738
-0.114874
-0.124042
-0.132943
-0.141185
-0.148437
-0.154656
-0.160002
-0.164635
-0.168965
-0.173612
-0.17851
-0.182878
-0.186406
-0.189719
-0.193696
-0.198844
-0.204972
-0.211364
-0.217955
-0.000640497
-0.00196685
-0.00335727
-0.00481515
-0.00634916
-0.00796256
-0.00965949
-0.0114444
-0.0133223
-0.0152987
-0.0173803
-0.0195739
-0.0218869
-0.0243266
-0.0269012
-0.0296197
-0.0324932
-0.0355347
-0.0387586
-0.0421799
-0.0458137
-0.049677
-0.0537894
-0.0581742
-0.0628584
-0.0678714
-0.0732438
-0.0790024
-0.0851769
-0.0918229
-0.0995303
-0.108134
-0.116781
-0.125176
-0.132947
-0.139775
-0.145587
-0.150395
-0.154082
-0.156771
-0.159099
-0.161394
-0.163262
-0.164459
-0.165463
-0.167046
-0.169678
-0.173132
-0.17663
-0.180019
-0.000600015
-0.00183964
-0.00314027
-0.00450433
-0.00594007
-0.00745052
-0.00903954
-0.0107113
-0.0124704
-0.0143222
-0.0162726
-0.0183283
-0.0204958
-0.0227821
-0.0251946
-0.0277417
-0.0304339
-0.0332834
-0.0363037
-0.0395089
-0.0429134
-0.0465332
-0.0503863
-0.0544946
-0.0588832
-0.0635802
-0.0686153
-0.0740145
-0.0798084
-0.0860603
-0.093323
-0.101451
-0.109665
-0.117689
-0.125172
-0.131788
-0.137371
-0.14172
-0.144411
-0.145327
-0.145183
-0.14474
-0.144005
-0.1428
-0.141438
-0.140552
-0.140553
-0.141183
-0.141632
-0.14169
-0.000559303
-0.00171111
-0.00292085
-0.00418984
-0.00552595
-0.006932
-0.00841157
-0.00996853
-0.0116072
-0.0133326
-0.0151502
-0.017066
-0.019086
-0.0212167
-0.0234648
-0.0258382
-0.0283468
-0.0310019
-0.0338162
-0.0368025
-0.0399747
-0.0433478
-0.046939
-0.0507687
-0.0548606
-0.0592416
-0.0639409
-0.0689845
-0.0744057
-0.0802769
-0.0871213
-0.0948249
-0.102688
-0.110459
-0.117804
-0.124357
-0.129806
-0.133687
-0.13528
-0.134297
-0.131589
-0.12835
-0.12498
-0.121358
-0.117627
-0.114256
-0.111574
-0.109294
-0.106596
-0.103237
-0.00051851
-0.00158173
-0.00269982
-0.00387283
-0.00510831
-0.00640888
-0.00777782
-0.00921877
-0.0107358
-0.0123334
-0.0140168
-0.0157913
-0.0176624
-0.0196357
-0.0217176
-0.0239154
-0.0262384
-0.0286974
-0.0313038
-0.0340693
-0.0370067
-0.0401306
-0.0434575
-0.0470067
-0.0508007
-0.0548654
-0.0592299
-0.0639211
-0.0689761
-0.074477
-0.0809247
-0.0882477
-0.0958281
-0.103442
-0.110756
-0.117328
-0.122654
-0.125987
-0.126349
-0.123365
-0.118064
-0.112055
-0.106088
-0.100092
-0.0940397
-0.0882231
-0.0828721
-0.0776621
-0.0717786
-0.064962
-0.000477781
-0.00145199
-0.00247797
-0.00355443
-0.00468865
-0.005883
-0.00714052
-0.00846459
-0.00985899
-0.011328
-0.0128763
-0.0145086
-0.0162296
-0.0180445
-0.0199589
-0.0219797
-0.0241157
-0.026377
-0.0287739
-0.0313171
-0.0340181
-0.0368909
-0.0399515
-0.0432184
-0.0467131
-0.0504608
-0.0544906
-0.0588314
-0.0635245
-0.0686617
-0.0747284
-0.0817055
-0.0890565
-0.0965807
-0.103923
-0.110525
-0.115661
-0.118307
-0.117294
-0.112245
-0.104399
-0.0957229
-0.0872655
-0.0789933
-0.0707155
-0.0625444
-0.0545954
-0.0465002
-0.0374515
-0.027184
-0.000437255
-0.00132233
-0.0022561
-0.00323577
-0.00426843
-0.0053562
-0.00650187
-0.0077086
-0.00897991
-0.0103198
-0.0117323
-0.0132218
-0.0147923
-0.0164481
-0.0181944
-0.0200375
-0.0219855
-0.0240478
-0.0262342
-0.0285539
-0.0310173
-0.0336376
-0.0364304
-0.0394134
-0.0426073
-0.0460367
-0.0497309
-0.0537213
-0.0580544
-0.0628301
-0.0685246
-0.0751796
-0.0823348
-0.0898027
-0.0971774
-0.103753
-0.108566
-0.110352
-0.107831
-0.100703
-0.0904295
-0.0792658
-0.0684872
-0.0580843
-0.0477197
-0.0373298
-0.0269064
-0.0160282
-0.00389135
0.0097724
-0.000397064
-0.00119321
-0.00203496
-0.00291793
-0.00384909
-0.0048303
-0.00586411
-0.00695343
-0.00810155
-0.00931209
-0.0105887
-0.0119351
-0.0133549
-0.0148516
-0.0164298
-0.018095
-0.0198546
-0.0217174
-0.0236923
-0.0257875
-0.0280125
-0.0303794
-0.0329033
-0.0356011
-0.0384925
-0.0416017
-0.0449584
-0.048597
-0.0525693
-0.0569809
-0.062304
-0.068648
-0.0756191
-0.0830272
-0.090385
-0.0968135
-0.101121
-0.101859
-0.0977274
-0.0885695
-0.0760542
-0.0626449
-0.0497668
-0.0374205
-0.0251429
-0.0127056
2.60665e-05
0.0135358
0.028633
0.0455914
-0.000357331
-0.00106505
-0.00181528
-0.00260197
-0.00343203
-0.00430709
-0.00522941
-0.00620169
-0.00722695
-0.00830843
-0.00944937
-0.0106529
-0.011922
-0.01326
-0.0146706
-0.0161585
-0.0177301
-0.0193932
-0.021156
-0.0230262
-0.0250122
-0.0271252
-0.0293793
-0.0317908
-0.0343782
-0.0371649
-0.0401812
-0.0434648
-0.0470727
-0.0511128
-0.0560576
-0.0620879
-0.0688624
-0.0761683
-0.0834075
-0.0895163
-0.0931071
-0.0926244
-0.0868279
-0.0757505
-0.0612396
-0.0458754
-0.0311587
-0.0170876
-0.00309646
0.01119
0.0260321
0.0419829
0.0598682
0.0799753
-0.000318167
-0.000938238
-0.00159775
-0.0022889
-0.00301861
-0.0037883
-0.00459994
-0.00545598
-0.00635914
-0.00731227
-0.00831811
-0.00937925
-0.0104983
-0.0116783
-0.0129222
-0.0142339
-0.0156185
-0.0170826
-0.0186335
-0.0202785
-0.0220252
-0.0238839
-0.0258677
-0.0279918
-0.0302735
-0.0327354
-0.0354077
-0.0383318
-0.0415692
-0.0452262
-0.0497779
-0.0554776
-0.0620181
-0.0691415
-0.0761156
-0.0816987
-0.0843592
-0.0825153
-0.075061
-0.0622376
-0.046023
-0.0290259
-0.0127553
0.00280286
0.0182915
0.0342122
0.050945
0.0691176
0.0895824
0.112649
-0.000279678
-0.000813161
-0.00138304
-0.00197968
-0.00261017
-0.00327564
-0.00397781
-0.00471884
-0.00550112
-0.00632706
-0.00719888
-0.00811869
-0.00908874
-0.0101116
-0.0111901
-0.0123272
-0.0135265
-0.014793
-0.016133
-0.0175533
-0.0190609
-0.0206653
-0.0223784
-0.0242141
-0.0261884
-0.0283228
-0.0306471
-0.0332059
-0.0360648
-0.0393235
-0.0434604
-0.0487984
-0.0550435
-0.0618707
-0.0684007
-0.073239
-0.0747768
-0.0714854
-0.0624468
-0.0481052
-0.030509
-0.0122139
0.00531829
0.0221187
0.0388824
0.0562142
0.0746057
0.0947607
0.117567
0.143364
-0.000241968
-0.000690193
-0.0011718
-0.00167529
-0.002208
-0.0027708
-0.00336508
-0.00399274
-0.00465579
-0.00535618
-0.00609559
-0.00687561
-0.00769812
-0.00856549
-0.00948021
-0.0104445
-0.0114605
-0.0125314
-0.0136624
-0.0148594
-0.016129
-0.0174796
-0.0189219
-0.0204684
-0.0221338
-0.0239378
-0.0259096
-0.0280967
-0.0305675
-0.0334099
-0.0371043
-0.0420365
-0.0479036
-0.0542956
-0.0601861
-0.0640708
-0.0643377
-0.0595772
-0.0490936
-0.0335035
-0.0148598
0.00440319
0.0229118
0.0407143
0.0585328
0.0770526
0.0968654
0.118751
0.143637
0.171899
-0.000205146
-0.000569719
-0.000964701
-0.00137672
-0.00181343
-0.00227542
-0.00276378
-0.00328009
-0.00382599
-0.00440291
-0.00501203
-0.0056544
-0.0063315
-0.0070454
-0.00779833
-0.00859186
-0.00942695
-0.0103051
-0.0112298
-0.0122059
-0.0132394
-0.0143375
-0.0155097
-0.0167667
-0.0181216
-0.0195926
-0.0212075
-0.0230158
-0.0250877
-0.0274941
-0.0307139
-0.0351852
-0.0405756
-0.0463787
-0.0514367
-0.0541897
-0.0530863
-0.0469177
-0.0351859
-0.0186425
0.000719324
0.0206402
0.0398596
0.0584379
0.0771009
0.0965913
0.117589
0.140946
0.167631
0.19806
-0.000169324
-0.000452136
-0.000762438
-0.00108496
-0.00142776
-0.00179115
-0.00217591
-0.00258328
-0.00301447
-0.00347046
-0.00395189
-0.00445934
-0.0049938
-0.00555694
-0.00615062