/*--------------------------------*- C++ -*----------------------------------*\
  =========                 |
  \\      /  F ield         | OpenFOAM: The Open Source CFD Toolbox
   \\    /   O peration     | Website:  https://openfoam.org
    \\  /    A nd           | Version:  9
     \\/     M anipulation  |
\*---------------------------------------------------------------------------*/
FoamFile
{
    format      ascii;
    class       surfaceScalarField;
    location    "0.13";
    object      phi;
}
// * * * * * * * * * * * * * * * * * * * * * * * * * * * * * * * * * * * * * //

dimensions      [0 3 -1 0 0 0 0];

internalField   nonuniform List<scalar> 
9850
(
-2.99535e-06
2.78525e-06
-2.99568e-06
2.90586e-06
-2.99609e-06
3.04169e-06
-2.99659e-06
3.18529e-06
-2.99719e-06
3.33538e-06
-2.99793e-06
3.49196e-06
-2.99882e-06
3.65521e-06
-2.99991e-06
3.82535e-06
-3.00122e-06
4.00257e-06
-3.00283e-06
4.18712e-06
-3.00478e-06
4.37923e-06
-3.00715e-06
4.57916e-06
-3.01003e-06
4.7872e-06
-3.01351e-06
5.00364e-06
-3.01769e-06
5.22874e-06
-3.02267e-06
5.46271e-06
-3.02854e-06
5.70564e-06
-3.0354e-06
5.95736e-06
-3.0433e-06
6.21738e-06
-3.05234e-06
6.48476e-06
-3.06266e-06
6.75809e-06
-3.0745e-06
7.03561e-06
-3.0883e-06
7.31543e-06
-3.10474e-06
7.59579e-06
-3.12469e-06
7.8749e-06
-3.14921e-06
8.15041e-06
-3.1799e-06
8.41922e-06
-3.21993e-06
8.68094e-06
-3.27588e-06
8.94923e-06
-3.35847e-06
9.27129e-06
-3.50274e-06
1.13722e-05
-3.69389e-06
1.17117e-05
-3.91073e-06
1.24038e-05
-4.11265e-06
1.33107e-05
-4.25111e-06
1.42102e-05
-4.28405e-06
1.49029e-05
-4.19097e-06
1.52706e-05
-3.98323e-06
1.52938e-05
-3.70473e-06
1.50589e-05
-3.4219e-06
1.47465e-05
-3.2045e-06
1.45839e-05
-3.09978e-06
1.47695e-05
-3.11052e-06
1.54045e-05
-3.19293e-06
1.64519e-05
-3.28113e-06
1.7694e-05
-3.32073e-06
1.87364e-05
-3.29204e-06
1.91865e-05
-3.22021e-06
1.89364e-05
-3.1648e-06
1.83078e-05
1.78878e-05
-2.99647e-06
2.78552e-06
-2.99691e-06
2.9063e-06
-2.99746e-06
3.04223e-06
-2.99812e-06
3.18594e-06
-2.99891e-06
3.33617e-06
-2.99985e-06
3.4929e-06
-3.00098e-06
3.65634e-06
-3.00233e-06
3.8267e-06
-3.00396e-06
4.0042e-06
-3.00591e-06
4.18907e-06
-3.00826e-06
4.38158e-06
-3.0111e-06
4.58199e-06
-3.0145e-06
4.79061e-06
-3.01858e-06
5.00772e-06
-3.02344e-06
5.2336e-06
-3.0292e-06
5.46847e-06
-3.03596e-06
5.71241e-06
-3.04385e-06
5.96524e-06
-3.05295e-06
6.22649e-06
-3.06343e-06
6.49523e-06
-3.07547e-06
6.77013e-06
-3.08943e-06
7.04957e-06
-3.10585e-06
7.33185e-06
-3.12552e-06
7.61546e-06
-3.14947e-06
7.89885e-06
-3.17902e-06
8.17996e-06
-3.21621e-06
8.45641e-06
-3.26474e-06
8.72947e-06
-3.33113e-06
9.01562e-06
-3.4243e-06
9.36447e-06
-3.57533e-06
1.15232e-05
-3.75968e-06
1.18961e-05
-3.95282e-06
1.25969e-05
-4.11803e-06
1.34759e-05
-4.2159e-06
1.43081e-05
-4.21433e-06
1.49013e-05
-4.1003e-06
1.51566e-05
-3.88844e-06
1.5082e-05
-3.62081e-06
1.47913e-05
-3.35779e-06
1.44835e-05
-3.16128e-06
1.43874e-05
-3.07279e-06
1.4681e-05
-3.09279e-06
1.54245e-05
-3.17637e-06
1.65354e-05
-3.2575e-06
1.77751e-05
-3.28488e-06
1.87638e-05
-3.24462e-06
1.91463e-05
-3.1665e-06
1.88583e-05
-3.11023e-06
1.82515e-05
1.78986e-05
-2.9967e-06
2.78587e-06
-2.99726e-06
2.90685e-06
-2.99793e-06
3.04291e-06
-2.99874e-06
3.18675e-06
-2.99969e-06
3.33712e-06
-3.00083e-06
3.49403e-06
-3.00217e-06
3.65769e-06
-3.00378e-06
3.8283e-06
-3.00568e-06
4.00611e-06
-3.00796e-06
4.19135e-06
-3.01068e-06
4.3843e-06
-3.01393e-06
4.58524e-06
-3.01781e-06
4.79448e-06
-3.02242e-06
5.01233e-06
-3.02789e-06
5.23907e-06
-3.03434e-06
5.47492e-06
-3.0419e-06
5.71996e-06
-3.05069e-06
5.97404e-06
-3.06087e-06
6.23667e-06
-3.07262e-06
6.50698e-06
-3.08621e-06
6.78372e-06
-3.10207e-06
7.06542e-06
-3.12084e-06
7.35062e-06
-3.1434e-06
7.63802e-06
-3.17094e-06
7.92639e-06
-3.20503e-06
8.21405e-06
-3.24808e-06
8.49945e-06
-3.30408e-06
8.78547e-06
-3.37911e-06
9.09065e-06
-3.47986e-06
9.46522e-06
-3.63266e-06
1.1676e-05
-3.80485e-06
1.20683e-05
-3.97013e-06
1.27622e-05
-4.0971e-06
1.36029e-05
-4.15656e-06
1.43675e-05
-4.12706e-06
1.48718e-05
-4.00283e-06
1.50323e-05
-3.80011e-06
1.48793e-05
-3.55633e-06
1.45475e-05
-3.3221e-06
1.42492e-05
-3.14859e-06
1.42139e-05
-3.0714e-06
1.46038e-05
-3.0917e-06
1.54448e-05
-3.16797e-06
1.66117e-05
-3.23691e-06
1.7844e-05
-3.25055e-06
1.87774e-05
-3.19947e-06
1.90952e-05
-3.11642e-06
1.87753e-05
-3.05972e-06
1.81948e-05
1.79075e-05
-2.99601e-06
2.78628e-06
-2.99666e-06
2.90751e-06
-2.99746e-06
3.04371e-06
-2.9984e-06
3.18769e-06
-2.9995e-06
3.33823e-06
-3.00081e-06
3.49534e-06
-3.00235e-06
3.65923e-06
-3.00417e-06
3.83013e-06
-3.00633e-06
4.00827e-06
-3.0089e-06
4.19391e-06
-3.01194e-06
4.38734e-06
-3.01555e-06
4.58886e-06
-3.01984e-06
4.79877e-06
-3.02492e-06
5.01741e-06
-3.03091e-06
5.24506e-06
-3.03796e-06
5.48197e-06
-3.04619e-06
5.7282e-06
-3.05576e-06
5.98361e-06
-3.06685e-06
6.24776e-06
-3.07969e-06
6.51982e-06
-3.0946e-06
6.79864e-06
-3.11209e-06
7.08291e-06
-3.13286e-06
7.37139e-06
-3.15791e-06
7.66307e-06
-3.18853e-06
7.95701e-06
-3.22651e-06
8.25204e-06
-3.27454e-06
8.54748e-06
-3.33669e-06
8.84762e-06
-3.41829e-06
9.17225e-06
-3.52365e-06
9.57057e-06
-3.67406e-06
1.18264e-05
-3.8305e-06
1.22247e-05
-3.96598e-06
1.28977e-05
-4.05496e-06
1.36919e-05
-4.07879e-06
1.43914e-05
-4.02707e-06
1.48201e-05
-3.90121e-06
1.49065e-05
-3.7181e-06
1.46961e-05
-3.50845e-06
1.43379e-05
-3.31025e-06
1.4051e-05
-3.16149e-06
1.40651e-05
-3.0913e-06
1.45336e-05
-3.10384e-06
1.54573e-05
-3.16492e-06
1.66728e-05
-3.21694e-06
1.78961e-05
-3.21581e-06
1.87763e-05
-3.15535e-06
1.90347e-05
-3.06945e-06
1.86894e-05
-3.01324e-06
1.81386e-05
1.79133e-05
-2.99436e-06
2.78675e-06
-2.99511e-06
2.90825e-06
-2.99601e-06
3.0446e-06
-2.99706e-06
3.18874e-06
-2.9983e-06
3.33946e-06
-2.99975e-06
3.49679e-06
-3.00147e-06
3.66094e-06
-3.00348e-06
3.83214e-06
-3.00586e-06
4.01064e-06
-3.00866e-06
4.19672e-06
-3.01197e-06
4.39066e-06
-3.01589e-06
4.59278e-06
-3.02052e-06
4.8034e-06
-3.02598e-06
5.02287e-06
-3.0324e-06
5.25148e-06
-3.03992e-06
5.48949e-06
-3.0487e-06
5.73697e-06
-3.05889e-06
5.99381e-06
-3.07071e-06
6.25958e-06
-3.08442e-06
6.53353e-06
-3.1004e-06
6.81462e-06
-3.1192e-06
7.10171e-06
-3.1416e-06
7.39378e-06
-3.16864e-06
7.69011e-06
-3.20173e-06
7.99011e-06
-3.24283e-06
8.29314e-06
-3.29478e-06
8.59942e-06
-3.36155e-06
8.91439e-06
-3.44752e-06
9.25823e-06
-3.55473e-06
9.67777e-06
-3.6996e-06
1.19713e-05
-3.83846e-06
1.23636e-05
-3.94433e-06
1.30036e-05
-3.99725e-06
1.37448e-05
-3.98864e-06
1.43828e-05
-3.91902e-06
1.47505e-05
-3.79703e-06
1.47845e-05
-3.63991e-06
1.4539e-05
-3.47064e-06
1.41686e-05
-3.31311e-06
1.38935e-05
-3.19045e-06
1.39425e-05
-3.12434e-06
1.44675e-05
-3.12289e-06
1.54559e-05
-3.1624e-06
1.67123e-05
-3.19392e-06
1.79276e-05
-3.17794e-06
1.87603e-05
-3.11044e-06
1.89672e-05
-3.02451e-06
1.86034e-05
-2.97005e-06
1.80841e-05
1.79153e-05
-2.99175e-06
2.78727e-06
-2.99257e-06
2.90907e-06
-2.99356e-06
3.04559e-06
-2.99471e-06
3.1899e-06
-2.99606e-06
3.34081e-06
-2.99764e-06
3.49837e-06
-2.99949e-06
3.66279e-06
-3.00166e-06
3.83431e-06
-3.00421e-06
4.01319e-06
-3.00721e-06
4.19972e-06
-3.01074e-06
4.39419e-06
-3.0149e-06
4.59693e-06
-3.01979e-06
4.8083e-06
-3.02554e-06
5.02862e-06
-3.03228e-06
5.25822e-06
-3.04016e-06
5.49736e-06
-3.04933e-06
5.74614e-06
-3.05998e-06
6.00446e-06
-3.07233e-06
6.27193e-06
-3.08668e-06
6.54788e-06
-3.10344e-06
6.83138e-06
-3.12321e-06
7.12147e-06
-3.14679e-06
7.41736e-06
-3.17528e-06
7.71861e-06
-3.21018e-06
8.025e-06
-3.25351e-06
8.33647e-06
-3.30818e-06
8.65409e-06
-3.37789e-06
8.9841e-06
-3.46606e-06
9.34639e-06
-3.57268e-06
9.7844e-06
-3.70982e-06
1.21084e-05
-3.83085e-06
1.24846e-05
-3.90913e-06
1.30818e-05
-3.92943e-06
1.37651e-05
-3.89188e-06
1.43452e-05
-3.80716e-06
1.46658e-05
-3.69109e-06
1.46684e-05
-3.56151e-06
1.44094e-05
-3.43406e-06
1.40412e-05
-3.3187e-06
1.37782e-05
-3.22312e-06
1.38469e-05
-3.16e-06
1.44044e-05
-3.14087e-06
1.54367e-05
-3.1546e-06
1.6726e-05
-3.16363e-06
1.79366e-05
-3.13393e-06
1.87306e-05
-3.06264e-06
1.88959e-05
-2.97999e-06
1.85208e-05
-2.92881e-06
1.8033e-05
1.79132e-05
-2.98816e-06
2.78784e-06
-2.98905e-06
2.90995e-06
-2.9901e-06
3.04665e-06
-2.99134e-06
3.19113e-06
-2.99278e-06
3.34225e-06
-2.99445e-06
3.50005e-06
-2.99641e-06
3.66475e-06
-2.9987e-06
3.8366e-06
-3.00139e-06
4.01587e-06
-3.00453e-06
4.20286e-06
-3.00822e-06
4.39788e-06
-3.01255e-06
4.60126e-06
-3.01762e-06
4.81337e-06
-3.02357e-06
5.03456e-06
-3.03052e-06
5.26517e-06
-3.03862e-06
5.50546e-06
-3.04804e-06
5.75556e-06
-3.05896e-06
6.01538e-06
-3.07163e-06
6.28461e-06
-3.08637e-06
6.56262e-06
-3.10361e-06
6.84862e-06
-3.12397e-06
7.14183e-06
-3.14828e-06
7.44167e-06
-3.17766e-06
7.74799e-06
-3.21363e-06
8.06096e-06
-3.25825e-06
8.38109e-06
-3.31435e-06
8.71019e-06
-3.38529e-06
9.05504e-06
-3.47355e-06
9.43465e-06
-3.57752e-06
9.88837e-06
-3.70554e-06
1.22365e-05
-3.80967e-06
1.25887e-05
-3.86376e-06
1.31359e-05
-3.85605e-06
1.37574e-05
-3.79344e-06
1.42826e-05
-3.69517e-06
1.45675e-05
-3.58385e-06
1.45571e-05
-3.47865e-06
1.43042e-05
-3.38953e-06
1.39521e-05
-3.3145e-06
1.37031e-05
-3.24643e-06
1.37788e-05
-3.18721e-06
1.43451e-05
-3.14965e-06
1.53992e-05
-3.13584e-06
1.67122e-05
-3.12213e-06
1.79229e-05
-3.08101e-06
1.86895e-05
-3.00985e-06
1.88248e-05
-2.93412e-06
1.8445e-05
-2.88798e-06
1.79868e-05
1.79072e-05
-2.98361e-06
2.78845e-06
-2.98455e-06
2.91089e-06
-2.98566e-06
3.04776e-06
-2.98695e-06
3.19242e-06
-2.98846e-06
3.34375e-06
-2.99021e-06
3.5018e-06
-2.99224e-06
3.66679e-06
-2.99462e-06
3.83897e-06
-2.99739e-06
4.01864e-06
-3.00062e-06
4.2061e-06
-3.00441e-06
4.40166e-06
-3.00884e-06
4.60569e-06
-3.01401e-06
4.81855e-06
-3.02006e-06
5.04061e-06
-3.0271e-06
5.27222e-06
-3.0353e-06
5.51366e-06
-3.04481e-06
5.76507e-06
-3.05583e-06
6.02641e-06
-3.06861e-06
6.29739e-06
-3.08348e-06
6.57749e-06
-3.10089e-06
6.86603e-06
-3.12145e-06
7.1624e-06
-3.14602e-06
7.46624e-06
-3.1757e-06
7.77767e-06
-3.21198e-06
8.09725e-06
-3.2569e-06
8.42602e-06
-3.31314e-06
8.76643e-06
-3.38363e-06
9.12554e-06
-3.47004e-06
9.52106e-06
-3.56958e-06
9.9879e-06
-3.68769e-06
1.23546e-05
-3.77653e-06
1.26775e-05
-3.81061e-06
1.317e-05
-3.78029e-06
1.37271e-05
-3.69684e-06
1.41992e-05
-3.58587e-06
1.44565e-05
-3.47584e-06
1.44471e-05
-3.3881e-06
1.42165e-05
-3.32952e-06
1.38935e-05
-3.28967e-06
1.36633e-05
-3.24864e-06
1.37378e-05
-3.19594e-06
1.42924e-05
-3.14219e-06
1.53454e-05
-3.10163e-06
1.66717e-05
-3.06649e-06
1.78878e-05
-3.01714e-06
1.86402e-05
-2.95034e-06
1.8758e-05
-2.88516e-06
1.83799e-05
-2.84597e-06
1.79476e-05
1.7898e-05
-2.97812e-06
2.78908e-06
-2.97909e-06
2.91186e-06
-2.98024e-06
3.04891e-06
-2.98158e-06
3.19376e-06
-2.98312e-06
3.3453e-06
-2.98492e-06
3.50359e-06
-2.987e-06
3.66887e-06
-2.98942e-06
3.84139e-06
-2.99224e-06
4.02146e-06
-2.99552e-06
4.20938e-06
-2.99934e-06
4.40549e-06
-3.0038e-06
4.61015e-06
-3.00899e-06
4.82374e-06
-3.01504e-06
5.04666e-06
-3.02207e-06
5.27925e-06
-3.03022e-06
5.52181e-06
-3.03967e-06
5.77452e-06
-3.05061e-06
6.03734e-06
-3.06328e-06
6.31006e-06
-3.07803e-06
6.59223e-06
-3.0953e-06
6.8833e-06
-3.1157e-06
7.1828e-06
-3.14005e-06
7.49059e-06
-3.16944e-06
7.80705e-06
-3.20529e-06
8.1331e-06
-3.24955e-06
8.47027e-06
-3.30466e-06
8.82153e-06
-3.37313e-06
9.19401e-06
-3.45593e-06
9.60387e-06
-3.54954e-06
1.00815e-05
-3.65721e-06
1.24622e-05
-3.73256e-06
1.27529e-05
-3.75094e-06
1.31884e-05
-3.70367e-06
1.36798e-05
-3.60392e-06
1.40994e-05
-3.481e-06
1.43336e-05
-3.36777e-06
1.43338e-05
-3.28839e-06
1.41371e-05
-3.24957e-06
1.38547e-05
-3.23682e-06
1.36505e-05
-3.22084e-06
1.37218e-05
-3.17828e-06
1.42499e-05
-3.11332e-06
1.52805e-05
-3.04932e-06
1.66077e-05
-2.9954e-06
1.78339e-05
-2.94137e-06
1.85861e-05
-2.883e-06
1.86996e-05
-2.83166e-06
1.83285e-05
-2.80142e-06
1.79174e-05
1.78871e-05
-2.97176e-06
2.78971e-06
-2.97274e-06
2.91284e-06
-2.97391e-06
3.05008e-06
-2.97526e-06
3.19511e-06
-2.97683e-06
3.34687e-06
-2.97865e-06
3.50541e-06
-2.98074e-06
3.67097e-06
-2.98318e-06
3.84382e-06
-2.98599e-06
4.02428e-06
-2.98927e-06
4.21265e-06
-2.99307e-06
4.40929e-06
-2.99748e-06
4.61456e-06
-3.00262e-06
4.82888e-06
-3.00857e-06
5.05262e-06
-3.01548e-06
5.28616e-06
-3.02347e-06
5.52981e-06
-3.03271e-06
5.78376e-06
-3.04339e-06
6.04802e-06
-3.05576e-06
6.32243e-06
-3.07013e-06
6.60661e-06
-3.08696e-06
6.90013e-06
-3.10683e-06
7.20267e-06
-3.13052e-06
7.51428e-06
-3.15906e-06
7.83558e-06
-3.19377e-06
8.16782e-06
-3.23645e-06
8.51294e-06
-3.28926e-06
8.87435e-06
-3.35428e-06
9.25903e-06
-3.43194e-06
9.68153e-06
-3.51833e-06
1.01679e-05
-3.61514e-06
1.25591e-05
-3.67858e-06
1.28163e-05
-3.6851e-06
1.31949e-05
-3.62615e-06
1.36208e-05
-3.51468e-06
1.39879e-05
-3.38098e-06
1.41999e-05
-3.26036e-06
1.42132e-05
-3.1799e-06
1.40566e-05
-3.14871e-06
1.38235e-05
-3.15275e-06
1.36546e-05
-3.15792e-06
1.3727e-05
-3.12911e-06
1.42211e-05
-3.06005e-06
1.52114e-05
-2.97829e-06
1.65259e-05
-2.90931e-06
1.77649e-05
-2.85409e-06
1.85309e-05
-2.80757e-06
1.86531e-05
-2.77278e-06
1.82937e-05
-2.75342e-06
1.7898e-05
1.78764e-05
-2.96441e-06
2.79038e-06
-2.96544e-06
2.91386e-06
-2.96664e-06
3.05128e-06
-2.96803e-06
3.1965e-06
-2.96962e-06
3.34846e-06
-2.97144e-06
3.50723e-06
-2.97353e-06
3.67306e-06
-2.97595e-06
3.84624e-06
-2.97873e-06
4.02706e-06
-2.98195e-06
4.21587e-06
-2.98567e-06
4.41301e-06
-2.98998e-06
4.61888e-06
-2.99498e-06
4.83387e-06
-3.00075e-06
5.05839e-06
-3.00743e-06
5.29284e-06
-3.01514e-06
5.53752e-06
-3.02404e-06
5.79265e-06
-3.0343e-06
6.05828e-06
-3.04616e-06
6.33429e-06
-3.05994e-06
6.62039e-06
-3.07606e-06
6.91624e-06
-3.09506e-06
7.22167e-06
-3.11767e-06
7.53689e-06
-3.14483e-06
7.86275e-06
-3.17776e-06
8.20075e-06
-3.21803e-06
8.55322e-06
-3.26752e-06
8.92383e-06
-3.32786e-06
9.31938e-06
-3.39908e-06
9.75275e-06
-3.47714e-06
1.0246e-05
-3.56263e-06
1.26445e-05
-3.61522e-06
1.28689e-05
-3.61284e-06
1.31925e-05
-3.54658e-06
1.35546e-05
-3.42765e-06
1.3869e-05
-3.28488e-06
1.40571e-05
-3.1539e-06
1.40822e-05
-3.06423e-06
1.3967e-05
-3.02903e-06
1.37883e-05
-3.03854e-06
1.36641e-05
-3.05888e-06
1.37473e-05
-3.04629e-06
1.42085e-05
-2.98141e-06
1.51465e-05
-2.88971e-06
1.64342e-05
-2.81041e-06
1.76856e-05
-2.75709e-06
1.84776e-05
-2.72488e-06
1.86209e-05
-2.70847e-06
1.82773e-05
-2.70171e-06
1.78913e-05
1.78683e-05
-2.95605e-06
2.79116e-06
-2.95719e-06
2.91501e-06
-2.95849e-06
3.05258e-06
-2.95993e-06
3.19794e-06
-2.96155e-06
3.35008e-06
-2.96338e-06
3.50906e-06
-2.96546e-06
3.67514e-06
-2.96783e-06
3.84861e-06
-2.97054e-06
4.02978e-06
-2.97366e-06
4.21898e-06
-2.97725e-06
4.4166e-06
-2.9814e-06
4.62302e-06
-2.98618e-06
4.83865e-06
-2.9917e-06
5.06391e-06
-2.99806e-06
5.2992e-06
-3.00538e-06
5.54484e-06
-3.0138e-06
5.80107e-06
-3.0235e-06
6.06798e-06
-3.03469e-06
6.34548e-06
-3.04767e-06
6.63337e-06
-3.06282e-06
6.93139e-06
-3.08065e-06
7.2395e-06
-3.10182e-06
7.55806e-06
-3.12715e-06
7.88808e-06
-3.15773e-06
8.23133e-06
-3.1949e-06
8.59038e-06
-3.2402e-06
8.96913e-06
-3.29487e-06
9.37405e-06
-3.3586e-06
9.81648e-06
-3.42743e-06
1.03148e-05
-3.50106e-06
1.27182e-05
-3.54329e-06
1.29112e-05
-3.5338e-06
1.3183e-05
-3.46332e-06
1.34841e-05
-3.3404e-06
1.37461e-05
-3.19063e-06
1.39074e-05
-3.04802e-06
1.39396e-05
-2.94345e-06
1.38624e-05
-2.89467e-06
1.37395e-05
-2.89876e-06
1.36682e-05
-2.92671e-06
1.37753e-05
-2.93081e-06
1.42126e-05
-2.87826e-06
1.5094e-05
-2.78608e-06
1.6342e-05
-2.70223e-06
1.76017e-05
-2.65349e-06
1.84289e-05
-2.63688e-06
1.86043e-05
-2.63965e-06
1.82801e-05
-2.64674e-06
1.78984e-05
1.7865e-05
-2.94728e-06
2.79203e-06
-2.94851e-06
2.91624e-06
-2.94985e-06
3.05392e-06
-2.9513e-06
3.19939e-06
-2.95291e-06
3.35168e-06
-2.95469e-06
3.51085e-06
-2.9567e-06
3.67715e-06
-2.95898e-06
3.85088e-06
-2.96157e-06
4.03237e-06
-2.96454e-06
4.22195e-06
-2.96795e-06
4.42001e-06
-2.97186e-06
4.62694e-06
-2.97637e-06
4.84316e-06
-2.98155e-06
5.06909e-06
-2.9875e-06
5.30515e-06
-2.99434e-06
5.55167e-06
-3.00218e-06
5.80892e-06
-3.01119e-06
6.07699e-06
-3.02156e-06
6.35586e-06
-3.03356e-06
6.64536e-06
-3.04753e-06
6.94537e-06
-3.06394e-06
7.25591e-06
-3.08335e-06
7.57747e-06
-3.10649e-06
7.91122e-06
-3.13426e-06
8.25909e-06
-3.16776e-06
8.62388e-06
-3.20821e-06
9.00958e-06
-3.25646e-06
9.4223e-06
-3.31194e-06
9.87196e-06
-3.37086e-06
1.03737e-05
-3.4321e-06
1.27794e-05
-3.46393e-06
1.2943e-05
-3.44804e-06
1.31672e-05
-3.37497e-06
1.3411e-05
-3.25039e-06
1.36215e-05
-3.09566e-06
1.37526e-05
-2.94166e-06
1.37856e-05
-2.81929e-06
1.374e-05
-2.75056e-06
1.36708e-05
-2.74029e-06
1.36579e-05
-2.76778e-06
1.38028e-05
-2.78676e-06
1.42316e-05
-2.75321e-06
1.50604e-05
-2.67072e-06
1.62595e-05
-2.58919e-06
1.75202e-05
-2.5475e-06
1.83872e-05
-2.54666e-06
1.86034e-05
-2.56821e-06
1.83016e-05
-2.58972e-06
1.79199e-05
1.78686e-05
-2.93875e-06
2.79286e-06
-2.93989e-06
2.91739e-06
-2.94113e-06
3.05515e-06
-2.94246e-06
3.20073e-06
-2.94393e-06
3.35316e-06
-2.94558e-06
3.5125e-06
-2.94745e-06
3.67901e-06
-2.94956e-06
3.853e-06
-2.95197e-06
4.03478e-06
-2.95473e-06
4.22471e-06
-2.95789e-06
4.42317e-06
-2.96152e-06
4.63057e-06
-2.96568e-06
4.84732e-06
-2.97046e-06
5.07387e-06
-2.97594e-06
5.31063e-06
-2.98221e-06
5.55794e-06
-2.98938e-06
5.81609e-06
-2.99759e-06
6.0852e-06
-3.00702e-06
6.36528e-06
-3.0179e-06
6.65624e-06
-3.03053e-06
6.958e-06
-3.0453e-06
7.27068e-06
-3.06272e-06
7.59489e-06
-3.08337e-06
7.93188e-06
-3.10798e-06
8.28371e-06
-3.13742e-06
8.65332e-06
-3.17256e-06
9.04472e-06
-3.2139e-06
9.46365e-06
-3.26066e-06
9.91871e-06
-3.30925e-06
1.04223e-05
-3.35766e-06
1.28278e-05
-3.37874e-06
1.29641e-05
-3.35628e-06
1.31447e-05
-3.28095e-06
1.33357e-05
-3.15578e-06
1.34963e-05
-2.99764e-06
1.35945e-05
-2.83344e-06
1.36214e-05
-2.69301e-06
1.35996e-05
-2.60142e-06
1.35792e-05
-2.57097e-06
1.36274e-05
-2.59092e-06
1.38227e-05
-2.6211e-06
1.42617e-05
-2.61073e-06
1.505e-05
-2.54758e-06
1.61964e-05
-2.47611e-06
1.74487e-05
-2.44403e-06
1.83551e-05
-2.45817e-06
1.86176e-05
-2.49696e-06
1.83404e-05
-2.53251e-06
1.79554e-05
1.78807e-05
-2.93033e-06
2.79352e-06
-2.93124e-06
2.9183e-06
-2.93225e-06
3.05615e-06
-2.93336e-06
3.20184e-06
-2.93463e-06
3.35442e-06
-2.93608e-06
3.51395e-06
-2.93774e-06
3.68067e-06
-2.93964e-06
3.8549e-06
-2.94182e-06
4.03696e-06
-2.94433e-06
4.22721e-06
-2.9472e-06
4.42604e-06
-2.95049e-06
4.63386e-06
-2.95427e-06
4.8511e-06
-2.9586e-06
5.0782e-06
-2.96354e-06
5.31557e-06
-2.96918e-06
5.56358e-06
-2.97561e-06
5.82252e-06
-2.98295e-06
6.09254e-06
-2.99134e-06
6.37368e-06
-3.00099e-06
6.66589e-06
-3.01215e-06
6.96916e-06
-3.02515e-06
7.28369e-06
-3.0404e-06
7.61013e-06
-3.05836e-06
7.94984e-06
-3.07959e-06
8.30494e-06
-3.10471e-06
8.67844e-06
-3.13429e-06
9.0743e-06
-3.1685e-06
9.49786e-06
-3.20636e-06
9.95657e-06
-3.24448e-06
1.04604e-05
-3.27986e-06
1.28632e-05
-3.28977e-06
1.2974e-05
-3.26008e-06
1.3115e-05
-3.18185e-06
1.32575e-05
-3.05599e-06
1.33705e-05
-2.89526e-06
1.34338e-05
-2.72242e-06
1.34486e-05
-2.56547e-06
1.34427e-05
-2.45138e-06
1.34651e-05
-2.39857e-06
1.35746e-05
-2.40619e-06
1.38303e-05
-2.44319e-06
1.42988e-05
-2.45735e-06
1.50642e-05
-2.4214e-06
1.61605e-05
-2.36793e-06
1.73952e-05
-2.34829e-06
1.83355e-05
-2.37601e-06
1.86453e-05
-2.42935e-06
1.83938e-05
-2.47753e-06
1.80036e-05
1.7902e-05
-2.92137e-06
2.794e-06
-2.92207e-06
2.919e-06
-2.92286e-06
3.05695e-06
-2.92378e-06
3.20276e-06
-2.92485e-06
3.3555e-06
-2.92611e-06
3.5152e-06
-2.92756e-06
3.68213e-06
-2.92925e-06
3.85658e-06
-2.93119e-06
4.0389e-06
-2.93342e-06
4.22944e-06
-2.93598e-06
4.4286e-06
-2.93892e-06
4.6368e-06
-2.94228e-06
4.85446e-06
-2.94611e-06
5.08204e-06
-2.95049e-06
5.31994e-06
-2.95546e-06
5.56855e-06
-2.9611e-06
5.82816e-06
-2.96751e-06
6.09895e-06
-2.97481e-06
6.38098e-06
-2.98316e-06
6.67424e-06
-2.99277e-06
6.97877e-06
-3.00391e-06
7.29482e-06
-3.01688e-06
7.62311e-06
-3.03204e-06
7.965e-06
-3.04978e-06
8.32268e-06
-3.07049e-06
8.69914e-06
-3.09445e-06
9.09826e-06
-3.12155e-06
9.52496e-06
-3.15061e-06
9.98563e-06
-3.17841e-06
1.04882e-05
-3.20087e-06
1.28856e-05
-3.19937e-06
1.29725e-05
-3.16167e-06
1.30773e-05
-3.07942e-06
1.31752e-05
-2.95199e-06
1.32431e-05
-2.78874e-06
1.32705e-05
-2.60872e-06
1.32686e-05
-2.43784e-06
1.32718e-05
-2.30403e-06
1.33313e-05
-2.23021e-06
1.35008e-05
-2.22382e-06
1.38239e-05
-2.26394e-06
1.43389e-05
-2.30162e-06
1.51019e-05
-2.29795e-06
1.61568e-05
-2.26962e-06
1.73669e-05
-2.26543e-06
1.83313e-05
-2.30493e-06
1.86848e-05
-2.36922e-06
1.84581e-05
-2.42749e-06
1.80618e-05
1.79321e-05
-2.91142e-06
2.79442e-06
-2.91203e-06
2.91961e-06
-2.91274e-06
3.05766e-06
-2.91357e-06
3.20359e-06
-2.91453e-06
3.35646e-06
-2.91564e-06
3.51632e-06
-2.91694e-06
3.68342e-06
-2.91843e-06
3.85807e-06
-2.92014e-06
4.04061e-06
-2.9221e-06
4.23141e-06
-2.92435e-06
4.43085e-06
-2.92692e-06
4.63937e-06
-2.92985e-06
4.85739e-06
-2.93319e-06
5.08537e-06
-2.93697e-06
5.32372e-06
-2.94125e-06
5.57283e-06
-2.94608e-06
5.83299e-06
-2.95153e-06
6.1044e-06
-2.95771e-06
6.38715e-06
-2.96473e-06
6.68126e-06
-2.97275e-06
6.98679e-06
-2.98199e-06
7.30405e-06
-2.99265e-06
7.63377e-06
-3.005e-06
7.97734e-06
-3.01924e-06
8.33693e-06
-3.03558e-06
8.71548e-06
-3.05404e-06
9.11672e-06
-3.07425e-06
9.54516e-06
-3.09487e-06
1.00062e-05
-3.11281e-06
1.05062e-05
-3.12281e-06
1.28956e-05
-3.10997e-06
1.29596e-05
-3.0637e-06
1.3031e-05
-2.97629e-06
1.30878e-05
-2.8461e-06
1.31129e-05
-2.67994e-06
1.31043e-05
-2.4939e-06
1.30825e-05
-2.31212e-06
1.309e-05
-2.16298e-06
1.31821e-05
-2.07233e-06
1.34102e-05
-2.0536e-06
1.38052e-05
-2.09487e-06
1.43801e-05
-2.15366e-06
1.51607e-05
-2.18426e-06
1.61874e-05
-2.18636e-06
1.7369e-05
-2.20027e-06
1.83452e-05
-2.24944e-06
1.87339e-05
-2.32032e-06
1.85289e-05
-2.38519e-06
1.81267e-05
1.79696e-05
-2.90068e-06
2.79487e-06
-2.90134e-06
2.92027e-06
-2.90207e-06
3.05839e-06
-2.90288e-06
3.2044e-06
-2.90379e-06
3.35737e-06
-2.90482e-06
3.51735e-06
-2.90599e-06
3.68459e-06
-2.90731e-06
3.85939e-06
-2.90881e-06
4.04211e-06
-2.91052e-06
4.23311e-06
-2.91246e-06
4.43279e-06
-2.91466e-06
4.64157e-06
-2.91716e-06
4.85989e-06
-2.91999e-06
5.0882e-06
-2.92318e-06
5.32691e-06
-2.92676e-06
5.57641e-06
-2.93077e-06
5.83701e-06
-2.93527e-06
6.1089e-06
-2.94032e-06
6.3922e-06
-2.946e-06
6.68695e-06
-2.95245e-06
6.99324e-06
-2.9598e-06
7.3114e-06
-2.96819e-06
7.64217e-06
-2.97777e-06
7.98692e-06
-2.98862e-06
8.34778e-06
-3.00075e-06
8.72762e-06
-3.01398e-06
9.12995e-06
-3.0277e-06
9.55888e-06
-3.04045e-06
1.0019e-05
-3.04923e-06
1.05149e-05
-3.04759e-06
1.2894e-05
-3.02391e-06
1.2936e-05
-2.96893e-06
1.2976e-05
-2.87557e-06
1.29944e-05
-2.74158e-06
1.29789e-05
-2.57204e-06
1.29348e-05
-2.38104e-06
1.28915e-05
-2.1916e-06
1.29006e-05
-2.03241e-06
1.30229e-05
-1.9311e-06
1.33089e-05
-1.90448e-06
1.37786e-05
-1.94724e-06
1.44229e-05
-2.02445e-06
1.52379e-05
-2.0885e-06
1.62514e-05
-2.12358e-06
1.74041e-05
-2.15713e-06
1.83787e-05
-2.2134e-06
1.87902e-05
-2.28595e-06
1.86015e-05
-2.35316e-06
1.81939e-05
1.80123e-05
-2.88984e-06
2.79536e-06
-2.89054e-06
2.92097e-06
-2.89129e-06
3.05914e-06
-2.89209e-06
3.2052e-06
-2.89295e-06
3.35823e-06
-2.89389e-06
3.51829e-06
-2.89493e-06
3.68562e-06
-2.89609e-06
3.86055e-06
-2.89738e-06
4.04341e-06
-2.89883e-06
4.23457e-06
-2.90047e-06
4.43443e-06
-2.90231e-06
4.64342e-06
-2.90438e-06
4.86197e-06
-2.90671e-06
5.09052e-06
-2.9093e-06
5.32951e-06
-2.91219e-06
5.5793e-06
-2.9154e-06
5.84021e-06
-2.91896e-06
6.11246e-06
-2.9229e-06
6.39614e-06
-2.92729e-06
6.69134e-06
-2.9322e-06
6.99815e-06
-2.93772e-06
7.31692e-06
-2.94393e-06
7.64837e-06
-2.95086e-06
7.99385e-06
-2.95849e-06
8.35542e-06
-2.96668e-06
8.73581e-06
-2.97506e-06
9.13833e-06
-2.98284e-06
9.56666e-06
-2.98845e-06
1.00246e-05
-2.98898e-06
1.05155e-05
-2.97683e-06
1.28818e-05
-2.9432e-06
1.29023e-05
-2.87989e-06
1.29127e-05
-2.78036e-06
1.28949e-05
-2.64206e-06
1.28406e-05
-2.46904e-06
1.27618e-05
-2.27435e-06
1.26969e-05
-2.08072e-06
1.27069e-05
-1.91741e-06
1.28596e-05
-1.81276e-06
1.32042e-05
-1.78459e-06
1.37504e-05
-1.83123e-06
1.44696e-05
-1.92472e-06
1.53314e-05
-2.01923e-06
1.63459e-05
-2.08682e-06
1.74717e-05
-2.13961e-06
1.84315e-05
-2.19966e-06
1.88503e-05
-2.26858e-06
1.86704e-05
-2.33343e-06
1.82588e-05
1.80572e-05
-2.87939e-06
2.79584e-06
-2.88006e-06
2.92163e-06
-2.88077e-06
3.05985e-06
-2.88149e-06
3.20593e-06
-2.88226e-06
3.359e-06
-2.88309e-06
3.51911e-06
-2.88398e-06
3.68652e-06
-2.88495e-06
3.86152e-06
-2.88602e-06
4.04448e-06
-2.88722e-06
4.23576e-06
-2.88854e-06
4.43576e-06
-2.89002e-06
4.6449e-06
-2.89167e-06
4.86361e-06
-2.8935e-06
5.09235e-06
-2.89553e-06
5.33153e-06
-2.89775e-06
5.58152e-06
-2.90018e-06
5.84265e-06
-2.90283e-06
6.11511e-06
-2.90571e-06
6.39903e-06
-2.90887e-06
6.69449e-06
-2.91232e-06
7.00161e-06
-2.91611e-06
7.32071e-06
-2.92025e-06
7.65251e-06
-2.92471e-06
7.99832e-06
-2.92938e-06
8.36008e-06
-2.93397e-06
8.74039e-06
-2.93797e-06
9.14233e-06
-2.94046e-06
9.56915e-06
-2.93978e-06
1.00239e-05
-2.93309e-06
1.05088e-05
-2.91179e-06
1.28605e-05
-2.86946e-06
1.286e-05
-2.7987e-06
1.2842e-05
-2.69343e-06
1.27896e-05
-2.55103e-06
1.26982e-05
-2.37514e-06
1.25859e-05
-2.17866e-06
1.25004e-05
-1.98489e-06
1.25131e-05
-1.8239e-06
1.26986e-05
-1.72381e-06
1.31041e-05
-1.70132e-06
1.37279e-05
-1.75562e-06
1.45239e-05
-1.86409e-06
1.54398e-05
-1.98477e-06
1.64666e-05
-2.08122e-06
1.75681e-05
-2.15032e-06
1.85006e-05
-2.20975e-06
1.89097e-05
-2.26955e-06
1.87302e-05
-2.32734e-06
1.83166e-05
1.81008e-05
-2.8694e-06
2.79628e-06
-2.86999e-06
2.92223e-06
-2.8706e-06
3.06046e-06
-2.87122e-06
3.20654e-06
-2.87186e-06
3.35964e-06
-2.87254e-06
3.51979e-06
-2.87326e-06
3.68724e-06
-2.87403e-06
3.8623e-06
-2.87488e-06
4.04533e-06
-2.87581e-06
4.23669e-06
-2.87683e-06
4.43678e-06
-2.87795e-06
4.64602e-06
-2.87919e-06
4.86485e-06
-2.88054e-06
5.0937e-06
-2.88201e-06
5.333e-06
-2.8836e-06
5.58311e-06
-2.88529e-06
5.84434e-06
-2.88709e-06
6.1169e-06
-2.88898e-06
6.40092e-06
-2.89097e-06
6.69648e-06
-2.89306e-06
7.0037e-06
-2.89525e-06
7.3229e-06
-2.89751e-06
7.65477e-06
-2.89972e-06
8.00053e-06
-2.9017e-06
8.36206e-06
-2.90308e-06
8.74177e-06
-2.90324e-06
9.14249e-06
-2.90115e-06
9.56706e-06
-2.8951e-06
1.00179e-05
-2.88233e-06
1.0496e-05
-2.8534e-06
1.28316e-05
-2.80385e-06
1.28105e-05
-2.72695e-06
1.27651e-05
-2.61701e-06
1.26797e-05
-2.47151e-06
1.25527e-05
-2.29424e-06
1.24086e-05
-2.09881e-06
1.23049e-05
-1.90981e-06
1.23241e-05
-1.75809e-06
1.25469e-05
-1.6706e-06
1.30166e-05
-1.66107e-06
1.37184e-05
-1.72728e-06
1.45901e-05
-1.85001e-06
1.55625e-05
-1.99171e-06
1.66083e-05
-2.11068e-06
1.76871e-05
-2.1904e-06
1.85803e-05
-2.2436e-06
1.89629e-05
-2.28892e-06
1.87755e-05
-2.33537e-06
1.8363e-05
1.81396e-05
-2.85983e-06
2.79666e-06
-2.86034e-06
2.92274e-06
-2.86084e-06
3.06096e-06
-2.86133e-06
3.20703e-06
-2.86183e-06
3.36014e-06
-2.86234e-06
3.5203e-06
-2.86287e-06
3.68777e-06
-2.86345e-06
3.86287e-06
-2.86406e-06
4.04594e-06
-2.86472e-06
4.23735e-06
-2.86544e-06
4.4375e-06
-2.86622e-06
4.6468e-06
-2.86706e-06
4.86569e-06
-2.86797e-06
5.09461e-06
-2.86892e-06
5.33395e-06
-2.86991e-06
5.5841e-06
-2.87091e-06
5.84535e-06
-2.87192e-06
6.1179e-06
-2.87289e-06
6.4019e-06
-2.87382e-06
6.69741e-06
-2.87468e-06
7.00455e-06
-2.87542e-06
7.32364e-06
-2.87597e-06
7.65532e-06
-2.87619e-06
8.00075e-06
-2.87582e-06
8.36168e-06
-2.87441e-06
8.74037e-06
-2.87129e-06
9.13936e-06
-2.86535e-06
9.56112e-06
-2.85488e-06
1.00074e-05
-2.83718e-06
1.04783e-05
-2.80221e-06
1.27966e-05
-2.74712e-06
1.27554e-05
-2.6657e-06
1.26837e-05
-2.55267e-06
1.25667e-05
-2.40584e-06
1.24058e-05
-2.22969e-06
1.22325e-05
-2.03924e-06
1.21145e-05
-1.86075e-06
1.21457e-05
-1.72576e-06
1.24119e-05
-1.65863e-06
1.29495e-05
-1.66864e-06
1.37284e-05
-1.75064e-06
1.46721e-05
-1.88699e-06
1.56989e-05
-2.0439e-06
1.67652e-05
-2.1768e-06
1.782e-05
-2.259e-06
1.86625e-05
-2.29941e-06
1.90033e-05
-2.32546e-06
1.88016e-05
-2.35712e-06
1.83947e-05
1.81703e-05
-2.8508e-06
2.79697e-06
-2.85119e-06
2.92313e-06
-2.85155e-06
3.06132e-06
-2.85189e-06
3.20737e-06
-2.85222e-06
3.36047e-06
-2.85256e-06
3.52063e-06
-2.85291e-06
3.68812e-06
-2.85327e-06
3.86323e-06
-2.85365e-06
4.04632e-06
-2.85405e-06
4.23775e-06
-2.85448e-06
4.43793e-06
-2.85494e-06
4.64726e-06
-2.85541e-06
4.86617e-06
-2.85589e-06
5.09509e-06
-2.85636e-06
5.33442e-06
-2.8568e-06
5.58454e-06
-2.85718e-06
5.84573e-06
-2.85747e-06
6.11819e-06
-2.85762e-06
6.40205e-06
-2.8576e-06
6.69738e-06
-2.85735e-06
7.00431e-06
-2.85681e-06
7.3231e-06
-2.85587e-06
7.65438e-06
-2.85436e-06
7.99924e-06
-2.85197e-06
8.35929e-06
-2.84823e-06
8.73663e-06
-2.84239e-06
9.13353e-06
-2.83335e-06
9.55207e-06
-2.81938e-06
9.99344e-06
-2.79791e-06
1.04568e-05
-2.75848e-06
1.27572e-05
-2.69958e-06
1.26965e-05
-2.6155e-06
1.25996e-05
-2.50138e-06
1.24526e-05
-2.35565e-06
1.22601e-05
-2.18395e-06
1.20608e-05
-2.00327e-06
1.19338e-05
-1.84197e-06
1.19844e-05
-1.73125e-06
1.23012e-05
-1.69155e-06
1.29098e-05
-1.72652e-06
1.37634e-05
-1.82709e-06
1.47726e-05
-1.97583e-06
1.58476e-05
-2.1414e-06
1.69308e-05
-2.27801e-06
1.79566e-05
-2.35285e-06
1.87374e-05
-2.37369e-06
1.90241e-05
-2.3768e-06
1.88047e-05
-2.39142e-06
1.84093e-05
1.81898e-05
-2.84231e-06
2.79718e-06
-2.84255e-06
2.92337e-06
-2.84275e-06
3.06153e-06
-2.84293e-06
3.20754e-06
-2.84308e-06
3.36062e-06
-2.84324e-06
3.52079e-06
-2.8434e-06
3.68827e-06
-2.84355e-06
3.86339e-06
-2.84371e-06
4.04648e-06
-2.84387e-06
4.23791e-06
-2.84403e-06
4.43809e-06
-2.84418e-06
4.64741e-06
-2.84432e-06
4.8663e-06
-2.84442e-06
5.09519e-06
-2.84445e-06
5.33446e-06
-2.8444e-06
5.58449e-06
-2.84422e-06
5.84555e-06
-2.84387e-06
6.11784e-06
-2.84329e-06
6.40147e-06
-2.84243e-06
6.69652e-06
-2.84123e-06
7.0031e-06
-2.83958e-06
7.32146e-06
-2.83738e-06
7.65218e-06
-2.83441e-06
7.99627e-06
-2.83035e-06
8.35523e-06
-2.8247e-06
8.73098e-06
-2.81671e-06
9.12554e-06
-2.80527e-06
9.54062e-06
-2.7887e-06
9.97688e-06
-2.76455e-06
1.04327e-05
-2.72221e-06
1.27149e-05
-2.66125e-06
1.26355e-05
-2.57644e-06
1.25148e-05
-2.46353e-06
1.23396e-05
-2.32182e-06
1.21184e-05
-2.15863e-06
1.18976e-05
-1.99335e-06
1.17685e-05
-1.85603e-06
1.18471e-05
-1.77667e-06
1.22218e-05
-1.77025e-06
1.29034e-05
-1.8339e-06
1.3827e-05
-1.9543e-06
1.4893e-05
-2.11307e-06
1.60064e-05
-2.2799e-06
1.70976e-05
-2.40907e-06
1.80858e-05
-2.46626e-06