/*--------------------------------*- C++ -*----------------------------------*\
  =========                 |
  \\      /  F ield         | OpenFOAM: The Open Source CFD Toolbox
   \\    /   O peration     | Website:  https://openfoam.org
    \\  /    A nd           | Version:  9
     \\/     M anipulation  |
\*---------------------------------------------------------------------------*/
FoamFile
{
    format      ascii;
    class       volScalarField;
    location    "0.14";
    object      p;
}
// * * * * * * * * * * * * * * * * * * * * * * * * * * * * * * * * * * * * * //

dimensions      [1 -1 -2 0 0 0 0];

internalField   nonuniform List<scalar> 
5000
(
2.68861
2.68847
2.68829
2.68809
2.68786
2.68758
2.68725
2.68687
2.68644
2.68598
2.6855
2.685
2.68438
2.68333
2.68143
2.67824
2.67358
2.66751
2.66025
2.65206
2.64318
2.63395
2.62507
2.61859
2.61527
2.6352
2.51017
2.63998
2.61248
2.6176
2.62805
2.64332
2.65746
2.66895
2.67639
2.67994
2.6812
2.68178
2.68234
2.68249
2.68174
2.68021
2.67854
2.67734
2.67676
2.67672
2.67703
2.67754
2.67818
2.67887
2.68659
2.6863
2.68599
2.68564
2.68526
2.68483
2.68435
2.68379
2.68314
2.68238
2.6815
2.68045
2.6792
2.67766
2.6757
2.67315
2.66988
2.66581
2.66097
2.65549
2.6496
2.64363
2.63803
2.63343
2.62136
2.63311
2.56764
2.63626
2.61735
2.63461
2.63968
2.65
2.66005
2.66856
2.67472
2.67872
2.6812
2.68271
2.68362
2.684
2.68389
2.68339
2.68273
2.68222
2.682
2.68208
2.68242
2.68291
2.68349
2.68407
2.68458
2.68424
2.68387
2.68348
2.68305
2.68259
2.68206
2.68148
2.68081
2.68005
2.67918
2.67817
2.67698
2.67554
2.67374
2.6715
2.66873
2.66541
2.66156
2.65727
2.65265
2.64782
2.64296
2.63997
2.62753
2.64624
2.59589
2.64927
2.62378
2.64213
2.64451
2.65385
2.66209
2.66928
2.67477
2.67865
2.68132
2.68313
2.68435
2.68506
2.68533
2.68526
2.68505
2.6849
2.68495
2.6852
2.68562
2.68616
2.68675
2.68733
2.6826
2.68225
2.68188
2.68148
2.68105
2.68059
2.68008
2.67952
2.6789
2.67821
2.67743
2.67654
2.67549
2.67422
2.67266
2.67071
2.66834
2.66552
2.6623
2.65873
2.65492
2.65093
2.64668
2.6459
2.63456
2.65503
2.61751
2.6571
2.63155
2.64834
2.64815
2.65723
2.66424
2.67061
2.6756
2.67923
2.68185
2.68378
2.68523
2.68623
2.68679
2.68701
2.6871
2.68724
2.68752
2.68794
2.68849
2.68911
2.68976
2.69038
2.68064
2.6803
2.67993
2.67954
2.67913
2.67868
2.6782
2.67768
2.6771
2.67646
2.67575
2.67494
2.674
2.67289
2.67156
2.66996
2.66804
2.6658
2.66326
2.66047
2.65755
2.65463
2.65116
2.65214
2.64167
2.65961
2.63419
2.66115
2.63966
2.65489
2.65263
2.66106
2.66664
2.67221
2.67668
2.68012
2.68277
2.68484
2.68647
2.68769
2.68854
2.6891
2.68952
2.68995
2.69045
2.69105
2.69173
2.69245
2.69317
2.69385
2.67869
2.67836
2.67802
2.67766
2.67727
2.67686
2.67641
2.67593
2.67541
2.67483
2.67419
2.67348
2.67266
2.67172
2.67063
2.66936
2.66787
2.66618
2.66428
2.66223
2.66012
2.6582
2.65534
2.6573
2.64805
2.66278
2.64558
2.66408
2.64707
2.66056
2.65725
2.66494
2.66918
2.67401
2.67799
2.68127
2.68397
2.68617
2.68796
2.68939
2.6905
2.69138
2.69213
2.69285
2.69358
2.69436
2.69517
2.69599
2.6968
2.69755
2.67675
2.67646
2.67615
2.67583
2.67549
2.67513
2.67474
2.67432
2.67387
2.67338
2.67284
2.67225
2.67158
2.67083
2.66997
2.66898
2.66785
2.66658
2.66519
2.66371
2.6622
2.661
2.65856
2.66099
2.65327
2.66528
2.65322
2.66641
2.6532
2.66481
2.66131
2.66846
2.6717
2.67601
2.67958
2.68269
2.68538
2.68766
2.6896
2.69121
2.69255
2.69371
2.69473
2.6957
2.69665
2.69761
2.69857
2.69951
2.70042
2.70126
2.67481
2.67457
2.67431
2.67405
2.67377
2.67347
2.67315
2.67281
2.67245
2.67206
2.67164
2.67118
2.67067
2.6701
2.66945
2.66871
2.66788
2.66695
2.66594
2.66489
2.66379
2.66312
2.66105
2.66359
2.65734
2.66706
2.65868
2.66811
2.65812
2.66798
2.66481
2.67155
2.67414
2.6781
2.68135
2.68431
2.68696
2.6893
2.69135
2.69312
2.69467
2.69604
2.6973
2.6985
2.69965
2.70079
2.7019
2.70297
2.704
2.70494
2.67287
2.67269
2.67249
2.67229
2.67208
2.67185
2.67161
2.67136
2.67109
2.6708
2.6705
2.67016
2.6698
2.6694
2.66894
2.66843
2.66785
2.66721
2.66652
2.66582
2.66506
2.66479
2.66311
2.66556
2.66058
2.6683
2.6628
2.66938
2.66215
2.67055
2.668
2.67431
2.67649
2.68022
2.68322
2.68607
2.68868
2.69106
2.69321
2.69513
2.69685
2.69843
2.6999
2.7013
2.70265
2.70396
2.70523
2.70644
2.70759
2.70866
2.67094
2.67081
2.67068
2.67055
2.6704
2.67025
2.67009
2.66993
2.66975
2.66956
2.66936
2.66915
2.66893
2.66868
2.6684
2.66809
2.66773
2.66735
2.66695
2.66656
2.6661
2.66616
2.66487
2.66711
2.66328
2.66932
2.66605
2.67048
2.66559
2.67277
2.67097
2.67683
2.67877
2.68233
2.68514
2.68791
2.6905
2.69293
2.69518
2.69723
2.69912
2.70088
2.70255
2.70415
2.70569
2.70717
2.7086
2.70996
2.71124
2.71243
2.66901
2.66894
2.66888
2.66881
2.66874
2.66866
2.66858
2.6685
2.66841
2.66832
2.66823
2.66813
2.66803
2.66793
2.66781
2.66767
2.66753
2.66738
2.66722
2.66711
2.66693
2.66726
2.66637
2.66839
2.66561
2.67033
2.66874
2.67161
2.66862
2.67475
2.67372
2.67915
2.68099
2.6844
2.68708
2.68981
2.6924
2.69489
2.69723
2.69941
2.70145
2.70339
2.70525
2.70704
2.70876
2.71042
2.712
2.71351
2.71494
2.71625
2.66708
2.66707
2.66707
2.66707
2.66707
2.66707
2.66707
2.66707
2.66707
2.66707
2.66708
2.6671
2.66711
2.66714
2.66716
2.6672
2.66724
2.66729
2.66736
2.6675
2.66758
2.66813
2.66766
2.66951
2.6677
2.67149
2.6711
2.6729
2.67135
2.67657
2.67628
2.68129
2.68312
2.68643
2.68904
2.69174
2.69436
2.69691
2.69934
2.70165
2.70384
2.70595
2.70799
2.70996
2.71186
2.71369
2.71544
2.71711
2.71868
2.72013
2.66514
2.6652
2.66526
2.66533
2.6654
2.66547
2.66554
2.66563
2.66571
2.66581
2.66591
2.66603
2.66616
2.6663
2.66646
2.66664
2.66685
2.66709
2.66737
2.66774
2.66806
2.66883
2.66878
2.67055
2.66963
2.67283
2.67328
2.67437
2.67387
2.6783
2.67865
2.68329
2.68518
2.68841
2.69099
2.6937
2.69635
2.69897
2.70151
2.70394
2.70628
2.70855
2.71076
2.71292
2.715
2.717
2.71892
2.72074
2.72246
2.72406
2.66321
2.66333
2.66345
2.66358
2.66371
2.66385
2.66401
2.66416
2.66433
2.66451
2.66471
2.66492
2.66515
2.66541
2.66569
2.66601
2.66637
2.66679
2.66727
2.66784
2.66842
2.66939
2.66976
2.67154
2.67144
2.67429
2.67532
2.67601
2.67623
2.68
2.68088
2.68517
2.68716
2.69034
2.69293
2.69567
2.69837
2.70107
2.70371
2.70627
2.70876
2.71119
2.71358
2.71591
2.71817
2.72035
2.72243
2.72442
2.72629
2.72804
2.66127
2.66145
2.66163
2.66182
2.66202
2.66223
2.66245
2.66268
2.66293
2.66319
2.66347
2.66377
2.66409
2.66445
2.66485
2.6653
2.66581
2.66639
2.66705
2.66783
2.66865
2.66984
2.67061
2.67249
2.67312
2.67582
2.67724
2.67772
2.67844
2.68168
2.68296
2.68695
2.68906
2.69222
2.69484
2.69763
2.7004
2.70319
2.70595
2.70864
2.71127
2.71387
2.71643
2.71893
2.72137
2.72373
2.72599
2.72815
2.73018
2.73208
2.65934
2.65956
2.6598
2.66005
2.66031
2.66058
2.66087
2.66117
2.66149
2.66182
2.66218
2.66257
2.66298
2.66344
2.66394
2.66451
2.66515
2.66589
2.66672
2.6677
2.66876
2.67016
2.67133
2.67338
2.67463
2.67732
2.67901
2.67945
2.68049
2.68332
2.68491
2.68864
2.69088
2.69403
2.69671
2.69958
2.70243
2.70532
2.7082
2.71103
2.71382
2.71658
2.71931
2.722
2.72462
2.72716
2.7296
2.73192
2.73413
2.73619
2.6574
2.65768
2.65797
2.65827
2.65859
2.65892
2.65927
2.65964
2.66002
2.66043
2.66086
2.66132
2.66182
2.66236
2.66296
2.66364
2.66441
2.66529
2.66629
2.66746
2.66875
2.67038
2.67191
2.67417
2.67597
2.67872
2.68061
2.68112
2.68238
2.68491
2.68672
2.69025
2.69263
2.69579
2.69855
2.7015
2.70446
2.70747
2.71047
2.71344
2.71639
2.71931
2.72222
2.72509
2.7279
2.73062
2.73325
2.73575
2.73813
2.74035
2.65546
2.65579
2.65613
2.65649
2.65686
2.65725
2.65765
2.65808
2.65853
2.659
2.65949
2.66002
2.6606
2.66122
2.66191
2.66269
2.66358
2.66459
2.66575
2.6671
2.66862
2.67046
2.67235
2.67484
2.67712
2.67998
2.68204
2.68269
2.68411
2.68642
2.68838
2.69176
2.69428
2.69748
2.70035
2.7034
2.70647
2.70961
2.71276
2.71588
2.71898
2.72208
2.72517
2.72822
2.73122
2.73413
2.73694
2.73964
2.74219
2.74459
2.65352
2.6539
2.65428
2.65469
2.65511
2.65555
2.65602
2.6565
2.657
2.65753
2.65809
2.65868
2.65932
2.66002
2.66079
2.66166
2.66265
2.66379
2.66511
2.66663
2.66836
2.67042
2.67264
2.6754
2.6781
2.68109
2.68329
2.68414
2.68569
2.68784
2.68991
2.69319
2.69585
2.69911
2.7021
2.70527
2.70847
2.71175
2.71504
2.71832
2.72159
2.72486
2.72814
2.73138
2.73458
2.73769
2.74069
2.74358
2.74632
2.7489
2.65158
2.652
2.65243
2.65288
2.65336
2.65385
2.65436
2.65489
2.65544
2.65603
2.65664
2.65729
2.65799
2.65876
2.6596
2.66056
2.66165
2.6629
2.66435
2.66604
2.66797
2.67026
2.67279
2.67585
2.67893
2.68207
2.68438
2.68546
2.68713
2.68916
2.6913
2.69452
2.69732
2.70067
2.7038
2.70711
2.71045
2.71387
2.71733
2.72077
2.72421
2.72767
2.73113
2.73458
2.73797
2.74128
2.74449
2.74757
2.75051
2.75328
2.64964
2.6501
2.65057
2.65107
2.65158
2.65212
2.65268
2.65326
2.65386
2.6545
2.65516
2.65587
2.65662
2.65744
2.65835
2.65938
2.66056
2.66192
2.6635
2.66534
2.66747
2.66998
2.67282
2.67618
2.67961
2.6829
2.68532
2.68666
2.68844
2.69038
2.69257
2.69576
2.69871
2.70217
2.70546
2.70891
2.7124
2.71599
2.71961
2.72322
2.72685
2.73049
2.73415
2.7378
2.7414
2.74493
2.74834
2.75163
2.75477
2.75774
2.6477
2.64819
2.64871
2.64925
2.6498
2.65038
2.65099
2.65161
2.65226
2.65294
2.65365
2.6544
2.6552
2.65608
2.65705
2.65814
2.65939
2.66085
2.66255
2.66454
2.66685
2.66958
2.67273
2.6764
2.68017
2.6836
2.68611
2.68773
2.68963
2.6915
2.6937
2.6969
2.70002
2.7036
2.70706
2.71068
2.71433
2.71809
2.72188
2.72568
2.72949
2.73333
2.73719
2.74106
2.74487
2.74861
2.75225
2.75575
2.75911
2.76228
2.64576
2.64629
2.64684
2.64742
2.64802
2.64864
2.64928
2.64995
2.65064
2.65136
2.65211
2.65291
2.65375
2.65467
2.65569
2.65685
2.65818
2.65972
2.66153
2.66366
2.66614
2.66908
2.67252
2.67652
2.6806
2.68415
2.68675
2.68865
2.69067
2.69249
2.69472
2.69796
2.70124
2.70497
2.70861
2.7124
2.71623
2.72017
2.72414
2.72813
2.73213
2.73618
2.74025
2.74434
2.74838
2.75234
2.75621
2.75994
2.76351
2.7669
2.64381
2.64438
2.64497
2.64558
2.64622
2.64688
2.64756
2.64827
2.649
2.64976
2.65055
2.65139
2.65228
2.65324
2.65431
2.65552
2.65692
2.65855
2.66046
2.66271
2.66535
2.66849
2.67221
2.67653
2.68088
2.68453
2.68719
2.68939
2.69156
2.69336
2.69563
2.69893
2.7024
2.70629
2.71012
2.71409
2.71811
2.72223
2.72639
2.73057
2.73478
2.73903
2.74333
2.74764
2.75192
2.75612
2.76022
2.76418
2.76799
2.77161
2.64187
2.64247
2.64309
2.64374
2.64442
2.64511
2.64584
2.64658
2.64735
2.64815
2.64899
2.64986
2.65079
2.6518
2.65292
2.65418
2.65564
2.65734
2.65935
2.66172
2.66451
2.66783
2.6718
2.67642
2.681
2.68468
2.68742
2.68992
2.69227
2.69409
2.69643
2.69984
2.70349
2.70756
2.71159
2.71575
2.71995
2.72426
2.72862
2.73301
2.73743
2.7419
2.74643
2.75097
2.75549
2.75994
2.76429
2.7685
2.77255
2.77641
2.63992
2.64056
2.64122
2.6419
2.64261
2.64335
2.64411
2.64489
2.6457
2.64654
2.64741
2.64833
2.6493
2.65035
2.65152
2.65283
2.65435
2.65613
2.65823
2.66071
2.66363
2.66712
2.67128
2.67614
2.68092
2.68457
2.68741
2.69022
2.69276
2.69467
2.69713
2.70069
2.70454
2.70878
2.71302
2.71736
2.72176
2.72627
2.73084
2.73543
2.74007
2.74477
2.74953
2.75433
2.7591
2.76381
2.76841
2.77288
2.77718
2.78129
2.63798
2.63865
2.63934
2.64006
2.64081
2.64158
2.64237
2.6432
2.64404
2.64492
2.64584
2.64679
2.64781
2.64891
2.65012
2.65149
2.65308
2.65493
2.65712
2.65969
2.66273
2.66636
2.67068
2.67564
2.68061
2.68423
2.68716
2.69026
2.69302
2.69509
2.69773
2.70148
2.70555
2.70997
2.71441
2.71894
2.72354
2.72825
2.73303
2.73784
2.7427
2.74764
2.75265
2.7577
2.76274
2.76771
2.77258
2.77732
2.7819
2.78627
2.63604
2.63674
2.63746
2.63822
2.639
2.63981
2.64064
2.6415
2.64239
2.64331
2.64426
2.64526
2.64633
2.64747
2.64874
2.65017
2.65182
2.65375
2.65601
2.65868
2.66181
2.66554
2.66997
2.67501
2.67994
2.68358
2.68671
2.69004
2.69303
2.69533
2.69823
2.70222
2.70652
2.71113
2.71576
2.72049
2.72529
2.73021
2.7352
2.74024
2.74533
2.75051
2.75578
2.7611
2.76641
2.77166
2.77681
2.78183
2.78669
2.79134
2.6341
2.63483
2.63559
2.63637
2.63719
2.63803
2.63891
2.63981
2.64074
2.6417
2.6427
2.64374
2.64486
2.64605
2.64738
2.64887
2.65059
2.65259
2.65492
2.65766
2.66088
2.66467
2.66914
2.67416
2.67904
2.68272
2.68599
2.68955
2.69278
2.69539
2.69864
2.70292
2.70745
2.71226
2.71707
2.72199
2.72699
2.73213
2.73734
2.74261
2.74794
2.75337
2.75891
2.76451
2.77011
2.77565
2.78109
2.78641
2.79156
2.7965
2.63216
2.63292
2.63371
2.63453
2.63538
2.63626
2.63717
2.63811
2.63908
2.64009
2.64114
2.64223
2.64339
2.64465
2.64603
2.64759
2.64937
2.65144
2.65385
2.65665
2.65992
2.66375
2.6682
2.67315
2.67793
2.68163
2.68504
2.6888
2.69227
2.69527
2.69894
2.70356
2.70835
2.71335
2.71835
2.72345
2.72866
2.73401
2.73946
2.74496
2.75054
2.75623
2.76204
2.76793
2.77383
2.77967
2.78543
2.79105
2.79651
2.80176
2.63021
2.631
2.63183
2.63268
2.63357
2.63449
2.63544
2.63642
2.63743
2.63848
2.63958
2.64072
2.64194
2.64325
2.6447
2.64632
2.64817
2.6503
2.65277
2.65563
2.65894
2.66277
2.66716
2.67198
2.67663
2.68035
2.68391
2.68781
2.69152
2.69497
2.69914
2.70414
2.7092
2.71439
2.71958
2.72487
2.73028
2.73586
2.74153
2.74728
2.75311
2.75908
2.76517
2.77136
2.77757
2.78373
2.78981
2.79575
2.80154
2.80711
2.62826
2.62908
2.62994
2.63083
2.63176
2.63271
2.6337
2.63472
2.63578
2.63688
2.63802
2.63922
2.64049
2.64186
2.64337
2.64506
2.64698
2.64917
2.6517
2.6546
2.65793
2.66173
2.66603
2.67068
2.6752
2.67896
2.68262
2.68662
2.69056
2.69451
2.69924
2.70465
2.70999
2.71539
2.72075
2.72623
2.73185
2.73766
2.74357
2.74957
2.75566
2.7619
2.7683
2.7748
2.78133
2.78782
2.79423
2.80052
2.80665
2.81256
2.62631
2.62716
2.62805
2.62898
2.62994
2.63093
2.63196
2.63303
2.63413
2.63527
2.63646
2.63772
2.63904
2.64048
2.64205
2.6438
2.64578
2.64803
2.65061
2.65355
2.65688
2.66064
2.66483
2.66931
2.67368
2.67748
2.68122
2.68524
2.68942
2.69391
2.69923
2.70509
2.71072
2.71632
2.72187
2.72753
2.73337
2.73941
2.74557
2.75182
2.75818
2.76471
2.77141
2.77823
2.7851
2.79194
2.7987
2.80535
2.81183
2.81811
2.62436
2.62524
2.62617
2.62713
2.62812
2.62915
2.63022
2.63132
2.63247
2.63366
2.6349
2.63621
2.63759
2.63908
2.64072
2.64253
2.64457
2.64688
2.6495
2.65247
2.6558
2.65951
2.66357
2.66789
2.67215
2.67598
2.67973
2.68373
2.68815
2.69319
2.69913
2.70544
2.71138
2.71719
2.72292
2.72877
2.73482
2.7411
2.74752
2.75403
2.76066
2.76749
2.77451
2.78166
2.78888
2.79608
2.80321
2.81023
2.8171
2.82376
2.62241
2.62332
2.62428
2.62527
2.6263
2.62736
2.62847
2.62962
2.6308
2.63204
2.63333
2.63469
2.63613
2.63768
2.63938
2.64125
2.64335
2.64571
2.64837
2.65136
2.65468
2.65833
2.66229
2.66646
2.67063
2.67447
2.67818
2.68214
2.6868
2.69239
2.69893
2.7057
2.71196
2.71798
2.7239
2.72994
2.73621
2.74273
2.74941
2.75618
2.7631
2.77023
2.77758
2.78509
2.79267
2.80024
2.80776
2.81517
2.82243
2.82949
2.62046
2.6214
2.62238
2.62341
2.62447
2.62557
2.62671
2.6279
2.62913
2.63041
2.63175
2.63316
2.63466
2.63627
2.63802
2.63995
2.6421
2.64451
2.64721
2.65021
2.65352
2.65712
2.66098
2.66504
2.66914
2.67299
2.67663
2.68053
2.68544
2.69155
2.69866
2.70587
2.71244
2.71869
2.7248
2.73103
2.73753
2.7443
2.75123
2.75828
2.76549
2.77293
2.78062
2.78849
2.79645
2.80442
2.81234
2.82016
2.82784
2.83532
2.61851
2.61948
2.62049
2.62154
2.62263
2.62377
2.62494
2.62617
2.62744
2.62877
2.63015
2.63161
2.63316
2.63483
2.63664
2.63862
2.64083
2.64328
2.64601
2.64903
2.65233
2.65589
2.65966
2.66363
2.66771
2.67156
2.6751
2.67896
2.68412
2.6907
2.69832
2.70596
2.71283
2.7193
2.7256
2.73204
2.73877
2.74579
2.75299
2.76032
2.76783
2.77559
2.78363
2.79188
2.80023
2.8086
2.81694
2.82519
2.83331
2.84124
2.61656
2.61755
2.61859
2.61967
2.62079
2.62195
2.62317
2.62443
2.62574
2.6271
2.62853
2.63004
2.63164
2.63336
2.63522
2.63726
2.63951
2.64201
2.64477
2.6478
2.6511
2.65462
2.65833
2.66225
2.66632
2.67017
2.67365
2.67751
2.68291
2.68988
2.69794
2.70595
2.71312
2.71981
2.72631
2.73296
2.73992
2.7472
2.75467
2.76229
2.7701
2.7782
2.7866
2.79523
2.80399
2.81279
2.82157
2.83027
2.83885
2.84725
2.61461
2.61562
2.61668
2.61779
2.61894
2.62013
2.62137
2.62267
2.62401
2.62542
2.62689
2.62844
2.63009
2.63185
2.63376
2.63585
2.63815
2.64068
2.64348
2.64653
2.64982
2.65332
2.657
2.66088
2.66497
2.66884
2.6723
2.67621
2.68184
2.68912
2.69752
2.70585
2.7133
2.72022
2.72693
2.73378
2.74097
2.74852
2.75627
2.76418
2.7723
2.78074
2.78951
2.79855
2.80773
2.81697
2.8262
2.83538
2.84444
2.85333
2.61266
2.61369
2.61477
2.6159
2.61707
2.61829
2.61956
2.62089
2.62226
2.6237
2.62521
2.6268
2.62849
2.6303
2.63225
2.63439
2.63672
2.6393
2.64212
2.64519
2.6485
2.65199
2.65565
2.65953
2.66365
2.66758
2.67107
2.67509
2.68093
2.68843
2.69707
2.70568
2.71338
2.72053
2.72743
2.73449
2.74193
2.74974
2.75778
2.76598
2.77442
2.78321
2.79236
2.80181
2.81144
2.82114
2.83085
2.84051
2.85008
2.85949
2.6107
2.61176
2.61286
2.61401
2.6152
2.61644
2.61774
2.61908
2.62049
2.62196
2.6235
2.62512
2.62685
2.62869
2.63068
2.63285
2.63523
2.63783
2.64068
2.64378
2.6471
2.65061
2.65428
2.65819
2.66236
2.66637
2.66998
2.67416
2.68016
2.68779
2.69659
2.70542
2.71336
2.72072
2.72782
2.7351
2.74278
2.75086
2.75919
2.76769
2.77645
2.7856
2.79515
2.80503
2.81511
2.82529
2.83549
2.84567
2.85576
2.86571
2.60875
2.60982
2.61094
2.6121
2.61331
2.61458
2.61589
2.61726
2.61868
2.62017
2.62174
2.62339
2.62515
2.62702
2.62904
2.63124
2.63364
2.63627
2.63915
2.64228
2.64563
2.64918
2.65289
2.65685
2.66109
2.66521
2.669
2.67338
2.6795
2.68719
2.69609
2.70509
2.71324
2.72079
2.7281
2.73559
2.74351
2.75186
2.76048
2.76929
2.77839
2.78789
2.79785
2.80818
2.81873
2.8294
2.84011
2.85083
2.86148
2.87199
2.6068
2.60788
2.60901
2.61019
2.61141
2.61269
2.61402
2.6154
2.61684
2.61835
2.61994
2.62161
2.62338
2.62528
2.62732
2.62954
2.63196
2.63462
2.63752
2.64068
2.64408
2.64769
2.65149
2.65552
2.65984
2.66409
2.66811
2.6727
2.67891
2.6866
2.69553
2.70467
2.713
2.72075
2.72825
2.73596
2.74412
2.75275
2.76166
2.77078
2.78021
2.79009
2.80047
2.81124
2.82228
2.83346
2.84471
2.85598
2.86721
2.87832
2.60485
2.60594
2.60707
2.60826
2.6095
2.61078
2.61212
2.61352
2.61497
2.61649
2.61809
2.61977
2.62156
2.62347
2.62552
2.62775
2.63018
2.63285
2.63578
2.63898
2.64244
2.64614
2.65005
2.6542
2.6586
2.66299
2.66725
2.67205
2.67833
2.68598
2.69492
2.70417
2.71266
2.72059
2.72828
2.73619
2.7446
2.7535
2.76271
2.77215
2.78191
2.79217
2.80297
2.81422
2.82576
2.83747
2.84927
2.86112
2.87295
2.88469
2.60289
2.60399
2.60513
2.60633
2.60757
2.60886
2.61021
2.61161
2.61307
2.61459
2.61619
2.61788
2.61967
2.62158
2.62363
2.62586
2.6283
2.63098
2.63393
2.63717
2.64071
2.64453
2.64859
2.65287
2.65736
2.66188
2.66637
2.67137
2.67768
2.68529
2.69423
2.70356
2.7122
2.72029
2.72817
2.73629
2.74494
2.75412
2.76362
2.77337
2.78348
2.79413
2.80537
2.81709
2.82915
2.8414
2.85378
2.86622
2.87868
2.89107
2.60093
2.60203
2.60318
2.60438
2.60563
2.60692
2.60827
2.60967
2.61113
2.61266
2.61425
2.61594
2.61772
2.61962
2.62167
2.62389
2.62633
2.62901
2.63197
2.63526
2.63889
2.64285
2.64708
2.65152
2.65611
2.66075
2.66542
2.67058
2.67692
2.6845
2.69343
2.70284
2.71161
2.71986
2.72791
2.73624
2.74513
2.75458
2.76438
2.77445
2.78491
2.79595
2.80763
2.81985
2.83243
2.84525
2.85821
2.87128
2.88439
2.89746
2.59898
2.60008
2.60123
2.60242
2.60367
2.60496
2.60631
2.60771
2.60916
2.61068
2.61227
2.61395
2.61572
2.61761
2.61964
2.62185
2.62427
2.62694
2.62993
2.63326
2.63699
2.6411
2.64554
2.65014
2.65483
2.65955
2.66436
2.66964
2.67602
2.68358
2.69252
2.702
2.71088
2.71928
2.72751
2.73603
2.74516
2.75488
2.76498
2.77536
2.78617
2.79761
2.80974
2.82246
2.83559
2.84898
2.86256
2.87627
2.89006
2.90384
2.59702
2.59812
2.59926
2.60046
2.6017
2.60299
2.60433
2.60572
2.60717
2.60868
2.61026
2.61192
2.61367
2.61554
2.61755
2.61974
2.62214
2.62481
2.62781
2.6312
2.63502
2.6393
2.64393
2.64871
2.65348
2.65826
2.66316
2.66853
2.67495
2.68251
2.69147
2.70102
2.71001
2.71855
2.72694
2.73566
2.74502
2.75501
2.7654
2.7761
2.78726
2.7991
2.81169
2.82493
2.83861
2.85259
2.86679
2.88117
2.89567
2.91019
2.59506
2.59615
2.5973
2.59849
2.59972
2.60101
2.60234
2.60372
2.60516
2.60665
2.60822
2.60986
2.61159
2.61344
2.61542
2.61758
2.61997
2.62263
2.62565
2.62908
2.63301
2.63744
2.64226
2.6472
2.65206
2.65686
2.6618
2.66723
2.6737
2.68129
2.69027
2.69988
2.70898
2.71765
2.72619
2.7351
2.7447
2.75496
2.76563
2.77665
2.78816
2.8004
2.81346
2.82722
2.84146
2.85605
2.8709
2.88597
2.90119
2.91648
2.5931
2.59419
2.59532
2.59651
2.59774
2.59901
2.60033
2.60171
2.60313
2.60461
2.60616
2.60778
2.60949
2.61131
2.61327
2.61541
2.61777
2.62043
2.62346
2.62694
2.63097
2.63553
2.64051
2.64559
2.65052
2.65532
2.66027
2.66575
2.67227
2.67989
2.68891
2.69858
2.70778
2.71657
2.72527
2.73436
2.74419
2.7547
2.76567
2.77699
2.78885
2.8015
2.81503
2.82931
2.84413
2.85934
2.87485
2.89062
2.9066
2.92269
2.59113
2.59222
2.59335
2.59453
2.59575
2.59701
2.59832
2.59968
2.60109
2.60255
2.60408
2.60568
2.60737
2.60917
2.6111
2.61322
2.61557
2.61822
2.62127
2.6248
2.6289
2.63358
2.63868
2.64387
2.64885
2.65364
2.65857
2.66409
2.67068
2.67833
2.68738
2.69711
2.70639
2.71531
2.72415
2.73343
2.74347
2.75424
2.76548
2.77711
2.78932
2.80238
2.81638
2.83119
2.8466
2.86243
2.87861
2.89511
2.91187
2.92879
2.58917
2.59025
2.59137
2.59254
2.59375
2.595
2.5963
2.59765
2.59904
2.60049
2.602
2.60358
2.60525
2.60702
2.60894
2.61103
2.61337
2.61602
2.61908
2.62265
2.62681
2.63157
2.63676
2.64203
2.64704
2.65181
2.65672
2.66228
2.66892
2.67661
2.68567
2.69545
2.70483
2.71386
2.72284
2.73228
2.74253
2.75355
2.76507
2.777
2.78955
2.80301
2.81749
2.83283
2.84883
2.8653
2.88217
2.89941
2.91697
2.93475
2.58721
2.58828
2.58939
2.59055
2.59175
2.59299
2.59427
2.59561
2.59699
2.59842
2.59991
2.60148
2.60312
2.60488
2.60678
2.60886
2.61119
2.61384
2.61691
2.62051
2.62471
2.62952
2.63475
2.64005
2.64507
2.64983
2.65472
2.66031
2.66701
2.67472
2.68379
2.69361
2.70307
2.7122
2.72131
2.73091
2.74137
2.75263
2.76441
2.77663
2.78952
2.80338
2.81832
2.83421
2.85079
2.86791
2.88548
2.90348
2.92186
2.94052
2.58524
2.5863
2.58741
2.58855
2.58974
2.59097
2.59224
2.59356
2.59493
2.59634
2.59782
2.59937
2.601
2.60274
2.60463
2.6067
2.60902
2.61167
2.61476
2.61837
2.62259
2.62741
2.63264
2.63794
2.64296
2.6477
2.65259
2.65822
2.66496
2.67268
2.68174
2.69158
2.70111
2.71034
2.71957
2.72932
2.73997
2.75146
2.76349
2.77599
2.7892
2.80346
2.81887
2.83529
2.85247
2.87023
2.88851
2.90728
2.9265
2.94606
2.58328
2.58433
2.58542
2.58655
2.58773
2.58895
2.5902
2.59151
2.59286
2.59426
2.59573
2.59726
2.59888
2.6006
2.60248
2.60454
2.60686
2.60952
2.61261
2.61623
2.62045
2.62524
2.63044
2.6357
2.6407
2.64543
2.65033
2.656
2.66277
2.67047
2.67951
2.68937
2.69895
2.70827
2.7176
2.72749
2.73832
2.75002
2.76229
2.77506
2.78858
2.80322
2.8191
2.83605
2.85382
2.87223
2.89122
2.91077
2.93085
2.95134
2.58131
2.58235
2.58343
2.58455
2.58571
2.58692
2.58816
2.58945
2.59078
2.59217
2.59362
2.59514
2.59674
2.59846
2.60032
2.60238
2.6047
2.60735
2.61044
2.61406
2.61825
2.623
2.62813
2.63333
2.63831
2.64304
2.64796
2.65366
2.66045
2.66812
2.67712
2.68697
2.69659
2.70597
2.71539
2.72541
2.73641
2.74831
2.7608
2.77381
2.78764
2.80265
2.81898
2.83645
2.85481
2.87387
2.89357
2.91391
2.93486
2.95629
2.57935
2.58037
2.58144
2.58255
2.58369
2.58488
2.58611
2.58738
2.5887
2.59007
2.5915
2.59301
2.5946
2.5963
2.59816
2.60021
2.60252
2.60517
2.60825
2.61184
2.616
2.62068
2.62572
2.63085
2.63579
2.64052
2.64547
2.6512
2.65798
2.66561
2.67455
2.68438
2.69402
2.70345
2.71295
2.72308
2.73422
2.7463
2.75899
2.77224
2.78635
2.80172
2.81848
2.83647
2.85541
2.8751
2.89551
2.91665
2.93847
2.96085
2.57738
2.57839
2.57944
2.58053
2.58166
2.58283
2.58404
2.5853
2.5866
2.58795
2.58937
2.59086
2.59243
2.59412
2.59597
2.598
2.60031
2.60294
2.60601
2.60957
2.61367
2.61827
2.62322
2.62826
2.63316
2.6379
2.64287
2.64863
2.65538
2.66294
2.67181
2.6816
2.69125
2.70071
2.71026
2.72047
2.73175
2.74399
2.75686
2.77032
2.78469
2.8004
2.81758
2.83607
2.85557
2.87589
2.89701
2.91892
2.94162
2.96498
2.57541
2.57641
2.57744
2.57851
2.57963
2.58077
2.58197
2.5832
2.58448
2.58581
2.58721
2.58868
2.59024
2.59191
2.59373
2.59576
2.59804
2.60066
2.60369
2.60722
2.61126
2.61577
2.62062
2.62557
2.63042
2.63516
2.64017
2.64593
2.65264
2.66012
2.66889
2.67863
2.68826
2.69773
2.70731
2.7176
2.72898
2.74135
2.75438
2.76802
2.78264
2.79866
2.81625
2.83521
2.85525
2.87619
2.89799
2.92068
2.94426
2.96859
2.57345
2.57442
2.57543
2.57649
2.57758
2.5787
2.57987
2.58108
2.58234
2.58365
2.58502
2.58647
2.588
2.58965
2.59145
2.59345
2.59571
2.5983
2.6013
2.60478
2.60875
2.61318
2.61792
2.62278
2.62757
2.63232
2.63736
2.64311
2.64975
2.65713
2.6658
2.67546
2.68505
2.69451
2.70411
2.71443
2.7259
2.73838
2.75153
2.76533
2.78016
2.79648
2.81444
2.83386
2.85442
2.87594
2.89841
2.92187
2.94631
2.97161
2.57148
2.57243
2.57342
2.57445
2.57552
2.57662
2.57776
2.57895
2.58018
2.58146
2.5828
2.58422
2.58572
2.58734
2.58911
2.59108
2.59331
2.59586
2.59881
2.60223
2.60614
2.61049
2.61513
2.61989
2.62463
2.62937
2.63442
2.64016
2.64671
2.65398
2.66253
2.67209
2.68162
2.69104
2.70063
2.71097
2.72249
2.73505
2.7483
2.76223
2.77724
2.79383
2.81214
2.83197
2.85302
2.8751
2.89821
2.92241
2.94771
2.97397
2.56951
2.57044
2.5714
2.57241
2.57345
2.57452
2.57563
2.57679
2.57798
2.57923
2.58054
2.58192
2.58339
2.58498
2.58671
2.58864
2.59082
2.59332
2.59623
2.59959
2.60344
2.6077
2.61225
2.61691
2.62159
2.62632
2.63137
2.63706
2.64351
2.65065
2.65907
2.66852
2.67796
2.68732
2.69687
2.70721
2.71876
2.73136
2.74467
2.75869
2.77386
2.79067
2.80929
2.82951
2.85101
2.87361
2.89733
2.92224
2.94836
2.97557
2.56754
2.56844
2.56938
2.57035
2.57136
2.57241
2.57348
2.5746
2.57577
2.57698
2.57825
2.57959
2.58102
2.58256
2.58424
2.58612
2.58825
2.5907
2.59355
2.59685
2.60063
2.60482
2.60928
2.61385
2.61845
2.62315
2.62818
2.6338
2.64014
2.64715
2.65542
2.66474
2.67406
2.68334
2.69283
2.70313
2.71467
2.72729
2.74062
2.75469
2.76997
2.78698
2.80587
2.82643
2.84833
2.87141
2.89569
2.92127
2.9482
2.97633
2.56556
2.56644
2.56735
2.56829
2.56927
2.57027
2.57132
2.5724
2.57352
2.57469
2.57592
2.57721
2.57859
2.58008
2.58171
2.58354
2.58561
2.58799
2.59078
2.59402
2.59773
2.60185
2.60622
2.6107
2.61521
2.61986
2.62485
2.63039
2.6366
2.64346
2.65158
2.66074
2.66993
2.67909
2.68849
2.69873
2.71023
2.72282
2.73613
2.75022
2.76557
2.78272
2.80184
2.82269
2.84494
2.86844
2.89323
2.91944
2.94712
2.97615
2.56359
2.56444
2.56531
2.56622
2.56716
2.56813
2.56913
2.57017
2.57125
2.57237
2.57355
2.57479
2.57612
2.57755
2.57913
2.58088
2.58289
2.58521
2.58793
2.59111
2.59476
2.5988
2.60308
2.60746
2.61187
2.61645
2.62137
2.62681
2.63288
2.63959
2.64753
2.65652
2.66556
2.67458
2.68385
2.694
2.70542
2.71794
2.73119
2.74525
2.76063
2.77788
2.79716
2.81824
2.84078
2.86464
2.88989
2.91667
2.94505
2.97493
2.56162
2.56243
2.56327
2.56414
2.56504
2.56597
2.56693
2.56792
2.56895
2.57002
2.57115
2.57234
2.5736
2.57497
2.57648
2.57818
2.58011
2.58237
2.58502
2.58813
2.59171
2.59567
2.59986
2.60413
2.60844
2.61292
2.61774
2.62307
2.62898
2.63553
2.64328
2.65207
2.66093
2.66979
2.67891
2.68893
2.70024
2.71264
2.72579
2.73977
2.75512
2.77241
2.7918
2.81305
2.8358
2.85995
2.88558
2.91286
2.94188
2.97256
2.55964
2.56042
2.56122
2.56205
2.56291
2.56379
2.56471
2.56565
2.56663
2.56765
2.56872
2.56984
2.57105
2.57235
2.57379
2.57542
2.57728
2.57946
2.58205
2.58509
2.58859
2.59248
2.59657
2.60072
2.60491
2.60927
2.61397
2.61915
2.62491
2.63127
2.63882
2.64739
2.65605
2.66471
2.67366
2.68352
2.69467
2.70691
2.7199
2.73375
2.74902
2.76629
2.78573
2.80706
2.82995
2.8543
2.88023
2.90794
2.93753
2.96894
2.55767
2.55841
2.55917
2.55996
2.56077
2.56161
2.56247
2.56336
2.56428
2.56525
2.56625
2.56732
2.56846
2.56969
2.57106
2.57261
2.57441
2.57652
2.57903
2.58199
2.58542
2.58921
2.5932
2.59723
2.60128
2.6055
2.61005
2.61508
2.62066
2.62683
2.63414
2.64247
2.6509
2.65935
2.66809
2.67776
2.68871
2.70074
2.71351
2.72718
2.74232
2.75951
2.77891
2.80024
2.82318
2.84764
2.87378
2.90181
2.93188
2.96396
2.5557
2.5564
2.55712
2.55786
2.55863
2.55941
2.56022
2.56106
2.56192
2.56282
2.56376
2.56476
2.56583
2.567
2.5683
2.56977
2.57149
2.57352
2.57596
2.57885
2.58219
2.58589
2.58976
2.59365
2.59756
2.60161
2.60601
2.61086
2.61624
2.6222
2.62926
2.63731
2.64549
2.6537
2.66221
2.67164
2.68235
2.69411
2.70663
2.72005
2.73499
2.75202
2.7713
2.79255
2.81543
2.8399
2.86614
2.89441
2.92485
2.9575
2.55372
2.55439
2.55506
2.55576
2.55647
2.5572
2.55796
2.55873
2.55954
2.56037
2.56125
2.56218
2.56318
2.56427
2.56549
2.56689
2.56853
2.57049
2.57285
2.57567
2.57892
2.58251
2.58625
2.59
2.59375
2.59763
2.60184
2.6065
2.61168
2.61739
2.62415
2.6319
2.63981
2.64776
2.656
2.66517
2.67559
2.68703
2.69922
2.71235
2.72702
2.74382
2.76289
2.78394
2.80666
2.83102
2.85725
2.88563
2.91634
2.94944
2.55175
2.55239
2.55301
2.55365
2.55431
2.55498
2.55568
2.55639
2.55713
2.5579
2.55871
2.55956
2.56049
2.5615
2.56264
2.56397
2.56553
2.56742
2.5697
2.57243
2.57559
2.57907
2.58268
2.58628
2.58986
2.59356
2.59757
2.60203
2.60697
2.61241
2.61884
2.62625
2.63386
2.64152
2.64948
2.65834
2.66842
2.67948
2.6913
2.70407
2.71839
2.73487
2.75364
2.77438
2.79682
2.82095
2.84704
2.8754
2.90625
2.93969
2.54987
2.55044
2.55096
2.55154
2.55214
2.55275
2.55339
2.55404
2.55471
2.55541
2.55614
2.55692
2.55777
2.5587
2.55976
2.561
2.56249
2.5643
2.56651
2.56915
2.57222
2.57557
2.57905
2.58249
2.58589
2.5894
2.59322
2.59746
2.60214
2.60727
2.61333
2.62035
2.62764
2.63499
2.64264
2.65115
2.66084
2.67148
2.68286
2.6952
2.70911
2.72518
2.74353
2.76385
2.78587
2.80964
2.83545
2.86365
2.89449
2.92813
2.54807
2.5485
2.54894
2.54945
2.54999
2.55053
2.5511
2.55167
2.55227
2.55289
2.55355
2.55425
2.55501
2.55586
2.55684
2.558
2.5594
2.56113
2.56327
2.56583
2.5688
2.57204
2.57537
2.57865
2.58187
2.58519
2.5888
2.5928
2.5972
2.60198
2.60762
2.61422
2.62116
2.62818
2.63548
2.64362
2.65286
2.66301
2.6739
2.68575
2.69916
2.71472
2.73254
2.7523
2.77378
2.79704
2.82242
2.8503
2.88097
2.91464
2.54611
2.54646
2.54686
2.54734
2.54781
2.54829
2.54878
2.54929
2.54981
2.55036
2.55093
2.55155
2.55222
2.55299
2.55388
2.55495
2.55627
2.55793
2.55998
2.56247
2.56534
2.56846
2.57165
2.57476
2.57781
2.58093
2.58433
2.58808
2.59217
2.59656
2.60173
2.60787
2.61442
2.62108
2.62802
2.63573
2.64448
2.65409
2.66443
2.67571
2.68854
2.7035
2.72066
2.73974
2.76051
2.78311
2.8079
2.83529
2.86562
2.89912
2.54397
2.54431
2.5447
2.54513
2.54556
2.54599
2.54642
2.54686
2.54731
2.54778
2.54828
2.54881
2.5494
2.55007
2.55088
2.55186