/*--------------------------------*- C++ -*----------------------------------*\
  =========                 |
  \\      /  F ield         | OpenFOAM: The Open Source CFD Toolbox
   \\    /   O peration     | Website:  https://openfoam.org
    \\  /    A nd           | Version:  9
     \\/     M anipulation  |
\*---------------------------------------------------------------------------*/
FoamFile
{
    format      ascii;
    class       surfaceScalarField;
    location    "0.14";
    object      phi;
}
// * * * * * * * * * * * * * * * * * * * * * * * * * * * * * * * * * * * * * //

dimensions      [0 3 -1 0 0 0 0];

internalField   nonuniform List<scalar> 
9850
(
-4.46909e-08
2.43677e-06
-4.46295e-08
2.55271e-06
-4.45776e-08
2.6728e-06
-4.45206e-08
2.79747e-06
-4.44521e-08
2.92698e-06
-4.43754e-08
3.06152e-06
-4.43031e-08
3.2014e-06
-4.4257e-08
3.34736e-06
-4.42616e-08
3.50111e-06
-4.43185e-08
3.66608e-06
-4.43546e-08
3.8482e-06
-4.4177e-08
4.05595e-06
-4.35225e-08
4.2986e-06
-4.22473e-08
4.58254e-06
-4.05095e-08
4.90784e-06
-3.87129e-08
5.26826e-06
-3.72348e-08
5.65497e-06
-3.6234e-08
6.06113e-06
-3.56749e-08
6.48397e-06
-3.54702e-08
6.92426e-06
-3.5645e-08
7.38494e-06
-3.65971e-08
7.87035e-06
-3.95078e-08
8.38421e-06
-4.51518e-08
8.90239e-06
-3.96794e-08
9.23459e-06
2.07845e-08
8.42426e-06
-1.1096e-07
5.46304e-06
-4.92409e-08
9.01839e-06
-4.42629e-08
1.12071e-05
-5.07345e-08
1.18732e-05
-5.32861e-08
1.42484e-05
-5.29012e-08
1.38879e-05
-5.15139e-08
1.3518e-05
-4.93251e-08
1.31399e-05
-4.71307e-08
1.284e-05
-4.57807e-08
1.27235e-05
-4.53446e-08
1.2742e-05
-4.53147e-08
1.27614e-05
-4.50762e-08
1.27381e-05
-4.45906e-08
1.27283e-05
-4.41487e-08
1.27866e-05
-4.4066e-08
1.28926e-05
-4.43258e-08
1.29907e-05
-4.46987e-08
1.30517e-05
-4.50094e-08
1.30772e-05
-4.52178e-08
1.30791e-05
-4.53431e-08
1.30679e-05
-4.54179e-08
1.30493e-05
-4.54508e-08
1.30255e-05
1.29972e-05
-4.32271e-08
2.43653e-06
-4.30713e-08
2.55256e-06
-4.29322e-08
2.67266e-06
-4.27772e-08
2.79731e-06
-4.25871e-08
2.92679e-06
-4.23613e-08
3.0613e-06
-4.21143e-08
3.20115e-06
-4.18724e-08
3.34712e-06
-4.16615e-08
3.5009e-06
-4.14686e-08
3.66588e-06
-4.11728e-08
3.8479e-06
-4.04874e-08
4.05527e-06
-3.90215e-08
4.29713e-06
-3.65289e-08
4.58005e-06
-3.31537e-08
4.90447e-06
-2.94821e-08
5.26459e-06
-2.6187e-08
5.65168e-06
-2.37177e-08
6.05866e-06
-2.22292e-08
6.48248e-06
-2.17493e-08
6.92378e-06
-2.24564e-08
7.38564e-06
-2.50132e-08
7.8729e-06
-3.0332e-08
8.38953e-06
-3.44752e-08
8.90653e-06
-1.75665e-08
9.21769e-06
4.2479e-08
8.36421e-06
-1.34082e-07
5.6396e-06
-7.00241e-08
8.95434e-06
-5.02732e-08
1.11873e-05
-5.78049e-08
1.18807e-05
-6.4646e-08
1.42552e-05
-6.44352e-08
1.38877e-05
-6.13214e-08
1.35149e-05
-5.65103e-08
1.31351e-05
-5.17793e-08
1.28352e-05
-4.8487e-08
1.27202e-05
-4.68186e-08
1.27403e-05
-4.60813e-08
1.27607e-05
-4.53212e-08
1.27373e-05
-4.42776e-08
1.27272e-05
-4.33572e-08
1.27857e-05
-4.30771e-08
1.28923e-05
-4.34991e-08
1.29911e-05
-4.42523e-08
1.30525e-05
-4.49684e-08
1.30779e-05
-4.54951e-08
1.30796e-05
-4.58323e-08
1.30682e-05
-4.60213e-08
1.30495e-05
-4.60704e-08
1.30255e-05
1.29971e-05
-4.13173e-08
2.43632e-06
-4.11127e-08
2.55235e-06
-4.09074e-08
2.67246e-06
-4.06684e-08
2.79707e-06
-4.03712e-08
2.92649e-06
-4.00109e-08
3.06094e-06
-3.95998e-08
3.20074e-06
-3.91628e-08
3.34668e-06
-3.87227e-08
3.50046e-06
-3.82574e-08
3.66542e-06
-3.76232e-08
3.84727e-06
-3.64887e-08
4.05413e-06
-3.4397e-08
4.29504e-06
-3.10376e-08
4.57669e-06
-2.66034e-08
4.90003e-06
-2.17528e-08
5.25974e-06
-1.73121e-08
5.64724e-06
-1.3888e-08
6.05524e-06
-1.17619e-08
6.48035e-06
-1.10436e-08
6.92307e-06
-1.19071e-08
7.38651e-06
-1.48348e-08
7.87583e-06
-2.07274e-08
8.39543e-06
-2.56407e-08
8.91144e-06
-7.0267e-09
9.19907e-06
5.18193e-08
8.30537e-06
-1.43614e-07
5.83503e-06
-7.93952e-08
8.89012e-06
-5.68713e-08
1.11648e-05
-6.61071e-08
1.18899e-05
-7.39099e-08
1.4263e-05
-7.35514e-08
1.38873e-05
-6.94648e-08
1.35108e-05
-6.29155e-08
1.31285e-05
-5.63282e-08
1.28286e-05
-5.15025e-08
1.27154e-05
-4.87422e-08
1.27376e-05
-4.72647e-08
1.27592e-05
-4.59242e-08
1.2736e-05
-4.43792e-08
1.27257e-05
-4.30725e-08
1.27844e-05
-4.26211e-08
1.28918e-05
-4.31092e-08
1.29916e-05
-4.40828e-08
1.30534e-05
-4.50609e-08
1.30789e-05
-4.58155e-08
1.30804e-05
-4.63111e-08
1.30687e-05
-4.65811e-08
1.30498e-05
-4.66284e-08
1.30256e-05
1.29968e-05
-3.92104e-08
2.43611e-06
-3.8979e-08
2.55212e-06
-3.87256e-08
2.6722e-06
-3.84202e-08
2.79677e-06
-3.80367e-08
2.92611e-06
-3.75679e-08
3.06047e-06
-3.7024e-08
3.2002e-06
-3.64266e-08
3.34609e-06
-3.57922e-08
3.49982e-06
-3.50859e-08
3.66471e-06
-3.41429e-08
3.84633e-06
-3.26043e-08
4.05259e-06
-2.99839e-08
4.29242e-06
-2.59522e-08
4.57266e-06
-2.06942e-08
4.89478e-06
-1.49343e-08
5.25398e-06
-9.60688e-09
5.64191e-06
-5.43411e-09
6.05107e-06
-2.77937e-09
6.4777e-06
-1.80171e-09
6.92209e-06
-2.73415e-09
7.38744e-06
-6.16018e-09
7.87926e-06
-1.34211e-08
8.40269e-06
-2.08264e-08
8.91885e-06
-2.49137e-09
9.18074e-06
5.26329e-08
8.25024e-06
-1.42052e-07
6.02972e-06
-8.39535e-08
8.83202e-06
-6.09161e-08
1.11418e-05
-7.34496e-08
1.19025e-05
-8.23541e-08
1.42719e-05
-8.17654e-08
1.38867e-05
-7.67819e-08
1.35058e-05
-6.87152e-08
1.31205e-05
-6.05379e-08
1.28205e-05
-5.44322e-08
1.27093e-05
-5.07951e-08
1.27339e-05
-4.86976e-08
1.27571e-05
-4.68127e-08
1.27341e-05
-4.47588e-08
1.27236e-05
-4.30727e-08
1.27827e-05
-4.24601e-08
1.28912e-05
-4.29985e-08
1.29921e-05
-4.4143e-08
1.30546e-05
-4.53186e-08
1.308e-05
-4.62395e-08
1.30813e-05
-4.6849e-08
1.30693e-05
-4.71734e-08
1.30501e-05
-4.72086e-08
1.30256e-05
1.29965e-05
-3.70192e-08
2.4359e-06
-3.67709e-08
2.55187e-06
-3.64792e-08
2.67191e-06
-3.6119e-08
2.79641e-06
-3.56647e-08
2.92566e-06
-3.51066e-08
3.05991e-06
-3.44506e-08
3.19954e-06
-3.3713e-08
3.34535e-06
-3.29017e-08
3.49901e-06
-3.19711e-08
3.66378e-06
-3.07463e-08
3.8451e-06
-2.88642e-08
4.05071e-06
-2.58375e-08
4.2894e-06
-2.13268e-08
4.56815e-06
-1.549e-08
4.88894e-06
-9.06195e-09
5.24755e-06
-3.04107e-09
5.63589e-06
1.74941e-09
6.04628e-06
4.84768e-09
6.4746e-06
6.00862e-09
6.92093e-06
4.87009e-09
7.38858e-06
6.92236e-10
7.88344e-06
-7.97196e-09
8.41135e-06
-1.76061e-08
8.92848e-06
-2.01994e-10
9.16333e-06
4.75927e-08
8.20245e-06
-1.34501e-07
6.21181e-06
-8.6579e-08
8.78409e-06
-6.43832e-08
1.11196e-05
-7.96739e-08
1.19178e-05
-8.96573e-08
1.42819e-05
-8.91477e-08
1.38862e-05
-8.33499e-08
1.35e-05
-7.39843e-08
1.31111e-05
-6.45154e-08
1.2811e-05
-5.73588e-08
1.27021e-05
-5.29565e-08
1.27295e-05
-5.0281e-08
1.27545e-05
-4.78951e-08
1.27317e-05
-4.53945e-08
1.27211e-05
-4.33688e-08
1.27807e-05
-4.25949e-08
1.28904e-05
-4.31469e-08
1.29927e-05
-4.44108e-08
1.30558e-05
-4.57327e-08
1.30814e-05
-4.6777e-08
1.30823e-05
-4.74674e-08
1.307e-05
-4.78231e-08
1.30505e-05
-4.78327e-08
1.30256e-05
1.29961e-05
-3.48247e-08
2.4357e-06
-3.45657e-08
2.55161e-06
-3.4243e-08
2.67159e-06
-3.38354e-08
2.796e-06
-3.33195e-08
2.92514e-06
-3.26832e-08
3.05927e-06
-3.19286e-08
3.19879e-06
-3.10664e-08
3.34449e-06
-3.0098e-08
3.49804e-06
-2.89714e-08
3.66266e-06
-2.75105e-08
3.84364e-06
-2.53588e-08
4.04856e-06
-2.20374e-08
4.28608e-06
-1.71988e-08
4.56331e-06
-1.09694e-08
4.88271e-06
-4.06592e-09
5.24065e-06
2.47908e-09
5.62935e-06
7.75816e-09
6.041e-06
1.12089e-08
6.47115e-06
1.24986e-08
6.91964e-06
1.11571e-08
7.38992e-06
6.29708e-09
7.8883e-06
-3.46242e-09
8.42111e-06
-1.48897e-08
8.93991e-06
1.29131e-09
9.14715e-06
4.16497e-08
8.16209e-06
-1.26819e-07
6.38028e-06
-8.85921e-08
8.74587e-06
-6.78305e-08
1.10988e-05
-8.52821e-08
1.19352e-05
-9.60405e-08
1.42927e-05
-9.57402e-08
1.38859e-05
-8.92212e-08
1.34935e-05
-7.87935e-08
1.31007e-05
-6.83086e-08
1.28005e-05
-6.03029e-08
1.26941e-05
-5.52195e-08
1.27245e-05
-5.1993e-08
1.27512e-05
-4.91461e-08
1.27289e-05
-4.6258e-08
1.27183e-05
-4.39435e-08
1.27784e-05
-4.301e-08
1.28895e-05
-4.3541e-08
1.29932e-05
-4.48773e-08
1.30572e-05
-4.63009e-08
1.30828e-05
-4.74328e-08
1.30835e-05
-4.81768e-08
1.30708e-05
-4.85438e-08
1.30508e-05
-4.85151e-08
1.30256e-05
1.29956e-05
-3.27198e-08
2.43551e-06
-3.24542e-08
2.55135e-06
-3.21069e-08
2.67124e-06
-3.16595e-08
2.79555e-06
-3.10906e-08
2.92457e-06
-3.03876e-08
3.05857e-06
-2.95496e-08
3.19795e-06
-2.85836e-08
3.34352e-06
-2.7486e-08
3.49695e-06
-2.62009e-08
3.66137e-06
-2.45529e-08
3.84199e-06
-2.21936e-08
4.0462e-06
-1.86527e-08
4.28253e-06
-1.3575e-08
4.55824e-06
-7.05539e-09
4.87619e-06
2.14185e-10
5.23338e-06
7.18258e-09
5.62238e-06
1.28732e-08
6.03531e-06
1.66396e-08
6.46738e-06
1.80828e-08
6.9182e-06
1.66551e-08
7.39135e-06
1.12644e-08
7.89369e-06
5.47917e-10
8.43183e-06
-1.22852e-08
8.95274e-06
3.00271e-09
9.13186e-06
3.65651e-08
8.12852e-06
-1.20507e-07
6.53735e-06
-9.09685e-08
8.71633e-06
-7.13618e-08
1.10792e-05
-9.05656e-08
1.19544e-05
-1.01988e-07
1.43041e-05
-1.01811e-07
1.38858e-05
-9.45597e-08
1.34862e-05
-8.32272e-08
1.30893e-05
-7.19189e-08
1.27892e-05
-6.32214e-08
1.26854e-05
-5.75408e-08
1.27188e-05
-5.38079e-08
1.27475e-05
-5.05458e-08
1.27256e-05
-4.73226e-08
1.2715e-05
-4.47488e-08
1.27758e-05
-4.3657e-08
1.28884e-05
-4.41476e-08
1.29937e-05
-4.55273e-08
1.30586e-05
-4.70215e-08
1.30843e-05
-4.82131e-08
1.30847e-05
-4.89882e-08
1.30715e-05
-4.93499e-08
1.30512e-05
-4.92721e-08
1.30255e-05
1.2995e-05
-3.07883e-08
2.43532e-06
-3.05188e-08
2.55108e-06
-3.01531e-08
2.67088e-06
-2.96733e-08
2.79507e-06
-2.90607e-08
2.92396e-06
-2.83029e-08
3.05781e-06
-2.73972e-08
3.19705e-06
-2.63473e-08
3.34247e-06
-2.51455e-08
3.49575e-06
-2.37326e-08
3.65996e-06
-2.19344e-08
3.8402e-06
-1.94098e-08
4.04368e-06
-1.56972e-08
4.27882e-06
-1.04335e-08
4.55297e-06
-3.68201e-09
4.86944e-06
3.89705e-09
5.2258e-06
1.12459e-08
5.61503e-06
1.73306e-08
6.02923e-06
2.14339e-08
6.46328e-06
2.30999e-08
6.91653e-06
2.17146e-08
7.39273e-06
1.59337e-08
7.89947e-06
4.36357e-09
8.4434e-06
-9.23861e-09
8.96634e-06
5.76405e-09
9.11686e-06
3.23462e-08
8.10194e-06
-1.15072e-07
6.68477e-06
-9.44099e-08
8.69566e-06
-7.54251e-08
1.10602e-05
-9.57163e-08
1.19747e-05
-1.07842e-07
1.43162e-05
-1.07601e-07
1.38855e-05
-9.95349e-08
1.34781e-05
-8.73617e-08
1.30772e-05
-7.5345e-08
1.27772e-05
-6.60715e-08
1.26762e-05
-5.9874e-08
1.27126e-05
-5.569e-08
1.27433e-05
-5.20607e-08
1.2722e-05
-4.85433e-08
1.27115e-05
-4.57377e-08
1.2773e-05
-4.44923e-08
1.28872e-05
-4.49355e-08
1.29941e-05
-4.63439e-08
1.306e-05
-4.78908e-08
1.30858e-05
-4.91225e-08
1.30859e-05
-4.9911e-08
1.30723e-05
-5.02535e-08
1.30515e-05
-5.01174e-08
1.30254e-05
1.29943e-05
-2.90871e-08
2.43513e-06
-2.88143e-08
2.5508e-06
-2.84343e-08
2.6705e-06
-2.79283e-08
2.79457e-06
-2.72796e-08
2.92331e-06
-2.64763e-08
3.05701e-06
-2.55144e-08
3.19608e-06
-2.43945e-08
3.34135e-06
-2.31053e-08
3.49446e-06
-2.15849e-08
3.65844e-06
-1.96609e-08
3.83827e-06
-1.70013e-08
4.04102e-06
-1.31543e-08
4.27498e-06
-7.75113e-09
4.54757e-06
-8.20778e-10
4.86251e-06
7.01853e-09
5.21796e-06
1.47163e-08
5.60733e-06
2.11948e-08
6.02275e-06
2.56737e-08
6.4588e-06
2.76406e-08
6.91456e-06
2.64182e-08
7.39396e-06
2.04241e-08
7.90546e-06
8.26397e-09
8.45555e-06
-5.22129e-09
8.97983e-06
1.00336e-08
9.1016e-06
2.88699e-08
8.0831e-06
-1.101e-07
6.82374e-06
-9.93357e-08
8.6849e-06
-8.06592e-08
1.10415e-05
-1.00974e-07
1.1995e-05
-1.13728e-07
1.4329e-05
-1.13194e-07
1.3885e-05
-1.04233e-07
1.34692e-05
-9.12413e-08
1.30642e-05
-7.85919e-08
1.27645e-05
-6.88332e-08
1.26664e-05
-6.21946e-08
1.27059e-05
-5.76153e-08
1.27387e-05
-5.36636e-08
1.2718e-05
-4.98897e-08
1.27077e-05
-4.68777e-08
1.277e-05
-4.5496e-08
1.28858e-05
-4.589e-08
1.29945e-05
-4.73191e-08
1.30614e-05
-4.89058e-08
1.30874e-05
-5.01629e-08
1.30872e-05
-5.09508e-08
1.30731e-05
-5.12622e-08
1.30519e-05
-5.10587e-08
1.30252e-05
1.29934e-05
-2.76494e-08
2.43494e-06
-2.73728e-08
2.55053e-06
-2.69807e-08
2.6701e-06
-2.64531e-08
2.79404e-06
-2.57741e-08
2.92263e-06
-2.49325e-08
3.05617e-06
-2.3923e-08
3.19507e-06
-2.27437e-08
3.34017e-06
-2.13799e-08
3.49309e-06
-1.9768e-08
3.65683e-06
-1.77385e-08
3.83624e-06
-1.497e-08
4.03825e-06
-1.10235e-08
4.27103e-06
-5.52696e-09
4.54207e-06
1.52442e-09
4.85546e-06
9.56466e-09
5.20992e-06
1.75661e-08
5.59933e-06
2.44249e-08
6.01589e-06
2.93066e-08
6.45392e-06
3.16439e-08
6.91223e-06
3.06979e-08
7.3949e-06
2.47148e-08
7.91144e-06
1.23949e-08
8.46787e-06
9.39657e-13
8.99222e-06
1.58055e-08
9.0858e-06
2.60835e-08
8.07282e-06
-1.05602e-07
6.95542e-06
-1.05825e-07
8.68512e-06
-8.74879e-08
1.10232e-05
-1.06559e-07
1.20141e-05
-1.19633e-07
1.43421e-05
-1.1857e-07
1.38839e-05
-1.08673e-07
1.34593e-05
-9.48868e-08
1.30504e-05
-8.16673e-08
1.27513e-05
-7.15001e-08
1.26562e-05
-6.44956e-08
1.26989e-05
-5.95777e-08
1.27338e-05
-5.53435e-08
1.27138e-05
-5.13467e-08
1.27037e-05
-4.81592e-08
1.27668e-05
-4.66567e-08
1.28843e-05
-4.70076e-08
1.29949e-05
-4.84504e-08
1.30628e-05
-5.00654e-08
1.3089e-05
-5.13351e-08
1.30884e-05
-5.21101e-08
1.30739e-05
-5.23797e-08
1.30521e-05
-5.21002e-08
1.30249e-05
1.29925e-05
-2.64991e-08
2.43475e-06
-2.6218e-08
2.55025e-06
-2.58159e-08
2.6697e-06
-2.52712e-08
2.7935e-06
-2.4568e-08
2.92193e-06
-2.36956e-08
3.0553e-06
-2.26477e-08
3.19403e-06
-2.14203e-08
3.33895e-06
-1.9996e-08
3.49167e-06
-1.83099e-08
3.65514e-06
-1.61963e-08
3.83413e-06
-1.33452e-08
4.0354e-06
-9.33213e-09
4.26702e-06
-3.78556e-09
4.53653e-06
3.33107e-09
4.84834e-06
1.15084e-08
5.20174e-06
1.97568e-08
5.59109e-06
2.69646e-08
6.00868e-06
3.22553e-08
6.44863e-06
3.50114e-08
6.90947e-06
3.44358e-08
7.39548e-06
2.86964e-08
7.91718e-06
1.67294e-08
8.47984e-06
6.32013e-09
9.00263e-06
2.26072e-08
9.06951e-06
2.38691e-08
8.07156e-06
-1.01748e-07
7.08104e-06
-1.13556e-07
8.69693e-06
-9.59178e-08
1.10056e-05
-1.12567e-07
1.20308e-05
-1.2547e-07
1.4355e-05
-1.23678e-07
1.38821e-05
-1.12853e-07
1.34485e-05
-9.83127e-08
1.30358e-05
-8.45812e-08
1.27376e-05
-7.40712e-08
1.26457e-05
-6.6776e-08
1.26916e-05
-6.15795e-08
1.27286e-05
-5.71006e-08
1.27093e-05
-5.29082e-08
1.26995e-05
-4.95726e-08
1.27634e-05
-4.79734e-08
1.28827e-05
-4.82868e-08
1.29952e-05
-4.97369e-08
1.30643e-05
-5.13688e-08
1.30907e-05
-5.26393e-08
1.30897e-05
-5.33902e-08
1.30746e-05
-5.36083e-08
1.30523e-05
-5.32446e-08
1.30245e-05
1.29914e-05
-2.56612e-08
2.43455e-06
-2.53761e-08
2.54996e-06
-2.49666e-08
2.66929e-06
-2.44096e-08
2.79294e-06
-2.36892e-08
2.92121e-06
-2.27945e-08
3.0544e-06
-2.17191e-08
3.19295e-06
-2.0457e-08
3.33768e-06
-1.89888e-08
3.4902e-06
-1.72487e-08
3.6534e-06
-1.50747e-08
3.83196e-06
-1.21683e-08
4.03249e-06
-8.12011e-09
4.26297e-06
-2.56162e-09
4.53097e-06
4.57176e-09
4.84121e-06
1.28267e-08
5.19349e-06
2.12624e-08
5.58265e-06
2.87754e-08
6.00117e-06
3.44596e-08
6.44295e-06
3.76531e-08
6.90628e-06
3.75069e-08
7.39562e-06
3.2211e-08
7.92248e-06
2.10908e-08
8.49096e-06
1.32888e-08
9.01043e-06
2.96466e-08
9.05315e-06
2.20105e-08
8.0792e-06
-9.86811e-08
7.20173e-06
-1.21896e-07
8.72014e-06
-1.05541e-07
1.09892e-05
-1.18927e-07
1.20441e-05
-1.3111e-07
1.43671e-05
-1.28467e-07
1.38795e-05
-1.16766e-07
1.34368e-05
-1.01535e-07
1.30206e-05
-8.73473e-08
1.27234e-05
-7.65505e-08
1.26349e-05
-6.90359e-08
1.26841e-05
-6.36227e-08
1.27232e-05
-5.8937e-08
1.27046e-05
-5.45714e-08
1.26952e-05
-5.11103e-08
1.276e-05
-4.94357e-08
1.2881e-05
-4.97206e-08
1.29955e-05
-5.11743e-08
1.30657e-05
-5.2814e-08
1.30923e-05
-5.40754e-08
1.3091e-05
-5.47927e-08
1.30754e-05
-5.49507e-08
1.30525e-05
-5.44959e-08
1.30241e-05
1.29903e-05
-2.51622e-08
2.43436e-06
-2.48745e-08
2.54967e-06
-2.44605e-08
2.66888e-06
-2.38964e-08
2.79238e-06
-2.31659e-08
2.92048e-06
-2.22584e-08
3.05349e-06
-2.11669e-08
3.19186e-06
-1.98845e-08
3.3364e-06
-1.83901e-08
3.48871e-06
-1.66172e-08
3.65163e-06
-1.44076e-08
3.82975e-06
-1.14735e-08
4.02956e-06
-7.42001e-09
4.25892e-06
-1.88315e-09
4.52543e-06
5.2258e-09
4.8341e-06
1.35061e-08
5.18521e-06
2.20709e-08
5.57409e-06
2.98364e-08
5.9934e-06
3.58776e-08
6.43691e-06
3.94938e-08
6.90266e-06
3.97949e-08
7.39532e-06
3.50783e-08
7.9272e-06
2.51828e-08
8.50086e-06
2.02288e-08
9.01539e-06
3.60902e-08
9.03729e-06
2.01977e-08
8.09509e-06
-9.64838e-08
7.31841e-06
-1.30141e-07
8.7538e-06
-1.15694e-07
1.09748e-05
-1.25433e-07
1.20539e-05
-1.36417e-07
1.43781e-05
-1.32888e-07
1.3876e-05
-1.20406e-07
1.34243e-05
-1.04566e-07
1.30048e-05
-8.99807e-08
1.27088e-05
-7.89466e-08
1.26239e-05
-7.12762e-08
1.26765e-05
-6.57058e-08
1.27176e-05
-6.08518e-08
1.26998e-05
-5.63336e-08
1.26907e-05
-5.2765e-08
1.27564e-05
-5.10329e-08
1.28793e-05
-5.12993e-08
1.29958e-05
-5.27562e-08
1.30672e-05
-5.43981e-08
1.30939e-05
-5.56429e-08
1.30922e-05
-5.63193e-08
1.3076e-05
-5.64102e-08
1.30526e-05
-5.5859e-08
1.30235e-05
1.29889e-05
-2.50268e-08
2.43416e-06
-2.47382e-08
2.54939e-06
-2.4323e-08
2.66846e-06
-2.37568e-08
2.79181e-06
-2.30231e-08
2.91974e-06
-2.21114e-08
3.05258e-06
-2.10148e-08
3.19077e-06
-1.97257e-08
3.33511e-06
-1.82219e-08
3.48721e-06
-1.64368e-08
3.64985e-06
-1.42158e-08
3.82753e-06
-1.12808e-08
4.02663e-06
-7.25036e-09
4.25489e-06
-1.76538e-09
4.51995e-06
5.28323e-09
4.82706e-06
1.35424e-08
5.17695e-06
2.21797e-08
5.56545e-06
3.01385e-08
5.98545e-06
3.6482e-08
6.43056e-06
4.04763e-08
6.89867e-06
4.12016e-08
7.3946e-06
3.71219e-08
7.93128e-06
2.86558e-08
8.50932e-06
2.64317e-08
9.01761e-06
4.12369e-08
9.02248e-06
1.81344e-08
8.11819e-06
-9.51776e-08
7.43172e-06
-1.37724e-07
8.79634e-06
-1.25673e-07
1.09627e-05
-1.31821e-07
1.206e-05
-1.4127e-07
1.43876e-05
-1.36903e-07
1.38716e-05
-1.23763e-07
1.34111e-05
-1.07414e-07
1.29884e-05
-9.24948e-08
1.26939e-05
-8.12701e-08
1.26127e-05
-7.3498e-08
1.26687e-05
-6.78243e-08
1.2712e-05
-6.28402e-08
1.26948e-05
-5.81904e-08
1.2686e-05
-5.45292e-08
1.27527e-05
-5.27544e-08
1.28775e-05
-5.30123e-08
1.2996e-05
-5.44754e-08
1.30687e-05
-5.61177e-08
1.30956e-05
-5.73421e-08
1.30934e-05
-5.79725e-08
1.30767e-05
-5.79915e-08
1.30526e-05
-5.73394e-08
1.30229e-05
1.29875e-05
-2.52789e-08
2.43397e-06
-2.49913e-08
2.5491e-06
-2.45776e-08
2.66805e-06
-2.40135e-08
2.79125e-06
-2.32825e-08
2.91901e-06
-2.23741e-08
3.05168e-06
-2.12818e-08
3.18967e-06
-1.99979e-08
3.33383e-06
-1.84996e-08
3.48571e-06
-1.67206e-08
3.64807e-06
-1.45101e-08
3.82532e-06
-1.1599e-08
4.02372e-06
-7.61778e-09
4.25091e-06
-2.21252e-09
4.51455e-06
4.74314e-09
4.8201e-06
1.29385e-08
5.16876e-06
2.15933e-08
5.55679e-06
2.96813e-08
5.97736e-06
3.62596e-08
6.42398e-06
4.05646e-08
6.89436e-06
4.16575e-08
7.3935e-06
3.82013e-08
7.93473e-06
3.12023e-08
8.51632e-06
3.13511e-08
9.01746e-06
4.46736e-08
9.00916e-06
1.56028e-08
8.14726e-06
-9.4722e-08
7.54205e-06
-1.44309e-07
8.84593e-06
-1.34913e-07
1.09533e-05
-1.37839e-07
1.20629e-05
-1.4559e-07
1.43953e-05
-1.40493e-07
1.38665e-05
-1.26834e-07
1.33975e-05
-1.10086e-07
1.29717e-05
-9.49006e-08
1.26787e-05
-8.35312e-08
1.26013e-05
-7.57022e-08
1.26609e-05
-6.99721e-08
1.27062e-05
-6.48953e-08
1.26897e-05
-6.0136e-08
1.26813e-05
-5.63954e-08
1.2749e-05
-5.45898e-08
1.28757e-05
-5.48496e-08
1.29963e-05
-5.63254e-08
1.30701e-05
-5.79704e-08
1.30972e-05
-5.91737e-08
1.30946e-05
-5.97558e-08
1.30772e-05
-5.96994e-08
1.30526e-05
-5.89433e-08
1.30221e-05
1.29859e-05
-2.59471e-08
2.43377e-06
-2.56615e-08
2.54881e-06
-2.52512e-08
2.66764e-06
-2.4692e-08
2.79069e-06
-2.39676e-08
2.91829e-06
-2.3068e-08
3.05078e-06
-2.1987e-08
3.18859e-06
-2.07173e-08
3.33256e-06
-1.9236e-08
3.48423e-06
-1.74779e-08
3.64631e-06
-1.52961e-08
3.82314e-06
-1.24301e-08
4.02085e-06
-8.52179e-09
4.247e-06
-3.22223e-09
4.50925e-06
3.60944e-09
4.81327e-06
1.17001e-08
5.16067e-06
2.03182e-08
5.54818e-06
2.84689e-08
5.96921e-06
3.52068e-08
6.41725e-06
3.97414e-08
6.88983e-06
4.11248e-08
7.39212e-06
3.82317e-08
7.93762e-06
3.26245e-08
8.52193e-06
3.47046e-08
9.01538e-06
4.63094e-08
8.99756e-06
1.25195e-08
8.18105e-06
-9.50065e-08
7.64957e-06
-1.49791e-07
8.90072e-06
-1.43061e-07
1.09466e-05
-1.4329e-07
1.20632e-05
-1.49335e-07
1.44014e-05
-1.43652e-07
1.38608e-05
-1.29619e-07
1.33834e-05
-1.12586e-07
1.29546e-05
-9.72078e-08
1.26633e-05
-8.57384e-08
1.25898e-05
-7.78892e-08
1.2653e-05
-7.21426e-08
1.27005e-05
-6.7009e-08
1.26846e-05
-6.2164e-08
1.26764e-05
-5.83571e-08
1.27452e-05
-5.65305e-08
1.28739e-05
-5.6803e-08
1.29965e-05
-5.8301e-08
1.30716e-05
-5.99549e-08
1.30989e-05
-6.11396e-08
1.30958e-05
-6.16731e-08
1.30778e-05
-6.15396e-08
1.30524e-05
-6.06768e-08
1.30212e-05
1.29842e-05
-2.70696e-08
2.43358e-06
-2.67858e-08
2.54853e-06
-2.63789e-08
2.66723e-06
-2.58253e-08
2.79013e-06
-2.5109e-08
2.91757e-06
-2.42206e-08
3.04989e-06
-2.31546e-08
3.18753e-06
-2.19041e-08
3.33131e-06
-2.04471e-08
3.48277e-06
-1.87198e-08
3.64458e-06
-1.658e-08
3.821e-06
-1.37762e-08
4.01805e-06
-9.96147e-09
4.24319e-06
-4.79258e-09
4.50408e-06
1.88344e-09
4.80659e-06
9.82769e-09
5.15272e-06
1.83538e-08
5.53965e-06
2.64988e-08
5.96106e-06
3.33175e-08
6.41043e-06
3.79949e-08
6.88515e-06
3.95835e-08
7.39053e-06
3.71741e-08
7.94003e-06
3.28372e-08
8.52627e-06
3.64501e-08
9.01177e-06
4.63041e-08
8.9877e-06
8.93025e-09
8.21842e-06
-9.5899e-08
7.7544e-06
-1.54229e-07
8.95905e-06
-1.49961e-07
1.09423e-05
-1.4803e-07
1.20612e-05
-1.52479e-07
1.44058e-05
-1.4638e-07
1.38547e-05
-1.32121e-07
1.33692e-05
-1.14919e-07
1.29374e-05
-9.94229e-08
1.26478e-05
-8.78978e-08
1.25783e-05
-8.00586e-08
1.26452e-05
-7.43291e-08
1.26948e-05
-6.91737e-08
1.26794e-05
-6.42686e-08
1.26715e-05
-6.04089e-08
1.27413e-05
-5.85703e-08
1.2872e-05
-5.88663e-08
1.29968e-05
-6.03984e-08
1.30732e-05
-6.20706e-08
1.31006e-05
-6.32421e-08
1.3097e-05
-6.37288e-08
1.30783e-05
-6.35176e-08
1.30522e-05
-6.25462e-08
1.30203e-05
1.29823e-05
-2.86958e-08
2.43339e-06
-2.84122e-08
2.54824e-06
-2.80068e-08
2.66683e-06
-2.74569e-08
2.78958e-06
-2.67474e-08
2.91686e-06
-2.58693e-08
3.04901e-06
-2.48181e-08
3.18648e-06
-2.35877e-08
3.33008e-06
-2.21573e-08
3.48134e-06
-2.04658e-08
3.64289e-06
-1.83762e-08
3.81891e-06
-1.56473e-08
4.01532e-06
-1.19446e-08
4.23948e-06
-6.93175e-09
4.49906e-06
-4.46188e-10
4.80011e-06
7.30602e-09
5.14497e-06
1.56805e-08
5.53128e-06
2.37476e-08
5.953e-06
3.05653e-08
6.40361e-06
3.52964e-08
6.88042e-06
3.70027e-08
7.38883e-06
3.49953e-08
7.94204e-06
3.18095e-08
8.52945e-06
3.66764e-08
9.0069e-06
4.49362e-08
8.97944e-06
4.96664e-09
8.25839e-06
-9.72484e-08
7.85662e-06
-1.57759e-07
9.01956e-06
-1.55586e-07
1.09401e-05
-1.51947e-07
1.20576e-05
-1.54989e-07
1.44089e-05
-1.48661e-07
1.38484e-05
-1.34331e-07
1.33549e-05
-1.1708e-07
1.29202e-05
-1.01546e-07
1.26323e-05
-9.00107e-08
1.25668e-05
-8.22083e-08
1.26374e-05
-7.65256e-08
1.26891e-05
-7.1382e-08
1.26743e-05
-6.64444e-08
1.26666e-05
-6.25475e-08
1.27374e-05
-6.07062e-08
1.28702e-05
-6.10368e-08
1.29972e-05
-6.26163e-08
1.30747e-05
-6.43182e-08
1.31023e-05
-6.54839e-08
1.30982e-05
-6.59273e-08
1.30787e-05
-6.56391e-08
1.30519e-05
-6.45571e-08
1.30192e-05
1.29803e-05
-3.08837e-08
2.43319e-06
-3.05973e-08
2.54796e-06
-3.01899e-08
2.66642e-06
-2.96399e-08
2.78903e-06
-2.89333e-08
2.91616e-06
-2.8062e-08
3.04814e-06
-2.70224e-08
3.18544e-06
-2.58097e-08
3.32887e-06
-2.44045e-08
3.47994e-06
-2.27493e-08
3.64124e-06
-2.07145e-08
3.81687e-06
-1.80705e-08
4.01268e-06
-1.44974e-08
4.23591e-06
-9.66802e-09
4.49424e-06
-3.4128e-09
4.79385e-06
4.0937e-09
5.13746e-06
1.2249e-08
5.52312e-06
2.01583e-08
5.94509e-06
2.68859e-08
6.39688e-06
3.15749e-08
6.87573e-06
3.33045e-08
7.3871e-06
3.16163e-08
7.94373e-06
2.94861e-08
8.53158e-06
3.54728e-08
9.00091e-06
4.24652e-08
8.97245e-06
7.88406e-10
8.30007e-06
-9.88905e-08
7.95629e-06
-1.60501e-07
9.08117e-06
-1.59953e-07
1.09396e-05
-1.5493e-07
1.20526e-05
-1.56796e-07
1.44107e-05
-1.5045e-07
1.3842e-05
-1.36222e-07
1.33406e-05
-1.19051e-07
1.2903e-05
-1.03566e-07
1.26168e-05
-9.20708e-08
1.25553e-05
-8.43337e-08
1.26296e-05
-7.8726e-08
1.26835e-05
-7.36275e-08
1.26692e-05
-6.86871e-08
1.26616e-05
-6.47718e-08
1.27335e-05
-6.29388e-08
1.28684e-05
-6.33153e-08
1.29975e-05
-6.49558e-08
1.30764e-05
-6.66999e-08
1.3104e-05
-6.78684e-08
1.30993e-05
-6.82731e-08
1.30791e-05
-6.79091e-08
1.30516e-05
-6.67149e-08
1.3018e-05
1.29781e-05
-3.3691e-08
2.43299e-06
-3.33989e-08
2.54767e-06
-3.29856e-08
2.66601e-06
-3.24311e-08
2.78848e-06
-3.17227e-08
2.91545e-06
-3.08536e-08
3.04727e-06
-2.98213e-08
3.1844e-06
-2.86222e-08
3.32767e-06
-2.72395e-08
3.47855e-06
-2.56202e-08
3.63962e-06
-2.36434e-08
3.8149e-06
-2.1094e-08
4.01013e-06
-1.76691e-08
4.23249e-06
-1.30543e-08
4.48962e-06
-7.0758e-09
4.78787e-06
1.2048e-10
5.13027e-06
7.97735e-09
5.51526e-06
1.56353e-08
5.93743e-06
2.21683e-08
6.39035e-06
2.67017e-08
6.8712e-06
2.83405e-08
7.38546e-06
2.68753e-08
7.94519e-06
2.57282e-08
8.53273e-06
3.28353e-08
8.99381e-06
3.90357e-08
8.96625e-06
-3.496e-09
8.3426e-06
-1.00639e-07
8.05344e-06
-1.6249e-07
9.14302e-06
-1.63051e-07
1.09401e-05
-1.56842e-07
1.20464e-05
-1.57787e-07
1.44117e-05
-1.51666e-07
1.38359e-05
-1.37743e-07
1.33267e-05
-1.20796e-07
1.28861e-05
-1.05458e-07
1.26015e-05
-9.40626e-08
1.25439e-05
-8.64261e-08
1.2622e-05
-8.09243e-08
1.2678e-05
-7.59049e-08
1.26641e-05
-7.09937e-08
1.26567e-05
-6.70826e-08
1.27296e-05
-6.52719e-08
1.28665e-05
-6.57064e-08
1.2998e-05
-6.74208e-08
1.30781e-05
-6.92191e-08
1.31058e-05
-7.03992e-08
1.31005e-05
-7.07701e-08
1.30795e-05
-7.03318e-08
1.30511e-05
-6.90239e-08
1.30167e-05
1.29758e-05
-3.71685e-08
2.43278e-06
-3.68682e-08
2.54737e-06
-3.64458e-08
2.66559e-06
-3.58831e-08
2.78792e-06
-3.51691e-08
2.91474e-06
-3.42984e-08
3.0464e-06
-3.32699e-08
3.18338e-06
-3.20818e-08
3.32648e-06
-3.07202e-08
3.47719e-06
-2.91378e-08
3.63804e-06
-2.72245e-08
3.81298e-06
-2.47817e-08
4.00768e-06
-2.15272e-08
4.22923e-06
-1.71626e-08
4.48526e-06
-1.15142e-08
4.78223e-06
-4.70289e-09
5.12346e-06
2.76069e-09
5.5078e-06
1.00553e-08
5.93013e-06
1.62648e-08
6.38414e-06
2.04972e-08
6.86696e-06
2.18943e-08
7.38406e-06
2.05261e-08
7.94656e-06
2.02992e-08
8.53296e-06
2.86314e-08
8.98547e-06
3.46328e-08
8.96025e-06
-7.88438e-09
8.38512e-06
-1.0229e-07
8.14784e-06
-1.63648e-07
9.20438e-06
-1.64804e-07
1.09413e-05
-1.57511e-07
1.20391e-05
-1.57808e-07
1.4412e-05
-1.52197e-07
1.38303e-05
-1.38824e-07
1.33133e-05
-1.22271e-07
1.28695e-05
-1.07189e-07
1.25864e-05
-9.59631e-08
1.25326e-05
-8.84737e-08
1.26145e-05
-8.3116e-08
1.26726e-05
-7.82115e-08
1.26592e-05
-7.33626e-08
1.26519e-05
-6.94815e-08
1.27257e-05
-6.77113e-08
1.28648e-05
-6.82171e-08
1.29985e-05
-7.00173e-08
1.30799e-05
-7.18804e-08
1.31077e-05
-7.30802e-08
1.31017e-05
-7.34221e-08
1.30798e-05
-7.2911e-08
1.30506e-05
-7.14877e-08
1.30153e-05
1.29733e-05
-4.13528e-08
2.43257e-06
-4.10425e-08
2.54706e-06
-4.06089e-08
2.66515e-06
-4.00358e-08
2.78734e-06
-3.9314e-08
2.91401e-06
-3.84401e-08
3.04553e-06
-3.74146e-08
3.18235e-06
-3.62378e-08
3.3253e-06
-3.48995e-08
3.47585e-06
-3.33593e-08
3.6365e-06
-3.15193e-08
3.81114e-06
-2.91998e-08
4.00536e-06
-2.61419e-08
4.22617e-06
-2.20678e-08
4.48118e-06
-1.68086e-08
4.77697e-06
-1.04645e-08
5.11711e-06
-3.50331e-09
5.50084e-06
3.29506e-09
5.92334e-06
9.02241e-09
6.37841e-06
1.27682e-08
6.86322e-06
1.37233e-08
7.38311e-06
1.22757e-08
7.94801e-06
1.28934e-08
8.53234e-06
2.26206e-08
8.97575e-06
2.90774e-08
8.95379e-06
-1.24768e-08
8.42667e-06
-1.0364e-07
8.23901e-06
-1.63777e-07
9.26451e-06
-1.65063e-07
1.09426e-05
-1.56753e-07
1.20308e-05
-1.56696e-07
1.44119e-05
-1.51929e-07
1.38255e-05
-1.39395e-07
1.33008e-05
-1.23429e-07
1.28535e-05
-1.08724e-07
1.25717e-05
-9.77469e-08
1.25217e-05
-9.04645e-08
1.26072e-05
-8.52985e-08
1.26674e-05
-8.05474e-08
1.26545e-05
-7.57934e-08
1.26471e-05
-7.19706e-08
1.27219e-05
-7.02627e-08
1.28631e-05
-7.08552e-08
1.29991e-05
-7.27524e-08
1.30818e-05
-7.46894e-08
1.31096e-05
-7.59158e-08
1.31029e-05
-7.62328e-08
1.30801e-05
-7.56503e-08
1.305e-05
-7.411e-08
1.30137e-05
1.29706e-05
-4.6262e-08
2.43235e-06
-4.59403e-08
2.54673e-06
-4.54939e-08
2.66471e-06
-4.4909e-08
2.78676e-06
-4.4179e-08
2.91328e-06
-4.33024e-08
3.04465e-06
-4.2282e-08
3.18133e-06
-4.11205e-08
3.32414e-06
-3.98121e-08
3.47454e-06
-3.83242e-08
3.63501e-06
-3.65724e-08
3.80939e-06
-3.43974e-08
4.00319e-06
-3.15663e-08
4.22334e-06
-2.78254e-08
4.47744e-06
-2.30162e-08
4.77216e-06
-1.72249e-08
5.11132e-06
-1.08824e-08
5.4945e-06
-4.73044e-09
5.91718e-06
3.29107e-10
6.37335e-06
3.36371e-09
6.86018e-06
3.62412e-09
7.38285e-06
1.86309e-09
7.94977e-06
3.20853e-09
8.53099e-06
1.45219e-08
8.96443e-06
2.20782e-08
8.94624e-06
-1.74561e-08
8.46621e-06
-1.04513e-07
8.32606e-06
-1.62611e-07
9.32261e-06
-1.63639e-07
1.09436e-05
-1.54408e-07
1.20215e-05
-1.5433e-07
1.44118e-05
-1.50778e-07
1.3822e-05
-1.39407e-07
1.32894e-05
-1.24239e-07
1.28384e-05
-1.10035e-07
1.25575e-05
-9.93944e-08
1.2511e-05
-9.2391e-08
1.26002e-05
-8.74734e-08
1.26625e-05
-8.29163e-08
1.26499e-05
-7.82881e-08
1.26425e-05
-7.45517e-08
1.27182e-05
-7.29309e-08
1.28614e-05
-7.36282e-08
1.29998e-05
-7.56339e-08
1.30838e-05
-7.76524e-08
1.31116e-05
-7.8911e-08
1.31042e-05
-7.92068e-08
1.30804e-05
-7.85541e-08
1.30494e-05
-7.68956e-08
1.30121e-05
1.29678e-05
-5.18818e-08
2.43211e-06
-5.1548e-08
2.5464e-06
-5.10889e-08
2.66425e-06
-5.04933e-08
2.78616e-06
-4.9757e-08
2.91255e-06
-4.88811e-08
3.04377e-06
-4.78706e-08
3.18032e-06
-4.67318e-08
3.323e-06
-4.54636e-08
3.47328e-06
-4.40421e-08
3.63358e-06
-4.23971e-08
3.80775e-06
-4.03907e-08
4.00118e-06
-3.78177e-08
4.22077e-06
-3.44515e-08
4.47407e-06
-3.01496e-08
4.76786e-06
-2.49917e-08
5.10616e-06
-1.93815e-08
5.48889e-06
-1.40313e-08
5.91183e-06
-9.84269e-09
6.36916e-06
-7.77305e-09
6.85811e-06
-8.49839e-09
7.38357e-06
-1.08384e-08
7.95211e-06
-8.92553e-09
8.52908e-06
4.09487e-09
8.95141e-06
1.33474e-08
8.93698e-06
-2.30468e-08
8.5026e-06
-1.04778e-07
8.4078e-06
-1.59881e-07
9.37771e-06
-1.60359e-07
1.09441e-05
-1.50402e-07
1.20116e-05
-1.50683e-07
1.44121e-05
-1.48735e-07
1.382e-05
-1.38857e-07
1.32795e-05
-1.24696e-07
1.28242e-05
-1.11117e-07
1.25439e-05
-1.009e-07
1.25008e-05
-9.42546e-08
1.25936e-05
-8.96479e-08
1.26579e-05
-8.53254e-08
1.26456e-05
-8.08506e-08
1.2638e-05
-7.72272e-08
1.27146e-05
-7.57203e-08
1.28599e-05
-7.65429e-08
1.30006e-05
-7.86694e-08
1.30859e-05
-8.07769e-08
1.31137e-05
-8.20726e-08
1.31055e-05
-8.23504e-08
1.30807e-05
-8.16284e-08
1.30487e-05
-7.9851e-08
1.30103e-05
1.29648e-05
-5.817e-08
2.43187e-06
-5.78256e-08
2.54606e-06
-5.73559e-08
2.66378e-06
-5.67523e-08
2.78556e-06