/*--------------------------------*- C++ -*----------------------------------*\
  =========                 |
  \\      /  F ield         | OpenFOAM: The Open Source CFD Toolbox
   \\    /   O peration     | Website:  https://openfoam.org
    \\  /    A nd           | Version:  9
     \\/     M anipulation  |
\*---------------------------------------------------------------------------*/
FoamFile
{
    format      ascii;
    class       volScalarField;
    location    "0.14";
    object      rAU;
}
// * * * * * * * * * * * * * * * * * * * * * * * * * * * * * * * * * * * * * //

dimensions      [-1 3 1 0 0 0 0];

internalField   nonuniform List<scalar> 
5000
(
1.57722e-05
1.49987e-05
1.51603e-05
1.53136e-05
1.5459e-05
1.55971e-05
1.57283e-05
1.58521e-05
1.59662e-05
1.60656e-05
1.61418e-05
1.61833e-05
1.61799e-05
1.61288e-05
1.60382e-05
1.59246e-05
1.58047e-05
1.56893e-05
1.55825e-05
1.54836e-05
1.539e-05
1.52984e-05
1.52063e-05
1.51345e-05
1.523e-05
1.62701e-05
1.98202e-05
1.65008e-05
1.52741e-05
1.52197e-05
1.54003e-05
1.55979e-05
1.5802e-05
1.60162e-05
1.61903e-05
1.62587e-05
1.62474e-05
1.62357e-05
1.62494e-05
1.62552e-05
1.62209e-05
1.61588e-05
1.61016e-05
1.60662e-05
1.60514e-05
1.60502e-05
1.60566e-05
1.60672e-05
1.60809e-05
1.60972e-05
2.14118e-05
2.00014e-05
2.0277e-05
2.05367e-05
2.0781e-05
2.10106e-05
2.12262e-05
2.14279e-05
2.16145e-05
2.17831e-05
2.19283e-05
2.20428e-05
2.212e-05
2.21578e-05
2.21611e-05
2.21409e-05
2.21087e-05
2.2073e-05
2.20374e-05
2.20023e-05
2.1966e-05
2.1926e-05
2.18802e-05
2.18486e-05
2.19629e-05
2.28017e-05
2.49828e-05
2.29804e-05
2.20581e-05
2.20286e-05
2.2212e-05
2.23716e-05
2.25296e-05
2.26938e-05
2.28259e-05
2.28776e-05
2.28696e-05
2.2861e-05
2.28715e-05
2.28763e-05
2.28511e-05
2.28047e-05
2.27617e-05
2.27348e-05
2.27235e-05
2.27224e-05
2.27271e-05
2.2735e-05
2.27453e-05
2.27576e-05
2.14157e-05
2.00046e-05
2.02803e-05
2.054e-05
2.07844e-05
2.10142e-05
2.123e-05
2.14318e-05
2.16186e-05
2.17873e-05
2.19329e-05
2.20482e-05
2.21268e-05
2.21663e-05
2.21713e-05
2.21521e-05
2.21201e-05
2.2084e-05
2.20477e-05
2.20114e-05
2.19737e-05
2.19318e-05
2.18834e-05
2.18516e-05
2.19794e-05
2.28381e-05
2.48413e-05
2.30114e-05
2.20649e-05
2.20208e-05
2.22053e-05
2.23678e-05
2.25274e-05
2.2693e-05
2.28259e-05
2.28777e-05
2.28695e-05
2.28608e-05
2.28716e-05
2.28767e-05
2.28516e-05
2.28051e-05
2.27617e-05
2.27346e-05
2.27231e-05
2.27221e-05
2.27268e-05
2.27347e-05
2.27451e-05
2.27575e-05
2.142e-05
2.00082e-05
2.02839e-05
2.05437e-05
2.07883e-05
2.10182e-05
2.12341e-05
2.14361e-05
2.1623e-05
2.17919e-05
2.19379e-05
2.20541e-05
2.21341e-05
2.21754e-05
2.2182e-05
2.21636e-05
2.21316e-05
2.20947e-05
2.20572e-05
2.20196e-05
2.19803e-05
2.19361e-05
2.18845e-05
2.18514e-05
2.19937e-05
2.28758e-05
2.47006e-05
2.30465e-05
2.20743e-05
2.20125e-05
2.21985e-05
2.23644e-05
2.25259e-05
2.26933e-05
2.28269e-05
2.28786e-05
2.28698e-05
2.28608e-05
2.28718e-05
2.28772e-05
2.28522e-05
2.28054e-05
2.27616e-05
2.27342e-05
2.27226e-05
2.27216e-05
2.27263e-05
2.27344e-05
2.27448e-05
2.27574e-05
2.14245e-05
2.00121e-05
2.02878e-05
2.05477e-05
2.07923e-05
2.10224e-05
2.12385e-05
2.14406e-05
2.16276e-05
2.17968e-05
2.19432e-05
2.20603e-05
2.21418e-05
2.21848e-05
2.21929e-05
2.21751e-05
2.21428e-05
2.21034e-05
2.20605e-05
2.2018e-05
2.1977e-05
2.19343e-05
2.18826e-05
2.18486e-05
2.20068e-05
2.2912e-05
2.45698e-05
2.30792e-05
2.20844e-05
2.20031e-05
2.21918e-05
2.23615e-05
2.25252e-05
2.26945e-05
2.28287e-05
2.28799e-05
2.28704e-05
2.2861e-05
2.28721e-05
2.28778e-05
2.28528e-05
2.28056e-05
2.27613e-05
2.27336e-05
2.2722e-05
2.27209e-05
2.27258e-05
2.27339e-05
2.27445e-05
2.27573e-05
2.1429e-05
2.00159e-05
2.02917e-05
2.05516e-05
2.07964e-05
2.10267e-05
2.12429e-05
2.14452e-05
2.16323e-05
2.18018e-05
2.19487e-05
2.20667e-05
2.21495e-05
2.21942e-05
2.22036e-05
2.21865e-05
2.21514e-05
2.21054e-05
2.20579e-05
2.20137e-05
2.19711e-05
2.19267e-05
2.18759e-05
2.1844e-05
2.20179e-05
2.29425e-05
2.44495e-05
2.31064e-05
2.20943e-05
2.19926e-05
2.2185e-05
2.2359e-05
2.25252e-05
2.26964e-05
2.28311e-05
2.28818e-05
2.28713e-05
2.28615e-05
2.28726e-05
2.28786e-05
2.28534e-05
2.28058e-05
2.27609e-05
2.27328e-05
2.27211e-05
2.27202e-05
2.27252e-05
2.27335e-05
2.27442e-05
2.27572e-05
2.14334e-05
2.00196e-05
2.02954e-05
2.05555e-05
2.08005e-05
2.10309e-05
2.12473e-05
2.14497e-05
2.16371e-05
2.18068e-05
2.19541e-05
2.2073e-05
2.21572e-05
2.22034e-05
2.22142e-05
2.21972e-05
2.21572e-05
2.21059e-05
2.20565e-05
2.20104e-05
2.19658e-05
2.19191e-05
2.18676e-05
2.18373e-05
2.20282e-05
2.29678e-05
2.43381e-05
2.31275e-05
2.21035e-05
2.19811e-05
2.21781e-05
2.23566e-05
2.25257e-05
2.2699e-05
2.28341e-05
2.2884e-05
2.28726e-05
2.28621e-05
2.28733e-05
2.28794e-05
2.28541e-05
2.28059e-05
2.27604e-05
2.2732e-05
2.27202e-05
2.27194e-05
2.27245e-05
2.2733e-05
2.27439e-05
2.27571e-05
2.14374e-05
2.00231e-05
2.0299e-05
2.05592e-05
2.08043e-05
2.10349e-05
2.12515e-05
2.1454e-05
2.16416e-05
2.18115e-05
2.19594e-05
2.20791e-05
2.21646e-05
2.22124e-05
2.22246e-05
2.22045e-05
2.21602e-05
2.21073e-05
2.20559e-05
2.20077e-05
2.19609e-05
2.19115e-05
2.18569e-05
2.18284e-05
2.20382e-05
2.29878e-05
2.42343e-05
2.31425e-05
2.21119e-05
2.19689e-05
2.2171e-05
2.23543e-05
2.25268e-05
2.27022e-05
2.28376e-05
2.28866e-05
2.2874e-05
2.28629e-05
2.2874e-05
2.28803e-05
2.28548e-05
2.2806e-05
2.27599e-05
2.2731e-05
2.27192e-05
2.27185e-05
2.27238e-05
2.27324e-05
2.27436e-05
2.27571e-05
2.1441e-05
2.00262e-05
2.03022e-05
2.05626e-05
2.08078e-05
2.10386e-05
2.12554e-05
2.14581e-05
2.16459e-05
2.18161e-05
2.19644e-05
2.2085e-05
2.21717e-05
2.22211e-05
2.22346e-05
2.2212e-05
2.21642e-05
2.21097e-05
2.20561e-05
2.20057e-05
2.19564e-05
2.19039e-05
2.18457e-05
2.18198e-05
2.20482e-05
2.30018e-05
2.41371e-05
2.31511e-05
2.21194e-05
2.19562e-05
2.21635e-05
2.23521e-05
2.25283e-05
2.27058e-05
2.28415e-05
2.28894e-05
2.28757e-05
2.28639e-05
2.28749e-05
2.28812e-05
2.28556e-05
2.28061e-05
2.27593e-05
2.273e-05
2.27181e-05
2.27175e-05
2.2723e-05
2.27318e-05
2.27432e-05
2.2757e-05
2.14441e-05
2.00289e-05
2.03051e-05
2.05656e-05
2.0811e-05
2.1042e-05
2.1259e-05
2.14619e-05
2.16499e-05
2.18204e-05
2.19692e-05
2.20905e-05
2.21785e-05
2.22294e-05
2.22424e-05
2.2218e-05
2.21691e-05
2.2113e-05
2.20573e-05
2.20045e-05
2.19526e-05
2.18966e-05
2.18344e-05
2.18108e-05
2.20573e-05
2.30096e-05
2.40458e-05
2.31523e-05
2.21258e-05
2.19435e-05
2.21558e-05
2.23502e-05
2.25303e-05
2.27099e-05
2.28457e-05
2.28926e-05
2.28777e-05
2.28651e-05
2.28759e-05
2.28822e-05
2.28563e-05
2.28062e-05
2.27586e-05
2.27289e-05
2.27169e-05
2.27165e-05
2.27222e-05
2.27312e-05
2.27429e-05
2.2757e-05
2.14466e-05
2.00312e-05
2.03075e-05
2.05682e-05
2.08138e-05
2.1045e-05
2.12622e-05
2.14653e-05
2.16535e-05
2.18243e-05
2.19736e-05
2.20957e-05
2.21849e-05
2.22373e-05
2.22497e-05
2.22242e-05
2.21749e-05
2.21173e-05
2.20594e-05
2.20042e-05
2.19495e-05
2.18897e-05
2.18234e-05
2.18001e-05
2.20636e-05
2.30108e-05
2.39594e-05
2.3146e-05
2.21312e-05
2.19314e-05
2.21481e-05
2.23487e-05
2.25329e-05
2.27145e-05
2.28502e-05
2.28959e-05
2.28797e-05
2.28663e-05
2.2877e-05
2.28833e-05
2.28571e-05
2.28063e-05
2.27579e-05
2.27277e-05
2.27157e-05
2.27154e-05
2.27213e-05
2.27306e-05
2.27425e-05
2.2757e-05
2.14486e-05
2.0033e-05
2.03094e-05
2.05703e-05
2.08162e-05
2.10476e-05
2.12649e-05
2.14683e-05
2.16567e-05
2.18278e-05
2.19776e-05
2.21005e-05
2.21908e-05
2.22447e-05
2.22571e-05
2.22311e-05
2.21815e-05
2.21225e-05
2.20626e-05
2.20048e-05
2.19473e-05
2.18836e-05
2.1813e-05
2.1791e-05
2.20699e-05
2.3006e-05
2.38769e-05
2.31322e-05
2.21357e-05
2.19205e-05
2.21407e-05
2.23477e-05
2.2536e-05
2.27195e-05
2.28551e-05
2.28995e-05
2.2882e-05
2.28677e-05
2.28782e-05
2.28844e-05
2.28579e-05
2.28064e-05
2.27572e-05
2.27265e-05
2.27143e-05
2.27142e-05
2.27204e-05
2.27299e-05
2.27421e-05
2.27569e-05
2.14498e-05
2.00342e-05
2.03108e-05
2.05719e-05
2.0818e-05
2.10496e-05
2.12672e-05
2.14708e-05
2.16594e-05
2.18308e-05
2.1981e-05
2.21047e-05
2.21962e-05
2.22514e-05
2.22646e-05
2.22387e-05
2.21889e-05
2.21286e-05
2.20667e-05
2.20065e-05
2.1946e-05
2.18784e-05
2.18038e-05
2.17839e-05
2.20764e-05
2.29957e-05
2.37978e-05
2.31117e-05
2.21391e-05
2.19113e-05
2.21337e-05
2.23471e-05
2.25396e-05
2.27249e-05
2.28602e-05
2.29032e-05
2.28843e-05
2.28692e-05
2.28794e-05
2.28856e-05
2.28587e-05
2.28064e-05
2.27564e-05
2.27252e-05
2.27129e-05
2.2713e-05
2.27194e-05
2.27292e-05
2.27417e-05
2.27569e-05
2.14504e-05
2.00349e-05
2.03117e-05
2.0573e-05
2.08193e-05
2.10511e-05
2.12689e-05
2.14727e-05
2.16616e-05
2.18332e-05
2.19839e-05
2.21084e-05
2.22009e-05
2.22575e-05
2.22719e-05
2.22469e-05
2.2197e-05
2.21356e-05
2.20717e-05
2.20091e-05
2.19458e-05
2.18743e-05
2.17961e-05
2.17791e-05
2.20829e-05
2.29811e-05
2.37216e-05
2.30856e-05
2.21417e-05
2.19041e-05
2.21275e-05
2.23471e-05
2.25436e-05
2.27306e-05
2.28655e-05
2.2907e-05
2.28867e-05
2.28707e-05
2.28807e-05
2.28868e-05
2.28595e-05
2.28065e-05
2.27555e-05
2.27238e-05
2.27115e-05
2.27117e-05
2.27184e-05
2.27285e-05
2.27413e-05
2.27569e-05
2.14503e-05
2.00349e-05
2.03119e-05
2.05734e-05
2.08199e-05
2.1052e-05
2.12701e-05
2.14741e-05
2.16631e-05
2.18351e-05
2.19862e-05
2.21114e-05
2.2205e-05
2.22629e-05
2.22793e-05
2.22557e-05
2.22058e-05
2.21434e-05
2.20776e-05
2.20127e-05
2.19465e-05
2.18714e-05
2.179e-05
2.17767e-05
2.20896e-05
2.2963e-05
2.36479e-05
2.3055e-05
2.21434e-05
2.18988e-05
2.21222e-05
2.23476e-05
2.2548e-05
2.27366e-05
2.28711e-05
2.2911e-05
2.28891e-05
2.28723e-05
2.2882e-05
2.2888e-05
2.28603e-05
2.28064e-05
2.27546e-05
2.27224e-05
2.271e-05
2.27104e-05
2.27174e-05
2.27278e-05
2.27409e-05
2.27569e-05
2.14493e-05
2.00342e-05
2.03114e-05
2.05732e-05
2.08199e-05
2.10523e-05
2.12705e-05
2.14748e-05
2.16641e-05
2.18363e-05
2.19879e-05
2.21138e-05
2.22084e-05
2.22676e-05
2.22865e-05
2.2265e-05
2.22152e-05
2.21518e-05
2.20844e-05
2.20172e-05
2.19482e-05
2.18696e-05
2.17857e-05
2.17766e-05
2.20963e-05
2.29424e-05
2.35767e-05
2.30213e-05
2.21442e-05
2.18954e-05
2.21178e-05
2.23486e-05
2.25527e-05
2.27428e-05
2.28768e-05
2.29151e-05
2.28916e-05
2.28738e-05
2.28833e-05
2.28892e-05
2.28611e-05
2.28064e-05
2.27536e-05
2.27209e-05
2.27084e-05
2.2709e-05
2.27163e-05
2.2727e-05
2.27405e-05
2.27569e-05
2.14475e-05
2.00329e-05
2.03103e-05
2.05723e-05
2.08193e-05
2.10518e-05
2.12704e-05
2.14748e-05
2.16644e-05
2.18369e-05
2.19889e-05
2.21155e-05
2.22112e-05
2.22716e-05
2.22936e-05
2.22748e-05
2.22252e-05
2.2161e-05
2.20919e-05
2.20226e-05
2.19508e-05
2.18689e-05
2.17831e-05
2.17784e-05
2.21028e-05
2.29199e-05
2.35078e-05
2.29854e-05
2.21443e-05
2.18935e-05
2.21144e-05
2.235e-05
2.25577e-05
2.27493e-05
2.28826e-05
2.29192e-05
2.28941e-05
2.28754e-05
2.28846e-05
2.28904e-05
2.28619e-05
2.28063e-05
2.27526e-05
2.27193e-05
2.27068e-05
2.27076e-05
2.27152e-05
2.27262e-05
2.27401e-05
2.27569e-05
2.14446e-05
2.00306e-05
2.03083e-05
2.05705e-05
2.08178e-05
2.10506e-05
2.12694e-05
2.14741e-05
2.16639e-05
2.18368e-05
2.19892e-05
2.21165e-05
2.22131e-05
2.22748e-05
2.22999e-05
2.22845e-05
2.22357e-05
2.21708e-05
2.21001e-05
2.20287e-05
2.19543e-05
2.18693e-05
2.1782e-05
2.17819e-05
2.21091e-05
2.28961e-05
2.3441e-05
2.29483e-05
2.21437e-05
2.18931e-05
2.21119e-05
2.23517e-05
2.2563e-05
2.27558e-05
2.28885e-05
2.29234e-05
2.28967e-05
2.2877e-05
2.28859e-05
2.28916e-05
2.28627e-05
2.28062e-05
2.27516e-05
2.27177e-05
2.27051e-05
2.27061e-05
2.2714e-05
2.27254e-05
2.27396e-05
2.27569e-05
2.14407e-05
2.00275e-05
2.03054e-05
2.0568e-05
2.08155e-05
2.10486e-05
2.12677e-05
2.14727e-05
2.16627e-05
2.18359e-05
2.19888e-05
2.21167e-05
2.22143e-05
2.22771e-05
2.23035e-05
2.22922e-05
2.22467e-05
2.21812e-05
2.21091e-05
2.20356e-05
2.19587e-05
2.18708e-05
2.17826e-05
2.17871e-05
2.21154e-05
2.28715e-05
2.33764e-05
2.29107e-05
2.21428e-05
2.1894e-05
2.21102e-05
2.23537e-05
2.25683e-05
2.27625e-05
2.28944e-05
2.29275e-05
2.28992e-05
2.28785e-05
2.28872e-05
2.28928e-05
2.28634e-05
2.2806e-05
2.27505e-05
2.2716e-05
2.27033e-05
2.27046e-05
2.27128e-05
2.27245e-05
2.27392e-05
2.27569e-05
2.14356e-05
2.00234e-05
2.03016e-05
2.05644e-05
2.08123e-05
2.10458e-05
2.12651e-05
2.14704e-05
2.16607e-05
2.18342e-05
2.19876e-05
2.21161e-05
2.22146e-05
2.22785e-05
2.2306e-05
2.22993e-05
2.2258e-05
2.21922e-05
2.21188e-05
2.20434e-05
2.19639e-05
2.18735e-05
2.17848e-05
2.1794e-05
2.21218e-05
2.28448e-05
2.33119e-05
2.28731e-05
2.21418e-05
2.1896e-05
2.21093e-05
2.2356e-05
2.25738e-05
2.27692e-05
2.29004e-05
2.29318e-05
2.29017e-05
2.288e-05
2.28884e-05
2.2894e-05
2.28641e-05
2.28058e-05
2.27493e-05
2.27143e-05
2.27015e-05
2.2703e-05
2.27116e-05
2.27236e-05
2.27387e-05
2.27569e-05
2.14292e-05
2.00183e-05
2.02968e-05
2.05599e-05
2.08081e-05
2.10419e-05
2.12616e-05
2.14672e-05
2.16578e-05
2.18316e-05
2.19854e-05
2.21146e-05
2.22139e-05
2.22788e-05
2.23073e-05
2.23014e-05
2.22653e-05
2.22039e-05
2.21293e-05
2.2052e-05
2.19702e-05
2.18774e-05
2.17889e-05
2.18028e-05
2.21288e-05
2.28173e-05
2.32488e-05
2.28361e-05
2.21409e-05
2.18993e-05
2.21092e-05
2.23584e-05
2.25793e-05
2.2776e-05
2.29064e-05
2.2936e-05
2.29041e-05
2.28815e-05
2.28896e-05
2.28951e-05
2.28648e-05
2.28056e-05
2.2748e-05
2.27124e-05
2.26996e-05
2.27014e-05
2.27103e-05
2.27227e-05
2.27382e-05
2.2757e-05
2.14215e-05
2.0012e-05
2.02908e-05
2.05543e-05
2.08029e-05
2.1037e-05
2.12571e-05
2.1463e-05
2.16539e-05
2.18281e-05
2.19823e-05
2.2112e-05
2.22121e-05
2.2278e-05
2.23074e-05
2.23022e-05
2.22682e-05
2.22122e-05
2.21405e-05
2.20615e-05
2.19774e-05
2.18827e-05
2.1795e-05
2.18138e-05
2.21371e-05
2.27907e-05
2.3188e-05
2.28003e-05
2.21406e-05
2.19038e-05
2.21099e-05
2.23609e-05
2.25848e-05
2.27826e-05
2.29124e-05
2.29401e-05
2.29066e-05
2.28829e-05
2.28907e-05
2.28962e-05
2.28655e-05
2.28053e-05
2.27466e-05
2.27104e-05
2.26976e-05
2.26996e-05
2.27089e-05
2.27217e-05
2.27377e-05
2.2757e-05
2.14124e-05
2.00046e-05
2.02838e-05
2.05477e-05
2.07967e-05
2.10312e-05
2.12515e-05
2.14578e-05
2.1649e-05
2.18235e-05
2.19781e-05
2.21084e-05
2.22091e-05
2.22759e-05
2.23061e-05
2.23014e-05
2.22674e-05
2.22128e-05
2.21462e-05
2.20708e-05
2.19855e-05
2.18893e-05
2.18031e-05
2.18273e-05
2.21471e-05
2.27657e-05
2.31301e-05
2.27663e-05
2.21412e-05
2.19096e-05
2.21111e-05
2.23634e-05
2.25901e-05
2.27892e-05
2.29183e-05
2.29443e-05
2.29089e-05
2.28842e-05
2.28918e-05
2.28972e-05
2.2866e-05
2.28049e-05
2.27452e-05
2.27084e-05
2.26955e-05
2.26978e-05
2.27075e-05
2.27207e-05
2.27371e-05
2.2757e-05
2.1402e-05
1.99962e-05
2.02757e-05
2.054e-05
2.07894e-05
2.10243e-05
2.1245e-05
2.14516e-05
2.16431e-05
2.1818e-05
2.19729e-05
2.21036e-05
2.2205e-05
2.22724e-05
2.23034e-05
2.22991e-05
2.2265e-05
2.22096e-05
2.21415e-05
2.20651e-05
2.19786e-05
2.18797e-05
2.17965e-05
2.18361e-05
2.21595e-05
2.2743e-05
2.30757e-05
2.27347e-05
2.2143e-05
2.19167e-05
2.21128e-05
2.23657e-05
2.25951e-05
2.27956e-05
2.2924e-05
2.29483e-05
2.29112e-05
2.28854e-05
2.28927e-05
2.28981e-05
2.28665e-05
2.28044e-05
2.27436e-05
2.27062e-05
2.26932e-05
2.26959e-05
2.2706e-05
2.27197e-05
2.27366e-05
2.2757e-05
2.13904e-05
1.99867e-05
2.02667e-05
2.05314e-05
2.07812e-05
2.10164e-05
2.12375e-05
2.14444e-05
2.16363e-05
2.18114e-05
2.19666e-05
2.20977e-05
2.21996e-05
2.22677e-05
2.22992e-05
2.22953e-05
2.22609e-05
2.22046e-05
2.21348e-05
2.2056e-05
2.19669e-05
2.18668e-05
2.17877e-05
2.18379e-05
2.21676e-05
2.27233e-05
2.30257e-05
2.27061e-05
2.21462e-05
2.19248e-05
2.21148e-05
2.23676e-05
2.25996e-05
2.28016e-05
2.29296e-05
2.29522e-05
2.29133e-05
2.28864e-05
2.28935e-05
2.28989e-05
2.28669e-05
2.28038e-05
2.2742e-05
2.27039e-05
2.26909e-05
2.26939e-05
2.27045e-05
2.27186e-05
2.2736e-05
2.2757e-05
2.13778e-05
1.99764e-05
2.02567e-05
2.05219e-05
2.0772e-05
2.10077e-05
2.12292e-05
2.14364e-05
2.16285e-05
2.18039e-05
2.19594e-05
2.20908e-05
2.21932e-05
2.22617e-05
2.22937e-05
2.22899e-05
2.22553e-05
2.21979e-05
2.21262e-05
2.20449e-05
2.19529e-05
2.18521e-05
2.17778e-05
2.18377e-05
2.21683e-05
2.27e-05
2.2981e-05
2.26813e-05
2.21506e-05
2.19337e-05
2.21167e-05
2.23688e-05
2.26035e-05
2.28072e-05
2.29349e-05
2.29558e-05
2.29152e-05
2.28873e-05
2.28942e-05
2.28996e-05
2.28671e-05
2.2803e-05
2.27401e-05
2.27015e-05
2.26885e-05
2.26918e-05
2.27028e-05
2.27175e-05
2.27354e-05
2.27571e-05
2.13641e-05
1.99652e-05
2.0246e-05
2.05116e-05
2.07622e-05
2.09982e-05
2.122e-05
2.14275e-05
2.162e-05
2.17956e-05
2.19513e-05
2.2083e-05
2.21857e-05
2.22546e-05
2.2287e-05
2.22833e-05
2.22483e-05
2.21898e-05
2.21161e-05
2.20319e-05
2.19371e-05
2.18357e-05
2.17671e-05
2.18374e-05
2.21687e-05
2.2679e-05
2.29424e-05
2.26605e-05
2.21562e-05
2.19429e-05
2.21182e-05
2.23691e-05
2.26066e-05
2.28122e-05
2.29398e-05
2.29593e-05
2.29169e-05
2.28879e-05
2.28947e-05
2.29002e-05
2.28673e-05
2.28022e-05
2.27382e-05
2.26989e-05
2.26859e-05
2.26896e-05
2.27011e-05
2.27163e-05
2.27347e-05
2.27571e-05
2.13497e-05
1.99534e-05
2.02347e-05
2.05007e-05
2.07517e-05
2.09881e-05
2.12103e-05
2.14181e-05
2.16108e-05
2.17866e-05
2.19425e-05
2.20744e-05
2.21774e-05
2.22467e-05
2.22793e-05
2.22756e-05
2.22401e-05
2.21804e-05
2.21046e-05
2.20175e-05
2.19198e-05
2.18184e-05
2.1756e-05
2.18374e-05
2.21705e-05
2.26623e-05
2.29107e-05
2.2644e-05
2.21626e-05
2.19516e-05
2.21188e-05
2.23683e-05
2.26086e-05
2.28166e-05
2.29443e-05
2.29624e-05
2.29182e-05
2.28883e-05
2.28949e-05
2.29006e-05
2.28673e-05
2.28012e-05
2.27361e-05
2.26962e-05
2.26832e-05
2.26873e-05
2.26993e-05
2.2715e-05
2.2734e-05
2.27571e-05
2.13347e-05
1.99412e-05
2.02229e-05
2.04893e-05
2.07407e-05
2.09775e-05
2.12e-05
2.1408e-05
2.1601e-05
2.1777e-05
2.19331e-05
2.20652e-05
2.21684e-05
2.2238e-05
2.22708e-05
2.22672e-05
2.22312e-05
2.21702e-05
2.20922e-05
2.20021e-05
2.19017e-05
2.18005e-05
2.17451e-05
2.18382e-05
2.21743e-05
2.26508e-05
2.28861e-05
2.26316e-05
2.2169e-05
2.19593e-05
2.21182e-05
2.23662e-05
2.26097e-05
2.28203e-05
2.29484e-05
2.29651e-05
2.29193e-05
2.28883e-05
2.2895e-05
2.29008e-05
2.28672e-05
2.28e-05
2.27338e-05
2.26933e-05
2.26803e-05
2.26848e-05
2.26974e-05
2.27137e-05
2.27333e-05
2.2757e-05
2.13194e-05
1.99287e-05
2.02107e-05
2.04775e-05
2.07293e-05
2.09664e-05
2.11892e-05
2.13976e-05
2.15907e-05
2.17669e-05
2.19232e-05
2.20555e-05
2.2159e-05
2.22288e-05
2.22619e-05
2.22583e-05
2.22217e-05
2.21595e-05
2.20793e-05
2.19862e-05
2.18832e-05
2.17829e-05
2.17351e-05
2.18404e-05
2.21808e-05
2.26447e-05
2.28684e-05
2.26227e-05
2.21749e-05
2.19651e-05
2.2116e-05
2.23627e-05
2.26097e-05
2.28233e-05
2.29521e-05
2.29675e-05
2.292e-05
2.28881e-05
2.28948e-05
2.29009e-05
2.28669e-05
2.27986e-05
2.27313e-05
2.26902e-05
2.26773e-05
2.26823e-05
2.26954e-05
2.27122e-05
2.27325e-05
2.2757e-05
2.1304e-05
1.99159e-05
2.01982e-05
2.04654e-05
2.07175e-05
2.09551e-05
2.11782e-05
2.13868e-05
2.15802e-05
2.17566e-05
2.1913e-05
2.20455e-05
2.21492e-05
2.22194e-05
2.22528e-05
2.22491e-05
2.22122e-05
2.21487e-05
2.20663e-05
2.19704e-05
2.18651e-05
2.1766e-05
2.17264e-05
2.18443e-05
2.21902e-05
2.26444e-05
2.28571e-05
2.26164e-05
2.21793e-05
2.19686e-05
2.2112e-05
2.23578e-05
2.26087e-05
2.28257e-05
2.29553e-05
2.29695e-05
2.29203e-05
2.28876e-05
2.28944e-05
2.29007e-05
2.28664e-05
2.2797e-05
2.27286e-05
2.26869e-05
2.26741e-05
2.26796e-05
2.26933e-05
2.27107e-05
2.27316e-05
2.27569e-05
2.12883e-05
1.99029e-05
2.01856e-05
2.04531e-05
2.07056e-05
2.09435e-05
2.1167e-05
2.13759e-05
2.15695e-05
2.1746e-05
2.19027e-05
2.20354e-05
2.21394e-05
2.22099e-05
2.22436e-05
2.22401e-05
2.22028e-05
2.21382e-05
2.20537e-05
2.1955e-05
2.18477e-05
2.17505e-05
2.17194e-05
2.18503e-05
2.22029e-05
2.26492e-05
2.28509e-05
2.26114e-05
2.21814e-05
2.19692e-05
2.21062e-05
2.23517e-05
2.26068e-05
2.28275e-05
2.2958e-05
2.29711e-05
2.29202e-05
2.28867e-05
2.28937e-05
2.29004e-05
2.28657e-05
2.27953e-05
2.27256e-05
2.26834e-05
2.26707e-05
2.26767e-05
2.26911e-05
2.27091e-05
2.27307e-05
2.27567e-05
2.12727e-05
1.989e-05
2.0173e-05
2.04408e-05
2.06937e-05
2.09319e-05
2.11557e-05
2.13649e-05
2.15587e-05
2.17355e-05
2.18923e-05
2.20253e-05
2.21296e-05
2.22005e-05
2.22347e-05
2.22314e-05
2.21938e-05
2.21282e-05
2.20418e-05
2.19405e-05
2.18315e-05
2.17365e-05
2.17144e-05
2.18586e-05
2.22185e-05
2.26584e-05
2.28483e-05
2.26064e-05
2.21805e-05
2.19668e-05
2.20988e-05
2.23446e-05
2.26044e-05
2.28289e-05
2.29604e-05
2.29723e-05
2.29197e-05
2.28855e-05
2.28928e-05
2.28999e-05
2.28648e-05
2.27933e-05
2.27225e-05
2.26797e-05
2.26671e-05
2.26736e-05
2.26887e-05
2.27074e-05
2.27297e-05
2.27566e-05
2.12571e-05
1.98771e-05
2.01605e-05
2.04287e-05
2.06819e-05
2.09205e-05
2.11446e-05
2.1354e-05
2.15481e-05
2.1725e-05
2.18821e-05
2.20154e-05
2.21201e-05
2.21915e-05
2.22261e-05
2.22232e-05
2.21855e-05
2.21191e-05
2.20308e-05
2.19272e-05
2.18168e-05
2.17244e-05
2.17116e-05
2.18689e-05
2.22367e-05
2.26706e-05
2.28474e-05
2.26e-05
2.21762e-05
2.19614e-05
2.209e-05
2.23369e-05
2.26015e-05
2.283e-05
2.29625e-05
2.29731e-05
2.29189e-05
2.2884e-05
2.28916e-05
2.28991e-05
2.28637e-05
2.2791e-05
2.27191e-05
2.26757e-05
2.26633e-05
2.26704e-05
2.26862e-05
2.27055e-05
2.27286e-05
2.27564e-05
2.12418e-05
1.98645e-05
2.01482e-05
2.04168e-05
2.06704e-05
2.09093e-05
2.11336e-05
2.13434e-05
2.15377e-05
2.17149e-05
2.18722e-05
2.20058e-05
2.2111e-05
2.2183e-05
2.22182e-05
2.22158e-05
2.21781e-05
2.21109e-05
2.2021e-05
2.19152e-05
2.18037e-05
2.17143e-05
2.17107e-05
2.18811e-05
2.22564e-05
2.26842e-05
2.28466e-05
2.25911e-05
2.21682e-05
2.19533e-05
2.20802e-05
2.23288e-05
2.25984e-05
2.28309e-05
2.29644e-05
2.29737e-05
2.29178e-05
2.28822e-05
2.28902e-05
2.28982e-05
2.28624e-05
2.27885e-05
2.27154e-05
2.26715e-05
2.26593e-05
2.2667e-05
2.26835e-05
2.27036e-05
2.27274e-05
2.27561e-05
2.12269e-05
1.98522e-05
2.01364e-05
2.04053e-05
2.06592e-05
2.08984e-05
2.11231e-05
2.13331e-05
2.15276e-05
2.17051e-05
2.18627e-05
2.19967e-05
2.21024e-05
2.21751e-05
2.2211e-05
2.22092e-05
2.21717e-05
2.21039e-05
2.20125e-05
2.19047e-05
2.17925e-05
2.17063e-05
2.17118e-05
2.18946e-05
2.22768e-05
2.26976e-05
2.2844e-05
2.2579e-05
2.21567e-05
2.19429e-05
2.20699e-05
2.23208e-05
2.25955e-05
2.28319e-05
2.29662e-05
2.2974e-05
2.29163e-05
2.28801e-05
2.28886e-05
2.28971e-05
2.28608e-05
2.27858e-05
2.27115e-05
2.2667e-05
2.2655e-05
2.26634e-05
2.26806e-05
2.27015e-05
2.27261e-05
2.27557e-05
2.12125e-05
1.98404e-05
2.01249e-05
2.03942e-05
2.06485e-05
2.0888e-05
2.1113e-05
2.13232e-05
2.15181e-05
2.16958e-05
2.18538e-05
2.19882e-05
2.20945e-05
2.21679e-05
2.22047e-05
2.22036e-05
2.21664e-05
2.20981e-05
2.20054e-05
2.18959e-05
2.17831e-05
2.17002e-05
2.17144e-05
2.19086e-05
2.22966e-05
2.27092e-05
2.28387e-05
2.25634e-05
2.21421e-05
2.1931e-05
2.20596e-05
2.23133e-05
2.2593e-05
2.28331e-05
2.2968e-05
2.29741e-05
2.29146e-05
2.28777e-05
2.28867e-05
2.28957e-05
2.28591e-05
2.27828e-05
2.27072e-05
2.26622e-05
2.26505e-05
2.26596e-05
2.26776e-05
2.26992e-05
2.27247e-05
2.27553e-05
2.11988e-05
1.98291e-05
2.0114e-05
2.03836e-05
2.06383e-05
2.08781e-05
2.11034e-05
2.13139e-05
2.15091e-05
2.16871e-05
2.18455e-05
2.19804e-05
2.20874e-05
2.21616e-05
2.21994e-05
2.21991e-05
2.21624e-05
2.20938e-05
2.19998e-05
2.18888e-05
2.17757e-05
2.1696e-05
2.17183e-05
2.19227e-05
2.23146e-05
2.27177e-05
2.28297e-05
2.25447e-05
2.21252e-05
2.19182e-05
2.20497e-05
2.23064e-05
2.2591e-05
2.28347e-05
2.29699e-05
2.2974e-05
2.29125e-05
2.2875e-05
2.28846e-05
2.28942e-05
2.28571e-05
2.27795e-05
2.27027e-05
2.26572e-05
2.26457e-05
2.26556e-05
2.26744e-05
2.26968e-05
2.27231e-05
2.27548e-05
2.11856e-05
1.98183e-05
2.01035e-05
2.03735e-05
2.06286e-05
2.08688e-05
2.10944e-05
2.13052e-05
2.15007e-05
2.16791e-05
2.18379e-05
2.19734e-05
2.20811e-05
2.21563e-05
2.21951e-05
2.21958e-05
2.21596e-05
2.20908e-05
2.19959e-05
2.18835e-05
2.17702e-05
2.16936e-05
2.17232e-05
2.1936e-05
2.23299e-05
2.27222e-05
2.28171e-05
2.25234e-05
2.21071e-05
2.19053e-05
2.20406e-05
2.23005e-05
2.25897e-05
2.28366e-05
2.29718e-05
2.29738e-05
2.29102e-05
2.28722e-05
2.28824e-05
2.28924e-05
2.28549e-05
2.2776e-05
2.26979e-05
2.26519e-05
2.26407e-05
2.26513e-05
2.2671e-05
2.26942e-05
2.27215e-05
2.27543e-05
2.11729e-05
1.98079e-05
2.00935e-05
2.0364e-05
2.06193e-05
2.08599e-05
2.10859e-05
2.12971e-05
2.14929e-05
2.16718e-05
2.1831e-05
2.19672e-05
2.20757e-05
2.21519e-05
2.21918e-05
2.21935e-05
2.2158e-05
2.20892e-05
2.19934e-05
2.18799e-05
2.17665e-05
2.16927e-05
2.17287e-05
2.19481e-05
2.23419e-05
2.27224e-05
2.28011e-05
2.25006e-05
2.20886e-05
2.1893e-05
2.20325e-05
2.22956e-05
2.25892e-05
2.2839e-05
2.29739e-05
2.29735e-05
2.29077e-05
2.2869e-05
2.28799e-05
2.28905e-05
2.28524e-05
2.27721e-05
2.26927e-05
2.26462e-05
2.26354e-05
2.26468e-05
2.26674e-05
2.26915e-05
2.27196e-05
2.27536e-05
2.11607e-05
1.97979e-05
2.00839e-05
2.03548e-05
2.06106e-05
2.08516e-05
2.1078e-05
2.12896e-05
2.14858e-05
2.16651e-05
2.18249e-05
2.19617e-05
2.20711e-05
2.21483e-05
2.21895e-05
2.21924e-05
2.21576e-05
2.20889e-05
2.19924e-05
2.18779e-05
2.17645e-05
2.16933e-05
2.17344e-05
2.19586e-05
2.23502e-05
2.27184e-05
2.27824e-05
2.24771e-05
2.20707e-05
2.18817e-05
2.20257e-05
2.22918e-05
2.25895e-05
2.28419e-05
2.29762e-05
2.2973e-05
2.2905e-05
2.28657e-05
2.28772e-05
2.28884e-05
2.28497e-05
2.2768e-05
2.26872e-05
2.26402e-05
2.26298e-05
2.2642e-05
2.26635e-05
2.26885e-05
2.27177e-05
2.27528e-05
2.11487e-05
1.97882e-05
2.00747e-05
2.0346e-05
2.06022e-05
2.08436e-05
2.10705e-05
2.12825e-05
2.14792e-05
2.1659e-05
2.18194e-05
2.19569e-05
2.20673e-05
2.21456e-05
2.2188e-05
2.21921e-05
2.21582e-05
2.20897e-05
2.19927e-05
2.18773e-05
2.17639e-05
2.16948e-05
2.17401e-05
2.19672e-05
2.2355e-05
2.27107e-05
2.27619e-05
2.24539e-05
2.20539e-05
2.18716e-05
2.20199e-05
2.22889e-05
2.25906e-05
2.28453e-05
2.29786e-05
2.29724e-05
2.2902e-05
2.28621e-05
2.28744e-05
2.28861e-05
2.28468e-05
2.27635e-05
2.26813e-05
2.26338e-05
2.26238e-05
2.2637e-05
2.26594e-05
2.26854e-05
2.27155e-05
2.27518e-05
2.1137e-05
1.97786e-05
2.00656e-05
2.03374e-05
2.05941e-05
2.0836e-05
2.10633e-05
2.12759e-05
2.14731e-05
2.16534e-05
2.18145e-05
2.19528e-05
2.2064e-05
2.21436e-05
2.21873e-05
2.21926e-05
2.21596e-05
2.20913e-05
2.19938e-05
2.18777e-05
2.17643e-05
2.1697e-05
2.17454e-05
2.19739e-05
2.23565e-05
2.26999e-05
2.27403e-05
2.24316e-05
2.20384e-05
2.18627e-05
2.20151e-05
2.2287e-05
2.25924e-05
2.28492e-05
2.29811e-05
2.29717e-05
2.28988e-05
2.28584e-05
2.28714e-05
2.28836e-05
2.28435e-05
2.27587e-05
2.26751e-05
2.26271e-05
2.26176e-05
2.26316e-05
2.26551e-05
2.2682e-05
2.27132e-05
2.27508e-05
2.11253e-05
1.97691e-05
2.00566e-05
2.03289e-05
2.05862e-05
2.08286e-05
2.10564e-05
2.12695e-05
2.14673e-05
2.16482e-05
2.18099e-05
2.1949e-05
2.20613e-05
2.2142e-05
2.2187e-05
2.21935e-05
2.21614e-05
2.20934e-05
2.19955e-05
2.18787e-05
2.17652e-05
2.16993e-05
2.17501e-05
2.19788e-05
2.23553e-05
2.2687e-05
2.27181e-05
2.24102e-05
2.20243e-05
2.18548e-05
2.20111e-05
2.22858e-05
2.25948e-05
2.28534e-05
2.29837e-05
2.29709e-05
2.28954e-05
2.28544e-05
2.28682e-05
2.28808e-05
2.284e-05
2.27535e-05
2.26685e-05
2.262e-05
2.26109e-05
2.2626e-05
2.26504e-05
2.26783e-05
2.27106e-05
2.27495e-05
2.11135e-05
1.97596e-05
2.00476e-05
2.03204e-05
2.05783e-05
2.08213e-05
2.10497e-05
2.12633e-05
2.14616e-05
2.16432e-05
2.18056e-05
2.19455e-05
2.20588e-05
2.21406e-05
2.21868e-05
2.21945e-05
2.21633e-05
2.20955e-05
2.19972e-05
2.18797e-05
2.17661e-05
2.17014e-05
2.1754e-05
2.19821e-05
2.23521e-05
2.26724e-05
2.26958e-05
2.23897e-05
2.20113e-05
2.18477e-05
2.20075e-05
2.22851e-05
2.25978e-05
2.2858e-05
2.29863e-05
2.29699e-05
2.28917e-05
2.28503e-05
2.28648e-05
2.28779e-05
2.28363e-05
2.2748e-05
2.26614e-05
2.26125e-05
2.26039e-05
2.262e-05
2.26455e-05
2.26744e-05
2.27079e-05
2.27482e-05
2.11015e-05
1.975e-05
2.00385e-05
2.03119e-05
2.05703e-05
2.08139e-05
2.10429e-05
2.12571e-05
2.14561e-05
2.16382e-05
2.18013e-05
2.19421e-05
2.20562e-05
2.21392e-05
2.21866e-05
2.21954e-05
2.21648e-05
2.20973e-05
2.19985e-05
2.18802e-05
2.17664e-05
2.17028e-05
2.1757e-05
2.19841e-05
2.23473e-05
2.26567e-05
2.26731e-05
2.23696e-05
2.19989e-05
2.18409e-05
2.20042e-05
2.22847e-05
2.26011e-05
2.28628e-05
2.29889e-05
2.29687e-05
2.28878e-05
2.2846e-05
2.28613e-05
2.28748e-05
2.28322e-05
2.2742e-05
2.2654e-05
2.26046e-05
2.25966e-05
2.26137e-05
2.26403e-05
2.26703e-05
2.27049e-05
2.27466e-05
2.10893e-05
1.97401e-05
2.00293e-05
2.03033e-05
2.05623e-05
2.08065e-05
2.1036e-05
2.12509e-05
2.14504e-05
2.16332e-05
2.1797e-05
2.19385e-05
2.20535e-05
2.21374e-05
2.21859e-05
2.21956e-05
2.21657e-05
2.20982e-05
2.19987e-05
2.18796e-05
2.17656e-05
2.17032e-05
2.1759e-05
2.19851e-05
2.23416e-05
2.26402e-05
2.26502e-05
2.23496e-05
2.19866e-05
2.18343e-05
2.20011e-05
2.22847e-05
2.26048e-05
2.28677e-05
2.29915e-05
2.29673e-05
2.28837e-05
2.28414e-05
2.28576e-05
2.28715e-05
2.28278e-05
2.27357e-05
2.2646e-05
2.25962e-05
2.25888e-05
2.2607e-05
2.26348e-05
2.26658e-05
2.27016e-05
2.27448e-05
2.10767e-05
1.973e-05
2.00198e-05
2.02944e-05
2.0554e-05
2.07988e-05
2.10289e-05
2.12444e-05
2.14445e-05
2.16278e-05
2.17923e-05
2.19345e-05
2.20503e-05
2.21351e-05
2.21845e-05
2.2195e-05
2.21656e-05
2.20979e-05
2.19976e-05
2.18775e-05
2.17634e-05
2.17023e-05
2.17601e-05
2.19855e-05
2.23353e-05
2.26231e-05
2.26266e-05
2.23292e-05
2.19741e-05
2.18275e-05
2.19979e-05
2.22849e-05
2.26087e-05
2.28728e-05
2.2994e-05
2.29656e-05
2.28793e-05
2.28367e-05
2.28538e-05
2.28679e-05
2.2823e-05
2.27289e-05
2.26376e-05
2.25874e-05
2.25806e-05
2.26e-05
2.26289e-05
2.2661e-05
2.26981e-05
2.27428e-05
2.10638e-05
1.97196e-05
2.001e-05
2.02852e-05
2.05455e-05
2.07908e-05
2.10216e-05
2.12376e-05
2.14382e-05
2.16222e-05
2.17872e-05
2.193e-05
2.20465e-05
2.21321e-05
2.21822e-05
2.21934e-05
2.21642e-05
2.20961e-05
2.19949e-05
2.18738e-05
2.17597e-05
2.17003e-05
2.17605e-05
2.19855e-05
2.23287e-05
2.26055e-05
2.26022e-05
2.2308e-05
2.19611e-05
2.18204e-05
2.19948e-05
2.22853e-05
2.26128e-05
2.28779e-05
2.29963e-05
2.29637e-05
2.28746e-05
2.28317e-05
2.28497e-05
2.28641e-05
2.28179e-05
2.27217e-05
2.26287e-05
2.25781e-05
2.2572e-05
2.25925e-05
2.26227e-05
2.26559e-05
2.26942e-05
2.27406e-05
2.10504e-05
1.97089e-05
1.99999e-05
2.02757e-05
2.05366e-05
2.07826e-05
2.10139e-05
2.12304e-05
2.14316e-05
2.1616e-05
2.17815e-05
2.19249e-05
2.2042e-05
2.21282e-05
2.21789e-05
2.21905e-05
2.21613e-05
2.20927e-05