/*--------------------------------*- C++ -*----------------------------------*\
  =========                 |
  \\      /  F ield         | OpenFOAM: The Open Source CFD Toolbox
   \\    /   O peration     | Website:  https://openfoam.org
    \\  /    A nd           | Version:  9
     \\/     M anipulation  |
\*---------------------------------------------------------------------------*/
FoamFile
{
    format      ascii;
    class       volVectorField;
    location    "0.14";
    object      U;
}
// * * * * * * * * * * * * * * * * * * * * * * * * * * * * * * * * * * * * * //

dimensions      [0 1 -1 0 0 0 0];

internalField   nonuniform List<vector> 
5000
(
(7.45635e-05 0 -0.00475872)
(0.000100823 0 -0.00743258)
(0.000115426 0 -0.0110814)
(0.000128699 0 -0.0154707)
(0.000144374 0 -0.0205007)
(0.000162772 0 -0.026141)
(0.000181882 0 -0.0322919)
(0.000197318 0 -0.0386164)
(0.000202862 0 -0.0443044)
(0.000194262 0 -0.0477737)
(0.00017915 0 -0.0464656)
(0.000190581 0 -0.0370912)
(0.000289659 0 -0.0166941)
(0.000533241 0 0.0156958)
(0.000919206 0 0.0580022)
(0.00137103 0 0.105865)
(0.00178554 0 0.154683)
(0.00209467 0 0.201376)
(0.00228603 0 0.244801)
(0.00237897 0 0.285168)
(0.00238591 0 0.323287)
(0.00226445 0 0.360208)
(0.00181811 0 0.396533)
(0.00092551 0 0.425414)
(-0.00177106 0 0.400817)
(0.0112851 0 0.0983873)
(-8.75323e-05 0 -0.731933)
(-0.0111538 0 0.0410426)
(0.00227127 0 0.406152)
(-0.000964162 0 0.428337)
(-0.00185029 0 0.381806)
(-0.00204023 0 0.321959)
(-0.00180351 0 0.260333)
(-0.0013525 0 0.197339)
(-0.000784428 0 0.147306)
(-0.000324054 0 0.127811)
(-0.000104912 0 0.130824)
(-6.42341e-05 0 0.13404)
(-4.37753e-05 0 0.130171)
(5.12522e-05 0 0.128565)
(0.000179227 0 0.138296)
(0.000248036 0 0.155939)
(0.000222033 0 0.172278)
(0.000137929 0 0.182449)
(4.99511e-05 0 0.186708)
(-1.49216e-05 0 0.187042)
(-5.54171e-05 0 0.185183)
(-7.97935e-05 0 0.182096)
(-9.34701e-05 0 0.178122)
(-9.39944e-05 0 0.173414)
(0.000416691 0 -0.00495676)
(0.000478153 0 -0.00752421)
(0.000516809 0 -0.0111421)
(0.000552043 0 -0.0155226)
(0.000594754 0 -0.0205526)
(0.000647429 0 -0.0261891)
(0.000708067 0 -0.0323225)
(0.000771206 0 -0.038608)
(0.000829002 0 -0.0442329)
(0.000876661 0 -0.04763)
(0.000926771 0 -0.046287)
(0.00102991 0 -0.0369861)
(0.00128125 0 -0.0168121)
(0.0017783 0 0.0152637)
(0.0025393 0 0.0573134)
(0.00345675 0 0.105089)
(0.00435128 0 0.15398)
(0.00507484 0 0.200808)
(0.00556057 0 0.244347)
(0.00580013 0 0.284781)
(0.00578343 0 0.322958)
(0.00542627 0 0.360037)
(0.00450134 0 0.396731)
(0.00402701 0 0.425592)
(-0.00153356 0 0.397012)
(0.0237746 0 0.0833295)
(-0.000732417 0 -0.693111)
(-0.0234063 0 0.0270073)
(0.00332705 0 0.402818)
(-0.00377602 0 0.428492)
(-0.0042818 0 0.381728)
(-0.00499782 0 0.321474)
(-0.00452873 0 0.2598)
(-0.00350737 0 0.196813)
(-0.00223911 0 0.146886)
(-0.00118524 0 0.127519)
(-0.00058315 0 0.13061)
(-0.0003384 0 0.133857)
(-0.000186476 0 0.129967)
(5.32511e-05 0 0.128327)
(0.000331937 0 0.138031)
(0.000495116 0 0.155677)
(0.000464367 0 0.172028)
(0.000298126 0 0.182195)
(0.000104809 0 0.186431)
(-5.08447e-05 0 0.186742)
(-0.000155466 0 0.184866)
(-0.000219055 0 0.181768)
(-0.000249623 0 0.177786)
(-0.000241997 0 0.173068)
(0.000891817 0 -0.0051326)
(0.0009626 0 -0.00766608)
(0.00101496 0 -0.0112717)
(0.00106766 0 -0.0156652)
(0.00113376 0 -0.020722)
(0.00121656 0 -0.0263837)
(0.00131447 0 -0.0325306)
(0.00142245 0 -0.038812)
(0.00153314 0 -0.0444192)
(0.00164291 0 -0.0478128)
(0.00176767 0 -0.0465446)
(0.0019657 0 -0.0374806)
(0.00234621 0 -0.0177372)
(0.00302453 0 0.0138235)
(0.00402781 0 0.0555054)
(0.00523691 0 0.10324)
(0.00643849 0 0.152414)
(0.0074394 0 0.199702)
(0.00813416 0 0.243729)
(0.00849111 0 0.284621)
(0.00849391 0 0.323273)
(0.00803973 0 0.360989)
(0.00669821 0 0.398606)
(0.00712287 0 0.427314)
(-0.00151068 0 0.392411)
(0.0301924 0 0.0656452)
(-0.00102993 0 -0.643404)
(-0.0297867 0 0.00947599)
(0.00419174 0 0.398307)
(-0.00660725 0 0.430655)
(-0.00613925 0 0.383129)
(-0.00746854 0 0.32149)
(-0.00677408 0 0.259218)
(-0.00535054 0 0.195845)
(-0.0035854 0 0.145904)
(-0.00209194 0 0.126829)
(-0.00116583 0 0.130267)
(-0.000707424 0 0.133716)
(-0.000405857 0 0.129824)
(-3.31523e-05 0 0.12813)
(0.00036558 0 0.137868)
(0.000607699 0 0.155657)
(0.00058758 0 0.172163)
(0.000374912 0 0.182405)
(0.000112587 0 0.186638)
(-0.000107884 0 0.186912)
(-0.000261206 0 0.184997)
(-0.000354561 0 0.181868)
(-0.000395666 0 0.177856)
(-0.000377186 0 0.173098)
(0.00141837 0 -0.0053079)
(0.00149142 0 -0.00784233)
(0.00155318 0 -0.0114513)
(0.00162007 0 -0.0158711)
(0.00170525 0 -0.0209695)
(0.00181231 0 -0.0266736)
(0.00194026 0 -0.0328528)
(0.00208476 0 -0.0391512)
(0.00223952 0 -0.0447657)
(0.00240319 0 -0.0481867)
(0.00259562 0 -0.0470305)
(0.00288069 0 -0.0382461)
(0.00337492 0 -0.018981)
(0.00420222 0 0.0120109)
(0.00539466 0 0.0532727)
(0.00682643 0 0.100943)
(0.00826169 0 0.150432)
(0.00947564 0 0.198277)
(0.0103351 0 0.24294)
(0.0107909 0 0.284465)
(0.0108263 0 0.323775)
(0.0103454 0 0.362288)
(0.008382 0 0.400981)
(0.00954624 0 0.429481)
(-0.00202377 0 0.387623)
(0.0328341 0 0.0503722)
(-0.000687973 0 -0.595413)
(-0.0324373 0 -0.00518191)
(0.00497736 0 0.39344)
(-0.00904683 0 0.433451)
(-0.00768222 0 0.384956)
(-0.00976149 0 0.321586)
(-0.00876074 0 0.25849)
(-0.00700871 0 0.194555)
(-0.00482148 0 0.144567)
(-0.00295822 0 0.125857)
(-0.00176464 0 0.129746)
(-0.00112831 0 0.133471)
(-0.000690335 0 0.129605)
(-0.000186649 0 0.127872)
(0.000328452 0 0.137677)
(0.000643629 0 0.155666)
(0.000634786 0 0.172382)
(0.00038679 0 0.182733)
(7.23986e-05 0 0.186973)
(-0.000196497 0 0.187204)
(-0.000385914 0 0.185237)
(-0.000500552 0 0.182062)
(-0.000547675 0 0.178004)
(-0.000517281 0 0.173188)
(0.00196707 0 -0.00547871)
(0.00203962 0 -0.00803193)
(0.00210863 0 -0.011657)
(0.0021875 0 -0.0161107)
(0.00228843 0 -0.0212575)
(0.00241537 0 -0.027011)
(0.00256835 0 -0.03323)
(0.00274414 0 -0.0395534)
(0.00293805 0 -0.045184)
(0.0031511 0 -0.048641)
(0.00340585 0 -0.0476035)
(0.00376789 0 -0.0391006)
(0.00435421 0 -0.0203135)
(0.00529128 0 0.0100998)
(0.00661748 0 0.0509106)
(0.00821016 0 0.0984704)
(0.00982305 0 0.148238)
(0.0112074 0 0.196631)
(0.0122031 0 0.241945)
(0.0127359 0 0.284139)
(0.0127723 0 0.324152)
(0.012301 0 0.363492)
(0.00960872 0 0.403318)
(0.0113694 0 0.431787)
(-0.00230146 0 0.382949)
(0.033258 0 0.0378807)
(-0.000137801 0 -0.55123)
(-0.0329331 0 -0.0168221)
(0.00525524 0 0.388531)
(-0.0110697 0 0.436336)
(-0.00896566 0 0.386636)
(-0.0118657 0 0.321539)
(-0.0105099 0 0.257599)
(-0.00850655 0 0.193078)
(-0.00596131 0 0.143061)
(-0.00379495 0 0.124726)
(-0.00237891 0 0.129069)
(-0.00158694 0 0.133079)
(-0.00102262 0 0.129259)
(-0.000397025 0 0.127502)
(0.000223611 0 0.137383)
(0.000605361 0 0.155576)
(0.000610968 0 0.172507)
(0.000338724 0 0.182974)
(-1.38538e-05 0 0.187223)
(-0.000318474 0 0.187409)
(-0.000534012 0 0.185386)
(-0.00066282 0 0.182158)
(-0.000711337 0 0.178044)
(-0.0006672 0 0.173162)
(0.00251669 0 -0.00564356)
(0.0025881 0 -0.00822949)
(0.00266256 0 -0.0118849)
(0.00275168 0 -0.0163817)
(0.00286621 0 -0.0215834)
(0.00301042 0 -0.0273932)
(0.00318528 0 -0.0336598)
(0.00338864 0 -0.0400173)
(0.00361729 0 -0.0456747)
(0.00387399 0 -0.04918)
(0.00418259 0 -0.0482728)
(0.00460812 0 -0.0400593)
(0.00526457 0 -0.0217548)
(0.00627786 0 0.00807138)
(0.007693 0 0.0484094)
(0.00939645 0 0.0958298)
(0.0111403 0 0.145858)
(0.0126581 0 0.194804)
(0.0137654 0 0.2408)
(0.0143611 0 0.283708)
(0.0143724 0 0.324497)
(0.013959 0 0.364769)
(0.0105958 0 0.405842)
(0.0127258 0 0.434544)
(-0.00210044 0 0.378565)
(0.0326839 0 0.0272295)
(0.000365014 0 -0.510225)
(-0.0325502 0 -0.0262971)
(0.00498503 0 0.383867)
(-0.0127204 0 0.439566)
(-0.0101231 0 0.38829)
(-0.0137732 0 0.321435)
(-0.012044 0 0.256567)
(-0.00986249 0 0.191433)
(-0.00702017 0 0.141404)
(-0.00461733 0 0.123462)
(-0.00301346 0 0.128269)
(-0.00207607 0 0.132574)
(-0.00139147 0 0.128811)
(-0.000657868 0 0.127043)
(5.26097e-05 0 0.13701)
(0.000494753 0 0.155416)
(0.000519929 0 0.172576)
(0.000234772 0 0.183167)
(-0.000143916 0 0.187427)
(-0.000473997 0 0.187567)
(-0.000707709 0 0.185482)
(-0.00084483 0 0.182195)
(-0.000890538 0 0.178019)
(-0.000830423 0 0.173063)
(0.00304382 0 -0.00580454)
(0.003114 0 -0.00843374)
(0.00319238 0 -0.0121339)
(0.00328989 0 -0.0166841)
(0.00341606 0 -0.0219488)
(0.0035751 0 -0.027823)
(0.0037685 0 -0.0341466)
(0.00399497 0 -0.0405494)
(0.00425244 0 -0.0462472)
(0.00454492 0 -0.0498165)
(0.00489694 0 -0.0490549)
(0.00537261 0 -0.0411421)
(0.00608273 0 -0.0233269)
(0.00715173 0 0.00590357)
(0.00863065 0 0.0457511)
(0.0104163 0 0.0930112)
(0.0122632 0 0.143295)
(0.0138915 0 0.192817)
(0.0150963 0 0.239547)
(0.0157585 0 0.283243)
(0.0157436 0 0.324908)
(0.0154251 0 0.366266)
(0.0115363 0 0.408721)
(0.0136923 0 0.437841)
(-0.00140788 0 0.37448)
(0.031843 0 0.0181029)
(0.000807081 0 -0.47194)
(-0.0319971 0 -0.0339034)
(0.00421834 0 0.379527)
(-0.0140295 0 0.443281)
(-0.0113108 0 0.390085)
(-0.0155316 0 0.321368)
(-0.0134271 0 0.255413)
(-0.0111065 0 0.189619)
(-0.00800894 0 0.13959)
(-0.00542289 0 0.12207)
(-0.00365867 0 0.127368)
(-0.00258568 0 0.131987)
(-0.00178879 0 0.128293)
(-0.000961413 0 0.126525)
(-0.000174736 0 0.136592)
(0.000323313 0 0.155234)
(0.000371834 0 0.172644)
(8.13427e-05 0 0.183374)
(-0.000315377 0 0.187651)
(-0.000663528 0 0.187741)
(-0.000909216 0 0.185589)
(-0.0010499 0 0.182236)
(-0.0010893 0 0.177991)
(-0.00101111 0 0.172951)
(0.00352742 0 -0.0059619)
(0.00359648 0 -0.00864224)
(0.00367751 0 -0.0123992)
(0.00378162 0 -0.0170131)
(0.00391741 0 -0.0223484)
(0.00408872 0 -0.0282941)
(0.00429728 0 -0.0346828)
(0.00454249 0 -0.0411409)
(0.00482324 0 -0.0468909)
(0.00514461 0 -0.0505372)
(0.00553164 0 -0.049933)
(0.00604748 0 -0.042328)
(0.00680014 0 -0.0250048)
(0.0079125 0 0.00362485)
(0.00944114 0 0.0429651)
(0.0112938 0 0.0900417)
(0.01323 0 0.140568)
(0.0149601 0 0.190681)
(0.0162607 0 0.23819)
(0.0170045 0 0.282738)
(0.0169827 0 0.325363)
(0.0167657 0 0.367957)
(0.0125396 0 0.411928)
(0.0143866 0 0.441508)
(-0.000147431 0 0.370588)
(0.0310291 0 0.0106121)
(0.00125774 0 -0.436097)
(-0.0314815 0 -0.0395969)
(0.00286695 0 0.375419)
(-0.0150677 0 0.447373)
(-0.0126327 0 0.392053)
(-0.0171869 0 0.32134)
(-0.0147237 0 0.254136)
(-0.012265 0 0.187654)
(-0.00893544 0 0.137639)
(-0.0062027 0 0.120567)
(-0.00430128 0 0.126375)
(-0.00310595 0 0.131326)
(-0.00220747 0 0.127718)
(-0.00129886 0 0.125961)
(-0.000446417 0 0.136142)
(0.000103361 0 0.155039)
(0.000176471 0 0.172723)
(-0.000115752 0 0.183607)
(-0.000526113 0 0.187905)
(-0.000887468 0 0.187943)
(-0.00114043 0 0.18572)
(-0.00128078 0 0.182295)
(-0.00131095 0 0.177974)
(-0.00121276 0 0.172842)
(0.00395309 0 -0.00611665)
(0.00402156 0 -0.00885323)
(0.00410458 0 -0.0126764)
(0.00421393 0 -0.0173629)
(0.00435763 0 -0.0227752)
(0.00453914 0 -0.0287977)
(0.00476028 0 -0.0352575)
(0.00502106 0 -0.0417778)
(0.00532128 0 -0.0475886)
(0.00566696 0 -0.0513209)
(0.00608345 0 -0.0508812)
(0.0066326 0 -0.0435864)
(0.0074194 0 -0.0267525)
(0.0085648 0 0.0012757)
(0.0101305 0 0.0400939)
(0.0120365 0 0.0869589)
(0.0140507 0 0.137702)
(0.0158781 0 0.188404)
(0.0172776 0 0.236712)
(0.0181197 0 0.282152)
(0.0181227 0 0.325792)
(0.0179929 0 0.369748)
(0.0136397 0 0.415353)
(0.014958 0 0.445272)
(0.00176827 0 0.366713)
(0.0303275 0 0.004952)
(0.00174432 0 -0.402428)
(-0.0309976 0 -0.0431837)
(0.000766435 0 0.371413)
(-0.0159636 0 0.451601)
(-0.014123 0 0.394151)
(-0.0187531 0 0.321293)
(-0.0159673 0 0.252721)
(-0.0133506 0 0.185552)
(-0.00980546 0 0.135576)
(-0.00695075 0 0.118974)
(-0.00493352 0 0.125302)
(-0.00363152 0 0.130595)
(-0.00264281 0 0.127086)
(-0.00166339 0 0.125354)
(-0.000754144 0 0.135659)
(-0.000158144 0 0.154823)
(-6.14581e-05 0 0.172798)
(-0.000353843 0 0.183851)
(-0.000774971 0 0.188173)
(-0.00114593 0 0.188158)
(-0.00140241 0 0.185858)
(-0.00153914 0 0.182356)
(-0.0015575 0 0.177951)
(-0.00143738 0 0.17272)
(0.00431241 0 -0.00627061)
(0.00438105 0 -0.0090668)
(0.00446586 0 -0.0129632)
(0.00457947 0 -0.0177291)
(0.00472975 0 -0.0232238)
(0.00491983 0 -0.0293275)
(0.00515161 0 -0.0358628)
(0.00542559 0 -0.0424511)
(0.00574237 0 -0.0483293)
(0.0061088 0 -0.0521548)
(0.00655032 0 -0.0518845)
(0.00712707 0 -0.044899)
(0.00794053 0 -0.0285485)
(0.00910896 0 -0.00111823)
(0.0106985 0 0.0371665)
(0.0126421 0 0.0837895)
(0.0147202 0 0.134716)
(0.016637 0 0.185987)
(0.0181363 0 0.235099)
(0.019088 0 0.281451)
(0.0191522 0 0.326143)
(0.0190899 0 0.371558)
(0.0148165 0 0.418879)
(0.0155309 0 0.448859)
(0.00432656 0 0.362707)
(0.0297526 0 0.00132836)
(0.00222642 0 -0.370633)
(-0.0305208 0 -0.0444107)
(-0.00215271 0 0.367451)
(-0.0168603 0 0.45569)
(-0.0157609 0 0.396325)
(-0.0202234 0 0.321173)
(-0.0171648 0 0.251152)
(-0.0143668 0 0.183319)
(-0.010624 0 0.133416)
(-0.00766499 0 0.117309)
(-0.00555259 0 0.124161)
(-0.00416109 0 0.129801)
(-0.00309338 0 0.126402)
(-0.00205166 0 0.124706)
(-0.00109348 0 0.135142)
(-0.000458361 0 0.154583)
(-0.000340892 0 0.172861)
(-0.000632365 0 0.184092)
(-0.00106159 0 0.188443)
(-0.00143892 0 0.188371)
(-0.00169564 0 0.185991)
(-0.00182583 0 0.182407)
(-0.00182994 0 0.177914)
(-0.00168597 0 0.172575)
(0.00459958 0 -0.00642552)
(0.00466895 0 -0.00928366)
(0.00475537 0 -0.013258)
(0.00487236 0 -0.0181089)
(0.00502786 0 -0.0236904)
(0.00522482 0 -0.0298792)
(0.00546518 0 -0.0364941)
(0.00574981 0 -0.0431551)
(0.00608001 0 -0.0491069)
(0.00646329 0 -0.0530316)
(0.00692505 0 -0.0529343)
(0.00752355 0 -0.0462561)
(0.00835639 0 -0.0303805)
(0.00953851 0 -0.00354114)
(0.0111393 0 0.0342028)
(0.013105 0 0.080555)
(0.0152306 0 0.131626)
(0.017225 0 0.183439)
(0.0188206 0 0.233344)
(0.0198859 0 0.280615)
(0.0200443 0 0.326386)
(0.0200326 0 0.373325)
(0.0160141 0 0.422375)
(0.0161814 0 0.452013)
(0.00736874 0 0.358535)
(0.0292791 0 -9.95256e-05)
(0.00263833 0 -0.340406)
(-0.0300523 0 -0.0430666)
(-0.00577391 0 0.363576)
(-0.0178656 0 0.459385)
(-0.0174916 0 0.398509)
(-0.0215869 0 0.320941)
(-0.0183114 0 0.249424)
(-0.0153154 0 0.180956)
(-0.0113961 0 0.131168)
(-0.00834576 0 0.115583)
(-0.00615763 0 0.122966)
(-0.00469483 0 0.128954)
(-0.00355981 0 0.125674)
(-0.00246291 0 0.124022)
(-0.00146216 0 0.134597)
(-0.000795282 0 0.154323)
(-0.000660976 0 0.172915)
(-0.000950961 0 0.184333)
(-0.00138569 0 0.188713)
(-0.00176634 0 0.188582)
(-0.00202036 0 0.186118)
(-0.00214135 0 0.182447)
(-0.00212895 0 0.177859)
(-0.00195937 0 0.172408)
(0.00480851 0 -0.00658229)
(0.00487882 0 -0.00950397)
(0.00496652 0 -0.0135593)
(0.00508592 0 -0.018499)
(0.00524514 0 -0.0241711)
(0.00544704 0 -0.0304481)
(0.00569355 0 -0.0371457)
(0.00598583 0 -0.0438836)
(0.00632572 0 -0.0499139)
(0.00672127 0 -0.053943)
(0.00719778 0 -0.0540214)
(0.00781164 0 -0.0476472)
(0.00865658 0 -0.0322366)
(0.00984394 0 -0.00597815)
(0.0114454 0 0.0312217)
(0.0134192 0 0.0772773)
(0.0155764 0 0.128453)
(0.0176343 0 0.18077)
(0.019319 0 0.231448)
(0.0204944 0 0.279636)
(0.0207697 0 0.326501)
(0.0207974 0 0.374988)
(0.0171578 0 0.425697)
(0.0169234 0 0.454519)
(0.0106145 0 0.354275)
(0.0288466 0 0.000716491)
(0.00292343 0 -0.311464)
(-0.0296041 0 -0.0390962)
(-0.00981697 0 0.359907)
(-0.0190252 0 0.462481)
(-0.0192429 0 0.40062)
(-0.0228346 0 0.320574)
(-0.0193984 0 0.247543)
(-0.0161993 0 0.178472)
(-0.0121268 0 0.128839)
(-0.0089952 0 0.113806)
(-0.0067486 0 0.121728)
(-0.00523277 0 0.128067)
(-0.00404285 0 0.124908)
(-0.00289727 0 0.123307)
(-0.00185882 0 0.134029)
(-0.00116661 0 0.154049)
(-0.00101971 0 0.172964)
(-0.00130834 0 0.184574)
(-0.0017465 0 0.188985)
(-0.00212791 0 0.188793)
(-0.00237675 0 0.186239)
(-0.00248625 0 0.182478)
(-0.00245537 0 0.177791)
(-0.00225872 0 0.17222)
(0.00493283 0 -0.0067409)
(0.00500396 0 -0.00972701)
(0.00509237 0 -0.0138651)
(0.00521314 0 -0.018896)
(0.00537452 0 -0.024661)
(0.0055793 0 -0.0310283)
(0.00582939 0 -0.0378109)
(0.00612613 0 -0.0446284)
(0.00647172 0 -0.0507408)
(0.00687468 0 -0.0548779)
(0.00736013 0 -0.0551334)
(0.00798273 0 -0.049059)
(0.00883257 0 -0.0341026)
(0.0100174 0 -0.00841336)
(0.0116105 0 0.028242)
(0.0135807 0 0.0739789)
(0.015755 0 0.12522)
(0.0178616 0 0.177999)
(0.0196244 0 0.22942)
(0.0208998 0 0.278514)
(0.0213011 0 0.326478)
(0.0213615 0 0.376494)
(0.0181679 0 0.428716)
(0.0177053 0 0.456258)
(0.0137449 0 0.350066)
(0.0283737 0 0.00368062)
(0.00303694 0 -0.283564)
(-0.0291883 0 -0.0326367)
(-0.0139348 0 0.356583)
(-0.0203245 0 0.46485)
(-0.0209398 0 0.402569)
(-0.02396 0 0.320059)
(-0.0204161 0 0.245522)
(-0.0170214 0 0.175878)
(-0.0128202 0 0.126438)
(-0.00961663 0 0.111984)
(-0.00732631 0 0.12046)
(-0.00577441 0 0.127149)
(-0.00454226 0 0.124112)
(-0.00335451 0 0.122566)
(-0.00228226 0 0.133442)
(-0.00156982 0 0.153765)
(-0.00141429 0 0.17301)
(-0.00170241 0 0.184816)
(-0.00214286 0 0.189259)
(-0.00252327 0 0.189002)
(-0.00276505 0 0.186356)
(-0.00286121 0 0.182499)
(-0.00281025 0 0.177707)
(-0.00258543 0 0.172011)
(0.00496651 0 -0.00690065)
(0.00503811 0 -0.00995148)
(0.00512655 0 -0.0141731)
(0.0052477 0 -0.0192962)
(0.00540975 0 -0.0251552)
(0.00561547 0 -0.0316138)
(0.0058667 0 -0.0384823)
(0.00616484 0 -0.0453808)
(0.00651235 0 -0.0515773)
(0.00691805 0 -0.0558244)
(0.0074068 0 -0.056257)
(0.00803169 0 -0.0504773)
(0.00887947 0 -0.035964)
(0.0100546 0 -0.0108319)
(0.0116314 0 0.0252808)
(0.0135878 0 0.0706806)
(0.015766 0 0.121949)
(0.017906 0 0.175148)
(0.0197329 0 0.227279)
(0.0210934 0 0.277258)
(0.021616 0 0.326314)
(0.0217035 0 0.377812)
(0.0189705 0 0.431342)
(0.0184343 0 0.457217)
(0.0164814 0 0.346062)
(0.0277821 0 0.00856969)
(0.00295268 0 -0.256518)
(-0.0288162 0 -0.0239861)
(-0.0178174 0 0.353729)
(-0.0217077 0 0.466459)
(-0.022518 0 0.404283)
(-0.02496 0 0.319399)
(-0.0213554 0 0.243382)
(-0.0177838 0 0.173191)
(-0.0134791 0 0.123976)
(-0.0102137 0 0.110127)
(-0.00789212 0 0.119171)
(-0.00631889 0 0.12621)
(-0.00505674 0 0.12329)
(-0.00383367 0 0.121801)
(-0.0027312 0 0.132839)
(-0.00200241 0 0.153472)
(-0.00184171 0 0.173053)
(-0.00213086 0 0.18506)
(-0.00257354 0 0.189533)
(-0.00295211 0 0.189208)
(-0.00318566 0 0.186465)
(-0.00326716 0 0.182509)
(-0.00319491 0 0.177607)
(-0.00294101 0 0.17178)
(0.00490356 0 -0.00706049)
(0.00497522 0 -0.0101759)
(0.00506312 0 -0.0144808)
(0.00518377 0 -0.0196962)
(0.00534525 0 -0.0256494)
(0.00555025 0 -0.0321993)
(0.00580052 0 -0.0391537)
(0.00609743 0 -0.0461332)
(0.00644356 0 -0.0524144)
(0.00684784 0 -0.0567719)
(0.00733484 0 -0.0573801)
(0.00795609 0 -0.0518894)
(0.00879536 0 -0.0378082)
(0.00995409 0 -0.0132209)
(0.0115073 0 0.0223522)
(0.0134409 0 0.0673998)
(0.0156106 0 0.118661)
(0.0177687 0 0.172238)
(0.0196433 0 0.225043)
(0.0210704 0 0.275886)
(0.0216994 0 0.326024)
(0.0218069 0 0.378935)
(0.0195084 0 0.433543)
(0.0190136 0 0.457469)
(0.0186461 0 0.342397)
(0.0270205 0 0.0150887)
(0.0026639 0 -0.23021)
(-0.0284994 0 -0.0135419)
(-0.0212557 0 0.351427)
(-0.023102 0 0.467361)
(-0.0239324 0 0.40572)
(-0.0258353 0 0.318605)
(-0.02221 0 0.241143)
(-0.0184881 0 0.170428)
(-0.0141055 0 0.121464)
(-0.0107899 0 0.108242)
(-0.00844751 0 0.117869)
(-0.0068651 0 0.125257)
(-0.00558427 0 0.12245)
(-0.0043332 0 0.121016)
(-0.00320425 0 0.132222)
(-0.00246206 0 0.153173)
(-0.00229919 0 0.173096)
(-0.00259153 0 0.185304)
(-0.00303746 0 0.189807)
(-0.0034143 0 0.189411)
(-0.00363915 0 0.186567)
(-0.00370521 0 0.182506)
(-0.00361077 0 0.17749)
(-0.00332704 0 0.171527)
(0.00473676 0 -0.00721952)
(0.00480825 0 -0.0103989)
(0.00489522 0 -0.0147864)
(0.00501483 0 -0.0200935)
(0.00517489 0 -0.0261402)
(0.005378 0 -0.0327806)
(0.00562577 0 -0.0398198)
(0.00591948 0 -0.0468795)
(0.00626169 0 -0.0532447)
(0.00666129 0 -0.0577117)
(0.00714239 0 -0.0584928)
(0.00775501 0 -0.0532845)
(0.00858009 0 -0.0396239)
(0.00971626 0 -0.0155692)
(0.011239 0 0.0194691)
(0.013141 0 0.0641526)
(0.0152904 0 0.115377)
(0.0174512 0 0.169293)
(0.0193558 0 0.222739)
(0.0208295 0 0.274426)
(0.021543 0 0.325629)
(0.0216623 0 0.379879)
(0.0197491 0 0.435331)
(0.0193713 0 0.457135)
(0.0201784 0 0.339158)
(0.0260782 0 0.0229219)
(0.00218392 0 -0.204575)
(-0.0282504 0 -0.00173183)
(-0.0241539 0 0.349707)
(-0.024436 0 0.467653)
(-0.0251572 0 0.406867)
(-0.0265895 0 0.317701)
(-0.022977 0 0.238829)
(-0.0191364 0 0.167608)
(-0.014701 0 0.118914)
(-0.0113481 0 0.106336)
(-0.00899378 0 0.116561)
(-0.00741188 0 0.124299)
(-0.00612265 0 0.121597)
(-0.00485136 0 0.120214)
(-0.00370003 0 0.131592)
(-0.0029468 0 0.15287)
(-0.00278433 0 0.17314)
(-0.00308259 0 0.185552)
(-0.00353378 0 0.190081)
(-0.00390993 0 0.189609)
(-0.0041263 0 0.18666)
(-0.00417658 0 0.18249)
(-0.00405937 0 0.177356)
(-0.00374508 0 0.171251)
(0.00445633 0 -0.00737744)
(0.00452781 0 -0.0106201)
(0.00461384 0 -0.0150891)
(0.00473232 0 -0.0204865)
(0.00489072 0 -0.0266255)
(0.00509143 0 -0.0333549)
(0.00533596 0 -0.0404773)
(0.0056254 0 -0.0476155)
(0.00596218 0 -0.0540629)
(0.006355 0 -0.0586372)
(0.00682731 0 -0.059587)
(0.0074275 0 -0.0546532)
(0.00823366 0 -0.0414013)
(0.00934159 0 -0.0178658)
(0.010827 0 0.0166439)
(0.0126885 0 0.0609551)
(0.0148055 0 0.112116)
(0.0169533 0 0.166337)
(0.0188694 0 0.220393)
(0.0203688 0 0.272903)
(0.0211421 0 0.325156)
(0.0212645 0 0.380665)
(0.0196808 0 0.436739)
(0.019469 0 0.456337)
(0.0211097 0 0.336382)
(0.0249798 0 0.0317718)
(0.00154585 0 -0.179584)
(-0.0280773 0 0.0110444)
(-0.0265063 0 0.348546)
(-0.0256494 0 0.467453)
(-0.0261795 0 0.407734)
(-0.0272244 0 0.316711)
(-0.0236551 0 0.236465)
(-0.01973 0 0.16475)
(-0.0152668 0 0.116338)
(-0.0118905 0 0.104418)
(-0.00953186 0 0.115252)
(-0.00795811 0 0.123341)
(-0.00666974 0 0.120738)
(-0.00538634 0 0.1194)
(-0.00421729 0 0.130953)
(-0.00345518 0 0.152564)
(-0.00329543 0 0.173186)
(-0.00360271 0 0.185804)
(-0.00406199 0 0.190358)
(-0.00443928 0 0.189806)
(-0.00464798 0 0.186745)
(-0.00468259 0 0.182461)
(-0.00454226 0 0.177203)
(-0.00419671 0 0.170951)
(0.00404968 0 -0.00753486)
(0.00412166 0 -0.0108402)
(0.00420718 0 -0.0153896)
(0.00432502 0 -0.0208759)
(0.00448217 0 -0.0271053)
(0.00468079 0 -0.0339218)
(0.00492221 0 -0.0411252)
(0.0052073 0 -0.0483394)
(0.00553828 0 -0.0548664)
(0.00592347 0 -0.0595445)
(0.00638544 0 -0.0606574)
(0.00697061 0 -0.0559886)
(0.00775399 0 -0.0431312)
(0.0088283 0 -0.0200998)
(0.0102689 0 0.0138905)
(0.01208 0 0.0578242)
(0.0141515 0 0.108902)
(0.0162696 0 0.163396)
(0.0181777 0 0.218033)
(0.0196817 0 0.271348)
(0.0204888 0 0.324632)
(0.0206052 0 0.381319)
(0.0192985 0 0.437803)
(0.0192884 0 0.45517)
(0.0215174 0 0.334052)
(0.0237686 0 0.0413765)
(0.000796344 0 -0.155218)
(-0.0279785 0 0.0244469)
(-0.0283604 0 0.34788)
(-0.0266926 0 0.466865)
(-0.0269891 0 0.40835)
(-0.0277357 0 0.315667)
(-0.0242407 0 0.234075)
(-0.0202679 0 0.161874)
(-0.0158021 0 0.113748)
(-0.0124175 0 0.102494)
(-0.0100619 0 0.113947)
(-0.00850264 0 0.122389)
(-0.00722355 0 0.119878)
(-0.00593648 0 0.118579)
(-0.0047551 0 0.130305)
(-0.0039865 0 0.152257)
(-0.00383169 0 0.173238)
(-0.00415127 0 0.186062)
(-0.004622 0 0.190639)
(-0.00500284 0 0.19)
(-0.00520515 0 0.186822)
(-0.00522452 0 0.18242)
(-0.00506092 0 0.177032)
(-0.00468338 0 0.170626)
(0.00350219 0 -0.00769326)
(0.00357549 0 -0.0110612)
(0.00366126 0 -0.0156901)
(0.00377941 0 -0.0212637)
(0.00393628 0 -0.0275816)
(0.00413373 0 -0.0344828)
(0.00437288 0 -0.0417646)
(0.00465437 0 -0.049052)
(0.00498008 0 -0.055655)
(0.00535781 0 -0.0604323)
(0.00580887 0 -0.061701)
(0.00637732 0 -0.0572852)
(0.0071346 0 -0.0448058)
(0.00816978 0 -0.0222598)
(0.00955725 0 0.0112243)
(0.0113062 0 0.0547793)
(0.013317 0 0.105756)
(0.0153868 0 0.160496)
(0.0172655 0 0.215687)
(0.0187514 0 0.26979)
(0.0195647 0 0.324086)
(0.0196629 0 0.381865)
(0.0185873 0 0.438554)
(0.0188098 0 0.453691)
(0.0214789 0 0.332103)
(0.0224848 0 0.0515117)
(-1.40016e-05 0 -0.131458)
(-0.0279366 0 0.0382036)
(-0.0297785 0 0.347617)
(-0.0275215 0 0.465968)
(-0.0275698 0 0.408748)
(-0.028109 0 0.314602)
(-0.0247253 0 0.231688)
(-0.0207445 0 0.158999)
(-0.0163034 0 0.111159)
(-0.0129272 0 0.100572)
(-0.0105829 0 0.112651)
(-0.00904417 0 0.121447)
(-0.00778234 0 0.119023)
(-0.00650025 0 0.117754)
(-0.00531281 0 0.129653)
(-0.00454084 0 0.15195)
(-0.00439336 0 0.173297)
(-0.0047285 0 0.18633)
(-0.00521418 0 0.190925)
(-0.00560127 0 0.190194)
(-0.00579879 0 0.186893)
(-0.00580359 0 0.182365)
(-0.00561665 0 0.176842)
(-0.00520637 0 0.170277)
(0.00279938 0 -0.00785449)
(0.00287483 0 -0.0112856)
(0.00296168 0 -0.0159936)
(0.00308119 0 -0.0216533)
(0.00323894 0 -0.0280577)
(0.00343639 0 -0.0350411)
(0.00367441 0 -0.0423984)
(0.00395334 0 -0.0497555)
(0.00427469 0 -0.0564305)
(0.00464545 0 -0.061301)
(0.00508538 0 -0.0627161)
(0.00563563 0 -0.0585387)
(0.00636342 0 -0.0464167)
(0.00735342 0 -0.0243332)
(0.0086782 0 0.00866322)
(0.0103511 0 0.051844)
(0.012283 0 0.102708)
(0.0142826 0 0.157669)
(0.0161069 0 0.213389)
(0.017548 0 0.268262)
(0.0183353 0 0.323547)
(0.0183964 0 0.382328)
(0.0175106 0 0.439017)
(0.0179952 0 0.451917)
(0.0210407 0 0.33043)
(0.0211447 0 0.0619621)
(-0.000839342 0 -0.108285)
(-0.0279132 0 0.0521016)
(-0.0308088 0 0.347647)
(-0.0280903 0 0.464816)
(-0.0278936 0 0.408971)
(-0.0283179 0 0.313551)
(-0.0250933 0 0.229332)
(-0.0211499 0 0.156149)
(-0.0167635 0 0.108586)
(-0.0134144 0 0.0986618)
(-0.0110921 0 0.111368)
(-0.00958114 0 0.120519)
(-0.00834474 0 0.118178)
(-0.00707646 0 0.116932)
(-0.00589006 0 0.129)
(-0.00511893 0 0.151646)
(-0.00498161 0 0.173364)
(-0.00533547 0 0.186609)
(-0.00583939 0 0.19122)
(-0.00623541 0 0.19039)
(-0.00642985 0 0.186957)
(-0.00642085 0 0.182299)
(-0.00621058 0 0.176634)
(-0.00576675 0 0.169902)
(0.00192862 0 -0.0080203)
(0.00200686 0 -0.0115157)
(0.00209552 0 -0.016303)
(0.00221729 0 -0.0220476)
(0.00237689 0 -0.0285365)
(0.00257531 0 -0.0355995)
(0.00281311 0 -0.0430291)
(0.00309029 0 -0.0504522)
(0.00340783 0 -0.0571943)
(0.00377173 0 -0.0621508)
(0.00419983 0 -0.063701)
(0.00472986 0 -0.0597442)
(0.00542407 0 -0.0479549)
(0.00636189 0 -0.0263051)
(0.00761307 0 0.00622824)
(0.00919385 0 0.0490463)
(0.0110255 0 0.0997891)
(0.0129288 0 0.154952)
(0.0146686 0 0.211177)
(0.0160308 0 0.266806)
(0.0167515 0 0.323057)
(0.016745 0 0.382741)
(0.0160083 0 0.439208)
(0.0167825 0 0.449829)
(0.0202061 0 0.328893)
(0.0197287 0 0.0725193)
(-0.00164795 0 -0.0857161)
(-0.027845 0 0.065968)
(-0.0314684 0 0.347859)
(-0.028348 0 0.463435)
(-0.0279217 0 0.409063)
(-0.0283271 0 0.312561)
(-0.0253238 0 0.227046)
(-0.0214708 0 0.15335)
(-0.017173 0 0.106046)
(-0.0138718 0 0.0967734)
(-0.0115853 0 0.110105)
(-0.0101119 0 0.119612)
(-0.00891002 0 0.11735)
(-0.00766443 0 0.116117)
(-0.0064867 0 0.128349)
(-0.00572178 0 0.151346)
(-0.00559822 0 0.173441)
(-0.00597385 0 0.186902)
(-0.00649892 0 0.191525)
(-0.0069063 0 0.190588)
(-0.00709927 0 0.187016)
(-0.00707724 0 0.182219)
(-0.00684361 0 0.176406)
(-0.00636543 0 0.1695)
(0.000881155 0 -0.00819144)
(0.000962671 0 -0.0117527)
(0.00105336 0 -0.01662)
(0.00117795 0 -0.0224488)
(0.00133997 0 -0.0290201)
(0.00153985 0 -0.0361599)
(0.00177776 0 -0.0436583)
(0.00205329 0 -0.051143)
(0.00236673 0 -0.0579465)
(0.00272292 0 -0.0629804)
(0.00313741 0 -0.0646519)
(0.00364405 0 -0.0608949)
(0.00429951 0 -0.0494093)
(0.00517707 0 -0.028159)
(0.00634253 0 0.00394315)
(0.00781375 0 0.0464178)
(0.009521 0 0.0970395)
(0.0112977 0 0.152388)
(0.0129164 0 0.209103)
(0.0141571 0 0.265477)
(0.0147595 0 0.32267)
(0.0146395 0 0.383146)
(0.014005 0 0.439147)
(0.0150924 0 0.447389)
(0.0189373 0 0.327324)
(0.0181803 0 0.0829631)
(-0.00242532 0 -0.0638324)
(-0.0276495 0 0.0796446)
(-0.0317394 0 0.348144)
(-0.028241 0 0.461841)
(-0.0276121 0 0.40907)
(-0.0281 0 0.311681)
(-0.025395 0 0.224874)
(-0.0216942 0 0.150631)
(-0.0175222 0 0.103558)
(-0.0142915 0 0.0949195)
(-0.0120577 0 0.108871)
(-0.010635 0 0.118733)
(-0.00947831 0 0.116543)
(-0.00826411 0 0.115315)
(-0.00710269 0 0.127706)
(-0.00635037 0 0.151055)
(-0.00624512 0 0.173532)
(-0.00664567 0 0.187209)
(-0.00719437 0 0.191841)
(-0.00761511 0 0.19079)
(-0.00780803 0 0.187071)
(-0.00777366 0 0.182128)
(-0.00751664 0 0.176159)
(-0.00700338 0 0.16907)
(-0.000348155 0 -0.00836946)
(-0.000263036 0 -0.0119985)
(-0.000169523 0 -0.0169463)
(-4.16395e-05 0 -0.0228582)
(0.000123025 0 -0.0295095)
(0.00032437 0 -0.0367226)
(0.000562097 0 -0.0442855)
(0.00083524 0 -0.0518266)
(0.00114332 0 -0.0586844)
(0.00148976 0 -0.0637856)
(0.00188759 0 -0.0655627)
(0.00236643 0 -0.0619816)
(0.00297687 0 -0.0507666)
(0.00378532 0 -0.0298763)
(0.00485246 0 0.00183351)
(0.0061962 0 0.0439925)
(0.00775398 0 0.0945025)
(0.00937077 0 0.15003)
(0.0108265 0 0.207224)
(0.0118947 0 0.264341)
(0.0123163 0 0.322457)
(0.0120204 0 0.383605)
(0.0114293 0 0.438856)
(0.0128455 0 0.444546)
(0.0171713 0 0.325549)
(0.0164153 0 0.0930456)
(-0.00317328 0 -0.0427922)
(-0.0272373 0 0.0929621)
(-0.0315759 0 0.34841)
(-0.0277215 0 0.460046)
(-0.0269328 0 0.409044)
(-0.0276098 0 0.310971)
(-0.0252919 0 0.222868)
(-0.0218112 0 0.148027)
(-0.0178041 0 0.101144)
(-0.0146672 0 0.0931142)
(-0.012506 0 0.107677)
(-0.0111502 0 0.11789)
(-0.0100507 0 0.115766)
(-0.00887618 0 0.114532)
(-0.00773822 0 0.127075)
(-0.00700545 0 0.150777)
(-0.006924 0 0.173639)
(-0.00735296 0 0.187534)
(-0.0079275 0 0.19217)
(-0.00836327 0 0.190996)
(-0.00855731 0 0.187122)
(-0.00851121 0 0.182025)
(-0.00823077 0 0.175893)
(-0.00768184 0 0.168613)
(-0.00175514 0 -0.0085541)
(-0.00166622 0 -0.0122531)
(-0.0015697 0 -0.0172821)
(-0.0014388 0 -0.0232759)
(-0.00127187 0 -0.0300043)
(-0.00106969 0 -0.0372864)
(-0.00083316 0 -0.0449086)
(-0.000563912 0 -0.0524996)
(-0.000263367 0 -0.0594033)
(7.03343e-05 0 -0.0645597)
(0.000447485 0 -0.0664245)
(0.000893238 0 -0.0629929)
(0.00145184 0 -0.0520124)
(0.00218232 0 -0.0314381)
(0.00313919 0 -7.53742e-05)
(0.00433872 0 0.0418045)
(0.00572323 0 0.092223)
(0.00714673 0 0.147934)
(0.0083949 0 0.205611)
(0.00923346 0 0.26348)
(0.00940367 0 0.322507)
(0.00885989 0 0.384199)
(0.00824441 0 0.43838)
(0.0099888 0 0.441243)
(0.0148444 0 0.323409)
(0.014347 0 0.10249)
(-0.00390752 0 -0.0228435)
(-0.0265295 0 0.105722)
(-0.0309217 0 0.348584)
(-0.0267594 0 0.458076)
(-0.0258766 0 0.409044)
(-0.0268524 0 0.310497)
(-0.0250133 0 0.221083)
(-0.0218217 0 0.145575)
(-0.0180171 0 0.0988237)