/*--------------------------------*- C++ -*----------------------------------*\
  =========                 |
  \\      /  F ield         | OpenFOAM: The Open Source CFD Toolbox
   \\    /   O peration     | Website:  https://openfoam.org
    \\  /    A nd           | Version:  9
     \\/     M anipulation  |
\*---------------------------------------------------------------------------*/
FoamFile
{
    format      ascii;
    class       surfaceVectorField;
    location    "0.14";
    object      Uf;
}
// * * * * * * * * * * * * * * * * * * * * * * * * * * * * * * * * * * * * * //

dimensions      [0 1 -1 0 0 0 0];

internalField   nonuniform List<vector> 
9850
(
(9.33313e-05 0 -0.0060637)
(0.000245627 0 -0.00485579)
(0.000108665 0 -0.00921339)
(0.000289488 0 -0.00747709)
(0.000121639 0 -0.0132236)
(0.000316117 0 -0.0111112)
(0.000135907 0 -0.0179256)
(0.000340371 0 -0.0154967)
(0.000153032 0 -0.0232535)
(0.000369564 0 -0.0205269)
(0.000172195 0 -0.029143)
(0.0004051 0 -0.0261647)
(0.000190263 0 -0.0353785)
(0.000444975 0 -0.0323051)
(0.000201789 0 -0.0413924)
(0.000484262 0 -0.0386067)
(0.000200639 0 -0.0459976)
(0.000515932 0 -0.044258)
(0.000186422 0 -0.0471353)
(0.000535461 0 -0.0476867)
(0.000177385 0 -0.0418904)
(0.000552961 0 -0.0463633)
(0.000221793 0 -0.0271364)
(0.000610243 0 -0.0370431)
(0.000385428 0 -0.000886191)
(0.000785454 0 -0.0167917)
(0.000704225 0 0.0363435)
(0.00115577 0 0.0154055)
(0.00113867 0 0.0813619)
(0.00172925 0 0.0575691)
(0.00158782 0 0.129691)
(0.00241389 0 0.105407)
(0.00195734 0 0.177472)
(0.00306841 0 0.154298)
(0.00220756 0 0.22257)
(0.00358475 0 0.201091)
(0.00234733 0 0.264502)
(0.0039233 0 0.24459)
(0.00239849 0 0.303772)
(0.00408955 0 0.284993)
(0.00235479 0 0.341307)
(0.00408467 0 0.32314)
(0.00211677 0 0.377937)
(0.00384536 0 0.360157)
(0.00138909 0 0.410628)
(0.00315973 0 0.396783)
(-2.19105e-05 0 0.413409)
(0.00247626 0 0.426033)
(0.0013462 0 0.253216)
(-0.00165231 0 0.399173)
(0.0164622 0 -0.306852)
(0.0175298 0 0.0874039)
(-0.0164739 0 -0.354681)
(-0.000409974 0 -0.706828)
(-0.00104417 0 0.219235)
(-0.01728 0 0.0310641)
(0.00020033 0 0.41698)
(0.00279916 0 0.404863)
(-0.00141758 0 0.407413)
(-0.00237009 0 0.4288)
(-0.00205548 0 0.351883)
(-0.00306604 0 0.381805)
(-0.00195925 0 0.291146)
(-0.00351902 0 0.321723)
(-0.00161244 0 0.228836)
(-0.00316612 0 0.260067)
(-0.00106523 0 0.172323)
(-0.00242993 0 0.197054)
(-0.000516624 0 0.137558)
(-0.00151177 0 0.147065)
(-0.000179123 0 0.129318)
(-0.000754648 0 0.127658)
(-7.01127e-05 0 0.132432)
(-0.000344031 0 0.13074)
(-6.26407e-05 0 0.132106)
(-0.000201317 0 0.13398)
(-3.01125e-06 0 0.129368)
(-0.000115125 0 0.130086)
(0.000118399 0 0.133431)
(5.22516e-05 0 0.128453)
(0.000228871 0 0.147118)
(0.000255582 0 0.138173)
(0.000249543 0 0.164108)
(0.000371576 0 0.155831)
(0.000184594 0 0.177364)
(0.0003432 0 0.172186)
(9.13753e-05 0 0.184579)
(0.000218028 0 0.182356)
(1.36874e-05 0 0.186875)
(7.738e-05 0 0.186601)
(-3.83965e-05 0 0.186112)
(-3.28831e-05 0 0.186921)
(-6.97187e-05 0 0.18364)
(-0.000105442 0 0.185053)
(-8.84281e-05 0 0.180109)
(-0.000149424 0 0.181961)
(-9.66567e-05 0 0.175768)
(-0.000171546 0 0.177983)
(-0.000167996 0 0.17327)
(0.000459272 0 -0.00620981)
(0.000654254 0 -0.0050449)
(0.000498218 0 -0.00928994)
(0.000720376 0 -0.00759826)
(0.000532986 0 -0.01328)
(0.000765883 0 -0.0112143)
(0.000571745 0 -0.0179775)
(0.000809851 0 -0.0156063)
(0.000619258 0 -0.0233035)
(0.000864256 0 -0.0206549)
(0.000675709 0 -0.0291825)
(0.000931994 0 -0.0263098)
(0.000737471 0 -0.0353902)
(0.00101127 0 -0.0324564)
(0.000797939 0 -0.0413533)
(0.00109683 0 -0.0387479)
(0.000850666 0 -0.0458909)
(0.00118107 0 -0.0443754)
(0.0008989 0 -0.0469745)
(0.00125978 0 -0.047789)
(0.000972847 0 -0.0417477)
(0.00134722 0 -0.0465128)
(0.0011442 0 -0.0271401)
(0.0014978 0 -0.0373735)
(0.00151066 0 -0.00115747)
(0.00181373 0 -0.0174655)
(0.00213383 0 0.0357861)
(0.00240141 0 0.0143131)
(0.00297762 0 0.0806306)
(0.00328356 0 0.056159)
(0.00389553 0 0.12895)
(0.00434683 0 0.103945)
(0.00471929 0 0.176834)
(0.00539489 0 0.153047)
(0.00533663 0 0.222057)
(0.00625712 0 0.200197)
(0.00570875 0 0.264081)
(0.00684736 0 0.244077)
(0.00582873 0 0.303413)
(0.00714562 0 0.284836)
(0.00565194 0 0.341054)
(0.00713867 0 0.323362)
(0.00501275 0 0.377945)
(0.006733 0 0.360922)
(0.00368304 0 0.410817)
(0.00559977 0 0.398299)
(0.00264726 0 0.411643)
(0.00557494 0 0.427159)
(0.00687441 0 0.243919)
(-0.00152212 0 0.394793)
(0.0218858 0 -0.295614)
(0.0269835 0 0.0725759)
(-0.0222545 0 -0.341656)
(-0.000881175 0 -0.665263)
(-0.00623997 0 0.210422)
(-0.0265965 0 0.0166875)
(-0.00130226 0 0.415349)
(0.0037594 0 0.400637)
(-0.00318517 0 0.407463)
(-0.00519163 0 0.430336)
(-0.00489545 0 0.351601)
(-0.00521053 0 0.382946)
(-0.00484277 0 0.290637)
(-0.00623318 0 0.321688)
(-0.0040643 0 0.228306)
(-0.0056514 0 0.259548)
(-0.00286153 0 0.17185)
(-0.00442895 0 0.196252)
(-0.00167879 0 0.137203)
(-0.00291226 0 0.146276)
(-0.000855699 0 0.129065)
(-0.00163859 0 0.12711)
(-0.000438605 0 0.132234)
(-0.00087449 0 0.130462)
(-0.000254289 0 0.131912)
(-0.000522912 0 0.133857)
(-6.42429e-05 0 0.129147)
(-0.000296166 0 0.129959)
(0.000196642 0 0.133179)
(1.00494e-05 0 0.128279)
(0.000426756 0 0.146854)
(0.000348759 0 0.13802)
(0.000496773 0 0.163852)
(0.000551408 0 0.155784)
(0.000391264 0 0.177111)
(0.000525973 0 0.172256)
(0.000202975 0 0.184313)
(0.000336519 0 0.182482)
(2.39448e-05 0 0.186587)
(0.000108698 0 0.18672)
(-0.000107731 0 0.185804)
(-7.93642e-05 0 0.187009)
(-0.000192026 0 0.183317)
(-0.000208336 0 0.185109)
(-0.000239273 0 0.179777)
(-0.000286808 0 0.181993)
(-0.000251554 0 0.175427)
(-0.000322645 0 0.177992)
(-0.000309591 0 0.173248)
(0.00093671 0 -0.00636907)
(0.00115509 0 -0.00522168)
(0.000987877 0 -0.0094258)
(0.00122701 0 -0.00775744)
(0.00103919 0 -0.013416)
(0.00128407 0 -0.0113665)
(0.00109894 0 -0.0181332)
(0.00134386 0 -0.0157752)
(0.00117325 0 -0.0234852)
(0.0014195 0 -0.0208552)
(0.00126332 0 -0.0293838)
(0.00151443 0 -0.0265412)
(0.00136609 0 -0.0355963)
(0.00162737 0 -0.0327081)
(0.00147535 0 -0.0415486)
(0.00175361 0 -0.039003)
(0.00158538 0 -0.0460755)
(0.00188633 0 -0.0446203)
(0.0017017 0 -0.0471939)
(0.00202305 0 -0.0480358)
(0.00186025 0 -0.0421209)
(0.00218165 0 -0.0468336)
(0.00214386 0 -0.0278448)
(0.0024232 0 -0.0379205)
(0.0026668 0 -0.00233394)
(0.00286057 0 -0.018427)
(0.00350663 0 0.0341664)
(0.00361337 0 0.012841)
(0.00461521 0 0.0788025)
(0.00471124 0 0.0543065)
(0.00582785 0 0.127239)
(0.00603167 0 0.102013)
(0.00693801 0 0.175493)
(0.00735009 0 0.151361)
(0.00779404 0 0.221189)
(0.00845752 0 0.198958)
(0.00832558 0 0.263686)
(0.00923463 0 0.243343)
(0.00850515 0 0.303485)
(0.00964099 0 0.284599)
(0.00828928 0 0.34168)
(0.00966009 0 0.323632)
(0.00755734 0 0.379348)
(0.00919256 0 0.361797)
(0.00608421 0 0.412617)
(0.0075401 0 0.399979)
(0.00485587 0 0.41028)
(0.00833455 0 0.428494)
(0.00950937 0 0.232932)
(-0.00176722 0 0.389971)
(0.0242209 0 -0.280407)
(0.0315132 0 0.058044)
(-0.0246375 0 -0.324765)
(-0.000858953 0 -0.619254)
(-0.00858276 0 0.199245)
(-0.031112 0 0.00227476)
(-0.00295177 0 0.414094)
(0.00458455 0 0.395818)
(-0.00526074 0 0.409283)
(-0.00782704 0 0.43222)
(-0.00721143 0 0.35231)
(-0.00691074 0 0.384246)
(-0.00712181 0 0.290354)
(-0.00861501 0 0.321628)
(-0.00610015 0 0.227531)
(-0.00776741 0 0.258867)
(-0.00446283 0 0.170874)
(-0.00617963 0 0.195161)
(-0.002816 0 0.136367)
(-0.00420344 0 0.145178)
(-0.00160958 0 0.128548)
(-0.00252508 0 0.126305)
(-0.000919513 0 0.131991)
(-0.00146524 0 0.130002)
(-0.000550119 0 0.13177)
(-0.000917868 0 0.133611)
(-0.000215007 0 0.128977)
(-0.000548096 0 0.129736)
(0.000171245 0 0.132999)
(-0.000109901 0 0.128021)
(0.000497929 0 0.146762)
(0.000347016 0 0.137802)
(0.000610771 0 0.16391)
(0.000625664 0 0.155709)
(0.000488735 0 0.177284)
(0.000611183 0 0.172337)
(0.000245348 0 0.184521)
(0.000380851 0 0.182644)
(8.28797e-07 0 0.186775)
(9.24926e-05 0 0.186883)
(-0.000187838 0 0.185955)
(-0.00015219 0 0.187135)
(-0.000311736 0 0.183433)
(-0.00032356 0 0.185192)
(-0.000379228 0 0.179862)
(-0.000427556 0 0.182038)
(-0.000391051 0 0.175477)
(-0.000471671 0 0.177999)
(-0.000447233 0 0.173209)
(0.00146343 0 -0.00654483)
(0.00169272 0 -0.00539348)
(0.00152129 0 -0.00960368)
(0.00176552 0 -0.00793743)
(0.00158464 0 -0.0136083)
(0.0018309 0 -0.0115544)
(0.001661 0 -0.0183594)
(0.00190378 0 -0.0159911)
(0.00175688 0 -0.0237534)
(0.00199684 0 -0.0211136)
(0.00187407 0 -0.0296894)
(0.00211384 0 -0.0268423)
(0.00201005 0 -0.0359267)
(0.00225431 0 -0.0330412)
(0.0021594 0 -0.0418914)
(0.00241445 0 -0.0393517)
(0.002318 0 -0.0464353)
(0.00258878 0 -0.0449733)
(0.00249458 0 -0.0476224)
(0.00277715 0 -0.0484104)
(0.00273031 0 -0.0427433)
(0.00300074 0 -0.0473104)
(0.00311496 0 -0.0288437)
(0.00332429 0 -0.0386623)
(0.00377006 0 -0.00385533)
(0.00386456 0 -0.0196314)
(0.00477799 0 0.0321488)
(0.00474675 0 0.0110742)
(0.00609249 0 0.0765382)
(0.00600607 0 0.0521099)
(0.00753246 0 0.125096)
(0.0075183 0 0.0997193)
(0.00886432 0 0.173783)
(0.00904237 0 0.149339)
(0.00990752 0 0.220075)
(0.0103415 0 0.197447)
(0.0105712 0 0.263206)
(0.0112691 0 0.242427)
(0.0108156 0 0.30365)
(0.0117634 0 0.284278)
(0.0105825 0 0.342571)
(0.0117993 0 0.323925)
(0.009726 0 0.381172)
(0.0113232 0 0.362821)
(0.00791076 0 0.414891)
(0.00899536 0 0.402048)
(0.00605945 0 0.409052)
(0.0104578 0 0.430506)
(0.0106432 0 0.223027)
(-0.00216261 0 0.385222)
(0.0244243 0 -0.264804)
(0.033046 0 0.0444312)
(-0.0242471 0 -0.30735)
(-0.000412887 0 -0.573422)
(-0.00972232 0 0.189366)
(-0.0326852 0 -0.0107645)
(-0.00396298 0 0.412967)
(0.0051163 0 0.390889)
(-0.00709634 0 0.411644)
(-0.0100583 0 0.434776)
(-0.00932247 0 0.353271)
(-0.00832394 0 0.38573)
(-0.00917531 0 0.290038)
(-0.0108136 0 0.32153)
(-0.00792942 0 0.226523)
(-0.00963534 0 0.258036)
(-0.00591275 0 0.169561)
(-0.00775763 0 0.193816)
(-0.00386842 0 0.135212)
(-0.00539139 0 0.143816)
(-0.002342 0 0.127801)
(-0.00337659 0 0.125288)
(-0.00143272 0 0.131609)
(-0.00207178 0 0.129396)
(-0.000908363 0 0.131538)
(-0.00135763 0 0.133261)
(-0.000437133 0 0.128738)
(-0.000856476 0 0.129421)
(7.63393e-05 0 0.132774)
(-0.000291837 0 0.127679)
(0.000497869 0 0.146672)
(0.000276031 0 0.137521)
(0.000651032 0 0.164024)
(0.000624495 0 0.155607)
(0.000516422 0 0.177558)
(0.000622877 0 0.172427)
(0.000230287 0 0.184853)
(0.000362757 0 0.182835)
(-6.35961e-05 0 0.187088)
(2.92724e-05 0 0.187079)
(-0.000293826 0 0.186221)
(-0.000257486 0 0.187288)
(-0.000446216 0 0.18365)
(-0.000459963 0 0.185294)
(-0.000527315 0 0.180033)
(-0.000581686 0 0.182092)
(-0.000536116 0 0.175596)
(-0.000629506 0 0.178005)
(-0.00059224 0 0.173156)
(0.00201125 0 -0.00672481)
(0.00224188 0 -0.00556107)
(0.00207332 0 -0.00980114)
(0.00231386 0 -0.00813053)
(0.00214624 0 -0.0138306)
(0.00238559 0 -0.0117706)
(0.00223631 0 -0.0186226)
(0.00246959 0 -0.0162457)
(0.00234987 0 -0.0240655)
(0.00257732 0 -0.0214196)
(0.00248941 0 -0.0300462)
(0.0027129 0 -0.0272008)
(0.0026534 0 -0.0363162)
(0.00287682 0 -0.0334428)
(0.00283779 0 -0.0423014)
(0.00306639 0 -0.0397822)
(0.00304061 0 -0.0468712)
(0.00327767 0 -0.0454247)
(0.00327328 0 -0.0481347)
(0.00351255 0 -0.0489041)
(0.00357947 0 -0.0434536)
(0.00379422 0 -0.0479297)
(0.00405001 0 -0.0299315)
(0.004188 0 -0.0395697)
(0.00480668 0 -0.00547024)
(0.00480939 0 -0.0210226)
(0.00593435 0 0.0300176)
(0.00578457 0 0.00909763)
(0.00739354 0 0.0741222)
(0.00715524 0 0.0496715)
(0.00900056 0 0.12276)
(0.0088033 0 0.0971592)
(0.0105058 0 0.171856)
(0.0104817 0 0.147053)
(0.0117034 0 0.218747)
(0.0119327 0 0.195714)
(0.012478 0 0.262538)
(0.0129843 0 0.241358)
(0.0127682 0 0.303667)
(0.0135485 0 0.283896)
(0.0124836 0 0.343352)
(0.0135724 0 0.324282)
(0.0114391 0 0.382929)
(0.01313 0 0.36407)
(0.00927306 0 0.417212)
(0.0101022 0 0.404518)
(0.00686453 0 0.407951)
(0.0120476 0 0.433123)
(0.0112155 0 0.214538)
(-0.00220095 0 0.380713)
(0.0231642 0 -0.249636)
(0.032971 0 0.0326284)
(-0.0223592 0 -0.290412)
(0.000113606 0 -0.530554)
(-0.0103787 0 0.181011)
(-0.0327416 0 -0.0215198)
(-0.00482976 0 0.411862)
(0.00512014 0 0.38614)
(-0.00865244 0 0.413987)
(-0.011895 0 0.437895)
(-0.0111483 0 0.354088)
(-0.00954441 0 0.387394)
(-0.0110209 0 0.289569)
(-0.0128195 0 0.321445)
(-0.00957143 0 0.225338)
(-0.011277 0 0.25707)
(-0.00723002 0 0.168069)
(-0.00918452 0 0.192255)
(-0.00486281 0 0.133893)
(-0.00649074 0 0.142237)
(-0.00307367 0 0.126897)
(-0.00420614 0 0.124095)
(-0.00197307 0 0.131074)
(-0.00269618 0 0.128662)
(-0.0013042 0 0.131169)
(-0.0018315 0 0.132816)
(-0.00070774 0 0.12838)
(-0.00120704 0 0.129024)
(-8.25878e-05 0 0.132443)
(-0.000527447 0 0.127262)
(0.000423854 0 0.146479)
(0.000138111 0 0.137184)
(0.000617325 0 0.164041)
(0.000550057 0 0.155478)
(0.000479311 0 0.177741)
(0.000565448 0 0.172519)
(0.000163334 0 0.185099)
(0.000286748 0 0.183045)
(-0.000167125 0 0.187316)
(-7.88851e-05 0 0.187299)
(-0.000428196 0 0.186398)
(-0.000396236 0 0.187462)
(-0.000600801 0 0.183772)
(-0.000620861 0 0.185409)
(-0.00068972 0 0.180101)
(-0.000753825 0 0.182151)
(-0.000692119 0 0.175603)
(-0.000800937 0 0.178007)
(-0.000748811 0 0.173088)
(0.00255987 0 -0.00690562)
(0.00278026 0 -0.00572416)
(0.00262461 0 -0.0100135)
(0.00285105 0 -0.00833192)
(0.00270531 0 -0.0140796)
(0.00292747 0 -0.0120099)
(0.00280719 0 -0.0189204)
(0.00302079 0 -0.0165337)
(0.00293616 0 -0.0244189)
(0.00314113 0 -0.0217672)
(0.00309524 0 -0.0304516)
(0.00329276 0 -0.0276094)
(0.00328391 0 -0.0367626)
(0.00347689 0 -0.0339048)
(0.00349945 0 -0.0427784)
(0.00369181 0 -0.0402854)
(0.00374154 0 -0.0473855)
(0.00393487 0 -0.0459635)
(0.0040232 0 -0.0487373)
(0.00420945 0 -0.0495017)
(0.00438842 0 -0.0442642)
(0.00453977 0 -0.0486685)
(0.00492635 0 -0.0311258)
(0.00499037 0 -0.040607)
(0.00575669 0 -0.0071981)
(0.00567365 0 -0.0225492)
(0.00696634 0 0.0277584)
(0.0067148 0 0.00697737)
(0.0085237 0 0.071553)
(0.00816183 0 0.0470692)
(0.0102496 0 0.120246)
(0.00990639 0 0.0944098)
(0.0118858 0 0.169746)
(0.0117018 0 0.144568)
(0.0132056 0 0.217252)
(0.0132748 0 0.193803)
(0.0140683 0 0.261741)
(0.0144308 0 0.240167)
(0.0143907 0 0.303615)
(0.0150598 0 0.283472)
(0.0140553 0 0.344152)
(0.015058 0 0.324703)
(0.0128403 0 0.384815)
(0.014692 0 0.365524)
(0.0104004 0 0.41985)
(0.011066 0 0.407299)
(0.00754361 0 0.407224)
(0.013209 0 0.436228)
(0.0115889 0 0.207095)
(-0.00175416 0 0.376522)
(0.0216785 0 -0.235076)
(0.0322634 0 0.0226618)
(-0.0204387 0 -0.274043)
(0.000586047 0 -0.490893)
(-0.010882 0 0.173884)
(-0.0322736 0 -0.0300992)
(-0.00569157 0 0.411051)
(0.00460169 0 0.381698)
(-0.0100545 0 0.416508)
(-0.0133749 0 0.441454)
(-0.0127441 0 0.354862)
(-0.010717 0 0.389187)
(-0.012669 0 0.289001)
(-0.0146524 0 0.321395)
(-0.0110393 0 0.224)
(-0.0127355 0 0.255983)
(-0.00843232 0 0.166418)
(-0.0104845 0 0.190518)
(-0.0058111 0 0.132433)
(-0.00751455 0 0.14049)
(-0.00380969 0 0.125866)
(-0.00502011 0 0.122761)
(-0.00253883 0 0.130422)
(-0.00333606 0 0.127815)
(-0.0017322 0 0.130693)
(-0.00233088 0 0.132278)
(-0.00102049 0 0.127927)
(-0.00159013 0 0.128549)
(-0.000298449 0 0.132026)
(-0.000809641 0 0.126781)
(0.000280164 0 0.146213)
(-6.10633e-05 0 0.136798)
(0.000513552 0 0.163996)
(0.000409033 0 0.155323)
(0.000380805 0 0.177871)
(0.000445882 0 0.172607)
(4.67208e-05 0 0.185297)
(0.000158057 0 0.183268)
(-0.00030918 0 0.187497)
(-0.000229647 0 0.187537)
(-0.000592153 0 0.186524)
(-0.000568763 0 0.187651)
(-0.000778161 0 0.183838)
(-0.000808462 0 0.185532)
(-0.000869914 0 0.180107)
(-0.000947364 0 0.182212)
(-0.000862721 0 0.175541)
(-0.00098992 0 0.178002)
(-0.000920767 0 0.173003)
(0.00308611 0 -0.00708773)
(0.00328562 0 -0.00588339)
(0.0031525 0 -0.0102396)
(0.00335524 0 -0.00853847)
(0.00323932 0 -0.0143546)
(0.00343494 0 -0.0122674)
(0.00335118 0 -0.0192536)
(0.00353576 0 -0.0168499)
(0.00349339 0 -0.0248157)
(0.00366673 0 -0.0221504)
(0.00366915 0 -0.0309092)
(0.00383191 0 -0.0280609)
(0.00387863 0 -0.0372715)
(0.00403289 0 -0.0344178)
(0.00412014 0 -0.0433302)
(0.00426873 0 -0.0408492)
(0.00439455 0 -0.0479892)
(0.00453784 0 -0.0465742)
(0.00471583 0 -0.0494448)
(0.00484476 0 -0.0501833)
(0.00512782 0 -0.045193)
(0.00521429 0 -0.0495018)
(0.00571765 0 -0.0324474)
(0.00571005 0 -0.0417445)
(0.00660288 0 -0.00906094)
(0.00644144 0 -0.0241768)
(0.00787231 0 0.0253512)
(0.00753212 0 0.00475234)
(0.0095022 0 0.0688165)
(0.00903589 0 0.0443456)
(0.0113196 0 0.117552)
(0.0108551 0 0.0915147)
(0.0130617 0 0.167464)
(0.0127466 0 0.141922)
(0.0144843 0 0.215623)
(0.0144258 0 0.191743)
(0.015426 0 0.260873)
(0.0156785 0 0.238868)
(0.0157867 0 0.303578)
(0.0163815 0 0.282997)
(0.0154298 0 0.345093)
(0.0163632 0 0.325151)
(0.0140821 0 0.386987)
(0.0160954 0 0.367135)
(0.011403 0 0.422933)
(0.012038 0 0.410354)
(0.00819476 0 0.406918)
(0.0140395 0 0.439715)
(0.0120167 0 0.20055)
(-0.000777655 0 0.372561)
(0.0204073 0 -0.221063)
(0.031436 0 0.0143736)
(-0.0188606 0 -0.258155)
(0.00103241 0 -0.453916)
(-0.0114761 0 0.167872)
(-0.0317393 0 -0.0367286)
(-0.00657441 0 0.410642)
(0.00354264 0 0.377503)
(-0.0113754 0 0.419359)
(-0.0145486 0 0.445371)
(-0.0142309 0 0.355726)
(-0.0119717 0 0.39109)
(-0.0141866 0 0.28839)
(-0.0163592 0 0.321365)
(-0.0123739 0 0.222516)
(-0.0140754 0 0.254775)
(-0.00954076 0 0.164605)
(-0.0116857 0 0.188629)
(-0.00671368 0 0.13083)
(-0.00847219 0 0.138605)
(-0.00453931 0 0.124719)
(-0.00581279 0 0.121311)
(-0.00311916 0 0.129677)
(-0.00397997 0 0.126868)
(-0.00218593 0 0.13014)
(-0.00284582 0 0.131656)
(-0.0013704 0 0.127409)
(-0.00199813 0 0.128006)
(-0.000564608 0 0.131559)
(-0.00113014 0 0.126244)
(7.88389e-05 0 0.145913)
(-0.000310577 0 0.136369)
(0.000351787 0 0.163939)
(0.000213337 0 0.155141)
(0.000229149 0 0.178009)
(0.000274153 0 0.172689)
(-0.00011577 0 0.185512)
(-1.72049e-05 0 0.183498)
(-0.000489337 0 0.187696)
(-0.000420745 0 0.187786)
(-0.000787225 0 0.186665)
(-0.000775498 0 0.187849)
(-0.000981005 0 0.183912)
(-0.00102482 0 0.185662)
(-0.00107143 0 0.180114)
(-0.00116534 0 0.182272)
(-0.00105198 0 0.175471)
(-0.00120013 0 0.177989)
(-0.00111194 0 0.172902)
(0.00356896 0 -0.00727004)
(0.00374026 0 -0.00603941)
(0.00363635 0 -0.0104758)
(0.00380902 0 -0.0087481)
(0.00372777 0 -0.014651)
(0.00389105 0 -0.0125384)
(0.00384772 0 -0.019617)
(0.00399778 0 -0.017189)
(0.00400086 0 -0.0252502)
(0.00413752 0 -0.0225631)
(0.00419032 0 -0.0314121)
(0.00431393 0 -0.0285476)
(0.00441673 0 -0.0378347)
(0.00452878 0 -0.0349723)
(0.00467922 0 -0.0439472)
(0.00478177 0 -0.0414619)
(0.00497968 0 -0.0486705)
(0.00507226 0 -0.0472428)
(0.00533289 0 -0.0502423)
(0.00540579 0 -0.0509327)
(0.00578245 0 -0.0462214)
(0.00580754 0 -0.0504111)
(0.00641359 0 -0.0338734)
(0.00634004 0 -0.0429615)
(0.00734173 0 -0.0110321)
(0.00710977 0 -0.0258832)
(0.00865766 0 0.0228249)
(0.00823865 0 0.0024458)
(0.0103455 0 0.0659409)
(0.00978584 0 0.0415251)
(0.0122403 0 0.114701)
(0.0116651 0 0.0884962)
(0.0140775 0 0.165026)
(0.0136403 0 0.139132)
(0.0155987 0 0.213868)
(0.0154191 0 0.189541)
(0.0166245 0 0.259932)
(0.0167692 0 0.237452)
(0.017041 0 0.303541)
(0.0175621 0 0.282449)
(0.0166947 0 0.346151)
(0.0175527 0 0.325585)
(0.0152495 0 0.389417)
(0.0173793 0 0.368864)
(0.0123569 0 0.426365)
(0.0130896 0 0.413651)
(0.00895639 0 0.406896)
(0.0146723 0 0.443411)
(0.0127071 0 0.194901)
(0.000810418 0 0.368675)
(0.0193526 0 -0.207405)
(0.0306783 0 0.00780904)
(-0.0175019 0 -0.242585)
(0.00150103 0 -0.419211)
(-0.0123364 0 0.162952)
(-0.0312396 0 -0.0413659)
(-0.00759023 0 0.410536)
(0.00181669 0 0.373441)
(-0.012663 0 0.422497)
(-0.0155157 0 0.44951)
(-0.0156945 0 0.356696)
(-0.0133778 0 0.393111)
(-0.0156342 0 0.287738)
(-0.01797 0 0.321325)
(-0.0136177 0 0.220895)
(-0.0153455 0 0.25343)
(-0.0105744 0 0.162647)
(-0.0128078 0 0.1866)
(-0.00757021 0 0.129103)
(-0.00937045 0 0.136602)
(-0.00525183 0 0.123471)
(-0.00657673 0 0.119766)
(-0.00370245 0 0.128851)
(-0.0046174 0 0.125835)
(-0.00265644 0 0.129522)
(-0.00336874 0 0.130958)
(-0.00174913 0 0.12684)
(-0.00242514 0 0.127401)
(-0.000869782 0 0.131052)
(-0.00148113 0 0.125657)
(-0.000168374 0 0.145591)
(-0.00060028 0 0.135901)
(0.000142963 0 0.163881)
(-2.73918e-05 0 0.154933)
(3.21805e-05 0 0.178165)
(5.75067e-05 0 0.172763)
(-0.000319941 0 0.185756)
(-0.000234798 0 0.183733)
(-0.000706657 0 0.187924)
(-0.000650542 0 0.188043)
(-0.00101457 0 0.186832)
(-0.0010167 0 0.188055)
(-0.00121171 0 0.184007)
(-0.00127142 0 0.185793)
(-0.00129733 0 0.180134)
(-0.00140996 0 0.182329)
(-0.00126329 0 0.175408)
(-0.00143423 0 0.177966)
(-0.00132507 0 0.172784)
(0.00399427 0 -0.00745224)
(0.00413275 0 -0.00619371)
(0.00406247 0 -0.0107191)
(0.00420131 0 -0.00896022)
(0.00415747 0 -0.0149637)
(0.00428522 0 -0.0128201)
(0.00428397 0 -0.0200044)
(0.0043967 0 -0.0175465)
(0.00444616 0 -0.0257145)
(0.00454369 0 -0.0230001)
(0.00464698 0 -0.0319504)
(0.00472948 0 -0.0290634)
(0.00488744 0 -0.0384397)
(0.00495595 0 -0.0355611)
(0.00516742 0 -0.0446137)
(0.00522332 0 -0.0421155)
(0.00548973 0 -0.0494101)
(0.00553182 0 -0.0479601)
(0.00586981 0 -0.0511063)
(0.00588788 0 -0.051739)
(0.00635081 0 -0.047321)
(0.00631688 0 -0.051384)
(0.00701572 0 -0.0353706)
(0.00687984 0 -0.0442437)
(0.00797746 0 -0.0130733)
(0.00767997 0 -0.0276513)
(0.00932826 0 0.020221)
(0.00883688 0 7.81475e-05)
(0.0110609 0 0.0629664)
(0.0104145 0 0.0386299)
(0.0130207 0 0.111724)
(0.0123393 0 0.0853741)
(0.0149451 0 0.162447)
(0.0143855 0 0.136209)
(0.0165647 0 0.211981)
(0.0162576 0 0.187196)
(0.0176845 0 0.258889)
(0.0177069 0 0.235906)
(0.0181762 0 0.30345)
(0.0186039 0 0.281802)
(0.0178706 0 0.347245)
(0.0186374 0 0.325968)
(0.0163721 0 0.392006)
(0.0185414 0 0.370656)
(0.013332 0 0.429955)
(0.0142281 0 0.417117)
(0.00996072 0 0.406931)
(0.0152444 0 0.447075)
(0.0137745 0 0.190155)
(0.00304741 0 0.364723)
(0.0184835 0 -0.193871)
(0.03004 0 0.00315732)
(-0.0162589 0 -0.227099)
(0.00198537 0 -0.386495)
(-0.0135679 0 0.159161)
(-0.0307592 0 -0.0437819)
(-0.00889876 0 0.410549)
(-0.000693138 0 0.369445)
(-0.0139774 0 0.425767)
(-0.016412 0 0.453653)
(-0.0171661 0 0.357722)
(-0.0149419 0 0.395237)
(-0.0170325 0 0.287007)
(-0.0194883 0 0.321236)
(-0.0147922 0 0.219137)
(-0.016566 0 0.251937)
(-0.0115443 0 0.160564)
(-0.0138587 0 0.184434)
(-0.00838193 0 0.127275)
(-0.0102147 0 0.134494)
(-0.00594226 0 0.122138)
(-0.00730787 0 0.118139)
(-0.0042826 0 0.127948)
(-0.00524306 0 0.124729)
(-0.00313778 0 0.12884)
(-0.00389631 0 0.130195)
(-0.00214986 0 0.12622)
(-0.0028681 0 0.126742)
(-0.00120637 0 0.130507)
(-0.00185752 0 0.125028)
(-0.000453381 0 0.145241)
(-0.000923812 0 0.135399)
(-0.000107952 0 0.163811)
(-0.000308253 0 0.154703)
(-0.00020645 0 0.178324)
(-0.000201175 0 0.172829)
(-0.000563724 0 0.186012)
(-0.000493104 0 0.183971)
(-0.000960403 0 0.188165)
(-0.000918282 0 0.188308)
(-0.00127469 0 0.187008)
(-0.00129243 0 0.188264)
(-0.00147165 0 0.184107)
(-0.00154903 0 0.185924)
(-0.00154951 0 0.180154)
(-0.00168248 0 0.182381)
(-0.00149864 0 0.175336)
(-0.00169372 0 0.177932)
(-0.00156167 0 0.172647)
(0.00435369 0 -0.00763529)
(0.004456 0 -0.00634812)
(0.00442286 0 -0.0109684)
(0.004525 0 -0.00917536)
(0.00452088 0 -0.0152892)
(0.00461062 0 -0.0131108)
(0.00465278 0 -0.0204108)
(0.00472591 0 -0.0179193)
(0.00482253 0 -0.0262027)
(0.00487881 0 -0.0234575)
(0.00503293 0 -0.0325171)
(0.00507233 0 -0.0296039)
(0.00528529 0 -0.0390782)
(0.00530839 0 -0.036179)
(0.00558013 0 -0.04532)
(0.0055877 0 -0.0428037)
(0.00592108 0 -0.0501963)
(0.00591119 0 -0.0487188)
(0.00632405 0 -0.0520228)
(0.00628605 0 -0.052594)
(0.00683142 0 -0.0484752)
(0.00673768 0 -0.0524102)
(0.00752354 0 -0.0369191)
(0.00732531 0 -0.0455784)
(0.00851018 0 -0.0151611)
(0.00814846 0 -0.0294653)
(0.00988431 0 0.0175667)
(0.00932373 0 -0.00233039)
(0.0116472 0 0.0599209)
(0.0109189 0 0.0356841)
(0.0136572 0 0.108644)
(0.0128735 0 0.082172)
(0.0156576 0 0.159739)
(0.0149754 0 0.133171)
(0.0173723 0 0.209957)
(0.016931 0 0.184713)
(0.0185927 0 0.257721)
(0.0184784 0 0.234222)
(0.019177 0 0.303263)
(0.019487 0 0.281033)
(0.0189405 0 0.348308)
(0.0195983 0 0.326265)
(0.0174447 0 0.394653)
(0.0195612 0 0.372444)
(0.0143648 0 0.433511)
(0.0154153 0 0.420628)
(0.0112663 0 0.406813)
(0.0158561 0 0.450443)
(0.0152174 0 0.186336)
(0.00584765 0 0.360629)
(0.0177869 0 -0.180208)
(0.0295158 0 0.000619052)
(-0.0151346 0 -0.21142)
(0.00243238 0 -0.355494)
(-0.0151903 0 0.156599)
(-0.0302866 0 -0.043732)
(-0.0106059 0 0.410516)
(-0.00396331 0 0.365521)
(-0.0153736 0 0.428995)
(-0.0173629 0 0.457543)
(-0.0186423 0 0.358749)
(-0.0166263 0 0.397416)
(-0.0183764 0 0.286162)
(-0.0209052 0 0.321058)
(-0.0159023 0 0.217235)
(-0.0177381 0 0.250287)
(-0.0124556 0 0.158367)
(-0.0148411 0 0.182137)
(-0.00915078 0 0.125363)
(-0.01101 0 0.132291)
(-0.00660899 0 0.120735)
(-0.00800538 0 0.116445)
(-0.00485786 0 0.126981)
(-0.00585511 0 0.123561)
(-0.00362839 0 0.128102)
(-0.00442796 0 0.129375)
(-0.00256984 0 0.125554)
(-0.0033266 0 0.126036)
(-0.00157064 0 0.129924)
(-0.00225728 0 0.124362)
(-0.000773754 0 0.144863)
(-0.00127782 0 0.134868)
(-0.000398129 0 0.163722)
(-0.000626822 0 0.154452)
(-0.000485864 0 0.178477)
(-0.000500934 0 0.172887)
(-0.000846566 0 0.186268)
(-0.000791663 0 0.184211)
(-0.0012503 0 0.188407)
(-0.00122364 0 0.188577)
(-0.00156774 0 0.187181)
(-0.00160263 0 0.188476)
(-0.00176147 0 0.184199)
(-0.001858 0 0.186054)
(-0.00182889 0 0.18016)
(-0.00198359 0 0.182426)
(-0.001759 0 0.175244)
(-0.00197944 0 0.177886)
(-0.00182267 0 0.172491)
(0.00464128 0 -0.00782044)
(0.00470405 0 -0.00650394)
(0.00471155 0 -0.0112233)
(0.00477389 0 -0.00939391)
(0.00481207 0 -0.0156254)
(0.00486095 0 -0.0134088)
(0.00494825 0 -0.0208329)
(0.00497914 0 -0.0183042)
(0.00512403 0 -0.0267108)
(0.0051365 0 -0.0239311)
(0.00534215 0 -0.0331076)
(0.00533593 0 -0.0301641)
(0.00560412 0 -0.039745)
(0.00557936 0 -0.0368205)
(0.00591098 0 -0.0460599)
(0.00586782 0 -0.04352)
(0.00626705 0 -0.0510223)
(0.00620287 0 -0.0495112)
(0.00668857 0 -0.0529841)
(0.00659228 0 -0.0534882)
(0.00721697 0 -0.049675)
(0.00706141 0 -0.0534789)
(0.00792974 0 -0.038508)
(0.00766759 0 -0.0469529)
(0.00893301 0 -0.0172815)
(0.00850648 0 -0.0313098)
(0.0103197 0 0.0148799)
(0.00969123 0 -0.0047609)
(0.0120988 0 0.0568251)
(0.0112924 0 0.0327111)
(0.0141431 0 0.10548)
(0.0132621 0 0.0789152)
(0.0162052 0 0.156913)
(0.0154035 0 0.130039)
(0.0180072 0 0.207795)
(0.0174297 0 0.182104)
(0.0193299 0 0.256414)
(0.0190698 0 0.232396)
(0.0200189 0 0.302953)
(0.0201901 0 0.280127)
(0.019875 0 0.349295)
(0.020407 0 0.326445)
(0.0184402 0 0.397264)
(0.020415 0 0.37416)
(0.0154484 0 0.43684)
(0.0165859 0 0.424039)
(0.0128461 0 0.406391)
(0.0165524 0 0.453271)
(0.0169178 0 0.183503)
(0.00899162 0 0.35641)
(0.0172333 0 -0.166187)
(0.0290629 0 0.000307287)
(-0.014171 0 -0.195289)
(0.00278088 0 -0.325922)
(-0.0171229 0 0.155396)
(-0.0298282 0 -0.0410823)
(-0.0127134 0 0.410336)
(-0.00779544 0 0.361747)
(-0.0168757 0 0.43201)
(-0.0184454 0 0.460939)
(-0.0201014 0 0.359725)
(-0.0183673 0 0.399566)
(-0.0196535 0 0.285182)
(-0.0222108 0 0.32076)
(-0.0169472 0 0.21519)
(-0.0188549 0 0.248483)
(-0.0133121 0 0.156062)
(-0.0157574 0 0.179713)
(-0.00987926 0 0.123376)
(-0.0117614 0 0.130002)
(-0.00725176 0 0.119275)
(-0.00867048 0 0.114693)
(-0.00542796 0 0.12596)
(-0.00645311 0 0.122345)
(-0.00412884 0 0.127314)
(-0.0049638 0 0.128509)
(-0.00300911 0 0.124848)
(-0.00380133 0 0.12529)
(-0.001961 0 0.129309)
(-0.00268009 0 0.123664)
(-0.0011271 0 0.14446)
(-0.00166049 0 0.134312)
(-0.000727312 0 0.163619)
(-0.000980946 0 0.154186)
(-0.000805655 0 0.178624)
(-0.000840343 0 0.172939)
(-0.00116817 0 0.186523)
(-0.00112965 0 0.184453)
(-0.00157615 0 0.188648)
(-0.00156609 0 0.188849)
(-0.00189379 0 0.18735)
(-0.00194712 0 0.188688)
(-0.00208152 0 0.184282)
(-0.00219856 0 0.186179)
(-0.00213604 0 0.180153)
(-0.0023138 0 0.182462)
(-0.00204511 0 0.175134)
(-0.00229216 0 0.177825)
(-0.00210905 0 0.172314)
(0.00485075 0 -0.00800822)
(0.00487067 0 -0.00666163)
(0.00492201 0 -0.0114832)
(0.00494139 0 -0.00961557)
(0.0050244 0 -0.0159701)
(0.00502945 0 -0.0137124)
(0.00516365 0 -0.0212673)
(0.00514953 0 -0.0186977)
(0.00534375 0 -0.0272346)
(0.00530983 0 -0.0244163)
(0.00556741 0 -0.0337169)
(0.00551317 0 -0.0307385)
(0.00583627 0 -0.0404341)
(0.00576147 0 -0.0374788)
(0.00615179 0 -0.0468267)
(0.00605598 0 -0.0442565)
(0.00651884 0 -0.0518803)
(0.00639872 0 -0.050328)
(0.00695387 0 -0.0539813)
(0.00679798 0 -0.0544112)
(0.00749737 0 -0.0509105)
(0.00727895 0 -0.0545782)
(0.00822396 0 -0.0401261)
(0.00789719 0 -0.048354)
(0.00923602 0 -0.0194211)
(0.00874458 0 -0.0331705)
(0.0106256 0 0.0121773)
(0.00993069 0 -0.00719663)
(0.012409 0 0.0536992)
(0.0115279 0 0.029731)
(0.0144727 0 0.102254)
(0.0134999 0 0.0756275)
(0.0165817 0 0.153987)
(0.0156657 0 0.126836)
(0.0184599 0 0.205503)
(0.017748 0 0.179385)
(0.019881 0 0.254966)
(0.0194717 0 0.230435)
(0.0206793 0 0.302509)
(0.0206971 0 0.279076)
(0.0206428 0 0.350165)
(0.0210354 0 0.326491)
(0.0193188 0 0.399737)
(0.0210795 0 0.375744)
(0.0165387 0 0.439764)
(0.0176628 0 0.427209)
(0.0145882 0 0.405595)
(0.0173144 0 0.455391)
(0.0186777 0 0.18172)
(0.0121797 0 0.352173)
(0.0167687 0 -0.151644)
(0.0286102 0 0.00219286)
(-0.0134042 0 -0.178535)
(0.00298019 0 -0.297509)
(-0.019208 0 0.155638)
(-0.0293962 0 -0.0358723)
(-0.0151193 0 0.409968)
(-0.0118759 0 0.358248)
(-0.0184658 0 0.434663)
(-0.0196749 0 0.463669)
(-0.0215116 0 0.360597)
(-0.0200914 0 0.401597)
(-0.0208507 0 0.284058)
(-0.0233973 0 0.320319)
(-0.0179255 0 0.213007)
(-0.0199073 0 0.246533)
(-0.0141176 0 0.153656)
(-0.0166104 0 0.177174)
(-0.0105708 0 0.121322)
(-0.0124735 0 0.127637)
(-0.00787158 0 0.117767)
(-0.00930591 0 0.112893)
(-0.00599293 0 0.124898)
(-0.00703745 0 0.121093)
(-0.00463963 0 0.126488)
(-0.00550359 0 0.127607)
(-0.00346822 0 0.124108)
(-0.00429255 0 0.124509)
(-0.00237681 0 0.128668)
(-0.00312589 0 0.122936)
(-0.00151153 0 0.144039)
(-0.00207054 0 0.133735)
(-0.00109287 0 0.163507)
(-0.00136822 0 0.153907)
(-0.00116411 0 0.178769)
(-0.001217 0 0.172987)
(-0.00152753 0 0.186779)
(-0.00150537 0 0.184695)
(-0.00193747 0 0.188889)
(-0.00194468 0 0.189122)
(-0.0022528 0 0.187516)