/*--------------------------------*- C++ -*----------------------------------*\
  =========                 |
  \\      /  F ield         | OpenFOAM: The Open Source CFD Toolbox
   \\    /   O peration     | Website:  https://openfoam.org
    \\  /    A nd           | Version:  9
     \\/     M anipulation  |
\*---------------------------------------------------------------------------*/
FoamFile
{
    format      ascii;
    class       surfaceScalarField;
    location    "0.1";
    object      alphaPhi0.water;
}
// * * * * * * * * * * * * * * * * * * * * * * * * * * * * * * * * * * * * * //

dimensions      [0 3 -1 0 0 0 0];

internalField   nonuniform List<scalar> 
9850
(
-6.84535e-23
1.15745e-22
-1.11546e-21
2.11966e-21
-2.08197e-20
3.85214e-20
-3.3981e-19
7.01447e-19
-5.02586e-18
1.3448e-17
-4.25487e-17
2.5336e-16
-2.67532e-16
3.91608e-15
0
5.93503e-14
0
1.04169e-12
0
1.84316e-11
0
2.00723e-10
0
6.30828e-10
-1.33867e-07
-3.09412e-09
-7.09899e-07
-1.64738e-06
-8.1526e-07
-2.937e-06
-8.77436e-07
-3.08675e-06
-8.812e-07
-3.16772e-06
-8.49085e-07
-3.24726e-06
-8.1073e-07
-3.28933e-06
-7.80009e-07
-3.30301e-06
-7.59647e-07
-2.71176e-06
-7.39855e-07
-2.60672e-06
-7.18009e-07
-2.50839e-06
-6.93607e-07
-2.40199e-06
-6.69401e-07
-2.26917e-06
-6.53616e-07
-2.09815e-06
-6.56464e-07
-1.89964e-06
-6.80753e-07
-1.69429e-06
-7.16689e-07
-1.46226e-06
-1.98717e-07
-8.24498e-07
-1.67118e-09
-3.20328e-09
-1.1176e-10
3.91482e-11
-5.71754e-12
1.73683e-10
0
7.08064e-11
0
1.83151e-11
0
4.13449e-12
0
9.35402e-13
0
2.16798e-13
0
5.07632e-14
0
1.17987e-14
8.92028e-17
2.61026e-15
1.17905e-16
7.47071e-16
9.74752e-17
4.39135e-16
6.69494e-17
2.87288e-16
4.04615e-17
1.76835e-16
2.1859e-17
9.91545e-17
1.05186e-17
5.00562e-17
4.64085e-18
2.27837e-17
1.79943e-18
1.0028e-17
2.7085e-18
-3.38553e-23
7.26592e-23
-6.32146e-22
1.3251e-21
-1.17269e-20
2.54753e-20
-2.01017e-19
4.79544e-19
-3.06885e-18
8.43507e-18
-1.43349e-17
1.55081e-16
-4.34749e-17
2.52657e-15
0
4.21103e-14
0
8.10464e-13
-9.76393e-13
1.52522e-11
0
1.70754e-10
0
4.19167e-10
-5.778e-08
-1.53302e-09
-6.78214e-07
-1.29799e-06
-8.2664e-07
-2.79939e-06
-8.88097e-07
-3.0253e-06
-8.86351e-07
-3.16946e-06
-8.51397e-07
-3.28221e-06
-8.14142e-07
-3.32658e-06
-7.89259e-07
-3.32789e-06
-7.76458e-07
-2.72456e-06
-7.64976e-07
-2.6182e-06
-7.52237e-07
-2.52113e-06
-7.37972e-07
-2.41625e-06
-7.20771e-07
-2.28637e-06
-7.03038e-07
-2.11588e-06
-6.97065e-07
-1.9056e-06
-7.1621e-07
-1.67487e-06
-7.55734e-07
-1.40961e-06
-1.0112e-07
-6.14945e-07
-1.20267e-09
-6.11222e-10
-1.23978e-10
1.99924e-11
-2.63413e-11
2.26919e-10
0
5.69709e-11
0
1.78303e-11
0
4.14785e-12
0
9.221e-13
0
2.16236e-13
0
5.18343e-14
0
1.22324e-14
6.51964e-17
2.70743e-15
9.91852e-17
7.68385e-16
8.77976e-17
4.89715e-16
6.40714e-17
3.40683e-16
4.11262e-17
2.21625e-16
2.37504e-17
1.31705e-16
1.23598e-17
7.11356e-17
5.91775e-18
3.48643e-17
2.52547e-18
1.66116e-17
4.97913e-18
-2.04517e-23
4.46328e-23
-3.78964e-22
8.87952e-22
-7.24068e-21
1.83637e-20
-1.42763e-19
3.47004e-19
-1.89874e-18
6.00333e-18
-1.32997e-18
9.97506e-17
0
1.78354e-15
0
3.41574e-14
0
7.0089e-13
0
1.37917e-11
-3.5184e-11
1.77015e-10
0
6.12704e-10
-4.09593e-09
-3.78313e-11
-5.83493e-07
-7.58412e-07
-8.25724e-07
-2.61388e-06
-8.7842e-07
-2.97254e-06
-8.70974e-07
-3.17691e-06
-8.40218e-07
-3.31297e-06
-8.09307e-07
-3.35749e-06
-7.91982e-07
-3.34522e-06
-7.87813e-07
-2.72873e-06
-7.86144e-07
-2.61987e-06
-7.8497e-07
-2.5223e-06
-7.87346e-07
-2.41387e-06
-7.9089e-07
-2.28283e-06
-7.87989e-07
-2.11877e-06
-7.81853e-07
-1.91167e-06
-7.89047e-07
-1.66629e-06
-6.74149e-07
-1.34096e-06
-1.02118e-08
-3.1734e-07
-6.5481e-10
-3.31014e-10
-2.85353e-10
-1.54016e-11
-6.45514e-11
2.73579e-10
-3.50813e-12
5.36461e-11
0
1.49826e-11
0
4.37916e-12
0
9.44236e-13
0
2.15591e-13
0
5.13032e-14
0
1.23958e-14
4.39241e-17
2.67981e-15
7.74689e-17
7.44569e-16
7.31138e-17
5.31728e-16
5.48703e-17
3.93483e-16
3.66358e-17
2.67511e-16
2.23084e-17
1.66529e-16
1.23547e-17
9.49003e-17
6.32671e-18
4.94341e-17
2.9195e-18
2.51419e-17
8.20698e-18
-1.28952e-23
3.09896e-23
-2.53134e-22
6.93355e-22
-5.38058e-21
1.44524e-20
-1.09098e-19
2.82168e-19
-1.33105e-18
4.75122e-18
-9.96788e-19
7.43216e-17
0
1.47527e-15
0
3.06836e-14
0
6.5214e-13
0
1.28466e-11
-1.16095e-10
2.43791e-10
0
3.31297e-10
9.97986e-12
-1.31711e-10
-3.82026e-07
-2.32742e-07
-7.50683e-07
-2.3817e-06
-8.07979e-07
-2.91526e-06
-8.10941e-07
-3.17393e-06
-8.02555e-07
-3.32135e-06
-7.89896e-07
-3.37015e-06
-7.84603e-07
-3.35051e-06
-7.90839e-07
-2.72249e-06
-8.00054e-07
-2.61066e-06
-8.08689e-07
-2.51367e-06
-8.25855e-07
-2.39671e-06
-8.58213e-07
-2.25046e-06
-8.91521e-07
-2.0854e-06
-9.07668e-07
-1.8951e-06
-9.07292e-07
-1.66009e-06
-4.7062e-07
-1.17123e-06
-2.9536e-09
-7.16242e-08
-4.99697e-10
-2.60471e-10
-3.69081e-10
-7.90106e-11
-1.03848e-10
1.37485e-10
-7.67013e-12
7.12282e-11
-4.04555e-13
1.01827e-11
0
4.19488e-12
0
1.04954e-12
0
2.26495e-13
0
5.20866e-14
0
1.26639e-14
2.42973e-17
2.66053e-15
5.03438e-17
7.00401e-16
5.00523e-17
5.39627e-16
3.95279e-17
4.3566e-16
2.72258e-17
3.13579e-16
1.71555e-17
2.03325e-16
9.9513e-18
1.20923e-16
5.3729e-18
6.61821e-17
2.63222e-18
3.54629e-17
1.23849e-17
-8.8954e-24
2.42877e-23
-1.93942e-22
5.67358e-22
-4.30366e-21
1.20248e-20
-9.59745e-20
2.43591e-19
-1.02195e-18
4.08876e-18
-7.99739e-19
6.24899e-17
0
1.3488e-15
0
2.95562e-14
0
6.48087e-13
0
1.52436e-11
-4.94986e-11
2.38084e-10
0
1.62532e-11
-3.96416e-10
-6.49527e-11
-1.6906e-07
-1.43136e-08
-5.21945e-07
-1.93478e-06
-6.35893e-07
-2.80082e-06
-6.89609e-07
-3.12014e-06
-7.31435e-07
-3.27951e-06
-7.52203e-07
-3.34938e-06
-7.64243e-07
-3.33847e-06
-7.82586e-07
-2.70415e-06
-8.036e-07
-2.58964e-06
-8.16992e-07
-2.50026e-06
-8.33076e-07
-2.3806e-06
-8.7582e-07
-2.20765e-06
-9.38081e-07
-2.0226e-06
-9.79198e-07
-1.85091e-06
-9.19045e-07
-1.65326e-06
-2.0147e-07
-5.62966e-07
-1.74584e-09
-1.87365e-09
-3.44228e-10
-3.42098e-10
-2.3622e-10
-7.25152e-11
-1.03675e-10
3.63607e-11
-1.15406e-11
8.33748e-11
-9.24414e-13
7.22969e-12
-1.09975e-13
3.71036e-12
0
1.02704e-12
0
2.45728e-13
0
5.71591e-14
0
1.35128e-14
7.54291e-18
2.75024e-15
2.0509e-17
6.4192e-16
2.11819e-17
5.3203e-16
1.78457e-17
4.61375e-16
1.25482e-17
3.55667e-16
7.926e-18
2.40878e-16
4.61672e-18
1.48486e-16
2.4942e-18
8.44112e-17
1.21877e-18
4.69286e-17
1.71501e-17
-6.74621e-24
2.01934e-23
-1.54395e-22
4.73817e-22
-3.55012e-21
1.0282e-20
-8.57206e-20
2.14905e-19
-8.44087e-19
3.661e-18
-6.93146e-19
5.56189e-17
0
1.26335e-15
0
2.90963e-14
0
6.66609e-13
-2.35973e-11
2.22377e-11
-1.60557e-11
8.46102e-11
-9.93575e-13
7.8265e-11
0
-6.69871e-11
-2.96245e-08
-1.63056e-09
-2.61175e-07
-9.14259e-07
-4.24153e-07
-2.6302e-06
-5.42362e-07
-3.00104e-06
-6.42664e-07
-3.17905e-06
-6.99851e-07
-3.29214e-06
-7.30323e-07
-3.30795e-06
-7.61142e-07
-2.67329e-06
-7.95605e-07
-2.55513e-06
-8.13583e-07
-2.4822e-06
-8.13949e-07
-2.38002e-06
-8.30961e-07
-2.19005e-06
-8.76579e-07
-1.97368e-06
-8.86735e-07
-1.80824e-06
-4.00372e-07
-9.59529e-07
-1.03267e-08
-1.26639e-08
-8.302e-10
-1.26435e-09
-3.63328e-10
-2.48801e-10
-1.49449e-10
-5.56757e-11
-7.65599e-11
1.26965e-11
-1.51343e-11
6.71576e-11
-1.34672e-12
7.06254e-12
-2.84892e-13
3.15644e-12
-4.40772e-14
9.23876e-13
-6.53057e-15
2.40241e-13
-1.03417e-15
5.86679e-14
-1.71189e-16
1.40226e-14
-2.25657e-17
2.90045e-15
-1.02219e-17
5.72291e-16
-9.28423e-18
5.13334e-16
-9.16174e-18
4.75006e-16
-7.74226e-18
3.88872e-16
-5.74297e-18
2.75686e-16
-3.83321e-18
1.75583e-16
-2.56649e-18
1.02723e-16
-1.47427e-18
5.83288e-17
2.12417e-17
-5.40925e-24
1.67666e-23
-1.25219e-22
3.96225e-22
-2.96416e-21
8.81671e-21
-7.0937e-20
1.89189e-19
-7.16931e-19
3.25507e-18
-5.30856e-19
4.89686e-17
0
1.15351e-15
0
2.76134e-14
0
6.27713e-13
-2.90964e-12
1.64254e-11
-7.14216e-12
5.33996e-11
-4.36964e-12
2.02673e-10
0
-6.3048e-11
-1.83208e-09
-1.3037e-10
-1.8466e-07
-8.13973e-08
-3.19652e-07
-1.89288e-06
-4.51517e-07
-2.85949e-06
-5.7187e-07
-3.05673e-06
-6.43873e-07
-3.2195e-06
-6.85877e-07
-3.2655e-06
-7.26666e-07
-2.63216e-06
-7.74275e-07
-2.50712e-06
-8.05129e-07
-2.4506e-06
-8.02856e-07
-2.3803e-06
-7.93798e-07
-2.19257e-06
-8.03433e-07
-1.92891e-06
-4.83303e-07
-1.0435e-06
-1.24793e-08
-2.64494e-08
-1.37325e-09
-8.50016e-10
-6.48449e-10
-1.16363e-09
-2.28639e-10
-3.23204e-10
-8.84809e-11
-1.16794e-11
-6.14473e-11
8.01783e-12
-1.69729e-11
3.44203e-11
-1.92214e-12
9.76823e-12
-4.07097e-13
2.91494e-12
-8.32713e-14
7.88357e-13
-1.75646e-14
2.18173e-13
-3.8514e-15
5.64287e-14
-7.8803e-16
1.39691e-14
-9.85207e-17
2.95695e-15
-4.5769e-17
5.65682e-16
-3.984e-17
5.14051e-16
-3.88546e-17
4.83919e-16
-3.26961e-17
4.10917e-16
-2.38366e-17
3.0334e-16
-1.54615e-17
1.98459e-16
-9.99082e-18
1.18415e-16
-5.42183e-18
6.79953e-17
2.3823e-17
-4.26777e-24
1.35167e-23
-1.00346e-22
3.24516e-22
-2.47215e-21
7.4153e-21
-5.96637e-20
1.64991e-19
-6.00435e-19
2.81977e-18
-3.55693e-19
4.1788e-17
0
1.01991e-15
0
2.52743e-14
0
5.37988e-13
0
1.18842e-11
-9.06695e-11
8.6102e-11
-5.80582e-11
2.93019e-10
-4.92379e-11
-8.61745e-11
-3.42285e-11
-5.10063e-11
-7.80485e-08
-1.92404e-09
-2.91289e-07
-1.54697e-07
-4.34949e-07
-2.03498e-06
-5.28702e-07
-2.94047e-06
-5.89827e-07
-3.15137e-06
-6.37998e-07
-3.21181e-06
-6.81554e-07
-2.58427e-06
-7.27642e-07
-2.45592e-06
-7.64881e-07
-2.40444e-06
-7.8517e-07
-2.33606e-06
-7.97118e-07
-2.00042e-06
-4.63997e-07
-8.31006e-07
-1.17963e-08
-1.40993e-08
-6.82341e-10
-1.35065e-09
-2.88692e-10
-7.62963e-11
-4.38969e-10
-5.21985e-10
-1.89755e-10
-4.24041e-10
-4.64065e-11
-3.2478e-11
-3.33931e-11
1.05155e-11
-1.47599e-11
9.42164e-12
-2.57553e-12
1.11873e-11
-5.13515e-13
2.85156e-12
-1.11398e-13
7.16573e-13
-2.64957e-14
1.93979e-13
-6.33369e-15
5.2158e-14
-1.36267e-15
1.33566e-14
-1.22291e-16
2.89586e-15
-7.89288e-17
5.62089e-16
-7.00914e-17
5.19016e-16
-6.90918e-17
4.92363e-16
-5.98131e-17
4.25819e-16
-4.46295e-17
3.23843e-16
-2.93376e-17
2.16168e-16
-1.90322e-17
1.30495e-16
-1.01164e-17
7.42903e-17
2.46048e-17
-3.30689e-24
1.07271e-23
-7.88416e-23
2.62256e-22
-2.07171e-21
6.17069e-21
-4.97242e-20
1.45249e-19
-4.93596e-19
2.40265e-18
-2.42711e-19
3.42254e-17
0
8.63488e-16
0
2.14125e-14
0
4.20087e-13
0
7.23009e-12
-1.36639e-10
2.10062e-10
-4.62469e-11
3.04091e-10
-3.35049e-11
-7.80183e-11
-2.0694e-11
-3.8497e-11
-1.38543e-09
-1.37697e-10
-1.27803e-07
-2.86832e-09
-2.59581e-07
-7.29671e-08
-4.50568e-07
-1.38852e-06
-5.35264e-07
-2.57416e-06
-5.94931e-07
-3.03302e-06
-6.2075e-07
-2.47418e-06
-6.23409e-07
-2.24172e-06
-6.10835e-07
-1.75418e-06
-5.58712e-07
-1.09608e-06
-2.78333e-07
-4.05589e-07
-3.44588e-09
-1.23946e-08
-3.17382e-10
-1.05867e-09
-1.55357e-11
-6.52917e-11
-3.69623e-13
-9.02452e-12
-2.88857e-10
-1.88955e-10
-2.0721e-10
-4.34135e-10
-1.04628e-10
-1.19968e-10
-2.40721e-11
1.08416e-11
-1.11612e-11
3.5527e-12
-3.2166e-12
1.19081e-11
-6.14266e-13
2.67816e-12
-1.38231e-13
6.91304e-13
-3.34263e-14
1.7677e-13
-8.36698e-15
4.76098e-14
-1.83929e-15
1.24628e-14
-1.57195e-16
2.70998e-15
-1.16028e-16
5.67728e-16
-1.01195e-16
5.27827e-16
-9.99589e-17
5.03314e-16
-8.84236e-17
4.38645e-16
-6.7485e-17
3.38516e-16
-4.50275e-17
2.26126e-16
-2.86907e-17
1.35918e-16
-1.4213e-17
7.55364e-17
2.32909e-17
-2.55143e-24
8.56158e-24
-6.20389e-23
2.1473e-22
-1.81925e-21
5.28531e-21
-4.67875e-20
1.33491e-19
-3.98608e-19
2.07814e-18
-3.22494e-19
2.79189e-17
0
7.46771e-16
0
1.86084e-14
0
3.46402e-13
-4.33768e-12
9.38183e-12
-1.32161e-10
6.45068e-10
-2.75904e-11
3.00985e-10
-3.52715e-11
-4.9355e-11
-8.89625e-12
0
-2.10784e-12
-2.94916e-11
-6.10463e-10
-1.42594e-10
-4.7832e-08
-1.66974e-09
-1.01723e-07
-1.54214e-08
-2.63998e-07
-6.81659e-08
-3.37136e-07
-3.33308e-07
-3.29409e-07
-2.86782e-07
-2.25754e-07
-1.47855e-07
-1.19111e-07
-1.66998e-08
-2.28294e-08
-9.41456e-09
-4.19007e-10
-2.96219e-09
-1.53648e-10
-9.57027e-10
-2.96807e-11
-1.09511e-10
-1.79906e-12
-5.14407e-12
-6.01412e-12
-1.61037e-12
-2.61094e-10
-3.88668e-11
-2.79776e-10
-3.42226e-10
-1.84914e-10
-1.64799e-10
-1.60387e-11
2.16195e-11
-8.68547e-12
4.17536e-12
-1.37443e-12
1.16046e-11
-7.97844e-13
3.12866e-12
-1.60256e-13
6.30283e-13
-3.9109e-14
1.67761e-13
-9.94335e-15
4.34519e-14
-2.17362e-15
1.12443e-14
-1.85904e-16
2.43138e-15
-1.50988e-16
5.73155e-16
-1.33607e-16
5.35859e-16
-1.32188e-16
5.07979e-16
-1.17137e-16
4.49838e-16
-8.83133e-17
3.40712e-16
-5.83401e-17
2.26153e-16
-3.6509e-17
1.35674e-16
-1.70837e-17
7.31112e-17
2.04379e-17
-1.99018e-24
7.049e-24
-5.06947e-23
1.83219e-22
-1.67565e-21
4.8395e-21
-4.93749e-20
1.28205e-19
-3.3763e-19
1.9279e-18
-3.20324e-19
2.51245e-17
-2.25734e-17
7.11603e-16
0
1.87169e-14
-1.02013e-14
4.11472e-13
-8.07565e-12
1.0917e-11
-1.16731e-10
3.32755e-10
-2.86585e-11
2.47771e-10
-4.35971e-11
-8.02204e-11
-1.28231e-11
-1.4433e-10
-2.41928e-12
-1.74728e-11
-1.62527e-12
-6.4622e-12
-1.03319e-10
-8.01478e-11
-7.58542e-10
-8.46851e-10
-4.60563e-09
-2.50504e-09
-5.57493e-09
-2.82086e-09
-3.25033e-09
-2.0236e-09
-3.18368e-10
-1.48779e-09
-1.85551e-10
-1.03726e-09
-7.99673e-11
-5.90231e-10
-5.86812e-11
-1.52132e-10
-2.74076e-11
-8.68556e-11
-4.29374e-12
-1.07778e-11
-4.57342e-13
-7.0365e-13
-2.01047e-12
-6.37371e-13
-1.13761e-10
-7.41096e-12
-3.08326e-10
-2.91784e-10
-2.05167e-10
-1.83948e-10
-1.77885e-11
3.32754e-11
-8.56802e-12
2.27633e-12
-3.36223e-12
5.69253e-12
-7.60673e-13
2.4164e-12
-1.76162e-13
4.99572e-13
-4.42327e-14
1.59547e-13
-1.08425e-14
3.7521e-14
-2.31033e-15
9.75226e-15
-2.18711e-16
2.05858e-15
-1.83226e-16
5.78209e-16
-1.63937e-16
5.39204e-16
-1.54016e-16
5.11687e-16
-1.43473e-16
4.53248e-16
-1.06146e-16
3.35552e-16
-6.96893e-17
2.19062e-16
-4.27036e-17
1.29992e-16
-1.82782e-17
6.74124e-17
1.64157e-17
-1.64048e-24
6.18457e-24
-4.47052e-23
1.68317e-22
-1.62e-21
4.74103e-21
-4.54913e-20
1.29755e-19
-3.07732e-19
1.86267e-18
-2.11981e-19
2.31499e-17
0
6.86123e-16
0
1.76742e-14
0
4.43427e-13
-1.88962e-11
9.50104e-12
-1.99322e-11
3.6471e-11
-1.87727e-11
0
-6.2574e-11
-1.57054e-10
-7.83314e-12
-1.6042e-10
-1.86863e-12
-2.01287e-12
-2.67391e-14
-1.02315e-12
-5.99414e-12
-4.41073e-12
-1.53663e-11
-4.4705e-11
-1.99408e-11
-8.60795e-11
-1.79699e-11
-1.07343e-10
-1.3986e-11
-7.8385e-11
-1.55252e-11
-5.98674e-11
-1.38852e-11
-6.21568e-11
-1.24356e-11
-3.77597e-11
-3.24203e-12
-1.78616e-11
-6.48634e-13
-3.74479e-12
-1.75223e-13
-9.02854e-13
-3.62506e-14
-3.18787e-13
-8.06344e-13
-4.14693e-13
-6.65178e-12
-3.22981e-12
-3.029e-10
-1.15757e-10
-1.37243e-10
-1.42917e-10
-7.76861e-12
3.1347e-11
-3.26866e-12
1.25484e-12
-1.96444e-12
3.5599e-13
-7.34618e-13
2.6255e-12
-1.63205e-13
3.7306e-13
-4.56979e-14
1.38463e-13
-1.06418e-14
3.06781e-14
-2.2027e-15
7.87914e-15
-2.39745e-16
1.64629e-15
-2.02906e-16
5.79117e-16
-1.93117e-16
5.40057e-16
-1.78707e-16
5.11903e-16
-1.66264e-16
4.51346e-16
-1.2027e-16
3.21924e-16
-7.80688e-17
2.0595e-16
-4.62576e-17
1.20121e-16
-1.72165e-17
5.88335e-17
1.1719e-17
-1.45304e-24
5.75746e-24
-4.24217e-23
1.64112e-22
-1.6969e-21
4.869e-21
-4.40206e-20
1.36107e-19
-2.85878e-19
1.8027e-18
-2.38437e-19
2.04423e-17
0
6.20126e-16
0
1.53519e-14
-5.21082e-14
3.73958e-13
-9.73565e-13
7.26408e-12
-1.52119e-12
3.30455e-11
-8.41992e-11
7.41485e-11
-6.96939e-11
-1.61752e-10
-2.39647e-11
-1.62898e-10
-2.34459e-13
-4.66369e-12
-4.15457e-14
-3.59002e-13
-2.63179e-13
-5.36765e-13
-1.42499e-12
-3.22278e-12
-2.315e-12
-8.12243e-12
-2.11291e-12
-1.0486e-11
-1.55428e-12
-6.65129e-12
-2.41113e-12
-7.01808e-12
-2.0333e-12
-2.15558e-11
-8.11384e-13
-7.82272e-12
-3.18597e-13
-2.18115e-12
-1.45787e-13
-6.12174e-13
-9.09679e-14
-2.58922e-13
-1.18999e-13
-2.15447e-13
-3.32442e-13
-2.95299e-13
-2.93668e-12
-1.66039e-12
-2.78451e-10
-4.55147e-11
-1.25706e-10
-9.13568e-11
-2.9797e-12
1.77783e-11
-1.3228e-12
7.80935e-13
-1.44077e-12
5.27864e-13
-5.18124e-13
2.68966e-12
-1.4715e-13
4.39668e-13
-3.83836e-14
7.42017e-14
-9.72543e-15
2.89635e-14
-1.88321e-15
5.60436e-15
-2.71543e-16
1.24624e-15
-2.2746e-16
5.74483e-16
-2.21011e-16
5.39388e-16
-2.05173e-16
5.10503e-16
-1.83883e-16
4.386e-16
-1.29056e-16
2.99812e-16
-8.22784e-17
1.87059e-16
-4.62532e-17
1.06164e-16
-1.43005e-17
4.7863e-17
7.47638e-18
-1.35764e-24
5.59579e-24
-4.23429e-23
1.64059e-22
-1.82956e-21
5.07903e-21
-4.7063e-20
1.36237e-19
-2.50549e-19
1.6544e-18
-8.33295e-19
1.76272e-17
0
5.25025e-16
0
1.2592e-14
-1.31172e-13
2.41769e-13
-6.40801e-14
9.1783e-12
-4.14147e-11
2.59435e-10
-8.56053e-11
1.69993e-10
-3.04326e-11
-1.64262e-10
-1.42373e-11
-1.02921e-10
-6.82693e-13
-7.73748e-12
-6.08184e-14
-1.76891e-13
-5.01445e-14
-2.90151e-13
-1.18083e-13
-4.39179e-13
-1.22438e-13
-6.98574e-13
-9.16833e-14
-6.96358e-13
-6.66075e-14
-4.41346e-13
-1.13716e-12
-1.8617e-12
-2.41614e-12
-1.29902e-11
-8.26078e-13
-5.44833e-12
-2.09472e-13
-1.21328e-13
-7.67598e-14
-1.4107e-13
-6.79233e-14
-2.26482e-13
-1.19281e-13
-1.99853e-13
-1.98654e-13
-2.53583e-13
-1.1907e-12
-1.38232e-12
-2.08877e-10
-3.12481e-11
-9.07374e-11
-2.19598e-11
-2.0329e-12
3.83423e-12
-1.03251e-12
7.10514e-13
-1.17614e-12
7.5474e-13
-2.33706e-13
2.73403e-12
-1.23424e-13
6.26232e-13
-2.73608e-14
4.03926e-14
-8.2604e-15
2.82305e-14
-1.38537e-15
3.10749e-15
-2.71426e-16
8.8036e-16
-2.57262e-16
5.62522e-16
-2.47846e-16
5.36505e-16
-2.30199e-16
5.07867e-16
-1.93658e-16
4.13565e-16
-1.31411e-16
2.69952e-16
-8.16073e-17
1.64008e-16
-4.2348e-17
8.93525e-17
-1.0258e-17
3.59047e-17
4.14948e-18
-1.33701e-24
5.59584e-24
-4.40579e-23
1.71019e-22
-1.8446e-21
5.28575e-21
-4.72746e-20
1.28311e-19
-2.21985e-19
1.47876e-18
-2.12751e-18
1.79772e-17
-2.22481e-17
5.71366e-16
-5.32595e-15
1.90179e-14
-4.48359e-13
6.44174e-13
-3.48673e-11
3.77788e-11
-8.17153e-11
6.11966e-10
-9.3687e-11
1.75016e-10
-5.66723e-11
-1.76494e-10
-1.26611e-11
-6.41129e-11
-5.34136e-13
-4.21348e-12
-5.28813e-14
-2.02551e-13
-2.95212e-14
-1.97994e-13
-3.23094e-14
-1.95428e-13
-3.07786e-14
-2.14667e-13
-8.18049e-15
-1.6781e-13
-1.85007e-14
-1.02309e-13
-2.10633e-12
-8.04461e-13
-2.48882e-12
-1.22333e-11
-2.05996e-12
-1.15419e-11
-3.07257e-13
-8.49323e-12
-7.36003e-14
-3.35463e-13
-6.76193e-14
-2.68948e-13
-1.09489e-13
-1.9684e-13
-1.50248e-13
-2.47729e-13
-7.48779e-13
-1.37643e-12
-9.72517e-11
-3.4384e-11
-2.01308e-10
1.95478e-11
-1.83328e-12
9.84312e-11
-1.00406e-12
6.58478e-13
-1.20369e-12
5.24553e-13
-2.62681e-13
2.77983e-12
-5.50237e-14
6.05e-13
-2.27214e-14
1.7888e-14
-6.32905e-15
1.969e-14
-8.33202e-16
2.25218e-15
-2.77593e-16
7.84567e-16
-2.75354e-16
5.59764e-16
-2.74759e-16
5.35874e-16
-2.55071e-16
5.00716e-16
-1.94402e-16
3.72949e-16
-1.27608e-16
2.35653e-16
-7.61965e-17
1.38652e-16
-3.52786e-17
7.09859e-17
-6.29137e-18
2.45197e-17
1.98425e-18
-1.38363e-24
5.72854e-24
-4.87051e-23
1.88958e-22
-1.75913e-21
5.48541e-21
-3.05424e-20
1.11281e-19
-2.06691e-19
1.28583e-18
-8.2607e-18
2.56039e-17
-2.7742e-16
8.75222e-16
-1.22756e-14
3.1245e-14
-5.56314e-13
1.11813e-12
-9.1791e-11
8.55141e-11
-8.59638e-11
5.96384e-10
-8.0632e-11
1.67898e-10
-4.80755e-11
-2.04117e-10
-5.92331e-12
-1.12094e-11
-2.78713e-13
-4.1978e-13
-6.33833e-14
-1.7066e-13
-3.70741e-14
-1.40722e-13
-3.2019e-14
-8.16641e-14
-2.4055e-14
-7.97813e-14
-1.15123e-14
-1.07587e-13
-5.94819e-14
-8.86092e-14
-1.09885e-12
-1.09446e-13
-2.78347e-12
-7.94142e-12
-2.71038e-12
-1.10899e-11
-1.26443e-12
-1.07393e-11
-2.52007e-13
-8.23115e-12
-6.96692e-14
-4.90624e-13
-1.01007e-13
-2.00284e-13
-1.19913e-13
-2.68054e-13
-6.52981e-13
-1.70532e-12
-1.82205e-10
-5.35161e-11
-2.21788e-10
6.3662e-11
-1.6005e-11
3.63363e-10
-1.07134e-12
2.1896e-12
-1.56423e-12
4.12943e-13
-4.62518e-13
2.22571e-12
-3.07107e-14
3.35577e-13
-1.63054e-14
9.11545e-15
-2.41203e-15
7.49901e-15
-5.11392e-16
9.61581e-16
-3.02105e-16
6.42401e-16
-2.9959e-16
5.58559e-16
-2.97133e-16
5.34887e-16
-2.66369e-16
4.82762e-16
-1.86992e-16
3.23854e-16
-1.18747e-16
1.99498e-16
-6.68202e-17
1.12571e-16
-2.65023e-17
5.25511e-17
-3.2764e-18
1.49879e-17
8.01095e-19
-1.65642e-24
6.24934e-24
-5.60997e-23
2.4157e-22
-2.2442e-21
5.43118e-21
-1.51728e-20
9.07858e-20
-2.11865e-19
1.50617e-18
-2.21746e-17
4.77488e-17
-8.80211e-16
1.75785e-15
-3.59968e-14
6.62611e-14
-1.53068e-12
2.46263e-12
-2.06493e-11
1.86034e-10
-8.09543e-11
1.37239e-10
-7.30329e-11
1.50253e-10
-2.98857e-11
-1.02542e-10
-3.78064e-13
-1.87324e-12
-9.05573e-14
-6.71257e-13
-5.11665e-14
-2.91859e-13
-3.11532e-14
-1.28955e-13
-3.16524e-14
-1.40038e-13
-2.70377e-14
-1.58724e-13
-2.04346e-14
-1.91888e-13
-9.00377e-15
-1.39623e-13
-4.44796e-14
-5.41335e-14
-1.52864e-12
-4.14564e-13
-2.72407e-12
-8.37252e-12
-2.56787e-12
-1.0407e-11
-7.72933e-13
-9.59604e-12
-1.14066e-13
-1.79728e-12
-1.05319e-13
-2.4524e-13
0
-5.30224e-13
-5.8864e-13
-1.17193e-11
-1.7323e-10
-5.08195e-11
-2.10077e-10
1.15642e-10
-5.09731e-11
3.09967e-10
-1.14636e-12
6.79995e-12
-6.62238e-13
1.86348e-13
-3.68262e-13
0
-1.63467e-14
1.12989e-13
-7.45663e-15
3.38043e-15
-8.80705e-16
1.57292e-15
-3.76244e-16
6.8089e-16
-3.23744e-16
5.93818e-16
-3.25297e-16
5.57713e-16
-3.18297e-16
5.30828e-16
-2.60192e-16
4.44814e-16
-1.73288e-16
2.74765e-16
-1.05503e-16
1.63525e-16
-5.41586e-17
8.68019e-17
-1.75369e-17
3.55075e-17
-1.38865e-18
8.01262e-18
2.571e-19
-3.04093e-24
9.28919e-24
-8.28499e-23
4.23039e-22
-1.06384e-21
5.8292e-21
-1.5075e-20
8.38259e-20
-9.50814e-19
2.42835e-18
-3.88075e-17
8.51574e-17
-1.43959e-15
3.15533e-15
-6.00014e-14
1.16881e-13
-8.59246e-12
6.39999e-12
-2.67307e-12
1.05067e-10
-7.15252e-11
9.66296e-11
-3.23544e-11
9.94384e-11
-4.57223e-12
-2.56718e-11
-4.92422e-13
-1.15803e-11
-1.22429e-13
-8.3601e-13
-6.82713e-14
-1.73187e-13
-3.06583e-14
-1.30547e-13
-6.00644e-14
-2.47276e-13
-1.28857e-13
-9.60655e-13
-5.68577e-14
-4.3251e-12
-1.32126e-14
-3.80494e-13
-5.48164e-17
-3.27911e-14
-3.18286e-13
-4.99713e-14
-1.86317e-12
-5.94571e-13
-2.55022e-12
-9.23137e-12
-1.67584e-12
-9.95717e-12
-5.57672e-13
-6.35038e-12
-1.52898e-13
-5.01697e-13
-9.32237e-14
-1.10612e-12
0
-3.20793e-11
-2.03866e-10
-3.56283e-11
-2.64374e-10
1.85435e-10
-1.54043e-11
2.57449e-10
-3.41906e-13
2.25108e-12
-2.27327e-13
5.16562e-14
-7.42459e-14
0
-6.60069e-15
4.74452e-14
-1.75132e-15
2.34931e-15
-5.12535e-16
1.01318e-15
-3.56776e-16
6.69027e-16
-3.48785e-16
5.84717e-16
-3.52392e-16
5.56479e-16
-3.35679e-16
5.20289e-16
-2.43558e-16
3.90768e-16
-1.5447e-16
2.26155e-16
-8.84459e-17
1.28949e-16
-3.96552e-17
6.24074e-17
-9.97554e-18
2.13758e-17
-4.51829e-19
3.6664e-18
6.04729e-20
-9.40189e-24
2.09446e-23
-1.9126e-22
9.84305e-22
-1.07223e-21
8.51736e-21
-1.79967e-20
1.01602e-19
-8.0609e-19
3.15604e-18
-2.58999e-17
1.08698e-16
-7.82548e-16
3.82439e-15
-2.51597e-14
1.33278e-13
-5.96406e-12
8.74751e-12
0
1.30946e-11
-6.59208e-11
9.95338e-11
-2.51068e-11
7.98668e-11
-1.60877e-11
-1.27105e-11
-6.36409e-12
-2.16033e-11
-1.56232e-13
-2.69371e-11
-5.72376e-14
-1.79815e-13
-2.13977e-14
-1.41231e-13
-4.17886e-13
-1.23078e-12
-1.68632e-12
-1.42179e-11
-1.57394e-12
-1.13638e-11
-5.57962e-14
-4.68759e-12
-1.00012e-14
-3.00278e-14
-1.1034e-14
-2.82154e-14
-5.36061e-13
-4.71726e-14
-2.67895e-12
-1.72442e-12
-2.63188e-12
-9.36063e-12
-1.14421e-12
-7.92676e-12
0
-5.16268e-13
-2.84964e-12
-1.59558e-12
-3.06431e-11
-3.19628e-11
-1.12291e-10
-1.59559e-12
-2.12118e-10
2.40837e-11
-2.17783e-12
1.76742e-11
-1.75944e-13
2.09561e-13
-1.93973e-13
3.94145e-14
-3.83023e-14
5.25705e-14
-2.71784e-15
1.29377e-14
-9.24862e-16
1.11259e-15
-4.75654e-16
7.62691e-16
-3.8239e-16
6.77636e-16
-3.78709e-16
5.81238e-16
-3.78433e-16
5.52416e-16
-3.36812e-16
4.97094e-16
-2.18521e-16
3.2461e-16
-1.31617e-16
1.80097e-16
-6.86315e-17
9.63901e-17
-2.55818e-17
4.07831e-17
-4.79719e-18
1.12014e-17
-1.03148e-19
1.42049e-18
1.54399e-20
-2.96956e-23
5.74707e-23
-3.98011e-22
2.43924e-21
-1.70527e-21
1.64938e-20
-2.12857e-20
1.27429e-19
-3.40653e-19
3.33893e-18
-5.35324e-18
1.13006e-16
-4.09209e-17
3.8712e-15
-1.38632e-13
1.31961e-13
0
6.70672e-12
-8.41634e-12
1.82378e-11
-3.15603e-11
2.72765e-10
-6.45081e-12
5.10766e-11
-3.1675e-11
-1.35854e-11
-2.47213e-11
-4.18616e-11
-1.25567e-13
-3.671e-11
-5.87125e-14
-2.50303e-13
-4.4777e-14
-1.81276e-13
-1.8841e-12
-4.64331e-13
-1.44384e-12
-1.35564e-11
-1.39914e-12
-1.04804e-11
-5.12446e-14
-2.75448e-12
-6.78049e-15
-4.54405e-14
-4.75684e-15
-2.4419e-14
-2.73477e-14
-2.77147e-14
-1.5632e-12
-1.10659e-13
-2.8476e-12
-8.1425e-12
-1.22415e-12
-9.48428e-12
0
-8.0281e-13
-1.65223e-12
-9.05141e-12
-3.16679e-11
-5.28364e-11
-6.04419e-11
1.69207e-11
-2.09784e-11
7.93823e-12
-2.61701e-12
1.30291e-12
-1.08245e-13
6.08772e-13
-1.08206e-13
3.45694e-14
-1.16328e-14
3.07795e-14
-1.12051e-15
2.45912e-15
-5.77207e-16
7.74004e-16
-4.64743e-16
7.1652e-16
-4.09147e-16
6.5342e-16
-4.06523e-16
5.77698e-16
-3.96898e-16
5.43606e-16
-3.11749e-16
4.48396e-16
-1.8766e-16
2.57926e-16
-1.05567e-16
1.37441e-16
-4.80039e-17
6.67181e-17
-1.42167e-17
2.35955e-17
-1.94092e-18
5.03428e-18
-2.10768e-20
4.68948e-19
3.58868e-21
-8.00566e-23
1.56859e-22
-9.33107e-22
5.77326e-21
-3.22402e-21
3.52557e-20
-2.49869e-20
1.7e-19
-4.195e-19
3.54345e-18
0
1.11014e-16
0
3.4095e-15
0
1.14534e-13
0
3.29415e-12
-3.75136e-11
4.40648e-11
-7.51797e-12
2.71777e-10
-9.06909e-12
1.12058e-11
-2.43982e-11
-1.51603e-11
-2.07075e-11
-7.69049e-11
-7.59044e-13
-7.03935e-12
-1.31622e-13
-7.29173e-13
-3.33567e-14
-5.79568e-13
-8.14764e-13
-3.48517e-12
-1.34744e-12
-7.09786e-12
-6.74129e-13
0
-7.08943e-14
-1.99428e-13
-5.66288e-15
-8.21833e-14
-5.37043e-15
-2.48358e-14
-1.24501e-14
-2.22516e-14
-1.0187e-13
-2.71859e-14
-2.27892e-12
-1.05745e-12
0
-1.01636e-11
0
-1.68444e-12
-9.58251e-11
-2.01546e-11
-1.10485e-10
-2.96258e-11
-1.68186e-11
2.54319e-11
-4.25884e-12
1.52207e-12
-1.61854e-12
1.20226e-13
-5.22881e-14
8.45443e-13
-2.91197e-14
1.35896e-14
-2.03547e-15
7.06654e-15
-6.33596e-16
9.90729e-16
-4.94324e-16
6.89916e-16
-4.68428e-16
6.86111e-16
-4.37752e-16
6.22511e-16
-4.32223e-16
5.72832e-16
-4.03771e-16
5.24514e-16
-2.70088e-16
3.74189e-16
-1.52685e-16
1.95804e-16
-7.77993e-17
9.87627e-17
-2.94586e-17
4.16184e-17
-6.71775e-18
1.18539e-17
-6.67757e-19
1.93406e-18
-3.88547e-21
1.3377e-19
7.24318e-22
-1.90253e-22
3.94366e-22
-2.17536e-21
1.27176e-20
-6.57086e-21
7.42661e-20
-3.2718e-20
2.64872e-19
-4.98863e-19
3.5903e-18
0
9.70708e-17
0
2.78588e-15
0
1.08179e-13
0
1.69719e-12
-4.06708e-11
1.07584e-10
-6.9006e-12
2.72462e-10
-2.76179e-11
1.45688e-11
-2.97093e-11
-1.50922e-10
-1.391e-11
-1.0974e-10
-2.91907e-13
-8.95249e-13
-2.65298e-13
-7.5752e-13
-7.70997e-13
-1.10883e-11
-6.38891e-13
-2.29608e-12
-5.85979e-13
-2.88909e-11
-3.03129e-13
-1.8946e-11
-7.25423e-14
-1.62913e-12
-1.50351e-14
-1.31202e-13
-5.13016e-15
-2.52442e-14
-7.17955e-15
-2.18847e-14
-1.05145e-14
-2.53952e-14
-1.32498e-12
-1.24055e-13
0
-5.85873e-12
0
-5.72727e-12
-1.00796e-10
-1.81769e-11
-1.18739e-10
-5.93346e-12
-3.50132e-12
2.84736e-11
-9.10295e-13
3.46274e-13
-4.4162e-13
0
-2.1672e-14
6.44022e-14
-7.28445e-15
5.51773e-15
-8.48472e-16
1.71764e-15
-5.31867e-16
7.31204e-16
-4.85873e-16
6.58711e-16
-4.7336e-16
6.48474e-16
-4.6419e-16
6.07144e-16
-4.54615e-16
5.65401e-16
-3.75706e-16
4.7851e-16
-2.1986e-16
2.88985e-16
-1.15718e-16
1.41516e-16
-5.1271e-17
6.52198e-17
-1.55612e-17
2.28707e-17
-2.69489e-18
5.12731e-18
-1.97667e-19
6.38872e-19
-6.43468e-22
3.34081e-20
1.24965e-22
-4.06261e-22
8.99096e-22
-4.6852e-21
2.5776e-20
-1.35663e-20
1.47619e-19
-4.85761e-20
4.61092e-19
-4.89104e-19
3.76384e-18
0
8.75039e-17
-3.60132e-16
2.58569e-15
0
1.04975e-13
-2.75437e-13
1.81476e-12
-3.76165e-11
1.03346e-10
0
2.61988e-10
-6.91983e-11
6.74528e-11
-4.42641e-11
-1.94755e-10
-5.3676e-13
-1.34592e-10
-1.98944e-13
-1.23644e-12
-5.03343e-13
-9.21582e-13
-3.42595e-13
-3.92199e-12
-7.54743e-13
0
-6.94483e-12
-5.97564e-11
-3.98041e-12
-6.98525e-10
-7.18042e-13
-5.6249e-11
-4.57997e-14
-7.61271e-13
-5.20363e-15
-2.76663e-14
-6.56061e-15
-2.21512e-14
-1.27047e-14
-2.07329e-14
-9.05251e-14
-6.72321e-14
0
-2.66945e-12
0
-5.364e-12
-1.02642e-10
-7.5473e-12
-1.05802e-10
1.6352e-11
-8.01887e-13
1.21151e-11
-2.1133e-13
9.29031e-14
-5.80189e-14
6.57867e-16
-1.22128e-14
4.7418e-15
-2.28207e-15
4.43417e-15
-5.67483e-16
1.50071e-15
-4.96042e-16
6.98522e-16
-4.92516e-16
6.46618e-16
-4.89272e-16
6.31384e-16
-4.85048e-16
5.98819e-16
-4.55491e-16
5.45775e-16
-3.16514e-16
4.00801e-16
-1.67496e-16
2.09024e-16
-7.9927e-17
9.58247e-17
-2.95519e-17
3.86401e-17
-7.02592e-18
1.09375e-17
-9.24812e-19
1.91329e-18
-5.1088e-20
1.83579e-19
-1.0661e-22
7.41453e-21
2.10257e-23
-7.84697e-22
1.85833e-21
-9.10825e-21
4.79381e-20
-2.70995e-20
2.74171e-19
-7.78997e-20
8.1949e-19
-5.12815e-19
4.38825e-18
0
8.42449e-17
0
2.67912e-15
0
8.32154e-14
0
1.12392e-12
-2.31711e-12
4.14195e-11
-7.95067e-12
1.50797e-10
-6.62759e-11
1.17935e-10
-3.14842e-11
-2.0224e-10
-3.80117e-12
-1.6315e-10
-2.24611e-13
-1.75776e-12
-1.04527e-14
-7.44512e-13
0
-1.2916e-13
-7.75616e-12
-1.25873e-10
-7.60676e-11
-9.12424e-10
-9.83061e-11
-8.68147e-10
-4.40632e-11
-5.85452e-10
-1.41527e-13
-1.43236e-10
-7.20761e-15
-1.11749e-13
-4.43997e-15
-2.58494e-14
-1.53884e-14
-1.61042e-14
-6.90142e-14
-2.66941e-14
0
-4.04041e-13
0
-4.30555e-12
-3.76418e-11
-2.36168e-12
-3.77442e-11
0
-2.19193e-13
1.19634e-12
-6.05026e-14
1.81871e-14
-1.81481e-14
2.52496e-15
-9.91209e-15
4.00271e-15
-3.76587e-15
7.00568e-15
-5.60457e-16
2.80174e-15
-5.15385e-16
6.70674e-16
-5.04758e-16
6.39781e-16
-5.04987e-16
6.20858e-16
-4.95798e-16
5.88975e-16
-4.19381e-16
5.02179e-16
-2.44597e-16
3.06671e-16
-1.17919e-16
1.41945e-16
-4.92711e-17
5.9559e-17
-1.4735e-17
2.02229e-17
-2.72217e-18
4.54972e-18
-2.75013e-19
6.21849e-19
-1.1677e-20
4.6535e-20
-1.73555e-23
1.46667e-21
3.44218e-24
-1.37915e-21
3.49981e-21
-1.61454e-20
8.20005e-20
-5.09063e-20
4.75112e-19
-1.27692e-19
1.40955e-18
-6.38065e-19
5.5161e-18
0
8.07854e-17
0
2.24874e-15
0
3.90275e-14
0
6.97913e-13
0
3.73126e-11
-6.24495e-11
5.1301e-11
-5.6658e-11
1.39317e-10
-2.93333e-11
-2.06594e-10
-7.78052e-12
-1.97242e-10
-2.79896e-13
-2.0856e-12
-6.01004e-15
-2.31925e-12
-9.83169e-12
-1.18385e-12
-6.1461e-11
-9.71015e-10
-9.09001e-11
-8.89952e-10
-1.23879e-10
-8.23407e-10
-5.43113e-11
-6.69304e-10
-9.59126e-13
-1.332e-10
-2.05448e-14
-1.49656e-13
-6.71459e-15
-4.37738e-14
-5.67917e-15
-3.15021e-14
-1.58334e-14
-1.70499e-14
0
-7.55649e-14
-5.02333e-12
-1.24863e-12
-1.41839e-11
2.51796e-12
-2.41233e-12
6.6752e-12
-3.42756e-14
1.28088e-12
-1.64577e-14
9.12206e-15
-8.63434e-15
4.92271e-15