/*--------------------------------*- C++ -*----------------------------------*\
  =========                 |
  \\      /  F ield         | OpenFOAM: The Open Source CFD Toolbox
   \\    /   O peration     | Website:  https://openfoam.org
    \\  /    A nd           | Version:  9
     \\/     M anipulation  |
\*---------------------------------------------------------------------------*/
FoamFile
{
    format      ascii;
    class       volScalarField;
    location    "0.1";
    object      p_rgh;
}
// * * * * * * * * * * * * * * * * * * * * * * * * * * * * * * * * * * * * * //

dimensions      [1 -1 -2 0 0 0 0];

internalField   nonuniform List<scalar> 
5000
(
-0.345257
-0.389705
-0.44176
-0.503806
-0.579127
-0.671206
-0.784145
-0.924112
-1.10329
-1.35384
-1.69221
-2.01386
-11.7818
-1071.71
-1620.48
-1621.13
-1621.61
-1621.18
-1620.93
-1620.92
-1620.99
-1621.15
-1621.49
-1622.05
-1622.82
-1623.62
-1623.99
-1624.02
-1623.62
-1116.01
-25.4441
-1.1193
-1.08191
-0.95667
-0.86273
-0.784709
-0.70403
-0.624329
-0.549282
-0.48021
-0.416899
-0.358635
-0.304723
-0.254637
-0.207993
-0.164496
-0.123891
-0.085951
-0.0505094
-0.0173589
-0.364248
-0.410143
-0.46355
-0.526699
-0.602834
-0.695014
-0.806288
-0.94165
-1.11105
-1.33909
-1.64891
-1.90382
-5.32921
-916.063
-1621.07
-1620.78
-1620.73
-1620
-1619.47
-1619.3
-1619.27
-1619.35
-1619.65
-1620.23
-1621.16
-1622.33
-1623.2
-1623.43
-1621.79
-940.027
-0.968818
-0.959693
-0.967662
-0.843614
-0.776383
-0.714964
-0.648748
-0.579944
-0.51311
-0.450452
-0.39237
-0.338503
-0.288343
-0.24147
-0.197588
-0.156482
-0.117975
-0.0819062
-0.048184
-0.0165146
-0.380726
-0.427277
-0.481346
-0.544844
-0.620406
-0.710539
-0.817769
-0.946411
-1.10405
-1.30496
-1.5782
-2.03301
-2.56624
-666.804
-1621.96
-1621.37
-1620.4
-1619.13
-1618.09
-1617.64
-1617.46
-1617.4
-1617.55
-1617.94
-1618.71
-1619.93
-1621.29
-1621.6
-1595.51
-587.166
-0.927694
-1.04828
-1.03469
-0.752548
-0.701119
-0.654102
-0.599533
-0.540168
-0.480513
-0.423324
-0.3696
-0.319393
-0.272423
-0.228389
-0.187054
-0.148242
-0.111805
-0.0776176
-0.0456238
-0.0155436
-0.39466
-0.441341
-0.495399
-0.558401
-0.632276
-0.718912
-0.820364
-0.940304
-1.08458
-1.25826
-1.49211
-1.95643
-1.96344
-380.642
-1578.47
-1622.4
-1619.85
-1617.96
-1616.51
-1615.8
-1615.49
-1615.29
-1615.16
-1615
-1615.04
-1615.62
-1616.36
-1614.8
-1422.83
-243.097
-0.984592
-1.03143
-1.04612
-0.695632
-0.640286
-0.6046
-0.558799
-0.506822
-0.452969
-0.400296
-0.350226
-0.303123
-0.258882
-0.217286
-0.178135
-0.141273
-0.106572
-0.0739377
-0.0433931
-0.0147342
-0.40606
-0.452503
-0.505968
-0.567728
-0.639177
-0.721597
-0.816325
-0.925929
-1.05441
-1.20086
-1.40762
-1.64735
-1.62544
-121.334
-1413.5
-1619.82
-1617.63
-1615.72
-1614.33
-1613.69
-1613.4
-1613.14
-1612.76
-1612.12
-1611.74
-1612.01
-1611.49
-1603.72
-899.678
-32.3909
-0.918134
-0.905033
-0.879238
-0.675877
-0.596964
-0.568754
-0.528406
-0.481367
-0.431595
-0.382231
-0.334936
-0.290264
-0.248214
-0.208602
-0.171213
-0.135845
-0.102273
-0.0701601
-0.0392321
-0.011314
-0.415062
-0.460939
-0.513357
-0.573318
-0.641796
-0.719538
-0.807152
-0.906085
-1.01792
-1.14017
-1.29169
-1.30694
-1.38094
-1.98152
-912.272
-1612.82
-1614.64
-1613.13
-1612
-1611.59
-1611.3
-1611.03
-1610.68
-1610.11
-1609.98
-1610.1
-1607.44
-1259.62
-214.166
-1.14158
-1.15473
-0.858997
-0.699364
-0.660181
-0.572378
-0.54566
-0.507999
-0.463702
-0.416413
-0.369205
-0.323809
-0.280894
-0.240559
-0.202693
-0.167156
-0.133853
-0.102747
-0.0737368
-0.0464893
-0.0223432
-0.421814
-0.466844
-0.517862
-0.575638
-0.64081
-0.713693
-0.794312
-0.883355
-0.980487
-1.08119
-1.16643
-1.197
-1.26739
-1.19072
-242.285
-1380.43
-1611.09
-1610.95
-1610.19
-1609.84
-1609.37
-1609.11
-1608.78
-1607.51
-1606.66
-1605.38
-1365.46
-353.121
-0.800736
-1.66034
-1.01954
-0.743809
-0.656862
-0.640431
-0.562042
-0.532956
-0.495846
-0.452584
-0.406485
-0.360448
-0.316169
-0.274345
-0.235109
-0.198369
-0.16398
-0.131815
-0.101802
-0.0738689
-0.0474872
-0.0213965
-0.426479
-0.470431
-0.519796
-0.575143
-0.636859
-0.704953
-0.779058
-0.859505
-0.945374
-1.03095
-1.10769
-1.37028
-1.23602
-1.12449
-1.16221
-489.436
-1499.72
-1607.2
-1607.18
-1607.43
-1607.49
-1607.44
-1605.91
-1600.87
-1588.06
-1229.68
-342.363
-0.746104
-0.721614
-1.16475
-1.17685
-0.622378
-0.620095
-0.611128
-0.558317
-0.526403
-0.488872
-0.445807
-0.400131
-0.3546
-0.310843
-0.26954
-0.230816
-0.194555
-0.160572
-0.128683
-0.0987389
-0.0706581
-0.044142
-0.0178636
-0.429225
-0.471924
-0.519476
-0.572279
-0.630523
-0.694036
-0.762272
-0.835334
-0.912897
-0.98815
-1.06471
-1.33622
-1.18544
-1.09697
-1.15275
-1.09037
-474.831
-1324.73
-1579.4
-1599.01
-1601.15
-1592.73
-1542.56
-1310.93
-815.709
-184.827
-0.816527
-0.686824
-0.627972
-0.880617
-1.1556
-0.925081
-0.603992
-0.582545
-0.555647
-0.521876
-0.484236
-0.441179
-0.395646
-0.350367
-0.306882
-0.265843
-0.227369
-0.191335
-0.157543
-0.125793
-0.0959209
-0.0678434
-0.0413376
-0.015175
-0.430217
-0.471535
-0.517187
-0.567431
-0.62229
-0.681467
-0.744419
-0.810972
-0.88116
-0.948626
-1.10713
-1.28669
-1.10923
-1.05558
-1.07393
-1.02227
-0.953297
-191.323
-597.049
-856.351
-875.194
-736.388
-455.539
-191.346
-8.98806
-0.626758
-0.699269
-0.616287
-0.607809
-0.723619
-1.1517
-1.16053
-0.618806
-0.568942
-0.555002
-0.519441
-0.480605
-0.437447
-0.391663
-0.346749
-0.303593
-0.262858
-0.224668
-0.188896
-0.155336
-0.123783
-0.094071
-0.0661271
-0.0397531
-0.0137358
-0.429617
-0.469452
-0.513161
-0.560898
-0.612542
-0.66765
-0.725744
-0.786444
-0.849055
-0.908387
-1.11354
-1.24391
-1.04107
-1.04636
-1.00568
-0.966369
-0.911314
-0.875102
-0.900031
-0.866096
-0.745491
-0.67701
-0.693246
-0.683831
-0.668043
-0.687812
-0.617772
-0.597576
-0.594817
-0.613203
-1.09996
-1.12835
-0.683936
-0.573538
-0.556942
-0.516601
-0.476467
-0.432883
-0.387782
-0.343243
-0.300539
-0.260265
-0.222497
-0.187093
-0.153839
-0.12252
-0.0929701
-0.065142
-0.0388859
-0.0129552
-0.427578
-0.465865
-0.507615
-0.552922
-0.601568
-0.652955
-0.706579
-0.762036
-0.817552
-0.868666
-0.955483
-0.967495
-1.05068
-1.06847
-0.956596
-0.921732
-0.884198
-0.849562
-0.807171
-0.76941
-0.727893
-0.696595
-0.685696
-0.663957
-0.642344
-0.603205
-0.599663
-0.59351
-0.587641
-0.581847
-0.81081
-1.06681
-0.678826
-0.563437
-0.540508
-0.507416
-0.468152
-0.425936
-0.382173
-0.338853
-0.297199
-0.257783
-0.22071
-0.185875
-0.153098
-0.12219
-0.0930122
-0.0655611
-0.0397669
-0.0143946
-0.424245
-0.460956
-0.500754
-0.543711
-0.589585
-0.637682
-0.68738
-0.738353
-0.788447
-0.832075
-0.862509
-0.878626
-1.10601
-1.03414
-0.90501
-0.884894
-0.854162
-0.817888
-0.791273
-0.759412
-0.727566
-0.700146
-0.677503
-0.651064
-0.628878
-0.614182
-0.60382
-0.593317
-0.58235
-0.570216
-0.689172
-1.00843
-0.608864
-0.537681
-0.516782
-0.489938
-0.454831
-0.416028
-0.375009
-0.3338
-0.293757
-0.255558
-0.219414
-0.185302
-0.153102
-0.122679
-0.0939439
-0.0668968
-0.0413816
-0.0164922
-0.419735
-0.454882
-0.492768
-0.53346
-0.576754
-0.621992
-0.668453
-0.715982
-0.763039
-0.805463
-0.841872
-1.03389
-1.07445
-0.937052
-0.873082
-0.853969
-0.830172
-0.80101
-0.772793
-0.743155
-0.716304
-0.693959
-0.678877
-0.655578
-0.636952
-0.62253
-0.609858
-0.59646
-0.58172
-0.565634
-0.635659
-0.971984
-0.521129
-0.508758
-0.493207
-0.471778
-0.441846
-0.406774
-0.368793
-0.329826
-0.291448
-0.254484
-0.219274
-0.185888
-0.154273
-0.124359
-0.0961295
-0.0695964
-0.0444811
-0.0198842
-0.414146
-0.447756
-0.483808
-0.522337
-0.563207
-0.60592
-0.649745
-0.694618
-0.73976
-0.783416
-0.983749
-1.04033
-1.0485
-0.885481
-0.844269
-0.827464
-0.80881
-0.785471
-0.761047
-0.735601
-0.712581
-0.693673
-0.682601
-0.666607
-0.645493
-0.630688
-0.617988
-0.60416
-0.588273
-0.570085
-0.638524
-0.935829
-0.545349
-0.491602
-0.480782
-0.463422
-0.436491
-0.403568
-0.367211
-0.329475
-0.292045
-0.25582
-0.221203
-0.188312
-0.157137
-0.127637
-0.0998359
-0.0737973
-0.049389
-0.0253806
-0.407556
-0.439649
-0.473964
-0.510468
-0.549068
-0.589464
-0.631016
-0.673508
-0.716698
-0.76359
-0.984879
-1.00822
-1.02078
-0.84068
-0.814734
-0.804018
-0.789211
-0.770419
-0.749911
-0.728418
-0.708904
-0.692387
-0.68434
-0.671149
-0.658911
-0.641357
-0.628809
-0.617413
-0.604413
-0.588866
-0.763774
-0.988795
-0.893323
-0.499814
-0.489262
-0.471763
-0.443637
-0.409756
-0.372593
-0.334351
-0.296643
-0.260296
-0.225657
-0.192809
-0.161727
-0.132379
-0.104786
-0.079016
-0.0550715
-0.031709
-0.40004
-0.430611
-0.46327
-0.4979
-0.534418
-0.572672
-0.612186
-0.652509
-0.693578
-0.750155
-0.917457
-0.978779
-0.961791
-0.792773
-0.790155
-0.782928
-0.771365
-0.756285
-0.739372
-0.721395
-0.704873
-0.690588
-0.67866
-0.674681
-0.665044
-0.656881
-0.642263
-0.634851
-0.628167
-0.624492
-0.886546
-1.03925
-1.02768
-0.537154
-0.521667
-0.497001
-0.463393
-0.424948
-0.384481
-0.344048
-0.304926
-0.26769
-0.232507
-0.199348
-0.168135
-0.138819
-0.11141
-0.0859139
-0.0622948
-0.0392353
-0.391675
-0.420707
-0.451742
-0.484621
-0.519258
-0.555582
-0.593315
-0.631965
-0.67202
-0.747286
-0.768663
-0.952585
-0.800128
-0.767783
-0.769351
-0.764376
-0.755199
-0.743096
-0.729308
-0.714551
-0.700527
-0.688416
-0.677561
-0.669706
-0.670108
-0.66506
-0.659735
-0.652779
-0.653762
-0.70451
-0.924183
-1.09056
-1.07419
-0.601643
-0.570544
-0.532595
-0.489583
-0.444412
-0.399396
-0.35604
-0.31508
-0.276712
-0.240853
-0.207328
-0.175982
-0.146726
-0.119524
-0.0943088
-0.0709521
-0.0480108
-0.382542
-0.410021
-0.439416
-0.4706
-0.503517
-0.538123
-0.574326
-0.611802
-0.651274
-0.70324
-0.726396
-0.930981
-0.760039
-0.772213
-0.759452
-0.747875
-0.740304
-0.730801
-0.723562
-0.71316
-0.697474
-0.685552
-0.676398
-0.669223
-0.66841
-0.67057
-0.672004
-0.667388
-0.675357
-0.78602
-0.925122
-0.917383
-0.857717
-0.650956
-0.607525
-0.559937
-0.509828
-0.459831
-0.411682
-0.366399
-0.324305
-0.285306
-0.249138
-0.21553
-0.184278
-0.15527
-0.128408
-0.103538
-0.0804917
-0.0578021
-0.372705
-0.398635
-0.426356
-0.455846
-0.487115
-0.52014
-0.554999
-0.591709
-0.631272
-0.667565
-0.766869
-0.817444
-0.741411
-0.807773
-0.756309
-0.73241
-0.726197
-0.719223
-0.716703
-0.70658
-0.694098
-0.681798
-0.673775
-0.667786
-0.664526
-0.672142
-0.675763
-0.674563
-0.684781
-0.809582
-0.907189
-0.698458
-0.681575
-0.652801
-0.612964
-0.565722
-0.515418
-0.465238
-0.417133
-0.372097
-0.33037
-0.291798
-0.256096
-0.222998
-0.192323
-0.163954
-0.137744
-0.113449
-0.0908651
-0.0685901
-0.362207
-0.3866
-0.412627
-0.440402
-0.470013
-0.501488
-0.535079
-0.571318
-0.611171
-0.654485
-0.775089
-0.717023
-0.726555
-0.802199
-0.734439
-0.717227
-0.71272
-0.707518
-0.707562
-0.697022
-0.685964
-0.677271
-0.669637
-0.66391
-0.66085
-0.663493
-0.673829
-0.675542
-0.71492
-0.838986
-0.846884
-0.684394
-0.670339
-0.64198
-0.603131
-0.557991
-0.510069
-0.46218
-0.416228
-0.373102
-0.33302
-0.295862
-0.26141
-0.229465
-0.19989
-0.172572
-0.147326
-0.123847
-0.101916
-0.0802087
-0.351076
-0.373924
-0.398256
-0.424297
-0.452187
-0.482047
-0.514266
-0.549828
-0.589524
-0.64595
-0.754265
-0.699352
-0.78369
-0.788482
-0.705539
-0.702465
-0.703658
-0.702578
-0.695022
-0.687383
-0.680305
-0.672456
-0.664415
-0.657769
-0.653505
-0.652685
-0.661296
-0.667008
-0.719638
-0.816178
-0.79091
-0.669521
-0.652281
-0.62425
-0.586925
-0.54418
-0.49918
-0.454405
-0.411439
-0.370989
-0.333227
-0.298075
-0.265392
-0.235052
-0.206952
-0.18097
-0.156897
-0.13442
-0.113327
-0.0923301
-0.339343
-0.360604
-0.383239
-0.407521
-0.433596
-0.461691
-0.492272
-0.526273
-0.564712
-0.628382
-0.735167
-0.683876
-0.925363
-0.776957
-0.687728
-0.687378
-0.695773
-0.695333
-0.688132
-0.732614
-0.680093
-0.669511
-0.659385
-0.649903
-0.64285
-0.639223
-0.642781
-0.652718
-0.689572
-0.790059
-0.715728
-0.648143
-0.628981
-0.600912
-0.565715
-0.52612
-0.484802
-0.443783
-0.404312
-0.366955
-0.331876
-0.299061
-0.268452
-0.239982
-0.213566
-0.18907
-0.166281
-0.144917
-0.12479
-0.104588
-0.327058
-0.346662
-0.367572
-0.390038
-0.414187
-0.440327
-0.468996
-0.500773
-0.53678
-0.589286
-0.701462
-0.800722
-0.898524
-0.780392
-0.67018
-0.67256
-0.674903
-0.683695
-0.940797
-1.14756
-0.953246
-0.689368
-0.653999
-0.640187
-0.629412
-0.622231
-0.62032
-0.62865
-0.642543
-0.674667
-0.640055
-0.617723
-0.599216
-0.573139
-0.541171
-0.505599
-0.468569
-0.431703
-0.395993
-0.361928
-0.329706
-0.29939
-0.271
-0.244514
-0.219854
-0.196877
-0.175392
-0.155176
-0.136063
-0.116681
-0.314285
-0.332167
-0.35129
-0.371838
-0.393934
-0.417947
-0.444523
-0.474036
-0.507568
-0.544938
-0.623848
-0.853913
-0.876174
-0.771021
-0.652533
-0.657664
-0.664062
-0.990499
-1.15553
-1.14656
-1.12372
-0.778438
-0.646483
-0.629117
-0.614547
-0.603589
-0.596354
-0.599331
-0.608389
-0.590969
-0.588643
-0.581302
-0.566129
-0.543846
-0.516199
-0.485175
-0.452611
-0.419881
-0.38785
-0.356995
-0.327573
-0.299724
-0.273525
-0.24898
-0.226012
-0.204485
-0.184243
-0.165134
-0.147008
-0.128422
-0.301095
-0.317213
-0.334461
-0.352955
-0.372853
-0.394583
-0.418905
-0.44625
-0.477745
-0.526098
-0.563412
-0.747752
-0.854051
-0.756978
-0.633862
-0.642207
-0.849844
-1.15217
-1.15426
-1.15123
-1.06754
-0.713159
-0.639878
-0.619048
-0.600919
-0.586353
-0.575567
-0.571568
-0.593241
-0.579445
-0.558472
-0.550822
-0.537416
-0.518292
-0.494523
-0.467605
-0.439032
-0.409971
-0.381204
-0.353222
-0.326336
-0.300742
-0.276546
-0.25376
-0.232312
-0.212082
-0.192957
-0.174847
-0.157617
-0.139761
-0.287549
-0.301885
-0.317158
-0.333449
-0.350986
-0.37025
-0.392051
-0.417109
-0.446906
-0.506476
-0.535931
-0.699094
-0.831759
-0.719181
-0.619898
-0.632579
-1.13214
-1.14802
-1.15845
-1.11162
-0.73081
-0.662225
-0.63793
-0.613797
-0.592207
-0.574156
-0.559894
-0.55004
-0.588678
-0.621335
-0.535805
-0.528647
-0.516552
-0.49967
-0.478726
-0.454896
-0.429394
-0.403212
-0.377066
-0.351446
-0.326688
-0.303009
-0.280516
-0.259218
-0.23905
-0.219913
-0.201732
-0.184466
-0.167992
-0.150772
-0.273705
-0.286238
-0.299439
-0.313383
-0.328381
-0.344947
-0.363848
-0.386161
-0.413777
-0.474597
-0.512002
-0.77776
-0.806814
-0.647627
-0.602047
-0.840916
-1.12095
-1.15036
-1.03026
-0.710351
-0.681207
-0.667704
-0.643769
-0.617245
-0.592427
-0.571022
-0.553472
-0.539969
-0.588222
-0.618314
-0.528675
-0.516655
-0.504797
-0.489093
-0.469838
-0.447964
-0.424496
-0.400307
-0.376053
-0.352207
-0.329097
-0.306925
-0.285778
-0.265654
-0.246495
-0.228224
-0.210793
-0.19419
-0.178308
-0.16162
-0.259627
-0.270311
-0.281344
-0.292819
-0.3051
-0.318702
-0.334282
-0.353109
-0.383469
-0.429481
-0.538034
-0.738771
-0.776935
-0.567989
-0.586691
-1.07109
-1.11887
-0.907313
-0.690873
-0.701586
-0.699607
-0.685011
-0.660467
-0.632117
-0.60463
-0.580317
-0.559863
-0.543609
-0.597074
-0.624496
-0.531209
-0.514627
-0.502471
-0.486861
-0.468093
-0.447018
-0.424556
-0.401488
-0.378408
-0.355747
-0.333793
-0.312706
-0.292539
-0.273272
-0.254855
-0.237226
-0.220353
-0.204231
-0.188778
-0.172528
-0.245399
-0.254156
-0.262931
-0.271836
-0.281233
-0.291575
-0.303379
-0.317923
-0.345988
-0.373975
-0.583844
-0.696476
-0.577749
-0.534256
-0.664453
-1.03732
-0.885515
-0.685975
-0.711042
-0.728085
-0.728346
-0.714346
-0.689876
-0.660479
-0.631052
-0.604328
-0.581365
-0.562568
-0.614178
-0.646028
-0.541138
-0.523787
-0.509862
-0.492925
-0.47331
-0.451857
-0.429406
-0.406639
-0.384066
-0.362042
-0.340785
-0.320388
-0.300861
-0.282165
-0.264249
-0.247064
-0.230581
-0.214781
-0.199616
-0.183737
-0.231129
-0.237873
-0.244311
-0.250562
-0.256919
-0.263695
-0.271231
-0.280517
-0.296202
-0.320118
-0.428526
-0.607237
-0.461753
-0.502702
-0.761419
-0.996053
-0.703476
-0.703716
-0.739642
-0.764917
-0.76934
-0.757371
-0.733765
-0.70399
-0.673185
-0.644455
-0.619514
-0.59966
-0.659896
-0.683761
-0.57637
-0.543809
-0.526477
-0.506616
-0.4848
-0.461859
-0.438524
-0.415341
-0.3927
-0.370842
-0.349883
-0.329839
-0.310666
-0.292303
-0.274696
-0.257802
-0.241582
-0.225985
-0.211011
-0.195473
-0.216944
-0.221609
-0.225662
-0.229192
-0.232372
-0.235331
-0.238221
-0.241894
-0.249313
-0.271282
-0.307305
-0.584566
-0.463258
-0.481595
-0.743677
-0.639642
-0.673002
-0.728377
-0.778121
-0.8139
-0.824376
-0.81559
-0.793389
-0.763547
-0.731431
-0.700642
-0.673411
-0.665273
-0.760312
-0.735676
-0.656122
-0.573029
-0.550626
-0.52641
-0.501271
-0.475955
-0.451038
-0.426894
-0.403747
-0.381694
-0.360727
-0.340776
-0.321744
-0.303544
-0.286114
-0.269415
-0.253385
-0.237931
-0.223102
-0.207922
-0.202978
-0.205551
-0.207211
-0.20798
-0.207881
-0.206857
-0.204888
-0.202844
-0.204747
-0.226274
-0.257291
-0.536246
-0.44797
-0.485363
-0.730293
-0.648741
-0.684763
-0.760573
-0.827414
-0.876184
-0.894385
-0.889587
-0.868905
-0.838704
-0.805018
-0.771912
-0.741767
-0.754858
-0.814855
-0.793956
-0.669416
-0.607832
-0.57956
-0.550121
-0.52096
-0.492721
-0.465803
-0.440371
-0.416453
-0.393978
-0.372808
-0.352786
-0.333768
-0.315637
-0.298326
-0.281788
-0.265938
-0.250625
-0.235956
-0.221192
-0.189356
-0.189895
-0.189207
-0.187211
-0.183772
-0.178659
-0.17167
-0.163684
-0.159563
-0.17466
-0.319459
-0.488544
-0.428516
-0.51887
-0.526062
-0.604342
-0.702862
-0.80191
-0.888364
-0.951838
-0.978859
-0.978223
-0.958608
-0.928613
-0.891475
-0.85504
-0.820897
-0.853007
-0.883855
-0.85166
-0.681164
-0.64663
-0.61088
-0.575525
-0.541963
-0.510588
-0.481537
-0.45472
-0.429945
-0.406962
-0.38551
-0.365357
-0.346315
-0.328244
-0.311063
-0.294721
-0.279099
-0.263986
-0.249549
-0.235294
-0.176199
-0.174822
-0.171878
-0.167162
-0.160373
-0.151113
-0.138951
-0.124742
-0.113946
-0.125434
-0.38241
-0.435045
-0.415662
-0.499899
-0.483906
-0.600568
-0.725741
-0.850104
-0.959092
-1.03883
-1.07504
-1.07807
-1.06043
-1.02873
-0.986076
-0.944831
-0.909934
-0.979877
-0.955784
-0.890252
-0.733311
-0.68677
-0.642101
-0.600401
-0.562386
-0.527979
-0.496931
-0.468845
-0.443291
-0.419847
-0.398149
-0.377905
-0.358893
-0.340951
-0.323984
-0.30793
-0.292637
-0.277839
-0.263753
-0.250125
-0.163617
-0.160485
-0.155422
-0.148087
-0.138016
-0.12464
-0.107265
-0.0866837
-0.0692586
-0.0853706
-0.321473
-0.381654
-0.366259
-0.447478
-0.486167
-0.610545
-0.753119
-0.904102
-1.03561
-1.13293
-1.17774
-1.18467
-1.16675
-1.12955
-1.08101
-1.03527
-1.00218
-1.06232
-1.01866
-0.8605
-0.779017
-0.722123
-0.669387
-0.62205
-0.580199
-0.543293
-0.510674
-0.481637
-0.455533
-0.431803
-0.410005
-0.389808
-0.370965
-0.353292
-0.33668
-0.321057
-0.306241
-0.291913
-0.278334
-0.26546
-0.151721
-0.147016
-0.14001
-0.130224
-0.117042
-0.099715
-0.0772662
-0.0501603
-0.0254142
-0.0833952
-0.261347
-0.177328
-0.225319
-0.350195
-0.481524
-0.607501
-0.782235
-0.959065
-1.11406
-1.22761
-1.28028
-1.291
-1.26781
-1.22423
-1.17004
-1.11777
-1.07841
-1.08938
-1.03014
-0.881851
-0.812339
-0.747272
-0.688824
-0.637685
-0.593365
-0.55496
-0.521488
-0.492012
-0.465733
-0.442009
-0.420359
-0.400433
-0.381968
-0.364763
-0.348696
-0.333684
-0.319519
-0.305846
-0.292954
-0.280958
-0.140627
-0.134539
-0.1258
-0.113804
-0.0977976
-0.0768416
-0.0496586
-0.0160536
0.0158798
-0.0375163
-0.101685
-0.0644559
-0.153927
-0.28833
-0.420116
-0.606562
-0.811714
-1.01292
-1.18797
-1.31503
-1.37366
-1.38401
-1.35578
-1.30417
-1.24605
-1.18635
-1.13271
-1.06587
-0.990715
-0.90707
-0.830256
-0.760097
-0.698599
-0.645735
-0.600543
-0.561813
-0.528336
-0.499039
-0.473053
-0.449714
-0.428537
-0.40917
-0.391344
-0.374847
-0.359544
-0.345342
-0.332018
-0.319199
-0.307179
-0.296171
-0.130451
-0.123178
-0.112951
-0.09906
-0.0806401
-0.056559
-0.0252264
0.0142288
0.0540698
0.0653144
0.0615898
-0.0143442
-0.10536
-0.235166
-0.396254
-0.608422
-0.840796
-1.05899
-1.25009
-1.38773
-1.44877
-1.45468
-1.42309
-1.3678
-1.30266
-1.23415
-1.16336
-1.08456
-0.999563
-0.913151
-0.832343
-0.76036
-0.698367
-0.645734
-0.601155
-0.563201
-0.530533
-0.502034
-0.476838
-0.454302
-0.433963
-0.415478
-0.398577
-0.383043
-0.368731
-0.355542
-0.343248
-0.33148
-0.320514
-0.31058
-0.121306
-0.11306
-0.101629
-0.0862346
-0.0659299
-0.039437
-0.00495802
0.0386479
0.0846952
0.114674
0.0114354
0.0208348
-0.0779528
-0.194481
-0.372482
-0.61117
-0.860309
-1.0938
-1.29448
-1.43879
-1.49978
-1.50323
-1.46755
-1.4233
-1.33878
-1.25713
-1.1729
-1.08379
-0.991129
-0.901261
-0.819677
-0.748689
-0.688422
-0.637726
-0.59504
-0.558807
-0.527669
-0.500546
-0.476624
-0.455312
-0.436179
-0.418899
-0.403207
-0.388887
-0.375788
-0.363802
-0.352713
-0.342178
-0.332427
-0.323629
-0.113287
-0.104306
-0.0920021
-0.0755628
-0.054002
-0.0259784
0.01033
0.0561562
0.105122
0.10934
0.0342165
0.0362644
-0.0520079
-0.1609
-0.355824
-0.604986
-0.863242
-1.1076
-1.3147
-1.46136
-1.52092
-1.55478
-1.55345
-1.49026
-1.374
-1.24886
-1.15608
-1.05887
-0.96245
-0.87274
-0.7936
-0.726067
-0.669394
-0.622033
-0.58227
-0.548537
-0.519547
-0.494315
-0.472118
-0.452427
-0.434848
-0.419073
-0.404853
-0.391975
-0.380285
-0.369671
-0.359939
-0.350793
-0.342394
-0.334768
-0.106461
-0.0970196
-0.0842164
-0.067245
-0.0451125
-0.0164788
0.0204457
0.0671627
0.115435
0.0584119
0.0560079
0.026406
-0.00436444
-0.130399
-0.336896
-0.591296
-0.851996
-1.09582
-1.30734
-1.46787
-1.5846
-1.59306
-1.54413
-1.47008
-1.34186
-1.20996
-1.11117
-1.0108
-0.915395
-0.829683
-0.755869
-0.69383
-0.642203
-0.599217
-0.563142
-0.532509
-0.506171
-0.483276
-0.463199
-0.445476
-0.429753
-0.415747
-0.403223
-0.39198
-0.381864
-0.372759
-0.364503
-0.356873
-0.34993
-0.343486
-0.100861
-0.0912691
-0.0783801
-0.0614221
-0.039425
-0.0111002
0.0252687
0.0714333
0.12038
0.0685379
0.0708094
0.0910663
0.0397541
-0.106284
-0.315338
-0.566591
-0.822053
-1.06333
-1.27624
-1.47796
-1.54869
-1.5404
-1.48922
-1.40534
-1.23865
-1.14161
-1.04108
-0.943113
-0.853302
-0.774897
-0.708639
-0.65356
-0.607958
-0.570023
-0.538149
-0.511047
-0.487749
-0.467544
-0.449906
-0.434433
-0.420809
-0.408778
-0.398127
-0.388669
-0.380251
-0.372754
-0.366062
-0.360038
-0.354624
-0.349348
-0.0964813
-0.0870794
-0.0745453
-0.0581666
-0.0370277
-0.00996409
0.0246046
0.0683923
0.0762682
0.0712672
0.0877399
0.136945
0.0597903
-0.0866295
-0.292698
-0.536437
-0.780532
-1.00725
-1.22071
-1.41263
-1.46216
-1.45024
-1.3973
-1.24909
-1.14453
-1.04831
-0.951649
-0.860846
-0.780255
-0.7115
-0.654209
-0.60692
-0.567847
-0.535315
-0.507933
-0.48464
-0.464652
-0.447393
-0.432425
-0.419404
-0.408053
-0.398143
-0.389486
-0.381915
-0.375276
-0.36945
-0.364372
-0.360006
-0.356159
-0.352021
-0.0932797
-0.0844248
-0.0726986
-0.0574703
-0.0379093
-0.0130357
0.0186313
0.0574048
0.0430643
0.0741391
0.158079
0.139089
0.0481474
-0.0681106
-0.270222
-0.501851
-0.726386
-0.931699
-1.1135
-1.29701
-1.34118
-1.32568
-1.21471
-1.11319
-1.02706
-0.936689
-0.84895
-0.769275
-0.700344
-0.642524
-0.59479
-0.555533
-0.523091
-0.49604
-0.473258
-0.453912
-0.437387
-0.423224
-0.411064
-0.400614
-0.391636
-0.38393
-0.377333
-0.3717
-0.366879
-0.362748
-0.3593
-0.356609
-0.354336
-0.351289
-0.0911841
-0.08323
-0.0727561
-0.0592351
-0.0419484
-0.0201201
0.00761911
0.0413635
0.0731349
0.129034
0.15116
0.130411
0.0473074
-0.0620295
-0.249503
-0.464222
-0.66344
-0.842048
-0.990873
-1.11781
-1.17711
-1.11844
-1.04262
-0.973164
-0.894695
-0.814869
-0.739901
-0.673606
-0.617337
-0.570686
-0.532378
-0.500907
-0.474891
-0.453196
-0.434968
-0.419578
-0.406556
-0.395538
-0.38623
-0.378391
-0.371815
-0.366333
-0.361809
-0.358118
-0.355113
-0.352665
-0.35083
-0.349797
-0.349075
-0.347064
-0.090097
-0.0833742
-0.0745687
-0.0632795
-0.0489442
-0.0310271
-0.00854319
0.0208545
0.0662172
0.107229
0.126575
0.0793546
0.0443141
-0.0581649
-0.232399
-0.42405
-0.596653
-0.74517
-0.863734
-0.936997
-0.955004
-0.931976
-0.885667
-0.82455
-0.757314
-0.691088
-0.630619
-0.578241
-0.534366
-0.498256
-0.468697
-0.444439
-0.424414
-0.407788
-0.393938
-0.3824
-0.372815
-0.364895
-0.358402
-0.353138
-0.348932
-0.345641
-0.343153
-0.341367
-0.340136
-0.339331
-0.339063
-0.339639
-0.340419
-0.339382
-0.0899021
-0.0846997
-0.0779316
-0.0693478
-0.058608
-0.0454839
-0.0294653
-0.00532945
0.0324763
0.0710741
0.0359297
-0.00833375
0.0423935
-0.0626549
-0.220218
-0.386091
-0.531181
-0.648549
-0.736055
-0.785364
-0.791236
-0.769876
-0.729175
-0.678127
-0.623948
-0.572117
-0.525851
-0.48642
-0.453721
-0.426962
-0.405142
-0.38732
-0.372729
-0.360782
-0.351036
-0.343148
-0.336843
-0.331893
-0.328107
-0.325323
-0.323399
-0.322217
-0.321689
-0.321733
-0.322207
-0.322975
-0.324204
-0.326316
-0.328527
-0.328402
-0.0904677
-0.087019
-0.0825917
-0.0771111
-0.0705237
-0.0629629
-0.0544925
-0.0392356
-0.0124389
-0.0911365
-0.118535
-0.0501851
0.0129943
-0.0755772
-0.21218
-0.356282
-0.471546
-0.558686
-0.616766
-0.643583
-0.63945
-0.617706
-0.583094
-0.542445
-0.500967
-0.462368
-0.428594
-0.400216
-0.37693
-0.358047
-0.342815
-0.330572
-0.320791
-0.313063
-0.307072
-0.302559
-0.299308
-0.297138
-0.295895
-0.295446
-0.295675
-0.296485
-0.297807
-0.29958
-0.301663
-0.303915
-0.306553
-0.310104
-0.313658
-0.314382
-0.0916495
-0.0901223
-0.0882585
-0.08618
-0.0841606
-0.0827819
-0.0826495
-0.0784239
-0.0585274
-0.214675
-0.184292
-0.0300247
-0.024838
-0.097209
-0.212417
-0.332826
-0.421898
-0.48032
-0.511536
-0.517937
-0.504791
-0.48273
-0.453712
-0.422271
-0.391606
-0.363915
-0.340206
-0.320636
-0.304858
-0.292341
-0.28255
-0.275029
-0.269412
-0.265409
-0.262778
-0.261315
-0.260846
-0.261222
-0.262318
-0.264027
-0.266251
-0.268908
-0.271949
-0.275327
-0.278906
-0.282539
-0.286483
-0.291362
-0.296157
-0.297672
-0.093292
-0.0937858
-0.0946169
-0.0961302
-0.098935
-0.104197
-0.113127
-0.122217
-0.183898
-0.274674
-0.235256
-0.0443433
-0.0715384
-0.129529
-0.222892
-0.318563
-0.384352
-0.416032
-0.423476
-0.412034
-0.390896
-0.368158
-0.343365
-0.319004
-0.296566
-0.27707
-0.260879
-0.247922
-0.237876
-0.230341
-0.224935
-0.22133
-0.219252
-0.218471
-0.218786
-0.220025
-0.22204
-0.224706
-0.227917
-0.231584
-0.235625
-0.23997
-0.244583
-0.249431
-0.254382
-0.259283
-0.264423
-0.270507
-0.276434
-0.278688
-0.0952358
-0.097779
-0.10134
-0.106514
-0.114214
-0.126213
-0.144292
-0.174422
-0.353519
-0.338677
-0.319352
-0.152079
-0.133717
-0.174808
-0.244301
-0.315956
-0.359465
-0.366681
-0.353173
-0.326214
-0.297766
-0.273636
-0.251376
-0.231754
-0.214937
-0.201079
-0.190125
-0.181876
-0.17604
-0.172302
-0.17036
-0.169946
-0.170822
-0.172778
-0.17563
-0.179222
-0.183419
-0.18811
-0.193203
-0.198622
-0.204294
-0.21016
-0.216191
-0.222368
-0.228562
-0.234616
-0.240837
-0.247999
-0.254943
-0.25789
-0.0973065
-0.101858
-0.108113
-0.116876
-0.129339
-0.14775
-0.174425
-0.219308
-0.404421
-0.404307
-0.395336
-0.372507
-0.219159
-0.23481
-0.278155
-0.326109
-0.347579
-0.3321
-0.299716
-0.258886
-0.22336
-0.196905
-0.17549
-0.158476
-0.145034
-0.134698
-0.127135
-0.122068
-0.119219
-0.118307
-0.119053
-0.121198
-0.1245
-0.128746
-0.133752
-0.139363
-0.145449
-0.151907
-0.158654
-0.165619
-0.172738
-0.179958
-0.187255
-0.194618
-0.201926
-0.209017
-0.216204
-0.224317
-0.232163
-0.23576
-0.0993356
-0.105805
-0.114616
-0.126777
-0.143762
-0.168092
-0.202666
-0.25269
-0.369043
-0.475946
-0.475043
-0.475504
-0.297931
-0.306296
-0.326366
-0.347556
-0.349323
-0.31441
-0.261617
-0.207629
-0.16483
-0.135018
-0.112945
-0.0967956
-0.0849808
-0.0765628
-0.0710073
-0.0679737
-0.0671739
-0.0683203
-0.0711203
-0.0752878
-0.0805579
-0.0866977
-0.0935102
-0.100834
-0.10854
-0.116524
-0.124708
-0.133024
-0.141413
-0.149824
-0.158238
-0.16665
-0.174946
-0.18296
-0.191004
-0.199941
-0.208576
-0.212788
-0.101157
-0.109403
-0.120575
-0.135872
-0.157018
-0.186793
-0.228726
-0.284305
-0.32906
-0.493875
-0.554123
-0.557895
-0.380706
-0.385272
-0.386459
-0.382056
-0.362916
-0.312495
-0.237558
-0.170112
-0.119375
-0.085092
-0.0610806
-0.0444659
-0.033017
-0.0253895
-0.0208701
-0.0190494
-0.0196083
-0.0222285
-0.0265784
-0.0323303
-0.0391829
-0.0468753
-0.0551923
-0.0639606
-0.0730443
-0.0823376
-0.0917597
-0.101246
-0.110739
-0.12019
-0.129581
-0.13891
-0.148073
-0.156901
-0.165696
-0.175339
-0.184654
-0.189456
-0.102614
-0.112454
-0.12574
-0.143836
-0.168699
-0.203321
-0.251821
-0.313059
-0.372308
-0.431137
-0.626379
-0.594907
-0.467395
-0.468116
-0.454989
-0.429071
-0.388354
-0.320609
-0.231448
-0.144752
-0.0847766
-0.0447785
-0.0176445
0.00043308
0.0123786
0.019952
0.0240685
0.0252263
0.0237919
0.0201275
0.0146128
0.00762315
-0.000499404
-0.00946309
-0.0190304
-0.0290135
-0.0392664
-0.0496777
-0.0601634
-0.0706585
-0.081106
-0.0914575
-0.101695
-0.11182
-0.121737
-0.131277
-0.140725
-0.150969
-0.160871
-0.166225
-0.103562
-0.114784
-0.129889
-0.150378
-0.178403
-0.217111
-0.271165
-0.340701
-0.413898
-0.469317
-0.688896
-0.553181
-0.54865
-0.550257
-0.527438
-0.484786
-0.423854
-0.340954
-0.237671
-0.131815
-0.0596244
-0.0123692
0.0190652
0.0394269
0.0524563
0.0604203
0.0645047
0.0653331
0.0633363
0.0589245
0.0525253
0.0445598
0.03541
0.0253992
0.0147879
0.00378029
-0.00746625
-0.0188327
-0.0302304
-0.041592
-0.0528606
-0.0639877
-0.0749537
-0.0857628
-0.0963296
-0.106486
-0.116493
-0.127237
-0.137634
-0.143513
-0.103876
-0.116241
-0.132836
-0.155258
-0.185807
-0.227721
-0.286012
-0.362282
-0.4482
-0.552704
-0.743261
-0.597602
-0.621033
-0.661622
-0.663321
-0.544748
-0.467501
-0.37208
-0.25317
-0.136091
-0.0435874
0.0130409
0.0501412
0.0736199
0.0881947
0.0968071
0.101038
0.101701
0.0993142
0.0943388
0.0872431
0.0784876
0.0684901
0.057603
0.0461095
0.0342303
0.0221344
0.00994911
-0.00223149
-0.0143371
-0.0263099
-0.0381013
-0.0496898
-0.0610808
-0.0722001
-0.0828827
-0.0933621
-0.104509
-0.115311
-0.121698
-0.103455
-0.11671
-0.13444
-0.158304
-0.190683
-0.234838
-0.295824
-0.376564
-0.472155
-0.723984
-0.784446
-0.660665
-0.682851
-0.751784
-0.780154
-0.640279
-0.519186
-0.407385
-0.279696
-0.144979
-0.0374001
0.0313852
0.0759773
0.103654
0.120287
0.129736
0.134171
0.134703
0.131985
0.126533
0.118849
0.109423
0.0987011
0.0870615
0.0748078
0.0621763
0.0493471
0.0364552
0.0236002
0.0108556
-0.00172003
-0.0140778
-0.0261945
-0.0380755
-0.0496589
-0.0607869
-0.0716602
-0.0831201
-0.0942443
-0.101121
-0.102226
-0.116109
-0.134612
-0.159411
-0.192886
-0.238246
-0.300281
-0.383161
-0.483662
-0.742641
-0.813695
-0.706723
-0.734697
-0.773105
-0.855047
-0.822891
-0.572952
-0.450701
-0.307941
-0.159683
-0.0392993
0.0419732
0.0951942
0.128671
0.149103
0.159644
0.164299
0.164654
0.161572