/*--------------------------------*- C++ -*----------------------------------*\
  =========                 |
  \\      /  F ield         | OpenFOAM: The Open Source CFD Toolbox
   \\    /   O peration     | Website:  https://openfoam.org
    \\  /    A nd           | Version:  9
     \\/     M anipulation  |
\*---------------------------------------------------------------------------*/
FoamFile
{
    format      ascii;
    class       volScalarField;
    location    "0.1";
    object      rAU;
}
// * * * * * * * * * * * * * * * * * * * * * * * * * * * * * * * * * * * * * //

dimensions      [-1 3 1 0 0 0 0];

internalField   nonuniform List<scalar> 
5000
(
2.6509e-05
2.64137e-05
2.63009e-05
2.61713e-05
2.60293e-05
2.58844e-05
2.57309e-05
2.55111e-05
2.52157e-05
2.52269e-05
2.61188e-05
2.78184e-05
5.01321e-06
5.06543e-08
3.26977e-08
3.25073e-08
3.24329e-08
3.23913e-08
3.23881e-08
3.24018e-08
3.22488e-08
3.22027e-08
3.2157e-08
3.21288e-08
3.21401e-08
3.22016e-08
3.2291e-08
3.2377e-08
3.25104e-08
4.66967e-08
1.23836e-06
2.71531e-05
2.78782e-05
2.74902e-05
2.61803e-05
2.49911e-05
2.42892e-05
2.39379e-05
2.37714e-05
2.36681e-05
2.35605e-05
2.34227e-05
2.3251e-05
2.30492e-05
2.28218e-05
2.25712e-05
2.22981e-05
2.20022e-05
2.16829e-05
2.33496e-05
2.65038e-05
2.64108e-05
2.63015e-05
2.61774e-05
2.60443e-05
2.59122e-05
2.577e-05
2.55586e-05
2.53058e-05
2.54595e-05
2.65959e-05
2.97307e-05
1.20298e-05
5.91332e-08
3.28201e-08
3.25521e-08
3.24268e-08
3.23588e-08
3.23526e-08
3.2372e-08
3.22175e-08
3.21622e-08
3.21026e-08
3.20577e-08
3.20529e-08
3.21117e-08
3.22252e-08
3.23533e-08
3.25345e-08
5.43601e-08
4.56439e-06
2.77936e-05
2.76767e-05
2.80992e-05
2.69621e-05
2.56418e-05
2.47976e-05
2.43406e-05
2.41121e-05
2.39824e-05
2.38703e-05
2.37375e-05
2.35728e-05
2.3377e-05
2.31539e-05
2.29064e-05
2.26357e-05
2.23419e-05
2.20243e-05
2.37591e-05
2.65023e-05
2.64121e-05
2.63071e-05
2.61891e-05
2.60655e-05
2.59456e-05
2.58135e-05
2.56117e-05
2.54037e-05
2.56865e-05
2.69986e-05
2.76956e-05
2.64488e-05
8.13097e-08
3.30313e-08
3.26073e-08
3.24338e-08
3.23417e-08
3.23299e-08
3.23545e-08
3.2201e-08
3.21369e-08
3.20635e-08
3.20009e-08
3.19687e-08
3.19948e-08
3.20976e-08
3.22577e-08
3.29396e-08
8.38171e-08
1.58598e-05
2.59929e-05
2.54309e-05
2.83567e-05
2.74741e-05
2.62577e-05
2.53002e-05
2.47491e-05
2.44593e-05
2.42993e-05
2.41787e-05
2.4049e-05
2.38914e-05
2.37026e-05
2.34853e-05
2.32423e-05
2.29751e-05
2.2684e-05
2.23683e-05
2.4173e-05
2.65041e-05
2.64172e-05
2.63167e-05
2.62052e-05
2.60912e-05
2.5983e-05
2.58597e-05
2.56681e-05
2.5506e-05
2.59069e-05
2.72486e-05
2.69488e-05
3.11363e-05
1.42891e-07
3.4207e-08
3.27211e-08
3.24891e-08
3.23673e-08
3.23357e-08
3.23563e-08
3.22044e-08
3.21317e-08
3.20461e-08
3.19752e-08
3.19247e-08
3.19021e-08
3.19458e-08
3.20945e-08
3.62966e-08
1.86843e-07
2.11868e-05
2.54901e-05
2.47527e-05
2.83116e-05
2.77588e-05
2.66988e-05
2.57786e-05
2.51509e-05
2.48063e-05
2.46161e-05
2.44849e-05
2.43565e-05
2.42055e-05
2.40243e-05
2.38137e-05
2.35761e-05
2.3313e-05
2.3025e-05
2.2711e-05
2.45862e-05
2.65087e-05
2.64253e-05
2.63296e-05
2.62249e-05
2.61203e-05
2.60226e-05
2.59068e-05
2.5726e-05
2.56097e-05
2.61145e-05
2.7157e-05
2.92729e-05
3.19741e-05
4.48704e-07
3.8337e-08
3.29797e-08
3.26439e-08
3.24662e-08
3.23868e-08
3.23846e-08
3.22326e-08
3.2151e-08
3.20519e-08
3.19859e-08
3.19564e-08
3.19237e-08
3.19101e-08
3.20973e-08
5.42929e-08
9.91757e-07
2.41469e-05
2.66984e-05
2.67067e-05
2.81604e-05
2.78891e-05
2.68264e-05
2.60884e-05
2.55357e-05
2.51464e-05
2.49292e-05
2.47873e-05
2.46594e-05
2.45145e-05
2.43415e-05
2.4139e-05
2.39086e-05
2.36522e-05
2.33705e-05
2.30625e-05
2.50143e-05
2.65157e-05
2.6436e-05
2.63451e-05
2.62471e-05
2.61515e-05
2.60632e-05
2.59537e-05
2.57839e-05
2.57102e-05
2.62761e-05
2.75713e-05
3.1759e-05
3.24154e-05
1.66641e-05
5.86818e-08
3.33368e-08
3.28822e-08
3.26333e-08
3.24828e-08
3.2441e-08
3.22881e-08
3.21981e-08
3.20767e-08
3.20097e-08
3.20356e-08
3.20724e-08
3.21038e-08
3.98204e-08
1.95593e-07
1.55124e-05
2.27841e-05
2.71553e-05
2.91795e-05
2.81982e-05
2.79476e-05
2.68112e-05
2.6015e-05
2.55163e-05
2.52276e-05
2.50554e-05
2.49269e-05
2.47971e-05
2.46439e-05
2.44601e-05
2.42448e-05
2.39995e-05
2.37251e-05
2.3422e-05
2.3093e-05
1.87944e-05
2.65248e-05
2.64488e-05
2.63627e-05
2.62711e-05
2.61839e-05
2.61039e-05
2.59997e-05
2.58405e-05
2.58049e-05
2.64432e-05
2.84465e-05
3.2001e-05
3.21963e-05
3.01746e-05
2.05399e-07
3.87019e-08
3.30959e-08
3.28056e-08
3.25963e-08
3.25175e-08
3.23688e-08
3.22753e-08
3.21232e-08
3.20233e-08
3.20798e-08
3.22345e-08
3.7195e-08
1.23363e-07
1.27617e-05
1.78419e-05
2.43273e-05
2.89287e-05
2.99126e-05
2.84512e-05
2.79364e-05
2.67702e-05
2.59096e-05
2.53516e-05
2.50149e-05
2.48074e-05
2.46547e-05
2.45088e-05
2.43444e-05
2.41519e-05
2.39293e-05
2.36776e-05
2.33978e-05
2.30918e-05
2.27667e-05
1.84374e-05
2.65355e-05
2.64632e-05
2.63817e-05
2.62963e-05
2.62169e-05
2.6144e-05
2.60443e-05
2.58959e-05
2.58952e-05
2.65997e-05
2.86046e-05
2.80712e-05
3.13933e-05
3.24286e-05
9.68513e-06
1.0024e-07
3.54554e-08
3.29529e-08
3.27051e-08
3.26073e-08
3.24685e-08
3.23848e-08
3.22241e-08
3.21007e-08
3.23323e-08
4.07083e-08
1.26189e-07
1.05527e-05
2.71141e-05
2.25267e-05
2.26022e-05
3.06041e-05
3.05115e-05
2.8886e-05
2.78834e-05
2.66953e-05
2.57899e-05
2.51862e-05
2.48104e-05
2.45725e-05
2.43981e-05
2.42372e-05
2.40622e-05
2.38615e-05
2.3632e-05
2.3374e-05
2.30889e-05
2.278e-05
2.24583e-05
1.80932e-05
2.65475e-05
2.64788e-05
2.64018e-05
2.63222e-05
2.62498e-05
2.61831e-05
2.60875e-05
2.59502e-05
2.59839e-05
2.67582e-05
2.86841e-05
2.7843e-05
3.12399e-05
3.23954e-05
3.06691e-05
5.95863e-06
1.00819e-07
3.95219e-08
3.32888e-08
3.28118e-08
3.26598e-08
3.27542e-08
3.35257e-08
3.85829e-08
5.86171e-08
2.16979e-07
1.60191e-05
2.80113e-05
3.03986e-05
2.64923e-05
2.244e-05
2.62594e-05
3.06356e-05
2.92423e-05
2.77874e-05
2.659e-05
2.56528e-05
2.50163e-05
2.46101e-05
2.43472e-05
2.41539e-05
2.39792e-05
2.37942e-05
2.35857e-05
2.33495e-05
2.30857e-05
2.27961e-05
2.2486e-05
2.21687e-05
1.77718e-05
2.65605e-05
2.64952e-05
2.64225e-05
2.63483e-05
2.62823e-05
2.62209e-05
2.61288e-05
2.60031e-05
2.60715e-05
2.69137e-05
2.74019e-05
2.78902e-05
3.17692e-05
3.23045e-05
3.21601e-05
2.9715e-05
1.02459e-05
2.23594e-07
8.06595e-08
5.75417e-08
5.60199e-08
6.52073e-08
1.00157e-07
2.12818e-07
1.40865e-06
1.90822e-05
2.79294e-05
3.04092e-05
3.07581e-05
2.89641e-05
2.2592e-05
2.31967e-05
3.02677e-05
2.93361e-05
2.76527e-05
2.64514e-05
2.54993e-05
2.48414e-05
2.44131e-05
2.41303e-05
2.39208e-05
2.37338e-05
2.35393e-05
2.33232e-05
2.30808e-05
2.28117e-05
2.25185e-05
2.22084e-05
2.18957e-05
1.74673e-05
2.65742e-05
2.65122e-05
2.64434e-05
2.63743e-05
2.63139e-05
2.62568e-05
2.61678e-05
2.6053e-05
2.61549e-05
2.70499e-05
2.67765e-05
2.79916e-05
3.20372e-05
3.16588e-05
3.22891e-05
3.1895e-05
3.03934e-05
2.16811e-05
1.06038e-05
3.11943e-06
2.96327e-06
5.00224e-06
1.80296e-05
2.20258e-05
2.72095e-05
2.83152e-05
3.03825e-05
3.07432e-05
3.07553e-05
3.04148e-05
2.33578e-05
2.30386e-05
2.91726e-05
2.91392e-05
2.74647e-05
2.62815e-05
2.53287e-05
2.46612e-05
2.42191e-05
2.39217e-05
2.36989e-05
2.35005e-05
2.32968e-05
2.30732e-05
2.28244e-05
2.25501e-05
2.22537e-05
2.19439e-05
2.16341e-05
1.71732e-05
2.65884e-05
2.65295e-05
2.64644e-05
2.63999e-05
2.63443e-05
2.62904e-05
2.62034e-05
2.60981e-05
2.62297e-05
2.71577e-05
2.87572e-05
3.19068e-05
3.11692e-05
3.02283e-05
3.22083e-05
3.20191e-05
3.16731e-05
3.09446e-05
2.98814e-05
2.95123e-05
2.94701e-05
2.97426e-05
2.97941e-05
3.02513e-05
3.07817e-05
3.12067e-05
3.10663e-05
3.09178e-05
3.08338e-05
3.07626e-05
2.70876e-05
2.31454e-05
2.89774e-05
2.8932e-05
2.7366e-05
2.61008e-05
2.51559e-05
2.44842e-05
2.40329e-05
2.37237e-05
2.34888e-05
2.32795e-05
2.30664e-05
2.28347e-05
2.25791e-05
2.22997e-05
2.20009e-05
2.16923e-05
2.13845e-05
1.68931e-05
2.6603e-05
2.65469e-05
2.64852e-05
2.64248e-05
2.63733e-05
2.63216e-05
2.62353e-05
2.61379e-05
2.62946e-05
2.72641e-05
2.95955e-05
3.27497e-05
2.94676e-05
3.01354e-05
3.22753e-05
3.20093e-05
3.17915e-05
3.18355e-05
3.17851e-05
3.16653e-05
3.13766e-05
3.12247e-05
3.10825e-05
3.1199e-05
3.13569e-05
3.13777e-05
3.12395e-05
3.10966e-05
3.10032e-05
3.09639e-05
2.89637e-05
2.33716e-05
2.95163e-05
2.87965e-05
2.72313e-05
2.59408e-05
2.49955e-05
2.43188e-05
2.38581e-05
2.35375e-05
2.32907e-05
2.30701e-05
2.28469e-05
2.26066e-05
2.23439e-05
2.20595e-05
2.17586e-05
2.14506e-05
2.11432e-05
1.66308e-05
2.66177e-05
2.65643e-05
2.65057e-05
2.64489e-05
2.64009e-05
2.63504e-05
2.6264e-05
2.61743e-05
2.63573e-05
2.73608e-05
2.95365e-05
3.00297e-05
2.9501e-05
3.12283e-05
3.21303e-05
3.1967e-05
3.18025e-05
3.18468e-05
3.18913e-05
3.18444e-05
3.15437e-05
3.13679e-05
3.11721e-05
3.126e-05
3.13624e-05
3.13908e-05
3.13321e-05
3.12576e-05
3.12137e-05
3.12215e-05
2.99553e-05
2.38024e-05
3.03866e-05
2.87222e-05
2.71113e-05
2.58004e-05
2.48445e-05
2.4162e-05
2.36916e-05
2.33599e-05
2.31013e-05
2.28694e-05
2.26361e-05
2.23872e-05
2.2118e-05
2.18302e-05
2.15298e-05
2.12251e-05
2.09213e-05
1.63933e-05
2.66324e-05
2.65815e-05
2.65258e-05
2.64723e-05
2.64271e-05
2.63771e-05
2.62904e-05
2.62096e-05
2.64223e-05
2.74199e-05
2.70528e-05
2.94313e-05
2.95165e-05
3.15478e-05
3.20263e-05
3.19211e-05
3.17947e-05
3.18029e-05
3.18244e-05
3.17811e-05
3.14982e-05
3.13546e-05
3.11561e-05
3.11604e-05
3.13197e-05
3.13858e-05
3.13887e-05
3.13903e-05
3.14306e-05
3.15287e-05
3.02657e-05
2.50082e-05
2.94146e-05
2.86615e-05
2.6987e-05
2.56488e-05
2.46845e-05
2.39976e-05
2.35213e-05
2.31815e-05
2.29134e-05
2.26716e-05
2.24293e-05
2.2173e-05
2.1899e-05
2.16103e-05
2.13132e-05
2.1014e-05
2.07129e-05
1.61567e-05
2.6647e-05
2.65984e-05
2.65454e-05
2.64949e-05
2.64521e-05
2.64021e-05
2.63148e-05
2.62439e-05
2.6488e-05
2.74354e-05
2.66257e-05
2.94787e-05
2.95278e-05
3.18614e-05
3.20436e-05
3.18921e-05
3.1791e-05
3.17764e-05
3.17748e-05
3.17281e-05
3.14546e-05
3.13363e-05
3.11478e-05
3.11383e-05
3.1178e-05
3.13439e-05
3.14179e-05
3.14795e-05
3.16062e-05
3.18187e-05
2.90341e-05
2.48229e-05
2.45535e-05
2.84897e-05
2.67957e-05
2.54442e-05
2.44864e-05
2.38057e-05
2.33326e-05
2.29914e-05
2.27182e-05
2.24698e-05
2.22206e-05
2.19587e-05
2.16818e-05
2.13937e-05
2.11006e-05
2.08048e-05
2.05007e-05
1.59154e-05
2.66614e-05
2.6615e-05
2.65645e-05
2.65168e-05
2.64759e-05
2.64255e-05
2.63378e-05
2.62771e-05
2.65521e-05
2.73173e-05
2.76284e-05
2.95328e-05
3.00878e-05
3.23179e-05
3.20508e-05
3.18854e-05
3.17977e-05
3.17725e-05
3.17574e-05
3.17061e-05
3.14352e-05
3.13258e-05
3.12527e-05
3.11256e-05
3.11551e-05
3.12043e-05
3.14042e-05
3.15062e-05
3.16887e-05
3.1912e-05
2.81019e-05
2.47072e-05
2.34164e-05
2.80651e-05
2.64556e-05
2.51577e-05
2.42248e-05
2.35712e-05
2.31157e-05
2.27826e-05
2.2511e-05
2.22605e-05
2.20078e-05
2.17433e-05
2.14665e-05
2.11821e-05
2.08943e-05
2.0601e-05
2.02921e-05
1.56817e-05
2.66756e-05
2.66313e-05
2.65831e-05
2.6538e-05
2.64987e-05
2.64477e-05
2.63598e-05
2.63099e-05
2.66067e-05
2.71513e-05
2.95369e-05
2.96011e-05
3.25677e-05
3.23688e-05
3.20486e-05
3.18822e-05
3.18091e-05
3.17861e-05
3.17689e-05
3.17128e-05
3.14455e-05
3.13283e-05
3.12712e-05
3.12348e-05
3.11322e-05
3.11694e-05
3.12867e-05
3.14694e-05
3.16647e-05
3.11271e-05
2.81088e-05
2.42643e-05
2.307e-05
2.74723e-05
2.5945e-05
2.47599e-05
2.38995e-05
2.32965e-05
2.28734e-05
2.25579e-05
2.22943e-05
2.20462e-05
2.1794e-05
2.1531e-05
2.12586e-05
2.09811e-05
2.06994e-05
2.04068e-05
2.00901e-05
1.54563e-05
2.66894e-05
2.66471e-05
2.66013e-05
2.65586e-05
2.65207e-05
2.6469e-05
2.63816e-05
2.63428e-05
2.66577e-05
2.7628e-05
2.99467e-05
2.96747e-05
3.29967e-05
3.19565e-05
3.18818e-05
3.18688e-05
3.18193e-05
3.18097e-05
3.17324e-05
3.16425e-05
3.14586e-05
3.13557e-05
3.12772e-05
3.12514e-05
3.11935e-05
3.11356e-05
3.1174e-05
3.13837e-05
3.15548e-05
3.02296e-05
2.8326e-05
2.72358e-05
2.59733e-05
2.67974e-05
2.53904e-05
2.43238e-05
2.3552e-05
2.30096e-05
2.26248e-05
2.2331e-05
2.20782e-05
2.1835e-05
2.15861e-05
2.13277e-05
2.10625e-05
2.07928e-05
2.05151e-05
2.02188e-05
1.98907e-05
1.52175e-05
2.67029e-05
2.66625e-05
2.66189e-05
2.65786e-05
2.65421e-05
2.649e-05
2.64038e-05
2.63766e-05
2.67158e-05
2.7937e-05
2.91407e-05
3.15324e-05
3.30461e-05
3.10627e-05
3.15794e-05
3.18513e-05
3.18323e-05
3.18412e-05
3.17293e-05
3.16964e-05
3.15071e-05
3.14163e-05
3.13022e-05
3.12488e-05
3.12443e-05
3.11051e-05
3.11189e-05
3.12926e-05
3.14111e-05
2.98109e-05
2.83681e-05
2.97192e-05
2.78521e-05
2.61872e-05
2.4892e-05
2.39242e-05
2.32306e-05
2.27434e-05
2.23933e-05
2.21188e-05
2.18754e-05
2.16368e-05
2.13921e-05
2.11398e-05
2.08821e-05
2.06179e-05
2.03396e-05
2.00349e-05
1.96934e-05
1.48785e-05
2.67159e-05
2.66774e-05
2.6636e-05
2.65981e-05
2.65631e-05
2.65111e-05
2.64275e-05
2.64139e-05
2.67892e-05
2.79892e-05
2.87906e-05
3.31187e-05
3.30786e-05
3.08791e-05
3.17163e-05
3.1851e-05
3.18555e-05
3.18982e-05
3.18157e-05
3.18574e-05
3.16848e-05
3.15098e-05
3.13484e-05
3.12607e-05
3.12416e-05
3.12011e-05
3.10993e-05
3.12541e-05
3.09516e-05
2.88774e-05
2.85254e-05
2.90569e-05
2.71985e-05
2.56395e-05
2.44526e-05
2.3575e-05
2.29508e-05
2.25121e-05
2.21911e-05
2.19313e-05
2.16943e-05
2.14592e-05
2.12186e-05
2.09722e-05
2.07202e-05
2.04573e-05
2.01732e-05
1.98566e-05
1.95018e-05
1.45613e-05
2.67283e-05
2.66916e-05
2.66526e-05
2.6617e-05
2.65838e-05
2.65327e-05
2.64533e-05
2.64561e-05
2.68747e-05
2.79397e-05
2.88874e-05
3.3172e-05
3.18384e-05
3.08809e-05
3.1988e-05
3.18574e-05
3.18178e-05
3.18479e-05
3.19674e-05
3.20195e-05
3.18283e-05
3.16125e-05
3.14051e-05
3.12898e-05
3.12614e-05
3.12638e-05
3.11645e-05
3.1224e-05
3.06749e-05
2.89415e-05
2.84328e-05
2.83543e-05
2.65975e-05
2.51601e-05
2.40695e-05
2.32756e-05
2.27151e-05
2.23184e-05
2.20206e-05
2.17713e-05
2.15383e-05
2.13057e-05
2.1069e-05
2.08274e-05
2.05777e-05
2.03112e-05
2.0017e-05
1.96872e-05
1.93206e-05
1.42711e-05
2.674e-05
2.67052e-05
2.66684e-05
2.66353e-05
2.66041e-05
2.65546e-05
2.64809e-05
2.65019e-05
2.69572e-05
2.79009e-05
2.89976e-05
3.31813e-05
2.89277e-05
3.07777e-05
3.2016e-05
3.18548e-05
3.17189e-05
3.18185e-05
3.19794e-05
3.11772e-05
3.18467e-05
3.16781e-05
3.14536e-05
3.13386e-05
3.13179e-05
3.13322e-05
3.12709e-05
3.11851e-05
3.07989e-05
2.87495e-05
2.85694e-05
2.76956e-05
2.60505e-05
2.47338e-05
2.37411e-05
2.30266e-05
2.2523e-05
2.21612e-05
2.18811e-05
2.16386e-05
2.14078e-05
2.11775e-05
2.09442e-05
2.07052e-05
2.04536e-05
2.01792e-05
1.98725e-05
1.95297e-05
1.91534e-05
1.40104e-05
2.6751e-05
2.6718e-05
2.66835e-05
2.66529e-05
2.66238e-05
2.65763e-05
2.6509e-05
2.65486e-05
2.70383e-05
2.81826e-05
2.92839e-05
3.06648e-05
2.89343e-05
3.04288e-05
3.1996e-05
3.18339e-05
3.18559e-05
3.18501e-05
2.78677e-05
2.47948e-05
2.73198e-05
3.12671e-05
3.15011e-05
3.14253e-05
3.14281e-05
3.14592e-05
3.14416e-05
3.13184e-05
3.12724e-05
3.00443e-05
2.87219e-05
2.71154e-05
2.55752e-05
2.43668e-05
2.34681e-05
2.28258e-05
2.23712e-05
2.20374e-05
2.17698e-05
2.15314e-05
2.13022e-05
2.1074e-05
2.0843e-05
2.06034e-05
2.03458e-05
2.00601e-05
1.97401e-05
1.93856e-05
1.90013e-05
1.37785e-05
2.67611e-05
2.67298e-05
2.66975e-05
2.66694e-05
2.66425e-05
2.65974e-05
2.65369e-05
2.6595e-05
2.71179e-05
2.84797e-05
3.0191e-05
2.92061e-05
2.89636e-05
3.0244e-05
3.19608e-05
3.18017e-05
3.18338e-05
2.70429e-05
2.4725e-05
2.47612e-05
2.46424e-05
2.96351e-05
3.16349e-05
3.15949e-05
3.1618e-05
3.16638e-05
3.16874e-05
3.16001e-05
3.14084e-05
3.02077e-05
2.83719e-05
2.66162e-05
2.51726e-05
2.40624e-05
2.3248e-05
2.26684e-05
2.22541e-05
2.19416e-05
2.16825e-05
2.14468e-05
2.12193e-05
2.0993e-05
2.07623e-05
2.05184e-05
2.02511e-05
1.99522e-05
1.9619e-05
1.92543e-05
1.88637e-05
1.35728e-05
2.67701e-05
2.67405e-05
2.67102e-05
2.66847e-05
2.666e-05
2.66175e-05
2.65644e-05
2.66416e-05
2.71953e-05
2.83712e-05
3.07326e-05
3.07244e-05
2.89639e-05
3.01526e-05
3.19521e-05
3.17843e-05
2.87829e-05
2.46543e-05
2.48417e-05
2.49595e-05
2.56253e-05
3.09334e-05
3.19091e-05
3.1879e-05
3.1905e-05
3.19561e-05
3.19909e-05
3.19848e-05
3.08397e-05
2.92809e-05
2.78363e-05
2.61714e-05
2.48269e-05
2.38092e-05
2.30708e-05
2.25452e-05
2.21635e-05
2.1867e-05
2.16142e-05
2.1381e-05
2.11555e-05
2.09302e-05
2.06969e-05
2.04451e-05
2.01653e-05
1.98525e-05
1.95073e-05
1.91342e-05
1.87386e-05
1.33891e-05
2.6778e-05
2.67498e-05
2.67215e-05
2.66983e-05
2.66759e-05
2.66361e-05
2.65912e-05
2.66888e-05
2.72697e-05
2.83106e-05
3.07894e-05
3.1139e-05
2.89546e-05
3.03962e-05
3.19194e-05
3.17416e-05
2.46641e-05
2.46958e-05
2.48551e-05
2.54671e-05
3.06564e-05
3.20127e-05
3.21841e-05
3.22732e-05
3.22898e-05
3.2335e-05
3.2371e-05
3.21616e-05
3.00142e-05
2.74706e-05
2.73508e-05
2.57747e-05
2.45257e-05
2.35945e-05
2.29243e-05
2.24451e-05
2.20902e-05
2.18066e-05
2.15594e-05
2.13294e-05
2.11059e-05
2.08797e-05
2.06405e-05
2.03777e-05
2.00841e-05
1.9758e-05
1.94025e-05
1.90228e-05
1.86233e-05
1.32227e-05
2.67844e-05
2.67575e-05
2.67311e-05
2.67101e-05
2.66897e-05
2.66529e-05
2.66168e-05
2.67366e-05
2.73482e-05
2.84334e-05
3.08516e-05
2.95163e-05
2.89633e-05
3.12112e-05
3.19174e-05
2.83923e-05
2.4459e-05
2.45902e-05
2.62835e-05
3.12262e-05
3.18824e-05
3.19608e-05
3.22783e-05
3.26143e-05
3.27475e-05
3.27907e-05
3.27906e-05
3.18549e-05
2.93243e-05
2.67679e-05
2.67929e-05
2.54127e-05
2.42566e-05
2.34059e-05
2.2797e-05
2.23581e-05
2.2026e-05
2.17539e-05
2.15129e-05
2.12868e-05
2.10644e-05
2.08349e-05
2.05868e-05
2.03109e-05
2.00035e-05
1.96656e-05
1.93019e-05
1.8917e-05
1.85148e-05
1.30686e-05
2.67894e-05
2.67635e-05
2.67387e-05
2.67196e-05
2.67012e-05
2.66674e-05
2.6641e-05
2.67849e-05
2.73432e-05
2.87129e-05
2.99034e-05
2.96645e-05
2.89483e-05
3.20777e-05
3.18658e-05
2.4863e-05
2.4456e-05
2.75823e-05
3.15829e-05
3.18518e-05
3.17647e-05
3.19627e-05
3.23927e-05
3.29411e-05
3.32503e-05
3.3303e-05
3.27366e-05
3.13165e-05
2.87014e-05
2.62406e-05
2.63055e-05
2.50754e-05
2.40071e-05
2.32315e-05
2.26781e-05
2.22751e-05
2.19638e-05
2.17034e-05
2.14697e-05
2.12477e-05
2.1025e-05
2.07893e-05
2.05299e-05
2.02405e-05
1.99204e-05
1.95729e-05
1.92028e-05
1.88142e-05
1.841e-05
1.29222e-05
2.67926e-05
2.67675e-05
2.67439e-05
2.67265e-05
2.67097e-05
2.66789e-05
2.66628e-05
2.68309e-05
2.74096e-05
2.90434e-05
2.85305e-05
2.98282e-05
3.15781e-05
3.21057e-05
3.02675e-05
2.47624e-05
2.74368e-05
3.14089e-05
3.1523e-05
3.16626e-05
3.16817e-05
3.20154e-05
3.25709e-05
3.3313e-05
3.37779e-05
3.34476e-05
3.21886e-05
3.07598e-05
2.81687e-05
2.5711e-05
2.58855e-05
2.47462e-05
2.3764e-05
2.30598e-05
2.25584e-05
2.21891e-05
2.18983e-05
2.16508e-05
2.14253e-05
2.12068e-05
2.09816e-05
2.07374e-05
2.04656e-05
2.01634e-05
1.98326e-05
1.94777e-05
1.9103e-05
1.87119e-05
1.83063e-05
1.27796e-05
2.6794e-05
2.67693e-05
2.67466e-05
2.67302e-05
2.67146e-05
2.66866e-05
2.66807e-05
2.68742e-05
2.75975e-05
2.92516e-05
3.05662e-05
3.07133e-05
3.28828e-05
3.2097e-05
2.82764e-05
2.52241e-05
3.0356e-05
3.11914e-05
3.12546e-05
3.1504e-05
3.1644e-05
3.21176e-05
3.28142e-05
3.37257e-05
3.41033e-05
3.30179e-05
3.16011e-05
3.01688e-05
2.7407e-05
2.516e-05
2.52162e-05
2.44093e-05
2.3515e-05
2.28817e-05
2.2431e-05
2.20952e-05
2.18261e-05
2.15929e-05
2.1376e-05
2.11595e-05
2.09295e-05
2.06753e-05
2.03913e-05
2.0078e-05
1.97389e-05
1.93786e-05
1.90009e-05
1.86082e-05
1.82018e-05
1.26378e-05
2.67935e-05
2.67687e-05
2.67463e-05
2.67305e-05
2.67154e-05
2.66896e-05
2.66937e-05
2.69132e-05
2.7706e-05
2.93516e-05
3.1908e-05
3.02562e-05
3.22563e-05
3.19194e-05
2.79855e-05
3.04376e-05
3.09969e-05
3.08967e-05
3.10276e-05
3.1397e-05
3.16671e-05
3.22916e-05
3.31476e-05
3.41836e-05
3.3825e-05
3.23747e-05
3.09643e-05
2.93051e-05
2.59823e-05
2.45717e-05
2.41844e-05
2.40544e-05
2.32534e-05
2.26925e-05
2.2293e-05
2.19917e-05
2.17458e-05
2.15279e-05
2.13187e-05
2.11024e-05
2.08658e-05
2.0601e-05
2.03062e-05
1.99841e-05
1.9639e-05
1.92752e-05
1.88956e-05
1.8502e-05
1.80952e-05
1.24952e-05
2.67908e-05
2.67655e-05
2.67428e-05
2.67268e-05
2.67115e-05
2.66872e-05
2.6701e-05
2.69483e-05
2.77859e-05
2.94264e-05
3.20722e-05
3.02438e-05
3.17451e-05
3.13855e-05
2.79397e-05
3.02366e-05
3.07156e-05
3.06396e-05
3.08584e-05
3.13603e-05
3.17803e-05
3.25715e-05
3.36063e-05
3.41968e-05
3.31183e-05
3.16698e-05
3.02905e-05
2.83022e-05
2.53665e-05
2.40119e-05
2.40545e-05
2.36854e-05
2.29809e-05
2.24935e-05
2.21458e-05
2.18801e-05
2.16584e-05
2.14554e-05
2.12524e-05
2.1034e-05
2.07896e-05
2.05149e-05
2.02111e-05
1.98825e-05
1.95335e-05
1.91676e-05
1.8787e-05
1.8393e-05
1.79862e-05
1.23511e-05
2.67861e-05
2.67596e-05
2.67359e-05
2.67189e-05
2.67024e-05
2.66789e-05
2.67021e-05
2.69782e-05
2.78652e-05
2.95949e-05
3.0117e-05
3.00832e-05
3.12454e-05
3.02776e-05
3.07058e-05
3.07693e-05
3.04747e-05
3.04359e-05
3.07593e-05
3.14176e-05
3.20164e-05
3.29948e-05
3.41739e-05
3.36557e-05
3.23208e-05
3.09101e-05
2.95805e-05
2.72004e-05
2.47589e-05
2.35653e-05
2.40993e-05
2.33095e-05
2.27043e-05
2.22906e-05
2.19947e-05
2.17647e-05
2.15666e-05
2.13768e-05
2.11773e-05
2.09547e-05
2.0702e-05
2.04187e-05
2.01081e-05
1.97752e-05
1.9424e-05
1.9057e-05
1.8676e-05
1.82819e-05
1.78752e-05
1.22061e-05
2.67791e-05
2.67509e-05
2.67255e-05
2.67065e-05
2.66877e-05
2.66639e-05
2.66962e-05
2.70007e-05
2.794e-05
2.96693e-05
2.82325e-05
2.99116e-05
3.0517e-05
2.97901e-05
3.11599e-05
3.06111e-05
3.03e-05
3.03228e-05
3.07623e-05
3.1596e-05
3.24086e-05
3.35965e-05
3.41952e-05
3.28684e-05
3.14389e-05
3.00951e-05
2.87584e-05
2.57822e-05
2.40974e-05
2.33307e-05
2.36613e-05
2.29318e-05
2.24312e-05
2.20916e-05
2.18468e-05
2.16512e-05
2.14743e-05
2.12944e-05
2.10951e-05
2.08667e-05
2.0606e-05
2.03157e-05
2.00005e-05
1.9665e-05
1.93126e-05
1.89453e-05
1.85642e-05
1.81702e-05
1.77637e-05
1.20619e-05
2.677e-05
2.67394e-05
2.67114e-05
2.66893e-05
2.6667e-05
2.66416e-05
2.66822e-05
2.70158e-05
2.80109e-05
2.96184e-05
2.83861e-05
2.97753e-05
3.0223e-05
2.97001e-05
3.07025e-05
3.03666e-05
3.02102e-05
3.03235e-05
3.09125e-05
3.1918e-05
3.29843e-05
3.42842e-05
3.35207e-05
3.19005e-05
3.05245e-05
2.9236e-05
2.78457e-05
2.48737e-05
2.34601e-05
2.37095e-05
2.31804e-05
2.25758e-05
2.21772e-05
2.19082e-05
2.1711e-05
2.15461e-05
2.13861e-05
2.12114e-05
2.10091e-05
2.07736e-05
2.05058e-05
2.02102e-05
1.98919e-05
1.95552e-05
1.92023e-05
1.8835e-05
1.8454e-05
1.806e-05
1.76536e-05
1.1921e-05
2.67589e-05
2.67252e-05
2.66936e-05
2.66672e-05
2.66399e-05
2.66115e-05
2.66591e-05
2.70224e-05
2.80767e-05
2.89131e-05
2.856e-05
3.24285e-05
3.17305e-05
3.05267e-05
3.01265e-05
3.03867e-05
3.02118e-05
3.04679e-05
3.12051e-05
3.24001e-05
3.35841e-05
3.41254e-05
3.24679e-05
3.09124e-05
2.95872e-05
2.83477e-05
2.6952e-05
2.48013e-05
2.34952e-05
2.34357e-05
2.27417e-05
2.22659e-05
2.19597e-05
2.17532e-05
2.15968e-05
2.14558e-05
2.13061e-05
2.11314e-05
2.09231e-05
2.06801e-05
2.04061e-05
2.01067e-05
1.97866e-05
1.94492e-05
1.90963e-05
1.87289e-05
1.83479e-05
1.79539e-05
1.75475e-05
1.17862e-05
2.67459e-05
2.67084e-05
2.66722e-05
2.66403e-05
2.66064e-05
2.6573e-05
2.6626e-05
2.70179e-05
2.81186e-05
2.89539e-05
3.06466e-05
3.34667e-05
3.20948e-05
3.08261e-05
3.06025e-05
3.03082e-05
3.03189e-05
3.07367e-05
3.15954e-05
3.26873e-05
3.35273e-05
3.31383e-05
3.14166e-05
2.99444e-05
2.86428e-05
2.7432e-05
2.61035e-05
2.49038e-05
2.37834e-05
2.29577e-05
2.23788e-05
2.20182e-05
2.17909e-05
2.1636e-05
2.15107e-05
2.13847e-05
2.12378e-05
2.1058e-05
2.08415e-05
2.0591e-05
2.03119e-05
2.00098e-05
1.96886e-05
1.93507e-05
1.89976e-05
1.86301e-05
1.82489e-05
1.78546e-05
1.7448e-05
1.16607e-05
2.67312e-05
2.66892e-05
2.66476e-05
2.66088e-05
2.65665e-05
2.6526e-05
2.65816e-05
2.6998e-05
2.81391e-05
3.00218e-05
3.2521e-05
3.33699e-05
3.19874e-05
3.08698e-05
3.03338e-05
2.99906e-05
3.00586e-05
3.0592e-05
3.13836e-05
3.24423e-05
3.32416e-05
3.20762e-05
3.0389e-05
2.89564e-05
2.77078e-05
2.65189e-05
2.53163e-05
2.41879e-05
2.32316e-05
2.25419e-05
2.21032e-05
2.18399e-05
2.16765e-05
2.15606e-05
2.14552e-05
2.13346e-05
2.11833e-05
2.09944e-05
2.07687e-05
2.05112e-05
2.02279e-05
1.99236e-05
1.96014e-05
1.9263e-05
1.89094e-05
1.85415e-05
1.81597e-05
1.7765e-05
1.73578e-05
1.15476e-05
2.67153e-05
2.66681e-05
2.662e-05
2.65731e-05
2.65207e-05
2.64708e-05
2.65261e-05
2.69629e-05
2.81584e-05
3.02673e-05
3.1068e-05
3.30977e-05
3.15711e-05
3.06884e-05
2.99872e-05
2.96124e-05
2.97165e-05
3.02529e-05
3.10949e-05
3.21822e-05
3.26822e-05
3.09703e-05
2.93215e-05
2.76246e-05
2.66735e-05
2.56288e-05
2.45311e-05
2.3535e-05
2.27593e-05
2.22343e-05
2.19166e-05
2.17322e-05
2.16172e-05
2.15268e-05
2.14296e-05
2.13053e-05
2.11439e-05
2.09435e-05
2.07084e-05
2.04447e-05
2.01579e-05
1.98516e-05
1.95283e-05
1.91889e-05
1.88345e-05
1.84656e-05
1.80831e-05
1.76874e-05
1.72795e-05
1.14496e-05
2.66986e-05
2.66455e-05
2.65902e-05
2.65339e-05
2.64699e-05
2.64087e-05
2.64616e-05
2.69168e-05
2.81514e-05
2.97317e-05
3.07841e-05
3.25749e-05
3.10767e-05
3.04423e-05
2.96542e-05
2.92795e-05
2.94204e-05
2.99248e-05
3.07937e-05
3.19066e-05
3.1716e-05
2.93344e-05
2.71975e-05
2.57849e-05
2.51982e-05
2.48461e-05
2.38473e-05
2.30178e-05
2.24175e-05
2.20361e-05
2.18167e-05
2.16925e-05
2.16099e-05
2.15312e-05
2.14312e-05
2.12959e-05
2.11207e-05
2.09082e-05
2.06643e-05
2.0395e-05
2.01049e-05
1.97966e-05
1.94716e-05
1.91308e-05
1.87751e-05
1.84049e-05
1.80211e-05
1.76242e-05
1.72151e-05
1.1369e-05
2.66814e-05
2.66221e-05
2.65588e-05
2.64922e-05
2.64155e-05
2.63414e-05
2.63899e-05
2.68605e-05
2.80667e-05
2.85397e-05
3.05577e-05
3.16174e-05
3.11578e-05
3.01928e-05
2.93497e-05
2.90058e-05
2.91612e-05
2.96947e-05
3.05025e-05
3.13517e-05
2.9368e-05
2.74979e-05
2.61241e-05
2.49734e-05
2.4515e-05
2.41699e-05
2.33104e-05
2.26506e-05
2.22066e-05
2.19425e-05
2.1798e-05
2.17147e-05
2.16485e-05
2.15687e-05
2.1457e-05
2.13057e-05
2.11152e-05
2.08909e-05
2.06391e-05
2.03647e-05
2.00712e-05
1.97603e-05
1.94332e-05
1.90905e-05
1.87329e-05
1.8361e-05
1.79756e-05
1.75772e-05
1.71667e-05
1.1308e-05
2.66645e-05
2.65986e-05
2.65268e-05
2.64492e-05
2.63588e-05
2.62707e-05
2.6313e-05
2.67968e-05
2.79786e-05
2.84292e-05
3.03308e-05
3.23967e-05
3.13114e-05
2.99019e-05
2.90956e-05
2.88256e-05
2.89932e-05
2.94532e-05
3.01275e-05
3.01206e-05
2.8167e-05
2.66311e-05
2.53537e-05
2.44226e-05
2.44403e-05
2.36394e-05
2.29343e-05
2.24329e-05
2.21193e-05
2.19448e-05
2.18517e-05
2.17906e-05
2.17256e-05
2.1634e-05
2.15042e-05
2.13345e-05
2.1129e-05
2.08938e-05
2.06347e-05
2.03554e-05
2.00582e-05
1.97443e-05
1.94144e-05
1.90693e-05
1.87094e-05
1.83354e-05
1.7948e-05
1.75478e-05
1.71357e-05
1.12678e-05
2.66485e-05
2.65758e-05
2.64951e-05
2.64061e-05
2.63014e-05
2.61986e-05
2.62334e-05
2.67213e-05
2.72096e-05
2.82944e-05
3.02489e-05
3.29167e-05
3.11241e-05
2.96437e-05
2.88888e-05
2.86574e-05
2.88239e-05
2.92637e-05
2.96637e-05
2.94611e-05
2.73259e-05
2.58887e-05
2.47447e-05
2.46036e-05
2.40055e-05
2.32737e-05
2.27209e-05
2.23558e-05
2.21433e-05
2.20308e-05
2.19666e-05
2.191e-05
2.18336e-05
2.17222e-05
2.15711e-05
2.13829e-05
2.11633e-05
2.09183e-05
2.06523e-05
2.0368e-05
2.00667e-05
1.97492e-05
1.94161e-05
1.9068e-05
1.87055e-05
1.8329e-05
1.79394e-05
1.75371e-05
1.71231e-05
1.12499e-05
2.66341e-05
2.65545e-05
2.64649e-05
2.63642e-05
2.62451e-05
2.6127e-05
2.61528e-05
2.66136e-05
2.67858e-05
2.84153e-05
3.12106e-05
3.26689e-05
3.06039e-05
2.95331e-05
2.87259e-05
2.85083e-05
2.87058e-05
2.91355e-05
2.96712e-05
2.91303e-05
2.66129e-05
2.53152e-05
2.49567e-05
2.44396e-05
2.36798e-05
2.30796e-05
2.26618e-05
2.24044e-05
2.22627e-05
2.21859e-05
2.21299e-05
2.20629e-05
2.19655e-05
2.18301e-05
2.1657e-05
2.14513e-05
2.1219e-05
2.09651e-05
2.06924e-05
2.04027e-05
2.00968e-05
1.97753e-05
1.94386e-05
1.90872e-05
1.87217e-05
1.83425e-05
1.79503e-05
1.75458e-05
1.71297e-05
1.1255e-05
2.66219e-05
2.65356e-05
2.64372e-05
2.63251e-05
2.61916e-05
2.60578e-05
2.60716e-05
2.65075e-05
2.75241e-05
2.9393e-05
3.09393e-05
3.2234e-05
3.04026e-05
2.93836e-05
2.86038e-05
2.83933e-05
2.86494e-05
2.90844e-05
2.9715e-05
2.92502e-05
2.63864e-05
2.56319e-05
2.5008e-05
2.41802e-05
2.35235e-05
2.30493e-05
2.27398e-05
2.25586e-05
2.24587e-05
2.2394e-05
2.2329e-05
2.22402e-05
2.21164e-05
2.19556e-05
2.17616e-05
2.15402e-05
2.12966e-05
2.10341e-05
2.07548e-05
2.04594e-05
2.01486e-05
1.98227e-05
1.9482e-05
1.91271e-05
1.87583e-05
1.83762e-05
1.79813e-05
1.75744e-05
1.7156e-05
1.12837e-05
2.66127e-05
2.65202e-05
2.64133e-05
2.62901e-05
2.61428e-05
2.59933e-05
2.59908e-05
2.64329e-05
2.76639e-05
2.92195e-05
3.04913e-05
3.10722e-05
3.05932e-05
2.9362e-05
2.8527e-05
2.83632e-05
2.86555e-05
2.91137e-05
2.97545e-05
2.92134e-05
2.69128e-05
2.5755e-05
2.48118e-05
2.40763e-05
2.35335e-05
2.31624e-05
2.29306e-05
2.27953e-05
2.27112e-05
2.26393e-05
2.25524e-05
2.24352e-05
2.2283e-05
2.20979e-05
2.1885e-05
2.16496e-05
2.13956e-05
2.11249e-05
2.08388e-05
2.05376e-05
2.02215e-05
1.98909e-05
1.95461e-05
1.91874e-05
1.88152e-05
1.843e-05
1.80324e-05
1.76228e-05
1.72022e-05
1.13365e-05
2.66072e-05
2.6509e-05
2.63944e-05
2.62609e-05
2.61008e-05
2.59358e-05
2.59161e-05
2.63673e-05
2.75169e-05
2.89089e-05
2.89441e-05
2.93147e-05
3.10634e-05
2.94058e-05
2.84933e-05
2.83825e-05
2.87122e-05
2.92144e-05
2.98765e-05
2.88326e-05
2.66844e-05
2.56025e-05
2.47632e-05
2.4133e-05
2.36862e-05
2.33907e-05
2.32067e-05
2.30904e-05
2.30012e-05
2.29079e-05
2.27913e-05
2.26433e-05
2.24636e-05
2.22565e-05
2.20269e-05
2.1779e-05
2.15152e-05
2.12366e-05
2.09436e-05
2.06363e-05
2.03149e-05
1.99795e-05
1.96304e-05
1.92678e-05
1.88921e-05
1.85038e-05
1.81033e-05
1.76912e-05
1.72681e-05
1.14137e-05
2.66061e-05
2.6503e-05
2.63816e-05
2.6239e-05
2.60675e-05
2.5888e-05
2.58483e-05
2.62713e-05
2.72822e-05
2.65888e-05
2.66572e-05
2.88166e-05
3.12753e-05
2.95278e-05
2.85508e-05
2.8389e-05
2.87993e-05
2.93668e-05
2.98213e-05
2.85767e-05
2.65673e-05
2.55998e-05
2.48634e-05
2.43237e-05
2.39494e-05
2.37023e-05
2.35401e-05
2.34216e-05
2.33125e-05
2.31894e-05
2.30402e-05
2.2862e-05
2.26574e-05
2.24309e-05
2.21867e-05
2.19275e-05
2.16544e-05
2.1368e-05
2.10681e-05
2.07548e-05
2.04279e-05
2.00877e-05
1.97343e-05
1.93678e-05
1.89887e-05
1.85973e-05
1.81939e-05
1.77791e-05
1.73536e-05
1.15154e-05
2.66101e-05
2.65031e-05
2.6376e-05
2.62258e-05
2.60448e-05
2.58523e-05
2.5791e-05
2.61735e-05
2.70665e-05
2.53056e-05
2.62584e-05
2.97341e-05
3.14575e-05
2.97483e-05
2.86674e-05
2.84421e-05