/*--------------------------------*- C++ -*----------------------------------*\
  =========                 |
  \\      /  F ield         | OpenFOAM: The Open Source CFD Toolbox
   \\    /   O peration     | Website:  https://openfoam.org
    \\  /    A nd           | Version:  9
     \\/     M anipulation  |
\*---------------------------------------------------------------------------*/
FoamFile
{
    format      ascii;
    class       surfaceVectorField;
    location    "0.1";
    object      Uf;
}
// * * * * * * * * * * * * * * * * * * * * * * * * * * * * * * * * * * * * * //

dimensions      [0 1 -1 0 0 0 0];

internalField   nonuniform List<vector> 
9850
(
(-0.226208 0 0.152339)
(-0.215274 0 0.146454)
(-0.238958 0 0.173968)
(-0.226785 0 0.165888)
(-0.252341 0 0.200453)
(-0.238805 0 0.19004)
(-0.265984 0 0.231403)
(-0.251175 0 0.218934)
(-0.278979 0 0.265357)
(-0.263243 0 0.251544)
(-0.290172 0 0.302562)
(-0.273558 0 0.285761)
(-0.300468 0 0.352978)
(-0.281217 0 0.324749)
(-0.312314 0 0.4277)
(-0.288935 0 0.386127)
(-0.312142 0 0.471624)
(-0.296713 0 0.46906)
(-0.253144 0 0.29637)
(-0.281148 0 0.448203)
(-0.106358 0 -0.287439)
(-0.185068 0 0.0702101)
(0.0398705 0 -1.17458)
(0.0535809 0 -0.741242)
(0.0291303 0 -1.75283)
(0.0597165 0 -1.64445)
(0.00753108 0 -1.89627)
(0.0255153 0 -1.84411)
(-0.0187011 0 -1.95019)
(-0.00701538 0 -1.93049)
(-0.0340107 0 -1.96514)
(-0.0331974 0 -1.95539)
(-0.0345482 0 -1.97527)
(-0.0380193 0 -1.96995)
(-0.0263172 0 -1.98407)
(-0.0314662 0 -1.98368)
(-0.0167548 0 -1.98895)
(-0.0212891 0 -1.99062)
(-0.00925046 0 -1.99223)
(-0.0130352 0 -1.99271)
(-0.00433884 0 -1.99606)
(-0.00817874 0 -1.99527)
(0.000450854 0 -2.00091)
(-0.00465752 0 -1.99995)
(0.00576369 0 -2.00437)
(-0.000754292 0 -2.00524)
(0.0117274 0 -2.0024)
(0.00357132 0 -2.00768)
(0.0177127 0 -1.9909)
(0.00828854 0 -2.00231)
(0.0216909 0 -1.96936)
(0.0132745 0 -1.98495)
(0.0210077 0 -1.94112)
(0.0166993 0 -1.95692)
(0.0147736 0 -1.90562)
(0.014602 0 -1.92286)
(0.00457645 0 -1.84985)
(0.00464135 0 -1.87873)
(-0.00357944 0 -1.71942)
(-0.00593245 0 -1.80926)
(0.00211288 0 -1.45682)
(-0.0146038 0 -1.62776)
(0.074985 0 -1.06062)
(0.0119856 0 -1.33573)
(0.172149 0 -0.609239)
(0.101158 0 -0.901701)
(0.265406 0 -0.204526)
(0.191101 0 -0.457292)
(0.340505 0 0.0942277)
(0.274607 0 -0.0854141)
(0.3894 0 0.267734)
(0.336935 0 0.167624)
(0.414194 0 0.335859)
(0.37385 0 0.298664)
(0.422471 0 0.337001)
(0.390333 0 0.337861)
(0.422137 0 0.307012)
(0.394391 0 0.324728)
(0.418637 0 0.269063)
(0.392753 0 0.290751)
(0.414656 0 0.233744)
(0.389415 0 0.253899)
(0.411035 0 0.203682)
(0.386062 0 0.221172)
(0.407779 0 0.178079)
(0.383072 0 0.193524)
(0.404685 0 0.155434)
(0.380323 0 0.169722)
(0.401593 0 0.13461)
(0.377628 0 0.148365)
(0.398438 0 0.114991)
(0.37487 0 0.128518)
(0.395219 0 0.0963237)
(0.372023 0 0.10972)
(0.391958 0 0.0785809)
(0.369099 0 0.0918037)
(0.388645 0 0.0623518)
(0.366135 0 0.0748853)
(0.361665 0 0.060244)
(-0.215973 0 0.160025)
(-0.205821 0 0.153429)
(-0.226878 0 0.181988)
(-0.215719 0 0.173158)
(-0.237977 0 0.208568)
(-0.225768 0 0.197439)
(-0.248763 0 0.23914)
(-0.235717 0 0.226125)
(-0.25817 0 0.27202)
(-0.244777 0 0.257815)
(-0.265119 0 0.308078)
(-0.251439 0 0.290394)
(-0.270658 0 0.358212)
(-0.255124 0 0.328442)
(-0.275797 0 0.428158)
(-0.258711 0 0.389553)
(-0.264848 0 0.447207)
(-0.259607 0 0.461761)
(-0.196122 0 0.22475)
(-0.231503 0 0.402386)
(-0.0522357 0 -0.38361)
(-0.132018 0 -0.0257138)
(0.0805103 0 -1.21458)
(0.0753996 0 -0.829739)
(0.0651648 0 -1.73467)
(0.116454 0 -1.63422)
(0.0104254 0 -1.87557)
(0.0378309 0 -1.80762)
(-0.0217754 0 -1.93563)
(-0.00893316 0 -1.90902)
(-0.0364507 0 -1.95989)
(-0.03367 0 -1.94561)
(-0.0355146 0 -1.97825)
(-0.0362257 0 -1.97057)
(-0.0266902 0 -1.99023)
(-0.029504 0 -1.98956)
(-0.0175044 0 -1.99442)
(-0.0203116 0 -1.99674)
(-0.0115014 0 -1.99607)
(-0.0133826 0 -1.99671)
(-0.0085052 0 -1.99933)
(-0.0104763 0 -1.99771)
(-0.00583467 0 -2.00452)
(-0.00921584 0 -2.00224)
(-0.00289367 0 -2.0088)
(-0.00764697 0 -2.00788)
(0.000346297 0 -2.00782)
(-0.00622812 0 -2.01073)
(0.00431721 0 -1.99655)
(-0.00553412 0 -2.00623)
(0.00856055 0 -1.97264)
(-0.00416705 0 -1.98935)
(0.0100057 0 -1.93873)
(-0.00145537 0 -1.95849)
(0.00510097 0 -1.89583)
(-0.00106165 0 -1.91727)
(-0.00735573 0 -1.83539)
(-0.00809559 0 -1.86384)
(-0.0244867 0 -1.70951)
(-0.0205356 0 -1.78777)
(0.000768763 0 -1.49356)
(-0.0303136 0 -1.66099)
(0.0519501 0 -1.15962)
(0.00814217 0 -1.40638)
(0.121832 0 -0.735978)
(0.0688307 0 -1.00289)
(0.201687 0 -0.328854)
(0.139013 0 -0.578576)
(0.271018 0 -0.00558718)
(0.212417 0 -0.195872)
(0.320461 0 0.202065)
(0.271519 0 0.0849941)
(0.34914 0 0.301975)
(0.309925 0 0.24839)
(0.361792 0 0.32561)
(0.329961 0 0.314596)
(0.364841 0 0.307943)
(0.337492 0 0.318846)
(0.363502 0 0.274943)
(0.33833 0 0.293461)
(0.360826 0 0.240729)
(0.336505 0 0.259578)
(0.358093 0 0.210488)
(0.334079 0 0.227258)
(0.355587 0 0.184691)
(0.331762 0 0.199375)
(0.35322 0 0.162204)
(0.32962 0 0.175522)
(0.350849 0 0.141837)
(0.327531 0 0.154456)
(0.348393 0 0.12282)
(0.325383 0 0.135141)
(0.345827 0 0.104782)
(0.323131 0 0.116974)
(0.34316 0 0.0877)
(0.320778 0 0.0997159)
(0.34037 0 0.0724149)
(0.3183 0 0.083564)
(0.314509 0 0.0701819)
(-0.205675 0 0.166597)
(-0.196324 0 0.159434)
(-0.214823 0 0.188663)
(-0.204692 0 0.179256)
(-0.223793 0 0.215055)
(-0.212923 0 0.20342)
(-0.231977 0 0.244888)
(-0.220667 0 0.231581)
(-0.238276 0 0.276358)
(-0.227063 0 0.262015)
(-0.241854 0 0.311036)
(-0.230698 0 0.292779)
(-0.243839 0 0.360152)
(-0.231369 0 0.329765)
(-0.243848 0 0.423632)
(-0.231869 0 0.389559)
(-0.225632 0 0.41798)
(-0.227876 0 0.449616)
(-0.154902 0 0.153744)
(-0.192044 0 0.355233)
(-0.0196264 0 -0.473072)
(-0.0910701 0 -0.115898)
(0.106757 0 -1.24602)
(0.0705277 0 -0.913995)
(0.114719 0 -1.70008)
(0.186544 0 -1.63953)
(0.0165911 0 -1.84115)
(0.0690171 0 -1.7422)
(-0.0204186 0 -1.92067)
(0.00118749 0 -1.88435)
(-0.0329319 0 -1.95665)
(-0.0213249 0 -1.93726)
(-0.0308584 0 -1.9823)
(-0.023984 0 -1.97195)
(-0.0234346 0 -1.99637)
(-0.0207601 0 -1.99451)
(-0.016061 0 -1.99918)
(-0.0157074 0 -2.00166)
(-0.0120448 0 -1.99852)
(-0.0113944 0 -1.99939)
(-0.0112572 0 -2.00075)
(-0.0107941 0 -1.99836)
(-0.0110786 0 -2.00577)
(-0.0122369 0 -2.00239)
(-0.0110614 0 -2.01)
(-0.0132076 0 -2.0079)
(-0.0121056 0 -2.00932)
(-0.0144344 0 -2.00975)
(-0.0136567 0 -1.9992)
(-0.0187388 0 -2.0047)
(-0.0135993 0 -1.9756)
(-0.0250938 0 -1.98941)
(-0.0124647 0 -1.93805)
(-0.0287341 0 -1.95972)
(-0.0142343 0 -1.88639)
(-0.0282965 0 -1.91525)
(-0.0231602 0 -1.81614)
(-0.0275577 0 -1.85316)
(-0.0418196 0 -1.73419)
(-0.0333986 0 -1.76436)
(-0.00756923 0 -1.56071)
(-0.0355184 0 -1.70606)
(0.0288516 0 -1.23645)
(-0.0022172 0 -1.45665)
(0.0865856 0 -0.835884)
(0.0452532 0 -1.08648)
(0.152411 0 -0.436064)
(0.101478 0 -0.678554)
(0.21344 0 -0.0981862)
(0.163168 0 -0.293103)
(0.260121 0 0.135592)
(0.215961 0 0.00698131)
(0.289862 0 0.262904)
(0.252856 0 0.196253)
(0.30513 0 0.30818)
(0.274249 0 0.28652)
(0.310744 0 0.303967)
(0.283997 0 0.308018)
(0.311262 0 0.277484)
(0.28676 0 0.292413)
(0.309748 0 0.245531)
(0.286244 0 0.26279)
(0.307742 0 0.215674)
(0.284629 0 0.231724)
(0.305773 0 0.189826)
(0.282853 0 0.203973)
(0.303893 0 0.167447)
(0.281156 0 0.180126)
(0.302016 0 0.147452)
(0.279505 0 0.159278)
(0.300065 0 0.128988)
(0.277814 0 0.1404)
(0.298007 0 0.111594)
(0.27604 0 0.122794)
(0.295835 0 0.0952646)
(0.274185 0 0.106158)
(0.293516 0 0.0810608)
(0.27217 0 0.0907781)
(0.268979 0 0.0785791)
(-0.195449 0 0.172129)
(-0.186901 0 0.164526)
(-0.202963 0 0.194076)
(-0.193846 0 0.184264)
(-0.210006 0 0.220035)
(-0.200419 0 0.208115)
(-0.215921 0 0.248838)
(-0.20621 0 0.235525)
(-0.219625 0 0.27864)
(-0.210331 0 0.264483)
(-0.220526 0 0.311812)
(-0.211529 0 0.29338)
(-0.219837 0 0.359571)
(-0.209935 0 0.329306)
(-0.216165 0 0.415941)
(-0.208094 0 0.387111)
(-0.193165 0 0.387197)
(-0.20067 0 0.434283)
(-0.123066 0 0.086296)
(-0.161321 0 0.3085)
(0.00100094 0 -0.55551)
(-0.0628398 0 -0.198609)
(0.122634 0 -1.30509)
(0.0629585 0 -0.995083)
(0.186185 0 -1.68334)
(0.204638 0 -1.68189)
(0.0551482 0 -1.78916)
(0.118972 0 -1.65484)
(0.000996939 0 -1.90273)
(0.0377009 0 -1.84825)
(-0.0129658 0 -1.95468)
(0.0163659 0 -1.92795)
(-0.0145042 0 -1.98533)
(0.00513467 0 -1.97093)
(-0.0133407 0 -2.00038)
(-0.00228552 0 -1.99529)
(-0.0108575 0 -2.00208)
(-0.00597776 0 -2.00331)
(-0.00998412 0 -1.99914)
(-0.00617023 0 -1.99997)
(-0.0118661 0 -2.00004)
(-0.0083767 0 -1.99682)
(-0.0144307 0 -2.00452)
(-0.0130006 0 -2.0002)
(-0.0167665 0 -2.00742)
(-0.0165333 0 -2.0058)
(-0.0213209 0 -2.00445)
(-0.0185011 0 -2.00546)
(-0.0300202 0 -1.99355)
(-0.0247492 0 -1.9961)
(-0.0392021 0 -1.97147)
(-0.0382953 0 -1.97989)
(-0.0437843 0 -1.93401)
(-0.0507788 0 -1.95474)
(-0.0439337 0 -1.8788)
(-0.0520757 0 -1.91508)
(-0.0383292 0 -1.80249)
(-0.0409935 0 -1.85986)
(-0.0368236 0 -1.74219)
(-0.0265518 0 -1.76625)
(-0.0196233 0 -1.60205)
(-0.00544465 0 -1.7287)
(0.0149621 0 -1.29987)
(-0.0022416 0 -1.50439)
(0.0630253 0 -0.918626)
(0.0329312 0 -1.15607)
(0.115293 0 -0.525578)
(0.0757944 0 -0.757939)
(0.166373 0 -0.180158)
(0.124524 0 -0.374484)
(0.207978 0 0.0726138)
(0.169116 0 -0.0625484)
(0.236392 0 0.222383)
(0.202377 0 0.146442)
(0.252527 0 0.287127)
(0.223234 0 0.256851)
(0.259703 0 0.296284)
(0.233921 0 0.294176)
(0.261622 0 0.277162)
(0.237939 0 0.288531)
(0.261093 0 0.248362)
(0.238443 0 0.263913)
(0.259729 0 0.219456)
(0.237511 0 0.234761)
(0.258218 0 0.193778)
(0.236181 0 0.207502)
(0.256737 0 0.171513)
(0.234817 0 0.183755)
(0.255262 0 0.151805)
(0.23346 0 0.163068)
(0.253738 0 0.133783)
(0.232047 0 0.144508)
(0.252136 0 0.116902)
(0.230515 0 0.127323)
(0.250452 0 0.101135)
(0.228867 0 0.111154)
(0.248627 0 0.087715)
(0.227251 0 0.0964558)
(0.224683 0 0.0859244)
(-0.185403 0 0.176697)
(-0.177642 0 0.168773)
(-0.191434 0 0.198356)
(-0.183287 0 0.188285)
(-0.196765 0 0.223686)
(-0.188375 0 0.211669)
(-0.200718 0 0.251286)
(-0.19246 0 0.23816)
(-0.20229 0 0.279379)
(-0.19467 0 0.265531)
(-0.201141 0 0.311093)
(-0.193957 0 0.292613)
(-0.198482 0 0.357192)
(-0.190739 0 0.327534)
(-0.192199 0 0.405959)
(-0.187185 0 0.382922)
(-0.166554 0 0.35606)
(-0.177297 0 0.417187)
(-0.0992196 0 0.0254405)
(-0.137724 0 0.26361)
(0.0046016 0 -0.631588)
(-0.0506654 0 -0.267823)
(0.119038 0 -1.36366)
(0.0536879 0 -1.07137)
(0.162336 0 -1.66707)
(0.13434 0 -1.71076)
(0.110961 0 -1.73142)
(0.139807 0 -1.62059)
(0.0569431 0 -1.87527)
(0.0897664 0 -1.81223)
(0.0317278 0 -1.94579)
(0.0710328 0 -1.91114)
(0.0167205 0 -1.98124)
(0.0467943 0 -1.96092)
(0.00488503 0 -1.99824)
(0.0235048 0 -1.9874)
(-0.00111704 0 -2.00113)
(0.00819727 0 -1.99931)
(-0.00462837 0 -1.99722)
(0.00252946 0 -1.99763)
(-0.00959375 0 -1.99694)
(-0.00270179 0 -1.99277)
(-0.0151353 0 -2.00141)
(-0.010787 0 -1.99545)
(-0.0185211 0 -2.00336)
(-0.0172663 0 -2.00276)
(-0.0223544 0 -1.99593)
(-0.0184231 0 -2.00185)
(-0.0329296 0 -1.98035)
(-0.0208925 0 -1.98566)
(-0.0485417 0 -1.9597)
(-0.0335435 0 -1.96372)
(-0.0587194 0 -1.93081)
(-0.0475539 0 -1.94368)
(-0.053462 0 -1.88793)
(-0.0476179 0 -1.92108)
(-0.0277066 0 -1.8166)
(-0.0305247 0 -1.89066)
(0.00919936 0 -1.75171)
(-0.0115604 0 -1.81255)
(0.0092258 0 -1.62395)
(0.0237277 0 -1.72873)
(0.0201758 0 -1.34846)
(0.00696607 0 -1.51951)
(0.0488832 0 -0.983729)
(0.027092 0 -1.19764)
(0.0876958 0 -0.597315)
(0.0573639 0 -0.816888)
(0.128027 0 -0.249138)
(0.0935612 0 -0.438739)
(0.162987 0 0.0164902)
(0.129203 0 -0.120974)
(0.188415 0 0.183714)
(0.157524 0 0.101865)
(0.203989 0 0.264916)
(0.176482 0 0.228214)
(0.211783 0 0.286381)
(0.187062 0 0.279141)
(0.214595 0 0.274767)
(0.191705 0 0.28284)
(0.214809 0 0.249679)
(0.192921 0 0.263459)
(0.21395 0 0.222218)
(0.192543 0 0.236673)
(0.21277 0 0.196984)
(0.191598 0 0.210257)
(0.211524 0 0.174921)
(0.190522 0 0.186807)
(0.210228 0 0.155503)
(0.189424 0 0.166397)
(0.208817 0 0.137944)
(0.188277 0 0.14831)
(0.207208 0 0.121734)
(0.187004 0 0.131874)
(0.205321 0 0.10706)
(0.185607 0 0.116751)
(0.2033 0 0.0958387)
(0.184732 0 0.102743)
(0.184593 0 0.0848326)
(-0.175618 0 0.180396)
(-0.168617 0 0.172247)
(-0.180326 0 0.201644)
(-0.173092 0 0.191424)
(-0.184161 0 0.226211)
(-0.17687 0 0.214226)
(-0.186452 0 0.252503)
(-0.179491 0 0.239688)
(-0.186314 0 0.278901)
(-0.180124 0 0.265439)
(-0.183642 0 0.309238)
(-0.177942 0 0.290832)
(-0.179569 0 0.353535)
(-0.17359 0 0.324818)
(-0.171554 0 0.39465)
(-0.16885 0 0.377578)
(-0.145453 0 0.325622)
(-0.15731 0 0.399786)
(-0.0848262 0 -0.0279463)
(-0.119318 0 0.223192)
(-0.00403899 0 -0.702346)
(-0.0481482 0 -0.321682)
(0.0830107 0 -1.41635)
(0.0449677 0 -1.12941)
(0.0853439 0 -1.68434)
(0.054386 0 -1.71232)
(0.138273 0 -1.71406)
(0.0936165 0 -1.65587)
(0.112903 0 -1.84117)
(0.108928 0 -1.79532)
(0.0821614 0 -1.924)
(0.103852 0 -1.89065)
(0.0524126 0 -1.96579)
(0.0794651 0 -1.94109)
(0.0266964 0 -1.98766)
(0.046911 0 -1.97025)
(0.0120493 0 -1.99535)
(0.0236446 0 -1.98955)
(0.00408568 0 -1.99239)
(0.0139807 0 -1.99232)
(-0.00400896 0 -1.99114)
(0.00607361 0 -1.98617)
(-0.0129622 0 -1.99686)
(-0.00512914 0 -1.98779)
(-0.0175376 0 -2.00139)
(-0.015169 0 -1.99865)
(-0.0173746 0 -1.99185)
(-0.0169767 0 -2.002)
(-0.0212066 0 -1.96937)
(-0.0149288 0 -1.98187)
(-0.0321894 0 -1.94857)
(-0.0205722 0 -1.95234)
(-0.0370072 0 -1.93478)
(-0.028071 0 -1.93845)
(-0.0249024 0 -1.91689)
(-0.0238716 0 -1.93488)
(-0.0160793 0 -1.86999)
(-0.00623217 0 -1.90122)
(0.0105946 0 -1.78325)
(-0.0107369 0 -1.84601)
(0.0147828 0 -1.62743)
(0.0185987 0 -1.73424)
(0.0193643 0 -1.36816)
(0.0150491 0 -1.52583)
(0.0382712 0 -1.025)
(0.0215267 0 -1.22501)
(0.0654432 0 -0.650262)
(0.0410632 0 -0.858158)
(0.0955547 0 -0.303501)
(0.0667583 0 -0.486712)
(0.123343 0 -0.0305389)
(0.093816 0 -0.167414)
(0.144842 0 0.149241)
(0.116711 0 0.0641763)
(0.158899 0 0.243572)
(0.133018 0 0.202365)
(0.166571 0 0.275631)
(0.142802 0 0.264344)
(0.169833 0 0.271023)
(0.147595 0 0.276241)
(0.170584 0 0.249769)
(0.149276 0 0.261866)
(0.17017 0 0.22403)
(0.149363 0 0.237593)
(0.16934 0 0.199445)
(0.1488 0 0.212197)
(0.168405 0 0.177671)
(0.148048 0 0.189096)
(0.16745 0 0.158552)
(0.147273 0 0.168853)
(0.166466 0 0.141451)
(0.146498 0 0.15096)
(0.16544 0 0.125834)
(0.145674 0 0.134776)
(0.164443 0 0.110964)
(0.144761 0 0.119708)
(0.164139 0 0.0896141)
(0.144477 0 0.103687)
(0.146746 0 0.070977)
(-0.166164 0 0.183311)
(-0.159883 0 0.175021)
(-0.169704 0 0.204054)
(-0.163316 0 0.193784)
(-0.17225 0 0.227768)
(-0.165954 0 0.215924)
(-0.173158 0 0.252712)
(-0.167336 0 0.240293)
(-0.171674 0 0.277486)
(-0.166689 0 0.264449)
(-0.167893 0 0.306559)
(-0.163394 0 0.288311)
(-0.162837 0 0.349038)
(-0.158243 0 0.321448)
(-0.153704 0 0.382979)
(-0.152627 0 0.37149)
(-0.128466 0 0.297816)
(-0.139946 0 0.38296)
(-0.076072 0 -0.0716192)
(-0.103626 0 0.188263)
(-0.00784544 0 -0.752309)
(-0.0469878 0 -0.367166)
(0.0475272 0 -1.43618)
(0.0376076 0 -1.16632)
(0.045223 0 -1.67646)
(0.00781419 0 -1.71078)
(0.0628854 0 -1.70801)
(0.0469239 0 -1.66765)
(0.100642 0 -1.82963)
(0.0767571 0 -1.82049)
(0.100908 0 -1.90507)
(0.0934461 0 -1.89083)
(0.0727339 0 -1.94481)
(0.0865963 0 -1.92231)
(0.0435649 0 -1.97214)
(0.0601209 0 -1.95081)
(0.0259332 0 -1.98667)
(0.0378499 0 -1.97779)
(0.0152775 0 -1.98537)
(0.0264129 0 -1.98522)
(0.00477511 0 -1.98261)
(0.0165008 0 -1.9776)
(-0.00736065 0 -1.98985)
(0.00435698 0 -1.9774)
(-0.0152817 0 -2.00023)
(-0.00707314 0 -1.99154)
(-0.0150965 0 -1.99347)
(-0.0117674 0 -2.00218)
(-0.0133257 0 -1.96569)
(-0.0140355 0 -1.98362)
(-0.0171305 0 -1.94216)
(-0.018385 0 -1.94839)
(-0.0156164 0 -1.93708)
(-0.0175534 0 -1.94009)
(0.00146228 0 -1.9198)
(-0.00911355 0 -1.95435)
(-0.00974847 0 -1.88463)
(-0.0192292 0 -1.88781)
(0.00141068 0 -1.80416)
(-0.0382402 0 -1.86001)
(0.0186714 0 -1.6335)
(-0.0138735 0 -1.75696)
(0.0193126 0 -1.37819)
(0.00896952 0 -1.52672)
(0.0266267 0 -1.05105)
(0.0147644 0 -1.23561)
(0.0443714 0 -0.687326)
(0.0242985 0 -0.885109)
(0.0657505 0 -0.34398)
(0.0412151 0 -0.520773)
(0.0868313 0 -0.067781)
(0.0607459 0 -0.202644)
(0.104181 0 0.120211)
(0.0783754 0 0.033762)
(0.116276 0 0.224357)
(0.0917606 0 0.180123)
(0.123402 0 0.265053)
(0.100383 0 0.250598)
(0.126825 0 0.266597)
(0.10504 0 0.269316)
(0.127972 0 0.248988)
(0.107023 0 0.259431)
(0.127965 0 0.22504)
(0.107513 0 0.237608)
(0.127494 0 0.201178)
(0.107318 0 0.213298)
(0.126893 0 0.179664)
(0.106881 0 0.190568)
(0.12628 0 0.160692)
(0.106389 0 0.170429)
(0.125675 0 0.143757)
(0.105898 0 0.152591)
(0.125088 0 0.128173)
(0.105396 0 0.136436)
(0.124667 0 0.112007)
(0.104831 0 0.120957)
(0.125052 0 0.084526)
(0.104689 0 0.10249)
(0.10721 0 0.0630937)
(-0.157091 0 0.18553)
(-0.151484 0 0.177173)
(-0.15961 0 0.2057)
(-0.154 0 0.195463)
(-0.161059 0 0.228509)
(-0.155655 0 0.21689)
(-0.160831 0 0.252106)
(-0.156002 0 0.240141)
(-0.1583 0 0.275363)
(-0.15433 0 0.262762)
(-0.15371 0 0.303295)
(-0.150202 0 0.285251)
(-0.147932 0 0.343966)
(-0.144475 0 0.317596)
(-0.137865 0 0.371416)
(-0.138064 0 0.364779)
(-0.113348 0 0.273128)
(-0.124394 0 0.366616)
(-0.0674482 0 -0.10836)
(-0.0885485 0 0.157663)
(-0.0111236 0 -0.785708)
(-0.0382713 0 -0.404716)
(0.0181173 0 -1.44677)
(0.0313856 0 -1.18582)
(0.00908958 0 -1.69722)
(-0.0178218 0 -1.70476)
(0.0602552 0 -1.76359)
(0.0349072 0 -1.70176)
(0.0545247 0 -1.86479)
(0.0467124 0 -1.81667)
(0.0820711 0 -1.89977)
(0.0559857 0 -1.90919)
(0.072984 0 -1.92761)
(0.0775145 0 -1.91625)
(0.0538079 0 -1.95731)
(0.0687679 0 -1.93802)
(0.0390176 0 -1.97713)
(0.051061 0 -1.96793)
(0.0267569 0 -1.97687)
(0.0359162 0 -1.97704)
(0.0159797 0 -1.97244)
(0.0255001 0 -1.9688)
(0.0048553 0 -1.9797)
(0.0189073 0 -1.96788)
(-0.00474415 0 -1.99347)
(0.014753 0 -1.98293)
(-0.0111293 0 -1.98953)
(0.0089875 0 -1.99617)
(-0.0175745 0 -1.96235)
(-0.00703232 0 -1.97726)
(-0.0208045 0 -1.94329)
(-0.0226045 0 -1.94505)
(-0.00864809 0 -1.94562)
(-0.0368334 0 -1.9533)
(-0.0307567 0 -1.91098)
(-0.0164998 0 -1.92914)
(-0.0502963 0 -1.86578)
(-0.0326375 0 -1.86444)
(-0.0569419 0 -1.81547)
(-0.0366533 0 -1.85167)
(-0.0209101 0 -1.6533)
(-0.0309787 0 -1.80437)
(0.00671387 0 -1.38535)
(-0.0074289 0 -1.56485)
(0.0134286 0 -1.06362)
(0.00575914 0 -1.24533)
(0.0227052 0 -0.710773)
(0.00735181 0 -0.899199)
(0.0368317 0 -0.372662)
(0.0161951 0 -0.54328)
(0.051924 0 -0.0959804)
(0.0288506 0 -0.227867)
(0.0652609 0 0.0968047)
(0.0414955 0 0.0103819)
(0.075235 0 0.207783)
(0.0519215 0 0.161781)
(0.0816024 0 0.255114)
(0.0592181 0 0.238316)
(0.0850248 0 0.261773)
(0.0635793 0 0.262391)
(0.086481 0 0.247432)
(0.0657651 0 0.25634)
(0.0868431 0 0.225226)
(0.066613 0 0.236802)
(0.0867013 0 0.202128)
(0.0667702 0 0.213628)
(0.0863733 0 0.180885)
(0.0666282 0 0.191371)
(0.0859902 0 0.162001)
(0.0663761 0 0.171412)
(0.0855905 0 0.145074)
(0.06609 0 0.153668)
(0.0852221 0 0.129158)
(0.0658036 0 0.137477)
(0.0851157 0 0.111418)
(0.0655595 0 0.121272)
(0.0858266 0 0.0804596)
(0.0657969 0 0.100278)
(0.0683653 0 0.057322)
(-0.148432 0 0.187138)
(-0.143449 0 0.178773)
(-0.150069 0 0.206693)
(-0.145166 0 0.196554)
(-0.150594 0 0.228572)
(-0.145984 0 0.21724)
(-0.149445 0 0.250855)
(-0.145477 0 0.239375)
(-0.146112 0 0.27271)
(-0.142998 0 0.26054)
(-0.140925 0 0.299598)
(-0.138267 0 0.281793)
(-0.134552 0 0.338405)
(-0.132155 0 0.313348)
(-0.123572 0 0.359757)
(-0.125007 0 0.357459)
(-0.098585 0 0.250455)
(-0.110329 0 0.349958)
(-0.0551901 0 -0.140667)
(-0.0739386 0 0.128733)
(-0.00085057 0 -0.808125)
(-0.0210076 0 -0.440942)
(0.00345412 0 -1.44867)
(0.0309747 0 -1.18869)
(-0.00115833 0 -1.71588)
(-0.0147952 0 -1.70169)
(0.047103 0 -1.77203)
(0.0248925 0 -1.73393)
(0.0454311 0 -1.86643)
(0.047613 0 -1.81556)
(0.0411048 0 -1.91617)
(0.0391662 0 -1.90631)
(0.0751851 0 -1.92346)
(0.0804924 0 -1.93897)
(0.0648987 0 -1.94509)
(0.0800377 0 -1.93117)
(0.0489075 0 -1.96558)
(0.0616029 0 -1.95727)
(0.03413 0 -1.96747)
(0.0382669 0 -1.96719)
(0.0286923 0 -1.96429)
(0.030991 0 -1.96437)
(0.0286889 0 -1.9708)
(0.0392497 0 -1.96788)
(0.0265374 0 -1.98232)
(0.0508172 0 -1.98099)
(0.0135995 0 -1.9773)
(0.0468366 0 -1.98398)
(-0.0129068 0 -1.95539)
(0.0211443 0 -1.95107)
(-0.0567831 0 -1.95628)
(-0.00142985 0 -1.89958)
(-0.027758 0 -1.94955)
(-0.0175436 0 -1.98485)
(-0.0233093 0 -1.89709)
(-0.0161843 0 -1.93421)
(-0.0146128 0 -1.8592)
(-0.00845518 0 -1.87484)
(-0.0131814 0 -1.82992)
(0.00627218 0 -1.85347)
(-0.0220766 0 -1.69095)
(-0.00706203 0 -1.79266)
(-0.003602 0 -1.4105)
(-0.00602172 0 -1.59035)
(-6.25755e-05 0 -1.07158)
(0.0013039 0 -1.25045)
(0.00187595 0 -0.723034)
(-0.0087928 0 -0.902143)
(0.00860306 0 -0.390942)
(-0.00840801 0 -0.553997)
(0.017973 0 -0.11597)
(-0.00248799 0 -0.243526)
(0.0274493 0 0.0787994)
(0.00548718 0 -0.00623021)
(0.0352677 0 0.193975)
(0.0130444 0 0.147405)
(0.0407898 0 0.246028)
(0.0190014 0 0.227665)
(0.0441151 0 0.256717)
(0.0230366 0 0.255663)
(0.0458213 0 0.245184)
(0.0253533 0 0.25272)
(0.0465275 0 0.224627)
(0.0265209 0 0.23523)
(0.0467059 0 0.202351)
(0.0270185 0 0.213212)
(0.0466425 0 0.181464)
(0.0271723 0 0.191527)
(0.0464779 0 0.162722)
(0.0271651 0 0.171836)
(0.0462839 0 0.145762)
(0.0270922 0 0.154192)
(0.0461759 0 0.129279)
(0.0270342 0 0.137783)
(0.0464766 0 0.109704)
(0.0271336 0 0.12038)
(0.0476597 0 0.0761735)
(0.0278695 0 0.0965972)
(0.030684 0 0.0516484)
(-0.140209 0 0.188218)
(-0.135799 0 0.179892)
(-0.141092 0 0.207135)
(-0.136825 0 0.197143)
(-0.140848 0 0.228081)
(-0.136939 0 0.217077)
(-0.138964 0 0.249102)
(-0.13574 0 0.238119)
(-0.135039 0 0.269665)
(-0.132647 0 0.257923)
(-0.129446 0 0.295566)
(-0.127514 0 0.278065)
(-0.122613 0 0.332389)
(-0.121236 0 0.308792)
(-0.110888 0 0.347552)
(-0.113648 0 0.349643)
(-0.0848037 0 0.227661)
(-0.0981537 0 0.332568)
(-0.0392793 0 -0.171935)
(-0.0612077 0 0.0983833)
(0.0117269 0 -0.823146)
(-0.00548007 0 -0.474946)
(0.0136117 0 -1.44373)
(0.0359046 0 -1.18994)
(0.006171 0 -1.72392)
(0.00618322 0 -1.69673)
(0.0441264 0 -1.78232)
(0.0188381 0 -1.75924)
(0.0451274 0 -1.8662)
(0.0528258 0 -1.81623)
(0.0589881 0 -1.93307)
(0.0506218 0 -1.91555)
(0.0953661 0 -1.93915)
(0.0738889 0 -1.96322)
(0.077549 0 -1.93858)
(0.0818686 0 -1.91929)
(0.0502198 0 -1.95443)
(0.0708399 0 -1.93905)
(0.0339558 0 -1.96168)
(0.0446102 0 -1.95635)
(0.0418776 0 -1.9654)
(0.0400819 0 -1.97083)
(0.0622466 0 -1.97382)
(0.0559064 0 -1.98531)
(0.0718727 0 -1.97866)
(0.0687985 0 -1.98964)
(0.0557949 0 -1.95794)
(0.0643474 0 -1.96884)
(0.0244457 0 -1.91462)
(0.0462242 0 -1.92011)
(0.0311402 0 -1.93986)
(0.0332044 0 -1.90652)
(0.00488316 0 -1.95904)
(0.0262867 0 -1.95631)
(-0.00100344 0 -1.90721)
(0.000676201 0 -1.9275)
(0.0108117 0 -1.8713)
(0.00408151 0 -1.88897)
(0.019059 0 -1.82427)
(0.00766507 0 -1.86381)
(0.00273022 0 -1.69218)
(-0.0153172 0 -1.77118)
(0.00367633 0 -1.41927)
(-0.0250942 0 -1.59165)
(-0.00960583 0 -1.06933)
(-0.0207415 0 -1.23122)
(-0.0182824 0 -0.723732)
(-0.0324433 0 -0.888965)
(-0.0195145 0 -0.398925)
(-0.0362095 0 -0.552034)
(-0.0155279 0 -0.128229)
(-0.0348302 0 -0.250188)
(-0.00955523 0 0.0658735)
(-0.0303353 0 -0.0167007)
(-0.00367481 0 0.182895)
(-0.0250644 0 0.136591)
(0.000926315 0 0.237917)
(-0.0202594 0 0.218789)
(0.00407951 0 0.251546)
(-0.0165641 0 0.249282)
(0.00598236 0 0.242312)
(-0.0141618 0 0.24868)
(0.00700621 0 0.223267)
(-0.0127182 0 0.23295)
(0.00750112 0 0.201857)
(-0.0119128 0 0.212056)
(0.00771325 0 0.181418)
(-0.0114863 0 0.191007)
(0.00778786 0 0.16287)
(-0.0112663 0 0.171644)
(0.00782929 0 0.145796)
(-0.0111364 0 0.154079)
(0.0080205 0 0.128427)
(-0.0109643 0 0.137242)
(0.00874578 0 0.106648)
(-0.0105345 0 0.118229)
(0.010351 0 0.0709439)
(-0.00940575 0 0.0916031)
(-0.0065354 0 0.0458597)
(-0.132431 0 0.188842)
(-0.128542 0 0.180593)
(-0.132675 0 0.207113)
(-0.128979 0 0.197305)
(-0.131801 0 0.227145)
(-0.128506 0 0.216494)
(-0.129348 0 0.246971)
(-0.126756 0 0.236484)
(-0.125021 0 0.266355)
(-0.123222 0 0.255038)
(-0.119243 0 0.291318)
(-0.117883 0 0.274213)
(-0.112231 0 0.326062)
(-0.111687 0 0.304117)
(-0.10023 0 0.334762)
(-0.104194 0 0.341642)
(-0.0738323 0 0.203602)
(-0.0886562 0 0.314969)
(-0.0273457 0 -0.203423)
(-0.0525342 0 0.0673922)
(0.0194169 0 -0.840003)
(-0.00171771 0 -0.506121)
(0.0321028 0 -1.44008)
(0.0331401 0 -1.1984)
(0.0137084 0 -1.72836)
(0.0146274 0 -1.68446)
(0.037787 0 -1.79237)
(0.00975504 0 -1.77529)
(0.0536935 0 -1.86934)
(0.0491708 0 -1.82683)
(0.0581866 0 -1.95297)
(0.0612638 0 -1.91854)
(0.0649496 0 -1.95426)
(0.0576613 0 -1.96773)
(0.0783182 0 -1.92817)
(0.0708781 0 -1.9282)
(0.0639379 0 -1.94218)
(0.0765403 0 -1.92947)
(0.0490973 0 -1.96395)
(0.0625029 0 -1.94646)
(0.0541207 0 -1.9843)
(0.0594119 0 -1.97493)
(0.0638761 0 -1.99325)
(0.0659481 0 -1.99366)
(0.0637027 0 -1.97934)
(0.0659984 0 -1.98948)
(0.0553779 0 -1.93558)
(0.0592394 0 -1.961)
(0.0470054 0 -1.90022)
(0.054234 0 -1.91184)
(0.0416729 0 -1.92036)
(0.0527625 0 -1.901)
(0.0165908 0 -1.93392)
(0.0381464 0 -1.92905)
(0.00466414 0 -1.9061)
(0.0143444 0 -1.9139)
(-0.00127224 0 -1.87121)
(0.00408932 0 -1.88187)
(-0.0215525 0 -1.80396)
(-0.0118313 0 -1.83837)
(-0.0463779 0 -1.67187)
(-0.0403974 0 -1.73851)
(-0.046662 0 -1.40704)
(-0.0615345 0 -1.59126)
(-0.045379 0 -1.05469)
(-0.0621183 0 -1.23308)
(-0.0494081 0 -0.714704)
(-0.0647844 0 -0.882846)
(-0.0516416 0 -0.398475)
(-0.0675289 0 -0.548476)
(-0.0501383 0 -0.134092)
(-0.0679629 0 -0.252701)
(-0.046415 0 0.0572534)
(-0.0656392 0 -0.0232275)
(-0.0420305 0 0.174213)
(-0.0620038 0 0.128529)
(-0.0380411 0 0.230716)
(-0.0581818 0 0.211094)
(-0.0349917 0 0.24632)
(-0.0549178 0 0.243112)
(-0.0329227 0 0.238905)
(-0.0525318 0 0.24429)
(-0.0316352 0 0.221223)
(-0.0509267 0 0.230083)
(-0.0308771 0 0.200698)
(-0.0499191 0 0.210285)
(-0.03044 0 0.180775)
(-0.0493092 0 0.189936)
(-0.0301758 0 0.162448)
(-0.0489363 0 0.170965)
(-0.0299435 0 0.145153)
(-0.0486566 0 0.153453)
(-0.0294995 0 0.12664)
(-0.0482697 0 0.135987)
(-0.0284607 0 0.102622)
(-0.0475112 0 0.115148)
(-0.0266926 0 0.0655127)
(-0.046094 0 0.0861019)
(-0.0433735 0 0.0407517)
(-0.125098 0 0.189078)
(-0.12168 0 0.180935)
(-0.124806 0 0.20671)
(-0.121617 0 0.197111)
(-0.123425 0 0.225858)
(-0.120663 0 0.215573)
(-0.120549 0 0.244574)
(-0.118481 0 0.234567)
(-0.115992 0 0.262919)
(-0.114652 0 0.252)
(-0.110265 0 0.287044)
(-0.109288 0 0.270395)
(-0.103493 0 0.319745)
(-0.103404 0 0.299602)
(-0.0919606 0 0.322015)
(-0.0965085 0 0.333954)
(-0.0669304 0 0.179483)
(-0.0819066 0 0.298283)
(-0.0248216 0 -0.233283)
(-0.0486912 0 0.0393194)
(0.00870466 0 -0.861636)
(-0.00838758 0 -0.528471)
(0.0243507 0 -1.44166)
(0.0222266 0 -1.20883)
(0.00559329 0 -1.73051)
(0.0103355 0 -1.67196)
(0.0254246 0 -1.80893)
(0.004562 0 -1.78851)
(0.0569741 0 -1.87747)
(0.0469235 0 -1.84786)
(0.0617364 0 -1.9445)
(0.0672746 0 -1.92172)
(0.0581116 0 -1.94826)
(0.057857 0 -1.96532)
(0.0724929 0 -1.92509)
(0.061022 0 -1.93779)
(0.0744255 0 -1.93327)
(0.0747644 0 -1.93076)
(0.0730914 0 -1.96352)
(0.0768449 0 -1.94557)
(0.0712047 0 -1.99263)
(0.0765795 0 -1.97339)
(0.067692 0 -1.99883)
(0.0729128 0 -1.99066)
(0.0627764 0 -1.97292)
(0.0648483 0 -1.98507)
(0.0565587 0 -1.92899)
(0.0569097 0 -1.95515)
(0.0579278 0 -1.90166)
(0.0571191 0 -1.91319)
(0.0550984 0 -1.90619)
(0.0607778 0 -1.89806)
(0.0320777 0 -1.90873)
(0.0498289 0 -1.90403)
(0.0125511 0 -1.88759)
(0.0282286 0 -1.89164)
(-0.00586838 0 -1.84732)
(0.00868286 0 -1.85984)
(-0.0318311 0 -1.77257)
(-0.0141785 0 -1.8058)
(-0.0550455 0 -1.64911)
(-0.0420272 0 -1.70796)
(-0.0780502 0 -1.39881)
(-0.0749083 0 -1.55951)
(-0.0801556 0 -1.04949)
(-0.0919983 0 -1.23003)
(-0.0819192 0 -0.7084)
(-0.0920828 0 -0.880167)
(-0.0839002 0 -0.395963)
(-0.0953757 0 -0.54532)
(-0.0838673 0 -0.136552)
(-0.0979938 0 -0.252756)
(-0.0817941 0 0.0515708)
(-0.0981331 0 -0.0268622)
(-0.0786428 0 0.167376)
(-0.0964533 0 0.122734)
(-0.07539 0 0.224303)
(-0.093947 0 0.20482)
(-0.072634 0 0.24116)
(-0.0914305 0 0.237536)
(-0.0705888 0 0.235174)
(-0.0893671 0 0.239949)
(-0.0692063 0 0.218713)
(-0.0878654 0 0.227005)
(-0.0683265 0 0.199074)
(-0.0868688 0 0.208231)
(-0.0677775 0 0.179705)
(-0.0862428 0 0.188591)
(-0.0674005 0 0.161575)
(-0.0858433 0 0.169996)
(-0.0670021 0 0.14388)
(-0.085497 0 0.15238)
(-0.0662839 0 0.123984)
(-0.0849433 0 0.133956)
(-0.0649233 0 0.0978718)
(-0.0838995 0 0.111113)
(-0.0630294 0 0.0601478)
(-0.0821685 0 0.08021)
(-0.0793406 0 0.0362599)
(-0.118203 0 0.188986)
(-0.115211 0 0.180971)
(-0.117465 0 0.205993)
(-0.114726 0 0.196618)
(-0.11568 0 0.224302)
(-0.113377 0 0.214383)
(-0.112503 0 0.24201)
(-0.11086 0 0.232449)
(-0.10786 0 0.259488)
(-0.106847 0 0.248904)
(-0.102376 0 0.282969)
(-0.101591 0 0.266739)
(-0.0961953 0 0.313842)
(-0.0961495 0 0.295482)
(-0.0857219 0 0.310291)
(-0.0900099 0 0.326971)
(-0.0634463 0 0.158303)
(-0.0765218 0 0.283432)
(-0.0284938 0 -0.257126)
(-0.0454709 0 0.0160176)
(0.00102591 0 -0.8786)
(-0.0107229 0 -0.548151)
(0.0165934 0 -1.44289)
(0.0210382 0 -1.21921)
(0.00600165 0 -1.73308)
(0.0126971 0 -1.6649)
(0.0292526 0 -1.82763)
(0.0108572 0 -1.80401)
(0.0575935 0 -1.89086)
(0.0470587 0 -1.86676)
(0.064601 0 -1.9422)
(0.0652655 0 -1.92639)
(0.05628 0 -1.95065)
(0.0560908 0 -1.95977)
(0.0660531 0 -1.93671)
(0.0531989 0 -1.9443)
(0.0762861 0 -1.93965)
(0.066014 0 -1.93758)
(0.0817705 0 -1.96103)
(0.0750605 0 -1.94922)
(0.0786219 0 -1.98049)
(0.0767582 0 -1.97082)
(0.0694328 0 -1.98377)
(0.0707195 0 -1.98279)
(0.0597587 0 -1.96561)
(0.0611949 0 -1.97638)
(0.0551552 0 -1.93307)
(0.0546467 0 -1.95081)
(0.0597042 0 -1.90606)
(0.0565889 0 -1.91768)
(0.0589414 0 -1.89567)
(0.0615372 0 -1.89727)
(0.0438102 0 -1.88642)
(0.0562477 0 -1.88758)
(0.0236336 0 -1.86188)
(0.0405589 0 -1.86864)
(0.000333649 0 -1.81615)
(0.0204227 0 -1.83198)
(-0.0273362 0 -1.73687)
(-0.00441666 0 -1.77109)
(-0.0566828 0 -1.60994)
(-0.0345173 0 -1.66934)
(-0.0947075 0 -1.37689)
(-0.0720584 0 -1.50702)
(-0.100585 0 -1.04685)
(-0.102128 0 -1.22152)
(-0.104596 0 -0.704909)
(-0.105739 0 -0.874075)
(-0.109467 0 -0.392611)
(-0.11411 0 -0.537559)
(-0.112637 0 -0.136232)
(-0.121502 0 -0.247459)
(-0.113357 0 0.0487323)
(-0.125788 0 -0.0255997)
(-0.112264 0 0.162681)
(-0.127256 0 0.120724)
(-0.110338 0 0.219189)
(-0.126915 0 0.201104)