/*--------------------------------*- C++ -*----------------------------------*\
  =========                 |
  \\      /  F ield         | OpenFOAM: The Open Source CFD Toolbox
   \\    /   O peration     | Website:  https://openfoam.org
    \\  /    A nd           | Version:  9
     \\/     M anipulation  |
\*---------------------------------------------------------------------------*/
FoamFile
{
    format      ascii;
    class       surfaceScalarField;
    location    "0.03";
    object      alphaPhi0.water;
}
// * * * * * * * * * * * * * * * * * * * * * * * * * * * * * * * * * * * * * //

dimensions      [0 3 -1 0 0 0 0];

internalField   nonuniform List<scalar> 
9850
(
-5.48149e-247
3.22902e-246
-2.49875e-246
1.56395e-245
-1.06245e-245
7.0978e-245
-4.19413e-245
3.00568e-244
-1.52953e-244
1.18222e-243
-5.12569e-244
4.29809e-243
-1.56955e-243
1.43684e-242
-4.3656e-243
4.3924e-242
-1.09606e-242
1.22073e-241
-2.46767e-242
3.06535e-241
-4.94779e-242
6.90972e-241
-8.77196e-242
1.38866e-240
-1.365e-241
2.47051e-240
-1.85045e-241
3.86208e-240
-2.16952e-241
5.26541e-240
-2.18559e-241
6.21473e-240
-1.88318e-241
6.30841e-240
-1.38717e-241
5.4812e-240
-8.81384e-242
4.07408e-240
-5.02076e-242
2.61342e-240
-2.60609e-242
1.22753e-240
-1.24507e-242
6.12375e-241
-5.53417e-243
2.81093e-241
-2.31177e-243
1.19999e-241
-9.15899e-244
4.81257e-242
-3.46978e-244
1.82988e-242
-1.26599e-244
6.6505e-243
-4.47697e-245
2.32703e-243
-1.54302e-245
7.88891e-244
-5.20852e-246
2.60565e-244
-1.72933e-246
8.42609e-245
-5.66898e-247
2.67927e-245
-1.84098e-247
8.40891e-246
-5.94014e-248
2.61369e-246
-1.90936e-248
8.06957e-247
-6.1283e-249
2.48129e-247
-1.96812e-249
7.61652e-248
-6.33624e-250
2.33881e-248
-2.0483e-250
7.19788e-249
-6.65857e-251
2.22386e-249
-2.17954e-251
6.90796e-250
-7.19209e-252
2.16028e-250
-2.39503e-252
6.8093e-251
-8.0563e-253
2.16566e-251
-2.73956e-253
6.95641e-252
-9.4228e-254
2.25861e-252
-3.27545e-254
7.41651e-253
-1.13821e-254
2.46096e-253
-3.5973e-255
8.16266e-254
2.46227e-254
-2.6969e-244
1.59517e-243
-1.23426e-243
7.75137e-243
-5.2703e-243
3.52984e-242
-2.08992e-242
1.5e-241
-7.658e-242
5.92106e-241
-2.57912e-241
2.16045e-240
-7.93833e-241
7.2486e-240
-2.21964e-240
2.22393e-239
-5.60246e-240
6.20302e-239
-1.26804e-239
1.5632e-238
-2.55581e-239
3.53616e-238
-4.55438e-239
7.13177e-238
-7.12206e-239
1.27326e-237
-9.70049e-239
1.99749e-237
-1.14239e-238
2.73301e-237
-1.15563e-238
3.23731e-237
-9.9953e-239
3.29788e-237
-7.38788e-239
2.87556e-237
-4.70798e-239
2.14469e-237
-2.68685e-239
1.38019e-237
-1.39711e-239
6.49809e-238
-6.68581e-240
3.24928e-238
-2.97646e-240
1.49493e-238
-1.24531e-240
6.39642e-239
-4.94172e-241
2.57114e-239
-1.87525e-241
9.79876e-240
-6.85409e-242
3.56963e-240
-2.42831e-242
1.25203e-240
-8.38561e-243
4.25501e-241
-2.83636e-243
1.40895e-241
-9.43731e-244
4.56802e-242
-3.10052e-244
1.45634e-242
-1.00919e-244
4.583e-243
-3.26392e-245
1.42838e-243
-1.05166e-245
4.42214e-244
-3.38368e-246
1.36352e-244
-1.08938e-246
4.19706e-245
-3.51596e-247
1.29238e-245
-1.13946e-247
3.98842e-246
-3.71346e-248
1.23566e-246
-1.21858e-248
3.84882e-247
-4.03115e-249
1.20687e-247
-1.34574e-249
3.81425e-248
-4.53783e-250
1.21629e-248
-1.54683e-250
3.91695e-249
-5.333e-251
1.27496e-249
-1.85809e-251
4.19685e-250
-6.47101e-252
1.39593e-250
-2.04882e-252
4.64047e-251
1.40235e-251
-1.04928e-241
6.22138e-241
-4.82352e-241
3.03466e-240
-2.06936e-240
1.38737e-239
-8.2468e-240
5.91942e-239
-3.03758e-239
2.34626e-238
-1.02856e-238
8.5969e-238
-3.18354e-238
2.89666e-237
-8.95256e-238
8.92544e-237
-2.27284e-237
2.50031e-236
-5.17456e-237
6.32859e-236
-1.04912e-236
1.43797e-235
-1.88047e-236
2.91316e-235
-2.95771e-236
5.22478e-235
-4.05138e-236
8.23483e-235
-4.7974e-236
1.13203e-234
-4.87854e-236
1.34732e-234
-4.24037e-236
1.37908e-234
-3.14839e-236
1.20811e-234
-2.01434e-236
9.0512e-235
-1.15282e-236
5.84926e-235
-6.01039e-237
2.76279e-235
-2.88331e-237
1.38581e-235
-1.2866e-237
6.3949e-236
-5.39499e-238
2.74415e-236
-2.14562e-238
1.10618e-236
-8.16018e-239
4.2276e-237
-2.98933e-239
1.54443e-237
-1.06153e-239
5.43237e-238
-3.6745e-240
1.85147e-238
-1.24591e-240
6.14848e-239
-4.15587e-241
1.99926e-239
-1.36887e-241
6.39278e-240
-4.46722e-242
2.01777e-240
-1.44864e-242
6.30768e-241
-4.68027e-243
1.9587e-241
-1.50997e-243
6.05772e-242
-4.87475e-244
1.87027e-242
-1.57767e-244
5.77638e-243
-5.12706e-245
1.788e-243
-1.6755e-245
5.5559e-244
-5.51323e-246
1.73563e-244
-1.82878e-246
5.4582e-245
-6.12151e-247
1.72997e-245
-2.06965e-247
5.53205e-246
-7.07334e-248
1.78646e-246
-2.44493e-248
5.83063e-247
-8.53985e-249
1.92436e-247
-2.98116e-249
6.41714e-248
-9.45743e-250
2.13844e-248
6.47522e-249
-3.94636e-239
2.34357e-238
-1.82202e-238
1.14742e-237
-7.85268e-238
5.266e-237
-3.14459e-237
2.25578e-236
-1.16414e-236
8.97779e-236
-3.96276e-236
3.30334e-235
-1.23326e-235
1.11781e-234
-3.48772e-235
3.45943e-234
-8.9059e-235
9.73453e-234
-2.03961e-234
2.47526e-233
-4.16007e-234
5.65079e-233
-7.50191e-234
1.15035e-232
-1.18713e-233
2.07347e-232
-1.63594e-233
3.28482e-232
-1.94874e-233
4.53941e-232
-1.99318e-233
5.43166e-232
-1.74203e-233
5.58958e-232
-1.30011e-233
4.92268e-232
-8.3568e-234
3.70709e-232
-4.79937e-234
2.40725e-232
-2.51053e-234
1.1414e-232
-1.2081e-234
5.74651e-233
-5.40664e-235
2.66123e-233
-2.27356e-235
1.14591e-233
-9.06727e-236
4.63475e-234
-3.458e-236
1.77717e-234
-1.2703e-236
6.51376e-235
-4.52364e-237
2.29869e-235
-1.57033e-237
7.86031e-236
-5.33993e-238
2.61897e-236
-1.78643e-238
8.54435e-237
-5.90177e-239
2.74127e-237
-1.93181e-239
8.68144e-238
-6.28366e-240
2.72302e-238
-2.03635e-240
8.48419e-239
-6.59007e-241
2.63275e-239
-2.1341e-241
8.15561e-240
-6.92815e-242
2.52727e-240
-2.25843e-242
7.84865e-241
-7.40304e-243
2.44681e-241
-2.44338e-243
7.66838e-242
-8.12927e-244
2.41923e-242
-2.72922e-244
7.69177e-243
-9.25444e-245
2.46722e-243
-3.17196e-245
7.99147e-244
-1.09951e-245
2.61596e-244
-3.8511e-246
8.65883e-245
-1.3479e-246
2.8956e-245
-4.28541e-247
9.67506e-246
2.93611e-246
-1.47546e-236
8.77087e-236
-6.83952e-236
4.30908e-235
-2.96031e-235
1.98471e-234
-1.19078e-234
8.53349e-234
-4.42917e-234
3.40933e-233
-1.51518e-233
1.25944e-232
-4.73986e-233
4.27938e-232
-1.34768e-232
1.33004e-231
-3.46051e-232
3.75916e-231
-7.97087e-232
9.6026e-231
-1.63541e-231
2.20267e-230
-2.96704e-231
4.5064e-230
-4.72408e-231
8.16485e-230
-6.55063e-231
1.30047e-229
-7.85165e-231
1.8072e-229
-8.07992e-231
2.17479e-229
-7.10376e-231
2.25097e-229
-5.33157e-231
1.99384e-229
-3.44479e-231
1.50995e-229
-1.98647e-231
9.85744e-230
-1.04318e-231
4.69446e-230
-5.03847e-232
2.37355e-230
-2.26285e-232
1.10371e-230
-9.54807e-233
4.77139e-231
-3.82066e-233
1.93733e-231
-1.46193e-233
7.457e-232
-5.38824e-234
2.74352e-232
-1.92518e-234
9.71838e-233
-6.70544e-235
3.3357e-233
-2.2879e-235
1.11561e-233
-7.68008e-236
3.6534e-234
-2.54594e-236
1.17654e-234
-8.36235e-237
3.7401e-235
-2.72947e-237
1.17754e-235
-8.87619e-238
3.68268e-236
-2.88251e-238
1.14706e-236
-9.367e-239
3.56651e-237
-3.05143e-239
1.10927e-237
-9.98123e-240
3.45751e-238
-3.28298e-240
1.08176e-238
-1.08722e-240
3.40237e-239
-3.62933e-241
1.07715e-239
-1.22249e-241
3.43656e-240
-4.15879e-242
1.10606e-240
-1.42999e-242
3.59451e-241
-4.97248e-243
1.18048e-241
-1.747e-243
3.9199e-242
-6.13246e-244
1.31495e-242
-1.95449e-244
4.40663e-243
1.3406e-243
-5.49392e-234
3.26739e-233
-2.55601e-233
1.61027e-232
-1.1106e-232
7.44102e-232
-4.4858e-232
3.2103e-231
-1.6758e-231
1.28718e-230
-5.7592e-231
4.77278e-230
-1.81037e-230
1.62806e-229
-5.17363e-230
5.08085e-229
-1.33556e-229
1.44224e-228
-3.09346e-229
3.70089e-228
-6.38381e-229
8.52997e-228
-1.16515e-228
1.75397e-227
-1.86666e-228
3.19486e-227
-2.6048e-228
5.11717e-227
-3.14217e-228
7.15257e-227
-3.25422e-228
8.65927e-227
-2.87906e-228
9.01766e-227
-2.17392e-228
8.03678e-227
-1.41255e-228
6.12329e-227
-8.18353e-229
4.02071e-227
-4.3168e-229
1.92424e-227
-2.09389e-229
9.77573e-228
-9.4426e-230
4.56683e-228
-4.00019e-230
1.98315e-228
-1.60694e-230
8.08766e-229
-6.1726e-231
3.12653e-229
-2.28381e-231
1.15523e-229
-8.19135e-232
4.10964e-230
-2.86408e-232
1.41658e-230
-9.81015e-233
4.75779e-231
-3.30589e-233
1.56468e-231
-1.10017e-233
5.06017e-232
-3.62772e-234
1.61535e-232
-1.18872e-234
5.10714e-233
-3.88077e-235
1.60389e-233
-1.26517e-235
5.01639e-234
-4.12724e-236
1.56615e-234
-1.34969e-236
4.89092e-235
-4.43173e-237
1.5306e-235
-1.46319e-237
4.80792e-236
-4.86379e-238
1.51812e-236
-1.62964e-238
4.82478e-237
-5.50929e-239
1.54516e-237
-1.88096e-239
4.99171e-238
-6.49062e-240
1.62819e-238
-2.26485e-240
5.36647e-239
-7.98441e-241
1.78829e-239
-2.81187e-241
6.01964e-240
-8.98672e-242
2.02391e-240
6.17444e-241
-2.03506e-231
1.21028e-230
-9.49912e-231
5.98146e-230
-4.14198e-230
2.77225e-229
-1.67929e-229
1.1998e-228
-6.29868e-229
4.82657e-228
-2.17392e-228
1.79595e-227
-6.86468e-228
6.14908e-227
-1.97125e-227
1.92661e-226
-5.11476e-227
5.4919e-226
-1.1911e-226
1.41562e-225
-2.47201e-226
3.27846e-225
-4.53879e-226
6.7759e-225
-7.31671e-226
1.24096e-224
-1.02757e-225
1.9991e-224
-1.24771e-225
2.81118e-224
-1.30079e-225
3.42477e-224
-1.15842e-225
3.58953e-224
-8.80333e-226
3.21995e-224
-5.75511e-226
2.46919e-224
-3.35143e-226
1.63148e-224
-1.77675e-226
7.85041e-225
-8.65981e-227
4.0094e-225
-3.92343e-227
1.88268e-225
-1.66965e-227
8.2166e-226
-6.7372e-228
3.36738e-226
-2.59933e-228
1.30808e-226
-9.65951e-229
4.85646e-227
-3.47975e-229
1.73588e-227
-1.222e-229
6.01191e-228
-4.20395e-230
2.02873e-228
-1.42287e-230
6.70318e-229
-4.75592e-231
2.17796e-229
-1.57507e-231
6.98509e-230
-5.18362e-232
2.21866e-230
-1.69963e-232
6.99974e-231
-5.56496e-233
2.19926e-231
-1.8232e-233
6.8973e-232
-5.98769e-234
2.16361e-232
-1.97439e-234
6.80095e-233
-6.546e-235
2.14565e-233
-2.18497e-235
6.80423e-234
-7.35084e-236
2.17166e-234
-2.49512e-236
6.98398e-235
-8.55269e-237
2.26549e-235
-2.96286e-237
7.41946e-236
-1.03786e-237
2.45517e-236
-3.67271e-238
8.21348e-237
-1.2981e-238
2.77534e-237
-4.16182e-239
9.36516e-238
2.86612e-238
-7.48908e-229
4.45184e-228
-3.50603e-228
2.20574e-227
-1.53364e-227
1.02505e-226
-6.2392e-227
4.44908e-226
-2.34886e-226
1.7953e-225
-8.13907e-226
6.7023e-225
-2.58108e-225
2.30292e-224
-7.44576e-225
7.24301e-224
-1.94142e-224
2.07318e-223
-4.54482e-224
5.36774e-223
-9.48504e-224
1.24911e-222
-1.75184e-223
2.59501e-222
-2.84165e-223
4.77897e-222
-4.01684e-223
7.74406e-222
-4.91015e-223
1.09578e-221
-5.15407e-223
1.34367e-221
-4.62151e-223
1.41779e-221
-3.53588e-223
1.28052e-221
-2.32661e-223
9.88678e-222
-1.36254e-223
6.57617e-222
-7.26339e-224
3.18305e-222
-3.5591e-224
1.63509e-222
-1.62088e-224
7.7213e-223
-6.93292e-225
3.38848e-223
-2.81154e-225
1.39625e-223
-1.09013e-225
5.45294e-224
-4.07108e-226
2.03528e-224
-1.47378e-226
7.31332e-225
-5.20095e-227
2.54615e-225
-1.798e-227
8.63696e-226
-6.11527e-228
2.86862e-226
-2.05398e-228
9.36885e-227
-6.83551e-229
3.02022e-227
-2.2605e-229
9.64211e-228
-7.44764e-230
3.05748e-228
-2.45022e-230
9.65471e-229
-8.06572e-231
3.043e-229
-2.66144e-231
9.59266e-230
-8.81697e-232
3.03001e-230
-2.93679e-232
9.60553e-231
-9.8476e-233
3.06056e-231
-3.32801e-233
9.81401e-232
-1.13469e-233
3.17073e-232
-3.90663e-234
1.03321e-232
-1.35925e-234
3.39892e-233
-4.78176e-235
1.12969e-233
-1.69926e-235
3.79563e-234
-6.03022e-236
1.28799e-234
-1.94024e-236
4.36386e-235
1.34031e-235
-2.73464e-226
1.62419e-225
-1.28359e-225
8.06535e-225
-5.63088e-225
3.75724e-224
-2.29792e-224
1.63505e-223
-8.68031e-224
6.61661e-223
-3.01893e-223
2.47781e-222
-9.6121e-223
8.54255e-222
-2.78491e-222
2.69667e-221
-7.29564e-222
7.74985e-221
-1.71658e-221
2.01536e-220
-3.60213e-221
4.71235e-220
-6.69194e-221
9.84075e-220
-1.09225e-220
1.82244e-219
-1.55407e-220
2.97092e-219
-1.91264e-220
4.23069e-219
-2.02171e-220
5.22255e-219
-1.82568e-220
5.54901e-219
-1.40669e-220
5.04747e-219
-9.3197e-221
3.92509e-219
-5.49121e-221
2.62919e-219
-2.94481e-221
1.2807e-219
-1.45141e-221
6.62006e-220
-6.64783e-222
3.14538e-220
-2.85941e-222
1.38868e-220
-1.16602e-222
5.75621e-221
-4.5459e-223
2.26128e-221
-1.70694e-223
8.48936e-222
-6.21292e-224
3.06815e-222
-2.20441e-224
1.07434e-222
-7.66198e-225
3.66521e-223
-2.62e-225
1.22427e-223
-8.84728e-226
4.0211e-224
-2.96006e-226
1.30357e-224
-9.84105e-227
4.18493e-225
-3.25948e-227
1.33438e-225
-1.07799e-227
4.23677e-226
-3.56709e-228
1.34262e-226
-1.18312e-228
4.25522e-227
-3.93962e-229
1.35124e-227
-1.31889e-229
4.30612e-228
-4.44467e-230
1.37916e-228
-1.50954e-230
4.44504e-229
-5.17201e-231
1.44336e-229
-1.78929e-231
4.72672e-230
-6.25524e-232
1.56255e-230
-2.21093e-232
5.2185e-231
-7.89316e-233
1.76169e-231
-2.81354e-233
6.00584e-232
-9.08876e-234
2.04395e-232
6.30289e-233
-9.81863e-224
5.82712e-223
-4.61702e-223
2.89798e-222
-2.02946e-222
1.35227e-221
-8.30045e-222
5.89554e-221
-3.14315e-221
2.39061e-220
-1.09612e-220
8.97264e-220
-3.50044e-220
3.10119e-219
-1.01753e-219
9.81698e-219
-2.6753e-219
2.83001e-218
-6.31978e-219
7.38483e-218
-1.33194e-218
1.73331e-217
-2.48617e-218
3.63486e-217
-4.07869e-218
6.76251e-217
-5.8352e-218
1.10795e-216
-7.22379e-218
1.58635e-216
-7.68343e-218
1.96973e-216
-6.98406e-218
2.10597e-216
-5.41816e-218
1.92838e-216
-3.61479e-218
1.51008e-216
-2.14381e-218
1.01881e-216
-1.15734e-218
4.99667e-217
-5.74233e-219
2.60075e-217
-2.64765e-219
1.24431e-217
-1.14639e-219
5.53198e-218
-4.70572e-220
2.30904e-218
-1.84669e-220
9.13395e-219
-6.9797e-221
3.45284e-219
-2.5571e-221
1.2565e-219
-9.13203e-222
4.4299e-220
-3.19464e-222
1.52161e-220
-1.09945e-222
5.11698e-221
-3.73643e-223
1.69194e-221
-1.25806e-223
5.52149e-222
-4.20897e-224
1.78428e-222
-1.40279e-224
5.72635e-223
-4.66809e-225
1.82989e-223
-1.55415e-225
5.8358e-224
-5.18602e-226
1.86119e-224
-1.73721e-226
5.94685e-225
-5.85015e-227
1.90673e-225
-1.98302e-227
6.14362e-226
-6.77368e-228
1.99185e-226
-2.33399e-228
6.50555e-227
-8.11979e-229
2.14269e-227
-2.8543e-229
7.12335e-228
-1.01434e-229
2.39226e-228
-3.64055e-230
8.12014e-229
-1.30434e-230
2.78311e-229
-4.23296e-231
9.52048e-230
2.94942e-230
-2.08265e-221
1.26121e-220
-9.5887e-221
6.14782e-220
-4.12191e-220
2.80856e-219
-1.64667e-219
1.19735e-218
-6.08298e-219
4.74188e-218
-2.06686e-218
1.73604e-217
-6.42312e-218
5.84552e-217
-1.8149e-217
1.80054e-216
-4.6339e-217
5.04497e-216
-1.06229e-216
1.27834e-215
-2.17208e-216
2.91154e-215
-3.93467e-216
5.92329e-215
-6.27159e-216
1.06944e-214
-8.7367e-216
1.70235e-214
-1.05684e-215
2.37339e-214
-1.1038e-215
2.87972e-214
-9.91455e-216
3.02364e-214
-7.65599e-216
2.73627e-214
-5.12215e-216
2.13321e-214
-3.06562e-216
1.44362e-214
-1.67868e-216
7.14716e-215
-8.48241e-217
3.77441e-215
-3.99553e-217
1.83966e-215
-1.77153e-217
8.35813e-216
-7.45918e-218
3.5736e-216
-3.00627e-218
1.45052e-216
-1.16783e-218
5.63314e-217
-4.39942e-219
2.10757e-217
-1.61584e-219
7.64282e-218
-5.81339e-220
2.70069e-218
-2.05719e-220
9.34288e-219
-7.18635e-221
3.1773e-219
-2.48613e-221
1.06607e-219
-8.54182e-222
3.54047e-220
-2.92199e-222
1.16713e-220
-9.97422e-223
3.82876e-221
-3.40419e-223
1.25274e-221
-1.16373e-223
4.09636e-222
-3.99102e-224
1.34107e-222
-1.37506e-224
4.40268e-223
-4.7656e-225
1.45152e-223
-1.66328e-225
4.81206e-224
-5.85207e-226
1.606e-224
-2.07752e-226
5.40156e-225
-7.44765e-227
1.83258e-225
-2.69741e-227
6.27663e-226
-9.8594e-228
2.17141e-226
-3.59292e-228
7.57957e-227
-1.18239e-228
2.63729e-227
8.28522e-228
-2.08858e-219
1.2905e-218
-9.41823e-219
6.16264e-218
-3.96445e-218
2.75735e-217
-1.55054e-217
1.15104e-216
-5.60681e-217
4.46269e-216
-1.86463e-216
1.59927e-215
-5.67149e-216
5.27062e-215
-1.56854e-215
1.58896e-214
-3.92054e-215
4.35777e-214
-8.8009e-215
1.08099e-213
-1.763e-214
2.41103e-213
-3.13116e-214
4.80573e-213
-4.89884e-214
8.50758e-213
-6.70988e-214
1.32939e-212
-7.99979e-214
1.82251e-212
-8.26227e-214
2.17977e-212
-7.36976e-214
2.26358e-212
-5.67935e-214
2.03462e-212
-3.81147e-214
1.58335e-212
-2.29816e-214
1.07513e-212
-1.27224e-214
5.36423e-213
-6.51706e-215
2.8648e-213
-3.11856e-215
1.41597e-213
-1.40691e-215
6.53753e-214
-6.03465e-216
2.84506e-214
-2.47972e-216
1.17679e-214
-9.82716e-217
4.66103e-215
-3.77832e-217
1.77962e-215
-1.41669e-217
6.5885e-216
-5.20411e-218
2.37743e-216
-1.88047e-218
8.39992e-217
-6.70783e-219
2.9177e-217
-2.36952e-219
9.99895e-218
-8.31215e-220
3.39147e-218
-2.9028e-220
1.14172e-218
-1.01141e-220
3.82436e-219
-3.5229e-221
1.27745e-219
-1.22883e-221
4.26369e-220
-4.29919e-222
1.42446e-220
-1.51073e-222
4.77125e-221
-5.33878e-223
1.60453e-221
-1.8995e-223
5.42443e-222
-6.81111e-224
1.84566e-222
-2.4636e-224
6.32691e-223
-8.99576e-225
2.18714e-223
-3.31758e-225
7.63058e-224
-1.2342e-225
2.68811e-224
-4.57308e-226
9.5505e-225
-1.52598e-226
3.37892e-225
1.07637e-225
-1.29188e-217
8.13078e-217
-5.7133e-217
3.80807e-216
-2.35869e-216
1.67105e-215
-9.04887e-216
6.84184e-215
-3.21026e-215
2.60208e-214
-1.04776e-214
9.14922e-214
-3.12885e-214
2.95938e-213
-8.50012e-214
8.76012e-213
-2.08832e-213
2.36023e-212
-4.6114e-213
5.75554e-212
-9.0952e-213
1.26294e-211
-1.5922e-212
2.47891e-211
-2.45866e-212
4.32626e-211
-3.32921e-212
6.67334e-211
-3.93202e-212
9.04614e-211
-4.0333e-212
1.07202e-210
-3.58423e-212
1.10589e-210
-2.76168e-212
9.90578e-211
-1.85994e-212
7.70975e-211
-1.1289e-212
5.25531e-211
-6.30666e-213
2.64041e-211
-3.26665e-213
1.4235e-211
-1.5831e-213
7.11679e-212
-7.24189e-214
3.32887e-212
-3.15271e-214
1.46946e-212
-1.31584e-214
6.17106e-213
-5.29967e-215
2.48346e-213
-2.07176e-215
9.63975e-214
-7.90114e-216
3.62977e-214
-2.95296e-216
1.33262e-214
-1.08584e-216
4.79172e-215
-3.94222e-217
1.69419e-215
-1.4175e-217
5.9107e-216
-5.06184e-218
2.04115e-216
-1.79951e-218
6.99634e-217
-6.38267e-219
2.38612e-217
-2.26303e-219
8.11501e-218
-8.03462e-220
2.75748e-218
-2.86086e-220
9.37822e-219
-1.02301e-220
3.19736e-219
-3.67833e-221
1.0943e-219
-1.33134e-221
3.76444e-220
-4.85547e-222
1.3031e-220
-1.78591e-222
4.5437e-221
-6.62986e-223
1.59733e-221
-2.48517e-223
5.66602e-222
-9.39341e-224
2.02888e-222
-3.53327e-224
7.32409e-223
-1.19408e-224
2.63057e-223
8.48716e-224
-5.69458e-216
3.64544e-215
-2.4723e-215
1.67603e-214
-1.00214e-214
7.22058e-214
-3.77583e-214
2.90296e-213
-1.31606e-213
1.08442e-212
-4.22205e-213
3.74658e-212
-1.24004e-212
1.19137e-211
-3.31579e-212
3.46915e-211
-8.02517e-212
9.20164e-211
-1.74756e-211
2.21099e-210
-3.40299e-211
4.78547e-210
-5.88941e-211
9.27596e-210
-9.0041e-211
1.60082e-209
-1.20915e-210
2.44543e-209
-1.41901e-210
3.28843e-209
-1.44951e-210
3.87328e-209
-1.28602e-210
3.98021e-209
-9.92043e-211
3.5605e-209
-6.70784e-211
2.77533e-209
-4.09696e-211
1.90004e-209
-2.30763e-211
9.61036e-210
-1.20697e-211
5.22564e-210
-5.91384e-212
2.63907e-210
-2.73794e-212
1.24851e-210
-1.20734e-212
5.57984e-211
-5.10758e-213
2.37439e-211
-2.08631e-213
9.68882e-212
-8.2755e-214
3.81543e-212
-3.20364e-214
1.45822e-212
-1.21578e-214
5.43602e-213
-4.5407e-215
1.98534e-213
-1.67474e-215
7.13152e-214
-6.11859e-216
2.52825e-214
-2.22027e-216
8.87317e-215
-8.02143e-217
3.09127e-215
-2.89142e-217
1.07162e-215
-1.04185e-217
3.70448e-216
-3.75897e-218
1.27946e-216
-1.36005e-218
4.42266e-217
-4.94135e-219
1.53237e-217
-1.80497e-219
5.32924e-218
-6.63589e-220
1.86262e-218
-2.45785e-220
6.54978e-219
-9.17945e-221
2.31957e-219
-3.45945e-221
8.28049e-220
-1.31613e-221
2.982e-220
-5.0473e-222
1.0838e-220
-1.92476e-222
3.96969e-221
-6.58181e-223
1.44555e-221
4.71923e-222
-1.94389e-214
1.26415e-213
-8.29113e-214
5.70957e-213
-3.30264e-213
2.41685e-212
-1.22327e-212
9.54997e-212
-4.19345e-212
3.50761e-211
-1.32394e-211
1.19213e-210
-3.82963e-211
3.73153e-210
-1.00942e-210
1.07042e-209
-2.41079e-210
2.79951e-209
-5.18653e-210
6.63979e-209
-9.99151e-210
1.42027e-208
-1.71321e-209
2.7244e-208
-2.59923e-209
4.65981e-208
-3.46979e-209
7.06633e-208
-4.05541e-209
9.4492e-208
-4.13397e-209
1.10883e-207
-3.66798e-209
1.13748e-207
-2.8361e-209
1.018e-207
-1.92638e-209
7.95681e-208
-1.18396e-209
5.47445e-208
-6.72044e-210
2.78763e-208
-3.54653e-210
1.52814e-208
-1.75505e-210
7.78975e-209
-8.21341e-211
3.72347e-209
-3.66369e-211
1.68277e-209
-1.5688e-211
7.24624e-210
-6.4897e-212
2.99401e-210
-2.60817e-212
1.19447e-210
-1.02343e-212
4.627e-211
-3.93809e-213
1.74891e-211
-1.49176e-213
6.47849e-212
-5.5817e-214
2.36095e-212
-2.06916e-214
8.49343e-213
-7.61959e-215
3.02532e-213
-2.79382e-215
1.06981e-213
-1.02212e-215
3.76463e-214
-3.73805e-216
1.32109e-214
-1.36882e-216
4.63181e-215
-5.02629e-217
1.62521e-215
-1.8532e-217
5.71564e-216
-6.86884e-218
2.01743e-216
-2.5621e-218
7.15551e-217
-9.62661e-219
2.55309e-217
-3.64661e-219
9.17281e-218
-1.39366e-219
3.32151e-218
-5.37575e-220
1.21309e-218
-2.08957e-220
4.4704e-219
-8.07148e-221
1.65972e-219
-2.79114e-221
6.1222e-220
2.02124e-220
-5.4219e-213
3.57786e-212
-2.27355e-212
1.58844e-211
-8.90704e-212
6.61156e-211
-3.24632e-211
2.56996e-210
-1.09574e-210
9.29047e-210
-3.40878e-210
3.10982e-209
-9.72458e-210
9.59452e-209
-2.53061e-209
2.71529e-208
-5.97413e-209
7.0136e-208
-1.27217e-208
1.64491e-207
-2.42943e-208
3.48405e-207
-4.13611e-208
6.62777e-207
-6.24143e-208
1.12604e-206
-8.30189e-208
1.6991e-206
-9.6858e-208
2.26484e-206
-9.87411e-208
2.6541e-206
-8.7778e-208
2.72406e-206
-6.8122e-208
2.44367e-206
-4.65187e-208
1.91798e-206
-2.87772e-208
1.32732e-206
-1.64586e-208
6.80643e-207
-8.75891e-209
3.76117e-207
-4.37427e-209
1.93429e-207
-2.06722e-209
9.33475e-208
-9.31705e-210
4.26198e-208
-4.03316e-210
1.85512e-208
-1.68742e-210
7.75183e-209
-6.86172e-211
3.12904e-209
-2.72529e-211
1.22685e-209
-1.0618e-211
4.69536e-210
-4.07361e-212
1.76163e-210
-1.5441e-212
6.504e-211
-5.79982e-213
2.37097e-211
-2.16437e-213
8.55926e-212
-8.04324e-214
3.068e-212
-2.98265e-214
1.09445e-212
-1.10569e-214
3.89364e-213
-4.10428e-215
1.38402e-213
-1.5277e-215
4.92346e-214
-5.70951e-216
1.75543e-214
-2.14501e-216
6.28146e-215
-8.10931e-217
2.2585e-215
-3.08796e-217
8.16826e-216
-1.18539e-217
2.9745e-216
-4.59047e-218
1.09157e-216
-1.79396e-218
4.03988e-217
-7.06338e-219
1.50842e-217
-2.76228e-219
5.67301e-218
-9.6572e-220
2.11867e-218
7.07205e-219
-1.28393e-211
8.58695e-211
-5.29754e-211
3.75002e-210
-2.04333e-210
1.53618e-209
-7.33725e-210
5.88045e-209
-2.44198e-209
2.09501e-208
-7.49787e-209
6.91701e-208
-2.11345e-208
2.10704e-207
-5.44097e-208
5.8942e-207
-1.27253e-207
1.50684e-206
-2.68878e-207
3.50275e-206
-5.10347e-207
7.36505e-206
-8.65132e-207
1.39323e-205
-1.30228e-206
2.35804e-205
-1.73114e-206
3.5511e-205
-2.0221e-206
4.73294e-205
-2.0673e-206
5.55574e-205
-1.84577e-206
5.72136e-205
-1.44052e-206
5.15747e-205
-9.90219e-207
4.07293e-205
-6.16923e-207
2.83891e-205
-3.55543e-207
1.46698e-205
-1.90741e-207
8.17254e-206
-9.60623e-208
4.23895e-206
-4.57971e-208
2.06393e-206
-2.08295e-208
9.51059e-207
-9.10201e-209
4.17937e-207
-3.84543e-209
1.76368e-207
-1.5795e-209
7.19174e-208
-6.33859e-210
2.84936e-208
-2.49595e-210
1.10224e-208
-9.68048e-211
4.18105e-209
-3.7104e-211
1.56105e-209
-1.40955e-211
5.75596e-210
-5.32109e-212
2.10217e-210
-2.00067e-212
7.62429e-211
-7.50729e-213
2.75241e-211
-2.81649e-213
9.91067e-212
-1.05815e-213
3.56584e-212
-3.9868e-214
1.28411e-212
-1.50833e-214
4.63509e-213
-5.73674e-215
1.6792e-213
-2.19575e-215
6.11297e-214
-8.46556e-216
2.23858e-214
-3.2904e-216
8.25435e-215
-1.29023e-216
3.06734e-215
-5.10565e-217
1.14955e-215
-2.03543e-217
4.3465e-216
-8.05696e-218
1.65524e-216
-2.84785e-218
6.25735e-217
2.11179e-217
-2.66023e-210
1.80053e-209
-1.08137e-209
7.74231e-209
-4.11285e-209
3.12546e-208
-1.45772e-208
1.1801e-207
-4.7941e-208
4.15128e-207
-1.45638e-207
1.35491e-206
-4.06737e-207
4.0853e-206
-1.03911e-206
1.13283e-205
-2.41577e-206
2.87534e-205
-5.08334e-206
6.64763e-205
-9.62742e-206
1.39276e-204
-1.63172e-205
2.63038e-204
-2.46068e-205
4.45363e-204
-3.28316e-205
6.72294e-204
-3.85578e-205
8.99885e-204
-3.9689e-205
1.06267e-203
-3.57142e-205
1.10247e-203
-2.81079e-205
1.0022e-203
-1.94873e-205
7.98613e-204
-1.22396e-205
5.61776e-204
-7.11033e-206
2.92841e-204
-3.84427e-206
1.64535e-204
-1.95086e-206
8.60521e-205
-9.37073e-207
4.22403e-205
-4.29398e-207
1.96209e-205
-1.89049e-207
8.69116e-206
-8.04771e-208
3.69697e-206
-3.33111e-208
1.51965e-206
-1.34733e-208
6.0699e-207
-5.34822e-209
2.36752e-207
-2.09147e-209
9.0564e-208
-8.08449e-210
3.41051e-208
-3.09807e-210
1.26864e-208
-1.18003e-210
4.67516e-209
-4.47768e-211
1.7113e-209
-1.6961e-211
6.2364e-210
-6.42494e-212
2.26731e-210
-2.43783e-212
8.23856e-211
-9.27849e-213
2.99686e-211
-3.5469e-213
1.09293e-211
-1.36339e-213
4.00128e-212
-5.27526e-214
1.47234e-212
-2.05651e-214
5.45109e-213
-8.08435e-215
2.0326e-213
-3.20697e-215
7.63997e-214
-1.28416e-215
2.89684e-214
-5.1814e-216
1.10842e-214
-2.07561e-216
4.27239e-215
-7.41831e-217
1.63458e-215
5.57822e-216
-4.94973e-209
3.38333e-208
-1.98622e-208
1.43477e-207
-7.46735e-208
5.71936e-207
-2.61995e-207
2.13537e-206
-8.5429e-207
7.43883e-206
-2.5775e-206
2.40827e-205
-7.16261e-206
7.21538e-205
-1.82441e-205
1.9919e-204
-4.23782e-205
5.04362e-204
-8.92942e-205
1.16575e-203
-1.69725e-204
2.44722e-203
-2.89338e-204
4.64144e-203
-4.39783e-204
7.90956e-203
-5.92506e-204
1.20422e-202
-7.03643e-204
1.62866e-202
-7.33063e-204
1.94611e-202
-6.67826e-204
2.04481e-202
-5.31921e-204
1.88314e-202
-3.72875e-204
1.51969e-202
-2.36415e-204
1.08162e-202
-1.38512e-204
5.69581e-203
-7.54544e-205
3.22947e-203
-3.85491e-205
1.7028e-203
-1.86286e-205
8.41963e-204
-8.5832e-206
3.93679e-204
-3.7981e-206
1.75434e-204
-1.62457e-206
7.50423e-205
-6.75548e-207
3.10091e-205
-2.74477e-207
1.24488e-205
-1.0945e-207
4.87971e-206
-4.30005e-208
1.87588e-206
-1.67018e-208
7.09983e-207
-6.43259e-209
2.65464e-207
-2.46315e-209
9.83533e-208
-9.39917e-210
3.62035e-208
-3.5816e-210
1.32713e-208
-1.36536e-210
4.85497e-209
-5.21564e-211
1.77573e-209
-1.99936e-211
6.50435e-210
-7.70128e-212
2.38955e-210
-2.98425e-212
8.81645e-211
-1.16458e-212
3.27088e-211
-4.58125e-213
1.22153e-211
-1.81825e-213
4.59673e-212
-7.28612e-214
1.74456e-212
-2.94886e-214
6.68265e-213
-1.20319e-214
2.58459e-213
-4.87532e-215
1.00749e-213
-1.76173e-215
3.89911e-214
1.34539e-214
-8.47582e-208
5.83274e-207
-3.36838e-207
2.4458e-206
-1.2566e-206
9.65888e-206
-4.38383e-206
3.57981e-205
-1.42443e-205
1.24055e-204
-4.29251e-205
4.00412e-204
-1.19429e-204
1.19888e-203
-3.05333e-204
3.31564e-203
-7.13693e-204
8.43202e-203
-1.51705e-203
1.96246e-202
-2.91589e-203
4.15887e-202
-5.03766e-203
7.98201e-202
-7.77432e-203
1.3795e-201
-1.06492e-202
2.13397e-201
-1.28681e-202
2.93653e-201
-1.36417e-202
3.57295e-201
-1.26372e-202
3.82296e-201
-1.02206e-202
3.58274e-201
-7.26057e-203
2.93806e-201
-4.65282e-203
2.1208e-201
-2.75071e-203
1.12969e-201
-1.50959e-203
6.46761e-202
-7.75852e-204
3.43774e-202
-3.76696e-204
1.71106e-202
-1.74196e-204
8.04312e-203
-7.72934e-205
3.59939e-203
-3.31272e-205
1.54472e-203
-1.3795e-205
6.39932e-204
-5.61067e-206
2.57402e-204
-2.23898e-206
1.01048e-204
-8.80194e-207
3.88917e-205
-3.42086e-207
1.4735e-205
-1.31849e-207
5.51496e-206
-5.05348e-208
2.04548e-206
-1.93077e-208
7.53888e-207
-7.36933e-209
2.76784e-207
-2.81518e-209
1.01447e-207
-1.0782e-209
3.71914e-208
-4.14636e-210
1.36615e-208
-1.60323e-210
5.03592e-209
-6.24047e-211
1.86548e-209
-2.44802e-211
6.95309e-210
-9.68787e-212
2.61061e-210
-3.87124e-212
9.88409e-211
-1.56321e-212
3.77722e-211
-6.381e-213
1.45814e-211
-2.62825e-213
5.68838e-212
-1.07581e-213
2.23852e-212
-3.92776e-214
8.7521e-213
3.05133e-213
-1.36887e-206
9.44036e-206
-5.41376e-206
3.93038e-205
-2.01526e-205
1.54525e-204
-7.03444e-205
5.71708e-204
-2.29336e-204
1.98327e-203
-6.95394e-204
6.42641e-203
-1.95231e-203
1.93725e-202
-5.05049e-203
5.40976e-202
-1.19765e-202
1.39304e-201
-2.58887e-202
3.29162e-201
-5.07062e-202
7.09913e-201
-8.94116e-202
1.3895e-200
-1.40983e-201
2.45294e-200
-1.97405e-201
3.88011e-200
-2.43774e-201
5.46231e-200
-2.6385e-201
6.7976e-200
-2.49137e-201
7.43192e-200
-2.04932e-201
7.10527e-200
-1.47681e-201
5.93118e-200
-9.57081e-202
4.34686e-200
-5.71107e-202
2.34371e-200
-3.15753e-202
1.35534e-200
-1.63206e-202
7.26287e-201
-7.95681e-203
3.63808e-201
-3.6895e-203
1.71836e-201
-1.6395e-203
7.71579e-202
-7.0295e-204
3.31826e-202
-2.9257e-204
1.376e-202
-1.18839e-204
5.53484e-203
-4.73334e-205
2.17111e-203
-1.85641e-205
8.34445e-204
-7.19579e-206
3.15548e-204
-2.76568e-206
1.17839e-204
-1.05704e-206
4.36007e-205
-4.02772e-207
1.60301e-205
-1.53351e-207
5.87137e-206
-5.84587e-208
2.14732e-206
-2.23525e-208
7.85779e-207
-8.58656e-209
2.88234e-207
-3.31862e-209
1.06156e-207
-1.29214e-209
3.93142e-208
-5.07458e-210
1.46603e-208
-2.01233e-210
5.51144e-209
-8.06564e-211
2.09124e-209
-3.27032e-211
8.01691e-210
-1.34197e-211
3.10786e-210
-5.56319e-212
1.21891e-210
-2.2946e-212
4.82811e-211
-8.45036e-213
1.90225e-211
6.68998e-212
-2.13635e-205
1.46737e-204
-8.46218e-205
6.10055e-204
-3.16517e-204
2.40316e-203
-1.11367e-203
8.93804e-203
-3.6711e-203
3.1271e-202
-1.1288e-202
1.02513e-201
-3.22235e-202
3.13575e-201
-8.49642e-202
8.90995e-201
-2.05776e-201
2.34027e-200
-4.55019e-201
5.65219e-200
-9.1267e-201
1.24803e-199
-1.64902e-200
2.50368e-199
-2.6643e-200
4.53276e-199
-3.82044e-200
7.35334e-199
-4.82606e-200
1.06107e-198
-5.33443e-200
1.35196e-198
-5.13311e-200
1.51089e-198
-4.29263e-200
1.47342e-198
-3.13685e-200
1.25161e-198
-2.05553e-200
9.31063e-199
-1.23803e-200
5.08092e-199
-6.89656e-201
2.96814e-199
-3.58569e-201
1.60384e-199
-1.75573e-201
8.08746e-200
-8.16475e-202
3.83936e-200
-3.63389e-202
1.73019e-200
-1.55865e-202
7.45769e-201
-6.48264e-203
3.0957e-201
-2.62885e-203
1.24512e-201
-1.04449e-203
4.87892e-202
-4.0836e-204
1.87157e-202
-1.57702e-204
7.05867e-203
-6.03612e-205
2.62747e-203
-2.29675e-205
9.68562e-204
-8.71099e-206
3.54656e-204
-3.30108e-206
1.29346e-204
-1.25258e-206
4.70993e-205
-4.76815e-207
1.71606e-205
-1.82406e-207
6.26846e-206
-7.02356e-208
2.29966e-206
-2.72598e-208
8.48673e-207
-1.06785e-208
3.15522e-207
-4.22706e-209
1.18337e-207
-1.69276e-209
4.48286e-208
-6.86442e-210
1.71724e-208
-2.82038e-210
6.65871e-209
-1.17219e-210
2.61512e-209
-4.85452e-211
1.03858e-209
-1.79869e-211
4.10893e-210
1.45395e-210
-3.29187e-204
2.2359e-203
-1.31498e-203
9.34451e-203
-4.97653e-203
3.71383e-202
-1.77696e-202
1.39827e-201
-5.96017e-202
4.96736e-201
-1.86902e-201
1.65798e-200
-5.45156e-201