/*--------------------------------*- C++ -*----------------------------------*\
  =========                 |
  \\      /  F ield         | OpenFOAM: The Open Source CFD Toolbox
   \\    /   O peration     | Website:  https://openfoam.org
    \\  /    A nd           | Version:  9
     \\/     M anipulation  |
\*---------------------------------------------------------------------------*/
FoamFile
{
    format      ascii;
    class       volScalarField;
    location    "0.03";
    object      alpha.water;
}
// * * * * * * * * * * * * * * * * * * * * * * * * * * * * * * * * * * * * * //

dimensions      [0 0 0 0 0 0 0];

internalField   nonuniform List<scalar> 
5000
(
5.28685e-241
2.57223e-240
1.17221e-239
4.98215e-239
1.96572e-238
7.16398e-238
2.39888e-237
7.33912e-237
2.03933e-236
5.11476e-236
1.15032e-235
2.30407e-235
4.08099e-235
6.34511e-235
8.59577e-235
1.00728e-234
1.0144e-234
8.73916e-235
6.43749e-235
4.09097e-235
2.3311e-235
1.21042e-235
5.78514e-236
2.57247e-236
1.07503e-236
4.26089e-237
1.61482e-237
5.89405e-238
2.08506e-238
7.18869e-239
2.42732e-239
8.06147e-240
2.64336e-240
8.58633e-241
2.7711e-241
8.9091e-242
2.86e-242
9.18653e-243
2.95799e-243
9.56353e-244
3.10927e-244
1.01786e-244
3.35908e-245
1.1187e-245
3.76332e-246
1.2798e-246
4.40215e-247
1.53028e-247
5.31782e-248
1.68075e-248
2.6117e-238
1.27483e-237
5.82934e-237
2.48624e-236
9.84449e-236
3.60073e-235
1.21009e-234
3.71555e-234
1.03616e-233
2.60805e-233
5.88637e-233
1.1832e-232
2.1031e-232
3.28152e-232
4.46141e-232
5.24685e-232
5.30298e-232
4.58477e-232
3.3889e-232
2.16057e-232
1.23404e-232
6.42281e-233
3.07684e-233
1.3713e-233
5.74372e-234
2.28177e-234
8.66793e-235
3.17139e-235
1.12467e-235
3.88734e-236
1.31598e-236
4.38209e-237
1.44074e-237
4.69264e-238
1.51863e-238
4.89592e-239
1.57605e-239
5.07646e-240
1.63911e-240
5.31402e-241
1.7324e-241
5.68656e-242
1.88165e-242
6.28301e-243
2.11905e-243
7.22447e-244
2.49111e-244
8.68028e-245
3.02322e-245
9.57283e-246
1.01857e-235
4.99073e-235
2.29101e-234
9.81059e-234
3.90056e-233
1.43264e-232
4.83507e-232
1.49097e-231
4.17592e-231
1.0557e-230
2.39332e-230
4.83243e-230
8.62897e-230
1.3527e-229
1.84782e-229
2.18356e-229
2.2175e-229
1.9262e-229
1.43024e-229
9.15691e-230
5.24708e-230
2.73949e-230
1.31629e-230
5.88352e-231
2.47133e-231
9.84536e-232
3.75056e-232
1.37613e-232
4.89413e-233
1.69652e-233
5.76004e-234
1.92371e-234
6.34366e-235
2.0724e-235
6.72694e-236
2.17525e-236
7.02353e-237
2.26909e-237
7.34844e-238
2.38946e-238
7.81263e-239
2.57192e-239
8.53462e-240
2.8578e-240
9.66496e-241
3.30396e-241
1.14226e-241
3.99043e-242
1.39319e-242
4.42027e-243
3.83672e-233
1.88689e-232
8.69521e-232
3.73823e-231
1.49232e-230
5.50405e-230
1.86552e-229
5.7778e-229
1.62551e-228
4.1283e-228
9.40324e-228
1.90789e-227
3.42391e-227
5.39515e-227
7.40896e-227
8.80234e-227
8.98756e-227
7.84871e-227
5.85802e-227
3.76872e-227
2.16791e-227
1.13609e-227
5.47827e-228
2.45711e-228
1.03556e-228
4.13919e-229
1.58201e-229
5.82371e-230
2.07801e-230
7.22715e-231
2.46195e-231
8.24983e-232
2.72961e-232
8.94731e-233
2.91405e-233
9.45463e-234
3.06295e-234
9.92837e-235
3.22591e-235
1.05238e-235
3.45198e-236
1.14e-236
3.79482e-237
1.2746e-237
4.32363e-238
1.4824e-238
5.13985e-239
1.80064e-239
6.30343e-240
2.00434e-240
1.43582e-230
7.08556e-230
3.27681e-229
1.41397e-228
5.66622e-228
2.09811e-227
7.1404e-227
2.22089e-226
6.27574e-226
1.60117e-225
3.66455e-225
7.47246e-225
1.34801e-224
2.13564e-224
2.94928e-224
3.52412e-224
3.61925e-224
3.17898e-224
2.38614e-224
1.54336e-224
8.9172e-225
4.69303e-225
2.27232e-225
1.02324e-225
4.32926e-226
1.73704e-226
6.66414e-227
2.46247e-227
8.81965e-228
3.07897e-228
1.05281e-228
3.54122e-229
1.1761e-229
3.8696e-230
1.26502e-230
4.11968e-231
1.33958e-231
4.35814e-232
1.4212e-232
4.65304e-233
1.53171e-233
5.07613e-234
1.69556e-234
5.71429e-235
1.94482e-235
6.68974e-236
2.32691e-236
8.1773e-237
2.87104e-237
9.15179e-238
5.34845e-228
2.64757e-227
1.22838e-226
5.31854e-226
2.13888e-225
7.94933e-225
2.71589e-224
8.48184e-224
2.40712e-223
6.1694e-223
1.41876e-222
2.90774e-222
5.27364e-222
8.40203e-222
1.16712e-221
1.40307e-221
1.44986e-221
1.28139e-221
9.67692e-222
6.29563e-222
3.65551e-222
1.93312e-222
9.4035e-223
4.25355e-223
1.80759e-223
7.28409e-224
2.80655e-224
1.04148e-224
3.74604e-225
1.3133e-225
4.50966e-226
1.52326e-226
5.08026e-227
1.67851e-227
5.51011e-228
1.80186e-228
5.88307e-229
1.92176e-229
6.2921e-230
2.06823e-230
6.83495e-231
2.27387e-231
7.62416e-232
2.57905e-232
8.8098e-233
3.04127e-233
1.06159e-233
3.74355e-234
1.31866e-234
4.21511e-235
1.98098e-225
9.83356e-225
4.57587e-224
1.98738e-223
8.01862e-223
2.99058e-222
1.02552e-221
3.21536e-221
9.16351e-221
2.35917e-220
5.45149e-220
1.12303e-219
2.04796e-219
3.28179e-219
4.58653e-219
5.54872e-219
5.77103e-219
5.13397e-219
3.90238e-219
2.5548e-219
1.49154e-219
7.92957e-220
3.87721e-220
1.76263e-220
7.52737e-221
3.04806e-221
1.18005e-221
4.3999e-222
1.59008e-222
5.60087e-223
1.93229e-223
6.55734e-224
2.19714e-224
7.29291e-225
2.40507e-225
7.90065e-226
2.59122e-226
8.50231e-227
2.79608e-227
9.23088e-228
3.0637e-228
1.02356e-228
3.44629e-229
1.17058e-229
4.01475e-230
1.39146e-230
4.876e-231
1.72601e-231
6.10193e-232
1.95665e-232
7.28612e-223
3.62583e-222
1.6917e-221
7.36827e-221
2.98198e-220
1.11578e-219
3.83967e-219
1.20846e-218
3.45818e-218
8.94287e-218
2.07645e-217
4.29982e-217
7.88492e-217
1.27105e-216
1.78756e-216
2.17678e-216
2.27935e-216
2.04171e-216
1.56263e-216
1.02989e-216
6.04843e-217
3.2343e-217
1.59041e-217
7.27032e-218
3.12174e-218
1.27088e-218
4.94641e-219
1.85405e-219
6.73558e-220
2.38492e-220
8.27071e-221
2.82124e-221
9.5016e-222
3.16995e-222
1.05069e-222
3.46887e-223
1.14337e-223
3.77009e-224
1.24587e-224
4.13287e-225
1.37819e-225
4.62602e-226
1.56474e-226
5.33897e-227
1.8393e-227
6.40279e-228
2.2534e-228
8.01037e-229
2.84337e-229
9.15014e-230
2.65799e-220
1.32563e-219
6.19981e-219
2.70735e-218
1.09877e-217
4.12394e-217
1.42391e-216
4.4979e-216
1.29232e-215
3.35664e-215
7.83124e-215
1.63013e-214
3.00617e-214
4.87531e-214
6.90058e-214
8.45992e-214
8.92071e-214
8.04804e-214
6.20409e-214
4.11802e-214
2.43395e-214
1.30971e-214
6.47996e-215
2.98015e-215
1.28725e-215
5.27136e-216
2.06365e-216
7.77993e-217
2.84264e-217
1.01228e-217
3.53049e-218
1.2111e-218
4.10178e-219
1.37608e-219
4.58631e-220
1.52248e-220
5.04546e-221
1.67261e-221
5.55669e-222
1.85296e-222
6.2111e-223
2.09545e-223
7.1235e-224
2.44264e-224
8.45615e-225
2.95786e-225
1.04593e-225
3.73533e-226
1.33181e-226
4.30297e-227
9.5352e-218
4.76255e-217
2.23101e-216
9.76001e-216
3.96899e-215
1.49297e-214
5.16768e-214
1.63691e-213
4.71766e-213
1.22958e-212
2.87965e-212
6.01953e-212
1.11523e-211
1.81781e-211
2.58709e-211
3.19045e-211
3.38551e-211
3.07483e-211
2.38706e-211
1.59593e-211
9.49755e-212
5.14625e-212
2.564e-212
1.18744e-212
5.16482e-213
2.12974e-213
8.3953e-214
3.18685e-214
1.1724e-214
4.20342e-215
1.47592e-215
5.09698e-216
1.73773e-216
5.86816e-217
1.96852e-217
6.57679e-218
2.19339e-218
7.3169e-219
2.44585e-219
8.20583e-220
2.76712e-220
9.39079e-221
3.21101e-221
1.10737e-221
3.85525e-222
1.35602e-222
4.82122e-223
1.73102e-223
6.20357e-224
2.01359e-224
2.06358e-215
1.0102e-214
4.63287e-214
1.9818e-213
7.87078e-213
2.88784e-212
9.73787e-212
3.00135e-211
8.40735e-211
2.12777e-210
4.83565e-210
9.8066e-210
1.76324e-209
2.7925e-209
3.87009e-209
4.66404e-209
4.86062e-209
4.36317e-209
3.37236e-209
2.26168e-209
1.35875e-209
7.47011e-210
3.79159e-210
1.79449e-210
7.99528e-211
3.38296e-211
1.36999e-211
5.34674e-212
2.0232e-212
7.46238e-213
2.69544e-213
9.57373e-214
3.35586e-214
1.16463e-214
4.01294e-215
1.37634e-215
4.70922e-216
1.61065e-216
5.51641e-217
1.895e-217
6.53851e-218
2.26895e-218
7.92765e-219
2.79183e-219
9.91884e-220
3.55803e-220
1.28931e-220
4.71445e-221
1.71851e-221
5.65646e-222
2.11128e-213
1.0125e-212
4.54762e-212
1.90476e-211
7.4056e-211
2.65961e-210
8.77759e-210
2.64783e-209
7.25984e-209
1.79872e-208
4.00317e-208
7.95421e-208
1.40236e-207
2.1803e-207
2.97143e-207
3.53012e-207
3.63874e-207
3.24447e-207
2.50333e-207
1.68462e-207
1.01998e-207
5.67107e-208
2.91902e-208
1.40395e-208
6.36695e-209
2.74528e-209
1.13387e-209
4.51594e-210
1.74455e-210
6.57081e-211
2.42399e-211
8.79358e-212
3.14825e-212
1.11585e-212
3.9264e-213
1.37502e-213
4.80299e-214
1.67672e-214
5.86035e-215
2.05392e-215
7.22866e-216
2.55798e-216
9.11161e-217
3.27039e-217
1.18388e-217
4.32581e-218
1.59619e-218
5.94059e-219
2.20183e-219
7.34869e-220
1.33007e-211
6.25567e-211
2.75555e-210
1.13197e-209
4.31699e-209
1.52112e-208
4.92706e-208
1.45934e-207
3.9308e-207
9.57402e-207
2.09632e-206
4.1019e-206
7.12965e-206
1.09429e-205
1.47471e-205
1.73603e-205
1.77773e-205
1.5797e-205
1.21908e-205
8.23586e-206
5.02162e-206
2.81856e-206
1.4675e-206
7.15074e-207
3.2894e-207
1.44002e-207
6.04312e-208
2.44685e-208
9.61383e-209
3.68411e-209
1.38312e-209
5.10734e-210
1.86148e-210
6.71728e-211
2.40656e-211
8.58083e-212
3.05166e-212
1.08458e-212
3.85889e-213
1.3766e-213
4.93065e-214
1.77539e-214
6.43377e-215
2.34886e-215
8.64693e-216
3.21231e-216
1.2048e-216
4.55591e-217
1.71423e-217
5.79451e-218
5.96279e-210
2.75292e-209
1.19047e-208
4.80191e-208
1.79869e-207
6.22733e-207
1.98294e-206
5.77747e-206
1.532e-205
3.67676e-205
7.94105e-205
1.53452e-204
2.63758e-204
4.00933e-204
5.36025e-204
6.27207e-204
6.3983e-204
5.67842e-204
4.38894e-204
2.97817e-204
1.82813e-204
1.03494e-204
5.44326e-205
2.68268e-205
1.24942e-205
5.54228e-206
2.35832e-206
9.68751e-207
3.86337e-207
1.50325e-207
5.73221e-208
2.15045e-208
7.9643e-209
2.92079e-209
1.06356e-209
3.85453e-210
1.39335e-210
5.03335e-211
1.82011e-211
6.59852e-212
2.40156e-212
8.78565e-213
3.23418e-213
1.19922e-213
4.4829e-214
1.69074e-214
6.43627e-215
2.46944e-215
9.42031e-216
3.22206e-216
2.06755e-208
9.37683e-208
3.98403e-207
1.57939e-206
5.81662e-206
1.98098e-205
6.20912e-205
1.78214e-204
4.6596e-204
1.10385e-203
2.35617e-203
4.5059e-203
7.67619e-203
1.15837e-202
1.54011e-202
1.79548e-202
1.82859e-202
1.62369e-202
1.25848e-202
8.58247e-203
5.30398e-203
3.02729e-203
1.60715e-203
8.00301e-204
3.76916e-204
1.69194e-204
7.2899e-205
3.03374e-205
1.22624e-205
4.83779e-206
1.87105e-206
7.1212e-207
2.67624e-207
9.96095e-208
3.68158e-208
1.3544e-208
4.96998e-209
1.82249e-209
6.68964e-210
2.4616e-210
9.09267e-211
3.37556e-211
1.26082e-211
4.74283e-212
1.79836e-212
6.87852e-213
2.65496e-213
1.03251e-213
3.98981e-214
1.38003e-214
5.85113e-207
2.60837e-206
1.0897e-205
4.24943e-205
1.54028e-204
5.16635e-204
1.59606e-203
4.51943e-203
1.16704e-202
2.73387e-202
5.77845e-202
1.09593e-201
1.85461e-201
2.78493e-201
3.69113e-201
4.29763e-201
4.37933e-201
3.89801e-201
3.03404e-201
2.08133e-201
1.29538e-201
7.45306e-202
3.99195e-202
2.00699e-202
9.5493e-203
4.333e-203
1.88806e-203
7.94979e-204
3.25241e-204
1.29922e-204
5.08928e-205
1.96234e-205
7.47287e-206
2.81891e-206
1.05606e-206
3.93842e-207
1.46512e-207
5.44682e-208
2.02695e-208
7.56155e-209
2.83152e-209
1.06558e-209
4.03433e-210
1.53814e-210
5.91065e-211
2.29089e-211
8.95902e-212
3.52936e-212
1.38078e-212
4.82863e-213
1.40416e-205
6.15714e-205
2.53151e-204
9.72153e-204
3.47262e-203
1.14885e-202
3.50421e-202
9.80797e-202
2.50668e-201
5.82016e-201
1.22124e-200
2.30329e-200
3.88312e-200
5.81982e-200
7.71312e-200
8.99611e-200
9.19854e-200
8.22794e-200
6.44411e-200
4.45263e-200
2.79267e-200
1.61994e-200
8.75106e-201
4.439e-201
2.13166e-201
9.76512e-202
4.29717e-202
1.8278e-202
7.55628e-203
3.05094e-203
1.20827e-203
4.71132e-204
1.81471e-204
6.92521e-205
2.62511e-205
9.90711e-206
3.7301e-206
1.40364e-206
5.28761e-207
1.99693e-207
7.57064e-208
2.88457e-208
1.10578e-208
4.26888e-209
1.66107e-209
6.51932e-210
2.58172e-210
1.02983e-210
4.07819e-211
1.44191e-211
2.94402e-204
1.27106e-203
5.1498e-203
1.9506e-202
6.87967e-202
2.24989e-201
6.79265e-201
1.88457e-200
4.78205e-200
1.10431e-199
2.30894e-199
4.34777e-199
7.33305e-199
1.10171e-198
1.46647e-198
1.72078e-198
1.77266e-198
1.5991e-198
1.26381e-198
8.81329e-199
5.5764e-199
3.26243e-199
1.7771e-199
9.08806e-200
4.39933e-200
2.03144e-200
9.01089e-201
3.86362e-201
1.61026e-201
6.55542e-202
2.61807e-202
1.02964e-202
4.00092e-203
1.54059e-203
5.89377e-204
2.24533e-204
8.53556e-205
3.2437e-205
1.23427e-205
4.70951e-206
1.80427e-206
6.94867e-207
2.69302e-207
1.05132e-207
4.13772e-208
1.64299e-208
6.58422e-209
2.65828e-209
1.06537e-209
3.80884e-210
5.53161e-203
2.35522e-202
9.4225e-202
3.52902e-201
1.23257e-200
3.99824e-200
1.19944e-199
3.31297e-199
8.38631e-199
1.93615e-198
4.05627e-198
7.6707e-198
1.30219e-197
1.97327e-197
2.65409e-197
3.15149e-197
3.28822e-197
3.00524e-197
2.40547e-197
1.69736e-197
1.08497e-197
6.40566e-198
3.51782e-198
1.81218e-198
8.83036e-199
4.10214e-199
1.82977e-199
7.88692e-200
3.30373e-200
1.35163e-200
5.42478e-201
2.14417e-201
8.37466e-202
3.24199e-202
1.24722e-202
4.77943e-203
1.82817e-203
6.99305e-204
2.67943e-204
1.02988e-204
3.97625e-205
1.54393e-205
6.03564e-206
2.37786e-206
9.44938e-207
3.79053e-207
1.53541e-207
6.26896e-208
2.54142e-208
9.18663e-209
9.53565e-202
4.0145e-201
1.59109e-200
5.91531e-200
2.05517e-199
6.64645e-199
1.99256e-198
5.51354e-198
1.40176e-197
3.25878e-197
6.89223e-197
1.31898e-196
2.27095e-196
3.4967e-196
4.78551e-196
5.78645e-196
6.14851e-196
5.71871e-196
4.65176e-196
3.32911e-196
2.15263e-196
1.28333e-196
7.1048e-197
3.68425e-197
1.80484e-197
8.41985e-198
3.76807e-198
1.62827e-198
6.83377e-199
2.79999e-199
1.12511e-199
4.45157e-200
1.7404e-200
6.74459e-201
2.59794e-201
9.97069e-202
3.82106e-202
1.465e-202
5.62904e-203
2.17089e-203
8.41493e-204
3.28258e-204
1.29011e-204
5.11366e-205
2.04615e-205
8.27163e-206
3.37953e-206
1.39297e-206
5.70483e-207
2.08357e-207
1.54327e-200
6.45074e-200
2.54519e-199
9.44574e-199
3.28512e-198
1.06655e-197
3.21918e-197
8.99426e-197
2.31544e-196
5.46507e-196
1.17634e-195
2.29586e-195
4.03785e-195
6.35788e-195
8.90214e-195
1.10101e-194
1.19549e-194
1.13439e-194
9.39339e-195
6.82575e-195
4.46761e-195
2.69039e-195
1.50165e-195
7.83686e-196
3.8576e-196
1.80569e-196
8.09778e-197
3.50264e-197
1.47005e-197
6.01849e-198
2.41492e-198
9.53654e-199
3.72007e-199
1.43814e-199
5.52581e-200
2.11569e-200
8.09025e-201
3.09605e-201
1.18791e-201
4.57718e-202
1.77376e-202
6.92241e-203
2.72406e-203
1.08208e-203
4.34336e-204
1.76319e-204
7.24228e-205
3.00461e-205
1.23999e-205
4.5683e-206
2.39867e-199
1.00118e-198
3.95788e-198
1.47658e-197
5.1791e-197
1.7011e-196
5.20998e-196
1.48114e-195
3.88933e-195
9.38318e-195
2.06781e-194
4.13655e-194
7.46136e-194
1.20495e-193
1.72942e-193
2.1901e-193
2.43091e-193
2.35302e-193
1.98284e-193
1.46256e-193
9.68921e-194
5.89436e-194
3.31753e-194
1.74293e-194
8.62307e-195
4.05096e-195
1.82079e-195
7.88372e-196
3.30848e-196
1.35305e-196
5.41862e-197
2.13412e-197
8.29775e-198
3.19586e-198
1.22296e-198
4.66231e-199
1.77502e-199
6.76329e-200
2.58409e-200
9.91779e-201
3.8298e-201
1.49013e-201
5.84985e-202
2.31992e-202
9.30477e-203
3.77811e-203
1.55394e-203
6.46372e-204
2.67856e-204
9.92871e-205
3.65485e-198
1.53347e-197
6.11605e-197
2.30975e-196
8.22607e-196
2.75092e-195
8.59845e-195
2.49954e-194
6.72163e-194
1.66245e-193
3.75815e-193
7.71338e-193
1.42712e-192
2.36244e-192
3.47203e-192
4.49575e-192
5.09312e-192
5.02146e-192
4.30083e-192
3.21741e-192
2.15667e-192
1.32537e-192
7.52422e-193
3.98142e-193
1.98115e-193
9.34814e-194
4.21492e-194
1.82859e-194
7.68073e-195
3.14092e-195
1.25667e-195
4.94091e-196
1.91651e-196
7.35948e-197
2.8065e-197
1.0658e-197
4.04074e-198
1.53285e-198
5.83005e-199
2.22733e-199
8.56192e-200
3.31673e-200
1.29667e-200
5.12286e-201
2.0479e-201
8.29286e-202
3.40425e-202
1.41468e-202
5.86576e-203
2.18164e-203
5.54147e-197
2.35125e-196
9.51345e-196
3.65459e-195
1.32687e-194
4.53149e-194
1.44841e-193
4.30982e-193
1.18703e-192
3.00781e-192
6.96622e-192
1.46446e-191
2.77381e-191
4.69693e-191
7.05341e-191
9.31926e-191
1.07552e-190
1.07833e-190
9.37556e-191
7.10804e-191
4.81979e-191
2.99257e-191
1.71436e-191
9.1428e-192
4.57956e-192
2.17258e-192
9.83747e-193
4.28141e-193
1.80226e-193
7.37951e-194
2.95391e-194
1.16112e-194
4.49984e-195
1.72548e-195
6.56743e-196
2.48824e-196
9.40828e-197
3.55838e-197
1.34904e-197
5.1363e-198
1.96738e-198
7.59342e-199
2.95766e-199
1.1642e-199
4.63717e-200
1.87129e-200
7.65713e-201
3.17344e-201
1.31386e-201
4.89468e-202
8.41412e-196
3.62366e-195
1.49138e-194
5.83708e-194
2.1618e-193
7.53754e-193
2.46115e-192
7.48384e-192
2.10688e-191
5.45722e-191
1.2919e-190
2.77537e-190
5.36973e-190
9.28197e-190
1.42162e-189
1.91342e-189
2.2464e-189
2.28776e-189
2.01754e-189
1.54945e-189
1.06278e-189
6.66853e-190
3.8569e-190
2.07452e-190
1.04689e-190
4.99838e-191
2.27544e-191
9.94656e-192
4.20165e-192
1.72499e-192
6.91824e-193
2.72286e-193
1.05595e-193
4.04981e-194
1.541e-194
5.83469e-195
2.204e-195
8.32544e-196
3.1516e-196
1.1979e-196
4.57983e-197
1.7641e-197
6.85641e-198
2.6927e-198
1.06997e-198
4.30697e-199
1.75785e-199
7.26753e-200
3.00408e-200
1.12079e-200
1.27747e-194
5.58894e-194
2.33942e-193
9.31954e-193
3.51505e-192
1.24865e-191
4.15514e-191
1.28806e-190
3.69764e-190
9.7684e-190
2.35891e-189
5.16951e-189
1.02017e-188
1.79802e-188
2.80604e-188
3.84473e-188
4.58935e-188
4.74551e-188
4.24356e-188
3.3009e-188
2.29045e-188
1.45274e-188
8.48604e-189
4.60561e-189
2.34287e-189
1.1265e-189
5.15969e-190
2.26735e-190
9.62099e-191
3.965e-191
1.5953e-191
6.29553e-192
2.44685e-192
9.40098e-193
3.58231e-193
1.35789e-193
5.13366e-194
1.94041e-194
7.34851e-195
2.79382e-195
1.06823e-195
4.1145e-196
1.59885e-196
6.27697e-197
2.49293e-197
1.00279e-197
4.08916e-198
1.68899e-198
6.97903e-199
2.61019e-199
1.92924e-193
8.56292e-193
3.63808e-192
1.47161e-191
5.63778e-191
2.03498e-190
6.88398e-190
2.17043e-189
6.34075e-189
1.70571e-188
4.19671e-188
9.37504e-188
1.88649e-187
3.39039e-187
5.39346e-187
7.52675e-187
9.13946e-187
9.59898e-187
8.70585e-187
6.86022e-187
4.81652e-187
3.08859e-187
1.82242e-187
9.98088e-188
5.11824e-188
2.47837e-188
1.14217e-188
5.04621e-189
2.1514e-189
8.90366e-190
3.59589e-190
1.42393e-190
5.5519e-191
2.13944e-191
8.17557e-192
3.10742e-192
1.17792e-192
4.46383e-193
1.69483e-193
6.45993e-194
2.4762e-194
9.56118e-195
3.72438e-195
1.46559e-195
5.83357e-196
2.35137e-196
9.60602e-197
3.9744e-197
1.64569e-197
6.18259e-198
2.88439e-192
1.29498e-191
5.56674e-191
2.27905e-190
8.8413e-190
3.23372e-189
1.10939e-188
3.5509e-188
1.05433e-187
2.88614e-187
7.23471e-187
1.64838e-186
3.38588e-186
6.21416e-186
1.00937e-185
1.43708e-185
1.77763e-185
1.89836e-185
1.74745e-185
1.39556e-185
9.91687e-186
6.43017e-186
3.83233e-186
2.11742e-186
1.09408e-186
5.33195e-187
2.47065e-187
1.09661e-187
4.69407e-188
1.9496e-188
7.89963e-189
3.13794e-189
1.22727e-189
4.74418e-190
1.81887e-190
6.93729e-191
2.63945e-191
1.00424e-191
3.82924e-192
1.46623e-192
5.64782e-193
2.19204e-193
8.58509e-194
3.39738e-194
1.36011e-194
5.51435e-195
2.26594e-195
9.42967e-196
3.92852e-196
1.48762e-196
4.2552e-191
1.9239e-190
8.33237e-190
3.43941e-189
1.34663e-188
4.97748e-188
1.72845e-187
5.60997e-187
1.69241e-186
4.7166e-186
1.20605e-185
2.80794e-185
5.90149e-185
1.10901e-184
1.84424e-184
2.68534e-184
3.39049e-184
3.68663e-184
3.44727e-184
2.79174e-184
2.00854e-184
1.3171e-184
7.92829e-185
4.41764e-185
2.29843e-185
1.12628e-185
5.24108e-186
2.33393e-186
1.00161e-186
4.16871e-187
1.69223e-187
6.73391e-188
2.6386e-188
1.02214e-188
3.92849e-189
1.50275e-189
5.73741e-190
2.19185e-190
8.39742e-191
3.23295e-191
1.25301e-191
4.8969e-192
1.93253e-192
7.71146e-193
3.11496e-193
1.27499e-193
5.29169e-194
2.22511e-194
9.37145e-195
3.59211e-195
6.17225e-190
2.79451e-189
1.21341e-188
5.0295e-188
1.9813e-187
7.3855e-187
2.59318e-186
8.53428e-186
2.61822e-185
7.44165e-185
1.9458e-184
4.64286e-184
1.00166e-183
1.9336e-183
3.30179e-183
4.92881e-183
6.36312e-183
7.05251e-183
6.70331e-183
5.50726e-183
4.01303e-183
2.66211e-183
1.61866e-183
9.09448e-184
4.7624e-184
2.34468e-184
1.09454e-184
4.88341e-185
2.0977e-185
8.73314e-186
3.54477e-186
1.41026e-186
5.5252e-187
2.14069e-187
8.23249e-188
3.15295e-188
1.20612e-188
4.62054e-189
1.77682e-189
6.87313e-190
2.67941e-190
1.05444e-190
4.19519e-191
1.68963e-191
6.89664e-192
2.85563e-192
1.2002e-192
5.11546e-193
2.18575e-193
8.50928e-194
8.75501e-189
3.9462e-188
1.70995e-187
7.09343e-187
2.8058e-186
1.05394e-185
3.74326e-185
1.25097e-184
3.91198e-184
1.13738e-183
3.05139e-183
7.48781e-183
1.66357e-182
3.30763e-182
5.81094e-182
8.90344e-182
1.17592e-181
1.32868e-181
1.28374e-181
1.07008e-181
7.8994e-182
5.30298e-182
3.25832e-182
1.8466e-182
9.73449e-183
4.81509e-183
2.2542e-183
1.00704e-183
4.32582e-184
1.79917e-184
7.29069e-185
2.89456e-185
1.13156e-185
4.37495e-186
1.67953e-186
6.42455e-187
2.45642e-187
9.4141e-188
3.62542e-188
1.40608e-188
5.50292e-189
2.1771e-189
8.72052e-190
3.54137e-190
1.45972e-190
6.11294e-191
2.60232e-191
1.12503e-191
4.88233e-192
1.9332e-192
1.20634e-187
5.38895e-187
2.32347e-186
9.63281e-186
3.82609e-185
1.45029e-184
5.22352e-184
1.77863e-183
5.69138e-183
1.69924e-182
4.6938e-182
1.18774e-181
2.72205e-181
5.57818e-181
1.00812e-180
1.58459e-180
2.13998e-180
2.46429e-180
2.42002e-180
2.04667e-180
1.53072e-180
1.03999e-180
6.45812e-181
3.69264e-181
1.96025e-181
9.74577e-182
4.57768e-182
2.04849e-182
8.80186e-183
3.65733e-183
1.47915e-183
5.85647e-184
2.28193e-184
8.7909e-185
3.3624e-185
1.28168e-185
4.88527e-186
1.86764e-186
7.18082e-187
2.78351e-187
1.09017e-187
4.32235e-188
1.73782e-188
7.09558e-189
2.94579e-189
1.24473e-189
5.3562e-190
2.34473e-190
1.03216e-190
4.15432e-191
1.60657e-186
7.10209e-186
3.04722e-185
1.26475e-184
5.05998e-184
1.94344e-183
7.13146e-183
2.48561e-182
8.17099e-182
2.51237e-181
7.15576e-181
1.8673e-180
4.40991e-180
9.29967e-180
1.72639e-179
2.78129e-179
3.84012e-179
4.50834e-179
4.5018e-179
3.86381e-179
2.92785e-179
2.0129e-179
1.26288e-179
7.28268e-180
3.89218e-180
1.94493e-180
9.16818e-181
4.11186e-181
1.76855e-181
7.34803e-182
2.96858e-182
1.17304e-182
4.55794e-183
1.74982e-183
6.66603e-184
2.52982e-184
9.59864e-185
3.65294e-185
1.39854e-185
5.40115e-186
2.10929e-186
8.34799e-187
3.35483e-187
1.3713e-187
5.70935e-188
2.42389e-188
1.05002e-188
4.6368e-189
2.06355e-189
8.42329e-190
2.06858e-185
9.07314e-185
3.88995e-184
1.62479e-183
6.5851e-183
2.57681e-182
9.67649e-182
3.46192e-181
1.17014e-180
3.70155e-180
1.08451e-179
2.9098e-179
7.06178e-179
1.52961e-178
2.9151e-178
4.81681e-178
6.80911e-178
8.16221e-178
8.2967e-178
7.23174e-178
5.55421e-178
3.86431e-178
2.44885e-178
1.42345e-178
7.65306e-179
3.84054e-179
1.81557e-179
8.15701e-180
3.51153e-180
1.45924e-180
5.89265e-181
2.32611e-181
9.0239e-182
3.4568e-182
1.31324e-182
4.96714e-183
1.87725e-183
7.11269e-184
2.71007e-184
1.04138e-184
4.04646e-185
1.59388e-185
6.37858e-186
2.59869e-186
1.07969e-186
4.58112e-187
1.98687e-187
8.802e-188
3.94e-188
1.62493e-188
2.59865e-184
1.13882e-183
4.91438e-183
2.07943e-182
8.58001e-182
3.42931e-181
1.31761e-180
4.82595e-180
1.6699e-179
5.40738e-179
1.62217e-178
4.45988e-178
1.1105e-177
2.47144e-177
4.84447e-177
8.23334e-177
1.19511e-176
1.4662e-176
1.51963e-176
1.34673e-176
1.04927e-176
7.39271e-177
4.73355e-177
2.77308e-177
1.49893e-177
7.54651e-178
3.57317e-178
1.60596e-178
6.9106e-179
2.86913e-179
1.15724e-179
4.56221e-180
1.76743e-180
6.76072e-181
2.56434e-181
9.68183e-182
3.65133e-182
1.37992e-182
5.24155e-183
2.00675e-183
7.76441e-184
3.04371e-184
1.21176e-184
4.91037e-185
2.02948e-185
8.57011e-186
3.70246e-186
1.63609e-186
7.32288e-187
3.03696e-187
3.24725e-183
1.43403e-182
6.26641e-182
2.6928e-181
1.12964e-180
4.59005e-180
1.79196e-179
6.66731e-179
2.34489e-178
7.72963e-178
2.36653e-177
6.66165e-177
1.70415e-176
3.90809e-176
7.90792e-176
1.38724e-175
2.07357e-175
2.60872e-175
2.76061e-175
2.49017e-175
1.9703e-175
1.4074e-175
9.11531e-176
5.38659e-176
2.92854e-176
1.47905e-176
7.00976e-177
3.14826e-177
1.35219e-177
5.59971e-178
2.25222e-178
8.85418e-179
3.42145e-179
1.30594e-179
4.94491e-180
1.86452e-180
7.02483e-181
2.65282e-181
1.00692e-181
3.85148e-182
1.48819e-182
5.82238e-183
2.31164e-183
9.33355e-184
3.8403e-184
1.61321e-184
6.92959e-185
3.04474e-185
1.35694e-185
5.63674e-186
4.13095e-182
1.84459e-181
8.14639e-181
3.53177e-180
1.49181e-179
6.09576e-179
2.39348e-178
8.97245e-178
3.19004e-177
1.06791e-176
3.33791e-176
9.64311e-176
2.54327e-175
6.03212e-175
1.26391e-174
2.29341e-174
3.5339e-174
4.56096e-174
4.92927e-174
4.52766e-174
3.6409e-174
2.63986e-174
1.73217e-174
1.03435e-174
5.66575e-175
2.87446e-175
1.3648e-175
6.12694e-176
2.62579e-176
1.0837e-176
4.34084e-177
1.69912e-177
6.53837e-178
2.48656e-178
9.3884e-179
3.5331e-179
1.32981e-179
5.02118e-180
1.90708e-180
7.30325e-181
2.82616e-181
1.10735e-181
4.40155e-182
1.77804e-182
7.31213e-183
3.06639e-183
1.3132e-183
5.74599e-184
2.55033e-184
1.06049e-184
5.4069e-181
2.4231e-180
1.06892e-179
4.61234e-179
1.93611e-178
7.86947e-178
3.08395e-177
1.16006e-176
4.16658e-176
1.41928e-175
4.54489e-175
1.35284e-174
3.6908e-174
9.07315e-174
1.97035e-173
3.69813e-173
5.87219e-173
7.77244e-173
8.5777e-173
8.02318e-173
6.55968e-173
4.83157e-173
3.21573e-173
1.94337e-173
1.07432e-173
5.48451e-174
2.61289e-174
1.174e-174
5.02488e-175
2.06765e-175
8.24777e-176
3.21298e-176
1.23025e-176
4.6564e-177
1.75072e-177
6.56673e-178
2.46632e-178
9.30456e-179
3.53571e-179
1.35646e-179
5.26469e-180
2.07079e-180
8.26757e-181
3.35512e-181
1.38577e-181
5.83235e-182
2.50398e-182
1.09693e-182
4.87139e-183
2.03487e-183
7.17516e-180
3.17887e-179
1.37983e-178
5.84944e-178
2.41671e-177
9.71538e-177
3.79328e-176
1.43411e-175
5.22373e-175
1.8192e-174
5.99365e-174
1.84327e-173
5.20713e-173
1.32631e-172
2.98254e-172
5.78648e-172
9.46693e-172
1.285e-171
1.44784e-171
1.37872e-171
1.14608e-171
8.57851e-172
5.79578e-172
3.54865e-172
1.98246e-172
1.01984e-172
4.88226e-173
2.19866e-173
9.41185e-174
3.86674e-174
1.5379e-174
5.96713e-175
2.27417e-175
8.56481e-176
3.20451e-176
1.19669e-176
4.47858e-177
1.68565e-177
6.39974e-178
2.45709e-178
9.55984e-179
3.77568e-179
1.51584e-179
6.19319e-180
2.57732e-180
1.0933e-180
4.7302e-181
2.08706e-181
9.3324e-182
3.93867e-182
9.35007e-179
4.0384e-178
1.70635e-177
7.05756e-177
2.86154e-176
1.13884e-175
4.44799e-175
1.69997e-174
6.31655e-174
2.25881e-173
7.67229e-173
2.43741e-172
7.11916e-172
1.87564e-171
4.36284e-171
8.74615e-171
1.47407e-170
2.05095e-170
2.35782e-170
2.28446e-170
1.93003e-170
1.46808e-170
1.00746e-170
6.25779e-171
3.53904e-171
1.83812e-171
8.8592e-172
4.0067e-172
1.71878e-172
7.06343e-173
2.80592e-173
1.08611e-173
4.1257e-174
1.54768e-174
5.76573e-175
2.14374e-175
7.98994e-176
2.99673e-176
1.13487e-176
4.35195e-177
1.69393e-177
6.70519e-178
2.70317e-178
1.11109e-178
4.65972e-179
1.99478e-179
8.71841e-180
3.88835e-180
1.75872e-180
7.53628e-181
1.16104e-177
4.85314e-177
1.98946e-176
8.03276e-176
3.20967e-175
1.2734e-174
5.01575e-174
1.95189e-173
7.43226e-173
2.73277e-172
9.55747e-172
3.12884e-171
9.42677e-171
2.5653e-170
6.16951e-170
1.27847e-169
2.22224e-169
3.17481e-169
3.72791e-169
3.67606e-169
3.15655e-169
2.44021e-169
1.70158e-169
1.07292e-169
6.14721e-170
3.22622e-170
1.56732e-170
7.12818e-171
3.06871e-171
1.26342e-171
5.02096e-172
1.94203e-172
7.36443e-173
2.75584e-173
1.02354e-173
3.79256e-174
1.40841e-174
5.26349e-175
1.98677e-175
7.59861e-176
2.95265e-176
1.16832e-176
4.71583e-177
1.9443e-177
8.19502e-178
3.53275e-178
1.55767e-178
7.01995e-179
3.21424e-179
1.40111e-179
1.34219e-176
5.39896e-176
2.13402e-175
8.33784e-175
3.2392e-174
1.2567e-173
4.87624e-173
1.88882e-172
7.26626e-172
2.75143e-171
1.01108e-170
3.53179e-170
1.1417e-169
3.31501e-169
8.40167e-169
1.81463e-168
3.27206e-168
4.82333e-168
5.80202e-168
5.83049e-168
5.09048e-168
3.99972e-168
2.83395e-168
1.81378e-168
1.0525e-168
5.5797e-169
2.73098e-169
1.2486e-169
5.39427e-170
2.22578e-170
8.85582e-171
3.42645e-171
1.29886e-171
4.85564e-172
1.80065e-172
6.65854e-173
2.46676e-173
9.1939e-174
3.4605e-174
1.31981e-174
5.11561e-175
2.02036e-175
8.14713e-176
3.35975e-176
1.41845e-176
6.13493e-177
2.71883e-177
1.23389e-177
5.70293e-178
2.52487e-178
2.22265e-175
9.35564e-175
3.70252e-174
1.34161e-173
4.33038e-173
1.21433e-172
2.9307e-172
6.49707e-172
1.7785e-171
8.21698e-171
4.79438e-170
2.54765e-169
1.11128e-168
3.89451e-168
1.09696e-167
2.51442e-167
4.74393e-167
7.2485e-167
8.95468e-167
9.17933e-167
8.15049e-167
6.50763e-167
4.68337e-167
3.04183e-167
1.78797e-167
9.57574e-168
4.7212e-168
2.16872e-168
9.39434e-169
3.88088e-169
1.54447e-169
5.97403e-170
2.26334e-170
8.45574e-171
3.13352e-171
1.15795e-171
4.28757e-172
1.59732e-172
6.00932e-173
2.29061e-173
8.87268e-174
3.50158e-174
1.41107e-174
5.81657e-175
2.45573e-175
1.06285e-175
4.71786e-176
2.14725e-176
9.97354e-177
4.46884e-177
1.69252e-171
8.54079e-171
3.75675e-170
1.403e-169
4.29657e-169
1.0296e-168
1.81589e-168
2.20539e-168
1.77629e-168
6.95232e-169
-4.04752e-169
-1.00647e-169
8.02669e-168
4.31372e-167
1.41205e-166
3.45563e-166
6.81135e-166
1.07786e-165
1.36691e-165
1.42867e-165
1.28981e-165
1.04648e-165
7.65208e-166
5.04804e-166
3.00933e-166
1.63031e-166
8.10534e-167
3.7428e-167
1.62541e-167
6.71745e-168
2.67039e-168
1.03082e-168
3.89652e-169
1.45305e-169
5.37904e-170
1.9874e-170
7.36416e-171
2.74777e-171
1.03598e-171
3.9586e-172
1.53717e-172
6.08015e-173
2.45469e-173
1.01318e-173
4.28126e-174
1.85413e-174
8.2351e-175
3.75122e-175
1.74579e-175
7.88552e-176
-1.76124e-167
-5.97601e-167
-1.77365e-166
-4.52127e-166
-9.69548e-166
-1.71797e-165
-2.52665e-165
-3.3437e-165
-4.83042e-165
-8.23328e-165
-1.35763e-164
-1.7911e-164
-1.78329e-164
-1.40537e-164
-6.11932e-165
1.70195e-165
8.7947e-165
1.56329e-164
2.05835e-164
2.19712e-164
2.01703e-164
1.66286e-164
1.23596e-164
8.28934e-165
5.01754e-165
2.75226e-165
1.38062e-165
6.41091e-166
2.79146e-166
1.1539e-166
4.58078e-167
1.76443e-167
6.65298e-168
2.47538e-168
9.14868e-169
3.37764e-169
1.25165e-169
4.67464e-170
1.76747e-170
6.78046e-171
2.64503e-171
1.05129e-171
4.26452e-172
1.76796e-172
7.49915e-173
3.25741e-173
1.44988e-173
6.61448e-174
3.08362e-174
1.40072e-174
-2.78088e-165
-9.73226e-165
-2.98707e-164
-7.87732e-164
-1.73518e-163
-3.05489e-163
-3.89511e-163
-1.90651e-163
9.92023e-163
5.64027e-162
1.91505e-161
3.72032e-161
1.62552e-161
4.0015e-162
6.718e-163
1.69038e-163
2.34332e-163
2.86883e-163
3.27376e-163
3.39402e-163
3.13237e-163
2.61644e-163
1.97631e-163