/*--------------------------------*- C++ -*----------------------------------*\
  =========                 |
  \\      /  F ield         | OpenFOAM: The Open Source CFD Toolbox
   \\    /   O peration     | Website:  https://openfoam.org
    \\  /    A nd           | Version:  9
     \\/     M anipulation  |
\*---------------------------------------------------------------------------*/
FoamFile
{
    format      ascii;
    class       volScalarField;
    location    "0.03";
    object      p;
}
// * * * * * * * * * * * * * * * * * * * * * * * * * * * * * * * * * * * * * //

dimensions      [1 -1 -2 0 0 0 0];

internalField   nonuniform List<scalar> 
5000
(
0.71229
0.711535
0.710833
0.710202
0.709665
0.709242
0.708955
0.708824
0.708864
0.709086
0.709495
0.710086
0.710849
0.711763
0.712805
0.713944
0.715149
0.716388
0.717633
0.718854
0.719922
0.720812
0.721608
0.722315
0.722939
0.723486
0.723963
0.724377
0.724735
0.725042
0.725306
0.72553
0.72572
0.725881
0.726016
0.726128
0.726221
0.726298
0.726361
0.726412
0.726453
0.726487
0.726513
0.726533
0.726549
0.726562
0.726572
0.72658
0.726588
0.726602
0.712745
0.712097
0.711498
0.710966
0.710517
0.710167
0.709936
0.709837
0.709882
0.710079
0.710432
0.710935
0.71158
0.712351
0.713227
0.714185
0.7152
0.716244
0.717293
0.718323
0.719222
0.719971
0.720642
0.721237
0.72176
0.722216
0.722612
0.722953
0.723245
0.723494
0.723705
0.723882
0.72403
0.724152
0.724253
0.724335
0.724402
0.724455
0.724497
0.72453
0.724555
0.724574
0.724588
0.724598
0.724606
0.724611
0.724616
0.72462
0.724625
0.72464
0.712567
0.711994
0.711467
0.711001
0.710611
0.710312
0.710118
0.710041
0.710091
0.710275
0.710593
0.711042
0.711613
0.712294
0.713065
0.713908
0.714799
0.715716
0.716636
0.717538
0.718322
0.718975
0.719558
0.720073
0.720523
0.720913
0.721249
0.721535
0.721777
0.72198
0.722149
0.722288
0.7224
0.722491
0.722563
0.722618
0.72266
0.72269
0.722711
0.722725
0.722732
0.722735
0.722733
0.72273
0.722724
0.722717
0.722709
0.722701
0.722694
0.72269
0.712311
0.711803
0.711338
0.710929
0.710589
0.710331
0.710166
0.710107
0.710159
0.710328
0.710616
0.711017
0.711526
0.712129
0.712811
0.713554
0.714338
0.715144
0.715951
0.71674
0.717423
0.717989
0.718492
0.718933
0.719315
0.719642
0.71992
0.720154
0.720347
0.720505
0.720632
0.720733
0.72081
0.720867
0.720908
0.720935
0.72095
0.720955
0.720953
0.720945
0.720931
0.720915
0.720895
0.720873
0.720851
0.720828
0.720804
0.720781
0.720758
0.720737
0.712155
0.711713
0.71131
0.710957
0.710667
0.710448
0.710313
0.710268
0.710322
0.710476
0.710732
0.711086
0.711531
0.712057
0.712649
0.713293
0.71397
0.714663
0.715355
0.716028
0.716608
0.717084
0.717503
0.717867
0.718177
0.718438
0.718655
0.718832
0.718973
0.719083
0.719165
0.719223
0.719262
0.719283
0.719289
0.719284
0.71927
0.719247
0.719219
0.719185
0.719149
0.719109
0.719069
0.719027
0.718985
0.718943
0.718902
0.718861
0.718822
0.718783
0.712037
0.711658
0.711314
0.711015
0.710771
0.71059
0.710481
0.71045
0.710503
0.710643
0.710869
0.711177
0.711561
0.712013
0.712519
0.713067
0.713641
0.714225
0.714804
0.715363
0.71584
0.716227
0.716562
0.716848
0.717085
0.71728
0.717434
0.717553
0.71764
0.717699
0.717734
0.717749
0.717746
0.717729
0.717699
0.71766
0.717614
0.717561
0.717504
0.717443
0.717381
0.717318
0.717254
0.71719
0.717127
0.717065
0.717004
0.716944
0.716887
0.716831
0.711888
0.711569
0.711279
0.711029
0.710826
0.710678
0.710592
0.710573
0.710625
0.710751
0.710948
0.711214
0.711544
0.711928
0.712356
0.712816
0.713294
0.713778
0.714253
0.714705
0.715084
0.715386
0.715641
0.715851
0.716019
0.716147
0.71624
0.716301
0.716334
0.716343
0.716331
0.716301
0.716256
0.716199
0.716132
0.716058
0.715977
0.715893
0.715806
0.715717
0.715627
0.715537
0.715449
0.715361
0.715275
0.715191
0.71511
0.71503
0.714953
0.714878
0.711706
0.711441
0.711202
0.710996
0.71083
0.710712
0.710646
0.710637
0.710687
0.710799
0.71097
0.711199
0.711478
0.7118
0.712157
0.712537
0.712929
0.713319
0.713697
0.714049
0.714336
0.714557
0.714736
0.714873
0.714972
0.715037
0.715069
0.715073
0.715052
0.715011
0.71495
0.714875
0.714788
0.71469
0.714585
0.714474
0.714359
0.714241
0.714122
0.714003
0.713885
0.713768
0.713653
0.71354
0.71343
0.713323
0.713219
0.713119
0.713022
0.712926
0.711508
0.711294
0.711101
0.710937
0.710806
0.710715
0.710667
0.710667
0.710716
0.710815
0.710962
0.711155
0.711388
0.711654
0.711944
0.71225
0.712559
0.712863
0.713148
0.713406
0.713605
0.713748
0.713852
0.713919
0.713951
0.713951
0.713924
0.713871
0.713796
0.713703
0.713594
0.713473
0.713341
0.713202
0.713057
0.712908
0.712757
0.712604
0.712453
0.712302
0.712154
0.712008
0.711865
0.711726
0.711591
0.711459
0.711332
0.71121
0.711091
0.710975
0.7113
0.711136
0.710987
0.710862
0.710764
0.710699
0.710669
0.710677
0.710724
0.710811
0.710937
0.711096
0.711286
0.711499
0.711727
0.711963
0.712195
0.712416
0.712613
0.712779
0.712893
0.71296
0.712991
0.712988
0.712954
0.712891
0.712803
0.712692
0.712563
0.712418
0.71226
0.712091
0.711914
0.711732
0.711546
0.711358
0.71117
0.710982
0.710796
0.710613
0.710433
0.710257
0.710085
0.709919
0.709757
0.7096
0.709449
0.709303
0.709162
0.709024
0.711081
0.710965
0.710859
0.710771
0.710705
0.710664
0.710651
0.710667
0.710714
0.710791
0.710895
0.711025
0.711174
0.711338
0.711508
0.711677
0.711837
0.711977
0.712091
0.712169
0.712199
0.712192
0.712152
0.71208
0.711979
0.711853
0.711704
0.711536
0.711351
0.711153
0.710945
0.710728
0.710505
0.710279
0.710051
0.709823
0.709596
0.709372
0.709151
0.708933
0.708721
0.708514
0.708313
0.708117
0.707928
0.707745
0.707569
0.707398
0.707234
0.707073
0.71085
0.71078
0.710716
0.710665
0.710629
0.710612
0.710615
0.71064
0.710687
0.710754
0.71084
0.710942
0.711054
0.711171
0.711287
0.711393
0.711483
0.711548
0.711581
0.711573
0.711523
0.711443
0.711331
0.711191
0.711025
0.710835
0.710626
0.710399
0.710159
0.709908
0.709648
0.709382
0.709113
0.708842
0.708572
0.708302
0.708036
0.707774
0.707516
0.707264
0.707018
0.706779
0.706547
0.706322
0.706105
0.705894
0.705692
0.705496
0.705308
0.705123
0.710608
0.710582
0.710559
0.710544
0.710539
0.710545
0.710566
0.710599
0.710647
0.710706
0.710775
0.710851
0.710929
0.711003
0.711067
0.711114
0.711138
0.711131
0.711085
0.710994
0.710864
0.710712
0.710531
0.710322
0.71009
0.709837
0.709566
0.709281
0.708984
0.708679
0.708368
0.708053
0.707736
0.70742
0.707105
0.706794
0.706487
0.706186
0.705892
0.705604
0.705324
0.705052
0.704788
0.704532
0.704285
0.704047
0.703817
0.703595
0.703382
0.703172
0.710356
0.710375
0.710392
0.710413
0.710438
0.710469
0.710506
0.71055
0.710599
0.710652
0.710707
0.710759
0.710804
0.710837
0.710853
0.710844
0.710804
0.710727
0.710605
0.710433
0.710225
0.710002
0.70975
0.709474
0.709175
0.708858
0.708526
0.708181
0.707828
0.707468
0.707104
0.706738
0.706373
0.706011
0.705652
0.705298
0.70495
0.704609
0.704276
0.703952
0.703636
0.70333
0.703033
0.702747
0.702469
0.702202
0.701944
0.701696
0.701457
0.701222
0.710095
0.710159
0.710217
0.710274
0.71033
0.710385
0.710441
0.710496
0.710548
0.710597
0.710638
0.710669
0.710684
0.710679
0.710649
0.710586
0.710486
0.71034
0.710144
0.709892
0.709606
0.709312
0.708991
0.708646
0.708281
0.707899
0.707504
0.707099
0.706688
0.706273
0.705855
0.705439
0.705025
0.704614
0.70421
0.703812
0.703422
0.70304
0.702668
0.702306
0.701955
0.701614
0.701284
0.700965
0.700657
0.700359
0.700073
0.699797
0.699532
0.699272
0.709829
0.709938
0.710037
0.71013
0.710218
0.710299
0.710374
0.710441
0.710498
0.710544
0.710574
0.710585
0.710573
0.710533
0.710458
0.710344
0.710185
0.709973
0.709704
0.709374
0.709011
0.708646
0.708255
0.707841
0.707408
0.706961
0.706503
0.706037
0.705566
0.705094
0.704623
0.704153
0.703689
0.70323
0.702778
0.702336
0.701902
0.701479
0.701067
0.700667
0.700278
0.699902
0.699537
0.699185
0.698846
0.698518
0.698203
0.6979
0.697608
0.697321
0.709558
0.709712
0.709854
0.709985
0.710105
0.710213
0.710309
0.710389
0.710453
0.710497
0.710518
0.710512
0.710475
0.710401
0.710285
0.710121
0.709905
0.709629
0.709289
0.70888
0.708442
0.708006
0.707545
0.707061
0.70656
0.706046
0.705523
0.704995
0.704464
0.703933
0.703406
0.702882
0.702366
0.701857
0.701358
0.700868
0.700391
0.699925
0.699472
0.699032
0.698606
0.698193
0.697794
0.697408
0.697036
0.696678
0.696333
0.696002
0.695683
0.69537
0.709284
0.709486
0.70967
0.70984
0.709994
0.710131
0.710248
0.710344
0.710416
0.710461
0.710475
0.710453
0.710392
0.710287
0.710132
0.709921
0.709649
0.709311
0.708901
0.708415
0.707901
0.707395
0.706862
0.706308
0.705738
0.705157
0.704568
0.703975
0.703382
0.702791
0.702205
0.701626
0.701056
0.700495
0.699946
0.69941
0.698886
0.698377
0.697882
0.697402
0.696936
0.696486
0.696052
0.695632
0.695228
0.694838
0.694464
0.694104
0.693758
0.693419
0.70901
0.70926
0.709489
0.7097
0.709889
0.710055
0.710196
0.710309
0.710391
0.710438
0.710447
0.710412
0.71033
0.710195
0.710003
0.709746
0.709421
0.709022
0.708543
0.707981
0.707391
0.706814
0.706211
0.705586
0.704946
0.704295
0.703638
0.70298
0.702322
0.701669
0.701023
0.700386
0.69976
0.699146
0.698546
0.69796
0.697389
0.696835
0.696296
0.695775
0.69527
0.694782
0.694311
0.693857
0.69342
0.692999
0.692594
0.692205
0.691832
0.691466
0.708738
0.709037
0.709313
0.709565
0.709791
0.709989
0.710156
0.710287
0.710381
0.710433
0.710438
0.710392
0.710291
0.710129
0.709901
0.709601
0.709224
0.708764
0.708218
0.707581
0.706916
0.706269
0.705594
0.704898
0.704186
0.703465
0.702738
0.702011
0.701287
0.700569
0.699861
0.699163
0.698479
0.69781
0.697156
0.696519
0.6959
0.695298
0.694716
0.694151
0.693606
0.693079
0.692571
0.692082
0.691611
0.691158
0.690723
0.690306
0.689906
0.689513
0.70847
0.708821
0.709144
0.70944
0.709705
0.709936
0.710129
0.710282
0.710389
0.710447
0.710451
0.710397
0.710279
0.710091
0.709829
0.709487
0.70906
0.708542
0.707929
0.707218
0.706478
0.70576
0.705013
0.704245
0.703461
0.702667
0.701869
0.701072
0.700279
0.699494
0.698721
0.69796
0.697216
0.696488
0.695779
0.695089
0.694419
0.693769
0.69314
0.692532
0.691945
0.691378
0.690833
0.690307
0.689802
0.689317
0.688851
0.688405
0.687978
0.687558
0.70821
0.708613
0.708986
0.709327
0.709632
0.709897
0.71012
0.710295
0.710418
0.710485
0.71049
0.710428
0.710295
0.710084
0.70979
0.709408
0.708932
0.708357
0.707679
0.706893
0.706079
0.705291
0.704472
0.703631
0.702773
0.701906
0.701035
0.700165
0.699301
0.698447
0.697606
0.69678
0.695972
0.695184
0.694417
0.693671
0.692948
0.692248
0.691571
0.690918
0.690287
0.68968
0.689095
0.688533
0.687994
0.687476
0.686979
0.686504
0.686049
0.685603
0.707959
0.708416
0.70884
0.709228
0.709575
0.709877
0.71013
0.71033
0.710471
0.710548
0.710556
0.71049
0.710343
0.710111
0.709788
0.709367
0.708843
0.708212
0.70747
0.706611
0.705723
0.704864
0.703972
0.703057
0.702125
0.701183
0.700237
0.699293
0.698357
0.697431
0.69652
0.695626
0.694753
0.693901
0.693073
0.692269
0.691491
0.690738
0.690011
0.68931
0.688635
0.687985
0.687361
0.686761
0.686186
0.685634
0.685106
0.684601
0.684119
0.683645
0.70772
0.708233
0.70871
0.709145
0.709536
0.709877
0.710163
0.710388
0.710549
0.710639
0.710652
0.710583
0.710426
0.710175
0.709823
0.709366
0.708797
0.708111
0.707305
0.706374
0.705411
0.704481
0.703517
0.702526
0.701519
0.700501
0.699479
0.69846
0.697448
0.696449
0.695466
0.694502
0.69356
0.692642
0.691751
0.690886
0.69005
0.689242
0.688463
0.687712
0.68699
0.686296
0.68563
0.684991
0.684379
0.683793
0.683233
0.682698
0.682187
0.681686
0.707496
0.708066
0.708597
0.709082
0.709518
0.709899
0.710219
0.710473
0.710656
0.71076
0.710781
0.710712
0.710546
0.710278
0.7099
0.709408
0.708795
0.708056
0.707187
0.706183
0.705147
0.704145
0.703107
0.702042
0.700957
0.699862
0.698764
0.697668
0.69658
0.695505
0.694447
0.693411
0.692398
0.691412
0.690454
0.689526
0.688629
0.687763
0.686929
0.686127
0.685356
0.684616
0.683906
0.683227
0.682577
0.681955
0.681361
0.680795
0.680255
0.679726
0.707288
0.707917
0.708503
0.70904
0.709523
0.709945
0.710302
0.710587
0.710793
0.710915
0.710945
0.710878
0.710706
0.710423
0.710022
0.709496
0.708841
0.70805
0.707119
0.706044
0.704933
0.70386
0.702747
0.701605
0.700444
0.699271
0.698094
0.69692
0.695754
0.694602
0.693468
0.692357
0.691271
0.690214
0.689188
0.688194
0.687233
0.686307
0.685415
0.684558
0.683735
0.682947
0.682192
0.68147
0.68078
0.680121
0.679492
0.678893
0.678323
0.677764
0.707099
0.707788
0.708431
0.709021
0.709552
0.710018
0.710413
0.71073
0.710963
0.711104
0.711147
0.711084
0.710909
0.710613
0.710191
0.709635
0.708939
0.708097
0.707105
0.705959
0.704773
0.703627
0.70244
0.701221
0.699982
0.69873
0.697473
0.696219
0.694974
0.693744
0.692532
0.691344
0.690184
0.689054
0.687956
0.686894
0.685867
0.684877
0.683925
0.683011
0.682134
0.681294
0.680491
0.679724
0.678991
0.678292
0.677626
0.676993
0.676391
0.6758
0.706929
0.70768
0.708382
0.709027
0.709608
0.71012
0.710555
0.710907
0.711169
0.711332
0.71139
0.711335
0.711158
0.710853
0.710412
0.709828
0.709093
0.708202
0.707149
0.705932
0.704671
0.703453
0.702189
0.700893
0.699573
0.698241
0.696903
0.695569
0.694243
0.692932
0.691642
0.690376
0.689139
0.687934
0.686764
0.685631
0.684536
0.68348
0.682465
0.68149
0.680556
0.679662
0.678808
0.677993
0.677215
0.676474
0.675767
0.675097
0.674459
0.673834
0.706781
0.707596
0.708358
0.709059
0.709693
0.710253
0.710731
0.711121
0.711414
0.711602
0.711678
0.711633
0.711459
0.711147
0.71069
0.710079
0.709308
0.708369
0.707257
0.705968
0.704633
0.70334
0.701999
0.700623
0.699223
0.697808
0.696388
0.69497
0.693562
0.69217
0.6908
0.689455
0.688141
0.68686
0.685616
0.68441
0.683244
0.68212
0.681039
0.680002
0.679008
0.678056
0.677148
0.676281
0.675454
0.674667
0.673917
0.673206
0.67253
0.671866
0.706656
0.707536
0.70836
0.70912
0.709809
0.71042
0.710944
0.711374
0.711701
0.711918
0.712016
0.711984
0.711816
0.7115
0.71103
0.710395
0.709589
0.708604
0.707434
0.706074
0.704662
0.703294
0.701875
0.700417
0.698933
0.697434
0.695929
0.694427
0.692936
0.691461
0.69001
0.688585
0.687192
0.685834
0.684514
0.683234
0.681996
0.680803
0.679654
0.678551
0.677494
0.676482
0.675515
0.674593
0.673714
0.672876
0.672079
0.671321
0.670603
0.669897
0.706553
0.707501
0.70839
0.709212
0.709959
0.710623
0.711196
0.71167
0.712036
0.712285
0.712408
0.712394
0.712234
0.711918
0.711437
0.710781
0.709942
0.708912
0.707684
0.706254
0.704765
0.703321
0.701822
0.70028
0.69871
0.697124
0.695532
0.693944
0.692367
0.690808
0.689274
0.687768
0.686295
0.684859
0.683462
0.682107
0.680796
0.679531
0.678312
0.677141
0.676018
0.674943
0.673915
0.672933
0.671997
0.671104
0.670254
0.669446
0.668679
0.667925
0.706475
0.707493
0.70845
0.709336
0.710144
0.710866
0.711492
0.712014
0.712423
0.712708
0.71286
0.712867
0.712719
0.712407
0.711918
0.711244
0.710374
0.709301
0.708016
0.706515
0.704949
0.703427
0.701845
0.700218
0.69856
0.696884
0.695203
0.693525
0.69186
0.690215
0.688595
0.687006
0.685452
0.683936
0.682461
0.68103
0.679645
0.678307
0.677017
0.675776
0.674585
0.673443
0.67235
0.671304
0.670306
0.669353
0.668445
0.667581
0.66676
0.665952
0.70642
0.707511
0.708539
0.709495
0.710368
0.711152
0.711836
0.712411
0.712867
0.713192
0.713377
0.71341
0.713278
0.712972
0.712479
0.711789
0.710891
0.709775
0.708435
0.706863
0.705219
0.703619
0.701953
0.700238
0.698489
0.696722
0.694947
0.693177
0.69142
0.689685
0.687977
0.686302
0.684664
0.683067
0.681513
0.680004
0.678543
0.677131
0.675769
0.674456
0.673194
0.671982
0.67082
0.669707
0.668642
0.667625
0.666653
0.665727
0.664845
0.663976
0.706388
0.707558
0.708661
0.70969
0.710634
0.711485
0.712232
0.712864
0.713372
0.713743
0.713966
0.714028
0.713917
0.71362
0.713126
0.712422
0.711497
0.710342
0.708947
0.707305
0.705584
0.703905
0.702154
0.700349
0.698507
0.696644
0.694774
0.692907
0.691055
0.689226
0.687426
0.685661
0.683936
0.682254
0.680618
0.67903
0.677491
0.676003
0.674565
0.673179
0.671843
0.670558
0.669324
0.66814
0.667004
0.665916
0.664875
0.663881
0.662932
0.661997
0.70638
0.707632
0.708816
0.709923
0.710944
0.711867
0.712682
0.713379
0.713944
0.714365
0.714631
0.714726
0.714639
0.714356
0.713864
0.713149
0.712201
0.711007
0.709559
0.707848
0.706049
0.704291
0.702455
0.700559
0.698622
0.696661
0.694691
0.692724
0.690772
0.688843
0.686946
0.685087
0.68327
0.6815
0.679778
0.678106
0.676486
0.674918
0.673403
0.671939
0.670527
0.669166
0.667856
0.666596
0.665386
0.664223
0.663108
0.662041
0.661021
0.660013
0.706396
0.707735
0.709006
0.710197
0.7113
0.712302
0.713192
0.713958
0.714586
0.715063
0.715376
0.71551
0.715452
0.715185
0.714698
0.713976
0.713005
0.711776
0.710276
0.708498
0.706622
0.704786
0.702863
0.700876
0.698842
0.696781
0.694708
0.692636
0.690579
0.688546
0.686547
0.684587
0.682673
0.680808
0.678994
0.677234
0.675527
0.673874
0.672276
0.67073
0.669238
0.667797
0.666408
0.665069
0.663779
0.662539
0.661346
0.660202
0.659105
0.658023
0.706435
0.707867
0.70923
0.710513
0.711704
0.712791
0.713763
0.714604
0.715302
0.715841
0.716207
0.716384
0.716358
0.716112
0.715633
0.714906
0.713917
0.712654
0.711105
0.709261
0.70731
0.705395
0.703387
0.701307
0.699176
0.697012
0.694833
0.692653
0.690486
0.688344
0.686235
0.684169
0.68215
0.680182
0.678269
0.676412
0.674611
0.672867
0.671179
0.669546
0.667967
0.666442
0.664968
0.663546
0.662174
0.660852
0.659579
0.658356
0.657183
0.656023
0.706497
0.708028
0.70949
0.71087
0.712157
0.713337
0.714397
0.715321
0.716094
0.7167
0.717125
0.71735
0.717361
0.717141
0.716675
0.715946
0.714942
0.713647
0.712051
0.710143
0.708117
0.706125
0.704032
0.701859
0.699629
0.697361
0.695073
0.692782
0.690501
0.688244
0.686021
0.68384
0.681707
0.679629
0.677606
0.675643
0.673738
0.671894
0.670107
0.668379
0.666707
0.66509
0.663528
0.662018
0.66056
0.659154
0.657799
0.656497
0.655247
0.654011
0.706581
0.708218
0.709785
0.711271
0.712661
0.713941
0.715095
0.716108
0.716963
0.717644
0.718133
0.718413
0.718466
0.718276
0.717827
0.717101
0.716085
0.714762
0.71312
0.711149
0.70905
0.706981
0.704802
0.702536
0.700206
0.697833
0.695434
0.693029
0.690631
0.688254
0.685909
0.683606
0.681352
0.679152
0.67701
0.674929
0.672911
0.670954
0.66906
0.667226
0.665453
0.663737
0.662079
0.660477
0.658931
0.657439
0.656002
0.65462
0.653295
0.651985
0.706686
0.708435
0.710116
0.711713
0.713214
0.714601
0.715857
0.716967
0.717912
0.718673
0.719234
0.719574
0.719677
0.719523
0.719096
0.718378
0.717353
0.716005
0.71432
0.712287
0.710114
0.707967
0.705701
0.703341
0.70091
0.69843
0.695919
0.693397
0.690878
0.688377
0.685905
0.683473
0.681088
0.678758
0.676486
0.674277
0.672132
0.670053
0.668039
0.666091
0.664206
0.662385
0.660625
0.658927
0.657288
0.655709
0.654188
0.652728
0.651328
0.649944
0.706813
0.708681
0.710481
0.712198
0.713815
0.715317
0.716684
0.717898
0.71894
0.71979
0.72043
0.720839
0.720998
0.720888
0.72049
0.719785
0.718756
0.717385
0.715659
0.713564
0.711316
0.709089
0.706735
0.704278
0.701744
0.699154
0.696528
0.693886
0.691242
0.688612
0.686008
0.68344
0.680918
0.678448
0.676038
0.673691
0.67141
0.669198
0.667055
0.664982
0.662979
0.661046
0.659181
0.657383
0.65565
0.653982
0.652376
0.650834
0.649356
0.647892
0.706959
0.708952
0.710878
0.712722
0.714465
0.716088
0.717573
0.7189
0.720048
0.720996
0.721725
0.722212
0.722436
0.722378
0.722016
0.72133
0.720302
0.718912
0.717145
0.714988
0.712663
0.710354
0.707907
0.70535
0.702708
0.700005
0.69726
0.694492
0.691719
0.688955
0.686213
0.683505
0.680839
0.678225
0.675669
0.673176
0.670751
0.668399
0.66612
0.663918
0.661794
0.659746
0.657776
0.65588
0.654057
0.652303
0.650614
0.648989
0.647421
0.645844
0.707122
0.709247
0.711307
0.713284
0.715159
0.716913
0.718526
0.719975
0.721239
0.722295
0.723123
0.723698
0.723999
0.724002
0.723684
0.723024
0.722001
0.720596
0.71879
0.716569
0.714164
0.711768
0.709225
0.706562
0.703807
0.700983
0.698112
0.695213
0.692305
0.689401
0.686516
0.683661
0.680848
0.678084
0.675377
0.672735
0.670163
0.667667
0.665251
0.662919
0.660674
0.658516
0.656446
0.654464
0.652566
0.650748
0.649006
0.647336
0.645729
0.644011
0.707301
0.709564
0.711765
0.713883
0.715899
0.717792
0.719541
0.721123
0.722514
0.723691
0.72463
0.725306
0.725694
0.725768
0.725504
0.724877
0.723866
0.722447
0.720603
0.718318
0.715829
0.713343
0.710696
0.70792
0.705043
0.70209
0.699084
0.696046
0.692993
0.689942
0.686908
0.683902
0.680936
0.678019
0.675161
0.672368
0.66965
0.667012
0.664461
0.662001
0.659638
0.657374
0.655213
0.653157
0.651207
0.649366
0.647636
0.64603
0.644573
0.643123
0.707493
0.709901
0.712249
0.714516
0.716681
0.718724
0.72062
0.722347
0.723878
0.72519
0.726253
0.727043
0.72753
0.727687
0.727486
0.726901
0.725906
0.724478
0.722598
0.720247
0.717671
0.715088
0.712331
0.709434
0.706425
0.703332
0.70018
0.696991
0.693784
0.690577
0.687385
0.684222
0.681099
0.678027
0.675016
0.672076
0.669213
0.666438
0.663755
0.66117
0.658689
0.656315
0.654051
0.651898
0.649855
0.647922
0.646092
0.644362
0.642739
0.641158
0.707696
0.710255
0.712758
0.715182
0.717507
0.71971
0.721766
0.723651
0.725337
0.726796
0.727999
0.728916
0.729515
0.729767
0.72964
0.729104
0.728133
0.7267
0.724784
0.722367
0.719701
0.717017
0.714143
0.711114
0.707963
0.704719
0.701409
0.698057
0.694684
0.69131
0.687951
0.684623
0.681338
0.678108
0.674945
0.671858
0.668857
0.665948
0.663138
0.660433
0.657835
0.655347
0.65297
0.650704
0.648547
0.646494
0.64454
0.642681
0.64092
0.639221
0.707904
0.710623
0.713289
0.71588
0.718376
0.720751
0.722981
0.725039
0.726894
0.728517
0.729874
0.730933
0.731658
0.732017
0.731974
0.731497
0.730555
0.729122
0.727174
0.72469
0.721931
0.71914
0.716142
0.712974
0.709671
0.706265
0.702786
0.699259
0.695708
0.692155
0.688619
0.685117
0.681663
0.678272
0.674956
0.671724
0.668586
0.665549
0.662617
0.659794
0.657082
0.65448
0.651989
0.649605
0.647324
0.645143
0.643057
0.64106
0.639154
0.637312
0.708116
0.711002
0.71384
0.71661
0.719289
0.721851
0.724269
0.726515
0.728556
0.730358
0.731885
0.7331
0.733965
0.734445
0.734496
0.734086
0.733182
0.731754
0.729776
0.727225
0.724371
0.721471
0.718343
0.715028
0.711565
0.707987
0.704328
0.700616
0.696877
0.693136
0.689413
0.685729
0.6821
0.678543
0.675069
0.671691
0.668415
0.665249
0.662194
0.659253
0.656425
0.653708
0.651097
0.648588
0.646176
0.643857
0.641625
0.639477
0.637413
0.635419
0.708326
0.711389
0.714411
0.717372
0.720247
0.723011
0.725634
0.728084
0.730326
0.732324
0.734037
0.735423
0.736439
0.737055
0.737211
0.736879
0.736021
0.734604
0.7326
0.729984
0.727033
0.724019
0.720757
0.717289
0.713659
0.709903
0.706057
0.702152
0.698217
0.69428
0.690364
0.686492
0.682683
0.678953
0.675316
0.671784
0.668364
0.665059
0.661873
0.658803
0.655846
0.652999
0.650255
0.647607
0.645052
0.642583
0.640198
0.637894
0.635675
0.63353
0.70853
0.71178
0.714998
0.718164
0.721251
0.724232
0.727076
0.729748
0.732209
0.734418
0.736332
0.737905
0.739092
0.739849
0.740126
0.739883
0.73908
0.737682
0.735656
0.732977
0.729928
0.726798
0.723396
0.719772
0.715969
0.71203
0.707993
0.703891
0.699757
0.695621
0.691509
0.687445
0.68345
0.679542
0.675734
0.672036
0.668455
0.664995
0.661655
0.658432
0.655323
0.65232
0.649419
0.646614
0.643899
0.641273
0.638733
0.636282
0.633924
0.631643
0.708723
0.712173
0.7156
0.718985
0.7223
0.725515
0.728597
0.731507
0.734203
0.736641
0.738772
0.740549
0.74192
0.742836
0.743247
0.743106
0.742369
0.740998
0.738956
0.736217
0.733069
0.72982
0.726276
0.722491
0.718513
0.714387
0.710155
0.705855
0.701522
0.697186
0.692878
0.688621
0.684437
0.680343
0.676352
0.672474
0.668713
0.665071
0.661547
0.658139
0.654842
0.651652
0.648565
0.645579
0.64269
0.6399
0.637209
0.634621
0.632144
0.629749
0.708902
0.712562
0.716213
0.719833
0.723392
0.726858
0.730194
0.733359
0.736308
0.738992
0.741359
0.743357
0.744929
0.746022
0.746583
0.746558
0.745901
0.744566
0.742517
0.73972
0.736472
0.733102
0.729414
0.725464
0.721307
0.716991
0.712563
0.708064
0.70353
0.698997
0.694492
0.690041
0.685663
0.681376
0.677189
0.673112
0.669146
0.665295
0.661556
0.657929
0.654411
0.651002
0.647702
0.644513
0.641437
0.638477
0.635637
0.632921
0.630337
0.627843
0.70906
0.712944
0.716833
0.720702
0.724521
0.728254
0.731863
0.735302
0.738522
0.741471
0.744093
0.746331
0.748125
0.749416
0.750144
0.750254
0.74969
0.748405
0.746355
0.743505
0.740159
0.736667
0.732831
0.728713
0.724373
0.719864
0.715236
0.710534
0.705799
0.701064
0.696359
0.691707
0.687127
0.682634
0.678237
0.67394
0.669748
0.665662
0.661682
0.657809
0.654048
0.6504
0.646873
0.643471
0.640201
0.63707
0.63408
0.631233
0.628535
0.625937
0.709193
0.713312
0.717452
0.721586
0.72568
0.729698
0.733597
0.737328
0.740839
0.744075
0.746975
0.749477
0.751516
0.753027
0.753947
0.754209
0.753757
0.752535
0.750495
0.747598
0.744156
0.74054
0.736554
0.732265
0.727737
0.723029
0.718196
0.713286
0.708341
0.703395
0.698477
0.693611
0.688813
0.684096
0.679467
0.67493
0.67049
0.66615
0.661913
0.657786
0.653776
0.64989
0.646139
0.64253
0.639072
0.635768
0.63262
0.629625
0.626784
0.624046
0.709293
0.71366
0.718063
0.722476
0.726862
0.731181
0.735388
0.739432
0.743258
0.746804
0.750008
0.752801
0.755113
0.756872
0.758006
0.758445
0.758123
0.75698
0.754961
0.752025
0.74849
0.744753
0.740615
0.736151
0.731431
0.726518
0.721471
0.71634
0.71117
0.705996
0.700846
0.695742
0.6907
0.685732
0.680844
0.676044
0.671338
0.666732
0.662235
0.657857
0.653609
0.649502
0.645545
0.641746
0.638107
0.63463
0.631308
0.628134
0.625107
0.622181
0.709353
0.713977
0.718657
0.723361
0.728054
0.732692
0.737228
0.741608
0.745774
0.74966
0.753198
0.756313
0.758929
0.760965
0.762341
0.762981
0.762811
0.761764
0.759781
0.756815
0.753192
0.749336
0.745047
0.740405
0.735486
0.73036
0.725087
0.719721
0.714306
0.708879
0.703468
0.698094
0.692775
0.687523
0.682348
0.67726
0.672271
0.667391
0.662636
0.658017
0.653548
0.649237
0.645092
0.641113
0.637298
0.633638
0.630122
0.626739
0.623487
0.620335
0.709364
0.714255
0.719221
0.72423
0.729245
0.734221
0.739108
0.743851
0.748386
0.752644
0.75655
0.760022
0.762976
0.765322
0.766971
0.767839
0.767844
0.766913
0.76498
0.761996
0.758292
0.75432
0.749879
0.745057
0.739934
0.734584
0.72907
0.723449
0.717765
0.712057
0.706352
0.700675
0.695044
0.689476
0.683986
0.678589
0.673303
0.668145
0.663132
0.658277
0.653592
0.64908
0.644744
0.640577
0.636567
0.632703
0.62897
0.625359
0.621875
0.618493
0.709315
0.71448
0.719743
0.725071
0.730424
0.735759
0.741022
0.746156
0.751093
0.755758
0.760069
0.763936
0.767265
0.769956
0.771912
0.773038
0.773244
0.77245
0.770585
0.767596
0.763819
0.759732
0.755139
0.750132
0.744796
0.739208
0.733437
0.727539
0.72156
0.715541
0.709512
0.703501
0.69753
0.691621
0.685796
0.680077
0.674487
0.669045
0.663768
0.65867
0.653754
0.64902
0.644462
0.640068
0.635825
0.631723
0.627752
0.623913
0.620217
0.616636
0.709192
0.71464
0.72021
0.725869
0.73158
0.737295
0.742963
0.74852
0.753894
0.759005
0.763761
0.768062
0.771805
0.774879
0.777178
0.778595
0.779032
0.7784
0.776624
0.773642
0.769797
0.765597
0.760848
0.755646
0.750084
0.744243
0.738192
0.731992
0.725692
0.719335
0.712957
0.706588
0.700258
0.693995
0.687828
0.681784
0.675887
0.670156
0.664605
0.659241
0.654063
0.649065
0.644236
0.639564
0.635043
0.63067
0.626448
0.622387
0.618508
0.614763
0.708982
0.71472
0.720608
0.726614
0.732701
0.738822
0.744923
0.750937
0.756786
0.762382
0.767623
0.772402
0.776601
0.780101
0.782782
0.784528
0.78523
0.78479
0.783122
0.780162
0.776253
0.771938
0.767023
0.761614
0.755807
0.749689
0.743333
0.736803
0.730155
0.723435
0.716685
0.709943
0.703245
0.696626
0.690118
0.68375
0.677544
0.671517
0.665674
0.660016
0.654539
0.649232
0.644088
0.639102
0.634276
0.62962
0.625146
0.620869
0.616807
0.612896
0.708668
0.714704
0.720921
0.72729
0.733775
0.740329
0.746894
0.7534
0.759762
0.765883
0.771654
0.776954
0.781656
0.785628
0.788738
0.790858
0.791863
0.791646
0.790112
0.787186
0.783216
0.778779
0.773686
0.768049
0.761973
0.755548
0.748856
0.741966
0.734941
0.727833
0.720693
0.713566
0.706495
0.699518
0.69267
0.685976
0.679454
0.673113
0.666955
0.660973
0.655163
0.649519
0.644041
0.638736
0.633615
0.628693
0.623984
0.619496
0.615226
0.611082
0.708233
0.714575
0.721134
0.727884
0.73479
0.741804
0.748864
0.755897
0.76281
0.769499
0.775844
0.781715
0.786972
0.791471
0.795063
0.797605
0.79896
0.799003
0.797627
0.79475
0.790718
0.78615
0.780861
0.774972
0.768596
0.761833
0.754771
0.747488
0.740056
0.732537
0.724988
0.717463
0.710009
0.702667
0.695468
0.688432
0.681572
0.67489
0.668385
0.662049
0.655883
0.649888
0.644077
0.638463
0.633059
0.627878
0.622923
0.618203
0.613732
0.609381
0.707659
0.714315
0.72123
0.72838
0.735729
0.743229
0.750816
0.75841
0.765914
0.773216
0.780185
0.786683
0.792554
0.79764
0.801776
0.804798
0.806553
0.806896
0.805708
0.802893
0.798798
0.794086
0.788581
0.782412
0.775705
0.768568
0.761101
0.753394
0.745526
0.737571
0.729595
0.721656
0.713803
0.706076
0.6985
0.691093
0.683858
0.676799
0.669913
0.663202
0.656672
0.650338
0.644217
0.638328
0.632677
0.627263
0.622067
0.617074
0.612297
0.607629
0.706924
0.713905
0.721189
0.728756
0.736571
0.744584
0.752728
0.760919
0.769055
0.777017
0.784668
0.791854
0.798407
0.804151
0.808899
0.812467
0.814677
0.815366
0.814394
0.811655
0.807495
0.802627
0.796881
0.790403
0.78333
0.775785
0.767881
0.759718
0.751389
0.742976
0.734552
0.726178
0.717903
0.70976
0.701773
0.693953
0.686303
0.678829
0.671536
0.664434
0.65754
0.650873
0.64445
0.638281
0.632364
0.626681
0.621203
0.615904
0.610804
0.605815
0.706009
0.713322
0.720989
0.728989
0.73729
0.745839
0.75457
0.763396
0.77221
0.780887
0.789281
0.797226
0.804538
0.811018
0.816456
0.820641
0.823369
0.824451
0.823728
0.82108
0.81685
0.811809
0.805797
0.798978
0.791503
0.783515
0.775139
0.766492
0.757675
0.74878
0.739885
0.73105
0.722321
0.713728
0.70529
0.697018
0.688918
0.681001
0.673283
0.665783
0.65852
0.65151
0.644759
0.638262
0.632005
0.625966
0.620128
0.614487
0.609083
0.603872
0.704892
0.712544
0.720602
0.729049
0.737852
0.746962
0.75631
0.765809
0.775352
0.784805
0.794014
0.802798
0.810954
0.818257
0.82447
0.82935
0.832663
0.834192
0.833753
0.83121
0.826902
0.821668
0.81536
0.808162
0.800247
0.791776
0.782892
0.773726
0.764391
0.754985
0.745586
0.736256
0.727037
0.717955
0.70903
0.700275
0.691703
0.683333
0.675188
0.667291
0.659661
0.652303
0.645211
0.638365
0.631747
0.625343
0.619152
0.613192