/*--------------------------------*- C++ -*----------------------------------*\
  =========                 |
  \\      /  F ield         | OpenFOAM: The Open Source CFD Toolbox
   \\    /   O peration     | Website:  https://openfoam.org
    \\  /    A nd           | Version:  9
     \\/     M anipulation  |
\*---------------------------------------------------------------------------*/
FoamFile
{
    format      ascii;
    class       volScalarField;
    location    "0.03";
    object      p_rgh;
}
// * * * * * * * * * * * * * * * * * * * * * * * * * * * * * * * * * * * * * //

dimensions      [1 -1 -2 0 0 0 0];

internalField   nonuniform List<scalar> 
5000
(
-0.0143233
-0.0150789
-0.015781
-0.0164111
-0.0169485
-0.0173715
-0.0176585
-0.0177899
-0.0177499
-0.0175276
-0.0171189
-0.0165275
-0.0157649
-0.0148503
-0.0138088
-0.01267
-0.011465
-0.0102252
-0.00898072
-0.00775924
-0.00669175
-0.00580188
-0.00500529
-0.00429816
-0.00367458
-0.00312775
-0.00265071
-0.00223658
-0.00187877
-0.00157107
-0.0013077
-0.00108334
-0.00089312
-0.000732664
-0.00059802
-0.000485655
-0.000392431
-0.000315567
-0.000252612
-0.000201417
-0.000160107
-0.000127058
-0.000100865
-8.03048e-05
-6.42834e-05
-5.17905e-05
-4.1849e-05
-3.36348e-05
-2.54817e-05
-1.14305e-05
-0.0119068
-0.0125548
-0.0131531
-0.0136856
-0.0141351
-0.0144841
-0.0147158
-0.0148149
-0.0147696
-0.0145721
-0.0142199
-0.0137165
-0.0130717
-0.0123009
-0.0114245
-0.0104662
-0.00945176
-0.00840724
-0.00735809
-0.00632831
-0.0054297
-0.00468025
-0.00400933
-0.00341461
-0.00289174
-0.00243531
-0.00203949
-0.00169837
-0.00140616
-0.00115737
-0.000946836
-0.000769818
-0.000621972
-0.000499374
-0.000398495
-0.000316191
-0.00024967
-0.000196469
-0.000154423
-0.000121635
-9.64516e-05
-7.74345e-05
-6.33365e-05
-5.30631e-05
-4.56226e-05
-4.00935e-05
-3.5651e-05
-3.17108e-05
-2.67116e-05
-1.18134e-05
-0.0101226
-0.0106958
-0.0112225
-0.0116883
-0.0120782
-0.0123773
-0.0125716
-0.0126484
-0.0125981
-0.0124147
-0.0120968
-0.0116477
-0.0110763
-0.0103959
-0.00962411
-0.00878145
-0.00789023
-0.00697336
-0.00605328
-0.0051515
-0.00436708
-0.00371428
-0.00313139
-0.00261674
-0.00216667
-0.00177646
-0.00144092
-0.00115474
-0.000912632
-0.00070957
-0.000540817
-0.000401994
-0.000289101
-0.000198517
-0.00012699
-7.16216e-05
-2.98456e-05
5.98457e-07
2.16913e-05
3.51614e-05
4.25115e-05
4.50437e-05
4.38801e-05
3.99844e-05
3.41932e-05
2.72456e-05
1.97313e-05
1.18504e-05
4.19174e-06
3.14017e-07
-0.00841702
-0.00892473
-0.00938974
-0.00979874
-0.0101387
-0.0103968
-0.0105611
-0.010621
-0.0105686
-0.0103992
-0.0101119
-0.0097102
-0.00920193
-0.00859903
-0.00791695
-0.00717376
-0.00638914
-0.00558342
-0.00477662
-0.00398778
-0.00330427
-0.00273812
-0.00223545
-0.00179478
-0.00141274
-0.00108507
-0.000807063
-0.000573813
-0.00038048
-0.00022241
-9.52218e-05
5.13986e-06
8.23865e-05
0.000139879
0.000180638
0.000207351
0.000222399
0.00022787
0.000225587
0.00021713
0.000203861
0.000186943
0.000167357
0.000145923
0.000123316
0.000100107
7.67331e-05
5.32872e-05
3.01677e-05
9.00208e-06
-0.00661022
-0.00705214
-0.00745548
-0.00780809
-0.00809897
-0.00831729
-0.00845289
-0.00849718
-0.00844379
-0.00828922
-0.00803322
-0.00767915
-0.00723413
-0.00670869
-0.00611635
-0.0054729
-0.00479558
-0.00410227
-0.0034107
-0.00273751
-0.00215782
-0.00168136
-0.00126224
-0.000899042
-0.000588643
-0.000327173
-0.000110323
6.63865e-05
0.000207398
0.000316985
0.000399176
0.000457704
0.00049599
0.000517136
0.000523931
0.000518858
0.000504108
0.000481596
0.000452985
0.000419704
0.000382973
0.000343818
0.000303087
0.000261477
0.000219552
0.000177774
0.000136501
9.58207e-05
5.60732e-05
1.79201e-05
-0.00476686
-0.00514513
-0.00548917
-0.00578812
-0.00603274
-0.00621385
-0.00632306
-0.00635345
-0.00630011
-0.00616051
-0.0059349
-0.00562664
-0.00524218
-0.00479084
-0.00428445
-0.00373681
-0.00316297
-0.00257862
-0.00199944
-0.00144007
-0.000963608
-0.000576636
-0.000241214
4.40029e-05
0.000281917
0.000476072
0.000630418
0.000749056
0.000836058
0.000895344
0.00093061
0.000945288
0.000942529
0.000925191
0.000895847
0.000856786
0.000810021
0.000757306
0.00070015
0.000639844
0.000577473
0.000513947
0.000450003
0.000386237
0.000323125
0.000261047
0.000200292
0.000140911
8.32426e-05
2.7142e-05
-0.00295322
-0.00327257
-0.00356222
-0.00381251
-0.00401556
-0.00416359
-0.00424978
-0.00426859
-0.00421624
-0.00409099
-0.00389355
-0.00362721
-0.00329791
-0.00291399
-0.00248593
-0.00202587
-0.00154709
-0.00106342
-0.000588803
-0.000136192
0.000242544
0.000544289
0.000799489
0.00100946
0.00117696
0.0013053
0.00139812
0.00145922
0.00149234
0.00150112
0.00148895
0.00145903
0.00141427
0.00135732
0.00129057
0.00121614
0.00113589
0.00105142
0.000964107
0.000875128
0.000785455
0.000695892
0.000607089
0.00051956
0.000433712
0.000349855
0.000268216
0.000188805
0.000111914
3.67794e-05
-0.00117325
-0.00143807
-0.00167789
-0.00188393
-0.00204945
-0.00216798
-0.00223397
-0.00224303
-0.00219226
-0.0020806
-0.0019091
-0.00168104
-0.00140191
-0.00107929
-0.000722557
-0.000342544
4.89504e-05
0.000439631
0.000817081
0.00116985
0.0014566
0.00167754
0.00185609
0.00199363
0.00209288
0.00215695
0.00218929
0.00219342
0.00217285
0.00213095
0.00207092
0.00199572
0.00190809
0.00181052
0.00170524
0.00159421
0.00147917
0.00136158
0.00124271
0.00112362
0.00100519
0.00088814
0.000773051
0.000660372
0.000550446
0.000443526
0.000339783
0.00023918
0.000141966
4.6807e-05
0.000590213
0.000376863
0.000183751
1.90605e-05
-0.000111589
-0.00020293
-0.000250476
-0.000250774
-0.000201691
-0.000102748
4.46923e-05
0.000237371
0.000470133
0.000736036
0.00102659
0.00133207
0.00164191
0.00194514
0.00223066
0.00248841
0.00268713
0.00283021
0.00293438
0.00300118
0.00303333
0.00303383
0.00300595
0.00295302
0.00287837
0.00278517
0.00267644
0.002555
0.00242343
0.00228407
0.00213902
0.00199011
0.00183895
0.00168689
0.00153509
0.00138452
0.00123598
0.0010901
0.000947411
0.000808299
0.000673058
0.000541882
0.000414894
0.000292012
0.000173435
5.72655e-05
0.00234443
0.00218027
0.00203173
0.00190639
0.00180876
0.00174309
0.00171296
0.00172101
0.00176867
0.00185589
0.00198103
0.00214084
0.00233043
0.00254336
0.00277189
0.00300722
0.00323985
0.00345994
0.00365757
0.00382385
0.00393727
0.00400445
0.00403571
0.00403278
0.00399839
0.00393551
0.00384727
0.0037369
0.00360755
0.00346227
0.00330394
0.00313526
0.00295868
0.00277641
0.00259043
0.00240245
0.00221395
0.00202619
0.00184023
0.00165694
0.00147705
0.00130114
0.00112967
0.000962973
0.000801289
0.000644762
0.000493463
0.000347272
0.00020634
6.81647e-05
0.00408781
0.003971
0.00386539
0.00377782
0.00371179
0.00367073
0.00365742
0.00367375
0.0037205
0.00379713
0.00390179
0.00403118
0.0041806
0.00434404
0.00451437
0.00468357
0.00484301
0.00498388
0.00509721
0.00517518
0.00520563
0.00519854
0.00515807
0.00508616
0.00498564
0.00485944
0.00471067
0.00454245
0.00435785
0.00415982
0.00395113
0.00373437
0.00351188
0.00328575
0.00305783
0.00282973
0.00260282
0.00237826
0.00215702
0.00193991
0.00172758
0.00152056
0.00131923
0.00112389
0.000934735
0.000751844
0.000575246
0.000404787
0.000240575
7.945e-05
0.00581878
0.00574796
0.005684
0.00563298
0.00559759
0.00558052
0.00558382
0.00560867
0.00565523
0.00572257
0.0058086
0.00590996
0.00602209
0.0061393
0.00625497
0.00636172
0.00645168
0.00651687
0.00654916
0.00654161
0.00649113
0.00641117
0.00629992
0.0061596
0.00599317
0.00580364
0.0055941
0.00536766
0.00512732
0.00487596
0.00461627
0.00435071
0.00408153
0.00381069
0.00353994
0.00327078
0.00300448
0.00274212
0.0024846
0.00223266
0.00198688
0.00174774
0.00151558
0.00129062
0.00107301
0.000862803
0.000659969
0.000464333
0.000275969
9.10247e-05
0.00753823
0.00751256
0.00748943
0.00747425
0.00746908
0.00747588
0.00749596
0.00752985
0.00757719
0.00763666
0.00770592
0.00778153
0.00785903
0.00793298
0.00799717
0.00804473
0.00806845
0.00806101
0.00801501
0.00792425
0.00779444
0.00764262
0.00746121
0.00725274
0.00702039
0.00676729
0.00649662
0.00621149
0.00591487
0.00560958
0.00529822
0.00498317
0.00466652
0.00435016
0.0040357
0.00372456
0.00341792
0.00311681
0.00282205
0.00253432
0.00225416
0.00198197
0.00171804
0.00146255
0.0012156
0.00097719
0.000747258
0.000525613
0.000312298
0.000102766
0.00924803
0.00926707
0.00928444
0.00930499
0.00933011
0.00936107
0.00939848
0.00944224
0.00949152
0.00954464
0.00959899
0.00965104
0.00969638
0.00972977
0.00974529
0.00973653
0.00969678
0.00961929
0.00949725
0.0093251
0.0091171
0.00889402
0.00864268
0.008366
0.00806744
0.00775033
0.00741797
0.00707351
0.00671994
0.00636001
0.00599624
0.00563088
0.00526593
0.00490316
0.00454409
0.00419004
0.00384214
0.00350133
0.0031684
0.00284397
0.00252851
0.00222238
0.00192581
0.00163894
0.00136182
0.00109441
0.000836615
0.000588238
0.000349288
0.000114531
0.0109498
0.0110136
0.0110716
0.0111282
0.0111841
0.0112399
0.0112955
0.0113502
0.0114027
0.0114511
0.0114924
0.0115231
0.0115386
0.0115339
0.0115033
0.0114407
0.0113399
0.0111946
0.0109984
0.0107462
0.0104608
0.0101668
0.00984554
0.00950035
0.00913506
0.00875328
0.00835846
0.00795386
0.00754246
0.00712698
0.00670984
0.00629321
0.00587897
0.00546879
0.00506412
0.00466619
0.00427606
0.00389463
0.00352262
0.00316059
0.00280897
0.00246805
0.00213803
0.001819
0.00151097
0.00121385
0.000927533
0.000651819
0.000386682
0.000126184
0.0126453
0.0127541
0.0128534
0.0129468
0.0130342
0.0131157
0.0131905
0.0132574
0.0133148
0.0133601
0.0133903
0.0134016
0.0133895
0.013349
0.0132747
0.0131607
0.013001
0.0127897
0.0125209
0.01219
0.0118277
0.0114629
0.0110715
0.0106574
0.0102247
0.00977737
0.00931912
0.00885329
0.00838291
0.00791067
0.00743895
0.00696982
0.00650509
0.00604634
0.00559494
0.00515205
0.00471868
0.00429565
0.00388362
0.0034831
0.00309447
0.00271797
0.00235374
0.00200185
0.00166225
0.00133484
0.00101947
0.00071595
0.000424218
0.000137588
0.0143362
0.0144907
0.0146323
0.0147634
0.0148835
0.0149918
0.0150871
0.0151678
0.0152315
0.0152756
0.0152966
0.0152905
0.015253
0.015179
0.0150632
0.0148998
0.0146832
0.0144077
0.0140676
0.0136588
0.0132202
0.0127847
0.0123229
0.0118393
0.0113384
0.0108245
0.0103016
0.00977318
0.00924234
0.00871182
0.00818396
0.0076608
0.0071441
0.00663539
0.00613596
0.00564691
0.00516917
0.00470348
0.00425045
0.00381054
0.00338404
0.00297118
0.00257204
0.00218664
0.00181492
0.00145672
0.00111187
0.000780216
0.000461618
0.000148586
0.0160245
0.0162259
0.0164108
0.0165809
0.0167349
0.0168715
0.0169888
0.0170847
0.0171566
0.0172012
0.017215
0.0171937
0.0171329
0.0170275
0.0168722
0.0166614
0.0163896
0.0160515
0.0156415
0.0151557
0.0146412
0.0141351
0.0136026
0.0130488
0.0124788
0.0118971
0.0113081
0.0107154
0.0101223
0.00953157
0.00894567
0.00836664
0.00779622
0.0072359
0.00668692
0.00615031
0.00562691
0.00511741
0.00462233
0.00414207
0.00367687
0.00322689
0.00279217
0.00237269
0.00196834
0.00157893
0.00120428
0.000844236
0.000498603
0.000159004
0.0177124
0.0179621
0.0181917
0.0184021
0.0185914
0.0187577
0.0188987
0.0190117
0.0190934
0.0191406
0.0191491
0.0191147
0.0190327
0.0188979
0.0187051
0.0184488
0.0181236
0.0177242
0.0172454
0.0166836
0.0160937
0.0155169
0.0149135
0.0142888
0.0136486
0.0129978
0.0123409
0.011682
0.0110246
0.0103715
0.00972541
0.00908838
0.00846221
0.00784838
0.00724808
0.00666229
0.00609177
0.00553714
0.00499884
0.00447719
0.00397238
0.0034845
0.00301353
0.0025594
0.00212196
0.001701
0.00129626
0.000907656
0.000534893
0.000168649
0.0194024
0.0197016
0.0199775
0.0202297
0.0204559
0.0206537
0.02082
0.0209518
0.0210454
0.021097
0.0211024
0.0210569
0.0209557
0.0207936
0.0205652
0.0202652
0.0198881
0.0194288
0.0188825
0.0182454
0.0175804
0.0169332
0.0162584
0.0155621
0.0148506
0.0141291
0.0134027
0.0126755
0.0119515
0.0112337
0.010525
0.00982767
0.00914348
0.00847398
0.00782035
0.00718352
0.0065642
0.00596293
0.00538007
0.00481587
0.00427043
0.00374377
0.00323582
0.00274645
0.00227546
0.00182258
0.0013875
0.000970189
0.000570236
0.000177325
0.0210968
0.0214471
0.0217708
0.0220664
0.0223312
0.0225621
0.0227556
0.0229081
0.0230155
0.0230736
0.0230778
0.0230233
0.022905
0.0227176
0.0224555
0.0221135
0.0216861
0.0211683
0.0205554
0.0198439
0.0191043
0.0183865
0.0176399
0.0168714
0.0160874
0.0152937
0.0144959
0.0136984
0.0129055
0.0121207
0.011347
0.0105868
0.00984214
0.00911458
0.00840534
0.00771535
0.00704529
0.00639563
0.00576667
0.00515855
0.00457131
0.00400487
0.00345911
0.00293382
0.00242875
0.00194354
0.00147785
0.00103166
0.000604447
0.000184845
0.0227983
0.0232012
0.0235742
0.023915
0.0242201
0.0244859
0.0247083
0.0248834
0.0250065
0.0250731
0.0250783
0.0250169
0.0248835
0.0246727
0.0243789
0.0239965
0.0235204
0.0229454
0.022267
0.0214818
0.0206679
0.0198794
0.0190607
0.018219
0.0173614
0.0164942
0.0156232
0.0147535
0.0138896
0.0130355
0.0121942
0.0113687
0.0105609
0.00977272
0.00900538
0.00825988
0.00753687
0.00683681
0.00615992
0.00550628
0.00487584
0.00426844
0.00368387
0.00312186
0.00258206
0.00206403
0.00156735
0.00109204
0.000637428
0.00019104
0.0245094
0.0249665
0.0253905
0.025778
0.026125
0.0264274
0.0266807
0.0268802
0.0270211
0.0270983
0.0271065
0.0270403
0.0268939
0.0266617
0.026338
0.0259171
0.0253938
0.0247629
0.02402
0.0231617
0.0222735
0.0214143
0.0205229
0.0196073
0.0186751
0.017733
0.0167874
0.0158438
0.014907
0.0139812
0.0130701
0.0121766
0.0113031
0.0104516
0.00962347
0.00881987
0.00804149
0.00728875
0.00656185
0.00586082
0.00518552
0.00453573
0.00391115
0.00331139
0.00273603
0.00218451
0.00165631
0.00115149
0.000669195
0.000195769
0.0262326
0.0267454
0.027222
0.0276578
0.0280484
0.0283892
0.028675
0.0289009
0.0290615
0.0291514
0.0291648
0.0290959
0.0289387
0.0286873
0.0283356
0.027878
0.027309
0.0266236
0.025817
0.0248861
0.0239238
0.0229935
0.0220289
0.0210387
0.020031
0.019013
0.0179915
0.0169723
0.0159608
0.0149614
0.0139781
0.0130142
0.0120723
0.0111548
0.0102632
0.0093988
0.00856241
0.00775449
0.00697524
0.00622467
0.00550259
0.0048087
0.00414261
0.00350382
0.00289179
0.00230585
0.00174535
0.00121038
0.000699896
0.000198918
0.0279702
0.0285403
0.029071
0.0295567
0.0299925
0.0303733
0.0306935
0.0309478
0.0311302
0.0312349
0.0312557
0.0311863
0.0310206
0.0307521
0.0303746
0.0298822
0.0292691
0.0285303
0.027661
0.0266579
0.0256215
0.0246197
0.0235815
0.0225159
0.0214318
0.0203369
0.0192383
0.0181422
0.0170543
0.0159794
0.0149219
0.0138852
0.0128726
0.0118864
0.0109286
0.0100007
0.00910359
0.00823782
0.00740367
0.00660116
0.00583007
0.00509005
0.00438061
0.00370116
0.00305102
0.00242939
0.00183546
0.00126936
0.000729824
0.000200408
0.0297244
0.0303533
0.0309395
0.0314766
0.0319593
0.0323818
0.0327384
0.0330229
0.0332293
0.0333511
0.0333816
0.0333143
0.0331423
0.0328591
0.032458
0.0319327
0.0312773
0.0304864
0.0295552
0.0284803
0.0273695
0.026296
0.0251835
0.0240419
0.0228806
0.0217077
0.0205308
0.0193565
0.0181907
0.0170386
0.0159049
0.0147935
0.0137079
0.0126507
0.0116243
0.0106302
0.00966961
0.00874325
0.00785148
0.00699438
0.00617176
0.00538324
0.00462825
0.00390611
0.00321599
0.00255695
0.00192803
0.00132934
0.000759403
0.000200171
0.031497
0.0321861
0.0328294
0.0334195
0.0339507
0.0344168
0.0348117
0.0351288
0.0353614
0.0355026
0.0355454
0.0354827
0.0353071
0.0350117
0.0345893
0.0340333
0.0333373
0.0324957
0.0315034
0.030357
0.0291716
0.0280258
0.0268383
0.0256198
0.0243802
0.0231282
0.0218718
0.0206179
0.0193728
0.018142
0.0169306
0.0157428
0.0145823
0.0134522
0.0123548
0.0112921
0.0102654
0.00927576
0.00832358
0.00740909
0.00653219
0.00569247
0.00488935
0.00412204
0.00338959
0.00269088
0.00202481
0.00139146
0.000789168
0.000198152
0.0332897
0.0340406
0.0347425
0.0353872
0.0359688
0.0364806
0.0369159
0.0372678
0.0375292
0.0376926
0.0377504
0.0376951
0.0375187
0.0372138
0.0367726
0.036188
0.0354533
0.0345624
0.0335099
0.0322921
0.0310318
0.0298131
0.0285497
0.0272531
0.0259339
0.0246013
0.0232639
0.021929
0.0206032
0.0192925
0.0180021
0.0167366
0.0154997
0.0142949
0.0131247
0.0119913
0.0108962
0.00984059
0.00882526
0.00785055
0.00691644
0.0060226
0.00516838
0.00435295
0.00357523
0.00283396
0.00212791
0.00145713
0.000819778
0.000194305
0.0351038
0.0359182
0.0366804
0.0373817
0.0380157
0.0385754
0.0390537
0.0394431
0.0397361
0.0399245
0.0400005
0.0399556
0.0397814
0.0394698
0.0390125
0.0384017
0.0376302
0.0366914
0.0355796
0.0342907
0.032955
0.0316624
0.0303219
0.0289456
0.027545
0.0261302
0.02471
0.0232924
0.0218846
0.0204928
0.0191223
0.0177779
0.0164636
0.0151827
0.0139381
0.0127322
0.0115666
0.0104428
0.00936187
0.0083242
0.00732995
0.00637884
0.00547023
0.00460324
0.00377673
0.00298934
0.00223974
0.00152796
0.000852047
0.000188624
0.0369403
0.0378202
0.0386446
0.0394047
0.0400936
0.040704
0.0412281
0.0416581
0.0419858
0.0422027
0.0423
0.0422688
0.0421001
0.0417849
0.0413142
0.0406797
0.0398734
0.0388883
0.037718
0.0363581
0.0349464
0.0335788
0.0321595
0.0307017
0.0292177
0.0277183
0.0262134
0.0247115
0.0232201
0.0217457
0.020294
0.0188696
0.0174767
0.0161187
0.0147985
0.0135186
0.0122809
0.0110871
0.00993834
0.00883522
0.00777797
0.00676637
0.00579982
0.00487743
0.00399808
0.0031604
0.00236297
0.00160584
0.000886952
0.000181138
0.0387999
0.0397475
0.0406367
0.0414583
0.0422051
0.0428692
0.0434425
0.0439166
0.0442827
0.0445317
0.044654
0.0446402
0.0444803
0.0441647
0.0436836
0.0430279
0.0421889
0.0411589
0.0399309
0.0385001
0.0370116
0.0355679
0.034068
0.0325265
0.0309567
0.0293705
0.0277786
0.0261901
0.0246132
0.0230545
0.02152
0.0200143
0.0185415
0.0171052
0.0157083
0.0143533
0.0130424
0.0117771
0.0105587
0.00938789
0.00826493
0.00718962
0.00616145
0.00517961
0.00424303
0.00335038
0.00250023
0.00169262
0.000925464
0.00017185
0.0406831
0.0417012
0.042658
0.0435444
0.0443526
0.0450742
0.0457006
0.0462229
0.0466315
0.0469166
0.047068
0.0470753
0.0469279
0.0466151
0.0461266
0.0454523
0.0445827
0.0435093
0.0422246
0.0407231
0.0391571
0.0376359
0.0360537
0.0344263
0.0327683
0.0310927
0.029411
0.0277334
0.0260683
0.0244229
0.0228033
0.0212143
0.0196601
0.0181442
0.0166694
0.0152383
0.013853
0.012515
0.0112254
0.00998489
0.00879363
0.0076515
0.00655809
0.00551268
0.00451431
0.0035617
0.00265346
0.00178963
0.000968203
0.00016059
0.04259
0.0436818
0.0447099
0.045665
0.0465388
0.0473224
0.0480065
0.0485814
0.0490371
0.0493628
0.0495475
0.04958
0.0494488
0.0491424
0.0486495
0.0479591
0.047061
0.0459459
0.0446055
0.0430334
0.0413896
0.0397899
0.0381239
0.0364086
0.0346599
0.032892
0.0311175
0.0293474
0.0275908
0.0258555
0.0241478
0.0224728
0.0208347
0.0192371
0.017683
0.0161745
0.0147136
0.0133014
0.011939
0.0106266
0.00936457
0.00815265
0.00699049
0.00587749
0.00481276
0.00379508
0.00282316
0.00189708
0.00101504
0.000146872
0.0445206
0.0456901
0.0467938
0.0478222
0.0487665
0.049617
0.0503639
0.0509967
0.0515044
0.0518755
0.0520981
0.0521601
0.052049
0.0517524
0.0512581
0.0505543
0.0496299
0.0484748
0.0470797
0.0454377
0.043716
0.0420373
0.0402863
0.0384814
0.0366397
0.0347766
0.032906
0.0310396
0.0291875
0.0273581
0.0255582
0.0237934
0.0220682
0.0203862
0.0187501
0.0171621
0.0156234
0.014135
0.0126975
0.011311
0.00997547
0.00869077
0.00745648
0.00627198
0.00513644
0.00404873
0.00300769
0.00201354
0.00106478
0.000129775
0.0464749
0.0477265
0.0489108
0.0500179
0.0510382
0.0519614
0.0527768
0.053473
0.0540381
0.0544597
0.054725
0.0548208
0.0547338
0.0544505
0.053958
0.0532436
0.0522951
0.0511017
0.0496534
0.0479426
0.0461434
0.0443856
0.042549
0.0406532
0.0387165
0.0367556
0.0347852
0.0328184
0.0308661
0.0289377
0.0270408
0.0251815
0.0233646
0.021594
0.0198721
0.0182007
0.0165808
0.0150128
0.013497
0.0120332
0.0106212
0.00926047
0.00795055
0.00669072
0.00548016
0.00431787
0.00320289
0.00213564
0.00111498
0.000107858
0.0484526
0.0497916
0.051062
0.0522537
0.0533561
0.0543583
0.0552483
0.056014
0.0566423
0.0571198
0.0574328
0.0575669
0.057508
0.0572418
0.0567543
0.056032
0.0550619
0.0538324
0.0523327
0.0505544
0.0486786
0.0468422
0.0449199
0.0429323
0.0408989
0.0388375
0.036764
0.0346926
0.0326354
0.0306028
0.0286032
0.0266436
0.0247292
0.022864
0.0210504
0.01929
0.0175834
0.0159309
0.0143322
0.0127868
0.0112942
0.00985356
0.00846414
0.00712513
0.00583569
0.00459496
0.0034022
0.0022581
0.00116193
7.9131e-05
0.0504535
0.0518855
0.0532483
0.054531
0.0557223
0.0568099
0.0577812
0.0586226
0.0593202
0.0598593
0.0602251
0.0604024
0.060376
0.0601308
0.0596518
0.0589246
0.0579357
0.0566724
0.0551233
0.0532792
0.051328
0.0494136
0.0474056
0.0453258
0.0431945
0.0410306
0.0388511
0.0366713
0.0345045
0.0323622
0.0302539
0.0281873
0.0261681
0.0242006
0.0222875
0.0204303
0.0186296
0.0168854
0.0151973
0.0135644
0.0119857
0.0104602
0.00898674
0.00756451
0.00619267
0.00487044
0.00359731
0.00237427
0.00120095
4.11427e-05
0.0524772
0.0540084
0.0554702
0.0568508
0.0581377
0.0593179
0.0603772
0.0613011
0.0620742
0.0626809
0.0631051
0.0633307
0.0633416
0.0631216
0.0626551
0.0619267
0.060922
0.0596276
0.0580313
0.056123
0.0540975
0.0521056
0.0500122
0.0478397
0.0456095
0.0433414
0.0410536
0.0387622
0.0364817
0.0342245
0.0320012
0.0298201
0.0276878
0.025609
0.0235868
0.0216231
0.0197188
0.017874
0.0160878
0.0143594
0.0126875
0.0110708
0.0095081
0.00799835
0.00654079
0.00513472
0.0037798
0.00247738
0.00122724
-8.71597e-06
0.0545232
0.05616
0.0577276
0.0592132
0.0606031
0.0618829
0.0630374
0.0640506
0.0649059
0.0655865
0.0660753
0.066355
0.0664086
0.0662189
0.0657694
0.0650439
0.064027
0.0627043
0.0610628
0.0590917
0.0569925
0.0549233
0.0527442
0.0504785
0.0481486
0.0457751
0.0433769
0.0409711
0.0385732
0.0361963
0.0338517
0.0315487
0.0292944
0.0270945
0.0249528
0.0228719
0.0208531
0.0188967
0.0170023
0.0151688
0.0133951
0.0116799
0.0100218
0.00841994
0.00687341
0.00538159
0.0039442
0.00256289
0.00123748
-7.26292e-05
0.0565908
0.0583398
0.0600202
0.0616179
0.0631181
0.064505
0.0657619
0.0668716
0.0678163
0.0685779
0.069138
0.0694785
0.0695811
0.0694278
0.0690008
0.0682829
0.0672576
0.0659096
0.0642249
0.0621919
0.0600187
0.0578716
0.0556059
0.0532459
0.0508149
0.0483343
0.0458238
0.0433012
0.0407823
0.0382811
0.0358093
0.0333771
0.0309925
0.028662
0.0263905
0.0241814
0.0220367
0.0199575
0.0179438
0.0159951
0.0141107
0.0122893
0.0105299
0.00883137
0.00719278
0.00561331
0.00409255
0.00263236
0.00123237
-0.000151445
0.0586792
0.060547
0.0623471
0.0640641
0.0656819
0.0671832
0.0685502
0.0697642
0.0708061
0.0716566
0.0722961
0.0727052
0.0728645
0.0727545
0.0723564
0.0716515
0.0706221
0.0692518
0.0675255
0.0654307
0.0631824
0.0609558
0.0586013
0.0561448
0.0536104
0.0510203
0.0483948
0.0457521
0.0431085
0.0404783
0.037874
0.0353062
0.032784
0.0303148
0.0279044
0.0255573
0.0232765
0.0210641
0.0189213
0.0168486
0.0148459
0.0129125
0.0110473
0.00924912
0.00751652
0.00584798
0.00424231
0.00270091
0.00122247
-0.000242057
0.060787
0.0627801
0.0647068
0.0665503
0.068293
0.0699166
0.0714017
0.0727285
0.0738765
0.0748249
0.0755531
0.07604
0.0762647
0.0762064
0.0758444
0.0751587
0.07413
0.0727405
0.0709738
0.0688166
0.0664912
0.0641821
0.0617356
0.0591787
0.0565369
0.0538331
0.0510882
0.0483209
0.0455479
0.0427839
0.0400419
0.0373332
0.0346676
0.0320532
0.0294969
0.0270043
0.0245798
0.0222271
0.0199488
0.0177469
0.0156222
0.0135748
0.0116041
0.00970833
0.00788508
0.00613104
0.00444242
0.00281759
0.00124942
-0.000327484
0.0629125
0.0650374
0.0670976
0.0690746
0.0709499
0.0727039
0.074316
0.075765
0.077029
0.0780859
0.0789134
0.0794887
0.0797892
0.079792
0.0794744
0.0788146
0.0777916
0.076386
0.0745801
0.0723596
0.0699541
0.0675586
0.0650152
0.0623524
0.059597
0.056773
0.0539021
0.0510038
0.0480951
0.0451915
0.0423064
0.0394519
0.0366381
0.033874
0.0311675
0.0285253
0.0259536
0.0234576
0.0210419
0.0187099
0.0164642
0.0143063
0.0122366
0.010254
0.00835619
0.00653885
0.00479606
0.00312655
0.00151918
-0.000198524
0.0650536
0.0673169
0.0695171
0.0716352
0.0736512
0.0755445
0.0772933
0.078875
0.0802665
0.0814438
0.0823828
0.0830585
0.0834461
0.0835204
0.0832564
0.0826299
0.081618
0.0801997
0.0783557
0.0760706
0.0735817
0.0710951
0.0684485
0.0656725
0.0627953
0.0598423
0.0568364
0.0537981
0.0507455
0.0476948
0.0446604
0.0416546
0.0386885
0.0357717
0.032913
0.0301207
0.0274022
0.0247643
0.022213
0.0197535
0.0173902
0.0151266
0.0129654
0.0109089
0.00895927
0.00711824
0.00538884
0.00378211
0.00232564
0.000875318
0.0672079
0.0696159
0.0719634
0.0742302
0.0763958
0.0784382
0.0803347
0.0820612
0.0835929
0.084904
0.0859678
0.0867571
0.0872442
0.0874013
0.0872005
0.0866152
0.0856203
0.0841928
0.0823121
0.0799612
0.0773854
0.0748026
0.0720459
0.0691481
0.0661393
0.0630466
0.0598947
0.0567055
0.0534987
0.0502917
0.0470999
0.0439365
0.0408135
0.0377416
0.0347307
0.03179
0.0289279
0.026152
0.023469
0.0208846
0.0184037
0.0160299
0.0137657
0.0116124
0.00956984
0.00763602
0.00580615
0.00407637
0.0024539
0.000872788
0.0693721
0.0719318
0.0744341
0.0768584
0.0791833
0.081386
0.0834425
0.0853271
0.0870131
0.0884723
0.0896754
0.0905922
0.0911918
0.0914437
0.0913162
0.0907805
0.089809
0.0883765
0.0864606
0.0840433
0.0813773
0.0786931
0.0758192
0.0727906
0.0696397
0.0663959
0.0630858
0.0597336
0.0563609
0.0529867
0.0496279
0.0462993
0.0430142
0.0397845
0.0366215
0.0335348
0.0305333
0.0276245
0.0248147
0.022109
0.0195112
0.0170235
0.0146469
0.0123807
0.010223
0.00817006
0.00621673
0.00435774
0.00259649
0.000897033
0.0715427
0.0742616
0.0769272
0.0795188
0.0820142
0.0843896
0.0866197
0.088677
0.0905325
0.0921552
0.0935126
0.0945712
0.0952967
0.0956558
0.0956123
0.0951349
0.0941935
0.0927607
0.090812
0.0883279
0.085569
0.0827787
0.0797808
0.0766129
0.0733099
0.0699039
0.0664241
0.0628971
0.0593466
0.0557938
0.0522578
0.0487554
0.0453018
0.0419108
0.0385943
0.0353628
0.0322249
0.0291873
0.0262552
0.0234322
0.02072
0.0181188
0.0156273
0.0132431
0.0109627
0.00878179
0.00669549
0.00469891
0.00279258
0.000950779
0.0737161
0.0766024
0.0794409
0.0822108
0.0848892
0.0874513
0.0898699
0.0921155
0.0941563
0.0959583
0.0974855
0.0987006
0.0995652
0.100045
0.100096
0.0996863
0.0987824
0.0973545
0.095376
0.0928257
0.0899716
0.0870712
0.0839434
0.0806287
0.0771652
0.0735877
0.0699283
0.066216
0.0624774
0.058736
0.0550134
0.051329
0.0477004
0.044143
0.0406698
0.0372914
0.0340159
0.0308492
0.0277948
0.0248539
0.0220258
0.0193081
0.0166972
0.0141884
0.0117768
0.00945728
0.00722523
0.00507706
0.00301352
0.00101898
0.075888
0.0789511
0.0819734
0.0849342
0.0878095
0.0905732
0.0931961
0.0956463
0.0978889
0.0998863
0.101599
0.102985
0.104002
0.104618
0.104774
0.104442
0.103583
0.102167
0.100162
0.0975467
0.0945958
0.0915818
0.0883191
0.0848519
0.0812212
0.0774653
0.073619
0.0697142
0.0657799
0.0618427
0.0579268
0.0540544
0.050245
0.0465152
0.0428789
0.0393467
0.0359262
0.0326218
0.0294352
0.0263653
0.0234089
0.0205614
0.017817
0.0151699
0.0126144
0.0101456
0.00776003
0.00545643
0.0032379
0.00109273
0.078054
0.0813045
0.0845229
0.0876882
0.0907755
0.0937568
0.0966006
0.099272
0.101733
0.103942
0.105856
0.10743
0.108617
0.109373
0.10965
0.109407
0.108605
0.107206
0.10518
0.102502
0.0994527
0.0963222
0.0929208
0.0892964
0.0854939
0.0815547
0.0775169
0.0734153
0.0692817
0.0651455
0.0610335
0.0569697
0.0529748
0.0490663
0.0452581
0.0415604
0.0379798
0.0345195
0.0311794
0.0279568
0.024847
0.0218445
0.0189433
0.016138
0.0134238
0.0107976
0.00825778
0.00580595
0.00344827
0.00116748
0.0802097
0.083659
0.0870868
0.0904715
0.0937865
0.0970019
0.100083
0.102993
0.105689
0.108127
0.110259
0.112036
0.113407
0.114322
0.114733
0.114592
0.113856
0.112484
0.110443
0.107703
0.104556
0.101306
0.0977627
0.0939774
0.0899992
0.0858735
0.0816416
0.0773415
0.073008
0.0686728
0.0643645
0.0601078
0.0559239
0.0518299
0.0478389
0.0439602
0.0401991
0.0365573
0.0330338
0.0296257
0.0263289
0.0231389
0.0200519
0.0170651
0.0141768
0.0113866
0.00869542
0.00610699
0.00363012
0.00123557
0.0823503
0.0860106
0.0896618
0.093281
0.0968399
0.100306
0.103643
0.106808
0.109757
0.112441
0.114808
0.116805
0.118377
0.119471
0.120031
0.120007
0.119349
0.118015
0.115965
0.113168
0.109921
0.106551
0.102862
0.0989124
0.0947552
0.0904398
0.0860116
0.081512
0.0769787
0.072445
0.0679402
0.063489
0.0591117
0.054824
0.0506376
0.04656
0.0425949
0.0387434
0.0350048
0.0313773
0.0278595
0.0244505
0.0211506
0.0179613
0.0148853
0.0119258
0.00908573
0.0063691
0.00378495
0.0012919
0.0844707
0.0883545
0.0922431
0.0961121
0.099931
0.103665
0.107273
0.110712
0.113932
0.116881
0.119503
0.121741
0.123535
0.124826
0.125555
0.125664
0.125101
0.123815
0.121766
0.118916
0.11557
0.112077
0.108241
0.104123
0.0997831
0.0952742
0.0906465
0.0859448
0.0812092
0.0764742
0.071769
0.0671172
0.0625378
0.0580446
0.053647
0.0493507
0.0451587
0.0410722
0.0370921
0.0332199
0.0294582
0.0258109
0.0222832
0.0188814
0.0156118
0.0124803
0.00949027
0.00664342
0.00394575
0.00134705
0.0865653
0.0906847
0.0948245
0.0989581
0.103053
0.107071
0.110969
0.1147
0.118212
0.121447
0.124347
0.126849
0.128888
0.1304
0.131319
0.131582
0.13113
0.129907
0.127867
0.12497
0.121528
0.117913
0.113927
0.109637
0.105109
0.100402
0.0955688
0.0906586
0.085713
0.0807672
0.0758499
0.0709838
0.0661859
0.0614684
0.0568391
0.0523027
0.0478628
0.0435224
0.0392858
0.0351587
0.0311482
0.0272629
0.0235115
0.0199028
0.0164441
0.0131403
0.00999211
0.00699714
0.00415654
0.00141846
0.0886275
0.092994
0.0973979
0.10181
0.106196
0.110515
0.114722
0.118767
0.122592
0.126139
0.129343
0.132136
0.134448
0.136206
0.137341
0.13778
0.137458
0.136314
0.134296
0.131359
0.127824
0.124087
0.11995
0.115486
0.110765
0.105852
0.100805
0.0956749
0.0905049
0.0853307
0.0801806
0.0750766
0.0700347
0.0650661
0.0601787
0.0553788
0.0506723
0.0460662
0.0415693
0.0371913
0.0329433
0.0288361
0.0248793
0.02108
0.0174419
0.0139641
0.0106421
0.00746863
0.00444104
0.00151523
0.0906496
0.0952736
0.0999534
0.104658
0.10935
0.113988
0.118524
0.122905
0.12707
0.130956
0.134494
0.13761
0.140225
0.142261
0.143638
0.144278
0.144108
0.14306
0.141077
0.138111
0.134488
0.130632
0.126343
0.121702
0.116783
0.111656
0.106383
0.101017
0.0956027
0.0901754
0.0847641
0.0793907
0.0740717
0.0688194
0.0636443
0.0585565
0.053567
0.0486879
0.0439324
0.0393138
0.0348441
0.0305334
0.0263882
0.0224099
0.0185949
0.0149345
0.011418
0.00803529
0.0047836
0.00163181
0.0926225
0.0975131
0.10248
0.107489
0.112503
0.117479
0.122367
0.127109
0.131644
0.135902
0.139808
0.14328
0.146234