/*--------------------------------*- C++ -*----------------------------------*\
  =========                 |
  \\      /  F ield         | OpenFOAM: The Open Source CFD Toolbox
   \\    /   O peration     | Website:  https://openfoam.org
    \\  /    A nd           | Version:  9
     \\/     M anipulation  |
\*---------------------------------------------------------------------------*/
FoamFile
{
    format      ascii;
    class       surfaceScalarField;
    location    "0.03";
    object      phi;
}
// * * * * * * * * * * * * * * * * * * * * * * * * * * * * * * * * * * * * * //

dimensions      [0 3 -1 0 0 0 0];

internalField   nonuniform List<scalar> 
9850
(
-2.13067e-07
6.1044e-06
-2.13132e-07
6.07675e-06
-2.1322e-07
6.05155e-06
-2.13336e-07
6.02928e-06
-2.1348e-07
6.0105e-06
-2.13653e-07
5.9958e-06
-2.1385e-07
5.98581e-06
-2.14069e-07
5.98109e-06
-2.143e-07
5.98216e-06
-2.14536e-07
5.98943e-06
-2.14766e-07
6.00321e-06
-2.1498e-07
6.02359e-06
-2.15167e-07
6.05052e-06
-2.1532e-07
6.08376e-06
-2.15433e-07
6.1229e-06
-2.15506e-07
6.16742e-06
-2.15539e-07
6.21673e-06
-2.15533e-07
6.27018e-06
-2.15494e-07
6.32716e-06
-2.15426e-07
6.38701e-06
-2.15346e-07
5.26506e-06
-2.15257e-07
5.05855e-06
-2.15165e-07
4.85838e-06
-2.15073e-07
4.66437e-06
-2.14983e-07
4.4764e-06
-2.14897e-07
4.29441e-06
-2.14814e-07
4.11831e-06
-2.14736e-07
3.94804e-06
-2.14663e-07
3.78352e-06
-2.14595e-07
3.62467e-06
-2.14532e-07
3.4714e-06
-2.14473e-07
3.32362e-06
-2.14419e-07
3.18122e-06
-2.1437e-07
3.0441e-06
-2.14325e-07
2.91214e-06
-2.14284e-07
2.78522e-06
-2.14247e-07
2.66322e-06
-2.14214e-07
2.54602e-06
-2.14184e-07
2.43347e-06
-2.14158e-07
2.32545e-06
-2.14134e-07
2.22183e-06
-2.14113e-07
2.12246e-06
-2.14095e-07
2.02721e-06
-2.14079e-07
1.93596e-06
-2.14066e-07
1.84855e-06
-2.14056e-07
1.76488e-06
-2.14049e-07
1.68482e-06
-2.14046e-07
1.60824e-06
-2.14043e-07
1.53504e-06
1.46523e-06
-2.11484e-07
6.10453e-06
-2.1167e-07
6.07693e-06
-2.1192e-07
6.0518e-06
-2.12242e-07
6.0296e-06
-2.12637e-07
6.0109e-06
-2.13103e-07
5.99627e-06
-2.13634e-07
5.98634e-06
-2.14214e-07
5.98167e-06
-2.14827e-07
5.98277e-06
-2.15449e-07
5.99006e-06
-2.16053e-07
6.00381e-06
-2.16614e-07
6.02415e-06
-2.17107e-07
6.05101e-06
-2.17511e-07
6.08416e-06
-2.17814e-07
6.1232e-06
-2.18011e-07
6.16762e-06
-2.18101e-07
6.21682e-06
-2.1809e-07
6.27017e-06
-2.17988e-07
6.32705e-06
-2.17805e-07
6.38682e-06
-2.17595e-07
5.26485e-06
-2.1736e-07
5.05832e-06
-2.17113e-07
4.85814e-06
-2.16865e-07
4.66412e-06
-2.16621e-07
4.47616e-06
-2.16385e-07
4.29417e-06
-2.16159e-07
4.11808e-06
-2.15945e-07
3.94783e-06
-2.15745e-07
3.78332e-06
-2.15557e-07
3.62448e-06
-2.15383e-07
3.47123e-06
-2.15222e-07
3.32346e-06
-2.15075e-07
3.18107e-06
-2.14939e-07
3.04396e-06
-2.14817e-07
2.91202e-06
-2.14705e-07
2.78511e-06
-2.14605e-07
2.66312e-06
-2.14515e-07
2.54593e-06
-2.14435e-07
2.43339e-06
-2.14364e-07
2.32538e-06
-2.14301e-07
2.22177e-06
-2.14246e-07
2.12241e-06
-2.14198e-07
2.02717e-06
-2.14157e-07
1.93592e-06
-2.14124e-07
1.84852e-06
-2.14098e-07
1.76486e-06
-2.1408e-07
1.6848e-06
-2.14069e-07
1.60823e-06
-2.14057e-07
1.53503e-06
1.46522e-06
-2.1017e-07
6.10474e-06
-2.10468e-07
6.07723e-06
-2.10865e-07
6.0522e-06
-2.11368e-07
6.03011e-06
-2.1198e-07
6.01151e-06
-2.12696e-07
5.99699e-06
-2.13505e-07
5.98714e-06
-2.14386e-07
5.98255e-06
-2.15311e-07
5.98369e-06
-2.16247e-07
5.99099e-06
-2.17156e-07
6.00472e-06
-2.17998e-07
6.02499e-06
-2.18739e-07
6.05175e-06
-2.19349e-07
6.08477e-06
-2.19808e-07
6.12366e-06
-2.20108e-07
6.16792e-06
-2.20247e-07
6.21695e-06
-2.20233e-07
6.27016e-06
-2.20077e-07
6.3269e-06
-2.19796e-07
6.38654e-06
-2.1948e-07
5.26454e-06
-2.19122e-07
5.05796e-06
-2.18744e-07
4.85776e-06
-2.18361e-07
4.66374e-06
-2.17984e-07
4.47578e-06
-2.17618e-07
4.29381e-06
-2.17267e-07
4.11773e-06
-2.16934e-07
3.94749e-06
-2.16621e-07
3.78301e-06
-2.16328e-07
3.62419e-06
-2.16056e-07
3.47095e-06
-2.15805e-07
3.32321e-06
-2.15574e-07
3.18084e-06
-2.15364e-07
3.04375e-06
-2.15172e-07
2.91182e-06
-2.14999e-07
2.78494e-06
-2.14843e-07
2.66297e-06
-2.14703e-07
2.54579e-06
-2.14579e-07
2.43327e-06
-2.14468e-07
2.32527e-06
-2.14371e-07
2.22167e-06
-2.14287e-07
2.12232e-06
-2.14214e-07
2.02709e-06
-2.14152e-07
1.93585e-06
-2.141e-07
1.84847e-06
-2.14059e-07
1.76482e-06
-2.14028e-07
1.68477e-06
-2.14004e-07
1.6082e-06
-2.13982e-07
1.53501e-06
1.4652e-06
-2.09066e-07
6.10502e-06
-2.09468e-07
6.07763e-06
-2.09996e-07
6.05273e-06
-2.10659e-07
6.03077e-06
-2.11459e-07
6.01231e-06
-2.12389e-07
5.99792e-06
-2.13434e-07
5.98819e-06
-2.14567e-07
5.98368e-06
-2.15753e-07
5.98488e-06
-2.16949e-07
5.99219e-06
-2.18109e-07
6.00588e-06
-2.19184e-07
6.02607e-06
-2.20129e-07
6.0527e-06
-2.20909e-07
6.08555e-06
-2.21498e-07
6.12425e-06
-2.21883e-07
6.1683e-06
-2.22062e-07
6.21713e-06
-2.22043e-07
6.27014e-06
-2.21841e-07
6.3267e-06
-2.21474e-07
6.38618e-06
-2.21064e-07
5.26413e-06
-2.20599e-07
5.0575e-06
-2.20106e-07
4.85727e-06
-2.19605e-07
4.66324e-06
-2.19108e-07
4.47529e-06
-2.18626e-07
4.29332e-06
-2.18162e-07
4.11727e-06
-2.17722e-07
3.94705e-06
-2.17307e-07
3.78259e-06
-2.1692e-07
3.6238e-06
-2.1656e-07
3.47059e-06
-2.16227e-07
3.32287e-06
-2.15922e-07
3.18054e-06
-2.15643e-07
3.04347e-06
-2.15389e-07
2.91157e-06
-2.1516e-07
2.78471e-06
-2.14954e-07
2.66276e-06
-2.1477e-07
2.5456e-06
-2.14606e-07
2.4331e-06
-2.14461e-07
2.32513e-06
-2.14334e-07
2.22154e-06
-2.14224e-07
2.12221e-06
-2.14129e-07
2.027e-06
-2.14048e-07
1.93577e-06
-2.13981e-07
1.8484e-06
-2.13927e-07
1.76476e-06
-2.13883e-07
1.68472e-06
-2.13848e-07
1.60817e-06
-2.13819e-07
1.53498e-06
1.46518e-06
-2.08155e-07
6.10538e-06
-2.0865e-07
6.07813e-06
-2.09295e-07
6.05337e-06
-2.10097e-07
6.03157e-06
-2.11058e-07
6.01327e-06
-2.12169e-07
5.99903e-06
-2.13411e-07
5.98943e-06
-2.14752e-07
5.98502e-06
-2.16152e-07
5.98628e-06
-2.17561e-07
5.9936e-06
-2.18925e-07
6.00724e-06
-2.20188e-07
6.02733e-06
-2.21299e-07
6.05381e-06
-2.22216e-07
6.08647e-06
-2.2291e-07
6.12495e-06
-2.23362e-07
6.16876e-06
-2.23572e-07
6.21734e-06
-2.23546e-07
6.27011e-06
-2.233e-07
6.32645e-06
-2.22857e-07
6.38573e-06
-2.22363e-07
5.26363e-06
-2.21802e-07
5.05694e-06
-2.21207e-07
4.85667e-06
-2.206e-07
4.66263e-06
-2.19997e-07
4.47469e-06
-2.1941e-07
4.29274e-06
-2.18845e-07
4.11671e-06
-2.18308e-07
3.94652e-06
-2.17802e-07
3.78208e-06
-2.17328e-07
3.62333e-06
-2.16888e-07
3.47015e-06
-2.16482e-07
3.32247e-06
-2.16109e-07
3.18016e-06
-2.15768e-07
3.04313e-06
-2.15459e-07
2.91126e-06
-2.1518e-07
2.78443e-06
-2.14929e-07
2.66251e-06
-2.14705e-07
2.54538e-06
-2.14506e-07
2.4329e-06
-2.14331e-07
2.32495e-06
-2.14178e-07
2.22139e-06
-2.14045e-07
2.12208e-06
-2.13931e-07
2.02689e-06
-2.13835e-07
1.93568e-06
-2.13756e-07
1.84832e-06
-2.13691e-07
1.7647e-06
-2.13638e-07
1.68467e-06
-2.13596e-07
1.60813e-06
-2.13564e-07
1.53495e-06
1.46516e-06
-2.07428e-07
6.1058e-06
-2.08005e-07
6.07871e-06
-2.0875e-07
6.05412e-06
-2.09671e-07
6.03249e-06
-2.10768e-07
6.01436e-06
-2.12029e-07
6.00029e-06
-2.13432e-07
5.99083e-06
-2.14941e-07
5.98653e-06
-2.16512e-07
5.98785e-06
-2.1809e-07
5.99517e-06
-2.19614e-07
6.00877e-06
-2.21025e-07
6.02874e-06
-2.22265e-07
6.05505e-06
-2.23289e-07
6.08749e-06
-2.24062e-07
6.12572e-06
-2.24565e-07
6.16926e-06
-2.24793e-07
6.21757e-06
-2.24755e-07
6.27008e-06
-2.24467e-07
6.32617e-06
-2.23954e-07
6.38522e-06
-2.23384e-07
5.26306e-06
-2.22737e-07
5.05629e-06
-2.2205e-07
4.85599e-06
-2.21348e-07
4.66193e-06
-2.20649e-07
4.47399e-06
-2.19967e-07
4.29205e-06
-2.19311e-07
4.11605e-06
-2.18686e-07
3.94589e-06
-2.18097e-07
3.7815e-06
-2.17546e-07
3.62278e-06
-2.17033e-07
3.46964e-06
-2.1656e-07
3.32199e-06
-2.16126e-07
3.17973e-06
-2.1573e-07
3.04274e-06
-2.1537e-07
2.9109e-06
-2.15046e-07
2.7841e-06
-2.14754e-07
2.66222e-06
-2.14495e-07
2.54512e-06
-2.14265e-07
2.43267e-06
-2.14063e-07
2.32475e-06
-2.13887e-07
2.22121e-06
-2.13735e-07
2.12193e-06
-2.13605e-07
2.02676e-06
-2.13496e-07
1.93557e-06
-2.13406e-07
1.84823e-06
-2.13333e-07
1.76462e-06
-2.13273e-07
1.68461e-06
-2.13226e-07
1.60808e-06
-2.13193e-07
1.53491e-06
1.46515e-06
-2.06871e-07
6.10628e-06
-2.07518e-07
6.07935e-06
-2.08349e-07
6.05495e-06
-2.09369e-07
6.03351e-06
-2.10576e-07
6.01557e-06
-2.11959e-07
6.00167e-06
-2.1349e-07
5.99236e-06
-2.15132e-07
5.98817e-06
-2.16836e-07
5.98955e-06
-2.18543e-07
5.99688e-06
-2.20189e-07
6.01041e-06
-2.21711e-07
6.03026e-06
-2.23047e-07
6.05639e-06
-2.24148e-07
6.0886e-06
-2.24977e-07
6.12655e-06
-2.25513e-07
6.1698e-06
-2.25748e-07
6.21781e-06
-2.25691e-07
6.27002e-06
-2.2536e-07
6.32583e-06
-2.24779e-07
6.38464e-06
-2.24138e-07
5.26242e-06
-2.23413e-07
5.05556e-06
-2.22641e-07
4.85522e-06
-2.21852e-07
4.66114e-06
-2.21067e-07
4.4732e-06
-2.20299e-07
4.29129e-06
-2.19559e-07
4.11531e-06
-2.18854e-07
3.94519e-06
-2.18189e-07
3.78083e-06
-2.17567e-07
3.62215e-06
-2.16988e-07
3.46906e-06
-2.16454e-07
3.32146e-06
-2.15965e-07
3.17924e-06
-2.15518e-07
3.04229e-06
-2.15113e-07
2.9105e-06
-2.14747e-07
2.78374e-06
-2.1442e-07
2.66189e-06
-2.14129e-07
2.54483e-06
-2.13871e-07
2.43242e-06
-2.13645e-07
2.32452e-06
-2.13448e-07
2.22102e-06
-2.13278e-07
2.12176e-06
-2.13134e-07
2.02661e-06
-2.13013e-07
1.93545e-06
-2.12913e-07
1.84813e-06
-2.12832e-07
1.76454e-06
-2.12768e-07
1.68455e-06
-2.12718e-07
1.60803e-06
-2.12684e-07
1.53488e-06
1.46513e-06
-2.0647e-07
6.1068e-06
-2.07177e-07
6.08006e-06
-2.08077e-07
6.05585e-06
-2.09177e-07
6.03461e-06
-2.10473e-07
6.01687e-06
-2.1195e-07
6.00315e-06
-2.1358e-07
5.99399e-06
-2.15322e-07
5.98991e-06
-2.17125e-07
5.99136e-06
-2.18927e-07
5.99868e-06
-2.20662e-07
6.01215e-06
-2.22262e-07
6.03186e-06
-2.23664e-07
6.05779e-06
-2.24817e-07
6.08975e-06
-2.2568e-07
6.12741e-06
-2.2623e-07
6.17035e-06
-2.26461e-07
6.21804e-06
-2.26377e-07
6.26994e-06
-2.25998e-07
6.32546e-06
-2.25349e-07
6.38399e-06
-2.24641e-07
5.26171e-06
-2.23842e-07
5.05476e-06
-2.22992e-07
4.85437e-06
-2.22122e-07
4.66027e-06
-2.21255e-07
4.47233e-06
-2.20408e-07
4.29044e-06
-2.19591e-07
4.11449e-06
-2.18812e-07
3.94441e-06
-2.18077e-07
3.78009e-06
-2.17389e-07
3.62147e-06
-2.1675e-07
3.46842e-06
-2.1616e-07
3.32087e-06
-2.15619e-07
3.1787e-06
-2.15126e-07
3.0418e-06
-2.14679e-07
2.91005e-06
-2.14276e-07
2.78334e-06
-2.13916e-07
2.66153e-06
-2.13595e-07
2.54451e-06
-2.13312e-07
2.43213e-06
-2.13063e-07
2.32428e-06
-2.12847e-07
2.2208e-06
-2.12661e-07
2.12157e-06
-2.12504e-07
2.02645e-06
-2.12372e-07
1.93532e-06
-2.12263e-07
1.84803e-06
-2.12175e-07
1.76445e-06
-2.12106e-07
1.68448e-06
-2.12055e-07
1.60798e-06
-2.1202e-07
1.53484e-06
1.46511e-06
-2.06213e-07
6.10736e-06
-2.06967e-07
6.08081e-06
-2.07923e-07
6.0568e-06
-2.09085e-07
6.03578e-06
-2.10449e-07
6.01823e-06
-2.11996e-07
6.0047e-06
-2.13698e-07
5.9957e-06
-2.15512e-07
5.99173e-06
-2.17384e-07
5.99323e-06
-2.1925e-07
6.00055e-06
-2.21042e-07
6.01394e-06
-2.22692e-07
6.03351e-06
-2.24133e-07
6.05923e-06
-2.25313e-07
6.09093e-06
-2.26189e-07
6.12829e-06
-2.26738e-07
6.17089e-06
-2.2695e-07
6.21825e-06
-2.26831e-07
6.26982e-06
-2.264e-07
6.32502e-06
-2.25682e-07
6.38327e-06
-2.24907e-07
5.26094e-06
-2.24036e-07
5.05389e-06
-2.23111e-07
4.85344e-06
-2.22164e-07
4.65933e-06
-2.21221e-07
4.47139e-06
-2.20298e-07
4.28951e-06
-2.19409e-07
4.1136e-06
-2.18561e-07
3.94356e-06
-2.1776e-07
3.77929e-06
-2.17011e-07
3.62072e-06
-2.16316e-07
3.46773e-06
-2.15674e-07
3.32023e-06
-2.15085e-07
3.17811e-06
-2.14548e-07
3.04126e-06
-2.14062e-07
2.90956e-06
-2.13625e-07
2.7829e-06
-2.13233e-07
2.66114e-06
-2.12885e-07
2.54416e-06
-2.12578e-07
2.43183e-06
-2.12309e-07
2.32401e-06
-2.12075e-07
2.22057e-06
-2.11874e-07
2.12137e-06
-2.11704e-07
2.02628e-06
-2.11561e-07
1.93517e-06
-2.11444e-07
1.84791e-06
-2.1135e-07
1.76436e-06
-2.11277e-07
1.6844e-06
-2.11223e-07
1.60792e-06
-2.11188e-07
1.53481e-06
1.4651e-06
-2.06089e-07
6.10795e-06
-2.06879e-07
6.0816e-06
-2.07877e-07
6.0578e-06
-2.09084e-07
6.03698e-06
-2.10495e-07
6.01964e-06
-2.12091e-07
6.00629e-06
-2.13841e-07
5.99745e-06
-2.157e-07
5.99359e-06
-2.17613e-07
5.99514e-06
-2.19516e-07
6.00245e-06
-2.21339e-07
6.01576e-06
-2.23011e-07
6.03518e-06
-2.24467e-07
6.06069e-06
-2.25651e-07
6.09211e-06
-2.26522e-07
6.12916e-06
-2.27053e-07
6.17143e-06
-2.27234e-07
6.21843e-06
-2.2707e-07
6.26965e-06
-2.26579e-07
6.32453e-06
-2.25789e-07
6.38248e-06
-2.24946e-07
5.2601e-06
-2.24003e-07
5.05295e-06
-2.23005e-07
4.85244e-06
-2.21984e-07
4.6583e-06
-2.20967e-07
4.47037e-06
-2.19973e-07
4.28852e-06
-2.19014e-07
4.11264e-06
-2.181e-07
3.94264e-06
-2.17238e-07
3.77843e-06
-2.16431e-07
3.61991e-06
-2.15681e-07
3.46698e-06
-2.1499e-07
3.31954e-06
-2.14356e-07
3.17747e-06
-2.13779e-07
3.04068e-06
-2.13256e-07
2.90904e-06
-2.12786e-07
2.78243e-06
-2.12365e-07
2.66072e-06
-2.11992e-07
2.54379e-06
-2.11662e-07
2.4315e-06
-2.11373e-07
2.32372e-06
-2.11123e-07
2.22031e-06
-2.10908e-07
2.12115e-06
-2.10725e-07
2.0261e-06
-2.10572e-07
1.93502e-06
-2.10447e-07
1.84778e-06
-2.10347e-07
1.76426e-06
-2.1027e-07
1.68433e-06
-2.10214e-07
1.60787e-06
-2.10178e-07
1.53477e-06
1.46508e-06
-2.06091e-07
6.10856e-06
-2.06906e-07
6.08242e-06
-2.07931e-07
6.05882e-06
-2.09168e-07
6.03822e-06
-2.10608e-07
6.02108e-06
-2.12232e-07
6.00792e-06
-2.14006e-07
5.99922e-06
-2.15887e-07
5.99547e-06
-2.17817e-07
5.99707e-06
-2.19731e-07
6.00437e-06
-2.21559e-07
6.01759e-06
-2.23229e-07
6.03685e-06
-2.24677e-07
6.06213e-06
-2.25845e-07
6.09328e-06
-2.26691e-07
6.13e-06
-2.27188e-07
6.17192e-06
-2.27324e-07
6.21857e-06
-2.27105e-07
6.26943e-06
-2.26548e-07
6.32398e-06
-2.2568e-07
6.38162e-06
-2.24767e-07
5.25918e-06
-2.23753e-07
5.05194e-06
-2.22681e-07
4.85137e-06
-2.21587e-07
4.65721e-06
-2.20498e-07
4.46928e-06
-2.19434e-07
4.28745e-06
-2.18408e-07
4.11162e-06
-2.1743e-07
3.94167e-06
-2.16508e-07
3.77751e-06
-2.15645e-07
3.61905e-06
-2.14844e-07
3.46618e-06
-2.14106e-07
3.3188e-06
-2.13429e-07
3.1768e-06
-2.12813e-07
3.04007e-06
-2.12255e-07
2.90848e-06
-2.11753e-07
2.78193e-06
-2.11305e-07
2.66027e-06
-2.10907e-07
2.54339e-06
-2.10556e-07
2.43115e-06
-2.10249e-07
2.32341e-06
-2.09982e-07
2.22005e-06
-2.09754e-07
2.12093e-06
-2.0956e-07
2.02591e-06
-2.09398e-07
1.93486e-06
-2.09266e-07
1.84765e-06
-2.0916e-07
1.76415e-06
-2.09079e-07
1.68425e-06
-2.0902e-07
1.60781e-06
-2.08982e-07
1.53473e-06
1.46506e-06
-2.06212e-07
6.10919e-06
-2.07041e-07
6.08325e-06
-2.0808e-07
6.05986e-06
-2.0933e-07
6.03947e-06
-2.10782e-07
6.02253e-06
-2.12414e-07
6.00955e-06
-2.14194e-07
6.001e-06
-2.16073e-07
5.99735e-06
-2.17997e-07
5.999e-06
-2.19899e-07
6.00627e-06
-2.21708e-07
6.0194e-06
-2.23355e-07
6.0385e-06
-2.24773e-07
6.06355e-06
-2.25905e-07
6.09441e-06
-2.26708e-07
6.13081e-06
-2.27155e-07
6.17237e-06
-2.27234e-07
6.21865e-06
-2.26949e-07
6.26915e-06
-2.26316e-07
6.32334e-06
-2.25366e-07
6.38066e-06
-2.24379e-07
5.2582e-06
-2.2329e-07
5.05085e-06
-2.22144e-07
4.85022e-06
-2.20977e-07
4.65604e-06
-2.19816e-07
4.46812e-06
-2.18683e-07
4.28632e-06
-2.1759e-07
4.11052e-06
-2.16551e-07
3.94063e-06
-2.1557e-07
3.77653e-06
-2.14653e-07
3.61813e-06
-2.13802e-07
3.46533e-06
-2.13017e-07
3.31801e-06
-2.12299e-07
3.17608e-06
-2.11645e-07
3.03941e-06
-2.11053e-07
2.90789e-06
-2.10521e-07
2.78139e-06
-2.10046e-07
2.6598e-06
-2.09625e-07
2.54297e-06
-2.09253e-07
2.43077e-06
-2.08928e-07
2.32309e-06
-2.08647e-07
2.21977e-06
-2.08406e-07
2.12068e-06
-2.08201e-07
2.0257e-06
-2.0803e-07
1.93469e-06
-2.07891e-07
1.84751e-06
-2.07779e-07
1.76404e-06
-2.07694e-07
1.68416e-06
-2.07632e-07
1.60775e-06
-2.07591e-07
1.53469e-06
1.46504e-06
-2.06448e-07
6.10981e-06
-2.07279e-07
6.08408e-06
-2.0832e-07
6.06091e-06
-2.09569e-07
6.04072e-06
-2.11016e-07
6.02398e-06
-2.12639e-07
6.01117e-06
-2.14403e-07
6.00276e-06
-2.16261e-07
5.99921e-06
-2.18156e-07
6.00089e-06
-2.20024e-07
6.00814e-06
-2.21794e-07
6.02117e-06
-2.23396e-07
6.0401e-06
-2.24763e-07
6.06492e-06
-2.2584e-07
6.09549e-06
-2.26583e-07
6.13155e-06
-2.26965e-07
6.17275e-06
-2.26972e-07
6.21866e-06
-2.26609e-07
6.26879e-06
-2.25892e-07
6.32263e-06
-2.24851e-07
6.37962e-06
-2.23787e-07
5.25713e-06
-2.2262e-07
5.04968e-06
-2.21398e-07
4.849e-06
-2.20156e-07
4.6548e-06
-2.18923e-07
4.46689e-06
-2.1772e-07
4.28512e-06
-2.16562e-07
4.10937e-06
-2.1546e-07
3.93953e-06
-2.14421e-07
3.77549e-06
-2.13451e-07
3.61716e-06
-2.1255e-07
3.46443e-06
-2.11721e-07
3.31718e-06
-2.10961e-07
3.17532e-06
-2.1027e-07
3.03872e-06
-2.09645e-07
2.90727e-06
-2.09084e-07
2.78083e-06
-2.08583e-07
2.65929e-06
-2.08138e-07
2.54252e-06
-2.07747e-07
2.43038e-06
-2.07405e-07
2.32274e-06
-2.07109e-07
2.21947e-06
-2.06855e-07
2.12043e-06
-2.0664e-07
2.02549e-06
-2.06461e-07
1.93451e-06
-2.06314e-07
1.84736e-06
-2.06196e-07
1.76393e-06
-2.06106e-07
1.68407e-06
-2.0604e-07
1.60768e-06
-2.05997e-07
1.53465e-06
1.46502e-06
-2.06794e-07
6.11044e-06
-2.07618e-07
6.0849e-06
-2.08648e-07
6.06194e-06
-2.09882e-07
6.04195e-06
-2.11309e-07
6.02541e-06
-2.12905e-07
6.01277e-06
-2.14635e-07
6.00449e-06
-2.16452e-07
6.00102e-06
-2.183e-07
6.00274e-06
-2.20113e-07
6.00995e-06
-2.21822e-07
6.02288e-06
-2.23359e-07
6.04164e-06
-2.24656e-07
6.06622e-06
-2.2566e-07
6.09649e-06
-2.26326e-07
6.13222e-06
-2.26625e-07
6.17305e-06
-2.26548e-07
6.21858e-06
-2.26095e-07
6.26833e-06
-2.25284e-07
6.32182e-06
-2.24143e-07
6.37848e-06
-2.22995e-07
5.25598e-06
-2.21747e-07
5.04843e-06
-2.20445e-07
4.8477e-06
-2.19126e-07
4.65348e-06
-2.17819e-07
4.46558e-06
-2.16545e-07
4.28385e-06
-2.15321e-07
4.10814e-06
-2.14157e-07
3.93836e-06
-2.1306e-07
3.77439e-06
-2.12036e-07
3.61613e-06
-2.11086e-07
3.46348e-06
-2.10211e-07
3.31631e-06
-2.09411e-07
3.17452e-06
-2.08683e-07
3.03799e-06
-2.08025e-07
2.90661e-06
-2.07434e-07
2.78024e-06
-2.06907e-07
2.65877e-06
-2.0644e-07
2.54205e-06
-2.06029e-07
2.42997e-06
-2.05669e-07
2.32238e-06
-2.05359e-07
2.21916e-06
-2.05093e-07
2.12016e-06
-2.04867e-07
2.02526e-06
-2.04679e-07
1.93432e-06
-2.04524e-07
1.84721e-06
-2.044e-07
1.7638e-06
-2.04305e-07
1.68397e-06
-2.04235e-07
1.60761e-06
-2.04189e-07
1.5346e-06
1.465e-06
-2.07249e-07
6.11104e-06
-2.08055e-07
6.08571e-06
-2.09063e-07
6.06294e-06
-2.10268e-07
6.04316e-06
-2.11659e-07
6.0268e-06
-2.13212e-07
6.01432e-06
-2.14891e-07
6.00617e-06
-2.16649e-07
6.00278e-06
-2.1843e-07
6.00452e-06
-2.20169e-07
6.01169e-06
-2.21799e-07
6.02451e-06
-2.23251e-07
6.04309e-06
-2.2446e-07
6.06743e-06
-2.25372e-07
6.0974e-06
-2.25943e-07
6.13279e-06
-2.26146e-07
6.17325e-06
-2.25969e-07
6.2184e-06
-2.25413e-07
6.26778e-06
-2.24497e-07
6.3209e-06
-2.23248e-07
6.37724e-06
-2.2201e-07
5.25475e-06
-2.20674e-07
5.0471e-06
-2.19288e-07
4.84631e-06
-2.17889e-07
4.65209e-06
-2.16505e-07
4.4642e-06
-2.15159e-07
4.2825e-06
-2.13866e-07
4.10685e-06
-2.12638e-07
3.93713e-06
-2.11483e-07
3.77324e-06
-2.10404e-07
3.61506e-06
-2.09404e-07
3.46248e-06
-2.08484e-07
3.31539e-06
-2.07642e-07
3.17368e-06
-2.06878e-07
3.03723e-06
-2.06186e-07
2.90592e-06
-2.05566e-07
2.77962e-06
-2.05013e-07
2.65821e-06
-2.04522e-07
2.54156e-06
-2.04091e-07
2.42954e-06
-2.03714e-07
2.32201e-06
-2.03389e-07
2.21883e-06
-2.0311e-07
2.11988e-06
-2.02873e-07
2.02502e-06
-2.02675e-07
1.93412e-06
-2.02512e-07
1.84705e-06
-2.02381e-07
1.76367e-06
-2.0228e-07
1.68387e-06
-2.02206e-07
1.60754e-06
-2.02157e-07
1.53456e-06
1.46498e-06
-2.0781e-07
6.11163e-06
-2.08588e-07
6.08649e-06
-2.09562e-07
6.06392e-06
-2.10726e-07
6.04432e-06
-2.12068e-07
6.02814e-06
-2.13562e-07
6.01581e-06
-2.15173e-07
6.00778e-06
-2.16855e-07
6.00446e-06
-2.18551e-07
6.00622e-06
-2.20199e-07
6.01334e-06
-2.21731e-07
6.02604e-06
-2.23079e-07
6.04444e-06
-2.24182e-07
6.06853e-06
-2.24984e-07
6.09821e-06
-2.25445e-07
6.13325e-06
-2.25535e-07
6.17334e-06
-2.25243e-07
6.21811e-06
-2.24572e-07
6.26711e-06
-2.23538e-07
6.31987e-06
-2.2217e-07
6.37587e-06
-2.20834e-07
5.25341e-06
-2.19406e-07
5.04567e-06
-2.1793e-07
4.84484e-06
-2.16446e-07
4.6506e-06
-2.14982e-07
4.46274e-06
-2.1356e-07
4.28108e-06
-2.12197e-07
4.10549e-06
-2.10904e-07
3.93584e-06
-2.09687e-07
3.77202e-06
-2.08552e-07
3.61392e-06
-2.07501e-07
3.46142e-06
-2.06534e-07
3.31442e-06
-2.05651e-07
3.17279e-06
-2.04848e-07
3.03642e-06
-2.04122e-07
2.90519e-06
-2.03472e-07
2.77897e-06
-2.02891e-07
2.65763e-06
-2.02377e-07
2.54105e-06
-2.01925e-07
2.42909e-06
-2.01531e-07
2.32161e-06
-2.01189e-07
2.21849e-06
-2.00897e-07
2.11959e-06
-2.00648e-07
2.02478e-06
-2.0044e-07
1.93391e-06
-2.00268e-07
1.84688e-06
-2.0013e-07
1.76353e-06
-2.00023e-07
1.68376e-06
-1.99944e-07
1.60746e-06
-1.99892e-07
1.5345e-06
1.46496e-06
-2.08475e-07
6.11218e-06
-2.09216e-07
6.08723e-06
-2.10145e-07
6.06484e-06
-2.11256e-07
6.04543e-06
-2.12534e-07
6.02942e-06
-2.13955e-07
6.01723e-06
-2.15484e-07
6.00931e-06
-2.17073e-07
6.00605e-06
-2.18668e-07
6.00781e-06
-2.20206e-07
6.01487e-06
-2.21622e-07
6.02746e-06
-2.2285e-07
6.04567e-06
-2.23828e-07
6.06951e-06
-2.24504e-07
6.09888e-06
-2.24837e-07
6.13358e-06
-2.24799e-07
6.17331e-06
-2.24378e-07
6.21769e-06
-2.23577e-07
6.26631e-06
-2.22413e-07
6.3187e-06
-2.20915e-07
6.37437e-06
-2.19473e-07
5.25197e-06
-2.17944e-07
5.04414e-06
-2.16373e-07
4.84327e-06
-2.14799e-07
4.64903e-06
-2.1325e-07
4.46119e-06
-2.11749e-07
4.27958e-06
-2.10312e-07
4.10405e-06
-2.08949e-07
3.93448e-06
-2.0767e-07
3.77074e-06
-2.06477e-07
3.61273e-06
-2.05372e-07
3.46032e-06
-2.04357e-07
3.31341e-06
-2.0343e-07
3.17187e-06
-2.02587e-07
3.03558e-06
-2.01827e-07
2.90443e-06
-2.01145e-07
2.77829e-06
-2.00536e-07
2.65702e-06
-1.99998e-07
2.54051e-06
-1.99524e-07
2.42861e-06
-1.99111e-07
2.3212e-06
-1.98753e-07
2.21813e-06
-1.98446e-07
2.11928e-06
-1.98185e-07
2.02452e-06
-1.97966e-07
1.93369e-06
-1.97785e-07
1.84669e-06
-1.97639e-07
1.76339e-06
-1.97525e-07
1.68365e-06
-1.97441e-07
1.60737e-06
-1.97386e-07
1.53445e-06
1.46493e-06
-2.09243e-07
6.1127e-06
-2.09938e-07
6.08792e-06
-2.10812e-07
6.06572e-06
-2.11857e-07
6.04648e-06
-2.1306e-07
6.03062e-06
-2.14394e-07
6.01857e-06
-2.15825e-07
6.01074e-06
-2.17306e-07
6.00753e-06
-2.18782e-07
6.00929e-06
-2.20194e-07
6.01629e-06
-2.21478e-07
6.02874e-06
-2.22568e-07
6.04676e-06
-2.23405e-07
6.07035e-06
-2.23938e-07
6.09942e-06
-2.24126e-07
6.13377e-06
-2.23944e-07
6.17312e-06
-2.23378e-07
6.21712e-06
-2.22434e-07
6.26536e-06
-2.21126e-07
6.31739e-06
-2.19486e-07
6.37273e-06
-2.17929e-07
5.25041e-06
-2.16291e-07
5.0425e-06
-2.14618e-07
4.8416e-06
-2.12948e-07
4.64736e-06
-2.11309e-07
4.45955e-06
-2.09723e-07
4.27799e-06
-2.08208e-07
4.10253e-06
-2.06773e-07
3.93304e-06
-2.05427e-07
3.7694e-06
-2.04173e-07
3.61147e-06
-2.03013e-07
3.45916e-06
-2.01947e-07
3.31234e-06
-2.00974e-07
3.17089e-06
-2.0009e-07
3.0347e-06
-1.99293e-07
2.90363e-06
-1.98578e-07
2.77757e-06
-1.97941e-07
2.65639e-06
-1.97376e-07
2.53995e-06
-1.9688e-07
2.42812e-06
-1.96447e-07
2.32077e-06
-1.96071e-07
2.21776e-06
-1.95749e-07
2.11896e-06
-1.95475e-07
2.02424e-06
-1.95244e-07
1.93346e-06
-1.95054e-07
1.8465e-06
-1.949e-07
1.76323e-06
-1.9478e-07
1.68353e-06
-1.94691e-07
1.60729e-06
-1.94632e-07
1.53439e-06
1.4649e-06
-2.10115e-07
6.11317e-06
-2.10754e-07
6.08856e-06
-2.11562e-07
6.06653e-06
-2.12532e-07
6.04745e-06
-2.13646e-07
6.03174e-06
-2.14881e-07
6.0198e-06
-2.16199e-07
6.01206e-06
-2.17557e-07
6.00889e-06
-2.189e-07
6.01063e-06
-2.2017e-07
6.01756e-06
-2.21304e-07
6.02987e-06
-2.2224e-07
6.04769e-06
-2.22919e-07
6.07103e-06
-2.23292e-07
6.09979e-06
-2.23319e-07
6.1338e-06
-2.22976e-07
6.17278e-06
-2.22251e-07
6.2164e-06
-2.21147e-07
6.26426e-06
-2.19682e-07
6.31593e-06
-2.17887e-07
6.37094e-06
-2.16204e-07
5.24873e-06
-2.14449e-07
5.04075e-06
-2.12666e-07
4.83981e-06
-2.10892e-07
4.64558e-06
-2.09157e-07
4.45781e-06
-2.07482e-07
4.27632e-06
-2.05884e-07
4.10094e-06
-2.04372e-07
3.93153e-06
-2.02955e-07
3.76798e-06
-2.01637e-07
3.61016e-06
-2.00418e-07
3.45794e-06
-1.99299e-07
3.31122e-06
-1.98278e-07
3.16987e-06
-1.97351e-07
3.03377e-06
-1.96515e-07
2.9028e-06
-1.95765e-07
2.77682e-06
-1.95097e-07
2.65572e-06
-1.94506e-07
2.53935e-06
-1.93985e-07
2.4276e-06
-1.93531e-07
2.32031e-06
-1.93137e-07
2.21737e-06
-1.92798e-07
2.11862e-06
-1.9251e-07
2.02395e-06
-1.92268e-07
1.93322e-06
-1.92068e-07
1.8463e-06
-1.91906e-07
1.76307e-06
-1.91779e-07
1.6834e-06
-1.91685e-07
1.60719e-06
-1.91623e-07
1.53433e-06
1.46487e-06
-2.1109e-07
6.11358e-06
-2.11665e-07
6.08914e-06
-2.12398e-07
6.06726e-06
-2.13281e-07
6.04833e-06
-2.14295e-07
6.03275e-06
-2.15417e-07
6.02093e-06
-2.1661e-07
6.01325e-06
-2.1783e-07
6.01011e-06
-2.19025e-07
6.01183e-06
-2.20137e-07
6.01867e-06
-2.21106e-07
6.03084e-06
-2.21871e-07
6.04846e-06
-2.22375e-07
6.07153e-06
-2.22571e-07
6.09999e-06
-2.22421e-07
6.13365e-06
-2.21901e-07
6.17226e-06
-2.20999e-07
6.2155e-06
-2.19722e-07
6.26298e-06
-2.18085e-07
6.31429e-06
-2.1612e-07
6.36897e-06
-2.14302e-07
5.24691e-06
-2.12419e-07
5.03887e-06
-2.10517e-07
4.83791e-06
-2.08632e-07
4.6437e-06
-2.06794e-07
4.45597e-06
-2.05023e-07
4.27455e-06
-2.03336e-07
4.09925e-06
-2.01743e-07
3.92994e-06
-2.00251e-07
3.76649e-06
-1.98864e-07
3.60877e-06
-1.97583e-07
3.45666e-06
-1.96408e-07
3.31005e-06
-1.95336e-07
3.1688e-06
-1.94363e-07
3.0328e-06
-1.93486e-07
2.90192e-06
-1.92699e-07
2.77604e-06
-1.91999e-07
2.65502e-06
-1.91378e-07
2.53873e-06
-1.90832e-07
2.42705e-06
-1.90355e-07
2.31984e-06
-1.89942e-07
2.21695e-06
-1.89586e-07
2.11827e-06
-1.89284e-07
2.02365e-06
-1.89029e-07
1.93297e-06
-1.88818e-07
1.84609e-06
-1.88647e-07
1.7629e-06
-1.88514e-07
1.68327e-06
-1.88415e-07
1.60709e-06
-1.88349e-07
1.53426e-06
1.46484e-06
-2.12168e-07
6.11394e-06
-2.12672e-07
6.08964e-06
-2.13321e-07
6.06791e-06
-2.14106e-07
6.04912e-06
-2.1501e-07
6.03366e-06
-2.16006e-07
6.02192e-06
-2.17061e-07
6.01431e-06
-2.1813e-07
6.01118e-06
-2.19162e-07
6.01286e-06
-2.20102e-07
6.01961e-06
-2.20889e-07
6.03163e-06
-2.21467e-07
6.04903e-06
-2.2178e-07
6.07184e-06
-2.21783e-07
6.09999e-06
-2.21438e-07
6.1333e-06
-2.20724e-07
6.17154e-06
-2.1963e-07
6.2144e-06
-2.18162e-07
6.26151e-06
-2.16338e-07
6.31247e-06
-2.14189e-07
6.36682e-06
-2.12223e-07
5.24494e-06
-2.10203e-07
5.03684e-06
-2.08172e-07
4.83588e-06
-2.06168e-07
4.64169e-06
-2.04218e-07
4.45402e-06
-2.02344e-07
4.27267e-06
-2.00562e-07
4.09747e-06
-1.98882e-07
3.92826e-06
-1.9731e-07
3.76492e-06
-1.9585e-07
3.60731e-06
-1.94503e-07
3.45531e-06
-1.93268e-07
3.30881e-06
-1.92141e-07
3.16767e-06
-1.91119e-07
3.03178e-06
-1.90198e-07
2.901e-06
-1.89373e-07
2.77521e-06
-1.88637e-07
2.65428e-06
-1.87986e-07
2.53808e-06
-1.87413e-07
2.42648e-06
-1.86912e-07
2.31933e-06
-1.86477e-07
2.21652e-06
-1.86104e-07
2.1179e-06
-1.85785e-07
2.02333e-06
-1.85517e-07
1.9327e-06
-1.85295e-07
1.84587e-06
-1.85116e-07
1.76272e-06
-1.84975e-07
1.68313e-06
-1.8487e-07
1.60699e-06
-1.84801e-07
1.53419e-06
1.46481e-06
-2.13351e-07
6.11423e-06
-2.13776e-07
6.09006e-06
-2.14332e-07
6.06846e-06
-2.1501e-07
6.04979e-06
-2.15792e-07
6.03444e-06
-2.16653e-07
6.02278e-06
-2.17556e-07
6.01521e-06
-2.18461e-07
6.01208e-06
-2.19317e-07
6.01371e-06
-2.20069e-07
6.02036e-06
-2.2066e-07
6.03222e-06
-2.21035e-07
6.04941e-06
-2.21141e-07
6.07195e-06
-2.20933e-07
6.09978e-06
-2.20377e-07
6.13275e-06
-2.19451e-07
6.17062e-06
-2.18148e-07
6.2131e-06
-2.16473e-07
6.25984e-06
-2.14444e-07
6.31044e-06
-2.12095e-07
6.36447e-06
-2.0997e-07
5.24282e-06
-2.078e-07
5.03468e-06
-2.05631e-07
4.83371e-06
-2.03497e-07
4.63956e-06
-2.01428e-07
4.45195e-06
-1.99444e-07
4.27069e-06
-1.97559e-07
4.09558e-06
-1.95786e-07
3.92648e-06
-1.94128e-07
3.76326e-06
-1.9259e-07
3.60577e-06
-1.91172e-07
3.4539e-06
-1.89872e-07
3.30751e-06
-1.88687e-07
3.16649e-06
-1.87613e-07
3.0307e-06
-1.86646e-07
2.90003e-06
-1.85778e-07
2.77434e-06
-1.85005e-07
2.65351e-06
-1.84321e-07
2.5374e-06
-1.83718e-07
2.42588e-06
-1.83192e-07
2.31881e-06
-1.82735e-07
2.21606e-06
-1.82342e-07
2.1175e-06
-1.82007e-07
2.023e-06
-1.81724e-07
1.93242e-06
-1.8149e-07
1.84564e-06
-1.813e-07
1.76253e-06
-1.81151e-07
1.68298e-06
-1.81041e-07
1.60688e-06
-1.80967e-07
1.53412e-06
1.46477e-06
-2.14641e-07
6.11444e-06
-2.14979e-07
6.0904e-06
-2.15435e-07
6.06892e-06
-2.15996e-07
6.05036e-06
-2.16647e-07
6.03509e-06
-2.17359e-07
6.0235e-06
-2.181e-07
6.01595e-06
-2.18828e-07
6.01281e-06
-2.19493e-07
6.01438e-06
-2.20043e-07
6.02091e-06
-2.20423e-07
6.0326e-06
-2.2058e-07
6.04956e-06
-2.20461e-07
6.07183e-06
-2.20026e-07
6.09934e-06
-2.19242e-07
6.13196e-06
-2.18088e-07
6.16946e-06
-2.16558e-07
6.21157e-06
-2.14658e-07
6.25794e-06
-2.12408e-07
6.30819e-06
-2.09842e-07
6.36191e-06
-2.07543e-07
5.24052e-06
-2.05213e-07
5.03235e-06
-2.02893e-07
4.83139e-06
-2.0062e-07
4.63729e-06
-1.98422e-07
4.44976e-06
-1.96318e-07
4.26858e-06
-1.94325e-07
4.09359e-06
-1.9245e-07
3.92461e-06
-1.90701e-07
3.76151e-06
-1.89079e-07
3.60415e-06
-1.87584e-07
3.4524e-06
-1.86215e-07
3.30614e-06
-1.84968e-07
3.16524e-06
-1.83838e-07
3.02957e-06
-1.8282e-07
2.89901e-06
-1.81908e-07
2.77343e-06
-1.81095e-07
2.6527e-06
-1.80375e-07
2.53668e-06
-1.79741e-07
2.42524e-06
-1.79187e-07
2.31825e-06
-1.78706e-07
2.21558e-06
-1.78291e-07
2.11709e-06
-1.77938e-07
2.02264e-06
-1.7764e-07
1.93212e-06
-1.77393e-07
1.84539e-06
-1.77192e-07
1.76233e-06
-1.77034e-07
1.68282e-06
-1.76917e-07
1.60676e-06
-1.76839e-07
1.53404e-06
1.46473e-06
-2.1604e-07
6.11458e-06
-2.16285e-07
6.09065e-06
-2.16631e-07
6.06927e-06
-2.17068e-07
6.05079e-06
-2.17577e-07
6.0356e-06
-2.18131e-07
6.02405e-06
-2.18698e-07
6.01652e-06
-2.19235e-07
6.01335e-06
-2.19697e-07
6.01484e-06
-2.20031e-07
6.02124e-06
-2.20185e-07
6.03275e-06
-2.20107e-07
6.04948e-06
-2.19748e-07
6.07147e-06
-2.19069e-07
6.09866e-06
-2.18039e-07
6.13093e-06
-2.16639e-07
6.16806e-06
-2.14863e-07
6.20979e-06
-2.12721e-07
6.25579e-06
-2.10232e-07
6.3057e-06
-2.07432e-07
6.35911e-06
-2.04946e-07
5.23803e-06
-2.0244e-07
5.02984e-06
-1.99959e-07
4.82891e-06
-1.97535e-07
4.63486e-06
-1.95198e-07
4.44742e-06
-1.92966e-07
4.26635e-06
-1.90854e-07
4.09148e-06
-1.88871e-07
3.92263e-06
-1.87023e-07
3.75966e-06
-1.8531e-07
3.60244e-06
-1.83734e-07
3.45082e-06
-1.8229e-07
3.3047e-06
-1.80976e-07
3.16393e-06
-1.79786e-07
3.02838e-06
-1.78714e-07
2.89794e-06
-1.77753e-07
2.77247e-06
-1.76897e-07
2.65184e-06
-1.76139e-07
2.53592e-06
-1.75471e-07
2.42457e-06
-1.74887e-07
2.31767e-06
-1.7438e-07
2.21507e-06
-1.73943e-07
2.11665e-06
-1.7357e-07
2.02227e-06
-1.73255e-07
1.9318e-06
-1.72994e-07
1.84513e-06
-1.72781e-07
1.76212e-06