/*--------------------------------*- C++ -*----------------------------------*\
  =========                 |
  \\      /  F ield         | OpenFOAM: The Open Source CFD Toolbox
   \\    /   O peration     | Website:  https://openfoam.org
    \\  /    A nd           | Version:  9
     \\/     M anipulation  |
\*---------------------------------------------------------------------------*/
FoamFile
{
    format      ascii;
    class       volScalarField;
    location    "0.03";
    object      rAU;
}
// * * * * * * * * * * * * * * * * * * * * * * * * * * * * * * * * * * * * * //

dimensions      [-1 3 1 0 0 0 0];

internalField   nonuniform List<scalar> 
5000
(
3.0182e-05
3.02378e-05
3.02888e-05
3.0334e-05
3.03722e-05
3.04022e-05
3.04225e-05
3.04321e-05
3.04298e-05
3.04149e-05
3.03867e-05
3.03451e-05
3.02903e-05
3.0223e-05
3.01441e-05
3.00549e-05
2.99568e-05
2.98511e-05
2.97392e-05
2.9608e-05
2.93533e-05
2.919e-05
2.90435e-05
2.88974e-05
2.87513e-05
2.86047e-05
2.84572e-05
2.8308e-05
2.81566e-05
2.80021e-05
2.78439e-05
2.76811e-05
2.75129e-05
2.73383e-05
2.71565e-05
2.69665e-05
2.67673e-05
2.65579e-05
2.63372e-05
2.61041e-05
2.58576e-05
2.55966e-05
2.53199e-05
2.50265e-05
2.47154e-05
2.43855e-05
2.40359e-05
2.36656e-05
2.32739e-05
1.87172e-05
4.07748e-05
4.08127e-05
4.08472e-05
4.08776e-05
4.09031e-05
4.09228e-05
4.0936e-05
4.09418e-05
4.09395e-05
4.09287e-05
4.09088e-05
4.08799e-05
4.0842e-05
4.07957e-05
4.07414e-05
4.068e-05
4.06124e-05
4.05395e-05
4.04622e-05
4.03543e-05
4.00066e-05
3.98142e-05
3.96473e-05
3.94753e-05
3.92974e-05
3.91129e-05
3.89208e-05
3.87204e-05
3.85105e-05
3.82901e-05
3.8058e-05
3.78131e-05
3.75541e-05
3.72796e-05
3.69885e-05
3.66792e-05
3.63503e-05
3.60005e-05
3.56283e-05
3.52324e-05
3.48112e-05
3.43636e-05
3.38882e-05
3.3384e-05
3.28498e-05
3.2285e-05
3.16887e-05
3.10605e-05
3.04004e-05
2.3072e-05
4.07764e-05
4.08141e-05
4.08483e-05
4.08784e-05
4.09035e-05
4.09228e-05
4.09355e-05
4.09408e-05
4.0938e-05
4.09267e-05
4.09065e-05
4.08772e-05
4.08391e-05
4.07926e-05
4.07383e-05
4.06769e-05
4.06094e-05
4.05366e-05
4.04595e-05
4.03519e-05
4.00038e-05
3.98116e-05
3.96449e-05
3.9473e-05
3.92953e-05
3.91109e-05
3.8919e-05
3.87187e-05
3.8509e-05
3.82887e-05
3.80568e-05
3.7812e-05
3.75532e-05
3.72789e-05
3.69878e-05
3.66786e-05
3.63499e-05
3.60002e-05
3.56281e-05
3.52322e-05
3.48112e-05
3.43636e-05
3.38883e-05
3.33841e-05
3.285e-05
3.22852e-05
3.16889e-05
3.10608e-05
3.04008e-05
2.30723e-05
4.07777e-05
4.08151e-05
4.0849e-05
4.08787e-05
4.09033e-05
4.09222e-05
4.09345e-05
4.09393e-05
4.09362e-05
4.09245e-05
4.09039e-05
4.08744e-05
4.08362e-05
4.07896e-05
4.07353e-05
4.06741e-05
4.06067e-05
4.05341e-05
4.04573e-05
4.035e-05
4.00018e-05
3.98097e-05
3.96431e-05
3.94714e-05
3.92938e-05
3.91096e-05
3.89179e-05
3.87177e-05
3.85081e-05
3.8288e-05
3.80562e-05
3.78116e-05
3.75528e-05
3.72787e-05
3.69877e-05
3.66787e-05
3.635e-05
3.60004e-05
3.56284e-05
3.52326e-05
3.48116e-05
3.43641e-05
3.38888e-05
3.33847e-05
3.28506e-05
3.22858e-05
3.16895e-05
3.10614e-05
3.04014e-05
2.30729e-05
4.07785e-05
4.08157e-05
4.08492e-05
4.08785e-05
4.09028e-05
4.09213e-05
4.09331e-05
4.09375e-05
4.0934e-05
4.0922e-05
4.09012e-05
4.08715e-05
4.08333e-05
4.07867e-05
4.07326e-05
4.06715e-05
4.06044e-05
4.05321e-05
4.04555e-05
4.03486e-05
4.00003e-05
3.98084e-05
3.9642e-05
3.94705e-05
3.9293e-05
3.9109e-05
3.89174e-05
3.87174e-05
3.85079e-05
3.82879e-05
3.80563e-05
3.78118e-05
3.75531e-05
3.7279e-05
3.69882e-05
3.66792e-05
3.63507e-05
3.60011e-05
3.56292e-05
3.52334e-05
3.48125e-05
3.4365e-05
3.38898e-05
3.33856e-05
3.28516e-05
3.22868e-05
3.16905e-05
3.10624e-05
3.04024e-05
2.30738e-05
4.0779e-05
4.08159e-05
4.08491e-05
4.0878e-05
4.09019e-05
4.09199e-05
4.09314e-05
4.09354e-05
4.09316e-05
4.09193e-05
4.08983e-05
4.08686e-05
4.08304e-05
4.0784e-05
4.073e-05
4.06692e-05
4.06024e-05
4.05305e-05
4.04543e-05
4.03477e-05
3.99994e-05
3.98078e-05
3.96416e-05
3.94702e-05
3.92929e-05
3.9109e-05
3.89176e-05
3.87177e-05
3.85084e-05
3.82885e-05
3.8057e-05
3.78125e-05
3.7554e-05
3.728e-05
3.69893e-05
3.66804e-05
3.63519e-05
3.60024e-05
3.56305e-05
3.52348e-05
3.48139e-05
3.43664e-05
3.38912e-05
3.33871e-05
3.2853e-05
3.22882e-05
3.1692e-05
3.10639e-05
3.04038e-05
2.30751e-05
4.07792e-05
4.08158e-05
4.08486e-05
4.08772e-05
4.09007e-05
4.09183e-05
4.09293e-05
4.09331e-05
4.0929e-05
4.09165e-05
4.08954e-05
4.08657e-05
4.08276e-05
4.07814e-05
4.07277e-05
4.06672e-05
4.06008e-05
4.05292e-05
4.04534e-05
4.03472e-05
3.99991e-05
3.98077e-05
3.96417e-05
3.94705e-05
3.92934e-05
3.91097e-05
3.89184e-05
3.87187e-05
3.85095e-05
3.82897e-05
3.80583e-05
3.78139e-05
3.75555e-05
3.72816e-05
3.69909e-05
3.66821e-05
3.63537e-05
3.60042e-05
3.56324e-05
3.52367e-05
3.48158e-05
3.43684e-05
3.38932e-05
3.33891e-05
3.2855e-05
3.22902e-05
3.1694e-05
3.10658e-05
3.04057e-05
2.3077e-05
4.07791e-05
4.08153e-05
4.08479e-05
4.0876e-05
4.08991e-05
4.09164e-05
4.09271e-05
4.09306e-05
4.09262e-05
4.09136e-05
4.08925e-05
4.08629e-05
4.08249e-05
4.07789e-05
4.07256e-05
4.06655e-05
4.05995e-05
4.05284e-05
4.0453e-05
4.03472e-05
3.99993e-05
3.98082e-05
3.96424e-05
3.94715e-05
3.92945e-05
3.9111e-05
3.89198e-05
3.87202e-05
3.85112e-05
3.82915e-05
3.80602e-05
3.7816e-05
3.75576e-05
3.72838e-05
3.69932e-05
3.66844e-05
3.6356e-05
3.60067e-05
3.56349e-05
3.52392e-05
3.48184e-05
3.4371e-05
3.38958e-05
3.33917e-05
3.28576e-05
3.22928e-05
3.16965e-05
3.10684e-05
3.04082e-05
2.30794e-05
4.07788e-05
4.08147e-05
4.08468e-05
4.08747e-05
4.08974e-05
4.09143e-05
4.09247e-05
4.09279e-05
4.09233e-05
4.09107e-05
4.08896e-05
4.08601e-05
4.08223e-05
4.07767e-05
4.07237e-05
4.0664e-05
4.05985e-05
4.05278e-05
4.04529e-05
4.03476e-05
4e-05
3.98092e-05
3.96437e-05
3.94729e-05
3.92962e-05
3.91128e-05
3.89219e-05
3.87224e-05
3.85135e-05
3.82939e-05
3.80627e-05
3.78186e-05
3.75603e-05
3.72866e-05
3.69961e-05
3.66873e-05
3.6359e-05
3.60097e-05
3.5638e-05
3.52424e-05
3.48215e-05
3.43741e-05
3.3899e-05
3.33949e-05
3.28608e-05
3.2296e-05
3.16997e-05
3.10715e-05
3.04113e-05
2.30824e-05
4.07782e-05
4.08138e-05
4.08456e-05
4.08731e-05
4.08954e-05
4.0912e-05
4.09221e-05
4.09251e-05
4.09204e-05
4.09077e-05
4.08867e-05
4.08574e-05
4.08199e-05
4.07746e-05
4.0722e-05
4.06628e-05
4.05978e-05
4.05277e-05
4.04533e-05
4.03484e-05
4.00011e-05
3.98107e-05
3.96455e-05
3.9475e-05
3.92985e-05
3.91153e-05
3.89245e-05
3.87252e-05
3.85164e-05
3.8297e-05
3.80659e-05
3.78218e-05
3.75636e-05
3.729e-05
3.69995e-05
3.66909e-05
3.63627e-05
3.60134e-05
3.56417e-05
3.52461e-05
3.48253e-05
3.4378e-05
3.39028e-05
3.33987e-05
3.28646e-05
3.22998e-05
3.17035e-05
3.10753e-05
3.0415e-05
2.30861e-05
4.07774e-05
4.08126e-05
4.08441e-05
4.08713e-05
4.08933e-05
4.09096e-05
4.09195e-05
4.09223e-05
4.09175e-05
4.09048e-05
4.08839e-05
4.08547e-05
4.08176e-05
4.07727e-05
4.07206e-05
4.06619e-05
4.05974e-05
4.05278e-05
4.04539e-05
4.03496e-05
4.00028e-05
3.98127e-05
3.96478e-05
3.94775e-05
3.93013e-05
3.91183e-05
3.89277e-05
3.87285e-05
3.85199e-05
3.83006e-05
3.80696e-05
3.78257e-05
3.75676e-05
3.7294e-05
3.70037e-05
3.66951e-05
3.63669e-05
3.60177e-05
3.56461e-05
3.52505e-05
3.48298e-05
3.43824e-05
3.39073e-05
3.34032e-05
3.28691e-05
3.23043e-05
3.1708e-05
3.10797e-05
3.04194e-05
2.30905e-05
4.07764e-05
4.08113e-05
4.08425e-05
4.08693e-05
4.08911e-05
4.09071e-05
4.09168e-05
4.09194e-05
4.09146e-05
4.09019e-05
4.08811e-05
4.08523e-05
4.08154e-05
4.0771e-05
4.07194e-05
4.06613e-05
4.05973e-05
4.05283e-05
4.0455e-05
4.03512e-05
4.00049e-05
3.98151e-05
3.96506e-05
3.94806e-05
3.93046e-05
3.91218e-05
3.89314e-05
3.87325e-05
3.85239e-05
3.83048e-05
3.8074e-05
3.78302e-05
3.75722e-05
3.72987e-05
3.70084e-05
3.66999e-05
3.63718e-05
3.60227e-05
3.56511e-05
3.52556e-05
3.48349e-05
3.43876e-05
3.39125e-05
3.34084e-05
3.28743e-05
3.23095e-05
3.17131e-05
3.10849e-05
3.04245e-05
2.30955e-05
4.07752e-05
4.08099e-05
4.08408e-05
4.08673e-05
4.08888e-05
4.09046e-05
4.0914e-05
4.09166e-05
4.09117e-05
4.08991e-05
4.08785e-05
4.08499e-05
4.08135e-05
4.07695e-05
4.07184e-05
4.06609e-05
4.05976e-05
4.05291e-05
4.04564e-05
4.03532e-05
4.00074e-05
3.98181e-05
3.96539e-05
3.94842e-05
3.93085e-05
3.9126e-05
3.89358e-05
3.8737e-05
3.85286e-05
3.83097e-05
3.80789e-05
3.78353e-05
3.75774e-05
3.7304e-05
3.70139e-05
3.67054e-05
3.63774e-05
3.60283e-05
3.56568e-05
3.52614e-05
3.48407e-05
3.43934e-05
3.39184e-05
3.34143e-05
3.28803e-05
3.23154e-05
3.1719e-05
3.10907e-05
3.04304e-05
2.31013e-05
4.07738e-05
4.08082e-05
4.08389e-05
4.08651e-05
4.08864e-05
4.0902e-05
4.09113e-05
4.09137e-05
4.09089e-05
4.08964e-05
4.0876e-05
4.08478e-05
4.08117e-05
4.07682e-05
4.07177e-05
4.06608e-05
4.05981e-05
4.05303e-05
4.04582e-05
4.03555e-05
4.00104e-05
3.98215e-05
3.96577e-05
3.94884e-05
3.93129e-05
3.91306e-05
3.89407e-05
3.87421e-05
3.85339e-05
3.83151e-05
3.80845e-05
3.7841e-05
3.75833e-05
3.731e-05
3.70199e-05
3.67116e-05
3.63837e-05
3.60347e-05
3.56632e-05
3.52679e-05
3.48473e-05
3.44e-05
3.3925e-05
3.3421e-05
3.28869e-05
3.23221e-05
3.17257e-05
3.10974e-05
3.0437e-05
2.31079e-05
4.07724e-05
4.08065e-05
4.08369e-05
4.08629e-05
4.08839e-05
4.08993e-05
4.09085e-05
4.09109e-05
4.09062e-05
4.08938e-05
4.08737e-05
4.08458e-05
4.08102e-05
4.07672e-05
4.07173e-05
4.0661e-05
4.0599e-05
4.05319e-05
4.04603e-05
4.03582e-05
4.00139e-05
3.98254e-05
3.9662e-05
3.9493e-05
3.93179e-05
3.91359e-05
3.89461e-05
3.87478e-05
3.85398e-05
3.83212e-05
3.80908e-05
3.78474e-05
3.75898e-05
3.73167e-05
3.70267e-05
3.67185e-05
3.63907e-05
3.60418e-05
3.56704e-05
3.52751e-05
3.48546e-05
3.44074e-05
3.39324e-05
3.34284e-05
3.28944e-05
3.23296e-05
3.17332e-05
3.11049e-05
3.04445e-05
2.31153e-05
4.07708e-05
4.08047e-05
4.08348e-05
4.08606e-05
4.08814e-05
4.08967e-05
4.09058e-05
4.09082e-05
4.09035e-05
4.08914e-05
4.08715e-05
4.0844e-05
4.08089e-05
4.07665e-05
4.07172e-05
4.06616e-05
4.06002e-05
4.05337e-05
4.04629e-05
4.03614e-05
4.00178e-05
3.98298e-05
3.96668e-05
3.94982e-05
3.93234e-05
3.91417e-05
3.89522e-05
3.87541e-05
3.85463e-05
3.83279e-05
3.80977e-05
3.78545e-05
3.7597e-05
3.7324e-05
3.70342e-05
3.67261e-05
3.63984e-05
3.60496e-05
3.56783e-05
3.52831e-05
3.48627e-05
3.44156e-05
3.39406e-05
3.34367e-05
3.29028e-05
3.23379e-05
3.17416e-05
3.11132e-05
3.04528e-05
2.31235e-05
4.0769e-05
4.08027e-05
4.08327e-05
4.08583e-05
4.08789e-05
4.08941e-05
4.09031e-05
4.09056e-05
4.0901e-05
4.08891e-05
4.08696e-05
4.08425e-05
4.08079e-05
4.07661e-05
4.07174e-05
4.06625e-05
4.06018e-05
4.0536e-05
4.04658e-05
4.03649e-05
4.00221e-05
3.98346e-05
3.96721e-05
3.95039e-05
3.93295e-05
3.9148e-05
3.89589e-05
3.8761e-05
3.85535e-05
3.83353e-05
3.81052e-05
3.78622e-05
3.76049e-05
3.73321e-05
3.70424e-05
3.67345e-05
3.64069e-05
3.60582e-05
3.5687e-05
3.5292e-05
3.48716e-05
3.44246e-05
3.39497e-05
3.34458e-05
3.29119e-05
3.23472e-05
3.17508e-05
3.11225e-05
3.04619e-05
2.31327e-05
4.07672e-05
4.08007e-05
4.08304e-05
4.08559e-05
4.08764e-05
4.08915e-05
4.09006e-05
4.09031e-05
4.08986e-05
4.08869e-05
4.08678e-05
4.08412e-05
4.08071e-05
4.07659e-05
4.07179e-05
4.06637e-05
4.06037e-05
4.05386e-05
4.04691e-05
4.03688e-05
4.0027e-05
3.984e-05
3.9678e-05
3.95102e-05
3.93361e-05
3.9155e-05
3.89661e-05
3.87685e-05
3.85613e-05
3.83433e-05
3.81135e-05
3.78706e-05
3.76135e-05
3.73409e-05
3.70514e-05
3.67436e-05
3.64161e-05
3.60676e-05
3.56966e-05
3.53016e-05
3.48813e-05
3.44344e-05
3.39597e-05
3.34559e-05
3.2922e-05
3.23573e-05
3.1761e-05
3.11326e-05
3.0472e-05
2.31427e-05
4.07653e-05
4.07986e-05
4.08282e-05
4.08535e-05
4.0874e-05
4.0889e-05
4.08981e-05
4.09007e-05
4.08964e-05
4.0885e-05
4.08663e-05
4.08401e-05
4.08066e-05
4.07661e-05
4.07188e-05
4.06652e-05
4.0606e-05
4.05417e-05
4.04728e-05
4.03732e-05
4.00323e-05
3.98459e-05
3.96843e-05
3.9517e-05
3.93433e-05
3.91626e-05
3.8974e-05
3.87767e-05
3.85697e-05
3.8352e-05
3.81224e-05
3.78798e-05
3.76229e-05
3.73504e-05
3.70611e-05
3.67535e-05
3.64262e-05
3.60778e-05
3.57069e-05
3.53121e-05
3.4892e-05
3.44452e-05
3.39705e-05
3.34668e-05
3.2933e-05
3.23684e-05
3.17721e-05
3.11437e-05
3.04831e-05
2.31537e-05
4.07633e-05
4.07965e-05
4.08259e-05
4.08511e-05
4.08715e-05
4.08865e-05
4.08957e-05
4.08984e-05
4.08944e-05
4.08833e-05
4.0865e-05
4.08393e-05
4.08064e-05
4.07665e-05
4.072e-05
4.06672e-05
4.06087e-05
4.05451e-05
4.0477e-05
4.0378e-05
4.00381e-05
3.98523e-05
3.96912e-05
3.95243e-05
3.93511e-05
3.91707e-05
3.89825e-05
3.87855e-05
3.85788e-05
3.83614e-05
3.8132e-05
3.78896e-05
3.7633e-05
3.73608e-05
3.70716e-05
3.67642e-05
3.64371e-05
3.60889e-05
3.57182e-05
3.53235e-05
3.49035e-05
3.44569e-05
3.39823e-05
3.34787e-05
3.2945e-05
3.23804e-05
3.17841e-05
3.11557e-05
3.04951e-05
2.31657e-05
4.07612e-05
4.07943e-05
4.08236e-05
4.08488e-05
4.08691e-05
4.08842e-05
4.08934e-05
4.08963e-05
4.08925e-05
4.08818e-05
4.08639e-05
4.08388e-05
4.08065e-05
4.07673e-05
4.07215e-05
4.06695e-05
4.06118e-05
4.05489e-05
4.04816e-05
4.03832e-05
4.00444e-05
3.98592e-05
3.96987e-05
3.95323e-05
3.93595e-05
3.91795e-05
3.89917e-05
3.8795e-05
3.85886e-05
3.83715e-05
3.81424e-05
3.79003e-05
3.76439e-05
3.73719e-05
3.7083e-05
3.67758e-05
3.64489e-05
3.61009e-05
3.57303e-05
3.53358e-05
3.4916e-05
3.44695e-05
3.39951e-05
3.34916e-05
3.2958e-05
3.23934e-05
3.17972e-05
3.11688e-05
3.05081e-05
2.31787e-05
4.07591e-05
4.07921e-05
4.08213e-05
4.08464e-05
4.08668e-05
4.08819e-05
4.08912e-05
4.08944e-05
4.08909e-05
4.08806e-05
4.08631e-05
4.08386e-05
4.0807e-05
4.07685e-05
4.07234e-05
4.06722e-05
4.06153e-05
4.05532e-05
4.04866e-05
4.0389e-05
4.00513e-05
3.98666e-05
3.97067e-05
3.95408e-05
3.93685e-05
3.9189e-05
3.90015e-05
3.88052e-05
3.85992e-05
3.83823e-05
3.81535e-05
3.79117e-05
3.76556e-05
3.73838e-05
3.70952e-05
3.67882e-05
3.64616e-05
3.61138e-05
3.57434e-05
3.53491e-05
3.49295e-05
3.44831e-05
3.40089e-05
3.35055e-05
3.2972e-05
3.24075e-05
3.18113e-05
3.11829e-05
3.05222e-05
2.31927e-05
4.07569e-05
4.07898e-05
4.08191e-05
4.08441e-05
4.08645e-05
4.08797e-05
4.08892e-05
4.08926e-05
4.08895e-05
4.08795e-05
4.08626e-05
4.08387e-05
4.08078e-05
4.077e-05
4.07257e-05
4.06753e-05
4.06192e-05
4.0558e-05
4.04921e-05
4.03952e-05
4.00587e-05
3.98747e-05
3.97153e-05
3.955e-05
3.93781e-05
3.91991e-05
3.9012e-05
3.88161e-05
3.86104e-05
3.83939e-05
3.81655e-05
3.79239e-05
3.76681e-05
3.73966e-05
3.71083e-05
3.68016e-05
3.64751e-05
3.61276e-05
3.57575e-05
3.53634e-05
3.49439e-05
3.44978e-05
3.40237e-05
3.35204e-05
3.29871e-05
3.24226e-05
3.18265e-05
3.11981e-05
3.05374e-05
2.32079e-05
4.07547e-05
4.07876e-05
4.08168e-05
4.08419e-05
4.08623e-05
4.08777e-05
4.08874e-05
4.0891e-05
4.08883e-05
4.08788e-05
4.08624e-05
4.08391e-05
4.08089e-05
4.07719e-05
4.07285e-05
4.06789e-05
4.06236e-05
4.05632e-05
4.04981e-05
4.04019e-05
4.00667e-05
3.98833e-05
3.97246e-05
3.95598e-05
3.93885e-05
3.92099e-05
3.90233e-05
3.88278e-05
3.86225e-05
3.84063e-05
3.81782e-05
3.7937e-05
3.76815e-05
3.74103e-05
3.71222e-05
3.68158e-05
3.64897e-05
3.61424e-05
3.57725e-05
3.53787e-05
3.49594e-05
3.45135e-05
3.40396e-05
3.35365e-05
3.30032e-05
3.24389e-05
3.18428e-05
3.12145e-05
3.05537e-05
2.32241e-05
4.07524e-05
4.07853e-05
4.08145e-05
4.08397e-05
4.08602e-05
4.08757e-05
4.08857e-05
4.08897e-05
4.08873e-05
4.08783e-05
4.08626e-05
4.08399e-05
4.08104e-05
4.07742e-05
4.07316e-05
4.06829e-05
4.06285e-05
4.05689e-05
4.05046e-05
4.04092e-05
4.00752e-05
3.98925e-05
3.97345e-05
3.95703e-05
3.93995e-05
3.92214e-05
3.90352e-05
3.88402e-05
3.86353e-05
3.84195e-05
3.81918e-05
3.7951e-05
3.76958e-05
3.7425e-05
3.71372e-05
3.68311e-05
3.65052e-05
3.61582e-05
3.57886e-05
3.5395e-05
3.4976e-05
3.45303e-05
3.40566e-05
3.35537e-05
3.30206e-05
3.24564e-05
3.18603e-05
3.1232e-05
3.05712e-05
2.32416e-05
4.07501e-05
4.0783e-05
4.08122e-05
4.08375e-05
4.08582e-05
4.08739e-05
4.08841e-05
4.08885e-05
4.08866e-05
4.08781e-05
4.0863e-05
4.0841e-05
4.08123e-05
4.0777e-05
4.07352e-05
4.06874e-05
4.06339e-05
4.05752e-05
4.05117e-05
4.0417e-05
4.00844e-05
3.99024e-05
3.9745e-05
3.95815e-05
3.94112e-05
3.92337e-05
3.9048e-05
3.88534e-05
3.8649e-05
3.84336e-05
3.82063e-05
3.79658e-05
3.7711e-05
3.74406e-05
3.71531e-05
3.68474e-05
3.65218e-05
3.61751e-05
3.58058e-05
3.54125e-05
3.49938e-05
3.45483e-05
3.40748e-05
3.35721e-05
3.30391e-05
3.2475e-05
3.1879e-05
3.12507e-05
3.05898e-05
2.32603e-05
4.07478e-05
4.07807e-05
4.081e-05
4.08354e-05
4.08563e-05
4.08722e-05
4.08828e-05
4.08875e-05
4.08861e-05
4.08782e-05
4.08637e-05
4.08425e-05
4.08146e-05
4.07801e-05
4.07393e-05
4.06924e-05
4.06398e-05
4.05819e-05
4.05193e-05
4.04254e-05
4.00942e-05
3.9913e-05
3.97563e-05
3.95934e-05
3.94237e-05
3.92467e-05
3.90616e-05
3.88675e-05
3.86635e-05
3.84486e-05
3.82217e-05
3.79817e-05
3.77272e-05
3.74571e-05
3.71701e-05
3.68647e-05
3.65395e-05
3.61931e-05
3.58242e-05
3.54311e-05
3.50127e-05
3.45675e-05
3.40942e-05
3.35917e-05
3.30589e-05
3.24949e-05
3.1899e-05
3.12707e-05
3.06098e-05
2.32802e-05
4.07454e-05
4.07783e-05
4.08078e-05
4.08334e-05
4.08545e-05
4.08707e-05
4.08816e-05
4.08868e-05
4.08859e-05
4.08787e-05
4.08649e-05
4.08444e-05
4.08174e-05
4.07838e-05
4.07438e-05
4.06979e-05
4.06462e-05
4.05893e-05
4.05275e-05
4.04344e-05
4.01047e-05
3.99242e-05
3.97683e-05
3.9606e-05
3.9437e-05
3.92606e-05
3.9076e-05
3.88824e-05
3.86789e-05
3.84645e-05
3.82381e-05
3.79985e-05
3.77445e-05
3.74748e-05
3.71881e-05
3.68831e-05
3.65583e-05
3.62123e-05
3.58436e-05
3.5451e-05
3.50328e-05
3.45879e-05
3.41148e-05
3.36125e-05
3.30799e-05
3.2516e-05
3.19202e-05
3.1292e-05
3.0631e-05
2.33014e-05
4.07429e-05
4.0776e-05
4.08056e-05
4.08314e-05
4.08528e-05
4.08693e-05
4.08806e-05
4.08863e-05
4.0886e-05
4.08794e-05
4.08663e-05
4.08467e-05
4.08205e-05
4.07878e-05
4.07489e-05
4.07039e-05
4.06532e-05
4.05972e-05
4.05364e-05
4.0444e-05
4.01159e-05
3.99362e-05
3.9781e-05
3.96195e-05
3.94511e-05
3.92753e-05
3.90913e-05
3.88983e-05
3.86953e-05
3.84814e-05
3.82554e-05
3.80163e-05
3.77627e-05
3.74935e-05
3.72073e-05
3.69027e-05
3.65783e-05
3.62326e-05
3.58644e-05
3.5472e-05
3.50542e-05
3.46095e-05
3.41368e-05
3.36347e-05
3.31023e-05
3.25386e-05
3.19428e-05
3.13146e-05
3.06536e-05
2.3324e-05
4.07404e-05
4.07736e-05
4.08035e-05
4.08295e-05
4.08511e-05
4.08681e-05
4.08799e-05
4.0886e-05
4.08863e-05
4.08804e-05
4.08682e-05
4.08494e-05
4.08241e-05
4.07924e-05
4.07545e-05
4.07105e-05
4.06608e-05
4.06058e-05
4.05459e-05
4.04544e-05
4.01278e-05
3.9949e-05
3.97946e-05
3.96338e-05
3.94661e-05
3.9291e-05
3.91076e-05
3.89151e-05
3.87127e-05
3.84993e-05
3.82739e-05
3.80352e-05
3.77822e-05
3.75134e-05
3.72276e-05
3.69234e-05
3.65995e-05
3.62543e-05
3.58864e-05
3.54944e-05
3.50769e-05
3.46326e-05
3.41601e-05
3.36583e-05
3.31261e-05
3.25625e-05
3.19669e-05
3.13386e-05
3.06776e-05
2.33481e-05
4.07378e-05
4.07713e-05
4.08013e-05
4.08276e-05
4.08496e-05
4.0867e-05
4.08793e-05
4.0886e-05
4.0887e-05
4.08818e-05
4.08704e-05
4.08525e-05
4.08282e-05
4.07975e-05
4.07606e-05
4.07177e-05
4.06691e-05
4.06151e-05
4.05561e-05
4.04654e-05
4.01405e-05
3.99626e-05
3.9809e-05
3.9649e-05
3.9482e-05
3.93075e-05
3.91248e-05
3.8933e-05
3.87311e-05
3.85183e-05
3.82934e-05
3.80553e-05
3.78027e-05
3.75345e-05
3.72492e-05
3.69455e-05
3.6622e-05
3.62772e-05
3.59097e-05
3.55182e-05
3.51011e-05
3.46571e-05
3.41849e-05
3.36833e-05
3.31513e-05
3.25879e-05
3.19924e-05
3.13642e-05
3.07031e-05
2.33736e-05
4.07352e-05
4.07689e-05
4.07992e-05
4.08258e-05
4.08482e-05
4.0866e-05
4.08788e-05
4.08863e-05
4.08879e-05
4.08836e-05
4.0873e-05
4.08561e-05
4.08328e-05
4.08032e-05
4.07673e-05
4.07255e-05
4.0678e-05
4.0625e-05
4.0567e-05
4.04772e-05
4.0154e-05
3.9977e-05
3.98243e-05
3.96651e-05
3.94989e-05
3.93251e-05
3.9143e-05
3.89519e-05
3.87507e-05
3.85384e-05
3.83141e-05
3.80765e-05
3.78245e-05
3.75568e-05
3.7272e-05
3.69689e-05
3.66458e-05
3.63015e-05
3.59345e-05
3.55434e-05
3.51267e-05
3.4683e-05
3.42112e-05
3.37099e-05
3.31782e-05
3.26149e-05
3.20195e-05
3.13914e-05
3.07302e-05
2.34008e-05
4.07325e-05
4.07664e-05
4.0797e-05
4.0824e-05
4.08469e-05
4.08652e-05
4.08786e-05
4.08867e-05
4.08892e-05
4.08857e-05
4.0876e-05
4.08601e-05
4.08379e-05
4.08094e-05
4.07747e-05
4.0734e-05
4.06875e-05
4.06357e-05
4.05787e-05
4.04898e-05
4.01684e-05
3.99923e-05
3.98405e-05
3.96821e-05
3.95167e-05
3.93437e-05
3.91624e-05
3.89719e-05
3.87713e-05
3.85597e-05
3.8336e-05
3.80991e-05
3.78477e-05
3.75805e-05
3.72963e-05
3.69936e-05
3.66711e-05
3.63273e-05
3.59608e-05
3.55701e-05
3.51538e-05
3.47106e-05
3.42391e-05
3.37381e-05
3.32066e-05
3.26436e-05
3.20483e-05
3.14202e-05
3.0759e-05
2.34297e-05
4.07298e-05
4.07639e-05
4.07949e-05
4.08223e-05
4.08457e-05
4.08646e-05
4.08786e-05
4.08874e-05
4.08907e-05
4.08881e-05
4.08795e-05
4.08646e-05
4.08435e-05
4.08161e-05
4.07826e-05
4.07431e-05
4.06978e-05
4.06471e-05
4.05912e-05
4.05033e-05
4.01837e-05
4.00086e-05
3.98577e-05
3.97002e-05
3.95357e-05
3.93634e-05
3.91829e-05
3.89931e-05
3.87932e-05
3.85823e-05
3.83593e-05
3.81229e-05
3.78721e-05
3.76056e-05
3.7322e-05
3.70199e-05
3.66979e-05
3.63547e-05
3.59887e-05
3.55985e-05
3.51826e-05
3.47398e-05
3.42687e-05
3.37681e-05
3.32368e-05
3.2674e-05
3.20789e-05
3.14508e-05
3.07896e-05
2.34604e-05
4.07269e-05
4.07614e-05
4.07928e-05
4.08206e-05
4.08445e-05
4.0864e-05
4.08788e-05
4.08884e-05
4.08925e-05
4.08909e-05
4.08833e-05
4.08696e-05
4.08496e-05
4.08235e-05
4.07912e-05
4.07529e-05
4.07089e-05
4.06593e-05
4.06045e-05
4.05176e-05
4.02e-05
4.00259e-05
3.9876e-05
3.97194e-05
3.95557e-05
3.93843e-05
3.92045e-05
3.90155e-05
3.88164e-05
3.86062e-05
3.83838e-05
3.81482e-05
3.7898e-05
3.76321e-05
3.73491e-05
3.70477e-05
3.67263e-05
3.63836e-05
3.60182e-05
3.56285e-05
3.52132e-05
3.47708e-05
3.43001e-05
3.37999e-05
3.32689e-05
3.27063e-05
3.21113e-05
3.14833e-05
3.08221e-05
2.3493e-05
4.0724e-05
4.07588e-05
4.07906e-05
4.0819e-05
4.08434e-05
4.08636e-05
4.08792e-05
4.08896e-05
4.08947e-05
4.08941e-05
4.08876e-05
4.0875e-05
4.08563e-05
4.08315e-05
4.08005e-05
4.07635e-05
4.07207e-05
4.06724e-05
4.06187e-05
4.05328e-05
4.02173e-05
4.00442e-05
3.98953e-05
3.97397e-05
3.9577e-05
3.94064e-05
3.92275e-05
3.90393e-05
3.88409e-05
3.86315e-05
3.84099e-05
3.81749e-05
3.79255e-05
3.76603e-05
3.73779e-05
3.70771e-05
3.67564e-05
3.64144e-05
3.60495e-05
3.56604e-05
3.52456e-05
3.48037e-05
3.43335e-05
3.38336e-05
3.33029e-05
3.27406e-05
3.21458e-05
3.15179e-05
3.08565e-05
2.35276e-05
4.07209e-05
4.07561e-05
4.07884e-05
4.08173e-05
4.08424e-05
4.08634e-05
4.08797e-05
4.08911e-05
4.08972e-05
4.08977e-05
4.08923e-05
4.0881e-05
4.08636e-05
4.08401e-05
4.08105e-05
4.07748e-05
4.07334e-05
4.06863e-05
4.06338e-05
4.05491e-05
4.02356e-05
4.00636e-05
3.99158e-05
3.97612e-05
3.95994e-05
3.94298e-05
3.92518e-05
3.90644e-05
3.88669e-05
3.86582e-05
3.84374e-05
3.82032e-05
3.79545e-05
3.769e-05
3.74084e-05
3.71083e-05
3.67883e-05
3.64469e-05
3.60827e-05
3.56942e-05
3.52799e-05
3.48386e-05
3.43688e-05
3.38693e-05
3.33391e-05
3.2777e-05
3.21824e-05
3.15545e-05
3.08931e-05
2.35644e-05
4.07177e-05
4.07534e-05
4.07862e-05
4.08157e-05
4.08415e-05
4.08632e-05
4.08804e-05
4.08928e-05
4.08999e-05
4.09016e-05
4.08975e-05
4.08875e-05
4.08715e-05
4.08494e-05
4.08212e-05
4.0787e-05
4.07469e-05
4.07012e-05
4.065e-05
4.05663e-05
4.0255e-05
4.00842e-05
3.99375e-05
3.9784e-05
3.96232e-05
3.94546e-05
3.92774e-05
3.9091e-05
3.88943e-05
3.86865e-05
3.84665e-05
3.82332e-05
3.79853e-05
3.77216e-05
3.74407e-05
3.71414e-05
3.68221e-05
3.64814e-05
3.61178e-05
3.573e-05
3.53164e-05
3.48756e-05
3.44063e-05
3.39073e-05
3.33774e-05
3.28157e-05
3.22212e-05
3.15934e-05
3.0932e-05
2.36035e-05
4.07143e-05
4.07505e-05
4.07839e-05
4.0814e-05
4.08406e-05
4.08631e-05
4.08813e-05
4.08947e-05
4.0903e-05
4.09059e-05
4.09031e-05
4.08945e-05
4.088e-05
4.08593e-05
4.08326e-05
4.07999e-05
4.07613e-05
4.0717e-05
4.06671e-05
4.05846e-05
4.02756e-05
4.0106e-05
3.99605e-05
3.98081e-05
3.96484e-05
3.94808e-05
3.93046e-05
3.91191e-05
3.89234e-05
3.87165e-05
3.84974e-05
3.82649e-05
3.80178e-05
3.7755e-05
3.74749e-05
3.71764e-05
3.68579e-05
3.65179e-05
3.61551e-05
3.5768e-05
3.5355e-05
3.49148e-05
3.44461e-05
3.39476e-05
3.34181e-05
3.28567e-05
3.22625e-05
3.16348e-05
3.09734e-05
2.36451e-05
4.07108e-05
4.07475e-05
4.07815e-05
4.08123e-05
4.08397e-05
4.08631e-05
4.08823e-05
4.08968e-05
4.09064e-05
4.09106e-05
4.09092e-05
4.09021e-05
4.08891e-05
4.087e-05
4.08449e-05
4.08138e-05
4.07767e-05
4.07338e-05
4.06853e-05
4.06041e-05
4.02974e-05
4.01291e-05
3.99849e-05
3.98337e-05
3.96751e-05
3.95085e-05
3.93334e-05
3.91489e-05
3.89542e-05
3.87482e-05
3.853e-05
3.82984e-05
3.80523e-05
3.77903e-05
3.75111e-05
3.72134e-05
3.68958e-05
3.65566e-05
3.61946e-05
3.58082e-05
3.5396e-05
3.49565e-05
3.44884e-05
3.39904e-05
3.34614e-05
3.29003e-05
3.23064e-05
3.16788e-05
3.10173e-05
2.36894e-05
4.07071e-05
4.07443e-05
4.0779e-05
4.08106e-05
4.08388e-05
4.08632e-05
4.08835e-05
4.08992e-05
4.091e-05
4.09156e-05
4.09158e-05
4.09102e-05
4.08988e-05
4.08814e-05
4.0858e-05
4.08285e-05
4.07931e-05
4.07518e-05
4.07047e-05
4.06248e-05
4.03206e-05
4.01536e-05
4.00107e-05
3.98607e-05
3.97033e-05
3.95379e-05
3.93638e-05
3.91804e-05
3.89867e-05
3.87817e-05
3.85645e-05
3.83339e-05
3.80888e-05
3.78277e-05
3.75495e-05
3.72527e-05
3.69359e-05
3.65977e-05
3.62365e-05
3.58509e-05
3.54395e-05
3.50007e-05
3.45333e-05
3.40359e-05
3.35074e-05
3.29467e-05
3.23531e-05
3.17257e-05
3.10641e-05
2.37366e-05
4.07031e-05
4.0741e-05
4.07763e-05
4.08088e-05
4.08379e-05
4.08634e-05
4.08848e-05
4.09018e-05
4.0914e-05
4.09211e-05
4.09228e-05
4.09189e-05
4.09092e-05
4.08936e-05
4.08719e-05
4.08442e-05
4.08105e-05
4.07708e-05
4.07253e-05
4.06468e-05
4.03451e-05
4.01796e-05
4.0038e-05
3.98893e-05
3.97331e-05
3.95689e-05
3.93961e-05
3.92138e-05
3.90211e-05
3.88173e-05
3.86011e-05
3.83715e-05
3.81274e-05
3.78673e-05
3.75901e-05
3.72943e-05
3.69785e-05
3.66412e-05
3.62809e-05
3.58962e-05
3.54856e-05
3.50476e-05
3.45809e-05
3.40842e-05
3.35563e-05
3.29961e-05
3.24029e-05
3.17758e-05
3.11143e-05
2.37871e-05
4.06989e-05
4.07374e-05
4.07735e-05
4.08068e-05
4.0837e-05
4.08635e-05
4.08862e-05
4.09045e-05
4.09182e-05
4.09269e-05
4.09303e-05
4.09282e-05
4.09203e-05
4.09065e-05
4.08867e-05
4.08609e-05
4.0829e-05
4.0791e-05
4.07472e-05
4.06701e-05
4.03711e-05
4.0207e-05
4.00669e-05
3.99196e-05
3.97647e-05
3.96018e-05
3.94302e-05
3.92491e-05
3.90576e-05
3.88549e-05
3.86398e-05
3.84114e-05
3.81683e-05
3.79093e-05
3.76331e-05
3.73384e-05
3.70236e-05
3.66872e-05
3.63279e-05
3.59442e-05
3.55344e-05
3.50973e-05
3.46314e-05
3.41355e-05
3.36083e-05
3.30489e-05
3.24563e-05
3.18297e-05
3.11688e-05
2.3843e-05
4.06945e-05
4.07336e-05
4.07705e-05
4.08047e-05
4.08359e-05
4.08637e-05
4.08877e-05
4.09074e-05
4.09227e-05
4.09331e-05
4.09383e-05
4.0938e-05
4.09321e-05
4.09203e-05
4.09025e-05
4.08786e-05
4.08486e-05
4.08125e-05
4.07703e-05
4.06948e-05
4.03986e-05
4.02361e-05
4.00975e-05
3.99516e-05
3.97982e-05
3.96366e-05
3.94663e-05
3.92864e-05
3.90962e-05
3.88947e-05
3.86808e-05
3.84535e-05
3.82116e-05
3.79538e-05
3.76787e-05
3.7385e-05
3.70713e-05
3.6736e-05
3.63778e-05
3.59949e-05
3.55861e-05
3.51499e-05
3.46848e-05
3.41882e-05
3.36564e-05
3.30901e-05
3.24913e-05
3.18592e-05
3.11932e-05
3.47709e-05
4.06897e-05
4.07296e-05
4.07673e-05
4.08025e-05
4.08348e-05
4.08638e-05
4.08892e-05
4.09105e-05
4.09274e-05
4.09396e-05
4.09467e-05
4.09484e-05
4.09445e-05
4.09348e-05
4.09191e-05
4.08974e-05
4.08694e-05
4.08353e-05
4.0795e-05
4.07211e-05
4.04278e-05
4.02669e-05
4.01299e-05
3.99856e-05
3.98337e-05
3.96735e-05
3.95045e-05
3.9326e-05
3.91371e-05
3.89369e-05
3.87243e-05
3.84982e-05
3.82575e-05
3.80009e-05
3.7727e-05
3.74345e-05
3.71183e-05
3.67715e-05
3.6397e-05
3.59989e-05
3.55759e-05
3.51266e-05
3.46495e-05
3.41434e-05
3.36071e-05
3.30395e-05
3.24397e-05
3.18069e-05
3.11407e-05
3.47023e-05
4.06845e-05
4.07252e-05
4.07638e-05
4.08e-05
4.08335e-05
4.08639e-05
4.08907e-05
4.09137e-05
4.09324e-05
4.09465e-05
4.09556e-05
4.09594e-05
4.09577e-05
4.09503e-05
4.09368e-05
4.09173e-05
4.08915e-05
4.08594e-05
4.08211e-05
4.07489e-05
4.04587e-05
4.02996e-05
4.01642e-05
4.00216e-05
3.98712e-05
3.97126e-05
3.95451e-05
3.9368e-05
3.91804e-05
3.89816e-05
3.87703e-05
3.85456e-05
3.83062e-05
3.80385e-05
3.77408e-05
3.7425e-05
3.70902e-05
3.67349e-05
3.63577e-05
3.59571e-05
3.55317e-05
3.508e-05
3.46008e-05
3.40928e-05
3.35547e-05
3.29856e-05
3.23846e-05
3.17512e-05
3.1085e-05
3.46302e-05
4.06789e-05
4.07204e-05
4.076e-05
4.07973e-05
4.08321e-05
4.08639e-05
4.08923e-05
4.0917e-05
4.09376e-05
4.09536e-05
4.09649e-05
4.0971e-05
4.09716e-05
4.09666e-05
4.09555e-05
4.09384e-05
4.09149e-05
4.08851e-05
4.08488e-05
4.07785e-05
4.04914e-05
4.03341e-05
4.02006e-05
4.00597e-05
3.9911e-05
3.97539e-05
3.9588e-05
3.94124e-05
3.92264e-05
3.90289e-05
3.88127e-05
3.8567e-05
3.82972e-05
3.80124e-05
3.77112e-05
3.73924e-05
3.70546e-05
3.66964e-05
3.63163e-05
3.5913e-05
3.5485e-05
3.50309e-05
3.45494e-05
3.40392e-05
3.34991e-05
3.29283e-05
3.23259e-05
3.16915e-05
3.1025e-05
3.4552e-05
4.06729e-05
4.07152e-05
4.07558e-05
4.07943e-05
4.08304e-05
4.08637e-05
4.08938e-05
4.09203e-05
4.09429e-05
4.09611e-05
4.09747e-05
4.09832e-05
4.09863e-05
4.09838e-05
4.09753e-05
4.09607e-05
4.09397e-05
4.09122e-05
4.08781e-05
4.08098e-05
4.05261e-05
4.03708e-05
4.02392e-05
4.01001e-05
3.99531e-05
3.97978e-05
3.96335e-05
3.94595e-05
3.92708e-05
3.90517e-05
3.88053e-05
3.85461e-05
3.8273e-05
3.79848e-05
3.76804e-05
3.73583e-05
3.70173e-05
3.6656e-05
3.62729e-05
3.58667e-05
3.54359e-05
3.49791e-05
3.44951e-05
3.39826e-05
3.34404e-05
3.28677e-05
3.22636e-05
3.1628e-05
3.09606e-05
3.44676e-05
4.06664e-05
4.07096e-05
4.07512e-05
4.0791e-05
4.08284e-05
4.08633e-05
4.08952e-05
4.09236e-05
4.09484e-05
4.09689e-05
4.09849e-05
4.0996e-05
4.10017e-05
4.10019e-05
4.09962e-05
4.09842e-05
4.09659e-05
4.0941e-05
4.09093e-05
4.08431e-05
4.05628e-05
4.04096e-05
4.02801e-05
4.01429e-05
3.99978e-05
3.98443e-05
3.96818e-05
3.94948e-05
3.92752e-05
3.90372e-05
3.87873e-05
3.85245e-05
3.82478e-05
3.79561e-05
3.76481e-05
3.73226e-05
3.69782e-05
3.66136e-05
3.62274e-05
3.58181e-05
3.53843e-05
3.49247e-05
3.44381e-05
3.3923e-05
3.33786e-05
3.28037e-05
3.21979e-05
3.15606e-05
3.0892e-05
3.43772e-05
4.06593e-05
4.07035e-05
4.07462e-05
4.07872e-05
4.08261e-05
4.08627e-05
4.08964e-05
4.0927e-05
4.09539e-05
4.09769e-05
4.09955e-05
4.10093e-05
4.10179e-05
4.1021e-05
4.10182e-05
4.10091e-05
4.09936e-05
4.09714e-05
4.09423e-05