/*--------------------------------*- C++ -*----------------------------------*\
  =========                 |
  \\      /  F ield         | OpenFOAM: The Open Source CFD Toolbox
   \\    /   O peration     | Website:  https://openfoam.org
    \\  /    A nd           | Version:  9
     \\/     M anipulation  |
\*---------------------------------------------------------------------------*/
FoamFile
{
    format      ascii;
    class       volVectorField;
    location    "0.03";
    object      U;
}
// * * * * * * * * * * * * * * * * * * * * * * * * * * * * * * * * * * * * * //

dimensions      [0 1 -1 0 0 0 0];

internalField   nonuniform List<vector> 
5000
(
(0.000241975 0 -0.179243)
(0.000228601 0 -0.183852)
(0.000209531 0 -0.188051)
(0.000184041 0 -0.191763)
(0.000151575 0 -0.194894)
(0.000111975 0 -0.197345)
(6.56116e-05 0 -0.199013)
(1.34503e-05 0 -0.199802)
(-4.2997e-05 0 -0.199625)
(-0.0001017 0 -0.198414)
(-0.000160204 0 -0.19612)
(-0.000215858 0 -0.192724)
(-0.000266093 0 -0.188236)
(-0.000308705 0 -0.182697)
(-0.000342095 0 -0.176174)
(-0.00036541 0 -0.168754)
(-0.000378513 0 -0.160538)
(-0.000381815 0 -0.151631)
(-0.000376118 0 -0.142137)
(-0.000362655 0 -0.132165)
(-0.000343967 0 -0.122774)
(-0.000322625 0 -0.114377)
(-0.000299874 0 -0.10631)
(-0.000276781 0 -0.0985982)
(-0.000254024 0 -0.0912521)
(-0.000231985 0 -0.0842722)
(-0.000210883 0 -0.0776557)
(-0.000190853 0 -0.071397)
(-0.000171978 0 -0.0654885)
(-0.000154303 0 -0.059921)
(-0.000137847 0 -0.0546838)
(-0.000122602 0 -0.0497656)
(-0.000108546 0 -0.0451542)
(-9.56435e-05 0 -0.0408371)
(-8.38516e-05 0 -0.0368018)
(-7.3121e-05 0 -0.0330354)
(-6.33988e-05 0 -0.0295252)
(-5.46294e-05 0 -0.0262583)
(-4.67553e-05 0 -0.0232221)
(-3.97168e-05 0 -0.0204041)
(-3.34516e-05 0 -0.0177922)
(-2.78987e-05 0 -0.015375)
(-2.30082e-05 0 -0.013141)
(-1.87559e-05 0 -0.0110785)
(-1.51506e-05 0 -0.00917416)
(-1.22417e-05 0 -0.00741273)
(-1.00604e-05 0 -0.00577711)
(-9.06655e-06 0 -0.00424576)
(-9.35136e-06 0 -0.00279071)
(-5.92574e-06 0 -0.0012839)
(0.00064959 0 -0.17943)
(0.000610713 0 -0.184042)
(0.000556453 0 -0.188244)
(0.000485134 0 -0.191957)
(0.000395639 0 -0.195088)
(0.000287834 0 -0.197537)
(0.000162898 0 -0.199203)
(2.34556e-05 0 -0.199989)
(-0.000126499 0 -0.199809)
(-0.000281714 0 -0.198594)
(-0.000435945 0 -0.196296)
(-0.000582505 0 -0.192896)
(-0.000714914 0 -0.188405)
(-0.000827575 0 -0.182862)
(-0.00091634 0 -0.176334)
(-0.00097885 0 -0.16891)
(-0.00101451 0 -0.160688)
(-0.00102412 0 -0.151773)
(-0.00100953 0 -0.142271)
(-0.000973622 0 -0.13229)
(-0.000923765 0 -0.122891)
(-0.000867304 0 -0.114487)
(-0.000806644 0 -0.106411)
(-0.000744498 0 -0.0986921)
(-0.000682781 0 -0.0913384)
(-0.000622681 0 -0.0843515)
(-0.000564926 0 -0.0777284)
(-0.000509982 0 -0.0714635)
(-0.000458142 0 -0.0655493)
(-0.000409577 0 -0.0599765)
(-0.00036436 0 -0.0547345)
(-0.000322495 0 -0.0498117)
(-0.000283935 0 -0.0451961)
(-0.000248591 0 -0.0408752)
(-0.000216349 0 -0.0368363)
(-0.000187076 0 -0.0330666)
(-0.000160627 0 -0.0295533)
(-0.000136847 0 -0.0262836)
(-0.000115577 0 -0.0232447)
(-9.66522e-05 0 -0.0204243)
(-7.99006e-05 0 -0.0178102)
(-6.51568e-05 0 -0.0153909)
(-5.22847e-05 0 -0.0131549)
(-4.12116e-05 0 -0.0110903)
(-3.19294e-05 0 -0.00918349)
(-2.44787e-05 0 -0.0074191)
(-1.88942e-05 0 -0.00577984)
(-1.58978e-05 0 -0.00424395)
(-1.55524e-05 0 -0.00279017)
(-6.13932e-06 0 -0.00128575)
(0.000990336 0 -0.179356)
(0.000927393 0 -0.183953)
(0.000840985 0 -0.188139)
(0.000728755 0 -0.191835)
(0.000589427 0 -0.194949)
(0.000423093 0 -0.197382)
(0.000231737 0 -0.199034)
(1.94243e-05 0 -0.199809)
(-0.000207827 0 -0.199622)
(-0.00044223 0 -0.198406)
(-0.000674629 0 -0.196114)
(-0.000895255 0 -0.192726)
(-0.00109465 0 -0.188251)
(-0.00126461 0 -0.18273)
(-0.00139895 0 -0.176228)
(-0.00149399 0 -0.16883)
(-0.00154858 0 -0.160634)
(-0.00156365 0 -0.151745)
(-0.00154165 0 -0.142267)
(-0.00148637 0 -0.132307)
(-0.00140992 0 -0.122926)
(-0.00132415 0 -0.114534)
(-0.00123146 0 -0.106468)
(-0.00113591 0 -0.0987547)
(-0.00104056 0 -0.0914052)
(-0.000947347 0 -0.0844211)
(-0.000857535 0 -0.0777998)
(-0.000771937 0 -0.0715358)
(-0.000691077 0 -0.0656218)
(-0.000615265 0 -0.0600485)
(-0.000544652 0 -0.0548054)
(-0.000479268 0 -0.0498812)
(-0.000419053 0 -0.0452638)
(-0.000363885 0 -0.0409407)
(-0.000313593 0 -0.0368994)
(-0.000267973 0 -0.033127)
(-0.000226801 0 -0.0296108)
(-0.000189837 0 -0.026338)
(-0.000156831 0 -0.023296)
(-0.000127524 0 -0.0204723)
(-0.000101653 0 -0.0178549)
(-7.89609e-05 0 -0.0154322)
(-5.92284e-05 0 -0.0131928)
(-4.23077e-05 0 -0.0111243)
(-2.81121e-05 0 -0.00921327)
(-1.65387e-05 0 -0.00744405)
(-7.43062e-06 0 -0.00579952)
(-9.04596e-07 0 -0.00425962)
(3.15614e-06 0 -0.00280608)
(1.30752e-05 0 -0.00130633)
(0.00127749 0 -0.179233)
(0.00119224 0 -0.183809)
(0.00107669 0 -0.187972)
(0.000928065 0 -0.191643)
(0.000745128 0 -0.194733)
(0.000528314 0 -0.197143)
(0.000280388 0 -0.198775)
(6.65133e-06 0 -0.199534)
(-0.00028521 0 -0.199339)
(-0.000585383 0 -0.198122)
(-0.00088242 0 -0.195837)
(-0.00116416 0 -0.192465)
(-0.00141881 0 -0.188015)
(-0.00163609 0 -0.182524)
(-0.00180817 0 -0.176057)
(-0.00193022 0 -0.168697)
(-0.00200051 0 -0.160539)
(-0.00201991 0 -0.151687)
(-0.00199128 0 -0.142244)
(-0.00191894 0 -0.132316)
(-0.00181913 0 -0.122962)
(-0.00170779 0 -0.11459)
(-0.00158702 0 -0.106538)
(-0.001462 0 -0.0988352)
(-0.00133679 0 -0.0914933)
(-0.00121404 0 -0.0845145)
(-0.00109552 0 -0.0778966)
(-0.000982372 0 -0.0716347)
(-0.00087537 0 -0.0657214)
(-0.000774974 0 -0.0601478)
(-0.000681421 0 -0.0549036)
(-0.000594782 0 -0.0499775)
(-0.000515 0 -0.0453575)
(-0.000441928 0 -0.0410314)
(-0.000375351 0 -0.0369865)
(-0.000315009 0 -0.0332103)
(-0.000260607 0 -0.0296899)
(-0.00021183 0 -0.0264126)
(-0.000168346 0 -0.0233659)
(-0.000129814 0 -0.0205374)
(-9.58853e-05 0 -0.0179152)
(-6.62247e-05 0 -0.0154875)
(-4.05339e-05 0 -0.0132429)
(-1.85809e-05 0 -0.0111691)
(-1.79587e-07 0 -0.00925235)
(1.49391e-05 0 -0.00747728)
(2.72038e-05 0 -0.00582714)
(3.67938e-05 0 -0.00428281)
(4.40142e-05 0 -0.00282684)
(5.25848e-05 0 -0.00132056)
(0.00151534 0 -0.179163)
(0.00140976 0 -0.183717)
(0.00126821 0 -0.187856)
(0.00108767 0 -0.191502)
(0.000867084 0 -0.194566)
(0.000607305 0 -0.196951)
(0.00031183 0 -0.198562)
(-1.29876e-05 0 -0.199305)
(-0.000358101 0 -0.199101)
(-0.000712092 0 -0.197882)
(-0.00106174 0 -0.195604)
(-0.00139303 0 -0.192248)
(-0.00169241 0 -0.187822)
(-0.00194795 0 -0.182363)
(-0.00215049 0 -0.175931)
(-0.00229421 0 -0.16861)
(-0.0023768 0 -0.160492)
(-0.00239899 0 -0.151678)
(-0.00236393 0 -0.14227)
(-0.0022763 0 -0.132374)
(-0.00215566 0 -0.123047)
(-0.00202156 0 -0.114693)
(-0.00187582 0 -0.106655)
(-0.00172452 0 -0.0989611)
(-0.00157262 0 -0.0916253)
(-0.00142337 0 -0.0846501)
(-0.001279 0 -0.0780339)
(-0.00114102 0 -0.0717721)
(-0.0010104 0 -0.0658576)
(-0.000887772 0 -0.0602818)
(-0.000773465 0 -0.0550345)
(-0.000667596 0 -0.0501045)
(-0.000570119 0 -0.04548)
(-0.000480873 0 -0.0411489)
(-0.00039961 0 -0.0370986)
(-0.000326017 0 -0.0333165)
(-0.00025974 0 -0.0297901)
(-0.000200397 0 -0.0265066)
(-0.000147585 0 -0.0234535)
(-0.000100886 0 -0.0206185)
(-5.98792e-05 0 -0.0179897)
(-2.41564e-05 0 -0.0155554)
(6.64156e-06 0 -0.0133041)
(3.28221e-05 0 -0.0112233)
(5.46807e-05 0 -0.00929946)
(7.26237e-05 0 -0.00751765)
(8.72783e-05 0 -0.00586159)
(9.90219e-05 0 -0.00431216)
(0.000108154 0 -0.00285057)
(0.000116032 0 -0.00133396)
(0.00170632 0 -0.179114)
(0.00158261 0 -0.183643)
(0.00141831 0 -0.187756)
(0.0012103 0 -0.191375)
(0.000957846 0 -0.194412)
(0.00066224 0 -0.196772)
(0.000327654 0 -0.19836)
(-3.86743e-05 0 -0.199086)
(-0.000426603 0 -0.198871)
(-0.000823469 0 -0.197651)
(-0.00121472 0 -0.195381)
(-0.00158496 0 -0.192043)
(-0.00191929 0 -0.187643)
(-0.00220457 0 -0.182217)
(-0.00243057 0 -0.175824)
(-0.00259065 0 -0.168544)
(-0.00268195 0 -0.160468)
(-0.00270497 0 -0.151694)
(-0.00266305 0 -0.142325)
(-0.00256108 0 -0.132463)
(-0.00242141 0 -0.123163)
(-0.00226681 0 -0.11483)
(-0.00209863 0 -0.106805)
(-0.00192373 0 -0.099121)
(-0.00174779 0 -0.0917911)
(-0.00157464 0 -0.0848191)
(-0.00140692 0 -0.0782039)
(-0.00124646 0 -0.0719413)
(-0.00109446 0 -0.0660246)
(-0.000951693 0 -0.0604454)
(-0.000818589 0 -0.0551936)
(-0.00069531 0 -0.0502584)
(-0.000581829 0 -0.045628)
(-0.000477974 0 -0.0412904)
(-0.000383467 0 -0.0372332)
(-0.000297953 0 -0.0334438)
(-0.000221022 0 -0.0299098)
(-0.000152228 0 -0.0266185)
(-9.11023e-05 0 -0.0235575)
(-3.71579e-05 0 -0.0207144)
(1.0093e-05 0 -0.0180775)
(5.11241e-05 0 -0.0156351)
(8.63603e-05 0 -0.0133754)
(0.000116182 0 -0.0112862)
(0.000140985 0 -0.00935398)
(0.000161294 0 -0.00756436)
(0.000177816 0 -0.00590148)
(0.000190992 0 -0.00434566)
(0.000201152 0 -0.00287625)
(0.000208606 0 -0.00134739)
(0.00185356 0 -0.179048)
(0.00171407 0 -0.183551)
(0.00153034 0 -0.187635)
(0.00129923 0 -0.191224)
(0.00102041 0 -0.19423)
(0.000695643 0 -0.196562)
(0.000329681 0 -0.198126)
(-6.94874e-05 0 -0.198834)
(-0.000490854 0 -0.198609)
(-0.000920815 0 -0.197388)
(-0.00134382 0 -0.195128)
(-0.0017435 0 -0.191808)
(-0.00210397 0 -0.187438)
(-0.00241119 0 -0.182049)
(-0.00265408 0 -0.1757)
(-0.00282536 0 -0.168466)
(-0.00292167 0 -0.160437)
(-0.00294323 0 -0.15171)
(-0.00289345 0 -0.142383)
(-0.0027773 0 -0.13256)
(-0.00261972 0 -0.123292)
(-0.00244625 0 -0.114981)
(-0.00225757 0 -0.106973)
(-0.00206115 0 -0.0993002)
(-0.0018633 0 -0.0919777)
(-0.00166836 0 -0.0850098)
(-0.00147934 0 -0.0783962)
(-0.00129837 0 -0.0721331)
(-0.00112686 0 -0.0662141)
(-0.000965729 0 -0.0606312)
(-0.000815484 0 -0.0553746)
(-0.000676344 0 -0.0504335)
(-0.000548298 0 -0.0457964)
(-0.000431164 0 -0.0414514)
(-0.000324638 0 -0.0373863)
(-0.00022832 0 -0.0335887)
(-0.000141752 0 -0.030046)
(-6.44255e-05 0 -0.0267457)
(4.19168e-06 0 -0.0236755)
(6.46521e-05 0 -0.0208232)
(0.00011751 0 -0.0181768)
(0.000163305 0 -0.0157249)
(0.000202528 0 -0.0134557)
(0.000235638 0 -0.0113567)
(0.000263116 0 -0.00941496)
(0.000285557 0 -0.00761644)
(0.000303668 0 -0.00594549)
(0.000317869 0 -0.00438167)
(0.000328589 0 -0.00290273)
(0.000335643 0 -0.00136077)
(0.00196052 0 -0.178964)
(0.00180772 0 -0.183436)
(0.00160785 0 -0.187489)
(0.00135788 0 -0.191045)
(0.00105789 0 -0.194019)
(0.000710087 0 -0.196321)
(0.000319757 0 -0.19786)
(-0.000104491 0 -0.198549)
(-0.000550978 0 -0.198314)
(-0.0010054 0 -0.197093)
(-0.00145151 0 -0.194843)
(-0.00187221 0 -0.191546)
(-0.00225095 0 -0.187207)
(-0.00257303 0 -0.181859)
(-0.00282677 0 -0.175556)
(-0.00300433 0 -0.168374)
(-0.00310192 0 -0.160397)
(-0.00311949 0 -0.15172)
(-0.00306045 0 -0.142441)
(-0.00292974 0 -0.132662)
(-0.00275473 0 -0.123429)
(-0.0025634 0 -0.115144)
(-0.0023555 0 -0.107154)
(-0.00213904 0 -0.0994954)
(-0.00192087 0 -0.0921817)
(-0.00170574 0 -0.0852192)
(-0.00149703 0 -0.0786079)
(-0.0012971 0 -0.0723446)
(-0.00110757 0 -0.0664236)
(-0.000929486 0 -0.0608368)
(-0.000763437 0 -0.055575)
(-0.000609686 0 -0.0506275)
(-0.000468237 0 -0.0459831)
(-0.000338899 0 -0.04163)
(-0.000221335 0 -0.0375561)
(-0.000115107 0 -0.0337492)
(-1.97022e-05 0 -0.0301968)
(6.5443e-05 0 -0.0268865)
(0.000140925 0 -0.023806)
(0.000207361 0 -0.0209433)
(0.00026537 0 -0.0182865)
(0.000315555 0 -0.0158239)
(0.000358475 0 -0.0135439)
(0.000394659 0 -0.0114342)
(0.000424656 0 -0.00948184)
(0.000449086 0 -0.00767326)
(0.000468617 0 -0.0059928)
(0.000483652 0 -0.00441934)
(0.000494776 0 -0.00292953)
(0.000501502 0 -0.00137398)
(0.00203027 0 -0.17887)
(0.00186667 0 -0.183311)
(0.00165393 0 -0.18733)
(0.00138915 0 -0.190852)
(0.00107287 0 -0.193793)
(0.000707685 0 -0.196065)
(0.000299364 0 -0.197577)
(-0.000142979 0 -0.198248)
(-0.00060716 0 -0.198003)
(-0.00107837 0 -0.196782)
(-0.00153986 0 -0.194544)
(-0.00197409 0 -0.19127)
(-0.00236404 0 -0.186965)
(-0.00269456 0 -0.18166)
(-0.00295351 0 -0.175408)
(-0.00313265 0 -0.168278)
(-0.00322782 0 -0.160357)
(-0.0032387 0 -0.151734)
(-0.00316867 0 -0.142506)
(-0.00302259 0 -0.132774)
(-0.00283012 0 -0.123579)
(-0.00262135 0 -0.115321)
(-0.00239498 0 -0.107353)
(-0.00215943 0 -0.0997086)
(-0.00192202 0 -0.0924049)
(-0.00168786 0 -0.0854482)
(-0.00146063 0 -0.0788396)
(-0.00124291 0 -0.0725764)
(-0.00103651 0 -0.0666531)
(-0.000842559 0 -0.0610622)
(-0.000661745 0 -0.0557946)
(-0.00049436 0 -0.0508401)
(-0.000340417 0 -0.0461876)
(-0.000199712 0 -0.0418256)
(-7.18751e-05 0 -0.037742)
(4.35692e-05 0 -0.0339248)
(0.000147186 0 -0.0303617)
(0.000239601 0 -0.0270403)
(0.000321469 0 -0.0239485)
(0.000393469 0 -0.0210743)
(0.000456284 0 -0.0184059)
(0.000510576 0 -0.0159317)
(0.000556972 0 -0.0136399)
(0.000596063 0 -0.0115184)
(0.000628445 0 -0.00955441)
(0.000654745 0 -0.00773456)
(0.000675584 0 -0.00604315)
(0.000691394 0 -0.00445854)
(0.000702946 0 -0.00295675)
(0.000709463 0 -0.00138719)
(0.00206538 0 -0.178773)
(0.00189349 0 -0.183181)
(0.00167106 0 -0.187166)
(0.00139538 0 -0.190653)
(0.00106738 0 -0.19356)
(0.000690066 0 -0.195801)
(0.00026961 0 -0.197288)
(-0.000184476 0 -0.19794)
(-0.000659634 0 -0.197685)
(-0.0011407 0 -0.196466)
(-0.00161064 0 -0.194241)
(-0.00205161 0 -0.190991)
(-0.00244634 0 -0.186722)
(-0.00277937 0 -0.181462)
(-0.00303828 0 -0.17526)
(-0.00321448 0 -0.168187)
(-0.00330355 0 -0.160323)
(-0.00330492 0 -0.151757)
(-0.0032219 0 -0.142583)
(-0.00305927 0 -0.132899)
(-0.00284889 0 -0.123744)
(-0.00262266 0 -0.115515)
(-0.00237809 0 -0.107569)
(-0.00212398 0 -0.0999403)
(-0.00186801 0 -0.0926471)
(-0.00161559 0 -0.0856968)
(-0.00137065 0 -0.0790911)
(-0.00113599 0 -0.0728277)
(-0.00091353 0 -0.0669019)
(-0.000704537 0 -0.0613064)
(-0.000509738 0 -0.0560326)
(-0.000329459 0 -0.0510704)
(-0.000163715 0 -0.0464091)
(-1.22827e-05 0 -0.0420372)
(0.000125239 0 -0.0379431)
(0.00024937 0 -0.0341147)
(0.000360727 0 -0.0305398)
(0.000459989 0 -0.0272064)
(0.000547869 0 -0.0241023)
(0.000625105 0 -0.0212155)
(0.000692438 0 -0.0185345)
(0.000750593 0 -0.0160476)
(0.000800256 0 -0.0137431)
(0.000842079 0 -0.0116089)
(0.0008767 0 -0.00963233)
(0.000904751 0 -0.00780007)
(0.000926831 0 -0.00609639)
(0.000943436 0 -0.00449936)
(0.000955523 0 -0.00298468)
(0.000961954 0 -0.00140066)
(0.0020679 0 -0.178673)
(0.00189023 0 -0.183048)
(0.00166122 0 -0.186998)
(0.00137836 0 -0.190449)
(0.00104299 0 -0.193323)
(0.000658445 0 -0.195532)
(0.000231276 0 -0.196994)
(-0.000228715 0 -0.197628)
(-0.000708704 0 -0.197365)
(-0.00119332 0 -0.196147)
(-0.00166535 0 -0.193936)
(-0.00210686 0 -0.190712)
(-0.00250042 0 -0.18648)
(-0.00283045 0 -0.181265)
(-0.00308434 0 -0.175117)
(-0.00325327 0 -0.168102)
(-0.00333259 0 -0.160297)
(-0.00332151 0 -0.151789)
(-0.00322329 0 -0.14267)
(-0.0030426 0 -0.133037)
(-0.00281349 0 -0.123923)
(-0.00256943 0 -0.115725)
(-0.0023066 0 -0.107801)
(-0.00203409 0 -0.10019)
(-0.00175988 0 -0.0929075)
(-0.00148964 0 -0.0859639)
(-0.0012275 0 -0.0793611)
(-0.00097644 0 -0.0730976)
(-0.000738509 0 -0.067169)
(-0.000515041 0 -0.0615686)
(-0.000306817 0 -0.0562879)
(-0.000114179 0 -0.0513174)
(6.28627e-05 0 -0.0466465)
(0.000224551 0 -0.0422641)
(0.000371323 0 -0.0381585)
(0.000503745 0 -0.034318)
(0.000622482 0 -0.0307305)
(0.000728265 0 -0.027384)
(0.000821863 0 -0.0242666)
(0.000904069 0 -0.0213664)
(0.000975679 0 -0.0186718)
(0.00103748 0 -0.0161714)
(0.00109021 0 -0.0138532)
(0.00113459 0 -0.0117054)
(0.0011713 0 -0.00971523)
(0.00120101 0 -0.00786954)
(0.0012243 0 -0.00615251)
(0.00124177 0 -0.00454205)
(0.00125452 0 -0.0030137)
(0.00126098 0 -0.00141464)
(0.0020394 0 -0.17857)
(0.00185845 0 -0.182911)
(0.00162586 0 -0.186825)
(0.00133941 0 -0.190242)
(0.00100078 0 -0.193081)
(0.000613632 0 -0.195261)
(0.000184803 0 -0.196697)
(-0.000275675 0 -0.197314)
(-0.00075481 0 -0.197043)
(-0.00123713 0 -0.195829)
(-0.00170541 0 -0.193633)
(-0.00214168 0 -0.190435)
(-0.00252854 0 -0.186241)
(-0.00285037 0 -0.181073)
(-0.00309448 0 -0.17498)
(-0.0032519 0 -0.168023)
(-0.00331782 0 -0.160278)
(-0.00329126 0 -0.151831)
(-0.00317542 0 -0.142769)
(-0.00297489 0 -0.133189)
(-0.00272592 0 -0.124117)
(-0.00246334 0 -0.11595)
(-0.00218188 0 -0.10805)
(-0.00189083 0 -0.100456)
(-0.00159842 0 -0.0931854)
(-0.00131051 0 -0.0862487)
(-0.00103142 0 -0.0796489)
(-0.000764274 0 -0.0733852)
(-0.000511209 0 -0.0674535)
(-0.000273626 0 -0.0618478)
(-5.2337e-05 0 -0.0565599)
(0.000152307 0 -0.0515804)
(0.000340307 0 -0.0468993)
(0.000511933 0 -0.0425054)
(0.000667657 0 -0.0383876)
(0.000808092 0 -0.0345341)
(0.00093395 0 -0.0309331)
(0.00104601 0 -0.0275727)
(0.00114511 0 -0.024441)
(0.00123208 0 -0.0215264)
(0.00130777 0 -0.0188173)
(0.00137304 0 -0.0163023)
(0.00142868 0 -0.0139697)
(0.00147549 0 -0.0118073)
(0.00151421 0 -0.00980281)
(0.00154552 0 -0.00794283)
(0.00157005 0 -0.00621157)
(0.00158847 0 -0.00458689)
(0.00160203 0 -0.00304415)
(0.00160862 0 -0.00142937)
(0.00198104 0 -0.178466)
(0.00179926 0 -0.182772)
(0.00156604 0 -0.186652)
(0.00127944 0 -0.190033)
(0.000941457 0 -0.192839)
(0.000556068 0 -0.194989)
(0.000130321 0 -0.196401)
(-0.00032558 0 -0.197002)
(-0.000798564 0 -0.196724)
(-0.00127316 0 -0.195514)
(-0.0017322 0 -0.193333)
(-0.00215783 0 -0.190164)
(-0.00253275 0 -0.186008)
(-0.00284142 0 -0.180888)
(-0.00307114 0 -0.17485)
(-0.0032129 0 -0.167953)
(-0.00326173 0 -0.160271)
(-0.00321656 0 -0.151884)
(-0.00308049 0 -0.142881)
(-0.00285807 0 -0.133354)
(-0.00258782 0 -0.124326)
(-0.00230577 0 -0.116191)
(-0.00200502 0 -0.108316)
(-0.00169501 0 -0.100739)
(-0.00138415 0 -0.0934808)
(-0.00107847 0 -0.0865512)
(-0.000782451 0 -0.0799545)
(-0.000499295 0 -0.0736903)
(-0.000231227 0 -0.0677553)
(2.03092e-05 0 -0.0621438)
(0.000254484 0 -0.0568481)
(0.000470949 0 -0.0518591)
(0.000669723 0 -0.047167)
(0.000851107 0 -0.042761)
(0.00101561 0 -0.03863)
(0.00116389 0 -0.0347627)
(0.00129671 0 -0.0311472)
(0.00141491 0 -0.027772)
(0.00151936 0 -0.0246252)
(0.00161096 0 -0.0216952)
(0.00169063 0 -0.0189707)
(0.00175927 0 -0.0164403)
(0.00181776 0 -0.0140922)
(0.00186695 0 -0.0119146)
(0.00190765 0 -0.00989494)
(0.00194061 0 -0.00801995)
(0.00196646 0 -0.00627379)
(0.00198595 0 -0.00463418)
(0.00200042 0 -0.00307634)
(0.00200724 0 -0.00144503)
(0.00189373 0 -0.178361)
(0.00171352 0 -0.182634)
(0.0014825 0 -0.186478)
(0.00119905 0 -0.189825)
(0.000865454 0 -0.192599)
(0.000485936 0 -0.19472)
(6.77337e-05 0 -0.196109)
(-0.000378844 0 -0.196695)
(-0.000840716 0 -0.196411)
(-0.00130249 0 -0.195206)
(-0.00174714 0 -0.193042)
(-0.00215703 0 -0.189901)
(-0.00251504 0 -0.185784)
(-0.00280577 0 -0.180714)
(-0.00301662 0 -0.174732)
(-0.00313857 0 -0.167895)
(-0.00316662 0 -0.160276)
(-0.00309957 0 -0.151952)
(-0.00294048 0 -0.143008)
(-0.00269384 0 -0.133536)
(-0.00240062 0 -0.124551)
(-0.00209787 0 -0.116449)
(-0.00177689 0 -0.108599)
(-0.00144724 0 -0.10104)
(-0.00111744 0 -0.0937941)
(-0.00079366 0 -0.0868717)
(-0.000480473 0 -0.0802779)
(-0.000181172 0 -0.0740131)
(0.000101973 0 -0.0680744)
(0.000367493 0 -0.0624566)
(0.000614555 0 -0.0571525)
(0.000842819 0 -0.0521533)
(0.00105233 0 -0.0474494)
(0.00124343 0 -0.0430305)
(0.00141666 0 -0.0388856)
(0.00157274 0 -0.0350036)
(0.00171247 0 -0.0313728)
(0.00183675 0 -0.0279818)
(0.00194651 0 -0.0248188)
(0.00204271 0 -0.0218726)
(0.00212634 0 -0.0191318)
(0.00219836 0 -0.016585)
(0.00225972 0 -0.0142208)
(0.00231135 0 -0.0120272)
(0.00235413 0 -0.00999175)
(0.00238884 0 -0.00810114)
(0.00241613 0 -0.00633945)
(0.00243683 0 -0.00468428)
(0.00245233 0 -0.0031106)
(0.00245946 0 -0.0014618)
(0.00177822 0 -0.178258)
(0.00160192 0 -0.182497)
(0.00137582 0 -0.186308)
(0.00109868 0 -0.189621)
(0.000773018 0 -0.192363)
(0.000403264 0 -0.194457)
(-3.1881e-06 0 -0.195825)
(-0.000435977 0 -0.196396)
(-0.000882076 0 -0.196108)
(-0.00132624 0 -0.194909)
(-0.00175166 0 -0.192763)
(-0.00214095 0 -0.189652)
(-0.00247729 0 -0.185575)
(-0.00274547 0 -0.180554)
(-0.00293307 0 -0.174628)
(-0.00303111 0 -0.167853)
(-0.00303461 0 -0.160297)
(-0.00294229 0 -0.152035)
(-0.0027572 0 -0.143151)
(-0.00248378 0 -0.133734)
(-0.00216562 0 -0.124794)
(-0.0018407 0 -0.116725)
(-0.00149831 0 -0.1089)
(-0.00114807 0 -0.10136)
(-0.000798598 0 -0.094126)
(-0.000456129 0 -0.0872107)
(-0.000125323 0 -0.0806196)
(0.000190481 0 -0.0743538)
(0.000488985 0 -0.068411)
(0.000768713 0 -0.0627864)
(0.00102884 0 -0.0574731)
(0.00126905 0 -0.052463)
(0.00148942 0 -0.0477466)
(0.00169032 0 -0.043314)
(0.00187236 0 -0.0391543)
(0.00203629 0 -0.0352567)
(0.00218299 0 -0.0316097)
(0.00231341 0 -0.028202)
(0.00242854 0 -0.0250221)
(0.00252942 0 -0.0220587)
(0.00261709 0 -0.0193006)
(0.00269258 0 -0.0167368)
(0.00275694 0 -0.0143557)
(0.00281115 0 -0.0121454)
(0.00285616 0 -0.0100936)
(0.00289276 0 -0.00818678)
(0.00292163 0 -0.00640897)
(0.00294365 0 -0.00473754)
(0.00296028 0 -0.0031472)
(0.00296778 0 -0.00147983)
(0.00163508 0 -0.178159)
(0.00146496 0 -0.182365)
(0.00124643 0 -0.186143)
(0.000978638 0 -0.189424)
(0.000664274 0 -0.192135)
(0.000307973 0 -0.194202)
(-8.27513e-05 0 -0.19555)
(-0.000497539 0 -0.196109)
(-0.000923468 0 -0.195818)
(-0.00134548 0 -0.194626)
(-0.00174707 0 -0.192499)
(-0.00211116 0 -0.189417)
(-0.00242124 0 -0.185381)
(-0.00266242 0 -0.18041)
(-0.00282246 0 -0.174541)
(-0.00289252 0 -0.167828)
(-0.00286766 0 -0.160335)
(-0.00274659 0 -0.152137)
(-0.00253235 0 -0.143313)
(-0.00222937 0 -0.133952)
(-0.00188407 0 -0.125056)
(-0.00153525 0 -0.11702)
(-0.00117002 0 -0.109221)
(-0.00079801 0 -0.101699)
(-0.000427875 0 -0.0944773)
(-6.59019e-05 0 -0.0875689)
(0.000283207 0 -0.0809802)
(0.000616088 0 -0.074713)
(0.000930437 0 -0.0687655)
(0.00122479 0 -0.0631334)
(0.00149833 0 -0.0578104)
(0.00175078 0 -0.0527885)
(0.00198227 0 -0.0480589)
(0.00219321 0 -0.0436116)
(0.00238425 0 -0.0394363)
(0.00255622 0 -0.0355222)
(0.00271006 0 -0.0318581)
(0.00284678 0 -0.0284328)
(0.00296745 0 -0.0252351)
(0.00307316 0 -0.0222536)
(0.00316502 0 -0.0194776)
(0.00324417 0 -0.0168959)
(0.00331169 0 -0.0144971)
(0.00336865 0 -0.0122696)
(0.00341603 0 -0.0102008)
(0.00345467 0 -0.00827725)
(0.00348522 0 -0.00648267)
(0.00350866 0 -0.00479425)
(0.00352649 0 -0.00318633)
(0.00353434 0 -0.00149919)
(0.00146477 0 -0.178063)
(0.00130303 0 -0.182238)
(0.00109462 0 -0.185984)
(0.000839065 0 -0.189233)
(0.000539215 0 -0.191916)
(0.000199881 0 -0.193958)
(-0.000171342 0 -0.195287)
(-0.00056413 0 -0.195835)
(-0.000965718 0 -0.195543)
(-0.00136129 0 -0.19436)
(-0.00173465 0 -0.192253)
(-0.0020691 0 -0.189202)
(-0.00234852 0 -0.185207)
(-0.00255833 0 -0.180286)
(-0.00268657 0 -0.174474)
(-0.00272459 0 -0.167823)
(-0.00266752 0 -0.160394)
(-0.00251411 0 -0.152259)
(-0.00226741 0 -0.143496)
(-0.00193188 0 -0.13419)
(-0.00155701 0 -0.125339)
(-0.00118238 0 -0.117336)
(-0.000792646 0 -0.109562)
(-0.000397441 0 -0.102059)
(-5.42765e-06 0 -0.094849)
(0.000377092 0 -0.0879472)
(0.000745404 0 -0.0813605)
(0.00109614 0 -0.0750913)
(0.00142702 0 -0.0691385)
(0.00173658 0 -0.0634983)
(0.00202405 0 -0.0581647)
(0.0022892 0 -0.0531304)
(0.0025322 0 -0.0483866)
(0.00275352 0 -0.0439239)
(0.00295389 0 -0.0397321)
(0.00313419 0 -0.0358006)
(0.00329544 0 -0.0321185)
(0.00343871 0 -0.0286747)
(0.00356514 0 -0.0254581)
(0.0036759 0 -0.0224579)
(0.00377219 0 -0.019663)
(0.00385519 0 -0.0170627)
(0.00392606 0 -0.0146457)
(0.00398594 0 -0.0124003)
(0.00403582 0 -0.0103139)
(0.00407659 0 -0.00837287)
(0.00410888 0 -0.00656081)
(0.00413378 0 -0.00485456)
(0.00415285 0 -0.00322807)
(0.00416102 0 -0.00151993)
(0.00126756 0 -0.177974)
(0.00111634 0 -0.182118)
(0.000920487 0 -0.185833)
(0.000679949 0 -0.189053)
(0.000397688 0 -0.191709)
(7.86793e-05 0 -0.193728)
(-0.000269447 0 -0.19504)
(-0.000636436 0 -0.195579)
(-0.0010097 0 -0.195286)
(-0.0013747 0 -0.194113)
(-0.00171561 0 -0.192027)
(-0.00201615 0 -0.189008)
(-0.00226059 0 -0.185055)
(-0.00243477 0 -0.180185)
(-0.00252703 0 -0.17443)
(-0.00252892 0 -0.16784)
(-0.00243573 0 -0.160475)
(-0.00224628 0 -0.152404)
(-0.00196366 0 -0.143701)
(-0.0015924 0 -0.134451)
(-0.00118532 0 -0.125644)
(-0.00078273 0 -0.117674)
(-0.000366627 0 -0.109926)
(5.34052e-05 0 -0.10244)
(0.000468729 0 -0.0952423)
(0.000873053 0 -0.0883467)
(0.00126167 0 -0.0817615)
(0.00163124 0 -0.0754898)
(0.00197949 0 -0.069531)
(0.00230501 0 -0.0638818)
(0.00260708 0 -0.0585369)
(0.00288552 0 -0.0534892)
(0.00314055 0 -0.0487304)
(0.00337272 0 -0.0442513)
(0.00358284 0 -0.0400421)
(0.00377185 0 -0.0360922)
(0.00394085 0 -0.0323912)
(0.00409099 0 -0.0289281)
(0.00422348 0 -0.0256919)
(0.00433957 0 -0.0226719)
(0.00444052 0 -0.0198574)
(0.00452759 0 -0.0172377)
(0.00460201 0 -0.0148017)
(0.00466494 0 -0.0125377)
(0.00471744 0 -0.010433)
(0.0047604 0 -0.00847382)
(0.00479446 0 -0.00664346)
(0.00482084 0 -0.00491851)
(0.00484117 0 -0.00327243)
(0.00484959 0 -0.00154203)
(0.00104357 0 -0.177892)
(0.000904928 0 -0.182006)
(0.000723987 0 -0.185692)
(0.000501123 0 -0.188885)
(0.000239394 0 -0.191515)
(-5.60888e-05 0 -0.193514)
(-0.000377685 0 -0.194811)
(-0.00071524 0 -0.195342)
(-0.00105636 0 -0.19505)
(-0.00138683 0 -0.193889)
(-0.00169121 0 -0.191825)
(-0.00195368 0 -0.188838)
(-0.00215894 0 -0.184928)
(-0.00229327 0 -0.180108)
(-0.00234534 0 -0.174411)
(-0.002307 0 -0.167883)
(-0.00217371 0 -0.160582)
(-0.0019444 0 -0.152574)
(-0.00162226 0 -0.143932)
(-0.00121188 0 -0.134737)
(-0.000769734 0 -0.125974)
(-0.00033684 0 -0.118037)
(0.000107723 0 -0.110313)
(0.000554433 0 -0.102845)
(0.000994709 0 -0.0956587)
(0.0014223 0 -0.0887688)
(0.00183252 0 -0.0821844)
(0.00222206 0 -0.0759094)
(0.00258871 0 -0.0699438)
(0.0029311 0 -0.064285)
(0.00324856 0 -0.0589279)
(0.00354099 0 -0.0538659)
(0.00380869 0 -0.0490912)
(0.00405229 0 -0.0445948)
(0.00427266 0 -0.0403671)
(0.00447085 0 -0.036398)
(0.00464802 0 -0.0326771)
(0.00480541 0 -0.0291936)
(0.00494431 0 -0.0259368)
(0.00506604 0 -0.0228962)
(0.00517193 0 -0.0200612)
(0.0052633 0 -0.0174214)
(0.00534145 0 -0.0149656)
(0.00540759 0 -0.0126822)
(0.00546281 0 -0.0105584)
(0.00550802 0 -0.00858023)
(0.00554389 0 -0.00673071)
(0.00557178 0 -0.0049861)
(0.00559341 0 -0.0033194)
(0.00560206 0 -0.0015655)
(0.000792795 0 -0.177817)
(0.000668704 0 -0.181905)
(0.000504926 0 -0.185564)
(0.000302281 0 -0.18873)
(6.38914e-05 0 -0.191337)
(-0.000205014 0 -0.193317)
(-0.000496804 0 -0.194601)
(-0.00080144 0 -0.195126)
(-0.00110676 0 -0.194838)
(-0.00139888 0 -0.19369)
(-0.00166278 0 -0.191649)
(-0.0018831 0 -0.188696)
(-0.00204505 0 -0.184829)
(-0.00213534 0 -0.18006)
(-0.00214304 0 -0.174421)
(-0.00206032 0 -0.167955)
(-0.00188285 0 -0.160717)
(-0.00160974 0 -0.152772)
(-0.00124427 0 -0.14419)
(-0.000791173 0 -0.13505)
(-0.000310896 0 -0.126331)
(0.000154858 0 -0.118426)
(0.000630181 0 -0.110726)
(0.00110563 0 -0.103276)
(0.00157271 0 -0.0960996)
(0.00202521 0 -0.0892147)
(0.00245851 0 -0.0826305)
(0.00286936 0 -0.0763515)
(0.00325557 0 -0.0703783)
(0.00361587 0 -0.0647089)
(0.00394967 0 -0.0593387)
(0.00425693 0 -0.0542615)
(0.00453805 0 -0.0494698)
(0.00479375 0 -0.0449551)
(0.005025 0 -0.040708)
(0.00523291 0 -0.0367186)
(0.00541875 0 -0.0329768)
(0.00558383 0 -0.029472)
(0.00572953 0 -0.0261937)
(0.00585724 0 -0.0231315)
(0.00596838 0 -0.0202752)
(0.00606432 0 -0.0176143)
(0.00614643 0 -0.0151379)
(0.00621595 0 -0.0128342)
(0.00627403 0 -0.0106904)
(0.00632161 0 -0.0086923)
(0.00635935 0 -0.00682268)
(0.00638882 0 -0.00505745)
(0.00641182 0 -0.00336905)
(0.0064207 0 -0.00159038)
(0.000515118 0 -0.177753)
(0.000407457 0 -0.181815)
(0.000262995 0 -0.185448)
(8.29916e-05 0 -0.188591)
(-0.000129385 0 -0.191177)
(-0.000368805 0 -0.19314)
(-0.000627658 0 -0.194413)
(-0.000896037 0 -0.194935)
(-0.00116203 0 -0.194652)
(-0.0014121 0 -0.193518)
(-0.00163167 0 -0.191502)
(-0.00180588 0 -0.188584)
(-0.00192044 0 -0.18476)
(-0.00196252 0 -0.180043)
(-0.00192166 0 -0.174462)
(-0.00179034 0 -0.168057)
(-0.00156453 0 -0.160883)
(-0.00124351 0 -0.153)
(-0.00083076 0 -0.144477)
(-0.00033113 0 -0.135392)
(0.000190582 0 -0.126716)
(0.000691968 0 -0.118843)
(0.00120057 0 -0.111167)
(0.00170704 0 -0.103733)
(0.00220297 0 -0.0965669)
(0.00268223 0 -0.0896863)
(0.00314026 0 -0.0831015)
(0.00357389 0 -0.0768175)
(0.00398101 0 -0.0708359)
(0.00436042 0 -0.0651549)
(0.00471163 0 -0.0597706)
(0.0050347 0 -0.0546772)
(0.00533012 0 -0.0498675)
(0.00559871 0 -0.0453334)
(0.00584153 0 -0.0410658)
(0.0060598 0 -0.0370551)
(0.00625486 0 -0.0332913)
(0.00642814 0 -0.0297641)
(0.00658109 0 -0.0264633)
(0.0067152 0 -0.0233786)
(0.00683193 0 -0.0204999)
(0.00693277 0 -0.017817)
(0.0070191 0 -0.015319)
(0.00709224 0 -0.0129941)
(0.00715338 0 -0.0108294)
(0.00720349 0 -0.00881037)
(0.00724326 0 -0.00691966)
(0.00727443 0 -0.00513278)
(0.00729892 0 -0.00342157)
(0.00730807 0 -0.00161677)
(0.000210304 0 -0.177699)
(0.000120859 0 -0.181737)
(-2.23192e-06 0 -0.185347)
(-0.000157296 0 -0.188468)
(-0.000341117 0 -0.191036)
(-0.000548274 0 -0.192984)
(-0.00077119 0 -0.194249)
(-0.00100011 0 -0.19477)
(-0.00122337 0 -0.194494)
(-0.00142781 0 -0.193377)
(-0.00159931 0 -0.191386)
(-0.0017235 0 -0.188504)
(-0.00178662 0 -0.184724)
(-0.00177636 0 -0.180059)
(-0.00168269 0 -0.174536)
(-0.0014985 0 -0.168193)
(-0.00122008 0 -0.161082)
(-0.00084693 0 -0.153261)
(-0.000382734 0 -0.144798)
(0.000167454 0 -0.135766)
(0.000734128 0 -0.127133)
(0.00127413 0 -0.11929)
(0.00181874 0 -0.111638)
(0.00235871 0 -0.104219)
(0.00288574 0 -0.0970626)
(0.0033938 0 -0.0901854)
(0.00387841 0 -0.083599)
(0.00433647 0 -0.0773093)
(0.004766 0 -0.0713182)
(0.00516588 0 -0.0656246)
(0.00553573 0 -0.0602251)
(0.00587572 0 -0.0551144)
(0.00618644 0 -0.0502856)
(0.00646881 0 -0.0457309)
(0.00672401 0 -0.0414416)
(0.00695336 0 -0.0374084)
(0.00715831 0 -0.0336215)
(0.00734036 0 -0.0300709)
(0.00750108 0 -0.0267465)
(0.00764203 0 -0.0236382)
(0.00776479 0 -0.0207361)
(0.00787087 0 -0.0180302)
(0.00796175 0 -0.0155096)
(0.0080388 0 -0.0131625)
(0.00810325 0 -0.0109758)
(0.00815613 0 -0.00893491)
(0.0081981 0 -0.00702208)
(0.00823115 0 -0.00521247)
(0.00825726 0 -0.00347723)
(0.00826672 0 -0.00164483)
(-0.000122004 0 -0.177656)
(-0.000191543 0 -0.181673)
(-0.000291317 0 -0.185263)
(-0.00041926 0 -0.188365)
(-0.000572098 0 -0.190916)
(-0.000744331 0 -0.192853)
(-0.000928425 0 -0.194111)
(-0.00111478 0 -0.194633)
(-0.00129201 0 -0.194367)
(-0.00144733 0 -0.193268)
(-0.00156707 0 -0.191305)