/*--------------------------------*- C++ -*----------------------------------*\
  =========                 |
  \\      /  F ield         | OpenFOAM: The Open Source CFD Toolbox
   \\    /   O peration     | Website:  https://openfoam.org
    \\  /    A nd           | Version:  9
     \\/     M anipulation  |
\*---------------------------------------------------------------------------*/
FoamFile
{
    format      ascii;
    class       surfaceVectorField;
    location    "0.03";
    object      Uf;
}
// * * * * * * * * * * * * * * * * * * * * * * * * * * * * * * * * * * * * * //

dimensions      [0 1 -1 0 0 0 0];

internalField   nonuniform List<vector> 
9850
(
(0.00023616 0 -0.181547)
(0.000445783 0 -0.179315)
(0.000220058 0 -0.185951)
(0.000419657 0 -0.183924)
(0.000197887 0 -0.189907)
(0.000382992 0 -0.188124)
(0.000168971 0 -0.193328)
(0.000334588 0 -0.191835)
(0.000132922 0 -0.196119)
(0.000273607 0 -0.194965)
(8.98327e-05 0 -0.198179)
(0.000199904 0 -0.197414)
(4.03652e-05 0 -0.199407)
(0.000114255 0 -0.199081)
(-1.42207e-05 0 -0.199713)
(1.8453e-05 0 -0.199868)
(-7.21381e-05 0 -0.199019)
(-8.47481e-05 0 -0.199689)
(-0.000131156 0 -0.197267)
(-0.000191707 0 -0.198476)
(-0.000188663 0 -0.194422)
(-0.000298074 0 -0.196181)
(-0.000242002 0 -0.19048)
(-0.000399181 0 -0.192784)
(-0.000288746 0 -0.185466)
(-0.000490504 0 -0.188295)
(-0.00032696 0 -0.179435)
(-0.00056814 0 -0.182756)
(-0.000355404 0 -0.172464)
(-0.000629217 0 -0.176232)
(-0.000373603 0 -0.164646)
(-0.00067213 0 -0.168812)
(-0.000381725 0 -0.156084)
(-0.00069651 0 -0.160594)
(-0.000380394 0 -0.146884)
(-0.000702967 0 -0.151685)
(-0.000370584 0 -0.137151)
(-0.000692825 0 -0.142189)
(-0.000353573 0 -0.126997)
(-0.000668138 0 -0.132214)
(-0.000333572 0 -0.118475)
(-0.000633866 0 -0.122821)
(-0.000311326 0 -0.110247)
(-0.000594965 0 -0.114422)
(-0.000288255 0 -0.102362)
(-0.000553259 0 -0.106351)
(-0.000265246 0 -0.0948373)
(-0.000510639 0 -0.0986369)
(-0.000242801 0 -0.0876788)
(-0.000468403 0 -0.0912879)
(-0.000221203 0 -0.0808849)
(-0.000427333 0 -0.0843053)
(-0.00020062 0 -0.0744516)
(-0.000387905 0 -0.0776862)
(-0.000181158 0 -0.0683722)
(-0.000350417 0 -0.0714251)
(-0.000162881 0 -0.0626382)
(-0.00031506 0 -0.0655143)
(-0.000145817 0 -0.0572398)
(-0.00028194 0 -0.0599447)
(-0.000129972 0 -0.0521659)
(-0.000251103 0 -0.0547055)
(-0.00011533 0 -0.0474048)
(-0.000222549 0 -0.0497855)
(-0.000101861 0 -0.0429441)
(-0.00019624 0 -0.0451723)
(-8.95249e-05 0 -0.0387712)
(-0.000172117 0 -0.0408537)
(-7.82759e-05 0 -0.0348736)
(-0.0001501 0 -0.0368169)
(-6.80622e-05 0 -0.0312384)
(-0.000130099 0 -0.0330492)
(-5.88295e-05 0 -0.0278527)
(-0.000112013 0 -0.0295377)
(-5.0521e-05 0 -0.0247039)
(-9.57382e-05 0 -0.0262696)
(-4.30783e-05 0 -0.0217794)
(-8.11664e-05 0 -0.0232322)
(-3.64401e-05 0 -0.0190669)
(-6.81845e-05 0 -0.0204132)
(-3.0544e-05 0 -0.0165547)
(-5.66761e-05 0 -0.0178004)
(-2.53327e-05 0 -0.0142313)
(-4.65277e-05 0 -0.0153823)
(-2.07674e-05 0 -0.0120851)
(-3.76464e-05 0 -0.0131475)
(-1.68412e-05 0 -0.0101036)
(-2.99838e-05 0 -0.0110841)
(-1.35828e-05 0 -0.0082724)
(-2.354e-05 0 -0.00917865)
(-1.10548e-05 0 -0.00657538)
(-1.83602e-05 0 -0.00741587)
(-9.35064e-06 0 -0.00499314)
(-1.44773e-05 0 -0.00577853)
(-8.60606e-06 0 -0.00350085)
(-1.24822e-05 0 -0.00424495)
(-7.90342e-06 0 -0.0020193)
(-1.24519e-05 0 -0.00279045)
(-6.03253e-06 0 -0.00128482)
(0.000631943 0 -0.181736)
(0.000819963 0 -0.179294)
(0.000585521 0 -0.186143)
(0.000769053 0 -0.183893)
(0.000522842 0 -0.1901)
(0.000698719 0 -0.188082)
(0.000442479 0 -0.193522)
(0.000606944 0 -0.191781)
(0.000343747 0 -0.196313)
(0.000492533 0 -0.194899)
(0.000227142 0 -0.19837)
(0.000355463 0 -0.197337)
(9.45583e-05 0 -0.199596)
(0.000197317 0 -0.198993)
(-5.0644e-05 0 -0.199899)
(2.144e-05 0 -0.199771)
(-0.000203841 0 -0.199201)
(-0.000167163 0 -0.199587)
(-0.000359284 0 -0.197445)
(-0.000361972 0 -0.198373)
(-0.000510416 0 -0.194596)
(-0.000555287 0 -0.19608)
(-0.000650584 0 -0.190651)
(-0.00073888 0 -0.192691)
(-0.000773685 0 -0.185633)
(-0.000904784 0 -0.188213)
(-0.000874799 0 -0.179598)
(-0.00104609 0 -0.182688)
(-0.000950649 0 -0.172622)
(-0.00115764 0 -0.176181)
(-0.000999771 0 -0.164799)
(-0.00123642 0 -0.168779)
(-0.00102231 0 -0.15623)
(-0.00128154 0 -0.160579)
(-0.00101964 0 -0.147022)
(-0.00129389 0 -0.151687)
(-0.000994063 0 -0.137281)
(-0.00127559 0 -0.142206)
(-0.000948267 0 -0.127118)
(-0.00123 0 -0.132245)
(-0.000895886 0 -0.118589)
(-0.00116684 0 -0.122863)
(-0.000837042 0 -0.110353)
(-0.00109573 0 -0.114472)
(-0.000775337 0 -0.102459)
(-0.00101905 0 -0.106407)
(-0.000713212 0 -0.0949274)
(-0.000940206 0 -0.0986953)
(-0.000652185 0 -0.0877614)
(-0.000861669 0 -0.091348)
(-0.000593186 0 -0.0809608)
(-0.000785014 0 -0.0843663)
(-0.000536796 0 -0.0745211)
(-0.00071123 0 -0.0777474)
(-0.000483386 0 -0.0684358)
(-0.000640959 0 -0.0714859)
(-0.000433182 0 -0.0626963)
(-0.00057461 0 -0.0655743)
(-0.000386302 0 -0.0572929)
(-0.000512421 0 -0.0600035)
(-0.000342781 0 -0.0522143)
(-0.000454506 0 -0.0547628)
(-0.000302595 0 -0.0474488)
(-0.000400881 0 -0.049841)
(-0.000265674 0 -0.042984)
(-0.000351494 0 -0.0452259)
(-0.000231915 0 -0.0388075)
(-0.000306238 0 -0.0409051)
(-0.000201194 0 -0.0349064)
(-0.000264971 0 -0.036866)
(-0.00017337 0 -0.031268)
(-0.000227525 0 -0.0330958)
(-0.000148293 0 -0.0278794)
(-0.000193714 0 -0.0295817)
(-0.000125805 0 -0.0247278)
(-0.000163342 0 -0.026311)
(-0.000105744 0 -0.0218008)
(-0.000136204 0 -0.023271)
(-8.79404e-05 0 -0.019086)
(-0.000112088 0 -0.0204493)
(-7.2226e-05 0 -0.0165716)
(-9.07768e-05 0 -0.0178338)
(-5.84471e-05 0 -0.0142462)
(-7.20588e-05 0 -0.015413)
(-4.64964e-05 0 -0.0120979)
(-5.57565e-05 0 -0.0131754)
(-3.63379e-05 0 -0.0101141)
(-4.17597e-05 0 -0.011109)
(-2.80019e-05 0 -0.00828021)
(-3.00208e-05 0 -0.00920007)
(-2.1557e-05 0 -0.00657988)
(-2.05087e-05 0 -0.00743324)
(-1.70419e-05 0 -0.00499354)
(-1.31624e-05 0 -0.00579129)
(-1.42247e-05 0 -0.00349969)
(-8.40119e-06 0 -0.00425329)
(-1.13599e-05 0 -0.00201998)
(-6.19811e-06 0 -0.00279936)
(3.46795e-06 0 -0.00129627)
(0.000960567 0 -0.181654)
(0.00113391 0 -0.179259)
(0.000885939 0 -0.186046)
(0.00105982 0 -0.183843)
(0.000786659 0 -0.189987)
(0.000958836 0 -0.188016)
(0.000660884 0 -0.193392)
(0.00082841 0 -0.191697)
(0.000507956 0 -0.196166)
(0.000667277 0 -0.194797)
(0.000328893 0 -0.198208)
(0.000475703 0 -0.197217)
(0.000126711 0 -0.199421)
(0.000256062 0 -0.198858)
(-9.35095e-05 0 -0.199716)
(1.30378e-05 0 -0.199624)
(-0.000324872 0 -0.199014)
(-0.000246518 0 -0.199433)
(-0.000558881 0 -0.19726)
(-0.000513806 0 -0.198217)
(-0.00078601 0 -0.19442)
(-0.000778524 0 -0.195929)
(-0.000996595 0 -0.190489)
(-0.00102971 0 -0.19255)
(-0.00118175 0 -0.185491)
(-0.00125673 0 -0.18809)
(-0.00133425 0 -0.179479)
(-0.00145035 0 -0.182586)
(-0.00144914 0 -0.172529)
(-0.00160356 0 -0.176105)
(-0.00152401 0 -0.164732)
(-0.0017121 0 -0.168729)
(-0.00155878 0 -0.15619)
(-0.00177454 0 -0.160556)
(-0.00155519 0 -0.147006)
(-0.00179178 0 -0.151689)
(-0.00151637 0 -0.137287)
(-0.00176647 0 -0.142232)
(-0.00144597 0 -0.127145)
(-0.00170265 0 -0.132292)
(-0.00136694 0 -0.11863)
(-0.00161452 0 -0.122928)
(-0.00127749 0 -0.110405)
(-0.00151597 0 -0.114548)
(-0.00118305 0 -0.102519)
(-0.00140924 0 -0.106491)
(-0.00108741 0 -0.0949921)
(-0.00129896 0 -0.0987852)
(-0.000993024 0 -0.0878297)
(-0.00118867 0 -0.0914411)
(-0.000901453 0 -0.0810314)
(-0.0010807 0 -0.0844611)
(-0.000813723 0 -0.074593)
(-0.000976526 0 -0.0778427)
(-0.000730494 0 -0.0685081)
(-0.000877154 0 -0.0715808)
(-0.000652177 0 -0.0627685)
(-0.000783224 0 -0.065668)
(-0.000578996 0 -0.0573643)
(-0.000695119 0 -0.0600953)
(-0.000511038 0 -0.0522845)
(-0.000613036 0 -0.0548524)
(-0.000448287 0 -0.0475173)
(-0.000537025 0 -0.0499277)
(-0.000390648 0 -0.0430506)
(-0.000467027 0 -0.0453095)
(-0.000337973 0 -0.0388717)
(-0.000402906 0 -0.0409852)
(-0.000290073 0 -0.0349681)
(-0.000344472 0 -0.0369424)
(-0.000246733 0 -0.0313269)
(-0.000291491 0 -0.0331684)
(-0.000207721 0 -0.0279353)
(-0.000243704 0 -0.0296503)
(-0.000172791 0 -0.0247806)
(-0.000200834 0 -0.0263754)
(-0.000141686 0 -0.0218504)
(-0.000162589 0 -0.0233311)
(-0.000114147 0 -0.0191323)
(-0.000128669 0 -0.0205051)
(-8.99117e-05 0 -0.0166146)
(-9.87691e-05 0 -0.0178853)
(-6.87438e-05 0 -0.0142857)
(-7.25928e-05 0 -0.0154602)
(-5.04574e-05 0 -0.0121338)
(-4.98811e-05 0 -0.0132182)
(-3.4935e-05 0 -0.010146)
(-3.04443e-05 0 -0.011147)
(-2.20994e-05 0 -0.00830752)
(-1.41459e-05 0 -0.00923304)
(-1.18588e-05 0 -0.00660213)
(-7.99769e-07 0 -0.00746082)
(-4.02694e-06 0 -0.00501117)
(9.88658e-06 0 -0.0058134)
(2.02761e-06 0 -0.00351549)
(1.79446e-05 0 -0.00427122)
(7.53202e-06 0 -0.00203829)
(2.35852e-05 0 -0.00281646)
(3.283e-05 0 -0.00131346)
(0.00123649 0 -0.181521)
(0.00139642 0 -0.179211)
(0.00113606 0 -0.18589)
(0.001301 0 -0.183776)
(0.00100394 0 -0.189808)
(0.00117245 0 -0.187928)
(0.000838148 0 -0.193188)
(0.00100787 0 -0.191587)
(0.000638168 0 -0.195938)
(0.000806106 0 -0.194664)
(0.000405598 0 -0.197959)
(0.00056781 0 -0.197062)
(0.000144455 0 -0.199155)
(0.000296109 0 -0.198684)
(-0.000138732 0 -0.199437)
(-3.16811e-06 0 -0.199435)
(-0.000435216 0 -0.198731)
(-0.000321656 0 -0.199235)
(-0.000734344 0 -0.19698)
(-0.000648737 0 -0.198017)
(-0.00102426 0 -0.194151)
(-0.00097208 0 -0.195736)
(-0.00129294 0 -0.19024)
(-0.00127859 0 -0.192371)
(-0.00152933 0 -0.185269)
(-0.00155561 0 -0.187932)
(-0.00172432 0 -0.17929)
(-0.00179202 0 -0.182456)
(-0.00187156 0 -0.172377)
(-0.00197933 0 -0.176006)
(-0.00196779 0 -0.164618)
(-0.00211221 0 -0.168665)
(-0.00201259 0 -0.156113)
(-0.00218865 0 -0.160526)
(-0.00200784 0 -0.146966)
(-0.00220945 0 -0.151692)
(-0.00195729 0 -0.13728)
(-0.00217761 0 -0.142266)
(-0.00186555 0 -0.127169)
(-0.00209762 0 -0.132353)
(-0.00176298 0 -0.118676)
(-0.00198739 0 -0.123011)
(-0.0016467 0 -0.110468)
(-0.00186467 0 -0.114648)
(-0.00152349 0 -0.102595)
(-0.00173142 0 -0.106602)
(-0.00139821 0 -0.0950765)
(-0.00159326 0 -0.098903)
(-0.00127414 0 -0.0879205)
(-0.0014547 0 -0.0915635)
(-0.00115346 0 -0.0811265)
(-0.00131871 0 -0.084586)
(-0.00103761 0 -0.0746908)
(-0.00118726 0 -0.0779685)
(-0.000927554 0 -0.0686074)
(-0.00106169 0 -0.0717062)
(-0.000823892 0 -0.062868)
(-0.000942885 0 -0.065792)
(-0.000726968 0 -0.0574631)
(-0.000831373 0 -0.060217)
(-0.000636933 0 -0.0523817)
(-0.000727443 0 -0.0549709)
(-0.000553789 0 -0.0476123)
(-0.000631189 0 -0.0500426)
(-0.000477434 0 -0.0431428)
(-0.000542559 0 -0.0454202)
(-0.000407684 0 -0.0389606)
(-0.000461401 0 -0.0410913)
(-0.000344299 0 -0.0350533)
(-0.00038748 0 -0.0370435)
(-0.000287001 0 -0.031408)
(-0.000320513 0 -0.0332642)
(-0.000235485 0 -0.0280121)
(-0.000260174 0 -0.0297407)
(-0.000189425 0 -0.0248528)
(-0.000206114 0 -0.0264601)
(-0.000148485 0 -0.0219179)
(-0.000157966 0 -0.0234101)
(-0.000112319 0 -0.0191949)
(-0.00011535 0 -0.0205783)
(-8.05852e-05 0 -0.0166723)
(-7.78822e-05 0 -0.0179527)
(-5.29679e-05 0 -0.0143384)
(-4.51906e-05 0 -0.0155217)
(-2.92028e-05 0 -0.0121812)
(-1.69462e-05 0 -0.0132736)
(-9.0761e-06 0 -0.0101878)
(7.12064e-06 0 -0.0111963)
(7.63196e-06 0 -0.00834361)
(2.72505e-05 0 -0.00927592)
(2.12372e-05 0 -0.00663249)
(4.37814e-05 0 -0.00749744)
(3.21858e-05 0 -0.00503652)
(5.72411e-05 0 -0.00584431)
(4.10356e-05 0 -0.00353743)
(6.79078e-05 0 -0.00429742)
(4.8177e-05 0 -0.0020557)
(7.6084e-05 0 -0.00283864)
(8.43084e-05 0 -0.00132727)
(0.0014641 0 -0.18144)
(0.00161083 0 -0.179152)
(0.00134044 0 -0.185786)
(0.00149619 0 -0.183694)
(0.00117929 0 -0.189679)
(0.00134326 0 -0.18782)
(0.000978692 0 -0.193034)
(0.00114898 0 -0.191453)
(0.000738406 0 -0.195759)
(0.000912465 0 -0.194504)
(0.000460594 0 -0.197757)
(0.000634773 0 -0.196877)
(0.00015017 0 -0.198934)
(0.000319742 0 -0.198477)
(-0.000185135 0 -0.199203)
(-2.58309e-05 0 -0.199212)
(-0.000535088 0 -0.198491)
(-0.000392352 0 -0.199002)
(-0.00088735 0 -0.196743)
(-0.000767781 0 -0.197783)
(-0.00122827 0 -0.193926)
(-0.00113823 0 -0.195508)
(-0.00154401 0 -0.190035)
(-0.00148899 0 -0.192161)
(-0.00182183 0 -0.185092)
(-0.00180585 0 -0.187747)
(-0.00205113 0 -0.179147)
(-0.00207626 0 -0.182304)
(-0.00222442 0 -0.172271)
(-0.00229053 0 -0.175891)
(-0.00233765 0 -0.164551)
(-0.00244243 0 -0.168589)
(-0.00239 0 -0.156085)
(-0.00252937 0 -0.160491)
(-0.00238342 0 -0.146974)
(-0.00255198 0 -0.151696)
(-0.00232207 0 -0.137322)
(-0.00251349 0 -0.142306)
(-0.00221136 0 -0.127241)
(-0.00241869 0 -0.132426)
(-0.00208776 0 -0.11877)
(-0.00228853 0 -0.123112)
(-0.00194763 0 -0.110578)
(-0.00214418 0 -0.114768)
(-0.0017988 0 -0.102716)
(-0.00198722 0 -0.106735)
(-0.00164706 0 -0.0952055)
(-0.00182413 0 -0.0990458)
(-0.0014964 0 -0.0880543)
(-0.0016602 0 -0.0917123)
(-0.00134956 0 -0.0812629)
(-0.00149901 0 -0.0847382)
(-0.00120838 0 -0.0748281)
(-0.00134296 0 -0.078122)
(-0.00107411 0 -0.0687442)
(-0.00119374 0 -0.0718594)
(-0.000947547 0 -0.0630031)
(-0.00105243 0 -0.0659435)
(-0.000829148 0 -0.0575954)
(-0.000919732 0 -0.0603656)
(-0.000719139 0 -0.0525106)
(-0.000796027 0 -0.0551158)
(-0.000617551 0 -0.047737)
(-0.000681453 0 -0.0501829)
(-0.00052428 0 -0.0432627)
(-0.000575974 0 -0.0455553)
(-0.000439116 0 -0.0390753)
(-0.000479424 0 -0.0412207)
(-0.000361779 0 -0.0351624)
(-0.000391538 0 -0.0371668)
(-0.000291936 0 -0.0315112)
(-0.000311985 0 -0.033381)
(-0.000229215 0 -0.0281091)
(-0.000240381 0 -0.0298506)
(-0.000173224 0 -0.0249435)
(-0.000176313 0 -0.0265631)
(-0.00012355 0 -0.0220021)
(-0.000119344 0 -0.0235059)
(-7.97758e-05 0 -0.0192727)
(-6.90219e-05 0 -0.0206668)
(-4.14871e-05 0 -0.0167435)
(-2.48931e-05 0 -0.0180339)
(-8.29897e-06 0 -0.0144028)
(1.34838e-05 0 -0.0155955)
(2.0126e-05 0 -0.0122388)
(4.65009e-05 0 -0.01334)
(4.40868e-05 0 -0.0102384)
(7.45021e-05 0 -0.0112549)
(6.39304e-05 0 -0.00838726)
(9.7833e-05 0 -0.00932684)
(8.01525e-05 0 -0.00666983)
(0.000116959 0 -0.00754109)
(9.33643e-05 0 -0.00506836)
(0.000132547 0 -0.00588159)
(0.000104014 0 -0.0035639)
(0.000145007 0 -0.00432895)
(0.000111992 0 -0.00207415)
(0.000154653 0 -0.00286342)
(0.000162319 0 -0.00134068)
(0.00164593 0 -0.181379)
(0.00177994 0 -0.179082)
(0.00150176 0 -0.1857)
(0.00164834 0 -0.183598)
(0.00131545 0 -0.189566)
(0.00147433 0 -0.187696)
(0.00108517 0 -0.192893)
(0.00125477 0 -0.1913)
(0.000811043 0 -0.195592)
(0.00098913 0 -0.194321)
(0.000495774 0 -0.197566)
(0.000678942 0 -0.196667)
(0.00014507 0 -0.198723)
(0.000328667 0 -0.198243)
(-0.000232351 0 -0.198979)
(-5.40808e-05 0 -0.19896)
(-0.00062509 0 -0.198261)
(-0.000458728 0 -0.19874)
(-0.00101952 0 -0.196516)
(-0.000872142 0 -0.19752)
(-0.00140064 0 -0.193712)
(-0.00127927 0 -0.195254)
(-0.00175327 0 -0.189843)
(-0.00166423 0 -0.191925)
(-0.00206338 0 -0.18493)
(-0.00201163 0 -0.18754)
(-0.00231924 0 -0.17902)
(-0.00230788 0 -0.182133)
(-0.00251243 0 -0.172184)
(-0.00254233 0 -0.175762)
(-0.00263818 0 -0.164506)
(-0.002708 0 -0.168505)
(-0.00269532 0 -0.156081)
(-0.00280181 0 -0.160453)
(-0.00268573 0 -0.14701)
(-0.0028241 0 -0.151703)
(-0.00261382 0 -0.137394)
(-0.00277825 0 -0.142354)
(-0.00248551 0 -0.127345)
(-0.00266919 0 -0.132512)
(-0.00234293 0 -0.118897)
(-0.00252056 0 -0.123228)
(-0.00218134 0 -0.110721)
(-0.00235653 0 -0.114906)
(-0.00200949 0 -0.102871)
(-0.0021781 0 -0.106889)
(-0.00183394 0 -0.0953685)
(-0.00199244 0 -0.0992111)
(-0.00165932 0 -0.0882218)
(-0.00180555 0 -0.0918848)
(-0.00148887 0 -0.0814324)
(-0.0016215 0 -0.0849148)
(-0.0013248 0 -0.0749977)
(-0.00144313 0 -0.0783004)
(-0.00116861 0 -0.0689122)
(-0.00127241 0 -0.0720375)
(-0.0010213 0 -0.0631683)
(-0.00111066 0 -0.0661197)
(-0.000883454 0 -0.0577567)
(-0.000958711 0 -0.0605386)
(-0.000755357 0 -0.052667)
(-0.000817036 0 -0.0552844)
(-0.000637079 0 -0.0478878)
(-0.000685827 0 -0.0503462)
(-0.000528518 0 -0.0434073)
(-0.000565063 0 -0.0457125)
(-0.000429444 0 -0.0392133)
(-0.000454569 0 -0.0413712)
(-0.000339541 0 -0.0352932)
(-0.000354052 0 -0.03731)
(-0.000258425 0 -0.0316346)
(-0.000263137 0 -0.0335165)
(-0.000185666 0 -0.0282249)
(-0.000181387 0 -0.0299781)
(-0.000120807 0 -0.0250514)
(-0.000108327 0 -0.0266823)
(-6.33674e-05 0 -0.022102)
(-4.34553e-05 0 -0.0236167)
(-1.28603e-05 0 -0.0193645)
(1.37471e-05 0 -0.020769)
(3.11952e-05 0 -0.0168271)
(6.38017e-05 0 -0.0181273)
(6.92481e-05 0 -0.0144783)
(0.000107214 0 -0.0156802)
(0.000101702 0 -0.0123058)
(0.000144444 0 -0.0134157)
(0.000128945 0 -0.010297)
(0.00017591 0 -0.0113215)
(0.000151436 0 -0.00843778)
(0.000202051 0 -0.00938455)
(0.000169779 0 -0.00671305)
(0.000223426 0 -0.00759046)
(0.000184633 0 -0.00510498)
(0.000240742 0 -0.00592353)
(0.000196366 0 -0.0035934)
(0.000254431 0 -0.0043637)
(0.000204758 0 -0.00209355)
(0.00026487 0 -0.0028895)
(0.000272124 0 -0.00135409)
(0.00178521 0 -0.1813)
(0.00190704 0 -0.179003)
(0.00162337 0 -0.185593)
(0.00176089 0 -0.18349)
(0.00141575 0 -0.189429)
(0.00156909 0 -0.187558)
(0.00116074 0 -0.192727)
(0.00132856 0 -0.19113)
(0.00085885 0 -0.195396)
(0.00103915 0 -0.19412)
(0.000513321 0 -0.197344)
(0.000702865 0 -0.196437)
(0.000130539 0 -0.19848)
(0.000324719 0 -0.197988)
(-0.000279981 0 -0.198722)
(-8.69891e-05 0 -0.198687)
(-0.00070594 0 -0.197999)
(-0.000520916 0 -0.198456)
(-0.00113274 0 -0.196258)
(-0.000963108 0 -0.197235)
(-0.0015444 0 -0.193468)
(-0.00139766 0 -0.19498)
(-0.00192477 0 -0.189623)
(-0.00180785 0 -0.191672)
(-0.00225886 0 -0.184743)
(-0.00217746 0 -0.187318)
(-0.00253411 0 -0.178874)
(-0.00249211 0 -0.181949)
(-0.00274132 0 -0.172083)
(-0.00274043 0 -0.175624)
(-0.00287517 0 -0.164452)
(-0.00291484 0 -0.168416)
(-0.00293411 0 -0.156073)
(-0.00301179 0 -0.160414)
(-0.00291987 0 -0.147046)
(-0.00303136 0 -0.151712)
(-0.00283697 0 -0.137471)
(-0.00297695 0 -0.14241)
(-0.00269168 0 -0.12746)
(-0.00285352 0 -0.132609)
(-0.00253151 0 -0.119037)
(-0.00268722 0 -0.123359)
(-0.00235024 0 -0.110881)
(-0.00250483 0 -0.115061)
(-0.00215738 0 -0.103045)
(-0.00230654 0 -0.107062)
(-0.00196012 0 -0.0955514)
(-0.00210009 0 -0.0993969)
(-0.00176367 0 -0.0884105)
(-0.00189209 0 -0.092079)
(-0.00157168 0 -0.081624)
(-0.00168705 0 -0.0851139)
(-0.00138672 0 -0.0751898)
(-0.00148818 0 -0.0785016)
(-0.00121054 0 -0.0691029)
(-0.00129773 0 -0.0722385)
(-0.00104431 0 -0.063356)
(-0.00111722 0 -0.0663187)
(-0.000888721 0 -0.0579401)
(-0.000947607 0 -0.0607339)
(-0.00074414 0 -0.052845)
(-0.00078946 0 -0.0554747)
(-0.000610665 0 -0.0480595)
(-0.000643015 0 -0.0505305)
(-0.000488196 0 -0.043572)
(-0.000508268 0 -0.0458898)
(-0.000376489 0 -0.0393703)
(-0.000385031 0 -0.0415408)
(-0.000275189 0 -0.0354421)
(-0.000272986 0 -0.0374713)
(-0.000183866 0 -0.031775)
(-0.000171714 0 -0.033669)
(-0.000102036 0 -0.0283564)
(-8.07269e-05 0 -0.0301215)
(-2.91773e-05 0 -0.0251739)
(5.08771e-07 0 -0.0268162)
(3.52548e-05 0 -0.0222152)
(7.25583e-05 0 -0.0237409)
(9.18137e-05 0 -0.0194684)
(0.000136006 0 -0.0208833)
(0.000141044 0 -0.0169216)
(0.00019144 0 -0.0182317)
(0.000183463 0 -0.0145632)
(0.00023943 0 -0.0157745)
(0.000219546 0 -0.0123811)
(0.000280502 0 -0.0134999)
(0.000249762 0 -0.0103626)
(0.000315149 0 -0.0113955)
(0.00027465 0 -0.00849421)
(0.000343886 0 -0.00944845)
(0.000294855 0 -0.006761)
(0.000367322 0 -0.00764488)
(0.000311005 0 -0.0051449)
(0.000386143 0 -0.00596917)
(0.000323424 0 -0.00362453)
(0.000400761 0 -0.00440052)
(0.000331984 0 -0.00211333)
(0.000411682 0 -0.00291613)
(0.000418572 0 -0.00136738)
(0.00188544 0 -0.1812)
(0.0019954 0 -0.178916)
(0.00170883 0 -0.185463)
(0.00183719 0 -0.183372)
(0.00148368 0 -0.189267)
(0.00163089 0 -0.187408)
(0.00120865 0 -0.192532)
(0.00137352 0 -0.190946)
(0.000884658 0 -0.19517)
(0.00106538 0 -0.193904)
(0.000515441 0 -0.197091)
(0.000708886 0 -0.196191)
(0.000107964 0 -0.198205)
(0.000309561 0 -0.197716)
(-0.000327625 0 -0.198432)
(-0.000123735 0 -0.198396)
(-0.000778337 0 -0.197703)
(-0.000579069 0 -0.198156)
(-0.00122887 0 -0.195968)
(-0.00104188 0 -0.196935)
(-0.00166254 0 -0.193194)
(-0.00149568 0 -0.194691)
(-0.00206252 0 -0.189376)
(-0.00192315 0 -0.191405)
(-0.00241314 0 -0.184533)
(-0.0023075 0 -0.187084)
(-0.00270122 0 -0.178708)
(-0.0026338 0 -0.181757)
(-0.00291698 0 -0.171965)
(-0.00289014 0 -0.17548)
(-0.0030546 0 -0.164385)
(-0.00306849 0 -0.168324)
(-0.00311219 0 -0.156059)
(-0.00316487 0 -0.160375)
(-0.00309133 0 -0.147081)
(-0.0031791 0 -0.151726)
(-0.00299654 0 -0.137551)
(-0.00311456 0 -0.142473)
(-0.00283438 0 -0.127581)
(-0.00297616 0 -0.132717)
(-0.00265731 0 -0.119187)
(-0.00279242 0 -0.123503)
(-0.0024575 0 -0.111054)
(-0.00259238 0 -0.115232)
(-0.00224502 0 -0.103233)
(-0.00237524 0 -0.107253)
(-0.00202759 0 -0.0957512)
(-0.00214923 0 -0.0996018)
(-0.00181089 0 -0.0886173)
(-0.00192145 0 -0.0922932)
(-0.00159897 0 -0.0818345)
(-0.0016968 0 -0.0853337)
(-0.0013947 0 -0.0754014)
(-0.00147883 0 -0.0787238)
(-0.00120005 0 -0.0693134)
(-0.00127001 0 -0.0724606)
(-0.00101635 0 -0.0635635)
(-0.00107204 0 -0.0665385)
(-0.000844394 0 -0.058143)
(-0.000886023 0 -0.0609497)
(-0.000684621 0 -0.0530421)
(-0.000712591 0 -0.055685)
(-0.000537154 0 -0.0482498)
(-0.000552023 0 -0.050734)
(-0.000401896 0 -0.0437545)
(-0.000404327 0 -0.0460856)
(-0.000278581 0 -0.0395444)
(-0.000269305 0 -0.041728)
(-0.000166821 0 -0.0356072)
(-0.000146605 0 -0.0376493)
(-6.61381e-05 0 -0.0319306)
(-3.57689e-05 0 -0.0338372)
(2.40078e-05 0 -0.0285021)
(6.37419e-05 0 -0.0302794)
(0.000104198 0 -0.0253095)
(0.000152522 0 -0.0269636)
(0.00017504 0 -0.0223405)
(0.000231197 0 -0.0238774)
(0.000237153 0 -0.0195831)
(0.000300415 0 -0.0210089)
(0.000291146 0 -0.0170258)
(0.000360827 0 -0.0183463)
(0.0003376 0 -0.0146567)
(0.000413065 0 -0.0158779)
(0.000377061 0 -0.0124638)
(0.000457724 0 -0.013592)
(0.000410067 0 -0.0104347)
(0.000495361 0 -0.0114763)
(0.000437203 0 -0.00855594)
(0.00052655 0 -0.00951818)
(0.000459113 0 -0.00681295)
(0.000551915 0 -0.00770395)
(0.000476377 0 -0.00518727)
(0.000572101 0 -0.006018)
(0.000489327 0 -0.00365663)
(0.000587523 0 -0.00443895)
(0.000498 0 -0.00213317)
(0.000598861 0 -0.00294314)
(0.000605483 0 -0.00138059)
(0.00194972 0 -0.181091)
(0.00204783 0 -0.178822)
(0.00176123 0 -0.185321)
(0.00188008 0 -0.183246)
(0.00152222 0 -0.189091)
(0.00166249 0 -0.187248)
(0.00123164 0 -0.192323)
(0.00139227 0 -0.190753)
(0.000890812 0 -0.194929)
(0.00107013 0 -0.193677)
(0.000503926 0 -0.196821)
(0.000698875 0 -0.195933)
(7.8429e-05 0 -0.197913)
(0.000284487 0 -0.197433)
(-0.000375031 0 -0.198125)
(-0.000163728 0 -0.198094)
(-0.000842948 0 -0.197392)
(-0.000633397 0 -0.197844)
(-0.00130953 0 -0.195663)
(-0.00110954 0 -0.196624)
(-0.00175762 0 -0.192907)
(-0.00157525 0 -0.194392)
(-0.00216992 0 -0.189118)
(-0.00201285 0 -0.19113)
(-0.00253034 0 -0.184313)
(-0.00240519 0 -0.186843)
(-0.00282522 0 -0.178534)
(-0.00273696 0 -0.181561)
(-0.00304436 0 -0.171843)
(-0.0029959 0 -0.175334)
(-0.00318155 0 -0.164318)
(-0.00317357 0 -0.168233)
(-0.00323459 0 -0.156046)
(-0.00326568 0 -0.16034)
(-0.00320488 0 -0.14712)
(-0.00327181 0 -0.151746)
(-0.00309694 0 -0.13764)
(-0.00319529 0 -0.142545)
(-0.00291751 0 -0.127714)
(-0.00304093 0 -0.132836)
(-0.00272371 0 -0.119351)
(-0.0028395 0 -0.123662)
(-0.00250594 0 -0.111242)
(-0.00262201 0 -0.115418)
(-0.00227468 0 -0.103439)
(-0.00238654 0 -0.107461)
(-0.00203811 0 -0.0959695)
(-0.0021417 0 -0.0998247)
(-0.00180229 0 -0.0888434)
(-0.00189502 0 -0.0925263)
(-0.00157161 0 -0.0820649)
(-0.00165173 0 -0.0855728)
(-0.00134919 0 -0.0756332)
(-0.00141564 0 -0.0789657)
(-0.00113723 0 -0.0695439)
(-0.00118945 0 -0.0727024)
(-0.000937164 0 -0.0637908)
(-0.000975018 0 -0.0667778)
(-0.000749915 0 -0.0583654)
(-0.000773548 0 -0.0611846)
(-0.000575956 0 -0.0532581)
(-0.000585741 0 -0.0559139)
(-0.00041544 0 -0.0484583)
(-0.00041191 0 -0.0509555)
(-0.000268265 0 -0.0439545)
(-0.000252066 0 -0.0462986)
(-0.000134146 0 -0.039735)
(-0.000105997 0 -0.0419316)
(-1.26565e-05 0 -0.0357878)
(2.66817e-05 0 -0.0378428)
(9.67323e-05 0 -0.0321007)
(0.00014647 0 -0.03402)
(0.00019461 0 -0.0286613)
(0.000253956 0 -0.030451)
(0.000281619 0 -0.0254575)
(0.000349795 0 -0.0271235)
(0.000358427 0 -0.0224771)
(0.000434669 0 -0.0240256)
(0.000425715 0 -0.0197082)
(0.000509287 0 -0.0211451)
(0.000484157 0 -0.0171392)
(0.000574361 0 -0.0184703)
(0.000534397 0 -0.0147584)
(0.000630585 0 -0.0159898)
(0.000577042 0 -0.0125538)
(0.000678614 0 -0.0136916)
(0.000612688 0 -0.0105129)
(0.000719071 0 -0.0115637)
(0.000641946 0 -0.00862274)
(0.000752573 0 -0.00959343)
(0.000665444 0 -0.00686864)
(0.000779748 0 -0.00776736)
(0.000683737 0 -0.00523191)
(0.000801207 0 -0.0060698)
(0.000697206 0 -0.0036897)
(0.000817415 0 -0.00447897)
(0.000706055 0 -0.00215322)
(0.000829234 0 -0.00297073)
(0.000835709 0 -0.00139393)
(0.0019806 0 -0.180977)
(0.00206664 0 -0.178723)
(0.00178311 0 -0.185174)
(0.00189186 0 -0.183115)
(0.00153377 0 -0.18891)
(0.00166614 0 -0.187082)
(0.00123189 0 -0.192107)
(0.00138687 0 -0.190551)
(0.000879143 0 -0.194681)
(0.00105519 0 -0.193442)
(0.000480138 0 -0.196544)
(0.000674256 0 -0.195667)
(4.27183e-05 0 -0.197614)
(0.000250443 0 -0.197141)
(-0.000422079 0 -0.197813)
(-0.000206596 0 -0.197784)
(-0.000900384 0 -0.197076)
(-0.000684169 0 -0.197525)
(-0.00137609 0 -0.195353)
(-0.00116701 0 -0.196306)
(-0.00183174 0 -0.192616)
(-0.001638 0 -0.194088)
(-0.00224977 0 -0.188857)
(-0.00207924 0 -0.190852)
(-0.0026138 0 -0.184092)
(-0.00247338 0 -0.186601)
(-0.0029099 0 -0.178361)
(-0.00280491 0 -0.181363)
(-0.00312753 0 -0.171724)
(-0.00306131 0 -0.175189)
(-0.0032602 0 -0.164255)
(-0.00323388 0 -0.168144)
(-0.00330543 0 -0.15604)
(-0.00331807 0 -0.16031)
(-0.00326447 0 -0.14717)
(-0.00331322 0 -0.151773)
(-0.00314176 0 -0.137741)
(-0.00322259 0 -0.142627)
(-0.00294423 0 -0.127861)
(-0.00305094 0 -0.132968)
(-0.00273348 0 -0.119531)
(-0.00283119 0 -0.123834)
(-0.00249789 0 -0.111447)
(-0.00259604 0 -0.11562)
(-0.00224826 0 -0.103663)
(-0.00234235 0 -0.107685)
(-0.00199314 0 -0.0962066)
(-0.00207904 0 -0.100065)
(-0.00173891 0 -0.0890889)
(-0.00181395 0 -0.0927775)
(-0.00149026 0 -0.082315)
(-0.00155261 0 -0.0858306)
(-0.00125053 0 -0.0758845)
(-0.00129907 0 -0.0792263)
(-0.00102208 0 -0.069794)
(-0.00105621 0 -0.0729629)
(-0.000806488 0 -0.0640373)
(-0.000826019 0 -0.0670356)
(-0.000604738 0 -0.0586065)
(-0.000609789 0 -0.0614377)
(-0.000417356 0 -0.0534922)
(-0.000408278 0 -0.0561605)
(-0.000244506 0 -0.0486841)
(-0.000221819 0 -0.0511941)
(-8.60808e-05 0 -0.0441709)
(-5.04262e-05 0 -0.046528)
(5.82328e-05 0 -0.0399412)
(0.000106134 0 -0.0421508)
(0.000188899 0 -0.0359831)
(0.000248281 0 -0.038051)
(0.000306488 0 -0.0322845)
(0.000376557 0 -0.0342165)
(0.000411648 0 -0.0288333)
(0.000491605 0 -0.0306353)
(0.000505076 0 -0.0256172)
(0.000594127 0 -0.0272954)
(0.0005875 0 -0.0226244)
(0.000684866 0 -0.0241846)
(0.000659659 0 -0.019843)
(0.000764587 0 -0.0212911)
(0.000722284 0 -0.0172614)
(0.000834059 0 -0.0186033)
(0.000776082 0 -0.0148679)
(0.000894035 0 -0.0161096)
(0.000821722 0 -0.0126505)
(0.000945233 0 -0.0137983)
(0.000859846 0 -0.010597)
(0.000988334 0 -0.0116572)
(0.000891095 0 -0.00869431)
(0.001024 0 -0.00967384)
(0.00091609 0 -0.00692787)
(0.00105288 0 -0.00783485)
(0.00093539 0 -0.00527879)
(0.00107557 0 -0.00612448)
(0.00094944 0 -0.00372393)
(0.0010926 0 -0.00452073)
(0.000958573 0 -0.00217375)
(0.00110502 0 -0.00299921)
(0.00111147 0 -0.00140766)
(0.00198014 0 -0.180861)
(0.00205365 0 -0.178621)
(0.00177646 0 -0.185023)
(0.00187434 0 -0.182979)
(0.00152022 0 -0.188724)
(0.00164354 0 -0.186911)
(0.00121107 0 -0.191886)
(0.00135889 0 -0.190345)
(0.000851033 0 -0.194428)
(0.00102188 0 -0.193201)
(0.000445069 0 -0.196263)
(0.000636038 0 -0.195396)
(1.34794e-06 0 -0.197311)
(0.000208039 0 -0.196845)
(-0.00046879 0 -0.197497)
(-0.000252195 0 -0.197471)
(-0.000951256 0 -0.196756)
(-0.000731757 0 -0.197203)
(-0.00142975 0 -0.195042)
(-0.00121523 0 -0.195987)
(-0.00188669 0 -0.192324)
(-0.00168538 0 -0.193784)
(-0.00230438 0 -0.188596)
(-0.00212427 0 -0.190573)
(-0.00266631 0 -0.183873)
(-0.00251448 0 -0.18636)
(-0.00295838 0 -0.178191)
(-0.00284041 0 -0.181169)
(-0.00316985 0 -0.171609)
(-0.00308941 0 -0.175048)
(-0.003294 0 -0.164199)
(-0.00325259 0 -0.168062)
(-0.00332813 0 -0.156043)
(-0.0033252 0 -0.160287)
(-0.00327333 0 -0.14723)
(-0.00330639 0 -0.15181)
(-0.003134 0 -0.137854)
(-0.00319935 0 -0.142719)
(-0.00291716 0 -0.128022)
(-0.00300875 0 -0.133113)
(-0.0026889 0 -0.119726)
(-0.00276971 0 -0.12402)
(-0.00243526 0 -0.111668)
(-0.00251639 0 -0.115837)
(-0.00216731 0 -0.103905)
(-0.00224424 0 -0.107926)
(-0.00189388 0 -0.0964615)
(-0.00196246 0 -0.100323)
(-0.00162164 0 -0.0893527)
(-0.00167915 0 -0.0930465)
(-0.00135549 0 -0.0825836)
(-0.00140007 0 -0.0861063)
(-0.00109898 0 -0.0761545)
(-0.00112946 0 -0.079505)
(-0.000854611 0 -0.0700624)
(-0.000870357 0 -0.0732414)
(-0.000624058 0 -0.0643018)
(-0.000624859 0 -0.0673113)
(-0.000408373 0 -0.0588651)
(-0.000394334 0 -0.0617083)
(-0.000208114 0 -0.0537433)
(-0.000179577 0 -0.056424)
(-2.34513e-05 0 -0.0489262)
(1.90642e-05 0 -0.0514491)
(0.000145737 0 -0.0444029)
(0.000201585 0 -0.046773)
(0.000299792 0 -0.0401622)
(0.000368242 0 -0.0423849)
(0.000439218 0 -0.0361923)
(0.00051949 0 -0.0382732)
(0.000564632 0 -0.0324814)
(0.000655918 0 -0.0344262)
(0.000676733 0 -0.0290173)
(0.000778216 0 -0.0308319)
(0.000776272 0 -0.0257881)
(0.00088714 0 -0.0274785)
(0.000864032 0 -0.0227818)
(0.000983485 0 -0.0243539)
(0.000940806 0 -0.0199869)
(0.00106807 0 -0.0214465)
(0.00100739 0 -0.0173917)
(0.00114173 0 -0.0187447)
(0.00106453 0 -0.0149846)
(0.00120526 0 -0.0162369)
(0.00111298 0 -0.0127536)
(0.00125945 0 -0.0139115)
(0.00115343 0 -0.0106865)
(0.00130504 0 -0.0117564)
(0.00118654 0 -0.00877033)
(0.00134276 0 -0.00975908)
(0.00121298 0 -0.00699051)
(0.00137326 0 -0.00790623)
(0.0012333 0 -0.00532804)
(0.00139718 0 -0.00618208)
(0.00124803 0 -0.00375961)
(0.00141512 0 -0.0045645)
(0.00125757 0 -0.00219506)
(0.00142828 0 -0.00302894)
(0.0014348 0 -0.00142201)
(0.0019499 0 -0.180741)
(0.00201022 0 -0.178517)
(0.00174279 0 -0.184868)
(0.00182885 0 -0.182841)
(0.00148297 0 -0.188534)
(0.00159595 0 -0.186738)
(0.0011704 0 -0.191662)
(0.00130942 0 -0.190137)
(0.000807431 0 -0.194171)
(0.000971116 0 -0.192959)
(0.000399343 0 -0.195979)