/*--------------------------------*- C++ -*----------------------------------*\
  =========                 |
  \\      /  F ield         | OpenFOAM: The Open Source CFD Toolbox
   \\    /   O peration     | Website:  https://openfoam.org
    \\  /    A nd           | Version:  9
     \\/     M anipulation  |
\*---------------------------------------------------------------------------*/
FoamFile
{
    format      ascii;
    class       surfaceScalarField;
    location    "0.09";
    object      alphaPhi0.water;
}
// * * * * * * * * * * * * * * * * * * * * * * * * * * * * * * * * * * * * * //

dimensions      [0 3 -1 0 0 0 0];

internalField   nonuniform List<scalar> 
39700
(
0
0
0
0
0
0
0
0
0
0
0
0
0
0
0
0
0
0
0
0
0
0
0
0
0
0
0
0
0
0
0
0
0
0
0
0
0
0
0
0
0
0
0
0
0
0
0
0
0
0
0
0
0
0
0
0
0
0
0
0
0
0
0
0
0
0
0
0
0
0
0
0
0
0
0
0
0
0
0
0
0
0
0
0
0
0
0
0
0
0
0
0
0
0
0
0
0
0
0
0
0
0
0
0
0
0
0
9.88131e-324
4.94066e-324
5.92879e-323
1.97626e-323
3.31024e-322
1.03754e-322
1.79346e-321
5.48413e-322
9.3329e-321
2.75689e-321
4.7287e-320
1.36461e-320
2.35403e-319
6.70793e-320
1.16247e-318
3.29591e-319
5.72886e-318
1.61464e-318
2.80609e-317
7.67488e-318
1.32408e-316
3.26691e-317
5.52618e-316
1.03551e-316
1.70561e-315
1.65563e-316
2.70285e-315
8.1127e-317
1.35261e-315
2.18075e-317
3.73894e-316
4.58766e-318
8.00503e-317
1.0061e-318
1.4449e-317
2.22903e-319
3.05883e-318
5.04639e-320
6.60383e-319
1.16303e-320
1.44964e-319
2.71736e-321
3.22081e-320
6.42285e-322
7.23312e-321
1.5316e-322
1.6403e-321
3.45846e-323
3.7549e-322
9.88131e-324
8.89318e-323
0
1.97626e-323
0
4.94066e-324
0
0
0
0
0
0
0
0
0
0
0
0
0
0
0
0
0
0
0
0
0
0
0
0
0
0
0
0
0
0
0
0
0
0
0
0
0
0
0
0
0
0
0
0
0
0
0
0
0
0
0
0
0
0
0
0
0
0
0
0
0
0
0
0
0
0
0
0
0
0
0
0
0
0
0
0
0
0
0
0
0
0
0
0
0
0
0
0
0
0
0
0
0
0
0
0
0
0
0
0
0
0
0
0
0
0
0
0
0
0
0
0
0
0
0
0
0
0
0
0
0
0
0
0
0
0
0
0
0
0
0
0
0
0
0
0
0
0
4.94066e-324
0
1.97626e-323
9.88131e-324
1.28457e-322
4.44659e-323
7.90505e-322
2.71736e-322
4.59975e-321
1.52172e-321
2.58149e-320
8.17679e-321
1.38936e-319
4.21981e-320
7.20199e-319
2.11514e-319
3.62827e-318
1.04126e-318
1.79556e-317
5.08372e-318
8.80831e-317
2.47707e-317
4.30656e-316
1.20173e-316
2.08946e-315
5.65594e-316
9.75539e-315
2.38591e-315
4.02926e-314
7.49339e-315
1.2325e-313
1.18929e-314
1.94194e-313
5.88024e-315
9.8001e-314
1.59962e-315
2.73813e-314
3.40417e-316
5.9301e-315
7.53895e-317
1.0814e-315
1.68433e-317
2.30957e-316
3.84e-318
5.02283e-317
8.90207e-319
1.10936e-317
2.08896e-319
2.47791e-318
4.95301e-320
5.58862e-319
1.18625e-320
1.27296e-319
2.87052e-321
2.92783e-320
7.01573e-322
6.7934e-321
1.72923e-322
1.58595e-321
4.44659e-323
3.70549e-322
9.88131e-324
8.39912e-323
4.94066e-324
1.97626e-323
0
4.94066e-324
0
0
0
0
0
0
0
0
0
0
0
0
0
0
0
0
0
0
0
0
0
0
0
0
0
0
0
0
0
0
0
0
0
0
0
0
0
0
0
0
0
0
0
0
0
0
0
0
0
0
0
0
0
0
0
0
0
0
0
0
0
0
0
0
0
0
0
0
0
0
0
0
0
0
0
0
0
0
0
0
0
0
0
0
0
0
0
0
0
0
0
0
0
0
0
0
0
0
0
0
0
0
0
0
0
0
0
0
0
0
0
0
0
0
0
0
0
0
0
0
0
0
0
0
0
0
0
0
0
0
1.97626e-323
9.88131e-324
1.28457e-322
4.94066e-323
8.2509e-322
3.06321e-322
5.17781e-321
1.84781e-321
3.12299e-320
1.07212e-320
1.81263e-319
5.96634e-320
1.0107e-318
3.18272e-319
5.40764e-318
1.6335e-318
2.7869e-317
8.13991e-318
1.39573e-316
3.98189e-317
6.864e-316
1.93028e-316
3.34382e-315
9.32908e-316
1.6219e-314
4.48536e-315
7.79853e-314
2.09155e-314
3.60552e-313
8.74056e-314
1.47425e-312
2.71789e-313
4.46548e-312
4.28236e-313
6.9885e-312
2.13791e-313
3.55988e-312
5.8856e-314
1.00599e-312
1.26656e-314
2.2031e-313
2.83166e-315
4.05666e-314
6.37926e-316
8.73834e-315
1.46494e-316
1.91459e-315
3.41777e-317
4.25625e-316
8.06635e-318
9.56243e-317
1.92278e-318
2.16829e-317
4.62935e-319
4.96397e-318
1.12548e-319
1.14751e-318
2.75837e-320
2.67532e-319
6.79834e-321
6.27562e-320
1.67982e-321
1.47775e-320
4.15015e-322
3.4881e-321
1.03754e-322
8.2509e-322
2.47033e-323
1.97626e-322
4.94066e-324
4.44659e-323
0
9.88131e-324
0
4.94066e-324
0
0
0
0
0
0
0
0
0
0
0
0
0
0
0
0
0
0
0
0
0
0
0
0
0
0
0
0
0
0
0
0
0
0
0
0
0
0
0
0
0
0
0
0
0
0
0
0
0
0
0
0
0
0
0
0
0
0
0
0
0
0
0
0
0
0
0
0
0
0
0
0
0
0
0
0
0
0
0
0
0
0
0
0
0
0
0
0
0
0
0
0
0
0
0
0
0
0
0
0
0
0
0
0
0
0
0
0
0
0
0
0
0
0
0
0
0
0
0
0
9.88131e-324
4.94066e-324
6.91692e-323
2.96439e-323
5.03947e-322
2.02567e-322
3.41893e-321
1.31421e-321
2.22132e-320
8.19655e-321
1.38343e-319
4.90805e-320
8.28662e-319
2.82694e-319
4.77868e-318
1.56327e-318
2.64772e-317
8.28897e-318
1.40796e-316
4.22889e-317
7.21224e-316
2.09443e-316
3.58978e-315
1.0179e-315
1.75396e-314
4.89934e-315
8.48443e-314
2.34928e-314
4.08344e-313
1.11994e-313
1.9467e-312
5.17577e-313
8.9172e-312
2.14241e-312
3.60997e-311
6.59335e-312
1.0822e-310
1.03117e-311
1.68139e-310
5.20146e-312
8.64949e-311
1.44938e-312
2.47334e-311
3.15329e-313
5.47651e-312
7.11492e-314
1.01789e-312
1.61599e-314
2.21087e-313
3.73808e-315
4.88004e-314
8.77876e-316
1.09213e-314
2.08451e-316
2.46873e-315
4.99729e-317
5.62998e-316
1.20975e-317
1.29594e-316
2.95673e-318
3.01164e-317
7.28465e-319
7.05778e-318
1.80457e-319
1.6641e-318
4.48463e-320
3.93869e-319
1.11708e-320
9.3492e-320
2.79147e-321
2.22774e-320
7.01573e-322
5.34085e-321
1.77864e-322
1.29445e-321
4.44659e-323
3.16202e-322
9.88131e-324
7.90505e-323
4.94066e-324
1.97626e-323
0
4.94066e-324
0
0
0
0
0
0
0
0
0
0
0
0
0
0
0
0
0
0
0
0
0
0
0
0
0
0
0
0
0
0
0
0
0
0
0
0
0
0
0
0
0
0
0
0
0
0
0
0
0
0
0
0
0
0
0
0
0
0
0
0
0
0
0
0
0
0
0
0
0
0
0
0
0
0
0
0
0
0
0
0
0
0
0
0
0
0
0
0
0
0
0
0
0
0
0
0
0
0
0
0
0
0
0
0
0
0
0
0
0
0
0
0
4.94066e-324
0
2.96439e-323
9.88131e-324
2.07508e-322
8.89318e-323
1.49702e-321
6.12641e-322
1.04297e-320
4.12545e-321
6.99943e-320
2.66598e-320
4.50618e-319
1.64934e-319
2.78447e-318
9.80725e-319
1.65606e-317
5.61137e-318
9.48581e-317
3.08339e-317
5.22176e-316
1.62482e-316
2.75924e-315
8.23866e-316
1.40457e-314
4.05469e-315
6.94657e-314
1.95755e-314
3.37155e-313
9.35514e-314
1.61938e-312
4.45156e-313
7.73442e-312
2.10484e-312
3.65692e-311
9.64347e-312
1.66022e-310
3.95373e-311
6.65562e-310
1.20406e-310
1.97438e-309
1.86947e-310
3.04486e-309
9.53099e-311
1.58232e-309
2.68835e-311
4.57911e-310
5.9121e-312
1.02498e-310
1.34602e-312
1.92253e-311
3.08186e-313
4.20995e-312
7.18125e-314
9.36167e-313
1.69793e-314
2.10942e-313
4.05729e-315
4.79867e-314
9.78532e-316
1.10094e-314
2.38256e-316
2.54883e-315
5.8559e-317
5.95638e-316
1.45069e-317
1.40352e-316
3.61319e-318
3.32712e-317
9.02712e-319
7.91704e-318
2.2605e-319
1.88926e-318
5.68027e-320
4.52544e-319
1.43625e-320
1.091e-319
3.67091e-321
2.65659e-320
9.48606e-322
6.56119e-321
2.51973e-322
1.65018e-321
6.91692e-323
4.24896e-322
1.97626e-323
1.13635e-322
4.94066e-324
2.96439e-323
0
4.94066e-324
0
0
0
0
0
0
0
0
0
0
0
0
0
0
0
0
0
0
0
0
0
0
0
0
0
0
0
0
0
0
0
0
0
0
0
0
0
0
0
0
0
0
0
0
0
0
0
0
0
0
0
0
0
0
0
0
0
0
0
0
0
0
0
0
0
0
0
0
0
0
0
0
0
0
0
0
0
0
4.94066e-324
0
9.88131e-324
0
4.94066e-324
0
0
0
0
0
0
0
0
0
0
0
0
0
0
0
0
0
0
0
0
0
0
0
1.4822e-323
4.94066e-324
7.90505e-323
2.96439e-323
5.38532e-322
2.12448e-322
3.69067e-321
1.48714e-321
2.55284e-320
1.02123e-320
1.74163e-319
6.79637e-320
1.15321e-318
4.34575e-319
7.34975e-318
2.66684e-318
4.50399e-317
1.5743e-317
2.65899e-316
8.9467e-317
1.51252e-315
4.88424e-316
8.27087e-315
2.55752e-315
4.34214e-314
1.28862e-314
2.19613e-313
6.3012e-314
1.07905e-312
3.02166e-313
5.2017e-312
1.43377e-312
2.48058e-311
6.77104e-312
1.17581e-310
3.17626e-311
5.51478e-310
1.44305e-310
2.4821e-309
5.86107e-310
9.85553e-309
1.76641e-309
2.89323e-308
2.7232e-309
4.42927e-308
1.40327e-309
2.3254e-308
4.00664e-310
6.81058e-309
8.9055e-311
1.54088e-309
2.0456e-311
2.91624e-310
4.72129e-312
6.43779e-311
1.10831e-312
1.44227e-311
2.63868e-313
3.27246e-312
6.34679e-314
7.4935e-313
1.54035e-314
1.73001e-313
3.77329e-315
4.02944e-314
9.32878e-316
9.47175e-315
2.32436e-316
2.24466e-315
5.82201e-317
5.35111e-316
1.4627e-317
1.28043e-316
3.68302e-318
3.0724e-317
9.30518e-319
7.39971e-318
2.36569e-319
1.79347e-318
6.07503e-320
4.39022e-319
1.582e-320
1.08961e-319
4.19462e-321
2.75145e-320
1.13635e-321
7.08984e-321
3.16202e-322
1.86757e-321
8.89318e-323
5.03947e-322
2.47033e-323
1.38338e-322
9.88131e-324
3.95253e-323
0
9.88131e-324
0
0
0
0
0
0
0
0
0
0
0
0
0
0
0
0
0
0
0
0
0
0
0
0
0
0
0
0
0
0
0
0
0
0
0
0
0
0
0
0
0
0
0
0
0
0
0
0
0
0
0
0
0
0
0
0
0
0
0
0
4.94066e-324
0
0
0
0
0
0
0
0
0
4.94066e-324
0
1.97626e-323
4.94066e-324
7.41098e-323
9.88131e-324
1.43279e-322
4.94066e-324
8.89318e-323
0
2.47033e-323
0
4.94066e-324
0
0
0
0
0
0
0
0
0
0
0
0
0
0
0
4.94066e-324
0
3.95253e-323
1.4822e-323
2.32211e-322
7.90505e-323
1.36362e-321
4.89125e-322
8.49793e-321
3.1966e-321
5.52168e-320
2.14177e-320
3.67743e-319
1.43398e-319
2.44757e-318
9.38824e-319
1.59427e-317
5.93506e-318
1.0044e-316
3.61015e-317
6.09996e-316
2.11509e-316
3.57343e-315
1.19366e-315
2.01823e-314
6.47329e-315
1.09612e-313
3.36767e-314
5.71641e-313
1.6859e-313
2.87218e-312
8.1897e-313
1.40179e-311
3.90046e-312
6.71088e-311
1.83753e-311
3.17725e-310
8.6131e-311
1.49473e-309
4.0092e-310
6.95547e-309
1.80667e-309
3.10428e-308
7.27109e-309
1.22111e-307
2.16905e-308
3.54801e-307
3.32098e-308
5.39297e-307
1.72963e-308
2.86032e-307
4.99884e-309
8.47791e-308
1.12287e-309
1.93856e-308
2.60203e-310
3.70156e-309
6.0538e-311
8.23736e-310
1.43178e-311
1.8593e-310
3.43307e-312
4.24871e-311
8.31367e-313
9.79494e-312
2.03091e-313
2.27607e-312
5.00648e-314
5.33467e-313
1.24539e-314
1.26166e-313
3.12165e-315
3.00782e-314
7.86515e-316
7.21253e-315
1.98748e-316
1.73582e-315
5.03307e-317
4.18892e-316
1.27879e-317
1.01456e-316
3.26906e-318
2.47259e-317
8.44007e-319
6.08523e-318
2.20946e-319
1.51816e-318
5.8858e-320
3.85297e-319
1.59978e-320
9.97568e-320
4.44659e-321
2.63979e-320
1.26481e-321
7.14913e-321
3.70549e-322
1.9812e-321
1.08694e-322
5.63235e-322
3.45846e-323
1.63042e-322
9.88131e-324
4.94066e-323
4.94066e-324
1.4822e-323
0
4.94066e-324
0
0
0
0
0
0
0
0
0
0
0
0
0
0
0
0
0
0
0
0
0
0
0
0
0
0
0
0
0
0
0
0
0
0
0
0
0
0
0
0
0
0
0
0
0
0
0
0
0
0
0
0
9.88131e-324
0
1.97626e-323
0
9.88131e-324
0
0
0
0
0
9.88131e-324
4.94066e-324
4.44659e-323
9.88131e-324
1.82804e-322
3.95253e-323
6.96633e-322
7.90505e-323
1.36856e-321
4.94066e-323
8.20149e-322
1.4822e-323
2.51973e-322
4.94066e-324
5.92879e-323
0
9.88131e-324
0
0
0
0
0
0
0
0
0
4.94066e-324
0
1.97626e-323
4.94066e-324
1.23516e-322
3.95253e-323
6.81811e-322
2.12448e-322
3.70055e-321
1.17588e-321
2.04988e-320
6.84775e-321
1.19025e-319
4.20895e-320
7.27907e-319
2.69216e-319
4.62806e-318
1.74656e-318
2.98428e-317
1.12042e-317
1.90435e-316
6.98832e-317
1.18349e-315
4.20951e-316
7.11651e-315
2.44662e-315
4.13499e-314
1.37087e-314
2.31823e-313
7.38395e-314
1.25029e-312
3.81611e-313
6.47631e-312
1.89786e-312
3.23211e-311
9.15777e-312
1.56671e-310
4.33141e-311
7.4479e-310
2.02595e-310
3.50069e-309
9.42622e-310
1.6346e-308
4.35458e-309
7.54776e-308
1.94678e-308
3.34107e-307
7.76518e-308
1.30225e-306
2.29336e-307
3.74576e-306
3.48814e-307
5.65433e-306
1.83603e-307
3.02935e-306
5.37113e-308
9.08644e-307
1.21924e-308
2.09973e-307
2.85016e-309
4.04476e-308
6.68433e-310
9.07344e-309
1.59288e-310
2.0635e-309
3.84704e-311
4.74937e-310
9.38122e-312
1.10252e-310
2.30719e-312
2.57914e-311
5.72485e-313
6.0844e-312
1.43318e-313
1.4481e-312
3.6148e-314
3.47371e-313
9.16334e-315
8.38034e-314
2.32945e-315
2.02895e-314
5.93402e-316
4.92521e-315
1.51648e-316
1.19983e-315
3.89879e-317
2.94074e-316
1.01217e-317
7.27743e-317
2.66385e-318
1.8253e-317
7.13248e-319
4.65621e-318
1.9484e-319
1.21141e-318
5.44114e-320
3.22091e-319
1.55532e-320
8.76275e-320
4.55034e-321
2.44068e-320
1.36362e-321
6.96138e-321
4.19956e-322
2.03061e-321
1.33398e-322
6.07701e-322
4.44659e-323
1.87745e-322
1.4822e-323
5.92879e-323
4.94066e-324
1.97626e-323
0
4.94066e-324
0
0
0
0
0
0
0
0
0
0
0
0
0
0
0
0
0
0
0
0
0
0
0
0
0
0
0
0
0
0
0
0
0
0
0
0
0
0
0
0
0
0
0
0
4.94066e-324
0
1.4822e-323
4.94066e-324
5.43472e-323
9.88131e-324
1.03754e-322
4.94066e-324
4.94066e-323
0
1.4822e-323
0
1.97626e-323
4.94066e-324
7.90505e-323
2.47033e-323
3.7549e-322
1.03754e-322
1.54148e-321
3.26083e-322
5.80527e-321
6.47226e-322
1.12548e-320
3.90312e-322
6.75388e-321
1.18576e-322
2.10966e-321
2.96439e-323
4.94066e-322
4.94066e-324
9.88131e-323
0
1.97626e-323
0
0
0
0
0
9.88131e-324
4.94066e-324
6.91692e-323
1.97626e-323
3.7549e-322
1.13635e-322
1.99603e-321
5.87938e-322
1.03853e-320
3.05333e-321
5.36308e-320
1.60374e-320
2.80634e-319
8.73953e-320
1.5221e-318
5.01981e-319
8.69439e-318
3.03362e-318
5.22208e-317
1.89006e-317
3.23327e-316
1.18125e-316
2.00975e-315
7.2474e-316
1.22836e-314
4.31724e-315
7.3031e-314
2.48781e-314
4.20633e-313
1.3836e-313
2.34024e-312
7.40082e-313
1.25316e-311
3.79914e-312
6.44629e-311
1.87682e-311
3.19508e-310
8.99492e-311
1.53804e-309
4.2248e-310
7.25983e-309
1.96194e-309
3.38754e-308
9.0618e-309
1.57006e-307
4.15526e-308
7.19484e-307
1.84332e-307
3.15935e-306
7.28837e-307
1.22041e-305
2.1316e-306
3.47583e-305
3.22168e-306
5.21213e-305
1.71369e-306
2.82042e-305
5.07443e-307
8.56073e-306
1.16403e-307
1.99913e-306
2.74495e-308
3.88491e-307
6.48928e-309
8.7848e-308
1.5582e-309
2.01303e-308
3.79099e-310
4.66709e-309
9.31055e-311
1.0911e-309
2.3057e-311
2.56999e-310
5.75988e-312
6.10346e-311
1.45147e-312
1.46215e-311
3.68453e-313
3.52986e-312
9.3992e-314
8.56932e-313
2.40427e-314
2.08753e-313
6.16205e-315
5.09827e-314
1.58421e-315
1.24942e-314
4.09683e-316
3.08021e-315
1.06964e-316
7.66593e-316
2.83058e-317
1.93329e-316
7.61885e-318
4.95763e-317
2.0917e-318
1.2963e-317
5.86901e-319
3.46303e-318
1.68511e-319
9.46378e-319
4.9535e-320
2.64725e-319
1.49109e-320
7.58094e-320
4.59481e-321
2.22181e-320
1.44761e-321
6.66495e-321
4.69362e-322
2.04543e-321
1.5316e-322
6.42285e-322
4.94066e-323
2.02567e-322
1.97626e-323
6.42285e-323
4.94066e-324
1.97626e-323
4.94066e-324
0
0
0
0
0
0
0
0
0
0
0
0
0
0
0
0
0
0
0
0
0
0
0
0
0
0
0
0
0
0
0
0
0
0
0
0
0
0
0
0
0
1.4822e-323
4.94066e-324
6.91692e-323
2.47033e-323
2.42092e-322
4.44659e-323
4.5454e-322
1.97626e-323
2.32211e-322
4.94066e-324
8.89318e-323
9.88131e-324
1.43279e-322
4.44659e-323
6.27463e-322
1.92686e-322
2.8557e-321
7.70742e-322
1.15809e-320
2.41598e-321
4.30973e-320
4.74303e-321
8.24497e-320
2.85076e-321
4.96141e-320
8.79437e-322
1.55878e-320
2.02567e-322
3.66103e-321
4.44659e-323
7.65802e-322
9.88131e-324
1.5316e-322
0
2.96439e-323
0
3.45846e-323
9.88131e-324
1.77864e-322
5.43472e-323
9.98013e-322
3.0138e-322
5.39026e-321
1.58595e-321
2.81469e-320
8.08785e-321
1.42953e-319
4.05134e-320
7.13317e-319
2.02705e-319
3.55397e-318
1.0362e-318
1.80789e-317
5.53929e-318
9.60989e-317
3.13184e-317
5.39909e-316
1.85406e-316
3.17579e-315
1.12027e-315
1.9081e-314
6.73209e-315
1.14205e-313
3.958e-314
6.7e-313
2.25945e-313
3.82202e-312
1.24683e-312
2.10944e-311
6.62178e-312
1.12128e-310
3.37598e-311
5.72727e-310
1.65648e-310
2.81892e-309
7.8846e-310
1.34743e-308
3.67739e-309
6.31471e-308
1.69553e-308
2.92512e-307
7.77479e-308
1.34578e-306
3.53921e-307
6.12108e-306
1.55815e-306
2.66675e-305
6.10827e-306
1.02109e-304
1.76954e-305
2.88021e-304
2.65849e-305
4.29162e-304
1.42891e-305
2.34528e-304
4.2827e-306
7.20321e-305
9.92774e-307
1.69985e-305
2.36163e-307
3.33239e-306
5.62808e-308
7.59593e-307
1.3618e-308
1.75389e-307
3.3379e-309
4.09638e-308
8.25743e-310
9.64575e-309
2.05944e-310
2.28796e-309
5.18043e-311
5.47103e-310
1.31432e-311
1.31946e-310
3.35856e-312
3.20639e-311
8.62352e-313
7.83443e-312
2.21999e-313
1.92066e-312
5.72562e-314
4.72014e-313
1.48111e-314
1.16387e-313
3.85332e-315
2.88658e-314
1.01195e-315
7.22596e-315
2.69304e-316
1.83259e-315
7.2878e-317
4.72475e-316
2.01112e-317
1.24176e-316
5.67057e-318
3.33354e-317
1.63567e-318
9.1521e-318
4.82954e-319
2.57132e-318
1.45991e-319
7.39404e-319
4.51724e-320
2.17596e-319
1.43032e-320
6.55131e-320
4.6294e-321
2.01727e-320
1.5316e-321
6.3438e-321
5.18769e-322
2.04049e-321
1.77864e-322
6.66989e-322
6.42285e-323
2.17389e-322
6.91692e-323
0
0
0
0
0
0
0
0
0
0
0
0
0
0
0
0
0
0
0
0
0
0
0
0
0
0
0
0
0
0
0
0
0
0
0
0
0
0
0
1.4822e-323
4.94066e-324
6.42285e-323
2.96439e-323
2.96439e-322
1.03754e-322
9.88131e-322
1.82804e-322
1.83298e-321
9.38725e-323
1.00295e-321
3.95253e-323
4.84184e-322
7.41098e-323
9.98013e-322
3.11261e-322
4.35272e-321
1.33892e-321
1.96292e-320
5.21239e-321
7.87788e-320
1.61856e-320
2.89621e-319
3.13682e-320
5.46639e-319
1.88931e-320
3.29739e-319
5.8695e-321
1.04174e-319
1.36856e-321
2.45847e-320
2.86558e-322
5.17781e-321
5.92879e-323
1.05236e-321
1.4822e-323
2.66795e-322
2.47033e-323
4.39718e-322
1.28457e-322
2.34681e-321
7.31217e-322
1.3068e-320
3.92782e-321
7.0014e-320
2.03259e-320
3.61236e-319
1.01768e-319
1.80243e-318
4.96383e-319
8.75852e-318
2.38684e-318
4.19343e-317
1.15335e-317
2.01618e-316
5.74552e-317
9.98537e-316
3.01748e-316
5.21025e-315
1.67821e-315
2.87862e-314
9.70758e-315
1.65543e-313
5.67974e-314
9.64478e-313
3.28626e-313
5.56717e-312
1.8562e-312
3.14157e-311
1.01585e-311
1.71918e-310
5.35557e-311
9.06936e-310
2.71142e-310
4.59911e-309
1.32128e-309
2.24762e-308
6.24563e-309
1.06672e-307
2.8925e-308
4.96318e-307
1.32414e-307
2.28234e-306
6.02839e-307
1.04239e-305
2.72463e-306
4.70628e-305
1.19064e-305
2.03455e-304
4.62858e-305
7.72327e-304
1.32854e-304
2.15809e-303
1.98469e-304
3.19623e-303
1.07779e-304
1.76373e-303
3.26957e-305
5.48119e-304
7.65923e-306
1.3071e-304
1.83805e-306
2.58505e-305
4.41578e-307
5.93988e-306
1.07675e-307
1.38205e-306
2.65917e-308
3.25203e-307
6.6271e-309
7.7136e-308
1.66483e-309
1.84278e-308
4.21759e-310
4.4375e-309
1.0775e-310
1.07758e-309
2.77221e-311
2.63633e-310
7.16573e-312
6.48438e-311
1.85687e-312
1.60009e-311
4.82012e-313
3.95766e-312
1.2548e-313
9.82034e-313
3.28478e-314
2.45063e-313
8.67828e-315
6.1714e-314
2.32285e-315
1.57417e-314
6.32086e-316
4.08094e-315
1.7535e-316
1.07821e-315
4.96901e-317
2.90898e-316
1.44013e-317
8.02444e-317
4.27141e-318
2.26466e-317
1.29671e-318
6.54011e-318
4.02861e-319
1.93246e-318
1.28047e-319
5.84055e-319
4.16151e-320
1.80482e-319
1.3824e-320
5.69954e-320
4.68868e-321
1.83792e-320
1.62054e-321
6.04242e-321
5.63235e-322
2.00097e-321
6.12641e-322
0
0
0
0
0
0
0
0
0
0
0
0
0
0
0
0
0
0
0
0
0
0
0
0
0
0
0
0
0
0
0
0
0
0
0
0
0
9.88131e-324
4.94066e-324
5.43472e-323
2.96439e-323
2.71736e-322
1.23516e-322
1.17094e-321
4.00193e-322
3.82407e-321
7.11455e-322
7.04044e-321
3.90312e-322
4.23908e-321
2.17389e-322
2.62349e-321
4.79244e-322
6.31416e-321
1.96144e-321
2.75985e-320
8.36947e-321
1.23304e-319
3.22971e-320
4.89767e-319
9.91689e-320
1.77917e-318
1.89647e-319
3.3129e-318
1.1448e-319
2.00272e-318
3.57506e-320
6.36085e-319
8.36947e-321
1.50927e-319
1.76381e-321
3.19809e-320
3.65609e-322
6.62048e-321
1.13635e-322
2.0899e-321
2.81617e-322
5.1284e-321
1.57113e-321
2.82704e-320
8.7252e-321
1.56525e-319
4.65756e-320
8.32644e-319
2.38812e-319
4.25491e-318
1.17969e-318
2.09444e-317
5.63902e-318
9.97315e-317
2.6286e-317
4.62845e-316
1.21216e-316
2.12338e-315
5.66062e-316
9.85667e-315
2.7545e-315
4.76439e-314
1.42444e-314
2.44707e-313
7.79693e-314
1.33136e-312
4.40573e-313
7.48951e-312
2.49827e-312
4.23584e-311
1.39379e-311
2.36037e-310
7.55986e-311
1.27985e-309
3.9553e-310
6.69875e-309
1.98828e-309
3.37202e-308
9.62161e-309
1.6361e-307
4.51642e-308
7.70911e-307
2.07691e-307
3.56087e-306
9.44014e-307
1.62557e-305
4.26735e-306
7.37042e-305
1.91515e-305
3.30349e-304
8.30814e-305
1.41728e-303
3.20343e-304
5.33467e-303
9.11287e-304
1.47704e-302
1.35413e-303
2.17501e-302
7.42881e-304
1.21177e-302
2.28091e-304
3.81031e-303
5.39981e-305
9.18219e-304
1.30732e-305
1.83203e-304
3.16635e-306
4.24365e-305
7.78131e-307
9.95015e-306
1.9364e-307
2.35901e-306
4.86216e-308
5.63697e-307
1.23049e-308
1.3565e-307
3.13992e-309
3.28996e-308
8.07902e-310
8.04554e-309
2.09315e-310
1.982e-309
5.44771e-311
4.90821e-310
1.42123e-311
1.21929e-310
3.71383e-312
3.03572e-311
9.73108e-313
7.58153e-312
2.56358e-313
1.90392e-312
6.81462e-314
4.82406e-313
1.83484e-314
1.23778e-313
5.02126e-315
3.22703e-314
1.40051e-315
8.57204e-315
3.98915e-316
2.32459e-315
1.1618e-316
6.44365e-316
3.46183e-317
1.82694e-316
1.05556e-317
5.2992e-317
3.29312e-318
1.57234e-317
1.05083e-318
4.77101e-318
3.42827e-319
1.47988e-318
1.14287e-319
4.69021e-319
3.89027e-320
1.51782e-319
1.34929e-320
5.00538e-320
4.71339e-321
1.66302e-320
5.10864e-321
0
0
0
0
0
0
0
0
0
0
0
0
0
0
0
0
0
0
0
0
0
0
0
0
0
0
0
0
0
0
0
0
0
0
0
4.94066e-324
4.94066e-324
3.95253e-323
2.47033e-323
2.12448e-322
1.08694e-322
1.03754e-321
4.59481e-322
4.42683e-321
1.48714e-321
1.42587e-320
2.63831e-321
2.62794e-320
1.62548e-321
1.77518e-320
1.14129e-321
1.38734e-320
2.79641e-321
3.705e-320
1.14129e-320
1.61307e-319
4.82505e-320
7.1389e-319
1.84425e-319
2.80656e-318
5.59934e-319
1.00742e-317
1.05668e-318
1.85067e-317
6.39099e-319
1.1209e-317
2.00581e-319
3.57829e-318
4.71932e-320
8.53553e-319
1.00048e-320
1.81979e-319
2.12448e-321
3.86162e-320
9.09081e-322
1.64672e-320
3.08791e-321
5.58936e-320
1.73615e-320
3.1345e-319
9.60068e-320
1.72732e-318
5.09322e-319
9.13108e-318
2.59137e-318
4.62953e-317
1.26666e-317
2.25474e-316
5.96222e-317
1.05713e-315
2.71401e-316
4.79027e-315
1.20591e-315
2.11717e-314
5.32746e-315
9.29572e-314
2.40877e-314
4.17418e-313
1.15016e-313
1.97916e-312
5.88404e-313
1.00616e-311
3.17776e-312
5.40843e-311
1.7557e-311
2.97959e-310
9.65017e-311
1.63535e-309
5.18254e-310
8.77736e-309
2.68994e-309
4.55633e-308
1.3424e-308
2.27633e-307
6.45041e-308
1.09642e-306
3.00659e-307
5.12873e-306
1.37282e-306
2.35172e-305
6.19558e-306
1.06576e-304
2.781e-305
4.79735e-304
1.23944e-304
2.13476e-303
5.33846e-304
9.09018e-303
2.04198e-303
3.39324e-302
5.75873e-303
9.31154e-302
8.51462e-303
1.36372e-301
4.71844e-303
7.67002e-302
1.46626e-303
2.44015e-302
3.50812e-304
5.94243e-303
8.56911e-305
1.19618e-303
2.09251e-305
2.79331e-304
5.18297e-306
6.60052e-305
1.2998e-306
1.57681e-305
3.28863e-307
3.79622e-306
8.38537e-308
9.20316e-307
2.15563e-308
2.24839e-307
5.58689e-309
5.53797e-308
1.45786e-309
1.37393e-308
3.82102e-310
3.42613e-309
1.00377e-310
8.56966e-310
2.64084e-311
2.14807e-310
6.96587e-312
5.40034e-311
1.84706e-312
1.36496e-311
4.94095e-313
3.48021e-312
1.33844e-313
8.98373e-313
3.6841e-314
2.35575e-313
1.03326e-314
6.29223e-314
2.95859e-315
1.71532e-314
8.65972e-316
4.77854e-315
2.59263e-316
1.36127e-315
7.94103e-317
3.96631e-316
2.48806e-317
1.18191e-316
7.97183e-318
3.60097e-317
2.61086e-318
1.12131e-317
8.73587e-319
3.56696e-318
2.98416e-319
1.15839e-318
1.03862e-319
3.83316e-319
3.64077e-320
1.2777e-319
3.94017e-320
0
0
0
0
0
0
0
0
0
0
0
0
0
0
0
0
0
0
0
0
0
0
0
0
0
0
0
0
0
0
0
0
0
4.94066e-324
4.94066e-324
2.96439e-323
1.4822e-323
1.5316e-322
8.39912e-323
7.90505e-322
4.00193e-322
3.84877e-321
1.68476e-321
1.62399e-320
5.40014e-321
5.19115e-320
9.68369e-321
9.68171e-320
6.7934e-321
7.43766e-320
5.8448e-321
7.11702e-320
1.52172e-320
2.02409e-319
6.16446e-320
8.75282e-319
2.58233e-319
3.83687e-318
9.77405e-319
1.49287e-317
2.9339e-318
5.29478e-317
5.46381e-318
9.5961e-317
3.31012e-318
5.82164e-317
1.04384e-318
1.86761e-317
2.4682e-319
4.47815e-318
5.26822e-320
9.61131e-319
1.16451e-320
2.12468e-319
7.3517e-321
1.33867e-319
3.14028e-320
5.70433e-319
1.77903e-319
3.22173e-318
9.79302e-319
1.76727e-317
5.16664e-318
9.29039e-317
2.61152e-317
4.67907e-316
1.26575e-316
2.25946e-315
5.88755e-316
1.04671e-314
2.63214e-315
4.65769e-314
1.13653e-314
2.00017e-313
4.79916e-314
8.39252e-313
2.0314e-313
3.52732e-312
8.94006e-313
1.54112e-311
4.22711e-312
7.23942e-311
2.15481e-311
3.67214e-310
1.15071e-310
1.95486e-309
6.20829e-310
1.05286e-308
3.29653e-309
5.5857e-308
1.69657e-308
2.87422e-307
8.40366e-308
1.42486e-306
4.00933e-307
6.81225e-306
1.85557e-306
3.16322e-305
8.4125e-306
1.43983e-304
3.7697e-305
6.47749e-304
1.6803e-304
2.89479e-303
7.43759e-304
1.27898e-302
3.18104e-303
5.40596e-302
1.20728e-302
2.00158e-301
3.37627e-302
5.44513e-301
4.96882e-302
7.93371e-301
2.78116e-302
4.50415e-301
8.74702e-303
1.44977e-301
2.11514e-303
3.56796e-302
5.21312e-304
7.24651e-303
1.28356e-304
1.70605e-303
3.20458e-305
4.06296e-304
8.09951e-306
9.78087e-305
2.06515e-306
2.37271e-305
5.30608e-307
5.79549e-306
1.37434e-307
1.42641e-306
3.58849e-308
3.53914e-307
9.43249e-309
8.84383e-308
2.49007e-309
2.22109e-308
6.58776e-310
5.59459e-309
1.7453e-310
1.41206e-309
4.6352e-311
3.57412e-310
1.23728e-311
9.09378e-311
3.33119e-312
2.33356e-311
9.07996e-313
6.06118e-312
2.51419e-313
1.59883e-312
7.09145e-314
4.29468e-313
2.04152e-314
1.17708e-313
6.00613e-315
3.2959e-314
1.80694e-315
9.43479e-315
5.56019e-316
2.76174e-315
1.74979e-316
8.26596e-316
5.62996e-317
2.52903e-316
1.85125e-317
7.90679e-317
6.2179e-318
2.52485e-317
2.13175e-318
8.22961e-318
7.44542e-319
2.7328e-318
2.61879e-319
9.14051e-319
2.82872e-319
0
0
0
0
0
0
0
0
0
0
0
0
0
0
0
0
0
0
0
0
0
0
0
0
0
0
0
0
0
0
0
4.94066e-324
4.94066e-324
1.97626e-323
1.4822e-323
1.13635e-322
6.42285e-323
5.68175e-322
3.06321e-322
2.89522e-321
1.44267e-321
1.39277e-320
6.0523e-321
5.84331e-320
1.93377e-320
1.86579e-319
3.54344e-320
3.55688e-319
2.83495e-320
3.11553e-319
2.87003e-320
3.50708e-319
7.74349e-320
1.03459e-318
3.1095e-319
4.43584e-318
1.2903e-318
1.92579e-317
4.83596e-318
7.41527e-317
1.43512e-317
2.59847e-316
2.63746e-317
4.64615e-316
1.60007e-317
2.82252e-316
5.06891e-318
9.09777e-317
1.20447e-318
2.19269e-317
2.59058e-319
4.74276e-318
6.14321e-320
1.12495e-318
6.07404e-320
1.11015e-318
2.99344e-319
5.45647e-318
1.69898e-318
3.08702e-317
9.3111e-318
1.6858e-316
4.88779e-317
8.81705e-316
2.45645e-316
4.41491e-315
1.18227e-315
2.11679e-314
5.44795e-315
9.71355e-314
2.40236e-314
4.26277e-313
1.01504e-313
1.79098e-312
4.13737e-313
7.25249e-312
1.65646e-312
2.88252e-311
6.74594e-312
1.16513e-310
2.926e-311
5.0195e-310
1.38893e-310
2.37026e-309
7.09406e-310
1.2065e-308
3.73704e-309
6.34285e-308
1.95789e-308
3.31923e-307
9.98406e-308
1.6918e-306
4.90742e-307
8.31988e-306
2.3244e-306
3.94782e-305
1.06811e-305
1.81958e-304
4.80796e-305
8.22134e-304
2.13925e-304
3.6716e-303
9.46949e-304
1.62909e-302
4.16322e-303
7.14691e-302
1.76833e-302
2.99887e-301
6.66007e-302
1.10149e-300
1.84748e-301
2.97133e-300
2.7072e-301
4.30836e-300
1.53039e-301
2.46871e-300
4.87141e-302
8.03904e-301
1.19071e-302
1.99959e-301
2.96158e-303
4.09812e-302
7.35313e-304
9.72817e-303
1.85058e-304
2.33505e-303
4.71424e-305
5.66479e-304
1.21141e-305
1.38476e-304
3.13669e-306
3.40815e-305
8.18685e-307
8.45164e-306
2.15386e-307
2.11265e-306
5.70391e-308
5.31823e-307
1.51689e-308
1.3454e-307
4.04242e-309
3.41335e-308
1.07868e-309
8.67669e-309
2.88503e-310
2.21161e-309
7.75416e-311
5.66565e-310
2.10162e-311
1.46352e-310
5.76522e-312
3.82562e-311
1.60615e-312
1.01529e-311
4.5567e-313
2.74309e-312
1.31908e-313
7.5598e-313
3.90119e-314
2.12794e-313
1.17955e-314
6.12188e-314
3.64695e-315
1.80053e-314
1.15291e-315
5.41355e-315
3.72558e-316
1.66351e-315
1.23012e-316
5.22244e-316
4.14801e-317
1.6743e-316
1.42749e-317
5.47806e-317
5.00378e-318
1.82575e-317
1.76626e-318
6.12855e-318
1.90369e-318
0
0
0
0
0
0
0
0
0
0
0
0
0
0
0
0
0
0
0
0
0
0
0
0
0
0
0
0
0
4.94066e-324
0
1.97626e-323
9.88131e-324
8.39912e-323
4.94066e-323
4.05134e-322
2.2727e-322
2.04543e-321
1.09189e-321
1.03408e-320
5.11852e-321
4.95795e-320
2.14721e-320
2.0776e-319
6.88233e-320
6.66302e-319
1.29677e-319
1.3073e-318
1.17365e-319
1.29493e-318
1.34544e-319
1.6508e-318
3.70243e-319
4.96939e-318
1.47216e-318
2.11049e-317
6.05044e-318
9.07336e-317
2.24531e-317
3.4572e-316
6.58713e-317
1.19689e-315
1.19465e-316
2.11131e-315
7.25575e-317
1.28402e-315
2.30871e-317
4.15771e-316
5.51284e-318
1.0072e-316
1.19745e-318
2.20042e-317
3.20214e-319
5.88548e-318
5.0116e-319
9.19343e-318
2.68032e-318
4.90341e-317
1.51968e-317
2.77106e-316
8.29248e-317
1.50662e-315
4.33267e-316
7.84233e-315
2.16625e-315
3.90626e-314
1.03635e-314
1.86149e-313
4.73931e-314
8.47616e-313
2.06772e-313
3.67977e-312
8.59441e-313
1.52062e-311
3.41005e-312
5.99286e-311
1.30565e-311
2.27734e-310
4.96364e-311
8.59082e-310
1.97141e-310
3.38803e-309
8.60518e-310
1.47075e-308
4.14959e-309
7.06592e-308
2.11867e-308
3.59928e-307
1.0919e-307
1.8522e-306
5.51122e-307
9.34122e-306
2.68717e-306
4.55543e-305
1.26343e-305
2.14502e-304
5.76411e-305
9.81271e-304
2.57615e-304
4.40078e-303
1.13814e-303
1.95099e-302
5.0034e-303
8.59478e-302
2.18505e-302
3.74419e-301
9.21807e-302
1.55979e-300
3.44591e-301
5.6843e-300
9.48409e-301
1.52085e-299
1.38421e-300
2.19518e-299
7.9025e-301
1.26941e-299
2.5459e-301
4.18191e-300
6.2913e-302
1.05147e-300
1.57949e-302
2.17504e-301
3.95524e-303
5.2067e-302
1.00353e-303
1.25974e-302
2.57681e-304
3.07997e-303
6.67394e-305
7.58733e-304
1.74167e-305
1.88179e-304
4.58135e-306
4.70236e-305
1.21464e-306
1.18441e-305
3.24133e-307
3.0041e-306
8.68549e-308
7.65674e-307
2.33203e-308
1.95699e-307
6.26893e-309
5.01119e-308
1.68889e-309
1.28653e-308
4.57147e-310
3.31902e-309
1.24752e-310
8.63206e-310
3.44483e-311
2.27123e-310
9.6576e-312
6.06556e-311
2.75637e-312
1.64859e-311
8.02475e-313
4.56932e-312
2.38621e-313
1.29314e-312
7.25214e-314
3.73942e-313
2.25325e-314
1.10522e-313
7.15662e-315
3.3386e-314
2.32299e-315
1.03051e-314
7.703e-316
3.24911e-315
2.60814e-316
1.04595e-315
9.01076e-317
3.43572e-316
3.17037e-317
1.14943e-316
1.12315e-317
3.87265e-317
1.20764e-317
0
0
0
0
0
0
0
0
0
0
0
0
0
0
0
0
0
0
0
0
0
0
0
0
0
0
0
0
0
1.4822e-323
9.88131e-324
6.42285e-323
3.45846e-323
3.0138e-322
1.67982e-322
1.43773e-321
7.90505e-322
7.20842e-321
3.82901e-321
3.63682e-320
1.79889e-320
1.74455e-319
7.55229e-320
7.32497e-319
2.43634e-319
2.36755e-318
4.73379e-319
4.79371e-318
4.77332e-319
5.28929e-318
6.00833e-319
7.40383e-318
1.66986e-318
2.25217e-317
6.57101e-318
9.46948e-317
2.67456e-317
4.031e-316
9.82663e-317
1.51973e-315
2.84978e-316
5.19753e-315
5.10035e-316
9.04509e-315
3.10038e-316
5.50547e-315
9.90693e-317
1.79056e-315
2.37736e-317
4.36015e-316
5.23786e-318
9.66317e-317
1.70117e-318
3.13914e-317
4.04728e-318
7.45357e-317
2.26085e-317
4.15201e-316
1.27864e-316
2.34039e-315
6.94755e-316
1.26696e-314
3.61373e-315
6.56479e-314
1.79818e-314
3.25401e-313
8.55684e-314
1.54225e-312
3.88815e-313
6.97681e-312
1.68205e-312
3.00283e-311
6.90446e-312
1.22523e-310
2.68454e-311
4.73077e-310
9.92991e-311
1.73632e-309
3.56427e-310
6.18263e-309
1.30209e-309
2.24211e-308
5.17985e-309
8.86768e-308
2.32412e-308
3.96277e-307
1.13876e-307
1.9365e-306
5.74777e-307
9.75644e-306
2.86705e-306