/*--------------------------------*- C++ -*----------------------------------*\
  =========                 |
  \\      /  F ield         | OpenFOAM: The Open Source CFD Toolbox
   \\    /   O peration     | Website:  https://openfoam.org
    \\  /    A nd           | Version:  9
     \\/     M anipulation  |
\*---------------------------------------------------------------------------*/
FoamFile
{
    format      ascii;
    class       volScalarField;
    location    "0.09";
    object      alpha.water;
}
// * * * * * * * * * * * * * * * * * * * * * * * * * * * * * * * * * * * * * //

dimensions      [0 0 0 0 0 0 0];

internalField   nonuniform List<scalar> 
20000
(
4.53157e-319
4.3295e-319
4.13582e-319
3.94996e-319
3.7717e-319
3.60055e-319
3.43623e-319
3.27862e-319
3.12763e-319
2.98297e-319
2.84473e-319
2.71262e-319
2.58653e-319
2.46638e-319
2.35195e-319
2.24296e-319
2.1393e-319
2.04089e-319
1.94761e-319
1.86016e-319
1.78022e-319
1.71194e-319
1.6569e-319
1.59563e-319
1.50384e-319
1.41382e-319
1.3405e-319
1.27785e-319
1.22094e-319
1.16856e-319
9.62638e-320
9.66985e-320
9.65701e-320
9.62045e-320
9.59871e-320
9.59278e-320
9.59673e-320
9.60167e-320
9.6076e-320
9.61353e-320
9.62045e-320
9.62638e-320
9.6323e-320
9.63823e-320
9.64515e-320
9.65207e-320
9.65997e-320
9.66985e-320
9.67973e-320
9.68962e-320
9.69851e-320
9.70345e-320
1.94109e-319
8.7335e-319
5.43222e-318
3.07348e-317
1.65871e-316
8.60428e-316
4.33657e-315
2.1476e-314
1.05593e-313
5.18995e-313
2.54353e-312
1.20881e-311
5.13927e-311
1.62883e-310
2.60786e-310
1.27702e-310
3.42946e-311
7.21564e-312
1.5831e-312
3.50859e-313
7.9451e-314
1.8313e-314
4.27547e-315
1.00917e-315
2.40704e-316
5.7989e-317
1.40422e-317
3.41037e-318
9.40503e-319
1.97093e-319
2.0649e-319
2.16322e-319
2.26618e-319
2.37408e-319
2.48693e-319
2.60531e-319
2.72912e-319
2.85886e-319
2.99463e-319
3.13663e-319
3.28524e-319
3.44067e-319
3.60322e-319
3.77308e-319
3.95075e-319
4.13612e-319
4.32979e-319
4.53197e-319
4.53098e-319
4.329e-319
4.13533e-319
3.94956e-319
3.7713e-319
3.60016e-319
3.43583e-319
3.27822e-319
3.12724e-319
2.98267e-319
2.84443e-319
2.71222e-319
2.58624e-319
2.46618e-319
2.35165e-319
2.24276e-319
2.13921e-319
2.04079e-319
1.94761e-319
1.86026e-319
1.78041e-319
1.71223e-319
1.6568e-319
1.59514e-319
1.50413e-319
1.41402e-319
1.3404e-319
1.27765e-319
1.22094e-319
1.16866e-319
9.62736e-320
9.66985e-320
9.658e-320
9.62045e-320
9.59871e-320
9.59278e-320
9.59673e-320
9.60167e-320
9.6076e-320
9.61452e-320
9.62045e-320
9.62638e-320
9.6323e-320
9.63823e-320
9.64515e-320
9.65207e-320
9.65997e-320
9.66985e-320
9.67973e-320
9.68962e-320
2.90955e-319
1.84373e-318
1.20347e-317
7.3555e-317
4.28467e-316
2.39799e-315
1.28633e-314
6.63874e-314
3.3273e-313
1.63811e-312
8.00085e-312
3.90128e-311
1.89389e-310
8.90656e-310
3.74771e-309
1.17702e-308
1.87337e-308
9.253e-309
2.5118e-309
5.34532e-310
1.18477e-310
2.64901e-311
6.04274e-312
1.40139e-312
3.28923e-313
7.79942e-314
1.86819e-314
4.51873e-315
1.10231e-315
2.70136e-316
6.65878e-317
1.61615e-317
3.9233e-318
1.08161e-318
2.26618e-319
2.37399e-319
2.48693e-319
2.60531e-319
2.72912e-319
2.85886e-319
2.99463e-319
3.13663e-319
3.28524e-319
3.44067e-319
3.60322e-319
3.77308e-319
3.95065e-319
4.13612e-319
4.32969e-319
4.53197e-319
4.53048e-319
4.32841e-319
4.13493e-319
3.94917e-319
3.77091e-319
3.59976e-319
3.43553e-319
3.27803e-319
3.12704e-319
2.98238e-319
2.84414e-319
2.71203e-319
2.58604e-319
2.46588e-319
2.35146e-319
2.24256e-319
2.13901e-319
2.04069e-319
1.94751e-319
1.86016e-319
1.78061e-319
1.71263e-319
1.6569e-319
1.59445e-319
1.50433e-319
1.41421e-319
1.3403e-319
1.27765e-319
1.22084e-319
1.16876e-319
9.62835e-320
9.66985e-320
9.658e-320
9.62045e-320
9.59871e-320
9.59278e-320
9.59673e-320
9.60167e-320
9.6076e-320
9.61452e-320
9.62045e-320
9.62638e-320
9.6323e-320
9.63823e-320
9.64515e-320
9.65207e-320
9.65997e-320
9.66985e-320
1.93595e-319
1.64729e-318
1.17352e-317
7.6952e-317
4.83427e-316
2.91262e-315
1.68785e-314
9.38881e-314
5.00679e-313
2.56899e-312
1.27996e-311
6.26205e-311
3.0372e-310
1.46919e-309
7.06832e-309
3.29203e-308
1.37148e-307
4.26447e-307
6.74043e-307
3.36137e-307
9.22981e-308
1.98587e-308
4.44413e-309
1.00219e-309
2.30322e-310
5.37643e-311
1.2693e-311
3.026e-312
7.28524e-313
1.77093e-313
4.33986e-314
1.0694e-314
2.64372e-315
6.54925e-316
1.62711e-316
4.06678e-317
9.97096e-318
2.37395e-318
7.46059e-319
2.60511e-319
2.72902e-319
2.85876e-319
2.99443e-319
3.13653e-319
3.28514e-319
3.44067e-319
3.60312e-319
3.77308e-319
3.95055e-319
4.13602e-319
4.3296e-319
4.53177e-319
4.52999e-319
4.32802e-319
4.13454e-319
3.94887e-319
3.77071e-319
3.59956e-319
3.43534e-319
3.27783e-319
3.12684e-319
2.98228e-319
2.84404e-319
2.71183e-319
2.58584e-319
2.46568e-319
2.35126e-319
2.24237e-319
2.13881e-319
2.04049e-319
1.94731e-319
1.86006e-319
1.78081e-319
1.71322e-319
1.6571e-319
1.59376e-319
1.50433e-319
1.41451e-319
1.3403e-319
1.27746e-319
1.22074e-319
1.16876e-319
9.62835e-320
9.67084e-320
9.658e-320
9.62045e-320
9.59871e-320
9.59278e-320
9.59673e-320
9.60167e-320
9.60859e-320
9.61452e-320
9.62045e-320
9.62638e-320
9.6323e-320
9.63922e-320
9.64614e-320
9.65207e-320
9.66096e-320
8.70287e-319
6.3888e-318
4.66094e-317
3.18116e-316
2.072e-315
1.2913e-314
7.72909e-314
4.44977e-313
2.45964e-312
1.30363e-311
6.64844e-311
3.29207e-310
1.60013e-309
7.70617e-309
3.69876e-308
1.76436e-307
8.14253e-307
3.35901e-306
1.0335e-305
1.6214e-305
8.16781e-306
2.26961e-306
4.93658e-307
1.11503e-307
2.5354e-308
5.87019e-309
1.37949e-309
3.27684e-310
7.85693e-311
1.90196e-311
4.64787e-312
1.14492e-312
2.83578e-313
7.04623e-314
1.75499e-314
4.38646e-315
1.10362e-315
2.80084e-316
7.21654e-317
1.88996e-317
4.94965e-318
1.36447e-318
2.85866e-319
2.99443e-319
3.13643e-319
3.28504e-319
3.44048e-319
3.60292e-319
3.77288e-319
3.95035e-319
4.13572e-319
4.3293e-319
4.53137e-319
4.52969e-319
4.32782e-319
4.13434e-319
3.94867e-319
3.77051e-319
3.59937e-319
3.43524e-319
3.27773e-319
3.12674e-319
2.98218e-319
2.84384e-319
2.71173e-319
2.58564e-319
2.46549e-319
2.35106e-319
2.24207e-319
2.13851e-319
2.04019e-319
1.94701e-319
1.85996e-319
1.78091e-319
1.71381e-319
1.6571e-319
1.59307e-319
1.50453e-319
1.41481e-319
1.3403e-319
1.27736e-319
1.22074e-319
1.16876e-319
9.62934e-320
9.67183e-320
9.65898e-320
9.62143e-320
9.59871e-320
9.59278e-320
9.59673e-320
9.60266e-320
9.60859e-320
9.61452e-320
9.62045e-320
9.62736e-320
9.63329e-320
9.63922e-320
9.64614e-320
3.86112e-319
2.70505e-318
1.91468e-317
1.37943e-316
9.6612e-316
6.51139e-315
4.2031e-314
2.59914e-313
1.54469e-312
8.83321e-312
4.85099e-311
2.55485e-310
1.29481e-309
6.37058e-309
3.07584e-308
1.47079e-307
7.00541e-307
3.31428e-306
1.51613e-305
6.19422e-305
1.88558e-304
2.93572e-304
1.49434e-304
4.20266e-305
9.23943e-306
2.10584e-306
4.82751e-307
1.12603e-307
2.66429e-308
6.36923e-309
1.53639e-309
3.74075e-310
9.19263e-311
2.27685e-311
5.66984e-312
1.41636e-312
3.5465e-313
8.91166e-314
2.25367e-314
5.75777e-315
1.49214e-315
3.93639e-316
1.06021e-316
2.9471e-317
8.28958e-318
2.09595e-318
6.27246e-319
3.28484e-319
3.44028e-319
3.60273e-319
3.77269e-319
3.95015e-319
4.13553e-319
4.329e-319
4.53098e-319
4.5294e-319
4.32752e-319
4.13414e-319
3.94857e-319
3.77031e-319
3.59937e-319
3.43514e-319
3.27763e-319
3.12665e-319
2.98218e-319
2.84384e-319
2.71163e-319
2.58554e-319
2.46539e-319
2.35086e-319
2.24187e-319
2.13832e-319
2.0399e-319
1.94682e-319
1.85986e-319
1.78111e-319
1.71421e-319
1.65729e-319
1.59257e-319
1.50453e-319
1.415e-319
1.3403e-319
1.27726e-319
1.22074e-319
1.16886e-319
4.81516e-319
1.06394e-318
6.76158e-319
9.62143e-320
9.59871e-320
9.59278e-320
9.59673e-320
9.60266e-320
9.60859e-320
9.61452e-320
9.62045e-320
9.62736e-320
9.63329e-320
1.92784e-319
1.1575e-318
7.23972e-318
4.92716e-317
3.38751e-316
2.3534e-315
1.61352e-314
1.07287e-313
6.85565e-313
4.20437e-312
2.48026e-311
1.40852e-310
7.68394e-310
4.02067e-309
2.02459e-308
9.89598e-308
4.74548e-307
2.2529e-306
1.06493e-305
4.99792e-305
2.26689e-304
9.17424e-304
2.76321e-303
4.26989e-303
2.19635e-303
6.2518e-304
1.38902e-304
3.19406e-305
7.38144e-306
1.73462e-306
4.13301e-307
9.94567e-308
2.41424e-308
5.91377e-309
1.46182e-309
3.64146e-310
9.1192e-311
2.29073e-311
5.76752e-312
1.45717e-312
3.70483e-313
9.51498e-314
2.47834e-314
6.56983e-315
1.77801e-315
4.91967e-316
1.39198e-316
3.982e-317
1.19168e-317
3.61304e-318
6.87996e-319
3.60253e-319
3.77229e-319
3.94976e-319
4.13513e-319
4.32851e-319
4.53048e-319
4.5292e-319
4.32742e-319
4.13395e-319
3.94838e-319
3.77031e-319
3.59937e-319
3.43514e-319
3.27773e-319
3.12665e-319
2.98208e-319
2.84374e-319
2.71163e-319
2.58535e-319
2.46519e-319
2.35067e-319
2.24167e-319
2.13812e-319
2.0397e-319
1.94662e-319
1.85966e-319
1.7814e-319
1.7147e-319
1.65729e-319
4.77603e-319
1.50463e-319
1.4154e-319
1.3403e-319
1.27706e-319
4.88246e-319
1.87022e-318
6.54922e-318
1.33487e-317
8.01788e-318
2.30927e-318
4.79906e-319
9.59278e-320
9.59673e-320
9.60266e-320
9.60859e-320
9.61452e-320
9.62143e-320
9.62736e-320
4.81674e-319
3.47027e-318
2.09319e-317
1.24237e-316
7.75902e-316
5.06515e-315
3.39026e-314
2.26764e-313
1.48327e-312
9.3692e-312
5.69444e-311
3.33341e-310
1.87955e-309
1.01839e-308
5.29347e-308
2.64794e-307
1.28562e-306
6.12232e-306
2.88555e-305
1.3537e-304
6.30346e-304
2.83543e-303
1.13694e-302
3.38874e-302
5.1983e-302
2.70191e-302
7.78379e-303
1.74756e-303
4.0539e-304
9.4439e-305
2.23601e-305
5.36563e-306
1.29997e-306
3.17621e-307
7.82941e-308
1.94722e-308
4.87965e-309
1.22917e-309
3.1055e-310
7.86354e-311
1.99791e-311
5.10768e-312
1.31884e-312
3.45297e-313
9.19948e-314
2.50111e-314
6.95242e-315
1.97831e-315
5.76588e-316
1.7215e-316
5.22199e-317
1.61663e-317
4.68273e-318
1.50876e-318
3.94936e-319
4.13454e-319
4.32792e-319
4.52989e-319
4.5292e-319
4.32732e-319
4.13395e-319
3.94838e-319
3.77031e-319
3.59937e-319
3.43524e-319
3.27783e-319
3.12674e-319
2.98218e-319
2.84374e-319
2.71153e-319
2.58535e-319
2.46499e-319
2.35047e-319
2.24148e-319
2.13782e-319
2.0394e-319
1.94642e-319
1.85966e-319
1.7816e-319
3.4302e-319
1.65737e-318
3.34224e-318
1.35419e-318
1.4156e-319
1.3403e-319
1.02161e-318
4.76012e-318
1.96379e-317
6.27051e-317
1.25857e-316
7.50645e-317
2.28051e-317
5.08702e-318
9.59278e-319
9.59673e-320
9.60266e-320
9.60859e-320
9.61452e-320
3.84857e-319
1.92557e-318
1.12716e-317
6.17916e-317
3.35305e-316
1.86466e-315
1.08703e-314
6.67784e-314
4.2669e-313
2.76507e-312
1.77188e-311
1.10405e-310
6.6438e-310
3.85748e-309
2.15908e-308
1.1617e-307
5.99752e-307
2.97994e-306
1.43693e-305
6.7948e-305
3.17923e-304
1.48032e-303
6.84014e-303
3.05205e-302
1.21277e-301
3.57785e-301
5.44974e-301
2.86197e-301
8.34417e-302
1.89292e-302
4.42945e-303
1.04015e-303
2.48137e-304
5.99753e-305
1.4632e-305
3.5991e-306
8.9298e-307
2.23502e-307
5.63563e-308
1.42823e-308
3.63002e-309
9.24588e-310
2.36275e-310
6.07471e-311
1.5772e-311
4.15145e-312
1.11171e-312
3.03726e-313
8.48259e-314
2.4247e-314
7.09759e-315
2.12765e-315
6.52835e-316
2.05666e-316
6.59101e-317
2.14971e-317
7.10783e-318
2.06701e-318
4.32722e-319
4.5292e-319
4.5292e-319
4.32742e-319
4.13395e-319
3.94847e-319
3.77041e-319
3.59947e-319
3.43534e-319
3.27783e-319
3.12684e-319
2.98218e-319
2.84374e-319
2.71143e-319
2.58525e-319
2.46499e-319
2.35037e-319
2.24128e-319
2.13753e-319
2.03911e-319
1.94622e-319
1.85956e-319
5.3453e-319
2.40174e-318
8.95e-318
1.68655e-317
7.37299e-318
1.98217e-318
2.14456e-318
9.3214e-318
4.14964e-317
1.65175e-316
5.22498e-316
1.03404e-315
6.16795e-316
1.89089e-316
4.3576e-317
8.82528e-318
1.63138e-318
1.92053e-319
1.92172e-319
9.61511e-319
6.15792e-318
3.36984e-317
1.79773e-316
9.38469e-316
4.86148e-315
2.55286e-314
1.39014e-313
7.97674e-313
4.81489e-312
2.996e-311
1.87009e-310
1.14599e-309
6.81847e-309
3.92432e-308
2.17975e-307
1.16445e-306
5.97015e-306
2.946e-305
1.41071e-304
6.62337e-304
3.07644e-303
1.42182e-302
6.52027e-302
2.88641e-301
1.13682e-300
3.32029e-300
5.02323e-300
2.66501e-300
7.86308e-301
1.80232e-301
4.25411e-302
1.00696e-302
2.42048e-303
5.89328e-304
1.44798e-304
3.58628e-305
8.95787e-306
2.25676e-306
5.72692e-307
1.46048e-307
3.73493e-308
9.57094e-309
2.46043e-309
6.36281e-310
1.66138e-310
4.39699e-311
1.18365e-311
3.25003e-312
9.1201e-313
2.61871e-313
7.69851e-314
2.31741e-314
7.14146e-315
2.25271e-315
7.27065e-316
2.39825e-316
8.05424e-317
2.72799e-317
9.08566e-318
2.26414e-318
4.5294e-319
4.32742e-319
4.13414e-319
3.94857e-319
3.77051e-319
3.59956e-319
3.43553e-319
3.27803e-319
3.12694e-319
2.98228e-319
2.84384e-319
2.71143e-319
2.58515e-319
2.46479e-319
2.35017e-319
2.24108e-319
2.13733e-319
2.03891e-319
1.94593e-319
3.71893e-319
2.67299e-318
1.14967e-317
3.99438e-317
7.38063e-317
3.40064e-317
1.14701e-317
1.75588e-317
7.18836e-317
3.15479e-316
1.24243e-315
3.88147e-315
7.57871e-315
4.53224e-315
1.3977e-315
3.24232e-316
6.75325e-317
1.35309e-317
2.78471e-318
3.07483e-318
1.56731e-317
8.92924e-317
4.84116e-316
2.53637e-315
1.29188e-314
6.46648e-314
3.23308e-313
1.65125e-312
8.81725e-312
4.97848e-311
2.94299e-310
1.77565e-309
1.06555e-308
6.25592e-308
3.56608e-307
1.96494e-306
1.04201e-305
5.3047e-305
2.59937e-304
1.23596e-303
5.7613e-303
2.65648e-302
1.21868e-301
5.54721e-301
2.43668e-300
9.51381e-300
2.7516e-299
4.13596e-299
2.21646e-299
6.61769e-300
1.53258e-300
3.64886e-301
8.70612e-302
2.10872e-302
5.17232e-303
1.28003e-303
3.1927e-304
8.0298e-305
2.03659e-305
5.20232e-306
1.33529e-306
3.43649e-307
8.86131e-308
2.292e-308
5.96283e-309
1.56602e-309
4.16791e-310
1.12803e-310
3.11323e-311
8.77893e-312
2.53244e-312
7.47759e-313
2.26033e-313
6.99358e-314
2.21415e-314
7.16968e-315
2.37257e-315
8.01722e-316
2.76052e-316
9.55961e-317
3.07858e-317
4.5295e-319
4.32762e-319
4.13434e-319
3.94877e-319
3.77071e-319
3.59976e-319
3.43573e-319
3.27822e-319
3.12704e-319
2.98238e-319
2.84384e-319
2.71153e-319
2.58515e-319
2.46479e-319
2.34997e-319
2.24088e-319
2.13713e-319
2.03871e-319
3.89146e-319
2.23134e-318
1.08715e-317
4.83992e-317
1.63255e-316
2.9658e-316
1.48364e-316
6.41579e-317
1.21171e-316
5.0008e-316
2.16809e-315
8.4515e-315
2.60927e-314
5.0264e-314
3.01303e-314
9.34171e-315
2.17809e-315
4.57284e-316
9.32778e-317
2.38145e-317
3.92051e-317
2.09622e-316
1.17036e-315
6.29054e-315
3.25514e-314
1.62894e-313
7.9402e-313
3.81498e-312
1.84159e-311
9.16242e-311
4.80477e-310
2.66786e-309
1.54067e-308
8.99962e-308
5.19867e-307
2.93149e-306
1.60158e-305
8.42898e-305
4.2602e-304
2.07276e-303
9.78544e-303
4.52841e-302
2.07275e-301
9.43928e-301
4.26512e-300
1.85929e-299
7.19778e-299
2.06198e-298
3.0803e-298
1.66718e-298
5.03688e-299
1.17856e-299
2.8304e-300
6.80746e-301
1.66152e-301
4.10598e-302
1.0236e-302
2.57148e-303
6.51303e-304
1.66331e-304
4.27759e-305
1.10524e-305
2.86304e-306
7.4301e-307
1.93395e-307
5.06233e-308
1.33747e-308
3.58016e-309
9.74311e-310
2.70315e-310
7.66073e-311
2.22039e-311
6.58579e-312
1.99929e-312
6.21109e-313
1.97399e-313
6.41525e-314
2.13077e-314
7.22818e-315
2.4992e-315
8.69679e-316
2.80173e-316
4.52979e-319
4.32792e-319
4.13454e-319
3.94897e-319
3.77091e-319
3.59996e-319
3.43593e-319
3.27842e-319
3.12724e-319
2.98258e-319
2.84404e-319
2.71163e-319
2.58515e-319
2.4647e-319
2.34997e-319
2.24069e-319
2.13693e-319
4.07683e-319
1.75097e-318
9.11108e-318
4.4383e-317
1.92091e-316
6.3246e-316
1.1377e-315
6.27007e-316
3.46901e-316
7.67118e-316
3.16978e-315
1.36131e-314
5.2542e-314
1.60345e-313
3.04732e-313
1.83052e-313
5.70469e-314
1.33697e-314
2.82448e-315
5.85775e-316
1.85239e-316
4.56251e-316
2.5241e-315
1.40205e-314
7.48129e-314
3.83427e-313
1.8929e-312
9.04171e-312
4.21095e-311
1.93964e-310
9.04507e-310
4.39404e-309
2.26815e-308
1.2392e-307
6.98928e-307
3.9559e-306
2.20278e-305
1.19244e-304
6.22648e-304
3.12389e-303
1.50897e-302
7.07249e-302
3.24913e-301
1.47632e-300
6.67419e-300
2.9939e-299
1.29539e-298
4.973e-298
1.41145e-297
2.09619e-297
1.1457e-297
3.50235e-298
8.2799e-299
2.00582e-299
4.86311e-300
1.19615e-300
2.97833e-301
7.48015e-302
1.89292e-302
4.8289e-303
1.24193e-303
3.21607e-304
8.36629e-305
2.18177e-305
5.69945e-306
1.49309e-306
3.93303e-307
1.04548e-307
2.81507e-308
7.70434e-309
2.14904e-309
6.12167e-310
1.78296e-310
5.31285e-311
1.61995e-311
5.05367e-312
1.61253e-312
5.26038e-313
1.75352e-313
5.96864e-314
2.07032e-314
7.23319e-315
2.3376e-315
4.52999e-319
4.32821e-319
4.13474e-319
3.94936e-319
3.7713e-319
3.60036e-319
3.43613e-319
3.27862e-319
3.12753e-319
2.98277e-319
2.84414e-319
2.71163e-319
2.58515e-319
2.4646e-319
2.34978e-319
2.24049e-319
2.13674e-319
1.22289e-318
6.80866e-318
3.57e-317
1.71315e-316
7.26785e-316
2.35709e-315
4.23992e-315
2.62445e-315
1.83647e-315
4.50055e-315
1.85155e-314
7.87839e-314
3.01089e-313
9.08244e-313
1.70293e-312
1.02482e-312
3.20956e-313
7.56055e-314
1.60706e-314
3.41623e-315
1.46129e-315
4.97451e-315
2.79866e-314
1.54723e-313
8.20445e-313
4.17198e-312
2.03786e-311
9.58444e-311
4.35843e-310
1.9341e-309
8.53106e-309
3.85012e-308
1.83466e-307
9.36622e-307
5.04781e-306
2.78301e-305
1.52636e-304
8.17896e-304
4.23567e-303
2.1091e-302
1.01135e-301
4.70569e-301
2.14599e-300
9.6794e-300
4.34421e-299
1.93478e-298
8.30978e-298
3.16406e-297
8.89954e-297
1.31439e-296
7.25368e-297
2.24356e-297
5.35901e-298
1.30961e-298
3.20084e-299
7.93427e-300
1.9907e-300
5.03745e-301
1.28427e-301
3.30023e-302
8.54901e-303
2.22953e-303
5.84037e-304
1.53352e-304
4.03311e-305
1.06356e-305
2.81973e-306
7.54243e-307
2.04316e-307
5.62416e-308
1.57747e-308
4.51715e-309
1.32221e-309
3.95864e-310
1.21249e-310
3.79881e-311
1.21709e-311
3.98584e-312
1.33359e-312
4.55532e-313
1.58543e-313
5.55745e-314
1.80243e-314
4.53038e-319
4.32861e-319
4.13513e-319
3.94966e-319
3.7716e-319
3.60055e-319
3.43642e-319
3.27892e-319
3.12783e-319
2.98297e-319
2.84424e-319
2.71183e-319
2.58525e-319
2.4646e-319
2.34968e-319
2.24039e-319
1.06823e-318
5.29864e-318
2.72322e-317
1.34246e-316
6.35072e-316
2.66793e-315
8.5791e-315
1.56003e-314
1.09921e-314
9.42441e-315
2.45844e-314
1.00411e-313
4.23253e-313
1.60159e-312
4.7753e-312
8.83344e-312
5.32415e-312
1.67536e-312
3.96636e-313
8.48671e-314
1.87938e-314
1.18767e-314
5.07684e-314
2.87655e-313
1.58304e-312
8.34781e-312
4.21678e-311
2.04221e-310
9.49045e-310
4.23807e-309
1.82737e-308
7.70293e-308
3.25386e-307
1.42879e-306
6.74003e-306
3.42776e-305
1.82614e-304
9.8283e-304
5.20566e-303
2.67234e-302
1.32038e-301
6.28456e-301
2.90265e-300
1.31399e-299
5.88324e-299
2.62142e-298
1.15923e-297
4.94275e-297
1.86693e-296
5.20519e-296
7.64754e-296
4.26086e-296
1.33337e-296
3.21804e-297
7.93352e-298
1.95485e-298
4.88371e-299
1.23478e-299
3.14849e-300
8.08757e-301
2.0938e-301
5.46373e-302
1.43522e-302
3.78645e-303
1.0012e-303
2.65135e-304
7.0393e-305
1.87864e-305
5.05745e-306
1.37849e-306
3.81706e-307
1.07667e-307
3.09971e-308
9.11962e-309
2.74367e-309
8.44256e-310
2.6568e-310
8.5479e-311
2.81061e-311
9.43981e-312
3.23628e-312
1.13031e-312
3.9757e-313
1.29407e-313
4.53088e-319
4.329e-319
4.13553e-319
3.94996e-319
3.77189e-319
3.60095e-319
3.43672e-319
3.27921e-319
3.12803e-319
2.98317e-319
2.84443e-319
2.71183e-319
2.58535e-319
2.4646e-319
2.34958e-319
8.96087e-319
4.27252e-318
2.07847e-317
1.00556e-316
4.90313e-316
2.29883e-315
9.60417e-315
3.08219e-314
5.72346e-314
4.60221e-314
4.64524e-314
1.25637e-313
5.08586e-313
2.12349e-312
7.95548e-312
2.34443e-311
4.27858e-311
2.58209e-311
8.16222e-312
1.94196e-312
4.18725e-313
9.94968e-314
9.84872e-314
4.85613e-313
2.75628e-312
1.51008e-311
7.92274e-311
3.97888e-310
1.91336e-309
8.80773e-309
3.879e-308
1.6364e-307
6.65729e-307
2.65939e-306
1.08036e-305
4.67394e-305
2.21286e-304
1.12724e-303
5.92191e-303
3.0939e-302
1.57323e-301
7.71109e-301
3.64259e-300
1.66992e-299
7.50357e-299
3.33498e-298
1.4753e-297
6.47821e-297
2.74245e-296
1.0277e-295
2.841e-295
4.15356e-295
2.3361e-295
7.39603e-296
1.80372e-296
4.48662e-297
1.11463e-297
2.80664e-298
7.15136e-299
1.83753e-299
4.75621e-300
1.24067e-300
3.26175e-301
8.6314e-302
2.29379e-302
6.10895e-303
1.62928e-303
4.35603e-304
1.17048e-304
3.1719e-305
8.70069e-306
2.42392e-306
6.87688e-307
1.99079e-307
5.8879e-308
1.78027e-308
5.50419e-309
1.74e-309
5.62257e-310
1.85642e-310
6.25982e-311
2.15424e-311
7.55141e-312
2.66561e-312
8.70884e-313
4.53137e-319
4.3294e-319
4.13602e-319
3.95045e-319
3.77229e-319
3.60134e-319
3.43712e-319
3.27961e-319
3.12842e-319
2.98337e-319
2.84463e-319
2.71203e-319
2.58535e-319
2.4646e-319
7.04864e-319
3.58413e-318
1.64478e-317
7.51841e-317
3.60766e-316
1.75022e-315
8.18585e-315
3.41625e-314
1.10016e-313
2.10079e-313
1.9119e-313
2.18692e-313
6.03351e-313
2.4184e-312
1.00007e-311
3.7092e-311
1.0803e-310
1.94508e-310
1.175e-310
3.73061e-311
8.91968e-312
1.94242e-312
5.20488e-313
8.15549e-313
4.36381e-312
2.47417e-311
1.3496e-310
7.04712e-310
3.52062e-309
1.68268e-308
7.68622e-308
3.34875e-307
1.38951e-306
5.50169e-306
2.10135e-305
7.96703e-305
3.1553e-304
1.37331e-303
6.60285e-303
3.36101e-302
1.72678e-301
8.68817e-301
4.22288e-300
1.97952e-299
9.00702e-299
4.01706e-298
1.77226e-297
7.78383e-297
3.39417e-296
1.42673e-295
5.30522e-295
1.45449e-294
2.11669e-294
1.20164e-294
3.84878e-295
9.48624e-296
2.38126e-296
5.96552e-297
1.51411e-297
3.88819e-298
1.00683e-298
2.62623e-299
6.90337e-300
1.82878e-300
4.87605e-301
1.30553e-301
3.50278e-302
9.41055e-303
2.53412e-303
6.85715e-304
1.87089e-304
5.1656e-305
1.44811e-305
4.13301e-306
1.20327e-306
3.57804e-307
1.08744e-307
3.37864e-308
1.07308e-308
3.48309e-309
1.15497e-309
3.91056e-310
1.35108e-310
4.75401e-311
1.68436e-311
5.52445e-312
4.53197e-319
4.32999e-319
4.13652e-319
3.95094e-319
3.77288e-319
3.60174e-319
3.43751e-319
3.2799e-319
3.12862e-319
2.98376e-319
2.84493e-319
2.71222e-319
2.58545e-319
4.92919e-319
3.52421e-318
1.36637e-317
5.85234e-317
2.65257e-316
1.26949e-315
6.15511e-315
2.88151e-314
1.20497e-313
3.90708e-313
7.69315e-313
7.80503e-313
9.80957e-313
2.73387e-312
1.08449e-311
4.44119e-311
1.63057e-310
4.69319e-310
8.33646e-310
5.03959e-310
1.60682e-310
3.86102e-311
8.52895e-312
2.77581e-312
6.61165e-312
3.695e-311
2.08964e-310
1.13495e-309
5.89935e-309
2.9329e-308
1.39418e-307
6.32705e-307
2.73294e-306
1.1197e-305
4.34361e-305
1.60239e-304
5.73468e-304
2.08847e-303
8.28175e-303
3.70378e-302
1.80866e-301
9.09765e-301
4.52213e-300
2.17851e-299
1.01319e-298
4.57521e-298
2.02523e-297
8.86914e-297
3.86752e-296
1.67479e-295
6.99084e-295
2.57981e-294
7.01633e-294
1.01667e-293
5.82503e-294
1.88754e-294
4.70266e-295
1.19148e-295
3.01038e-296
7.70266e-297
1.99372e-297
5.20338e-298
1.36792e-298
3.62389e-299
9.67478e-300
2.5995e-300
7.01335e-301
1.89602e-301
5.13213e-302
1.39223e-302
3.79448e-303
1.04253e-303
2.89788e-304
8.1763e-305
2.34793e-305
6.87577e-306
2.05597e-306
6.28167e-307
1.9616e-307
6.26037e-308
2.04147e-308
6.79945e-309
2.31203e-309
8.02064e-310
2.83328e-310
1.00771e-310
3.31885e-311
4.53256e-319
4.33058e-319
4.13711e-319
3.95144e-319
3.77328e-319
3.60223e-319
3.43801e-319
3.2804e-319
3.12902e-319
2.98406e-319
2.84523e-319
2.71242e-319
5.17109e-319
2.71108e-318
1.2217e-317
4.79324e-317
2.03106e-316
9.20775e-316
4.40089e-315
2.13828e-314
1.00384e-313
4.21237e-313
1.37679e-312
2.79273e-312
3.10446e-312
4.19073e-312
1.17313e-311
4.60445e-311
1.86712e-310
6.78517e-310
1.92982e-309
3.38176e-309
2.04526e-309
6.54758e-310
1.58153e-310
3.57381e-311
1.55049e-311
5.17922e-311
2.95734e-310
1.66694e-309
9.0151e-309
4.66529e-308
2.30871e-307
1.09201e-306
4.92762e-306
2.11339e-305
8.57326e-305
3.2747e-304
1.17669e-303
4.02224e-303
1.35997e-302
4.89886e-302
2.00881e-301
9.29199e-301
4.54734e-300
2.22787e-299
1.06298e-298
4.90381e-298
2.19742e-297
9.65365e-297
4.19642e-296
1.81685e-295
7.81367e-295
3.23908e-294
1.18642e-293
3.20169e-293
4.62062e-293
2.67159e-293
8.75928e-294
2.20619e-294
5.64256e-295
1.43799e-295
3.70973e-296
9.67963e-297
2.54651e-297
6.748e-298
1.8019e-298
4.8487e-299
1.31305e-299
3.57033e-300
9.72726e-301
2.65325e-301
7.25224e-302
1.99124e-302
5.51026e-303
1.54227e-303
4.38035e-304
1.26583e-304
3.72925e-305
1.12151e-305
3.44533e-306
1.08151e-306
3.46886e-307
1.13659e-307
3.80304e-308
1.29886e-308
4.52497e-309
1.60496e-309
5.73143e-310
1.89593e-310
4.53315e-319
4.33118e-319
4.1377e-319
3.95203e-319
3.77387e-319
3.60273e-319
3.4385e-319
3.28079e-319
3.12941e-319
2.98435e-319
2.84542e-319
5.42514e-319
3.10282e-318
1.1091e-317
4.2524e-317
1.64844e-316
6.91703e-316
3.13972e-315
1.50507e-314
7.33677e-314
3.45528e-313
1.45484e-312
4.78984e-312
9.97644e-312
1.19584e-311
1.70659e-311
4.78327e-311
1.85738e-310
7.45712e-310
2.68201e-309
7.5371e-309
1.30296e-308
7.88153e-309
2.53303e-309
6.15358e-310
1.44521e-310
9.15888e-311
3.89333e-310
2.24418e-309
1.26026e-308
6.78686e-308
3.49699e-307
1.72286e-306
8.11111e-306
3.64132e-305
1.55225e-304
6.24681e-304
2.35792e-303
8.30687e-303
2.7411e-302
8.71198e-302
2.8619e-301
1.06382e-300
4.59158e-300
2.16727e-299
1.04303e-298
4.92354e-298
2.2523e-297
1.00142e-296
4.36605e-296
1.88385e-295
8.09809e-295
3.45894e-294
1.4241e-293
5.17815e-293
1.38688e-292
1.994e-292
1.16337e-292
3.85978e-293
9.82902e-294
2.53794e-294
6.52478e-295
1.69737e-295
4.46527e-296
1.1843e-296
3.16378e-297
8.51664e-298
2.31022e-298
6.30648e-299
1.72852e-299
4.74676e-300
1.30495e-300
3.59458e-301
9.94453e-302
2.77218e-302
7.81417e-303
2.23447e-303
6.49912e-304
1.92655e-304
5.82796e-305
1.80046e-305
5.68219e-306
1.83193e-306
6.03215e-307
2.02795e-307
6.95779e-308
2.43459e-308
8.67184e-309
3.10986e-309
1.03351e-309
4.53394e-319
4.33187e-319
4.13829e-319
3.95262e-319
3.77446e-319
3.60332e-319
3.43899e-319
3.28119e-319
3.12981e-319
2.98475e-319
8.53726e-319
3.25537e-318
1.21534e-317
4.04215e-317
1.44251e-316
5.53187e-316
2.31967e-315
1.05506e-314
5.0739e-314
2.48098e-313
1.17128e-312
4.94252e-312
1.63622e-311
3.48493e-311
4.44521e-311
6.63488e-311
1.85876e-310
7.1409e-310
2.83828e-309
1.01017e-308
2.80469e-308
4.78298e-308
2.8929e-308
9.33275e-309
2.28282e-309
5.73433e-310
5.65366e-310
2.80089e-309
1.61934e-308
9.05798e-308
4.85736e-307
2.49209e-306
1.22245e-305
5.72951e-305
2.55992e-304
1.0854e-303
4.33906e-303
1.62261e-302
5.63179e-302
1.8097e-301
5.4764e-301
1.65679e-300
5.55149e-300
2.20031e-299
9.90189e-299
4.65824e-298
2.172e-297
9.84808e-297
4.34402e-296
1.87946e-295
8.04915e-295
3.43543e-294
1.45742e-293
5.95999e-293
2.15156e-292
5.72061e-292
8.19595e-292
4.82517e-292
1.62006e-292
4.17151e-293
1.08756e-293
2.82096e-294
7.40105e-295
1.96327e-295
5.25036e-296
1.41422e-296
3.83839e-297
1.04977e-297
2.88917e-298
7.98345e-299
2.21018e-299
6.125e-300
1.70055e-300
4.74116e-301
1.33162e-301
3.78082e-302
1.08866e-302
3.18753e-303
9.50891e-304
2.89397e-304
8.99231e-305
2.85368e-305
9.24917e-306
3.06112e-306
1.03418e-306
3.56496e-307
1.25308e-307
4.48303e-308
1.61478e-308
5.39257e-309
4.53473e-319
4.33256e-319
4.13889e-319
3.95332e-319
3.77506e-319
3.60391e-319
3.43949e-319
3.28178e-319
3.1303e-319
8.95543e-319
3.9845e-318
1.3294e-317
4.16345e-317
1.35811e-316
4.78095e-316
1.82612e-315
7.65612e-315
3.48973e-314
1.6826e-313
8.24368e-313
3.89572e-312
1.64466e-311
5.46265e-311
1.18494e-310
1.59197e-310
2.46723e-310
6.90283e-310
2.62391e-309
1.03239e-308
3.6356e-308
9.97182e-308
1.67747e-307
1.01422e-307
3.28416e-308
8.10667e-309
2.28599e-309
3.56156e-309
1.92767e-308
1.11405e-307
6.20632e-307
3.31409e-306
1.69308e-305
8.26957e-305
3.85903e-304
1.71641e-303
7.24192e-303
2.87842e-302
1.06828e-301
3.66565e-301
1.15479e-300
3.36584e-300
9.5032e-300
2.87549e-299
1.03162e-298
4.36256e-298
1.99221e-297
9.15403e-297
4.1111e-296
1.79874e-295
7.72231e-295
3.28255e-294
1.39104e-293
5.86137e-293
2.38098e-292
8.53494e-292
2.25328e-291
3.21762e-291
1.91149e-291
6.49516e-292
1.69125e-292
4.45252e-293
1.16535e-293
3.08389e-294
8.25027e-295
2.22504e-295
6.0439e-296
1.65421e-296
4.56207e-297
1.26606e-297
3.52755e-298
9.8467e-299
2.75119e-299
7.70024e-300
2.16383e-300
6.12419e-301
1.75172e-301
5.07991e-302
1.49751e-302
4.49641e-303
1.37697e-303
4.3041e-304
1.37369e-304
4.47673e-305
1.48943e-305
5.05747e-306
1.7519e-306
6.18688e-307
2.22353e-307
8.04583e-308
2.70058e-308
4.53552e-319
4.33335e-319
4.13968e-319
3.95391e-319
3.77565e-319
3.60451e-319
3.44008e-319
3.28218e-319
1.25232e-318
5.07542e-318
1.5086e-317
4.50411e-317
1.38102e-316
4.46885e-316
1.55622e-315
5.92808e-315
2.48492e-314
1.13408e-313
5.47497e-313
2.68345e-312
1.26714e-311
5.34197e-311
1.77635e-310
3.9106e-310
5.49109e-310
8.79241e-310
2.45591e-309
9.23813e-309
3.59777e-308
1.25346e-307
3.39602e-307
5.63508e-307
3.40489e-307
1.10669e-307
2.7691e-308
9.42808e-309
2.23823e-308
1.27028e-307
7.32534e-307
4.06405e-306
2.16095e-305
1.09928e-304
5.34649e-304
2.48431e-303
1.10016e-302
4.62046e-302
1.82703e-301
6.73768e-301
2.2912e-300
7.11126e-300
2.01533e-299
5.38583e-299
1.48457e-298
4.77461e-298
1.86595e-297
8.19221e-297
3.69669e-296
1.64283e-295
7.1279e-295
3.03629e-294
1.28097e-293
5.38967e-293
2.25575e-292
9.10284e-292
3.24056e-291
8.49676e-291
1.20956e-290
7.25087e-291
2.49363e-291
6.56671e-292
1.74596e-292
4.61154e-293
1.23108e-293
3.32201e-294
9.0365e-295
2.47572e-295
6.83416e-296
1.90087e-296
5.32019e-297
1.49489e-297
4.20799e-298
1.18555e-298
3.34558e-299
9.47728e-300
2.70336e-300
7.79113e-301
2.27585e-301
6.75581e-302
2.04204e-302
6.29345e-303
1.97923e-303
6.35401e-304
2.0824e-304
6.96593e-305
2.37771e-305
8.27787e-306
2.93757e-306
1.06074e-306
3.85657e-307
1.30132e-307
4.53631e-319
4.33414e-319
4.14047e-319
3.9546e-319
3.77624e-319
3.6051e-319
3.44067e-319
1.31311e-318
5.94941e-318
1.79158e-317
5.09573e-317
1.48163e-316
4.48735e-316
1.43907e-315
4.9821e-315
1.89124e-314
7.91943e-314
3.61385e-313
1.74394e-312
8.53586e-312
4.02051e-311
1.68958e-310
5.61428e-310
1.25085e-309
1.82501e-309
3.00871e-309
8.38992e-309
3.12356e-308
1.20399e-307
4.14946e-307
1.11038e-306
1.8173e-306
1.09711e-306
3.58017e-307
9.15905e-308
4.129e-308
1.38115e-307
8.02631e-307
4.61411e-306
2.54917e-305
1.34969e-304
6.83672e-304
3.31104e-303
1.53202e-302
6.75551e-302
2.8247e-301
1.11164e-300
4.07675e-300
1.3762e-299
4.22304e-299
1.17215e-298
3.0035e-298
7.64478e-298
2.19886e-297
7.80736e-297
3.25361e-296
1.43459e-295
6.29962e-295
2.70949e-294
1.14505e-293
4.79441e-293
2.00286e-292
8.32655e-292
3.33822e-291
1.18038e-290
3.07431e-290
4.36389e-290
2.63977e-290
9.18867e-291
2.44742e-291
6.57254e-292
1.75209e-292
4.71899e-293
1.2846e-293
3.52504e-294
9.74217e-295