/*--------------------------------*- C++ -*----------------------------------*\
  =========                 |
  \\      /  F ield         | OpenFOAM: The Open Source CFD Toolbox
   \\    /   O peration     | Website:  https://openfoam.org
    \\  /    A nd           | Version:  9
     \\/     M anipulation  |
\*---------------------------------------------------------------------------*/
FoamFile
{
    format      ascii;
    class       volScalarField;
    location    "0.09";
    object      p;
}
// * * * * * * * * * * * * * * * * * * * * * * * * * * * * * * * * * * * * * //

dimensions      [1 -1 -2 0 0 0 0];

internalField   nonuniform List<scalar> 
20000
(
1.65653
1.65648
1.65638
1.65624
1.65606
1.65583
1.65553
1.65514
1.65463
1.65401
1.65326
1.65239
1.65143
1.65042
1.64942
1.64848
1.64771
1.64722
1.64716
1.64778
1.64924
1.6512
1.65088
1.6482
1.65445
1.65363
1.64973
1.64798
1.64855
1.65057
1.65318
1.65481
1.65552
1.65488
1.65372
1.65318
1.65325
1.65361
1.65406
1.65455
1.65503
1.6555
1.65593
1.65634
1.65674
1.65711
1.65748
1.65782
1.65811
1.65835
1.65853
1.65866
1.65876
1.65883
1.65885
1.65883
1.65876
1.65862
1.65839
1.65809
1.65776
1.65751
1.65745
1.65768
1.65796
1.65739
1.65706
1.65843
1.65824
1.65687
1.65586
1.65535
1.65512
1.65505
1.6551
1.65521
1.65535
1.65549
1.6556
1.65568
1.65572
1.65574
1.65573
1.65572
1.65571
1.65571
1.65572
1.65574
1.65578
1.65583
1.65589
1.65596
1.65602
1.65608
1.65614
1.6562
1.65625
1.6563
1.65636
1.65644
1.65458
1.65454
1.65444
1.65432
1.65418
1.654
1.65377
1.6535
1.65317
1.65277
1.6523
1.65177
1.65117
1.65055
1.64992
1.64934
1.64885
1.6485
1.64832
1.64824
1.64809
1.64791
1.64764
1.64728
1.65255
1.65324
1.65141
1.6501
1.64985
1.65046
1.65165
1.65289
1.6543
1.65468
1.65418
1.65383
1.65385
1.65414
1.65457
1.65506
1.65557
1.65608
1.65657
1.65704
1.65749
1.65791
1.6583
1.65866
1.65899
1.65927
1.65952
1.65975
1.65994
1.66008
1.66016
1.66018
1.66015
1.66007
1.65991
1.65967
1.65939
1.65912
1.65887
1.65863
1.65845
1.65799
1.65807
1.65938
1.65929
1.65819
1.6572
1.65655
1.6561
1.65581
1.65561
1.65549
1.6554
1.65534
1.65529
1.65524
1.65519
1.65513
1.65506
1.65497
1.65489
1.6548
1.65471
1.65463
1.65456
1.6545
1.65445
1.65441
1.65437
1.65435
1.65433
1.65433
1.65434
1.65436
1.65442
1.65449
1.65258
1.6525
1.65239
1.65227
1.65213
1.65196
1.65176
1.65152
1.65125
1.65093
1.65056
1.65015
1.64971
1.64926
1.6488
1.64837
1.64799
1.64768
1.64746
1.64732
1.64729
1.64756
1.64799
1.64742
1.65039
1.65065
1.64993
1.64951
1.64954
1.6501
1.65112
1.65208
1.65318
1.65362
1.65353
1.65352
1.65371
1.65407
1.65454
1.65506
1.65561
1.65616
1.6567
1.65721
1.65771
1.65818
1.65861
1.65902
1.65939
1.65972
1.66
1.66023
1.66043
1.66057
1.66066
1.6607
1.66067
1.66059
1.66044
1.66023
1.65996
1.65968
1.65941
1.65915
1.65899
1.65869
1.65859
1.65924
1.659
1.65813
1.65732
1.6567
1.65621
1.65583
1.65553
1.65529
1.65509
1.65491
1.65475
1.65459
1.65443
1.65427
1.65411
1.65395
1.65379
1.65363
1.65348
1.65335
1.65322
1.65311
1.653
1.65291
1.65283
1.65277
1.65271
1.65267
1.65264
1.65261
1.6526
1.65259
1.6506
1.65051
1.6504
1.65029
1.65015
1.65
1.64983
1.64963
1.6494
1.64913
1.64884
1.64851
1.64816
1.6478
1.64744
1.64709
1.64679
1.64653
1.64637
1.64634
1.64646
1.64687
1.64761
1.64726
1.64885
1.64875
1.64848
1.64848
1.64877
1.64943
1.65049
1.6514
1.65226
1.65267
1.65281
1.65304
1.6534
1.65385
1.65438
1.65496
1.65555
1.65615
1.65674
1.65731
1.65785
1.65836
1.65885
1.6593
1.65972
1.66009
1.6604
1.66064
1.66085
1.661
1.66109
1.66113
1.66111
1.66103
1.66088
1.66067
1.66041
1.66012
1.65984
1.65958
1.65942
1.65921
1.65902
1.6592
1.6588
1.65801
1.65728
1.65668
1.65615
1.65571
1.65533
1.655
1.6547
1.65442
1.65416
1.65391
1.65366
1.65341
1.65316
1.65292
1.65268
1.65246
1.65225
1.65205
1.65186
1.65169
1.65154
1.6514
1.65127
1.65115
1.65105
1.65096
1.65087
1.6508
1.65073
1.65067
1.64863
1.64854
1.64844
1.64832
1.6482
1.64807
1.64793
1.64777
1.64759
1.64739
1.64717
1.64693
1.64668
1.64643
1.64618
1.64595
1.64575
1.6456
1.64554
1.64559
1.64573
1.64602
1.64663
1.64643
1.64739
1.64741
1.64754
1.64777
1.64817
1.64883
1.64981
1.65064
1.65144
1.65196
1.6523
1.65272
1.6532
1.65375
1.65436
1.655
1.65565
1.6563
1.65694
1.65756
1.65816
1.65873
1.65926
1.65976
1.66022
1.66063
1.66097
1.66124
1.66145
1.66162
1.66172
1.66177
1.66176
1.66169
1.66154
1.66134
1.66109
1.6608
1.66052
1.66024
1.66002
1.65977
1.65948
1.65939
1.65891
1.65816
1.65744
1.65681
1.65623
1.65571
1.65524
1.65481
1.65441
1.65403
1.65366
1.65331
1.65296
1.65262
1.65229
1.65197
1.65166
1.65136
1.65108
1.65082
1.65057
1.65033
1.65012
1.64991
1.64973
1.64955
1.64939
1.64924
1.6491
1.64897
1.64885
1.64873
1.64667
1.64659
1.6465
1.6464
1.6463
1.6462
1.64608
1.64596
1.64583
1.64569
1.64554
1.64538
1.64523
1.64507
1.64492
1.6448
1.6447
1.64465
1.64466
1.64474
1.64487
1.64506
1.64552
1.64542
1.64612
1.64632
1.64672
1.64711
1.6476
1.64824
1.64911
1.6499
1.65071
1.65135
1.6519
1.65247
1.65307
1.65371
1.65439
1.6551
1.65581
1.65652
1.65722
1.6579
1.65855
1.65917
1.65976
1.6603
1.66081
1.66126
1.66163
1.66192
1.66216
1.66234
1.66246
1.66252
1.66252
1.66246
1.66233
1.66214
1.66189
1.66161
1.66131
1.66099
1.6607
1.66038
1.65999
1.65974
1.65919
1.65843
1.65769
1.65701
1.65636
1.65576
1.65519
1.65466
1.65415
1.65367
1.6532
1.65275
1.65231
1.65188
1.65147
1.65106
1.65067
1.6503
1.64994
1.64961
1.64929
1.64898
1.6487
1.64843
1.64818
1.64794
1.64772
1.64751
1.64732
1.64713
1.64696
1.6468
1.64472
1.64465
1.64458
1.64451
1.64443
1.64435
1.64427
1.64418
1.64409
1.644
1.64391
1.64381
1.64372
1.64364
1.64357
1.64352
1.6435
1.64352
1.64357
1.64369
1.64386
1.64404
1.64445
1.64444
1.645
1.64529
1.6458
1.64631
1.6469
1.64757
1.64842
1.64921
1.65004
1.65078
1.65148
1.65219
1.65289
1.65363
1.65439
1.65516
1.65594
1.65672
1.65747
1.65821
1.65892
1.65959
1.66023
1.66082
1.66137
1.66186
1.66227
1.66259
1.66285
1.66305
1.66319
1.66327
1.66328
1.66323
1.66311
1.66293
1.66269
1.6624
1.66209
1.66173
1.66137
1.66098
1.66051
1.66014
1.65951
1.65871
1.65791
1.65717
1.65645
1.65577
1.65511
1.65448
1.65387
1.65329
1.65273
1.65218
1.65165
1.65113
1.65063
1.65015
1.64968
1.64923
1.6488
1.64839
1.648
1.64762
1.64727
1.64694
1.64662
1.64633
1.64605
1.64578
1.64553
1.64529
1.64507
1.64486
1.64276
1.64272
1.64267
1.64262
1.64257
1.64252
1.64247
1.64241
1.64236
1.64231
1.64226
1.64222
1.64219
1.64216
1.64215
1.64216
1.64219
1.64226
1.64237
1.64252
1.64274
1.64296
1.64339
1.64345
1.64393
1.64428
1.64484
1.64542
1.6461
1.64682
1.64772
1.64855
1.64941
1.65023
1.65104
1.65185
1.65267
1.6535
1.65434
1.65519
1.65603
1.65687
1.65768
1.65848
1.65924
1.65997
1.66066
1.6613
1.6619
1.66243
1.66287
1.66322
1.66351
1.66373
1.6639
1.66399
1.66402
1.66398
1.66388
1.6637
1.66346
1.66317
1.66283
1.66243
1.66202
1.66158
1.66105
1.66057
1.65985
1.65898
1.65811
1.6573
1.65651
1.65573
1.65498
1.65426
1.65356
1.65289
1.65223
1.6516
1.65098
1.65038
1.6498
1.64923
1.64868
1.64816
1.64765
1.64717
1.64671
1.64627
1.64585
1.64545
1.64507
1.64471
1.64437
1.64405
1.64374
1.64345
1.64318
1.64292
1.64081
1.64078
1.64075
1.64073
1.6407
1.64068
1.64066
1.64064
1.64062
1.64061
1.64061
1.64061
1.64062
1.64064
1.64069
1.64075
1.64084
1.64096
1.64111
1.64132
1.64157
1.64184
1.64229
1.64241
1.64286
1.64327
1.64388
1.64453
1.64528
1.64606
1.64701
1.64789
1.6488
1.64969
1.6506
1.65151
1.65242
1.65334
1.65426
1.65518
1.6561
1.657
1.65787
1.65873
1.65955
1.66033
1.66107
1.66177
1.66241
1.66298
1.66347
1.66385
1.66417
1.66442
1.66461
1.66473
1.66478
1.66476
1.66466
1.66449
1.66425
1.66394
1.66358
1.66316
1.66269
1.6622
1.66161
1.66103
1.66023
1.65928
1.65833
1.65744
1.65656
1.6557
1.65486
1.65404
1.65325
1.65248
1.65174
1.65102
1.65031
1.64963
1.64897
1.64832
1.6477
1.6471
1.64652
1.64596
1.64543
1.64492
1.64443
1.64397
1.64353
1.64311
1.64271
1.64232
1.64196
1.64162
1.64129
1.64098
1.63886
1.63885
1.63884
1.63884
1.63884
1.63884
1.63885
1.63886
1.63888
1.6389
1.63894
1.63898
1.63904
1.63911
1.6392
1.63931
1.63946
1.63963
1.63984
1.64008
1.64038
1.64069
1.64117
1.64131
1.64178
1.64225
1.64293
1.64365
1.64446
1.6453
1.64629
1.64724
1.64821
1.64917
1.65016
1.65117
1.65218
1.65318
1.65418
1.65517
1.65615
1.65712
1.65806
1.65897
1.65985
1.66069
1.66148
1.66223
1.66292
1.66354
1.66406
1.66449
1.66484
1.66513
1.66535
1.6655
1.66557
1.66556
1.66548
1.66532
1.66508
1.66476
1.66438
1.66392
1.66341
1.66286
1.66222
1.66155
1.66066
1.65963
1.65858
1.6576
1.65663
1.65568
1.65474
1.65384
1.65295
1.65209
1.65126
1.65045
1.64966
1.6489
1.64815
1.64743
1.64673
1.64605
1.6454
1.64477
1.64417
1.64359
1.64303
1.6425
1.64199
1.64151
1.64105
1.64061
1.64019
1.63978
1.6394
1.63904
1.6369
1.63692
1.63693
1.63695
1.63697
1.637
1.63704
1.63708
1.63713
1.63719
1.63726
1.63734
1.63744
1.63756
1.63769
1.63786
1.63805
1.63827
1.63853
1.63882
1.63916
1.63949
1.64
1.64026
1.64071
1.64124
1.64197
1.64276
1.64364
1.64453
1.64558
1.64659
1.64762
1.64865
1.64974
1.65083
1.65192
1.65301
1.65409
1.65515
1.6562
1.65723
1.65823
1.65921
1.66015
1.66104
1.66189
1.66269
1.66342
1.66409
1.66467
1.66514
1.66553
1.66586
1.66611
1.66629
1.66639
1.66641
1.66634
1.66619
1.66595
1.66563
1.66522
1.66473
1.66417
1.66356
1.66287
1.66212
1.66115
1.66002
1.65887
1.6578
1.65674
1.65569
1.65465
1.65365
1.65267
1.65172
1.65079
1.6499
1.64902
1.64817
1.64735
1.64655
1.64577
1.64502
1.64429
1.64359
1.64292
1.64227
1.64164
1.64104
1.64047
1.63992
1.6394
1.6389
1.63841
1.63795
1.63752
1.63711
1.63495
1.63498
1.63502
1.63506
1.63511
1.63516
1.63522
1.63529
1.63537
1.63546
1.63557
1.63569
1.63583
1.63598
1.63617
1.63637
1.63661
1.63688
1.63719
1.63753
1.63793
1.63832
1.6388
1.63915
1.63963
1.64021
1.641
1.64185
1.64281
1.64376
1.64487
1.64594
1.64703
1.64814
1.64931
1.65049
1.65166
1.65282
1.65397
1.65511
1.65623
1.65733
1.65839
1.65943
1.66043
1.66138
1.66229
1.66314
1.66393
1.66465
1.66527
1.66579
1.66623
1.6666
1.66689
1.66711
1.66724
1.66728
1.66724
1.6671
1.66687
1.66653
1.66611
1.66559
1.66498
1.66432
1.66357
1.66274
1.66169
1.66045
1.65921
1.65804
1.65687
1.65572
1.65459
1.65348
1.65241
1.65136
1.65034
1.64936
1.6484
1.64747
1.64656
1.64568
1.64483
1.644
1.6432
1.64242
1.64168
1.64096
1.64026
1.6396
1.63896
1.63834
1.63775
1.63719
1.63665
1.63613
1.63563
1.63517
1.633
1.63305
1.6331
1.63317
1.63324
1.63331
1.6334
1.6335
1.63361
1.63373
1.63387
1.63403
1.6342
1.6344
1.63462
1.63488
1.63516
1.63548
1.63584
1.63623
1.63667
1.63713
1.63763
1.63803
1.63854
1.63918
1.64003
1.64095
1.64196
1.64298
1.64416
1.64529
1.64644
1.64762
1.64887
1.65013
1.65138
1.65262
1.65385
1.65505
1.65624
1.6574
1.65854
1.65964
1.6607
1.66171
1.66267
1.66358
1.66442
1.6652
1.66587
1.66645
1.66694
1.66736
1.6677
1.66796
1.66812
1.6682
1.66818
1.66805
1.66782
1.66749
1.66704
1.66649
1.66584
1.66513
1.66432
1.66342
1.66228
1.66094
1.65959
1.65832
1.65705
1.65579
1.65455
1.65334
1.65217
1.65102
1.64991
1.64884
1.64779
1.64677
1.64579
1.64483
1.64389
1.64299
1.64211
1.64126
1.64044
1.63965
1.63889
1.63816
1.63745
1.63677
1.63612
1.63549
1.63489
1.63431
1.63375
1.63324
1.63105
1.63111
1.63119
1.63127
1.63136
1.63146
1.63158
1.6317
1.63184
1.63199
1.63216
1.63235
1.63257
1.63281
1.63307
1.63337
1.6337
1.63407
1.63447
1.63492
1.63541
1.63592
1.63646
1.6369
1.63744
1.63814
1.63904
1.64003
1.64112
1.6422
1.64344
1.64464
1.64585
1.6471
1.64842
1.64976
1.65109
1.6524
1.6537
1.65498
1.65624
1.65747
1.65867
1.65983
1.66095
1.66203
1.66305
1.66402
1.66492
1.66575
1.66648
1.66712
1.66767
1.66815
1.66854
1.66884
1.66905
1.66916
1.66916
1.66905
1.66883
1.66849
1.66803
1.66745
1.66676
1.666
1.66513
1.66416
1.66293
1.66149
1.66002
1.65865
1.65727
1.6559
1.65456
1.65324
1.65196
1.65072
1.64951
1.64834
1.6472
1.6461
1.64503
1.64399
1.64297
1.64199
1.64104
1.64011
1.63922
1.63836
1.63753
1.63672
1.63595
1.6352
1.63448
1.63379
1.63312
1.63248
1.63187
1.6313
1.62909
1.62918
1.62927
1.62938
1.62949
1.62961
1.62975
1.6299
1.63007
1.63025
1.63045
1.63068
1.63093
1.63121
1.63151
1.63185
1.63223
1.63264
1.6331
1.63359
1.63413
1.63469
1.63527
1.63577
1.63634
1.6371
1.63806
1.63911
1.64027
1.64141
1.64272
1.64398
1.64525
1.64657
1.64796
1.64937
1.65078
1.65217
1.65354
1.65489
1.65622
1.65752
1.65879
1.66002
1.66121
1.66235
1.66343
1.66446
1.66542
1.66631
1.66711
1.66781
1.66843
1.66896
1.66941
1.66976
1.67001
1.67016
1.67019
1.6701
1.66989
1.66955
1.66907
1.66847
1.66774
1.66693
1.66601
1.66496
1.66365
1.6621
1.66052
1.65904
1.65755
1.65607
1.65461
1.65319
1.6518
1.65045
1.64914
1.64788
1.64664
1.64545
1.64429
1.64316
1.64206
1.641
1.63997
1.63897
1.638
1.63707
1.63616
1.63529
1.63444
1.63363
1.63284
1.63209
1.63136
1.63066
1.62999
1.62936
1.62714
1.62724
1.62736
1.62748
1.62762
1.62776
1.62792
1.6281
1.62829
1.62851
1.62874
1.629
1.62929
1.6296
1.62995
1.63033
1.63075
1.63122
1.63172
1.63226
1.63286
1.63347
1.63409
1.63463
1.63524
1.63605
1.63707
1.63819
1.63941
1.64062
1.64199
1.64332
1.64464
1.64603
1.64749
1.64898
1.65046
1.65192
1.65337
1.65479
1.65619
1.65756
1.6589
1.6602
1.66145
1.66266
1.66382
1.66491
1.66594
1.66689
1.66776
1.66853
1.66922
1.66981
1.67032
1.67073
1.67103
1.67121
1.67128
1.67121
1.67101
1.67067
1.67018
1.66955
1.66879
1.66793
1.66696
1.66583
1.66444
1.66278
1.66109
1.65949
1.65789
1.6563
1.65472
1.65319
1.65169
1.65023
1.64881
1.64744
1.64611
1.64482
1.64357
1.64235
1.64117
1.64002
1.63891
1.63783
1.63678
1.63577
1.63479
1.63385
1.63293
1.63205
1.6312
1.63038
1.62959
1.62883
1.62811
1.62743
1.62518
1.6253
1.62544
1.62558
1.62574
1.62591
1.6261
1.6263
1.62652
1.62676
1.62703
1.62732
1.62764
1.628
1.62838
1.62881
1.62928
1.62978
1.63034
1.63093
1.63157
1.63223
1.6329
1.63349
1.63414
1.635
1.63607
1.63726
1.63855
1.63982
1.64125
1.64264
1.64403
1.64547
1.64701
1.64857
1.65012
1.65166
1.65318
1.65467
1.65615
1.65759
1.659
1.66037
1.6617
1.66298
1.66421
1.66538
1.66647
1.66749
1.66843
1.66928
1.67004
1.67071
1.67128
1.67174
1.67209
1.67232
1.67242
1.67238
1.67219
1.67185
1.67135
1.6707
1.66991
1.669
1.66797
1.66678
1.6653
1.66353
1.66172
1.66002
1.6583
1.65659
1.6549
1.65324
1.65163
1.65005
1.64853
1.64705
1.64562
1.64423
1.64288
1.64156
1.64029
1.63905
1.63785
1.63669
1.63556
1.63447
1.63342
1.6324
1.63142
1.63047
1.62955
1.62867
1.62782
1.627
1.62622
1.62549
1.62323
1.62337
1.62352
1.62369
1.62387
1.62406
1.62427
1.6245
1.62475
1.62502
1.62532
1.62564
1.626
1.62639
1.62682
1.62729
1.6278
1.62835
1.62895
1.6296
1.63029
1.631
1.6317
1.63234
1.63304
1.63394
1.63507
1.63633
1.63768
1.63901
1.6405
1.64195
1.64339
1.6449
1.64651
1.64814
1.64977
1.65138
1.65298
1.65455
1.6561
1.65761
1.6591
1.66055
1.66196
1.66332
1.66462
1.66586
1.66703
1.66812
1.66914
1.67006
1.6709
1.67164
1.67228
1.6728
1.6732
1.67348
1.67361
1.6736
1.67343
1.67309
1.67259
1.67192
1.67109
1.67015
1.66906
1.6678
1.66623
1.66436
1.66243
1.66062
1.65878
1.65695
1.65514
1.65336
1.65163
1.64994
1.6483
1.64671
1.64516
1.64366
1.64221
1.64079
1.63942
1.63809
1.6368
1.63555
1.63434
1.63317
1.63204
1.63095
1.62989
1.62887
1.62789
1.62695
1.62604
1.62517
1.62433
1.62355
1.62128
1.62144
1.62161
1.6218
1.622
1.62221
1.62245
1.6227
1.62298
1.62328
1.62361
1.62397
1.62436
1.62479
1.62526
1.62577
1.62632
1.62692
1.62757
1.62827
1.629
1.62976
1.6305
1.63119
1.63193
1.63288
1.63406
1.63538
1.63679
1.63819
1.63974
1.64125
1.64275
1.64432
1.646
1.6477
1.64941
1.65109
1.65276
1.65441
1.65604
1.65764
1.6592
1.66073
1.66222
1.66366
1.66505
1.66637
1.66762
1.66879
1.66988
1.67089
1.67181
1.67262
1.67333
1.67391
1.67437
1.6747
1.67487
1.67489
1.67473
1.67441
1.6739
1.67321
1.67235
1.67136
1.67023
1.66891
1.66725
1.66527
1.66323
1.6613
1.65934
1.65739
1.65546
1.65356
1.6517
1.64988
1.64812
1.64641
1.64475
1.64314
1.64157
1.64005
1.63857
1.63714
1.63575
1.63441
1.63311
1.63186
1.63065
1.62948
1.62835
1.62727
1.62622
1.62522
1.62425
1.62333
1.62244
1.62161
1.61932
1.6195
1.6197
1.6199
1.62013
1.62036
1.62062
1.6209
1.62121
1.62154
1.6219
1.62229
1.62272
1.62319
1.62369
1.62424
1.62484
1.62549
1.62619
1.62693
1.62771
1.62852
1.6293
1.63003
1.63081
1.63181
1.63305
1.63443
1.6359
1.63736
1.63897
1.64053
1.64209
1.64373
1.64547
1.64725
1.64903
1.6508
1.65254
1.65427
1.65598
1.65766
1.65931
1.66093
1.6625
1.66403
1.6655
1.66691
1.66824
1.66949
1.67067
1.67176
1.67276
1.67366
1.67443
1.67508
1.6756
1.67597
1.67619
1.67624
1.67611
1.67579
1.67528
1.67457
1.67369
1.67266
1.67148
1.67009
1.66835
1.66626
1.6641
1.66206
1.65998
1.65791
1.65585
1.65382
1.65183
1.6499
1.64801
1.64617
1.64439
1.64265
1.64097
1.63933
1.63774
1.6362
1.63471
1.63327
1.63188
1.63054
1.62925
1.628
1.6268
1.62565
1.62454
1.62348
1.62246
1.62148
1.62055
1.61967
1.61737
1.61757
1.61778
1.61801
1.61826
1.61852
1.6188
1.61911
1.61944
1.6198
1.62019
1.62062
1.62108
1.62159
1.62213
1.62273
1.62337
1.62406
1.6248
1.62559
1.62642
1.62727
1.62809
1.62887
1.62969
1.63073
1.63202
1.63347
1.635
1.63652
1.63818
1.6398
1.64142
1.64312
1.64493
1.64679
1.64864
1.65049
1.65232
1.65413
1.65592
1.65769
1.65943
1.66114
1.6628
1.66442
1.66599
1.66748
1.66891
1.67025
1.67151
1.67269
1.67377
1.67474
1.67559
1.67631
1.67689
1.67731
1.67757
1.67765
1.67755
1.67724
1.67673
1.67602
1.67511
1.67404
1.67281
1.67136
1.66954
1.66733
1.66506
1.6629
1.66071
1.65851
1.65632
1.65416
1.65204
1.64997
1.64795
1.64599
1.64407
1.64221
1.6404
1.63864
1.63694
1.63528
1.63369
1.63214
1.63066
1.62922
1.62784
1.62652
1.62525
1.62403
1.62286
1.62173
1.62066
1.61963
1.61865
1.61774
1.61542
1.61564
1.61587
1.61612
1.61639
1.61668
1.61699
1.61732
1.61768
1.61807
1.61849
1.61895
1.61945
1.61999
1.62058
1.62121
1.62189
1.62263
1.62342
1.62426
1.62513
1.62602
1.62688
1.6277
1.62856
1.62965
1.63098
1.63249
1.63409
1.63566
1.63738
1.63906
1.64073
1.64249
1.64438
1.64631
1.64825
1.65018
1.65209
1.65399
1.65587
1.65773
1.65956
1.66137
1.66313
1.66485
1.66651
1.6681
1.66962
1.67105
1.6724
1.67367
1.67484
1.67589
1.67682
1.67761
1.67824
1.67872
1.67903
1.67915
1.67907
1.67878
1.67827
1.67754
1.67661
1.67551
1.67424
1.67271
1.67081
1.6685
1.66611
1.66383
1.66151
1.65919
1.65687
1.65458
1.65232
1.65012
1.64796
1.64586
1.64381
1.64181
1.63987
1.63799
1.63616
1.63439
1.63268
1.63103
1.62944
1.62791
1.62644
1.62504
1.62369
1.6224
1.62116
1.61998
1.61886
1.61778
1.61676
1.6158
1.61346
1.6137
1.61396
1.61424
1.61453
1.61484
1.61517
1.61553
1.61592
1.61634
1.6168
1.61729
1.61782
1.6184
1.61902
1.61969
1.62042
1.6212
1.62204
1.62292
1.62384
1.62477
1.62567
1.62652
1.62743
1.62855
1.62994
1.6315
1.63316
1.63479
1.63656
1.6383
1.64003
1.64185
1.64382
1.64583
1.64785
1.64986
1.65186
1.65385
1.65583
1.65778
1.65972
1.66162
1.66348
1.6653
1.66707
1.66876
1.67038
1.67191
1.67335
1.67472
1.67597
1.6771
1.67811
1.67897
1.67967
1.68021
1.68056
1.68072
1.68067
1.6804
1.6799
1.67916
1.67821
1.67707
1.67575
1.67417
1.67218
1.66976
1.66724
1.66485
1.6624
1.65994
1.65749
1.65506
1.65267
1.65032
1.64803
1.64579
1.6436
1.64146
1.63939
1.63737
1.63541
1.63352
1.63169
1.62993
1.62823
1.62661
1.62505
1.62356
1.62213
1.62077
1.61947
1.61823
1.61705
1.61593
1.61486
1.61386
1.61151
1.61177
1.61205
1.61235
1.61267
1.613
1.61336
1.61375
1.61417
1.61462
1.6151
1.61563
1.61619
1.61681
1.61747
1.61818
1.61895
1.61977
1.62065
1.62158
1.62254
1.62351
1.62445
1.62534
1.62628
1.62744
1.62888
1.6305
1.63221
1.6339
1.63573
1.63753
1.63931
1.64121
1.64324
1.64534
1.64744
1.64954
1.65164
1.65372
1.6558
1.65786
1.65989
1.6619
1.66387
1.6658
1.66767
1.66947
1.67119
1.67282
1.67436
1.67582
1.67716
1.67838
1.67946
1.6804
1.68117
1.68177
1.68217
1.68238
1.68236
1.68211
1.68162
1.68088
1.6799
1.67874
1.67737
1.67572
1.67364
1.67111
1.66847
1.66595
1.66338
1.66078
1.65819
1.65562
1.65309
1.65059
1.64815
1.64577
1.64343
1.64116
1.63894
1.63679
1.6347
1.63268
1.63073
1.62886
1.62705
1.62533
1.62368
1.6221
1.62059
1.61916
1.61779
1.61649
1.61525
1.61408
1.61296
1.61192
1.60956
1.60984
1.61015
1.61047
1.61081
1.61117
1.61156
1.61197
1.61242
1.6129
1.61341
1.61397
1.61457
1.61522
1.61592
1.61667
1.61748
1.61834
1.61926
1.62023
1.62124
1.62224
1.62322
1.62414
1.62512
1.62632
1.6278
1.62949
1.63126
1.633
1.63489
1.63674
1.63858
1.64055
1.64266
1.64484
1.64704
1.64923
1.65142
1.65361
1.65578
1.65794
1.66009
1.6622
1.66429
1.66633
1.66831
1.67022
1.67205
1.67378
1.67543
1.67698
1.67842
1.67972
1.68089
1.6819
1.68275
1.68341
1.68388
1.68413
1.68415
1.68392
1.68344
1.6827
1.68171
1.68051
1.67909
1.67738
1.67521
1.67256
1.66979
1.66714
1.66443
1.6617
1.65896
1.65625
1.65357
1.65093
1.64834
1.6458
1.64332
1.6409
1.63855
1.63625
1.63403
1.63188
1.62981
1.62782
1.62591
1.62408
1.62233
1.62066
1.61908
1.61757
1.61613
1.61477
1.61347
1.61224
1.61107
1.60998
1.60761
1.60791
1.60824
1.60858
1.60895
1.60934
1.60975
1.61019
1.61067
1.61118
1.61172
1.61231
1.61295
1.61363
1.61437
1.61516
1.61601
1.61691
1.61787
1.61888
1.61993
1.62097
1.62197
1.62293
1.62394
1.62518
1.62671
1.62846
1.63029
1.63209
1.63403
1.63594
1.63784
1.63988
1.64207
1.64434
1.64663
1.64892
1.65121
1.6535
1.65578
1.65805
1.66031
1.66254
1.66474
1.66689
1.66899
1.67102
1.67296
1.6748
1.67656
1.67821
1.67974
1.68114
1.68239
1.68349
1.68441
1.68515
1.68567
1.68598
1.68604
1.68584
1.68537
1.68463
1.68362
1.68239
1.68093
1.67915
1.67689
1.67411
1.67121
1.66843
1.66558
1.6627
1.65981
1.65694
1.65411
1.65132
1.64857
1.64589
1.64326
1.64069
1.63819
1.63576
1.6334
1.63113
1.62893
1.62682
1.6248
1.62286
1.62102
1.61926
1.61759
1.616
1.61449
1.61306
1.6117
1.61041
1.60919
1.60804
1.60565
1.60598
1.60633
1.6067
1.60709
1.60751
1.60795
1.60842
1.60892
1.60946
1.61004
1.61066
1.61133
1.61205
1.61282
1.61365
1.61453
1.61547
1.61647
1.61752
1.6186
1.61968
1.62072
1.62171
1.62276
1.62403
1.62561
1.62741
1.6293
1.63116
1.63316
1.63513
1.63709
1.6392
1.64148
1.64384
1.64623
1.64862
1.65101
1.65341
1.6558
1.65818
1.66055
1.6629
1.66522
1.66749
1.66971
1.67186
1.67391
1.67588
1.67774
1.67949
1.68113
1.68263
1.68398
1.68516
1.68617
1.68698
1.68757
1.68793
1.68804
1.68788
1.68743
1.68668
1.68566
1.6844
1.68289
1.68103
1.67868
1.67578
1.67274
1.66981
1.66681
1.66378
1.66074
1.65771
1.65472
1.65177
1.64887
1.64603
1.64325
1.64053
1.63789
1.63532
1.63283
1.63042
1.6281
1.62587
1.62374
1.6217
1.61975
1.6179
1.61615
1.61447
1.61289
1.61138
1.60995
1.6086
1.60732
1.60611
1.6037
1.60405
1.60443
1.60482
1.60524
1.60568
1.60615
1.60665
1.60718
1.60775
1.60836
1.60901
1.60971
1.61046
1.61127
1.61213
1.61305
1.61403
1.61507
1.61615
1.61727
1.61838
1.61945
1.62048
1.62155
1.62286
1.62449
1.62635
1.6283
1.63022
1.63228
1.6343
1.63633
1.63852
1.64089
1.64334
1.64583
1.64832
1.65082
1.65333
1.65583
1.65833
1.66082
1.66329
1.66573
1.66813
1.67047
1.67273
1.67492
1.677
1.67898
1.68084
1.68258
1.68419
1.68564
1.68692
1.68802
1.68891
1.68958
1.69
1.69016
1.69004
1.68961
1.68887
1.68783
1.68653
1.68497
1.68305
1.68059
1.67756
1.67437
1.67129
1.66814
1.66494
1.66174
1.65855
1.65539
1.65228
1.64922
1.64622
1.64329
1.64043
1.63764
1.63493
1.6323
1.62976
1.62732
1.62498
1.62273
1.62059
1.61854
1.6166
1.61475
1.61299
1.61132
1.60974
1.60823
1.6068
1.60545
1.60418
1.60174
1.60212
1.60252
1.60294
1.60339
1.60385
1.60435
1.60488
1.60544
1.60604
1.60667
1.60736
1.60809
1.60887
1.60971
1.61061
1.61157
1.61258
1.61365
1.61477
1.61592
1.61706
1.61817
1.61923
1.62034
1.62168
1.62336
1.62527
1.62728
1.62926
1.63138
1.63347
1.63557
1.63783
1.64029
1.64284
1.64543
1.64803
1.65064
1.65326
1.65588
1.6585
1.66111
1.6637
1.66626
1.66879
1.67125
1.67365
1.67596
1.67817
1.68027
1.68225
1.68411
1.68582
1.68738
1.68877
1.68997
1.69095
1.6917
1.69219
1.69241
1.69232
1.69192
1.69118
1.69013
1.6888
1.68719
1.68519
1.68263
1.67946
1.67611
1.67288
1.66957
1.6662
1.66283
1.65947
1.65614
1.65286
1.64963
1.64648
1.64339
1.64038
1.63744
1.63459
1.63183
1.62917
1.6266
1.62414
1.62178
1.61953
1.61739
1.61534
1.6134
1.61155
1.60979
1.60812
1.60654
1.60503
1.6036
1.60225
1.59979
1.60019
1.60062
1.60106
1.60153
1.60203
1.60255
1.6031
1.60369
1.60432
1.60499
1.6057
1.60647
1.60728
1.60815
1.60908
1.61007
1.61112
1.61223
1.61338
1.61456
1.61573
1.61687
1.61796
1.6191
1.62049
1.62221
1.62418
1.62625
1.62829
1.63047
1.63263
1.63479
1.63714
1.63969
1.64234
1.64504
1.64774
1.65047
1.6532
1.65594
1.65868
1.66141
1.66413
1.66682
1.66947
1.67207
1.6746
1.67704
1.67938
1.68161
1.68372
1.6857
1.68754
1.68922
1.69071
1.69202
1.6931
1.69393
1.6945
1.69478
1.69474
1.69437
1.69364
1.69258
1.69122
1.68955
1.68748
1.68481
1.68149
1.67798
1.67459
1.6711
1.66756
1.66401
1.66047
1.65697
1.65351
1.65012
1.6468
1.64356
1.64039
1.63731
1.63432
1.63143
1.62863
1.62594
1.62336
1.6209
1.61854
1.61629
1.61414
1.6121
1.61015
1.6083
1.60654
1.60486
1.60327
1.60176
1.60033
1.59784
1.59826
1.59871
1.59918
1.59968
1.6002
1.60075
1.60133
1.60195
1.6026
1.6033
1.60405
1.60484
1.60569
1.60659
1.60755
1.60857
1.60965
1.61079
1.61197
1.61318
1.61439
1.61555
1.61668
1.61786
1.61928
1.62105
1.62308
1.62521
1.62731
1.62955
1.63177
1.63401
1.63644
1.63908
1.64184
1.64464
1.64746
1.6503
1.65315
1.65601
1.65887
1.66173
1.66457
1.6674
1.67018
1.67292
1.67558
1.67816
1.68064
1.683
1.68525
1.68736
1.68933
1.69113
1.69275
1.69417
1.69535
1.69629
1.69694
1.69729
1.6973
1.69696
1.69625
1.69518
1.69378
1.69207
1.68991
1.68713
1.68366
1.67998
1.67642
1.67275
1.66903
1.6653
1.66158
1.65789
1.65426
1.6507
1.64721
1.64381
1.64049
1.63726
1.63413
1.63109
1.62817
1.62536
1.62266
1.62007
1.6176
1.61524
1.61299
1.61084
1.60879
1.60684
1.60498
1.60321
1.60152
1.59992
1.59841
1.59588
1.59633
1.5968
1.5973
1.59782
1.59837
1.59894
1.59955
1.6002
1.60088
1.60161
1.60238
1.6032
1.60408
1.60501
1.60601
1.60706
1.60817
1.60934
1.61055
1.61179
1.61302
1.61422
1.61538
1.61659
1.61806
1.61987
1.62196
1.62416
1.62632
1.62862
1.63091
1.63322
1.63573
1.63847
1.64133
1.64425
1.64718
1.65013
1.6531
1.65608
1.65906
1.66205
1.66503
1.66799
1.67091
1.67379
1.67659
1.67932
1.68194
1.68444
1.68683
1.68909
1.69119
1.69313
1.69488
1.69642
1.69772
1.69876
1.6995
1.69992
1.7
1.69969
1.699
1.69793
1.69651
1.69474
1.6925
1.68961
1.68598
1.68213
1.67839
1.67454
1.67063
1.6667
1.66279
1.65892
1.65511
1.65138
1.64772
1.64415
1.64068
1.6373
1.63402
1.63085
1.62779
1.62484
1.62202
1.61931
1.61672
1.61424
1.61188
1.60962
1.60746
1.6054
1.60344
1.60157
1.59978
1.59809
1.59649
1.59392
1.5944
1.59489
1.59542
1.59596
1.59653
1.59714
1.59777
1.59844
1.59915
1.59991
1.60071
1.60156
1.60247
1.60343
1.60445
1.60553
1.60668
1.60788
1.60912
1.61039
1.61165
1.61288
1.61407
1.61532
1.61682
1.61868
1.62083
1.62309
1.62531
1.62768
1.63003
1.63241
1.63501
1.63785
1.64082
1.64384
1.64689
1.64996
1.65304
1.65615
1.65926
1.66238
1.66549
1.66859
1.67166
1.67468
1.67763
1.6805
1.68327
1.68593
1.68847
1.69088
1.69313
1.69522
1.69711
1.69878
1.7002
1.70135
1.70219
1.7027
1.70284
1.70258
1.70191
1.70084
1.69939
1.69757
1.69526
1.69225
1.68847
1.68443
1.68051
1.67647
1.67237
1.66825
1.66414
1.66008
1.65609
1.65218
1.64835
1.64462
1.64098
1.63744
1.63401
1.63069
1.62749
1.62441
1.62145
1.61861
1.61589
1.61329
1.6108
1.60842
1.60615
1.60398
1.60191
1.59993
1.59805
1.59626
1.59457
1.59197
1.59246
1.59298
1.59353
1.5941
1.59469
1.59532
1.59598
1.59668
1.59742
1.5982
1.59903
1.5999
1.60084
1.60183
1.60288
1.604
1.60517
1.6064
1.60767
1.60897
1.61027
1.61152
1.61274
1.61403
1.61557
1.61748
1.61969
1.62201
1.62429
1.62672
1.62914
1.6316
1.63428
1.63722
1.6403
1.64343
1.64659
1.64978
1.65299
1.65621
1.65946
1.66271
1.66596
1.6692
1.67241
1.67559
1.6787
1.68172
1.68465
1.68747
1.69017
1.69274
1.69515
1.69739
1.69943
1.70124
1.7028
1.70406
1.70502
1.70561
1.70583
1.70563
1.70499
1.70393
1.70246
1.70059
1.6982
1.69508
1.69113
1.68691
1.6828
1.67856
1.67426
1.66995
1.66565
1.6614
1.65722
1.65312
1.64912
1.64521
1.64141
1.63771
1.63412
1.63065
1.62729
1.62406
1.62096
1.61797
1.61511
1.61237
1.60975
1.60725
1.60485
1.60257
1.60038
1.5983
1.59632
1.59443
1.59266
1.59001
1.59052
1.59107
1.59163
1.59223
1.59285
1.5935
1.59418
1.59491
1.59567
1.59648
1.59733
1.59824
1.5992
1.60022
1.6013
1.60244
1.60365
1.60491
1.60621
1.60754
1.60887
1.61015
1.61141
1.61272
1.6143
1.61627
1.61853
1.62091
1.62325
1.62575
1.62823
1.63077
1.63354
1.63658
1.63977
1.64301
1.64628
1.64958
1.65292
1.65627
1.65964
1.66303
1.66642
1.66981
1.67318
1.67651
1.67978
1.68298
1.68607
1.68906
1.69193
1.69466
1.69724
1.69965
1.70184
1.7038
1.7055
1.7069
1.70797
1.70867
1.70897
1.70884
1.70824
1.70719
1.70571
1.7038
1.70134
1.6981
1.694
1.68958
1.68529
1.68085
1.67635
1.67183
1.66733
1.66288
1.65851
1.65423
1.65004
1.64596
1.64198
1.63811
1.63436
1.63072
1.6272
1.62381
1.62054
1.6174
1.61439
1.6115
1.60874
1.6061
1.60357
1.60116
1.59886
1.59667
1.59458
1.5926
1.59074
1.58804
1.58858
1.58915
1.58974
1.59035
1.59099
1.59167
1.59238
1.59312
1.59391
1.59474
1.59562
1.59655
1.59754
1.59859
1.59969
1.60087
1.6021
1.6034
1.60474
1.6061
1.60746
1.60877
1.61006
1.61141
1.61303
1.61504
1.61736
1.6198
1.6222
1.62476
1.62731
1.62992
1.63278
1.63592
1.63921
1.64257
1.64595
1.64938
1.65283
1.65631
1.65982
1.66335
1.66689
1.67043
1.67396
1.67745
1.68089
1.68426
1.68753
1.6907
1.69374
1.69665
1.69941
1.70198
1.70435
1.70647
1.70832
1.70986
1.71106
1.71188
1.71228
1.71222
1.71168
1.71065
1.70917
1.70723
1.70469
1.70134
1.69708
1.69248
1.68799
1.68335
1.67864
1.67392
1.66921
1.66456
1.65999
1.65552
1.65114
1.64688
1.64271
1.63867
1.63473
1.63091
1.62722
1.62365
1.62021
1.6169
1.61372
1.61068
1.60776
1.60497
1.60231
1.59977
1.59735
1.59504
1.59285
1.59078
1.58882
1.58608
1.58663
1.58722
1.58783
1.58847
1.58913
1.58983
1.59056
1.59133
1.59214
1.59299
1.59389
1.59485
1.59586
1.59694
1.59807
1.59928
1.60054
1.60187
1.60325
1.60464
1.60603
1.60738
1.60869
1.61008
1.61174
1.61381
1.61618
1.61868
1.62113
1.62375
1.62637
1.62905
1.632
1.63524
1.63864
1.6421
1.6456
1.64914
1.65272
1.65634
1.65998
1.66366
1.66735
1.67105
1.67474
1.67841
1.68203
1.68557
1.68903
1.69238
1.69561
1.6987
1.70164
1.7044
1.70694
1.70923
1.71125
1.71295
1.71429
1.71524
1.71575
1.71579
1.71531
1.71433
1.71285
1.71088
1.70827
1.70483
1.7004
1.69561
1.69093
1.68609
1.68117
1.67623
1.67132
1.66646
1.66169
1.65701
1.65244
1.64797
1.64362
1.63937
1.63524
1.63123
1.62735
1.62359
1.61996
1.61647
1.61312
1.6099
1.60682
1.60388
1.60108
1.5984
1.59586
1.59343
1.59113
1.58896
1.58691
1.58412
1.58469
1.58529
1.58592
1.58658
1.58726
1.58798
1.58873
1.58952
1.59035
1.59123
1.59215
1.59313
1.59417
1.59527
1.59643
1.59766
1.59896
1.60032
1.60173