/*--------------------------------*- C++ -*----------------------------------*\
  =========                 |
  \\      /  F ield         | OpenFOAM: The Open Source CFD Toolbox
   \\    /   O peration     | Website:  https://openfoam.org
    \\  /    A nd           | Version:  9
     \\/     M anipulation  |
\*---------------------------------------------------------------------------*/
FoamFile
{
    format      ascii;
    class       volScalarField;
    location    "0.09";
    object      p_rgh;
}
// * * * * * * * * * * * * * * * * * * * * * * * * * * * * * * * * * * * * * //

dimensions      [1 -1 -2 0 0 0 0];

internalField   nonuniform List<scalar> 
20000
(
4.44627e-06
-4.54029e-05
-0.000147221
-0.000283483
-0.000459011
-0.000688819
-0.000991021
-0.00138515
-0.00188927
-0.00251596
-0.00326816
-0.0041357
-0.00509367
-0.00610232
-0.00710767
-0.0080408
-0.00881359
-0.0093078
-0.00936067
-0.00874406
-0.00727874
-0.00532191
-0.00564702
-0.00831902
-0.00206932
-0.00289528
-0.00679493
-0.00854172
-0.0079777
-0.00595403
-0.00334301
-0.00171624
-0.00100583
-0.00164521
-0.00280798
-0.00334371
-0.00327199
-0.00291828
-0.00246364
-0.00197834
-0.00149247
-0.0010264
-0.000589737
-0.000179841
0.000211777
0.000590803
0.000955187
0.00129418
0.00159023
0.00182655
0.0020027
0.00213477
0.0022364
0.0023029
0.00232658
0.00230614
0.00223706
0.00209873
0.00186982
0.0015614
0.001233
0.000981798
0.000930914
0.00115518
0.00144008
0.000861656
0.000535772
0.00191072
0.00171537
0.000348631
-0.000663456
-0.00117438
-0.00140865
-0.00146897
-0.00142154
-0.00131066
-0.00117329
-0.00103862
-0.000926679
-0.000847587
-0.000802843
-0.000787488
-0.000792048
-0.000805063
-0.000816173
-0.000817956
-0.000806247
-0.000779944
-0.000740198
-0.000689546
-0.000631198
-0.000568506
-0.000504603
-0.000442115
-0.000382851
-0.000327397
-0.000274638
-0.000220678
-0.000159261
-7.90777e-05
1.65152e-05
-2.16989e-05
-0.000117377
-0.000239225
-0.00038622
-0.000566232
-0.000787358
-0.00105877
-0.00138991
-0.00178845
-0.00225779
-0.0027946
-0.00338669
-0.00401171
-0.00463678
-0.00521929
-0.00570961
-0.0060586
-0.00624388
-0.00632594
-0.00646926
-0.00664986
-0.00692148
-0.00728468
-0.00201591
-0.0013186
-0.00315235
-0.00445961
-0.00471536
-0.00410376
-0.00290846
-0.00167374
-0.000261126
0.000116188
-0.000377848
-0.000731998
-0.000710044
-0.000417042
1.24912e-05
0.000499657
0.00100814
0.00151706
0.00201124
0.00248186
0.00292674
0.0033464
0.00373936
0.00410078
0.00442532
0.00471019
0.00496047
0.00518413
0.00537564
0.00551548
0.0055948
0.0056175
0.00559187
0.00550778
0.00534747
0.00511149
0.00483231
0.00455697
0.00431179
0.00406375
0.00388399
0.00342369
0.00350906
0.00481603
0.00472806
0.00362523
0.00263764
0.00198734
0.00154314
0.00124742
0.00105303
0.000924335
0.000836954
0.000774649
0.000725714
0.00068036
0.000630164
0.000569278
0.000495964
0.000412467
0.0003234
0.000234043
0.000148821
7.06528e-05
1.05975e-06
-5.94817e-05
-0.000111113
-0.000154183
-0.000188886
-0.000214951
-0.000231368
-0.000236148
-0.000226239
-0.000197045
-0.000145024
-7.48915e-05
-2.15428e-05
-9.98484e-05
-0.000208274
-0.000330687
-0.000472366
-0.000640471
-0.000839873
-0.0010756
-0.00135242
-0.00167357
-0.0020395
-0.00244658
-0.00288614
-0.00334396
-0.0038004
-0.00423176
-0.00461301
-0.00492185
-0.00514456
-0.00528066
-0.00531416
-0.00504259
-0.0046133
-0.00518415
-0.0022099
-0.00194692
-0.00267042
-0.00309202
-0.00305968
-0.00250144
-0.00147913
-0.000516399
0.000575568
0.00102164
0.000931557
0.000922019
0.00111041
0.0014704
0.00193698
0.0024594
0.00300645
0.00355697
0.00409608
0.00461473
0.00510881
0.00557638
0.00601496
0.00642084
0.00679041
0.00711723
0.00739543
0.00763047
0.00782562
0.00797239
0.00806221
0.00809551
0.0080746
0.00799349
0.00784311
0.007626
0.00736355
0.00708471
0.00681118
0.00654745
0.00638925
0.00608974
0.00598548
0.00664072
0.00640347
0.00553478
0.00471886
0.00410473
0.00361506
0.00323295
0.00293213
0.00268953
0.00248654
0.00230884
0.00214577
0.00198912
0.00183301
0.00167424
0.00151238
0.00134934
0.00118821
0.00103236
0.000884626
0.000746965
0.000620563
0.00050599
0.00040341
0.000312786
0.000234023
0.000167049
0.000111788
6.80827e-05
3.55754e-05
1.42632e-05
2.79328e-06
-5.52191e-06
-3.52567e-05
-0.000125309
-0.00023365
-0.000351353
-0.000483054
-0.00063413
-0.000808361
-0.0010096
-0.00124122
-0.00150525
-0.00180159
-0.0021273
-0.00247602
-0.00283779
-0.00319918
-0.0035437
-0.00385232
-0.00410268
-0.00426452
-0.00430035
-0.0041822
-0.00376295
-0.00303131
-0.00337398
-0.00178699
-0.00189113
-0.00216
-0.00215591
-0.00187
-0.00120395
-0.000146178
0.000762613
0.00162338
0.00203649
0.00216865
0.00240617
0.0027575
0.0032146
0.00374574
0.00432106
0.00491715
0.00551509
0.00610144
0.00666819
0.00721106
0.00772711
0.00821318
0.00866564
0.00908116
0.00944985
0.0097575
0.010007
0.0102078
0.0103584
0.0104542
0.0104941
0.0104762
0.0103951
0.0102455
0.0100316
0.00976999
0.00948355
0.00920177
0.00894072
0.00878177
0.00857258
0.00837777
0.00856008
0.00816195
0.00737682
0.00663952
0.00603744
0.00551475
0.00507075
0.0046901
0.00435813
0.00406093
0.00378642
0.0035252
0.00327055
0.00301868
0.00276846
0.00252097
0.00227857
0.00204404
0.00181991
0.00160814
0.00140999
0.00122615
0.00105678
0.00090169
0.000760435
0.000632371
0.000516728
0.000412622
0.000319005
0.00023473
0.000159121
9.15931e-05
2.88367e-05
-4.25781e-05
-0.000135609
-0.000239877
-0.000350878
-0.000470803
-0.000602542
-0.000748254
-0.000910136
-0.00109009
-0.00128925
-0.00150749
-0.00174291
-0.00199129
-0.00224569
-0.00249606
-0.00272895
-0.00292749
-0.00307139
-0.00313395
-0.00308695
-0.00294624
-0.00265553
-0.00204725
-0.00224651
-0.00128605
-0.00126321
-0.00113536
-0.000903501
-0.000502143
0.000158599
0.00112949
0.00196662
0.00276477
0.0032823
0.00362352
0.00404774
0.00452813
0.00507874
0.00568261
0.00631974
0.00697218
0.0076243
0.00826457
0.00888535
0.00948165
0.0100495
0.0105852
0.0110847
0.0115446
0.0119531
0.0122917
0.0125622
0.0127778
0.0129406
0.0130475
0.0130963
0.0130849
0.0130096
0.0128677
0.0126635
0.0124104
0.0121271
0.0118404
0.0115595
0.0113414
0.0110963
0.0108006
0.0107193
0.0102315
0.00948148
0.00875939
0.00813051
0.00755311
0.00703376
0.0065635
0.00613283
0.00573214
0.00535291
0.00498853
0.0046344
0.00428801
0.00394877
0.00361749
0.00329588
0.00298586
0.00268925
0.00240746
0.00214142
0.00189157
0.00165794
0.00144019
0.00123772
0.00104972
0.000875254
0.000713304
0.000562773
0.000422477
0.000291752
0.000170241
5.72123e-05
-4.04767e-05
-0.000124086
-0.000214601
-0.000309559
-0.00040982
-0.000516804
-0.000631373
-0.000754266
-0.000885994
-0.00102658
-0.00117529
-0.00133029
-0.00148832
-0.00164427
-0.0017908
-0.0019179
-0.00201335
-0.00206453
-0.00205723
-0.00197366
-0.00183945
-0.00165622
-0.00119634
-0.00129748
-0.000597884
-0.000393514
1.06823e-05
0.000398566
0.000887666
0.00152575
0.00239996
0.0031836
0.00399146
0.00463791
0.00518778
0.00576053
0.00635581
0.00699835
0.00767842
0.00838234
0.00909617
0.00980722
0.0105056
0.0111837
0.0118359
0.0124574
0.0130437
0.0135905
0.0140945
0.0145427
0.0149138
0.0152089
0.0154445
0.0156253
0.0157478
0.0158094
0.0158088
0.0157439
0.0156137
0.0154221
0.0151788
0.0148975
0.0145988
0.0142811
0.0139859
0.013663
0.0132729
0.0130307
0.0124755
0.0117204
0.0109735
0.0102955
0.00964926
0.00904507
0.00847897
0.00794579
0.00743968
0.00695531
0.00648844
0.00603599
0.00559607
0.00516796
0.00475195
0.004349
0.0039604
0.00358748
0.00323134
0.00289276
0.00257212
0.00226945
0.00198443
0.00171649
0.00146486
0.00122864
0.00100685
0.000798433
0.000602251
0.000417581
0.000244167
8.23583e-05
-3.39633e-05
-0.000100945
-0.000171484
-0.00024432
-0.000319867
-0.000398814
-0.000481361
-0.000567552
-0.000657185
-0.0007496
-0.000843505
-0.000936849
-0.00102668
-0.00110897
-0.00117835
-0.00122796
-0.00124952
-0.00123511
-0.00117736
-0.00106051
-0.000896442
-0.000713225
-0.00029687
-0.000309651
0.000244587
0.000542276
0.00105327
0.00155821
0.00214747
0.00281559
0.00367246
0.00445761
0.00528771
0.00603003
0.00672937
0.00743416
0.00814244
0.00887918
0.00963868
0.0104129
0.0111913
0.0119636
0.0127214
0.0134574
0.0141655
0.0148407
0.015478
0.0160727
0.0166215
0.0171106
0.017516
0.0178382
0.0180965
0.018298
0.0184387
0.0185163
0.0185294
0.0184766
0.0183577
0.0181755
0.017937
0.017651
0.0173334
0.0169781
0.0166185
0.0162291
0.0157628
0.01539
0.0147566
0.0139587
0.0131605
0.012422
0.0117027
0.0110137
0.0103548
0.00972454
0.00911969
0.0085371
0.00797392
0.00742789
0.00689746
0.00638196
0.0058815
0.00539679
0.00492889
0.00447891
0.00404782
0.00363627
0.00324461
0.00287284
0.00252066
0.00218755
0.00187275
0.0015754
0.0012945
0.00102899
0.000777746
0.000540085
0.000315739
0.000106153
-2.60062e-05
-7.40959e-05
-0.00012284
-0.000172075
-0.000221893
-0.000272442
-0.000323604
-0.000375138
-0.000426533
-0.000476848
-0.00052466
-0.00056803
-0.000604379
-0.000630262
-0.000641269
-0.000632159
-0.00059679
-0.000528955
-0.000423561
-0.000265857
-5.44387e-05
0.000171807
0.000596181
0.000664812
0.00114243
0.00149052
0.00205313
0.00263308
0.00330947
0.00403414
0.00492876
0.00575904
0.00662399
0.00743846
0.00824688
0.00906413
0.00987857
0.0107084
0.0115488
0.0123955
0.0132405
0.0140756
0.0148935
0.0156875
0.0164516
0.0171805
0.0178691
0.0185124
0.0191071
0.0196389
0.0200814
0.0204342
0.0207193
0.0209448
0.021107
0.0212039
0.0212334
0.0211943
0.021086
0.0209102
0.0206718
0.0203757
0.0200356
0.0196446
0.0192306
0.0187878
0.0182625
0.0177789
0.0170598
0.0161917
0.015322
0.0145128
0.0137156
0.0129415
0.0121928
0.0114701
0.010772
0.0100968
0.00944244
0.00880715
0.00818962
0.00758926
0.00700619
0.00644107
0.0058949
0.00536869
0.00486331
0.00437934
0.0039171
0.00347656
0.00305747
0.0026593
0.00228135
0.00192279
0.00158265
0.00125988
0.000953359
0.000662477
0.000387028
0.000129545
-1.74252e-05
-4.62678e-05
-7.35103e-05
-9.96752e-05
-0.000124503
-0.000147752
-0.000169127
-0.000188156
-0.000204034
-0.000215574
-0.000221272
-0.000219334
-0.000207537
-0.000182944
-0.000141745
-7.94069e-05
9.39989e-06
0.000130321
0.000286716
0.000489517
0.000746879
0.00101671
0.00145854
0.00157824
0.00203094
0.00243855
0.00305714
0.0037025
0.00445133
0.00523257
0.00617763
0.00706531
0.00797701
0.00886264
0.0097676
0.0106844
0.0115962
0.0125151
0.0134356
0.0143556
0.0152686
0.0161678
0.0170467
0.0178995
0.0187203
0.0195037
0.0202444
0.0209374
0.021579
0.0221549
0.0226374
0.023025
0.0233414
0.0235951
0.0237831
0.0239028
0.0239518
0.0239286
0.0238321
0.0236626
0.0234234
0.0231166
0.0227539
0.0223293
0.0218647
0.0213687
0.0207869
0.020207
0.0194034
0.0184531
0.0174997
0.0166108
0.0157296
0.0148674
0.0140278
0.013213
0.0124228
0.0116564
0.0109126
0.0101898
0.00948701
0.00880351
0.00813938
0.00749518
0.00687178
0.00627009
0.00569086
0.00513464
0.0046017
0.00409205
0.00360546
0.00314149
0.00269949
0.00227867
0.00187813
0.00149682
0.00113369
0.000788161
0.000460136
0.000153388
-8.17621e-06
-1.73862e-05
-2.34427e-05
-2.68945e-05
-2.72804e-05
-2.41592e-05
-1.70535e-05
-5.21529e-06
1.24333e-05
3.72619e-05
7.08471e-05
0.000114961
0.000171745
0.000243992
0.000335171
0.000449088
0.000590055
0.000763102
0.000970418
0.00121852
0.00151766
0.00182604
0.00230885
0.00244261
0.0029132
0.00338693
0.00406651
0.00477985
0.00559625
0.00643189
0.00742795
0.00837412
0.00934043
0.0103013
0.0112991
0.0123086
0.0133113
0.014315
0.0153141
0.0163073
0.0172888
0.0182528
0.019194
0.0201065
0.0209851
0.0218241
0.0226181
0.0233617
0.0240514
0.0246731
0.0251985
0.0256255
0.025978
0.026265
0.0264835
0.0266301
0.0267024
0.0266983
0.0266159
0.0264545
0.0262157
0.0258993
0.0255149
0.0250572
0.0245432
0.0239912
0.0233514
0.0226847
0.0217989
0.0207599
0.0197149
0.0187392
0.0177678
0.0168128
0.0158793
0.0149701
0.0140864
0.0132281
0.0123946
0.0115846
0.0107969
0.0100309
0.00928627
0.00856352
0.00786328
0.0071863
0.00653322
0.00590453
0.0053005
0.00472117
0.00416637
0.00363573
0.00312866
0.00264444
0.0021822
0.00174094
0.00131964
0.000917848
0.000535564
0.000177972
1.32699e-06
1.18472e-05
2.67656e-05
4.57682e-05
6.93453e-05
9.80572e-05
0.000132601
0.000173982
0.000223505
0.000282699
0.000353228
0.000436861
0.000535665
0.000652323
0.000790141
0.000952516
0.00114289
0.0013655
0.00162187
0.00191538
0.00225482
0.00258379
0.00309318
0.0033523
0.00380917
0.00433441
0.00506994
0.00585154
0.00673533
0.00762842
0.00867966
0.00968686
0.0107119
0.0117479
0.0128336
0.0139308
0.01502
0.0161054
0.0171814
0.0182471
0.0192973
0.0203269
0.0213309
0.0223043
0.0232417
0.0241374
0.024986
0.0257818
0.0265211
0.0271905
0.0277624
0.0282337
0.0286275
0.0289532
0.029207
0.0293852
0.029485
0.0295035
0.0294382
0.029287
0.0290499
0.0287251
0.0283195
0.0278292
0.0272676
0.02666
0.0259626
0.0252147
0.0242464
0.0231127
0.0219697
0.0209012
0.0198342
0.0187821
0.017751
0.0167449
0.0157658
0.0148144
0.0138904
0.0129926
0.0121198
0.0112711
0.010446
0.00964472
0.00886762
0.00811528
0.00738823
0.00668689
0.0060115
0.00536213
0.00473863
0.00414068
0.00356775
0.00301917
0.00249411
0.00199165
0.00151081
0.00105127
0.000613225
0.000203367
1.06459e-05
4.05386e-05
7.60782e-05
0.000116994
0.000163849
0.000217423
0.000278566
0.00034839
0.000428332
0.000520101
0.00062551
0.00074638
0.000884741
0.00104319
0.00122488
0.00143295
0.00167044
0.0019412
0.00224713
0.00259086
0.00298522
0.00338213
0.00386011
0.00420812
0.00468878
0.00527176
0.00606248
0.00691218
0.00786369
0.00881829
0.00993014
0.0110015
0.0120871
0.0131956
0.0143637
0.015544
0.0167163
0.0178809
0.0190323
0.02017
0.0212889
0.0223845
0.0234524
0.0244876
0.0254851
0.026439
0.0273437
0.0281935
0.0289844
0.0297039
0.030326
0.0308466
0.0312875
0.0316575
0.0319516
0.0321664
0.032298
0.0323428
0.0322974
0.0321585
0.0319246
0.0315923
0.0311666
0.030645
0.0300387
0.0293778
0.0286238
0.0277978
0.0267452
0.0255117
0.0242653
0.023099
0.0219319
0.0207787
0.0196468
0.0185409
0.0174642
0.016418
0.0154021
0.0144155
0.0134568
0.0125247
0.0116186
0.0107383
0.009884
0.00905599
0.00825471
0.00748047
0.00673347
0.00601373
0.00532111
0.0046553
0.00401579
0.00340196
0.00281306
0.00224822
0.00170656
0.00118796
0.000692806
0.000229421
1.96833e-05
6.84589e-05
0.000124149
0.000186349
0.000255797
0.000333515
0.000420437
0.000517743
0.000626991
0.000750061
0.000888916
0.00104545
0.00122172
0.00142033
0.00164443
0.00189709
0.0021811
0.00249999
0.00285589
0.00325016
0.00369503
0.00414811
0.0046504
0.00505045
0.00555784
0.00619932
0.00704675
0.00796537
0.00898447
0.0100027
0.011178
0.0123149
0.0134615
0.0146404
0.0158866
0.0171465
0.0183987
0.0196403
0.020866
0.0220752
0.0232629
0.0244253
0.025558
0.0266564
0.0277155
0.0287294
0.0296924
0.0305985
0.0314434
0.0322158
0.0328921
0.0334673
0.0339615
0.0343811
0.0347209
0.034977
0.0351447
0.0352194
0.0351969
0.0350725
0.0348435
0.0345054
0.0340614
0.0335104
0.0328621
0.0321496
0.0313394
0.0304373
0.0292991
0.0279619
0.026608
0.0253397
0.0240684
0.0228103
0.021574
0.0203653
0.0191883
0.0180447
0.0169348
0.0158575
0.0148112
0.0137943
0.0128059
0.0118455
0.0109129
0.0100084
0.00913213
0.00828432
0.00746507
0.00667435
0.00591196
0.00517756
0.00447069
0.00379076
0.0031371
0.00250894
0.00190551
0.00132691
0.000773764
0.000255988
2.84734e-05
9.56582e-05
0.00017104
0.000254146
0.000345833
0.000447195
0.000559205
0.000683203
0.000820952
0.000974495
0.00114591
0.00133719
0.00155048
0.00178842
0.00205421
0.00235093
0.00268117
0.003048
0.0034534
0.00389747
0.00439086
0.00489741
0.00543758
0.00588571
0.00642388
0.0071219
0.00802654
0.00901436
0.0101005
0.0111828
0.0124221
0.0136242
0.0148318
0.0160796
0.0174013
0.0187381
0.0200678
0.0213846
0.0226835
0.023964
0.0252211
0.0264511
0.0276499
0.0288132
0.0299359
0.0310121
0.032036
0.0330012
0.0339029
0.0347315
0.0354663
0.036102
0.036655
0.0371296
0.0375204
0.0378226
0.0380304
0.0381386
0.038142
0.0380347
0.0378129
0.037471
0.0370106
0.0364319
0.0357436
0.0349809
0.0341148
0.033138
0.0319135
0.0304703
0.0290058
0.0276321
0.0262528
0.0248861
0.0235416
0.0222266
0.0209458
0.0197017
0.0184947
0.0173237
0.0161871
0.015083
0.01401
0.0129674
0.0119547
0.010972
0.0100193
0.00909664
0.00820401
0.00734127
0.00650814
0.00570428
0.00492921
0.00418242
0.00346333
0.00277128
0.00210561
0.00146661
0.00085523
0.0002829
3.70177e-05
0.000122261
0.000217141
0.000320963
0.000434553
0.000559109
0.000695775
0.000846087
0.00101194
0.00119547
0.00139885
0.00162428
0.00187402
0.00215072
0.00245752
0.00279753
0.00317331
0.00358759
0.00404227
0.00453651
0.00507868
0.00563756
0.00621828
0.00671474
0.0072885
0.0080412
0.00900256
0.0100591
0.0112117
0.0123582
0.0136611
0.0149274
0.0161954
0.0175109
0.0189059
0.0203178
0.0217232
0.0231139
0.0244857
0.0258375
0.0271647
0.0284636
0.0297303
0.0309607
0.0321495
0.0332909
0.0343788
0.0354064
0.0363684
0.0372567
0.0380547
0.0387563
0.0393734
0.0399081
0.0403548
0.0407073
0.0409592
0.0411044
0.0411368
0.0410493
0.0408369
0.0404933
0.0400184
0.0394137
0.0386875
0.037876
0.0369545
0.0359046
0.0345936
0.0330428
0.0314653
0.0299833
0.0284928
0.027014
0.025558
0.0241328
0.0227444
0.0213958
0.0200879
0.0188195
0.0175889
0.0163938
0.0152328
0.0141048
0.0130091
0.0119457
0.0109142
0.00991473
0.008947
0.00801076
0.00710567
0.00623133
0.00538729
0.00457308
0.0037882
0.00303211
0.00230425
0.00160502
0.000935609
0.000309033
4.52416e-05
0.000148356
0.000262734
0.000387107
0.000522243
0.000669654
0.000830786
0.00100731
0.00120111
0.00141428
0.00164916
0.00190821
0.00219394
0.002509
0.00285638
0.0032392
0.00366009
0.00412161
0.00462555
0.00517049
0.00576211
0.00637205
0.00699378
0.00753816
0.00815092
0.00895639
0.00997391
0.0110985
0.0123169
0.0135273
0.0148933
0.0162225
0.01755
0.0189317
0.0203985
0.0218841
0.0233641
0.0248283
0.0262729
0.0276968
0.0290952
0.0304648
0.0318017
0.0331017
0.0343597
0.0355697
0.0367252
0.037819
0.0388453
0.0397977
0.0406632
0.0414357
0.0421217
0.0427213
0.0432281
0.0436347
0.0439342
0.0441196
0.0441837
0.0441185
0.0439179
0.0435747
0.0430877
0.0424589
0.0416968
0.0408383
0.0398624
0.0387407
0.0373433
0.0356838
0.0339919
0.0323994
0.0307952
0.0292015
0.0276304
0.0260915
0.0245914
0.0231341
0.0217206
0.0203502
0.0190207
0.0177301
0.0164766
0.0152588
0.0140762
0.0129284
0.011815
0.0107359
0.00969065
0.00867894
0.00770033
0.00675439
0.00584067
0.00495873
0.00410811
0.00328831
0.00249889
0.00174033
0.00101372
0.000333378
5.00939e-05
0.000173001
0.000307749
0.000452837
0.000609496
0.00077976
0.000965365
0.00116805
0.00138962
0.00163216
0.00189821
0.00219058
0.00251204
0.00286532
0.00325324
0.00367879
0.00414462
0.00465313
0.00520602
0.00580145
0.00644252
0.00710223
0.00776481
0.00835643
0.00901019
0.00986663
0.0109399
0.0121318
0.0134151
0.0146888
0.0161168
0.0175078
0.0188937
0.0203403
0.0218774
0.0234361
0.0249901
0.0265278
0.028046
0.0295431
0.0310147
0.0324572
0.033867
0.03524
0.0365708
0.0378532
0.0390804
0.0402449
0.04134
0.0423606
0.0432981
0.0441457
0.0449051
0.0455737
0.0461441
0.0466082
0.0469583
0.0471867
0.0472852
0.0472447
0.047058
0.0467176
0.0462207
0.04557
0.0447742
0.0438707
0.0428416
0.0416496
0.040166
0.0383976
0.0365902
0.034886
0.0331662
0.031455
0.0297659
0.0281096
0.0264938
0.0249231
0.0233992
0.0219212
0.0204874
0.0190956
0.0177439
0.0164312
0.0151567
0.0139199
0.0127205
0.0115581
0.0104323
0.00934274
0.00828879
0.00727005
0.00628605
0.00533636
0.00442046
0.00353782
0.002688
0.00187163
0.00108957
0.00035667
5.88321e-05
0.000200182
0.000354243
0.000519621
0.00069773
0.000890904
0.00110097
0.0013297
0.00157892
0.0018508
0.00214801
0.0024736
0.00283059
0.00322184
0.00365007
0.00411812
0.00462857
0.00518366
0.00578493
0.0064302
0.00712019
0.00782841
0.00853193
0.0091701
0.00986603
0.0107717
0.0119002
0.0131583
0.0145056
0.0158415
0.0173301
0.0187815
0.0202249
0.0217353
0.023342
0.0249734
0.0266018
0.0282136
0.0298065
0.0313786
0.0329255
0.0344438
0.0359299
0.0373795
0.0387872
0.0401466
0.0414502
0.0426901
0.0438588
0.0449521
0.0459657
0.0468925
0.047729
0.0484698
0.0491067
0.0496311
0.0500345
0.0503084
0.0504435
0.0504301
0.0502599
0.0499246
0.0494203
0.0487499
0.0479226
0.0469759
0.045895
0.0446342
0.043065
0.0411879
0.0392647
0.0374478
0.0356109
0.0337802
0.0319704
0.0301934
0.0284579
0.0267691
0.0251293
0.0235381
0.0219938
0.0204943
0.0190382
0.0176242
0.0162519
0.0149207
0.0136303
0.0123804
0.0111705
0.0100001
0.00886876
0.00777594
0.00672112
0.00570379
0.00472336
0.00377916
0.00287059
0.0019984
0.00116341
0.000380247
6.77821e-05
0.000227913
0.00040159
0.000587629
0.000787584
0.0010039
0.00123843
0.0014931
0.00176991
0.00207122
0.00239976
0.00275859
0.00315089
0.00357966
0.00404772
0.00455784
0.0051125
0.00571377
0.00636291
0.00705737
0.00779558
0.00855101
0.00929544
0.00997949
0.0107181
0.0116711
0.0128539
0.0141769
0.0155871
0.0169841
0.0185318
0.0200423
0.0215423
0.023116
0.024792
0.0264965
0.0281998
0.0298871
0.0315563
0.0332057
0.0348308
0.0364282
0.0379943
0.0395248
0.0410141
0.0424552
0.0438403
0.0451607
0.0464081
0.047579
0.0486725
0.0496818
0.0505982
0.0514138
0.0521196
0.0527067
0.0531657
0.0534874
0.0536615
0.0536775
0.0535261
0.0531984
0.0526892
0.0520013
0.0511446
0.0501567
0.0490254
0.0476975
0.0460435
0.044058
0.0420189
0.0400888
0.0381336
0.0361817
0.0342487
0.0323478
0.0304885
0.028677
0.0269159
0.0252054
0.023544
0.0219302
0.0203628
0.0188408
0.0173641
0.0159323
0.0145454
0.013203
0.0119049
0.0106506
0.00943948
0.0082711
0.0071448
0.00605991
0.00501571
0.00401133
0.00304595
0.00212021
0.00123505
0.000404394
7.6803e-05
0.00025623
0.000450098
0.000657404
0.000879646
0.00111928
0.00137825
0.00165871
0.00196304
0.00229381
0.0026538
0.00304598
0.00347348
0.00393948
0.00444696
0.00499873
0.00559722
0.00624428
0.00694078
0.00768371
0.00846924
0.00927038
0.0100553
0.0107843
0.0115656
0.0125639
0.0137997
0.0151861
0.0166581
0.018115
0.0197206
0.0212891
0.0228452
0.0244819
0.0262275
0.0280061
0.0297855
0.0315499
0.0332979
0.0350273
0.036734
0.0384144
0.0400648
0.0416808
0.0432565
0.0447845
0.0462563
0.0476625
0.0489938
0.0502472
0.0514243
0.0525186
0.0535171
0.0544094
0.0551864
0.0558383
0.0563552
0.0567267
0.0569421
0.0569899
0.05686
0.0565422
0.0560305
0.0553275
0.0544435
0.0534164
0.0522361
0.0508425
0.0491047
0.0470111
0.0448559
0.0428116
0.040737
0.038662
0.0366036
0.0345757
0.0325889
0.03065
0.0287623
0.0269265
0.0251417
0.0234068
0.021721
0.0200841
0.0184962
0.0169575
0.0154682
0.0140282
0.0126376
0.0112958
0.0100024
0.00875671
0.00755801
0.0064054
0.00529794
0.00423452
0.00321404
0.00223689
0.00130407
0.000428393
8.58438e-05
0.000285093
0.000499697
0.000728822
0.000973834
0.00123716
0.00152084
0.00182726
0.00215914
0.00251934
0.00291075
0.00333629
0.00379903
0.00430217
0.00484881
0.00544184
0.00608368
0.00677596
0.00751913
0.00830959
0.00914131
0.00998655
0.0108112
0.0115837
0.012407
0.0134487
0.0147362
0.0161845
0.0177174
0.0192332
0.0208955
0.0225211
0.0241333
0.0258333
0.0276493
0.0295033
0.0313607
0.0332045
0.035034
0.0368469
0.0386389
0.0404066
0.0421459
0.0438523
0.0455195
0.0471395
0.0487034
0.0502008
0.0516214
0.052962
0.0542261
0.0554075
0.0564897
0.0574605
0.0583105
0.0590293
0.0596061
0.0600299
0.060289
0.0603712
0.0602652
0.05996
0.0594483
0.0587326
0.0578234
0.0567589
0.0555311
0.0540731
0.0522517
0.05005
0.0477778
0.0456183
0.0434227
0.0412226
0.0390361
0.0368782
0.0347601
0.0326894
0.0306701
0.0287034
0.0267891
0.0249267
0.023116
0.0213575
0.0196519
0.018
0.0164026
0.01486
0.0133725
0.0119397
0.0105612
0.00923615
0.00796372
0.00674279
0.0055721
0.00445028
0.00337586
0.00234892
0.0013704
0.000451568
9.49126e-05
0.00031441
0.000550158
0.000801559
0.00106988
0.00135752
0.00166652
0.0019994
0.00235911
0.00274875
0.00317142
0.00363015
0.00412799
0.00466812
0.00525366
0.00588751
0.00657209
0.00730885
0.00809781
0.00893474
0.00981148
0.0106993
0.0115626
0.0123769
0.0132408
0.0143244
0.0156624
0.0171712
0.0187642
0.0203379
0.0220562
0.0237383
0.0254067
0.0271706
0.0290583
0.0309897
0.0329274
0.0348536
0.0367679
0.0386679
0.0405494
0.0424088
0.0442419
0.0460437
0.0478075
0.0495249
0.051186
0.0527798
0.0542949
0.0557275
0.0570819
0.0583522
0.0595198
0.0605709
0.0614958
0.0622837
0.0629226
0.0634011
0.0637066
0.0638261
0.0637467
0.0634568
0.0629479
0.0622218
0.0612896
0.0601894
0.0589149
0.0573933
0.0554882
0.0531775
0.0507866
0.04851
0.0461911
0.0438634
0.041546
0.0392546
0.0370015
0.0347948
0.0326392
0.0305366
0.0284875
0.0264919
0.0245505
0.0226644
0.0208353
0.0190647
0.017354
0.0157042
0.0141156
0.0125882
0.0111216
0.00971483
0.00836693
0.00707653
0.0058421
0.00466188
0.00353399
0.00245809
0.00143494
0.00047391
0.000104058
0.00034433
0.000601692
0.000875787
0.00116783
0.00148028
0.00181518
0.00217509
0.00256303
0.00298224
0.00343604
0.00392766
0.00446028
0.00503705
0.00566109
0.00633525
0.00706187
0.00784229
0.00867611
0.00955843
0.0104791
0.0114081
0.0123089
0.0131627
0.0140656
0.0151894
0.0165769
0.0181451
0.0197977
0.0214288
0.0232026
0.0249409
0.0266661
0.028495
0.0304562
0.0324672
0.034488
0.0364998
0.0385025
0.0404937
0.0424691
0.0444248
0.0463565
0.0482587
0.0501242
0.0519439
0.0537073
0.0554025
0.0570171
0.0585463
0.0599945
0.0613557
0.0626104
0.0637438
0.064746
0.0656054
0.0663094
0.0668454
0.0672005
0.0673602
0.0673106
0.0670389
0.0665355
0.0658015
0.064848
0.0637136
0.062393
0.0608078
0.0588181
0.0563965
0.0538844
0.0514878
0.0490426
0.046584
0.0441322
0.0417037
0.0393115
0.0369648
0.0346687
0.0324257
0.030237
0.0281035
0.0260265
0.0240081
0.0220508
0.020157
0.0183287
0.0165675
0.0148742
0.0132488
0.0116911
0.0102001
0.0087747
0.00741325
0.00611392
0.00487451
0.00369264
0.00256749
0.00149953
0.000496016
0.000113342
0.000375178
0.000654799
0.000951974
0.00126796
0.00160543
0.00196654
0.00235387
0.00277041
0.00321943
0.00370437
0.00422866
0.00479565
0.0054086
0.00607058
0.00678438
0.00755226
0.0083754
0.00925303
0.0101796
0.0111429
0.0121118
0.0130487
0.0139398
0.0148797
0.0160424
0.0174786
0.0191053
0.0208173
0.0225054
0.0243347
0.0261293
0.0279123
0.0298077
0.0318446
0.033938
0.036045
0.0381459
0.0402409
0.0423273
0.0444009
0.0464576
0.0484924
0.0504999
0.0524719
0.0543988
0.0562692
0.0580705
0.0597894
0.0614198
0.0629653
0.06442
0.0657639
0.0669822
0.0680647
0.0689987
0.0697711
0.0703684
0.0707766
0.07098
0.0709636
0.0707133
0.0702182
0.0694787
0.0685057
0.067338
0.0659712
0.0643218
0.0622457
0.0597105
0.0570735
0.0545531
0.0519776
0.049384
0.0467934
0.0442235
0.0416882
0.0391972
0.0367566
0.0343693
0.0320373
0.029762
0.0275457
0.0253914
0.0233025
0.0212822
0.0193332
0.0174575
0.0156564
0.0139302
0.0122786
0.0107009
0.00919577
0.00776128
0.0063952
0.00509485
0.00385724
0.0026811
0.00156654
0.000518757
0.000122682
0.00040693
0.000709542
0.00103025
0.00137043
0.00173312
0.00212062
0.0025356
0.002981
0.00346005
0.0039762
0.00453301
0.00513402
0.00578258
0.00648179
0.0072344
0.00804254
0.00890723
0.00982732
0.0107966
0.0118011
0.0128085
0.0137802
0.0147063
0.0156814
0.0168819
0.0183663
0.020051
0.0218223
0.0235675
0.0254529
0.0273042
0.0291461
0.03111
0.0332251
0.035404
0.0376007
0.0397943
0.0419854
0.0441712
0.0463473
0.0485092
0.0506517
0.0527687
0.0548518
0.0568903
0.0588722
0.0607841
0.0626119
0.064348
0.0659947
0.0675458
0.068982
0.0702887
0.0714552
0.0724679
0.0733129
0.0739757
0.0744411
0.0746924
0.0747129
0.0744875
0.0740038
0.073261
0.0722701
0.0710697
0.0696562
0.0679412
0.0657762
0.0631237
0.0603571
0.0577081
0.0549971
0.0522632
0.0495289
0.0468127
0.0441296
0.0414902
0.038901
0.0363659
0.0338873
0.0314675
0.0291095
0.0268172
0.0245947
0.0224458
0.020374
0.0183817
0.0164705
0.0146412
0.0128937
0.011227
0.00963981
0.00812982
0.00669435
0.00533016
0.00403369
0.00280318
0.00163848
0.000543019
0.000131818
0.000439015
0.000765271
0.00111013
0.00147508
0.00186343
0.00227765
0.00272045
0.00319482
0.00370396
0.0042513
0.00484047
0.0054751
0.00615864
0.00689424
0.00768462
0.00853179
0.00943657
0.0103974
0.0114075
0.0124514
0.0134956
0.0145011
0.0154606
0.0164695
0.0177072
0.0192393
0.0209817
0.0228124
0.0246151
0.0265572
0.0284662
0.0303688
0.0324033
0.0345996
0.0368672
0.039157
0.0414471
0.0437383
0.0460273
0.0483099
0.0505809
0.052835
0.0550657
0.0572639
0.0594181
0.0615156
0.0635424
0.0654837
0.0673301
0.0690822
0.0707335
0.072266
0.0736655
0.0749207
0.0760172
0.0769398
0.0776731
0.0782007
0.0785044
0.0785661
0.0783694
0.0779002
0.0771565
0.0761491
0.0749161
0.073455
0.0716723
0.0694152
0.0666407
0.0637389
0.0609555
0.058103
0.055223
0.0523389
0.049471
0.0466349
0.0438424
0.0411007
0.0384145
0.0357868
0.0332206
0.0307196
0.0282881
0.025931
0.0236527
0.021457
0.019347
0.0173247
0.0153909
0.0135457
0.0117881
0.0101164
0.00852794
0.00701954
0.00558742
0.00422751
0.00293769
0.00171765
0.00056955
0.00014055
0.000470919
0.000821328
0.00119103
0.00158147
0.00199611
0.00243744
0.00290823
0.00341154
0.00395063
0.00452897
0.0051502
0.00581797
0.0065358
0.00730688
0.00813387
0.00901868
0.00996189
0.0109616
0.0120102
0.0130912
0.0141706
0.015209
0.0162013
0.0172434
0.018518
0.0200975
0.0218972
0.0237877
0.0256484
0.0276484
0.0296161
0.0315813
0.0336891
0.0359696
0.0383292
0.0407157
0.0431058
0.0455006
0.0478966
0.0502891
0.0526728
0.0550421
0.0573901
0.0597069
0.0619806
0.0641977
0.0663436
0.0684027
0.0703644
0.0722267
0.0739829
0.0756167
0.0771146
0.0784644
0.0796506
0.0806568
0.0814664
0.0820616
0.082423
0.0825307
0.0823667
0.0819153
0.0811729
0.0801501
0.0788847
0.0773746
0.0755217
0.0731689
0.0702671
0.0672236
0.0642993
0.0612986
0.0582655
0.0552252
0.0521993
0.0492047
0.0462542
0.0433561
0.0405157
0.0377368
0.0350228
0.0323778
0.0298069
0.0273151
0.0249073
0.0225879
0.0203601
0.0182262
0.0161873
0.0142432
0.0123928
0.0106338
0.00896331
0.00737753
0.0058723
0.00444314
0.00308775
0.0018058
0.000598889
0.000148909
0.000502683
0.000877663
0.00127273
0.00168919
0.00213054
0.00259923
0.00309807
0.00363019
0.00419897
0.00480796
0.00546081
0.00616117
0.00691254
0.00771812
0.00858052
0.0095015
0.0104814
0.0115178
0.0126026
0.0137186
0.0148315
0.0159022
0.0169272
0.0180028
0.0193142
0.0209409
0.0227978
0.0247485
0.0266679
0.0287269
0.0307548
0.0327847
0.0349685
0.0373363
0.0397911
0.0422775
0.044771
0.0472727
0.0497787
0.0522844
0.0547839
0.0572715
0.0597398
0.0621786
0.0645754
0.0669159
0.069185
0.0713665
0.0734484
0.0754263
0.0772933
0.0790348
0.0806378
0.082089
0.0833718
0.0844684