/*--------------------------------*- C++ -*----------------------------------*\
  =========                 |
  \\      /  F ield         | OpenFOAM: The Open Source CFD Toolbox
   \\    /   O peration     | Website:  https://openfoam.org
    \\  /    A nd           | Version:  9
     \\/     M anipulation  |
\*---------------------------------------------------------------------------*/
FoamFile
{
    format      ascii;
    class       surfaceScalarField;
    location    "0.09";
    object      phi;
}
// * * * * * * * * * * * * * * * * * * * * * * * * * * * * * * * * * * * * * //

dimensions      [0 3 -1 0 0 0 0];

internalField   nonuniform List<scalar> 
39700
(
6.35614e-07
2.18535e-06
6.35676e-07
2.2989e-06
6.35742e-07
2.41822e-06
6.35829e-07
2.54466e-06
6.35951e-07
2.67923e-06
6.36108e-07
2.82275e-06
6.36298e-07
2.97599e-06
6.36508e-07
3.13958e-06
6.36721e-07
3.31397e-06
6.36912e-07
3.49942e-06
6.37056e-07
3.69593e-06
6.37129e-07
3.90337e-06
6.37112e-07
4.12148e-06
6.36991e-07
4.34995e-06
6.36751e-07
4.58846e-06
6.36371e-07
4.83659e-06
6.35807e-07
5.09364e-06
6.34977e-07
5.35816e-06
6.33797e-07
5.62631e-06
6.32453e-07
5.88606e-06
6.32379e-07
6.09958e-06
6.35973e-07
6.17856e-06
6.37934e-07
6.06242e-06
6.31573e-07
6.07421e-06
6.35306e-07
6.75776e-06
6.38223e-07
7.60018e-06
6.36527e-07
8.20983e-06
6.34419e-07
8.65186e-06
6.33162e-07
9.01836e-06
6.33058e-07
9.32214e-06
6.34102e-07
1.11353e-05
6.34923e-07
1.09057e-05
6.35705e-07
1.09651e-05
6.35925e-07
1.11583e-05
6.3551e-07
1.12782e-05
6.3511e-07
1.13063e-05
6.34907e-07
1.12907e-05
6.34838e-07
1.12625e-05
6.3482e-07
1.12312e-05
6.34823e-07
1.11979e-05
6.3484e-07
1.11635e-05
6.34861e-07
1.11298e-05
6.34877e-07
1.10975e-05
6.34887e-07
1.10654e-05
6.34893e-07
1.10313e-05
6.34901e-07
1.09933e-05
6.34919e-07
1.09502e-05
6.34954e-07
1.09015e-05
6.35005e-07
1.08482e-05
6.35061e-07
1.07946e-05
6.35102e-07
1.0749e-05
6.35127e-07
1.07203e-05
6.35148e-07
1.07118e-05
6.35174e-07
1.07196e-05
6.35206e-07
1.07373e-05
6.35245e-07
1.07627e-05
6.35295e-07
1.07982e-05
6.35353e-07
1.08457e-05
6.35397e-07
1.09016e-05
6.35392e-07
1.09581e-05
6.35304e-07
1.1006e-05
6.3511e-07
1.10356e-05
6.34873e-07
1.10301e-05
6.34953e-07
1.09528e-05
6.35592e-07
1.07544e-05
6.35532e-07
1.04737e-05
6.34712e-07
1.03631e-05
6.35308e-07
1.05863e-05
6.35985e-07
1.08963e-05
6.3587e-07
1.10896e-05
6.35563e-07
9.12448e-06
6.35329e-07
8.71624e-06
6.35173e-07
8.31034e-06
6.35065e-07
7.91478e-06
6.34999e-07
7.53241e-06
6.34973e-07
7.1648e-06
6.34981e-07
6.81335e-06
6.35015e-07
6.47955e-06
6.35063e-07
6.16446e-06
6.3511e-07
5.86818e-06
6.35147e-07
5.58963e-06
6.35169e-07
5.32687e-06
6.35173e-07
5.07773e-06
6.35161e-07
4.84034e-06
6.35136e-07
4.61337e-06
6.35103e-07
4.39594e-06
6.35067e-07
4.18754e-06
6.35033e-07
3.98784e-06
6.35003e-07
3.79659e-06
6.3498e-07
3.61359e-06
6.34964e-07
3.43862e-06
6.34958e-07
3.27146e-06
6.3496e-07
3.11186e-06
6.34973e-07
2.95957e-06
6.34993e-07
2.81433e-06
6.3502e-07
2.6759e-06
6.35046e-07
2.54405e-06
6.35058e-07
2.41862e-06
6.3503e-07
2.29955e-06
2.18646e-06
6.36954e-07
2.18529e-06
6.37045e-07
2.29881e-06
6.37144e-07
2.41812e-06
6.37282e-07
2.54452e-06
6.37484e-07
2.67903e-06
6.37751e-07
2.82248e-06
6.38078e-07
2.97566e-06
6.38445e-07
3.13921e-06
6.38821e-07
3.3136e-06
6.3916e-07
3.49908e-06
6.3941e-07
3.69568e-06
6.39517e-07
3.90326e-06
6.39428e-07
4.12157e-06
6.39098e-07
4.35028e-06
6.38484e-07
4.58908e-06
6.37534e-07
4.83754e-06
6.36178e-07
5.09499e-06
6.34342e-07
5.35999e-06
6.321e-07
5.62855e-06
6.30316e-07
5.88785e-06
6.31728e-07
6.09817e-06
6.38474e-07
6.17181e-06
6.40302e-07
6.06059e-06
6.28465e-07
6.08604e-06
6.33004e-07
6.75322e-06
6.39228e-07
7.59396e-06
6.37634e-07
8.21143e-06
6.33752e-07
8.65574e-06
6.31166e-07
9.02095e-06
6.30965e-07
9.32234e-06
6.3283e-07
1.11335e-05
6.34009e-07
1.09045e-05
6.35514e-07
1.09636e-05
6.36358e-07
1.11574e-05
6.35819e-07
1.12787e-05
6.34976e-07
1.13071e-05
6.34444e-07
1.12912e-05
6.34208e-07
1.12628e-05
6.34126e-07
1.12313e-05
6.34116e-07
1.11979e-05
6.34142e-07
1.11634e-05
6.34184e-07
1.11298e-05
6.34224e-07
1.10975e-05
6.34258e-07
1.10654e-05
6.34287e-07
1.10312e-05
6.34326e-07
1.09932e-05
6.34391e-07
1.09501e-05
6.34498e-07
1.09014e-05
6.34641e-07
1.0848e-05
6.34788e-07
1.07945e-05
6.34898e-07
1.07489e-05
6.34973e-07
1.07202e-05
6.35049e-07
1.07117e-05
6.35145e-07
1.07195e-05
6.35254e-07
1.07372e-05
6.35369e-07
1.07626e-05
6.35495e-07
1.07981e-05
6.35625e-07
1.08455e-05
6.35716e-07
1.09015e-05
6.3569e-07
1.09581e-05
6.35473e-07
1.10062e-05
6.35051e-07
1.1036e-05
6.34672e-07
1.10304e-05
6.3512e-07
1.09523e-05
6.36468e-07
1.0753e-05
6.36249e-07
1.04739e-05
6.34536e-07
1.03648e-05
6.35464e-07
1.05854e-05
6.36985e-07
1.08948e-05
6.37001e-07
1.10896e-05
6.36425e-07
9.12505e-06
6.35897e-07
8.71677e-06
6.3551e-07
8.31073e-06
6.35249e-07
7.91504e-06
6.35091e-07
7.53257e-06
6.35025e-07
7.16486e-06
6.35033e-07
6.81334e-06
6.3509e-07
6.47949e-06
6.35167e-07
6.16438e-06
6.35242e-07
5.86811e-06
6.35301e-07
5.58957e-06
6.35335e-07
5.32683e-06
6.35341e-07
5.07772e-06
6.35318e-07
4.84036e-06
6.35273e-07
4.61341e-06
6.35212e-07
4.396e-06
6.35146e-07
4.18761e-06
6.35081e-07
3.9879e-06
6.35025e-07
3.79665e-06
6.34981e-07
3.61363e-06
6.34954e-07
3.43865e-06
6.34944e-07
3.27147e-06
6.34953e-07
3.11185e-06
6.34979e-07
2.95955e-06
6.35019e-07
2.81429e-06
6.35066e-07
2.67585e-06
6.35105e-07
2.54401e-06
6.35107e-07
2.41862e-06
6.35028e-07
2.29963e-06
2.18665e-06
6.38365e-07
2.18526e-06
6.38426e-07
2.29874e-06
6.38519e-07
2.41802e-06
6.3867e-07
2.54437e-06
6.38896e-07
2.6788e-06
6.39196e-07
2.82218e-06
6.39563e-07
2.9753e-06
6.39972e-07
3.1388e-06
6.40386e-07
3.31318e-06
6.40748e-07
3.49872e-06
6.40994e-07
3.69544e-06
6.41051e-07
3.90321e-06
6.40851e-07
4.12177e-06
6.40331e-07
4.3508e-06
6.39432e-07
4.58997e-06
6.38098e-07
4.83887e-06
6.36267e-07
5.09682e-06
6.33907e-07
5.36235e-06
6.31218e-07
5.63124e-06
6.29356e-07
5.88971e-06
6.31524e-07
6.096e-06
6.39647e-07
6.16369e-06
6.41696e-07
6.05854e-06
6.28186e-07
6.09955e-06
6.31432e-07
6.74998e-06
6.38307e-07
7.58709e-06
6.37062e-07
8.21267e-06
6.32751e-07
8.66005e-06
6.29691e-07
9.02401e-06
6.29486e-07
9.32254e-06
6.31802e-07
1.11312e-05
6.33362e-07
1.0903e-05
6.35129e-07
1.09618e-05
6.36173e-07
1.11564e-05
6.35635e-07
1.12793e-05
6.3463e-07
1.13081e-05
6.33913e-07
1.12919e-05
6.3355e-07
1.12631e-05
6.33399e-07
1.12315e-05
6.33363e-07
1.11979e-05
6.33389e-07
1.11634e-05
6.33443e-07
1.11297e-05
6.33502e-07
1.10974e-05
6.33558e-07
1.10653e-05
6.33615e-07
1.10312e-05
6.33692e-07
1.09931e-05
6.3381e-07
1.095e-05
6.33989e-07
1.09012e-05
6.34219e-07
1.08478e-05
6.34455e-07
1.07943e-05
6.34644e-07
1.07487e-05
6.34786e-07
1.07201e-05
6.34923e-07
1.07116e-05
6.35088e-07
1.07194e-05
6.35275e-07
1.07371e-05
6.35468e-07
1.07624e-05
6.35664e-07
1.07979e-05
6.35849e-07
1.08454e-05
6.35965e-07
1.09014e-05
6.35917e-07
1.09581e-05
6.35617e-07
1.10065e-05
6.35077e-07
1.10366e-05
6.34665e-07
1.10308e-05
6.35342e-07
1.09517e-05
6.37151e-07
1.07512e-05
6.37047e-07
1.0474e-05
6.35056e-07
1.03668e-05
6.35931e-07
1.05845e-05
6.37738e-07
1.0893e-05
6.37898e-07
1.10894e-05
6.37256e-07
9.12569e-06
6.3659e-07
8.71743e-06
6.36071e-07
8.31125e-06
6.35707e-07
7.91541e-06
6.35487e-07
7.53279e-06
6.35394e-07
7.16496e-06
6.35401e-07
6.81334e-06
6.35469e-07
6.47942e-06
6.35561e-07
6.16429e-06
6.35648e-07
5.86802e-06
6.35712e-07
5.58951e-06
6.35744e-07
5.3268e-06
6.35742e-07
5.07772e-06
6.35707e-07
4.8404e-06
6.35646e-07
4.61347e-06
6.35568e-07
4.39608e-06
6.35485e-07
4.18769e-06
6.35404e-07
3.98798e-06
6.35336e-07
3.79672e-06
6.35284e-07
3.61369e-06
6.35253e-07
3.43868e-06
6.35245e-07
3.27148e-06
6.35261e-07
3.11184e-06
6.353e-07
2.95951e-06
6.35358e-07
2.81424e-06
6.35427e-07
2.67578e-06
6.35491e-07
2.54395e-06
6.35518e-07
2.41859e-06
6.35475e-07
2.29967e-06
2.18675e-06
6.39544e-07
2.18525e-06
6.39578e-07
2.29871e-06
6.39663e-07
2.41794e-06
6.3982e-07
2.54422e-06
6.4006e-07
2.67856e-06
6.40381e-07
2.82186e-06
6.40768e-07
2.97491e-06
6.41196e-07
3.13837e-06
6.41622e-07
3.31276e-06
6.41983e-07
3.49835e-06
6.42205e-07
3.69522e-06
6.42206e-07
3.90321e-06
6.41908e-07
4.12206e-06
6.41238e-07
4.35147e-06
6.40132e-07
4.59108e-06
6.38531e-07
4.84047e-06
6.36377e-07
5.09898e-06
6.33659e-07
5.36507e-06
6.3065e-07
5.63425e-06
6.28715e-07
5.89164e-06
6.31244e-07
6.09347e-06
6.39658e-07
6.15527e-06
6.41715e-07
6.05648e-06
6.28766e-07
6.1125e-06
6.30787e-07
6.74796e-06
6.3726e-07
7.58061e-06
6.36067e-07
8.21386e-06
6.31461e-07
8.66466e-06
6.28137e-07
9.02733e-06
6.27951e-07
9.32273e-06
6.30661e-07
1.11285e-05
6.32743e-07
1.09009e-05
6.34725e-07
1.09598e-05
6.35783e-07
1.11553e-05
6.35186e-07
1.12799e-05
6.34071e-07
1.13092e-05
6.33244e-07
1.12927e-05
6.32795e-07
1.12636e-05
6.32593e-07
1.12317e-05
6.32534e-07
1.1198e-05
6.32558e-07
1.11634e-05
6.32624e-07
1.11297e-05
6.32702e-07
1.10974e-05
6.32781e-07
1.10652e-05
6.32869e-07
1.10311e-05
6.32986e-07
1.0993e-05
6.33159e-07
1.09498e-05
6.33408e-07
1.09009e-05
6.33723e-07
1.08475e-05
6.34051e-07
1.07939e-05
6.34329e-07
1.07485e-05
6.34551e-07
1.07198e-05
6.34764e-07
1.07114e-05
6.35005e-07
1.07191e-05
6.35271e-07
1.07368e-05
6.35545e-07
1.07622e-05
6.35817e-07
1.07977e-05
6.36063e-07
1.08451e-05
6.36212e-07
1.09012e-05
6.36161e-07
1.09582e-05
6.35819e-07
1.10068e-05
6.3522e-07
1.10372e-05
6.34801e-07
1.10313e-05
6.35615e-07
1.09509e-05
6.37685e-07
1.07492e-05
6.37774e-07
1.04739e-05
6.35785e-07
1.03688e-05
6.36707e-07
1.05836e-05
6.38599e-07
1.08911e-05
6.38818e-07
1.10892e-05
6.3815e-07
9.12636e-06
6.37408e-07
8.71818e-06
6.36809e-07
8.31185e-06
6.3638e-07
7.91583e-06
6.36118e-07
7.53306e-06
6.36006e-07
7.16507e-06
6.36014e-07
6.81333e-06
6.36095e-07
6.47934e-06
6.36204e-07
6.16418e-06
6.36305e-07
5.86792e-06
6.36376e-07
5.58944e-06
6.36409e-07
5.32677e-06
6.36402e-07
5.07773e-06
6.36357e-07
4.84044e-06
6.36284e-07
4.61355e-06
6.36193e-07
4.39617e-06
6.36097e-07
4.18779e-06
6.36007e-07
3.98807e-06
6.35931e-07
3.79679e-06
6.35875e-07
3.61374e-06
6.35844e-07
3.43871e-06
6.3584e-07
3.27148e-06
6.35864e-07
3.11181e-06
6.35914e-07
2.95946e-06
6.35986e-07
2.81416e-06
6.36072e-07
2.6757e-06
6.36153e-07
2.54387e-06
6.36205e-07
2.41854e-06
6.36206e-07
2.29967e-06
2.18678e-06
6.40429e-07
2.18525e-06
6.40454e-07
2.29869e-06
6.40536e-07
2.41786e-06
6.40698e-07
2.54405e-06
6.40946e-07
2.67831e-06
6.41276e-07
2.82153e-06
6.41674e-07
2.97451e-06
6.42111e-07
3.13793e-06
6.42541e-07
3.31233e-06
6.42898e-07
3.498e-06
6.43102e-07
3.69501e-06
6.43063e-07
3.90324e-06
6.42696e-07
4.12243e-06
6.41919e-07
4.35225e-06
6.40664e-07
4.59234e-06
6.38869e-07
4.84227e-06
6.3648e-07
5.10137e-06
6.33513e-07
5.36804e-06
6.30329e-07
5.63743e-06
6.28453e-07
5.89352e-06
6.31203e-07
6.09072e-06
6.39274e-07
6.1472e-06
6.40885e-07
6.05487e-06
6.28988e-07
6.1244e-06
6.30192e-07
6.74675e-06
6.36192e-07
7.57461e-06
6.35012e-07
8.21504e-06
6.30201e-07
8.66947e-06
6.26659e-07
9.03087e-06
6.26447e-07
9.32294e-06
6.29407e-07
1.11255e-05
6.31928e-07
1.08984e-05
6.34141e-07
1.09576e-05
6.35206e-07
1.11543e-05
6.34576e-07
1.12805e-05
6.3337e-07
1.13104e-05
6.32454e-07
1.12936e-05
6.31938e-07
1.12641e-05
6.31694e-07
1.12319e-05
6.31616e-07
1.11981e-05
6.31641e-07
1.11634e-05
6.31719e-07
1.11296e-05
6.31817e-07
1.10973e-05
6.31923e-07
1.10651e-05
6.32045e-07
1.1031e-05
6.32206e-07
1.09929e-05
6.32435e-07
1.09496e-05
6.32753e-07
1.09006e-05
6.33149e-07
1.08471e-05
6.33566e-07
1.07935e-05
6.33937e-07
1.07481e-05
6.34251e-07
1.07195e-05
6.34552e-07
1.07111e-05
6.34879e-07
1.07188e-05
6.35232e-07
1.07364e-05
6.35595e-07
1.07618e-05
6.35951e-07
1.07973e-05
6.36269e-07
1.08448e-05
6.36468e-07
1.09011e-05
6.36438e-07
1.09582e-05
6.36091e-07
1.10072e-05
6.35479e-07
1.10378e-05
6.35092e-07
1.10317e-05
6.36011e-07
1.09499e-05
6.38194e-07
1.0747e-05
6.38449e-07
1.04737e-05
6.36677e-07
1.03705e-05
6.37678e-07
1.05826e-05
6.39623e-07
1.08892e-05
6.39883e-07
1.1089e-05
6.39202e-07
9.12704e-06
6.38409e-07
8.71897e-06
6.37753e-07
8.3125e-06
6.3728e-07
7.91631e-06
6.3699e-07
7.53335e-06
6.36867e-07
7.16519e-06
6.36876e-07
6.81332e-06
6.36968e-07
6.47925e-06
6.37092e-07
6.16406e-06
6.37207e-07
5.86781e-06
6.3729e-07
5.58936e-06
6.37329e-07
5.32673e-06
6.37324e-07
5.07774e-06
6.37277e-07
4.84049e-06
6.372e-07
4.61362e-06
6.37104e-07
4.39626e-06
6.37002e-07
4.18789e-06
6.36907e-07
3.98817e-06
6.36828e-07
3.79687e-06
6.36771e-07
3.6138e-06
6.36741e-07
3.43874e-06
6.36741e-07
3.27148e-06
6.3677e-07
3.11179e-06
6.36826e-07
2.9594e-06
6.36904e-07
2.81409e-06
6.36994e-07
2.67561e-06
6.37079e-07
2.54378e-06
6.37141e-07
2.41848e-06
6.37167e-07
2.29964e-06
2.18678e-06
6.41064e-07
2.18525e-06
6.41091e-07
2.29866e-06
6.41174e-07
2.41777e-06
6.41336e-07
2.54389e-06
6.41584e-07
2.67806e-06
6.41915e-07
2.8212e-06
6.42312e-07
2.97411e-06
6.42747e-07
3.1375e-06
6.43172e-07
3.3119e-06
6.43519e-07
3.49765e-06
6.43704e-07
3.69483e-06
6.43632e-07
3.90332e-06
6.43212e-07
4.12285e-06
6.42357e-07
4.3531e-06
6.40994e-07
4.5937e-06
6.39059e-07
4.84421e-06
6.36509e-07
5.10392e-06
6.3339e-07
5.37115e-06
6.30149e-07
5.64068e-06
6.28408e-07
5.89526e-06
6.31294e-07
6.08784e-06
6.38843e-07
6.13965e-06
6.39868e-07
6.05385e-06
6.28803e-07
6.13546e-06
6.29377e-07
6.74618e-06
6.34986e-07
7.569e-06
6.33846e-07
8.21618e-06
6.28941e-07
8.67437e-06
6.25259e-07
9.03456e-06
6.25012e-07
9.32319e-06
6.28112e-07
1.11224e-05
6.30935e-07
1.08956e-05
6.3334e-07
1.09552e-05
6.3448e-07
1.11531e-05
6.33811e-07
1.12812e-05
6.32535e-07
1.13117e-05
6.31546e-07
1.12946e-05
6.30975e-07
1.12647e-05
6.30696e-07
1.12322e-05
6.30604e-07
1.11982e-05
6.3063e-07
1.11634e-05
6.30721e-07
1.11295e-05
6.30842e-07
1.10972e-05
6.30977e-07
1.1065e-05
6.31137e-07
1.10308e-05
6.31345e-07
1.09927e-05
6.31632e-07
1.09493e-05
6.32021e-07
1.09002e-05
6.32498e-07
1.08466e-05
6.33005e-07
1.0793e-05
6.33472e-07
1.07476e-05
6.33884e-07
1.07191e-05
6.34283e-07
1.07107e-05
6.34707e-07
1.07184e-05
6.35158e-07
1.0736e-05
6.35617e-07
1.07613e-05
6.36066e-07
1.07969e-05
6.36465e-07
1.08444e-05
6.3673e-07
1.09008e-05
6.36743e-07
1.09582e-05
6.36421e-07
1.10075e-05
6.35834e-07
1.10384e-05
6.3551e-07
1.1032e-05
6.3652e-07
1.09489e-05
6.38773e-07
1.07447e-05
6.39175e-07
1.04733e-05
6.37666e-07
1.0372e-05
6.38783e-07
1.05815e-05
6.40792e-07
1.08872e-05
6.41106e-07
1.10886e-05
6.40429e-07
9.12772e-06
6.39608e-07
8.71979e-06
6.38918e-07
8.31319e-06
6.38419e-07
7.91681e-06
6.38114e-07
7.53365e-06
6.37987e-07
7.16532e-06
6.38001e-07
6.81331e-06
6.38103e-07
6.47915e-06
6.3824e-07
6.16392e-06
6.3837e-07
5.86768e-06
6.38465e-07
5.58926e-06
6.38515e-07
5.32668e-06
6.38516e-07
5.07774e-06
6.38475e-07
4.84053e-06
6.384e-07
4.6137e-06
6.38305e-07
4.39636e-06
6.38204e-07
4.18799e-06
6.38109e-07
3.98826e-06
6.38031e-07
3.79695e-06
6.37976e-07
3.61385e-06
6.37948e-07
3.43877e-06
6.3795e-07
3.27148e-06
6.37982e-07
3.11175e-06
6.3804e-07
2.95934e-06
6.38118e-07
2.81401e-06
6.38206e-07
2.67552e-06
6.38289e-07
2.5437e-06
6.38352e-07
2.41842e-06
6.38389e-07
2.29961e-06
2.18676e-06
6.4147e-07
2.18524e-06
6.41503e-07
2.29863e-06
6.4159e-07
2.41769e-06
6.41752e-07
2.54373e-06
6.41999e-07
2.67782e-06
6.42326e-07
2.82087e-06
6.42719e-07
2.97372e-06
6.43148e-07
3.13707e-06
6.43563e-07
3.31149e-06
6.43896e-07
3.49732e-06
6.44061e-07
3.69466e-06
6.4396e-07
3.90342e-06
6.43496e-07
4.12332e-06
6.42581e-07
4.35402e-06
6.41137e-07
4.59514e-06
6.391e-07
4.84624e-06
6.36435e-07
5.10658e-06
6.33214e-07
5.37437e-06
6.29952e-07
5.64394e-06
6.28337e-07
5.89687e-06
6.31297e-07
6.08488e-06
6.38346e-07
6.1326e-06
6.38856e-07
6.05334e-06
6.28401e-07
6.14592e-06
6.28387e-07
6.74619e-06
6.3353e-07
7.56386e-06
6.32464e-07
8.21725e-06
6.2756e-07
8.67928e-06
6.23815e-07
9.0383e-06
6.23564e-07
9.32344e-06
6.26777e-07
1.11192e-05
6.29823e-07
1.08925e-05
6.32364e-07
1.09527e-05
6.33542e-07
1.11519e-05
6.32871e-07
1.12818e-05
6.31552e-07
1.1313e-05
6.30511e-07
1.12957e-05
6.29898e-07
1.12653e-05
6.29593e-07
1.12325e-05
6.29491e-07
1.11983e-05
6.2952e-07
1.11633e-05
6.29627e-07
1.11294e-05
6.29771e-07
1.1097e-05
6.29939e-07
1.10648e-05
6.30139e-07
1.10306e-05
6.30398e-07
1.09924e-05
6.30747e-07
1.09489e-05
6.31209e-07
1.08998e-05
6.3177e-07
1.08461e-05
6.3237e-07
1.07924e-05
6.32938e-07
1.07471e-05
6.33456e-07
1.07186e-05
6.33962e-07
1.07102e-05
6.34492e-07
1.07178e-05
6.35049e-07
1.07354e-05
6.35613e-07
1.07608e-05
6.36164e-07
1.07963e-05
6.36656e-07
1.08439e-05
6.37e-07
1.09004e-05
6.37075e-07
1.09581e-05
6.368e-07
1.10078e-05
6.36263e-07
1.10389e-05
6.36016e-07
1.10322e-05
6.37121e-07
1.09478e-05
6.39445e-07
1.07424e-05
6.40001e-07
1.04727e-05
6.38764e-07
1.03733e-05
6.40016e-07
1.05802e-05
6.42103e-07
1.08851e-05
6.42484e-07
1.10883e-05
6.41828e-07
9.12837e-06
6.41002e-07
8.72062e-06
6.403e-07
8.31389e-06
6.39792e-07
7.91731e-06
6.39484e-07
7.53396e-06
6.39362e-07
7.16544e-06
6.39387e-07
6.81328e-06
6.39504e-07
6.47903e-06
6.39657e-07
6.16377e-06
6.39803e-07
5.86753e-06
6.39913e-07
5.58915e-06
6.39976e-07
5.32662e-06
6.39988e-07
5.07772e-06
6.39955e-07
4.84056e-06
6.39887e-07
4.61377e-06
6.39797e-07
4.39645e-06
6.397e-07
4.18808e-06
6.39609e-07
3.98835e-06
6.39533e-07
3.79703e-06
6.3948e-07
3.61391e-06
6.39455e-07
3.43879e-06
6.39459e-07
3.27148e-06
6.39492e-07
3.11172e-06
6.39551e-07
2.95929e-06
6.39627e-07
2.81393e-06
6.39711e-07
2.67544e-06
6.39788e-07
2.54362e-06
6.39848e-07
2.41836e-06
6.39884e-07
2.29957e-06
2.18675e-06
6.41645e-07
2.18523e-06
6.41688e-07
2.29858e-06
6.41782e-07
2.41759e-06
6.41948e-07
2.54356e-06
6.42195e-07
2.67757e-06
6.42521e-07
2.82055e-06
6.42912e-07
2.97333e-06
6.43336e-07
3.13665e-06
6.43745e-07
3.31108e-06
6.44069e-07
3.49699e-06
6.4422e-07
3.69451e-06
6.44098e-07
3.90354e-06
6.43603e-07
4.12381e-06
6.42643e-07
4.35498e-06
6.41137e-07
4.59665e-06
6.39021e-07
4.84836e-06
6.36263e-07
5.10934e-06
6.32958e-07
5.37768e-06
6.29676e-07
5.64722e-06
6.28155e-07
5.89839e-06
6.31132e-07
6.0819e-06
6.37699e-07
6.12604e-06
6.37756e-07
6.05328e-06
6.27797e-07
6.15588e-06
6.27294e-07
6.7467e-06
6.32018e-07
7.55914e-06
6.30961e-07
8.21831e-06
6.26049e-07
8.68419e-06
6.2226e-07
9.04209e-06
6.2203e-07
9.32367e-06
6.25356e-07
1.11158e-05
6.2859e-07
1.08893e-05
6.31245e-07
1.095e-05
6.32458e-07
1.11507e-05
6.3178e-07
1.12825e-05
6.30426e-07
1.13144e-05
6.29346e-07
1.12968e-05
6.28701e-07
1.12659e-05
6.28379e-07
1.12328e-05
6.28271e-07
1.11984e-05
6.28308e-07
1.11633e-05
6.28433e-07
1.11293e-05
6.28604e-07
1.10968e-05
6.28807e-07
1.10646e-05
6.2905e-07
1.10304e-05
6.29362e-07
1.09921e-05
6.29776e-07
1.09485e-05
6.30314e-07
1.08992e-05
6.30962e-07
1.08454e-05
6.3166e-07
1.07917e-05
6.32336e-07
1.07464e-05
6.32966e-07
1.0718e-05
6.33587e-07
1.07096e-05
6.34233e-07
1.07172e-05
6.34905e-07
1.07348e-05
6.35584e-07
1.07601e-05
6.36247e-07
1.07956e-05
6.36845e-07
1.08433e-05
6.37282e-07
1.09e-05
6.37436e-07
1.0958e-05
6.37228e-07
1.1008e-05
6.36759e-07
1.10394e-05
6.36597e-07
1.10324e-05
6.37801e-07
1.09466e-05
6.40201e-07
1.074e-05
6.40918e-07
1.0472e-05
6.39966e-07
1.03742e-05
6.41384e-07
1.05788e-05
6.43572e-07
1.08829e-05
6.44032e-07
1.10878e-05
6.43409e-07
9.129e-06
6.42592e-07
8.72143e-06
6.41893e-07
8.31459e-06
6.41391e-07
7.91782e-06
6.41093e-07
7.53426e-06
6.40985e-07
7.16555e-06
6.41027e-07
6.81324e-06
6.41164e-07
6.4789e-06
6.41338e-07
6.1636e-06
6.41505e-07
5.86737e-06
6.41635e-07
5.58902e-06
6.41716e-07
5.32654e-06
6.41743e-07
5.0777e-06
6.41722e-07
4.84059e-06
6.41663e-07
4.61383e-06
6.41581e-07
4.39653e-06
6.4149e-07
4.18818e-06
6.41403e-07
3.98844e-06
6.41331e-07
3.7971e-06
6.41281e-07
3.61396e-06
6.41258e-07
3.43882e-06
6.41264e-07
3.27147e-06
6.41297e-07
3.11169e-06
6.41353e-07
2.95923e-06
6.41426e-07
2.81386e-06
6.41502e-07
2.67536e-06
6.4157e-07
2.54355e-06
6.4162e-07
2.41831e-06
6.4165e-07
2.29954e-06
2.18673e-06
6.41605e-07
2.18521e-06
6.41659e-07
2.29853e-06
6.41763e-07
2.41749e-06
6.41935e-07
2.54339e-06
6.42186e-07
2.67732e-06
6.42513e-07
2.82022e-06
6.42903e-07
2.97294e-06
6.43327e-07
3.13622e-06
6.43735e-07
3.31067e-06
6.44057e-07
3.49667e-06
6.44202e-07
3.69437e-06
6.44069e-07
3.90367e-06
6.43555e-07
4.12432e-06
6.42563e-07
4.35597e-06
6.4101e-07
4.5982e-06
6.3883e-07
4.85054e-06
6.35993e-07
5.11218e-06
6.32615e-07
5.38106e-06
6.29317e-07
5.65052e-06
6.27874e-07
5.89984e-06
6.30825e-07
6.07895e-06
6.369e-07
6.11996e-06
6.36537e-07
6.05364e-06
6.26998e-07
6.16542e-06
6.26095e-07
6.7476e-06
6.3043e-07
7.5548e-06
6.29365e-07
8.21937e-06
6.24428e-07
8.68913e-06
6.20592e-07
9.04592e-06
6.20388e-07
9.32387e-06
6.23825e-07
1.11124e-05
6.27226e-07
1.08859e-05
6.29991e-07
1.09473e-05
6.31242e-07
1.11495e-05
6.30555e-07
1.12832e-05
6.29167e-07
1.13158e-05
6.28051e-07
1.12979e-05
6.27383e-07
1.12666e-05
6.2705e-07
1.12332e-05
6.26943e-07
1.11985e-05
6.26991e-07
1.11632e-05
6.27136e-07
1.11291e-05
6.27337e-07
1.10966e-05
6.27578e-07
1.10644e-05
6.27868e-07
1.10301e-05
6.28237e-07
1.09917e-05
6.28718e-07
1.0948e-05
6.29334e-07
1.08986e-05
6.30074e-07
1.08447e-05
6.30874e-07
1.07909e-05
6.31662e-07
1.07456e-05
6.32412e-07
1.07172e-05
6.33157e-07
1.07088e-05
6.33927e-07
1.07164e-05
6.34724e-07
1.0734e-05
6.35529e-07
1.07593e-05
6.36316e-07
1.07949e-05
6.37032e-07
1.08426e-05
6.37578e-07
1.08995e-05
6.37828e-07
1.09577e-05
6.37706e-07
1.10081e-05
6.37318e-07
1.10397e-05
6.37252e-07
1.10325e-05
6.38556e-07
1.09453e-05
6.41036e-07
1.07375e-05
6.41922e-07
1.04711e-05
6.41268e-07
1.03749e-05
6.42887e-07
1.05772e-05
6.45207e-07
1.08806e-05
6.45761e-07
1.10872e-05
6.45179e-07
9.12958e-06
6.44383e-07
8.72223e-06
6.43701e-07
8.31528e-06
6.43215e-07
7.9183e-06
6.42938e-07
7.53453e-06
6.42852e-07
7.16563e-06
6.42918e-07
6.81317e-06
6.43081e-07
6.47873e-06
6.43282e-07
6.1634e-06
6.43475e-07
5.86717e-06
6.4363e-07
5.58887e-06
6.43733e-07
5.32643e-06
6.4378e-07
5.07765e-06
6.43775e-07
4.84059e-06
6.43729e-07
4.61387e-06
6.43657e-07
4.3966e-06
6.43574e-07
4.18826e-06
6.43493e-07
3.98852e-06
6.43426e-07
3.79717e-06
6.43379e-07
3.614e-06
6.43358e-07
3.43884e-06
6.43364e-07
3.27147e-06
6.43396e-07
3.11166e-06
6.43449e-07
2.95918e-06
6.43514e-07
2.81379e-06
6.43581e-07
2.67529e-06
6.43637e-07
2.5435e-06
6.43675e-07
2.41827e-06
6.43696e-07
2.29952e-06
2.18673e-06
6.41377e-07
2.18519e-06
6.41439e-07
2.29847e-06
6.41552e-07
2.41737e-06
6.41731e-07
2.54321e-06
6.41985e-07
2.67707e-06
6.42315e-07
2.81989e-06
6.42708e-07
2.97255e-06
6.43135e-07
3.1358e-06
6.43546e-07
3.31026e-06
6.43869e-07
3.49635e-06
6.44015e-07
3.69422e-06
6.43879e-07
3.90381e-06
6.43354e-07
4.12485e-06
6.42341e-07
4.35698e-06
6.40753e-07
4.59979e-06
6.3852e-07
4.85277e-06
6.35619e-07
5.11508e-06
6.32184e-07
5.38449e-06
6.28885e-07
5.65382e-06
6.27515e-07
5.90121e-06
6.30412e-07
6.07605e-06
6.3598e-07
6.1144e-06
6.35158e-07
6.05446e-06
6.26043e-07
6.17453e-06
6.24786e-07
6.74886e-06
6.28739e-07
7.55085e-06
6.27656e-07
8.22045e-06
6.22696e-07
8.69409e-06
6.18819e-07
9.0498e-06
6.18642e-07
9.32405e-06
6.22181e-07
1.11089e-05
6.25734e-07
1.08823e-05
6.28603e-07
1.09444e-05
6.29893e-07
1.11482e-05
6.29199e-07
1.12839e-05
6.27777e-07
1.13172e-05
6.2663e-07
1.1299e-05
6.25944e-07
1.12673e-05
6.25605e-07
1.12335e-05
6.25503e-07
1.11986e-05
6.25566e-07
1.11632e-05
6.25735e-07
1.11289e-05
6.25969e-07
1.10964e-05
6.2625e-07
1.10641e-05
6.2659e-07
1.10297e-05
6.27018e-07
1.09913e-05
6.27569e-07
1.09475e-05
6.28269e-07
1.08979e-05
6.29103e-07
1.08438e-05
6.3001e-07
1.079e-05
6.30917e-07
1.07447e-05
6.31794e-07
1.07163e-05
6.3267e-07
1.07079e-05
6.33574e-07
1.07155e-05
6.34506e-07
1.0733e-05
6.35447e-07
1.07584e-05
6.3637e-07
1.07939e-05
6.37217e-07
1.08417e-05
6.37886e-07
1.08988e-05
6.38249e-07
1.09574e-05
6.38228e-07
1.10081e-05
6.37938e-07
1.104e-05
6.37978e-07
1.10324e-05
6.39389e-07
1.09439e-05
6.41956e-07
1.07349e-05
6.4302e-07
1.04701e-05
6.42679e-07
1.03752e-05
6.44526e-07
1.05753e-05
6.47004e-07
1.08781e-05
6.47671e-07
1.10866e-05
6.47143e-07
9.13011e-06
6.4638e-07
8.72299e-06
6.45725e-07
8.31593e-06
6.45268e-07
7.91876e-06
6.4502e-07
7.53478e-06
6.44964e-07
7.16569e-06
6.45062e-07
6.81307e-06
6.45257e-07
6.47854e-06
6.4549e-07
6.16316e-06
6.45715e-07
5.86695e-06
6.459e-07
5.58868e-06
6.4603e-07
5.3263e-06
6.46101e-07
5.07758e-06
6.46116e-07
4.84058e-06
6.46086e-07
4.6139e-06
6.46027e-07
4.39666e-06
6.45954e-07
4.18833e-06
6.45881e-07
3.98859e-06
6.45819e-07
3.79723e-06
6.45776e-07
3.61405e-06
6.45756e-07
3.43886e-06
6.45762e-07
3.27146e-06
6.45792e-07
3.11163e-06
6.4584e-07
2.95913e-06
6.45898e-07
2.81374e-06
6.45955e-07
2.67524e-06
6.46001e-07
2.54345e-06
6.46029e-07
2.41824e-06
6.46042e-07
2.29951e-06
2.18672e-06
6.40982e-07
2.18516e-06
6.4105e-07
2.2984e-06
6.41169e-07
2.41726e-06
6.41353e-07
2.54303e-06
6.41611e-07
2.67681e-06
6.41944e-07
2.81956e-06
6.42341e-07
2.97215e-06
6.42771e-07
3.13536e-06
6.43187e-07
3.30984e-06
6.43515e-07
3.49602e-06
6.43664e-07
3.69407e-06
6.43529e-07
3.90394e-06
6.43e-07
4.12538e-06
6.41974e-07
4.35801e-06
6.40359e-07
4.6014e-06
6.38085e-07
4.85504e-06
6.35131e-07
5.11803e-06
6.31654e-07
5.38797e-06
6.28369e-07
5.6571e-06
6.27074e-07
5.9025e-06
6.29912e-07
6.07321e-06
6.35052e-07
6.10926e-06
6.33884e-07
6.05563e-06
6.25018e-07
6.1834e-06
6.23368e-07
6.75051e-06
6.26911e-07
7.54731e-06
6.25798e-07
8.22157e-06
6.20832e-07
8.69905e-06
6.16929e-07
9.0537e-06
6.16786e-07
9.32419e-06
6.2043e-07
1.11052e-05
6.24126e-07
1.08786e-05
6.27086e-07
1.09414e-05
6.28408e-07
1.11469e-05
6.27707e-07
1.12846e-05
6.26256e-07
1.13186e-05
6.25082e-07
1.13002e-05
6.24382e-07
1.1268e-05
6.24041e-07
1.12338e-05
6.23948e-07
1.11987e-05
6.24029e-07
1.11631e-05
6.24226e-07
1.11288e-05
6.24494e-07
1.10961e-05
6.24819e-07
1.10638e-05
6.25212e-07
1.10293e-05
6.25702e-07
1.09908e-05
6.26328e-07
1.09469e-05
6.27114e-07
1.08971e-05
6.28047e-07
1.08429e-05
6.29067e-07
1.0789e-05
6.30098e-07
1.07437e-05
6.31109e-07
1.07153e-05
6.32125e-07
1.07069e-05
6.33172e-07
1.07145e-05
6.34249e-07
1.07319e-05
6.35336e-07
1.07573e-05
6.36406e-07
1.07929e-05
6.37398e-07
1.08407e-05
6.38204e-07
1.0898e-05
6.38695e-07
1.09569e-05
6.38791e-07
1.1008e-05
6.38613e-07
1.10402e-05
6.38772e-07
1.10323e-05
6.40299e-07
1.09424e-05
6.42965e-07
1.07323e-05
6.44226e-07
1.04688e-05
6.44213e-07
1.03752e-05
6.46305e-07
1.05732e-05
6.4896e-07
1.08754e-05
6.4976e-07
1.10858e-05
6.49302e-07
9.13057e-06
6.48585e-07
8.72371e-06
6.4797e-07
8.31654e-06
6.47552e-07
7.91918e-06
6.47343e-07
7.53499e-06
6.47326e-07
7.16571e-06
6.47463e-07
6.81294e-06
6.47696e-07
6.4783e-06
6.47967e-07
6.16289e-06
6.48229e-07
5.86669e-06
6.48449e-07
5.58846e-06
6.48611e-07
5.32614e-06
6.48709e-07
5.07748e-06
6.48748e-07
4.84054e-06
6.48738e-07
4.61391e-06
6.48695e-07
4.39671e-06
6.48633e-07
4.18839e-06
6.48569e-07
3.98866e-06
6.48514e-07
3.79728e-06
6.48474e-07
3.61408e-06
6.48457e-07
3.43888e-06
6.48462e-07
3.27145e-06
6.48489e-07
3.1116e-06
6.48532e-07
2.95908e-06
6.48584e-07
2.81368e-06
6.48632e-07
2.67519e-06
6.4867e-07
2.54341e-06
6.48692e-07
2.41822e-06
6.487e-07
2.2995e-06
2.18672e-06
6.4043e-07
2.18514e-06
6.40502e-07
2.29833e-06
6.40626e-07
2.41713e-06
6.40813e-07
2.54284e-06
6.41075e-07
2.67655e-06
6.41411e-07
2.81922e-06
6.41811e-07
2.97175e-06
6.42246e-07
3.13493e-06
6.42666e-07
3.30942e-06
6.43e-07
3.49569e-06
6.43155e-07
3.69392e-06
6.43024e-07
3.90407e-06
6.42495e-07
4.12591e-06
6.4146e-07
4.35904e-06
6.39824e-07
4.60304e-06
6.37516e-07
4.85735e-06
6.34518e-07
5.12103e-06
6.31008e-07
5.39148e-06
6.27744e-07
5.66037e-06
6.26517e-07
5.90373e-06
6.29265e-07
6.07046e-06
6.33925e-07
6.1046e-06
6.32469e-07
6.05709e-06
6.23867e-07
6.192e-06
6.2182e-07
6.75255e-06
6.2492e-07
7.54421e-06
6.23766e-07
8.22272e-06
6.18813e-07
8.70401e-06
6.14907e-07
9.05761e-06
6.14811e-07
9.32429e-06
6.18568e-07
1.11015e-05
6.22406e-07
1.08748e-05
6.25444e-07
1.09384e-05
6.26785e-07
1.11455e-05
6.26075e-07
1.12853e-05
6.246e-07
1.13201e-05
6.23404e-07
1.13014e-05
6.22695e-07
1.12687e-05
6.22357e-07
1.12342e-05
6.22276e-07
1.11987e-05
6.22378e-07
1.1163e-05
6.22604e-07
1.11285e-05
6.22911e-07
1.10958e-05
6.23282e-07
1.10634e-05
6.2373e-07
1.10289e-05
6.24287e-07
1.09902e-05
6.2499e-07
1.09462e-05
6.25867e-07
1.08962e-05
6.26904e-07
1.08419e-05
6.28043e-07
1.07878e-05
6.29205e-07
1.07425e-05
6.30357e-07
1.07142e-05
6.31521e-07
1.07058e-05
6.32719e-07
1.07133e-05
6.3395e-07
1.07307e-05
6.35196e-07
1.0756e-05
6.36424e-07
1.07916e-05
6.37573e-07
1.08396e-05
6.3853e-07
1.0897e-05
6.39163e-07
1.09562e-05
6.3939e-07
1.10078e-05
6.39338e-07
1.10403e-05
6.39631e-07
1.1032e-05
6.41285e-07
1.09407e-05
6.44068e-07
1.07295e-05
6.45546e-07
1.04673e-05
6.45876e-07
1.03749e-05
6.4823e-07
1.05709e-05
6.51075e-07
1.08726e-05
6.52027e-07
1.10848e-05
6.51656e-07
9.13094e-06
6.51001e-07
8.72436e-06
6.50439e-07
8.31711e-06
6.50071e-07
7.91954e-06
6.4991e-07
7.53515e-06
6.49942e-07
7.16567e-06
6.50125e-07
6.81275e-06
6.50404e-07
6.47803e-06
6.50719e-07
6.16258e-06
6.51024e-07
5.86638e-06
6.51284e-07
5.5882e-06
6.51482e-07
5.32595e-06
6.51612e-07
5.07735e-06
6.51677e-07
4.84047e-06
6.51689e-07
4.6139e-06
6.51663e-07
4.39673e-06
6.51616e-07
4.18844e-06
6.51563e-07
3.98871e-06
6.51514e-07
3.79733e-06
6.5148e-07
3.61412e-06
6.51464e-07
3.43889e-06
6.51469e-07
3.27145e-06
6.51493e-07
3.11158e-06
6.51532e-07
2.95905e-06
6.51577e-07
2.81364e-06
6.51619e-07
2.67514e-06
6.51651e-07
2.54338e-06
6.51668e-07
2.4182e-06
6.51673e-07
2.29949e-06
2.18672e-06
6.39723e-07
2.18511e-06
6.39798e-07
2.29825e-06
6.39926e-07
2.417e-06
6.40118e-07
2.54265e-06
6.40383e-07
2.67628e-06
6.40723e-07
2.81888e-06
6.41127e-07
2.97134e-06
6.41566e-07
3.13449e-06
6.41992e-07
3.309e-06
6.42333e-07
3.49534e-06
6.42495e-07
3.69375e-06
6.4237e-07
3.9042e-06
6.41842e-07
4.12643e-06
6.40802e-07
4.36008e-06
6.39149e-07
4.60469e-06
6.3681e-07
4.85969e-06
6.33772e-07
5.12407e-06
6.30236e-07
5.39501e-06
6.26997e-07
5.66361e-06
6.25834e-07
5.90489e-06
6.28494e-07
6.0678e-06
6.32736e-07
6.10036e-06
6.30984e-07
6.05884e-06
6.22574e-07
6.20041e-06
6.20123e-07
6.75501e-06
6.22759e-07
7.54157e-06
6.21552e-07
8.22393e-06
6.16627e-07
8.70893e-06
6.12738e-07
9.0615e-06
6.12707e-07
9.32432e-06
6.16591e-07
1.10976e-05
6.2057e-07
1.08708e-05
6.23677e-07
1.09353e-05
6.25026e-07
1.11442e-05
6.24305e-07
1.1286e-05
6.22808e-07
1.13216e-05
6.21594e-07
1.13026e-05
6.20879e-07
1.12694e-05
6.20547e-07
1.12345e-05