/*--------------------------------*- C++ -*----------------------------------*\
  =========                 |
  \\      /  F ield         | OpenFOAM: The Open Source CFD Toolbox
   \\    /   O peration     | Website:  https://openfoam.org
    \\  /    A nd           | Version:  9
     \\/     M anipulation  |
\*---------------------------------------------------------------------------*/
FoamFile
{
    format      ascii;
    class       volScalarField;
    location    "0.09";
    object      rAU;
}
// * * * * * * * * * * * * * * * * * * * * * * * * * * * * * * * * * * * * * //

dimensions      [-1 3 1 0 0 0 0];

internalField   nonuniform List<scalar> 
20000
(
1.26725e-05
1.48572e-05
1.50137e-05
1.51565e-05
1.52848e-05
1.53985e-05
1.5498e-05
1.55838e-05
1.56571e-05
1.57191e-05
1.57718e-05
1.58169e-05
1.58564e-05
1.5892e-05
1.59251e-05
1.59575e-05
1.59905e-05
1.60268e-05
1.60711e-05
1.61369e-05
1.62636e-05
1.65421e-05
1.70366e-05
1.73822e-05
1.69997e-05
1.65554e-05
1.63883e-05
1.63851e-05
1.64541e-05
1.65848e-05
1.68238e-05
1.69736e-05
1.69324e-05
1.6809e-05
1.67349e-05
1.67182e-05
1.67282e-05
1.67458e-05
1.67653e-05
1.67862e-05
1.68078e-05
1.68289e-05
1.68492e-05
1.68695e-05
1.68911e-05
1.69153e-05
1.69427e-05
1.69739e-05
1.70081e-05
1.70425e-05
1.70719e-05
1.70903e-05
1.70956e-05
1.70903e-05
1.70787e-05
1.70622e-05
1.70391e-05
1.70085e-05
1.69725e-05
1.69364e-05
1.6906e-05
1.68875e-05
1.68914e-05
1.69413e-05
1.70698e-05
1.72543e-05
1.73261e-05
1.71749e-05
1.69736e-05
1.68474e-05
1.67306e-05
1.66891e-05
1.66642e-05
1.66448e-05
1.66284e-05
1.66133e-05
1.65973e-05
1.65781e-05
1.65533e-05
1.65212e-05
1.64816e-05
1.64352e-05
1.63832e-05
1.63271e-05
1.62674e-05
1.62046e-05
1.61384e-05
1.60684e-05
1.59941e-05
1.59147e-05
1.58297e-05
1.57382e-05
1.56396e-05
1.55332e-05
1.54183e-05
1.52942e-05
1.51601e-05
1.5015e-05
1.48579e-05
1.56147e-05
1.56406e-05
1.91252e-05
1.94012e-05
1.96587e-05
1.98974e-05
2.01176e-05
2.03196e-05
2.05041e-05
2.06721e-05
2.08248e-05
2.09638e-05
2.10908e-05
2.12074e-05
2.13152e-05
2.14157e-05
2.15103e-05
2.16004e-05
2.16882e-05
2.17773e-05
2.18775e-05
2.20166e-05
2.2255e-05
2.26248e-05
2.28859e-05
2.26862e-05
2.24186e-05
2.23298e-05
2.23575e-05
2.24352e-05
2.25593e-05
2.2804e-05
2.29113e-05
2.28827e-05
2.27972e-05
2.27455e-05
2.27341e-05
2.27414e-05
2.27538e-05
2.27674e-05
2.27819e-05
2.27968e-05
2.28113e-05
2.28253e-05
2.28392e-05
2.28541e-05
2.28706e-05
2.28894e-05
2.29107e-05
2.2934e-05
2.29574e-05
2.29773e-05
2.29898e-05
2.29933e-05
2.29897e-05
2.29818e-05
2.29706e-05
2.29548e-05
2.29339e-05
2.29093e-05
2.28846e-05
2.28637e-05
2.2851e-05
2.28539e-05
2.28884e-05
2.29761e-05
2.30999e-05
2.31476e-05
2.30472e-05
2.29103e-05
2.28176e-05
2.26573e-05
2.2597e-05
2.25522e-05
2.2509e-05
2.24656e-05
2.24204e-05
2.2372e-05
2.23183e-05
2.22577e-05
2.21889e-05
2.21112e-05
2.20252e-05
2.19313e-05
2.18302e-05
2.1722e-05
2.16066e-05
2.14836e-05
2.13523e-05
2.12119e-05
2.10617e-05
2.09007e-05
2.07282e-05
2.05433e-05
2.03452e-05
2.0133e-05
1.99061e-05
1.96635e-05
1.94045e-05
1.91281e-05
2.03837e-05
1.56385e-05
1.91234e-05
1.93994e-05
1.9657e-05
1.98959e-05
2.01161e-05
2.03182e-05
2.05027e-05
2.06706e-05
2.08233e-05
2.09622e-05
2.10891e-05
2.12056e-05
2.13134e-05
2.14139e-05
2.15085e-05
2.15987e-05
2.16865e-05
2.17758e-05
2.18767e-05
2.20185e-05
2.22607e-05
2.26259e-05
2.28766e-05
2.26891e-05
2.24228e-05
2.23293e-05
2.23557e-05
2.24345e-05
2.25602e-05
2.28056e-05
2.29123e-05
2.28835e-05
2.27976e-05
2.27453e-05
2.27338e-05
2.27413e-05
2.27539e-05
2.27677e-05
2.27822e-05
2.27971e-05
2.28117e-05
2.28256e-05
2.28396e-05
2.28544e-05
2.28709e-05
2.28897e-05
2.2911e-05
2.29343e-05
2.29577e-05
2.29775e-05
2.29899e-05
2.29934e-05
2.29898e-05
2.29819e-05
2.29706e-05
2.29548e-05
2.29339e-05
2.29092e-05
2.28844e-05
2.28635e-05
2.28508e-05
2.28537e-05
2.28886e-05
2.29767e-05
2.30996e-05
2.31465e-05
2.30473e-05
2.29107e-05
2.28173e-05
2.26566e-05
2.25962e-05
2.25516e-05
2.25085e-05
2.24652e-05
2.24201e-05
2.23717e-05
2.23181e-05
2.22575e-05
2.21886e-05
2.2111e-05
2.20249e-05
2.19309e-05
2.18298e-05
2.17216e-05
2.16062e-05
2.14832e-05
2.13519e-05
2.12115e-05
2.10613e-05
2.09003e-05
2.07278e-05
2.05429e-05
2.03448e-05
2.01327e-05
1.99057e-05
1.96631e-05
1.9404e-05
1.91275e-05
2.03828e-05
1.56366e-05
1.91219e-05
1.9398e-05
1.96557e-05
1.98947e-05
2.0115e-05
2.03171e-05
2.05017e-05
2.06696e-05
2.08222e-05
2.09611e-05
2.10878e-05
2.12042e-05
2.13117e-05
2.14121e-05
2.15065e-05
2.15966e-05
2.16843e-05
2.17737e-05
2.18757e-05
2.20208e-05
2.22672e-05
2.26276e-05
2.28671e-05
2.26909e-05
2.24272e-05
2.23289e-05
2.23539e-05
2.24336e-05
2.2561e-05
2.28074e-05
2.29135e-05
2.28845e-05
2.27982e-05
2.27452e-05
2.27336e-05
2.27413e-05
2.27541e-05
2.27679e-05
2.27825e-05
2.27975e-05
2.28121e-05
2.2826e-05
2.28399e-05
2.28548e-05
2.28713e-05
2.28901e-05
2.29114e-05
2.29347e-05
2.2958e-05
2.29778e-05
2.29901e-05
2.29936e-05
2.299e-05
2.2982e-05
2.29707e-05
2.29549e-05
2.29339e-05
2.29092e-05
2.28843e-05
2.28633e-05
2.28504e-05
2.28535e-05
2.28888e-05
2.29774e-05
2.30994e-05
2.31454e-05
2.30473e-05
2.2911e-05
2.28169e-05
2.26557e-05
2.25954e-05
2.25508e-05
2.25079e-05
2.24646e-05
2.24197e-05
2.23713e-05
2.23177e-05
2.22571e-05
2.21882e-05
2.21105e-05
2.20243e-05
2.19304e-05
2.18291e-05
2.17209e-05
2.16055e-05
2.14824e-05
2.13511e-05
2.12107e-05
2.10605e-05
2.08996e-05
2.07271e-05
2.05422e-05
2.03441e-05
2.0132e-05
1.9905e-05
1.96623e-05
1.94031e-05
1.91265e-05
2.03815e-05
1.56353e-05
1.91208e-05
1.9397e-05
1.96548e-05
1.98939e-05
2.01143e-05
2.03165e-05
2.05011e-05
2.0669e-05
2.08215e-05
2.09602e-05
2.10868e-05
2.12029e-05
2.13102e-05
2.14103e-05
2.15045e-05
2.15943e-05
2.16818e-05
2.17713e-05
2.18745e-05
2.20231e-05
2.22737e-05
2.26293e-05
2.28585e-05
2.26923e-05
2.24314e-05
2.23286e-05
2.23518e-05
2.24326e-05
2.25618e-05
2.28093e-05
2.2915e-05
2.28857e-05
2.27989e-05
2.27452e-05
2.27334e-05
2.27412e-05
2.27542e-05
2.27682e-05
2.27829e-05
2.27979e-05
2.28125e-05
2.28265e-05
2.28404e-05
2.28552e-05
2.28717e-05
2.28905e-05
2.29118e-05
2.29351e-05
2.29584e-05
2.29781e-05
2.29904e-05
2.29938e-05
2.29902e-05
2.29822e-05
2.29708e-05
2.2955e-05
2.29339e-05
2.29091e-05
2.28841e-05
2.2863e-05
2.285e-05
2.28532e-05
2.28891e-05
2.29782e-05
2.30992e-05
2.31442e-05
2.30473e-05
2.29114e-05
2.28165e-05
2.26548e-05
2.25944e-05
2.25499e-05
2.25071e-05
2.24639e-05
2.2419e-05
2.23707e-05
2.23172e-05
2.22566e-05
2.21876e-05
2.21098e-05
2.20236e-05
2.19295e-05
2.18282e-05
2.17199e-05
2.16045e-05
2.14814e-05
2.135e-05
2.12097e-05
2.10594e-05
2.08985e-05
2.0726e-05
2.05411e-05
2.0343e-05
2.01309e-05
1.99039e-05
1.96612e-05
1.94019e-05
1.91252e-05
2.03799e-05
1.56343e-05
1.91199e-05
1.93962e-05
1.96542e-05
1.98934e-05
2.01139e-05
2.03162e-05
2.05008e-05
2.06687e-05
2.08212e-05
2.09597e-05
2.1086e-05
2.12019e-05
2.13089e-05
2.14086e-05
2.15024e-05
2.1592e-05
2.16792e-05
2.17688e-05
2.18732e-05
2.20255e-05
2.22798e-05
2.26306e-05
2.28506e-05
2.26935e-05
2.24356e-05
2.23285e-05
2.23497e-05
2.24314e-05
2.25624e-05
2.28113e-05
2.29167e-05
2.28871e-05
2.27997e-05
2.27452e-05
2.27332e-05
2.27412e-05
2.27544e-05
2.27686e-05
2.27833e-05
2.27984e-05
2.2813e-05
2.28269e-05
2.28408e-05
2.28556e-05
2.28722e-05
2.2891e-05
2.29123e-05
2.29356e-05
2.29589e-05
2.29785e-05
2.29908e-05
2.29941e-05
2.29905e-05
2.29824e-05
2.2971e-05
2.29551e-05
2.2934e-05
2.29091e-05
2.2884e-05
2.28627e-05
2.28496e-05
2.28528e-05
2.28893e-05
2.29789e-05
2.30991e-05
2.31431e-05
2.30473e-05
2.29117e-05
2.28161e-05
2.26538e-05
2.25933e-05
2.25488e-05
2.25061e-05
2.2463e-05
2.24182e-05
2.237e-05
2.23165e-05
2.22558e-05
2.21868e-05
2.21089e-05
2.20226e-05
2.19285e-05
2.18271e-05
2.17187e-05
2.16032e-05
2.14801e-05
2.13487e-05
2.12083e-05
2.1058e-05
2.08971e-05
2.07246e-05
2.05397e-05
2.03416e-05
2.01294e-05
1.99024e-05
1.96596e-05
1.94003e-05
1.91235e-05
2.03779e-05
1.56336e-05
1.91194e-05
1.93958e-05
1.96538e-05
1.98931e-05
2.01138e-05
2.03162e-05
2.05009e-05
2.06688e-05
2.08211e-05
2.09595e-05
2.10855e-05
2.1201e-05
2.13077e-05
2.1407e-05
2.15005e-05
2.15896e-05
2.16766e-05
2.17663e-05
2.18721e-05
2.20279e-05
2.22855e-05
2.26315e-05
2.28433e-05
2.26943e-05
2.24397e-05
2.23286e-05
2.23477e-05
2.24302e-05
2.25631e-05
2.28133e-05
2.29185e-05
2.28887e-05
2.28006e-05
2.27453e-05
2.2733e-05
2.27412e-05
2.27546e-05
2.27689e-05
2.27838e-05
2.27989e-05
2.28135e-05
2.28275e-05
2.28414e-05
2.28562e-05
2.28727e-05
2.28916e-05
2.29129e-05
2.29362e-05
2.29594e-05
2.2979e-05
2.29912e-05
2.29945e-05
2.29908e-05
2.29827e-05
2.29713e-05
2.29553e-05
2.29341e-05
2.29091e-05
2.28839e-05
2.28624e-05
2.28492e-05
2.28525e-05
2.28896e-05
2.29797e-05
2.3099e-05
2.31421e-05
2.30474e-05
2.2912e-05
2.28156e-05
2.26527e-05
2.25921e-05
2.25476e-05
2.2505e-05
2.2462e-05
2.24172e-05
2.23691e-05
2.23156e-05
2.22549e-05
2.21858e-05
2.21078e-05
2.20214e-05
2.19272e-05
2.18257e-05
2.17173e-05
2.16016e-05
2.14784e-05
2.1347e-05
2.12066e-05
2.10563e-05
2.08953e-05
2.07228e-05
2.05379e-05
2.03397e-05
2.01275e-05
1.99005e-05
1.96577e-05
1.93983e-05
1.91214e-05
2.03754e-05
1.56334e-05
1.91192e-05
1.93957e-05
1.96538e-05
1.98932e-05
2.0114e-05
2.03164e-05
2.05011e-05
2.0669e-05
2.08213e-05
2.09595e-05
2.10852e-05
2.12004e-05
2.13066e-05
2.14055e-05
2.14986e-05
2.15873e-05
2.1674e-05
2.17638e-05
2.18711e-05
2.20305e-05
2.22909e-05
2.26321e-05
2.28365e-05
2.2695e-05
2.24436e-05
2.23287e-05
2.23458e-05
2.2429e-05
2.25639e-05
2.28154e-05
2.29205e-05
2.28903e-05
2.28015e-05
2.27454e-05
2.27329e-05
2.27412e-05
2.27549e-05
2.27693e-05
2.27843e-05
2.27994e-05
2.28141e-05
2.28281e-05
2.28419e-05
2.28567e-05
2.28733e-05
2.28922e-05
2.29135e-05
2.29368e-05
2.29601e-05
2.29796e-05
2.29917e-05
2.2995e-05
2.29912e-05
2.29831e-05
2.29716e-05
2.29556e-05
2.29343e-05
2.29092e-05
2.28838e-05
2.28621e-05
2.28488e-05
2.28522e-05
2.28898e-05
2.29804e-05
2.30989e-05
2.31411e-05
2.30474e-05
2.29123e-05
2.28151e-05
2.26515e-05
2.25907e-05
2.25463e-05
2.25037e-05
2.24608e-05
2.24161e-05
2.2368e-05
2.23145e-05
2.22538e-05
2.21846e-05
2.21066e-05
2.202e-05
2.19257e-05
2.18241e-05
2.17155e-05
2.15998e-05
2.14765e-05
2.1345e-05
2.12045e-05
2.10542e-05
2.08932e-05
2.07206e-05
2.05357e-05
2.03375e-05
2.01253e-05
1.98982e-05
1.96554e-05
1.93959e-05
1.9119e-05
2.03724e-05
1.56335e-05
1.91194e-05
1.93959e-05
1.96541e-05
1.98936e-05
2.01144e-05
2.0317e-05
2.05017e-05
2.06695e-05
2.08217e-05
2.09596e-05
2.10851e-05
2.11999e-05
2.13057e-05
2.14041e-05
2.14967e-05
2.1585e-05
2.16714e-05
2.17614e-05
2.18703e-05
2.20331e-05
2.2296e-05
2.26325e-05
2.28302e-05
2.26954e-05
2.24473e-05
2.23289e-05
2.23439e-05
2.24279e-05
2.25647e-05
2.28176e-05
2.29226e-05
2.28921e-05
2.28026e-05
2.27457e-05
2.27329e-05
2.27413e-05
2.27551e-05
2.27697e-05
2.27848e-05
2.28e-05
2.28147e-05
2.28287e-05
2.28426e-05
2.28574e-05
2.2874e-05
2.28928e-05
2.29142e-05
2.29375e-05
2.29608e-05
2.29803e-05
2.29923e-05
2.29955e-05
2.29917e-05
2.29835e-05
2.2972e-05
2.29559e-05
2.29345e-05
2.29093e-05
2.28837e-05
2.28618e-05
2.28483e-05
2.28519e-05
2.28901e-05
2.29811e-05
2.30988e-05
2.31403e-05
2.30475e-05
2.29126e-05
2.28146e-05
2.26503e-05
2.25893e-05
2.25449e-05
2.25023e-05
2.24595e-05
2.24148e-05
2.23667e-05
2.23132e-05
2.22525e-05
2.21832e-05
2.21051e-05
2.20184e-05
2.1924e-05
2.18222e-05
2.17135e-05
2.15977e-05
2.14743e-05
2.13427e-05
2.12022e-05
2.10518e-05
2.08907e-05
2.07181e-05
2.05331e-05
2.03349e-05
2.01226e-05
1.98955e-05
1.96526e-05
1.93931e-05
1.91161e-05
2.03689e-05
1.56339e-05
1.91198e-05
1.93963e-05
1.96546e-05
1.98942e-05
2.01151e-05
2.03177e-05
2.05024e-05
2.06702e-05
2.08222e-05
2.096e-05
2.10851e-05
2.11995e-05
2.13049e-05
2.14028e-05
2.14949e-05
2.15827e-05
2.16688e-05
2.17591e-05
2.18696e-05
2.20357e-05
2.23009e-05
2.26327e-05
2.28242e-05
2.26956e-05
2.24509e-05
2.23292e-05
2.2342e-05
2.24268e-05
2.25656e-05
2.28199e-05
2.29248e-05
2.2894e-05
2.28037e-05
2.27459e-05
2.27328e-05
2.27414e-05
2.27555e-05
2.27702e-05
2.27854e-05
2.28007e-05
2.28154e-05
2.28294e-05
2.28433e-05
2.28581e-05
2.28747e-05
2.28936e-05
2.2915e-05
2.29383e-05
2.29615e-05
2.2981e-05
2.29929e-05
2.29961e-05
2.29922e-05
2.2984e-05
2.29724e-05
2.29563e-05
2.29348e-05
2.29095e-05
2.28837e-05
2.28616e-05
2.28479e-05
2.28516e-05
2.28903e-05
2.29819e-05
2.30988e-05
2.31395e-05
2.30476e-05
2.29129e-05
2.2814e-05
2.26489e-05
2.25878e-05
2.25434e-05
2.25008e-05
2.2458e-05
2.24134e-05
2.23653e-05
2.23118e-05
2.2251e-05
2.21816e-05
2.21034e-05
2.20166e-05
2.1922e-05
2.18201e-05
2.17113e-05
2.15953e-05
2.14718e-05
2.13402e-05
2.11995e-05
2.1049e-05
2.08879e-05
2.07153e-05
2.05302e-05
2.03319e-05
2.01196e-05
1.98924e-05
1.96494e-05
1.93899e-05
1.91128e-05
2.0365e-05
1.56346e-05
1.91204e-05
1.9397e-05
1.96554e-05
1.98951e-05
2.01161e-05
2.03187e-05
2.05034e-05
2.06711e-05
2.0823e-05
2.09605e-05
2.10854e-05
2.11993e-05
2.13042e-05
2.14016e-05
2.14932e-05
2.15805e-05
2.16663e-05
2.17568e-05
2.18689e-05
2.20384e-05
2.23054e-05
2.26325e-05
2.28185e-05
2.26956e-05
2.24543e-05
2.23295e-05
2.23403e-05
2.24257e-05
2.25665e-05
2.28223e-05
2.29271e-05
2.28959e-05
2.2805e-05
2.27463e-05
2.27329e-05
2.27416e-05
2.27559e-05
2.27708e-05
2.2786e-05
2.28014e-05
2.28161e-05
2.28302e-05
2.28441e-05
2.28589e-05
2.28755e-05
2.28944e-05
2.29158e-05
2.29392e-05
2.29624e-05
2.29818e-05
2.29937e-05
2.29968e-05
2.29929e-05
2.29846e-05
2.29729e-05
2.29567e-05
2.29352e-05
2.29097e-05
2.28837e-05
2.28614e-05
2.28476e-05
2.28513e-05
2.28906e-05
2.29826e-05
2.30988e-05
2.31388e-05
2.30478e-05
2.29132e-05
2.28134e-05
2.26475e-05
2.25862e-05
2.25417e-05
2.24992e-05
2.24564e-05
2.24119e-05
2.23638e-05
2.23102e-05
2.22494e-05
2.21799e-05
2.21015e-05
2.20146e-05
2.19198e-05
2.18178e-05
2.17088e-05
2.15927e-05
2.14691e-05
2.13373e-05
2.11965e-05
2.1046e-05
2.08848e-05
2.0712e-05
2.05269e-05
2.03286e-05
2.01162e-05
1.98889e-05
1.96458e-05
1.93862e-05
1.9109e-05
2.03604e-05
1.56355e-05
1.91213e-05
1.9398e-05
1.96564e-05
1.98961e-05
2.01172e-05
2.03199e-05
2.05046e-05
2.06723e-05
2.0824e-05
2.09613e-05
2.10857e-05
2.11993e-05
2.13037e-05
2.14006e-05
2.14916e-05
2.15784e-05
2.16638e-05
2.17547e-05
2.18685e-05
2.20411e-05
2.23097e-05
2.26323e-05
2.28131e-05
2.26954e-05
2.24575e-05
2.233e-05
2.23386e-05
2.24247e-05
2.25675e-05
2.28247e-05
2.29296e-05
2.2898e-05
2.28062e-05
2.27466e-05
2.27329e-05
2.27418e-05
2.27563e-05
2.27713e-05
2.27867e-05
2.28021e-05
2.2817e-05
2.2831e-05
2.28449e-05
2.28597e-05
2.28763e-05
2.28953e-05
2.29168e-05
2.29402e-05
2.29634e-05
2.29827e-05
2.29945e-05
2.29976e-05
2.29936e-05
2.29853e-05
2.29736e-05
2.29573e-05
2.29356e-05
2.291e-05
2.28838e-05
2.28612e-05
2.28472e-05
2.28511e-05
2.28909e-05
2.29834e-05
2.30989e-05
2.31382e-05
2.3048e-05
2.29135e-05
2.28128e-05
2.26461e-05
2.25845e-05
2.254e-05
2.24975e-05
2.24547e-05
2.24102e-05
2.23621e-05
2.23085e-05
2.22476e-05
2.2178e-05
2.20994e-05
2.20123e-05
2.19174e-05
2.18152e-05
2.1706e-05
2.15898e-05
2.1466e-05
2.13341e-05
2.11932e-05
2.10425e-05
2.08813e-05
2.07084e-05
2.05232e-05
2.03248e-05
2.01123e-05
1.98849e-05
1.96418e-05
1.9382e-05
1.91048e-05
2.03554e-05
1.56367e-05
1.91224e-05
1.93991e-05
1.96576e-05
1.98974e-05
2.01185e-05
2.03212e-05
2.0506e-05
2.06736e-05
2.08252e-05
2.09622e-05
2.10863e-05
2.11994e-05
2.13033e-05
2.13996e-05
2.149e-05
2.15763e-05
2.16615e-05
2.17527e-05
2.18682e-05
2.20438e-05
2.23137e-05
2.26319e-05
2.28079e-05
2.26951e-05
2.24606e-05
2.23305e-05
2.2337e-05
2.24238e-05
2.25687e-05
2.28273e-05
2.29322e-05
2.29001e-05
2.28076e-05
2.27471e-05
2.27331e-05
2.27421e-05
2.27568e-05
2.2772e-05
2.27875e-05
2.2803e-05
2.28178e-05
2.28319e-05
2.28458e-05
2.28606e-05
2.28773e-05
2.28963e-05
2.29178e-05
2.29412e-05
2.29644e-05
2.29837e-05
2.29955e-05
2.29984e-05
2.29944e-05
2.29861e-05
2.29743e-05
2.29579e-05
2.29361e-05
2.29103e-05
2.28839e-05
2.28611e-05
2.28469e-05
2.28508e-05
2.28912e-05
2.29841e-05
2.3099e-05
2.31377e-05
2.30482e-05
2.29139e-05
2.28122e-05
2.26446e-05
2.25827e-05
2.25382e-05
2.24957e-05
2.24529e-05
2.24084e-05
2.23603e-05
2.23066e-05
2.22456e-05
2.21759e-05
2.20972e-05
2.20099e-05
2.19147e-05
2.18123e-05
2.1703e-05
2.15865e-05
2.14626e-05
2.13305e-05
2.11896e-05
2.10388e-05
2.08774e-05
2.07045e-05
2.05192e-05
2.03207e-05
2.01081e-05
1.98806e-05
1.96373e-05
1.93775e-05
1.91001e-05
2.03498e-05
1.56382e-05
1.91238e-05
1.94005e-05
1.9659e-05
1.98989e-05
2.01201e-05
2.03228e-05
2.05076e-05
2.06751e-05
2.08265e-05
2.09632e-05
2.1087e-05
2.11997e-05
2.1303e-05
2.13988e-05
2.14886e-05
2.15744e-05
2.16592e-05
2.17508e-05
2.1868e-05
2.20466e-05
2.23176e-05
2.26313e-05
2.2803e-05
2.26945e-05
2.24634e-05
2.23311e-05
2.23356e-05
2.2423e-05
2.25699e-05
2.283e-05
2.29348e-05
2.29024e-05
2.2809e-05
2.27476e-05
2.27332e-05
2.27424e-05
2.27573e-05
2.27727e-05
2.27883e-05
2.28039e-05
2.28188e-05
2.28328e-05
2.28468e-05
2.28616e-05
2.28783e-05
2.28973e-05
2.29189e-05
2.29424e-05
2.29656e-05
2.29848e-05
2.29965e-05
2.29994e-05
2.29954e-05
2.29869e-05
2.29751e-05
2.29586e-05
2.29367e-05
2.29107e-05
2.28841e-05
2.2861e-05
2.28467e-05
2.28507e-05
2.28916e-05
2.29849e-05
2.30992e-05
2.31374e-05
2.30486e-05
2.29142e-05
2.28116e-05
2.26431e-05
2.25809e-05
2.25362e-05
2.24937e-05
2.2451e-05
2.24064e-05
2.23583e-05
2.23046e-05
2.22434e-05
2.21736e-05
2.20947e-05
2.20072e-05
2.19118e-05
2.18092e-05
2.16997e-05
2.15831e-05
2.1459e-05
2.13267e-05
2.11856e-05
2.10347e-05
2.08731e-05
2.07001e-05
2.05147e-05
2.03161e-05
2.01034e-05
1.98758e-05
1.96324e-05
1.93724e-05
1.9095e-05
2.03437e-05
1.564e-05
1.91254e-05
1.94021e-05
1.96607e-05
1.99006e-05
2.01219e-05
2.03246e-05
2.05093e-05
2.06768e-05
2.0828e-05
2.09645e-05
2.10879e-05
2.12001e-05
2.13029e-05
2.1398e-05
2.14873e-05
2.15725e-05
2.1657e-05
2.1749e-05
2.1868e-05
2.20493e-05
2.23212e-05
2.26307e-05
2.27982e-05
2.26938e-05
2.24661e-05
2.23317e-05
2.23342e-05
2.24224e-05
2.25713e-05
2.28329e-05
2.29376e-05
2.29047e-05
2.28104e-05
2.27481e-05
2.27335e-05
2.27428e-05
2.27579e-05
2.27735e-05
2.27892e-05
2.28048e-05
2.28198e-05
2.28339e-05
2.28478e-05
2.28627e-05
2.28794e-05
2.28985e-05
2.29201e-05
2.29436e-05
2.29668e-05
2.2986e-05
2.29977e-05
2.30005e-05
2.29964e-05
2.29879e-05
2.29759e-05
2.29594e-05
2.29374e-05
2.29112e-05
2.28844e-05
2.2861e-05
2.28465e-05
2.28506e-05
2.2892e-05
2.29857e-05
2.30995e-05
2.31371e-05
2.3049e-05
2.29146e-05
2.2811e-05
2.26415e-05
2.2579e-05
2.25342e-05
2.24917e-05
2.24489e-05
2.24044e-05
2.23562e-05
2.23024e-05
2.22411e-05
2.21711e-05
2.2092e-05
2.20043e-05
2.19087e-05
2.18059e-05
2.16961e-05
2.15793e-05
2.1455e-05
2.13226e-05
2.11813e-05
2.10302e-05
2.08685e-05
2.06954e-05
2.05098e-05
2.03111e-05
2.00983e-05
1.98705e-05
1.9627e-05
1.9367e-05
1.90894e-05
2.03372e-05
1.56419e-05
1.91271e-05
1.9404e-05
1.96626e-05
1.99025e-05
2.01238e-05
2.03266e-05
2.05113e-05
2.06786e-05
2.08297e-05
2.09659e-05
2.10889e-05
2.12006e-05
2.13028e-05
2.13974e-05
2.1486e-05
2.15706e-05
2.16549e-05
2.17473e-05
2.18681e-05
2.2052e-05
2.23245e-05
2.26299e-05
2.27936e-05
2.2693e-05
2.24686e-05
2.23324e-05
2.2333e-05
2.24218e-05
2.25728e-05
2.28358e-05
2.29406e-05
2.29071e-05
2.2812e-05
2.27487e-05
2.27337e-05
2.27432e-05
2.27585e-05
2.27743e-05
2.27901e-05
2.28058e-05
2.28209e-05
2.2835e-05
2.2849e-05
2.28639e-05
2.28806e-05
2.28997e-05
2.29214e-05
2.29449e-05
2.29682e-05
2.29874e-05
2.29989e-05
2.30017e-05
2.29975e-05
2.2989e-05
2.2977e-05
2.29603e-05
2.29382e-05
2.29118e-05
2.28847e-05
2.28611e-05
2.28463e-05
2.28505e-05
2.28925e-05
2.29866e-05
2.30998e-05
2.3137e-05
2.30495e-05
2.29151e-05
2.28104e-05
2.26399e-05
2.2577e-05
2.25322e-05
2.24896e-05
2.24468e-05
2.24022e-05
2.2354e-05
2.23001e-05
2.22386e-05
2.21684e-05
2.20892e-05
2.20012e-05
2.19054e-05
2.18023e-05
2.16923e-05
2.15752e-05
2.14507e-05
2.13181e-05
2.11766e-05
2.10254e-05
2.08635e-05
2.06902e-05
2.05045e-05
2.03057e-05
2.00927e-05
1.98648e-05
1.96212e-05
1.9361e-05
1.90834e-05
2.033e-05
1.56442e-05
1.91291e-05
1.9406e-05
1.96646e-05
1.99046e-05
2.01259e-05
2.03287e-05
2.05134e-05
2.06806e-05
2.08315e-05
2.09675e-05
2.10901e-05
2.12013e-05
2.1303e-05
2.13969e-05
2.14848e-05
2.15689e-05
2.16528e-05
2.17457e-05
2.18682e-05
2.20547e-05
2.23277e-05
2.26291e-05
2.27892e-05
2.2692e-05
2.24708e-05
2.2333e-05
2.23318e-05
2.24213e-05
2.25744e-05
2.28389e-05
2.29436e-05
2.29096e-05
2.28136e-05
2.27494e-05
2.27341e-05
2.27436e-05
2.27593e-05
2.27752e-05
2.27911e-05
2.28069e-05
2.2822e-05
2.28362e-05
2.28502e-05
2.28651e-05
2.28819e-05
2.29011e-05
2.29228e-05
2.29464e-05
2.29696e-05
2.29888e-05
2.30003e-05
2.3003e-05
2.29988e-05
2.29902e-05
2.29781e-05
2.29613e-05
2.29391e-05
2.29125e-05
2.28851e-05
2.28612e-05
2.28462e-05
2.28505e-05
2.2893e-05
2.29875e-05
2.31002e-05
2.3137e-05
2.30501e-05
2.29156e-05
2.28099e-05
2.26382e-05
2.2575e-05
2.253e-05
2.24873e-05
2.24445e-05
2.23999e-05
2.23516e-05
2.22976e-05
2.2236e-05
2.21656e-05
2.20861e-05
2.19979e-05
2.19018e-05
2.17984e-05
2.16881e-05
2.15708e-05
2.14461e-05
2.13132e-05
2.11715e-05
2.10201e-05
2.08581e-05
2.06846e-05
2.04988e-05
2.02998e-05
2.00866e-05
1.98586e-05
1.96148e-05
1.93545e-05
1.90767e-05
2.03223e-05
1.56466e-05
1.91313e-05
1.94082e-05
1.96669e-05
1.99069e-05
2.01283e-05
2.0331e-05
2.05157e-05
2.06828e-05
2.08335e-05
2.09692e-05
2.10914e-05
2.12021e-05
2.13032e-05
2.13964e-05
2.14837e-05
2.15672e-05
2.16509e-05
2.17442e-05
2.18685e-05
2.20573e-05
2.23306e-05
2.26281e-05
2.27849e-05
2.26909e-05
2.24729e-05
2.23337e-05
2.23307e-05
2.24209e-05
2.25762e-05
2.28421e-05
2.29468e-05
2.29121e-05
2.28152e-05
2.27501e-05
2.27344e-05
2.27442e-05
2.276e-05
2.27761e-05
2.27922e-05
2.28081e-05
2.28232e-05
2.28374e-05
2.28515e-05
2.28664e-05
2.28832e-05
2.29025e-05
2.29243e-05
2.29479e-05
2.29712e-05
2.29904e-05
2.30018e-05
2.30045e-05
2.30002e-05
2.29915e-05
2.29793e-05
2.29625e-05
2.29401e-05
2.29133e-05
2.28857e-05
2.28615e-05
2.28462e-05
2.28506e-05
2.28935e-05
2.29885e-05
2.31007e-05
2.31372e-05
2.30508e-05
2.29161e-05
2.28093e-05
2.26365e-05
2.25729e-05
2.25278e-05
2.2485e-05
2.24421e-05
2.23974e-05
2.2349e-05
2.22949e-05
2.22332e-05
2.21626e-05
2.20828e-05
2.19944e-05
2.1898e-05
2.17943e-05
2.16837e-05
2.15662e-05
2.14411e-05
2.13081e-05
2.11662e-05
2.10145e-05
2.08523e-05
2.06787e-05
2.04927e-05
2.02934e-05
2.00801e-05
1.98519e-05
1.9608e-05
1.93474e-05
1.90696e-05
2.03138e-05
1.56492e-05
1.91337e-05
1.94106e-05
1.96693e-05
1.99094e-05
2.01307e-05
2.03335e-05
2.05181e-05
2.06852e-05
2.08357e-05
2.09711e-05
2.10929e-05
2.12031e-05
2.13035e-05
2.13961e-05
2.14827e-05
2.15656e-05
2.1649e-05
2.17429e-05
2.18688e-05
2.20599e-05
2.23333e-05
2.26269e-05
2.27806e-05
2.26896e-05
2.24748e-05
2.23344e-05
2.23298e-05
2.24206e-05
2.2578e-05
2.28455e-05
2.29501e-05
2.29148e-05
2.28169e-05
2.27508e-05
2.27348e-05
2.27447e-05
2.27609e-05
2.27772e-05
2.27934e-05
2.28094e-05
2.28246e-05
2.28388e-05
2.28529e-05
2.28678e-05
2.28847e-05
2.2904e-05
2.29259e-05
2.29496e-05
2.29729e-05
2.2992e-05
2.30035e-05
2.30061e-05
2.30017e-05
2.2993e-05
2.29807e-05
2.29638e-05
2.29412e-05
2.29142e-05
2.28863e-05
2.28618e-05
2.28463e-05
2.28507e-05
2.28942e-05
2.29895e-05
2.31014e-05
2.31375e-05
2.30517e-05
2.29168e-05
2.28089e-05
2.26348e-05
2.25708e-05
2.25255e-05
2.24826e-05
2.24397e-05
2.23949e-05
2.23464e-05
2.22922e-05
2.22302e-05
2.21594e-05
2.20794e-05
2.19906e-05
2.18939e-05
2.179e-05
2.16791e-05
2.15612e-05
2.14359e-05
2.13026e-05
2.11604e-05
2.10086e-05
2.08461e-05
2.06723e-05
2.04861e-05
2.02866e-05
2.00732e-05
1.98448e-05
1.96006e-05
1.93399e-05
1.90618e-05
2.03046e-05
1.5652e-05
1.91362e-05
1.94132e-05
1.96719e-05
1.9912e-05
2.01334e-05
2.03362e-05
2.05208e-05
2.06877e-05
2.08381e-05
2.09731e-05
2.10945e-05
2.12042e-05
2.1304e-05
2.13959e-05
2.14818e-05
2.15641e-05
2.16472e-05
2.17416e-05
2.18692e-05
2.20624e-05
2.23357e-05
2.26256e-05
2.27764e-05
2.26882e-05
2.24765e-05
2.23351e-05
2.23289e-05
2.24205e-05
2.25801e-05
2.2849e-05
2.29536e-05
2.29176e-05
2.28187e-05
2.27516e-05
2.27353e-05
2.27454e-05
2.27618e-05
2.27783e-05
2.27946e-05
2.28107e-05
2.2826e-05
2.28402e-05
2.28543e-05
2.28694e-05
2.28863e-05
2.29057e-05
2.29276e-05
2.29514e-05
2.29747e-05
2.29938e-05
2.30052e-05
2.30078e-05
2.30034e-05
2.29946e-05
2.29822e-05
2.29652e-05
2.29425e-05
2.29153e-05
2.28871e-05
2.28622e-05
2.28465e-05
2.2851e-05
2.28949e-05
2.29906e-05
2.31021e-05
2.31379e-05
2.30527e-05
2.29175e-05
2.28084e-05
2.26331e-05
2.25686e-05
2.25231e-05
2.24801e-05
2.24371e-05
2.23922e-05
2.23436e-05
2.22892e-05
2.22271e-05
2.2156e-05
2.20757e-05
2.19867e-05
2.18896e-05
2.17853e-05
2.16741e-05
2.15559e-05
2.14303e-05
2.12967e-05
2.11543e-05
2.10022e-05
2.08395e-05
2.06654e-05
2.0479e-05
2.02794e-05
2.00657e-05
1.98371e-05
1.95927e-05
1.93318e-05
1.90535e-05
2.02948e-05
1.5655e-05
1.91389e-05
1.94159e-05
1.96746e-05
1.99148e-05
2.01362e-05
2.0339e-05
2.05235e-05
2.06904e-05
2.08405e-05
2.09753e-05
2.10963e-05
2.12054e-05
2.13046e-05
2.13959e-05
2.1481e-05
2.15627e-05
2.16456e-05
2.17405e-05
2.18697e-05
2.20648e-05
2.23379e-05
2.26242e-05
2.27721e-05
2.26865e-05
2.24779e-05
2.23358e-05
2.23282e-05
2.24205e-05
2.25822e-05
2.28526e-05
2.29572e-05
2.29204e-05
2.28205e-05
2.27525e-05
2.27358e-05
2.27461e-05
2.27627e-05
2.27794e-05
2.27959e-05
2.28121e-05
2.28274e-05
2.28418e-05
2.28559e-05
2.2871e-05
2.28879e-05
2.29074e-05
2.29295e-05
2.29533e-05
2.29767e-05
2.29958e-05
2.30071e-05
2.30096e-05
2.30052e-05
2.29963e-05
2.29839e-05
2.29667e-05
2.29439e-05
2.29165e-05
2.2888e-05
2.28628e-05
2.28468e-05
2.28513e-05
2.28957e-05
2.29917e-05
2.31029e-05
2.31386e-05
2.30538e-05
2.29184e-05
2.28081e-05
2.26314e-05
2.25664e-05
2.25206e-05
2.24776e-05
2.24344e-05
2.23894e-05
2.23407e-05
2.22861e-05
2.22238e-05
2.21525e-05
2.20719e-05
2.19825e-05
2.18851e-05
2.17804e-05
2.16688e-05
2.15503e-05
2.14244e-05
2.12904e-05
2.11477e-05
2.09954e-05
2.08325e-05
2.06581e-05
2.04715e-05
2.02716e-05
2.00577e-05
1.98289e-05
1.95843e-05
1.93232e-05
1.90447e-05
2.02844e-05
1.56582e-05
1.91417e-05
1.94187e-05
1.96775e-05
1.99177e-05
2.01391e-05
2.03419e-05
2.05264e-05
2.06932e-05
2.08431e-05
2.09776e-05
2.10982e-05
2.12068e-05
2.13054e-05
2.13959e-05
2.14804e-05
2.15614e-05
2.1644e-05
2.17395e-05
2.18703e-05
2.20672e-05
2.23399e-05
2.26227e-05
2.27679e-05
2.26846e-05
2.24791e-05
2.23365e-05
2.23276e-05
2.24207e-05
2.25846e-05
2.28564e-05
2.29609e-05
2.29233e-05
2.28223e-05
2.27534e-05
2.27364e-05
2.27468e-05
2.27638e-05
2.27807e-05
2.27973e-05
2.28136e-05
2.2829e-05
2.28434e-05
2.28576e-05
2.28727e-05
2.28897e-05
2.29093e-05
2.29314e-05
2.29554e-05
2.29788e-05
2.29979e-05
2.30092e-05
2.30117e-05
2.30071e-05
2.29982e-05
2.29857e-05
2.29684e-05
2.29454e-05
2.29178e-05
2.2889e-05
2.28635e-05
2.28472e-05
2.28518e-05
2.28965e-05
2.2993e-05
2.31039e-05
2.31394e-05
2.30551e-05
2.29193e-05
2.28077e-05
2.26297e-05
2.25642e-05
2.25182e-05
2.2475e-05
2.24317e-05
2.23865e-05
2.23376e-05
2.22829e-05
2.22203e-05
2.21487e-05
2.20678e-05
2.19781e-05
2.18803e-05
2.17752e-05
2.16633e-05
2.15444e-05
2.14181e-05
2.12838e-05
2.11408e-05
2.09881e-05
2.0825e-05
2.06504e-05
2.04634e-05
2.02633e-05
2.00492e-05
1.98201e-05
1.95753e-05
1.9314e-05
1.90354e-05
2.02733e-05
1.56615e-05
1.91446e-05
1.94217e-05
1.96805e-05
1.99207e-05
2.01422e-05
2.0345e-05
2.05295e-05
2.06961e-05
2.08459e-05
2.09801e-05
2.11003e-05
2.12083e-05
2.13062e-05
2.1396e-05
2.14798e-05
2.15602e-05
2.16426e-05
2.17386e-05
2.1871e-05
2.20695e-05
2.23418e-05
2.2621e-05
2.27635e-05
2.26825e-05
2.24799e-05
2.23371e-05
2.23272e-05
2.24211e-05
2.25871e-05
2.28603e-05
2.29647e-05
2.29263e-05
2.28242e-05
2.27543e-05
2.27371e-05
2.27477e-05
2.27649e-05
2.2782e-05
2.27988e-05
2.28152e-05
2.28307e-05
2.28451e-05
2.28593e-05
2.28745e-05
2.28916e-05
2.29113e-05
2.29335e-05
2.29575e-05
2.2981e-05
2.30001e-05
2.30114e-05
2.30138e-05
2.30092e-05
2.30002e-05
2.29877e-05
2.29703e-05
2.29471e-05
2.29193e-05
2.28902e-05
2.28643e-05
2.28478e-05
2.28523e-05
2.28976e-05
2.29944e-05
2.31051e-05
2.31404e-05
2.30565e-05
2.29204e-05
2.28075e-05
2.2628e-05
2.25619e-05
2.25156e-05
2.24723e-05
2.24288e-05
2.23835e-05
2.23345e-05
2.22795e-05
2.22167e-05
2.21448e-05
2.20635e-05
2.19734e-05
2.18752e-05
2.17698e-05
2.16574e-05
2.15381e-05
2.14114e-05
2.12768e-05
2.11335e-05
2.09805e-05
2.0817e-05
2.06421e-05
2.04549e-05
2.02545e-05
2.00401e-05
1.98108e-05
1.95658e-05
1.93042e-05
1.90254e-05
2.02616e-05
1.56649e-05
1.91477e-05
1.94248e-05
1.96837e-05
1.99239e-05
2.01454e-05
2.03482e-05
2.05326e-05
2.06992e-05
2.08488e-05
2.09826e-05
2.11024e-05
2.12099e-05
2.13072e-05
2.13963e-05
2.14793e-05
2.15591e-05
2.16412e-05
2.17379e-05
2.18717e-05
2.20718e-05
2.23435e-05
2.26192e-05
2.27591e-05
2.26801e-05
2.24805e-05
2.23376e-05
2.23269e-05
2.24216e-05
2.25899e-05
2.28645e-05
2.29687e-05
2.29293e-05
2.28261e-05
2.27553e-05
2.27378e-05
2.27486e-05
2.27661e-05
2.27834e-05
2.28003e-05
2.28169e-05
2.28324e-05
2.28469e-05
2.28612e-05
2.28764e-05
2.28936e-05
2.29134e-05
2.29357e-05
2.29599e-05
2.29834e-05
2.30025e-05
2.30138e-05
2.30162e-05
2.30115e-05
2.30025e-05
2.29898e-05
2.29723e-05
2.2949e-05
2.29209e-05
2.28915e-05
2.28653e-05
2.28485e-05
2.28531e-05
2.28987e-05
2.29959e-05
2.31064e-05
2.31416e-05
2.30581e-05
2.29216e-05
2.28074e-05
2.26264e-05
2.25596e-05
2.25131e-05
2.24695e-05
2.24259e-05
2.23804e-05
2.23312e-05
2.2276e-05
2.22129e-05
2.21406e-05
2.2059e-05
2.19685e-05
2.18699e-05
2.1764e-05
2.16512e-05
2.15315e-05
2.14044e-05
2.12694e-05
2.11257e-05
2.09724e-05
2.08086e-05
2.06334e-05
2.04459e-05
2.02452e-05
2.00305e-05
1.98009e-05
1.95556e-05
1.92938e-05
1.90149e-05
2.02491e-05
1.56686e-05
1.91509e-05
1.94281e-05
1.9687e-05
1.99272e-05
2.01487e-05
2.03515e-05
2.05359e-05
2.07023e-05
2.08517e-05
2.09853e-05
2.11047e-05
2.12117e-05
2.13083e-05
2.13966e-05
2.14789e-05
2.15581e-05
2.164e-05
2.17372e-05
2.18726e-05
2.20741e-05
2.23451e-05
2.26174e-05
2.27547e-05
2.26774e-05
2.24808e-05
2.23381e-05
2.23267e-05
2.24224e-05
2.25929e-05
2.28688e-05
2.29728e-05
2.29324e-05
2.28281e-05
2.27563e-05
2.27385e-05
2.27495e-05
2.27673e-05
2.27849e-05
2.2802e-05
2.28186e-05
2.28343e-05
2.28488e-05
2.28631e-05
2.28785e-05
2.28957e-05
2.29156e-05
2.29381e-05
2.29623e-05
2.29859e-05
2.30051e-05
2.30163e-05
2.30187e-05
2.3014e-05
2.30049e-05
2.29921e-05
2.29746e-05
2.29511e-05
2.29227e-05
2.2893e-05
2.28664e-05
2.28493e-05
2.28539e-05
2.29e-05