/*--------------------------------*- C++ -*----------------------------------*\
  =========                 |
  \\      /  F ield         | OpenFOAM: The Open Source CFD Toolbox
   \\    /   O peration     | Website:  https://openfoam.org
    \\  /    A nd           | Version:  9
     \\/     M anipulation  |
\*---------------------------------------------------------------------------*/
FoamFile
{
    format      ascii;
    class       volVectorField;
    location    "0.09";
    object      U;
}
// * * * * * * * * * * * * * * * * * * * * * * * * * * * * * * * * * * * * * //

dimensions      [0 1 -1 0 0 0 0];

internalField   nonuniform List<vector> 
20000
(
(0.000106162 0 0.00347749)
(0.000116139 0 0.00857821)
(0.00013417 0 0.0135833)
(0.000153126 0 0.0192763)
(0.000179008 0 0.0260101)
(0.000214097 0 0.0339537)
(0.000257842 0 0.0431702)
(0.000308273 0 0.0536146)
(0.000361716 0 0.0651221)
(0.000412853 0 0.0774145)
(0.000455358 0 0.0901309)
(0.000482901 0 0.102873)
(0.000490096 0 0.11525)
(0.000472875 0 0.126909)
(0.000427958 0 0.137541)
(0.000351243 0 0.146849)
(0.000235043 0 0.154487)
(6.50935e-05 0 0.159893)
(-0.000185725 0 0.161813)
(-0.000522727 0 0.156613)
(-0.000778468 0 0.133522)
(-0.000326352 0 0.0686473)
(0.000753001 0 -0.0513226)
(-0.000164584 0 -0.130774)
(-0.000686077 0 -0.0281758)
(0.000577366 0 0.0981374)
(0.000623416 0 0.153092)
(5.82446e-05 0 0.161958)
(-0.000375887 0 0.149865)
(-0.000545465 0 0.121918)
(-0.000410654 0 0.0765033)
(-0.000159239 0 0.0381646)
(4.7237e-05 0 0.0481191)
(0.000179367 0 0.080299)
(0.000144374 0 0.100206)
(2.91431e-05 0 0.104873)
(-4.63986e-05 0 0.102291)
(-7.62503e-05 0 0.0976218)
(-8.59101e-05 0 0.092411)
(-8.75e-05 0 0.0868528)
(-8.48756e-05 0 0.0811207)
(-7.99878e-05 0 0.075513)
(-7.51193e-05 0 0.0701351)
(-7.17977e-05 0 0.0647786)
(-6.99804e-05 0 0.0590883)
(-6.84224e-05 0 0.0527549)
(-6.53478e-05 0 0.0455743)
(-5.88874e-05 0 0.0374596)
(-4.80093e-05 0 0.028582)
(-3.42007e-05 0 0.0196587)
(-2.1714e-05 0 0.0120582)
(-1.35812e-05 0 0.00726258)
(-8.21887e-06 0 0.00585585)
(-2.41322e-06 0 0.00716289)
(4.89539e-06 0 0.0101189)
(1.36311e-05 0 0.0143543)
(2.47072e-05 0 0.0202739)
(3.85951e-05 0 0.0281805)
(5.2036e-05 0 0.0375045)
(5.774e-05 0 0.0469108)
(4.7236e-05 0 0.0548834)
(1.22868e-05 0 0.0598083)
(-4.70572e-05 0 0.0588781)
(-8.40596e-05 0 0.0460356)
(2.04612e-05 0 0.0130214)
(0.000135961 0 -0.0338872)
(-3.09521e-05 0 -0.0524303)
(-8.03001e-05 0 -0.0149732)
(0.000135412 0 0.0367361)
(0.00020433 0 0.0688339)
(0.000137498 0 0.0815995)
(6.69526e-05 0 0.0853848)
(1.85672e-05 0 0.0856072)
(-1.39902e-05 0 0.0838089)
(-3.53149e-05 0 0.0806209)
(-4.69033e-05 0 0.0764735)
(-4.91124e-05 0 0.0718552)
(-4.35119e-05 0 0.0673629)
(-3.29637e-05 0 0.0635858)
(-2.08275e-05 0 0.0609099)
(-9.97761e-06 0 0.0593836)
(-2.39913e-06 0 0.0587423)
(8.85821e-07 0 0.05856)
(-2.78083e-07 0 0.0584168)
(-5.14954e-06 0 0.0579997)
(-1.25137e-05 0 0.057126)
(-2.11772e-05 0 0.0557184)
(-3.00116e-05 0 0.0537694)
(-3.81186e-05 0 0.051309)
(-4.48494e-05 0 0.0483843)
(-4.97628e-05 0 0.0450469)
(-5.25681e-05 0 0.041346)
(-5.30811e-05 0 0.0373249)
(-5.12242e-05 0 0.0330208)
(-4.70942e-05 0 0.0284684)
(-4.10578e-05 0 0.0237081)
(-3.43238e-05 0 0.0187995)
(-2.83695e-05 0 0.0138404)
(-2.86224e-05 0 0.00900701)
(-5.16473e-05 0 0.00425909)
(0.000439255 0 0.00340912)
(0.000448186 0 0.00849615)
(0.000479016 0 0.013514)
(0.000508729 0 0.0191955)
(0.000550304 0 0.0259004)
(0.000609198 0 0.0338125)
(0.000684389 0 0.0430003)
(0.000772536 0 0.0534234)
(0.000867312 0 0.0649211)
(0.000958962 0 0.0772184)
(0.00103495 0 0.0899546)
(0.00108143 0 0.102729)
(0.00108495 0 0.115148)
(0.00103361 0 0.126854)
(0.000916821 0 0.137537)
(0.000723632 0 0.146903)
(0.000440045 0 0.154613)
(4.82855e-05 0 0.160115)
(-0.000466046 0 0.162134)
(-0.00104838 0 0.15688)
(-0.00132731 0 0.133122)
(-0.000193676 0 0.0670367)
(0.00194376 0 -0.0514296)
(-0.000328367 0 -0.127388)
(-0.00194396 0 -0.02943)
(0.000651979 0 0.0965018)
(0.00107793 0 0.153109)
(9.06203e-05 0 0.162321)
(-0.000782465 0 0.150034)
(-0.00113421 0 0.121818)
(-0.000848376 0 0.0762967)
(-0.000415984 0 0.0381457)
(-8.06506e-05 0 0.0479241)
(0.000251712 0 0.080057)
(0.000262565 0 0.100106)
(4.41396e-05 0 0.104814)
(-0.000131606 0 0.102208)
(-0.000218464 0 0.0975097)
(-0.000253582 0 0.0922848)
(-0.000263677 0 0.0867203)
(-0.000260988 0 0.0809843)
(-0.000251745 0 0.0753731)
(-0.000240932 0 0.069992)
(-0.00023171 0 0.0646328)
(-0.000224344 0 0.05894)
(-0.000216482 0 0.0526038)
(-0.000204161 0 0.0454194)
(-0.000183046 0 0.0373002)
(-0.000151183 0 0.0284192)
(-0.000113505 0 0.0194959)
(-8.04023e-05 0 0.0118975)
(-5.76399e-05 0 0.00710054)
(-3.99884e-05 0 0.00568564)
(-1.90764e-05 0 0.00698279)
(6.69187e-06 0 0.00993291)
(3.46284e-05 0 0.0141653)
(6.46524e-05 0 0.0200804)
(9.77999e-05 0 0.0279802)
(0.000127984 0 0.0373004)
(0.000139315 0 0.0467117)
(0.000112494 0 0.0546997)
(3.21178e-05 0 0.0596462)
(-8.91601e-05 0 0.0587195)
(-0.000140892 0 0.0458018)
(0.000138418 0 0.0127152)
(0.000421707 0 -0.0339138)
(-4.59667e-06 0 -0.0522515)
(-0.000179528 0 -0.015268)
(0.000311535 0 0.0363211)
(0.000508983 0 0.068624)
(0.000391615 0 0.0814958)
(0.000241142 0 0.0852873)
(0.000128168 0 0.0855045)
(4.82226e-05 0 0.083705)
(-4.03602e-06 0 0.0805179)
(-3.17024e-05 0 0.0763719)
(-3.82205e-05 0 0.0717558)
(-2.8932e-05 0 0.0672672)
(-1.09668e-05 0 0.0634952)
(9.06064e-06 0 0.0608248)
(2.65299e-05 0 0.0593041)
(3.85351e-05 0 0.058669)
(4.35631e-05 0 0.0584941)
(4.12029e-05 0 0.0583597)
(3.23031e-05 0 0.057952)
(1.86774e-05 0 0.0570872)
(2.4252e-06 0 0.0556873)
(-1.43097e-05 0 0.0537444)
(-2.97112e-05 0 0.0512884)
(-4.24097e-05 0 0.0483666)
(-5.14567e-05 0 0.0450307)
(-5.62532e-05 0 0.0413298)
(-5.64924e-05 0 0.0373074)
(-5.21836e-05 0 0.033001)
(-4.38063e-05 0 0.0284464)
(-3.24811e-05 0 0.0236861)
(-2.08279e-05 0 0.0187849)
(-1.19257e-05 0 0.0138489)
(-1.58033e-05 0 0.00907772)
(-6.78254e-05 0 0.00444932)
(0.000795717 0 0.00337336)
(0.000797949 0 0.00843115)
(0.000823377 0 0.0134345)
(0.000853211 0 0.0190798)
(0.000899262 0 0.0257396)
(0.000965462 0 0.0336106)
(0.00105 0 0.0427686)
(0.00114878 0 0.0531798)
(0.00125421 0 0.0646901)
(0.00135448 0 0.0770288)
(0.00143409 0 0.0898365)
(0.00147536 0 0.102709)
(0.00146041 0 0.115245)
(0.00137274 0 0.127083)
(0.00119768 0 0.137907)
(0.000921354 0 0.147424)
(0.000528962 0 0.155299)
(5.68896e-06 0 0.160978)
(-0.000647296 0 0.163121)
(-0.00133596 0 0.157641)
(-0.00158918 0 0.13264)
(-9.45508e-05 0 0.0646022)
(0.00261061 0 -0.0522678)
(-0.000178698 0 -0.123831)
(-0.00253279 0 -0.030606)
(0.00042447 0 0.0948852)
(0.00102327 0 0.15363)
(-9.07909e-05 0 0.163392)
(-0.00113813 0 0.150724)
(-0.00156306 0 0.121879)
(-0.00115769 0 0.0759017)
(-0.000608515 0 0.0378639)
(-0.000227668 0 0.0476388)
(0.000201708 0 0.0799355)
(0.000245239 0 0.10025)
(-1.86037e-05 0 0.10501)
(-0.000247737 0 0.102342)
(-0.000373643 0 0.097585)
(-0.00043082 0 0.0923288)
(-0.000450693 0 0.0867488)
(-0.000450147 0 0.0810049)
(-0.000438828 0 0.0753908)
(-0.000423888 0 0.0700104)
(-0.000409538 0 0.0646534)
(-0.000396131 0 0.0589616)
(-0.00038056 0 0.0526234)
(-0.000357439 0 0.0454334)
(-0.000320837 0 0.0373056)
(-0.000268001 0 0.0284167)
(-0.000206965 0 0.0194927)
(-0.000152537 0 0.0119028)
(-0.000112345 0 0.00711536)
(-7.9798e-05 0 0.00570339)
(-4.26453e-05 0 0.00699824)
(2.14741e-06 0 0.00994627)
(5.00092e-05 0 0.0141777)
(9.87017e-05 0 0.0200916)
(0.000148062 0 0.0279924)
(0.000189913 0 0.037323)
(0.000203697 0 0.0467593)
(0.000164552 0 0.0547864)
(5.51745e-05 0 0.0597729)
(-9.92651e-05 0 0.0588339)
(-0.000147198 0 0.045745)
(0.000257172 0 0.0124571)
(0.000684431 0 -0.0338832)
(0.000144196 0 -0.0519109)
(-0.000128484 0 -0.0153937)
(0.000480451 0 0.0360841)
(0.000746716 0 0.0686658)
(0.000616564 0 0.0816736)
(0.000430937 0 0.0854594)
(0.000282437 0 0.0856437)
(0.000172767 0 0.0838116)
(0.00010016 0 0.0805937)
(6.18407e-05 0 0.0764173)
(5.25075e-05 0 0.0717741)
(6.39786e-05 0 0.0672658)
(8.59396e-05 0 0.0634837)
(0.0001095 0 0.0608122)
(0.000128989 0 0.0592969)
(0.000141313 0 0.0586717)
(0.00014512 0 0.0585093)
(0.000140263 0 0.0583876)
(0.000127846 0 0.0579908)
(0.00010999 0 0.0571335)
(8.9267e-05 0 0.055737)
(6.82763e-05 0 0.0537931)
(4.92371e-05 0 0.0513323)
(3.38447e-05 0 0.0484023)
(2.32788e-05 0 0.0450554)
(1.82814e-05 0 0.0413414)
(1.92313e-05 0 0.0373042)
(2.61413e-05 0 0.0329823)
(3.85026e-05 0 0.0284132)
(5.49631e-05 0 0.0236425)
(7.27211e-05 0 0.0187424)
(8.75797e-05 0 0.0138328)
(9.05656e-05 0 0.00912486)
(5.49418e-05 0 0.00455719)
(0.00109394 0 0.00336032)
(0.00109131 0 0.00839556)
(0.00110908 0 0.0133637)
(0.00113894 0 0.018961)
(0.00118825 0 0.0255697)
(0.00125892 0 0.0333955)
(0.00134864 0 0.0425214)
(0.00145267 0 0.0529205)
(0.0015624 0 0.0644462)
(0.00166455 0 0.0768337)
(0.0017417 0 0.0897256)
(0.00177379 0 0.102716)
(0.00174033 0 0.115397)
(0.00162224 0 0.127399)
(0.00140274 0 0.1384)
(0.0010667 0 0.148105)
(0.000598983 0 0.156175)
(-1.39775e-05 0 0.162041)
(-0.00076047 0 0.164268)
(-0.00151137 0 0.158421)
(-0.00174375 0 0.131983)
(-0.000147356 0 0.0620537)
(0.00271144 0 -0.0530379)
(-5.64819e-05 0 -0.120369)
(-0.00264048 0 -0.031372)
(0.000226896 0 0.0932858)
(0.000803536 0 0.154086)
(-0.000368745 0 0.164583)
(-0.00151119 0 0.151556)
(-0.00198527 0 0.121994)
(-0.00149519 0 0.0754659)
(-0.000815624 0 0.0374939)
(-0.000359423 0 0.0473056)
(0.000116564 0 0.0798085)
(0.00015462 0 0.100424)
(-0.000143147 0 0.105266)
(-0.000403747 0 0.102539)
(-0.000555055 0 0.0977155)
(-0.000628757 0 0.0924188)
(-0.00065715 0 0.0868167)
(-0.000658837 0 0.0810607)
(-0.000645625 0 0.0754417)
(-0.000626597 0 0.0700616)
(-0.000606933 0 0.0647069)
(-0.000586945 0 0.0590161)
(-0.000562814 0 0.0526751)
(-0.00052813 0 0.0454775)
(-0.000475973 0 0.0373384)
(-0.000403004 0 0.0284393)
(-0.000319019 0 0.019513)
(-0.000241796 0 0.0119315)
(-0.000180619 0 0.00715422)
(-0.000129163 0 0.00574574)
(-7.35043e-05 0 0.00703835)
(-9.03651e-06 0 0.009984)
(5.93889e-05 0 0.0142146)
(0.000128154 0 0.0201288)
(0.000195175 0 0.0280344)
(0.000249787 0 0.0373822)
(0.000268318 0 0.046854)
(0.000223224 0 0.0549324)
(9.77197e-05 0 0.0599668)
(-7.22516e-05 0 0.0590051)
(-0.000112461 0 0.0457122)
(0.000360013 0 0.0121996)
(0.000882271 0 -0.033842)
(0.000343271 0 -0.0515473)
(4.602e-05 0 -0.0154964)
(0.00069283 0 0.0358453)
(0.000983524 0 0.0687224)
(0.000848313 0 0.0818957)
(0.000646068 0 0.0856927)
(0.000476265 0 0.0858443)
(0.000347488 0 0.0839721)
(0.000261325 0 0.0807129)
(0.000215628 0 0.0764954)
(0.000204616 0 0.0718158)
(0.000218386 0 0.0672811)
(0.000244499 0 0.063485)
(0.000272178 0 0.0608108)
(0.0002945 0 0.0593012)
(0.000307915 0 0.0586869)
(0.000311115 0 0.058538)
(0.000304317 0 0.0584298)
(0.000289081 0 0.0580445)
(0.000267969 0 0.0571948)
(0.000243989 0 0.0558011)
(0.000220084 0 0.0538551)
(0.000198743 0 0.0513878)
(0.00018186 0 0.0484473)
(0.000170741 0 0.0450868)
(0.000166197 0 0.0413567)
(0.000168616 0 0.0373017)
(0.000177966 0 0.0329614)
(0.000193641 0 0.028375)
(0.000214046 0 0.0235918)
(0.000235992 0 0.0186909)
(0.000255048 0 0.0138031)
(0.000265412 0 0.00913973)
(0.000251444 0 0.00460407)
(0.0013156 0 0.00336089)
(0.00131312 0 0.0083765)
(0.00132705 0 0.0133041)
(0.00135727 0 0.0188497)
(0.00140841 0 0.0254067)
(0.0014814 0 0.033188)
(0.00157379 0 0.042282)
(0.00168047 0 0.0526686)
(0.00179222 0 0.0642087)
(0.00189487 0 0.0766439)
(0.00196972 0 0.0896198)
(0.00199502 0 0.102728)
(0.0019483 0 0.115557)
(0.0018085 0 0.127727)
(0.00155712 0 0.138909)
(0.00117804 0 0.148803)
(0.00065614 0 0.157063)
(-2.02696e-05 0 0.163098)
(-0.000827933 0 0.165361)
(-0.00159783 0 0.159056)
(-0.00177632 0 0.131137)
(-0.000193212 0 0.0595641)
(0.00252208 0 -0.0535607)
(-0.000107165 0 -0.116988)
(-0.00265955 0 -0.0317588)
(1.1125e-05 0 0.0917413)
(0.000540082 0 0.154367)
(-0.000649024 0 0.165669)
(-0.00186396 0 0.152324)
(-0.00238647 0 0.122055)
(-0.00185604 0 0.0749967)
(-0.00106924 0 0.0371033)
(-0.000524518 0 0.046954)
(-9.0242e-06 0 0.0796391)
(1.68654e-05 0 0.100542)
(-0.000308015 0 0.10548)
(-0.000592084 0 0.102705)
(-0.00076325 0 0.0978158)
(-0.000850186 0 0.092475)
(-0.000885724 0 0.0868466)
(-0.000889308 0 0.0810751)
(-0.000874095 0 0.0754484)
(-0.000850679 0 0.070066)
(-0.000825104 0 0.0647111)
(-0.000797694 0 0.0590188)
(-0.000764079 0 0.0526725)
(-0.000717144 0 0.0454646)
(-0.00064939 0 0.0373117)
(-0.000557162 0 0.0284005)
(-0.000451356 0 0.0194711)
(-0.000351317 0 0.0118973)
(-0.000267047 0 0.00712951)
(-0.000193169 0 0.00572294)
(-0.000115859 0 0.00701125)
(-2.97106e-05 0 0.0099528)
(6.0782e-05 0 0.0141822)
(0.000151486 0 0.0200973)
(0.000238687 0 0.0280088)
(0.000309347 0 0.0373757)
(0.000337407 0 0.0468852)
(0.000293948 0 0.0550163)
(0.000163858 0 0.0600959)
(-7.37423e-06 0 0.0590994)
(-3.31272e-05 0 0.0455898)
(0.000470942 0 0.0118631)
(0.00103953 0 -0.0338538)
(0.000546595 0 -0.0512184)
(0.000279618 0 -0.0156413)
(0.000949384 0 0.0355389)
(0.00125203 0 0.0686998)
(0.00111543 0 0.0820534)
(0.000903575 0 0.0858781)
(0.000718879 0 0.0860051)
(0.000576928 0 0.084096)
(0.000481589 0 0.0807965)
(0.000430938 0 0.0765388)
(0.000418945 0 0.0718245)
(0.000434655 0 0.0672657)
(0.000464347 0 0.0634585)
(0.000496003 0 0.0607843)
(0.000521721 0 0.0592825)
(0.00053742 0 0.0586806)
(0.000541649 0 0.0585461)
(0.000534789 0 0.0584524)
(0.000518698 0 0.0580793)
(0.00049627 0 0.057238)
(0.000470838 0 0.0558481)
(0.000445614 0 0.0539009)
(0.000423293 0 0.0514278)
(0.000405911 0 0.0484776)
(0.000394847 0 0.0451042)
(0.000390914 0 0.0413586)
(0.000394426 0 0.0372865)
(0.000405192 0 0.0329285)
(0.000422368 0 0.028326)
(0.0004441 0 0.0235318)
(0.000466972 0 0.0186307)
(0.000486891 0 0.0137595)
(0.000501157 0 0.00912587)
(0.000499069 0 0.00461038)
(0.00147339 0 0.00336107)
(0.00147336 0 0.00835791)
(0.00148623 0 0.0132442)
(0.00151644 0 0.0187368)
(0.00156777 0 0.0252412)
(0.00164092 0 0.0329778)
(0.00173342 0 0.0420405)
(0.00183994 0 0.0524158)
(0.00195099 0 0.0639721)
(0.002052 0 0.0764574)
(0.00212352 0 0.0895206)
(0.00214273 0 0.102752)
(0.00208572 0 0.115733)
(0.00192988 0 0.128077)
(0.00165529 0 0.139446)
(0.00124507 0 0.149533)
(0.000684986 0 0.157983)
(-3.34166e-05 0 0.164177)
(-0.000876548 0 0.166441)
(-0.00163968 0 0.159617)
(-0.00174505 0 0.130221)
(-0.000201308 0 0.0572266)
(0.00226419 0 -0.0538968)
(-0.000247702 0 -0.113832)
(-0.00272441 0 -0.0319565)
(-0.000277048 0 0.0902925)
(0.000226638 0 0.1546)
(-0.000939401 0 0.166726)
(-0.00220295 0 0.153072)
(-0.00276157 0 0.122088)
(-0.00221411 0 0.0744922)
(-0.00135491 0 0.036667)
(-0.000738581 0 0.0465716)
(-0.000189438 0 0.0794456)
(-0.000168799 0 0.100635)
(-0.000508881 0 0.105673)
(-0.00081123 0 0.102853)
(-0.000998959 0 0.0978957)
(-0.00109685 0 0.0925078)
(-0.00113827 0 0.0868496)
(-0.00114323 0 0.0810596)
(-0.00112583 0 0.0754227)
(-0.00109775 0 0.0700359)
(-0.00106567 0 0.0646787)
(-0.00102998 0 0.0589826)
(-0.000985928 0 0.0526287)
(-0.000925913 0 0.0454082)
(-0.000842093 0 0.0372392)
(-0.000730644 0 0.0283142)
(-0.000603193 0 0.0193808)
(-0.000479993 0 0.0118142)
(-0.000371206 0 0.00705564)
(-0.00027244 0 0.0056509)
(-0.000170745 0 0.00693452)
(-6.0449e-05 0 0.00987149)
(5.42477e-05 0 0.0140994)
(0.000168902 0 0.020016)
(0.00027855 0 0.0279348)
(0.000368252 0 0.0373224)
(0.000410217 0 0.0468714)
(0.000374879 0 0.0550562)
(0.000248937 0 0.0601786)
(8.6262e-05 0 0.0591398)
(8.11757e-05 0 0.0454095)
(0.000604603 0 0.0114771)
(0.00119918 0 -0.0339154)
(0.000762323 0 -0.0509456)
(0.000545864 0 -0.0158253)
(0.0012399 0 0.0351949)
(0.00155568 0 0.0686343)
(0.00142377 0 0.0821756)
(0.00120801 0 0.0860363)
(0.00101407 0 0.086143)
(0.000864048 0 0.0841984)
(0.000763465 0 0.0808591)
(0.000710482 0 0.0765614)
(0.000698767 0 0.0718126)
(0.000716639 0 0.0672304)
(0.000749608 0 0.063413)
(0.000784951 0 0.0607401)
(0.000814169 0 0.0592477)
(0.000832792 0 0.0586598)
(0.000839198 0 0.0585414)
(0.000833786 0 0.0584636)
(0.000818536 0 0.0581042)
(0.000796513 0 0.0572725)
(0.000771238 0 0.0558873)
(0.000746087 0 0.0539397)
(0.000723894 0 0.0514613)
(0.000706781 0 0.0485018)
(0.000696163 0 0.0451158)
(0.000692837 0 0.041355)
(0.000697043 0 0.0372661)
(0.000708441 0 0.0328912)
(0.000725964 0 0.0282739)
(0.000747541 0 0.0234704)
(0.000769762 0 0.0185698)
(0.000789071 0 0.0137117)
(0.00080478 0 0.00909892)
(0.000807036 0 0.00460139)
(0.00157339 0 0.00335804)
(0.00157665 0 0.00833534)
(0.00159003 0 0.0131817)
(0.00162051 0 0.018622)
(0.00167166 0 0.0250738)
(0.00174422 0 0.0327658)
(0.00183577 0 0.0417978)
(0.00194091 0 0.0521631)
(0.00205 0 0.0637377)
(0.00214825 0 0.0762765)
(0.00221579 0 0.0894318)
(0.00222911 0 0.102793)
(0.00216336 0 0.115935)
(0.00199487 0 0.128463)
(0.00170272 0 0.140029)
(0.00126941 0 0.150318)
(0.000681389 0 0.158967)
(-6.66169e-05 0 0.165315)
(-0.000933172 0 0.167553)
(-0.00168651 0 0.160158)
(-0.00172604 0 0.129293)
(-0.000220273 0 0.0550422)
(0.00199858 0 -0.0541086)
(-0.000415758 0 -0.11091)
(-0.0028354 0 -0.0320203)
(-0.000621543 0 0.0889617)
(-0.000134317 0 0.154849)
(-0.00126707 0 0.167813)
(-0.00255978 0 0.153852)
(-0.00313595 0 0.122128)
(-0.00257248 0 0.0739613)
(-0.00166082 0 0.0361778)
(-0.000993575 0 0.0461588)
(-0.000419204 0 0.0792474)
(-0.000400187 0 0.100737)
(-0.000748101 0 0.105879)
(-0.00106377 0 0.103012)
(-0.00126433 0 0.0979847)
(-0.00137064 0 0.0925468)
(-0.00141645 0 0.0868561)
(-0.00142198 0 0.0810451)
(-0.00140196 0 0.0753961)
(-0.00136881 0 0.0700034)
(-0.00132966 0 0.0646428)
(-0.00128493 0 0.0589418)
(-0.0012296 0 0.0525786)
(-0.00115568 0 0.0453438)
(-0.00105506 0 0.0371569)
(-0.000923771 0 0.0282163)
(-0.000773942 0 0.0192772)
(-0.000626493 0 0.0117168)
(-0.000491688 0 0.00696732)
(-0.000366103 0 0.00556478)
(-0.000237778 0 0.00684413)
(-0.000100956 0 0.00977671)
(4.02805e-05 0 0.0140033)
(0.000181119 0 0.0199218)
(0.000315529 0 0.0278494)
(0.000427082 0 0.0372605)
(0.000486758 0 0.0468522)
(0.000464724 0 0.0550933)
(0.000349041 0 0.0602586)
(0.000200466 0 0.0591731)
(0.000219351 0 0.0452188)
(0.00076161 0 0.0110829)
(0.00138061 0 -0.0340037)
(0.00100355 0 -0.050721)
(0.000842832 0 -0.0160281)
(0.00156225 0 0.0348457)
(0.00189453 0 0.068566)
(0.00177299 0 0.082301)
(0.00155841 0 0.0862026)
(0.00136079 0 0.0862898)
(0.00120763 0 0.0843084)
(0.00110564 0 0.080927)
(0.00105313 0 0.0765869)
(0.00104353 0 0.0718014)
(0.00106469 0 0.0671938)
(0.00110162 0 0.063365)
(0.00114116 0 0.060693)
(0.00117441 0 0.0592102)
(0.00119662 0 0.0586371)
(0.00120604 0 0.058536)
(0.00120303 0 0.0584752)
(0.00118963 0 0.0581303)
(0.00116901 0 0.0573089)
(0.00114481 0 0.0559287)
(0.00112052 0 0.0539807)
(0.00109905 0 0.0514969)
(0.0010826 0 0.0485278)
(0.0010726 0 0.0451286)
(0.00106985 0 0.0413522)
(0.00107453 0 0.0372462)
(0.0010862 0 0.0328546)
(0.00110358 0 0.0282233)
(0.0011244 0 0.0234116)
(0.00114526 0 0.0185121)
(0.00116317 0 0.0136648)
(0.00117858 0 0.0090686)
(0.00118126 0 0.00458767)
(0.00161529 0 0.00335047)
(0.00162231 0 0.00830604)
(0.0016375 0 0.0131147)
(0.00166931 0 0.0185057)
(0.00172093 0 0.0249067)
(0.00179332 0 0.0325549)
(0.00188433 0 0.0415568)
(0.0019886 0 0.0519129)
(0.00209642 0 0.0635072)
(0.00219282 0 0.0761015)
(0.00225763 0 0.089352)
(0.00226682 0 0.102847)
(0.00219478 0 0.116157)
(0.00201695 0 0.128876)
(0.00171158 0 0.140649)
(0.00126046 0 0.15115)
(0.000650246 0 0.160003)
(-0.000121718 0 0.166504)
(-0.00100738 0 0.16869)
(-0.00175482 0 0.16068)
(-0.0017445 0 0.128365)
(-0.000280073 0 0.0530074)
(0.00170687 0 -0.0541938)
(-0.000621459 0 -0.108153)
(-0.00298633 0 -0.0319571)
(-0.000992793 0 0.087743)
(-0.000520828 0 0.155105)
(-0.0016301 0 0.168922)
(-0.00294697 0 0.154663)
(-0.00353033 0 0.12218)
(-0.00294806 0 0.073415)
(-0.00199229 0 0.0356503)
(-0.001284 0 0.0457229)
(-0.000687521 0 0.0790479)
(-0.000669429 0 0.100851)
(-0.00102376 0 0.106103)
(-0.00135038 0 0.10319)
(-0.00156074 0 0.0980902)
(-0.00167301 0 0.0925996)
(-0.00172159 0 0.0868741)
(-0.00172667 0 0.08104)
(-0.00170333 0 0.0753772)
(-0.00166451 0 0.0699775)
(-0.00161764 0 0.0646123)
(-0.00156314 0 0.0589053)
(-0.00149576 0 0.0525316)
(-0.00140717 0 0.0452807)
(-0.00128902 0 0.0370741)
(-0.00113717 0 0.0281161)
(-0.000964016 0 0.0191695)
(-0.000791029 0 0.0116137)
(-0.000628601 0 0.00687231)
(-0.000474245 0 0.00547168)
(-0.000317078 0 0.0067469)
(-0.000151381 0 0.00967517)
(1.87817e-05 0 0.0139004)
(0.000188302 0 0.0198214)
(0.000350243 0 0.0277593)
(0.000486922 0 0.0371963)
(0.000568294 0 0.0468341)
(0.000564328 0 0.0551347)
(0.000463808 0 0.0603439)
(0.000332946 0 0.0592087)
(0.000377567 0 0.045028)
(0.000939227 0 0.0106905)
(0.00158265 0 -0.0341097)
(0.00126847 0 -0.0505393)
(0.00117006 0 -0.0162504)
(0.00192039 0 0.0344905)
(0.00227391 0 0.0684972)
(0.00216609 0 0.0824331)
(0.00195572 0 0.0863801)
(0.00175863 0 0.0864487)
(0.00160633 0 0.084429)
(0.0015062 0 0.0810032)
(0.00145667 0 0.0766181)
(0.00145111 0 0.0717935)
(0.00147704 0 0.0671587)
(0.0015192 0 0.0633169)
(0.0015641 0 0.060645)
(0.00160251 0 0.0591715)
(0.00162943 0 0.0586135)
(0.0016429 0 0.05853)
(0.00164326 0 0.0584868)
(0.00163258 0 0.058157)
(0.0016141 0 0.0573463)
(0.00159158 0 0.0559713)
(0.00156859 0 0.054023)
(0.00154815 0 0.0515338)
(0.00153251 0 0.0485548)
(0.00152314 0 0.0451424)
(0.00152082 0 0.0413503)
(0.00152571 0 0.0372276)
(0.00153724 0 0.0328198)
(0.00155393 0 0.0281757)
(0.0015733 0 0.0233576)
(0.00159192 0 0.0184603)
(0.00160732 0 0.0136235)
(0.00162086 0 0.00904185)
(0.00162178 0 0.00457539)
(0.00160362 0 0.00333786)
(0.00161406 0 0.0082683)
(0.0016317 0 0.013041)
(0.00166556 0 0.0183864)
(0.00171828 0 0.0247395)
(0.00179108 0 0.0323454)
(0.00188225 0 0.0413181)
(0.00198655 0 0.0516658)
(0.00209427 0 0.0632804)
(0.00219029 0 0.0759311)
(0.0022542 0 0.0892783)
(0.00226147 0 0.10291)
(0.00218582 0 0.116391)
(0.00200182 0 0.129307)
(0.00168678 0 0.141292)
(0.00122165 0 0.152011)
(0.000592868 0 0.161071)
(-0.000199617 0 0.167719)
(-0.00110073 0 0.169832)
(-0.00184285 0 0.161171)
(-0.00179508 0 0.127435)
(-0.000379674 0 0.0511163)
(0.00138376 0 -0.0541514)
(-0.000867698 0 -0.105511)
(-0.00317568 0 -0.0317733)
(-0.00138475 0 0.0866271)
(-0.000925837 0 0.155358)
(-0.00202203 0 0.170033)
(-0.00336318 0 0.155485)
(-0.00395029 0 0.122228)
(-0.00334932 0 0.0728517)
(-0.00235411 0 0.035095)
(-0.00160842 0 0.0452699)
(-0.000989894 0 0.0788439)
(-0.000972045 0 0.100968)
(-0.00133314 0 0.106335)
(-0.00167009 0 0.103376)
(-0.00188836 0 0.0982029)
(-0.00200467 0 0.0926576)
(-0.00205455 0 0.0868952)
(-0.00205809 0 0.0810361)
(-0.00203063 0 0.075358)
(-0.00198541 0 0.0699497)
(-0.00193009 0 0.0645788)
(-0.00186509 0 0.0588642)
(-0.00178492 0 0.0524784)
(-0.00168092 0 0.0452097)
(-0.0015445 0 0.0369815)
(-0.00137135 0 0.028004)
(-0.00117391 0 0.0190481)
(-0.000974062 0 0.0114953)
(-0.000782395 0 0.00676087)
(-0.000597303 0 0.00536158)
(-0.000409037 0 0.00663261)
(-0.000212104 0 0.00955655)
(-1.05512e-05 0 0.0137805)
(0.000190328 0 0.0197044)
(0.000382839 0 0.0276538)
(0.000548182 0 0.0371188)
(0.000655308 0 0.0468049)
(0.000673903 0 0.0551671)
(0.000592953 0 0.0604205)
(0.000482976 0 0.0592329)
(0.000555109 0 0.0448236)
(0.00113672 0 0.0102875)
(0.00180376 0 -0.0342405)
(0.00155575 0 -0.0504035)
(0.00152726 0 -0.0165005)
(0.00231609 0 0.0341184)
(0.0026968 0 0.0684167)
(0.00260555 0 0.0825602)
(0.00240162 0 0.0865567)
(0.0022083 0 0.0866076)
(0.00206004 0 0.084549)
(0.0019645 0 0.0810774)
(0.00192027 0 0.0766461)
(0.0019206 0 0.0717812)
(0.00195288 0 0.0671181)
(0.00200168 0 0.0632628)
(0.00205329 0 0.0605905)
(0.0020982 0 0.0591262)
(0.0021311 0 0.0585835)
(0.00214983 0 0.0585183)
(0.00215463 0 0.0584933)
(0.00214757 0 0.0581793)
(0.00213198 0 0.0573799)
(0.0021117 0 0.0560107)
(0.00209045 0 0.0540626)
(0.00207132 0 0.0515683)
(0.00205662 0 0.04858)
(0.00204787 0 0.0451547)
(0.00204586 0 0.0413475)
(0.00205069 0 0.0372088)
(0.00206167 0 0.0327863)
(0.00207716 0 0.0281314)
(0.0020945 0 0.0233095)
(0.00211031 0 0.0184166)
(0.00212264 0 0.0135907)
(0.00213362 0 0.00902226)
(0.00213216 0 0.00456719)
(0.00154541 0 0.003321)
(0.00155828 0 0.00822253)
(0.00157807 0 0.0129599)
(0.0016139 0 0.0182623)
(0.00166787 0 0.0245698)
(0.00174142 0 0.0321347)
(0.00183322 0 0.0410787)
(0.00193819 0 0.0514181)
(0.00204661 0 0.0630532)
(0.00214331 0 0.0757609)
(0.00220765 0 0.0892058)
(0.0022147 0 0.102976)
(0.00213749 0 0.116631)
(0.00194975 0 0.129748)
(0.00162786 0 0.14195)
(0.00115181 0 0.152891)
(0.000507691 0 0.162161)
(-0.000301877 0 0.168954)
(-0.00121364 0 0.17097)
(-0.00194706 0 0.161633)
(-0.00186917 0 0.126515)
(-0.00051275 0 0.0493754)
(0.00103859 0 -0.0539803)
(-0.0011407 0 -0.102977)
(-0.00339975 0 -0.0314907)
(-0.0018035 0 0.0856039)
(-0.00135656 0 0.15561)
(-0.0024438 0 0.171144)
(-0.00380671 0 0.156311)
(-0.00439564 0 0.122267)
(-0.0037776 0 0.0722706)
(-0.002746 0 0.0345152)
(-0.00196537 0 0.0448002)
(-0.0013262 0 0.0786324)
(-0.0013079 0 0.101084)
(-0.00167537 0 0.10657)
(-0.00202208 0 0.103566)
(-0.00224694 0 0.098317)
(-0.00236593 0 0.0927149)
(-0.00241589 0 0.0869137)
(-0.00241691 0 0.081028)
(-0.00238453 0 0.0753328)
(-0.00233219 0 0.0699145)
(-0.0022677 0 0.0645363)
(-0.00219146 0 0.0588128)
(-0.00209773 0 0.0524131)
(-0.00197754 0 0.0451247)
(-0.00182204 0 0.0368729)
(-0.00162672 0 0.027874)
(-0.00140395 0 0.0189069)
(-0.00117587 0 0.0113553)
(-0.00095335 0 0.00662643)
(-0.000735612 0 0.00522778)
(-0.000514058 0 0.00649433)
(-0.000283546 0 0.00941376)
(-4.8076e-05 0 0.0136363)
(0.000186918 0 0.0195634)
(0.000413083 0 0.0275251)
(0.00061058 0 0.0370193)
(0.000747334 0 0.0467556)
(0.000792651 0 0.055181)
(0.000735475 0 0.060479)
(0.000649771 0 0.0592367)
(0.000751791 0 0.0445986)
(0.0013546 0 0.00986791)
(0.00204558 0 -0.0344016)
(0.0018682 0 -0.0503191)
(0.00191586 0 -0.0167875)
(0.00274892 0 0.0337201)
(0.0031629 0 0.0683165)
(0.00309196 0 0.082675)
(0.0028973 0 0.0867249)
(0.00271086 0 0.0867591)
(0.00256948 0 0.0846612)
(0.0024811 0 0.0811434)
(0.00244436 0 0.0766653)
(0.00245246 0 0.0717596)
(0.00249269 0 0.0670679)
(0.00254958 0 0.0631985)
(0.00260926 0 0.0605256)
(0.00266198 0 0.0590708)
(0.00270212 0 0.0585439)
(0.00272728 0 0.0584976)
(0.00273756 0 0.0584919)
(0.00273502 0 0.0581946)
(0.00272307 0 0.0574075)
(0.00270565 0 0.0560452)
(0.00268657 0 0.0540982)
(0.00266904 0 0.0515997)
(0.00265545 0 0.0486027)
(0.00264735 0 0.0451655)
(0.00264555 0 0.0413442)
(0.00265011 0 0.0371907)
(0.00266026 0 0.0327551)
(0.00267427 0 0.0280915)
(0.00268944 0 0.023268)
(0.00270258 0 0.0183812)
(0.00271223 0 0.0135665)
(0.00272107 0 0.0090098)
(0.00271764 0 0.00456309)
(0.00144601 0 0.00330147)
(0.0014604 0 0.00817119)
(0.00148159 0 0.012873)
(0.00151885 0 0.0181339)
(0.00157386 0 0.0243971)
(0.00164823 0 0.0319216)
(0.00174082 0 0.0408369)
(0.0018467 0 0.0511678)
(0.0019562 0 0.0628234)
(0.0020541 0 0.0755881)
(0.00211962 0 0.0891315)
(0.00212746 0 0.103042)
(0.00205005 0 0.116873)
(0.00186027 0 0.130195)
(0.00153356 0 0.142619)
(0.00104907 0 0.153788)
(0.000392468 0 0.163273)
(-0.000430985 0 0.170205)
(-0.00134908 0 0.172106)
(-0.00206975 0 0.16207)
(-0.00196433 0 0.125615)
(-0.000669665 0 0.0477781)
(0.000670545 0 -0.0536923)
(-0.00143892 0 -0.100537)
(-0.0036478 0 -0.0311154)
(-0.00225411 0 0.0846757)
(-0.00182392 0 0.155866)
(-0.00290171 0 0.172257)
(-0.00428028 0 0.157143)
(-0.00486799 0 0.1223)
(-0.00423312 0 0.0716722)
(-0.00316572 0 0.0339112)
(-0.0023525 0 0.044314)
(-0.00169672 0 0.078414)
(-0.0016783 0 0.1012)
(-0.00205106 0 0.106809)
(-0.00240645 0 0.103759)
(-0.00263664 0 0.0984321)
(-0.00275722 0 0.0927712)
(-0.00280627 0 0.0869295)
(-0.00280388 0 0.0810156)
(-0.00276581 0 0.0753018)
(-0.00270564 0 0.0698722)
(-0.00263129 0 0.0644853)
(-0.00254309 0 0.0587512)
(-0.00243503 0 0.0523361)
(-0.00229782 0 0.0450261)
(-0.00212233 0 0.0367486)
(-0.00190386 0 0.0277262)
(-0.00165454 0 0.0187458)
(-0.00139673 0 0.0111934)
(-0.00114168 0 0.00646862)
(-0.000889434 0 0.00506977)
(-0.000632507 0 0.00633137)
(-0.000366095 0 0.00924602)
(-9.41476e-05 0 0.013467)
(0.000177753 0 0.0193971)
(0.000440617 0 0.0273716)
(0.000673604 0 0.0368962)
(0.000843609 0 0.0466843)
(0.000919481 0 0.0551747)
(0.000890086 0 0.0605178)
(0.000832204 0 0.0592197)
(0.000966945 0 0.0443534)
(0.00159334 0 0.00943163)
(0.00231084 0 -0.0345949)
(0.00220964 0 -0.050289)
(0.00233802 0 -0.0171154)
(0.00321847 0 0.0332924)
(0.00367108 0 0.0681943)
(0.00362503 0 0.0827757)
(0.00344331 0 0.0868832)
(0.00326708 0 0.0869016)
(0.00313547 0 0.0847643)
(0.0030568 0 0.0811999)
(0.00302982 0 0.0766746)
(0.00304765 0 0.0717278)
(0.00309756 0 0.0670069)
(0.00316407 0 0.0631232)
(0.00323322 0 0.0604495)
(0.00329503 0 0.0590042)
(0.00334357 0 0.0584936)
(0.00337622 0 0.0584672)
(0.00339294 0 0.0584818)
(0.00339576 0 0.0582025)
(0.00338815 0 0.057429)
(0.00337414 0 0.0560747)
(0.00335767 0 0.0541297)
(0.00334205 0 0.0516281)
(0.00332973 0 0.0486235)
(0.00332235 0 0.0451754)
(0.00332072 0 0.0413411)
(0.00332491 0 0.0371742)
(0.00333411 0 0.032727)
(0.00334658 0 0.0280565)
(0.00335979 0 0.0232327)
(0.00337078 0 0.0183525)
(0.0033786 0 0.0135486)
(0.00338623 0 0.00900221)
(0.00338163 0 0.00456175)
(0.00130766 0 0.0032805)
(0.0013231 0 0.00811665)
(0.00134516 0 0.0127825)
(0.00138344 0 0.0180023)
(0.00143939 0 0.024222)
(0.00151456 0 0.0317064)
(0.00160797 0 0.0405929)
(0.00171479 0 0.050915)
(0.00182543 0 0.0625907)
(0.00192471 0 0.0754123)
(0.00199175 0 0.0890544)
(0.00200095 0 0.103106)
(0.00192418 0 0.117116)
(0.00173349 0 0.130647)
(0.00140336 0 0.143299)
(0.000912041 0 0.154701)
(0.000244858 0 0.164403)
(-0.000590405 0 0.17147)
(-0.00151241 0 0.173237)
(-0.00221929 0 0.162485)
(-0.00209304 0 0.124738)
(-0.000850632 0 0.0463165)
(0.000296167 0 -0.0533141)
(-0.00175894 0 -0.0981693)
(-0.0039273 0 -0.0306391)
(-0.00274221 0 0.0838532)
(-0.00233589 0 0.156132)
(-0.00340215 0 0.173371)
(-0.00478884 0 0.157979)
(-0.00537098 0 0.122325)
(-0.00471702 0 0.0710559)
(-0.00361218 0 0.0332833)
(-0.00276841 0 0.0438134)
(-0.00210117 0 0.0781913)
(-0.00208397 0 0.101317)
(-0.00246107 0 0.107052)
(-0.00282386 0 0.103957)
(-0.0030581 0 0.0985492)
(-0.0031793 0 0.0928274)
(-0.00322652 0 0.0869437)
(-0.0032199 0 0.0809999)
(-0.00317542 0 0.0752662)
(-0.00310675 0 0.0698238)