/*--------------------------------*- C++ -*----------------------------------*\
  =========                 |
  \\      /  F ield         | OpenFOAM: The Open Source CFD Toolbox
   \\    /   O peration     | Website:  https://openfoam.org
    \\  /    A nd           | Version:  9
     \\/     M anipulation  |
\*---------------------------------------------------------------------------*/
FoamFile
{
    format      ascii;
    class       surfaceVectorField;
    location    "0.09";
    object      Uf;
}
// * * * * * * * * * * * * * * * * * * * * * * * * * * * * * * * * * * * * * //

dimensions      [0 1 -1 0 0 0 0];

internalField   nonuniform List<vector> 
39700
(
(0.000111082 0 0.00596691)
(0.000272709 0 0.00344173)
(0.00012648 0 0.011021)
(0.000282163 0 0.00853182)
(0.0001429 0 0.0163618)
(0.000306593 0 0.0135399)
(0.00016469 0 0.0225627)
(0.000330927 0 0.0192237)
(0.000195104 0 0.029887)
(0.000364656 0 0.0259401)
(0.000234572 0 0.0384518)
(0.000411648 0 0.0338656)
(0.00028195 0 0.0482676)
(0.000471116 0 0.0430665)
(0.000334474 0 0.0592309)
(0.000540404 0 0.0535006)
(0.000387621 0 0.0711215)
(0.000614514 0 0.0650052)
(0.000435454 0 0.0836208)
(0.000685908 0 0.0773038)
(0.000471491 0 0.0963496)
(0.000745153 0 0.0900352)
(0.000489746 0 0.108913)
(0.000782163 0 0.102799)
(0.000485466 0 0.12094)
(0.000787524 0 0.115202)
(0.00045509 0 0.132098)
(0.000753241 0 0.12689)
(0.000395199 0 0.142084)
(0.00067239 0 0.137552)
(0.00030031 0 0.150577)
(0.000537437 0 0.146894)
(0.00015931 0 0.157125)
(0.000337544 0 0.154576)
(-4.83838e-05 0 0.16083)
(5.66895e-05 0 0.160046)
(-0.000343356 0 0.159275)
(-0.000325886 0 0.162046)
(-0.00067937 0 0.145343)
(-0.000785552 0 0.156869)
(-0.000697877 0 0.10186)
(-0.00105289 0 0.133445)
(0.000200798 0 0.0100958)
(-0.000260014 0 0.0677633)
(0.000690982 0 -0.0900991)
(0.00134838 0 -0.0515673)
(-0.000899233 0 -0.080701)
(-0.000246475 0 -0.129022)
(3.39084e-05 0 0.0334715)
(-0.00131502 0 -0.0289982)
(0.000763301 0 0.124958)
(0.000614673 0 0.0973229)
(0.00033918 0 0.157419)
(0.000850675 0 0.153237)
(-0.000187715 0 0.156056)
(7.44324e-05 0 0.162223)
(-0.000502066 0 0.136225)
(-0.000579176 0 0.15)
(-0.000527963 0 0.101496)
(-0.00083984 0 0.121893)
(-0.000267159 0 0.0573339)
(-0.000629515 0 0.0763827)
(-6.16774e-05 0 0.0431418)
(-0.000287612 0 0.0381132)
(0.000133593 0 0.0642091)
(-1.67068e-05 0 0.0480075)
(0.000188688 0 0.0902523)
(0.000215539 0 0.0802033)
(8.48921e-05 0 0.102539)
(0.00020347 0 0.100191)
(-1.49942e-05 0 0.103582)
(3.66414e-05 0 0.104868)
(-6.58148e-05 0 0.0999565)
(-8.90026e-05 0 0.102268)
(-8.30187e-05 0 0.0950164)
(-0.000147357 0 0.0975827)
(-8.76069e-05 0 0.0896319)
(-0.000169746 0 0.0923658)
(-8.67766e-05 0 0.0839868)
(-0.000175589 0 0.086805)
(-8.26458e-05 0 0.0783169)
(-0.000172932 0 0.0810713)
(-7.74014e-05 0 0.0728241)
(-0.000165866 0 0.0754624)
(-7.31776e-05 0 0.0674568)
(-0.000158026 0 0.0700836)
(-7.07347e-05 0 0.0619334)
(-0.000151754 0 0.0647268)
(-6.9309e-05 0 0.0559216)
(-0.000147162 0 0.059036)
(-6.72978e-05 0 0.0491646)
(-0.000142452 0 0.0527018)
(-6.28084e-05 0 0.0415169)
(-0.000134754 0 0.0455198)
(-5.41562e-05 0 0.0330208)
(-0.000120967 0 0.0374031)
(-4.12179e-05 0 0.0241204)
(-9.95961e-05 0 0.0285236)
(-2.73123e-05 0 0.0158584)
(-7.3853e-05 0 0.0195999)
(-1.69592e-05 0 0.00966039)
(-5.10582e-05 0 0.0120002)
(-1.08488e-05 0 0.00655922)
(-3.56106e-05 0 0.00720402)
(-5.5732e-06 0 0.00650937)
(-2.41036e-05 0 0.0057938)
(1.06286e-06 0 0.00864088)
(-1.07448e-05 0 0.00709667)
(9.06337e-06 0 0.0122366)
(5.79363e-06 0 0.0100499)
(1.86865e-05 0 0.0173141)
(2.41298e-05 0 0.0142834)
(3.12271e-05 0 0.0242272)
(4.46798e-05 0 0.0202001)
(4.5826e-05 0 0.0328425)
(6.81975e-05 0 0.0281032)
(5.67895e-05 0 0.0422077)
(9.00099e-05 0 0.037426)
(5.55774e-05 0 0.0508971)
(9.85275e-05 0 0.0468361)
(3.35552e-05 0 0.0573459)
(7.98649e-05 0 0.0548182)
(-1.50075e-05 0 0.0593432)
(2.22023e-05 0 0.0597572)
(-7.42307e-05 0 0.0524569)
(-6.81086e-05 0 0.0588349)
(-5.43037e-05 0 0.0295285)
(-0.000112476 0 0.0459576)
(0.000105583 0 -0.0104329)
(7.94394e-05 0 0.0128888)
(9.0506e-05 0 -0.0431588)
(0.000278834 0 -0.0338903)
(-0.000114621 0 -0.0337018)
(-1.77744e-05 0 -0.0523298)
(3.44401e-05 0 0.0108814)
(-0.000129914 0 -0.0151214)
(0.000203773 0 0.052785)
(0.000223473 0 0.0365478)
(0.00017501 0 0.0758591)
(0.000356656 0 0.0687615)
(9.80961e-05 0 0.0835374)
(0.000264556 0 0.0815766)
(3.98118e-05 0 0.0854987)
(0.000154047 0 0.0853597)
(6.0272e-07 0 0.0846865)
(7.33674e-05 0 0.0855767)
(-2.62679e-05 0 0.0821768)
(1.71162e-05 0 0.0837765)
(-4.26709e-05 0 0.0784977)
(-1.96755e-05 0 0.0805874)
(-4.93665e-05 0 0.0741092)
(-3.93029e-05 0 0.0764387)
(-4.72684e-05 0 0.0695553)
(-4.36665e-05 0 0.071819)
(-3.86657e-05 0 0.0654292)
(-3.6222e-05 0 0.0673258)
(-2.68425e-05 0 0.0622159)
(-2.19652e-05 0 0.0635491)
(-1.50294e-05 0 0.0601285)
(-5.88341e-06 0 0.0608747)
(-5.68961e-06 0 0.0590553)
(8.27613e-06 0 0.0593509)
(-2.7527e-07 0 0.058649)
(1.8068e-05 0 0.0587133)
(7.23407e-07 0 0.0584867)
(2.22244e-05 0 0.0585355)
(-2.34109e-06 0 0.0582033)
(2.04624e-05 0 0.0583973)
(-8.59681e-06 0 0.0575524)
(1.35768e-05 0 0.0579854)
(-1.67895e-05 0 0.0564054)
(3.08183e-06 0 0.0571162)
(-2.56877e-05 0 0.0547206)
(-9.376e-06 0 0.0557122)
(-3.42638e-05 0 0.0525098)
(-2.21607e-05 0 0.0537657)
(-4.17476e-05 0 0.0498117)
(-3.39149e-05 0 0.0513068)
(-4.76031e-05 0 0.0466757)
(-4.36295e-05 0 0.0483828)
(-5.14728e-05 0 0.0431522)
(-5.06098e-05 0 0.0450452)
(-5.31235e-05 0 0.0392874)
(-5.44106e-05 0 0.0413434)
(-5.24212e-05 0 0.0351214)
(-5.47867e-05 0 0.0373206)
(-4.93617e-05 0 0.0306902)
(-5.17039e-05 0 0.0330141)
(-4.41735e-05 0 0.0260314)
(-4.54502e-05 0 0.0284592)
(-3.75297e-05 0 0.0211951)
(-3.67694e-05 0 0.0236972)
(-3.11114e-05 0 0.0162607)
(-2.75759e-05 0 0.0187905)
(-2.80187e-05 0 0.011366)
(-2.01476e-05 0 0.0138415)
(-3.51112e-05 0 0.00657632)
(-2.22129e-05 0 0.00903841)
(-5.97363e-05 0 0.00435189)
(0.000445865 0 0.00589185)
(0.000617486 0 0.00339079)
(0.000468738 0 0.0109451)
(0.000623068 0 0.00846066)
(0.000493373 0 0.0162869)
(0.000651196 0 0.0134668)
(0.000528057 0 0.0224678)
(0.00068097 0 0.0191257)
(0.000578406 0 0.0297619)
(0.000724783 0 0.0258044)
(0.000645328 0 0.0382966)
(0.00078733 0 0.0336937)
(0.000726991 0 0.0480874)
(0.000867193 0 0.0428665)
(0.00081874 0 0.0590349)
(0.000960657 0 0.0532863)
(0.0009126 0 0.0709228)
(0.00106076 0 0.0647962)
(0.000997447 0 0.0834343)
(0.00115672 0 0.0771237)
(0.00106004 0 0.0961893)
(0.00123452 0 0.0899085)
(0.00108664 0 0.10879)
(0.00127839 0 0.102748)
(0.00106441 0 0.120861)
(0.00127268 0 0.115243)
(0.000981968 0 0.132068)
(0.00120317 0 0.127035)
(0.000828418 0 0.142108)
(0.00105725 0 0.137809)
(0.0005909 0 0.150666)
(0.000822493 0 0.147273)
(0.000251912 0 0.157298)
(0.000484503 0 0.15509)
(-0.000207036 0 0.1611)
(2.69872e-05 0 0.16071)
(-0.000767428 0 0.15957)
(-0.000556671 0 0.16282)
(-0.00121359 0 0.145285)
(-0.00119217 0 0.157456)
(-0.000860486 0 0.100869)
(-0.00145824 0 0.133002)
(0.000826013 0 0.00921907)
(-0.000144113 0 0.0657464)
(0.00128298 0 -0.0885012)
(0.00227719 0 -0.0520883)
(-0.00167618 0 -0.0795794)
(-0.000253532 0 -0.125806)
(-0.000541574 0 0.0320312)
(-0.00223838 0 -0.0301738)
(0.00101456 0 0.124129)
(0.000538225 0 0.0957857)
(0.000615982 0 0.157605)
(0.0010506 0 0.153612)
(-0.00035452 0 0.156324)
(-8.53257e-08 0 0.163095)
(-0.00100109 0 0.136263)
(-0.000960298 0 0.150554)
(-0.00105123 0 0.101348)
(-0.00134864 0 0.121934)
(-0.000584957 0 0.0572212)
(-0.00100303 0 0.0760719)
(-0.000290297 0 0.0430349)
(-0.00051225 0 0.0379168)
(8.59245e-05 0 0.0639905)
(-0.000154159 0 0.0477566)
(0.000297019 0 0.0900816)
(0.00022671 0 0.0800625)
(0.000162181 0 0.10246)
(0.000253902 0 0.100281)
(-4.85919e-05 0 0.103511)
(1.27679e-05 0 0.105008)
(-0.000181571 0 0.0998587)
(-0.000189672 0 0.102356)
(-0.000240523 0 0.0948973)
(-0.000296054 0 0.097622)
(-0.000260994 0 0.0895025)
(-0.000342201 0 0.0923795)
(-0.000263567 0 0.0838523)
(-0.000357185 0 0.0868068)
(-0.000257034 0 0.0781787)
(-0.000355568 0 0.081067)
(-0.000246655 0 0.0726825)
(-0.000345286 0 0.0754555)
(-0.000236419 0 0.0673124)
(-0.00033241 0 0.0700768)
(-0.000228128 0 0.0617864)
(-0.000320624 0 0.0647213)
(-0.000220779 0 0.0557719)
(-0.000310237 0 0.0590311)
(-0.000211106 0 0.0490116)
(-0.000298521 0 0.0526954)
(-0.000194724 0 0.0413598)
(-0.0002808 0 0.0455089)
(-0.000168134 0 0.0328597)
(-0.000251942 0 0.0373853)
(-0.00013228 0 0.0239575)
(-0.000209592 0 0.0284997)
(-9.56505e-05 0 0.0156967)
(-0.000160235 0 0.0195754)
(-6.80636e-05 0 0.00949905)
(-0.00011647 0 0.0119818)
(-4.92739e-05 0 0.00639309)
(-8.49924e-05 0 0.00719147)
(-3.03627e-05 0 0.00633422)
(-5.98932e-05 0 0.00578118)
(-6.2291e-06 0 0.00845785)
(-3.08608e-05 0 0.00708058)
(2.10215e-05 0 0.0120491)
(4.41964e-06 0 0.0100318)
(4.97734e-05 0 0.0171229)
(4.23188e-05 0 0.0142643)
(8.11523e-05 0 0.0240303)
(8.16771e-05 0 0.0201792)
(0.000113762 0 0.0326403)
(0.000122931 0 0.0280815)
(0.00013641 0 0.0420061)
(0.000158949 0 0.037411)
(0.000130026 0 0.0507057)
(0.000171506 0 0.0468404)
(7.57481e-05 0 0.057173)
(0.000138523 0 0.0548544)
(-2.97212e-05 0 0.0591828)
(4.36462e-05 0 0.0598275)
(-0.000124468 0 0.0522607)
(-9.42126e-05 0 0.0588981)
(-1.25714e-05 0 0.0292585)
(-0.000144045 0 0.045883)
(0.000324417 0 -0.0105993)
(0.000197795 0 0.0126642)
(0.000269717 0 -0.0430827)
(0.000553069 0 -0.0338538)
(-0.000158559 0 -0.0337598)
(6.97998e-05 0 -0.0520443)
(7.34557e-05 0 0.0105266)
(-0.000154006 0 -0.0152761)
(0.000453779 0 0.0524726)
(0.000395993 0 0.0362943)
(0.000457826 0 0.0757076)
(0.000627849 0 0.0687588)
(0.000313751 0 0.0834368)
(0.000504089 0 0.0816942)
(0.000181604 0 0.0853985)
(0.000336039 0 0.0854728)
(8.50548e-05 0 0.0845833)
(0.000205302 0 0.0856634)
(1.97302e-05 0 0.0820734)
(0.000110495 0 0.083838)
(-1.99066e-05 0 0.0783954)
(4.80622e-05 0 0.0806266)
(-3.64024e-05 0 0.0740087)
(1.50692e-05 0 0.0764559)
(-3.42363e-05 0 0.0694579)
(7.14347e-06 0 0.0718167)
(-2.00548e-05 0 0.0653362)
(1.75233e-05 0 0.0673097)
(-7.89986e-07 0 0.0621281)
(3.74864e-05 0 0.0635261)
(1.80075e-05 0 0.0600463)
(5.92805e-05 0 0.0608512)
(3.27532e-05 0 0.0589789)
(7.77596e-05 0 0.0593316)
(4.13133e-05 0 0.0585795)
(8.99241e-05 0 0.0587015)
(4.26668e-05 0 0.0584253)
(9.43413e-05 0 0.0585335)
(3.70069e-05 0 0.058151)
(9.07327e-05 0 0.058406)
(2.56368e-05 0 0.0575093)
(8.00744e-05 0 0.0580035)
(1.05502e-05 0 0.0563705)
(6.43335e-05 0 0.0571413)
(-6.06567e-06 0 0.0546926)
(4.58461e-05 0 0.0557413)
(-2.22192e-05 0 0.052487)
(2.69833e-05 0 0.0537953)
(-3.63126e-05 0 0.0497926)
(9.76293e-06 0 0.0513339)
(-4.71864e-05 0 0.0466588)
(-4.28251e-06 0 0.0484047)
(-5.40707e-05 0 0.043136)
(-1.4089e-05 0 0.0450597)
(-5.6516e-05 0 0.0392705)
(-1.89859e-05 0 0.0413487)
(-5.43746e-05 0 0.0351027)
(-1.86306e-05 0 0.0373154)
(-4.78811e-05 0 0.0306693)
(-1.30212e-05 0 0.0329981)
(-3.78471e-05 0 0.0260094)
(-2.65184e-06 0 0.0284333)
(-2.60594e-05 0 0.0211769)
(1.1241e-05 0 0.0236654)
(-1.63513e-05 0 0.0162579)
(2.59466e-05 0 0.018763)
(-1.57032e-05 0 0.0114063)
(3.7827e-05 0 0.0138395)
(-3.55073e-05 0 0.00670822)
(3.73811e-05 0 0.00909999)
(-6.44176e-06 0 0.00450148)
(0.000798711 0 0.00584182)
(0.000944828 0 0.00336687)
(0.000814069 0 0.010873)
(0.000944627 0 0.00841287)
(0.000837255 0 0.0161897)
(0.000966229 0 0.013398)
(0.000875038 0 0.0223302)
(0.000996074 0 0.0190188)
(0.000931364 0 0.0295811)
(0.00104375 0 0.0256525)
(0.00100658 0 0.0380802)
(0.00111219 0 0.0335004)
(0.00109821 0 0.0478498)
(0.00119932 0 0.042642)
(0.00120053 0 0.0587974)
(0.00130072 0 0.0530473)
(0.00130386 0 0.070712)
(0.0014083 0 0.0645661)
(0.00139454 0 0.0832796)
(0.00150952 0 0.0769312)
(0.00145597 0 0.0961189)
(0.00158789 0 0.0897842)
(0.00147031 0 0.108827)
(0.00162458 0 0.10272)
(0.00142028 0 0.121023)
(0.00160037 0 0.115335)
(0.00129016 0 0.132366)
(0.00149749 0 0.127263)
(0.0010655 0 0.142552)
(0.00130021 0 0.138184)
(0.000731905 0 0.151267)
(0.000994029 0 0.147804)
(0.000274197 0 0.15807)
(0.000563972 0 0.155786)
(-0.000315746 0 0.162024)
(-4.14429e-06 0 0.161564)
(-0.000988034 0 0.160446)
(-0.000703883 0 0.163748)
(-0.00145344 0 0.145439)
(-0.00142367 0 0.158068)
(-0.000911617 0 0.0994341)
(-0.00166647 0 0.132322)
(0.0011191 0 0.00756362)
(-0.000120953 0 0.0633178)
(0.00163152 0 -0.0871944)
(0.00266103 0 -0.0526724)
(-0.00174599 0 -0.0783325)
(-0.00011759 0 -0.122135)
(-0.000934636 0 0.0306402)
(-0.00258664 0 -0.0310145)
(0.00078413 0 0.123556)
(0.000325683 0 0.094088)
(0.000472957 0 0.158394)
(0.000913402 0 0.153905)
(-0.000604848 0 0.15721)
(-0.000229768 0 0.164062)
(-0.00136967 0 0.136647)
(-0.00132466 0 0.151208)
(-0.00142098 0 0.101204)
(-0.00177417 0 0.121976)
(-0.000841965 0 0.0568828)
(-0.00132644 0 0.0756858)
(-0.000451914 0 0.0427514)
(-0.000712069 0 0.0376567)
(-1.02041e-05 0 0.0637872)
(-0.000293545 0 0.0474621)
(0.000250639 0 0.0900925)
(0.000159136 0 0.0798886)
(0.000116131 0 0.10263)
(0.000199929 0 0.10037)
(-0.000135136 0 0.103676)
(-8.08753e-05 0 0.105176)
(-0.000314186 0 0.0999634)
(-0.000325742 0 0.102476)
(-0.000405156 0 0.0949569)
(-0.000464349 0 0.0976827)
(-0.000442704 0 0.0895388)
(-0.000529789 0 0.0924045)
(-0.000451687 0 0.0838769)
(-0.000553921 0 0.0868128)
(-0.000445259 0 0.0781979)
(-0.000554492 0 0.0810628)
(-0.000431791 0 0.0727006)
(-0.000542226 0 0.0754466)
(-0.000416964 0 0.0673319)
(-0.000525242 0 0.070067)
(-0.000403085 0 0.0618075)
(-0.000508235 0 0.0647121)
(-0.000388757 0 0.0557925)
(-0.000491538 0 0.0590216)
(-0.00036964 0 0.0490284)
(-0.000471687 0 0.0526826)
(-0.000339954 0 0.0413695)
(-0.000442784 0 0.0454891)
(-0.000295351 0 0.0328612)
(-0.000398405 0 0.0373556)
(-0.000237888 0 0.0239547)
(-0.000335502 0 0.0284614)
(-0.000178857 0 0.0156978)
(-0.000262992 0 0.0195359)
(-0.000131475 0 0.0095091)
(-0.000197167 0 0.0119501)
(-9.61576e-05 0 0.00640938)
(-0.000146482 0 0.0071679)
(-6.18199e-05 0 0.00635082)
(-0.000104481 0 0.00575829)
(-2.04474e-05 0 0.00847226)
(-5.80748e-05 0 0.00705304)
(2.62481e-05 0 0.012062)
(-3.44455e-06 0 0.0100007)
(7.4491e-05 0 0.0171347)
(5.46991e-05 0 0.0142322)
(0.000123526 0 0.024042)
(0.000113428 0 0.0201467)
(0.000169825 0 0.0326577)
(0.000171619 0 0.0280507)
(0.000198798 0 0.0420411)
(0.00021985 0 0.0373918)
(0.00018674 0 0.0507729)
(0.000236008 0 0.0468486)
(0.000111818 0 0.0572797)
(0.000193888 0 0.0549045)
(-2.32673e-05 0 0.0593034)
(7.64471e-05 0 0.0599177)
(-0.000126305 0 0.0522894)
(-8.57583e-05 0 0.0589669)
(4.29512e-05 0 0.029101)
(-0.000129829 0 0.0457702)
(0.00049523 0 -0.010713)
(0.000308593 0 0.0123627)
(0.000469314 0 -0.0428971)
(0.000783351 0 -0.0338365)
(-2.84629e-05 0 -0.0336523)
(0.000243734 0 -0.0517125)
(0.000190278 0 0.0103452)
(-4.12322e-05 0 -0.015422)
(0.00064202 0 0.052375)
(0.00058664 0 0.0359931)
(0.000682013 0 0.0758242)
(0.00086512 0 0.0687321)
(0.0005215 0 0.0836117)
(0.000732439 0 0.0818251)
(0.000354937 0 0.0855537)
(0.000538502 0 0.0856154)
(0.000225126 0 0.0847057)
(0.000379351 0 0.0857799)
(0.000134208 0 0.0821642)
(0.000260127 0 0.0839237)
(7.92139e-05 0 0.0784556)
(0.000180743 0 0.080681)
(5.5988e-05 0 0.0740402)
(0.000138734 0 0.07648)
(5.76865e-05 0 0.0694661)
(0.000128562 0 0.071815)
(7.48371e-05 0 0.0653296)
(0.000141182 0 0.0672903)
(9.78324e-05 0 0.062116)
(0.000165219 0 0.0634988)
(0.000119451 0 0.0600364)
(0.000190839 0 0.0608242)
(0.000135396 0 0.0589769)
(0.000211745 0 0.0593107)
(0.000143466 0 0.0585886)
(0.000224614 0 0.0586904)
(0.000142889 0 0.058447)
(0.000228117 0 0.0585344)
(0.000134174 0 0.0581845)
(0.00022229 0 0.0584192)
(0.000118924 0 0.0575519)
(0.000208464 0 0.0580278)
(9.95264e-05 0 0.0564186)
(0.000188979 0 0.0571737)
(7.85992e-05 0 0.0547418)
(0.000166628 0 0.0557779)
(5.85527e-05 0 0.0525333)
(0.00014418 0 0.0538321)
(4.13427e-05 0 0.0498323)
(0.00012399 0 0.051367)
(2.84006e-05 0 0.0466889)
(0.000107852 0 0.0484307)
(2.06794e-05 0 0.043154)
(9.70101e-05 0 0.045076)
(1.87309e-05 0 0.0392745)
(9.22393e-05 0 0.0413529)
(2.27378e-05 0 0.0350916)
(9.39235e-05 0 0.037306)
(3.24402e-05 0 0.0306432)
(0.000102053 0 0.0329742)
(4.69342e-05 0 0.0259708)
(0.000116072 0 0.0283959)
(6.42214e-05 0 0.0211339)
(0.000134505 0 0.0236187)
(8.0117e-05 0 0.0162289)
(0.000154357 0 0.018718)
(8.69382e-05 0 0.0114226)
(0.000171314 0 0.0138193)
(7.62012e-05 0 0.00678645)
(0.000177989 0 0.00913337)
(0.000153193 0 0.00458124)
(0.00109346 0 0.00581777)
(0.00120477 0 0.0033607)
(0.0011019 0 0.0108203)
(0.00120221 0 0.0083866)
(0.0011231 0 0.0160955)
(0.00121806 0 0.0133352)
(0.00116254 0 0.0221864)
(0.0012481 0 0.0189073)
(0.00122257 0 0.0293891)
(0.00129833 0 0.0254907)
(0.0013026 0 0.0378494)
(0.00137016 0 0.0332946)
(0.00139946 0 0.0475967)
(0.00146122 0 0.0424046)
(0.00150652 0 0.0585456)
(0.00156657 0 0.0527972)
(0.00161286 0 0.0704919)
(0.00167731 0 0.0643293)
(0.00170317 0 0.0831256)
(0.00177971 0 0.0767395)
(0.00175868 0 0.0960654)
(0.00185571 0 0.0896718)
(0.00175907 0 0.108905)
(0.00188441 0 0.102719)
(0.00168451 0 0.121254)
(0.00184432 0 0.115472)
(0.00151701 0 0.132768)
(0.00171537 0 0.127556)
(0.00124053 0 0.143136)
(0.00147993 0 0.138646)
(0.000840111 0 0.152043)
(0.00112237 0 0.148442)
(0.000301691 0 0.159038)
(0.000627561 0 0.156603)
(-0.000377783 0 0.163128)
(-1.71236e-05 0 0.162548)
(-0.00113013 0 0.161415)
(-0.000794201 0 0.164786)
(-0.00161379 0 0.145518)
(-0.0015546 0 0.158705)
(-0.00098154 0 0.097854)
(-0.00176003 0 0.131529)
(0.00112196 0 0.00588308)
(-0.000170284 0 0.0608023)
(0.0016362 0 -0.0858989)
(0.00261676 0 -0.0532587)
(-0.0016011 0 -0.0769338)
(-8.18236e-05 0 -0.118616)
(-0.00109591 0 0.0294674)
(-0.00265002 0 -0.0315379)
(0.000522425 0 0.122959)
(0.00011901 0 0.0924894)
(0.00022411 0 0.159209)
(0.000671809 0 0.154186)
(-0.000927244 0 0.158225)
(-0.000508885 0 0.165096)
(-0.00175823 0 0.137128)
(-0.00168757 0 0.151919)
(-0.00180478 0 0.101071)
(-0.00218587 0 0.122014)
(-0.00112727 0 0.0564799)
(-0.00167562 0 0.0752341)
(-0.000606744 0 0.0423998)
(-0.000942431 0 0.0373096)
(-0.000111214 0 0.0635571)
(-0.00044197 0 0.0471317)
(0.000153169 0 0.0901162)
(5.37701e-05 0 0.0797123)
(3.94377e-06 0 0.102845)
(8.57428e-05 0 0.10047)
(-0.00027484 0 0.103902)
(-0.000225581 0 0.105362)
(-0.000481482 0 0.100127)
(-0.000497916 0 0.102614)
(-0.000593675 0 0.0950671)
(-0.000659153 0 0.0977575)
(-0.0006444 0 0.0896178)
(-0.000739471 0 0.0924384)
(-0.000659154 0 0.0839387)
(-0.000771437 0 0.0868227)
(-0.000652991 0 0.0782512)
(-0.000774072 0 0.0810587)
(-0.000636538 0 0.0727517)
(-0.00075986 0 0.0754357)
(-0.00061704 0 0.0673842)
(-0.000738638 0 0.0700541)
(-0.000597237 0 0.0618615)
(-0.000716018 0 0.0646989)
(-0.000575299 0 0.0558456)
(-0.00069232 0 0.059007)
(-0.000546024 0 0.0490763)
(-0.000663446 0 0.0526632)
(-0.000502695 0 0.041408)
(-0.000622637 0 0.0454602)
(-0.000440436 0 0.0328889)
(-0.000562681 0 0.0373141)
(-0.00036182 0 0.0239762)
(-0.000480083 0 0.0284089)
(-0.000279894 0 0.0157222)
(-0.000385187 0 0.0194812)
(-0.000210265 0 0.00954285)
(-0.000296557 0 0.0119036)
(-0.000154692 0 0.00644998)
(-0.000223833 0 0.00713083)
(-0.000101575 0 0.00639205)
(-0.000161166 0 0.00572289)
(-4.14059e-05 0 0.00851117)
(-9.46818e-05 0 0.00701296)
(2.51246e-05 0 0.0120993)
(-1.93735e-05 0 0.00995642)
(9.37292e-05 0 0.0171717)
(6.00855e-05 0 0.0141866)
(0.000161793 0 0.0240816)
(0.00013982 0 0.0201014)
(0.000223231 0 0.0327083)
(0.000216931 0 0.0280099)
(0.000260561 0 0.0421181)
(0.000279567 0 0.037367)
(0.000247591 0 0.0508932)
(0.000302863 0 0.0468574)
(0.000162108 0 0.0574496)
(0.000258586 0 0.0549616)
(1.25053e-05 0 0.0594859)
(0.000130789 0 0.0600175)
(-9.23067e-05 0 0.0523586)
(-3.98129e-05 0 0.0590368)
(0.000111255 0 0.0289559)
(-7.2794e-05 0 0.0456346)
(0.000628639 0 -0.0108212)
(0.000415478 0 0.0120178)
(0.000651036 0 -0.0426946)
(0.000960899 0 -0.0338514)
(0.000153766 0 -0.0335219)
(0.000444933 0 -0.051381)
(0.000384261 0 0.0101744)
(0.000162819 0 -0.0155756)
(0.000857173 0 0.0522838)
(0.000821107 0 0.0356778)
(0.00091192 0 0.0759719)
(0.00111778 0 0.0686956)
(0.000744982 0 0.0838396)
(0.000981873 0 0.0819613)
(0.000559543 0 0.0857703)
(0.000774822 0 0.085774)
(0.000409625 0 0.0848858)
(0.000597572 0 0.0859145)
(0.000302558 0 0.0823035)
(0.000462208 0 0.0840246)
(0.000236967 0 0.0785537)
(0.000371457 0 0.0807458)
(0.000209072 0 0.0740997)
(0.000323283 0 0.076509)
(0.000210957 0 0.0694943)
(0.000311781 0 0.071813)
(0.000231286 0 0.0653377)
(0.000326521 0 0.0672672)
(0.000258459 0 0.062116)
(0.000354423 0 0.0634664)
(0.000283622 0 0.060038)
(0.00038409 0 0.0607927)
(0.000301553 0 0.0589867)
(0.000408111 0 0.0592872)
(0.000309829 0 0.0586107)
(0.000422668 0 0.0586791)
(0.000307927 0 0.0584826)
(0.000426382 0 0.0585372)
(0.000296776 0 0.0582326)
(0.000419553 0 0.0584361)
(0.000278469 0 0.0576095)
(0.00040389 0 0.0580569)
(0.000255824 0 0.0564813)
(0.00038212 0 0.0572115)
(0.000231828 0 0.0548049)
(0.000357414 0 0.0558199)
(0.000209192 0 0.052592)
(0.000332849 0 0.0538736)
(0.000190102 0 0.0498824)
(0.000311018 0 0.0514037)
(0.000176147 0 0.0467269)
(0.000293885 0 0.0484589)
(0.000168379 0 0.0431772)
(0.000282794 0 0.0450924)
(0.000167392 0 0.0392807)
(0.000278555 0 0.041355)
(0.000173356 0 0.0350797)
(0.000281521 0 0.0372919)
(0.000185929 0 0.0306134)
(0.000291579 0 0.0329433)
(0.000204029 0 0.0259262)
(0.000308005 0 0.0283493)
(0.000225391 0 0.0210828)
(0.000329073 0 0.023561)
(0.000245781 0 0.0161886)
(0.000351482 0 0.0186603)
(0.000258653 0 0.0114157)
(0.000370969 0 0.013781)
(0.000258848 0 0.00681771)
(0.000383284 0 0.00913274)
(0.000375256 0 0.00460734)
(0.00131461 0 0.00580876)
(0.00139449 0 0.00336086)
(0.00132093 0 0.0107814)
(0.00139324 0 0.00836694)
(0.00134157 0 0.0160107)
(0.00140664 0 0.0132739)
(0.001382 0 0.0220499)
(0.00143685 0 0.0187929)
(0.00144397 0 0.0292044)
(0.00148809 0 0.0253236)
(0.00152646 0 0.0376263)
(0.00156116 0 0.0330826)
(0.0016259 0 0.0473512)
(0.0016536 0 0.042161)
(0.00173519 0 0.0583008)
(0.0017602 0 0.0525419)
(0.00184268 0 0.0702777)
(0.0018716 0 0.0640899)
(0.00193198 0 0.0829768)
(0.00197344 0 0.0765499)
(0.00198288 0 0.0960173)
(0.00204662 0 0.0895688)
(0.00197327 0 0.108989)
(0.00206887 0 0.102738)
(0.00188134 0 0.121496)
(0.00201701 0 0.115641)
(0.00168726 0 0.133184)
(0.00186919 0 0.127897)
(0.00137358 0 0.143738)
(0.0016062 0 0.13917)
(0.00092462 0 0.152834)
(0.00121155 0 0.149157)
(0.000327413 0 0.160008)
(0.000670563 0 0.15751)
(-0.000414338 0 0.164202)
(-2.68431e-05 0 0.163622)
(-0.00121033 0 0.162284)
(-0.000852241 0 0.165885)
(-0.00167931 0 0.14543)
(-0.00161876 0 0.159322)
(-0.000991775 0 0.0962055)
(-0.00176068 0 0.130667)
(0.00102589 0 0.00435335)
(-0.00019726 0 0.0583894)
(0.0014288 0 -0.0845167)
(0.00239313 0 -0.053718)
(-0.00154548 0 -0.075392)
(-0.000177434 0 -0.115383)
(-0.00124448 0 0.0285156)
(-0.00269198 0 -0.0318498)
(0.000255381 0 0.122306)
(-0.000132962 0 0.0910079)
(-3.95341e-05 0 0.159883)
(0.00038336 0 0.154464)
(-0.0012422 0 0.159156)
(-0.000794213 0 0.166175)
(-0.00212773 0 0.137551)
(-0.00203345 0 0.152677)
(-0.00218084 0 0.100894)
(-0.00257402 0 0.122057)
(-0.00144074 0 0.05605)
(-0.00203508 0 0.0747406)
(-0.000810422 0 0.0420286)
(-0.00121207 0 0.0368893)
(-0.000257389 0 0.0632965)
(-0.00063155 0 0.0467629)
(8.84377e-06 0 0.0900908)
(-9.9231e-05 0 0.0795348)
(-0.000148539 0 0.103011)
(-7.59669e-05 0 0.100575)
(-0.000449969 0 0.104093)
(-0.000408448 0 0.105563)
(-0.000679111 0 0.100261)
(-0.000701657 0 0.102766)
(-0.000808014 0 0.0951454)
(-0.000881105 0 0.0978435)
(-0.000869103 0 0.0896608)
(-0.000973517 0 0.0924792)
(-0.000888498 0 0.0839608)
(-0.001012 0 0.0868357)
(-0.000882392 0 0.0782617)
(-0.00101627 0 0.0810547)
(-0.000862841 0 0.0727572)
(-0.000999965 0 0.0754227)
(-0.000838238 0 0.0673886)
(-0.000974213 0 0.0700378)
(-0.000811756 0 0.061865)
(-0.000945386 0 0.0646813)
(-0.00078132 0 0.0558456)
(-0.000913836 0 0.0589868)
(-0.000741123 0 0.0490685)
(-0.000875003 0 0.0526364)
(-0.000683813 0 0.0413881)
(-0.000821528 0 0.045422)
(-0.000604219 0 0.0328561)
(-0.000745741 0 0.037261)
(-0.000505253 0 0.0239358)
(-0.000643903 0 0.0283429)
(-0.000401018 0 0.0156842)
(-0.000527275 0 0.0194116)
(-0.000308236 0 0.00951343)
(-0.000415655 0 0.0118416)
(-0.000229835 0 0.00642622)
(-0.000319126 0 0.00707854)
(-0.000154649 0 0.00636709)
(-0.000232805 0 0.00567277)
(-7.28759e-05 0 0.00848202)
(-0.000143302 0 0.00695849)
(1.54774e-05 0 0.0120675)
(-4.50798e-05 0 0.00989758)
(0.000106103 0 0.0171397)
(5.75148e-05 0 0.0141262)
(0.000195216 0 0.0240531)
(0.000160194 0 0.0200421)
(0.000274607 0 0.0326923)
(0.000258618 0 0.0279571)
(0.000324469 0 0.0421304)
(0.000338799 0 0.0373339)
(0.000316946 0 0.0509507)
(0.000373812 0 0.0468625)
(0.000230147 0 0.0575561)
(0.000334413 0 0.0550196)
(7.71655e-05 0 0.0595977)
(0.000206397 0 0.0601196)
(-1.94548e-05 0 0.0523446)
(3.94439e-05 0 0.0591013)
(0.000210154 0 0.0287264)
(2.40242e-05 0 0.0454815)
(0.00075604 0 -0.0109954)
(0.000537773 0 0.0116539)
(0.00081973 0 -0.0425361)
(0.00111935 0 -0.0338939)
(0.000376799 0 -0.0334298)
(0.000654459 0 -0.0510857)
(0.00062696 0 0.00994883)
(0.000412741 0 -0.0157425)
(0.00111309 0 0.0521193)
(0.00109464 0 0.0353537)
(0.00117822 0 0.0760485)
(0.00140386 0 0.0686521)
(0.00100792 0 0.0840114)
(0.0012696 0 0.0821002)
(0.000809592 0 0.0859431)
(0.00105579 0 0.0859437)
(0.000645732 0 0.0850277)
(0.000866474 0 0.0860616)
(0.000527571 0 0.0824068)
(0.000720488 0 0.0841358)
(0.000454999 0 0.0786168)
(0.000622527 0 0.0808176)
(0.000424167 0 0.0741254)
(0.00057071 0 0.076541)
(0.000426486 0 0.0694906)
(0.000558856 0 0.0718106)
(0.000449515 0 0.0653166)
(0.000575647 0 0.0672411)
(0.000480385 0 0.0620894)
(0.000606978 0 0.0634296)
(0.000509161 0 0.0600155)
(0.000640477 0 0.0607567)
(0.000529872 0 0.0589744)
(0.000667945 0 0.0592601)
(0.000539767 0 0.0586118)
(0.000685106 0 0.0586655)
(0.000538342 0 0.0584981)
(0.000690424 0 0.0585393)
(0.000526744 0 0.0582614)
(0.000684288 0 0.0584538)
(0.000507376 0 0.0576486)
(0.000668617 0 0.0580878)
(0.000483372 0 0.0565264)
(0.000646391 0 0.0572516)
(0.00045801 0 0.0548512)
(0.000621038 0 0.0558643)
(0.00043424 0 0.0526348)
(0.000595851 0 0.0539173)
(0.000414421 0 0.0499174)
(0.000573594 0 0.0514419)
(0.000400252 0 0.0467506)
(0.000556346 0 0.0484875)
(0.000392822 0 0.0431867)
(0.000545505 0 0.0451081)
(0.000392693 0 0.0392739)
(0.000541876 0 0.0413553)
(0.00039992 0 0.0350554)
(0.000545735 0 0.037275)
(0.000413961 0 0.0305723)
(0.000556817 0 0.0329089)
(0.000433455 0 0.0258716)
(0.000574166 0 0.0282992)
(0.000455888 0 0.0210227)
(0.00059582 0 0.0235005)
(0.000477271 0 0.0161369)
(0.000618367 0 0.0185998)
(0.000492699 0 0.0113873)
(0.000637981 0 0.0137353)
(0.000499301 0 0.00681417)
(0.000652969 0 0.00911219)
(0.000653052 0 0.00460587)
(0.00147347 0 0.00579978)
(0.00152339 0 0.00335945)
(0.00148013 0 0.0107427)
(0.00152501 0 0.0083462)
(0.0015009 0 0.0159249)
(0.00153813 0 0.0132123)
(0.00154141 0 0.0219112)
(0.00156847 0 0.0186784)
(0.00160351 0 0.029017)
(0.00161972 0 0.0251562)
(0.00168613 0 0.0374009)
(0.00169257 0 0.0328703)
(0.00178551 0 0.0471042)
(0.00178459 0 0.0419175)
(0.00189431 0 0.0580559)
(0.00189042 0 0.0522878)
(0.00200056 0 0.0700656)
(0.0020005 0 0.0638533)
(0.00208728 0 0.0828329)
(0.00210013 0 0.0763657)
(0.00213339 0 0.0959782)
(0.00216966 0 0.0894754)
(0.00211554 0 0.109087)
(0.00218592 0 0.102772)
(0.00201044 0 0.121758)
(0.00212454 0 0.115834)
(0.00179677 0 0.133626)
(0.00196237 0 0.128271)
(0.00145597 0 0.144369)
(0.001679 0 0.13974)
(0.000972213 0 0.153657)
(0.00125724 0 0.149928)
(0.000334627 0 0.161006)
(0.000683187 0 0.158479)
(-0.000444926 0 0.165282)
(-5.00168e-05 0 0.164751)
(-0.00125531 0 0.163111)
(-0.00090486 0 0.167004)
(-0.00169058 0 0.14527)
(-0.0016631 0 0.159895)
(-0.000969105 0 0.0945959)
(-0.00173554 0 0.129762)
(0.000918236 0 0.00299263)
(-0.00021079 0 0.0561323)
(0.00117457 0 -0.0831485)
(0.00213139 0 -0.0540102)
(-0.00159169 0 -0.0738728)
(-0.00033173 0 -0.112377)
(-0.00144828 0 0.0277073)
(-0.0027799 0 -0.0319983)
(-4.59629e-05 0 0.121678)
(-0.000449296 0 0.0896227)
(-0.000330981 0 0.160518)
(4.61607e-05 0 0.154732)
(-0.00155729 0 0.160062)
(-0.00110324 0 0.167276)
(-0.00247774 0 0.13795)
(-0.00238136 0 0.153465)
(-0.00253965 0 0.100685)
(-0.00294876 0 0.122108)
(-0.00176448 0 0.0555796)
(-0.0023933 0 0.0742237)
(-0.0010587 0 0.0416193)
(-0.00150786 0 0.0364187)
(-0.000457572 0 0.0630086)
(-0.000866078 0 0.0463621)
(-0.000172647 0 0.0900403)
(-0.000304321 0 0.0793448)
(-0.000339817 0 0.103154)
(-0.000284493 0 0.100686)
(-0.0006588 0 0.104263)
(-0.000628491 0 0.105775)
(-0.000906079 0 0.100374)
(-0.000937498 0 0.102931)
(-0.00104886 0 0.0952017)
(-0.00113164 0 0.0979387)
(-0.0011185 0 0.0896787)
(-0.00123374 0 0.0925257)
(-0.00114158 0 0.0839546)
(-0.00127736 0 0.0868512)
(-0.00113516 0 0.0782411)
(-0.00128261 0 0.0810505)
(-0.00111228 0 0.0727293)
(-0.0012639 0 0.0754075)
(-0.00108213 0 0.0673573)
(-0.00123328 0 0.0700177)
(-0.00104824 0 0.0618306)
(-0.00119766 0 0.0646588)
(-0.00100841 0 0.0558056)
(-0.00115745 0 0.0589603)
(-0.000956412 0 0.0490184)
(-0.00110777 0 0.0526017)
(-0.00088449 0 0.0413237)
(-0.0010408 0 0.045374)
(-0.000787306 0 0.0327767)
(-0.000948575 0 0.0371961)
(-0.000668046 0 0.0238475)
(-0.000827207 0 0.0282633)
(-0.000541357 0 0.0155975)
(-0.000688567 0 0.0193271)
(-0.000424584 0 0.00943491)
(-0.000553243 0 0.0117637)
(-0.000321517 0 0.00635327)
(-0.000431447 0 0.0070098)
(-0.000221756 0 0.00629271)
(-0.000319271 0 0.00560627)
(-0.000115691 0 0.00840301)
(-0.000204261 0 0.00688781)
(-3.11815e-06 0 0.0119855)
(-8.07027e-05 0 0.00982259)
(0.000111606 0 0.0170577)
(4.72641e-05 0 0.0140498)
(0.000223865 0 0.0239754)
(0.000175011 0 0.0199673)
(0.000323826 0 0.0326286)
(0.00029704 0 0.0278905)
(0.000389958 0 0.0420969)
(0.000397667 0 0.0372899)
(0.000393298 0 0.0509638)
(0.000448488 0 0.0468603)
(0.000312703 0 0.0576174)
(0.000419802 0 0.0550734)
(0.000166082 0 0.0596592)
(0.000298989 0 0.0602174)
(8.49051e-05 0 0.0522747)
(0.000143364 0 0.0591555)
(0.000337587 0 0.0284433)
(0.000150264 0 0.0453131)
(0.000900825 0 -0.0112191)
(0.000683106 0 0.0112784)
(0.00100128 0 -0.0424305)
(0.0012899 0 -0.0339608)
(0.000623922 0 -0.0333854)
(0.000882934 0 -0.0508342)
(0.00090312 0 0.00968482)