/*--------------------------------*- C++ -*----------------------------------*\
  =========                 |
  \\      /  F ield         | OpenFOAM: The Open Source CFD Toolbox
   \\    /   O peration     | Website:  https://openfoam.org
    \\  /    A nd           | Version:  9
     \\/     M anipulation  |
\*---------------------------------------------------------------------------*/
FoamFile
{
    format      ascii;
    class       surfaceScalarField;
    location    "0.1";
    object      alphaPhi0.water;
}
// * * * * * * * * * * * * * * * * * * * * * * * * * * * * * * * * * * * * * //

dimensions      [0 3 -1 0 0 0 0];

internalField   nonuniform List<scalar> 
9850
(
0
0
0
0
0
0
0
0
0
0
0
0
0
0
0
0
0
0
0
0
0
0
0
0
0
0
0
0
0
0
0
0
0
0
0
0
0
0
0
0
0
0
0
0
0
0
0
0
0
0
0
0
0
0
0
0
0
0
0
0
0
0
0
0
0
0
0
0
0
0
0
0
0
0
0
0
0
0
0
0
0
0
0
0
0
0
0
0
0
0
0
0
0
0
0
0
0
0
0
0
0
0
0
0
0
0
0
0
0
0
0
0
0
0
0
0
0
0
0
0
0
0
0
0
0
0
0
0
0
0
0
0
0
0
0
0
0
0
0
0
0
0
0
0
0
0
0
0
0
0
0
0
0
0
0
0
0
0
0
0
0
0
0
0
0
0
0
0
0
0
0
0
0
0
0
0
0
0
0
0
0
0
0
0
0
0
0
0
0
0
0
0
0
0
0
0
0
0
0
0
0
0
0
0
0
0
0
0
0
0
0
0
0
0
0
0
0
0
0
0
0
0
0
0
0
0
0
0
0
0
0
0
0
0
0
0
0
0
0
0
0
0
0
0
0
0
0
0
0
0
0
0
0
0
0
0
0
0
0
0
0
0
0
0
0
0
0
0
0
0
0
0
0
0
0
0
0
0
0
0
0
0
0
0
0
0
0
0
0
0
0
0
0
0
0
0
0
0
0
0
0
0
0
0
0
0
0
0
0
0
0
0
0
0
0
0
0
0
0
0
0
0
0
0
0
0
0
0
0
0
0
0
0
0
0
0
0
0
0
0
0
0
0
0
0
0
0
0
0
0
0
0
0
0
0
0
0
0
0
0
0
0
0
0
0
0
0
0
0
0
0
0
0
0
0
0
0
0
0
0
0
0
0
0
0
0
0
0
0
0
0
0
0
0
0
0
0
0
0
0
0
0
0
0
0
0
0
0
0
0
0
0
0
0
0
0
0
0
0
0
0
0
0
0
0
0
0
0
0
0
0
0
0
0
0
0
0
0
0
0
0
0
0
0
0
0
0
0
0
0
0
0
0
0
0
0
0
0
0
0
0
0
0
0
0
0
0
0
0
0
0
0
0
0
0
0
0
0
0
0
0
0
0
0
0
0
0
0
0
0
0
0
0
0
0
0
0
0
0
0
0
0
0
0
0
0
0
0
0
0
0
0
0
0
0
0
0
0
0
0
0
0
0
0
0
0
0
0
0
0
0
0
0
0
0
0
0
0
0
0
0
0
0
0
0
0
0
0
0
0
0
0
0
0
0
0
0
0
0
0
0
0
0
0
0
0
0
0
0
0
0
0
0
0
0
0
0
0
0
0
0
0
0
0
0
0
0
0
0
0
0
0
0
0
0
0
0
0
0
0
0
0
0
0
0
0
0
0
0
0
0
0
0
0
0
0
0
0
0
0
0
0
0
0
0
0
0
0
0
0
0
0
0
0
0
0
0
0
0
0
0
0
0
0
0
0
0
0
0
0
0
0
0
0
0
0
0
0
0
0
0
0
0
0
0
0
0
0
0
0
0
0
0
0
0
0
0
0
0
0
0
0
0
0
0
0
0
0
0
0
0
0
0
0
0
0
0
0
0
0
0
0
0
0
0
0
0
0
0
0
0
0
0
0
0
0
0
0
0
0
0
0
0
0
0
0
0
0
0
0
0
0
0
0
0
0
0
0
0
0
0
0
0
0
0
0
0
0
0
0
0
0
0
0
0
0
0
0
0
0
0
0
0
0
0
0
0
0
0
0
0
0
0
0
0
0
0
0
0
0
0
0
0
0
0
0
0
0
0
0
0
0
0
0
0
0
0
0
0
0
0
0
0
0
0
0
0
0
0
0
0
0
0
0
0
0
0
0
0
0
0
0
0
0
0
0
0
0
0
0
0
0
0
0
0
0
0
0
0
0
0
0
0
0
0
0
0
0
0
0
0
0
0
0
0
0
0
0
0
0
0
0
0
0
0
0
0
0
0
0
0
0
0
0
0
0
0
0
0
0
0
0
0
0
0
0
0
0
0
0
0
0
0
0
0
0
0
0
0
0
0
0
0
0
0
0
0
0
0
0
0
0
0
0
0
0
0
0
0
0
0
0
0
0
0
0
0
0
0
0
0
0
0
0
0
0
0
0
0
0
0
0
0
0
0
0
0
0
0
0
0
0
0
0
0
0
0
0
0
0
0
0
0
0
0
0
0
0
0
0
0
0
0
0
0
0
0
0
0
0
0
0
0
0
0
0
0
0
0
0
0
0
0
0
0
0
0
0
0
0
0
0
0
0
0
0
0
0
0
0
0
0
0
0
0
0
0
0
0
0
0
0
0
0
0
0
0
0
0
0
0
0
0
0
0
0
0
0
0
0
0
0
0
0
0
0
0
0
0
0
0
0
0
0
0
0
0
0
0
0
0
0
0
0
0
0
0
0
0
0
0
0
0
0
0
0
0
0
0
0
0
0
0
0
0
0
0
0
0
0
0
0
0
0
0
0
0
0
0
0
0
0
0
0
0
0
0
0
0
0
0
0
0
0
0
0
0
0
0
0
0
0
0
0
0
0
0
0
0
0
0
0
0
0
0
0
0
0
0
0
0
0
0
0
0
0
0
0
0
0
0
0
0
0
0
0
0
0
0
0
0
0
0
0
0
0
0
0
0
0
0
0
0
0
0
0
0
0
0
0
0
0
0
0
0
0
0
0
0
0
0
0
0
0
0
0
0
0
0
0
0
0
0
0
0
0
0
0
0
0
0
0
0
0
0
0
0
0
0
0
0
0
0
0
0
0
0
0
0
0
0
0
0
0
0
0
0
0
0
0
0
0
0
0
0
0
0
0
0
0
0
0
0
0
0
0
0
0
0
0
0
0
0
0
0
0
0
0
0
0
0
0
0
0
0
0
0
0
0
0
0
0
0
0
0
0
0
0
0
0
0
0
0
0
0
0
0
0
0
0
0
0
0
0
0
0
0
0
0
0
0
0
0
0
0
0
0
0
0
0
0
0
0
0
0
0
0
0
0
0
0
0
0
0
0
0
0
0
0
0
0
0
0
0
0
0
0
0
0
0
0
0
0
0
0
0
0
0
0
0
0
0
0
0
0
0
0
0
0
0
0
0
0
0
0
0
0
0
0
0
0
0
0
0
0
0
0
0
0
0
0
0
0
0
0
0
0
0
0
0
0
0
0
0
0
0
0
0
0
0
0
0
0
0
0
0
0
0
0
0
0
0
0
0
0
0
0
0
0
0
0
0
0
0
0
0
0
0
0
0
0
0
0
0
0
0
0
0
0
0
0
0
0
0
0
0
0
0
0
0
0
0
0
0
0
0
0
0
0
0
0
0
0
0
0
0
0
0
0
0
0
0
0
0
0
0
0
0
0
0
0
0
0
0
0
0
0
0
0
0
0
0
0
0
0
0
0
0
0
0
0
0
0
0
0
0
0
0
0
0
0
0
0
0
0
0
0
0
0
0
0
0
0
0
0
0
0
0
0
0
0
0
0
0
0
0
0
0
0
0
0
0
0
0
0
0
0
0
0
0
0
0
0
0
0
0
0
0
0
0
0
0
0
0
0
0
0
0
0
0
0
0
0
0
0
0
0
0
0
0
0
0
0
0
0
0
0
0
0
0
0
0
0
0
0
0
0
0
0
0
0
0
0
0
0
0
0
0
0
0
0
0
0
0
0
0
0
0
0
0
0
0
0
0
0
0
0
0
0
0
0
0
0
0
0
0
0
0
0
0
0
0
0
0
0
0
0
0
0
0
0
0
0
0
0
0
0
0
0
0
0
0
0
0
0
0
0
0
0
0
0
0
0
0
0
0
0
0
0
0
0
0
0
0
0
0
0
0
0
0
0
0
0
0
0
0
0
0
0
0
0
0
0
0
0
0
0
0
0
0
0
0
0
0
0
0
0
0
0
0
0
0
0
0
0
0
0
0
0
0
0
0
0
0
0
0
0
0
0
0
0
0
0
0
0
0
0
0
0
0
0
0
0
0
0
0
0
0
0
0
0
0
0
0
0
0
0
0
0
0
0
0
0
0
0
0
0
0
0
0
0
0
0
0
0
0
0
0
0
0
0
0
0
0
0
0
0
0
0
0
0
0
0
0
0
0
0
0
0
0
0
0
0
0
0
0
0
0
0
0
0
0
0
0
0
0
0
0
0
0
0
0
0
0
0
0
0
0
0
0
0
0
0
0
0
0
0
0
0
0
0
0
0
0
0
0
0
0
0
0
0
0
0
0
0
0
0
0
0
0
0
0
0
0
0
0
0
0
0
0
0
0
0
0
0
0
0
0
0
0
0
0
0
0
0
0
0
0
0
0
0
0
0
0
0
0
0
0
0
0
0
0
0
0
0
0
0
0
0
0
0
0
0
0
0
0
0
0
0
0
0
0
0
0
0
0
0
0
0
0
0
0
0
0
0
0
0
0
0
0
0
0
0
0
0
0
0
0
0
0
0
0
0
0
0
0
0
0
0
0
0
0
0
0
0
0
0
0
0
0
0
0
0
0
0
0
0
0
0
0
0
0
0
0
0
0
0
0
0
0
0
0
0
0
0
0
0
0
0
0
0
0
0
0
0
0
0
0
0
0
0
0
0
0
0
0
0
0
0
0
0
0
0
0
0
0
0
0
0
0
0
0
0
0
0
0
0
0
0
0
0
0
0
0
0
0
0
0
0
0
0
0
0
0
0
0
0
0
0
0
0
0
0
0
0
0
0
0
0
0
0
0
0
0
0
0
0
0
0
0
0
0
0
0
0
0
0
0
0
0
0
0
0
0
0
0
0
0
0
0
0
0
0
0
0
0
0
0
0
0
0
0
0
0
0
0
0
0
0
0
0
0
0
0
0
0
0
0
0
0
0
0
0
0
0
0
0
0
0
0
0
0
0
0
0
0
0
0
0
0
0
0
0
0
0
0
0
0
0
0
0
0
0
0
0
0
0
0
0
0
0
0
0
0
0
0
0
0
0
0
0
0
0
0
0
0
0
0
0
0
0
0
0
0
0
0
0
0
0
0
0
0
0
0
0
0
0
0
0
0
0
0
0
0
0
0
0
0
0
0
0
0
0
0
0
0
0
0
0
0
0
0
0
0
0
0
0
0
0
0
0
0
0
0
0
0
0
0
0
0
0
0
0
0
0
0
0
0
0
0
0
0
0
0
0
0
0
0
0
0
0
0
0
0
0
0
0
0
0
0
0
0
0
0
0
0
0
0
0
0
0
0
0
0
0
0
0
0
0
0
0
0
0
0
0
0
0
0
0
0
0
0
0
0
0
0
0
0
0
0
0
0
0
0
0
0
0
0
0
0
0
0
0
0
0
0
0
0
0
0
0
0
0
0
0
0
0
0
0
0
0
0
0
0
0
0
0
0
0
0
0
0
0
0
0
0
0
0
0
0
0
0
0
0
0
0
0
0
0
0
0
0
0
0
0
0
0
0
0
0
0
0
0
0
0
0
0
0
0
0
0
0
0
0
0
0
0
0
0
0
0
0
0
0
0
0
0
0
0
0
0
0
0
0
0
0
0
0
0
0
0
0
0
0
0
0
0
0
0
0
0
0
0
0
0
0
0
0
0
0
0
0
0
0
0
0
0
0
0
0
0
0
0
0
0
0
0
0
0
0
0
0
0
0
0
0
0
0
0
0
0
0
0
0
0
0
0
0
0
0
0
0
0
0
0
0
0
0
0
0
0
0
0
0
0
0
0
0
0
0
0
0
0
0
0
0
0
0
0
0
0
0
0
0
0
0
0
0
0
0
0
0
0
0
0
0
0
0
0
0
0
0
0
0
0
0
0
0
0
0
0
0
0
0
0
0
0
0
0
0
0
0
0
0
0
0
0
0
0
0
0
0
0
0
0
0
0
0
0
0
0
0
0
0
0
0
0
0
0
0
0
0
0
0
0
0
0
0
0
0
0
0
0
0
0
0
0
0
0
0
0
0
0
0
0
0
0
0
0
0
0
0
0
0
0
0
0
0
0
0
0
0
0
0
0
0
0
0
0
0
0
0
0
0
0
0
0
0
0
0
0
0
0
0
0
0
0
0
0
0
0
0
0
0
0
0
0
0
0
0
0
0
0
0
0
0
0
0
0
0
0
0
0
0
0
0
0
0
0
0
0
0
0
0
0
0
0
0
0
0
0
0
0
0
0
0
0
0
0
0
0
0
0
0
0
0
0
0
0
0
0
0
0
0
0
0
0
0
0
0
0
0
0
0
0
0
0
0
0
0
0
0
0
0
0
0
0
0
0
0
0
0
0
0
0
0
0
0
0
0
0
0
0
0
0
0
0
0
0
0
0
0
0
0
0
0
0
0
0
0
0
0
0
0
0
0
0
0
0
0
0
0
0
0
0
0
0
0
0
0
0
0
0
0
0
0
0
0
0
0
0
0
0
0
0
0
0
0
0
0
0
0
0
0
0
0
0
0
0
0
0
0
0
0
0
0
0
0
0
0
0
0
0
0
0
0
0
0
0
0
0
0
0
0
0
0
0
0
0
0
0
0
0
0
0
0
0
0
0
0
0
0
0
0
0
0
0
0
0
0
0
0
0
0
0
0
0
0
0
0
0
0
0
0
0
0
0
0
0
0
0
0
0
0
0
0
0
0
0
0
0
0
0
0
0
0
0
0
0
0
0
0
0
0
0
0
0
0
0
0
0
0
0
0
0
0
0
0
0
0
0
0
0
0
0
0
0
0
0
0
0
0
0
0
0
0
0
0
0
0
0
0
0
0
0
0
0
0
0
0
0
0
0
0
0
0
0
0
0
0
0
0
0
0
0
0
0
0
0
0
0
0
0
0
0
0
0
0
0
0
0
0
0
0
0
0
0
0
0
0
0
0
0
0
0
0
0
0
0
0
0
0
0
0
0
0
0
0
0
0
0
0
0
0
0
0
0
0
0
0
0
0
0
0
0
0
0
0
0
0
0
0
0
0
0
0
0
0
0
0
0
0
0
0
0
0
0
0
0
0
0
0
0
0
0
0
0
0
0
0
0
0
0
0
0
0
0
0
0
0
0
0
0
0
0
0
0
0
0
0
0
0
0
0
0
0
0
0
0
0
0
0
0
0
0
0
0
0
0
0
0
0
0
0
0
0
0
0
0
0
0
0
0
0
0
0
0
0
0
0
0
0
0
0
0
0
0
0
0
0
0
0
0
0
0
0
0
0
0
0
0
0
0
0
0
0
0
0
0
0
0
0
0
0
0
0
0
0
0
0
0
0
0
0
0
0
0
0
0
0
0
0
0
0
0
0
0
0
0
0
0
0
0
0
0
0
0
0
0
0
0
0
0
0
0
0
0
0
0
0
0
0
0
0
0
0
0
0
0
0
0
0
0
0
0
0
0
0
0
0
0
0
0
0
0
0
4.94066e-324
0
0
0
0
0
0
0
0
0
0
0
0
0
0
0
0
0
0
0
0
0
0
0
0
0
0
0
0
0
0
0
0
0
0
0
0
0
0
0
0
0
0
0
0
0
0
0
0
0
0
0
0
0
0
0
0
0
0
0
0
0
0
0
0
0
0
0
0
0
0
0
0
0
0
0
0
0
0
0
0
0
0
0
0
0
0
0
0
0
0
0
0
0
0
0
0
0
4.94066e-324
1.97626e-323
0
0
0
0
0
0
0
0
0
0
0
0
0
0
0
0
0
0
0
0
0
0
0
0
0
0
0
0
0
0
0
0
0
0
0
0
0
0
0
0
0
0
0
0
0
0
0
0
0
0
0
0
0
0
0
0
0
0
0
0
0
0
0
0
0
0
0
0
0
0
0
0
0
0
0
0
0
0
0
0
0
0
0
0
0
0
0
0
0
0
0
0
0
0
-4.94066e-324
4.94066e-324
-9.88131e-324
2.47033e-323
1.08694e-322
0
0
0
0
0
0
0
0
0
0
0
0
0
0
0
0
0
0
0
0
0
0
0
0
0
0
0
0
0
0
0
0
0
0
0
0
0
0
0
0
0
0
0
0
0
0
0
0
0
0
0
0
0
0
0
0
0
0
0
0
0
0
0
0
0
0
0
0
0
0
0
0
0
0
0
0
0
0
0
0
0
0
0
0
0
0
0
0
0
0
0
0
-4.94066e-324
9.88131e-324
-1.4822e-323
3.45846e-323
-5.43472e-323
1.33398e-322
5.43472e-322
0
0
0
0
0
0
0
0
0
0
0
0
0
0
0
0
0
0
0
0
0
0
0
0
0
0
0
0
0
0
0
0
0
0
0
0
0
0
0
0
0
0
0
0
0
0
0
0
0
0
0
0
0
0
0
0
0
0
0
0
0
0
0
0
0
0
0
0
0
0
0
0
0
0
0
0
0
0
0
0
0
0
0
0
0
0
0
0
0
0
-4.94066e-324
9.88131e-324
-1.97626e-323
4.44659e-323
-6.91692e-323
1.77864e-322
-2.66795e-322
6.71929e-322
2.59384e-321
0
0
0
0
0
0
0
0
0
0
0
0
0
0
0
0
0
0
0
0
0
0
0
0
0
0
0
0
0
0
0
0
0
0
0
0
0
0
0
0
0
0
0
0
0
0
0
0
0
0
0
0
0
0
0
0
0
0
0
0
0
0
0
0
0
0
0
0
0
0
0
0
0
0
0
0
0
0
0
0
0
0
0
0
0
0
0
4.94066e-324
-4.94066e-324
1.4822e-323
-2.47033e-323
6.42285e-323
-9.38725e-323
2.47033e-322
-3.40905e-322
8.99199e-322
-1.27469e-321
3.3053e-321
1.22281e-320
0
0
0
0
0
0
0
0
0
0
0
0
0
0
0
0
0
0
0
0
0
0
0
0
0
0
0
0
0
0
0
0
0
0
0
0
0
0
0
0
0
0
0
0
0
0
0
0
0
0
0
0
0
0
0
0
0
0
0
0
0
0
0
0
0
0
0
0
0
0
0
0
0
0
0
0
0
0
0
0
0
0
0
0
-4.94066e-324
4.94066e-324
-9.88131e-324
2.47033e-323
-3.95253e-323
9.88131e-323
-1.33398e-322
3.60668e-322
-4.74303e-322
1.29939e-321
-1.67982e-321
4.57505e-321
-5.97819e-321
1.6067e-320
5.69509e-320
0
0
0
0
0
0
0
0
0
0
0
0
0
0
0
0
0
0
0
0
0
0
0
0
0
0
0
0
0
0
0
0
0
0
0
0
0
0
0
0
0
0
0
0
0
0
0
0
0
0
0
0
0
0
0
0
0
0
0
0
0
0
0
0
0
0
0
0
0
0
0
0
0
0
0
0
0
0
0
0
0
0
-4.94066e-324
9.88131e-324
-1.4822e-323
3.45846e-323
-5.43472e-323
1.38338e-322
-2.02567e-322
5.33591e-322
-7.06514e-322
1.92686e-321
-2.41598e-321
6.74894e-321
-8.17185e-321
2.29889e-320
-2.78208e-320
7.74942e-320
2.62902e-319
0
0
0
0
0
0
0
0
0
0
0
0
0
0
0
0
0
0
0
0
0
0
0
0
0
0
0
0
0
0
0
0
0
0
0
0
0
0
0
0
0
0
0
0
0
0
0
0
0
0
0
0
0
0
0
0
0
0
0
0
0
0
0
0
0
0
0
0
0
0
0
0
0
0
0
0
0
0
0
0
-4.94066e-324
9.88131e-324
-1.97626e-323
4.94066e-323
-7.90505e-323
1.92686e-322
-2.96439e-322
7.5592e-322
-1.06224e-321
2.84088e-321
-3.65115e-321
1.01283e-320
-1.21293e-320
3.46538e-320
-3.94956e-320
1.14524e-319
-1.2862e-319
3.71246e-319
1.20477e-318
0
0
0
0
0
0
0
0
0
0
0
0
0
0
0
0
0
0
0
0
0
0
0
0
0
0
0
0
0
0
0
0
0
0
0
0
0
0
0
0
0
0
0
0
0
0
0
0
0
0
0
0
0
0
0
0
0
0
0
0
0
0
0
0
0
0
0
0
0
0
0
0
0
0
0
0
0
0
-4.94066e-324
9.88131e-324
-2.47033e-323
5.92879e-323
-1.08694e-322
2.56914e-322
-4.19956e-322
1.03754e-321
-1.57113e-321
4.03158e-321
-5.54836e-321
1.4901e-320
-1.87004e-320
5.24105e-320
-6.04193e-320
1.75754e-319
-1.89701e-319
5.65181e-319
-5.91243e-319
1.76674e-318
5.48739e-318
0
0
0
0
0
0
0
0
0
0
0
0
0
0
0
0
0
0
0
0
0
0
0
0
0
0
0
0
0
0
0
0
0
0
0
0
0
0
0
0
0
0
0
0
0
0
0
0
0
0
0
0
0
0
0
0
0
0
0
0
0
0
0
0
0
0
0
0
0
0
0
0
0
0
0
0
-4.94066e-324
1.4822e-323
-3.45846e-323
6.91692e-323
-1.43279e-322
3.16202e-322
-5.73116e-322
1.3488e-321
-2.21835e-321
5.44954e-321
-8.17185e-321
2.09928e-320
-2.85274e-320
7.6847e-320
-9.44851e-320
2.66924e-319
-2.9803e-319
8.79679e-319
-9.05197e-319
2.76122e-318
-2.70432e-318
8.34952e-318
2.48587e-317
0
0
0
0
0
0
0
0
0
0
0
0
0
0
0
0
0
0
0
0
0
0
0
0
0
0
0
0
0
0
0
0
0
0
0
0
0
0
0
0
0
0
0
0
0
0
0
0
0
0
0
0
0
0
0
0
0
0
0
0
0
0
0
0
0
0
0
0
0
0
0
0
0
0
-9.88131e-324
1.4822e-323
-3.95253e-323
7.90505e-323
-1.72923e-322
3.7549e-322
-7.36158e-322
1.66006e-321
-2.98416e-321
6.99597e-321
-1.14623e-320
2.80876e-320
-4.18177e-320
1.0737e-319
-1.44381e-319
3.89551e-319
-4.71077e-319
1.3379e-318
-1.45473e-318
4.34261e-318
-4.28847e-318
1.33438e-317
-1.2311e-317
3.91611e-317
1.12034e-316
0
0
0
0
0
0
0
0
0
0
0
0
0
0
0
0
0
0
0
0
0
0
0
0
0
0
0
0
0
0
0
0
0
0
0
0
0
0
0
0
0
0
0
0
0
0
0
0
0
0
0
0
0
0
0
0
0
0
0
0
0
0
0
0
0
0
0
0
0
0
0
0
-9.88131e-324
1.4822e-323
-4.44659e-323
8.89318e-323
-2.02567e-322
4.24896e-322
-8.99199e-322
1.94168e-321
-3.78948e-321
8.50287e-321
-1.52271e-320
3.55875e-320
-5.81367e-320
1.42049e-319
-2.10418e-319
5.39292e-319
-7.1933e-319
1.94093e-318
-2.31605e-318
6.59891e-318
-7.02077e-318
2.11333e-317
-2.01557e-317
6.37356e-317
-5.57706e-317
1.82141e-316
5.02227e-316
0
0
0
0
0
0
0
0
0
0
0
0
0
0
0
0
0
0
0
0
0
0
0
0
0
0
0
0
0
0
0
0
0
0
0
0
0
0
0
0
0
0
0
0
0
0
0
0
0
0
0
0
0
0
0
0
0
0
0
0
0
0
0
0
0
0
0
0
0
0
-9.88131e-324
1.4822e-323
-4.94066e-323
9.38725e-323
-2.2727e-322
4.59481e-322
-1.04248e-321
2.16401e-321
-4.56023e-321
9.8072e-321
-1.91154e-320
4.27021e-320
-7.6343e-320
1.77745e-319
-2.8975e-319
7.05466e-319
-1.04113e-318
2.66127e-318
-3.52742e-318
9.50664e-318
-1.12248e-317
3.20257e-317
-3.34785e-317
1.01346e-316
-9.38965e-317
3.00673e-316
-2.51287e-316
8.39337e-316
2.23826e-315
0
0
0
0
0
0
0
0
0
0
0
0
0
0
0
0
0
0
0
0
0
0
0
0
0
0
0
0
0
0
0
0
0
0
0
0
0
0
0
0
0
0
0
0
0
0
0
0
0
0
0
0
0
0
0
0
0
0
0
0
0
0
0
0
0
0
0
0
-9.88131e-324
1.4822e-323
-4.94066e-323
9.38725e-323
-2.42092e-322
4.69362e-322
-1.14623e-321
2.29246e-321
-5.20251e-321
1.07607e-320
-2.27073e-320
4.86111e-320
-9.46877e-320
2.10586e-319
-3.76216e-319
8.72105e-319
-1.41955e-318
3.44234e-318
-5.06645e-318
1.29066e-317
-1.70256e-317
4.57826e-317
-5.36134e-317
1.52935e-316
-1.5764e-316
4.78803e-316
-4.33193e-316
1.40011e-315
-1.12529e-315
3.8288e-315
9.90945e-315
0
0
0
0
0
0
0
0
0
0
0
0
0
0
0
0
0
0
0
0
0
0
0
0
0
0
0
0
0
0
0
0
0
0
0
0
0
0
0
0
0
0
0
0
0
0
0
0
0
0
0
0
0
0
0
0
0
0
0
0
0
0
0
0
0
0
-9.88131e-324
1.4822e-323
-4.94066e-323
8.89318e-323
-2.47033e-322
4.64422e-322
-1.19564e-321
2.31717e-321
-5.64223e-321
1.12499e-320
-2.55778e-320
5.2618e-320
-1.11101e-319
2.36697e-319
-4.61082e-319
1.02057e-318
-1.82272e-318
4.20538e-318
-6.83912e-318
1.65103e-317
-2.42541e-317
6.15385e-317
-8.08912e-317
2.16838e-316
-2.52327e-316
7.18669e-316
-7.32632e-316
2.22819e-315
-1.97763e-315
6.4325e-315
-5.00381e-315
1.72758e-314
4.35443e-314
0
0
0
0
0
0
0
0
0
0
0
0
0
0
0
0
0
0
0
0
0
0
0
0
0
0
0
0
0
0
0
0
0
0
0
0
0
0
0
0
0
0
0
0
0
0
0
0
0
0
0
0
0
0
0
0
0
0
0
0
0
0
0
4.94066e-324
-9.88131e-324
1.4822e-323
-4.94066e-323
8.39912e-323
-2.42092e-322
4.44659e-322
-1.20058e-321
2.26282e-321
-5.83492e-321
1.12548e-320
-2.7391e-320
5.43225e-320
-1.23615e-319
2.53065e-319
-5.34574e-319
1.1333e-318
-2.20826e-318
4.86344e-318
-8.68607e-318
1.99408e-317
-3.24143e-317
7.78715e-317
-1.14255e-316
2.88576e-316
-3.78368e-316
1.01031e-315
-1.17011e-315
3.32378e-315
-3.35949e-315
1.02134e-314
-8.92773e-315
2.91472e-314
-2.2074e-314
7.70473e-314
1.89736e-313
0
0
0
0
0
0
0
0
0
0
0
0
0
0
0
0
0
0
0
0
0
0
0
0
0
0
0
0
0
0
0
0
0
0
0
0
0
0
0
0
0
0
0
0
0
0
0
0
0
0
0
0
0
0
0
0
0
0
0
0
0
4.94066e-324
-9.88131e-324
1.97626e-323
-4.44659e-323
7.90505e-323
-2.2727e-322
4.15015e-322
-1.16105e-321
2.14424e-321
-5.78057e-321
1.08447e-320
-2.79839e-320
5.37198e-320
-1.30834e-319
2.58218e-319
-5.88002e-319
1.19778e-318
-2.53154e-318
5.33984e-318
-1.04086e-317
2.28064e-317
-4.07379e-317
9.30402e-317
-1.51207e-316
3.61396e-316
-5.29822e-316
1.33158e-315
-1.74278e-315
4.63261e-315
-5.34655e-315
1.51327e-314
-1.51959e-314
4.61127e-314
-3.98307e-314
1.30231e-313
-9.65195e-314
3.39448e-313
8.19059e-313
0
0
0
0
0
0
0
0
0
0
0
0
0
0
0
0
0
0
0
0
0
0
0
0
0
0
0
0
0
0
0
0
0
0
0
0
0
0
0
0
0
0
0
0
0
0
0
0
0
0
0
0
0
0
0
0
0
4.94066e-324
-4.94066e-324
4.94066e-324
-9.88131e-324
2.47033e-323
-3.95253e-323
8.39912e-323
-2.12448e-322
3.90312e-322
-1.08694e-321
1.9812e-321
-5.51871e-321
1.01481e-320
-2.74009e-320
5.11803e-320
-1.32207e-319
2.52552e-319
-6.1568e-319
1.20914e-318
-2.75533e-318
5.58459e-318
-1.18093e-317
2.47827e-317
-4.83237e-317
1.05333e-316
-1.88176e-316
4.2751e-316
-6.94671e-316
1.65155e-315
-2.41978e-315
6.04988e-315
-7.90747e-315
2.09156e-314
-2.40756e-314
6.78482e-314
-6.77963e-314
2.05108e-313
-1.75543e-313
5.73709e-313
-4.17973e-313
1.4767e-312
3.50003e-312
0
0
0
0
0
0
0
0
0
0
0
0
0
0
0
0
0
0
0
0
0
0
0
0
0
0
0
0
0
0
0
0
0
0
0
0
0
0
0
0
0
0
0
0
0
0
0
0
0
0
0
0
0
0
0
4.94066e-324
-4.94066e-324
1.4822e-323
-9.88131e-324
2.96439e-323
-3.95253e-323
9.88131e-323
-1.97626e-322
3.85371e-322
-1.00295e-321
1.82804e-321
-5.12346e-321
9.29337e-321
-2.5889e-320
4.73562e-320
-1.28156e-319
2.38169e-319
-6.16026e-319
1.17097e-318
-2.85733e-318
5.58362e-318
-1.27323e-317
2.56763e-317
-5.43203e-317
1.13412e-316
-2.21191e-316
4.79637e-316
-8.56839e-316
1.93638e-315
-3.14552e-315
7.43851e-315
-1.08915e-314
2.70854e-314
-3.53603e-314
9.30402e-314
-1.06873e-313
2.9972e-313
-2.98352e-313
8.99051e-313
-7.64036e-313
2.492e-312
-1.79135e-312
6.34143e-312
1.47952e-311
0
0
0
0
0
0
0
0
0
0
0
0
0
0
0
0
0
0
0
0
0
0
0
0
0
0
0
0
0
0
0
0
0
0
0
0
0
0
0
0
0
0
0
0
0
0
0
0
0
0
0
0
-4.94066e-324
9.88131e-324
-4.94066e-324
1.97626e-323
-1.4822e-323
4.94066e-323
-4.44659e-323
1.18576e-322
-1.82804e-322
4.10074e-322
-9.14021e-322
1.71935e-321
-4.66398e-321
8.42382e-321
-2.37893e-320
4.29195e-320
-1.19929e-319
2.18214e-319
-5.91812e-319
1.09419e-318
-2.83443e-318
5.36062e-318
-1.30939e-317
2.54593e-317
-5.809e-317
1.16558e-316
-2.46657e-316
5.12368e-316
-9.99284e-316
2.15575e-315
-3.85002e-315
8.65531e-315
-1.40521e-314
3.30546e-314
-4.8356e-314
1.19611e-313
-1.55949e-313
4.08147e-313
-4.67897e-313
1.30545e-312
-1.29533e-312
3.88543e-312
-3.28356e-312
1.06751e-311
-7.59414e-312
2.68783e-311
6.18338e-311
0
0
0
0
0
0
0
0
0
0
0
0
0
0
0
0
0
0
0
0
0
0
0
0
0
0
0
0
0
0
0
0
0
0
0
0
0
0
0
0
0
0
0
0
0
0
0
0
0
4.94066e-324
-4.94066e-324
9.88131e-324
-9.88131e-324
2.96439e-323
-1.97626e-323
6.42285e-323
-5.43472e-323
1.58101e-322
-1.82804e-322
4.29837e-322
-8.34971e-322
1.70453e-321
-4.18968e-321
7.68272e-321
-2.14375e-320
3.84087e-320
-1.09203e-319
1.95848e-319
-5.49095e-319
9.93709e-319
-2.70093e-318
4.96797e-318
-1.28881e-317
2.42523e-317
-5.92916e-317
1.14712e-316
-2.6185e-316
5.22795e-316
-1.1064e-315
2.28677e-315
-4.45881e-315
9.57018e-315
-1.70825e-314
3.82054e-314
-6.19769e-314
1.45021e-313
-2.11917e-313
5.21384e-313
-6.78776e-313
1.7669e-312
-2.02153e-312
5.60998e-312
-5.55061e-312
1.65654e-311
-1.39356e-311
4.51175e-311
-3.18334e-311
1.12456e-310
2.55406e-310
0
0
0
0
0
0
0
0
0
0
0
0
0
0
0
0
0
0
0
0
0
0
0
0
0
0
0
0
0
0
0
0
0
0
0
0
0
0
0
0
0
0
0
0
0
4.94066e-324
-4.94066e-324
4.94066e-324
-4.94066e-324
1.4822e-323
-1.4822e-323
3.95253e-323
-2.96439e-323
8.89318e-323
-7.41098e-323
2.12448e-322
-2.17389e-322
5.43472e-322
-7.80624e-322
1.6403e-321
-3.74008e-321
7.1936e-321
-1.90413e-320
3.42338e-320
-9.74742e-320
1.73284e-319
-4.95637e-319
8.83735e-319
-2.48558e-318
4.47425e-318
-1.21859e-317
2.23008e-317
-5.79263e-317
1.08465e-316
-2.65355e-316
5.10876e-316
-1.16643e-315
2.31743e-315
-4.9037e-315
1.00852e-314
-1.96554e-314
4.19754e-314
-7.48693e-314
1.66588e-313
-2.69965e-313
6.28385e-313
-9.1706e-313
2.24417e-312
-2.91694e-312
7.55146e-312
-8.62251e-312
2.37962e-311
-2.34832e-311
6.97043e-311
-5.84149e-311
1.88201e-310
-1.31926e-310
4.64522e-310
1.04251e-309
0
-4.94066e-324
0
0
0
0
0
0
0
0
0
0
0
0
0
0
0
0
0
0
0
0
0
0
0
0
0
0
0
0
0
0
0
0
0
0
0
0
0
0
0
0
0
4.94066e-324
-4.94066e-324
9.88131e-324
-9.88131e-324
2.47033e-323
-1.97626e-323
5.43472e-323
-3.95253e-323
1.13635e-322
-9.88131e-323
2.71736e-322
-2.61855e-322
6.7687e-322
-8.54734e-322
1.90709e-321
-3.35471e-321
6.45744e-321
-1.67044e-320
3.07506e-320
-8.56512e-320
1.51772e-319
-4.3832e-319
7.73756e-319
-2.22427e-318
3.94364e-318
-1.11235e-317
1.99192e-317
-5.43489e-317
9.89686e-317
-2.57337e-316
4.79526e-316
-1.17369e-315
2.2488e-315
-5.13463e-315
1.01521e-314
-2.14751e-314
4.39507e-314
-8.56038e-314
1.819e-313
-3.24156e-313
7.17577e-313
-1.16153e-312
2.68944e-312
-3.91943e-312
9.53952e-312
-1.23787e-311
3.1868e-311
-3.63166e-311
9.96541e-311
-9.81094e-311
2.8954e-310
-2.41871e-310
7.74978e-310
-5.40479e-310
1.89461e-309
4.2046e-309
1.38338e-322
-8.2509e-322
4.44659e-323
-2.76677e-322
1.4822e-323
-9.38725e-323
4.94066e-324
-3.45846e-323
4.94066e-324
-1.4822e-323
0
-9.88131e-324
0
-4.94066e-324
0
-4.94066e-324
0
-4.94066e-324
0
0
0
0
0
0
0
0
0
0
0
0
0
0
0
0
0
0
0
0
0
0
-4.94066e-324
4.94066e-324
-4.94066e-324
1.4822e-323
-1.4822e-323
3.45846e-323
-2.47033e-323
7.41098e-323
-5.43472e-323
1.58101e-322
-1.23516e-322
3.50787e-322
-3.21143e-322
8.34971e-322
-9.68369e-322
2.23812e-321
-3.47328e-321
6.99597e-321
-1.45156e-320
2.6146e-320
-7.40357e-320
1.32207e-319
-3.81147e-319
6.67903e-319
-1.9487e-318
3.41802e-318
-9.86715e-318
1.73997e-317
-4.92022e-317
8.76632e-317
-2.39557e-316
4.34121e-316
-1.12973e-315
2.09518e-315
-5.12965e-315
9.78197e-315
-2.23324e-314
4.39444e-314
-9.29158e-314
1.89236e-313
-3.68311e-313
7.78728e-313
-1.38637e-312
3.05326e-312
-4.93621e-312
1.1369e-311
-1.65444e-311
4.00472e-311
-5.18789e-311
1.32801e-310
-1.51053e-310
4.12055e-310
-4.04793e-310
1.18739e-309
-9.89258e-310
3.15053e-309
-2.18858e-309
7.63015e-309
1.67538e-308
2.3315e-320
-1.4277e-319
7.36652e-321
-4.70696e-320
2.48515e-321
-1.56767e-320
1.04248e-321
-5.57306e-321
5.63235e-322
-2.46045e-321
3.50787e-322
-1.40315e-321
2.2727e-322
-9.18962e-322
1.38338e-322
-6.17582e-322
8.39912e-323
-4.05134e-322
4.94066e-323
-2.56914e-322
2.47033e-323
-1.5316e-322
1.4822e-323
-8.89318e-323
9.88131e-324
-5.43472e-323
9.88131e-324
-3.45846e-323
1.4822e-323
-3.45846e-323
1.97626e-323
-4.94066e-323
3.45846e-323
-8.89318e-323
5.92879e-323
-1.63042e-322
8.89318e-323
-2.76677e-322
1.08694e-322
-4.24896e-322
1.03754e-322
-5.48413e-322
6.42285e-323
-5.38532e-322
4.94066e-324
-3.40905e-322
-6.42285e-323
-1.4822e-323
-1.63042e-322
3.80431e-322
-4.00193e-322
1.02766e-321
-1.11659e-321
2.63831e-321
-3.70549e-321
7.71236e-321
-1.44366e-320
2.66499e-320
-6.28452e-320
1.07874e-319
-3.2514e-319
5.68403e-319
-1.67697e-318
2.91259e-318
-8.56238e-318
1.49295e-317
-4.32545e-317
7.58763e-317
-2.1504e-316
3.81255e-316
-1.04324e-315
1.88161e-315
-4.89973e-315
9.04469e-315
-2.21476e-314
4.20371e-314
-9.59502e-314
1.8791e-313
-3.97108e-313
8.04844e-313
-1.56524e-312
3.29293e-312
-5.85638e-312
1.28314e-311
-2.07185e-311
4.74642e-311
-6.89697e-311
1.66022e-310
-2.14718e-310
5.46458e-310
-6.20446e-310
1.68224e-309
-1.64939e-309
4.80748e-309
-3.99655e-309
1.26449e-308
-8.75817e-309
3.03416e-308
6.59449e-308
1.19109e-317
-7.42259e-317
3.66466e-318
-2.39187e-317
1.19749e-318
-7.75725e-318
4.86803e-319
-2.67027e-318
2.57986e-319
-1.14305e-318
1.586e-319
-6.37666e-319
1.00528e-319
-4.1255e-319
6.21436e-320
-2.75111e-319
3.67733e-320
-1.78872e-319
2.081e-320
-1.11293e-319
1.14327e-320
-6.6185e-320
6.41297e-321
-3.81863e-320
4.17485e-321
-2.2475e-320
3.84383e-321
-1.53506e-320
5.16299e-321
-1.47973e-320
8.44358e-321
-2.07903e-320
1.43328e-320
-3.54986e-320
2.31766e-320
-6.28056e-320
3.36607e-320
-1.05695e-319
4.13533e-320
-1.59568e-319
4.00786e-320
-2.03807e-319
2.83396e-320
-2.05684e-319
1.36659e-320
-1.51965e-319
4.31813e-321
-7.68914e-320
5.63235e-322
-2.55531e-320
-1.12153e-321
-3.50787e-321
-4.00687e-321
7.35664e-321
-1.46441e-320
2.74948e-320
-6.05724e-320
1.04653e-319
-2.70857e-319
4.4955e-319
-1.41312e-318
2.43294e-318
-7.29158e-318
1.25702e-317
-3.71687e-317
6.44479e-317
-1.87308e-316
3.26912e-316
-9.28342e-316
1.63803e-315
-4.48734e-315
8.05602e-315
-2.09887e-314
3.85667e-314
-9.44425e-314
1.78428e-313
-4.07145e-313
7.93604e-313
-1.67615e-312
3.38074e-312
-6.56938e-312
1.37516e-311
-2.44313e-311
5.32524e-311
-8.58776e-311
1.95679e-310
-2.8393e-310
6.79624e-310
-8.77569e-310
2.22021e-309
-2.51658e-309
6.78069e-309
-6.63688e-309
1.92165e-308
-1.59471e-308
5.01043e-308
-3.46307e-308
1.19128e-307
2.5637e-307
1.48532e-314
-9.40434e-314
4.46422e-315
-2.96756e-314
1.42006e-315
-9.40219e-315
5.62925e-316
-3.15074e-315
2.93457e-316
-1.3152e-315
1.78682e-316
-7.21731e-316
1.12435e-316
-4.6247e-316
6.90434e-317
-3.06165e-316
4.0604e-317
-1.9774e-316
2.28508e-317
-1.22264e-316
1.25013e-317
-7.23078e-317
6.99211e-318
-4.1547e-317
4.53768e-318
-2.43875e-317
4.1219e-318
-1.65943e-317
5.41626e-318
-1.57864e-317
8.65583e-318
-2.16933e-317
1.43832e-317
-3.61958e-317
2.27876e-317
-6.26842e-317
3.24039e-317
-1.03334e-316
3.89164e-317
-1.52736e-316
3.67877e-317
-1.90693e-316
2.53346e-317
-1.87732e-316
1.19449e-317
-1.35097e-316
3.83271e-318
-6.68299e-317
8.82046e-319
-2.25683e-317
1.5611e-319
-5.46995e-318
1.41105e-320
-1.01727e-318
-4.69659e-320
-9.62143e-320
-2.42166e-319
3.33475e-319
-1.14556e-318
1.7854e-318
-6.06347e-318
1.02206e-317
-3.13144e-317
5.35649e-317
-1.59347e-316
2.74812e-316
-8.01e-316
1.39115e-315
-3.95759e-315
6.95046e-315
-1.90598e-314
3.40623e-314
-8.87806e-314
1.62397e-313
-3.97674e-313
7.4788e-313
-1.70597e-312
3.3097e-312
-6.98613e-312
1.40229e-311
-2.72263e-311
5.67079e-311
-1.00643e-310
2.1823e-310
-3.51493e-310
7.9656e-310
-1.15418e-309
2.74695e-309
-3.5416e-309
8.90621e-309
-1.00792e-308
2.69836e-308
-2.63714e-308
7.5832e-308
-6.28438e-308
1.95997e-307
-1.35282e-307
4.61783e-307
9.84274e-307
7.29046e-312
-4.68371e-311
2.14612e-312
-1.44932e-311
6.67545e-313
-4.4977e-312
2.59539e-313
-1.47385e-312
1.33731e-313
-6.03412e-313
8.0889e-314
-3.27294e-313
5.06333e-314
-2.08338e-313
3.09396e-314
-1.37203e-313
1.81126e-314
-8.81776e-314
1.01554e-314
-5.42718e-314
5.54455e-315
-3.1977e-314
3.10305e-315
-1.83356e-314
2.01805e-315
-1.0769e-314
1.82629e-315
-7.3428e-315
2.36704e-315
-6.95873e-315
3.71594e-315
-9.43119e-315
6.06388e-315
-1.54563e-314
9.43378e-315
-2.62841e-314
1.31624e-314
-4.25431e-314
1.54874e-314
-6.16946e-314
1.43167e-314
-7.54656e-314
9.62598e-315
-7.2656e-314
4.43048e-315
-5.10511e-314
1.39023e-315
-2.4654e-314
3.14172e-316
-8.14179e-315
5.62514e-317
-1.93751e-315
1.02902e-317
-3.64438e-316
4.3148e-318
-6.97326e-317
3.72944e-318
-3.04449e-317
-3.66696e-320
-2.73176e-317
-2.25661e-317
3.24982e-319
-1.31585e-316
1.97996e-316
-6.74187e-316
1.14669e-315
-3.38185e-315
5.84291e-315
-1.66571e-314
2.91197e-314
-7.99273e-314
1.42203e-313
-3.70768e-313
6.75186e-313
-1.65327e-312
3.09513e-312
-7.05762e-312
1.36287e-311
-2.87496e-311
5.74303e-311
-1.11411e-310
2.30893e-310
-4.09353e-310
8.83005e-310
-1.42047e-309
3.20155e-309
-4.63251e-309
1.0962e-308
-1.41124e-308
3.52722e-308
-3.98591e-308
1.06011e-307
-1.03468e-307
2.9542e-307
-2.44566e-307
7.56888e-307
-5.22019e-307
1.76721e-306
3.73145e-306
2.08545e-309
-1.3588e-308
6.0195e-310
-4.12558e-309
1.83342e-310
-1.25544e-309
6.99853e-311
-4.02852e-310
3.5658e-311
-1.61934e-310
2.14296e-311
-8.68533e-311
1.33464e-311
-5.49308e-311
8.11725e-312
-3.59927e-311
4.7319e-312
-2.30235e-311
2.64436e-312
-1.41106e-311
1.44152e-312
-8.28643e-312
8.07733e-313
-4.74398e-312
5.26758e-313
-2.78954e-312
4.7526e-313
-1.9072e-312
6.07919e-313
-1.80182e-312
9.37799e-313
-2.40985e-312
1.50319e-312
-3.88047e-312
2.29665e-312
-6.48102e-312
3.14429e-312
-1.03011e-311
3.625e-312
-1.46574e-311
3.27728e-312
-1.7567e-311
2.15172e-312
-1.65419e-311
9.67002e-313
-1.13508e-311
2.96808e-313
-5.35265e-312
6.57954e-314
-1.72903e-312
1.16207e-314
-4.03558e-313
2.16057e-315
-7.48626e-314
1.00274e-315
-1.45548e-314
1.06187e-315
-7.03167e-315
1.04591e-315
-7.72847e-315
5.79441e-316
-9.20919e-315
-2.96639e-316
-5.05007e-315
-2.75297e-315
2.56724e-315
-1.40822e-314
2.36873e-314
-6.92053e-314
1.20337e-313
-3.30876e-313
5.86078e-313
-1.52859e-312
2.77141e-312
-6.78543e-312
1.26464e-311
-2.88251e-311
5.54069e-311
-1.16805e-310
2.32219e-310
-4.50101e-310
9.28183e-310
-1.64385e-309
3.52749e-309
-5.66768e-309
1.27043e-308
-1.83579e-308
4.3189e-308
-5.55232e-308
1.37915e-307
-1.55638e-307
4.11181e-307
-4.00847e-307
1.13619e-306
-9.39856e-307
2.88555e-306
-1.98953e-306
6.67667e-306
1.39673e-305
4.26038e-307
-2.81473e-306
1.2064e-307
-8.38797e-307
3.5998e-308
-2.50422e-307
1.34926e-308
-7.87272e-308
6.79677e-309
-3.1074e-308
4.05814e-309
-1.64781e-308
2.51477e-309
-1.03539e-308
1.52249e-309
-6.7503e-309
8.8394e-310
-4.29821e-309
4.9248e-310
-2.6236e-309
2.68154e-310
-1.53601e-309
1.50484e-310
-8.78324e-310
9.83921e-311
-5.1723e-310
8.84497e-311
-3.54528e-310
1.11616e-310
-3.33697e-310
1.69165e-310
-4.40256e-310
2.66296e-310
-6.96423e-310
3.99496e-310
-1.14218e-309
5.36583e-310
-1.78238e-309
6.05982e-310
-2.48796e-309
5.35665e-310
-2.92095e-309
3.43338e-310
-2.68946e-309
1.50633e-310
-1.80177e-309
4.52223e-311
-8.29511e-310
9.83497e-312
-2.62077e-310
1.71385e-312
-6.00033e-311
3.22879e-313
-1.09799e-311
1.58156e-313
-2.16251e-312
1.69094e-313
-1.10236e-312
1.66448e-313
-1.22301e-312
1.0441e-313
-1.4562e-312
3.63528e-314
-9.04016e-313
-2.07087e-315
-3.12485e-313
-5.60952e-314
1.76924e-314
-2.83468e-313
4.7578e-313
-1.35199e-312
2.38165e-312
-6.22094e-312
1.12296e-311
-2.74916e-311
5.1012e-311
-1.16222e-310
2.22385e-310
-4.68507e-310
9.2703e-310
-1.79533e-309
3.68391e-309
-6.51808e-309
1.39137e-308
-2.23315e-308
4.97794e-308
-7.1844e-308
1.68035e-307
-2.1573e-307
5.32522e-307
-6.0014e-307
1.57489e-306
-1.53354e-306
4.31488e-306
-3.5668e-306
1.08617e-305
-7.48892e-306
2.49052e-305
5.16214e-305
6.81551e-305
-4.56558e-304
1.89414e-305
-1.33562e-304
5.54019e-306
-3.91379e-305
2.03965e-306
-1.20611e-305
1.01588e-306
-4.67609e-306
6.02608e-307
-2.45174e-306
3.71592e-307
-1.53054e-306
2.23989e-307
-9.9294e-307
1.29553e-307
-6.29492e-307
7.19803e-308
-3.82778e-307
3.91541e-308
-2.23478e-307
2.20059e-308
-1.27659e-307
1.44211e-308
-7.52869e-308
1.29105e-308
-5.17193e-308
1.60684e-308
-4.84764e-308
2.39224e-308
-6.30724e-308
3.69771e-308
-9.79962e-308
5.44592e-308
-1.57796e-307
7.17465e-308
-2.4172e-307
7.93524e-308
-3.30931e-307
6.8566e-308
-3.80502e-307
4.28934e-308
-3.42484e-307
1.83687e-308
-2.23958e-307
5.39419e-309
-1.00648e-307
1.15097e-309
-3.11039e-308
1.97942e-310
-6.98582e-309
3.78695e-311
-1.2613e-309
1.95473e-311
-2.522e-310
2.09933e-311
-1.35441e-310
2.03465e-311
-1.50912e-310
1.25067e-311
-1.76893e-310
4.49204e-312
-1.07593e-310
1.04226e-312
-3.83577e-311
-2.30583e-314
-8.8429e-312
-1.10835e-312
1.94142e-313
-5.44451e-312
9.2399e-312
-2.49889e-311
4.48497e-311
-1.09954e-310
2.03123e-310
-4.62635e-310
8.81224e-310
-1.85551e-309
3.65401e-309
-7.07203e-309
1.44384e-308
-2.55256e-308
5.42025e-308
-8.69017e-308
1.92651e-307
-2.77688e-307
6.45712e-307
-8.27826e-307
2.0308e-306
-2.28543e-306
5.95727e-306
-5.79388e-306
1.6182e-305
-1.33676e-305
4.03717e-305
-2.78401e-305
9.17272e-305
1.88375e-304
9.42077e-303
-6.39453e-302
2.57138e-303
-1.83781e-302
7.37389e-304
-5.28942e-303
2.66467e-304
-1.59821e-303
1.3109e-304
-6.08212e-304
7.72108e-305
-3.14986e-304
4.73655e-305
-1.95243e-304
2.8423e-305
-1.26011e-304
1.63763e-305
-7.95278e-305
9.07324e-306
-4.81722e-305
4.9303e-306
-2.80453e-305
2.77449e-306
-1.60034e-305
1.82091e-306
-9.44956e-306
1.62142e-306
-6.50076e-306
1.98818e-306
-6.05996e-306
2.90543e-306
-7.76734e-306
4.40719e-306
-1.18445e-305
6.36886e-306
-1.87145e-305
8.22567e-306
-2.81265e-305
8.90485e-306
-3.77485e-305
7.51669e-306
-4.24834e-305
4.58666e-306
-3.7358e-305