/*--------------------------------*- C++ -*----------------------------------*\
  =========                 |
  \\      /  F ield         | OpenFOAM: The Open Source CFD Toolbox
   \\    /   O peration     | Website:  https://openfoam.org
    \\  /    A nd           | Version:  9
     \\/     M anipulation  |
\*---------------------------------------------------------------------------*/
FoamFile
{
    format      ascii;
    class       volScalarField;
    location    "0.1";
    object      p;
}
// * * * * * * * * * * * * * * * * * * * * * * * * * * * * * * * * * * * * * //

dimensions      [1 -1 -2 0 0 0 0];

internalField   nonuniform List<scalar> 
5000
(
1.84429
1.84414
1.84403
1.84393
1.84383
1.84374
1.84365
1.84356
1.84347
1.84339
1.84333
1.84329
1.84327
1.84329
1.84336
1.84349
1.84368
1.84395
1.84428
1.84464
1.84495
1.84513
1.84514
1.84507
1.84503
1.84505
1.84511
1.84525
1.84549
1.84577
1.84601
1.84614
1.84621
1.84631
1.84645
1.8466
1.84674
1.84684
1.84689
1.84688
1.84679
1.84663
1.84639
1.84606
1.84562
1.84506
1.84433
1.84338
1.84219
1.8408
1.84233
1.8422
1.84211
1.84205
1.84201
1.84199
1.84198
1.842
1.84202
1.84207
1.84213
1.84222
1.84234
1.84249
1.84268
1.84291
1.84319
1.84351
1.84385
1.84418
1.84444
1.84457
1.84457
1.84452
1.84456
1.84475
1.84506
1.84545
1.84586
1.84625
1.84658
1.8468
1.84699
1.84723
1.84754
1.84786
1.84816
1.84842
1.84861
1.84874
1.8488
1.84878
1.84868
1.84849
1.8482
1.8478
1.84726
1.84655
1.84568
1.84467
1.84047
1.84045
1.84043
1.84043
1.84044
1.84047
1.84051
1.84056
1.84063
1.84072
1.84083
1.84097
1.84112
1.84131
1.84153
1.84178
1.84206
1.84237
1.8427
1.84303
1.84333
1.84356
1.84373
1.84388
1.84407
1.84435
1.8447
1.84511
1.84556
1.84601
1.84646
1.84685
1.84721
1.84759
1.848
1.84841
1.84881
1.84916
1.84947
1.84971
1.84988
1.84998
1.84999
1.84992
1.84975
1.84947
1.84907
1.84854
1.84788
1.84713
1.83854
1.83859
1.83865
1.83871
1.83878
1.83886
1.83895
1.83905
1.83917
1.8393
1.83946
1.83963
1.83983
1.84005
1.8403
1.84057
1.84088
1.84121
1.84156
1.84192
1.84227
1.84261
1.84291
1.8432
1.84351
1.84386
1.84426
1.84472
1.84523
1.84575
1.84631
1.84686
1.84737
1.84788
1.8484
1.84892
1.84941
1.84987
1.85029
1.85064
1.85092
1.85113
1.85126
1.85131
1.85127
1.85112
1.85086
1.85049
1.85001
1.84947
1.83661
1.83671
1.83682
1.83694
1.83707
1.8372
1.83735
1.83751
1.83768
1.83787
1.83807
1.83829
1.83854
1.83881
1.8391
1.83942
1.83976
1.84013
1.84052
1.84092
1.84132
1.84173
1.84212
1.84252
1.84294
1.84339
1.84388
1.84442
1.845
1.84561
1.84628
1.84696
1.84762
1.84826
1.84891
1.84954
1.85015
1.85073
1.85125
1.85172
1.85213
1.85246
1.85272
1.85289
1.85298
1.85297
1.85286
1.85265
1.85235
1.852
1.83467
1.83482
1.83498
1.83515
1.83533
1.83552
1.83572
1.83593
1.83616
1.8364
1.83666
1.83694
1.83723
1.83755
1.8379
1.83826
1.83866
1.83907
1.8395
1.83995
1.84042
1.84089
1.84136
1.84186
1.84238
1.84293
1.84352
1.84415
1.84482
1.84552
1.8463
1.84712
1.84791
1.8487
1.84947
1.85023
1.85096
1.85166
1.85231
1.8529
1.85343
1.85389
1.85428
1.85458
1.8548
1.85493
1.85497
1.85493
1.85481
1.85464
1.83273
1.83292
1.83313
1.83334
1.83357
1.83381
1.83405
1.83432
1.8346
1.83489
1.8352
1.83553
1.83588
1.83626
1.83665
1.83707
1.83752
1.83799
1.83848
1.83898
1.83951
1.84005
1.84061
1.84119
1.8418
1.84245
1.84314
1.84387
1.84463
1.84543
1.84632
1.84727
1.8482
1.84912
1.85003
1.85091
1.85177
1.85259
1.85336
1.85408
1.85474
1.85533
1.85585
1.85629
1.85665
1.85692
1.85711
1.85721
1.85725
1.85725
1.83078
1.83101
1.83126
1.83152
1.83179
1.83207
1.83237
1.83268
1.83301
1.83335
1.83372
1.8341
1.83451
1.83493
1.83538
1.83586
1.83636
1.83689
1.83744
1.83801
1.83861
1.83922
1.83986
1.84052
1.84122
1.84195
1.84274
1.84356
1.84443
1.84533
1.84634
1.84742
1.84849
1.84954
1.85057
1.85159
1.85257
1.85352
1.85442
1.85527
1.85606
1.85678
1.85743
1.85801
1.8585
1.85891
1.85925
1.8595
1.85969
1.85983
1.82884
1.82911
1.82939
1.82969
1.83001
1.83033
1.83067
1.83103
1.83141
1.8318
1.83222
1.83265
1.83311
1.83359
1.8341
1.83463
1.83519
1.83578
1.83639
1.83703
1.8377
1.83839
1.83911
1.83985
1.84063
1.84146
1.84233
1.84325
1.84422
1.84522
1.84636
1.84757
1.84877
1.84996
1.85112
1.85227
1.85339
1.85447
1.8555
1.85648
1.85741
1.85826
1.85905
1.85976
1.86039
1.86094
1.86141
1.86181
1.86214
1.86242
1.82689
1.8272
1.82752
1.82786
1.82821
1.82858
1.82897
1.82937
1.8298
1.83024
1.83071
1.83119
1.83171
1.83224
1.83281
1.8334
1.83402
1.83467
1.83535
1.83606
1.83679
1.83756
1.83835
1.83918
1.84004
1.84096
1.84193
1.84294
1.84401
1.84513
1.84638
1.84773
1.84907
1.85039
1.85169
1.85297
1.85422
1.85544
1.85661
1.85772
1.85878
1.85977
1.86069
1.86154
1.86231
1.863
1.86361
1.86415
1.86462
1.86502
1.82495
1.82528
1.82565
1.82602
1.82642
1.82683
1.82726
1.82771
1.82818
1.82867
1.82919
1.82973
1.83029
1.83089
1.83151
1.83216
1.83284
1.83356
1.8343
1.83508
1.83589
1.83672
1.83759
1.8385
1.83945
1.84046
1.84152
1.84264
1.84381
1.84504
1.84641
1.8479
1.84937
1.85083
1.85227
1.85368
1.85507
1.85643
1.85773
1.85899
1.86018
1.86131
1.86237
1.86336
1.86427
1.8651
1.86585
1.86652
1.86712
1.86765
1.823
1.82337
1.82377
1.82419
1.82462
1.82507
1.82554
1.82604
1.82655
1.82709
1.82766
1.82825
1.82887
1.82952
1.8302
1.83091
1.83166
1.83243
1.83325
1.83409
1.83497
1.83589
1.83683
1.83782
1.83886
1.83996
1.84111
1.84233
1.84361
1.84495
1.84645
1.84807
1.84968
1.85127
1.85285
1.85441
1.85594
1.85743
1.85888
1.86027
1.86161
1.86288
1.86408
1.86521
1.86626
1.86723
1.86812
1.86892
1.86965
1.87031
1.82105
1.82146
1.82189
1.82234
1.82282
1.82331
1.82382
1.82436
1.82492
1.82551
1.82612
1.82677
1.82744
1.82814
1.82888
1.82965
1.83046
1.83131
1.83219
1.8331
1.83406
1.83504
1.83607
1.83714
1.83827
1.83945
1.8407
1.84203
1.84341
1.84486
1.84648
1.84825
1.85
1.85173
1.85345
1.85515
1.85682
1.85845
1.86004
1.86158
1.86305
1.86447
1.86581
1.86708
1.86827
1.86939
1.87041
1.87135
1.87221
1.87299
1.81911
1.81954
1.82001
1.8205
1.82101
1.82154
1.8221
1.82268
1.82328
1.82392
1.82458
1.82528
1.826
1.82676
1.82756
1.82839
1.82926
1.83017
1.83112
1.83211
1.83313
1.8342
1.8353
1.83646
1.83767
1.83894
1.84029
1.84172
1.84321
1.84477
1.84652
1.84843
1.85032
1.85219
1.85405
1.8559
1.85771
1.85949
1.86122
1.8629
1.86453
1.86608
1.86757
1.86899
1.87032
1.87158
1.87274
1.87382
1.8748
1.8757
1.81716
1.81763
1.81813
1.81866
1.8192
1.81977
1.82037
1.82099
1.82164
1.82232
1.82304
1.82378
1.82456
1.82538
1.82623
1.82713
1.82806
1.82903
1.83005
1.83111
1.83221
1.83335
1.83453
1.83577
1.83707
1.83843
1.83988
1.84141
1.84301
1.84468
1.84656
1.84861
1.85064
1.85266
1.85467
1.85665
1.85862
1.86054
1.86242
1.86425
1.86602
1.86773
1.86936
1.87092
1.87241
1.8738
1.87511
1.87632
1.87743
1.87844
1.81521
1.81571
1.81625
1.81681
1.81739
1.818
1.81864
1.8193
1.82
1.82073
1.82149
1.82228
1.82312
1.82399
1.8249
1.82585
1.82685
1.82789
1.82898
1.8301
1.83128
1.83249
1.83376
1.83508
1.83646
1.83792
1.83947
1.8411
1.84281
1.84459
1.84661
1.8488
1.85097
1.85313
1.85529
1.85742
1.85953
1.86161
1.86364
1.86562
1.86754
1.86939
1.87118
1.87289
1.87452
1.87606
1.8775
1.87885
1.88009
1.88122
1.81326
1.8138
1.81437
1.81496
1.81558
1.81623
1.81691
1.81761
1.81835
1.81913
1.81993
1.82078
1.82167
1.82259
1.82356
1.82458
1.82564
1.82674
1.82789
1.8291
1.83034
1.83164
1.83298
1.83438
1.83585
1.8374
1.83905
1.84078
1.8426
1.8445
1.84665
1.84899
1.8513
1.85361
1.85591
1.8582
1.86046
1.86269
1.86487
1.867
1.86908
1.87109
1.87303
1.87489
1.87666
1.87835
1.87994
1.88142
1.8828
1.88405
1.81132
1.81188
1.81248
1.81311
1.81377
1.81446
1.81517
1.81592
1.8167
1.81752
1.81838
1.81927
1.82021
1.82119
1.82222
1.82329
1.82442
1.82559
1.82681
1.82808
1.8294
1.83077
1.83219
1.83368
1.83524
1.83688
1.83863
1.84046
1.8424
1.84441
1.84669
1.84917
1.85164
1.8541
1.85655
1.85898
1.8614
1.86378
1.86612
1.86841
1.87064
1.8728
1.8749
1.87691
1.87884
1.88068
1.88241
1.88404
1.88554
1.88692
1.80937
1.80996
1.8106
1.81126
1.81196
1.81268
1.81343
1.81422
1.81505
1.81591
1.81682
1.81776
1.81875
1.81979
1.82087
1.82201
1.82319
1.82443
1.82572
1.82706
1.82845
1.8299
1.8314
1.83297
1.83462
1.83636
1.8382
1.84014
1.84219
1.84432
1.84674
1.84936
1.85198
1.85458
1.85718
1.85978
1.86235
1.86488
1.86738
1.86983
1.87222
1.87454
1.8768
1.87897
1.88106
1.88304
1.88492
1.88669
1.88833
1.88984
1.80742
1.80805
1.80872
1.80941
1.81014
1.8109
1.8117
1.81253
1.81339
1.8143
1.81525
1.81625
1.81729
1.81838
1.81952
1.82071
1.82196
1.82326
1.82462
1.82603
1.8275
1.82903
1.83061
1.83226
1.83399
1.83583
1.83777
1.83982
1.84198
1.84423
1.84678
1.84955
1.85231
1.85507
1.85783
1.86057
1.8633
1.866
1.86866
1.87127
1.87382
1.87631
1.87872
1.88106
1.8833
1.88544
1.88748
1.88939
1.89117
1.89281
1.80547
1.80613
1.80683
1.80756
1.80833
1.80912
1.80995
1.81083
1.81174
1.81269
1.81369
1.81473
1.81582
1.81697
1.81817
1.81942
1.82073
1.82209
1.82352
1.825
1.82654
1.82814
1.8298
1.83154
1.83336
1.83529
1.83733
1.83949
1.84176
1.84413
1.84681
1.84974
1.85265
1.85556
1.85847
1.86138
1.86427
1.86713
1.86995
1.87272
1.87544
1.8781
1.88068
1.88317
1.88558
1.88788
1.89007
1.89213
1.89406
1.89583
1.80352
1.80421
1.80494
1.80571
1.80651
1.80734
1.80821
1.80912
1.81008
1.81107
1.81212
1.81321
1.81435
1.81555
1.81681
1.81812
1.81949
1.82092
1.82241
1.82396
1.82558
1.82725
1.82899
1.83081
1.83272
1.83475
1.83689
1.83915
1.84154
1.84403
1.84685
1.84992
1.85298
1.85605
1.85912
1.86219
1.86524
1.86826
1.87125
1.8742
1.87708
1.87991
1.88266
1.88532
1.88789
1.89036
1.8927
1.89492
1.897
1.89891
1.80158
1.80229
1.80306
1.80386
1.80469
1.80556
1.80647
1.80742
1.80841
1.80945
1.81054
1.81168
1.81288
1.81413
1.81544
1.81681
1.81824
1.81974
1.82129
1.82292
1.8246
1.82635
1.82818
1.83008
1.83208
1.8342
1.83644
1.83881
1.84131
1.84392
1.84687
1.8501
1.85332
1.85654
1.85977
1.863
1.86621
1.86941
1.87257
1.87568
1.87874
1.88174
1.88466
1.8875
1.89024
1.89287
1.89538
1.89776
1.89999
1.90205
1.79963
1.80037
1.80117
1.802
1.80287
1.80377
1.80472
1.80571
1.80675
1.80783
1.80897
1.81015
1.8114
1.8127
1.81407
1.81549
1.81699
1.81855
1.82017
1.82186
1.82362
1.82545
1.82735
1.82934
1.83142
1.83364
1.83598
1.83846
1.84107
1.8438
1.84689
1.85027
1.85364
1.85702
1.86041
1.86381
1.8672
1.87056
1.87389
1.87718
1.88042
1.88359
1.88669
1.8897
1.89261
1.89542
1.8981
1.90064
1.90303
1.90524
1.79768
1.79845
1.79928
1.80014
1.80105
1.80199
1.80297
1.804
1.80508
1.8062
1.80738
1.80862
1.80991
1.81127
1.81269
1.81417
1.81573
1.81735
1.81904
1.8208
1.82263
1.82453
1.82651
1.82858
1.83076
1.83307
1.83551
1.8381
1.84082
1.84367
1.8469
1.85044
1.85396
1.8575
1.86106
1.86462
1.86818
1.87172
1.87523
1.87869
1.88211
1.88546
1.88873
1.89193
1.89502
1.898
1.90086
1.90357
1.90613
1.9085
1.79573
1.79653
1.79739
1.79829
1.79922
1.8002
1.80122
1.80229
1.8034
1.80457
1.8058
1.80708
1.80842
1.80983
1.8113
1.81285
1.81446
1.81614
1.8179
1.81973
1.82163
1.82361
1.82567
1.82782
1.83009
1.83249
1.83503
1.83772
1.84056
1.84354
1.8469
1.85059
1.85428
1.85798
1.8617
1.86543
1.86916
1.87288
1.87656
1.88021
1.88381
1.88734
1.89081
1.89418
1.89746
1.90063
1.90366
1.90655
1.90928
1.91181
1.79378
1.79461
1.7955
1.79643
1.7974
1.79841
1.79946
1.80057
1.80173
1.80294
1.80421
1.80554
1.80693
1.80839
1.80991
1.81151
1.81318
1.81493
1.81675
1.81865
1.82062
1.82268
1.82481
1.82705
1.8294
1.83189
1.83454
1.83734
1.84029
1.84339
1.84689
1.85074
1.85458
1.85845
1.86234
1.86624
1.87015
1.87404
1.87791
1.88174
1.88552
1.88924
1.8929
1.89646
1.89993
1.90328
1.90651
1.90958
1.91248
1.91518
1.79183
1.79269
1.79361
1.79457
1.79557
1.79662
1.79771
1.79885
1.80005
1.8013
1.80261
1.80399
1.80543
1.80694
1.80851
1.81017
1.8119
1.81371
1.81559
1.81756
1.8196
1.82173
1.82394
1.82626
1.8287
1.83129
1.83403
1.83694
1.84
1.84322
1.84687
1.85087
1.85487
1.8589
1.86296
1.86704
1.87112
1.8752
1.87925
1.88327
1.88724
1.89116
1.895
1.89877
1.90243
1.90597
1.90939
1.91265
1.91573
1.91861
1.78988
1.79077
1.79172
1.79271
1.79374
1.79482
1.79595
1.79713
1.79836
1.79966
1.80101
1.80243
1.80392
1.80548
1.80711
1.80882
1.8106
1.81247
1.81442
1.81646
1.81857
1.82077
1.82306
1.82546
1.82799
1.83067
1.83351
1.83652
1.8397
1.84304
1.84683
1.85099
1.85515
1.85935
1.86358
1.86783
1.87209
1.87635
1.88059
1.8848
1.88897
1.89308
1.89713
1.90109
1.90495
1.90869
1.9123
1.91576
1.91903
1.9221
1.78793
1.78885
1.78983
1.79085
1.79191
1.79302
1.79419
1.7954
1.79668
1.79801
1.79941
1.80087
1.8024
1.80401
1.80569
1.80746
1.8093
1.81123
1.81324
1.81534
1.81753
1.8198
1.82217
1.82464
1.82726
1.83003
1.83297
1.83609
1.83938
1.84284
1.84677
1.85109
1.85542
1.85978
1.86418
1.86861
1.87306
1.8775
1.88193
1.88634
1.8907
1.89501
1.89926
1.90342
1.90749
1.91144
1.91525
1.91891
1.92238
1.92563
1.78598
1.78693
1.78793
1.78898
1.79008
1.79122
1.79242
1.79367
1.79498
1.79636
1.7978
1.7993
1.80088
1.80254
1.80427
1.80609
1.80799
1.80998
1.81205
1.81422
1.81647
1.81881
1.82125
1.82381
1.82651
1.82937
1.83241
1.83564
1.83905
1.84263
1.8467
1.85117
1.85566
1.86019
1.86476
1.86937
1.874
1.87864
1.88326
1.88787
1.89243
1.89695
1.9014
1.90577
1.91005
1.91421
1.91823
1.92209
1.92577
1.92922
1.78403
1.785
1.78604
1.78712
1.78824
1.78942
1.79065
1.79194
1.79329
1.7947
1.79618
1.79773
1.79935
1.80105
1.80284
1.80471
1.80666
1.80871
1.81085
1.81307
1.81539
1.81781
1.82032
1.82296
1.82574
1.82869
1.83183
1.83517
1.83869
1.84239
1.8466
1.85123
1.85588
1.86058
1.86533
1.87012
1.87494
1.87976
1.88458
1.88939
1.89416
1.89888
1.90354
1.90813
1.91262
1.917
1.92123
1.92531
1.92919
1.93284
1.78208
1.78308
1.78414
1.78525
1.78641
1.78761
1.78888
1.7902
1.79158
1.79303
1.79455
1.79614
1.79781
1.79956
1.80139
1.80331
1.80533
1.80743
1.80963
1.81192
1.8143
1.81679
1.81937
1.82209
1.82495
1.828
1.83123
1.83467
1.8383
1.84212
1.84647
1.85126
1.85607
1.86094
1.86587
1.87084
1.87585
1.88087
1.88589
1.89089
1.89587
1.90081
1.90569
1.91049
1.9152
1.9198
1.92425
1.92855
1.93265
1.93651
1.78013
1.78115
1.78224
1.78338
1.78456
1.7858
1.7871
1.78845
1.78987
1.79136
1.79292
1.79455
1.79626
1.79806
1.79994
1.80191
1.80398
1.80613
1.80839
1.81074
1.81319
1.81574
1.81841
1.8212
1.82414
1.82727
1.83061
1.83415
1.83789
1.84183
1.84632
1.85126
1.85624
1.86128
1.86638
1.87154
1.87673
1.88195
1.88717
1.89238
1.89757
1.90272
1.90782
1.91284
1.91778
1.9226
1.92728
1.9318
1.93613
1.9402
1.77818
1.77923
1.78034
1.78151
1.78272
1.78399
1.78532
1.7867
1.78816
1.78968
1.79128
1.79295
1.7947
1.79654
1.79847
1.80049
1.80261
1.80483
1.80714
1.80955
1.81206
1.81468
1.81741
1.82028
1.82331
1.82653
1.82995
1.8336
1.83745
1.84151
1.84614
1.85124
1.85638
1.86158
1.86686
1.8722
1.87759
1.883
1.88843
1.89385
1.89925
1.90462
1.90993
1.91519
1.92035
1.9254
1.93032
1.93507
1.93962
1.94392
1.77623
1.7773
1.77844
1.77963
1.78087
1.78217
1.78353
1.78495
1.78644
1.78799
1.78963
1.79134
1.79314
1.79502
1.79699
1.79906
1.80123
1.8035
1.80587
1.80834
1.81092
1.8136
1.8164
1.81934
1.82245
1.82575
1.82927
1.83302
1.83698
1.84116
1.84592
1.85117
1.85648
1.86185
1.86731
1.87283
1.87841
1.88402
1.88965
1.89528
1.9009
1.90648
1.91203
1.91751
1.92291
1.92819
1.93334
1.93833
1.94312
1.94766
1.77428
1.77537
1.77654
1.77775
1.77902
1.78035
1.78173
1.78319
1.78471
1.7863
1.78797
1.78972
1.79156
1.79348
1.7955
1.79762
1.79983
1.80215
1.80458
1.80711
1.80974
1.81249
1.81536
1.81837
1.82156
1.82495
1.82856
1.8324
1.83647
1.84077
1.84566
1.85107
1.85654
1.86208
1.86771
1.87342
1.87919
1.885
1.89083
1.89667
1.90251
1.90832
1.91409
1.9198
1.92544
1.93096
1.93635
1.94159
1.94662
1.95139
1.77233
1.77344
1.77463
1.77587
1.77717
1.77852
1.77993
1.78142
1.78297
1.7846
1.7863
1.78809
1.78996
1.79193
1.79399
1.79616
1.79842
1.80079
1.80327
1.80585
1.80855
1.81135
1.81429
1.81737
1.82064
1.82411
1.82781
1.83175
1.83593
1.84034
1.84537
1.85093
1.85655
1.86226
1.86807
1.87396
1.87992
1.88593
1.89197
1.89802
1.90407
1.91011
1.91611
1.92206
1.92793
1.9337
1.93934
1.94482
1.95011
1.95513
1.77038
1.77151
1.77272
1.77399
1.77531
1.77669
1.77813
1.77964
1.78122
1.78288
1.78462
1.78645
1.78836
1.79037
1.79247
1.79468
1.79699
1.79941
1.80193
1.80457
1.80732
1.81019
1.81319
1.81634
1.81968
1.82323
1.82702
1.83106
1.83534
1.83986
1.84503
1.85074
1.85652
1.8624
1.86838
1.87445
1.8806
1.88681
1.89305
1.89932
1.90559
1.91185
1.91808
1.92427
1.93038
1.9364
1.94229
1.94802
1.95357
1.95885
1.76842
1.76958
1.77081
1.7721
1.77344
1.77485
1.77632
1.77786
1.77947
1.78116
1.78293
1.78479
1.78674
1.78878
1.79093
1.79318
1.79553
1.798
1.80058
1.80327
1.80607
1.809
1.81206
1.81528
1.81869
1.82232
1.8262
1.83033
1.83471
1.83934
1.84464
1.8505
1.85643
1.86247
1.86862
1.87488
1.88122
1.88762
1.89407
1.90055
1.90704
1.91353
1.91999
1.92641
1.93277
1.93904
1.94519
1.95119
1.957
1.96255
1.76647
1.76764
1.7689
1.77021
1.77158
1.77301
1.7745
1.77607
1.77771
1.77943
1.78123
1.78312
1.7851
1.78719
1.78937
1.79166
1.79406
1.79657
1.79919
1.80194
1.80479
1.80778
1.8109
1.81418
1.81766
1.82137
1.82533
1.82955
1.83403
1.83877
1.84419
1.8502
1.85629
1.86249
1.86881
1.87524
1.88177
1.88836
1.89502
1.9017
1.90841
1.91513
1.92182
1.92849
1.93509
1.94161
1.94802
1.95429
1.96039
1.96622
1.76452
1.76571
1.76699
1.76832
1.7697
1.77116
1.77268
1.77427
1.77593
1.77768
1.77951
1.78144
1.78345
1.78557
1.78779
1.79012
1.79256
1.79511
1.79778
1.80057
1.80348
1.80652
1.8097
1.81304
1.81659
1.82037
1.82441
1.82872
1.8333
1.83815
1.84369
1.84983
1.85607
1.86243
1.86892
1.87553
1.88224
1.88903
1.89588
1.90278
1.9097
1.91664
1.92357
1.93048
1.93733
1.94411
1.95079
1.95734
1.96372
1.96986
1.76256
1.76377
1.76507
1.76642
1.76783
1.7693
1.77084
1.77246
1.77415
1.77593
1.77779
1.77974
1.78179
1.78394
1.78619
1.78856
1.79103
1.79363
1.79634
1.79918
1.80214
1.80522
1.80846
1.81186
1.81547
1.81933
1.82345
1.82784
1.83252
1.83746
1.84312
1.84941
1.85579
1.8623
1.86895
1.87573
1.88262
1.8896
1.89665
1.90375
1.91089
1.91805
1.92522
1.93236
1.93947
1.94652
1.95347
1.96031
1.96699
1.97344
1.76061
1.76183
1.76315
1.76452
1.76595
1.76744
1.769
1.77064
1.77236
1.77416
1.77604
1.77802
1.7801
1.78228
1.78457
1.78697
1.78948
1.79212
1.79487
1.79775
1.80075
1.80389
1.80718
1.81064
1.81431
1.81823
1.82243
1.82691
1.83167
1.83671
1.84249
1.8489
1.85542
1.86208
1.86889
1.87584
1.88291
1.89007
1.89732
1.90462
1.91197
1.91936
1.92675
1.93414
1.9415
1.94882
1.95606
1.96319
1.97018
1.97697
1.75865
1.75989
1.76123
1.76261
1.76406
1.76557
1.76716
1.76881
1.77055
1.77237
1.77429
1.77629
1.7784
1.7806
1.78292
1.78535
1.78791
1.79058
1.79337
1.79629
1.79933
1.80251
1.80585
1.80937
1.8131
1.81708
1.82135
1.82591
1.83076
1.83589
1.84178
1.84832
1.85497
1.86178
1.86874
1.87585
1.88309
1.89044
1.89787
1.90537
1.91293
1.92053
1.92816
1.93579
1.94342
1.95101
1.95854
1.96598
1.97331
1.98045
1.7567
1.75795
1.7593
1.7607
1.76217
1.7637
1.7653
1.76698
1.76873
1.77058
1.77251
1.77454
1.77667
1.77891
1.78125
1.78371
1.7863
1.789
1.79183
1.79479
1.79787
1.8011
1.80448
1.80804
1.81183
1.81588
1.82022
1.82485
1.82978
1.835
1.84098
1.84765
1.85443
1.86138
1.86849
1.87575
1.88316
1.89068
1.89829
1.90599
1.91375
1.92157
1.92942
1.93731
1.9452
1.95307
1.96091
1.96868
1.97635
1.98387
1.75474
1.75601
1.75737
1.75879
1.76027
1.76181
1.76343
1.76513
1.7669
1.76877
1.77072
1.77277
1.77492
1.77718
1.77956
1.78205
1.78466
1.78739
1.79026
1.79325
1.79637
1.79963
1.80305
1.80667
1.81051
1.81462
1.81901
1.82372
1.82872
1.83402
1.84011
1.84688
1.85379
1.86087
1.86812
1.87553
1.8831
1.89078
1.89857
1.90645
1.91442
1.92245
1.93054
1.93867
1.94683
1.955
1.96315
1.97126
1.97931
1.98724
1.75278
1.75407
1.75544
1.75687
1.75836
1.75992
1.76156
1.76327
1.76506
1.76694
1.76891
1.77098
1.77315
1.77544
1.77783
1.78035
1.78299
1.78575
1.78864
1.79166
1.79482
1.79812
1.80158
1.80524
1.80913
1.81329
1.81774
1.82251
1.82758
1.83296
1.83914
1.84602
1.85304
1.86024
1.86762
1.87518
1.88289
1.89074
1.8987
1.90676
1.91492
1.92317
1.93149
1.93987
1.94831
1.95678
1.96527
1.97375
1.98219
1.99056
1.75083
1.75212
1.7535
1.75494
1.75645
1.75802
1.75967
1.76139
1.7632
1.7651
1.76708
1.76917
1.77136
1.77366
1.77608
1.77862
1.78128
1.78407
1.78698
1.79003
1.79322
1.79655
1.80005
1.80375
1.80768
1.81189
1.8164
1.82122
1.82636
1.83181
1.83807
1.84505
1.85218
1.85949
1.867
1.87469
1.88254
1.89054
1.89866
1.9069
1.91525
1.92371
1.93226
1.94091
1.94963
1.95842
1.96726
1.97612
1.98498
1.99382
1.74887
1.75017
1.75156
1.75301
1.75453
1.75611
1.75777
1.75951
1.76133
1.76323
1.76524
1.76734
1.76955
1.77187
1.7743
1.77686
1.77954
1.78235
1.78529
1.78836
1.79157
1.79493
1.79846
1.80219
1.80617
1.81042
1.81498
1.81985
1.82505
1.83056
1.83689
1.84396
1.85119
1.85861
1.86623
1.87404
1.88202
1.89016
1.89844
1.90685
1.91539
1.92406
1.93285
1.94176
1.95078
1.9599
1.96911
1.97838
1.9877
1.99704
1.74691
1.74822
1.74962
1.75108
1.7526
1.75419
1.75586
1.75761
1.75944
1.76136
1.76337
1.76548
1.7677
1.77004
1.77249
1.77506
1.77776
1.78058
1.78354
1.78663
1.78987
1.79326
1.79681
1.80058
1.80458
1.80887
1.81347
1.81839
1.82364
1.82921
1.83561
1.84276
1.85007
1.85758
1.86531
1.87323
1.88134
1.88961
1.89803
1.90661
1.91533
1.92421
1.93324
1.94242
1.95175
1.96122
1.97082
1.98053
1.99033
2.00022
1.74495
1.74626
1.74767
1.74913
1.75066
1.75226
1.75394
1.75569
1.75753
1.75946
1.76148
1.76361
1.76584
1.76818
1.77064
1.77322
1.77593
1.77878
1.78175
1.78486
1.78811
1.79152
1.7951
1.79889
1.80293
1.80725
1.81188
1.81684
1.82213
1.82774
1.8342
1.84142
1.84881
1.8564
1.86422
1.87224
1.88046
1.88885
1.89742
1.90616
1.91506
1.92415
1.93342
1.94288
1.95253
1.96237
1.97239
1.98257
1.99289
2.00335
1.74299
1.7443
1.74572
1.74719
1.74872
1.75032
1.752
1.75376
1.75561
1.75754
1.75957
1.7617
1.76394
1.76629
1.76876
1.77135
1.77407
1.77692
1.77991
1.78303
1.7863
1.78972
1.79332
1.79713
1.80119
1.80554
1.8102
1.81519
1.82051
1.82617
1.83267
1.83995
1.8474
1.85506
1.86296
1.87107
1.87939
1.8879
1.89659
1.90548
1.91457
1.92387
1.93339
1.94314
1.95313
1.96336
1.97382
1.9845
1.99537
2.00644
1.74103
1.74234
1.74376
1.74523
1.74677
1.74837
1.75006
1.75182
1.75367
1.7556
1.75764
1.75977
1.76201
1.76437
1.76684
1.76944
1.77217
1.77503
1.77802
1.78115
1.78443
1.78786
1.79147
1.79529
1.79937
1.80374
1.80842
1.81344
1.81879
1.82447
1.83101
1.83833
1.84583
1.85355
1.86151
1.8697
1.87811
1.88672
1.89554
1.90458
1.91385
1.92336
1.93314
1.94319
1.95354
1.96418
1.97511
1.98631
1.99777
2.00948
1.73906
1.74038
1.7418
1.74327
1.7448
1.74641
1.74809
1.74986
1.75171
1.75364
1.75568
1.75781
1.76006
1.76241
1.76489
1.76749
1.77022
1.77308
1.77607
1.77921
1.78249
1.78593
1.78955
1.79338
1.79747
1.80184
1.80654
1.81158
1.81694
1.82264
1.8292
1.83655
1.84409
1.85186
1.85988
1.86813
1.87661
1.88532
1.89426
1.90344
1.91288
1.92261
1.93266
1.94303
1.95374
1.96481
1.97624
1.98799
2.00007
2.01245
1.7371
1.73842
1.73983
1.7413
1.74283
1.74444
1.74612
1.74788
1.74973
1.75166
1.75369
1.75583
1.75807
1.76042
1.7629
1.7655
1.76822
1.77108
1.77407
1.77721
1.78049
1.78393
1.78755
1.79138
1.79547
1.79986
1.80456
1.8096
1.81498
1.82068
1.82726
1.83462
1.84219
1.84998
1.85804
1.86634
1.87489
1.88368
1.89273
1.90205
1.91168
1.92163
1.93194
1.94264
1.95375
1.96527
1.9772
1.98954
2.00225
2.01533
1.73514
1.73645
1.73786
1.73932
1.74085
1.74245
1.74413
1.74589
1.74773
1.74966
1.75169
1.75381
1.75605
1.7584
1.76087
1.76346
1.76618
1.76903
1.77202
1.77515
1.77842
1.78185
1.78547
1.7893
1.79339
1.79777
1.80247
1.80751
1.81288
1.81858
1.82515
1.83252
1.84009
1.84791
1.85599
1.86433
1.87293
1.8818
1.89095
1.90041
1.91021
1.92039
1.93099
1.94203
1.95354
1.96552
1.97799
1.99093
2.0043
2.0181
1.73317
1.73448
1.73588
1.73734
1.73886
1.74046
1.74213
1.74387
1.74571
1.74763
1.74965
1.75177
1.75399
1.75633
1.75879
1.76137
1.76408
1.76693
1.7699
1.77302
1.77628
1.77971
1.78331
1.78713
1.79121
1.79558
1.80027
1.80529
1.81065
1.81634
1.8229
1.83025
1.83782
1.84563
1.85372
1.86209
1.87073
1.87967
1.88891
1.89851
1.90849
1.9189
1.92979
1.94118
1.9531
1.96557
1.97859
1.99213
2.00618
2.02071
1.7312
1.7325
1.7339
1.73535
1.73686
1.73845
1.74011
1.74185
1.74367
1.74558
1.74759
1.74969
1.75191
1.75423
1.75668
1.75924
1.76194
1.76477
1.76773
1.77083
1.77407
1.77748
1.78106
1.78487
1.78893
1.79328
1.79795
1.80295
1.80828
1.81395
1.82047
1.8278
1.83534
1.84314
1.85123
1.85961
1.86828
1.87727
1.88661
1.89634
1.9065
1.91715
1.92833
1.94008
1.95242
1.96538
1.97895
1.99312
2.00785
2.02312
1.72924
1.73053
1.73191
1.73335
1.73485
1.73643
1.73807
1.7398
1.74161
1.7435
1.74549
1.74758
1.74978
1.75209
1.75452
1.75707
1.75974
1.76255
1.76549
1.76857
1.77179
1.77517
1.77873
1.78251
1.78654
1.79087
1.79551
1.80048
1.80577
1.81139
1.81788
1.82516
1.83267
1.84044
1.8485
1.85688
1.86557
1.87462
1.88404
1.8939
1.90425
1.91513
1.92661
1.93871
1.95149
1.96494
1.97906
1.99385
2.00927
2.02528
1.72727
1.72855
1.72992
1.73134
1.73283
1.73439
1.73602
1.73773
1.73952
1.7414
1.74337
1.74544
1.74762
1.74991
1.75231
1.75484
1.75749
1.76028
1.76319
1.76624
1.76943
1.77278
1.77631
1.78006
1.78406
1.78834
1.79295
1.79787
1.80311
1.80868
1.81511
1.82233
1.82978
1.83751
1.84554
1.8539
1.86261
1.87169
1.8812
1.89118
1.90171
1.91283
1.9246
1.93707
1.95026
1.9642
1.97888
1.99427
2.01037
2.02712
1.7253
1.72656
1.72792
1.72933
1.7308
1.73234
1.73396
1.73564
1.73742
1.73927
1.74122
1.74327
1.74542
1.74769
1.75007
1.75257
1.75519
1.75794
1.76082
1.76384
1.76699
1.77031
1.7738
1.77751
1.78146
1.7857
1.79025
1.79512
1.80031
1.80581
1.81216
1.81931
1.82669
1.83436
1.84234
1.85067
1.85938
1.86849
1.87807
1.88818
1.89888
1.91024
1.9223
1.93512
1.94873
1.96314
1.97834
1.99434
2.0111
2.02859
1.72333
1.72458
1.72592
1.72731
1.72876
1.73028
1.73187
1.73354
1.73529
1.73712
1.73904
1.74107
1.74319
1.74542
1.74777
1.75024
1.75283
1.75554
1.75839
1.76136
1.76448
1.76775
1.7712
1.77485
1.77876
1.78294
1.78743
1.79223
1.79734
1.80277
1.80903
1.81609
1.82338
1.83097
1.83889
1.84718
1.85588
1.86502
1.87467
1.88489
1.89576
1.90734
1.91968
1.93284
1.94684
1.9617
1.97742
1.99399
2.0114
2.02963
1.72136
1.72259
1.72391
1.72528
1.72671
1.72821
1.72977
1.73141
1.73313
1.73494
1.73683
1.73882
1.74092
1.74312
1.74543
1.74786
1.75041
1.75308
1.75588
1.75881
1.76188
1.7651
1.7685
1.7721
1.77594
1.78006
1.78448
1.7892
1.79422
1.79956
1.80572
1.81267
1.81986
1.82735
1.8352
1.84344
1.85211
1.86127
1.87097
1.8813
1.89233
1.90412
1.91673
1.9302
1.94457
1.95985
1.97605
1.99316
2.0112
2.03015
1.71939
1.72059
1.72189
1.72324
1.72464
1.72611
1.72765
1.72927
1.73096
1.73273
1.73459
1.73655
1.73861
1.74077
1.74304
1.74543
1.74793
1.75056
1.75331
1.75619
1.7592
1.76237
1.7657
1.76924
1.77301
1.77706
1.78139
1.78602
1.79094
1.79618
1.80222
1.80904
1.81611
1.8235
1.83126
1.83943
1.84807
1.85723
1.86699
1.87741
1.88858
1.90056
1.9134
1.92716
1.94186
1.95753
1.97417
1.9918
2.01044
2.03012
1.71741
1.7186
1.71987
1.72119
1.72257
1.72401
1.72552
1.7271
1.72876
1.7305
1.73232
1.73424
1.73626
1.73838
1.74061
1.74294
1.7454
1.74797
1.75067
1.75349
1.75644
1.75954
1.76281
1.76627
1.76997
1.77392
1.77816
1.78269
1.78751
1.79262
1.79853
1.8052
1.81214
1.81941
1.82707
1.83516
1.84376
1.85291
1.8627
1.8732
1.88449
1.89663
1.90968
1.92369
1.93868
1.95469
1.97174
1.98985
2.00907
2.02946
1.71544
1.71659
1.71784
1.71913
1.72048
1.72189
1.72337
1.72491
1.72653
1.72823
1.73002
1.7319
1.73387
1.73594
1.73812
1.74041
1.74281
1.74532
1.74796
1.75071
1.7536
1.75663
1.75982
1.7632
1.76681
1.77067
1.7748
1.77921
1.7839
1.78889
1.79465
1.80116
1.80795
1.81509
1.82263
1.83063
1.83917
1.8483
1.8581
1.86866
1.88004
1.89232
1.90554
1.91975
1.93498
1.95128
1.96869
1.98725
2.00703
2.02812
1.71346
1.71459
1.7158
1.71706
1.71838
1.71975
1.72119
1.7227
1.72429
1.72594
1.72769
1.72952
1.73144
1.73346
1.73559
1.73782
1.74016
1.74261
1.74518
1.74786
1.75067
1.75362
1.75673
1.76002
1.76353
1.76728
1.7713
1.77559
1.78014
1.78498
1.79058
1.79692
1.80355
1.81053
1.81794
1.82584
1.8343
1.84339
1.85319
1.86378
1.87522
1.88759
1.90093
1.91529
1.93071
1.94725
1.96497
1.98394
2.00426
2.02604
1.71148
1.71258
1.71376
1.71499
1.71627
1.71761
1.71901
1.72047
1.72201
1.72363
1.72532
1.7271
1.72897
1.73094
1.733
1.73517
1.73745
1.73983
1.74232
1.74493
1.74766
1.75053
1.75354
1.75673
1.76014
1.76377
1.76766
1.77181
1.77622
1.7809
1.78632
1.79247
1.79892
1.80574
1.81301
1.82079
1.82916
1.83818
1.84795
1.85854
1.87001
1.88242
1.89583
1.91028
1.92583
1.94256
1.96055
1.97989
2.00071
2.02316
1.7095
1.71057
1.71171
1.7129
1.71414
1.71544
1.7168
1.71823
1.71972
1.72128
1.72293
1.72465
1.72647
1.72837
1.73037
1.73247
1.73468
1.73699
1.7394
1.74193
1.74457
1.74734
1.75026
1.75334
1.75663
1.76014
1.76389
1.76789
1.77213
1.77664
1.78187
1.78782
1.79408
1.80072
1.80783
1.81547
1.82373
1.83267
1.84238
1.85293
1.86438
1.87678
1.8902
1.90468
1.92031
1.93717
1.95537
1.97505
1.99634
2.01943
1.70752
1.70856
1.70966
1.71081
1.71201
1.71327
1.71458
1.71596
1.7174
1.71891
1.7205
1.72217
1.72392
1.72576
1.72769
1.72972
1.73185
1.73408
1.73641
1.73885
1.7414
1.74406
1.74687
1.74984
1.75301
1.75638
1.75998
1.76382
1.76789
1.77222
1.77724
1.78298
1.78903
1.79548
1.80241
1.8099
1.81802
1.82685
1.83647
1.84694
1.85831
1.87065
1.88401
1.89846
1.91409
1.93103
1.9494
1.96937
1.99109
2.01477
1.70554
1.70654
1.7076
1.70871
1.70987
1.71107
1.71234
1.71367
1.71506
1.71651
1.71804
1.71965
1.72134
1.72311
1.72497
1.72692
1.72897
1.73111
1.73335
1.73569
1.73814
1.7407
1.74339
1.74624
1.74927
1.7525
1.75594
1.75961
1.76349
1.76763
1.77244
1.77794
1.78377
1.79001
1.79675
1.80406
1.81203
1.82072
1.83021
1.84054
1.85179
1.864
1.87723
1.89159
1.90717
1.92412
1.94261
1.96281
1.98491
2.00911
1.70356
1.70452
1.70554
1.7066
1.70771
1.70887
1.71008
1.71136
1.71269
1.71409
1.71556
1.7171
1.71871
1.72041
1.7222
1.72407
1.72603
1.72808
1.73022
1.73246
1.7348
1.73725
1.73982
1.74254
1.74542
1.7485
1.75177
1.75525
1.75894
1.76287
1.76745
1.77271
1.77831
1.78432
1.79085
1.79797
1.80575
1.81427
1.82358
1.83373
1.84479
1.8568
1.86985
1.88404
1.89951
1.91642
1.93496
1.95533
1.97773
2.00236
1.70158
1.70249
1.70347
1.70448
1.70554
1.70665
1.70781
1.70903
1.7103
1.71164
1.71304
1.71451
1.71605
1.71767
1.71938
1.72116
1.72303
1.72499
1.72703
1.72916
1.73139
1.73371
1.73615
1.73873
1.74147
1.74438
1.74748
1.75076
1.75425
1.75796
1.7623
1.76731
1.77265
1.77842
1.78472
1.79162
1.79919
1.80749
1.81657
1.82649
1.8373
1.84905
1.86185
1.87581
1.8911
1.9079
1.92642
1.94688
1.96949
1.99443
1.6996
1.70046
1.70139
1.70236
1.70337
1.70442
1.70552
1.70668
1.70789
1.70916
1.71049
1.71189
1.71336
1.7149
1.71651
1.71821
1.71998