/*--------------------------------*- C++ -*----------------------------------*\
  =========                 |
  \\      /  F ield         | OpenFOAM: The Open Source CFD Toolbox
   \\    /   O peration     | Website:  https://openfoam.org
    \\  /    A nd           | Version:  9
     \\/     M anipulation  |
\*---------------------------------------------------------------------------*/
FoamFile
{
    format      ascii;
    class       volScalarField;
    location    "0.1";
    object      p_rgh;
}
// * * * * * * * * * * * * * * * * * * * * * * * * * * * * * * * * * * * * * //

dimensions      [1 -1 -2 0 0 0 0];

internalField   nonuniform List<scalar> 
5000
(
-0.000120153
-0.0002652
-0.000378142
-0.000478991
-0.000574211
-0.000667418
-0.000759711
-0.0008501
-0.000935937
-0.00101322
-0.0010767
-0.00111996
-0.0011353
-0.00111375
-0.00104517
-0.000918652
-0.000724247
-0.000456982
-0.000125667
0.000233273
0.000546126
0.000724359
0.000737575
0.000668028
0.000625719
0.0006398
0.000704431
0.000846979
0.00108532
0.00136412
0.001608
0.00173546
0.00180586
0.00190723
0.00204549
0.00219588
0.00233364
0.00243527
0.00248577
0.00247224
0.00238694
0.00222509
0.00198252
0.00165188
0.00121812
0.000654679
-7.80013e-05
-0.00102634
-0.0022181
-0.00360845
-0.00010989
-0.000243278
-0.000335645
-0.000399525
-0.000439045
-0.000458698
-0.000461451
-0.000448702
-0.00042037
-0.000375042
-0.000310119
-0.000221932
-0.00010586
4.34614e-05
0.000231698
0.000463794
0.000741982
0.00106196
0.00140666
0.00173881
0.00199957
0.00213003
0.00212521
0.00207719
0.0021165
0.00230405
0.0026159
0.00300234
0.00341769
0.00380666
0.00413463
0.00435508
0.00454237
0.00478834
0.00509342
0.00541611
0.00571842
0.00597149
0.00616755
0.00629683
0.00635299
0.00633219
0.00623031
0.00604128
0.00575425
0.00535194
0.00481121
0.00410845
0.00323537
0.0022294
-1.55551e-05
-3.60739e-05
-4.91504e-05
-5.07456e-05
-3.95002e-05
-1.46574e-05
2.47147e-05
7.95782e-05
0.000151091
0.000240755
0.000350518
0.000482814
0.000640499
0.00082664
0.00104408
0.00129474
0.00157834
0.00189061
0.00222057
0.002548
0.00284343
0.00307797
0.00324854
0.00339859
0.00359155
0.00386232
0.00421253
0.00462717
0.00507868
0.00552889
0.00597234
0.00636307
0.00672256
0.00710516
0.0075147
0.00793005
0.00832389
0.00868073
0.00898767
0.00922821
0.00939815
0.00949292
0.0095072
0.00943478
0.00926643
0.00898962
0.00859013
0.00805731
0.00739574
0.00664446
2.2406e-05
7.11304e-05
0.000126328
0.000188247
0.000257856
0.000336818
0.000426932
0.000529955
0.000647642
0.000781838
0.000934534
0.00110788
0.00130416
0.00152562
0.0017742
0.00205111
0.00235618
0.00268695
0.00303754
0.00339758
0.00375201
0.00408451
0.00438877
0.00468092
0.00499049
0.00533964
0.00574163
0.00620104
0.00670586
0.00723076
0.00778998
0.00833643
0.00884935
0.00936074
0.00987815
0.0103944
0.0108916
0.0113521
0.0117662
0.0121173
0.0124013
0.0126123
0.0127441
0.0127909
0.0127449
0.0125971
0.0123387
0.0119659
0.0114889
0.0109443
4.87891e-05
0.000151237
0.000263541
0.000382119
0.000508366
0.000643661
0.000789548
0.000947575
0.00111935
0.00130661
0.00151121
0.00173507
0.00198014
0.00224825
0.00254092
0.00285907
0.00320258
0.00356977
0.00395686
0.00435775
0.00476435
0.00516822
0.00556559
0.00596451
0.00638166
0.00683115
0.00732317
0.00786277
0.00844384
0.00905103
0.00971791
0.0104033
0.0110599
0.0117061
0.0123475
0.0129805
0.0135934
0.0141685
0.0146961
0.0151647
0.0155693
0.0159036
0.0161599
0.0163338
0.0164187
0.0164084
0.0162983
0.0160894
0.0157946
0.015446
7.09442e-05
0.000221095
0.000383308
0.00055331
0.000732048
0.000920732
0.00112063
0.00133308
0.00155949
0.00180141
0.00206047
0.00233833
0.00263662
0.00295684
0.00330021
0.00366741
0.00405838
0.00447197
0.00490572
0.00535595
0.00581841
0.00628936
0.00676804
0.00726066
0.00777877
0.00833142
0.00892386
0.0095576
0.0102281
0.0109263
0.0117026
0.0125213
0.0133173
0.0141005
0.014873
0.0156305
0.0163645
0.0170614
0.0177095
0.018302
0.0188325
0.0192936
0.0196794
0.0199851
0.0202054
0.0203363
0.0203762
0.0203293
0.0202087
0.0200417
9.07616e-05
0.000283196
0.000490341
0.000706545
0.000932839
0.00117032
0.00142009
0.00168333
0.00196136
0.00225558
0.00256745
0.00289846
0.00325004
0.0036235
0.00401991
0.00443995
0.00488383
0.00535106
0.00584036
0.00634966
0.00687662
0.00741938
0.00797807
0.00855766
0.00916731
0.00981434
0.0105024
0.0112315
0.011998
0.0127953
0.0136869
0.0146385
0.01557
0.0164875
0.017391
0.0182758
0.0191339
0.0199556
0.0207294
0.0214495
0.022108
0.0226985
0.0232157
0.0236548
0.0240117
0.0242837
0.0244708
0.0245783
0.0246185
0.0246132
0.000108839
0.000340109
0.000588674
0.000847661
0.00111815
0.0014012
0.00169787
0.0020093
0.00233671
0.00268139
0.00304471
0.00342804
0.00383273
0.00426006
0.00471112
0.00518673
0.00568741
0.00621318
0.00676355
0.00733741
0.00793329
0.0085499
0.00918741
0.00984995
0.0105457
0.0112818
0.0120622
0.0128869
0.0137525
0.0146536
0.0156643
0.016749
0.0178141
0.018864
0.0198985
0.0209129
0.0218989
0.0228481
0.023751
0.0246007
0.0253894
0.0261115
0.0267615
0.0273352
0.0278291
0.0282412
0.0285722
0.0288271
0.0290161
0.0291567
0.000126012
0.000394275
0.000682278
0.000982094
0.00129491
0.00162181
0.00196386
0.00232215
0.00269788
0.00309227
0.00350661
0.00394221
0.00440043
0.00488251
0.00538964
0.00592277
0.0064826
0.00706951
0.00768338
0.00832365
0.00898932
0.00967956
0.0103948
0.011139
0.01192
0.0127452
0.0136185
0.01454
0.0155065
0.0165133
0.0176444
0.0188628
0.0200618
0.021245
0.0224123
0.0235589
0.0246765
0.0257569
0.0267913
0.0277728
0.0286942
0.02955
0.0303348
0.0310446
0.0316762
0.0322279
0.0327004
0.0330977
0.0334281
0.0337046
0.000142497
0.000446361
0.000772368
0.00111164
0.0014655
0.00183511
0.00222152
0.00262584
0.0030492
0.00349281
0.00395794
0.00444591
0.00495805
0.00549565
0.00605993
0.00665195
0.00727253
0.0079222
0.00860109
0.00930888
0.0100449
0.0108088
0.0116013
0.0124268
0.0132934
0.0142085
0.0151762
0.0161961
0.0172654
0.0183793
0.0196322
0.0209852
0.0223191
0.0236374
0.0249398
0.0262212
0.0274736
0.0286884
0.0298572
0.0309733
0.03203
0.0330219
0.0339435
0.034791
0.0355613
0.0362525
0.0368649
0.0374014
0.037868
0.0382742
0.000158437
0.000496806
0.000859725
0.00123737
0.00163122
0.00204248
0.00247226
0.00292167
0.00339188
0.0038841
0.00439963
0.00493978
0.00550589
0.00609932
0.00672132
0.00737304
0.00805539
0.00876901
0.00951419
0.0102908
0.0110982
0.0119364
0.0128066
0.0137134
0.0146655
0.0156708
0.0167334
0.0178531
0.0190267
0.0202494
0.0216257
0.0231145
0.0245847
0.0260397
0.0274793
0.028898
0.0302876
0.0316395
0.0329456
0.0341992
0.0353938
0.0365239
0.0375844
0.0385712
0.039481
0.0403117
0.041063
0.0417362
0.0423353
0.0428666
0.000173965
0.00054606
0.000945081
0.00136027
0.00179321
0.00224522
0.00271744
0.00321106
0.00372732
0.00426751
0.00483293
0.00542492
0.00604487
0.00669415
0.00737408
0.0080859
0.00883062
0.009609
0.0104214
0.0112678
0.0121476
0.0130609
0.0140092
0.0149977
0.0160353
0.0171308
0.0182888
0.0195089
0.0207879
0.022121
0.0236223
0.0252486
0.0268563
0.0284497
0.0300282
0.0315863
0.0331155
0.034607
0.0360531
0.0374467
0.0387816
0.0400522
0.0412534
0.042381
0.0434314
0.0444019
0.0452912
0.0460995
0.0468283
0.0474814
0.00018918
0.000594429
0.00102891
0.00148095
0.00195228
0.00244428
0.0029582
0.00349534
0.00405704
0.00464464
0.00525951
0.00590304
0.00657664
0.00728173
0.00801968
0.00879182
0.00959926
0.0104429
0.011323
0.0122398
0.0131926
0.0141815
0.0152083
0.0162787
0.0174022
0.0185883
0.019842
0.0211632
0.0225487
0.0239933
0.0256212
0.0273864
0.0291333
0.0308665
0.0325858
0.0342854
0.0359564
0.0375901
0.0391785
0.0407145
0.0421921
0.0436055
0.0449495
0.0462196
0.0474117
0.0485226
0.0495499
0.0504921
0.0513492
0.0521222
0.000204186
0.000642131
0.00111156
0.0015999
0.00210902
0.00264046
0.00319556
0.00377571
0.00438234
0.00501689
0.00568081
0.00637557
0.0071026
0.00786339
0.00865938
0.00949194
0.0103623
0.0112714
0.0122196
0.0132071
0.0142332
0.015298
0.0164036
0.0175562
0.0187659
0.020043
0.0213931
0.0228163
0.0243092
0.0258666
0.0276224
0.0295279
0.0314155
0.0332902
0.0351522
0.0369953
0.0388104
0.0405886
0.0423217
0.0440028
0.0456255
0.0471841
0.0486731
0.0500876
0.0514231
0.0526754
0.0538409
0.0549171
0.0559019
0.0567942
0.000219061
0.00068928
0.0011932
0.00171737
0.00226387
0.00283433
0.0034302
0.00405295
0.0047041
0.00538518
0.00609774
0.00684332
0.00762349
0.00843978
0.00929372
0.0101868
0.0111201
0.0120949
0.0131114
0.0141697
0.0152693
0.0164103
0.0175949
0.01883
0.0201263
0.021495
0.0229422
0.0244681
0.0260694
0.0277406
0.0296256
0.0316729
0.0337027
0.0357206
0.0377269
0.0397155
0.0416769
0.0436019
0.0454824
0.0473112
0.0490818
0.0507882
0.0524246
0.0539858
0.0554663
0.0568614
0.0581663
0.059377
0.0604898
0.0615017
0.000233807
0.000735823
0.00127376
0.00183336
0.00241687
0.00302602
0.00366233
0.00432734
0.00502263
0.00574985
0.00651064
0.00730668
0.00813965
0.0090112
0.00992294
0.0108764
0.0118729
0.0129133
0.0139983
0.0151276
0.0163008
0.0175181
0.018782
0.0200998
0.0214831
0.0229438
0.0244887
0.0261183
0.0278289
0.029615
0.0316303
0.0338208
0.0359941
0.0381568
0.0403093
0.0424453
0.0445553
0.0466297
0.0486601
0.0506393
0.0525605
0.0544175
0.056204
0.0579141
0.0595419
0.0610815
0.0625272
0.0638735
0.0651153
0.0662478
0.000248412
0.000781767
0.00135327
0.00194789
0.00256803
0.00321551
0.00389191
0.00459882
0.00533792
0.00611093
0.00691963
0.00776582
0.0086513
0.00957787
0.0105472
0.011561
0.0126205
0.0137267
0.0148801
0.0160805
0.0173274
0.0186211
0.0199643
0.0213651
0.0228358
0.0243891
0.0260324
0.0277663
0.0295872
0.031489
0.0336357
0.0359707
0.0382891
0.0405981
0.0428986
0.0451841
0.0474449
0.0496711
0.0518543
0.0539867
0.0560614
0.0580717
0.060011
0.0618727
0.0636501
0.0653363
0.0669247
0.0684084
0.0697809
0.0710358
0.000262897
0.000827258
0.00143198
0.00206125
0.00271762
0.00340301
0.00411908
0.00486751
0.00565006
0.00646856
0.00732489
0.00822096
0.00915872
0.0101401
0.0111669
0.0122408
0.0133631
0.0145349
0.0157566
0.017028
0.0183486
0.0197187
0.0211415
0.0226255
0.0241839
0.0258303
0.0275726
0.0294116
0.0313434
0.0333619
0.0356411
0.0381217
0.0405865
0.0430434
0.0454937
0.0479309
0.0503449
0.0527256
0.0550642
0.0573528
0.0595839
0.0617505
0.0638455
0.0658615
0.0677911
0.0696265
0.0713599
0.0729833
0.0744889
0.0758687
0.000277273
0.000872423
0.00151009
0.00217368
0.0028659
0.0035888
0.00434412
0.00513367
0.00595931
0.00682298
0.00772666
0.00867239
0.0096622
0.0106981
0.0117821
0.0129158
0.0141007
0.0153379
0.0166277
0.0179699
0.0193641
0.0208106
0.022313
0.0238804
0.0255269
0.0272668
0.0291086
0.0310534
0.033097
0.0352328
0.0376454
0.0402728
0.0428854
0.0454918
0.0480939
0.050685
0.0532546
0.0557925
0.0582894
0.0607371
0.0631277
0.0654536
0.0677071
0.0698804
0.0719651
0.0739526
0.0758339
0.0776
0.0792417
0.0807496
0.000291509
0.000917224
0.00158757
0.00228517
0.0030129
0.00377294
0.00456715
0.00539746
0.00626586
0.00717439
0.00812514
0.00912024
0.0101618
0.0112521
0.0123929
0.0135861
0.0148333
0.0161355
0.0174931
0.0189059
0.0203734
0.0218962
0.0234783
0.0251293
0.0268642
0.0286981
0.0306399
0.0326909
0.0348468
0.0371007
0.0396475
0.0424229
0.0451846
0.0479422
0.050698
0.0534452
0.0561731
0.058871
0.0615291
0.0641388
0.066692
0.0691803
0.0715956
0.0739293
0.0761724
0.0783152
0.0803479
0.0822601
0.0840416
0.0856814
0.000305557
0.000961543
0.00166425
0.00239554
0.00315847
0.00395532
0.0047881
0.00565886
0.0065697
0.00752277
0.00852028
0.00956446
0.0106575
0.0118017
0.0129991
0.0142515
0.0155606
0.0169274
0.0183525
0.0198356
0.0213762
0.0229753
0.024637
0.0263718
0.0281953
0.0301233
0.0321655
0.0343232
0.0365919
0.0389645
0.0416463
0.0445708
0.047483
0.0503936
0.0533051
0.0562108
0.0590995
0.06196
0.0647823
0.0675572
0.0702759
0.0729299
0.0755103
0.0780079
0.0804128
0.0827148
0.0849026
0.0869652
0.0888907
0.0906666
0.000319407
0.00100533
0.00174006
0.00250472
0.00330251
0.00413588
0.00500692
0.00591781
0.00687075
0.00786803
0.00891195
0.0100048
0.011149
0.0123468
0.0136002
0.0149115
0.0162821
0.0177132
0.0192054
0.0207585
0.0223721
0.0240472
0.0257886
0.0276072
0.0295195
0.0315419
0.0336847
0.0359493
0.0383312
0.040823
0.0436407
0.0467154
0.0497796
0.0528449
0.0559142
0.0589807
0.0620327
0.0650587
0.068048
0.070991
0.0738786
0.0767016
0.0794506
0.0821157
0.0846865
0.0871516
0.089499
0.0917164
0.0937907
0.0957076
0.000333093
0.00104865
0.00181507
0.00261277
0.00344511
0.00431466
0.00522364
0.0061743
0.00716899
0.00821009
0.00930001
0.0104412
0.011636
0.0128869
0.014196
0.0155656
0.0169973
0.0184923
0.0200512
0.021674
0.0233604
0.0251115
0.0269326
0.028835
0.030836
0.0329529
0.0351964
0.0375681
0.0400635
0.042675
0.0456293
0.0488553
0.052073
0.0552948
0.058524
0.0617536
0.0649716
0.0681657
0.0713249
0.0744392
0.0774988
0.0804943
0.0834156
0.0862523
0.0889931
0.0916259
0.0941376
0.0965146
0.098743
0.100806
0.000346654
0.00109156
0.00188938
0.0027198
0.00358637
0.00449176
0.00543831
0.00642837
0.0074644
0.00854889
0.00968434
0.0108733
0.0121183
0.0134217
0.0147861
0.0162135
0.0177058
0.0192643
0.0208897
0.0225819
0.0243408
0.0261677
0.0280682
0.0300544
0.032144
0.0343553
0.0366994
0.0391784
0.0417875
0.0445191
0.0476108
0.0509895
0.0543622
0.0577422
0.0611334
0.0645283
0.0679147
0.0712796
0.0746116
0.0779002
0.0811353
0.0843069
0.0874045
0.0904169
0.0933323
0.0961375
0.0988185
0.101361
0.103748
0.105963
0.0003601
0.00113409
0.00196301
0.00282584
0.00372631
0.00466719
0.00565093
0.00667999
0.00775692
0.00888432
0.0100648
0.011301
0.0125956
0.0139511
0.0153701
0.0168548
0.0184072
0.0200288
0.0217202
0.0234815
0.0253126
0.0272151
0.0291948
0.0312644
0.0334425
0.0357479
0.0381926
0.0407788
0.0435018
0.0463541
0.0495839
0.0531163
0.0566454
0.0601855
0.0637405
0.0673031
0.0708602
0.0743986
0.0779063
0.0813724
0.0847865
0.0881381
0.091416
0.0946087
0.0977034
0.100686
0.103542
0.106254
0.108807
0.111179
0.000373418
0.0011762
0.00203592
0.00293085
0.00386486
0.00484087
0.00586139
0.00692901
0.00804637
0.00921618
0.0104412
0.0117241
0.0130677
0.0144747
0.0159477
0.0174892
0.0191012
0.0207853
0.0225424
0.0243724
0.0262753
0.0282529
0.0303114
0.0324641
0.0347303
0.0371296
0.0396746
0.0423679
0.045205
0.0481783
0.051547
0.0552341
0.0589211
0.0626229
0.0663437
0.070076
0.0738062
0.0775207
0.0812071
0.084854
0.0884507
0.0919862
0.0954489
0.0988264
0.102105
0.105271
0.108306
0.111195
0.113919
0.116455
0.000386584
0.00121786
0.00210805
0.00303472
0.00400191
0.00501263
0.00606951
0.00717521
0.0083325
0.00954418
0.0108131
0.0121421
0.0135341
0.014992
0.0165185
0.0181162
0.0197873
0.0215335
0.0233556
0.0252538
0.0272281
0.0292803
0.0314171
0.0336523
0.0360061
0.0384988
0.0411439
0.0439444
0.0468956
0.0499902
0.0534985
0.0573413
0.0611873
0.0650523
0.0689406
0.0728447
0.0767505
0.0806438
0.0845118
0.0883429
0.0921259
0.0958494
0.0995012
0.103068
0.106536
0.10989
0.113111
0.116182
0.119084
0.121789
0.000399568
0.001259
0.0021793
0.00313734
0.0041373
0.0051823
0.00627506
0.00741834
0.00861501
0.00986798
0.0111802
0.0125547
0.0139945
0.0155026
0.017082
0.0187353
0.0204649
0.0222726
0.0241593
0.0261251
0.0281701
0.0302963
0.0325108
0.0348279
0.0372687
0.0398544
0.0425992
0.0455065
0.0485721
0.0517882
0.0554364
0.0594358
0.0634419
0.0674714
0.071529
0.0756068
0.0796905
0.0837653
0.087818
0.0918368
0.0958099
0.0997255
0.103571
0.107332
0.110995
0.114541
0.117954
0.121214
0.124299
0.12718
0.000412345
0.00129958
0.0022496
0.00323859
0.00427088
0.00534968
0.00647779
0.0076581
0.00889355
0.0101872
0.0115421
0.0129614
0.0144483
0.016006
0.0176376
0.0193459
0.0211334
0.023002
0.0249526
0.0269853
0.0291003
0.0312998
0.0335911
0.0359895
0.0385166
0.0411948
0.0440389
0.047053
0.0502327
0.0535705
0.0573589
0.0615154
0.0656825
0.0698777
0.0741061
0.0783596
0.0826235
0.0868825
0.0911231
0.0953329
0.0994999
0.103612
0.107655
0.111616
0.115478
0.119223
0.122833
0.126288
0.129563
0.132626
0.00042489
0.00133952
0.00231883
0.00333831
0.00440243
0.0055145
0.00667741
0.00789413
0.00916774
0.0105014
0.0118983
0.0133617
0.0148951
0.0165017
0.0181848
0.0199475
0.0217922
0.023721
0.0257347
0.0278335
0.0300177
0.0322895
0.0346569
0.0371356
0.0397484
0.0425185
0.0454615
0.0485819
0.0518757
0.0553351
0.0592639
0.0635778
0.0679066
0.0722686
0.0766692
0.0811003
0.0855466
0.0899925
0.0944239
0.0988281
0.103193
0.107505
0.111751
0.115915
0.119982
0.123932
0.127745
0.1314
0.134872
0.138124
0.000437181
0.00137875
0.00238686
0.00343631
0.00453172
0.00567648
0.00687358
0.0081261
0.0094372
0.0108102
0.0122484
0.0137553
0.0153344
0.0169892
0.0187231
0.0205393
0.0224405
0.0244286
0.0265046
0.0286686
0.0309209
0.0332641
0.0357066
0.0382649
0.0409626
0.0438239
0.0468653
0.0500917
0.0534991
0.0570799
0.0611489
0.0656204
0.0701115
0.0746411
0.0792154
0.0838258
0.0884567
0.093092
0.0977171
0.102319
0.106885
0.111401
0.115854
0.120227
0.124503
0.128663
0.132685
0.136547
0.140223
0.14367
0.000449202
0.00141719
0.00245355
0.0035324
0.00465849
0.00583532
0.00706597
0.0083536
0.00970151
0.0111131
0.0125919
0.0141415
0.0157656
0.0174679
0.0192518
0.0211208
0.0230775
0.025124
0.0272612
0.0294893
0.0318087
0.0342222
0.0367388
0.0393757
0.0421575
0.0451094
0.0482486
0.0515803
0.0551009
0.0588026
0.0630115
0.0676406
0.0722942
0.0769923
0.0817413
0.0865327
0.0913502
0.0961772
0.100999
0.105801
0.110572
0.115296
0.119959
0.124545
0.129036
0.133412
0.137649
0.141724
0.14561
0.14926
0.000460938
0.00145477
0.00251877
0.00362637
0.00478249
0.00599072
0.00725421
0.00857625
0.00996025
0.0114097
0.0129284
0.01452
0.0161883
0.0179372
0.0197703
0.0216911
0.0237024
0.0258062
0.0280035
0.0302945
0.0326798
0.0351625
0.037752
0.0404666
0.0433317
0.0463732
0.0496093
0.0530458
0.0566787
0.0605007
0.064849
0.0696354
0.0744518
0.0793189
0.0842437
0.0892173
0.0942231
0.0992439
0.104264
0.10927
0.114248
0.119184
0.124062
0.128866
0.133577
0.138172
0.14263
0.146925
0.151027
0.154886
0.000472371
0.00149141
0.00258237
0.00371804
0.00490347
0.00614236
0.00743796
0.00879367
0.010213
0.0116997
0.0132574
0.0148902
0.0166019
0.0183965
0.0202779
0.0222495
0.0243142
0.0264741
0.0287303
0.0310829
0.0335327
0.0360833
0.0387447
0.0415359
0.0444832
0.0476134
0.0509456
0.0544856
0.0582301
0.0621715
0.0666585
0.0716019
0.0765809
0.0816175
0.0867187
0.0918756
0.0970711
0.102287
0.107509
0.112721
0.117909
0.12306
0.128157
0.133182
0.138117
0.142938
0.147622
0.152142
0.156468
0.160543
0.000483483
0.00152704
0.00264423
0.00380721
0.00502119
0.00628997
0.00761691
0.00900549
0.0104594
0.0119824
0.0135784
0.0152515
0.0170057
0.0188451
0.0207737
0.0227949
0.0249119
0.0271266
0.0294402
0.0318531
0.0343661
0.0369833
0.0397153
0.0425819
0.0456102
0.048828
0.052255
0.0558976
0.0597523
0.0638122
0.068437
0.0735367
0.0786782
0.0838842
0.0891622
0.0945032
0.0998894
0.105303
0.110727
0.116147
0.121548
0.126917
0.132236
0.137487
0.14265
0.147702
0.152617
0.157368
0.161924
0.166224
0.000494258
0.0015616
0.00270425
0.00389375
0.00513547
0.00643332
0.00779076
0.00921139
0.010699
0.0122575
0.0138908
0.0156033
0.017399
0.0192822
0.0212567
0.0233264
0.0254942
0.0277623
0.0301319
0.0326036
0.0351784
0.0378608
0.0406621
0.0436026
0.0467106
0.0500147
0.0535351
0.0572789
0.0612427
0.0654199
0.0701814
0.0754365
0.0807399
0.086115
0.0915699
0.0970951
0.102673
0.108283
0.113911
0.119541
0.125159
0.130748
0.136292
0.141773
0.147168
0.152455
0.157606
0.162595
0.167387
0.171919
0.000504677
0.00159504
0.00276233
0.00397752
0.00524613
0.00657217
0.00795923
0.009411
0.0109314
0.0125244
0.0141941
0.0159449
0.017781
0.0197067
0.021726
0.0238427
0.0260599
0.02838
0.0308041
0.033333
0.0359681
0.0387142
0.0415832
0.0445962
0.0477824
0.0511712
0.0547835
0.0586268
0.0626983
0.0669913
0.0718883
0.0772976
0.0827619
0.0883055
0.0939367
0.0996459
0.105415
0.111224
0.117057
0.122898
0.128733
0.134545
0.140317
0.14603
0.151661
0.157187
0.16258
0.167811
0.172848
0.17762
0.000514719
0.0016273
0.00281839
0.00405839
0.00535299
0.00670632
0.00812204
0.00960398
0.0111561
0.0127826
0.0144877
0.0162756
0.0181509
0.0201178
0.0221804
0.0243427
0.0266079
0.0289782
0.0314553
0.0340398
0.0367336
0.0395417
0.0424767
0.0455605
0.0488231
0.0522948
0.0559972
0.0599384
0.0641159
0.0685233
0.073554
0.079116
0.0847398
0.0904506
0.0962572
0.10215
0.108109
0.114117
0.120155
0.126209
0.132262
0.138299
0.144301
0.150248
0.156119
0.161888
0.167527
0.173008
0.178295
0.183318
0.000524364
0.00165834
0.00287235
0.00413626
0.00545591
0.00683555
0.00827893
0.00978998
0.0113728
0.0130316
0.0147707
0.0165946
0.0185076
0.0205143
0.0226188
0.0248251
0.0271366
0.0295556
0.0320839
0.0347225
0.0374731
0.0403414
0.0433406
0.0464933
0.0498303
0.0533829
0.0571736
0.0612108
0.0654924
0.0700123
0.0751747
0.0808873
0.0866687
0.0925451
0.0985255
0.1046
0.11075
0.116956
0.123199
0.129465
0.135737
0.142
0.148233
0.154417
0.16053
0.166546
0.172437
0.178173
0.18372
0.189003
0.000533598
0.00168811
0.00292413
0.00421101
0.00555474
0.00695965
0.00842961
0.00996864
0.0115809
0.0132708
0.0150426
0.0169009
0.0188502
0.0208951
0.0230399
0.0252886
0.0276447
0.0301108
0.0326885
0.0353792
0.0381848
0.0411114
0.0441726
0.0473921
0.0508014
0.0544329
0.0583096
0.0624407
0.0668243
0.0714545
0.0767462
0.0826068
0.0885435
0.0945832
0.100736
0.106991
0.11333
0.119732
0.12618
0.132658
0.139149
0.145637
0.152103
0.158526
0.164883
0.17115
0.177298
0.183297
0.189111
0.194666
0.000542407
0.00171658
0.00297367
0.00428254
0.0056493
0.00707838
0.00857376
0.0101395
0.01178
0.0134995
0.0153025
0.0171937
0.0191777
0.0212592
0.0234425
0.0257318
0.0281308
0.0306421
0.0332674
0.0360082
0.0388667
0.0418494
0.0449705
0.0482544
0.0517338
0.0554417
0.0594022
0.0636248
0.068108
0.0728459
0.078264
0.0842695
0.0903584
0.0965588
0.102881
0.109314
0.11584
0.122437
0.129089
0.135777
0.142487
0.1492
0.155898
0.162561
0.169166
0.175688
0.182098
0.188366
0.194459
0.200298
0.000550773
0.00174368
0.00302087
0.00435068
0.00573937
0.00719148
0.00871102
0.0103022
0.0119694
0.013717
0.0155497
0.0174721
0.0194891
0.0216053
0.0238254
0.0261535
0.0285935
0.031148
0.033819
0.0366077
0.0395169
0.0425533
0.0457317
0.0490777
0.0526246
0.0564065
0.0604482
0.0647598
0.0693396
0.0741823
0.0797232
0.0858698
0.0921075
0.0984652
0.104953
0.111562
0.118272
0.125063
0.131915
0.138812
0.145738
0.152675
0.159606
0.16651
0.173365
0.180146
0.186825
0.193372
0.199752
0.205891
0.000558673
0.00176934
0.00306558
0.00441524
0.00582471
0.00729859
0.00884098
0.0104561
0.0121485
0.0139227
0.0157833
0.0177352
0.0197833
0.0219325
0.0241873
0.0265524
0.0290313
0.031627
0.0343413
0.0371758
0.0401331
0.0432206
0.0464539
0.0498592
0.053471
0.0573243
0.0614444
0.0658418
0.0705151
0.0754588
0.0811186
0.0874022
0.0937846
0.100296
0.106947
0.113728
0.120619
0.127598
0.134648
0.141751
0.148891
0.156051
0.163214
0.170361
0.177469
0.184514
0.191468
0.198303
0.204983
0.211437
0.00056608
0.00179348
0.00310766
0.00447601
0.00590502
0.00739934
0.00896314
0.0106008
0.0123167
0.0141157
0.0160025
0.017982
0.0200594
0.0222395
0.0245272
0.026927
0.0294427
0.0320773
0.0348326
0.0377102
0.0407131
0.0438491
0.0471344
0.0505963
0.0542702
0.0581919
0.0623873
0.0668672
0.07163
0.0766708
0.0824448
0.0888605
0.095383
0.102043
0.108853
0.115802
0.122869
0.130034
0.137277
0.144581
0.151933
0.159314
0.166709
0.174099
0.181463
0.188778
0.196017
0.20315
0.210144
0.216933
0.000572965
0.00181599
0.00314694
0.00453273
0.00597995
0.0074933
0.00907701
0.0107355
0.0124734
0.0142954
0.0162065
0.0182117
0.0203162
0.0225252
0.0248436
0.027276
0.0298262
0.0324972
0.0352909
0.0382089
0.0412546
0.0444361
0.0477707
0.0512863
0.0550193
0.0590061
0.0632733
0.0678316
0.0726798
0.0778131
0.0836962
0.0902386
0.0968961
0.1037
0.110663
0.117775
0.125013
0.132358
0.139789
0.147292
0.154851
0.162451
0.170078
0.177713
0.185337
0.192928
0.20046
0.207904
0.215229
0.222373
0.000579288
0.00183676
0.0031832
0.00458509
0.0060491
0.00757998
0.00918201
0.0108597
0.0126177
0.0144609
0.0163943
0.0184233
0.020553
0.0227887
0.0251355
0.0275981
0.0301802
0.0328849
0.0357142
0.0386697
0.0417552
0.0449793
0.04836
0.0519262
0.055715
0.0597635
0.0640984
0.0687308
0.0736596
0.0788804
0.084867
0.09153
0.0983166
0.105259
0.11237
0.119637
0.127041
0.134559
0.142173
0.149869
0.157632
0.165449
0.173307
0.181189
0.189079
0.196954
0.20479
0.212559
0.220233
0.227758
0.000585006
0.00185564
0.00321619
0.00463275
0.00611204
0.00765887
0.00927756
0.0109727
0.012749
0.0146115
0.0165653
0.0186159
0.0207685
0.0230287
0.0254015
0.0278917
0.0305031
0.0332386
0.0361004
0.0390904
0.0422125
0.0454761
0.0488998
0.0525133
0.0563542
0.0604603
0.0648587
0.0695604
0.0745645
0.0798672
0.0859513
0.0927283
0.0996373
0.106711
0.113962
0.121379
0.12894
0.136625
0.144416
0.152299
0.160262
0.168295
0.176384
0.184516
0.192676
0.200844
0.208997
0.21711
0.225154
0.233087
0.000590072
0.00187248
0.00324568
0.00467537
0.00616834
0.00772944
0.00936305
0.0110738
0.0128665
0.0147463
0.0167185
0.0187886
0.0209619
0.0232441
0.0256404
0.0281554
0.030793
0.0335564
0.0364476
0.0394688
0.0426243
0.045924
0.0493873
0.0530443
0.0569336
0.061093
0.0655499
0.0703156
0.0753894
0.0807682
0.0869429
0.0938266
0.10085
0.108048
0.115431
0.122989
0.1307
0.138544
0.146505
0.15457
0.16273
0.170975
0.179296
0.187682
0.196119
0.204591
0.213077
0.221553
0.229993
0.238364
0.000594442
0.00188716
0.00327143
0.00471261
0.00621758
0.0077912
0.00943791
0.0111624
0.0129696
0.0148647
0.0168532
0.0189404
0.0211321
0.0234338
0.0258507
0.0283876
0.0310484
0.0338364
0.0367536
0.0398026
0.0429881
0.0463205
0.0498196
0.0535164
0.0574496
0.0616575
0.0661677
0.0709918
0.0761292
0.0815776
0.0878357
0.0948178
0.101948
0.109261
0.116767
0.124457
0.13231
0.140305
0.148428
0.156669
0.165021
0.173478
0.182032
0.190675
0.199399
0.208188
0.217025
0.225887
0.23475
0.243591
0.000598079
0.00189954
0.00329322
0.00474418
0.00625936
0.00784367
0.00950158
0.0112379
0.0130575
0.0149659
0.0169683
0.0190704
0.0212779
0.0235963
0.026031
0.0285867
0.0312675
0.0340766
0.0370165
0.0400898
0.0433016
0.0466629
0.0501939
0.0539261
0.0578986
0.0621499
0.0667077
0.071584
0.0767787
0.0822897
0.0886232
0.0956946
0.102922
0.11034
0.11796
0.125772
0.133756
0.141893
0.150172
0.158584
0.167124
0.175791
0.18458
0.193488
0.202508
0.21163
0.220837
0.23011
0.239427
0.248772
0.000600948
0.00190952
0.00331087
0.00476981
0.00629334
0.00788641
0.00955357
0.0112996
0.0131296
0.0150489
0.017063
0.0191775
0.0213981
0.0237304
0.0261798
0.0287511
0.0314486
0.0342754
0.0372342
0.0403281
0.0435625
0.0469486
0.0505073
0.0542702
0.0582768
0.0625659
0.0671655
0.0720877
0.0773325
0.0828988
0.0892988
0.0964495
0.103764
0.111276
0.118999
0.126923
0.135028
0.143299
0.151725
0.160301
0.169027
0.177903
0.186931
0.19611
0.205439
0.214911
0.224512
0.234224
0.244025
0.253911
0.000603018
0.001917
0.00332421
0.00478925
0.00631921
0.00791906
0.0095934
0.0113471
0.0131852
0.0151131
0.0171364
0.0192606
0.0214915
0.0238348
0.0262957
0.0288793
0.0315898
0.0344308
0.0374049
0.0405155
0.0437684
0.047175
0.0507565
0.0545451
0.0585805
0.0629016
0.0675366
0.0724978
0.0777855
0.0833988
0.0898557
0.0970748
0.104464
0.11206
0.119874
0.127898
0.136115
0.14451
0.153075
0.16181
0.170718
0.179804
0.189075
0.198536
0.208188
0.218028
0.228047
0.238226
0.248547
0.259007
0.000604264
0.0019219
0.00333309
0.00480232
0.00633669
0.00794126
0.00962063
0.0113797
0.0132236
0.0151577
0.0171875
0.0193187
0.021557
0.023908
0.0263772
0.0289696
0.0316897
0.034541
0.0375266
0.0406498
0.0439167
0.0473392
0.0509387
0.0547476
0.0588059
0.0631528
0.0678166
0.0728095
0.0781321
0.0837837
0.0902871
0.0975627
0.105015
0.112682
0.120575
0.128688
0.137005
0.145514
0.154212
0.1631
0.172188
0.181486
0.191005
0.200758
0.210748
0.220978
0.231439
0.242116
0.252989
0.264059
0.000604665
0.00192415
0.00333742
0.00480884
0.00634557
0.0079527
0.00963486
0.011397
0.0132442
0.0151818
0.0172154
0.0193506
0.0215931
0.0239487
0.0264228
0.0290206
0.0317465
0.0346043
0.0375973
0.0407288
0.0440052
0.0474385
0.0510506
0.0548741
0.0589494
0.0633156
0.068001
0.073018
0.0783668
0.0840474
0.090586
0.0979054
0.105409
0.113133
0.121093
0.129283
0.137689
0.146302
0.155123
0.16416
0.173426
0.182939
0.192715
0.20277
0.213116
0.223756
0.234685
0.245888
0.257345
0.269058
0.000604202
0.0019237
0.00333709
0.00480866
0.00634564
0.0079531
0.0096357
0.0113984
0.0132462
0.0151847
0.0172191
0.0193553
0.0215989
0.0239556
0.0264311
0.0290306
0.0317586
0.034619
0.0376151
0.0407504
0.0440313
0.0474702
0.0510892
0.0549214
0.0590072
0.0633859
0.0680856
0.0731184
0.0784843
0.0841835
0.0907455
0.0980955
0.105636
0.113404
0.121418
0.129672
0.138155
0.146863
0.1558
0.164981
0.174425
0.184156
0.194196
0.204568
0.215285
0.226356
0.237777
0.249535
0.261607
0.27399
0.000602861
0.00192051
0.00333201
0.00480165
0.00633667
0.00794214
0.00962273
0.0113834
0.0132292
0.0151655
0.0171977
0.0193316
0.021573
0.0239275
0.0264008
0.0289983
0.0317245
0.0345833
0.037578
0.0407123
0.0439925
0.0474315
0.0510516
0.0548862
0.0589759
0.0633599
0.068066
0.0731058
0.0784789
0.0841861
0.090759
0.0981255
0.105689
0.113488
0.121541
0.129845
0.138394
0.147187
0.156234
0.165556
0.175178
0.185131
0.195445
0.206144
0.21725
0.228771
0.240707
0.253043
0.265755
0.278836
0.000600622
0.00191452
0.00332209
0.00478765
0.00631844
0.00791952
0.00959556
0.0113514
0.0131923
0.0151234
0.0171504
0.0192787
0.0215144
0.0238631
0.0263306
0.0289222
0.0316426
0.0344955
0.0374841
0.0406122
0.0438864
0.0473197
0.0509348
0.0547655
0.0588522
0.063234
0.067938
0.0729752
0.0783453
0.0840491
0.0906199
0.0979885
0.10556
0.113375
0.121454
0.129796
0.138398
0.147266
0.156416
0.165876
0.175678
0.185859
0.196453
0.207493
0.219001
0.23099
0.243459
0.256394
0.269767
0.283564
0.000597463
0.00190565
0.00330719
0.00476647
0.00629069
0.00788491
0.00955374
0.0113021
0.013135
0.0150579
0.0170762
0.0191956
0.0214221
0.0237614
0.0262193
0.0288011
0.0315113
0.0343537
0.0373314
0.0404481
0.0437107
0.0471323
0.0507363
0.0545562
0.0586328
0.0630042
0.0676972
0.0727221
0.0780781
0.0837669
0.0903222
0.0976781
0.105243
0.113059
0.121148
0.129514
0.138159
0.147093
0.156341
0.165936
0.175918
0.186331
0.197214
0.208604
0.220526
0.232996
0.246013
0.25956
0.27361
0.288137
0.000593362
0.00189382
0.00328718
0.00473789
0.00625314
0.00783793
0.00949684
0.0112347
0.0130567
0.0149681
0.0169745
0.0190816
0.0212952