/*--------------------------------*- C++ -*----------------------------------*\
  =========                 |
  \\      /  F ield         | OpenFOAM: The Open Source CFD Toolbox
   \\    /   O peration     | Website:  https://openfoam.org
    \\  /    A nd           | Version:  9
     \\/     M anipulation  |
\*---------------------------------------------------------------------------*/
FoamFile
{
    format      ascii;
    class       surfaceScalarField;
    location    "0.1";
    object      phi;
}
// * * * * * * * * * * * * * * * * * * * * * * * * * * * * * * * * * * * * * //

dimensions      [0 3 -1 0 0 0 0];

internalField   nonuniform List<scalar> 
9850
(
-7.43198e-07
1.77488e-06
-7.43218e-07
1.86984e-06
-7.43214e-07
1.96953e-06
-7.43203e-07
2.07417e-06
-7.43194e-07
2.18394e-06
-7.43191e-07
2.29903e-06
-7.43196e-07
2.41965e-06
-7.43211e-07
2.54601e-06
-7.43237e-07
2.67831e-06
-7.43274e-07
2.81674e-06
-7.43322e-07
2.96146e-06
-7.43382e-07
3.11258e-06
-7.43455e-07
3.27014e-06
-7.43539e-07
3.43411e-06
-7.43635e-07
3.6043e-06
-7.43738e-07
3.78032e-06
-7.4384e-07
3.96143e-06
-7.43922e-07
4.14638e-06
-7.43952e-07
4.33332e-06
-7.43898e-07
4.52021e-06
-7.4376e-07
4.70647e-06
-7.43609e-07
4.89645e-06
-7.43539e-07
5.10271e-06
-7.43539e-07
5.34253e-06
-7.43528e-07
5.62482e-06
-7.43516e-07
5.9401e-06
-7.43555e-07
6.26796e-06
-7.43631e-07
6.5921e-06
-7.43683e-07
6.90592e-06
-7.43666e-07
7.21058e-06
-7.43605e-07
8.76247e-06
-7.43576e-07
8.70457e-06
-7.4358e-07
8.67795e-06
-7.43582e-07
8.67807e-06
-7.43576e-07
8.68342e-06
-7.43564e-07
8.67759e-06
-7.43543e-07
8.65676e-06
-7.43512e-07
8.62398e-06
-7.4347e-07
8.58347e-06
-7.43419e-07
8.5381e-06
-7.43364e-07
8.48972e-06
-7.43304e-07
8.43944e-06
-7.43236e-07
8.38776e-06
-7.43155e-07
8.33439e-06
-7.43052e-07
8.27828e-06
-7.42917e-07
8.21766e-06
-7.42747e-07
8.15031e-06
-7.4256e-07
8.07439e-06
-7.42416e-07
7.99024e-06
7.90296e-06
-7.42949e-07
1.77502e-06
-7.42979e-07
1.86987e-06
-7.42972e-07
1.96952e-06
-7.42955e-07
2.07415e-06
-7.42943e-07
2.18393e-06
-7.42944e-07
2.29903e-06
-7.42962e-07
2.41967e-06
-7.43002e-07
2.54605e-06
-7.43066e-07
2.67837e-06
-7.43154e-07
2.81683e-06
-7.43269e-07
2.96157e-06
-7.43409e-07
3.11272e-06
-7.43576e-07
3.27031e-06
-7.43767e-07
3.4343e-06
-7.43976e-07
3.60451e-06
-7.44191e-07
3.78054e-06
-7.44386e-07
3.96163e-06
-7.44518e-07
4.14651e-06
-7.44531e-07
4.33334e-06
-7.44383e-07
4.52007e-06
-7.44115e-07
4.7062e-06
-7.43884e-07
4.89622e-06
-7.43843e-07
5.10267e-06
-7.4393e-07
5.34262e-06
-7.43949e-07
5.62484e-06
-7.43885e-07
5.94003e-06
-7.43877e-07
6.26795e-06
-7.43953e-07
6.59217e-06
-7.44014e-07
6.90598e-06
-7.43981e-07
7.21055e-06
-7.43894e-07
8.76238e-06
-7.43879e-07
8.70456e-06
-7.43901e-07
8.67797e-06
-7.43884e-07
8.67806e-06
-7.43838e-07
8.68337e-06
-7.43784e-07
8.67754e-06
-7.43715e-07
8.65669e-06
-7.43628e-07
8.62389e-06
-7.43514e-07
8.58335e-06
-7.43378e-07
8.53797e-06
-7.43225e-07
8.48956e-06
-7.43056e-07
8.43927e-06
-7.42864e-07
8.38756e-06
-7.42637e-07
8.33416e-06
-7.42358e-07
8.278e-06
-7.42013e-07
8.21732e-06
-7.41609e-07
8.14991e-06
-7.41202e-07
8.07398e-06
-7.40932e-07
7.98997e-06
7.90303e-06
-7.43088e-07
1.77504e-06
-7.43062e-07
1.86985e-06
-7.43011e-07
1.96947e-06
-7.4296e-07
2.0741e-06
-7.42926e-07
2.18389e-06
-7.42917e-07
2.29902e-06
-7.42937e-07
2.41969e-06
-7.4299e-07
2.5461e-06
-7.43077e-07
2.67846e-06
-7.43199e-07
2.81695e-06
-7.43357e-07
2.96173e-06
-7.43551e-07
3.11291e-06
-7.43779e-07
3.27054e-06
-7.44037e-07
3.43456e-06
-7.44315e-07
3.60479e-06
-7.44594e-07
3.78082e-06
-7.44842e-07
3.96188e-06
-7.45009e-07
4.14668e-06
-7.45035e-07
4.33336e-06
-7.44888e-07
4.51992e-06
-7.44625e-07
4.70594e-06
-7.44421e-07
4.89602e-06
-7.44418e-07
5.10267e-06
-7.4451e-07
5.34271e-06
-7.44478e-07
5.62481e-06
-7.44336e-07
5.93989e-06
-7.44271e-07
6.26789e-06
-7.44332e-07
6.59223e-06
-7.44406e-07
6.90605e-06
-7.44396e-07
7.21054e-06
-7.44328e-07
8.76231e-06
-7.44325e-07
8.70455e-06
-7.44334e-07
8.67798e-06
-7.44279e-07
8.678e-06
-7.44184e-07
8.68328e-06
-7.44084e-07
8.67744e-06
-7.43973e-07
8.65658e-06
-7.43844e-07
8.62376e-06
-7.43662e-07
8.58317e-06
-7.43448e-07
8.53775e-06
-7.43207e-07
8.48932e-06
-7.42935e-07
8.439e-06
-7.42627e-07
8.38726e-06
-7.42267e-07
8.3338e-06
-7.41836e-07
8.27757e-06
-7.41325e-07
8.21681e-06
-7.40755e-07
8.14934e-06
-7.40219e-07
8.07345e-06
-7.39905e-07
7.98966e-06
7.90319e-06
-7.43291e-07
1.77504e-06
-7.43255e-07
1.86981e-06
-7.43196e-07
1.96941e-06
-7.43136e-07
2.07404e-06
-7.43095e-07
2.18385e-06
-7.43083e-07
2.29901e-06
-7.43105e-07
2.41971e-06
-7.43167e-07
2.54616e-06
-7.43271e-07
2.67856e-06
-7.43418e-07
2.8171e-06
-7.43608e-07
2.96192e-06
-7.4384e-07
3.11315e-06
-7.44114e-07
3.27081e-06
-7.44422e-07
3.43487e-06
-7.44753e-07
3.60512e-06
-7.45085e-07
3.78115e-06
-7.45383e-07
3.96217e-06
-7.45592e-07
4.14689e-06
-7.4565e-07
4.33342e-06
-7.45523e-07
4.51979e-06
-7.45272e-07
4.70568e-06
-7.45072e-07
4.89582e-06
-7.45058e-07
5.10266e-06
-7.45121e-07
5.34278e-06
-7.45047e-07
5.62474e-06
-7.44866e-07
5.93971e-06
-7.44782e-07
6.2678e-06
-7.44849e-07
6.5923e-06
-7.44941e-07
6.90614e-06
-7.44945e-07
7.21054e-06
-7.44881e-07
8.76225e-06
-7.44868e-07
8.70454e-06
-7.44854e-07
8.67796e-06
-7.44766e-07
8.67792e-06
-7.44635e-07
8.68314e-06
-7.44498e-07
8.6773e-06
-7.44345e-07
8.65643e-06
-7.44168e-07
8.62359e-06
-7.43925e-07
8.58293e-06
-7.43638e-07
8.53747e-06
-7.43311e-07
8.489e-06
-7.42945e-07
8.43864e-06
-7.4253e-07
8.38684e-06
-7.4205e-07
8.33332e-06
-7.41489e-07
8.27701e-06
-7.40842e-07
8.21616e-06
-7.40147e-07
8.14864e-06
-7.39519e-07
8.07282e-06
-7.39181e-07
7.98932e-06
7.90342e-06
-7.43598e-07
1.77503e-06
-7.43568e-07
1.86978e-06
-7.43522e-07
1.96937e-06
-7.43474e-07
2.07399e-06
-7.43441e-07
2.18382e-06
-7.43437e-07
2.29901e-06
-7.43468e-07
2.41975e-06
-7.43541e-07
2.54624e-06
-7.4366e-07
2.67868e-06
-7.43827e-07
2.81726e-06
-7.44042e-07
2.96214e-06
-7.44306e-07
3.11341e-06
-7.44615e-07
3.27112e-06
-7.44963e-07
3.43522e-06
-7.45337e-07
3.60549e-06
-7.45713e-07
3.78152e-06
-7.46052e-07
3.96251e-06
-7.46294e-07
4.14713e-06
-7.46374e-07
4.3335e-06
-7.46255e-07
4.51967e-06
-7.46e-07
4.70543e-06
-7.45784e-07
4.8956e-06
-7.45746e-07
5.10262e-06
-7.45788e-07
5.34282e-06
-7.45707e-07
5.62466e-06
-7.45526e-07
5.93953e-06
-7.45444e-07
6.26772e-06
-7.45517e-07
6.59237e-06
-7.45616e-07
6.90624e-06
-7.4562e-07
7.21054e-06
-7.45545e-07
8.76217e-06
-7.45512e-07
8.70451e-06
-7.45477e-07
8.67793e-06
-7.45366e-07
8.67781e-06
-7.45207e-07
8.68299e-06
-7.45037e-07
8.67713e-06
-7.44846e-07
8.65624e-06
-7.44612e-07
8.62335e-06
-7.44315e-07
8.58263e-06
-7.43958e-07
8.53711e-06
-7.43551e-07
8.48859e-06
-7.43096e-07
8.43818e-06
-7.42584e-07
8.38633e-06
-7.41998e-07
8.33274e-06
-7.41326e-07
8.27634e-06
-7.40569e-07
8.2154e-06
-7.39776e-07
8.14785e-06
-7.39081e-07
8.07212e-06
-7.38729e-07
7.98897e-06
7.90371e-06
-7.44087e-07
1.77502e-06
-7.44063e-07
1.86976e-06
-7.44027e-07
1.96933e-06
-7.43991e-07
2.07396e-06
-7.43968e-07
2.1838e-06
-7.43973e-07
2.29901e-06
-7.44014e-07
2.41979e-06
-7.44098e-07
2.54632e-06
-7.44231e-07
2.67881e-06
-7.44414e-07
2.81745e-06
-7.44649e-07
2.96238e-06
-7.44937e-07
3.1137e-06
-7.45273e-07
3.27146e-06
-7.45651e-07
3.43559e-06
-7.46057e-07
3.6059e-06
-7.46464e-07
3.78193e-06
-7.4683e-07
3.96288e-06
-7.47094e-07
4.1474e-06
-7.47186e-07
4.33359e-06
-7.47072e-07
4.51956e-06
-7.46816e-07
4.70517e-06
-7.46592e-07
4.89538e-06
-7.4654e-07
5.10256e-06
-7.46574e-07
5.34285e-06
-7.46497e-07
5.62458e-06
-7.46325e-07
5.93936e-06
-7.46246e-07
6.26764e-06
-7.46319e-07
6.59245e-06
-7.46416e-07
6.90634e-06
-7.46416e-07
7.21054e-06
-7.46329e-07
8.76209e-06
-7.46277e-07
8.70446e-06
-7.46222e-07
8.67787e-06
-7.4609e-07
8.67767e-06
-7.45907e-07
8.6828e-06
-7.45705e-07
8.67693e-06
-7.45475e-07
8.65601e-06
-7.45189e-07
8.62307e-06
-7.44836e-07
8.58228e-06
-7.44414e-07
8.53669e-06
-7.43934e-07
8.48811e-06
-7.43397e-07
8.43764e-06
-7.42795e-07
8.38573e-06
-7.42116e-07
8.33206e-06
-7.41348e-07
8.27557e-06
-7.405e-07
8.21456e-06
-7.39631e-07
8.14698e-06
-7.38888e-07
8.07138e-06
-7.3853e-07
7.98861e-06
7.90403e-06
-7.44758e-07
1.77501e-06
-7.44738e-07
1.86974e-06
-7.44708e-07
1.9693e-06
-7.44679e-07
2.07393e-06
-7.44664e-07
2.18378e-06
-7.44675e-07
2.29902e-06
-7.44723e-07
2.41984e-06
-7.44817e-07
2.54642e-06
-7.4496e-07
2.67896e-06
-7.45157e-07
2.81765e-06
-7.45408e-07
2.96263e-06
-7.45714e-07
3.11401e-06
-7.46071e-07
3.27182e-06
-7.46472e-07
3.436e-06
-7.469e-07
3.60633e-06
-7.47329e-07
3.78236e-06
-7.47715e-07
3.96326e-06
-7.47994e-07
4.14767e-06
-7.48097e-07
4.3337e-06
-7.47992e-07
4.51945e-06
-7.47743e-07
4.70492e-06
-7.47522e-07
4.89516e-06
-7.47465e-07
5.10251e-06
-7.47491e-07
5.34288e-06
-7.47416e-07
5.6245e-06
-7.4725e-07
5.93919e-06
-7.47174e-07
6.26756e-06
-7.47245e-07
6.59252e-06
-7.47339e-07
6.90643e-06
-7.47336e-07
7.21054e-06
-7.47241e-07
8.76199e-06
-7.47171e-07
8.70439e-06
-7.47095e-07
8.6778e-06
-7.46941e-07
8.67752e-06
-7.46733e-07
8.68259e-06
-7.465e-07
8.6767e-06
-7.46231e-07
8.65574e-06
-7.45899e-07
8.62274e-06
-7.45493e-07
8.58187e-06
-7.4501e-07
8.5362e-06
-7.44462e-07
8.48756e-06
-7.43849e-07
8.43703e-06
-7.43166e-07
8.38504e-06
-7.42402e-07
8.33129e-06
-7.4155e-07
8.27472e-06
-7.40625e-07
8.21363e-06
-7.39695e-07
8.14605e-06
-7.38915e-07
8.0706e-06
-7.3855e-07
7.98824e-06
7.90437e-06
-7.45584e-07
1.775e-06
-7.45568e-07
1.86972e-06
-7.45545e-07
1.96928e-06
-7.45522e-07
2.07391e-06
-7.45512e-07
2.18377e-06
-7.45529e-07
2.29904e-06
-7.45584e-07
2.41989e-06
-7.45685e-07
2.54652e-06
-7.45837e-07
2.67911e-06
-7.46045e-07
2.81785e-06
-7.46309e-07
2.96289e-06
-7.4663e-07
3.11433e-06
-7.47004e-07
3.27219e-06
-7.47422e-07
3.43641e-06
-7.47869e-07
3.60678e-06
-7.48316e-07
3.78281e-06
-7.48717e-07
3.96366e-06
-7.49009e-07
4.14797e-06
-7.49124e-07
4.33381e-06
-7.49029e-07
4.51936e-06
-7.48791e-07
4.70468e-06
-7.48577e-07
4.89494e-06
-7.48515e-07
5.10245e-06
-7.48534e-07
5.34289e-06
-7.48458e-07
5.62443e-06
-7.48296e-07
5.93903e-06
-7.48222e-07
6.26749e-06
-7.48294e-07
6.59259e-06
-7.48388e-07
6.90653e-06
-7.48384e-07
7.21054e-06
-7.4828e-07
8.76189e-06
-7.48193e-07
8.7043e-06
-7.48095e-07
8.6777e-06
-7.47919e-07
8.67735e-06
-7.47686e-07
8.68236e-06
-7.47424e-07
8.67644e-06
-7.47118e-07
8.65543e-06
-7.46744e-07
8.62236e-06
-7.46289e-07
8.58142e-06
-7.45749e-07
8.53566e-06
-7.45135e-07
8.48695e-06
-7.44451e-07
8.43635e-06
-7.43693e-07
8.38428e-06
-7.42852e-07
8.33045e-06
-7.41926e-07
8.27379e-06
-7.40933e-07
8.21264e-06
-7.39949e-07
8.14507e-06
-7.39136e-07
8.06979e-06
-7.38758e-07
7.98787e-06
7.90472e-06
-7.46549e-07
1.775e-06
-7.46539e-07
1.86971e-06
-7.46524e-07
1.96926e-06
-7.46509e-07
2.07389e-06
-7.46506e-07
2.18377e-06
-7.46529e-07
2.29906e-06
-7.46589e-07
2.41995e-06
-7.46697e-07
2.54663e-06
-7.46857e-07
2.67927e-06
-7.47074e-07
2.81807e-06
-7.4735e-07
2.96317e-06
-7.47684e-07
3.11466e-06
-7.48072e-07
3.27258e-06
-7.48505e-07
3.43685e-06
-7.48968e-07
3.60724e-06
-7.49431e-07
3.78327e-06
-7.49846e-07
3.96408e-06
-7.5015e-07
4.14827e-06
-7.50275e-07
4.33394e-06
-7.5019e-07
4.51927e-06
-7.49961e-07
4.70446e-06
-7.49751e-07
4.89473e-06
-7.49686e-07
5.10238e-06
-7.49697e-07
5.34291e-06
-7.49621e-07
5.62435e-06
-7.49465e-07
5.93887e-06
-7.49395e-07
6.26742e-06
-7.49469e-07
6.59266e-06
-7.49565e-07
6.90662e-06
-7.4956e-07
7.21053e-06
-7.49448e-07
8.76178e-06
-7.49343e-07
8.70419e-06
-7.49223e-07
8.67758e-06
-7.49026e-07
8.67715e-06
-7.48769e-07
8.68211e-06
-7.48479e-07
8.67615e-06
-7.4814e-07
8.65509e-06
-7.47726e-07
8.62195e-06
-7.47224e-07
8.58091e-06
-7.4663e-07
8.53507e-06
-7.45955e-07
8.48627e-06
-7.45206e-07
8.4356e-06
-7.44378e-07
8.38346e-06
-7.43466e-07
8.32954e-06
-7.4247e-07
8.2728e-06
-7.41416e-07
8.21159e-06
-7.40382e-07
8.14403e-06
-7.39534e-07
8.06894e-06
-7.39134e-07
7.98747e-06
7.90505e-06
-7.47649e-07
1.775e-06
-7.47646e-07
1.86971e-06
-7.4764e-07
1.96926e-06
-7.47634e-07
2.07389e-06
-7.4764e-07
2.18377e-06
-7.4767e-07
2.29909e-06
-7.47737e-07
2.42002e-06
-7.47852e-07
2.54674e-06
-7.4802e-07
2.67944e-06
-7.48246e-07
2.8183e-06
-7.48531e-07
2.96345e-06
-7.48876e-07
3.11501e-06
-7.49277e-07
3.27298e-06
-7.49725e-07
3.4373e-06
-7.50202e-07
3.60772e-06
-7.50678e-07
3.78375e-06
-7.51106e-07
3.96451e-06
-7.51421e-07
4.14859e-06
-7.51554e-07
4.33407e-06
-7.51476e-07
4.51919e-06
-7.51253e-07
4.70423e-06
-7.51045e-07
4.89452e-06
-7.50975e-07
5.10231e-06
-7.50981e-07
5.34291e-06
-7.50907e-07
5.62427e-06
-7.5076e-07
5.93873e-06
-7.50697e-07
6.26736e-06
-7.50774e-07
6.59274e-06
-7.50872e-07
6.90672e-06
-7.50865e-07
7.21053e-06
-7.50744e-07
8.76165e-06
-7.50622e-07
8.70407e-06
-7.50482e-07
8.67744e-06
-7.50265e-07
8.67693e-06
-7.49987e-07
8.68183e-06
-7.49671e-07
8.67583e-06
-7.493e-07
8.65472e-06
-7.48848e-07
8.62149e-06
-7.48301e-07
8.58037e-06
-7.47657e-07
8.53443e-06
-7.46925e-07
8.48554e-06
-7.46113e-07
8.43479e-06
-7.4522e-07
8.38256e-06
-7.44241e-07
8.32856e-06
-7.43181e-07
8.27174e-06
-7.42068e-07
8.21047e-06
-7.40984e-07
8.14295e-06
-7.40098e-07
8.06805e-06
-7.39667e-07
7.98704e-06
7.90534e-06
-7.48882e-07
1.775e-06
-7.48887e-07
1.86971e-06
-7.48891e-07
1.96926e-06
-7.48896e-07
2.07389e-06
-7.48912e-07
2.18379e-06
-7.48951e-07
2.29913e-06
-7.49026e-07
2.4201e-06
-7.49148e-07
2.54686e-06
-7.49324e-07
2.67962e-06
-7.49558e-07
2.81853e-06
-7.49853e-07
2.96375e-06
-7.50209e-07
3.11536e-06
-7.50621e-07
3.27339e-06
-7.51082e-07
3.43776e-06
-7.51572e-07
3.60821e-06
-7.52061e-07
3.78424e-06
-7.525e-07
3.96495e-06
-7.52823e-07
4.14891e-06
-7.52961e-07
4.33421e-06
-7.52888e-07
4.51912e-06
-7.52668e-07
4.70401e-06
-7.52459e-07
4.89431e-06
-7.52384e-07
5.10223e-06
-7.52387e-07
5.34291e-06
-7.52319e-07
5.62421e-06
-7.52184e-07
5.93859e-06
-7.5213e-07
6.2673e-06
-7.52212e-07
6.59282e-06
-7.52311e-07
6.90682e-06
-7.52302e-07
7.21052e-06
-7.52171e-07
8.76152e-06
-7.52032e-07
8.70393e-06
-7.51874e-07
8.67728e-06
-7.51639e-07
8.6767e-06
-7.51341e-07
8.68153e-06
-7.51002e-07
8.67549e-06
-7.50602e-07
8.65432e-06
-7.50113e-07
8.62101e-06
-7.49524e-07
8.57978e-06
-7.48832e-07
8.53373e-06
-7.48046e-07
8.48475e-06
-7.47175e-07
8.43391e-06
-7.46219e-07
8.38161e-06
-7.45178e-07
8.32752e-06
-7.44056e-07
8.27062e-06
-7.42886e-07
8.2093e-06
-7.41752e-07
8.14181e-06
-7.40821e-07
8.06712e-06
-7.40349e-07
7.98656e-06
7.90559e-06
-7.50247e-07
1.77501e-06
-7.50261e-07
1.86973e-06
-7.50275e-07
1.96927e-06
-7.50293e-07
2.07391e-06
-7.5032e-07
2.18382e-06
-7.5037e-07
2.29918e-06
-7.50455e-07
2.42018e-06
-7.50585e-07
2.54699e-06
-7.50769e-07
2.6798e-06
-7.51012e-07
2.81878e-06
-7.51316e-07
2.96405e-06
-7.51682e-07
3.11573e-06
-7.52106e-07
3.27382e-06
-7.52578e-07
3.43823e-06
-7.5308e-07
3.60871e-06
-7.53581e-07
3.78474e-06
-7.54029e-07
3.9654e-06
-7.54359e-07
4.14924e-06
-7.54501e-07
4.33435e-06
-7.54428e-07
4.51905e-06
-7.54207e-07
4.70379e-06
-7.53994e-07
4.8941e-06
-7.53913e-07
5.10215e-06
-7.53914e-07
5.34292e-06
-7.53857e-07
5.62415e-06
-7.53738e-07
5.93847e-06
-7.53698e-07
6.26726e-06
-7.53785e-07
6.59291e-06
-7.53885e-07
6.90692e-06
-7.53872e-07
7.2105e-06
-7.5373e-07
8.76138e-06
-7.53575e-07
8.70378e-06
-7.53401e-07
8.67711e-06
-7.53151e-07
8.67645e-06
-7.52836e-07
8.68121e-06
-7.52475e-07
8.67513e-06
-7.52048e-07
8.6539e-06
-7.51525e-07
8.62048e-06
-7.50896e-07
8.57915e-06
-7.50157e-07
8.533e-06
-7.4932e-07
8.48392e-06
-7.48393e-07
8.43299e-06
-7.47378e-07
8.38059e-06
-7.46276e-07
8.32642e-06
-7.45094e-07
8.26944e-06
-7.43867e-07
8.20808e-06
-7.42679e-07
8.14063e-06
-7.41699e-07
8.06614e-06
-7.41174e-07
7.98604e-06
7.90577e-06
-7.51747e-07
1.77503e-06
-7.51769e-07
1.86975e-06
-7.51795e-07
1.9693e-06
-7.51825e-07
2.07394e-06
-7.51866e-07
2.18386e-06
-7.51928e-07
2.29924e-06
-7.52023e-07
2.42028e-06
-7.52163e-07
2.54713e-06
-7.52356e-07
2.67999e-06
-7.52608e-07
2.81903e-06
-7.52922e-07
2.96437e-06
-7.53298e-07
3.11611e-06
-7.53733e-07
3.27425e-06
-7.54217e-07
3.43871e-06
-7.5473e-07
3.60922e-06
-7.5524e-07
3.78525e-06
-7.55697e-07
3.96585e-06
-7.56031e-07
4.14957e-06
-7.56173e-07
4.33449e-06
-7.56098e-07
4.51897e-06
-7.55872e-07
4.70357e-06
-7.55652e-07
4.89388e-06
-7.55563e-07
5.10206e-06
-7.55564e-07
5.34292e-06
-7.55522e-07
5.62411e-06
-7.55426e-07
5.93838e-06
-7.55402e-07
6.26724e-06
-7.55497e-07
6.593e-06
-7.55597e-07
6.90702e-06
-7.55579e-07
7.21048e-06
-7.55423e-07
8.76122e-06
-7.55253e-07
8.70361e-06
-7.55064e-07
8.67692e-06
-7.54802e-07
8.67618e-06
-7.54474e-07
8.68089e-06
-7.54094e-07
8.67475e-06
-7.53641e-07
8.65344e-06
-7.53087e-07
8.61993e-06
-7.52418e-07
8.57848e-06
-7.51636e-07
8.53221e-06
-7.5075e-07
8.48303e-06
-7.49769e-07
8.43201e-06
-7.48697e-07
8.37952e-06
-7.47535e-07
8.32526e-06
-7.46294e-07
8.26819e-06
-7.45008e-07
8.20679e-06
-7.43763e-07
8.13938e-06
-7.42726e-07
8.0651e-06
-7.42137e-07
7.98545e-06
7.90587e-06
-7.53388e-07
1.77504e-06
-7.53418e-07
1.86978e-06
-7.53454e-07
1.96934e-06
-7.53497e-07
2.07398e-06
-7.53551e-07
2.18391e-06
-7.53625e-07
2.29932e-06
-7.53731e-07
2.42038e-06
-7.53881e-07
2.54728e-06
-7.54084e-07
2.6802e-06
-7.54346e-07
2.81929e-06
-7.5467e-07
2.96469e-06
-7.55057e-07
3.11649e-06
-7.55502e-07
3.2747e-06
-7.55996e-07
3.43921e-06
-7.5652e-07
3.60975e-06
-7.5704e-07
3.78577e-06
-7.57503e-07
3.96632e-06
-7.57839e-07
4.14991e-06
-7.5798e-07
4.33463e-06
-7.57899e-07
4.51889e-06
-7.57665e-07
4.70333e-06
-7.57435e-07
4.89365e-06
-7.57337e-07
5.10196e-06
-7.5734e-07
5.34292e-06
-7.57315e-07
5.62408e-06
-7.57246e-07
5.93831e-06
-7.57244e-07
6.26724e-06
-7.57348e-07
6.59311e-06
-7.57448e-07
6.90712e-06
-7.57423e-07
7.21046e-06
-7.57254e-07
8.76105e-06
-7.57067e-07
8.70342e-06
-7.56865e-07
8.67672e-06
-7.56595e-07
8.67591e-06
-7.56256e-07
8.68055e-06
-7.5586e-07
8.67436e-06
-7.55384e-07
8.65297e-06
-7.54799e-07
8.61935e-06
-7.54094e-07
8.57778e-06
-7.5327e-07
8.53139e-06
-7.52337e-07
8.4821e-06
-7.51303e-07
8.43098e-06
-7.50175e-07
8.3784e-06
-7.48955e-07
8.32404e-06
-7.47653e-07
8.26689e-06
-7.46307e-07
8.20544e-06
-7.45001e-07
8.13808e-06
-7.43899e-07
8.064e-06
-7.43237e-07
7.98479e-06
7.90588e-06
-7.55179e-07
1.77507e-06
-7.55214e-07
1.86981e-06
-7.55257e-07
1.96938e-06
-7.5531e-07
2.07403e-06
-7.55374e-07
2.18398e-06
-7.5546e-07
2.2994e-06
-7.55577e-07
2.4205e-06
-7.55738e-07
2.54744e-06
-7.55951e-07
2.68041e-06
-7.56223e-07
2.81956e-06
-7.56557e-07
2.96503e-06
-7.56954e-07
3.11689e-06
-7.5741e-07
3.27516e-06
-7.57915e-07
3.43971e-06
-7.58449e-07
3.61028e-06
-7.58977e-07
3.7863e-06
-7.59445e-07
3.96678e-06
-7.59783e-07
4.15025e-06
-7.5992e-07
4.33477e-06
-7.59833e-07
4.5188e-06
-7.5959e-07
4.70309e-06
-7.59349e-07
4.89341e-06
-7.59241e-07
5.10186e-06
-7.59246e-07
5.34292e-06
-7.5924e-07
5.62408e-06
-7.592e-07
5.93826e-06
-7.59221e-07
6.26726e-06
-7.59338e-07
6.59322e-06
-7.59438e-07
6.90722e-06
-7.59407e-07
7.21043e-06
-7.59224e-07
8.76087e-06
-7.59021e-07
8.70322e-06
-7.58808e-07
8.6765e-06
-7.58532e-07
8.67564e-06
-7.58186e-07
8.6802e-06
-7.57776e-07
8.67395e-06
-7.57279e-07
8.65247e-06
-7.56666e-07
8.61873e-06
-7.55925e-07
8.57704e-06
-7.55061e-07
8.53053e-06
-7.54082e-07
8.48112e-06
-7.52998e-07
8.42989e-06
-7.51814e-07
8.37721e-06
-7.50535e-07
8.32276e-06
-7.49172e-07
8.26553e-06
-7.47762e-07
8.20403e-06
-7.4639e-07
8.1367e-06
-7.45217e-07
8.06283e-06
-7.4447e-07
7.98404e-06
7.90578e-06
-7.5712e-07
1.77509e-06
-7.57158e-07
1.86985e-06
-7.57206e-07
1.96943e-06
-7.57265e-07
2.07409e-06
-7.57337e-07
2.18405e-06
-7.57432e-07
2.2995e-06
-7.57559e-07
2.42063e-06
-7.5773e-07
2.54761e-06
-7.57952e-07
2.68063e-06
-7.58234e-07
2.81984e-06
-7.58579e-07
2.96537e-06
-7.58986e-07
3.1173e-06
-7.59453e-07
3.27562e-06
-7.59969e-07
3.44023e-06
-7.60512e-07
3.61082e-06
-7.61048e-07
3.78683e-06
-7.61521e-07
3.96726e-06
-7.61859e-07
4.15059e-06
-7.61993e-07
4.3349e-06
-7.61899e-07
4.51871e-06
-7.61649e-07
4.70284e-06
-7.61398e-07
4.89316e-06
-7.61283e-07
5.10174e-06
-7.61289e-07
5.34293e-06
-7.61301e-07
5.62409e-06
-7.61288e-07
5.93825e-06
-7.61333e-07
6.2673e-06
-7.61463e-07
6.59335e-06
-7.61566e-07
6.90732e-06
-7.61531e-07
7.21039e-06
-7.61336e-07
8.76068e-06
-7.61118e-07
8.703e-06
-7.60896e-07
8.67628e-06
-7.60615e-07
8.67535e-06
-7.60264e-07
8.67985e-06
-7.59842e-07
8.67352e-06
-7.59326e-07
8.65195e-06
-7.58687e-07
8.61809e-06
-7.57913e-07
8.57627e-06
-7.57011e-07
8.52963e-06
-7.55987e-07
8.4801e-06
-7.54853e-07
8.42876e-06
-7.53614e-07
8.37597e-06
-7.52276e-07
8.32142e-06
-7.5085e-07
8.2641e-06
-7.49373e-07
8.20256e-06
-7.4793e-07
8.13526e-06
-7.46678e-07
8.06158e-06
-7.45839e-07
7.9832e-06
7.90557e-06
-7.59209e-07
1.77511e-06
-7.59247e-07
1.86989e-06
-7.59297e-07
1.96948e-06
-7.59359e-07
2.07416e-06
-7.59437e-07
2.18413e-06
-7.59539e-07
2.2996e-06
-7.59674e-07
2.42076e-06
-7.59854e-07
2.54779e-06
-7.60086e-07
2.68087e-06
-7.60377e-07
2.82013e-06
-7.60732e-07
2.96573e-06
-7.6115e-07
3.11772e-06
-7.61627e-07
3.2761e-06
-7.62153e-07
3.44076e-06
-7.62706e-07
3.61138e-06
-7.63249e-07
3.78737e-06
-7.63726e-07
3.96773e-06
-7.64065e-07
4.15092e-06
-7.64196e-07
4.33504e-06
-7.64099e-07
4.51861e-06
-7.63843e-07
4.70258e-06
-7.63587e-07
4.8929e-06
-7.63466e-07
5.10162e-06
-7.63472e-07
5.34294e-06
-7.63498e-07
5.62411e-06
-7.6351e-07
5.93826e-06
-7.63579e-07
6.26737e-06
-7.63723e-07
6.59349e-06
-7.63832e-07
6.90743e-06
-7.63795e-07
7.21035e-06
-7.63591e-07
8.76047e-06
-7.63362e-07
8.70277e-06
-7.63131e-07
8.67605e-06
-7.62846e-07
8.67507e-06
-7.62491e-07
8.67949e-06
-7.6206e-07
8.67309e-06
-7.61528e-07
8.65142e-06
-7.60864e-07
8.61743e-06
-7.6006e-07
8.57546e-06
-7.59121e-07
8.52869e-06
-7.58054e-07
8.47903e-06
-7.56871e-07
8.42757e-06
-7.55577e-07
8.37468e-06
-7.54178e-07
8.32002e-06
-7.52687e-07
8.26261e-06
-7.51139e-07
8.20101e-06
-7.4962e-07
8.13374e-06
-7.48283e-07
8.06024e-06
-7.47343e-07
7.98226e-06
7.90523e-06
-7.61434e-07
1.77514e-06
-7.61474e-07
1.86993e-06
-7.61525e-07
1.96953e-06
-7.6159e-07
2.07422e-06
-7.61672e-07
2.18421e-06
-7.61779e-07
2.29971e-06
-7.61922e-07
2.42091e-06
-7.6211e-07
2.54798e-06
-7.62351e-07
2.68111e-06
-7.62651e-07
2.82044e-06
-7.63015e-07
2.96609e-06
-7.63443e-07
3.11814e-06
-7.6393e-07
3.27659e-06
-7.64466e-07
3.44129e-06
-7.65028e-07
3.61194e-06
-7.65578e-07
3.78792e-06
-7.6606e-07
3.96822e-06
-7.664e-07
4.15127e-06
-7.6653e-07
4.33517e-06
-7.66431e-07
4.51851e-06
-7.66174e-07
4.70233e-06
-7.65915e-07
4.89265e-06
-7.65789e-07
5.10149e-06
-7.65796e-07
5.34294e-06
-7.65834e-07
5.62415e-06
-7.65868e-07
5.9383e-06
-7.65959e-07
6.26746e-06
-7.66118e-07
6.59365e-06
-7.66235e-07
6.90755e-06
-7.66201e-07
7.21032e-06
-7.65992e-07
8.76026e-06
-7.65753e-07
8.70253e-06
-7.65515e-07
8.67581e-06
-7.65227e-07
8.67478e-06
-7.6487e-07
8.67914e-06
-7.64432e-07
8.67266e-06
-7.63885e-07
8.65088e-06
-7.63201e-07
8.61675e-06
-7.62368e-07
8.57463e-06
-7.61393e-07
8.52771e-06
-7.60285e-07
8.47792e-06
-7.59053e-07
8.42634e-06
-7.57703e-07
8.37333e-06
-7.56243e-07
8.31856e-06
-7.54684e-07
8.26105e-06
-7.53063e-07
8.19939e-06
-7.51463e-07
8.13214e-06
-7.50034e-07
8.05881e-06
-7.48985e-07
7.98121e-06
7.90476e-06
-7.63789e-07
1.77516e-06
-7.63831e-07
1.86997e-06
-7.63885e-07
1.96958e-06
-7.63952e-07
2.07429e-06
-7.64039e-07
2.1843e-06
-7.64152e-07
2.29982e-06
-7.64302e-07
2.42105e-06
-7.64497e-07
2.54818e-06
-7.64746e-07
2.68136e-06
-7.65056e-07
2.82074e-06
-7.65429e-07
2.96646e-06
-7.65867e-07
3.11858e-06
-7.66364e-07
3.27708e-06
-7.66909e-07
3.44184e-06
-7.6748e-07
3.61251e-06
-7.68037e-07
3.78848e-06
-7.68523e-07
3.9687e-06
-7.68865e-07
4.15161e-06
-7.68996e-07
4.3353e-06
-7.68897e-07
4.51842e-06
-7.6864e-07
4.70207e-06
-7.6838e-07
4.89239e-06
-7.68251e-07
5.10137e-06
-7.68258e-07
5.34295e-06
-7.68308e-07
5.6242e-06
-7.68363e-07
5.93835e-06
-7.68476e-07
6.26757e-06
-7.68651e-07
6.59383e-06
-7.68779e-07
6.90767e-06
-7.68749e-07
7.21028e-06
-7.68538e-07
8.76005e-06
-7.68292e-07
8.70228e-06
-7.68048e-07
8.67557e-06
-7.67761e-07
8.67449e-06
-7.67403e-07
8.67878e-06
-7.6696e-07
8.67221e-06
-7.66402e-07
8.65032e-06
-7.65698e-07
8.61604e-06
-7.64839e-07
8.57377e-06
-7.6383e-07
8.5267e-06
-7.62681e-07
8.47678e-06
-7.61401e-07
8.42506e-06
-7.59996e-07
8.37193e-06
-7.58474e-07
8.31704e-06
-7.56845e-07
8.25943e-06
-7.55147e-07
8.19769e-06
-7.5346e-07
8.13046e-06
-7.51933e-07
8.05728e-06
-7.50766e-07
7.98005e-06
7.90414e-06
-7.66269e-07
1.77519e-06
-7.66313e-07
1.87002e-06
-7.66371e-07
1.96964e-06
-7.66444e-07
2.07436e-06
-7.66537e-07
2.18439e-06
-7.66657e-07
2.29994e-06
-7.66814e-07
2.42121e-06
-7.67017e-07
2.54838e-06
-7.67274e-07
2.68161e-06
-7.67592e-07
2.82106e-06
-7.67975e-07
2.96685e-06
-7.68422e-07
3.11903e-06
-7.68929e-07
3.27759e-06
-7.69484e-07
3.44239e-06
-7.70063e-07
3.61309e-06
-7.70627e-07
3.78905e-06
-7.71118e-07
3.96919e-06
-7.71463e-07
4.15195e-06
-7.71594e-07
4.33543e-06
-7.71495e-07
4.51832e-06
-7.71239e-07
4.70182e-06
-7.70979e-07
4.89213e-06
-7.70848e-07
5.10124e-06
-7.70856e-07
5.34296e-06
-7.70919e-07
5.62426e-06
-7.70996e-07
5.93843e-06
-7.71132e-07
6.26771e-06
-7.71325e-07
6.59402e-06
-7.71464e-07
6.90781e-06
-7.7144e-07
7.21026e-06
-7.7123e-07
8.75984e-06
-7.70979e-07
8.70203e-06
-7.70733e-07
8.67532e-06
-7.70447e-07
8.67421e-06
-7.70092e-07
8.67842e-06
-7.69647e-07
8.67177e-06
-7.69079e-07
8.64975e-06
-7.68359e-07
8.61532e-06
-7.67475e-07
8.57289e-06
-7.66434e-07
8.52566e-06
-7.65246e-07
8.47559e-06
-7.63918e-07
8.42373e-06
-7.62458e-07
8.37047e-06
-7.60872e-07
8.31545e-06
-7.59171e-07
8.25773e-06
-7.57392e-07
8.19591e-06
-7.55615e-07
8.12868e-06
-7.53982e-07
8.05565e-06
-7.52691e-07
7.97876e-06
7.90337e-06
-7.68872e-07
1.77522e-06
-7.6892e-07
1.87006e-06
-7.68984e-07
1.96971e-06
-7.69064e-07
2.07444e-06
-7.69164e-07
2.18449e-06
-7.69292e-07
2.30007e-06
-7.69457e-07
2.42138e-06
-7.69668e-07
2.54859e-06
-7.69934e-07
2.68188e-06
-7.70262e-07
2.82139e-06
-7.70653e-07
2.96724e-06
-7.7111e-07
3.11948e-06
-7.71627e-07
3.27811e-06
-7.72192e-07
3.44296e-06
-7.7278e-07
3.61368e-06
-7.73352e-07
3.78962e-06
-7.73848e-07
3.96969e-06
-7.74194e-07
4.1523e-06
-7.74326e-07
4.33556e-06
-7.74227e-07
4.51822e-06
-7.73971e-07
4.70156e-06
-7.73709e-07
4.89186e-06
-7.73576e-07
5.1011e-06
-7.73589e-07
5.34297e-06
-7.73666e-07
5.62434e-06
-7.73767e-07
5.93853e-06
-7.73928e-07
6.26787e-06
-7.74141e-07
6.59423e-06
-7.74293e-07
6.90796e-06
-7.74276e-07
7.21024e-06
-7.74069e-07
8.75963e-06
-7.73815e-07
8.70178e-06
-7.73569e-07
8.67508e-06
-7.73289e-07
8.67393e-06
-7.72939e-07
8.67807e-06
-7.72494e-07
8.67132e-06
-7.7192e-07
8.64918e-06
-7.71185e-07
8.61459e-06
-7.70279e-07
8.57198e-06
-7.69207e-07
8.52459e-06
-7.67981e-07
8.47436e-06
-7.66607e-07
8.42236e-06
-7.65091e-07
8.36895e-06
-7.6344e-07
8.3138e-06
-7.61666e-07
8.25595e-06
-7.59803e-07
8.19405e-06
-7.57929e-07
8.1268e-06
-7.56185e-07
8.05391e-06
-7.54761e-07
7.97733e-06
7.90243e-06
-7.71599e-07
1.77525e-06
-7.71653e-07
1.87012e-06
-7.71723e-07
1.96978e-06
-7.7181e-07
2.07453e-06
-7.71919e-07
2.1846e-06
-7.72055e-07
2.30021e-06
-7.7223e-07
2.42155e-06
-7.7245e-07
2.54881e-06
-7.72725e-07
2.68215e-06
-7.73062e-07
2.82173e-06
-7.73464e-07
2.96764e-06
-7.73931e-07
3.11995e-06
-7.74458e-07
3.27864e-06
-7.75033e-07
3.44353e-06
-7.75631e-07
3.61427e-06
-7.7621e-07
3.7902e-06
-7.76711e-07
3.97019e-06
-7.7706e-07
4.15265e-06
-7.77192e-07
4.33569e-06
-7.77092e-07
4.51812e-06
-7.76833e-07
4.7013e-06
-7.76569e-07
4.8916e-06
-7.76436e-07
5.10097e-06
-7.76454e-07
5.34299e-06
-7.76548e-07
5.62444e-06
-7.76677e-07
5.93866e-06
-7.76866e-07
6.26806e-06
-7.77101e-07
6.59447e-06
-7.77267e-07
6.90813e-06
-7.77258e-07
7.21023e-06
-7.77054e-07
8.75943e-06
-7.76801e-07
8.70152e-06
-7.76558e-07
8.67483e-06
-7.76287e-07
8.67366e-06
-7.75946e-07
8.67773e-06
-7.75505e-07
8.67088e-06
-7.74926e-07
8.6486e-06
-7.7418e-07
8.61384e-06
-7.73253e-07
8.57105e-06
-7.72153e-07
8.52349e-06
-7.70889e-07
8.4731e-06
-7.69469e-07
8.42094e-06
-7.67898e-07
8.36738e-06
-7.66182e-07
8.31209e-06
-7.64332e-07
8.2541e-06
-7.62382e-07
8.1921e-06
-7.60408e-07
8.12483e-06
-7.58546e-07
8.05205e-06
-7.56982e-07
7.97577e-06
7.90133e-06
-7.74451e-07
1.77529e-06
-7.7451e-07
1.87018e-06
-7.74588e-07
1.96985e-06
-7.74683e-07
2.07462e-06
-7.748e-07
2.18472e-06
-7.74946e-07
2.30035e-06
-7.7513e-07
2.42173e-06
-7.7536e-07
2.54904e-06
-7.75645e-07
2.68244e-06
-7.75992e-07
2.82207e-06
-7.76404e-07
2.96805e-06
-7.76881e-07
3.12043e-06
-7.7742e-07
3.27917e-06
-7.78006e-07
3.44412e-06
-7.78614e-07
3.61488e-06
-7.79202e-07
3.79079e-06
-7.79709e-07
3.9707e-06
-7.8006e-07
4.153e-06
-7.80191e-07
4.33583e-06
-7.80089e-07
4.51802e-06
-7.79827e-07
4.70104e-06
-7.79561e-07
4.89133e-06
-7.79427e-07
5.10084e-06
-7.79452e-07
5.34301e-06
-7.79567e-07
5.62455e-06
-7.79725e-07
5.93882e-06
-7.79945e-07
6.26828e-06
-7.80203e-07
6.59472e-06
-7.80386e-07
6.90831e-06
-7.80386e-07
7.21024e-06
-7.80187e-07
8.75923e-06
-7.79937e-07
8.70127e-06
-7.79702e-07
8.6746e-06
-7.79442e-07
8.6734e-06
-7.79113e-07
8.6774e-06
-7.7868e-07
8.67045e-06
-7.78101e-07
8.64802e-06
-7.77345e-07
8.61309e-06
-7.764e-07
8.57011e-06
-7.75273e-07
8.52236e-06
-7.73974e-07
8.4718e-06
-7.72509e-07
8.41948e-06
-7.70883e-07
8.36576e-06
-7.69101e-07
8.3103e-06
-7.67174e-07
8.25218e-06
-7.65133e-07
8.19006e-06
-7.63055e-07
8.12275e-06
-7.6107e-07
8.05006e-06
-7.59358e-07
7.97406e-06
7.90005e-06
-7.77428e-07
1.77533e-06
-7.77493e-07
1.87024e-06
-7.77577e-07
1.96994e-06
-7.7768e-07
2.07473e-06
-7.77806e-07
2.18484e-06
-7.77962e-07
2.30051e-06
-7.78155e-07
2.42193e-06
-7.78395e-07
2.54928e-06
-7.7869e-07
2.68273e-06
-7.79047e-07
2.82243e-06
-7.79471e-07
2.96847e-06
-7.7996e-07
3.12092e-06
-7.8051e-07
3.27972e-06
-7.81108e-07
3.44471e-06
-7.81727e-07
3.6155e-06
-7.82324e-07
3.79138e-06
-7.82837e-07
3.97121e-06
-7.83192e-07
4.15336e-06
-7.83322e-07
4.33596e-06
-7.83217e-07
4.51791e-06
-7.82953e-07
4.70078e-06
-7.82683e-07
4.89106e-06
-7.8255e-07
5.1007e-06
-7.82585e-07
5.34305e-06
-7.82721e-07
5.62469e-06
-7.82911e-07
5.93901e-06
-7.83163e-07
6.26853e-06
-7.83448e-07
6.59501e-06
-7.83648e-07
6.90851e-06
-7.83661e-07
7.21025e-06
-7.83469e-07
8.75904e-06
-7.83225e-07
8.70103e-06
-7.83001e-07
8.67437e-06
-7.82757e-07
8.67315e-06
-7.82444e-07
8.67709e-06
-7.82021e-07
8.67002e-06
-7.81444e-07
8.64744e-06
-7.80682e-07
8.61232e-06
-7.79723e-07
8.56915e-06
-7.78572e-07
8.52121e-06
-7.77238e-07
8.47046e-06
-7.7573e-07
8.41797e-06
-7.7405e-07
8.36408e-06
-7.72201e-07
8.30846e-06
-7.70195e-07
8.25017e-06