/*--------------------------------*- C++ -*----------------------------------*\
  =========                 |
  \\      /  F ield         | OpenFOAM: The Open Source CFD Toolbox
   \\    /   O peration     | Website:  https://openfoam.org
    \\  /    A nd           | Version:  9
     \\/     M anipulation  |
\*---------------------------------------------------------------------------*/
FoamFile
{
    format      ascii;
    class       volScalarField;
    location    "0.1";
    object      rAU;
}
// * * * * * * * * * * * * * * * * * * * * * * * * * * * * * * * * * * * * * //

dimensions      [-1 3 1 0 0 0 0];

internalField   nonuniform List<scalar> 
5000
(
1.83742e-05
1.73345e-05
1.75496e-05
1.77504e-05
1.79376e-05
1.81119e-05
1.82744e-05
1.84256e-05
1.85665e-05
1.8698e-05
1.8821e-05
1.89364e-05
1.90454e-05
1.91492e-05
1.92491e-05
1.93468e-05
1.94444e-05
1.95446e-05
1.96509e-05
1.97667e-05
1.98927e-05
2.00215e-05
2.0134e-05
2.0206e-05
2.02293e-05
2.02233e-05
2.02193e-05
2.02384e-05
2.02865e-05
2.03672e-05
2.05363e-05
2.05982e-05
2.06238e-05
2.06237e-05
2.06184e-05
2.06235e-05
2.06429e-05
2.06737e-05
2.0712e-05
2.07552e-05
2.08015e-05
2.08498e-05
2.08998e-05
2.09516e-05
2.10063e-05
2.10656e-05
2.1132e-05
2.12073e-05
2.12914e-05
2.13795e-05
2.3674e-05
2.20029e-05
2.2376e-05
2.27285e-05
2.3061e-05
2.3374e-05
2.36684e-05
2.39448e-05
2.42042e-05
2.44475e-05
2.46757e-05
2.48899e-05
2.50911e-05
2.52806e-05
2.54598e-05
2.56303e-05
2.57937e-05
2.59526e-05
2.61095e-05
2.62671e-05
2.64262e-05
2.6582e-05
2.67222e-05
2.68312e-05
2.69039e-05
2.69533e-05
2.70001e-05
2.70588e-05
2.71338e-05
2.72367e-05
2.74751e-05
2.75244e-05
2.75415e-05
2.75415e-05
2.75379e-05
2.75414e-05
2.75544e-05
2.7575e-05
2.76006e-05
2.76294e-05
2.76602e-05
2.76923e-05
2.77254e-05
2.77597e-05
2.77958e-05
2.78349e-05
2.78785e-05
2.79278e-05
2.79825e-05
2.80393e-05
2.36742e-05
2.2003e-05
2.23762e-05
2.27287e-05
2.30611e-05
2.33742e-05
2.36684e-05
2.39448e-05
2.42042e-05
2.44474e-05
2.46755e-05
2.48895e-05
2.50906e-05
2.528e-05
2.54591e-05
2.56295e-05
2.57929e-05
2.59518e-05
2.61088e-05
2.62666e-05
2.64259e-05
2.65817e-05
2.67217e-05
2.68306e-05
2.69035e-05
2.6953e-05
2.69998e-05
2.70585e-05
2.71334e-05
2.72364e-05
2.74748e-05
2.75241e-05
2.75412e-05
2.75413e-05
2.75378e-05
2.75412e-05
2.75543e-05
2.75749e-05
2.76006e-05
2.76295e-05
2.76603e-05
2.76925e-05
2.77257e-05
2.77601e-05
2.77963e-05
2.78356e-05
2.78793e-05
2.79287e-05
2.79833e-05
2.80399e-05
2.3674e-05
2.20029e-05
2.23761e-05
2.27286e-05
2.3061e-05
2.3374e-05
2.36682e-05
2.39445e-05
2.42038e-05
2.44469e-05
2.46749e-05
2.48888e-05
2.50898e-05
2.52791e-05
2.54582e-05
2.56285e-05
2.57919e-05
2.59508e-05
2.6108e-05
2.6266e-05
2.64254e-05
2.65812e-05
2.67211e-05
2.683e-05
2.69031e-05
2.69528e-05
2.69995e-05
2.7058e-05
2.71329e-05
2.72359e-05
2.74745e-05
2.75238e-05
2.75409e-05
2.7541e-05
2.75376e-05
2.75411e-05
2.75541e-05
2.75748e-05
2.76006e-05
2.76295e-05
2.76604e-05
2.76927e-05
2.7726e-05
2.77604e-05
2.77968e-05
2.78362e-05
2.78801e-05
2.79295e-05
2.7984e-05
2.80402e-05
2.36735e-05
2.20025e-05
2.23757e-05
2.27282e-05
2.30606e-05
2.33735e-05
2.36676e-05
2.39439e-05
2.4203e-05
2.44461e-05
2.4674e-05
2.48878e-05
2.50887e-05
2.5278e-05
2.54569e-05
2.56272e-05
2.57907e-05
2.59497e-05
2.61071e-05
2.62653e-05
2.64249e-05
2.65807e-05
2.67204e-05
2.68293e-05
2.69026e-05
2.69524e-05
2.6999e-05
2.70574e-05
2.71323e-05
2.72354e-05
2.74741e-05
2.75234e-05
2.75406e-05
2.75407e-05
2.75373e-05
2.75408e-05
2.75539e-05
2.75746e-05
2.76005e-05
2.76295e-05
2.76605e-05
2.76928e-05
2.77262e-05
2.77608e-05
2.77973e-05
2.78368e-05
2.78808e-05
2.79302e-05
2.79845e-05
2.80403e-05
2.36725e-05
2.20017e-05
2.2375e-05
2.27275e-05
2.30598e-05
2.33726e-05
2.36667e-05
2.39429e-05
2.4202e-05
2.44449e-05
2.46727e-05
2.48865e-05
2.50874e-05
2.52766e-05
2.54555e-05
2.56257e-05
2.57893e-05
2.59484e-05
2.6106e-05
2.62645e-05
2.64243e-05
2.65801e-05
2.67197e-05
2.68286e-05
2.6902e-05
2.69519e-05
2.69984e-05
2.70567e-05
2.71316e-05
2.72348e-05
2.74737e-05
2.75229e-05
2.75401e-05
2.75404e-05
2.7537e-05
2.75405e-05
2.75536e-05
2.75744e-05
2.76003e-05
2.76294e-05
2.76605e-05
2.76929e-05
2.77264e-05
2.77611e-05
2.77977e-05
2.78373e-05
2.78814e-05
2.79307e-05
2.79849e-05
2.80403e-05
2.3671e-05
2.20006e-05
2.23738e-05
2.27264e-05
2.30587e-05
2.33715e-05
2.36655e-05
2.39416e-05
2.42006e-05
2.44435e-05
2.46713e-05
2.4885e-05
2.50858e-05
2.52749e-05
2.54538e-05
2.56241e-05
2.57877e-05
2.5947e-05
2.61048e-05
2.62636e-05
2.64236e-05
2.65794e-05
2.67188e-05
2.68277e-05
2.69012e-05
2.69512e-05
2.69977e-05
2.70559e-05
2.71308e-05
2.72341e-05
2.74732e-05
2.75224e-05
2.75396e-05
2.75399e-05
2.75366e-05
2.75401e-05
2.75533e-05
2.75742e-05
2.76001e-05
2.76293e-05
2.76605e-05
2.7693e-05
2.77265e-05
2.77613e-05
2.77981e-05
2.78378e-05
2.78819e-05
2.79312e-05
2.79851e-05
2.80401e-05
2.36692e-05
2.19991e-05
2.23724e-05
2.27249e-05
2.30572e-05
2.337e-05
2.3664e-05
2.39401e-05
2.4199e-05
2.44419e-05
2.46695e-05
2.48832e-05
2.50839e-05
2.52731e-05
2.5452e-05
2.56223e-05
2.5786e-05
2.59454e-05
2.61035e-05
2.62626e-05
2.64227e-05
2.65785e-05
2.67178e-05
2.68266e-05
2.69003e-05
2.69505e-05
2.69969e-05
2.7055e-05
2.713e-05
2.72334e-05
2.74726e-05
2.75218e-05
2.75391e-05
2.75394e-05
2.75361e-05
2.75397e-05
2.75529e-05
2.75738e-05
2.75999e-05
2.76291e-05
2.76604e-05
2.7693e-05
2.77266e-05
2.77615e-05
2.77984e-05
2.78382e-05
2.78823e-05
2.79316e-05
2.79852e-05
2.80397e-05
2.36671e-05
2.19974e-05
2.23707e-05
2.27232e-05
2.30555e-05
2.33683e-05
2.36622e-05
2.39383e-05
2.41972e-05
2.44399e-05
2.46676e-05
2.48812e-05
2.50819e-05
2.5271e-05
2.54499e-05
2.56203e-05
2.57841e-05
2.59437e-05
2.6102e-05
2.62614e-05
2.64217e-05
2.65775e-05
2.67167e-05
2.68255e-05
2.68993e-05
2.69496e-05
2.6996e-05
2.7054e-05
2.7129e-05
2.72325e-05
2.7472e-05
2.75212e-05
2.75384e-05
2.75388e-05
2.75356e-05
2.75392e-05
2.75525e-05
2.75735e-05
2.75996e-05
2.76289e-05
2.76603e-05
2.76929e-05
2.77267e-05
2.77617e-05
2.77986e-05
2.78385e-05
2.78827e-05
2.79319e-05
2.79853e-05
2.80393e-05
2.36647e-05
2.19954e-05
2.23687e-05
2.27213e-05
2.30536e-05
2.33663e-05
2.36602e-05
2.39362e-05
2.41951e-05
2.44378e-05
2.46654e-05
2.48789e-05
2.50796e-05
2.52687e-05
2.54476e-05
2.56181e-05
2.5782e-05
2.59418e-05
2.61004e-05
2.626e-05
2.64206e-05
2.65764e-05
2.67155e-05
2.68243e-05
2.68982e-05
2.69486e-05
2.6995e-05
2.70529e-05
2.71279e-05
2.72315e-05
2.74712e-05
2.75205e-05
2.75377e-05
2.75382e-05
2.7535e-05
2.75387e-05
2.75519e-05
2.7573e-05
2.75992e-05
2.76287e-05
2.76601e-05
2.76928e-05
2.77267e-05
2.77618e-05
2.77988e-05
2.78388e-05
2.7883e-05
2.7932e-05
2.79852e-05
2.80388e-05
2.36619e-05
2.19931e-05
2.23665e-05
2.2719e-05
2.30513e-05
2.33641e-05
2.3658e-05
2.39339e-05
2.41927e-05
2.44354e-05
2.4663e-05
2.48765e-05
2.50771e-05
2.52662e-05
2.54452e-05
2.56156e-05
2.57797e-05
2.59397e-05
2.60986e-05
2.62585e-05
2.64193e-05
2.65752e-05
2.67142e-05
2.68229e-05
2.6897e-05
2.69475e-05
2.69938e-05
2.70517e-05
2.71267e-05
2.72304e-05
2.74704e-05
2.75197e-05
2.75369e-05
2.75375e-05
2.75343e-05
2.7538e-05
2.75514e-05
2.75725e-05
2.75988e-05
2.76283e-05
2.76598e-05
2.76927e-05
2.77266e-05
2.77618e-05
2.77989e-05
2.7839e-05
2.78832e-05
2.79322e-05
2.7985e-05
2.80382e-05
2.36589e-05
2.19905e-05
2.23639e-05
2.27165e-05
2.30488e-05
2.33616e-05
2.36554e-05
2.39313e-05
2.41901e-05
2.44328e-05
2.46603e-05
2.48738e-05
2.50744e-05
2.52635e-05
2.54425e-05
2.5613e-05
2.57772e-05
2.59375e-05
2.60966e-05
2.62569e-05
2.64179e-05
2.65738e-05
2.67127e-05
2.68214e-05
2.68956e-05
2.69462e-05
2.69926e-05
2.70503e-05
2.71254e-05
2.72293e-05
2.74695e-05
2.75188e-05
2.75361e-05
2.75367e-05
2.75336e-05
2.75373e-05
2.75507e-05
2.75719e-05
2.75983e-05
2.76279e-05
2.76595e-05
2.76925e-05
2.77265e-05
2.77618e-05
2.7799e-05
2.78391e-05
2.78833e-05
2.79322e-05
2.79848e-05
2.80376e-05
2.36555e-05
2.19877e-05
2.23612e-05
2.27138e-05
2.30461e-05
2.33588e-05
2.36527e-05
2.39285e-05
2.41873e-05
2.44299e-05
2.46574e-05
2.48709e-05
2.50715e-05
2.52606e-05
2.54396e-05
2.56102e-05
2.57746e-05
2.59351e-05
2.60945e-05
2.62551e-05
2.64163e-05
2.65723e-05
2.67112e-05
2.68198e-05
2.68942e-05
2.69448e-05
2.69912e-05
2.70489e-05
2.7124e-05
2.7228e-05
2.74686e-05
2.75178e-05
2.75352e-05
2.75358e-05
2.75328e-05
2.75365e-05
2.755e-05
2.75713e-05
2.75978e-05
2.76275e-05
2.76592e-05
2.76922e-05
2.77263e-05
2.77617e-05
2.77989e-05
2.78392e-05
2.78834e-05
2.79322e-05
2.79845e-05
2.80369e-05
2.36518e-05
2.19846e-05
2.23581e-05
2.27107e-05
2.3043e-05
2.33558e-05
2.36496e-05
2.39255e-05
2.41842e-05
2.44268e-05
2.46543e-05
2.48677e-05
2.50684e-05
2.52575e-05
2.54365e-05
2.56073e-05
2.57717e-05
2.59325e-05
2.60923e-05
2.62532e-05
2.64146e-05
2.65707e-05
2.67095e-05
2.68181e-05
2.68925e-05
2.69433e-05
2.69896e-05
2.70473e-05
2.71224e-05
2.72266e-05
2.74675e-05
2.75168e-05
2.75341e-05
2.75348e-05
2.75319e-05
2.75357e-05
2.75492e-05
2.75706e-05
2.75971e-05
2.76269e-05
2.76587e-05
2.76918e-05
2.7726e-05
2.77615e-05
2.77989e-05
2.78392e-05
2.78834e-05
2.79321e-05
2.79842e-05
2.80362e-05
2.36477e-05
2.19812e-05
2.23547e-05
2.27074e-05
2.30397e-05
2.33525e-05
2.36463e-05
2.39222e-05
2.41809e-05
2.44235e-05
2.46509e-05
2.48644e-05
2.5065e-05
2.52541e-05
2.54332e-05
2.56041e-05
2.57687e-05
2.59297e-05
2.60898e-05
2.62511e-05
2.64128e-05
2.6569e-05
2.67077e-05
2.68163e-05
2.68908e-05
2.69416e-05
2.6988e-05
2.70456e-05
2.71208e-05
2.72252e-05
2.74664e-05
2.75157e-05
2.75331e-05
2.75338e-05
2.75309e-05
2.75347e-05
2.75483e-05
2.75697e-05
2.75964e-05
2.76263e-05
2.76582e-05
2.76914e-05
2.77257e-05
2.77613e-05
2.77987e-05
2.78391e-05
2.78833e-05
2.7932e-05
2.79839e-05
2.80354e-05
2.36433e-05
2.19776e-05
2.23511e-05
2.27037e-05
2.30361e-05
2.33489e-05
2.36428e-05
2.39186e-05
2.41773e-05
2.44199e-05
2.46473e-05
2.48608e-05
2.50614e-05
2.52506e-05
2.54298e-05
2.56007e-05
2.57655e-05
2.59268e-05
2.60872e-05
2.62489e-05
2.64109e-05
2.65671e-05
2.67058e-05
2.68143e-05
2.68889e-05
2.69398e-05
2.69861e-05
2.70438e-05
2.71191e-05
2.72236e-05
2.74652e-05
2.75145e-05
2.75319e-05
2.75327e-05
2.75298e-05
2.75337e-05
2.75473e-05
2.75689e-05
2.75956e-05
2.76256e-05
2.76576e-05
2.76909e-05
2.77253e-05
2.7761e-05
2.77985e-05
2.7839e-05
2.78832e-05
2.79318e-05
2.79835e-05
2.80347e-05
2.36385e-05
2.19736e-05
2.23471e-05
2.26999e-05
2.30323e-05
2.33451e-05
2.3639e-05
2.39148e-05
2.41735e-05
2.44161e-05
2.46435e-05
2.4857e-05
2.50577e-05
2.52469e-05
2.54261e-05
2.55972e-05
2.57622e-05
2.59237e-05
2.60845e-05
2.62465e-05
2.64087e-05
2.65651e-05
2.67037e-05
2.68122e-05
2.68868e-05
2.69379e-05
2.69842e-05
2.70418e-05
2.71172e-05
2.72219e-05
2.74639e-05
2.75133e-05
2.75306e-05
2.75315e-05
2.75286e-05
2.75326e-05
2.75463e-05
2.75679e-05
2.75948e-05
2.76249e-05
2.7657e-05
2.76904e-05
2.77249e-05
2.77606e-05
2.77983e-05
2.78388e-05
2.78831e-05
2.79316e-05
2.7983e-05
2.80339e-05
2.36334e-05
2.19694e-05
2.2343e-05
2.26957e-05
2.30282e-05
2.3341e-05
2.36349e-05
2.39108e-05
2.41695e-05
2.44121e-05
2.46395e-05
2.4853e-05
2.50537e-05
2.52429e-05
2.54223e-05
2.55934e-05
2.57587e-05
2.59205e-05
2.60816e-05
2.6244e-05
2.64065e-05
2.65629e-05
2.67015e-05
2.68099e-05
2.68846e-05
2.69358e-05
2.69821e-05
2.70398e-05
2.71153e-05
2.72202e-05
2.74626e-05
2.75119e-05
2.75293e-05
2.75301e-05
2.75273e-05
2.75313e-05
2.75451e-05
2.75668e-05
2.75938e-05
2.7624e-05
2.76562e-05
2.76897e-05
2.77243e-05
2.77602e-05
2.7798e-05
2.78385e-05
2.78829e-05
2.79313e-05
2.79826e-05
2.80332e-05
2.36281e-05
2.1965e-05
2.23386e-05
2.26914e-05
2.30239e-05
2.33367e-05
2.36307e-05
2.39066e-05
2.41653e-05
2.44079e-05
2.46353e-05
2.48488e-05
2.50495e-05
2.52388e-05
2.54182e-05
2.55895e-05
2.5755e-05
2.59171e-05
2.60786e-05
2.62413e-05
2.64041e-05
2.65606e-05
2.66991e-05
2.68076e-05
2.68823e-05
2.69335e-05
2.69799e-05
2.70376e-05
2.71132e-05
2.72183e-05
2.74611e-05
2.75105e-05
2.75279e-05
2.75287e-05
2.7526e-05
2.753e-05
2.75439e-05
2.75657e-05
2.75928e-05
2.76231e-05
2.76554e-05
2.7689e-05
2.77237e-05
2.77597e-05
2.77976e-05
2.78382e-05
2.78826e-05
2.7931e-05
2.79821e-05
2.80324e-05
2.36225e-05
2.19603e-05
2.23339e-05
2.26868e-05
2.30193e-05
2.33322e-05
2.36262e-05
2.39021e-05
2.41608e-05
2.44034e-05
2.46309e-05
2.48444e-05
2.50451e-05
2.52345e-05
2.5414e-05
2.55855e-05
2.57511e-05
2.59135e-05
2.60754e-05
2.62385e-05
2.64016e-05
2.65582e-05
2.66967e-05
2.6805e-05
2.68799e-05
2.69312e-05
2.69776e-05
2.70353e-05
2.7111e-05
2.72163e-05
2.74595e-05
2.7509e-05
2.75263e-05
2.75272e-05
2.75245e-05
2.75286e-05
2.75425e-05
2.75645e-05
2.75917e-05
2.76221e-05
2.76545e-05
2.76882e-05
2.7723e-05
2.77591e-05
2.77971e-05
2.78379e-05
2.78823e-05
2.79307e-05
2.79816e-05
2.80317e-05
2.36165e-05
2.19554e-05
2.2329e-05
2.26819e-05
2.30145e-05
2.33274e-05
2.36214e-05
2.38974e-05
2.41561e-05
2.43987e-05
2.46262e-05
2.48397e-05
2.50405e-05
2.523e-05
2.54096e-05
2.55812e-05
2.57471e-05
2.59098e-05
2.60721e-05
2.62355e-05
2.63989e-05
2.65556e-05
2.66941e-05
2.68024e-05
2.68773e-05
2.69286e-05
2.69751e-05
2.70328e-05
2.71087e-05
2.72142e-05
2.74579e-05
2.75073e-05
2.75247e-05
2.75256e-05
2.7523e-05
2.75271e-05
2.75411e-05
2.75631e-05
2.75905e-05
2.7621e-05
2.76535e-05
2.76874e-05
2.77223e-05
2.77585e-05
2.77966e-05
2.78375e-05
2.7882e-05
2.79303e-05
2.79811e-05
2.8031e-05
2.36103e-05
2.19502e-05
2.23239e-05
2.26768e-05
2.30095e-05
2.33224e-05
2.36165e-05
2.38924e-05
2.41512e-05
2.43938e-05
2.46214e-05
2.48349e-05
2.50357e-05
2.52252e-05
2.5405e-05
2.55767e-05
2.57429e-05
2.59059e-05
2.60686e-05
2.62324e-05
2.63961e-05
2.65529e-05
2.66913e-05
2.67996e-05
2.68745e-05
2.6926e-05
2.69725e-05
2.70302e-05
2.71062e-05
2.72119e-05
2.74562e-05
2.75056e-05
2.7523e-05
2.75239e-05
2.75213e-05
2.75255e-05
2.75396e-05
2.75617e-05
2.75892e-05
2.76198e-05
2.76525e-05
2.76864e-05
2.77215e-05
2.77578e-05
2.7796e-05
2.7837e-05
2.78816e-05
2.79299e-05
2.79806e-05
2.80302e-05
2.36038e-05
2.19448e-05
2.23185e-05
2.26715e-05
2.30042e-05
2.33172e-05
2.36113e-05
2.38872e-05
2.41461e-05
2.43887e-05
2.46163e-05
2.48299e-05
2.50308e-05
2.52203e-05
2.54002e-05
2.55721e-05
2.57385e-05
2.59019e-05
2.60649e-05
2.62292e-05
2.63931e-05
2.65501e-05
2.66884e-05
2.67967e-05
2.68716e-05
2.69231e-05
2.69697e-05
2.70275e-05
2.71037e-05
2.72096e-05
2.74544e-05
2.75038e-05
2.75212e-05
2.75221e-05
2.75195e-05
2.75238e-05
2.7538e-05
2.75602e-05
2.75878e-05
2.76185e-05
2.76513e-05
2.76854e-05
2.77206e-05
2.7757e-05
2.77954e-05
2.78365e-05
2.78812e-05
2.79295e-05
2.79801e-05
2.80295e-05
2.3597e-05
2.19391e-05
2.23129e-05
2.26659e-05
2.29987e-05
2.33117e-05
2.36058e-05
2.38819e-05
2.41407e-05
2.43834e-05
2.4611e-05
2.48246e-05
2.50256e-05
2.52152e-05
2.53952e-05
2.55673e-05
2.57339e-05
2.58976e-05
2.60611e-05
2.62257e-05
2.639e-05
2.65471e-05
2.66854e-05
2.67937e-05
2.68686e-05
2.69202e-05
2.69668e-05
2.70247e-05
2.7101e-05
2.72071e-05
2.74524e-05
2.75019e-05
2.75193e-05
2.75202e-05
2.75177e-05
2.7522e-05
2.75362e-05
2.75586e-05
2.75863e-05
2.76172e-05
2.76501e-05
2.76843e-05
2.77196e-05
2.77562e-05
2.77947e-05
2.78359e-05
2.78807e-05
2.7929e-05
2.79796e-05
2.80288e-05
2.359e-05
2.19333e-05
2.2307e-05
2.26601e-05
2.29929e-05
2.3306e-05
2.36002e-05
2.38763e-05
2.41351e-05
2.43779e-05
2.46055e-05
2.48192e-05
2.50202e-05
2.52099e-05
2.539e-05
2.55623e-05
2.57292e-05
2.58933e-05
2.60571e-05
2.62222e-05
2.63867e-05
2.6544e-05
2.66823e-05
2.67905e-05
2.68654e-05
2.69171e-05
2.69637e-05
2.70217e-05
2.70981e-05
2.72046e-05
2.74504e-05
2.74999e-05
2.75172e-05
2.75182e-05
2.75157e-05
2.752e-05
2.75344e-05
2.75569e-05
2.75847e-05
2.76157e-05
2.76487e-05
2.76831e-05
2.77185e-05
2.77553e-05
2.77939e-05
2.78353e-05
2.78802e-05
2.79285e-05
2.7979e-05
2.80281e-05
2.35827e-05
2.19272e-05
2.2301e-05
2.26541e-05
2.29869e-05
2.33001e-05
2.35943e-05
2.38704e-05
2.41294e-05
2.43721e-05
2.45998e-05
2.48135e-05
2.50146e-05
2.52044e-05
2.53846e-05
2.55572e-05
2.57243e-05
2.58887e-05
2.6053e-05
2.62185e-05
2.63834e-05
2.65407e-05
2.6679e-05
2.67871e-05
2.68621e-05
2.69138e-05
2.69605e-05
2.70185e-05
2.70952e-05
2.72019e-05
2.74483e-05
2.74978e-05
2.75151e-05
2.75161e-05
2.75136e-05
2.7518e-05
2.75324e-05
2.7555e-05
2.75829e-05
2.76141e-05
2.76473e-05
2.76818e-05
2.77174e-05
2.77543e-05
2.77931e-05
2.78346e-05
2.78796e-05
2.7928e-05
2.79785e-05
2.80275e-05
2.35751e-05
2.19208e-05
2.22947e-05
2.26479e-05
2.29808e-05
2.3294e-05
2.35882e-05
2.38644e-05
2.41234e-05
2.43662e-05
2.45939e-05
2.48077e-05
2.50088e-05
2.51988e-05
2.53791e-05
2.55518e-05
2.57192e-05
2.5884e-05
2.60487e-05
2.62147e-05
2.63799e-05
2.65373e-05
2.66756e-05
2.67837e-05
2.68586e-05
2.69104e-05
2.69571e-05
2.70153e-05
2.70921e-05
2.7199e-05
2.74461e-05
2.74956e-05
2.75129e-05
2.75138e-05
2.75113e-05
2.75158e-05
2.75304e-05
2.75531e-05
2.75811e-05
2.76124e-05
2.76458e-05
2.76804e-05
2.77162e-05
2.77532e-05
2.77922e-05
2.78339e-05
2.7879e-05
2.79275e-05
2.79779e-05
2.80268e-05
2.35672e-05
2.19143e-05
2.22882e-05
2.26414e-05
2.29743e-05
2.32876e-05
2.35819e-05
2.38581e-05
2.41172e-05
2.436e-05
2.45878e-05
2.48016e-05
2.50029e-05
2.51929e-05
2.53734e-05
2.55463e-05
2.5714e-05
2.58792e-05
2.60443e-05
2.62107e-05
2.63762e-05
2.65338e-05
2.66721e-05
2.67801e-05
2.6855e-05
2.69068e-05
2.69536e-05
2.70119e-05
2.70889e-05
2.71961e-05
2.74437e-05
2.74933e-05
2.75105e-05
2.75114e-05
2.7509e-05
2.75135e-05
2.75282e-05
2.7551e-05
2.75792e-05
2.76107e-05
2.76441e-05
2.76789e-05
2.77148e-05
2.7752e-05
2.77912e-05
2.78331e-05
2.78783e-05
2.79269e-05
2.79773e-05
2.80262e-05
2.35591e-05
2.19075e-05
2.22814e-05
2.26347e-05
2.29677e-05
2.3281e-05
2.35754e-05
2.38517e-05
2.41108e-05
2.43537e-05
2.45815e-05
2.47954e-05
2.49967e-05
2.51868e-05
2.53675e-05
2.55406e-05
2.57086e-05
2.58742e-05
2.60398e-05
2.62066e-05
2.63724e-05
2.65302e-05
2.66684e-05
2.67763e-05
2.68513e-05
2.69031e-05
2.695e-05
2.70083e-05
2.70856e-05
2.7193e-05
2.74413e-05
2.74909e-05
2.75081e-05
2.75089e-05
2.75065e-05
2.75111e-05
2.75258e-05
2.75488e-05
2.75771e-05
2.76088e-05
2.76424e-05
2.76773e-05
2.77134e-05
2.77508e-05
2.77901e-05
2.78322e-05
2.78776e-05
2.79262e-05
2.79767e-05
2.80255e-05
2.35508e-05
2.19006e-05
2.22745e-05
2.26278e-05
2.29609e-05
2.32743e-05
2.35687e-05
2.3845e-05
2.41041e-05
2.43471e-05
2.4575e-05
2.4789e-05
2.49903e-05
2.51806e-05
2.53614e-05
2.55348e-05
2.57031e-05
2.5869e-05
2.60351e-05
2.62023e-05
2.63685e-05
2.65264e-05
2.66647e-05
2.67725e-05
2.68474e-05
2.68992e-05
2.69461e-05
2.70046e-05
2.70821e-05
2.71898e-05
2.74388e-05
2.74884e-05
2.75055e-05
2.75063e-05
2.75039e-05
2.75086e-05
2.75234e-05
2.75465e-05
2.7575e-05
2.76067e-05
2.76405e-05
2.76756e-05
2.77118e-05
2.77494e-05
2.7789e-05
2.78312e-05
2.78768e-05
2.79256e-05
2.79761e-05
2.80249e-05
2.35422e-05
2.18934e-05
2.22673e-05
2.26207e-05
2.29538e-05
2.32672e-05
2.35617e-05
2.38381e-05
2.40973e-05
2.43403e-05
2.45683e-05
2.47823e-05
2.49838e-05
2.51742e-05
2.53551e-05
2.55287e-05
2.56974e-05
2.58637e-05
2.60303e-05
2.6198e-05
2.63645e-05
2.65226e-05
2.66607e-05
2.67685e-05
2.68433e-05
2.68952e-05
2.69421e-05
2.70007e-05
2.70785e-05
2.71865e-05
2.74361e-05
2.74857e-05
2.75027e-05
2.75036e-05
2.75011e-05
2.75059e-05
2.75208e-05
2.7544e-05
2.75727e-05
2.76046e-05
2.76385e-05
2.76738e-05
2.77102e-05
2.7748e-05
2.77877e-05
2.78302e-05
2.78759e-05
2.79248e-05
2.79754e-05
2.80243e-05
2.35334e-05
2.1886e-05
2.226e-05
2.26133e-05
2.29465e-05
2.326e-05
2.35546e-05
2.3831e-05
2.40903e-05
2.43333e-05
2.45613e-05
2.47755e-05
2.4977e-05
2.51675e-05
2.53487e-05
2.55225e-05
2.56915e-05
2.58583e-05
2.60253e-05
2.61935e-05
2.63604e-05
2.65186e-05
2.66567e-05
2.67643e-05
2.68391e-05
2.68909e-05
2.6938e-05
2.69967e-05
2.70747e-05
2.71831e-05
2.74334e-05
2.7483e-05
2.74999e-05
2.75007e-05
2.74983e-05
2.75031e-05
2.75181e-05
2.75414e-05
2.75702e-05
2.76023e-05
2.76364e-05
2.76718e-05
2.77084e-05
2.77464e-05
2.77863e-05
2.7829e-05
2.7875e-05
2.79241e-05
2.79747e-05
2.80236e-05
2.35243e-05
2.18784e-05
2.22524e-05
2.26058e-05
2.2939e-05
2.32526e-05
2.35472e-05
2.38237e-05
2.4083e-05
2.43261e-05
2.45542e-05
2.47684e-05
2.49701e-05
2.51607e-05
2.53421e-05
2.55162e-05
2.56855e-05
2.58527e-05
2.60202e-05
2.61889e-05
2.63561e-05
2.65144e-05
2.66525e-05
2.676e-05
2.68347e-05
2.68865e-05
2.69337e-05
2.69926e-05
2.70708e-05
2.71795e-05
2.74305e-05
2.74801e-05
2.74969e-05
2.74976e-05
2.74952e-05
2.75001e-05
2.75152e-05
2.75387e-05
2.75676e-05
2.75999e-05
2.76341e-05
2.76697e-05
2.77065e-05
2.77447e-05
2.77849e-05
2.78278e-05
2.7874e-05
2.79232e-05
2.7974e-05
2.8023e-05
2.3515e-05
2.18706e-05
2.22445e-05
2.2598e-05
2.29313e-05
2.32449e-05
2.35396e-05
2.38162e-05
2.40755e-05
2.43188e-05
2.45469e-05
2.47612e-05
2.4963e-05
2.51537e-05
2.53353e-05
2.55096e-05
2.56793e-05
2.5847e-05
2.6015e-05
2.61842e-05
2.63517e-05
2.65102e-05
2.66482e-05
2.67555e-05
2.68301e-05
2.6882e-05
2.69292e-05
2.69883e-05
2.70668e-05
2.71758e-05
2.74275e-05
2.74771e-05
2.74938e-05
2.74944e-05
2.7492e-05
2.74969e-05
2.75122e-05
2.75358e-05
2.75649e-05
2.75973e-05
2.76317e-05
2.76675e-05
2.77045e-05
2.77429e-05
2.77833e-05
2.78264e-05
2.78729e-05
2.79223e-05
2.79732e-05
2.80223e-05
2.35054e-05
2.18626e-05
2.22365e-05
2.259e-05
2.29233e-05
2.3237e-05
2.35318e-05
2.38084e-05
2.40679e-05
2.43112e-05
2.45394e-05
2.47538e-05
2.49557e-05
2.51466e-05
2.53283e-05
2.55029e-05
2.5673e-05
2.58411e-05
2.60097e-05
2.61793e-05
2.63472e-05
2.65059e-05
2.66438e-05
2.67509e-05
2.68254e-05
2.68772e-05
2.69245e-05
2.69838e-05
2.70626e-05
2.7172e-05
2.74244e-05
2.74739e-05
2.74906e-05
2.74911e-05
2.74887e-05
2.74937e-05
2.7509e-05
2.75328e-05
2.7562e-05
2.75946e-05
2.76292e-05
2.76651e-05
2.77023e-05
2.77409e-05
2.77816e-05
2.7825e-05
2.78716e-05
2.79213e-05
2.79724e-05
2.80216e-05
2.34956e-05
2.18543e-05
2.22283e-05
2.25818e-05
2.29152e-05
2.3229e-05
2.35238e-05
2.38005e-05
2.40601e-05
2.43034e-05
2.45317e-05
2.47462e-05
2.49482e-05
2.51393e-05
2.53212e-05
2.54961e-05
2.56665e-05
2.58351e-05
2.60042e-05
2.61744e-05
2.63427e-05
2.65014e-05
2.66392e-05
2.67462e-05
2.68205e-05
2.68723e-05
2.69197e-05
2.69792e-05
2.70583e-05
2.7168e-05
2.74212e-05
2.74707e-05
2.74871e-05
2.74876e-05
2.74852e-05
2.74902e-05
2.75056e-05
2.75296e-05
2.7559e-05
2.75917e-05
2.76265e-05
2.76626e-05
2.77e-05
2.77389e-05
2.77798e-05
2.78234e-05
2.78703e-05
2.79203e-05
2.79715e-05
2.80208e-05
2.34856e-05
2.18459e-05
2.22199e-05
2.25734e-05
2.29069e-05
2.32207e-05
2.35156e-05
2.37924e-05
2.4052e-05
2.42955e-05
2.45239e-05
2.47384e-05
2.49406e-05
2.51318e-05
2.53139e-05
2.54891e-05
2.56599e-05
2.5829e-05
2.59986e-05
2.61693e-05
2.6338e-05
2.64968e-05
2.66345e-05
2.67413e-05
2.68154e-05
2.68672e-05
2.69147e-05
2.69744e-05
2.70538e-05
2.71639e-05
2.74179e-05
2.74673e-05
2.74836e-05
2.74839e-05
2.74815e-05
2.74866e-05
2.75021e-05
2.75262e-05
2.75558e-05
2.75887e-05
2.76236e-05
2.76599e-05
2.76975e-05
2.77366e-05
2.77778e-05
2.78217e-05
2.78689e-05
2.79191e-05
2.79706e-05
2.802e-05
2.34754e-05
2.18373e-05
2.22113e-05
2.25649e-05
2.28984e-05
2.32123e-05
2.35072e-05
2.37841e-05
2.40438e-05
2.42873e-05
2.45158e-05
2.47305e-05
2.49327e-05
2.51241e-05
2.53065e-05
2.5482e-05
2.56532e-05
2.58228e-05
2.59929e-05
2.61641e-05
2.63331e-05
2.64921e-05
2.66297e-05
2.67362e-05
2.68102e-05
2.68619e-05
2.69095e-05
2.69694e-05
2.70492e-05
2.71596e-05
2.74144e-05
2.74637e-05
2.74799e-05
2.74801e-05
2.74776e-05
2.74828e-05
2.74984e-05
2.75226e-05
2.75524e-05
2.75854e-05
2.76205e-05
2.76571e-05
2.76949e-05
2.77342e-05
2.77756e-05
2.78199e-05
2.78673e-05
2.79178e-05
2.79695e-05
2.80192e-05
2.3465e-05
2.18286e-05
2.22025e-05
2.25561e-05
2.28897e-05
2.32036e-05
2.34987e-05
2.37757e-05
2.40354e-05
2.42791e-05
2.45076e-05
2.47224e-05
2.49248e-05
2.51163e-05
2.52989e-05
2.54747e-05
2.56463e-05
2.58164e-05
2.59872e-05
2.61589e-05
2.63282e-05
2.64873e-05
2.66247e-05
2.6731e-05
2.68047e-05
2.68564e-05
2.69041e-05
2.69643e-05
2.70445e-05
2.71552e-05
2.74108e-05
2.746e-05
2.7476e-05
2.74761e-05
2.74735e-05
2.74788e-05
2.74945e-05
2.75189e-05
2.75488e-05
2.7582e-05
2.76173e-05
2.7654e-05
2.7692e-05
2.77316e-05
2.77733e-05
2.78178e-05
2.78656e-05
2.79164e-05
2.79683e-05
2.80182e-05
2.34544e-05
2.18197e-05
2.21936e-05
2.25472e-05
2.28808e-05
2.31949e-05
2.349e-05
2.3767e-05
2.40269e-05
2.42706e-05
2.44993e-05
2.47142e-05
2.49167e-05
2.51084e-05
2.52912e-05
2.54673e-05
2.56393e-05
2.581e-05
2.59813e-05
2.61535e-05
2.63232e-05
2.64823e-05
2.66196e-05
2.67256e-05
2.67991e-05
2.68508e-05
2.68986e-05
2.6959e-05
2.70396e-05
2.71507e-05
2.74071e-05
2.74562e-05
2.74719e-05
2.74719e-05
2.74693e-05
2.74746e-05
2.74905e-05
2.7515e-05
2.7545e-05
2.75784e-05
2.76138e-05
2.76508e-05
2.7689e-05
2.77288e-05
2.77708e-05
2.78156e-05
2.78638e-05
2.79148e-05
2.7967e-05
2.80172e-05
2.34437e-05
2.18106e-05
2.21845e-05
2.25382e-05
2.28718e-05
2.31859e-05
2.34811e-05
2.37582e-05
2.40182e-05
2.4262e-05
2.44908e-05
2.47057e-05
2.49084e-05
2.51003e-05
2.52833e-05
2.54598e-05
2.56322e-05
2.58034e-05
2.59753e-05
2.6148e-05
2.63181e-05
2.64773e-05
2.66144e-05
2.67201e-05
2.67934e-05
2.68449e-05
2.68929e-05
2.69536e-05
2.70345e-05
2.71461e-05
2.74032e-05
2.74522e-05
2.74677e-05
2.74675e-05
2.74649e-05
2.74702e-05
2.74862e-05
2.75108e-05
2.7541e-05
2.75746e-05
2.76102e-05
2.76473e-05
2.76857e-05
2.77258e-05
2.77681e-05
2.78133e-05
2.78617e-05
2.79131e-05
2.79656e-05
2.8016e-05
2.34328e-05
2.18014e-05
2.21753e-05
2.2529e-05
2.28626e-05
2.31768e-05
2.34721e-05
2.37493e-05
2.40093e-05
2.42532e-05
2.44821e-05
2.46972e-05
2.49e-05
2.5092e-05
2.52753e-05
2.54521e-05
2.5625e-05
2.57967e-05
2.59692e-05
2.61425e-05
2.63129e-05
2.64722e-05
2.66091e-05
2.67144e-05
2.67874e-05
2.68389e-05
2.6887e-05
2.6948e-05
2.70293e-05
2.71412e-05
2.73992e-05
2.7448e-05
2.74633e-05
2.74629e-05
2.74602e-05
2.74656e-05
2.74817e-05
2.75065e-05
2.75368e-05
2.75705e-05
2.76063e-05
2.76436e-05
2.76823e-05
2.77226e-05
2.77652e-05
2.78107e-05
2.78595e-05
2.79112e-05
2.7964e-05
2.80147e-05
2.34217e-05
2.17921e-05
2.21659e-05
2.25196e-05
2.28533e-05
2.31676e-05
2.34629e-05
2.37402e-05
2.40003e-05
2.42443e-05
2.44733e-05
2.46885e-05
2.48914e-05
2.50837e-05
2.52672e-05
2.54444e-05
2.56177e-05
2.57899e-05
2.5963e-05
2.61368e-05
2.63076e-05
2.64669e-05
2.66036e-05
2.67086e-05
2.67813e-05
2.68327e-05
2.68809e-05
2.69422e-05
2.70239e-05
2.71363e-05
2.73951e-05
2.74437e-05
2.74587e-05
2.74581e-05
2.74554e-05
2.74608e-05
2.7477e-05
2.75019e-05
2.75324e-05
2.75663e-05
2.76022e-05
2.76397e-05
2.76786e-05
2.77192e-05
2.7762e-05
2.78079e-05
2.78571e-05
2.79091e-05
2.79623e-05
2.80133e-05
2.34105e-05
2.17826e-05
2.21564e-05
2.25101e-05
2.28439e-05
2.31582e-05
2.34536e-05
2.3731e-05
2.39912e-05
2.42353e-05
2.44643e-05
2.46797e-05
2.48827e-05
2.50752e-05
2.5259e-05
2.54365e-05
2.56103e-05
2.57831e-05
2.59567e-05
2.61311e-05
2.63022e-05
2.64615e-05
2.6598e-05
2.67026e-05
2.6775e-05
2.68263e-05
2.68746e-05
2.69362e-05
2.70184e-05
2.71312e-05
2.73908e-05
2.74392e-05
2.7454e-05
2.74531e-05
2.74503e-05
2.74558e-05
2.74721e-05
2.74971e-05
2.75277e-05
2.75617e-05
2.75979e-05
2.76355e-05
2.76746e-05
2.77155e-05
2.77586e-05
2.78048e-05
2.78544e-05
2.79068e-05
2.79603e-05
2.80117e-05
2.33992e-05
2.1773e-05
2.21468e-05
2.25005e-05
2.28343e-05
2.31486e-05
2.34442e-05
2.37216e-05
2.39819e-05
2.42261e-05
2.44553e-05
2.46707e-05
2.48739e-05
2.50666e-05
2.52506e-05
2.54285e-05
2.56028e-05
2.57761e-05
2.59504e-05
2.61253e-05
2.62967e-05
2.64561e-05
2.65922e-05
2.66964e-05
2.67686e-05
2.68198e-05
2.68682e-05
2.69301e-05
2.70128e-05
2.71259e-05
2.73863e-05
2.74346e-05
2.7449e-05
2.74479e-05
2.7445e-05
2.74505e-05
2.74669e-05
2.74921e-05
2.75228e-05
2.7557e-05
2.75932e-05
2.76311e-05
2.76704e-05
2.77115e-05
2.7755e-05
2.78015e-05
2.78514e-05
2.79042e-05
2.79581e-05
2.80098e-05
2.33877e-05
2.17634e-05
2.21371e-05
2.24908e-05
2.28246e-05
2.3139e-05
2.34346e-05
2.37122e-05
2.39725e-05
2.42168e-05
2.44461e-05
2.46616e-05
2.4865e-05
2.50578e-05
2.52422e-05
2.54204e-05
2.55952e-05
2.57691e-05
2.5944e-05
2.61194e-05
2.62911e-05
2.64505e-05
2.65864e-05
2.66901e-05
2.67619e-05
2.6813e-05
2.68616e-05
2.69239e-05
2.70069e-05
2.71205e-05
2.73818e-05
2.74298e-05
2.74438e-05
2.74425e-05
2.74395e-05
2.7445e-05
2.74615e-05
2.74868e-05
2.75176e-05
2.75519e-05
2.75884e-05
2.76264e-05
2.76659e-05
2.77072e-05
2.7751e-05
2.77979e-05
2.78482e-05
2.79014e-05
2.79557e-05
2.80078e-05
2.33762e-05
2.17536e-05
2.21272e-05
2.24809e-05
2.28148e-05
2.31293e-05
2.34249e-05
2.37026e-05
2.3963e-05
2.42074e-05
2.44368e-05
2.46524e-05
2.48559e-05
2.5049e-05
2.52336e-05
2.54122e-05
2.55875e-05
2.5762e-05
2.59375e-05
2.61135e-05
2.62855e-05
2.64448e-05
2.65804e-05
2.66837e-05
2.67551e-05
2.6806e-05
2.68548e-05
2.69174e-05
2.7001e-05
2.7115e-05
2.7377e-05
2.74248e-05
2.74384e-05
2.74368e-05
2.74337e-05
2.74392e-05
2.74558e-05
2.74812e-05
2.75122e-05
2.75466e-05
2.75832e-05
2.76213e-05
2.7661e-05
2.77027e-05
2.77468e-05
2.7794e-05
2.78447e-05
2.78983e-05
2.7953e-05
2.80055e-05
2.33645e-05
2.17437e-05
2.21173e-05
2.2471e-05
2.28049e-05
2.31194e-05
2.34152e-05
2.36929e-05
2.39534e-05
2.41979e-05
2.44273e-05
2.46432e-05
2.48468e-05
2.50401e-05
2.5225e-05
2.5404e-05
2.55797e-05
2.57548e-05
2.5931e-05
2.61074e-05
2.62798e-05
2.6439e-05
2.65742e-05
2.66771e-05
2.67481e-05
2.67989e-05
2.68478e-05
2.69108e-05
2.69948e-05
2.71092e-05
2.73721e-05
2.74196e-05
2.74329e-05
2.74309e-05
2.74277e-05
2.74332e-05
2.74499e-05
2.74754e-05
2.75065e-05
2.7541e-05
2.75777e-05
2.7616e-05
2.76559e-05
2.76977e-05
2.77422e-05
2.77898e-05
2.78409e-05
2.78949e-05
2.79499e-05
2.80029e-05
2.33528e-05
2.17338e-05
2.21073e-05
2.2461e-05
2.27949e-05
2.31095e-05
2.34053e-05
2.36831e-05
2.39437e-05
2.41883e-05
2.44178e-05
2.46338e-05
2.48376e-05
2.5031e-05
2.52162e-05
2.53956e-05
2.55719e-05
2.57476e-05
2.59244e-05
2.61014e-05
2.6274e-05
2.64332e-05
2.6568e-05
2.66703e-05
2.6741e-05
2.67916e-05
2.68406e-05
2.6904e-05
2.69886e-05
2.71034e-05
2.73671e-05
2.74142e-05
2.74271e-05
2.74248e-05
2.74214e-05
2.7427e-05
2.74437e-05
2.74693e-05
2.75005e-05
2.75351e-05
2.75719e-05
2.76103e-05
2.76504e-05
2.76925e-05
2.77372e-05
2.77852e-05
2.78366e-05
2.78911e-05
2.79465e-05
2.79999e-05
2.3341e-05
2.17238e-05
2.20973e-05
2.24509e-05
2.27849e-05
2.30995e-05
2.33954e-05
2.36732e-05
2.3934e-05
2.41786e-05
2.44083e-05
2.46243e-05
2.48283e-05
2.50219e-05
2.52074e-05
2.53872e-05
2.5564e-05
2.57403e-05