/*--------------------------------*- C++ -*----------------------------------*\
  =========                 |
  \\      /  F ield         | OpenFOAM: The Open Source CFD Toolbox
   \\    /   O peration     | Website:  https://openfoam.org
    \\  /    A nd           | Version:  9
     \\/     M anipulation  |
\*---------------------------------------------------------------------------*/
FoamFile
{
    format      ascii;
    class       volVectorField;
    location    "0.1";
    object      U;
}
// * * * * * * * * * * * * * * * * * * * * * * * * * * * * * * * * * * * * * //

dimensions      [0 1 -1 0 0 0 0];

internalField   nonuniform List<vector> 
5000
(
(8.9091e-05 0 0.00656579)
(7.2868e-05 0 0.012896)
(7.17307e-05 0 0.0189414)
(7.40839e-05 0 0.024743)
(7.65726e-05 0 0.0302764)
(7.81335e-05 0 0.0355177)
(7.78849e-05 0 0.0404467)
(7.53292e-05 0 0.0450464)
(7.02032e-05 0 0.0492964)
(6.23691e-05 0 0.0531654)
(5.17229e-05 0 0.0566069)
(3.81606e-05 0 0.0595565)
(2.15893e-05 0 0.0619303)
(1.97164e-06 0 0.0636187)
(-2.05858e-05 0 0.0644755)
(-4.55672e-05 0 0.0642968)
(-7.14996e-05 0 0.0627896)
(-9.50007e-05 0 0.0595382)
(-0.000109724 0 0.0540094)
(-0.000107078 0 0.0457146)
(-8.22006e-05 0 0.0347294)
(-4.42856e-05 0 0.0226192)
(-1.60192e-05 0 0.0130339)
(-8.71419e-06 0 0.0102767)
(-7.84339e-06 0 0.0156397)
(-2.73769e-06 0 0.0254962)
(-4.90213e-06 0 0.0342167)
(-2.13516e-05 0 0.0380924)
(-3.9528e-05 0 0.0361901)
(-4.40523e-05 0 0.029376)
(-3.31839e-05 0 0.0190749)
(-2.10643e-05 0 0.00941478)
(-1.82551e-05 0 0.00496953)
(-1.92348e-05 0 0.00499436)
(-1.86162e-05 0 0.0058919)
(-1.6551e-05 0 0.00492857)
(-1.25927e-05 0 0.00146248)
(-6.17663e-06 0 -0.00399584)
(3.02087e-06 0 -0.0107432)
(1.47581e-05 0 -0.0183001)
(2.7974e-05 0 -0.026361)
(4.23764e-05 0 -0.0347367)
(5.82507e-05 0 -0.0433476)
(7.66748e-05 0 -0.0522375)
(9.95167e-05 0 -0.0615821)
(0.000129138 0 -0.0716773)
(0.000167367 0 -0.0828928)
(0.000212745 0 -0.0955379)
(0.000255769 0 -0.109561)
(0.000275912 0 -0.124118)
(0.000156372 0 0.00676953)
(0.000130757 0 0.0129698)
(0.000131223 0 0.0189818)
(0.000135828 0 0.0247724)
(0.000139648 0 0.0303005)
(0.000141206 0 0.0355394)
(0.000138876 0 0.0404673)
(0.000131546 0 0.045066)
(0.000118538 0 0.0493143)
(9.94634e-05 0 0.0531808)
(7.40515e-05 0 0.0566187)
(4.2106e-05 0 0.0595639)
(3.57384e-06 0 0.0619322)
(-4.12876e-05 0 0.0636139)
(-9.158e-05 0 0.0644619)
(-0.000145147 0 0.0642706)
(-0.000197509 0 0.0627445)
(-0.000240378 0 0.0594641)
(-0.000260828 0 0.0538946)
(-0.000244652 0 0.0455558)
(-0.000189036 0 0.0345501)
(-0.000119927 0 0.0224766)
(-8.43416e-05 0 0.0129775)
(-9.63323e-05 0 0.0102828)
(-0.000111891 0 0.0156355)
(-0.000100063 0 0.0254496)
(-8.75195e-05 0 0.0341402)
(-0.000100638 0 0.0379941)
(-0.000123771 0 0.0360658)
(-0.000128029 0 0.0292286)
(-0.000109137 0 0.0189285)
(-9.37212e-05 0 0.00929262)
(-9.61574e-05 0 0.00485963)
(-9.76534e-05 0 0.00487256)
(-8.91128e-05 0 0.00575121)
(-7.68136e-05 0 0.00477232)
(-6.20115e-05 0 0.00129429)
(-4.27836e-05 0 -0.00417485)
(-1.77442e-05 0 -0.0109333)
(1.37987e-05 0 -0.0184994)
(5.01069e-05 0 -0.0265683)
(9.02268e-05 0 -0.0349521)
(0.00013498 0 -0.043572)
(0.000186727 0 -0.0524728)
(0.00024924 0 -0.0618315)
(0.000326675 0 -0.0719444)
(0.000420917 0 -0.0831806)
(0.00052563 0 -0.0958446)
(0.000617211 0 -0.109874)
(0.000650651 0 -0.124415)
(0.000106829 0 0.00679447)
(0.000102747 0 0.0129441)
(0.000116369 0 0.0189343)
(0.000130677 0 0.0247257)
(0.000141643 0 0.030266)
(0.000147273 0 0.0355218)
(0.000146027 0 0.0404686)
(0.000136914 0 0.0450867)
(0.000119391 0 0.049354)
(9.31583e-05 0 0.0532385)
(5.8021e-05 0 0.0566934)
(1.38945e-05 0 0.0596544)
(-3.90575e-05 0 0.0620369)
(-0.000100157 0 0.0637304)
(-0.000167772 0 0.0645863)
(-0.000238615 0 0.0643963)
(-0.000306602 0 0.0628605)
(-0.000361475 0 0.0595542)
(-0.000388488 0 0.0539396)
(-0.00037292 0 0.0455446)
(-0.000314577 0 0.0344991)
(-0.000245969 0 0.022435)
(-0.000219706 0 0.0129828)
(-0.000243739 0 0.0103063)
(-0.000257263 0 0.0156271)
(-0.000224959 0 0.0254247)
(-0.000190038 0 0.0341471)
(-0.000193828 0 0.0380378)
(-0.000219528 0 0.0361151)
(-0.000229375 0 0.02926)
(-0.000214309 0 0.0189483)
(-0.000203318 0 0.00931934)
(-0.000208581 0 0.00488733)
(-0.000203492 0 0.00489221)
(-0.000181911 0 0.00576902)
(-0.000156937 0 0.00479361)
(-0.000132143 0 0.00131776)
(-0.000102765 0 -0.00415117)
(-6.38388e-05 0 -0.0109157)
(-1.439e-05 0 -0.0184847)
(4.29771e-05 0 -0.0265557)
(0.000106843 0 -0.0349416)
(0.000178599 0 -0.0435648)
(0.000261209 0 -0.0524712)
(0.000359145 0 -0.0618383)
(0.000476601 0 -0.0719614)
(0.000613635 0 -0.0832049)
(0.000758444 0 -0.0958631)
(0.000876675 0 -0.109858)
(0.00090856 0 -0.124326)
(5.12454e-05 0 0.00679288)
(5.52779e-05 0 0.0129156)
(6.92698e-05 0 0.018889)
(8.54827e-05 0 0.0246841)
(9.86504e-05 0 0.0302407)
(0.000105753 0 0.0355181)
(0.000104675 0 0.0404884)
(9.41277e-05 0 0.0451302)
(7.33867e-05 0 0.0494205)
(4.2047e-05 0 0.0533269)
(-1.15949e-07 0 0.0568022)
(-5.31546e-05 0 0.0597817)
(-0.000116766 0 0.0621801)
(-0.00019 0 0.0638857)
(-0.000270815 0 0.0647479)
(-0.000355317 0 0.0645551)
(-0.000436598 0 0.0630029)
(-0.000503381 0 0.0596613)
(-0.000539853 0 0.0539909)
(-0.000530476 0 0.045531)
(-0.000474894 0 0.0344423)
(-0.000406546 0 0.022389)
(-0.000379536 0 0.0129867)
(-0.000401316 0 0.010331)
(-0.000407655 0 0.0156224)
(-0.000363239 0 0.0254073)
(-0.00031852 0 0.0341677)
(-0.000320515 0 0.038101)
(-0.000350523 0 0.0361847)
(-0.000365265 0 0.0293085)
(-0.000351696 0 0.0189817)
(-0.000340074 0 0.00935923)
(-0.000343063 0 0.00492994)
(-0.0003309 0 0.0049286)
(-0.000299465 0 0.00580453)
(-0.000264735 0 0.00483223)
(-0.000230137 0 0.00135558)
(-0.00019053 0 -0.00411418)
(-0.000138462 0 -0.0108863)
(-7.16777e-05 0 -0.0184594)
(5.54209e-06 0 -0.0265338)
(9.17779e-05 0 -0.0349232)
(0.000188747 0 -0.0435511)
(0.000299522 0 -0.0524649)
(0.000428678 0 -0.0618423)
(0.000579793 0 -0.0719766)
(0.00075079 0 -0.0832256)
(0.000925276 0 -0.09587)
(0.00106102 0 -0.109813)
(0.00108896 0 -0.124181)
(-2.67281e-05 0 0.00678494)
(-2.04733e-05 0 0.0128913)
(-1.08287e-05 0 0.0188509)
(2.13147e-06 0 0.0246471)
(1.29841e-05 0 0.0302169)
(1.82259e-05 0 0.0355139)
(1.52153e-05 0 0.0405068)
(2.24836e-06 0 0.045172)
(-2.17677e-05 0 0.0494852)
(-5.75111e-05 0 0.0534133)
(-0.00010536 0 0.0569086)
(-0.000165437 0 0.0599059)
(-0.000237421 0 0.062319)
(-0.000320229 0 0.0640349)
(-0.000411566 0 0.0649006)
(-0.000507085 0 0.0647016)
(-0.000599172 0 0.0631286)
(-0.000675568 0 0.059747)
(-0.000719321 0 0.0540173)
(-0.000713939 0 0.045492)
(-0.000658565 0 0.0343639)
(-0.000586672 0 0.022328)
(-0.000553569 0 0.0129814)
(-0.000569709 0 0.0103488)
(-0.000573208 0 0.0156069)
(-0.000527891 0 0.0253685)
(-0.000483261 0 0.0341555)
(-0.00048678 0 0.0381256)
(-0.00051919 0 0.0362146)
(-0.000535104 0 0.0293186)
(-0.00051925 0 0.0189793)
(-0.000503084 0 0.0093646)
(-0.000501624 0 0.00493598)
(-0.000484161 0 0.00492325)
(-0.000446366 0 0.00579249)
(-0.000404434 0 0.00481922)
(-0.000360184 0 0.00133878)
(-0.000309383 0 -0.00413701)
(-0.000244038 0 -0.0109184)
(-0.000160753 0 -0.0184992)
(-6.50443e-05 0 -0.0265807)
(4.21951e-05 0 -0.034977)
(0.000162462 0 -0.0436135)
(0.000298636 0 -0.0525384)
(0.000455044 0 -0.0619296)
(0.000634341 0 -0.0720778)
(0.000832399 0 -0.0833335)
(0.00102916 0 -0.0959629)
(0.00117703 0 -0.109851)
(0.00120143 0 -0.124114)
(-0.000149173 0 0.0067765)
(-0.000141756 0 0.0128712)
(-0.000135654 0 0.0188213)
(-0.000125853 0 0.0246175)
(-0.000117592 0 0.0301978)
(-0.000114649 0 0.0355126)
(-0.000119913 0 0.0405272)
(-0.000135391 0 0.0452158)
(-0.000162439 0 0.0495523)
(-0.000201932 0 0.0535027)
(-0.00025438 0 0.0570187)
(-0.000319965 0 0.0600343)
(-0.000398362 0 0.0624625)
(-0.000488397 0 0.0641886)
(-0.000587549 0 0.0650575)
(-0.000691067 0 0.0648511)
(-0.000790729 0 0.0632555)
(-0.000873491 0 0.0598317)
(-0.000921671 0 0.0540402)
(-0.000918548 0 0.0454477)
(-0.000863601 0 0.0342791)
(-0.00079033 0 0.0222598)
(-0.000753735 0 0.0129678)
(-0.000766135 0 0.0103587)
(-0.000769076 0 0.0155841)
(-0.000726012 0 0.0253192)
(-0.000683299 0 0.034128)
(-0.000687482 0 0.0381321)
(-0.000720041 0 0.0362257)
(-0.000735542 0 0.0293103)
(-0.000717326 0 0.0189584)
(-0.000696616 0 0.00935052)
(-0.000690305 0 0.0049208)
(-0.000667941 0 0.00489403)
(-0.000624583 0 0.00575361)
(-0.000576097 0 0.00477719)
(-0.000522958 0 0.00129213)
(-0.000460467 0 -0.00419297)
(-0.000381743 0 -0.0109847)
(-0.000283507 0 -0.0185765)
(-0.000170559 0 -0.0266674)
(-4.37522e-05 0 -0.035073)
(9.78935e-05 0 -0.0437201)
(0.000257052 0 -0.0526582)
(0.000437412 0 -0.0620646)
(0.000640527 0 -0.0722272)
(0.000860292 0 -0.0834884)
(0.0010737 0 -0.0960998)
(0.00122955 0 -0.109928)
(0.00125083 0 -0.124083)
(-0.000317222 0 0.00676782)
(-0.000309051 0 0.0128538)
(-0.000305078 0 0.0187975)
(-0.000297091 0 0.0245947)
(-0.000290573 0 0.0301852)
(-0.000289296 0 0.0355176)
(-0.000296301 0 0.0405546)
(-0.000313818 0 0.0452675)
(-0.000343361 0 0.0496287)
(-0.000385904 0 0.0536029)
(-0.000442023 0 0.057141)
(-0.000511916 0 0.0601763)
(-0.000595233 0 0.0626205)
(-0.000690708 0 0.0643576)
(-0.000795624 0 0.0652298)
(-0.000904915 0 0.0650154)
(-0.00100992 0 0.0633958)
(-0.0010971 0 0.0599273)
(-0.00114848 0 0.0540714)
(-0.00114761 0 0.0454089)
(-0.00109469 0 0.0341973)
(-0.00102304 0 0.0221911)
(-0.000985975 0 0.0129505)
(-0.000996037 0 0.0103654)
(-0.000998153 0 0.0155624)
(-0.000956612 0 0.0252744)
(-0.000915101 0 0.0341053)
(-0.000919124 0 0.0381428)
(-0.000951175 0 0.0362405)
(-0.000966379 0 0.0293044)
(-0.000946875 0 0.018938)
(-0.00092248 0 0.00933535)
(-0.000911192 0 0.00490453)
(-0.000883543 0 0.00486434)
(-0.000834413 0 0.00571422)
(-0.000779183 0 0.00473376)
(-0.000717851 0 0.00124354)
(-0.000644193 0 -0.00425173)
(-0.000552779 0 -0.0110555)
(-0.000440868 0 -0.0186602)
(-0.000311589 0 -0.0267617)
(-0.000166566 0 -0.0351777)
(-5.2127e-06 0 -0.0438364)
(0.000174847 0 -0.0527881)
(0.000376535 0 -0.0622096)
(0.000600223 0 -0.0723852)
(0.000837962 0 -0.0836492)
(0.00106441 0 -0.096238)
(0.00122621 0 -0.11)
(0.00124577 0 -0.12404)
(-0.000523414 0 0.00676067)
(-0.000515418 0 0.0128392)
(-0.000513414 0 0.0187781)
(-0.000507053 0 0.0245766)
(-0.000502074 0 0.0301771)
(-0.000502197 0 0.0355273)
(-0.000510619 0 0.0405872)
(-0.000529786 0 0.0453255)
(-0.000561362 0 0.0497125)
(-0.0006064 0 0.0537117)
(-0.000665517 0 0.057273)
(-0.000738916 0 0.060329)
(-0.00082621 0 0.0627903)
(-0.000926056 0 0.0645387)
(-0.00103558 0 0.0654143)
(-0.00114948 0 0.0651914)
(-0.00125879 0 0.0635467)
(-0.00134964 0 0.060032)
(-0.00140394 0 0.0541099)
(-0.00140561 0 0.0453764)
(-0.00135547 0 0.0341208)
(-0.00128641 0 0.0221254)
(-0.00124969 0 0.0129328)
(-0.00125754 0 0.0103708)
(-0.00125824 0 0.0155426)
(-0.00121758 0 0.0252345)
(-0.00117714 0 0.0340885)
(-0.00118132 0 0.0381597)
(-0.00121332 0 0.0362616)
(-0.00122868 0 0.0293041)
(-0.00120839 0 0.0189214)
(-0.00118058 0 0.00932233)
(-0.00116411 0 0.00489025)
(-0.00113089 0 0.00483741)
(-0.001076 0 0.005678)
(-0.00101405 0 0.00469297)
(-0.000944894 0 0.00119635)
(-0.000861111 0 -0.00430962)
(-0.000758092 0 -0.0111267)
(-0.000633213 0 -0.0187452)
(-0.000488426 0 -0.0268583)
(-0.000326401 0 -0.0352856)
(-0.000146744 0 -0.0439563)
(5.24846e-05 0 -0.0529217)
(0.00027345 0 -0.0623577)
(0.000515399 0 -0.0725449)
(0.000768828 0 -0.0838086)
(0.00100665 0 -0.0963703)
(0.00117432 0 -0.110061)
(0.00119473 0 -0.123981)
(-0.000763999 0 0.00675627)
(-0.000756773 0 0.012829)
(-0.000757131 0 0.0187636)
(-0.000752803 0 0.0245633)
(-0.00074969 0 0.0301729)
(-0.000751411 0 0.0355402)
(-0.000761288 0 0.0406229)
(-0.000781988 0 0.045387)
(-0.000815353 0 0.0498004)
(-0.000862544 0 0.0538253)
(-0.00092423 0 0.0574107)
(-0.00100063 0 0.060488)
(-0.00109133 0 0.0629667)
(-0.00119493 0 0.0647269)
(-0.00130843 0 0.0656057)
(-0.00142635 0 0.0653739)
(-0.00153945 0 0.0637032)
(-0.00163359 0 0.0601412)
(-0.00169057 0 0.0541523)
(-0.00169458 0 0.0453478)
(-0.00164692 0 0.0340484)
(-0.00158003 0 0.0220624)
(-0.00154337 0 0.0129149)
(-0.00154905 0 0.0103749)
(-0.00154846 0 0.0155231)
(-0.00150891 0 0.0251961)
(-0.00146997 0 0.0340729)
(-0.00147488 0 0.0381776)
(-0.00150732 0 0.0362838)
(-0.00152303 0 0.0293049)
(-0.00150196 0 0.018905)
(-0.0014707 0 0.00930784)
(-0.00144906 0 0.00487372)
(-0.00141033 0 0.00480818)
(-0.00134996 0 0.00563927)
(-0.00128166 0 0.00464907)
(-0.00120506 0 0.00114467)
(-0.00111198 0 -0.00437314)
(-0.000998136 0 -0.0112043)
(-0.00086084 0 -0.0188373)
(-0.000701504 0 -0.0269633)
(-0.000523548 0 -0.0354026)
(-0.000326777 0 -0.044086)
(-0.000109776 0 -0.0530652)
(0.000128924 0 -0.0625152)
(0.000387577 0 -0.0727126)
(0.000655432 0 -0.0839738)
(0.000904159 0 -0.0965053)
(0.00107871 0 -0.110122)
(0.00110313 0 -0.12392)
(-0.00103829 0 0.00675518)
(-0.00103204 0 0.0128241)
(-0.00103501 0 0.0187554)
(-0.00103307 0 0.0245559)
(-0.00103223 0 0.0301738)
(-0.00103592 0 0.0355572)
(-0.0010475 0 0.0406621)
(-0.00106983 0 0.0454519)
(-0.00110495 0 0.049892)
(-0.00115415 0 0.053943)
(-0.00121818 0 0.0575529)
(-0.00129727 0 0.0606519)
(-0.00139102 0 0.0631483)
(-0.00149798 0 0.0649203)
(-0.00161505 0 0.0658024)
(-0.00173658 0 0.0655612)
(-0.00185306 0 0.0638636)
(-0.00195009 0 0.0602534)
(-0.00200933 0 0.0541969)
(-0.00201514 0 0.0453213)
(-0.00196921 0 0.0339779)
(-0.00190366 0 0.0220002)
(-0.00186663 0 0.0128957)
(-0.00187037 0 0.0103773)
(-0.0018692 0 0.0155035)
(-0.00183153 0 0.0251586)
(-0.0017947 0 0.0340573)
(-0.00180078 0 0.0381947)
(-0.00183385 0 0.036305)
(-0.00184981 0 0.0293043)
(-0.00182775 0 0.0188861)
(-0.00179305 0 0.00928947)
(-0.00176646 0 0.00485259)
(-0.00172259 0 0.0047741)
(-0.00165716 0 0.00559521)
(-0.00158303 0 0.00459915)
(-0.00149943 0 0.00108591)
(-0.00139767 0 -0.00444499)
(-0.00127347 0 -0.0112912)
(-0.00112433 0 -0.0189398)
(-0.000951408 0 -0.0270798)
(-0.000758434 0 -0.0355321)
(-0.000545567 0 -0.0442287)
(-0.000311907 0 -0.053222)
(-5.66052e-05 0 -0.0626857)
(0.000217745 0 -0.0728924)
(0.000499417 0 -0.0841494)
(0.00075926 0 -0.0966487)
(0.000942243 0 -0.11019)
(0.000973973 0 -0.123866)
(-0.00134585 0 0.00675753)
(-0.00134069 0 0.012825)
(-0.00134644 0 0.0187542)
(-0.00134718 0 0.0245557)
(-0.001349 0 0.0301809)
(-0.00135509 0 0.0355793)
(-0.00136873 0 0.0407057)
(-0.00139292 0 0.0455208)
(-0.0014299 0 0.0499878)
(-0.00148111 0 0.0540652)
(-0.00154738 0 0.0576999)
(-0.00162902 0 0.0608211)
(-0.00172559 0 0.0633355)
(-0.00183564 0 0.0651194)
(-0.00195597 0 0.0660045)
(-0.00208075 0 0.0657534)
(-0.00220024 0 0.0640282)
(-0.00229975 0 0.0603687)
(-0.00236073 0 0.0542437)
(-0.00236771 0 0.0452964)
(-0.00232269 0 0.0339086)
(-0.00225762 0 0.021938)
(-0.00221972 0 0.012875)
(-0.00222173 0 0.0103783)
(-0.0022208 0 0.0154847)
(-0.00218603 0 0.0251231)
(-0.00215218 0 0.0340431)
(-0.00215986 0 0.0382121)
(-0.00219359 0 0.0363257)
(-0.00220953 0 0.0293024)
(-0.00218619 0 0.0188648)
(-0.002148 0 0.00926754)
(-0.0021168 0 0.00482743)
(-0.00206835 0 0.00473593)
(-0.00199843 0 0.00554671)
(-0.00191898 0 0.00454411)
(-0.00182887 0 0.00102119)
(-0.001719 0 -0.00452387)
(-0.00158489 0 -0.0113863)
(-0.00142445 0 -0.0190517)
(-0.00123876 0 -0.0272068)
(-0.00103155 0 -0.0356729)
(-0.000803438 0 -0.0443833)
(-0.000553983 0 -0.0533909)
(-0.000282884 0 -0.0628681)
(6.56353e-06 0 -0.0730832)
(0.000301907 0 -0.0843348)
(0.000573519 0 -0.0968005)
(0.000766786 0 -0.110265)
(0.000809176 0 -0.123821)
(-0.00168628 0 0.00676362)
(-0.00168236 0 0.0128321)
(-0.00169111 0 0.0187606)
(-0.00169484 0 0.0245635)
(-0.00169974 0 0.0301954)
(-0.00170868 0 0.0356077)
(-0.00172479 0 0.0407545)
(-0.00175116 0 0.0455944)
(-0.00179019 0 0.050088)
(-0.00184349 0 0.054192)
(-0.00191202 0 0.0578517)
(-0.00199612 0 0.0609953)
(-0.0020954 0 0.063528)
(-0.00220834 0 0.065324)
(-0.00233169 0 0.066212)
(-0.00245944 0 0.0659506)
(-0.00258159 0 0.0641969)
(-0.00268313 0 0.060487)
(-0.00274533 0 0.0542922)
(-0.00275277 0 0.0452724)
(-0.00270777 0 0.0338396)
(-0.00264223 0 0.0218751)
(-0.00260281 0 0.0128526)
(-0.00260316 0 0.0103786)
(-0.00260329 0 0.0154681)
(-0.00257269 0 0.0250912)
(-0.00254298 0 0.0340316)
(-0.00255288 0 0.0382308)
(-0.0025873 0 0.0363467)
(-0.00260289 0 0.0293)
(-0.00257784 0 0.0188418)
(-0.00253597 0 0.0092429)
(-0.00250042 0 0.00479936)
(-0.00244811 0 0.00469501)
(-0.00237446 0 0.00549522)
(-0.00229032 0 0.00448539)
(-0.00219418 0 0.000951905)
(-0.00207674 0 -0.00460838)
(-0.00193318 0 -0.0114882)
(-0.00176193 0 -0.0191713)
(-0.00156414 0 -0.0273425)
(-0.00134336 0 -0.0358231)
(-0.0011007 0 -0.0445479)
(-0.000836096 0 -0.05357)
(-0.000549728 0 -0.0630605)
(-0.000245443 0 -0.0732835)
(6.37999e-05 0 -0.0845287)
(0.000348182 0 -0.0969601)
(0.000553812 0 -0.110349)
(0.000610199 0 -0.123785)
(-0.00206035 0 0.00677372)
(-0.00205765 0 0.012846)
(-0.0020695 0 0.0187757)
(-0.0020764 0 0.0245804)
(-0.00208465 0 0.0302185)
(-0.00209678 0 0.0356435)
(-0.00211573 0 0.0408094)
(-0.00214458 0 0.0456732)
(-0.00218589 0 0.050193)
(-0.00224143 0 0.0543234)
(-0.00231228 0 0.0580084)
(-0.00239885 0 0.0611746)
(-0.00250077 0 0.0637256)
(-0.0026165 0 0.0655337)
(-0.0027427 0 0.0664244)
(-0.00287319 0 0.0661522)
(-0.00299767 0 0.064369)
(-0.00310081 0 0.0606074)
(-0.00316361 0 0.0543416)
(-0.00317075 0 0.0452483)
(-0.00312483 0 0.0337698)
(-0.00305781 0 0.0218105)
(-0.00301616 0 0.0128283)
(-0.00301481 0 0.0103788)
(-0.00301678 0 0.0154548)
(-0.00299176 0 0.0250642)
(-0.00296756 0 0.0340237)
(-0.00298045 0 0.0382512)
(-0.00301562 0 0.036368)
(-0.0030305 0 0.0292968)
(-0.00300326 0 0.018817)
(-0.0029574 0 0.00921573)
(-0.00291772 0 0.00476892)
(-0.00286232 0 0.00465211)
(-0.00278586 0 0.00544147)
(-0.00269775 0 0.00442359)
(-0.00259609 0 0.000878535)
(-0.00247155 0 -0.00469811)
(-0.00231898 0 -0.0115964)
(-0.00213739 0 -0.019298)
(-0.00192809 0 -0.0274861)
(-0.00169429 0 -0.0359821)
(-0.00143762 0 -0.0447218)
(-0.00115831 0 -0.0537587)
(-0.000856946 0 -0.0632625)
(-0.000537788 0 -0.0734929)
(-0.00021411 0 -0.0847312)
(8.43034e-05 0 -0.097128)
(0.000304494 0 -0.110441)
(0.000378112 0 -0.123761)
(-0.00247005 0 0.00678762)
(-0.00246821 0 0.0128665)
(-0.00248291 0 0.0187992)
(-0.00249272 0 0.0246066)
(-0.00250418 0 0.0302507)
(-0.00251953 0 0.0356874)
(-0.00254146 0 0.0408712)
(-0.002573 0 0.0457578)
(-0.00261679 0 0.0503032)
(-0.00267473 0 0.0544599)
(-0.002748 0 0.0581699)
(-0.0028371 0 0.0613587)
(-0.00294166 0 0.0639281)
(-0.00306013 0 0.0657482)
(-0.00318907 0 0.0666413)
(-0.00332209 0 0.0663575)
(-0.0034486 0 0.0645438)
(-0.0035529 0 0.060729)
(-0.00361577 0 0.0543908)
(-0.00362191 0 0.0452229)
(-0.00357427 0 0.0336979)
(-0.00350499 0 0.0217433)
(-0.00346058 0 0.0128016)
(-0.00345753 0 0.0103793)
(-0.00346192 0 0.015446)
(-0.00344354 0 0.0250435)
(-0.00342608 0 0.0340204)
(-0.00344273 0 0.0382735)
(-0.00347884 0 0.0363893)
(-0.00349277 0 0.0292923)
(-0.00346301 0 0.01879)
(-0.00341293 0 0.00918585)
(-0.00336931 0 0.00473631)
(-0.00331154 0 0.00460761)
(-0.00323316 0 0.00538582)
(-0.00314184 0 0.00435893)
(-0.0030352 0 0.000801183)
(-0.002904 0 -0.00479298)
(-0.00274289 0 -0.0117108)
(-0.00255141 0 -0.0194316)
(-0.00233106 0 -0.0276376)
(-0.00208471 0 -0.0361499)
(-0.0018144 0 -0.0449051)
(-0.00152064 0 -0.053957)
(-0.00120434 0 -0.0634742)
(-0.000870024 0 -0.0737121)
(-0.000531138 0 -0.0849435)
(-0.000217271 0 -0.0973059)
(1.96794e-05 0 -0.110545)
(0.000113545 0 -0.123751)
(-0.00291734 0 0.00680434)
(-0.00291577 0 0.0128922)
(-0.00293267 0 0.0188296)
(-0.00294469 0 0.0246408)
(-0.00295874 0 0.0302911)
(-0.00297692 0 0.0357391)
(-0.00300167 0 0.0409401)
(-0.0030359 0 0.0458487)
(-0.00308224 0 0.050419)
(-0.00314267 0 0.0546015)
(-0.00321846 0 0.0583365)
(-0.00331013 0 0.0615478)
(-0.00341736 0 0.0641356)
(-0.00353855 0 0.0659674)
(-0.00367013 0 0.0668624)
(-0.00380552 0 0.0665663)
(-0.00393382 0 0.0647208)
(-0.00403897 0 0.0608512)
(-0.00410151 0 0.0544389)
(-0.00410628 0 0.0451953)
(-0.00405661 0 0.0336232)
(-0.00398484 0 0.0216729)
(-0.00393759 0 0.0127722)
(-0.00393288 0 0.0103804)
(-0.00393982 0 0.0154421)
(-0.00392844 0 0.0250298)
(-0.00391832 0 0.0340225)
(-0.00393936 0 0.0382981)
(-0.00397673 0 0.0364106)
(-0.00398985 0 0.0292863)
(-0.00395761 0 0.0187604)
(-0.00390338 0 0.00915321)
(-0.00385602 0 0.00470172)
(-0.0037964 0 0.00456191)
(-0.00371679 0 0.00532869)
(-0.00362295 0 0.00429172)
(-0.00351189 0 0.000720086)
(-0.00337451 0 -0.0048928)
(-0.00320539 0 -0.0118312)
(-0.00300448 0 -0.0195722)
(-0.00277346 0 -0.0277969)
(-0.00251495 0 -0.0363263)
(-0.00223126 0 -0.0450977)
(-0.00192316 0 -0.0541652)
(-0.00159177 0 -0.0636961)
(-0.00124181 0 -0.0739417)
(-0.00088678 0 -0.0851663)
(-0.000555969 0 -0.0974952)
(-0.000300149 0 -0.110662)
(-0.000183307 0 -0.123758)
(-0.00340273 0 0.00682263)
(-0.0034009 0 0.0129207)
(-0.00341922 0 0.0188644)
(-0.00343254 0 0.0246806)
(-0.00344836 0 0.030338)
(-0.00346872 0 0.0357974)
(-0.00349588 0 0.0410153)
(-0.00353258 0 0.0459455)
(-0.0035814 0 0.0505404)
(-0.00364431 0 0.0547485)
(-0.00372262 0 0.0585083)
(-0.00381689 0 0.0617419)
(-0.00392678 0 0.0643479)
(-0.00405064 0 0.0661912)
(-0.00418479 0 0.0670876)
(-0.00432243 0 0.0667783)
(-0.00445234 0 0.0648996)
(-0.00455816 0 0.0609736)
(-0.00462027 0 0.0544858)
(-0.00462373 0 0.0451654)
(-0.0045723 0 0.0335457)
(-0.00449848 0 0.0215993)
(-0.00444882 0 0.0127404)
(-0.00444257 0 0.0103818)
(-0.0044517 0 0.0154431)
(-0.00444684 0 0.0250234)
(-0.004444 0 0.0340304)
(-0.00446974 0 0.0383254)
(-0.00450887 0 0.0364321)
(-0.00452168 0 0.0292791)
(-0.0044875 0 0.0187287)
(-0.00442955 0 0.00911798)
(-0.00437874 0 0.00466538)
(-0.00431756 0 0.00451536)
(-0.00423716 0 0.00527051)
(-0.00414138 0 0.0042224)
(-0.0040265 0 0.000635629)
(-0.00388349 0 -0.00499719)
(-0.00370692 0 -0.0119573)
(-0.00349704 0 -0.0197194)
(-0.00325569 0 -0.0279638)
(-0.00298534 0 -0.0365112)
(-0.00268845 0 -0.0452995)
(-0.00236597 0 -0.0543833)
(-0.00201921 0 -0.0639284)
(-0.00165299 0 -0.0741821)
(-0.0012808 0 -0.0854007)
(-0.000931551 0 -0.0976971)
(-0.000654875 0 -0.110793)
(-0.000512591 0 -0.123783)
(-0.0039249 0 0.00684152)
(-0.00392253 0 0.0129504)
(-0.00394171 0 0.0189011)
(-0.00395567 0 0.0247235)
(-0.00397258 0 0.030389)
(-0.00399453 0 0.0358608)
(-0.00402363 0 0.041096)
(-0.00406251 0 0.0460479)
(-0.00411362 0 0.0506672)
(-0.00417891 0 0.0549006)
(-0.00425968 0 0.0586851)
(-0.00435649 0 0.0619411)
(-0.00446899 0 0.064565)
(-0.00459546 0 0.0664195)
(-0.00473209 0 0.0673167)
(-0.00487186 0 0.0669932)
(-0.0050033 0 0.06508)
(-0.00510975 0 0.0610962)
(-0.00517157 0 0.0545316)
(-0.00517412 0 0.0451338)
(-0.00512162 0 0.0334662)
(-0.00504659 0 0.0215235)
(-0.00499522 0 0.0127066)
(-0.0049876 0 0.0103835)
(-0.00499837 0 0.0154483)
(-0.00499912 0 0.0250234)
(-0.00500301 0 0.0340438)
(-0.00503355 0 0.0383559)
(-0.00507498 0 0.0364546)
(-0.00508825 0 0.0292713)
(-0.00505301 0 0.0186952)
(-0.00499205 0 0.00908052)
(-0.00493814 0 0.00462748)
(-0.0048756 0 0.00446816)
(-0.0047947 0 0.00521159)
(-0.00469747 0 0.00415136)
(-0.00457937 0 0.000548226)
(-0.00443133 0 -0.00510574)
(-0.00424792 0 -0.0120887)
(-0.00402951 0 -0.0198728)
(-0.00377818 0 -0.0281379)
(-0.00349629 0 -0.0367044)
(-0.0031863 0 -0.0455105)
(-0.00284935 0 -0.0546114)
(-0.00248685 0 -0.0641714)
(-0.00210368 0 -0.074434)
(-0.00171327 0 -0.0856473)
(-0.00134412 0 -0.0979126)
(-0.00104469 0 -0.110941)
(-0.000874677 0 -0.123829)
(-0.00448146 0 0.00686072)
(-0.00447862 0 0.0129806)
(-0.00449851 0 0.0189388)
(-0.00451292 0 0.0247682)
(-0.00453065 0 0.0304431)
(-0.00455386 0 0.0359282)
(-0.00458463 0 0.0411813)
(-0.00462544 0 0.0461551)
(-0.00467866 0 0.0507989)
(-0.00474619 0 0.0550578)
(-0.00482931 0 0.0588669)
(-0.00492857 0 0.0621451)
(-0.00504359 0 0.0647868)
(-0.00517258 0 0.0666521)
(-0.00531161 0 0.0675496)
(-0.00545346 0 0.0672109)
(-0.00558637 0 0.0652621)
(-0.00569352 0 0.0612191)
(-0.0057553 0 0.0545768)
(-0.00575743 0 0.0451014)
(-0.00570459 0 0.0333858)
(-0.00562917 0 0.0214465)
(-0.00557678 0 0.0126712)
(-0.00556803 0 0.0103853)
(-0.00558 0 0.0154568)
(-0.00558556 0 0.0250292)
(-0.00559561 0 0.0340626)
(-0.00563097 0 0.0383896)
(-0.00567522 0 0.0364785)
(-0.00568973 0 0.0292636)
(-0.00565436 0 0.0186606)
(-0.0055912 0 0.00904122)
(-0.00553464 0 0.00458823)
(-0.005471 0 0.00442045)
(-0.00538992 0 0.00515216)
(-0.00529171 0 0.00407894)
(-0.00517099 0 0.000458263)
(-0.00501853 0 -0.00521806)
(-0.00482887 0 -0.012225)
(-0.00460239 0 -0.0200324)
(-0.00434142 0 -0.0283192)
(-0.00404826 0 -0.0369057)
(-0.00372526 0 -0.0457307)
(-0.00337369 0 -0.0548496)
(-0.00299505 0 -0.0644255)
(-0.00259423 0 -0.0746979)
(-0.00218454 0 -0.0859071)
(-0.00179403 0 -0.0981429)
(-0.00147002 0 -0.111107)
(-0.00127006 0 -0.123896)
(-0.00507019 0 0.00688054)
(-0.00506716 0 0.0130116)
(-0.005088 0 0.0189776)
(-0.0051031 0 0.0248148)
(-0.00512179 0 0.0304998)
(-0.00514632 0 0.0359991)
(-0.0051787 0 0.0412708)
(-0.00522136 0 0.0462668)
(-0.00527659 0 0.0509353)
(-0.00534626 0 0.0552196)
(-0.00543163 0 0.0590534)
(-0.00553326 0 0.0623537)
(-0.00565073 0 0.0650132)
(-0.00578219 0 0.066889)
(-0.00592356 0 0.0677862)
(-0.00606743 0 0.0674315)
(-0.00620183 0 0.0654458)
(-0.00630977 0 0.0613427)
(-0.00637171 0 0.054622)
(-0.00637377 0 0.0450688)
(-0.00632105 0 0.0333054)
(-0.00624574 0 0.021369)
(-0.00619275 0 0.0126349)
(-0.00618315 0 0.010387)
(-0.00619627 0 0.0154682)
(-0.00620632 0 0.0250401)
(-0.00622232 0 0.0340864)
(-0.00626262 0 0.0384269)
(-0.0063101 0 0.0365044)
(-0.00632647 0 0.0292567)
(-0.0062917 0 0.0186255)
(-0.00622706 0 0.00900054)
(-0.00616843 0 0.00454792)
(-0.00610413 0 0.00437245)
(-0.00602332 0 0.00509249)
(-0.00592469 0 0.00400548)
(-0.00580195 0 0.000366117)
(-0.00564567 0 -0.00533378)
(-0.00545032 0 -0.012366)
(-0.00521623 0 -0.0201977)
(-0.00494596 0 -0.0285073)
(-0.00464179 0 -0.0371151)
(-0.00430584 0 -0.0459602)
(-0.00393951 0 -0.0550981)
(-0.00354433 0 -0.064691)
(-0.00312516 0 -0.0749743)
(-0.00269515 0 -0.0861807)
(-0.00228185 0 -0.0983889)
(-0.00193142 0 -0.111291)
(-0.00169931 0 -0.123987)
(-0.00568982 0 0.00690165)
(-0.00568696 0 0.0130445)
(-0.00570917 0 0.0190188)
(-0.00572541 0 0.0248641)
(-0.00574545 0 0.0305599)
(-0.00577155 0 0.0360739)
(-0.00580571 0 0.0413645)
(-0.00585029 0 0.046383)
(-0.00590755 0 0.0510762)
(-0.00597934 0 0.055386)
(-0.00606695 0 0.0592445)
(-0.00617092 0 0.062567)
(-0.00629082 0 0.065244)
(-0.00642472 0 0.0671301)
(-0.00656842 0 0.0680264)
(-0.00671433 0 0.0676549)
(-0.00685025 0 0.0656314)
(-0.00695904 0 0.061467)
(-0.00702124 0 0.0546675)
(-0.00702335 0 0.0450364)
(-0.00697081 0 0.0332252)
(-0.00689564 0 0.0212914)
(-0.0068422 0 0.012598)
(-0.00683205 0 0.010389)
(-0.00684668 0 0.0154825)
(-0.00686148 0 0.0250562)
(-0.00688368 0 0.0341155)
(-0.00692922 0 0.0384681)
(-0.00698029 0 0.0365327)
(-0.00699891 0 0.029251)
(-0.0069652 0 0.0185904)
(-0.00689965 0 0.00895891)
(-0.00683959 0 0.00450692)
(-0.00677529 0 0.00432455)
(-0.00669542 0 0.00503296)
(-0.00659702 0 0.00393139)
(-0.00647289 0 0.000272184)
(-0.00631338 0 -0.00545253)
(-0.00611288 0 -0.0125113)
(-0.00587164 0 -0.0203686)
(-0.00559243 0 -0.0287021)
(-0.00527747 0 -0.0373324)
(-0.00492865 0 -0.0461988)
(-0.00454743 0 -0.0553571)
(-0.00413533 0 -0.0649683)
(-0.00369713 0 -0.0752639)
(-0.00324577 0 -0.0864691)
(-0.00280825 0 -0.098652)
(-0.00242956 0 -0.111495)
(-0.00216315 0 -0.124102)
(-0.00634014 0 0.0069247)
(-0.0063377 0 0.0130805)
(-0.00636165 0 0.0190637)
(-0.00637946 0 0.0249177)
(-0.00640126 0 0.0306245)
(-0.00642927 0 0.0361534)
(-0.00646544 0 0.041463)
(-0.0065121 0 0.0465039)
(-0.00657149 0 0.0512218)
(-0.00664548 0 0.0555571)
(-0.00673538 0 0.0594402)
(-0.00684174 0 0.0627847)
(-0.00696412 0 0.0654792)
(-0.00710051 0 0.0673753)
(-0.00724661 0 0.0682702)
(-0.00739462 0 0.0678811)
(-0.00753212 0 0.0658189)
(-0.0076418 0 0.0615923)
(-0.00770425 0 0.0547131)
(-0.00770629 0 0.0450041)
(-0.00765369 0 0.0331452)
(-0.0075784 0 0.0212135)
(-0.00752446 0 0.0125605)
(-0.00751409 0 0.0103917)
(-0.00753083 0 0.0155003)
(-0.00755102 0 0.025078)
(-0.00758 0 0.0341502)
(-0.00763128 0 0.0385134)
(-0.00768631 0 0.0365637)
(-0.00770743 0 0.0292468)
(-0.00767503 0 0.0185555)
(-0.00760904 0 0.00891672)
(-0.00754828 0 0.00446574)
(-0.00748481 0 0.00427723)
(-0.00740665 0 0.00497406)
(-0.00730923 0 0.00385711)
(-0.00718441 0 0.000176882)
(-0.00702227 0 -0.00557392)
(-0.00681717 0 -0.0126606)
(-0.00656927 0 -0.0205447)
(-0.00628145 0 -0.0289034)
(-0.00595594 0 -0.0375575)
(-0.00559435 0 -0.0464467)
(-0.00519813 0 -0.0556268)
(-0.00476875 0 -0.0652577)
(-0.00431087 0 -0.0755671)
(-0.00383716 0 -0.0867731)
(-0.00337402 0 -0.098933)
(-0.00296529 0 -0.111721)
(-0.00266248 0 -0.124244)
(-0.00702144 0 0.00695013)
(-0.00701958 0 0.0131203)
(-0.0070455 0 0.0191134)
(-0.00706514 0 0.0249765)
(-0.00708896 0 0.0306945)
(-0.00711913 0 0.0362383)
(-0.00715752 0 0.0415667)
(-0.00720642 0 0.0466298)
(-0.00726809 0 0.0513723)
(-0.00734441 0 0.0557329)
(-0.00743671 0 0.0596406)
(-0.00754559 0 0.0630073)
(-0.00767055 0 0.0657191)
(-0.00780957 0 0.0676249)
(-0.00795818 0 0.0685179)
(-0.0081084 0 0.0681104)
(-0.00824757 0 0.0660082)
(-0.00835819 0 0.0617184)
(-0.00842085 0 0.0547588)
(-0.00842263 0 0.0449715)
(-0.00836962 0 0.0330648)
(-0.00829384 0 0.021135)
(-0.0082393 0 0.0125226)
(-0.00822907 0 0.0103957)
(-0.00824858 0 0.0155223)
(-0.00827488 0 0.0251062)
(-0.00831134 0 0.0341912)
(-0.00836897 0 0.0385634)
(-0.00842841 0 0.0365976)
(-0.00845225 0 0.0292441)
(-0.00842137 0 0.018521)
(-0.00835543 0 0.00887437)
(-0.00829476 0 0.00442491)
(-0.008233 0 0.00423107)
(-0.00815742 0 0.00491632)
(-0.00806178 0 0.00378315)
(-0.00793701 0 8.06622e-05)
(-0.00777291 0 -0.00569755)
(-0.00756381 0 -0.0128134)
(-0.00730975 0 -0.0207258)
(-0.00701372 0 -0.0291109)
(-0.00667789 0 -0.0377904)
(-0.00630368 0 -0.0467039)
(-0.00589239 0 -0.0559073)
(-0.00544541 0 -0.0655595)
(-0.00496723 0 -0.0758847)
(-0.0044702 0 -0.0870935)
(-0.00398009 0 -0.0992332)
(-0.00353962 0 -0.11197)
(-0.00319843 0 -0.124413)
(-0.00773405 0 0.00697809)
(-0.00773279 0 0.0131643)
(-0.00776074 0 0.0191682)
(-0.00778229 0 0.0250409)
(-0.00780824 0 0.0307704)
(-0.00784068 0 0.0363289)
(-0.00788141 0 0.041676)
(-0.00793268 0 0.0467612)
(-0.00799676 0 0.051528)
(-0.00807555 0 0.0559139)