/*--------------------------------*- C++ -*----------------------------------*\
  =========                 |
  \\      /  F ield         | OpenFOAM: The Open Source CFD Toolbox
   \\    /   O peration     | Website:  https://openfoam.org
    \\  /    A nd           | Version:  9
     \\/     M anipulation  |
\*---------------------------------------------------------------------------*/
FoamFile
{
    format      ascii;
    class       surfaceScalarField;
    location    "0.18";
    object      alphaPhi0.water;
}
// * * * * * * * * * * * * * * * * * * * * * * * * * * * * * * * * * * * * * //

dimensions      [0 3 -1 0 0 0 0];

internalField   nonuniform List<scalar> 
9850
(
1.03059e-20
4.51906e-20
2.59138e-19
1.06602e-18
2.42264e-18
9.81069e-18
1.09129e-17
4.19671e-17
7.56925e-17
1.98111e-16
2.15075e-15
2.02713e-15
4.64128e-14
2.79313e-14
9.19418e-13
5.42817e-13
1.05921e-11
1.19401e-11
2.73949e-10
1.01111e-10
2.15312e-09
2.01324e-09
2.42743e-08
3.66544e-09
2.22439e-06
3.77813e-07
4.24996e-06
9.22488e-07
4.12103e-06
1.48365e-07
4.08751e-06
1.0613e-08
4.0793e-06
8.42205e-08
4.0635e-06
3.77594e-08
4.04614e-06
-1.58436e-07
4.04723e-06
-4.16411e-07
4.07542e-06
-5.06149e-07
4.13008e-06
-5.41762e-07
4.20059e-06
-4.73498e-07
4.26912e-06
-3.32935e-07
4.31695e-06
-1.68311e-07
4.33124e-06
-1.91021e-08
4.31224e-06
1.03683e-07
4.27925e-06
2.36796e-07
4.23374e-06
4.8909e-07
1.38079e-06
7.29351e-07
2.1062e-08
1.94308e-07
0
2.8128e-08
0
6.2531e-09
0
1.51312e-09
0
4.51297e-10
0
1.4367e-10
0
4.57264e-11
0
1.37839e-11
0
4.24511e-12
0
1.33504e-12
0
4.35609e-13
0
1.45235e-13
0
5.05008e-14
9.46268e-16
1.78756e-14
1.90828e-15
6.67764e-15
1.68669e-15
2.99379e-15
1.1096e-15
1.45739e-15
6.66262e-16
7.64746e-16
3.547e-16
3.73378e-16
1.42678e-16
1.701e-20
7.17142e-20
3.63241e-19
1.37867e-18
2.89489e-18
1.1065e-17
1.14219e-17
4.44987e-17
6.09862e-17
1.77406e-16
1.73169e-15
1.62307e-15
4.37037e-14
2.20985e-14
8.75049e-13
4.84385e-13
1.27172e-11
9.6125e-12
2.29432e-10
1.2149e-10
1.80908e-09
9.98255e-10
2.12118e-08
1.96722e-09
1.8228e-06
1.59117e-07
4.37947e-06
1.02064e-06
4.19032e-06
3.64766e-07
4.14134e-06
5.9722e-08
4.14601e-06
7.95489e-08
4.14112e-06
4.26442e-08
4.11594e-06
-1.33251e-07
4.08903e-06
-3.89504e-07
4.08406e-06
-5.01173e-07
4.10551e-06
-5.63221e-07
4.14965e-06
-5.17632e-07
4.20273e-06
-3.86021e-07
4.24797e-06
-2.13547e-07
4.27221e-06
-4.33645e-08
4.2709e-06
1.04764e-07
4.24784e-06
2.56864e-07
4.17697e-06
5.14746e-07
1.15921e-06
6.56718e-07
9.48943e-09
1.37006e-07
0
1.78282e-08
0
3.84035e-09
0
1.0859e-09
0
3.41466e-10
0
1.18231e-10
0
3.98829e-11
0
1.28886e-11
0
4.16569e-12
0
1.31343e-12
0
4.26199e-13
0
1.41255e-13
0
4.92474e-14
1.05409e-15
1.76635e-14
1.99971e-15
6.84931e-15
1.78504e-15
3.16313e-15
1.22402e-15
1.62175e-15
7.65058e-16
8.89644e-16
4.35231e-16
4.417e-16
1.8723e-16
2.52999e-20
9.91712e-20
4.28309e-19
1.47661e-18
3.17438e-18
1.13394e-17
1.24881e-17
4.80663e-17
5.83764e-17
1.76866e-16
1.48542e-15
1.50472e-15
3.81456e-14
1.89928e-14
8.38763e-13
3.68272e-13
1.34618e-11
8.31065e-12
1.4651e-10
1.13573e-10
9.15399e-10
1.51305e-09
1.50544e-08
1.83163e-09
1.12716e-06
6.78963e-08
4.53907e-06
8.60582e-07
4.31217e-06
6.34708e-07
4.22243e-06
1.50385e-07
4.22318e-06
7.87934e-08
4.22774e-06
3.80909e-08
4.20284e-06
-1.08359e-07
4.15758e-06
-3.44239e-07
4.12391e-06
-4.67504e-07
4.11071e-06
-5.50019e-07
4.12081e-06
-5.27733e-07
4.14586e-06
-4.11077e-07
4.17356e-06
-2.4125e-07
4.19393e-06
-6.3773e-08
4.19947e-06
9.89742e-08
4.1778e-06
2.73085e-07
3.93441e-06
5.61328e-07
5.90922e-07
4.93404e-07
1.93688e-09
6.64489e-08
0
1.01353e-08
0
2.00734e-09
0
5.46192e-10
0
2.26892e-10
0
8.37113e-11
0
3.12811e-11
0
1.10223e-11
0
3.68159e-12
0
1.20142e-12
0
3.9589e-13
0
1.3139e-13
0
4.58118e-14
1.14583e-15
1.65834e-14
2.05461e-15
6.59449e-15
1.87623e-15
3.189e-15
1.34555e-15
1.73808e-15
8.65202e-16
1.01201e-15
5.14127e-16
5.21428e-16
2.30503e-16
3.12216e-20
1.11571e-19
4.38848e-19
1.46963e-18
3.26651e-18
1.1268e-17
1.38037e-17
5.10462e-17
6.01156e-17
1.88964e-16
1.21739e-15
1.49155e-15
2.89179e-14
1.4267e-14
6.79679e-13
2.83531e-13
6.92528e-12
7.12096e-12
2.28471e-10
5.32408e-11
1.41349e-09
2.2229e-09
1.00136e-08
1.73365e-09
2.02538e-07
1.14771e-08
3.94613e-06
4.17401e-07
4.48218e-06
9.17522e-07
4.34852e-06
2.88526e-07
4.32126e-06
1.06066e-07
4.32078e-06
3.85667e-08
4.29755e-06
-8.51252e-08
4.24369e-06
-2.9038e-07
4.1893e-06
-4.13115e-07
4.14512e-06
-5.05838e-07
4.11987e-06
-5.0248e-07
4.11053e-06
-4.01745e-07
4.10892e-06
-2.39644e-07
4.11031e-06
-6.5222e-08
4.11003e-06
9.85121e-08
4.08374e-06
2.8834e-07
2.89357e-06
5.53687e-07
3.406e-08
2.44169e-07
0
4.04629e-08
0
6.25543e-09
0
9.18178e-10
0
1.6334e-10
5.72127e-12
9.21662e-11
0
4.78929e-11
0
2.03238e-11
0
8.07875e-12
0
2.9152e-12
0
1.01189e-12
0
3.42638e-13
0
1.15603e-13
0
3.94045e-14
1.34208e-15
1.42769e-14
2.15322e-15
6.04732e-15
1.95588e-15
3.09852e-15
1.46844e-15
1.82368e-15
9.97307e-16
1.14618e-15
6.29074e-16
6.53339e-16
2.77917e-16
3.29737e-20
1.13904e-19
4.32518e-19
1.42427e-18
3.26593e-18
1.09567e-17
1.49216e-17
5.22443e-17
6.3864e-17
2.09814e-16
7.33659e-16
1.50888e-15
2.28508e-14
7.34091e-15
3.61437e-13
3.05339e-13
1.04374e-11
3.64992e-12
8.70287e-11
1.58351e-10
1.69042e-09
2.62717e-09
2.82651e-09
4.12797e-10
3.39995e-08
1.41359e-09
2.36124e-06
7.33449e-08
4.72426e-06
7.89554e-07
4.54638e-06
4.88404e-07
4.46149e-06
1.91449e-07
4.42933e-06
7.07266e-08
4.3982e-06
-5.39883e-08
4.34079e-06
-2.32977e-07
4.27377e-06
-3.46089e-07
4.20547e-06
-4.37538e-07
4.15053e-06
-4.47539e-07
4.11222e-06
-3.63444e-07
4.08357e-06
-2.11014e-07
4.06036e-06
-4.22422e-08
4.04189e-06
1.14749e-07
3.97872e-06
3.16475e-07
1.44089e-06
3.62408e-07
1.91186e-09
5.86602e-08
0
1.15772e-08
0
4.75468e-09
2.70058e-11
5.14836e-10
3.33538e-12
7.86728e-11
6.26784e-12
1.9898e-11
1.69382e-12
1.53717e-11
0
9.5105e-12
0
4.63095e-12
0
1.95496e-12
0
7.39389e-13
0
2.66748e-13
0
9.42816e-14
0
3.24661e-14
1.52499e-15
1.17513e-14
2.30808e-15
5.41122e-15
2.08093e-15
3.03802e-15
1.62623e-15
1.92431e-15
1.1814e-15
1.30551e-15
7.82729e-16
8.59625e-16
3.52936e-16
3.40585e-20
1.16123e-19
4.37522e-19
1.41718e-18
3.3198e-18
1.08927e-17
1.5512e-17
5.27743e-17
6.53366e-17
2.10095e-16
6.75571e-16
1.36275e-15
1.4354e-14
3.76587e-15
2.47184e-13
2.51328e-13
3.94393e-12
1.23784e-12
2.88596e-10
2.13787e-10
7.36434e-10
5.76838e-10
8.02573e-10
2.36087e-11
5.09045e-09
2.53301e-10
8.07131e-07
3.51035e-08
4.50865e-06
2.82383e-07
4.79415e-06
5.97211e-07
4.64906e-06
3.39762e-07
4.56456e-06
1.55291e-07
4.51087e-06
-2.98244e-10
4.44788e-06
-1.69986e-07
4.37333e-06
-2.71538e-07
4.28797e-06
-3.52181e-07
4.21169e-06
-3.71259e-07
4.15655e-06
-3.08321e-07
4.11579e-06
-1.70367e-07
4.07678e-06
-4.18647e-09
4.0199e-06
1.56576e-07
2.62785e-06
2.84111e-07
2.80956e-08
8.47317e-08
0
8.3535e-09
0
4.12524e-09
2.9669e-10
2.74679e-09
4.8764e-11
6.13948e-10
9.68454e-12
7.66116e-11
1.65538e-12
2.44402e-11
1.82752e-12
4.82437e-12
8.46329e-13
2.87917e-12
0
1.60237e-12
0
9.00792e-13
0
4.04419e-13
0
1.67326e-13
0
6.51666e-14
9.71114e-17
2.42619e-14
1.95144e-15
9.66798e-15
2.57932e-15
5.02415e-15
2.27957e-15
3.1053e-15
1.82934e-15
2.07013e-15
1.41681e-15
1.49391e-15
1.0286e-15
1.11697e-15
4.87119e-16
3.68426e-20
1.27282e-19
4.68481e-19
1.55685e-18
3.48559e-18
1.15487e-17
1.60891e-17
5.4104e-17
6.52123e-17
2.08206e-16
4.70801e-16
1.2227e-15
6.62774e-15
3.29082e-15
4.06501e-13
1.92989e-13
1.4639e-11
2.42779e-12
1.08035e-10
1.44835e-10
1.71273e-10
2.81391e-10
5.3437e-10
8.78788e-10
2.24775e-09
1.21801e-10
4.68895e-08
8.08452e-10
1.74887e-06
7.65685e-08
4.8745e-06
2.60981e-07
4.85152e-06
4.33397e-07
4.72658e-06
2.82582e-07
4.64384e-06
8.25088e-08
4.57014e-06
-9.62957e-08
4.48924e-06
-1.90651e-07
4.39208e-06
-2.55067e-07
4.30139e-06
-2.80585e-07
4.23528e-06
-2.42242e-07
4.18866e-06
-1.24263e-07
4.13373e-06
4.15669e-08
3.20389e-06
1.81108e-07
3.1329e-07
7.44432e-08
2.31882e-09
0
0
1.25731e-09
2.0004e-10
2.53729e-09
0
7.92777e-10
4.11524e-12
7.37972e-10
0
2.08888e-10
3.69102e-12
4.37248e-11
1.1632e-12
6.48432e-12
1.8818e-13
2.77329e-12
1.17686e-13
8.55295e-13
4.9818e-14
3.003e-13
0
1.66788e-13
0
8.20103e-14
0
3.81571e-14
1.44973e-15
1.68117e-14
2.77365e-15
8.26669e-15
2.94012e-15
4.8118e-15
2.51742e-15
3.17316e-15
2.05645e-15
2.20449e-15
1.71567e-15
1.70556e-15
1.42021e-15
1.42528e-15
6.98173e-16
4.67051e-20
1.72607e-19
5.74238e-19
2.02869e-18
3.93691e-18
1.34896e-17
1.72244e-17
5.85001e-17
6.668e-17
2.14632e-16
5.04982e-16
1.11373e-15
7.05512e-15
2.76191e-15
3.7991e-13
2.09827e-13
6.53334e-12
3.19492e-12
5.61144e-11
4.70768e-11
1.14123e-10
1.68596e-10
4.53293e-10
1.02019e-09
4.3936e-10
1.32622e-10
2.04492e-09
6.92555e-11
8.66392e-08
6.10602e-10
1.73174e-06
4.13882e-08
4.74119e-06
1.57493e-07
4.87548e-06
3.39526e-07
4.79416e-06
1.66239e-07
4.70974e-06
-1.17348e-08
4.62471e-06
-1.05595e-07
4.52048e-06
-1.50973e-07
4.41854e-06
-1.78636e-07
4.3382e-06
-1.6208e-07
4.25026e-06
-4.00895e-08
3.10628e-06
8.82294e-08
3.857e-07
2.65491e-08
0
6.75505e-11
0
0
7.31874e-10
3.55009e-10
1.31005e-09
1.19641e-09
0
9.789e-10
0
4.67888e-10
2.68673e-12
2.7695e-10
6.89424e-13
7.43584e-11
0
1.13446e-11
2.92474e-13
6.09424e-12
5.18652e-14
1.17235e-12
0
4.62209e-13
9.94249e-16
2.02103e-13
7.70054e-16
8.11858e-14
2.4799e-15
3.53394e-14
3.17211e-15
1.57005e-14
3.42364e-15
7.89735e-15
3.15009e-15
4.66211e-15
2.70511e-15
3.15165e-15
2.35274e-15
2.32488e-15
2.14149e-15
1.97934e-15
1.98181e-15
1.81694e-15
9.61228e-16
7.54089e-20
2.99426e-19
8.14308e-19
3.02295e-18
4.80489e-18
1.69712e-17
1.95262e-17
6.72289e-17
7.40381e-17
2.46596e-16
5.36259e-16
1.08774e-15
1.12835e-14
2.57529e-15
2.59858e-13
2.33806e-13
2.99648e-12
1.48739e-12
3.7468e-11
2.11445e-11
1.83963e-10
1.33803e-09
4.47732e-10
9.13564e-10
6.61213e-11
8.83299e-11
1.32081e-10
4.61417e-11
9.91269e-10
7.57947e-13
4.53007e-08
0
9.47972e-07
2.37784e-09
3.50931e-06
1.29484e-08
4.55903e-06
1.01947e-07
4.66518e-06
3.8887e-08
4.58339e-06
-1.93318e-08
4.4152e-06
-3.51558e-08
4.09882e-06
-4.55443e-08
3.37322e-06
-3.11511e-08
1.70346e-06
1.64915e-08
1.67138e-07
0
1.62316e-10
0
3.18326e-11
0
4.44209e-10
5.18069e-11
1.00884e-09
3.72427e-11
1.65297e-09
0
3.58197e-10
5.88775e-10
0
8.3254e-10
0
3.46485e-10
3.96721e-12
6.451e-11
0
1.7919e-11
5.11113e-13
7.58326e-12
1.99775e-14
2.84845e-12
0
8.62864e-13
1.76655e-15
2.96174e-13
0
1.10094e-13
1.60462e-15
4.40312e-14
3.08312e-15
1.82062e-14
3.43928e-15
8.48052e-15
3.23364e-15
4.73879e-15
2.96282e-15
3.20927e-15
2.86034e-15
2.57186e-15
2.74497e-15
2.41219e-15
2.66977e-15
2.27445e-15
1.20584e-15
1.3851e-19
5.57158e-19
1.22551e-18
4.59955e-18
6.1142e-18
2.18112e-17
2.32323e-17
7.95762e-17
8.89957e-17
2.96421e-16
4.32713e-16
1.16546e-15
9.07678e-15
2.72043e-15
1.12493e-13
6.53555e-14
1.26941e-12
6.80362e-13
1.45086e-10
3.97099e-11
4.31226e-10
1.52744e-09
4.81551e-10
1.05648e-09
6.54306e-11
1.17032e-10
8.23303e-11
6.29182e-11
1.13158e-10
1.45565e-11
1.58631e-10
3.0725e-13
2.94148e-09
0
4.82445e-08
0
7.17794e-07
1.86718e-10
1.3253e-06
0
1.35793e-06
0
1.23701e-06
0
7.90971e-07
0
2.91219e-07
4.18217e-10
3.84061e-08
0
4.91965e-09
0
2.90883e-09
0
5.82823e-11
6.50168e-11
2.30116e-11
0
8.29036e-11
0
5.57007e-10
3.16278e-11
9.42307e-10
1.09083e-10
8.4865e-10
7.95677e-10
1.48817e-10
8.54514e-10
2.50448e-11
1.3363e-10
9.39481e-13
3.82812e-11
0
1.31731e-11
0
4.52938e-12
3.73331e-14
1.97895e-12
0
5.89552e-13
0
2.22387e-13
2.91889e-16
8.22313e-14
2.28164e-15
3.01894e-14
3.28263e-15
1.16698e-14
3.4635e-15
5.68156e-15
3.38121e-15
3.70338e-15
3.53858e-15
2.98572e-15
3.44882e-15
2.97449e-15
3.26514e-15
2.65602e-15
1.3634e-15
2.46714e-19
9.61504e-19
1.79888e-18
6.62702e-18
7.7693e-18
2.74582e-17
2.75145e-17
9.2016e-17
1.03743e-16
3.22378e-16
3.98635e-16
1.24044e-15
2.19391e-15
3.25733e-15
5.24279e-14
9.91246e-15
9.77767e-13
3.05955e-13
7.75767e-11
3.37395e-10
4.50709e-10
1.41602e-09
1.02602e-10
3.58934e-11
5.7563e-11
2.00795e-10
7.88084e-11
6.49594e-11
8.43107e-11
1.67436e-11
9.44571e-11
1.11764e-11
1.15401e-10
3.05198e-13
1.76715e-10
0
8.09479e-10
0
9.68846e-10
0
7.77494e-10
0
7.77845e-10
0
8.08045e-10
0
9.66394e-10
0
8.97786e-10
0
1.36028e-09
0
1.98447e-10
0
0
0
1.55096e-12
1.5759e-13
2.10135e-11
4.36162e-12
1.14944e-10
1.53101e-11
7.94475e-10
1.09346e-10
6.80478e-10
2.19699e-10
1.61644e-10
4.45726e-10
0
3.08764e-10
6.19596e-11
2.20526e-10
4.46119e-12
6.27969e-11
5.4551e-14
8.60195e-12
1.27026e-14
2.92919e-12
0
9.62393e-13
0
3.85975e-13
0
1.46669e-13
1.06051e-16
5.69152e-14
3.43799e-15
2.0731e-14
4.08592e-15
8.62674e-15
3.77121e-15
4.84937e-15
4.11249e-15
3.58088e-15
4.04839e-15
3.41654e-15
3.45735e-15
2.74807e-15
1.48869e-15
3.95901e-19
1.46478e-18
2.46902e-18
8.75181e-18
9.5428e-18
3.29138e-17
3.09603e-17
1.01294e-16
1.08413e-16
3.21428e-16
4.37722e-16
1.35079e-15
1.69732e-15
4.84712e-15
3.23952e-14
1.28964e-14
8.25274e-13
2.41361e-13
1.75213e-10
3.79971e-10
4.22163e-10
1.17336e-09
1.29499e-13
6.26648e-12
1.01042e-10
2.28683e-10
6.12557e-11
1.12403e-10
4.87854e-11
2.8132e-11
3.21518e-11
1.95214e-11
4.22581e-11
5.17006e-12
5.26912e-11
9.7296e-13
1.61748e-10
7.55552e-13
3.91801e-10
1.75213e-12
4.92923e-10
2.89745e-12
4.54353e-10
5.10449e-12
3.48693e-10
9.35453e-12
2.27324e-10
1.54612e-11
1.19665e-10
8.19491e-12
6.51363e-11
0
1.91732e-11
0
8.81907e-13
0
3.70091e-12
1.81697e-14
2.18968e-11
1.26149e-12
3.24748e-10
6.1133e-11
5.66919e-10
2.29891e-10
2.75029e-10
2.98055e-11
1.09589e-10
1.17973e-10
2.76433e-11
1.56723e-10
7.81828e-11
8.28566e-11
7.71363e-11
1.97402e-10
1.2154e-11
9.96372e-11
1.49174e-12
1.12871e-11
2.21008e-13
2.78115e-12
2.07961e-14
7.24007e-13
0
2.3839e-13
1.12998e-15
9.00921e-14
4.27772e-15
3.3131e-14
4.77986e-15
1.25458e-14
4.2773e-15
6.3115e-15
4.56152e-15
4.36197e-15
4.33738e-15
3.6117e-15
3.54811e-15
2.71045e-15
1.642e-15
5.61303e-19
1.94837e-18
3.09696e-18
1.03678e-17
1.1096e-17
3.66497e-17
3.35461e-17
1.07291e-16
1.12153e-16
3.17902e-16
5.69495e-16
1.50424e-15
3.30868e-15
9.57128e-15
5.90605e-14
1.90082e-14
2.16855e-12
2.99386e-13
2.05662e-10
2.22083e-10
2.43031e-10
9.14784e-11
6.37412e-11
9.38592e-11
1.83961e-10
2.50226e-10
7.98915e-11
1.57411e-10
8.48116e-11
9.30647e-11
1.21368e-10
6.93159e-11
3.19773e-11
8.35156e-12
2.90213e-12
1.98228e-13
4.72614e-12
0
9.35483e-12
0
1.53078e-11
0
2.20563e-11
0
2.45455e-11
0
2.51431e-11
0
2.1804e-11
0
9.62883e-12
0
2.43132e-12
0
9.21327e-14
0
8.57865e-13
3.02328e-14
8.45684e-12
2.16044e-13
3.42928e-10
4.76874e-11
4.82444e-10
1.35728e-10
2.055e-10
1.26483e-10
1.79902e-10
2.26667e-10
9.71808e-11
1.40853e-10
1.86072e-10
1.4842e-10
2.57618e-10
2.12843e-10
8.59895e-11
1.87456e-10
1.33711e-11
8.23399e-11
1.92142e-12
1.14209e-11
4.18238e-13
2.79176e-12
8.51794e-14
6.68125e-13
2.16662e-14
1.85347e-13
9.63561e-15
5.71191e-14
6.40227e-15
2.00729e-14
5.08752e-15
8.86276e-15
4.63809e-15
5.32157e-15
4.22363e-15
3.85433e-15
3.77456e-15
2.69402e-15
1.79183e-15
6.97225e-19
2.24701e-18
3.48958e-18
1.0931e-17
1.20213e-17
3.75855e-17
3.55534e-17
1.10241e-16
1.18446e-16
3.24987e-16
7.05699e-16
1.56767e-15
6.45037e-15
1.09744e-14
8.90614e-14
3.27552e-14
9.02861e-12
3.48103e-12
4.3751e-11
1.15357e-11
4.74591e-11
3.50267e-11
1.16485e-10
1.2521e-10
3.89367e-10
1.66099e-10
3.77386e-10
2.36772e-10
4.33652e-10
1.68303e-10
2.20384e-10
8.38088e-11
8.77649e-12
9.91579e-12
0
2.55897e-13
5.37438e-13
1.37602e-15
1.74043e-12
0
2.33221e-12
0
2.72666e-12
0
2.96217e-12
0
2.86183e-12
0
2.22175e-12
0
1.28806e-12
0
4.6366e-13
0
9.16637e-14
0
1.78307e-13
1.98242e-14
3.16463e-12
6.0948e-14
8.80439e-11
1.07201e-12
3.94926e-10
1.83511e-11
2.48696e-10
1.33628e-10
3.06233e-10
1.60379e-10
1.58102e-10
2.04578e-10
1.41898e-10
1.02772e-10
2.00918e-10
1.29591e-10
2.00069e-10
1.53105e-10
6.32161e-11
1.66878e-10
1.22965e-11
6.87094e-11
1.93053e-12
9.97305e-12
5.32533e-13
2.58018e-12
1.2584e-13
6.19789e-13
3.50963e-14
1.70866e-13
1.19759e-14
5.1762e-14
5.98675e-15
1.82567e-14
4.08668e-15
8.0191e-15
3.74622e-15
4.50176e-15
3.96848e-15
2.89157e-15
1.9929e-15
7.61542e-19
2.30159e-18
3.60241e-18
1.0864e-17
1.23326e-17
3.72581e-17
3.7142e-17
1.10647e-16
1.25299e-16
3.42436e-16
7.88176e-16
1.51627e-15
1.30496e-14
9.86767e-15
3.44888e-13
5.27636e-14
2.67354e-12
3.86558e-12
9.48487e-12
4.38363e-12
3.46804e-11
1.81964e-11
1.84333e-10
3.20444e-10
3.69268e-10
2.39605e-10
3.41663e-10
3.18692e-10
3.43834e-10
1.82077e-10
4.16784e-10
8.62957e-11
3.50136e-12
9.34655e-12
0
2.16448e-13
5.6426e-14
1.1909e-14
1.32805e-13
2.89471e-15
2.29279e-13
0
2.98201e-13
0
3.34794e-13
0
3.32248e-13
0
2.98034e-13
0
2.0139e-13
0
8.82002e-14
2.3734e-15
4.75418e-14
1.02322e-14
6.22404e-14
1.80016e-14
2.1989e-13
2.4797e-14
1.94923e-12
5.49637e-14
3.43752e-11
7.62754e-13
2.40395e-10
1.05046e-11
6.79402e-10
9.0438e-11
3.77938e-10
5.81197e-10
1.6477e-10
2.54877e-10
9.57383e-11
1.03699e-10
8.37341e-11
1.25662e-10
1.14829e-10
1.06898e-10
4.40084e-11
1.67339e-10
9.20955e-12
4.5377e-11
1.68773e-12
8.26285e-12
4.64758e-13
2.17459e-12
1.27264e-13
5.84893e-13
3.80923e-14
1.67259e-13
1.34636e-14
5.16225e-14
6.71015e-15
1.7691e-14
4.75108e-15
7.56404e-15
4.45866e-15
3.94348e-15
2.41591e-15
7.74028e-19
2.28069e-18
3.6181e-18
1.0605e-17
1.24052e-17
3.63134e-17
3.80367e-17
1.09682e-16
1.31062e-16
3.48407e-16
7.37299e-16
1.38502e-15
9.03245e-15
8.79394e-15
1.91423e-13
4.98179e-14
1.14712e-12
2.0475e-13
4.37074e-12
1.12146e-12
6.67476e-11
1.77507e-11
2.68519e-10
4.37538e-10
3.07058e-10
4.34394e-10
3.99847e-10
3.71919e-10
4.13597e-10
1.89463e-10
1.77211e-10
3.40183e-11
4.20147e-13
4.88887e-13
4.91561e-14
2.81426e-14
3.76522e-14
5.6189e-15
5.05905e-14
4.76541e-15
5.52814e-14
3.14584e-15
7.12799e-14
4.54005e-17
7.06211e-14
0
6.54719e-14
6.89295e-15
5.47205e-14
1.18504e-14
4.60646e-14
1.11346e-14
4.42903e-14
9.54931e-15
4.54142e-14
1.10224e-14
4.94792e-14
1.71571e-14
6.97532e-14
1.82805e-14
1.94469e-13
2.72314e-14
1.70464e-12
4.13321e-14
1.84182e-11
1.11835e-12
3.1064e-10
2.1071e-11
9.68424e-10
4.09114e-10
5.07904e-10
7.26955e-10
1.2797e-10
3.17266e-10
2.55572e-11
1.33195e-10
4.97914e-12
1.44889e-10
4.67351e-11
1.24967e-10
1.09492e-11
1.19447e-10
4.82223e-12
2.6089e-11
1.31967e-12
5.62011e-12
3.77135e-13
1.62688e-12
1.13645e-13
4.75977e-13
3.60836e-14
1.44833e-13
1.38131e-14
4.59779e-14
7.81196e-15
1.68668e-14
6.10405e-15
7.17784e-15
3.58114e-15
7.70037e-19
2.19583e-18
3.5454e-18
9.9988e-18
1.2215e-17
3.43813e-17
3.82217e-17
1.06833e-16
1.30395e-16
3.45589e-16
6.8625e-16
1.20598e-15
7.0199e-15
7.78726e-15
4.08229e-14
5.3789e-14
1.95236e-13
7.17962e-14
1.50855e-12
5.22898e-13
2.36731e-11
5.96331e-12
3.53886e-10
3.73626e-10
4.1776e-10
7.95054e-10
4.15117e-10
3.98474e-10
4.50321e-10
2.01114e-10
3.11248e-12
3.99852e-12
7.56673e-14
2.59766e-13
3.18866e-14
1.81168e-14
4.02076e-14
8.27362e-15
4.54278e-14
8.63481e-15
4.64292e-14
7.57344e-15
4.43507e-14
4.79729e-15
4.4496e-14
7.85535e-15
4.30306e-14
9.48647e-15
4.41042e-14
1.14948e-14
4.51826e-14
1.23921e-14
4.66602e-14
1.27402e-14
4.74831e-14
1.46649e-14
4.88154e-14
1.63864e-14
5.34443e-14
1.78089e-14
7.53269e-14
1.98951e-14
3.63182e-13
1.51526e-14
3.61076e-12
5.77494e-14
7.8954e-11
4.44349e-12
1.1374e-09
3.25257e-10
1.22617e-09
9.51899e-10
3.20244e-10
6.03456e-10
9.96012e-11
2.67945e-10
1.22888e-11
1.32874e-10
1.00461e-11
1.16823e-10
4.52053e-11
1.19487e-10
1.13152e-11
7.08051e-11
2.62872e-12
1.22367e-11
8.31802e-13
3.60533e-12
2.56415e-13
1.08185e-12
8.4589e-14
3.36873e-13
3.14723e-14
1.07544e-13
1.46815e-14
3.83546e-14
1.05644e-14
1.48265e-14
6.51655e-15
7.41882e-19
2.03803e-18
3.35122e-18
9.07745e-18
1.16497e-17
3.14327e-17
3.73003e-17
1.00038e-16
1.26445e-16
3.29417e-16
5.70282e-16
1.10908e-15
4.45375e-15
6.08183e-15
2.01273e-14
2.78836e-14
5.93515e-14
4.38044e-14
3.44773e-13
3.45256e-13
6.25123e-12
1.63218e-12
5.53407e-10
4.668e-10
4.57165e-10
4.23064e-10
4.81084e-10
4.15411e-10
4.32747e-10
1.99219e-10
1.27803e-12
4.55114e-12
6.60278e-14
1.44727e-13
3.45999e-14
1.80033e-14
3.70722e-14
9.73833e-15
4.04374e-14
9.8848e-15
3.90974e-14
8.89461e-15
4.27546e-14
7.22731e-15
4.33851e-14
8.40739e-15
4.41256e-14
9.46555e-15
4.49088e-14
1.04942e-14
4.63384e-14
1.16441e-14
4.90455e-14
1.28004e-14
4.92447e-14
1.41031e-14
5.03461e-14
1.5147e-14
5.42669e-14
1.66313e-14
6.2173e-14
1.84523e-14
1.71203e-13
2.20327e-14
1.74907e-12
4.30897e-14
2.52608e-11
7.16568e-13
1.30697e-09
1.43302e-10
1.70235e-09
6.08361e-10
1.47563e-09
9.10362e-10
2.90598e-10
8.19549e-10
8.88392e-11
2.41189e-10
3.88128e-12
1.1806e-10
2.45427e-11
1.02907e-10
1.56389e-11
7.93563e-11
4.6162e-12
2.45211e-11
1.2739e-12
6.26374e-12
4.41771e-13
2.00447e-12
1.51243e-13
6.40744e-13
5.9246e-14
2.07681e-13
2.64628e-14
7.47207e-14
2.01403e-14
2.89037e-14
1.26761e-14
6.92032e-19
1.84204e-18
3.0791e-18
8.08079e-18
1.07523e-17
2.79972e-17
3.48849e-17
8.98346e-17
1.18632e-16
3.00476e-16
4.57543e-16
1.03827e-15
2.24396e-15
3.97883e-15
7.18508e-15
8.74948e-15
2.48683e-14
2.50419e-14
3.42292e-13
1.64593e-13
2.26665e-11
1.87382e-11
4.62863e-10
4.7827e-10
3.16207e-10
2.17328e-10
4.48285e-10
3.63603e-10
8.39345e-11
3.84134e-11
2.57832e-13
9.32223e-13
6.84522e-14
6.29454e-14
3.82753e-14
3.13358e-14
3.66797e-14
1.81403e-14
4.23034e-14
1.34186e-14
3.87424e-14
9.80812e-15
4.38328e-14
1.58855e-14
4.44548e-14
9.74641e-15
4.49982e-14
8.66747e-15
4.6137e-14
9.62283e-15
4.76515e-14
1.11966e-14
5.00854e-14
1.42495e-14
5.14827e-14
1.65438e-14
5.27764e-14
1.58112e-14
5.60528e-14
1.53232e-14
6.12036e-14
1.68384e-14
1.04073e-13
2.0132e-14
5.2177e-13
2.87875e-14
8.23051e-12
2.74779e-13
6.93906e-10
3.46818e-11
1.51327e-09
3.997e-10
1.73625e-09
8.20716e-10
1.13089e-09
8.95198e-10
1.79189e-10
7.99356e-10
1.88557e-11
2.02435e-10
3.26004e-12
8.65511e-11
2.02846e-11
6.25571e-11
5.20921e-12
3.9666e-11
1.60074e-12
9.52654e-12
5.74795e-13
3.0335e-12
2.21479e-13
1.01656e-12
9.19949e-14
3.35601e-13
4.4444e-14
1.24037e-13
3.69087e-14
4.97306e-14
2.33535e-14
6.38629e-19
1.66985e-18
2.80167e-18
7.23097e-18
9.72962e-18
2.48182e-17
3.16292e-17
7.932e-17
1.07375e-16
2.66819e-16
3.57897e-16
8.81467e-16
1.00648e-15
2.1904e-15
3.03827e-15
3.11702e-15
4.08554e-14
1.41359e-14
4.11879e-12
1.31751e-12
1.62867e-10
4.63844e-10
3.08992e-10
1.81624e-10
2.93393e-10
3.02506e-10
2.20771e-10
4.77641e-10
2.3865e-12
3.45864e-11
1.93751e-13
1.01139e-12
2.13474e-13
1.67011e-13
6.27736e-14
1.80161e-13
5.08857e-14
3.10122e-14
4.61608e-14
1.42606e-14
5.20825e-14
1.47931e-14
4.65674e-14
4.41707e-14
4.5691e-14
1.70854e-14
4.61952e-14
1.00005e-14
4.73546e-14
8.60237e-15
4.9006e-14
1.12109e-14
5.11218e-14
1.77034e-14
5.27266e-14
1.66925e-14
5.45143e-14
1.41802e-14
5.65873e-14
1.4703e-14
5.93355e-14
1.53479e-14
6.60256e-14
1.71738e-14
1.785e-13
2.35004e-14
1.59921e-12
4.70123e-14
4.79702e-11
2.16018e-12
1.37065e-09
1.15267e-10
1.75921e-09
5.48416e-10
2.01406e-09
9.12134e-10
1.0537e-09
9.12886e-10
1.09039e-10
7.90412e-10
0
1.33709e-10
0
5.45125e-11
5.90101e-12
3.55445e-11
1.12343e-12
1.09405e-11
3.49917e-13
3.40772e-12
2.08927e-13
1.23408e-12
1.08584e-13
4.27792e-13
6.08596e-14
1.67256e-13
5.93787e-14
7.25919e-14
3.78379e-14
5.98626e-19
1.55579e-18
2.59006e-18
6.66933e-18
8.86309e-18
2.25588e-17
2.83419e-17
7.0476e-17
9.17569e-17
2.24572e-16
2.50727e-16
6.19849e-16
4.52544e-16
1.093e-15
1.77937e-15
1.95873e-15
4.8255e-14
1.21426e-14
2.74207e-11
1.18641e-11
2.64604e-10
8.49011e-10
2.41608e-10
4.17402e-10
2.39295e-10
4.26514e-10
2.19729e-10
4.90794e-10
1.3379e-11
1.02264e-10
0
2.20853e-12
1.21529e-12
1.18155e-12
3.98151e-12
1.74149e-12
1.6407e-13
1.39897e-12
1.21412e-13
4.5046e-14
1.78091e-13
1.73455e-14
8.52423e-11
1.49292e-11
2.84058e-10
4.0872e-11
2.45176e-10
4.3436e-11
3.0399e-11
2.60882e-11
3.97389e-12
2.12935e-11
4.40572e-13
3.56413e-12
8.44706e-14
3.78697e-13
6.10741e-14
3.95204e-14
5.87245e-14
1.71614e-14
6.1641e-14
1.54699e-14
6.50359e-14
1.58382e-14
7.64859e-14
1.80419e-14
2.86767e-13
2.26187e-14
4.47394e-12
1.45543e-13
1.62462e-10
1.0308e-11
1.66748e-09
1.62874e-10
2.00751e-09
8.46957e-10
2.14187e-09
9.89706e-10
8.86201e-10
9.70083e-10
6.5534e-11
4.97355e-10
0
7.97249e-11
0
2.89466e-11
5.77424e-13
1.07704e-11
1.19012e-13
3.49563e-12
1.1987e-13
1.28866e-12
9.79058e-14
4.55271e-13
6.5223e-14
1.88163e-13
7.64766e-14
9.03144e-14
5.15722e-14
5.78642e-19
1.49832e-18
2.47814e-18
6.37412e-18
8.30502e-18
2.13031e-17
2.51192e-17
6.32383e-17
6.95126e-17
1.69808e-16
1.49008e-16
3.47771e-16
2.79693e-16
6.37148e-16
3.45787e-15
1.78909e-15
1.1537e-13
3.96658e-14
2.819e-11
6.52901e-11
3.16871e-10
5.4284e-10
3.63827e-10
4.2627e-10
4.52976e-10
1.00978e-09
3.82201e-10
4.85589e-10
4.6838e-11
8.92311e-11
0
3.332e-12
3.98528e-12
3.57362e-12
5.94892e-12
1.77839e-12
3.45452e-12
1.40556e-12
2.27825e-12
1.16877e-13
9.67363e-11
5.01582e-12
3.04921e-10
5.11054e-11
3.15463e-10
3.36705e-11
3.26011e-10
3.26006e-11
3.14844e-10
3.4341e-11
1.82616e-10
3.49933e-11
1.20106e-11
1.39462e-11
8.17545e-13
1.11336e-11
1.4565e-13
6.82474e-13
7.68088e-14
8.6271e-14
6.59933e-14
2.76074e-14
6.71466e-14
1.76081e-14
7.10597e-14
1.65189e-14
1.34495e-13
2.3032e-14
8.66986e-13
4.03332e-14
1.84158e-11
1.02555e-12
1.55948e-09
1.18414e-10
1.97375e-09
7.96087e-10
2.11016e-09
9.53228e-10
2.00975e-09
1.06543e-09
4.21431e-10
9.19258e-10
3.8018e-11
2.48179e-10
5.46228e-12
4.92955e-11
1.50708e-12
1.37447e-11
3.12299e-13
4.31362e-12
1.4504e-13
1.41418e-12
9.0478e-14
4.79792e-13
5.72669e-14
1.97678e-13
6.98875e-14
9.53545e-14
5.22238e-14
5.74491e-19
1.47279e-18
2.43563e-18
6.20556e-18
8.01132e-18
2.06153e-17
2.20641e-17
5.80806e-17
4.77534e-17
1.3185e-16
8.13233e-17
2.29187e-16
5.16502e-16
4.66834e-16
2.00922e-14
6.37073e-15
1.34387e-11
2.24417e-12
2.05884e-10
4.52476e-10
3.51041e-10
3.16183e-10
3.43052e-10
3.50907e-10
4.74082e-10
9.21917e-10
4.49028e-10
4.91512e-10
5.7996e-11
5.51665e-11
0
3.53535e-12
2.45185e-12
1.04187e-12
3.94905e-12
1.02696e-12
3.18637e-12
1.21303e-12
9.64039e-12
6.16892e-13
2.72286e-10
3.07942e-11
3.08568e-10
2.4545e-11
3.21203e-10
2.10081e-11
3.31255e-10
2.09355e-11
3.43627e-10
2.23781e-11
3.5264e-10
2.31553e-11
3.34535e-10
2.63999e-11
5.70751e-11
2.0016e-11
9.45322e-13
1.08035e-11
1.9016e-13
7.81172e-13
1.03503e-13
1.26061e-13
8.68665e-14
3.47044e-14
8.87304e-14
2.00723e-14
1.55612e-13
2.90515e-14
6.88268e-13
4.51688e-14
8.51223e-12
4.52063e-13
1.90117e-09
2.11031e-10
2.13948e-09
7.69709e-10
2.16628e-09
9.35296e-10
2.12314e-09
1.07693e-09
1.76363e-09
1.16702e-09
1.27632e-10
7.92768e-10
1.79862e-11
8.83603e-11
3.82667e-12
2.32195e-11
8.5024e-13
6.28211e-12
2.25917e-13
1.80162e-12
8.71723e-14
5.4862e-13
5.10773e-14
1.99827e-13
5.83175e-14
8.64836e-14
3.98116e-14
5.77007e-19
1.4553e-18
2.41662e-18
6.07326e-18
7.86265e-18
2.0117e-17
2.07632e-17
5.62691e-17
4.18127e-17
1.27115e-16
6.88907e-17
2.23059e-16
1.28825e-15
4.48774e-16
3.49285e-14
9.00881e-15
3.17974e-11
1.19298e-11
1.46266e-10
2.78954e-10
1.8761e-10
6.33213e-11
3.52405e-10
1.77967e-10
4.49446e-10
8.45839e-10
4.68425e-10
5.17708e-10
4.76065e-12
1.13228e-11
5.09804e-13
2.10921e-12
2.75046e-12
1.23347e-12
6.01338e-12
7.07916e-13
6.58267e-12
1.44377e-12
1.43919e-10
2.72393e-11
2.90349e-10
2.94374e-11
3.0342e-10
1.4553e-11
2.93265e-10
6.11111e-12
2.87531e-10
2.00089e-12
3.48897e-10
4.40111e-12
3.6085e-10
8.23898e-12
3.76232e-10
1.1028e-11
3.79425e-10
1.51724e-11
5.40933e-11
1.34302e-11
1.02114e-12
6.02707e-12
1.31806e-13
5.08279e-13
6.76152e-14
1.1655e-13
9.60788e-14
4.10821e-14
2.06879e-13
4.44772e-14
1.07743e-12
6.867e-14
5.20065e-11
2.83545e-12
2.19959e-09
5.84206e-10
2.12652e-09
8.00865e-10
2.18124e-09
9.30636e-10
2.17408e-09
1.10226e-09
2.06947e-09
1.21496e-09
2.56164e-10
7.60024e-10
1.58312e-11
1.05396e-10
3.38321e-12
2.56777e-11
7.20681e-13
6.70077e-12
1.71076e-13
1.84737e-12
3.91281e-14
5.45229e-13
2.13348e-14
1.795e-13
3.2952e-14
6.00278e-14
2.16424e-14
5.79509e-19
1.43713e-18
2.40668e-18
5.95746e-18
7.81805e-18
1.97926e-17
2.08229e-17
5.57868e-17
4.41965e-17
1.32349e-16
9.52886e-17
2.68877e-16
2.17778e-15
5.95136e-16
5.67879e-13
7.61615e-14
1.08842e-11
1.52251e-11
2.87735e-11
1.05836e-11
3.95368e-11
4.50726e-11
1.84857e-10
1.49463e-10
4.14524e-10
8.11352e-10
6.74685e-11
5.80524e-11
1.31605e-12
4.62883e-12
3.26583e-12
2.4238e-12
4.54233e-12
2.07142e-12
6.1686e-12
1.61419e-12
9.59343e-11
1.84642e-11
2.63036e-10
7.79093e-11
2.60628e-10
1.94305e-11
2.79833e-10
5.16931e-12
1.75477e-11
-5.03598e-13
1.06271e-11
-1.16845e-13
1.32535e-10
-8.23829e-14
3.65143e-10
-2.45625e-12
3.77816e-10
-5.49026e-12
3.95579e-10
-1.89179e-12
4.07715e-10
4.14377e-12
1.24968e-11
1.29748e-11
6.44375e-13
1.29904e-12
1.11958e-13
3.3742e-13
1.2141e-13
1.17764e-13
4.51538e-13
9.66321e-14
3.12703e-12
1.71074e-13
4.58632e-10
3.11975e-11
2.3515e-09
7.40804e-10
2.26717e-09
6.17685e-10
2.11253e-09
9.64827e-10
2.05828e-09
1.15744e-09
1.55583e-09
1.0912e-09
2.83031e-11
2.81607e-10
0
5.3217e-11
0
1.6017e-11
0
4.27257e-12
0
1.22224e-12
0
3.5956e-13
5.06324e-15
1.1395e-13
1.75764e-14
3.2165e-14
1.07754e-14
5.80749e-19
1.41405e-18
2.40663e-18
5.86795e-18
7.85404e-18
1.96162e-17
2.13752e-17
5.58705e-17
5.11782e-17
1.46048e-16
1.81193e-16
3.75285e-16
4.57993e-15
1.63118e-15
8.83845e-13
1.21326e-13
4.0814e-12
2.83443e-12
8.58754e-12
5.01846e-12
1.93622e-11
2.51706e-11
8.96281e-11
5.49763e-10
4.47293e-10
7.95217e-10
4.131e-12
2.51082e-11
1.53457e-12
7.14289e-12
2.33784e-12
4.6303e-12
5.97643e-12
2.07641e-12
1.9609e-11
3.174e-12
2.5864e-10
1.01385e-10
2.69013e-10
5.54081e-11
2.70126e-10
1.64581e-11
3.53812e-11
-8.4997e-13
3.42446e-12
-2.99841e-13
3.14013e-12
-2.00318e-13
3.63407e-12
-1.83685e-13
1.51853e-10
-1.87214e-13
3.57757e-10
-1.22599e-11
3.76564e-10
-1.77796e-11
3.9516e-10
-1.3663e-11
1.17569e-10
-2.89021e-12
1.95038e-12
1.09266e-12
4.99794e-13
3.89397e-13
5.07688e-14
2.31738e-13
1.20457e-12
1.86056e-13
1.70808e-12
1.56717e-13
1.96474e-09
3.69398e-10
2.13974e-09
6.35435e-10
1.93753e-09
8.79295e-10
5.66344e-10
3.64379e-10
2.92247e-10
1.22357e-10
1.42517e-10
1.3514e-11
0
3.23706e-11
0
1.61437e-11
0
6.16388e-12
0
1.87688e-12
0
5.68957e-13
0
1.70658e-13
0
5.08903e-14
7.37981e-15
1.3786e-14
4.55506e-15
5.80761e-19
1.38413e-18
2.42068e-18
5.80412e-18
7.94109e-18
1.95508e-17
2.19197e-17
5.5813e-17
5.69963e-17
1.50395e-16
2.42746e-16
4.39872e-16
1.15794e-14
2.20296e-15
1.41086e-13
1.00097e-13
1.03085e-12
3.59342e-13
5.01771e-12
2.50494e-12
1.01848e-10
2.64348e-11
4.4502e-10
1.23716e-09
4.07481e-10
7.49151e-10