/*--------------------------------*- C++ -*----------------------------------*\
  =========                 |
  \\      /  F ield         | OpenFOAM: The Open Source CFD Toolbox
   \\    /   O peration     | Website:  https://openfoam.org
    \\  /    A nd           | Version:  9
     \\/     M anipulation  |
\*---------------------------------------------------------------------------*/
FoamFile
{
    format      ascii;
    class       volScalarField;
    location    "0.18";
    object      p;
}
// * * * * * * * * * * * * * * * * * * * * * * * * * * * * * * * * * * * * * //

dimensions      [1 -1 -2 0 0 0 0];

internalField   nonuniform List<scalar> 
5000
(
3.1137
3.05161
2.97441
2.88155
2.76387
2.60489
2.38205
2.065
1.6196
1.01608
0.283558
-0.620561
-1.24066
7.85368
1.03096
11.1031
14.6883
15.2575
16.5234
18.6462
20.7845
22.0474
22.4129
22.0808
21.5964
21.464
21.7457
21.9267
21.4569
17.5388
-0.128903
-0.570718
-0.0681172
0.28179
0.58793
0.907989
1.22655
1.5177
1.777
2.00818
2.21559
2.40309
2.57371
2.7297
2.87281
3.0045
3.12611
3.23854
3.34323
3.43866
3.11847
3.06195
2.99267
2.91054
2.80872
2.67334
2.48716
2.23285
1.89087
1.4469
0.963047
0.031388
-5.7106
7.61491
-3.36485
8.95055
13.8591
14.254
15.2854
17.2005
19.5572
21.3825
22.2818
22.2308
21.7033
21.3075
21.3685
21.703
21.8249
17.733
2.89166
0.448415
0.539935
0.722557
0.945575
1.20389
1.46673
1.713
1.93725
2.14021
2.32416
2.49168
2.64512
2.78633
2.91682
3.03786
3.15054
3.25536
3.35322
3.44369
3.13006
3.07936
3.01845
2.94769
2.86206
2.75217
2.60757
2.42016
2.18862
1.92384
1.73043
1.46619
-0.550432
7.82216
2.88449
9.30203
13.6156
13.9048
14.7651
16.4944
19.0342
21.3963
22.8875
23.2602
22.8312
22.2499
22.0488
22.0355
21.8209
8.8959
0.0682832
0.340422
0.782813
1.01275
1.23708
1.47457
1.70265
1.91406
2.1074
2.28341
2.44377
2.59056
2.72575
2.85094
2.96739
3.07613
3.17801
3.27339
3.3634
3.45001
3.14715
3.10238
3.04974
2.99024
2.921
2.8369
2.73364
2.61054
2.48241
2.39761
2.44817
2.93558
4.00036
4.42248
17.7724
10.2105
12.8415
13.9931
14.9175
16.5255
19.265
22.1466
24.313
25.3536
25.3631
24.8631
24.4444
24.1845
23.9337
3.08596
-1.2015
0.298864
0.944194
1.26566
1.51988
1.74479
1.94483
2.12469
2.28798
2.43674
2.57283
2.69809
2.81413
2.92221
3.02329
3.11811
3.2073
3.29124
3.3708
3.44654
3.16768
3.12897
3.08456
3.03629
2.98326
2.92315
2.85615
2.78788
2.74057
2.79801
3.08366
3.8914
5.19486
2.53476
17.8174
9.80226
11.0239
14.3826
15.7963
17.2536
20.1438
23.4878
26.3671
28.2898
29.0993
28.8758
28.1091
27.3579
16.9377
2.27949
-0.135488
0.866439
1.34072
1.63122
1.85815
2.04697
2.20752
2.35024
2.48019
2.59968
2.71019
2.81305
2.90934
2.99986
3.08524
3.16594
3.24237
3.31473
3.38315
3.447
3.19035
3.15753
3.1211
3.0835
3.0452
3.0057
2.9681
2.94223
2.94917
3.08634
3.47148
4.18771
5.02333
4.44269
9.0638
17.0174
12.1451
15.248
17.2853
18.6299
21.4538
25.113
28.6632
31.5418
33.2162
32.9648
31.3402
27.6036
11.6771
1.57736
1.10012
1.62155
1.84391
2.04697
2.21675
2.35616
2.4742
2.57907
2.6758
2.76616
2.85114
2.93154
3.00789
3.08053
3.14968
3.21553
3.27827
3.33802
3.3949
3.44836
3.21393
3.18669
3.15771
3.1297
3.10396
3.08106
3.06512
3.06733
3.10282
3.25867
3.63546
4.21425
4.75495
4.97165
4.47024
14.4415
14.6752
16.4167
18.7188
20.1913
22.7997
26.6023
30.8236
34.8544
37.4225
36.116
31.1924
13.8692
2.29234
1.68865
1.93268
2.17253
2.27907
2.40371
2.52356
2.62606
2.71321
2.79024
2.86062
2.92624
2.98845
3.04807
3.10547
3.16077
3.21398
3.26512
3.31423
3.36141
3.40667
3.44963
3.23734
3.21527
3.19295
3.17315
3.15756
3.14714
3.14534
3.16214
3.20593
3.33414
3.6621
4.10162
4.50132
4.74352
4.14222
5.88294
13.8021
19.8055
21.8333
22.0916
23.7831
27.392
32.5105
38.4476
43.8227
38.0806
16.1677
2.5384
1.86917
2.19893
2.5391
2.47228
2.56052
2.65739
2.75625
2.84149
2.91371
2.97483
3.02729
3.07397
3.11725
3.15861
3.19873
3.23785
3.27602
3.31322
3.34943
3.38469
3.41881
3.45142
3.2598
3.24243
3.22589
3.21277
3.20484
3.20311
3.20941
3.23105
3.27106
3.35972
3.61747
3.96645
4.26168
4.4689
4.3726
4.14895
4.26703
8.85184
20.1975
24.8897
24.9298
26.4127
31.1252
36.8068
26.5383
9.37483
2.83298
2.36317
2.41298
2.53778
2.66889
2.77377
2.76852
2.86256
2.94788
3.0241
3.08802
3.1386
3.17793
3.20952
3.23676
3.26193
3.28627
3.31028
3.33409
3.35768
3.38097
3.40422
3.42737
3.44974
3.28073
3.26761
3.25593
3.248
3.24544
3.24918
3.25956
3.28059
3.31185
3.36726
3.55928
3.81042
4.05051
4.19587
4.14371
4.01822
3.84857
3.64064
4.07026
5.35545
7.52168
7.97698
6.55378
4.21986
3.21063
2.614
2.71598
2.60015
2.65366
2.72465
2.80244
2.88761
2.99936
3.05258
3.11814
3.1872
3.24446
3.2862
3.31453
3.33339
3.3468
3.3578
3.36821
3.3789
3.39016
3.40195
3.4141
3.42679
3.43926
3.44756
3.29975
3.29037
3.28268
3.27859
3.27946
3.28617
3.29789
3.31595
3.33796
3.36983
3.50023
3.6705
3.86817
3.97322
3.96311
3.88558
3.76544
3.62459
3.50332
3.39714
3.3261
3.26155
3.1848
3.09017
2.96442
2.83228
2.80063
2.77463
2.81951
2.88844
2.96581
3.04647
3.17622
3.24315
3.27167
3.33328
3.3828
3.41589
3.43451
3.44267
3.44453
3.4436
3.44219
3.44151
3.44202
3.44371
3.44633
3.44984
3.45357
3.45485
3.31667
3.31041
3.30587
3.30444
3.30718
3.31495
3.3263
3.341
3.35651
3.37651
3.45513
3.58384
3.72238
3.81691
3.82867
3.77917
3.69164
3.58632
3.48476
3.39309
3.31952
3.25428
3.18458
3.10602
3.03385
2.98523
2.95546
2.95457
2.99267
3.05039
3.11535
3.1884
3.27139
3.33782
3.40483
3.45942
3.49788
3.52258
3.53244
3.53184
3.52472
3.51441
3.50339
3.49311
3.48419
3.47671
3.47047
3.46555
3.46207
3.45748
3.33145
3.32757
3.32536
3.32557
3.32896
3.33642
3.34643
3.35848
3.37156
3.38864
3.43463
3.53756
3.62642
3.70081
3.72075
3.68856
3.62071
3.54168
3.45781
3.37969
3.31458
3.25976
3.20634
3.15582
3.11666
3.08952
3.07939
3.09246
3.12897
3.17952
3.23795
3.31114
3.38316
3.43742
3.50444
3.54791
3.58387
3.59799
3.60061
3.59479
3.58239
3.56633
3.54911
3.53235
3.51691
3.50305
3.49063
3.47969
3.47036
3.45895
3.34417
3.34191
3.34117
3.34214
3.34524
3.35139
3.35956
3.36963
3.3832
3.40109
3.44268
3.51243
3.56003
3.6175
3.64427
3.62458
3.55735
3.49593
3.42903
3.3654
3.31225
3.26908
3.23068
3.19859
3.17647
3.16593
3.16975
3.19058
3.22729
3.27442
3.32702
3.38665
3.46141
3.5157
3.55396
3.5921
3.61512
3.63823
3.63523
3.62849
3.61467
3.59656
3.57654
3.55638
3.53714
3.51926
3.50272
3.48757
3.47412
3.45875
3.35503
3.35362
3.35351
3.35442
3.3565
3.36065
3.3666
3.37499
3.38971
3.41083
3.44869
3.49311
3.52447
3.56123
3.57764
3.55357
3.50063
3.45267
3.39966
3.34856
3.30634
3.27349
3.24692
3.22798
3.21854
3.21962
3.23244
3.25792
3.29479
3.33967
3.38929
3.44169
3.49413
3.53817
3.59968
3.6045
3.63027
3.64209
3.64697
3.63717
3.62344
3.60522
3.58472
3.56369
3.54327
3.52403
3.50608
3.48948
3.47458
3.45798
3.36424
3.36302
3.36271
3.36275
3.3632
3.36481
3.36814
3.37469
3.38968
3.41374
3.44872
3.47846
3.49919
3.515
3.51323
3.4861
3.44952
3.41138
3.36941
3.32881
3.29615
3.27224
3.25525
3.24616
3.2459
3.2548
3.27315
3.301
3.33722
3.3795
3.42524
3.47195
3.51626
3.55237
3.61239
3.65953
3.63559
3.64396
3.64084
3.63086
3.61473
3.59583
3.57533
3.55493
3.53554
3.51754
3.50093
3.48562
3.47194
3.45659
3.37207
3.37045
3.36917
3.36761
3.36582
3.36436
3.36462
3.36887
3.38313
3.40878
3.44126
3.45713
3.46763
3.47264
3.45605
3.42899
3.40319
3.37113
3.33794
3.3063
3.28199
3.26568
3.25634
3.25458
3.26072
3.27465
3.29608
3.3246
3.35926
3.39837
3.43987
3.48164
3.52132
3.55607
3.59457
3.71502
3.64123
3.63774
3.62876
3.61237
3.59135
3.56955
3.54878
3.52982
3.51308
3.49853
3.48587
3.47464
3.46506
3.45412
3.37874
3.37623
3.37335
3.36959
3.36492
3.35992
3.35655
3.35778
3.36978
3.39439
3.42288
3.43207
3.44162
3.42705
3.40424
3.38104
3.35784
3.33107
3.30493
3.28107
3.26402
3.25407
3.25071
3.25426
3.26474
3.2817
3.3044
3.3322
3.36435
3.39954
3.43629
3.47289
3.50766
3.53867
3.5675
3.64343
3.66068
3.59752
3.5846
3.56684
3.54576
3.52245
3.50251
3.48643
3.47433
3.46579
3.46003
3.45607
3.45373
3.45076
3.38448
3.38063
3.37572
3.36928
3.36121
3.35224
3.34465
3.34183
3.34962
3.36997
3.39266
3.39659
3.3872
3.38061
3.34984
3.33226
3.31179
3.29021
3.27013
3.2531
3.24233
3.23762
3.23884
3.24611
3.25936
3.27783
3.30033
3.32612
3.35483
3.3851
3.41598
3.44601
3.47362
3.4969
3.51211
3.53126
3.56846
3.55592
3.52839
3.50506
3.48063
3.45758
3.43789
3.42549
3.41952
3.41908
3.42284
3.42916
3.4373
3.44597
3.38952
3.3839
3.37665
3.36721
3.35539
3.34208
3.3297
3.32168
3.32317
3.3364
3.3509
3.3485
3.34863
3.32369
3.30124
3.28264
3.265
3.24808
3.23336
3.2224
3.21708
3.21665
3.22127
3.23113
3.24623
3.26471
3.28542
3.30815
3.3322
3.35674
3.38086
3.40342
3.42312
3.43886
3.44963
3.45662
3.46032
3.46038
3.4452
3.4175
3.39474
3.37258
3.3566
3.34912
3.35107
3.36093
3.37685
3.39638
3.41804
3.44068
3.39406
3.3863
3.37648
3.36379
3.34798
3.33008
3.31242
3.29811
3.29142
3.29533
3.29879
3.29353
3.29621
3.26925
3.24274
3.22994
3.21613
3.20397
3.19442
3.1891
3.18864
3.19169
3.20232
3.21874
3.22731
3.2442
3.26188
3.27997
3.29824
3.31617
3.33291
3.3476
3.35937
3.36754
3.37167
3.37106
3.36368
3.35251
3.33819
3.31196
3.28471
3.26784
3.25779
3.25868
3.27086
3.29311
3.3231
3.35759
3.39428
3.43396
3.39834
3.38813
3.3755
3.35936
3.33941
3.31671
3.29335
3.2718
3.25533
3.2478
3.23878
3.23168
3.23585
3.20886
3.18334
3.17417
3.16491
3.15791
3.15347
3.15335
3.15747
3.16485
3.17598
3.18862
3.2013
3.21563
3.22935
3.2431
3.25461
3.26481
3.27331
3.27944
3.28263
3.28253
3.27928
3.27364
3.26498
3.23413
3.21869
3.19357
3.16535
3.15056
3.14774
3.15789
3.18265
3.22001
3.267
3.31946
3.37424
3.43326
3.40256
3.38967
3.374
3.35425
3.33008
3.30243
3.27293
3.24329
3.21582
3.1962
3.17717
3.16886
3.17183
3.14477
3.12179
3.11679
3.11191
3.10925
3.10977
3.11484
3.12285
3.13238
3.14346
3.15543
3.16738
3.17949
3.1903
3.19838
3.20241
3.20396
3.20277
3.19914
3.19247
3.18265
3.17013
3.15608
3.13966
3.10782
3.08296
3.05909
3.03856
3.02072
3.02468
3.04755
3.08774
3.14224
3.20759
3.27912
3.35433
3.4351
3.40694
3.39119
3.37231
3.34882
3.32037
3.28764
3.25164
3.21324
3.17409
3.14376
3.11414
3.1026
3.09682
3.0733
3.05858
3.05739
3.05651
3.05833
3.06331
3.07302
3.08445
3.09622
3.10756
3.11988
3.12927
3.13869
3.14471
3.14697
3.14416
3.13523
3.12285
3.10761
3.08934
3.06812
3.04494
3.02131
2.99244
2.96165
2.92597
2.90117
2.88902
2.881
2.89257
2.93399
2.99243
3.06567
3.14972
3.23971
3.33303
3.42346
3.41168
3.39296
3.37071
3.34344
3.3107
3.27277
3.22998
3.18238
3.1315
3.08279
3.04867
3.0319
3.01394
2.98724
2.99282
2.99514
2.9988
3.00476
3.01431
3.02763
3.04568
3.05859
3.07439
3.09182
3.09858
3.09654
3.09645
3.09141
3.08027
3.0599
3.03425
3.00616
2.97492
2.94136
2.90802
2.87713
2.83624
2.8061
2.7623
2.73597
2.73496
2.73142
2.76975
2.83281
2.91175
3.00502
3.10796
3.21534
3.32291
3.41769
3.41696
3.39518
3.36952
3.33848
3.30146
3.25823
3.20837
3.15116
3.08773
3.02373
2.97439
2.95011
2.92558
2.91026
2.92514
2.93081
2.9386
2.94841
2.96261
2.98444
3.00221
3.01828
3.03714
3.05218
3.05905
3.05681
3.04704
3.03498
3.01341
2.98248
2.9411
2.89855
2.85255
2.8051
2.76148
2.71924
2.69106
2.64537
2.59167
2.58465
2.59689
2.62203
2.68305
2.76319
2.85941
2.96838
3.08521
3.20375
3.31817
3.41357
3.42299
3.3981
3.36904
3.33432
3.29303
3.24441
3.18728
3.12017
3.04359
2.96417
2.90083
2.86556
2.83626
2.84835
2.85795
2.86455
2.87557
2.88955
2.91194
2.93576
2.95443
2.97752
2.99844
3.01417
3.02093
3.01702
3.00281
2.97871
2.94902
2.90598
2.84884
2.79159
2.73063
2.66929
2.61245
2.55558
2.5583
2.44886
2.47282
2.49639
2.52341
2.57271
2.64071
2.73258
2.84038
2.95937
3.08388
3.20644
3.31919
3.40982
3.42994
3.40197
3.3696
3.33129
3.28578
3.23171
3.16722
3.09019
3.00072
2.90603
2.8305
2.77658
2.74905
2.7842
2.78478
2.79444
2.80895
2.82536
2.85553
2.881
2.90994
2.93737
2.9612
2.9786
2.9858
2.97975
2.96114
2.92843
2.89586
2.83497
2.76658
2.69622
2.62286
2.55307
2.48653
2.46428
2.39498
2.37042
2.38505
2.41673
2.46551
2.53429
2.62255
2.72755
2.84554
2.971
3.09763
3.2177
3.32359
3.40707
3.43801
3.40702
3.37149
3.32973
3.28004
3.22054
3.14873
3.06192
2.9598
2.84988
2.76083
2.69127
2.67958
2.70052
2.71288
2.71998
2.73929
2.76533
2.79442
2.82971
2.86625
2.89836
2.92689
2.94749
2.95643
2.9499
2.92808
2.88997
2.85851
2.77965
2.70208
2.62001
2.53704
2.46508
2.43963
2.39339
2.30595
2.31125
2.33879
2.38528
2.45127
2.53611
2.63776
2.75234
2.87556
3.00144
3.12323
3.23388
3.32841
3.40408
3.44736
3.41351
3.37499
3.3299
3.27613
3.21128
3.13232
3.03603
2.92178
2.79769
2.70405
2.61685
2.60754
2.61688
2.61914
2.64423
2.66516
2.70125
2.73494
2.78273
2.82413
2.86215
2.89714
2.92308
2.9358
2.93159
2.9097
2.86987
2.83802
2.74753
2.6629
2.57097
2.47858
2.39518
2.42704
2.31785
2.28361
2.30421
2.34557
2.40684
2.48672
2.58261
2.69128
2.80859
2.92932
3.04759
3.15726
3.2535
3.33483
3.40212
3.45814
3.42164
3.38032
3.33204
3.27434
3.20433
3.11852
3.01325
2.88782
2.75192
2.63035
2.54906
2.53261
2.52984
2.53529
2.56758
2.59283
2.6339
2.67718
2.73147
2.78472
2.82978
2.87615
2.90826
2.92721
2.92862
2.91072
2.87307
2.82987
2.744
2.66037
2.56032
2.46952
2.39693
2.35061
2.32344
2.3271
2.35854
2.41116
2.48252
2.56971
2.66911
2.77681
2.88816
2.99803
3.10135
3.19396
3.27395
3.34238
3.40129
3.47052
3.43156
3.38763
3.33636
3.27495
3.20008
3.10781
2.99412
2.85832
2.71196
2.57695
2.49794
2.45983
2.44595
2.45812
2.48962
2.51914
2.56607
2.62058
2.68124
2.74887
2.80348
2.85958
2.90454
2.93385
2.94438
2.93511
2.90533
2.85697
2.78301
2.69698
2.61142
2.52761
2.46749
2.43235
2.42179
2.43792
2.47652
2.53411
2.60724
2.6924
2.7857
2.8829
2.97959
3.07157
3.1555
3.22953
3.29394
3.35065
3.40137
3.48461
3.44343
3.39709
3.34305
3.27824
3.19892
3.10063
2.97885
2.83259
2.67269
2.52383
2.42466
2.37317
2.36306
2.37112
2.40379
2.44434
2.49925
2.56426
2.6359
2.7133
2.7848
2.85431
2.91329
2.95704
2.98085
2.98445
2.96627
2.92789
2.87014
2.80011
2.71677
2.65122
2.60487
2.58222
2.58276
2.60471
2.64482
2.69957
2.76562
2.83945
2.91754
2.99626
3.0723
3.143
3.20678
3.26343
3.31393
3.35986
3.40219
3.5005
3.45735
3.40883
3.35232
3.28452
3.20126
3.09745
2.9679
2.81095
2.63683
2.47102
2.35259
2.28843
2.27639
2.2822
2.31295
2.36889
2.43368
2.50714
2.59705
2.68898
2.77567
2.86073
2.93667
2.99799
3.0389
3.06008
3.05689
3.03116
2.99796
2.94191
2.88072
2.83073
2.79788
2.78506
2.79027
2.81104
2.84461
2.88803
2.93843
2.99325
3.04991
3.10608
3.15976
3.20965
3.25523
3.29674
3.33486
3.37032
3.40366
3.51825
3.47344
3.42306
3.36445
3.29417
3.20758
3.09888
2.96212
2.7948
2.60664
2.42471
2.28587
2.20391
2.18529
2.18728
2.22782
2.28674
2.36549
2.45851
2.56357
2.67316
2.77688
2.88208
2.97514
3.0573
3.11852
3.15719
3.17458
3.17289
3.15591
3.12064
3.08193
3.04867
3.02754
3.0198
3.02328
3.03568
3.05506
3.07979
3.10847
3.13995
3.17308
3.20671
3.2398
3.27156
3.30163
3.33001
3.35672
3.38177
3.40562
3.53788
3.49183
3.43997
3.37975
3.30758
3.21836
3.10556
2.96237
2.78538
2.58361
2.38573
2.23081
2.14913
2.09263
2.09833
2.1433
2.21281
2.30433
2.41124
2.53423
2.66164
2.78658
2.91086
3.02782
3.12935
3.21489
3.2766
3.31455
3.3342
3.33833
3.32269
3.30342
3.28497
3.27174
3.26377
3.25924
3.25701
3.25672
3.25857
3.26321
3.27111
3.28231
3.29626
3.31206
3.32879
3.34574
3.36245
3.37851
3.39347
3.40782
3.55936
3.51261
3.4598
3.39854
3.32515
3.2341
3.1181
2.96939
2.7834
2.56796
2.35129
2.17517
2.06953
2.0166
2.01133
2.05646
2.13676
2.24264
2.36712
2.50922
2.65827
2.80338
2.94977
3.09097
3.21962
3.32737
3.41073
3.4693
3.50736
3.53351
3.53369
3.52973
3.521
3.51008
3.49618
3.47844
3.45747
3.43502
3.41357
3.39563
3.38294
3.376
3.37417
3.37614
3.38054
3.38628
3.39262
3.3989
3.40448
3.40991
3.58269
3.53589
3.48275
3.42111
3.34724
3.25524
3.13708
2.98396
2.78993
2.56107
2.32435
2.12787
2.00549
1.92336
1.91989
1.96682
2.0586
2.181
2.32531
2.48998
2.66129
2.82789
2.99793
3.16722
3.31788
3.45116
3.55478
3.6315
3.6847
3.72874
3.73946
3.74472
3.73986
3.72553
3.70102
3.66697
3.62604
3.58227
3.54016
3.50359
3.47479
3.45405
3.44016
3.43126
3.42558
3.42183
3.41916
3.41685
3.41416
3.41166
3.60783
3.56171
3.50899
3.4477
3.37413
3.28212
3.16301
3.00695
2.80647
2.56557
2.30985
2.09325
1.93144
1.84124
1.83003
1.87357
1.9793
2.12019
2.2862
2.475
2.67018
2.86025
3.05861
3.25558
3.43236
3.57936
3.70114
3.79215
3.85657
3.91101
3.92896
3.93507
3.92812
3.90575
3.86803
3.81717
3.75791
3.69622
3.63802
3.58777
3.54751
3.51687
3.49402
3.47669
3.46291
3.45134
3.44116
3.43166
3.42204
3.4129
3.63475
3.59011
3.53859
3.47842
3.406
3.31501
3.19634
3.03916
2.83443
2.58336
2.30987
2.0687
1.85777
1.74752
1.72603
1.78158
1.9017
2.06176
2.25048
2.46474
2.68383
2.90088
3.12683
3.34281
3.53816
3.70291
3.83783
3.94059
4.01272
4.06129
4.09106
4.08802
4.07638
4.04371
3.99239
3.92655
3.85267
3.77798
3.70896
3.64993
3.60228
3.56497
3.5357
3.51202
3.49197
3.47426
3.45815
3.44296
3.4279
3.41351
3.66343
3.62106
3.57153
3.51328
3.44287
3.35401
3.23735
3.08121
2.87497
2.61603
2.32645
2.05524
1.80274
1.66485
1.63664
1.70258
1.83135
2.00828
2.21936
2.46012
2.70529
2.9542
3.19563
3.42679
3.63492
3.81195
3.95248
4.06465
4.13546
4.18134
4.20559
4.2005
4.17979
4.13628
4.07298
3.99584
3.91233
3.8301
3.75542
3.69194
3.64031
3.59897
3.56543
3.53728
3.5127
3.4905
3.47004
3.4507
3.43168
3.41351
3.69382
3.65444
3.60768
3.55215
3.48466
3.39912
3.28618
3.1336
2.92927
2.66616
2.363
2.06463
1.77842
1.60792
1.57986
1.63881
1.77095
1.96165
2.19355
2.46107
2.73478
2.99476
3.2543
3.49771
3.71517
3.8979
4.03849
4.15231
4.21896
4.25856
4.27463
4.2665
4.23532
4.18245
4.11081
4.0274
3.93988
3.85552
3.77983
3.71558
3.6628
3.61966
3.58375
3.55287
3.52541
3.50032
3.47702
3.45498
3.43347
3.41291
3.72581
3.69007
3.6468
3.59479
3.53116
3.45019
3.34283
3.19671
2.99853
2.73703
2.42528
2.1037
1.7923
1.59178
1.52943
1.58482
1.72264
1.92409
2.17474
2.46653
2.76399
3.04309
3.31257
3.55771
3.77478
3.9585
4.09931
4.19719
4.26297
4.28579
4.29611
4.28106
4.2423
4.18394
4.10903
4.02494
3.93892
3.85732
3.78457
3.72262
3.67105
3.62807
3.59153
3.55953
3.53072
3.5042
3.47947
3.45607
3.43339
3.41174
3.75921
3.72768
3.68857
3.64087
3.58205
3.50694
3.40712
3.27059
3.08338
2.83097
2.52099
2.17961
1.85083
1.61933
1.52146
1.55552
1.6936
1.89958
2.16461
2.47535
2.78993
3.08065
3.35488
3.60066
3.81072
3.98606
4.1174
4.20119
4.25799
4.27167
4.27724
4.25206
4.20566
4.14604
4.07294
3.99337
3.91365
3.83882
3.7722
3.71499
3.66662
3.62552
3.58989
3.55824
3.52947
3.50284
3.47793
3.45437
3.43167
3.41002
3.79373
3.76689
3.73257
3.68996
3.63693
3.56902
3.47872
3.35492
3.18357
2.94767
2.64885
2.29928
1.96787
1.70281
1.56007
1.56227
1.68466
1.89283
2.16442
2.48474
2.80705
3.10107
3.37293
3.61108
3.81135
3.97785
4.09316
4.16009
4.20548
4.21661
4.21905
4.18586
4.13314
4.0759
4.00893
3.93819
3.86852
3.80352
3.74542
3.69487
3.65131
3.61352
3.58017
3.55015
3.52263
3.49704
3.47304
3.45034
3.42856
3.40782
3.829
3.80726
3.77832
3.74157
3.69534
3.63595
3.5571
3.449
3.29796
3.08499
2.80394
2.46843
2.13912
1.82546
1.6433
1.61268
1.71613
1.90528
2.17259
2.48984
2.80785
3.09515
3.3564
3.5822
3.76858
3.91674
4.01693
4.07786
4.11369
4.12164
4.11702
4.07958
4.03367
3.98139
3.92372
3.86496
3.80802
3.75498
3.70707
3.66456
3.62704
3.59373
3.56378
3.53646
3.51121
3.48761
3.46543
3.44442
3.42434
3.40524
3.86458
3.84831
3.8253
3.7952
3.75677
3.70722
3.64164
3.55191
3.42491
3.2398
2.98195
2.65663
2.31079
1.98774
1.76978
1.69848
1.76437
1.93283
2.18258
2.4828
2.78457
3.0555
3.29882
3.50716
3.67862
3.80983
3.90037
3.95775
3.98753
3.99379
3.9806
3.95164
3.91302
3.86882
3.82325
3.77876
3.73635
3.69663
3.65995
3.62639
3.5958
3.56787
3.5422
3.51843
3.49624
3.47539
3.45572
3.43706
3.41928
3.40239
3.90001
3.88954
3.87299
3.8503
3.8207
3.7823
3.73171
3.66265
3.56274
3.4093
3.1805
2.87498
2.52762
2.18825
1.93738
1.82538
1.83948
1.97181
2.18888
2.45593
2.73387
2.97629
3.19476
3.3826
3.53937
3.66117
3.74653
3.80121
3.83084
3.83896
3.82901
3.80592
3.77568
3.74311
3.71236
3.68399
3.65731
3.63165
3.60675
3.58265
3.55955
3.53759
3.51684
3.49723
3.47871
3.46117
3.44452
3.42868
3.41364
3.39937
3.93489
3.93049
3.92089
3.90636
3.8866
3.86064
3.82665
3.78021
3.70968
3.59046
3.3943
3.11394
2.76444
2.41078
2.12301
1.95541
1.92917
2.01672
2.18592
2.40547
2.64518
2.85126
3.03648
3.20666
3.35344
3.47111
3.55651
3.61415
3.6488
3.66316
3.66052
3.6462
3.62764
3.60975
3.59586
3.58486
3.57447
3.56305
3.54997
3.53544
3.52005
3.50441
3.48894
3.47392
3.45947
3.44561
3.43234
3.41964
3.40764
3.39625
3.96889
3.97077
3.96856
3.96289
3.95397
3.94174
3.92584
3.90351
3.86347
3.77868
3.61438
3.35301
3.01453
2.65191
2.32898
2.11305
2.02363
2.05428
2.164
2.32353
2.5012
2.67492
2.8242
2.98452
3.12848
3.24805
3.3393
3.40533
3.44954
3.47384
3.48143
3.47936
3.47505
3.47433
3.4787
3.48552
3.49124
3.49358
3.49188
3.48663
3.47886
3.46958
3.45957
3.44934
3.43918
3.42925
3.41956
3.4102
3.40142
3.39307
4.00181
4.0101
4.01566
4.01951
4.02237
4.02509
4.02862
4.03139
4.02169
3.96934
3.83349
3.58958
3.25181
2.86942
2.50799
2.25004
2.10392
2.06853
2.11026
2.21033
2.32987
2.46304
2.58529
2.73239
2.87961
3.00606
3.1076
3.1858
3.24266
3.2798
3.29904
3.31181
3.32432
3.34224
3.3654
3.38964
3.41055
3.42562
3.43438
3.43776
3.43721
3.43413
3.42954
3.42416
3.4184
3.41248
3.4065
3.40058
3.39509
3.38982
4.03356
4.04833
4.06193
4.07586
4.09141
4.11023
4.13431
4.1626
4.18189
4.15814
4.04503
3.81308
3.47301
3.06806
2.67603
2.36809
2.15974
2.05154
2.01799
2.05754
2.13824
2.24157
2.34284
2.47466
2.62631
2.76159
2.87509
2.96685
3.03721
3.08735
3.12203
3.15037
3.18106
3.21821
3.25975
3.3002
3.33473
3.36097
3.37893
3.39002
3.39612
3.39889
3.39956
3.39894
3.39756
3.39569
3.39343
3.39097
3.38876
3.38655
4.06414
4.08538
4.10724
4.13173
4.16074
4.19668
4.24215
4.29567
4.34134
4.34041
4.242
4.01292
3.66153
3.23054
2.80282
2.44638
2.18784
2.00028
1.88993
1.86601
1.93058
2.00973
2.10207
2.23045
2.38513
2.52886
2.65389
2.75862
2.84242
2.90531
2.95484
3.00029
3.0499
3.10601
3.16462
3.21932
3.26534
3.30086
3.32653
3.3443
3.35635
3.36454
3.3702
3.37421
3.3771
3.37918
3.38058
3.38152
3.38253
3.38331
4.09366
4.12129
4.15152
4.18694
4.23007
4.28392
4.35116
4.42856
4.49648
4.5107
4.41733
4.1822
3.80765
3.34567
2.89459
2.50099
2.17724
1.92034
1.7451
1.67683
1.70983
1.78928
1.88391
2.0148
2.16928
2.31875
2.453
2.56854
2.66411
2.73963
2.80309
2.86602
2.93445
3.0083
3.08178
3.14814
3.20315
3.24589
3.27774
3.30111
3.31841
3.33156
3.34189
3.35028
3.35728
3.36317
3.36809
3.37233
3.37646
3.38014
4.12221
4.15613
4.19475
4.24135
4.29902
4.3712
4.45997
4.55851
4.64285
4.6626
4.56349
4.3135
3.91438
3.42085
2.94157
2.50677
2.13221
1.81398
1.59368
1.49879
1.52507
1.5992
1.69508
1.82753
1.98308
2.13669
2.27766
2.40138
2.50528
2.59217
2.67057
2.75089
2.83711
2.92649
3.0119
3.08686
3.14822
3.19612
3.23268
3.26065
3.28252
3.30014
3.31481
3.32732
3.33819
3.3477
3.356
3.36341
3.37056
3.37705
4.14985
4.18994
4.23691
4.29478
4.36712
4.45735
4.5661
4.68215
4.77541
4.78999
4.67291
4.39517
3.96272
3.44999
2.93618
2.4733
2.06693
1.69787
1.45931
1.3554
1.37137
1.43719
1.53463
1.6699
1.82806
1.98487
2.13018
2.25923
2.36991
2.46698
2.55995
2.65696
2.759
2.86076
2.95455
3.03488
3.09999
3.15117
3.19115
3.22284
3.24864
3.27029
3.28893
3.30528
3.31981
3.33275
3.34427
3.35474
3.36482
3.37402
4.17659
4.22266
4.2779
4.34692
4.43359
4.54065
4.66644
4.79429
4.88879
4.89057
4.74319
4.42548
3.95463
3.41934
2.87655
2.37791
1.95513
1.58242
1.34249
1.22987
1.2456
1.30621
1.406
1.54391
1.70558
1.86307
2.01118
2.14259
2.25918
2.36593
2.47317
2.58524
2.69999
2.81019
2.9085
2.99099
3.05753
3.1104
3.15273
3.18739
3.21659
3.24184
3.26412
3.28403
3.30199
3.3182
3.33281
3.34624
3.35915
3.37097
4.20232
4.25419
4.31745
4.39717
4.49719
4.61893
4.75728
4.89015
4.97491
4.95268
4.7669
4.40381
3.90991
3.35107
2.78504
2.26088
1.82277
1.47107
1.23083
1.12961
1.147
1.20677
1.31121
1.45295
1.61889
1.77378
1.91932
2.05167
2.17303
2.29047
2.41083
2.53536
2.65873
2.77291
2.87188
2.9537
3.01977
3.0731
3.11694
3.15396
3.18608
3.21454
3.24014
3.26336
3.28453
3.30384
3.32142
3.33773
3.35341
3.36784
4.22681
4.28422
4.35506
4.44455
4.55604
4.68913
4.83441
4.96402
5.03164
4.97338
4.74303
4.3474
3.83727
3.26395
2.67995
2.1367
1.69236
1.34407
1.13308
1.05553
1.07497
1.13878
1.24802
1.39282
1.5546
1.71409
1.85357
1.98674
2.11365
2.24093
2.37244
2.50565
2.63281
2.74641
2.84262
2.9215
2.98567
3.03856
3.08326
3.12212
3.15671
3.18801
3.21661
3.24288
3.26709
3.28937
3.30987
3.32908
3.34755
3.36466
4.24968
4.31226
4.38992
4.48761
4.60769
4.74759
4.89363
5.01495
5.05681
4.95742
4.68166
4.27116
3.75475
3.17447
2.57343
2.01305
1.55672
1.25283
1.04826
1.0016
1.02955
1.10164
1.21491
1.36043
1.51879
1.67219
1.81299
1.94698
2.07985
2.21639
2.35626
2.49326
2.61908
2.72799
2.81869
2.89302
2.95435
3.00614
3.05115
3.0913
3.12785
3.16152
3.19274
3.2218
3.24889
3.27413
3.29763
3.31989
3.34138
3.36138
4.27045
4.33763
4.42088
4.5244
4.64929
4.79093
4.93151
5.03861
5.04601
4.8987
4.60297
4.18705
3.67673
3.09294
2.47867
1.91067
1.45684
1.14699
0.993656
0.974018
1.01354
1.09475
1.21297
1.35594
1.50919
1.65667
1.79635
1.93235
2.07276
2.21565
2.35926
2.49454
2.61418
2.71512
2.79841
2.86719
2.92503
2.97512
3.01977
3.06053
3.09834
3.13375
3.1671
3.19863
3.22851
3.25681
3.2836
3.30931
3.33429
3.35779
4.2885
4.35942
4.44643
4.55262
4.67798
4.81639
4.94832
5.03287
4.99972
4.81603
4.51473
4.11077
3.61295
3.02632
2.40855
1.83835
1.38033
1.088
0.979912
0.97766
1.02845
1.11839
1.23719
1.37532
1.52221
1.66748
1.80304
1.94452
2.08875
2.23592
2.37748
2.50547
2.61504
2.70586
2.78068
2.84327
2.89704
2.94467
2.98805
3.0284
3.06648
3.10278
3.13764
3.17134
3.20405
3.23572
3.26629
3.29602
3.32516
3.35328
4.30314
4.37654
4.4649
4.57005
4.69179
4.82353
4.94334
4.9967
4.92114
4.72524
4.43323
4.05001
3.56771
2.97995
2.36668
1.80984
1.3589
1.09577
0.995284
1.01299
1.07341
1.16686
1.28474
1.41655
1.56042
1.69761
1.83881
1.9833
2.12857
2.27292
2.40641
2.52253
2.61944
2.69906
2.76499
2.82095
2.86992
2.91405
2.95479
2.99314
3.02984
3.06546
3.10055
3.13556
3.17078
3.20622
3.2417
3.27714
3.31192
3.34657
4.31364
4.38783
4.47461
4.57499
4.69005
4.8141
4.92513
4.94133
4.83887
4.63621
4.36521
4.00431
3.53391
2.95975
2.36236
1.82604
1.39649
1.16284
1.08595
1.08086
1.14983
1.23868
1.35259
1.47777
1.61521
1.75002
1.89457
2.04056
2.18535
2.32142
2.44181
2.54309
2.6262
2.69437
2.75133
2.80029
2.8436
2.88289
2.91926
2.95352
2.9864
3.01866
3.05112
3.08463
3.11994
3.15769
3.19857
3.24341
3.29262
3.33992
4.31924
4.39215
4.47413
4.5665
4.67288
4.78922
4.87973
4.86855
4.74688
4.55524
4.30711
3.9708
3.51829
2.96484
2.39355
1.88374
1.49198
1.27395
1.19229
1.18785
1.2514
1.33781
1.44109
1.56389
1.69526
1.83456
1.97355
2.11767
2.25429
2.37662
2.48053
2.56577
2.63511
2.6922
2.74031
2.78192
2.81872
2.85181
2.88196
2.90976
2.93579
2.96072
2.98527
3.01032
3.03693
3.06671
3.1024
3.14847
3.21146
3.29848
4.31932
4.38859
4.46269
4.54497
4.64324
4.7517
4.81639
4.78211
4.6538
4.48078
4.25897
3.94755
3.51975
2.996
2.45523
1.98238
1.6328
1.41679
1.32095
1.32186
1.37487
1.4546
1.55101
1.6705
1.80176
1.93554
2.074
2.20839
2.33049
2.43497
2.52086
2.59027
2.64667
2.69338
2.73291
2.76701
2.79676
2.82283
2.84561
2.86541
2.88251
2.89711
2.90915
2.91822
2.92349
2.92377
2.91733
2.90118
2.86907
2.80774
4.31337
4.37655
4.44023
4.5113
4.6026
4.69707
4.73888
4.68605
4.56408
4.41553
4.21791
3.93229
3.53674
3.05195
2.54718
2.10382
1.77135
1.5673
1.4803
1.47103
1.51622
1.58585
1.68538
1.80169
1.92873
2.05927
2.18805
2.30659
2.40931
2.49398
2.56213
2.61693
2.66163
2.69878
2.73015
2.75687
2.7796
2.7987
2.81437
2.82682
2.8362
2.84259
2.84587
2.84564
2.84136
2.83253
2.81903
2.80112
2.77837
2.74764
4.30114
4.3559
4.40733
4.46727
4.54978
4.63183
4.65363
4.59083
4.48508
4.35707
4.18087
3.92295
3.566
3.12906
2.6689
2.25717
1.94688
1.75265
1.65227
1.63736
1.67804
1.75018
1.84519
1.95705
2.07667
2.19626
2.30809
2.406
2.48718
2.55235
2.60433
2.6462
2.68048
2.70893
2.73269
2.75244
2.76855
2.78122
2.79062
2.79696
2.80046
2.80125
2.79926
2.79435
2.78639
2.77553
2.76228
2.74747
2.73154
2.71199
4.28269
4.32713
4.36541
4.4166
4.49177
4.55997
4.56573
4.5036
4.41385
4.30236
4.14579
3.91659
3.60308
3.2208
2.81296
2.43839
2.14408
1.94883
1.85308
1.83408
1.87227
1.93929
2.02856
2.13072
2.23654
2.33746
2.42713
2.502
2.56207
2.60967
2.64761
2.67827
2.70333
2.72389
2.74062
2.75394
2.76405
2.77108
2.77517
2.77659
2.77562
2.77252
2.76733
2.76005
2.75069
2.73953
2.72713
2.71425
2.7011
2.68515
4.2583
4.29111
4.31594
4.35937
4.42607
4.48344
4.47845
4.4242
4.34715
4.24966
4.11121
3.91096
3.64314
3.31843
2.96798
2.63782
2.37089
2.18612
2.08488
2.06023
2.09133
2.14969
2.22662
2.31213
2.39712
2.47431
2.53951
2.59196
2.63328
2.66592
2.69199
2.713
2.72991
2.74333
2.75367
2.76115
2.76592
2.76804
2.76769
2.76513
2.76069
2.75463
2.74711
2.73819
2.72791
2.71641
2.70408
2.69154
2.67904
2.66435
4.22858
4.24894
4.26056
4.29553
4.35736
4.40466
4.3972
4.34941
4.28365
4.19835
4.07643
3.90479
3.68119
3.41308
3.12162
2.84075
2.6062
2.43763
2.33728
2.30485
2.32406
2.36755
2.42552
2.48841
2.5483
2.60008
2.64204
2.67499
2.70077
2.72112
2.73727
2.74997
2.75968
2.76672
2.7713
2.77359
2.77364
2.77154
2.76742
2.76153
2.75418
2.74563
2.73606
2.72557
2.71419
2.70201
2.68931
2.67654
2.66392
2.64953
4.19445
4.20216
4.20212
4.23187
4.28764
4.32822
4.3198
4.27861
4.22285
4.14828
4.0418
3.89683
3.71353
3.49735
3.2621
3.03111
2.83089
2.68034
2.58604
2.54679
2.55096
2.57497
2.61029
2.64825
2.68292
2.71157
2.73402
2.75134
2.76476
2.77517
2.78306
2.78865
2.79207
2.79345
2.79294
2.79063
2.78659
2.78086
2.77355
2.76482
2.75491
2.74409
2.73255
2.72044
2.70783
2.69477
2.6814
2.66806
2.65488
2.64028
4.15713
4.15289
4.14619
4.16517
4.21743
4.25432
4.24405
4.21093
4.16446
4.09965
4.00763
3.8865
3.73809
3.56659
3.38086
3.19607
3.03084
2.90028
2.81137
2.76536
2.7537
2.75796
2.7708
2.78547
2.79854
2.80872
2.81622
2.82163
2.82546
2.82789
2.82893
2.82848
2.82649
2.82298
2.81803
2.81173
2.80413
2.79528
2.78522
2.77408
2.76201
2.74921
2.73587
2.72216
2.70816
2.69392
2.67954
2.6653
2.65128
2.63615
4.11787
4.10352
4.08495
4.10084
4.14614
4.17986
4.17222
4.14752
4.10898
4.05296
3.97418
3.87372
3.75434
3.61934
3.47428
3.32869
3.19477
3.08321
3.00023
2.94831
2.92242
2.90939
2.90329
2.89958
2.89649
2.89329
2.88996
2.88655
2.88298
2.87905
2.87447
2.86899
2.86246
2.85482
2.84612
2.83642
2.82579
2.81425
2.80183
2.78859
2.77462
2.76004
2.74503
2.72973
2.71426
2.69869
2.68312
2.66776
2.65269
2.63681
4.07742
4.05382
4.02729
4.03721
4.07658
4.10598
4.10747
4.08844
4.05669
4.00853
3.94164