/*--------------------------------*- C++ -*----------------------------------*\
  =========                 |
  \\      /  F ield         | OpenFOAM: The Open Source CFD Toolbox
   \\    /   O peration     | Website:  https://openfoam.org
    \\  /    A nd           | Version:  9
     \\/     M anipulation  |
\*---------------------------------------------------------------------------*/
FoamFile
{
    format      ascii;
    class       volScalarField;
    location    "0.18";
    object      p_rgh;
}
// * * * * * * * * * * * * * * * * * * * * * * * * * * * * * * * * * * * * * //

dimensions      [1 -1 -2 0 0 0 0];

internalField   nonuniform List<scalar> 
5000
(
-0.370711
-0.432808
-0.510002
-0.60286
-0.720549
-0.879528
-1.10237
-1.41948
-1.86636
-2.4779
-3.60113
-4.44697
-420.866
-2891.68
-3482.47
-3473.22
-3469.72
-3469.16
-3467.89
-3465.77
-3463.63
-3462.37
-3462
-3462.33
-3462.82
-3462.95
-3462.65
-3462.36
-3462.74
-2640.07
-255.336
-7.76965
-5.0415
-3.57796
-3.02053
-2.6155
-2.26979
-1.97033
-1.70858
-1.47663
-1.26896
-1.08137
-0.910721
-0.754718
-0.611612
-0.479914
-0.358307
-0.245877
-0.14119
-0.045755
-0.363981
-0.420503
-0.489782
-0.571916
-0.673734
-0.809111
-0.995298
-1.24967
-1.59286
-2.04845
-2.82644
-3.71215
-243.014
-2627.49
-3484.49
-3473.37
-3468.59
-3468.2
-3467.17
-3465.25
-3462.9
-3461.07
-3460.17
-3460.22
-3460.75
-3461.14
-3461.06
-3460.59
-3460.36
-2516.7
-182.898
-5.88164
-4.16491
-3.14425
-2.65564
-2.3182
-2.02844
-1.77342
-1.54648
-1.34266
-1.15844
-0.990822
-0.837352
-0.696126
-0.565632
-0.444592
-0.331918
-0.227099
-0.129235
-0.0387671
-0.350433
-0.401134
-0.462045
-0.532803
-0.618429
-0.728317
-0.872924
-1.06038
-1.29297
-1.57201
-1.85505
-2.47901
-17.1559
-2175.12
-3475.55
-3471.02
-3466.86
-3466.59
-3465.73
-3464
-3461.46
-3459.09
-3457.6
-3457.23
-3457.66
-3458.24
-3458.39
-3458.4
-3458.42
-2105.19
-63.2531
-5.14003
-3.58818
-2.77805
-2.35534
-2.04166
-1.79007
-1.57036
-1.37438
-1.19751
-1.03687
-0.889978
-0.754755
-0.629556
-0.513103
-0.404361
-0.302483
-0.207102
-0.117095
-0.0304763
-0.331375
-0.376147
-0.428789
-0.488292
-0.557526
-0.641633
-0.744895
-0.868018
-0.997153
-1.08435
-1.41622
-0.927362
-0.0944799
-1339.62
-3405.26
-3468.09
-3465.66
-3464.53
-3463.61
-3462
-3459.26
-3456.38
-3454.22
-3453.18
-3453.17
-3453.66
-3454.02
-3454.26
-3363.38
-1257.39
-11.1197
-4.52952
-3.041
-2.35037
-2.05135
-1.76326
-1.544
-1.35744
-1.19176
-1.04219
-0.905836
-0.780486
-0.664416
-0.556327
-0.455247
-0.360422
-0.27123
-0.18729
-0.107728
-0.0319884
-0.308887
-0.347599
-0.39201
-0.440281
-0.493303
-0.553417
-0.620414
-0.688722
-0.736041
-0.693495
-0.963083
-0.136422
1.3054
-466.16
-2924.31
-3465.75
-3465.46
-3462.18
-3460.77
-3459.31
-3456.42
-3453.08
-3450.2
-3448.28
-3447.46
-3447.66
-3448.23
-3448.97
-2689.77
-379.686
-8.32628
-5.44558
-2.26659
-1.88357
-1.64962
-1.4509
-1.27684
-1.12919
-0.997398
-0.87724
-0.766495
-0.663555
-0.567242
-0.476709
-0.391333
-0.310628
-0.234199
-0.161842
-0.0934225
-0.0295717
-0.284257
-0.317075
-0.353502
-0.391104
-0.429406
-0.46891
-0.506501
-0.532417
-0.525481
-0.412143
-0.475334
0.435835
1.15035
-0.520204
-1835.48
-3439.9
-3462.28
-3459.34
-3457.32
-3455.97
-3453.15
-3449.49
-3445.94
-3443.06
-3441.36
-3441.52
-3443.12
-3215.63
-1174.41
-12.0191
-6.21141
-4.84309
-1.88325
-1.44101
-1.26457
-1.12346
-1.00412
-0.89742
-0.799526
-0.70871
-0.623566
-0.543104
-0.46673
-0.394084
-0.324929
-0.259073
-0.196333
-0.136584
-0.0797065
-0.0262494
-0.258718
-0.285949
-0.314929
-0.342943
-0.368686
-0.391587
-0.407525
-0.405334
-0.369942
-0.252304
0.124626
0.625588
1.11501
1.35941
-330.773
-2456.93
-3454.79
-3456.11
-3453.91
-3452.45
-3449.84
-3446.01
-3441.78
-3437.75
-3435.07
-3436.38
-3361.39
-1623.18
-35.734
-6.53009
-5.145
-2.28843
-1.68843
-1.14256
-0.961139
-0.847951
-0.760126
-0.682889
-0.612359
-0.546548
-0.484255
-0.424596
-0.367179
-0.311881
-0.258668
-0.207526
-0.158411
-0.111233
-0.0659728
-0.0230181
-0.233341
-0.255415
-0.27773
-0.297528
-0.313125
-0.323536
-0.32534
-0.30856
-0.265096
-0.149932
0.176875
0.258589
0.855277
1.20281
0.557898
-369.806
-2324.4
-3442.31
-3448.73
-3448.58
-3446.89
-3443.28
-3438.13
-3432.2
-3426.75
-3249.65
-1582.37
-43.3321
-3.71892
-5.26596
-4.99919
-1.67367
-1.14661
-0.952796
-0.752434
-0.632208
-0.558631
-0.496117
-0.443512
-0.396781
-0.353459
-0.312084
-0.271954
-0.232833
-0.194666
-0.157462
-0.121257
-0.0859956
-0.051873
-0.0192636
-0.208924
-0.226288
-0.242833
-0.255945
-0.263878
-0.265612
-0.259308
-0.237701
-0.197859
-0.109207
0.0773485
0.110292
0.678656
0.934611
0.839233
0.599366
-189.182
-1449.6
-2766.08
-3233.41
-3320.36
-3292.88
-3211.32
-3018.46
-2320.48
-885.634
-18.1261
-2.30557
-1.45268
-1.42048
-2.57338
-2.33153
-1.29786
-0.687561
-0.549548
-0.448226
-0.384149
-0.331145
-0.290967
-0.259286
-0.231996
-0.206804
-0.182458
-0.158443
-0.134629
-0.111043
-0.0877466
-0.0645025
-0.0413504
-0.0189754
-0.186031
-0.199148
-0.210829
-0.218752
-0.221319
-0.217578
-0.207193
-0.186192
-0.154921
-0.0995564
-0.247635
-0.0416012
0.500185
0.665348
0.613945
0.479764
0.286776
-2.29757
-266.662
-705.04
-978.358
-972.413
-798.968
-442.68
-128.085
-4.95092
-5.52597
-1.65049
-0.825905
-0.752861
-0.764289
-1.38135
-1.27659
-0.982112
-0.381888
-0.282275
-0.223874
-0.18174
-0.152922
-0.133545
-0.120019
-0.108981
-0.098552
-0.0878583
-0.0766035
-0.0648136
-0.0526573
-0.0399739
-0.0275021
-0.0191993
-0.165043
-0.174423
-0.182114
-0.186201
-0.185334
-0.178629
-0.166905
-0.148852
-0.126838
-0.11998
-0.30139
-0.0116165
0.339875
0.445502
0.435804
0.358035
0.224838
0.0774358
-0.0446912
-0.255196
-0.471323
-0.617821
-0.706361
-0.733623
-0.766753
-2.07138
-1.32893
-0.796828
-0.648953
-0.581764
-0.509387
-0.56897
-1.04907
-0.892791
-0.408036
-0.192702
-0.0837626
-0.0496135
-0.0307844
-0.0223406
-0.0203742
-0.0212398
-0.022622
-0.0232896
-0.0227799
-0.0210863
-0.0184682
-0.01496
-0.0112313
-0.00994345
-0.14616
-0.152424
-0.156963
-0.158394
-0.15565
-0.147879
-0.136536
-0.121829
-0.106323
-0.147589
-0.332213
0.0352568
0.135658
0.270218
0.303819
0.254031
0.180471
0.0956016
-0.035215
-0.249082
-0.465434
-0.591381
-0.681968
-0.720512
-0.632502
-0.587461
-0.554134
-0.521139
-0.470569
-0.413033
-0.424234
-0.544423
-0.5437
-0.336424
-0.240829
-0.178881
-0.101494
0.049141
0.0689838
0.0687708
0.0617729
0.0515223
0.040533
0.0302698
0.0213494
0.0138725
0.00763335
0.0027166
-0.000766604
-0.00535134
-0.129423
-0.133298
-0.135513
-0.1353
-0.131912
-0.124455
-0.114441
-0.102394
-0.0893155
-0.134529
-0.210989
0.0345965
0.0182373
0.160399
0.195513
0.102055
0.101064
0.0780949
-0.0070686
-0.0876799
-0.157454
-0.219377
-0.276623
-0.33141
-0.369669
-0.388262
-0.389183
-0.370335
-0.331992
-0.281575
-0.302838
-0.455249
-0.41646
-0.230651
-0.0611594
-0.0105263
-0.0327305
-0.00180622
0.123765
0.133234
0.121307
0.105392
0.0882097
0.0714708
0.0560337
0.0421744
0.029755
0.0188156
0.00948917
-0.00192348
-0.114738
-0.117002
-0.117735
-0.116765
-0.113671
-0.107515
-0.0993546
-0.0892814
-0.0760434
-0.0807208
-0.0252066
0.0290257
-0.0453817
0.00533747
-0.158681
-0.221193
0.0161307
0.0365602
-0.0302495
-0.094602
-0.148452
-0.192125
-0.230998
-0.263214
-0.284947
-0.29477
-0.290137
-0.268666
-0.23167
-0.18462
-0.13717
-0.213522
-0.323134
-0.247522
0.00113538
0.0438907
0.0479348
0.0405135
0.0712514
0.15463
0.155012
0.137426
0.11757
0.0974524
0.078224
0.0603446
0.0438038
0.0286566
0.0152116
-0.000164102
-0.101921
-0.103329
-0.103433
-0.102529
-0.100446
-0.0962932
-0.0903522
-0.0819591
-0.0680141
-0.046793
-0.0109443
-0.0011272
-0.0272438
-0.0845493
-0.26655
-0.28799
-0.0372651
-0.00448665
-0.0574134
-0.108498
-0.150778
-0.183691
-0.210315
-0.229283
-0.238701
-0.237571
-0.224657
-0.199091
-0.162203
-0.117331
-0.0677704
-0.0167638
-0.0135974
-0.097857
-0.215614
0.0583057
0.0811645
0.0870432
0.0815909
0.10593
0.155223
0.147502
0.127524
0.10668
0.0863054
0.0670762
0.0491285
0.0325266
0.0176356
0.00102943
-0.0907416
-0.0919655
-0.0922793
-0.0922365
-0.091782
-0.0901797
-0.0868453
-0.0803034
-0.0656582
-0.0414652
-0.00704995
-0.0816303
-0.0590737
-0.185657
-0.328575
-0.303108
-0.0170415
-0.0436739
-0.0856223
-0.126224
-0.158881
-0.1828
-0.199798
-0.208885
-0.209142
-0.20023
-0.181875
-0.154028
-0.117809
-0.0755282
-0.0297879
0.0168773
0.0610004
0.0947825
-0.302776
-0.414331
0.079695
0.0963384
0.0885278
0.0802812
0.117179
0.136884
0.119562
0.0997242
0.0804857
0.0625275
0.045938
0.0306327
0.0169571
0.0016053
-0.0809547
-0.0825701
-0.083858
-0.0854113
-0.0872073
-0.0886632
-0.0884054
-0.0841631
-0.0699025
-0.0442861
-0.0119633
-0.0872893
-0.167266
-0.366364
-0.382194
-0.133854
-0.0500324
-0.0819475
-0.115128
-0.146773
-0.171079
-0.187383
-0.196722
-0.198484
-0.192342
-0.178409
-0.156984
-0.128463
-0.0938074
-0.0546985
-0.0131952
0.0285703
0.0682253
0.102755
-0.375093
-0.7602
-0.381973
0.0949599
0.0884547
0.0676569
0.0574685
0.0905242
0.0940364
0.076183
0.059874
0.04545
0.0328294
0.0216103
0.0120293
0.0010948
-0.0723226
-0.0748305
-0.0777082
-0.081474
-0.086144
-0.0911416
-0.0945109
-0.0932884
-0.081283
-0.0566864
-0.0282322
-0.111347
-0.384059
-0.409014
-0.432596
-0.114591
-0.0933324
-0.120037
-0.146178
-0.170037
-0.187086
-0.197034
-0.200388
-0.196839
-0.186361
-0.1694
-0.146703
-0.118897
-0.0867543
-0.0515644
-0.014811
0.0217811
0.0565528
0.0874856
-0.1488
-0.88908
-0.901158
-0.40635
0.0501155
0.0374126
0.0124817
0.0169749
0.0443033
0.0341552
0.0228526
0.0145931
0.00892193
0.00498767
0.00265647
-0.000305049
-0.0646185
-0.0684716
-0.0733791
-0.0798218
-0.0878863
-0.096859
-0.104451
-0.10727
-0.0994858
-0.0791349
-0.0564538
-0.200363
-0.269839
-0.451513
-0.353734
-0.120776
-0.137377
-0.158934
-0.179012
-0.196048
-0.206816
-0.211519
-0.210299
-0.203032
-0.189774
-0.171305
-0.148813
-0.123015
-0.0943119
-0.0640393
-0.0331575
-0.0031333
0.0244471
0.0477335
0.0626247
-0.849813
-1.02482
-1.07158
-0.378309
-0.0100916
-0.026929
-0.0476765
-0.0341951
-0.0259058
-0.0303556
-0.0302768
-0.0263416
-0.019971
-0.0118126
-0.00313253
-0.0576216
-0.0632387
-0.0704826
-0.0799282
-0.0917507
-0.105054
-0.117434
-0.125459
-0.123969
-0.110742
-0.116168
-0.225989
-0.209353
-0.473106
-0.205285
-0.164648
-0.182184
-0.1991
-0.213827
-0.224785
-0.230106
-0.230532
-0.225905
-0.216047
-0.200946
-0.182463
-0.161754
-0.139026
-0.11498
-0.0904409
-0.0663143
-0.0437622
-0.0240576
-0.00832155
0.00238408
-0.097559
-1.14132
-1.17409
-1.20117
-0.35658
-0.0954954
-0.110228
-0.116551
-0.103794
-0.0971879
-0.0866233
-0.0704179
-0.0508143
-0.029123
-0.00647001
-0.0511138
-0.0588708
-0.0686953
-0.0813825
-0.0971973
-0.115099
-0.132751
-0.147066
-0.153754
-0.149851
-0.238913
-0.251524
-0.253954
-0.544605
-0.302312
-0.21586
-0.229705
-0.245295
-0.252199
-0.256117
-0.256583
-0.259122
-0.419188
-0.495233
-0.347057
-0.201374
-0.183331
-0.165247
-0.146974
-0.129043
-0.112306
-0.0976166
-0.0858435
-0.0776802
-0.0735583
-0.0743882
-0.642056
-1.29313
-1.30689
-1.30227
-0.332241
-0.199101
-0.203453
-0.191396
-0.175553
-0.152547
-0.122237
-0.0876608
-0.0509352
-0.011237
-0.0448758
-0.0550835
-0.0677179
-0.08385
-0.103801
-0.126499
-0.14986
-0.171415
-0.187885
-0.19542
-0.327604
-0.321417
-0.52199
-0.610575
-0.399417
-0.271214
-0.281227
-0.291473
-0.295552
-0.289983
-0.288127
-0.474647
-0.536461
-0.524042
-0.511436
-0.48968
-0.272076
-0.200184
-0.188646
-0.178444
-0.169946
-0.163813
-0.160621
-0.16072
-0.163973
-0.169658
-0.291394
-1.39557
-1.4405
-1.47382
-1.17129
-0.365615
-0.30609
-0.289457
-0.261889
-0.223695
-0.176389
-0.123845
-0.0690233
-0.00998826
-0.0386901
-0.0515827
-0.0672485
-0.0869988
-0.111174
-0.138824
-0.168316
-0.197966
-0.225435
-0.306786
-0.394745
-0.406584
-0.645426
-0.673505
-0.43683
-0.328674
-0.335434
-0.338133
-0.334032
-0.326635
-0.382824
-0.577607
-0.567087
-0.555198
-0.543242
-0.531137
-0.520158
-0.413251
-0.242544
-0.237364
-0.238525
-0.242152
-0.248822
-0.258647
-0.271167
-0.285247
-0.453576
-1.53572
-1.58531
-1.61461
-1.63264
-0.901822
-0.431882
-0.39875
-0.35511
-0.299546
-0.233844
-0.162222
-0.0869725
-0.00618012
-0.0323474
-0.0480943
-0.0669815
-0.0904699
-0.118918
-0.151653
-0.187645
-0.22605
-0.265913
-0.371432
-0.400523
-0.421165
-0.719371
-0.741948
-0.427859
-0.385056
-0.385786
-0.383812
-0.378611
-0.381031
-0.6156
-0.611949
-0.600485
-0.520318
-0.576099
-0.569652
-0.563431
-0.561117
-0.468304
-0.308118
-0.316637
-0.331748
-0.349994
-0.371224
-0.394421
-0.418086
-0.92121
-1.7092
-1.73431
-1.75983
-1.77136
-1.398
-0.585952
-0.511783
-0.448676
-0.374175
-0.28975
-0.199665
-0.106295
-0.0158503
-0.0256486
-0.0443717
-0.0666165
-0.0938886
-0.126629
-0.16456
-0.207352
-0.254948
-0.308226
-0.372721
-0.394401
-0.425639
-0.792227
-0.680108
-0.451066
-0.445322
-0.441587
-0.435525
-0.430144
-0.619766
-0.660197
-0.646977
-0.464517
-0.348028
-0.349649
-0.558257
-0.609526
-0.614156
-0.624888
-0.498178
-0.404194
-0.431481
-0.462492
-0.496045
-0.529441
-0.560454
-1.50676
-1.89022
-1.91389
-1.92444
-1.92462
-1.23937
-0.684019
-0.610866
-0.527142
-0.432792
-0.329524
-0.222047
-0.114437
-0.0196462
-0.0184008
-0.0401869
-0.0658464
-0.0968809
-0.133907
-0.17714
-0.226995
-0.284204
-0.349557
-0.412561
-0.463905
-0.513483
-0.869148
-0.602155
-0.513681
-0.507803
-0.4999
-0.490011
-0.564427
-0.717014
-0.700052
-0.56778
-0.402045
-0.385134
-0.378249
-0.382897
-0.628657
-0.668062
-0.689418
-0.681606
-0.505639
-0.537509
-0.583119
-0.630438
-0.674142
-0.947223
-1.94975
-2.00752
-1.87017
-1.62784
-1.33513
-0.913944
-0.761962
-0.676895
-0.577039
-0.467323
-0.350261
-0.231648
-0.11721
-0.0218029
-0.0104135
-0.0353042
-0.0643593
-0.0990831
-0.140372
-0.188997
-0.246126
-0.313247
-0.38993
-0.469421
-0.533313
-0.820199
-0.953907
-0.610855
-0.579351
-0.572627
-0.561084
-0.562199
-0.777812
-0.76244
-0.662043
-0.461762
-0.436903
-0.421166
-0.414398
-0.418314
-0.458942
-0.71553
-0.75143
-0.793193
-0.614243
-0.642988
-0.703375
-0.764385
-0.877245
-1.68414
-2.01491
-1.61587
-1.06316
-0.962644
-0.925949
-0.897836
-0.800074
-0.70246
-0.593609
-0.474195
-0.349576
-0.226981
-0.114218
-0.0235813
-0.00149711
-0.029476
-0.0618409
-0.100147
-0.145662
-0.199732
-0.264222
-0.341254
-0.43072
-0.525465
-0.601137
-0.943629
-0.885754
-0.673638
-0.681438
-0.651251
-0.625939
-0.703726
-0.830183
-0.782164
-0.53983
-0.496001
-0.472169
-0.45477
-0.447567
-0.453621
-0.472225
-0.678845
-0.801125
-0.829116
-0.678439
-0.737041
-0.809716
-0.879026
-1.52401
-1.83796
-1.88516
-1.15188
-1.05559
-1.01808
-0.968269
-0.902064
-0.813002
-0.70434
-0.586084
-0.460498
-0.33383
-0.213746
-0.107855
-0.0243667
0.00853541
-0.0224594
-0.0579861
-0.0997522
-0.149438
-0.208943
-0.280752
-0.36756
-0.469678
-0.579606
-0.712576
-1.03242
-0.944447
-0.971377
-0.963287
-0.728622
-0.712376
-0.90276
-0.885904
-0.644577
-0.56526
-0.533065
-0.504521
-0.483917
-0.474973
-0.481504
-0.503319
-0.600092
-0.830913
-0.821146
-0.733247
-0.812144
-0.894193
-1.02629
-1.84161
-1.89453
-1.49959
-1.12662
-1.0932
-1.04505
-0.97866
-0.894112
-0.79335
-0.677321
-0.553955
-0.428053
-0.30625
-0.195605
-0.101067
-0.0253968
0.0198426
-0.0140069
-0.0525232
-0.0976181
-0.151385
-0.216239
-0.295199
-0.391488
-0.505736
-0.630319
-1.0115
-1.10029
-1.01411
-1.16145
-1.02725
-0.804866
-0.825585
-0.970174
-0.887124
-0.649298
-0.605687
-0.567585
-0.534937
-0.50653
-0.493644
-0.497856
-0.519748
-0.580643
-0.838773
-0.821395
-0.776418
-0.862103
-0.95161
-1.13416
-1.80226
-1.62534
-1.16996
-1.12586
-1.08267
-1.02089
-0.940912
-0.845021
-0.736314
-0.619002
-0.498209
-0.379931
-0.270256
-0.174018
-0.0926882
-0.0253929
0.0325897
-0.00391741
-0.0452369
-0.0935111
-0.151214
-0.221226
-0.307039
-0.412301
-0.537737
-0.677147
-0.954635
-1.02482
-1.13661
-1.25327
-0.986722
-0.883048
-0.921833
-1.03912
-0.990239
-0.711274
-0.643382
-0.627936
-0.630925
-0.553241
-0.500681
-0.498877
-0.516804
-0.556708
-0.783066
-0.766672
-0.786829
-0.922846
-1.01753
-1.10689
-1.18618
-1.14443
-1.10436
-1.06758
-1.01454
-0.943082
-0.855872
-0.756469
-0.64876
-0.53741
-0.427532
-0.324205
-0.231594
-0.151606
-0.0831796
-0.0242654
0.0469276
0.00797059
-0.0359594
-0.0872309
-0.148645
-0.22351
-0.315783
-0.429475
-0.565278
-0.719187
-0.853049
-0.948675
-1.31878
-1.33691
-1.05432
-0.959466
-1.13434
-1.1055
-1.05105
-0.846451
-0.678104
-0.696542
-0.645691
-0.600706
-0.540431
-0.482049
-0.490518
-0.522195
-0.574712
-0.69064
-0.796678
-0.899425
-0.958542
-0.959695
-0.9921
-1.00285
-0.987544
-0.947305
-0.889521
-0.816367
-0.731202
-0.637902
-0.540697
-0.444008
-0.35202
-0.268092
-0.194059
-0.129655
-0.0729411
-0.0222194
0.0629789
0.0217963
-0.0245447
-0.0785833
-0.143395
-0.222707
-0.321002
-0.442781
-0.589156
-0.752208
-0.899114
-1.0672
-1.40752
-1.41799
-1.25275
-1.05578
-1.22495
-1.17032
-1.10529
-0.877248
-0.745962
-0.718229
-0.648926
-0.589966
-0.546196
-0.478341
-0.43954
-0.458005
-0.498378
-0.702276
-0.779476
-0.79596
-0.778073
-0.817258
-0.839607
-0.839012
-0.817007
-0.776887
-0.722067
-0.656017
-0.582179
-0.504096
-0.42537
-0.349334
-0.278637
-0.214848
-0.158206
-0.107703
-0.0617751
-0.0194417
0.0808335
0.0376799
-0.0108357
-0.0673472
-0.135148
-0.218404
-0.322219
-0.451767
-0.609007
-0.782983
-0.949093
-1.19906
-1.49041
-1.50244
-1.3572
-1.17833
-1.29544
-1.23351
-1.00113
-0.896168
-0.811414
-0.724979
-0.634076
-0.564555
-0.503266
-0.461548
-0.365082
-0.36543
-0.468565
-0.579571
-0.6356
-0.61741
-0.589439
-0.621943
-0.634677
-0.629423
-0.608646
-0.575071
-0.531648
-0.481236
-0.426425
-0.369756
-0.313593
-0.259906
-0.210016
-0.164437
-0.122929
-0.0848098
-0.0493494
-0.0160115
0.100544
0.0557373
0.00534822
-0.0532544
-0.123538
-0.210131
-0.31883
-0.455586
-0.623055
-0.811101
-0.99313
-1.20645
-1.45275
-1.58205
-1.32727
-1.22083
-1.19815
-1.09374
-0.985437
-0.933058
-0.825125
-0.679027
-0.537898
-0.468565
-0.441698
-0.378629
-0.276576
-0.247326
-0.37576
-0.41955
-0.454825
-0.375649
-0.369233
-0.390217
-0.397923
-0.394435
-0.382032
-0.362646
-0.337916
-0.309238
-0.277763
-0.244631
-0.210994
-0.17791
-0.146151
-0.116074
-0.0877018
-0.0609919
-0.0359321
-0.0120883
0.12213
0.0760837
0.024222
-0.0359942
-0.108166
-0.197384
-0.310185
-0.453376
-0.630375
-0.832143
-1.03035
-1.19
-1.27904
-1.36301
-1.32471
-1.27632
-1.20706
-1.11733
-1.02938
-0.945442
-0.783025
-0.631183
-0.506976
-0.390193
-0.303851
-0.254426
-0.14772
-0.105288
-0.207423
-0.233878
-0.240288
-0.118309
-0.130874
-0.144049
-0.151984
-0.15651
-0.158735
-0.159023
-0.157172
-0.15254
-0.144635
-0.133436
-0.119484
-0.103682
-0.0869569
-0.0700089
-0.0532908
-0.0372394
-0.0222733
-0.00792955
0.145582
0.0988287
0.0460137
-0.0152431
-0.0886311
-0.17968
-0.295679
-0.444393
-0.630383
-0.845831
-1.06256
-1.24143
-1.47605
-1.40165
-1.40626
-1.36093
-1.28043
-1.1814
-1.05903
-0.909656
-0.757298
-0.61229
-0.466034
-0.325859
-0.197698
-0.0901451
-0.00678528
0.0517784
0.00257727
-0.0352403
-0.00897462
0.112457
0.107118
0.0962486
0.0823939
0.0646539
0.0436799
0.0212329
-0.000215213
-0.018154
-0.0308427
-0.0377797
-0.0396151
-0.0376444
-0.0332451
-0.0275049
-0.0211611
-0.0148843
-0.00930186
-0.00387554
0.170873
0.124065
0.070932
0.00929381
-0.0645773
-0.156585
-0.274745
-0.42786
-0.621889
-0.850783
-1.08751
-1.28406
-1.73678
-1.69991
-1.49578
-1.44844
-1.35646
-1.23546
-1.08914
-0.923578
-0.752278
-0.58569
-0.457886
-0.36632
-0.146052
0.0354263
0.139231
0.215814
0.229494
0.163737
0.203519
0.329648
0.327972
0.31368
0.289197
0.255143
0.214221
0.17045
0.128338
0.0917652
0.0629716
0.042232
0.0283357
0.0194359
0.0137637
0.0100092
0.0073422
0.00502981
0.00234021
-0.000156782
0.197972
0.151854
0.0991327
0.0378411
-0.0357243
-0.127739
-0.246849
-0.402911
-0.603389
-0.844587
-1.10015
-1.31681
-1.84078
-1.95257
-1.85358
-1.54467
-1.43236
-1.29141
-1.1254
-0.93659
-0.741413
-0.551361
-0.527723
-0.371639
-0.192518
0.139904
0.287314
0.37843
0.442118
0.352453
0.390756
0.506406
0.518198
0.495887
0.458171
0.40731
0.34805
0.286363
0.228162
0.177911
0.137647
0.107013
0.0841619
0.0668288
0.0530537
0.041482
0.0313027
0.021797
0.0121848
0.00303727
0.226856
0.182217
0.130693
0.0705227
-0.00190163
-0.0928895
-0.211559
-0.368742
-0.573475
-0.824841
-1.09829
-1.33947
-1.91487
-2.04661
-2.00725
-1.63644
-1.50798
-1.34788
-1.15915
-0.944884
-0.725803
-0.623711
-0.498552
-0.282821
-0.0878944
0.137675
0.422476
0.528663
0.599917
0.530697
0.538636
0.628056
0.668339
0.635803
0.584489
0.518653
0.44477
0.370079
0.301065
0.242032
0.194385
0.157078
0.127805
0.104124
0.0840747
0.0663655
0.0502538
0.0350655
0.0200018
0.0056146
0.257498
0.215122
0.165592
0.107342
0.0369321
-0.0519209
-0.168588
-0.324727
-0.530969
-0.789989
-1.07955
-1.41765
-1.99105
-2.1348
-1.83436
-1.70532
-1.57633
-1.39939
-1.18831
-0.947524
-0.714886
-0.65349
-0.42771
-0.196834
0.0112853
0.188309
0.480523
0.653819
0.720784
0.636581
0.654893
0.697163
0.772714
0.730324
0.667041
0.589899
0.506393
0.424165
0.349489
0.286008
0.234379
0.193038
0.159492
0.131343
0.10676
0.0845694
0.0641083
0.0447633
0.0257495
0.00757214
0.289848
0.250465
0.203702
0.148175
0.0806861
-0.00485111
-0.117797
-0.270369
-0.474698
-0.737816
-1.04098
-1.68541
-2.01924
-2.19186
-1.91251
-1.76916
-1.63645
-1.4443
-1.21213
-0.944584
-0.670871
-0.416884
-0.313862
-0.123548
0.0936291
0.276517
0.508696
0.740223
0.797672
0.709911
0.725986
0.722414
0.826668
0.778437
0.706834
0.623423
0.535904
0.451545
0.375855
0.311608
0.258823
0.215688
0.179777
0.148899
0.121433
0.096343
0.0730469
0.0510054
0.0294962
0.00893721
0.323799
0.28806
0.244791
0.192783
0.129148
0.0481758
-0.059186
-0.205303
-0.403484
-0.66498
-0.978553
-1.68971
-2.00284
-2.20459
-2.26578
-2.16708
-1.81656
-1.47982
-1.229
-0.93716
-0.63969
-0.360594
-0.0911077
0.0170535
0.155592
0.339037
0.480316
0.769169
0.853176
0.746184
0.749432
0.734338
0.825646
0.781871
0.707011
0.622925
0.536909
0.455303
0.382561
0.320604
0.269037
0.226062
0.189516
0.157521
0.128706
0.102187
0.0774573
0.0540613
0.0313834
0.00972775
0.359161
0.327628
0.288524
0.240823
0.182002
0.106895
0.00707523
-0.129458
-0.316669
-0.569083
-0.879063
-1.58048
-1.94213
-2.17363
-2.27151
-2.23701
-1.96021
-1.50613
-1.23709
-0.926378
-0.611792
-0.321066
-0.0468371
0.187747
0.203838
0.369279
0.501806
0.753526
0.853348
0.787191
0.732538
0.708324
0.788837
0.745923
0.672883
0.593323
0.513597
0.438768
0.372149
0.314945
0.266576
0.225469
0.189845
0.158195
0.129418
0.102791
0.0778856
0.0543257
0.0316217
0.00997126
0.395645
0.368802
0.334486
0.291873
0.238847
0.170933
0.0806319
-0.0431685
-0.214517
-0.450421
-0.756176
-1.15841
-1.59546
-2.01174
-2.2302
-2.22671
-1.84221
-1.50791
-1.23532
-0.915017
-0.592701
-0.29868
-0.0268254
0.211328
0.302329
0.364968
0.491269
0.739383
0.80501
0.78498
0.679032
0.658864
0.727675
0.677744
0.610828
0.540102
0.47043
0.405436
0.347335
0.296786
0.253223
0.215431
0.182086
0.152065
0.124538
0.0989499
0.0749539
0.0522508
0.0304712
0.00973427
0.432876
0.411139
0.382198
0.34545
0.299217
0.239824
0.160971
0.0528743
-0.0981705
-0.311139
-0.595322
-0.929851
-1.26683
-1.86742
-2.14222
-2.03334
-1.69024
-1.49275
-1.22525
-0.90797
-0.589943
-0.302641
-0.0413864
0.184408
0.363351
0.400492
0.530473
0.671823
0.716362
0.717846
0.621063
0.637915
0.636651
0.585158
0.527577
0.468831
0.411889
0.358857
0.310942
0.268431
0.230912
0.197606
0.167659
0.140337
0.115081
0.0914873
0.0693003
0.0482938
0.0282113
0.00911794
0.470417
0.454151
0.431141
0.401035
0.362609
0.313058
0.247477
0.157748
0.030741
-0.154364
-0.412217
-0.737848
-1.32547
-1.79357
-2.01151
-2.01946
-1.66912
-1.46401
-1.2135
-0.914027
-0.612586
-0.340424
-0.0970046
0.111325
0.282766
0.413714
0.503762
0.557363
0.59233
0.597906
0.582381
0.555334
0.517456
0.474602
0.429074
0.384598
0.342185
0.302465
0.265786
0.232229
0.201641
0.173707
0.148039
0.124265
0.102076
0.0812311
0.0615552
0.0428964
0.025113
0.00822707
0.507809
0.497342
0.480792
0.458096
0.428496
0.390096
0.339504
0.270448
0.170541
0.017095
-0.211699
-0.527718
-1.11252
-1.59081
-1.84175
-1.95368
-1.66707
-1.42358
-1.20573
-0.974727
-0.852071
-0.545876
-0.209909
-0.0111882
0.145994
0.268247
0.353872
0.407688
0.437913
0.44654
0.436501
0.412772
0.381865
0.350834
0.320154
0.291789
0.265107
0.23945
0.214546
0.190448
0.167347
0.145394
0.124634
0.105033
0.0865099
0.0689695
0.052318
0.0364796
0.0214362
0.00716461
0.544652
0.54025
0.530653
0.516116
0.496357
0.470404
0.436411
0.389969
0.31944
0.200219
0.00405783
-0.30331
-0.662504
-1.10451
-1.57392
-1.69629
-1.53156
-1.37667
-1.20706
-1.05672
-1.02694
-0.831759
-0.423496
-0.185469
-0.0374521
0.0804829
0.166011
0.223718
0.258298
0.272756
0.270125
0.255507
0.236011
0.219432
0.205623
0.194621
0.184233
0.172807
0.159728
0.1452
0.129811
0.114166
0.0987041
0.0836825
0.0692284
0.0553745
0.0420977
0.0294
0.0173991
0.00601012
0.580618
0.582492
0.580288
0.574617
0.565694
0.553462
0.537563
0.515234
0.475192
0.390404
0.223416
-0.0407794
-0.374937
-0.740473
-1.07746
-1.29201
-1.37734
-1.33686
-1.22718
-1.07289
-1.17022
-1.07502
-0.720711
-0.406488
-0.260399
-0.140469
-0.0491678
0.0168882
0.0611198
0.0854175
0.0930127
0.0909342
0.0864403
0.0859884
0.0904261
0.0972374
0.102958
0.105304
0.103602
0.098353
0.0905787
0.0813006
0.0712934
0.0610627
0.0509075
0.0409686
0.0312814
0.0219227
0.0131449
0.00479004
0.615498
0.623789
0.629344
0.63319
0.636058
0.638776
0.642305
0.645077
0.635375
0.582988
0.445251
0.203141
-0.135145
-0.555117
-1.03613
-1.30829
-1.34463
-1.32126
-1.27883
-1.17921
-1.27856
-1.29838
-1.07681
-0.671267
-0.507496
-0.38052
-0.278879
-0.200659
-0.143782
-0.106621
-0.0873959
-0.0745676
-0.0620406
-0.0441163
-0.0209173
0.00332333
0.0242349
0.0393015
0.0480633
0.051442
0.0508975
0.047812
0.0432285
0.0378418
0.0320808
0.0261676
0.0201827
0.0142651
0.00877914
0.00350933
0.649205
0.663976
0.677576
0.691512
0.707056
0.725875
0.749961
0.778245
0.797541
0.773651
0.660611
0.428674
0.0794319
-0.478501
-0.880522
-1.18809
-1.32466
-1.33828
-1.36984
-1.33593
-1.57686
-1.53856
-1.36965
-0.934707
-0.758849
-0.623084
-0.509496
-0.417788
-0.347257
-0.297112
-0.262431
-0.234037
-0.203331
-0.166175
-0.124605
-0.0841492
-0.0496245
-0.0233834
-0.00542737
0.00566725
0.011766
0.0145343
0.0152032
0.0145917
0.0132109
0.0113342
0.0090732
0.00661611
0.00440701
0.00219876
0.681753
0.702989
0.724845
0.749343
0.778353
0.814291
0.859755
0.913275
0.95895
0.957978
0.8596
0.630498
0.153425
-0.319155
-0.749101
-0.995475
-1.20833
-1.39173
-1.62816
-1.92442
-1.86299
-1.78273
-1.49515
-1.16007
-0.998035
-0.853883
-0.728809
-0.624085
-0.548264
-0.480167
-0.427616
-0.382154
-0.332545
-0.276416
-0.217776
-0.163071
-0.117054
-0.0815331
-0.0558616
-0.0380953
-0.0260397
-0.0178467
-0.0121863
-0.0081823
-0.00528788
-0.00320812
-0.0018119
-0.000866141
0.000134459
0.000917575
0.71323
0.740865
0.77109
0.806509
0.849639
0.903493
0.97073
1.04813
1.11605
1.13027
1.0369
0.76313
0.24127
-0.187052
-0.519216
-0.901154
-1.22129
-1.6814
-2.14327
-2.20532
-2.04393
-1.72244
-1.53196
-1.36978
-1.21161
-1.06206
-0.927781
-0.813827
-0.730955
-0.654633
-0.577749
-0.514443
-0.446029
-0.372177
-0.298651
-0.232292
-0.177275
-0.134541
-0.102693
-0.0793227
-0.0620214
-0.0488735
-0.0385391
-0.0301459
-0.0231509
-0.0172625
-0.012339
-0.00809731
-0.0039739
-0.000287975
0.743739
0.777668
0.816281
0.86288
0.920556
0.992733
1.0815
1.18004
1.26439
1.28413
1.18503
0.761215
0.350069
-0.0388116
-0.460449
-0.894596
-1.50238
-2.07256
-2.29392
-2.36029
-1.95007
-1.7886
-1.68821
-1.55251
-1.39583
-1.24219
-1.10153
-0.990508
-0.887955
-0.800923
-0.708758
-0.627596
-0.541378
-0.452022
-0.366574
-0.291606
-0.230243
-0.182346
-0.145786
-0.117814
-0.0959494
-0.0783223
-0.0636619
-0.0511494
-0.040274
-0.0307632
-0.0224709
-0.0150575
-0.00790586
-0.00141297
0.773348
0.813431
0.860407
0.918274
0.990615
1.08085
1.18959
1.30564
1.39891
1.41348
1.19856
0.827783
0.399798
0.0458163
-0.464113
-1.11588
-1.81663
-2.18748
-2.42593
-2.32286
-2.01738
-1.94372
-1.84416
-1.70753
-1.54888
-1.39208
-1.2489
-1.13203
-1.02135
-0.922539
-0.816954
-0.719556
-0.617513
-0.515759
-0.421953
-0.34163
-0.276514
-0.225332
-0.185354
-0.153666
-0.12786
-0.10621
-0.0875749
-0.0712245
-0.0566982
-0.0437515
-0.0322384
-0.0217674
-0.0116875
-0.00248863
0.802051
0.848121
0.90336
0.972374
1.05905
1.16611
1.29189
1.41975
1.51425
1.50577
1.17791
0.860198
0.471773
0.0326435
-0.52506
-1.08212
-1.88177
-2.30056
-2.54053
-2.2614
-2.13519
-2.07312
-1.97298
-1.83208
-1.73129
-1.51221
-1.36561
-1.2455
-1.13011
-1.01193
-0.901437
-0.789312
-0.674551
-0.564355
-0.466048
-0.383555
-0.317014
-0.264138
-0.221812
-0.187154
-0.157955
-0.132703
-0.110428
-0.0905108
-0.072552
-0.0563411
-0.0417358
-0.0283051
-0.0153942
-0.0035727
0.829741
0.881606
0.944871
1.02458
1.12461
1.24635
1.3847
1.51757
1.60232
1.41152
1.20438
0.862075
0.509352
-0.0305081
-0.596666
-1.11268
-1.57392
-2.09376
-2.32795
-2.26029
-2.23194
-2.17155
-2.06621
-2.00637
-1.90661
-1.6718
-1.4554
-1.32304
-1.20447
-1.08226
-0.961772
-0.837229
-0.71385
-0.599677
-0.500702
-0.418878
-0.352816
-0.299484
-0.255644
-0.218622
-0.186503
-0.158037
-0.132443
-0.109222
-0.0880469
-0.0687416
-0.0511615
-0.034846
-0.0191674
-0.00473896
0.856186
0.913596
0.984442
1.07393
1.18543
1.31851
1.46379
1.5934
1.56465
1.41237
1.18266
0.9275
0.465771
-0.107361
-0.69086
-1.23403
-1.67841
-2.33202
-2.28319
-2.32177
-2.30196
-2.2382
-2.13402
-2.13195
-1.97088
-1.80929
-1.52099
-1.38469
-1.25731
-1.12995
-0.998181
-0.864967
-0.73781
-0.624205
-0.528004
-0.449123
-0.384949
-0.332061
-0.287357
-0.248496
-0.213906
-0.182608
-0.154011
-0.127734
-0.103525
-0.0812463
-0.0607462
-0.0415422
-0.0230665
-0.00595885
0.881021
0.943606
1.02126
1.11895
1.23903
1.37893
1.52497
1.64396
1.49759
1.39848
1.21773
0.900401
0.385912
-0.194274
-0.795314
-1.35571
-1.90194
-2.65199
-2.38022
-2.37394
-2.34575
-2.27337
-2.291
-2.1632
-2.00471
-1.80418
-1.55756
-1.42286
-1.29164
-1.15232
-1.0124
-0.875399
-0.749575
-0.640665
-0.549966
-0.475638
-0.414302
-0.362516
-0.317512
-0.277353
-0.240807
-0.207141
-0.175922
-0.146861
-0.119762
-0.0945314
-0.0710256
-0.0487641
-0.0272814
-0.00727543
0.903751
0.970938
1.05418
1.1577
1.28259
1.42423
1.55853
1.50686
1.48857
1.3621
1.22493
0.820162
0.309965
-0.273826
-0.888101
-1.4921
-2.44095
-2.75459
-2.419
-2.39999
-2.36303
-2.38314
-2.3086
-2.1663
-2.0134
-1.72042
-1.57192
-1.43571
-1.30042
-1.15106
-1.00744
-0.872156
-0.752512
-0.65158
-0.568287
-0.499509