/*--------------------------------*- C++ -*----------------------------------*\
  =========                 |
  \\      /  F ield         | OpenFOAM: The Open Source CFD Toolbox
   \\    /   O peration     | Website:  https://openfoam.org
    \\  /    A nd           | Version:  9
     \\/     M anipulation  |
\*---------------------------------------------------------------------------*/
FoamFile
{
    format      ascii;
    class       surfaceVectorField;
    location    "0.18";
    object      Uf;
}
// * * * * * * * * * * * * * * * * * * * * * * * * * * * * * * * * * * * * * //

dimensions      [0 1 -1 0 0 0 0];

internalField   nonuniform List<vector> 
9850
(
(-0.271058 0 0.921667)
(-0.282486 0 0.978757)
(-0.256739 0 0.807661)
(-0.256259 0 0.848561)
(-0.256766 0 0.751018)
(-0.244714 0 0.758959)
(-0.26824 0 0.775799)
(-0.248001 0 0.743836)
(-0.283884 0 0.883987)
(-0.258897 0 0.813215)
(-0.296624 0 1.06376)
(-0.26943 0 0.959891)
(-0.302099 0 1.30071)
(-0.273478 0 1.16856)
(-0.29313 0 1.55249)
(-0.268832 0 1.42534)
(-0.235725 0 1.61974)
(-0.243476 0 1.6496)
(-0.0749802 0 1.10984)
(-0.145792 0 1.51086)
(0.147972 0 -0.086957)
(0.0855459 0 0.579516)
(0.207433 0 -1.41436)
(0.300052 0 -0.846116)
(0.0747311 0 -2.2702)
(0.147119 0 -1.94683)
(-0.0132849 0 -2.62357)
(0.0395905 0 -2.50293)
(-0.0530397 0 -2.71592)
(-0.0287813 0 -2.6919)
(-0.0623723 0 -2.71569)
(-0.0557809 0 -2.72025)
(-0.0643733 0 -2.71127)
(-0.0567457 0 -2.70785)
(-0.0681158 0 -2.73101)
(-0.0563303 0 -2.7138)
(-0.0724987 0 -2.76838)
(-0.060808 0 -2.74526)
(-0.0725924 0 -2.80723)
(-0.0662405 0 -2.78805)
(-0.066032 0 -2.82742)
(-0.0674381 0 -2.8226)
(-0.0528347 0 -2.8274)
(-0.0618022 0 -2.83674)
(-0.0354385 0 -2.80808)
(-0.049722 0 -2.82874)
(-0.0181709 0 -2.77665)
(-0.0340518 0 -2.80211)
(-0.00569419 0 -2.74238)
(-0.0192708 0 -2.76582)
(-0.00135091 0 -2.71105)
(-0.00969507 0 -2.7291)
(-0.00539047 0 -2.67868)
(-0.00796703 0 -2.69594)
(-0.0129201 0 -2.62356)
(-0.013546 0 -2.65823)
(-0.0148412 0 -2.50452)
(-0.0204851 0 -2.58521)
(-0.00786042 0 -2.26803)
(-0.0208035 0 -2.42558)
(0.010376 0 -1.71466)
(-0.0167912 0 -2.12421)
(0.0680785 0 -0.828308)
(-0.00263301 0 -1.34632)
(0.172789 0 -0.0232848)
(0.0549389 0 -0.418477)
(0.296706 0 0.543877)
(0.159722 0 0.199836)
(0.418719 0 0.953504)
(0.290332 0 0.691796)
(0.51575 0 1.18148)
(0.407617 0 1.02655)
(0.580059 0 1.24828)
(0.493581 0 1.18533)
(0.617175 0 1.21279)
(0.548633 0 1.20763)
(0.637017 0 1.13248)
(0.580573 0 1.15429)
(0.647664 0 1.04316)
(0.598507 0 1.07342)
(0.653657 0 0.95966)
(0.609054 0 0.990706)
(0.656839 0 0.884555)
(0.615593 0 0.914916)
(0.657739 0 0.815907)
(0.619371 0 0.8464)
(0.656517 0 0.75134)
(0.620746 0 0.782991)
(0.653362 0 0.689321)
(0.619889 0 0.722691)
(0.648551 0 0.629269)
(0.61703 0 0.664336)
(0.642346 0 0.57219)
(0.612418 0 0.607765)
(0.634803 0 0.518311)
(0.606075 0 0.555283)
(0.627016 0 0.416534)
(0.599107 0 0.503297)
(0.592168 0 0.34808)
(-0.267491 0 0.905705)
(-0.283199 0 0.956029)
(-0.244428 0 0.799985)
(-0.248122 0 0.833186)
(-0.236667 0 0.752056)
(-0.22939 0 0.753785)
(-0.239815 0 0.781689)
(-0.225352 0 0.745934)
(-0.245906 0 0.88969)
(-0.227967 0 0.817275)
(-0.247942 0 1.06545)
(-0.229235 0 0.961249)
(-0.241825 0 1.29428)
(-0.22382 0 1.16448)
(-0.219473 0 1.52397)
(-0.210105 0 1.41044)
(-0.147509 0 1.54265)
(-0.174651 0 1.60162)
(0.0142113 0 0.985518)
(-0.0702366 0 1.40305)
(0.209471 0 -0.169968)
(0.14677 0 0.449343)
(0.271125 0 -1.3706)
(0.31438 0 -0.887219)
(0.129554 0 -2.17612)
(0.204396 0 -1.85245)
(0.0232632 0 -2.57101)
(0.0861099 0 -2.43207)
(-0.0349925 0 -2.69743)
(0.00265823 0 -2.65306)
(-0.0489536 0 -2.71268)
(-0.0376294 0 -2.71094)
(-0.0479551 0 -2.71045)
(-0.0406765 0 -2.70852)
(-0.0487853 0 -2.72813)
(-0.0367686 0 -2.71325)
(-0.0548059 0 -2.76503)
(-0.0395391 0 -2.74125)
(-0.0616333 0 -2.80703)
(-0.0481715 0 -2.7835)
(-0.0632578 0 -2.83238)
(-0.0563739 0 -2.82128)
(-0.0583907 0 -2.83799)
(-0.059228 0 -2.8409)
(-0.0477365 0 -2.82224)
(-0.0555852 0 -2.83831)
(-0.0345518 0 -2.79056)
(-0.0468521 0 -2.81453)
(-0.022985 0 -2.75183)
(-0.0365075 0 -2.77725)
(-0.0164006 0 -2.71335)
(-0.0281319 0 -2.73593)
(-0.0160979 0 -2.67483)
(-0.0242897 0 -2.69627)
(-0.0207626 0 -2.61864)
(-0.0263022 0 -2.65292)
(-0.0273156 0 -2.50245)
(-0.032698 0 -2.57738)
(-0.0331413 0 -2.27395)
(-0.0409616 0 -2.41827)
(-0.0158429 0 -1.7353)
(-0.0563103 0 -2.14698)
(-0.0267253 0 -0.910776)
(-0.0869705 0 -1.3313)
(0.0483264 0 -0.177786)
(-0.0837712 0 -0.527147)
(0.158782 0 0.361135)
(0.0220086 0 0.0320724)
(0.279424 0 0.774118)
(0.153534 0 0.499591)
(0.385111 0 1.03521)
(0.278501 0 0.849929)
(0.462716 0 1.146)
(0.378182 0 1.04928)
(0.512751 0 1.14851)
(0.447275 0 1.11563)
(0.542663 0 1.09386)
(0.490614 0 1.09659)
(0.560384 0 1.01947)
(0.516666 0 1.03757)
(0.571359 0 0.944567)
(0.53271 0 0.967412)
(0.578376 0 0.875472)
(0.543149 0 0.899294)
(0.582532 0 0.812255)
(0.55003 0 0.836693)
(0.5842 0 0.753152)
(0.554129 0 0.778906)
(0.583576 0 0.696583)
(0.555747 0 0.724294)
(0.580872 0 0.641877)
(0.555122 0 0.671625)
(0.576245 0 0.590294)
(0.552479 0 0.620849)
(0.569708 0 0.540263)
(0.547808 0 0.574671)
(0.562566 0 0.433263)
(0.542367 0 0.525518)
(0.538919 0 0.351154)
(-0.263617 0 0.883661)
(-0.282648 0 0.927028)
(-0.233231 0 0.787181)
(-0.240436 0 0.812928)
(-0.218666 0 0.747926)
(-0.215662 0 0.744075)
(-0.214369 0 0.781854)
(-0.205082 0 0.743069)
(-0.212283 0 0.889274)
(-0.200401 0 0.815885)
(-0.206178 0 1.06095)
(-0.194209 0 0.957178)
(-0.192733 0 1.28166)
(-0.182316 0 1.15552)
(-0.164142 0 1.48979)
(-0.164241 0 1.39138)
(-0.0900165 0 1.46463)
(-0.126025 0 1.55221)
(0.0612442 0 0.870149)
(-0.0245376 0 1.30221)
(0.216592 0 -0.259614)
(0.15732 0 0.345777)
(0.274895 0 -1.36595)
(0.313152 0 -0.926088)
(0.18219 0 -2.11209)
(0.284308 0 -1.79065)
(0.0692521 0 -2.51461)
(0.145921 0 -2.35678)
(-0.00321126 0 -2.66646)
(0.0472973 0 -2.60476)
(-0.0282634 0 -2.70631)
(-0.00643786 0 -2.69424)
(-0.0287328 0 -2.71116)
(-0.0180434 0 -2.7082)
(-0.0272604 0 -2.72633)
(-0.0151366 0 -2.71423)
(-0.0329861 0 -2.7597)
(-0.0163836 0 -2.73743)
(-0.0441147 0 -2.80158)
(-0.026 0 -2.77608)
(-0.0527219 0 -2.83031)
(-0.0389001 0 -2.81426)
(-0.0564368 0 -2.84121)
(-0.0491225 0 -2.83773)
(-0.0543218 0 -2.83011)
(-0.0542103 0 -2.8402)
(-0.0482752 0 -2.80047)
(-0.0540553 0 -2.82022)
(-0.0413146 0 -2.76053)
(-0.0509916 0 -2.78412)
(-0.0359659 0 -2.71802)
(-0.0475407 0 -2.74147)
(-0.034095 0 -2.67326)
(-0.0453566 0 -2.69831)
(-0.0375279 0 -2.6092)
(-0.0458783 0 -2.649)
(-0.0490556 0 -2.48819)
(-0.0507042 0 -2.56359)
(-0.0736514 0 -2.28321)
(-0.0683515 0 -2.38741)
(-0.111975 0 -1.72765)
(-0.118017 0 -2.09655)
(-0.161873 0 -0.937418)
(-0.239888 0 -1.26242)
(-0.0984132 0 -0.309346)
(-0.244453 0 -0.619031)
(0.0204466 0 0.179517)
(-0.11825 0 -0.148455)
(0.153531 0 0.582999)
(0.0292615 0 0.287562)
(0.272611 0 0.868892)
(0.168198 0 0.650923)
(0.363885 0 1.02094)
(0.282017 0 0.889276)
(0.426054 0 1.06376)
(0.364018 0 1.00131)
(0.4653 0 1.03936)
(0.417771 0 1.02089)
(0.489522 0 0.984237)
(0.451352 0 0.988556)
(0.5049 0 0.920847)
(0.472451 0 0.934775)
(0.515087 0 0.859275)
(0.486284 0 0.876613)
(0.521815 0 0.802126)
(0.495665 0 0.82098)
(0.525787 0 0.748782)
(0.50186 0 0.769177)
(0.527328 0 0.697933)
(0.505388 0 0.720332)
(0.526703 0 0.648943)
(0.506552 0 0.673312)
(0.524119 0 0.603188)
(0.505579 0 0.628154)
(0.519787 0 0.557001)
(0.502477 0 0.587519)
(0.515448 0 0.436166)
(0.498364 0 0.539017)
(0.496848 0 0.340394)
(-0.259249 0 0.856476)
(-0.28065 0 0.893006)
(-0.222952 0 0.770016)
(-0.233058 0 0.78873)
(-0.20252 0 0.739423)
(-0.203309 0 0.730454)
(-0.191724 0 0.777371)
(-0.186944 0 0.735871)
(-0.18292 0 0.884213)
(-0.175948 0 0.810016)
(-0.17095 0 1.05238)
(-0.163912 0 0.949198)
(-0.153593 0 1.2661)
(-0.147806 0 1.14395)
(-0.12373 0 1.45512)
(-0.128401 0 1.37147)
(-0.0552974 0 1.39204)
(-0.0928409 0 1.50658)
(0.0779209 0 0.776429)
(-0.000217528 0 1.21339)
(0.220334 0 -0.32305)
(0.138239 0 0.250835)
(0.312463 0 -1.33961)
(0.301176 0 -0.987507)
(0.280136 0 -2.02076)
(0.34765 0 -1.7691)
(0.132822 0 -2.44163)
(0.208492 0 -2.25857)
(0.0414098 0 -2.63146)
(0.104835 0 -2.54381)
(0.00393903 0 -2.69649)
(0.0433123 0 -2.66926)
(-0.00396653 0 -2.71128)
(0.0169602 0 -2.70293)
(-0.00401889 0 -2.72533)
(0.0110354 0 -2.7142)
(-0.00931488 0 -2.75378)
(0.00800869 0 -2.7339)
(-0.0223736 0 -2.79255)
(-0.00170433 0 -2.76737)
(-0.0359298 0 -2.82217)
(-0.0169743 0 -2.8032)
(-0.0472205 0 -2.8367)
(-0.0327198 0 -2.82806)
(-0.0538788 0 -2.82975)
(-0.0455721 0 -2.83423)
(-0.0564505 0 -2.80292)
(-0.0536503 0 -2.8178)
(-0.0569261 0 -2.76397)
(-0.0582569 0 -2.78365)
(-0.056555 0 -2.72072)
(-0.0615657 0 -2.74185)
(-0.0563208 0 -2.67276)
(-0.0641043 0 -2.69856)
(-0.0596436 0 -2.60088)
(-0.065713 0 -2.64521)
(-0.0738676 0 -2.45813)
(-0.0710101 0 -2.54658)
(-0.118602 0 -2.1973)
(-0.102233 0 -2.33129)
(-0.254978 0 -1.62012)
(-0.206426 0 -1.91709)
(-0.32435 0 -0.938471)
(-0.369127 0 -1.16667)
(-0.246637 0 -0.453157)
(-0.347287 0 -0.731554)
(-0.104695 0 -0.0318849)
(-0.214011 0 -0.364038)
(0.0463681 0 0.363993)
(-0.0594257 0 0.0468886)
(0.180096 0 0.67737)
(0.0869713 0 0.427437)
(0.284003 0 0.872926)
(0.209325 0 0.707124)
(0.356958 0 0.959538)
(0.30043 0 0.867151)
(0.404648 0 0.969889)
(0.362434 0 0.928905)
(0.434868 0 0.938302)
(0.4025 0 0.92741)
(0.454256 0 0.88956)
(0.428155 0 0.893626)
(0.467158 0 0.837315)
(0.445017 0 0.847889)
(0.475905 0 0.787043)
(0.456482 0 0.800551)
(0.48157 0 0.739742)
(0.464279 0 0.755301)
(0.484635 0 0.694721)
(0.469187 0 0.712456)
(0.485378 0 0.651566)
(0.471596 0 0.671307)
(0.483959 0 0.611708)
(0.471724 0 0.632168)
(0.480574 0 0.568802)
(0.469586 0 0.597556)
(0.476965 0 0.439451)
(0.466019 0 0.550246)
(0.463799 0 0.33887)
(-0.254251 0 0.825417)
(-0.277149 0 0.85534)
(-0.213432 0 0.749352)
(-0.225858 0 0.761517)
(-0.188022 0 0.72713)
(-0.192063 0 0.713514)
(-0.171586 0 0.768823)
(-0.170598 0 0.724914)
(-0.157236 0 0.875415)
(-0.154115 0 0.800449)
(-0.141014 0 1.0413)
(-0.137387 0 0.938384)
(-0.121943 0 1.24997)
(-0.118432 0 1.13124)
(-0.093773 0 1.42356)
(-0.0988339 0 1.35269)
(-0.0350368 0 1.32917)
(-0.0687869 0 1.46743)
(0.0708014 0 0.692586)
(0.00829042 0 1.14283)
(0.194256 0 -0.404304)
(0.108346 0 0.168532)
(0.301913 0 -1.392)
(0.248298 0 -1.05928)
(0.316214 0 -1.98695)
(0.324988 0 -1.77863)
(0.187674 0 -2.36189)
(0.237069 0 -2.17288)
(0.108227 0 -2.58415)
(0.161366 0 -2.49085)
(0.0545497 0 -2.67699)
(0.106612 0 -2.63347)
(0.031836 0 -2.70615)
(0.0672542 0 -2.68779)
(0.023397 0 -2.72269)
(0.0456219 0 -2.70857)
(0.0158692 0 -2.7474)
(0.0353019 0 -2.72888)
(0.00198338 0 -2.78152)
(0.024373 0 -2.75811)
(-0.0145235 0 -2.80954)
(0.00812226 0 -2.78973)
(-0.0316471 0 -2.82553)
(-0.011312 0 -2.81341)
(-0.045651 0 -2.8216)
(-0.0302732 0 -2.82166)
(-0.0554722 0 -2.79732)
(-0.0446635 0 -2.80855)
(-0.0627148 0 -2.76)
(-0.05451 0 -2.7765)
(-0.068518 0 -2.71799)
(-0.0626943 0 -2.73584)
(-0.0726293 0 -2.66908)
(-0.070229 0 -2.69409)
(-0.0793827 0 -2.58917)
(-0.0768079 0 -2.63751)
(-0.102106 0 -2.41684)
(-0.0925026 0 -2.5194)
(-0.186057 0 -2.04309)
(-0.14257 0 -2.22598)
(-0.349761 0 -1.43934)
(-0.297739 0 -1.70167)
(-0.385993 0 -0.938954)
(-0.378967 0 -1.11665)
(-0.299515 0 -0.626563)
(-0.322376 0 -0.856769)
(-0.162991 0 -0.270032)
(-0.215119 0 -0.571393)
(-0.0151902 0 0.123106)
(-0.0848567 0 -0.188587)
(0.119541 0 0.466543)
(0.0478824 0 0.202274)
(0.228127 0 0.706938)
(0.16596 0 0.51677)
(0.307388 0 0.83922)
(0.258878 0 0.721401)
(0.361242 0 0.887279)
(0.325336 0 0.825025)
(0.396431 0 0.882599)
(0.370126 0 0.856211)
(0.419355 0 0.851388)
(0.399605 0 0.84497)
(0.434645 0 0.810415)
(0.419165 0 0.813849)
(0.445062 0 0.768075)
(0.432453 0 0.776225)
(0.452023 0 0.727292)
(0.441552 0 0.738248)
(0.456203 0 0.688344)
(0.44751 0 0.701716)
(0.457937 0 0.651278)
(0.450849 0 0.666631)
(0.457391 0 0.617549)
(0.451837 0 0.633713)
(0.454837 0 0.578298)
(0.450564 0 0.605131)
(0.451832 0 0.445029)
(0.447662 0 0.559594)
(0.445167 0 0.34112)
(-0.248567 0 0.791588)
(-0.272235 0 0.81536)
(-0.204455 0 0.725863)
(-0.218688 0 0.732109)
(-0.174805 0 0.711529)
(-0.181583 0 0.693747)
(-0.153404 0 0.756818)
(-0.155565 0 0.710647)
(-0.134354 0 0.863738)
(-0.134221 0 0.787749)
(-0.114787 0 1.02869)
(-0.11349 0 0.925339)
(-0.0946916 0 1.2344)
(-0.0921634 0 1.11784)
(-0.0692123 0 1.39693)
(-0.0718097 0 1.33571)
(-0.0226769 0 1.2813)
(-0.0465392 0 1.4364)
(0.0516381 0 0.621513)
(0.0118846 0 1.09329)
(0.148566 0 -0.487438)
(0.0829708 0 0.103914)
(0.238087 0 -1.46659)
(0.18179 0 -1.11896)
(0.281917 0 -1.99553)
(0.246212 0 -1.80785)
(0.208236 0 -2.31389)
(0.205305 0 -2.12376)
(0.166086 0 -2.53789)
(0.193092 0 -2.46275)
(0.118233 0 -2.64359)
(0.164436 0 -2.60157)
(0.0798212 0 -2.68988)
(0.12483 0 -2.66218)
(0.0578824 0 -2.71463)
(0.0889021 0 -2.69395)
(0.0442293 0 -2.73942)
(0.0679135 0 -2.71978)
(0.0288017 0 -2.76933)
(0.0535836 0 -2.74783)
(0.0105445 0 -2.79398)
(0.0364018 0 -2.77483)
(-0.0106732 0 -2.80952)
(0.0145511 0 -2.79525)
(-0.0299812 0 -2.80812)
(-0.0088252 0 -2.80432)
(-0.0440978 0 -2.78691)
(-0.0274716 0 -2.79526)
(-0.0543598 0 -2.75137)
(-0.039984 0 -2.76636)
(-0.0637948 0 -2.71076)
(-0.0502369 0 -2.72606)
(-0.074215 0 -2.66097)
(-0.061463 0 -2.68277)
(-0.0913531 0 -2.56058)
(-0.0768314 0 -2.61798)
(-0.13004 0 -2.314)
(-0.108705 0 -2.47314)
(-0.257155 0 -1.85708)
(-0.206621 0 -2.06652)
(-0.347211 0 -1.34371)
(-0.308829 0 -1.58317)
(-0.305906 0 -1.01117)
(-0.285859 0 -1.17367)
(-0.230244 0 -0.783484)
(-0.21105 0 -0.96632)
(-0.133052 0 -0.474287)
(-0.142765 0 -0.719011)
(-0.0183775 0 -0.0959638)
(-0.0553819 0 -0.371285)
(0.0976726 0 0.26288)
(0.0476989 0 0.00833088)
(0.199221 0 0.538084)
(0.150414 0 0.338751)
(0.278438 0 0.711023)
(0.238362 0 0.575733)
(0.335277 0 0.795654)
(0.305666 0 0.715387)
(0.374005 0 0.819012)
(0.35352 0 0.77785)
(0.399882 0 0.807219)
(0.386183 0 0.790049)
(0.417286 0 0.779181)
(0.408219 0 0.775102)
(0.429154 0 0.745841)
(0.423207 0 0.748508)
(0.437176 0 0.712104)
(0.433465 0 0.718596)
(0.442231 0 0.679438)
(0.440298 0 0.688726)
(0.444766 0 0.648521)
(0.444393 0 0.659798)
(0.445015 0 0.620818)
(0.44611 0 0.63301)
(0.443293 0 0.585502)
(0.445635 0 0.610239)
(0.440737 0 0.450568)
(0.443287 0 0.567544)
(0.440374 0 0.34547)
(-0.242186 0 0.756004)
(-0.266049 0 0.774244)
(-0.195752 0 0.700142)
(-0.211372 0 0.701153)
(-0.162419 0 0.693049)
(-0.171495 0 0.671526)
(-0.136559 0 0.741795)
(-0.141345 0 0.693407)
(-0.113334 0 0.849588)
(-0.115592 0 0.772266)
(-0.0906676 0 1.01471)
(-0.0911434 0 0.910228)
(-0.0689687 0 1.21931)
(-0.0672023 0 1.10337)
(-0.0447568 0 1.37519)
(-0.0443771 0 1.31957)
(-0.00846448 0 1.2474)
(-0.0202784 0 1.41221)
(0.0414723 0 0.572464)
(0.02385 0 1.06)
(0.108422 0 -0.53927)
(0.077296 0 0.0592808)
(0.167363 0 -1.49155)
(0.125174 0 -1.15825)
(0.209499 0 -1.94595)
(0.143857 0 -1.83595)
(0.168728 0 -2.24342)
(0.160424 0 -2.09658)
(0.201503 0 -2.50524)
(0.200519 0 -2.4846)
(0.171887 0 -2.61625)
(0.19885 0 -2.58183)
(0.132063 0 -2.66685)
(0.173788 0 -2.63563)
(0.0991328 0 -2.69985)
(0.134925 0 -2.67199)
(0.0778033 0 -2.72858)
(0.105752 0 -2.70556)
(0.0594738 0 -2.75607)
(0.0871733 0 -2.73561)
(0.0396581 0 -2.77645)
(0.0686424 0 -2.75867)
(0.0156032 0 -2.79011)
(0.045206 0 -2.77466)
(-0.00730014 0 -2.79133)
(0.0189763 0 -2.78376)
(-0.0242317 0 -2.77464)
(-0.00256919 0 -2.77932)
(-0.0358039 0 -2.74087)
(-0.0182174 0 -2.75493)
(-0.0470305 0 -2.69736)
(-0.0336339 0 -2.71443)
(-0.0634578 0 -2.63702)
(-0.0490753 0 -2.66491)
(-0.0916218 0 -2.52261)
(-0.0678664 0 -2.58587)
(-0.186872 0 -2.20508)
(-0.136823 0 -2.35923)
(-0.27189 0 -1.77334)
(-0.246367 0 -1.95986)
(-0.246028 0 -1.39861)
(-0.256134 0 -1.6172)
(-0.179656 0 -1.1169)
(-0.189895 0 -1.26528)
(-0.123226 0 -0.892444)
(-0.115349 0 -1.04803)
(-0.0642346 0 -0.60654)
(-0.068346 0 -0.808609)
(0.0128557 0 -0.25746)
(-0.0108324 0 -0.494105)
(0.103226 0 0.0923817)
(0.0665684 0 -0.142697)
(0.191887 0 0.382443)
(0.153042 0 0.183326)
(0.26728 0 0.583865)
(0.23416 0 0.437097)
(0.325106 0 0.699482)
(0.300999 0 0.603846)
(0.36651 0 0.749533)
(0.351292 0 0.694076)
(0.395047 0 0.757875)
(0.386963 0 0.72948)
(0.414481 0 0.744042)
(0.411489 0 0.731836)
(0.42774 0 0.720746)
(0.428209 0 0.717542)
(0.436729 0 0.694654)
(0.439603 0 0.696575)
(0.442541 0 0.668502)
(0.44724 0 0.673792)
(0.445761 0 0.643714)
(0.45201 0 0.651117)
(0.446712 0 0.621918)
(0.454412 0 0.630324)
(0.445675 0 0.591265)
(0.454716 0 0.613313)
(0.443232 0 0.457136)
(0.452855 0 0.575144)
(0.449447 0 0.352714)
(-0.235084 0 0.719491)
(-0.258716 0 0.732933)
(-0.187035 0 0.672651)
(-0.203709 0 0.66912)
(-0.150437 0 0.672019)
(-0.161443 0 0.647126)
(-0.120494 0 0.724032)
(-0.127508 0 0.673445)
(-0.0933659 0 0.833063)
(-0.0976887 0 0.75418)
(-0.0673897 0 0.998982)
(-0.0695719 0 0.892911)
(-0.0427378 0 1.20359)
(-0.0423941 0 1.08694)
(-0.0170398 0 1.35594)
(-0.015261 0 1.30243)
(0.0170187 0 1.22269)
(0.0120649 0 1.3895)
(0.0542096 0 0.542174)
(0.0502111 0 1.03521)
(0.0895598 0 -0.564973)
(0.0954332 0 0.035714)
(0.0887543 0 -1.50777)
(0.0852301 0 -1.15772)
(0.102845 0 -1.97749)
(0.0352424 0 -1.84534)
(0.193658 0 -2.28073)
(0.0847506 0 -2.15712)
(0.200297 0 -2.51383)
(0.141697 0 -2.48902)
(0.201911 0 -2.59746)
(0.193711 0 -2.5829)
(0.177203 0 -2.63842)
(0.191515 0 -2.61916)
(0.140739 0 -2.67698)
(0.165598 0 -2.64768)
(0.11582 0 -2.71302)
(0.139616 0 -2.68895)
(0.0945736 0 -2.74072)
(0.120642 0 -2.72144)
(0.0736529 0 -2.75705)
(0.102205 0 -2.7416)
(0.0479292 0 -2.76798)
(0.0788956 0 -2.75265)
(0.022387 0 -2.77117)
(0.0518338 0 -2.76083)
(0.0023266 0 -2.75813)
(0.0280324 0 -2.76043)
(-0.015175 0 -2.72488)
(0.0056185 0 -2.73764)
(-0.036682 0 -2.67842)
(-0.0202745 0 -2.69215)
(-0.0457079 0 -2.60928)
(-0.0359437 0 -2.6551)
(-0.110951 0 -2.41302)
(-0.0841375 0 -2.51148)
(-0.211729 0 -2.10521)
(-0.173648 0 -2.2387)
(-0.240487 0 -1.79876)
(-0.229587 0 -1.92379)
(-0.193667 0 -1.48698)
(-0.215498 0 -1.67881)
(-0.115125 0 -1.20812)
(-0.150369 0 -1.3737)
(-0.0618303 0 -0.967846)
(-0.0787416 0 -1.12519)
(-0.0155204 0 -0.69347)
(-0.0305299 0 -0.878946)
(0.0440174 0 -0.373697)
(0.0201918 0 -0.58896)
(0.118382 0 -0.0455247)
(0.0868568 0 -0.266974)
(0.197396 0 0.243223)
(0.164501 0 0.0448123)
(0.269689 0 0.460679)
(0.241749 0 0.304158)
(0.328591 0 0.600452)
(0.309139 0 0.490231)
(0.372729 0 0.674845)
(0.362255 0 0.60477)
(0.404043 0 0.703523)
(0.401154 0 0.663018)
(0.425617 0 0.705034)
(0.428327 0 0.683803)
(0.440321 0 0.6929)
(0.446861 0 0.683204)
(0.450267 0 0.675174)
(0.459401 0 0.672211)
(0.456797 0 0.65584)
(0.467815 0 0.657014)
(0.460684 0 0.637176)
(0.473263 0 0.640638)
(0.462376 0 0.621246)
(0.476467 0 0.62554)
(0.462131 0 0.596237)
(0.477886 0 0.614039)
(0.459962 0 0.465451)
(0.477007 0 0.581894)
(0.473538 0 0.362129)
(-0.227213 0 0.682644)
(-0.250317 0 0.692118)
(-0.178031 0 0.643692)
(-0.195496 0 0.636332)
(-0.138493 0 0.648659)
(-0.151128 0 0.620768)
(-0.10478 0 0.703699)
(-0.113731 0 0.650969)
(-0.0739098 0 0.814112)
(-0.0801725 0 0.7336)
(-0.0443066 0 0.980855)
(-0.0484462 0 0.873175)
(-0.0152632 0 1.18549)
(-0.0175356 0 1.06758)
(0.0157043 0 1.33547)
(0.0149141 0 1.28179)
(0.0520151 0 1.20069)
(0.0487069 0 1.3653)
(0.0856729 0 0.526151)
(0.0878929 0 1.01277)
(0.088494 0 -0.559211)
(0.126667 0 0.0338333)
(0.0241447 0 -1.49714)
(0.0669836 0 -1.11482)
(-0.000563368 0 -2.02421)
(-0.033877 0 -1.82887)
(0.0606169 0 -2.39442)
(-0.00749443 0 -2.19791)
(0.118971 0 -2.59377)
(0.0495054 0 -2.52793)
(0.196404 0 -2.60688)
(0.110935 0 -2.63453)
(0.178581 0 -2.62422)
(0.144051 0 -2.60728)
(0.16322 0 -2.65514)
(0.158625 0 -2.63744)
(0.145046 0 -2.69333)
(0.150715 0 -2.67683)
(0.126866 0 -2.72249)
(0.13721 0 -2.70932)
(0.107504 0 -2.73659)
(0.121545 0 -2.7258)
(0.0821668 0 -2.7452)
(0.102533 0 -2.73097)
(0.054851 0 -2.74851)
(0.0789023 0 -2.73631)
(0.0305241 0 -2.73536)
(0.0506019 0 -2.73752)
(0.00129787 0 -2.70206)
(0.0111674 0 -2.70877)
(-0.0116407 0 -2.65846)
(-0.053908 0 -2.67874)
(-0.0725012 0 -2.54328)
(-0.0988131 0 -2.58895)
(-0.157369 0 -2.33228)
(-0.167221 0 -2.41473)
(-0.206849 0 -2.07339)
(-0.223275 0 -2.17953)
(-0.200558 0 -1.82032)
(-0.232968 0 -1.93168)
(-0.174981 0 -1.56227)
(-0.205408 0 -1.71247)
(-0.107585 0 -1.29068)
(-0.148777 0 -1.46673)
(-0.0462518 0 -1.03625)
(-0.078639 0 -1.214)
(0.00510021 0 -0.771023)
(-0.0188253 0 -0.95694)
(0.0637619 0 -0.476696)
(0.0382295 0 -0.682419)
(0.13445 0 -0.170447)
(0.105049 0 -0.385108)
(0.210785 0 0.111246)
(0.181442 0 -0.0890049)
(0.283161 0 0.33779)
(0.258913 0 0.171068)
(0.344444 0 0.497118)
(0.32861 0 0.37202)
(0.391873 0 0.594273)
(0.385259 0 0.508804)
(0.426226 0 0.643778)
(0.427719 0 0.590106)
(0.450059 0 0.661946)
(0.457691 0 0.630743)
(0.46623 0 0.662209)
(0.478035 0 0.645438)
(0.477111 0 0.653575)
(0.49156 0 0.645556)
(0.484362 0 0.641182)
(0.500447 0 0.638381)
(0.489044 0 0.62819)
(0.506152 0 0.628016)
(0.491852 0 0.617258)
(0.509618 0 0.617602)
(0.49319 0 0.59756)
(0.511538 0 0.610069)
(0.492727 0 0.471198)
(0.510956 0 0.583335)
(0.505541 0 0.376546)
(-0.218501 0 0.645871)
(-0.240886 0 0.652253)
(-0.168511 0 0.613486)
(-0.186558 0 0.603006)
(-0.126329 0 0.623162)
(-0.140341 0 0.592646)
(-0.0891706 0 0.680944)
(-0.0998336 0 0.626197)
(-0.054781 0 0.792706)
(-0.0629207 0 0.710673)
(-0.0215 0 0.959885)
(-0.0278428 0 0.850988)
(0.0123213 0 1.16374)
(0.00680002 0 1.04503)
(0.0494574 0 1.3113)
(0.0445267 0 1.25703)
(0.0914218 0 1.17705)
(0.0858242 0 1.33732)
(0.125028 0 0.520064)
(0.130079 0 0.990364)
(0.101136 0 -0.524848)
(0.160036 0 0.0497608)
(0.00532952 0 -1.45216)
(0.0714691 0 -1.05095)
(-0.0462282 0 -2.02002)
(-0.042271 0 -1.79449)
(-0.00661838 0 -2.39409)
(-0.0302704 0 -2.22431)
(0.0278677 0 -2.61318)
(0.00323264 0 -2.55092)
(0.0677061 0 -2.64067)
(0.00340328 0 -2.66109)
(0.121554 0 -2.63121)
(0.0402749 0 -2.64318)
(0.147947 0 -2.65859)
(0.0794853 0 -2.65504)
(0.142884 0 -2.689)
(0.098586 0 -2.67345)
(0.130382 0 -2.71214)
(0.101626 0 -2.70099)
(0.116217 0 -2.72125)
(0.0923807 0 -2.71424)
(0.0984995 0 -2.72518)
(0.0769969 0 -2.7158)
(0.0740821 0 -2.72621)
(0.0523603 0 -2.71439)
(0.0287261 0 -2.71096)
(0.00937488 0 -2.69481)
(-0.0516261 0 -2.6819)
(-0.0549993 0 -2.6294)
(-0.12738 0 -2.61352)
(-0.146271 0 -2.60025)
(-0.198457 0 -2.47434)
(-0.227077 0 -2.5117)
(-0.240958 0 -2.27328)
(-0.281392 0 -2.36627)
(-0.255732 0 -2.04623)
(-0.298795 0 -2.16186)
(-0.228644 0 -1.83553)
(-0.277216 0 -1.96566)
(-0.181717 0 -1.62158)
(-0.229239 0 -1.77422)
(-0.119431 0 -1.38264)
(-0.164143 0 -1.55271)
(-0.0493277 0 -1.12893)
(-0.0885605 0 -1.3155)
(0.0154566 0 -0.863436)
(-0.0156373 0 -1.05534)
(0.0800435 0 -0.584617)
(0.0530246 0 -0.785318)
(0.153339 0 -0.29716)
(0.125874 0 -0.507599)
(0.231503 0 -0.0231979)
(0.204853 0 -0.22603)
(0.306466 0 0.210063)
(0.284778 0 0.0332227)
(0.371276 0 0.387042)
(0.357745 0 0.247006)
(0.422511 0 0.506702)
(0.418305 0 0.405138)
(0.46014 0 0.578199)
(0.464574 0 0.510241)
(0.486268 0 0.614781)
(0.497543 0 0.572573)
(0.50372 0 0.629042)
(0.51978 0 0.604681)
(0.515096 0 0.630549)
(0.534187 0 0.617689)
(0.522348 0 0.625505)
(0.543249 0 0.619745)
(0.526768 0 0.618017)
(0.548753 0 0.616103)
(0.52917 0 0.611568)
(0.551891 0 0.610809)
(0.529887 0 0.597337)
(0.55361 0 0.607944)
(0.527958 0 0.487095)
(0.552994 0 0.589334)
(0.546392 0 0.404635)
(-0.208876 0 0.609434)
(-0.230429 0 0.613603)
(-0.158318 0 0.582223)
(-0.176773 0 0.569301)
(-0.113806 0 0.595743)
(-0.128976 0 0.562971)
(-0.0736021 0 0.655978)
(-0.0857741 0 0.599395)
(-0.036082 0 0.768978)
(-0.0459898 0 0.68566)
(0.000538444 0 0.936113)
(-0.00807082 0 0.826575)
(0.0387399 0 1.13822)
(0.0297508 0 1.01956)
(0.0818179 0 1.28282)
(0.07173 0 1.22831)
(0.129796 0 1.15025)
(0.11941 0 1.30533)
(0.164679 0 0.51966)
(0.168446 0 0.967109)
(0.124471 0 -0.477735)
(0.188963 0 0.0765663)
(0.0227523 0 -1.39627)
(0.0922454 0 -0.983133)
(-0.0302399 0 -2.00284)
(-0.0126479 0 -1.75917)
(-0.0163712 0 -2.38881)
(-0.0147135 0 -2.23356)
(-0.0246522 0 -2.60583)
(-0.0138079 0 -2.5454)
(-0.0284558 0 -2.65809)
(-0.0487293 0 -2.65855)
(-0.00045253 0 -2.65905)
(-0.0467283 0 -2.66185)
(0.0305778 0 -2.67265)
(-0.0257784 0 -2.67572)
(0.057356 0 -2.69041)
(-0.00735088 0 -2.69131)
(0.0619682 0 -2.70666)
(-0.00256196 0 -2.70406)
(0.0519606 0 -2.7109)
(-0.0127437 0 -2.70608)
(0.0303177 0 -2.70707)
(-0.0318826 0 -2.69728)
(-0.0115603 0 -2.68636)
(-0.0633048 0 -2.6768)
(-0.0802445 0 -2.62555)
(-0.113745 0 -2.63013)
(-0.151786 0 -2.5606)
(-0.178103 0 -2.55874)
(-0.245359 0 -2.50254)
(-0.245745 0 -2.50329)
(-0.310724 0 -2.40174)
(-0.312479 0 -2.44066)
(-0.338819 0 -2.24873)
(-0.351688 0 -2.33424)
(-0.320825 0 -2.07283)
(-0.350053 0 -2.18338)
(-0.273932 0 -1.89531)
(-0.313835 0 -2.02449)
(-0.210791 0 -1.70278)
(-0.25532 0 -1.8573)
(-0.132705 0 -1.48275)
(-0.181861 0 -1.66049)
(-0.0535891 0 -1.2346)
(-0.0983632 0 -1.43006)
(0.0228087 0 -0.970467)
(-0.0133952 0 -1.17137)
(0.099777 0 -0.701996)
(0.0691972 0 -0.907944)
(0.178705 0 -0.429552)
(0.15116 0 -0.639504)
(0.260203 0 -0.163256)
(0.234447 0 -0.368898)
(0.338266 0 0.0755133)
(0.317097 0 -0.110325)
(0.406771 0 0.269128)
(0.393385 0 0.114867)
(0.461953 0 0.411438)
(0.457904 0 0.293484)
(0.503096 0 0.506346)
(0.508193 0 0.422918)
(0.531775 0 0.563467)
(0.544546 0 0.508724)
(0.550676 0 0.593848)
(0.569094 0 0.56054)
(0.562583 0 0.607121)
(0.58469 0 0.588522)
(0.569792 0 0.6104)
(0.594065 0 0.601219)
(0.573957 0 0.60882)
(0.599374 0 0.604876)
(0.576213 0 0.60697)
(0.602147 0 0.604431)
(0.577155 0 0.598977)
(0.60366 0 0.60515)
(0.5757 0 0.50122)
(0.603417 0 0.593861)
(0.597411 0 0.423743)
(-0.198289 0 0.573499)
(-0.218961 0 0.576294)
(-0.147379 0 0.550088)
(-0.166093 0 0.53536)
(-0.100907 0 0.566665)
(-0.117029 0 0.531989)
(-0.0581514 0 0.62911)
(-0.0716247 0 0.570892)
(-0.0180755 0 0.743267)
(-0.029562 0 0.658943)
(0.0211712 0 0.910002)
(0.0104612 0 0.80041)
(0.0626014 0 1.10959)
(0.0504562 0 0.991942)
(0.109907 0 1.25075)
(0.0949304 0 1.19678)
(0.161739 0 1.12224)
(0.146384 0 1.27078)
(0.19402 0 0.523769)
(0.196758 0 0.945589)
(0.151707 0 -0.428859)
(0.21017 0 0.104774)
(0.0573014 0 -1.34488)
(0.120856 0 -0.920196)
(0.000405141 0 -1.98636)
(0.0276594 0 -1.72124)
(-0.00974766 0 -2.38392)
(0.00477282 0 -2.22679)
(-0.0404399 0 -2.59318)
(-0.0165544 0 -2.52494)
(-0.0691003 0 -2.65838)
(-0.059733 0 -2.63944)
(-0.0684795 0 -2.67413)
(-0.0789684 0 -2.66226)
(-0.0663695 0 -2.68972)
(-0.0783467 0 -2.67713)
(-0.0675057 0 -2.70143)
(-0.0825534 0 -2.69055)
(-0.0788153 0 -2.70287)
(-0.0964919 0 -2.69652)
(-0.0976928 0 -2.69189)
(-0.118242 0 -2.69068)
(-0.125523 0 -2.66703)
(-0.145094 0 -2.67346)
(-0.166231 0 -2.62167)
(-0.179744 0 -2.64025)
(-0.216965 0 -2.55548)
(-0.221345 0 -2.58235)
(-0.267042 0 -2.49314)
(-0.262605 0 -2.50927)
(-0.316077 0 -2.43916)
(-0.301094 0 -2.45248)
(-0.354172 0 -2.36568)
(-0.337384 0 -2.39925)
(-0.36608 0 -2.25685)
(-0.357604 0 -2.32066)
(-0.34267 0 -2.12409)
(-0.349794 0 -2.21137)
(-0.292148 0 -1.97783)
(-0.314699 0 -2.08787)
(-0.224971 0 -1.80657)
(-0.259995 0 -1.9457)
(-0.145459 0 -1.6006)
(-0.189938 0 -1.77024)
(-0.0575453 0 -1.36033)
(-0.105965 0 -1.55735)
(0.033873 0 -1.10114)
(-0.0118333 0 -1.31022)
(0.122226 0 -0.83767)
(0.0835921 0 -1.04871)
(0.208185 0 -0.571941)
(0.175262 0 -0.783159)
(0.293388 0 -0.309543)
(0.264041 0 -0.518262)
(0.374481 0 -0.0653624)
(0.35012 0 -0.259444)
(0.446596 0 0.143723)
(0.429925 0 -0.0242357)
(0.50585 0 0.308268)
(0.498684 0 0.173591)
(0.550898 0 0.427525)
(0.553481 0 0.327309)
(0.582692 0 0.507172)
(0.593897 0 0.437939)
(0.603603 0 0.555967)
(0.621496 0 0.511706)
(0.616444 0 0.582947)
(0.638903 0 0.557065)
(0.623784 0 0.595745)
(0.648943 0 0.582355)
(0.627634 0 0.600388)
(0.654071 0 0.5945)
(0.629449 0 0.602523)
(0.656154 0 0.599299)
(0.630093 0 0.599711)
(0.656818 0 0.603239)
(0.628425 0 0.512412)
(0.656042 0 0.59905)
(0.64896 0 0.443016)
(-0.186753 0 0.538171)
(-0.206543 0 0.54036)
(-0.135714 0 0.517285)
(-0.154554 0 0.501334)
(-0.0877141 0 0.536242)
(-0.104589 0 0.499989)
(-0.0429959 0 0.600741)
(-0.0575402 0 0.541079)
(-0.00109339 0 0.716085)
(-0.0138846 0 0.631008)
(0.0397796 0 0.882329)
(0.0273541 0 0.773161)
(0.0828155 0 1.0791)
(0.0682552 0 0.963251)
(0.13179 0 1.21686)
(0.11315 0 1.16413)
(0.184099 0 1.09442)
(0.165211 0 1.23591)
(0.213589 0 0.527375)
(0.213675 0 0.925929)
(0.176407 0 -0.385633)
(0.223246 0 0.129562)
(0.0934983 0 -1.29569)
(0.147096 0 -0.864923)
(0.0278358 0 -1.9608)
(0.0625203 0 -1.67746)
(-0.000892529 0 -2.36772)
(0.0217959 0 -2.20764)
(-0.0367329 0 -2.57169)
(-0.0116342 0 -2.50104)
(-0.0711825 0 -2.64377)
(-0.0538617 0 -2.61648)
(-0.0851376 0 -2.6673)
(-0.0793421 0 -2.65296)
(-0.0956411 0 -2.68139)
(-0.0879356 0 -2.67013)
(-0.112035 0 -2.68828)
(-0.101745 0 -2.67962)
(-0.138292 0 -2.684)
(-0.125922 0 -2.67902)
(-0.1667 0 -2.66896)
(-0.15512 0 -2.6675)
(-0.199187 0 -2.63951)
(-0.185911 0 -2.64566)
(-0.235373 0 -2.59024)
(-0.21915 0 -2.60777)
(-0.270155 0 -2.52488)
(-0.250512 0 -2.5496)
(-0.296944 0 -2.46216)
(-0.274092 0 -2.48281)
(-0.32159 0 -2.40973)
(-0.292285 0 -2.42695)
(-0.340849 0 -2.35142)
(-0.309513 0 -2.37832)
(-0.343309 0 -2.27135)
(-0.319244 0 -2.31786)
(-0.3219 0 -2.17049)
(-0.311274 0 -2.23698)
(-0.280432 0 -2.05121)
(-0.284073 0 -2.13989)
(-0.222742 0 -1.90465)
(-0.24119 0 -2.02162)
(-0.149406 0 -1.72239)
(-0.182586 0 -1.87147)
(-0.0601135 0 -1.50251)
(-0.10678 0 -1.68664)
(0.0401825 0 -1.25219)
(-0.0149331 0 -1.46255)
(0.13868 0 -0.987944)
(0.0856915 0 -1.20563)
(0.232619 0 -0.723097)
(0.186963 0 -0.940151)
(0.322527 0 -0.462191)
(0.283592 0 -0.675873)
(0.40784 0 -0.212969)
(0.375227 0 -0.416323)
(0.48413 0 0.0103424)
(0.459899 0 -0.171392)
(0.548104 0 0.19635)
(0.533883 0 0.04415)
(0.597845 0 0.340454)
(0.594205 0 0.221738)
(0.633634 0 0.444351)
(0.63982 0 0.35826)
(0.657369 0 0.514022)
(0.671646 0 0.456277)
(0.671714 0 0.557228)
(0.691932 0 0.521925)
(0.679376 0 0.58157)
(0.703448 0 0.562667)
(0.682663 0 0.593711)
(0.708856 0 0.585639)
(0.683374 0 0.600295)
(0.710337 0 0.597289)
(0.682696 0 0.602624)
(0.709841 0 0.60525)
(0.679823 0 0.525901)
(0.707977 0 0.60799)
(0.699767 0 0.464539)
(-0.174354 0 0.503528)
(-0.193302 0 0.505778)
(-0.123426 0 0.484047)
(-0.142278 0 0.467382)
(-0.0743866 0 0.504838)
(-0.0918174 0 0.467296)
(-0.0283628 0 0.571349)