/*--------------------------------*- C++ -*----------------------------------*\
  =========                 |
  \\      /  F ield         | OpenFOAM: The Open Source CFD Toolbox
   \\    /   O peration     | Website:  https://openfoam.org
    \\  /    A nd           | Version:  9
     \\/     M anipulation  |
\*---------------------------------------------------------------------------*/
FoamFile
{
    format      ascii;
    class       volScalarField;
    location    "0.15";
    object      alpha.water;
}
// * * * * * * * * * * * * * * * * * * * * * * * * * * * * * * * * * * * * * //

dimensions      [0 0 0 0 0 0 0];

internalField   nonuniform List<scalar> 
5000
(
8.68765e-320
8.6916e-320
8.69358e-320
8.69358e-320
8.6916e-320
8.68963e-320
8.68765e-320
8.68567e-320
8.6837e-320
8.6837e-320
8.68469e-320
8.68765e-320
8.69457e-320
8.70741e-320
8.72718e-320
8.74496e-320
8.74694e-320
8.72718e-320
8.69852e-320
8.67184e-320
1.05789e-319
1.10789e-319
1.16066e-319
1.21619e-319
1.27449e-319
1.33576e-319
1.39998e-319
1.46757e-319
1.53832e-319
1.61263e-319
1.6905e-319
1.77221e-319
1.85788e-319
1.9478e-319
2.04207e-319
2.14089e-319
2.24464e-319
2.35333e-319
2.46736e-319
2.58693e-319
2.71222e-319
2.84364e-319
2.98139e-319
3.12576e-319
3.27724e-319
3.43593e-319
3.60213e-319
3.77644e-319
3.95885e-319
4.14985e-319
8.68765e-320
8.6916e-320
8.69358e-320
8.69358e-320
8.6916e-320
8.68963e-320
8.68765e-320
8.68567e-320
8.6837e-320
8.6837e-320
8.68469e-320
8.68765e-320
8.69457e-320
8.70741e-320
8.72718e-320
8.74397e-320
8.74595e-320
8.72718e-320
8.69852e-320
8.67184e-320
1.05789e-319
1.10789e-319
1.16066e-319
1.21619e-319
1.27449e-319
1.33576e-319
1.39998e-319
1.46747e-319
1.53832e-319
1.61253e-319
1.6905e-319
1.77211e-319
1.85788e-319
1.9478e-319
2.04207e-319
2.14089e-319
2.24464e-319
2.35333e-319
2.46736e-319
2.58683e-319
2.71222e-319
2.84355e-319
2.98129e-319
3.12576e-319
3.27714e-319
3.43583e-319
3.60213e-319
3.77624e-319
3.95865e-319
4.14976e-319
8.68765e-320
8.6916e-320
8.69358e-320
8.69358e-320
8.6916e-320
8.68963e-320
8.68765e-320
8.68567e-320
8.6837e-320
8.6837e-320
8.68469e-320
8.68765e-320
8.69457e-320
8.70741e-320
8.72718e-320
8.74397e-320
8.74595e-320
8.72718e-320
8.69852e-320
8.67283e-320
1.05789e-319
1.10789e-319
1.16066e-319
1.21619e-319
1.27449e-319
1.33576e-319
1.39998e-319
1.46747e-319
1.53822e-319
1.61243e-319
1.6904e-319
1.77211e-319
1.85788e-319
1.94771e-319
2.04197e-319
2.14089e-319
2.24454e-319
2.35323e-319
2.46717e-319
2.58673e-319
2.71203e-319
2.84345e-319
2.98119e-319
3.12566e-319
3.27704e-319
3.43573e-319
3.60194e-319
3.77614e-319
3.95855e-319
4.14946e-319
8.68765e-320
8.6916e-320
8.69358e-320
8.69358e-320
8.6916e-320
8.68963e-320
8.68765e-320
8.68567e-320
8.6837e-320
8.6837e-320
8.68469e-320
8.68765e-320
8.69457e-320
8.70741e-320
8.72619e-320
8.74299e-320
8.74496e-320
8.72718e-320
8.69852e-320
8.67283e-320
1.05789e-319
1.10789e-319
1.16066e-319
1.21609e-319
1.27449e-319
1.33566e-319
1.39998e-319
1.46737e-319
1.53813e-319
1.61243e-319
1.6903e-319
1.77211e-319
1.85769e-319
1.94761e-319
2.04187e-319
2.14069e-319
2.24444e-319
2.35314e-319
2.46717e-319
2.58663e-319
2.71193e-319
2.84325e-319
2.98099e-319
3.12546e-319
3.27684e-319
3.43553e-319
3.60174e-319
3.77595e-319
3.95826e-319
4.14916e-319
8.68765e-320
8.6916e-320
8.69358e-320
8.69358e-320
8.6916e-320
8.68963e-320
8.68765e-320
8.68567e-320
8.68469e-320
8.6837e-320
8.68469e-320
8.68765e-320
8.69457e-320
8.70741e-320
8.72619e-320
8.74299e-320
8.74496e-320
8.72718e-320
8.69852e-320
8.67283e-320
1.05789e-319
1.10789e-319
1.16066e-319
1.21609e-319
1.27439e-319
1.33556e-319
1.39989e-319
1.46737e-319
1.53813e-319
1.61243e-319
1.6903e-319
1.77192e-319
1.85769e-319
1.94751e-319
2.04178e-319
2.14069e-319
2.24424e-319
2.35294e-319
2.46697e-319
2.58643e-319
2.71173e-319
2.84305e-319
2.9808e-319
3.12526e-319
3.27664e-319
3.43524e-319
3.60154e-319
3.77565e-319
3.95796e-319
4.14877e-319
8.68765e-320
8.6916e-320
8.69358e-320
8.69358e-320
8.6916e-320
8.69061e-320
8.68765e-320
8.68567e-320
8.68469e-320
8.6837e-320
8.68469e-320
8.68765e-320
8.69457e-320
8.70741e-320
8.72619e-320
8.74299e-320
8.74496e-320
8.72718e-320
8.69852e-320
8.67283e-320
1.05789e-319
1.10789e-319
1.16056e-319
1.21599e-319
1.27429e-319
1.33556e-319
1.39979e-319
1.46728e-319
1.53803e-319
1.61224e-319
1.6901e-319
1.77192e-319
1.85749e-319
1.94741e-319
2.04168e-319
2.14049e-319
2.24405e-319
2.35274e-319
2.46677e-319
2.58624e-319
2.71153e-319
2.84285e-319
2.9806e-319
3.12497e-319
3.27625e-319
3.43494e-319
3.60115e-319
3.77525e-319
3.95747e-319
4.14827e-319
8.68765e-320
8.6916e-320
8.69358e-320
8.69358e-320
8.69259e-320
8.69061e-320
8.68765e-320
8.68567e-320
8.68469e-320
8.6837e-320
8.68469e-320
8.68765e-320
8.69457e-320
8.70741e-320
8.72619e-320
8.74299e-320
8.74496e-320
8.72718e-320
8.69852e-320
8.67283e-320
1.05789e-319
1.10789e-319
1.16056e-319
1.21599e-319
1.27429e-319
1.33556e-319
1.39979e-319
1.46718e-319
1.53793e-319
1.61224e-319
1.6901e-319
1.77172e-319
1.85739e-319
1.94721e-319
2.04148e-319
2.14029e-319
2.24385e-319
2.35254e-319
2.46657e-319
2.58594e-319
2.71123e-319
2.84256e-319
2.9802e-319
3.12457e-319
3.27585e-319
3.43455e-319
3.60065e-319
3.77466e-319
3.95697e-319
4.14768e-319
8.68864e-320
8.6916e-320
8.69358e-320
8.69358e-320
8.69259e-320
8.69061e-320
8.68765e-320
8.68567e-320
8.68469e-320
8.6837e-320
8.68469e-320
8.68765e-320
8.69457e-320
8.70741e-320
8.72619e-320
8.74299e-320
8.74397e-320
8.72619e-320
8.69852e-320
8.67283e-320
1.05789e-319
1.10779e-319
1.16046e-319
1.21599e-319
1.27429e-319
1.33546e-319
1.39969e-319
1.46718e-319
1.53793e-319
1.61204e-319
1.6899e-319
1.77152e-319
1.85729e-319
1.94701e-319
2.04128e-319
2.14009e-319
2.24365e-319
2.35235e-319
2.46618e-319
2.58564e-319
2.71084e-319
2.84216e-319
2.97981e-319
3.12417e-319
3.27546e-319
3.43395e-319
3.60016e-319
3.77407e-319
3.95628e-319
4.14699e-319
8.68864e-320
8.6916e-320
8.69358e-320
8.69358e-320
8.69259e-320
8.69061e-320
8.68864e-320
8.68567e-320
8.68469e-320
8.6837e-320
8.68469e-320
8.68765e-320
8.69556e-320
8.70741e-320
8.72619e-320
8.742e-320
8.74299e-320
8.72619e-320
8.69852e-320
8.67283e-320
1.05789e-319
1.10779e-319
1.16046e-319
1.21599e-319
1.2742e-319
1.33536e-319
1.39959e-319
1.46698e-319
1.53773e-319
1.61194e-319
1.6898e-319
1.77142e-319
1.85709e-319
1.94682e-319
2.04108e-319
2.1399e-319
2.24345e-319
2.35195e-319
2.46588e-319
2.58535e-319
2.71044e-319
2.84177e-319
2.97941e-319
3.12368e-319
3.27486e-319
3.43336e-319
3.59947e-319
3.77338e-319
3.95549e-319
4.1461e-319
8.68864e-320
8.6916e-320
8.69358e-320
8.69358e-320
8.69259e-320
8.69061e-320
8.68864e-320
8.68666e-320
8.68469e-320
8.6837e-320
8.68469e-320
8.68765e-320
8.69556e-320
8.70741e-320
8.7252e-320
8.74101e-320
8.74299e-320
8.72619e-320
8.69852e-320
8.67283e-320
1.05789e-319
1.1077e-319
1.16046e-319
1.2158e-319
1.2741e-319
1.33536e-319
1.39959e-319
1.46698e-319
1.53763e-319
1.61184e-319
1.68961e-319
1.77132e-319
1.8569e-319
1.94662e-319
2.04079e-319
2.1395e-319
2.24306e-319
2.35175e-319
2.46559e-319
2.58495e-319
2.71005e-319
2.84127e-319
2.97882e-319
3.12309e-319
3.27427e-319
3.43277e-319
3.59877e-319
3.77259e-319
3.9546e-319
4.14511e-319
8.68963e-320
8.6916e-320
8.69358e-320
8.69358e-320
8.69358e-320
8.6916e-320
8.68864e-320
8.68666e-320
8.68567e-320
8.6837e-320
8.68567e-320
8.68765e-320
8.69556e-320
8.70741e-320
8.7252e-320
8.74101e-320
8.74299e-320
8.7252e-320
8.69852e-320
8.67283e-320
1.05789e-319
1.1077e-319
1.16046e-319
1.2158e-319
1.2741e-319
1.33516e-319
1.39939e-319
1.46678e-319
1.53753e-319
1.61164e-319
1.68951e-319
1.77113e-319
1.8567e-319
1.94642e-319
2.04049e-319
2.1393e-319
2.24276e-319
2.35136e-319
2.46519e-319
2.58446e-319
2.70965e-319
2.84078e-319
2.97823e-319
3.12249e-319
3.27358e-319
3.43198e-319
3.59788e-319
3.7717e-319
3.95351e-319
4.14403e-319
8.68963e-320
8.69259e-320
8.69358e-320
8.69358e-320
8.69358e-320
8.6916e-320
8.68963e-320
8.68666e-320
8.68567e-320
8.6837e-320
8.68567e-320
8.68765e-320
8.69556e-320
8.70741e-320
8.7252e-320
8.74101e-320
8.74299e-320
8.7252e-320
8.69852e-320
8.67283e-320
1.05779e-319
1.1077e-319
1.16036e-319
1.2158e-319
1.274e-319
1.33516e-319
1.39929e-319
1.46668e-319
1.53733e-319
1.61144e-319
1.68931e-319
1.77083e-319
1.8564e-319
1.94612e-319
2.04029e-319
2.13891e-319
2.24247e-319
2.35096e-319
2.4647e-319
2.58396e-319
2.70906e-319
2.84019e-319
2.97763e-319
3.1217e-319
3.27279e-319
3.43109e-319
3.5969e-319
3.77061e-319
3.95243e-319
4.14274e-319
8.68963e-320
8.69259e-320
8.69457e-320
8.69457e-320
8.69358e-320
8.6916e-320
8.68963e-320
8.68765e-320
8.68567e-320
8.68469e-320
8.68567e-320
8.68765e-320
8.69556e-320
8.70741e-320
8.7252e-320
8.74101e-320
8.742e-320
8.7252e-320
8.69852e-320
8.67283e-320
1.05779e-319
1.1077e-319
1.16026e-319
1.2157e-319
1.2739e-319
1.33497e-319
1.39919e-319
1.46658e-319
1.53714e-319
1.61125e-319
1.68911e-319
1.77063e-319
1.85611e-319
1.94583e-319
2.0399e-319
2.13851e-319
2.24207e-319
2.35047e-319
2.4642e-319
2.58337e-319
2.70847e-319
2.83949e-319
2.97694e-319
3.12091e-319
3.2719e-319
3.4302e-319
3.59591e-319
3.76952e-319
3.95114e-319
4.14136e-319
8.68963e-320
8.69358e-320
8.69457e-320
8.69457e-320
8.69358e-320
8.6916e-320
8.68963e-320
8.68765e-320
8.68567e-320
8.68469e-320
8.68567e-320
8.68864e-320
8.69556e-320
8.7084e-320
8.7252e-320
8.74101e-320
8.742e-320
8.7252e-320
8.69852e-320
8.67283e-320
1.0577e-319
1.1077e-319
1.16026e-319
1.2156e-319
1.2738e-319
1.33497e-319
1.3991e-319
1.46639e-319
1.53704e-319
1.61105e-319
1.68882e-319
1.77034e-319
1.85591e-319
1.94553e-319
2.0395e-319
2.13812e-319
2.24158e-319
2.34997e-319
2.46361e-319
2.58288e-319
2.70787e-319
2.8388e-319
2.97615e-319
3.12012e-319
3.27101e-319
3.42911e-319
3.59482e-319
3.76824e-319
3.94976e-319
4.13987e-319
8.68963e-320
8.69358e-320
8.69556e-320
8.69556e-320
8.69358e-320
8.6916e-320
8.68963e-320
8.68765e-320
8.68567e-320
8.68567e-320
8.68567e-320
8.68864e-320
8.69556e-320
8.7084e-320
8.7252e-320
8.74002e-320
8.74101e-320
8.7252e-320
8.69951e-320
8.67283e-320
1.0577e-319
1.1076e-319
1.16016e-319
1.2156e-319
1.2737e-319
1.33477e-319
1.399e-319
1.46619e-319
1.53684e-319
1.61085e-319
1.68862e-319
1.77014e-319
1.85551e-319
1.94524e-319
2.03921e-319
2.13772e-319
2.24108e-319
2.34948e-319
2.46311e-319
2.58218e-319
2.70708e-319
2.83811e-319
2.97526e-319
3.11914e-319
3.26992e-319
3.42803e-319
3.59354e-319
3.76695e-319
3.94838e-319
4.13829e-319
8.69061e-320
8.69358e-320
8.69556e-320
8.69556e-320
8.69457e-320
8.6916e-320
8.68963e-320
8.68765e-320
8.68567e-320
8.68567e-320
8.68567e-320
8.68963e-320
8.69556e-320
8.7084e-320
8.7252e-320
8.74002e-320
8.74101e-320
8.7252e-320
8.69951e-320
8.67283e-320
1.0577e-319
1.1075e-319
1.16007e-319
1.2154e-319
1.2736e-319
1.33467e-319
1.3988e-319
1.46609e-319
1.53664e-319
1.61065e-319
1.68832e-319
1.76974e-319
1.85522e-319
1.94484e-319
2.03871e-319
2.13733e-319
2.24059e-319
2.34899e-319
2.46242e-319
2.58159e-319
2.70639e-319
2.83722e-319
2.97447e-319
3.11815e-319
3.26894e-319
3.42684e-319
3.59225e-319
3.76537e-319
3.94679e-319
4.13652e-319
8.6916e-320
8.69358e-320
8.69556e-320
8.69556e-320
8.69457e-320
8.69259e-320
8.69061e-320
8.68765e-320
8.68666e-320
8.68567e-320
8.68567e-320
8.68963e-320
8.69654e-320
8.70939e-320
8.7252e-320
8.74002e-320
8.74101e-320
8.7252e-320
8.69951e-320
8.67283e-320
1.0577e-319
1.1075e-319
1.16007e-319
1.2154e-319
1.2735e-319
1.33457e-319
1.3986e-319
1.46589e-319
1.53645e-319
1.61046e-319
1.68812e-319
1.76955e-319
1.85492e-319
1.94444e-319
2.03832e-319
2.13683e-319
2.24009e-319
2.34839e-319
2.46183e-319
2.5808e-319
2.7055e-319
2.83633e-319
2.97348e-319
3.11716e-319
3.26775e-319
3.42546e-319
3.59077e-319
3.76379e-319
3.94502e-319
4.13464e-319
8.6916e-320
8.69457e-320
8.69556e-320
8.69654e-320
8.69556e-320
8.69358e-320
8.69061e-320
8.68864e-320
8.68666e-320
8.68567e-320
8.68666e-320
8.68963e-320
8.69654e-320
8.70939e-320
8.7252e-320
8.74002e-320
8.74101e-320
8.7252e-320
8.69951e-320
8.67382e-320
1.0577e-319
1.1075e-319
1.16007e-319
1.2153e-319
1.2734e-319
1.33437e-319
1.3985e-319
1.4657e-319
1.53625e-319
1.61026e-319
1.68773e-319
1.76915e-319
1.85452e-319
1.94405e-319
2.03792e-319
2.13634e-319
2.2395e-319
2.3477e-319
2.46104e-319
2.58001e-319
2.70471e-319
2.83534e-319
2.9724e-319
3.11597e-319
3.26647e-319
3.42407e-319
3.58929e-319
3.76221e-319
3.94324e-319
4.13256e-319
8.6916e-320
8.69556e-320
8.69654e-320
8.69753e-320
8.69556e-320
8.69358e-320
8.6916e-320
8.68963e-320
8.68765e-320
8.68666e-320
8.68765e-320
8.68963e-320
8.69753e-320
8.70939e-320
8.7252e-320
8.74002e-320
8.74101e-320
8.7252e-320
8.69951e-320
8.67382e-320
1.0577e-319
1.1074e-319
1.15987e-319
1.2152e-319
1.27331e-319
1.33437e-319
1.3983e-319
1.4655e-319
1.53595e-319
1.60996e-319
1.68753e-319
1.76885e-319
1.85413e-319
1.94365e-319
2.03733e-319
2.13575e-319
2.23891e-319
2.34701e-319
2.46035e-319
2.57922e-319
2.70372e-319
2.83436e-319
2.97131e-319
3.11479e-319
3.26508e-319
3.42259e-319
3.58761e-319
3.76033e-319
3.94116e-319
4.13039e-319
8.69259e-320
8.69556e-320
8.69753e-320
8.69753e-320
8.69556e-320
8.69358e-320
8.6916e-320
8.68963e-320
8.68765e-320
8.68765e-320
8.68765e-320
8.69061e-320
8.69753e-320
8.70939e-320
8.72619e-320
8.74002e-320
8.74101e-320
8.7252e-320
8.69951e-320
8.67382e-320
1.0577e-319
1.1074e-319
1.15987e-319
1.21511e-319
1.27321e-319
1.33417e-319
1.39821e-319
1.4653e-319
1.53575e-319
1.60967e-319
1.68714e-319
1.76846e-319
1.85373e-319
1.94306e-319
2.03693e-319
2.13515e-319
2.23822e-319
2.34622e-319
2.45956e-319
2.57833e-319
2.70274e-319
2.83327e-319
2.97013e-319
3.1134e-319
3.2636e-319
3.42101e-319
3.58583e-319
3.75846e-319
3.93909e-319
4.12812e-319
8.69358e-320
8.69654e-320
8.69753e-320
8.69753e-320
8.69753e-320
8.69457e-320
8.69259e-320
8.68963e-320
8.68765e-320
8.68765e-320
8.68765e-320
8.6916e-320
8.69753e-320
8.70939e-320
8.72619e-320
8.74002e-320
8.74101e-320
8.7252e-320
8.69951e-320
8.67382e-320
1.0576e-319
1.1073e-319
1.15987e-319
1.21501e-319
1.27311e-319
1.33398e-319
1.39801e-319
1.4651e-319
1.53556e-319
1.60937e-319
1.68684e-319
1.76816e-319
1.85334e-319
1.94267e-319
2.03634e-319
2.13456e-319
2.23752e-319
2.34553e-319
2.45867e-319
2.57734e-319
2.70175e-319
2.83218e-319
2.96874e-319
3.11202e-319
3.26202e-319
3.41933e-319
3.58395e-319
3.75628e-319
3.93672e-319
4.12565e-319
8.69358e-320
8.69753e-320
8.69852e-320
8.69852e-320
8.69753e-320
8.69556e-320
8.69358e-320
8.69061e-320
8.68963e-320
8.68765e-320
8.68864e-320
8.6916e-320
8.69852e-320
8.71038e-320
8.72718e-320
8.74002e-320
8.74101e-320
8.7252e-320
8.69951e-320
8.67382e-320
1.0576e-319
1.1073e-319
1.15967e-319
1.21501e-319
1.27291e-319
1.33388e-319
1.39781e-319
1.46481e-319
1.53526e-319
1.60907e-319
1.68654e-319
1.76767e-319
1.85284e-319
1.94207e-319
2.03575e-319
2.13387e-319
2.23673e-319
2.34464e-319
2.45778e-319
2.57635e-319
2.70056e-319
2.8309e-319
2.96736e-319
3.11044e-319
3.26044e-319
3.41745e-319
3.58198e-319
3.75411e-319
3.93434e-319
4.12298e-319
8.69457e-320
8.69753e-320
8.69951e-320
8.69951e-320
8.69753e-320
8.69556e-320
8.69358e-320
8.6916e-320
8.68963e-320
8.68864e-320
8.68963e-320
8.6916e-320
8.69951e-320
8.71137e-320
8.72718e-320
8.74002e-320
8.74101e-320
8.7252e-320
8.69951e-320
8.67382e-320
1.0576e-319
1.1073e-319
1.15967e-319
1.21481e-319
1.27281e-319
1.33368e-319
1.39761e-319
1.46461e-319
1.53496e-319
1.60868e-319
1.68615e-319
1.76727e-319
1.85235e-319
1.94158e-319
2.03516e-319
2.13318e-319
2.23604e-319
2.34385e-319
2.45689e-319
2.57527e-319
2.69938e-319
2.82961e-319
2.96597e-319
3.10886e-319
3.25866e-319
3.41557e-319
3.5798e-319
3.75174e-319
3.93177e-319
4.12011e-319
8.69556e-320
8.69852e-320
8.69951e-320
8.69951e-320
8.69951e-320
8.69753e-320
8.69457e-320
8.6916e-320
8.69061e-320
8.68963e-320
8.68963e-320
8.69259e-320
8.69951e-320
8.71137e-320
8.72718e-320
8.74101e-320
8.74101e-320
8.7252e-320
8.69951e-320
8.67382e-320
1.0576e-319
1.1072e-319
1.15967e-319
1.21481e-319
1.27271e-319
1.33358e-319
1.39742e-319
1.46441e-319
1.53467e-319
1.60848e-319
1.68575e-319
1.76678e-319
1.85186e-319
1.94099e-319
2.03446e-319
2.13249e-319
2.23515e-319
2.34286e-319
2.4558e-319
2.57408e-319
2.69819e-319
2.82823e-319
2.96439e-319
3.10728e-319
3.25678e-319
3.4134e-319
3.57753e-319
3.74927e-319
3.92901e-319
4.11715e-319
8.69654e-320
8.69951e-320
8.70148e-320
8.70148e-320
8.69951e-320
8.69753e-320
8.69556e-320
8.69358e-320
8.6916e-320
8.68963e-320
8.69061e-320
8.69358e-320
8.7005e-320
8.71235e-320
8.72816e-320
8.74101e-320
8.74101e-320
8.72619e-320
8.7005e-320
8.67382e-320
1.0575e-319
1.1072e-319
1.15947e-319
1.21461e-319
1.27252e-319
1.33338e-319
1.39722e-319
1.46421e-319
1.53437e-319
1.60808e-319
1.68536e-319
1.76638e-319
1.85136e-319
1.94039e-319
2.03377e-319
2.1317e-319
2.23436e-319
2.34187e-319
2.45472e-319
2.5729e-319
2.69681e-319
2.82675e-319
2.96281e-319
3.1055e-319
3.25481e-319
3.41123e-319
3.57506e-319
3.7466e-319
3.92614e-319
4.11399e-319
8.69753e-320
8.7005e-320
8.70148e-320
8.70148e-320
8.70148e-320
8.69852e-320
8.69556e-320
8.69358e-320
8.6916e-320
8.6916e-320
8.6916e-320
8.69457e-320
8.70148e-320
8.71334e-320
8.72915e-320
8.74101e-320
8.74101e-320
8.72619e-320
8.70148e-320
8.6748e-320
1.0575e-319
1.1071e-319
1.15947e-319
1.21461e-319
1.27242e-319
1.33319e-319
1.39702e-319
1.46382e-319
1.53407e-319
1.60769e-319
1.68496e-319
1.76579e-319
1.85077e-319
1.9397e-319
2.03298e-319
2.13081e-319
2.23337e-319
2.34088e-319
2.45353e-319
2.57171e-319
2.69542e-319
2.82517e-319
2.96103e-319
3.10352e-319
3.25273e-319
3.40895e-319
3.57259e-319
3.74383e-319
3.92308e-319
4.11063e-319
8.69753e-320
8.70148e-320
8.70346e-320
8.70346e-320
8.70148e-320
8.69951e-320
8.69753e-320
8.69556e-320
8.69358e-320
8.6916e-320
8.69259e-320
8.69556e-320
8.70148e-320
8.71334e-320
8.72915e-320
8.74101e-320
8.742e-320
8.72718e-320
8.70148e-320
8.6748e-320
1.0575e-319
1.1071e-319
1.15947e-319
1.21441e-319
1.27232e-319
1.33299e-319
1.39682e-319
1.46362e-319
1.53378e-319
1.60729e-319
1.68447e-319
1.7654e-319
1.85018e-319
1.93911e-319
2.03229e-319
2.13002e-319
2.23239e-319
2.33989e-319
2.45234e-319
2.57033e-319
2.69404e-319
2.82349e-319
2.95926e-319
3.10155e-319
3.25056e-319
3.40648e-319
3.56992e-319
3.74087e-319
3.91982e-319
4.10707e-319
8.69951e-320
8.70247e-320
8.70346e-320
8.70346e-320
8.70346e-320
8.70148e-320
8.69852e-320
8.69556e-320
8.69358e-320
8.69358e-320
8.69358e-320
8.69556e-320
8.70346e-320
8.71532e-320
8.73014e-320
8.74299e-320
8.74299e-320
8.72718e-320
8.70148e-320
8.67579e-320
1.0575e-319
1.1071e-319
1.15928e-319
1.21441e-319
1.27212e-319
1.33279e-319
1.39653e-319
1.46332e-319
1.53338e-319
1.6069e-319
1.68397e-319
1.7648e-319
1.84958e-319
1.93832e-319
2.0315e-319
2.12913e-319
2.2314e-319
2.33871e-319
2.45116e-319
2.56894e-319
2.69246e-319
2.82181e-319
2.95738e-319
3.09937e-319
3.24819e-319
3.40391e-319
3.56696e-319
3.73771e-319
3.91636e-319
4.10331e-319
8.7005e-320
8.70346e-320
8.70544e-320
8.70544e-320
8.70346e-320
8.70148e-320
8.69951e-320
8.69753e-320
8.69556e-320
8.69358e-320
8.69457e-320
8.69753e-320
8.70346e-320
8.71532e-320
8.73113e-320
8.74299e-320
8.74299e-320
8.72816e-320
8.70247e-320
8.67579e-320
1.0576e-319
1.1071e-319
1.15928e-319
1.21422e-319
1.27202e-319
1.33259e-319
1.39623e-319
1.46303e-319
1.53309e-319
1.6065e-319
1.68358e-319
1.76421e-319
1.84889e-319
1.93763e-319
2.03061e-319
2.12824e-319
2.23041e-319
2.33752e-319
2.44978e-319
2.56746e-319
2.69068e-319
2.81993e-319
2.9553e-319
3.0972e-319
3.24562e-319
3.40115e-319
3.56399e-319
3.73444e-319
3.9128e-319
4.09936e-319
8.70148e-320
8.70445e-320
8.70642e-320
8.70642e-320
8.70544e-320
8.70346e-320
8.70148e-320
8.69852e-320
8.69654e-320
8.69556e-320
8.69556e-320
8.69852e-320
8.70544e-320
8.71729e-320
8.73113e-320
8.74397e-320
8.74397e-320
8.72915e-320
8.70346e-320
8.67579e-320
1.0576e-319
1.1071e-319
1.15928e-319
1.21422e-319
1.27192e-319
1.3324e-319
1.39603e-319
1.46273e-319
1.53269e-319
1.60611e-319
1.68299e-319
1.76362e-319
1.8482e-319
1.93684e-319
2.02982e-319
2.12715e-319
2.22922e-319
2.33624e-319
2.44839e-319
2.56588e-319
2.689e-319
2.81795e-319
2.95313e-319
3.09483e-319
3.24305e-319
3.39828e-319
3.56083e-319
3.73099e-319
3.90885e-319
4.09521e-319
8.70346e-320
8.70544e-320
8.70741e-320
8.70741e-320
8.70642e-320
8.70445e-320
8.70148e-320
8.69951e-320
8.69753e-320
8.69753e-320
8.69753e-320
8.69951e-320
8.70642e-320
8.71828e-320
8.7331e-320
8.74496e-320
8.74496e-320
8.72915e-320
8.70346e-320
8.67777e-320
1.0577e-319
1.1071e-319
1.15918e-319
1.21402e-319
1.27172e-319
1.3323e-319
1.39583e-319
1.46243e-319
1.53239e-319
1.60561e-319
1.68249e-319
1.76302e-319
1.84751e-319
1.93605e-319
2.02883e-319
2.12606e-319
2.22804e-319
2.33495e-319
2.44691e-319
2.5642e-319
2.68712e-319
2.81598e-319
2.95096e-319
3.09226e-319
3.24028e-319
3.39522e-319
3.55747e-319
3.72723e-319
3.9049e-319
4.09086e-319
8.70346e-320
8.70741e-320
8.70939e-320
8.70939e-320
8.70741e-320
8.70544e-320
8.70346e-320
8.70148e-320
8.69951e-320
8.69753e-320
8.69852e-320
8.70148e-320
8.70741e-320
8.71927e-320
8.73409e-320
8.74595e-320
8.74595e-320
8.73113e-320
8.70544e-320
8.67777e-320
1.0577e-319
1.1071e-319
1.15908e-319
1.21402e-319
1.27153e-319
1.3321e-319
1.39554e-319
1.46214e-319
1.532e-319
1.60512e-319
1.682e-319
1.76243e-319
1.84682e-319
1.93516e-319
2.02784e-319
2.12508e-319
2.22685e-319
2.33357e-319
2.44533e-319
2.56242e-319
2.68525e-319
2.8138e-319
2.94858e-319
3.08969e-319
3.23732e-319
3.39206e-319
3.55391e-319
3.72328e-319
3.90055e-319
4.08612e-319
8.70544e-320
8.70939e-320
8.71038e-320
8.71137e-320
8.70939e-320
8.70741e-320
8.70544e-320
8.70346e-320
8.70148e-320
8.69951e-320
8.69951e-320
8.70346e-320
8.70939e-320
8.72125e-320
8.73508e-320
8.74694e-320
8.74694e-320
8.73113e-320
8.70544e-320
8.67876e-320
1.0577e-319
1.1071e-319
1.15908e-319
1.21382e-319
1.27143e-319
1.3319e-319
1.39524e-319
1.46184e-319
1.5316e-319
1.60473e-319
1.6814e-319
1.76174e-319
1.84603e-319
1.93437e-319
2.02685e-319
2.12389e-319
2.22547e-319
2.33209e-319
2.44365e-319
2.56064e-319
2.68317e-319
2.81163e-319
2.94601e-319
3.08682e-319
3.23435e-319
3.3887e-319
3.55016e-319
3.71913e-319
3.896e-319
4.08118e-319
8.70741e-320
8.71038e-320
8.71137e-320
8.71235e-320
8.71137e-320
8.70939e-320
8.70741e-320
8.70445e-320
8.70247e-320
8.70148e-320
8.70148e-320
8.70445e-320
8.71137e-320
8.72223e-320
8.73706e-320
8.74891e-320
8.74891e-320
8.7331e-320
8.70741e-320
8.67975e-320
1.0577e-319
1.1071e-319
1.15908e-319
1.21382e-319
1.27133e-319
1.3317e-319
1.39504e-319
1.46145e-319
1.53121e-319
1.60413e-319
1.68081e-319
1.76105e-319
1.84524e-319
1.93338e-319
2.02587e-319
2.1227e-319
2.22418e-319
2.33051e-319
2.44197e-319
2.55867e-319
2.681e-319
2.80916e-319
2.94345e-319
3.08396e-319
3.23099e-319
3.38504e-319
3.54621e-319
3.71478e-319
3.89126e-319
4.07604e-319
8.7084e-320
8.71137e-320
8.71334e-320
8.71334e-320
8.71334e-320
8.71137e-320
8.70939e-320
8.70642e-320
8.70445e-320
8.70346e-320
8.70346e-320
8.70642e-320
8.71334e-320
8.72421e-320
8.73903e-320
8.7499e-320
8.74891e-320
8.73409e-320
8.7084e-320
8.68073e-320
1.05779e-319
1.1071e-319
1.15908e-319
1.21372e-319
1.27113e-319
1.33141e-319
1.39475e-319
1.46105e-319
1.53071e-319
1.60374e-319
1.68022e-319
1.76026e-319
1.84435e-319
1.93239e-319
2.02468e-319
2.12142e-319
2.2227e-319
2.32893e-319
2.44009e-319
2.55669e-319
2.67882e-319
2.80669e-319
2.94058e-319
3.0808e-319
3.22763e-319
3.38129e-319
3.54206e-319
3.71024e-319
3.88622e-319
4.07051e-319
8.71038e-320
8.71334e-320
8.71532e-320
8.71532e-320
8.71532e-320
8.71334e-320
8.71137e-320
8.7084e-320
8.70642e-320
8.70544e-320
8.70544e-320
8.7084e-320
8.71532e-320
8.72619e-320
8.74101e-320
8.75089e-320
8.75089e-320
8.73607e-320
8.70939e-320
8.68172e-320
1.05789e-319
1.1071e-319
1.15898e-319
1.21362e-319
1.27103e-319
1.33121e-319
1.39445e-319
1.46075e-319
1.53022e-319
1.60314e-319
1.67953e-319
1.75957e-319
1.84346e-319
1.9314e-319
2.0235e-319
2.12013e-319
2.22122e-319
2.32725e-319
2.43831e-319
2.55452e-319
2.67645e-319
2.80402e-319
2.93771e-319
3.07763e-319
3.22407e-319
3.37724e-319
3.53771e-319
3.70539e-319
3.88098e-319
4.06478e-319
8.71137e-320
8.71532e-320
8.71729e-320
8.71729e-320
8.71729e-320
8.71532e-320
8.71334e-320
8.71038e-320
8.70939e-320
8.70741e-320
8.70741e-320
8.71038e-320
8.71729e-320
8.72816e-320
8.74299e-320
8.75287e-320
8.75287e-320
8.73706e-320
8.71137e-320
8.6837e-320
1.05799e-319
1.1071e-319
1.15898e-319
1.21362e-319
1.27093e-319
1.33101e-319
1.39425e-319
1.46046e-319
1.52982e-319
1.60255e-319
1.67884e-319
1.75877e-319
1.84257e-319
1.93031e-319
2.02231e-319
2.11875e-319
2.21964e-319
2.32547e-319
2.43624e-319
2.55234e-319
2.67388e-319
2.80115e-319
2.93455e-319
3.07408e-319
3.22022e-319
3.37308e-319
3.53296e-319
3.70035e-319
3.87525e-319
4.05865e-319
8.71334e-320
8.71729e-320
8.71927e-320
8.71927e-320
8.71927e-320
8.71729e-320
8.71532e-320
8.71334e-320
8.71137e-320
8.70939e-320
8.71038e-320
8.71334e-320
8.71927e-320
8.73113e-320
8.74496e-320
8.75484e-320
8.75484e-320
8.73903e-320
8.71334e-320
8.68567e-320
1.05809e-319
1.1072e-319
1.15898e-319
1.21343e-319
1.27074e-319
1.33082e-319
1.39386e-319
1.46006e-319
1.52933e-319
1.60196e-319
1.67814e-319
1.75798e-319
1.84158e-319
1.92923e-319
2.02102e-319
2.11717e-319
2.21796e-319
2.32359e-319
2.43416e-319
2.54997e-319
2.67131e-319
2.79829e-319
2.93129e-319
3.07052e-319
3.21617e-319
3.36874e-319
3.52812e-319
3.69492e-319
3.86942e-319
4.05233e-319
8.71532e-320
8.71927e-320
8.72125e-320
8.72223e-320
8.72125e-320
8.71927e-320
8.71729e-320
8.71532e-320
8.71334e-320
8.71235e-320
8.71334e-320
8.71532e-320
8.72125e-320
8.7331e-320
8.74694e-320
8.75682e-320
8.75682e-320
8.74101e-320
8.71532e-320
8.68666e-320
1.05819e-319
1.1073e-319
1.15898e-319
1.21343e-319
1.27064e-319
1.33062e-319
1.39366e-319
1.45967e-319
1.52884e-319
1.60137e-319
1.67745e-319
1.7571e-319
1.84059e-319
1.92804e-319
2.01974e-319
2.11569e-319
2.21628e-319
2.32161e-319
2.43199e-319
2.5475e-319
2.66855e-319
2.79523e-319
2.92783e-319
3.06676e-319
3.21202e-319
3.36399e-319
3.52298e-319
3.68929e-319
3.8632e-319
4.04551e-319
8.71729e-320
8.72125e-320
8.72322e-320
8.72421e-320
8.72322e-320
8.72223e-320
8.72026e-320
8.71729e-320
8.71631e-320
8.71532e-320
8.71532e-320
8.71828e-320
8.7252e-320
8.73508e-320
8.74891e-320
8.75978e-320
8.7588e-320
8.74397e-320
8.71729e-320
8.68864e-320
1.05829e-319
1.1073e-319
1.15908e-319
1.21343e-319
1.27054e-319
1.33042e-319
1.39336e-319
1.45927e-319
1.52844e-319
1.60077e-319
1.67666e-319
1.7563e-319
1.83951e-319
1.92686e-319
2.01836e-319
2.11411e-319
2.2144e-319
2.31954e-319
2.42962e-319
2.54483e-319
2.66558e-319
2.79196e-319
2.92428e-319
3.06261e-319
3.20747e-319
3.35905e-319
3.51755e-319
3.68316e-319
3.85668e-319
4.03829e-319
8.71927e-320
8.72322e-320
8.72619e-320
8.72718e-320
8.72619e-320
8.7252e-320
8.72322e-320
8.72125e-320
8.71927e-320
8.71828e-320
8.71828e-320
8.72125e-320
8.72718e-320
8.73903e-320
8.75188e-320
8.76275e-320
8.76176e-320
8.74694e-320
8.71927e-320
8.69061e-320
1.05849e-319
1.1075e-319
1.15908e-319
1.21343e-319
1.27034e-319
1.33022e-319
1.39307e-319
1.45888e-319
1.52785e-319
1.60018e-319
1.67587e-319
1.75532e-319
1.83852e-319
1.92567e-319
2.01687e-319
2.11243e-319
2.21262e-319
2.31737e-319
2.42725e-319
2.54217e-319
2.66252e-319
2.78851e-319
2.92042e-319
3.05846e-319
3.20283e-319
3.35392e-319
3.51182e-319
3.67684e-319
3.84966e-319
4.03079e-319
8.72223e-320
8.72619e-320
8.72915e-320
8.72915e-320
8.72915e-320
8.72718e-320
8.7252e-320
8.72322e-320
8.72223e-320
8.72125e-320
8.72125e-320
8.72421e-320
8.73113e-320
8.74101e-320
8.75484e-320
8.76472e-320
8.76472e-320
8.74891e-320
8.72322e-320
8.69358e-320
1.05868e-319
1.1075e-319
1.15908e-319
1.21333e-319
1.27034e-319
1.33002e-319
1.39277e-319
1.45848e-319
1.52735e-319
1.59959e-319
1.67508e-319
1.75433e-319
1.83733e-319
1.92429e-319
2.01539e-319
2.11065e-319
2.21055e-319
2.31519e-319
2.42468e-319
2.5393e-319
2.65926e-319
2.78495e-319
2.91637e-319
3.05392e-319
3.19789e-319
3.34838e-319
3.50569e-319
3.67022e-319
3.84235e-319
4.02288e-319
8.7252e-320
8.72915e-320
8.73113e-320
8.73212e-320
8.73212e-320
8.73113e-320
8.72915e-320
8.72718e-320
8.7252e-320
8.7252e-320
8.7252e-320
8.72718e-320
8.73409e-320
8.74496e-320
8.7588e-320
8.76868e-320
8.76769e-320
8.75188e-320
8.7252e-320
8.69556e-320
1.05888e-319
1.1077e-319
1.15918e-319
1.21333e-319
1.27014e-319
1.32983e-319
1.39247e-319
1.45809e-319
1.52686e-319
1.5988e-319
1.67429e-319
1.75334e-319
1.83615e-319
1.9229e-319
2.01381e-319
2.10887e-319
2.20847e-319
2.31282e-319
2.42191e-319
2.53634e-319
2.6559e-319
2.78119e-319
2.91222e-319
3.04927e-319
3.19265e-319
3.34265e-319
3.49937e-319
3.6632e-319
3.83464e-319
4.01448e-319
8.72718e-320
8.73113e-320
8.73409e-320
8.73508e-320
8.73508e-320
8.7331e-320
8.73212e-320
8.73014e-320
8.72915e-320
8.72816e-320
8.72915e-320
8.73113e-320
8.73706e-320
8.74891e-320
8.76176e-320
8.77263e-320
8.77065e-320
8.75484e-320
8.72915e-320
8.69753e-320
1.05908e-319
1.10789e-319
1.15928e-319
1.21333e-319
1.27014e-319
1.32973e-319
1.39218e-319
1.45769e-319
1.52627e-319
1.5982e-319
1.6735e-319
1.75235e-319
1.83496e-319
1.92152e-319
2.01203e-319
2.10689e-319
2.2063e-319
2.31025e-319
2.41914e-319
2.53307e-319
2.65234e-319
2.77714e-319
2.90768e-319
3.04433e-319
3.18712e-319
3.33652e-319
3.49265e-319
3.65579e-319
3.82644e-319
4.00559e-319
8.72915e-320
8.73409e-320
8.73706e-320
8.73805e-320
8.73805e-320
8.73706e-320
8.73508e-320
8.73409e-320
8.7331e-320
8.73212e-320
8.7331e-320
8.73508e-320
8.742e-320
8.75287e-320
8.76571e-320
8.77559e-320
8.77461e-320
8.7588e-320
8.73212e-320
8.70148e-320
1.05938e-319
1.10809e-319
1.15937e-319
1.21333e-319
1.27005e-319
1.32953e-319
1.39188e-319
1.4573e-319
1.52567e-319
1.59741e-319
1.67261e-319
1.75127e-319
1.83368e-319
1.91994e-319
2.01035e-319
2.10492e-319
2.20393e-319
2.30768e-319
2.41618e-319
2.52981e-319
2.64859e-319
2.77289e-319
2.90303e-319
3.0391e-319
3.18139e-319
3.3301e-319
3.48553e-319
3.64798e-319
3.81794e-319
3.9962e-319
8.73212e-320
8.73706e-320
8.74002e-320
8.74101e-320
8.74101e-320
8.74101e-320
8.73903e-320
8.73805e-320
8.73706e-320
8.73607e-320
8.73706e-320
8.73903e-320
8.74595e-320
8.75682e-320
8.77065e-320
8.78053e-320
8.77856e-320
8.76275e-320
8.73508e-320
8.70445e-320
1.05967e-319
1.10829e-319
1.15947e-319
1.21343e-319
1.26995e-319
1.32943e-319
1.39168e-319
1.4569e-319
1.52518e-319