/*--------------------------------*- C++ -*----------------------------------*\
  =========                 |
  \\      /  F ield         | OpenFOAM: The Open Source CFD Toolbox
   \\    /   O peration     | Website:  https://openfoam.org
    \\  /    A nd           | Version:  9
     \\/     M anipulation  |
\*---------------------------------------------------------------------------*/
FoamFile
{
    format      ascii;
    class       volScalarField;
    location    "0.15";
    object      p_rgh;
}
// * * * * * * * * * * * * * * * * * * * * * * * * * * * * * * * * * * * * * //

dimensions      [1 -1 -2 0 0 0 0];

internalField   nonuniform List<scalar> 
5000
(
0.00328829
0.00327838
0.00329767
0.00335267
0.00343464
0.00352484
0.00360422
0.00365833
0.00367736
0.00365267
0.00356676
0.00338507
0.00303375
0.0023875
0.00136674
0.00031792
0.000233498
0.00137046
0.00254853
0.00303386
0.00298159
0.00274982
0.00245048
0.00213213
0.00181587
0.00151242
0.00122802
0.000966537
0.000730345
0.000520733
0.000338183
0.000182545
5.31529e-05
-5.10817e-05
-0.000131609
-0.00019019
-0.000228852
-0.000249868
-0.000255743
-0.000249205
-0.000233191
-0.000210814
-0.000185292
-0.000159797
-0.000137138
-0.000119295
-0.000106892
-9.83838e-05
-9.04505e-05
-6.66608e-05
0.00824966
0.00836432
0.00848871
0.00862232
0.00875523
0.00887244
0.00895888
0.00900208
0.00899152
0.00891487
0.00875283
0.00847519
0.0080418
0.00742589
0.00667824
0.00604316
0.00599573
0.00658267
0.00711928
0.00721805
0.00697922
0.00661975
0.006192
0.00573614
0.00527416
0.00481917
0.00437953
0.00396065
0.00356603
0.0031977
0.00285665
0.00254298
0.00225614
0.00199505
0.00175825
0.00154392
0.00135002
0.00117434
0.00101462
0.000868575
0.000734098
0.000609348
0.000492929
0.00038407
0.000282844
0.000190381
0.000108991
4.19883e-05
-8.85807e-06
-3.56529e-05
0.0118418
0.0120327
0.0122172
0.0123938
0.012555
0.0126887
0.0127819
0.0128231
0.0128018
0.0127054
0.0125187
0.0122222
0.0118
0.0112584
0.0106453
0.0100946
0.00990128
0.0101166
0.0102779
0.010129
0.00975184
0.00929359
0.00876902
0.00821197
0.00764378
0.00707865
0.00652632
0.00599342
0.00548436
0.00500194
0.00454768
0.00412208
0.0037249
0.00335532
0.00301207
0.00269358
0.00239806
0.00212369
0.00186867
0.00163134
0.00141026
0.00120431
0.00101269
0.00083488
0.000670623
0.000519753
0.000382239
0.000258663
0.000147786
4.08379e-05
0.0152447
0.0155055
0.0157471
0.0159671
0.0161596
0.0163137
0.0164183
0.016463
0.0164377
0.016331
0.0161317
0.0158278
0.0154135
0.014903
0.0143385
0.0138035
0.0134945
0.0134544
0.0133454
0.0129903
0.0124663
0.0118895
0.0112531
0.0105859
0.00990698
0.00923004
0.00856505
0.00791918
0.00729746
0.00670323
0.0061385
0.0056042
0.00510045
0.00462674
0.00418206
0.0037651
0.00337437
0.00300828
0.00266534
0.0023441
0.00204329
0.00176176
0.00149846
0.00125241
0.00102264
0.000808045
0.000607461
0.000420359
0.000246735
8.035e-05
0.0189671
0.0193024
0.0196064
0.0198764
0.0201065
0.0202872
0.0204091
0.0204623
0.0204374
0.0203248
0.0201161
0.0198046
0.0193893
0.0188858
0.0183327
0.0177829
0.017354
0.017072
0.0167134
0.0161586
0.0154802
0.0147728
0.0140107
0.0132195
0.0124163
0.0116146
0.0108245
0.0100536
0.00930748
0.00859001
0.00790368
0.0072499
0.00662918
0.00604133
0.00548562
0.00496096
0.00446603
0.00399938
0.00355956
0.00314514
0.00275473
0.002387
0.00204063
0.00171433
0.00140689
0.00111707
0.000843584
0.000585704
0.000343558
0.00011375
0.0228687
0.0232813
0.0236512
0.0239753
0.0242473
0.0244593
0.0246029
0.0246685
0.0246474
0.0245318
0.0243153
0.0239943
0.0235707
0.023059
0.0224916
0.0218997
0.0213483
0.0208476
0.0202622
0.0195106
0.0186702
0.0178237
0.016927
0.0160023
0.0150655
0.0141299
0.0132058
0.0123013
0.0114223
0.0105734
0.00975756
0.00897659
0.00823144
0.00752221
0.00684845
0.00620926
0.00560347
0.00502973
0.00448663
0.00397273
0.00348662
0.00302691
0.0025922
0.00218117
0.00179254
0.00142506
0.00107743
0.000748774
0.00043901
0.00014516
0.0267558
0.0272456
0.0276828
0.0280626
0.0283793
0.0286259
0.0287941
0.0288749
0.0288604
0.0287439
0.0285201
0.0281868
0.0277474
0.0272138
0.0266119
0.0259607
0.0252963
0.0246196
0.023839
0.0228995
0.0218933
0.020902
0.0198651
0.018802
0.0177273
0.0166541
0.0155928
0.0145518
0.0135375
0.0125548
0.0116072
0.0106969
0.00982523
0.00899264
0.00819892
0.00744341
0.00672513
0.00604289
0.00539538
0.00478125
0.00419914
0.00364765
0.00312537
0.00263092
0.00216292
0.00172
0.00130074
0.000904121
0.000529829
0.000174853
0.0306071
0.0311741
0.031679
0.0321162
0.0324803
0.0327643
0.0329597
0.0330584
0.0330528
0.0329368
0.0327056
0.0323577
0.0318962
0.0313306
0.0306817
0.0299627
0.0291941
0.0283705
0.0274196
0.0263029
0.0251319
0.0239935
0.0228131
0.0216082
0.020393
0.0191803
0.0179805
0.0168019
0.0156513
0.0145341
0.0134541
0.0124139
0.0114152
0.0104586
0.0095443
0.00867195
0.00784078
0.00704981
0.00629788
0.00558372
0.00490597
0.00426323
0.00365403
0.00307686
0.00253019
0.0020125
0.0015222
0.00105812
0.000619842
0.00020423
0.0344739
0.0351193
0.035693
0.0361898
0.0366039
0.0369278
0.0371533
0.0372724
0.0372781
0.0371641
0.0369258
0.0365618
0.0360745
0.035471
0.0347683
0.0339761
0.0331053
0.0321456
0.0310368
0.0297504
0.028417
0.0271309
0.0258048
0.0244557
0.0230977
0.0217433
0.020403
0.0190852
0.017797
0.016544
0.0153303
0.0141588
0.0130315
0.0119494
0.0109131
0.00992236
0.00897685
0.00807574
0.00721801
0.00640245
0.00562771
0.00489234
0.00419475
0.00353333
0.00290643
0.00231233
0.00174931
0.00121609
0.000712174
0.000234366
0.0383827
0.039108
0.0397527
0.0403117
0.0407785
0.0411451
0.0414036
0.0415461
0.0415653
0.0414548
0.04121
0.040829
0.0403136
0.0396686
0.0389078
0.0380389
0.0370661
0.0359751
0.0347146
0.0332623
0.0317671
0.0303324
0.0288585
0.0273626
0.0258592
0.0243606
0.0228774
0.0214182
0.0199904
0.0185995
0.0172501
0.0159452
0.0146871
0.0134774
0.0123167
0.0112054
0.0101433
0.00912974
0.00816392
0.00724466
0.0063706
0.00554023
0.0047519
0.00400389
0.0032944
0.00262161
0.00198365
0.00137912
0.000807454
0.000265518
0.0423309
0.043138
0.0438563
0.0444803
0.0450025
0.045415
0.0457097
0.0458785
0.0459136
0.0458084
0.045558
0.0451598
0.0446147
0.0439259
0.0431045
0.042157
0.0410834
0.0398655
0.0384579
0.0368416
0.035184
0.033599
0.0319749
0.0303297
0.0286781
0.0270327
0.0254041
0.0238012
0.0222315
0.0207006
0.0192132
0.0177727
0.0163818
0.0150421
0.013755
0.0125209
0.0113399
0.0102118
0.00913562
0.0081104
0.00713475
0.00620712
0.00532576
0.00448886
0.00369451
0.00294073
0.00222554
0.00154746
0.000905872
0.000297787
0.0463124
0.0472037
0.0479986
0.0486904
0.0492712
0.0497331
0.0500675
0.0502657
0.0503195
0.0502218
0.0499673
0.0495525
0.0489773
0.0482435
0.0473603
0.0463334
0.0451601
0.0438192
0.0422678
0.0404888
0.038668
0.0369309
0.0351543
0.0333573
0.0315547
0.0297597
0.0279832
0.0262342
0.0245201
0.0228468
0.0212193
0.0196411
0.0181152
0.0166437
0.015228
0.0138692
0.0125675
0.0113227
0.0101342
0.00900087
0.00792145
0.00689429
0.00591758
0.0049894
0.00410774
0.00327053
0.00247563
0.00172153
0.00100765
0.000331213
0.0503276
0.0513065
0.0521811
0.052944
0.0535872
0.0541025
0.0544805
0.0547117
0.0547874
0.0547001
0.0544438
0.0540138
0.0534091
0.0526303
0.0516849
0.0505784
0.0493063
0.0478444
0.0461513
0.0442101
0.0422254
0.0403345
0.0384031
0.0364513
0.0344948
0.0325472
0.0306197
0.0287215
0.0268602
0.0250419
0.0232716
0.0215533
0.0198902
0.0182847
0.0167386
0.0152531
0.0138286
0.0124651
0.0111621
0.00991845
0.00873286
0.00760367
0.006529
0.00550686
0.00453519
0.00361181
0.0027345
0.0019017
0.00111293
0.000365766
0.0543806
0.0554509
0.0564088
0.0572469
0.0579572
0.0585302
0.0589559
0.0592243
0.0593259
0.0592525
0.0589971
0.0585542
0.0579213
0.0570982
0.0560912
0.0549053
0.0535347
0.0519532
0.0501193
0.048016
0.0458663
0.0438197
0.0417307
0.0396209
0.0375069
0.035403
0.0333207
0.0312695
0.0292574
0.0272906
0.0253745
0.0235132
0.0217104
0.0199685
0.0182897
0.0166753
0.0151258
0.0136413
0.0122213
0.0108647
0.0095703
0.00833628
0.0071608
0.00604183
0.00497725
0.00396485
0.00300231
0.00208807
0.00122174
0.000401399
0.0584749
0.0596407
0.0606863
0.0616047
0.0623869
0.0630226
0.0635009
0.0638111
0.0639432
0.0638878
0.0636367
0.0631835
0.0625245
0.0616585
0.0605908
0.0593262
0.0578578
0.0561574
0.0541831
0.0519173
0.049601
0.0473963
0.0451465
0.0428749
0.0405992
0.0383345
0.0360928
0.0338841
0.0317167
0.0295973
0.0275316
0.0255241
0.0235784
0.0216975
0.0198834
0.0181375
0.0164605
0.0148525
0.0133128
0.0118406
0.0104344
0.00909261
0.00781331
0.0065945
0.00543406
0.00432972
0.00327911
0.00228066
0.00133411
0.000438101
0.0626131
0.0638791
0.0650179
0.066022
0.0668815
0.0675853
0.0681217
0.0684792
0.0686467
0.0686137
0.068371
0.0679107
0.0672281
0.0663212
0.0651943
0.0638518
0.0622864
0.0604677
0.058353
0.0559237
0.0534388
0.0510731
0.0486589
0.0462212
0.043779
0.0413481
0.0389416
0.0365701
0.0342424
0.0319658
0.0297463
0.0275886
0.0254967
0.0234735
0.0215213
0.0196412
0.017834
0.0160996
0.0144374
0.0128465
0.0113256
0.00987288
0.0084867
0.007165
0.00590569
0.00470649
0.00356498
0.00247954
0.00145008
0.000475919
0.0667976
0.0681693
0.0694073
0.0705031
0.0714459
0.0722238
0.0728243
0.073235
0.0734435
0.0734379
0.0732078
0.0727443
0.0720411
0.0710956
0.0699111
0.0684921
0.0668303
0.0648937
0.0626382
0.060044
0.0573882
0.0548584
0.0522757
0.0496671
0.0470529
0.0444502
0.041873
0.0393328
0.0368393
0.0344003
0.0320222
0.0297101
0.0274681
0.0252992
0.0232054
0.0211879
0.0192473
0.0173834
0.0155955
0.0138828
0.0122439
0.0106772
0.00918095
0.0077533
0.00639213
0.00509514
0.00385988
0.00268474
0.00156972
0.000514905
0.071031
0.0725147
0.0738584
0.0750523
0.0760849
0.0769436
0.0776149
0.078085
0.0783402
0.0783674
0.0781548
0.077692
0.0769717
0.0759901
0.07475
0.0732557
0.0714983
0.069444
0.0670472
0.0642867
0.0614574
0.0587602
0.0560047
0.05322
0.050428
0.0476473
0.0448932
0.0421782
0.039513
0.0369059
0.034364
0.0318927
0.0294962
0.0271773
0.024938
0.0227793
0.0207016
0.0187045
0.0167875
0.0149495
0.0131892
0.0115053
0.00989589
0.00835923
0.00689322
0.00549557
0.00416376
0.00289621
0.00169303
0.000555102
0.075316
0.0769186
0.0783746
0.0796734
0.0808029
0.0817495
0.0824986
0.0830348
0.0833429
0.0834086
0.0832184
0.0827608
0.0820269
0.0810123
0.0797188
0.0781507
0.0762987
0.074127
0.0715884
0.06866
0.0656547
0.0627866
0.0598539
0.0568878
0.0539121
0.0509472
0.0480097
0.0451135
0.0422701
0.039489
0.0367775
0.0341415
0.0315851
0.0291112
0.0267216
0.0244171
0.0221978
0.0200635
0.0180133
0.0160463
0.0141613
0.0123568
0.0106311
0.00898239
0.00740863
0.0059075
0.00447644
0.00311385
0.00182
0.000596522
0.0796555
0.0813838
0.0829594
0.0843705
0.0856044
0.0866464
0.0874803
0.0880894
0.0884569
0.0885669
0.0884045
0.0879566
0.0872132
0.0861688
0.0848246
0.0831848
0.0812394
0.078951
0.0762703
0.0731726
0.0699887
0.0669462
0.0638317
0.0606789
0.0575138
0.0543583
0.0512309
0.0481469
0.0451188
0.042157
0.0392694
0.0364622
0.0337397
0.0311048
0.028559
0.0261031
0.0237371
0.0214606
0.0192729
0.017173
0.0151595
0.013231
0.0113859
0.00962215
0.00793781
0.00633049
0.00479757
0.00333744
0.0019505
0.000639138
0.0840524
0.0859136
0.0876163
0.0891474
0.0904936
0.0916384
0.0925645
0.0932533
0.0936867
0.0938472
0.0937181
0.093285
0.0925365
0.091466
0.0900743
0.0883651
0.0863281
0.0839239
0.081101
0.0778328
0.0744677
0.0712474
0.0679469
0.0646025
0.0612422
0.0578902
0.0545664
0.0512877
0.048068
0.0449183
0.0418474
0.0388617
0.0359657
0.0331625
0.0304536
0.0278397
0.025321
0.022897
0.0205668
0.0183294
0.0161835
0.0141274
0.0121595
0.0102778
0.00848007
0.00676393
0.00512666
0.00356663
0.00208438
0.000682897
0.0885097
0.0905112
0.0923488
0.0940079
0.095474
0.0967293
0.0977548
0.0985306
0.0990366
0.0992539
0.099164
0.0987511
0.0980023
0.0969101
0.0954745
0.093699
0.0915724
0.0890536
0.0860888
0.0826489
0.0791004
0.0756993
0.0722088
0.0686681
0.0651074
0.0615529
0.0580264
0.0545462
0.0511274
0.0477822
0.0445198
0.0413472
0.0382694
0.0352896
0.0324096
0.0296303
0.0269519
0.0243741
0.0218958
0.019516
0.0172332
0.0150456
0.0129514
0.0109485
0.0090346
0.00720707
0.00546308
0.00380093
0.00222131
0.000727682
0.0930296
0.0951793
0.0971597
0.0989547
0.100549
0.101922
0.103055
0.103924
0.10451
0.104791
0.104746
0.10436
0.103616
0.102507
0.101032
0.0991937
0.0969802
0.0943484
0.091242
0.0876297
0.0838959
0.0803112
0.0766272
0.0728859
0.0691198
0.0653571
0.0616214
0.0579326
0.0543071
0.0507578
0.0472951
0.0439266
0.0406576
0.0374921
0.0344322
0.0314792
0.0286334
0.0258946
0.0232618
0.0207339
0.0183091
0.0159855
0.0137612
0.0116338
0.00960067
0.00765911
0.00580604
0.00403971
0.0023609
0.000773333
0.097614
0.09992
0.102051
0.10399
0.105719
0.107219
0.108466
0.109438
0.110111
0.110462
0.11047
0.110116
0.109384
0.108264
0.106754
0.104857
0.10256
0.0998171
0.0965699
0.0927847
0.0888636
0.0850929
0.0812119
0.0772657
0.0732891
0.0693125
0.0653611
0.0614564
0.057616
0.053854
0.0501817
0.0466074
0.0431376
0.0397766
0.0365275
0.0333917
0.0303701
0.0274625
0.024668
0.0219854
0.0194128
0.0169482
0.0145893
0.0123334
0.0101778
0.00811939
0.00615487
0.00428237
0.0025028
0.000819804
0.102264
0.104735
0.107024
0.109115
0.110989
0.112622
0.113992
0.115074
0.115842
0.116272
0.11634
0.116026
0.115313
0.114188
0.11265
0.110699
0.108322
0.10547
0.102083
0.0981239
0.0940138
0.0900541
0.0859725
0.0818168
0.0776245
0.0734278
0.0692539
0.0651257
0.0610621
0.0570785
0.0531872
0.0493976
0.045717
0.0421508
0.0387026
0.0353746
0.0321681
0.029083
0.0261188
0.0232742
0.0205472
0.0179357
0.015437
0.0130483
0.0107663
0.00858782
0.0065093
0.00452862
0.00264673
0.000866984
0.106981
0.109624
0.112081
0.114332
0.116358
0.118135
0.119637
0.120838
0.12171
0.122227
0.122364
0.122099
0.121412
0.120291
0.11873
0.116731
0.114277
0.111319
0.107792
0.103658
0.0993566
0.0952045
0.0909178
0.0865477
0.0821338
0.0777106
0.0733071
0.0689477
0.0646527
0.0604386
0.056319
0.0523045
0.0484035
0.0446222
0.0409651
0.0374352
0.0340342
0.0307626
0.0276201
0.0246054
0.0217167
0.0189516
0.0163072
0.0137803
0.0113677
0.00906549
0.00687004
0.00477887
0.00279276
0.000914553
0.111765
0.114589
0.117221
0.119642
0.12183
0.12376
0.125404
0.126734
0.127721
0.128336
0.128553
0.128346
0.127695
0.126585
0.125009
0.122966
0.120439
0.117376
0.113711
0.1094
0.104903
0.100554
0.096057
0.0914664
0.0868245
0.0821679
0.0775274
0.0729289
0.0683941
0.063941
0.0595843
0.0553357
0.0512047
0.0471986
0.0433229
0.0395812
0.0359761
0.0325086
0.0291787
0.0259856
0.0229272
0.0200012
0.0172046
0.0145339
0.0119855
0.0095554
0.0072394
0.00503473
0.00294181
0.000962585
0.116615
0.119629
0.122448
0.125049
0.12741
0.129504
0.131301
0.132772
0.133885
0.13461
0.134918
0.134781
0.134176
0.133085
0.131501
0.12942
0.126824
0.123658
0.119852
0.115362
0.110665
0.106114
0.1014
0.096582
0.0917048
0.0868071
0.0819216
0.0770758
0.072293
0.0675922
0.0629895
0.0584977
0.0541275
0.0498872
0.0457832
0.0418203
0.0380016
0.0343291
0.0308031
0.0274228
0.0241867
0.0210921
0.0181362
0.0153153
0.0126255
0.0100624
0.00762132
0.00529903
0.00309559
0.00101182
0.121531
0.124746
0.127761
0.130554
0.1331
0.135371
0.137336
0.138962
0.140215
0.141064
0.141475
0.14142
0.140872
0.13981
0.138225
0.136112
0.133449
0.130181
0.126234
0.12156
0.116657
0.111896
0.106959
0.101906
0.0967847
0.0916373
0.0864981
0.0813962
0.0763563
0.0713988
0.0665409
0.0617968
0.0571782
0.0526945
0.0483533
0.0441603
0.0401194
0.0362331
0.0325023
0.0289265
0.0255044
0.0222335
0.0191108
0.0161326
0.0132948
0.0105926
0.00802075
0.00557546
0.00325634
0.0010632
0.12651
0.129937
0.133162
0.136161
0.138908
0.141371
0.143519
0.145315
0.146725
0.147712
0.148242
0.148281
0.147801
0.146779
0.1452
0.143059
0.140333
0.136963
0.132873
0.128011
0.122895
0.117918
0.112749
0.107451
0.102077
0.0966702
0.0912672
0.0858991
0.080592
0.0753679
0.0702452
0.0652393
0.0603632
0.0556275
0.0510407
0.0466094
0.0423383
0.0382303
0.0342866
0.0305072
0.0268909
0.0234357
0.0201383
0.0169952
0.0140018
0.0111531
0.00844334
0.00586814
0.00342656
0.00111756
0.13155
0.135204
0.138654
0.141874
0.144838
0.147512
0.14986
0.151845
0.153428
0.154571
0.155235
0.155384
0.154984
0.15401
0.152446
0.150283
0.147496
0.144025
0.13979
0.134735
0.129399
0.124198
0.118787
0.113235
0.107598
0.10192
0.0962416
0.0905956
0.0850098
0.0795079
0.0741098
0.0688323
0.0636897
0.0586937
0.0538535
0.0491765
0.0446677
0.0403303
0.0361662
0.0321754
0.0283571
0.0247093
0.0212291
0.0179126
0.0147552
0.0117514
0.00889511
0.00618141
0.00360887
0.00117587
0.13665
0.140546
0.144238
0.147699
0.150898
0.153802
0.156371
0.158564
0.160341
0.161657
0.162473
0.162745
0.162439
0.161525
0.159983
0.157803
0.154958
0.151387
0.147005
0.141752
0.13619
0.130757
0.125095
0.119278
0.113365
0.107403
0.101436
0.0954992
0.0896217
0.0838295
0.0781446
0.0725852
0.0671668
0.061902
0.0568008
0.0518706
0.0471168
0.042543
0.0381509
0.0339412
0.029913
0.0260644
0.0223927
0.0188938
0.0155631
0.0123948
0.0093821
0.00651976
0.00380601
0.00123926
0.141807
0.145964
0.149916
0.153638
0.157096
0.16025
0.163062
0.165486
0.167476
0.168986
0.16997
0.170383
0.170184
0.16934
0.16783
0.165639
0.162741
0.15907
0.154539
0.149086
0.14329
0.137616
0.131694
0.125601
0.119398
0.11314
0.106869
0.100626
0.0944424
0.0883466
0.0823624
0.07651
0.0708059
0.0652633
0.0598925
0.0547011
0.0496947
0.0448769
0.0402494
0.035813
0.0315669
0.0275093
0.0236374
0.0199469
0.0164331
0.0130897
0.00990959
0.00688711
0.00402029
0.00130851
0.147021
0.151458
0.155693
0.159698
0.163436
0.166865
0.169942
0.172619
0.174845
0.176569
0.17774
0.17831
0.178233
0.177473
0.176003
0.173809
0.170862
0.167093
0.162414
0.156756
0.150721
0.1448
0.138607
0.132225
0.12572
0.119149
0.11256
0.105995
0.0994901
0.0930765
0.08678
0.0806224
0.0746211
0.0687901
0.0631398
0.057678
0.0524101
0.0473398
0.0424688
0.0377976
0.0333255
0.0290505
0.0249693
0.0210776
0.0173701
0.0138403
0.0104807
0.00728556
0.00425283
0.0013837
0.152292
0.15703
0.16157
0.165882
0.169923
0.173652
0.177018
0.179971
0.182455
0.184414
0.185792
0.186537
0.186598
0.185934
0.184517
0.182329
0.179338
0.175476
0.170649
0.164783
0.158504
0.152328
0.145854
0.139172
0.132351
0.125452
0.118529
0.111627
0.104786
0.0980403
0.0914172
0.0849406
0.078629
0.0724968
0.066555
0.0608115
0.0552717
0.049939
0.0448151
0.0399002
0.0351931
0.0306914
0.0263912
0.0222878
0.0183754
0.0146472
0.0110957
0.00771496
0.00450348
0.00146461
0.15762
0.16268
0.16755
0.172191
0.176561
0.180613
0.184293
0.187545
0.190309
0.192525
0.194132
0.195071
0.195288
0.194736
0.193385
0.191212
0.188187
0.184235
0.179262
0.173188
0.166659
0.160221
0.153457
0.146462
0.139312
0.132072
0.124801
0.117547
0.110355
0.103261
0.0962965
0.0894855
0.0828482
0.0764
0.0701523
0.0641135
0.0582889
0.052682
0.047294
0.0421245
0.0371717
0.0324323
0.027902
0.0235751
0.0194457
0.0155069
0.0117512
0.00817294
0.00477092
0.00155096
0.163007
0.168411
0.173632
0.178627
0.18335
0.187748
0.191765
0.195341
0.198409
0.200905
0.202762
0.203916
0.204308
0.203887
0.202617
0.200473
0.197422
0.193388
0.188272
0.181988
0.175206
0.168498
0.161435
0.154117
0.146625
0.139031
0.131398
0.123779
0.116221
0.108764
0.101441
0.0942788
0.0872988
0.0805176
0.0739476
0.0675975
0.0614731
0.0555774
0.0499111
0.0444733
0.0392612
0.0342708
0.0294968
0.0249336
0.0205746
0.0164131
0.0124418
0.0086552
0.00505268
0.00164224
0.168451
0.174222
0.179817
0.185188
0.190286
0.195054
0.199433
0.203355
0.206752
0.209551
0.211682
0.213076
0.213665
0.213395
0.212224
0.210124
0.207059
0.202951
0.197695
0.191203
0.184163
0.177178
0.169807
0.162155
0.154311
0.146352
0.138344
0.130346
0.122408
0.114572
0.106874
0.0993425
0.0920016
0.0848691
0.0779584
0.071279
0.0648366
0.0586343
0.0526722
0.0469488
0.0414605
0.0362026
0.0311697
0.0263556
0.0217539
0.0173581
0.0131607
0.00915666
0.00534575
0.00173766
0.173955
0.180113
0.186102
0.191871
0.197365
0.202527
0.20729
0.211585
0.215335
0.218464
0.220896
0.222554
0.223366
0.22327
0.222218
0.22018
0.217114
0.212942
0.207553
0.200852
0.19355
0.186283
0.178595
0.170601
0.162394
0.154058
0.145663
0.137272
0.128938
0.120706
0.112616
0.104698
0.0969772
0.0894741
0.0822028
0.0751735
0.0683924
0.0618623
0.0555833
0.0495534
0.0437688
0.0382248
0.0329156
0.0278353
0.0229775
0.0183356
0.0139026
0.00967324
0.00564768
0.00183633
0.179516
0.18608
0.192483
0.19867
0.204583
0.210161
0.215334
0.220026
0.224157
0.227645
0.230406
0.232358
0.23342
0.233524
0.232616
0.230658
0.227609
0.223383
0.217867
0.210959
0.203392
0.195836
0.187824
0.179477
0.170896
0.16217
0.153375
0.144576
0.135831
0.127188
0.118688
0.110364
0.102245
0.0943509
0.0866976
0.0792959
0.0721526
0.0652708
0.058651
0.0522913
0.0461884
0.0403377
0.0347339
0.0293711
0.0242432
0.0193437
0.0146656
0.0102035
0.00595756
0.00193769
0.185131
0.192119
0.198955
0.20558
0.211934
0.217952
0.223561
0.228679
0.233222
0.237099
0.240221
0.242499
0.243842
0.244175
0.243435
0.24158
0.238564
0.234298
0.228663
0.221551
0.213716
0.205867
0.197521
0.188811
0.179844
0.170714
0.161503
0.152281
0.143108
0.134035
0.125107
0.11636
0.107822
0.0995153
0.0914569
0.0836585
0.0761278
0.0688689
0.0618832
0.0551695
0.0487254
0.0425469
0.0366293
0.0309671
0.0255546
0.0203854
0.0154522
0.0107492
0.0062763
0.0020418
0.190794
0.198224
0.205511
0.212595
0.219414
0.225899
0.231972
0.237548
0.242534
0.246836
0.250355
0.252992
0.254651
0.255243
0.254699
0.252971
0.250007
0.245716
0.239972
0.232659
0.224555
0.216405
0.207718
0.198633
0.189265
0.179716
0.170072
0.160408
0.150789
0.141269
0.131894
0.122702
0.113723
0.10498
0.0964924
0.0882719
0.0803281
0.0726665
0.0652898
0.0581981
0.0513899
0.0448625
0.0386117
0.0326329
0.0269207
0.0214687
0.0162689
0.011315
0.00660646
0.00214936
0.196496
0.204386
0.212145
0.219711
0.22702
0.234001
0.240572
0.24664
0.252108
0.256873
0.260826
0.26386
0.265869
0.266753
0.266435
0.264859
0.261969
0.257668
0.251825
0.244318
0.235943
0.227488
0.218449
0.208976
0.199192
0.189205
0.179109
0.168984
0.158899
0.14891
0.139067
0.129407
0.119962
0.110759
0.101815
0.0931464
0.0847638
0.0766745
0.0688824
0.0613893
0.0541951
0.047298
0.0406954
0.034383
0.0283555
0.0226062
0.0171264
0.0119088
0.00695296
0.00226221
0.202223
0.210594
0.218847
0.226922
0.234752
0.242264
0.249368
0.255969
0.261959
0.267227
0.271655
0.275127
0.277523
0.278734
0.278673
0.277276
0.274482
0.270189
0.26426
0.256564
0.247918
0.239153
0.229753
0.219877
0.20966
0.199217
0.188649
0.178041
0.167467
0.156985
0.146647
0.136493
0.126556
0.116863
0.107437
0.0982945
0.0894476
0.0809057
0.0726745
0.0647575
0.057156
0.0498699
0.0428973
0.0362344
0.0298755
0.023813
0.0180373
0.0125402
0.00732148
0.00238206
0.207962
0.216836
0.225611
0.234225
0.242612
0.250692
0.258373
0.265548
0.272105
0.27792
0.282868
0.286817
0.289641
0.291216
0.291444
0.290254
0.28758
0.283314
0.277313
0.269436
0.26052
0.251439
0.241668
0.231376
0.220709
0.20979
0.198729
0.187614
0.176525
0.165522
0.154661
0.143982
0.133523
0.123314
0.113377
0.103733
0.0943957
0.0853761
0.0766821
0.0683188
0.0602896
0.0525955
0.0452351
0.0382045
0.0314974
0.0251048
0.0190156
0.0132201
0.00771832
0.00251019
0.213695
0.223099
0.232426
0.241616
0.2506
0.259293
0.267595
0.275393
0.282563
0.288974
0.294486
0.298958
0.302251
0.304227
0.30478
0.303827
0.301298
0.29708
0.291022
0.282973
0.273788
0.264388
0.254237
0.243517
0.232382
0.220969
0.20939
0.197743
0.186108
0.174555
0.163137
0.151903
0.140891
0.130134
0.119658
0.109484
0.0996295
0.0901065
0.0809253
0.0720933
0.0636151
0.0554925
0.0477245
0.0403074
0.033235
0.0264987
0.0200864
0.0139849
0.00819119
0.00268715
0.219404
0.229368
0.239284
0.249091
0.258716
0.268069
0.277042
0.285513
0.293348
0.300403
0.306529
0.31157
0.31538
0.317797
0.318711
0.31803
0.315674
0.311526
0.305428
0.297216
0.287765
0.278043
0.267504
0.256343
0.244726
0.232796
0.220675
0.208466
0.196256
0.184117
0.172111
0.160288
0.148691
0.137355
0.126309
0.115577
0.105176
0.0951238
0.085431
0.0761062
0.0671541
0.0585754
0.0503674
0.0425244
0.0350388
0.0279019
0.0211036
0.0146381
0.00852706
0.00279386
0.225069
0.235628
0.246172
0.25664
0.266955
0.277019
0.286715
0.295913
0.304466
0.31222
0.319013
0.324677
0.329044
0.331953
0.333271
0.332897
0.330745
0.326693
0.320573
0.312212
0.302498
0.292451
0.281517
0.269904
0.257786
0.245317
0.232626
0.219825
0.207005
0.194248
0.181618
0.169173
0.156957
0.145009
0.133362
0.122041
0.111068
0.100461
0.0902342
0.0803955
0.0709494
0.061896
0.0532318
0.0449501
0.0370419
0.0294966
0.0223014
0.0154392
0.00889705
0.00270666
0.23067
0.24186
0.253076
0.264253
0.275307
0.286133
0.296607
0.306587
0.315916
0.324427
0.331945
0.338288
0.343271
0.346722
0.34849
0.348465
0.346554
0.342626
0.336506
0.328009
0.318036
0.307663
0.296327
0.284248
0.271612
0.258579
0.245288
0.231861
0.218398
0.204985
0.191696
0.178591
0.165721
0.153128
0.140848
0.128909
0.117336
0.106151
0.0953658
0.084991
0.0750308
0.0654858
0.0563535
0.047628
0.0393005
0.0313589
0.0237895
0.0165731
0.00966703
0.00302579
0.236189
0.248048
0.259978
0.271909
0.283752
0.295395
0.306703
0.317524
0.32769
0.337021
0.345328
0.352414
0.358078
0.362131
0.364405
0.364777
0.363147
0.359377
0.353282
0.344664
0.334438
0.323737
0.311991
0.29943
0.286252
0.272628
0.258707
0.244618
0.230473
0.216367
0.20238
0.188577
0.175015
0.161741
0.148794
0.136207
0.124006
0.112211
0.100838
0.0898932
0.0793815
0.0693022
0.059651
0.05042
0.041598
0.0331709
0.025125
0.0174552
0.010153
0.00319038
0.241604
0.254169
0.266855
0.279586
0.292267
0.304779
0.316978
0.328702
0.339772
0.349994
0.359163
0.367067
0.373486
0.378209
0.381052
0.381879
0.380577
0.377003
0.370961
0.36224
0.351767
0.340734
0.328566
0.315506
0.301761
0.287516
0.272929
0.258143
0.243277
0.228436
0.213708
0.199165
0.184871
0.170878
0.157228
0.143958
0.131095
0.118659
0.106661
0.0951107
0.08401
0.0733583
0.0631511
0.0533811
0.0440393
0.0351158
0.0265993
0.0184851
0.0107719
0.00342259
0.246896
0.2602
0.27368
0.287254
0.30082
0.314254
0.327404
0.340098
0.352145
0.363336
0.373451
0.382257
0.389514
0.39499
0.398476
0.399822
0.398903
0.395568
0.389611
0.380806
0.370091
0.358721
0.346118
0.332537
0.318198
0.303298
0.288011
0.272487
0.256857
0.241237
0.225722
0.210394
0.195324
0.18057
0.16618
0.15219
0.138627
0.125512
0.112856
0.100667
0.0889464
0.0776947
0.066907
0.0565767
0.0466955
0.0372542
0.028241
0.0196465
0.0114686
0.00368129
0.25204
0.266113
0.280421
0.294877
0.309375
0.323785
0.337949
0.351685
0.36479
0.37704
0.388194
0.398
0.406191
0.412509
0.416722
0.41866
0.418186
0.415139
0.409302
0.400435
0.389481
0.377768
0.364712
0.350585
0.335622
0.320034
0.304006
0.287703
0.271265
0.254818
0.238469
0.222309
0.206418
0.190859
0.175684
0.16093
0.146626
0.132791
0.119438
0.106574
0.0942007
0.0823158
0.0709147
0.0599905
0.049535
0.0395384
0.0299886
0.0208753
0.0121981
0.00394186
0.257009
0.271877
0.287044
0.302419
0.317896
0.333338
0.348584
0.363442
0.377695
0.391101
0.403399
0.414311
0.423542
0.430803
0.435837
0.438449
0.438488
0.435784
0.430106
0.421198
0.41001
0.397945
0.384416
0.369716
0.354095
0.337781
0.320972
0.303844
0.286552
0.269232
0.252001
0.234964
0.218205
0.201794
0.185785
0.170218
0.155123
0.140521
0.126424
0.112839
0.0997679
0.0872066
0.0751502
0.0635922
0.0525247
0.0419379
0.0318195
0.0221585
0.0129557
0.00420229
0.261771
0.277456
0.29351
0.309842
0.326346
0.342883
0.359286
0.375352
0.39085
0.40552
0.419075
0.431209
0.441595
0.44991
0.455867
0.459243
0.459872
0.45757
0.452094
0.443169
0.43175
0.419321
0.405298
0.389993
0.373679
0.356597
0.338962
0.320963
0.30277
0.284529
0.266373
0.248411
0.230738
0.213425
0.196531
0.180098
0.164158
0.148734
0.133839
0.11948
0.105657
0.0923704
0.0796138
0.067381
0.0556641
0.0444531
0.0337353
0.0234983
0.0137445
0.00446606
0.266287
0.28281
0.299779
0.317109
0.334693
0.352393
0.370033
0.387402
0.404251
0.420298
0.435231
0.44871
0.460375
0.469864
0.476855
0.481094
0.482396
0.480564
0.475337
0.466421
0.454775
0.441969
0.427426
0.411483
0.394432
0.376536
0.358027
0.339109
0.319966
0.30076
0.281632
0.262701
0.244065
0.225801
0.207969
0.190616
0.173776
0.157473
0.141722
0.126529
0.111899
0.0978328
0.0843268
0.0713747
0.0589674
0.0470939
0.0357415
0.0248973
0.014566
0.00473776
0.270515
0.287896
0.305811
0.324183
0.342907
0.361843
0.380809
0.399581
0.417893
0.435437
0.451874
0.46683
0.479905
0.490695
0.49884
0.504051
0.506121
0.504832
0.499907
0.491032
0.479162
0.465966
0.450876
0.434255
0.416421
0.397659
0.378222
0.358332
0.33819
0.31797
0.297822
0.277873
0.258224
0.238957
0.220135
0.201808
0.184012
0.166773
0.150107
0.134023
0.11853
0.10363
0.0893222
0.0756018
0.0624587
0.0498807
0.0378547
0.0263679
0.0154282
0.00502251
0.274402
0.292665
0.311562
0.331026
0.350955
0.371207
0.391593
0.411874
0.431763
0.45093
0.469004
0.485575
0.500201
0.512433
0.521863
0.528166
0.531106
0.530444
0.525882
0.517082
0.504996
0.491397
0.47573
0.458388
0.43972
0.420036
0.399613
0.378694
0.357496
0.336206
0.314983
0.293959
0.273241
0.252914
0.233046
0.213689
0.19488
0.176647
0.159011
0.141985
0.125578
0.109795
0.0946371
0.0800998
0.0661746
0.052849
0.0401088
0.0279406
0.0163534
0.00532896
0.277895
0.297066
0.316986
0.337597
0.358801
0.380453
0.402355
0.424252
0.44584
0.466761
0.486613
0.504948
0.521278
0.535104
0.545964
0.553492
0.557417
0.557475
0.553346
0.544662
0.53237
0.518356
0.502082
0.483975
0.464417
0.443751
0.42228
0.400269
0.377952
0.355527
0.333162
0.310996
0.289141
0.267689
0.24671
0.226259
0.206377
0.187094
0.168436
0.15042
0.133056
0.116348
0.100296
0.0848981
0.0701463
0.0560294
0.0425327
0.0296407
0.0173614
0.00567316
0.280933
0.301041
0.322028
0.343844
0.366396
0.389533
0.413048
0.436675
0.460086
0.482902
0.504685
0.524946
0.54315
0.558737
0.571189
0.580089
0.585125
0.586008
0.582388
0.573869
0.561384
0.546945
0.530033
0.511115
0.490613
0.468903
0.446318
0.423146
0.399637
0.376002
0.352418
0.329031
0.305962
0.283307
0.261142
0.239525
0.218503
0.19811
0.178376
0.159319
0.140951
0.123275
0.106288
0.0899868
0.0743629
0.0594072
0.0451063
0.031444
0.0184263
0.00604297
0.283454
0.304529
0.326625
0.349705
0.373675
0.39838
0.423608
0.449079
0.474448
0.49931
0.523193
0.545564
0.56583
0.583367
0.597589
0.608022
0.614309
0.616131
0.613106
0.604804
0.592143
0.577269
0.55969
0.539916
0.518411
0.495593
0.471823
0.447415
0.422635
0.397706
0.372817
0.348124
0.323754
0.299811
0.276375
0.253514
0.231279