/*--------------------------------*- C++ -*----------------------------------*\
  =========                 |
  \\      /  F ield         | OpenFOAM: The Open Source CFD Toolbox
   \\    /   O peration     | Website:  https://openfoam.org
    \\  /    A nd           | Version:  9
     \\/     M anipulation  |
\*---------------------------------------------------------------------------*/
FoamFile
{
    format      ascii;
    class       surfaceScalarField;
    location    "0.15";
    object      phi;
}
// * * * * * * * * * * * * * * * * * * * * * * * * * * * * * * * * * * * * * //

dimensions      [0 3 -1 0 0 0 0];

internalField   nonuniform List<scalar> 
9850
(
3.13395e-07
1.44433e-05
3.13379e-07
1.4422e-05
3.13358e-07
1.44103e-05
3.13339e-07
1.44087e-05
3.1333e-07
1.44158e-05
3.13332e-07
1.44285e-05
3.13341e-07
1.44431e-05
3.13357e-07
1.44566e-05
3.13377e-07
1.44666e-05
3.13405e-07
1.44709e-05
3.13451e-07
1.44662e-05
3.13543e-07
1.44466e-05
3.13718e-07
1.44007e-05
3.13955e-07
1.43149e-05
3.13992e-07
1.41908e-05
3.13491e-07
1.40771e-05
3.12827e-07
1.40642e-05
3.12722e-07
1.41871e-05
3.1305e-07
1.4375e-05
3.13349e-07
1.4545e-05
3.13492e-07
1.19791e-05
3.13555e-07
1.14772e-05
3.13582e-07
1.09815e-05
3.13592e-07
1.04985e-05
3.13592e-07
1.00309e-05
3.13587e-07
9.5801e-06
3.13576e-07
9.14635e-06
3.13562e-07
8.72966e-06
3.13545e-07
8.32981e-06
3.13525e-07
7.94644e-06
3.13503e-07
7.57911e-06
3.13479e-07
7.22734e-06
3.13454e-07
6.89063e-06
3.13427e-07
6.56845e-06
3.134e-07
6.26029e-06
3.13374e-07
5.96562e-06
3.13347e-07
5.68392e-06
3.13322e-07
5.41468e-06
3.133e-07
5.15739e-06
3.13281e-07
4.91157e-06
3.13266e-07
4.67674e-06
3.13258e-07
4.45243e-06
3.13259e-07
4.23819e-06
3.13268e-07
4.0336e-06
3.13287e-07
3.83829e-06
3.13315e-07
3.6519e-06
3.13349e-07
3.47416e-06
3.13381e-07
3.3048e-06
3.13386e-07
3.14365e-06
2.99078e-06
3.13336e-07
1.44433e-05
3.1331e-07
1.44221e-05
3.13271e-07
1.44103e-05
3.13238e-07
1.44087e-05
3.13228e-07
1.44158e-05
3.13244e-07
1.44284e-05
3.13283e-07
1.4443e-05
3.1334e-07
1.44565e-05
3.13413e-07
1.44665e-05
3.13509e-07
1.44708e-05
3.13656e-07
1.44661e-05
3.13909e-07
1.44463e-05
3.14332e-07
1.44002e-05
3.14838e-07
1.43144e-05
3.14885e-07
1.41907e-05
3.13861e-07
1.40781e-05
3.12487e-07
1.40656e-05
3.12147e-07
1.41875e-05
3.12747e-07
1.43744e-05
3.13436e-07
1.45443e-05
3.13813e-07
1.19787e-05
3.14017e-07
1.1477e-05
3.14122e-07
1.09814e-05
3.14175e-07
1.04984e-05
3.14195e-07
1.00309e-05
3.14194e-07
9.5801e-06
3.14177e-07
9.14636e-06
3.14148e-07
8.72969e-06
3.14108e-07
8.32985e-06
3.14061e-07
7.94649e-06
3.14006e-07
7.57916e-06
3.13947e-07
7.2274e-06
3.13884e-07
6.89069e-06
3.13818e-07
6.56852e-06
3.13752e-07
6.26036e-06
3.13686e-07
5.96568e-06
3.13624e-07
5.68398e-06
3.13567e-07
5.41473e-06
3.13517e-07
5.15744e-06
3.13478e-07
4.91161e-06
3.13453e-07
4.67677e-06
3.13444e-07
4.45244e-06
3.13455e-07
4.23818e-06
3.13488e-07
4.03357e-06
3.1354e-07
3.83824e-06
3.13609e-07
3.65184e-06
3.13686e-07
3.47408e-06
3.13755e-07
3.30473e-06
3.13765e-07
3.14364e-06
2.99094e-06
3.13181e-07
1.44433e-05
3.13164e-07
1.44221e-05
3.1313e-07
1.44103e-05
3.13104e-07
1.44088e-05
3.13109e-07
1.44158e-05
3.13152e-07
1.44284e-05
3.1323e-07
1.44429e-05
3.13337e-07
1.44564e-05
3.13472e-07
1.44663e-05
3.13646e-07
1.44706e-05
3.13891e-07
1.44658e-05
3.14278e-07
1.44459e-05
3.14875e-07
1.43996e-05
3.15546e-07
1.43138e-05
3.15612e-07
1.41907e-05
3.14345e-07
1.40794e-05
3.12612e-07
1.40673e-05
3.12109e-07
1.4188e-05
3.12818e-07
1.43737e-05
3.13736e-07
1.45434e-05
3.14281e-07
1.19781e-05
3.14612e-07
1.14766e-05
3.14805e-07
1.09812e-05
3.14913e-07
1.04983e-05
3.14968e-07
1.00309e-05
3.14984e-07
9.58009e-06
3.14973e-07
9.14638e-06
3.1494e-07
8.72972e-06
3.14889e-07
8.3299e-06
3.14825e-07
7.94655e-06
3.1475e-07
7.57924e-06
3.14666e-07
7.22749e-06
3.14577e-07
6.89078e-06
3.14484e-07
6.56861e-06
3.1439e-07
6.26045e-06
3.14299e-07
5.96577e-06
3.14213e-07
5.68406e-06
3.14136e-07
5.41481e-06
3.1407e-07
5.15751e-06
3.1402e-07
4.91166e-06
3.1399e-07
4.6768e-06
3.13984e-07
4.45244e-06
3.14004e-07
4.23816e-06
3.14052e-07
4.03352e-06
3.14127e-07
3.83816e-06
3.14223e-07
3.65174e-06
3.14328e-07
3.47397e-06
3.14421e-07
3.30464e-06
3.14458e-07
3.14361e-06
2.991e-06
3.12931e-07
1.44432e-05
3.12939e-07
1.44221e-05
3.12927e-07
1.44103e-05
3.12927e-07
1.44088e-05
3.12964e-07
1.44158e-05
3.13049e-07
1.44283e-05
3.13179e-07
1.44428e-05
3.13348e-07
1.44562e-05
3.13556e-07
1.44661e-05
3.13815e-07
1.44703e-05
3.14162e-07
1.44655e-05
3.14671e-07
1.44454e-05
3.15406e-07
1.43989e-05
3.16191e-07
1.4313e-05
3.1626e-07
1.41906e-05
3.14852e-07
1.40808e-05
3.12944e-07
1.40692e-05
3.12383e-07
1.41886e-05
3.13195e-07
1.43729e-05
3.14286e-07
1.45423e-05
3.14966e-07
1.19775e-05
3.15403e-07
1.14762e-05
3.15674e-07
1.0981e-05
3.1584e-07
1.04982e-05
3.15935e-07
1.00308e-05
3.15977e-07
9.58004e-06
3.1598e-07
9.14637e-06
3.15953e-07
8.72975e-06
3.15901e-07
8.32995e-06
3.15829e-07
7.94662e-06
3.15743e-07
7.57933e-06
3.15645e-07
7.22758e-06
3.15539e-07
6.89089e-06
3.15429e-07
6.56872e-06
3.15319e-07
6.26056e-06
3.15211e-07
5.96588e-06
3.1511e-07
5.68417e-06
3.1502e-07
5.4149e-06
3.14945e-07
5.15758e-06
3.14889e-07
4.91172e-06
3.14855e-07
4.67683e-06
3.14849e-07
4.45245e-06
3.14872e-07
4.23814e-06
3.14925e-07
4.03347e-06
3.15006e-07
3.83808e-06
3.15108e-07
3.65164e-06
3.15215e-07
3.47387e-06
3.15303e-07
3.30455e-06
3.15342e-07
3.14357e-06
2.99101e-06
3.12583e-07
1.44431e-05
3.12627e-07
1.4422e-05
3.12654e-07
1.44103e-05
3.12697e-07
1.44087e-05
3.12784e-07
1.44157e-05
3.12927e-07
1.44282e-05
3.13124e-07
1.44426e-05
3.1337e-07
1.4456e-05
3.13663e-07
1.44658e-05
3.14018e-07
1.447e-05
3.14474e-07
1.4465e-05
3.15101e-07
1.44448e-05
3.15951e-07
1.4398e-05
3.16805e-07
1.43121e-05
3.16857e-07
1.41905e-05
3.15382e-07
1.40823e-05
3.13442e-07
1.40712e-05
3.12914e-07
1.41891e-05
3.13844e-07
1.4372e-05
3.1509e-07
1.45411e-05
3.15887e-07
1.19767e-05
3.16417e-07
1.14757e-05
3.16763e-07
1.09806e-05
3.16986e-07
1.04979e-05
3.17124e-07
1.00306e-05
3.17199e-07
9.57997e-06
3.17224e-07
9.14635e-06
3.17211e-07
8.72977e-06
3.17166e-07
8.33e-06
3.17097e-07
7.94669e-06
3.17009e-07
7.57941e-06
3.16906e-07
7.22769e-06
3.16793e-07
6.891e-06
3.16675e-07
6.56884e-06
3.16557e-07
6.26068e-06
3.16441e-07
5.966e-06
3.16332e-07
5.68427e-06
3.16236e-07
5.415e-06
3.16155e-07
5.15766e-06
3.16094e-07
4.91178e-06
3.16058e-07
4.67687e-06
3.16048e-07
4.45246e-06
3.16068e-07
4.23812e-06
3.16117e-07
4.03342e-06
3.16191e-07
3.83801e-06
3.1628e-07
3.65155e-06
3.16367e-07
3.47378e-06
3.1643e-07
3.30449e-06
3.16453e-07
3.14355e-06
2.99101e-06
3.12134e-07
1.4443e-05
3.12227e-07
1.44219e-05
3.12307e-07
1.44102e-05
3.1241e-07
1.44086e-05
3.12564e-07
1.44155e-05
3.12781e-07
1.44279e-05
3.1306e-07
1.44423e-05
3.13395e-07
1.44556e-05
3.13786e-07
1.44654e-05
3.14249e-07
1.44695e-05
3.14821e-07
1.44645e-05
3.15568e-07
1.4444e-05
3.16518e-07
1.43971e-05
3.17417e-07
1.43112e-05
3.17453e-07
1.41905e-05
3.15973e-07
1.40838e-05
3.14089e-07
1.40731e-05
3.13678e-07
1.41895e-05
3.14747e-07
1.43709e-05
3.16139e-07
1.45397e-05
3.17046e-07
1.19757e-05
3.17666e-07
1.1475e-05
3.18086e-07
1.09802e-05
3.1837e-07
1.04976e-05
3.18557e-07
1.00305e-05
3.1867e-07
9.57986e-06
3.18725e-07
9.14629e-06
3.18734e-07
8.72976e-06
3.18706e-07
8.33003e-06
3.18648e-07
7.94675e-06
3.18566e-07
7.5795e-06
3.18467e-07
7.22778e-06
3.18356e-07
6.89111e-06
3.18238e-07
6.56896e-06
3.18118e-07
6.2608e-06
3.18e-07
5.96611e-06
3.1789e-07
5.68438e-06
3.17791e-07
5.4151e-06
3.17708e-07
5.15775e-06
3.17645e-07
4.91185e-06
3.17605e-07
4.67691e-06
3.1759e-07
4.45247e-06
3.17602e-07
4.2381e-06
3.17639e-07
4.03339e-06
3.17694e-07
3.83795e-06
3.17759e-07
3.65149e-06
3.17816e-07
3.47372e-06
3.1785e-07
3.30445e-06
3.17856e-07
3.14354e-06
2.99102e-06
3.11586e-07
1.44428e-05
3.11739e-07
1.44218e-05
3.11887e-07
1.44101e-05
3.12065e-07
1.44084e-05
3.12301e-07
1.44153e-05
3.12607e-07
1.44276e-05
3.12981e-07
1.4442e-05
3.13419e-07
1.44552e-05
3.1392e-07
1.44649e-05
3.14501e-07
1.44689e-05
3.15197e-07
1.44638e-05
3.16065e-07
1.44432e-05
3.17113e-07
1.4396e-05
3.18055e-07
1.43103e-05
3.18095e-07
1.41905e-05
3.16663e-07
1.40852e-05
3.14912e-07
1.40748e-05
3.14658e-07
1.41897e-05
3.15882e-07
1.43697e-05
3.17422e-07
1.45381e-05
3.18439e-07
1.19747e-05
3.19152e-07
1.14743e-05
3.1965e-07
1.09797e-05
3.2e-07
1.04973e-05
3.20241e-07
1.00302e-05
3.204e-07
9.5797e-06
3.20493e-07
9.1462e-06
3.20532e-07
8.72972e-06
3.20528e-07
8.33003e-06
3.20489e-07
7.94679e-06
3.20422e-07
7.57956e-06
3.20334e-07
7.22787e-06
3.20231e-07
6.89121e-06
3.20119e-07
6.56907e-06
3.20003e-07
6.26091e-06
3.19889e-07
5.96623e-06
3.1978e-07
5.68449e-06
3.19682e-07
5.4152e-06
3.19598e-07
5.15783e-06
3.19533e-07
4.91191e-06
3.19488e-07
4.67695e-06
3.19466e-07
4.4525e-06
3.19466e-07
4.2381e-06
3.19486e-07
4.03337e-06
3.1952e-07
3.83792e-06
3.19556e-07
3.65145e-06
3.19583e-07
3.47369e-06
3.19592e-07
3.30444e-06
3.19584e-07
3.14355e-06
2.99103e-06
3.10943e-07
1.44426e-05
3.11167e-07
1.44216e-05
3.11395e-07
1.44099e-05
3.1166e-07
1.44082e-05
3.11992e-07
1.4415e-05
3.124e-07
1.44272e-05
3.12883e-07
1.44415e-05
3.13435e-07
1.44546e-05
3.14058e-07
1.44643e-05
3.14766e-07
1.44682e-05
3.15594e-07
1.44629e-05
3.16588e-07
1.44422e-05
3.17738e-07
1.43949e-05
3.18737e-07
1.43093e-05
3.18811e-07
1.41904e-05
3.17475e-07
1.40865e-05
3.15899e-07
1.40764e-05
3.15835e-07
1.41898e-05
3.1723e-07
1.43683e-05
3.18927e-07
1.45364e-05
3.20059e-07
1.19736e-05
3.20871e-07
1.14735e-05
3.21453e-07
1.09791e-05
3.21875e-07
1.04969e-05
3.22179e-07
1.00299e-05
3.22391e-07
9.57949e-06
3.22529e-07
9.14606e-06
3.22606e-07
8.72964e-06
3.22633e-07
8.33e-06
3.2262e-07
7.9468e-06
3.22574e-07
7.57961e-06
3.22503e-07
7.22794e-06
3.22415e-07
6.8913e-06
3.22314e-07
6.56917e-06
3.22207e-07
6.26102e-06
3.22099e-07
5.96634e-06
3.21994e-07
5.6846e-06
3.21899e-07
5.41529e-06
3.21815e-07
5.15792e-06
3.21748e-07
4.91198e-06
3.21698e-07
4.677e-06
3.21668e-07
4.45253e-06
3.21656e-07
4.23812e-06
3.2166e-07
4.03336e-06
3.21672e-07
3.83791e-06
3.21683e-07
3.65144e-06
3.21685e-07
3.47369e-06
3.21673e-07
3.30445e-06
3.21654e-07
3.14357e-06
2.99104e-06
3.10204e-07
1.44422e-05
3.10511e-07
1.44212e-05
3.1083e-07
1.44095e-05
3.11195e-07
1.44078e-05
3.11634e-07
1.44145e-05
3.12156e-07
1.44267e-05
3.1276e-07
1.44409e-05
3.13439e-07
1.4454e-05
3.14194e-07
1.44636e-05
3.15039e-07
1.44674e-05
3.16005e-07
1.4462e-05
3.17133e-07
1.4441e-05
3.18395e-07
1.43936e-05
3.19474e-07
1.43082e-05
3.19624e-07
1.41903e-05
3.1843e-07
1.40877e-05
3.17063e-07
1.40778e-05
3.17204e-07
1.41897e-05
3.18779e-07
1.43667e-05
3.20642e-07
1.45346e-05
3.21899e-07
1.19723e-05
3.22819e-07
1.14726e-05
3.23493e-07
1.09784e-05
3.23996e-07
1.04964e-05
3.2437e-07
1.00295e-05
3.24644e-07
9.57921e-06
3.24834e-07
9.14587e-06
3.24957e-07
8.72952e-06
3.25022e-07
8.32994e-06
3.25042e-07
7.94678e-06
3.25023e-07
7.57962e-06
3.24976e-07
7.22799e-06
3.24906e-07
6.89137e-06
3.2482e-07
6.56925e-06
3.24725e-07
6.26112e-06
3.24626e-07
5.96644e-06
3.24529e-07
5.6847e-06
3.24437e-07
5.41538e-06
3.24356e-07
5.158e-06
3.24287e-07
4.91205e-06
3.24234e-07
4.67706e-06
3.24197e-07
4.45256e-06
3.24176e-07
4.23814e-06
3.24167e-07
4.03337e-06
3.24163e-07
3.83791e-06
3.24156e-07
3.65144e-06
3.2414e-07
3.47371e-06
3.24115e-07
3.30448e-06
3.24089e-07
3.14359e-06
2.99106e-06
3.09371e-07
1.44418e-05
3.09771e-07
1.44208e-05
3.10193e-07
1.44091e-05
3.10668e-07
1.44073e-05
3.11226e-07
1.4414e-05
3.11873e-07
1.44261e-05
3.12608e-07
1.44401e-05
3.13425e-07
1.44532e-05
3.14322e-07
1.44627e-05
3.15312e-07
1.44664e-05
3.16425e-07
1.44609e-05
3.17696e-07
1.44398e-05
3.19087e-07
1.43922e-05
3.20276e-07
1.4307e-05
3.2055e-07
1.419e-05
3.19544e-07
1.40887e-05
3.18412e-07
1.40789e-05
3.18765e-07
1.41893e-05
3.20523e-07
1.43649e-05
3.22561e-07
1.45325e-05
3.23953e-07
1.1971e-05
3.24991e-07
1.14716e-05
3.25769e-07
1.09777e-05
3.26363e-07
1.04958e-05
3.26817e-07
1.00291e-05
3.2716e-07
9.57887e-06
3.27412e-07
9.14562e-06
3.27587e-07
8.72934e-06
3.27698e-07
8.32983e-06
3.27757e-07
7.94672e-06
3.27772e-07
7.57961e-06
3.27752e-07
7.22801e-06
3.27705e-07
6.89142e-06
3.27639e-07
6.56932e-06
3.2756e-07
6.2612e-06
3.27473e-07
5.96652e-06
3.27385e-07
5.68479e-06
3.273e-07
5.41547e-06
3.27222e-07
5.15808e-06
3.27155e-07
4.91212e-06
3.27101e-07
4.67711e-06
3.27061e-07
4.4526e-06
3.27034e-07
4.23816e-06
3.27018e-07
4.03339e-06
3.27005e-07
3.83792e-06
3.26988e-07
3.65146e-06
3.26964e-07
3.47373e-06
3.26933e-07
3.30451e-06
3.26903e-07
3.14362e-06
2.99108e-06
3.08441e-07
1.44413e-05
3.08945e-07
1.44203e-05
3.09479e-07
1.44086e-05
3.10076e-07
1.44067e-05
3.10762e-07
1.44133e-05
3.11546e-07
1.44253e-05
3.12423e-07
1.44393e-05
3.13388e-07
1.44522e-05
3.14438e-07
1.44616e-05
3.15584e-07
1.44652e-05
3.16855e-07
1.44596e-05
3.1828e-07
1.44383e-05
3.19819e-07
1.43907e-05
3.21151e-07
1.43057e-05
3.21592e-07
1.41895e-05
3.20816e-07
1.40895e-05
3.19944e-07
1.40798e-05
3.20518e-07
1.41887e-05
3.22463e-07
1.4363e-05
3.24684e-07
1.45303e-05
3.26221e-07
1.19694e-05
3.2739e-07
1.14704e-05
3.28283e-07
1.09768e-05
3.28978e-07
1.04951e-05
3.29522e-07
1.00285e-05
3.29945e-07
9.57845e-06
3.30266e-07
9.1453e-06
3.30502e-07
8.72911e-06
3.30666e-07
8.32966e-06
3.3077e-07
7.94662e-06
3.30824e-07
7.57956e-06
3.30838e-07
7.228e-06
3.30819e-07
6.89144e-06
3.30776e-07
6.56937e-06
3.30716e-07
6.26126e-06
3.30645e-07
5.9666e-06
3.30569e-07
5.68486e-06
3.30493e-07
5.41555e-06
3.30421e-07
5.15815e-06
3.30358e-07
4.91218e-06
3.30305e-07
4.67716e-06
3.30266e-07
4.45264e-06
3.30238e-07
4.23819e-06
3.30219e-07
4.03341e-06
3.30203e-07
3.83794e-06
3.30183e-07
3.65148e-06
3.30157e-07
3.47376e-06
3.30124e-07
3.30454e-06
3.30094e-07
3.14365e-06
2.99109e-06
3.07411e-07
1.44407e-05
3.08028e-07
1.44197e-05
3.08685e-07
1.44079e-05
3.09414e-07
1.4406e-05
3.10239e-07
1.44125e-05
3.1117e-07
1.44244e-05
3.12201e-07
1.44382e-05
3.13325e-07
1.44511e-05
3.14539e-07
1.44604e-05
3.15854e-07
1.44639e-05
3.17294e-07
1.44582e-05
3.1889e-07
1.44367e-05
3.20597e-07
1.4389e-05
3.22102e-07
1.43042e-05
3.22749e-07
1.41889e-05
3.22237e-07
1.409e-05
3.21648e-07
1.40804e-05
3.22456e-07
1.41879e-05
3.24598e-07
1.43608e-05
3.27013e-07
1.45279e-05
3.28708e-07
1.19677e-05
3.30019e-07
1.14691e-05
3.31039e-07
1.09757e-05
3.31848e-07
1.04943e-05
3.32492e-07
1.00279e-05
3.33003e-07
9.57794e-06
3.33403e-07
9.1449e-06
3.33708e-07
8.7288e-06
3.33932e-07
8.32944e-06
3.34088e-07
7.94646e-06
3.34187e-07
7.57946e-06
3.3424e-07
7.22794e-06
3.34254e-07
6.89142e-06
3.34239e-07
6.56938e-06
3.34201e-07
6.2613e-06
3.34149e-07
5.96665e-06
3.34088e-07
5.68492e-06
3.34023e-07
5.41561e-06
3.3396e-07
5.15821e-06
3.33904e-07
4.91224e-06
3.33856e-07
4.67721e-06
3.33819e-07
4.45268e-06
3.33793e-07
4.23822e-06
3.33775e-07
4.03343e-06
3.33759e-07
3.83796e-06
3.33739e-07
3.6515e-06
3.33713e-07
3.47379e-06
3.33682e-07
3.30457e-06
3.33652e-07
3.14368e-06
2.99111e-06
3.06275e-07
1.444e-05
3.07015e-07
1.4419e-05
3.07805e-07
1.44071e-05
3.08676e-07
1.44051e-05
3.09652e-07
1.44115e-05
3.1074e-07
1.44233e-05
3.11936e-07
1.4437e-05
3.13233e-07
1.44498e-05
3.14625e-07
1.4459e-05
3.16122e-07
1.44624e-05
3.17747e-07
1.44565e-05
3.1953e-07
1.4435e-05
3.21427e-07
1.43871e-05
3.23132e-07
1.43025e-05
3.24014e-07
1.4188e-05
3.23793e-07
1.40902e-05
3.23509e-07
1.40806e-05
3.24571e-07
1.41869e-05
3.26928e-07
1.43585e-05
3.29554e-07
1.45253e-05
3.31419e-07
1.19659e-05
3.32886e-07
1.14676e-05
3.34046e-07
1.09746e-05
3.34978e-07
1.04933e-05
3.35734e-07
1.00271e-05
3.36344e-07
9.57733e-06
3.36831e-07
9.14441e-06
3.37213e-07
8.72842e-06
3.37505e-07
8.32915e-06
3.3772e-07
7.94625e-06
3.3787e-07
7.57931e-06
3.37967e-07
7.22785e-06
3.38019e-07
6.89137e-06
3.38035e-07
6.56937e-06
3.38025e-07
6.26131e-06
3.37995e-07
5.96668e-06
3.37951e-07
5.68497e-06
3.37901e-07
5.41566e-06
3.3785e-07
5.15826e-06
3.37803e-07
4.91228e-06
3.37762e-07
4.67725e-06
3.3773e-07
4.45271e-06
3.37707e-07
4.23824e-06
3.3769e-07
4.03344e-06
3.37675e-07
3.83797e-06
3.37655e-07
3.65152e-06
3.37628e-07
3.47381e-06
3.37596e-07
3.30461e-06
3.37565e-07
3.14371e-06
2.99113e-06
3.0503e-07
1.44392e-05
3.05901e-07
1.44181e-05
3.06834e-07
1.44062e-05
3.07858e-07
1.44041e-05
3.08995e-07
1.44104e-05
3.10253e-07
1.4422e-05
3.11626e-07
1.44357e-05
3.13108e-07
1.44483e-05
3.14693e-07
1.44574e-05
3.16388e-07
1.44607e-05
3.18216e-07
1.44547e-05
3.20204e-07
1.4433e-05
3.22311e-07
1.4385e-05
3.24241e-07
1.43005e-05
3.25381e-07
1.41869e-05
3.25472e-07
1.40901e-05
3.25514e-07
1.40806e-05
3.26856e-07
1.41855e-05
3.29453e-07
1.43559e-05
3.32311e-07
1.45224e-05
3.34361e-07
1.19638e-05
3.35997e-07
1.1466e-05
3.37309e-07
1.09733e-05
3.38378e-07
1.04923e-05
3.39255e-07
1.00263e-05
3.39974e-07
9.57661e-06
3.40558e-07
9.14383e-06
3.41025e-07
8.72795e-06
3.41393e-07
8.32878e-06
3.41674e-07
7.94597e-06
3.41882e-07
7.5791e-06
3.42029e-07
7.2277e-06
3.42124e-07
6.89128e-06
3.42177e-07
6.56931e-06
3.42197e-07
6.26129e-06
3.42193e-07
5.96668e-06
3.42171e-07
5.68499e-06
3.42138e-07
5.41569e-06
3.42101e-07
5.1583e-06
3.42064e-07
4.91232e-06
3.42032e-07
4.67728e-06
3.42006e-07
4.45274e-06
3.41987e-07
4.23826e-06
3.41971e-07
4.03346e-06
3.41955e-07
3.83799e-06
3.41932e-07
3.65154e-06
3.41902e-07
3.47384e-06
3.41865e-07
3.30464e-06
3.41831e-07
3.14375e-06
2.99115e-06
3.03671e-07
1.44382e-05
3.04681e-07
1.44171e-05
3.05766e-07
1.44051e-05
3.06953e-07
1.44029e-05
3.08263e-07
1.4409e-05
3.09702e-07
1.44206e-05
3.11266e-07
1.44341e-05
3.12947e-07
1.44466e-05
3.1474e-07
1.44556e-05
3.16651e-07
1.44588e-05
3.18699e-07
1.44527e-05
3.20912e-07
1.44308e-05
3.23251e-07
1.43827e-05
3.25426e-07
1.42984e-05
3.26847e-07
1.41854e-05
3.27269e-07
1.40897e-05
3.27657e-07
1.40802e-05
3.29307e-07
1.41839e-05
3.32174e-07
1.4353e-05
3.35288e-07
1.45193e-05
3.3754e-07
1.19616e-05
3.39359e-07
1.14642e-05
3.40836e-07
1.09718e-05
3.42054e-07
1.04911e-05
3.43065e-07
1.00252e-05
3.43903e-07
9.57577e-06
3.44593e-07
9.14314e-06
3.45155e-07
8.72739e-06
3.45606e-07
8.32833e-06
3.45961e-07
7.94562e-06
3.46234e-07
7.57883e-06
3.46436e-07
7.2275e-06
3.46579e-07
6.89114e-06
3.46673e-07
6.56922e-06
3.46728e-07
6.26123e-06
3.46753e-07
5.96666e-06
3.46756e-07
5.68499e-06
3.46744e-07
5.41571e-06
3.46723e-07
5.15832e-06
3.46699e-07
4.91234e-06
3.46676e-07
4.67731e-06
3.46656e-07
4.45276e-06
3.4664e-07
4.23827e-06
3.46625e-07
4.03347e-06
3.46605e-07
3.83801e-06
3.46578e-07
3.65157e-06
3.46541e-07
3.47388e-06
3.46499e-07
3.30469e-06
3.46459e-07
3.14379e-06
2.99118e-06
3.02192e-07
1.44372e-05
3.03349e-07
1.44159e-05
3.04596e-07
1.44039e-05
3.05956e-07
1.44016e-05
3.07449e-07
1.44076e-05
3.09082e-07
1.44189e-05
3.10851e-07
1.44323e-05
3.12747e-07
1.44447e-05
3.14764e-07
1.44536e-05
3.16908e-07
1.44567e-05
3.19195e-07
1.44504e-05
3.21653e-07
1.44283e-05
3.24245e-07
1.43801e-05
3.26688e-07
1.42959e-05
3.2841e-07
1.41837e-05
3.29182e-07
1.40889e-05
3.29939e-07
1.40795e-05
3.31924e-07
1.41819e-05
3.35091e-07
1.43499e-05
3.38487e-07
1.45159e-05
3.40959e-07
1.19591e-05
3.42977e-07
1.14622e-05
3.44633e-07
1.09701e-05
3.46013e-07
1.04897e-05
3.4717e-07
1.00241e-05
3.48139e-07
9.5748e-06
3.48946e-07
9.14233e-06
3.49612e-07
8.72673e-06
3.50155e-07
8.32779e-06
3.50591e-07
7.94518e-06
3.50934e-07
7.57849e-06
3.51198e-07
7.22724e-06
3.51395e-07
6.89094e-06
3.51535e-07
6.56908e-06
3.5163e-07
6.26114e-06
3.51688e-07
5.9666e-06
3.51718e-07
5.68495e-06
3.51729e-07
5.41569e-06
3.51726e-07
5.15832e-06
3.51716e-07
4.91235e-06
3.51703e-07
4.67732e-06
3.5169e-07
4.45277e-06
3.51677e-07
4.23829e-06
3.51661e-07
4.03349e-06
3.51638e-07
3.83803e-06
3.51605e-07
3.6516e-06
3.51561e-07
3.47393e-06
3.51511e-07
3.30474e-06
3.51465e-07
3.14383e-06
2.99121e-06
3.00587e-07
1.44359e-05
3.019e-07
1.44146e-05
3.03317e-07
1.44025e-05
3.0486e-07
1.44e-05
3.06549e-07
1.44059e-05
3.08388e-07
1.44171e-05
3.10375e-07
1.44303e-05
3.12502e-07
1.44426e-05
3.1476e-07
1.44514e-05
3.17154e-07
1.44543e-05
3.197e-07
1.44478e-05
3.22424e-07
1.44256e-05
3.2529e-07
1.43772e-05
3.28024e-07
1.42932e-05
3.3007e-07
1.41817e-05
3.31215e-07
1.40878e-05
3.32362e-07
1.40783e-05
3.34708e-07
1.41796e-05
3.38203e-07
1.43464e-05
3.41909e-07
1.45122e-05
3.44621e-07
1.19564e-05
3.46855e-07
1.14599e-05
3.48707e-07
1.09683e-05
3.50262e-07
1.04881e-05
3.51578e-07
1.00228e-05
3.52689e-07
9.57369e-06
3.53624e-07
9.1414e-06
3.54404e-07
8.72595e-06
3.55048e-07
8.32715e-06
3.55573e-07
7.94466e-06
3.55994e-07
7.57807e-06
3.56326e-07
7.22691e-06
3.56582e-07
6.89069e-06
3.56773e-07
6.56889e-06
3.56912e-07
6.261e-06
3.57006e-07
5.9665e-06
3.57068e-07
5.68489e-06
3.57103e-07
5.41566e-06
3.57121e-07
5.1583e-06
3.57127e-07
4.91235e-06
3.57125e-07
4.67732e-06
3.57119e-07
4.45278e-06
3.57109e-07
4.2383e-06
3.57093e-07
4.03351e-06
3.57067e-07
3.83806e-06
3.57028e-07
3.65164e-06
3.56977e-07
3.47398e-06
3.5692e-07
3.30479e-06
3.56869e-07
3.14389e-06
2.99124e-06
2.9885e-07
1.44345e-05
3.00327e-07
1.44132e-05
3.01923e-07
1.44009e-05
3.03659e-07
1.43983e-05
3.05554e-07
1.4404e-05
3.07614e-07
1.4415e-05
3.09834e-07
1.44281e-05
3.12206e-07
1.44402e-05
3.14722e-07
1.44488e-05
3.17385e-07
1.44516e-05
3.20209e-07
1.4445e-05
3.23219e-07
1.44226e-05
3.26382e-07
1.4374e-05
3.29432e-07
1.42901e-05
3.3183e-07
1.41793e-05
3.33371e-07
1.40863e-05
3.34931e-07
1.40767e-05
3.37665e-07
1.41768e-05
3.41514e-07
1.43425e-05
3.45556e-07
1.45082e-05
3.48528e-07
1.19534e-05
3.50997e-07
1.14574e-05
3.53061e-07
1.09662e-05
3.54808e-07
1.04864e-05
3.56296e-07
1.00213e-05
3.57563e-07
9.57243e-06
3.58636e-07
9.14033e-06
3.59541e-07
8.72505e-06
3.60295e-07
8.32639e-06
3.60917e-07
7.94404e-06
3.61424e-07
7.57756e-06
3.61831e-07
7.2265e-06
3.62152e-07
6.89036e-06
3.62399e-07
6.56864e-06
3.62585e-07
6.26081e-06
3.62721e-07
5.96637e-06
3.62816e-07
5.6848e-06
3.6288e-07
5.41559e-06
3.6292e-07
5.15826e-06
3.62943e-07
4.91232e-06
3.62954e-07
4.67731e-06
3.62956e-07
4.45277e-06
3.6295e-07
4.23831e-06
3.62934e-07
4.03352e-06
3.62906e-07
3.83809e-06
3.62863e-07
3.65169e-06
3.62807e-07
3.47403e-06
3.62745e-07
3.30486e-06
3.62689e-07
3.14394e-06
2.99127e-06
2.96974e-07
1.4433e-05
2.98624e-07
1.44115e-05
3.00408e-07
1.43991e-05
3.02348e-07
1.43963e-05
3.04461e-07
1.44019e-05
3.06753e-07
1.44127e-05
3.09221e-07
1.44257e-05
3.11854e-07
1.44376e-05
3.14645e-07
1.44461e-05
3.17594e-07
1.44487e-05
3.20716e-07
1.44419e-05
3.24035e-07
1.44192e-05
3.27519e-07
1.43706e-05
3.30911e-07
1.42867e-05
3.33688e-07
1.41765e-05
3.35653e-07
1.40843e-05
3.37653e-07
1.40747e-05
3.40797e-07
1.41737e-05
3.45027e-07
1.43383e-05
3.4943e-07
1.45037e-05
3.52684e-07
1.19501e-05
3.55407e-07
1.14547e-05
3.57701e-07
1.09639e-05
3.59656e-07
1.04844e-05
3.61332e-07
1.00196e-05
3.62768e-07
9.57099e-06
3.63993e-07
9.1391e-06
3.65032e-07
8.72401e-06
3.65907e-07
8.32552e-06
3.66636e-07
7.94331e-06
3.67237e-07
7.57696e-06
3.67725e-07
7.22601e-06
3.68117e-07
6.88997e-06
3.68426e-07
6.56833e-06
3.68664e-07
6.26057e-06
3.68845e-07
5.96619e-06
3.68977e-07
5.68467e-06
3.69071e-07
5.4155e-06
3.69136e-07
5.1582e-06
3.69178e-07
4.91228e-06
3.69203e-07
4.67728e-06
3.69214e-07
4.45276e-06
3.69214e-07
4.23831e-06
3.692e-07
4.03354e-06
3.69172e-07
3.83811e-06
3.69127e-07
3.65173e-06
3.69068e-07
3.47409e-06
3.69002e-07
3.30492e-06
3.68943e-07
3.144e-06
2.99131e-06
2.94953e-07
1.44313e-05
2.96783e-07
1.44097e-05
2.98764e-07
1.43971e-05
3.00917e-07
1.43942e-05
3.0326e-07
1.43995e-05
3.05799e-07
1.44102e-05
3.08529e-07
1.44229e-05
3.11439e-07
1.44347e-05
3.14521e-07
1.4443e-05
3.17775e-07
1.44454e-05
3.21215e-07
1.44384e-05
3.24866e-07
1.44156e-05
3.28696e-07
1.43667e-05
3.32458e-07
1.4283e-05
3.35644e-07
1.41733e-05
3.38063e-07
1.40819e-05
3.40529e-07
1.40723e-05
3.44109e-07
1.41701e-05
3.48744e-07
1.43336e-05
3.53535e-07
1.4499e-05
3.57092e-07
1.19466e-05
3.60092e-07
1.14517e-05
3.62635e-07
1.09614e-05
3.64815e-07
1.04822e-05
3.66694e-07
1.00177e-05
3.68314e-07
9.56937e-06
3.69704e-07
9.13771e-06
3.70891e-07
8.72282e-06
3.71896e-07
8.32451e-06
3.72741e-07
7.94246e-06
3.73443e-07
7.57626e-06
3.74021e-07
7.22543e-06
3.74491e-07
6.8895e-06
3.74867e-07
6.56795e-06
3.75163e-07
6.26028e-06
3.75392e-07
5.96596e-06
3.75565e-07
5.68449e-06
3.75693e-07
5.41537e-06
3.75785e-07
5.15811e-06
3.75848e-07
4.91222e-06
3.75889e-07
4.67724e-06
3.75912e-07
4.45274e-06
3.75918e-07
4.2383e-06
3.75909e-07
4.03355e-06
3.75882e-07
3.83814e-06
3.75837e-07
3.65177e-06
3.75777e-07
3.47415e-06
3.75708e-07
3.30499e-06
3.75645e-07
3.14406e-06
2.99134e-06
2.92777e-07
1.44295e-05
2.94796e-07
1.44077e-05
2.96983e-07
1.43949e-05
2.9936e-07
1.43918e-05
3.01945e-07
1.43969e-05
3.04743e-07
1.44074e-05
3.0775e-07
1.44199e-05
3.10953e-07
1.44315e-05
3.14344e-07
1.44396e-05
3.17922e-07
1.44418e-05
3.21702e-07
1.44347e-05
3.25708e-07
1.44116e-05
3.29911e-07
1.43625e-05
3.34071e-07
1.42788e-05
3.37697e-07
1.41697e-05
3.40601e-07
1.4079e-05
3.43562e-07
1.40693e-05
3.47605e-07
1.41661e-05
3.52669e-07
1.43286e-05
3.57875e-07
1.44938e-05
3.61759e-07
1.19427e-05
3.65056e-07
1.14484e-05
3.67869e-07
1.09586e-05
3.70293e-07
1.04798e-05
3.72393e-07
1.00156e-05
3.74211e-07
9.56755e-06
3.7578e-07
9.13614e-06
3.77127e-07
8.72147e-06
3.78274e-07
8.32336e-06
3.79245e-07
7.94149e-06
3.80059e-07
7.57544e-06
3.80734e-07
7.22476e-06
3.81288e-07
6.88895e-06
3.81737e-07
6.56751e-06
3.82097e-07
6.25992e-06
3.82379e-07
5.96568e-06
3.82597e-07
5.68428e-06
3.82762e-07
5.41521e-06
3.82884e-07
5.15799e-06
3.8297e-07
4.91213e-06
3.8303e-07
4.67719e-06
3.83066e-07
4.4527e-06
3.83082e-07
4.23828e-06
3.83078e-07
4.03355e-06
3.83054e-07
3.83816e-06
3.8301e-07
3.65182e-06
3.82948e-07
3.47421e-06
3.82878e-07
3.30506e-06
3.82812e-07
3.14413e-06
2.99139e-06
2.90438e-07
1.44274e-05
2.92653e-07
1.44054e-05
2.95056e-07
1.43925e-05
2.97668e-07
1.43892e-05
3.00506e-07
1.43941e-05
3.03577e-07
1.44043e-05
3.06875e-07
1.44166e-05
3.10387e-07
1.44279e-05
3.14106e-07
1.44359e-05
3.18029e-07
1.44379e-05
3.2217e-07
1.44305e-05
3.26556e-07
1.44072e-05
3.3116e-07
1.43579e-05
3.35748e-07
1.42742e-05
3.39844e-07
1.41656e-05
3.43264e-07
1.40756e-05
3.46751e-07
1.40658e-05
3.51285e-07
1.41615e-05
3.56807e-07
1.43231e-05
3.62455e-07
1.44881e-05
3.66689e-07
1.19385e-05
3.70308e-07
1.14448e-05
3.73412e-07
1.09555e-05
3.761e-07
1.04771e-05
3.78439e-07
1.00133e-05
3.80472e-07
9.56552e-06
3.82234e-07
9.13438e-06
3.83754e-07
8.71995e-06
3.85056e-07
8.32206e-06
3.86163e-07
7.94038e-06
3.87098e-07
7.57451e-06
3.87879e-07
7.22398e-06
3.88526e-07
6.8883e-06
3.89055e-07
6.56698e-06
3.89483e-07
6.25949e-06
3.89823e-07
5.96534e-06
3.9009e-07
5.68401e-06
3.90296e-07
5.415e-06
3.90451e-07
5.15783e-06
3.90564e-07
4.91202e-06
3.90644e-07
4.67711e-06
3.90695e-07
4.45265e-06
3.90722e-07
4.23826e-06
3.90725e-07
4.03355e-06
3.90705e-07
3.83818e-06
3.90662e-07
3.65186e-06
3.906e-07
3.47427e-06
3.90527e-07
3.30513e-06
3.90458e-07
3.1442e-06
2.99143e-06
2.87926e-07
1.44252e-05
2.90345e-07
1.4403e-05
2.92973e-07
1.43899e-05
2.9583e-07
1.43863e-05
2.98934e-07
1.4391e-05
3.02291e-07
1.4401e-05
3.05894e-07
1.4413e-05
3.09734e-07
1.44241e-05
3.13799e-07
1.44318e-05
3.18087e-07
1.44336e-05
3.22614e-07
1.4426e-05
3.27406e-07
1.44024e-05
3.32438e-07
1.43529e-05
3.37483e-07
1.42692e-05
3.4208e-07
1.4161e-05
3.46048e-07
1.40716e-05
3.50093e-07
1.40618e-05
3.55151e-07
1.41565e-05
3.61161e-07
1.43171e-05
3.67281e-07
1.4482e-05
3.71892e-07
1.19339e-05
3.75855e-07
1.14408e-05
3.79274e-07
1.09521e-05
3.82247e-07
1.04742e-05
3.84843e-07
1.00107e-05
3.87108e-07
9.56326e-06
3.8908e-07
9.13241e-06
3.90786e-07
8.71825e-06
3.92255e-07
8.32059e-06
3.93511e-07
7.93913e-06
3.94577e-07
7.57344e-06
3.95473e-07
7.22308e-06
3.9622e-07
6.88755e-06
3.96837e-07
6.56636e-06
3.9734e-07
6.25899e-06
3.97744e-07
5.96493e-06
3.98065e-07
5.68369e-06
3.98315e-07
5.41475e-06
3.98506e-07
5.15764e-06
3.98649e-07
4.91188e-06
3.98751e-07
4.677e-06
3.98819e-07
4.45258e-06
3.98858e-07
4.23822e-06
3.9887e-07
4.03353e-06
3.98854e-07
3.8382e-06
3.98813e-07
3.6519e-06
3.98749e-07
3.47434e-06
3.98672e-07
3.30521e-06
3.98599e-07
3.14427e-06
2.99147e-06
2.85232e-07
1.44228e-05
2.87862e-07
1.44004e-05
2.90723e-07
1.4387e-05
2.93836e-07
1.43832e-05
2.97218e-07
1.43876e-05
3.00874e-07
1.43973e-05
3.04799e-07
1.44091e-05
3.08983e-07
1.44199e-05
3.13415e-07
1.44274e-05
3.18091e-07
1.44289e-05
3.23027e-07
1.44211e-05
3.28251e-07
1.43972e-05
3.33741e-07
1.43474e-05
3.39273e-07
1.42637e-05
3.44401e-07
1.41559e-05
3.48947e-07
1.4067e-05
3.53584e-07
1.40572e-05
3.592e-07
1.41508e-05
3.65734e-07
1.43105e-05
3.7236e-07
1.44754e-05
3.77375e-07
1.19288e-05
3.81709e-07
1.14365e-05
3.85465e-07
1.09483e-05
3.88744e-07
1.04709e-05
3.91617e-07
1.00078e-05
3.94134e-07
9.56074e-06
3.9633e-07
9.13021e-06
3.98239e-07
8.71634e-06
3.99889e-07
8.31894e-06
4.01306e-07
7.93771e-06
4.02513e-07
7.57223e-06
4.03535e-07
7.22206e-06
4.04392e-07
6.8867e-06
4.05103e-07
6.56565e-06
4.05687e-07
6.25841e-06
4.06161e-07
5.96446e-06
4.06541e-07
5.68331e-06
4.0684e-07
5.41446e-06
4.07071e-07
5.15741e-06
4.07245e-07
4.9117e-06
4.07372e-07
4.67688e-06
4.07459e-07
4.4525e-06
4.07511e-07
4.23816e-06
4.0753e-07
4.03351e-06
4.07518e-07
3.83821e-06
4.07477e-07
3.65194e-06
4.0741e-07
3.4744e-06
4.07329e-07
3.30529e-06
4.07251e-07
3.14435e-06
2.99152e-06
2.82344e-07
1.44202e-05
2.85192e-07
1.43975e-05
2.88295e-07
1.43839e-05
2.91674e-07
1.43798e-05
2.95345e-07
1.43839e-05
2.99315e-07
1.43933e-05
3.03579e-07
1.44048e-05
3.08124e-07
1.44154e-05
3.12942e-07
1.44225e-05
3.1803e-07
1.44239e-05
3.23401e-07
1.44157e-05
3.29085e-07
1.43915e-05
3.35062e-07
1.43414e-05
3.41112e-07
1.42576e-05
3.468e-07
1.41502e-05
3.51957e-07
1.40619e-05
3.57219e-07
1.40519e-05
3.63432e-07
1.41446e-05
3.70528e-07
1.43034e-05
3.77699e-07
1.44682e-05
3.83146e-07
1.19234e-05
3.87878e-07
1.14318e-05
3.91996e-07
1.09442e-05
3.95605e-07
1.04673e-05
3.98776e-07
1.00047e-05
4.01562e-07
9.55795e-06
4.04002e-07
9.12777e-06
4.0613e-07
8.71421e-06
4.07975e-07
8.3171e-06
4.09565e-07
7.93612e-06
4.10926e-07
7.57087e-06
4.12084e-07
7.2209e-06
4.13059e-07
6.88572e-06
4.13873e-07
6.56483e-06
4.14546e-07
6.25773e-06
4.15096e-07
5.96391e-06
4.1554e-07
5.68287e-06
4.15892e-07
5.4141e-06
4.16167e-07
5.15714e-06
4.16376e-07
4.9115e-06
4.1653e-07
4.67672e-06
4.16636e-07
4.45239e-06
4.16701e-07
4.2381e-06
4.16727e-07
4.03349e-06
4.16717e-07
3.83822e-06
4.16673e-07
3.65199e-06