/*--------------------------------*- C++ -*----------------------------------*\
  =========                 |
  \\      /  F ield         | OpenFOAM: The Open Source CFD Toolbox
   \\    /   O peration     | Website:  https://openfoam.org
    \\  /    A nd           | Version:  9
     \\/     M anipulation  |
\*---------------------------------------------------------------------------*/
FoamFile
{
    format      ascii;
    class       volScalarField;
    location    "0.15";
    object      rAU;
}
// * * * * * * * * * * * * * * * * * * * * * * * * * * * * * * * * * * * * * //

dimensions      [-1 3 1 0 0 0 0];

internalField   nonuniform List<scalar> 
5000
(
1.45675e-05
1.45775e-05
1.4583e-05
1.45837e-05
1.45803e-05
1.45743e-05
1.45674e-05
1.4561e-05
1.45563e-05
1.45543e-05
1.45566e-05
1.45659e-05
1.45876e-05
1.46283e-05
1.46876e-05
1.47424e-05
1.47484e-05
1.46889e-05
1.45993e-05
1.45159e-05
1.44235e-05
1.43723e-05
1.43331e-05
1.42984e-05
1.42662e-05
1.42355e-05
1.42056e-05
1.41759e-05
1.41461e-05
1.41159e-05
1.40848e-05
1.40526e-05
1.40189e-05
1.39836e-05
1.39461e-05
1.39064e-05
1.38639e-05
1.38185e-05
1.37696e-05
1.3717e-05
1.36602e-05
1.35988e-05
1.35325e-05
1.34607e-05
1.33828e-05
1.32984e-05
1.32067e-05
1.31069e-05
1.29981e-05
1.35858e-05
2.06363e-05
2.06437e-05
2.06479e-05
2.06484e-05
2.06459e-05
2.06414e-05
2.06362e-05
2.06314e-05
2.06278e-05
2.06263e-05
2.0628e-05
2.06349e-05
2.06512e-05
2.06817e-05
2.07259e-05
2.07664e-05
2.07711e-05
2.07274e-05
2.06605e-05
2.05932e-05
2.0474e-05
2.04132e-05
2.0365e-05
2.03187e-05
2.02727e-05
2.0226e-05
2.0178e-05
2.0128e-05
2.00756e-05
2.00203e-05
1.99616e-05
1.98992e-05
1.98326e-05
1.97611e-05
1.96845e-05
1.9602e-05
1.95132e-05
1.94175e-05
1.93143e-05
1.9203e-05
1.90829e-05
1.89533e-05
1.88136e-05
1.8663e-05
1.85007e-05
1.8326e-05
1.8138e-05
1.79358e-05
1.77186e-05
1.88129e-05
2.06363e-05
2.06438e-05
2.06479e-05
2.06485e-05
2.06459e-05
2.06414e-05
2.06362e-05
2.06314e-05
2.06279e-05
2.06263e-05
2.0628e-05
2.06349e-05
2.06513e-05
2.06817e-05
2.07256e-05
2.07658e-05
2.07705e-05
2.07272e-05
2.06607e-05
2.05934e-05
2.0474e-05
2.04131e-05
2.03648e-05
2.03184e-05
2.02724e-05
2.02256e-05
2.01775e-05
2.01275e-05
2.00751e-05
2.00197e-05
1.99611e-05
1.98987e-05
1.9832e-05
1.97606e-05
1.96839e-05
1.96014e-05
1.95127e-05
1.9417e-05
1.93138e-05
1.92025e-05
1.90823e-05
1.89528e-05
1.8813e-05
1.86624e-05
1.85002e-05
1.83254e-05
1.81374e-05
1.79352e-05
1.77179e-05
1.88119e-05
2.06364e-05
2.06439e-05
2.0648e-05
2.06485e-05
2.0646e-05
2.06415e-05
2.06363e-05
2.06315e-05
2.06279e-05
2.06264e-05
2.0628e-05
2.0635e-05
2.06513e-05
2.06817e-05
2.07255e-05
2.07652e-05
2.07697e-05
2.07269e-05
2.06609e-05
2.05936e-05
2.0474e-05
2.04129e-05
2.03645e-05
2.0318e-05
2.02719e-05
2.02251e-05
2.01769e-05
2.01269e-05
2.00744e-05
2.00191e-05
1.99604e-05
1.98979e-05
1.98312e-05
1.97598e-05
1.96831e-05
1.96006e-05
1.95118e-05
1.94161e-05
1.93129e-05
1.92016e-05
1.90815e-05
1.89519e-05
1.88122e-05
1.86615e-05
1.84993e-05
1.83246e-05
1.81365e-05
1.79343e-05
1.77169e-05
1.88107e-05
2.06366e-05
2.0644e-05
2.06481e-05
2.06486e-05
2.06461e-05
2.06416e-05
2.06364e-05
2.06316e-05
2.0628e-05
2.06264e-05
2.0628e-05
2.0635e-05
2.06514e-05
2.06818e-05
2.07253e-05
2.07645e-05
2.07688e-05
2.07265e-05
2.0661e-05
2.05937e-05
2.04739e-05
2.04127e-05
2.03641e-05
2.03176e-05
2.02714e-05
2.02245e-05
2.01763e-05
2.01261e-05
2.00736e-05
2.00182e-05
1.99595e-05
1.9897e-05
1.98302e-05
1.97587e-05
1.9682e-05
1.95995e-05
1.95107e-05
1.9415e-05
1.93117e-05
1.92004e-05
1.90803e-05
1.89507e-05
1.88109e-05
1.86603e-05
1.84981e-05
1.83233e-05
1.81353e-05
1.79331e-05
1.77156e-05
1.88091e-05
2.06368e-05
2.06442e-05
2.06483e-05
2.06488e-05
2.06462e-05
2.06417e-05
2.06365e-05
2.06317e-05
2.06281e-05
2.06265e-05
2.06281e-05
2.06351e-05
2.06516e-05
2.06819e-05
2.07251e-05
2.07637e-05
2.07679e-05
2.07261e-05
2.0661e-05
2.05938e-05
2.04738e-05
2.04124e-05
2.03637e-05
2.0317e-05
2.02707e-05
2.02238e-05
2.01755e-05
2.01253e-05
2.00727e-05
2.00172e-05
1.99584e-05
1.98958e-05
1.9829e-05
1.97575e-05
1.96807e-05
1.95982e-05
1.95093e-05
1.94135e-05
1.93103e-05
1.91989e-05
1.90787e-05
1.89491e-05
1.88094e-05
1.86587e-05
1.84965e-05
1.83217e-05
1.81337e-05
1.79314e-05
1.77139e-05
1.88071e-05
2.06371e-05
2.06444e-05
2.06485e-05
2.0649e-05
2.06464e-05
2.06419e-05
2.06367e-05
2.06318e-05
2.06282e-05
2.06266e-05
2.06282e-05
2.06353e-05
2.06517e-05
2.0682e-05
2.07248e-05
2.0763e-05
2.0767e-05
2.07257e-05
2.06611e-05
2.05939e-05
2.04736e-05
2.0412e-05
2.03632e-05
2.03164e-05
2.027e-05
2.02229e-05
2.01745e-05
2.01242e-05
2.00715e-05
2.0016e-05
1.99571e-05
1.98945e-05
1.98276e-05
1.9756e-05
1.96792e-05
1.95965e-05
1.95076e-05
1.94118e-05
1.93085e-05
1.9197e-05
1.90768e-05
1.89472e-05
1.88074e-05
1.86568e-05
1.84945e-05
1.83197e-05
1.81317e-05
1.79293e-05
1.77118e-05
1.88046e-05
2.06374e-05
2.06447e-05
2.06487e-05
2.06492e-05
2.06466e-05
2.06421e-05
2.06369e-05
2.0632e-05
2.06284e-05
2.06268e-05
2.06284e-05
2.06354e-05
2.06519e-05
2.06821e-05
2.07246e-05
2.07622e-05
2.07661e-05
2.07253e-05
2.06611e-05
2.0594e-05
2.04734e-05
2.04116e-05
2.03626e-05
2.03157e-05
2.02691e-05
2.0222e-05
2.01735e-05
2.01231e-05
2.00703e-05
2.00146e-05
1.99557e-05
1.9893e-05
1.9826e-05
1.97543e-05
1.96774e-05
1.95947e-05
1.95057e-05
1.94098e-05
1.93064e-05
1.91949e-05
1.90747e-05
1.8945e-05
1.88052e-05
1.86545e-05
1.84921e-05
1.83173e-05
1.81292e-05
1.79268e-05
1.77092e-05
1.88015e-05
2.06378e-05
2.06451e-05
2.0649e-05
2.06495e-05
2.06469e-05
2.06424e-05
2.06371e-05
2.06323e-05
2.06286e-05
2.0627e-05
2.06286e-05
2.06357e-05
2.06521e-05
2.06823e-05
2.07244e-05
2.07614e-05
2.07652e-05
2.07248e-05
2.06611e-05
2.0594e-05
2.04732e-05
2.04111e-05
2.0362e-05
2.03149e-05
2.02682e-05
2.02209e-05
2.01723e-05
2.01218e-05
2.00689e-05
2.00131e-05
1.99541e-05
1.98912e-05
1.98242e-05
1.97524e-05
1.96753e-05
1.95926e-05
1.95035e-05
1.94075e-05
1.9304e-05
1.91925e-05
1.90722e-05
1.89424e-05
1.88025e-05
1.86518e-05
1.84894e-05
1.83145e-05
1.81263e-05
1.79239e-05
1.77062e-05
1.8798e-05
2.06382e-05
2.06455e-05
2.06494e-05
2.06499e-05
2.06473e-05
2.06427e-05
2.06375e-05
2.06325e-05
2.06289e-05
2.06272e-05
2.06288e-05
2.06359e-05
2.06524e-05
2.06824e-05
2.07241e-05
2.07607e-05
2.07643e-05
2.07244e-05
2.06611e-05
2.05941e-05
2.04729e-05
2.04106e-05
2.03613e-05
2.0314e-05
2.02672e-05
2.02197e-05
2.0171e-05
2.01204e-05
2.00673e-05
2.00115e-05
1.99523e-05
1.98893e-05
1.98221e-05
1.97502e-05
1.96731e-05
1.95902e-05
1.9501e-05
1.94049e-05
1.93014e-05
1.91897e-05
1.90693e-05
1.89395e-05
1.87995e-05
1.86487e-05
1.84862e-05
1.83113e-05
1.8123e-05
1.79204e-05
1.77027e-05
1.87939e-05
2.06387e-05
2.06459e-05
2.06499e-05
2.06503e-05
2.06477e-05
2.06431e-05
2.06378e-05
2.06329e-05
2.06292e-05
2.06275e-05
2.06291e-05
2.06362e-05
2.06527e-05
2.06826e-05
2.07239e-05
2.07599e-05
2.07635e-05
2.0724e-05
2.06611e-05
2.05941e-05
2.04726e-05
2.04101e-05
2.03605e-05
2.03131e-05
2.02661e-05
2.02185e-05
2.01696e-05
2.01188e-05
2.00656e-05
2.00096e-05
1.99503e-05
1.98872e-05
1.98199e-05
1.97479e-05
1.96706e-05
1.95876e-05
1.94983e-05
1.94021e-05
1.92984e-05
1.91867e-05
1.90662e-05
1.89363e-05
1.87962e-05
1.86453e-05
1.84827e-05
1.83076e-05
1.81192e-05
1.79166e-05
1.76988e-05
1.87892e-05
2.06393e-05
2.06465e-05
2.06504e-05
2.06508e-05
2.06482e-05
2.06436e-05
2.06383e-05
2.06333e-05
2.06296e-05
2.06279e-05
2.06295e-05
2.06366e-05
2.0653e-05
2.06827e-05
2.07237e-05
2.07592e-05
2.07627e-05
2.07236e-05
2.06611e-05
2.05941e-05
2.04722e-05
2.04095e-05
2.03597e-05
2.03121e-05
2.02649e-05
2.02171e-05
2.01681e-05
2.01171e-05
2.00638e-05
2.00076e-05
1.99482e-05
1.98849e-05
1.98175e-05
1.97453e-05
1.96679e-05
1.95847e-05
1.94953e-05
1.9399e-05
1.92952e-05
1.91833e-05
1.90627e-05
1.89327e-05
1.87925e-05
1.86415e-05
1.84788e-05
1.83036e-05
1.81151e-05
1.79123e-05
1.76944e-05
1.87841e-05
2.06399e-05
2.06471e-05
2.0651e-05
2.06514e-05
2.06487e-05
2.06441e-05
2.06388e-05
2.06338e-05
2.06301e-05
2.06283e-05
2.06299e-05
2.0637e-05
2.06534e-05
2.0683e-05
2.07236e-05
2.07586e-05
2.07619e-05
2.07232e-05
2.06611e-05
2.05941e-05
2.04718e-05
2.04089e-05
2.03588e-05
2.0311e-05
2.02636e-05
2.02157e-05
2.01664e-05
2.01153e-05
2.00618e-05
2.00055e-05
1.99458e-05
1.98824e-05
1.98148e-05
1.97425e-05
1.96649e-05
1.95816e-05
1.9492e-05
1.93956e-05
1.92917e-05
1.91796e-05
1.90589e-05
1.89287e-05
1.87884e-05
1.86373e-05
1.84744e-05
1.82991e-05
1.81105e-05
1.79076e-05
1.76896e-05
1.87784e-05
2.06407e-05
2.06478e-05
2.06517e-05
2.0652e-05
2.06494e-05
2.06447e-05
2.06394e-05
2.06344e-05
2.06306e-05
2.06288e-05
2.06304e-05
2.06374e-05
2.06538e-05
2.06833e-05
2.07235e-05
2.0758e-05
2.07612e-05
2.07229e-05
2.06612e-05
2.05942e-05
2.04715e-05
2.04082e-05
2.03579e-05
2.03099e-05
2.02623e-05
2.02141e-05
2.01647e-05
2.01134e-05
2.00597e-05
2.00032e-05
1.99433e-05
1.98798e-05
1.9812e-05
1.97394e-05
1.96617e-05
1.95783e-05
1.94885e-05
1.93919e-05
1.92878e-05
1.91756e-05
1.90547e-05
1.89244e-05
1.8784e-05
1.86327e-05
1.84697e-05
1.82943e-05
1.81055e-05
1.79025e-05
1.76844e-05
1.87722e-05
2.06415e-05
2.06486e-05
2.06524e-05
2.06528e-05
2.06501e-05
2.06455e-05
2.06401e-05
2.0635e-05
2.06312e-05
2.06294e-05
2.06309e-05
2.0638e-05
2.06543e-05
2.06836e-05
2.07235e-05
2.07576e-05
2.07606e-05
2.07226e-05
2.06612e-05
2.05942e-05
2.04711e-05
2.04075e-05
2.0357e-05
2.03087e-05
2.02609e-05
2.02125e-05
2.01628e-05
2.01113e-05
2.00574e-05
2.00007e-05
1.99407e-05
1.98769e-05
1.98089e-05
1.97362e-05
1.96583e-05
1.95746e-05
1.94847e-05
1.93879e-05
1.92836e-05
1.91713e-05
1.90502e-05
1.89198e-05
1.87792e-05
1.86277e-05
1.84646e-05
1.8289e-05
1.81001e-05
1.78969e-05
1.76787e-05
1.87656e-05
2.06424e-05
2.06495e-05
2.06533e-05
2.06536e-05
2.06509e-05
2.06463e-05
2.06409e-05
2.06358e-05
2.06319e-05
2.06301e-05
2.06316e-05
2.06386e-05
2.06549e-05
2.06841e-05
2.07236e-05
2.07572e-05
2.07601e-05
2.07224e-05
2.06613e-05
2.05943e-05
2.04706e-05
2.04068e-05
2.0356e-05
2.03074e-05
2.02594e-05
2.02108e-05
2.01609e-05
2.01091e-05
2.0055e-05
1.9998e-05
1.99378e-05
1.98738e-05
1.98056e-05
1.97327e-05
1.96546e-05
1.95707e-05
1.94806e-05
1.93836e-05
1.92791e-05
1.91666e-05
1.90454e-05
1.89147e-05
1.8774e-05
1.86223e-05
1.84591e-05
1.82833e-05
1.80942e-05
1.78909e-05
1.76725e-05
1.87583e-05
2.06434e-05
2.06505e-05
2.06543e-05
2.06545e-05
2.06518e-05
2.06472e-05
2.06417e-05
2.06366e-05
2.06327e-05
2.06309e-05
2.06323e-05
2.06393e-05
2.06555e-05
2.06846e-05
2.07237e-05
2.07568e-05
2.07596e-05
2.07223e-05
2.06615e-05
2.05944e-05
2.04702e-05
2.0406e-05
2.03549e-05
2.03061e-05
2.02578e-05
2.02089e-05
2.01588e-05
2.01068e-05
2.00524e-05
1.99952e-05
1.99348e-05
1.98705e-05
1.98021e-05
1.97289e-05
1.96506e-05
1.95665e-05
1.94762e-05
1.9379e-05
1.92743e-05
1.91616e-05
1.90401e-05
1.89093e-05
1.87684e-05
1.86165e-05
1.84531e-05
1.82771e-05
1.80879e-05
1.78844e-05
1.76659e-05
1.87505e-05
2.06445e-05
2.06516e-05
2.06553e-05
2.06556e-05
2.06529e-05
2.06482e-05
2.06427e-05
2.06376e-05
2.06336e-05
2.06317e-05
2.06331e-05
2.06401e-05
2.06563e-05
2.06851e-05
2.07239e-05
2.07566e-05
2.07592e-05
2.07222e-05
2.06616e-05
2.05945e-05
2.04698e-05
2.04053e-05
2.03539e-05
2.03047e-05
2.02561e-05
2.0207e-05
2.01566e-05
2.01043e-05
2.00497e-05
1.99923e-05
1.99315e-05
1.9867e-05
1.97984e-05
1.9725e-05
1.96464e-05
1.9562e-05
1.94715e-05
1.9374e-05
1.92691e-05
1.91562e-05
1.90345e-05
1.89035e-05
1.87623e-05
1.86103e-05
1.84467e-05
1.82705e-05
1.8081e-05
1.78774e-05
1.76587e-05
1.87421e-05
2.06458e-05
2.06528e-05
2.06565e-05
2.06568e-05
2.0654e-05
2.06493e-05
2.06438e-05
2.06387e-05
2.06347e-05
2.06327e-05
2.0634e-05
2.06409e-05
2.06571e-05
2.06858e-05
2.07243e-05
2.07565e-05
2.0759e-05
2.07222e-05
2.06619e-05
2.05947e-05
2.04694e-05
2.04045e-05
2.03528e-05
2.03033e-05
2.02544e-05
2.0205e-05
2.01543e-05
2.01018e-05
2.00469e-05
1.99891e-05
1.99281e-05
1.98634e-05
1.97944e-05
1.97207e-05
1.96419e-05
1.95573e-05
1.94664e-05
1.93687e-05
1.92636e-05
1.91504e-05
1.90285e-05
1.88973e-05
1.87559e-05
1.86036e-05
1.84398e-05
1.82634e-05
1.80737e-05
1.78699e-05
1.76511e-05
1.87331e-05
2.06471e-05
2.06541e-05
2.06578e-05
2.0658e-05
2.06553e-05
2.06505e-05
2.0645e-05
2.06398e-05
2.06358e-05
2.06338e-05
2.06351e-05
2.06419e-05
2.0658e-05
2.06866e-05
2.07247e-05
2.07565e-05
2.07589e-05
2.07223e-05
2.06622e-05
2.05949e-05
2.04691e-05
2.04038e-05
2.03516e-05
2.03019e-05
2.02527e-05
2.02029e-05
2.01519e-05
2.00991e-05
2.00439e-05
1.99858e-05
1.99245e-05
1.98595e-05
1.97902e-05
1.97162e-05
1.96371e-05
1.95522e-05
1.94611e-05
1.93631e-05
1.92577e-05
1.91443e-05
1.90221e-05
1.88906e-05
1.8749e-05
1.85965e-05
1.84324e-05
1.82558e-05
1.80659e-05
1.78619e-05
1.76429e-05
1.87234e-05
2.06485e-05
2.06555e-05
2.06592e-05
2.06594e-05
2.06567e-05
2.06519e-05
2.06464e-05
2.06411e-05
2.06371e-05
2.0635e-05
2.06363e-05
2.06431e-05
2.06591e-05
2.06875e-05
2.07253e-05
2.07567e-05
2.07588e-05
2.07225e-05
2.06626e-05
2.05953e-05
2.04687e-05
2.0403e-05
2.03505e-05
2.03004e-05
2.02508e-05
2.02008e-05
2.01494e-05
2.00963e-05
2.00407e-05
1.99824e-05
1.99207e-05
1.98553e-05
1.97858e-05
1.97115e-05
1.9632e-05
1.95469e-05
1.94554e-05
1.93572e-05
1.92515e-05
1.91378e-05
1.90153e-05
1.88835e-05
1.87416e-05
1.85889e-05
1.84245e-05
1.82477e-05
1.80575e-05
1.78533e-05
1.76341e-05
1.87131e-05
2.06501e-05
2.06571e-05
2.06608e-05
2.0661e-05
2.06582e-05
2.06534e-05
2.06479e-05
2.06426e-05
2.06385e-05
2.06364e-05
2.06376e-05
2.06443e-05
2.06603e-05
2.06886e-05
2.0726e-05
2.07569e-05
2.0759e-05
2.07228e-05
2.06631e-05
2.05956e-05
2.04684e-05
2.04023e-05
2.03494e-05
2.02989e-05
2.0249e-05
2.01985e-05
2.01468e-05
2.00933e-05
2.00374e-05
1.99787e-05
1.99167e-05
1.9851e-05
1.97811e-05
1.97065e-05
1.96267e-05
1.95412e-05
1.94494e-05
1.93508e-05
1.92449e-05
1.91308e-05
1.90081e-05
1.8876e-05
1.87338e-05
1.85808e-05
1.84161e-05
1.8239e-05
1.80486e-05
1.78441e-05
1.76247e-05
1.87021e-05
2.06518e-05
2.06587e-05
2.06624e-05
2.06626e-05
2.06599e-05
2.06551e-05
2.06495e-05
2.06442e-05
2.064e-05
2.06379e-05
2.0639e-05
2.06457e-05
2.06616e-05
2.06898e-05
2.07268e-05
2.07574e-05
2.07592e-05
2.07232e-05
2.06637e-05
2.05961e-05
2.04682e-05
2.04016e-05
2.03482e-05
2.02973e-05
2.0247e-05
2.01962e-05
2.01441e-05
2.00902e-05
2.0034e-05
1.99749e-05
1.99125e-05
1.98464e-05
1.97761e-05
1.97012e-05
1.9621e-05
1.95352e-05
1.94431e-05
1.93441e-05
1.92378e-05
1.91235e-05
1.90004e-05
1.8868e-05
1.87255e-05
1.85722e-05
1.84072e-05
1.82298e-05
1.80392e-05
1.78344e-05
1.76148e-05
1.86904e-05
2.06536e-05
2.06606e-05
2.06643e-05
2.06645e-05
2.06617e-05
2.06569e-05
2.06513e-05
2.0646e-05
2.06417e-05
2.06395e-05
2.06406e-05
2.06473e-05
2.06631e-05
2.06911e-05
2.07279e-05
2.0758e-05
2.07596e-05
2.07238e-05
2.06644e-05
2.05966e-05
2.0468e-05
2.04009e-05
2.03471e-05
2.02957e-05
2.0245e-05
2.01938e-05
2.01413e-05
2.0087e-05
2.00304e-05
1.99709e-05
1.99081e-05
1.98416e-05
1.97709e-05
1.96956e-05
1.96151e-05
1.95288e-05
1.94363e-05
1.93371e-05
1.92304e-05
1.91156e-05
1.89923e-05
1.88595e-05
1.87167e-05
1.85631e-05
1.83978e-05
1.82201e-05
1.80291e-05
1.78241e-05
1.76043e-05
1.8678e-05
2.06555e-05
2.06625e-05
2.06662e-05
2.06664e-05
2.06636e-05
2.06589e-05
2.06533e-05
2.06479e-05
2.06436e-05
2.06414e-05
2.06424e-05
2.0649e-05
2.06648e-05
2.06926e-05
2.0729e-05
2.07588e-05
2.07602e-05
2.07245e-05
2.06652e-05
2.05973e-05
2.04678e-05
2.04003e-05
2.0346e-05
2.02942e-05
2.0243e-05
2.01914e-05
2.01385e-05
2.00837e-05
2.00266e-05
1.99667e-05
1.99035e-05
1.98366e-05
1.97655e-05
1.96897e-05
1.96088e-05
1.95221e-05
1.94292e-05
1.93296e-05
1.92225e-05
1.91074e-05
1.89836e-05
1.88505e-05
1.87074e-05
1.85534e-05
1.83878e-05
1.82097e-05
1.80185e-05
1.78132e-05
1.75931e-05
1.86649e-05
2.06576e-05
2.06647e-05
2.06684e-05
2.06686e-05
2.06658e-05
2.0661e-05
2.06554e-05
2.065e-05
2.06457e-05
2.06434e-05
2.06444e-05
2.06509e-05
2.06666e-05
2.06943e-05
2.07304e-05
2.07597e-05
2.0761e-05
2.07254e-05
2.06662e-05
2.0598e-05
2.04677e-05
2.03997e-05
2.03449e-05
2.02926e-05
2.02409e-05
2.01888e-05
2.01355e-05
2.00803e-05
2.00227e-05
1.99623e-05
1.98987e-05
1.98313e-05
1.97598e-05
1.96835e-05
1.96021e-05
1.95151e-05
1.94218e-05
1.93217e-05
1.92142e-05
1.90987e-05
1.89745e-05
1.8841e-05
1.86975e-05
1.85431e-05
1.83771e-05
1.81988e-05
1.80072e-05
1.78016e-05
1.75813e-05
1.8651e-05
2.06599e-05
2.06669e-05
2.06707e-05
2.06709e-05
2.06681e-05
2.06633e-05
2.06577e-05
2.06523e-05
2.06479e-05
2.06456e-05
2.06465e-05
2.0653e-05
2.06687e-05
2.06962e-05
2.0732e-05
2.07609e-05
2.0762e-05
2.07265e-05
2.06673e-05
2.05989e-05
2.04678e-05
2.03991e-05
2.03438e-05
2.0291e-05
2.02388e-05
2.01862e-05
2.01324e-05
2.00767e-05
2.00186e-05
1.99578e-05
1.98937e-05
1.98258e-05
1.97538e-05
1.96771e-05
1.95952e-05
1.95076e-05
1.94139e-05
1.93133e-05
1.92054e-05
1.90894e-05
1.89648e-05
1.88309e-05
1.8687e-05
1.85322e-05
1.83659e-05
1.81871e-05
1.79952e-05
1.77893e-05
1.75687e-05
1.86363e-05
2.06623e-05
2.06694e-05
2.06731e-05
2.06734e-05
2.06706e-05
2.06658e-05
2.06602e-05
2.06548e-05
2.06504e-05
2.0648e-05
2.06489e-05
2.06553e-05
2.06709e-05
2.06983e-05
2.07338e-05
2.07623e-05
2.07632e-05
2.07277e-05
2.06686e-05
2.05999e-05
2.04679e-05
2.03986e-05
2.03427e-05
2.02894e-05
2.02367e-05
2.01836e-05
2.01292e-05
2.0073e-05
2.00144e-05
1.9953e-05
1.98884e-05
1.982e-05
1.97475e-05
1.96702e-05
1.95879e-05
1.94998e-05
1.94056e-05
1.93045e-05
1.91961e-05
1.90797e-05
1.89546e-05
1.88203e-05
1.86759e-05
1.85207e-05
1.8354e-05
1.81748e-05
1.79825e-05
1.77763e-05
1.75555e-05
1.86208e-05
2.06649e-05
2.0672e-05
2.06758e-05
2.06761e-05
2.06733e-05
2.06686e-05
2.06629e-05
2.06575e-05
2.06531e-05
2.06506e-05
2.06515e-05
2.06579e-05
2.06734e-05
2.07006e-05
2.07358e-05
2.0764e-05
2.07646e-05
2.07292e-05
2.06701e-05
2.06011e-05
2.04681e-05
2.03982e-05
2.03417e-05
2.02878e-05
2.02346e-05
2.01809e-05
2.01259e-05
2.00692e-05
2.001e-05
1.99481e-05
1.98829e-05
1.9814e-05
1.97409e-05
1.96631e-05
1.95802e-05
1.94916e-05
1.93968e-05
1.92953e-05
1.91863e-05
1.90694e-05
1.89439e-05
1.88091e-05
1.86642e-05
1.85086e-05
1.83414e-05
1.81618e-05
1.79691e-05
1.77626e-05
1.75414e-05
1.86043e-05
2.06676e-05
2.06748e-05
2.06786e-05
2.0679e-05
2.06763e-05
2.06715e-05
2.06659e-05
2.06604e-05
2.0656e-05
2.06535e-05
2.06543e-05
2.06607e-05
2.06761e-05
2.07032e-05
2.0738e-05
2.07659e-05
2.07663e-05
2.07309e-05
2.06717e-05
2.06025e-05
2.04684e-05
2.03979e-05
2.03407e-05
2.02862e-05
2.02324e-05
2.01781e-05
2.01226e-05
2.00652e-05
2.00055e-05
1.9943e-05
1.98772e-05
1.98077e-05
1.9734e-05
1.96556e-05
1.95721e-05
1.9483e-05
1.93876e-05
1.92855e-05
1.9176e-05
1.90586e-05
1.89326e-05
1.87972e-05
1.86519e-05
1.84958e-05
1.83281e-05
1.81481e-05
1.7955e-05
1.7748e-05
1.75266e-05
1.8587e-05
2.06705e-05
2.06778e-05
2.06817e-05
2.0682e-05
2.06794e-05
2.06747e-05
2.06691e-05
2.06636e-05
2.06592e-05
2.06566e-05
2.06574e-05
2.06637e-05
2.06791e-05
2.0706e-05
2.07406e-05
2.0768e-05
2.07683e-05
2.07329e-05
2.06736e-05
2.0604e-05
2.04689e-05
2.03977e-05
2.03398e-05
2.02847e-05
2.02302e-05
2.01753e-05
2.01191e-05
2.00611e-05
2.00008e-05
1.99376e-05
1.98712e-05
1.98011e-05
1.97268e-05
1.96478e-05
1.95637e-05
1.94739e-05
1.9378e-05
1.92753e-05
1.91652e-05
1.90472e-05
1.89206e-05
1.87847e-05
1.86389e-05
1.84823e-05
1.83141e-05
1.81336e-05
1.79401e-05
1.77327e-05
1.75109e-05
1.85686e-05
2.06736e-05
2.06809e-05
2.06849e-05
2.06854e-05
2.06827e-05
2.06781e-05
2.06725e-05
2.0667e-05
2.06626e-05
2.066e-05
2.06607e-05
2.0667e-05
2.06823e-05
2.07091e-05
2.07434e-05
2.07705e-05
2.07705e-05
2.07351e-05
2.06758e-05
2.06058e-05
2.04695e-05
2.03976e-05
2.0339e-05
2.02831e-05
2.0228e-05
2.01724e-05
2.01156e-05
2.00569e-05
1.99959e-05
1.99321e-05
1.9865e-05
1.97942e-05
1.97192e-05
1.96396e-05
1.95548e-05
1.94644e-05
1.93678e-05
1.92645e-05
1.91538e-05
1.90352e-05
1.8908e-05
1.87716e-05
1.86251e-05
1.8468e-05
1.82993e-05
1.81184e-05
1.79243e-05
1.77165e-05
1.74943e-05
1.85493e-05
2.06769e-05
2.06843e-05
2.06884e-05
2.06889e-05
2.06863e-05
2.06817e-05
2.06762e-05
2.06707e-05
2.06663e-05
2.06637e-05
2.06644e-05
2.06706e-05
2.06859e-05
2.07125e-05
2.07465e-05
2.07732e-05
2.07731e-05
2.07377e-05
2.06782e-05
2.06078e-05
2.04703e-05
2.03976e-05
2.03383e-05
2.02817e-05
2.02258e-05
2.01695e-05
2.0112e-05
2.00526e-05
1.99909e-05
1.99263e-05
1.98585e-05
1.9787e-05
1.97113e-05
1.9631e-05
1.95456e-05
1.94545e-05
1.93572e-05
1.92532e-05
1.91419e-05
1.90226e-05
1.88948e-05
1.87577e-05
1.86107e-05
1.8453e-05
1.82837e-05
1.81022e-05
1.79077e-05
1.76994e-05
1.74768e-05
1.85288e-05
2.06803e-05
2.06879e-05
2.06921e-05
2.06927e-05
2.06902e-05
2.06856e-05
2.06801e-05
2.06747e-05
2.06703e-05
2.06677e-05
2.06683e-05
2.06745e-05
2.06897e-05
2.07162e-05
2.07499e-05
2.07763e-05
2.0776e-05
2.07405e-05
2.06809e-05
2.06101e-05
2.04713e-05
2.03977e-05
2.03376e-05
2.02803e-05
2.02236e-05
2.01666e-05
2.01083e-05
2.00482e-05
1.99857e-05
1.99204e-05
1.98518e-05
1.97796e-05
1.97031e-05
1.9622e-05
1.95358e-05
1.9444e-05
1.9346e-05
1.92413e-05
1.91293e-05
1.90093e-05
1.88808e-05
1.87431e-05
1.85954e-05
1.84371e-05
1.82673e-05
1.80852e-05
1.78901e-05
1.76813e-05
1.74583e-05
1.85072e-05
2.0684e-05
2.06917e-05
2.0696e-05
2.06967e-05
2.06943e-05
2.06898e-05
2.06844e-05
2.0679e-05
2.06746e-05
2.0672e-05
2.06726e-05
2.06788e-05
2.06939e-05
2.07203e-05
2.07537e-05
2.07797e-05
2.07792e-05
2.07437e-05
2.0684e-05
2.06126e-05
2.04725e-05
2.03981e-05
2.03371e-05
2.02789e-05
2.02215e-05
2.01637e-05
2.01046e-05
2.00436e-05
1.99803e-05
1.99142e-05
1.98448e-05
1.97718e-05
1.96945e-05
1.96127e-05
1.95257e-05
1.94331e-05
1.93343e-05
1.92288e-05
1.9116e-05
1.89954e-05
1.88661e-05
1.87277e-05
1.85794e-05
1.84204e-05
1.82499e-05
1.80673e-05
1.78716e-05
1.76622e-05
1.74389e-05
1.84845e-05
2.06879e-05
2.06957e-05
2.07001e-05
2.0701e-05
2.06987e-05
2.06943e-05
2.0689e-05
2.06836e-05
2.06792e-05
2.06767e-05
2.06773e-05
2.06834e-05
2.06985e-05
2.07247e-05
2.07578e-05
2.07835e-05
2.07828e-05
2.07473e-05
2.06873e-05
2.06155e-05
2.04739e-05
2.03986e-05
2.03367e-05
2.02776e-05
2.02194e-05
2.01607e-05
2.01007e-05
2.00389e-05
1.99748e-05
1.99078e-05
1.98376e-05
1.97637e-05
1.96856e-05
1.96029e-05
1.9515e-05
1.94216e-05
1.9322e-05
1.92157e-05
1.91021e-05
1.89807e-05
1.88507e-05
1.87115e-05
1.85625e-05
1.84028e-05
1.82317e-05
1.80483e-05
1.7852e-05
1.76421e-05
1.74183e-05
1.84606e-05
2.06919e-05
2.06999e-05
2.07045e-05
2.07055e-05
2.07034e-05
2.06991e-05
2.06939e-05
2.06886e-05
2.06843e-05
2.06817e-05
2.06823e-05
2.06884e-05
2.07035e-05
2.07295e-05
2.07623e-05
2.07877e-05
2.07868e-05
2.07512e-05
2.06911e-05
2.06187e-05
2.04756e-05
2.03993e-05
2.03365e-05
2.02765e-05
2.02173e-05
2.01577e-05
2.00969e-05
2.00342e-05
1.99691e-05
1.99012e-05
1.98301e-05
1.97552e-05
1.96762e-05
1.95926e-05
1.95039e-05
1.94096e-05
1.93091e-05
1.92019e-05
1.90875e-05
1.89652e-05
1.88344e-05
1.86945e-05
1.85446e-05
1.83842e-05
1.82124e-05
1.80284e-05
1.78314e-05
1.76209e-05
1.73967e-05
1.84353e-05
2.06962e-05
2.07044e-05
2.07092e-05
2.07103e-05
2.07083e-05
2.07042e-05
2.06991e-05
2.06939e-05
2.06896e-05
2.06871e-05
2.06877e-05
2.06939e-05
2.07089e-05
2.07347e-05
2.07673e-05
2.07924e-05
2.07913e-05
2.07556e-05
2.06952e-05
2.06222e-05
2.04776e-05
2.04002e-05
2.03364e-05
2.02754e-05
2.02153e-05
2.01548e-05
2.00929e-05
2.00293e-05
1.99632e-05
1.98944e-05
1.98223e-05
1.97464e-05
1.96665e-05
1.95819e-05
1.94922e-05
1.93969e-05
1.92956e-05
1.91875e-05
1.90722e-05
1.8949e-05
1.88173e-05
1.86765e-05
1.85258e-05
1.83646e-05
1.8192e-05
1.80073e-05
1.78097e-05
1.75986e-05
1.73738e-05
1.84086e-05
2.07007e-05
2.07092e-05
2.07141e-05
2.07154e-05
2.07136e-05
2.07097e-05
2.07047e-05
2.06996e-05
2.06954e-05
2.06929e-05
2.06936e-05
2.06997e-05
2.07147e-05
2.07404e-05
2.07727e-05
2.07975e-05
2.07962e-05
2.07605e-05
2.06998e-05
2.06262e-05
2.04799e-05
2.04014e-05
2.03365e-05
2.02745e-05
2.02134e-05
2.01518e-05
2.0089e-05
2.00243e-05
1.99572e-05
1.98873e-05
1.98142e-05
1.97373e-05
1.96563e-05
1.95707e-05
1.948e-05
1.93837e-05
1.92814e-05
1.91723e-05
1.9056e-05
1.89319e-05
1.87993e-05
1.86576e-05
1.85061e-05
1.8344e-05
1.81706e-05
1.79851e-05
1.77867e-05
1.75749e-05
1.73497e-05
1.83804e-05
2.07055e-05
2.07141e-05
2.07193e-05
2.07209e-05
2.07193e-05
2.07155e-05
2.07106e-05
2.07057e-05
2.07016e-05
2.06992e-05
2.06999e-05
2.07061e-05
2.0721e-05
2.07466e-05
2.07786e-05
2.08031e-05
2.08016e-05
2.07658e-05
2.07049e-05
2.06305e-05
2.04825e-05
2.04029e-05
2.03369e-05
2.02738e-05
2.02115e-05
2.01489e-05
2.0085e-05
2.00192e-05
1.9951e-05
1.988e-05
1.98058e-05
1.97278e-05
1.96457e-05
1.9559e-05
1.94673e-05
1.93699e-05
1.92665e-05
1.91564e-05
1.9039e-05
1.89139e-05
1.87803e-05
1.86377e-05
1.84852e-05
1.83222e-05
1.8148e-05
1.79616e-05
1.77625e-05
1.755e-05
1.73242e-05
1.83506e-05
2.07105e-05
2.07194e-05
2.07248e-05
2.07266e-05
2.07252e-05
2.07217e-05
2.0717e-05
2.07122e-05
2.07083e-05
2.0706e-05
2.07067e-05
2.07129e-05
2.07278e-05
2.07533e-05
2.07851e-05
2.08092e-05
2.08076e-05
2.07716e-05
2.07104e-05
2.06354e-05
2.04856e-05
2.04047e-05
2.03375e-05
2.02732e-05
2.02098e-05
2.0146e-05
2.00809e-05
2.0014e-05
1.99447e-05
1.98725e-05
1.97971e-05
1.9718e-05
1.96347e-05
1.95469e-05
1.94539e-05
1.93554e-05
1.92509e-05
1.91396e-05
1.90212e-05
1.8895e-05
1.87604e-05
1.86167e-05
1.84632e-05
1.82993e-05
1.81241e-05
1.79369e-05
1.77369e-05
1.75237e-05
1.72973e-05
1.83192e-05
2.07157e-05
2.07249e-05
2.07306e-05
2.07326e-05
2.07315e-05
2.07282e-05
2.07238e-05
2.07192e-05
2.07154e-05
2.07132e-05
2.0714e-05
2.07203e-05
2.07352e-05
2.07606e-05
2.07921e-05
2.08159e-05
2.08141e-05
2.0778e-05
2.07165e-05
2.06407e-05
2.0489e-05
2.04068e-05
2.03383e-05
2.02728e-05
2.02082e-05
2.01432e-05
2.00769e-05
2.00087e-05
1.99382e-05
1.98648e-05
1.97881e-05
1.97077e-05
1.96232e-05
1.95342e-05
1.944e-05
1.93403e-05
1.92345e-05
1.91221e-05
1.90025e-05
1.88752e-05
1.87394e-05
1.85946e-05
1.844e-05
1.82751e-05
1.80989e-05
1.79108e-05
1.771e-05
1.7496e-05
1.72689e-05
1.82861e-05
2.07211e-05
2.07306e-05
2.07367e-05
2.0739e-05
2.07382e-05
2.07352e-05
2.0731e-05
2.07266e-05
2.0723e-05
2.0721e-05
2.07219e-05
2.07282e-05
2.07432e-05
2.07685e-05
2.07997e-05
2.08233e-05
2.08213e-05
2.07851e-05
2.07231e-05
2.06465e-05
2.04928e-05
2.04093e-05
2.03395e-05
2.02727e-05
2.02068e-05
2.01404e-05
2.00728e-05
2.00034e-05
1.99315e-05
1.98568e-05
1.97788e-05
1.96971e-05
1.96113e-05
1.95209e-05
1.94254e-05
1.93244e-05
1.92174e-05
1.91037e-05
1.89829e-05
1.88543e-05
1.87173e-05
1.85713e-05
1.84157e-05
1.82496e-05
1.80724e-05
1.78833e-05
1.76815e-05
1.74667e-05
1.7239e-05
1.82511e-05
2.07268e-05
2.07367e-05
2.07431e-05
2.07458e-05
2.07453e-05
2.07425e-05
2.07386e-05
2.07346e-05
2.07311e-05
2.07293e-05
2.07304e-05
2.07368e-05
2.07518e-05
2.0777e-05
2.0808e-05
2.08313e-05
2.08291e-05
2.07927e-05
2.07304e-05
2.06529e-05
2.04972e-05
2.04122e-05
2.0341e-05
2.02727e-05
2.02055e-05
2.01378e-05
2.00688e-05
1.99979e-05
1.99247e-05
1.98486e-05
1.97692e-05
1.96861e-05
1.95989e-05
1.95071e-05
1.94102e-05
1.93079e-05
1.91995e-05
1.90844e-05
1.89623e-05
1.88324e-05
1.86941e-05
1.85469e-05
1.839e-05
1.82228e-05
1.80444e-05
1.78542e-05
1.76515e-05
1.74358e-05
1.72073e-05
1.82142e-05
2.07327e-05
2.0743e-05
2.07498e-05
2.07529e-05
2.07527e-05
2.07504e-05
2.07468e-05
2.0743e-05
2.07399e-05
2.07382e-05
2.07395e-05
2.0746e-05
2.0761e-05
2.07862e-05
2.0817e-05
2.084e-05
2.08376e-05
2.08011e-05
2.07383e-05
2.066e-05
2.05021e-05
2.04156e-05
2.03428e-05
2.02731e-05
2.02044e-05
2.01352e-05
2.00648e-05
1.99925e-05
1.99177e-05
1.98401e-05
1.97592e-05
1.96746e-05
1.9586e-05
1.94927e-05
1.93944e-05
1.92906e-05
1.91807e-05
1.90643e-05
1.89407e-05
1.88094e-05
1.86698e-05
1.85212e-05
1.8363e-05
1.81945e-05
1.80149e-05
1.78236e-05
1.76197e-05
1.7403e-05
1.71738e-05
1.8175e-05
2.07389e-05
2.07496e-05
2.07568e-05
2.07603e-05
2.07606e-05
2.07586e-05
2.07554e-05
2.0752e-05
2.07491e-05
2.07478e-05
2.07492e-05
2.07559e-05
2.07711e-05
2.07961e-05
2.08268e-05
2.08495e-05
2.08469e-05
2.08103e-05
2.0747e-05
2.06677e-05
2.05075e-05
2.04194e-05
2.03451e-05
2.02738e-05
2.02035e-05
2.01328e-05
2.00608e-05
1.99869e-05
1.99106e-05
1.98314e-05
1.97489e-05
1.96628e-05
1.95725e-05
1.94777e-05
1.93778e-05
1.92725e-05
1.91611e-05
1.90431e-05
1.89181e-05
1.87853e-05
1.86443e-05
1.84943e-05
1.83347e-05
1.81648e-05
1.79839e-05
1.77913e-05
1.75862e-05
1.73683e-05
1.7138e-05
1.81328e-05
2.07453e-05
2.07565e-05
2.07642e-05
2.07682e-05
2.07689e-05
2.07674e-05
2.07646e-05
2.07616e-05
2.07591e-05
2.0758e-05
2.07597e-05
2.07666e-05
2.07818e-05
2.08069e-05
2.08374e-05
2.08599e-05
2.08571e-05
2.08202e-05
2.07565e-05
2.06762e-05
2.05136e-05
2.04238e-05
2.03477e-05
2.02748e-05
2.02029e-05
2.01306e-05
2.00569e-05
1.99813e-05
1.99033e-05
1.98225e-05
1.97383e-05
1.96505e-05
1.95586e-05
1.94621e-05
1.93605e-05
1.92535e-05
1.91406e-05
1.9021e-05
1.88944e-05
1.87601e-05
1.86176e-05
1.84661e-05
1.83051e-05
1.81337e-05
1.79514e-05
1.77574e-05
1.75508e-05
1.73314e-05
1.70996e-05
1.80868e-05
2.0752e-05
2.07637e-05
2.07719e-05
2.07764e-05
2.07777e-05
2.07766e-05
2.07743e-05
2.07717e-05
2.07696e-05
2.07689e-05
2.07709e-05
2.07781e-05
2.07935e-05
2.08185e-05
2.08488e-05
2.08711e-05
2.08681e-05
2.0831e-05
2.07668e-05
2.06854e-05
2.05204e-05
2.04288e-05
2.03509e-05
2.02762e-05
2.02025e-05
2.01285e-05
2.00531e-05
1.99757e-05
1.98959e-05
1.98133e-05
1.97274e-05
1.96377e-05
1.9544e-05
1.94458e-05
1.93425e-05
1.92338e-05
1.91191e-05
1.89979e-05
1.88696e-05
1.87338e-05
1.85896e-05
1.84367e-05
1.82742e-05
1.81016e-05
1.7918e-05
1.77229e-05
1.75155e-05
1.72956e-05
1.70636e-05
1.80455e-05
2.07589e-05
2.07712e-05
2.078e-05
2.0785e-05
2.07869e-05
2.07864e-05
2.07846e-05
2.07825e-05
2.07809e-05
2.07806e-05
2.07829e-05
2.07904e-05
2.0806e-05
2.08311e-05
2.08613e-05
2.08833e-05
2.08802e-05
2.08428e-05
2.0778e-05
2.06955e-05
2.05279e-05
2.04344e-05
2.03546e-05
2.0278e-05
2.02025e-05
2.01266e-05
2.00493e-05
1.99701e-05
1.98884e-05
1.98039e-05
1.9716e-05
1.96245e-05
1.95289e-05
1.94288e-05
1.93237e-05
1.92131e-05
1.90966e-05
1.89737e-05
1.88437e-05
1.87061e-05
1.85604e-05
1.84059e-05
1.8242e-05
1.8068e-05
1.78832e-05
1.7687e-05
1.74786e-05
1.72579e-05
1.70248e-05
1.79983e-05
2.07661e-05
2.0779e-05
2.07884e-05
2.07941e-05
2.07965e-05
2.07967e-05
2.07955e-05
2.0794e-05
2.07929e-05
2.0793e-05
2.07958e-05
2.08036e-05
2.08194e-05
2.08447e-05
2.08747e-05
2.08966e-05