/*--------------------------------*- C++ -*----------------------------------*\
  =========                 |
  \\      /  F ield         | OpenFOAM: The Open Source CFD Toolbox
   \\    /   O peration     | Website:  https://openfoam.org
    \\  /    A nd           | Version:  9
     \\/     M anipulation  |
\*---------------------------------------------------------------------------*/
FoamFile
{
    format      ascii;
    class       volVectorField;
    location    "0.15";
    object      U;
}
// * * * * * * * * * * * * * * * * * * * * * * * * * * * * * * * * * * * * * //

dimensions      [0 1 -1 0 0 0 0];

internalField   nonuniform List<vector> 
5000
(
(6.29648e-06 0 -0.0290777)
(3.69163e-06 0 -0.0326163)
(-1.15549e-06 0 -0.0345764)
(-6.33761e-06 0 -0.0348347)
(-9.87566e-06 0 -0.0336451)
(-1.0819e-05 0 -0.0315366)
(-9.36076e-06 0 -0.0291011)
(-6.18177e-06 0 -0.026851)
(-1.81419e-06 0 -0.025185)
(4.01126e-06 0 -0.0244681)
(1.28984e-05 0 -0.0252358)
(2.92e-05 0 -0.0285133)
(6.17453e-05 0 -0.0361533)
(0.000116143 0 -0.0504317)
(0.00016024 0 -0.0711501)
(0.000104326 0 -0.0901666)
(-5.9613e-05 0 -0.0923321)
(-0.000165202 0 -0.0717728)
(-0.000126885 0 -0.0404111)
(-4.03177e-05 0 -0.0120885)
(1.4856e-05 0 0.0070456)
(3.8643e-05 0 0.0192844)
(4.92572e-05 0 0.0282739)
(5.35918e-05 0 0.0352271)
(5.47913e-05 0 0.0407826)
(5.41009e-05 0 0.0452834)
(5.20733e-05 0 0.0489291)
(4.90027e-05 0 0.0518478)
(4.50759e-05 0 0.0541282)
(4.04296e-05 0 0.0558344)
(3.51766e-05 0 0.0570147)
(2.94188e-05 0 0.0577062)
(2.32557e-05 0 0.0579379)
(1.67902e-05 0 0.0577329)
(1.01328e-05 0 0.0571094)
(3.4062e-06 0 0.0560821)
(-3.24809e-06 0 0.0546618)
(-9.6608e-06 0 0.0528556)
(-1.56244e-05 0 0.0506671)
(-2.0882e-05 0 0.0480963)
(-2.51195e-05 0 0.0451406)
(-2.79659e-05 0 0.0417955)
(-2.90137e-05 0 0.0380566)
(-2.78848e-05 0 0.0339242)
(-2.43543e-05 0 0.0294098)
(-1.84826e-05 0 0.0245473)
(-1.07801e-05 0 0.0194007)
(-1.8983e-06 0 0.014067)
(4.66928e-06 0 0.00869491)
(-1.10052e-05 0 0.0036069)
(-8.31863e-06 0 -0.0293019)
(-1.17607e-05 0 -0.0328431)
(-2.05284e-05 0 -0.0348067)
(-3.01865e-05 0 -0.0350699)
(-3.59222e-05 0 -0.033886)
(-3.51606e-05 0 -0.0317823)
(-2.80369e-05 0 -0.0293501)
(-1.58886e-05 0 -0.0271017)
(1.96186e-07 0 -0.0254362)
(2.08532e-05 0 -0.0247198)
(4.96895e-05 0 -0.0254903)
(9.60609e-05 0 -0.0287769)
(0.000177924 0 -0.0364352)
(0.000305368 0 -0.0507261)
(0.000408445 0 -0.0713953)
(0.000292112 0 -0.0902853)
(-6.9866e-05 0 -0.0924077)
(-0.000318688 0 -0.0719682)
(-0.000251435 0 -0.0407003)
(-6.15602e-05 0 -0.0123643)
(7.2327e-05 0 0.00681035)
(0.000139865 0 0.0190803)
(0.000176123 0 0.028089)
(0.000194832 0 0.0350556)
(0.000203504 0 0.040622)
(0.000205742 0 0.0451325)
(0.000203401 0 0.0487875)
(0.000197557 0 0.0517154)
(0.000188917 0 0.0540046)
(0.000178002 0 0.0557196)
(0.000165236 0 0.0569086)
(0.000150995 0 0.0576086)
(0.000135634 0 0.0578487)
(0.000119511 0 0.0576517)
(0.000102998 0 0.0570362)
(8.64969e-05 0 0.0560163)
(7.04561e-05 0 0.054603)
(5.53875e-05 0 0.0528031)
(4.18819e-05 0 0.0506201)
(3.06156e-05 0 0.0480538)
(2.23422e-05 0 0.0451011)
(1.7868e-05 0 0.0417572)
(1.79783e-05 0 0.0380178)
(2.32622e-05 0 0.0338832)
(3.38369e-05 0 0.0293658)
(4.91117e-05 0 0.024501)
(6.77044e-05 0 0.0193546)
(8.8394e-05 0 0.0140293)
(0.00010335 0 0.00870398)
(7.35489e-05 0 0.00379322)
(-4.86313e-05 0 -0.0292663)
(-4.86963e-05 0 -0.0328008)
(-5.6199e-05 0 -0.0347604)
(-6.50225e-05 0 -0.0350238)
(-6.83816e-05 0 -0.0338436)
(-6.24573e-05 0 -0.031745)
(-4.69944e-05 0 -0.0293175)
(-2.3542e-05 0 -0.027073)
(6.60021e-06 0 -0.0254116)
(4.42322e-05 0 -0.024701)
(9.39419e-05 0 -0.0254828)
(0.000167481 0 -0.028792)
(0.000286784 0 -0.0364863)
(0.000464295 0 -0.0507954)
(0.000610876 0 -0.0713728)
(0.000470652 0 -0.0900445)
(-1.70826e-06 0 -0.0920881)
(-0.00033986 0 -0.0718495)
(-0.000263787 0 -0.0407732)
(-1.45396e-05 0 -0.0124628)
(0.000172214 0 0.00675232)
(0.000276198 0 0.0190588)
(0.000338259 0 0.02809)
(0.000374042 0 0.0350696)
(0.00039349 0 0.0406442)
(0.000401917 0 0.0451606)
(0.000402337 0 0.0488202)
(0.000396625 0 0.0517518)
(0.000386067 0 0.0540443)
(0.000371621 0 0.0557622)
(0.000354069 0 0.0569538)
(0.000334102 0 0.057656)
(0.000312362 0 0.0578978)
(0.000289481 0 0.0577021)
(0.0002661 0 0.0570872)
(0.000242886 0 0.0560671)
(0.000220556 0 0.0546525)
(0.000199891 0 0.0528499)
(0.000181748 0 0.0506625)
(0.000167055 0 0.0480895)
(0.00015679 0 0.0451274)
(0.00015194 0 0.0417711)
(0.000153414 0 0.0380161)
(0.00016185 0 0.0338631)
(0.000177308 0 0.0293263)
(0.000198905 0 0.0244431)
(0.000224625 0 0.0192836)
(0.000252204 0 0.0139596)
(0.000275447 0 0.00867501)
(0.000260688 0 0.00386115)
(-0.00011397 0 -0.0291706)
(-0.000107676 0 -0.032697)
(-0.000109755 0 -0.0346519)
(-0.000112988 0 -0.0349159)
(-0.000109386 0 -0.0337408)
(-9.42496e-05 0 -0.031649)
(-6.70008e-05 0 -0.029228)
(-2.92741e-05 0 -0.0269892)
(1.76966e-05 0 -0.0253333)
(7.48993e-05 0 -0.0246304)
(0.000147495 0 -0.0254261)
(0.000248458 0 -0.0287612)
(0.000400475 0 -0.0364924)
(0.000613935 0 -0.0508104)
(0.000786461 0 -0.0712713)
(0.000630757 0 -0.0897002)
(9.68716e-05 0 -0.0916686)
(-0.000284302 0 -0.0716678)
(-0.000191962 0 -0.0408258)
(0.000101996 0 -0.0125618)
(0.000328665 0 0.00669575)
(0.000462485 0 0.0190463)
(0.000547448 0 0.028107)
(0.000599936 0 0.0351051)
(0.000631242 0 0.0406917)
(0.000647643 0 0.0452164)
(0.000652932 0 0.0488823)
(0.000649617 0 0.0518188)
(0.000639481 0 0.0541154)
(0.000623894 0 0.0558367)
(0.000603991 0 0.0570311)
(0.000580773 0 0.0577354)
(0.000555164 0 0.0579787)
(0.000528055 0 0.0577836)
(0.000500326 0 0.0571683)
(0.000472868 0 0.0561467)
(0.000446597 0 0.0547291)
(0.00042247 0 0.0529217)
(0.000401491 0 0.0507271)
(0.000384702 0 0.0481443)
(0.000373154 0 0.0451693)
(0.000367861 0 0.0417967)
(0.000369696 0 0.0380221)
(0.000379198 0 0.033847)
(0.000396262 0 0.0292874)
(0.000419672 0 0.0243838)
(0.000446624 0 0.0192119)
(0.000473309 0 0.0138938)
(0.000494736 0 0.00864392)
(0.000489455 0 0.00387955)
(-0.000205452 0 -0.0291547)
(-0.000190178 0 -0.032674)
(-0.000183081 0 -0.0346254)
(-0.000176321 0 -0.0348915)
(-0.000161191 0 -0.0337231)
(-0.00013252 0 -0.0316399)
(-8.96036e-05 0 -0.0292273)
(-3.41278e-05 0 -0.0269959)
(3.29012e-05 0 -0.0253472)
(0.000112689 0 -0.0246539)
(0.000210685 0 -0.0254655)
(0.000340362 0 -0.0288289)
(0.000523017 0 -0.0365982)
(0.000762963 0 -0.0509202)
(0.000946974 0 -0.0712523)
(0.000778576 0 -0.0894274)
(0.000218064 0 -0.091315)
(-0.000168935 0 -0.0715498)
(-4.90249e-05 0 -0.0409503)
(0.000284883 0 -0.0127399)
(0.000545672 0 0.00656063)
(0.000705693 0 0.0189588)
(0.00081146 0 0.0280537)
(0.000880134 0 0.0350752)
(0.000923935 0 0.0406786)
(0.000949663 0 0.0452162)
(0.000961613 0 0.0488926)
(0.000962743 0 0.0518381)
(0.000955227 0 0.0541425)
(0.000940791 0 0.0558706)
(0.000920883 0 0.0570708)
(0.000896785 0 0.0577802)
(0.000869674 0 0.0580276)
(0.000840667 0 0.0578355)
(0.000810841 0 0.0572219)
(0.000781258 0 0.0562005)
(0.000752974 0 0.0547813)
(0.000727051 0 0.0529702)
(0.000704561 0 0.0507695)
(0.000686573 0 0.0481777)
(0.000674116 0 0.0451907)
(0.000668121 0 0.0418028)
(0.000669298 0 0.0380102)
(0.00067793 0 0.0338153)
(0.000693577 0 0.0292362)
(0.000714616 0 0.0243174)
(0.00073763 0 0.0191406)
(0.000758173 0 0.0138363)
(0.000772964 0 0.008619)
(0.000768515 0 0.00388187)
(-0.000323454 0 -0.0291909)
(-0.000296549 0 -0.032704)
(-0.000276797 0 -0.034653)
(-0.000255989 0 -0.0349225)
(-0.00022505 0 -0.0337622)
(-0.000178729 0 -0.031689)
(-0.000116336 0 -0.0292862)
(-3.94752e-05 0 -0.0270637)
(5.09347e-05 0 -0.0254237)
(0.000156292 0 -0.0247417)
(0.000282258 0 -0.025571)
(0.000442054 0 -0.0289637)
(0.000654317 0 -0.0367693)
(0.000915253 0 -0.051088)
(0.00110314 0 -0.071281)
(0.000927456 0 -0.0892005)
(0.000368491 0 -0.091012)
(2.77159e-06 0 -0.0714838)
(0.000157962 0 -0.0411284)
(0.000530093 0 -0.0129721)
(0.000822779 0 0.00637398)
(0.00100786 0 0.0188228)
(0.00113398 0 0.0279551)
(0.00121926 0 0.0350031)
(0.00127664 0 0.0406267)
(0.00131322 0 0.0451806)
(0.00133367 0 0.0488707)
(0.00134125 0 0.0518282)
(0.00133848 0 0.0541432)
(0.00132738 0 0.0558808)
(0.00130965 0 0.0570895)
(0.00128684 0 0.0578061)
(0.00126033 0 0.0580595)
(0.00123144 0 0.0578722)
(0.00120141 0 0.0572618)
(0.00117142 0 0.056242)
(0.00114264 0 0.0548223)
(0.00111619 0 0.0530086)
(0.00109315 0 0.0508027)
(0.00107456 0 0.0482031)
(0.00106136 0 0.0452053)
(0.00105432 0 0.041804)
(0.00105392 0 0.0379957)
(0.00106013 0 0.0337842)
(0.00107213 0 0.0291902)
(0.00108798 0 0.0242619)
(0.00110413 0 0.0190867)
(0.00111669 0 0.0137993)
(0.00112499 0 0.00860748)
(0.0011186 0 0.00388531)
(-0.000467424 0 -0.0292306)
(-0.000426255 0 -0.0327383)
(-0.000390614 0 -0.034686)
(-0.000352115 0 -0.03496)
(-0.000301564 0 -0.033809)
(-0.00023388 0 -0.0317469)
(-0.000148449 0 -0.029355)
(-4.67835e-05 0 -0.0271425)
(7.01847e-05 0 -0.0255126)
(0.000203966 0 -0.0248432)
(0.000360287 0 -0.0256914)
(0.000551615 0 -0.0291131)
(0.000793419 0 -0.036951)
(0.00107371 0 -0.0512567)
(0.00126486 0 -0.0713018)
(0.00109019 0 -0.0889709)
(0.000552895 0 -0.0907208)
(0.000225897 0 -0.0714385)
(0.000422221 0 -0.0413292)
(0.000833286 0 -0.0132257)
(0.00115815 0 0.00616898)
(0.00136872 0 0.0186714)
(0.00151586 0 0.0278436)
(0.00161891 0 0.0349204)
(0.00169134 0 0.040566)
(0.00174048 0 0.0451379)
(0.00177128 0 0.0488435)
(0.00178729 0 0.0518147)
(0.00179126 0 0.0541418)
(0.00178547 0 0.0558902)
(0.00177187 0 0.0571084)
(0.00175222 0 0.0578333)
(0.0017281 0 0.0580936)
(0.00170097 0 0.0579116)
(0.00167223 0 0.057305)
(0.00164315 0 0.056287)
(0.00161497 0 0.0548672)
(0.00158883 0 0.0530511)
(0.0015658 0 0.0508405)
(0.00154687 0 0.0482336)
(0.00153287 0 0.045226)
(0.00152439 0 0.0418126)
(0.0015217 0 0.0379906)
(0.0015245 0 0.0337657)
(0.0015317 0 0.0291607)
(0.00154119 0 0.0242275)
(0.00154974 0 0.0190571)
(0.0015547 0 0.0137843)
(0.00155793 0 0.00860884)
(0.00154953 0 0.00389181)
(-0.0006367 0 -0.0292657)
(-0.000578655 0 -0.0327689)
(-0.00052414 0 -0.0347164)
(-0.000464682 0 -0.0349961)
(-0.000391184 0 -0.0338554)
(-0.000298807 0 -0.0318056)
(-0.000187045 0 -0.0294256)
(-5.74164e-05 0 -0.0272242)
(8.90928e-05 0 -0.0256056)
(0.000253992 0 -0.0249499)
(0.00044288 0 -0.0258177)
(0.000667268 0 -0.0292677)
(0.000939513 0 -0.0371332)
(0.00124055 0 -0.0514169)
(0.00143938 0 -0.0713085)
(0.00127599 0 -0.088737)
(0.000774336 0 -0.090441)
(0.000496433 0 -0.0714115)
(0.000738336 0 -0.0415478)
(0.0011906 0 -0.0134954)
(0.00154955 0 0.00595037)
(0.00178706 0 0.0185091)
(0.00195672 0 0.0277234)
(0.00207922 0 0.0348306)
(0.00216844 0 0.0404996)
(0.00223197 0 0.045091)
(0.00227501 0 0.0488133)
(0.00230134 0 0.0517992)
(0.00231392 0 0.0541395)
(0.00231526 0 0.0558996)
(0.00230753 0 0.0571281)
(0.00229267 0 0.057862)
(0.00227241 0 0.0581296)
(0.00224839 0 0.0579535)
(0.0022221 0 0.0573509)
(0.0021949 0 0.0563351)
(0.00216808 0 0.0549155)
(0.00214281 0 0.0530973)
(0.00212015 0 0.0508824)
(0.00210103 0 0.0482688)
(0.0020862 0 0.0452524)
(0.00207615 0 0.0418284)
(0.002071 0 0.0379951)
(0.00207028 0 0.0337596)
(0.00207275 0 0.0291474)
(0.00207631 0 0.0242129)
(0.00207821 0 0.0190486)
(0.00207705 0 0.013787)
(0.00207656 0 0.00861998)
(0.00206632 0 0.00390147)
(-0.000830928 0 -0.0293086)
(-0.000753401 0 -0.0328086)
(-0.000677165 0 -0.0347573)
(-0.000593786 0 -0.0350439)
(-0.000494377 0 -0.0339148)
(-0.0003743 0 -0.0318784)
(-0.000233193 0 -0.0295113)
(-7.26612e-05 0 -0.027322)
(0.000106176 0 -0.0257156)
(0.000304706 0 -0.0250746)
(0.000528254 0 -0.0259625)
(0.000787366 0 -0.0294398)
(0.00109179 0 -0.0373291)
(0.0014172 0 -0.0515842)
(0.00163172 0 -0.0713204)
(0.0014918 0 -0.0885192)
(0.00103716 0 -0.0901901)
(0.000814283 0 -0.0714138)
(0.00110367 0 -0.0417921)
(0.00159904 0 -0.013789)
(0.00199459 0 0.00571001)
(0.00226124 0 0.0183273)
(0.00245571 0 0.0275857)
(0.00259984 0 0.034725)
(0.00270791 0 0.040419)
(0.00278786 0 0.0450311)
(0.00284513 0 0.0487715)
(0.00288367 0 0.0517735)
(0.00290669 0 0.0541282)
(0.00291689 0 0.0559012)
(0.00291663 0 0.057141)
(0.00290801 0 0.0578846)
(0.00289294 0 0.0581606)
(0.00287317 0 0.057991)
(0.00285029 0 0.0573932)
(0.00282579 0 0.0563803)
(0.00280098 0 0.0549614)
(0.00277708 0 0.0531421)
(0.00275516 0 0.0509237)
(0.00273616 0 0.0483046)
(0.00272079 0 0.0452808)
(0.00270951 0 0.041848)
(0.0027024 0 0.0380056)
(0.00269891 0 0.0337623)
(0.00269776 0 0.0291459)
(0.00269697 0 0.0242128)
(0.00269421 0 0.0190552)
(0.00268899 0 0.0138018)
(0.00268615 0 0.00863819)
(0.00267447 0 0.00391384)
(-0.00105021 0 -0.0293675)
(-0.000950584 0 -0.0328658)
(-0.000849871 0 -0.0348171)
(-0.000739828 0 -0.0351121)
(-0.000611761 0 -0.033996)
(-0.000461205 0 -0.031974)
(-0.00028795 0 -0.0296209)
(-9.37371e-05 0 -0.0274447)
(0.000120095 0 -0.0258514)
(0.00035471 0 -0.0252257)
(0.000615079 0 -0.0261339)
(0.000910892 0 -0.0296379)
(0.00125008 0 -0.0375482)
(0.00160511 0 -0.0517705)
(0.00184524 0 -0.0713524)
(0.00174191 0 -0.0883325)
(0.00134454 0 -0.0899792)
(0.0011805 0 -0.0714531)
(0.00151749 0 -0.0420684)
(0.00205707 0 -0.0141126)
(0.00249177 0 0.00544149)
(0.00279021 0 0.0181195)
(0.00301232 0 0.0274243)
(0.00318068 0 0.0345975)
(0.00331001 0 0.040318)
(0.00340863 0 0.0449525)
(0.00348223 0 0.0487126)
(0.00353497 0 0.0517322)
(0.00357028 0 0.0541027)
(0.00359103 0 0.0558899)
(0.00359978 0 0.0571424)
(0.0035988 0 0.0578971)
(0.00359014 0 0.0581825)
(0.0035757 0 0.0580206)
(0.00355719 0 0.0574286)
(0.00353615 0 0.0564197)
(0.00351402 0 0.0550028)
(0.00349206 0 0.0531832)
(0.00347142 0 0.0509626)
(0.00345305 0 0.0483393)
(0.00343772 0 0.0453095)
(0.00342592 0 0.0418696)
(0.00341772 0 0.0380198)
(0.00341263 0 0.0337707)
(0.0034094 0 0.0291521)
(0.00340619 0 0.0242215)
(0.00340101 0 0.0190706)
(0.00339386 0 0.0138236)
(0.00339014 0 0.00866052)
(0.00337761 0 0.00392799)
(-0.001295 0 -0.0294432)
(-0.00117075 0 -0.0329415)
(-0.00104291 0 -0.034897)
(-0.000903574 0 -0.0352019)
(-0.000744187 0 -0.0340998)
(-0.000560479 0 -0.0320935)
(-0.000352376 0 -0.0297556)
(-0.000121768 0 -0.0275934)
(0.00012976 0 -0.0260139)
(0.000403094 0 -0.025404)
(0.000702799 0 -0.0263328)
(0.00103787 0 -0.0298629)
(0.00141529 0 -0.0377922)
(0.00180603 0 -0.0519801)
(0.00208183 0 -0.0714109)
(0.00202716 0 -0.0881832)
(0.00169609 0 -0.089812)
(0.00159446 0 -0.0715303)
(0.0019795 0 -0.0423772)
(0.00256452 0 -0.0144675)
(0.003041 0 0.00514283)
(0.00337412 0 0.0178836)
(0.00362691 0 0.027237)
(0.00382234 0 0.034446)
(0.00397555 0 0.0401949)
(0.00409527 0 0.0448535)
(0.00418742 0 0.0486349)
(0.00425642 0 0.0516737)
(0.00430589 0 0.0540617)
(0.00433892 0 0.0558646)
(0.00435823 0 0.0571312)
(0.00436628 0 0.0578984)
(0.00436527 0 0.0581945)
(0.00435724 0 0.0580416)
(0.00434402 0 0.0574567)
(0.00432728 0 0.0564529)
(0.00430855 0 0.0550391)
(0.0042892 0 0.0532206)
(0.00427045 0 0.0509989)
(0.00425335 0 0.0483725)
(0.00423875 0 0.0453378)
(0.0042272 0 0.0418918)
(0.00421885 0 0.0380357)
(0.00421327 0 0.0337819)
(0.00420932 0 0.0291618)
(0.00420528 0 0.0242341)
(0.00419937 0 0.0190892)
(0.00419185 0 0.0138475)
(0.00418839 0 0.00868395)
(0.00417542 0 0.0039427)
(-0.00156605 0 -0.029535)
(-0.00141482 0 -0.0330351)
(-0.00125735 0 -0.0349965)
(-0.00108611 0 -0.0353126)
(-0.000892747 0 -0.034226)
(-0.000673223 0 -0.0322365)
(-0.000427567 0 -0.0299148)
(-0.00015776 0 -0.0277676)
(0.000134362 0 -0.0262027)
(0.000449402 0 -0.0256092)
(0.000791524 0 -0.0265588)
(0.00116913 0 -0.0301146)
(0.00158892 0 -0.0380624)
(0.00202163 0 -0.0522161)
(0.002342 0 -0.0715008)
(0.00234578 0 -0.0880753)
(0.00208851 0 -0.08969)
(0.0020536 0 -0.0716454)
(0.00248911 0 -0.0427178)
(0.00312202 0 -0.0148539)
(0.00364327 0 0.00481322)
(0.0040141 0 0.0176185)
(0.00430067 0 0.0270224)
(0.00452609 0 0.0342692)
(0.00470593 0 0.0400484)
(0.00484926 0 0.0447329)
(0.00496228 0 0.0485374)
(0.00504966 0 0.051597)
(0.00511521 0 0.054004)
(0.00516226 0 0.0558243)
(0.00519372 0 0.0571065)
(0.0052122 0 0.0578876)
(0.0052201 0 0.0581958)
(0.00521959 0 0.0580531)
(0.00521265 0 0.0574767)
(0.00520108 0 0.0564792)
(0.00518653 0 0.0550697)
(0.0051705 0 0.0532533)
(0.00515432 0 0.0510316)
(0.00513915 0 0.0484031)
(0.00512594 0 0.0453645)
(0.00511533 0 0.0419132)
(0.00510756 0 0.0380516)
(0.00510225 0 0.0337934)
(0.00509836 0 0.0291721)
(0.0050943 0 0.0242473)
(0.00508841 0 0.0191079)
(0.00508109 0 0.0138709)
(0.00507824 0 0.00870693)
(0.00506479 0 0.00395736)
(-0.00186433 0 -0.029644)
(-0.00168398 0 -0.0331479)
(-0.00149448 0 -0.0351167)
(-0.00128875 0 -0.0354456)
(-0.00105873 0 -0.0343757)
(-0.000800671 0 -0.0324042)
(-0.000514657 0 -0.0300999)
(-0.000202664 0 -0.0279688)
(0.00013325 0 -0.0264194)
(0.000493415 0 -0.0258429)
(0.00088162 0 -0.0268136)
(0.00130567 0 -0.0303954)
(0.00177246 0 -0.0383619)
(0.00225315 0 -0.0524827)
(0.00262549 0 -0.0716271)
(0.00269505 0 -0.0880134)
(0.00251758 0 -0.0896164)
(0.00255467 0 -0.0718004)
(0.00304551 0 -0.043092)
(0.00373048 0 -0.0152734)
(0.00430004 0 0.00445068)
(0.0047118 0 0.0173219)
(0.00503529 0 0.0267783)
(0.00529368 0 0.0340649)
(0.00550292 0 0.0398762)
(0.00567245 0 0.0445884)
(0.00580872 0 0.0484177)
(0.00591663 0 0.0515)
(0.00600027 0 0.0539277)
(0.00606313 0 0.0557669)
(0.00610835 0 0.0570663)
(0.00613874 0 0.0578628)
(0.00615685 0 0.0581846)
(0.00616502 0 0.0580537)
(0.00616538 0 0.0574869)
(0.00615991 0 0.0564971)
(0.00615037 0 0.0550931)
(0.00613841 0 0.05328)
(0.00612548 0 0.0510594)
(0.00611287 0 0.0484297)
(0.00610162 0 0.0453881)
(0.00609246 0 0.0419323)
(0.00608569 0 0.0380659)
(0.00608098 0 0.0338041)
(0.00607734 0 0.029182)
(0.00607328 0 0.0242601)
(0.00606721 0 0.0191263)
(0.00605971 0 0.0138941)
(0.00605709 0 0.00873003)
(0.00604273 0 0.00397239)
(-0.002191 0 -0.0297719)
(-0.00197951 0 -0.0332816)
(-0.00175569 0 -0.0352599)
(-0.00151291 0 -0.035603)
(-0.00124356 0 -0.0345512)
(-0.000944158 0 -0.032599)
(-0.00061482 0 -0.0303134)
(-0.000257432 0 -0.0281995)
(0.000125783 0 -0.0266667)
(0.000534892 0 -0.0261082)
(0.000973304 0 -0.0271005)
(0.00144824 0 -0.0307087)
(0.00196688 0 -0.0386947)
(0.00250118 0 -0.0527847)
(0.00293168 0 -0.0717946)
(0.00307264 0 -0.0880018)
(0.0029799 0 -0.0895951)
(0.00309493 0 -0.0719996)
(0.00364788 0 -0.0435037)
(0.0043907 0 -0.0157294)
(0.00501282 0 0.00405215)
(0.00546896 0 0.0169908)
(0.00583261 0 0.0265016)
(0.006127 0 0.03383)
(0.00636852 0 0.0396754)
(0.00656689 0 0.0444172)
(0.00672884 0 0.0482732)
(0.00685954 0 0.0513799)
(0.0069633 0 0.0538301)
(0.00704384 0 0.05569)
(0.0071045 0 0.0570083)
(0.0071483 0 0.0578219)
(0.00717797 0 0.0581589)
(0.00719604 0 0.0580412)
(0.0072048 0 0.0574856)
(0.00720638 0 0.0565049)
(0.00720271 0 0.0551077)
(0.00719558 0 0.0532992)
(0.00718657 0 0.0510808)
(0.00717707 0 0.0484512)
(0.00716823 0 0.0454075)
(0.00716085 0 0.0419484)
(0.00715525 0 0.0380782)
(0.00715112 0 0.0338139)
(0.0071475 0 0.0291922)
(0.00714296 0 0.024274)
(0.00713605 0 0.0191462)
(0.00712757 0 0.0139192)
(0.00712443 0 0.00875514)
(0.00710865 0 0.00398881)
(-0.00254731 0 -0.0299202)
(-0.00230272 0 -0.033438)
(-0.00204236 0 -0.0354277)
(-0.00176005 0 -0.0357869)
(-0.0014487 0 -0.0347547)
(-0.00110508 0 -0.0328232)
(-0.000729266 0 -0.0305576)
(-0.000323054 0 -0.0284624)
(0.000111219 0 -0.0269475)
(0.00057336 0 -0.0264079)
(0.00106639 0 -0.0274227)
(0.00159697 0 -0.0310579)
(0.00217245 0 -0.0390644)
(0.00276575 0 -0.0531258)
(0.00326003 0 -0.0720072)
(0.00347731 0 -0.0880439)
(0.00347379 0 -0.0896301)
(0.0036729 0 -0.0722478)
(0.00429566 0 -0.0439578)
(0.00510317 0 -0.016226)
(0.00578276 0 0.00361423)
(0.00628707 0 0.016622)
(0.00669431 0 0.0261894)
(0.00702789 0 0.0335615)
(0.00730465 0 0.039443)
(0.00753463 0 0.0442163)
(0.00772482 0 0.0481009)
(0.00788064 0 0.051234)
(0.00800664 0 0.0537087)
(0.00810679 0 0.0555911)
(0.00818464 0 0.0569302)
(0.00824341 0 0.0577626)
(0.00828605 0 0.0581166)
(0.00831526 0 0.0580138)
(0.00833353 0 0.057471)
(0.00834315 0 0.0565009)
(0.00834622 0 0.0551121)
(0.00834465 0 0.0533096)
(0.00834018 0 0.0510949)
(0.00833429 0 0.0484666)
(0.00832821 0 0.0454223)
(0.00832279 0 0.0419612)
(0.00831838 0 0.0380887)
(0.00831467 0 0.0338235)
(0.00831072 0 0.0292037)
(0.0083052 0 0.0242908)
(0.0082968 0 0.0191701)
(0.00828666 0 0.0139486)
(0.0082824 0 0.00878409)
(0.00826489 0 0.00400756)
(-0.00293457 0 -0.0300902)
(-0.00265491 0 -0.0336184)
(-0.00235587 0 -0.0356218)
(-0.00203166 0 -0.0359988)
(-0.00167566 0 -0.0349879)
(-0.00128484 0 -0.0330787)
(-0.000859248 0 -0.0308348)
(-0.000400606 0 -0.0287599)
(8.86384e-05 0 -0.0272644)
(0.000608032 0 -0.0267451)
(0.00116021 0 -0.0277832)
(0.00175138 0 -0.0314464)
(0.0023888 0 -0.0394745)
(0.00304644 0 -0.0535098)
(0.00361016 0 -0.0722681)
(0.00390883 0 -0.0881426)
(0.00399917 0 -0.0897247)
(0.0042884 0 -0.0725496)
(0.00498869 0 -0.0444594)
(0.00586817 0 -0.0167675)
(0.00661062 0 0.00313333)
(0.00716725 0 0.0162124)
(0.00762181 0 0.0258384)
(0.007998 0 0.0332565)
(0.00831317 0 0.039176)
(0.00857767 0 0.0439831)
(0.00879877 0 0.0478983)
(0.00898217 0 0.0510599)
(0.00913265 0 0.053561)
(0.00925441 0 0.055468)
(0.00935126 0 0.0568298)
(0.00942663 0 0.057683)
(0.00948368 0 0.0580558)
(0.00952532 0 0.0579698)
(0.00955422 0 0.0574416)
(0.00957286 0 0.0564838)
(0.00958351 0 0.055105)
(0.00958823 0 0.0533101)
(0.00958887 0 0.0511006)
(0.00958702 0 0.0484752)
(0.00958399 0 0.0454319)
(0.00958068 0 0.0419705)
(0.00957747 0 0.0380976)
(0.00957406 0 0.0338335)
(0.00956958 0 0.0292175)
(0.00956282 0 0.0243116)
(0.00955265 0 0.0191991)
(0.00954061 0 0.0139835)
(0.009535 0 0.00881777)
(0.0095157 0 0.00402909)
(-0.00335418 0 -0.030283)
(-0.00303747 0 -0.0338242)
(-0.00269767 0 -0.0358435)
(-0.00232921 0 -0.0362405)
(-0.00192592 0 -0.0352527)
(-0.00148487 0 -0.0333676)
(-0.00100608 0 -0.0311472)
(-0.000491302 0 -0.0290945)
(5.68981e-05 0 -0.0276201)
(0.000637811 0 -0.0271225)
(0.00125372 0 -0.0281852)
(0.00191049 0 -0.0318773)
(0.0026151 0 -0.0399284)
(0.00334266 0 -0.0539402)
(0.00398185 0 -0.0725811)
(0.00436764 0 -0.0883013)
(0.00455698 0 -0.0898823)
(0.00494223 0 -0.0729096)
(0.00572727 0 -0.0450134)
(0.00668586 0 -0.0173583)
(0.00749688 0 0.00260568)
(0.00811039 0 0.0157584)
(0.00861632 0 0.0254455)
(0.00903882 0 0.0329118)
(0.0093958 0 0.0388716)
(0.00969793 0 0.0437144)
(0.00995281 0 0.0476625)
(0.0101664 0 0.0508547)
(0.0103437 0 0.0533844)
(0.0104892 0 0.0553182)
(0.0106069 0 0.0567048)
(0.0107005 0 0.057581)
(0.0107735 0 0.0579746)
(0.0108289 0 0.0579073)
(0.0108695 0 0.0573956)
(0.0108982 0 0.056452)
(0.0109173 0 0.0550851)
(0.010929 0 0.0532996)
(0.0109353 0 0.0510971)
(0.0109379 0 0.0484764)
(0.0109382 0 0.0454359)
(0.0109372 0 0.0419761)
(0.0109353 0 0.0381049)
(0.0109322 0 0.0338439)
(0.0109272 0 0.0292338)
(0.0109193 0 0.0243364)
(0.0109076 0 0.0192332)
(0.0108938 0 0.0140237)
(0.010887 0 0.00885606)
(0.010866 0 0.00405335)
(-0.0038077 0 -0.0304999)
(-0.00345195 0 -0.0340565)
(-0.0030693 0 -0.0360942)
(-0.00265426 0 -0.0365134)
(-0.00220101 0 -0.0355509)
(-0.00170665 0 -0.033692)
(-0.0011712 0 -0.0314972)
(-0.000596537 0 -0.0294686)
(1.46341e-05 0 -0.0280172)
(0.000661362 0 -0.0275431)
(0.00134562 0 -0.0286319)
(0.00207307 0 -0.0323542)
(0.00285035 0 -0.0404298)
(0.00365373 0 -0.0544209)
(0.00437492 0 -0.0729502)
(0.00485433 0 -0.0885239)
(0.00514856 0 -0.0901068)
(0.0056357 0 -0.0733318)
(0.00651205 0 -0.0456243)
(0.00755654 0 -0.0180027)
(0.008442 0 0.0020272)
(0.00911728 0 0.0152564)
(0.009679 0 0.0250071)
(0.0101518 0 0.032524)
(0.0105543 0 0.0385264)
(0.0108974 0 0.0434072)
(0.0111891 0 0.0473905)
(0.0114355 0 0.0506155)
(0.0116421 0 0.0531762)
(0.0118136 0 0.0551391)
(0.0119542 0 0.0565528)
(0.0120679 0 0.0574541)
(0.0121582 0 0.0578708)
(0.0122287 0 0.0578244)
(0.0122824 0 0.0573314)
(0.0123221 0 0.0564041)
(0.0123505 0 0.0550511)
(0.0123699 0 0.053277)
(0.0123824 0 0.0510834)
(0.01239 0 0.0484695)
(0.012394 0 0.0454338)
(0.0123955 0 0.0419776)
(0.0123951 0 0.0381101)
(0.0123926 0 0.0338542)
(0.0123874 0 0.0292518)
(0.0123787 0 0.0243643)
(0.0123657 0 0.0192713)
(0.0123506 0 0.0140683)
(0.0123429 0 0.00889819)
(0.0123205 0 0.00407997)
(-0.00429686 0 -0.0307421)
(-0.00390008 0 -0.0343169)
(-0.00347247 0 -0.0363756)
(-0.00300848 0 -0.0368194)
(-0.00250256 0 -0.0358844)
(-0.00195178 0 -0.0340541)
(-0.00135621 0 -0.0318873)
(-0.000717897 0 -0.029885)
(-3.9712e-05 0 -0.0284586)
(0.000677185 0 -0.0280098)
(0.00143448 0 -0.0291265)
(0.0022378 0 -0.0328806)
(0.0030935 0 -0.0409825)
(0.00397899 0 -0.0549564)
(0.00478912 0 -0.07338)
(0.00536931 0 -0.0888147)
(0.00577504 0 -0.0904021)
(0.00637015 0 -0.0738204)
(0.00734396 0 -0.0462964)
(0.00848076 0 -0.0187053)
(0.00944662 0 0.00139359)
(0.0101888 0 0.0147022)
(0.0108111 0 0.0245193)
(0.0113386 0 0.0320893)
(0.0117904 0 0.0381368)
(0.0121781 0 0.0430581)
(0.0125098 0 0.0470789)
(0.0127921 0 0.0503394)
(0.0130307 0 0.0529335)
(0.0132304 0 0.0549279)
(0.013396 0 0.0563713)
(0.0135315 0 0.0573002)
(0.013641 0 0.0577423)
(0.013728 0 0.0577192)
(0.0137959 0 0.0572472)
(0.0138478 0 0.0563385)
(0.0138863 0 0.0550016)
(0.0139142 0 0.0532411)
(0.0139337 0 0.0510586)
(0.0139466 0 0.0484535)
(0.0139548 0 0.0454247)
(0.0139592 0 0.0419742)
(0.0139606 0 0.0381124)
(0.0139591 0 0.0338635)
(0.0139541 0 0.0292703)
(0.013945 0 0.0243941)
(0.0139313 0 0.0193122)
(0.0139154 0 0.014116)
(0.0139071 0 0.00894328)
(0.0138834 0 0.00410857)
(-0.00482354 0 -0.0310109)
(-0.00438377 0 -0.0346066)
(-0.00390907 0 -0.0366889)
(-0.00339369 0 -0.03716)
(-0.00283236 0 -0.0362552)
(-0.00222204 0 -0.0344561)
(-0.00156288 0 -0.0323197)
(-0.000857163 0 -0.0303463)
(-0.000107862 0 -0.0289472)
(0.000683663 0 -0.0285258)
(0.00151885 0 -0.0296724)
(0.00240338 0 -0.0334603)
(0.00334353 0 -0.0415908)
(0.00431779 0 -0.0555512)
(0.00522407 0 -0.0738755)
(0.00591264 0 -0.0891785)
(0.00643711 0 -0.0907728)
(0.00714665 0 -0.0743794)
(0.00822395 0 -0.0470338)
(0.0094593 0 -0.0194702)
(0.0105116 0 0.000700376)
(0.0113262 0 0.0140913)
(0.0120141 0 0.0239777)
(0.0126008 0 0.0316037)
(0.0131062 0 0.0376989)
(0.0135423 0 0.0426634)
(0.0139175 0 0.0467245)
(0.0142388 0 0.0500231)
(0.014512 0 0.0526533)
(0.0147426 0 0.0546819)
(0.0149354 0 0.0561575)
(0.0150948 0 0.0571166)
(0.0152252 0 0.0575869)
(0.0153303 0 0.0575896)
(0.0154137 0 0.0571411)
(0.0154788 0 0.0562535)
(0.0155286 0 0.0549351)
(0.0155658 0 0.0531906)
(0.0155928 0 0.0510216)
(0.0156118 0 0.0484275)
(0.0156246 0 0.0454077)
(0.0156324 0 0.0419651)
(0.0156361 0 0.0381109)
(0.0156359 0 0.0338708)
(0.0156315 0 0.0292883)
(0.0156226 0 0.0244244)
(0.0156086 0 0.0193544)
(0.0155921 0 0.0141657)
(0.0155835 0 0.00899073)
(0.0155586 0 0.00413891)
(-0.00538976 0 -0.0313073)
(-0.00490513 0 -0.034927)
(-0.00438116 0 -0.0370359)
(-0.00381194 0 -0.037537)
(-0.0031924 0 -0.0366653)
(-0.00251941 0 -0.0349003)
(-0.00179322 0 -0.0327971)
(-0.00101629 0 -0.030855)
(-0.000191673 0 -0.0294859)
(0.000679091 0 -0.0290943)
(0.00159724 0 -0.030273)
(0.00256855 0 -0.0340971)
(0.00359947 0 -0.042259)
(0.0046694 0 -0.0562099)
(0.00567923 0 -0.0744416)
(0.00648402 0 -0.0896206)
(0.00713485 0 -0.0912235)
(0.00796578 0 -0.0750133)
(0.00915292 0 -0.0478407)
(0.0104932 0 -0.0203019)
(0.0116382 0 -5.70932e-05)
(0.0125309 0 0.0134191)
(0.0132897 0 0.023378)
(0.0139406 0 0.031063)
(0.0145041 0 0.0372088)
(0.0149925 0 0.0422193)
(0.0154148 0 0.0463236)
(0.0157784 0 0.049663)
(0.0160894 0 0.0523322)
(0.0163535 0 0.0543979)
(0.0165758 0 0.0559086)
(0.0167613 0 0.0569008)
(0.0169144 0 0.057402)
(0.0170392 0 0.0574334)
(0.0171397 0 0.0570111)
(0.0172193 0 0.0561473)
(0.0172813 0 0.05485)
(0.0173287 0 0.0531239)
(0.0173641 0 0.0509708)
(0.0173898 0 0.0483901)
(0.0174077 0 0.0453817)
(0.0174195 0 0.041949)
(0.0174259 0 0.0381045)
(0.0174275 0 0.0338748)
(0.0174242 0 0.0293045)
(0.0174158 0 0.0244542)
(0.0174017 0 0.0193972)
(0.0173848 0 0.014217)
(0.017376 0 0.00904032)
(0.0173499 0 0.00417098)
(-0.00599768 0 -0.0316324)
(-0.00546638 0 -0.0352795)
(-0.00489101 0 -0.037418)
(-0.00426546 0 -0.0379523)
(-0.00358489 0 -0.0371167)
(-0.00284611 0 -0.0353888)
(-0.00204943 0 -0.0333218)
(-0.00119739 0 -0.031414)
(-0.00029313 0 -0.0300775)
(0.000661671 0 -0.0297185)
(0.00166809 0 -0.0309321)
(0.00273201 0 -0.0347952)
(0.00386027 0 -0.0429917)
(0.00503302 0 -0.0569375)
(0.00615388 0 -0.0750836)
(0.00708273 0 -0.0901462)
(0.00786778 0 -0.0917594)
(0.00882761 0 -0.0757266)
(0.0101316 0 -0.0487216)
(0.0115836 0 -0.021205)
(0.0128279 0 -0.000883639)
(0.0138045 0 0.0126808)
(0.0146399 0 0.0227154)
(0.0153601 0 0.0304625)
(0.0159864 0 0.0366622)
(0.0165314 0 0.0417218)
(0.0170048 0 0.0458722)
(0.0174142 0 0.0492557)
(0.0177661 0 0.0519669)
(0.0180665 0 0.0540727)
(0.018321 0 0.0556216)
(0.0185348 0 0.0566499)
(0.0187127 0 0.0571851)
(0.018859 0 0.0572481)
(0.0189781 0 0.056855)
(0.0190735 0 0.0560177)
(0.019149 0 0.0547444)
(0.0192075 0 0.0530395)
(0.0192521 0 0.0509048)
(0.0192852 0 0.04834)
(0.019309 0 0.0453453)
(0.0193251 0 0.0419249)
(0.0193348 0 0.0380921)
(0.0193386 0 0.0338748)
(0.0193367 0 0.0293183)
(0.0193289 0 0.024483)
(0.0193148 0 0.0194404)
(0.0192975 0 0.0142699)
(0.0192884 0 0.00909207)
(0.0192608 0 0.00420478)
(-0.00664962 0 -0.0319874)
(-0.00606995 0 -0.0356653)
(-0.00544108 0 -0.0378369)
(-0.00475673 0 -0.0384075)
(-0.0040123 0 -0.0376114)
(-0.00320458 0 -0.0359239)
(-0.00233388 0 -0.0338963)
(-0.00140273 0 -0.032026)
(-0.000414341 0 -0.0307253)
(0.000629507 0 -0.0304019)
(0.00172976 0 -0.0316534)
(0.00289241 0 -0.0355589)
(0.00412481 0 -0.0437935)
(0.00540765 0 -0.057739)
(0.00664705 0 -0.0758066)
(0.00770774 0 -0.0907605)
(0.00863492 0 -0.0923858)
(0.00973172 0 -0.0765245)
(0.0111604 0 -0.0496812)
(0.0127317 0 -0.0221842)
(0.0140823 0 -0.00178432)
(0.0151493 0 0.0118712)
(0.0160671 0 0.0219849)
(0.016862 0 0.0297977)
(0.0175559 0 0.0360544)
(0.0181622 0 0.0411663)
(0.0186907 0 0.0453663)
(0.0191496 0 0.048797)
(0.0195457 0 0.0515536)
(0.0198855 0 0.0537029)
(0.020175 0 0.0552933)
(0.0204195 0 0.056361)
(0.0206243 0 0.0569333)
(0.0207941 0 0.0570312)
(0.0209334 0 0.0566704)
(0.0210462 0 0.0558627)
(0.0211362 0 0.0546162)
(0.0212071 0 0.0529354)
(0.0212617 0 0.0508219)
(0.021303 0 0.0482758)
(0.0213333 0 0.0452974)
(0.0213544 0 0.0418916)
(0.0213677 0 0.0380729)
(0.021374 0 0.0338701)
(0.0213736 0 0.0293293)
(0.0213664 0 0.0245109)
(0.0213523 0 0.0194843)