/*--------------------------------*- C++ -*----------------------------------*\
  =========                 |
  \\      /  F ield         | OpenFOAM: The Open Source CFD Toolbox
   \\    /   O peration     | Website:  https://openfoam.org
    \\  /    A nd           | Version:  9
     \\/     M anipulation  |
\*---------------------------------------------------------------------------*/
FoamFile
{
    format      ascii;
    class       volScalarField;
    location    "0.14";
    object      alpha.water;
}
// * * * * * * * * * * * * * * * * * * * * * * * * * * * * * * * * * * * * * //

dimensions      [0 0 0 0 0 0 0];

internalField   nonuniform List<scalar> 
5000
(
-2.64538e-57
1.01546e-58
2.46395e-57
1.28058e-56
4.54045e-56
6.95071e-56
5.03947e-56
0
-1.57091e-55
-1.21629e-54
-3.01053e-54
5.93489e-70
-5.98453e-56
3.53321e-52
3.2484e-51
2.1584e-50
1.44793e-49
9.31428e-49
6.25783e-48
4.33929e-47
3.10533e-46
2.21756e-45
1.53548e-44
9.98261e-44
5.82277e-43
2.95509e-42
1.2991e-41
5.16294e-41
2.06373e-40
1.03475e-39
4.49839e-39
1.67485e-55
6.65549e-38
4.72706e-36
1.11866e-34
1.64361e-33
2.25793e-32
3.31113e-31
4.04562e-30
3.4739e-29
2.63383e-28
2.46606e-27
3.43513e-26
5.95214e-25
7.77587e-24
7.75495e-23
2.24611e-21
5.95741e-20
2.64961e-19
4.22958e-19
-3.9073e-56
-2.16041e-56
-2.78084e-56
-1.37297e-56
3.01428e-56
3.60675e-55
1.64415e-54
6.16497e-54
1.93184e-53
4.45099e-53
1.08927e-52
3.48829e-52
1.34974e-51
5.58792e-51
2.59787e-50
1.29224e-49
6.93732e-49
3.95737e-48
2.41562e-47
1.54846e-46
1.0369e-45
7.05963e-45
4.74588e-44
3.04558e-43
1.79027e-42
9.33002e-42
4.28503e-41
1.79915e-40
7.77309e-40
4.12918e-39
2.12415e-38
5.29337e-38
8.81768e-37
2.5028e-35
5.02294e-34
7.01265e-33
9.25936e-32
1.2981e-30
1.57271e-29
1.45822e-28
1.2224e-27
1.17842e-26
1.53749e-25
2.33049e-24
2.93108e-23
3.00395e-22
7.19895e-21
1.70914e-19
7.6838e-19
1.21373e-18
-2.61818e-55
-2.16516e-55
-4.17917e-55
-7.80864e-55
-1.36308e-54
-2.00668e-54
-1.41072e-54
2.53816e-54
2.58636e-53
1.49447e-52
6.61915e-52
2.74846e-51
9.72301e-51
3.17159e-50
1.10209e-49
4.64496e-49
2.21249e-48
1.16184e-47
6.65413e-47
4.1242e-46
2.70001e-45
1.81473e-44
1.21212e-43
7.7765e-43
4.62206e-42
2.47083e-41
1.17975e-40
5.19207e-40
2.34062e-39
1.26409e-38
6.88128e-38
2.1822e-37
3.33426e-36
8.13038e-35
1.52389e-33
2.10747e-32
2.7694e-31
3.806e-30
4.5809e-29
4.35245e-28
3.74089e-27
3.68648e-26
4.75913e-25
6.90237e-24
8.58669e-23
9.23495e-22
1.90673e-20
4.15223e-19
2.01179e-18
3.3905e-18
-1.22096e-54
-1.16939e-54
-2.48779e-54
-5.34136e-54
-1.14417e-53
-2.42573e-53
-5.00879e-53
-9.83122e-53
-1.71811e-52
-1.87887e-52
1.41483e-52
2.34323e-51
1.48593e-50
7.89999e-50
3.92921e-49
1.86954e-48
8.4258e-48
3.89388e-47
1.90293e-46
1.05572e-45
6.33686e-45
4.00156e-44
2.61574e-43
1.68509e-42
1.02081e-41
5.63348e-41
2.79839e-40
1.29028e-39
6.04291e-39
3.28919e-38
1.84453e-37
6.60062e-37
9.66625e-36
2.17949e-34
3.92372e-33
5.41391e-32
7.13622e-31
9.72934e-30
1.16437e-28
1.11333e-27
9.72077e-27
9.72476e-26
1.25457e-24
1.79251e-23
2.23942e-22
2.4983e-21
4.38953e-20
8.5261e-19
4.89929e-18
1.0445e-17
-4.65421e-54
-4.78101e-54
-1.05708e-53
-2.38843e-53
-5.46685e-53
-1.26526e-52
-2.95378e-52
-6.92919e-52
-1.62358e-51
-3.75286e-51
-8.40493e-51
-1.77047e-50
-3.04736e-50
-8.10223e-51
1.77595e-49
1.75756e-48
1.15291e-47
7.12413e-47
4.35232e-46
2.61696e-45
1.56312e-44
9.0741e-44
5.40508e-43
3.25615e-42
1.9461e-41
1.10692e-40
5.78231e-40
2.81039e-39
1.36796e-38
7.47432e-38
4.34913e-37
1.73332e-36
2.49945e-35
5.28613e-34
9.17556e-33
1.26333e-31
1.66982e-30
2.2551e-29
2.68144e-28
2.58599e-27
2.29961e-26
2.34069e-25
3.02363e-24
4.26216e-23
5.332e-22
6.05231e-21
9.21061e-20
1.56693e-18
1.11584e-17
3.67095e-17
-1.56933e-53
-1.67139e-53
-3.7501e-53
-8.65771e-53
-2.03778e-52
-4.88685e-52
-1.19397e-51
-2.97084e-51
-7.52334e-51
-1.93738e-50
-5.06787e-50
-1.34449e-49
-3.59384e-49
-9.50486e-49
-2.43236e-48
-5.62479e-48
-8.54987e-48
1.50215e-47
2.70553e-46
2.30776e-45
1.73246e-44
1.27577e-43
8.76835e-43
5.72881e-42
3.38744e-41
1.90715e-40
1.03396e-39
5.37073e-39
2.73801e-38
1.5033e-37
9.20841e-37
4.12629e-36
5.92602e-35
1.17926e-33
1.97533e-32
2.71231e-31
3.59029e-30
4.79485e-29
5.66063e-28
5.52365e-27
5.02732e-26
5.22502e-25
6.75584e-24
9.37477e-23
1.16693e-21
1.32759e-20
1.8178e-19
2.79479e-18
2.36317e-17
1.16879e-16
-4.89973e-53
-5.31908e-53
-1.19547e-52
-2.77951e-52
-6.61157e-52
-1.60841e-51
-4.00474e-51
-1.02125e-50
-2.66903e-50
-7.15437e-50
-1.96864e-49
-5.56546e-49
-1.61683e-48
-4.82141e-48
-1.47424e-47
-4.61149e-47
-1.45453e-46
-4.47828e-46
-1.2695e-45
-2.70397e-45
6.86468e-46
6.67854e-44
6.95924e-43
5.71562e-42
4.23239e-41
2.80529e-40
1.6211e-39
8.88874e-39
4.81887e-38
2.69381e-37
1.76063e-36
8.94701e-36
1.28399e-34
2.40951e-33
3.90213e-32
5.3448e-31
7.07792e-30
9.33916e-29
1.09593e-27
1.08648e-26
1.0177e-25
1.08335e-24
1.39963e-23
1.90456e-22
2.34419e-21
2.65762e-20
3.40911e-19
4.88246e-18
4.60849e-17
2.97297e-16
-1.45591e-52
-1.59941e-52
-3.57215e-52
-8.29599e-52
-1.97528e-51
-4.81949e-51
-1.2064e-50
-3.10188e-50
-8.20178e-50
-2.23299e-49
-6.26891e-49
-1.81807e-48
-5.45504e-48
-1.69471e-47
-5.45766e-47
-1.82229e-46
-6.28637e-46
-2.22407e-45
-7.97656e-45
-2.8442e-44
-9.58878e-44
-2.75882e-43
-4.35518e-43
1.72064e-42
3.08573e-41
2.78878e-40
2.03339e-39
1.2834e-38
7.35207e-38
4.28443e-37
3.03232e-36
1.75158e-35
2.50637e-34
4.45469e-33
7.00203e-32
9.57918e-31
1.26852e-29
1.65415e-28
1.93427e-27
1.95767e-26
1.8987e-25
2.07355e-24
2.66793e-23
3.54654e-22
4.30209e-21
4.86585e-20
6.02563e-19
8.16614e-18
8.13589e-17
6.21089e-16
-4.19124e-52
-4.65039e-52
-1.02638e-51
-2.36974e-51
-5.61703e-51
-1.36559e-50
-3.40989e-50
-8.75881e-50
-2.31789e-49
-6.32942e-49
-1.78647e-48
-5.22192e-48
-1.58379e-47
-4.99273e-47
-1.6386e-46
-5.6036e-46
-1.99486e-45
-7.36945e-45
-2.80787e-44
-1.09162e-43
-4.2419e-43
-1.59621e-42
-5.53165e-42
-1.57035e-41
-2.12433e-41
1.19614e-40
1.81085e-39
1.48416e-38
9.86481e-38
5.97663e-37
4.67415e-36
3.05627e-35
4.34894e-34
7.36355e-33
1.12768e-31
1.54351e-30
2.04393e-29
2.63798e-28
3.0879e-27
3.20909e-26
3.23951e-25
3.62981e-24
4.63081e-23
5.99547e-22
7.16102e-21
8.10629e-20
9.84221e-19
1.26583e-17
1.28088e-16
1.1002e-15
-1.17924e-51
-1.3242e-51
-2.87839e-51
-6.59038e-51
-1.55052e-50
-3.742e-50
-9.27703e-50
-2.36679e-49
-6.22474e-49
-1.69071e-48
-4.75165e-48
-1.38473e-47
-4.19388e-47
-1.32304e-46
-4.35662e-46
-1.49964e-45
-5.39757e-45
-2.02844e-44
-7.92905e-44
-3.19664e-43
-1.31081e-42
-5.35002e-42
-2.1063e-41
-7.60887e-41
-2.30967e-40
-4.75479e-40
2.95714e-40
1.28204e-38
1.10193e-37
7.4372e-37
6.39243e-36
4.712e-35
6.6408e-34
1.07861e-32
1.61706e-31
2.21789e-30
2.93709e-29
3.7617e-28
4.43208e-27
4.75578e-26
5.00954e-25
5.74855e-24
7.2443e-23
9.12087e-22
1.07394e-20
1.21888e-19
1.45559e-18
1.77229e-17
1.79027e-16
1.69979e-15
-3.26061e-51
-3.71564e-51
-7.94016e-51
-1.80053e-50
-4.19856e-50
-1.00395e-49
-2.46486e-49
-6.22508e-49
-1.62026e-48
-4.35463e-48
-1.21103e-47
-3.49313e-47
-1.04776e-46
-3.27708e-46
-1.07171e-45
-3.67331e-45
-1.32159e-44
-4.9879e-44
-1.97097e-43
-8.09905e-43
-3.42114e-42
-1.45961e-41
-6.12592e-41
-2.43397e-40
-8.67961e-40
-2.5687e-39
-5.2282e-39
5.74487e-40
9.65263e-38
8.02475e-37
7.85129e-36
6.40045e-35
8.91205e-34
1.39643e-32
2.06175e-31
2.83625e-30
3.7565e-29
4.78976e-28
5.70832e-27
6.35135e-26
6.98263e-25
8.17034e-24
1.01319e-22
1.24017e-21
1.44221e-20
1.63924e-19
1.91962e-18
2.21827e-17
2.2405e-16
2.34481e-15
-8.89664e-51
-1.03171e-50
-2.16566e-50
-4.86076e-50
-1.12279e-49
-2.65797e-49
-6.4551e-49
-1.61115e-48
-4.14065e-48
-1.09786e-47
-3.00957e-47
-8.55118e-47
-2.52569e-46
-7.78091e-46
-2.50875e-45
-8.4929e-45
-3.02838e-44
-1.13826e-43
-4.50588e-43
-1.86961e-42
-8.04317e-42
-3.53401e-41
-1.54805e-40
-6.53647e-40
-2.54463e-39
-8.61978e-39
-2.33901e-38
-4.13829e-38
1.53812e-38
7.39943e-37
8.80394e-36
7.75524e-35
1.06544e-33
1.61874e-32
2.36339e-31
3.25933e-30
4.31583e-29
5.49572e-28
6.65722e-27
7.68624e-26
8.78027e-25
1.0402e-23
1.26531e-22
1.50705e-21
1.73131e-20
1.96465e-19
2.2514e-18
2.49194e-17
2.54706e-16
2.93111e-15
-2.40292e-50
-2.84191e-50
-5.85868e-50
-1.30126e-49
-2.97718e-49
-6.97633e-49
-1.67534e-48
-4.13002e-48
-1.04701e-47
-2.73475e-47
-7.37544e-47
-2.05911e-46
-5.96789e-46
-1.8026e-45
-5.69844e-45
-1.89414e-44
-6.6493e-44
-2.47311e-43
-9.74456e-43
-4.05753e-42
-1.7669e-41
-7.93048e-41
-3.58296e-40
-1.58104e-39
-6.54306e-39
-2.41332e-38
-7.44017e-38
-1.76258e-37
-2.58067e-37
2.30603e-37
8.70423e-36
8.62817e-35
1.16709e-33
1.72918e-32
2.50009e-31
3.44953e-30
4.56144e-29
5.81136e-28
7.14689e-27
8.52111e-26
1.00403e-24
1.19486e-23
1.42257e-22
1.65382e-21
1.88089e-20
2.12509e-19
2.38734e-18
2.57599e-17
2.6848e-16
3.34768e-15
-6.43928e-50
-7.77575e-50
-1.57471e-49
-3.46099e-49
-7.84378e-49
-1.81953e-48
-4.32107e-48
-1.05221e-47
-2.63124e-47
-6.76856e-47
-1.7947e-46
-4.91725e-46
-1.39598e-45
-4.12478e-45
-1.27426e-44
-4.14274e-44
-1.42533e-43
-5.22345e-43
-2.04138e-42
-8.48457e-42
-3.71922e-41
-1.6935e-40
-7.82984e-40
-3.5677e-39
-1.54266e-38
-6.03482e-38
-2.02256e-37
-5.49514e-37
-1.13534e-36
-1.36269e-36
5.87435e-36
8.71738e-35
1.20978e-33
1.76355e-32
2.51992e-31
3.47139e-30
4.58158e-29
5.83881e-28
7.25599e-27
8.85243e-26
1.06312e-24
1.26264e-23
1.47282e-22
1.68161e-21
1.90038e-20
2.14018e-19
2.38412e-18
2.55823e-17
2.68526e-16
3.53315e-15
-1.71489e-49
-2.11424e-49
-4.20881e-49
-9.15472e-49
-2.05557e-48
-4.72151e-48
-1.10913e-47
-2.66835e-47
-6.58328e-47
-1.66807e-46
-4.34866e-46
-1.16943e-45
-3.25247e-45
-9.39968e-45
-2.83578e-44
-9.00744e-44
-3.03273e-43
-1.09079e-42
-4.21396e-42
-1.74173e-41
-7.62956e-41
-3.49158e-40
-1.63421e-39
-7.60692e-39
-3.39534e-38
-1.38903e-37
-4.95625e-37
-1.47562e-36
-3.56569e-36
-6.56672e-36
-3.00763e-36
7.7551e-35
1.21367e-33
1.76525e-32
2.50523e-31
3.44171e-30
4.53428e-29
5.77701e-28
7.20443e-27
8.84651e-26
1.06959e-24
1.26529e-23
1.46428e-22
1.66548e-21
1.87659e-20
2.11e-19
2.34487e-18
2.49649e-17
2.63759e-16
3.53702e-15
-4.54504e-49
-5.71332e-49
-1.11892e-48
-2.40887e-48
-5.3591e-48
-1.21898e-47
-2.83285e-47
-6.73409e-47
-1.63941e-46
-4.09297e-46
-1.05028e-45
-2.7761e-45
-7.57738e-45
-2.14624e-44
-6.33481e-44
-1.96578e-43
-6.47436e-43
-2.27836e-42
-8.61796e-42
-3.50444e-41
-1.52144e-40
-6.95335e-40
-3.27625e-39
-1.54814e-38
-7.07891e-38
-2.99863e-37
-1.12346e-36
-3.58371e-36
-9.6191e-36
-2.11808e-35
-3.21272e-35
1.94478e-35
1.18972e-33
1.75476e-32
2.4758e-31
3.37144e-30
4.42408e-29
5.63066e-28
7.05873e-27
8.73665e-26
1.05895e-24
1.24914e-23
1.43247e-22
1.61414e-21
1.80899e-20
2.02944e-19
2.24578e-18
2.37452e-17
2.52197e-16
3.48637e-15
-1.19967e-48
-1.53312e-48
-2.95692e-48
-6.30138e-48
-1.38893e-47
-3.12832e-47
-7.19196e-47
-1.6893e-46
-4.05942e-46
-9.99965e-46
-2.53054e-45
-6.5933e-45
-1.77073e-44
-4.9258e-44
-1.42559e-43
-4.31672e-43
-1.38134e-42
-4.72104e-42
-1.73871e-41
-6.92332e-41
-2.96553e-40
-1.34796e-39
-6.36672e-39
-3.03894e-38
-1.41455e-37
-6.15361e-37
-2.3948e-36
-8.06527e-36
-2.34783e-35
-5.80396e-35
-1.15203e-34
-1.31944e-34
9.51523e-34
1.73039e-32
2.45562e-31
3.29601e-30
4.28178e-29
5.42961e-28
6.82701e-27
8.50048e-26
1.03222e-24
1.20967e-23
1.36838e-22
1.51782e-21
1.6866e-20
1.88668e-19
2.08558e-18
2.19129e-17
2.32384e-16
3.35619e-15
-3.15471e-48
-4.07965e-48
-7.75799e-48
-1.63681e-47
-3.57406e-47
-7.96985e-47
-1.81234e-46
-4.20684e-46
-9.99644e-46
-2.4365e-45
-6.09348e-45
-1.56809e-44
-4.15081e-44
-1.13278e-43
-3.20074e-43
-9.43238e-43
-2.92928e-42
-9.70815e-42
-3.47408e-41
-1.35103e-40
-5.69276e-40
-2.56543e-39
-1.21021e-38
-5.8081e-38
-2.73566e-37
-1.21297e-36
-4.85822e-36
-1.7088e-35
-5.31653e-35
-1.43422e-34
-3.2729e-34
-5.97017e-34
1.88482e-34
1.67731e-32
2.44968e-31
3.28595e-30
4.21661e-29
5.29612e-28
6.59994e-27
8.17838e-26
9.886e-25
1.14453e-23
1.27413e-22
1.39721e-21
1.54083e-20
1.72127e-19
1.91255e-18
1.9984e-17
2.09136e-16
3.18435e-15
-8.26249e-48
-1.07488e-47
-2.0179e-47
-4.21596e-47
-9.11847e-47
-2.01271e-46
-4.52667e-46
-1.04157e-45
-2.45364e-45
-5.92508e-45
-1.46471e-44
-3.71275e-44
-9.65486e-44
-2.58183e-43
-7.12768e-43
-2.04621e-42
-6.17462e-42
-1.98596e-41
-6.90581e-41
-2.62058e-40
-1.08437e-39
-4.83284e-39
-2.26921e-38
-1.08982e-37
-5.16224e-37
-2.31595e-36
-9.46577e-36
-3.44911e-35
-1.1345e-34
-3.27882e-34
-8.21601e-34
-1.8165e-33
-1.66169e-33
1.47686e-32
2.44026e-31
3.31025e-30
4.22852e-29
5.29401e-28
6.53344e-27
7.94861e-26
9.45041e-25
1.07786e-23
1.18558e-22
1.28845e-21
1.41148e-20
1.57979e-19
1.77372e-18
1.84464e-17
1.90717e-16
3.15378e-15
-2.15363e-47
-2.79964e-47
-5.19537e-47
-1.07515e-46
-2.30304e-46
-5.03468e-46
-1.12434e-45
-2.56681e-45
-5.98706e-45
-1.42743e-44
-3.47989e-44
-8.68261e-44
-2.21864e-43
-5.81817e-43
-1.57179e-42
-4.40499e-42
-1.29477e-41
-4.0511e-41
-1.37128e-40
-5.08132e-40
-2.06368e-39
-9.07872e-39
-4.22826e-38
-2.02174e-37
-9.56938e-37
-4.3123e-36
-1.78454e-35
-6.69518e-35
-2.30869e-34
-7.03704e-34
-1.89032e-33
-4.70024e-33
-7.15271e-33
6.304e-33
2.40548e-31
3.38512e-30
4.28581e-29
5.33922e-28
6.56323e-27
7.91924e-26
9.22523e-25
1.03467e-23
1.12749e-22
1.21863e-21
1.331e-20
1.50124e-19
1.71806e-18
1.79263e-17
1.87024e-16
3.2109e-15
-5.57896e-47
-7.19656e-47
-1.32189e-46
-2.7111e-46
-5.76258e-46
-1.24993e-45
-2.76501e-45
-6.2478e-45
-1.44055e-44
-3.39004e-44
-8.14817e-44
-2.00191e-43
-5.03038e-43
-1.29538e-42
-3.43114e-42
-9.41208e-42
-2.70346e-41
-8.25724e-41
-2.72929e-40
-9.896e-40
-3.94634e-39
-1.71094e-38
-7.87478e-38
-3.72843e-37
-1.7518e-36
-7.87173e-36
-3.27717e-35
-1.2607e-34
-4.51876e-34
-1.43261e-33
-4.05915e-33
-1.09681e-32
-2.05955e-32
-3.77478e-33
2.288e-31
3.53385e-30
4.43644e-29
5.48014e-28
6.67555e-27
7.98149e-26
9.23834e-25
1.02715e-23
1.11432e-22
1.20424e-21
1.31756e-20
1.50016e-19
1.73134e-18
1.81322e-17
1.90322e-16
3.41476e-15
-1.43411e-46
-1.82278e-46
-3.32116e-46
-6.75762e-46
-1.42333e-45
-3.05907e-45
-6.69784e-45
-1.4969e-44
-3.41085e-44
-7.92453e-44
-1.8786e-43
-4.54811e-43
-1.12511e-42
-2.84959e-42
-7.41669e-42
-1.99721e-41
-5.62648e-41
-1.68452e-40
-5.45843e-40
-1.94217e-39
-7.61188e-39
-3.24729e-38
-1.47136e-37
-6.85956e-37
-3.17813e-36
-1.41436e-35
-5.89978e-35
-2.32137e-34
-8.55119e-34
-2.78847e-33
-8.22681e-33
-2.36569e-32
-5.04367e-32
-4.10689e-32
2.0055e-31
3.67678e-30
4.73426e-29
5.79291e-28
6.95532e-27
8.17903e-26
9.36268e-25
1.03597e-23
1.12362e-22
1.21611e-21
1.33433e-20
1.53331e-19
1.79855e-18
1.90507e-17
2.04514e-16
3.91838e-15
-3.65151e-46
-4.541e-46
-8.21499e-46
-1.65785e-45
-3.45956e-45
-7.36269e-45
-1.59511e-44
-3.52499e-44
-7.93976e-44
-1.82227e-43
-4.26373e-43
-1.01815e-42
-2.48298e-42
-6.19627e-42
-1.5884e-41
-4.21172e-41
-1.16811e-40
-3.44277e-40
-1.09819e-39
-3.84624e-39
-1.48297e-38
-6.2151e-38
-2.76149e-37
-1.26069e-36
-5.72434e-36
-2.51132e-35
-1.04793e-34
-4.20243e-34
-1.57133e-33
-5.21885e-33
-1.58591e-32
-4.78116e-32
-1.11414e-31
-1.3284e-31
1.10964e-31
3.69039e-30
5.21096e-29
6.31949e-28
7.48524e-27
8.63163e-26
9.70492e-25
1.06643e-23
1.15913e-22
1.26226e-21
1.39784e-20
1.64442e-19
1.98538e-18
2.15753e-17
2.43873e-16
4.78087e-15
-9.18717e-46
-1.11075e-45
-1.99648e-45
-3.99725e-45
-8.26167e-45
-1.74054e-44
-3.73139e-44
-8.15359e-44
-1.81622e-43
-4.12103e-43
-9.52649e-43
-2.24637e-42
-5.40852e-42
-1.33237e-41
-3.37196e-41
-8.82971e-41
-2.41951e-40
-7.04812e-40
-2.22169e-39
-7.67957e-39
-2.91466e-38
-1.19783e-37
-5.19882e-37
-2.31275e-36
-1.02486e-35
-4.42608e-35
-1.84866e-34
-7.51643e-34
-2.81043e-33
-9.42999e-33
-2.92407e-32
-9.13518e-32
-2.27501e-31
-3.3104e-31
8.91587e-33
3.57533e-30
5.89978e-29
7.11063e-28
8.31346e-27
9.41377e-26
1.04125e-24
1.13721e-23
1.24694e-22
1.3792e-21
1.56223e-20
1.9142e-19
2.38939e-18
2.67188e-17
3.175e-16
5.96041e-15
-2.27779e-45
-2.66551e-45
-4.76353e-45
-9.46005e-45
-1.93701e-44
-4.03861e-44
-8.56921e-44
-1.852e-43
-4.08133e-43
-9.16332e-43
-2.09535e-42
-4.88538e-42
-1.16302e-41
-2.8335e-41
-7.09548e-41
-1.83983e-40
-4.99661e-40
-1.44344e-39
-4.50984e-39
-1.54133e-38
-5.75771e-38
-2.31547e-37
-9.78571e-37
-4.22995e-36
-1.82803e-35
-7.78522e-35
-3.2583e-34
-1.32708e-33
-4.90098e-33
-1.64944e-32
-5.17711e-32
-1.66045e-31
-4.35252e-31
-7.24608e-31
-2.28626e-31
3.23762e-30
6.77012e-29
8.21828e-28
9.48342e-27
1.05644e-25
1.15476e-24
1.26689e-23
1.41827e-22
1.60885e-21
1.88549e-20
2.40827e-19
3.06263e-18
3.48668e-17
4.24369e-16
7.3098e-15
-5.55106e-45
-6.26961e-45
-1.11557e-44
-2.1969e-44
-4.45592e-44
-9.19462e-44
-1.93095e-43
-4.13045e-43
-9.00802e-43
-2.00255e-42
-4.53504e-42
-1.04701e-41
-2.46819e-41
-5.95728e-41
-1.47901e-40
-3.80616e-40
-1.02704e-39
-2.94957e-39
-9.15142e-39
-3.09448e-38
-1.13685e-37
-4.46724e-37
-1.83704e-36
-7.71837e-36
-3.26385e-35
-1.37488e-34
-5.74043e-34
-2.30233e-33
-8.34315e-33
-2.79775e-32
-8.82648e-32
-2.88421e-31
-7.86927e-31
-1.44923e-30
-9.48684e-31
2.64167e-30
7.69868e-29
9.67614e-28
1.10138e-26
1.21141e-25
1.32052e-24
1.47433e-23
1.70102e-22
1.98688e-21
2.41614e-20
3.16857e-19
4.01586e-18
4.56947e-17
5.52504e-16
8.63223e-15
-1.32672e-44
-1.44316e-44
-2.56169e-44
-5.00649e-44
-1.00505e-43
-2.05393e-43
-4.26782e-43
-9.0407e-43
-1.95232e-42
-4.29948e-42
-9.65097e-42
-2.20918e-41
-5.16419e-41
-1.23672e-40
-3.04908e-40
-7.80136e-40
-2.09523e-39
-5.99051e-39
-1.8474e-38
-6.18104e-38
-2.23286e-37
-8.58172e-37
-3.44026e-36
-1.41107e-35
-5.86165e-35
-2.44304e-34
-1.01003e-33
-3.90987e-33
-1.38614e-32
-4.60493e-32
-1.45186e-31
-4.80339e-31
-1.35259e-30
-2.69662e-30
-2.44945e-30
1.6489e-30
8.37312e-29
1.14609e-27
1.28905e-26
1.41126e-25
1.55402e-24
1.786e-23
2.12473e-22
2.54264e-21
3.18023e-20
4.18403e-19
5.18727e-18
5.80793e-17
6.83137e-16
9.72698e-15
-3.10425e-44
-3.24689e-44
-5.75824e-44
-1.11832e-43
-2.22421e-43
-4.49749e-43
-9.25483e-43
-1.94065e-42
-4.15328e-42
-9.06415e-42
-2.01783e-41
-4.58289e-41
-1.06355e-40
-2.53022e-40
-6.20275e-40
-1.5799e-39
-4.22824e-39
-1.20467e-38
-3.69596e-38
-1.22502e-37
-4.35689e-37
-1.64508e-36
-6.45051e-36
-2.5962e-35
-1.06272e-34
-4.36362e-34
-1.74765e-33
-6.49052e-33
-2.24406e-32
-7.35595e-32
-2.30648e-31
-7.68869e-31
-2.22007e-30
-4.71934e-30
-5.23608e-30
3.69112e-31
8.49941e-29
1.34649e-27
1.50904e-26
1.66576e-25
1.87775e-24
2.22833e-23
2.70575e-22
3.28226e-21
4.15979e-20
5.38106e-19
6.45348e-18
7.04201e-17
7.97172e-16
1.04306e-14
-7.09892e-44
-7.13214e-44
-1.26545e-43
-2.444e-43
-4.82418e-43
-9.65772e-43
-1.96783e-42
-4.08719e-42
-8.66549e-42
-1.87532e-41
-4.14171e-41
-9.33792e-41
-2.15309e-40
-5.09293e-40
-1.24277e-39
-3.15525e-39
-8.42601e-39
-2.39512e-38
-7.32436e-38
-2.41351e-37
-8.47852e-37
-3.15548e-36
-1.21731e-35
-4.82106e-35
-1.93626e-34
-7.74663e-34
-2.94553e-33
-1.05092e-32
-3.53771e-32
-1.13961e-31
-3.54182e-31
-1.18491e-30
-3.49149e-30
-7.82799e-30
-1.00282e-29
4.23013e-32
8.20297e-29
1.55199e-27
1.76281e-26
1.99022e-25
2.31408e-24
2.81248e-23
3.4321e-22
4.1771e-21
5.28441e-20
6.63644e-19
7.66023e-18
8.09658e-17
8.77995e-16
1.06471e-14
-1.5843e-43
-1.52804e-43
-2.71573e-43
-5.21889e-43
-1.02325e-42
-2.03359e-42
-4.10219e-42
-8.44412e-42
-1.7739e-41
-3.80617e-41
-8.3423e-41
-1.86812e-40
-4.28148e-40
-1.00777e-39
-2.45117e-39
-6.21535e-39
-1.66036e-38
-4.72184e-38
-1.44315e-37
-4.74108e-37
-1.65335e-36
-6.09086e-36
-2.31144e-35
-9.00208e-35
-3.52119e-34
-1.33395e-33
-4.82617e-33
-1.65428e-32
-5.40958e-32
-1.70964e-31
-5.2583e-31
-1.7605e-30
-5.2756e-30
-1.23763e-29
-1.78064e-29
-2.996e-30
7.34998e-29
1.74496e-27
2.05819e-26
2.40088e-25
2.87257e-24
3.51959e-23
4.2587e-22
5.16383e-21
6.44458e-20
7.80223e-19
8.64075e-18
8.81859e-17
9.15875e-16
1.06079e-14
-3.446e-43
-3.18994e-43
-5.68489e-43
-1.08756e-42
-2.11953e-42
-4.18659e-42
-8.38939e-42
-1.71021e-41
-3.56392e-41
-7.58449e-41
-1.64983e-40
-3.67125e-40
-8.37013e-40
-1.96336e-39
-4.76857e-39
-1.21038e-38
-3.24442e-38
-9.26765e-38
-2.84301e-37
-9.34523e-37
-3.24202e-36
-1.17981e-35
-4.41938e-35
-1.66749e-34
-6.17875e-34
-2.22113e-33
-7.64465e-33
-2.51742e-32
-7.99711e-32
-2.47957e-31
-7.54477e-31
-2.52465e-30
-7.67503e-30
-1.87296e-29
-2.97066e-29
-1.29089e-29
6.10025e-29
1.90718e-27
2.40607e-26
2.90487e-25
3.53606e-24
4.29748e-23
5.1181e-22
6.15735e-21
7.50867e-20
8.71448e-19
9.24026e-18
9.10141e-17
9.17474e-16
1.04428e-14
-7.29596e-43
-6.48288e-43
-1.1595e-42
-2.20899e-42
-4.28185e-42
-8.41333e-42
-1.67757e-41
-3.40009e-41
-7.02294e-41
-1.48436e-40
-3.20943e-40
-7.10034e-40
-1.61264e-39
-3.77701e-39
-9.18456e-39
-2.34094e-38
-6.32252e-38
-1.82088e-37
-5.61145e-37
-1.84722e-36
-6.39069e-36
-2.28852e-35
-8.25733e-35
-2.96597e-34
-1.04142e-33
-3.54547e-33
-1.16321e-32
-3.68817e-32
-1.14009e-31
-3.47192e-31
-1.0458e-30
-3.49774e-30
-1.07692e-29
-2.72188e-29
-4.69129e-29
-3.12585e-29
4.35852e-29
2.03018e-27
2.81185e-26
3.48852e-25
4.25594e-24
5.07481e-23
5.93567e-22
7.0482e-21
8.32149e-20
9.23159e-19
9.39557e-18
9.08387e-17
9.08316e-16
9.99429e-15
-1.50319e-42
-1.2811e-42
-2.30118e-42
-4.36693e-42
-8.42407e-42
-1.64783e-41
-3.27273e-41
-6.6094e-41
-1.35949e-40
-2.85407e-40
-6.13493e-40
-1.35246e-39
-3.06693e-39
-7.18867e-39
-1.75535e-38
-4.50736e-38
-1.22992e-37
-3.58293e-37
-1.1145e-36
-3.65379e-36
-1.23786e-35
-4.27305e-35
-1.47367e-34
-5.01599e-34
-1.66776e-33
-5.392e-33
-1.69307e-32
-5.18712e-32
-1.56444e-31
-4.68819e-31
-1.39998e-30
-4.68404e-30
-1.45966e-29
-3.80835e-29
-7.05106e-29
-6.0723e-29
2.31871e-29
2.10535e-27
3.26367e-26
4.111e-25
4.95956e-24
5.77002e-23
6.62197e-22
7.70242e-21
8.74725e-20
9.3145e-19
9.3436e-18
8.95073e-17
8.76984e-16
9.18471e-15
-3.00878e-42
-2.45833e-42
-4.43596e-42
-8.38774e-42
-1.61118e-41
-3.13976e-41
-6.21612e-41
-1.25215e-40
-2.57004e-40
-5.38453e-40
-1.15437e-39
-2.54007e-39
-5.76258e-39
-1.35666e-38
-3.34035e-38
-8.67554e-38
-2.39367e-37
-7.01345e-37
-2.16517e-36
-6.96665e-36
-2.28701e-35
-7.55287e-35
-2.4763e-34
-7.99001e-34
-2.52323e-33
-7.78591e-33
-2.35135e-32
-6.98999e-32
-2.06352e-31
-6.10043e-31
-1.80967e-30
-6.06603e-30
-1.91369e-29
-5.14132e-29
-1.01318e-28
-1.03985e-28
4.21135e-30
2.12136e-27
3.72238e-26
4.70593e-25
5.55665e-24
6.28745e-23
7.07078e-22
8.0069e-21
8.79686e-20
9.24634e-19
9.13916e-18
8.5784e-17
8.07836e-16
8.09114e-15
-5.84531e-42
-4.57979e-42
-8.29739e-42
-1.56318e-41
-2.99097e-41
-5.8093e-41
-1.14708e-40
-2.30599e-40
-4.72673e-40
-9.89687e-40
-2.12215e-39
-4.67677e-39
-1.06472e-38
-2.5216e-38
-6.25625e-38
-1.63662e-37
-4.53168e-37
-1.32354e-36
-4.02103e-36
-1.25524e-35
-3.95939e-35
-1.24728e-34
-3.8892e-34
-1.19385e-33
-3.59876e-33
-1.06583e-32
-3.11195e-32
-9.01575e-32
-2.6144e-31
-7.64693e-31
-2.25912e-30
-7.60154e-30
-2.42986e-29
-6.7097e-29
-1.39722e-28
-1.6368e-28
1.95492e-30
2.09203e-27
4.10979e-26
5.17624e-25
5.94779e-24
6.54933e-23
7.21411e-22
8.01069e-21
8.71544e-20
8.99732e-19
8.64218e-18
7.83923e-17
7.07552e-16
6.815e-15
-1.09727e-41
-8.27924e-42
-1.50475e-41
-2.82371e-41
-5.38213e-41
-1.04204e-40
-2.05241e-40
-4.11832e-40
-8.43167e-40
-1.76478e-39
-3.78662e-39
-8.36141e-39
-1.91027e-38
-4.54885e-38
-1.13558e-37
-2.97947e-37
-8.21399e-37
-2.36248e-36
-6.995e-36
-2.10584e-35
-6.36517e-35
-1.91459e-34
-5.6971e-34
-1.67203e-33
-4.83804e-33
-1.38304e-32
-3.92398e-32
-1.11276e-31
-3.18126e-31
-9.23513e-31
-2.72479e-30
-9.22505e-30
-2.99157e-29
-8.47944e-29
-1.85521e-28
-2.42208e-28
8.27956e-31
1.98669e-27
4.33554e-26
5.43193e-25
6.07587e-24
6.56665e-23
7.18299e-22
7.91786e-21
8.45093e-20
8.4199e-19
7.80258e-18
6.82623e-17
5.87794e-16
5.46947e-15
-1.99036e-41
-1.45635e-41
-2.64496e-41
-4.93915e-41
-9.37297e-41
-1.80821e-40
-3.55135e-40
-7.11096e-40
-1.45389e-39
-3.04157e-39
-6.53008e-39
-1.44448e-38
-3.30887e-38
-7.89571e-38
-1.97026e-37
-5.14245e-37
-1.39882e-36
-3.9312e-36
-1.1281e-35
-3.26932e-35
-9.47792e-35
-2.73079e-34
-7.79027e-34
-2.19778e-33
-6.13838e-33
-1.70286e-32
-4.71761e-32
-1.31502e-31
-3.71996e-31
-1.07526e-30
-3.178e-30
-1.08566e-29
-3.57528e-29
-1.03933e-28
-2.37818e-28
-3.41149e-28
-2.19589e-29
1.78234e-27
4.36638e-26
5.46416e-25
6.04907e-24
6.49832e-23
7.04796e-22
7.62646e-21
7.85087e-20
7.51486e-19
6.71987e-18
5.65485e-17
4.63029e-16
4.17715e-15
-3.4884e-41
-2.48565e-41
-4.49998e-41
-8.35568e-41
-1.57765e-40
-3.03058e-40
-5.93065e-40
-1.18392e-39
-2.41463e-39
-5.04198e-39
-1.08108e-38
-2.38923e-38
-5.46654e-38
-1.30036e-37
-3.22235e-37
-8.30537e-37
-2.21461e-36
-6.05575e-36
-1.68101e-35
-4.69371e-35
-1.30874e-34
-3.62708e-34
-9.9698e-34
-2.71825e-33
-7.36742e-33
-1.99333e-32
-5.41676e-32
-1.49009e-31
-4.18552e-31
-1.2085e-30
-3.58885e-30
-1.2407e-29
-4.15309e-29
-1.23744e-28
-2.94973e-28
-4.59791e-28
-1.31847e-28
1.53216e-27
4.31877e-26
5.41392e-25
5.93605e-24
6.29471e-23
6.7026e-22
7.01728e-21
6.94696e-20
6.39479e-19
5.51917e-18
4.45788e-17
3.46697e-16
3.04866e-15
-5.91566e-41
-4.10338e-41
-7.38853e-41
-1.36243e-40
-2.55624e-40
-4.88278e-40
-9.50659e-40
-1.88887e-39
-3.83556e-39
-7.97593e-39
-1.70319e-38
-3.7474e-38
-8.52569e-38
-2.01131e-37
-4.92248e-37
-1.24638e-36
-3.24568e-36
-8.62192e-36
-2.31631e-35
-6.24625e-35
-1.68133e-34
-4.50281e-34
-1.19859e-33
-3.17457e-33
-8.39157e-33
-2.22469e-32
-5.95484e-32
-1.62262e-31
-4.5406e-31
-1.31357e-30
-3.93102e-30
-1.37889e-29
-4.69573e-29
-1.43322e-28
-3.5467e-28
-5.94665e-28
-2.9873e-28
1.29151e-27
4.17108e-26
5.2554e-25
5.66189e-24
5.85991e-23
6.07912e-22
6.14808e-21
5.85671e-20
5.19385e-19
4.32579e-18
3.35562e-17
2.48972e-16
2.15186e-15
-9.72903e-41
-6.54804e-41
-1.16934e-40
-2.13676e-40
-3.9753e-40
-7.53402e-40
-1.45603e-39
-2.87253e-39
-5.79265e-39
-1.19621e-38
-2.53587e-38
-5.53431e-38
-1.24682e-37
-2.90454e-37
-6.99259e-37
-1.73397e-36
-4.40304e-36
-1.13659e-35
-2.96085e-35
-7.73616e-35
-2.01863e-34
-5.24864e-34
-1.35966e-33
-3.51553e-33
-9.10597e-33
-2.37579e-32
-6.2885e-32
-1.70319e-31
-4.76248e-31
-1.38435e-30
-4.18718e-30
-1.49276e-29
-5.17588e-29
-1.6172e-28
-4.14101e-28
-7.39859e-28
-5.13046e-28
1.05638e-27
3.85778e-26
4.90842e-25
5.17109e-24
5.21845e-23
5.25596e-22
5.13373e-21
4.71655e-20
4.03519e-19
3.24908e-18
2.43595e-17
1.74405e-16
1.49829e-15
-1.5601e-40
-1.01258e-40
-1.78674e-40
-3.22514e-40
-5.93076e-40
-1.11168e-39
-2.1259e-39
-4.15139e-39
-8.28766e-39
-1.69416e-38
-3.55358e-38
-7.66602e-38
-1.70426e-37
-3.90777e-37
-9.23099e-37
-2.2386e-36
-5.54313e-36
-1.39251e-35
-3.52702e-35
-8.96164e-35
-2.27653e-34
-5.7734e-34
-1.46243e-33
-3.7087e-33
-9.45538e-33
-2.43785e-32
-6.40451e-32
-1.72964e-31
-4.84604e-31
-1.41892e-30
-4.34967e-30
-1.57712e-29
-5.57106e-29
-1.78033e-28
-4.70229e-28
-8.87629e-28
-7.61154e-28
8.09136e-28
3.38932e-26
4.3857e-25
4.52777e-24
4.44781e-23
4.34136e-22
4.10069e-21
3.64124e-20
3.01532e-19
2.36206e-18
1.73404e-17
1.21905e-16
1.05313e-15
-2.46139e-40
-1.52682e-40
-2.64994e-40
-4.70467e-40
-8.51459e-40
-1.57177e-39
-2.96185e-39
-5.70225e-39
-1.12272e-38
-2.26376e-38
-4.68235e-38
-9.95294e-38
-2.17722e-37
-4.90273e-37
-1.1348e-36
-2.69069e-36
-6.50332e-36
-1.59329e-35
-3.93582e-35
-9.76166e-35
-2.42439e-34
-6.02406e-34
-1.49896e-33
-3.74536e-33
-9.43953e-33
-2.41465e-32
-6.3183e-32
-1.70653e-31
-4.80247e-31
-1.41938e-30
-4.41874e-30
-1.62966e-29
-5.86554e-29
-1.91492e-28
-5.20079e-28
-1.02924e-27
-1.02558e-27
5.50435e-28
2.82572e-26
3.7542e-25
3.80753e-24
3.63863e-23
3.43968e-22
3.14812e-21
2.7121e-20
2.18852e-19
1.68735e-18
1.23451e-17
8.69386e-17
7.61179e-16
-3.86509e-40
-2.26833e-40
-3.85281e-40
-6.69336e-40
-1.18579e-39
-2.14392e-39
-3.95977e-39
-7.47785e-39
-1.44527e-38
-2.86218e-38
-5.81595e-38
-1.21424e-37
-2.607e-37
-5.75543e-37
-1.30439e-36
-3.02502e-36
-7.14681e-36
-1.71166e-35
-4.13669e-35
-1.00522e-34
-2.45087e-34
-5.99277e-34
-1.47138e-33
-3.63839e-33
-9.10356e-33
-2.31947e-32
-6.06569e-32
-1.64303e-31
-4.65441e-31
-1.3911e-30
-4.40127e-30
-1.65072e-29
-6.05106e-29
-2.01513e-28
-5.6102e-28
-1.1559e-27
-1.28697e-27
2.73155e-28
2.23425e-26
3.08724e-25
3.08297e-24
2.86616e-23
2.62792e-22
2.33875e-21
1.96721e-20
1.56325e-19
1.20446e-18
8.94211e-18
6.41662e-17
5.7293e-16
-6.11054e-40
-3.36785e-40
-5.57321e-40
-9.42585e-40
-1.62504e-39
-2.85931e-39
-5.14199e-39
-9.46295e-39
-1.78431e-38
-3.4514e-38
-6.85686e-38
-1.40058e-37
-2.94283e-37
-6.35778e-37
-1.40985e-36
-3.1992e-36
-7.39856e-36
-1.73613e-35
-4.11712e-35
-9.83651e-35
-2.3636e-34
-5.71103e-34
-1.38961e-33
-3.41547e-33
-8.51978e-33
-2.17052e-32
-5.69177e-32
-1.55025e-31
-4.4292e-31
-1.34073e-30
-4.309e-30
-1.64257e-29
-6.12623e-29
-2.07736e-28
-5.90987e-28
-1.25971e-27
-1.52562e-27
7.45708e-29
1.6735e-26
2.44411e-25
2.41026e-24
2.18375e-23
1.94905e-22
1.69626e-21
1.40567e-20
1.11473e-19
8.71898e-19
6.65761e-18
4.90169e-17
4.52068e-16
-9.80761e-40
-5.07605e-40
-8.16602e-40
-1.34002e-39
-2.23743e-39
-3.80791e-39
-6.61989e-39
-1.17798e-38
-2.14975e-38
-4.03055e-38
-7.77516e-38
-1.54481e-37
-3.16235e-37
-6.66542e-37
-1.44385e-36
-3.2047e-36
-7.26041e-36
-1.67216e-35
-3.90073e-35
-9.19118e-35
-2.18435e-34
-5.23601e-34
-1.26786e-33
-3.11067e-33
-7.76821e-33
-1.98649e-32
-5.24057e-32
-1.4388e-31
-4.1528e-31
-1.27433e-30
-4.15606e-30
-1.60862e-29
-6.09521e-29
-2.10018e-28
-6.08622e-28
-1.33439e-27
-1.72506e-27
1.19075e-29
1.18649e-26
1.86748e-25
1.82606e-24
1.61845e-23
1.41429e-22
1.21313e-21
1.00163e-20
8.04185e-20
6.46363e-19
5.10479e-18
3.87511e-17
3.83038e-16
-1.60277e-39
-7.86465e-40
-1.23203e-39
-1.96255e-39
-3.16981e-39
-5.20124e-39
-8.6944e-39
-1.48503e-38
-2.59975e-38
-4.67866e-38
-8.67796e-38
-1.66195e-37
-3.28907e-37
-6.72311e-37
-1.41679e-36
-3.06872e-36
-6.80551e-36
-1.53914e-35
-3.53725e-35
-8.23917e-35
-1.94243e-34
-4.63528e-34
-1.12128e-33
-2.75737e-33
-6.92184e-33
-1.78344e-32
-4.74837e-32
-1.31722e-31
-3.84609e-31
-1.19678e-30
-3.95599e-30
-1.55262e-29
-5.966e-29
-2.08419e-28
-6.13339e-28
-1.37579e-27
-1.87295e-27
-4.02435e-29
8.00951e-27
1.38164e-25
1.34713e-24
1.17462e-23
1.01261e-22
8.64437e-22
7.20187e-21
5.93141e-20
4.92324e-19
4.01387e-18
3.22744e-17
3.60808e-16
-2.65916e-39
-1.25869e-39
-1.93087e-39
-3.00145e-39
-4.70936e-39
-7.46957e-39
-1.20086e-38
-1.96341e-38
-3.27766e-38
-5.61107e-38
-9.89355e-38
-1.80356e-37
-3.40803e-37
-6.68114e-37
-1.35742e-36
-2.85032e-36
-6.16163e-36
-1.36546e-35
-3.09016e-35
-7.12136e-35
-1.66862e-34
-3.97475e-34
-9.63713e-34
-2.3841e-33
-6.03896e-33
-1.57341e-32
-4.24097e-32
-1.19141e-31
-3.52348e-31
-1.11167e-30
-3.72003e-30
-1.47818e-29
-5.74901e-29
-2.03171e-28
-6.05311e-28
-1.38217e-27
-1.95919e-27
-3.04628e-28
5.3311e-27
9.9446e-26
9.73854e-25
8.4141e-24
7.22069e-23
6.2022e-22