/*--------------------------------*- C++ -*----------------------------------*\
  =========                 |
  \\      /  F ield         | OpenFOAM: The Open Source CFD Toolbox
   \\    /   O peration     | Website:  https://openfoam.org
    \\  /    A nd           | Version:  9
     \\/     M anipulation  |
\*---------------------------------------------------------------------------*/
FoamFile
{
    format      ascii;
    class       surfaceScalarField;
    location    "0.14";
    object      alphaPhi0.water;
}
// * * * * * * * * * * * * * * * * * * * * * * * * * * * * * * * * * * * * * //

dimensions      [0 3 -1 0 0 0 0];

internalField   nonuniform List<scalar> 
9850
(
-2.87752e-64
-5.69009e-63
-5.97123e-64
8.55951e-64
-4.35364e-63
8.01623e-63
-2.52843e-62
3.73655e-62
-6.30711e-62
1.42557e-61
-7.15018e-62
5.72645e-61
-5.97273e-62
1.16935e-60
1.37205e-61
1.59874e-60
1.0652e-60
-5.54351e-61
2.63787e-60
-4.52345e-60
-4.38187e-60
-1.17994e-59
-8.57039e-59
7.62191e-59
-2.19426e-58
1.47686e-57
-8.56601e-58
8.71783e-57
-5.69278e-57
4.90454e-56
-3.61643e-56
2.71172e-55
-2.17998e-55
1.63906e-54
-1.3897e-54
1.00924e-53
-9.10032e-54
6.80832e-53
-6.16047e-53
4.65652e-52
-4.21126e-52
3.32006e-51
-2.84536e-51
2.36691e-50
-1.83922e-50
1.66993e-49
-1.07398e-49
1.1258e-48
-5.33161e-49
6.98539e-48
-2.14154e-48
3.87314e-47
-6.84937e-48
1.90463e-46
-1.82189e-47
8.59098e-46
-6.25539e-47
3.94448e-45
-5.08145e-46
2.22725e-44
-1.21714e-46
1.27313e-43
-8.74749e-45
1.42376e-43
-5.05566e-44
4.07684e-42
-2.94601e-42
1.42636e-40
-6.85834e-41
3.02729e-39
-1.127e-39
4.37087e-38
-2.07475e-38
5.98902e-37
-3.78581e-37
8.79495e-36
-4.3864e-36
1.08065e-34
-3.59137e-35
9.70269e-34
-2.89437e-34
8.17179e-33
-3.23717e-33
8.10963e-32
-5.80046e-32
1.07205e-30
-9.89832e-31
1.73029e-29
-9.31131e-30
2.27062e-28
-1.67727e-28
2.54628e-27
-1.20051e-26
6.30252e-26
-1.28988e-25
1.37534e-24
-2.53965e-25
6.23656e-24
2.00835e-23
1.74984e-62
-8.44717e-62
2.26571e-62
-5.39486e-62
1.12553e-62
-7.27593e-62
-4.52515e-62
-3.76768e-62
-9.06098e-62
1.58075e-61
-5.62342e-61
1.21531e-60
-2.36133e-60
5.6699e-60
-9.16936e-60
2.12092e-59
-2.37999e-59
9.27209e-59
-5.37795e-59
3.10449e-58
-1.4378e-58
8.81058e-58
-4.89926e-58
3.00775e-57
-1.89147e-57
1.20408e-56
-8.02465e-57
5.13076e-56
-3.67072e-56
2.3663e-55
-1.81139e-55
1.18675e-54
-9.52225e-55
6.41707e-54
-5.33299e-54
3.70578e-53
-3.17827e-53
2.27352e-52
-2.00199e-52
1.47912e-51
-1.30607e-51
1.00428e-50
-8.54862e-51
6.96761e-50
-5.41708e-50
4.80761e-49
-3.15719e-49
3.21189e-48
-1.59085e-48
2.00917e-47
-6.5752e-48
1.1432e-46
-2.15776e-47
5.86576e-46
-5.88426e-47
2.78775e-45
-1.83861e-46
1.36115e-44
-7.85234e-46
7.98195e-44
-1.3781e-45
5.31701e-43
-7.30435e-45
1.45165e-42
-3.16368e-43
2.36106e-41
-1.29853e-41
6.09142e-40
-2.85117e-40
1.17576e-38
-4.64593e-39
1.64843e-37
-7.94312e-38
2.19583e-36
-1.32114e-36
3.03934e-35
-1.63149e-35
3.70131e-34
-1.50942e-34
3.61163e-33
-1.33692e-33
3.19945e-32
-1.53776e-32
3.23048e-31
-2.4029e-31
4.22731e-30
-3.53137e-30
6.06803e-29
-3.33662e-29
7.55072e-28
-5.51767e-28
8.60205e-27
-3.23794e-26
1.86212e-25
-3.56569e-25
3.74069e-24
-6.86964e-25
1.74397e-23
5.69165e-23
1.67905e-61
-5.69293e-61
3.25988e-61
-5.41657e-61
6.12717e-61
-1.0954e-60
1.07568e-60
-2.14633e-60
1.59182e-60
-3.93295e-60
1.12392e-60
-6.08314e-60
-3.44672e-60
-4.49622e-60
-5.78291e-60
1.4461e-59
-4.20678e-59
1.08096e-58
-2.0503e-58
6.08728e-58
-9.10532e-58
2.69951e-57
-3.58312e-57
1.17402e-56
-1.19033e-56
5.94856e-56
-3.74374e-56
2.37772e-55
-1.36018e-55
9.08812e-55
-5.76159e-55
4.0019e-54
-2.72131e-54
1.95065e-53
-1.41074e-53
1.03797e-52
-8.00933e-53
5.98039e-52
-4.90163e-52
3.73583e-51
-3.14595e-51
2.46617e-50
-2.04607e-50
1.67863e-49
-1.29507e-49
1.15024e-48
-7.59067e-49
7.69566e-48
-3.88716e-48
4.87254e-47
-1.64792e-47
2.84525e-46
-5.54998e-47
1.51782e-45
-1.51644e-46
7.56936e-45
-4.28227e-46
3.85503e-44
-1.23147e-45
2.29784e-43
-2.18881e-45
1.5872e-42
-2.01312e-44
5.31934e-42
-9.06564e-43
7.83978e-41
-3.56824e-41
1.80994e-39
-7.88771e-40
3.30122e-38
-1.31011e-38
4.60904e-37
-2.23628e-37
6.14824e-36
-3.66494e-36
8.45514e-35
-4.52123e-35
1.02408e-33
-4.25616e-34
1.00237e-32
-3.88308e-33
9.01468e-32
-4.50253e-32
9.2438e-31
-6.82284e-31
1.19803e-29
-9.69307e-30
1.69279e-28
-9.66753e-29
2.10707e-27
-1.49185e-27
2.45058e-26
-6.98872e-26
4.62861e-25
-8.74122e-25
8.59261e-24
-1.67849e-24
4.44465e-23
1.50593e-22
8.59711e-61
-2.67176e-60
1.83957e-60
-2.93045e-60
3.97239e-60
-6.53131e-60
8.555e-60
-1.4703e-59
1.82217e-59
-3.30532e-59
3.77599e-59
-7.35997e-59
7.42685e-59
-1.59717e-58
1.298e-58
-3.29631e-58
1.4159e-58
-6.05939e-58
-2.13687e-58
-6.97106e-58
-4.17062e-58
1.1129e-57
-3.38396e-57
1.18582e-56
-1.90469e-56
7.09683e-56
-9.57802e-56
3.85865e-55
-4.56016e-55
1.92801e-54
-2.0726e-54
9.70745e-54
-9.21954e-54
5.71542e-53
-4.11406e-53
3.05048e-52
-2.03844e-52
1.61528e-51
-1.12329e-51
9.2586e-51
-6.5994e-51
5.6463e-50
-4.08689e-50
3.59177e-49
-2.55636e-49
2.37761e-48
-1.51172e-48
1.57579e-47
-7.92606e-48
1.00996e-46
-3.45345e-47
6.08643e-46
-1.19236e-46
3.38677e-45
-3.22644e-46
1.77468e-44
-7.6988e-46
9.41141e-44
-1.01749e-45
5.66202e-43
9.12935e-46
4.05149e-42
-3.05238e-44
1.50377e-41
-2.00364e-42
2.16078e-40
-8.251e-41
4.66295e-39
-1.87599e-39
8.21263e-38
-3.19783e-38
1.14457e-36
-5.47633e-37
1.53057e-35
-8.87487e-36
2.08732e-34
-1.09287e-34
2.51483e-33
-1.04118e-33
2.47935e-32
-9.68703e-33
2.26345e-31
-1.13481e-31
2.35073e-30
-1.69009e-30
3.04241e-29
-2.36748e-29
4.24338e-28
-2.50202e-28
5.29107e-27
-3.57128e-27
6.20225e-26
-1.2115e-25
1.01316e-24
-1.70831e-24
1.69606e-23
-3.83525e-24
1.05785e-22
4.09858e-22
3.29838e-60
-1.02545e-59
7.33455e-60
-1.2e-59
1.66652e-59
-2.77931e-59
3.83383e-59
-6.58299e-59
8.91018e-59
-1.58088e-58
2.08615e-58
-3.84156e-58
4.89974e-58
-9.42133e-58
1.14688e-57
-2.32279e-57
2.64086e-57
-5.7216e-57
5.8719e-57
-1.3905e-56
1.22319e-56
-3.27372e-56
2.07316e-56
-7.24557e-56
5.40406e-57
-1.30905e-55
-1.61936e-55
-3.6478e-56
-2.76399e-55
1.17085e-54
-1.9977e-54
1.0147e-53
-1.19582e-53
6.48666e-53
-7.11101e-53
3.92164e-52
-4.17923e-52
2.47039e-51
-2.46928e-51
1.53052e-50
-1.4167e-50
1.03753e-49
-8.06999e-50
7.04023e-49
-4.5952e-49
4.5291e-48
-2.57369e-48
2.88341e-47
-1.34864e-47
1.82189e-46
-6.06248e-47
1.1213e-45
-2.15751e-46
6.55344e-45
-5.70079e-46
3.64052e-44
-9.86004e-46
2.01585e-43
1.91169e-45
1.22209e-42
2.44194e-44
9.16294e-42
-4.95659e-45
3.80463e-41
-3.76082e-42
5.40596e-40
-1.71498e-40
1.09868e-38
-4.04575e-39
1.86927e-37
-7.08916e-38
2.59848e-36
-1.21668e-36
3.47951e-35
-1.94534e-35
4.69716e-34
-2.39152e-34
5.62413e-33
-2.31134e-33
5.598e-32
-2.19844e-32
5.20777e-31
-2.60846e-31
5.49511e-30
-3.83329e-30
7.10913e-29
-5.32007e-29
9.78521e-28
-5.87597e-28
1.21642e-26
-7.77071e-27
1.41872e-25
-1.89657e-25
2.04612e-24
-2.47103e-24
3.09919e-23
-8.37778e-24
2.35663e-22
1.21381e-21
1.07059e-59
-3.48275e-59
2.41581e-59
-4.20119e-59
5.60796e-59
-9.87321e-59
1.32631e-58
-2.38894e-58
3.19254e-58
-5.89773e-58
7.81794e-58
-1.48446e-57
1.946e-57
-3.80859e-57
4.91799e-57
-9.95481e-57
1.26006e-56
-2.64879e-56
3.26749e-56
-7.16741e-56
8.55712e-56
-1.96974e-55
2.24747e-55
-5.48733e-55
5.81248e-55
-1.53883e-54
1.44789e-54
-4.26384e-54
3.24658e-54
-1.14096e-53
4.77231e-54
-2.75221e-53
-1.28659e-53
-4.35148e-53
-2.4503e-53
1.25942e-52
-2.69743e-52
1.76734e-51
-2.02556e-51
1.48964e-50
-1.46818e-50
1.05219e-49
-1.01559e-49
7.87651e-49
-6.63715e-49
5.57927e-48
-3.8827e-48
3.85148e-47
-1.99075e-47
2.77224e-46
-8.89726e-47
1.78605e-45
-3.25215e-46
1.09409e-44
-8.21365e-46
6.50498e-44
-5.65251e-46
3.80341e-43
1.13111e-44
2.33672e-42
9.52194e-44
1.86382e-41
1.63026e-43
8.78143e-41
-5.99327e-42
1.24328e-39
-3.26065e-40
2.38187e-38
-8.03143e-39
3.91546e-37
-1.44608e-37
5.42523e-36
-2.48075e-36
7.26294e-35
-3.9007e-35
9.6888e-34
-4.79252e-34
1.15267e-32
-4.72297e-33
1.1628e-31
-4.62084e-32
1.10848e-30
-5.56508e-31
1.19272e-29
-8.06467e-30
1.54034e-28
-1.10533e-28
2.08486e-27
-1.25036e-27
2.56812e-26
-1.55175e-26
2.96312e-25
-2.97123e-25
3.91967e-24
-3.80221e-24
5.53357e-23
-1.75674e-23
4.87359e-22
3.22125e-21
3.12858e-59
-1.09564e-58
7.07288e-59
-1.33884e-58
1.65338e-58
-3.15126e-58
3.95066e-58
-7.67703e-58
9.64201e-58
-1.9148e-57
2.40455e-57
-4.88735e-57
6.12882e-57
-1.27733e-56
1.59679e-56
-3.42014e-56
4.25312e-56
-9.38694e-56
1.15839e-55
-2.64245e-55
3.22681e-55
-7.63458e-55
9.19046e-55
-2.26513e-54
2.67267e-54
-6.90027e-54
7.9284e-54
-2.15489e-53
2.39504e-53
-6.88812e-53
7.27039e-53
-2.2474e-52
2.15043e-52
-7.37431e-52
5.85662e-52
-2.35525e-51
1.20024e-51
-6.90733e-51
-9.98887e-52
-1.51887e-50
-3.02709e-51
1.35284e-50
-5.43089e-50
4.6663e-49
-4.78989e-49
4.76998e-48
-3.49442e-48
3.81994e-47
-2.19129e-47
2.9514e-46
-1.08457e-46
2.11671e-45
-4.02332e-46
1.54192e-44
-9.12816e-46
1.00081e-43
1.2541e-45
6.26219e-43
3.17902e-44
3.96788e-42
2.53207e-43
3.41541e-41
6.7811e-43
1.84125e-40
-7.75905e-42
2.59975e-39
-5.67571e-40
4.70564e-38
-1.46667e-38
7.49109e-37
-2.7099e-37
1.0351e-35
-4.63296e-36
1.38404e-34
-7.15442e-35
1.82349e-33
-8.80727e-34
2.15964e-32
-8.90703e-33
2.21844e-31
-9.02012e-32
2.17994e-30
-1.10395e-30
2.39801e-29
-1.57293e-29
3.08407e-28
-2.11391e-28
4.08711e-27
-2.40942e-27
4.96525e-26
-2.8705e-26
5.67694e-25
-4.71042e-25
7.13898e-24
-5.96342e-24
9.58594e-23
-3.43133e-23
9.19661e-22
7.1736e-21
8.54781e-59
-3.28269e-58
1.92071e-58
-4.03098e-58
4.48331e-58
-9.42592e-58
1.07169e-57
-2.29313e-57
2.62134e-57
-5.72334e-57
6.56603e-57
-1.46463e-56
1.68556e-56
-3.84682e-56
4.43733e-56
-1.03807e-55
1.19868e-55
-2.88109e-55
3.32514e-55
-8.23324e-55
9.48255e-55
-2.4256e-54
2.78252e-54
-7.37864e-54
8.4046e-54
-2.32037e-53
2.61607e-53
-7.54623e-53
8.39665e-53
-2.53987e-52
2.77214e-52
-8.84478e-52
9.35985e-52
-3.17446e-51
3.20098e-51
-1.16535e-50
1.08945e-50
-4.32546e-50
3.51196e-50
-1.59286e-49
9.66352e-50
-5.54095e-49
1.45159e-49
-1.6468e-48
-6.58957e-49
-2.69707e-48
-1.31723e-48
1.36765e-47
-1.43221e-47
2.25656e-46
-9.12856e-47
2.08119e-45
-3.90094e-46
1.65351e-44
-6.85856e-46
1.28979e-43
4.93555e-45
8.91695e-43
6.50076e-44
5.93379e-42
5.29548e-43
5.61012e-41
1.80933e-42
3.45875e-40
-7.39263e-42
4.86091e-39
-9.01873e-40
8.35248e-38
-2.44733e-38
1.29287e-36
-4.62846e-37
1.78416e-35
-7.8655e-36
2.38205e-34
-1.19309e-34
3.10205e-33
-1.47703e-33
3.67005e-32
-1.54482e-32
3.8603e-31
-1.62861e-31
3.93388e-30
-2.02286e-30
4.42815e-29
-2.8202e-29
5.64945e-28
-3.6935e-28
7.30359e-27
-4.20868e-27
8.73696e-26
-4.92471e-26
9.9478e-25
-7.33339e-25
1.21687e-23
-9.01411e-24
1.56183e-22
-6.02835e-23
1.55345e-21
1.35364e-20
2.23413e-58
-9.52923e-58
4.95972e-58
-1.17334e-57
1.15009e-57
-2.71049e-57
2.73429e-57
-6.55379e-57
6.65689e-57
-1.62791e-56
1.66129e-56
-4.14962e-56
4.25449e-56
-1.08681e-55
1.11917e-55
-2.92868e-55
3.02678e-55
-8.13148e-55
8.42378e-55
-2.32949e-54
2.4153e-54
-6.89622e-54
7.14307e-54
-2.1133e-53
2.18146e-53
-6.71452e-53
6.8892e-53
-2.21494e-52
2.25227e-52
-7.59532e-52
7.62179e-52
-2.70867e-51
2.66545e-51
-1.00329e-50
9.59398e-51
-3.84665e-50
3.5238e-50
-1.51732e-49
1.29546e-49
-6.09446e-49
4.61395e-49
-2.44429e-48
1.50665e-48
-9.50151e-48
3.96856e-48
-3.41476e-47
4.81004e-48
-1.01357e-46
-2.44355e-47
-1.45291e-46
-4.02259e-47
9.51945e-46
-2.51106e-46
1.29762e-44
-1.50723e-46
1.33514e-43
9.86757e-45
1.08679e-42
1.0452e-43
7.77757e-42
9.05642e-43
8.19189e-41
3.67273e-42
5.74402e-40
-3.94073e-42
8.01613e-39
-1.30794e-39
1.31589e-37
-3.70136e-38
1.98855e-36
-7.13336e-37
2.74538e-35
-1.20184e-35
3.66031e-34
-1.79505e-34
4.72181e-33
-2.24793e-33
5.61127e-32
-2.45029e-32
6.08113e-31
-2.70024e-31
6.45489e-30
-3.39161e-30
7.42923e-29
-4.60194e-29
9.36102e-28
-5.85102e-28
1.17759e-26
-6.65677e-27
1.38764e-25
-7.76826e-26
1.57964e-24
-1.07772e-24
1.89632e-23
-1.25819e-23
2.31824e-22
-9.3534e-23
2.32252e-21
2.21209e-20
5.63473e-58
-2.70229e-57
1.23156e-57
-3.34419e-57
2.83071e-57
-7.60607e-57
6.67499e-57
-1.82329e-56
1.61156e-56
-4.49392e-56
3.98777e-56
-1.13678e-55
1.01269e-55
-2.95495e-55
2.64247e-55
-7.90588e-55
7.09252e-55
-2.1806e-54
1.96035e-54
-6.21081e-54
5.58657e-54
-1.82992e-53
1.64374e-53
-5.58805e-53
5.0009e-53
-1.77216e-52
1.57575e-52
-5.84789e-52
5.14958e-52
-2.01143e-51
1.74688e-51
-7.21935e-51
6.15064e-51
-2.70361e-50
2.24378e-50
-1.05468e-49
8.42999e-50
-4.26945e-49
3.22303e-49
-1.77898e-48
1.22698e-48
-7.5315e-48
4.4876e-48
-3.1759e-47
1.48291e-47
-1.29642e-46
3.96567e-47
-4.89343e-46
6.64991e-47
-1.57232e-45
-3.54161e-47
-3.48892e-45
-6.44597e-47
2.95636e-45
3.97232e-46
9.77822e-44
1.37851e-44
1.11562e-42
1.39055e-43
8.95923e-42
1.27878e-42
1.06092e-40
5.91502e-42
8.37519e-40
5.17345e-43
1.15701e-38
-1.74059e-39
1.82684e-37
-5.05401e-38
2.70995e-36
-9.85804e-37
3.74781e-35
-1.64312e-35
4.99077e-34
-2.42589e-34
6.39837e-33
-3.09439e-33
7.68233e-32
-3.5349e-32
8.62356e-31
-4.07436e-31
9.54601e-30
-5.15041e-30
1.12002e-28
-6.77185e-29
1.3887e-27
-8.35664e-28
1.69827e-26
-9.5102e-27
1.97475e-25
-1.11253e-25
2.24933e-24
-1.44626e-24
2.64764e-23
-1.58544e-23
3.07406e-22
-1.28417e-22
3.08115e-21
3.20062e-20
1.37787e-57
-7.52668e-57
2.9585e-57
-9.39023e-57
6.73204e-57
-2.0992e-56
1.57245e-56
-4.98245e-56
3.75772e-56
-1.21679e-55
9.19522e-56
-3.04864e-55
2.30724e-55
-7.84523e-55
5.94413e-55
-2.07704e-54
1.57424e-54
-5.6673e-54
4.29107e-54
-1.59654e-53
1.20547e-53
-4.65264e-53
3.49552e-53
-1.40563e-52
1.04806e-52
-4.41291e-52
3.25543e-52
-1.44322e-51
1.04955e-51
-4.92871e-51
3.51809e-51
-1.76119e-50
1.22645e-50
-6.59294e-50
4.44646e-50
-2.58333e-49
1.66952e-49
-1.05745e-48
6.43458e-49
-4.49262e-48
2.50359e-48
-1.96002e-47
9.54394e-48
-8.64165e-47
3.38965e-47
-3.76035e-46
1.03568e-46
-1.56048e-45
2.38649e-46
-5.88575e-45
3.00942e-46
-1.87575e-44
-1.41032e-47
-4.19888e-44
2.2711e-46
9.44224e-45
1.41067e-44
8.45993e-43
1.52253e-43
9.12414e-42
1.52199e-42
1.23907e-40
7.6446e-42
1.07607e-39
5.25802e-43
1.4697e-38
-2.14744e-39
2.24427e-37
-6.24485e-38
3.28617e-36
-1.22204e-36
4.55358e-35
-2.012e-35
6.05639e-34
-2.94858e-34
7.74439e-33
-3.85476e-33
9.4428e-32
-4.63103e-32
1.10093e-30
-5.5649e-31
1.26827e-29
-7.03268e-30
1.50804e-28
-8.93133e-29
1.83327e-27
-1.07191e-27
2.17997e-26
-1.22165e-26
2.50451e-25
-1.42728e-25
2.84798e-24
-1.74004e-24
3.27625e-23
-1.80107e-23
3.63346e-22
-1.58538e-22
3.6774e-21
4.17502e-20
3.27611e-57
-2.06806e-56
6.90498e-57
-2.60868e-56
1.55435e-56
-5.72753e-56
3.59345e-56
-1.34521e-55
8.49061e-56
-3.25328e-55
2.05137e-55
-8.06694e-55
5.07448e-55
-2.05272e-54
1.28687e-54
-5.36899e-54
3.3495e-54
-1.44594e-53
8.95841e-54
-4.01692e-53
2.46522e-53
-1.15342e-52
6.99115e-53
-3.43117e-52
2.04725e-52
-1.06031e-51
6.20335e-52
-3.41437e-51
1.94908e-51
-1.1493e-50
6.3663e-51
-4.05559e-50
2.16357e-50
-1.50465e-49
7.65262e-50
-5.87222e-49
2.81022e-49
-2.40865e-48
1.06309e-48
-1.0337e-47
4.0901e-48
-4.59482e-47
1.55888e-47
-2.087e-46
5.61795e-47
-9.47974e-46
1.76792e-46
-4.17995e-45
4.19973e-46
-1.72027e-44
5.04181e-46
-6.27106e-44
-2.82505e-46
-1.87064e-43
-2.01288e-45
-3.70967e-43
5.78036e-45
1.91828e-43
1.38789e-43
7.73375e-42
1.5426e-42
1.29148e-40
7.98217e-42
1.24478e-39
-9.37052e-42
1.68196e-38
-2.50103e-39
2.49769e-37
-7.07852e-38
3.61842e-36
-1.37539e-36
5.0158e-35
-2.233e-35
6.65774e-34
-3.26554e-34
8.51451e-33
-4.3939e-33
1.05694e-31
-5.54183e-32
1.27707e-30
-6.88476e-31
1.52065e-29
-8.6312e-30
1.8178e-28
-1.05764e-28
2.16063e-27
-1.23673e-27
2.50234e-26
-1.4091e-26
2.8421e-25
-1.63406e-25
3.21674e-24
-1.87759e-24
3.61795e-23
-1.86723e-23
3.88906e-22
-1.79164e-22
4.01879e-21
4.95851e-20
7.57361e-57
-5.6228e-56
1.5668e-56
-7.18847e-56
3.48762e-56
-1.54979e-55
7.9769e-56
-3.60112e-55
1.8623e-55
-8.62344e-55
4.43786e-55
-2.11588e-54
1.08061e-54
-5.32212e-54
2.6916e-54
-1.3744e-53
6.86463e-54
-3.6499e-53
1.79437e-53
-9.98499e-53
4.81254e-53
-2.81959e-52
1.32575e-52
-8.23835e-52
3.75822e-52
-2.49722e-51
1.0985e-51
-7.88173e-51
3.31827e-51
-2.60052e-50
1.038e-50
-9.00886e-50
3.36597e-50
-3.29039e-49
1.1295e-49
-1.27087e-48
3.90924e-49
-5.18997e-48
1.38117e-48
-2.23601e-47
4.90932e-48
-1.0065e-46
1.7062e-47
-4.672e-46
5.48947e-47
-2.18947e-45
1.42845e-46
-1.00901e-44
1.6871e-46
-4.41364e-44
-2.80338e-46
-1.75125e-43
-2.54914e-45
-5.93349e-43
-1.02919e-44
-1.57577e-42
-2.02655e-44
-2.61458e-42
6.25922e-44
2.84559e-42
1.30748e-42
1.26769e-40
6.65583e-42
1.31311e-39
-3.07896e-41
1.79348e-38
-2.81597e-39
2.61003e-37
-7.5544e-38
3.73845e-36
-1.44246e-36
5.17154e-35
-2.308e-35
6.84416e-34
-3.37228e-34
8.75879e-33
-4.65765e-33
1.10259e-31
-6.12464e-32
1.36903e-30
-7.78043e-31
1.66785e-29
-9.60202e-30
1.98941e-28
-1.13633e-28
2.31149e-27
-1.30047e-27
2.62065e-26
-1.47863e-26
2.95229e-25
-1.6931e-25
3.3253e-24
-1.86763e-24
3.68669e-23
-1.81709e-23
3.92241e-22
-1.88383e-22
4.11346e-21
5.40423e-20
1.69882e-56
-1.51613e-55
3.44992e-56
-1.96731e-55
7.59062e-56
-4.16594e-55
1.71674e-55
-9.57642e-55
3.95724e-55
-2.27088e-54
9.29125e-55
-5.51404e-54
2.22382e-54
-1.37111e-53
5.42948e-54
-3.4963e-53
1.35292e-53
-9.15554e-53
3.44233e-53
-2.46583e-52
8.94716e-53
-6.84334e-52
2.37586e-52
-1.96158e-51
6.45291e-52
-5.82217e-51
1.79311e-51
-1.79704e-50
5.103e-51
-5.79279e-50
1.48458e-50
-1.96249e-49
4.39678e-50
-7.02471e-49
1.30502e-49
-2.67363e-48
3.7537e-49
-1.08322e-47
9.65588e-49
-4.66015e-47
1.66327e-48
-2.11263e-46
-6.34253e-49
-9.95378e-46
-1.15846e-47
-4.77599e-45
-8.57543e-47
-2.27358e-44
-5.05941e-46
-1.03925e-43
-2.56683e-45
-4.37334e-43
-1.08745e-44
-1.61071e-42
-3.56992e-44
-4.90658e-42
-8.23448e-44
-1.1494e-41
-9.82931e-44
-1.55786e-41
7.51791e-43
8.76976e-41
3.88702e-42
1.31895e-39
-6.19155e-41
1.83424e-38
-3.13326e-39
2.64775e-37
-7.82665e-38
3.76434e-36
-1.45861e-36
5.20101e-35
-2.30074e-35
6.87393e-34
-3.35456e-34
8.79521e-33
-4.71774e-33
1.11033e-31
-6.37612e-32
1.39373e-30
-8.17292e-31
1.71512e-29
-9.88897e-30
2.03363e-28
-1.13789e-28
2.33123e-27
-1.28336e-27
2.62973e-26
-1.45525e-26
2.959e-25
-1.6568e-25
3.33055e-24
-1.79335e-24
3.68723e-23
-1.72288e-23
3.89224e-22
-1.87473e-22
4.11818e-21
5.51549e-20
3.68156e-56
-4.06055e-55
7.34029e-56
-5.34973e-55
1.59543e-55
-1.1134e-54
3.56501e-55
-2.5323e-54
8.10387e-55
-5.94747e-54
1.87144e-54
-1.42947e-53
4.39188e-54
-3.51476e-53
1.0475e-53
-8.85181e-53
2.53855e-53
-2.28612e-52
6.24761e-53
-6.0627e-52
1.56033e-52
-1.65373e-51
3.94657e-52
-4.65091e-51
1.00892e-51
-1.35195e-50
2.59246e-51
-4.0802e-50
6.6411e-51
-1.28413e-49
1.65463e-50
-4.24971e-49
3.75124e-50
-1.48857e-48
5.85415e-50
-5.56089e-48
-2.57019e-50
-2.22764e-47
-4.29256e-49
-9.53414e-47
-3.11303e-48
-4.32149e-46
-1.87711e-47
-2.0477e-45
-1.03004e-46
-9.95309e-45
-5.22039e-46
-4.84339e-44
-2.41775e-45
-2.28648e-43
-9.97996e-45
-1.00652e-42
-3.53477e-44
-3.94727e-42
-1.02098e-43
-1.31789e-41
-2.27525e-43
-3.61177e-41
-3.50889e-43
-7.51402e-41
-1.00164e-43
-4.46286e-41
3.46233e-43
1.03753e-39
-1.00069e-40
1.84321e-38
-3.49715e-39
2.66095e-37
-8.07816e-38
3.75504e-36
-1.46222e-36
5.15362e-35
-2.27482e-35
6.78134e-34
-3.3076e-34
8.67429e-33
-4.69503e-33
1.10395e-31
-6.41237e-32
1.39797e-30
-8.20663e-31
1.72042e-29
-9.75671e-30
2.03587e-28
-1.10643e-28
2.31499e-27
-1.23851e-27
2.58866e-26
-1.40167e-26
2.89685e-25
-1.59181e-25
3.24971e-24
-1.70589e-24
3.57697e-23
-1.6259e-23
3.75925e-22
-1.81137e-22
3.99874e-21
5.52341e-20
7.65657e-56
-1.08162e-54
1.49885e-55
-1.44562e-54
3.21429e-55
-2.9594e-54
7.08252e-55
-6.66014e-54
1.58337e-54
-1.54936e-53
3.58302e-54
-3.68639e-53
8.20267e-54
-8.96389e-53
1.89805e-53
-2.22986e-52
4.43197e-53
-5.68076e-52
1.04198e-52
-1.4839e-51
2.45514e-52
-3.98273e-51
5.74809e-52
-1.10059e-50
1.31778e-51
-3.13871e-50
2.85483e-51
-9.28129e-50
5.30203e-51
-2.85715e-49
4.77986e-51
-9.23603e-49
-8.57947e-51
-3.16447e-48
-7.80953e-50
-1.15672e-47
-4.72555e-49
-4.53803e-47
-2.58917e-48
-1.91164e-46
-1.37327e-47
-8.59276e-46
-7.14666e-47
-4.06921e-45
-3.61644e-46
-1.9929e-44
-1.73985e-45
-9.85403e-44
-7.69703e-45
-4.76966e-43
-3.00179e-44
-2.17546e-42
-9.8345e-44
-8.9616e-42
-2.57215e-43
-3.20628e-41
-5.11776e-43
-9.76126e-41
-6.92329e-43
-2.42797e-40
-2.4066e-43
-4.77528e-40
-2.1249e-42
3.46008e-40
-1.4171e-40
1.78248e-38
-3.92215e-39
2.65027e-37
-8.35881e-38
3.72972e-36
-1.4593e-36
5.04874e-35
-2.23147e-35
6.59444e-34
-3.24783e-34
8.42022e-33
-4.64437e-33
1.07868e-31
-6.37272e-32
1.37321e-30
-8.11164e-31
1.69528e-29
-9.53259e-30
1.99098e-28
-1.06095e-28
2.24155e-27
-1.173e-27
2.4703e-26
-1.32415e-26
2.74523e-25
-1.49941e-25
3.07009e-24
-1.58032e-24
3.36032e-23
-1.49449e-23
3.49977e-22
-1.71801e-22
3.76288e-21
5.39414e-20
1.51088e-55
-2.86763e-54
2.90378e-55
-3.87869e-54
6.12899e-55
-7.81792e-54
1.32617e-54
-1.74111e-53
2.8985e-54
-4.01157e-53
6.37468e-54
-9.44797e-53
1.40756e-53
-2.2719e-52
3.11027e-53
-5.58247e-52
6.84288e-53
-1.40332e-51
1.48429e-52
-3.61558e-51
3.1107e-52
-9.56695e-51
6.00332e-52
-2.60517e-50
9.23877e-52
-7.30794e-50
2.47246e-52
-2.12175e-49
-2.4324e-51
-6.40295e-49
-1.61404e-50
-2.01939e-48
-8.12503e-50
-6.72195e-48
-3.80991e-49
-2.38654e-47
-1.77583e-48
-9.11839e-47
-8.44446e-48
-3.76287e-46
-4.11656e-47
-1.66987e-45
-2.03647e-46
-7.87192e-45
-1.00042e-45
-3.86893e-44
-4.72769e-45
-1.93478e-43
-2.06004e-44
-9.5451e-43
-7.85121e-44
-4.47545e-42
-2.46083e-43
-1.91623e-41
-5.89908e-43
-7.23975e-41
-9.68919e-43
-2.39002e-40
-6.1673e-43
-6.67091e-40
2.59338e-42
-1.71583e-39
-4.38749e-41
-2.01488e-39
-1.68804e-40
1.16412e-38
-4.40411e-39
2.61625e-37
-8.73948e-38
3.72846e-36
-1.46272e-36
4.99962e-35
-2.19181e-35
6.4365e-34
-3.16883e-34
8.16039e-33
-4.55651e-33
1.04109e-31
-6.27984e-32
1.32973e-30
-7.93501e-31
1.63834e-29
-9.11348e-30
1.90111e-28
-9.90936e-29
2.09637e-27
-1.08088e-27
2.28204e-26
-1.21479e-26
2.51809e-25
-1.37696e-25
2.8109e-24
-1.44229e-24
3.08459e-23
-1.33778e-23
3.20122e-22
-1.58206e-22
3.4224e-21
5.14526e-20
2.77826e-55
-7.56918e-54
5.23301e-55
-1.03186e-53
1.08106e-54
-2.05008e-53
2.27566e-54
-4.51872e-53
4.79562e-54
-1.03103e-52
1.00452e-53
-2.40323e-52
2.07558e-53
-5.71406e-52
4.18052e-53
-1.38703e-51
7.98738e-53
-3.44667e-51
1.34819e-52
-8.7837e-51
1.52771e-52
-2.29616e-50
-7.00217e-53
-6.17359e-50
-8.53792e-52
-1.70638e-49
-4.37024e-51
-4.85898e-49
-1.86952e-50
-1.43125e-48
-7.5296e-50
-4.39234e-48
-3e-49
-1.41885e-47
-1.21846e-48
-4.88516e-47
-5.14723e-48
-1.81406e-46
-2.28436e-47
-7.31469e-46
-1.0624e-46
-3.19556e-45
-5.09964e-46
-1.49506e-44
-2.46086e-45
-7.34872e-44
-1.151e-44
-3.70081e-43
-4.97402e-44
-1.85044e-42
-1.87014e-43
-8.85532e-42
-5.67886e-43
-3.90549e-41
-1.25254e-42
-1.54135e-40
-1.49674e-42
-5.43604e-40
4.06113e-42
-1.65427e-39
2.84267e-41
-4.88616e-39
-2.18191e-41
-9.13224e-39
-1.41688e-40
4.52357e-39
-4.87498e-39
2.50539e-37
-9.29359e-38
3.73705e-36
-1.50425e-36
5.01235e-35
-2.20977e-35
6.42615e-34
-3.15563e-34
8.10118e-33
-4.49312e-33
1.02145e-31
-6.13603e-32
1.28441e-30
-7.6253e-31
1.56097e-29
-8.55932e-30
1.78386e-28
-9.12693e-29
1.94177e-27
-9.83606e-28
2.09372e-26
-1.10003e-26
2.29579e-25
-1.25496e-25
2.56301e-24
-1.31278e-24
2.8325e-23
-1.18156e-23
2.92482e-22
-1.43604e-22
3.10043e-21
4.99492e-20
4.61452e-55
-1.98832e-53
8.45187e-55
-2.71755e-53
1.68328e-54
-5.32841e-53
3.36157e-54
-1.1626e-52
6.55763e-54
-2.62654e-52
1.22113e-53
-6.05786e-52
2.07973e-53
-1.42402e-51
2.81491e-53
-3.42528e-51
8.31935e-54
-8.43519e-51
-6.12429e-53
-2.12907e-50
-3.494e-52
-5.49955e-50
-1.45733e-51
-1.456e-49
-5.46486e-51
-3.95233e-49
-1.96017e-50
-1.10247e-48
-6.92324e-50
-3.1721e-48
-2.45564e-49
-9.4817e-48
-8.89958e-49
-2.97589e-47
-3.3525e-48
-9.94438e-47
-1.33291e-47
-3.58929e-46
-5.64177e-47
-1.41298e-45
-2.53409e-46
-6.067e-45
-1.18787e-45
-2.8106e-44
-5.64487e-45
-1.37725e-43
-2.61316e-44
-6.95389e-43
-1.11894e-43
-3.50369e-42
-4.15148e-43
-1.69945e-41
-1.22423e-42
-7.65671e-41
-2.47457e-42
-3.13097e-40
-1.5379e-42
-1.1666e-39
2.99296e-41
-3.79828e-39
1.38259e-40
-1.22984e-38
1.66519e-40
-2.78297e-38
-1.91979e-39
-2.53304e-38
-5.1102e-39
2.01999e-37
-9.9311e-38
3.73409e-36
-1.57182e-36
5.09536e-35
-2.28069e-35
6.47131e-34
-3.23838e-34
8.11962e-33
-4.53873e-33
1.02169e-31
-6.05134e-32
1.26773e-30
-7.32574e-31
1.50614e-29
-8.03794e-30
1.69037e-28
-8.44216e-29
1.82017e-27
-9.00719e-28
1.95042e-26
-1.00439e-26
2.13071e-25
-1.16035e-25
2.39182e-24
-1.21482e-24
2.68047e-23
-1.05969e-23
2.76764e-22
-1.36087e-22
2.9518e-21
4.99731e-20
6.51951e-55
-5.19332e-53
1.1264e-54
-7.07364e-53
2.04739e-54
-1.37051e-52
3.49555e-54
-2.96069e-52
5.02401e-54
-6.62185e-52
3.78604e-54
-1.51201e-51
-5.31567e-54
-3.52789e-51
-3.69163e-53
-8.41642e-51
-1.53761e-52
-2.05149e-50
-5.52816e-52
-5.11058e-50
-1.86622e-51
-1.30141e-49
-6.12032e-51
-3.39036e-49
-1.98322e-50
-9.0403e-49
-6.42035e-50
-2.47222e-48
-2.09516e-49
-6.95902e-48
-6.96021e-49
-2.03029e-47
-2.38285e-48
-6.20649e-47
-8.53336e-48
-2.01774e-46
-3.24551e-47
-7.09151e-46
-1.32359e-46
-2.72768e-45
-5.77377e-46
-1.15064e-44
-2.64794e-45
-5.26906e-44
-1.2377e-44
-2.5658e-43
-5.6506e-44
-1.29271e-42
-2.38594e-43
-6.52375e-42
-8.69404e-43
-3.18496e-41
-2.47855e-42
-1.45468e-40
-4.51538e-42
-6.12547e-40
2.30617e-42
-2.39035e-39
1.16995e-40
-8.19314e-39
4.94612e-40
-2.83778e-38
9.10839e-40
-7.21142e-38
-1.20183e-39
-1.09181e-37
-4.2939e-39
1.22307e-37
-1.07025e-37
3.67207e-36
-1.6707e-36
5.28455e-35
-2.38541e-35
6.62749e-34
-3.36594e-34
8.26863e-33
-4.68102e-33
1.03193e-31
-6.10453e-32
1.26899e-30
-7.17987e-31
1.49292e-29
-7.71088e-30
1.65095e-28
-8.01149e-29
1.76499e-27
-8.49405e-28
1.88826e-26
-9.48677e-27
2.06499e-25
-1.11608e-25
2.3422e-24
-1.17283e-24
2.65479e-23
-1.0218e-23
2.74635e-22
-1.35569e-22
2.94474e-21
5.17502e-20
6.70352e-55
-1.34683e-52
9.27238e-55
-1.81665e-52
9.62924e-55
-3.4825e-52
-3.43699e-55
-7.45263e-52
-4.34721e-54
-1.65328e-51
-1.91723e-53
-3.74404e-51
-6.83248e-53
-8.65002e-51
-2.23225e-52
-2.04173e-50
-6.98374e-52
-4.91772e-50
-2.13805e-51
-1.20878e-49
-6.48681e-51
-3.03377e-49
-1.96624e-50
-7.77972e-49
-5.98501e-50
-2.03929e-48
-1.83833e-49
-5.47454e-48
-5.72836e-49
-1.51053e-47
-1.82452e-48
-4.31278e-47
-6.00488e-48
-1.28827e-46
-2.07194e-47
-4.08892e-46
-7.61357e-47
-1.40379e-45
-3.01131e-46
-5.28717e-45
-1.27975e-45
-2.19246e-44
-5.74065e-45
-9.91065e-44
-2.63047e-44
-4.77976e-43
-1.1775e-43
-2.39076e-42
-4.86693e-43
-1.20091e-41
-1.72715e-42
-5.85984e-41
-4.71251e-42
-2.69618e-40
-7.41805e-42
-1.16413e-39
3.36985e-41
-4.71581e-39
3.63505e-40
-1.67743e-38
1.4839e-39
-6.11223e-38
3.18863e-39
-1.68494e-37
6.4472e-40
-3.14705e-37
-4.874e-38
-5.69441e-38
-1.14743e-37
3.43021e-36
-1.82129e-36
5.55882e-35
-2.56198e-35
6.98681e-34
-3.56293e-34
8.62647e-33
-4.87473e-33
1.06185e-31
-6.24691e-32
1.28801e-30
-7.20834e-31
1.49454e-29
-7.63458e-30
1.64646e-28
-7.90073e-29
1.75811e-27
-8.38065e-28
1.88241e-26
-9.40946e-27
2.0608e-25
-1.11958e-25
2.34076e-24
-1.18086e-24
2.6818e-23
-1.02281e-23
2.79676e-22
-1.41901e-22
3.04786e-21
5.69882e-20
1.9902e-55
-3.46264e-52
-3.62889e-55
-4.59568e-52
-2.13371e-54
-8.73479e-52
-8.36539e-54
-1.8536e-51
-2.83665e-53
-4.07276e-51
-8.90642e-53
-9.135e-51
-2.67759e-52
-2.08807e-50
-7.87073e-52
-4.87289e-50
-2.28575e-51
-1.15946e-49
-6.60843e-51
-2.81265e-49
-1.91317e-50
-6.95987e-49
-5.57048e-50
-1.75808e-48
-1.63594e-49
-4.53537e-48
-4.86238e-49
-1.1971e-47
-1.46912e-48
-3.24478e-47
-4.54297e-48
-9.0929e-47
-1.45285e-47
-2.66386e-46
-4.87434e-47
-8.28917e-46
-1.74322e-46
-2.79112e-45
-6.71952e-46
-1.03248e-44
-2.78696e-45
-4.21358e-44
-1.22074e-44
-1.87781e-43
-5.45705e-44
-8.93816e-43
-2.37755e-43
-4.41517e-42
-9.53021e-43
-2.19356e-41
-3.25637e-42
-1.06272e-40
-8.36437e-42
-4.90604e-40
-1.02109e-41
-2.16626e-39
1.3564e-40
-9.0033e-39
9.90317e-40
-3.285e-38
3.94515e-39
-1.2426e-37
9.21937e-39
-3.63802e-37
7.96278e-39
-7.71249e-37
-4.70978e-38
-6.20455e-37
-1.1685e-37
2.81856e-36
-2.0143e-36
5.71696e-35
-2.83869e-35
7.592e-34
-3.8916e-34
9.28936e-33
-5.19244e-33
1.12714e-31
-6.47847e-32
1.33746e-30
-7.33566e-31
1.52754e-29
-7.70361e-30
1.66766e-28
-7.97412e-29
1.77963e-27
-8.4806e-28
1.91263e-26
-9.58571e-27
2.10714e-25
-1.15319e-25
2.43514e-24
-1.22277e-24
2.84172e-23
-1.07365e-23
3.02147e-22
-1.62139e-22
3.4348e-21
6.77103e-20
-4.97693e-55
-8.8087e-52
-2.43882e-54
-1.14308e-51
-8.98643e-54
-2.156e-51
-3.01991e-53
-4.53538e-51
-9.42468e-53
-9.86809e-51
-2.7998e-52
-2.19071e-50
-8.07019e-52
-4.95274e-50
-2.29128e-51
-1.14242e-49
-6.45867e-51
-2.68602e-49
-1.81776e-50
-6.43424e-49
-5.13178e-50
-1.57084e-48
-1.45899e-49
-3.91232e-48
-4.18783e-49
-9.946e-48
-1.21733e-48
-2.58581e-47
-3.59884e-48
-6.90138e-47
-1.08927e-47
-1.90401e-46
-3.41022e-47
-5.49149e-46
-1.12006e-46
-1.68262e-45
-3.92041e-46
-5.58078e-45
-1.47796e-45
-2.03422e-44
-5.9857e-45
-8.18029e-44
-2.55277e-44
-3.5896e-43
-1.10662e-43
-1.6803e-42
-4.65225e-43
-8.15446e-42
-1.78876e-42
-3.98333e-41
-5.80514e-42
-1.90737e-40
-1.36399e-41
-8.82003e-40
-8.69902e-42
-3.96763e-39
4.18622e-40
-1.67026e-38
2.46394e-39
-6.18736e-38
9.56901e-39
-2.40251e-37
2.35549e-38
-7.35797e-37
2.8856e-38
-1.70432e-36
-2.97968e-38
-2.00921e-36
-9.79603e-38
1.12367e-36
-2.23935e-36
5.7424e-35
-3.24533e-35
8.5044e-34
-4.3842e-34
1.03219e-32
-5.70615e-33
1.23501e-31
-6.90054e-32
1.43692e-30
-7.62027e-31
1.60865e-29
-7.9335e-30
1.73888e-28
-8.24861e-29
1.86367e-27
-8.82472e-28
2.0255e-26
-1.01466e-26
2.26736e-25
-1.257e-25
2.70885e-24
-1.35542e-24
3.28129e-23
-1.25241e-23
3.59822e-22
-2.04492e-22
4.3176e-21
8.38347e-20
2.02834e-54
-2.21175e-51
-3.71218e-54
-2.79028e-51
-2.04365e-53
-5.22593e-51
-7.59801e-53
-1.09002e-50
-2.45245e-52
-2.34775e-50
-7.35353e-52
-5.15697e-50
-2.1159e-51
-1.15319e-49
-5.96109e-51
-2.62913e-49
-1.66303e-50
-6.11074e-49
-4.62425e-50
-1.44658e-48
-1.28794e-49
-3.48786e-48
-3.60892e-49
-8.57466e-48
-1.02044e-48
-2.15132e-47
-2.92089e-48
-5.51949e-47
-8.5011e-48
-1.45398e-46
-2.53283e-47
-3.961e-46
-7.80452e-47
-1.12882e-45
-2.5218e-46
-3.41986e-45
-8.67261e-46
-1.12178e-44
-3.20392e-45
-4.04099e-44
-1.26596e-44
-1.60278e-43
-5.23531e-44
-6.91496e-43
-2.1852e-43
-3.17206e-42
-8.77945e-43
-1.50536e-41
-3.19964e-42
-7.20066e-41
-9.69052e-42
-3.40294e-40
-1.96222e-41
-1.57681e-39
3.69906e-41
-7.18615e-39
1.12858e-39
-3.01732e-38
5.71243e-39
-1.12514e-37
2.15399e-38
-4.44152e-37
5.47863e-38
-1.40632e-36
7.97033e-38
-3.48013e-36
-1.41297e-38
-5.01113e-36
-7.14672e-38
8.38634e-37
-2.49475e-36
5.49301e-35
-3.81502e-35
9.75252e-34