/*--------------------------------*- C++ -*----------------------------------*\
  =========                 |
  \\      /  F ield         | OpenFOAM: The Open Source CFD Toolbox
   \\    /   O peration     | Website:  https://openfoam.org
    \\  /    A nd           | Version:  9
     \\/     M anipulation  |
\*---------------------------------------------------------------------------*/
FoamFile
{
    format      ascii;
    class       volVectorField;
    location    "0.14";
    object      U;
}
// * * * * * * * * * * * * * * * * * * * * * * * * * * * * * * * * * * * * * //

dimensions      [0 1 -1 0 0 0 0];

internalField   nonuniform List<vector> 
5000
(
(-0.198668 0 -0.0550077)
(-0.200289 0 -0.0576348)
(-0.201643 0 -0.0595686)
(-0.203051 0 -0.0594099)
(-0.204504 0 -0.0569554)
(-0.205944 0 -0.0524337)
(-0.207299 0 -0.0460791)
(-0.20848 0 -0.0381018)
(-0.209377 0 -0.0288047)
(-0.209869 0 -0.0187034)
(-0.209828 0 -0.00860637)
(-0.209139 0 0.000357339)
(-0.207712 0 0.00677612)
(-0.205499 0 0.0090764)
(-0.202503 0 0.00573279)
(-0.198782 0 -0.00444327)
(-0.194424 0 -0.0219706)
(-0.189516 0 -0.0463731)
(-0.184082 0 -0.0759171)
(-0.178023 0 -0.107448)
(-0.171046 0 -0.136337)
(-0.162639 0 -0.156562)
(-0.152102 0 -0.160988)
(-0.138687 0 -0.142076)
(-0.121869 0 -0.0933028)
(-0.101745 0 -0.0114915)
(-0.0793828 0 0.100261)
(-0.0567981 0 0.230133)
(-0.0365533 0 0.357057)
(-0.0208094 0 0.453135)
(-0.0113287 0 0.494532)
(-0.0121582 0 0.458478)
(-0.0226351 0 0.373501)
(-0.0378392 0 0.298861)
(-0.0536788 0 0.273705)
(-0.0683294 0 0.286212)
(-0.0822037 0 0.301401)
(-0.0965217 0 0.31326)
(-0.111879 0 0.347191)
(-0.127266 0 0.41261)
(-0.140735 0 0.479898)
(-0.150932 0 0.512559)
(-0.15799 0 0.505551)
(-0.16327 0 0.483774)
(-0.168488 0 0.471373)
(-0.174689 0 0.469177)
(-0.1816 0 0.459618)
(-0.188229 0 0.430726)
(-0.194658 0 0.395574)
(-0.202662 0 0.386732)
(-0.192179 0 -0.0512522)
(-0.193743 0 -0.0537428)
(-0.195026 0 -0.0556321)
(-0.196312 0 -0.0555646)
(-0.19759 0 -0.0533414)
(-0.198795 0 -0.0492029)
(-0.19985 0 -0.0434046)
(-0.200663 0 -0.0361728)
(-0.201125 0 -0.0278111)
(-0.201122 0 -0.0188136)
(-0.200541 0 -0.00994138)
(-0.199292 0 -0.00225084)
(-0.197325 0 0.00293827)
(-0.194643 0 0.00415013)
(-0.191312 0 -5.69879e-05)
(-0.187458 0 -0.0108263)
(-0.183235 0 -0.0286934)
(-0.178782 0 -0.0532768)
(-0.174154 0 -0.0830175)
(-0.169246 0 -0.114996)
(-0.163723 0 -0.14484)
(-0.156979 0 -0.166734)
(-0.148161 0 -0.173613)
(-0.136291 0 -0.157759)
(-0.120547 0 -0.112127)
(-0.100709 0 -0.0326855)
(-0.0776493 0 0.0784168)
(-0.053518 0 0.209956)
(-0.0314569 0 0.340812)
(-0.0143115 0 0.442567)
(-0.00419633 0 0.49123)
(-0.00524893 0 0.462438)
(-0.0164012 0 0.382309)
(-0.0323866 0 0.309443)
(-0.0489808 0 0.284051)
(-0.0642477 0 0.295868)
(-0.0784425 0 0.310858)
(-0.0926536 0 0.323083)
(-0.107493 0 0.357233)
(-0.122135 0 0.421955)
(-0.134873 0 0.48755)
(-0.144505 0 0.51816)
(-0.151132 0 0.509549)
(-0.155947 0 0.487111)
(-0.160522 0 0.474921)
(-0.165863 0 0.473209)
(-0.171759 0 0.463778)
(-0.177307 0 0.434747)
(-0.182617 0 0.400072)
(-0.189492 0 0.39304)
(-0.184016 0 -0.0476272)
(-0.185508 0 -0.0500465)
(-0.186715 0 -0.0519902)
(-0.187883 0 -0.0521295)
(-0.188999 0 -0.0502574)
(-0.189994 0 -0.04662)
(-0.19079 0 -0.0414898)
(-0.191293 0 -0.0351041)
(-0.191398 0 -0.0277597)
(-0.190993 0 -0.0199183)
(-0.189979 0 -0.0122815)
(-0.188282 0 -0.00582022)
(-0.185876 0 -0.00175122)
(-0.182799 0 -0.00144515)
(-0.179157 0 -0.00625904)
(-0.17512 0 -0.0172984)
(-0.170889 0 -0.0351323)
(-0.166646 0 -0.0594998)
(-0.162479 0 -0.0890479)
(-0.158303 0 -0.121129)
(-0.153781 0 -0.151664)
(-0.148277 0 -0.175094)
(-0.140858 0 -0.184481)
(-0.130401 0 -0.171988)
(-0.115854 0 -0.130081)
(-0.0966999 0 -0.0538185)
(-0.0735568 0 0.055809)
(-0.0485435 0 0.188515)
(-0.0251998 0 0.323358)
(-0.00700446 0 0.4313)
(0.0035046 0 0.487847)
(0.00204519 0 0.466755)
(-0.00991375 0 0.39165)
(-0.0267845 0 0.320574)
(-0.0442179 0 0.294879)
(-0.0601421 0 0.30584)
(-0.0746364 0 0.32037)
(-0.0886833 0 0.332676)
(-0.102965 0 0.366844)
(-0.116872 0 0.430811)
(-0.128923 0 0.494781)
(-0.13803 0 0.523436)
(-0.14424 0 0.513247)
(-0.148592 0 0.490075)
(-0.152537 0 0.477971)
(-0.157054 0 0.476623)
(-0.161981 0 0.467249)
(-0.166513 0 0.438057)
(-0.170768 0 0.403791)
(-0.176503 0 0.398218)
(-0.174341 0 -0.0441709)
(-0.175751 0 -0.0465645)
(-0.17688 0 -0.0486369)
(-0.177937 0 -0.049072)
(-0.178907 0 -0.0476418)
(-0.179722 0 -0.044591)
(-0.180301 0 -0.0402056)
(-0.180554 0 -0.0347314)
(-0.180378 0 -0.028454)
(-0.179666 0 -0.0217984)
(-0.178324 0 -0.0154003)
(-0.17629 0 -0.0101393)
(-0.17355 0 -0.00712354)
(-0.170158 0 -0.00761424)
(-0.166242 0 -0.0128817)
(-0.161995 0 -0.0239946)
(-0.157648 0 -0.0415598)
(-0.153414 0 -0.0654444)
(-0.149416 0 -0.0945129)
(-0.145604 0 -0.126404)
(-0.141673 0 -0.157358)
(-0.137001 0 -0.182105)
(-0.130643 0 -0.193888)
(-0.121404 0 -0.184821)
(-0.108079 0 -0.146945)
(-0.0899131 0 -0.0744185)
(-0.067248 0 0.0330487)
(-0.042044 0 0.166385)
(-0.0180287 0 0.305113)
(0.00078901 0 0.419584)
(0.0114442 0 0.484524)
(0.0094564 0 0.471522)
(-0.00337555 0 0.401581)
(-0.021172 0 0.332302)
(-0.0394844 0 0.30622)
(-0.0560802 0 0.316129)
(-0.07084 0 0.329911)
(-0.0846668 0 0.34201)
(-0.0983655 0 0.376017)
(-0.111567 0 0.4392)
(-0.122985 0 0.501619)
(-0.131603 0 0.5284)
(-0.137401 0 0.51665)
(-0.14129 0 0.492676)
(-0.144626 0 0.480546)
(-0.148367 0 0.479458)
(-0.152386 0 0.470082)
(-0.15597 0 0.44072)
(-0.159264 0 0.40685)
(-0.163922 0 0.402524)
(-0.163367 0 -0.0408889)
(-0.164679 0 -0.0433017)
(-0.165728 0 -0.045563)
(-0.166681 0 -0.0463597)
(-0.167521 0 -0.0454354)
(-0.168179 0 -0.0430273)
(-0.16858 0 -0.0394318)
(-0.168635 0 -0.034902)
(-0.168244 0 -0.0297122)
(-0.167306 0 -0.0242498)
(-0.165732 0 -0.0190844)
(-0.163462 0 -0.0150036)
(-0.160488 0 -0.0130064)
(-0.156865 0 -0.0142434)
(-0.152727 0 -0.0198956)
(-0.148275 0 -0.0309909)
(-0.143752 0 -0.0481688)
(-0.139392 0 -0.0714183)
(-0.135351 0 -0.0998163)
(-0.131621 0 -0.131288)
(-0.127949 0 -0.162401)
(-0.123764 0 -0.1882)
(-0.118152 0 -0.202152)
(-0.109915 0 -0.196387)
(-0.097771 0 -0.162599)
(-0.0807951 0 -0.0941041)
(-0.0590771 0 0.0107062)
(-0.0343397 0 0.144166)
(-0.0103003 0 0.286551)
(0.00867438 0 0.407699)
(0.0192222 0 0.481382)
(0.0166468 0 0.476781)
(0.00296373 0 0.41211)
(-0.0157226 0 0.344633)
(-0.0348954 0 0.318083)
(-0.0521407 0 0.326725)
(-0.0671144 0 0.33945)
(-0.0806659 0 0.351065)
(-0.0937709 0 0.384764)
(-0.106311 0 0.44716)
(-0.117156 0 0.508101)
(-0.125318 0 0.533073)
(-0.130704 0 0.519762)
(-0.134124 0 0.494924)
(-0.13688 0 0.482672)
(-0.139908 0 0.481754)
(-0.143094 0 0.472315)
(-0.145801 0 0.442766)
(-0.148235 0 0.409264)
(-0.151946 0 0.406023)
(-0.151306 0 -0.0378722)
(-0.152513 0 -0.0402912)
(-0.153488 0 -0.0427634)
(-0.154344 0 -0.0439641)
(-0.155066 0 -0.0435887)
(-0.155588 0 -0.0418567)
(-0.155838 0 -0.039071)
(-0.155734 0 -0.0354919)
(-0.155181 0 -0.0313844)
(-0.154082 0 -0.0271014)
(-0.152352 0 -0.0231503)
(-0.149931 0 -0.0202307)
(-0.146808 0 -0.0192356)
(-0.143036 0 -0.0212067)
(-0.138738 0 -0.0272339)
(-0.134113 0 -0.0382978)
(-0.129402 0 -0.0550589)
(-0.12485 0 -0.0776131)
(-0.120641 0 -0.105234)
(-0.11681 0 -0.136122)
(-0.113164 0 -0.167166)
(-0.109206 0 -0.193738)
(-0.104088 0 -0.209564)
(-0.0966558 0 -0.206842)
(-0.0856185 0 -0.177002)
(-0.0699523 0 -0.112594)
(-0.0495461 0 -0.0107264)
(-0.0258516 0 0.122434)
(-0.00243006 0 0.268158)
(0.016219 0 0.395947)
(0.0264075 0 0.478531)
(0.0232387 0 0.482495)
(0.0088261 0 0.423198)
(-0.0106308 0 0.357528)
(-0.0305797 0 0.330438)
(-0.0484105 0 0.337592)
(-0.0635265 0 0.348951)
(-0.0767478 0 0.35982)
(-0.0892619 0 0.393103)
(-0.101198 0 0.45473)
(-0.111538 0 0.514258)
(-0.119272 0 0.53746)
(-0.124233 0 0.522577)
(-0.127176 0 0.496824)
(-0.129385 0 0.484382)
(-0.131774 0 0.483558)
(-0.134214 0 0.474003)
(-0.136129 0 0.44425)
(-0.137803 0 0.411092)
(-0.140709 0 0.4088)
(-0.138397 0 -0.0350302)
(-0.139527 0 -0.0374918)
(-0.140437 0 -0.0402137)
(-0.141198 0 -0.0418578)
(-0.141805 0 -0.0420657)
(-0.1422 0 -0.0410301)
(-0.142313 0 -0.0390569)
(-0.142072 0 -0.0364146)
(-0.141389 0 -0.0333631)
(-0.140173 0 -0.0302262)
(-0.13834 0 -0.027456)
(-0.135832 0 -0.0256716)
(-0.132631 0 -0.0256667)
(-0.128779 0 -0.0283779)
(-0.124388 0 -0.0348037)
(-0.119639 0 -0.0458704)
(-0.114766 0 -0.0622455)
(-0.110015 0 -0.0841113)
(-0.105589 0 -0.110915)
(-0.101564 0 -0.14111)
(-0.0978116 0 -0.171897)
(-0.0939137 0 -0.198977)
(-0.0891153 0 -0.216349)
(-0.0823389 0 -0.216331)
(-0.0723361 0 -0.190152)
(-0.0580485 0 -0.129692)
(-0.0392251 0 -0.030852)
(-0.0170537 0 0.101711)
(0.00516454 0 0.250413)
(0.0230039 0 0.384622)
(0.0325854 0 0.476061)
(0.0288574 0 0.488605)
(0.0139245 0 0.434724)
(-0.00609582 0 0.37089)
(-0.0266733 0 0.343216)
(-0.04498 0 0.348675)
(-0.0601461 0 0.358366)
(-0.0729837 0 0.36826)
(-0.0849226 0 0.401056)
(-0.0963267 0 0.461954)
(-0.106228 0 0.520121)
(-0.113553 0 0.541563)
(-0.118069 0 0.525086)
(-0.120523 0 0.498386)
(-0.122221 0 0.485714)
(-0.124055 0 0.48493)
(-0.125844 0 0.475208)
(-0.127056 0 0.445242)
(-0.128073 0 0.412427)
(-0.130321 0 0.410984)
(-0.124844 0 -0.0324052)
(-0.126062 0 -0.0348943)
(-0.126925 0 -0.037928)
(-0.127561 0 -0.0400605)
(-0.128033 0 -0.0408763)
(-0.128287 0 -0.0405426)
(-0.12826 0 -0.0393673)
(-0.127886 0 -0.0376295)
(-0.127086 0 -0.0355879)
(-0.125775 0 -0.033545)
(-0.123872 0 -0.0319058)
(-0.121318 0 -0.031218)
(-0.118088 0 -0.0321848)
(-0.114213 0 -0.035644)
(-0.109787 0 -0.0425038)
(-0.104972 0 -0.0536301)
(-0.0999856 0 -0.0696829)
(-0.0950697 0 -0.0909088)
(-0.0904363 0 -0.116902)
(-0.0861982 0 -0.146343)
(-0.0822862 0 -0.176726)
(-0.0783688 0 -0.204068)
(-0.0737922 0 -0.222655)
(-0.0675823 0 -0.224954)
(-0.0585692 0 -0.202057)
(-0.0457101 0 -0.145261)
(-0.0286696 0 -0.0493616)
(-0.00841002 0 0.082437)
(0.0120985 0 0.233761)
(0.0286694 0 0.374008)
(0.037402 0 0.474044)
(0.0331769 0 0.495015)
(0.0179942 0 0.446521)
(-0.00230815 0 0.384579)
(-0.0233061 0 0.356315)
(-0.0419368 0 0.359895)
(-0.0570423 0 0.367644)
(-0.0694458 0 0.376373)
(-0.0808387 0 0.408656)
(-0.0917905 0 0.468881)
(-0.10132 0 0.525716)
(-0.108245 0 0.545378)
(-0.112283 0 0.527274)
(-0.114232 0 0.499618)
(-0.115462 0 0.48671)
(-0.116826 0 0.48593)
(-0.118062 0 0.475996)
(-0.118662 0 0.445811)
(-0.119125 0 0.41336)
(-0.120869 0 0.412707)
(-0.111221 0 -0.0287079)
(-0.11252 0 -0.0323579)
(-0.11322 0 -0.0360004)
(-0.113685 0 -0.0386733)
(-0.113997 0 -0.0400934)
(-0.114093 0 -0.0404382)
(-0.113915 0 -0.0400222)
(-0.113405 0 -0.0391355)
(-0.11249 0 -0.0380396)
(-0.111092 0 -0.037021)
(-0.109135 0 -0.0364465)
(-0.106558 0 -0.0368018)
(-0.103332 0 -0.0387093)
(-0.099474 0 -0.0429152)
(-0.0950606 0 -0.0502403)
(-0.0902334 0 -0.0614858)
(-0.0851909 0 -0.0772911)
(-0.0801633 0 -0.0979459)
(-0.0753675 0 -0.123164)
(-0.0709441 0 -0.151825)
(-0.0668795 0 -0.181687)
(-0.0629263 0 -0.209071)
(-0.0585392 0 -0.228549)
(-0.0528627 0 -0.232759)
(-0.0448314 0 -0.212709)
(-0.0334547 0 -0.159194)
(-0.018355 0 -0.0660144)
(-0.000315895 0 0.0649737)
(0.0180608 0 0.218591)
(0.0329497 0 0.364384)
(0.040598 0 0.472544)
(0.0359539 0 0.501602)
(0.0208251 0 0.458382)
(0.000570721 0 0.398413)
(-0.0205923 0 0.369597)
(-0.0393593 0 0.371155)
(-0.0542797 0 0.376728)
(-0.0662052 0 0.384156)
(-0.0770944 0 0.415943)
(-0.0876803 0 0.47556)
(-0.0968984 0 0.531065)
(-0.10342 0 0.548893)
(-0.106939 0 0.529124)
(-0.108366 0 0.500527)
(-0.109171 0 0.487415)
(-0.110155 0 0.486621)
(-0.110934 0 0.476426)
(-0.111009 0 0.44602)
(-0.111021 0 0.413977)
(-0.112414 0 0.414103)
(-0.0976491 0 -0.0252509)
(-0.0987791 0 -0.0301632)
(-0.0992967 0 -0.034505)
(-0.0996395 0 -0.0377346)
(-0.0998207 0 -0.0397394)
(-0.0997767 0 -0.0407293)
(-0.0994614 0 -0.0410267)
(-0.0988246 0 -0.0409312)
(-0.0978031 0 -0.0407093)
(-0.0963264 0 -0.0406374)
(-0.0943238 0 -0.0410515)
(-0.0917365 0 -0.0423852)
(-0.0885311 0 -0.0451894)
(-0.0847148 0 -0.0501273)
(-0.0803483 0 -0.0579367)
(-0.0755526 0 -0.0693518)
(-0.0705058 0 -0.0849813)
(-0.0654238 0 -0.105139)
(-0.060523 0 -0.129631)
(-0.0559653 0 -0.157505)
(-0.0517868 0 -0.186756)
(-0.0478213 0 -0.213985)
(-0.0436348 0 -0.234041)
(-0.0385007 0 -0.239746)
(-0.0314768 0 -0.222072)
(-0.0216506 0 -0.17139)
(-0.0086311 0 -0.0806158)
(0.00694481 0 0.0496215)
(0.0228425 0 0.205223)
(0.0356924 0 0.356)
(0.0420337 0 0.471615)
(0.037051 0 0.508235)
(0.0222832 0 0.470087)
(0.0024245 0 0.412186)
(-0.018619 0 0.382904)
(-0.0373106 0 0.382344)
(-0.0519152 0 0.385562)
(-0.063329 0 0.391611)
(-0.0737699 0 0.422962)
(-0.0840781 0 0.482041)
(-0.0930359 0 0.536186)
(-0.099137 0 0.55209)
(-0.102086 0 0.530613)
(-0.102973 0 0.501124)
(-0.103402 0 0.487874)
(-0.104096 0 0.487065)
(-0.104508 0 0.47656)
(-0.104139 0 0.445931)
(-0.103798 0 0.414361)
(-0.104991 0 0.4153)
(-0.0841505 0 -0.0230023)
(-0.0849459 0 -0.0284531)
(-0.0853303 0 -0.0333527)
(-0.0855946 0 -0.0371243)
(-0.0856768 0 -0.0397173)
(-0.0855223 0 -0.0413463)
(-0.0850937 0 -0.0423329)
(-0.084348 0 -0.042985)
(-0.0832315 0 -0.0435765)
(-0.081683 0 -0.0443793)
(-0.0796393 0 -0.0457069)
(-0.0770452 0 -0.0479502)
(-0.0738661 0 -0.0515989)
(-0.0701022 0 -0.0572422)
(-0.0658005 0 -0.0655406)
(-0.0610639 0 -0.077162)
(-0.0560506 0 -0.0926764)
(-0.0509608 0 -0.112405)
(-0.0460074 0 -0.136223)
(-0.041368 0 -0.163315)
(-0.0371233 0 -0.19188)
(-0.0331851 0 -0.218771)
(-0.0292303 0 -0.239099)
(-0.0246727 0 -0.245879)
(-0.0187033 0 -0.230088)
(-0.0105058 0 -0.181747)
(0.000299617 0 -0.0930004)
(0.0132132 0 0.036614)
(0.0263555 0 0.193931)
(0.036866 0 0.349071)
(0.0416978 0 0.471309)
(0.0364462 0 0.514789)
(0.022322 0 0.48142)
(0.00319308 0 0.425685)
(-0.0174392 0 0.396064)
(-0.0358345 0 0.393347)
(-0.0499953 0 0.394093)
(-0.0608778 0 0.398751)
(-0.0709378 0 0.429765)
(-0.0810543 0 0.488368)
(-0.0897883 0 0.541084)
(-0.0954377 0 0.554941)
(-0.0977622 0 0.531718)
(-0.0980966 0 0.50142)
(-0.0982028 0 0.488134)
(-0.0986928 0 0.48732)
(-0.0988192 0 0.47645)
(-0.0980786 0 0.4456)
(-0.0974764 0 0.414595)
(-0.0986111 0 0.41642)
(-0.0708208 0 -0.0215407)
(-0.0713667 0 -0.0271657)
(-0.0716566 0 -0.0324573)
(-0.0718431 0 -0.0367487)
(-0.0718334 0 -0.0399448)
(-0.07158 0 -0.0422235)
(-0.0710484 0 -0.0438927)
(-0.0702012 0 -0.0452652)
(-0.0689937 0 -0.0466235)
(-0.0673735 0 -0.0482398)
(-0.0652851 0 -0.0504122)
(-0.0626783 0 -0.0534978)
(-0.0595194 0 -0.0579353)
(-0.0558037 0 -0.0642491)
(-0.0515676 0 -0.0730291)
(-0.0468984 0 -0.0848791)
(-0.0419364 0 -0.100326)
(-0.0368663 0 -0.119684)
(-0.0318953 0 -0.142875)
(-0.0272139 0 -0.169191)
(-0.0229425 0 -0.197002)
(-0.0190678 0 -0.223382)
(-0.0153779 0 -0.243682)
(-0.0114321 0 -0.251112)
(-0.0065701 0 -0.236683)
(-8.64268e-05 0 -0.190159)
(0.0083793 0 -0.103018)
(0.0184572 0 0.0261355)
(0.0286269 0 0.184939)
(0.0365532 0 0.343779)
(0.0396983 0 0.471675)
(0.034228 0 0.521156)
(0.0209828 0 0.492188)
(0.00287647 0 0.438705)
(-0.0170676 0 0.408905)
(-0.0349525 0 0.404046)
(-0.0485538 0 0.402275)
(-0.0589035 0 0.405594)
(-0.0686599 0 0.436403)
(-0.0786629 0 0.494579)
(-0.0871915 0 0.545758)
(-0.0923442 0 0.557417)
(-0.0939878 0 0.532418)
(-0.0937645 0 0.501429)
(-0.0936063 0 0.488242)
(-0.0939742 0 0.48744)
(-0.0938841 0 0.476145)
(-0.0928336 0 0.44508)
(-0.0920548 0 0.414755)
(-0.0932642 0 0.41758)
(-0.0579187 0 -0.0205241)
(-0.0583114 0 -0.0262196)
(-0.0585198 0 -0.0318205)
(-0.0586216 0 -0.0366124)
(-0.0585216 0 -0.0404163)
(-0.0581723 0 -0.0433497)
(-0.0575398 0 -0.0456956)
(-0.0565918 0 -0.0477667)
(-0.0552907 0 -0.0498531)
(-0.0535921 0 -0.0522298)
(-0.0514482 0 -0.0551849)
(-0.048814 0 -0.0590496)
(-0.045658 0 -0.06422)
(-0.0419725 0 -0.0711646)
(-0.0377861 0 -0.0804101)
(-0.0331731 0 -0.092499)
(-0.028258 0 -0.107912)
(-0.0232115 0 -0.126946)
(-0.0182347 0 -0.149549)
(-0.0135285 0 -0.175093)
(-0.00924978 0 -0.202084)
(-0.00545814 0 -0.227782)
(-0.00205415 0 -0.247751)
(0.0012556 0 -0.255393)
(0.00496615 0 -0.24179)
(0.00965498 0 -0.196526)
(0.0156637 0 -0.110537)
(0.022757 0 0.0183433)
(0.0297801 0 0.17842)
(0.0349299 0 0.340273)
(0.0362391 0 0.47276)
(0.0305765 0 0.527253)
(0.0183833 0 0.502236)
(0.00153111 0 0.451068)
(-0.017482 0 0.421271)
(-0.0346641 0 0.414337)
(-0.0476118 0 0.410075)
(-0.0574475 0 0.412171)
(-0.0669838 0 0.442929)
(-0.0769384 0 0.5007)
(-0.0852586 0 0.550191)
(-0.0898574 0 0.55948)
(-0.0907682 0 0.532692)
(-0.089995 0 0.501174)
(-0.0896364 0 0.488245)
(-0.0899558 0 0.487473)
(-0.0897045 0 0.475685)
(-0.0883947 0 0.444417)
(-0.0875166 0 0.41491)
(-0.0889204 0 0.418882)
(-0.045695 0 -0.0197871)
(-0.045977 0 -0.0255463)
(-0.0461029 0 -0.0314429)
(-0.0461163 0 -0.036729)
(-0.0459243 0 -0.0411413)
(-0.0454774 0 -0.0447301)
(-0.0447422 0 -0.0477469)
(-0.04369 0 -0.050499)
(-0.0422886 0 -0.0532819)
(-0.0405004 0 -0.0563742)
(-0.0382842 0 -0.0600583)
(-0.0356007 0 -0.0646451)
(-0.0324207 0 -0.070496)
(-0.0287355 0 -0.0780314)
(-0.0245678 0 -0.0877214)
(-0.0199813 0 -0.100051)
(-0.0150873 0 -0.115452)
(-0.010044 0 -0.134198)
(-0.00504666 0 -0.156243)
(-0.00030586 0 -0.181013)
(0.00398622 0 -0.207115)
(0.00769913 0 -0.23196)
(0.0108168 0 -0.251291)
(0.0134799 0 -0.258694)
(0.0160079 0 -0.245352)
(0.0188374 0 -0.200757)
(0.0222885 0 -0.115444)
(0.0262701 0 0.0133704)
(0.0300054 0 0.174511)
(0.0322344 0 0.338668)
(0.0315874 0 0.474607)
(0.0257344 0 0.53303)
(0.0146981 0 0.511456)
(-0.000739799 0 0.462633)
(-0.0186281 0 0.433028)
(-0.0349488 0 0.424134)
(-0.0471772 0 0.417476)
(-0.0565383 0 0.418521)
(-0.0659396 0 0.449391)
(-0.0758925 0 0.506746)
(-0.0839782 0 0.554358)
(-0.0879567 0 0.561094)
(-0.0880925 0 0.532532)
(-0.086794 0 0.50068)
(-0.0863047 0 0.488188)
(-0.0866393 0 0.487456)
(-0.0862661 0 0.4751)
(-0.0847369 0 0.443651)
(-0.0838292 0 0.415123)
(-0.0855328 0 0.420416)
(-0.0343438 0 -0.0192806)
(-0.0345214 0 -0.0251244)
(-0.0345618 0 -0.0313227)
(-0.0344839 0 -0.037104)
(-0.0341948 0 -0.0421265)
(-0.0336444 0 -0.0463724)
(-0.0328 0 -0.0500575)
(-0.0316348 0 -0.0534791)
(-0.0301209 0 -0.0569354)
(-0.0282259 0 -0.0607088)
(-0.0259146 0 -0.065078)
(-0.0231526 0 -0.0703391)
(-0.0199133 0 -0.0768247)
(-0.0161876 0 -0.0849142)
(-0.0119938 0 -0.0950268)
(-0.00738753 0 -0.107595)
(-0.00246844 0 -0.123001)
(0.00261574 0 -0.141484)
(0.00767419 0 -0.162993)
(0.0124858 0 -0.18698)
(0.0168224 0 -0.212119)
(0.0204821 0 -0.235931)
(0.023332 0 -0.254307)
(0.025354 0 -0.261)
(0.0266851 0 -0.247329)
(0.0276108 0 -0.202779)
(0.0284228 0 -0.11764)
(0.0291852 0 0.011325)
(0.0295213 0 0.173316)
(0.028726 0 0.339053)
(0.0260342 0 0.477255)
(0.0199737 0 0.538467)
(0.0101337 0 0.519789)
(-0.00380165 0 0.4733)
(-0.0204277 0 0.444074)
(-0.0357704 0 0.433372)
(-0.0472459 0 0.424477)
(-0.0561905 0 0.424688)
(-0.0655375 0 0.455828)
(-0.0755117 0 0.512716)
(-0.0833139 0 0.558222)
(-0.0866008 0 0.562224)
(-0.0859356 0 0.531935)
(-0.0841562 0 0.499984)
(-0.0836106 0 0.488116)
(-0.0840116 0 0.487421)
(-0.0835395 0 0.474412)
(-0.0818207 0 0.442815)
(-0.0809463 0 0.415451)
(-0.0830402 0 0.422256)
(-0.024009 0 -0.0190164)
(-0.0240878 0 -0.024967)
(-0.0240414 0 -0.0314748)
(-0.0238641 0 -0.0377546)
(-0.0234664 0 -0.0433913)
(-0.0227997 0 -0.0482987)
(-0.0218318 0 -0.0526531)
(-0.0205372 0 -0.0567384)
(-0.0188909 0 -0.0608529)
(-0.0168649 0 -0.0652823)
(-0.0144284 0 -0.0703036)
(-0.0115509 0 -0.0762013)
(-0.00820841 0 -0.0832846)
(-0.00439077 0 -0.0918975)
(-0.000114049 0 -0.102415)
(0.00457338 0 -0.115218)
(0.00958232 0 -0.130642)
(0.0147723 0 -0.148884)
(0.0199539 0 -0.16987)
(0.024893 0 -0.193053)
(0.0293244 0 -0.217143)
(0.0329734 0 -0.239732)
(0.0355886 0 -0.256823)
(0.0369883 0 -0.262318)
(0.0371207 0 -0.247698)
(0.0361122 0 -0.20254)
(0.0342207 0 -0.117046)
(0.031677 0 0.0122937)
(0.0285301 0 0.174911)
(0.0246447 0 0.341491)
(0.0198567 0 0.480737)
(0.0135602 0 0.543568)
(0.00490162 0 0.527217)
(-0.00750421 0 0.483016)
(-0.0227888 0 0.454342)
(-0.0370813 0 0.442015)
(-0.0478032 0 0.431095)
(-0.0564034 0 0.43072)
(-0.0657654 0 0.462271)
(-0.0757571 0 0.518593)
(-0.0832056 0 0.56174)
(-0.0857307 0 0.562841)
(-0.0842597 0 0.530915)
(-0.0820655 0 0.49913)
(-0.0815406 0 0.488068)
(-0.0820447 0 0.487386)
(-0.0814807 0 0.473634)
(-0.0795941 0 0.441939)
(-0.07881 0 0.41594)
(-0.0813685 0 0.424461)
(-0.0147959 0 -0.0189443)
(-0.0147997 0 -0.0250596)
(-0.0146672 0 -0.0319185)
(-0.0143766 0 -0.0387176)
(-0.0138509 0 -0.04498)
(-0.0130462 0 -0.0505559)
(-0.0119311 0 -0.0555827)
(-0.0104814 0 -0.0603294)
(-0.00867435 0 -0.0650928)
(-0.00648465 0 -0.0701611)
(-0.00388466 0 -0.0758108)
(-0.000846695 0 -0.0823176)
(0.00265178 0 -0.0899714)
(0.00662105 0 -0.0990857)
(0.0110495 0 -0.109996)
(0.0158943 0 -0.123035)
(0.0210716 0 -0.138486)
(0.0264466 0 -0.156501)
(0.031828 0 -0.176966)
(0.0369662 0 -0.199315)
(0.0415558 0 -0.222257)
(0.0452464 0 -0.243418)
(0.0476651 0 -0.258875)
(0.0484632 0 -0.262662)
(0.0473962 0 -0.246449)
(0.0444276 0 -0.200001)
(0.0397797 0 -0.113599)
(0.0338618 0 0.0163425)
(0.027176 0 0.179345)
(0.0201742 0 0.34601)
(0.013282 0 0.485072)
(0.00672399 0 0.548363)
(-0.000801499 0 0.533748)
(-0.0116985 0 0.491765)
(-0.0256155 0 0.463798)
(-0.0388277 0 0.45005)
(-0.0488241 0 0.43736)
(-0.0571595 0 0.436665)
(-0.0665883 0 0.468733)
(-0.076565 0 0.524344)
(-0.0835724 0 0.564862)
(-0.0852736 0 0.562924)
(-0.0830182 0 0.529501)
(-0.0804958 0 0.498169)
(-0.0800676 0 0.488081)
(-0.0806955 0 0.48736)
(-0.0800323 0 0.472772)
(-0.0779948 0 0.441045)
(-0.0773523 0 0.416632)
(-0.0804325 0 0.427074)
(-0.00681212 0 -0.0189943)
(-0.00674989 0 -0.0253695)
(-0.00652393 0 -0.0326737)
(-0.00610306 0 -0.0400469)
(-0.00542583 0 -0.0469597)
(-0.00445469 0 -0.0532146)
(-0.00316146 0 -0.058918)
(-0.00152372 0 -0.0643255)
(0.000480093 0 -0.0697323)
(0.00287354 0 -0.0754287)
(0.00568265 0 -0.0816916)
(0.00893388 0 -0.08879)
(0.0126495 0 -0.096998)
(0.0168405 0 -0.106602)
(0.0214983 0 -0.117899)
(0.026584 0 -0.131176)
(0.0320177 0 -0.146664)
(0.0376665 0 -0.164458)
(0.0433341 0 -0.184394)
(0.0487507 0 -0.205861)
(0.0535663 0 -0.227537)
(0.0573494 0 -0.247043)
(0.0596015 0 -0.260495)
(0.0598045 0 -0.262041)
(0.0575222 0 -0.243567)
(0.0525585 0 -0.195124)
(0.0451039 0 -0.107249)
(0.0357603 0 0.0235177)
(0.0255081 0 0.18664)
(0.0154123 0 0.352607)
(0.00646145 0 0.490257)
(-0.000359683 0 0.55288)
(-0.00680931 0 0.539415)
(-0.0162528 0 0.49956)
(-0.0288165 0 0.472436)
(-0.0409538 0 0.457488)
(-0.0502753 0 0.443314)
(-0.0584246 0 0.442563)
(-0.0679485 0 0.475214)
(-0.0778496 0 0.52992)
(-0.0843176 0 0.567537)
(-0.0851477 0 0.562467)
(-0.0821579 0 0.527736)
(-0.0794118 0 0.49716)
(-0.0791511 0 0.488182)
(-0.0799064 0 0.487344)
(-0.0791253 0 0.471826)
(-0.0769509 0 0.440157)
(-0.0764968 0 0.41756)
(-0.0801364 0 0.430121)
(-0.000151469 0 -0.0191959)
(3.59334e-06 0 -0.0259218)
(0.000342552 0 -0.0337807)
(0.000912462 0 -0.0418038)
(0.00176674 0 -0.0494052)
(0.00293523 0 -0.0563561)
(0.00444104 0 -0.0627436)
(0.00630455 0 -0.0688144)
(0.00854659 0 -0.0748631)
(0.0111901 0 -0.0811833)
(0.0142609 0 -0.0880531)
(0.0177851 0 -0.0957363)
(0.0217854 0 -0.104492)
(0.0262739 0 -0.114581)
(0.0312441 0 -0.126265)
(0.0366598 0 -0.139784)
(0.0424431 0 -0.155313)
(0.0484595 0 -0.172886)
(0.0545027 0 -0.192271)
(0.0602765 0 -0.212788)
(0.0653784 0 -0.233056)
(0.0692886 0 -0.250649)
(0.0713774 0 -0.261692)
(0.070958 0 -0.260438)
(0.0674103 0 -0.239015)
(0.0603912 0 -0.187864)
(0.0500737 0 -0.0979501)
(0.0372691 0 0.033845)
(0.0234588 0 0.196783)
(0.0103486 0 0.361228)
(-0.000540303 0 0.496262)
(-0.00758008 0 0.557129)
(-0.0130008 0 0.544262)
(-0.0210601 0 0.506435)
(-0.0323106 0 0.480275)
(-0.0434044 0 0.464354)
(-0.0521146 0 0.449002)
(-0.0601474 0 0.448446)
(-0.0697675 0 0.481693)
(-0.0795074 0 0.535263)
(-0.0853345 0 0.569719)
(-0.0852674 0 0.561478)
(-0.081622 0 0.52568)
(-0.0787693 0 0.496161)
(-0.0787369 0 0.488394)
(-0.0796065 0 0.487327)
(-0.0786804 0 0.470792)
(-0.0763835 0 0.439294)
(-0.0761587 0 0.418748)
(-0.0803747 0 0.43361)
(0.00510555 0 -0.0196608)
(0.00540674 0 -0.0268106)
(0.00589285 0 -0.035312)
(0.00663797 0 -0.0440582)
(0.00769892 0 -0.0523942)
(0.00909871 0 -0.0600664)
(0.0108552 0 -0.0671515)
(0.012987 0 -0.0738935)
(0.0155142 0 -0.0805893)
(0.0184599 0 -0.0875366)
(0.02185 0 -0.0950151)
(0.0257116 0 -0.103284)
(0.0300682 0 -0.112589)
(0.0349334 0 -0.123166)
(0.0403022 0 -0.135241)
(0.0461399 0 -0.149007)
(0.0523676 0 -0.164579)
(0.0588448 0 -0.18192)
(0.0653476 0 -0.200712)
(0.0715443 0 -0.220184)
(0.0769694 0 -0.23886)
(0.081005 0 -0.254241)
(0.0828863 0 -0.262432)
(0.0817623 0 -0.257786)
(0.0768462 0 -0.232718)
(0.0676735 0 -0.178152)
(0.0544259 0 -0.0856596)
(0.0381466 0 0.0473245)
(0.0208368 0 0.209721)
(0.00486685 0 0.371765)
(-0.00775378 0 0.503005)
(-0.0148965 0 0.561092)
(-0.0192983 0 0.548324)
(-0.02604 0 0.512431)
(-0.0360292 0 0.487343)
(-0.0461256 0 0.470687)
(-0.0542916 0 0.454468)
(-0.0622607 0 0.45433)
(-0.0719494 0 0.488133)
(-0.0814237 0 0.540305)
(-0.0865134 0 0.571369)
(-0.0855491 0 0.559985)
(-0.0813532 0 0.523405)
(-0.0785164 0 0.495232)
(-0.0787584 0 0.488726)
(-0.079713 0 0.487291)
(-0.0786109 0 0.469665)
(-0.0762077 0 0.438473)
(-0.0762457 0 0.420212)
(-0.0810312 0 0.437532)
(0.0089248 0 -0.020525)
(0.00941513 0 -0.028167)
(0.0100841 0 -0.0373713)
(0.011039 0 -0.0468999)
(0.0123438 0 -0.0560183)
(0.0140153 0 -0.064444)
(0.016067 0 -0.0722473)
(0.0185153 0 -0.0796739)
(0.0213799 0 -0.0870266)
(0.0246841 0 -0.0946095)
(0.0284552 0 -0.102705)
(0.0327216 0 -0.111567)
(0.0375087 0 -0.121429)
(0.0428317 0 -0.132503)
(0.0486864 0 -0.144978)
(0.0550372 0 -0.158995)
(0.0618 0 -0.174603)
(0.068821 0 -0.191681)
(0.0758491 0 -0.209809)
(0.0825048 0 -0.228098)
(0.0882464 0 -0.244949)
(0.0923478 0 -0.257761)
(0.0939072 0 -0.262608)
(0.0919222 0 -0.253954)
(0.085468 0 -0.224544)
(0.0739987 0 -0.165891)
(0.0577457 0 -0.0703408)
(0.0380101 0 0.0639202)
(0.0173322 0 0.225335)
(-0.00124738 0 0.38404)
(-0.0152868 0 0.510338)
(-0.0223245 0 0.564716)
(-0.0256671 0 0.551618)
(-0.0311374 0 0.517586)
(-0.0399159 0 0.493677)
(-0.049065 0 0.476523)
(-0.0567477 0 0.459748)
(-0.0646829 0 0.460217)
(-0.0743857 0 0.494483)
(-0.0834789 0 0.544979)
(-0.0877483 0 0.57246)
(-0.0859152 0 0.558032)
(-0.081295 0 0.520992)
(-0.0785935 0 0.494427)
(-0.0791375 0 0.48918)
(-0.0801342 0 0.487214)
(-0.0788247 0 0.468441)
(-0.0763342 0 0.437711)
(-0.0766578 0 0.421956)
(-0.0819801 0 0.44186)
(0.0112982 0 -0.0218436)
(0.011995 0 -0.0300799)
(0.0128782 0 -0.0400656)
(0.0140842 0 -0.0504417)
(0.0156789 0 -0.0603944)
(0.0176712 0 -0.0696092)
(0.0200697 0 -0.0781528)
(0.0228885 0 -0.0862789)
(0.0261466 0 -0.0943006)
(0.0298689 0 -0.102531)
(0.0340848 0 -0.111255)
(0.0388253 0 -0.120725)
(0.0441178 0 -0.131158)
(0.0499786 0 -0.142741)
(0.0564029 0 -0.155622)
(0.0633502 0 -0.169887)
(0.0707245 0 -0.185508)
(0.0783491 0 -0.202263)
(0.085933 0 -0.219611)
(0.0930332 0 -0.236519)
(0.0990175 0 -0.251242)
(0.103043 0 -0.261062)
(0.104076 0 -0.262021)
(0.100985 0 -0.248721)
(0.0927508 0 -0.214301)
(0.0788017 0 -0.150961)
(0.0594737 0 -0.0519731)
(0.0363524 0 0.0835444)
(0.0125373 0 0.243418)
(-0.00827708 0 0.39779)
(-0.0232981 0 0.518035)
(-0.0299193 0 0.567892)
(-0.0321027 0 0.554133)
(-0.0363168 0 0.521928)
(-0.0439235 0 0.499308)
(-0.0521698 0 0.4819)
(-0.0594158 0 0.464868)
(-0.0673215 0 0.466089)
(-0.0769612 0 0.50068)
(-0.0855556 0 0.54922)
(-0.088943 0 0.572984)
(-0.0862982 0 0.555677)
(-0.0813931 0 0.518523)
(-0.0789348 0 0.49379)
(-0.0797866 0 0.489744)
(-0.0807718 0 0.487069)
(-0.0792274 0 0.467115)
(-0.0766703 0 0.437019)
(-0.0772877 0 0.423969)
(-0.0830856 0 0.446545)
(0.01219 0 -0.0236378)
(0.013131 0 -0.032612)
(0.0142707 0 -0.0435042)
(0.0157738 0 -0.0548174)
(0.0177083 0 -0.0656626)
(0.0200743 0 -0.0757007)
(0.0228739 0 -0.0850039)
(0.0261184 0 -0.0938415)
(0.029827 0 -0.102543)
(0.0340269 0 -0.111434)
(0.0387508 0 -0.120802)
(0.0440326 0 -0.130896)
(0.0499016 0 -0.141916)
(0.0563738 0 -0.154018)
(0.06344 0 -0.167306)
(0.0710487 0 -0.181799)
(0.079083 0 -0.197378)
(0.0873299 0 -0.213705)
(0.0954424 0 -0.230093)
(0.102897 0 -0.245345)
(0.108958 0 -0.257554)
(0.112662 0 -0.26388)
(0.112857 0 -0.26036)
(0.108322 0 -0.241781)
(0.0980034 0 -0.201741)
(0.0813701 0 -0.133229)
(0.0589303 0 -0.0305739)
(0.0325767 0 0.10603)
(0.00598861 0 0.263656)
(-0.0165343 0 0.412647)
(-0.0319624 0 0.525789)
(-0.0377513 0 0.570455)
(-0.0386148 0 0.555825)
(-0.0415529 0 0.525467)
(-0.0480093 0 0.504259)
(-0.0553848 0 0.486842)
(-0.0622216 0 0.469837)
(-0.0700765 0 0.471915)
(-0.07956 0 0.506655)
(-0.0875455 0 0.552972)
(-0.0900157 0 0.572947)
(-0.0866424 0 0.552993)
(-0.0815961 0 0.516081)
(-0.0794693 0 0.493354)
(-0.080612 0 0.490397)
(-0.0815251 0 0.486828)
(-0.079724 0 0.465688)
(-0.077121 0 0.436405)
(-0.078021 0 0.426225)
(-0.0842032 0 0.451518)
(0.0116124 0 -0.0260636)
(0.0128739 0 -0.0359071)
(0.0143194 0 -0.0478205)
(0.0161609 0 -0.0601621)
(0.0184792 0 -0.0719596)
(0.0212658 0 -0.0828535)
(0.0245149 0 -0.0929319)
(0.0282347 0 -0.10249)
(0.0324455 0 -0.111882)
(0.0371772 0 -0.121445)
(0.0424661 0 -0.131474)
(0.0483486 0 -0.142208)
(0.0548545 0 -0.153828)
(0.0619959 0 -0.166452)
(0.0697533 0 -0.180129)
(0.078055 0 -0.194797)
(0.0867504 0 -0.210233)
(0.0955738 0 -0.225958)
(0.104103 0 -0.241122)
(0.111719 0 -0.254345)
(0.117572 0 -0.263556)
(0.120588 0 -0.265817)
(0.119526 0 -0.257199)
(0.11313 0 -0.232742)
(0.100383 0 -0.186582)
(0.0808777 0 -0.11258)
(0.0553592 0 -0.0062296)
(0.0260516 0 0.131099)
(-0.00277204 0 0.285596)
(-0.0263097 0 0.428119)
(-0.0414306 0 0.533206)
(-0.0458789 0 0.572186)
(-0.04521 0 0.556619)
(-0.046821 0 0.528195)
(-0.0521298 0 0.508544)
(-0.0586507 0 0.491364)
(-0.0650848 0 0.474651)
(-0.072845 0 0.477651)
(-0.0820718 0 0.512342)
(-0.089355 0 0.556194)
(-0.0909025 0 0.572375)
(-0.0869048 0 0.550059)
(-0.0818556 0 0.51374)
(-0.0801221 0 0.493133)
(-0.0815164 0 0.491109)
(-0.0822938 0 0.486465)
(-0.0802216 0 0.464161)
(-0.0775899 0 0.435869)
(-0.0787379 0 0.428683)
(-0.0851821 0 0.456689)
(0.00964982 0 -0.029328)
(0.0112947 0 -0.0401466)
(0.0130878 0 -0.0531537)
(0.0153066 0 -0.0665914)
(0.018049 0 -0.0793954)
(0.0212963 0 -0.0911774)
(0.0250353 0 -0.102047)
(0.0292721 0 -0.112335)
(0.0340279 0 -0.122425)
(0.0393357 0 -0.132674)
(0.0452346 0 -0.143379)
(0.0517624 0 -0.154765)