/*--------------------------------*- C++ -*----------------------------------*\
  =========                 |
  \\      /  F ield         | OpenFOAM: The Open Source CFD Toolbox
   \\    /   O peration     | Website:  https://openfoam.org
    \\  /    A nd           | Version:  9
     \\/     M anipulation  |
\*---------------------------------------------------------------------------*/
FoamFile
{
    format      ascii;
    class       surfaceVectorField;
    location    "0.14";
    object      Uf;
}
// * * * * * * * * * * * * * * * * * * * * * * * * * * * * * * * * * * * * * //

dimensions      [0 1 -1 0 0 0 0];

internalField   nonuniform List<vector> 
9850
(
(-0.199672 0 -0.0562899)
(-0.195423 0 -0.05313)
(-0.20095 0 -0.0585786)
(-0.197016 0 -0.0556888)
(-0.202326 0 -0.0594912)
(-0.198334 0 -0.0576003)
(-0.203761 0 -0.058212)
(-0.199682 0 -0.0574872)
(-0.205208 0 -0.0547486)
(-0.201047 0 -0.0551482)
(-0.206607 0 -0.0493323)
(-0.202369 0 -0.050818)
(-0.207876 0 -0.0421858)
(-0.203574 0 -0.0447414)
(-0.208919 0 -0.0335643)
(-0.204571 0 -0.0371366)
(-0.209618 0 -0.0238747)
(-0.205251 0 -0.028307)
(-0.209849 0 -0.0137755)
(-0.205495 0 -0.0187574)
(-0.209491 0 -0.00423162)
(-0.205184 0 -0.00927259)
(-0.208439 0 0.00349003)
(-0.204216 0 -0.000945306)
(-0.206626 0 0.00789877)
(-0.202519 0 0.00485874)
(-0.204028 0 0.00744455)
(-0.200071 0 0.00661485)
(-0.200676 0 0.000766352)
(-0.196908 0 0.00283946)
(-0.196644 0 -0.0129975)
(-0.19312 0 -0.00763334)
(-0.19202 0 -0.0338803)
(-0.18883 0 -0.0253307)
(-0.186862 0 -0.0607921)
(-0.184149 0 -0.0498239)
(-0.181131 0 -0.0913056)
(-0.179118 0 -0.0794665)
(-0.174633 0 -0.121547)
(-0.173635 0 -0.111222)
(-0.166965 0 -0.146208)
(-0.167384 0 -0.14059)
(-0.157523 0 -0.158722)
(-0.159809 0 -0.161651)
(-0.145582 0 -0.151758)
(-0.150131 0 -0.167307)
(-0.130505 0 -0.118272)
(-0.137489 0 -0.149928)
(-0.112076 0 -0.0533747)
(-0.121208 0 -0.102731)
(-0.0908604 0 0.0430497)
(-0.101227 0 -0.0221094)
(-0.0683874 0 0.163645)
(-0.078516 0 0.0893158)
(-0.0469 0 0.292078)
(-0.055158 0 0.220022)
(-0.0288258 0 0.403948)
(-0.0340051 0 0.348915)
(-0.0164388 0 0.47175)
(-0.0175605 0 0.447835)
(-0.0116593 0 0.476505)
(-0.00776252 0 0.49287)
(-0.0174203 0 0.415989)
(-0.00870354 0 0.460451)
(-0.0303023 0 0.336181)
(-0.0195181 0 0.377901)
(-0.0458176 0 0.286283)
(-0.0351129 0 0.30415)
(-0.0610103 0 0.279958)
(-0.0513298 0 0.278877)
(-0.0752596 0 0.293807)
(-0.0662886 0 0.29104)
(-0.089376 0 0.307331)
(-0.0803231 0 0.30613)
(-0.104245 0 0.330226)
(-0.0945876 0 0.318172)
(-0.119611 0 0.379901)
(-0.109686 0 0.352213)
(-0.133994 0 0.446254)
(-0.124701 0 0.417284)
(-0.145798 0 0.496228)
(-0.137804 0 0.483725)
(-0.154447 0 0.509055)
(-0.147719 0 0.515361)
(-0.160661 0 0.494663)
(-0.154561 0 0.507551)
(-0.165937 0 0.477573)
(-0.159609 0 0.485442)
(-0.171636 0 0.470275)
(-0.164505 0 0.473145)
(-0.17816 0 0.464397)
(-0.170276 0 0.471189)
(-0.184933 0 0.445172)
(-0.17668 0 0.461693)
(-0.191516 0 0.41315)
(-0.182768 0 0.432725)
(-0.198829 0 0.391153)
(-0.188638 0 0.397789)
(-0.196077 0 0.389843)
(-0.193152 0 -0.0524677)
(-0.188098 0 -0.0494398)
(-0.194372 0 -0.0546649)
(-0.189625 0 -0.0518947)
(-0.195649 0 -0.0555991)
(-0.19087 0 -0.053811)
(-0.196937 0 -0.0544796)
(-0.192098 0 -0.0538469)
(-0.198179 0 -0.0513216)
(-0.193294 0 -0.0517991)
(-0.199311 0 -0.046373)
(-0.194394 0 -0.047911)
(-0.200247 0 -0.0398751)
(-0.19532 0 -0.0424465)
(-0.200889 0 -0.0320918)
(-0.195978 0 -0.0356376)
(-0.201124 0 -0.0234198)
(-0.196261 0 -0.0277844)
(-0.200838 0 -0.0144835)
(-0.196057 0 -0.0193649)
(-0.19993 0 -0.006188)
(-0.19526 0 -0.0111102)
(-0.198328 0 0.000281715)
(-0.193787 0 -0.00403429)
(-0.196009 0 0.00352972)
(-0.1916 0 0.000594724)
(-0.193008 0 0.00209684)
(-0.188721 0 0.00135357)
(-0.18942 0 -0.00531299)
(-0.185235 0 -0.00315712)
(-0.185385 0 -0.0195464)
(-0.181289 0 -0.0140617)
(-0.181052 0 -0.0406914)
(-0.177062 0 -0.0319125)
(-0.176518 0 -0.0677918)
(-0.172714 0 -0.0563882)
(-0.171761 0 -0.0986247)
(-0.168317 0 -0.0860329)
(-0.166562 0 -0.129562)
(-0.163775 0 -0.118063)
(-0.160453 0 -0.155526)
(-0.158752 0 -0.148253)
(-0.152706 0 -0.170091)
(-0.152628 0 -0.170916)
(-0.142406 0 -0.165876)
(-0.144509 0 -0.179051)
(-0.128649 0 -0.135488)
(-0.133346 0 -0.16488)
(-0.110908 0 -0.0733555)
(-0.118201 0 -0.121114)
(-0.0894892 0 0.0215381)
(-0.0987044 0 -0.0432663)
(-0.0658929 0 0.142615)
(-0.075603 0 0.0670959)
(-0.0427187 0 0.273821)
(-0.0510307 0 0.199218)
(-0.0230342 0 0.390474)
(-0.0283283 0 0.332069)
(-0.00965471 0 0.46445)
(-0.010658 0 0.436919)
(-0.00464381 0 0.476834)
(-0.000345863 0 0.48953)
(-0.0108497 0 0.422374)
(-0.00160187 0 0.464588)
(-0.0244602 0 0.345876)
(-0.0131575 0 0.386975)
(-0.0407426 0 0.296747)
(-0.0295855 0 0.315005)
(-0.0566204 0 0.28996)
(-0.0465993 0 0.289462)
(-0.0713381 0 0.303363)
(-0.0621949 0 0.300851)
(-0.0855609 0 0.31697)
(-0.0765395 0 0.315612)
(-0.100118 0 0.340158)
(-0.0906684 0 0.327877)
(-0.114852 0 0.389594)
(-0.105229 0 0.362036)
(-0.128496 0 0.454753)
(-0.119504 0 0.42638)
(-0.139653 0 0.502855)
(-0.131898 0 0.491163)
(-0.147804 0 0.513855)
(-0.141268 0 0.520795)
(-0.153571 0 0.49833)
(-0.147686 0 0.511395)
(-0.158292 0 0.481016)
(-0.15227 0 0.488589)
(-0.163237 0 0.474065)
(-0.156529 0 0.476442)
(-0.16882 0 0.468493)
(-0.161458 0 0.474911)
(-0.174542 0 0.449262)
(-0.16687 0 0.465507)
(-0.180046 0 0.417409)
(-0.17191 0 0.436394)
(-0.186235 0 0.396556)
(-0.176692 0 0.401915)
(-0.182998 0 0.395597)
(-0.184948 0 -0.048808)
(-0.179179 0 -0.0458988)
(-0.186101 0 -0.0509951)
(-0.180629 0 -0.0483054)
(-0.187281 0 -0.0520582)
(-0.181797 0 -0.0503134)
(-0.188429 0 -0.0512158)
(-0.18291 0 -0.0506005)
(-0.189486 0 -0.0484822)
(-0.183953 0 -0.0489492)
(-0.190383 0 -0.0441162)
(-0.184858 0 -0.045605)
(-0.191036 0 -0.0383732)
(-0.185545 0 -0.040847)
(-0.191345 0 -0.0315196)
(-0.185924 0 -0.0349169)
(-0.191201 0 -0.0239327)
(-0.185888 0 -0.0281058)
(-0.190497 0 -0.0161912)
(-0.185329 0 -0.0208573)
(-0.189148 0 -0.00912806)
(-0.184151 0 -0.0138398)
(-0.187104 0 -0.00383434)
(-0.182286 0 -0.00797865)
(-0.184368 0 -0.00160185)
(-0.179713 0 -0.00443639)
(-0.181012 0 -0.00379458)
(-0.176478 0 -0.00452892)
(-0.177175 0 -0.0116468)
(-0.1727 0 -0.00956989)
(-0.173042 0 -0.0260023)
(-0.168558 0 -0.0206463)
(-0.168806 0 -0.0470249)
(-0.164269 0 -0.0383463)
(-0.164604 0 -0.0739208)
(-0.16003 0 -0.0624726)
(-0.160439 0 -0.104705)
(-0.155948 0 -0.0917811)
(-0.156105 0 -0.136032)
(-0.151954 0 -0.123767)
(-0.151116 0 -0.163099)
(-0.147727 0 -0.154512)
(-0.144691 0 -0.179675)
(-0.142639 0 -0.1786)
(-0.135802 0 -0.178384)
(-0.135751 0 -0.189185)
(-0.123357 0 -0.151535)
(-0.125902 0 -0.178406)
(-0.106562 0 -0.0928609)
(-0.111966 0 -0.138517)
(-0.085445 0 -0.000314661)
(-0.0933065 0 -0.0641248)
(-0.0613645 0 0.120576)
(-0.0704024 0 0.0444199)
(-0.0371045 0 0.254325)
(-0.0452938 0 0.177439)
(-0.0162543 0 0.376039)
(-0.0216142 0 0.314225)
(-0.00217662 0 0.456728)
(-0.00310772 0 0.425434)
(0.00285556 0 0.477301)
(0.00747441 0 0.486175)
(-0.00396094 0 0.429202)
(0.0057508 0 0.469133)
(-0.0184149 0 0.356112)
(-0.00664465 0 0.396611)
(-0.0355589 0 0.307726)
(-0.0239782 0 0.326434)
(-0.0521859 0 0.300359)
(-0.0418511 0 0.300547)
(-0.0673823 0 0.313105)
(-0.0581112 0 0.310982)
(-0.0816723 0 0.326523)
(-0.0727382 0 0.325138)
(-0.0958683 0 0.34976)
(-0.086675 0 0.337341)
(-0.109956 0 0.398827)
(-0.100665 0 0.371428)
(-0.12289 0 0.462796)
(-0.11422 0 0.435003)
(-0.133441 0 0.509108)
(-0.125954 0 0.498197)
(-0.141121 0 0.518341)
(-0.134817 0 0.525915)
(-0.146447 0 0.501661)
(-0.140821 0 0.514945)
(-0.15062 0 0.484023)
(-0.144941 0 0.491372)
(-0.154837 0 0.477297)
(-0.148581 0 0.479253)
(-0.159522 0 0.471936)
(-0.15271 0 0.478034)
(-0.164246 0 0.452653)
(-0.157184 0 0.468657)
(-0.168725 0 0.420924)
(-0.161241 0 0.43938)
(-0.173826 0 0.401004)
(-0.165016 0 0.405316)
(-0.170212 0 0.400359)
(-0.175225 0 -0.0453391)
(-0.168854 0 -0.0425311)
(-0.176308 0 -0.0475759)
(-0.170215 0 -0.0449338)
(-0.177392 0 -0.0488492)
(-0.171304 0 -0.0471001)
(-0.178412 0 -0.048374)
(-0.172309 0 -0.0477158)
(-0.179306 0 -0.0461529)
(-0.173214 0 -0.0465383)
(-0.180006 0 -0.0424507)
(-0.17395 0 -0.0438087)
(-0.180426 0 -0.0375339)
(-0.17444 0 -0.039818)
(-0.180469 0 -0.0316677)
(-0.174594 0 -0.0348158)
(-0.18003 0 -0.0252058)
(-0.174311 0 -0.0290821)
(-0.17901 0 -0.0186758)
(-0.173486 0 -0.023023)
(-0.177329 0 -0.0128327)
(-0.172028 0 -0.0172412)
(-0.174948 0 -0.00866747)
(-0.169876 0 -0.0125704)
(-0.171888 0 -0.00736303)
(-0.167019 0 -0.0100641)
(-0.168238 0 -0.010185)
(-0.163512 0 -0.0109282)
(-0.164158 0 -0.0183054)
(-0.159485 0 -0.0163884)
(-0.15986 0 -0.0325673)
(-0.155135 0 -0.0274929)
(-0.155568 0 -0.0532167)
(-0.1507 0 -0.0448648)
(-0.151453 0 -0.0796314)
(-0.146403 0 -0.0684322)
(-0.147552 0 -0.110077)
(-0.142384 0 -0.0971656)
(-0.143691 0 -0.141511)
(-0.138613 0 -0.128847)
(-0.139412 0 -0.169436)
(-0.134811 0 -0.15988)
(-0.133934 0 -0.187855)
(-0.130382 0 -0.185152)
(-0.126187 0 -0.189463)
(-0.124398 0 -0.198018)
(-0.114966 0 -0.166335)
(-0.115659 0 -0.190601)
(-0.0992804 0 -0.111548)
(-0.102925 0 -0.154769)
(-0.0788967 0 -0.021969)
(-0.0853541 0 -0.0842596)
(-0.0549578 0 0.0981234)
(-0.0631625 0 0.0218773)
(-0.0302661 0 0.234091)
(-0.0381918 0 0.155273)
(-0.00876894 0 0.360981)
(-0.0141645 0 0.295827)
(0.00568983 0 0.448787)
(0.0047317 0 0.413637)
(0.010531 0 0.478023)
(0.0153332 0 0.482947)
(0.00301057 0 0.436551)
(0.0130516 0 0.474146)
(-0.012337 0 0.366941)
(-0.00020591 0 0.406842)
(-0.030383 0 0.319261)
(-0.0184473 0 0.338465)
(-0.0477877 0 0.311175)
(-0.0371899 0 0.31215)
(-0.0634532 0 0.32302)
(-0.0541104 0 0.321426)
(-0.0777655 0 0.33596)
(-0.0689772 0 0.33468)
(-0.0915595 0 0.359013)
(-0.0826664 0 0.346537)
(-0.105003 0 0.407608)
(-0.0960682 0 0.38039)
(-0.117267 0 0.470409)
(-0.108939 0 0.443179)
(-0.127259 0 0.515009)
(-0.120071 0 0.504858)
(-0.134489 0 0.522525)
(-0.128461 0 0.530734)
(-0.139375 0 0.504663)
(-0.134053 0 0.518203)
(-0.143011 0 0.486611)
(-0.137707 0 0.493796)
(-0.146534 0 0.480002)
(-0.140753 0 0.481602)
(-0.150378 0 0.47477)
(-0.144137 0 0.480597)
(-0.154171 0 0.455401)
(-0.14774 0 0.471185)
(-0.157689 0 0.423785)
(-0.150885 0 0.441725)
(-0.161769 0 0.404687)
(-0.153749 0 0.408037)
(-0.157934 0 0.404247)
(-0.164191 0 -0.0420665)
(-0.157336 0 -0.0393822)
(-0.165199 0 -0.0444053)
(-0.158596 0 -0.0417972)
(-0.166189 0 -0.0459518)
(-0.159608 0 -0.0441638)
(-0.167092 0 -0.0459086)
(-0.160512 0 -0.0451623)
(-0.167844 0 -0.0442601)
(-0.161293 0 -0.044512)
(-0.168376 0 -0.0412725)
(-0.161884 0 -0.0424416)
(-0.168607 0 -0.037221)
(-0.162209 0 -0.0392506)
(-0.168445 0 -0.0323691)
(-0.162184 0 -0.0351959)
(-0.167787 0 -0.0270463)
(-0.161713 0 -0.0305472)
(-0.166537 0 -0.0217288)
(-0.160694 0 -0.0256743)
(-0.164622 0 -0.0170927)
(-0.159042 0 -0.0211161)
(-0.162007 0 -0.0140289)
(-0.156697 0 -0.017616)
(-0.158713 0 -0.0136101)
(-0.153648 0 -0.0161201)
(-0.154837 0 -0.017002)
(-0.14995 0 -0.0177243)
(-0.150543 0 -0.0253107)
(-0.145733 0 -0.0235644)
(-0.146054 0 -0.0393746)
(-0.141194 0 -0.0346444)
(-0.14161 0 -0.0595158)
(-0.136577 0 -0.0516143)
(-0.137408 0 -0.085278)
(-0.132121 0 -0.0745164)
(-0.133525 0 -0.115176)
(-0.127996 0 -0.102526)
(-0.129833 0 -0.146473)
(-0.124216 0 -0.133706)
(-0.125924 0 -0.174992)
(-0.120557 0 -0.164783)
(-0.121061 0 -0.195009)
(-0.116485 0 -0.190968)
(-0.114189 0 -0.199338)
(-0.11112 0 -0.205854)
(-0.104061 0 -0.179897)
(-0.103285 0 -0.201609)
(-0.0895616 0 -0.12917)
(-0.0916948 0 -0.169793)
(-0.0702449 0 -0.0429513)
(-0.0753737 0 -0.10334)
(-0.0470103 0 0.0758413)
(-0.0543116 0 -2.12853e-06)
(-0.022541 0 0.213657)
(-0.0300956 0 0.133306)
(-0.000961468 0 0.345677)
(-0.00636517 0 0.277359)
(0.0135191 0 0.440833)
(0.0124467 0 0.401823)
(0.0180073 0 0.479081)
(0.0228148 0 0.479955)
(0.00977624 0 0.444446)
(0.0199428 0 0.479634)
(-0.00643905 0 0.378372)
(0.00589492 0 0.417653)
(-0.0253586 0 0.331358)
(-0.0131767 0 0.351078)
(-0.0435225 0 0.322404)
(-0.0327375 0 0.324259)
(-0.0596206 0 0.333088)
(-0.0502756 0 0.332158)
(-0.0739019 0 0.345257)
(-0.0653205 0 0.344201)
(-0.0872602 0 0.367914)
(-0.0787069 0 0.355442)
(-0.100076 0 0.415962)
(-0.0915164 0 0.388934)
(-0.111724 0 0.47763)
(-0.103755 0 0.450944)
(-0.121204 0 0.520587)
(-0.114347 0 0.511178)
(-0.127998 0 0.526417)
(-0.122295 0 0.535264)
(-0.132442 0 0.507343)
(-0.127469 0 0.521165)
(-0.135552 0 0.488798)
(-0.13065 0 0.495869)
(-0.138427 0 0.482213)
(-0.133132 0 0.483519)
(-0.141499 0 0.477034)
(-0.135841 0 0.482645)
(-0.144436 0 0.45754)
(-0.138654 0 0.473143)
(-0.147077 0 0.426015)
(-0.140965 0 0.443486)
(-0.150244 0 0.407644)
(-0.143019 0 0.410148)
(-0.146328 0 0.407375)
(-0.152068 0 -0.0390528)
(-0.144851 0 -0.0364597)
(-0.153 0 -0.0414978)
(-0.14602 0 -0.0388971)
(-0.153902 0 -0.0433494)
(-0.146962 0 -0.0414906)
(-0.154698 0 -0.0437809)
(-0.147771 0 -0.0429115)
(-0.155323 0 -0.0427434)
(-0.148436 0 -0.0428269)
(-0.155712 0 -0.0404971)
(-0.148894 0 -0.0414426)
(-0.155788 0 -0.0373242)
(-0.149076 0 -0.0390628)
(-0.155465 0 -0.0334872)
(-0.148903 0 -0.0359519)
(-0.154645 0 -0.0292941)
(-0.148285 0 -0.0323723)
(-0.153237 0 -0.025173)
(-0.147128 0 -0.0286623)
(-0.151169 0 -0.0217254)
(-0.145346 0 -0.0253016)
(-0.148403 0 -0.019745)
(-0.142882 0 -0.0229497)
(-0.144961 0 -0.0201976)
(-0.13972 0 -0.0224499)
(-0.14093 0 -0.0241483)
(-0.135907 0 -0.0247913)
(-0.13647 0 -0.0326337)
(-0.131563 0 -0.0310181)
(-0.1318 0 -0.0464781)
(-0.126876 0 -0.0420837)
(-0.127167 0 -0.0660665)
(-0.122084 0 -0.0586521)
(-0.122784 0 -0.0910936)
(-0.117433 0 -0.0808624)
(-0.118764 0 -0.120309)
(-0.113115 0 -0.108075)
(-0.115033 0 -0.151273)
(-0.109187 0 -0.138616)
(-0.111249 0 -0.180134)
(-0.105488 0 -0.169531)
(-0.106744 0 -0.201462)
(-0.10156 0 -0.196355)
(-0.100519 0 -0.208236)
(-0.0966018 0 -0.212952)
(-0.0913458 0 -0.192279)
(-0.0894973 0 -0.211579)
(-0.0780534 0 -0.145567)
(-0.0789773 0 -0.183566)
(-0.0600443 0 -0.0628772)
(-0.0640004 0 -0.12113)
(-0.0379845 0 0.0542629)
(-0.0443856 0 -0.0207752)
(-0.0143455 0 0.193555)
(-0.0214527 0 0.112085)
(0.00676112 0 0.330526)
(0.00136724 0 0.259296)
(0.020896 0 0.433084)
(0.0196115 0 0.390291)
(0.0248799 0 0.480513)
(0.0294965 0 0.477299)
(0.0160064 0 0.452846)
(0.0260481 0 0.485549)
(-0.000952149 0 0.390363)
(0.0113753 0 0.428958)
(-0.0206477 0 0.343983)
(-0.0083633 0 0.364208)
(-0.0394987 0 0.334015)
(-0.0286265 0 0.336826)
(-0.0559616 0 0.343272)
(-0.0466952 0 0.343133)
(-0.0701484 0 0.354386)
(-0.0618363 0 0.353659)
(-0.0830446 0 0.376462)
(-0.0748658 0 0.36404)
(-0.0952632 0 0.423917)
(-0.0870923 0 0.397079)
(-0.106358 0 0.484494)
(-0.0987625 0 0.458341)
(-0.115372 0 0.525859)
(-0.108883 0 0.517188)
(-0.121739 0 0.530018)
(-0.116412 0 0.539508)
(-0.125731 0 0.509701)
(-0.121151 0 0.523827)
(-0.128327 0 0.490603)
(-0.12385 0 0.497599)
(-0.130607 0 0.48397)
(-0.125803 0 0.485039)
(-0.132988 0 0.47878)
(-0.127915 0 0.484232)
(-0.135157 0 0.459126)
(-0.130029 0 0.47459)
(-0.137015 0 0.427671)
(-0.131593 0 0.444725)
(-0.139388 0 0.409946)
(-0.132938 0 0.411731)
(-0.135515 0 0.409855)
(-0.139114 0 -0.0362316)
(-0.13162 0 -0.0337177)
(-0.139986 0 -0.0388202)
(-0.132794 0 -0.0361824)
(-0.140804 0 -0.0410161)
(-0.133681 0 -0.039065)
(-0.141496 0 -0.0419593)
(-0.13438 0 -0.0409556)
(-0.142 0 -0.0415603)
(-0.134919 0 -0.041468)
(-0.142256 0 -0.0400671)
(-0.135243 0 -0.0407837)
(-0.142196 0 -0.0377673)
(-0.135287 0 -0.0392097)
(-0.141739 0 -0.0349253)
(-0.134979 0 -0.0370198)
(-0.140795 0 -0.0318321)
(-0.134238 0 -0.0344734)
(-0.139278 0 -0.0288742)
(-0.132974 0 -0.0318836)
(-0.137114 0 -0.0265851)
(-0.131106 0 -0.0296791)
(-0.134266 0 -0.0256692)
(-0.128575 0 -0.0284431)
(-0.130745 0 -0.0269899)
(-0.12536 0 -0.0289243)
(-0.126628 0 -0.031514)
(-0.121496 0 -0.0320096)
(-0.12206 0 -0.0402048)
(-0.117087 0 -0.0386527)
(-0.117248 0 -0.0538623)
(-0.112305 0 -0.0497495)
(-0.112434 0 -0.0729171)
(-0.107376 0 -0.0659637)
(-0.107843 0 -0.0971929)
(-0.102543 0 -0.0875097)
(-0.103617 0 -0.125652)
(-0.0980127 0 -0.113908)
(-0.0997339 0 -0.156136)
(-0.0938813 0 -0.143726)
(-0.0959241 0 -0.185114)
(-0.0900489 0 -0.17431)
(-0.0916062 0 -0.207455)
(-0.0861412 0 -0.201519)
(-0.0858657 0 -0.21634)
(-0.0814537 0 -0.219496)
(-0.0775348 0 -0.203554)
(-0.0749606 0 -0.220634)
(-0.0654458 0 -0.160644)
(-0.0654527 0 -0.196092)
(-0.0489126 0 -0.081453)
(-0.0518793 0 -0.137461)
(-0.0284026 0 0.0338455)
(-0.0339473 0 -0.040089)
(-0.00613135 0 0.174285)
(-0.0127319 0 0.0920918)
(0.0139597 0 0.315914)
(0.00863153 0 0.242102)
(0.0273996 0 0.42574)
(0.0258366 0 0.379326)
(0.0307589 0 0.482333)
(0.0349937 0 0.47506)
(0.0213638 0 0.461665)
(0.0310172 0 0.491813)
(0.00386822 0 0.402807)
(0.0159594 0 0.440622)
(-0.0164203 0 0.357053)
(-0.00420198 0 0.377734)
(-0.0358289 0 0.345946)
(-0.0249897 0 0.349765)
(-0.0525561 0 0.353521)
(-0.0434584 0 0.354285)
(-0.0665756 0 0.363313)
(-0.0585942 0 0.363005)
(-0.0789904 0 0.384658)
(-0.0712147 0 0.372316)
(-0.0906549 0 0.431505)
(-0.0828807 0 0.404856)
(-0.101267 0 0.491037)
(-0.0940586 0 0.465416)
(-0.10986 0 0.530842)
(-0.103774 0 0.522916)
(-0.115798 0 0.533324)
(-0.110899 0 0.543467)
(-0.11932 0 0.511736)
(-0.115176 0 0.526175)
(-0.121414 0 0.49205)
(-0.117378 0 0.498995)
(-0.12316 0 0.485322)
(-0.118842 0 0.486202)
(-0.124938 0 0.480069)
(-0.12044 0 0.485418)
(-0.126432 0 0.460225)
(-0.121953 0 0.475586)
(-0.127605 0 0.428835)
(-0.122859 0 0.445506)
(-0.129308 0 0.411706)
(-0.123599 0 0.412867)
(-0.125595 0 0.411811)
(-0.125686 0 -0.03362)
(-0.118033 0 -0.0305061)
(-0.126514 0 -0.0363749)
(-0.119291 0 -0.0336077)
(-0.127226 0 -0.0389688)
(-0.120072 0 -0.0369528)
(-0.127791 0 -0.0404586)
(-0.120623 0 -0.0393577)
(-0.128158 0 -0.0407134)
(-0.121015 0 -0.040478)
(-0.128275 0 -0.039969)
(-0.12119 0 -0.0404854)
(-0.128078 0 -0.0385192)
(-0.121088 0 -0.039691)
(-0.127496 0 -0.0366331)
(-0.120645 0 -0.0383796)
(-0.126446 0 -0.0345909)
(-0.119788 0 -0.0368113)
(-0.124845 0 -0.032745)
(-0.118433 0 -0.0352809)
(-0.122623 0 -0.0315701)
(-0.116504 0 -0.0341743)
(-0.119738 0 -0.0316899)
(-0.113938 0 -0.0340083)
(-0.116192 0 -0.0338731)
(-0.11071 0 -0.0354456)
(-0.112046 0 -0.0389919)
(-0.106844 0 -0.0392783)
(-0.107427 0 -0.047934)
(-0.102424 0 -0.0463709)
(-0.102527 0 -0.0614647)
(-0.0976026 0 -0.057557)
(-0.097574 0 -0.0800422)
(-0.0925883 0 -0.0734862)
(-0.0927969 0 -0.103595)
(-0.0876165 0 -0.0944267)
(-0.0883603 0 -0.131271)
(-0.0829019 0 -0.120032)
(-0.0842894 0 -0.161171)
(-0.0785712 0 -0.149083)
(-0.080388 0 -0.19007)
(-0.0745829 0 -0.179204)
(-0.076168 0 -0.213139)
(-0.0706475 0 -0.206566)
(-0.0708177 0 -0.223777)
(-0.0661657 0 -0.225596)
(-0.0632602 0 -0.213779)
(-0.0602225 0 -0.228848)
(-0.0523753 0 -0.174338)
(-0.0517003 0 -0.20737)
(-0.0374422 0 -0.0984574)
(-0.0395824 0 -0.152211)
(-0.0187733 0 0.0149629)
(-0.0235123 0 -0.0576691)
(0.00168606 0 0.156291)
(-0.00436296 0 0.0737251)
(0.020274 0 0.302209)
(0.0150796 0 0.226194)
(0.0326721 0 0.418993)
(0.0308096 0 0.369211)
(0.0353058 0 0.48453)
(0.039 0 0.473304)
(0.0255547 0 0.470768)
(0.0345654 0 0.498314)
(0.00780845 0 0.41555)
(0.0194096 0 0.452453)
(-0.0128354 0 0.370447)
(-0.000868712 0 0.391496)
(-0.0326221 0 0.358105)
(-0.0219492 0 0.362957)
(-0.0494826 0 0.363769)
(-0.0406481 0 0.365525)
(-0.0632541 0 0.372008)
(-0.055661 0 0.372186)
(-0.0751765 0 0.392515)
(-0.0678255 0 0.380264)
(-0.0863414 0 0.438768)
(-0.0789665 0 0.412299)
(-0.096546 0 0.497298)
(-0.0897354 0 0.472219)
(-0.104754 0 0.535547)
(-0.0991091 0 0.528388)
(-0.110251 0 0.536326)
(-0.105832 0 0.547132)
(-0.113279 0 0.513446)
(-0.109611 0 0.528194)
(-0.114885 0 0.493164)
(-0.111299 0 0.500065)
(-0.11616 0 0.48632)
(-0.112316 0 0.487053)
(-0.117428 0 0.480963)
(-0.11349 0 0.486263)
(-0.118342 0 0.460903)
(-0.114498 0 0.476195)
(-0.118926 0 0.429586)
(-0.114835 0 0.445895)
(-0.120089 0 0.413034)
(-0.115073 0 0.413643)
(-0.116641 0 0.413373)
(-0.112115 0 -0.0304893)
(-0.104435 0 -0.0270212)
(-0.112862 0 -0.0341356)
(-0.105649 0 -0.0312836)
(-0.113432 0 -0.0373049)
(-0.106258 0 -0.0352629)
(-0.113838 0 -0.0393663)
(-0.106662 0 -0.0382091)
(-0.114045 0 -0.0402616)
(-0.106909 0 -0.0399192)
(-0.114007 0 -0.0402352)
(-0.106935 0 -0.040585)
(-0.113666 0 -0.0395895)
(-0.106688 0 -0.0405248)
(-0.112958 0 -0.0386006)
(-0.106115 0 -0.0400331)
(-0.111807 0 -0.0375424)
(-0.105147 0 -0.0393738)
(-0.110136 0 -0.0367406)
(-0.103709 0 -0.0388283)
(-0.107876 0 -0.0366199)
(-0.101729 0 -0.038748)
(-0.104981 0 -0.0377328)
(-0.0991474 0 -0.0395924)
(-0.101444 0 -0.040762)
(-0.0959316 0 -0.0419482)
(-0.0973133 0 -0.0464902)
(-0.0920944 0 -0.0465202)
(-0.092696 0 -0.0557287)
(-0.0877044 0 -0.0540875)
(-0.087762 0 -0.0691996)
(-0.082893 0 -0.0654179)
(-0.0827258 0 -0.0873717)
(-0.0778484 0 -0.0811353)
(-0.077812 0 -0.110254)
(-0.0727935 0 -0.101541)
(-0.0732014 0 -0.137152)
(-0.0679453 0 -0.126397)
(-0.0689605 0 -0.166399)
(-0.0634547 0 -0.154664)
(-0.0649629 0 -0.195052)
(-0.0593332 0 -0.184219)
(-0.0608164 0 -0.218578)
(-0.0553738 0 -0.211525)
(-0.0558229 0 -0.230604)
(-0.051087 0 -0.23129)
(-0.0490175 0 -0.222974)
(-0.0456817 0 -0.236244)
(-0.0393579 0 -0.186591)
(-0.0381541 0 -0.217379)
(-0.0261305 0 -0.113718)
(-0.0275527 0 -0.165277)
(-0.00953446 0 -0.00208549)
(-0.0134931 0 -0.0732972)
(0.00874293 0 0.139947)
(0.00331446 0 0.0573172)
(0.0254157 0 0.289746)
(0.0204516 0 0.211925)
(0.0364505 0 0.413022)
(0.034321 0 0.360208)
(0.0382705 0 0.487073)
(0.0413158 0 0.472091)
(0.0283531 0 0.479992)
(0.0365024 0 0.504925)
(0.010676 0 0.428397)
(0.0215541 0 0.464238)
(-0.0100316 0 0.384005)
(0.00149761 0 0.405302)
(-0.0299746 0 0.370376)
(-0.0196056 0 0.376252)
(-0.0468126 0 0.373941)
(-0.038335 0 0.376751)
(-0.0602517 0 0.380442)
(-0.0530974 0 0.381145)
(-0.0716806 0 0.400049)
(-0.0647671 0 0.387884)
(-0.0824104 0 0.445752)
(-0.0754321 0 0.419452)
(-0.0922809 0 0.503313)
(-0.0858792 0 0.478799)
(-0.100134 0 0.539979)
(-0.0949672 0 0.533623)
(-0.105167 0 0.539008)
(-0.101278 0 0.550487)
(-0.107671 0 0.514826)
(-0.104512 0 0.529863)
(-0.108801 0 0.493971)
(-0.105669 0 0.500818)
(-0.109673 0 0.487018)
(-0.106286 0 0.487634)
(-0.110525 0 0.481524)
(-0.107125 0 0.486831)
(-0.110948 0 0.461223)
(-0.107721 0 0.476477)
(-0.111039 0 0.429999)
(-0.107574 0 0.445956)
(-0.111791 0 0.41404)
(-0.10741 0 0.414144)
(-0.108702 0 0.414671)
(-0.0983779 0 -0.0276484)
(-0.0908998 0 -0.0241327)
(-0.0990115 0 -0.0322823)
(-0.0918625 0 -0.0293125)
(-0.0994593 0 -0.0360812)
(-0.0923135 0 -0.033935)
(-0.0997327 0 -0.038713)
(-0.0926171 0 -0.0374362)
(-0.0998014 0 -0.0402225)
(-0.0927487 0 -0.0397339)
(-0.0996237 0 -0.0408745)
(-0.0926495 0 -0.0410418)
(-0.0991511 0 -0.0409801)
(-0.0922776 0 -0.0416825)
(-0.0983261 0 -0.0408229)
(-0.0915863 0 -0.0419597)
(-0.097082 0 -0.0406742)
(-0.0905173 0 -0.0421437)
(-0.095348 0 -0.0408395)
(-0.0890047 0 -0.0425085)
(-0.0930593 0 -0.0417024)
(-0.0869816 0 -0.043379)
(-0.0901692 0 -0.0437538)
(-0.0843908 0 -0.0451672)
(-0.0866642 0 -0.0475994)
(-0.0811986 0 -0.0483935)
(-0.0825777 0 -0.0539387)
(-0.0774085 0 -0.0536841)
(-0.0779999 0 -0.0635078)
(-0.0730744 0 -0.0617379)
(-0.0730801 0 -0.0769798)
(-0.0683083 0 -0.0732561)
(-0.0680152 0 -0.0948191)
(-0.0632782 0 -0.0888281)
(-0.0630222 0 -0.117092)
(-0.0581923 0 -0.108771)
(-0.0582919 0 -0.143235)
(-0.0532652 0 -0.132926)
(-0.053926 0 -0.171781)
(-0.0486667 0 -0.160409)
(-0.0498634 0 -0.200045)
(-0.0444551 0 -0.189316)
(-0.0458077 0 -0.223773)
(-0.0405032 0 -0.216375)
(-0.0411804 0 -0.236825)
(-0.0364326 0 -0.236565)
(-0.0351444 0 -0.23112)
(-0.0315867 0 -0.242805)
(-0.026755 0 -0.197337)
(-0.02509 0 -0.226072)
(-0.0153366 0 -0.127088)
(-0.0160782 0 -0.176556)
(-0.00100495 0 -0.0170533)
(-0.00416574 0 -0.0867929)
(0.0147942 0 0.125563)
(0.010079 0 0.0431339)
(0.0292033 0 0.27881)
(0.024599 0 0.199593)
(0.0385893 0 0.40799)
(0.0362792 0 0.35255)
(0.0395155 0 0.489925)
(0.0418657 0 0.471473)
(0.0296242 0 0.489161)
(0.0367486 0 0.511519)
(0.0123443 0 0.441137)
(0.0223026 0 0.475758)
(-0.00811119 0 0.397545)
(0.00280879 0 0.418938)
(-0.0279618 0 0.382624)
(-0.0180291 0 0.389486)
(-0.0446062 0 0.383953)
(-0.0365726 0 0.387847)
(-0.0576302 0 0.388587)
(-0.0509552 0 0.389828)
(-0.0685764 0 0.407287)
(-0.0621034 0 0.395181)
(-0.0789432 0 0.452502)
(-0.0723538 0 0.426363)
(-0.0885495 0 0.509113)
(-0.0825662 0 0.485203)
(-0.0960639 0 0.544138)
(-0.0914121 0 0.538633)
(-0.1006 0 0.541351)
(-0.0972874 0 0.553511)
(-0.102546 0 0.515869)
(-0.0999242 0 0.53116)
(-0.103215 0 0.494499)
(-0.100535 0 0.501265)
(-0.103755 0 0.487469)
(-0.100803 0 0.487994)
(-0.10428 0 0.481812)
(-0.101394 0 0.487181)
(-0.104298 0 0.461245)
(-0.101664 0 0.47649)
(-0.103985 0 0.430146)
(-0.101109 0 0.445747)
(-0.104452 0 0.41483)
(-0.100637 0 0.414455)
(-0.101801 0 0.415832)
(-0.0846272 0 -0.0256626)
(-0.0774856 0 -0.0222652)
(-0.0851123 0 -0.0308444)
(-0.0781563 0 -0.0278034)
(-0.0854608 0 -0.0351935)
(-0.0784935 0 -0.0329013)
(-0.0856384 0 -0.0383898)
(-0.0787189 0 -0.036934)
(-0.085603 0 -0.0405123)
(-0.0787551 0 -0.0398294)
(-0.0853141 0 -0.0418278)
(-0.0785511 0 -0.0417841)
(-0.0847304 0 -0.0426511)
(-0.0780711 0 -0.0431124)
(-0.0838033 0 -0.0432737)
(-0.0772746 0 -0.044125)
(-0.0824755 0 -0.0439683)
(-0.0761126 0 -0.0450999)
(-0.0806847 0 -0.0450272)
(-0.0745282 0 -0.0463094)
(-0.0783716 0 -0.0468017)
(-0.0724622 0 -0.0480592)
(-0.0754911 0 -0.0497309)
(-0.0698618 0 -0.0507236)
(-0.0720253 0 -0.0543531)
(-0.0666928 0 -0.0547666)
(-0.0679974 0 -0.0612923)
(-0.0629529 0 -0.0607451)
(-0.0634819 0 -0.0712124)
(-0.0586841 0 -0.0692843)
(-0.0586088 0 -0.0847338)
(-0.0539812 0 -0.08102)
(-0.0535573 0 -0.102305)
(-0.0489935 0 -0.0965004)
(-0.0485345 0 -0.124029)
(-0.0439136 0 -0.116044)
(-0.043737 0 -0.149445)
(-0.0389513 0 -0.139548)
(-0.0392965 0 -0.177256)
(-0.034291 0 -0.166252)
(-0.0352124 0 -0.205004)
(-0.0300329 0 -0.19444)
(-0.0312828 0 -0.228692)
(-0.0261264 0 -0.221075)
(-0.0270532 0 -0.242408)
(-0.0223041 0 -0.241388)
(-0.0218207 0 -0.238172)
(-0.0180524 0 -0.248492)
(-0.01477 0 -0.206495)
(-0.0126367 0 -0.233377)
(-0.00526578 0 -0.138434)
(-0.00529611 0 -0.185944)
(0.00663364 0 -0.0297419)
(0.00433946 0 -0.0979983)
(0.0197198 0 0.113393)
(0.0158352 0 0.0313862)
(0.0315751 0 0.269648)
(0.0274912 0 0.189447)
(0.039068 0 0.404039)
(0.0367096 0 0.346437)
(0.0390249 0 0.493049)
(0.040698 0 0.471502)
(0.029335 0 0.498104)
(0.0353371 0 0.517979)
(0.0127589 0 0.453553)
(0.0216524 0 0.486808)
(-0.00713087 0 0.410874)
(0.00303477 0 0.432198)
(-0.0266321 0 0.394705)
(-0.0172534 0 0.402486)
(-0.0429084 0 0.39372)
(-0.0353935 0 0.398698)
(-0.0554433 0 0.396422)
(-0.0492745 0 0.398184)
(-0.0659303 0 0.414258)
(-0.0598907 0 0.402172)
(-0.0760113 0 0.459067)
(-0.0697988 0 0.433084)
(-0.0854148 0 0.514726)
(-0.0798586 0 0.491472)
(-0.0925937 0 0.548013)
(-0.0884899 0 0.543419)
(-0.0965892 0 0.54333)
(-0.093891 0 0.556175)
(-0.0979428 0 0.516569)
(-0.095875 0 0.532063)
(-0.0981721 0 0.494777)
(-0.0959306 0 0.501417)
(-0.0984488 0 0.487727)
(-0.0959046 0 0.488179)
(-0.0987311 0 0.481885)
(-0.0963335 0 0.487369)
(-0.0984219 0 0.461025)
(-0.0963517 0 0.476284)
(-0.0977863 0 0.430097)
(-0.0954561 0 0.445323)
(-0.098085 0 0.415508)
(-0.0947656 0 0.414654)
(-0.0959377 0 0.416976)
(-0.0711366 0 -0.024286)
(-0.0643697 0 -0.021031)
(-0.0714937 0 -0.0297483)
(-0.0648391 0 -0.0266924)
(-0.071751 0 -0.0345517)
(-0.0650882 0 -0.0321384)
(-0.071841 0 -0.0383085)
(-0.0652324 0 -0.0366795)
(-0.0717112 0 -0.0410569)
(-0.0651775 0 -0.0401793)
(-0.0713216 0 -0.0430382)
(-0.0648762 0 -0.0427854)
(-0.0706355 0 -0.0445626)
(-0.0642941 0 -0.0447932)
(-0.0696121 0 -0.0459282)
(-0.0633965 0 -0.0465151)
(-0.0682027 0 -0.0474124)
(-0.0621422 0 -0.0482376)
(-0.0663535 0 -0.0493)
(-0.0604828 0 -0.0502342)
(-0.0640114 0 -0.0519181)
(-0.0583666 0 -0.052798)
(-0.0611344 0 -0.0556635)
(-0.0557462 0 -0.0562733)
(-0.0577026 0 -0.0610167)
(-0.0525887 0 -0.0610773)
(-0.0537316 0 -0.0685342)
(-0.0488881 0 -0.0677065)
(-0.0492827 0 -0.0788125)
(-0.0446769 0 -0.0767193)
(-0.0444692 0 -0.0924177)
(-0.0400358 0 -0.0886888)
(-0.0394536 0 -0.109773)
(-0.0350972 0 -0.104118)
(-0.0344322 0 -0.131002)
(-0.0300389 0 -0.123314)
(-0.029605 0 -0.155719)
(-0.025065 0 -0.146212)
(-0.0251294 0 -0.182764)
(-0.0203712 0 -0.172142)
(-0.0210619 0 -0.209877)
(-0.0160961 0 -0.199542)
(-0.0172937 0 -0.233289)
(-0.012263 0 -0.225581)
(-0.0134984 0 -0.247308)
(-0.00871603 0 -0.245715)
(-0.00912042 0 -0.244069)
(-0.00508825 0 -0.25325)
(-0.00346832 0 -0.213977)
(-0.000801976 0 -0.239234)
(0.00401679 0 -0.14763)
(0.00478428 0 -0.193338)
(0.0133342 0 -0.0399844)
(0.0120215 0 -0.106772)
(0.0235162 0 0.10364)
(0.0206071 0 0.0222457)
(0.0325848 0 0.262461)
(0.0292035 0 0.181686)
(0.0379819 0 0.401292)
(0.0357416 0 0.342034)
(0.0368973 0 0.496415)
(0.0379687 0 0.472225)
(0.0275509 0 0.506672)
(0.0324022 0 0.52421)
(0.0119393 0 0.465446)
(0.019683 0 0.497216)
(-0.00709816 0 0.423805)
(0.00220379 0 0.44489)
(-0.0260039 0 0.406475)
(-0.0172748 0 0.41509)
(-0.0417469 0 0.40316)
(-0.0348083 0 0.409193)
(-0.0537339 0 0.403934)
(-0.0480828 0 0.406176)
(-0.0637995 0 0.420999)
(-0.0581755 0 0.408883)
(-0.0736729 0 0.465491)
(-0.0678219 0 0.439666)
(-0.082922 0 0.520168)
(-0.0778007 0 0.497638)
(-0.0897518 0 0.551587)
(-0.086225 0 0.547972)
(-0.093156 0 0.544917)
(-0.0911008 0 0.558445)
(-0.0938867 0 0.516924)
(-0.092378 0 0.53255)
(-0.0937028 0 0.494836)
(-0.0918798 0 0.501295)
(-0.0937871 0 0.487841)
(-0.0916214 0 0.488235)
(-0.0939026 0 0.481793)
(-0.091965 0 0.487446)
(-0.0933306 0 0.460613)
(-0.0917943 0 0.475903)
(-0.0924461 0 0.429917)
(-0.0906142 0 0.444733)
(-0.0926861 0 0.416167)
(-0.0897857 0 0.414814)
(-0.0910923 0 0.41821)
(-0.0581413 0 -0.0233038)
(-0.0518069 0 -0.0201553)
(-0.0584014 0 -0.0289531)
(-0.0521442 0 -0.0258833)
(-0.0585722 0 -0.0341592)
(-0.0523113 0 -0.031632)
(-0.0585752 0 -0.0384689)
(-0.0523689 0 -0.0366708)
(-0.0583528 0 -0.041848)
(-0.0522229 0 -0.0407788)
(-0.0578647 0 -0.0444947)
(-0.0518248 0 -0.0440398)
(-0.0570777 0 -0.0467064)
(-0.051141 0 -0.046721)
(-0.055957 0 -0.048785)
(-0.0501409 0 -0.0491326)
(-0.0544615 0 -0.0510131)
(-0.0487896 0 -0.0515672)
(-0.0525451 0 -0.053672)
(-0.0470463 0 -0.0543017)
(-0.0501613 0 -0.057071)
(-0.0448662 0 -0.0576213)