/*--------------------------------*- C++ -*----------------------------------*\
  =========                 |
  \\      /  F ield         | OpenFOAM: The Open Source CFD Toolbox
   \\    /   O peration     | Website:  https://openfoam.org
    \\  /    A nd           | Version:  9
     \\/     M anipulation  |
\*---------------------------------------------------------------------------*/
FoamFile
{
    format      ascii;
    class       volScalarField;
    location    "0.15";
    object      alpha.water;
}
// * * * * * * * * * * * * * * * * * * * * * * * * * * * * * * * * * * * * * //

dimensions      [0 0 0 0 0 0 0];

internalField   nonuniform List<scalar> 
5000
(
4.15173e-319
3.9632e-319
3.78276e-319
3.61024e-319
3.44512e-319
3.28712e-319
3.13574e-319
2.99088e-319
2.85204e-319
2.71914e-319
2.59187e-319
2.47023e-319
2.35403e-319
2.24326e-319
2.13753e-319
2.03713e-319
1.94148e-319
1.85057e-319
1.76421e-319
1.682e-319
1.60393e-319
1.52982e-319
1.45967e-319
1.39307e-319
1.32983e-319
1.26965e-319
1.21155e-319
1.15503e-319
1.10038e-319
1.04841e-319
8.57303e-320
8.575e-320
8.58093e-320
8.59081e-320
8.60366e-320
8.6165e-320
8.62836e-320
8.63824e-320
8.64615e-320
8.65109e-320
8.65405e-320
8.65603e-320
8.65801e-320
8.65998e-320
8.66196e-320
8.66591e-320
8.66986e-320
8.67382e-320
8.67876e-320
8.6837e-320
4.15163e-319
3.9631e-319
3.78267e-319
3.61014e-319
3.44502e-319
3.28702e-319
3.13574e-319
2.99088e-319
2.85194e-319
2.71914e-319
2.59187e-319
2.47013e-319
2.35393e-319
2.24306e-319
2.13753e-319
2.03703e-319
1.94148e-319
1.85057e-319
1.76411e-319
1.682e-319
1.60393e-319
1.52982e-319
1.45967e-319
1.39307e-319
1.32993e-319
1.26965e-319
1.21155e-319
1.15513e-319
1.10048e-319
1.04841e-319
8.57303e-320
8.575e-320
8.58093e-320
8.59081e-320
8.60366e-320
8.6165e-320
8.62836e-320
8.63824e-320
8.64615e-320
8.65109e-320
8.65405e-320
8.65603e-320
8.65801e-320
8.65998e-320
8.66196e-320
8.66591e-320
8.66986e-320
8.67382e-320
8.67876e-320
8.6837e-320
4.15153e-319
3.963e-319
3.78267e-319
3.61004e-319
3.44502e-319
3.28692e-319
3.13574e-319
2.99078e-319
2.85194e-319
2.71904e-319
2.59187e-319
2.47013e-319
2.35393e-319
2.24306e-319
2.13753e-319
2.03693e-319
1.94138e-319
1.85057e-319
1.76411e-319
1.682e-319
1.60393e-319
1.52982e-319
1.45967e-319
1.39307e-319
1.32993e-319
1.26975e-319
1.21155e-319
1.15513e-319
1.10048e-319
1.04841e-319
8.57303e-320
8.575e-320
8.58093e-320
8.59081e-320
8.60366e-320
8.6165e-320
8.62836e-320
8.63824e-320
8.64615e-320
8.65208e-320
8.65405e-320
8.65603e-320
8.65801e-320
8.65998e-320
8.66196e-320
8.66591e-320
8.66986e-320
8.67382e-320
8.67876e-320
8.6837e-320
4.15153e-319
3.963e-319
3.78267e-319
3.61004e-319
3.44502e-319
3.28702e-319
3.13574e-319
2.99088e-319
2.85194e-319
2.71914e-319
2.59187e-319
2.47013e-319
2.35393e-319
2.24306e-319
2.13753e-319
2.03693e-319
1.94138e-319
1.85047e-319
1.76401e-319
1.682e-319
1.60393e-319
1.52982e-319
1.45967e-319
1.39307e-319
1.33002e-319
1.26975e-319
1.21165e-319
1.15513e-319
1.10048e-319
1.04841e-319
8.57303e-320
8.575e-320
8.58093e-320
8.5918e-320
8.60465e-320
8.6165e-320
8.62836e-320
8.63824e-320
8.64615e-320
8.65208e-320
8.65504e-320
8.65702e-320
8.65801e-320
8.65998e-320
8.66196e-320
8.66591e-320
8.66986e-320
8.67382e-320
8.67975e-320
8.6837e-320
4.15173e-319
3.9631e-319
3.78276e-319
3.61014e-319
3.44502e-319
3.28712e-319
3.13574e-319
2.99088e-319
2.85204e-319
2.71914e-319
2.59187e-319
2.47013e-319
2.35393e-319
2.24306e-319
2.13753e-319
2.03693e-319
1.94138e-319
1.85047e-319
1.76401e-319
1.6819e-319
1.60393e-319
1.52982e-319
1.45967e-319
1.39307e-319
1.33002e-319
1.26975e-319
1.21165e-319
1.15513e-319
1.10048e-319
1.04841e-319
8.57303e-320
8.575e-320
8.58093e-320
8.5918e-320
8.60465e-320
8.6165e-320
8.62836e-320
8.63824e-320
8.64615e-320
8.65208e-320
8.65504e-320
8.65702e-320
8.65801e-320
8.65998e-320
8.66196e-320
8.66591e-320
8.66986e-320
8.67382e-320
8.67975e-320
8.6837e-320
4.15173e-319
3.9632e-319
3.78276e-319
3.61024e-319
3.44522e-319
3.28712e-319
3.13583e-319
2.99088e-319
2.85214e-319
2.71914e-319
2.59197e-319
2.47033e-319
2.35403e-319
2.24316e-319
2.13753e-319
2.03693e-319
1.94138e-319
1.85037e-319
1.76401e-319
1.6819e-319
1.60393e-319
1.52982e-319
1.45967e-319
1.39307e-319
1.33002e-319
1.26975e-319
1.21165e-319
1.15513e-319
1.10058e-319
1.04841e-319
8.57303e-320
8.575e-320
8.58093e-320
8.5918e-320
8.60465e-320
8.6165e-320
8.62836e-320
8.63824e-320
8.64615e-320
8.65208e-320
8.65504e-320
8.65702e-320
8.65801e-320
8.65998e-320
8.66196e-320
8.66591e-320
8.66986e-320
8.67382e-320
8.67975e-320
8.6837e-320
4.15193e-319
3.96339e-319
3.78296e-319
3.61043e-319
3.44522e-319
3.28732e-319
3.13593e-319
2.99107e-319
2.85224e-319
2.71934e-319
2.59207e-319
2.47033e-319
2.35412e-319
2.24326e-319
2.13753e-319
2.03703e-319
1.94138e-319
1.85037e-319
1.76401e-319
1.6819e-319
1.60393e-319
1.52982e-319
1.45967e-319
1.39317e-319
1.33002e-319
1.26985e-319
1.21165e-319
1.15513e-319
1.10058e-319
1.04841e-319
8.57303e-320
8.575e-320
8.58093e-320
8.5918e-320
8.60465e-320
8.61749e-320
8.62935e-320
8.63923e-320
8.64615e-320
8.65208e-320
8.65603e-320
8.65702e-320
8.65801e-320
8.65998e-320
8.66196e-320
8.66591e-320
8.66986e-320
8.67382e-320
8.67975e-320
8.6837e-320
4.15213e-319
3.96359e-319
3.78316e-319
3.61063e-319
3.44542e-319
3.28741e-319
3.13613e-319
2.99117e-319
2.85234e-319
2.71944e-319
2.59216e-319
2.47053e-319
2.35422e-319
2.24326e-319
2.13762e-319
2.03703e-319
1.94138e-319
1.85037e-319
1.76401e-319
1.6818e-319
1.60393e-319
1.52982e-319
1.45967e-319
1.39317e-319
1.33012e-319
1.26995e-319
1.21175e-319
1.15522e-319
1.10058e-319
1.04841e-319
8.57303e-320
8.575e-320
8.58093e-320
8.59279e-320
8.60465e-320
8.61749e-320
8.62935e-320
8.63923e-320
8.64615e-320
8.65208e-320
8.65603e-320
8.65801e-320
8.65899e-320
8.65998e-320
8.66295e-320
8.66591e-320
8.66986e-320
8.6748e-320
8.67975e-320
8.6837e-320
4.15252e-319
3.96379e-319
3.78336e-319
3.61083e-319
3.44561e-319
3.28761e-319
3.13633e-319
2.99127e-319
2.85254e-319
2.71953e-319
2.59226e-319
2.47053e-319
2.35432e-319
2.24345e-319
2.13772e-319
2.03713e-319
1.94148e-319
1.85037e-319
1.76401e-319
1.6818e-319
1.60384e-319
1.52982e-319
1.45967e-319
1.39327e-319
1.33012e-319
1.26995e-319
1.21184e-319
1.15532e-319
1.10058e-319
1.04841e-319
8.57303e-320
8.575e-320
8.58093e-320
8.59279e-320
8.60465e-320
8.61848e-320
8.63034e-320
8.64022e-320
8.64714e-320
8.65208e-320
8.65603e-320
8.65801e-320
8.65899e-320
8.65998e-320
8.66295e-320
8.66591e-320
8.66986e-320
8.6748e-320
8.67975e-320
8.68469e-320
4.15272e-319
3.96409e-319
3.78365e-319
3.61103e-319
3.44581e-319
3.28781e-319
3.13653e-319
2.99147e-319
2.85274e-319
2.71973e-319
2.59246e-319
2.47072e-319
2.35442e-319
2.24345e-319
2.13772e-319
2.03713e-319
1.94148e-319
1.85047e-319
1.76401e-319
1.6818e-319
1.60384e-319
1.52982e-319
1.45967e-319
1.39327e-319
1.33022e-319
1.26995e-319
1.21184e-319
1.15532e-319
1.10058e-319
1.04851e-319
8.57303e-320
8.575e-320
8.58093e-320
8.59279e-320
8.60465e-320
8.61848e-320
8.63034e-320
8.64022e-320
8.64813e-320
8.65208e-320
8.65603e-320
8.65801e-320
8.65899e-320
8.66097e-320
8.66295e-320
8.66591e-320
8.66986e-320
8.67579e-320
8.67975e-320
8.68469e-320
4.15312e-319
3.96438e-319
3.78395e-319
3.61122e-319
3.44611e-319
3.28801e-319
3.13672e-319
2.99167e-319
2.85293e-319
2.71993e-319
2.59266e-319
2.47092e-319
2.35452e-319
2.24365e-319
2.13792e-319
2.03723e-319
1.94148e-319
1.85057e-319
1.76401e-319
1.6819e-319
1.60393e-319
1.52982e-319
1.45967e-319
1.39327e-319
1.33022e-319
1.27005e-319
1.21184e-319
1.15532e-319
1.10068e-319
1.04851e-319
8.57303e-320
8.575e-320
8.58192e-320
8.59279e-320
8.60564e-320
8.61848e-320
8.63034e-320
8.64022e-320
8.64813e-320
8.65307e-320
8.65603e-320
8.65801e-320
8.65998e-320
8.66097e-320
8.66394e-320
8.6669e-320
8.67085e-320
8.67579e-320
8.67975e-320
8.68469e-320
4.15351e-319
3.96478e-319
3.78425e-319
3.61162e-319
3.4464e-319
3.2883e-319
3.13692e-319
2.99196e-319
2.85313e-319
2.72013e-319
2.59286e-319
2.47112e-319
2.35472e-319
2.24375e-319
2.13792e-319
2.03733e-319
1.94158e-319
1.85057e-319
1.76401e-319
1.6819e-319
1.60393e-319
1.52982e-319
1.45967e-319
1.39327e-319
1.33022e-319
1.27014e-319
1.21194e-319
1.15542e-319
1.10078e-319
1.0486e-319
8.57303e-320
8.575e-320
8.58192e-320
8.59279e-320
8.60564e-320
8.61848e-320
8.63034e-320
8.64022e-320
8.64813e-320
8.65405e-320
8.65603e-320
8.65801e-320
8.65998e-320
8.66196e-320
8.66394e-320
8.6669e-320
8.67085e-320
8.67579e-320
8.67975e-320
8.68567e-320
4.15391e-319
3.96517e-319
3.78464e-319
3.61192e-319
3.4467e-319
3.2885e-319
3.13712e-319
2.99226e-319
2.85333e-319
2.72033e-319
2.59305e-319
2.47132e-319
2.35491e-319
2.24385e-319
2.13812e-319
2.03743e-319
1.94168e-319
1.85057e-319
1.76411e-319
1.6819e-319
1.60393e-319
1.52982e-319
1.45967e-319
1.39327e-319
1.33032e-319
1.27014e-319
1.21204e-319
1.15552e-319
1.10078e-319
1.0486e-319
8.57303e-320
8.575e-320
8.58192e-320
8.59279e-320
8.60662e-320
8.61848e-320
8.63034e-320
8.64022e-320
8.64813e-320
8.65405e-320
8.65702e-320
8.65899e-320
8.65998e-320
8.66196e-320
8.66394e-320
8.66789e-320
8.67184e-320
8.67579e-320
8.68073e-320
8.68567e-320
4.1545e-319
3.96557e-319
3.78504e-319
3.61221e-319
3.447e-319
3.2889e-319
3.13751e-319
2.99246e-319
2.85353e-319
2.72052e-319
2.59325e-319
2.47151e-319
2.35511e-319
2.24405e-319
2.13832e-319
2.03753e-319
1.94168e-319
1.85067e-319
1.76411e-319
1.682e-319
1.60393e-319
1.52992e-319
1.45977e-319
1.39336e-319
1.33042e-319
1.27014e-319
1.21204e-319
1.15552e-319
1.10078e-319
1.0486e-319
8.57303e-320
8.575e-320
8.58192e-320
8.59279e-320
8.60662e-320
8.61947e-320
8.63133e-320
8.64121e-320
8.64813e-320
8.65405e-320
8.65801e-320
8.65899e-320
8.65998e-320
8.66196e-320
8.66394e-320
8.66789e-320
8.67184e-320
8.67579e-320
8.68172e-320
8.68567e-320
4.15499e-319
3.96616e-319
3.78553e-319
3.61261e-319
3.44739e-319
3.28919e-319
3.13771e-319
2.99275e-319
2.85392e-319
2.72092e-319
2.59345e-319
2.47171e-319
2.35531e-319
2.24424e-319
2.13841e-319
2.03763e-319
1.94188e-319
1.85077e-319
1.76421e-319
1.682e-319
1.60393e-319
1.52992e-319
1.45987e-319
1.39346e-319
1.33042e-319
1.27034e-319
1.21214e-319
1.15552e-319
1.10078e-319
1.0486e-319
8.57303e-320
8.575e-320
8.58291e-320
8.59378e-320
8.60662e-320
8.62046e-320
8.63231e-320
8.6422e-320
8.64911e-320
8.65405e-320
8.65801e-320
8.65998e-320
8.66097e-320
8.66196e-320
8.66492e-320
8.66789e-320
8.67184e-320
8.67678e-320
8.68172e-320
8.68567e-320
4.15549e-319
3.96666e-319
3.78593e-319
3.6131e-319
3.44779e-319
3.28959e-319
3.13811e-319
2.99305e-319
2.85412e-319
2.72112e-319
2.59375e-319
2.47191e-319
2.35551e-319
2.24444e-319
2.13851e-319
2.03772e-319
1.94188e-319
1.85077e-319
1.76421e-319
1.682e-319
1.60393e-319
1.53002e-319
1.45987e-319
1.39346e-319
1.33052e-319
1.27034e-319
1.21224e-319
1.15562e-319
1.10088e-319
1.0486e-319
8.57303e-320
8.575e-320
8.58291e-320
8.59378e-320
8.60662e-320
8.62046e-320
8.63231e-320
8.6422e-320
8.6501e-320
8.65504e-320
8.65801e-320
8.65998e-320
8.66196e-320
8.66295e-320
8.66591e-320
8.66789e-320
8.67184e-320
8.67777e-320
8.68172e-320
8.68666e-320
4.15618e-319
3.96715e-319
3.78652e-319
3.6136e-319
3.44818e-319
3.28998e-319
3.1385e-319
2.99344e-319
2.85451e-319
2.72141e-319
2.59404e-319
2.47221e-319
2.3557e-319
2.24464e-319
2.13871e-319
2.03792e-319
1.94207e-319
1.85087e-319
1.76431e-319
1.682e-319
1.60403e-319
1.53002e-319
1.45987e-319
1.39346e-319
1.33062e-319
1.27034e-319
1.21224e-319
1.15572e-319
1.10098e-319
1.0487e-319
8.57303e-320
8.575e-320
8.58291e-320
8.59477e-320
8.60761e-320
8.62046e-320
8.63231e-320
8.6422e-320
8.6501e-320
8.65603e-320
8.65801e-320
8.65998e-320
8.66196e-320
8.66394e-320
8.66591e-320
8.66888e-320
8.67283e-320
8.67777e-320
8.68172e-320
8.68765e-320
4.15687e-319
3.96774e-319
3.78701e-319
3.61409e-319
3.44868e-319
3.29038e-319
3.1389e-319
2.99384e-319
2.85481e-319
2.72171e-319
2.59434e-319
2.4725e-319
2.356e-319
2.24484e-319
2.13891e-319
2.03802e-319
1.94207e-319
1.85097e-319
1.76441e-319
1.68219e-319
1.60413e-319
1.53002e-319
1.45996e-319
1.39356e-319
1.33062e-319
1.27054e-319
1.21234e-319
1.15572e-319
1.10098e-319
1.0487e-319
8.57303e-320
8.575e-320
8.58291e-320
8.59477e-320
8.60761e-320
8.62046e-320
8.6333e-320
8.64318e-320
8.6501e-320
8.65603e-320
8.65899e-320
8.66097e-320
8.66196e-320
8.66394e-320
8.66591e-320
8.66986e-320
8.67382e-320
8.67777e-320
8.68271e-320
8.68765e-320
4.15756e-319
3.96843e-319
3.78761e-319
3.61458e-319
3.44917e-319
3.29087e-319
3.13929e-319
2.99414e-319
2.85511e-319
2.7221e-319
2.59464e-319
2.4727e-319
2.3563e-319
2.24503e-319
2.13911e-319
2.03812e-319
1.94227e-319
1.85107e-319
1.76441e-319
1.68219e-319
1.60413e-319
1.53012e-319
1.46006e-319
1.39366e-319
1.33072e-319
1.27054e-319
1.21244e-319
1.15582e-319
1.10098e-319
1.0488e-319
8.57303e-320
8.575e-320
8.58291e-320
8.59477e-320
8.6086e-320
8.62145e-320
8.63429e-320
8.64417e-320
8.65109e-320
8.65603e-320
8.65998e-320
8.66196e-320
8.66196e-320
8.66394e-320
8.66591e-320
8.66986e-320
8.67382e-320
8.67876e-320
8.6837e-320
8.68765e-320
4.15825e-319
3.96913e-319
3.7882e-319
3.61518e-319
3.44967e-319
3.29127e-319
3.13969e-319
2.99453e-319
2.8555e-319
2.7224e-319
2.59493e-319
2.473e-319
2.3565e-319
2.24523e-319
2.1393e-319
2.03832e-319
1.94237e-319
1.85117e-319
1.76451e-319
1.68219e-319
1.60413e-319
1.53022e-319
1.46006e-319
1.39366e-319
1.33082e-319
1.27064e-319
1.21254e-319
1.15592e-319
1.10107e-319
1.0488e-319
8.57303e-320
8.575e-320
8.58291e-320
8.59477e-320
8.6086e-320
8.62243e-320
8.63429e-320
8.64417e-320
8.65208e-320
8.65702e-320
8.65998e-320
8.66196e-320
8.66394e-320
8.66492e-320
8.66789e-320
8.66986e-320
8.67382e-320
8.67975e-320
8.6837e-320
8.68864e-320
4.15904e-319
3.96982e-319
3.78889e-319
3.61577e-319
3.45016e-319
3.29186e-319
3.14018e-319
2.99503e-319
2.8559e-319
2.7227e-319
2.59523e-319
2.47329e-319
2.35669e-319
2.24553e-319
2.1395e-319
2.03851e-319
1.94247e-319
1.85126e-319
1.7646e-319
1.68229e-319
1.60423e-319
1.53022e-319
1.46006e-319
1.39386e-319
1.33082e-319
1.27074e-319
1.21263e-319
1.15592e-319
1.10117e-319
1.0488e-319
8.57402e-320
8.575e-320
8.58291e-320
8.59477e-320
8.6086e-320
8.62243e-320
8.63429e-320
8.64417e-320
8.65208e-320
8.65801e-320
8.65998e-320
8.66196e-320
8.66394e-320
8.66591e-320
8.66789e-320
8.67085e-320
8.67579e-320
8.67975e-320
8.68469e-320
8.68963e-320
4.15984e-319
3.97051e-319
3.78948e-319
3.61636e-319
3.45075e-319
3.29226e-319
3.14068e-319
2.99542e-319
2.85629e-319
2.72309e-319
2.59562e-319
2.47369e-319
2.35709e-319
2.24582e-319
2.1397e-319
2.03871e-319
1.94267e-319
1.85136e-319
1.7647e-319
1.68239e-319
1.60433e-319
1.53022e-319
1.46026e-319
1.39386e-319
1.33101e-319
1.27084e-319
1.21263e-319
1.15611e-319
1.10117e-319
1.0488e-319
8.57402e-320
8.57599e-320
8.5839e-320
8.59575e-320
8.60959e-320
8.62243e-320
8.63528e-320
8.64516e-320
8.65307e-320
8.65801e-320
8.66196e-320
8.66295e-320
8.66394e-320
8.66591e-320
8.66789e-320
8.67184e-320
8.67579e-320
8.67975e-320
8.68567e-320
8.68963e-320
4.16072e-319
3.9713e-319
3.79027e-319
3.61705e-319
3.45134e-319
3.29285e-319
3.14107e-319
2.99582e-319
2.85669e-319
2.72349e-319
2.59602e-319
2.47389e-319
2.35729e-319
2.24602e-319
2.1399e-319
2.03891e-319
1.94286e-319
1.85156e-319
1.7648e-319
1.68249e-319
1.60433e-319
1.53042e-319
1.46026e-319
1.39396e-319
1.33101e-319
1.27093e-319
1.21283e-319
1.15611e-319
1.10127e-319
1.0489e-319
8.57402e-320
8.57599e-320
8.5839e-320
8.59674e-320
8.61058e-320
8.62441e-320
8.63627e-320
8.64615e-320
8.65405e-320
8.65801e-320
8.66196e-320
8.66394e-320
8.66492e-320
8.66591e-320
8.66888e-320
8.67184e-320
8.67579e-320
8.68172e-320
8.68567e-320
8.69061e-320
4.16161e-319
3.97219e-319
3.79106e-319
3.61775e-319
3.45194e-319
3.29344e-319
3.14166e-319
2.99641e-319
2.85718e-319
2.72388e-319
2.59631e-319
2.47428e-319
2.35768e-319
2.24622e-319
2.14009e-319
2.03911e-319
1.94296e-319
1.85166e-319
1.7649e-319
1.68259e-319
1.60443e-319
1.53042e-319
1.46036e-319
1.39406e-319
1.33121e-319
1.27103e-319
1.21283e-319
1.15621e-319
1.10137e-319
1.049e-319
8.575e-320
8.57599e-320
8.58488e-320
8.59674e-320
8.61058e-320
8.62441e-320
8.63627e-320
8.64615e-320
8.65405e-320
8.65998e-320
8.66196e-320
8.66394e-320
8.66591e-320
8.66789e-320
8.66986e-320
8.67283e-320
8.67777e-320
8.68172e-320
8.68666e-320
8.6916e-320
4.1626e-319
3.97308e-319
3.79176e-319
3.61844e-319
3.45263e-319
3.29403e-319
3.14226e-319
2.9968e-319
2.85768e-319
2.72428e-319
2.59671e-319
2.47468e-319
2.35788e-319
2.24662e-319
2.14039e-319
2.03931e-319
1.94316e-319
1.85176e-319
1.765e-319
1.68259e-319
1.60453e-319
1.53052e-319
1.46046e-319
1.39415e-319
1.33121e-319
1.27113e-319
1.21303e-319
1.15631e-319
1.10137e-319
1.049e-319
8.575e-320
8.57698e-320
8.58488e-320
8.59674e-320
8.61058e-320
8.62441e-320
8.63726e-320
8.64714e-320
8.65504e-320
8.65998e-320
8.66394e-320
8.66492e-320
8.66591e-320
8.66789e-320
8.66986e-320
8.67382e-320
8.67777e-320
8.68271e-320
8.68765e-320
8.6916e-320
4.16359e-319
3.97387e-319
3.79265e-319
3.61913e-319
3.45332e-319
3.29463e-319
3.14275e-319
2.9974e-319
2.85807e-319
2.72477e-319
2.59711e-319
2.47497e-319
2.35827e-319
2.24681e-319
2.14069e-319
2.0395e-319
1.94326e-319
1.85196e-319
1.7652e-319
1.68279e-319
1.60463e-319
1.53062e-319
1.46046e-319
1.39425e-319
1.33141e-319
1.27133e-319
1.21303e-319
1.15631e-319
1.10147e-319
1.049e-319
8.575e-320
8.57698e-320
8.58488e-320
8.59674e-320
8.61156e-320
8.6254e-320
8.63824e-320
8.64813e-320
8.65603e-320
8.65998e-320
8.66394e-320
8.66591e-320
8.6669e-320
8.66888e-320
8.67184e-320
8.6748e-320
8.67876e-320
8.6837e-320
8.68765e-320
8.69358e-320
4.16458e-319
3.97486e-319
3.79344e-319
3.61992e-319
3.45401e-319
3.29522e-319
3.14334e-319
2.99789e-319
2.85857e-319
2.72527e-319
2.5975e-319
2.47537e-319
2.35857e-319
2.24711e-319
2.14089e-319
2.0397e-319
1.94346e-319
1.85205e-319
1.7652e-319
1.68279e-319
1.60473e-319
1.53062e-319
1.46066e-319
1.39435e-319
1.33151e-319
1.27133e-319
1.21323e-319
1.15651e-319
1.10157e-319
1.0491e-319
8.575e-320
8.57698e-320
8.58488e-320
8.59773e-320
8.61255e-320
8.62639e-320
8.63824e-320
8.64813e-320
8.65603e-320
8.66196e-320
8.66394e-320
8.66591e-320
8.66789e-320
8.66986e-320
8.67184e-320
8.67579e-320
8.67975e-320
8.6837e-320
8.68963e-320
8.69358e-320
4.16567e-319
3.97585e-319
3.79433e-319
3.62071e-319
3.4547e-319
3.29601e-319
3.14394e-319
2.99839e-319
2.85906e-319
2.72566e-319
2.59799e-319
2.47566e-319
2.35887e-319
2.24741e-319
2.14108e-319
2.0399e-319
1.94365e-319
1.85215e-319
1.7654e-319
1.68299e-319
1.60482e-319
1.53081e-319
1.46066e-319
1.39445e-319
1.33161e-319
1.27153e-319
1.21323e-319
1.15651e-319
1.10157e-319
1.0492e-319
8.575e-320
8.57698e-320
8.58587e-320
8.59872e-320
8.61255e-320
8.62639e-320
8.63923e-320
8.64911e-320
8.65702e-320
8.66196e-320
8.66591e-320
8.66789e-320
8.66789e-320
8.66986e-320
8.67283e-320
8.67579e-320
8.68073e-320
8.68567e-320
8.68963e-320
8.69556e-320
4.16675e-319
3.97683e-319
3.79521e-319
3.6216e-319
3.4555e-319
3.2966e-319
3.14463e-319
2.99898e-319
2.85965e-319
2.72616e-319
2.59839e-319
2.47606e-319
2.35926e-319
2.2478e-319
2.14138e-319
2.0401e-319
1.94385e-319
1.85235e-319
1.76549e-319
1.68308e-319
1.60492e-319
1.53081e-319
1.46085e-319
1.39465e-319
1.3318e-319
1.27163e-319
1.21343e-319
1.15671e-319
1.10167e-319
1.0492e-319
8.575e-320
8.57698e-320
8.58587e-320
8.59872e-320
8.61354e-320
8.62737e-320
8.64022e-320
8.6501e-320
8.65801e-320
8.66295e-320
8.66591e-320
8.66789e-320
8.66986e-320
8.67184e-320
8.67382e-320
8.67777e-320
8.68172e-320
8.68567e-320
8.6916e-320
8.69556e-320
4.16794e-319
3.97782e-319
3.7962e-319
3.62249e-319
3.45629e-319
3.29739e-319
3.14522e-319
2.99957e-319
2.86015e-319
2.72665e-319
2.59879e-319
2.47645e-319
2.35966e-319
2.248e-319
2.14168e-319
2.04039e-319
1.94405e-319
1.85255e-319
1.76559e-319
1.68318e-319
1.60502e-319
1.53101e-319
1.46085e-319
1.39465e-319
1.3319e-319
1.27172e-319
1.21352e-319
1.15671e-319
1.10177e-319
1.0492e-319
8.575e-320
8.57698e-320
8.58686e-320
8.59872e-320
8.61453e-320
8.62836e-320
8.64022e-320
8.65109e-320
8.65801e-320
8.66394e-320
8.6669e-320
8.66888e-320
8.66986e-320
8.67184e-320
8.6748e-320
8.67777e-320
8.68271e-320
8.68765e-320
8.69259e-320
8.69753e-320
4.16902e-319
3.97901e-319
3.79719e-319
3.62328e-319
3.45708e-319
3.29809e-319
3.14581e-319
3.00016e-319
2.86064e-319
2.72704e-319
2.59918e-319
2.47685e-319
2.36005e-319
2.24839e-319
2.14187e-319
2.04059e-319
1.94425e-319
1.85275e-319
1.76579e-319
1.68328e-319
1.60512e-319
1.53101e-319
1.46105e-319
1.39485e-319
1.332e-319
1.27192e-319
1.21362e-319
1.15681e-319
1.10177e-319
1.0493e-319
8.57599e-320
8.57797e-320
8.58686e-320
8.59971e-320
8.61453e-320
8.62836e-320
8.6422e-320
8.65208e-320
8.65998e-320
8.66394e-320
8.66789e-320
8.66986e-320
8.67184e-320
8.67283e-320
8.67579e-320
8.67975e-320
8.6837e-320
8.68864e-320
8.69358e-320
8.69852e-320
4.17031e-319
3.98e-319
3.79818e-319
3.62427e-319
3.45797e-319
3.29878e-319
3.14661e-319
3.00076e-319
2.86123e-319
2.72764e-319
2.59977e-319
2.47734e-319
2.36035e-319
2.24869e-319
2.14227e-319
2.04089e-319
1.94444e-319
1.85284e-319
1.76589e-319
1.68338e-319
1.60522e-319
1.53121e-319
1.46115e-319
1.39494e-319
1.3322e-319
1.27202e-319
1.21382e-319
1.1569e-319
1.10187e-319
1.0494e-319
8.57599e-320
8.57797e-320
8.58686e-320
8.60069e-320
8.61552e-320
8.63034e-320
8.6422e-320
8.65208e-320
8.65998e-320
8.66591e-320
8.66888e-320
8.67085e-320
8.67184e-320
8.67382e-320
8.67678e-320
8.67975e-320
8.68469e-320
8.68963e-320
8.69556e-320
8.69951e-320
4.1715e-319
3.98118e-319
3.79917e-319
3.62526e-319
3.45885e-319
3.29957e-319
3.1473e-319
3.00145e-319
2.86183e-319
2.72813e-319
2.60017e-319
2.47774e-319
2.36074e-319
2.24899e-319
2.14247e-319
2.04108e-319
1.94464e-319
1.85304e-319
1.76599e-319
1.68358e-319
1.60532e-319
1.53121e-319
1.46125e-319
1.39504e-319
1.3323e-319
1.27212e-319
1.21382e-319
1.157e-319
1.10196e-319
1.0494e-319
8.57698e-320
8.57896e-320
8.58785e-320
8.60069e-320
8.6165e-320
8.63034e-320
8.64318e-320
8.65405e-320
8.66097e-320
8.66591e-320
8.66986e-320
8.67184e-320
8.67283e-320
8.6748e-320
8.67777e-320
8.68172e-320
8.68567e-320
8.6916e-320
8.69556e-320
8.70148e-320
4.17278e-319
3.98237e-319
3.80025e-319
3.62615e-319
3.45965e-319
3.30036e-319
3.14799e-319
3.00214e-319
2.86242e-319
2.72863e-319
2.60066e-319
2.47823e-319
2.36114e-319
2.24938e-319
2.14286e-319
2.04128e-319
1.94484e-319
1.85314e-319
1.76619e-319
1.68368e-319
1.60542e-319
1.53141e-319
1.46145e-319
1.39524e-319
1.3324e-319
1.27232e-319
1.21402e-319
1.1571e-319
1.10196e-319
1.0494e-319
8.57698e-320
8.57896e-320
8.58785e-320
8.60168e-320
8.6165e-320
8.63133e-320
8.64417e-320
8.65405e-320
8.66196e-320
8.66789e-320
8.66986e-320
8.67184e-320
8.67382e-320
8.67579e-320
8.67876e-320
8.68271e-320
8.68765e-320
8.6916e-320
8.69753e-320
8.70247e-320
4.17406e-319
3.98355e-319
3.80134e-319
3.62713e-319
3.46063e-319
3.30115e-319
3.14878e-319
3.00273e-319
2.86301e-319
2.72922e-319
2.60116e-319
2.47863e-319
2.36153e-319
2.24968e-319
2.14306e-319
2.04158e-319
1.94504e-319
1.85334e-319
1.76638e-319
1.68378e-319
1.60552e-319
1.5315e-319
1.46145e-319
1.39534e-319
1.33259e-319
1.27242e-319
1.21412e-319
1.1572e-319
1.10206e-319
1.04949e-319
8.57698e-320
8.57896e-320
8.58884e-320
8.60267e-320
8.61749e-320
8.63231e-320
8.64417e-320
8.65504e-320
8.66295e-320
8.66789e-320
8.67184e-320
8.67382e-320
8.67579e-320
8.67777e-320
8.67975e-320
8.6837e-320
8.68864e-320
8.69358e-320
8.69951e-320
8.70346e-320
4.17545e-319
3.98474e-319
3.80243e-319
3.62822e-319
3.46142e-319
3.30204e-319
3.14947e-319
3.00352e-319
2.8636e-319
2.72981e-319
2.60165e-319
2.47902e-319
2.36193e-319
2.25007e-319
2.14345e-319
2.04187e-319
1.94524e-319
1.85354e-319
1.76648e-319
1.68397e-319
1.60571e-319
1.5316e-319
1.46164e-319
1.39544e-319
1.33279e-319
1.27252e-319
1.21422e-319
1.1573e-319
1.10216e-319
1.04959e-319
8.57698e-320
8.57896e-320
8.58884e-320
8.60267e-320
8.61848e-320
8.63231e-320
8.64615e-320
8.65603e-320
8.66394e-320
8.66888e-320
8.67184e-320
8.67382e-320
8.67579e-320
8.67777e-320
8.68172e-320
8.68567e-320
8.68963e-320
8.69556e-320
8.7005e-320
8.70544e-320
4.17673e-319
3.98592e-319
3.80351e-319
3.62921e-319
3.46241e-319
3.30293e-319
3.15026e-319
3.00412e-319
2.8643e-319
2.7304e-319
2.60214e-319
2.47952e-319
2.36233e-319
2.25037e-319
2.14365e-319
2.04207e-319
1.94543e-319
1.85373e-319
1.76658e-319
1.68397e-319
1.60571e-319
1.5317e-319
1.46174e-319
1.39564e-319
1.33289e-319
1.27271e-319
1.21441e-319
1.1574e-319
1.10216e-319
1.04959e-319
8.57698e-320
8.57896e-320
8.58884e-320
8.60267e-320
8.61848e-320
8.63429e-320
8.64615e-320
8.65702e-320
8.66394e-320
8.66986e-320
8.67382e-320
8.67579e-320
8.67777e-320
8.67975e-320
8.68172e-320
8.68567e-320
8.6916e-320
8.69654e-320
8.70148e-320
8.70741e-320
4.17812e-319
3.98721e-319
3.8047e-319
3.6302e-319
3.4634e-319
3.30372e-319
3.15095e-319
3.00491e-319
2.86489e-319
2.731e-319
2.60274e-319
2.48001e-319
2.36272e-319
2.25077e-319
2.14405e-319
2.04237e-319
1.94573e-319
1.85393e-319
1.76678e-319
1.68417e-319
1.60591e-319
1.5318e-319
1.46184e-319
1.39583e-319
1.33299e-319
1.27291e-319
1.21451e-319
1.1575e-319
1.10226e-319
1.04959e-319
8.57698e-320
8.57896e-320
8.58983e-320
8.60366e-320
8.61947e-320
8.63429e-320
8.64813e-320
8.65801e-320
8.66591e-320
8.67085e-320
8.67382e-320
8.67579e-320
8.67777e-320
8.68073e-320
8.6837e-320
8.68765e-320
8.69259e-320
8.69753e-320
8.70346e-320
8.70939e-320
4.1796e-319
3.98849e-319
3.80589e-319
3.63128e-319
3.46429e-319
3.30461e-319
3.15174e-319
3.0055e-319
2.86558e-319
2.73149e-319
2.60323e-319
2.48041e-319
2.36312e-319
2.25116e-319
2.14434e-319
2.04267e-319
1.94593e-319
1.85413e-319
1.76698e-319
1.68427e-319
1.60601e-319
1.532e-319
1.46204e-319
1.39583e-319
1.33319e-319
1.27301e-319
1.21461e-319
1.1576e-319
1.10236e-319
1.04959e-319
8.57698e-320
8.57994e-320
8.59081e-320
8.60465e-320
8.62046e-320
8.63528e-320
8.64813e-320
8.65801e-320
8.66591e-320
8.67184e-320
8.67579e-320
8.67777e-320
8.67975e-320
8.68172e-320
8.68567e-320
8.68963e-320
8.69358e-320
8.69951e-320
8.70544e-320
8.71137e-320
4.18098e-319
3.98978e-319
3.80707e-319
3.63237e-319
3.46528e-319
3.3055e-319
3.15253e-319
3.00629e-319
2.86617e-319
2.73208e-319
2.60373e-319
2.481e-319
2.36361e-319
2.25156e-319
2.14464e-319
2.04286e-319
1.94622e-319
1.85433e-319
1.76708e-319
1.68437e-319
1.60611e-319
1.532e-319
1.46214e-319
1.39603e-319
1.33338e-319
1.27311e-319
1.21481e-319
1.15769e-319
1.10236e-319
1.04969e-319
8.57698e-320
8.57994e-320
8.59081e-320
8.60465e-320
8.62046e-320
8.63627e-320
8.64911e-320
8.65998e-320
8.66789e-320
8.67283e-320
8.67579e-320
8.67876e-320
8.68073e-320
8.6837e-320
8.68567e-320
8.69061e-320
8.69556e-320
8.70148e-320
8.70741e-320
8.71334e-320
4.18236e-319
3.99106e-319
3.80826e-319
3.63336e-319
3.46627e-319
3.30639e-319
3.15342e-319
3.00698e-319
2.86687e-319
2.73268e-319
2.60432e-319
2.4814e-319
2.36401e-319
2.25185e-319
2.14494e-319
2.04316e-319
1.94642e-319
1.85452e-319
1.76717e-319
1.68457e-319
1.60621e-319
1.5322e-319
1.46224e-319
1.39623e-319
1.33348e-319
1.27331e-319
1.21491e-319
1.15779e-319
1.10256e-319
1.04979e-319
8.57698e-320
8.58093e-320
8.59081e-320
8.60564e-320
8.62145e-320
8.63627e-320
8.6501e-320
8.65998e-320
8.66789e-320
8.67382e-320
8.67777e-320
8.67975e-320
8.68172e-320
8.6837e-320
8.68765e-320
8.6916e-320
8.69753e-320
8.70346e-320
8.70939e-320
8.71532e-320
4.18375e-319
3.99245e-319
3.80944e-319
3.63454e-319
3.46725e-319
3.30728e-319
3.15421e-319
3.00767e-319
2.86756e-319
2.73327e-319
2.60481e-319
2.48189e-319
2.3644e-319
2.25215e-319
2.14523e-319
2.04346e-319
1.94662e-319
1.85462e-319
1.76737e-319
1.68467e-319
1.60631e-319
1.5323e-319
1.46243e-319
1.39633e-319
1.33358e-319
1.2735e-319
1.21501e-319
1.15789e-319
1.10256e-319
1.04979e-319
8.57797e-320
8.58093e-320
8.59081e-320
8.60662e-320
8.62243e-320
8.63824e-320
8.65109e-320
8.66196e-320
8.66986e-320
8.6748e-320
8.67876e-320
8.68073e-320
8.6837e-320
8.68567e-320
8.68963e-320
8.69358e-320
8.69951e-320
8.70544e-320
8.71137e-320
8.71729e-320
4.18533e-319
3.99373e-319
3.81063e-319
3.63553e-319
3.46824e-319
3.30816e-319
3.155e-319
3.00846e-319
2.86815e-319
2.73386e-319
2.60531e-319
2.48238e-319
2.3648e-319
2.25254e-319
2.14563e-319
2.04365e-319
1.94682e-319
1.85482e-319
1.76757e-319
1.68476e-319
1.6065e-319
1.53239e-319
1.46243e-319
1.39643e-319
1.33378e-319
1.2736e-319
1.2152e-319
1.15799e-319
1.10256e-319
1.04979e-319
8.57797e-320
8.58093e-320
8.5918e-320
8.60662e-320
8.62243e-320
8.63824e-320
8.65208e-320
8.66196e-320
8.66986e-320
8.67579e-320
8.67975e-320
8.68172e-320
8.6837e-320
8.68666e-320
8.69061e-320
8.69556e-320
8.70148e-320
8.70741e-320
8.71334e-320
8.71927e-320
4.18671e-319
3.99501e-319
3.81182e-319
3.63672e-319
3.46923e-319
3.30905e-319
3.15589e-319
3.00926e-319
2.86884e-319
2.73446e-319
2.6059e-319
2.48278e-319
2.36519e-319
2.25294e-319
2.14583e-319
2.04395e-319
1.94701e-319
1.85502e-319
1.76767e-319
1.68496e-319
1.6065e-319
1.53259e-319
1.46263e-319
1.39662e-319
1.33398e-319
1.2737e-319
1.2152e-319
1.15809e-319
1.10275e-319
1.04989e-319
8.57797e-320
8.58093e-320
8.5918e-320
8.60662e-320
8.62441e-320
8.63923e-320
8.65208e-320
8.66394e-320
8.67184e-320
8.67678e-320
8.68073e-320
8.6837e-320
8.68567e-320
8.68765e-320
8.6916e-320
8.69753e-320
8.70247e-320
8.70939e-320
8.71532e-320
8.72125e-320
4.18819e-319
3.9964e-319
3.813e-319
3.63781e-319
3.47022e-319
3.31004e-319
3.15668e-319
3.00995e-319
2.86953e-319
2.73505e-319
2.60639e-319
2.48337e-319
2.36559e-319
2.25333e-319
2.14622e-319
2.04425e-319
1.94721e-319
1.85512e-319
1.76777e-319
1.68496e-319
1.6067e-319
1.53259e-319
1.46283e-319
1.39682e-319
1.33408e-319
1.2739e-319
1.2154e-319
1.15819e-319
1.10275e-319
1.04989e-319
8.57797e-320
8.58093e-320
8.59279e-320
8.60761e-320
8.62441e-320
8.64022e-320
8.65405e-320
8.66394e-320
8.67184e-320
8.67777e-320
8.68172e-320
8.6837e-320
8.68666e-320
8.68963e-320
8.69358e-320
8.69852e-320
8.70445e-320
8.71137e-320
8.71729e-320
8.72322e-320
4.18968e-319
3.99778e-319
3.81429e-319
3.63889e-319
3.47121e-319
3.31083e-319
3.15747e-319
3.01064e-319
2.87013e-319
2.73574e-319
2.60689e-319
2.48377e-319
2.36608e-319
2.25373e-319
2.14652e-319
2.04444e-319
1.94741e-319
1.85532e-319
1.76796e-319
1.68516e-319
1.6068e-319
1.53279e-319
1.46283e-319
1.39692e-319
1.33427e-319
1.2741e-319
1.2155e-319
1.15829e-319
1.10275e-319