/*--------------------------------*- C++ -*----------------------------------*\
  =========                 |
  \\      /  F ield         | OpenFOAM: The Open Source CFD Toolbox
   \\    /   O peration     | Website:  https://openfoam.org
    \\  /    A nd           | Version:  9
     \\/     M anipulation  |
\*---------------------------------------------------------------------------*/
FoamFile
{
    format      ascii;
    class       volScalarField;
    location    "0.15";
    object      p;
}
// * * * * * * * * * * * * * * * * * * * * * * * * * * * * * * * * * * * * * //

dimensions      [1 -1 -2 0 0 0 0];

internalField   nonuniform List<scalar> 
5000
(
2.92268
2.92266
2.92264
2.92263
2.92262
2.92262
2.92261
2.92259
2.92255
2.92248
2.92235
2.92216
2.92188
2.92152
2.9211
2.92063
2.92016
2.9197
2.91932
2.91903
2.91888
2.91889
2.91909
2.91947
2.91997
2.92046
2.92081
2.92092
2.92076
2.92047
2.92027
2.92046
2.92103
2.92181
2.92264
2.9234
2.92401
2.92448
2.92482
2.92508
2.92529
2.92546
2.92561
2.92573
2.92585
2.92592
2.92598
2.92602
2.92603
2.92601
2.92073
2.92072
2.92071
2.9207
2.92071
2.92071
2.92072
2.92073
2.92073
2.92072
2.92069
2.92062
2.92052
2.92037
2.92018
2.91995
2.91971
2.91948
2.91928
2.91913
2.91906
2.91907
2.91918
2.91937
2.91962
2.91992
2.92026
2.92061
2.92088
2.92103
2.92116
2.92147
2.92198
2.92266
2.92341
2.92414
2.92483
2.92543
2.92596
2.92642
2.92682
2.92718
2.92751
2.92779
2.92809
2.92825
2.92845
2.92861
2.92876
2.92888
2.91879
2.91881
2.91883
2.91885
2.91887
2.91889
2.91891
2.91893
2.91894
2.91894
2.91893
2.9189
2.91885
2.91877
2.91867
2.91856
2.91844
2.91833
2.91824
2.91819
2.9182
2.91828
2.91842
2.91865
2.91893
2.91926
2.91962
2.91999
2.92032
2.92061
2.92093
2.92139
2.922
2.92272
2.9235
2.92428
2.92502
2.9257
2.92632
2.92689
2.9274
2.92787
2.9283
2.92867
2.92897
2.92936
2.92968
2.92996
2.9302
2.93042
2.91684
2.91688
2.91692
2.91697
2.91701
2.91706
2.9171
2.91714
2.91718
2.91721
2.91722
2.91723
2.91722
2.91719
2.91715
2.91711
2.91707
2.91704
2.91704
2.91707
2.91715
2.91729
2.9175
2.91779
2.91814
2.91854
2.91895
2.91934
2.91972
2.92008
2.92052
2.92111
2.92182
2.92262
2.92347
2.92431
2.92512
2.92589
2.9266
2.92725
2.92787
2.92844
2.92897
2.92946
2.9299
2.93036
2.93077
2.93114
2.93148
2.93178
2.91489
2.91494
2.915
2.91507
2.91513
2.91519
2.91526
2.91533
2.91539
2.91546
2.91551
2.91557
2.91562
2.91566
2.9157
2.91574
2.91579
2.91585
2.91593
2.91605
2.91621
2.91643
2.9167
2.91704
2.91743
2.91786
2.91832
2.91878
2.91924
2.91972
2.92029
2.92101
2.92182
2.9227
2.92362
2.92454
2.92543
2.92628
2.92709
2.92785
2.92858
2.92926
2.92991
2.93053
2.93111
2.93165
2.93216
2.93263
2.93306
2.93346
2.91293
2.91301
2.91309
2.91317
2.91325
2.91334
2.91343
2.91353
2.91363
2.91372
2.91383
2.91393
2.91404
2.91415
2.91426
2.91439
2.91452
2.91467
2.91485
2.91506
2.9153
2.91559
2.91592
2.91631
2.91674
2.91722
2.91772
2.91826
2.91883
2.91943
2.92015
2.921
2.92192
2.92288
2.92388
2.92488
2.92585
2.9268
2.92771
2.92859
2.92943
2.93023
2.931
2.93173
2.93243
2.93309
2.93371
2.93428
2.93482
2.93531
2.91098
2.91107
2.91118
2.91128
2.91139
2.91151
2.91163
2.91176
2.91189
2.91202
2.91217
2.91232
2.91248
2.91265
2.91283
2.91302
2.91323
2.91346
2.91371
2.914
2.91432
2.91468
2.91508
2.91553
2.91602
2.91655
2.91712
2.91774
2.9184
2.91912
2.91996
2.92094
2.92197
2.92303
2.92411
2.9252
2.92627
2.92732
2.92834
2.92932
2.93027
2.93119
2.93208
2.93293
2.93374
2.93451
2.93524
2.93592
2.93656
2.93715
2.90903
2.90914
2.90927
2.9094
2.90954
2.90969
2.90984
2.91
2.91016
2.91034
2.91052
2.91072
2.91092
2.91114
2.91138
2.91163
2.91191
2.9122
2.91253
2.91288
2.91327
2.9137
2.91417
2.91469
2.91525
2.91586
2.9165
2.9172
2.91795
2.91876
2.91972
2.92082
2.92196
2.92313
2.92431
2.9255
2.92667
2.92782
2.92894
2.93003
2.9311
2.93213
2.93313
2.9341
2.93502
2.9359
2.93674
2.93753
2.93827
2.93895
2.90707
2.90722
2.90737
2.90752
2.90769
2.90786
2.90804
2.90823
2.90844
2.90865
2.90887
2.90911
2.90937
2.90964
2.90993
2.91024
2.91057
2.91093
2.91132
2.91174
2.9122
2.9127
2.91324
2.91383
2.91446
2.91514
2.91587
2.91664
2.91748
2.91839
2.91946
2.92068
2.92193
2.92321
2.9245
2.92579
2.92707
2.92832
2.92955
2.93076
2.93194
2.93309
2.9342
2.93528
2.93632
2.93732
2.93826
2.93916
2.93999
2.94077
2.90512
2.90529
2.90546
2.90565
2.90584
2.90604
2.90625
2.90647
2.90671
2.90696
2.90722
2.90751
2.90781
2.90813
2.90847
2.90883
2.90923
2.90965
2.9101
2.91059
2.91112
2.91169
2.9123
2.91296
2.91366
2.91442
2.91522
2.91608
2.91701
2.91802
2.9192
2.92054
2.92191
2.9233
2.9247
2.9261
2.92748
2.92885
2.93019
2.93151
2.93281
2.93407
2.9353
2.9365
2.93765
2.93876
2.93982
2.94082
2.94176
2.94263
2.90317
2.90336
2.90356
2.90377
2.90399
2.90422
2.90446
2.90471
2.90498
2.90527
2.90557
2.9059
2.90624
2.90661
2.907
2.90742
2.90787
2.90836
2.90887
2.90943
2.91002
2.91066
2.91134
2.91207
2.91285
2.91368
2.91456
2.91551
2.91653
2.91764
2.91893
2.92039
2.92189
2.92339
2.92491
2.92642
2.92791
2.92939
2.93085
2.93229
2.9337
2.93508
2.93643
2.93775
2.93902
2.94024
2.94141
2.94252
2.94356
2.94453
2.90122
2.90143
2.90165
2.90189
2.90213
2.90239
2.90266
2.90295
2.90326
2.90358
2.90392
2.90429
2.90467
2.90509
2.90553
2.906
2.90651
2.90705
2.90763
2.90825
2.90891
2.90961
2.91037
2.91117
2.91203
2.91293
2.9139
2.91493
2.91604
2.91725
2.91865
2.92024
2.92186
2.92348
2.92512
2.92674
2.92835
2.92995
2.93153
2.93308
2.93461
2.93611
2.93758
2.93901
2.9404
2.94174
2.94302
2.94424
2.94539
2.94645
2.89927
2.8995
2.89975
2.90001
2.90028
2.90057
2.90087
2.90119
2.90153
2.90188
2.90226
2.90267
2.9031
2.90356
2.90405
2.90458
2.90514
2.90574
2.90637
2.90705
2.90778
2.90856
2.90938
2.91026
2.91119
2.91217
2.91322
2.91434
2.91554
2.91685
2.91837
2.92008
2.92182
2.92357
2.92532
2.92707
2.9288
2.93051
2.93221
2.93388
2.93553
2.93716
2.93875
2.9403
2.94181
2.94327
2.94466
2.94599
2.94724
2.94841
2.89732
2.89757
2.89784
2.89813
2.89843
2.89874
2.89907
2.89942
2.89979
2.90019
2.9006
2.90105
2.90152
2.90203
2.90257
2.90314
2.90376
2.90441
2.90511
2.90585
2.90664
2.90748
2.90838
2.90933
2.91034
2.9114
2.91253
2.91374
2.91504
2.91644
2.91807
2.91991
2.92178
2.92365
2.92553
2.9274
2.92925
2.93109
2.9329
2.9347
2.93647
2.93822
2.93993
2.94161
2.94324
2.94482
2.94633
2.94777
2.94913
2.9504
2.89537
2.89564
2.89594
2.89625
2.89657
2.89691
2.89727
2.89766
2.89806
2.89849
2.89894
2.89942
2.89994
2.90049
2.90107
2.9017
2.90236
2.90307
2.90383
2.90463
2.90549
2.9064
2.90737
2.90839
2.90948
2.91062
2.91184
2.91313
2.91452
2.91602
2.91777
2.91974
2.92173
2.92374
2.92574
2.92773
2.92971
2.93167
2.93361
2.93553
2.93743
2.9393
2.94114
2.94294
2.94469
2.94639
2.94802
2.94958
2.95105
2.95243
2.89341
2.89371
2.89403
2.89437
2.89472
2.89509
2.89548
2.89589
2.89632
2.89679
2.89728
2.8978
2.89835
2.89894
2.89958
2.90025
2.90097
2.90173
2.90254
2.90341
2.90433
2.90531
2.90635
2.90745
2.90861
2.90984
2.91113
2.91252
2.914
2.9156
2.91747
2.91957
2.92169
2.92382
2.92594
2.92806
2.93016
2.93225
2.93432
2.93637
2.93839
2.94039
2.94236
2.94429
2.94617
2.94799
2.94974
2.95142
2.95301
2.9545
2.89146
2.89178
2.89213
2.89248
2.89286
2.89326
2.89368
2.89412
2.89459
2.89508
2.89561
2.89616
2.89676
2.89739
2.89807
2.89879
2.89956
2.90038
2.90125
2.90218
2.90316
2.90421
2.90532
2.90649
2.90773
2.90904
2.91042
2.91189
2.91347
2.91518
2.91716
2.91939
2.92163
2.92389
2.92615
2.92839
2.93063
2.93284
2.93504
2.93721
2.93937
2.94149
2.94359
2.94565
2.94766
2.94961
2.9515
2.9533
2.95501
2.95662
2.88951
2.88985
2.89022
2.8906
2.891
2.89143
2.89187
2.89235
2.89284
2.89337
2.89393
2.89453
2.89516
2.89584
2.89656
2.89733
2.89815
2.89902
2.89995
2.90093
2.90198
2.9031
2.90428
2.90553
2.90685
2.90824
2.9097
2.91126
2.91294
2.91474
2.91684
2.9192
2.92158
2.92397
2.92635
2.92873
2.93109
2.93343
2.93576
2.93806
2.94035
2.94261
2.94484
2.94703
2.94918
2.95126
2.95327
2.95521
2.95704
2.95877
2.88755
2.88792
2.88831
2.88872
2.88915
2.8896
2.89007
2.89057
2.8911
2.89166
2.89226
2.89289
2.89356
2.89428
2.89504
2.89586
2.89672
2.89765
2.89864
2.89968
2.9008
2.90198
2.90323
2.90456
2.90595
2.90742
2.90897
2.91062
2.91239
2.9143
2.91651
2.919
2.92151
2.92403
2.92655
2.92906
2.93155
2.93402
2.93648
2.93892
2.94134
2.94373
2.9461
2.94843
2.95071
2.95293
2.95508
2.95715
2.95911
2.96097
2.8856
2.88599
2.8864
2.88683
2.88729
2.88776
2.88827
2.8888
2.88936
2.88995
2.89058
2.89125
2.89196
2.89271
2.89352
2.89438
2.8953
2.89627
2.89732
2.89842
2.8996
2.90085
2.90218
2.90358
2.90505
2.9066
2.90824
2.90997
2.91184
2.91384
2.91618
2.9188
2.92144
2.92409
2.92674
2.92938
2.932
2.93461
2.9372
2.93977
2.94233
2.94486
2.94737
2.94984
2.95227
2.95463
2.95692
2.95913
2.96123
2.96322
2.88365
2.88406
2.88449
2.88495
2.88543
2.88593
2.88646
2.88702
2.88761
2.88823
2.88889
2.8896
2.89035
2.89114
2.89199
2.8929
2.89386
2.89489
2.89599
2.89716
2.8984
2.89972
2.90111
2.90258
2.90414
2.90577
2.90749
2.90931
2.91127
2.91338
2.91583
2.91858
2.92136
2.92415
2.92693
2.9297
2.93245
2.93519
2.93792
2.94063
2.94333
2.946
2.94865
2.95127
2.95384
2.95635
2.95879
2.96114
2.96339
2.96552
2.88169
2.88213
2.88258
2.88306
2.88357
2.88409
2.88465
2.88524
2.88586
2.88651
2.88721
2.88795
2.88873
2.88957
2.89046
2.89141
2.89242
2.8935
2.89466
2.89588
2.89719
2.89857
2.90004
2.90158
2.90321
2.90492
2.90673
2.90864
2.9107
2.91291
2.91548
2.91836
2.92127
2.92418
2.9271
2.93
2.93289
2.93577
2.93863
2.94148
2.94432
2.94714
2.94994
2.95271
2.95544
2.9581
2.96069
2.96319
2.96559
2.96787
2.87974
2.88019
2.88067
2.88117
2.8817
2.88225
2.88284
2.88345
2.8841
2.88479
2.88552
2.88629
2.88711
2.88799
2.88892
2.88991
2.89098
2.89211
2.89332
2.8946
2.89597
2.89742
2.89895
2.90057
2.90227
2.90407
2.90595
2.90796
2.91011
2.91242
2.9151
2.91812
2.92116
2.92421
2.92726
2.93029
2.93332
2.93633
2.93934
2.94233
2.94532
2.94829
2.95124
2.95417
2.95705
2.95987
2.96262
2.96529
2.96784
2.97027
2.87778
2.87826
2.87876
2.87928
2.87983
2.88041
2.88102
2.88167
2.88234
2.88306
2.88382
2.88463
2.88549
2.8864
2.88737
2.88842
2.88952
2.89071
2.89197
2.89331
2.89474
2.89625
2.89786
2.89955
2.90133
2.9032
2.90517
2.90726
2.9095
2.91191
2.91472
2.91786
2.92103
2.92422
2.9274
2.93057
2.93373
2.93689
2.94003
2.94318
2.94631
2.94944
2.95255
2.95564
2.95868
2.96167
2.96459
2.96742
2.97014
2.97273
2.87582
2.87632
2.87684
2.87739
2.87796
2.87857
2.8792
2.87987
2.88058
2.88133
2.88212
2.88296
2.88386
2.88481
2.88582
2.88691
2.88807
2.8893
2.89061
2.89201
2.8935
2.89508
2.89675
2.89851
2.90036
2.90231
2.90437
2.90654
2.90888
2.91139
2.91431
2.91758
2.92089
2.9242
2.92752
2.93083
2.93413
2.93743
2.94072
2.94401
2.9473
2.95059
2.95386
2.95712
2.96033
2.9635
2.96659
2.96959
2.97249
2.97525
2.87386
2.87438
2.87493
2.8755
2.87609
2.87672
2.87738
2.87808
2.87881
2.87959
2.88041
2.88129
2.88222
2.88321
2.88427
2.8854
2.8866
2.88788
2.88925
2.89071
2.89225
2.89389
2.89563
2.89746
2.89939
2.90141
2.90355
2.90581
2.90824
2.91084
2.91388
2.91728
2.92072
2.92417
2.92762
2.93107
2.93451
2.93795
2.94139
2.94484
2.94829
2.95174
2.95518
2.95861
2.962
2.96535
2.96862
2.97181
2.97488
2.97783
2.8719
2.87244
2.87301
2.8736
2.87422
2.87487
2.87556
2.87628
2.87704
2.87785
2.8787
2.87961
2.88058
2.88161
2.88271
2.88388
2.88513
2.88646
2.88788
2.88939
2.89099
2.8927
2.8945
2.8964
2.8984
2.9005
2.90271
2.90506
2.90757
2.91028
2.91342
2.91696
2.92053
2.92411
2.9277
2.93128
2.93487
2.93846
2.94205
2.94565
2.94927
2.95289
2.9565
2.96011
2.96369
2.96722
2.97068
2.97406
2.97733
2.98047
2.86994
2.8705
2.87108
2.8717
2.87234
2.87302
2.87373
2.87448
2.87527
2.8761
2.87699
2.87793
2.87893
2.88
2.88114
2.88235
2.88365
2.88503
2.8865
2.88806
2.88972
2.89148
2.89335
2.89532
2.89739
2.89956
2.90185
2.90428
2.90688
2.90968
2.91294
2.9166
2.9203
2.92402
2.92774
2.93147
2.9352
2.93894
2.94269
2.94646
2.95024
2.95403
2.95783
2.96162
2.96539
2.96911
2.97277
2.97635
2.97982
2.98316
2.86798
2.86856
2.86916
2.8698
2.87046
2.87116
2.87189
2.87267
2.87349
2.87435
2.87527
2.87624
2.87728
2.87838
2.87956
2.88082
2.88216
2.88358
2.8851
2.88672
2.88844
2.89026
2.89219
2.89422
2.89636
2.89861
2.90097
2.90348
2.90617
2.90906
2.91243
2.91622
2.92005
2.9239
2.92776
2.93163
2.93551
2.9394
2.94331
2.94724
2.95119
2.95516
2.95915
2.96313
2.9671
2.97102
2.97489
2.97868
2.98236
2.98591
2.86602
2.86661
2.86724
2.86789
2.86858
2.8693
2.87006
2.87086
2.8717
2.8726
2.87354
2.87455
2.87562
2.87676
2.87798
2.87927
2.88066
2.88213
2.8837
2.88537
2.88714
2.88902
2.89101
2.89311
2.89531
2.89763
2.90007
2.90265
2.90543
2.90841
2.91189
2.9158
2.91976
2.92375
2.92775
2.93176
2.93579
2.93984
2.94391
2.94801
2.95213
2.95629
2.96046
2.96465
2.96881
2.97295
2.97703
2.98103
2.98494
2.98871
2.86406
2.86467
2.86531
2.86599
2.86669
2.86743
2.86822
2.86904
2.86991
2.87083
2.87181
2.87285
2.87395
2.87513
2.87638
2.87772
2.87914
2.88066
2.88228
2.884
2.88583
2.88776
2.88981
2.89197
2.89424
2.89663
2.89913
2.9018
2.90465
2.90773
2.91131
2.91535
2.91944
2.92356
2.9277
2.93186
2.93604
2.94024
2.94448
2.94875
2.95306
2.9574
2.96177
2.96615
2.97053
2.97489
2.97919
2.98342
2.98755
2.99156
2.86209
2.86272
2.86338
2.86408
2.8648
2.86557
2.86637
2.86722
2.86812
2.86907
2.87007
2.87114
2.87228
2.87349
2.87478
2.87615
2.87762
2.87918
2.88084
2.88261
2.88449
2.88649
2.88859
2.89081
2.89315
2.8956
2.89817
2.90091
2.90384
2.90701
2.9107
2.91486
2.91908
2.92334
2.92762
2.93192
2.93625
2.94061
2.94502
2.94946
2.95395
2.95849
2.96306
2.96765
2.97225
2.97683
2.98136
2.98583
2.9902
2.99445
2.86013
2.86077
2.86145
2.86217
2.86291
2.8637
2.86453
2.8654
2.86632
2.8673
2.86833
2.86943
2.87059
2.87184
2.87316
2.87457
2.87608
2.87768
2.87939
2.88121
2.88314
2.88519
2.88735
2.88963
2.89202
2.89453
2.89718
2.89998
2.90299
2.90625
2.91004
2.91433
2.91868
2.92307
2.92749
2.93194
2.93642
2.94095
2.94552
2.95014
2.95482
2.95955
2.96433
2.96914
2.97396
2.97877
2.98354
2.98825
2.99288
2.99738
2.85816
2.85882
2.85952
2.86025
2.86102
2.86183
2.86268
2.86357
2.86452
2.86552
2.86658
2.8677
2.8689
2.87017
2.87153
2.87298
2.87453
2.87617
2.87793
2.87979
2.88177
2.88387
2.88608
2.88842
2.89087
2.89344
2.89614
2.89902
2.90211
2.90545
2.90935
2.91375
2.91823
2.92275
2.92732
2.93192
2.93655
2.94124
2.94598
2.95078
2.95565
2.96058
2.96557
2.9706
2.97565
2.9807
2.98573
2.99069
2.99558
3.00036
2.85619
2.85687
2.85759
2.85834
2.85913
2.85995
2.86082
2.86174
2.86271
2.86373
2.86482
2.86597
2.8672
2.8685
2.86989
2.87138
2.87296
2.87464
2.87644
2.87835
2.88037
2.88252
2.88479
2.88717
2.88968
2.89231
2.89507
2.89802
2.90118
2.9046
2.9086
2.91313
2.91773
2.92239
2.92709
2.93184
2.93663
2.94148
2.94639
2.95138
2.95644
2.96158
2.96678
2.97204
2.97733
2.98263
2.98791
2.99314
2.99831
3.00337
2.85422
2.85492
2.85565
2.85642
2.85723
2.85807
2.85896
2.8599
2.86089
2.86194
2.86305
2.86423
2.86548
2.86681
2.86824
2.86975
2.87137
2.87309
2.87493
2.87688
2.87895
2.88114
2.88346
2.8859
2.88845
2.89114
2.89396
2.89697
2.90021
2.90371
2.90781
2.91246
2.91718
2.92197
2.92682
2.93171
2.93665
2.94167
2.94675
2.95192
2.95718
2.96253
2.96795
2.97344
2.97898
2.98453
2.99009
2.9956
3.00106
3.00643
2.85225
2.85296
2.85372
2.8545
2.85533
2.85619
2.8571
2.85806
2.85907
2.86014
2.86127
2.86248
2.86375
2.86512
2.86657
2.86811
2.86977
2.87152
2.8734
2.87539
2.8775
2.87974
2.8821
2.88458
2.88719
2.88993
2.89281
2.89588
2.89919
2.90277
2.90697
2.91173
2.91658
2.9215
2.92648
2.93151
2.93662
2.94179
2.94705
2.95241
2.95787
2.96342
2.96907
2.9748
2.98059
2.98642
2.99226
2.99807
3.00383
3.00952
2.85028
2.85101
2.85178
2.85258
2.85342
2.8543
2.85523
2.85621
2.85724
2.85833
2.85949
2.86071
2.86201
2.8634
2.86488
2.86646
2.86814
2.86993
2.87184
2.87387
2.87602
2.8783
2.8807
2.88323
2.88589
2.88867
2.89161
2.89474
2.89811
2.90177
2.90607
2.91094
2.91591
2.92096
2.92607
2.93125
2.93651
2.94185
2.94728
2.95283
2.95849
2.96426
2.97014
2.97612
2.98217
2.98828
2.99441
3.00054
3.00662
3.01265
2.84831
2.84905
2.84983
2.85065
2.85151
2.85241
2.85336
2.85435
2.8554
2.85651
2.85769
2.85894
2.86026
2.86167
2.86318
2.86478
2.86649
2.86832
2.87026
2.87232
2.8745
2.87682
2.87926
2.88184
2.88454
2.88737
2.89036
2.89355
2.89699
2.90072
2.90511
2.91009
2.91518
2.92035
2.9256
2.93092
2.93632
2.94183
2.94744
2.95317
2.95903
2.96503
2.97115
2.97738
2.98371
2.99012
2.99656
3.00301
3.00944
3.01582
2.84633
2.84709
2.84789
2.84872
2.8496
2.85051
2.85148
2.85249
2.85356
2.85469
2.85588
2.85715
2.8585
2.85993
2.86146
2.86309
2.86482
2.86667
2.86864
2.87074
2.87296
2.87531
2.87779
2.8804
2.88314
2.88602
2.88906
2.8923
2.8958
2.89961
2.90408
2.90917
2.91437
2.91966
2.92504
2.9305
2.93606
2.94172
2.94751
2.95344
2.95951
2.96573
2.97209
2.97859
2.98521
2.99192
2.99869
3.00548
3.01227
3.01902
2.84436
2.84513
2.84594
2.84679
2.84768
2.84861
2.84959
2.85062
2.8517
2.85285
2.85406
2.85535
2.85671
2.85817
2.85972
2.86137
2.86313
2.86501
2.867
2.86912
2.87137
2.87375
2.87626
2.87891
2.88169
2.88461
2.8877
2.89099
2.89455
2.89843
2.90298
2.90817
2.91348
2.91889
2.9244
2.93
2.9357
2.94153
2.94749
2.95361
2.95989
2.96635
2.97297
2.97974
2.98666
2.99369
3.0008
3.00795
3.01512
3.02227
2.84238
2.84316
2.84399
2.84485
2.84575
2.8467
2.84769
2.84873
2.84983
2.85099
2.85222
2.85353
2.85491
2.85639
2.85795
2.85963
2.86141
2.86331
2.86532
2.86747
2.86974
2.87215
2.8747
2.87738
2.88019
2.88315
2.88628
2.88963
2.89324
2.89718
2.90181
2.9071
2.91251
2.91804
2.92366
2.9294
2.93525
2.94123
2.94738
2.95369
2.96019
2.96688
2.97377
2.98083
2.98806
2.99542
3.00288
3.01042
3.01798
3.02554
2.8404
2.84119
2.84203
2.8429
2.84382
2.84478
2.84578
2.84684
2.84795
2.84913
2.85037
2.85169
2.85309
2.85458
2.85617
2.85786
2.85966
2.86157
2.86361
2.86578
2.86808
2.87051
2.87308
2.87579
2.87864
2.88164
2.8848
2.88819
2.89185
2.89585
2.90056
2.90594
2.91145
2.91708
2.92283
2.92869
2.93469
2.94084
2.94716
2.95367
2.96039
2.96733
2.97449
2.98185
2.9894
2.9971
3.00494
3.01287
3.02084
3.02883
2.83842
2.83922
2.84007
2.84095
2.84188
2.84285
2.84386
2.84493
2.84606
2.84725
2.84851
2.84984
2.85125
2.85276
2.85436
2.85606
2.85788
2.85981
2.86187
2.86405
2.86637
2.86882
2.87142
2.87416
2.87703
2.88006
2.88326
2.88668
2.89039
2.89444
2.89922
2.90468
2.91029
2.91603
2.92189
2.92788
2.93402
2.94033
2.94683
2.95355
2.96049
2.96769
2.97512
2.98279
2.99067
2.99873
3.00695
3.01529
3.02369
3.03213
2.83643
2.83725
2.8381
2.839
2.83993
2.84091
2.84194
2.84302
2.84416
2.84536
2.84662
2.84797
2.84939
2.85091
2.85252
2.85424
2.85607
2.85801
2.86008
2.86228
2.86461
2.86709
2.8697
2.87246
2.87536
2.87841
2.88164
2.8851
2.88886
2.89295
2.89779
2.90333
2.90903
2.91487
2.92084
2.92695
2.93323
2.9397
2.94638
2.95331
2.96049
2.96794
2.97566
2.98364
2.99186
3.0003
3.00891
3.01767
3.02652
3.03542
2.83445
2.83527
2.83613
2.83704
2.83798
2.83897
2.84
2.84109
2.84224
2.84345
2.84472
2.84608
2.84751
2.84904
2.85066
2.85238
2.85422
2.85617
2.85825
2.86046
2.86281
2.8653
2.86793
2.87071
2.87363
2.8767
2.87995
2.88344
2.88723
2.89137
2.89627
2.90188
2.90766
2.91359
2.91966
2.9259
2.93232
2.93895
2.94582
2.95295
2.96037
2.96808
2.97609
2.98439
2.99296
3.00178
3.0108
3.01998
3.0293
3.03869
2.83246
2.83329
2.83416
2.83507
2.83602
2.83701
2.83805
2.83915
2.8403
2.84152
2.8428
2.84416
2.8456
2.84713
2.84876
2.85049
2.85234
2.8543
2.85639
2.85861
2.86096
2.86346
2.86611
2.86889
2.87183
2.87492
2.87819
2.8817
2.88552
2.8897
2.89464
2.90032
2.90617
2.91219
2.91836
2.92472
2.93127
2.93806
2.94512
2.95246
2.96012
2.9681
2.97641
2.98503
2.99396
3.00315
3.01259
3.02222
3.03201
3.0419
2.83047
2.8313
2.83218
2.83309
2.83405
2.83505
2.83609
2.8372
2.83835
2.83957
2.84086
2.84223
2.84367
2.84521
2.84684
2.84857
2.85042
2.85238
2.85447
2.8567
2.85906
2.86157
2.86422
2.86701
2.86996
2.87306
2.87634
2.87987
2.88372
2.88792
2.89291
2.89864
2.90457
2.91066
2.91693
2.9234
2.9301
2.93705
2.94429
2.95184
2.95974
2.96798
2.97659
2.98554
2.99482
3.00441
3.01426
3.02435
3.03462
3.04504
2.82848
2.82932
2.8302
2.83112
2.83207
2.83307
2.83412
2.83523
2.83639
2.83761
2.8389
2.84027
2.84171
2.84325
2.84488
2.84661
2.84846
2.85043
2.85252
2.85474
2.85711
2.85962
2.86227
2.86507
2.86801
2.87112
2.87441
2.87796
2.88181
2.88604
2.89107
2.89685
2.90283
2.909
2.91537
2.92195
2.92878
2.93589
2.94331
2.95108
2.95921
2.96772
2.97662
2.9859
2.99554
3.00551
3.01579
3.02635
3.03713
3.04809
2.82649
2.82733
2.82821
2.82913
2.83009
2.83109
2.83214
2.83325
2.83441
2.83563
2.83692
2.83828
2.83972
2.84126
2.84289
2.84462
2.84646
2.84843
2.85052
2.85274
2.8551
2.85761
2.86026
2.86305
2.86599
2.8691
2.87239
2.87594
2.87981
2.88406
2.88911
2.89493
2.90097
2.90721
2.91366
2.92035
2.92731
2.93458
2.94218
2.95015
2.95851
2.96728
2.97647
2.98608
2.99607
3.00645
3.01716
3.02819
3.0395
3.05103
2.8245
2.82534
2.82622
2.82714
2.82809
2.8291
2.83015
2.83125
2.83241
2.83362
2.83491
2.83627
2.83771
2.83924
2.84086
2.84258
2.84442
2.84638
2.84846
2.85068
2.85304
2.85553
2.85817
2.86096
2.8639
2.86699
2.87028
2.87383
2.8777
2.88196
2.88703
2.89288
2.89897
2.90527
2.91181
2.91861
2.92569
2.9331
2.94088
2.94905
2.95763
2.96666
2.97614
2.98606
2.99641
3.00718
3.01834
3.02986
3.04171
3.05383
2.8225
2.82334
2.82422
2.82514
2.82609
2.82709
2.82814
2.82924
2.83039
2.8316
2.83288
2.83423
2.83566
2.83718
2.8388
2.84051
2.84234
2.84429
2.84636
2.84857
2.85091
2.85339
2.85602
2.8588
2.86172
2.8648
2.86808
2.87162
2.87548
2.87974
2.88482
2.8907
2.89683
2.9032
2.90981
2.9167
2.9239
2.93146
2.9394
2.94775
2.95656
2.96583
2.97558
2.98582
2.99653
3.0077
3.01931
3.03134
3.04374
3.05649
2.82051
2.82134
2.82222
2.82313
2.82408
2.82507
2.82612
2.82721
2.82835
2.82955
2.83082
2.83217
2.83359
2.83509
2.8367
2.8384
2.84022
2.84215
2.84421
2.8464
2.84872
2.85119
2.8538
2.85655
2.85945
2.86251
2.86577
2.8693
2.87315
2.8774
2.88249
2.88839
2.89455
2.90097
2.90765
2.91463
2.92194
2.92962
2.93772
2.94625
2.95525
2.96476
2.97478
2.98533
2.9964
3.00798
3.02005
3.03259
3.04558
3.05896
2.81851
2.81934
2.82021
2.82112
2.82206
2.82305
2.82408
2.82516
2.82629
2.82749
2.82874
2.83007
2.83148
2.83297
2.83456
2.83625
2.83804
2.83996
2.842
2.84416
2.84647
2.84891
2.8515
2.85422
2.8571
2.86013
2.86337
2.86687
2.8707
2.87494
2.88002
2.88593
2.89212
2.89858
2.90532
2.91238
2.91979
2.92759
2.93582
2.94451
2.95371
2.96344
2.97373
2.98458
2.99601
3.008
3.02054
3.03361
3.04719
3.06124
2.81651
2.81734
2.8182
2.8191
2.82003
2.82101
2.82203
2.82309
2.82422
2.8254
2.82664
2.82795
2.82934
2.83082
2.83238
2.83405
2.83583
2.83772
2.83973
2.84187
2.84415
2.84656
2.84912
2.85181
2.85465
2.85766
2.86086
2.86432
2.86813
2.87235
2.87742
2.88334
2.88954
2.89603
2.90283
2.90995
2.91744
2.92534
2.93369
2.94253
2.9519
2.96184
2.97238
2.98354
2.99532
3.00773
3.02075
3.03437
3.04856
3.06329
2.81451
2.81533
2.81618
2.81707
2.81799
2.81895
2.81996
2.82101
2.82212
2.82328
2.82451
2.8258
2.82717
2.82862
2.83017
2.83181
2.83356
2.83542
2.83741
2.83952
2.84176
2.84414
2.84666
2.84931
2.85211
2.85508
2.85824
2.86167
2.86544
2.86964
2.87469
2.8806
2.88681
2.89332
2.90015
2.90732
2.91487
2.92286
2.93131
2.94028
2.94981
2.95995
2.97074
2.98219
2.99433
3.00716
3.02067
3.03484
3.04966
3.06508
2.81251
2.81332
2.81416
2.81503
2.81594
2.81688
2.81788
2.81891
2.82
2.82114
2.82235
2.82362
2.82497
2.82639
2.82791
2.82953
2.83125
2.83308
2.83503
2.8371
2.83931
2.84164
2.84412
2.84673
2.84948
2.85239
2.85551
2.85889
2.86263
2.86679
2.87181
2.8777
2.88391
2.89043
2.89728
2.90448
2.91208
2.92012
2.92866
2.93774
2.94742
2.95775
2.96877
2.98052
2.99301
3.00626
3.02025
3.03499
3.05044
3.06657
2.81051
2.8113
2.81213
2.81298
2.81387
2.8148
2.81578
2.81679
2.81786
2.81898
2.82016
2.82141
2.82273
2.82413
2.82562
2.8272
2.82888
2.83068
2.83259
2.83462
2.83678
2.83907
2.84149
2.84405
2.84675
2.84961
2.85267
2.856
2.85969
2.86381
2.8688
2.87466
2.88085
2.88736
2.8942
2.90141
2.90904
2.91712
2.92572
2.9349
2.94471
2.95521
2.96647
2.9785
2.99134
3.005
3.01948
3.03478
3.05086
3.0677
2.80851
2.80928
2.81009
2.81093
2.8118
2.81271
2.81366
2.81466
2.8157
2.8168
2.81795
2.81917
2.82046
2.82183
2.82328
2.82483
2.82647
2.82822
2.83009
2.83207
2.83418
2.83642
2.83878
2.84128
2.84392
2.84672
2.84972
2.85299
2.85663
2.8607
2.86564
2.87146
2.87761
2.88409
2.89091
2.89811
2.90574
2.91384
2.92249
2.93174
2.94167
2.95233
2.9638
2.97612
2.9893
3.00336
3.01832
3.03416
3.05087
3.06842
2.80651
2.80726
2.80805
2.80887
2.80972
2.8106
2.81153
2.8125
2.81352
2.81459
2.81571
2.8169
2.81816
2.81949
2.8209
2.82241
2.82401
2.82571
2.82752
2.82945
2.83151
2.83368
2.83599
2.83842
2.84099
2.84372
2.84665
2.84986
2.85344
2.85745
2.86233
2.86809
2.87419
2.88062
2.8874
2.89456
2.90217
2.91027
2.91894
2.92825
2.93828
2.94909
2.96077
2.97334
2.98684
3.0013
3.01671
3.03308
3.05041
3.06868
2.8045
2.80524
2.806
2.8068
2.80762
2.80849
2.80939
2.81033
2.81132
2.81235
2.81345
2.8146
2.81582
2.81711
2.81848
2.81994
2.82149
2.82314
2.8249
2.82677
2.82876
2.83087
2.8331
2.83546
2.83796
2.84061
2.84347
2.84661
2.85012
2.85407
2.85887
2.86455
2.87057
2.87693
2.88365
2.89076
2.89831
2.90639
2.91507
2.92442
2.93453
2.94548
2.95733
2.97015
2.98395
2.99876
3.0146
3.03149
3.04942
3.0684
2.8025
2.80321
2.80395
2.80472
2.80552
2.80635
2.80723
2.80814
2.80909
2.8101
2.81115
2.81227
2.81345
2.8147
2.81602
2.81743
2.81892
2.82052
2.82222
2.82402
2.82594
2.82798
2.83013
2.83241
2.83482
2.8374
2.84018
2.84324
2.84667
2.85054
2.85526
2.86084
2.86677
2.87303
2.87965
2.88668
2.89417
2.9022
2.91086
2.92023
2.9304
2.94146
2.95348
2.9665
2.98057
2.99571
3.01195
3.02933
3.04785
3.06754
2.8005
2.80118
2.8019
2.80264
2.80341
2.80421
2.80505
2.80593
2.80685
2.80782
2.80883
2.80991
2.81104
2.81224
2.81352
2.81487
2.81631
2.81784
2.81947
2.82121
2.82305
2.825
2.82707
2.82927
2.83159
2.83408
2.83678
2.83976
2.8431
2.84688
2.85149
2.85695
2.86275
2.8689
2.8754
2.88232
2.88972
2.89769
2.90631
2.91568
2.92589
2.93703
2.94917
2.96237
2.97666
2.9921
3.0087
3.02654
3.04563
3.06601
2.79849
2.79915
2.79984
2.80055
2.80129
2.80206
2.80286
2.8037
2.80459
2.80551
2.80649
2.80752
2.8086
2.80975
2.81097
2.81226
2.81364
2.81511
2.81666
2.81832
2.82008
2.82195
2.82393
2.82603
2.82826
2.83066
2.83326
2.83615
2.83939
2.84307
2.84755
2.85287
2.85853
2.86453
2.87089
2.87768
2.88497
2.89284
2.90141
2.91075
2.92098
2.93216
2.94439
2.95771
2.97219
2.98787
3.0048
3.02306
3.0427
3.06377
2.79649
2.79712
2.79777
2.79845
2.79916
2.79989
2.80066
2.80146
2.8023
2.80319
2.80412
2.80509
2.80613
2.80722
2.80838
2.80961
2.81092
2.81231
2.8138
2.81537
2.81704
2.81882
2.8207
2.8227
2.82483
2.82713
2.82963
2.83242
2.83555
2.83911
2.84345
2.84861
2.85409
2.85992
2.86612
2.87275
2.8799
2.88767
2.89615
2.90544
2.91564
2.92683
2.93909
2.9525
2.9671
2.98298
3.0002
3.01885
3.03901
3.06074
2.79449
2.79509
2.79571
2.79635
2.79702
2.79771
2.79844
2.7992
2.8
2.80084
2.80172
2.80264
2.80362
2.80466
2.80575
2.80692
2.80816
2.80947
2.81087
2.81235
2.81393
2.81561
2.81739
2.81928
2.82131
2.8235
2.8259
2.82857
2.83158
2.835
2.83918
2.84415
2.84944
2.85507
2.86107
2.86753
2.87452
2.88215
2.89052
2.89972
2.90985
2.921
2.93325
2.94667
2.96136
2.97738
2.99485
3.01385
3.03449
3.05684
2.79249
2.79305
2.79364
2.79424
2.79487
2.79553
2.79621
2.79693
2.79768
2.79847
2.79929
2.80016
2.80108
2.80206
2.80309
2.80418
2.80534
2.80657
2.80788
2.80927
2.81075
2.81232
2.81399
2.81578
2.8177
2.81977
2.82205
2.8246
2.82748
2.83074
2.83474
2.83949
2.84456
2.84997
2.85576
2.86202
2.86883
2.8763
2.88452
2.89359
2.9036
2.91465
2.92683
2.94022
2.95492
2.97104
2.9887
3.00801
3.02908
3.05201
2.79049
2.79102
2.79156
2.79213
2.79272
2.79333
2.79397
2.79464
2.79534
2.79607
2.79685
2.79766
2.79852
2.79942
2.80038
2.8014
2.80247
2.80362
2.80483
2.80612
2.8075
2.80896
2.81052
2.81219
2.81399
2.81595
2.8181
2.82051
2.82324
2.82634
2.83013
2.83464
2.83947
2.84463
2.85019
2.85622
2.86282
2.87009
2.87813
2.88702
2.89687
2.90776
2.9198
2.9331
2.94776
2.96392
2.98171
3.00126
3.0227
3.04615
2.78849
2.78898
2.78949
2.79001
2.79056
2.79113
2.79172
2.79234
2.79298
2.79366
2.79437
2.79512
2.79592
2.79675
2.79763
2.79857
2.79956
2.80061
2.80173
2.80291
2.80418
2.80552
2.80697
2.80852
2.81019
2.81202
2.81404
2.8163
2.81887
2.82178
2.82534
2.8296
2.83415
2.83905
2.84435
2.85013
2.85649
2.86353
2.87134
2.88001
2.88962
2.9003
2.91215
2.92529
2.93985
2.95599
2.97384
2.99355
3.01528
3.03915
2.78649
2.78694
2.78741
2.78789
2.78839
2.78891
2.78945
2.79002
2.79061
2.79123
2.79188
2.79257
2.79329
2.79405
2.79485
2.7957
2.7966
2.79756
2.79857
2.79965
2.80079
2.80202
2.80334
2.80477
2.80631
2.808
2.80988
2.81198
2.81436
2.81707
2.82039
2.82436
2.82862
2.83323
2.83825
2.84376
2.84985
2.85662
2.86415
2.87253
2.88186
2.89226
2.90384
2.91676
2.93116
2.9472
2.96503
2.98482
3.00673
3.03093
2.78449
2.78491
2.78533
2.78577
2.78622
2.78669
2.78718
2.78769
2.78822
2.78878
2.78937
2.78998
2.79063
2.79131
2.79204
2.7928
2.7936
2.79446
2.79536
2.79632
2.79735
2.79846
2.79965
2.80094
2.80235
2.80389
2.80561
2.80754
2.80973
2.81222
2.81527
2.81893
2.82288
2.82718
2.83189
2.8371
2.84289
2.84934
2.85654
2.86458
2.87356
2.88362
2.89488
2.90751
2.92167
2.93752
2.95523
2.97498
2.99695
3.02136
2.7825
2.78287
2.78325
2.78364
2.78404
2.78446
2.78489
2.78535
2.78582
2.78631
2.78683
2.78738
2.78795
2.78855
2.78918
2.78985
2.79056
2.79131
2.7921
2.79294
2.79385
2.79483
2.79588
2.79704
2.7983
2.79969
2.80124
2.80299
2.80496
2.80722
2.80998
2.81332
2.81694
2.8209
2.82528
2.83016
2.8356
2.84169
2.84851
2.85615
2.86473
2.87438
2.88525
2.89753
2.91136
2.92692
2.9444
2.96397
2.98587
3.01035
2.78051
2.78083
2.78116
2.7815
2.78185
2.78222
2.7826
2.78299
2.7834
2.78383
2.78428
2.78475
2.78524
2.78576
2.7863
2.78687
2.78748
2.78812
2.78879
2.78952
2.79029
2.79114
2.79206
2.79307
2.79418
2.79541
2.79678
2.79832
2.80008
2.80208
2.80454
2.80753
2.8108
2.81441
2.81843
2.82294
2.828
2.83368
2.84006
2.84725
2.85535
2.86454
2.87496
2.88679
2.9002
2.91536
2.93246
2.95172
2.9734
2.99779
2.77852
2.7788
2.77908
2.77937
2.77966
2.77997
2.78029
2.78062
2.78097
2.78133
2.7817
2.7821
2.78251
2.78294
2.78339
2.78386
2.78436
2.78488
2.78544
2.78604
2.78669
2.78739
2.78817
2.78903
2.78998
2.79104
2.79222
2.79356
2.79507
2.79681
2.79895
2.80157
2.80447
2.80771
2.81135
2.81545
2.82008
2.8253
2.83119
2.83786
2.84545
2.8541
2.86399
2.87529
2.88816
2.90279
2.91938
2.93816
2.95945
2.98359
2.77653
2.77676
2.77699
2.77723
2.77747
2.77772
2.77798
2.77825
2.77853
2.77882
2.77912
2.77943
2.77975
2.78009
2.78045
2.78082
2.7812
2.78161
2.78205