/*--------------------------------*- C++ -*----------------------------------*\
  =========                 |
  \\      /  F ield         | OpenFOAM: The Open Source CFD Toolbox
   \\    /   O peration     | Website:  https://openfoam.org
    \\  /    A nd           | Version:  9
     \\/     M anipulation  |
\*---------------------------------------------------------------------------*/
FoamFile
{
    format      ascii;
    class       surfaceScalarField;
    location    "0.15";
    object      phi;
}
// * * * * * * * * * * * * * * * * * * * * * * * * * * * * * * * * * * * * * //

dimensions      [0 3 -1 0 0 0 0];

internalField   nonuniform List<scalar> 
9850
(
3.1346e-07
2.98494e-06
3.13452e-07
3.12993e-06
3.1345e-07
3.28262e-06
3.13451e-07
3.44344e-06
3.13455e-07
3.61313e-06
3.13464e-07
3.79258e-06
3.13484e-07
3.98285e-06
3.1352e-07
4.18508e-06
3.13576e-07
4.4004e-06
3.13654e-07
4.62981e-06
3.13749e-07
4.87403e-06
3.13849e-07
5.1334e-06
3.13936e-07
5.4079e-06
3.13995e-07
5.69724e-06
3.14015e-07
6.001e-06
3.13989e-07
6.3188e-06
3.13919e-07
6.65038e-06
3.13812e-07
6.9956e-06
3.13671e-07
7.35435e-06
3.13504e-07
7.72642e-06
3.13318e-07
8.11121e-06
3.1313e-07
8.50745e-06
3.12976e-07
8.91298e-06
3.1291e-07
9.32534e-06
3.12977e-07
9.74494e-06
3.13155e-07
1.01813e-05
3.13369e-07
1.0656e-05
3.13547e-07
1.11898e-05
3.136e-07
1.178e-05
3.13489e-07
1.24022e-05
3.13257e-07
1.52085e-05
3.1305e-07
1.51987e-05
3.12933e-07
1.51541e-05
3.12911e-07
1.50857e-05
3.12963e-07
1.50038e-05
3.1305e-07
1.4919e-05
3.13139e-07
1.48406e-05
3.13211e-07
1.47744e-05
3.13259e-07
1.4723e-05
3.13287e-07
1.46866e-05
3.13301e-07
1.46637e-05
3.13309e-07
1.46506e-05
3.13316e-07
1.46414e-05
3.13321e-07
1.46306e-05
3.13339e-07
1.46147e-05
3.13346e-07
1.45931e-05
3.13361e-07
1.45662e-05
3.13378e-07
1.45356e-05
3.13393e-07
1.45032e-05
1.44714e-05
3.13705e-07
2.98497e-06
3.13693e-07
3.12994e-06
3.13692e-07
3.28262e-06
3.13698e-07
3.44344e-06
3.1371e-07
3.61312e-06
3.13717e-07
3.79258e-06
3.13752e-07
3.98281e-06
3.13809e-07
4.18502e-06
3.13899e-07
4.40031e-06
3.14025e-07
4.62968e-06
3.14184e-07
4.87387e-06
3.14358e-07
5.13323e-06
3.14518e-07
5.40774e-06
3.14633e-07
5.69713e-06
3.14675e-07
6.00096e-06
3.14625e-07
6.31885e-06
3.14479e-07
6.65052e-06
3.14241e-07
6.99583e-06
3.13922e-07
7.35467e-06
3.13542e-07
7.7268e-06
3.13128e-07
8.11162e-06
3.12734e-07
8.50785e-06
3.12445e-07
8.91327e-06
3.12362e-07
9.32542e-06
3.12524e-07
9.74477e-06
3.12832e-07
1.01809e-05
3.13145e-07
1.06557e-05
3.13405e-07
1.11895e-05
3.13503e-07
1.17799e-05
3.1332e-07
1.24024e-05
3.12867e-07
1.52089e-05
3.12411e-07
1.51992e-05
3.12131e-07
1.51544e-05
3.12065e-07
1.50858e-05
3.12168e-07
1.50037e-05
3.12359e-07
1.49188e-05
3.12567e-07
1.48404e-05
3.12745e-07
1.47743e-05
3.12874e-07
1.47229e-05
3.12952e-07
1.46865e-05
3.12998e-07
1.46637e-05
3.13028e-07
1.46506e-05
3.13053e-07
1.46414e-05
3.13064e-07
1.46305e-05
3.13153e-07
1.46146e-05
3.1317e-07
1.45931e-05
3.13213e-07
1.45662e-05
3.13265e-07
1.45356e-05
3.13309e-07
1.45032e-05
1.44714e-05
3.13866e-07
2.98497e-06
3.13864e-07
3.12994e-06
3.13869e-07
3.28261e-06
3.13881e-07
3.44342e-06
3.13896e-07
3.6131e-06
3.13933e-07
3.79254e-06
3.13971e-07
3.98278e-06
3.14035e-07
4.18495e-06
3.14134e-07
4.40021e-06
3.14274e-07
4.62954e-06
3.1445e-07
4.87369e-06
3.14643e-07
5.13303e-06
3.1482e-07
5.40757e-06
3.14943e-07
5.69701e-06
3.14976e-07
6.00093e-06
3.14894e-07
6.31893e-06
3.14687e-07
6.65073e-06
3.14358e-07
6.99616e-06
3.1392e-07
7.35511e-06
3.13401e-07
7.72732e-06
3.12844e-07
8.11218e-06
3.12323e-07
8.50837e-06
3.11952e-07
8.91364e-06
3.11857e-07
9.32552e-06
3.12072e-07
9.74456e-06
3.12456e-07
1.01806e-05
3.1282e-07
1.06553e-05
3.13091e-07
1.11893e-05
3.13163e-07
1.17798e-05
3.12905e-07
1.24027e-05
3.12304e-07
1.52095e-05
3.11694e-07
1.51998e-05
3.11308e-07
1.51548e-05
3.11208e-07
1.50859e-05
3.11342e-07
1.50036e-05
3.11606e-07
1.49185e-05
3.119e-07
1.48401e-05
3.1216e-07
1.4774e-05
3.12356e-07
1.47227e-05
3.12483e-07
1.46863e-05
3.12562e-07
1.46636e-05
3.12619e-07
1.46505e-05
3.12674e-07
1.46413e-05
3.12753e-07
1.46305e-05
3.12772e-07
1.46146e-05
3.1285e-07
1.4593e-05
3.1294e-07
1.45661e-05
3.13029e-07
1.45355e-05
3.13107e-07
1.45031e-05
1.44713e-05
3.13866e-07
2.98497e-06
3.13869e-07
3.12994e-06
3.13879e-07
3.2826e-06
3.13895e-07
3.44341e-06
3.1392e-07
3.61308e-06
3.13956e-07
3.7925e-06
3.14007e-07
3.98273e-06
3.14086e-07
4.18488e-06
3.14201e-07
4.40009e-06
3.1436e-07
4.62938e-06
3.14556e-07
4.8735e-06
3.14766e-07
5.13282e-06
3.14955e-07
5.40738e-06
3.15079e-07
5.69688e-06
3.15099e-07
6.00091e-06
3.14985e-07
6.31904e-06
3.14725e-07
6.65099e-06
3.14321e-07
6.99657e-06
3.13789e-07
7.35564e-06
3.13162e-07
7.72795e-06
3.12491e-07
8.11285e-06
3.11863e-07
8.50899e-06
3.11411e-07
8.91409e-06
3.11277e-07
9.32565e-06
3.11501e-07
9.74434e-06
3.11932e-07
1.01801e-05
3.12353e-07
1.06549e-05
3.12655e-07
1.1189e-05
3.12707e-07
1.17798e-05
3.12373e-07
1.2403e-05
3.11639e-07
1.52103e-05
3.10898e-07
1.52005e-05
3.10422e-07
1.51553e-05
3.10289e-07
1.5086e-05
3.10443e-07
1.50034e-05
3.1076e-07
1.49182e-05
3.11124e-07
1.48397e-05
3.11453e-07
1.47737e-05
3.11708e-07
1.47224e-05
3.11883e-07
1.46862e-05
3.11999e-07
1.46635e-05
3.12089e-07
1.46504e-05
3.12175e-07
1.46412e-05
3.12267e-07
1.46304e-05
3.12332e-07
1.46146e-05
3.12431e-07
1.45929e-05
3.12551e-07
1.4566e-05
3.12679e-07
1.45354e-05
3.12796e-07
1.4503e-05
1.44713e-05
3.137e-07
2.98497e-06
3.13703e-07
3.12993e-06
3.13711e-07
3.2826e-06
3.13726e-07
3.44339e-06
3.13751e-07
3.61305e-06
3.13788e-07
3.79246e-06
3.13847e-07
3.98267e-06
3.13937e-07
4.18479e-06
3.14068e-07
4.39996e-06
3.14246e-07
4.6292e-06
3.14463e-07
4.87328e-06
3.14693e-07
5.13259e-06
3.14898e-07
5.40717e-06
3.1503e-07
5.69675e-06
3.15045e-07
6.00089e-06
3.1491e-07
6.31918e-06
3.1461e-07
6.65129e-06
3.14149e-07
6.99703e-06
3.13544e-07
7.35624e-06
3.12832e-07
7.72866e-06
3.12069e-07
8.11361e-06
3.11354e-07
8.50971e-06
3.10827e-07
8.91461e-06
3.10639e-07
9.32584e-06
3.10836e-07
9.74414e-06
3.11268e-07
1.01797e-05
3.11717e-07
1.06544e-05
3.12051e-07
1.11886e-05
3.12107e-07
1.17797e-05
3.11729e-07
1.24034e-05
3.10888e-07
1.52111e-05
3.10034e-07
1.52014e-05
3.09475e-07
1.51558e-05
3.09303e-07
1.50862e-05
3.0946e-07
1.50033e-05
3.09812e-07
1.49179e-05
3.10226e-07
1.48393e-05
3.10611e-07
1.47733e-05
3.10918e-07
1.47221e-05
3.1114e-07
1.4686e-05
3.11298e-07
1.46633e-05
3.11422e-07
1.46503e-05
3.11539e-07
1.46411e-05
3.11655e-07
1.46303e-05
3.11772e-07
1.46144e-05
3.11908e-07
1.45927e-05
3.12054e-07
1.45658e-05
3.12217e-07
1.45352e-05
3.12373e-07
1.45028e-05
1.44711e-05
3.13371e-07
2.98497e-06
3.1337e-07
3.12993e-06
3.13373e-07
3.28259e-06
3.13384e-07
3.44338e-06
3.13405e-07
3.61303e-06
3.13441e-07
3.79243e-06
3.13503e-07
3.98261e-06
3.136e-07
4.18469e-06
3.13744e-07
4.39982e-06
3.13938e-07
4.62901e-06
3.14174e-07
4.87304e-06
3.14423e-07
5.13234e-06
3.14645e-07
5.40695e-06
3.14787e-07
5.69661e-06
3.14803e-07
6.00088e-06
3.14657e-07
6.31933e-06
3.14331e-07
6.65161e-06
3.13829e-07
6.99753e-06
3.1317e-07
7.3569e-06
3.12394e-07
7.72943e-06
3.11562e-07
8.11444e-06
3.10777e-07
8.51049e-06
3.10184e-07
8.91521e-06
3.09934e-07
9.32609e-06
3.10075e-07
9.744e-06
3.10473e-07
1.01793e-05
3.10922e-07
1.0654e-05
3.1128e-07
1.11883e-05
3.11351e-07
1.17796e-05
3.10953e-07
1.24038e-05
3.10035e-07
1.5212e-05
3.09089e-07
1.52023e-05
3.08453e-07
1.51564e-05
3.08238e-07
1.50864e-05
3.08384e-07
1.50031e-05
3.08753e-07
1.49175e-05
3.09202e-07
1.48388e-05
3.09631e-07
1.47729e-05
3.09985e-07
1.47217e-05
3.10252e-07
1.46857e-05
3.10453e-07
1.46631e-05
3.10617e-07
1.46501e-05
3.10769e-07
1.4641e-05
3.10921e-07
1.46301e-05
3.1108e-07
1.46143e-05
3.11257e-07
1.45926e-05
3.1144e-07
1.45656e-05
3.11639e-07
1.4535e-05
3.11835e-07
1.45026e-05
1.4471e-05
3.12878e-07
2.98498e-06
3.12874e-07
3.12994e-06
3.12873e-07
3.28259e-06
3.12878e-07
3.44338e-06
3.12894e-07
3.61301e-06
3.12929e-07
3.79239e-06
3.12993e-07
3.98254e-06
3.13096e-07
4.18459e-06
3.13251e-07
4.39966e-06
3.1346e-07
4.6288e-06
3.13712e-07
4.87279e-06
3.1398e-07
5.13208e-06
3.14218e-07
5.40671e-06
3.14372e-07
5.69645e-06
3.14392e-07
6.00086e-06
3.14239e-07
6.31948e-06
3.13895e-07
6.65196e-06
3.13363e-07
6.99806e-06
3.12663e-07
7.3576e-06
3.11835e-07
7.73026e-06
3.10948e-07
8.11533e-06
3.10104e-07
8.51134e-06
3.09449e-07
8.91586e-06
3.09131e-07
9.32641e-06
3.09204e-07
9.74393e-06
3.09551e-07
1.0179e-05
3.09988e-07
1.06535e-05
3.10366e-07
1.11879e-05
3.10455e-07
1.17796e-05
3.10046e-07
1.24042e-05
3.09067e-07
1.5213e-05
3.08043e-07
1.52033e-05
3.07339e-07
1.51572e-05
3.07079e-07
1.50866e-05
3.07206e-07
1.5003e-05
3.0758e-07
1.49171e-05
3.08053e-07
1.48384e-05
3.08517e-07
1.47724e-05
3.08912e-07
1.47213e-05
3.09223e-07
1.46854e-05
3.09467e-07
1.46629e-05
3.09674e-07
1.46499e-05
3.09866e-07
1.46408e-05
3.10058e-07
1.46299e-05
3.10257e-07
1.46141e-05
3.10473e-07
1.45924e-05
3.10701e-07
1.45654e-05
3.10942e-07
1.45348e-05
3.11183e-07
1.45024e-05
1.44707e-05
3.12231e-07
2.98498e-06
3.12225e-07
3.12994e-06
3.1222e-07
3.2826e-06
3.12221e-07
3.44338e-06
3.12235e-07
3.613e-06
3.12269e-07
3.79236e-06
3.12334e-07
3.98248e-06
3.12444e-07
4.18448e-06
3.12608e-07
4.3995e-06
3.1283e-07
4.62858e-06
3.13098e-07
4.87252e-06
3.13382e-07
5.13179e-06
3.13635e-07
5.40646e-06
3.13801e-07
5.69628e-06
3.13826e-07
6.00083e-06
3.13669e-07
6.31963e-06
3.13311e-07
6.65231e-06
3.12754e-07
6.99862e-06
3.12019e-07
7.35833e-06
3.11148e-07
7.73113e-06
3.10211e-07
8.11627e-06
3.09312e-07
8.51224e-06
3.08596e-07
8.91658e-06
3.0821e-07
9.3268e-06
3.08212e-07
9.74392e-06
3.08509e-07
1.01787e-05
3.08935e-07
1.06531e-05
3.09329e-07
1.11875e-05
3.09432e-07
1.17795e-05
3.09011e-07
1.24046e-05
3.07979e-07
1.5214e-05
3.06884e-07
1.52044e-05
3.06117e-07
1.51579e-05
3.05812e-07
1.50869e-05
3.05918e-07
1.50029e-05
3.06292e-07
1.49167e-05
3.06782e-07
1.48379e-05
3.07275e-07
1.47719e-05
3.07706e-07
1.47209e-05
3.08058e-07
1.4685e-05
3.08346e-07
1.46626e-05
3.08596e-07
1.46497e-05
3.08831e-07
1.46405e-05
3.09064e-07
1.46297e-05
3.09305e-07
1.46138e-05
3.09562e-07
1.45921e-05
3.09837e-07
1.45651e-05
3.10125e-07
1.45345e-05
3.10418e-07
1.45021e-05
1.44705e-05
3.11448e-07
2.98498e-06
3.11441e-07
3.12995e-06
3.11435e-07
3.2826e-06
3.11434e-07
3.44338e-06
3.11446e-07
3.61299e-06
3.11481e-07
3.79232e-06
3.11549e-07
3.98241e-06
3.11663e-07
4.18436e-06
3.11834e-07
4.39933e-06
3.12064e-07
4.62835e-06
3.12343e-07
4.87225e-06
3.12637e-07
5.1315e-06
3.12901e-07
5.40619e-06
3.13075e-07
5.69611e-06
3.13103e-07
6.0008e-06
3.12943e-07
6.31979e-06
3.12573e-07
6.65268e-06
3.11994e-07
6.9992e-06
3.11228e-07
7.3591e-06
3.10319e-07
7.73204e-06
3.09336e-07
8.11725e-06
3.08385e-07
8.51319e-06
3.07611e-07
8.91735e-06
3.07163e-07
9.32724e-06
3.07106e-07
9.74398e-06
3.0736e-07
1.01784e-05
3.07773e-07
1.06527e-05
3.08175e-07
1.11871e-05
3.08284e-07
1.17793e-05
3.07847e-07
1.24051e-05
3.06762e-07
1.52151e-05
3.05603e-07
1.52056e-05
3.04777e-07
1.51587e-05
3.0443e-07
1.50873e-05
3.04514e-07
1.50028e-05
3.04886e-07
1.49164e-05
3.05389e-07
1.48374e-05
3.05907e-07
1.47714e-05
3.06372e-07
1.47205e-05
3.06762e-07
1.46846e-05
3.07091e-07
1.46623e-05
3.07384e-07
1.46494e-05
3.07661e-07
1.46402e-05
3.07935e-07
1.46294e-05
3.0822e-07
1.46136e-05
3.08524e-07
1.45918e-05
3.08849e-07
1.45648e-05
3.0919e-07
1.45341e-05
3.0954e-07
1.45018e-05
1.44701e-05
3.10544e-07
2.98499e-06
3.10537e-07
3.12996e-06
3.10531e-07
3.28261e-06
3.10531e-07
3.44338e-06
3.10545e-07
3.61298e-06
3.1058e-07
3.79229e-06
3.1065e-07
3.98234e-06
3.10766e-07
4.18424e-06
3.1094e-07
4.39915e-06
3.11173e-07
4.62812e-06
3.11454e-07
4.87197e-06
3.11751e-07
5.1312e-06
3.12018e-07
5.40593e-06
3.12193e-07
5.69593e-06
3.12221e-07
6.00077e-06
3.12055e-07
6.31996e-06
3.11673e-07
6.65307e-06
3.11074e-07
6.99979e-06
3.1028e-07
7.35989e-06
3.09335e-07
7.73298e-06
3.0831e-07
8.11828e-06
3.07312e-07
8.51418e-06
3.06489e-07
8.91818e-06
3.05991e-07
9.32774e-06
3.05887e-07
9.74409e-06
3.0611e-07
1.01782e-05
3.0651e-07
1.06523e-05
3.06907e-07
1.11867e-05
3.07006e-07
1.17792e-05
3.06545e-07
1.24055e-05
3.05409e-07
1.52163e-05
3.0419e-07
1.52068e-05
3.03312e-07
1.51596e-05
3.02928e-07
1.50877e-05
3.02993e-07
1.50027e-05
3.03361e-07
1.4916e-05
3.03877e-07
1.48369e-05
3.04417e-07
1.47708e-05
3.04911e-07
1.472e-05
3.05336e-07
1.46842e-05
3.05704e-07
1.46619e-05
3.06036e-07
1.46491e-05
3.06354e-07
1.46399e-05
3.06671e-07
1.46291e-05
3.07e-07
1.46132e-05
3.07354e-07
1.45914e-05
3.07734e-07
1.45644e-05
3.08135e-07
1.45337e-05
3.0855e-07
1.45013e-05
1.44697e-05
3.09524e-07
2.98499e-06
3.09519e-07
3.12996e-06
3.09516e-07
3.28261e-06
3.09519e-07
3.44337e-06
3.09534e-07
3.61296e-06
3.09571e-07
3.79225e-06
3.09642e-07
3.98227e-06
3.09758e-07
4.18413e-06
3.09929e-07
4.39898e-06
3.10158e-07
4.62789e-06
3.10434e-07
4.87169e-06
3.10726e-07
5.1309e-06
3.10987e-07
5.40567e-06
3.11157e-07
5.69576e-06
3.11177e-07
6.00075e-06
3.11002e-07
6.32013e-06
3.10606e-07
6.65346e-06
3.09987e-07
7.00041e-06
3.09167e-07
7.36071e-06
3.08189e-07
7.73396e-06
3.07127e-07
8.11934e-06
3.06089e-07
8.51522e-06
3.05226e-07
8.91904e-06
3.0469e-07
9.32828e-06
3.04556e-07
9.74422e-06
3.04757e-07
1.0178e-05
3.05143e-07
1.06519e-05
3.05522e-07
1.11863e-05
3.05596e-07
1.17792e-05
3.051e-07
1.2406e-05
3.03912e-07
1.52174e-05
3.0264e-07
1.52081e-05
3.01716e-07
1.51605e-05
3.013e-07
1.50881e-05
3.01349e-07
1.50027e-05
3.01717e-07
1.49156e-05
3.02242e-07
1.48363e-05
3.02802e-07
1.47703e-05
3.03323e-07
1.47194e-05
3.0378e-07
1.46837e-05
3.04182e-07
1.46615e-05
3.04552e-07
1.46487e-05
3.04908e-07
1.46396e-05
3.05268e-07
1.46287e-05
3.05644e-07
1.46129e-05
3.0605e-07
1.4591e-05
3.06489e-07
1.4564e-05
3.06957e-07
1.45333e-05
3.07445e-07
1.45008e-05
1.44692e-05
3.08388e-07
2.98499e-06
3.08387e-07
3.12996e-06
3.08387e-07
3.28261e-06
3.08392e-07
3.44337e-06
3.0841e-07
3.61294e-06
3.08449e-07
3.79221e-06
3.08519e-07
3.9822e-06
3.08632e-07
4.18402e-06
3.08798e-07
4.39881e-06
3.09019e-07
4.62766e-06
3.09284e-07
4.87142e-06
3.09565e-07
5.13062e-06
3.09813e-07
5.40542e-06
3.09971e-07
5.6956e-06
3.0998e-07
6.00074e-06
3.09791e-07
6.32032e-06
3.09379e-07
6.65387e-06
3.0874e-07
7.00105e-06
3.07894e-07
7.36156e-06
3.06886e-07
7.73497e-06
3.05788e-07
8.12044e-06
3.04716e-07
8.5163e-06
3.0382e-07
8.91993e-06
3.03258e-07
9.32884e-06
3.03106e-07
9.74437e-06
3.03294e-07
1.01778e-05
3.03666e-07
1.06515e-05
3.04019e-07
1.1186e-05
3.04054e-07
1.17791e-05
3.03515e-07
1.24066e-05
3.02272e-07
1.52187e-05
3.00949e-07
1.52094e-05
2.99985e-07
1.51615e-05
2.99543e-07
1.50885e-05
2.99579e-07
1.50026e-05
2.99947e-07
1.49153e-05
3.00483e-07
1.48358e-05
3.0106e-07
1.47697e-05
3.01605e-07
1.47189e-05
3.0209e-07
1.46833e-05
3.02524e-07
1.46611e-05
3.02929e-07
1.46483e-05
3.03323e-07
1.46392e-05
3.03725e-07
1.46283e-05
3.04149e-07
1.46124e-05
3.0461e-07
1.45906e-05
3.05114e-07
1.45635e-05
3.05654e-07
1.45327e-05
3.06223e-07
1.45003e-05
1.44686e-05
3.07132e-07
2.98499e-06
3.07133e-07
3.12996e-06
3.07136e-07
3.28261e-06
3.07144e-07
3.44336e-06
3.07164e-07
3.61292e-06
3.07203e-07
3.79217e-06
3.07271e-07
3.98213e-06
3.0738e-07
4.18391e-06
3.0754e-07
4.39866e-06
3.07751e-07
4.62745e-06
3.08003e-07
4.87117e-06
3.08269e-07
5.13036e-06
3.08502e-07
5.40518e-06
3.08644e-07
5.69546e-06
3.08637e-07
6.00075e-06
3.08432e-07
6.32053e-06
3.08002e-07
6.6543e-06
3.07341e-07
7.00171e-06
3.06469e-07
7.36243e-06
3.05431e-07
7.73601e-06
3.04302e-07
8.12157e-06
3.03197e-07
8.5174e-06
3.02275e-07
8.92086e-06
3.01693e-07
9.32942e-06
3.01529e-07
9.74454e-06
3.01711e-07
1.01776e-05
3.02069e-07
1.06512e-05
3.02392e-07
1.11857e-05
3.02381e-07
1.17791e-05
3.01793e-07
1.24072e-05
3.00492e-07
1.522e-05
2.9912e-07
1.52108e-05
2.98118e-07
1.51625e-05
2.97652e-07
1.5089e-05
2.97678e-07
1.50026e-05
2.98047e-07
1.49149e-05
2.98593e-07
1.48352e-05
2.99187e-07
1.47691e-05
2.99753e-07
1.47183e-05
3.00265e-07
1.46828e-05
3.00728e-07
1.46606e-05
3.01165e-07
1.46479e-05
3.01596e-07
1.46387e-05
3.0204e-07
1.46279e-05
3.02515e-07
1.4612e-05
3.03033e-07
1.45901e-05
3.03604e-07
1.45629e-05
3.04223e-07
1.45321e-05
3.04879e-07
1.44996e-05
1.44679e-05
3.0575e-07
2.98499e-06
3.05752e-07
3.12996e-06
3.05757e-07
3.28261e-06
3.05766e-07
3.44335e-06
3.05787e-07
3.6129e-06
3.05826e-07
3.79213e-06
3.05893e-07
3.98206e-06
3.05998e-07
4.1838e-06
3.0615e-07
4.3985e-06
3.06351e-07
4.62725e-06
3.0659e-07
4.87093e-06
3.06841e-07
5.13011e-06
3.07057e-07
5.40497e-06
3.07183e-07
5.69534e-06
3.07159e-07
6.00077e-06
3.06936e-07
6.32075e-06
3.06486e-07
6.65475e-06
3.05802e-07
7.0024e-06
3.04904e-07
7.36333e-06
3.03836e-07
7.73708e-06
3.02675e-07
8.12273e-06
3.01541e-07
8.51853e-06
3.00593e-07
8.9218e-06
2.99995e-07
9.33002e-06
2.99823e-07
9.74471e-06
2.99999e-07
1.01774e-05
3.00344e-07
1.06508e-05
3.00636e-07
1.11854e-05
3.00579e-07
1.17792e-05
2.99938e-07
1.24078e-05
2.98577e-07
1.52213e-05
2.97153e-07
1.52122e-05
2.96114e-07
1.51636e-05
2.95626e-07
1.50895e-05
2.95643e-07
1.50026e-05
2.96013e-07
1.49145e-05
2.96568e-07
1.48347e-05
2.97177e-07
1.47685e-05
2.97763e-07
1.47177e-05
2.98299e-07
1.46822e-05
2.9879e-07
1.46601e-05
2.99258e-07
1.46474e-05
2.99726e-07
1.46383e-05
3.00213e-07
1.46274e-05
3.00738e-07
1.46114e-05
3.01317e-07
1.45895e-05
3.01959e-07
1.45623e-05
3.0266e-07
1.45314e-05
3.03411e-07
1.44989e-05
1.44671e-05
3.04239e-07
2.98499e-06
3.04242e-07
3.12996e-06
3.04247e-07
3.2826e-06
3.04257e-07
3.44334e-06
3.04278e-07
3.61288e-06
3.04316e-07
3.7921e-06
3.04381e-07
3.982e-06
3.04482e-07
4.1837e-06
3.04627e-07
4.39836e-06
3.04819e-07
4.62706e-06
3.05046e-07
4.8707e-06
3.05282e-07
5.12987e-06
3.05483e-07
5.40477e-06
3.05592e-07
5.69523e-06
3.05551e-07
6.00082e-06
3.0531e-07
6.32099e-06
3.04838e-07
6.65522e-06
3.04131e-07
7.0031e-06
3.03205e-07
7.36425e-06
3.02107e-07
7.73817e-06
3.00915e-07
8.12392e-06
2.99751e-07
8.5197e-06
2.98779e-07
8.92278e-06
2.98165e-07
9.33063e-06
2.97983e-07
9.74489e-06
2.98154e-07
1.01773e-05
2.98486e-07
1.06505e-05
2.98749e-07
1.11851e-05
2.98646e-07
1.17793e-05
2.97952e-07
1.24085e-05
2.96528e-07
1.52228e-05
2.95052e-07
1.52137e-05
2.93974e-07
1.51646e-05
2.93463e-07
1.509e-05
2.9347e-07
1.50026e-05
2.93841e-07
1.49142e-05
2.94403e-07
1.48341e-05
2.95026e-07
1.47679e-05
2.9563e-07
1.47171e-05
2.96188e-07
1.46817e-05
2.96705e-07
1.46596e-05
2.97204e-07
1.46469e-05
2.97708e-07
1.46378e-05
2.98238e-07
1.46269e-05
2.98816e-07
1.46109e-05
2.99458e-07
1.45888e-05
3.00174e-07
1.45616e-05
3.00962e-07
1.45306e-05
3.01813e-07
1.4498e-05
1.44662e-05
3.02599e-07
2.98498e-06
3.02602e-07
3.12995e-06
3.02607e-07
3.2826e-06
3.02618e-07
3.44333e-06
3.02639e-07
3.61286e-06
3.02676e-07
3.79206e-06
3.02739e-07
3.98193e-06
3.02836e-07
4.1836e-06
3.02975e-07
4.39822e-06
3.03158e-07
4.62688e-06
3.03374e-07
4.87049e-06
3.03596e-07
5.12965e-06
3.03782e-07
5.40458e-06
3.03875e-07
5.69513e-06
3.03816e-07
6.00087e-06
3.03556e-07
6.32125e-06
3.03064e-07
6.65572e-06
3.02332e-07
7.00384e-06
3.01378e-07
7.36521e-06
3.00249e-07
7.7393e-06
2.99025e-07
8.12514e-06
2.97831e-07
8.52089e-06
2.96835e-07
8.92377e-06
2.96203e-07
9.33126e-06
2.96012e-07
9.74508e-06
2.96175e-07
1.01771e-05
2.96494e-07
1.06502e-05
2.96728e-07
1.11849e-05
2.96582e-07
1.17795e-05
2.95835e-07
1.24092e-05
2.94347e-07
1.52243e-05
2.92816e-07
1.52152e-05
2.91698e-07
1.51657e-05
2.91162e-07
1.50905e-05
2.91158e-07
1.50026e-05
2.91528e-07
1.49138e-05
2.92096e-07
1.48336e-05
2.9273e-07
1.47672e-05
2.93351e-07
1.47165e-05
2.9393e-07
1.46811e-05
2.94472e-07
1.46591e-05
2.95001e-07
1.46464e-05
2.95541e-07
1.46372e-05
2.96115e-07
1.46263e-05
2.96746e-07
1.46102e-05
2.97452e-07
1.45881e-05
2.98245e-07
1.45608e-05
2.99124e-07
1.45297e-05
3.00081e-07
1.44971e-05
1.44652e-05
3.00833e-07
2.98498e-06
3.00837e-07
3.12995e-06
3.00843e-07
3.28259e-06
3.00855e-07
3.44332e-06
3.00876e-07
3.61284e-06
3.00913e-07
3.79202e-06
3.00973e-07
3.98187e-06
3.01066e-07
4.18351e-06
3.01199e-07
4.39808e-06
3.01373e-07
4.6267e-06
3.01577e-07
4.87028e-06
3.01785e-07
5.12944e-06
3.01956e-07
5.40441e-06
3.02032e-07
5.69506e-06
3.01956e-07
6.00095e-06
3.01676e-07
6.32153e-06
3.01162e-07
6.65623e-06
3.00405e-07
7.00459e-06
2.99422e-07
7.36619e-06
2.98262e-07
7.74046e-06
2.97006e-07
8.1264e-06
2.95781e-07
8.52212e-06
2.94759e-07
8.92479e-06
2.9411e-07
9.33191e-06
2.93909e-07
9.74528e-06
2.94065e-07
1.01769e-05
2.9437e-07
1.06499e-05
2.94575e-07
1.11847e-05
2.94385e-07
1.17796e-05
2.93586e-07
1.241e-05
2.92032e-07
1.52258e-05
2.90443e-07
1.52168e-05
2.89283e-07
1.51669e-05
2.8872e-07
1.50911e-05
2.88704e-07
1.50026e-05
2.89071e-07
1.49134e-05
2.89644e-07
1.4833e-05
2.90288e-07
1.47666e-05
2.90924e-07
1.47159e-05
2.91521e-07
1.46805e-05
2.92087e-07
1.46585e-05
2.92644e-07
1.46458e-05
2.93219e-07
1.46367e-05
2.93837e-07
1.46257e-05
2.94522e-07
1.46095e-05
2.95295e-07
1.45874e-05
2.96167e-07
1.45599e-05
2.97142e-07
1.45288e-05
2.98209e-07
1.4496e-05
1.44641e-05
2.98946e-07
2.98498e-06
2.98952e-07
3.12995e-06
2.9896e-07
3.28258e-06
2.98973e-07
3.4433e-06
2.98995e-07
3.61282e-06
2.99031e-07
3.79198e-06
2.9909e-07
3.98181e-06
2.99178e-07
4.18342e-06
2.99304e-07
4.39796e-06
2.99467e-07
4.62654e-06
2.99658e-07
4.87009e-06
2.99852e-07
5.12924e-06
3.00005e-07
5.40425e-06
3.00064e-07
5.695e-06
2.99968e-07
6.00105e-06
2.99668e-07
6.32183e-06
2.99131e-07
6.65677e-06
2.98348e-07
7.00538e-06
2.97336e-07
7.3672e-06
2.96143e-07
7.74166e-06
2.94854e-07
8.12769e-06
2.93598e-07
8.52337e-06
2.92551e-07
8.92584e-06
2.91887e-07
9.33258e-06
2.91678e-07
9.74549e-06
2.91827e-07
1.01768e-05
2.92116e-07
1.06496e-05
2.9229e-07
1.11845e-05
2.92054e-07
1.17799e-05
2.912e-07
1.24109e-05
2.89579e-07
1.52274e-05
2.87931e-07
1.52185e-05
2.86727e-07
1.51681e-05
2.86137e-07
1.50917e-05
2.86107e-07
1.50026e-05
2.86469e-07
1.49131e-05
2.87044e-07
1.48324e-05
2.87696e-07
1.4766e-05
2.88344e-07
1.47152e-05
2.88958e-07
1.46799e-05
2.89545e-07
1.46579e-05
2.90129e-07
1.46452e-05
2.90738e-07
1.46361e-05
2.914e-07
1.4625e-05
2.9214e-07
1.46088e-05
2.92981e-07
1.45865e-05
2.93936e-07
1.45589e-05
2.95009e-07
1.45277e-05
2.96192e-07
1.44948e-05
1.44628e-05
2.96944e-07
2.98497e-06
2.96952e-07
3.12994e-06
2.96962e-07
3.28257e-06
2.96978e-07
3.44329e-06
2.97001e-07
3.61279e-06
2.97037e-07
3.79195e-06
2.97093e-07
3.98176e-06
2.97176e-07
4.18333e-06
2.97293e-07
4.39784e-06
2.97445e-07
4.62639e-06
2.97621e-07
4.86991e-06
2.97797e-07
5.12907e-06
2.97931e-07
5.40412e-06
2.97969e-07
5.69496e-06
2.97852e-07
6.00116e-06
2.9753e-07
6.32215e-06
2.96968e-07
6.65733e-06
2.96158e-07
7.00619e-06
2.95116e-07
7.36824e-06
2.9389e-07
7.74288e-06
2.92567e-07
8.12901e-06
2.91281e-07
8.52466e-06
2.90211e-07
8.92691e-06
2.89534e-07
9.33325e-06
2.8932e-07
9.7457e-06
2.89464e-07
1.01767e-05
2.89736e-07
1.06493e-05
2.89874e-07
1.11843e-05
2.89587e-07
1.17802e-05
2.88675e-07
1.24118e-05
2.86984e-07
1.52291e-05
2.85276e-07
1.52202e-05
2.84027e-07
1.51694e-05
2.83409e-07
1.50923e-05
2.83363e-07
1.50027e-05
2.83719e-07
1.49127e-05
2.84295e-07
1.48318e-05
2.84952e-07
1.47653e-05
2.8561e-07
1.47146e-05
2.86238e-07
1.46792e-05
2.86844e-07
1.46573e-05
2.87452e-07
1.46446e-05
2.88094e-07
1.46354e-05
2.88799e-07
1.46243e-05
2.89595e-07
1.4608e-05
2.90505e-07
1.45856e-05
2.91545e-07
1.45579e-05
2.9272e-07
1.45265e-05
2.94023e-07
1.44935e-05
1.44614e-05
2.9483e-07
2.98497e-06
2.9484e-07
3.12993e-06
2.94854e-07
3.28256e-06
2.94872e-07
3.44327e-06
2.94897e-07
3.61277e-06
2.94933e-07
3.79191e-06
2.94986e-07
3.9817e-06
2.95063e-07
4.18326e-06
2.9517e-07
4.39773e-06
2.95308e-07
4.62625e-06
2.95467e-07
4.86975e-06
2.95622e-07
5.12891e-06
2.95733e-07
5.40401e-06
2.95747e-07
5.69494e-06
2.95607e-07
6.0013e-06
2.9526e-07
6.3225e-06
2.94672e-07
6.65792e-06
2.93833e-07
7.00703e-06
2.9276e-07
7.36932e-06
2.91501e-07
7.74414e-06
2.90144e-07
8.13037e-06
2.88829e-07
8.52597e-06
2.87738e-07
8.928e-06
2.87051e-07
9.33394e-06
2.86836e-07
9.74592e-06
2.86977e-07
1.01765e-05
2.8723e-07
1.06491e-05
2.87328e-07
1.11843e-05
2.86983e-07
1.17805e-05
2.86007e-07
1.24128e-05
2.84244e-07
1.52309e-05
2.82475e-07
1.52219e-05
2.8118e-07
1.51707e-05
2.80533e-07
1.50929e-05
2.80472e-07
1.50028e-05
2.8082e-07
1.49124e-05
2.81394e-07
1.48313e-05
2.82053e-07
1.47646e-05
2.82718e-07
1.47139e-05
2.83357e-07
1.46786e-05
2.83978e-07
1.46567e-05
2.84609e-07
1.4644e-05
2.85281e-07
1.46347e-05
2.86028e-07
1.46236e-05
2.86879e-07
1.46072e-05
2.8786e-07
1.45846e-05
2.88987e-07
1.45568e-05
2.90267e-07
1.45252e-05
2.91694e-07
1.44921e-05
1.44598e-05
2.92607e-07
2.98496e-06
2.9262e-07
3.12991e-06
2.92637e-07
3.28254e-06
2.92658e-07
3.44325e-06
2.92684e-07
3.61274e-06
2.9272e-07
3.79187e-06
2.92769e-07
3.98165e-06
2.92839e-07
4.18319e-06
2.92936e-07
4.39764e-06
2.93057e-07
4.62612e-06
2.93196e-07
4.86961e-06
2.93327e-07
5.12878e-06
2.93413e-07
5.40392e-06
2.934e-07
5.69496e-06
2.93232e-07
6.00147e-06
2.92857e-07
6.32287e-06
2.92241e-07
6.65853e-06
2.91372e-07
7.00789e-06
2.90267e-07
7.37042e-06
2.88974e-07
7.74543e-06
2.87584e-07
8.13176e-06
2.8624e-07
8.52732e-06
2.85131e-07
8.92911e-06
2.84438e-07
9.33463e-06
2.84225e-07
9.74613e-06
2.84365e-07
1.01764e-05
2.846e-07
1.06488e-05
2.84651e-07
1.11842e-05
2.84241e-07
1.17809e-05
2.83195e-07
1.24138e-05
2.81355e-07
1.52327e-05
2.79524e-07
1.52238e-05
2.78183e-07
1.5172e-05
2.77507e-07
1.50936e-05
2.77429e-07
1.50028e-05
2.77768e-07
1.4912e-05
2.78338e-07
1.48307e-05
2.78997e-07
1.4764e-05
2.79665e-07
1.47132e-05
2.80311e-07
1.4678e-05
2.80945e-07
1.4656e-05
2.81594e-07
1.46433e-05
2.82294e-07
1.4634e-05
2.83081e-07
1.46228e-05
2.83987e-07
1.46062e-05
2.8504e-07
1.45836e-05
2.86256e-07
1.45555e-05
2.87644e-07
1.45238e-05
2.89199e-07
1.44905e-05
1.44581e-05
2.90275e-07
2.98495e-06
2.90291e-07
3.1299e-06
2.90311e-07
3.28252e-06
2.90335e-07
3.44322e-06
2.90362e-07
3.61271e-06
2.90397e-07
3.79184e-06
2.90443e-07
3.98161e-06
2.90505e-07
4.18312e-06
2.90589e-07
4.39755e-06
2.90693e-07
4.62602e-06
2.90809e-07
4.8695e-06
2.90915e-07
5.12867e-06
2.90971e-07
5.40387e-06
2.90928e-07
5.695e-06
2.9073e-07
6.00167e-06
2.90325e-07
6.32328e-06
2.89678e-07
6.65918e-06
2.88777e-07
7.00879e-06
2.87638e-07
7.37156e-06
2.86311e-07
7.74676e-06
2.84888e-07
8.13318e-06
2.83516e-07
8.52869e-06
2.8239e-07
8.93024e-06
2.81694e-07
9.33533e-06
2.81487e-07
9.74634e-06
2.81629e-07
1.01762e-05
2.81844e-07
1.06486e-05
2.81845e-07
1.11842e-05
2.81361e-07
1.17814e-05
2.80238e-07
1.24149e-05
2.78316e-07
1.52346e-05
2.7642e-07
1.52257e-05
2.75034e-07
1.51734e-05
2.74328e-07
1.50943e-05
2.74232e-07
1.50029e-05
2.74561e-07
1.49117e-05
2.75124e-07
1.48301e-05
2.75779e-07
1.47633e-05
2.76447e-07
1.47126e-05
2.77096e-07
1.46773e-05
2.77737e-07
1.46554e-05
2.78402e-07
1.46427e-05
2.79127e-07
1.46333e-05
2.79953e-07
1.4622e-05
2.80913e-07
1.46053e-05
2.82036e-07
1.45824e-05
2.83343e-07
1.45542e-05
2.84842e-07
1.45223e-05
2.8653e-07
1.44888e-05
1.44562e-05
2.87835e-07
2.98494e-06
2.87853e-07
3.12988e-06
2.87876e-07
3.2825e-06
2.87901e-07
3.4432e-06
2.8793e-07
3.61268e-06
2.87963e-07
3.79181e-06
2.88005e-07
3.98157e-06
2.88058e-07
4.18307e-06
2.88129e-07
4.39748e-06
2.88215e-07
4.62593e-06
2.88307e-07
4.86941e-06
2.88384e-07
5.1286e-06
2.8841e-07
5.40384e-06
2.88334e-07
5.69507e-06
2.88103e-07
6.0019e-06
2.87665e-07
6.32371e-06
2.86985e-07
6.65986e-06
2.8605e-07
7.00973e-06
2.84876e-07
7.37273e-06
2.83513e-07
7.74812e-06
2.82057e-07
8.13463e-06
2.80658e-07
8.53009e-06
2.79517e-07
8.93138e-06
2.7882e-07
9.33603e-06
2.78621e-07
9.74654e-06
2.78766e-07
1.01761e-05
2.78961e-07
1.06484e-05
2.78907e-07
1.11843e-05
2.78344e-07
1.1782e-05
2.77136e-07
1.24162e-05
2.75126e-07
1.52367e-05
2.73163e-07
1.52276e-05
2.7173e-07
1.51748e-05
2.70993e-07
1.50951e-05
2.70877e-07
1.5003e-05
2.71194e-07
1.49114e-05
2.71747e-07
1.48296e-05
2.72395e-07
1.47627e-05
2.73058e-07
1.47119e-05
2.73707e-07
1.46767e-05
2.74352e-07
1.46548e-05
2.75027e-07
1.4642e-05
2.75774e-07
1.46326e-05
2.76635e-07
1.46211e-05
2.77648e-07
1.46043e-05
2.78843e-07
1.45812e-05
2.80242e-07
1.45528e-05
2.81854e-07
1.45207e-05
2.83678e-07
1.4487e-05
1.44542e-05
2.85284e-07
2.98493e-06
2.85304e-07
3.12986e-06
2.85329e-07
3.28247e-06
2.85356e-07
3.44317e-06
2.85385e-07
3.61266e-06
2.85417e-07
3.79178e-06
2.85453e-07
3.98153e-06
2.85498e-07
4.18302e-06
2.85554e-07
4.39743e-06
2.85621e-07
4.62587e-06
2.85689e-07
4.86934e-06
2.85737e-07
5.12855e-06
2.8573e-07
5.40385e-06
2.85621e-07
5.69518e-06
2.85354e-07
6.00217e-06
2.84881e-07
6.32419e-06
2.84165e-07
6.66057e-06
2.83194e-07
7.0107e-06
2.81983e-07
7.37394e-06
2.80584e-07
7.74952e-06
2.79094e-07
8.13612e-06
2.77669e-07
8.53151e-06
2.76514e-07
8.93253e-06
2.75816e-07
9.33673e-06
2.75626e-07
9.74673e-06
2.75775e-07
1.01759e-05
2.75949e-07
1.06483e-05
2.75836e-07
1.11844e-05
2.75188e-07
1.17826e-05
2.73889e-07
1.24175e-05
2.71786e-07
1.52388e-05
2.69752e-07
1.52297e-05
2.68269e-07
1.51763e-05
2.67499e-07
1.50958e-05
2.67362e-07
1.50032e-05
2.67663e-07
1.49111e-05
2.68204e-07
1.4829e-05
2.68841e-07
1.4762e-05
2.69495e-07
1.47113e-05
2.70139e-07
1.4676e-05
2.70783e-07
1.46541e-05
2.71464e-07
1.46413e-05
2.7223e-07
1.46318e-05
2.73124e-07
1.46202e-05
2.74187e-07
1.46032e-05
2.75453e-07
1.458e-05
2.76944e-07
1.45514e-05
2.78671e-07
1.4519e-05
2.80633e-07
1.4485e-05
1.4452e-05
2.82622e-07
2.98492e-06
2.82644e-07
3.12984e-06
2.8267e-07
3.28245e-06
2.82698e-07
3.44314e-06
2.82727e-07
3.61263e-06
2.82756e-07
3.79175e-06
2.82787e-07
3.9815e-06
2.82822e-07
4.18299e-06
2.82865e-07
4.39738e-06
2.82912e-07
4.62582e-06
2.82956e-07
4.86929e-06
2.82975e-07
5.12853e-06
2.82935e-07
5.40389e-06
2.8279e-07
5.69533e-06
2.82488e-07
6.00247e-06
2.81978e-07
6.32469e-06
2.81225e-07
6.66133e-06
2.80216e-07
7.01171e-06
2.78966e-07
7.37519e-06
2.77529e-07
7.75096e-06
2.76004e-07
8.13765e-06
2.74551e-07
8.53296e-06
2.73381e-07
8.9337e-06
2.72683e-07
9.33742e-06
2.72502e-07
9.74691e-06
2.72653e-07
1.01758e-05
2.72805e-07
1.06481e-05
2.72632e-07
1.11845e-05
2.71894e-07
1.17834e-05
2.70498e-07
1.24188e-05
2.68296e-07
1.5241e-05
2.66187e-07
1.52318e-05
2.64651e-07
1.51778e-05
2.63845e-07
1.50966e-05
2.63684e-07
1.50033e-05
2.63966e-07
1.49108e-05
2.6449e-07
1.48285e-05
2.65112e-07
1.47614e-05
2.65753e-07
1.47106e-05
2.66385e-07
1.46754e-05
2.67024e-07
1.46535e-05
2.67708e-07
1.46406e-05
2.68487e-07
1.4631e-05
2.6941e-07
1.46193e-05
2.70522e-07
1.46021e-05
2.71857e-07