/*--------------------------------*- C++ -*----------------------------------*\
  =========                 |
  \\      /  F ield         | OpenFOAM: The Open Source CFD Toolbox
   \\    /   O peration     | Website:  https://openfoam.org
    \\  /    A nd           | Version:  9
     \\/     M anipulation  |
\*---------------------------------------------------------------------------*/
FoamFile
{
    format      ascii;
    class       volScalarField;
    location    "0.15";
    object      rAU;
}
// * * * * * * * * * * * * * * * * * * * * * * * * * * * * * * * * * * * * * //

dimensions      [-1 3 1 0 0 0 0];

internalField   nonuniform List<scalar> 
5000
(
1.1424e-05
1.3022e-05
1.31445e-05
1.32572e-05
1.33601e-05
1.34531e-05
1.3536e-05
1.36084e-05
1.36703e-05
1.3722e-05
1.37643e-05
1.37984e-05
1.38258e-05
1.38484e-05
1.38678e-05
1.38855e-05
1.39026e-05
1.39198e-05
1.3938e-05
1.39578e-05
1.39801e-05
1.40062e-05
1.40378e-05
1.40766e-05
1.4122e-05
1.41672e-05
1.4199e-05
1.42069e-05
1.41966e-05
1.41885e-05
1.42125e-05
1.42203e-05
1.42405e-05
1.42715e-05
1.43087e-05
1.43474e-05
1.43833e-05
1.44137e-05
1.44374e-05
1.44542e-05
1.44647e-05
1.44707e-05
1.4475e-05
1.448e-05
1.44873e-05
1.44974e-05
1.45099e-05
1.45242e-05
1.45394e-05
1.45543e-05
1.48985e-05
1.77354e-05
1.79622e-05
1.81736e-05
1.83697e-05
1.85507e-05
1.87168e-05
1.88682e-05
1.9005e-05
1.91278e-05
1.92374e-05
1.93352e-05
1.94226e-05
1.95013e-05
1.95728e-05
1.96386e-05
1.96999e-05
1.97577e-05
1.98126e-05
1.98657e-05
1.99177e-05
1.99699e-05
2.00238e-05
2.00808e-05
2.01407e-05
2.01983e-05
2.02438e-05
2.02695e-05
2.02797e-05
2.0295e-05
2.03617e-05
2.03721e-05
2.03878e-05
2.04117e-05
2.04403e-05
2.04698e-05
2.04971e-05
2.05202e-05
2.05381e-05
2.05508e-05
2.05587e-05
2.05633e-05
2.05665e-05
2.05703e-05
2.05758e-05
2.05834e-05
2.05929e-05
2.06037e-05
2.06151e-05
2.06263e-05
1.48983e-05
1.77352e-05
1.7962e-05
1.81734e-05
1.83695e-05
1.85506e-05
1.87167e-05
1.8868e-05
1.90048e-05
1.91277e-05
1.92374e-05
1.93351e-05
1.94225e-05
1.95011e-05
1.95725e-05
1.96383e-05
1.96996e-05
1.97573e-05
1.98123e-05
1.98654e-05
1.99175e-05
1.99698e-05
2.00239e-05
2.00811e-05
2.0141e-05
2.01987e-05
2.02442e-05
2.02698e-05
2.02798e-05
2.0295e-05
2.03616e-05
2.03722e-05
2.0388e-05
2.0412e-05
2.04406e-05
2.04702e-05
2.04975e-05
2.05205e-05
2.05384e-05
2.0551e-05
2.05589e-05
2.05635e-05
2.05666e-05
2.05704e-05
2.0576e-05
2.05836e-05
2.0593e-05
2.06038e-05
2.06152e-05
2.06264e-05
1.48983e-05
1.77352e-05
1.79621e-05
1.81734e-05
1.83695e-05
1.85506e-05
1.87167e-05
1.88681e-05
1.90049e-05
1.91278e-05
1.92374e-05
1.93352e-05
1.94225e-05
1.9501e-05
1.95724e-05
1.96381e-05
1.96994e-05
1.9757e-05
1.9812e-05
1.98651e-05
1.99173e-05
1.99697e-05
2.00239e-05
2.00813e-05
2.01415e-05
2.01992e-05
2.02446e-05
2.02701e-05
2.028e-05
2.02951e-05
2.03616e-05
2.03722e-05
2.03881e-05
2.04123e-05
2.0441e-05
2.04706e-05
2.04979e-05
2.05209e-05
2.05387e-05
2.05513e-05
2.05592e-05
2.05637e-05
2.05668e-05
2.05706e-05
2.05761e-05
2.05837e-05
2.05932e-05
2.0604e-05
2.06154e-05
2.06265e-05
1.48986e-05
1.77355e-05
1.79623e-05
1.81737e-05
1.83698e-05
1.85509e-05
1.8717e-05
1.88684e-05
1.90052e-05
1.91281e-05
1.92377e-05
1.93355e-05
1.94227e-05
1.95012e-05
1.95725e-05
1.96381e-05
1.96992e-05
1.97568e-05
1.98118e-05
1.98649e-05
1.99171e-05
1.99696e-05
2.00239e-05
2.00816e-05
2.01419e-05
2.01998e-05
2.02451e-05
2.02705e-05
2.02803e-05
2.02952e-05
2.03616e-05
2.03722e-05
2.03883e-05
2.04126e-05
2.04414e-05
2.04711e-05
2.04983e-05
2.05213e-05
2.05391e-05
2.05516e-05
2.05595e-05
2.0564e-05
2.05671e-05
2.05709e-05
2.05764e-05
2.0584e-05
2.05934e-05
2.06042e-05
2.06156e-05
2.06267e-05
1.48991e-05
1.77359e-05
1.79627e-05
1.81741e-05
1.83702e-05
1.85513e-05
1.87175e-05
1.88688e-05
1.90057e-05
1.91286e-05
1.92382e-05
1.93359e-05
1.94231e-05
1.95015e-05
1.95727e-05
1.96381e-05
1.96992e-05
1.97567e-05
1.98116e-05
1.98646e-05
1.99168e-05
1.99694e-05
2.0024e-05
2.00818e-05
2.01424e-05
2.02004e-05
2.02458e-05
2.02711e-05
2.02807e-05
2.02954e-05
2.03615e-05
2.03722e-05
2.03884e-05
2.04129e-05
2.04418e-05
2.04716e-05
2.04989e-05
2.05218e-05
2.05395e-05
2.05521e-05
2.05598e-05
2.05643e-05
2.05674e-05
2.05712e-05
2.05767e-05
2.05843e-05
2.05937e-05
2.06045e-05
2.06158e-05
2.0627e-05
1.48999e-05
1.77365e-05
1.79634e-05
1.81747e-05
1.83709e-05
1.85519e-05
1.87181e-05
1.88695e-05
1.90064e-05
1.91292e-05
1.92389e-05
1.93366e-05
1.94237e-05
1.9502e-05
1.9573e-05
1.96383e-05
1.96992e-05
1.97566e-05
1.98114e-05
1.98645e-05
1.99167e-05
1.99693e-05
2.0024e-05
2.00821e-05
2.01429e-05
2.0201e-05
2.02464e-05
2.02717e-05
2.02811e-05
2.02956e-05
2.03615e-05
2.03722e-05
2.03885e-05
2.04132e-05
2.04423e-05
2.04721e-05
2.04994e-05
2.05223e-05
2.05401e-05
2.05525e-05
2.05603e-05
2.05647e-05
2.05678e-05
2.05716e-05
2.0577e-05
2.05846e-05
2.05941e-05
2.06048e-05
2.06161e-05
2.06272e-05
1.49009e-05
1.77373e-05
1.79641e-05
1.81755e-05
1.83716e-05
1.85527e-05
1.87189e-05
1.88703e-05
1.90072e-05
1.91301e-05
1.92398e-05
1.93374e-05
1.94244e-05
1.95026e-05
1.95735e-05
1.96387e-05
1.96994e-05
1.97567e-05
1.98114e-05
1.98643e-05
1.99165e-05
1.99693e-05
2.00241e-05
2.00824e-05
2.01434e-05
2.02017e-05
2.02471e-05
2.02723e-05
2.02816e-05
2.02958e-05
2.03616e-05
2.03722e-05
2.03887e-05
2.04135e-05
2.04428e-05
2.04727e-05
2.05001e-05
2.0523e-05
2.05406e-05
2.05531e-05
2.05608e-05
2.05652e-05
2.05683e-05
2.0572e-05
2.05775e-05
2.0585e-05
2.05945e-05
2.06052e-05
2.06165e-05
2.06276e-05
1.49021e-05
1.77382e-05
1.79651e-05
1.81764e-05
1.83725e-05
1.85536e-05
1.87198e-05
1.88712e-05
1.90081e-05
1.9131e-05
1.92407e-05
1.93383e-05
1.94253e-05
1.95033e-05
1.95741e-05
1.96391e-05
1.96996e-05
1.97568e-05
1.98114e-05
1.98643e-05
1.99165e-05
1.99692e-05
2.00242e-05
2.00827e-05
2.0144e-05
2.02024e-05
2.02479e-05
2.0273e-05
2.02822e-05
2.02961e-05
2.03616e-05
2.03722e-05
2.03889e-05
2.04139e-05
2.04433e-05
2.04733e-05
2.05007e-05
2.05236e-05
2.05413e-05
2.05537e-05
2.05613e-05
2.05657e-05
2.05688e-05
2.05725e-05
2.0578e-05
2.05855e-05
2.05949e-05
2.06056e-05
2.0617e-05
2.0628e-05
1.49034e-05
1.77393e-05
1.79661e-05
1.81775e-05
1.83736e-05
1.85546e-05
1.87208e-05
1.88722e-05
1.90092e-05
1.91321e-05
1.92418e-05
1.93394e-05
1.94263e-05
1.95042e-05
1.95748e-05
1.96397e-05
1.97e-05
1.9757e-05
1.98115e-05
1.98643e-05
1.99165e-05
1.99693e-05
2.00244e-05
2.00831e-05
2.01446e-05
2.02032e-05
2.02487e-05
2.02738e-05
2.02828e-05
2.02965e-05
2.03617e-05
2.03723e-05
2.03891e-05
2.04142e-05
2.04438e-05
2.0474e-05
2.05014e-05
2.05243e-05
2.0542e-05
2.05543e-05
2.0562e-05
2.05663e-05
2.05694e-05
2.0573e-05
2.05785e-05
2.05861e-05
2.05955e-05
2.06062e-05
2.06175e-05
2.06285e-05
1.4905e-05
1.77406e-05
1.79673e-05
1.81786e-05
1.83747e-05
1.85558e-05
1.8722e-05
1.88734e-05
1.90104e-05
1.91333e-05
1.9243e-05
1.93406e-05
1.94274e-05
1.95052e-05
1.95757e-05
1.96403e-05
1.97005e-05
1.97573e-05
1.98117e-05
1.98644e-05
1.99166e-05
1.99694e-05
2.00246e-05
2.00835e-05
2.01452e-05
2.02039e-05
2.02495e-05
2.02746e-05
2.02834e-05
2.02969e-05
2.03618e-05
2.03724e-05
2.03893e-05
2.04147e-05
2.04444e-05
2.04747e-05
2.05022e-05
2.05251e-05
2.05427e-05
2.0555e-05
2.05626e-05
2.0567e-05
2.057e-05
2.05737e-05
2.05791e-05
2.05867e-05
2.05961e-05
2.06067e-05
2.0618e-05
2.0629e-05
1.49067e-05
1.7742e-05
1.79687e-05
1.818e-05
1.8376e-05
1.85571e-05
1.87232e-05
1.88747e-05
1.90117e-05
1.91347e-05
1.92444e-05
1.93419e-05
1.94287e-05
1.95064e-05
1.95766e-05
1.96411e-05
1.97011e-05
1.97578e-05
1.9812e-05
1.98646e-05
1.99167e-05
1.99696e-05
2.00249e-05
2.0084e-05
2.01459e-05
2.02048e-05
2.02504e-05
2.02755e-05
2.02841e-05
2.02973e-05
2.03619e-05
2.03725e-05
2.03896e-05
2.04151e-05
2.0445e-05
2.04754e-05
2.0503e-05
2.05259e-05
2.05435e-05
2.05558e-05
2.05634e-05
2.05677e-05
2.05707e-05
2.05744e-05
2.05798e-05
2.05873e-05
2.05967e-05
2.06074e-05
2.06187e-05
2.06296e-05
1.49086e-05
1.77435e-05
1.79702e-05
1.81814e-05
1.83775e-05
1.85585e-05
1.87247e-05
1.88761e-05
1.90131e-05
1.91361e-05
1.92458e-05
1.93433e-05
1.943e-05
1.95076e-05
1.95777e-05
1.9642e-05
1.97018e-05
1.97583e-05
1.98123e-05
1.98649e-05
1.99169e-05
1.99698e-05
2.00253e-05
2.00845e-05
2.01466e-05
2.02057e-05
2.02514e-05
2.02764e-05
2.02849e-05
2.02978e-05
2.03621e-05
2.03727e-05
2.03899e-05
2.04156e-05
2.04457e-05
2.04762e-05
2.05039e-05
2.05268e-05
2.05444e-05
2.05566e-05
2.05642e-05
2.05685e-05
2.05715e-05
2.05751e-05
2.05805e-05
2.05881e-05
2.05975e-05
2.06081e-05
2.06194e-05
2.06303e-05
1.49107e-05
1.77452e-05
1.79719e-05
1.81831e-05
1.83791e-05
1.85601e-05
1.87262e-05
1.88777e-05
1.90147e-05
1.91377e-05
1.92473e-05
1.93448e-05
1.94315e-05
1.95089e-05
1.95789e-05
1.9643e-05
1.97026e-05
1.97589e-05
1.98128e-05
1.98652e-05
1.99172e-05
1.99701e-05
2.00257e-05
2.00851e-05
2.01474e-05
2.02066e-05
2.02524e-05
2.02773e-05
2.02856e-05
2.02983e-05
2.03623e-05
2.03729e-05
2.03902e-05
2.04162e-05
2.04464e-05
2.04771e-05
2.05048e-05
2.05277e-05
2.05453e-05
2.05575e-05
2.0565e-05
2.05693e-05
2.05723e-05
2.05759e-05
2.05814e-05
2.05889e-05
2.05983e-05
2.06089e-05
2.06202e-05
2.06311e-05
1.49129e-05
1.77471e-05
1.79737e-05
1.81848e-05
1.83808e-05
1.85618e-05
1.87279e-05
1.88794e-05
1.90164e-05
1.91393e-05
1.9249e-05
1.93464e-05
1.9433e-05
1.95103e-05
1.95801e-05
1.9644e-05
1.97035e-05
1.97596e-05
1.98133e-05
1.98656e-05
1.99176e-05
1.99705e-05
2.00262e-05
2.00858e-05
2.01483e-05
2.02077e-05
2.02535e-05
2.02783e-05
2.02864e-05
2.02988e-05
2.03625e-05
2.03731e-05
2.03906e-05
2.04167e-05
2.04472e-05
2.04779e-05
2.05057e-05
2.05287e-05
2.05462e-05
2.05584e-05
2.0566e-05
2.05702e-05
2.05732e-05
2.05768e-05
2.05822e-05
2.05898e-05
2.05992e-05
2.06098e-05
2.0621e-05
2.06319e-05
1.49154e-05
1.77491e-05
1.79756e-05
1.81868e-05
1.83827e-05
1.85636e-05
1.87297e-05
1.88812e-05
1.90182e-05
1.91411e-05
1.92508e-05
1.93482e-05
1.94346e-05
1.95118e-05
1.95815e-05
1.96452e-05
1.97044e-05
1.97603e-05
1.98139e-05
1.98661e-05
1.9918e-05
1.99709e-05
2.00267e-05
2.00865e-05
2.01493e-05
2.02087e-05
2.02546e-05
2.02794e-05
2.02873e-05
2.02994e-05
2.03627e-05
2.03733e-05
2.0391e-05
2.04174e-05
2.0448e-05
2.04789e-05
2.05067e-05
2.05297e-05
2.05472e-05
2.05594e-05
2.05669e-05
2.05712e-05
2.05741e-05
2.05778e-05
2.05832e-05
2.05907e-05
2.06001e-05
2.06108e-05
2.0622e-05
2.06329e-05
1.49181e-05
1.77512e-05
1.79778e-05
1.81888e-05
1.83847e-05
1.85656e-05
1.87317e-05
1.88831e-05
1.90201e-05
1.9143e-05
1.92527e-05
1.935e-05
1.94364e-05
1.95134e-05
1.95829e-05
1.96464e-05
1.97054e-05
1.97611e-05
1.98146e-05
1.98666e-05
1.99184e-05
1.99714e-05
2.00273e-05
2.00873e-05
2.01503e-05
2.02099e-05
2.02558e-05
2.02805e-05
2.02882e-05
2.03e-05
2.0363e-05
2.03736e-05
2.03914e-05
2.0418e-05
2.04489e-05
2.04799e-05
2.05078e-05
2.05308e-05
2.05483e-05
2.05605e-05
2.0568e-05
2.05722e-05
2.05752e-05
2.05788e-05
2.05842e-05
2.05918e-05
2.06012e-05
2.06118e-05
2.0623e-05
2.06339e-05
1.4921e-05
1.77536e-05
1.798e-05
1.81911e-05
1.83869e-05
1.85678e-05
1.87338e-05
1.88852e-05
1.90221e-05
1.91451e-05
1.92546e-05
1.93519e-05
1.94382e-05
1.95151e-05
1.95844e-05
1.96477e-05
1.97065e-05
1.9762e-05
1.98153e-05
1.98672e-05
1.9919e-05
1.9972e-05
2.0028e-05
2.00882e-05
2.01513e-05
2.02111e-05
2.0257e-05
2.02816e-05
2.02891e-05
2.03007e-05
2.03633e-05
2.03739e-05
2.03919e-05
2.04187e-05
2.04498e-05
2.04809e-05
2.05089e-05
2.05319e-05
2.05495e-05
2.05616e-05
2.05691e-05
2.05733e-05
2.05763e-05
2.05799e-05
2.05853e-05
2.05929e-05
2.06023e-05
2.0613e-05
2.06242e-05
2.0635e-05
1.4924e-05
1.7756e-05
1.79824e-05
1.81934e-05
1.83892e-05
1.857e-05
1.8736e-05
1.88873e-05
1.90243e-05
1.91472e-05
1.92567e-05
1.93539e-05
1.94401e-05
1.95169e-05
1.9586e-05
1.96491e-05
1.97077e-05
1.9763e-05
1.98161e-05
1.98679e-05
1.99196e-05
1.99726e-05
2.00287e-05
2.00891e-05
2.01525e-05
2.02124e-05
2.02583e-05
2.02828e-05
2.029e-05
2.03013e-05
2.03636e-05
2.03742e-05
2.03924e-05
2.04194e-05
2.04507e-05
2.0482e-05
2.05101e-05
2.05331e-05
2.05507e-05
2.05628e-05
2.05702e-05
2.05744e-05
2.05774e-05
2.05811e-05
2.05865e-05
2.05941e-05
2.06035e-05
2.06142e-05
2.06254e-05
2.06363e-05
1.49272e-05
1.77586e-05
1.7985e-05
1.81959e-05
1.83916e-05
1.85724e-05
1.87383e-05
1.88896e-05
1.90265e-05
1.91494e-05
1.92589e-05
1.9356e-05
1.94421e-05
1.95188e-05
1.95877e-05
1.96506e-05
1.9709e-05
1.97641e-05
1.9817e-05
1.98686e-05
1.99202e-05
1.99733e-05
2.00295e-05
2.00901e-05
2.01537e-05
2.02137e-05
2.02596e-05
2.0284e-05
2.0291e-05
2.0302e-05
2.03639e-05
2.03746e-05
2.03929e-05
2.04202e-05
2.04517e-05
2.04831e-05
2.05113e-05
2.05344e-05
2.05519e-05
2.0564e-05
2.05715e-05
2.05757e-05
2.05786e-05
2.05823e-05
2.05878e-05
2.05954e-05
2.06048e-05
2.06155e-05
2.06267e-05
2.06376e-05
1.49306e-05
1.77614e-05
1.79877e-05
1.81985e-05
1.83942e-05
1.85749e-05
1.87408e-05
1.8892e-05
1.90289e-05
1.91517e-05
1.92612e-05
1.93582e-05
1.94442e-05
1.95207e-05
1.95895e-05
1.96522e-05
1.97103e-05
1.97652e-05
1.98179e-05
1.98694e-05
1.9921e-05
1.9974e-05
2.00304e-05
2.00912e-05
2.01549e-05
2.02151e-05
2.0261e-05
2.02853e-05
2.02921e-05
2.03028e-05
2.03643e-05
2.0375e-05
2.03935e-05
2.0421e-05
2.04527e-05
2.04843e-05
2.05126e-05
2.05357e-05
2.05532e-05
2.05653e-05
2.05728e-05
2.0577e-05
2.058e-05
2.05836e-05
2.05891e-05
2.05968e-05
2.06062e-05
2.06169e-05
2.06282e-05
2.0639e-05
1.49341e-05
1.77642e-05
1.79905e-05
1.82013e-05
1.83969e-05
1.85775e-05
1.87433e-05
1.88945e-05
1.90313e-05
1.91541e-05
1.92635e-05
1.93605e-05
1.94464e-05
1.95228e-05
1.95913e-05
1.96538e-05
1.97117e-05
1.97664e-05
1.98189e-05
1.98703e-05
1.99218e-05
1.99748e-05
2.00313e-05
2.00923e-05
2.01563e-05
2.02166e-05
2.02624e-05
2.02866e-05
2.02931e-05
2.03035e-05
2.03646e-05
2.03754e-05
2.03941e-05
2.04219e-05
2.04538e-05
2.04856e-05
2.05139e-05
2.05371e-05
2.05546e-05
2.05667e-05
2.05741e-05
2.05783e-05
2.05813e-05
2.0585e-05
2.05905e-05
2.05982e-05
2.06077e-05
2.06185e-05
2.06297e-05
2.06406e-05
1.49379e-05
1.77673e-05
1.79934e-05
1.82042e-05
1.83997e-05
1.85802e-05
1.8746e-05
1.88971e-05
1.90339e-05
1.91566e-05
1.92659e-05
1.93629e-05
1.94486e-05
1.95249e-05
1.95932e-05
1.96555e-05
1.97132e-05
1.97677e-05
1.982e-05
1.98712e-05
1.99226e-05
1.99757e-05
2.00323e-05
2.00935e-05
2.01577e-05
2.02181e-05
2.02639e-05
2.02879e-05
2.02942e-05
2.03043e-05
2.0365e-05
2.03758e-05
2.03947e-05
2.04228e-05
2.04549e-05
2.04869e-05
2.05153e-05
2.05385e-05
2.0556e-05
2.05681e-05
2.05756e-05
2.05798e-05
2.05828e-05
2.05865e-05
2.05921e-05
2.05998e-05
2.06093e-05
2.06201e-05
2.06314e-05
2.06423e-05
1.49417e-05
1.77704e-05
1.79965e-05
1.82072e-05
1.84026e-05
1.85831e-05
1.87488e-05
1.88998e-05
1.90365e-05
1.91592e-05
1.92685e-05
1.93653e-05
1.9451e-05
1.9527e-05
1.95952e-05
1.96573e-05
1.97148e-05
1.9769e-05
1.98211e-05
1.98722e-05
1.99235e-05
1.99766e-05
2.00334e-05
2.00948e-05
2.01592e-05
2.02197e-05
2.02655e-05
2.02893e-05
2.02953e-05
2.03052e-05
2.03655e-05
2.03763e-05
2.03954e-05
2.04237e-05
2.04561e-05
2.04882e-05
2.05167e-05
2.054e-05
2.05575e-05
2.05696e-05
2.0577e-05
2.05813e-05
2.05843e-05
2.05881e-05
2.05937e-05
2.06014e-05
2.0611e-05
2.06218e-05
2.06332e-05
2.06441e-05
1.49458e-05
1.77737e-05
1.79998e-05
1.82103e-05
1.84057e-05
1.85861e-05
1.87517e-05
1.89027e-05
1.90393e-05
1.91619e-05
1.92711e-05
1.93678e-05
1.94534e-05
1.95293e-05
1.95973e-05
1.96591e-05
1.97164e-05
1.97704e-05
1.98223e-05
1.98733e-05
1.99245e-05
1.99776e-05
2.00345e-05
2.00961e-05
2.01608e-05
2.02213e-05
2.02671e-05
2.02907e-05
2.02964e-05
2.0306e-05
2.03659e-05
2.03768e-05
2.03962e-05
2.04247e-05
2.04574e-05
2.04896e-05
2.05182e-05
2.05415e-05
2.05591e-05
2.05712e-05
2.05786e-05
2.05828e-05
2.05859e-05
2.05897e-05
2.05954e-05
2.06032e-05
2.06128e-05
2.06237e-05
2.06351e-05
2.0646e-05
1.495e-05
1.77772e-05
1.80031e-05
1.82136e-05
1.84089e-05
1.85892e-05
1.87547e-05
1.89056e-05
1.90421e-05
1.91647e-05
1.92738e-05
1.93704e-05
1.94558e-05
1.95316e-05
1.95994e-05
1.9661e-05
1.9718e-05
1.97718e-05
1.98236e-05
1.98744e-05
1.99255e-05
1.99787e-05
2.00357e-05
2.00975e-05
2.01624e-05
2.02231e-05
2.02687e-05
2.02921e-05
2.02975e-05
2.03068e-05
2.03664e-05
2.03773e-05
2.03969e-05
2.04258e-05
2.04586e-05
2.0491e-05
2.05197e-05
2.05431e-05
2.05607e-05
2.05728e-05
2.05802e-05
2.05845e-05
2.05876e-05
2.05914e-05
2.05971e-05
2.0605e-05
2.06147e-05
2.06257e-05
2.06371e-05
2.06481e-05
1.49545e-05
1.77807e-05
1.80066e-05
1.8217e-05
1.84122e-05
1.85924e-05
1.87579e-05
1.89087e-05
1.90451e-05
1.91675e-05
1.92766e-05
1.93731e-05
1.94584e-05
1.9534e-05
1.96016e-05
1.9663e-05
1.97198e-05
1.97733e-05
1.98249e-05
1.98755e-05
1.99266e-05
1.99798e-05
2.00369e-05
2.0099e-05
2.01641e-05
2.02249e-05
2.02704e-05
2.02936e-05
2.02987e-05
2.03077e-05
2.03668e-05
2.03779e-05
2.03977e-05
2.04269e-05
2.046e-05
2.04925e-05
2.05213e-05
2.05447e-05
2.05623e-05
2.05745e-05
2.05819e-05
2.05862e-05
2.05893e-05
2.05932e-05
2.0599e-05
2.0607e-05
2.06168e-05
2.06278e-05
2.06393e-05
2.06503e-05
1.4959e-05
1.77845e-05
1.80103e-05
1.82206e-05
1.84157e-05
1.85958e-05
1.87611e-05
1.89118e-05
1.90482e-05
1.91705e-05
1.92794e-05
1.93758e-05
1.9461e-05
1.95364e-05
1.96038e-05
1.9665e-05
1.97215e-05
1.97749e-05
1.98262e-05
1.98767e-05
1.99277e-05
1.99809e-05
2.00382e-05
2.01006e-05
2.01658e-05
2.02267e-05
2.02722e-05
2.02951e-05
2.02999e-05
2.03086e-05
2.03673e-05
2.03785e-05
2.03985e-05
2.0428e-05
2.04613e-05
2.04941e-05
2.0523e-05
2.05464e-05
2.05641e-05
2.05762e-05
2.05837e-05
2.0588e-05
2.05912e-05
2.05951e-05
2.0601e-05
2.0609e-05
2.06189e-05
2.063e-05
2.06416e-05
2.06527e-05
1.49638e-05
1.77883e-05
1.80141e-05
1.82243e-05
1.84193e-05
1.85993e-05
1.87645e-05
1.89151e-05
1.90514e-05
1.91736e-05
1.92824e-05
1.93786e-05
1.94636e-05
1.95389e-05
1.96061e-05
1.9667e-05
1.97234e-05
1.97764e-05
1.98276e-05
1.98779e-05
1.99289e-05
1.99821e-05
2.00396e-05
2.01022e-05
2.01677e-05
2.02286e-05
2.0274e-05
2.02966e-05
2.03011e-05
2.03095e-05
2.03678e-05
2.0379e-05
2.03994e-05
2.04291e-05
2.04627e-05
2.04957e-05
2.05247e-05
2.05482e-05
2.05658e-05
2.0578e-05
2.05855e-05
2.05898e-05
2.05931e-05
2.05971e-05
2.0603e-05
2.06112e-05
2.06211e-05
2.06323e-05
2.0644e-05
2.06552e-05
1.49687e-05
1.77923e-05
1.8018e-05
1.82281e-05
1.8423e-05
1.86029e-05
1.8768e-05
1.89185e-05
1.90546e-05
1.91767e-05
1.92854e-05
1.93815e-05
1.94664e-05
1.95414e-05
1.96084e-05
1.96692e-05
1.97252e-05
1.97781e-05
1.9829e-05
1.98792e-05
1.99301e-05
1.99834e-05
2.0041e-05
2.01038e-05
2.01696e-05
2.02306e-05
2.02758e-05
2.02982e-05
2.03023e-05
2.03104e-05
2.03683e-05
2.03796e-05
2.04002e-05
2.04303e-05
2.04642e-05
2.04973e-05
2.05264e-05
2.055e-05
2.05677e-05
2.05798e-05
2.05874e-05
2.05917e-05
2.0595e-05
2.05992e-05
2.06052e-05
2.06134e-05
2.06235e-05
2.06348e-05
2.06466e-05
2.06578e-05
1.49738e-05
1.77964e-05
1.8022e-05
1.8232e-05
1.84268e-05
1.86066e-05
1.87716e-05
1.8922e-05
1.9058e-05
1.918e-05
1.92885e-05
1.93845e-05
1.94692e-05
1.95441e-05
1.96108e-05
1.96713e-05
1.97271e-05
1.97797e-05
1.98305e-05
1.98805e-05
1.99313e-05
1.99847e-05
2.00424e-05
2.01055e-05
2.01715e-05
2.02326e-05
2.02777e-05
2.02998e-05
2.03035e-05
2.03113e-05
2.03688e-05
2.03802e-05
2.04011e-05
2.04315e-05
2.04657e-05
2.0499e-05
2.05282e-05
2.05518e-05
2.05696e-05
2.05818e-05
2.05893e-05
2.05937e-05
2.05971e-05
2.06013e-05
2.06075e-05
2.06158e-05
2.0626e-05
2.06374e-05
2.06493e-05
2.06607e-05
1.4979e-05
1.78007e-05
1.80261e-05
1.82361e-05
1.84307e-05
1.86104e-05
1.87753e-05
1.89255e-05
1.90614e-05
1.91833e-05
1.92917e-05
1.93875e-05
1.9472e-05
1.95467e-05
1.96133e-05
1.96735e-05
1.9729e-05
1.97814e-05
1.98319e-05
1.98818e-05
1.99326e-05
1.9986e-05
2.00439e-05
2.01073e-05
2.01735e-05
2.02347e-05
2.02797e-05
2.03014e-05
2.03048e-05
2.03122e-05
2.03692e-05
2.03809e-05
2.04021e-05
2.04328e-05
2.04672e-05
2.05007e-05
2.05301e-05
2.05537e-05
2.05715e-05
2.05837e-05
2.05913e-05
2.05958e-05
2.05992e-05
2.06036e-05
2.06098e-05
2.06183e-05
2.06286e-05
2.06402e-05
2.06522e-05
2.06637e-05
1.49844e-05
1.7805e-05
1.80304e-05
1.82402e-05
1.84348e-05
1.86143e-05
1.87791e-05
1.89292e-05
1.9065e-05
1.91867e-05
1.92949e-05
1.93906e-05
1.9475e-05
1.95494e-05
1.96158e-05
1.96757e-05
1.9731e-05
1.97831e-05
1.98334e-05
1.98832e-05
1.99339e-05
1.99873e-05
2.00455e-05
2.01091e-05
2.01755e-05
2.02368e-05
2.02816e-05
2.0303e-05
2.0306e-05
2.03131e-05
2.03697e-05
2.03815e-05
2.0403e-05
2.0434e-05
2.04688e-05
2.05025e-05
2.0532e-05
2.05557e-05
2.05735e-05
2.05858e-05
2.05934e-05
2.05979e-05
2.06015e-05
2.06059e-05
2.06123e-05
2.06209e-05
2.06314e-05
2.06431e-05
2.06552e-05
2.06668e-05
1.49899e-05
1.78095e-05
1.80348e-05
1.82445e-05
1.84389e-05
1.86183e-05
1.8783e-05
1.8933e-05
1.90686e-05
1.91902e-05
1.92983e-05
1.93938e-05
1.94779e-05
1.95522e-05
1.96183e-05
1.9678e-05
1.9733e-05
1.97849e-05
1.9835e-05
1.98846e-05
1.99352e-05
1.99887e-05
2.0047e-05
2.01109e-05
2.01776e-05
2.0239e-05
2.02836e-05
2.03047e-05
2.03073e-05
2.0314e-05
2.03702e-05
2.03821e-05
2.04039e-05
2.04353e-05
2.04704e-05
2.05043e-05
2.05339e-05
2.05577e-05
2.05755e-05
2.05878e-05
2.05955e-05
2.06001e-05
2.06038e-05
2.06083e-05
2.06148e-05
2.06236e-05
2.06343e-05
2.06461e-05
2.06584e-05
2.06702e-05
1.49955e-05
1.7814e-05
1.80392e-05
1.82488e-05
1.84431e-05
1.86224e-05
1.87869e-05
1.89368e-05
1.90723e-05
1.91937e-05
1.93017e-05
1.9397e-05
1.9481e-05
1.9555e-05
1.96208e-05
1.96803e-05
1.97351e-05
1.97867e-05
1.98365e-05
1.9886e-05
1.99365e-05
1.99901e-05
2.00486e-05
2.01128e-05
2.01797e-05
2.02412e-05
2.02856e-05
2.03064e-05
2.03086e-05
2.0315e-05
2.03707e-05
2.03827e-05
2.04049e-05
2.04367e-05
2.0472e-05
2.05061e-05
2.05359e-05
2.05597e-05
2.05776e-05
2.059e-05
2.05977e-05
2.06024e-05
2.06061e-05
2.06108e-05
2.06175e-05
2.06264e-05
2.06373e-05
2.06493e-05
2.06618e-05
2.06737e-05
1.50012e-05
1.78187e-05
1.80438e-05
1.82533e-05
1.84475e-05
1.86266e-05
1.8791e-05
1.89407e-05
1.9076e-05
1.91973e-05
1.93051e-05
1.94003e-05
1.9484e-05
1.95579e-05
1.96235e-05
1.96826e-05
1.97371e-05
1.97885e-05
1.98381e-05
1.98874e-05
1.99379e-05
1.99915e-05
2.00502e-05
2.01147e-05
2.01819e-05
2.02434e-05
2.02877e-05
2.03081e-05
2.03099e-05
2.03159e-05
2.03711e-05
2.03833e-05
2.04058e-05
2.0438e-05
2.04736e-05
2.0508e-05
2.05379e-05
2.05618e-05
2.05797e-05
2.05921e-05
2.05999e-05
2.06047e-05
2.06086e-05
2.06134e-05
2.06202e-05
2.06294e-05
2.06404e-05
2.06526e-05
2.06653e-05
2.06774e-05
1.50071e-05
1.78234e-05
1.80484e-05
1.82578e-05
1.84518e-05
1.86309e-05
1.87951e-05
1.89447e-05
1.90798e-05
1.9201e-05
1.93086e-05
1.94036e-05
1.94872e-05
1.95607e-05
1.96261e-05
1.9685e-05
1.97392e-05
1.97903e-05
1.98397e-05
1.98888e-05
1.99392e-05
1.99929e-05
2.00519e-05
2.01166e-05
2.01841e-05
2.02456e-05
2.02898e-05
2.03098e-05
2.03111e-05
2.03168e-05
2.03716e-05
2.0384e-05
2.04068e-05
2.04393e-05
2.04753e-05
2.05099e-05
2.05399e-05
2.05639e-05
2.05819e-05
2.05943e-05
2.06022e-05
2.06071e-05
2.06111e-05
2.0616e-05
2.06231e-05
2.06324e-05
2.06437e-05
2.06561e-05
2.0669e-05
2.06813e-05
1.50131e-05
1.78283e-05
1.80531e-05
1.82624e-05
1.84563e-05
1.86352e-05
1.87993e-05
1.89487e-05
1.90837e-05
1.92047e-05
1.93122e-05
1.9407e-05
1.94903e-05
1.95637e-05
1.96287e-05
1.96874e-05
1.97413e-05
1.97921e-05
1.98413e-05
1.98902e-05
1.99406e-05
1.99944e-05
2.00535e-05
2.01186e-05
2.01863e-05
2.02479e-05
2.02918e-05
2.03115e-05
2.03124e-05
2.03177e-05
2.0372e-05
2.03845e-05
2.04077e-05
2.04407e-05
2.0477e-05
2.05118e-05
2.05419e-05
2.0566e-05
2.05841e-05
2.05966e-05
2.06045e-05
2.06095e-05
2.06136e-05
2.06188e-05
2.0626e-05
2.06356e-05
2.06471e-05
2.06597e-05
2.06728e-05
2.06854e-05
1.50191e-05
1.78331e-05
1.80579e-05
1.8267e-05
1.84608e-05
1.86396e-05
1.88035e-05
1.89528e-05
1.90876e-05
1.92084e-05
1.93157e-05
1.94104e-05
1.94935e-05
1.95666e-05
1.96314e-05
1.96898e-05
1.97434e-05
1.9794e-05
1.98429e-05
1.98917e-05
1.9942e-05
1.99958e-05
2.00552e-05
2.01205e-05
2.01885e-05
2.02502e-05
2.02939e-05
2.03132e-05
2.03137e-05
2.03186e-05
2.03724e-05
2.03851e-05
2.04087e-05
2.0442e-05
2.04787e-05
2.05137e-05
2.0544e-05
2.05682e-05
2.05863e-05
2.05989e-05
2.06069e-05
2.0612e-05
2.06163e-05
2.06216e-05
2.06291e-05
2.06389e-05
2.06506e-05
2.06635e-05
2.06769e-05
2.06896e-05
1.50252e-05
1.78381e-05
1.80627e-05
1.82717e-05
1.84654e-05
1.8644e-05
1.88078e-05
1.89569e-05
1.90916e-05
1.92122e-05
1.93194e-05
1.94138e-05
1.94967e-05
1.95696e-05
1.96341e-05
1.96922e-05
1.97455e-05
1.97958e-05
1.98445e-05
1.98931e-05
1.99434e-05
1.99973e-05
2.00569e-05
2.01225e-05
2.01907e-05
2.02525e-05
2.0296e-05
2.03149e-05
2.03149e-05
2.03194e-05
2.03727e-05
2.03857e-05
2.04096e-05
2.04433e-05
2.04803e-05
2.05156e-05
2.05461e-05
2.05704e-05
2.05886e-05
2.06012e-05
2.06093e-05
2.06145e-05
2.0619e-05
2.06245e-05
2.06322e-05
2.06423e-05
2.06543e-05
2.06675e-05
2.06811e-05
2.06941e-05
1.50314e-05
1.78431e-05
1.80676e-05
1.82765e-05
1.847e-05
1.86485e-05
1.88121e-05
1.8961e-05
1.90956e-05
1.92161e-05
1.9323e-05
1.94173e-05
1.94999e-05
1.95726e-05
1.96369e-05
1.96946e-05
1.97477e-05
1.97976e-05
1.98461e-05
1.98945e-05
1.99447e-05
1.99987e-05
2.00585e-05
2.01245e-05
2.0193e-05
2.02548e-05
2.02981e-05
2.03166e-05
2.03161e-05
2.03203e-05
2.03731e-05
2.03862e-05
2.04105e-05
2.04447e-05
2.0482e-05
2.05176e-05
2.05481e-05
2.05725e-05
2.05908e-05
2.06036e-05
2.06118e-05
2.06171e-05
2.06217e-05
2.06275e-05
2.06354e-05
2.06458e-05
2.0658e-05
2.06716e-05
2.06855e-05
2.06988e-05
1.50377e-05
1.78481e-05
1.80725e-05
1.82813e-05
1.84747e-05
1.8653e-05
1.88164e-05
1.89652e-05
1.90996e-05
1.92199e-05
1.93267e-05
1.94207e-05
1.95032e-05
1.95756e-05
1.96396e-05
1.9697e-05
1.97498e-05
1.97995e-05
1.98477e-05
1.9896e-05
1.99461e-05
2.00002e-05
2.00602e-05
2.01265e-05
2.01952e-05
2.02571e-05
2.03002e-05
2.03182e-05
2.03173e-05
2.03211e-05
2.03734e-05
2.03867e-05
2.04114e-05
2.0446e-05
2.04837e-05
2.05195e-05
2.05502e-05
2.05747e-05
2.05931e-05
2.06059e-05
2.06142e-05
2.06197e-05
2.06245e-05
2.06305e-05
2.06387e-05
2.06494e-05
2.0662e-05
2.06758e-05
2.069e-05
2.07037e-05
1.5044e-05
1.78532e-05
1.80775e-05
1.82861e-05
1.84793e-05
1.86575e-05
1.88208e-05
1.89694e-05
1.91036e-05
1.92238e-05
1.93303e-05
1.94242e-05
1.95064e-05
1.95786e-05
1.96423e-05
1.96995e-05
1.97519e-05
1.98013e-05
1.98493e-05
1.98974e-05
1.99474e-05
2.00016e-05
2.00619e-05
2.01285e-05
2.01975e-05
2.02594e-05
2.03023e-05
2.03199e-05
2.03185e-05
2.03218e-05
2.03736e-05
2.03872e-05
2.04123e-05
2.04473e-05
2.04854e-05
2.05214e-05
2.05523e-05
2.05769e-05
2.05954e-05
2.06083e-05
2.06167e-05
2.06224e-05
2.06274e-05
2.06336e-05
2.06421e-05
2.06531e-05
2.0666e-05
2.06802e-05
2.06948e-05
2.07088e-05
1.50503e-05
1.78583e-05
1.80825e-05
1.82909e-05
1.84841e-05
1.86621e-05
1.88252e-05
1.89737e-05
1.91077e-05
1.92276e-05
1.9334e-05
1.94277e-05
1.95097e-05
1.95815e-05
1.9645e-05
1.97019e-05
1.9754e-05
1.98031e-05
1.98508e-05
1.98988e-05
1.99488e-05
2.00031e-05
2.00636e-05
2.01305e-05
2.01998e-05
2.02617e-05
2.03043e-05
2.03215e-05
2.03196e-05
2.03225e-05
2.03738e-05
2.03876e-05
2.04131e-05
2.04486e-05
2.0487e-05
2.05233e-05
2.05544e-05
2.05791e-05
2.05976e-05
2.06106e-05
2.06192e-05
2.0625e-05
2.06303e-05
2.06368e-05
2.06456e-05
2.06569e-05
2.06702e-05
2.06848e-05
2.06997e-05
2.07141e-05
1.50567e-05
1.78635e-05
1.80875e-05
1.82958e-05
1.84888e-05
1.86666e-05
1.88296e-05
1.89779e-05
1.91118e-05
1.92315e-05
1.93377e-05
1.94311e-05
1.95129e-05
1.95845e-05
1.96477e-05
1.97042e-05
1.97561e-05
1.98049e-05
1.98524e-05
1.99001e-05
1.99501e-05
2.00045e-05
2.00652e-05
2.01325e-05
2.0202e-05
2.0264e-05
2.03064e-05
2.0323e-05
2.03206e-05
2.03232e-05
2.03739e-05
2.03879e-05
2.04139e-05
2.04499e-05
2.04886e-05
2.05252e-05
2.05564e-05
2.05812e-05
2.05999e-05
2.0613e-05
2.06217e-05
2.06277e-05
2.06332e-05
2.06399e-05
2.06491e-05
2.06608e-05
2.06745e-05
2.06894e-05
2.07048e-05
2.07196e-05
1.50631e-05
1.78686e-05
1.80925e-05
1.83007e-05
1.84935e-05
1.86712e-05
1.8834e-05
1.89821e-05
1.91158e-05
1.92354e-05
1.93414e-05
1.94346e-05
1.95161e-05
1.95875e-05
1.96503e-05
1.97066e-05
1.97581e-05
1.98066e-05
1.98539e-05
1.99015e-05
1.99514e-05
2.00059e-05
2.00669e-05
2.01345e-05
2.02043e-05
2.02663e-05
2.03084e-05
2.03246e-05
2.03216e-05
2.03238e-05
2.0374e-05
2.03883e-05
2.04147e-05
2.04511e-05
2.04902e-05
2.0527e-05
2.05584e-05
2.05834e-05
2.06021e-05
2.06153e-05
2.06242e-05
2.06304e-05
2.06361e-05
2.06432e-05
2.06527e-05
2.06647e-05
2.06789e-05
2.06943e-05
2.07101e-05
2.07254e-05
1.50695e-05
1.78738e-05
1.80975e-05
1.83056e-05
1.84982e-05
1.86758e-05
1.88384e-05
1.89864e-05
1.91198e-05
1.92392e-05
1.9345e-05
1.9438e-05
1.95193e-05
1.95904e-05
1.9653e-05
1.97089e-05
1.97601e-05
1.98084e-05
1.98553e-05
1.99027e-05
1.99526e-05
2.00072e-05
2.00685e-05
2.01365e-05
2.02065e-05
2.02685e-05
2.03103e-05
2.0326e-05
2.03225e-05
2.03243e-05
2.0374e-05
2.03885e-05
2.04154e-05
2.04522e-05
2.04918e-05
2.05288e-05
2.05604e-05
2.05854e-05
2.06043e-05
2.06176e-05
2.06266e-05
2.0633e-05
2.0639e-05
2.06464e-05
2.06563e-05
2.06688e-05
2.06834e-05
2.06993e-05
2.07156e-05
2.07313e-05
1.50759e-05
1.78789e-05
1.81026e-05
1.83105e-05
1.8503e-05
1.86803e-05
1.88428e-05
1.89906e-05
1.91239e-05
1.92431e-05
1.93486e-05
1.94414e-05
1.95225e-05
1.95933e-05
1.96556e-05
1.97112e-05
1.97621e-05
1.981e-05
1.98567e-05
1.9904e-05
1.99538e-05
2.00085e-05
2.00701e-05
2.01384e-05
2.02087e-05
2.02707e-05
2.03122e-05
2.03274e-05
2.03234e-05
2.03247e-05
2.03739e-05
2.03887e-05
2.0416e-05
2.04534e-05
2.04933e-05
2.05306e-05
2.05623e-05
2.05875e-05
2.06064e-05
2.06199e-05
2.0629e-05
2.06357e-05
2.06419e-05
2.06497e-05
2.066e-05
2.06729e-05
2.0688e-05
2.07044e-05
2.07212e-05
2.07375e-05
1.50823e-05
1.78841e-05
1.81076e-05
1.83154e-05
1.85077e-05
1.86849e-05
1.88472e-05
1.89948e-05
1.91279e-05
1.92469e-05
1.93522e-05
1.94447e-05
1.95256e-05
1.95961e-05
1.96581e-05
1.97134e-05
1.9764e-05
1.98116e-05
1.98581e-05
1.99052e-05
1.9955e-05
2.00098e-05
2.00717e-05
2.01403e-05
2.02109e-05
2.02729e-05
2.03141e-05
2.03287e-05
2.03241e-05
2.0325e-05
2.03737e-05
2.03888e-05
2.04166e-05
2.04544e-05
2.04947e-05
2.05323e-05
2.05642e-05
2.05895e-05
2.06085e-05
2.06221e-05
2.06314e-05
2.06383e-05
2.06448e-05
2.0653e-05
2.06637e-05
2.06771e-05
2.06926e-05
2.07096e-05
2.0727e-05
2.07438e-05
1.50886e-05
1.78892e-05
1.81126e-05
1.83202e-05
1.85124e-05
1.86894e-05
1.88515e-05
1.89989e-05
1.91318e-05
1.92506e-05
1.93558e-05
1.94481e-05
1.95286e-05
1.95989e-05
1.96606e-05
1.97156e-05
1.97658e-05
1.98131e-05
1.98593e-05