/*--------------------------------*- C++ -*----------------------------------*\
  =========                 |
  \\      /  F ield         | OpenFOAM: The Open Source CFD Toolbox
   \\    /   O peration     | Website:  https://openfoam.org
    \\  /    A nd           | Version:  9
     \\/     M anipulation  |
\*---------------------------------------------------------------------------*/
FoamFile
{
    format      ascii;
    class       volVectorField;
    location    "0.15";
    object      U;
}
// * * * * * * * * * * * * * * * * * * * * * * * * * * * * * * * * * * * * * //

dimensions      [0 1 -1 0 0 0 0];

internalField   nonuniform List<vector> 
5000
(
(2.43201e-05 0 -0.00108902)
(2.03934e-05 0 -0.00198914)
(1.92408e-05 0 -0.00240392)
(1.91957e-05 0 -0.00233687)
(1.9836e-05 0 -0.00160695)
(2.13979e-05 0 2.64376e-05)
(2.4877e-05 0 0.00282809)
(3.16897e-05 0 0.00704478)
(4.31403e-05 0 0.0128449)
(6.00381e-05 0 0.0202579)
(8.19157e-05 0 0.0291316)
(0.000106582 0 0.0391288)
(0.000130362 0 0.049772)
(0.000149013 0 0.0605241)
(0.000158937 0 0.0708766)
(0.000158056 0 0.080412)
(0.000146002 0 0.0888263)
(0.000123654 0 0.0959102)
(9.24504e-05 0 0.101504)
(5.38777e-05 0 0.105438)
(9.54413e-06 0 0.107467)
(-3.77528e-05 0 0.107193)
(-8.17545e-05 0 0.104054)
(-0.000110735 0 0.097532)
(-0.00011095 0 0.0879607)
(-7.87793e-05 0 0.077886)
(-2.70974e-05 0 0.0722837)
(2.42391e-05 0 0.074995)
(5.42785e-05 0 0.0840395)
(4.578e-05 0 0.0932992)
(2.37823e-07 0 0.0983979)
(-5.65017e-05 0 0.0967752)
(-9.77286e-05 0 0.089348)
(-0.000114779 0 0.0779524)
(-0.000110295 0 0.0643109)
(-9.21532e-05 0 0.0501777)
(-6.95424e-05 0 0.0371087)
(-4.92002e-05 0 0.0260883)
(-3.41643e-05 0 0.0175139)
(-2.47554e-05 0 0.0114433)
(-1.96689e-05 0 0.00764251)
(-1.69825e-05 0 0.0054595)
(-1.52411e-05 0 0.0039251)
(-1.38976e-05 0 0.00212317)
(-1.08697e-05 0 -0.000509502)
(-7.83676e-06 0 -0.00411966)
(-5.17961e-06 0 -0.00859289)
(-9.10415e-07 0 -0.0136875)
(3.13187e-06 0 -0.0190873)
(5.91193e-06 0 -0.0243858)
(8.72206e-05 0 -0.00105221)
(8.01315e-05 0 -0.00196759)
(7.9285e-05 0 -0.0023887)
(8.02064e-05 0 -0.002323)
(8.24033e-05 0 -0.00159374)
(8.46098e-05 0 3.67616e-05)
(8.94205e-05 0 0.00283218)
(0.000100474 0 0.00703677)
(0.000118578 0 0.0128191)
(0.000145754 0 0.0202112)
(0.000182189 0 0.0290651)
(0.000225013 0 0.0390482)
(0.000268223 0 0.0496859)
(0.000303871 0 0.0604415)
(0.000324105 0 0.0708037)
(0.000323124 0 0.0803516)
(0.000298177 0 0.0887776)
(0.000249423 0 0.0958707)
(0.000179125 0 0.10147)
(9.09935e-05 0 0.105408)
(-9.48969e-06 0 0.107436)
(-0.000113014 0 0.107156)
(-0.000202897 0 0.104002)
(-0.000254017 0 0.0974564)
(-0.000244298 0 0.0878653)
(-0.000179307 0 0.0777902)
(-9.35204e-05 0 0.0721945)
(-1.53229e-05 0 0.0748926)
(3.41925e-05 0 0.083925)
(2.18141e-05 0 0.0931938)
(-6.7073e-05 0 0.0983005)
(-0.000189465 0 0.0966752)
(-0.000284288 0 0.089235)
(-0.00032651 0 0.0778257)
(-0.000319027 0 0.0641746)
(-0.000278953 0 0.0500361)
(-0.000226699 0 0.0369642)
(-0.000177444 0 0.0259411)
(-0.000139018 0 0.0173635)
(-0.000113563 0 0.0112883)
(-9.87427e-05 0 0.00748063)
(-8.98388e-05 0 0.00528907)
(-8.31465e-05 0 0.00374636)
(-7.92735e-05 0 0.00193904)
(-6.66367e-05 0 -0.000689287)
(-5.28917e-05 0 -0.00431554)
(-4.56977e-05 0 -0.00879909)
(-3.37164e-05 0 -0.0139003)
(-2.12371e-05 0 -0.019305)
(-1.19077e-05 0 -0.0246073)
(0.000124745 0 -0.00104483)
(0.000121185 0 -0.00196642)
(0.000122933 0 -0.00239484)
(0.000125183 0 -0.00233407)
(0.00012863 0 -0.00160883)
(0.000134805 0 1.65116e-05)
(0.000143577 0 0.00280374)
(0.000155943 0 0.00699544)
(0.000175862 0 0.012761)
(0.000205783 0 0.020136)
(0.000246038 0 0.0289782)
(0.000293627 0 0.0389613)
(0.000341827 0 0.0496147)
(0.000381267 0 0.0604013)
(0.00040216 0 0.0708054)
(0.000396661 0 0.0803997)
(0.000360346 0 0.0888702)
(0.000292456 0 0.0960012)
(0.000195331 0 0.10163)
(7.3923e-05 0 0.105586)
(-6.36123e-05 0 0.107618)
(-0.000203396 0 0.107322)
(-0.000321791 0 0.104121)
(-0.000385158 0 0.097497)
(-0.000366724 0 0.0878205)
(-0.000280359 0 0.0776991)
(-0.00017844 0 0.0721091)
(-9.49577e-05 0 0.0748373)
(-4.51559e-05 0 0.0839253)
(-6.73302e-05 0 0.0932678)
(-0.000186016 0 0.0984186)
(-0.000351499 0 0.0967907)
(-0.000482627 0 0.0893122)
(-0.000542546 0 0.0778567)
(-0.000533467 0 0.064169)
(-0.000478101 0 0.0500115)
(-0.000404216 0 0.0369369)
(-0.000332749 0 0.0259215)
(-0.000275157 0 0.0173565)
(-0.000235423 0 0.0112941)
(-0.000210964 0 0.00749615)
(-0.000195108 0 0.00531013)
(-0.000181397 0 0.00377017)
(-0.000165803 0 0.00196436)
(-0.000153872 0 -0.000657677)
(-0.00014012 0 -0.0042858)
(-0.00011972 0 -0.00877581)
(-9.77958e-05 0 -0.013878)
(-7.55726e-05 0 -0.0192805)
(-5.81782e-05 0 -0.0245782)
(0.000123449 0 -0.00104544)
(0.000122353 0 -0.00197135)
(0.000124921 0 -0.00240582)
(0.000128128 0 -0.00235134)
(0.000133026 0 -0.00163189)
(0.000140498 0 -1.33236e-05)
(0.000151138 0 0.0027627)
(0.000166627 0 0.00693866)
(0.000190375 0 0.0126849)
(0.000224722 0 0.0200405)
(0.00026983 0 0.0288699)
(0.000322259 0 0.0388536)
(0.000374483 0 0.0495258)
(0.000416024 0 0.06035)
(0.000435841 0 0.0708064)
(0.000424924 0 0.08046)
(0.00037801 0 0.0889896)
(0.000293981 0 0.0961732)
(0.000175395 0 0.101844)
(2.80666e-05 0 0.105827)
(-0.000138197 0 0.107868)
(-0.000306827 0 0.107552)
(-0.000450158 0 0.104294)
(-0.000529252 0 0.0975746)
(-0.000512797 0 0.0877947)
(-0.000416251 0 0.0776134)
(-0.000300994 0 0.0720246)
(-0.000207563 0 0.0747889)
(-0.000154443 0 0.0839478)
(-0.000186732 0 0.0933845)
(-0.00033284 0 0.0985997)
(-0.000535342 0 0.0969763)
(-0.000697042 0 0.089454)
(-0.000772584 0 0.0779407)
(-0.000764019 0 0.0642048)
(-0.000697864 0 0.0500201)
(-0.000607267 0 0.0369392)
(-0.000517708 0 0.0259317)
(-0.00044363 0 0.0173815)
(-0.000390526 0 0.0113352)
(-0.000355809 0 0.00755)
(-0.000331738 0 0.00537189)
(-0.000310902 0 0.00383593)
(-0.000287633 0 0.00202984)
(-0.000268558 0 -0.000602477)
(-0.000249336 0 -0.00421479)
(-0.000221602 0 -0.00870287)
(-0.000189882 0 -0.0138026)
(-0.000157824 0 -0.0192007)
(-0.000131361 0 -0.0244914)
(8.1967e-05 0 -0.00104587)
(8.16165e-05 0 -0.00197399)
(8.30733e-05 0 -0.00241269)
(8.58315e-05 0 -0.00236315)
(9.06366e-05 0 -0.00164884)
(9.81371e-05 0 -3.70039e-05)
(0.000109655 0 0.00272875)
(0.000127526 0 0.00688937)
(0.000154778 0 0.0126158)
(0.000193619 0 0.019951)
(0.000243954 0 0.0287655)
(0.000301819 0 0.0387471)
(0.0003589 0 0.0494353)
(0.000403702 0 0.0602944)
(0.000424071 0 0.0708009)
(0.000409992 0 0.0805129)
(0.000355512 0 0.0891012)
(0.000259279 0 0.0963373)
(0.000124107 0 0.102049)
(-4.34387e-05 0 0.106059)
(-0.00023227 0 0.108105)
(-0.00042396 0 0.107765)
(-0.000588523 0 0.104444)
(-0.000684599 0 0.0976267)
(-0.000678591 0 0.0877459)
(-0.000584566 0 0.0775109)
(-0.000464614 0 0.0719268)
(-0.000361699 0 0.0747241)
(-0.000301115 0 0.0839462)
(-0.000337716 0 0.0934709)
(-0.00050472 0 0.0987489)
(-0.000738445 0 0.0971284)
(-0.000926974 0 0.0895592)
(-0.00101793 0 0.0779836)
(-0.001013 0 0.064195)
(-0.000940964 0 0.0499795)
(-0.000838649 0 0.0368895)
(-0.000734996 0 0.0258879)
(-0.000646966 0 0.0173511)
(-0.000581386 0 0.0113196)
(-0.000535887 0 0.00754555)
(-0.000502383 0 0.00537322)
(-0.000473483 0 0.00383873)
(-0.000444038 0 0.00203182)
(-0.000414216 0 -0.000605383)
(-0.000384413 0 -0.00421745)
(-0.000350008 0 -0.00870306)
(-0.000309659 0 -0.0138027)
(-0.000268315 0 -0.0191982)
(-0.000232129 0 -0.0244831)
(-5.24857e-07 0 -0.00104484)
(-5.31801e-07 0 -0.0019741)
(-7.25636e-07 0 -0.00241592)
(7.87372e-07 0 -0.00237084)
(4.45536e-06 0 -0.00166225)
(1.12632e-05 0 -5.85448e-05)
(2.2969e-05 0 0.00269507)
(4.21916e-05 0 0.00683834)
(7.19481e-05 0 0.0125432)
(0.000114421 0 0.0198564)
(0.000169274 0 0.0286552)
(0.000232101 0 0.0386345)
(0.00029394 0 0.0493393)
(0.000342461 0 0.0602347)
(0.000364563 0 0.0707934)
(0.000349338 0 0.0805661)
(0.000290175 0 0.0892154)
(0.000185451 0 0.0965057)
(3.81623e-05 0 0.10226)
(-0.000144515 0 0.106296)
(-0.000350463 0 0.108345)
(-0.000559929 0 0.107979)
(-0.000741768 0 0.104593)
(-0.000854283 0 0.0976759)
(-0.000863773 0 0.087694)
(-0.000781897 0 0.0774036)
(-0.000666047 0 0.071819)
(-0.00055759 0 0.0746442)
(-0.000488806 0 0.0839273)
(-0.000524858 0 0.0935411)
(-0.000705565 0 0.0988842)
(-0.000964031 0 0.097266)
(-0.00117548 0 0.0896463)
(-0.00128157 0 0.0780036)
(-0.00128297 0 0.0641578)
(-0.00120934 0 0.0499076)
(-0.00109974 0 0.0368058)
(-0.000985578 0 0.0258081)
(-0.000885921 0 0.0172837)
(-0.0008088 0 0.0112662)
(-0.000752274 0 0.00750259)
(-0.000708413 0 0.00533534)
(-0.000669931 0 0.00380179)
(-0.000632639 0 0.00199437)
(-0.000593202 0 -0.000642789)
(-0.000551728 0 -0.00426135)
(-0.000507784 0 -0.00874795)
(-0.000458881 0 -0.0138508)
(-0.000407963 0 -0.0192455)
(-0.00036114 0 -0.024526)
(-0.000123728 0 -0.00104314)
(-0.000123428 0 -0.00197243)
(-0.000125225 0 -0.00241647)
(-0.00012511 0 -0.00237585)
(-0.000122767 0 -0.00167431)
(-0.000116829 0 -8.11463e-05)
(-0.000105165 0 0.00265726)
(-8.49307e-05 0 0.00678003)
(-5.30269e-05 0 0.0124605)
(-7.31984e-06 0 0.0197499)
(5.16343e-05 0 0.0285322)
(0.000119043 0 0.03851)
(0.000185395 0 0.0492335)
(0.000237657 0 0.0601691)
(0.000261937 0 0.070785)
(0.00024657 0 0.0806241)
(0.000184378 0 0.0893402)
(7.34924e-05 0 0.0966899)
(-8.29769e-05 0 0.102491)
(-0.000277387 0 0.106555)
(-0.000496886 0 0.108609)
(-0.00072092 0 0.108217)
(-0.000917908 0 0.104765)
(-0.00104668 0 0.0977473)
(-0.00107408 0 0.0876614)
(-0.00100865 0 0.0773079)
(-0.000900901 0 0.0717118)
(-0.000789338 0 0.0745584)
(-0.000713172 0 0.0839054)
(-0.000746951 0 0.093617)
(-0.000937245 0 0.099034)
(-0.00121592 0 0.097421)
(-0.00144721 0 0.0897485)
(-0.00156789 0 0.0780338)
(-0.00157716 0 0.0641257)
(-0.00150469 0 0.0498367)
(-0.00139083 0 0.0367199)
(-0.00126878 0 0.0257245)
(-0.00115931 0 0.0172119)
(-0.00107152 0 0.0112084)
(-0.00100399 0 0.00745565)
(-0.000949256 0 0.00529416)
(-0.000900248 0 0.00376254)
(-0.000853157 0 0.00195492)
(-0.000804596 0 -0.000681865)
(-0.000752459 0 -0.00430406)
(-0.000697427 0 -0.00879386)
(-0.000638565 0 -0.0139002)
(-0.000576885 0 -0.0192951)
(-0.000518085 0 -0.0245718)
(-0.000285234 0 -0.00104069)
(-0.000284812 0 -0.00196881)
(-0.00028786 0 -0.00241417)
(-0.000288778 0 -0.00237794)
(-0.000287389 0 -0.00168451)
(-0.000282027 0 -0.000103852)
(-0.000270242 0 0.00261683)
(-0.000248997 0 0.00671646)
(-0.000215119 0 0.0123702)
(-0.000166521 0 0.0196339)
(-0.00010393 0 0.0283988)
(-3.24414e-05 0 0.0383752)
(3.79873e-05 0 0.0491191)
(9.37383e-05 0 0.0600978)
(0.000120241 0 0.0707751)
(0.000105153 0 0.0806857)
(4.07781e-05 0 0.0894739)
(-7.50161e-05 0 0.0968881)
(-0.000239067 0 0.102739)
(-0.000443401 0 0.106835)
(-0.000674693 0 0.108897)
(-0.000911925 0 0.108479)
(-0.00112336 0 0.104962)
(-0.00126834 0 0.0978443)
(-0.00131385 0 0.0876526)
(-0.001265 0 0.0772285)
(-0.00116549 0 0.0716095)
(-0.00105167 0 0.0744709)
(-0.00096951 0 0.0838843)
(-0.0010015 0 0.093702)
(-0.00120012 0 0.0992025)
(-0.00149671 0 0.0975984)
(-0.00174595 0 0.0898718)
(-0.00188059 0 0.0780814)
(-0.00189821 0 0.0641065)
(-0.00182824 0 0.0497744)
(-0.00171185 0 0.0366396)
(-0.0015836 0 0.0256448)
(-0.00146564 0 0.0171431)
(-0.00136796 0 0.0111534)
(-0.00128972 0 0.00741159)
(-0.00122403 0 0.00525641)
(-0.00116427 0 0.00372757)
(-0.0011066 0 0.00192017)
(-0.00104808 0 -0.000717692)
(-0.000985706 0 -0.00434158)
(-0.00091921 0 -0.00883444)
(-0.000848669 0 -0.0139432)
(-0.000774866 0 -0.0193387)
(-0.000702508 0 -0.0246123)
(-0.000480932 0 -0.00103751)
(-0.000480368 0 -0.00196345)
(-0.00048412 0 -0.00240952)
(-0.000485471 0 -0.00237763)
(-0.000484438 0 -0.0016929)
(-0.000479188 0 -0.0001259)
(-0.000467077 0 0.00257555)
(-0.000444965 0 0.00665041)
(-0.000409646 0 0.0122759)
(-0.000359067 0 0.0195127)
(-0.000294041 0 0.0282594)
(-0.000219816 0 0.0382343)
(-0.000146597 0 0.0489993)
(-8.83922e-05 0 0.0600226)
(-6.03075e-05 0 0.0707637)
(-7.52837e-05 0 0.080749)
(-0.000141549 0 0.0896129)
(-0.000261567 0 0.0970951)
(-0.00043225 0 0.103)
(-0.000645453 0 0.10713)
(-0.00088752 0 0.109201)
(-0.00113707 0 0.108758)
(-0.00136213 0 0.105177)
(-0.00152213 0 0.0979602)
(-0.00158374 0 0.087662)
(-0.00154898 0 0.077162)
(-0.00145645 0 0.0715114)
(-0.00134165 0 0.0743818)
(-0.00125632 0 0.0838623)
(-0.00128863 0 0.0937914)
(-0.00149573 0 0.0993818)
(-0.00180886 0 0.0977895)
(-0.00207451 0 0.0900079)
(-0.00222212 0 0.0781387)
(-0.00224778 0 0.0640934)
(-0.00218065 0 0.0497148)
(-0.00206256 0 0.0365591)
(-0.00192917 0 0.0255629)
(-0.00180373 0 0.0170709)
(-0.00169698 0 0.0110942)
(-0.00160863 0 0.00736304)
(-0.00153235 0 0.00521416)
(-0.00146205 0 0.00368825)
(-0.00139384 0 0.00188131)
(-0.00132467 0 -0.000758412)
(-0.00125147 0 -0.00438484)
(-0.00117286 0 -0.00888054)
(-0.00108919 0 -0.0139915)
(-0.00100179 0 -0.019388)
(-0.000914144 0 -0.0246594)
(-0.000707299 0 -0.00103425)
(-0.0007063 0 -0.0019577)
(-0.000710105 0 -0.00240438)
(-0.000711253 0 -0.00237689)
(-0.000709988 0 -0.00170111)
(-0.000704464 0 -0.000148235)
(-0.000691978 0 0.00253336)
(-0.000669378 0 0.00658283)
(-0.000633491 0 0.0121795)
(-0.000582298 0 0.019389)
(-0.000516626 0 0.0281171)
(-0.000441705 0 0.0380904)
(-0.000367756 0 0.0488765)
(-0.000308925 0 0.0599451)
(-0.000280641 0 0.0707515)
(-0.000296328 0 0.0808136)
(-0.000364736 0 0.0897556)
(-0.000488741 0 0.0973085)
(-0.000665461 0 0.10327)
(-0.000886717 0 0.107436)
(-0.00113861 0 0.109516)
(-0.00139935 0 0.10905)
(-0.00163652 0 0.105405)
(-0.00180916 0 0.09809)
(-0.00188333 0 0.0876843)
(-0.00185895 0 0.0771043)
(-0.00177186 0 0.071416)
(-0.00165822 0 0.074292)
(-0.00157393 0 0.0838398)
(-0.00160987 0 0.0938832)
(-0.00182632 0 0.0995677)
(-0.00215475 0 0.0979888)
(-0.00243509 0 0.0901511)
(-0.00259424 0 0.0782007)
(-0.00262701 0 0.0640819)
(-0.00256243 0 0.0496539)
(-0.00244296 0 0.0364749)
(-0.00230513 0 0.0254754)
(-0.00217304 0 0.0169917)
(-0.00205807 0 0.011027)
(-0.00196043 0 0.00730583)
(-0.00187429 0 0.00516291)
(-0.0017939 0 0.00363968)
(-0.0017154 0 0.00183309)
(-0.00163535 0 -0.00080868)
(-0.00155046 0 -0.00443884)
(-0.00145878 0 -0.00893819)
(-0.00136061 0 -0.014052)
(-0.00125785 0 -0.0194502)
(-0.00115307 0 -0.024721)
(-0.000962622 0 -0.0010318)
(-0.00096084 0 -0.00195322)
(-0.000964212 0 -0.00240073)
(-0.000964694 0 -0.00237764)
(-0.000962802 0 -0.00171066)
(-0.000956802 0 -0.000171712)
(-0.000944033 0 0.00249026)
(-0.000921415 0 0.00651466)
(-0.000885861 0 0.0120829)
(-0.000835408 0 0.0192655)
(-0.000770848 0 0.0279754)
(-0.000697278 0 0.0379471)
(-0.000624747 0 0.0487543)
(-0.000567315 0 0.0598684)
(-0.000540524 0 0.0707407)
(-0.000558127 0 0.0808807)
(-0.00062934 0 0.0899028)
(-0.000757482 0 0.0975284)
(-0.000939963 0 0.103548)
(-0.00116867 0 0.107752)
(-0.00142949 0 0.109843)
(-0.00170019 0 0.109355)
(-0.00194764 0 0.105646)
(-0.00213013 0 0.098231)
(-0.00221305 0 0.0877159)
(-0.00219524 0 0.0770526)
(-0.00211204 0 0.0713236)
(-0.00200168 0 0.0742041)
(-0.00192276 0 0.0838204)
(-0.00196603 0 0.0939799)
(-0.00219316 0 0.0997609)
(-0.00253593 0 0.0981961)
(-0.00282924 0 0.0903011)
(-0.00299834 0 0.0782671)
(-0.00303701 0 0.0640722)
(-0.00297438 0 0.0495922)
(-0.00285353 0 0.0363878)
(-0.00271174 0 0.0253832)
(-0.00257372 0 0.0169066)
(-0.00245135 0 0.010953)
(-0.00234531 0 0.0072411)
(-0.00225014 0 0.00510374)
(-0.00216024 0 0.00358285)
(-0.00207163 0 0.00177616)
(-0.00198056 0 -0.000868033)
(-0.00188336 0 -0.00450271)
(-0.00177767 0 -0.00900705)
(-0.00166366 0 -0.014125)
(-0.00154359 0 -0.019526)
(-0.00141969 0 -0.0247976)
(-0.00124691 0 -0.00103067)
(-0.0012442 0 -0.00195098)
(-0.001247 0 -0.00239963)
(-0.00124665 0 -0.00238077)
(-0.00124402 0 -0.00172206)
(-0.00123755 0 -0.000196315)
(-0.00122466 0 0.00244694)
(-0.00120242 0 0.00644735)
(-0.00116786 0 0.0119884)
(-0.0011191 0 0.0191452)
(-0.0010569 0 0.0278377)
(-0.00098616 0 0.0378081)
(-0.000916661 0 0.0486364)
(-0.000862236 0 0.0597957)
(-0.000838388 0 0.0707339)
(-0.000859068 0 0.0809524)
(-0.000933868 0 0.0900557)
(-0.00106653 0 0.0977558)
(-0.00125477 0 0.103835)
(-0.00149059 0 0.108078)
(-0.00175968 0 0.110182)
(-0.00203928 0 0.10967)
(-0.00229542 0 0.105897)
(-0.00248541 0 0.0983805)
(-0.00257399 0 0.0877535)
(-0.00255976 0 0.0770048)
(-0.0024791 0 0.0712343)
(-0.00237337 0 0.0741212)
(-0.00230306 0 0.083808)
(-0.00235678 0 0.0940846)
(-0.00259608 0 0.0999629)
(-0.00295275 0 0.098412)
(-0.00325775 0 0.0904583)
(-0.00343544 0 0.0783385)
(-0.00347891 0 0.064065)
(-0.0034176 0 0.0495307)
(-0.00329527 0 0.036299)
(-0.00314984 0 0.0252881)
(-0.0030065 0 0.0168174)
(-0.00287747 0 0.010874)
(-0.00276381 0 0.00717092)
(-0.00266036 0 0.00503869)
(-0.00256148 0 0.00351967)
(-0.00246291 0 0.00171222)
(-0.00236062 0 -0.000935237)
(-0.00225058 0 -0.00457533)
(-0.0021301 0 -0.00908603)
(-0.00199898 0 -0.0142095)
(-0.00185975 0 -0.0196144)
(-0.00171468 0 -0.0248886)
(-0.00156123 0 -0.00103073)
(-0.00155771 0 -0.00195088)
(-0.0015601 0 -0.00240095)
(-0.00155906 0 -0.00238609)
(-0.00155583 0 -0.00173504)
(-0.00154903 0 -0.00022156)
(-0.00153621 0 0.00240417)
(-0.00151458 0 0.00638206)
(-0.00148134 0 0.0118975)
(-0.00143472 0 0.01903)
(-0.00137544 0 0.0277062)
(-0.00130823 0 0.0376759)
(-0.00124258 0 0.0485252)
(-0.00119207 0 0.0597294)
(-0.00117207 0 0.0707331)
(-0.00119665 0 0.0810303)
(-0.00127569 0 0.0902155)
(-0.0014133 0 0.097991)
(-0.00160749 0 0.104132)
(-0.00185032 0 0.108415)
(-0.00212731 0 0.110532)
(-0.00241513 0 0.109996)
(-0.00267886 0 0.106156)
(-0.00287482 0 0.0985362)
(-0.00296718 0 0.0877948)
(-0.0029548 0 0.0769592)
(-0.00287583 0 0.0711484)
(-0.00277523 0 0.0740452)
(-0.00271512 0 0.0838052)
(-0.00278119 0 0.0941993)
(-0.00303397 0 0.100175)
(-0.00340465 0 0.0986367)
(-0.00372072 0 0.0906223)
(-0.00390616 0 0.0784144)
(-0.0039537 0 0.0640599)
(-0.00389329 0 0.0494695)
(-0.00376943 0 0.036209)
(-0.00362064 0 0.0251905)
(-0.00347246 0 0.0167247)
(-0.00333737 0 0.0107909)
(-0.00321673 0 0.00709609)
(-0.00310556 0 0.00496852)
(-0.00299808 0 0.00345077)
(-0.00288967 0 0.00164168)
(-0.00277594 0 -0.00101018)
(-0.00265254 0 -0.00465698)
(-0.00251649 0 -0.00917548)
(-0.00236717 0 -0.014306)
(-0.00220715 0 -0.0197163)
(-0.00203892 0 -0.0249946)
(-0.00190695 0 -0.00103152)
(-0.00190279 0 -0.00195217)
(-0.00190506 0 -0.00240387)
(-0.00190362 0 -0.00239284)
(-0.00190005 0 -0.00174895)
(-0.00189312 0 -0.000246924)
(-0.00188052 0 0.00236243)
(-0.00185959 0 0.0063192)
(-0.00182774 0 0.0118107)
(-0.00178328 0 0.0189204)
(-0.00172695 0 0.0275815)
(-0.00166333 0 0.0375512)
(-0.00160169 0 0.0484217)
(-0.00155535 0 0.0596704)
(-0.00153955 0 0.0707395)
(-0.00156844 0 0.0811153)
(-0.00165214 0 0.0903826)
(-0.00179505 0 0.0982343)
(-0.00199542 0 0.104437)
(-0.00224535 0 0.108762)
(-0.00253011 0 0.110891)
(-0.00282579 0 0.110331)
(-0.00309658 0 0.106423)
(-0.00329783 0 0.0986965)
(-0.00339326 0 0.0878385)
(-0.00338216 0 0.0769149)
(-0.00330461 0 0.0710656)
(-0.00320911 0 0.0739763)
(-0.00315939 0 0.0838125)
(-0.00323847 0 0.0943247)
(-0.00350558 0 0.100397)
(-0.00389073 0 0.0988699)
(-0.00421787 0 0.0907926)
(-0.0044108 0 0.0784941)
(-0.00446214 0 0.0640565)
(-0.00440253 0 0.0494081)
(-0.00427725 0 0.0361175)
(-0.00412539 0 0.0250903)
(-0.00397279 0 0.0166288)
(-0.00383213 0 0.0107038)
(-0.00370499 0 0.00701665)
(-0.00358648 0 0.00489317)
(-0.00347063 0 0.00337592)
(-0.00335242 0 0.00156418)
(-0.00322703 0 -0.00109337)
(-0.00308979 0 -0.00474838)
(-0.00293741 0 -0.00927637)
(-0.00276893 0 -0.0144158)
(-0.00258673 0 -0.0198332)
(-0.0023935 0 -0.0251175)
(-0.00228491 0 -0.00103262)
(-0.00228023 0 -0.00195407)
(-0.00228262 0 -0.00240751)
(-0.00228102 0 -0.00240026)
(-0.00227732 0 -0.00176321)
(-0.00227042 0 -0.000272035)
(-0.00225811 0 0.00232185)
(-0.00223791 0 0.00625873)
(-0.00220737 0 0.0117276)
(-0.00216492 0 0.018816)
(-0.00211133 0 0.0274632)
(-0.00205108 0 0.0374337)
(-0.00199325 0 0.0483256)
(-0.00195096 0 0.0596189)
(-0.00193938 0 0.070753)
(-0.00197271 0 0.0812076)
(-0.00206127 0 0.0905575)
(-0.00220972 0 0.0984862)
(-0.00241647 0 0.104752)
(-0.00267364 0 0.109118)
(-0.00296624 0 0.11126)
(-0.00326975 0 0.110675)
(-0.0035475 0 0.106697)
(-0.00375394 0 0.0988612)
(-0.00385242 0 0.0878842)
(-0.00384274 0 0.076872)
(-0.00376679 0 0.0709858)
(-0.00367619 0 0.0739141)
(-0.00363633 0 0.0838297)
(-0.00372823 0 0.0944609)
(-0.0040101 0 0.100629)
(-0.0044103 0 0.0991115)
(-0.00474895 0 0.0909691)
(-0.00494957 0 0.0785775)
(-0.00500484 0 0.0640545)
(-0.0049462 0 0.0493464)
(-0.00481976 0 0.0360245)
(-0.00466517 0 0.0249878)
(-0.00450857 0 0.0165295)
(-0.00436277 0 0.0106127)
(-0.00422951 0 0.00693265)
(-0.00410394 0 0.00481259)
(-0.00397987 0 0.00329496)
(-0.00385183 0 0.00147941)
(-0.00371457 0 -0.00118524)
(-0.00356305 0 -0.0048501)
(-0.00339367 0 -0.00938943)
(-0.00320513 0 -0.0145399)
(-0.00299953 0 -0.0199666)
(-0.0027796 0 -0.0252586)
(-0.00269513 0 -0.0010339)
(-0.00268996 0 -0.00195627)
(-0.00269252 0 -0.00241149)
(-0.00269082 0 -0.00240795)
(-0.00268703 0 -0.00177752)
(-0.0026802 0 -0.000296705)
(-0.00266821 0 0.00228249)
(-0.00264874 0 0.00620051)
(-0.00261945 0 0.011648)
(-0.0025789 0 0.0187164)
(-0.00252787 0 0.0273508)
(-0.00247079 0 0.0373229)
(-0.00241659 0 0.0482365)
(-0.00237823 0 0.0595744)
(-0.00237081 0 0.0707738)
(-0.0024086 0 0.0813073)
(-0.00250213 0 0.0907405)
(-0.00265628 0 0.0987467)
(-0.00286961 0 0.105076)
(-0.00313421 0 0.109484)
(-0.0034348 0 0.111638)
(-0.00374628 0 0.111027)
(-0.0040311 0 0.106977)
(-0.00424285 0 0.0990304)
(-0.00434456 0 0.0879324)
(-0.00433659 0 0.0768306)
(-0.00426252 0 0.0709089)
(-0.00417678 0 0.0738584)
(-0.00414627 0 0.0838564)
(-0.00425061 0 0.0946078)
(-0.00454743 0 0.100871)
(-0.00496325 0 0.0993622)
(-0.00531403 0 0.0911521)
(-0.00552276 0 0.0786647)
(-0.00558228 0 0.0640542)
(-0.00552496 0 0.0492847)
(-0.00539775 0 0.0359302)
(-0.00524084 0 0.024883)
(-0.00508065 0 0.0164273)
(-0.00493015 0 0.0105179)
(-0.00479116 0 0.00684431)
(-0.0046588 0 0.00472692)
(-0.00452664 0 0.00320795)
(-0.00438876 0 0.00138731)
(-0.00423945 0 -0.00128598)
(-0.00407326 0 -0.00496247)
(-0.00388626 0 -0.00951516)
(-0.00367682 0 -0.0146789)
(-0.00344672 0 -0.0201172)
(-0.00319854 0 -0.0254192)
(-0.00313685 0 -0.00103552)
(-0.00313113 0 -0.00195895)
(-0.0031337 0 -0.00241595)
(-0.00313176 0 -0.00241599)
(-0.0031278 0 -0.00179188)
(-0.00312099 0 -0.000320906)
(-0.00310932 0 0.00224436)
(-0.00309059 0 0.00614453)
(-0.00306259 0 0.0115719)
(-0.00302398 0 0.0186214)
(-0.00297556 0 0.0272441)
(-0.00292171 0 0.0372184)
(-0.0028712 0 0.0481543)
(-0.00283685 0 0.0595371)
(-0.00283368 0 0.0708019)
(-0.00287605 0 0.0814146)
(-0.00297469 0 0.0909316)
(-0.0031347 0 0.0990163)
(-0.00335478 0 0.10541)
(-0.003627 0 0.109861)
(-0.00393578 0 0.112027)
(-0.00425541 0 0.111389)
(-0.00454742 0 0.107265)
(-0.0047645 0 0.0992043)
(-0.00486937 0 0.0879831)
(-0.00486311 0 0.0767911)
(-0.00479117 0 0.0708353)
(-0.00471057 0 0.073809)
(-0.00468941 0 0.0838923)
(-0.00480614 0 0.0947653)
(-0.00511811 0 0.101125)
(-0.00555002 0 0.0996222)
(-0.0059135 0 0.0913419)
(-0.00613078 0 0.0787562)
(-0.00619493 0 0.0640558)
(-0.00613934 0 0.0492234)
(-0.0060118 0 0.0358351)
(-0.00585304 0 0.0247765)
(-0.00568975 0 0.0163225)
(-0.00553502 0 0.0104198)
(-0.00539075 0 0.00675192)
(-0.00525196 0 0.00463638)
(-0.00511192 0 0.00311499)
(-0.00496425 0 0.00128789)
(-0.00480276 0 -0.00139571)
(-0.00462157 0 -0.00508576)
(-0.00441637 0 -0.00965396)
(-0.0041852 0 -0.0148334)
(-0.00392957 0 -0.0202859)
(-0.00365171 0 -0.0256003)
(-0.00360884 0 -0.00103777)
(-0.00360243 0 -0.00196259)
(-0.00360477 0 -0.00242138)
(-0.00360237 0 -0.0024248)
(-0.00359809 0 -0.00180654)
(-0.00359121 0 -0.000344719)
(-0.00357985 0 0.00220756)
(-0.00356193 0 0.00609102)
(-0.00353537 0 0.0114995)
(-0.00349892 0 0.0185314)
(-0.00345342 0 0.0271436)
(-0.00340315 0 0.037121)
(-0.00335671 0 0.0480794)
(-0.00332674 0 0.0595072)
(-0.00332819 0 0.0708375)
(-0.00337545 0 0.0815298)
(-0.00347945 0 0.0911311)
(-0.00364553 0 0.0992951)
(-0.00387256 0 0.105754)
(-0.00415258 0 0.110248)
(-0.00446971 0 0.112427)
(-0.0047976 0 0.111759)
(-0.00509679 0 0.107559)
(-0.00531895 0 0.0993828)
(-0.00542652 0 0.0880363)
(-0.00542159 0 0.0767534)
(-0.00535186 0 0.0707653)
(-0.005277 0 0.0737663)
(-0.00526589 0 0.0839377)
(-0.00539553 0 0.0949337)
(-0.00572306 0 0.101389)
(-0.00617145 0 0.0998919)
(-0.00654803 0 0.091539)
(-0.0067742 0 0.0788522)
(-0.00684331 0 0.0640597)
(-0.00678981 0 0.0491626)
(-0.00666241 0 0.0357394)
(-0.00650232 0 0.0246685)
(-0.00633649 0 0.0162154)
(-0.00617811 0 0.0103187)
(-0.00602911 0 0.0066558)
(-0.00588438 0 0.00454122)
(-0.0057368 0 0.00301624)
(-0.0055795 0 0.00118118)
(-0.00540577 0 -0.00151455)
(-0.00520928 0 -0.00522025)
(-0.00498535 0 -0.00980626)
(-0.00473167 0 -0.0150039)
(-0.0044495 0 -0.0204734)
(-0.00414061 0 -0.0258029)
(-0.00410978 0 -0.00104096)
(-0.00410256 0 -0.00196775)
(-0.00410445 0 -0.00242842)
(-0.00410142 0 -0.00243491)
(-0.00409666 0 -0.00182188)
(-0.00408963 0 -0.000368271)
(-0.00407858 0 0.00217221)
(-0.00406159 0 0.00604036)
(-0.00403672 0 0.0114314)
(-0.00400281 0 0.0184473)
(-0.00396071 0 0.0270501)
(-0.0039146 0 0.0370314)
(-0.00387287 0 0.0480129)
(-0.00384794 0 0.0594856)
(-0.00385459 0 0.0708814)
(-0.00390726 0 0.0816535)
(-0.00401703 0 0.0913396)
(-0.00418949 0 0.0995834)
(-0.00442369 0 0.106108)
(-0.00471168 0 0.110645)
(-0.00503728 0 0.112836)
(-0.00537342 0 0.112139)
(-0.00567956 0 0.107861)
(-0.00590628 0 0.0995652)
(-0.00601576 0 0.0880913)
(-0.00601144 0 0.0767174)
(-0.00594381 0 0.0706992)
(-0.00587549 0 0.0737311)
(-0.00587575 0 0.0839933)
(-0.00601949 0 0.0951136)
(-0.0063633 0 0.101665)
(-0.0068285 0 0.100172)
(-0.00721843 0 0.0917435)
(-0.00745368 0 0.0789529)
(-0.00752796 0 0.0640659)
(-0.0074769 0 0.0491027)
(-0.00735008 0 0.0356435)
(-0.00718924 0 0.0245593)
(-0.00702151 0 0.0161065)
(-0.00686016 0 0.0102151)
(-0.00670712 0 0.00655636)
(-0.00655706 0 0.00444176)
(-0.00640244 0 0.00291191)
(-0.0062358 0 0.00106725)
(-0.00604987 0 -0.00164259)
(-0.00583787 0 -0.00536618)
(-0.00559471 0 -0.0099725)
(-0.00531776 0 -0.0151911)
(-0.00500808 0 -0.0206805)
(-0.00466687 0 -0.026028)
(-0.00463864 0 -0.00104533)
(-0.00463054 0 -0.00197487)
(-0.00463186 0 -0.00243758)
(-0.00462809 0 -0.00244681)
(-0.00462275 0 -0.00183821)
(-0.00461552 0 -0.000391631)
(-0.00460483 0 0.00213852)
(-0.00458892 0 0.00599303)
(-0.00456603 0 0.0113685)
(-0.0045351 0 0.01837)
(-0.00449697 0 0.0269649)
(-0.00445571 0 0.0369511)
(-0.00441946 0 0.047956)
(-0.00440037 0 0.0594737)
(-0.00441301 0 0.0709347)
(-0.00447175 0 0.0817864)
(-0.00458783 0 0.0915575)
(-0.00476707 0 0.0998817)
(-0.00500873 0 0.106473)
(-0.00530486 0 0.111054)
(-0.00563899 0 0.113256)
(-0.00598328 0 0.112528)
(-0.00629601 0 0.108169)
(-0.00652658 0 0.0997507)
(-0.006637 0 0.0881471)
(-0.0066324 0 0.0766824)
(-0.00656664 0 0.0706372)
(-0.0065057 0 0.0737045)
(-0.00651904 0 0.0840605)
(-0.00667856 0 0.0953058)
(-0.00703971 0 0.101953)
(-0.00752213 0 0.100461)
(-0.00792551 0 0.0919554)
(-0.00816993 0 0.0790583)
(-0.00824955 0 0.0640748)
(-0.00820119 0 0.0490439)
(-0.00807543 0 0.0355477)
(-0.00791445 0 0.0244495)
(-0.00774555 0 0.0159962)
(-0.00758202 0 0.0101094)
(-0.00742574 0 0.00645406)
(-0.00727112 0 0.00433842)
(-0.00711008 0 0.00280229)
(-0.00693451 0 0.000946234)
(-0.00673653 0 -0.00177986)
(-0.00650887 0 -0.00552378)
(-0.00624608 0 -0.0101531)
(-0.00594514 0 -0.0153956)
(-0.00560698 0 -0.0209079)
(-0.00523227 0 -0.0262766)
(-0.00519482 0 -0.00105095)
(-0.00518581 0 -0.00198415)
(-0.00518654 0 -0.0024491)
(-0.00518199 0 -0.00246067)
(-0.00517604 0 -0.00185559)
(-0.00516861 0 -0.000414718)
(-0.00515835 0 0.00210678)
(-0.00514371 0 0.00594961)
(-0.00512309 0 0.0113115)
(-0.00509555 0 0.0183007)
(-0.00506195 0 0.0268893)
(-0.00502623 0 0.0368815)
(-0.00499627 0 0.0479103)
(-0.00498385 0 0.0594729)
(-0.0050033 0 0.0709988)
(-0.00506887 0 0.0819297)
(-0.0051919 0 0.0917857)
(-0.00537841 0 0.100191)
(-0.00562787 0 0.106848)
(-0.00593236 0 0.111473)
(-0.00627506 0 0.113687)
(-0.00662735 0 0.112926)
(-0.00694623 0 0.108483)
(-0.00717992 0 0.0999384)
(-0.00729031 0 0.0882027)
(-0.00728453 0 0.0766479)
(-0.0072203 0 0.0705797)
(-0.00716752 0 0.0736876)
(-0.00719577 0 0.0841409)
(-0.00737307 0 0.0955116)
(-0.00775296 0 0.102253)
(-0.00825311 0 0.100761)
(-0.00867007 0 0.092175)
(-0.0089237 0 0.0791685)
(-0.00900877 0 0.0640865)
(-0.00896341 0 0.0489865)
(-0.00883916 0 0.0354524)
(-0.00867873 0 0.0243396)
(-0.00850947 0 0.0158851)
(-0.00834464 0 0.0100022)
(-0.00818603 0 0.00634946)
(-0.00802772 0 0.00423169)
(-0.00786102 0 0.00268777)
(-0.00767706 0 0.000818344)
(-0.00746729 0 -0.00192634)
(-0.00722394 0 -0.00569322)
(-0.00694117 0 -0.0103484)
(-0.00661562 0 -0.0156178)
(-0.00624806 0 -0.0211564)
(-0.00583869 0 -0.0265496)
(-0.00577809 0 -0.0010578)
(-0.00576819 0 -0.00199555)
(-0.00576839 0 -0.00246291)
(-0.00576309 0 -0.00247643)
(-0.00575657 0 -0.00187392)
(-0.00574902 0 -0.000437311)
(-0.0057393 0 0.00207738)
(-0.00572609 0 0.00591066)
(-0.00570799 0 0.0112613)
(-0.0056842 0 0.0182404)
(-0.00565561 0 0.0268246)
(-0.00562602 0 0.036824)
(-0.00560302 0 0.0478772)
(-0.00559806 0 0.0594847)
(-0.0056251 0 0.0710749)
(-0.00569826 0 0.0820845)
(-0.00582889 0 0.0920251)
(-0.00602322 0 0.100511)
(-0.00628088 0 0.107235)
(-0.00659397 0 0.111904)
(-0.00694534 0 0.114128)
(-0.00730549 0 0.113332)
(-0.00763013 0 0.108801)
(-0.00786627 0 0.100127)
(-0.0079758 0 0.0882573)
(-0.00796805 0 0.0766132)
(-0.00790504 0 0.0705267)
(-0.00786108 0 0.0736816)
(-0.00790599 0 0.0842361)
(-0.00810315 0 0.0957325)
(-0.0085034 0 0.102566)
(-0.00902203 0 0.101072)
(-0.00945275 0 0.0924021)
(-0.00971571 0 0.0792837)
(-0.0098064 0 0.064101)
(-0.00976435 0 0.0489307)
(-0.00964214 0 0.035358)
(-0.00948298 0 0.02423)
(-0.00931424 0 0.0157738)
(-0.00914909 0 0.00989411)
(-0.00898915 0 0.00624317)
(-0.00882813 0 0.00412213)
(-0.00865663 0 0.0025688)
(-0.00846492 0 0.000683879)
(-0.00824374 0 -0.00208192)
(-0.00798478 0 -0.00587459)
(-0.0076818 0 -0.0105586)
(-0.00733108 0 -0.0158583)
(-0.00693326 0 -0.0214267)
(-0.00648819 0 -0.0268478)
(-0.00638857 0 -0.00106575)
(-0.00637782 0 -0.00200886)
(-0.00637759 0 -0.00247878)
(-0.00637163 0 -0.00249383)
(-0.00636465 0 -0.00189294)
(-0.0063571 0 -0.000459124)