/*--------------------------------*- C++ -*----------------------------------*\
  =========                 |
  \\      /  F ield         | OpenFOAM: The Open Source CFD Toolbox
   \\    /   O peration     | Website:  https://openfoam.org
    \\  /    A nd           | Version:  9
     \\/     M anipulation  |
\*---------------------------------------------------------------------------*/
FoamFile
{
    format      ascii;
    class       volScalarField;
    location    "0.18";
    object      alpha.water;
}
// * * * * * * * * * * * * * * * * * * * * * * * * * * * * * * * * * * * * * //

dimensions      [0 0 0 0 0 0 0];

internalField   nonuniform List<scalar> 
5000
(
-1.79423e-45
-2.7861e-45
-6.47123e-45
-1.6167e-44
-4.15168e-44
-1.0907e-43
-2.9299e-43
-8.04644e-43
-2.25885e-42
-6.48044e-42
-1.89944e-41
-5.68569e-41
-1.73729e-40
-5.41549e-40
-1.72097e-39
-5.57066e-39
-1.83482e-38
-6.14195e-38
-2.08648e-37
-7.18075e-37
-2.4986e-36
-8.76933e-36
-3.09583e-35
-1.0958e-34
-3.87448e-34
-1.36255e-33
-4.74267e-33
-1.62511e-32
-5.45158e-32
-1.78127e-31
-5.66511e-31
-1.90426e-30
-6.00803e-30
-1.77583e-29
-4.90066e-29
-1.24437e-28
-2.80924e-28
-5.2126e-28
-6.27611e-28
-1.2357e-28
9.95743e-29
7.14211e-27
1.29951e-25
2.14567e-24
3.29876e-23
4.76524e-22
6.69722e-21
9.69722e-20
1.19533e-18
8.42902e-18
-5.56212e-45
-8.50312e-45
-1.94595e-44
-4.79664e-44
-1.21539e-43
-3.14975e-43
-8.34411e-43
-2.25923e-42
-6.25097e-42
-1.767e-41
-5.10147e-41
-1.50368e-40
-4.52273e-40
-1.38732e-39
-4.33678e-39
-1.38038e-38
-4.46913e-38
-1.46997e-37
-4.90482e-37
-1.6574e-36
-5.66043e-36
-1.94925e-35
-6.74979e-35
-2.34281e-34
-8.12093e-34
-2.79934e-33
-9.54992e-33
-3.2073e-32
-1.05462e-31
-3.37784e-31
-1.05263e-30
-3.45593e-30
-1.06046e-29
-3.02022e-29
-7.89761e-29
-1.84739e-28
-3.66273e-28
-5.44797e-28
-3.93626e-28
-3.43696e-29
4.30487e-28
1.31592e-26
2.10617e-25
3.05548e-24
4.42875e-23
6.14253e-22
8.09384e-21
1.05227e-19
1.29999e-18
2.01082e-17
-1.64642e-44
-2.47718e-44
-5.58386e-44
-1.35767e-43
-3.39349e-43
-8.67302e-43
-2.26522e-42
-6.04503e-42
-1.64803e-41
-4.58888e-41
-1.30465e-40
-3.78575e-40
-1.12065e-39
-3.38213e-39
-1.03991e-38
-3.25466e-38
-1.0358e-37
-3.34793e-37
-1.09744e-36
-3.64211e-36
-1.22133e-35
-4.12869e-35
-1.4032e-34
-4.77967e-34
-1.62583e-33
-5.49984e-33
-1.84158e-32
-6.0726e-32
-1.96151e-31
-6.17489e-31
-1.89191e-30
-6.09483e-30
-1.83045e-29
-5.06889e-29
-1.27269e-28
-2.79499e-28
-4.98755e-28
-6.04288e-28
-1.8075e-28
-1.29901e-29
1.08003e-27
2.72848e-26
3.90599e-25
5.04493e-24
6.57618e-23
8.79499e-22
1.22348e-20
1.77043e-19
2.43303e-18
5.30308e-17
-4.68399e-44
-6.93518e-44
-1.53952e-43
-3.69175e-43
-9.10095e-43
-2.29344e-42
-5.90422e-42
-1.55255e-41
-4.16936e-41
-1.14324e-40
-3.19979e-40
-9.13805e-40
-2.66148e-39
-7.90085e-39
-2.38887e-38
-7.35029e-38
-2.29915e-37
-7.30218e-37
-2.3515e-36
-7.66516e-36
-2.52425e-35
-8.37903e-35
-2.79613e-34
-9.35184e-34
-3.12379e-33
-1.03792e-32
-3.41495e-32
-1.10714e-31
-3.51886e-31
-1.09101e-30
-3.29503e-30
-1.04529e-29
-3.08788e-29
-8.37651e-29
-2.04316e-28
-4.29295e-28
-7.11532e-28
-7.43348e-28
-7.85707e-29
-5.16647e-30
3.07051e-27
6.15098e-26
7.84211e-25
9.86505e-24
1.24658e-22
1.68335e-21
2.56481e-20
4.16205e-19
5.91856e-18
1.07588e-16
-1.28746e-43
-1.87616e-43
-4.10172e-43
-9.70094e-43
-2.35866e-42
-5.86029e-42
-1.4869e-41
-3.85205e-41
-1.0188e-40
-2.75029e-40
-7.57604e-40
-2.12872e-39
-6.09827e-39
-1.78014e-38
-5.29122e-38
-1.6001e-37
-4.91801e-37
-1.53451e-36
-4.8538e-36
-1.55388e-35
-5.02515e-35
-1.63801e-34
-5.36787e-34
-1.76327e-33
-5.78606e-33
-1.88934e-32
-6.11242e-32
-1.95008e-31
-6.10542e-31
-1.86689e-30
-5.56724e-30
-1.74318e-29
-5.08215e-29
-1.35759e-28
-3.24472e-28
-6.62015e-28
-1.04735e-27
-1.00083e-27
-5.30213e-29
2.5558e-29
8.8022e-27
1.39183e-25
1.56887e-24
1.96182e-23
2.58822e-22
3.60709e-21
5.52124e-20
8.53571e-19
1.12056e-17
1.67552e-16
-3.43265e-43
-4.9257e-43
-1.06088e-42
-2.47528e-42
-5.93693e-42
-1.45456e-41
-3.63764e-41
-9.28466e-41
-2.41833e-40
-6.42664e-40
-1.74205e-39
-4.81496e-39
-1.3564e-38
-3.89231e-38
-1.13699e-37
-3.3782e-37
-1.01992e-36
-3.1254e-36
-9.70758e-36
-3.05137e-35
-9.68851e-35
-3.10073e-34
-9.97784e-34
-3.21905e-33
-1.03779e-32
-3.33092e-32
-1.05995e-31
-3.3291e-31
-1.02726e-30
-3.09984e-30
-9.13499e-30
-2.82646e-29
-8.14734e-29
-2.14971e-28
-5.06149e-28
-1.01245e-27
-1.55693e-27
-1.41596e-27
-6.67246e-29
2.07818e-28
2.18814e-26
2.94396e-25
2.99648e-24
3.62592e-23
4.96157e-22
6.9074e-21
9.76914e-20
1.31758e-18
1.55663e-17
2.10622e-16
-8.90224e-43
-1.2589e-42
-2.67269e-42
-6.15493e-42
-1.45693e-41
-3.5212e-41
-8.68253e-41
-2.18395e-40
-5.60309e-40
-1.46597e-39
-3.9105e-39
-1.06318e-38
-2.94486e-38
-8.30584e-38
-2.38388e-37
-6.95711e-37
-2.0626e-36
-6.20527e-36
-1.89192e-35
-5.83689e-35
-1.81896e-34
-5.71384e-34
-1.80493e-33
-5.71768e-33
-1.81065e-32
-5.71154e-32
-1.78753e-31
-5.52688e-31
-1.68082e-30
-5.00548e-30
-1.45778e-29
-4.45806e-29
-1.27123e-28
-3.31732e-28
-7.71492e-28
-1.52081e-27
-2.29602e-27
-2.02945e-27
-9.40178e-29
7.61774e-28
4.5911e-26
5.592e-25
5.26382e-24
5.91174e-23
7.88545e-22
1.03749e-20
1.31235e-19
1.50587e-18
1.62845e-17
2.29349e-16
-2.24945e-42
-3.13822e-42
-6.57287e-42
-1.49504e-41
-3.49487e-41
-8.33757e-41
-2.02821e-40
-5.03018e-40
-1.27176e-39
-3.27717e-39
-8.60535e-39
-2.30186e-38
-6.26992e-38
-1.73821e-37
-4.90158e-37
-1.4049e-36
-4.0893e-36
-1.20751e-35
-3.61268e-35
-1.09355e-34
-3.34336e-34
-1.03039e-33
-3.19376e-33
-9.92972e-33
-3.08741e-32
-9.56733e-32
-2.94362e-31
-8.9558e-31
-2.68306e-30
-7.88136e-30
-2.2672e-29
-6.84886e-29
-1.9312e-28
-4.98413e-28
-1.14582e-27
-2.23071e-27
-3.32129e-27
-2.88019e-27
-1.32791e-28
1.86203e-27
8.28215e-26
9.4528e-25
8.25676e-24
8.17783e-23
9.8973e-22
1.17054e-20
1.31656e-19
1.39551e-18
1.47747e-17
2.55745e-16
-5.54277e-42
-7.63807e-42
-1.57978e-41
-3.55215e-41
-8.20726e-41
-1.93427e-40
-4.64571e-40
-1.13692e-39
-2.83462e-39
-7.19901e-39
-1.86193e-38
-4.90273e-38
-1.31381e-37
-3.5813e-37
-9.9246e-37
-2.79414e-36
-7.98516e-36
-2.31413e-35
-6.79289e-35
-2.0169e-34
-6.04756e-34
-1.8278e-33
-5.55629e-33
-1.69457e-32
-5.17012e-32
-1.57288e-31
-4.7542e-31
-1.42221e-30
-4.19385e-30
-1.21403e-29
-3.44603e-29
-1.02713e-28
-2.86085e-28
-7.29594e-28
-1.65734e-27
-3.18755e-27
-4.68702e-27
-3.9999e-27
-1.8413e-28
3.55086e-27
1.32833e-25
1.45039e-24
1.17384e-23
9.84248e-23
1.00299e-21
1.10521e-20
1.16409e-19
1.09424e-18
1.14729e-17
3.70185e-16
-1.33221e-41
-1.81569e-41
-3.71244e-41
-8.25964e-41
-1.88801e-40
-4.39991e-40
-1.04437e-39
-2.52431e-39
-6.21231e-39
-1.55633e-38
-3.96812e-38
-1.02937e-37
-2.71577e-37
-7.28376e-37
-1.98478e-36
-5.49131e-36
-1.54133e-35
-4.38497e-35
-1.263e-34
-3.67828e-34
-1.08151e-33
-3.20471e-33
-9.55058e-33
-2.85576e-32
-8.5443e-32
-2.55007e-31
-7.56588e-31
-2.22329e-30
-6.44604e-30
-1.83663e-29
-5.13716e-29
-1.50847e-28
-4.14375e-28
-1.04276e-27
-2.33785e-27
-4.43892e-27
-6.44491e-27
-5.41095e-27
-2.49287e-28
5.87026e-27
1.9645e-25
2.09329e-24
1.60078e-23
1.13009e-22
9.65082e-22
9.55117e-21
8.99797e-20
8.21473e-19
1.30722e-17
7.9662e-16
-3.12322e-41
-4.21535e-41
-8.52937e-41
-1.8795e-40
-4.25442e-40
-9.81369e-40
-2.30439e-39
-5.50692e-39
-1.33912e-38
-3.31277e-38
-8.33524e-38
-2.13234e-37
-5.54421e-37
-1.46441e-36
-3.92722e-36
-1.06861e-35
-2.94803e-35
-8.23801e-35
-2.32934e-34
-6.65616e-34
-1.91943e-33
-5.57632e-33
-1.62896e-32
-4.77397e-32
-1.40003e-31
-4.09647e-31
-1.19201e-30
-3.43739e-30
-9.78717e-30
-2.74095e-29
-7.54283e-29
-2.17808e-28
-5.89006e-28
-1.45997e-27
-3.22548e-27
-6.03852e-27
-8.64933e-27
-7.13129e-27
-3.2974e-28
9.03288e-27
2.76619e-25
2.93092e-24
2.21613e-23
1.40385e-22
1.02289e-21
9.84033e-21
9.2877e-20
9.89854e-19
2.85964e-17
1.91251e-15
-7.141e-41
-9.55568e-41
-1.91534e-40
-4.18399e-40
-9.38743e-40
-2.14542e-39
-4.98871e-39
-1.17994e-38
-2.83816e-38
-6.94095e-38
-1.72536e-37
-4.35783e-37
-1.11792e-36
-2.91132e-36
-7.69238e-36
-2.06079e-35
-5.59337e-35
-1.5367e-34
-4.26906e-34
-1.19779e-33
-3.38951e-33
-9.65836e-33
-2.76618e-32
-7.94586e-32
-2.28361e-31
-6.5481e-31
-1.86757e-30
-5.28031e-30
-1.47481e-29
-4.05419e-29
-1.09593e-28
-3.1062e-28
-8.25296e-28
-2.01104e-27
-4.37017e-27
-8.05472e-27
-1.13688e-26
-9.187e-27
-4.27041e-28
1.34401e-26
3.7956e-25
4.0573e-24
3.19349e-23
2.07232e-22
1.41974e-21
1.33014e-20
1.31561e-19
1.89178e-18
9.1471e-17
4.07468e-15
-1.59221e-40
-2.11457e-40
-4.20243e-40
-9.10795e-40
-2.02724e-39
-4.59444e-39
-1.05894e-38
-2.48138e-38
-5.91007e-38
-1.4304e-37
-3.51679e-37
-8.78009e-37
-2.22496e-36
-5.71996e-36
-1.49092e-35
-3.93737e-35
-1.05271e-34
-2.84687e-34
-7.7792e-34
-2.14535e-33
-5.9631e-33
-1.66794e-32
-4.68656e-32
-1.32009e-31
-3.71888e-31
-1.04503e-30
-2.9206e-30
-8.09197e-30
-2.21523e-29
-5.97071e-29
-1.5832e-28
-4.39667e-28
-1.14552e-27
-2.73865e-27
-5.84273e-27
-1.05844e-26
-1.47032e-26
-1.16298e-26
-5.44346e-28
1.95864e-26
5.13853e-25
5.60129e-24
4.72205e-23
3.4488e-22
2.59808e-21
2.44508e-20
2.773e-19
5.62698e-18
2.49409e-16
7.31702e-15
-3.46198e-40
-4.56713e-40
-9.00653e-40
-1.93806e-39
-4.28257e-39
-9.63252e-39
-2.20248e-38
-5.11768e-38
-1.20813e-37
-2.89667e-37
-7.0515e-37
-1.74215e-36
-4.36619e-36
-1.10943e-35
-2.85629e-35
-7.44562e-35
-1.96355e-34
-5.23391e-34
-1.40863e-33
-3.82331e-33
-1.04513e-32
-2.87292e-32
-7.92766e-32
-2.19164e-31
-6.05638e-31
-1.66865e-30
-4.57076e-30
-1.24094e-29
-3.32847e-29
-8.78994e-29
-2.2839e-28
-6.20565e-28
-1.58284e-27
-3.70592e-27
-7.74757e-27
-1.37712e-26
-1.88054e-26
-1.45555e-26
-6.86778e-28
2.79355e-26
6.88261e-25
7.70418e-24
6.99341e-23
5.81993e-22
5.0788e-21
5.28033e-20
7.19814e-19
1.63937e-17
5.29865e-16
1.10652e-14
-7.34129e-40
-9.62734e-40
-1.88515e-39
-4.03009e-39
-8.84674e-39
-1.97617e-38
-4.48589e-38
-1.03441e-37
-2.42235e-37
-5.75888e-37
-1.38942e-36
-3.40042e-36
-8.43758e-36
-2.12148e-35
-5.40144e-35
-1.39157e-34
-3.6246e-34
-9.53588e-34
-2.53128e-33
-6.77135e-33
-1.82295e-32
-4.93144e-32
-1.33819e-31
-3.63542e-31
-9.86542e-31
-2.66754e-30
-7.16698e-30
-1.9076e-29
-5.01414e-29
-1.29722e-28
-3.30123e-28
-8.76833e-28
-2.18675e-27
-5.00648e-27
-1.02391e-26
-1.78283e-26
-2.39029e-26
-1.81192e-26
-8.6232e-28
3.88228e-26
9.10598e-25
1.05072e-23
1.02454e-22
9.5852e-22
9.65351e-21
1.14674e-19
1.74822e-18
3.7379e-17
8.98272e-16
1.42801e-14
-1.51855e-39
-1.98078e-39
-3.85346e-39
-8.18848e-39
-1.78665e-38
-3.96588e-38
-8.94307e-38
-2.0479e-37
-4.76073e-37
-1.12312e-36
-2.68781e-36
-6.52205e-36
-1.60382e-35
-3.99435e-35
-1.00684e-34
-2.56661e-34
-6.61093e-34
-1.71887e-33
-4.50628e-33
-1.18975e-32
-3.159e-32
-8.42227e-32
-2.25078e-31
-6.01736e-31
-1.60577e-30
-4.26658e-30
-1.12565e-29
-2.94011e-29
-7.57883e-29
-1.92172e-28
-4.79044e-28
-1.24348e-27
-3.03022e-27
-6.777e-27
-1.35409e-26
-2.30607e-26
-3.03173e-26
-2.25427e-26
-1.08201e-27
5.23361e-26
1.18644e-24
1.4134e-23
1.47353e-22
1.52325e-21
1.7205e-20
2.25047e-19
3.52988e-18
6.67243e-17
1.24769e-15
1.60997e-14
-3.06482e-39
-3.97835e-39
-7.6931e-39
-1.62565e-38
-3.5272e-38
-7.78398e-38
-1.74463e-37
-3.96964e-37
-9.16647e-37
-2.14732e-36
-5.10099e-36
-1.22818e-35
-2.99555e-35
-7.3965e-35
-1.84756e-34
-4.66494e-34
-1.18952e-33
-3.0601e-33
-7.93315e-33
-2.0699e-32
-5.42793e-32
-1.42827e-31
-3.76452e-31
-9.91892e-31
-2.60677e-30
-6.8161e-30
-1.76834e-29
-4.53831e-29
-1.14858e-28
-2.8571e-28
-6.98112e-28
-1.77165e-27
-4.21844e-27
-9.21188e-27
-1.79659e-26
-2.98868e-26
-3.84748e-26
-2.81052e-26
-1.35923e-27
6.82153e-26
1.51718e-24
1.86488e-23
2.06283e-22
2.30841e-21
2.81924e-20
3.85952e-19
5.90031e-18
9.7702e-17
1.49707e-15
1.63919e-14
-6.03731e-39
-7.80206e-39
-1.50027e-38
-3.15379e-38
-6.8072e-38
-1.49414e-37
-3.32997e-37
-7.53218e-37
-1.72856e-36
-4.02313e-36
-9.49224e-36
-2.26923e-35
-5.49342e-35
-1.34579e-34
-3.33399e-34
-8.34523e-34
-2.10861e-33
-5.37261e-33
-1.37879e-32
-3.55937e-32
-9.22952e-32
-2.40003e-31
-6.2474e-31
-1.62461e-30
-4.21095e-30
-1.08515e-29
-2.77246e-29
-7.00145e-29
-1.74211e-28
-4.25655e-28
-1.02055e-27
-2.53429e-27
-5.89916e-27
-1.25792e-26
-2.3936e-26
-3.88525e-26
-4.89021e-26
-3.51117e-26
-1.70843e-27
8.60801e-26
1.90252e-24
2.40871e-23
2.80138e-22
3.32546e-21
4.25288e-20
5.86382e-19
8.49274e-18
1.24039e-16
1.62773e-15
1.62583e-14
-1.16118e-38
-1.49446e-38
-2.85865e-38
-5.97998e-38
-1.28443e-37
-2.80503e-37
-6.21865e-37
-1.3989e-36
-3.19192e-36
-7.38447e-36
-1.73138e-35
-4.11188e-35
-9.88576e-35
-2.4044e-34
-5.91157e-34
-1.468e-33
-3.67842e-33
-9.29067e-33
-2.36246e-32
-6.04001e-32
-1.55034e-31
-3.98854e-31
-1.0266e-30
-2.63813e-30
-6.75298e-30
-1.71743e-29
-4.32723e-29
-1.07683e-28
-2.63794e-28
-6.33952e-28
-1.49332e-27
-3.63288e-27
-8.27412e-27
-1.72369e-26
-3.19977e-26
-5.06341e-26
-6.22017e-26
-4.38406e-26
-2.14325e-27
1.061e-25
2.34923e-24
3.059e-23
3.71102e-22
4.59331e-21
5.99483e-20
8.09609e-19
1.08797e-17
1.40743e-16
1.65118e-15
1.57644e-14
-2.18146e-38
-2.79691e-38
-5.32359e-38
-1.10851e-37
-2.36999e-37
-5.15119e-37
-1.13636e-36
-2.54311e-36
-5.77154e-36
-1.32776e-35
-3.09489e-35
-7.30522e-35
-1.74511e-34
-4.21611e-34
-1.02936e-33
-2.5375e-33
-6.3097e-33
-1.58089e-32
-3.98619e-32
-1.01016e-31
-2.5689e-31
-6.54487e-31
-1.66739e-30
-4.23885e-30
-1.07279e-29
-2.69584e-29
-6.707e-29
-1.6468e-28
-3.97709e-28
-9.41308e-28
-2.18121e-27
-5.20492e-27
-1.16109e-26
-2.3647e-26
-4.28311e-26
-6.60247e-26
-7.9001e-26
-5.4479e-26
-2.67339e-27
1.29608e-25
2.87753e-24
3.84843e-23
4.83359e-22
6.13596e-21
7.96932e-20
1.02386e-18
1.25685e-17
1.46643e-16
1.63349e-15
1.48827e-14
-4.00471e-38
-5.11626e-38
-9.69276e-38
-2.00946e-37
-4.27752e-37
-9.25545e-37
-2.03224e-36
-4.52596e-36
-1.02197e-35
-2.33869e-35
-5.42135e-35
-1.27234e-34
-3.0213e-34
-7.25388e-34
-1.75951e-33
-4.30798e-33
-1.06361e-32
-2.64511e-32
-6.61787e-32
-1.66345e-31
-4.19429e-31
-1.05906e-30
-2.67285e-30
-6.72813e-30
-1.68517e-29
-4.18855e-29
-1.03007e-28
-2.49827e-28
-5.9548e-28
-1.38968e-27
-3.17137e-27
-7.4318e-27
-1.6254e-26
-3.23862e-26
-5.72474e-26
-8.59009e-26
-9.98786e-26
-6.70532e-26
-3.30147e-27
1.58904e-25
3.51656e-24
4.81437e-23
6.19573e-22
7.90691e-21
9.95768e-20
1.19178e-18
1.33433e-17
1.46355e-16
1.58272e-15
1.39762e-14
-7.1871e-38
-9.15119e-38
-1.72601e-37
-3.56342e-37
-7.55396e-37
-1.62751e-36
-3.55774e-36
-7.88691e-36
-1.77236e-35
-4.03571e-35
-9.30679e-35
-2.17245e-34
-5.12972e-34
-1.2244e-33
-2.95181e-33
-7.18127e-33
-1.76126e-32
-4.34978e-32
-1.08042e-31
-2.69521e-31
-6.74213e-31
-1.68832e-30
-4.22405e-30
-1.05361e-29
-2.61372e-29
-6.43106e-29
-1.56472e-28
-3.75206e-28
-8.83522e-28
-2.03503e-27
-4.57813e-27
-1.05465e-26
-2.26345e-26
-4.41505e-26
-7.61739e-26
-1.1117e-25
-1.25281e-25
-8.13741e-26
-4.01718e-27
1.96419e-25
4.29093e-24
5.96943e-23
7.75597e-22
9.73734e-21
1.16305e-19
1.28809e-18
1.34318e-17
1.44109e-16
1.52769e-15
1.34395e-14
-1.26147e-37
-1.60111e-37
-3.00713e-37
-6.18367e-37
-1.30567e-36
-2.80162e-36
-6.09852e-36
-1.34602e-35
-3.01105e-35
-6.82388e-35
-1.56594e-34
-3.63665e-34
-8.5415e-34
-2.02749e-33
-4.85982e-33
-1.17523e-32
-2.86437e-32
-7.02816e-32
-1.73385e-31
-4.29466e-31
-1.06638e-30
-2.64972e-30
-6.57577e-30
-1.62629e-29
-3.99838e-29
-9.74555e-29
-2.34758e-28
-5.56982e-28
-1.29671e-27
-2.95013e-27
-6.54765e-27
-1.484e-26
-3.12753e-26
-5.9751e-26
-1.00625e-25
-1.42704e-25
-1.5545e-25
-9.70311e-26
-4.77908e-27
2.43793e-25
5.20901e-24
7.28127e-23
9.38859e-22
1.13839e-20
1.27754e-19
1.32254e-18
1.33464e-17
1.4193e-16
1.52164e-15
1.3368e-14
-2.16627e-37
-2.74125e-37
-5.12777e-37
-1.05043e-36
-2.20955e-36
-4.72266e-36
-1.02388e-35
-2.25039e-35
-5.0123e-35
-1.13081e-34
-2.58286e-34
-5.96919e-34
-1.39493e-33
-3.29379e-33
-7.85208e-33
-1.88808e-32
-4.57464e-32
-1.11556e-31
-2.73449e-31
-6.72801e-31
-1.65895e-30
-4.09215e-30
-1.00781e-29
-2.47256e-29
-6.02799e-29
-1.45624e-28
-3.47505e-28
-8.16256e-28
-1.87996e-27
-4.22732e-27
-9.2619e-27
-2.06661e-26
-4.27918e-26
-8.00986e-26
-1.31653e-25
-1.81256e-25
-1.90351e-25
-1.13374e-25
-5.57586e-27
3.01733e-25
6.26674e-24
8.68873e-23
1.09473e-21
1.26873e-20
1.34304e-19
1.32855e-18
1.32726e-17
1.42803e-16
1.54519e-15
1.34943e-14
-3.64107e-37
-4.59429e-37
-8.561e-37
-1.74733e-36
-3.66207e-36
-7.79804e-36
-1.6841e-35
-3.68668e-35
-8.1773e-35
-1.83693e-34
-4.17697e-34
-9.60863e-34
-2.23464e-33
-5.25022e-33
-1.24512e-32
-2.97784e-32
-7.17459e-32
-1.73938e-31
-4.23774e-31
-1.03607e-30
-2.53783e-30
-6.21691e-30
-1.52004e-29
-3.70105e-29
-8.9512e-29
-2.14428e-28
-5.07135e-28
-1.1799e-27
-2.68967e-27
-5.98058e-27
-1.29412e-26
-2.84419e-26
-5.78841e-26
-1.06175e-25
-1.70283e-25
-2.27355e-25
-2.29566e-25
-1.29415e-25
-6.35043e-27
3.71091e-25
7.46677e-24
1.01449e-22
1.23525e-21
1.36558e-20
1.37973e-19
1.33279e-18
1.33864e-17
1.48148e-16
1.6238e-15
1.38717e-14
-5.99221e-37
-7.54023e-37
-1.39986e-36
-2.84713e-36
-5.94617e-36
-1.26164e-35
-2.71458e-35
-5.91971e-35
-1.30781e-34
-2.92573e-34
-6.62437e-34
-1.51711e-33
-3.51209e-33
-8.21225e-33
-1.93794e-32
-4.611e-32
-1.10501e-31
-2.66408e-31
-6.45312e-31
-1.5682e-30
-3.81714e-30
-9.28946e-30
-2.25567e-29
-5.45258e-29
-1.30873e-28
-3.10993e-28
-7.29253e-28
-1.68121e-27
-3.79474e-27
-8.34683e-27
-1.78447e-26
-3.86436e-26
-7.73195e-26
-1.38984e-25
-2.17417e-25
-2.8118e-25
-2.72151e-25
-1.43611e-25
-7.01141e-27
4.54289e-25
8.83961e-24
1.16533e-22
1.36301e-21
1.44341e-20
1.41341e-19
1.35771e-18
1.40645e-17
1.62419e-16
1.75785e-15
1.43059e-14
-9.65914e-37
-1.21225e-36
-2.24261e-36
-4.54571e-36
-9.46158e-36
-2.00058e-35
-4.28914e-35
-9.31885e-35
-2.0509e-34
-4.56997e-34
-1.03048e-33
-2.35e-33
-5.41629e-33
-1.2607e-32
-2.96096e-32
-7.01049e-32
-1.67147e-31
-4.0084e-31
-9.65583e-31
-2.33301e-30
-5.64467e-30
-1.36508e-29
-3.29291e-29
-7.90492e-29
-1.88353e-28
-4.44136e-28
-1.03293e-27
-2.36037e-27
-5.27694e-27
-1.14856e-26
-2.42672e-26
-5.17965e-26
-1.01904e-25
-1.79492e-25
-2.73731e-25
-3.42412e-25
-3.16444e-25
-1.53498e-25
-7.45523e-27
5.55807e-25
1.04679e-23
1.32997e-22
1.49441e-21
1.53187e-20
1.48267e-19
1.45949e-18
1.59589e-17
1.86635e-16
1.90806e-15
1.43542e-14
-1.52555e-36
-1.90976e-36
-3.52093e-36
-7.1135e-36
-1.4758e-35
-3.11005e-35
-6.64484e-35
-1.43856e-34
-3.15435e-34
-7.00203e-34
-1.57268e-33
-3.57185e-33
-8.19767e-33
-1.89976e-32
-4.44165e-32
-1.04668e-31
-2.48334e-31
-5.92513e-31
-1.41976e-30
-3.4115e-30
-8.20661e-30
-1.97271e-29
-4.72867e-29
-1.12763e-28
-2.66803e-28
-6.24452e-28
-1.44079e-27
-3.26435e-27
-7.23037e-27
-1.55767e-26
-3.25329e-26
-6.84562e-26
-1.3244e-25
-2.28549e-25
-3.39556e-25
-4.1009e-25
-3.59768e-25
-1.54924e-25
-7.14536e-27
6.84383e-25
1.25598e-23
1.53689e-22
1.67255e-21
1.69064e-20
1.6638e-19
1.72106e-18
1.93871e-17
2.14965e-16
1.99443e-15
1.42547e-14
-2.36147e-36
-2.94899e-36
-5.41903e-36
-1.09137e-35
-2.25706e-35
-4.74109e-35
-1.0096e-34
-2.17821e-34
-4.75925e-34
-1.05259e-33
-2.35519e-33
-5.32812e-33
-1.21789e-32
-2.81052e-32
-6.54244e-32
-1.53477e-31
-3.62433e-31
-8.60534e-31
-2.05154e-30
-4.90352e-30
-1.17307e-29
-2.80355e-29
-6.67948e-29
-1.58266e-28
-3.71938e-28
-8.64278e-28
-1.97884e-27
-4.44633e-27
-9.75957e-27
-2.08155e-26
-4.29836e-26
-8.9183e-26
-1.69677e-25
-2.86802e-25
-4.14764e-25
-4.82453e-25
-3.97971e-25
-1.40397e-25
-6.49788e-27
8.70275e-25
1.56936e-23
1.86415e-22
1.99854e-21
2.03989e-20
2.0783e-19
2.20858e-18
2.39549e-17
2.4027e-16
1.99671e-15
1.39709e-14
-3.58359e-36
-4.46462e-36
-8.17814e-36
-1.64199e-35
-3.38541e-35
-7.08906e-35
-1.50473e-34
-3.2357e-34
-7.04561e-34
-1.55275e-33
-3.46163e-33
-7.80168e-33
-1.77633e-32
-4.08269e-32
-9.46407e-32
-2.21052e-31
-5.1966e-31
-1.22807e-30
-2.9135e-30
-6.92841e-30
-1.64869e-29
-3.91835e-29
-9.28099e-29
-2.18554e-28
-5.1027e-28
-1.17749e-27
-2.67592e-27
-5.96426e-27
-1.29762e-26
-2.74053e-26
-5.59624e-26
-1.14509e-25
-2.14249e-25
-3.54609e-25
-4.98697e-25
-5.569e-25
-4.25244e-25
-9.79698e-26
-4.37383e-27
1.20768e-24
2.13969e-23
2.50029e-22
2.68397e-21
2.78074e-20
2.85574e-19
2.92428e-18
2.86573e-17
2.52506e-16
1.97291e-15
1.34953e-14
-5.33251e-36
-6.62849e-36
-1.21047e-35
-2.42314e-35
-4.98116e-35
-1.0399e-34
-2.20043e-34
-4.71652e-34
-1.02361e-33
-2.24819e-33
-4.99438e-33
-1.12152e-32
-2.54394e-32
-5.82423e-32
-1.34468e-31
-3.12766e-31
-7.32084e-31
-1.72229e-30
-4.06686e-30
-9.62389e-30
-2.27841e-29
-5.38599e-29
-1.26854e-28
-2.96948e-28
-6.88933e-28
-1.57909e-27
-3.56267e-27
-7.87854e-27
-1.69938e-26
-3.55465e-26
-7.17932e-26
-1.44897e-25
-2.66617e-25
-4.32003e-25
-5.90326e-25
-6.31335e-25
-4.41617e-25
-4.31842e-26
-2.10726e-27
1.96873e-24
3.32777e-23
3.84077e-22
4.09467e-21
4.16166e-20
4.05597e-19
3.75421e-18
3.23395e-17
2.52773e-16
1.9093e-15
1.28718e-14
-7.78228e-36
-9.65273e-36
-1.75756e-35
-3.50817e-35
-7.19091e-35
-1.49682e-34
-3.15774e-34
-6.74746e-34
-1.4597e-33
-3.19543e-33
-7.07456e-33
-1.58307e-32
-3.57786e-32
-8.16066e-32
-1.87681e-31
-4.34782e-31
-1.01344e-30
-2.37388e-30
-5.58017e-30
-1.31429e-29
-3.09621e-29
-7.28142e-29
-1.70565e-28
-3.96977e-28
-9.15392e-28
-2.08449e-27
-4.66999e-27
-1.02487e-26
-2.19209e-26
-4.54233e-26
-9.07554e-26
-1.80702e-25
-3.27018e-25
-5.18663e-25
-6.8836e-25
-7.04193e-25
-4.50056e-25
-2.20186e-26
1.22749e-26
3.82434e-24
5.86677e-23
6.56707e-22
6.7072e-21
6.3517e-20
5.58106e-19
4.52409e-18
3.37504e-17
2.48961e-16
1.80965e-15
1.2136e-14
-1.11408e-35
-1.37902e-35
-2.50379e-35
-4.98377e-35
-1.01871e-34
-2.11446e-34
-4.44773e-34
-9.47542e-34
-2.04351e-33
-4.45923e-33
-9.84016e-33
-2.19447e-32
-4.94235e-32
-1.12322e-31
-2.57354e-31
-5.93879e-31
-1.37872e-30
-3.21602e-30
-7.52688e-30
-1.76475e-29
-4.13768e-29
-9.68224e-29
-2.25614e-28
-5.2219e-28
-1.19703e-27
-2.70864e-27
-6.0271e-27
-1.31292e-26
-2.7853e-26
-5.71875e-26
-1.13057e-25
-2.22127e-25
-3.95417e-25
-6.13912e-25
-7.91243e-25
-7.73487e-25
-4.47436e-25
-1.82936e-26
1.22981e-25
8.05855e-24
1.09705e-22
1.15701e-21
1.0903e-20
9.26765e-20
7.12085e-19
5.02265e-18
3.36932e-17
2.38597e-16
1.68611e-15
1.1307e-14
-1.56471e-35
-1.9331e-35
-3.50024e-35
-6.9484e-35
-1.41646e-34
-2.93196e-34
-6.14992e-34
-1.30637e-33
-2.80896e-33
-6.1107e-33
-1.34417e-32
-2.98786e-32
-6.70649e-32
-1.51883e-31
-3.46742e-31
-7.97163e-31
-1.84348e-30
-4.28279e-30
-9.98156e-30
-2.33003e-29
-5.43805e-29
-1.2664e-28
-2.93602e-28
-6.75912e-28
-1.54059e-27
-3.46482e-27
-7.65901e-27
-1.65645e-26
-3.48625e-26
-7.09421e-26
-1.38807e-25
-2.69186e-25
-4.7148e-25
-7.16739e-25
-8.97242e-25
-8.36803e-25
-4.26858e-25
-1.63433e-26
5.10269e-25
1.66462e-23
2.01686e-22
1.95927e-21
1.66391e-20
1.24654e-19
8.35153e-19
5.1447e-18
3.29777e-17
2.22403e-16
1.54751e-15
1.04173e-14
-2.15639e-35
-2.65933e-35
-4.80263e-35
-9.50899e-35
-1.93339e-34
-3.99131e-34
-8.34907e-34
-1.76853e-33
-3.79172e-33
-8.22408e-33
-1.80351e-32
-3.99622e-32
-8.94058e-32
-2.01797e-31
-4.59087e-31
-1.05164e-30
-2.42286e-30
-5.60692e-30
-1.30147e-29
-3.02524e-29
-7.02942e-29
-1.62941e-28
-3.75919e-28
-8.60949e-28
-1.95156e-27
-4.36329e-27
-9.5838e-27
-2.05836e-26
-4.29891e-26
-8.6724e-26
-1.67989e-25
-3.2167e-25
-5.54557e-25
-8.25865e-25
-1.00461e-24
-8.91702e-25
-3.80261e-25
-1.35849e-26
1.46586e-24
3.19542e-23
3.4779e-22
3.07229e-21
2.32742e-20
1.53006e-19
8.96018e-19
5.10792e-18
3.11821e-17
2.02358e-16
1.40217e-15
9.54421e-15
-2.91656e-35
-3.59089e-35
-6.46874e-35
-1.27755e-34
-2.59099e-34
-5.33508e-34
-1.11305e-33
-2.3513e-33
-5.02706e-33
-1.08721e-32
-2.37714e-32
-5.25118e-32
-1.17112e-31
-2.63471e-31
-5.97378e-31
-1.36365e-30
-3.13033e-30
-7.21694e-30
-1.66864e-29
-3.86291e-29
-8.93758e-29
-2.06246e-28
-4.7359e-28
-1.07925e-27
-2.43344e-27
-5.40983e-27
-1.18097e-26
-2.51944e-26
-5.22295e-26
-1.04487e-25
-2.00439e-25
-3.79128e-25
-6.43696e-25
-9.39822e-25
-1.11176e-24
-9.36065e-25
-3.00011e-25
-1.04271e-26
3.36018e-24
5.61419e-23
5.52784e-22
4.40888e-21
2.9555e-20
1.71021e-19
9.00534e-19
4.938e-18
2.84904e-17
1.80574e-16
1.26275e-15
8.79798e-15
-3.87208e-35
-4.76016e-35
-8.55447e-35
-1.68536e-34
-3.40971e-34
-7.00338e-34
-1.45736e-33
-3.07055e-33
-6.54706e-33
-1.41199e-32
-3.07841e-32
-6.78019e-32
-1.50751e-31
-3.38081e-31
-7.64046e-31
-1.73822e-30
-3.97624e-30
-9.13391e-30
-2.10389e-29
-4.85138e-29
-1.11785e-28
-2.56847e-28
-5.87111e-28
-1.33154e-27
-2.987e-27
-6.60419e-27
-1.43319e-26
-3.03785e-26
-6.2528e-26
-1.24087e-25
-2.35825e-25
-4.40852e-25
-7.37671e-25
-1.05707e-24
-1.21748e-24
-9.6878e-25
-1.80867e-25
-2.45996e-27
6.56526e-24
9.05512e-23
8.06854e-22
5.76056e-21
3.41736e-20
1.75097e-19
8.84769e-19
4.58407e-18
2.53186e-17
1.59571e-16
1.14725e-15
8.26705e-15
-5.04692e-35
-6.19602e-35
-1.11091e-34
-2.18351e-34
-4.40705e-34
-9.03002e-34
-1.87443e-33
-3.93922e-33
-8.37721e-33
-1.80183e-32
-3.9174e-32
-8.60334e-32
-1.90722e-31
-4.26416e-31
-9.60642e-31
-2.17835e-30
-4.96621e-30
-1.1368e-29
-2.60894e-29
-5.99315e-29
-1.37546e-28
-3.14729e-28
-7.16282e-28
-1.617e-27
-3.60959e-27
-7.9388e-27
-1.71305e-26
-3.60863e-26
-7.377e-26
-1.45274e-25
-2.73643e-25
-5.05889e-25
-8.35025e-25
-1.17609e-24
-1.32124e-24
-9.91413e-25
-5.716e-26
5.05123e-26
1.1373e-23
1.34752e-22
1.07968e-21
6.85081e-21
3.59276e-20
1.73555e-19
8.35536e-19
4.09496e-18
2.21914e-17
1.43583e-16
1.07811e-15
7.9708e-15
-6.45956e-35
-7.9206e-35
-1.41697e-34
-2.7787e-34
-5.59548e-34
-1.14382e-33
-2.36862e-33
-4.96548e-33
-1.05328e-32
-2.25954e-32
-4.8993e-32
-1.07299e-31
-2.37183e-31
-5.28729e-31
-1.1875e-30
-2.68427e-30
-6.09959e-30
-1.3915e-29
-3.18225e-29
-7.28335e-29
-1.66519e-28
-3.79501e-28
-8.6007e-28
-1.93299e-27
-4.2946e-27
-9.39774e-27
-2.01685e-26
-4.22349e-26
-8.57781e-26
-1.67691e-25
-3.13217e-25
-5.73061e-25
-9.34134e-25
-1.29551e-24
-1.42382e-24
-1.01536e-24
-3.75588e-26
3.09383e-25
1.78759e-23
1.84733e-22
1.31646e-21
7.39516e-21
3.58184e-20
1.66419e-19
7.52953e-19
3.58196e-18
1.99613e-17
1.3777e-16
1.0647e-15
7.84772e-15
-8.12006e-35
-9.94591e-35
-1.77549e-34
-3.47406e-34
-6.98014e-34
-1.42363e-33
-2.94117e-33
-6.15097e-33
-1.30153e-32
-2.78502e-32
-6.0229e-32
-1.31552e-31
-2.89987e-31
-6.44588e-31
-1.44343e-30
-3.25281e-30
-7.36814e-30
-1.67539e-29
-3.81844e-29
-8.70856e-29
-1.9837e-28
-4.50351e-28
-1.01651e-27
-2.27482e-27
-5.03116e-27
-1.09563e-26
-2.33911e-26
-4.87078e-26
-9.83139e-26
-1.90877e-25
-3.5372e-25
-6.41005e-25
-1.03326e-24
-1.41414e-24
-1.52647e-24
-1.04507e-24
-3.47593e-26
8.23846e-25
2.56036e-23
2.30768e-22
1.45717e-21
7.42691e-21
3.47179e-20
1.51451e-19
6.58232e-19
3.19781e-18
1.93998e-17
1.38533e-16
1.07372e-15
7.80129e-15
-1.00272e-34
-1.22704e-34
-2.18593e-34
-4.26798e-34
-8.55677e-34
-1.74135e-33
-3.58941e-33
-7.48921e-33
-1.58091e-32
-3.37451e-32
-7.27924e-32
-1.58578e-31
-3.48621e-31
-7.72769e-31
-1.72551e-30
-3.87698e-30
-8.75508e-30
-1.98444e-29
-4.50796e-29
-1.0246e-28
-2.32563e-28
-5.26018e-28
-1.18268e-27
-2.63581e-27
-5.80418e-27
-1.25812e-26
-2.67271e-26
-5.53571e-26
-1.11084e-25
-2.1428e-25
-3.942e-25
-7.08216e-25
-1.13058e-24
-1.53086e-24
-1.63054e-24
-1.08497e-24
-3.41079e-26
1.51643e-24
3.29671e-23
2.60678e-22
1.47748e-21
7.25714e-21
3.18872e-20
1.31851e-19
5.77681e-19
3.07739e-18
1.96042e-17
1.43015e-16
1.1047e-15
7.76803e-15
-1.21662e-34
-1.4876e-34
-2.64488e-34
-5.1533e-34
-1.031e-33
-2.09366e-33
-4.30615e-33
-8.96439e-33
-1.88792e-32
-4.0202e-32
-8.65075e-32
-1.87979e-31
-4.12178e-31
-9.11194e-31
-2.02894e-30
-4.54568e-30
-1.02347e-29
-2.31271e-29
-5.23699e-29
-1.18638e-28
-2.6836e-28
-6.04811e-28
-1.35473e-27
-3.00734e-27
-6.5947e-27
-1.42315e-26
-3.00907e-26
-6.2009e-26
-1.23752e-25
-2.37287e-25
-4.33618e-25
-7.73105e-25
-1.22421e-24
-1.64445e-24
-1.73723e-24
-1.13985e-24
-3.0664e-26
2.20069e-24
3.77665e-23
2.67854e-22
1.45382e-21
6.72732e-21
2.76859e-20
1.13548e-19
5.34101e-19
3.10168e-18
2.06688e-17
1.54871e-16
1.1652e-15
7.72716e-15
-1.45068e-34
-1.77264e-34
-3.14567e-34
-6.11665e-34
-1.22125e-33
-2.47484e-33
-5.0793e-33
-1.05508e-32
-2.21701e-32
-4.71003e-32
-1.0111e-31
-2.19169e-31
-4.79352e-31
-1.05693e-30
-2.34711e-30
-5.24389e-30
-1.17729e-29
-2.65239e-29
-5.98774e-29
-1.35213e-28
-3.04842e-28
-6.84661e-28
-1.52805e-27
-3.37924e-27
-7.38067e-27
-1.58606e-26
-3.33857e-26
-6.8472e-26
-1.35953e-25
-2.59244e-25
-4.70899e-25
-8.34062e-25
-1.31229e-24
-1.75343e-24
-1.84709e-24
-1.21374e-24
-2.87335e-26
2.57708e-24
3.9262e-23
2.64972e-22
1.36346e-21
5.8496e-21
2.32666e-20
9.96365e-20
5.29639e-19
3.27266e-18
2.34124e-17
1.76369e-16
1.25414e-15
7.70234e-15
-1.70025e-34
-2.0766e-34
-3.67834e-34
-7.13838e-34
-1.42243e-33
-2.87673e-33
-5.89196e-33
-1.22128e-32
-2.56065e-32
-5.42787e-32
-1.1625e-31
-2.51387e-31
-5.48466e-31
-1.20626e-30
-2.67174e-30
-5.9531e-30
-1.3328e-29
-2.99413e-29
-6.73913e-29
-1.51713e-28
-3.40949e-28
-7.63211e-28
-1.69745e-27
-3.74024e-27
-8.13806e-27
-1.74183e-26
-3.65101e-26
-7.45464e-26
-1.47313e-25
-2.79495e-25
-5.04984e-25
-8.89519e-25
-1.39293e-24
-1.85614e-24
-1.96004e-24
-1.31005e-24
-3.53211e-26
2.64166e-24
3.89385e-23
2.51102e-22
1.19254e-21
4.83373e-21
1.95273e-20
9.26293e-20
5.45508e-19
3.7624e-18
2.84791e-17
2.08229e-16
1.36986e-15
7.73863e-15
-1.9592e-34
-2.39208e-34
-4.22975e-34
-8.19292e-34
-1.62945e-33
-3.28898e-33
-6.72283e-33
-1.39064e-32
-2.90957e-32
-6.15405e-32
-1.31507e-31
-2.83722e-31
-6.17541e-31
-1.35484e-30
-2.99325e-30
-6.65211e-30
-1.48529e-29
-3.32743e-29
-7.46783e-29
-1.67619e-28
-3.75534e-28
-8.37942e-28
-1.85746e-27
-4.07861e-27
-8.84215e-27
-1.88538e-26
-3.93624e-26
-8.00365e-26
-1.57474e-25
-2.97419e-25
-5.3488e-25
-9.37999e-25
-1.46425e-24
-1.95068e-24
-2.07475e-24
-1.42918e-24
-2.99259e-26
2.54828e-24
3.69899e-23
2.21017e-22
9.77597e-22
3.90182e-21
1.68284e-20
9.22718e-20
6.08743e-19
4.72527e-18
3.64004e-17
2.51578e-16
1.51444e-15
7.84555e-15
-2.22003e-34
-2.71013e-34
-4.78415e-34
-9.2498e-34
-1.83625e-33
-3.69941e-33
-7.54716e-33
-1.55805e-32
-3.25316e-32
-6.86625e-32
-1.46407e-31
-3.15163e-31
-6.84391e-31
-1.49794e-30
-3.30129e-30
-7.31818e-30
-1.62976e-29
-3.64128e-29
-8.14956e-29
-1.82396e-28
-4.07431e-28
-9.06324e-28
-2.00264e-27
-4.38286e-27
-9.46912e-27
-2.01186e-26
-4.18474e-26
-8.47621e-26
-1.6611e-25
-3.12464e-25
-5.59721e-25
-9.78206e-25
-1.52447e-24
-2.03495e-24
-2.18897e-24
-1.57313e-24
-3.47599e-26
2.17808e-24
3.23312e-23
1.80019e-22
7.65889e-22
3.15169e-21
1.5365e-20
9.65801e-20
7.50588e-19
6.29694e-18
4.76249e-17
3.06745e-16
1.68697e-15
8.03597e-15
-2.47435e-34
-3.02067e-34
-5.32389e-34
-1.02752e-33
-2.03616e-33
-4.09472e-33
-8.33802e-33
-1.71801e-32
-3.58004e-32
-7.54078e-32
-1.60452e-31
-3.44648e-31
-7.4675e-31
-1.63067e-30
-3.5853e-30