/*--------------------------------*- C++ -*----------------------------------*\
  =========                 |
  \\      /  F ield         | OpenFOAM: The Open Source CFD Toolbox
   \\    /   O peration     | Website:  https://openfoam.org
    \\  /    A nd           | Version:  9
     \\/     M anipulation  |
\*---------------------------------------------------------------------------*/
FoamFile
{
    format      ascii;
    class       surfaceScalarField;
    location    "0.18";
    object      alphaPhi0.water;
}
// * * * * * * * * * * * * * * * * * * * * * * * * * * * * * * * * * * * * * //

dimensions      [0 3 -1 0 0 0 0];

internalField   nonuniform List<scalar> 
9850
(
-5.96682e-51
-5.94152e-51
-9.26328e-51
-9.62989e-51
-2.15098e-50
-2.3419e-50
-5.37202e-50
-6.13129e-50
-1.37902e-49
-1.65029e-49
-3.6213e-49
-4.54401e-49
-9.72295e-49
-1.27923e-48
-2.66873e-48
-3.68143e-48
-7.48704e-48
-1.08285e-47
-2.1464e-47
-3.25462e-47
-6.28591e-47
-9.99249e-47
-1.8798e-46
-3.13269e-46
-5.73757e-46
-1.00235e-45
-1.78628e-45
-3.2713e-45
-5.66835e-45
-1.0882e-44
-1.83173e-44
-3.68645e-44
-6.02147e-44
-1.27052e-43
-2.01105e-43
-4.44938e-43
-6.81337e-43
-1.58105e-42
-2.33744e-42
-5.69099e-42
-8.10284e-42
-2.07093e-41
-2.83122e-41
-7.60102e-41
-9.94227e-41
-2.80623e-40
-3.49701e-40
-1.03884e-39
-1.2271e-39
-3.84199e-39
-4.27588e-39
-1.4137e-38
-1.47186e-38
-5.15221e-38
-4.97734e-38
-1.85102e-37
-1.64521e-37
-6.52551e-37
-5.29779e-37
-2.24796e-36
-1.66509e-36
-8.83116e-36
-5.60485e-36
-3.00517e-35
-1.80593e-35
-9.57974e-35
-5.5719e-35
-2.83909e-34
-1.63422e-34
-7.75582e-34
-4.45172e-34
-1.9191e-33
-1.07759e-33
-4.15792e-33
-2.12526e-33
-7.32523e-33
-2.68008e-33
-8.36402e-33
-5.41851e-34
-1.58407e-33
1.47692e-33
2.76315e-33
6.06017e-32
1.24252e-31
1.01779e-30
2.34207e-30
1.54412e-29
4.21259e-29
2.16683e-28
7.18197e-28
2.89031e-27
1.13696e-26
3.85901e-26
1.68097e-25
5.44459e-25
2.39535e-24
6.58326e-24
2.98334e-23
2.42027e-22
-1.85111e-50
-1.8421e-50
-2.82924e-50
-2.93967e-50
-6.47293e-50
-7.04409e-50
-1.59502e-49
-1.81963e-49
-4.04002e-49
-4.83267e-49
-1.04655e-48
-1.31267e-48
-2.77112e-48
-3.64447e-48
-7.49894e-48
-1.03406e-47
-2.07356e-47
-2.99788e-47
-5.85735e-47
-8.87838e-47
-1.68972e-46
-2.68511e-46
-4.97597e-46
-8.28945e-46
-1.49511e-45
-2.611e-45
-4.5807e-45
-8.38572e-45
-1.42998e-44
-2.74417e-44
-4.54436e-44
-9.14203e-44
-1.46858e-43
-3.09734e-43
-4.81999e-43
-1.06592e-42
-1.60422e-42
-3.72074e-42
-5.40478e-42
-1.31516e-41
-1.8394e-41
-4.69804e-41
-6.30801e-41
-1.69218e-40
-2.17362e-40
-6.12909e-40
-7.50058e-40
-2.2254e-39
-2.5819e-39
-8.07087e-39
-8.82601e-39
-2.91184e-38
-2.98119e-38
-1.04044e-37
-9.89769e-38
-3.6646e-37
-3.21448e-37
-1.26639e-36
-1.01788e-36
-4.27452e-36
-3.14863e-36
-1.64326e-35
-1.03938e-35
-5.44824e-35
-3.2644e-35
-1.68339e-34
-9.69688e-35
-4.78856e-34
-2.68402e-34
-1.23505e-33
-6.69222e-34
-2.8077e-33
-1.41193e-33
-5.33607e-33
-2.2148e-33
-7.5413e-33
-1.66281e-33
-5.18319e-33
-1.47818e-34
-4.37964e-34
3.91449e-33
8.64417e-33
1.06336e-31
2.41648e-31
1.55908e-30
4.05296e-30
2.05679e-29
6.26018e-29
2.70797e-28
9.84042e-28
3.46846e-27
1.47797e-26
4.37891e-26
2.05432e-25
5.67169e-25
2.62852e-24
7.29335e-24
3.28317e-23
6.82105e-22
-5.48412e-50
-5.45345e-50
-8.24942e-50
-8.56591e-50
-1.85899e-49
-2.02181e-49
-4.51854e-49
-5.15184e-49
-1.129e-48
-1.34974e-48
-2.88429e-48
-3.61571e-48
-7.52968e-48
-9.8973e-48
-2.00834e-47
-2.76788e-47
-5.47202e-47
-7.90695e-47
-1.52265e-46
-2.30672e-46
-4.32574e-46
-6.87015e-46
-1.25415e-45
-2.08808e-45
-3.7089e-45
-6.47321e-45
-1.1181e-44
-2.04559e-44
-3.43343e-44
-6.58458e-44
-1.073e-43
-2.15709e-43
-3.40899e-43
-7.18448e-43
-1.09966e-42
-2.42989e-42
-3.59624e-42
-8.33346e-42
-1.19022e-41
-2.8933e-41
-3.97839e-41
-1.01496e-40
-1.33979e-40
-3.58928e-40
-4.53318e-40
-1.2762e-39
-1.53599e-39
-4.54827e-39
-5.19217e-39
-1.61906e-38
-1.74346e-38
-5.7338e-38
-5.78765e-38
-2.01138e-37
-1.89003e-37
-6.95688e-37
-6.04444e-37
-2.36143e-36
-1.88699e-36
-7.82988e-36
-5.76194e-36
-2.9554e-35
-1.87263e-35
-9.59202e-35
-5.76439e-35
-2.89165e-34
-1.6624e-34
-7.97062e-34
-4.39839e-34
-1.96782e-33
-1.02277e-33
-4.19107e-33
-1.92713e-33
-7.16411e-33
-2.44248e-33
-8.25722e-33
-7.52755e-34
-2.3579e-33
-5.45739e-35
-1.65054e-34
9.1118e-33
2.09456e-32
2.09736e-31
5.26881e-31
2.71658e-30
7.99204e-30
3.16739e-29
1.12556e-28
3.74566e-28
1.58754e-27
4.67433e-27
2.30682e-26
6.36954e-26
3.52899e-25
9.46002e-25
5.54611e-24
1.38984e-23
7.89779e-23
1.72232e-21
-1.56169e-49
-1.55168e-49
-2.31173e-49
-2.39866e-49
-5.13032e-49
-5.57572e-49
-1.22986e-48
-1.40127e-48
-3.03081e-48
-3.62091e-48
-7.63466e-48
-9.56417e-48
-1.96459e-47
-2.58057e-47
-5.16347e-47
-7.11133e-47
-1.38588e-46
-2.00116e-46
-3.79772e-46
-5.74916e-46
-1.06219e-45
-1.68573e-45
-3.03102e-45
-5.04261e-45
-8.82e-45
-1.53814e-44
-2.61561e-44
-4.78131e-44
-7.89916e-44
-1.51354e-43
-2.4272e-43
-4.87484e-43
-7.58032e-43
-1.59591e-42
-2.40316e-42
-5.30421e-42
-7.72239e-42
-1.78727e-41
-2.511e-41
-6.09549e-41
-8.24504e-41
-2.10014e-40
-2.72755e-40
-7.29365e-40
-9.06571e-40
-2.54668e-39
-3.01793e-39
-8.91325e-39
-1.00257e-38
-3.1163e-38
-3.30999e-38
-1.0842e-37
-1.08113e-37
-3.73771e-37
-3.47746e-37
-1.27112e-36
-1.09685e-36
-4.2447e-36
-3.382e-36
-1.3853e-35
-1.02149e-35
-5.14718e-35
-3.27763e-35
-1.64136e-34
-9.93045e-35
-4.85326e-34
-2.79972e-34
-1.30658e-33
-7.16268e-34
-3.12574e-33
-1.58305e-33
-6.35916e-33
-2.74946e-33
-1.00948e-32
-2.98044e-33
-1.00493e-32
-3.21813e-34
-1.01818e-33
-2.11472e-35
-6.566e-35
2.48037e-32
6.14866e-32
4.46705e-31
1.22468e-30
5.11715e-30
1.65923e-29
5.79544e-29
2.33135e-28
6.66058e-28
3.2914e-27
8.49453e-27
4.88851e-26
1.28927e-25
8.04703e-25
2.1753e-24
1.35405e-23
3.32252e-23
1.89378e-22
3.09959e-21
-4.2969e-49
-4.26557e-49
-6.26029e-49
-6.49043e-49
-1.36828e-48
-1.4859e-48
-3.23515e-48
-3.68311e-48
-7.86326e-48
-9.3868e-48
-1.95297e-47
-2.44459e-47
-4.95313e-47
-6.50086e-47
-1.2826e-46
-1.76499e-46
-3.39049e-46
-4.89162e-46
-9.14755e-46
-1.3836e-45
-2.5182e-45
-3.99286e-45
-7.07053e-45
-1.1752e-44
-2.02388e-44
-3.52601e-44
-5.90238e-44
-1.07782e-43
-1.75254e-43
-3.35427e-43
-5.29332e-43
-1.06186e-42
-1.62465e-42
-3.41604e-42
-5.06093e-42
-1.11548e-41
-1.59778e-41
-3.69219e-41
-5.10378e-41
-1.23681e-40
-1.64628e-40
-4.18511e-40
-5.35016e-40
-1.42744e-39
-1.74718e-39
-4.8951e-39
-5.71605e-39
-1.68289e-38
-1.86693e-38
-5.78094e-38
-6.06359e-38
-1.97682e-37
-1.95008e-37
-6.70176e-37
-6.18318e-37
-2.24274e-36
-1.9253e-36
-7.37537e-36
-5.86922e-36
-2.37225e-35
-1.75541e-35
-8.69145e-35
-5.56985e-35
-2.72987e-34
-1.66547e-34
-7.94607e-34
-4.61292e-34
-2.10119e-33
-1.15106e-33
-4.91541e-33
-2.45484e-33
-9.70009e-33
-4.04023e-33
-1.47026e-32
-3.97472e-33
-1.34162e-32
-2.13306e-34
-6.84354e-34
4.35435e-34
7.28238e-34
6.77591e-32
1.74302e-31
9.51761e-31
2.78667e-30
9.6104e-30
3.35395e-29
1.08161e-28
4.66115e-28
1.3011e-27
6.91868e-27
1.72301e-26
1.04953e-25
2.64474e-25
1.65754e-24
4.27046e-24
2.49129e-23
6.05684e-23
3.10112e-22
4.28952e-21
-1.14687e-48
-1.13743e-48
-1.64536e-48
-1.70435e-48
-3.54286e-48
-3.84406e-48
-8.26397e-48
-9.40007e-48
-1.9815e-47
-2.36334e-47
-4.85305e-47
-6.06927e-47
-1.21322e-46
-1.59086e-46
-3.0953e-46
-4.25548e-46
-8.05842e-46
-1.16151e-45
-2.1404e-45
-3.23419e-45
-5.79854e-45
-9.18462e-45
-1.60165e-44
-2.65922e-44
-4.50864e-44
-7.84599e-44
-1.29272e-43
-2.35776e-43
-3.77265e-43
-7.21131e-43
-1.11971e-42
-2.24305e-42
-3.37636e-42
-7.08858e-42
-1.03315e-41
-2.27342e-41
-3.20366e-41
-7.38969e-41
-1.00506e-40
-2.43067e-40
-3.18409e-40
-8.07602e-40
-1.01642e-39
-2.70475e-39
-3.26101e-39
-9.10875e-39
-1.04849e-38
-3.0759e-38
-3.36715e-38
-1.03818e-37
-1.07605e-37
-3.48983e-37
-3.40824e-37
-1.16374e-36
-1.06561e-36
-3.83358e-36
-3.27655e-36
-1.24209e-35
-9.8783e-36
-3.93985e-35
-2.92631e-35
-1.42461e-34
-9.18684e-35
-4.41307e-34
-2.71475e-34
-1.2672e-33
-7.40833e-34
-3.30265e-33
-1.81307e-33
-7.59884e-33
-3.7689e-33
-1.46925e-32
-5.98901e-33
-2.16629e-32
-5.56657e-33
-1.88613e-32
-2.63636e-34
-8.59904e-34
1.95709e-33
4.67448e-33
1.60393e-31
4.16955e-31
1.90272e-30
5.81453e-30
1.73121e-29
6.37278e-29
1.88684e-28
8.41073e-28
2.35774e-27
1.26369e-26
3.12695e-26
1.85526e-25
4.4592e-25
2.60233e-24
6.3354e-24
3.27542e-23
8.18669e-23
3.62518e-22
4.91512e-21
-2.97756e-48
-2.95014e-48
-4.20988e-48
-4.35675e-48
-8.9357e-48
-9.68639e-48
-2.05728e-47
-2.33791e-47
-4.8684e-47
-5.801e-47
-1.17627e-46
-1.46961e-46
-2.89944e-46
-3.79815e-46
-7.29032e-46
-1.00125e-45
-1.86961e-45
-2.6919e-45
-4.88934e-45
-7.37971e-45
-1.30357e-44
-2.0624e-44
-3.54208e-44
-5.87377e-44
-9.80482e-44
-1.70406e-43
-2.76341e-43
-5.03324e-43
-7.92482e-43
-1.51261e-42
-2.31062e-42
-4.62153e-42
-6.84305e-42
-1.43426e-41
-2.05618e-41
-4.51625e-41
-6.2602e-41
-1.44108e-40
-1.92821e-40
-4.65273e-40
-5.99759e-40
-1.51735e-39
-1.87994e-39
-4.98821e-39
-5.92391e-39
-1.64917e-38
-1.87138e-38
-5.46861e-38
-5.90786e-38
-1.81317e-37
-1.85732e-37
-5.99029e-37
-5.79281e-37
-1.96456e-36
-1.78559e-36
-6.3699e-36
-5.42035e-36
-2.03332e-35
-1.61561e-35
-6.36047e-35
-4.7383e-35
-2.27012e-34
-1.47137e-34
-6.93821e-34
-4.29797e-34
-1.96698e-33
-1.1571e-33
-5.06096e-33
-2.78574e-33
-1.14877e-32
-5.67689e-33
-2.18844e-32
-8.80294e-33
-3.17141e-32
-7.89966e-33
-2.69147e-32
-3.65214e-34
-1.21239e-33
6.31428e-33
1.51872e-32
3.22204e-31
8.3883e-31
3.44387e-30
1.07865e-29
2.89005e-29
1.09657e-28
2.9256e-28
1.3061e-27
3.57117e-27
1.82655e-26
4.48718e-26
2.42361e-25
5.75273e-25
2.93097e-24
7.1324e-24
3.36314e-23
8.63929e-23
3.61121e-22
5.2393e-21
-7.53232e-48
-7.45526e-48
-1.05066e-47
-1.08624e-47
-2.20011e-47
-2.38259e-47
-5.00315e-47
-5.67993e-47
-1.16927e-46
-1.39183e-46
-2.78872e-46
-3.48054e-46
-6.78183e-46
-8.87438e-46
-1.68142e-45
-2.30669e-45
-4.2495e-45
-6.11146e-45
-1.09461e-44
-1.65017e-44
-2.873e-44
-4.53975e-44
-7.68129e-44
-1.2721e-43
-2.09112e-43
-3.62927e-43
-5.79363e-43
-1.05369e-42
-1.63262e-42
-3.11126e-42
-4.67576e-42
-9.33629e-42
-1.35977e-41
-2.84477e-41
-4.01107e-41
-8.79246e-41
-1.19864e-40
-2.75319e-40
-3.62339e-40
-8.72188e-40
-1.10609e-39
-2.7907e-39
-3.40291e-39
-9.00131e-39
-1.05269e-38
-2.92022e-38
-3.26582e-38
-9.50427e-38
-1.01304e-37
-3.09409e-37
-3.13153e-37
-1.0042e-36
-9.6124e-37
-3.2374e-36
-2.91936e-36
-1.0327e-35
-8.74293e-36
-3.24606e-35
-2.57425e-35
-1.00088e-34
-7.4674e-35
-3.52437e-34
-2.29153e-34
-1.06233e-33
-6.61305e-34
-2.97299e-33
-1.75665e-33
-7.55394e-33
-4.16542e-33
-1.69346e-32
-8.34464e-33
-3.18645e-32
-1.26938e-32
-4.56063e-32
-1.11117e-32
-3.80935e-32
-5.08176e-34
-1.71651e-33
1.45821e-32
3.39804e-32
5.61168e-31
1.46095e-30
5.6018e-30
1.78213e-29
4.34821e-29
1.6778e-28
3.88968e-28
1.71275e-27
4.32703e-27
2.03691e-26
4.97516e-26
2.50674e-25
5.81806e-25
2.9238e-24
6.65481e-24
2.9201e-23
7.95338e-23
3.00857e-22
6.00859e-21
-1.85815e-47
-1.83719e-47
-2.56019e-47
-2.64419e-47
-5.29428e-47
-5.72748e-47
-1.19019e-46
-1.34976e-46
-2.74934e-46
-3.26913e-46
-6.47806e-46
-8.0762e-46
-1.55549e-45
-2.03313e-45
-3.80559e-45
-5.21466e-45
-9.48531e-45
-1.36248e-44
-2.40814e-44
-3.62577e-44
-6.22602e-44
-9.82494e-44
-1.63873e-43
-2.71011e-43
-4.38937e-43
-7.60682e-43
-1.19589e-42
-2.17156e-42
-3.3122e-42
-6.30149e-42
-9.31909e-42
-1.85745e-41
-2.6613e-41
-5.55692e-41
-7.7062e-41
-1.68568e-40
-2.25995e-40
-5.17892e-40
-6.70293e-40
-1.60934e-39
-2.00742e-39
-5.0503e-39
-6.05903e-39
-1.59755e-38
-1.83915e-38
-5.08313e-38
-5.60015e-38
-1.62286e-37
-1.70577e-37
-5.18414e-37
-5.18099e-37
-1.65175e-36
-1.56391e-36
-5.23076e-36
-4.67558e-36
-1.64025e-35
-1.37998e-35
-5.07264e-35
-4.00899e-35
-1.54031e-34
-1.14869e-34
-5.34612e-34
-3.4787e-34
-1.5877e-33
-9.90711e-34
-4.38235e-33
-2.59497e-33
-1.09893e-32
-6.06087e-33
-2.43283e-32
-1.1948e-32
-4.52413e-32
-1.78697e-32
-6.40586e-32
-1.53199e-32
-5.28328e-32
-6.9616e-34
-2.38921e-33
2.69096e-32
6.12054e-32
8.77294e-31
2.28924e-30
8.36335e-30
2.69974e-29
5.99969e-29
2.36294e-28
4.56717e-28
2.02097e-27
4.38185e-27
2.05962e-26
4.73465e-26
2.28649e-25
5.16292e-25
2.34859e-24
5.29282e-24
2.10653e-23
6.43706e-23
2.51478e-22
9.98513e-21
-4.47138e-47
-4.41606e-47
-6.09329e-47
-6.28649e-47
-1.24566e-46
-1.34614e-46
-2.77094e-46
-3.13901e-46
-6.33269e-46
-7.52153e-46
-1.4755e-45
-1.8374e-45
-3.50149e-45
-4.57128e-45
-8.46136e-45
-1.15802e-44
-2.08179e-44
-2.98653e-44
-5.21391e-44
-7.83989e-44
-1.32896e-43
-2.09428e-43
-3.4463e-43
-5.69123e-43
-9.08906e-43
-1.57274e-42
-2.43672e-42
-4.41758e-42
-6.63697e-42
-1.26051e-41
-1.83534e-41
-3.65134e-41
-5.14866e-41
-1.07291e-40
-1.46383e-40
-3.19505e-40
-4.21328e-40
-9.63216e-40
-1.22607e-39
-2.93597e-39
-3.60178e-39
-9.0348e-39
-1.06625e-38
-2.80203e-38
-3.17435e-38
-8.74054e-38
-9.48175e-38
-2.73591e-37
-2.83401e-37
-8.57035e-37
-8.45098e-37
-2.67866e-36
-2.50623e-36
-8.32541e-36
-7.36766e-36
-2.56384e-35
-2.14031e-35
-7.79258e-35
-6.12609e-35
-2.32746e-34
-1.73103e-34
-7.95218e-34
-5.16479e-34
-2.32356e-33
-1.44941e-33
-6.31691e-33
-3.73924e-33
-1.56145e-32
-8.59684e-33
-3.41041e-32
-1.66765e-32
-6.26485e-32
-2.45389e-32
-8.7758e-32
-2.06182e-32
-7.14546e-32
-9.34282e-34
-3.25028e-33
4.36197e-32
9.83301e-32
1.27684e-30
3.34996e-30
1.1893e-29
3.89475e-29
8.05112e-29
3.26412e-28
5.1922e-28
2.37077e-27
4.24187e-27
2.0017e-26
4.20009e-26
2.08063e-25
4.13665e-25
1.99961e-24
4.21978e-24
1.8326e-23
7.68906e-23
3.18076e-22
2.38153e-20
-1.04953e-46
-1.03537e-46
-1.41636e-46
-1.45966e-46
-2.86547e-46
-3.09317e-46
-6.31329e-46
-7.14385e-46
-1.42884e-45
-1.69513e-45
-3.29534e-45
-4.09877e-45
-7.73646e-45
-1.0088e-44
-1.84846e-44
-2.52664e-44
-4.49393e-44
-6.43868e-44
-1.11148e-43
-1.66904e-43
-2.7959e-43
-4.39982e-43
-7.15069e-43
-1.17913e-42
-1.8587e-42
-3.21124e-42
-4.90797e-42
-8.88309e-42
-1.31578e-41
-2.49456e-41
-3.57898e-41
-7.10684e-41
-9.86954e-41
-2.05249e-40
-2.75674e-40
-6.00373e-40
-7.79099e-40
-1.77683e-39
-2.22511e-39
-5.31408e-39
-6.4128e-39
-1.60384e-38
-1.86192e-38
-4.87677e-38
-5.43577e-38
-1.49112e-37
-1.59217e-37
-4.5745e-37
-4.66725e-37
-1.4045e-36
-1.36541e-36
-4.30326e-36
-3.97451e-36
-1.31154e-35
-1.14758e-35
-3.96246e-35
-3.27684e-35
-1.18223e-34
-9.22641e-35
-3.4685e-34
-2.56662e-34
-1.16485e-33
-7.53078e-34
-3.34305e-33
-2.07894e-33
-8.93662e-33
-5.27489e-33
-2.17401e-32
-1.1925e-32
-4.67813e-32
-2.27505e-32
-8.47992e-32
-3.29339e-32
-1.17428e-31
-2.70989e-32
-9.42274e-32
-1.22939e-33
-4.32288e-33
6.63587e-32
1.49907e-31
1.7845e-30
4.7161e-30
1.66197e-29
5.49966e-29
1.1157e-28
4.64841e-28
6.49445e-28
3.14627e-27
4.59278e-27
2.25644e-26
4.47345e-26
2.20523e-25
4.45774e-25
2.12166e-24
5.34714e-24
2.51012e-23
1.7737e-22
9.03408e-22
5.60516e-20
-2.40261e-46
-2.36747e-46
-3.21467e-46
-3.30924e-46
-6.44265e-46
-6.94681e-46
-1.40718e-45
-1.5905e-45
-3.15678e-45
-3.74077e-45
-7.21348e-45
-8.9616e-45
-1.67708e-44
-2.18418e-44
-3.966e-44
-5.41435e-44
-9.53798e-44
-1.36479e-43
-2.33218e-43
-3.49739e-43
-5.7962e-43
-9.10852e-43
-1.4637e-42
-2.41004e-42
-3.7541e-42
-6.4758e-42
-9.77451e-42
-1.7662e-41
-2.58209e-41
-4.88674e-41
-6.9158e-41
-1.3707e-40
-1.87661e-40
-3.89472e-40
-5.15435e-40
-1.12006e-39
-1.43151e-39
-3.25686e-39
-4.01526e-39
-9.564e-39
-1.1359e-38
-2.83255e-38
-3.23586e-38
-8.4476e-38
-9.26559e-38
-2.53232e-37
-2.66128e-37
-7.61413e-37
-7.64919e-37
-2.29082e-36
-2.19434e-36
-6.87766e-36
-6.265e-36
-2.05419e-35
-1.77495e-35
-6.08327e-35
-4.97556e-35
-1.77967e-34
-1.37609e-34
-5.122e-34
-3.76229e-34
-1.68822e-33
-1.08355e-33
-4.75039e-33
-2.93716e-33
-1.24634e-32
-7.31771e-33
-2.97852e-32
-1.62458e-32
-6.30399e-32
-3.04552e-32
-1.12601e-31
-4.3357e-32
-1.53977e-31
-3.48998e-32
-1.21526e-31
-1.58941e-33
-5.63133e-33
9.8166e-32
2.23017e-31
2.44714e-30
6.5115e-30
2.32177e-29
7.7116e-29
1.64151e-28
6.89503e-28
9.88077e-28
5.04131e-27
6.65154e-27
3.6769e-26
6.35733e-26
3.52562e-25
6.67868e-25
3.60756e-24
1.0824e-23
5.81561e-23
5.8423e-22
2.96851e-21
1.11417e-19
-5.36356e-46
-5.27905e-46
-7.12238e-46
-7.32377e-46
-1.41531e-45
-1.52436e-45
-3.06702e-45
-3.46267e-45
-6.82566e-45
-8.07915e-45
-1.54673e-44
-1.91934e-44
-3.5645e-44
-4.63678e-44
-8.35143e-44
-1.13873e-43
-1.98886e-43
-2.84226e-43
-4.81294e-43
-7.20809e-43
-1.18316e-42
-1.85674e-42
-2.95353e-42
-4.85609e-42
-7.4836e-42
-1.28895e-41
-1.92366e-41
-3.47035e-41
-5.01348e-41
-9.47194e-41
-1.32386e-40
-2.61902e-40
-3.53913e-40
-7.3305e-40
-9.56997e-40
-2.07511e-39
-2.6148e-39
-5.93498e-39
-7.21059e-39
-1.71305e-38
-2.00414e-38
-4.98333e-38
-5.60598e-38
-1.45883e-37
-1.57538e-37
-4.29013e-37
-4.43885e-37
-1.26484e-36
-1.25121e-36
-3.7299e-36
-3.51951e-36
-1.09727e-35
-9.85248e-36
-3.2108e-35
-2.73717e-35
-9.31512e-35
-7.52556e-35
-2.66991e-34
-2.04195e-34
-7.52971e-34
-5.47882e-34
-2.43238e-33
-1.54616e-33
-6.69928e-33
-4.10826e-33
-1.72195e-32
-1.00337e-32
-4.03498e-32
-2.18437e-32
-8.38442e-32
-4.01952e-32
-1.47339e-31
-5.62472e-32
-1.98728e-31
-4.42683e-32
-1.54062e-31
-2.02887e-33
-7.22138e-33
1.42838e-31
3.25503e-31
3.32824e-30
8.88943e-30
3.25738e-29
1.07854e-28
2.50696e-28
1.03842e-27
1.72127e-27
8.71039e-27
1.2803e-26
7.31557e-26
1.23838e-25
7.22657e-25
1.50792e-24
8.69367e-24
3.37717e-23
1.86035e-22
1.6023e-21
7.45592e-21
1.84332e-19
-1.16759e-45
-1.14791e-45
-1.54014e-45
-1.58199e-45
-3.03683e-45
-3.26734e-45
-6.53399e-45
-7.36894e-45
-1.44366e-44
-1.70691e-44
-3.24675e-44
-4.02439e-44
-7.42287e-44
-9.64481e-44
-1.72459e-43
-2.34875e-43
-4.07082e-43
-5.81049e-43
-9.75952e-43
-1.45978e-42
-2.37562e-42
-3.72313e-42
-5.8688e-42
-9.63588e-42
-1.47077e-41
-2.52948e-41
-3.73699e-41
-6.73114e-41
-9.62088e-41
-1.81465e-40
-2.50791e-40
-4.9526e-40
-6.61396e-40
-1.3673e-39
-1.76305e-39
-3.81496e-39
-4.74538e-39
-1.07465e-38
-1.28816e-38
-3.05272e-38
-3.522e-38
-8.73336e-38
-9.68449e-38
-2.51245e-37
-2.67361e-37
-7.25582e-37
-7.39637e-37
-2.09941e-36
-2.04597e-36
-6.07226e-36
-5.64542e-36
-1.75123e-35
-1.5498e-35
-5.02152e-35
-4.22148e-35
-1.42713e-34
-1.13786e-34
-4.00608e-34
-3.02666e-34
-1.10633e-33
-7.96137e-34
-3.49922e-33
-2.19855e-33
-9.42032e-33
-5.71763e-33
-2.36834e-32
-1.36683e-32
-5.43197e-32
-2.91373e-32
-1.10617e-31
-5.25681e-32
-1.90925e-31
-7.22631e-32
-2.53694e-31
-5.56279e-32
-1.93124e-31
-2.57004e-33
-9.16557e-33
2.041e-31
4.64165e-31
4.49429e-30
1.19978e-29
4.56733e-29
1.49884e-28
3.8412e-28
1.55171e-27
3.04239e-27
1.4758e-26
2.62981e-26
1.43972e-25
2.81683e-25
1.6023e-24
4.10034e-24
2.29114e-23
1.00713e-22
5.12284e-22
3.40894e-21
1.43664e-20
2.56188e-19
-2.47866e-45
-2.43438e-45
-3.25014e-45
-3.33514e-45
-6.36342e-45
-6.83963e-45
-1.36021e-44
-1.53249e-44
-2.98557e-44
-3.52638e-44
-6.66842e-44
-8.25698e-44
-1.51358e-43
-1.96454e-43
-3.4899e-43
-4.74772e-43
-8.17195e-43
-1.16509e-42
-1.94268e-42
-2.90232e-42
-4.68684e-42
-7.33618e-42
-1.14702e-41
-1.88081e-41
-2.84616e-41
-4.88815e-41
-7.15639e-41
-1.28712e-40
-1.82218e-40
-3.43151e-40
-4.69492e-40
-9.25588e-40
-1.22304e-39
-2.5238e-39
-3.21825e-39
-6.95006e-39
-8.54483e-39
-1.93092e-38
-2.28652e-38
-5.40586e-38
-6.15822e-38
-1.52305e-37
-1.66684e-37
-4.31175e-37
-4.52651e-37
-1.22445e-36
-1.23095e-36
-3.48119e-36
-3.34505e-36
-9.88667e-36
-9.06212e-36
-2.79783e-35
-2.44128e-35
-7.86725e-35
-6.52259e-35
-2.19134e-34
-1.7238e-34
-6.02558e-34
-4.4942e-34
-1.62927e-33
-1.15836e-33
-5.04323e-33
-3.12767e-33
-1.32596e-32
-7.95275e-33
-3.2567e-32
-1.85856e-32
-7.30045e-32
-3.87453e-32
-1.45456e-31
-6.84531e-32
-2.46183e-31
-9.23702e-32
-3.21869e-31
-6.9637e-32
-2.4079e-31
-3.24612e-33
-1.15763e-32
2.84893e-31
6.43378e-31
6.00674e-30
1.59659e-29
6.35448e-29
2.0584e-28
5.81118e-28
2.28138e-27
5.23042e-27
2.41652e-26
5.2406e-26
2.69314e-25
6.40323e-25
3.40893e-24
1.02877e-23
5.28442e-23
2.32386e-22
1.0611e-21
5.78606e-21
2.20847e-20
3.04959e-19
-5.13223e-45
-5.03586e-45
-6.69369e-45
-6.86265e-45
-1.30205e-44
-1.39825e-44
-2.7665e-44
-3.11408e-44
-6.03561e-44
-7.12236e-44
-1.33961e-43
-1.65718e-43
-3.02059e-43
-3.91676e-43
-6.9165e-43
-9.39986e-43
-1.60779e-42
-2.28987e-42
-3.79291e-42
-5.66033e-42
-9.07702e-42
-1.41917e-41
-2.20263e-41
-3.60735e-41
-5.41673e-41
-9.29109e-41
-1.34918e-40
-2.42329e-40
-3.40129e-40
-6.39596e-40
-8.67205e-40
-1.70699e-39
-2.23423e-39
-4.60264e-39
-5.81081e-39
-1.25259e-38
-1.52397e-38
-3.43691e-38
-4.02551e-38
-9.49635e-38
-1.06949e-37
-2.63865e-37
-2.8536e-37
-7.36171e-37
-7.63362e-37
-2.05871e-36
-2.04348e-36
-5.7594e-36
-5.4625e-36
-1.60829e-35
-1.45474e-35
-4.47163e-35
-3.84994e-35
-1.23444e-34
-1.00986e-34
-3.37314e-34
-2.61858e-34
-9.09221e-34
-6.69427e-34
-2.40818e-33
-1.6909e-33
-7.2961e-33
-4.46323e-33
-1.873e-32
-1.10905e-32
-4.49146e-32
-2.53184e-32
-9.83074e-32
-5.15635e-32
-1.91385e-31
-8.91061e-32
-3.17143e-31
-1.17918e-31
-4.07471e-31
-8.72175e-32
-3.00036e-31
-4.10194e-33
-1.46099e-32
3.8637e-31
8.63233e-31
7.91078e-30
2.08803e-29
8.70988e-29
2.77879e-28
8.59817e-28
3.27752e-27
8.62183e-27
3.79568e-26
9.71397e-26
4.66839e-25
1.30045e-24
6.37447e-24
2.12352e-23
9.8828e-23
4.18604e-22
1.7224e-21
8.06447e-21
2.81978e-20
3.20444e-19
-1.03672e-44
-1.01644e-44
-1.34558e-44
-1.3785e-44
-2.6017e-44
-2.79179e-44
-5.49713e-44
-6.18297e-44
-1.1926e-43
-1.40621e-43
-2.63166e-43
-3.25283e-43
-5.89796e-43
-7.64129e-43
-1.34192e-42
-1.82212e-42
-3.09862e-42
-4.40907e-42
-7.2588e-42
-1.08221e-41
-1.72439e-41
-2.69329e-41
-4.15213e-41
-6.79278e-41
-1.01282e-40
-1.73525e-40
-2.50119e-40
-4.48692e-40
-6.24895e-40
-1.17354e-39
-1.57821e-39
-3.10213e-39
-4.02562e-39
-8.28032e-39
-1.03603e-38
-2.22957e-38
-2.68719e-38
-6.04922e-38
-7.01571e-38
-1.65173e-37
-1.84115e-37
-4.53243e-37
-4.84936e-37
-1.24795e-36
-1.27971e-36
-3.44171e-36
-3.37708e-36
-9.48846e-36
-8.89304e-36
-2.60908e-35
-2.33142e-35
-7.13758e-35
-6.06954e-35
-1.93714e-34
-1.56498e-34
-5.19945e-34
-3.98589e-34
-1.37541e-33
-1.00007e-33
-3.57175e-33
-2.47723e-33
-1.0599e-32
-6.39509e-33
-2.65771e-32
-1.5531e-32
-6.22228e-32
-3.4626e-32
-1.32917e-31
-6.88478e-32
-2.5261e-31
-1.16247e-31
-4.09302e-31
-1.50683e-31
-5.16076e-31
-1.09517e-31
-3.74626e-31
-5.19079e-33
-1.84589e-32
5.06944e-31
1.11919e-30
1.02179e-29
2.67657e-29
1.16787e-28
3.67096e-28
1.2318e-27
4.56686e-27
1.34474e-26
5.66025e-26
1.64039e-25
7.40156e-25
2.28832e-24
1.0361e-23
3.61168e-23
1.53556e-22
6.1905e-22
2.33164e-21
9.74191e-21
3.17611e-20
3.18787e-19
-2.04367e-44
-2.00239e-44
-2.64077e-44
-2.70369e-44
-5.07741e-44
-5.44499e-44
-1.06723e-43
-1.19962e-43
-2.30332e-43
-2.71409e-43
-5.05528e-43
-6.24422e-43
-1.1266e-42
-1.45855e-42
-2.54821e-42
-3.45747e-42
-5.84784e-42
-8.31442e-42
-1.36109e-41
-2.02755e-41
-3.21156e-41
-5.01165e-41
-7.67836e-41
-1.25498e-40
-1.85907e-40
-3.18193e-40
-4.5553e-40
-8.16306e-40
-1.12879e-39
-2.1174e-39
-2.82636e-39
-5.54858e-39
-7.1443e-39
-1.46753e-38
-1.82122e-38
-3.91356e-38
-4.67667e-38
-1.05108e-37
-1.20818e-37
-2.83939e-37
-3.13567e-37
-7.704e-37
-8.1631e-37
-2.09611e-36
-2.12788e-36
-5.7087e-36
-5.54327e-36
-1.55313e-35
-1.44004e-35
-4.21144e-35
-3.72172e-35
-1.13526e-34
-9.5447e-35
-3.03351e-34
-2.42251e-34
-8.00931e-34
-6.06836e-34
-2.08209e-33
-1.49615e-33
-5.30781e-33
-3.63829e-33
-1.54432e-32
-9.19456e-33
-3.7858e-32
-2.18375e-32
-8.65789e-32
-4.75582e-32
-1.80511e-31
-9.22951e-32
-3.34751e-31
-1.52121e-31
-5.29779e-31
-1.92848e-31
-6.54563e-31
-1.37772e-31
-4.68711e-31
-6.56842e-33
-2.33363e-32
6.4373e-31
1.4084e-30
1.29184e-29
3.36686e-29
1.52727e-28
4.74848e-28
1.70202e-27
6.17275e-27
1.97888e-26
8.02737e-26
2.53045e-25
1.08284e-24
3.54601e-24
1.50136e-23
5.27537e-23
2.0782e-22
7.93995e-22
2.77427e-21
1.06963e-20
3.28866e-20
3.12198e-19
-3.93294e-44
-3.85153e-44
-5.06123e-44
-5.17937e-44
-9.68021e-44
-1.03761e-43
-2.02479e-43
-2.27483e-43
-4.34864e-43
-5.12151e-43
-9.49621e-43
-1.17232e-42
-2.10517e-42
-2.72392e-42
-4.73553e-42
-6.42142e-42
-1.08053e-41
-1.53531e-41
-2.4999e-41
-3.72147e-41
-5.86179e-41
-9.14073e-41
-1.3923e-40
-2.27388e-40
-3.34796e-40
-5.72551e-40
-8.14477e-40
-1.45823e-39
-2.00311e-39
-3.75381e-39
-4.97611e-39
-9.75858e-39
-1.24746e-38
-2.5595e-38
-3.1525e-38
-6.76581e-38
-8.02176e-38
-1.8004e-37
-2.0526e-37
-4.81655e-37
-5.27395e-37
-1.29355e-36
-1.35853e-36
-3.48176e-36
-3.50213e-36
-9.37536e-36
-9.01721e-36
-2.5203e-35
-2.31386e-35
-6.74809e-35
-5.90314e-35
-1.79488e-34
-1.4934e-34
-4.72864e-34
-3.73617e-34
-1.22985e-33
-9.21764e-34
-3.14626e-33
-2.23614e-33
-7.88427e-33
-5.34506e-33
-2.25197e-32
-1.32393e-32
-5.40331e-32
-3.07798e-32
-1.20808e-31
-6.55181e-32
-2.45953e-31
-1.24104e-31
-4.45018e-31
-1.99496e-31
-6.87319e-31
-2.46872e-31
-8.3078e-31
-1.73068e-31
-5.86164e-31
-8.28364e-33
-2.9453e-32
7.97242e-31
1.74097e-30
1.60368e-29
4.18167e-29
1.95518e-28
6.05447e-28
2.28033e-27
8.15906e-27
2.77226e-26
1.09469e-25
3.62131e-25
1.48554e-24
4.96309e-24
1.98475e-23
6.83051e-23
2.5168e-22
9.09639e-22
2.98061e-21
1.10037e-20
3.27524e-20
2.95929e-19
-7.39177e-44
-7.23619e-44
-9.47617e-44
-9.69424e-44
-1.80349e-43
-1.9325e-43
-3.75495e-43
-4.21722e-43
-8.02744e-43
-9.45073e-43
-1.74465e-42
-2.15298e-42
-3.84857e-42
-4.97769e-42
-8.61277e-42
-1.16738e-41
-1.95469e-41
-2.77608e-41
-4.49707e-41
-6.69112e-41
-1.04833e-40
-1.63383e-40
-2.47485e-40
-4.03945e-40
-5.91321e-40
-1.01059e-39
-1.42898e-39
-2.55662e-39
-3.48999e-39
-6.5352e-39
-8.60684e-39
-1.68646e-38
-2.14125e-38
-4.38929e-38
-5.36818e-38
-1.15093e-37
-1.35459e-37
-3.03682e-37
-3.43586e-37
-8.05231e-37
-8.74729e-37
-2.14244e-36
-2.2316e-36
-5.71026e-36
-5.69482e-36
-1.52178e-35
-1.45076e-35
-4.0465e-35
-3.68128e-35
-1.07105e-34
-9.28163e-35
-2.81433e-34
-2.31909e-34
-7.31925e-34
-5.72614e-34
-1.87763e-33
-1.39314e-33
-4.73319e-33
-3.32973e-33
-1.16744e-32
-7.83312e-33
-3.27758e-32
-1.90403e-32
-7.70661e-32
-4.3378e-32
-1.68624e-31
-9.03152e-32
-3.35447e-31
-1.67003e-31
-5.92269e-31
-2.6159e-31
-8.92082e-31
-3.15237e-31
-1.05292e-30
-2.16027e-31
-7.29764e-31
-1.03628e-32
-3.69763e-32
9.75685e-31
2.14643e-30
1.96692e-29
5.16768e-29
2.46661e-28
7.66437e-28
2.98425e-27
1.06162e-26
3.72758e-26
1.44354e-25
4.84902e-25
1.91977e-24
6.31949e-24
2.40301e-23
7.94649e-23
2.76208e-22
9.58627e-22
3.00146e-21
1.10183e-20
3.19583e-20
2.74224e-19
-1.35733e-43
-1.3285e-43
-1.7339e-43
-1.7735e-43
-3.28452e-43
-3.5189e-43
-6.80866e-43
-7.64549e-43
-1.44923e-42
-1.70585e-42
-3.13557e-42
-3.86858e-42
-6.88459e-42
-8.90225e-42
-1.53324e-41
-2.0776e-41
-3.46216e-41
-4.91552e-41
-7.92335e-41
-1.17851e-40
-1.83692e-40
-2.86181e-40
-4.31176e-40
-7.03479e-40
-1.02409e-39
-1.74941e-39
-2.45943e-39
-4.39802e-39
-5.96773e-39
-1.11687e-38
-1.46178e-38
-2.8625e-38
-3.61098e-38
-7.39701e-38
-8.98606e-38
-1.92513e-37
-2.25002e-37
-5.03994e-37
-5.66104e-37
-1.32545e-36
-1.42906e-36
-3.49632e-36
-3.61356e-36
-9.23493e-36
-9.13595e-36
-2.43782e-35
-2.30475e-35
-6.41778e-35
-5.78845e-35
-1.68085e-34
-1.44375e-34
-4.36764e-34
-3.5664e-34
-1.12251e-33
-8.70022e-34
-2.84339e-33
-2.08972e-33
-7.07094e-33
-4.92634e-33
-1.71857e-32
-1.14185e-32
-4.74781e-32
-2.727e-32
-1.09526e-31
-6.09415e-32
-2.34756e-31
-1.24198e-31
-4.56647e-31
-2.24214e-31
-7.8694e-31
-3.41874e-31
-1.1552e-30
-4.00054e-31
-1.32862e-30
-2.66453e-31
-9.0032e-31
-1.27939e-32
-4.59886e-32
1.19319e-30
2.66703e-30
2.39442e-29
6.38118e-29
3.0752e-28
9.64464e-28
3.81518e-27
1.35586e-26
4.79578e-26
1.82806e-25
6.05554e-25
2.3215e-24
7.36541e-24
2.68055e-23
8.48813e-23
2.822e-22
9.69279e-22
2.97703e-21
1.08009e-20
3.04842e-20
2.57552e-19
-2.43622e-43
-2.38436e-43
-3.10166e-43
-3.1725e-43
-5.84944e-43
-6.26682e-43
-1.20752e-42
-1.35591e-42
-2.55956e-42
-3.01268e-42
-5.51424e-42
-6.80298e-42
-1.20537e-41
-1.55852e-41
-2.67208e-41
-3.62044e-41
-6.00488e-41
-8.52464e-41
-1.36742e-40
-2.03358e-40
-3.15376e-40
-4.9125e-40
-7.36288e-40
-1.20103e-39
-1.73895e-39
-2.96987e-39
-4.15184e-39
-7.42234e-39
-1.0013e-38
-1.87334e-38
-2.43709e-38
-4.7706e-38
-5.98045e-38
-1.22456e-37
-1.47798e-37
-3.16481e-37
-3.67408e-37
-8.22511e-37
-9.17441e-37
-2.14665e-36
-2.29776e-36
-5.61741e-36
-5.76238e-36
-1.47135e-35
-1.44432e-35
-3.85001e-35
-3.61072e-35
-1.0042e-34
-8.98248e-35
-2.6045e-34
-2.21805e-34
-6.69813e-34
-5.42148e-34
-1.70265e-33
-1.30784e-33
-4.26258e-33
-3.10405e-33
-1.04668e-32
-7.22429e-33
-2.50918e-32
-1.65136e-32
-6.82771e-32
-3.87867e-32
-1.54684e-31
-8.50966e-32
-3.25054e-31
-1.69851e-31
-6.18662e-31
-2.99352e-31
-1.04081e-30
-4.43765e-31
-1.48813e-30
-5.02599e-31
-1.66403e-30
-3.23055e-31
-1.09601e-30
-1.55007e-32
-5.64058e-32
1.46292e-30
3.34257e-30
2.89231e-29
7.8626e-29
3.7734e-28
1.19934e-27
4.72674e-27
1.68255e-26
5.85146e-26
2.20099e-25
7.02611e-25
2.62204e-24
7.95002e-24
2.79939e-23
8.61307e-23
2.80911e-22
9.64144e-22
2.89391e-21
1.05683e-20
2.96185e-20
2.50391e-19
-4.27578e-43
-4.18526e-43
-5.42643e-43
-5.55125e-43
-1.01905e-42
-1.09195e-42
-2.0953e-42
-2.35315e-42
-4.42378e-42
-5.20767e-42
-9.49165e-42
-1.17114e-41
-2.06604e-41
-2.67163e-41
-4.55996e-41
-6.17892e-41
-1.02008e-40
-1.44823e-40
-2.31193e-40
-3.43839e-40
-5.30595e-40
-8.2651e-40
-1.23242e-39
-2.01032e-39
-2.89524e-39
-4.9445e-39
-6.87434e-39
-1.22887e-38
-1.64835e-38
-3.08364e-38
-3.98794e-38
-7.80543e-38
-9.72507e-38
-1.99098e-37
-2.38779e-37
-5.11193e-37
-5.89552e-37
-1.31948e-36
-1.46174e-36
-3.41911e-36
-3.63395e-36
-8.88048e-36
-9.043e-36
-2.30787e-35
-2.2483e-35
-5.98937e-35
-5.57304e-35
-1.54875e-34
-1.3741e-34
-3.98036e-34
-3.36137e-34
-1.01381e-33
-8.13505e-34
-2.55074e-33
-1.94194e-33
-6.31584e-33
-4.55764e-33
-1.53251e-32
-1.04798e-32
-3.62642e-32
-2.36416e-32
-9.7268e-32
-5.46533e-32
-2.16586e-31
-1.17794e-31
-4.46534e-31
-2.30347e-31
-8.31962e-31
-3.96224e-31
-1.36659e-30
-5.70219e-31
-1.90195e-30
-6.2287e-31
-2.06303e-30
-3.83384e-31
-1.3123e-30
-1.82738e-32
-6.77127e-32
1.7895e-30
4.19784e-30
3.45202e-29
9.6227e-29
4.52149e-28
1.46222e-27
5.62191e-27
2.01126e-26
6.73707e-26
2.51305e-25
7.64058e-25
2.8022e-24
8.15111e-24
2.81961e-23
8.60532e-23
2.7675e-22
9.60129e-22
2.8519e-21
1.06489e-20
2.93577e-20
2.47942e-19
-7.34108e-43
-7.18768e-43
-9.28856e-43
-9.50528e-43
-1.73731e-42
-1.86219e-42
-3.55851e-42
-3.99773e-42
-7.48451e-42
-8.81352e-42
-1.59961e-41
-1.9743e-41
-3.4678e-41
-4.48556e-41
-7.62174e-41
-1.03306e-40
-1.69761e-40
-2.41075e-40
-3.83013e-40
-5.69772e-40
-8.74911e-40
-1.36316e-39
-2.02228e-39
-3.29943e-39
-4.7268e-39
-8.07402e-39
-1.11642e-38
-1.99608e-38
-2.66235e-38
-4.98136e-38
-6.40455e-38
-1.25371e-37
-1.55259e-37
-3.17894e-37
-3.78859e-37
-8.11156e-37