/*--------------------------------*- C++ -*----------------------------------*\
  =========                 |
  \\      /  F ield         | OpenFOAM: The Open Source CFD Toolbox
   \\    /   O peration     | Website:  https://openfoam.org
    \\  /    A nd           | Version:  9
     \\/     M anipulation  |
\*---------------------------------------------------------------------------*/
FoamFile
{
    format      ascii;
    class       volScalarField;
    location    "0.18";
    object      p;
}
// * * * * * * * * * * * * * * * * * * * * * * * * * * * * * * * * * * * * * //

dimensions      [1 -1 -2 0 0 0 0];

internalField   nonuniform List<scalar> 
5000
(
3.45316
3.4545
3.45569
3.45691
3.4582
3.45952
3.4609
3.46231
3.46378
3.46529
3.46685
3.46846
3.47013
3.47185
3.47363
3.47548
3.47741
3.47942
3.48153
3.48376
3.48611
3.4886
3.49126
3.49408
3.49708
3.50026
3.50359
3.507
3.5104
3.51345
3.51607
3.51757
3.51688
3.51366
3.50738
3.49721
3.48219
3.46139
3.4341
3.39991
3.35899
3.31298
3.26561
3.22259
3.19044
3.17415
3.1731
3.17839
3.17604
3.15542
3.45135
3.45268
3.45384
3.45504
3.4563
3.45759
3.45893
3.46032
3.46174
3.46322
3.46474
3.46631
3.46793
3.4696
3.47134
3.47314
3.47501
3.47697
3.47901
3.48117
3.48345
3.48586
3.48842
3.49115
3.49404
3.4971
3.50029
3.50355
3.50678
3.50961
3.51198
3.51314
3.51198
3.50826
3.50151
3.49108
3.47603
3.45519
3.42736
3.39164
3.34815
3.29926
3.24994
3.20677
3.17643
3.16332
3.16577
3.17423
3.17527
3.15806
3.44957
3.45088
3.45203
3.4532
3.45443
3.4557
3.45701
3.45837
3.45976
3.4612
3.46268
3.46422
3.4658
3.46744
3.46914
3.4709
3.47273
3.47464
3.47664
3.47875
3.48097
3.48332
3.4858
3.48844
3.49122
3.49415
3.49717
3.50021
3.50318
3.50569
3.50765
3.50831
3.50662
3.50243
3.4954
3.48497
3.47021
3.4498
3.4222
3.38623
3.34212
3.29288
3.24423
3.20298
3.17536
3.16508
3.16975
3.17956
3.18166
3.16623
3.44781
3.4491
3.45023
3.45139
3.4526
3.45384
3.45513
3.45646
3.45782
3.45924
3.46069
3.46219
3.46375
3.46536
3.46702
3.46875
3.47054
3.47242
3.47439
3.47645
3.47862
3.48091
3.48333
3.48588
3.48856
3.49135
3.49419
3.49701
3.49968
3.50183
3.50338
3.50356
3.50141
3.49688
3.48972
3.47946
3.4652
3.44555
3.41884
3.38384
3.34102
3.29389
3.24837
3.21072
3.18623
3.17782
3.18285
3.19201
3.19356
3.17912
3.44606
3.44734
3.44845
3.44959
3.45079
3.45202
3.45328
3.45459
3.45594
3.45732
3.45876
3.46023
3.46176
3.46334
3.46498
3.46668
3.46845
3.47029
3.47222
3.47425
3.47638
3.47862
3.48098
3.48345
3.48603
3.48869
3.49137
3.49396
3.49635
3.49817
3.49933
3.49909
3.4966
3.4919
3.48479
3.47486
3.46128
3.44268
3.41747
3.38456
3.34477
3.30183
3.26134
3.22837
3.20691
3.19914
3.20273
3.20959
3.20965
3.19595
3.44432
3.44559
3.44669
3.44782
3.449
3.45022
3.45147
3.45276
3.45409
3.45546
3.45688
3.45834
3.45985
3.46141
3.46302
3.4647
3.46644
3.46826
3.47017
3.47216
3.47425
3.47645
3.47876
3.48117
3.48366
3.4862
3.48871
3.4911
3.49324
3.49476
3.49558
3.495
3.49229
3.48755
3.48064
3.47122
3.45851
3.44129
3.41818
3.38839
3.35302
3.31577
3.28141
3.25345
3.23444
3.22608
3.2268
3.23028
3.22828
3.21513
3.44258
3.44385
3.44495
3.44607
3.44724
3.44845
3.44969
3.45097
3.45229
3.45365
3.45505
3.4565
3.45799
3.45954
3.46114
3.4628
3.46453
3.46634
3.46822
3.47019
3.47226
3.47442
3.47668
3.47903
3.48145
3.48388
3.48625
3.48846
3.49037
3.49164
3.49218
3.49136
3.48854
3.48388
3.4773
3.4685
3.45684
3.44132
3.42085
3.39499
3.36502
3.3343
3.30641
3.28313
3.26572
3.25568
3.25257
3.25211
3.24791
3.23534
3.44086
3.44212
3.44322
3.44434
3.44551
3.44671
3.44795
3.44922
3.45054
3.45189
3.45329
3.45473
3.45621
3.45775
3.45934
3.461
3.46272
3.46451
3.46638
3.46834
3.47039
3.47253
3.47476
3.47706
3.47941
3.48176
3.48401
3.48606
3.48778
3.48885
3.48918
3.48819
3.48535
3.48087
3.47471
3.46665
3.45621
3.44264
3.42521
3.4038
3.37974
3.35576
3.33403
3.31469
3.29793
3.28541
3.27804
3.27356
3.26735
3.2555
3.43914
3.44041
3.4415
3.44263
3.4438
3.445
3.44624
3.44751
3.44883
3.45018
3.45157
3.45301
3.4545
3.45604
3.45763
3.45928
3.461
3.46279
3.46466
3.46662
3.46866
3.47079
3.473
3.47527
3.47757
3.47984
3.482
3.48393
3.48549
3.4864
3.48658
3.48549
3.48271
3.47848
3.47281
3.46557
3.45646
3.44501
3.43085
3.41411
3.396
3.37843
3.36211
3.34574
3.3288
3.31337
3.30176
3.29359
3.28573
3.27481
3.43743
3.4387
3.4398
3.44093
3.44211
3.44332
3.44456
3.44584
3.44716
3.44852
3.44992
3.45136
3.45286
3.4544
3.456
3.45766
3.45939
3.46118
3.46306
3.46502
3.46706
3.46919
3.47139
3.47365
3.47592
3.47815
3.48023
3.48206
3.48352
3.48431
3.48438
3.48325
3.48058
3.47666
3.47152
3.46514
3.45741
3.44815
3.43729
3.42513
3.41261
3.40071
3.38877
3.37439
3.35668
3.3383
3.32286
3.31158
3.30254
3.29274
3.43572
3.43701
3.43812
3.43926
3.44044
3.44166
3.44291
3.4442
3.44553
3.4469
3.44832
3.44977
3.45128
3.45284
3.45445
3.45613
3.45787
3.45968
3.46157
3.46355
3.46561
3.46775
3.46995
3.47221
3.47447
3.47667
3.47871
3.48048
3.48185
3.48257
3.48258
3.48146
3.47894
3.47533
3.47074
3.46522
3.45886
3.45173
3.44402
3.4361
3.42851
3.42126
3.41258
3.39933
3.38057
3.35955
3.34098
3.32731
3.31757
3.30898
3.43402
3.43532
3.43644
3.43759
3.43879
3.44003
3.44129
3.4426
3.44395
3.44533
3.44677
3.44824
3.44977
3.45135
3.45298
3.45468
3.45645
3.45829
3.46021
3.46221
3.46429
3.46645
3.46868
3.47095
3.47321
3.47541
3.47743
3.47917
3.48049
3.48117
3.48116
3.48008
3.47773
3.47445
3.47037
3.46568
3.4606
3.45543
3.45056
3.44632
3.44276
3.43904
3.43254
3.41979
3.40001
3.37698
3.35616
3.34089
3.33085
3.32345
3.43232
3.43363
3.43477
3.43594
3.43716
3.43841
3.4397
3.44103
3.4424
3.44381
3.44527
3.44677
3.44832
3.44993
3.4516
3.45333
3.45513
3.457
3.45896
3.46099
3.46311
3.46531
3.46757
3.46987
3.47216
3.47437
3.4764
3.47813
3.47944
3.48011
3.48011
3.47909
3.47692
3.47393
3.47033
3.46638
3.46243
3.45897
3.45649
3.4552
3.45468
3.45335
3.44812
3.43551
3.41504
3.39081
3.3687
3.35258
3.34256
3.33625
3.4306
3.43193
3.43309
3.43428
3.43553
3.43681
3.43812
3.43948
3.44088
3.44232
3.44381
3.44535
3.44694
3.44859
3.4503
3.45207
3.45391
3.45582
3.45782
3.45991
3.46207
3.46432
3.46663
3.46897
3.47131
3.47355
3.47561
3.47736
3.47869
3.47937
3.4794
3.47847
3.47645
3.47373
3.47053
3.46719
3.46418
3.46208
3.46144
3.46231
3.46379
3.46382
3.45915
3.44659
3.42597
3.40148
3.37903
3.36273
3.35297
3.34755
3.42887
3.43022
3.43141
3.43263
3.4339
3.43522
3.43657
3.43796
3.4394
3.44088
3.44241
3.44399
3.44562
3.44731
3.44907
3.45089
3.45278
3.45475
3.4568
3.45894
3.46117
3.46348
3.46585
3.46825
3.47065
3.47295
3.47506
3.47686
3.47822
3.47894
3.47903
3.47818
3.4763
3.47378
3.4709
3.46801
3.46568
3.46456
3.46516
3.46734
3.46986
3.47038
3.46581
3.45345
3.43338
3.40957
3.38766
3.3717
3.36232
3.35755
3.42712
3.42849
3.42971
3.43097
3.43228
3.43363
3.43502
3.43646
3.43794
3.43947
3.44104
3.44267
3.44436
3.44611
3.44792
3.4498
3.45175
3.45378
3.4559
3.45811
3.4604
3.46278
3.46523
3.46771
3.47018
3.47256
3.47474
3.47661
3.47804
3.47882
3.47897
3.4782
3.47643
3.47405
3.47136
3.46876
3.46683
3.46625
3.46747
3.47015
3.47284
3.47317
3.46849
3.45668
3.43793
3.4157
3.39508
3.37984
3.37085
3.36643
3.42534
3.42674
3.428
3.4293
3.43066
3.43205
3.43349
3.43497
3.43651
3.43809
3.43972
3.44141
3.44316
3.44497
3.44684
3.44879
3.45081
3.45291
3.45511
3.45739
3.45977
3.46223
3.46476
3.46733
3.4699
3.47237
3.47465
3.47661
3.47812
3.47898
3.47921
3.47852
3.47682
3.47451
3.47189
3.46937
3.46755
3.46706
3.46828
3.47074
3.47287
3.47257
3.4678
3.45702
3.44035
3.42052
3.40176
3.3875
3.37881
3.3744
3.42354
3.42496
3.42627
3.42762
3.42903
3.43047
3.43197
3.43351
3.4351
3.43674
3.43843
3.44019
3.442
3.44389
3.44583
3.44786
3.44996
3.45214
3.45442
3.4568
3.45926
3.46182
3.46445
3.46713
3.4698
3.47239
3.47478
3.47685
3.47847
3.47943
3.47975
3.47913
3.47747
3.47514
3.47246
3.46981
3.46778
3.46696
3.46762
3.4692
3.47025
3.46911
3.46446
3.45526
3.44139
3.4246
3.40813
3.39498
3.38642
3.38165
3.42171
3.42317
3.42453
3.42593
3.42739
3.4289
3.43045
3.43205
3.43371
3.43542
3.43719
3.43901
3.44091
3.44287
3.4449
3.44701
3.4492
3.45147
3.45385
3.45632
3.45889
3.46155
3.46429
3.46709
3.46988
3.4726
3.47512
3.47733
3.47908
3.48016
3.48058
3.48002
3.47835
3.47594
3.47305
3.47008
3.46754
3.46598
3.46556
3.46577
3.46542
3.46345
3.45929
3.45227
3.44177
3.42847
3.41455
3.40252
3.3939
3.3884
3.41985
3.42135
3.42277
3.42423
3.42575
3.42732
3.42894
3.43061
3.43234
3.43412
3.43597
3.43788
3.43986
3.4419
3.44403
3.44623
3.44852
3.4509
3.45337
3.45595
3.45864
3.46142
3.46428
3.46721
3.47014
3.473
3.47568
3.47804
3.47995
3.48116
3.4817
3.4812
3.47948
3.47689
3.47368
3.47018
3.46686
3.46418
3.46229
3.46078
3.45892
3.45635
3.45318
3.44888
3.44219
3.43263
3.42132
3.41035
3.40143
3.39485
3.41796
3.41951
3.42099
3.42252
3.4241
3.42574
3.42743
3.42918
3.43099
3.43285
3.43479
3.43678
3.43885
3.441
3.44322
3.44553
3.44792
3.45041
3.453
3.4557
3.45851
3.46142
3.46442
3.46748
3.47057
3.47359
3.47644
3.47898
3.48106
3.48243
3.48311
3.48266
3.48087
3.47804
3.47437
3.47016
3.46581
3.46171
3.45806
3.45467
3.45139
3.44864
3.44703
3.44594
3.44331
3.4375
3.42869
3.4186
3.40916
3.40119
3.41604
3.41764
3.41919
3.42079
3.42245
3.42416
3.42593
3.42776
3.42965
3.43161
3.43363
3.43573
3.4379
3.44015
3.44248
3.4449
3.44741
3.45002
3.45273
3.45556
3.4585
3.46155
3.46469
3.46792
3.47117
3.47437
3.47741
3.48015
3.48243
3.48397
3.48481
3.48442
3.48253
3.47939
3.47517
3.47009
3.4645
3.45878
3.45319
3.44796
3.44358
3.44118
3.44172
3.44423
3.44573
3.44347
3.43688
3.42741
3.41721
3.40758
3.4141
3.41575
3.41738
3.41905
3.42078
3.42258
3.42443
3.42635
3.42833
3.43038
3.43251
3.4347
3.43698
3.43934
3.44179
3.44433
3.44697
3.44971
3.45256
3.45552
3.45861
3.4618
3.46511
3.4685
3.47193
3.47533
3.47858
3.48153
3.48403
3.48579
3.4868
3.48649
3.48449
3.481
3.47613
3.47006
3.46309
3.45562
3.44812
3.44127
3.43627
3.43485
3.43809
3.44445
3.44996
3.45089
3.44608
3.43687
3.42567
3.41417
3.41212
3.41384
3.41554
3.41729
3.41911
3.42099
3.42293
3.42494
3.42702
3.42917
3.4314
3.43371
3.43611
3.43859
3.44116
3.44383
3.4466
3.44948
3.45247
3.45559
3.45883
3.46219
3.46566
3.46923
3.47286
3.47646
3.47994
3.48314
3.48588
3.48787
3.48909
3.48887
3.48676
3.4829
3.47733
3.47018
3.46176
3.45255
3.44332
3.43526
3.43026
3.43049
3.43689
3.44719
3.45642
3.46004
3.45648
3.44713
3.43466
3.4211
3.41012
3.41191
3.41369
3.41552
3.41743
3.41939
3.42143
3.42354
3.42572
3.42799
3.43033
3.43276
3.43527
3.43788
3.44058
3.44339
3.4463
3.44933
3.45248
3.45575
3.45915
3.46269
3.46634
3.47011
3.47394
3.47777
3.48149
3.48495
3.48797
3.49022
3.49168
3.49159
3.48939
3.48515
3.47885
3.47059
3.46074
3.44995
3.43933
3.43066
3.42636
3.42888
3.43875
3.45288
3.46538
3.47109
3.46821
3.45829
3.44428
3.42851
3.40809
3.40996
3.41182
3.41374
3.41573
3.4178
3.41993
3.42214
3.42444
3.42681
3.42927
3.43182
3.43447
3.43721
3.44005
3.443
3.44607
3.44925
3.45256
3.45601
3.45959
3.4633
3.46715
3.47112
3.47517
3.47925
3.48323
3.48698
3.4903
3.49284
3.49458
3.49465
3.49239
3.48779
3.48078
3.47146
3.4603
3.44821
3.43674
3.42815
3.42532
3.43065
3.44415
3.46182
3.47701
3.48413
3.48137
3.47048
3.45469
3.43656
3.40604
3.40798
3.40993
3.41194
3.41403
3.41619
3.41843
3.42075
3.42316
3.42565
3.42823
3.43091
3.43369
3.43658
3.43957
3.44267
3.4459
3.44925
3.45273
3.45635
3.46011
3.46403
3.46808
3.47227
3.47656
3.48088
3.48515
3.4892
3.49285
3.49572
3.49778
3.49807
3.4958
3.49089
3.48322
3.47296
3.46073
3.44778
3.4361
3.4284
3.42774
3.4363
3.45337
3.47411
3.4913
3.49916
3.49598
3.48376
3.46599
3.44541
3.40396
3.40599
3.40803
3.41013
3.41232
3.41458
3.41693
3.41936
3.42188
3.4245
3.42721
3.43003
3.43295
3.43598
3.43912
3.44239
3.44578
3.4493
3.45296
3.45677
3.46073
3.46485
3.46913
3.47354
3.47808
3.48268
3.48724
3.49162
3.49562
3.49886
3.50129
3.50184
3.49963
3.49449
3.48629
3.47527
3.46233
3.44909
3.43795
3.43193
3.43406
3.44608
3.46648
3.4897
3.50816
3.51609
3.51201
3.49817
3.47828
3.4552
3.40186
3.40397
3.4061
3.40831
3.41059
3.41296
3.41542
3.41797
3.42061
3.42336
3.4262
3.42916
3.43222
3.43541
3.43871
3.44214
3.44571
3.44941
3.45326
3.45727
3.46144
3.46577
3.47027
3.47494
3.47973
3.48462
3.48949
3.49422
3.4986
3.50224
3.50508
3.50598
3.50391
3.49866
3.49009
3.4786
3.46541
3.45253
3.44271
3.43908
3.44446
3.45999
3.48334
3.50837
3.52736
3.53476
3.52939
3.51374
3.49164
3.46605
3.39973
3.40193
3.40416
3.40647
3.40886
3.41134
3.41391
3.41658
3.41935
3.42222
3.42521
3.42831
3.43152
3.43486
3.43833
3.44193
3.44568
3.44957
3.45362
3.45784
3.46222
3.46678
3.47152
3.47644
3.48151
3.48669
3.4919
3.497
3.50178
3.50584
3.50916
3.51046
3.50865
3.50343
3.49472
3.48313
3.47022
3.4584
3.45063
3.44997
3.45887
3.47775
3.50355
3.52971
3.54859
3.55499
3.54804
3.53046
3.50614
3.47808
3.39758
3.39988
3.40221
3.40462
3.40712
3.40971
3.4124
3.41519
3.41809
3.4211
3.42422
3.42746
3.43083
3.43434
3.43797
3.44175
3.44569
3.44977
3.45403
3.45846
3.46306
3.46786
3.47285
3.47803
3.48339
3.48889
3.49445
3.49993
3.50513
3.50966
3.5135
3.5153
3.51384
3.50883
3.50026
3.48899
3.47697
3.4669
3.46178
3.46447
3.47691
3.49881
3.5265
3.55318
3.57144
3.57649
3.56784
3.54831
3.52183
3.49141
3.39542
3.39783
3.40025
3.40276
3.40537
3.40807
3.41088
3.4138
3.41683
3.41997
3.42324
3.42663
3.43016
3.43383
3.43764
3.4416
3.44572
3.45001
3.45448
3.45912
3.46397
3.46901
3.47426
3.47972
3.48537
3.4912
3.49712
3.503
3.50865
3.51368
3.51808
3.52045
3.51949
3.51489
3.50677
3.49631
3.48577
3.47805
3.47602
3.48219
3.49795
3.52241
3.55142
3.57811
3.5954
3.59897
3.58861
3.56724
3.53876
3.50613
3.39325
3.39576
3.39829
3.4009
3.40362
3.40644
3.40937
3.41241
3.41557
3.41885
3.42226
3.42581
3.42949
3.43333
3.43731
3.44146
3.44578
3.45027
3.45495
3.45983
3.46491
3.47021
3.47573
3.48147
3.48744
3.4936
3.49989
3.50619
3.51231
3.51786
3.52287
3.52589
3.52556
3.52159
3.51427
3.5051
3.49661
3.49169
3.49298
3.50252
3.5212
3.54765
3.57742
3.60374
3.6199
3.62202
3.61012
3.58715
3.55691
3.52231
3.39107
3.3937
3.39632
3.39904
3.40186
3.4048
3.40785
3.41102
3.41431
3.41773
3.42129
3.42498
3.42883
3.43283
3.437
3.44133
3.44585
3.45055
3.45545
3.46056
3.46589
3.47144
3.47724
3.48328
3.48956
3.49607
3.50275
3.50948
3.51608
3.52218
3.52785
3.5316
3.53203
3.52891
3.52275
3.51533
3.50934
3.50753
3.51212
3.52469
3.54573
3.57355
3.60361
3.6293
3.64434
3.64521
3.63208
3.60785
3.5762
3.54
3.38889
3.39163
3.39436
3.39718
3.40011
3.40316
3.40633
3.40963
3.41305
3.41661
3.42031
3.42416
3.42817
3.43234
3.43669
3.44121
3.44592
3.45084
3.45596
3.46131
3.46688
3.4727
3.47878
3.48513
3.49174
3.4986
3.50567
3.51285
3.51994
3.52662
3.53297
3.53752
3.53885
3.53681
3.53213
3.52686
3.52371
3.5251
3.53276
3.54785
3.5706
3.59919
3.62913
3.65408
3.66813
3.66806
3.65411
3.6291
3.59651
3.55916
3.38672
3.38958
3.3924
3.39532
3.39837
3.40153
3.40482
3.40824
3.41179
3.41549
3.41933
3.42333
3.4275
3.43184
3.43637
3.44108
3.44599
3.45112
3.45647
3.46205
3.46788
3.47397
3.48034
3.48699
3.49394
3.50116
3.50864
3.51626
3.52386
3.53112
3.5382
3.54361
3.54597
3.54521
3.54231
3.53949
3.53935
3.54384
3.55417
3.57116
3.59494
3.62375
3.65327
3.67745
3.69074
3.69011
3.67585
3.65059
3.61763
3.57969
3.38456
3.38754
3.39045
3.39347
3.39662
3.3999
3.4033
3.40685
3.41053
3.41436
3.41835
3.4225
3.42683
3.43134
3.43604
3.44094
3.44605
3.45139
3.45696
3.46278
3.46887
3.47523
3.48189
3.48885
3.49613
3.50373
3.51161
3.51969
3.52781
3.53567
3.54349
3.54983
3.55331
3.55401
3.55313
3.55295
3.55582
3.56314
3.57561
3.59385
3.61803
3.64661
3.67549
3.69896
3.71174
3.71099
3.69693
3.67206
3.63932
3.60148
3.38242
3.38551
3.38852
3.39163
3.39489
3.39827
3.40179
3.40545
3.40926
3.41323
3.41736
3.42166
3.42614
3.43082
3.43569
3.44078
3.44609
3.45164
3.45743
3.46349
3.46983
3.47646
3.48341
3.49069
3.49831
3.50628
3.51457
3.52311
3.53174
3.54022
3.54881
3.55611
3.56081
3.56312
3.5644
3.56693
3.57267
3.58242
3.59644
3.61529
3.63935
3.66733
3.69547
3.71833
3.73089
3.73042
3.71708
3.69316
3.66151
3.62443
3.38029
3.3835
3.3866
3.3898
3.39316
3.39665
3.40028
3.40406
3.408
3.41209
3.41636
3.4208
3.42544
3.43028
3.43532
3.44059
3.4461
3.45185
3.45787
3.46416
3.47075
3.47766
3.48489
3.49249
3.50045
3.50878
3.51748
3.52648
3.53563
3.54472
3.55409
3.5624
3.56839
3.5724
3.57591
3.5811
3.58944
3.60113
3.61613
3.63504
3.65855
3.68571
3.71307
3.73546
3.74807
3.74828
3.73619
3.71388
3.68397
3.64843
3.37818
3.3815
3.38469
3.38799
3.39144
3.39504
3.39878
3.40267
3.40672
3.41094
3.41534
3.41993
3.42472
3.42971
3.43493
3.44037
3.44607
3.45203
3.45826
3.46478
3.47162
3.47879
3.48632
3.49422
3.50251
3.51121
3.52032
3.52977
3.53944
3.54915
3.5593
3.56864
3.57597
3.58173
3.58747
3.59515
3.60573
3.61887
3.6343
3.65283
3.6755
3.70173
3.72834
3.75042
3.76336
3.76463
3.75429
3.73421
3.70669
3.67344
3.37609
3.37953
3.3828
3.38619
3.38974
3.39343
3.39727
3.40128
3.40545
3.40979
3.41432
3.41904
3.42397
3.42912
3.4345
3.44012
3.446
3.45215
3.45859
3.46534
3.47242
3.47985
3.48766
3.49586
3.50448
3.51355
3.52305
3.53295
3.54314
3.55346
3.56439
3.57477
3.58347
3.59099
3.59887
3.60881
3.62122
3.63532
3.65075
3.66858
3.69025
3.71552
3.74147
3.76341
3.77694
3.77964
3.77152
3.75423
3.72977
3.69947
3.37403
3.37758
3.38093
3.3844
3.38804
3.39183
3.39578
3.39988
3.40416
3.40862
3.41328
3.41813
3.4232
3.42849
3.43403
3.43981
3.44587
3.45221
3.45886
3.46583
3.47314
3.48082
3.4889
3.4974
3.50634
3.51576
3.52565
3.53599
3.54668
3.5576
3.56931
3.58074
3.59081
3.60005
3.60994
3.62185
3.63568
3.65031
3.6654
3.68233
3.70294
3.72731
3.75271
3.77469
3.78907
3.79358
3.78814
3.77416
3.75331
3.72656
3.372
3.37566
3.37908
3.38263
3.38636
3.39024
3.39428
3.39849
3.40287
3.40745
3.41222
3.4172
3.4224
3.42783
3.43351
3.43946
3.44568
3.45221
3.45905
3.46623
3.47377
3.48169
3.49003
3.49881
3.50807
3.51782
3.52809
3.53886
3.55003
3.56154
3.57402
3.58649
3.5979
3.60879
3.62053
3.6341
3.64899
3.6638
3.67831
3.69425
3.71383
3.73737
3.76236
3.78457
3.80007
3.80673
3.80439
3.79417
3.77739
3.7547
3.37001
3.37377
3.37727
3.38089
3.3847
3.38866
3.39279
3.39709
3.40158
3.40626
3.41114
3.41624
3.42156
3.42713
3.43295
3.43905
3.44544
3.45213
3.45916
3.46653
3.47429
3.48244
3.49103
3.50008
3.50963
3.51971
3.53034
3.54152
3.55316
3.56524
3.57846
3.59196
3.60468
3.61714
3.63052
3.64547
3.66107
3.67582
3.68963
3.70458
3.72319
3.746
3.77071
3.79333
3.81021
3.81934
3.82046
3.81439
3.80204
3.78378
3.36805
3.37192
3.37548
3.37917
3.38305
3.3871
3.39131
3.3957
3.40028
3.40506
3.41004
3.41525
3.42069
3.42638
3.43234
3.43858
3.44512
3.45197
3.45917
3.46674
3.47469
3.48306
3.49189
3.5012
3.51103
3.52142
3.53239
3.54395
3.55604
3.56867
3.58261
3.5971
3.61108
3.62498
3.63983
3.65588
3.67196
3.68648
3.69957
3.71359
3.73132
3.7535
3.77803
3.80122
3.81971
3.83159
3.83646
3.8348
3.82716
3.81362
3.36613
3.3701
3.37372
3.37747
3.38143
3.38555
3.38984
3.39431
3.39897
3.40384
3.40892
3.41423
3.41978
3.42559
3.43167
3.43804
3.44472
3.45173
3.45909
3.46683
3.47497
3.48355
3.4926
3.50215
3.51224
3.52291
3.5342
3.54613
3.55865
3.57179
3.58642
3.60187
3.61702
3.63227
3.64838
3.66533
3.68172
3.69596
3.70836
3.72156
3.73851
3.76012
3.78455
3.80845
3.82873
3.84355
3.85236
3.85528
3.85252
3.84391
3.36426
3.36833
3.37199
3.3758
3.37982
3.38401
3.38837
3.39291
3.39766
3.40261
3.40778
3.41319
3.41884
3.42475
3.43095
3.43744
3.44425
3.45139
3.45891
3.46681
3.47512
3.48389
3.49314
3.50291
3.51325
3.52419
3.53578
3.54805
3.56097
3.57459
3.58986
3.60621
3.62247
3.63892
3.65614
3.67383
3.69043
3.70442
3.71627
3.72878
3.74504
3.76614
3.79053
3.81521
3.83737
3.85525
3.86808
3.87564
3.87782
3.87428
3.36243
3.36659
3.3703
3.37416
3.37824
3.38248
3.38691
3.39152
3.39634
3.40136
3.40662
3.41211
3.41785
3.42386
3.43016
3.43676
3.44369
3.45096
3.45861
3.46666
3.47514
3.48407
3.49351
3.50349
3.51404
3.52523
3.53709
3.54968
3.56296
3.57703
3.59291
3.6101
3.62737
3.64491
3.66309
3.6814
3.69821
3.71205
3.72353
3.73551
3.75119
3.77183
3.79619
3.82168
3.84575
3.86667
3.88347
3.89564
3.90275
3.90435
3.36065
3.36489
3.36864
3.37254
3.37667
3.38097
3.38545
3.39012
3.395
3.4001
3.40543
3.41099
3.41682
3.42292
3.42931
3.43601
3.44305
3.45044
3.45821
3.46639
3.47501
3.4841
3.49371
3.50386
3.51462
3.52603
3.53814
3.55101
3.56463
3.5791
3.59553
3.6135
3.63169
3.6502
3.66922
3.68809
3.70515
3.71901
3.73034
3.74201
3.75723
3.77746
3.80182
3.82809
3.854
3.87784
3.89848
3.9151
3.92704
3.93375
3.3589
3.36322
3.36701
3.37095
3.37512
3.37947
3.384
3.38873
3.39366
3.39882
3.40421
3.40984
3.41574
3.42192
3.42839
3.43518
3.44231
3.44981
3.45769
3.46599
3.47473
3.48397
3.49372
3.50404
3.51498
3.52658
3.53892
3.55203
3.56596
3.58079
3.59772
3.61639
3.6354
3.65477
3.67454
3.69394
3.71134
3.72544
3.73689
3.7485
3.76344
3.78335
3.80771
3.83471
3.86232
3.88888
3.91309
3.93391
3.9505
3.96224
3.3572
3.36158
3.3654
3.36938
3.37359
3.37798
3.38255
3.38732
3.39231
3.39752
3.40296
3.40866
3.41462
3.42086
3.42741
3.43428
3.44149
3.44907
3.45705
3.46545
3.47431
3.48367
3.49355
3.50402
3.51511
3.52689
3.53941
3.55275
3.56694
3.5821
3.59947
3.61876
3.6385
3.65862
3.67906
3.69899
3.71685
3.73142
3.74331
3.75515
3.77004
3.78976
3.81417
3.84182
3.87096
3.89995
3.92741
3.95211
3.97308
3.98967
3.35553
3.35998
3.36382
3.36783
3.37207
3.37649
3.3811
3.38592
3.39094
3.3962
3.40169
3.40743
3.41345
3.41975
3.42636
3.43329
3.44058
3.44824
3.4563
3.46479
3.47374
3.4832
3.4932
3.50378
3.51501
3.52694
3.53963
3.55316
3.56758
3.58301
3.60077
3.62061
3.64098
3.66176
3.6828
3.70329
3.72173
3.73702
3.74967
3.76207
3.7772
3.79694
3.82147
3.84972
3.88018
3.9113
3.94162
3.96982
3.99483
4.01604
3.3539
3.35841
3.36227
3.3663
3.37057
3.37502
3.37966
3.3845
3.38956
3.39485
3.40038
3.40617
3.41223
3.41858
3.42524
3.43223
3.43957
3.44729
3.45542
3.46399
3.47302
3.48257
3.49266
3.50335
3.51469
3.52674
3.53957
3.55326
3.56788
3.58355
3.60164
3.62194
3.64285
3.6642
3.6858
3.70685
3.72601
3.74224
3.75596
3.7693
3.785
3.80502
3.8298
3.85863
3.89023
3.92315
3.95593
3.9872
4.01588
4.04143
3.35231
3.35687
3.36075
3.36479
3.36908
3.37355
3.37822
3.38308
3.38817
3.39349
3.39905
3.40487
3.41096
3.41735
3.42405
3.43108
3.43847
3.44624
3.45443
3.46305
3.47215
3.48176
3.49193
3.50271
3.51414
3.52629
3.53924
3.55307
3.56784
3.58371
3.60207
3.62277
3.64413
3.66598
3.68808
3.70971
3.72968
3.74705
3.76213
3.77675
3.79341
3.81401
3.83924
3.86866
3.90123
3.93565
3.9705
4.00443
4.03638
4.06594
3.35076
3.35537
3.35925
3.3633
3.36761
3.3721
3.37677
3.38166
3.38676
3.3921
3.39768
3.40352
3.40964
3.41606
3.42279
3.42985
3.43728
3.44509
3.45331
3.46198
3.47113
3.4808
3.49103
3.50186
3.51337
3.5256
3.53864
3.55257
3.56748
3.5835
3.60209
3.62312
3.64486
3.66713
3.68969
3.7119
3.73274
3.7514
3.76807
3.78429
3.80225
3.82377
3.84967
3.87975
3.9132
3.94886
3.98543
4.02163
4.05648
4.08972
3.34925
3.3539
3.35779
3.36184
3.36615
3.37065
3.37533
3.38023
3.38534
3.39069
3.39628
3.40214
3.40827
3.41471
3.42146
3.42854
3.43599
3.44383
3.45208
3.46078
3.46996
3.47967
3.48994
3.50082
3.51238
3.52467
3.53778
3.55179
3.5668
3.58294
3.60171
3.62301
3.64505
3.66767
3.69065
3.71344
3.73518
3.7552
3.77362
3.79168
3.81126
3.83402
3.86082
3.89167
3.92594
3.96266
4.00066
4.03879
4.0762
4.11284
3.34778
3.35247
3.35635
3.3604
3.36471
3.36921
3.37389
3.37879
3.3839
3.38925
3.39485
3.40071
3.40685
3.41329
3.42005
3.42715
3.43461
3.44246
3.45073
3.45944
3.46865
3.47837
3.48867
3.49958
3.51117
3.5235
3.53665
3.55072
3.5658
3.58204
3.60095
3.62245
3.64474
3.66766
3.69101
3.71434
3.73698
3.75837
3.7786
3.79865
3.82008
3.84435
3.8723
3.90404
3.93913
3.97679
4.01601
4.0558
4.0955
4.13526
3.34635
3.35107
3.35493
3.35897
3.36328
3.36777
3.37245
3.37734
3.38245
3.38779
3.39338
3.39924
3.40538
3.41182
3.41857
3.42567
3.43313
3.44098
3.44926
3.45798
3.46719
3.47692
3.48722
3.49815
3.50975
3.5221
3.53528
3.54938
3.56451
3.5808
3.59982
3.62147
3.64396
3.66712
3.6908
3.71463
3.73811
3.76083
3.78284
3.80494
3.82836
3.85432
3.8836
3.91636
3.95231
3.99085
4.03117
4.07243
4.11419
4.15687
3.34495
3.34969
3.35353
3.35756
3.36185
3.36633
3.37099
3.37587
3.38097
3.3863
3.39188
3.39773
3.40385
3.41028
3.41702
3.42411
3.43156
3.4394
3.44767
3.45638
3.46558
3.4753
3.4856
3.49652
3.50812
3.52047
3.53366
3.54777
3.56291
3.57925
3.59832
3.62009
3.64272
3.66608
3.69004
3.71433
3.73858
3.76252
3.78622
3.81029
3.83572
3.86348
3.8942
3.9281
3.96498
4.00439
4.04571
4.08833
4.132
4.17743
3.34358
3.34833
3.35215
3.35616
3.36043
3.36489
3.36953
3.37439
3.37947
3.38478
3.39034
3.39617
3.40227
3.40868
3.4154
3.42246
3.42989
3.43771
3.44596
3.45465
3.46383
3.47353
3.48381
3.4947
3.50629
3.51862
3.53179
3.54589
3.56104
3.57738
3.59649
3.61832
3.64105
3.66457
3.68877
3.71345
3.73838
3.7634
3.78862
3.81453
3.84187
3.87141
3.90364
3.93873
3.97659
4.01688
4.05919
4.10308
4.14855
4.19658
3.34223
3.34699
3.35078
3.35476
3.35902
3.36344
3.36806
3.37289
3.37795
3.38323
3.38877
3.39456
3.40064
3.40701
3.4137
3.42073
3.42813
3.43592
3.44413
3.45279
3.46193
3.4716
3.48184
3.4927
3.50425
3.51655
3.52968
3.54375
3.55887
3.5752
3.59431
3.61618
3.63896
3.66259
3.68698
3.712
3.73751
3.76346
3.78999
3.81751
3.8466
3.87781
3.91151
3.94781
3.98667
4.02787
4.07113
4.11625
4.16343
4.2139
3.34091
3.34566
3.34943
3.35338
3.3576
3.362
3.36658
3.37138
3.3764
3.38165
3.38715
3.3929
3.39894
3.40528
3.41193
3.41892
3.42627
3.43402
3.44218
3.45079
3.45989
3.46951
3.4797
3.49051
3.502
3.51425
3.52733
3.54135
3.55643
3.57271
3.5918
3.61366
3.63647
3.66016
3.6847
3.70998
3.73597
3.76268
3.79029
3.81918
3.84977
3.88247
3.91752
3.95498
3.99482
4.03692
4.08113
4.12741
4.1762
4.22892
3.3396
3.34435
3.34808
3.35199
3.35618
3.36054
3.36509
3.36985
3.37482
3.38003
3.38548
3.3912
3.39719
3.40348
3.41008
3.41702
3.42432
3.43201
3.44012
3.44867
3.4577
3.46726
3.47739
3.48813
3.49956
3.51174
3.52475
3.5387
3.55371
3.56993
3.58895
3.61077
3.63357
3.65729
3.68191
3.7074
3.73375
3.76106
3.78953
3.8195
3.85132
3.88528
3.9215
3.96001
4.00077
4.04372
4.08882
4.13618
4.18642
4.2411
3.33832
3.34306
3.34675
3.35061
3.35476
3.35908
3.36358
3.36829
3.37322
3.37838
3.38378
3.38944
3.39538
3.40161
3.40815
3.41503
3.42227
3.42989
3.43793
3.44641
3.45537
3.46486
3.4749
3.48557
3.49691
3.509
3.52193
3.53579
3.55071
3.56684
3.58578
3.60752
3.63026
3.65397
3.67864
3.70425
3.73087
3.75861
3.78771
3.8185
3.85126
3.8862
3.92338
3.96277
4.00434
4.04804
4.09393
4.14225
4.19372
4.24996
3.33706
3.34177
3.34541
3.34923
3.35333
3.3576
3.36205
3.36671
3.37159
3.37669
3.38203
3.38763
3.3935
3.39967
3.40614
3.41295
3.42012
3.42767
3.43563
3.44403
3.4529
3.4623
3.47225
3.48282
3.49407
3.50605
3.51887
3.53262
3.54743
3.56345
3.58228
3.6039
3.62655
3.6502
3.67485
3.70053
3.72731
3.75533
3.78487
3.81621
3.84962
3.88527
3.92316
3.96323
4.00544
4.04976
4.09629
4.14536
4.19776
4.25502
3.3358
3.34047
3.34406
3.34783
3.35188
3.3561
3.3605
3.3651
3.36992
3.37496
3.38023
3.38577
3.39157
3.39766
3.40406
3.41079
3.41787
3.42533
3.4332
3.44151
3.45029
3.45958
3.46943
3.47989
3.49102
3.50289
3.51558
3.5292
3.54388
3.55977
3.57844
3.59991
3.62243
3.64597
3.67056
3.69624
3.72307
3.75124
3.78102
3.81268
3.84649
3.88256
3.9209
3.96143
4.00408
4.04883
4.0958
4.14537
4.1983
4.25587
3.33453
3.33916
3.3427
3.34642
3.35042
3.35458
3.35892
3.36346
3.36821
3.37318
3.37839
3.38385
3.38957
3.39558
3.4019
3.40854
3.41553
3.42289
3.43066
3.43886
3.44753
3.45671
3.46644
3.47677
3.48777
3.4995
3.51206
3.52553
3.54005
3.55578
3.57427
3.59556
3.6179
3.64129
3.66576
3.69135
3.71816
3.74635
3.7762
3.80798
3.84193
3.87818
3.91672
3.95746
4.00033
4.04528
4.09245
4.14219
4.19518
4.25223
3.33325
3.33785
3.34134
3.345
3.34894
3.35304
3.35732
3.36179
3.36647
3.37137
3.3765
3.38187
3.38751
3.39343
3.39965
3.4062
3.41308
3.42034
3.428
3.43608
3.44463
3.45368
3.46328
3.47347
3.48433
3.4959
3.50829
3.5216
3.53594
3.55148
3.56977
3.59083
3.61295
3.63615
3.66044
3.68589
3.71257
3.74067
3.77044
3.80215
3.83604
3.87223
3.91073
3.95145
3.9943
4.03921
4.0863
4.13584
4.18832
4.24393
3.33198
3.33654
3.33997
3.34358
3.34745
3.35149
3.35569
3.36009
3.3647
3.36951
3.37456
3.37984
3.38539
3.39121
3.39733
3.40377
3.41054
3.41768
3.42521
3.43317
3.44159
3.4505
3.45995
3.46999
3.48068
3.49209
3.5043
3.51742
3.53156
3.54689
3.56494
3.58573
3.6076
3.63055
3.65461
3.67984
3.70632
3.73422
3.76378
3.79526
3.8289
3.86483
3.90307
3.94354
3.98613
4.03075
4.07744
4.1264
4.17779
4.23096
3.33073
3.33525
3.33861
3.34215
3.34596
3.34992
3.35405
3.35837
3.36289
3.36762
3.37257
3.37776
3.38321
3.38892
3.39493
3.40125
3.4079
3.41491
3.42231
3.43013
3.4384
3.44716
3.45645
3.46632
3.47684
3.48806
3.50007
3.51298
3.5269
3.542
3.55977
3.58026
3.60183
3.62449
3.64826
3.67321
3.69941
3.72701
3.75625
3.78737
3.8206
3.85609
3.89388
3.93388
3.97597
4.02004
4.06604
4.11401
4.16371
4.21349
3.32949
3.33397
3.33726
3.34072
3.34446
3.34834
3.35238
3.35662
3.36104
3.36568
3.37053
3.37562
3.38096
3.38656
3.39245
3.39864
3.40517
3.41204
3.4193
3.42697
3.43508
3.44367
3.45279
3.46248
3.47279
3.48381
3.49561
3.50829
3.52197
3.5368
3.55428
3.57443
3.59566
3.61797
3.6414
3.666
3.69185
3.71907
3.74789
3.77852
3.81121
3.84612
3.88327
3.92261
3.964
4.00727
4.05229
4.09888
4.14633
4.19186
3.32827
3.33269
3.33591
3.33929
3.34294
3.34674
3.35069
3.35483
3.35917
3.3637
3.36845
3.37342
3.37865
3.38413
3.38989
3.39595
3.40233
3.40906
3.41617
3.42367
3.43161
3.44003
3.44896
3.45845
3.46856
3.47936
3.49092
3.50335
3.51676
3.53131
3.54845
3.56823
3.58908
3.61101
3.63405
3.65824
3.68366
3.71043
3.73873
3.76878
3.80082
3.835
3.87137
3.90988
3.95037
3.99262
4.03639
4.08126
4.12596
4.16655
3.32705
3.33142
3.33455
3.33785
3.34141
3.34512
3.34898
3.35302
3.35725
3.36168
3.36631
3.37117
3.37627
3.38162
3.38725
3.39317
3.39941
3.40598
3.41292
3.42025
3.42802
3.43624
3.44497
3.45425
3.46413
3.47469
3.48601
3.49817
3.51129
3.52553
3.54231
3.56168
3.58211
3.6036
3.6262
3.64993
3.67487
3.7011
3.72881
3.7582
3.78948
3.82283
3.85829
3.89582
3.93524
3.97628
4.01858
4.06144
4.10302
4.13822
3.32583
3.33013
3.33318
3.33639
3.33986
3.34347
3.34723
3.35117
3.35529
3.35961
3.36412
3.36886
3.37383
3.37905
3.38453
3.3903
3.39638
3.40279
3.40956
3.41671
3.42428
3.4323
3.44082
3.44987
3.45952
3.46982
3.48087
3.49274
3.50555
3.51946
3.53585
3.55477
3.57475
3.59577
3.61787
3.6411
3.66548
3.69113
3.71818
3.74683
3.77728
3.80969
3.84414
3.88056
3.91878
3.95845
3.99909
4.03973
4.07794
4.10759
3.32461
3.32883
3.33179
3.33491
3.33829
3.3418
3.34546
3.34929
3.35329
3.35749
3.36188
3.36649
3.37132
3.3764
3.38173
3.38735
3.39326
3.3995
3.40608