/*--------------------------------*- C++ -*----------------------------------*\
  =========                 |
  \\      /  F ield         | OpenFOAM: The Open Source CFD Toolbox
   \\    /   O peration     | Website:  https://openfoam.org
    \\  /    A nd           | Version:  9
     \\/     M anipulation  |
\*---------------------------------------------------------------------------*/
FoamFile
{
    format      ascii;
    class       volScalarField;
    location    "0.18";
    object      p_rgh;
}
// * * * * * * * * * * * * * * * * * * * * * * * * * * * * * * * * * * * * * //

dimensions      [1 -1 -2 0 0 0 0];

internalField   nonuniform List<scalar> 
5000
(
-0.0312579
-0.0299185
-0.0287288
-0.0275043
-0.0262197
-0.0248909
-0.0235189
-0.0221015
-0.0206376
-0.0191259
-0.0175652
-0.0159538
-0.0142894
-0.0125683
-0.0107853
-0.00893405
-0.00700664
-0.00499342
-0.00288216
-0.000658245
0.00169406
0.00418998
0.00684335
0.00966607
0.0126671
0.0158459
0.0191732
0.0225849
0.0259888
0.029035
0.0316586
0.0331575
0.0324605
0.0292478
0.0229617
0.0127961
-0.0022223
-0.0230248
-0.0503144
-0.0845093
-0.125423
-0.171437
-0.218809
-0.261823
-0.293977
-0.310263
-0.311318
-0.306029
-0.308377
-0.328995
-0.0310993
-0.0297778
-0.0286119
-0.0274133
-0.0261573
-0.0248595
-0.0235205
-0.0221379
-0.0207106
-0.0192374
-0.017717
-0.0161479
-0.0145274
-0.0128518
-0.0111164
-0.00931558
-0.00744222
-0.0054872
-0.00343887
-0.00128347
0.000993622
0.00340671
0.00596915
0.00869259
0.0115851
0.0146441
0.0178361
0.0210929
0.0243222
0.0271574
0.0295274
0.0306835
0.0295261
0.0258023
0.0190575
0.00862906
-0.00642244
-0.0272632
-0.0550917
-0.0908176
-0.134304
-0.183193
-0.232516
-0.275687
-0.306023
-0.319136
-0.316685
-0.308224
-0.307184
-0.324391
-0.0309183
-0.0296119
-0.0284659
-0.0272895
-0.0260583
-0.0247877
-0.0234778
-0.0221259
-0.0207309
-0.0192916
-0.0178065
-0.0162732
-0.0146889
-0.0130501
-0.0113529
-0.00959185
-0.00776011
-0.00584859
-0.00384638
-0.00174143
0.000478676
0.00282616
0.00531246
0.00794655
0.0107317
0.0136576
0.0166811
0.0197238
0.0226878
0.0251944
0.0271585
0.0278209
0.026132
0.0219418
0.0149065
0.00447555
-0.0102766
-0.0306888
-0.0582883
-0.0942625
-0.138371
-0.187612
-0.236258
-0.277516
-0.305135
-0.315416
-0.310743
-0.300935
-0.298834
-0.314258
-0.0307203
-0.0294279
-0.0282994
-0.0271422
-0.0259321
-0.0246841
-0.0233983
-0.0220719
-0.0207041
-0.0192934
-0.0178377
-0.0163345
-0.014781
-0.0131738
-0.0115091
-0.00978164
-0.00798427
-0.00610825
-0.00414374
-0.00208048
9.17834e-05
0.00238294
0.0048016
0.00735245
0.010032
0.0128209
0.0156653
0.0184766
0.0211507
0.0233057
0.0248475
0.0250268
0.0228787
0.0183515
0.0111911
0.00093081
-0.0133248
-0.0329796
-0.059691
-0.0946923
-0.137504
-0.184644
-0.230162
-0.267809
-0.292302
-0.300707
-0.295675
-0.286523
-0.284971
-0.29941
-0.0305091
-0.0292292
-0.0281156
-0.026974
-0.0257806
-0.0245507
-0.023284
-0.021978
-0.0206316
-0.0192434
-0.0178112
-0.0163324
-0.0148044
-0.0132238
-0.0115867
-0.00988747
-0.00811931
-0.00627403
-0.00434286
-0.00231691
-0.000187496
0.00205331
0.00441119
0.00688606
0.0094673
0.0121263
0.0147992
0.017388
0.0197828
0.0216057
0.0227593
0.0225219
0.0200344
0.0153303
0.0082205
-0.00170285
-0.0152839
-0.0338837
-0.0590986
-0.0920025
-0.131796
-0.174736
-0.215231
-0.248192
-0.269661
-0.277424
-0.273841
-0.266973
-0.266922
-0.28062
-0.0302877
-0.0290174
-0.0279146
-0.0267841
-0.0256032
-0.0243867
-0.0231344
-0.0218438
-0.0205136
-0.0191424
-0.017728
-0.0162682
-0.0147599
-0.0132
-0.0115841
-0.00990698
-0.00816194
-0.00634154
-0.00443793
-0.00244325
-0.000350084
0.00184772
0.00415283
0.00656032
0.00905267
0.0115928
0.0141081
0.0164925
0.018631
0.0201566
0.020972
0.020396
0.0176854
0.0129461
0.00603978
-0.00338786
-0.0160977
-0.0333138
-0.0564251
-0.0862166
-0.121589
-0.158833
-0.193197
-0.221154
-0.240164
-0.248522
-0.247804
-0.24432
-0.246327
-0.259475
-0.0300581
-0.0287932
-0.0276971
-0.0265733
-0.0254002
-0.0241926
-0.02295
-0.0216697
-0.0203507
-0.0189913
-0.0175896
-0.0161429
-0.0146484
-0.0131025
-0.0115012
-0.00983913
-0.00811016
-0.00630741
-0.00442374
-0.00245219
-0.000386533
0.00177743
0.00403915
0.00638897
0.008803
0.0112368
0.013611
0.0158138
0.0177273
0.0190008
0.0195416
0.0187164
0.0158947
0.0112387
0.00465565
-0.00414499
-0.0157999
-0.0313188
-0.0517884
-0.0776554
-0.107626
-0.138341
-0.166238
-0.189509
-0.206924
-0.216967
-0.220069
-0.220531
-0.224728
-0.237302
-0.0298214
-0.0285575
-0.0274639
-0.0263425
-0.0251727
-0.0239691
-0.0227311
-0.0214562
-0.0201431
-0.0187902
-0.0173953
-0.0159557
-0.0144685
-0.0129301
-0.0113364
-0.00968235
-0.00796209
-0.00616915
-0.00429699
-0.0023394
-0.000291367
0.00184927
0.0040788
0.00638307
0.00873258
0.0110767
0.0133306
0.0153785
0.0171016
0.0181694
0.0184977
0.0175058
0.0146682
0.0101916
0.00402855
-0.00403366
-0.0144746
-0.0280398
-0.0454675
-0.0668811
-0.0909447
-0.114922
-0.136652
-0.155989
-0.172749
-0.185273
-0.192641
-0.197118
-0.203333
-0.215181
-0.0295779
-0.0283106
-0.0272158
-0.0260925
-0.0249214
-0.0237172
-0.022479
-0.0212042
-0.0198915
-0.0185392
-0.017145
-0.0157061
-0.0142195
-0.0126818
-0.0110888
-0.00943551
-0.00771635
-0.00592514
-0.00405571
-0.00210257
-6.18463e-05
0.00206669
0.00427637
0.00654908
0.00885054
0.0111249
0.0132829
0.0152061
0.0167758
0.0176834
0.0178562
0.0167675
0.0139882
0.00976241
0.00409065
-0.00315029
-0.012263
-0.0237066
-0.0378686
-0.0546107
-0.0727222
-0.0902912
-0.106614
-0.122979
-0.139917
-0.155349
-0.166958
-0.17513
-0.182988
-0.193907
-0.0293276
-0.0280529
-0.0269531
-0.0258241
-0.0246476
-0.0234382
-0.022195
-0.020915
-0.0195971
-0.0182393
-0.0168394
-0.0153946
-0.0139019
-0.0123577
-0.010758
-0.0090979
-0.00737177
-0.00557368
-0.00369782
-0.00173927
0.00030477
0.00243278
0.0046355
0.00689146
0.00916243
0.0113882
0.0134761
0.015306
0.0167598
0.017551
0.0176203
0.0164935
0.0138274
0.00989869
0.00475921
-0.00161714
-0.00934837
-0.0186102
-0.0294717
-0.0416254
-0.0541422
-0.0660449
-0.0779837
-0.092367
-0.110075
-0.128458
-0.143899
-0.155182
-0.164213
-0.174021
-0.0290714
-0.0277859
-0.0266778
-0.0255394
-0.0243533
-0.0231342
-0.0218808
-0.0205902
-0.0192612
-0.0178918
-0.0164798
-0.0150224
-0.0135164
-0.0119585
-0.0103444
-0.00866926
-0.00692763
-0.00511366
-0.00322182
-0.00124768
0.000810631
0.00295005
0.00515912
0.00741366
0.00967224
0.0118712
0.0139148
0.0156819
0.0170557
0.0177705
0.0177815
0.0166632
0.0141467
0.0105377
0.00594108
0.000429671
-0.00593481
-0.0130681
-0.0207785
-0.0286944
-0.0362889
-0.0435348
-0.0522152
-0.0654684
-0.0842289
-0.105245
-0.123819
-0.137483
-0.147221
-0.155819
-0.0288122
-0.0275137
-0.0263933
-0.0252415
-0.0240413
-0.0228075
-0.0215387
-0.0202319
-0.0188858
-0.0174985
-0.0160678
-0.0145908
-0.0130644
-0.011485
-0.00984843
-0.00814994
-0.00638405
-0.00454504
-0.00262754
-0.000627491
0.00145621
0.00361922
0.00584832
0.00811718
0.0103819
0.0125758
0.0146007
0.0163344
0.0176616
0.0183353
0.0183251
0.0172495
0.0149012
0.0116126
0.00753988
0.00285025
-0.00223108
-0.00739892
-0.0122724
-0.0165152
-0.0200742
-0.0237943
-0.0302924
-0.0430422
-0.062819
-0.0858525
-0.106676
-0.121941
-0.131981
-0.139382
-0.0285549
-0.0272422
-0.0261048
-0.0249347
-0.0237156
-0.0224618
-0.0211719
-0.0198429
-0.0184736
-0.0170619
-0.0156056
-0.0141017
-0.0125472
-0.0109383
-0.00927113
-0.00754073
-0.00574173
-0.00386843
-0.00191554
0.000120758
0.00224098
0.00443979
0.00670264
0.00900165
0.0112909
0.0135013
0.0155322
0.0172605
0.0185722
0.0192354
0.0192344
0.018224
0.0160469
0.0130586
0.00946253
0.00550949
0.00156311
-0.00189959
-0.00438422
-0.00567054
-0.0061949
-0.00751946
-0.0127548
-0.0253628
-0.0458339
-0.0700655
-0.0921739
-0.10829
-0.118307
-0.124618
-0.0283066
-0.0269783
-0.0258184
-0.0246245
-0.0233809
-0.0221014
-0.0207844
-0.019427
-0.0180277
-0.0165847
-0.0150954
-0.0135572
-0.0119666
-0.0103202
-0.00861391
-0.0068429
-0.0050018
-0.0030849
-0.00108685
0.000996052
0.00316391
0.00541066
0.00772088
0.0100656
0.0123975
0.0146451
0.0167056
0.018455
0.0197795
0.0204593
0.0204916
0.0195593
0.0175426
0.0148163
0.0116235
0.00828411
0.00526886
0.00317264
0.00253202
0.00339703
0.00488137
0.00491507
0.000241939
-0.0123156
-0.0329341
-0.0574338
-0.0798743
-0.0961812
-0.105942
-0.111357
-0.0280744
-0.0267286
-0.02554
-0.0243161
-0.0230422
-0.0217307
-0.02038
-0.0189873
-0.0175512
-0.0160696
-0.0145399
-0.0129595
-0.0113249
-0.00963262
-0.00787864
-0.00605822
-0.00416595
-0.00219601
-0.000142932
0.00199695
0.0042235
0.00653023
0.00890123
0.011307
0.0136989
0.0160037
0.0181164
0.0199115
0.0212751
0.0219948
0.0220795
0.0212302
0.019352
0.0168335
0.0139485
0.011068
0.00873589
0.00761107
0.00821143
0.0103935
0.0129104
0.0134285
0.00885928
-0.00349634
-0.0235676
-0.047381
-0.0692857
-0.0852507
-0.0946305
-0.0993999
-0.0278641
-0.0264977
-0.0252741
-0.0240138
-0.0227031
-0.0213531
-0.019962
-0.0185272
-0.017047
-0.0155193
-0.0139416
-0.0123111
-0.0106243
-0.00887776
-0.00706747
-0.00518875
-0.00323612
-0.00120361
0.000914412
0.00312166
0.0054179
0.00779647
0.0102414
0.0127229
0.0151917
0.0175727
0.0197591
0.0216236
0.0230504
0.0238308
0.023983
0.0232158
0.0214456
0.0190686
0.0163778
0.0137764
0.0118473
0.0112646
0.0124816
0.0151698
0.0178516
0.0181828
0.013505
0.00169673
-0.0170592
-0.0392802
-0.0599084
-0.075143
-0.0841309
-0.0885534
-0.0276795
-0.026288
-0.0250231
-0.0237202
-0.0223664
-0.0209712
-0.019533
-0.018049
-0.0165175
-0.0149364
-0.013303
-0.0116144
-0.00986724
-0.00805798
-0.00618268
-0.00423667
-0.00221439
-0.000109696
0.00208324
0.00436822
0.00674501
0.00920708
0.0117387
0.0143103
0.0168721
0.0193478
0.0216284
0.0235847
0.0250975
0.0259577
0.0261902
0.0254999
0.0238016
0.0214912
0.0188683
0.016349
0.0145234
0.0140402
0.0152616
0.0177135
0.0198455
0.0195458
0.014774
0.00399438
-0.0126754
-0.0325041
-0.0512659
-0.0655221
-0.0742102
-0.0786238
-0.027522
-0.0260999
-0.0247881
-0.0234366
-0.0220336
-0.0205869
-0.0190949
-0.0175549
-0.015965
-0.0143231
-0.0126264
-0.0108718
-0.00905608
-0.00717562
-0.00522655
-0.0032042
-0.00110292
0.00108365
0.00336147
0.00573449
0.00820259
0.0107596
0.0133904
0.0160659
0.0187363
0.0213241
0.023719
0.0257888
0.0274099
0.028368
0.0286923
0.0280716
0.0264061
0.0240827
0.0213949
0.0187518
0.0167232
0.0159034
0.0165588
0.0181376
0.0191901
0.0180491
0.0133962
0.00420343
-0.00967329
-0.0264638
-0.0429333
-0.0560852
-0.0646398
-0.0694091
-0.0273918
-0.0259335
-0.0245695
-0.023164
-0.0217059
-0.0202016
-0.0186495
-0.0170467
-0.0153915
-0.0136815
-0.0119139
-0.0100855
-0.00819305
-0.00623293
-0.00420133
-0.00209358
9.60927e-05
0.0023742
0.00474688
0.00721816
0.00978818
0.0124514
0.0151935
0.0179863
0.0207802
0.0234973
0.0260258
0.0282306
0.0299818
0.0310565
0.0314843
0.0309256
0.0292534
0.0268364
0.0239494
0.0209764
0.0184444
0.0168777
0.016465
0.0166697
0.0163182
0.0143524
0.010193
0.00316796
-0.0073282
-0.0206251
-0.034549
-0.0465744
-0.0552017
-0.0606983
-0.0272894
-0.0257892
-0.0243681
-0.0229034
-0.0213845
-0.0198167
-0.0181981
-0.0165261
-0.0147988
-0.0130136
-0.0111676
-0.00925769
-0.00728036
-0.00523219
-0.00310936
-0.00090717
0.00138024
0.00375954
0.00623698
0.0088167
0.0114992
0.0142797
0.0171451
0.0200682
0.023
0.025863
0.0285441
0.0309051
0.0328087
0.0340196
0.0345646
0.0340624
0.0323461
0.0297575
0.026541
0.0230397
0.0197231
0.0170438
0.0151539
0.0136441
0.0117787
0.00921425
0.0060437
0.00174247
-0.00494303
-0.014507
-0.0258142
-0.0367865
-0.0457074
-0.0522855
-0.0272153
-0.025668
-0.0241848
-0.0226555
-0.0210704
-0.0194332
-0.0177422
-0.0159946
-0.0141885
-0.0123211
-0.0103895
-0.00839037
-0.00632027
-0.00417577
-0.0019531
0.000352463
0.0027469
0.005237
0.00782905
0.0105274
0.0133328
0.0162416
0.019242
0.0223082
0.0253922
0.0284171
0.0312696
0.033808
0.0358866
0.0372549
0.037934
0.0374872
0.0356948
0.0328632
0.0291959
0.0249841
0.0206335
0.0165399
0.0128811
0.00949531
0.00621965
0.00346349
0.00185086
0.000763406
-0.00186081
-0.00767498
-0.0164814
-0.0265711
-0.036011
-0.0439834
-0.0271702
-0.0255705
-0.0240202
-0.0224213
-0.0207645
-0.0190524
-0.017283
-0.0154536
-0.0135622
-0.0116059
-0.00958154
-0.00748577
-0.00531513
-0.00306622
-0.000735266
0.0016825
0.00419315
0.00680356
0.00952005
0.012347
0.015286
0.0183341
0.0214812
0.024703
0.0279532
0.031156
0.0341984
0.0369353
0.0392121
0.040761
0.0415947
0.0412086
0.039317
0.0361816
0.0319566
0.0268763
0.0212877
0.0155623
0.00998192
0.00475063
0.000369547
-0.00203232
-0.00149764
0.00101566
0.0025172
0.000261413
-0.00633334
-0.0158076
-0.026001
-0.035629
-0.0271544
-0.0254967
-0.0238746
-0.0222012
-0.0204675
-0.0186749
-0.0168215
-0.0149045
-0.0129215
-0.0108697
-0.00874576
-0.00654619
-0.0042675
-0.00190629
0.000541202
0.00307982
0.00571575
0.00845588
0.0113066
0.0142724
0.0173553
0.0205539
0.0238593
0.0272493
0.0306793
0.0340761
0.0373268
0.0402835
0.0427825
0.044537
0.0455497
0.0452372
0.0432346
0.0397498
0.0348809
0.0288071
0.021836
0.0143654
0.00686969
1.93972e-05
-0.00498591
-0.00640005
-0.00316516
0.0031994
0.00870941
0.00964396
0.00483053
-0.00437928
-0.0155778
-0.0270781
-0.0271669
-0.0254456
-0.0237474
-0.0219951
-0.0201797
-0.0183015
-0.0163587
-0.0143483
-0.0122679
-0.0101144
-0.00788433
-0.00557407
-0.00318009
-0.000698976
0.00187308
0.00454102
0.0073111
0.0101903
0.0131849
0.0162996
0.0195372
0.0228972
0.0263727
0.0299432
0.0335669
0.0371732
0.0406509
0.043849
0.0465951
0.0485825
0.0498028
0.049585
0.0474733
0.0436123
0.0380403
0.0308914
0.0224683
0.0132619
0.00402959
-0.0040241
-0.00903002
-0.00879661
-0.00240112
0.00789891
0.017128
0.0207478
0.0171904
0.00783795
-0.00463317
-0.0181914
-0.0272065
-0.0254162
-0.023638
-0.0218027
-0.0199011
-0.0179327
-0.0158955
-0.0137865
-0.0116031
-0.00934197
-0.00699952
-0.00457199
-0.0020558
0.00055254
0.00325692
0.00606238
0.00897529
0.0120026
0.0151507
0.0184244
0.0218272
0.0253599
0.0290172
0.0327807
0.0366117
0.0404431
0.044166
0.0476277
0.0506467
0.0528966
0.0543577
0.0542646
0.0520605
0.0478194
0.041519
0.0332679
0.0234133
0.0126186
0.00200463
-0.00666943
-0.010963
-0.00845081
0.00142342
0.0155561
0.0280567
0.0337593
0.0308876
0.0209676
0.00695717
-0.00882044
-0.0272722
-0.0254079
-0.0235462
-0.0216242
-0.0196322
-0.017569
-0.0154328
-0.0132203
-0.0109286
-0.00855435
-0.00609368
-0.0035427
-0.000897713
0.00184483
0.00468895
0.00763984
0.010704
0.0138883
0.0171993
0.0206419
0.0242205
0.027937
0.0317879
0.035757
0.0398089
0.0438808
0.0478668
0.0516139
0.0549328
0.0574771
0.059217
0.0592878
0.0570247
0.052425
0.0454114
0.0360964
0.0249351
0.0128461
0.00137053
-0.00721056
-0.0100444
-0.00471168
0.00878186
0.0264541
0.0416415
0.0487652
0.0460079
0.0351156
0.0193233
0.00119271
-0.0273636
-0.0254207
-0.023472
-0.0214597
-0.0193734
-0.0172114
-0.0149717
-0.012651
-0.0102462
-0.00775364
-0.00516927
-0.00248904
0.000290893
0.00317422
0.00616513
0.00926899
0.0124924
0.0158424
0.0193253
0.0229467
0.0267115
0.030623
0.0346792
0.0388664
0.0431529
0.0474803
0.0517471
0.0558011
0.0594468
0.0623195
0.0643807
0.0646646
0.0623929
0.0574846
0.0498199
0.0395551
0.0273252
0.0143794
0.0026992
-0.00500072
-0.00565905
0.0028988
0.0199628
0.0407083
0.057896
0.0657567
0.0625759
0.0503566
0.0325841
0.0120036
-0.0274806
-0.0254548
-0.0234157
-0.0213096
-0.0191251
-0.0168603
-0.0145131
-0.01208
-0.00955756
-0.0069419
-0.0042288
-0.00141399
0.00150659
0.00453681
0.00768108
0.010945
0.0143353
0.0178591
0.0215229
0.0253325
0.0292937
0.0334111
0.0376844
0.0421023
0.046637
0.0512349
0.0557995
0.060181
0.06418
0.0674161
0.0698452
0.0704007
0.0681888
0.0630531
0.0548512
0.0438339
0.0308892
0.0176498
0.00651202
0.000486114
0.00262053
0.0146397
0.0350415
0.0582625
0.0767141
0.0846465
0.0805648
0.066732
0.0468368
0.0237544
-0.0276228
-0.0255094
-0.0233767
-0.0211735
-0.0188874
-0.0165162
-0.0140577
-0.0115082
-0.00886409
-0.0061211
-0.00327477
-0.000320564
0.0027458
0.00592847
0.00923212
0.0126626
0.016227
0.0199323
0.0237854
0.0277923
0.0319598
0.0362936
0.0407953
0.0454563
0.0502528
0.0551363
0.0600153
0.0647442
0.0691219
0.0727564
0.0756026
0.076497
0.074431
0.0691813
0.0606122
0.0491256
0.0359262
0.0230487
0.0132275
0.009597
0.0149852
0.0305101
0.0538602
0.0788889
0.0978798
0.105285
0.0999108
0.0842587
0.0621601
0.036571
-0.0277883
-0.0255824
-0.0233534
-0.0210502
-0.0186594
-0.0161786
-0.0136056
-0.0109364
-0.00816708
-0.00529307
-0.0023096
0.000788176
0.00400484
0.00734486
0.0108132
0.0144162
0.0181611
0.0220551
0.0261053
0.0303182
0.0347014
0.0392619
0.0440029
0.0489189
0.0539903
0.0591738
0.0643836
0.0694792
0.0742597
0.0783267
0.0816406
0.0829479
0.0811306
0.0759127
0.0672022
0.0556107
0.0427022
0.030885
0.0231094
0.0224508
0.0313513
0.0502284
0.0760283
0.102193
0.121075
0.127469
0.120523
0.102938
0.0786217
0.0505665
-0.0279739
-0.0256701
-0.0233428
-0.0209375
-0.0184395
-0.0158466
-0.0131566
-0.010365
-0.00746755
-0.00445949
-0.00133566
0.00190917
0.00527993
0.00878147
0.0124192
0.0161998
0.0201308
0.02422
0.0284744
0.0329013
0.0375091
0.042306
0.0472967
0.0524789
0.0578376
0.063335
0.0688913
0.0743719
0.0795778
0.08411
0.0879418
0.0897404
0.0882888
0.0832785
0.0747045
0.0634399
0.0514183
0.0413438
0.0362255
0.0389155
0.05135
0.0732506
0.100941
0.127626
0.145885
0.15094
0.14228
0.122753
0.0962786
0.0658532
-0.0281749
-0.0257678
-0.0233411
-0.0208325
-0.0182255
-0.0155188
-0.0127098
-0.00979382
-0.00676623
-0.00362189
-0.00035523
0.00303935
0.00656722
0.0102336
0.0140445
0.018007
0.0221291
0.0264188
0.0308837
0.0355319
0.0403725
0.0454147
0.050665
0.056124
0.0617813
0.0676052
0.0735226
0.0794053
0.0850577
0.0900857
0.0944839
0.0968542
0.0958962
0.0912943
0.0831766
0.0727142
0.0621808
0.0544522
0.0524271
0.0586008
0.0743602
0.0988156
0.127822
0.154513
0.171807
0.175377
0.165014
0.143649
0.115166
0.0825336
-0.0283856
-0.0258706
-0.0233441
-0.0207317
-0.0180148
-0.0151933
-0.0122644
-0.00922281
-0.00606376
-0.00278166
0.000629458
0.00417566
0.00786277
0.0116966
0.0156835
0.0198312
0.0241482
0.0286429
0.0333237
0.0381993
0.0432798
0.0485755
0.0540945
0.05984
0.0658063
0.071968
0.0782594
0.0845598
0.0906778
0.0962297
0.10124
0.104262
0.103932
0.0999569
0.0926411
0.083468
0.074979
0.0700636
0.0713526
0.0808939
0.0995702
0.126015
0.155789
0.182105
0.198271
0.200391
0.188491
0.16552
0.135278
0.100681
-0.0286004
-0.0259734
-0.0233478
-0.0206319
-0.017805
-0.0148684
-0.0118192
-0.00865174
-0.00536072
-0.00194023
0.00161616
0.00531498
0.00916259
0.0131653
0.0173302
0.0216654
0.0261801
0.0308833
0.035784
0.0408919
0.0462182
0.0517744
0.0575701
0.0636111
0.0698958
0.0764051
0.0830816
0.0898132
0.0964133
0.102514
0.108178
0.111928
0.112363
0.109241
0.103079
0.0956567
0.0896739
0.0878639
0.092455
0.105025
0.126059
0.15388
0.183938
0.209631
0.224673
0.225539
0.212409
0.188182
0.156533
0.120334
-0.0288138
-0.0260722
-0.0233483
-0.02053
-0.0175936
-0.0145425
-0.0113736
-0.0080805
-0.00465778
-0.00109906
0.00260255
0.00645413
0.0104626
0.0146348
0.0189785
0.0235026
0.0282167
0.0331307
0.0382542
0.043598
0.0491745
0.0549965
0.0610753
0.0674194
0.0740307
0.080896
0.0879669
0.0951406
0.102237
0.108909
0.115263
0.119813
0.121145
0.1191
0.114424
0.109152
0.106003
0.107395
0.115056
0.130147
0.15289
0.181481
0.211421
0.23637
0.250423
0.250349
0.236407
0.21139
0.178803
0.141449
-0.0290212
-0.0261631
-0.0233427
-0.0204234
-0.0173787
-0.0142143
-0.0109267
-0.00750912
-0.00395572
-0.000259718
0.00358628
0.0075899
0.0117586
0.0161
0.0206223
0.0253353
0.0302494
0.0353753
0.0407233
0.0463052
0.0521346
0.058226
0.0645927
0.0712456
0.0781901
0.0854182
0.0928905
0.100515
0.108118
0.115379
0.122455
0.12787
0.130222
0.12946
0.126564
0.123747
0.123603
0.128096
0.138421
0.155414
0.179195
0.208006
0.237522
0.261706
0.274991
0.274367
0.260102
0.234849
0.201883
0.163944
-0.0292185
-0.0262432
-0.0233281
-0.0203099
-0.0171586
-0.0138826
-0.0104781
-0.00693779
-0.00325542
0.000576194
0.00456496
0.00871906
0.0130466
0.0175557
0.0222554
0.0271563
0.0322697
0.0376071
0.0431799
0.0490008
0.0550845
0.0614471
0.0681042
0.0750695
0.0823516
0.0899473
0.0978261
0.105907
0.114024
0.121887
0.12971
0.136046
0.139529
0.140229
0.139343
0.13917
0.142039
0.149361
0.161825
0.180063
0.204252
0.232823
0.261707
0.285178
0.297961
0.297205
0.283142
0.258276
0.22554
0.187702
-0.0294023
-0.02631
-0.0233025
-0.0201876
-0.016932
-0.0135466
-0.0100275
-0.00636676
-0.00255779
0.00140705
0.00553619
0.0098384
0.0143223
0.0189969
0.0238718
0.0289584
0.034269
0.0398162
0.0456126
0.0516717
0.0580095
0.0646434
0.0715914
0.0788702
0.086492
0.0944578
0.102746
0.111285
0.119921
0.128396
0.136985
0.144288
0.148992
0.151296
0.152575
0.155109
0.160847
0.170596
0.184616
0.203467
0.227526
0.255509
0.283644
0.306507
0.319069
0.318596
0.305255
0.281338
0.249689
0.212612
-0.0295695
-0.0263607
-0.0232636
-0.0200548
-0.0166974
-0.0132054
-0.00957457
-0.00579633
-0.00186374
0.00223126
0.00649766
0.0109448
0.015582
0.0204187
0.0254654
0.0307345
0.0362391
0.041993
0.0480099
0.0543049
0.0608947
0.0677983
0.0750357
0.0826269
0.0905875
0.0989232
0.10762
0.116619
0.125773
0.134865
0.144232
0.152538
0.158535
0.16254
0.166054
0.17124
0.179576
0.191274
0.206267
0.225179
0.248688
0.275853
0.303206
0.325598
0.338215
0.338425
0.326329
0.304018
0.274108
0.238569
-0.029717
-0.0263929
-0.0232092
-0.0199095
-0.0164534
-0.0128581
-0.00911892
-0.00522667
-0.00117407
0.00304738
0.0074472
0.0120353
0.0168216
0.0218163
0.0270307
0.0324778
0.038172
0.044128
0.050361
0.0568874
0.0637254
0.070895
0.0784184
0.0863184
0.0946144
0.103317
0.112419
0.121874
0.131546
0.141254
0.151404
0.16074
0.168077
0.173834
0.179574
0.187253
0.197828
0.210971
0.226404
0.244934
0.267605
0.293835
0.320442
0.342521
0.355462
0.356737
0.34639
0.326308
0.29879
0.265539
-0.0298416
-0.0264036
-0.0231367
-0.0197498
-0.0161986
-0.0125037
-0.00866002
-0.00465781
-0.000489399
0.00385414
0.00838284
0.0131072
0.0180376
0.0231852
0.0285621
0.034182
0.0400602
0.0462126
0.0526558
0.0594075
0.0664875
0.0739174
0.0817211
0.089924
0.0985493
0.107612
0.117114
0.127018
0.137201
0.147522
0.158456
0.168836
0.177537
0.185052
0.192938
0.202873
0.215282
0.229384
0.244812
0.262641
0.284313
0.309586
0.335531
0.35747
0.371
0.373709
0.365589
0.348294
0.323836
0.293538
-0.0299398
-0.0263896
-0.0230436
-0.0195734
-0.0159311
-0.0121408
-0.00819716
-0.0040896
0.000189835
0.00465048
0.00930283
0.0141579
0.0192268
0.0245214
0.0300544
0.0358407
0.0418964
0.0482384
0.0548845
0.0618539
0.069168
0.0768503
0.0849264
0.093424
0.10237
0.111784
0.121675
0.132019
0.142703
0.153627
0.165338
0.176767
0.186834
0.196072
0.20597
0.217875
0.231709
0.246341
0.261424
0.278355
0.298971
0.323333
0.348736
0.370717
0.385101
0.389605
0.384166
0.370185
0.349335
0.32259
-0.0300078
-0.0263475
-0.0229268
-0.0193779
-0.0156491
-0.0117682
-0.00772953
-0.00352178
0.000863324
0.0054355
0.0102057
0.0151853
0.0203862
0.0258209
0.031503
0.0374482
0.0436738
0.0501974
0.057038
0.0642161
0.0717549
0.0796797
0.0880181
0.0967999
0.106055
0.115808
0.126076
0.136845
0.148018
0.15953
0.172006
0.184477
0.19589
0.206784
0.218522
0.232093
0.246974
0.261788
0.276296
0.29224
0.31182
0.335357
0.360349
0.38256
0.398064
0.404715
0.402374
0.392162
0.375382
0.352684
-0.0300419
-0.0262742
-0.0227837
-0.019161
-0.0153506
-0.0113845
-0.00725627
-0.00295403
0.00153085
0.00620839
0.0110899
0.0161874
0.0215132
0.0270804
0.0329036
0.0389995
0.0453861
0.0520822
0.0591077
0.0664844
0.074237
0.0823927
0.0909813
0.100035
0.109585
0.119662
0.130291
0.141468
0.153112
0.165193
0.178415
0.19191
0.204632
0.217087
0.230474
0.24542
0.261025
0.275768
0.289578
0.304532
0.323143
0.345954
0.370661
0.393283
0.410165
0.41929
0.420411
0.414337
0.401994
0.383731
-0.0300384
-0.0261663
-0.0226114
-0.0189204
-0.015034
-0.0109883
-0.00677657
-0.00238603
0.0021922
0.00696843
0.0119543
0.0171623
0.0226052
0.0282968
0.0342526
0.04049
0.047028
0.0538864
0.061086
0.0686498
0.0766041
0.0849778
0.0938026
0.103113
0.112943
0.123328
0.134299
0.145864
0.157958
0.170583
0.184524
0.199014
0.212989
0.226897
0.241739
0.257796
0.273876
0.288396
0.301479
0.315501
0.333233
0.355409
0.37994
0.403136
0.421625
0.433501
0.438371
0.43671
0.42907
0.415533
-0.0299937
-0.0260209
-0.0224075
-0.0186541
-0.0146976
-0.0105787
-0.00628986
-0.00181764
0.00284707
0.00771482
0.0127976
0.0181081
0.0236599
0.0294674
0.0355467
0.0419159
0.0485949
0.0556043
0.0629662
0.0707048
0.0788474
0.0874247
0.0964705
0.106021
0.116114
0.126787
0.138079
0.150009
0.162529
0.17567
0.190297
0.205742
0.2209
0.236141
0.252252
0.269207
0.285593
0.299832
0.31224
0.325434
0.342381
0.363994
0.38843
0.412328
0.432603
0.447428
0.456238
0.45916
0.45639
0.447788
-0.0299049
-0.0258364
-0.0221705
-0.0183609
-0.0143408
-0.0101552
-0.00579598
-0.00124904
0.00349494
0.00844667
0.0136184
0.0190232
0.0246751
0.0305894
0.0367826
0.0432736
0.0500827
0.0572315
0.0647431
0.072643
0.0809596
0.0897251
0.0989751
0.108748
0.119084
0.130025
0.141615
0.153885
0.166803
0.180426
0.1957
0.212049
0.22831
0.244761
0.261976
0.279665
0.296268
0.310257
0.32211
0.334613
0.350872
0.371975
0.396366
0.421046
0.443209
0.461085
0.473913
0.48148
0.483658
0.480121
-0.029771
-0.0256126
-0.0219005
-0.0180411
-0.0139638
-0.00971806
-0.00529543
-0.000680887
0.00413494
0.00916289
0.0144153
0.0199058
0.0256488
0.0316603
0.0379575
0.0445597
0.0514877
0.0587638
0.0664121
0.0744592
0.0829349
0.0918724
0.101309
0.111285
0.121843
0.133029
0.144893
0.157475
0.170761
0.184829
0.200706
0.217898
0.235172
0.252712
0.270889
0.2892
0.306006
0.319849
0.331327
0.343309
0.358985
0.379624
0.403993
0.42948
0.45355
0.474467
0.491274
0.503441
0.510553
0.512149
-0.0295932
-0.0253517
-0.0215992
-0.0176959
-0.0135677
-0.00926856
-0.00478931
-0.000114321
0.00476586
0.00986215
0.015187
0.0207544
0.0265792
0.0326781
0.0390689
0.0457714
0.0528068
0.0601978
0.0679694
0.0761494
0.0847687
0.0938615
0.103466
0.113625
0.124384
0.135791
0.147903
0.160767
0.174389
0.188863
0.205292
0.22326
0.241453
0.259964
0.278984
0.297852
0.314908
0.328772
0.340104
0.351772
0.366995
0.387225
0.411582
0.437853
0.463762
0.487605
0.508239
0.524857
0.536802
0.543514
-0.0293743
-0.0250569
-0.0212692
-0.0173276
-0.0131545
-0.00880822
-0.00427904
0.000449277
0.0053863
0.010543
0.0159321
0.0215675
0.0274649
0.0336411
0.0401148
0.0469062
0.054037
0.0615304
0.0694118
0.0777101
0.0864573
0.0956885
0.105443
0.115765
0.126702
0.138306
0.150639
0.163756
0.177678
0.192515
0.209444
0.228112
0.247128
0.266498
0.286264
0.305665
0.323062
0.337158
0.348617
0.360223
0.375165
0.395072
0.419432
0.446429
0.474043
0.500602
0.524813
0.545636
0.562225
0.573962
-0.0291174
-0.0247307
-0.0209128
-0.0169378
-0.0127257
-0.00833839
-0.00376589
0.00100865
0.00599493
0.0112041
0.0166489
0.0223438
0.0283044
0.0345481
0.041094
0.0479628
0.0551766
0.0627593
0.0707368
0.0791388
0.0879982
0.0973507
0.107236
0.1177
0.128793
0.140571
0.153097
0.166436
0.180624
0.195781
0.213152
0.232445
0.252185
0.27231
0.292746
0.312679
0.330536
0.345104
0.356997
0.368835
0.383726
0.40345
0.427851
0.455505
0.484642
0.513639
0.541097
0.565799
0.586764
0.60336
-0.0288239
-0.0243734
-0.0205304
-0.0165274
-0.0122818
-0.00785972
-0.00325057
0.00156299
0.00659079
0.0118442
0.0173364
0.0230818
0.0290965
0.0353979
0.0420054
0.0489399
0.0562244
0.0638832
0.071943
0.0804338
0.0893894
0.0988462
0.108845
0.119431
0.130658
0.142584
0.155277
0.168807
0.183226
0.198661
0.216418
0.236256
0.256624
0.277408
0.298452
0.318932
0.337379
0.352664
0.365313
0.37772
0.39285
0.41259
0.437114
0.465368
0.495828
0.526947
0.557269
0.585466
0.610474
0.631691
-0.0284931
-0.0239836
-0.0201212
-0.0160957
-0.0118227
-0.00737219
-0.00273322
0.00211199
0.0071734
0.0124627
0.0179934
0.0237804
0.0298399
0.0361894
0.042848
0.049837
0.0571799
0.0649017
0.0730297
0.0815945
0.0906303
0.100174
0.110267
0.120957
0.132297
0.144348
0.157181
0.170873
0.185487
0.201157
0.219245
0.239551
0.260458
0.281814
0.30341
0.324457
0.343615
0.359848
0.373569
0.386904
0.402614
0.422632
0.447414
0.476241
0.507836
0.540755
0.573538
0.60481
0.633486
0.659035
-0.0281226
-0.0235588
-0.0196832
-0.0156417
-0.0113477
-0.00687551
-0.00221383
0.00265548
0.00774248
0.0130592
0.0186195
0.0244388
0.0305336
0.0369212
0.0436206
0.0506531
0.0580424
0.0658144
0.073997
0.0826211
0.0917213
0.101335
0.111505
0.122278
0.13371
0.145863
0.158812
0.172637
0.187414
0.203279
0.221643
0.242345
0.263705
0.285553
0.307655
0.329282
0.34925
0.366625
0.381706
0.396324
0.412979
0.433585
0.45881
0.488231
0.520805
0.555222
0.590075
0.624003
0.655955
0.685516
-0.0277103
-0.0230978
-0.0192158
-0.0151649
-0.0108568
-0.00636991
-0.00169279
0.00319302
0.00829763
0.0136333
0.0192143
0.0250565
0.0311767
0.0375923
0.0443222
0.0513873
0.0588115
0.0666213
0.0748451
0.0835141
0.0926632
0.102331
0.112559
0.123396
0.1349
0.147134
0.160174
0.174105
0.189012
0.205035
0.223626
0.244654
0.266391
0.288659
0.311222
0.333432
0.354276
0.372933
0.389606
0.405822
0.423783
0.445308
0.471202
0.501282
0.534728
0.570391
0.606963
0.643158
0.678008
0.711258
-0.0272559
-0.0226013
-0.0187195
-0.0146661
-0.0103508
-0.0058565
-0.00117132
0.00372346
0.00883789
0.0141843
0.0197772
0.025633
0.0317687
0.038202
0.0449517
0.0520385
0.0594864
0.067322
0.0755742
0.0842743
0.0934572
0.103162
0.113431
0.124315
0.13587
0.148163
0.161272
0.175283
0.190291
0.206437
0.225209
0.246501
0.268546
0.291169
0.314148
0.336931
0.358677
0.378694
0.397113
0.415172
0.434752
0.457515
0.484319
0.515163
0.549432
0.586152
0.624158
0.662283
0.699695
0.736331
-0.0267617
-0.0220723
-0.0181968
-0.0141473
-0.00983178
-0.00533728
-0.00065138
0.00424495
0.00936166
0.014711
0.0203076
0.0261679
0.0323093
0.03875
0.0455087
0.0526063
0.0600665
0.0679161
0.0761841
0.0849018
0.0941042
0.10383
0.114124
0.125037
0.136625
0.148957
0.162111
0.176178
0.191259
0.207496
0.226407
0.247906
0.270197
0.293119
0.31647
0.339798
0.362434
0.383823
0.404053
0.424107
0.445541
0.469811
0.497755
0.529492
0.564585
0.602243
0.641471
0.681262
0.720954
0.760719
-0.0262312
-0.0215149
-0.0176511
-0.0136115
-0.00930249
-0.00481476
-0.000135304
0.00475528
0.00986688
0.0152116
0.0208039
0.0266602
0.0327981
0.0392359
0.045993
0.0530902
0.0605515
0.0684034
0.0766748
0.085397
0.0946049
0.104338
0.114641
0.125565
0.137168
0.149519
0.162697
0.176797
0.191925
0.208223
0.227235
0.248891
0.271374
0.294541
0.31822
0.342053