/*--------------------------------*- C++ -*----------------------------------*\
  =========                 |
  \\      /  F ield         | OpenFOAM: The Open Source CFD Toolbox
   \\    /   O peration     | Website:  https://openfoam.org
    \\  /    A nd           | Version:  9
     \\/     M anipulation  |
\*---------------------------------------------------------------------------*/
FoamFile
{
    format      ascii;
    class       surfaceScalarField;
    location    "0.18";
    object      phi;
}
// * * * * * * * * * * * * * * * * * * * * * * * * * * * * * * * * * * * * * //

dimensions      [0 3 -1 0 0 0 0];

internalField   nonuniform List<scalar> 
9850
(
3.32455e-06
3.31709e-06
3.32387e-06
3.4589e-06
3.32299e-06
3.61979e-06
3.32194e-06
3.79282e-06
3.32073e-06
3.97527e-06
3.31932e-06
4.16644e-06
3.31771e-06
4.36644e-06
3.31587e-06
4.57559e-06
3.31376e-06
4.79422e-06
3.31136e-06
5.02265e-06
3.30862e-06
5.26124e-06
3.30549e-06
5.51031e-06
3.3019e-06
5.77019e-06
3.29778e-06
6.04122e-06
3.29304e-06
6.32378e-06
3.28754e-06
6.61824e-06
3.28115e-06
6.92506e-06
3.27368e-06
7.24477e-06
3.2649e-06
7.578e-06
3.25457e-06
7.92554e-06
3.24238e-06
8.28828e-06
3.22797e-06
8.66726e-06
3.2109e-06
9.06361e-06
3.19062e-06
9.47857e-06
3.16639e-06
9.91376e-06
3.13725e-06
1.0372e-05
3.10224e-06
1.08585e-05
3.06097e-06
1.13831e-05
3.01492e-06
1.19606e-05
2.9693e-06
1.26089e-05
2.93088e-06
1.55766e-05
2.93069e-06
1.57761e-05
2.98889e-06
1.59536e-05
3.11745e-06
1.60159e-05
3.3136e-06
1.58769e-05
3.55843e-06
1.54927e-05
3.82176e-06
1.48833e-05
4.07036e-06
1.41363e-05
4.27304e-06
1.33975e-05
4.39969e-06
1.28615e-05
4.42101e-06
1.27489e-05
4.31895e-06
1.32442e-05
4.10251e-06
1.44091e-05
3.81313e-06
1.61407e-05
3.51212e-06
1.81961e-05
3.26119e-06
2.02397e-05
3.10297e-06
2.19135e-05
3.04759e-06
2.29431e-05
3.07733e-06
2.3239e-05
2.29105e-05
3.32702e-06
3.31741e-06
3.32632e-06
3.45961e-06
3.32541e-06
3.6207e-06
3.32435e-06
3.79388e-06
3.32314e-06
3.97649e-06
3.32175e-06
4.16783e-06
3.32017e-06
4.36802e-06
3.31837e-06
4.57739e-06
3.31633e-06
4.79626e-06
3.31401e-06
5.02497e-06
3.31138e-06
5.26387e-06
3.30838e-06
5.51331e-06
3.30496e-06
5.77361e-06
3.30104e-06
6.04515e-06
3.29652e-06
6.32829e-06
3.29131e-06
6.62345e-06
3.28525e-06
6.93111e-06
3.27819e-06
7.25183e-06
3.26991e-06
7.58628e-06
3.26018e-06
7.93527e-06
3.24872e-06
8.29974e-06
3.23522e-06
8.68077e-06
3.21929e-06
9.07954e-06
3.20044e-06
9.49742e-06
3.17803e-06
9.93617e-06
3.15133e-06
1.03987e-05
3.11969e-06
1.08902e-05
3.0832e-06
1.14196e-05
3.04388e-06
1.19999e-05
3.00723e-06
1.26456e-05
2.98159e-06
1.56023e-05
2.99395e-06
1.57637e-05
3.06098e-06
1.58865e-05
3.191e-06
1.58859e-05
3.37892e-06
1.5689e-05
3.6059e-06
1.52657e-05
3.84399e-06
1.46453e-05
4.06269e-06
1.39176e-05
4.23209e-06
1.32281e-05
4.32153e-06
1.27721e-05
4.30138e-06
1.27691e-05
4.15636e-06
1.33892e-05
3.90257e-06
1.46629e-05
3.58944e-06
1.64539e-05
3.28372e-06
1.85018e-05
3.04824e-06
2.04752e-05
2.92289e-06
2.20389e-05
2.91331e-06
2.29527e-05
2.99579e-06
2.31565e-05
2.2776e-05
3.32987e-06
3.31774e-06
3.32916e-06
3.46033e-06
3.32824e-06
3.62162e-06
3.32718e-06
3.79494e-06
3.32599e-06
3.97769e-06
3.32463e-06
4.16918e-06
3.3231e-06
4.36955e-06
3.32137e-06
4.57911e-06
3.31942e-06
4.79821e-06
3.31721e-06
5.02718e-06
3.31472e-06
5.26637e-06
3.31188e-06
5.51614e-06
3.30866e-06
5.77684e-06
3.30497e-06
6.04883e-06
3.30074e-06
6.33252e-06
3.29586e-06
6.62833e-06
3.29021e-06
6.93677e-06
3.28362e-06
7.25842e-06
3.27592e-06
7.59398e-06
3.2669e-06
7.94429e-06
3.25631e-06
8.31033e-06
3.24388e-06
8.6932e-06
3.22927e-06
9.09415e-06
3.21207e-06
9.51461e-06
3.1918e-06
9.95644e-06
3.1679e-06
1.04226e-05
3.14005e-06
1.0918e-05
3.10878e-06
1.14508e-05
3.07648e-06
1.20322e-05
3.04879e-06
1.26733e-05
3.03521e-06
1.56159e-05
3.0586e-06
1.57404e-05
3.13225e-06
1.58129e-05
3.26119e-06
1.5757e-05
3.43843e-06
1.55118e-05
3.6454e-06
1.50587e-05
3.85627e-06
1.44344e-05
4.04293e-06
1.37309e-05
4.17657e-06
1.30945e-05
4.22645e-06
1.27222e-05
4.16387e-06
1.28316e-05
3.97776e-06
1.35753e-05
3.69131e-06
1.49494e-05
3.361e-06
1.67842e-05
3.05763e-06
1.88051e-05
2.84373e-06
2.06891e-05
2.75534e-06
2.21273e-05
2.79284e-06
2.29152e-05
2.92636e-06
2.3023e-05
2.25942e-05
3.33302e-06
3.31807e-06
3.33231e-06
3.46105e-06
3.3314e-06
3.62252e-06
3.33037e-06
3.79597e-06
3.32921e-06
3.97885e-06
3.32791e-06
4.17048e-06
3.32645e-06
4.37101e-06
3.3248e-06
4.58076e-06
3.32296e-06
4.80005e-06
3.32089e-06
5.02925e-06
3.31855e-06
5.26871e-06
3.31591e-06
5.51878e-06
3.31292e-06
5.77983e-06
3.30951e-06
6.05224e-06
3.3056e-06
6.33642e-06
3.30111e-06
6.63283e-06
3.29591e-06
6.94197e-06
3.28987e-06
7.26446e-06
3.28282e-06
7.60102e-06
3.2746e-06
7.95252e-06
3.26498e-06
8.31995e-06
3.25373e-06
8.70445e-06
3.24059e-06
9.10729e-06
3.22523e-06
9.52997e-06
3.20729e-06
9.97438e-06
3.18643e-06
1.04434e-05
3.16262e-06
1.09418e-05
3.13671e-06
1.14767e-05
3.11138e-06
1.20575e-05
3.09219e-06
1.26925e-05
3.08947e-06
1.56186e-05
3.12198e-06
1.57079e-05
3.19995e-06
1.57349e-05
3.32558e-06
1.56313e-05
3.49042e-06
1.53469e-05
3.67635e-06
1.48728e-05
3.85944e-06
1.42513e-05
4.01356e-06
1.35768e-05
4.1109e-06
1.29971e-05
4.12134e-06
1.27118e-05
4.01831e-06
1.29347e-05
3.79573e-06
1.37979e-05
3.48341e-06
1.52617e-05
3.14342e-06
1.71242e-05
2.84902e-06
1.90995e-05
2.6612e-06
2.08769e-05
2.61138e-06
2.21771e-05
2.69431e-06
2.28323e-05
2.87391e-06
2.28434e-05
2.23727e-05
3.3364e-06
3.31839e-06
3.33571e-06
3.46174e-06
3.33483e-06
3.62339e-06
3.33384e-06
3.79696e-06
3.33274e-06
3.97995e-06
3.33151e-06
4.17172e-06
3.33013e-06
4.37239e-06
3.3286e-06
4.58229e-06
3.32689e-06
4.80176e-06
3.32497e-06
5.03117e-06
3.32282e-06
5.27086e-06
3.3204e-06
5.5212e-06
3.31766e-06
5.78257e-06
3.31455e-06
6.05535e-06
3.311e-06
6.33997e-06
3.30693e-06
6.6369e-06
3.30223e-06
6.94667e-06
3.29678e-06
7.2699e-06
3.29046e-06
7.60735e-06
3.28309e-06
7.95988e-06
3.27451e-06
8.32852e-06
3.26454e-06
8.71442e-06
3.25297e-06
9.11887e-06
3.23956e-06
9.54338e-06
3.22408e-06
9.98987e-06
3.20637e-06
1.04611e-05
3.18665e-06
1.09615e-05
3.16604e-06
1.14974e-05
3.14733e-06
1.20762e-05
3.1359e-06
1.27039e-05
3.14255e-06
1.56119e-05
3.18218e-06
1.56682e-05
3.26233e-06
1.56548e-05
3.38293e-06
1.55107e-05
3.53445e-06
1.51954e-05
3.69935e-06
1.47079e-05
3.8553e-06
1.40953e-05
3.97776e-06
1.34544e-05
4.04001e-06
1.29349e-05
4.01327e-06
1.27385e-05
3.87419e-06
1.30737e-05
3.62194e-06
1.40501e-05
3.29193e-06
1.55917e-05
2.95007e-06
1.7466e-05
2.67046e-06
1.93791e-05
2.51138e-06
2.1036e-05
2.49922e-06
2.21892e-05
2.62319e-06
2.27083e-05
2.84133e-06
2.26253e-05
2.21204e-05
3.33995e-06
3.3187e-06
3.33929e-06
3.4624e-06
3.33847e-06
3.62422e-06
3.33754e-06
3.79789e-06
3.33651e-06
3.98098e-06
3.33536e-06
4.17286e-06
3.3341e-06
4.37365e-06
3.33269e-06
4.5837e-06
3.33112e-06
4.80333e-06
3.32938e-06
5.03291e-06
3.32743e-06
5.27281e-06
3.32525e-06
5.52339e-06
3.32279e-06
5.78503e-06
3.32e-06
6.05814e-06
3.31684e-06
6.34314e-06
3.31321e-06
6.64052e-06
3.30905e-06
6.95083e-06
3.30424e-06
7.27471e-06
3.29866e-06
7.61292e-06
3.2922e-06
7.96634e-06
3.28472e-06
8.336e-06
3.27608e-06
8.72306e-06
3.26613e-06
9.12882e-06
3.25472e-06
9.55478e-06
3.24173e-06
1.00029e-05
3.22718e-06
1.04757e-05
3.21148e-06
1.09772e-05
3.19591e-06
1.15129e-05
3.18331e-06
1.20888e-05
3.17874e-06
1.27085e-05
3.19319e-06
1.55975e-05
3.23806e-06
1.56233e-05
3.31863e-06
1.55742e-05
3.43302e-06
1.53963e-05
3.57107e-06
1.50573e-05
3.71579e-06
1.45632e-05
3.84617e-06
1.3965e-05
3.93901e-06
1.33615e-05
3.96882e-06
1.29051e-05
3.90894e-06
1.27984e-05
3.73999e-06
1.32427e-05
3.46626e-06
1.43239e-05
3.12738e-06
1.59306e-05
2.79116e-06
1.78022e-05
2.53093e-06
1.96394e-05
2.40138e-06
2.11655e-05
2.4238e-06
2.21668e-05
2.58214e-06
2.255e-05
2.82948e-06
2.23779e-05
2.18474e-05
3.34363e-06
3.31898e-06
3.34302e-06
3.46302e-06
3.34226e-06
3.62498e-06
3.3414e-06
3.79874e-06
3.34046e-06
3.98192e-06
3.33942e-06
4.1739e-06
3.33828e-06
4.3748e-06
3.33701e-06
4.58496e-06
3.3356e-06
4.80473e-06
3.33405e-06
5.03447e-06
3.33231e-06
5.27454e-06
3.33038e-06
5.52532e-06
3.32822e-06
5.7872e-06
3.32577e-06
6.06058e-06
3.32301e-06
6.34591e-06
3.31985e-06
6.64368e-06
3.31624e-06
6.95445e-06
3.31208e-06
7.27887e-06
3.30729e-06
7.61772e-06
3.30176e-06
7.97187e-06
3.29539e-06
8.34237e-06
3.2881e-06
8.73036e-06
3.27978e-06
9.13714e-06
3.27037e-06
9.56419e-06
3.25986e-06
1.00134e-05
3.24838e-06
1.04872e-05
3.2365e-06
1.09891e-05
3.22561e-06
1.15238e-05
3.2185e-06
1.2096e-05
3.21985e-06
1.27071e-05
3.24062e-06
1.55767e-05
3.28913e-06
1.55748e-05
3.36881e-06
1.54945e-05
3.47644e-06
1.52887e-05
3.60148e-06
1.49323e-05
3.72751e-06
1.44371e-05
3.83461e-06
1.38579e-05
3.90072e-06
1.32954e-05
3.90186e-06
1.29039e-05
3.8141e-06
1.28862e-05
3.62255e-06
1.34342e-05
3.33611e-06
1.46103e-05
2.99702e-06
1.62697e-05
2.67312e-06
1.81261e-05
2.43544e-06
1.98771e-05
2.3345e-06
2.12665e-05
2.3866e-06
2.21147e-05
2.57104e-06
2.23655e-05
2.83732e-06
2.21117e-05
2.15636e-05
3.3474e-06
3.31924e-06
3.34685e-06
3.46357e-06
3.34616e-06
3.62566e-06
3.3454e-06
3.79951e-06
3.34455e-06
3.98276e-06
3.34363e-06
4.17482e-06
3.34261e-06
4.37582e-06
3.34149e-06
4.58608e-06
3.34026e-06
4.80597e-06
3.33889e-06
5.03583e-06
3.33739e-06
5.27605e-06
3.33572e-06
5.52699e-06
3.33385e-06
5.78906e-06
3.33176e-06
6.06267e-06
3.3294e-06
6.34827e-06
3.32673e-06
6.64635e-06
3.32367e-06
6.9575e-06
3.32018e-06
7.28237e-06
3.31617e-06
7.62172e-06
3.31158e-06
7.97647e-06
3.30633e-06
8.34761e-06
3.30037e-06
8.73631e-06
3.29367e-06
9.14384e-06
3.28621e-06
9.57165e-06
3.27808e-06
1.00215e-05
3.26953e-06
1.04957e-05
3.26122e-06
1.09974e-05
3.2546e-06
1.15304e-05
3.25233e-06
1.20982e-05
3.2587e-06
1.27007e-05
3.28449e-06
1.55509e-05
3.3354e-06
1.55239e-05
3.41335e-06
1.54166e-05
3.5142e-06
1.51879e-05
3.62721e-06
1.48193e-05
3.7365e-06
1.43278e-05
3.82305e-06
1.37713e-05
3.86595e-06
1.32525e-05
3.84291e-06
1.2927e-05
3.73323e-06
1.29958e-05
3.52663e-06
1.36408e-05
3.23598e-06
1.4901e-05
2.90456e-06
1.66011e-05
2.59847e-06
1.84322e-05
2.3851e-06
2.00904e-05
2.31042e-06
2.13411e-05
2.38605e-06
2.20391e-05
2.58754e-06
2.2164e-05
2.86254e-06
2.18367e-05
2.12777e-05
3.35127e-06
3.31948e-06
3.35077e-06
3.46407e-06
3.35016e-06
3.62627e-06
3.34948e-06
3.80018e-06
3.34875e-06
3.9835e-06
3.34794e-06
4.17563e-06
3.34705e-06
4.37671e-06
3.34608e-06
4.58705e-06
3.34502e-06
4.80703e-06
3.34386e-06
5.037e-06
3.34258e-06
5.27733e-06
3.34117e-06
5.5284e-06
3.33961e-06
5.79062e-06
3.33787e-06
6.06441e-06
3.33592e-06
6.35022e-06
3.33372e-06
6.64855e-06
3.33123e-06
6.95999e-06
3.32839e-06
7.2852e-06
3.32516e-06
7.62495e-06
3.32149e-06
7.98014e-06
3.31733e-06
8.35177e-06
3.31268e-06
8.74096e-06
3.30754e-06
9.14898e-06
3.30197e-06
9.57722e-06
3.2961e-06
1.00274e-05
3.29029e-06
1.05015e-05
3.28526e-06
1.10024e-05
3.28245e-06
1.15332e-05
3.2844e-06
1.20963e-05
3.29499e-06
1.26901e-05
3.32476e-06
1.55211e-05
3.37717e-06
1.54715e-05
3.45302e-06
1.53407e-05
3.54747e-06
1.50934e-05
3.64978e-06
1.4717e-05
3.74456e-06
1.42331e-05
3.81364e-06
1.37022e-05
3.83719e-06
1.3229e-05
3.79481e-06
1.29693e-05
3.66925e-06
1.31214e-05
3.45477e-06
1.38553e-05
3.16748e-06
1.51883e-05
2.85036e-06
1.69182e-05
2.56615e-06
1.87164e-05
2.37757e-06
2.0279e-05
2.32578e-06
2.13929e-05
2.41821e-06
2.19466e-05
2.62779e-06
2.19545e-05
2.90224e-06
2.15622e-05
2.09971e-05
3.35522e-06
3.31969e-06
3.35477e-06
3.46451e-06
3.35424e-06
3.62681e-06
3.35365e-06
3.80077e-06
3.35301e-06
3.98414e-06
3.35231e-06
4.17632e-06
3.35156e-06
4.37746e-06
3.35073e-06
4.58788e-06
3.34984e-06
4.80792e-06
3.34887e-06
5.03797e-06
3.34781e-06
5.27838e-06
3.34666e-06
5.52956e-06
3.34539e-06
5.79189e-06
3.344e-06
6.0658e-06
3.34245e-06
6.35176e-06
3.34072e-06
6.65028e-06
3.33878e-06
6.96193e-06
3.33659e-06
7.28739e-06
3.33411e-06
7.62743e-06
3.33134e-06
7.98292e-06
3.32824e-06
8.35486e-06
3.32485e-06
8.74436e-06
3.3212e-06
9.15263e-06
3.3174e-06
9.58102e-06
3.31365e-06
1.00311e-05
3.31036e-06
1.05048e-05
3.3083e-06
1.10045e-05
3.30889e-06
1.15327e-05
3.31449e-06
1.20907e-05
3.32863e-06
1.2676e-05
3.36157e-06
1.54882e-05
3.41493e-06
1.54182e-05
3.48864e-06
1.5267e-05
3.57742e-06
1.50046e-05
3.67058e-06
1.46238e-05
3.75326e-06
1.41504e-05
3.80806e-06
1.36474e-05
3.81624e-06
1.32208e-05
3.75934e-06
1.30262e-05
3.62353e-06
1.32572e-05
3.40739e-06
1.40715e-05
3.12963e-06
1.5466e-05
2.83184e-06
1.7216e-05
2.57218e-06
1.89761e-05
2.40782e-06
2.04434e-05
2.37503e-06
2.14257e-05
2.47763e-06
2.1844e-05
2.68719e-06
2.17449e-05
2.95342e-06
2.1296e-05
2.07271e-05
3.35926e-06
3.31988e-06
3.35886e-06
3.46491e-06
3.35838e-06
3.62728e-06
3.35786e-06
3.80129e-06
3.35731e-06
3.98469e-06
3.35671e-06
4.17692e-06
3.35607e-06
4.3781e-06
3.35538e-06
4.58857e-06
3.35465e-06
4.80866e-06
3.35386e-06
5.03876e-06
3.35301e-06
5.27923e-06
3.35211e-06
5.53046e-06
3.35113e-06
5.79287e-06
3.35007e-06
6.06686e-06
3.34891e-06
6.35292e-06
3.34763e-06
6.65156e-06
3.34622e-06
6.96335e-06
3.34464e-06
7.28897e-06
3.3429e-06
7.62917e-06
3.34098e-06
7.98484e-06
3.33889e-06
8.35695e-06
3.33668e-06
8.74657e-06
3.33443e-06
9.15488e-06
3.33229e-06
9.58316e-06
3.33051e-06
1.00329e-05
3.32953e-06
1.05058e-05
3.33014e-06
1.10039e-05
3.33372e-06
1.15291e-05
3.34249e-06
1.20819e-05
3.35963e-06
1.26589e-05
3.39518e-06
1.54527e-05
3.44921e-06
1.53641e-05
3.52102e-06
1.51952e-05
3.60504e-06
1.49206e-05
3.69074e-06
1.45381e-05
3.76376e-06
1.40774e-05
3.80746e-06
1.36037e-05
3.80414e-06
1.32241e-05
3.73719e-06
1.30932e-05
3.596e-06
1.33984e-05
3.38312e-06
1.42843e-05
3.11934e-06
1.57298e-05
2.84421e-06
1.74911e-05
2.6104e-06
1.92099e-05
2.46897e-06
2.05848e-05
2.45126e-06
2.14434e-05
2.55813e-06
2.17372e-05
2.76105e-06
2.1542e-05
3.01336e-06
2.10437e-05
2.04713e-05
3.36336e-06
3.32006e-06
3.36299e-06
3.46528e-06
3.36255e-06
3.62772e-06
3.36209e-06
3.80175e-06
3.3616e-06
3.98518e-06
3.36108e-06
4.17743e-06
3.36054e-06
4.37865e-06
3.35997e-06
4.58913e-06
3.35938e-06
4.80926e-06
3.35876e-06
5.03938e-06
3.35811e-06
5.27987e-06
3.35744e-06
5.53114e-06
3.35673e-06
5.79357e-06
3.35598e-06
6.06761e-06
3.35519e-06
6.35371e-06
3.35434e-06
6.6524e-06
3.35343e-06
6.96426e-06
3.35245e-06
7.28995e-06
3.35139e-06
7.63023e-06
3.35027e-06
7.98596e-06
3.34913e-06
8.35808e-06
3.34804e-06
8.74766e-06
3.3471e-06
9.15582e-06
3.34649e-06
9.58377e-06
3.3465e-06
1.00329e-05
3.34761e-06
1.05047e-05
3.35061e-06
1.10009e-05
3.35683e-06
1.15229e-05
3.36836e-06
1.20704e-05
3.38809e-06
1.26391e-05
3.42586e-06
1.54149e-05
3.48051e-06
1.53095e-05
3.55085e-06
1.51249e-05
3.63115e-06
1.48403e-05
3.71109e-06
1.44582e-05
3.77684e-06
1.40116e-05
3.81247e-06
1.35681e-05
3.80123e-06
1.32353e-05
3.7281e-06
1.31663e-05
3.58538e-06
1.35411e-05
3.37917e-06
1.44906e-05
3.13202e-06
1.5977e-05
2.88117e-06
1.7742e-05
2.67336e-06
1.94177e-05
2.55314e-06
2.0705e-05
2.547e-06
2.14496e-05
2.65344e-06
2.16307e-05
2.84493e-06
2.13505e-05
3.07973e-06
2.08089e-05
2.02314e-05
3.36746e-06
3.32023e-06
3.3671e-06
3.46564e-06
3.36668e-06
3.62814e-06
3.36625e-06
3.80219e-06
3.36581e-06
3.98562e-06
3.36536e-06
4.17789e-06
3.3649e-06
4.37911e-06
3.36443e-06
4.5896e-06
3.36396e-06
4.80972e-06
3.36349e-06
5.03985e-06
3.36303e-06
5.28034e-06
3.36256e-06
5.5316e-06
3.36211e-06
5.79403e-06
3.36166e-06
6.06806e-06
3.36121e-06
6.35416e-06
3.36077e-06
6.65285e-06
3.36032e-06
6.9647e-06
3.35989e-06
7.29039e-06
3.35947e-06
7.63064e-06
3.35911e-06
7.98632e-06
3.35885e-06
8.35834e-06
3.35878e-06
8.74773e-06
3.35904e-06
9.15556e-06
3.35984e-06
9.58298e-06
3.36148e-06
1.00312e-05
3.36447e-06
1.05017e-05
3.3696e-06
1.09958e-05
3.37817e-06
1.15143e-05
3.39211e-06
1.20564e-05
3.41412e-06
1.26171e-05
3.4539e-06
1.53751e-05
3.50926e-06
1.52541e-05
3.57866e-06
1.50555e-05
3.65633e-06
1.47626e-05
3.73218e-06
1.43823e-05
3.79291e-06
1.39509e-05
3.82323e-06
1.35378e-05
3.80714e-06
1.32514e-05
3.73095e-06
1.32425e-05
3.58941e-06
1.36827e-05
3.39175e-06
1.46882e-05
3.16217e-06
1.62065e-05
2.93566e-06
1.79685e-05
2.75303e-06
1.96004e-05
2.65218e-06
2.08059e-05
2.6548e-06
2.1447e-05
2.7576e-06
2.15279e-05
2.93489e-06
2.11732e-05
3.15056e-06
2.05932e-05
2.0008e-05
3.37146e-06
3.32041e-06
3.3711e-06
3.466e-06
3.37069e-06
3.62854e-06
3.37027e-06
3.8026e-06
3.36986e-06
3.98604e-06
3.36946e-06
4.17829e-06
3.36906e-06
4.3795e-06
3.36869e-06
4.58998e-06
3.36833e-06
4.81008e-06
3.36799e-06
5.04018e-06
3.36769e-06
5.28065e-06
3.36742e-06
5.53187e-06
3.36719e-06
5.79426e-06
3.36701e-06
6.06824e-06
3.36688e-06
6.35429e-06
3.3668e-06
6.65292e-06
3.36679e-06
6.96471e-06
3.36687e-06
7.29032e-06
3.36704e-06
7.63047e-06
3.36737e-06
7.98599e-06
3.36792e-06
8.3578e-06
3.36879e-06
8.74686e-06
3.37015e-06
9.1542e-06
3.37221e-06
9.58091e-06
3.37533e-06
1.00281e-05
3.38e-06
1.0497e-05
3.38703e-06
1.09887e-05
3.39767e-06
1.15037e-05
3.41377e-06
1.20403e-05
3.43783e-06
1.25931e-05
3.47951e-06
1.53334e-05
3.53577e-06
1.51979e-05
3.60483e-06
1.49864e-05
3.68091e-06
1.46865e-05
3.75423e-06
1.4309e-05
3.81199e-06
1.38931e-05
3.8394e-06
1.35104e-05
3.82097e-06
1.32699e-05
3.74395e-06
1.33195e-05
3.60512e-06
1.38215e-05
3.41648e-06
1.48769e-05
3.20389e-06
1.64191e-05
3.00047e-06
1.81719e-05
2.84147e-06
1.97594e-05
2.75822e-06
2.08891e-05
2.76771e-06
2.14375e-05
2.86522e-06
2.14304e-05
3.02741e-06
2.1011e-05
3.22409e-06
2.03965e-05
1.98004e-05
3.37523e-06
3.32059e-06
3.37487e-06
3.46636e-06
3.37446e-06
3.62895e-06
3.37405e-06
3.80301e-06
3.37366e-06
3.98642e-06
3.3733e-06
4.17866e-06
3.37296e-06
4.37984e-06
3.37265e-06
4.59029e-06
3.37239e-06
4.81035e-06
3.37217e-06
5.0404e-06
3.37201e-06
5.28081e-06
3.37192e-06
5.53196e-06
3.3719e-06
5.79428e-06
3.37196e-06
6.06818e-06
3.37211e-06
6.35414e-06
3.37238e-06
6.65266e-06
3.37276e-06
6.96433e-06
3.37329e-06
7.28978e-06
3.37401e-06
7.62975e-06
3.37496e-06
7.98504e-06
3.37624e-06
8.35652e-06
3.37796e-06
8.74513e-06
3.3803e-06
9.15186e-06
3.38351e-06
9.5777e-06
3.38794e-06
1.00237e-05
3.39411e-06
1.04909e-05
3.40284e-06
1.098e-05
3.41532e-06
1.14912e-05
3.43336e-06
1.20223e-05
3.4593e-06
1.25671e-05
3.50286e-06
1.52899e-05
3.56026e-06
1.51405e-05
3.62957e-06
1.49171e-05
3.70506e-06
1.46111e-05
3.77726e-06
1.42368e-05
3.83381e-06
1.38366e-05
3.86025e-06
1.34839e-05
3.84127e-06
1.32888e-05
3.76475e-06
1.33961e-05
3.62907e-06
1.39572e-05
3.44871e-06
1.50572e-05
3.2513e-06
1.66165e-05
3.06873e-06
1.83545e-05
2.93132e-06
1.98968e-05
2.86411e-06
2.09563e-05
2.8795e-06
2.14221e-05
2.97154e-06
2.13384e-05
3.11941e-06
2.08632e-05
3.29861e-06
2.02173e-05
1.96072e-05
3.37866e-06
3.32077e-06
3.3783e-06
3.46672e-06
3.37789e-06
3.62936e-06
3.37749e-06
3.80341e-06
3.37712e-06
3.98679e-06
3.37679e-06
4.17899e-06
3.3765e-06
4.38013e-06
3.37626e-06
4.59053e-06
3.37607e-06
4.81053e-06
3.37596e-06
5.04051e-06
3.37593e-06
5.28084e-06
3.37599e-06
5.5319e-06
3.37615e-06
5.79411e-06
3.37643e-06
6.0679e-06
3.37684e-06
6.35372e-06
3.37741e-06
6.6521e-06
3.37814e-06
6.96359e-06
3.37909e-06
7.28884e-06
3.38028e-06
7.62856e-06
3.38179e-06
7.98352e-06
3.38372e-06
8.35459e-06
3.3862e-06
8.74266e-06
3.38942e-06
9.14864e-06
3.39364e-06
9.57348e-06
3.39923e-06
1.00181e-05
3.40674e-06
1.04834e-05
3.41696e-06
1.09698e-05
3.4311e-06
1.1477e-05
3.45088e-06
1.20025e-05
3.47859e-06
1.25394e-05
3.52404e-06
1.52444e-05
3.58283e-06
1.50817e-05
3.65294e-06
1.4847e-05
3.72873e-06
1.45353e-05
3.80103e-06
1.41645e-05
3.85781e-06
1.37798e-05
3.88469e-06
1.34571e-05
3.86624e-06
1.33073e-05
3.7906e-06
1.34717e-05
3.6575e-06
1.40903e-05
3.48374e-06
1.5231e-05
3.29887e-06
1.68014e-05
3.13425e-06
1.85191e-05
3.01613e-06
2.00149e-05
2.9637e-06
2.10087e-05
2.98489e-06
2.14009e-05
3.07253e-06
2.12507e-05
3.2082e-06
2.07275e-05
3.37248e-06
2.0053e-05
1.94264e-05
3.38166e-06
3.32095e-06
3.3813e-06
3.46708e-06
3.3809e-06
3.62976e-06
3.38051e-06
3.80379e-06
3.38016e-06
3.98714e-06
3.37986e-06
4.17929e-06
3.37961e-06
4.38038e-06
3.37943e-06
4.59071e-06
3.37932e-06
4.81064e-06
3.3793e-06
5.04053e-06
3.37938e-06
5.28076e-06
3.37957e-06
5.53171e-06
3.37989e-06
5.79379e-06
3.38036e-06
6.06743e-06
3.381e-06
6.35309e-06
3.38182e-06
6.65127e-06
3.38287e-06
6.96255e-06
3.38417e-06
7.28754e-06
3.38578e-06
7.62694e-06
3.38779e-06
7.98152e-06
3.39028e-06
8.35209e-06
3.39342e-06
8.73952e-06
3.39741e-06
9.14466e-06
3.40252e-06
9.56837e-06
3.40913e-06
1.00115e-05
3.4178e-06
1.04747e-05
3.42935e-06
1.09582e-05
3.44496e-06
1.14614e-05
3.46634e-06
1.19811e-05
3.49572e-06
1.251e-05
3.54308e-06
1.51971e-05
3.60349e-06
1.50213e-05
3.67488e-06
1.47756e-05
3.75173e-06
1.44584e-05
3.82513e-06
1.40911e-05
3.88319e-06
1.37217e-05
3.91134e-06
1.34289e-05
3.89369e-06
1.33249e-05
3.81844e-06
1.35469e-05
3.68654e-06
1.42222e-05
3.51702e-06
1.54005e-05
3.34159e-06
1.69768e-05
3.19176e-06
1.86689e-05
3.0906e-06
2.0116e-05
3.05203e-06
2.10473e-05
3.07965e-06
2.13733e-05
3.16493e-06
2.11655e-05
3.29149e-06
2.06009e-05
3.44411e-06
1.99004e-05
1.92556e-05
3.38417e-06
3.32112e-06
3.38382e-06
3.46743e-06
3.38343e-06
3.63015e-06
3.38306e-06
3.80416e-06
3.38273e-06
3.98747e-06
3.38246e-06
4.17957e-06
3.38225e-06
4.38059e-06
3.38211e-06
4.59084e-06
3.38207e-06
4.81069e-06
3.38212e-06
5.04048e-06
3.38229e-06
5.28059e-06
3.3826e-06
5.5314e-06
3.38306e-06
5.79333e-06
3.38369e-06
6.0668e-06
3.38452e-06
6.35226e-06
3.38556e-06
6.65022e-06
3.38687e-06
6.96124e-06
3.38848e-06
7.28593e-06
3.39045e-06
7.62497e-06
3.39287e-06
7.9791e-06
3.39586e-06
8.34911e-06
3.39956e-06
8.73581e-06
3.4042e-06
9.14002e-06
3.41007e-06
9.56251e-06
3.41756e-06
1.0004e-05
3.42725e-06
1.0465e-05
3.43994e-06
1.09455e-05
3.45686e-06
1.14445e-05
3.4797e-06
1.19583e-05
3.51067e-06
1.24791e-05
3.55994e-06
1.51478e-05
3.62217e-06
1.4959e-05
3.69524e-06
1.47025e-05
3.77374e-06
1.43799e-05
3.84895e-06
1.40159e-05
3.90894e-06
1.36617e-05
3.93855e-06
1.33993e-05
3.92119e-06
1.33423e-05
3.84501e-06
1.36231e-05
3.71223e-06
1.4355e-05
3.54424e-06
1.55685e-05
3.37508e-06
1.7146e-05
3.23697e-06
1.8807e-05
3.15066e-06
2.02024e-05
3.12544e-06
2.10725e-05
3.16068e-06
2.1338e-05
3.24635e-06
2.10798e-05
3.36748e-06
2.04798e-05
3.5121e-06
1.97558e-05
1.90923e-05
3.38617e-06
3.32129e-06
3.38583e-06
3.46777e-06
3.38545e-06
3.63053e-06
3.3851e-06
3.80452e-06
3.38479e-06
3.98778e-06
3.38454e-06
4.17982e-06
3.38436e-06
4.38077e-06
3.38427e-06
4.59094e-06
3.38427e-06
4.81068e-06
3.38439e-06
5.04036e-06
3.38464e-06
5.28034e-06
3.38504e-06
5.53101e-06
3.38561e-06
5.79277e-06
3.38637e-06
6.06604e-06
3.38735e-06
6.35128e-06
3.38858e-06
6.64899e-06
3.3901e-06
6.95972e-06
3.39196e-06
7.28407e-06
3.39422e-06
7.6227e-06
3.39699e-06
7.97633e-06
3.40037e-06
8.34572e-06
3.40455e-06
8.73163e-06
3.40974e-06
9.13483e-06
3.41624e-06
9.55601e-06
3.42447e-06
9.99577e-06
3.435e-06
1.04545e-05
3.44869e-06
1.09319e-05
3.46676e-06
1.14264e-05
3.49092e-06
1.19341e-05
3.52338e-06
1.24466e-05
3.57456e-06
1.50966e-05
3.63872e-06
1.48949e-05
3.71374e-06
1.46275e-05
3.79432e-06
1.42993e-05
3.87179e-06
1.39384e-05
3.93385e-06
1.35997e-05
3.96444e-06
1.33687e-05
3.94605e-06
1.33607e-05
3.86689e-06
1.37023e-05
3.73071e-06
1.44911e-05
3.56146e-06
1.57377e-05
3.39566e-06
1.73118e-05
3.26664e-06
1.89361e-05
3.19352e-06
2.02755e-05
3.18156e-06
2.10845e-05
3.22612e-06
2.12935e-05
3.31532e-06
2.09906e-05
3.43499e-06
2.03601e-05
3.5754e-06
1.96154e-05
1.89339e-05
3.38766e-06
3.32145e-06
3.38732e-06
3.46811e-06
3.38695e-06
3.6309e-06
3.38661e-06
3.80486e-06
3.38631e-06
3.98808e-06
3.38608e-06
4.18005e-06
3.38592e-06
4.38092e-06
3.38586e-06
4.591e-06
3.3859e-06
4.81064e-06
3.38607e-06
5.04019e-06
3.38637e-06
5.28003e-06
3.38684e-06
5.53054e-06
3.38749e-06
5.79211e-06
3.38835e-06
6.06518e-06
3.38945e-06
6.35019e-06
3.39082e-06
6.64762e-06
3.3925e-06
6.95804e-06
3.39455e-06
7.28202e-06
3.39705e-06
7.62021e-06
3.40008e-06
7.9733e-06
3.40379e-06
8.34202e-06
3.40833e-06
8.72709e-06
3.41395e-06
9.12921e-06
3.42096e-06
9.549e-06
3.42978e-06
9.98694e-06
3.44102e-06
1.04432e-05
3.45553e-06
1.09173e-05
3.47459e-06
1.14074e-05
3.49993e-06
1.19088e-05
3.53376e-06
1.24128e-05
3.5868e-06
1.50436e-05
3.65294e-06
1.48287e-05
3.73008e-06
1.45504e-05
3.81295e-06
1.42165e-05
3.89277e-06
1.38586e-05
3.95653e-06
1.35359e-05
3.98692e-06
1.33383e-05
3.96543e-06
1.33822e-05
3.88062e-06
1.37871e-05
3.73827e-06
1.46335e-05
3.56515e-06
1.59109e-05
3.4004e-06
1.74765e-05
3.27857e-06
1.90579e-05
3.21764e-06
2.03364e-05
3.21936e-06
2.10828e-05
3.27525e-06
2.12376e-05
3.37134e-06
2.08945e-05
3.49354e-06
2.02379e-05
3.63344e-06
1.94755e-05
1.87778e-05
3.38862e-06
3.32162e-06
3.38829e-06
3.46844e-06
3.38792e-06
3.63127e-06
3.38757e-06
3.80521e-06
3.38728e-06
3.98837e-06
3.38706e-06
4.18027e-06
3.38692e-06
4.38106e-06
3.38687e-06
4.59105e-06
3.38693e-06
4.81057e-06
3.38713e-06
5.04e-06
3.38747e-06
5.27969e-06
3.38798e-06
5.53003e-06
3.38868e-06
5.79141e-06
3.38961e-06
6.06425e-06
3.39078e-06
6.34901e-06
3.39225e-06
6.64616e-06
3.39405e-06
6.95624e-06
3.39623e-06
7.27983e-06
3.39889e-06
7.61755e-06
3.40212e-06
7.97007e-06
3.40604e-06
8.33809e-06
3.41086e-06
8.72228e-06
3.4168e-06
9.12327e-06
3.42418e-06
9.54161e-06
3.43345e-06
9.97767e-06
3.44523e-06
1.04314e-05
3.46041e-06
1.09022e-05
3.48029e-06
1.13875e-05
3.50665e-06
1.18824e-05
3.54173e-06
1.23777e-05
3.59652e-06
1.49888e-05
3.66459e-06
1.47607e-05
3.74386e-06
1.44711e-05
3.82903e-06
1.41313e-05
3.91091e-06
1.37768e-05
3.97542e-06
1.34714e-05
4.00371e-06
1.331e-05
3.97635e-06
1.34095e-05
3.88279e-06
1.38807e-05
3.73147e-06
1.47848e-05
3.55236e-06
1.609e-05
3.38716e-06
1.76417e-05
3.27159e-06
1.91735e-05
3.22265e-06
2.03854e-05
3.23902e-06
2.10664e-05
3.30855e-06
2.11681e-05
3.41491e-06
2.07881e-05
3.54345e-06
2.01094e-05
3.68621e-06
1.93327e-05
1.86217e-05
3.38904e-06
3.32178e-06
3.3887e-06
3.46878e-06
3.38833e-06
3.63164e-06
3.38798e-06
3.80555e-06
3.38769e-06
3.98866e-06
3.38746e-06
4.1805e-06
3.38732e-06
4.3812e-06
3.38728e-06
4.59109e-06
3.38735e-06
4.8105e-06
3.38755e-06
5.0398e-06
3.3879e-06
5.27934e-06
3.38843e-06
5.5295e-06
3.38916e-06
5.79068e-06
3.39012e-06
6.0633e-06
3.39133e-06
6.34779e-06
3.39285e-06
6.64465e-06
3.3947e-06
6.95438e-06
3.39697e-06
7.27756e-06
3.39972e-06
7.6148e-06
3.40305e-06
7.96674e-06
3.40712e-06
8.33403e-06
3.4121e-06
8.7173e-06
3.41823e-06
9.11713e-06
3.42586e-06
9.53398e-06
3.43543e-06
9.9681e-06
3.44759e-06
1.04193e-05
3.46326e-06
1.08865e-05
3.48379e-06
1.1367e-05
3.511e-06
1.18552e-05
3.54717e-06
1.23415e-05
3.60353e-06
1.49324e-05
3.67341e-06
1.46908e-05
3.75469e-06
1.43898e-05
3.84189e-06
1.40441e-05
3.92511e-06
1.36935e-05
3.9888e-06
1.34077e-05
4.01237e-06
1.32865e-05
3.97579e-06
1.34461e-05
3.87016e-06
1.39863e-05
3.70732e-06
1.49476e-05
3.52079e-06
1.62765e-05
3.35467e-06
1.78079e-05
3.24549e-06
1.92826e-05
3.20927e-06
2.04216e-05
3.24183e-06
2.10338e-05
3.32752e-06
2.10824e-05
3.44742e-06
2.06682e-05
3.58573e-06
1.9971e-05
3.73429e-06
1.91842e-05
1.84639e-05
3.38891e-06
3.32195e-06
3.38857e-06
3.46912e-06
3.38818e-06
3.63202e-06
3.38783e-06
3.80591e-06
3.38752e-06
3.98897e-06
3.38728e-06
4.18073e-06
3.38713e-06
4.38136e-06
3.38707e-06
4.59115e-06
3.38713e-06
4.81045e-06
3.38733e-06
5.0396e-06
3.38767e-06
5.27899e-06
3.38819e-06
5.52898e-06
3.38891e-06
5.78996e-06
3.38987e-06
6.06235e-06
3.39108e-06
6.34658e-06
3.39259e-06
6.64313e-06
3.39446e-06
6.95252e-06
3.39674e-06
7.27529e-06
3.3995e-06
7.61203e-06
3.40287e-06
7.96337e-06
3.40698e-06
8.32992e-06
3.41202e-06
8.71226e-06
3.41823e-06
9.11092e-06
3.42597e-06
9.52625e-06
3.43569e-06
9.95838e-06
3.44806e-06
1.04069e-05
3.46405e-06
1.08705e-05
3.48503e-06
1.1346e-05
3.5129e-06
1.18273e-05
3.54996e-06
1.23045e-05
3.60765e-06
1.48747e-05
3.6791e-06
1.46193e-05
3.76209e-06
1.43068e-05
3.85077e-06
1.39554e-05
3.93416e-06
1.36101e-05
3.99482e-06
1.3347e-05
4.01039e-06
1.32709e-05
3.96083e-06
1.34957e-05
3.83984e-06
1.41073e-05
3.66345e-06
1.5124e-05
3.46896e-06
1.6471e-05
3.30257e-06
1.79743e-05
3.2011e-06
1.93841e-05
3.17925e-06
2.04434e-05
3.23009e-06
2.0983e-05
3.33458e-06
2.09779e-05
3.47105e-06
2.05318e-05
3.6221e-06
1.982e-05
3.77876e-06
1.90275e-05
1.83028e-05
3.38823e-06
3.32212e-06
3.38788e-06
3.46947e-06
3.38748e-06
3.63242e-06
3.38711e-06
3.80629e-06
3.38678e-06
3.98929e-06
3.38652e-06
4.18099e-06
3.38634e-06
4.38154e-06
3.38626e-06
4.59123e-06
3.38629e-06
4.81041e-06
3.38645e-06
5.03944e-06
3.38677e-06
5.27868e-06
3.38725e-06
5.52849e-06
3.38794e-06
5.78928e-06
3.38885e-06
6.06144e-06
3.39002e-06
6.34541e-06
3.39149e-06
6.64166e-06
3.3933e-06
6.9507e-06
3.39553e-06
7.27306e-06
3.39825e-06
7.60932e-06
3.40156e-06
7.96006e-06
3.40562e-06
8.32586e-06
3.4106e-06
8.70728e-06
3.41678e-06
9.10474e-06
3.42448e-06
9.51854e-06
3.4342e-06
9.94866e-06
3.44661e-06
1.03945e-05
3.46272e-06
1.08544e-05
3.48396e-06
1.13247e-05
3.51227e-06
1.1799e-05
3.54997e-06
1.22668e-05
3.60869e-06
1.4816e-05
3.68137e-06
1.45467e-05
3.7656e-06
1.42226e-05
3.85489e-06
1.38661e-05
3.93674e-06
1.35283e-05
3.99151e-06
1.32923e-05
3.99528e-06
1.32671e-05
3.92882e-06
1.35621e-05
3.78949e-06
1.42466e-05
3.59828e-06
1.53152e-05
3.39637e-06
1.66729e-05
3.23153e-06
1.81391e-05
3.14017e-06
1.94755e-05
3.13521e-06
2.04484e-05
3.2069e-06
2.09113e-05
3.33289e-06
2.08519e-05
3.48862e-06
2.0376e-05
3.65471e-06
1.96539e-05
3.82108e-06
1.88611e-05
1.81379e-05
3.38704e-06
3.3223e-06
3.38667e-06
3.46984e-06
3.38625e-06
3.63284e-06
3.38584e-06
3.8067e-06
3.38548e-06
3.98965e-06
3.38519e-06
4.18129e-06
3.38497e-06
4.38175e-06
3.38485e-06
4.59135e-06
3.38483e-06
4.81043e-06
3.38494e-06
5.03933e-06
3.38519e-06
5.27842e-06
3.38562e-06
5.52807e-06
3.38623e-06
5.78866e-06
3.38706e-06
6.0606e-06
3.38815e-06
6.34433e-06
3.38952e-06
6.64029e-06
3.39124e-06
6.94899e-06
3.39335e-06
7.27095e-06
3.39594e-06
7.60672e-06
3.39912e-06
7.95688e-06
3.40303e-06
8.32195e-06
3.40786e-06
8.70245e-06
3.41386e-06
9.09874e-06
3.42139e-06
9.51101e-06
3.43094e-06
9.93911e-06
3.44321e-06
1.03822e-05
3.45925e-06
1.08384e-05
3.48053e-06
1.13035e-05
3.50903e-06
1.17705e-05
3.54711e-06
1.22287e-05
3.60649e-06
1.47567e-05
3.67994e-06
1.44732e-05
3.76473e-06
1.41378e-05
3.85338e-06
1.37775e-05
3.93146e-06
1.34502e-05
3.97693e-06
1.32468e-05
3.96473e-06
1.32793e-05
3.87754e-06
1.36493e-05
3.71754e-06
1.44066e-05
3.51127e-06
1.55215e-05
3.30362e-06
1.68805e-05
3.14327e-06
1.82995e-05
3.06539e-06
1.95533e-05
3.08054e-06
2.04332e-05
3.17599e-06
2.08159e-05