/*--------------------------------*- C++ -*----------------------------------*\
  =========                 |
  \\      /  F ield         | OpenFOAM: The Open Source CFD Toolbox
   \\    /   O peration     | Website:  https://openfoam.org
    \\  /    A nd           | Version:  9
     \\/     M anipulation  |
\*---------------------------------------------------------------------------*/
FoamFile
{
    format      ascii;
    class       volScalarField;
    location    "0.18";
    object      rAU;
}
// * * * * * * * * * * * * * * * * * * * * * * * * * * * * * * * * * * * * * //

dimensions      [-1 3 1 0 0 0 0];

internalField   nonuniform List<scalar> 
5000
(
8.05479e-06
1.01116e-05
1.02447e-05
1.03707e-05
1.04906e-05
1.0605e-05
1.07142e-05
1.08183e-05
1.09176e-05
1.10124e-05
1.11028e-05
1.11892e-05
1.12717e-05
1.13506e-05
1.14262e-05
1.14985e-05
1.15679e-05
1.16345e-05
1.16985e-05
1.176e-05
1.18191e-05
1.18759e-05
1.19305e-05
1.1983e-05
1.20334e-05
1.20817e-05
1.21273e-05
1.21689e-05
1.22044e-05
1.2234e-05
1.23233e-05
1.23009e-05
1.22725e-05
1.22506e-05
1.22462e-05
1.22663e-05
1.2312e-05
1.23763e-05
1.24448e-05
1.24957e-05
1.25036e-05
1.24474e-05
1.23211e-05
1.21379e-05
1.19253e-05
1.17184e-05
1.15515e-05
1.14489e-05
1.14176e-05
1.14467e-05
8.0529e-06
1.01103e-05
1.02434e-05
1.03693e-05
1.04892e-05
1.06036e-05
1.07127e-05
1.08168e-05
1.09161e-05
1.10108e-05
1.11011e-05
1.11874e-05
1.12698e-05
1.13486e-05
1.14239e-05
1.14961e-05
1.15653e-05
1.16317e-05
1.16953e-05
1.17565e-05
1.18151e-05
1.18715e-05
1.19255e-05
1.19773e-05
1.2027e-05
1.20743e-05
1.21187e-05
1.21591e-05
1.21936e-05
1.22228e-05
1.23139e-05
1.22949e-05
1.22723e-05
1.22581e-05
1.22617e-05
1.22888e-05
1.2339e-05
1.24048e-05
1.24713e-05
1.25166e-05
1.25154e-05
1.24485e-05
1.23133e-05
1.21264e-05
1.19163e-05
1.17165e-05
1.15585e-05
1.14637e-05
1.14364e-05
1.14655e-05
8.05075e-06
1.01089e-05
1.02419e-05
1.03678e-05
1.04877e-05
1.06021e-05
1.07111e-05
1.08152e-05
1.09144e-05
1.1009e-05
1.10993e-05
1.11855e-05
1.12677e-05
1.13464e-05
1.14216e-05
1.14936e-05
1.15626e-05
1.16287e-05
1.16921e-05
1.17528e-05
1.18111e-05
1.1867e-05
1.19205e-05
1.19717e-05
1.20206e-05
1.2067e-05
1.21104e-05
1.21497e-05
1.21833e-05
1.22124e-05
1.23057e-05
1.22901e-05
1.2273e-05
1.22658e-05
1.22766e-05
1.23098e-05
1.23639e-05
1.24307e-05
1.24949e-05
1.25344e-05
1.25238e-05
1.24461e-05
1.23026e-05
1.21132e-05
1.1907e-05
1.17158e-05
1.15681e-05
1.14818e-05
1.14594e-05
1.14885e-05
8.04841e-06
1.01073e-05
1.02403e-05
1.03662e-05
1.04861e-05
1.06004e-05
1.07094e-05
1.08134e-05
1.09126e-05
1.10071e-05
1.10973e-05
1.11834e-05
1.12656e-05
1.13441e-05
1.14192e-05
1.1491e-05
1.15598e-05
1.16256e-05
1.16887e-05
1.17492e-05
1.18071e-05
1.18625e-05
1.19155e-05
1.19661e-05
1.20143e-05
1.20599e-05
1.21024e-05
1.21409e-05
1.21739e-05
1.22031e-05
1.22989e-05
1.22866e-05
1.22747e-05
1.22738e-05
1.22909e-05
1.23292e-05
1.23864e-05
1.24536e-05
1.25152e-05
1.25482e-05
1.25278e-05
1.24392e-05
1.22881e-05
1.20975e-05
1.18967e-05
1.17155e-05
1.15792e-05
1.15025e-05
1.14854e-05
1.15147e-05
8.04591e-06
1.01057e-05
1.02386e-05
1.03645e-05
1.04844e-05
1.05986e-05
1.07076e-05
1.08116e-05
1.09107e-05
1.10052e-05
1.10953e-05
1.11813e-05
1.12634e-05
1.13418e-05
1.14167e-05
1.14884e-05
1.1557e-05
1.16226e-05
1.16854e-05
1.17456e-05
1.18031e-05
1.18581e-05
1.19106e-05
1.19607e-05
1.20083e-05
1.20532e-05
1.20949e-05
1.21327e-05
1.21654e-05
1.2195e-05
1.22933e-05
1.22844e-05
1.22773e-05
1.22819e-05
1.23045e-05
1.2347e-05
1.24064e-05
1.24733e-05
1.25314e-05
1.25574e-05
1.25268e-05
1.24274e-05
1.22693e-05
1.20785e-05
1.18845e-05
1.17146e-05
1.15908e-05
1.15244e-05
1.15134e-05
1.15429e-05
8.04331e-06
1.0104e-05
1.02369e-05
1.03627e-05
1.04826e-05
1.05968e-05
1.07058e-05
1.08097e-05
1.09088e-05
1.10032e-05
1.10933e-05
1.11792e-05
1.12612e-05
1.13395e-05
1.14143e-05
1.14858e-05
1.15542e-05
1.16196e-05
1.16822e-05
1.1742e-05
1.17992e-05
1.18539e-05
1.1906e-05
1.19555e-05
1.20026e-05
1.20469e-05
1.2088e-05
1.21253e-05
1.21579e-05
1.21881e-05
1.22891e-05
1.22834e-05
1.22807e-05
1.22902e-05
1.23173e-05
1.2363e-05
1.24237e-05
1.24895e-05
1.25434e-05
1.25617e-05
1.25205e-05
1.24105e-05
1.22461e-05
1.20562e-05
1.187e-05
1.17124e-05
1.1602e-05
1.15468e-05
1.15422e-05
1.15721e-05
8.04064e-06
1.01022e-05
1.02351e-05
1.03609e-05
1.04807e-05
1.0595e-05
1.07039e-05
1.08078e-05
1.09068e-05
1.10012e-05
1.10912e-05
1.1177e-05
1.1259e-05
1.13371e-05
1.14118e-05
1.14832e-05
1.15514e-05
1.16166e-05
1.1679e-05
1.17386e-05
1.17955e-05
1.18498e-05
1.19015e-05
1.19507e-05
1.19973e-05
1.20411e-05
1.20817e-05
1.21187e-05
1.21514e-05
1.21823e-05
1.22861e-05
1.22834e-05
1.22846e-05
1.22984e-05
1.23292e-05
1.23773e-05
1.24384e-05
1.25021e-05
1.25511e-05
1.25611e-05
1.25091e-05
1.23889e-05
1.22189e-05
1.20306e-05
1.18531e-05
1.17086e-05
1.16122e-05
1.15687e-05
1.15708e-05
1.16015e-05
8.0379e-06
1.01005e-05
1.02333e-05
1.03591e-05
1.04789e-05
1.05931e-05
1.0702e-05
1.08059e-05
1.09048e-05
1.09992e-05
1.10891e-05
1.11749e-05
1.12568e-05
1.13349e-05
1.14094e-05
1.14807e-05
1.15488e-05
1.16138e-05
1.1676e-05
1.17353e-05
1.1792e-05
1.1846e-05
1.18974e-05
1.19462e-05
1.19924e-05
1.20358e-05
1.20762e-05
1.2113e-05
1.21459e-05
1.21776e-05
1.22841e-05
1.22843e-05
1.2289e-05
1.23065e-05
1.23401e-05
1.23897e-05
1.24504e-05
1.25113e-05
1.25546e-05
1.25559e-05
1.24932e-05
1.23633e-05
1.21883e-05
1.20022e-05
1.18339e-05
1.17029e-05
1.16208e-05
1.15893e-05
1.15985e-05
1.16301e-05
8.03511e-06
1.00987e-05
1.02315e-05
1.03573e-05
1.04771e-05
1.05913e-05
1.07002e-05
1.0804e-05
1.09029e-05
1.09972e-05
1.10871e-05
1.11729e-05
1.12546e-05
1.13327e-05
1.14071e-05
1.14783e-05
1.15462e-05
1.16111e-05
1.16731e-05
1.17323e-05
1.17887e-05
1.18425e-05
1.18936e-05
1.19421e-05
1.1988e-05
1.20311e-05
1.20713e-05
1.21081e-05
1.21413e-05
1.2174e-05
1.2283e-05
1.22858e-05
1.22938e-05
1.23142e-05
1.23501e-05
1.24005e-05
1.24599e-05
1.25173e-05
1.25542e-05
1.25464e-05
1.24733e-05
1.23343e-05
1.21551e-05
1.19717e-05
1.18128e-05
1.16953e-05
1.16277e-05
1.16082e-05
1.16245e-05
1.16573e-05
8.03227e-06
1.00969e-05
1.02297e-05
1.03555e-05
1.04753e-05
1.05895e-05
1.06983e-05
1.08021e-05
1.0901e-05
1.09953e-05
1.10852e-05
1.11709e-05
1.12526e-05
1.13305e-05
1.1405e-05
1.1476e-05
1.15438e-05
1.16086e-05
1.16704e-05
1.17294e-05
1.17857e-05
1.18392e-05
1.18902e-05
1.19385e-05
1.19841e-05
1.20271e-05
1.20671e-05
1.2104e-05
1.21376e-05
1.21712e-05
1.22827e-05
1.2288e-05
1.22987e-05
1.23217e-05
1.23591e-05
1.24096e-05
1.24671e-05
1.25202e-05
1.25503e-05
1.25334e-05
1.24503e-05
1.23031e-05
1.21203e-05
1.194e-05
1.17903e-05
1.16862e-05
1.16326e-05
1.16249e-05
1.16483e-05
1.16827e-05
8.02937e-06
1.00951e-05
1.02279e-05
1.03537e-05
1.04735e-05
1.05877e-05
1.06965e-05
1.08003e-05
1.08992e-05
1.09935e-05
1.10833e-05
1.1169e-05
1.12506e-05
1.13286e-05
1.14029e-05
1.14739e-05
1.15416e-05
1.16063e-05
1.1668e-05
1.17268e-05
1.17829e-05
1.18363e-05
1.18871e-05
1.19352e-05
1.19807e-05
1.20235e-05
1.20636e-05
1.21006e-05
1.21348e-05
1.21693e-05
1.22831e-05
1.22906e-05
1.23038e-05
1.23288e-05
1.23673e-05
1.24173e-05
1.24723e-05
1.25206e-05
1.25435e-05
1.25175e-05
1.24251e-05
1.22706e-05
1.2085e-05
1.19079e-05
1.17672e-05
1.16758e-05
1.16357e-05
1.16392e-05
1.16696e-05
1.17061e-05
8.02644e-06
1.00934e-05
1.02262e-05
1.0352e-05
1.04717e-05
1.05859e-05
1.06948e-05
1.07985e-05
1.08974e-05
1.09917e-05
1.10815e-05
1.11672e-05
1.12488e-05
1.13267e-05
1.1401e-05
1.14719e-05
1.15396e-05
1.16041e-05
1.16658e-05
1.17245e-05
1.17805e-05
1.18338e-05
1.18844e-05
1.19324e-05
1.19778e-05
1.20206e-05
1.20607e-05
1.2098e-05
1.21327e-05
1.21682e-05
1.22842e-05
1.22937e-05
1.2309e-05
1.23357e-05
1.23748e-05
1.24237e-05
1.24757e-05
1.25188e-05
1.25342e-05
1.24994e-05
1.23984e-05
1.22378e-05
1.20501e-05
1.18763e-05
1.17441e-05
1.16646e-05
1.16371e-05
1.16512e-05
1.16883e-05
1.17272e-05
8.02351e-06
1.00916e-05
1.02244e-05
1.03502e-05
1.047e-05
1.05842e-05
1.06931e-05
1.07969e-05
1.08958e-05
1.099e-05
1.10799e-05
1.11655e-05
1.12471e-05
1.1325e-05
1.13993e-05
1.14701e-05
1.15377e-05
1.16023e-05
1.16638e-05
1.17225e-05
1.17784e-05
1.18316e-05
1.18821e-05
1.19301e-05
1.19754e-05
1.20182e-05
1.20584e-05
1.2096e-05
1.21313e-05
1.21677e-05
1.22859e-05
1.22972e-05
1.23143e-05
1.23423e-05
1.23816e-05
1.24292e-05
1.24778e-05
1.25153e-05
1.25232e-05
1.24798e-05
1.23711e-05
1.22053e-05
1.20165e-05
1.18461e-05
1.17218e-05
1.16532e-05
1.16371e-05
1.16609e-05
1.17043e-05
1.17461e-05
8.02067e-06
1.00899e-05
1.02227e-05
1.03486e-05
1.04684e-05
1.05826e-05
1.06915e-05
1.07953e-05
1.08942e-05
1.09885e-05
1.10784e-05
1.1164e-05
1.12456e-05
1.13235e-05
1.13977e-05
1.14685e-05
1.15361e-05
1.16006e-05
1.16621e-05
1.17207e-05
1.17766e-05
1.18297e-05
1.18802e-05
1.19281e-05
1.19735e-05
1.20164e-05
1.20567e-05
1.20947e-05
1.21305e-05
1.21679e-05
1.2288e-05
1.23011e-05
1.23198e-05
1.23489e-05
1.23881e-05
1.24339e-05
1.24789e-05
1.25106e-05
1.25108e-05
1.24593e-05
1.23436e-05
1.21739e-05
1.19848e-05
1.18179e-05
1.1701e-05
1.16421e-05
1.16363e-05
1.16687e-05
1.17181e-05
1.17629e-05
8.01799e-06
1.00882e-05
1.02211e-05
1.0347e-05
1.04668e-05
1.05811e-05
1.069e-05
1.07939e-05
1.08928e-05
1.09871e-05
1.1077e-05
1.11626e-05
1.12443e-05
1.13221e-05
1.13964e-05
1.14672e-05
1.15347e-05
1.15992e-05
1.16607e-05
1.17193e-05
1.17751e-05
1.18282e-05
1.18787e-05
1.19266e-05
1.19721e-05
1.2015e-05
1.20556e-05
1.2094e-05
1.21304e-05
1.21688e-05
1.22907e-05
1.23054e-05
1.23256e-05
1.23554e-05
1.23943e-05
1.24382e-05
1.24793e-05
1.2505e-05
1.24976e-05
1.24382e-05
1.23165e-05
1.2144e-05
1.19554e-05
1.17924e-05
1.16821e-05
1.16319e-05
1.1635e-05
1.1675e-05
1.17298e-05
1.1778e-05
8.01557e-06
1.00867e-05
1.02196e-05
1.03456e-05
1.04655e-05
1.05798e-05
1.06887e-05
1.07926e-05
1.08916e-05
1.09859e-05
1.10758e-05
1.11614e-05
1.12431e-05
1.1321e-05
1.13952e-05
1.1466e-05
1.15336e-05
1.15981e-05
1.16595e-05
1.17181e-05
1.17739e-05
1.1827e-05
1.18776e-05
1.19256e-05
1.19711e-05
1.20142e-05
1.20551e-05
1.20938e-05
1.21309e-05
1.21702e-05
1.22939e-05
1.23101e-05
1.23316e-05
1.23621e-05
1.24004e-05
1.24422e-05
1.24794e-05
1.2499e-05
1.2484e-05
1.24171e-05
1.22902e-05
1.21158e-05
1.19287e-05
1.17698e-05
1.16658e-05
1.16232e-05
1.1634e-05
1.16805e-05
1.17401e-05
1.17916e-05
8.01347e-06
1.00854e-05
1.02183e-05
1.03443e-05
1.04642e-05
1.05786e-05
1.06876e-05
1.07915e-05
1.08905e-05
1.09848e-05
1.10748e-05
1.11605e-05
1.12421e-05
1.132e-05
1.13943e-05
1.14651e-05
1.15327e-05
1.15972e-05
1.16586e-05
1.17172e-05
1.17731e-05
1.18262e-05
1.18768e-05
1.19249e-05
1.19705e-05
1.20139e-05
1.2055e-05
1.20942e-05
1.2132e-05
1.21722e-05
1.22976e-05
1.23153e-05
1.23379e-05
1.2369e-05
1.24067e-05
1.24464e-05
1.24793e-05
1.24928e-05
1.24703e-05
1.23963e-05
1.22647e-05
1.20896e-05
1.1905e-05
1.17506e-05
1.16524e-05
1.16165e-05
1.16337e-05
1.16857e-05
1.17494e-05
1.18042e-05
8.01171e-06
1.00843e-05
1.02172e-05
1.03432e-05
1.04632e-05
1.05776e-05
1.06866e-05
1.07905e-05
1.08896e-05
1.0984e-05
1.10739e-05
1.11597e-05
1.12414e-05
1.13193e-05
1.13936e-05
1.14645e-05
1.15321e-05
1.15965e-05
1.16581e-05
1.17167e-05
1.17726e-05
1.18258e-05
1.18764e-05
1.19246e-05
1.19704e-05
1.2014e-05
1.20555e-05
1.20951e-05
1.21336e-05
1.21747e-05
1.23019e-05
1.23209e-05
1.23447e-05
1.23763e-05
1.24133e-05
1.24507e-05
1.24795e-05
1.24867e-05
1.24568e-05
1.23758e-05
1.22404e-05
1.20654e-05
1.18842e-05
1.17348e-05
1.16423e-05
1.16123e-05
1.16348e-05
1.16911e-05
1.17584e-05
1.18162e-05
8.0103e-06
1.00834e-05
1.02163e-05
1.03424e-05
1.04623e-05
1.05768e-05
1.06858e-05
1.07898e-05
1.08889e-05
1.09833e-05
1.10733e-05
1.11591e-05
1.12408e-05
1.13188e-05
1.13931e-05
1.1464e-05
1.15317e-05
1.15962e-05
1.16577e-05
1.17164e-05
1.17724e-05
1.18257e-05
1.18764e-05
1.19248e-05
1.19708e-05
1.20146e-05
1.20564e-05
1.20966e-05
1.21358e-05
1.21779e-05
1.23066e-05
1.23271e-05
1.23521e-05
1.2384e-05
1.24204e-05
1.24555e-05
1.248e-05
1.24809e-05
1.24435e-05
1.2356e-05
1.22174e-05
1.20434e-05
1.18664e-05
1.17225e-05
1.16357e-05
1.16108e-05
1.16378e-05
1.16975e-05
1.17675e-05
1.1828e-05
8.00924e-06
1.00827e-05
1.02156e-05
1.03417e-05
1.04617e-05
1.05761e-05
1.06853e-05
1.07893e-05
1.08884e-05
1.09829e-05
1.10729e-05
1.11587e-05
1.12405e-05
1.13185e-05
1.13929e-05
1.14638e-05
1.15315e-05
1.15961e-05
1.16577e-05
1.17165e-05
1.17725e-05
1.18259e-05
1.18768e-05
1.19253e-05
1.19715e-05
1.20156e-05
1.20578e-05
1.20985e-05
1.21385e-05
1.21815e-05
1.23119e-05
1.23338e-05
1.23599e-05
1.23923e-05
1.2428e-05
1.24607e-05
1.24808e-05
1.24753e-05
1.24305e-05
1.23369e-05
1.21957e-05
1.20235e-05
1.18516e-05
1.17138e-05
1.16327e-05
1.16126e-05
1.16431e-05
1.17053e-05
1.17773e-05
1.18399e-05
8.00856e-06
1.00822e-05
1.02151e-05
1.03412e-05
1.04613e-05
1.05757e-05
1.06849e-05
1.07889e-05
1.08881e-05
1.09826e-05
1.10727e-05
1.11585e-05
1.12404e-05
1.13184e-05
1.13929e-05
1.14639e-05
1.15316e-05
1.15963e-05
1.16579e-05
1.17168e-05
1.17729e-05
1.18264e-05
1.18774e-05
1.19261e-05
1.19726e-05
1.2017e-05
1.20597e-05
1.2101e-05
1.21417e-05
1.21858e-05
1.23178e-05
1.23411e-05
1.23684e-05
1.24013e-05
1.24363e-05
1.24666e-05
1.24822e-05
1.24701e-05
1.2418e-05
1.23186e-05
1.21753e-05
1.20059e-05
1.18398e-05
1.17087e-05
1.16334e-05
1.16176e-05
1.16509e-05
1.17148e-05
1.1788e-05
1.18523e-05
8.00825e-06
1.00819e-05
1.02149e-05
1.0341e-05
1.0461e-05
1.05755e-05
1.06847e-05
1.07888e-05
1.0888e-05
1.09826e-05
1.10727e-05
1.11586e-05
1.12405e-05
1.13186e-05
1.13931e-05
1.14641e-05
1.1532e-05
1.15967e-05
1.16584e-05
1.17174e-05
1.17736e-05
1.18272e-05
1.18784e-05
1.19273e-05
1.19741e-05
1.20189e-05
1.2062e-05
1.21039e-05
1.21454e-05
1.21906e-05
1.23242e-05
1.2349e-05
1.23775e-05
1.2411e-05
1.24452e-05
1.24731e-05
1.2484e-05
1.24652e-05
1.24058e-05
1.2301e-05
1.21566e-05
1.19905e-05
1.1831e-05
1.17072e-05
1.16378e-05
1.1626e-05
1.16615e-05
1.17263e-05
1.18001e-05
1.18652e-05
8.00831e-06
1.00819e-05
1.02148e-05
1.03409e-05
1.0461e-05
1.05756e-05
1.06848e-05
1.07889e-05
1.08881e-05
1.09827e-05
1.10729e-05
1.11589e-05
1.12408e-05
1.1319e-05
1.13935e-05
1.14646e-05
1.15325e-05
1.15973e-05
1.16592e-05
1.17182e-05
1.17745e-05
1.18284e-05
1.18797e-05
1.19289e-05
1.19759e-05
1.20211e-05
1.20647e-05
1.21072e-05
1.21496e-05
1.21959e-05
1.23311e-05
1.23575e-05
1.23874e-05
1.24213e-05
1.24549e-05
1.24801e-05
1.2486e-05
1.24604e-05
1.2394e-05
1.22843e-05
1.21394e-05
1.19776e-05
1.18254e-05
1.17092e-05
1.16459e-05
1.16379e-05
1.16751e-05
1.174e-05
1.18134e-05
1.18787e-05
8.00875e-06
1.0082e-05
1.02149e-05
1.0341e-05
1.04612e-05
1.05758e-05
1.0685e-05
1.07892e-05
1.08885e-05
1.09831e-05
1.10733e-05
1.11593e-05
1.12413e-05
1.13195e-05
1.13941e-05
1.14653e-05
1.15333e-05
1.15982e-05
1.16601e-05
1.17193e-05
1.17758e-05
1.18297e-05
1.18813e-05
1.19307e-05
1.1978e-05
1.20236e-05
1.20677e-05
1.2111e-05
1.21543e-05
1.22018e-05
1.23385e-05
1.23667e-05
1.23978e-05
1.24324e-05
1.24652e-05
1.24876e-05
1.24882e-05
1.24557e-05
1.23823e-05
1.22685e-05
1.21239e-05
1.19672e-05
1.18228e-05
1.17147e-05
1.16576e-05
1.16532e-05
1.16914e-05
1.17558e-05
1.18282e-05
1.18928e-05
8.00955e-06
1.00823e-05
1.02153e-05
1.03414e-05
1.04616e-05
1.05761e-05
1.06854e-05
1.07896e-05
1.0889e-05
1.09836e-05
1.10739e-05
1.11599e-05
1.1242e-05
1.13203e-05
1.1395e-05
1.14662e-05
1.15343e-05
1.15992e-05
1.16613e-05
1.17206e-05
1.17772e-05
1.18314e-05
1.18832e-05
1.19328e-05
1.19805e-05
1.20265e-05
1.20711e-05
1.21152e-05
1.21595e-05
1.22081e-05
1.23465e-05
1.23764e-05
1.2409e-05
1.24441e-05
1.24759e-05
1.24952e-05
1.24903e-05
1.24506e-05
1.23708e-05
1.22537e-05
1.21104e-05
1.19594e-05
1.18235e-05
1.17238e-05
1.16729e-05
1.16717e-05
1.17105e-05
1.17736e-05
1.18441e-05
1.19074e-05
8.01068e-06
1.00829e-05
1.02158e-05
1.03419e-05
1.04621e-05
1.05767e-05
1.0686e-05
1.07903e-05
1.08896e-05
1.09844e-05
1.10747e-05
1.11608e-05
1.12429e-05
1.13212e-05
1.1396e-05
1.14673e-05
1.15354e-05
1.16005e-05
1.16627e-05
1.17221e-05
1.17789e-05
1.18332e-05
1.18852e-05
1.19352e-05
1.19832e-05
1.20296e-05
1.20749e-05
1.21197e-05
1.2165e-05
1.22149e-05
1.23549e-05
1.23866e-05
1.24207e-05
1.24564e-05
1.24871e-05
1.25027e-05
1.24919e-05
1.24451e-05
1.23594e-05
1.22397e-05
1.20987e-05
1.19544e-05
1.18274e-05
1.17363e-05
1.16916e-05
1.16934e-05
1.17322e-05
1.17933e-05
1.18611e-05
1.19223e-05
8.01214e-06
1.00836e-05
1.02165e-05
1.03426e-05
1.04628e-05
1.05775e-05
1.06868e-05
1.07911e-05
1.08905e-05
1.09852e-05
1.10756e-05
1.11617e-05
1.12439e-05
1.13223e-05
1.13971e-05
1.14686e-05
1.15368e-05
1.16019e-05
1.16642e-05
1.17237e-05
1.17807e-05
1.18352e-05
1.18875e-05
1.19377e-05
1.19861e-05
1.2033e-05
1.20789e-05
1.21245e-05
1.21709e-05
1.22222e-05
1.23638e-05
1.23973e-05
1.24329e-05
1.2469e-05
1.24982e-05
1.25099e-05
1.24927e-05
1.24389e-05
1.23478e-05
1.22268e-05
1.20892e-05
1.19523e-05
1.18347e-05
1.17523e-05
1.17137e-05
1.1718e-05
1.17563e-05
1.18146e-05
1.18789e-05
1.19372e-05
8.01391e-06
1.00844e-05
1.02173e-05
1.03435e-05
1.04637e-05
1.05784e-05
1.06877e-05
1.0792e-05
1.08914e-05
1.09862e-05
1.10766e-05
1.11628e-05
1.12451e-05
1.13235e-05
1.13984e-05
1.14699e-05
1.15382e-05
1.16035e-05
1.16659e-05
1.17256e-05
1.17827e-05
1.18374e-05
1.18899e-05
1.19404e-05
1.19892e-05
1.20366e-05
1.20832e-05
1.21296e-05
1.21771e-05
1.22298e-05
1.23729e-05
1.24085e-05
1.24455e-05
1.24818e-05
1.25091e-05
1.25162e-05
1.24923e-05
1.24317e-05
1.23361e-05
1.22149e-05
1.20818e-05
1.19531e-05
1.18452e-05
1.17716e-05
1.17389e-05
1.17454e-05
1.17824e-05
1.18372e-05
1.18972e-05
1.19518e-05
8.01601e-06
1.00855e-05
1.02183e-05
1.03445e-05
1.04647e-05
1.05794e-05
1.06888e-05
1.07931e-05
1.08926e-05
1.09874e-05
1.10778e-05
1.11641e-05
1.12464e-05
1.13249e-05
1.13998e-05
1.14714e-05
1.15398e-05
1.16052e-05
1.16677e-05
1.17275e-05
1.17848e-05
1.18397e-05
1.18925e-05
1.19433e-05
1.19925e-05
1.20404e-05
1.20876e-05
1.2135e-05
1.21836e-05
1.22377e-05
1.23824e-05
1.24199e-05
1.24582e-05
1.24946e-05
1.25194e-05
1.25213e-05
1.24905e-05
1.24233e-05
1.23242e-05
1.2204e-05
1.20766e-05
1.19569e-05
1.18591e-05
1.17941e-05
1.1767e-05
1.17752e-05
1.18102e-05
1.18608e-05
1.19157e-05
1.1966e-05
8.01841e-06
1.00867e-05
1.02195e-05
1.03456e-05
1.04659e-05
1.05806e-05
1.069e-05
1.07943e-05
1.08938e-05
1.09886e-05
1.10791e-05
1.11654e-05
1.12477e-05
1.13263e-05
1.14013e-05
1.1473e-05
1.15415e-05
1.16069e-05
1.16695e-05
1.17295e-05
1.1787e-05
1.18421e-05
1.18951e-05
1.19462e-05
1.19958e-05
1.20442e-05
1.20922e-05
1.21404e-05
1.21903e-05
1.22458e-05
1.23921e-05
1.24315e-05
1.24711e-05
1.25069e-05
1.25287e-05
1.25247e-05
1.24867e-05
1.24135e-05
1.2312e-05
1.21942e-05
1.20735e-05
1.19635e-05
1.1876e-05
1.18197e-05
1.17978e-05
1.18072e-05
1.18396e-05
1.18851e-05
1.19341e-05
1.19794e-05
8.02107e-06
1.0088e-05
1.02208e-05
1.03469e-05
1.04671e-05
1.05818e-05
1.06912e-05
1.07956e-05
1.08951e-05
1.099e-05
1.10805e-05
1.11668e-05
1.12492e-05
1.13278e-05
1.14029e-05
1.14746e-05
1.15432e-05
1.16087e-05
1.16715e-05
1.17316e-05
1.17892e-05
1.18445e-05
1.18978e-05
1.19492e-05
1.19992e-05
1.20482e-05
1.20968e-05
1.2146e-05
1.2197e-05
1.22541e-05
1.24018e-05
1.24431e-05
1.24836e-05
1.25185e-05
1.25365e-05
1.25261e-05
1.24808e-05
1.24023e-05
1.22995e-05
1.21853e-05
1.20725e-05
1.19729e-05
1.1896e-05
1.18482e-05
1.18311e-05
1.1841e-05
1.18703e-05
1.19099e-05
1.19523e-05
1.19919e-05
8.02394e-06
1.00894e-05
1.02222e-05
1.03483e-05
1.04685e-05
1.05832e-05
1.06926e-05
1.07969e-05
1.08965e-05
1.09914e-05
1.10819e-05
1.11683e-05
1.12507e-05
1.13293e-05
1.14045e-05
1.14763e-05
1.15449e-05
1.16105e-05
1.16734e-05
1.17336e-05
1.17914e-05
1.18469e-05
1.19004e-05
1.19522e-05
1.20026e-05
1.20521e-05
1.21014e-05
1.21516e-05
1.22038e-05
1.22624e-05
1.24115e-05
1.24545e-05
1.24957e-05
1.2529e-05
1.25424e-05
1.25251e-05
1.24727e-05
1.23895e-05
1.22867e-05
1.21775e-05
1.20736e-05
1.19849e-05
1.19187e-05
1.18792e-05
1.18666e-05
1.18765e-05
1.19019e-05
1.19351e-05
1.19703e-05
1.20035e-05
8.02695e-06
1.00909e-05
1.02236e-05
1.03497e-05
1.04699e-05
1.05846e-05
1.0694e-05
1.07983e-05
1.08978e-05
1.09928e-05
1.10833e-05
1.11697e-05
1.12522e-05
1.13309e-05
1.14061e-05
1.14779e-05
1.15466e-05
1.16123e-05
1.16753e-05
1.17356e-05
1.17936e-05
1.18493e-05
1.1903e-05
1.19551e-05
1.20059e-05
1.20559e-05
1.2106e-05
1.21571e-05
1.22106e-05
1.22706e-05
1.24209e-05
1.24656e-05
1.2507e-05
1.2538e-05
1.25461e-05
1.25214e-05
1.24621e-05
1.23753e-05
1.22737e-05
1.21706e-05
1.20765e-05
1.19992e-05
1.19438e-05
1.19125e-05
1.19039e-05
1.19134e-05
1.19344e-05
1.19606e-05
1.1988e-05
1.20145e-05
8.03003e-06
1.00925e-05
1.02251e-05
1.03511e-05
1.04713e-05
1.0586e-05
1.06954e-05
1.07997e-05
1.08992e-05
1.09942e-05
1.10847e-05
1.11712e-05
1.12536e-05
1.13324e-05
1.14076e-05
1.14795e-05
1.15483e-05
1.16141e-05
1.16771e-05
1.17376e-05
1.17956e-05
1.18515e-05
1.19055e-05
1.19579e-05
1.20091e-05
1.20597e-05
1.21105e-05
1.21625e-05
1.22172e-05
1.22787e-05
1.24301e-05
1.24761e-05
1.25172e-05
1.25452e-05
1.25473e-05
1.2515e-05
1.24491e-05
1.23596e-05
1.22606e-05
1.21647e-05
1.20812e-05
1.20158e-05
1.19712e-05
1.19478e-05
1.19429e-05
1.19515e-05
1.19676e-05
1.19865e-05
1.20057e-05
1.2025e-05
8.0331e-06
1.0094e-05
1.02265e-05
1.03525e-05
1.04727e-05
1.05873e-05
1.06967e-05
1.08011e-05
1.09006e-05
1.09955e-05
1.10861e-05
1.11725e-05
1.1255e-05
1.13338e-05
1.14091e-05
1.1481e-05
1.15498e-05
1.16157e-05
1.16789e-05
1.17394e-05
1.17976e-05
1.18537e-05
1.19079e-05
1.19605e-05
1.20121e-05
1.20632e-05
1.21147e-05
1.21677e-05
1.22236e-05
1.22865e-05
1.24388e-05
1.24858e-05
1.25261e-05
1.25503e-05
1.25458e-05
1.25058e-05
1.2434e-05
1.23428e-05
1.22474e-05
1.21598e-05
1.20876e-05
1.20342e-05
1.20004e-05
1.19846e-05
1.1983e-05
1.19905e-05
1.20016e-05
1.20129e-05
1.20238e-05
1.20355e-05
8.03611e-06
1.00955e-05
1.02279e-05
1.03539e-05
1.0474e-05
1.05887e-05
1.0698e-05
1.08024e-05
1.09019e-05
1.09968e-05
1.10874e-05
1.11739e-05
1.12564e-05
1.13352e-05
1.14105e-05
1.14824e-05
1.15513e-05
1.16172e-05
1.16804e-05
1.17411e-05
1.17994e-05
1.18556e-05
1.191e-05
1.19629e-05
1.20149e-05
1.20665e-05
1.21186e-05
1.21726e-05
1.22296e-05
1.22938e-05
1.24468e-05
1.24944e-05
1.25333e-05
1.25531e-05
1.25416e-05
1.2494e-05
1.24169e-05
1.23251e-05
1.22343e-05
1.21558e-05
1.20953e-05
1.20542e-05
1.20311e-05
1.20227e-05
1.20242e-05
1.20302e-05
1.20362e-05
1.204e-05
1.20425e-05
1.20466e-05
8.03899e-06
1.00968e-05
1.02292e-05
1.03552e-05
1.04753e-05
1.05899e-05
1.06993e-05
1.08036e-05
1.09031e-05
1.0998e-05
1.10886e-05
1.11751e-05
1.12576e-05
1.13364e-05
1.14117e-05
1.14837e-05
1.15526e-05
1.16186e-05
1.16818e-05
1.17426e-05
1.1801e-05
1.18573e-05
1.19119e-05
1.1965e-05
1.20173e-05
1.20694e-05
1.21222e-05
1.2177e-05
1.22352e-05
1.23006e-05
1.24539e-05
1.25018e-05
1.25386e-05
1.25535e-05
1.25347e-05
1.24798e-05
1.23983e-05
1.23069e-05
1.22216e-05
1.21528e-05
1.21043e-05
1.20755e-05
1.20629e-05
1.20616e-05
1.20659e-05
1.20705e-05
1.20716e-05
1.20681e-05
1.20625e-05
1.2059e-05
8.04171e-06
1.00981e-05
1.02304e-05
1.03563e-05
1.04764e-05
1.0591e-05
1.07004e-05
1.08047e-05
1.09042e-05
1.09991e-05
1.10897e-05
1.11761e-05
1.12586e-05
1.13374e-05
1.14128e-05
1.14848e-05
1.15537e-05
1.16197e-05
1.1683e-05
1.17438e-05
1.18023e-05
1.18588e-05
1.19135e-05
1.19669e-05
1.20194e-05
1.2072e-05
1.21254e-05
1.2181e-05
1.22401e-05
1.23067e-05
1.246e-05
1.25076e-05
1.2542e-05
1.25514e-05
1.25253e-05
1.24636e-05
1.23785e-05
1.22884e-05
1.22094e-05
1.21507e-05
1.21144e-05
1.20978e-05
1.20954e-05
1.2101e-05
1.2108e-05
1.21112e-05
1.21077e-05
1.20975e-05
1.20842e-05
1.20733e-05
8.04422e-06
1.00992e-05
1.02315e-05
1.03573e-05
1.04774e-05
1.0592e-05
1.07013e-05
1.08056e-05
1.09051e-05
1.1e-05
1.10906e-05
1.1177e-05
1.12595e-05
1.13383e-05
1.14136e-05
1.14857e-05
1.15546e-05
1.16206e-05
1.1684e-05
1.17448e-05
1.18033e-05
1.18599e-05
1.19147e-05
1.19683e-05
1.20211e-05
1.20741e-05
1.21281e-05
1.21844e-05
1.22445e-05
1.23119e-05
1.24649e-05
1.25119e-05
1.25432e-05
1.2547e-05
1.25137e-05
1.24459e-05
1.2358e-05
1.227e-05
1.21979e-05
1.21496e-05
1.21254e-05
1.21207e-05
1.21283e-05
1.21404e-05
1.215e-05
1.21522e-05
1.21446e-05
1.21283e-05
1.2108e-05
1.20901e-05
8.04649e-06
1.01002e-05
1.02323e-05
1.03582e-05
1.04782e-05
1.05928e-05
1.07021e-05
1.08063e-05
1.09058e-05
1.10007e-05
1.10913e-05
1.11777e-05
1.12602e-05
1.1339e-05
1.14143e-05
1.14863e-05
1.15552e-05
1.16213e-05
1.16846e-05
1.17455e-05
1.1804e-05
1.18606e-05
1.19156e-05
1.19693e-05
1.20224e-05
1.20757e-05
1.21301e-05
1.21872e-05
1.2248e-05
1.23162e-05
1.24686e-05
1.25144e-05
1.25423e-05
1.25404e-05
1.25004e-05
1.24271e-05
1.23375e-05
1.22522e-05
1.21873e-05
1.21493e-05
1.2137e-05
1.21439e-05
1.2161e-05
1.21794e-05
1.21917e-05
1.21932e-05
1.21823e-05
1.2161e-05
1.21344e-05
1.21099e-05
8.04849e-06
1.01009e-05
1.0233e-05
1.03588e-05
1.04788e-05
1.05934e-05
1.07026e-05
1.08069e-05
1.09063e-05
1.10012e-05
1.10917e-05
1.11781e-05
1.12606e-05
1.13394e-05
1.14147e-05
1.14867e-05
1.15556e-05
1.16216e-05
1.1685e-05
1.17458e-05
1.18044e-05
1.1861e-05
1.1916e-05
1.19699e-05
1.20232e-05
1.20767e-05
1.21316e-05
1.21892e-05
1.22507e-05
1.23193e-05
1.24707e-05
1.25151e-05
1.25394e-05
1.25319e-05
1.24857e-05
1.24079e-05
1.23172e-05
1.22353e-05
1.21777e-05
1.21499e-05
1.21491e-05
1.21669e-05
1.21931e-05
1.22176e-05
1.22328e-05
1.22342e-05
1.22209e-05
1.21954e-05
1.21636e-05
1.21331e-05
8.05017e-06
1.01015e-05
1.02335e-05
1.03593e-05
1.04792e-05
1.05937e-05
1.0703e-05
1.08072e-05
1.09066e-05
1.10015e-05
1.1092e-05
1.11783e-05
1.12608e-05
1.13395e-05
1.14148e-05
1.14868e-05
1.15557e-05
1.16217e-05
1.1685e-05
1.17458e-05
1.18044e-05
1.1861e-05
1.1916e-05
1.197e-05
1.20234e-05
1.20772e-05
1.21324e-05
1.21904e-05
1.22523e-05
1.23213e-05
1.24714e-05
1.25139e-05
1.25345e-05
1.25217e-05
1.24702e-05
1.23888e-05
1.22978e-05
1.22195e-05
1.21691e-05
1.21511e-05
1.21611e-05
1.21894e-05
1.22241e-05
1.22545e-05
1.22728e-05
1.22748e-05
1.22602e-05
1.22318e-05
1.21957e-05
1.21599e-05
8.0515e-06
1.01019e-05
1.02338e-05
1.03595e-05
1.04794e-05
1.05939e-05
1.07031e-05
1.08073e-05
1.09067e-05
1.10015e-05
1.10919e-05
1.11783e-05
1.12607e-05
1.13394e-05
1.14146e-05
1.14866e-05
1.15554e-05
1.16214e-05
1.16846e-05
1.17454e-05
1.18039e-05
1.18606e-05
1.19156e-05
1.19695e-05
1.2023e-05
1.2077e-05
1.21325e-05
1.21908e-05
1.2253e-05
1.23219e-05
1.24704e-05
1.2511e-05
1.25278e-05
1.25103e-05
1.24542e-05
1.23702e-05
1.22796e-05
1.22051e-05
1.21616e-05
1.21527e-05
1.21728e-05
1.22106e-05
1.22533e-05
1.22895e-05
1.23112e-05
1.23148e-05
1.22999e-05
1.22697e-05
1.22304e-05
1.21901e-05
8.05244e-06
1.0102e-05
1.02338e-05
1.03595e-05
1.04794e-05
1.05938e-05
1.0703e-05
1.08071e-05
1.09065e-05
1.10012e-05
1.10916e-05
1.11779e-05
1.12603e-05
1.1339e-05
1.14142e-05
1.1486e-05
1.15548e-05
1.16207e-05
1.16839e-05
1.17446e-05
1.18031e-05
1.18597e-05
1.19146e-05
1.19686e-05
1.20221e-05
1.20761e-05
1.21318e-05
1.21903e-05
1.22526e-05
1.23212e-05
1.2468e-05
1.25062e-05
1.25196e-05
1.24979e-05
1.24383e-05
1.23525e-05
1.22629e-05
1.21923e-05
1.21552e-05
1.21546e-05
1.21837e-05
1.22302e-05
1.22802e-05
1.23219e-05
1.23476e-05
1.23535e-05
1.23396e-05
1.23089e-05
1.22675e-05
1.22234e-05
8.05294e-06
1.01018e-05
1.02336e-05
1.03592e-05
1.0479e-05
1.05934e-05
1.07025e-05
1.08066e-05
1.0906e-05
1.10007e-05
1.10911e-05
1.11773e-05
1.12596e-05
1.13382e-05
1.14134e-05
1.14852e-05
1.15539e-05
1.16197e-05
1.16828e-05
1.17434e-05
1.18018e-05
1.18583e-05
1.19132e-05
1.19671e-05
1.20206e-05
1.20746e-05
1.21303e-05
1.21888e-05
1.2251e-05
1.23192e-05
1.24639e-05
1.24999e-05
1.25101e-05
1.2485e-05
1.24228e-05
1.23362e-05
1.2248e-05
1.21811e-05
1.21498e-05
1.21564e-05
1.21934e-05
1.22474e-05
1.2304e-05
1.23511e-05
1.23811e-05
1.23903e-05
1.23785e-05
1.23486e-05
1.23063e-05
1.22594e-05
8.05295e-06
1.01014e-05
1.0233e-05
1.03586e-05
1.04784e-05
1.05927e-05
1.07018e-05
1.08059e-05
1.09052e-05
1.09998e-05
1.10902e-05
1.11764e-05
1.12586e-05
1.13372e-05
1.14122e-05
1.1484e-05
1.15526e-05
1.16183e-05
1.16813e-05
1.17418e-05
1.18001e-05
1.18565e-05
1.19113e-05
1.19651e-05
1.20185e-05
1.20724e-05
1.21281e-05
1.21864e-05
1.22483e-05
1.23158e-05
1.24585e-05
1.24922e-05
1.24996e-05
1.24719e-05
1.24081e-05
1.23215e-05
1.2235e-05
1.21716e-05
1.21452e-05
1.21578e-05
1.22013e-05
1.22616e-05
1.2324e-05
1.23764e-05
1.24111e-05
1.24245e-05
1.24161e-05
1.23882e-05
1.23461e-05
1.22976e-05
8.05245e-06
1.01007e-05
1.02322e-05
1.03577e-05
1.04775e-05
1.05918e-05
1.07008e-05
1.08049e-05
1.09041e-05
1.09987e-05
1.1089e-05
1.11751e-05
1.12573e-05
1.13358e-05
1.14108e-05
1.14824e-05
1.1551e-05
1.16166e-05
1.16795e-05
1.17399e-05
1.1798e-05
1.18542e-05
1.19089e-05
1.19625e-05
1.20158e-05
1.20696e-05
1.2125e-05
1.21832e-05
1.22445e-05
1.23112e-05
1.24516e-05
1.24832e-05
1.24882e-05
1.24587e-05
1.23944e-05
1.23086e-05
1.22242e-05
1.21638e-05
1.21413e-05
1.21586e-05
1.2207e-05
1.22725e-05
1.23398e-05
1.23972e-05
1.2437e-05
1.24553e-05
1.24513e-05
1.24267e-05
1.23862e-05
1.2337e-05
8.05141e-06
1.00996e-05
1.02311e-05
1.03565e-05
1.04762e-05
1.05905e-05
1.06995e-05
1.08035e-05
1.09027e-05
1.09973e-05
1.10875e-05
1.11735e-05
1.12557e-05
1.13341e-05
1.1409e-05
1.14805e-05
1.1549e-05
1.16145e-05
1.16772e-05
1.17375e-05
1.17955e-05
1.18515e-05
1.1906e-05
1.19594e-05
1.20125e-05
1.20661e-05
1.21213e-05
1.2179e-05
1.22397e-05
1.23053e-05
1.24437e-05
1.24731e-05
1.24763e-05
1.24459e-05
1.23819e-05
1.22977e-05
1.22155e-05
1.21577e-05
1.21381e-05
1.21586e-05
1.22105e-05
1.22796e-05
1.2351e-05
1.24131e-05
1.24582e-05
1.24822e-05
1.24836e-05
1.24634e-05
1.24256e-05
1.23771e-05
8.04982e-06
1.00982e-05
1.02296e-05
1.0355e-05
1.04747e-05
1.05889e-05
1.06979e-05
1.08018e-05
1.0901e-05
1.09955e-05
1.10857e-05
1.11717e-05
1.12537e-05
1.13321e-05
1.14069e-05
1.14783e-05
1.15466e-05
1.1612e-05
1.16746e-05
1.17347e-05
1.17926e-05
1.18484e-05
1.19027e-05
1.19559e-05
1.20087e-05
1.2062e-05
1.21168e-05
1.2174e-05
1.2234e-05
1.22984e-05
1.24347e-05
1.24622e-05
1.24641e-05
1.24335e-05
1.23708e-05
1.22887e-05
1.2209e-05
1.21534e-05
1.21356e-05
1.21577e-05
1.22115e-05
1.2283e-05
1.23576e-05
1.2424e-05
1.24746e-05
1.25047e-05
1.25122e-05
1.24974e-05
1.24636e-05
1.24169e-05
8.04773e-06
1.00966e-05
1.02278e-05
1.03532e-05
1.04728e-05
1.0587e-05
1.0696e-05
1.07999e-05
1.0899e-05
1.09934e-05
1.10835e-05
1.11695e-05
1.12515e-05
1.13297e-05
1.14044e-05
1.14758e-05