/*--------------------------------*- C++ -*----------------------------------*\
  =========                 |
  \\      /  F ield         | OpenFOAM: The Open Source CFD Toolbox
   \\    /   O peration     | Website:  https://openfoam.org
    \\  /    A nd           | Version:  9
     \\/     M anipulation  |
\*---------------------------------------------------------------------------*/
FoamFile
{
    format      ascii;
    class       surfaceScalarField;
    location    "0.14";
    object      alphaPhi0.water;
}
// * * * * * * * * * * * * * * * * * * * * * * * * * * * * * * * * * * * * * //

dimensions      [0 3 -1 0 0 0 0];

internalField   nonuniform List<scalar> 
9850
(
-1.21655e-22
1.1306e-21
-2.16541e-21
1.9034e-20
-1.68522e-20
1.80203e-19
-3.96575e-20
7.76434e-19
-1.08369e-18
2.22181e-18
-9.78835e-18
4.38787e-17
0
1.12257e-15
0
3.0542e-14
0
1.21923e-12
-1.74509e-12
3.53824e-11
8.26372e-12
5.88087e-10
1.59556e-09
5.25209e-10
4.10754e-08
1.18464e-07
-8.93727e-08
-9.66822e-07
-2.00029e-07
-2.03409e-06
-2.58262e-07
-2.16277e-06
-2.74256e-07
-2.15236e-06
-2.56827e-07
-2.20489e-06
-2.16948e-07
-2.31339e-06
-1.60249e-07
-2.43438e-06
-1.0342e-07
-2.06083e-06
-4.53694e-08
-1.9842e-06
6.76778e-09
-1.8613e-06
4.61236e-08
-1.70444e-06
7.0314e-08
-1.53523e-06
7.66722e-08
-1.37043e-06
5.82282e-08
-1.21358e-06
5.63917e-09
-1.04287e-06
-7.99605e-08
-8.12109e-07
-1.02954e-07
-3.45137e-07
-6.43767e-10
2.47447e-08
-7.11527e-11
4.1517e-10
1.08423e-10
1.83452e-09
0
5.80091e-10
0
7.69144e-11
0
1.8662e-11
0
4.37099e-12
0
9.86879e-13
0
2.20698e-13
0
4.99704e-14
0
1.15505e-14
1.33059e-16
2.2203e-15
1.56479e-16
8.10982e-16
1.28633e-16
5.6139e-16
8.70594e-17
3.86103e-16
5.11598e-17
2.37389e-16
2.72224e-17
1.31087e-16
1.32868e-17
6.53569e-17
5.67134e-18
3.13076e-17
9.35778e-18
-3.59849e-22
3.37977e-21
-6.92152e-21
6.20069e-20
-5.62525e-20
6.18424e-19
-1.58089e-19
2.91835e-18
-3.36815e-19
6.85674e-18
-3.91849e-18
3.26748e-17
0
7.79508e-16
0
2.37425e-14
0
1.15825e-12
-4.84001e-12
4.53983e-11
4.51065e-11
5.74905e-10
5.17961e-10
1.78503e-10
1.20643e-07
9.87148e-08
-2.17356e-08
-5.7783e-07
-1.93659e-07
-1.86215e-06
-2.60678e-07
-2.09579e-06
-2.67552e-07
-2.14549e-06
-2.4347e-07
-2.22897e-06
-2.08102e-07
-2.34876e-06
-1.65777e-07
-2.47671e-06
-1.2423e-07
-2.10238e-06
-8.02748e-08
-2.02815e-06
-4.0571e-08
-1.901e-06
-9.37137e-09
-1.73564e-06
1.04602e-08
-1.55506e-06
1.47442e-08
-1.37472e-06
-8.17577e-09
-1.19064e-06
-7.25023e-08
-9.78572e-07
-1.86659e-07
-6.96783e-07
-9.55367e-08
-1.4708e-07
-4.40913e-10
9.0019e-09
-4.20945e-10
3.59047e-10
-4.53455e-11
1.59766e-09
0
7.05919e-10
0
8.73571e-11
0
1.93058e-11
0
4.61582e-12
0
1.06242e-12
0
2.41403e-13
0
5.54554e-14
0
1.31366e-14
8.97943e-17
2.6218e-15
1.24735e-16
8.12699e-16
1.16607e-16
6.24116e-16
8.83036e-17
4.78635e-16
5.74154e-17
3.25628e-16
3.3255e-17
1.95197e-16
1.76299e-17
1.04567e-16
8.42498e-18
5.43138e-17
1.84966e-17
-9.47714e-22
9.02787e-21
-1.7211e-20
1.7179e-19
-1.51588e-19
1.68161e-18
-4.30902e-19
8.63884e-18
-9.18627e-19
2.32203e-17
-1.37945e-18
6.56884e-17
0
7.30153e-16
0
2.29879e-14
0
1.20722e-12
4.94869e-13
5.5688e-11
7.15859e-11
5.3705e-10
2.08967e-10
1.05448e-10
8.64118e-08
1.263e-08
1.43248e-07
-5.64114e-08
-1.35678e-07
-1.57583e-06
-2.34009e-07
-1.99747e-06
-2.40196e-07
-2.1393e-06
-2.0963e-07
-2.25954e-06
-1.78753e-07
-2.37964e-06
-1.53724e-07
-2.50174e-06
-1.32798e-07
-2.1233e-06
-1.10197e-07
-2.05075e-06
-8.97294e-08
-1.92147e-06
-7.67561e-08
-1.74861e-06
-7.48286e-08
-1.55699e-06
-8.89103e-08
-1.36063e-06
-1.27629e-07
-1.15192e-06
-1.96944e-07
-9.09168e-07
-2.73657e-07
-5.52916e-07
-9.54424e-09
2.45769e-09
-5.38186e-10
3.672e-10
-6.99422e-10
4.34907e-10
-1.99353e-10
1.2733e-09
-3.05593e-11
5.74253e-10
-6.15984e-13
7.79746e-11
0
2.10024e-11
0
4.99902e-12
0
1.18139e-12
0
2.71376e-13
0
6.39387e-14
0
1.55036e-14
5.43098e-17
3.32559e-15
9.14229e-17
8.50662e-16
9.46442e-17
6.92707e-16
7.9789e-17
5.76164e-16
5.65621e-17
4.23831e-16
3.49446e-17
2.70171e-16
1.97731e-17
1.5318e-16
1.03193e-17
8.48016e-17
3.1817e-17
-2.25135e-21
2.17222e-20
-3.71416e-20
4.17093e-19
-3.14405e-19
3.87626e-18
-1.12674e-18
2.07473e-17
-2.29995e-18
6.46889e-17
-3.49698e-18
1.71384e-16
0
1.07367e-15
0
3.01387e-14
0
1.40393e-12
1.94934e-12
6.06506e-11
7.86515e-11
4.97614e-10
8.55675e-11
7.89608e-11
1.13711e-08
1.39406e-09
2.94981e-07
1.45322e-07
-2.83217e-08
-1.14269e-06
-1.61974e-07
-1.86378e-06
-1.76733e-07
-2.12455e-06
-1.44754e-07
-2.29152e-06
-1.21488e-07
-2.4029e-06
-1.17836e-07
-2.50539e-06
-1.23169e-07
-2.11797e-06
-1.2862e-07
-2.0453e-06
-1.33736e-07
-1.91635e-06
-1.45548e-07
-1.7368e-06
-1.73821e-07
-1.52872e-06
-2.24325e-07
-1.31013e-06
-2.89807e-07
-1.08644e-06
-3.64708e-07
-8.32993e-07
-1.7226e-07
-3.74339e-07
-6.94335e-10
1.8227e-08
-4.90959e-10
1.22776e-10
-4.09324e-10
5.21744e-10
-2.77963e-10
4.79996e-10
-4.16483e-11
2.3784e-10
-5.01622e-12
7.6155e-11
-6.03679e-13
2.15942e-11
-1.72013e-14
5.28135e-12
0
1.32263e-12
0
3.1781e-13
0
7.70877e-14
0
1.92012e-14
2.80074e-17
4.56316e-15
5.68712e-17
9.90828e-16
6.53028e-17
7.74689e-16
6.10773e-17
6.75323e-16
4.66007e-17
5.22385e-16
3.05385e-17
3.49018e-16
1.84458e-17
2.08329e-16
1.03736e-17
1.21387e-16
4.85515e-17
-4.81218e-21
4.71472e-20
-7.1991e-20
8.97122e-19
-5.63589e-19
7.83256e-18
-2.20408e-18
4.19455e-17
-5.06408e-18
1.44781e-16
-7.10903e-18
4.30296e-16
0
2.08646e-15
0
4.36484e-14
1.22626e-13
1.43141e-12
5.66494e-12
5.83365e-11
3.74619e-11
2.15228e-10
1.78303e-11
7.42104e-11
1.28651e-09
1.0121e-10
3.08185e-07
1.46713e-07
1.53885e-07
-5.96857e-07
-6.89585e-09
-1.70263e-06
-4.58977e-08
-2.08554e-06
-3.93652e-08
-2.29805e-06
-3.44635e-08
-2.4078e-06
-5.64702e-08
-2.48338e-06
-9.23571e-08
-2.08208e-06
-1.30765e-07
-2.00689e-06
-1.64162e-07
-1.88295e-06
-1.98833e-07
-1.70213e-06
-2.53045e-07
-1.47451e-06
-3.36856e-07
-1.22632e-06
-4.32825e-07
-9.8943e-07
-3.9206e-07
-7.04298e-07
-2.14038e-08
-5.30149e-08
-3.26343e-10
2.01864e-10
-5.18365e-10
1.18375e-10
-3.98606e-10
4.23537e-10
-1.17933e-10
1.93568e-10
-3.33239e-11
9.79405e-11
-8.58129e-12
1.22694e-10
-1.50132e-12
2.13811e-11
-2.48498e-13
6.08597e-12
-3.55734e-14
1.42808e-12
-3.64721e-15
3.7747e-13
0
9.67258e-14
0
2.61636e-14
8.34748e-18
6.82062e-15
2.25746e-17
1.40978e-15
3.14175e-17
8.82949e-16
3.33792e-17
7.7046e-16
2.79611e-17
6.10722e-16
2.00182e-17
4.2504e-16
1.31263e-17
2.65211e-16
7.92623e-18
1.59545e-16
6.64103e-17
-9.23137e-21
9.28163e-20
-1.2676e-19
1.71838e-18
-8.98605e-19
1.41256e-17
-3.53527e-18
7.35941e-17
-9.07763e-18
2.71911e-16
-1.19209e-17
9.48411e-16
0
4.72767e-15
0
7.32198e-14
3.60796e-13
1.36809e-12
4.97658e-12
5.20644e-11
2.16122e-11
4.73142e-10
7.38486e-11
2.3073e-10
8.01538e-11
1.50527e-10
1.25778e-07
2.12645e-08
5.10459e-07
-1.6951e-07
2.76537e-07
-1.46201e-06
1.60068e-07
-1.96872e-06
1.08961e-07
-2.24692e-06
7.86903e-08
-2.37753e-06
2.67992e-08
-2.43149e-06
-4.02606e-08
-2.01502e-06
-1.14634e-07
-1.93251e-06
-1.79304e-07
-1.81826e-06
-2.2896e-07
-1.65244e-06
-2.8194e-07
-1.42131e-06
-3.58349e-07
-1.14838e-06
-4.11887e-07
-8.37959e-07
-8.5435e-08
-1.58306e-07
-9.94295e-10
-3.17357e-10
-2.8554e-10
1.94598e-11
-2.95841e-10
7.31935e-11
-2.69645e-10
2.92444e-10
-6.35041e-11
1.05536e-10
-4.12138e-11
1.0021e-10
-1.35112e-11
1.39105e-10
-2.32929e-12
2.27811e-11
-4.74936e-13
6.6268e-12
-9.14166e-14
1.66193e-12
-1.90095e-14
4.87848e-13
-3.88601e-15
1.32366e-13
-7.72117e-16
3.84614e-14
-1.08566e-16
1.0794e-14
-1.81171e-17
2.36655e-15
-5.50361e-18
1.04491e-15
-5.37693e-20
8.59755e-16
2.69429e-18
6.86454e-16
3.34555e-18
4.92184e-16
2.81718e-18
3.15392e-16
2.08985e-18
1.94226e-16
8.30107e-17
-1.59134e-20
1.66548e-19
-2.03098e-19
2.94634e-18
-1.30434e-18
2.29746e-17
-4.87376e-18
1.1527e-16
-1.36536e-17
4.43038e-16
-7.35992e-18
1.88873e-15
0
9.95549e-15
0
1.74114e-13
4.05351e-13
1.5452e-12
1.85456e-11
3.96548e-11
5.17527e-11
9.61718e-10
1.11856e-10
4.02362e-10
5.4659e-10
1.34408e-10
2.15603e-08
4.65916e-10
5.94325e-07
9.65972e-09
6.34982e-07
-9.12612e-07
4.22563e-07
-1.75004e-06
2.86547e-07
-2.11011e-06
2.07958e-07
-2.29881e-06
1.25184e-07
-2.34866e-06
3.07564e-08
-1.92053e-06
-7.69386e-08
-1.82466e-06
-1.79343e-07
-1.71555e-06
-2.56079e-07
-1.57455e-06
-2.99103e-07
-1.37298e-06
-3.73807e-07
-8.76669e-07
-9.04202e-08
-1.81203e-07
-6.72949e-10
-2.94807e-10
-7.38352e-11
-2.66966e-11
-5.66227e-11
7.85462e-12
-1.76053e-10
2.96421e-11
-9.10394e-11
5.1076e-12
-4.12221e-11
8.04342e-11
-4.21328e-11
1.25447e-10
-1.28976e-11
1.14587e-10
-3.02283e-12
3.31241e-11
-6.68791e-13
6.09466e-12
-1.66983e-13
2.2865e-12
-4.1627e-14
6.16009e-13
-1.06392e-14
1.85548e-13
-2.72549e-15
5.41165e-14
-5.67458e-16
1.55526e-14
-1.14019e-16
3.7435e-15
-5.35109e-17
1.2548e-15
-3.76402e-17
9.44158e-16
-2.73119e-17
7.52774e-16
-1.76846e-17
5.44197e-16
-1.12746e-17
3.54481e-16
-6.06645e-18
2.24642e-16
9.37784e-17
-2.47757e-20
2.73461e-19
-2.96283e-19
4.55414e-18
-1.75179e-18
3.40085e-17
-5.99065e-18
1.65519e-16
-1.94313e-17
6.51921e-16
0
3.59224e-15
0
2.00877e-14
6.52932e-15
2.82866e-13
5.48204e-13
2.8804e-12
1.13683e-11
4.46514e-11
1.20042e-10
9.26741e-10
2.28904e-11
2.92217e-10
4.42425e-11
1.60844e-10
4.64523e-10
3.8762e-11
1.49578e-08
0
6.77977e-07
-2.50366e-08
6.45904e-07
-1.04904e-06
4.57272e-07
-1.90725e-06
3.40645e-07
-2.17874e-06
2.28929e-07
-2.23483e-06
1.18572e-07
-1.80768e-06
-2.95391e-09
-1.69769e-06
-1.34738e-07
-1.57287e-06
-2.45108e-07
-1.37569e-06
-2.94359e-07
-7.09315e-07
-8.60885e-08
-1.21161e-07
-2.83421e-10
-6.08911e-10
-5.55865e-11
-9.27483e-11
-2.89416e-11
-4.04038e-11
-1.35891e-11
-2.35461e-13
-1.36393e-11
8.76448e-12
-2.48751e-11
3.23845e-12
-4.33113e-11
1.24799e-10
-3.97804e-11
1.20956e-10
-1.89945e-11
6.71766e-11
-3.50702e-12
3.75794e-11
-8.03679e-13
5.56093e-12
-2.42765e-13
2.35049e-12
-6.42724e-14
6.59315e-13
-1.81382e-14
1.95751e-13
-4.94366e-15
5.68927e-14
-1.17689e-15
1.63607e-14
-2.46557e-16
4.22678e-15
-1.07254e-16
1.40974e-15
-7.55703e-17
1.02623e-15
-5.69727e-17
8.11751e-16
-3.86013e-17
5.82512e-16
-2.56392e-17
3.84844e-16
-1.34033e-17
2.41009e-16
9.20366e-17
-3.50881e-20
4.12292e-19
-3.94649e-19
6.3974e-18
-2.21067e-18
4.62477e-17
-6.81928e-18
2.22777e-16
-2.45147e-17
8.96676e-16
0
6.53153e-15
0
5.82313e-14
1.77485e-14
3.47621e-13
8.45096e-13
4.18515e-12
3.96505e-12
6.56803e-11
7.55538e-11
9.35345e-10
2.87094e-11
3.29964e-10
3.11435e-11
1.51537e-10
3.29466e-10
3.54105e-10
6.23112e-10
2.05518e-11
1.30382e-08
-3.79884e-10
4.73215e-07
-1.41988e-08
5.63595e-07
-7.47441e-07
4.49802e-07
-1.50331e-06
3.12575e-07
-1.71327e-06
1.97867e-07
-1.28855e-06
1.01862e-07
-9.62338e-07
2.36818e-08
-5.69331e-07
-6.4282e-08
-2.43932e-07
-1.5995e-08
-4.96799e-09
-3.80203e-11
-2.50106e-09
-9.60652e-12
-7.89152e-11
-8.10185e-12
-2.08383e-11
-3.39727e-11
-2.43468e-11
-1.22029e-11
-2.1777e-12
-5.56096e-12
5.39986e-12
-2.66755e-11
8.76111e-12
-2.12406e-11
1.29881e-10
-2.43078e-11
1.07675e-10
-1.24657e-11
3.01927e-11
-3.94554e-12
2.70196e-11
-8.45508e-13
6.75361e-12
-2.65093e-13
1.95709e-12
-7.50628e-14
6.41492e-13
-2.14402e-14
1.82092e-13
-6.03494e-15
5.3497e-14
-1.50072e-15
1.53349e-14
-3.37097e-16
4.13196e-15
-1.56208e-16
1.42577e-15
-1.12877e-16
1.08318e-15
-8.60007e-17
8.50564e-16
-5.98492e-17
6.01728e-16
-3.9069e-17
3.95796e-16
-1.95913e-17
2.38132e-16
8.27112e-17
-4.55453e-20
5.71882e-19
-4.83153e-19
8.2226e-18
-2.64251e-18
5.82189e-17
-7.44281e-18
2.84313e-16
-4.73459e-18
1.18532e-15
-5.43769e-16
1.07919e-14
-4.88846e-19
1.33145e-13
7.86337e-15
4.69789e-13
1.16993e-12
3.72398e-12
6.17256e-12
1.09055e-10
1.13782e-10
9.01432e-10
3.9114e-11
4.051e-10
6.87452e-11
5.20404e-10
2.30033e-10
4.72691e-10
1.05753e-10
1.28298e-11
2.03371e-10
-8.83164e-11
1.80415e-09
-1.25858e-09
1.63006e-07
-5.52592e-09
1.90155e-07
-9.08327e-09
1.25757e-07
-8.97175e-09
7.67394e-08
-6.78049e-09
3.45354e-08
-3.7985e-09
5.87501e-09
-1.64967e-09
2.2058e-10
-2.90223e-10
-1.67702e-11
-3.50492e-10
-9.86301e-12
-1.85543e-10
4.63699e-13
-4.49455e-11
0
-1.53683e-12
-3.16427e-11
-1.07e-11
-3.47792e-12
2.73634e-11
-6.03453e-12
4.99173e-12
-2.38541e-11
7.5558e-12
-2.212e-11
1.15179e-10
-1.21751e-11
6.22914e-11
-5.90249e-12
1.90388e-11
-3.2698e-12
5.83281e-12
-9.27338e-13
8.36564e-12
-2.40459e-13
1.50743e-12
-7.75839e-14
5.79809e-13
-2.18575e-14
1.53704e-13
-6.26795e-15
4.42421e-14
-1.58373e-15
1.27954e-14
-3.7768e-16
3.55323e-15
-1.92181e-16
1.40523e-15
-1.43943e-16
1.09369e-15
-1.09884e-16
8.54346e-16
-7.64274e-17
5.99473e-16
-4.89712e-17
3.91399e-16
-2.29471e-17
2.25098e-16
6.61662e-17
-5.44205e-20
7.28994e-19
-5.47535e-19
9.69292e-18
-2.98669e-18
6.80088e-17
-8.21058e-18
3.43016e-16
0
1.50834e-15
0
1.45333e-14
-2.77107e-15
1.74595e-13
3.33994e-14
2.23261e-12
1.60319e-12
2.69843e-12
2.45018e-11
1.25911e-10
9.34679e-11
4.25271e-10
6.43103e-11
1.37565e-09
8.18006e-11
5.28027e-10
4.64952e-11
2.13473e-11
5.18588e-11
1.31265e-12
2.90239e-10
-5.58851e-11
4.19243e-10
-5.44483e-10
2.60114e-10
-7.18641e-10
2.70324e-10
-1.172e-09
1.94403e-10
-1.28671e-09
1.17756e-10
-8.59231e-10
4.88897e-11
-4.58044e-10
1.13805e-11
-1.84281e-10
8.4032e-12
-5.44484e-11
1.00463e-11
-5.45612e-11
3.36427e-13
-2.97513e-11
1.84586e-13
-9.82192e-12
0
-5.094e-13
-2.44879e-11
-1.31713e-12
-6.29571e-11
5.18474e-11
-1.02269e-11
1.85476e-10
-1.42846e-11
9.60609e-12
-1.2108e-11
1.74903e-11
-9.94326e-12
1.58422e-11
-3.06147e-12
2.64683e-11
-2.11232e-12
5.44558e-12
-8.63131e-13
4.11745e-12
-2.20954e-13
1.51465e-12
-6.93643e-14
3.82861e-13
-1.96167e-14
1.20607e-13
-5.48701e-15
3.10566e-14
-1.41321e-15
9.21664e-15
-3.81136e-16
2.84956e-15
-2.15725e-16
1.36521e-15
-1.67237e-16
1.0903e-15
-1.28003e-16
8.48022e-16
-8.90471e-17
5.89106e-16
-5.54345e-17
3.7543e-16
-2.26287e-17
1.98234e-16
4.44817e-17
-6.00714e-20
8.51291e-19
-5.79002e-19
1.05293e-17
-3.21367e-18
7.3789e-17
-8.94038e-18
3.86351e-16
0
1.77432e-15
0
1.67868e-14
-1.06918e-14
1.91071e-13
2.5092e-14
2.5826e-12
4.84505e-13
2.77232e-12
1.0868e-11
7.64067e-11
5.32702e-11
3.39063e-10
1.11767e-10
1.37952e-09
9.60396e-11
6.018e-10
1.22014e-11
6.85014e-12
2.77756e-11
-1.46003e-12
8.45686e-11
-4.00115e-11
1.40315e-10
-9.08278e-11
2.26393e-10
-1.86459e-10
1.78613e-10
-2.85915e-10
1.11433e-10
-2.55758e-10
4.13115e-11
-6.35808e-11
5.2501e-12
-2.63486e-11
4.67859e-13
-3.03161e-11
1.7134e-12
-1.37534e-11
4.43224e-13
-4.3119e-12
1.93922e-13
-1.25293e-12
9.97329e-14
-7.34191e-13
0
-1.87459e-13
-1.0582e-11
-1.44192e-13
-9.85199e-11
9.26806e-11
-6.14279e-12
4.75766e-10
-5.91485e-12
8.76012e-12
-3.76803e-12
1.50467e-11
-7.5733e-12
1.91265e-11
-3.71604e-12
2.80321e-11
-9.83587e-13
6.26881e-12
-5.28468e-13
1.0518e-12
-1.79517e-13
1.32569e-12
-4.67738e-14
1.72892e-13
-1.47256e-14
7.23303e-14
-3.88244e-15
1.83945e-14
-1.03504e-15
5.46125e-15
-3.52408e-16
2.1322e-15
-2.30964e-16
1.32222e-15
-1.86059e-16
1.08521e-15
-1.42137e-16
8.31619e-16
-9.75148e-17
5.66804e-16
-5.63546e-17
3.43161e-16
-1.80759e-17
1.56449e-16
2.43989e-17
-6.20795e-20
9.16746e-19
-5.80479e-19
1.07491e-17
-3.30166e-18
7.52799e-17
-9.54446e-18
4.04396e-16
0
1.91094e-15
0
1.7165e-14
-5.28307e-15
1.87365e-13
8.17269e-15
1.51886e-12
2.46851e-13
5.17918e-12
1.14064e-11
3.11281e-11
4.70865e-11
1.55075e-09
1.02365e-10
1.27402e-09
7.82761e-12
2.30078e-11
3.19434e-13
9.87531e-12
1.43994e-11
-6.25439e-12
1.29223e-11
-1.08922e-11
1.16567e-11
-1.31927e-11
1.6473e-11
-2.33467e-11
1.35855e-11
-2.5448e-11
4.3102e-12
-1.30793e-11
1.45855e-12
-7.38679e-12
5.98125e-13
-3.55065e-12
8.61519e-13
-1.91742e-12
8.7957e-13
-1.48235e-12
1.58559e-13
-6.71335e-13
6.00954e-14
-2.22996e-13
1.00721e-13
-2.03341e-13
6.94434e-14
-3.6775e-14
-7.19199e-12
1.1965e-13
-8.84485e-11
1.76238e-10
-2.46386e-12
4.54177e-10
-3.12517e-12
8.79043e-12
-2.40156e-12
1.39895e-11
-6.93046e-12
2.40752e-11
-1.2118e-12
2.89384e-11
-6.0099e-13
7.70059e-12
-2.94899e-13
7.60543e-13
-1.14046e-13
2.8247e-13
-2.66074e-14
1.43365e-13
-8.3728e-15
2.49586e-14
-2.28927e-15
1.01255e-14
-6.65954e-16
3.11947e-15
-3.12717e-16
1.62247e-15
-2.41971e-16
1.272e-15
-2.01702e-16
1.07728e-15
-1.51701e-16
8.0244e-16
-9.96347e-17
5.25252e-16
-5.06012e-17
2.91309e-16
-1.15569e-17
1.09749e-16
1.11358e-17
-6.16706e-20
9.34013e-19
-5.6867e-19
1.07577e-17
-3.28129e-18
7.52461e-17
-9.94447e-18
4.0532e-16
0
1.94141e-15
0
1.69642e-14
0
1.71441e-13
-6.76714e-15
9.09142e-13
1.87098e-13
1.03809e-11
1.32257e-11
1.30785e-11
8.39968e-11
1.36331e-09
9.34904e-11
1.26128e-09
1.28322e-12
1.5619e-12
6.88282e-12
1.53703e-12
6.79665e-12
-3.71824e-12
1.27103e-12
-1.37954e-12
1.61664e-12
-2.15967e-12
2.11067e-12
-3.31279e-12
1.56159e-12
-3.40949e-12
1.01452e-12
-3.01207e-12
3.84498e-13
-1.91997e-12
7.76917e-14
-7.58475e-13
4.43288e-14
-2.54215e-13
3.42178e-14
-9.31632e-14
3.21962e-14
-4.76012e-14
3.07679e-14
-3.98817e-14
4.18013e-14
-7.128e-14
3.55456e-14
-9.89406e-15
-1.33896e-12
7.14892e-14
-5.8588e-11
1.9909e-10
-5.63894e-11
4.82912e-10
-3.94556e-12
1.6521e-10
-4.72277e-12
1.4769e-11
-5.79629e-12
4.25093e-11
-3.32457e-12
1.06107e-11
-3.81312e-13
6.2669e-12
-9.68937e-14
4.26473e-13
-6.29553e-14
8.97088e-14
-1.4921e-14
1.19987e-13
-3.70816e-15
9.16498e-15
-1.16843e-15
4.73442e-15
-4.38912e-16
2.12705e-15
-2.87283e-16
1.38742e-15
-2.52234e-16
1.23341e-15
-2.14089e-16
1.05753e-15
-1.55329e-16
7.52169e-16
-9.43612e-17
4.62662e-16
-4.02059e-17
2.28467e-16
-6.13578e-18
6.97544e-17
4.51516e-18
-6.04711e-20
9.3558e-19
-5.54876e-19
1.05316e-17
-3.23415e-18
7.32316e-17
-1.0286e-17
3.98861e-16
0
1.93631e-15
0
1.59111e-14
0
1.3118e-13
-3.46674e-14
7.01557e-13
2.44892e-14
4.44941e-12
2.62131e-12
7.99568e-12
3.34102e-11
2.63486e-11
3.06043e-11
1.9524e-12
0
3.56473e-12
4.95562e-12
1.81885e-13
3.98718e-13
-1.26448e-13
1.07565e-13
-9.95127e-16
2.61502e-13
-3.62577e-13
2.52736e-13
-4.28333e-13
1.98464e-13
-4.88238e-13
9.34172e-14
-3.42822e-13
6.44696e-14
-1.79509e-13
2.35127e-14
-6.42743e-14
7.99539e-15
-1.13233e-14
5.08702e-15
-9.04568e-15
7.1231e-15
-7.30953e-15
1.79022e-14
-5.69375e-15
2.47027e-14
-2.10201e-14
3.2083e-14
3.07038e-16
1.09297e-13
1.01771e-14
-1.07436e-11
1.30214e-10
-3.95843e-11
5.41674e-10
-6.50805e-12
8.33112e-10
-6.73518e-12
1.58226e-11
-3.31675e-12
4.18455e-11
-1.46579e-12
2.87477e-12
-4.46175e-13
2.10145e-12
-4.40699e-14
4.42093e-13
-3.33608e-14
8.1299e-14
-9.25017e-15
4.34106e-14
-1.79011e-15
7.1545e-15
-6.08105e-16
2.40866e-15
-3.35402e-16
1.62679e-15
-2.85931e-16
1.35128e-15
-2.68308e-16
1.22435e-15
-2.22125e-16
1.01523e-15
-1.51534e-16
6.78392e-16
-8.27696e-17
3.85271e-16
-2.89245e-17
1.67307e-16
-2.87641e-18
4.16254e-17
1.72632e-18
-5.89991e-20
9.2638e-19
-5.3357e-19
1.00881e-17
-3.13724e-18
6.91842e-17
-1.08335e-17
3.80085e-16
-4.45425e-18
1.90984e-15
0
1.37302e-14
0
6.39628e-14
-2.64773e-15
2.65706e-13
-3.78997e-15
4.5059e-13
1.89798e-13
1.34317e-11
2.46917e-12
3.11252e-11
2.11966e-12
0
3.2704e-13
1.77184e-12
3.9746e-13
2.64061e-13
7.99392e-14
-1.07185e-12
7.08102e-14
-1.69839e-12
2.53043e-14
-1.29175e-13
1.96919e-14
-3.16887e-14
2.07082e-14
-1.45488e-14
1.08568e-14
-1.49064e-14
6.27914e-15
-1.21808e-14
4.2665e-15
-1.13126e-14
3.91658e-15
-1.03854e-14
4.31809e-15
-9.12196e-15
4.70898e-15
-7.49951e-15
5.2197e-15
-5.48228e-15
2.76172e-14
-1.30889e-14
3.97707e-14
1.01593e-15
4.494e-14
9.82385e-15
4.99522e-11
2.72958e-11
1.24084e-11
6.04415e-10
-1.73568e-11
8.89836e-10
-6.80061e-12
5.45575e-11
-2.87537e-12
3.61835e-11
-4.44377e-13
3.17208e-12
-2.24732e-13
5.87304e-13
-4.81009e-14
6.62592e-13
-1.33067e-14
3.9489e-14
-4.31488e-15
9.09583e-15
-1.01012e-15
7.88484e-15
-4.26774e-16
1.87495e-15
-3.16119e-16
1.5241e-15
-3.03785e-16
1.35216e-15
-2.87649e-16
1.21767e-15
-2.23401e-16
9.43985e-16
-1.40616e-16
5.86388e-16
-6.80464e-17
3.05539e-16
-1.94387e-17
1.16501e-16
-1.24962e-18
2.3882e-17
6.34603e-19
-5.75592e-20
9.18695e-19
-5.0434e-19
9.53289e-18
-2.92105e-18
6.32267e-17
-1.17979e-17
3.46239e-16
-5.944e-17
1.84987e-15
-2.03975e-16
1.03558e-14
-1.88598e-16
2.19757e-14
0
1.0332e-13
-4.53602e-14
7.28008e-13
1.12716e-14
2.31207e-11
8.32696e-13
1.98926e-10
1.16777e-12
1.03497e-10
8.50743e-13
3.27481e-12
7.42258e-13
6.79254e-13
2.19391e-12
-2.403e-13
4.73726e-13
-2.94645e-12
1.84414e-14
-4.40785e-14
2.49475e-15
-1.23874e-14
2.3133e-15
-1.26568e-14
2.45211e-15
-1.40883e-14
2.76498e-15
-1.22133e-14
3.2607e-15
-1.17306e-14
3.89043e-15
-1.0984e-14
4.55061e-15
-9.75319e-15
5.12096e-15
-8.03888e-15
5.49315e-15
-5.78468e-15
2.01221e-14
-1.0128e-14
2.73078e-14
1.72921e-15
2.69108e-14
1.12029e-14
4.30612e-11
8.76522e-12
3.49379e-11
6.20569e-10
-1.4213e-11
9.75218e-10
-1.07993e-11
1.97333e-10
-2.84931e-12
2.57056e-11
-2.94129e-13
7.93687e-12
-1.71693e-13
5.18146e-13
-5.72027e-14
3.05234e-13
-5.27457e-15
3.49697e-14
-2.77751e-15
7.56938e-15
-6.93895e-16
6.21548e-15
-4.01415e-16
1.66564e-15
-3.41542e-16
1.47504e-15
-3.34983e-16
1.35923e-15
-3.04179e-16
1.19647e-15
-2.16874e-16
8.46234e-16
-1.24806e-16
4.87547e-16
-5.31117e-17
2.3256e-16
-1.24296e-17
7.76024e-17
-5.10626e-19
1.31889e-17
2.21022e-19
-5.77756e-20
9.19694e-19
-4.78931e-19
9.24425e-18
-2.70394e-18
5.75437e-17
-1.28777e-17
3.07572e-16
-7.4799e-17
1.63045e-15
-1.67892e-16
7.15501e-15
-5.52361e-17
2.91452e-14
0
3.4111e-13
0
7.95642e-13
-1.34957e-12
2.44097e-11
2.78494e-12
3.56158e-10
2.37258e-12
1.21723e-10
2.96166e-13
2.65009e-12
7.90255e-13
3.57739e-12
7.71997e-13
3.30171e-13
0
-1.06599e-12
2.76893e-15
-9.09694e-15
1.09981e-15
-1.03366e-14
1.1954e-15
-1.23167e-14
1.55803e-15
-1.40828e-14
2.12232e-15
-1.25488e-14
2.88818e-15
-1.24801e-14
3.76521e-15
-1.18459e-14
4.6366e-15
-1.06061e-14
5.43427e-15
-8.8368e-15
6.49695e-15
-6.86607e-15
1.98857e-14
-6.03226e-15
1.53384e-14
4.92905e-15
1.37377e-14
1.29065e-14
5.94183e-12
2.83806e-12
4.79033e-11
7.41896e-10
-2.76974e-11
1.08635e-09
-1.57698e-11
3.10123e-10
-3.30157e-12
1.33542e-11
-3.98536e-13
1.85979e-11
-7.54629e-14
2.59444e-13
-2.82767e-14
3.3692e-14
-5.20988e-15
5.42723e-14
-1.84743e-15
5.1568e-15
-5.55284e-16
2.67455e-15
-4.02692e-16
1.66393e-15
-3.73706e-16
1.45687e-15
-3.71599e-16
1.35976e-15
-3.13032e-16
1.14652e-15
-2.03106e-16
7.29688e-16
-1.06172e-16
3.90541e-16
-3.9355e-17
1.69125e-16
-7.54678e-18
4.89195e-17
-1.93781e-19
6.90206e-18
7.07101e-20
-6.05054e-20
9.43146e-19
-4.72221e-19
9.22531e-18
-2.57595e-18
5.41856e-17
-1.34121e-17
2.7281e-16
-3.80589e-17
1.34061e-15
0
4.96073e-15
-6.77911e-15
4.51134e-14
0
7.58577e-13
0
7.603e-13
-4.83642e-12
1.94466e-11
1.1793e-12
3.61631e-10
2.57587e-12
2.99055e-11
3.64265e-13
3.49233e-12
1.7323e-12
6.27087e-11
6.39324e-13
1.70225e-12
0
-4.07318e-15
1.40473e-17
-7.93511e-15
-5.7239e-17
-1.00961e-14
1.19075e-16
-1.24223e-14
6.6233e-16
-1.44661e-14
1.42652e-15
-1.32193e-14
2.38354e-15
-1.34334e-14
3.43592e-15
-1.28685e-14
4.50073e-15
-1.16795e-14
5.68797e-15
-1.00854e-14
1.18132e-14
0
1.17356e-14
-6.06631e-15
1.13671e-14
5.39803e-15
1.00492e-14
1.43317e-14
1.30821e-10
3.31208e-10
2.42966e-11
8.68498e-10
-4.88026e-11
1.1951e-09
-8.59739e-12
3.06373e-10
-4.18811e-12
7.90834e-12
-1.78754e-13
1.987e-11
-2.85889e-14
1.30884e-13
-2.09001e-14
2.23296e-14
-2.94497e-15
3.34692e-14
-1.07663e-15
2.88043e-15
-4.88564e-16
1.8528e-15
-4.2351e-16
1.65889e-15
-4.17005e-16
1.46151e-15
-4.09139e-16
1.34881e-15
-3.09718e-16
1.05327e-15
-1.8233e-16
6.02269e-16
-8.56223e-17
2.98284e-16
-2.72751e-17
1.15379e-16
-4.28231e-18
2.85849e-17
-6.63618e-20
3.34738e-18
2.00135e-20
-6.42122e-20
9.98004e-19
-4.91416e-19
9.37434e-18
-2.55979e-18
5.35168e-17
-1.31833e-17
2.46391e-16
-2.3525e-17
1.08944e-15
0
3.93112e-15
-1.14022e-14
5.23073e-14
0
4.98224e-13
-7.73958e-14
8.01073e-13
-8.46317e-12
1.79536e-11
-2.38689e-13
3.58894e-10
1.025e-12
3.24754e-11
2.676e-13
1.98164e-11
-3.72643e-13
1.57819e-10
-1.03224e-15
7.10881e-13
-1.67692e-15
-4.10857e-15
-1.13136e-15
-7.26303e-15
-1.24457e-15
-9.98804e-15
-9.93525e-16
-1.20507e-14
-3.06024e-16
-1.4853e-14
5.85374e-16
-1.40283e-14
1.66571e-15
-1.45805e-14
2.88912e-15
-1.41649e-14
4.61398e-15
-1.38101e-14
6.71512e-15
-1.32753e-14
2.09601e-14
-7.94446e-15
1.14001e-14
-5.96901e-15
1.28228e-13
8.24529e-13
1.18933e-13
2.37291e-14
1.15196e-10
6.72024e-10
2.06389e-11
9.67136e-10
-5.76931e-11
1.27664e-09
-5.25794e-12
1.85253e-10
-5.34199e-12
6.05528e-12
-3.18224e-13
1.98421e-11
-1.89077e-14
1.43764e-13
-8.47379e-15
1.116e-14
-2.19007e-15
4.14135e-15
-6.96834e-16
2.92007e-15
-4.96839e-16
1.66438e-15
-4.69337e-16
1.52946e-15
-4.68498e-16
1.45956e-15
-4.3554e-16
1.30562e-15
-2.90252e-16
9.10195e-16
-1.54153e-16
4.69692e-16
-6.39977e-17
2.12569e-16
-1.72944e-17
7.20698e-17
-2.2243e-18
1.51469e-17
-1.97907e-20
1.47194e-18
4.73189e-21
-6.9537e-20
1.09865e-18
-5.31121e-19
9.81904e-18
-2.63741e-18
5.37885e-17
-1.14131e-17
2.28958e-16
-1.96507e-17
8.9632e-16
0
3.78701e-15
-1.056e-15
4.68541e-14
0
1.15006e-13
0
1.31328e-12
-1.21499e-11
8.99999e-11
0
3.52611e-10
5.74063e-13
4.11154e-11
-5.32902e-12
4.66366e-10
-7.42478e-13
1.61279e-10
-3.73065e-15
7.5769e-15
-1.91431e-15
-3.11631e-15
-2.30996e-15
-6.74538e-15
-2.43812e-15
-9.8543e-15
-2.172e-15
-1.14087e-14
-1.41856e-15
-1.54181e-14
-4.46999e-16
-1.53249e-14
7.13118e-16
-1.58698e-14
2.84812e-15
-1.69065e-14
8.45227e-15
-2.75322e-14
2.47349e-14
0
5.73184e-14
0
1.41195e-13
-9.77137e-14
1.431e-11
8.22559e-12
4.82307e-11
7.77444e-11
3.54402e-11
6.88192e-10
-7.32908e-11
1.07917e-09
-5.85294e-11
1.26296e-09
-5.62122e-12
7.20969e-11
-7.03278e-12
5.47985e-12
-1.16886e-13
1.7925e-11
-8.69511e-15
4.97886e-14
-3.05047e-15
5.83942e-15
-1.56067e-15
2.72422e-15
-6.14393e-16
3.63216e-15
-5.27677e-16
1.58301e-15
-5.16152e-16
1.44914e-15
-4.96618e-16
1.44476e-15
-4.34338e-16
1.20515e-15
-2.52104e-16
7.23797e-16
-1.19665e-16
3.39205e-16
-4.32252e-17
1.37907e-16
-9.82745e-18
4.03564e-17
-1.03751e-18
7.15755e-18
-4.70972e-21
5.7711e-19
1.08636e-21
-7.8253e-20
1.24039e-18
-5.84569e-19
1.06533e-17
-2.78693e-18
5.57562e-17
-9.87405e-18
2.21924e-16
-2.05488e-17
7.91016e-16
-5.94461e-16
3.76666e-15
-1.69754e-16
2.93648e-14
-9.34841e-15
1.22177e-13
-2.81603e-12
8.87404e-12
-1.57951e-11
4.01543e-10
0
3.42579e-10
-1.56151e-11
5.33815e-11
-2.02875e-11
4.70413e-10
-1.01649e-14
2.16104e-10
-3.56919e-15
2.90125e-15
-3.06066e-15
-2.42286e-15
-3.54014e-15
-6.27523e-15
-3.82548e-15
-9.57869e-15
-4.36171e-15
-1.12996e-14
-3.30274e-15
-1.98216e-14
-1.13192e-15
-2.01317e-14
-1.0734e-15
-1.37935e-14
2.74005e-15
-9.60633e-14
2.12456e-14
0
4.71022e-14
-1.42645e-13
9.63459e-14
-1.41907e-13
5.24264e-12
-5.30324e-12
2.91506e-11
2.3043e-11
4.40467e-12
1.35966e-10
-9.38025e-11
7.81991e-10
-1.93481e-10
1.18293e-09
-5.69019e-11
7.24271e-10
-4.90454e-12
1.92011e-11
-6.12925e-12
3.81335e-12
-3.86411e-14
6.9114e-12
-3.48682e-15
1.48764e-14
-1.50703e-15
4.07057e-15
-1.46488e-15
2.49776e-15
-6.30347e-16
3.48658e-15
-5.78398e-16
1.52868e-15
-5.70377e-16
1.42402e-15
-5.37866e-16
1.40232e-15
-3.89525e-16
1.00079e-15
-1.97792e-16
5.19251e-16
-8.32793e-17
2.22512e-16
-2.58812e-17
8.00106e-17
-4.93643e-18
2.00279e-17
-4.28848e-19
2.99348e-18
-9.31635e-22
2.00405e-19
2.42947e-22
-8.94822e-20
1.40787e-18
-6.54313e-19
1.17491e-17
-2.96233e-18
5.95016e-17
-9.90134e-18
2.21549e-16
-3.31518e-17
7.59552e-16
-1.4108e-16
3.22543e-15
0
1.44888e-14
-1.43729e-13
2.93366e-13
-1.39515e-11
4.53557e-11
-5.92113e-14
2.86605e-10
-2.32058e-12
2.02347e-10
-4.34844e-11
1.03174e-09
-5.45763e-11
4.85891e-10
-3.47303e-15
1.7058e-10
-3.7565e-15
3.29586e-15
-4.35314e-15
-1.81553e-15
-4.89138e-15
-5.74154e-15
-7.40152e-15
-7.34038e-15
-2.67407e-14
-2.00444e-15
-1.81446e-14
-8.29219e-14
-2.21306e-15
-6.70301e-14
-7.13335e-15
-1.81652e-14
-1.59228e-13
-5.3252e-13
-6.92521e-13
0
-4.81725e-13
-6.41202e-12
-2.05927e-13
-4.58484e-12
-7.05269e-13
-5.82272e-13
0
1.76573e-11
-5.13923e-11
9.69153e-11
-3.07709e-10
3.78511e-10
-1.94807e-10
1.06648e-09
-1.87265e-11
1.24031e-10
-3.15349e-12
4.15552e-12
-2.8657e-12
8.84176e-13
-3.87822e-13
0
-3.103e-15
6.88225e-14
-1.40973e-15
2.45308e-15
-1.15487e-15
2.00496e-15
-6.56625e-16
2.51743e-15
-6.2442e-16
1.49248e-15
-6.10109e-16
1.39586e-15
-5.3001e-16
1.28327e-15
-3.05824e-16
7.29215e-16
-1.37747e-16
3.33397e-16
-5.12617e-17
1.31373e-16
-1.36316e-17
4.1317e-17
-2.1835e-18
8.82217e-18
-1.5666e-19
1.11361e-18
-1.9191e-22
6.21518e-20
5.05981e-23
-1.01506e-19
1.57947e-18
-7.39172e-19
1.29181e-17
-3.15602e-18
6.42221e-17
-1.06661e-17
2.244e-16
-5.31125e-17
7.43557e-16
-4.5204e-17
2.60669e-15
-3.01352e-15
1.64408e-14
-3.78719e-13
1.04085e-12
-8.97716e-12
7.68482e-11
-7.94415e-13
7.24938e-11
-2.15529e-11
9.85507e-11
-7.06827e-11
1.23785e-09
-7.97988e-11
4.99394e-10
-4.80721e-15
1.11713e-10
-5.27358e-15
3.69489e-15
-5.80204e-15
-1.28162e-15
-6.6688e-15
-5.01913e-15
-3.60198e-14
-7.56251e-17
-6.52899e-13
0
-3.11835e-13
-2.51758e-11
-3.76082e-14
-9.13096e-13
-2.67251e-14
-1.04809e-13
0
-3.99276e-12
-6.89343e-11
-8.90167e-11
-1.24253e-10
-5.2996e-10
-1.34943e-11
-9.31075e-11
-1.21375e-11
-6.50826e-14
-4.18544e-12
0
-2.34389e-11
0
-2.21322e-10
0
-1.14286e-10
3.16112e-11
-4.73568e-12
1.47062e-11
-1.3405e-12
9.37877e-13
-1.04491e-12
2.10534e-13
-3.11445e-13
1.06942e-13
-1.63463e-15
9.31534e-14
-1.07159e-15
1.93369e-15
-8.7897e-16
1.69971e-15
-6.8189e-16
1.79446e-15
-6.57088e-16
1.46234e-15
-6.28248e-16
1.33611e-15
-4.34043e-16
1.00292e-15
-2.09447e-16
4.71566e-16
-8.51457e-17
1.94083e-16
-2.79239e-17
7.01521e-17
-6.3479e-18
1.9175e-17
-8.57516e-19
3.50317e-18
-5.11467e-20
3.76037e-19
-4.01438e-23
1.76673e-20
1.03508e-23
-1.12137e-19
1.72954e-18
-8.2004e-19
1.38942e-17
-3.39145e-18
6.86954e-17
-1.16078e-17
2.31627e-16
-3.39713e-17
7.18861e-16
0
2.20798e-15
-1.45201e-14
3.30572e-14
-1.97008e-12
3.19038e-12
-2.44452e-12
3.51828e-11
-7.73958e-13
4.74854e-11
-3.923e-11
7.28289e-11
-6.42099e-11
8.83874e-10
-5.45129e-11
4.94084e-10
-8.92958e-15
2.38059e-11
-8.44805e-15
4.3048e-15
-9.09757e-15
-7.57371e-16
-6.69483e-15
-1.29872e-14
-2.84137e-13
-7.61823e-15
-1.64299e-11
-3.69442e-11
-1.67858e-11
-4.78503e-11
-3.51925e-12
-3.08618e-11
0
-5.82053e-12
0
-2.18495e-11
-4.19991e-10
-3.16768e-10
-3.41754e-10
-4.8486e-10
-1.67899e-12
-1.81981e-10
-1.09321e-12
-3.06265e-14
-8.11584e-13
3.94579e-14
-1.22644e-11
0
-3.3356e-11
0
-1.21437e-11
6.48746e-12
-1.07881e-12
3.74907e-12
-4.44363e-13
2.90947e-13
-3.03187e-13
9.29856e-14
-1.68125e-13
7.62424e-14
-1.38646e-15
7.53531e-14
-1.0386e-15
1.6001e-15
-8.17844e-16
1.50635e-15
-7.33699e-16
1.71172e-15
-6.78816e-16
1.39688e-15
-5.60693e-16