/*--------------------------------*- C++ -*----------------------------------*\
  =========                 |
  \\      /  F ield         | OpenFOAM: The Open Source CFD Toolbox
   \\    /   O peration     | Website:  https://openfoam.org
    \\  /    A nd           | Version:  9
     \\/     M anipulation  |
\*---------------------------------------------------------------------------*/
FoamFile
{
    format      ascii;
    class       volScalarField;
    location    "0.14";
    object      alpha.water;
}
// * * * * * * * * * * * * * * * * * * * * * * * * * * * * * * * * * * * * * //

dimensions      [0 0 0 0 0 0 0];

internalField   nonuniform List<scalar> 
5000
(
4.19608e-17
7.06886e-16
6.76842e-15
2.37042e-14
3.17245e-14
1.33198e-13
3.71049e-12
2.29579e-10
3.6592e-08
1.56519e-06
1.83918e-05
2.01237e-05
0.0754391
0.811951
0.99999
0.999986
1
1
1
1
1
1
1
1
1
0.999999
0.999993
0.999879
0.999882
0.835602
0.12408
0.000446052
0.000571823
8.3198e-05
1.05534e-05
2.29031e-06
5.01117e-07
1.13322e-07
2.64786e-08
6.42678e-09
1.59465e-09
3.08579e-10
1.55131e-10
1.20799e-10
8.58802e-11
5.34944e-11
3.0019e-11
1.52345e-11
7.42494e-12
2.04773e-12
1.28541e-16
2.43209e-15
2.41504e-14
1.10473e-13
2.00908e-13
2.87623e-13
7.0317e-12
2.50953e-10
3.84507e-08
1.95958e-06
3.97017e-05
1.39434e-05
0.0388379
0.734643
0.999989
0.999988
1
1
1
1
1
1
1
1
1
0.999998
0.999984
0.99985
0.999806
0.687299
0.0167742
0.000463415
0.000571205
0.000156356
1.44322e-05
2.57895e-06
5.80395e-07
1.32799e-07
3.14167e-08
7.67218e-09
1.94753e-09
3.86414e-10
1.59003e-10
1.37384e-10
1.08697e-10
7.5333e-11
4.63727e-11
2.55723e-11
1.36707e-11
4.4726e-12
3.54334e-16
7.04498e-15
6.97648e-14
3.41952e-13
8.58823e-13
1.76578e-12
1.35424e-11
4.19231e-10
4.41264e-08
2.74679e-06
4.00405e-05
1.19027e-05
1.41585e-05
0.590537
0.999734
0.999999
0.999999
1
1
1
1
1
1
1
0.999999
0.999995
0.999949
0.999944
0.982348
0.394609
0.000420068
0.000464278
0.000571979
0.00015117
1.39055e-05
3.06518e-06
7.02176e-07
1.58859e-07
3.78204e-08
9.33954e-09
2.40452e-09
5.21735e-10
1.6668e-10
1.54115e-10
1.33039e-10
1.00802e-10
6.65651e-11
3.90547e-11
2.23659e-11
8.30061e-12
8.87609e-16
1.79136e-14
1.69131e-13
8.78342e-13
2.52926e-12
6.37765e-12
3.15053e-11
8.92269e-10
6.26616e-08
3.13974e-06
3.96641e-05
1.11834e-05
1.17046e-05
0.370684
0.973156
0.999998
0.999998
1
1
1
1
1
1
1
0.999999
0.99999
0.999927
0.999863
0.829286
0.0969155
0.000415236
0.000481784
0.000428101
9.65903e-05
1.20943e-05
3.41833e-06
7.49472e-07
1.94376e-07
4.63417e-08
1.16071e-08
3.00969e-09
7.24967e-10
1.89106e-10
1.72839e-10
1.58585e-10
1.28055e-10
8.90286e-11
5.50828e-11
3.33875e-11
1.35332e-11
2.01709e-15
4.04413e-14
3.58239e-13
1.88655e-12
6.10939e-12
1.63584e-11
7.41807e-11
1.69613e-09
7.77319e-08
3.69858e-06
1.84698e-05
1.14139e-05
1.14009e-05
0.127448
0.87277
0.999989
0.999998
1
1
1
1
1
1
0.999999
0.999996
0.999975
0.999927
0.972618
0.387938
0.000148447
0.000423335
0.000486428
0.000183227
3.02479e-05
1.45606e-05
3.34347e-06
8.35624e-07
2.10189e-07
5.41216e-08
1.43486e-08
3.96824e-09
1.06481e-09
2.4955e-10
1.95735e-10
1.84216e-10
1.54177e-10
1.1193e-10
7.27973e-11
4.58822e-11
1.95986e-11
4.16648e-15
8.1441e-14
6.76673e-13
3.49985e-12
1.22736e-11
3.81879e-11
1.66062e-10
2.5308e-09
7.29713e-08
3.43122e-06
4.55899e-06
3.98289e-05
2.84793e-05
3.13455e-05
0.660466
0.999808
0.999989
0.999998
0.999999
1
0.999999
0.999999
0.999998
0.999995
0.999982
0.999928
0.995779
0.557178
0.013089
0.000126264
0.000429657
0.000444833
7.7566e-05
2.48829e-05
2.50767e-05
3.30738e-06
1.05312e-06
2.25427e-07
6.68396e-08
1.85284e-08
5.61926e-09
1.66764e-09
3.98664e-10
2.29223e-10
2.09088e-10
1.77359e-10
1.3364e-10
8.99494e-11
5.79373e-11
2.58549e-11
7.85303e-15
1.46836e-13
1.15218e-12
5.75272e-12
2.11871e-11
7.80879e-11
3.82267e-10
5.40802e-09
7.47638e-08
2.22884e-06
6.00202e-05
6.85249e-05
3.33567e-05
3.74368e-05
0.280334
0.910326
0.999827
0.999978
0.999993
0.999994
0.999992
0.999983
0.999965
0.999954
0.999791
0.991984
0.565383
0.0300549
4.01241e-05
0.000124479
0.000302767
0.000203047
2.81288e-05
2.52998e-05
2.71462e-05
4.29811e-06
1.01845e-06
2.95642e-07
9.05919e-08
2.73018e-08
8.66812e-09
2.69509e-09
6.7668e-10
2.76547e-10
2.32416e-10
1.97667e-10
1.51603e-10
1.03868e-10
6.91117e-11
3.29115e-11
1.35447e-14
2.3834e-13
1.78267e-12
8.59189e-12
3.25907e-11
1.48857e-10
7.0718e-10
1.61977e-08
1.11423e-07
2.32684e-06
8.02279e-05
6.4746e-05
4.02868e-05
4.18857e-05
6.59632e-05
0.366679
0.926281
0.99962
0.999906
0.999941
0.999916
0.999813
0.999611
0.996741
0.877716
0.43426
0.0219178
3.74972e-05
3.94832e-05
5.43533e-05
2.58702e-05
2.02543e-05
4.11721e-05
2.75761e-05
2.37114e-05
5.95743e-06
8.27095e-07
4.10526e-07
1.07261e-07
3.63704e-08
1.12832e-08
3.49094e-09
9.46483e-10
3.27171e-10
2.55688e-10
2.16423e-10
1.65703e-10
1.15634e-10
7.92713e-11
3.4385e-11
2.14368e-14
3.50745e-13
2.52697e-12
1.19345e-11
4.61813e-11
2.74429e-10
1.23198e-09
1.47333e-08
2.38298e-07
3.2024e-06
8.05919e-05
4.17682e-05
4.18857e-05
0.000143029
0.000178923
0.000112267
0.297342
0.763978
0.968374
0.988619
0.972302
0.905353
0.767513
0.521245
0.192433
9.6054e-05
3.74972e-05
3.63877e-05
3.83952e-05
7.54299e-05
5.25532e-06
6.96073e-06
4.20438e-05
3.18531e-05
8.89039e-06
7.12386e-06
8.89716e-07
3.81031e-07
1.14341e-07
3.56453e-08
1.11532e-08
3.41723e-09
9.50781e-10
3.50052e-10
2.77379e-10
2.32944e-10
1.76712e-10
1.24637e-10
8.18238e-11
3.26232e-11
3.11958e-14
4.71514e-13
3.30911e-12
1.567e-11
6.17432e-11
4.98162e-10
4.87162e-09
5.22652e-09
2.31283e-07
4.91063e-06
8.02279e-05
4.32752e-05
0.000160337
0.000255711
0.000167206
0.000106075
0.000112264
0.10061
0.29087
0.356569
0.305898
0.188791
0.0695609
0.000640156
0.000105454
0.000105575
8.57191e-05
4.83757e-06
2.5243e-05
0.000180724
5.31916e-06
5.91399e-06
4.20438e-05
2.78105e-05
3.22045e-06
3.32637e-06
1.53564e-06
2.4792e-07
1.14802e-07
3.16547e-08
1.00615e-08
3.05277e-09
8.74239e-10
3.47314e-10
2.8824e-10
2.40618e-10
1.79544e-10
1.2557e-10
8.00542e-11
2.80717e-11
4.1761e-14
5.81303e-13
4.02092e-12
1.95202e-11
8.04519e-11
7.32021e-10
8.81353e-09
1.25845e-07
1.39315e-07
9.3064e-06
5.49388e-05
7.4616e-05
0.000215995
0.000140834
2.21303e-05
6.48248e-05
0.000462378
0.000199808
0.000242688
0.00022333
0.000123347
5.82494e-05
2.98154e-05
2.86292e-05
0.000101687
6.63062e-05
3.08638e-05
7.65667e-07
1.34517e-05
0.000192354
3.65975e-05
4.11888e-06
1.80694e-05
1.10267e-05
3.97001e-06
1.09991e-06
1.45387e-06
2.42748e-07
9.2801e-08
2.76502e-08
7.9731e-09
2.47947e-09
7.41246e-10
3.40081e-10
2.89064e-10
2.40001e-10
1.78349e-10
1.23569e-10
7.43333e-11
2.08816e-11
5.12655e-14
6.58599e-13
4.53876e-12
2.28809e-11
9.92709e-11
9.37415e-10
1.13498e-08
1.66057e-07
1.45384e-07
7.9045e-06
7.5868e-06
0.000212981
0.000215138
2.62384e-05
1.8075e-05
4.90277e-05
9.05488e-05
0.000195502
0.000271446
0.000266486
0.00021003
0.000114138
4.83726e-05
2.14592e-05
3.7168e-06
1.1317e-06
9.34638e-07
6.65203e-07
1.69398e-06
0.000193876
0.000266319
3.98115e-06
4.02795e-06
4.31891e-06
5.64291e-06
9.22835e-07
4.10342e-07
3.26388e-07
4.3926e-08
2.18423e-08
5.15471e-09
1.64627e-09
5.79353e-10
3.33295e-10
2.88611e-10
2.37505e-10
1.74642e-10
1.17348e-10
6.30761e-11
1.27082e-11
5.76816e-14
6.93062e-13
4.77988e-12
2.49534e-11
1.12411e-10
1.03465e-09
1.16936e-08
1.45304e-07
1.32207e-07
2.00648e-06
5.73216e-05
0.000210335
0.000104114
1.77137e-05
1.79546e-05
1.4684e-05
1.39797e-05
2.21447e-05
1.96261e-05
3.09498e-06
1.29739e-06
9.17934e-07
1.56296e-06
2.34118e-06
1.30863e-06
3.84583e-07
3.56051e-07
2.24469e-07
7.69262e-07
0.000228444
0.000325257
3.9979e-06
3.9842e-06
4.13714e-06
5.59561e-06
1.30363e-06
8.06879e-08
2.21707e-07
2.39278e-08
1.03214e-08
3.17438e-09
9.23422e-10
4.37487e-10
3.23728e-10
2.87958e-10
2.32604e-10
1.6666e-10
1.04731e-10
4.73858e-11
6.27231e-12
6.04025e-14
6.94359e-13
4.78588e-12
2.54611e-11
1.17911e-10
1.03586e-09
1.13665e-08
7.78317e-08
6.95013e-07
6.28049e-07
0.000204884
0.000205146
1.42214e-05
1.61332e-05
1.45469e-05
3.17627e-06
2.35875e-06
3.12755e-06
2.53855e-06
2.52683e-06
1.98177e-06
8.83582e-07
2.54727e-07
8.41868e-08
7.08364e-08
6.89883e-08
1.25799e-07
7.50437e-08
8.87197e-08
0.000290455
0.000331244
7.7378e-06
4.18747e-06
4.28299e-06
4.30444e-06
1.32908e-06
4.86055e-08
3.1538e-08
2.79088e-08
2.01759e-09
1.77717e-09
5.72591e-10
3.44062e-10
3.12315e-10
2.85796e-10
2.22544e-10
1.51921e-10
8.62537e-11
3.16982e-11
2.61124e-12
6.06214e-14
6.85626e-13
4.71232e-12
2.52153e-11
1.18238e-10
1.00653e-09
1.0301e-08
5.84636e-08
6.83394e-07
5.31304e-07
8.9003e-05
9.74052e-05
3.86349e-06
8.88392e-06
3.30824e-06
2.751e-07
4.52251e-07
4.58558e-07
4.12622e-07
2.31162e-07
1.66384e-07
9.11938e-08
3.79508e-08
1.92747e-08
9.81814e-09
1.4302e-08
6.03892e-08
5.90272e-08
1.6012e-08
0.000237036
0.000331296
0.000195013
4.25185e-06
8.23167e-06
1.13811e-06
9.86005e-07
5.76248e-08
9.31786e-09
2.17894e-08
8.72853e-10
7.20478e-10
4.10253e-10
3.15015e-10
3.07863e-10
2.78939e-10
2.0591e-10
1.31039e-10
6.56738e-11
1.94571e-11
9.86363e-13
6.02327e-14
6.64144e-13
4.52586e-12
2.43867e-11
1.17414e-10
9.30475e-10
7.42254e-09
4.10914e-08
1.63199e-07
3.8709e-07
6.61797e-07
1.70242e-06
1.49839e-06
6.95829e-07
1.7467e-07
1.64431e-07
1.01521e-07
4.66062e-08
4.94768e-08
3.67336e-08
1.70179e-08
8.55984e-09
8.55999e-09
8.56068e-09
8.56149e-09
8.56347e-09
2.51025e-08
5.15917e-08
1.53722e-08
9.62303e-05
0.000333256
0.000336446
8.12242e-06
8.77989e-06
3.37265e-07
1.61889e-07
1.23031e-07
5.49304e-09
4.18274e-09
1.43685e-09
3.40822e-10
3.19183e-10
3.16338e-10
3.07257e-10
2.64773e-10
1.8267e-10
1.07023e-10
4.70138e-11
1.13408e-11
3.55918e-13
5.95445e-14
6.2979e-13
4.19976e-12
2.27787e-11
1.16112e-10
7.83579e-10
2.90628e-09
6.51073e-09
3.14009e-08
1.28887e-06
9.22972e-07
3.28523e-06
1.39889e-06
7.32136e-07
7.474e-06
5.67477e-06
1.15467e-07
8.56135e-09
8.54526e-09
8.55115e-09
8.55656e-09
8.5586e-09
8.55925e-09
8.55999e-09
8.56069e-09
8.56149e-09
3.01799e-08
2.81188e-08
1.51591e-08
8.70594e-07
0.00031377
0.000338169
2.87705e-05
6.8061e-06
5.90278e-07
3.3118e-08
1.16156e-07
3.91974e-09
9.58756e-10
1.46463e-09
3.2407e-10
3.18082e-10
3.1802e-10
3.04735e-10
2.42672e-10
1.55487e-10
8.35336e-11
3.20936e-11
6.36931e-12
1.22973e-13
5.95499e-14
5.99773e-13
3.81727e-12
2.04836e-11
1.0871e-10
5.71676e-10
1.35538e-09
1.95502e-09
4.10575e-08
1.82704e-06
3.01631e-05
2.48594e-05
9.83422e-07
7.51229e-07
1.33316e-05
4.59029e-06
2.09939e-08
8.52708e-09
8.53611e-09
8.54526e-09
8.55115e-09
8.55833e-09
8.55889e-09
8.55925e-09
8.56038e-09
8.56383e-09
3.02766e-08
1.52077e-08
1.51428e-08
1.51591e-08
0.000302463
0.000338979
6.89998e-05
2.10289e-06
2.26798e-06
1.67821e-08
2.57393e-08
8.46517e-09
5.69527e-10
8.62579e-10
3.34597e-10
3.18082e-10
3.19951e-10
2.97177e-10
2.14081e-10
1.27497e-10
6.2478e-11
2.08538e-11
3.41957e-12
3.93607e-14
6.03889e-14
5.92538e-13
3.51195e-12
1.81705e-11
9.27682e-11
3.77407e-10
2.12569e-09
3.93941e-08
4.30253e-08
1.65648e-06
3.57367e-05
1.53192e-05
1.0298e-06
1.20918e-05
1.33839e-05
4.97229e-07
8.77188e-09
8.52497e-09
8.54062e-09
8.54707e-09
8.55511e-09
8.55823e-09
8.55828e-09
8.55972e-09
8.56225e-09
8.86892e-09
1.52894e-08
1.51422e-08
1.51363e-08
5.26607e-05
0.000343843
0.000339111
7.2118e-05
1.04625e-06
3.24107e-06
1.07228e-08
3.12626e-09
8.93347e-09
4.41973e-10
3.49319e-10
3.40948e-10
3.19364e-10
3.19808e-10
2.80633e-10
1.81356e-10
1.00346e-10
4.42591e-11
1.26884e-11
1.71904e-12
1.10648e-14
6.28151e-14
5.9832e-13
3.38918e-12
1.62722e-11
7.57708e-11
2.50641e-10
3.20215e-09
5.08483e-08
4.13673e-08
6.21998e-07
3.58338e-05
5.70645e-06
1.08729e-06
7.39266e-05
4.5519e-06
8.46707e-09
8.49378e-09
8.52489e-09
8.53857e-09
8.55051e-09
8.55615e-09
8.55828e-09
8.55828e-09
8.57228e-09
8.60152e-09
1.78256e-08
1.59813e-08
9.19114e-08
1.51428e-08
0.000292883
0.00034559
0.00034491
5.34597e-05
9.42827e-07
3.24882e-06
4.39303e-09
1.21172e-09
3.1657e-09
4.73565e-10
3.04534e-10
3.26231e-10
3.21521e-10
3.16147e-10
2.51984e-10
1.46324e-10
7.45697e-11
2.90499e-11
7.06956e-12
7.89725e-13
2.53722e-15
6.78263e-14
6.1807e-13
3.40482e-12
1.48717e-11
6.12905e-11
2.15626e-10
3.24231e-09
1.98806e-08
5.10189e-08
9.54408e-08
3.58255e-05
6.066e-06
0.000142351
8.81792e-05
8.48696e-09
8.45039e-09
8.52092e-09
8.52397e-09
8.52459e-09
8.54436e-09
8.56092e-09
8.55829e-09
8.57459e-09
8.85448e-09
2.97361e-08
6.17042e-08
1.57687e-08
6.31287e-06
2.86276e-05
0.000345637
0.000345839
0.000345978
1.18119e-05
8.98178e-07
3.24324e-06
1.24717e-09
5.80836e-10
5.51546e-10
5.94719e-10
2.9495e-10
3.02445e-10
3.20767e-10
3.03398e-10
2.10495e-10
1.10575e-10
5.10886e-11
1.72562e-11
3.532e-12
3.24059e-13
3.47492e-16
7.56602e-14
6.58322e-13
3.48947e-12
1.40573e-11
5.099e-11
2.3668e-10
2.63765e-09
2.11289e-09
2.04759e-07
2.14772e-05
3.58266e-05
6.4012e-06
0.000181492
0.000102981
8.52377e-09
8.49279e-09
8.52434e-09
8.52435e-09
8.53524e-09
8.61166e-09
8.60908e-09
8.65573e-09
2.92817e-08
2.65674e-08
4.86601e-08
6.47104e-08
1.82293e-08
4.10626e-05
0.000101178
0.000344666
0.00034559
0.000296589
6.20602e-07
8.44271e-07
3.12284e-06
6.11042e-10
3.70084e-10
4.47693e-10
6.45787e-10
2.91459e-10
2.94238e-10
3.19072e-10
2.68986e-10
1.60179e-10
7.67175e-11
3.15646e-11
9.11335e-12
1.55858e-12
1.16814e-13
8.28951e-18
8.56843e-14
7.20296e-13
3.66648e-12
1.38991e-11
4.7529e-11
2.09967e-10
1.06548e-09
2.23401e-09
9.5058e-07
3.26215e-05
3.36114e-05
6.78512e-05
0.000181553
0.000180909
8.52417e-09
8.52382e-09
8.52421e-09
8.53118e-09
8.78567e-09
9.94354e-09
9.51185e-09
8.92477e-09
2.47422e-07
1.16482e-06
2.78118e-07
2.14174e-07
1.17805e-05
5.92543e-05
9.08956e-05
0.000326468
0.000344633
6.42654e-05
2.47199e-07
7.18998e-07
1.09951e-06
3.73072e-10
2.87356e-10
3.48649e-10
5.51216e-10
2.90127e-10
2.94121e-10
3.0726e-10
2.11592e-10
1.09441e-10
4.81573e-11
1.73647e-11
4.24713e-12
6.04274e-13
3.67776e-14
-3.27751e-20
9.66554e-14
7.93587e-13
3.93931e-12
1.40155e-11
4.7189e-11
1.73694e-10
1.99216e-10
1.02946e-08
5.44103e-06
2.29855e-05
1.9413e-05
0.000153509
0.000181553
0.000174401
8.52647e-09
8.52421e-09
8.52786e-09
9.04841e-09
2.45369e-08
6.53122e-07
2.67765e-08
1.36888e-08
3.88802e-07
3.43797e-05
0.000193657
0.000126195
1.04212e-07
1.51841e-05
2.41226e-05
8.05714e-05
0.000168445
2.1122e-07
8.14754e-08
2.66866e-07
1.72118e-07
1.54575e-08
2.50345e-10
2.87547e-10
3.80623e-10
2.90509e-10
2.91621e-10
2.67248e-10
1.45917e-10
6.7305e-11
2.72584e-11
8.51023e-12
1.75696e-12
2.07808e-13
1.02484e-14
-4.64423e-21
1.07104e-13
8.63808e-13
4.23172e-12
1.43566e-11
4.5491e-11
1.28333e-10
2.25644e-10
1.1258e-07
5.78678e-06
2.46934e-06
6.37014e-06
0.000172044
0.000181553
4.01081e-05
8.52645e-09
8.52791e-09
8.61663e-09
1.58859e-08
7.63394e-06
2.32901e-05
9.86202e-06
7.52623e-07
1.98213e-06
0.000186681
0.00050355
0.000267538
6.70751e-08
1.57755e-07
2.65423e-06
6.0304e-06
2.71908e-06
7.37153e-08
3.25123e-08
4.53508e-08
2.41576e-08
1.19208e-08
2.37675e-10
2.54173e-10
3.2209e-10
2.87525e-10
2.71707e-10
1.94245e-10
8.99155e-11
3.81006e-11
1.40444e-11
3.77123e-12
6.59323e-13
6.52687e-14
2.62958e-15
1.3716e-20
1.15259e-13
9.12943e-13
4.48752e-12
1.49599e-11
4.34597e-11
9.11895e-11
1.11643e-09
2.16081e-07
1.30506e-06
1.43687e-06
2.32054e-06
0.000178911
0.000180239
7.33895e-08
8.54107e-09
8.58364e-09
1.04969e-08
5.18894e-06
2.33248e-05
2.33359e-05
2.32901e-05
2.84974e-06
5.99601e-06
0.000310571
0.000505235
0.000359562
5.74477e-08
7.27863e-08
1.22295e-06
1.77068e-06
5.71509e-07
2.60487e-08
1.03446e-08
1.50229e-08
5.89819e-09
3.89967e-09
2.37675e-10
2.47136e-10
3.22192e-10
2.72494e-10
2.1686e-10
1.22099e-10
5.12251e-11
2.04175e-11
6.71998e-12
1.55531e-12
2.33233e-13
1.97302e-14
6.72752e-16
1.72139e-20
1.19536e-13
9.30667e-13
4.65965e-12
1.57674e-11
4.23008e-11
6.92503e-11
5.1718e-09
2.42013e-07
1.8208e-07
1.43659e-06
5.07241e-05
0.000178111
0.000178182
8.86023e-09
8.59664e-09
8.86002e-09
4.04786e-07
1.69016e-05
2.33523e-05
2.33149e-05
8.87173e-06
3.7552e-07
1.60566e-06
0.000302625
0.000506065
0.000401425
4.84961e-08
3.5039e-08
2.00771e-07
2.54689e-07
1.44997e-07
9.25786e-09
3.95972e-09
5.13374e-09
1.81015e-09
2.34823e-10
2.35063e-10
2.49087e-10
3.16028e-10
2.33201e-10
1.47104e-10
7.04482e-11
2.84254e-11
1.0599e-11
3.07796e-12
6.22924e-13
8.23116e-14
6.22604e-15
1.97208e-16
2.29918e-20
1.19861e-13
9.27502e-13
4.70019e-12
1.62104e-11
4.22253e-11
8.28098e-11
7.17371e-09
1.46259e-07
1.16318e-07
4.97916e-06
0.000177698
0.000178111
0.000134006
1.03541e-08
8.85424e-09
1.03342e-08
3.43922e-06
2.33697e-05
2.33626e-05
1.23602e-05
4.1494e-08
6.13425e-08
5.46638e-07
0.00020845
0.000506058
0.000449876
3.1574e-08
2.65801e-08
3.33161e-08
6.72788e-08
3.41599e-08
3.479e-09
1.60898e-09
1.95129e-09
6.90723e-10
2.36804e-10
2.37674e-10
2.58141e-10
2.93186e-10
1.73829e-10
9.0446e-11
4.04143e-11
1.59534e-11
5.46325e-12
1.4099e-12
2.56866e-13
3.12508e-14
2.25393e-15
7.04194e-17
3.89954e-20
1.18824e-13
9.13792e-13
4.67287e-12
1.61624e-11
4.23777e-11
1.99089e-10
6.94374e-09
1.37593e-08
8.93908e-08
3.43452e-06
9.18482e-05
0.000177698
9.54048e-06
1.21369e-08
1.03518e-08
1.90322e-06
2.16524e-05
2.34859e-05
1.71763e-05
4.1494e-08
3.4525e-08
4.14933e-08
2.58824e-07
8.11913e-05
0.000506065
0.000465052
5.80114e-05
2.48234e-08
2.21279e-08
1.88803e-08
7.67559e-09
1.284e-09
7.52411e-10
9.3201e-10
3.89975e-10
2.42363e-10
2.42641e-10
2.57772e-10
2.49664e-10
1.16915e-10
5.57322e-11
2.4409e-11
9.27313e-12
2.89585e-12
6.79579e-13
1.15254e-13
1.34294e-14
9.67259e-16
3.6909e-17
7.47188e-20
1.15824e-13
8.83025e-13
4.57461e-12
1.59975e-11
4.33095e-11
3.0157e-10
5.25096e-09
3.95931e-09
8.7177e-08
1.75217e-06
3.41099e-06
0.000128248
2.23878e-08
1.46688e-08
1.98559e-08
1.05433e-05
2.3516e-05
2.35248e-05
2.16843e-05
1.24989e-06
3.1326e-08
3.44856e-08
1.25176e-07
1.76456e-05
0.000370617
0.00046702
0.000196194
2.11413e-08
1.79739e-08
8.13734e-09
1.6933e-09
6.36974e-10
4.29984e-10
5.3269e-10
2.79716e-10
2.4239e-10
2.44129e-10
2.53589e-10
1.86e-10
7.85387e-11
3.70071e-11
1.58041e-11
5.64845e-12
1.61397e-12
3.51148e-13
5.6999e-14
6.76095e-15
5.8978e-16
3.49908e-17
1.23636e-19
1.09644e-13
8.27064e-13
4.35608e-12
1.55498e-11
4.4662e-11
2.73706e-10
2.12768e-09
2.59452e-09
4.20874e-08
4.06582e-06
4.02963e-05
0.000170492
3.23898e-06
7.36962e-06
1.84906e-07
1.06334e-05
2.35215e-05
2.3516e-05
2.3507e-05
1.36803e-05
3.00271e-08
3.12296e-08
6.88563e-08
1.02541e-06
0.000227213
0.000465815
0.000329283
2.48828e-08
2.51865e-08
3.88129e-08
6.92361e-10
4.09549e-10
3.3081e-10
4.07788e-10
2.7622e-10
2.41615e-10
2.42195e-10
2.35616e-10
1.31779e-10
5.6469e-11
2.6398e-11
1.07462e-11
3.58685e-12
9.6157e-13
2.05629e-13
3.56132e-14
5.20332e-15
5.93021e-16
3.874e-17
1.80028e-19
1.00597e-13
7.51228e-13
3.98587e-12
1.45334e-11
4.42664e-11
2.42715e-10
7.50203e-10
1.26723e-09
2.01585e-08
1.84373e-05
0.000170867
0.00017201
0.00011107
1.4727e-05
1.1065e-07
3.27358e-06
2.03636e-05
2.3507e-05
2.19804e-05
1.46455e-06
2.96943e-08
2.99885e-08
3.96046e-08
3.14735e-07
7.97673e-05
0.000465815
0.000441268
3.09336e-06
2.71376e-08
4.28632e-08
2.5423e-08
3.30412e-10
3.03407e-10
3.45945e-10
2.88193e-10
2.40797e-10
2.37589e-10
2.00862e-10
9.68473e-11
4.36241e-11
2.01474e-11
7.95893e-12
2.64463e-12
7.42814e-13
1.75165e-13
3.46352e-14
5.44732e-15
6.6357e-16
5.02161e-17
2.91218e-19
8.94687e-14
6.59911e-13
3.48613e-12
1.28644e-11
4.13173e-11
1.82766e-10
5.22701e-10
1.23138e-09
6.3538e-08
1.91587e-05
0.00017364
0.000170866
0.000171592
1.39644e-06
1.04335e-07
1.53404e-07
4.75151e-06
1.16479e-05
2.6842e-06
2.96962e-08
2.96443e-08
2.9689e-08
3.16729e-08
1.02383e-07
5.24834e-06
0.000285952
0.000487126
0.000204019
1.6139e-08
4.33365e-08
4.69535e-08
3.03379e-10
2.94038e-10
2.99245e-10
2.92661e-10
2.383e-10
2.24751e-10
1.68575e-10
8.11756e-11
4.01841e-11
1.85995e-11
7.538e-12
2.61917e-12
7.6043e-13
1.85078e-13
3.78078e-14
6.47945e-15
8.50681e-16
6.89438e-17
4.94729e-19
7.70545e-14
5.5933e-13
2.91072e-12
1.07465e-11
3.51262e-11
1.36616e-10
4.7745e-10
1.59308e-09
2.13788e-07
3.20314e-06
0.000171876
0.000171196
0.00016935
1.04335e-07
1.04118e-07
1.04335e-07
1.06644e-07
3.07113e-08
3.03893e-08
2.96456e-08
2.96962e-08
3.06564e-08
3.23133e-08
5.05433e-08
5.87841e-07
0.000113143
0.000486449
0.000464372
1.44191e-08
1.27668e-08
4.78112e-08
3.13943e-09
2.8891e-10
2.85967e-10
2.86281e-10
2.29694e-10
2.07508e-10
1.48631e-10
8.20001e-11
4.13182e-11
1.91781e-11
7.86875e-12
2.79401e-12
8.49551e-13
2.18881e-13
4.73006e-14
8.55743e-15
1.22612e-15
1.08834e-16
8.91859e-19
6.41082e-14
4.5745e-13
2.33778e-12
8.61504e-12
2.88153e-11
1.13797e-10
4.56487e-10
8.04257e-10
2.7845e-07
4.12069e-05
0.000171927
0.000171887
0.000168486
1.04139e-07
1.04139e-07
1.04135e-07
1.09397e-07
1.69599e-07
3.04063e-08
3.07331e-08
3.06154e-08
9.16515e-08
1.29573e-07
1.1596e-07
2.29551e-07
1.0307e-05
0.000361008
0.00054674
0.000137993
9.08068e-09
2.31688e-08
1.10383e-08
2.87073e-10
2.85041e-10
2.86771e-10
2.20606e-10
1.91685e-10
1.43945e-10
8.59302e-11
4.44167e-11
2.08876e-11
8.81781e-12
3.26833e-12
1.04846e-12
2.88936e-13
6.81017e-14
1.33203e-14
2.01409e-15
1.86648e-16
1.70957e-18
5.14969e-14
3.6314e-13
1.83853e-12
6.84203e-12
2.40961e-11
1.01464e-10
4.71909e-10
7.42648e-10
1.13997e-06
0.000172033
0.000171926
0.000172029
0.000107127
1.08689e-07
1.04006e-07
8.69889e-07
8.30497e-06
2.641e-06
3.33446e-08
7.51624e-07
5.2151e-07
9.87614e-08
1.30313e-07
1.05101e-07
1.19846e-07
1.33672e-06
0.000139696
0.000546146
0.000523496
4.14522e-09
1.90557e-09
6.80858e-09
2.85735e-10
2.82922e-10
2.87877e-10
2.21523e-10
1.84371e-10
1.46201e-10
9.28393e-11
4.95667e-11
2.39788e-11
1.06206e-11
4.21249e-12
1.46794e-12
4.42365e-13
1.12587e-13
2.33356e-14
3.6586e-15
3.47837e-16
3.52087e-18
4.00935e-14
2.8342e-13
1.44948e-12
5.54229e-12
2.09502e-11
9.65917e-11
4.97085e-10
2.37066e-09
1.77961e-06
0.000103542
8.48301e-05
0.000171933
1.06231e-05
1.1206e-07
1.12573e-07
5.73971e-06
1.5112e-05
4.64686e-06
2.48637e-06
1.34694e-05
1.2657e-05
2.33325e-06
7.40821e-08
7.33133e-08
7.40821e-08
4.80369e-07
1.59861e-05
0.000424939
0.000575064
0.000235429
1.59135e-09
8.65688e-10
2.84623e-10
2.82885e-10
2.87853e-10
2.26679e-10
1.84991e-10
1.50677e-10
1.02712e-10
5.78814e-11
2.91823e-11
1.36947e-11
5.86367e-12
2.23235e-12
7.35272e-13
2.01874e-13
4.41207e-14
7.13032e-15
6.93016e-16
7.74137e-18
3.05554e-14
2.21331e-13
1.16991e-12
4.63743e-12
1.87412e-11
9.39988e-11
4.88499e-10
4.89614e-10
2.99549e-06
4.99125e-06
7.01849e-06
0.000129491
1.26225e-07
1.16556e-07
1.26223e-07
1.48939e-05
1.5112e-05
5.94873e-06
1.34946e-05
1.35768e-05
1.35767e-05
1.35767e-05
7.69839e-07
7.36625e-08
7.33588e-08
1.10465e-07
1.46803e-06
0.000127843
0.000575064
0.000575064
1.22579e-05
1.56616e-08
2.82358e-10
2.74075e-10
2.81364e-10
2.30425e-10
1.87324e-10
1.56154e-10
1.14294e-10
6.85012e-11
3.6445e-11
1.82813e-11
8.49423e-12
3.53381e-12
1.26581e-12
3.72118e-13
8.54831e-14
1.42838e-14
1.42759e-15
1.75864e-17
2.31525e-14
1.75798e-13
9.80205e-13
4.05101e-12
1.7153e-11
9.18209e-11
4.79959e-10
4.92257e-10
4.65185e-06
1.87714e-06
5.75833e-06
0.000140623
2.4982e-05
3.43285e-05
2.84547e-05
1.7387e-05
6.25884e-06
1.21262e-05
1.29249e-05
8.31942e-06
1.14259e-05
1.35421e-05
1.22332e-05
7.33772e-08
7.36333e-08
7.39533e-08
2.51489e-07
1.09175e-05
0.000542899
0.000574754
0.000415994
2.62433e-06
1.82098e-09
2.73703e-10
2.44678e-10
2.30874e-10
1.90979e-10
1.62907e-10
1.26387e-10
8.06643e-11
4.56899e-11
2.46377e-11
1.24199e-11
5.60905e-12
2.16227e-12
6.75129e-13
1.62508e-13
2.81092e-14
2.90687e-15
3.96809e-17
1.77325e-14
1.43823e-13
8.57769e-13
3.71212e-12
1.60164e-11
8.93926e-11
4.90557e-10
4.66786e-10
2.20905e-06
5.53287e-07
4.02849e-06
0.000152055
0.00015182
0.000143905
3.30598e-05
8.8692e-06
1.4643e-06
5.06956e-06
1.30436e-06
3.54094e-08
3.55563e-08
1.00884e-05
1.27578e-05
5.73309e-06
7.40608e-08
7.68699e-08
7.76619e-08
9.51731e-08
0.000121246
0.000574444
0.000574444
1.37359e-05
1.87964e-08
5.40364e-10
2.48164e-10
2.22816e-10
1.94933e-10
1.69906e-10
1.38112e-10
9.32477e-11
5.65408e-11
3.29045e-11
1.7928e-11
8.69607e-12
3.56436e-12
1.17297e-12
2.93398e-13
5.24151e-14
5.64477e-15
8.65701e-17
1.39348e-14
1.21813e-13
7.7882e-13
3.52459e-12
1.51759e-11
8.60058e-11
5.05526e-10
4.41912e-10
-7.39681e-09
1.60512e-07
0.00011613
0.000151904
0.000124119
5.70986e-05
1.52156e-05
1.61792e-06
5.84357e-07
4.08735e-07
3.5577e-08
3.50154e-08
3.54096e-08
3.58033e-08
1.16094e-05
1.1726e-05
1.13979e-06
7.84654e-08
8.15876e-08
8.54223e-08
1.92362e-07
0.000565395
0.000571952
0.000164561
7.0815e-07
1.527e-09
4.34498e-10
2.05464e-10
1.9449e-10
1.76313e-10
1.48722e-10
1.05361e-10
6.85696e-11
4.31005e-11
2.51796e-11
1.2959e-11
5.61013e-12
1.92209e-12
4.9277e-13
9.06595e-14
1.02625e-14
1.79889e-16
1.13319e-14
1.06147e-13
7.22959e-13
3.40443e-12
1.44983e-11
8.12308e-11
5.05634e-10
3.43072e-10
-3.67181e-09
1.55066e-07
0.00014057
0.000146199
1.59723e-05
9.74134e-07
7.2459e-07
6.32914e-07
5.65586e-07
4.31666e-07
3.50576e-08
3.55781e-08
3.58033e-08
3.66211e-08
5.58971e-07
5.49955e-06
1.75905e-06
8.15819e-08
8.49675e-08
8.49732e-08
9.4609e-08
0.00017834
0.000569461
0.000506154
5.40029e-06
8.66046e-09
7.78998e-10
1.97552e-10
1.91676e-10
1.81557e-10
1.57317e-10
1.16656e-10
8.15556e-11
5.51091e-11
3.41559e-11
1.85641e-11
8.45637e-12
2.93693e-12
7.59234e-13
1.44089e-13
1.72817e-14
3.41596e-16
9.50444e-15
9.40355e-14
6.7569e-13
3.29697e-12
1.38499e-11
7.52056e-11
5.05373e-10
2.33956e-10
-4.05625e-11
2.69417e-08
0.000131746
3.19818e-05
2.29501e-05
3.32467e-05
1.71318e-06
1.0707e-06
1.5565e-06
1.24029e-06
7.98121e-08
4.61861e-08
4.38528e-08
3.7309e-08
3.79436e-08
2.11194e-07
1.575e-06
1.9504e-07
8.49732e-08
8.60002e-08
1.55139e-06
1.75195e-06
0.000408806
0.000369952
6.79603e-06
5.90629e-08
3.26761e-10
1.97486e-10
1.90865e-10
1.85899e-10
1.63628e-10
1.27514e-10
9.55597e-11
6.86776e-11
4.48983e-11
2.60211e-11
1.19017e-11
3.99705e-12
1.0296e-12
2.01345e-13
2.53286e-14
5.09815e-16
8.17465e-15
8.37521e-14
6.27343e-13
3.16376e-12
1.30948e-11
6.86475e-11
5.00062e-10
2.05316e-10
2.26087e-10
4.19051e-07
6.23174e-05
1.91311e-05
7.2824e-05
7.62771e-05
2.15379e-05
1.41158e-06
1.52988e-06
1.86638e-06
2.8659e-07
3.12446e-06
2.01732e-06
1.87793e-07
3.79904e-08
4.29751e-08
6.26334e-07
2.22534e-07
8.63907e-08
5.59468e-07
1.8384e-06
1.56476e-06
2.66348e-05
3.75576e-05
6.0374e-06
1.16131e-07
1.93551e-10
1.91896e-10
1.91724e-10
1.9005e-10
1.68769e-10
1.38942e-10
1.107e-10
8.38876e-11
5.85403e-11
3.43773e-11
1.4155e-11
4.45866e-12
1.13541e-12
2.2442e-13
2.82405e-14
5.25608e-16
7.23147e-15
7.44953e-14
5.72591e-13
2.9721e-12
1.21062e-11
6.19434e-11
4.87451e-10
1.90007e-10
2.04969e-10
1.85517e-06
1.44415e-06
1.66727e-05
7.62343e-05
7.65147e-05
7.61089e-05
5.01565e-06
6.27465e-06
2.59858e-06
4.15348e-06
1.79843e-05
1.69823e-05
3.48701e-06
5.11708e-08
4.77948e-08
8.58386e-08
1.95871e-07
1.48321e-07
1.19506e-06
7.48373e-07
8.87199e-07
1.1745e-06
1.58084e-06
2.55813e-06
1.87066e-07
1.94363e-10
1.93151e-10
1.93895e-10
1.94723e-10
1.74501e-10
1.51902e-10
1.27652e-10
1.02078e-10
7.46902e-11
3.73546e-11
1.41057e-11
4.38135e-12
1.11195e-12
2.19051e-13
2.72602e-14
4.70985e-16
6.7077e-15
6.63303e-14
5.11358e-13
2.7051e-12
1.08254e-11
5.49915e-11
4.62948e-10
1.80464e-10
1.89328e-10
1.40107e-06
7.45951e-07
6.30975e-05
7.65016e-05
7.66507e-05
6.29249e-05
1.82166e-05
1.78024e-05
4.21098e-06
1.61722e-05
1.80242e-05
1.80557e-05
1.38642e-05
6.68505e-07
3.84244e-08
3.0962e-08
9.90137e-08
1.78517e-07
1.19506e-06
3.26877e-07
3.91766e-07
4.24542e-07
4.80012e-07
1.5416e-07
1.81828e-07
1.9511e-10
1.94364e-10
1.97285e-10
2.00528e-10
1.82118e-10
1.66536e-10
1.4802e-10
1.2673e-10
7.96315e-11
3.63506e-11
1.33694e-11
4.07032e-12
1.02338e-12
1.98616e-13
2.38606e-14
3.52667e-16
6.62303e-15
5.99075e-14
4.48982e-13
2.38114e-12
9.34141e-12
4.78961e-11
4.07775e-10
1.69939e-10
1.74124e-10
6.07118e-08
2.8958e-07
7.63974e-05
7.67149e-05
7.66336e-05
2.54671e-05
1.09691e-05
7.7392e-06
9.47666e-06
1.79842e-05
1.80508e-05
1.81311e-05
1.81554e-05
3.43683e-06
3.24292e-08
2.49592e-08
1.8726e-08
7.84286e-08
1.11372e-06
2.27798e-07
2.24141e-07
2.74587e-07
1.59971e-06
3.39386e-08
3.59123e-08
1.96367e-10
1.9511e-10
2.01744e-10
2.07296e-10
1.91997e-10
1.84099e-10
1.75207e-10
1.42954e-10
7.67955e-11
3.30733e-11
1.17245e-11
3.48423e-12
8.56897e-13
1.60716e-13
1.79676e-14
1.95164e-16
6.72215e-15
5.62728e-14
3.92516e-13
2.04943e-12
7.88529e-12
4.12827e-11
3.20432e-10
1.55889e-10
5.3875e-10
6.62628e-12
4.6802e-08
6.98806e-05
7.63974e-05
7.16213e-05
8.75548e-06
7.56811e-06
7.69564e-06
7.7392e-06
1.24433e-05
1.80281e-05
1.807e-05
1.81711e-05
7.14713e-06
3.15622e-08
1.86597e-08
1.80863e-08
2.3087e-08
1.10418e-07
7.8899e-08
2.58902e-07
1.4724e-05
1.27974e-05
6.79527e-09
-1.66347e-10
1.96254e-10
1.97476e-10
2.09187e-10
2.15724e-10
2.07131e-10
2.09457e-10
2.08118e-10
1.38991e-10
6.84146e-11
2.73175e-11
9.13547e-12
2.6175e-12
6.20432e-13
1.09178e-13
1.08741e-14
7.31617e-17
7.07592e-15
5.57513e-14
3.47263e-13
1.75566e-12
6.68087e-12
3.57593e-11
2.3601e-10
1.47153e-10
3.74558e-09
2.55259e-09
1.6059e-08
1.59738e-05
6.63536e-05
1.80514e-05
6.28906e-06
7.10426e-06
8.14255e-06
7.78143e-06
7.8663e-06
1.2169e-05
1.81292e-05
1.8215e-05
8.57444e-06
3.33192e-08
1.80045e-08
1.76424e-08
1.89795e-08
1.99983e-08
2.96335e-08
6.44265e-07
2.45274e-05
2.31672e-05
1.17265e-09
-3.00952e-10
1.99042e-10
1.98358e-10
2.22132e-10
2.31481e-10
2.36937e-10
2.41968e-10
2.08917e-10
1.23822e-10
5.41412e-11
1.96272e-11
6.25323e-12
1.71422e-12
3.82345e-13
6.09842e-14
5.17556e-15
1.65326e-17
7.84501e-15
5.64379e-14
3.17805e-13
1.52464e-12
5.8244e-12
3.14108e-11
1.8608e-10
1.44347e-10
3.75628e-09
2.0482e-09
1.58609e-07
7.68881e-07
7.64739e-06
2.15721e-06
3.71511e-06
9.56069e-05
0.000103402
4.529e-05
7.52461e-06
4.50036e-06
1.61673e-05
1.72442e-05
4.50083e-06
5.1156e-08
1.75677e-08
1.74187e-08
4.20963e-08
3.37456e-08
3.759e-08
1.5495e-05
2.4754e-05
2.43493e-05
6.17491e-10
1.5298e-10
1.99354e-10
2.03801e-10
2.41948e-10
2.54078e-10
2.70719e-10
2.64765e-10
1.94549e-10
9.64235e-11
3.654e-11
1.23012e-11
3.72989e-12
9.62199e-13
1.9625e-13
2.73925e-14
1.90813e-15
1.57198e-18
9.07785e-15
5.87156e-14
3.08644e-13
1.37431e-12
5.31803e-12
2.79689e-11
1.56639e-10
1.42813e-10
1.26665e-09
7.34267e-10
1.16716e-07
8.69725e-07
7.27785e-07
1.28864e-06
4.53399e-05
0.000139377
0.000139517
0.000139149
3.40201e-05
3.52043e-06
9.93332e-06
8.84861e-06
1.48591e-06