/*--------------------------------*- C++ -*----------------------------------*\
  =========                 |
  \\      /  F ield         | OpenFOAM: The Open Source CFD Toolbox
   \\    /   O peration     | Website:  https://openfoam.org
    \\  /    A nd           | Version:  9
     \\/     M anipulation  |
\*---------------------------------------------------------------------------*/
FoamFile
{
    format      ascii;
    class       volScalarField;
    location    "0.14";
    object      p;
}
// * * * * * * * * * * * * * * * * * * * * * * * * * * * * * * * * * * * * * //

dimensions      [1 -1 -2 0 0 0 0];

internalField   nonuniform List<scalar> 
5000
(
1.89738
1.8174
1.71722
1.59232
1.43721
1.24339
0.996386
0.676531
0.273279
-0.279295
-1.20269
-1.45905
-1.77896
20.7464
23.6817
23.07
21.9603
22.4162
23.3529
24.4219
25.0595
25.023
24.3787
23.4899
22.6735
22.1505
22.0253
22.2642
22.4268
19.8009
0.885105
-0.0030288
0.0354474
0.191488
0.377192
0.599552
0.838626
1.06458
1.26482
1.43926
1.5921
1.72773
1.8496
1.96014
2.06104
2.1536
2.23886
2.31768
2.39081
2.45821
1.88467
1.80628
1.70912
1.58933
1.44248
1.26197
1.03743
0.749616
0.393008
-0.0108639
-0.821007
-0.880007
-1.80946
15.8912
21.3046
21.3621
20.2597
21.1966
22.4121
23.628
24.4111
24.4664
23.7999
22.6999
21.5491
20.5597
19.944
20.0061
20.572
12.2663
0.428905
0.323623
0.347587
0.440049
0.583801
0.773471
0.983054
1.18461
1.36557
1.52432
1.66373
1.78755
1.89895
2.00015
2.09271
2.17779
2.2563
2.329
2.39653
2.45897
1.87651
1.80102
1.7085
1.59589
1.45988
1.29553
1.09763
0.851428
0.539742
0.273517
-0.305893
-0.307518
-0.31959
10.0657
17.9907
18.8533
17.9565
19.7245
21.4521
22.9762
24.0129
24.2933
23.7546
22.6599
21.3683
20.0305
18.9039
18.8078
19.4894
2.55146
0.839617
0.722505
0.719017
0.740222
0.839103
0.98944
1.15845
1.32704
1.48239
1.62091
1.74381
1.85377
1.95325
2.04405
2.12744
2.20434
2.27551
2.34155
2.40298
2.45998
1.87283
1.80113
1.71437
1.61039
1.4871
1.34078
1.17035
0.971427
0.707457
0.539185
0.214181
0.188152
0.503967
2.65711
11.8289
15.3196
14.992
18.2982
20.8082
22.7828
24.1251
24.6959
24.447
23.7065
22.7861
21.5516
20.4177
21.2655
14.6377
1.24228
1.13831
1.07425
1.05491
1.05414
1.11403
1.21817
1.34634
1.47988
1.60699
1.72318
1.82812
1.92325
2.01019
2.09017
2.16409
2.23262
2.29626
2.35543
2.41047
2.46147
1.87307
1.80582
1.72563
1.63121
1.5217
1.39456
1.25034
1.09749
0.888451
0.778808
0.64264
0.545285
0.856662
-1.39946
5.22058
11.458
12.2535
17.7805
21.0154
23.3408
24.9169
25.695
25.6665
25.2968
24.7907
23.6773
23.619
24.5636
7.43911
1.5502
1.39815
1.39695
1.29182
1.31137
1.35442
1.42943
1.52408
1.62639
1.72747
1.82255
1.9103
1.99123
2.06618
2.13585
2.20079
2.26136
2.31789
2.37058
2.41926
2.46328
1.87658
1.81425
1.74116
1.65672
1.56112
1.45324
1.33297
1.21847
1.06141
0.983897
0.962734
0.875608
1.21754
1.76079
2.23255
11.8068
11.5736
17.8319
22.0862
24.6314
26.3342
27.3005
27.4894
27.301
26.6853
25.2654
24.2443
13.5774
1.78832
1.67603
1.61283
1.59837
1.5163
1.52028
1.55044
1.60523
1.67628
1.7553
1.83536
1.91251
1.98536
2.0538
2.11813
2.17875
2.23601
2.29025
2.34185
2.39175
2.44107
2.48147
1.88282
1.82566
1.75989
1.68545
1.60325
1.51368
1.41512
1.32967
1.21728
1.15691
1.18827
1.17038
1.41923
1.82413
8.2479
14.917
14.3741
19.2254
23.7609
26.3558
27.9875
29.1518
30.0799
31.1802
31.3763
28.1243
13.9655
2.40505
1.77274
1.73605
1.73157
1.6886
1.66816
1.67807
1.70509
1.74651
1.80124
1.86312
1.92701
1.9899
2.05044
2.10821
2.16317
2.21545
2.26523
2.31264
2.35768
2.40081
2.44518
2.49117
1.89124
1.83935
1.78084
1.71613
1.64647
1.57361
1.49489
1.4315
1.35712
1.31201
1.35839
1.37338
1.49364
1.63903
1.02727
8.23316
18.9776
23.7115
27.8124
29.1758
29.1899
28.9535
30.1849
34.3766
27.1384
10.2306
1.8477
1.72473
1.78891
1.79586
1.78163
1.78277
1.79319
1.80294
1.82676
1.86008
1.90291
1.95176
2.0031
2.05464
2.10504
2.15368
2.20028
2.24474
2.28703
2.3271
2.36469
2.39926
2.43283
2.47075
1.90133
1.85464
1.80317
1.74768
1.68961
1.63161
1.571
1.52629
1.48079
1.45322
1.49582
1.52018
1.56639
1.66134
1.53001
1.8632
7.28761
20.9518
33.1165
32.4006
28.3425
23.7447
16.4505
7.76351
3.97146
1.97675
2.02552
1.89817
1.88721
1.87795
1.87151
1.87392
1.88826
1.89895
1.92125
1.94948
1.9837
2.02315
2.06511
2.10785
2.15017
2.1914
2.23118
2.26934
2.30578
2.34051
2.37338
2.40375
2.43224
2.46338
1.91261
1.87096
1.82614
1.77924
1.73173
1.6868
1.64226
1.61367
1.59054
1.58469
1.61906
1.64136
1.65808
1.77564
1.67647
1.77236
1.74168
3.63804
7.05358
9.08926
7.21832
3.95823
2.04455
1.91522
1.98221
1.99116
1.9914
1.96928
1.94928
2.0008
1.94321
1.94802
1.96336
1.97345
1.99229
2.01709
2.04633
2.07919
2.11439
2.15057
2.18672
2.22223
2.25674
2.29005
2.32205
2.35272
2.382
2.40931
2.43443
2.46022
1.92464
1.88779
1.84919
1.81012
1.77209
1.73856
1.7079
1.69315
1.68812
1.70135
1.73421
1.74592
1.77203
1.78249
1.77168
1.81061
1.8538
1.90475
1.92063
1.93665
1.93714
1.94175
1.9532
1.98487
1.98659
1.98596
1.99509
1.99263
1.98564
2.06452
1.99908
2.00868
2.01726
2.03153
2.04852
2.06997
2.09465
2.12236
2.15247
2.18371
2.21518
2.24631
2.27675
2.30629
2.33478
2.36218
2.3884
2.413
2.43549
2.45739
1.93704
1.90469
1.87181
1.83977
1.81012
1.7864
1.76751
1.76429
1.77329
1.79914
1.8451
1.86038
1.85289
1.84623
1.83962
1.85629
1.87004
1.91062
1.92908
1.93914
1.94083
1.94226
1.95411
1.97281
1.98068
1.98514
1.99808
2.01078
2.02184
2.07459
2.11593
2.05434
2.06793
2.08017
2.09463
2.1106
2.13079
2.15438
2.18045
2.20794
2.23591
2.26377
2.29115
2.31783
2.34366
2.36851
2.39225
2.41451
2.43483
2.45413
1.94946
1.92127
1.8936
1.8678
1.8454
1.83
1.82093
1.82689
1.84605
1.87669
1.91533
1.95088
1.9019
1.90319
1.89574
1.89769
1.90697
1.92517
1.93067
1.93271
1.93451
1.93927
1.9477
1.95944
1.96908
1.98019
1.9974
2.01857
2.04251
2.10291
2.18315
2.09477
2.1072
2.11655
2.12646
2.13802
2.15446
2.17487
2.1982
2.22319
2.24886
2.27456
2.29989
2.32463
2.3486
2.37167
2.39362
2.41407
2.43263
2.4501
1.96161
1.93719
1.91419
1.89388
1.8777
1.86921
1.86822
1.88147
1.90838
1.94261
2.04037
2.01842
1.97046
1.95671
1.94442
1.93782
1.93719
1.94076
1.93965
1.93614
1.93361
1.93382
1.93754
1.94458
1.95383
1.96715
1.98684
2.0121
2.04004
2.12841
2.18981
2.13215
2.13619
2.13848
2.14187
2.14994
2.16381
2.1827
2.20495
2.22899
2.25375
2.27853
2.30293
2.32672
2.34974
2.37183
2.39274
2.41206
2.42942
2.4456
1.97325
1.95219
1.9333
1.91774
1.90686
1.90409
1.90974
1.92918
1.9628
2.00392
2.05785
2.05839
2.02756
2.0051
1.98658
1.97323
1.96356
1.95683
1.94843
1.93873
1.93068
1.92573
1.92423
1.92661
1.93312
1.94514
1.9642
1.99015
2.02095
2.0736
2.17407
2.14082
2.13555
2.13395
2.1343
2.1417
2.15619
2.17634
2.19984
2.22493
2.25043
2.2757
2.30037
2.32427
2.34726
2.36915
2.38968
2.40847
2.42524
2.44073
1.98418
1.96604
1.95068
1.93916
1.93275
1.93471
1.9458
1.97055
2.0097
2.05649
2.09913
2.0997
2.07607
2.04897
2.025
2.00344
1.98656
1.97173
1.95647
1.94045
1.92628
1.91538
1.90771
1.90407
1.90533
1.91279
1.92759
1.94948
1.97608
2.00328
2.11121
2.12745
2.09151
2.09154
2.09661
2.10943
2.12964
2.15489
2.18266
2.21111
2.23918
2.26639
2.29255
2.31757
2.34136
2.36376
2.38448
2.40325
2.41991
2.43523
1.99424
1.9786
1.96615
1.95794
1.95523
1.96106
1.97654
2.0055
2.04878
2.09827
2.14074
2.14191
2.11852
2.08708
2.05594
2.03033
2.00619
1.98482
1.96337
1.94111
1.9205
1.90296
1.8879
1.8764
1.86979
1.8696
1.87716
1.89272
1.91501
1.94356
2.00453
2.05311
1.98409
2.00592
2.02732
2.05374
2.08537
2.11985
2.15482
2.18878
2.22107
2.25152
2.2802
2.30718
2.33247
2.35591
2.37729
2.39646
2.41342
2.42888
2.00329
1.98974
1.97961
1.97395
1.97416
1.98306
2.00201
2.03426
2.08065
2.13235
2.17252
2.18092
2.15475
2.11924
2.08583
2.05145
2.02271
1.99598
1.96916
1.94099
1.91375
1.88883
1.86503
1.84363
1.82637
1.81517
1.81207
1.81887
1.83669
1.86797
1.89845
1.95773
1.8809
1.90982
1.94457
1.9857
2.03067
2.07628
2.12004
2.16079
2.1983
2.23281
2.26466
2.29413
2.32131
2.34612
2.36839
2.38819
2.40568
2.42146
2.01124
1.99936
1.99097
1.98715
1.98947
2.00064
2.02226
2.05722
2.10638
2.16209
2.2065
2.21202
2.18616
2.14319
2.10557
2.06849
2.03599
2.00523
1.97399
1.94045
1.90664
1.87377
1.83994
1.80662
1.77595
1.75004
1.73133
1.72253
1.72384
1.73192
1.81102
1.82206
1.80264
1.82501
1.86601
1.91782
1.97462
2.03083
2.08327
2.13087
2.17374
2.21246
2.24764
2.27969
2.3088
2.33493
2.35809
2.37854
2.39662
2.4128
2.018
2.00736
2.00016
1.99752
2.00117
2.01379
2.03722
2.07437
2.12599
2.18631
2.23156
2.24091
2.20837
2.16972
2.11857
2.08101
2.04613
2.01264
1.97808
1.93991
1.90005
1.85903
1.81431
1.76759
1.72146
1.67772
1.63942
1.61133
1.59498
1.60167
1.63317
1.65428
1.67689
1.72089
1.78042
1.84901
1.91989
1.98722
2.04817
2.10224
2.15009
2.19268
2.23084
2.26514
2.29581
2.32294
2.34672
2.36767
2.38625
2.40277
2.02351
2.01364
2.00711
2.00505
2.00931
2.02254
2.04679
2.08523
2.13863
2.20283
2.24837
2.25919
2.23435
2.18061
2.1266
2.08921
2.05324
2.01835
1.98175
1.94021
1.89437
1.84632
1.79069
1.73025
1.66803
1.60446
1.54394
1.49518
1.46442
1.46343
1.46258
1.48978
1.53234
1.6063
1.69265
1.7831
1.8702
1.949
2.01797
2.07775
2.12977
2.17544
2.21585
2.25165
2.28321
2.31076
2.33471
2.35584
2.3747
2.39138
2.02774
2.01811
2.01173
2.0097
2.0139
2.0269
2.05089
2.08932
2.14316
2.2086
2.25625
2.26493
2.24961
2.18382
2.13053
2.09287
2.05711
2.02224
1.98507
1.94168
1.89184
1.83702
1.77192
1.69913
1.62222
1.53871
1.45442
1.38397
1.33916
1.34005
1.33976
1.35471
1.4232
1.52133
1.63043
1.73732
1.83663
1.92351
1.99778
2.06112
2.11558
2.16288
2.20425
2.24043
2.27189
2.29909
2.32264
2.3435
2.36226
2.37884
2.03073
2.02077
2.01397
2.01142
2.01489
2.02683
2.04946
2.08637
2.13909
2.20726
2.25329
2.25508
2.24238
2.19743
2.12624
2.09109
2.05727
2.02406
1.98804
1.9447
1.89296
1.8337
1.76092
1.6795
1.59515
1.4944
1.38743
1.29464
1.23439
1.26929
1.27952
1.27649
1.37621
1.48961
1.61081
1.72616
1.82928
1.91782
1.99265
2.05604
2.11024
2.15701
2.19755
2.23261
2.26282
2.28878
2.31128
2.33133
2.34948
2.3656
2.03254
2.02169
2.01387
2.01019
2.01226
2.02226
2.04238
2.0762
2.12662
2.18816
2.23735
2.2427
2.22161
2.17555
2.11609
2.08374
2.05347
2.02358
1.99055
1.94962
1.89874
1.83895
1.7631
1.68013
1.61209
1.4912
1.36988
1.26792
1.19954
1.17872
1.23348
1.28128
1.39429
1.51604
1.63894
1.75179
1.85039
1.93405
2.00448
2.06412
2.11507
2.15891
2.19666
2.22908
2.25687
2.28075
2.30155
2.32018
2.33717
2.35244
2.0333
2.02103
2.0116
2.00614
2.00602
2.01315
2.02951
2.05837
2.10397
2.15886
2.20544
2.21309
2.18914
2.13384
2.09967
2.07108
2.04562
2.02059
1.99277
1.95845
1.9102
1.85444
1.78302
1.72122
1.73531
1.55391
1.42134
1.32867
1.2688
1.2574
1.29655
1.37983
1.48515
1.59932
1.71053
1.81064
1.89715
1.97034
2.03215
2.08471
2.12976
2.1685
2.20177
2.23027
2.25471
2.27584
2.29437
2.31104
2.32631
2.34035
2.03312
2.01903
2.00745
1.99953
1.99641
1.99963
2.01087
2.03286
2.06853
2.11503
2.15647
2.16929
2.14619
2.10522
2.07632
2.0531
2.03357
2.01465
1.99451
1.96689
1.92966
1.8795
1.81717
1.76985
1.79422
1.63485
1.53141
1.45653
1.4161
1.42019
1.46411
1.54029
1.63073
1.72537
1.81506
1.89502
1.964
2.02271
2.0728
2.11582
2.15294
2.18499
2.21258
2.23632
2.25682
2.27472
2.29056
2.30481
2.31787
2.33038
2.03215
2.01595
2.00176
1.99075
1.9838
1.98208
1.98682
1.99995
2.02431
2.05977
2.09275
2.11518
2.09973
2.06529
2.04572
2.0295
2.01717
2.00549
1.99426
1.97647
1.94901
1.91458
1.86625
1.82973
1.86257
1.75124
1.68158
1.63284
1.61466
1.63137
1.67497
1.7367
1.80548
1.87434
1.93807
1.99456
2.04356
2.08587
2.12259
2.15463
2.18267
2.20715
2.22849
2.24707
2.26335
2.27777
2.29064
2.30214
2.31265
2.3234
2.03051
2.01205
1.99493
1.98026
1.96873
1.9611
1.95806
1.96074
1.97238
1.99742
2.0568
2.05554
2.03733
2.02031
2.0086
2.00015
1.99613
1.99378
1.99232
1.98689
1.97552
1.95682
1.92812
1.89664
1.96769
1.89301
1.85576
1.83544
1.8387
1.86373
1.90145
1.94492
1.98868
2.02984
2.06692
2.09975
2.12873
2.15445
2.17746
2.19816
2.21682
2.2336
2.24864
2.26208
2.27412
2.28497
2.29474
2.30332
2.3111
2.31994
2.02834
2.00755
1.98729
1.96856
1.95181
1.93743
1.92554
1.9167
1.91538
1.93125
1.96226
1.98591
1.97637
1.97024
1.96576
1.9653
1.97116
1.97956
1.98916
2.00071
2.00487
2.0048
1.99896
1.98781
2.09138
2.05789
2.03731
2.04515
2.06637
2.09528
2.1234
2.14706
2.16562
2.18028
2.19252
2.20352
2.21391
2.22402
2.23396
2.24379
2.25349
2.26296
2.27204
2.2806
2.28855
2.29592
2.30261
2.30826
2.31327
2.32016
2.02581
2.00266
1.97914
1.95606
1.93363
1.91182
1.89012
1.86858
1.85385
1.86168
1.89663
1.9008
1.91833
1.91458
1.91742
1.92624
1.94239
1.96177
1.98455
2.0109
2.03412
2.05455
2.07328
2.09449
2.14115
2.2238
2.20751
2.24603
2.28082
2.31003
2.32691
2.33134
2.32692
2.31828
2.309
2.30104
2.29511
2.29129
2.28945
2.28944
2.29104
2.2939
2.29759
2.30168
2.30583
2.3099
2.31364
2.31649
2.31886
2.32383
2.02309
1.99759
1.97076
1.94316
1.91472
1.88494
1.85257
1.8167
1.78585
1.78049
1.80142
1.83756
1.84581
1.85059
1.86283
1.88116
1.90826
1.93984
1.97791
2.02027
2.06181
2.10242
2.14284
2.18427
2.2223
2.3617
2.37449
2.42974
2.47159
2.49815
2.50383
2.49137
2.46766
2.43985
2.4129
2.38926
2.36963
2.35395
2.34199
2.33349
2.32806
2.32516
2.3241
2.3242
2.32491
2.32595
2.32698
2.32728
2.32726
2.33038
2.02042
1.99257
1.96241
1.93022
1.89559
1.85747
1.81379
1.7625
1.71318
1.69563
1.7222
1.75147
1.76451
1.77842
1.80173
1.8305
1.86852
1.91361
1.96617
2.02436
2.08687
2.14681
2.20702
2.26615
2.31546
2.48194
2.52584
2.59359
2.63249
2.65455
2.65066
2.62472
2.58595
2.54322
2.50246
2.46639
2.43575
2.41043
2.39016
2.37462
2.36332
2.35553
2.35037
2.34697
2.34465
2.34301
2.34163
2.33972
2.3376
2.33901
2.01805
1.98784
1.95438
1.91761
1.87678
1.8302
1.77495
1.70816
1.63968
1.60709
1.62229
1.64996
1.68098
1.69904
1.73506
1.77602
1.82391
1.88199
1.94908
2.027
2.10807
2.18597
2.26442
2.3418
2.41699
2.49616
2.67981
2.69701
2.75447
2.77635
2.76664
2.73119
2.68154
2.62787
2.57681
2.53136
2.49231
2.45955
2.4328
2.41168
2.39563
2.3838
2.3752
2.36883
2.36391
2.35997
2.35654
2.35277
2.34892
2.34877
2.01627
1.98372
1.947
1.90576
1.85886
1.80395
1.73716
1.655
1.56685
1.5184
1.51396
1.5456
1.58562
1.61807
1.66574
1.71849
1.77858
1.84804
1.93005
2.02539
2.12384
2.21771
2.31141
2.40249
2.4893
2.56294
2.74521
2.81835
2.85112
2.86746
2.85357
2.81181
2.75486
2.69368
2.63546
2.58341
2.5384
2.50033
2.46887
2.44361
2.42392
2.4089
2.3975
2.3887
2.38165
2.37582
2.37073
2.36549
2.3603
2.35879
2.0154
1.98054
1.94067
1.89513
1.84241
1.77954
1.70152
1.60411
1.49515
1.42176
1.41618
1.44542
1.49177
1.5366
1.59486
1.65827
1.72907
1.81086
1.907
2.01871
2.13295
2.24058
2.34663
2.44835
2.54421
2.6328
2.72957
2.92938
2.89113
2.92469
2.91126
2.86691
2.80586
2.74029
2.67776
2.62174
2.57312
2.5318
2.49739
2.4694
2.44718
2.42984
2.41635
2.40568
2.39699
2.38971
2.38336
2.37708
2.37093
2.36831
2.01573
1.97865
1.9358
1.88624
1.82807
1.75781
1.66946
1.558
1.42997
1.36734
1.32894
1.35118
1.39244
1.45575
1.52336
1.59617
1.67732
1.76971
1.87941
2.00618
2.13449
2.25351
2.36858
2.47667
2.57597
2.66438
2.73374
2.92245
2.97091
2.96338
2.94327
2.89722
2.8342
2.7669
2.70277
2.64532
2.59544
2.55295
2.51735
2.48811
2.46455
2.44583
2.43098
2.41908
2.40928
2.40102
2.39384
2.38691
2.38021
2.37677
2.01755
1.97842
1.93282
1.87958
1.81651
1.73967
1.64256
1.52016
1.37827
1.28015
1.22791
1.26362
1.30605
1.3772
1.45261
1.53338
1.62526
1.72556
1.84687
1.98866
2.12898
2.25596
2.37691
2.48787
2.58772
2.67527
2.74985
2.83695
2.99656
2.9483
2.94416
2.90049
2.83829
2.77193
2.70902
2.65288
2.60422
2.56273
2.52783
2.49891
2.47529
2.45623
2.44088
2.42841
2.41807
2.40934
2.40176
2.3946
2.38775
2.38379
2.02112
1.98016
1.93213
1.87569
1.80837
1.72597
1.62177
1.49039
1.34035
1.21711
1.16065
1.17078
1.22841
1.30236
1.38294
1.47093
1.56867
1.67831
1.81141
1.96408
2.11372
2.24763
2.37133
2.48194
2.57887
2.66187
2.72961
2.77273
2.95145
2.97893
2.93061
2.87789
2.81636
2.75312
2.69462
2.64296
2.59835
2.56029
2.52812
2.5012
2.47893
2.46067
2.44573
2.43345
2.4232
2.41451
2.40699
2.4
2.39338
2.38922
2.02665
1.98417
1.9341
1.87498
1.80422
1.71738
1.6077
1.46936
1.31136
1.17238
1.10558
1.09834
1.14653
1.22713
1.31802
1.40971
1.51054
1.63022
1.77085
1.93201
2.08934
2.22837
2.35281
2.45993
2.551
2.62717
2.68986
2.74019
2.82675
2.91922
2.87868
2.81737
2.76269
2.70743
2.65782
2.61456
2.57724
2.54526
2.51798
2.49485
2.47539
2.45912
2.44557
2.43425
2.42472
2.4166
2.40957
2.40313
2.39709
2.39302
2.03433
1.99067
1.93901
1.87784
1.80448
1.71433
1.60059
1.45704
1.29074
1.13908
1.05958
1.04508
1.10884
1.19038
1.25159
1.34904
1.45652
1.57859
1.72629
1.89712
2.06048
2.19956
2.32384
2.42385
2.50647
2.57276
2.62511
2.66322
2.67614
2.83238
2.81149
2.72535
2.6757
2.63379
2.59858
2.56807
2.54149
2.51827
2.498
2.48037
2.4651
2.45197
2.44073
2.43113
2.42292
2.41585
2.40972
2.40416
2.39898
2.39525
2.04427
1.99984
1.94712
1.88455
1.80944
1.71713
1.60087
1.454
1.28223
1.1175
1.02499
0.997283
1.02743
1.09075
1.18907
1.29422
1.40477
1.52953
1.68138
1.85807
2.02638
2.16569
2.28454
2.37986
2.44929
2.50439
2.54546
2.57504
2.59443
2.69339
2.72735
2.57664
2.55245
2.53521
2.52047
2.50667
2.49374
2.48148
2.46992
2.45912
2.44916
2.44009
2.43194
2.42469
2.41831
2.4127
2.40778
2.40335
2.39926
2.39607
2.05657
2.01182
1.95858
1.89532
1.81933
1.72604
1.60881
1.46082
1.2855
1.11223
1.0191
0.962224
0.979868
1.05163
1.14265
1.24708
1.35767
1.48236
1.63666
1.81795
1.98945
2.12683
2.23767
2.32287
2.38421
2.42784
2.4581
2.47798
2.48776
2.48179
2.61415
2.53229
2.43878
2.43532
2.43696
2.43905
2.43997
2.43916
2.43687
2.43349
2.42939
2.42489
2.42028
2.41578
2.41155
2.40767
2.40418
2.40105
2.39817
2.39564
2.07126
2.02666
1.9735
1.91024
1.83426
1.74116
1.62452
1.47784
1.30213
1.12735
1.01556
0.930338
0.944862
1.00069
1.10314
1.2072
1.31687
1.43829
1.59374
1.77942
1.95107
2.08538
2.18916
2.26382
2.31521
2.34759
2.36695
2.37555
2.37477
2.36345
2.44346
2.41718
2.31655
2.33705
2.35554
2.37253
2.38613
2.39595
2.40243
2.4062
2.40787
2.40796
2.40697
2.40533
2.40337
2.40133
2.39936
2.39758
2.39595
2.39413
2.08836
2.04439
1.99188
1.92934
1.85424
1.76246
1.64788
1.50472
1.33225
1.15725
1.01153
0.937449
0.922223
0.979319
1.07043
1.17388
1.28185
1.40293
1.55616
1.74233
1.91384
2.04409
2.14012
2.20496
2.24573
2.26871
2.27905
2.27924
2.27151
2.2578
2.23806
2.2272
2.23331
2.25699
2.2857
2.31349
2.337
2.35558
2.36957
2.37962
2.38645
2.39075
2.39313
2.3942
2.39442
2.39415
2.39366
2.39319
2.39277
2.39162
2.10785
2.06498
2.01371
1.95257
1.87918
1.78973
1.67853
1.54036
1.37356
1.19998
1.05025
0.955309
0.925048
0.966583
1.05879
1.14994
1.25488
1.37424
1.52517
1.71174
1.88154
2.00549
2.09307
2.14832
2.17985
2.19485
2.19848
2.19382
2.18259
2.16987
2.15637
2.15213
2.16915
2.19603
2.23041
2.26473
2.29513
2.32029
2.34016
2.3553
2.36642
2.37426
2.37955
2.38298
2.38514
2.38646
2.3873
2.38804
2.38872
2.38818
2.12967
2.08837
2.0389
1.97981
1.90887
1.82265
1.71593
1.58387
1.42441
1.25335
1.09949
0.990835
0.944454
0.970266
1.04734
1.13763
1.23956
1.35374
1.50267
1.68663
1.85225
1.9709
2.04967
2.0959
2.11936
2.12778
2.12642
2.11885
2.10636
2.095
2.08811
2.09125
2.11235
2.14518
2.18484
2.22449
2.26024
2.29042
2.31481
2.33389
2.34836
2.35901
2.36662
2.37197
2.37573
2.37839
2.38037
2.38216
2.38382
2.38378
2.15375
2.11446
2.0673
2.01087
1.94308
1.86085
1.75954
1.63461
1.48372
1.31763
1.16124
1.04823
0.982922
0.991212
1.05109
1.13551
1.23092
1.34287
1.49077
1.67015
1.82974
1.94135
2.01106
2.04897
2.06532
2.06823
2.06288
2.05274
2.04003
2.03031
2.02832
2.03856
2.06471
2.10298
2.1476
2.19182
2.23179
2.26578
2.29353
2.3155
2.33242
2.3451
2.35442
2.36121
2.36619
2.36992
2.37282
2.37551
2.37802
2.37834
2.18
2.14313
2.09876
2.04552
1.9815
1.90395
1.80883
1.69193
1.5507
1.39187
1.23695
1.11469
1.03864
1.02923
1.07391
1.14716
1.23462
1.34287
1.48655
1.66259
1.81518
1.9183
1.97895
2.00872
2.01857
2.01646
2.0074
1.99474
1.98226
1.97458
1.98085
1.9972
2.02678
2.07028
2.11909
2.16679
2.20972
2.24625
2.27618
2.29999
2.31843
2.33238
2.34279
2.35054
2.35639
2.36089
2.36451
2.36794
2.37118
2.37171
2.20831
2.17422
2.13308
2.08353
2.02382
1.95152
1.8632
1.75504
1.62437
1.47475
1.32298
1.19043
1.10784
1.07764
1.10925
1.16859
1.24788
1.35287
1.4951
1.66507
1.81015
1.9039
1.95474
1.97635
1.97988
1.97288
1.96007
1.94517
1.93272
1.92802
1.94294
1.96564
1.99921
2.04716
2.09917
2.14912
2.19369
2.23148
2.2624
2.28698
2.30603
2.32052
2.33143
2.33969
2.34607
2.3511
2.35524
2.35926
2.3631
2.36371
2.23855
2.20757
2.17004
2.12462
2.06966
2.00309
1.92205
1.82314
1.70356
1.56442
1.41787
1.28303
1.18594
1.14629
1.15692
1.20728
1.27769
1.37552
1.51306
1.6799
1.81446
1.89887
1.93911
1.9528
1.94994
1.93795
1.92127
1.90432
1.89258
1.89107
1.90915
1.93922
1.98155
2.03308
2.08712
2.13801
2.18291
2.22072
2.25148
2.27583
2.29467
2.30903
2.31995
2.32835
2.33497
2.34031
2.34479
2.34928
2.35359
2.35416
2.27058
2.24301
2.20942
2.16848
2.11867
2.05821
1.98479
1.89545
1.78724
1.65928
1.51948
1.38427
1.27845
1.22405
1.21752
1.25689
1.31915
1.41825
1.54431
1.70472
1.82879
1.90163
1.93311
1.93838
1.92909
1.91206
1.89161
1.87307
1.86292
1.86661
1.88774
1.9247
1.97239
2.02697
2.08188
2.13243
2.17638
2.213
2.24256
2.26579
2.28371
2.29742
2.30795
2.31621
2.32288
2.32834
2.33303
2.33784
2.3425
2.34289
2.30425
2.28033
2.25098
2.21481
2.17046
2.11642
2.05086
1.97126
1.87449
1.75796
1.62584
1.49138
1.37814
1.30879
1.29205
1.31229
1.36421
1.46015
1.58842
1.73868
1.85287
1.91415
1.93544
1.93235
1.91702
1.89527
1.87137
1.8523
1.84483
1.85339
1.88029
1.92194
1.97276
2.0284
2.08246
2.13119
2.1729
2.20723
2.23465
2.25607
2.27257
2.28527
2.29517
2.3031
2.30964
2.3151
2.31986
2.32488
2.32975
2.32983
2.33939
2.31935
2.29445
2.26332
2.22466
2.17725
2.11972
2.04989
1.96448
1.85933
1.7354
1.6028
1.4836
1.41565
1.37614
1.37693
1.41738
1.50492
1.63226
1.77972
1.88318
1.93303
1.94339
1.93322
1.91284
1.88721
1.86085
1.84237
1.83875
1.85269
1.88436
1.92912
1.98177
2.03609
2.08746
2.13287
2.17114
2.20224
2.22685
2.24598
2.26076
2.27227
2.28141
2.28891
2.29522
2.30056
2.30526
2.31035
2.31529
2.31491
2.37584
2.35985
2.3396
2.31368
2.2809
2.24029
2.19087
2.13076
2.05642
1.96233
1.84669
1.71686
1.59542
1.51001
1.45639
1.4467
1.47449
1.55666
1.68702
1.82469
1.91545
1.95507
1.9556
1.93955
1.9153
1.88644
1.85991
1.84515
1.8448
1.86336
1.89836
1.94431
1.99612
2.04751
2.09476
2.13569
2.16965
2.19692
2.21835
2.23501
2.248
2.25828
2.26663
2.27363
2.27963
2.28472
2.28924
2.29426
2.29911
2.29813
2.41342
2.40163
2.38616
2.3656
2.33884
2.30514
2.26385
2.21331
2.1496
2.06591
1.95799
1.83126
1.70973
1.61384
1.54992
1.52298
1.55834
1.63159
1.74636
1.87043
1.9468
1.97546
1.96973
1.94923
1.92249
1.89174
1.86755
1.85693
1.8609
1.88287
1.91881
1.96457
2.0133
2.0602
2.10224
2.13796
2.16717
2.19041
2.20864
2.2229
2.23419
2.24332
2.25089
2.25736
2.26298
2.26774
2.27195
2.27676
2.28137
2.27969
2.45195
2.44446
2.43387
2.41878
2.39813
2.37142
2.33826
2.29708
2.24337
2.16905
2.06748
1.94232
1.81447
1.70989
1.63028
1.60909
1.61617
1.69299
1.80214
1.91073
1.97302
1.99167
1.98227
1.96001
1.93138
1.9008
1.88265
1.87232
1.88224
1.90738
1.94374
1.98675
2.03081
2.07206
2.10823
2.13846
2.16291
2.18229
2.19756
2.20968
2.21946
2.22755
2.23439
2.24033
2.24551
2.24985
2.25366
2.25816
2.26243
2.26002
2.49122
2.48812
2.48249
2.47292
2.45845
2.4388
2.41373
2.38163
2.33719
2.27093
2.17424
2.04879
1.91472
1.79946
1.71042
1.67824
1.69743
1.75587
1.85287
1.94487
1.99285
2.00346
1.99092
1.96898
1.94018
1.91435
1.89913
1.89358
1.90699
1.93325
1.96835
2.00747
2.0461
2.08131
2.11157
2.13652
2.15659
2.17254
2.18527
2.19557
2.20408
2.21125
2.21741
2.22279
2.22748
2.23135
2.2347
2.23879
2.24262
2.23959
2.53102
2.53239
2.53174
2.52773
2.51951
2.50696
2.48994
2.46662
2.43064
2.37098
2.27727
2.15026
2.01118
1.88558
1.78666
1.7389
1.749
1.8039
1.89629
1.97054
2.00407
2.00775
1.9945
1.97335
1.94662
1.92522
1.91274
1.9149
1.93099
1.95737
1.98998
2.02457
2.05759
2.08695
2.11175
2.13203
2.14835
2.16146
2.17212
2.18093
2.18836
2.19472
2.20022
2.20504
2.2092
2.21256
2.21544
2.21908
2.22244
2.21893
2.57114
2.57702
2.58136
2.58294
2.58101
2.57562
2.56663
2.55174
2.52336
2.46873
2.37576
2.2462
2.10053
1.96031
1.85425
1.79355
1.7917
1.84976
1.92584
1.98187
2.00311
2.00226
1.99052
1.97098
1.94873
1.9321
1.92649
1.93358
1.95163
1.97739
2.00703
2.03701
2.06474
2.08884
2.10893
2.12532
2.1386
2.14946
2.15847
2.16608
2.17258
2.1782
2.18307
2.18732
2.19095
2.1938
2.19621
2.19941
2.20232
2.19845
2.61135
2.62176
2.63111
2.63826
2.64268
2.64452
2.64353
2.63668
2.61486
2.5634
2.46947
2.33489
2.18175
2.03151
1.9111
1.83774
1.83598
1.88
1.93633
1.97557
1.98795
1.9858
1.97701
1.96087
1.94468
1.93538
1.9363
1.94769
1.96736
1.99219
2.01886
2.04462
2.06771
2.08737
2.10363
2.11693
2.12787
2.13698
2.14468
2.15128
2.15698
2.1619
2.16615
2.16983
2.17293
2.17529
2.17726
2.18005
2.18255
2.17842
2.65141
2.66634
2.68069
2.69341
2.70421
2.71341
2.72038
2.7211
2.70459
2.6541
2.55619
2.41514
2.24857
2.0899
1.9584
1.87277
1.86219
1.88923
1.92553
1.9523
1.95853
1.95874
1.95354
1.94286
1.93443
1.93333
1.94105
1.95667
1.97785
2.00177
2.02577
2.0479
2.06713
2.08324
2.09651
2.10747
2.11661
2.12436
2.131
2.13673
2.14168
2.14594
2.14958
2.15271
2.1553
2.1572
2.15877
2.16117
2.16329
2.15896
2.69107
2.71049
2.72981
2.74811
2.76534
2.78199
2.79692
2.80459
2.79208
2.7403
2.63571
2.48554
2.30985
2.13341
1.98257
1.896
1.86748
1.87543
1.89472
1.91073
1.91642
1.9217
1.92141
1.91812
1.91885
1.9266
1.94124
1.96106
1.98371
2.00685
2.02858
2.04771
2.06386
2.07721
2.08823
2.09742
2.1052
2.11186
2.1176
2.12255
2.12679
2.13041
2.13347
2.13606
2.13816
2.13962
2.14079
2.14284
2.14461
2.14006
2.73005
2.75391
2.77817
2.80208
2.8258
2.8499
2.87275
2.88721
2.87652
2.82065
2.7074
2.54115
2.35548
2.1601
1.9929
1.89548
1.84875
1.8372
1.84366
1.85284
1.86543
1.87653
1.88286
1.88876
1.89976
1.91676
1.93825
1.96206
1.98605
2.00851
2.02831
2.04501
2.05875
2.07002
2.07935
2.08721
2.09391
2.09966
2.10459
2.10881
2.11239
2.11538
2.11787
2.11995
2.12157
2.12259
2.12337
2.12506
2.12648
2.12168
2.76805
2.79631
2.82546
2.85501
2.88535
2.91694
2.94659
2.96771
2.95642
2.89403
2.76865
2.59214
2.37786
2.15781
1.98699
1.87118
1.80592
1.77826
1.77724
1.78737
1.80852
1.82625
1.841
1.85759
1.8796
1.90585
1.93381
1.96111
1.98613
2.00786
2.02597
2.04068
2.05257
2.06226
2.07032
2.07713
2.08293
2.08788
2.09207
2.0956
2.09853
2.10092
2.10285
2.10441
2.10556
2.10614
2.10652
2.10783
2.10889
2.10381
2.80479
2.83735
2.87133
2.90655
2.94363
2.98284
3.02005
3.04335
3.03053
2.95842
2.81304
2.62127
2.37367
2.14333
1.95726
1.82287
1.74208
1.70584
1.70093
1.71901
1.74904
1.77461
1.7994
1.82777
1.86096
1.89596
1.92953
1.95955
1.98505
2.00588
2.02245
2.03553
2.04596
2.05444
2.0615
2.06743
2.07244
2.07664
2.08013
2.08299
2.08529
2.08709
2.08847
2.08952
2.09018
2.09031
2.09028
2.09119
2.09186
2.08648
2.83992
2.87667
2.91541
2.95631
3.00016
3.04677
3.09028
3.11482
3.09851
3.01379
2.85934
2.62444
2.35964
2.1123
1.90394
1.75369
1.66387
1.62541
1.62343
1.65163
1.69107
1.72566
1.76175
1.80236
1.84623
1.88882
1.92673
1.9584
1.98372
2.0034
2.01851
2.03021
2.03946
2.04697
2.05316
2.05832
2.06258
2.06607
2.06887
2.07107
2.07275
2.07397
2.0748
2.07533
2.0755
2.07517
2.07471
2.0752
2.07545
2.06978
2.87313
2.91392
2.95731
3.00383
3.05437
3.10794
3.1566
3.18015
3.15822
3.05658
2.89535
2.61208
2.3316
2.0563
1.82898
1.67015
1.57927
1.54416
1.55153
1.59039
1.63876
1.68314
1.7314
1.78401
1.83721
1.88568
1.92627
1.95835
1.98279
2.00107
2.01478
2.02526
2.03351
2.04015
2.04556
2.04997
2.0535
2.05628
2.0584
2.05995
2.06101
2.06165
2.06193
2.06193
2.06161
2.06081
2.0599
2.05995
2.05977
2.05381
2.90408
2.9487
2.99658
3.0486
3.10558
3.16532
3.21768
3.23813
3.20779
3.10203
2.89353
2.58363
2.27538
1.97942
1.74112
1.58148
1.49599
1.47059
1.48934
1.53826
1.59598
1.65148
1.71169
1.77449
1.83502
1.88715
1.92857
1.95983
1.98275
1.99943
2.01176
2.02113
2.02845
2.03426
2.0389
2.04254
2.04534
2.0474
2.04884
2.04974
2.05018
2.05023
2.04995
2.04941
2.04858
2.0473
2.04594
2.04553
2.0449
2.03866
2.9324
2.98061
3.03273
3.08998
3.15298
3.21779
3.27183
3.28808
3.23959
3.11805
2.856
2.53849
2.20486
1.8936
1.65139
1.49775
1.42255
1.40959
1.44
1.49858
1.56503
1.63208
1.70341
1.77491
1.84004
1.8933
1.93373
1.96307
1.98396
1.99891
2.00987
2.01815
2.02454
2.02951
2.03333
2.03619
2.03822
2.03956
2.0403
2.04054
2.04035
2.03979
2.03894
2.03786
2.03651
2.03474
2.03292
2.03204
2.03095
2.02444
2.95776
3.00922
3.06524
3.12725
3.19552
3.26433
3.31777
3.33028
3.27056
3.10529
2.81201
2.48155
2.12947
1.81052
1.57032
1.4277
1.36552
1.36346
1.40479
1.47326
1.54894
1.62685
1.70736
1.78514
1.85187
1.90378
1.94159
1.96816
1.98669
1.99982
2.00939
2.01655
2.02197
2.02603
2.02899
2.03103
2.03227
2.03286
2.03288
2.03244
2.03161
2.03044
2.02901
2.02737
2.02548
2.02322
2.02093
2.01956
2.018
2.01123
2.97982
3.0341
3.09353
3.15958
3.23183
3.30324
3.35433
3.35473
3.28572
3.06391
2.77104
2.42168
2.06062
1.74345
1.50811
1.3785
1.32973
1.3387
1.38815
1.46421
1.55061
1.63689
1.72472
1.80464
1.86968
1.91799
1.95191
1.97516
1.99114
2.00239
2.01052
2.0165
2.02086
2.02395
2.02599
2.02715
2.02758
2.02738
2.02667
2.02554
2.02404
2.02225
2.02022
2.01801
2.01559
2.01282
2.01004
2.00817
2.00614
1.99911
2.99823
3.0548
3.11697
3.1861
3.26081
3.33297
3.38227
3.38974
3.27691
3.03658
2.72982
2.36918
2.00978
1.69089
1.46932
1.35343
1.31597
1.33344
1.38921
1.47318
1.5695
1.6628
1.75359
1.83188
1.89229
1.93524
1.96444
1.98406
1.99741
2.00673
2.01335
2.01806
2.02128
2.02332
2.02438
2.02463
2.0242
2.0232
2.02174
2.01989
2.01772
2.01528
2.01264
2.00986
2.00689
2.00361
2.00034
1.99795
1.99542
1.98817
3.01269
3.07091
3.13492
3.20592
3.28174
3.35223
3.39739
3.39351
3.24872
3.00335
2.69344
2.32905
1.96992
1.66356
1.45491
1.35224
1.3234
1.3473
1.40842
1.50107
1.60563
1.70259
1.79217
1.86507
1.91843
1.95484
1.97891
1.99481
2.0055
2.01284
2.01788
2.02122
2.02323
2.02416
2.02419
2.02348
2.02217
2.02035
2.01811
2.01553
2.01268
2.0096
2.00634
2.00297
1.99944
1.99565
1.99189
1.98898
1.98595
1.97847
3.0229
3.08203
3.14685
3.2182
3.29422
3.36263
3.40158
3.37972
3.21319
2.97235
2.66368
2.30974
1.95718
1.66213
1.4648
1.37405
1.35148
1.38057
1.44725
1.54955
1.65836
1.75436
1.83821
1.90227
1.94687
1.97617
1.99504
2.00728
2.01534
2.02067
2.02405
2.02595
2.02667
2.02643
2.0254
2.02372
2.0215
2.01884
2.01582
2.01251
2.00896
2.00523
2.00135
1.9974
1.99332
1.98901
1.98476
1.98131
1.97778
1.97011
3.02862
3.08778
3.15225
3.22253
3.2973