/*--------------------------------*- C++ -*----------------------------------*\
  =========                 |
  \\      /  F ield         | OpenFOAM: The Open Source CFD Toolbox
   \\    /   O peration     | Website:  https://openfoam.org
    \\  /    A nd           | Version:  9
     \\/     M anipulation  |
\*---------------------------------------------------------------------------*/
FoamFile
{
    format      ascii;
    class       volScalarField;
    location    "0.14";
    object      p_rgh;
}
// * * * * * * * * * * * * * * * * * * * * * * * * * * * * * * * * * * * * * //

dimensions      [1 -1 -2 0 0 0 0];

internalField   nonuniform List<scalar> 
5000
(
-0.595058
-0.675041
-0.775223
-0.900126
-1.05523
-1.24905
-1.49606
-1.81591
-2.21925
-2.77563
-3.74092
-4.0016
-192.111
-2003.46
-2468.74
-2469.34
-2470.48
-2470.02
-2469.09
-2468.02
-2467.38
-2467.42
-2468.06
-2468.95
-2469.77
-2470.29
-2470.4
-2469.88
-2469.72
-2063.3
-310.56
-3.60612
-3.8808
-2.50811
-2.14153
-1.89859
-1.65506
-1.42814
-1.22769
-1.05319
-0.900348
-0.764712
-0.642839
-0.532306
-0.431402
-0.338841
-0.253579
-0.174762
-0.101635
-0.0342302
-0.605809
-0.684198
-0.78136
-0.901151
-1.048
-1.22851
-1.45305
-1.74086
-2.09757
-2.50622
-3.41026
-3.40518
-100.928
-1814.38
-2469.15
-2469.09
-2470.22
-2469.28
-2468.07
-2466.85
-2466.07
-2466.01
-2466.68
-2467.78
-2468.93
-2469.91
-2470.49
-2470.1
-2469.42
-1700.22
-43.7956
-3.31983
-3.56404
-2.43944
-1.94259
-1.72343
-1.50887
-1.3062
-1.12499
-0.966176
-0.826757
-0.702928
-0.591533
-0.490332
-0.397767
-0.312688
-0.234176
-0.161477
-0.0939487
-0.0315061
-0.612004
-0.687499
-0.780016
-0.892632
-1.02864
-1.19299
-1.39089
-1.63709
-1.94889
-2.22183
-2.89395
-2.82563
-2.84331
-1460.52
-2469.87
-2469.66
-2470.56
-2468.79
-2467.07
-2465.54
-2464.5
-2464.22
-2464.76
-2465.86
-2467.15
-2468.47
-2469.49
-2469.57
-2425.14
-980.947
-2.6932
-2.92022
-3.19146
-2.12411
-1.68398
-1.5067
-1.33181
-1.16187
-1.00622
-0.867629
-0.74471
-0.634747
-0.535268
-0.444468
-0.36108
-0.284174
-0.21301
-0.146971
-0.0855344
-0.0285401
-0.613728
-0.685429
-0.77219
-0.876167
-0.999456
-1.14578
-1.3162
-1.51513
-1.77925
-1.95517
-2.3709
-2.32618
-2.01166
-920.633
-2408.04
-2471.23
-2471.56
-2468.26
-2465.75
-2463.77
-2462.43
-2461.86
-2462.11
-2462.85
-2463.77
-2464.98
-2465.96
-2464.95
-2047.85
-241.989
-2.37972
-2.60909
-2.49508
-1.67235
-1.40257
-1.27688
-1.14208
-1.00716
-0.879679
-0.7634
-0.658441
-0.563306
-0.476369
-0.396385
-0.322461
-0.253938
-0.1903
-0.131127
-0.0760842
-0.0250832
-0.611526
-0.678775
-0.758965
-0.853382
-0.962894
-1.09004
-1.23426
-1.38711
-1.59634
-1.71497
-1.8878
-1.96764
-1.65623
-320.224
-2163.58
-2473.11
-2472.33
-2466.81
-2463.58
-2461.25
-2459.68
-2458.9
-2458.93
-2459.3
-2459.79
-2460.85
-2460.79
-2392.07
-957.95
-1.30286
-2.13721
-2.29501
-1.64756
-1.2483
-1.16631
-1.06346
-0.962588
-0.858724
-0.757253
-0.662078
-0.574302
-0.493361
-0.418413
-0.348739
-0.283807
-0.223229
-0.166702
-0.114009
-0.0653331
-0.0213182
-0.606049
-0.668381
-0.741474
-0.825913
-0.921509
-1.02939
-1.14966
-1.26416
-1.4214
-1.50724
-1.5312
-1.70581
-1.33573
-0.79958
-1638.3
-2470.35
-2471.03
-2464.79
-2460.54
-2458
-2456.3
-2455.33
-2455.14
-2455.32
-2455.9
-2457.19
-2447.92
-1370.79
-33.1569
-1.11975
-1.93541
-1.98752
-1.15871
-1.02406
-0.994386
-0.885599
-0.808966
-0.727887
-0.647434
-0.570166
-0.497289
-0.428839
-0.364501
-0.303883
-0.24662
-0.192385
-0.14078
-0.0908797
-0.0415606
-0.00115998
-0.597851
-0.655005
-0.720783
-0.795224
-0.877421
-0.966986
-1.06555
-1.15102
-1.26358
-1.32928
-1.44114
-1.48011
-1.14411
-0.749314
-688.953
-2243.52
-2465.87
-2461.39
-2456.89
-2454.3
-2452.66
-2451.47
-2450.5
-2449.37
-2448.78
-2432.68
-1389.64
-74.5574
-0.807368
-1.0531
-1.49942
-1.29526
-0.882216
-0.865299
-0.842853
-0.744814
-0.681957
-0.618285
-0.553888
-0.490837
-0.430247
-0.372469
-0.317506
-0.265221
-0.215441
-0.168032
-0.122993
-0.0798554
-0.0354926
0.0104991
-0.587466
-0.639358
-0.697866
-0.762581
-0.832234
-0.905095
-0.983822
-1.04724
-1.12187
-1.17246
-1.31898
-1.26566
-1.08483
-0.943399
-1.61478
-902.227
-2277.19
-2454.05
-2450.66
-2449.38
-2449.31
-2449.29
-2447.56
-2436.26
-2148.77
-1067.57
-54.9046
-0.846829
-0.787567
-0.817442
-0.761135
-0.746089
-0.787471
-0.744054
-0.710664
-0.633379
-0.577845
-0.527964
-0.475877
-0.42416
-0.373693
-0.32504
-0.278432
-0.233966
-0.19168
-0.151603
-0.114017
-0.0794442
-0.0458725
-0.00795286
-0.575414
-0.622103
-0.673579
-0.729062
-0.78714
-0.845138
-0.905744
-0.950489
-0.996545
-1.03145
-1.18034
-1.05991
-1.01399
-1.16929
-1.38944
-0.891322
-730.894
-1871.81
-2365.38
-2416.18
-2379.87
-2218.82
-1885.06
-1284.41
-474.635
-0.737656
-0.544002
-0.668606
-0.684532
-0.785427
-0.618239
-0.620049
-0.692515
-0.656603
-0.577491
-0.544896
-0.495252
-0.454535
-0.411919
-0.368984
-0.326604
-0.285357
-0.245563
-0.207403
-0.170962
-0.13624
-0.10337
-0.0729915
-0.0445058
-0.0133671
-0.562175
-0.603825
-0.64864
-0.695541
-0.743058
-0.787985
-0.832539
-0.861123
-0.884811
-0.902231
-1.05407
-0.940412
-1.21311
-1.33134
-1.2117
-0.964671
-1.01065
-247.576
-714.542
-874.933
-751.53
-465.266
-172.406
-2.14222
-0.753292
-0.744632
-0.695312
-0.517464
-0.587907
-0.920787
-0.544727
-0.541384
-0.615368
-0.570094
-0.490452
-0.465916
-0.432245
-0.396209
-0.360679
-0.324295
-0.288092
-0.252566
-0.218049
-0.184738
-0.152739
-0.122062
-0.092784
-0.0654743
-0.0403517
-0.0145608
-0.548182
-0.585032
-0.623634
-0.662704
-0.700732
-0.734265
-0.764948
-0.779987
-0.785049
-0.794457
-0.874333
-0.911226
-1.23437
-1.03824
-0.755808
-0.822346
-1.76126
-1.06167
-1.15171
-1.08787
-0.840387
-0.674971
-0.59328
-0.558676
-0.737431
-0.650656
-0.553975
-0.482081
-0.520416
-0.883483
-0.564151
-0.474318
-0.500201
-0.468536
-0.434106
-0.405566
-0.381762
-0.351057
-0.320578
-0.289182
-0.257664
-0.226519
-0.196073
-0.166535
-0.13804
-0.110646
-0.0844236
-0.0598258
-0.0373361
-0.015432
-0.533823
-0.566171
-0.599049
-0.631087
-0.660742
-0.684459
-0.703372
-0.706975
-0.697927
-0.691232
-0.644488
-1.1362
-1.14901
-0.689391
-0.675856
-0.735587
-0.82433
-1.04281
-1.21181
-1.18951
-1.04847
-0.81034
-0.636156
-0.55102
-0.499349
-0.488515
-0.475084
-0.461716
-0.453201
-0.874832
-1.0123
-0.426345
-0.412875
-0.401347
-0.390162
-0.362536
-0.341078
-0.317285
-0.290515
-0.262973
-0.23496
-0.207091
-0.179708
-0.153027
-0.127202
-0.102353
-0.0786079
-0.0563534
-0.0360284
-0.0167317
-0.519439
-0.547631
-0.575301
-0.6011
-0.623493
-0.6389
-0.648001
-0.64237
-0.623169
-0.597156
-0.694945
-1.0368
-0.823788
-0.609393
-0.617436
-0.607429
-0.596409
-0.598349
-0.586631
-0.543817
-0.537592
-0.531896
-0.525056
-0.51523
-0.503049
-0.489654
-0.472379
-0.450881
-0.428287
-0.929424
-1.08797
-0.38399
-0.371527
-0.36255
-0.356237
-0.334092
-0.314641
-0.294578
-0.270761
-0.245734
-0.220048
-0.194342
-0.169004
-0.144269
-0.120294
-0.0972259
-0.0752735
-0.0548296
-0.0362698
-0.018795
-0.505324
-0.529745
-0.552743
-0.57306
-0.589233
-0.597724
-0.598745
-0.58566
-0.560271
-0.525876
-0.931498
-0.954091
-0.531527
-0.549983
-0.558363
-0.536939
-0.535556
-0.53388
-0.53354
-0.537027
-0.538214
-0.535295
-0.530023
-0.522562
-0.513285
-0.499955
-0.480404
-0.455022
-0.427111
-1.05435
-1.09346
-0.353853
-0.341062
-0.339008
-0.335672
-0.320266
-0.303247
-0.284309
-0.262057
-0.237947
-0.21319
-0.18841
-0.16401
-0.140218
-0.117196
-0.0951065
-0.0741972
-0.0548754
-0.0375127
-0.0213389
-0.491722
-0.512787
-0.531674
-0.547235
-0.558114
-0.560888
-0.555259
-0.535935
-0.503854
-0.462363
-0.626294
-0.646443
-0.446925
-0.481751
-0.486538
-0.49242
-0.502528
-0.509275
-0.517559
-0.526811
-0.534706
-0.539464
-0.54084
-0.538412
-0.531881
-0.519867
-0.500918
-0.474973
-0.444059
-0.975081
-1.10672
-0.804379
-0.339891
-0.351296
-0.333478
-0.3257
-0.308922
-0.28866
-0.265183
-0.240045
-0.214541
-0.189276
-0.164601
-0.1407
-0.117713
-0.095819
-0.0752898
-0.0564994
-0.0397379
-0.0242409
-0.478833
-0.496971
-0.512334
-0.523855
-0.530259
-0.528306
-0.517226
-0.492562
-0.453716
-0.407476
-0.365513
-0.367501
-0.390628
-0.415752
-0.438446
-0.459975
-0.476705
-0.491396
-0.506664
-0.522653
-0.536773
-0.547648
-0.555326
-0.558962
-0.557703
-0.550238
-0.535483
-0.51366
-0.486965
-0.696515
-1.1718
-1.16341
-0.39149
-0.393073
-0.367234
-0.353979
-0.333674
-0.308132
-0.280358
-0.25191
-0.223833
-0.196619
-0.170462
-0.145443
-0.121648
-0.099254
-0.0785305
-0.0597613
-0.0430968
-0.0277764
-0.466814
-0.482453
-0.494896
-0.50311
-0.505816
-0.499989
-0.484516
-0.455564
-0.412344
-0.365947
-0.322578
-0.327213
-0.345971
-0.375768
-0.423482
-0.444669
-0.455146
-0.476246
-0.497698
-0.519957
-0.540566
-0.558114
-0.573175
-0.584666
-0.591278
-0.591469
-0.583959
-0.568399
-0.546072
-0.519625
-1.22795
-1.23936
-0.547697
-0.471862
-0.435177
-0.407393
-0.375968
-0.341212
-0.30623
-0.272272
-0.239981
-0.209526
-0.180853
-0.153872
-0.128585
-0.105137
-0.083756
-0.0645894
-0.0476285
-0.0321694
-0.455795
-0.469352
-0.479479
-0.485133
-0.484928
-0.476029
-0.457078
-0.424837
-0.378534
-0.331224
-0.360666
-0.339241
-0.306757
-0.34169
-0.40601
-0.41891
-0.436429
-0.463126
-0.489952
-0.518122
-0.54536
-0.570274
-0.59408
-0.615478
-0.632738
-0.643934
-0.647091
-0.640258
-0.622438
-0.591153
-1.30368
-1.3341
-0.747695
-0.554434
-0.520085
-0.47343
-0.428477
-0.382827
-0.339046
-0.298301
-0.260789
-0.22628
-0.194428
-0.164957
-0.137773
-0.112972
-0.0906927
-0.0708958
-0.0534083
-0.0376253
-0.445883
-0.45777
-0.466159
-0.469978
-0.46766
-0.456491
-0.434874
-0.400003
-0.35085
-0.299098
-0.338346
-0.282706
-0.273491
-0.343612
-0.384409
-0.389852
-0.421158
-0.451918
-0.483153
-0.516695
-0.550509
-0.583372
-0.617209
-0.650529
-0.681192
-0.707111
-0.725831
-0.734635
-0.733322
-0.854472
-1.49013
-1.46747
-0.831509
-0.634679
-0.59907
-0.539333
-0.482516
-0.426318
-0.373854
-0.326257
-0.283385
-0.244663
-0.209488
-0.177433
-0.148326
-0.122194
-0.0990365
-0.078583
-0.0605019
-0.0443282
-0.437164
-0.447807
-0.455001
-0.457648
-0.453996
-0.441376
-0.417955
-0.380923
-0.329279
-0.270379
-0.311494
-0.228245
-0.249458
-0.466765
-0.347759
-0.374171
-0.409057
-0.442545
-0.477101
-0.515276
-0.555135
-0.596157
-0.640878
-0.687595
-0.733727
-0.777484
-0.815784
-0.844057
-0.860222
-1.57185
-1.66963
-1.64685
-0.909396
-0.736581
-0.682708
-0.606162
-0.53528
-0.467949
-0.406994
-0.352921
-0.305073
-0.262489
-0.224324
-0.190029
-0.159356
-0.132227
-0.108448
-0.0874975
-0.068909
-0.0523952
-0.429696
-0.439566
-0.446087
-0.448153
-0.443892
-0.430662
-0.406422
-0.368022
-0.314694
-0.250601
-0.292632
-0.208876
-0.567715
-0.488697
-0.326622
-0.364015
-0.399978
-0.434873
-0.47147
-0.513013
-0.55885
-0.606899
-0.662532
-0.722973
-0.785242
-0.848892
-0.909303
-0.973493
-1.05894
-1.83684
-1.83818
-1.81133
-0.94981
-0.849105
-0.768496
-0.670108
-0.582999
-0.504199
-0.435233
-0.375448
-0.32343
-0.277757
-0.237352
-0.201547
-0.169992
-0.142446
-0.118491
-0.0973624
-0.0785028
-0.0618194
-0.423501
-0.433127
-0.439505
-0.441537
-0.437341
-0.424338
-0.400356
-0.361925
-0.308583
-0.29523
-0.282725
-0.201983
-0.646067
-0.519602
-0.320727
-0.358388
-0.394148
-0.429021
-0.466185
-0.50958
-0.559417
-0.614239
-0.679396
-0.752178
-0.829136
-0.912684
-0.996863
-1.16782
-1.35984
-1.9552
-1.95776
-1.82281
-1.02956
-0.931975
-0.828457
-0.713919
-0.614606
-0.527734
-0.453463
-0.390118
-0.335662
-0.288356
-0.246989
-0.210813
-0.179346
-0.152153
-0.128597
-0.107737
-0.0889799
-0.0724024
-0.418551
-0.428504
-0.435306
-0.437858
-0.434383
-0.422446
-0.39982
-0.362915
-0.312509
-0.321835
-0.278229
-0.360215
-0.651127
-0.694497
-0.323056
-0.358209
-0.392024
-0.425236
-0.461258
-0.504597
-0.556337
-0.615597
-0.688966
-0.772624
-0.85481
-0.955398
-1.09067
-1.29962
-1.4373
-1.9788
-2.01302
-1.33004
-1.07367
-0.961426
-0.841155
-0.723118
-0.619998
-0.531459
-0.456624
-0.393239
-0.339042
-0.292266
-0.251731
-0.216664
-0.186458
-0.160497
-0.137996
-0.117952
-0.0997935
-0.0836774
-0.414772
-0.425624
-0.433445
-0.437121
-0.43506
-0.425057
-0.404934
-0.371138
-0.334001
-0.315351
-0.257425
-0.579929
-0.669578
-0.69815
-0.331245
-0.363597
-0.393866
-0.423753
-0.456824
-0.499297
-0.548636
-0.608404
-0.685165
-0.851243
-1.30869
-1.26464
-1.07769
-1.21652
-1.30676
-1.46558
-1.62566
-1.16655
-1.05322
-0.931926
-0.808795
-0.69556
-0.59693
-0.513269
-0.442832
-0.383201
-0.332244
-0.288408
-0.250657
-0.218236
-0.190447
-0.166564
-0.145769
-0.127131
-0.11014
-0.0948761
-0.412054
-0.424321
-0.433753
-0.439211
-0.439329
-0.432204
-0.415846
-0.387257
-0.355517
-0.292522
-0.255476
-0.652555
-0.699733
-0.409491
-0.3457
-0.374296
-0.39975
-0.424797
-0.471234
-0.543798
-0.559247
-0.592748
-0.66718
-1.18018
-1.94017
-1.54501
-1.02418
-1.11707
-1.18304
-1.20268
-1.15544
-1.06571
-0.960282
-0.846146
-0.73488
-0.634741
-0.548203
-0.475015
-0.413206
-0.36064
-0.31559
-0.276851
-0.243584
-0.215086
-0.19064
-0.169515
-0.150984
-0.134309
-0.119047
-0.105002
-0.410268
-0.42436
-0.435945
-0.443864
-0.446985
-0.443758
-0.432521
-0.41106
-0.378047
-0.331868
-0.292582
-0.710809
-0.737154
-0.338346
-0.367094
-0.390309
-0.409845
-0.441405
-0.505819
-0.533468
-0.570584
-0.570847
-0.64086
-1.43162
-1.88242
-1.68621
-0.91212
-0.987042
-1.03027
-1.02752
-0.980672
-0.903162
-0.812688
-0.718057
-0.628344
-0.54838
-0.479395
-0.420679
-0.370587
-0.32757
-0.290447
-0.2584
-0.230807
-0.207076
-0.186573
-0.168674
-0.152833
-0.138582
-0.125525
-0.113011
-0.409281
-0.425478
-0.439665
-0.450684
-0.457633
-0.459347
-0.454621
-0.442069
-0.417568
-0.385158
-0.472391
-0.76066
-0.77628
-0.376161
-0.395727
-0.411956
-0.425245
-0.477162
-0.504121
-0.521825
-0.514055
-0.527761
-0.579099
-1.3498
-1.81314
-1.66926
-0.759967
-0.808671
-0.827263
-0.810676
-0.766816
-0.704754
-0.63596
-0.567103
-0.503361
-0.446871
-0.397874
-0.355563
-0.318843
-0.286797
-0.258764
-0.234275
-0.21294
-0.194356
-0.178076
-0.163661
-0.150789
-0.139288
-0.12878
-0.118031
-0.408959
-0.427421
-0.444538
-0.459203
-0.470735
-0.478366
-0.481422
-0.479083
-0.467369
-0.454184
-0.81572
-0.817985
-0.728715
-0.419182
-0.430888
-0.439338
-0.451721
-0.502635
-0.504087
-0.482704
-0.464051
-0.482801
-0.512677
-1.05082
-1.70506
-1.64281
-0.583782
-0.604091
-0.600852
-0.575902
-0.538102
-0.494559
-0.450788
-0.409628
-0.372549
-0.339715
-0.310742
-0.285022
-0.262009
-0.241305
-0.222646
-0.205864
-0.190826
-0.177387
-0.165351
-0.154496
-0.144724
-0.136143
-0.128369
-0.119527
-0.409163
-0.429959
-0.450218
-0.468947
-0.485691
-0.500071
-0.511986
-0.520835
-0.522341
-0.514615
-0.698897
-0.884301
-0.48437
-0.467297
-0.471768
-0.476844
-0.519071
-0.515139
-0.490171
-0.436895
-0.432716
-0.43281
-0.439176
-0.647403
-1.57843
-1.51205
-0.541455
-0.392411
-0.371191
-0.342273
-0.31412
-0.290453
-0.27189
-0.257228
-0.244983
-0.233987
-0.223594
-0.21349
-0.203545
-0.193713
-0.184016
-0.17455
-0.165462
-0.156905
-0.148951
-0.141584
-0.134899
-0.129249
-0.124231
-0.117346
-0.409734
-0.432884
-0.456403
-0.479481
-0.501913
-0.52372
-0.545434
-0.566975
-0.581904
-0.578131
-0.54721
-0.846787
-0.517272
-0.521002
-0.518176
-0.534955
-0.550368
-0.531017
-0.503754
-0.427686
-0.401504
-0.381079
-0.362568
-0.383988
-1.19615
-1.34805
-0.705393
-0.189569
-0.154765
-0.125537
-0.108639
-0.104209
-0.108621
-0.117262
-0.126546
-0.134506
-0.140436
-0.144259
-0.146095
-0.146103
-0.144507
-0.141646
-0.137953
-0.133867
-0.129713
-0.125647
-0.121908
-0.119057
-0.116678
-0.111716
-0.410488
-0.43599
-0.462823
-0.490421
-0.518865
-0.548643
-0.581015
-0.616885
-0.647837
-0.662976
-0.730126
-1.01051
-0.595646
-0.600909
-0.571199
-0.578271
-0.582509
-0.550914
-0.512823
-0.446572
-0.371846
-0.331238
-0.290912
-0.251808
-0.76367
-1.20434
-0.859629
-0.00389937
0.0379472
0.0644762
0.0702494
0.0577872
0.0340819
0.00626587
-0.0206783
-0.044319
-0.0639515
-0.0796304
-0.0915889
-0.100093
-0.105518
-0.108417
-0.109477
-0.109385
-0.108672
-0.107628
-0.1066
-0.106297
-0.106322
-0.103197
-0.4112
-0.439053
-0.469212
-0.501403
-0.536031
-0.574151
-0.61783
-0.669124
-0.718486
-0.780779
-1.12449
-1.09799
-0.936916
-0.688977
-0.630154
-0.609073
-0.612569
-0.575115
-0.518841
-0.410817
-0.344823
-0.284885
-0.224699
-0.166235
-0.309927
-1.08123
-0.9777
0.154461
0.200802
0.22283
0.21898
0.193095
0.154325
0.1116
0.0708381
0.0347726
0.00412877
-0.0211918
-0.0414603
-0.0570005
-0.0683032
-0.0760934
-0.0812502
-0.0846473
-0.0869685
-0.0886107
-0.0899845
-0.0919041
-0.0940184
-0.0926099
-0.411608
-0.441815
-0.475281
-0.512047
-0.552876
-0.599457
-0.654711
-0.721503
-0.790127
-0.869068
-1.22883
-1.19443
-1.16517
-0.734004
-0.694854
-0.654008
-0.617277
-0.575935
-0.487093
-0.402732
-0.321655
-0.243764
-0.16531
-0.0881081
-0.0254046
-0.627572
-0.932211
-0.227847
0.324771
0.346587
0.336869
0.301533
0.251884
0.198209
0.147152
0.101705
0.0626514
0.0298926
0.00313948
-0.0179762
-0.0340288
-0.0458565
-0.0544602
-0.0608277
-0.0657464
-0.0696908
-0.0731154
-0.076889
-0.0807348
-0.080883
-0.411423
-0.443974
-0.480691
-0.521934
-0.568838
-0.623742
-0.690538
-0.772695
-0.861362
-0.917061
-1.33058
-1.29729
-1.2528
-0.809874
-0.76221
-0.709454
-0.649378
-0.579734
-0.497715
-0.402375
-0.303926
-0.210055
-0.11636
-0.0253269
0.0601815
-0.139158
-0.862256
-0.735572
0.423391
0.439736
0.425762
0.384108
0.32716
0.265983
0.20776
0.155717
0.110709
0.0726367
0.0411787
0.0159165
-0.00377932
-0.0187998
-0.030193
-0.0389936
-0.0460451
-0.0518775
-0.0569693
-0.0622033
-0.0673972
-0.068901
-0.410337
-0.445194
-0.48506
-0.530599
-0.583327
-0.646197
-0.724212
-0.821625
-0.93126
-1.10383
-1.42618
-1.39684
-1.34226
-0.88939
-0.831128
-0.767715
-0.696931
-0.615288
-0.51881
-0.4071
-0.292858
-0.185374
-0.0794168
0.0223338
0.117921
0.182092
-0.570992
-0.82127
0.130992
0.498937
0.485471
0.441151
0.380131
0.314555
0.252029
0.196001
0.14739
0.10607
0.0716568
0.0436704
0.0214505
0.00410836
-0.00938504
-0.0200499
-0.0287401
-0.0360183
-0.0423705
-0.0486579
-0.0548019
-0.0574184
-0.408046
-0.445118
-0.48797
-0.537536
-0.595701
-0.665963
-0.754308
-0.865771
-0.996557
-1.47298
-1.51112
-1.48913
-1.29073
-0.968289
-0.900661
-0.829703
-0.766559
-0.660456
-0.544447
-0.419415
-0.290544
-0.170504
-0.0555118
0.052646
0.151906
0.237376
-0.0282846
-0.82373
-0.72043
0.539603
0.519499
0.47343
0.410432
0.343128
0.278997
0.221548
0.171671
0.129175
0.0935807
0.0643394
0.0407783
0.0220544
0.00721347
-0.00469626
-0.0144947
-0.0227489
-0.0299356
-0.0368656
-0.0435592
-0.0470047
-0.404263
-0.443393
-0.488992
-0.542224
-0.605295
-0.682139
-0.779251
-0.901654
-1.04784
-1.39217
-1.39914
-1.57416
-1.14147
-1.04488
-0.96947
-0.902311
-0.833112
-0.707497
-0.580957
-0.465735
-0.323455
-0.171498
-0.0450805
0.0658866
0.165733
0.252302
0.289366
-0.612954
-0.816549
-0.0431065
0.522351
0.478676
0.416477
0.350123
0.287207
0.231065
0.18241
0.140924
0.106024
0.0770969
0.0534814
0.0344159
0.0190659
0.00659592
-0.00373558
-0.0124673
-0.0200461
-0.027207
-0.0340546
-0.0380168
-0.398731
-0.439688
-0.487713
-0.54416
-0.611475
-0.69388
-0.798079
-0.929456
-1.08674
-1.21481
-1.27617
-1.56211
-1.19174
-1.11777
-1.03721
-0.984919
-0.887705
-0.755917
-0.64106
-0.488585
-0.338945
-0.205035
-0.0503806
0.0619169
0.158843
0.241752
0.306209
0.0438272
-0.858569
-0.831092
0.481135
0.458005
0.39651
0.333275
0.274769
0.22311
0.178499
0.14044
0.108269
0.0813542
0.0590846
0.0408198
0.0258847
0.013603
0.0033546
-0.00533394
-0.0128554
-0.0198429
-0.0264627
-0.0306272
-0.391233
-0.433719
-0.483789
-0.542906
-0.613665
-0.700501
-0.810189
-0.948522
-1.11776
-1.25004
-1.32621
-1.65922
-1.3317
-1.27367
-1.16859
-1.05017
-0.922461
-0.816956
-0.678259
-0.505975
-0.35614
-0.222225
-0.0946252
0.0418669
0.13294
0.209103
0.271365
0.295934
-0.902491
-0.886961
-0.544029
0.393144
0.344796
0.289541
0.239937
0.19667
0.159354
0.127374
0.100095
0.0769667
0.0575027
0.0412326
0.0276808
0.016368
0.00683567
-0.00128755
-0.00831473
-0.0147513
-0.0207946
-0.0248703
-0.381598
-0.425255
-0.476915
-0.538083
-0.611448
-0.701591
-0.815332
-0.958882
-1.13052
-1.27818
-1.36607
-1.73783
-1.67351
-1.57286
-1.24412
-1.08829
-0.962935
-0.849573
-0.692785
-0.518886
-0.355525
-0.240708
-0.122876
-0.00590566
0.0903647
0.156648
0.208997
0.247069
-0.0324074
-0.969971
-0.990857
0.276271
0.259733
0.217864
0.182657
0.152144
0.125564
0.102349
0.0820798
0.0644417
0.0491753
0.0360421
0.0248045
0.0152112
0.006998
-7.12326e-05
-0.00620627
-0.0117653
-0.0169409
-0.0206751
-0.369694
-0.414117
-0.466844
-0.529407
-0.604524
-0.696827
-0.813091
-0.959959
-1.13172
-1.29685
-1.66902
-1.783
-1.68585
-1.46091
-1.26158
-1.12364
-1.0106
-0.885418
-0.732669
-0.555979
-0.387668
-0.248356
-0.157418
-0.0623785
0.0325822
0.0902378
0.131306
0.160872
0.180004
-1.08404
-1.0659
-0.234171
0.136782
0.121245
0.106509
0.0927057
0.0797786
0.0675201
0.0559539
0.0451592
0.0352026
0.0261327
0.0179776
0.010732
0.00434407
-0.00126447
-0.00618224
-0.0106083
-0.0147006
-0.0178959
-0.355434
-0.40018
-0.453417
-0.516682
-0.592674
-0.685961
-0.803186
-0.951178
-1.12649
-1.30014
-1.73162
-1.80206
-1.47062
-1.36271
-1.27109
-1.16644
-1.05569
-0.930683
-0.775422
-0.594133
-0.422631
-0.285257
-0.175678
-0.102385
-0.0320269
0.0156403
0.0458947
0.0657721
0.0755371
-0.359933
-1.17002
-1.09933
0.0137667
0.0232961
0.0249579
0.0270538
0.0279696
0.0271624
0.0248706
0.0214891
0.017388
0.0128903
0.008277
0.00377745
-0.00045271
-0.0043299
-0.00781527
-0.0109455
-0.0138261
-0.0163582
-0.338777
-0.383377
-0.436541
-0.4998
-0.575779
-0.668876
-0.785521
-0.932196
-1.10791
-1.28275
-1.71167
-1.5567
-1.52043
-1.48939
-1.31102
-1.20542
-1.09691
-0.974737
-0.816489
-0.630732
-0.459074
-0.324745
-0.220964
-0.146721
-0.0986233
-0.0629192
-0.0432888
-0.0346963
-0.0389987
-0.0508016
-0.950833
-0.883561
-0.109849
-0.073132
-0.0544973
-0.0375064
-0.02391
-0.0140922
-0.00760716
-0.0038336
-0.00217042
-0.00207688
-0.00306456
-0.00470585
-0.00666357
-0.00870699
-0.0106771
-0.0124547
-0.0140865
-0.0159112
-0.319714
-0.363686
-0.41619
-0.478733
-0.553833
-0.645612
-0.760196
-0.903352
-1.07583
-1.25184
-1.54646
-1.51665
-1.66104
-1.61225
-1.38946
-1.23759
-1.12991
-1.00963
-0.85261
-0.67326
-0.499088
-0.364436
-0.268047
-0.203218
-0.163851
-0.139901
-0.129235
-0.130184
-0.140988
-0.154037
-0.234093
-0.271228
-0.189293
-0.151367
-0.122371
-0.0945822
-0.0710778
-0.0524915
-0.0385073
-0.0284568
-0.0216238
-0.0173305
-0.0149405
-0.0138751
-0.0136524
-0.0139207
-0.014418
-0.0148829
-0.0153096
-0.0164524
-0.298267
-0.341132
-0.392399
-0.453539
-0.526938
-0.616379
-0.727589
-0.865752
-1.03255
-1.21059
-1.35933
-1.49088
-1.66431
-1.62345
-1.53027
-1.26823
-1.16632
-1.03812
-0.890928
-0.737605
-0.56539
-0.409003
-0.313164
-0.257907
-0.226473
-0.211735
-0.207988
-0.215171
-0.225321
-0.238377
-0.252569
-0.257786
-0.243112
-0.210534
-0.175704
-0.141381
-0.110988
-0.0858258
-0.0659553
-0.0508182
-0.0396978
-0.0318556
-0.0265628
-0.0231329
-0.0209763
-0.0196511
-0.0188134
-0.0180754
-0.0173962
-0.0179348
-0.274484
-0.31578
-0.365256
-0.424342
-0.495281
-0.5815
-0.688226
-0.820283
-0.979744
-1.15416
-1.30645
-1.56486
-1.64343
-1.61798
-1.50794
-1.31028
-1.20734
-1.06053
-0.94032
-0.760811
-0.595268
-0.466548
-0.356083
-0.308346
-0.284867
-0.276606
-0.278158
-0.288168
-0.298578
-0.310097
-0.317058
-0.314054
-0.292167
-0.259408
-0.219315
-0.179664
-0.143916
-0.113734
-0.0893428
-0.0702623
-0.0557882
-0.0451432
-0.0375296
-0.0321795
-0.0284241
-0.0257594
-0.0237803
-0.021987
-0.020327
-0.0203736
-0.248438
-0.287728
-0.334891
-0.391324
-0.459113
-0.541335
-0.642646
-0.767577
-0.918469
-1.08471
-1.24164
-1.5373
-1.60337
-1.59488
-1.41221
-1.293
-1.18984
-1.08207
-0.954582
-0.775362
-0.61596
-0.504405
-0.399374
-0.353295
-0.33693
-0.334005
-0.3395
-0.352124
-0.36271
-0.372421
-0.374527
-0.367466
-0.337561
-0.299297
-0.254588
-0.210373
-0.170396
-0.136413
-0.108664
-0.0866908
-0.0697746
-0.0570892
-0.0477702
-0.0409808
-0.0359946
-0.0322719
-0.0293664
-0.0266771
-0.0241661
-0.0238521
-0.220222
-0.257101
-0.30147
-0.354703
-0.418726
-0.496275
-0.591399
-0.708302
-0.849528
-1.00835
-1.16339
-1.4531
-1.54477
-1.54274
-1.34731
-1.27121
-1.18406
-1.07592
-0.943513
-0.780868
-0.628377
-0.525495
-0.438417
-0.39158
-0.381704
-0.383808
-0.392881
-0.405755
-0.418161
-0.426272
-0.45468
-0.433709
-0.373465
-0.329947
-0.281134
-0.233437
-0.190504
-0.153978
-0.124047
-0.10024
-0.0818011
-0.0678433
-0.0574365
-0.0496881
-0.0438374
-0.0393359
-0.0357166
-0.0322872
-0.0290514
-0.0285158
-0.189951
-0.224046
-0.265188
-0.314732
-0.37445
-0.446747
-0.535067
-0.643228
-0.773905
-0.923525
-1.07533
-1.2461
-1.4494
-1.36387
-1.30408
-1.2467
-1.1699
-1.06404
-0.922014
-0.76235
-0.631547
-0.538003
-0.464069
-0.421992
-0.41843
-0.425426
-0.438245
-0.453141
-0.465612
-0.471786
-0.514085
-0.488135
-0.399056
-0.351101
-0.299091
-0.24915
-0.20458
-0.16679
-0.135868
-0.111289
-0.0922343
-0.0777461
-0.066835
-0.0585731
-0.0521931
-0.0471677
-0.04303
-0.0390065
-0.0351692
-0.0345512
-0.15775
-0.18873
-0.22626
-0.271687
-0.326643
-0.393209
-0.474252
-0.573165
-0.69275
-0.831892
-0.978809
-1.11512
-1.22867
-1.25518
-1.24828
-1.4179
-1.36615
-1.1292
-0.901259
-0.727172
-0.620547
-0.53871
-0.467972
-0.443622
-0.446408
-0.458391
-0.475129
-0.492059
-0.503815
-0.542328
-0.546413
-0.51537
-0.414752
-0.363227
-0.309181
-0.258291
-0.21339
-0.175586
-0.144819
-0.12047
-0.101632
-0.0872719
-0.0763583
-0.0679574
-0.0613284
-0.0559951
-0.0515093
-0.0470275
-0.0427139
-0.0421468
-0.12376
-0.151333
-0.184918
-0.225863
-0.275675
-0.336128
-0.409547
-0.498889
-0.607103
-0.735062
-0.875137
-1.01215
-1.11763
-1.17337
-1.28527
-1.47083
-1.40891
-1.30893
-0.931404
-0.698047
-0.589315
-0.513873
-0.464782
-0.456069
-0.465297
-0.48232
-0.502823
-0.521406
-0.545313
-0.587067
-0.565764
-0.527877
-0.42195
-0.367369
-0.312466
-0.261916
-0.217964
-0.181338
-0.151785
-0.128552
-0.110627
-0.0969192
-0.0863866
-0.0781283
-0.0714647
-0.0659973
-0.0613101
-0.056498
-0.0518376
-0.0514488
-0.0881327
-0.112046
-0.141403
-0.177564
-0.221923
-0.275964
-0.34152
-0.421123
-0.517888
-0.63442
-0.766624
-0.901341
-1.01449
-1.08439
-1.41584
-1.41353
-1.36162
-1.26567
-0.951972
-0.656775
-0.559677
-0.491681
-0.457233
-0.460077
-0.4754
-0.497154
-0.521053
-0.540316
-0.60559
-0.598055
-0.571863
-0.520929
-0.419616
-0.363984
-0.309923
-0.261189
-0.219481
-0.185148
-0.157725
-0.136312
-0.119812
-0.107111
-0.0972099
-0.0892805
-0.0827357
-0.0772745
-0.0725171
-0.0674987
-0.0626256
-0.0625479
-0.0510286
-0.0710675
-0.0959649
-0.127098
-0.165762
-0.213167
-0.270701
-0.340527
-0.425939
-0.531086
-0.655014
-0.787635
-0.906938
-1.23147
-1.34706
-1.34651
-1.30622
-1.19003
-0.788057
-0.611608
-0.518935
-0.473998
-0.451554
-0.457241
-0.477616
-0.503248
-0.529707
-0.5852
-0.610658
-0.597428
-0.566193
-0.47557
-0.408644
-0.354324
-0.302955
-0.257544
-0.219279
-0.188175
-0.163568
-0.14444
-0.129655
-0.118145
-0.109004
-0.101512
-0.0951954
-0.0898608
-0.0851606
-0.0800667
-0.0751239
-0.0755038
-0.0126169
-0.0286035
-0.0488575
-0.0747731
-0.107556
-0.148163
-0.197588
-0.257699
-0.332033
-0.426121
-0.541769
-0.671597
-0.796548
-1.04474
-1.18755
-1.27427
-1.24672
-0.967311
-0.702711
-0.564145
-0.475265
-0.45002
-0.439814
-0.448959
-0.473203
-0.502284
-0.538032
-0.602166
-0.602435
-0.584081
-0.539659
-0.444132
-0.39234
-0.340951
-0.293695
-0.252761
-0.218806
-0.191532
-0.170107
-0.153446
-0.140455
-0.130172
-0.121826
-0.11483
-0.108828
-0.103732
-0.0992196
-0.0941966
-0.0893457
-0.0903222
0.0269255
0.015134
-0.000335862
-0.0208926
-0.0476576
-0.0813538
-0.12264
-0.17318
-0.236894
-0.320585
-0.428508
-0.555238
-0.690478
-0.778312
-0.978985
-1.14548
-0.898191
-0.756651
-0.641421
-0.516329
-0.439951
-0.425876
-0.424522
-0.437354
-0.464059
-0.49739
-0.562439
-0.586813
-0.580321
-0.547009
-0.475897
-0.421925
-0.373197
-0.326298
-0.284257
-0.248532
-0.219323
-0.196079
-0.177857
-0.163592
-0.1523
-0.143176
-0.135604
-0.12913
-0.123512
-0.118753
-0.114548
-0.109733
-0.105124
-0.106803
0.0674144
0.0599278
0.0493429
0.0342444
0.0135962
-0.0131108
-0.0462707
-0.0874548
-0.141165
-0.215482
-0.317261
-0.445706
-0.574098
-0.67716
-0.95934
-1.16697
-0.981788
-0.710668
-0.583257
-0.474058
-0.411741
-0.395734
-0.408414
-0.424856
-0.45323
-0.495872
-0.544756
-0.548244
-0.509914
-0.482975
-0.440967
-0.397784
-0.353726
-0.312473
-0.276304
-0.24607
-0.221621
-0.202241
-0.186973
-0.174856
-0.165068
-0.156983
-0.15014
-0.144202
-0.139024
-0.13468
-0.130869
-0.12637
-0.122105
-0.12451
0.108649
0.105555
0.0999194
0.0903459
0.0758851
0.0562263
0.0311581
-0.000941857
-0.0453827
-0.111638
-0.213195
-0.338993
-0.469712
-0.585299
-0.991778
-1.09776
-1.07635
-0.778711
-0.530749
-0.43794
-0.389906
-0.379275
-0.392967
-0.413819
-0.442594
-0.489791
-0.52295
-0.492183
-0.47642
-0.449943
-0.414262
-0.375096
-0.336466
-0.30126
-0.271004
-0.246046
-0.225981
-0.210026
-0.197297
-0.186997
-0.17849
-0.17132
-0.165161
-0.159775
-0.155088
-0.151221
-0.147868
-0.143779
-0.13995
-0.142979
0.150414
0.151783
0.151132
0.147125
0.138906
0.126349
0.109334
0.0860078
0.0500329
-0.00963178
-0.108332
-0.235256
-0.371089
-0.527974
-0.985196
-1.03481
-0.995731
-0.623577
-0.48494
-0.410252
-0.376684
-0.372985
-0.386178
-0.407349
-0.435175
-0.469704
-0.479146
-0.466167
-0.449866
-0.423423
-0.390635
-0.356035
-0.323013
-0.293656
-0.268855
-0.248577
-0.232261
-0.219147
-0.208492
-0.199678
-0.192249
-0.185892
-0.180387
-0.175565
-0.171402
-0.168043
-0.165169
-0.161526
-0.158164
-0.161677
0.192495
0.198373
0.202719
0.204298
0.202369
0.196974
0.187983
0.17309
0.144712
0.090083
-0.0056759
-0.134168
-0.279795
-0.654774
-0.917141
-0.977871
-0.764816
-0.532896
-0.453896
-0.397119
-0.375791
-0.376515
-0.388144
-0.40775
-0.431196
-0.447818
-0.452755
-0.445299
-0.427104
-0.401305
-0.371618
-0.341633
-0.313907
-0.289808
-0.269715
-0.25333
-0.240041
-0.229183
-0.220173
-0.212569
-0.206061
-0.200444
-0.195572
-0.191322
-0.187695
-0.184844
-0.182437
-0.179235
-0.176324
-0.180192
0.234668
0.245074
0.254424
0.261576
0.265993
0.267838
0.266846
0.259996
0.238177
0.186713
0.0919117
-0.0432039
-0.196562
-0.721443
-0.85706
-0.873449
-0.576444
-0.500913
-0.443554
-0.411323
-0.393088
-0.390926
-0.399682
-0.415887
-0.432594
-0.441558
-0.44057
-0.429055
-0.409355
-0.384512
-0.357827
-0.332062
-0.308977
-0.289315
-0.273056
-0.25975
-0.248812
-0.239703
-0.232
-0.225403
-0.219708
-0.214786