/*--------------------------------*- C++ -*----------------------------------*\
  =========                 |
  \\      /  F ield         | OpenFOAM: The Open Source CFD Toolbox
   \\    /   O peration     | Website:  https://openfoam.org
    \\  /    A nd           | Version:  9
     \\/     M anipulation  |
\*---------------------------------------------------------------------------*/
FoamFile
{
    format      ascii;
    class       surfaceScalarField;
    location    "0.14";
    object      phi;
}
// * * * * * * * * * * * * * * * * * * * * * * * * * * * * * * * * * * * * * //

dimensions      [0 3 -1 0 0 0 0];

internalField   nonuniform List<scalar> 
9850
(
-9.36308e-07
1.45497e-05
-1.00052e-06
1.50568e-05
-1.06217e-06
1.56421e-05
-1.11465e-06
1.61791e-05
-1.15657e-06
1.6676e-05
-1.18322e-06
1.72036e-05
-1.18518e-06
1.77794e-05
-1.1636e-06
1.84168e-05
-1.06783e-06
1.90984e-05
-6.24856e-07
1.8966e-05
1.50535e-07
1.61869e-05
9.4259e-07
8.53062e-06
1.1642e-07
1.98988e-06
-8.73768e-08
-1.15671e-06
-2.00597e-07
-2.02726e-06
-2.58873e-07
-2.15961e-06
-2.74337e-07
-2.15225e-06
-2.56578e-07
-2.20751e-06
-2.16944e-07
-2.31743e-06
-1.60936e-07
-2.43924e-06
-1.04785e-07
-2.06531e-06
-4.73145e-08
-1.98865e-06
4.38051e-09
-1.86526e-06
4.35142e-08
-1.70761e-06
6.77362e-08
-1.53746e-06
7.42691e-08
-1.37148e-06
5.58086e-08
-1.21289e-06
2.74168e-09
-1.0402e-06
-8.41871e-08
-8.07677e-07
-2.22205e-07
-4.0659e-07
-4.12067e-07
3.43949e-07
-8.457e-08
8.60515e-07
2.42196e-07
3.11044e-06
5.9209e-07
4.82004e-06
9.12119e-07
6.07561e-06
1.1421e-06
6.74109e-06
1.26985e-06
6.8516e-06
1.32006e-06
6.58387e-06
1.32834e-06
6.13914e-06
1.32148e-06
5.66141e-06
1.31264e-06
5.22033e-06
1.30539e-06
4.8335e-06
1.29913e-06
4.49512e-06
1.29256e-06
4.1944e-06
1.28484e-06
3.92276e-06
1.27574e-06
3.67478e-06
1.26535e-06
3.44712e-06
1.25383e-06
3.23746e-06
1.24105e-06
3.04409e-06
2.8676e-06
-8.70663e-07
1.45958e-05
-9.21248e-07
1.51074e-05
-9.64958e-07
1.56858e-05
-9.94769e-07
1.62089e-05
-1.00784e-06
1.6689e-05
-9.98382e-07
1.71941e-05
-9.55584e-07
1.77366e-05
-8.6825e-07
1.83294e-05
-6.92677e-07
1.89228e-05
-2.03656e-07
1.8477e-05
7.06187e-07
1.52771e-05
1.65809e-06
7.57871e-06
4.07629e-07
3.24035e-06
-1.78307e-08
-7.31251e-07
-1.91702e-07
-1.85339e-06
-2.60054e-07
-2.09126e-06
-2.66869e-07
-2.14544e-06
-2.42378e-07
-2.232e-06
-2.07189e-07
-2.35262e-06
-1.65671e-07
-2.48075e-06
-1.25068e-07
-2.10591e-06
-8.20523e-08
-2.03166e-06
-4.31773e-08
-1.90414e-06
-1.26728e-08
-1.73811e-06
6.60938e-09
-1.55675e-06
1.03923e-08
-1.37526e-06
-1.30899e-08
-1.1894e-06
-7.79983e-08
-9.75287e-07
-1.93573e-07
-6.92102e-07
-3.82e-07
-2.18163e-07
-4.62705e-07
4.24654e-07
-3.59057e-07
7.56866e-07
-1.47024e-07
2.89841e-06
1.23222e-07
4.5498e-06
4.03191e-07
5.79564e-06
6.28801e-07
6.51548e-06
7.8006e-07
6.70034e-06
8.66532e-07
6.4974e-06
9.10437e-07
6.09523e-06
9.32362e-07
5.63948e-06
9.45045e-07
5.20765e-06
9.53973e-07
4.82457e-06
9.60523e-07
4.48857e-06
9.64606e-07
4.19032e-06
9.66004e-07
3.92136e-06
9.64745e-07
3.67604e-06
9.61044e-07
3.45082e-06
9.55121e-07
3.24338e-06
9.46811e-07
3.0524e-06
2.87968e-06
-8.06641e-07
1.46335e-05
-8.44668e-07
1.51454e-05
-8.72006e-07
1.57132e-05
-8.816e-07
1.62185e-05
-8.6959e-07
1.6677e-05
-8.29697e-07
1.71542e-05
-7.52104e-07
1.7659e-05
-6.13491e-07
1.81908e-05
-3.70831e-07
1.86801e-05
1.26065e-07
1.79801e-05
1.06578e-06
1.43374e-05
1.8197e-06
6.82479e-06
8.25314e-07
4.23473e-06
1.55078e-07
-6.10148e-08
-1.31804e-07
-1.5665e-06
-2.31829e-07
-1.99123e-06
-2.38168e-07
-2.1391e-06
-2.07166e-07
-2.263e-06
-1.76443e-07
-2.38334e-06
-1.52386e-07
-2.50481e-06
-1.3274e-07
-2.12556e-06
-1.11497e-07
-2.05291e-06
-9.22573e-08
-1.92338e-06
-8.04539e-08
-1.74991e-06
-7.98688e-08
-1.55733e-06
-9.54917e-08
-1.35964e-06
-1.35404e-07
-1.14949e-06
-2.04561e-07
-9.0613e-07
-3.34335e-07
-5.62329e-07
-5.79787e-07
2.72887e-08
-4.88566e-07
3.33433e-07
-6.11003e-07
8.79303e-07
-4.93841e-07
2.78124e-06
-2.73701e-07
4.32965e-06
-3.50424e-08
5.55698e-06
1.74426e-07
6.30601e-06
3.36117e-07
6.53865e-06
4.49123e-07
6.38439e-06
5.23072e-07
6.02128e-06
5.71379e-07
5.59118e-06
6.04728e-07
5.1743e-06
6.29386e-07
4.79992e-06
6.48228e-07
4.46973e-06
6.62367e-07
4.17618e-06
6.72299e-07
3.91143e-06
6.78406e-07
3.66993e-06
6.8107e-07
3.44816e-06
6.80557e-07
3.24389e-06
6.76675e-07
3.05629e-06
2.88789e-06
-7.45309e-07
1.46634e-05
-7.72135e-07
1.51722e-05
-7.85009e-07
1.57261e-05
-7.77168e-07
1.62107e-05
-7.44302e-07
1.66442e-05
-6.79755e-07
1.70896e-05
-5.76082e-07
1.75554e-05
-4.04738e-07
1.80195e-05
-1.1111e-07
1.83865e-05
3.5504e-07
1.7514e-05
1.17835e-06
1.35141e-05
1.61855e-06
6.38459e-06
1.47326e-06
4.38002e-06
3.83753e-07
1.02849e-06
-2.2413e-08
-1.16034e-06
-1.56824e-07
-1.85682e-06
-1.72175e-07
-2.12375e-06
-1.40399e-07
-2.29478e-06
-1.17528e-07
-2.40621e-06
-1.15055e-07
-2.50728e-06
-1.2199e-07
-2.11863e-06
-1.29192e-07
-2.04571e-06
-1.35794e-07
-1.91677e-06
-1.48922e-07
-1.73679e-06
-1.78884e-07
-1.52737e-06
-2.31567e-07
-1.30695e-06
-2.98306e-07
-1.08275e-06
-3.73834e-07
-8.30602e-07
-4.24401e-07
-5.11761e-07
-6.11941e-07
2.14828e-07
-5.13181e-07
2.34673e-07
-7.0195e-07
1.06807e-06
-6.76275e-07
2.75557e-06
-5.36494e-07
4.18987e-06
-3.61712e-07
5.3822e-06
-1.82681e-07
6.12698e-06
-2.565e-08
6.38162e-06
9.81045e-08
6.26064e-06
1.89954e-07
5.92943e-06
2.56363e-07
5.52477e-06
3.04988e-07
5.12567e-06
3.41742e-07
4.76316e-06
3.70251e-07
4.44122e-06
3.92451e-07
4.15398e-06
4.09403e-07
3.89448e-06
4.21808e-07
3.65753e-06
4.30222e-07
3.43975e-06
4.34997e-07
3.23912e-06
4.35936e-07
3.05535e-06
2.89139e-06
-6.877e-07
1.46863e-05
-7.04808e-07
1.51893e-05
-7.05373e-07
1.57266e-05
-6.83086e-07
1.61884e-05
-6.33748e-07
1.65948e-05
-5.50358e-07
1.70063e-05
-4.27384e-07
1.74324e-05
-2.41136e-07
1.78332e-05
5.96107e-08
1.80858e-05
4.67109e-07
1.71065e-05
1.10529e-06
1.28759e-05
1.54655e-06
5.94333e-06
2.2654e-06
3.66117e-06
6.87096e-07
2.6068e-06
1.67148e-07
-6.40392e-07
4.7554e-09
-1.69443e-06
-3.65536e-08
-2.08244e-06
-3.26326e-08
-2.2987e-06
-2.8949e-08
-2.4099e-06
-5.2314e-08
-2.48392e-06
-8.99657e-08
-2.08097e-06
-1.30443e-07
-2.00523e-06
-1.65528e-07
-1.88169e-06
-2.01039e-07
-1.70127e-06
-2.55664e-07
-1.47274e-06
-3.40469e-07
-1.22215e-06
-4.37199e-07
-9.86023e-07
-4.87794e-07
-7.80007e-07
-5.79908e-07
-4.19648e-07
-5.19331e-07
1.54251e-07
-5.67524e-07
2.82865e-07
-7.62564e-07
1.26311e-06
-7.6086e-07
2.75386e-06
-6.8708e-07
4.11609e-06
-5.72772e-07
5.26789e-06
-4.33865e-07
5.98808e-06
-2.9536e-07
6.24311e-06
-1.74122e-07
6.1394e-06
-7.70808e-08
5.83239e-06
-2.84987e-09
5.45054e-06
5.35351e-08
5.06929e-06
9.70579e-08
4.71964e-06
1.31376e-07
4.4069e-06
1.58779e-07
4.12658e-06
1.80684e-07
3.87257e-06
1.98088e-07
3.64012e-06
2.11826e-07
3.42601e-06
2.22626e-07
3.22832e-06
2.30414e-07
3.04756e-06
2.89101e-06
-6.34584e-07
1.47034e-05
-6.43589e-07
1.51983e-05
-6.34083e-07
1.57171e-05
-6.00305e-07
1.61546e-05
-5.38559e-07
1.65331e-05
-4.41922e-07
1.69096e-05
-3.05213e-07
1.72957e-05
-1.13463e-07
1.76415e-05
1.87279e-07
1.7785e-05
5.49373e-07
1.67444e-05
9.77018e-07
1.24482e-05
1.21115e-06
5.7092e-06
1.63294e-06
3.23939e-06
9.2203e-07
3.3177e-06
5.36281e-07
-2.54642e-07
2.9496e-07
-1.45311e-06
1.7359e-07
-1.96107e-06
1.17836e-07
-2.24295e-06
8.53578e-08
-2.37742e-06
3.20405e-08
-2.4306e-06
-3.67489e-08
-2.01219e-06
-1.13405e-07
-1.92857e-06
-1.80305e-07
-1.81479e-06
-2.30638e-07
-1.65094e-06
-2.8337e-07
-1.42001e-06
-3.59869e-07
-1.14565e-06
-4.39616e-07
-9.06276e-07
-4.33376e-07
-7.86247e-07
-3.96022e-07
-4.57001e-07
-3.78171e-07
1.364e-07
-5.2174e-07
4.26434e-07
-7.07282e-07
1.44865e-06
-7.75143e-07
2.82173e-06
-7.66919e-07
4.10787e-06
-7.01752e-07
5.20273e-06
-5.97836e-07
5.88416e-06
-4.81043e-07
6.12632e-06
-3.7147e-07
6.02983e-06
-2.79234e-07
5.74015e-06
-2.06009e-07
5.37731e-06
-1.48991e-07
5.01227e-06
-1.04271e-07
4.67492e-06
-6.86668e-08
4.3713e-06
-4.00806e-08
4.09799e-06
-1.72463e-08
3.84974e-06
6.04766e-10
3.62227e-06
1.39085e-08
3.4127e-06
2.31082e-08
3.21912e-06
3.34162e-08
3.03725e-06
2.83155e-06
-5.8651e-07
1.47158e-05
-5.89083e-07
1.52009e-05
-5.71742e-07
1.56998e-05
-5.29313e-07
1.61122e-05
-4.58702e-07
1.64625e-05
-3.53516e-07
1.68044e-05
-2.07064e-07
1.71492e-05
-1.1077e-08
1.74455e-05
2.80894e-07
1.7493e-05
6.20817e-07
1.64045e-05
8.69626e-07
1.21994e-05
8.54557e-07
5.72427e-06
1.29301e-06
2.80093e-06
9.43052e-07
3.66766e-06
9.61905e-07
-2.73496e-07
6.55725e-07
-1.14693e-06
4.37241e-07
-1.74259e-06
2.96373e-07
-2.10208e-06
2.1534e-07
-2.29639e-06
1.31217e-07
-2.34648e-06
3.53086e-08
-1.91628e-06
-7.45448e-08
-1.81872e-06
-1.79492e-07
-1.70984e-06
-2.58107e-07
-1.57233e-06
-3.03068e-07
-1.37505e-06
-4.09307e-07
-1.03941e-06
-4.29157e-07
-8.86427e-07
-3.39229e-07
-8.76176e-07
-3.78859e-07
-4.17371e-07
-3.44247e-07
1.01787e-07
-5.12277e-07
5.94464e-07
-6.93581e-07
1.62996e-06
-7.7326e-07
2.9014e-06
-8.03088e-07
4.13769e-06
-7.71125e-07
5.17076e-06
-6.95339e-07
5.80837e-06
-6.00667e-07
6.03165e-06
-5.07104e-07
5.93626e-06
-4.25717e-07
5.65877e-06
-3.59549e-07
5.31114e-06
-3.07076e-07
4.9598e-06
-2.65343e-07
4.63319e-06
-2.31773e-07
4.33773e-06
-2.04628e-07
4.07084e-06
-1.82849e-07
3.82796e-06
-1.65721e-07
3.60514e-06
-1.52504e-07
3.39949e-06
-1.41002e-07
3.20762e-06
-1.17663e-07
3.01391e-06
2.73053e-06
-5.43856e-07
1.47249e-05
-5.41657e-07
1.51987e-05
-5.1863e-07
1.56767e-05
-4.70221e-07
1.60638e-05
-3.93837e-07
1.63861e-05
-2.83939e-07
1.66945e-05
-1.32449e-07
1.69977e-05
6.54559e-08
1.72476e-05
3.41839e-07
1.72167e-05
6.69376e-07
1.60769e-05
8.19345e-07
1.20494e-05
6.69607e-07
5.87401e-06
9.22795e-07
2.54775e-06
1.67885e-06
2.91161e-06
1.28562e-06
1.1973e-07
9.50945e-07
-8.1225e-07
6.58314e-07
-1.44996e-06
4.6699e-07
-1.91075e-06
3.48584e-07
-2.17798e-06
2.35699e-07
-2.23359e-06
1.24708e-07
-1.80529e-06
2.73109e-09
-1.69674e-06
-1.30229e-07
-1.57688e-06
-2.44746e-07
-1.45781e-06
-3.71367e-07
-1.24843e-06
-5.23754e-07
-8.87024e-07
-1.07733e-06
-3.32851e-07
-7.97082e-07
-1.15642e-06
-5.13234e-07
-7.0122e-07
-3.57568e-07
-5.38802e-08
-4.9889e-07
7.35785e-07
-6.52382e-07
1.78345e-06
-7.54237e-07
3.00326e-06
-8.07102e-07
4.19056e-06
-7.9739e-07
5.16105e-06
-7.44069e-07
5.75505e-06
-6.70551e-07
5.95813e-06
-5.95114e-07
5.86083e-06
-5.28001e-07
5.59165e-06
-4.72456e-07
5.2556e-06
-4.27654e-07
4.915e-06
-3.91385e-07
4.59692e-06
-3.61617e-07
4.30796e-06
-3.36908e-07
4.04613e-06
-3.16244e-07
3.8073e-06
-2.98612e-07
3.58751e-06
-2.82202e-07
3.38308e-06
-2.61802e-07
3.18722e-06
-2.21488e-07
2.9736e-06
2.65648e-06
-5.06842e-07
1.47317e-05
-5.01461e-07
1.51933e-05
-4.74768e-07
1.56501e-05
-4.22874e-07
1.60119e-05
-3.43648e-07
1.63069e-05
-2.32583e-07
1.65835e-05
-8.15363e-08
1.68467e-05
1.13525e-07
1.70525e-05
3.75692e-07
1.69545e-05
7.00676e-07
1.57519e-05
8.15617e-07
1.19345e-05
5.7191e-07
6.11772e-06
6.23359e-07
2.4963e-06
1.22564e-06
2.30932e-06
1.11637e-06
2.29002e-07
8.45508e-07
-5.41385e-07
7.92145e-07
-1.39659e-06
6.08416e-07
-1.72702e-06
4.64886e-07
-2.03445e-06
3.25098e-07
-2.0938e-06
2.17186e-07
-1.69737e-06
1.34618e-07
-1.61417e-06
4.94535e-08
-1.49172e-06
-1.42689e-07
-1.26567e-06
-3.26787e-07
-1.06433e-06
-2.90196e-07
-9.23615e-07
-1.2749e-07
-4.95556e-07
-4.12905e-07
-8.7101e-07
-4.35909e-07
-6.78216e-07
-4.37438e-07
-5.23523e-08
-5.26947e-07
8.25294e-07
-6.46682e-07
1.90318e-06
-7.40295e-07
3.09687e-06
-7.95012e-07
4.24528e-06
-7.9887e-07
5.16491e-06
-7.63284e-07
5.71946e-06
-7.0848e-07
5.90333e-06
-6.50773e-07
5.80312e-06
-5.988e-07
5.53968e-06
-5.55326e-07
5.21212e-06
-5.1982e-07
4.87949e-06
-4.90675e-07
4.56777e-06
-4.66421e-07
4.28371e-06
-4.46015e-07
4.02573e-06
-4.28589e-07
3.78987e-06
-4.12769e-07
3.57169e-06
-3.95259e-07
3.36557e-06
-3.68172e-07
3.16012e-06
-3.19502e-07
2.92493e-06
2.60168e-06
-4.75531e-07
1.47374e-05
-4.6846e-07
1.51862e-05
-4.39968e-07
1.56216e-05
-3.86896e-07
1.59588e-05
-3.07676e-07
1.62276e-05
-1.98877e-07
1.64747e-05
-5.35025e-08
1.67013e-05
1.33235e-07
1.68658e-05
3.78167e-07
1.67096e-05
6.82619e-07
1.54475e-05
8.02741e-07
1.18144e-05
5.46602e-07
6.37385e-06
4.27146e-07
2.61576e-06
9.12027e-07
1.82444e-06
9.86954e-07
1.54073e-07
1.09404e-06
-6.48467e-07
1.08788e-06
-1.39044e-06
7.80694e-07
-1.41984e-06
5.2129e-07
-1.77505e-06
3.64674e-07
-1.93719e-06
3.14969e-07
-1.64767e-06
3.1492e-07
-1.61413e-06
2.65254e-07
-1.44205e-06
4.25941e-08
-1.04301e-06
-6.65462e-08
-9.55191e-07
-5.14468e-08
-9.38716e-07
5.59992e-08
-6.03002e-07
-1.62874e-07
-6.52137e-07
-3.52657e-07
-4.88434e-07
-4.72711e-07
6.77018e-08
-5.52561e-07
9.05144e-07
-6.5829e-07
2.00891e-06
-7.40778e-07
3.17936e-06
-7.86468e-07
4.29097e-06
-7.93264e-07
5.1717e-06
-7.69542e-07
5.69574e-06
-7.30098e-07
5.86388e-06
-6.87956e-07
5.76098e-06
-6.49996e-07
5.50172e-06
-6.18237e-07
5.18036e-06
-5.92195e-07
4.85345e-06
-5.70682e-07
4.54626e-06
-5.5267e-07
4.26569e-06
-5.3741e-07
4.01047e-06
-5.23964e-07
3.77642e-06
-5.10128e-07
3.55786e-06
-4.90685e-07
3.34613e-06
-4.56554e-07
3.12599e-06
-4.0352e-07
2.8719e-06
2.55994e-06
-4.49851e-07
1.4743e-05
-4.42447e-07
1.51788e-05
-4.13844e-07
1.5593e-05
-3.61662e-07
1.59066e-05
-2.85076e-07
1.61511e-05
-1.81829e-07
1.63714e-05
-4.71056e-08
1.65666e-05
1.23905e-07
1.66948e-05
3.44015e-07
1.64895e-05
6.12934e-07
1.51786e-05
7.43423e-07
1.16839e-05
5.80877e-07
6.5364e-06
4.16292e-07
2.78034e-06
7.94423e-07
1.44631e-06
8.77742e-07
7.07537e-08
9.55947e-07
-7.26672e-07
8.83535e-07
-1.31803e-06
8.07989e-07
-1.34429e-06
6.18113e-07
-1.58517e-06
4.75049e-07
-1.79412e-06
3.91635e-07
-1.56426e-06
3.0039e-07
-1.52288e-06
2.13633e-07
-1.35529e-06
1.9924e-07
-1.02861e-06
1.09958e-07
-8.6591e-07
1.97565e-08
-8.48515e-07
5.32052e-08
-6.36452e-07
-9.51704e-08
-5.03762e-07
-2.78741e-07
-3.04864e-07
-4.5442e-07
2.4338e-07
-5.57956e-07
1.00868e-06
-6.52695e-07
2.10365e-06
-7.29398e-07
3.25606e-06
-7.74117e-07
4.33568e-06
-7.84268e-07
5.18185e-06
-7.70532e-07
5.682e-06
-7.44347e-07
5.83769e-06
-7.15745e-07
5.73237e-06
-6.90119e-07
5.47609e-06
-6.68876e-07
5.15912e-06
-6.51554e-07
4.83612e-06
-6.3725e-07
4.53195e-06
-6.25235e-07
4.25368e-06
-6.14895e-07
4.00013e-06
-6.05002e-07
3.76653e-06
-5.92386e-07
3.54525e-06
-5.70789e-07
3.32453e-06
-5.33115e-07
3.08832e-06
-4.8313e-07
2.82191e-06
2.52905e-06
-4.29604e-07
1.47494e-05
-4.23061e-07
1.51723e-05
-3.95812e-07
1.55657e-05
-3.46291e-07
1.58571e-05
-2.74586e-07
1.60793e-05
-1.79737e-07
1.62766e-05
-5.95319e-08
1.64464e-05
9.00812e-08
1.65452e-05
2.79763e-07
1.62998e-05
5.05528e-07
1.49528e-05
6.55869e-07
1.15336e-05
5.58956e-07
6.63331e-06
4.55406e-07
2.88389e-06
7.37185e-07
1.16453e-06
8.8364e-07
-7.57005e-08
9.49562e-07
-7.92594e-07
8.01476e-07
-1.16994e-06
7.16649e-07
-1.25946e-06
6.405e-07
-1.50902e-06
5.71414e-07
-1.72504e-06
5.12448e-07
-1.50529e-06
4.27821e-07
-1.43825e-06
3.38044e-07
-1.26552e-06
3.07029e-07
-9.976e-07
2.70136e-07
-8.29018e-07
1.66575e-07
-7.44954e-07
1.01484e-07
-5.71361e-07
-5.1581e-08
-3.50697e-07
-2.83205e-07
-7.324e-08
-4.38511e-07
3.98686e-07
-5.83714e-07
1.15388e-06
-6.4976e-07
2.16969e-06
-7.10553e-07
3.31685e-06
-7.5346e-07
4.37859e-06
-7.70794e-07
5.19919e-06
-7.68059e-07
5.67927e-06
-7.548e-07
5.82444e-06
-7.38828e-07
5.7164e-06
-7.24351e-07
5.46162e-06
-7.12518e-07
5.14729e-06
-7.0299e-07
4.8266e-06
-6.9512e-07
4.52408e-06
-6.88384e-07
4.24694e-06
-6.82149e-07
3.99389e-06
-6.74775e-07
3.75916e-06
-6.6244e-07
3.53291e-06
-6.3931e-07
3.3014e-06
-6.02122e-07
3.05113e-06
-5.59611e-07
2.7794e-06
2.50632e-06
-4.1449e-07
1.47574e-05
-4.09804e-07
1.51676e-05
-3.85124e-07
1.5541e-05
-3.39692e-07
1.58117e-05
-2.7459e-07
1.60142e-05
-1.90177e-07
1.61922e-05
-8.65243e-08
1.63427e-05
4.00911e-08
1.64185e-05
2.0215e-07
1.61377e-05
4.06056e-07
1.47489e-05
5.86112e-07
1.13535e-05
5.2299e-07
6.69644e-06
4.83776e-07
2.9231e-06
7.26961e-07
9.21344e-07
8.77448e-07
-2.26186e-07
8.54472e-07
-7.69616e-07
7.38099e-07
-1.05357e-06
6.98084e-07
-1.21945e-06
6.6078e-07
-1.47171e-06
6.07042e-07
-1.6713e-06
5.38934e-07
-1.43718e-06
4.56712e-07
-1.35603e-06
3.87756e-07
-1.19656e-06
3.77502e-07
-9.87346e-07
3.63816e-07
-8.15332e-07
2.9151e-07
-6.72649e-07
1.97016e-07
-4.76867e-07
4.69991e-08
-2.00681e-07
-1.77743e-07
1.51502e-07
-4.00621e-07
6.21563e-07
-5.64458e-07
1.31772e-06
-6.1839e-07
2.22362e-06
-6.76131e-07
3.3746e-06
-7.23489e-07
4.42595e-06
-7.51914e-07
5.22761e-06
-7.63064e-07
5.69042e-06
-7.63897e-07
5.82527e-06
-7.60622e-07
5.71313e-06
-7.568e-07
5.45779e-06
-7.53649e-07
5.14413e-06
-7.51143e-07
4.82409e-06
-7.48931e-07
4.52187e-06
-7.46645e-07
4.24466e-06
-7.43532e-07
3.99077e-06
-7.37542e-07
3.75317e-06
-7.24745e-07
3.52011e-06
-7.00961e-07
3.27761e-06
-6.66872e-07
3.01704e-06
-6.33369e-07
2.7459e-06
2.49142e-06
-4.04118e-07
1.47675e-05
-4.02081e-07
1.51656e-05
-3.80922e-07
1.55199e-05
-3.40656e-07
1.57714e-05
-2.83343e-07
1.59569e-05
-2.10536e-07
1.61194e-05
-1.2391e-07
1.62561e-05
-1.90149e-08
1.63137e-05
1.21175e-07
1.59975e-05
3.16127e-07
1.45539e-05
4.93375e-07
1.11762e-05
4.98466e-07
6.69135e-06
5.19018e-07
2.90255e-06
7.07979e-07
7.32382e-07
7.77319e-07
-2.95525e-07
7.19744e-07
-7.12042e-07
6.45511e-07
-9.79337e-07
6.37227e-07
-1.21117e-06
6.18177e-07
-1.45266e-06
5.71134e-07
-1.62426e-06
5.17389e-07
-1.38344e-06
4.62623e-07
-1.30126e-06
4.27365e-07
-1.1613e-06
4.25676e-07
-9.85657e-07
4.21233e-07
-8.10889e-07
3.78398e-07
-6.29814e-07
2.9729e-07
-3.9576e-07
1.66984e-07
-7.03756e-08
-3.67468e-08
3.55233e-07
-2.85992e-07
8.70808e-07
-4.54576e-07
1.4863e-06
-5.2662e-07
2.29567e-06
-6.06505e-07
3.45448e-06
-6.7554e-07
4.49498e-06
-7.2534e-07
5.27741e-06
-7.56542e-07
5.72162e-06
-7.7453e-07
5.84326e-06
-7.85092e-07
5.72369e-06
-7.92047e-07
5.46475e-06
-7.97192e-07
5.14928e-06
-8.01116e-07
4.82801e-06
-8.03906e-07
4.52466e-06
-8.05362e-07
4.24611e-06
-8.04559e-07
3.98997e-06
-7.99134e-07
3.74774e-06
-7.85549e-07
3.50653e-06
-7.61762e-07
3.25383e-06
-7.31542e-07
2.98682e-06
-7.05846e-07
2.72021e-06
2.48212e-06
-3.98032e-07
1.47804e-05
-3.99231e-07
1.51668e-05
-3.82289e-07
1.55029e-05
-3.47959e-07
1.57371e-05
-2.99197e-07
1.59082e-05
-2.38587e-07
1.60587e-05
-1.68855e-07
1.61864e-05
-8.46784e-08
1.62295e-05
3.64009e-08
1.58764e-05
2.14129e-07
1.43762e-05
3.80596e-07
1.10098e-05
4.50709e-07
6.62123e-06
5.42917e-07
2.81034e-06
6.52829e-07
6.22471e-07
6.34531e-07
-2.77226e-07
5.66952e-07
-6.44464e-07
5.31675e-07
-9.44061e-07
5.33895e-07
-1.21339e-06
5.21353e-07
-1.44012e-06
4.91289e-07
-1.59419e-06
4.63985e-07
-1.35614e-06
4.46514e-07
-1.28379e-06
4.47382e-07
-1.16217e-06
4.65356e-07
-1.00363e-06
4.77323e-07
-8.22856e-07
4.59834e-07
-6.12326e-07
4.04281e-07
-3.40206e-07
3.03959e-07
2.99457e-08
1.47095e-07
5.12097e-07
-6.70998e-08
1.085e-06
-2.29967e-07
1.64917e-06
-3.76023e-07
2.44172e-06
-5.06916e-07
3.58538e-06
-6.16088e-07
4.60416e-06
-6.97849e-07
5.35917e-06
-7.55206e-07
5.77898e-06
-7.93327e-07
5.88138e-06
-8.18714e-07
5.74908e-06
-8.36332e-07
5.48237e-06
-8.49168e-07
5.16211e-06
-8.58747e-07
4.83759e-06
-8.65745e-07
4.53166e-06
-8.70136e-07
4.2505e-06
-8.70775e-07
3.99061e-06
-8.6509e-07
3.74206e-06
-8.5026e-07
3.4917e-06
-8.26351e-07
3.22991e-06
-7.99159e-07
2.95963e-06
-7.78659e-07
2.6997e-06
2.4756e-06
-3.95722e-07
1.47963e-05
-4.00548e-07
1.51716e-05
-3.88297e-07
1.54907e-05
-3.6042e-07
1.57092e-05
-3.20665e-07
1.58684e-05
-2.72467e-07
1.60105e-05
-2.1905e-07
1.6133e-05
-1.54198e-07
1.61646e-05
-5.11455e-08
1.57734e-05
1.08259e-07
1.42168e-05
2.78961e-07
1.08391e-05
4.16828e-07
6.48337e-06
5.39378e-07
2.68779e-06
5.61742e-07
6.00108e-07
4.88691e-07
-2.04175e-07
4.24189e-07
-5.79963e-07
4.08034e-07
-9.27907e-07
4.08457e-07
-1.21381e-06
4.00685e-07
-1.43235e-06
3.93024e-07
-1.58653e-06
3.97879e-07
-1.36099e-06
4.19292e-07
-1.30521e-06
4.57172e-07
-1.20005e-06
5.03151e-07
-1.04961e-06
5.3883e-07
-8.58535e-07
5.46129e-07
-6.19626e-07
5.1585e-07
-3.09929e-07
4.46685e-07
9.91112e-08
3.43063e-07
6.15718e-07
2.39461e-07
1.18861e-06
1.97329e-08
1.8689e-06
-1.65427e-07
2.62688e-06
-3.92808e-07
3.81276e-06
-5.62948e-07
4.77429e-06
-6.86296e-07
5.48252e-06
-7.73035e-07
5.86571e-06
-8.31719e-07
5.94006e-06
-8.70945e-07
5.7883e-06
-8.97682e-07
5.5091e-06
-9.16556e-07
5.18099e-06
-9.30249e-07
4.85129e-06
-9.40063e-07
4.54148e-06
-9.46058e-07
4.2565e-06
-9.46782e-07
3.99133e-06
-9.3958e-07
3.73486e-06
-9.22598e-07
3.47472e-06
-8.97858e-07
3.20518e-06
-8.72409e-07
2.93418e-06
-8.54956e-07
2.68225e-06
2.47046e-06
-3.96637e-07
1.48154e-05
-4.05302e-07
1.51803e-05
-3.98017e-07
1.54834e-05
-3.76904e-07
1.56881e-05
-3.46361e-07
1.58379e-05
-3.10433e-07
1.59746e-05
-2.7221e-07
1.60947e-05
-2.23913e-07
1.61163e-05
-1.35127e-07
1.56846e-05
1.60112e-08
1.40657e-05
1.9153e-07
1.06636e-05
3.81513e-07
6.29338e-06
4.99873e-07
2.56943e-06
4.39551e-07
6.60429e-07
3.30634e-07
-9.52608e-08
2.87297e-07
-5.36626e-07
2.7809e-07
-9.18697e-07
2.74404e-07
-1.21012e-06
2.73733e-07
-1.43168e-06
2.91168e-07
-1.60397e-06
3.28641e-07
-1.39846e-06
3.86849e-07
-1.36341e-06
4.59646e-07
-1.27285e-06
5.3468e-07
-1.12464e-06
5.95253e-07
-9.19109e-07
6.24553e-07
-6.48926e-07
6.09125e-07
-2.94501e-07
5.40778e-07
1.67458e-07
4.14255e-07
7.42242e-07
2.37373e-07
1.36549e-06
7.26321e-08
2.03364e-06
-1.80376e-07
2.87989e-06
-3.78744e-07
4.01112e-06
-5.71654e-07
4.9672e-06
-7.21988e-07
5.63285e-06
-8.30412e-07
5.97414e-06
-9.04038e-07
6.01369e-06
-9.52463e-07
5.83673e-06
-9.84404e-07
5.54104e-06
-1.00608e-06
5.20266e-06
-1.02123e-06
4.86644e-06
-1.03162e-06
4.55186e-06
-1.03716e-06
4.26204e-06
-1.03597e-06
3.99015e-06
-1.02551e-06
3.72439e-06
-1.0051e-06
3.45432e-06
-9.786e-07
3.17867e-06
-9.53781e-07
2.90936e-06
-9.38057e-07
2.66653e-06
2.46611e-06
-4.0019e-07
1.48378e-05
-4.12744e-07
1.51928e-05
-4.1054e-07
1.54812e-05
-3.96337e-07
1.56739e-05
-3.75042e-07
1.58166e-05
-3.51026e-07
1.59506e-05
-3.26811e-07
1.60705e-05
-2.92426e-07
1.60819e-05
-2.14588e-07
1.56068e-05
-6.38622e-08
1.39149e-05
1.15476e-07
1.04842e-05
3.38942e-07
6.06992e-06
4.25124e-07
2.48325e-06
3.09566e-07
7.75988e-07
1.87215e-07
2.70896e-08
1.55998e-07
-5.0541e-07
1.45256e-07
-9.07954e-07
1.37614e-07
-1.20248e-06
1.46955e-07
-1.44102e-06
1.90273e-07
-1.64729e-06
2.57203e-07
-1.4654e-06
3.47198e-07
-1.45341e-06
4.49317e-07
-1.37497e-06
5.49386e-07
-1.22471e-06
6.32504e-07
-1.00223e-06
6.82821e-07
-6.99243e-07
6.81627e-07
-2.93308e-07
6.13081e-07
2.36005e-07
4.71987e-07
8.83336e-07
3.04536e-07
1.53294e-06
8.46463e-08
2.25353e-06
-2.11352e-07
3.17589e-06
-4.34918e-07
4.23469e-06
-6.47187e-07
5.17947e-06
-8.16445e-07
5.80211e-06
-9.38368e-07
6.09606e-06
-1.0193e-06
6.09463e-06
-1.07031e-06
5.88774e-06
-1.10201e-06
5.57274e-06
-1.12215e-06
5.2228e-06
-1.13531e-06
4.8796e-06
-1.14336e-06
4.55992e-06
-1.14576e-06
4.26443e-06
-1.14014e-06
3.98453e-06
-1.12428e-06
3.70853e-06
-1.09903e-06
3.42907e-06
-1.06988e-06
3.14952e-06
-1.04494e-06
2.88442e-06
-1.03027e-06
2.65186e-06
2.46232e-06
-4.05755e-07
1.48633e-05
-4.22108e-07
1.52092e-05
-4.2497e-07
1.5484e-05
-4.17714e-07
1.56666e-05
-4.05657e-07
1.58045e-05
-3.93292e-07
1.59382e-05
-3.82543e-07
1.60598e-05
-3.61331e-07
1.60607e-05
-2.93739e-07
1.55392e-05
-1.42289e-07
1.37635e-05
4.88155e-08
1.02931e-05
2.77761e-07
5.84097e-06
3.07116e-07
2.4539e-06
1.4912e-07
9.33985e-07
6.27761e-08
1.13434e-07
3.32799e-08
-4.75914e-07
1.21639e-08
-8.86838e-07
2.18859e-09
-1.19251e-06
2.31646e-08
-1.462e-06
8.8165e-08
-1.71229e-06
1.79022e-07
-1.55625e-06
2.92349e-07
-1.56674e-06
4.15368e-07
-1.49799e-06
5.32334e-07
-1.34168e-06
6.32736e-07
-1.10263e-06
7.04181e-07
-7.70688e-07
7.24485e-07
-3.13611e-07
6.7806e-07
2.8243e-07
5.75213e-07
9.86182e-07
4.61901e-07
1.64625e-06
1.64408e-07
2.55102e-06
-1.62174e-07
3.50247e-06
-4.91578e-07
4.56409e-06
-7.59668e-07
5.44756e-06
-9.59646e-07
6.00209e-06
-1.09441e-06
6.23082e-06
-1.17754e-06
6.17776e-06
-1.22517e-06
5.93537e-06
-1.25127e-06
5.59884e-06
-1.26547e-06
5.23699e-06
-1.27302e-06
4.88716e-06
-1.27556e-06
4.56245e-06
-1.27174e-06
4.26062e-06
-1.25882e-06
3.97161e-06
-1.23536e-06
3.68507e-06
-1.20401e-06
3.39772e-06
-1.1717e-06
3.11721e-06
-1.14639e-06
2.85911e-06
-1.13259e-06
2.63805e-06
2.45902e-06
-4.12673e-07
1.48917e-05
-4.32612e-07
1.52291e-05
-4.40419e-07
1.54919e-05
-4.40076e-07
1.56663e-05
-4.37282e-07
1.58017e-05
-4.36615e-07
1.59376e-05
-4.39659e-07
1.60628e-05
-4.32803e-07
1.60539e-05
-3.76892e-07
1.54833e-05
-2.28341e-07
1.36149e-05
-1.88513e-08
1.00836e-05
1.76215e-07
5.6459e-06
1.45404e-07
2.4847e-06
8.53339e-09
1.07085e-06
-4.90954e-08
1.71064e-07
-8.69465e-08
-4.38063e-07
-1.23152e-07
-8.50633e-07
-1.3576e-07
-1.1799e-06
-1.05173e-07
-1.49258e-06
-2.20834e-08
-1.79538e-06
8.39866e-08
-1.66232e-06
2.12737e-07
-1.69549e-06
3.45535e-07
-1.63079e-06
4.66385e-07
-1.46253e-06
5.72896e-07
-1.20914e-06
6.59456e-07
-8.57248e-07
6.94527e-07
-3.48682e-07
6.52107e-07
3.2485e-07
5.37317e-07
1.10097e-06
3.56653e-07
1.82691e-06
8.41479e-08
2.82353e-06
-2.78388e-07
3.86501e-06
-6.55959e-07
4.94166e-06
-9.5619e-07
5.74779e-06
-1.16991e-06
6.21581e-06
-1.30476e-06
6.36567e-06
-1.37973e-06
6.25273e-06
-1.41584e-06
5.97148e-06
-1.43019e-06
5.6132e-06
-1.43382e-06
5.24062e-06
-1.43205e-06
4.88539e-06
-1.42564e-06
4.55603e-06
-1.41225e-06
4.24724e-06
-1.38909e-06
3.94845e-06
-1.35613e-06
3.6521e-06
-1.31801e-06
3.3596e-06
-1.2827e-06
3.0819e-06
-1.25738e-06
2.83378e-06
-1.2446e-06
2.62528e-06
2.45622e-06
-4.20246e-07
1.49227e-05
-4.43446e-07
1.52523e-05
-4.55984e-07
1.55044e-05
-4.62454e-07
1.56727e-05
-4.6898e-07
1.58083e-05
-4.80372e-07
1.5949e-05
-4.98205e-07
1.60807e-05
-5.07794e-07
1.60635e-05
-4.65466e-07
1.54409e-05
-3.2533e-07
1.34748e-05
-1.05056e-07
9.86335e-06
4.26075e-08
5.49824e-06
-1.4305e-08
2.54162e-06
-7.59132e-08
1.13246e-06
-1.45051e-07
2.40202e-07
-2.10138e-07
-3.72976e-07
-2.60716e-07
-8.00055e-07
-2.74892e-07
-1.16572e-06
-2.3915e-07
-1.52833e-06
-1.4902e-07
-1.88551e-06
-3.46629e-08
-1.77668e-06
9.97878e-08
-1.82994e-06
2.31686e-07
-1.76268e-06
3.39013e-07
-1.56986e-06
4.33902e-07
-1.30403e-06
5.23344e-07
-9.46691e-07
5.6278e-07
-3.88119e-07
5.11562e-07
3.76067e-07
3.64766e-07
1.24777e-06
1.36445e-07
2.05523e-06
-1.73654e-07
3.13362e-06
-5.85692e-07
4.27705e-06
-9.74348e-07
5.33032e-06
-1.26711e-06
6.04055e-06
-1.46288e-06
6.41158e-06
-1.57458e-06
6.47736e-06
-1.62512e-06
6.30327e-06
-1.63879e-06
5.98515e-06
-1.63418e-06
5.60859e-06
-1.62229e-06
5.22872e-06
-1.60724e-06
4.87035e-06
-1.58817e-06
4.53696e-06
-1.56175e-06
4.22082e-06
-1.52579e-06
3.91249e-06
-1.48224e-06
3.60856e-06
-1.4377e-06
3.31505e-06
-1.40036e-06
3.04457e-06
-1.3758e-06
2.80922e-06
-1.36433e-06
2.61381e-06
2.45389e-06
-4.27742e-07
1.49558e-05
-4.53774e-07
1.52783e-05
-4.70727e-07
1.55213e-05
-4.83829e-07
1.56858e-05
-4.99713e-07
1.58241e-05
-5.23717e-07
1.5973e-05
-5.57689e-07
1.61146e-05
-5.85655e-07
1.60914e-05
-5.5811e-07
1.54134e-05
-4.26372e-07
1.33431e-05
-1.99595e-07
9.63657e-06
-6.9221e-08
5.36787e-06
-1.38469e-07
2.61087e-06
-1.74128e-07
1.16812e-06
-2.63247e-07
3.29321e-07
-3.46793e-07
-2.8943e-07
-4.0464e-07
-7.42209e-07
-4.20218e-07
-1.15015e-06
-3.84532e-07
-1.56401e-06
-2.9552e-07
-1.97452e-06
-1.82518e-07
-1.88968e-06
-4.7892e-08
-1.96456e-06
7.39715e-08
-1.88455e-06
1.48586e-07
-1.64447e-06
2.06393e-07
-1.36184e-06
2.76775e-07
-1.01707e-06
3.17535e-07
-4.28879e-07
2.59706e-07
4.33897e-07
7.9952e-08
1.42752e-06
-2.30876e-07
2.36606e-06
-6.13131e-07
3.51588e-06
-1.05314e-06
4.71706e-06
-1.4126e-06
5.68978e-06
-1.66585e-06
6.29381e-06
-1.81803e-06
6.56375e-06
-1.88655e-06
6.54589e-06
-1.89897e-06
6.31569e-06
-1.88146e-06
5.96764e-06
-1.85243e-06
5.57956e-06
-1.82117e-06
5.19745e-06
-1.78942e-06
4.8386e-06
-1.75428e-06
4.50182e-06
-1.71199e-06
4.17853e-06
-1.66183e-06
3.86233e-06
-1.60812e-06
3.55485e-06
-1.5587e-06
3.26563e-06
-1.52094e-06
3.00681e-06
-1.49801e-06
2.78629e-06
-1.488e-06
2.6038e-06
2.45196e-06
-4.34409e-07
1.49905e-05
-4.62738e-07
1.53067e-05
-4.83677e-07
1.55423e-05
-5.03116e-07
1.57053e-05
-5.28315e-07
1.58493e-05
-5.65508e-07
1.60102e-05
-6.17156e-07
1.61663e-05
-6.65746e-07
1.614e-05
-6.55835e-07
1.54035e-05
-5.34305e-07
1.32215e-05
-3.0733e-07
9.4096e-06
-2.17239e-07
5.27778e-06
-2.82687e-07
2.67631e-06
-3.66495e-07
1.25193e-06
-4.23095e-07
3.8592e-07
-4.98463e-07
-2.14062e-07
-5.55481e-07
-6.85192e-07
-5.72944e-07
-1.13268e-06
-5.42812e-07
-1.59414e-06
-4.64028e-07
-2.0533e-06
-3.60649e-07
-1.99306e-06
-2.31987e-07
-2.09323e-06
-1.24847e-07
-1.99169e-06
-1.11549e-07
-1.65777e-06
-1.3141e-07
-1.34198e-06
-1.14412e-07
-1.03407e-06
-9.98121e-08
-4.43478e-07
-1.7909e-07
5.13175e-07
-3.77183e-07
1.62561e-06
-7.64371e-07
2.75325e-06
-1.19721e-06
3.94871e-06
-1.61294e-06
5.13279e-06
-1.91273e-06
5.98957e-06
-2.10181e-06
6.48289e-06
-2.19235e-06
6.6543e-06
-2.20639e-06
6.55993e-06
-2.17437e-06
6.28366e-06
-2.12269e-06
5.91597e-06
-2.06776e-06
5.52463e-06
-2.01571e-06
5.14541e-06
-1.96528e-06
4.78817e-06
-1.91199e-06
4.44853e-06
-1.85273e-06
4.11927e-06
-1.7891e-06
3.7987e-06
-1.72745e-06
3.49321e-06
-1.67574e-06
3.21392e-06
-1.63933e-06
2.97039e-06
-1.61866e-06
2.76562e-06
-1.61005e-06
2.59519e-06
2.45029e-06
-4.39481e-07
1.50259e-05
-4.69467e-07
1.53366e-05
-4.93838e-07
1.55667e-05
-5.19154e-07
1.57306e-05
-5.53443e-07
1.58836e-05
-6.04184e-07
1.60609e-05
-6.74787e-07
1.62369e-05
-7.46299e-07
1.62115e-05
-7.58105e-07
1.54153e-05
-6.45819e-07
1.31093e-05
-4.32604e-07
9.19639e-06
-3.66143e-07
5.21131e-06
-4.4125e-07
2.75142e-06
-5.33395e-07
1.34407e-06
-5.84512e-07
4.37038e-07
-6.51889e-07
-1.46685e-07
-7.08671e-07
-6.28409e-07
-7.30341e-07
-1.11101e-06
-7.11576e-07
-1.61291e-06
-6.52226e-07
-2.11266e-06
-5.73012e-07
-2.07227e-06
-4.66693e-07
-2.19955e-06
-3.92642e-07
-2.06574e-06
-4.4237e-07
-1.60804e-06
-6.10746e-07
-1.1736e-06
-7.11886e-07
-9.32931e-07
-6.80576e-07
-4.74789e-07
-7.87189e-07
6.19787e-07
-1.0417e-06
1.88013e-06
-1.43723e-06
3.14877e-06
-1.86485e-06
4.37634e-06
-2.19653e-06
5.46447e-06
-2.41105e-06
6.20409e-06
-2.52096e-06
6.5928e-06
-2.54118e-06
6.67452e-06
-2.49799e-06
6.51673e-06
-2.42271e-06
6.20838e-06
-2.33952e-06
5.83278e-06
-2.26091e-06
5.44601e-06
-2.18898e-06
5.07348e-06
-2.11975e-06
4.71895e-06
-2.04838e-06
4.37715e-06
-1.97365e-06
4.04454e-06
-1.89965e-06
3.7247e-06
-1.8338e-06
3.42735e-06
-1.78274e-06
3.16286e-06
-1.74911e-06
2.93675e-06
-1.7309e-06
2.74741e-06