/*--------------------------------*- C++ -*----------------------------------*\
  =========                 |
  \\      /  F ield         | OpenFOAM: The Open Source CFD Toolbox
   \\    /   O peration     | Website:  https://openfoam.org
    \\  /    A nd           | Version:  9
     \\/     M anipulation  |
\*---------------------------------------------------------------------------*/
FoamFile
{
    format      ascii;
    class       volVectorField;
    location    "0.14";
    object      U;
}
// * * * * * * * * * * * * * * * * * * * * * * * * * * * * * * * * * * * * * //

dimensions      [0 1 -1 0 0 0 0];

internalField   nonuniform List<vector> 
5000
(
(-0.214695 0 0.427828)
(-0.230447 0 0.511788)
(-0.246823 0 0.609783)
(-0.261198 0 0.700286)
(-0.272798 0 0.784301)
(-0.281609 0 0.873957)
(-0.285667 0 0.972588)
(-0.283473 0 1.08156)
(-0.270187 0 1.20287)
(-0.223154 0 1.21399)
(-0.137332 0 0.777485)
(0.311277 0 -0.499266)
(0.0566403 0 -1.75822)
(0.00873389 0 -2.21175)
(-0.027121 0 -2.34265)
(-0.0502376 0 -2.35764)
(-0.0577302 0 -2.35239)
(-0.0565101 0 -2.35915)
(-0.0488241 0 -2.37615)
(-0.0366041 0 -2.39546)
(-0.0223667 0 -2.40925)
(-0.00776942 0 -2.41302)
(0.00625803 0 -2.40641)
(0.0178301 0 -2.39081)
(0.0259513 0 -2.36985)
(0.030189 0 -2.34742)
(0.0296005 0 -2.32533)
(0.0213468 0 -2.29824)
(0.00202741 0 -2.25011)
(-0.0215064 0 -2.14642)
(-0.0566378 0 -1.92236)
(-0.0969799 0 -1.6762)
(0.0545708 0 -0.821451)
(0.107427 0 -0.107633)
(0.202641 0 0.483494)
(0.277774 0 0.869642)
(0.320656 0 1.03994)
(0.33919 0 1.04929)
(0.343769 0 0.97363)
(0.342568 0 0.872567)
(0.340196 0 0.777416)
(0.338237 0 0.697542)
(0.33671 0 0.631584)
(0.335223 0 0.575529)
(0.33349 0 0.526176)
(0.3314 0 0.481723)
(0.328975 0 0.44129)
(0.326213 0 0.404379)
(0.323453 0 0.370637)
(0.318002 0 0.340962)
(-0.199731 0 0.436211)
(-0.212605 0 0.521317)
(-0.225087 0 0.618516)
(-0.23443 0 0.707072)
(-0.239793 0 0.788768)
(-0.24061 0 0.875168)
(-0.234258 0 0.968886)
(-0.220453 0 1.07231)
(-0.192957 0 1.17882)
(-0.101816 0 1.13191)
(-0.0325645 0 0.640712)
(0.538863 0 -0.656461)
(0.174136 0 -1.57943)
(0.0337684 0 -2.16316)
(-0.0193832 0 -2.31951)
(-0.051869 0 -2.34792)
(-0.0571763 0 -2.35081)
(-0.0531051 0 -2.36268)
(-0.0451257 0 -2.38242)
(-0.0355343 0 -2.40375)
(-0.0253586 0 -2.4194)
(-0.0147679 0 -2.42415)
(-0.00417402 0 -2.41704)
(0.00472292 0 -2.39965)
(0.0110479 0 -2.37612)
(0.0144408 0 -2.34991)
(0.0131394 0 -2.32078)
(0.00300167 0 -2.2821)
(-0.0204295 0 -2.22021)
(-0.0488468 0 -2.09457)
(-0.103384 0 -1.84535)
(-0.129323 0 -1.72065)
(-0.0402056 0 -0.909309)
(-0.00178666 0 -0.216634)
(0.0789301 0 0.369609)
(0.147755 0 0.776688)
(0.193725 0 0.979366)
(0.220986 0 1.01809)
(0.235224 0 0.961378)
(0.242174 0 0.869178)
(0.245966 0 0.776769)
(0.24858 0 0.697317)
(0.250583 0 0.631604)
(0.251983 0 0.576305)
(0.252706 0 0.528171)
(0.25273 0 0.485162)
(0.252114 0 0.446221)
(0.250902 0 0.410801)
(0.249331 0 0.378808)
(0.24527 0 0.352338)
(-0.185055 0 0.443248)
(-0.195299 0 0.528694)
(-0.204184 0 0.624381)
(-0.208969 0 0.710259)
(-0.208818 0 0.788707)
(-0.202922 0 0.870797)
(-0.187989 0 0.958374)
(-0.163796 0 1.05302)
(-0.129897 0 1.1434)
(-0.00476496 0 1.04522)
(0.0446421 0 0.481972)
(0.588231 0 -0.788047)
(0.338156 0 -1.30793)
(0.0874563 0 -2.06079)
(0.00477174 0 -2.28277)
(-0.0444173 0 -2.3348)
(-0.0509248 0 -2.35014)
(-0.0445711 0 -2.36753)
(-0.0360567 0 -2.38806)
(-0.0293967 0 -2.40941)
(-0.0243517 0 -2.42583)
(-0.0193826 0 -2.43133)
(-0.0141301 0 -2.42385)
(-0.00992332 0 -2.40503)
(-0.0080967 0 -2.37935)
(-0.009625 0 -2.34948)
(-0.0161326 0 -2.31295)
(-0.0290592 0 -2.26191)
(-0.0510755 0 -2.18033)
(-0.0861147 0 -2.02548)
(-0.136754 0 -1.85055)
(-0.138671 0 -1.70519)
(-0.129935 0 -0.959894)
(-0.0931615 0 -0.304979)
(-0.0273917 0 0.267791)
(0.033111 0 0.686261)
(0.079706 0 0.910405)
(0.112844 0 0.97161)
(0.134803 0 0.932435)
(0.149017 0 0.85108)
(0.158666 0 0.764364)
(0.165723 0 0.687836)
(0.17113 0 0.624063)
(0.175264 0 0.57059)
(0.178281 0 0.5244)
(0.18028 0 0.483414)
(0.181372 0 0.446497)
(0.18164 0 0.413124)
(0.181243 0 0.383523)
(0.178613 0 0.360656)
(-0.170936 0 0.448852)
(-0.17883 0 0.534047)
(-0.184486 0 0.627655)
(-0.185288 0 0.710293)
(-0.180401 0 0.784811)
(-0.169074 0 0.861899)
(-0.147827 0 0.942915)
(-0.114144 0 1.0265)
(-0.0789735 0 1.09857)
(0.0606047 0 0.963762)
(0.102126 0 0.327726)
(0.495574 0 -0.899538)
(0.474183 0 -1.24199)
(0.164313 0 -1.93138)
(0.0387264 0 -2.23078)
(-0.0249853 0 -2.31645)
(-0.0339235 0 -2.34946)
(-0.0277847 0 -2.37352)
(-0.0196246 0 -2.39287)
(-0.0166377 0 -2.41176)
(-0.01791 0 -2.42729)
(-0.0202393 0 -2.433)
(-0.0219576 0 -2.42521)
(-0.0236935 0 -2.40454)
(-0.0283459 0 -2.3753)
(-0.0389962 0 -2.34013)
(-0.0556239 0 -2.29686)
(-0.0724722 0 -2.23906)
(-0.0840677 0 -2.14738)
(-0.110081 0 -1.95408)
(-0.136718 0 -1.91255)
(-0.138288 0 -1.66276)
(-0.175201 0 -0.995824)
(-0.147665 0 -0.379097)
(-0.101607 0 0.181602)
(-0.054432 0 0.602409)
(-0.0121076 0 0.838374)
(0.0227898 0 0.915078)
(0.0491996 0 0.890663)
(0.0682097 0 0.820723)
(0.0820842 0 0.741678)
(0.092506 0 0.670086)
(0.100559 0 0.609763)
(0.106857 0 0.559104)
(0.111731 0 0.515498)
(0.115383 0 0.476992)
(0.117973 0 0.44249)
(0.119624 0 0.411566)
(0.120457 0 0.384833)
(0.119438 0 0.365754)
(-0.157609 0 0.453188)
(-0.16344 0 0.537633)
(-0.166306 0 0.62868)
(-0.163771 0 0.707648)
(-0.154996 0 0.77776)
(-0.139361 0 0.849314)
(-0.114074 0 0.923672)
(-0.0726505 0 0.995759)
(-0.0374524 0 1.04777)
(0.0992621 0 0.890226)
(0.14885 0 0.197272)
(0.368014 0 -0.978257)
(0.644376 0 -1.32327)
(0.28808 0 -1.72852)
(0.0866016 0 -2.14877)
(0.0194398 0 -2.29265)
(0.00346037 0 -2.34672)
(0.00114022 0 -2.37785)
(0.00493271 0 -2.3955)
(0.00292343 0 -2.40999)
(-0.00556281 0 -2.42268)
(-0.0164078 0 -2.42795)
(-0.0262785 0 -2.42058)
(-0.0339652 0 -2.39839)
(-0.0437238 0 -2.36373)
(-0.0625049 0 -2.32068)
(-0.0877826 0 -2.27243)
(-0.103177 0 -2.21741)
(-0.113233 0 -2.11379)
(-0.134374 0 -1.90963)
(-0.122237 0 -1.92444)
(-0.152268 0 -1.58989)
(-0.193217 0 -1.00337)
(-0.175353 0 -0.425221)
(-0.147832 0 0.12161)
(-0.114554 0 0.533799)
(-0.0785384 0 0.771446)
(-0.0455727 0 0.856715)
(-0.0184856 0 0.843254)
(0.00242341 0 0.783583)
(0.0183596 0 0.712588)
(0.0305931 0 0.646827)
(0.0401811 0 0.590728)
(0.047824 0 0.543376)
(0.053945 0 0.502592)
(0.0588206 0 0.466616)
(0.0626892 0 0.434409)
(0.0658243 0 0.405587)
(0.0682906 0 0.380977)
(0.0689096 0 0.36463)
(-0.145236 0 0.456469)
(-0.149333 0 0.539737)
(-0.149879 0 0.627836)
(-0.144658 0 0.702843)
(-0.13286 0 0.768312)
(-0.113856 0 0.834049)
(-0.0862788 0 0.901748)
(-0.039398 0 0.963532)
(-0.00289951 0 0.996204)
(0.121434 0 0.825788)
(0.187209 0 0.105634)
(0.2609 0 -1.02733)
(0.447269 0 -1.44412)
(0.355648 0 -1.47269)
(0.166678 0 -2.06433)
(0.105577 0 -2.26134)
(0.0692591 0 -2.3348)
(0.0449183 0 -2.37503)
(0.0364528 0 -2.39366)
(0.0278857 0 -2.40352)
(0.0121415 0 -2.41152)
(-0.00746956 0 -2.41522)
(-0.0264815 0 -2.40937)
(-0.0405885 0 -2.38868)
(-0.0511685 0 -2.35094)
(-0.0684936 0 -2.29924)
(-0.090336 0 -2.24941)
(-0.103929 0 -2.20351)
(-0.100902 0 -2.09357)
(-0.0742104 0 -1.95181)
(-0.0917092 0 -1.88247)
(-0.143044 0 -1.52438)
(-0.185017 0 -0.988675)
(-0.186178 0 -0.438191)
(-0.174831 0 0.0872876)
(-0.15268 0 0.483184)
(-0.123215 0 0.714717)
(-0.0941369 0 0.802452)
(-0.0688085 0 0.796297)
(-0.0483631 0 0.745073)
(-0.0323638 0 0.681477)
(-0.019877 0 0.621425)
(-0.00998065 0 0.569615)
(-0.00203594 0 0.525623)
(0.00434751 0 0.487658)
(0.00938256 0 0.454177)
(0.013129 0 0.42427)
(0.0159475 0 0.397806)
(0.0207174 0 0.3768)
(0.0282516 0 0.369434)
(-0.133943 0 0.458882)
(-0.136657 0 0.540629)
(-0.135362 0 0.625499)
(-0.128078 0 0.696364)
(-0.114096 0 0.757111)
(-0.0925626 0 0.816986)
(-0.0637178 0 0.877914)
(-0.0138017 0 0.930958)
(0.0255466 0 0.946318)
(0.134195 0 0.768062)
(0.212755 0 0.0522577)
(0.203487 0 -1.04751)
(0.301377 0 -1.50903)
(0.295766 0 -1.3384)
(0.267252 0 -1.94145)
(0.206503 0 -2.20394)
(0.148868 0 -2.30488)
(0.0984664 0 -2.35926)
(0.0727474 0 -2.38511)
(0.0560815 0 -2.39228)
(0.0338135 0 -2.39427)
(0.00685532 0 -2.3943)
(-0.0212216 0 -2.38906)
(-0.0447515 0 -2.37334)
(-0.0582858 0 -2.33754)
(-0.0761455 0 -2.27574)
(-0.0995454 0 -2.23152)
(-0.101341 0 -2.21261)
(-0.067613 0 -2.1403)
(-0.0717372 0 -1.97189)
(-0.0896222 0 -1.82592)
(-0.14109 0 -1.46325)
(-0.178483 0 -0.960759)
(-0.190229 0 -0.431192)
(-0.188847 0 0.0697234)
(-0.17417 0 0.446642)
(-0.150897 0 0.668575)
(-0.126542 0 0.755357)
(-0.104394 0 0.753779)
(-0.0860346 0 0.709114)
(-0.0714056 0 0.651771)
(-0.0598188 0 0.596781)
(-0.0505279 0 0.548904)
(-0.0430068 0 0.508091)
(-0.0369183 0 0.472903)
(-0.0320561 0 0.442019)
(-0.0284708 0 0.414641)
(-0.026273 0 0.390098)
(-0.0217889 0 0.362053)
(-0.00165274 0 0.266811)
(-0.123826 0 0.460625)
(-0.125509 0 0.540587)
(-0.122845 0 0.622038)
(-0.114078 0 0.688671)
(-0.0986826 0 0.744711)
(-0.0754699 0 0.79886)
(-0.0459533 0 0.852864)
(0.00454147 0 0.89816)
(0.0472613 0 0.898799)
(0.141596 0 0.713386)
(0.22615 0 0.0236475)
(0.187001 0 -1.03523)
(0.180692 0 -1.55631)
(0.396108 0 -1.42234)
(0.392463 0 -1.94733)
(0.281502 0 -2.13577)
(0.209506 0 -2.25352)
(0.147671 0 -2.3263)
(0.109832 0 -2.36693)
(0.0850204 0 -2.37529)
(0.0573089 0 -2.37232)
(0.0272262 0 -2.36826)
(-0.00373007 0 -2.3612)
(-0.0348512 0 -2.34922)
(-0.0665422 0 -2.31416)
(-0.0921523 0 -2.24934)
(-0.154875 0 -2.21965)
(-0.277136 0 -2.28324)
(-0.166303 0 -2.17113)
(-0.0885562 0 -1.98446)
(-0.0864534 0 -1.77586)
(-0.134647 0 -1.40548)
(-0.167842 0 -0.925375)
(-0.187718 0 -0.4135)
(-0.192967 0 0.0625343)
(-0.183551 0 0.420359)
(-0.166012 0 0.631977)
(-0.146598 0 0.716473)
(-0.128428 0 0.71775)
(-0.113112 0 0.67802)
(-0.100716 0 0.625635)
(-0.0907278 0 0.57476)
(-0.0825701 0 0.530127)
(-0.0758217 0 0.491959)
(-0.0701861 0 0.459068)
(-0.0653892 0 0.430223)
(-0.0612691 0 0.404396)
(-0.0580031 0 0.379106)
(-0.0522909 0 0.337627)
(-0.0284918 0 0.199723)
(-0.114942 0 0.461898)
(-0.115937 0 0.539885)
(-0.112358 0 0.617804)
(-0.102652 0 0.680198)
(-0.086531 0 0.731609)
(-0.0625409 0 0.780278)
(-0.0329719 0 0.827398)
(0.016161 0 0.865273)
(0.0612737 0 0.853921)
(0.146408 0 0.659448)
(0.232142 0 0.00483811)
(0.192122 0 -0.998545)
(0.0988656 0 -1.57848)
(0.279606 0 -1.57371)
(0.296741 0 -2.10254)
(0.257763 0 -2.11076)
(0.234221 0 -2.2089)
(0.186709 0 -2.28557)
(0.142923 0 -2.33763)
(0.108525 0 -2.35124)
(0.0779991 0 -2.34898)
(0.0542689 0 -2.34655)
(0.0369729 0 -2.33941)
(0.008602 0 -2.3233)
(-0.0505943 0 -2.29137)
(-0.0809794 0 -2.20767)
(-0.0329043 0 -2.05114)
(-0.0380591 0 -2.32259)
(-0.110178 0 -2.21201)
(-0.0963871 0 -2.01056)
(-0.101639 0 -1.73275)
(-0.136626 0 -1.35542)
(-0.163438 0 -0.888449)
(-0.183607 0 -0.391806)
(-0.19151 0 0.0620333)
(-0.185891 0 0.402177)
(-0.17326 0 0.604134)
(-0.158462 0 0.686019)
(-0.14442 0 0.689077)
(-0.132489 0 0.652937)
(-0.122724 0 0.60424)
(-0.11475 0 0.55644)
(-0.108146 0 0.514228)
(-0.102615 0 0.478011)
(-0.0979433 0 0.446718)
(-0.0938367 0 0.418928)
(-0.0898511 0 0.392633)
(-0.0855267 0 0.361931)
(-0.0778323 0 0.302861)
(-0.0557924 0 0.149629)
(-0.107317 0 0.462892)
(-0.107946 0 0.538782)
(-0.103878 0 0.613122)
(-0.0937407 0 0.671346)
(-0.0775077 0 0.718277)
(-0.0536324 0 0.7618)
(-0.0247801 0 0.802438)
(0.0214168 0 0.83315)
(0.0664361 0 0.811595)
(0.143639 0 0.606383)
(0.225307 0 -0.0125856)
(0.196885 0 -0.950687)
(0.0811341 0 -1.56724)
(0.188849 0 -1.66849)
(0.256972 0 -2.01453)
(0.28307 0 -2.08495)
(0.303641 0 -2.2189)
(0.235542 0 -2.26594)
(0.169009 0 -2.31379)
(0.118031 0 -2.32958)
(0.0923618 0 -2.3318)
(0.0873163 0 -2.33354)
(0.0837347 0 -2.3218)
(0.0628209 0 -2.27006)
(-0.00766735 0 -2.24946)
(-0.00753701 0 -2.24446)
(0.0108716 0 -2.1066)
(0.0217792 0 -2.21639)
(-0.0647018 0 -2.17555)
(-0.0969827 0 -1.99848)
(-0.114379 0 -1.70685)
(-0.140439 0 -1.31627)
(-0.1649 0 -0.85597)
(-0.181862 0 -0.371458)
(-0.188994 0 0.0651044)
(-0.185637 0 0.390344)
(-0.176711 0 0.583884)
(-0.165874 0 0.663384)
(-0.155594 0 0.667619)
(-0.146885 0 0.634053)
(-0.139743 0 0.587988)
(-0.133878 0 0.542371)
(-0.128987 0 0.501888)
(-0.12487 0 0.467074)
(-0.12137 0 0.436809)
(-0.11812 0 0.409025)
(-0.114276 0 0.379693)
(-0.108557 0 0.338788)
(-0.0983279 0 0.261572)
(-0.0794773 0 0.109981)
(-0.100948 0 0.463787)
(-0.101506 0 0.537518)
(-0.0973326 0 0.60829)
(-0.0872284 0 0.662483)
(-0.0714259 0 0.705175)
(-0.048472 0 0.743983)
(-0.021202 0 0.778879)
(0.0206867 0 0.803005)
(0.0629146 0 0.772485)
(0.131013 0 0.557468)
(0.203171 0 -0.0339576)
(0.193146 0 -0.913425)
(0.101781 0 -1.54352)
(0.155792 0 -1.72576)
(0.232164 0 -1.96045)
(0.251445 0 -2.10111)
(0.242646 0 -2.24503)
(0.229773 0 -2.22605)
(0.191053 0 -2.27841)
(0.142986 0 -2.31098)
(0.116403 0 -2.32581)
(0.0999857 0 -2.33407)
(0.076004 0 -2.30652)
(0.0630305 0 -2.20961)
(0.0485731 0 -2.19412)
(0.0234901 0 -2.22764)
(0.0181466 0 -2.16723)
(0.0205159 0 -2.15472)
(-0.0378168 0 -2.11261)
(-0.0849167 0 -1.9491)
(-0.116855 0 -1.68059)
(-0.139891 0 -1.28244)
(-0.163228 0 -0.827655)
(-0.178771 0 -0.354749)
(-0.185662 0 0.0687123)
(-0.184329 0 0.382884)
(-0.178531 0 0.569827)
(-0.171144 0 0.647429)
(-0.16417 0 0.652555)
(-0.158327 0 0.620861)
(-0.153576 0 0.576643)
(-0.149684 0 0.532523)
(-0.146431 0 0.49322)
(-0.143677 0 0.459332)
(-0.141272 0 0.429441)
(-0.138732 0 0.400256)
(-0.134857 0 0.365069)
(-0.127959 0 0.311202)
(-0.11658 0 0.220231)
(-0.1019 0 0.0814526)
(-0.0958022 0 0.464746)
(-0.0965505 0 0.536305)
(-0.0926053 0 0.603573)
(-0.0829409 0 0.653932)
(-0.0680331 0 0.69272)
(-0.0466649 0 0.727354)
(-0.021765 0 0.757483)
(0.0148099 0 0.776058)
(0.0523477 0 0.73805)
(0.109694 0 0.515839)
(0.171321 0 -0.0580905)
(0.17736 0 -0.893407)
(0.114979 0 -1.52014)
(0.150476 0 -1.77435)
(0.224698 0 -1.98418)
(0.25357 0 -2.11925)
(0.231595 0 -2.20602)
(0.199509 0 -2.19413)
(0.179606 0 -2.23549)
(0.161541 0 -2.27341)
(0.146919 0 -2.30084)
(0.130293 0 -2.30885)
(0.10598 0 -2.28465)
(0.0893744 0 -2.22525)
(0.0843872 0 -2.19921)
(0.0668954 0 -2.19943)
(0.0453061 0 -2.16258)
(0.0260737 0 -2.11298)
(-0.02929 0 -2.04852)
(-0.0813236 0 -1.89296)
(-0.119474 0 -1.64037)
(-0.144238 0 -1.25347)
(-0.159874 0 -0.802099)
(-0.173461 0 -0.338575)
(-0.181049 0 0.0737744)
(-0.182173 0 0.379365)
(-0.179471 0 0.561245)
(-0.175361 0 0.637311)
(-0.171411 0 0.643045)
(-0.168141 0 0.612652)
(-0.16553 0 0.569659)
(-0.163405 0 0.526476)
(-0.161611 0 0.487866)
(-0.160041 0 0.454389)
(-0.158496 0 0.424055)
(-0.156355 0 0.391953)
(-0.15229 0 0.349031)
(-0.144835 0 0.282691)
(-0.133995 0 0.183482)
(-0.123009 0 0.0594096)
(-0.0918261 0 0.465909)
(-0.0929846 0 0.535327)
(-0.0895447 0 0.599195)
(-0.0806549 0 0.64596)
(-0.0670146 0 0.681248)
(-0.04772 0 0.712335)
(-0.0257312 0 0.738763)
(0.00513644 0 0.753001)
(0.0376351 0 0.708927)
(0.0862188 0 0.481091)
(0.146243 0 -0.0851541)
(0.162065 0 -0.880895)
(0.117784 0 -1.50675)
(0.156034 0 -1.81992)
(0.223134 0 -2.02114)
(0.23915 0 -2.12624)
(0.209866 0 -2.17599)
(0.186649 0 -2.19525)
(0.18076 0 -2.2393)
(0.170742 0 -2.27455)
(0.155292 0 -2.29251)
(0.135997 0 -2.29079)
(0.115243 0 -2.26792)
(0.104616 0 -2.2279)
(0.104482 0 -2.19744)
(0.0953515 0 -2.17544)
(0.0745631 0 -2.13521)
(0.0476629 0 -2.07061)
(-0.00232367 0 -1.98016)
(-0.0610686 0 -1.83365)
(-0.112839 0 -1.58793)
(-0.140443 0 -1.23336)
(-0.150794 0 -0.781025)
(-0.165234 0 -0.321664)
(-0.174705 0 0.0824477)
(-0.179097 0 0.380759)
(-0.179967 0 0.558344)
(-0.179288 0 0.632833)
(-0.178281 0 0.638657)
(-0.17742 0 0.608926)
(-0.176759 0 0.566546)
(-0.176208 0 0.523757)
(-0.17568 0 0.485329)
(-0.175079 0 0.45165)
(-0.174127 0 0.419908)
(-0.172079 0 0.383563)
(-0.167714 0 0.332314)
(-0.160248 0 0.256021)
(-0.150958 0 0.154046)
(-0.143349 0 0.0442957)
(-0.0889448 0 0.467396)
(-0.0906904 0 0.534733)
(-0.0879738 0 0.595336)
(-0.0801176 0 0.638776)
(-0.0680226 0 0.671003)
(-0.0511211 0 0.699193)
(-0.0323258 0 0.722909)
(-0.00707233 0 0.733819)
(0.0205959 0 0.684114)
(0.0634892 0 0.448713)
(0.122406 0 -0.115058)
(0.142656 0 -0.874801)
(0.12242 0 -1.5042)
(0.165489 0 -1.85814)
(0.207915 0 -2.04172)
(0.203311 0 -2.11814)
(0.178956 0 -2.15987)
(0.169585 0 -2.19544)
(0.169268 0 -2.23767)
(0.16092 0 -2.26819)
(0.14748 0 -2.28033)
(0.133097 0 -2.27596)
(0.120763 0 -2.2559)
(0.116246 0 -2.22423)
(0.117488 0 -2.19286)
(0.113176 0 -2.16004)
(0.0983032 0 -2.10987)
(0.0741254 0 -2.03008)
(0.0312695 0 -1.91505)
(-0.0273997 0 -1.75974)
(-0.0850979 0 -1.53116)
(-0.11512 0 -1.21516)
(-0.130863 0 -0.758563)
(-0.150868 0 -0.30105)
(-0.165365 0 0.0971075)
(-0.174982 0 0.38895)
(-0.180572 0 0.562085)
(-0.183805 0 0.634328)
(-0.185868 0 0.639358)
(-0.187369 0 0.609448)
(-0.188527 0 0.566979)
(-0.189392 0 0.523994)
(-0.18996 0 0.485181)
(-0.19014 0 0.450572)
(-0.189566 0 0.416374)
(-0.187426 0 0.374748)
(-0.182767 0 0.315484)
(-0.175578 0 0.232273)
(-0.167913 0 0.131558)
(-0.162818 0 0.0351904)
(-0.0870671 0 0.469297)
(-0.089532 0 0.534638)
(-0.0877001 0 0.592132)
(-0.0810656 0 0.63253)
(-0.0707111 0 0.662138)
(-0.0563973 0 0.688062)
(-0.0409416 0 0.709906)
(-0.021002 0 0.718162)
(0.00177695 0 0.662479)
(0.0398627 0 0.417296)
(0.0940714 0 -0.144736)
(0.116815 0 -0.88119)
(0.126109 0 -1.51488)
(0.16822 0 -1.88379)
(0.178965 0 -2.04397)
(0.160851 0 -2.10562)
(0.145779 0 -2.15204)
(0.144198 0 -2.19498)
(0.14428 0 -2.234)
(0.138076 0 -2.26055)
(0.130082 0 -2.27106)
(0.123896 0 -2.26771)
(0.12151 0 -2.25177)
(0.124377 0 -2.22552)
(0.129455 0 -2.19333)
(0.130061 0 -2.15248)
(0.121751 0 -2.09154)
(0.103817 0 -1.99711)
(0.0724546 0 -1.86071)
(0.0228417 0 -1.68449)
(-0.029084 0 -1.47656)
(-0.0646451 0 -1.18099)
(-0.101453 0 -0.723203)
(-0.131338 0 -0.269678)
(-0.154692 0 0.121808)
(-0.171579 0 0.4066)
(-0.182982 0 0.573942)
(-0.19057 0 0.642416)
(-0.195779 0 0.645258)
(-0.199528 0 0.614051)
(-0.202318 0 0.570654)
(-0.204396 0 0.526827)
(-0.205862 0 0.487012)
(-0.206614 0 0.450667)
(-0.206188 0 0.412952)
(-0.203776 0 0.365274)
(-0.198787 0 0.298696)
(-0.191866 0 0.211202)
(-0.185395 0 0.114069)
(-0.181727 0 0.0291328)
(-0.0860875 0 0.471682)
(-0.0893607 0 0.535124)
(-0.0885231 0 0.58968)
(-0.0832375 0 0.627326)
(-0.0747516 0 0.654748)
(-0.0631269 0 0.678997)
(-0.0510589 0 0.699681)
(-0.0360224 0 0.705806)
(-0.017844 0 0.643832)
(0.0159157 0 0.388901)
(0.0650104 0 -0.172628)
(0.0951989 0 -0.898487)
(0.131414 0 -1.53428)
(0.158653 0 -1.89411)
(0.144063 0 -2.03421)
(0.122238 0 -2.09417)
(0.113621 0 -2.14841)
(0.113759 0 -2.19516)
(0.112846 0 -2.23198)
(0.109769 0 -2.25705)
(0.108908 0 -2.26855)
(0.111975 0 -2.2681)
(0.119583 0 -2.25625)
(0.130754 0 -2.2332)
(0.142003 0 -2.19942)
(0.148451 0 -2.1515)
(0.146361 0 -2.08041)
(0.134514 0 -1.97386)
(0.113933 0 -1.82339)
(0.0893104 0 -1.63438)
(0.044997 0 -1.41823)
(-0.00477102 0 -1.12513)
(-0.0599829 0 -0.662857)
(-0.111399 0 -0.218949)
(-0.147303 0 0.161463)
(-0.172772 0 0.436203)
(-0.190356 0 0.595032)
(-0.202183 0 0.657347)
(-0.210188 0 0.656128)
(-0.215764 0 0.622279)
(-0.219774 0 0.577037)
(-0.222697 0 0.531708)
(-0.224726 0 0.490252)
(-0.225711 0 0.451309)
(-0.225089 0 0.409032)
(-0.222123 0 0.354727)
(-0.21664 0 0.28165)
(-0.209805 0 0.191916)
(-0.204048 0 0.0996387)
(-0.201173 0 0.0245373)
(-0.0858887 0 0.474592)
(-0.0900179 0 0.53624)
(-0.0902383 0 0.58804)
(-0.0863781 0 0.62323)
(-0.0798336 0 0.648884)
(-0.0709233 0 0.672)
(-0.0621677 0 0.6921)
(-0.0515128 0 0.696486)
(-0.0370595 0 0.627977)
(-0.00639455 0 0.363608)
(0.0397389 0 -0.200742)
(0.0783919 0 -0.926172)
(0.13087 0 -1.55555)
(0.137323 0 -1.89018)
(0.104585 0 -2.01802)
(0.0846361 0 -2.08515)
(0.0814337 0 -2.14667)
(0.080813 0 -2.19507)
(0.0793024 0 -2.23131)
(0.0802763 0 -2.25791)
(0.0870878 0 -2.27301)
(0.0991837 0 -2.27693)
(0.116048 0 -2.26907)
(0.135281 0 -2.24781)
(0.153134 0 -2.21164)
(0.165337 0 -2.15663)
(0.167957 0 -2.07475)
(0.157908 0 -1.95517)
(0.132327 0 -1.79053)
(0.0947779 0 -1.59085)
(0.0560772 0 -1.35243)
(-8.1315e-05 0 -1.04647)
(-0.0599707 0 -0.579907)
(-0.110871 0 -0.147737)
(-0.153089 0 0.216873)
(-0.184732 0 0.477584)
(-0.206921 0 0.624588)
(-0.221705 0 0.678027)
(-0.231424 0 0.670759)
(-0.237923 0 0.632957)
(-0.242417 0 0.585054)
(-0.245582 0 0.537656)
(-0.247645 0 0.493941)
(-0.248356 0 0.451502)
(-0.247052 0 0.403663)
(-0.243145 0 0.342364)
(-0.236921 0 0.263711)
(-0.229945 0 0.173462)
(-0.224551 0 0.0869225)
(-0.222181 0 0.0207367)
(-0.0863424 0 0.478045)
(-0.0913364 0 0.538007)
(-0.0926386 0 0.587245)
(-0.0902403 0 0.620279)
(-0.0856694 0 0.644561)
(-0.0794554 0 0.66702)
(-0.0738726 0 0.68695)
(-0.0671229 0 0.689715)
(-0.0557286 0 0.614264)
(-0.0266058 0 0.338949)
(0.0183032 0 -0.230152)
(0.0643655 0 -0.961369)
(0.122378 0 -1.57309)
(0.108618 0 -1.87498)
(0.0665878 0 -1.99822)
(0.0513149 0 -2.07928)
(0.0494225 0 -2.14548)
(0.0465965 0 -2.1942)
(0.0454375 0 -2.23198)
(0.0511842 0 -2.26305)
(0.0653705 0 -2.28395)
(0.0853819 0 -2.29326)
(0.110014 0 -2.2893)
(0.136028 0 -2.26909)
(0.159661 0 -2.23005)
(0.177202 0 -2.16755)
(0.184426 0 -2.07308)
(0.17704 0 -1.93628)
(0.150829 0 -1.75127)
(0.110328 0 -1.53869)
(0.0675474 0 -1.28967)
(-0.00268399 0 -0.952899)
(-0.0734599 0 -0.501249)
(-0.12577 0 -0.068641)
(-0.174033 0 0.282049)
(-0.210224 0 0.526889)
(-0.23509 0 0.659465)
(-0.25107 0 0.701744)
(-0.261005 0 0.686822)
(-0.267215 0 0.644117)
(-0.271233 0 0.593049)
(-0.273863 0 0.543219)
(-0.275277 0 0.496681)
(-0.275053 0 0.449839)
(-0.272462 0 0.395567)
(-0.267165 0 0.327225)
(-0.259935 0 0.244177)
(-0.252626 0 0.155109)
(-0.247393 0 0.0751778)
(-0.245409 0 0.0174387)
(-0.0873107 0 0.482038)
(-0.0931421 0 0.54042)
(-0.0955147 0 0.587302)
(-0.0945859 0 0.618489)
(-0.0919981 0 0.64178)
(-0.0884612 0 0.663994)
(-0.0859737 0 0.684051)
(-0.0828855 0 0.685107)
(-0.0745806 0 0.602185)
(-0.0466165 0 0.313772)
(-0.00168484 0 -0.260748)
(0.0520315 0 -1.00013)
(0.103187 0 -1.58358)
(0.0678659 0 -1.85144)
(0.0305565 0 -1.98028)
(0.0226004 0 -2.07502)
(0.017373 0 -2.14313)
(0.0119968 0 -2.19265)
(0.012004 0 -2.23447)
(0.022452 0 -2.27226)
(0.0427455 0 -2.30044)
(0.0688584 0 -2.31558)
(0.0992093 0 -2.31532)
(0.129901 0 -2.29561)
(0.157455 0 -2.2538)
(0.179492 0 -2.18432)
(0.192195 0 -2.07665)
(0.19038 0 -1.92084)
(0.172189 0 -1.71553)
(0.14522 0 -1.49793)
(0.0979087 0 -1.20945)
(0.0139288 0 -0.846003)
(-0.0745804 0 -0.408663)
(-0.147734 0 0.0200958)
(-0.206778 0 0.355386)
(-0.248185 0 0.581183)
(-0.274714 0 0.696332)
(-0.290413 0 0.725304)
(-0.299114 0 0.701517)
(-0.303815 0 0.653417)
(-0.306375 0 0.599063)
(-0.307647 0 0.546646)
(-0.307639 0 0.496753)
(-0.305722 0 0.444626)
(-0.30118 0 0.383292)
(-0.294054 0 0.308337)
(-0.285621 0 0.222494)
(-0.277903 0 0.136463)
(-0.272778 0 0.0640929)
(-0.271149 0 0.014547)
(-0.0886457 0 0.486543)
(-0.0952538 0 0.543454)
(-0.0986545 0 0.588197)
(-0.0991801 0 0.617857)
(-0.098576 0 0.640538)
(-0.0977193 0 0.662897)
(-0.0983847 0 0.683375)
(-0.09902 0 0.682689)
(-0.0943691 0 0.591819)
(-0.068109 0 0.288567)
(-0.0224115 0 -0.29392)
(0.0374275 0 -1.03733)
(0.0678216 0 -1.58432)
(0.0231915 0 -1.82479)
(0.00356757 0 -1.96864)
(-0.00487545 0 -2.06993)
(-0.0151523 0 -2.13831)
(-0.0226098 0 -2.19066)
(-0.0211733 0 -2.23885)
(-0.00717941 0 -2.28489)
(0.0172049 0 -2.32095)
(0.0472517 0 -2.34201)
(0.0808819 0 -2.34478)
(0.113364 0 -2.32474)
(0.14157 0 -2.28065)
(0.165581 0 -2.20596)
(0.1826 0 -2.08549)
(0.183244 0 -1.90963)
(0.166731 0 -1.68487)
(0.124109 0 -1.4559)
(0.0751672 0 -1.11434)
(-0.00792182 0 -0.728167)
(-0.10835 0 -0.280718)
(-0.19452 0 0.12825)
(-0.258472 0 0.438629)
(-0.301429 0 0.63865)
(-0.326653 0 0.732124)
(-0.339689 0 0.745534)
(-0.345342 0 0.712042)
(-0.347197 0 0.658525)
(-0.347285 0 0.601112)
(-0.346332 0 0.546071)
(-0.344052 0 0.49225)
(-0.33962 0 0.434027)
(-0.33249 0 0.365433)
(-0.323218 0 0.28497)
(-0.313555 0 0.19849)
(-0.305521 0 0.117567)
(-0.300581 0 0.0536946)
(-0.299312 0 0.0120523)
(-0.0901903 0 0.491511)
(-0.0974832 0 0.547061)
(-0.101841 0 0.589902)
(-0.103783 0 0.618372)
(-0.105156 0 0.640845)
(-0.107005 0 0.663768)
(-0.111002 0 0.685057)
(-0.11568 0 0.682813)
(-0.115268 0 0.583563)
(-0.0918314 0 0.264277)
(-0.0455945 0 -0.33015)
(0.0176964 0 -1.06648)
(0.0219382 0 -1.57515)
(-0.00619646 0 -1.80635)
(-0.0129811 0 -1.9589)
(-0.0333317 0 -2.06118)
(-0.048596 0 -2.13079)
(-0.0576626 0 -2.18835)
(-0.0553051 0 -2.24453)
(-0.039379 0 -2.29962)
(-0.0131549 0 -2.34379)
(0.0186063 0 -2.37051)
(0.0532442 0 -2.37494)
(0.0841117 0 -2.35241)
(0.10825 0 -2.30636)
(0.12988 0 -2.22961)
(0.14884 0 -2.09675)
(0.149367 0 -1.89759)
(0.131361 0 -1.64796)
(0.073588 0 -1.39313)
(0.0146363 0 -1.01906)
(-0.0780522 0 -0.594832)
(-0.187616 0 -0.135171)
(-0.273847 0 0.245524)
(-0.334182 0 0.523596)
(-0.372102 0 0.692612)
(-0.391179 0 0.761373)
(-0.398203 0 0.758172)
(-0.398598 0 0.715201)
(-0.396151 0 0.657019)
(-0.39271 0 0.597165)
(-0.388599 0 0.539502)
(-0.383127 0 0.481133)
(-0.375377 0 0.416266)
(-0.365177 0 0.340934)
(-0.353692 0 0.256953)
(-0.343013 0 0.172566)
(-0.334924 0 0.0988875)
(-0.330317 0 0.044202)
(-0.32939 0 0.00996033)
(-0.0917783 0 0.496873)
(-0.0996348 0 0.551179)
(-0.10485 0 0.592371)
(-0.108147 0 0.62001)
(-0.111473 0 0.642711)
(-0.116063 0 0.666691)
(-0.123634 0 0.689309)
(-0.132826 0 0.685848)
(-0.136923 0 0.577647)
(-0.11665 0 0.241514)
(-0.0705393 0 -0.367653)
(-0.00453413 0 -1.08842)
(-0.0146669 0 -1.56255)
(-0.0303583 0 -1.79985)
(-0.0390831 0 -1.94565)
(-0.0665647 0 -2.04829)
(-0.0840511 0 -2.12149)
(-0.0939705 0 -2.18589)
(-0.0914445 0 -2.25067)
(-0.0755135 0 -2.31484)
(-0.049624 0 -2.36725)
(-0.0179789 0 -2.39943)
(0.0160049 0 -2.40358)
(0.042241 0 -2.37441)
(0.0563303 0 -2.32662)
(0.0691466 0 -2.25253)
(0.0876021 0 -2.10938)
(0.0873974 0 -1.8853)
(0.0672754 0 -1.60217)
(-0.00541606 0 -1.3102)
(-0.0882402 0 -0.907302)
(-0.193391 0 -0.444249)
(-0.303203 0 0.00551063)
(-0.378415 0 0.353545)
(-0.42862 0 0.596306)
(-0.455494 0 0.732718)
(-0.464217 0 0.776776)
(-0.462489 0 0.758272)
(-0.455951 0 0.707696)
(-0.448128 0 0.64655)
(-0.440307 0 0.585195)
(-0.432185 0 0.524874)
(-0.422688 0 0.461431)
(-0.41104 0 0.389988)
(-0.397652 0 0.309489)
(-0.384255 0 0.224919)
(-0.373016 0 0.145694)
(-0.365217 0 0.0811138)
(-0.361079 0 0.0358263)
(-0.360426 0 0.00823675)
(-0.0932358 0 0.50254)
(-0.101508 0 0.555729)
(-0.107455 0 0.595543)
(-0.112012 0 0.622732)
(-0.11724 0 0.646135)
(-0.124599 0 0.671764)
(-0.135994 0 0.696378)
(-0.150258 0 0.692122)
(-0.159448 0 0.57435)
(-0.14345 0 0.220483)
(-0.0966503 0 -0.405629)
(-0.0365186 0 -1.10717)
(-0.0535703 0 -1.55245)
(-0.0713501 0 -1.79339)
(-0.0854221 0 -1.93292)
(-0.10482 0 -2.03481)
(-0.121746 0 -2.11189)
(-0.131788 0 -2.18324)
(-0.129962 0 -2.25637)
(-0.115933 0 -2.32917)
(-0.0928 0 -2.38967)
(-0.063292 0 -2.42801)
(-0.0311601 0 -2.4301)
(-0.0118854 0 -2.38691)
(-0.0167226 0 -2.33475)
(-0.0251254 0 -2.26491)
(-0.0170479 0 -2.11687)
(-0.0204038 0 -1.86402)
(-0.0464794 0 -1.54306)
(-0.127091 0 -1.19561)
(-0.231826 0 -0.767088)
(-0.339814 0 -0.288674)
(-0.43668 0 0.127771)
(-0.495079 0 0.440074)
(-0.530056 0 0.64654)
(-0.541944 0 0.751183)
(-0.538185 0 0.773106)
(-0.526623 0 0.742626)
(-0.512693 0 0.687565)
(-0.499205 0 0.625631)
(-0.486599 0 0.563638)
(-0.473908 0 0.500495)
(-0.459917 0 0.431817)
(-0.444297 0 0.354868)
(-0.428135 0 0.271938)
(-0.413507 0 0.190347)
(-0.402302 0 0.119167)
(-0.39511 0 0.0648662)
(-0.391504 0 0.028616)
(-0.390999 0 0.00679186)
(-0.0943841 0 0.508405)
(-0.102898 0 0.560613)
(-0.109425 0 0.599338)
(-0.115111 0 0.626477)
(-0.122142 0 0.6511)
(-0.132253 0 0.679077)
(-0.14766 0 0.706515)
(-0.167469 0 0.702041)
(-0.182587 0 0.574414)
(-0.171938 0 0.200983)
(-0.123248 0 -0.443366)
(-0.0724545 0 -1.11996)
(-0.0917952 0 -1.54182)
(-0.112968 0 -1.77874)
(-0.127928 0 -1.92439)
(-0.142621 0 -2.02315)
(-0.159973 0 -2.10253)
(-0.17034 0 -2.18009)
(-0.170216 0 -2.26065)
(-0.160018 0 -2.34104)
(-0.142451 0 -2.40889)
(-0.118923 0 -2.45438)
(-0.0925083 0 -2.45193)
(-0.0813887 0 -2.38271)
(-0.120862 0 -2.30734)
(-0.165906 0 -2.24812)
(-0.163703 0 -2.1183)
(-0.167672 0 -1.83302)
(-0.208024 0 -1.47043)
(-0.293547 0 -1.06569)
(-0.400602 0 -0.619457)
(-0.500922 0 -0.154663)
(-0.570893 0 0.222807)
(-0.609727 0 0.498016)
(-0.625862 0 0.669092)
(-0.621381 0 0.745011)
(-0.605076 0 0.749178)
(-0.584269 0 0.71114)
(-0.56365 0 0.655003)
(-0.544923 0 0.594114)
(-0.527587 0 0.531845)
(-0.510234 0 0.465662)
(-0.491887 0 0.392307)
(-0.472893 0 0.312089)
(-0.454896 0 0.230311)
(-0.439943 0 0.155239)
(-0.429334 0 0.0942099)
(-0.422938 0 0.0504633)
(-0.419846 0 0.0224193)
(-0.419332 0 0.00550491)
(-0.0950435 0 0.514343)
(-0.103603 0 0.565716)
(-0.11053 0 0.603654)
(-0.117171 0 0.631156)
(-0.125841 0 0.657548)
(-0.138589 0 0.688657)
(-0.158018 0 0.719884)
(-0.183504 0 0.715903)
(-0.204816 0 0.578242)
(-0.199051 0 0.182831)
(-0.151555 0 -0.477238)
(-0.112936 0 -1.12969)
(-0.12539 0 -1.52932)
(-0.140922 0 -1.76206)
(-0.15871 0 -1.91491)
(-0.177538 0 -2.01136)
(-0.196888 0 -2.09271)
(-0.208298 0 -2.17589)
(-0.210813 0 -2.26261)
(-0.20634 0 -2.34843)
(-0.196077 0 -2.42227)
(-0.183976 0 -2.4718)
(-0.175783 0 -2.4589)
(-0.18606 0 -2.35675)
(-0.229214 0 -2.25967)
(-0.269573 0 -2.22118)
(-0.288928 0 -2.11347)
(-0.31904 0 -1.79038)
(-0.37741 0 -1.3837)
(-0.466015 0 -0.941202)
(-0.561836 0 -0.486339)
(-0.640083 0 -0.0557604)
(-0.686606 0 0.28557)
(-0.706323 0 0.524719)
(-0.703864 0 0.663266)
(-0.684761 0 0.715455)
(-0.657968 0 0.707369)
(-0.629942 0 0.666331)
(-0.604168 0 0.611902)
(-0.581119 0 0.552992)
(-0.559557 0 0.490269)
(-0.538049 0 0.421112)
(-0.516195 0 0.344602)
(-0.495034 0 0.264265)
(-0.476438 0 0.187352)
(-0.462047 0 0.121557)
(-0.452419 0 0.0716293)
(-0.446867 0 0.0378738)
(-0.444223 0 0.0169668)
(-0.443554 0 0.00426825)
(-0.0950401 0 0.520214)
(-0.103431 0 0.570907)
(-0.110549 0 0.608363)
(-0.117922 0 0.636637)
(-0.127987 0 0.665358)
(-0.143119 0 0.70042)
(-0.166317 0 0.736433)
(-0.19714 0 0.733583)
(-0.223744 0 0.585451)
(-0.220489 0 0.166558)
(-0.173936 0 -0.50586)
(-0.14511 0 -1.13935)
(-0.150178 0 -1.52155)
(-0.162417 0 -1.74873)
(-0.186046 0 -1.9007)
(-0.210653 0 -1.99708)
(-0.231796 0 -2.08181)
(-0.244533 0 -2.17037)
(-0.249843 0 -2.26181)
(-0.250205 0 -2.35112)
(-0.247841 0 -2.428)
(-0.249985 0 -2.47433)
(-0.257368 0 -2.45284)
(-0.269197 0 -2.33318)
(-0.299259 0 -2.22026)
(-0.344118 0 -2.18593)