/*--------------------------------*- C++ -*----------------------------------*\
  =========                 |
  \\      /  F ield         | OpenFOAM: The Open Source CFD Toolbox
   \\    /   O peration     | Website:  https://openfoam.org
    \\  /    A nd           | Version:  9
     \\/     M anipulation  |
\*---------------------------------------------------------------------------*/
FoamFile
{
    format      ascii;
    class       surfaceVectorField;
    location    "0.14";
    object      Uf;
}
// * * * * * * * * * * * * * * * * * * * * * * * * * * * * * * * * * * * * * //

dimensions      [0 1 -1 0 0 0 0];

internalField   nonuniform List<vector> 
9850
(
(-0.222811 0 0.469808)
(-0.207213 0 0.432023)
(-0.238864 0 0.560786)
(-0.221526 0 0.516535)
(-0.254277 0 0.655035)
(-0.235955 0 0.614093)
(-0.267397 0 0.742294)
(-0.247814 0 0.703588)
(-0.277877 0 0.829129)
(-0.256295 0 0.786399)
(-0.284539 0 0.923272)
(-0.26111 0 0.874331)
(-0.28503 0 1.02707)
(-0.259963 0 0.97031)
(-0.279633 0 1.14221)
(-0.251963 0 1.07653)
(-0.25569 0 1.20843)
(-0.231572 0 1.19013)
(-0.144948 0 0.995736)
(-0.162485 0 1.16808)
(0.0488998 0 0.13911)
(-0.0849481 0 0.704892)
(0.246914 0 -1.12874)
(0.42507 0 -0.571158)
(0.0403709 0 -1.98499)
(0.115388 0 -1.66128)
(-0.0105782 0 -2.2772)
(0.0212511 0 -2.18571)
(-0.0388831 0 -2.35014)
(-0.0232521 0 -2.3308)
(-0.0534522 0 -2.35502)
(-0.0510533 0 -2.35286)
(-0.0573182 0 -2.35577)
(-0.0574532 0 -2.35164)
(-0.0528784 0 -2.36765)
(-0.0548076 0 -2.36085)
(-0.0429699 0 -2.38581)
(-0.0469749 0 -2.37917)
(-0.0289679 0 -2.40305)
(-0.0360692 0 -2.39947)
(-0.0149303 0 -2.41118)
(-0.0238627 0 -2.41418)
(-0.000562588 0 -2.40963)
(-0.0112687 0 -2.41841)
(0.0123612 0 -2.39842)
(0.001042 0 -2.41155)
(0.0221446 0 -2.38008)
(0.0112765 0 -2.39493)
(0.0282001 0 -2.35837)
(0.0184996 0 -2.3726)
(0.0298333 0 -2.33611)
(0.0223149 0 -2.34819)
(0.0252182 0 -2.31146)
(0.0213699 0 -2.32249)
(0.0119515 0 -2.2736)
(0.0121742 0 -2.28941)
(-0.00978074 0 -2.19703)
(-0.00920106 0 -2.23441)
(-0.0442851 0 -2.03171)
(-0.0351766 0 -2.12044)
(-0.0917507 0 -1.79634)
(-0.0800111 0 -1.87978)
(-0.00987645 0 -1.23861)
(-0.113151 0 -1.69598)
(0.0718149 0 -0.456012)
(0.00718263 0 -0.867006)
(0.159288 0 0.194994)
(0.0528202 0 -0.162731)
(0.239296 0 0.681182)
(0.140785 0 0.426975)
(0.296791 0 0.956824)
(0.212765 0 0.823501)
(0.328728 0 1.04472)
(0.257191 0 1.00984)
(0.341281 0 1.01055)
(0.280088 0 1.03379)
(0.343351 0 0.92189)
(0.289496 0 0.967523)
(0.341636 0 0.823854)
(0.292371 0 0.870827)
(0.339426 0 0.736525)
(0.293081 0 0.777011)
(0.337613 0 0.663775)
(0.293409 0 0.697335)
(0.336049 0 0.602887)
(0.293646 0 0.631502)
(0.334405 0 0.550263)
(0.293603 0 0.575835)
(0.332475 0 0.503418)
(0.293098 0 0.527107)
(0.3302 0 0.461023)
(0.292065 0 0.483392)
(0.327603 0 0.422394)
(0.290545 0 0.443721)
(0.324724 0 0.387105)
(0.288558 0 0.407569)
(0.32153 0 0.355445)
(0.286392 0 0.374711)
(0.281636 0 0.346646)
(-0.2064 0 0.478764)
(-0.192393 0 0.439712)
(-0.219046 0 0.569917)
(-0.203952 0 0.524966)
(-0.229973 0 0.662794)
(-0.214635 0 0.621379)
(-0.237426 0 0.74792)
(-0.221699 0 0.708556)
(-0.240695 0 0.831968)
(-0.224305 0 0.788578)
(-0.238329 0 0.922027)
(-0.221766 0 0.872754)
(-0.22763 0 1.0206)
(-0.211123 0 0.963177)
(-0.205796 0 1.12557)
(-0.192124 0 1.06198)
(-0.161903 0 1.15536)
(-0.161427 0 1.16087)
(-0.0396479 0 0.886309)
(-0.0532907 0 1.08658)
(0.187813 0 -0.00787442)
(0.00603879 0 0.553251)
(0.42579 0 -1.11794)
(0.563547 0 -0.729809)
(0.113173 0 -1.87129)
(0.256146 0 -1.45287)
(0.00680837 0 -2.24133)
(0.0606124 0 -2.1148)
(-0.0366595 0 -2.33371)
(-0.00730571 0 -2.30183)
(-0.0537476 0 -2.34937)
(-0.0481432 0 -2.34147)
(-0.0554512 0 -2.35675)
(-0.0540505 0 -2.3505)
(-0.0493283 0 -2.37255)
(-0.0488381 0 -2.36493)
(-0.0405312 0 -2.39309)
(-0.0405912 0 -2.38503)
(-0.0301518 0 -2.41237)
(-0.0324655 0 -2.40639)
(-0.020001 0 -2.42183)
(-0.0248551 0 -2.42246)
(-0.00924702 0 -2.42051)
(-0.0170753 0 -2.42761)
(0.00047172 0 -2.40814)
(-0.00915206 0 -2.42027)
(0.00809786 0 -2.3876)
(-0.0026002 0 -2.40211)
(0.0129184 0 -2.3627)
(0.00147559 0 -2.37736)
(0.0138641 0 -2.33499)
(0.00240788 0 -2.34917)
(0.00799358 0 -2.30098)
(-0.00149661 0 -2.31611)
(-0.00823352 0 -2.25041)
(-0.0130287 0 -2.27091)
(-0.0371272 0 -2.15589)
(-0.0357525 0 -2.19985)
(-0.084234 0 -1.96698)
(-0.0674808 0 -2.06135)
(-0.10441 0 -1.78151)
(-0.120069 0 -1.85323)
(-0.0784982 0 -1.30529)
(-0.133997 0 -1.73174)
(-0.02549 0 -0.554695)
(-0.0850704 0 -0.943758)
(0.0420715 0 0.0834927)
(-0.0474741 0 -0.265345)
(0.112064 0 0.578013)
(0.0257692 0 0.315464)
(0.168466 0 0.880449)
(0.090433 0 0.729242)
(0.206281 0 0.999188)
(0.136716 0 0.943546)
(0.227899 0 0.989054)
(0.166915 0 0.994033)
(0.238875 0 0.914176)
(0.185013 0 0.94635)
(0.244357 0 0.821869)
(0.195595 0 0.859736)
(0.247527 0 0.736094)
(0.202316 0 0.770281)
(0.249759 0 0.663676)
(0.207152 0 0.692365)
(0.251397 0 0.603294)
(0.210856 0 0.627677)
(0.252417 0 0.551663)
(0.213623 0 0.573334)
(0.252767 0 0.506153)
(0.215493 0 0.526208)
(0.252452 0 0.465226)
(0.216505 0 0.48424)
(0.251527 0 0.428088)
(0.216743 0 0.446336)
(0.250046 0 0.394422)
(0.216271 0 0.41196)
(0.247969 0 0.365257)
(0.215287 0 0.381174)
(0.211942 0 0.356505)
(-0.190394 0 0.485971)
(-0.177995 0 0.445995)
(-0.199901 0 0.576537)
(-0.187065 0 0.531303)
(-0.206735 0 0.66732)
(-0.194335 0 0.625935)
(-0.209134 0 0.749483)
(-0.197128 0 0.710155)
(-0.206131 0 0.829752)
(-0.194609 0 0.786577)
(-0.196158 0 0.914586)
(-0.185998 0 0.866105)
(-0.17676 0 1.0057)
(-0.167908 0 0.950245)
(-0.142107 0 1.09821)
(-0.13897 0 1.03888)
(-0.0814416 0 1.09431)
(-0.104435 0 1.12043)
(0.0427823 0 0.763595)
(0.0279199 0 1.00376)
(0.27771 0 -0.153037)
(0.0733841 0 0.396633)
(0.466191 0 -1.04799)
(0.541902 0 -0.855463)
(0.217595 0 -1.68436)
(0.406169 0 -1.28714)
(0.0500357 0 -2.17178)
(0.125884 0 -2.0031)
(-0.0216849 0 -2.30878)
(0.0217491 0 -2.25401)
(-0.0466911 0 -2.34247)
(-0.0347013 0 -2.3248)
(-0.048276 0 -2.35883)
(-0.0424242 0 -2.34944)
(-0.0405254 0 -2.37779)
(-0.0361779 0 -2.3701)
(-0.0328446 0 -2.39873)
(-0.0278407 0 -2.39015)
(-0.0268305 0 -2.41845)
(-0.0230172 0 -2.4104)
(-0.0219189 0 -2.42865)
(-0.0211308 0 -2.42647)
(-0.0166082 0 -2.4275)
(-0.019811 0 -2.43215)
(-0.0117983 0 -2.41421)
(-0.0180438 0 -2.42459)
(-0.00884744 0 -2.39188)
(-0.0168084 0 -2.40489)
(-0.00870115 0 -2.36406)
(-0.0182213 0 -2.3775)
(-0.0126069 0 -2.33078)
(-0.0243106 0 -2.34512)
(-0.0225848 0 -2.28682)
(-0.0358783 0 -2.30527)
(-0.0398743 0 -2.22015)
(-0.0507657 0 -2.2512)
(-0.0723176 0 -2.10106)
(-0.0675716 0 -2.16105)
(-0.133681 0 -1.93592)
(-0.0980981 0 -1.98437)
(-0.110875 0 -1.77613)
(-0.136736 0 -1.88324)
(-0.141485 0 -1.32364)
(-0.13848 0 -1.68949)
(-0.112194 0 -0.624611)
(-0.152568 0 -0.986169)
(-0.0571592 0 -0.0117499)
(-0.120413 0 -0.348934)
(0.00250545 0 0.482026)
(-0.0644994 0 0.220406)
(0.0548724 0 0.801011)
(-0.0106605 0 0.641725)
(0.0952952 0 0.941738)
(0.0337992 0 0.872684)
(0.123547 0 0.951554)
(0.067817 0 0.942082)
(0.142034 0 0.890785)
(0.0920012 0 0.910691)
(0.154111 0 0.806686)
(0.108613 0 0.835301)
(0.162448 0 0.725185)
(0.120375 0 0.752586)
(0.168613 0 0.655187)
(0.129115 0 0.678641)
(0.173323 0 0.596688)
(0.135844 0 0.616677)
(0.176858 0 0.546943)
(0.14106 0 0.564675)
(0.179341 0 0.503417)
(0.145006 0 0.519829)
(0.180867 0 0.464514)
(0.147832 0 0.480126)
(0.181534 0 0.429412)
(0.149672 0 0.444454)
(0.181405 0 0.39797)
(0.150632 0 0.412341)
(0.180435 0 0.371816)
(0.15085 0 0.384195)
(0.149026 0 0.363203)
(-0.175061 0 0.491449)
(-0.164273 0 0.450969)
(-0.181768 0 0.580851)
(-0.171135 0 0.535774)
(-0.184986 0 0.668974)
(-0.175396 0 0.628081)
(-0.183026 0 0.747552)
(-0.174529 0 0.708848)
(-0.17481 0 0.823355)
(-0.167698 0 0.7811)
(-0.158673 0 0.902407)
(-0.154217 0 0.855347)
(-0.132754 0 0.98471)
(-0.13095 0 0.932966)
(-0.0899185 0 1.06254)
(-0.0933974 0 1.01032)
(-0.0165116 0 1.03117)
(-0.0582129 0 1.07149)
(0.100026 0 0.645744)
(0.0799334 0 0.926068)
(0.305852 0 -0.285906)
(0.125488 0 0.259415)
(0.415903 0 -1.07077)
(0.431794 0 -0.92883)
(0.379582 0 -1.58669)
(0.559279 0 -1.26292)
(0.107204 0 -2.08108)
(0.226196 0 -1.82151)
(0.0056628 0 -2.27362)
(0.062664 0 -2.18632)
(-0.02794 0 -2.33296)
(-0.00277277 0 -2.3024)
(-0.0317776 0 -2.36149)
(-0.0152316 0 -2.34689)
(-0.0238338 0 -2.38319)
(-0.0133223 0 -2.37539)
(-0.0181159 0 -2.40231)
(-0.00734597 0 -2.39396)
(-0.0174978 0 -2.42031)
(-0.00685712 0 -2.41081)
(-0.0192315 0 -2.43021)
(-0.0117364 0 -2.42506)
(-0.0210319 0 -2.42901)
(-0.0183235 0 -2.43061)
(-0.0226824 0 -2.41463)
(-0.024118 0 -2.42311)
(-0.0259645 0 -2.38957)
(-0.0288294 0 -2.4018)
(-0.0334549 0 -2.35729)
(-0.0360349 0 -2.3701)
(-0.0466257 0 -2.31798)
(-0.0507506 0 -2.33148)
(-0.0633105 0 -2.26727)
(-0.0717033 0 -2.28713)
(-0.0821923 0 -2.19212)
(-0.0878249 0 -2.22967)
(-0.0948342 0 -2.04842)
(-0.0986502 0 -2.14593)
(-0.141719 0 -1.93282)
(-0.122228 0 -1.92555)
(-0.117029 0 -1.78467)
(-0.129477 0 -1.91573)
(-0.164221 0 -1.32132)
(-0.145278 0 -1.62435)
(-0.157803 0 -0.680092)
(-0.184209 0 -0.995463)
(-0.122857 0 -0.0920477)
(-0.161509 0 -0.40201)
(-0.0791619 0 0.397034)
(-0.12472 0 0.150791)
(-0.0344042 0 0.723211)
(-0.0844928 0 0.566926)
(0.00485354 0 0.877642)
(-0.045323 0 0.803863)
(0.0357922 0 0.902579)
(-0.0113914 0 0.88519)
(0.0587545 0 0.854857)
(0.015357 0 0.866398)
(0.0753568 0 0.780256)
(0.0353165 0 0.801708)
(0.0875129 0 0.705027)
(0.0502219 0 0.726784)
(0.0967016 0 0.639204)
(0.0615496 0 0.658183)
(0.103829 0 0.583828)
(0.0703699 0 0.600031)
(0.109379 0 0.53678)
(0.0773405 0 0.551078)
(0.113617 0 0.495785)
(0.0828381 0 0.508937)
(0.116718 0 0.459329)
(0.0871016 0 0.471765)
(0.118821 0 0.426658)
(0.0903311 0 0.438506)
(0.120015 0 0.39788)
(0.0927243 0 0.408799)
(0.12025 0 0.375065)
(0.0943741 0 0.383463)
(0.094174 0 0.366055)
(-0.160659 0 0.495411)
(-0.151422 0 0.454784)
(-0.164936 0 0.583156)
(-0.156387 0 0.538625)
(-0.165077 0 0.668164)
(-0.158093 0 0.628175)
(-0.159505 0 0.742704)
(-0.154214 0 0.705133)
(-0.147171 0 0.813537)
(-0.143928 0 0.772877)
(-0.126323 0 0.886493)
(-0.126609 0 0.841449)
(-0.0955801 0 0.959716)
(-0.100176 0 0.91247)
(-0.049018 0 1.02177)
(-0.0560242 0 0.979278)
(0.0261687 0 0.968999)
(-0.0201759 0 1.02137)
(0.128043 0 0.543749)
(0.110348 0 0.858151)
(0.287589 0 -0.390492)
(0.16803 0 0.153052)
(0.397904 0 -1.15076)
(0.314457 0 -1.00237)
(0.577615 0 -1.52589)
(0.545822 0 -1.38273)
(0.18304 0 -1.93864)
(0.321864 0 -1.55846)
(0.0530531 0 -2.22071)
(0.12664 0 -2.09966)
(0.0124549 0 -2.31969)
(0.0625086 0 -2.27533)
(0.00212765 0 -2.36229)
(0.0363597 0 -2.34)
(0.00310791 0 -2.38667)
(0.0230293 0 -2.37604)
(0.0040288 0 -2.40274)
(0.0206927 0 -2.39458)
(-0.00181246 0 -2.41697)
(0.0154046 0 -2.40691)
(-0.0112254 0 -2.42538)
(0.00328935 0 -2.41738)
(-0.0213446 0 -2.42418)
(-0.0119387 0 -2.42195)
(-0.0301159 0 -2.40922)
(-0.02638 0 -2.41523)
(-0.0389937 0 -2.38064)
(-0.0372769 0 -2.39344)
(-0.05265 0 -2.34169)
(-0.0474461 0 -2.35662)
(-0.0738511 0 -2.29598)
(-0.0654992 0 -2.30951)
(-0.0980337 0 -2.24426)
(-0.0890593 0 -2.26085)
(-0.110682 0 -2.16436)
(-0.103553 0 -2.21525)
(-0.133711 0 -2.00927)
(-0.107068 0 -2.11839)
(-0.118567 0 -1.91721)
(-0.104292 0 -1.94455)
(-0.130615 0 -1.75317)
(-0.106973 0 -1.89987)
(-0.179375 0 -1.28962)
(-0.147656 0 -1.55705)
(-0.178949 0 -0.707388)
(-0.189117 0 -0.99608)
(-0.160504 0 -0.145271)
(-0.180765 0 -0.430024)
(-0.131927 0 0.33263)
(-0.161332 0 0.105262)
(-0.0972001 0 0.655462)
(-0.133617 0 0.508891)
(-0.062574 0 0.815099)
(-0.100877 0 0.743163)
(-0.0322644 0 0.849824)
(-0.0698548 0 0.829455)
(-0.00800415 0 0.812705)
(-0.043647 0 0.819602)
(0.0105536 0 0.747237)
(-0.0229699 0 0.764159)
(0.0246498 0 0.678922)
(-0.00700209 0 0.696867)
(0.0355305 0 0.618107)
(0.00535806 0 0.63396)
(0.0441101 0 0.566487)
(0.0151002 0 0.579996)
(0.0509609 0 0.522497)
(0.022894 0 0.534297)
(0.056437 0 0.484174)
(0.0291462 0 0.494867)
(0.0607882 0 0.450128)
(0.0341016 0 0.460038)
(0.0642225 0 0.419654)
(0.0379091 0 0.428796)
(0.0669226 0 0.392988)
(0.0408859 0 0.400792)
(0.0688695 0 0.372608)
(0.044504 0 0.377407)
(0.0485806 0 0.365749)
(-0.14738 0 0.498103)
(-0.139589 0 0.457631)
(-0.149631 0 0.583786)
(-0.142995 0 0.540126)
(-0.147255 0 0.665339)
(-0.142621 0 0.626591)
(-0.13881 0 0.735577)
(-0.136368 0 0.699504)
(-0.123374 0 0.801181)
(-0.123478 0 0.762586)
(-0.0992146 0 0.867898)
(-0.103209 0 0.825342)
(-0.0650373 0 0.93264)
(-0.0749983 0 0.889686)
(-0.0170996 0 0.979868)
(-0.0265998 0 0.947319)
(0.0580858 0 0.910996)
(0.0113236 0 0.971242)
(0.148609 0 0.465711)
(0.127815 0 0.797803)
(0.255521 0 -0.460849)
(0.199982 0 0.0817768)
(0.314055 0 -1.23573)
(0.232194 0 -1.04139)
(0.4195 0 -1.45841)
(0.374323 0 -1.45303)
(0.241774 0 -1.76851)
(0.325707 0 -1.43998)
(0.145336 0 -2.16284)
(0.216965 0 -2.03537)
(0.0850059 0 -2.29807)
(0.15604 0 -2.23511)
(0.0546635 0 -2.35492)
(0.109064 0 -2.31977)
(0.0407251 0 -2.38434)
(0.0716923 0 -2.36675)
(0.0326055 0 -2.39859)
(0.0546001 0 -2.38916)
(0.0192762 0 -2.40792)
(0.0419836 0 -2.39803)
(0.00207882 0 -2.41342)
(0.0229775 0 -2.40335)
(-0.0170853 0 -2.41222)
(-0.000307121 0 -2.40555)
(-0.0338103 0 -2.39877)
(-0.0238515 0 -2.40022)
(-0.0463935 0 -2.36936)
(-0.04267 0 -2.38159)
(-0.0595765 0 -2.32447)
(-0.0547272 0 -2.34359)
(-0.0787012 0 -2.27373)
(-0.0723195 0 -2.28969)
(-0.098638 0 -2.22591)
(-0.0949407 0 -2.23918)
(-0.0970779 0 -2.14723)
(-0.102635 0 -2.21703)
(-0.0877396 0 -2.021)
(-0.0842577 0 -2.12956)
(-0.0832768 0 -1.91631)
(-0.0729738 0 -1.95015)
(-0.119169 0 -1.69915)
(-0.0906657 0 -1.85264)
(-0.165554 0 -1.25013)
(-0.142067 0 -1.49302)
(-0.18252 0 -0.706855)
(-0.18175 0 -0.971515)
(-0.180464 0 -0.169173)
(-0.188203 0 -0.433148)
(-0.164172 0 0.289966)
(-0.181839 0 0.0793062)
(-0.138193 0 0.601717)
(-0.163425 0 0.465474)
(-0.108995 0 0.759633)
(-0.137056 0 0.691977)
(-0.0816015 0 0.799301)
(-0.11034 0 0.779082)
(-0.0585425 0 0.770073)
(-0.0866011 0 0.775123)
(-0.0402363 0 0.712515)
(-0.0671989 0 0.727118)
(-0.0259818 0 0.650733)
(-0.0518847 0 0.666612)
(-0.0148018 0 0.594901)
(-0.0398479 0 0.609068)
(-0.00590066 0 0.547094)
(-0.0302543 0 0.559207)
(0.00124589 0 0.506187)
(-0.0225214 0 0.516789)
(0.00695447 0 0.470518)
(-0.0162854 0 0.480197)
(0.0114172 0 0.438866)
(-0.0113368 0 0.448008)
(0.0147432 0 0.410721)
(-0.00767091 0 0.419391)
(0.0170431 0 0.387052)
(-0.00516276 0 0.39397)
(0.0196201 0 0.373029)
(-0.000535711 0 0.36939)
(0.0132994 0 0.317235)
(-0.135361 0 0.499756)
(-0.128884 0 0.459711)
(-0.136005 0 0.583064)
(-0.131083 0 0.540555)
(-0.131669 0 0.660931)
(-0.129104 0 0.6237)
(-0.121062 0 0.726737)
(-0.121078 0 0.692432)
(-0.103409 0 0.787048)
(-0.106389 0 0.750817)
(-0.0771129 0 0.84745)
(-0.0840162 0 0.807812)
(-0.0405 0 0.904436)
(-0.0548355 0 0.865277)
(0.00849679 0 0.938638)
(-0.00463011 0 0.914655)
(0.0814895 0 0.85719)
(0.036404 0 0.92258)
(0.16647 0 0.41016)
(0.137896 0 0.741149)
(0.228673 0 -0.497627)
(0.219452 0 0.0403081)
(0.224905 0 -1.27827)
(0.195244 0 -1.03888)
(0.334519 0 -1.42372)
(0.241034 0 -1.52611)
(0.247029 0 -1.63992)
(0.345937 0 -1.38165)
(0.251742 0 -2.0727)
(0.329858 0 -2.03851)
(0.175197 0 -2.25441)
(0.244003 0 -2.18408)
(0.120576 0 -2.33207)
(0.179187 0 -2.28336)
(0.0853592 0 -2.37218)
(0.123069 0 -2.34327)
(0.0651012 0 -2.38869)
(0.0912899 0 -2.37566)
(0.0440704 0 -2.39337)
(0.070551 0 -2.38401)
(0.0200932 0 -2.39429)
(0.0455612 0 -2.38378)
(-0.00737015 0 -2.39162)
(0.0170408 0 -2.38205)
(-0.0336069 0 -2.38101)
(-0.0124758 0 -2.37667)
(-0.0532608 0 -2.35501)
(-0.0398013 0 -2.36308)
(-0.064501 0 -2.3059)
(-0.062414 0 -2.33249)
(-0.0910608 0 -2.2531)
(-0.0841489 0 -2.26217)
(-0.0960231 0 -2.22184)
(-0.12721 0 -2.23379)
(-0.0735411 0 -2.17559)
(-0.189238 0 -2.24266)
(-0.0834487 0 -2.05408)
(-0.116958 0 -2.11771)
(-0.0747956 0 -1.89716)
(-0.0801467 0 -1.96101)
(-0.116803 0 -1.64025)
(-0.0880378 0 -1.79736)
(-0.162129 0 -1.206)
(-0.137869 0 -1.43046)
(-0.182049 0 -0.689648)
(-0.173163 0 -0.942673)
(-0.189506 0 -0.174749)
(-0.188973 0 -0.421822)
(-0.181515 0 0.262687)
(-0.190907 0 0.0665752)
(-0.162569 0 0.56026)
(-0.178861 0 0.43381)
(-0.138901 0 0.713003)
(-0.158455 0 0.650487)
(-0.11551 0 0.754549)
(-0.13657 0 0.736069)
(-0.0951633 0 0.730913)
(-0.116411 0 0.735876)
(-0.0786213 0 0.679757)
(-0.0995735 0 0.693649)
(-0.065503 0 0.623619)
(-0.0860607 0 0.63877)
(-0.0550697 0 0.572271)
(-0.0752733 0 0.585841)
(-0.0466771 0 0.52801)
(-0.066549 0 0.539608)
(-0.0398909 0 0.490076)
(-0.0594143 0 0.500165)
(-0.0344461 0 0.457092)
(-0.0535522 0 0.466207)
(-0.0301643 0 0.428003)
(-0.0487227 0 0.436466)
(-0.0268599 0 0.402077)
(-0.04487 0 0.410048)
(-0.0239845 0 0.37574)
(-0.0421381 0 0.385443)
(-0.0181498 0 0.313294)
(-0.0370399 0 0.351237)
(-0.0150722 0 0.234816)
(-0.124698 0 0.500606)
(-0.119384 0 0.461221)
(-0.124148 0 0.581313)
(-0.120723 0 0.540188)
(-0.118391 0 0.655354)
(-0.117602 0 0.619863)
(-0.106289 0 0.716691)
(-0.108365 0 0.684364)
(-0.0871931 0 0.771786)
(-0.0926068 0 0.738086)
(-0.0597187 0 0.825862)
(-0.0690054 0 0.789496)
(-0.0218462 0 0.875512)
(-0.0394626 0 0.840029)
(0.02763 0 0.89848)
(0.0103512 0 0.88167)
(0.0967258 0 0.806092)
(0.0542675 0 0.876516)
(0.17861 0 0.368517)
(0.144002 0 0.686559)
(0.216102 0 -0.505793)
(0.229146 0 0.0153132)
(0.178668 0 -1.29577)
(0.189561 0 -1.01393)
(0.241965 0 -1.48933)
(0.139779 0 -1.5683)
(0.430978 0 -1.68484)
(0.337857 0 -1.50766)
(0.332671 0 -2.04155)
(0.344602 0 -1.97297)
(0.249002 0 -2.19464)
(0.269633 0 -2.1283)
(0.175845 0 -2.28991)
(0.221863 0 -2.23459)
(0.128014 0 -2.34661)
(0.16719 0 -2.31139)
(0.098412 0 -2.37111)
(0.126378 0 -2.35592)
(0.0701907 0 -2.37365)
(0.0967726 0 -2.36519)
(0.0424431 0 -2.37024)
(0.067654 0 -2.36115)
(0.0119488 0 -2.36465)
(0.0407475 0 -2.35595)
(-0.0212912 0 -2.35507)
(0.0166214 0 -2.34683)
(-0.0499204 0 -2.33127)
(-0.0131246 0 -2.33612)
(-0.0815758 0 -2.28098)
(-0.0585683 0 -2.30122)
(-0.119673 0 -2.23414)
(-0.0865658 0 -2.2227)
(-0.258067 0 -2.2522)
(-0.0938899 0 -2.08337)
(-0.188004 0 -2.22585)
(-0.157598 0 -2.32254)
(-0.117042 0 -2.07557)
(-0.138241 0 -2.20258)
(-0.0781259 0 -1.87767)
(-0.0924716 0 -2.00983)
(-0.113456 0 -1.58625)
(-0.0940464 0 -1.75087)
(-0.15183 0 -1.15969)
(-0.135636 0 -1.37749)
(-0.177293 0 -0.663321)
(-0.16564 0 -0.905803)
(-0.190509 0 -0.169795)
(-0.185663 0 -0.401749)
(-0.188082 0 0.245722)
(-0.192239 0 0.0627068)
(-0.174751 0 0.528696)
(-0.184721 0 0.411532)
(-0.156372 0 0.675234)
(-0.169636 0 0.618266)
(-0.137513 0 0.717126)
(-0.15253 0 0.701389)
(-0.120734 0 0.69741)
(-0.136424 0 0.703513)
(-0.106848 0 0.651201)
(-0.122801 0 0.665552)
(-0.0956474 0 0.599589)
(-0.11172 0 0.614997)
(-0.0865803 0 0.55191)
(-0.102739 0 0.565653)
(-0.0791383 0 0.510587)
(-0.0953581 0 0.522228)
(-0.072961 0 0.47512)
(-0.0892183 0 0.485033)
(-0.0677951 0 0.444301)
(-0.0840647 0 0.452931)
(-0.063387 0 0.417001)
(-0.0796129 0 0.424584)
(-0.0592845 0 0.391449)
(-0.0755601 0 0.39845)
(-0.0541845 0 0.357871)
(-0.0717649 0 0.370314)
(-0.0441061 0 0.267027)
(-0.0650616 0 0.319883)
(-0.0421421 0 0.174398)
(-0.115444 0 0.500891)
(-0.111129 0 0.462358)
(-0.114099 0 0.578844)
(-0.111941 0 0.539291)
(-0.107426 0 0.649001)
(-0.108118 0 0.615414)
(-0.0944525 0 0.705903)
(-0.0981964 0 0.675715)
(-0.074646 0 0.755944)
(-0.0820193 0 0.724882)
(-0.0468797 0 0.803838)
(-0.0580867 0 0.770985)
(-0.00911802 0 0.846336)
(-0.028876 0 0.814855)
(0.0396474 0 0.859597)
(0.0187889 0 0.84916)
(0.105189 0 0.756685)
(0.0638549 0 0.832822)
(0.186435 0 0.332143)
(0.145024 0 0.632396)
(0.21517 0 -0.496854)
(0.228725 0 -0.00384378)
(0.154244 0 -1.28851)
(0.194503 0 -0.973309)
(0.167106 0 -1.57609)
(0.0899999 0 -1.57688)
(0.317677 0 -1.83812)
(0.234227 0 -1.60804)
(0.29036 0 -2.10665)
(0.276856 0 -1.95476)
(0.222643 0 -2.15983)
(0.270416 0 -2.08316)
(0.209302 0 -2.24724)
(0.268931 0 -2.22569)
(0.16337 0 -2.3116)
(0.211125 0 -2.28077)
(0.127488 0 -2.34443)
(0.155966 0 -2.332)
(0.0925404 0 -2.35)
(0.113278 0 -2.3419)
(0.0655626 0 -2.34774)
(0.0851804 0 -2.33914)
(0.0449206 0 -2.3429)
(0.0707926 0 -2.33829)
(0.0236294 0 -2.33116)
(0.0603538 0 -2.32771)
(-0.0244062 0 -2.30695)
(0.0357114 0 -2.29089)
(-0.0704306 0 -2.24852)
(-0.0291308 0 -2.25576)
(-0.0612829 0 -2.12754)
(-0.0442582 0 -2.23218)
(-0.0206065 0 -2.19011)
(-0.0110164 0 -2.12758)
(-0.0919601 0 -2.26598)
(-0.00813995 0 -2.24119)
(-0.0977112 0 -2.10888)
(-0.0874401 0 -2.1957)
(-0.0980934 0 -1.86834)
(-0.0966849 0 -2.00935)
(-0.120471 0 -1.53958)
(-0.108009 0 -1.72143)
(-0.150404 0 -1.11635)
(-0.138532 0 -1.33617)
(-0.173808 0 -0.634193)
(-0.164169 0 -0.871918)
(-0.187487 0 -0.159464)
(-0.182734 0 -0.380973)
(-0.188452 0 0.236169)
(-0.190252 0 0.0642436)
(-0.179555 0 0.505568)
(-0.185764 0 0.396664)
(-0.165854 0 0.646055)
(-0.174985 0 0.594248)
(-0.151427 0 0.687584)
(-0.162168 0 0.67486)
(-0.138434 0 0.670575)
(-0.150007 0 0.678449)
(-0.127565 0 0.628007)
(-0.139687 0 0.643561)
(-0.118689 0 0.579769)
(-0.131234 0 0.596157)
(-0.111403 0 0.534829)
(-0.124314 0 0.549431)
(-0.105339 0 0.495686)
(-0.118567 0 0.508068)
(-0.100238 0 0.46199)
(-0.113742 0 0.472535)
(-0.0958812 0 0.432491)
(-0.109657 0 0.441736)
(-0.0919263 0 0.405466)
(-0.105978 0 0.413923)
(-0.0875488 0 0.376915)
(-0.102064 0 0.386076)
(-0.0807769 0 0.33169)
(-0.0970421 0 0.350226)
(-0.0686095 0 0.224414)
(-0.0880801 0 0.282031)
(-0.0676349 0 0.129694)
(-0.107617 0 0.500837)
(-0.104132 0 0.463307)
(-0.105849 0 0.575952)
(-0.104726 0 0.538113)
(-0.098726 0 0.642234)
(-0.100605 0 0.610665)
(-0.085458 0 0.694812)
(-0.0904846 0 0.66687)
(-0.0656529 0 0.740038)
(-0.0744668 0 0.711678)
(-0.0384533 0 0.782119)
(-0.0510522 0 0.752851)
(-0.00210958 0 0.817794)
(-0.0229911 0 0.790626)
(0.0445748 0 0.822373)
(0.0210518 0 0.818037)
(0.105808 0 0.708989)
(0.0646754 0 0.792)
(0.181921 0 0.296899)
(0.137326 0 0.581653)
(0.211951 0 -0.481637)
(0.214239 0 -0.0238644)
(0.147917 0 -1.25897)
(0.195015 0 -0.930619)
(0.118052 0 -1.61787)
(0.0914573 0 -1.55697)
(0.239273 0 -1.84151)
(0.17232 0 -1.68885)
(0.258004 0 -2.04974)
(0.244568 0 -1.96725)
(0.284775 0 -2.15192)
(0.267257 0 -2.10101)
(0.283236 0 -2.24242)
(0.273144 0 -2.22467)
(0.20644 0 -2.28986)
(0.232657 0 -2.22957)
(0.141588 0 -2.32168)
(0.180031 0 -2.28877)
(0.102435 0 -2.3308)
(0.130508 0 -2.31579)
(0.0900083 0 -2.33269)
(0.104382 0 -2.329)
(0.089996 0 -2.32753)
(0.093651 0 -2.33828)
(0.0775796 0 -2.29531)
(0.0798693 0 -2.31657)
(0.0219146 0 -2.25951)
(0.0629257 0 -2.23847)
(-0.00537051 0 -2.2469)
(0.0204529 0 -2.22881)
(-0.00159566 0 -2.17388)
(0.00797655 0 -2.23609)
(0.0252658 0 -2.16281)
(0.0145091 0 -2.15678)
(-0.0294525 0 -2.19548)
(0.0211476 0 -2.1788)
(-0.0768981 0 -2.0849)
(-0.0512593 0 -2.13896)
(-0.106912 0 -1.84918)
(-0.0909497 0 -1.9717)
(-0.126874 0 -1.50689)
(-0.115617 0 -1.69516)
(-0.153306 0 -1.08062)
(-0.140165 0 -1.29968)
(-0.173928 0 -0.607925)
(-0.164064 0 -0.842059)
(-0.185351 0 -0.147961)
(-0.180316 0 -0.363624)
(-0.18705 0 0.23161)
(-0.187328 0 0.0669503)
(-0.181119 0 0.489427)
(-0.184983 0 0.386753)
(-0.171258 0 0.624584)
(-0.177621 0 0.576961)
(-0.160723 0 0.665552)
(-0.168509 0 0.655488)
(-0.151233 0 0.650435)
(-0.159882 0 0.660144)
(-0.143293 0 0.610471)
(-0.152606 0 0.627496)
(-0.136783 0 0.564635)
(-0.14666 0 0.582339)
(-0.131404 0 0.521646)
(-0.141781 0 0.537458)
(-0.126901 0 0.484065)
(-0.137709 0 0.497552)
(-0.123086 0 0.45158)
(-0.134274 0 0.463188)
(-0.119725 0 0.422585)
(-0.131321 0 0.433097)
(-0.116266 0 0.394008)
(-0.128426 0 0.404601)
(-0.111405 0 0.358752)
(-0.124567 0 0.372329)
(-0.102872 0 0.299257)
(-0.118258 0 0.324919)
(-0.0896139 0 0.183965)
(-0.107454 0 0.240782)
(-0.0906887 0 0.0956386)
(-0.101197 0 0.500652)
(-0.0983749 0 0.464238)
(-0.0993458 0 0.572904)
(-0.0990283 0 0.53688)
(-0.0921949 0 0.635387)
(-0.094969 0 0.605898)
(-0.0791494 0 0.683829)
(-0.0850846 0 0.658173)
(-0.060003 0 0.724579)
(-0.0697295 0 0.698914)
(-0.0341911 0 0.761431)
(-0.0475685 0 0.735643)
(-0.000510345 0 0.790942)
(-0.0214835 0 0.768172)
(0.0422423 0 0.787745)
(0.0177483 0 0.789535)
(0.0972698 0 0.664977)
(0.0576312 0 0.755315)
(0.1645 0 0.261755)
(0.120354 0 0.536833)
(0.197122 0 -0.473691)
(0.187246 0 -0.0456126)
(0.156485 0 -1.22847)
(0.185253 0 -0.903528)
(0.115339 0 -1.63464)
(0.10838 0 -1.52954)
(0.209872 0 -1.84311)
(0.153134 0 -1.75188)
(0.230702 0 -2.03078)
(0.228431 0 -1.98114)
(0.250253 0 -2.17307)
(0.252507 0 -2.11404)
(0.23215 0 -2.23554)
(0.23712 0 -2.2126)
(0.213263 0 -2.25223)
(0.214641 0 -2.21698)
(0.165794 0 -2.29469)
(0.185329 0 -2.25712)
(0.130028 0 -2.31914)
(0.152263 0 -2.29195)
(0.109175 0 -2.33004)
(0.131661 0 -2.31198)
(0.0863635 0 -2.31997)
(0.11514 0 -2.31875)
(0.0646743 0 -2.25691)
(0.0909921 0 -2.2971)
(0.0610762 0 -2.20168)
(0.0762025 0 -2.23508)
(0.0387556 0 -2.21128)
(0.0664801 0 -2.20676)
(0.0162052 0 -2.19671)
(0.0451928 0 -2.21272)
(0.0245673 0 -2.16082)
(0.0317263 0 -2.16586)
(-0.0125266 0 -2.13316)
(0.0232948 0 -2.13651)
(-0.0584192 0 -2.0289)
(-0.0335534 0 -2.08408)
(-0.102339 0 -1.81164)
(-0.0831202 0 -1.9166)
(-0.128223 0 -1.47676)
(-0.118165 0 -1.6611)
(-0.151908 0 -1.04961)
(-0.142064 0 -1.26699)
(-0.171084 0 -0.585552)
(-0.161551 0 -0.814294)
(-0.182263 0 -0.137959)
(-0.176116 0 -0.346644)
(-0.184801 0 0.229552)
(-0.183355 0 0.070993)
(-0.181367 0 0.478589)
(-0.183251 0 0.381014)
(-0.174821 0 0.609555)
(-0.179001 0 0.565485)
(-0.16767 0 0.650053)
(-0.173253 0 0.642338)
(-0.161264 0 0.636329)
(-0.16779 0 0.647787)
(-0.155953 0 0.598223)
(-0.163234 0 0.61675)
(-0.151622 0 0.554056)
(-0.159553 0 0.573148)
(-0.148046 0 0.512402)
(-0.156544 0 0.529496)
(-0.145043 0 0.475871)
(-0.154021 0 0.490539)
(-0.142458 0 0.44403)
(-0.151859 0 0.456855)
(-0.139984 0 0.4145)
(-0.149884 0 0.426742)
(-0.13683 0 0.382242)
(-0.147544 0 0.396103)
(-0.131431 0 0.337492)
(-0.143573 0 0.357063)
(-0.122013 0 0.26463)
(-0.136397 0 0.296985)
(-0.109516 0 0.149184)
(-0.125288 0 0.201904)
(-0.112454 0 0.070437)
(-0.0961351 0 0.500526)
(-0.0938141 0 0.465303)
(-0.0944991 0 0.569939)
(-0.0947676 0 0.53579)
(-0.0876869 0 0.628752)
(-0.091075 0 0.601356)
(-0.0753067 0 0.673326)
(-0.0817979 0 0.64992)
(-0.0573804 0 0.710037)
(-0.0675238 0 0.686963)
(-0.0336681 0 0.742419)
(-0.0471924 0 0.719835)
(-0.00361692 0 0.766771)
(-0.0237481 0 0.748138)
(0.0337863 0 0.757054)
(0.00997319 0 0.764599)
(0.0812068 0 0.626944)
(0.0449914 0 0.723701)
(0.137648 0 0.228874)
(0.0979564 0 0.499206)
(0.175233 0 -0.475749)
(0.158782 0 -0.0706693)
(0.151005 0 -1.20677)
(0.169713 0 -0.887376)
(0.125117 0 -1.64725)
(0.116381 0 -1.51228)
(0.195562 0 -1.87927)
(0.153255 0 -1.79884)
(0.232176 0 -2.05171)
(0.223916 0 -2.00554)
(0.248656 0 -2.16264)
(0.24636 0 -2.12503)
(0.211635 0 -2.20008)
(0.220731 0 -2.18792)
(0.190428 0 -2.21481)
(0.193079 0 -2.20284)
(0.171391 0 -2.25445)
(0.180183 0 -2.24443)
(0.154119 0 -2.2885)
(0.166141 0 -2.28043)
(0.139378 0 -2.30494)
(0.151105 0 -2.29996)
(0.118221 0 -2.29646)
(0.133145 0 -2.30065)
(0.095777 0 -2.25424)
(0.110612 0 -2.27695)
(0.0880234 0 -2.21192)
(0.0969953 0 -2.22778)
(0.0788001 0 -2.19932)
(0.0944348 0 -2.19765)
(0.0529098 0 -2.18057)
(0.0811234 0 -2.1859)
(0.0366371 0 -2.13719)
(0.0599346 0 -2.14818)
(-0.0016292 0 -2.07998)
(0.0368683 0 -2.09289)
(-0.0595351 0 -1.96888)
(-0.0158069 0 -2.01483)
(-0.0983617 0 -1.76364)
(-0.0711961 0 -1.86789)
(-0.134662 0 -1.44229)
(-0.116156 0 -1.61333)
(-0.151174 0 -1.02239)
(-0.142341 0 -1.2442)
(-0.166372 0 -0.564799)
(-0.155334 0 -0.792288)
(-0.177099 0 -0.127473)
(-0.169347 0 -0.330352)
(-0.181432 0 0.230221)
(-0.177877 0 0.0778972)
(-0.180749 0 0.472478)
(-0.180635 0 0.379871)
(-0.177434 0 0.600187)
(-0.179719 0 0.559674)
(-0.173441 0 0.640246)
(-0.177325 0 0.634996)
(-0.169822 0 0.627485)
(-0.174846 0 0.640805)
(-0.166863 0 0.590642)
(-0.17278 0 0.610764)
(-0.164481 0 0.547552)
(-0.171144 0 0.568092)
(-0.162514 0 0.506709)
(-0.169806 0 0.525115)
(-0.16083 0 0.470727)
(-0.168646 0 0.486604)
(-0.159271 0 0.43886)
(-0.16756 0 0.453035)
(-0.157428 0 0.40762)
(-0.166312 0 0.422005)
(-0.154344 0 0.369979)
(-0.164217 0 0.387789)
(-0.148562 0 0.315068)
(-0.160002 0 0.340712)
(-0.139264 0 0.231901)
(-0.152542 0 0.26941)
(-0.128637 0 0.119963)
(-0.142477 0 0.16884)
(-0.133179 0 0.0518878)
(-0.0923565 0 0.500618)
(-0.0903854 0 0.466632)
(-0.0911849 0 0.567261)
(-0.0918375 0 0.535008)
(-0.085015 0 0.622578)
(-0.0887592 0 0.597243)
(-0.073657 0 0.663604)
(-0.0803862 0 0.642348)
(-0.0573816 0 0.696792)
(-0.0675186 0 0.676113)
(-0.0362783 0 0.725549)
(-0.0494205 0 0.705766)
(-0.010365 0 0.745882)
(-0.0290285 0 0.730862)
(0.0212888 0 0.730964)
(-0.000967941 0 0.743496)
(0.0618036 0 0.595009)
(0.0291155 0 0.696691)
(0.11278 0 0.197969)
(0.074854 0 0.465222)
(0.157794 0 -0.483024)
(0.134324 0 -0.100679)
(0.142013 0 -1.19382)
(0.152361 0 -0.876855)
(0.13221 0 -1.66333)
(0.120102 0 -1.50574)
(0.193006 0 -1.92053)
(0.160762 0 -1.83937)
(0.230628 0 -2.07369)
(0.215525 0 -2.03063)
(0.224884 0 -2.15111)
(0.221231 0 -2.1212)
(0.195791 0 -2.18562)
(0.194411 0 -2.16852)
(0.185787 0 -2.21728)
(0.178117 0 -2.19617)
(0.176461 0 -2.25693)
(0.175014 0 -2.23821)
(0.163026 0 -2.28443)
(0.165831 0 -2.27148)
(0.145999 0 -2.29163)
(0.151386 0 -2.28606)
(0.125444 0 -2.27908)
(0.134547 0 -2.28306)
(0.108205 0 -2.24743)
(0.118003 0 -2.26147)
(0.105642 0 -2.2123)
(0.110431 0 -2.22537)
(0.10222 0 -2.18617)
(0.110985 0 -2.19427)
(0.0841436 0 -2.15485)
(0.104264 0 -2.16717)
(0.06052 0 -2.10214)
(0.0864332 0 -2.1225)
(0.0230158 0 -2.0243)
(0.0608941 0 -2.05013)
(-0.0331698 0 -1.90515)
(0.0144729 0 -1.94763)
(-0.0888891 0 -1.70785)
(-0.0442341 0 -1.79799)
(-0.129849 0 -1.40641)
(-0.0989682 0 -1.55943)
(-0.143331 0 -1.00179)
(-0.127782 0 -1.22559)
(-0.157767 0 -0.545856)
(-0.140829 0 -0.771386)
(-0.169606 0 -0.114779)
(-0.158051 0 -0.31237)
(-0.176713 0 0.235168)
(-0.170035 0 0.0892186)
(-0.1795 0 0.471673)
(-0.177039 0 0.384529)
(-0.179708 0 0.596479)
(-0.180269 0 0.560039)
(-0.178889 0 0.635815)
(-0.181546 0 0.633491)
(-0.177934 0 0.623436)
(-0.182075 0 0.638962)
(-0.177146 0 0.58723)
(-0.182394 0 0.60917)
(-0.17652 0 0.544641)
(-0.182643 0 0.566763)
(-0.175967 0 0.504084)
(-0.1828 0 0.523886)
(-0.175395 0 0.468087)
(-0.18282 0 0.485271)
(-0.174617 0 0.4354)
(-0.18261 0 0.451129)
(-0.173119 0 0.401301)
(-0.181846 0 0.418158)