/*--------------------------------*- C++ -*----------------------------------*\
  =========                 |
  \\      /  F ield         | OpenFOAM: The Open Source CFD Toolbox
   \\    /   O peration     | Website:  https://openfoam.org
    \\  /    A nd           | Version:  9
     \\/     M anipulation  |
\*---------------------------------------------------------------------------*/
FoamFile
{
    format      ascii;
    class       volScalarField;
    location    "0.09";
    object      alpha.water;
}
// * * * * * * * * * * * * * * * * * * * * * * * * * * * * * * * * * * * * * //

dimensions      [0 0 0 0 0 0 0];

internalField   nonuniform List<scalar> 
5000
(
9.69851e-320
9.70345e-320
1.94109e-319
8.7335e-319
5.43222e-318
3.07348e-317
1.65871e-316
8.60428e-316
4.33657e-315
2.1476e-314
1.05593e-313
5.18995e-313
2.54353e-312
1.20881e-311
5.13927e-311
1.62883e-310
2.60786e-310
1.27702e-310
3.42946e-311
7.21564e-312
1.5831e-312
3.50859e-313
7.9451e-314
1.8313e-314
4.27547e-315
1.00917e-315
2.40704e-316
5.7989e-317
1.40422e-317
3.41037e-318
9.40503e-319
1.97093e-319
2.0649e-319
2.16322e-319
2.26618e-319
2.37408e-319
2.48693e-319
2.60531e-319
2.72912e-319
2.85886e-319
2.99463e-319
3.13663e-319
3.28524e-319
3.44067e-319
3.60322e-319
3.77308e-319
3.95075e-319
4.13612e-319
4.32979e-319
4.53197e-319
2.90955e-319
1.84373e-318
1.20347e-317
7.3555e-317
4.28467e-316
2.39799e-315
1.28633e-314
6.63874e-314
3.3273e-313
1.63811e-312
8.00085e-312
3.90128e-311
1.89389e-310
8.90656e-310
3.74771e-309
1.17702e-308
1.87337e-308
9.253e-309
2.5118e-309
5.34532e-310
1.18477e-310
2.64901e-311
6.04274e-312
1.40139e-312
3.28923e-313
7.79942e-314
1.86819e-314
4.51873e-315
1.10231e-315
2.70136e-316
6.65878e-317
1.61615e-317
3.9233e-318
1.08161e-318
2.26618e-319
2.37399e-319
2.48693e-319
2.60531e-319
2.72912e-319
2.85886e-319
2.99463e-319
3.13663e-319
3.28524e-319
3.44067e-319
3.60322e-319
3.77308e-319
3.95065e-319
4.13612e-319
4.32969e-319
4.53197e-319
1.17352e-317
7.6952e-317
4.83427e-316
2.91262e-315
1.68785e-314
9.38881e-314
5.00679e-313
2.56899e-312
1.27996e-311
6.26205e-311
3.0372e-310
1.46919e-309
7.06832e-309
3.29203e-308
1.37148e-307
4.26447e-307
6.74043e-307
3.36137e-307
9.22981e-308
1.98587e-308
4.44413e-309
1.00219e-309
2.30322e-310
5.37643e-311
1.2693e-311
3.026e-312
7.28524e-313
1.77093e-313
4.33986e-314
1.0694e-314
2.64372e-315
6.54925e-316
1.62711e-316
4.06678e-317
9.97096e-318
2.37395e-318
7.46059e-319
2.60511e-319
2.72902e-319
2.85876e-319
2.99443e-319
3.13653e-319
3.28514e-319
3.44067e-319
3.60312e-319
3.77308e-319
3.95055e-319
4.13602e-319
4.3296e-319
4.53177e-319
3.18116e-316
2.072e-315
1.2913e-314
7.72909e-314
4.44977e-313
2.45964e-312
1.30363e-311
6.64844e-311
3.29207e-310
1.60013e-309
7.70617e-309
3.69876e-308
1.76436e-307
8.14253e-307
3.35901e-306
1.0335e-305
1.6214e-305
8.16781e-306
2.26961e-306
4.93658e-307
1.11503e-307
2.5354e-308
5.87019e-309
1.37949e-309
3.27684e-310
7.85693e-311
1.90196e-311
4.64787e-312
1.14492e-312
2.83578e-313
7.04623e-314
1.75499e-314
4.38646e-315
1.10362e-315
2.80084e-316
7.21654e-317
1.88996e-317
4.94965e-318
1.36447e-318
2.85866e-319
2.99443e-319
3.13643e-319
3.28504e-319
3.44048e-319
3.60292e-319
3.77288e-319
3.95035e-319
4.13572e-319
4.3293e-319
4.53137e-319
6.51139e-315
4.2031e-314
2.59914e-313
1.54469e-312
8.83321e-312
4.85099e-311
2.55485e-310
1.29481e-309
6.37058e-309
3.07584e-308
1.47079e-307
7.00541e-307
3.31428e-306
1.51613e-305
6.19422e-305
1.88558e-304
2.93572e-304
1.49434e-304
4.20266e-305
9.23943e-306
2.10584e-306
4.82751e-307
1.12603e-307
2.66429e-308
6.36923e-309
1.53639e-309
3.74075e-310
9.19263e-311
2.27685e-311
5.66984e-312
1.41636e-312
3.5465e-313
8.91166e-314
2.25367e-314
5.75777e-315
1.49214e-315
3.93639e-316
1.06021e-316
2.9471e-317
8.28958e-318
2.09595e-318
6.27246e-319
3.28484e-319
3.44028e-319
3.60273e-319
3.77269e-319
3.95015e-319
4.13553e-319
4.329e-319
4.53098e-319
1.07287e-313
6.85565e-313
4.20437e-312
2.48026e-311
1.40852e-310
7.68394e-310
4.02067e-309
2.02459e-308
9.89598e-308
4.74548e-307
2.2529e-306
1.06493e-305
4.99792e-305
2.26689e-304
9.17424e-304
2.76321e-303
4.26989e-303
2.19635e-303
6.2518e-304
1.38902e-304
3.19406e-305
7.38144e-306
1.73462e-306
4.13301e-307
9.94567e-308
2.41424e-308
5.91377e-309
1.46182e-309
3.64146e-310
9.1192e-311
2.29073e-311
5.76752e-312
1.45717e-312
3.70483e-313
9.51498e-314
2.47834e-314
6.56983e-315
1.77801e-315
4.91967e-316
1.39198e-316
3.982e-317
1.19168e-317
3.61304e-318
6.87996e-319
3.60253e-319
3.77229e-319
3.94976e-319
4.13513e-319
4.32851e-319
4.53048e-319
1.48327e-312
9.3692e-312
5.69444e-311
3.33341e-310
1.87955e-309
1.01839e-308
5.29347e-308
2.64794e-307
1.28562e-306
6.12232e-306
2.88555e-305
1.3537e-304
6.30346e-304
2.83543e-303
1.13694e-302
3.38874e-302
5.1983e-302
2.70191e-302
7.78379e-303
1.74756e-303
4.0539e-304
9.4439e-305
2.23601e-305
5.36563e-306
1.29997e-306
3.17621e-307
7.82941e-308
1.94722e-308
4.87965e-309
1.22917e-309
3.1055e-310
7.86354e-311
1.99791e-311
5.10768e-312
1.31884e-312
3.45297e-313
9.19948e-314
2.50111e-314
6.95242e-315
1.97831e-315
5.76588e-316
1.7215e-316
5.22199e-317
1.61663e-317
4.68273e-318
1.50876e-318
3.94936e-319
4.13454e-319
4.32792e-319
4.52989e-319
1.77188e-311
1.10405e-310
6.6438e-310
3.85748e-309
2.15908e-308
1.1617e-307
5.99752e-307
2.97994e-306
1.43693e-305
6.7948e-305
3.17923e-304
1.48032e-303
6.84014e-303
3.05205e-302
1.21277e-301
3.57785e-301
5.44974e-301
2.86197e-301
8.34417e-302
1.89292e-302
4.42945e-303
1.04015e-303
2.48137e-304
5.99753e-305
1.4632e-305
3.5991e-306
8.9298e-307
2.23502e-307
5.63563e-308
1.42823e-308
3.63002e-309
9.24588e-310
2.36275e-310
6.07471e-311
1.5772e-311
4.15145e-312
1.11171e-312
3.03726e-313
8.48259e-314
2.4247e-314
7.09759e-315
2.12765e-315
6.52835e-316
2.05666e-316
6.59101e-317
2.14971e-317
7.10783e-318
2.06701e-318
4.32722e-319
4.5292e-319
1.87009e-310
1.14599e-309
6.81847e-309
3.92432e-308
2.17975e-307
1.16445e-306
5.97015e-306
2.946e-305
1.41071e-304
6.62337e-304
3.07644e-303
1.42182e-302
6.52027e-302
2.88641e-301
1.13682e-300
3.32029e-300
5.02323e-300
2.66501e-300
7.86308e-301
1.80232e-301
4.25411e-302
1.00696e-302
2.42048e-303
5.89328e-304
1.44798e-304
3.58628e-305
8.95787e-306
2.25676e-306
5.72692e-307
1.46048e-307
3.73493e-308
9.57094e-309
2.46043e-309
6.36281e-310
1.66138e-310
4.39699e-311
1.18365e-311
3.25003e-312
9.1201e-313
2.61871e-313
7.69851e-314
2.31741e-314
7.14146e-315
2.25271e-315
7.27065e-316
2.39825e-316
8.05424e-317
2.72799e-317
9.08566e-318
2.26414e-318
1.77565e-309
1.06555e-308
6.25592e-308
3.56608e-307
1.96494e-306
1.04201e-305
5.3047e-305
2.59937e-304
1.23596e-303
5.7613e-303
2.65648e-302
1.21868e-301
5.54721e-301
2.43668e-300
9.51381e-300
2.7516e-299
4.13596e-299
2.21646e-299
6.61769e-300
1.53258e-300
3.64886e-301
8.70612e-302
2.10872e-302
5.17232e-303
1.28003e-303
3.1927e-304
8.0298e-305
2.03659e-305
5.20232e-306
1.33529e-306
3.43649e-307
8.86131e-308
2.292e-308
5.96283e-309
1.56602e-309
4.16791e-310
1.12803e-310
3.11323e-311
8.77893e-312
2.53244e-312
7.47759e-313
2.26033e-313
6.99358e-314
2.21415e-314
7.16968e-315
2.37257e-315
8.01722e-316
2.76052e-316
9.55961e-317
3.07858e-317
1.54067e-308
8.99962e-308
5.19867e-307
2.93149e-306
1.60158e-305
8.42898e-305
4.2602e-304
2.07276e-303
9.78544e-303
4.52841e-302
2.07275e-301
9.43928e-301
4.26512e-300
1.85929e-299
7.19778e-299
2.06198e-298
3.0803e-298
1.66718e-298
5.03688e-299
1.17856e-299
2.8304e-300
6.80746e-301
1.66152e-301
4.10598e-302
1.0236e-302
2.57148e-303
6.51303e-304
1.66331e-304
4.27759e-305
1.10524e-305
2.86304e-306
7.4301e-307
1.93395e-307
5.06233e-308
1.33747e-308
3.58016e-309
9.74311e-310
2.70315e-310
7.66073e-311
2.22039e-311
6.58579e-312
1.99929e-312
6.21109e-313
1.97399e-313
6.41525e-314
2.13077e-314
7.22818e-315
2.4992e-315
8.69679e-316
2.80173e-316
1.2392e-307
6.98928e-307
3.9559e-306
2.20278e-305
1.19244e-304
6.22648e-304
3.12389e-303
1.50897e-302
7.07249e-302
3.24913e-301
1.47632e-300
6.67419e-300
2.9939e-299
1.29539e-298
4.973e-298
1.41145e-297
2.09619e-297
1.1457e-297
3.50235e-298
8.2799e-299
2.00582e-299
4.86311e-300
1.19615e-300
2.97833e-301
7.48015e-302
1.89292e-302
4.8289e-303
1.24193e-303
3.21607e-304
8.36629e-305
2.18177e-305
5.69945e-306
1.49309e-306
3.93303e-307
1.04548e-307
2.81507e-308
7.70434e-309
2.14904e-309
6.12167e-310
1.78296e-310
5.31285e-311
1.61995e-311
5.05367e-312
1.61253e-312
5.26038e-313
1.75352e-313
5.96864e-314
2.07032e-314
7.23319e-315
2.3376e-315
9.36622e-307
5.04781e-306
2.78301e-305
1.52636e-304
8.17896e-304
4.23567e-303
2.1091e-302
1.01135e-301
4.70569e-301
2.14599e-300
9.6794e-300
4.34421e-299
1.93478e-298
8.30978e-298
3.16406e-297
8.89954e-297
1.31439e-296
7.25368e-297
2.24356e-297
5.35901e-298
1.30961e-298
3.20084e-299
7.93427e-300
1.9907e-300
5.03745e-301
1.28427e-301
3.30023e-302
8.54901e-303
2.22953e-303
5.84037e-304
1.53352e-304
4.03311e-305
1.06356e-305
2.81973e-306
7.54243e-307
2.04316e-307
5.62416e-308
1.57747e-308
4.51715e-309
1.32221e-309
3.95864e-310
1.21249e-310
3.79881e-311
1.21709e-311
3.98584e-312
1.33359e-312
4.55532e-313
1.58543e-313
5.55745e-314
1.80243e-314
6.74003e-306
3.42776e-305
1.82614e-304
9.8283e-304
5.20566e-303
2.67234e-302
1.32038e-301
6.28456e-301
2.90265e-300
1.31399e-299
5.88324e-299
2.62142e-298
1.15923e-297
4.94275e-297
1.86693e-296
5.20519e-296
7.64754e-296
4.26086e-296
1.33337e-296
3.21804e-297
7.93352e-298
1.95485e-298
4.88371e-299
1.23478e-299
3.14849e-300
8.08757e-301
2.0938e-301
5.46373e-302
1.43522e-302
3.78645e-303
1.0012e-303
2.65135e-304
7.0393e-305
1.87864e-305
5.05745e-306
1.37849e-306
3.81706e-307
1.07667e-307
3.09971e-308
9.11962e-309
2.74367e-309
8.44256e-310
2.6568e-310
8.5479e-311
2.81061e-311
9.43981e-312
3.23628e-312
1.13031e-312
3.9757e-313
1.29407e-313
4.67394e-305
2.21286e-304
1.12724e-303
5.92191e-303
3.0939e-302
1.57323e-301
7.71109e-301
3.64259e-300
1.66992e-299
7.50357e-299
3.33498e-298
1.4753e-297
6.47821e-297
2.74245e-296
1.0277e-295
2.841e-295
4.15356e-295
2.3361e-295
7.39603e-296
1.80372e-296
4.48662e-297
1.11463e-297
2.80664e-298
7.15136e-299
1.83753e-299
4.75621e-300
1.24067e-300
3.26175e-301
8.6314e-302
2.29379e-302
6.10895e-303
1.62928e-303
4.35603e-304
1.17048e-304
3.1719e-305
8.70069e-306
2.42392e-306
6.87688e-307
1.99079e-307
5.8879e-308
1.78027e-308
5.50419e-309
1.74e-309
5.62257e-310
1.85642e-310
6.25982e-311
2.15424e-311
7.55141e-312
2.66561e-312
8.70884e-313
3.1553e-304
1.37331e-303
6.60285e-303
3.36101e-302
1.72678e-301
8.68817e-301
4.22288e-300
1.97952e-299
9.00702e-299
4.01706e-298
1.77226e-297
7.78383e-297
3.39417e-296
1.42673e-295
5.30522e-295
1.45449e-294
2.11669e-294
1.20164e-294
3.84878e-295
9.48624e-296
2.38126e-296
5.96552e-297
1.51411e-297
3.88819e-298
1.00683e-298
2.62623e-299
6.90337e-300
1.82878e-300
4.87605e-301
1.30553e-301
3.50278e-302
9.41055e-303
2.53412e-303
6.85715e-304
1.87089e-304
5.1656e-305
1.44811e-305
4.13301e-306
1.20327e-306
3.57804e-307
1.08744e-307
3.37864e-308
1.07308e-308
3.48309e-309
1.15497e-309
3.91056e-310
1.35108e-310
4.75401e-311
1.68436e-311
5.52445e-312
2.08847e-303
8.28175e-303
3.70378e-302
1.80866e-301
9.09765e-301
4.52213e-300
2.17851e-299
1.01319e-298
4.57521e-298
2.02523e-297
8.86914e-297
3.86752e-296
1.67479e-295
6.99084e-295
2.57981e-294
7.01633e-294
1.01667e-293
5.82503e-294
1.88754e-294
4.70266e-295
1.19148e-295
3.01038e-296
7.70266e-297
1.99372e-297
5.20338e-298
1.36792e-298
3.62389e-299
9.67478e-300
2.5995e-300
7.01335e-301
1.89602e-301
5.13213e-302
1.39223e-302
3.79448e-303
1.04253e-303
2.89788e-304
8.1763e-305
2.34793e-305
6.87577e-306
2.05597e-306
6.28167e-307
1.9616e-307
6.26037e-308
2.04147e-308
6.79945e-309
2.31203e-309
8.02064e-310
2.83328e-310
1.00771e-310
3.31885e-311
1.35997e-302
4.89886e-302
2.00881e-301
9.29199e-301
4.54734e-300
2.22787e-299
1.06298e-298
4.90381e-298
2.19742e-297
9.65365e-297
4.19642e-296
1.81685e-295
7.81367e-295
3.23908e-294
1.18642e-293
3.20169e-293
4.62062e-293
2.67159e-293
8.75928e-294
2.20619e-294
5.64256e-295
1.43799e-295
3.70973e-296
9.67963e-297
2.54651e-297
6.748e-298
1.8019e-298
4.8487e-299
1.31305e-299
3.57033e-300
9.72726e-301
2.65325e-301
7.25224e-302
1.99124e-302
5.51026e-303
1.54227e-303
4.38035e-304
1.26583e-304
3.72925e-305
1.12151e-305
3.44533e-306
1.08151e-306
3.46886e-307
1.13659e-307
3.80304e-308
1.29886e-308
4.52497e-309
1.60496e-309
5.73143e-310
1.89593e-310
8.71198e-302
2.8619e-301
1.06382e-300
4.59158e-300
2.16727e-299
1.04303e-298
4.92354e-298
2.2523e-297
1.00142e-296
4.36605e-296
1.88385e-295
8.09809e-295
3.45894e-294
1.4241e-293
5.17815e-293
1.38688e-292
1.994e-292
1.16337e-292
3.85978e-293
9.82902e-294
2.53794e-294
6.52478e-295
1.69737e-295
4.46527e-296
1.1843e-296
3.16378e-297
8.51664e-298
2.31022e-298
6.30648e-299
1.72852e-299
4.74676e-300
1.30495e-300
3.59458e-301
9.94453e-302
2.77218e-302
7.81417e-303
2.23447e-303
6.49912e-304
1.92655e-304
5.82796e-305
1.80046e-305
5.68219e-306
1.83193e-306
6.03215e-307
2.02795e-307
6.95779e-308
2.43459e-308
8.67184e-309
3.10986e-309
1.03351e-309
5.4764e-301
1.65679e-300
5.55149e-300
2.20031e-299
9.90189e-299
4.65824e-298
2.172e-297
9.84808e-297
4.34402e-296
1.87946e-295
8.04915e-295
3.43543e-294
1.45742e-293
5.95999e-293
2.15156e-292
5.72061e-292
8.19595e-292
4.82517e-292
1.62006e-292
4.17151e-293
1.08756e-293
2.82096e-294
7.40105e-295
1.96327e-295
5.25036e-296
1.41422e-296
3.83839e-297
1.04977e-297
2.88917e-298
7.98345e-299
2.21018e-299
6.125e-300
1.70055e-300
4.74116e-301
1.33162e-301
3.78082e-302
1.08866e-302
3.18753e-303
9.50891e-304
2.89397e-304
8.99231e-305
2.85368e-305
9.24917e-306
3.06112e-306
1.03418e-306
3.56496e-307
1.25308e-307
4.48303e-308
1.61478e-308
5.39257e-309
3.36584e-300
9.5032e-300
2.87549e-299
1.03162e-298
4.36256e-298
1.99221e-297
9.15403e-297
4.1111e-296
1.79874e-295
7.72231e-295
3.28255e-294
1.39104e-293
5.86137e-293
2.38098e-292
8.53494e-292
2.25328e-291
3.21762e-291
1.91149e-291
6.49516e-292
1.69125e-292
4.45252e-293
1.16535e-293
3.08389e-294
8.25027e-295
2.22504e-295
6.0439e-296
1.65421e-296
4.56207e-297
1.26606e-297
3.52755e-298
9.8467e-299
2.75119e-299
7.70024e-300
2.16383e-300
6.12419e-301
1.75172e-301
5.07991e-302
1.49751e-302
4.49641e-303
1.37697e-303
4.3041e-304
1.37369e-304
4.47673e-305
1.48943e-305
5.05747e-306
1.7519e-306
6.18688e-307
2.22353e-307
8.04583e-308
2.70058e-308
2.01533e-299
5.38583e-299
1.48457e-298
4.77461e-298
1.86595e-297
8.19221e-297
3.69669e-296
1.64283e-295
7.1279e-295
3.03629e-294
1.28097e-293
5.38967e-293
2.25575e-292
9.10284e-292
3.24056e-291
8.49676e-291
1.20956e-290
7.25087e-291
2.49363e-291
6.56671e-292
1.74596e-292
4.61154e-293
1.23108e-293
3.32201e-294
9.0365e-295
2.47572e-295
6.83416e-296
1.90087e-296
5.32019e-297
1.49489e-297
4.20799e-298
1.18555e-298
3.34558e-299
9.47728e-300
2.70336e-300
7.79113e-301
2.27585e-301
6.75581e-302
2.04204e-302
6.29345e-303
1.97923e-303
6.35401e-304
2.0824e-304
6.96593e-305
2.37771e-305
8.27787e-306
2.93757e-306
1.06074e-306
3.85657e-307
1.30132e-307
1.17215e-298
3.0035e-298
7.64478e-298
2.19886e-297
7.80736e-297
3.25361e-296
1.43459e-295
6.29962e-295
2.70949e-294
1.14505e-293
4.79441e-293
2.00286e-292
8.32655e-292
3.33822e-291
1.18038e-290
3.07431e-290
4.36389e-290
2.63977e-290
9.18867e-291
2.44742e-291
6.57254e-292
1.75209e-292
4.71899e-293
1.2846e-293
3.52504e-294
9.74217e-295
2.71281e-295
7.61115e-296
2.14868e-296
6.08958e-297
1.72888e-297
4.91239e-298
1.3979e-298
3.99255e-299
1.14799e-299
3.33414e-300
9.81187e-301
2.93345e-301
8.9275e-302
2.76945e-302
8.76449e-303
2.8307e-303
9.33103e-304
3.13885e-304
1.07718e-304
3.76968e-305
1.34448e-305
4.87859e-306
1.78251e-306
6.04796e-307
6.60882e-298
1.64119e-297
3.91709e-297
1.01334e-296
3.22227e-296
1.25451e-295
5.36613e-295
2.32343e-294
9.90101e-294
4.15066e-293
1.72472e-292
7.15354e-292
2.95415e-291
1.17675e-290
4.13356e-290
1.06955e-289
1.5142e-289
9.24288e-290
3.25658e-290
8.77403e-291
2.38019e-291
6.40466e-292
1.74059e-292
4.78057e-293
1.32354e-293
3.69049e-294
1.0368e-294
2.93464e-295
8.35779e-296
2.3895e-296
6.8433e-297
1.96132e-297
5.62908e-298
1.62124e-298
4.69976e-299
1.37579e-299
4.07963e-300
1.22862e-300
3.7654e-301
1.17596e-301
3.74563e-302
1.21727e-302
4.0366e-303
1.36571e-303
4.7129e-304
1.65819e-304
5.94477e-305
2.16807e-305
7.96226e-306
2.71712e-306
3.60794e-297
8.75557e-297
1.9886e-296
4.68421e-296
1.3228e-295
4.72459e-295
1.94103e-294
8.26051e-294
3.485e-293
1.44897e-292
5.97485e-292
2.46043e-291
1.00934e-290
3.99509e-290
1.39428e-289
3.58468e-289
5.06275e-289
3.11851e-289
1.11222e-289
3.03146e-290
8.30819e-291
2.25686e-291
6.18961e-292
1.71541e-292
4.79233e-293
1.3484e-293
3.82246e-294
1.0917e-294
3.13708e-295
9.04925e-296
2.61474e-296
7.5603e-297
2.18884e-297
6.35825e-298
1.8586e-298
5.48493e-299
1.63917e-299
4.97361e-300
1.53527e-300
4.82793e-301
1.54801e-301
5.06299e-302
1.68931e-302
5.74947e-303
1.99548e-303
7.05991e-304
2.54466e-304
9.32919e-305
3.44442e-305
1.18246e-305
1.90628e-296
4.54841e-296
9.95508e-296
2.16951e-295
5.44026e-295
1.75025e-294
6.81476e-294
2.83738e-293
1.18377e-292
4.88017e-292
1.99681e-291
8.16386e-291
3.32696e-290
1.30863e-289
4.53796e-289
1.15946e-288
1.63398e-288
1.01566e-288
3.66692e-289
1.01119e-289
2.80017e-290
7.67981e-291
2.12582e-291
5.94583e-292
1.67639e-292
4.76035e-293
1.36191e-293
3.92537e-294
1.1383e-294
3.31352e-295
9.66132e-296
2.81874e-296
8.23365e-297
2.41274e-297
7.11317e-298
2.11659e-298
6.37605e-299
1.94955e-299
6.06246e-300
1.92001e-300
6.19837e-301
2.04062e-301
6.85197e-302
2.34635e-302
8.19183e-303
2.91484e-303
1.05646e-303
3.89426e-304
1.44576e-304
4.99424e-305
9.74829e-296
2.29692e-295
4.89292e-295
1.00304e-294
2.25209e-294
6.42828e-294
2.33249e-293
9.43783e-293
3.88728e-292
1.58842e-291
6.44856e-291
2.6175e-290
1.0597e-289
4.14257e-289
1.42743e-288
3.62508e-288
5.09885e-288
3.1983e-288
1.16897e-288
3.26174e-289
9.12763e-290
2.52788e-290
7.06329e-291
1.99404e-291
5.67475e-292
1.62655e-292
4.6971e-293
1.36648e-293
3.99955e-294
1.17506e-294
3.4579e-295
1.01816e-295
3.00121e-296
8.87341e-297
2.63892e-297
7.91904e-298
2.40512e-298
7.412e-299
2.3224e-299
7.40891e-300
2.40864e-300
7.9835e-301
2.69824e-301
9.29813e-302
3.26613e-302
1.16905e-302
4.26148e-303
1.5797e-303
5.8984e-304
2.0508e-304
4.82681e-295
1.12653e-294
2.35309e-294
4.60599e-294
9.39645e-294
2.35946e-293
7.82409e-293
3.0477e-292
1.23618e-291
5.00412e-291
2.01543e-290
8.12172e-290
3.26665e-289
1.2692e-288
4.34601e-288
1.09722e-287
1.54067e-287
9.75242e-288
3.60871e-288
1.01897e-288
2.88199e-289
8.06091e-290
2.27391e-290
6.48039e-291
1.86177e-291
5.38727e-292
1.57056e-292
4.61254e-293
1.36284e-293
4.04191e-294
1.20066e-294
3.56849e-295
1.06167e-295
3.16768e-296
9.50488e-297
2.87708e-297
8.81152e-298
2.7375e-298
8.6443e-299
2.77841e-299
9.09798e-300
3.0366e-300
1.03322e-300
3.5837e-301
1.26678e-301
4.56195e-302
1.67285e-302
6.2374e-303
2.34286e-303
8.20106e-304
2.31558e-294
5.36437e-294
1.10462e-293
2.09017e-293
3.94335e-293
8.71506e-293
2.58847e-292
9.58252e-292
3.81344e-291
1.52812e-290
6.10484e-290
2.44229e-289
9.75935e-289
3.76881e-288
1.28253e-287
3.21945e-287
4.51405e-287
2.88359e-287
1.08032e-287
3.08731e-288
8.82672e-289
2.49374e-289
7.10292e-290
2.04375e-290
5.92828e-291
1.73205e-291
5.0984e-292
1.51182e-292
4.51001e-293
1.35046e-293
4.05016e-294
1.21529e-294
3.64996e-295
1.09922e-295
3.3285e-296
1.01649e-296
3.13997e-297
9.83611e-298
3.13086e-298
1.01407e-298
3.34532e-299
1.12458e-299
3.85302e-300
1.3454e-300
4.78677e-301
1.73472e-301
6.40032e-302
2.40091e-302
9.0741e-303
3.19875e-303
1.07713e-293
2.48036e-293
5.05413e-293
9.33269e-293
1.65718e-292
3.25417e-292
8.50769e-292
2.94379e-291
1.14319e-290
4.52962e-290
1.79457e-289
7.12705e-289
2.82952e-288
1.08605e-287
3.67327e-287
9.16957e-287
1.28411e-286
8.27839e-287
3.14031e-287
9.08397e-288
2.62573e-288
7.49419e-289
2.15561e-289
6.26305e-290
1.83453e-290
5.41265e-291
1.60894e-291
4.8179e-292
1.45137e-292
4.38854e-293
1.32907e-293
4.02696e-294
1.22118e-294
3.71287e-295
1.1348e-295
3.49714e-296
1.08982e-296
3.44302e-297
1.10494e-297
3.60722e-298
1.1991e-298
4.06075e-299
1.40125e-299
4.92683e-300
1.7647e-300
6.43707e-301
2.39013e-301
9.02232e-302
3.43191e-302
1.21869e-302
4.86248e-293
1.11405e-292
2.25216e-292
4.08668e-292
6.93601e-292
1.2298e-291
2.79964e-291
8.87374e-291
3.33666e-290
1.30504e-289
5.12592e-289
2.02081e-288
7.97093e-288
3.04086e-287
1.02227e-286
2.53817e-286
3.55096e-286
2.31034e-286
8.87452e-287
2.59884e-287
7.59579e-288
2.19046e-288
6.36358e-289
1.86725e-289
5.52389e-290
1.64608e-290
4.94205e-291
1.49467e-291
4.54759e-292
1.38881e-292
4.24802e-293
1.29995e-293
3.98113e-294
1.22225e-294
3.77148e-295
1.17311e-295
3.68889e-296
1.17561e-296
3.80466e-297
1.25221e-297
4.19533e-298
1.43158e-298
4.97641e-299
1.76223e-299
6.35584e-300
2.33408e-300
8.72389e-301
3.3146e-301
1.26925e-301
4.54162e-302
2.13215e-292
4.86329e-292
9.77148e-292
1.75101e-291
2.87607e-291
4.69345e-291
9.29037e-291
2.63858e-290
9.50231e-290
3.65949e-289
1.42438e-288
5.57377e-288
2.18425e-287
8.28204e-287
2.76761e-286
6.83575e-286
9.55619e-286
6.27504e-286
2.44098e-286
7.23745e-287
2.13926e-287
6.23414e-288
1.82948e-288
5.42224e-289
1.62028e-289
4.87734e-290
1.47923e-290
4.51926e-291
1.38898e-291
4.28502e-292
1.32404e-292
4.09294e-293
1.26615e-293
3.92609e-294
1.22335e-294
3.84161e-295
1.21922e-295
3.92048e-296
1.27981e-296
4.24753e-297
1.43461e-297
4.93374e-298
1.7281e-298
6.1647e-299
2.23938e-299
8.28133e-300
3.11643e-300
1.19209e-300
4.59657e-301
1.65783e-301
9.08942e-292
2.06487e-291
4.1283e-291
7.33075e-291
1.17632e-290
1.80052e-290
3.12522e-290
7.78857e-290
2.64714e-289
1.00007e-288
3.85486e-288
1.49711e-287
5.82853e-287
2.19653e-286
7.29667e-286
1.79312e-285
2.50541e-285
1.66048e-285
6.54176e-286
1.96408e-286
5.87199e-287
1.72948e-287
5.1276e-288
1.53525e-288
4.63474e-289
1.40954e-289
4.31915e-290
1.33321e-290
4.13998e-291
1.29043e-291
4.02873e-292
1.25832e-292
3.93288e-293
1.23198e-293
3.87737e-294
1.22955e-294
3.93948e-295
1.27847e-295
4.2108e-296
1.40959e-296
4.80072e-297
1.66438e-297
5.8755e-298
2.11197e-298
7.72892e-299
2.8789e-299
1.09109e-299
4.20296e-300
1.63231e-300
5.93587e-301
3.77052e-291
8.53317e-291
1.69895e-290
2.99661e-290
4.72987e-290
6.90363e-290
1.06798e-289
2.29885e-289
7.23628e-289
2.66729e-288
1.01718e-287
3.92004e-287
1.51606e-286
5.67846e-286
1.87527e-285
4.58588e-285
6.40564e-285
4.28509e-285
1.70991e-285
5.1992e-286
1.57245e-286
4.68155e-287
1.4025e-287
4.24275e-288
1.29418e-288
3.9772e-289
1.23151e-289
3.84137e-290
1.20542e-290
3.79699e-291
1.198e-291
3.78152e-292
1.19442e-292
3.78078e-293
1.20219e-293
3.85068e-294
1.24587e-294
4.0817e-295
1.35674e-295
4.58225e-296
1.57407e-296
5.50284e-297
1.95835e-297
7.09492e-298
2.61641e-298
9.81892e-299
3.74874e-299
1.45459e-299
5.69154e-300
2.08748e-300
1.5233e-290
3.43491e-290
6.81397e-290
1.19568e-289
1.86542e-289
2.63103e-289
3.70241e-289
6.83541e-289
1.94874e-288
6.95344e-288
2.61967e-287
1.00158e-286
3.84762e-286
1.43229e-285
4.70249e-285
1.14455e-284
1.59861e-284
1.07947e-284
4.36325e-285
1.34378e-285
4.11196e-286
1.23769e-286
3.74718e-287
1.14551e-287
3.53117e-288
1.09674e-288
3.43228e-289
1.08208e-289
3.43202e-290
1.09272e-290
3.48505e-291
1.11203e-291
3.55051e-292
1.13595e-292
3.65028e-293
1.18133e-293
3.86074e-294
1.27724e-294
4.2858e-295
1.46079e-295
5.06271e-296
1.78518e-296
6.4064e-297
2.33993e-297
8.69772e-298
3.28952e-298
1.2655e-298
4.9476e-299
1.95093e-299
7.21907e-300
5.99871e-290
1.34784e-289
2.66492e-289
4.65725e-289
7.20585e-289
9.92018e-289
1.29662e-288
2.0608e-288
5.19561e-288
1.77494e-287
6.59188e-287
2.49942e-286
9.53625e-286
3.52796e-285
1.15162e-284
2.7902e-284
3.89764e-284
2.65687e-284
1.08791e-284
3.39409e-285
1.05098e-285
3.19872e-286
9.78847e-287
3.02429e-287
9.42301e-288
2.95838e-288
9.35914e-289
2.98283e-289
9.56432e-290
3.07874e-290
9.92792e-291
3.20309e-291
1.03406e-291
3.34487e-292
1.08653e-292
3.55379e-293
1.17349e-293
3.92138e-294
1.32869e-294
4.57171e-295
1.59899e-295
5.68855e-296
2.05913e-296
7.58448e-297
2.84246e-297
1.08371e-297
4.20215e-298
1.65578e-298
6.58159e-299
2.45788e-299
2.30443e-289
5.15954e-289
1.01696e-288
1.77128e-288
2.72416e-288
3.68737e-288
4.5611e-288
6.32595e-288
1.3797e-287
4.4457e-287
1.62235e-286
6.09727e-286
2.31019e-285
8.49339e-285
2.75657e-284
6.64945e-284
9.29196e-284
6.39452e-284
2.65272e-284
8.38476e-285
2.62771e-285
8.08815e-286
2.50211e-286
7.81453e-287
2.46146e-287
7.81303e-288
2.49915e-288
8.05365e-289
2.61126e-289
8.50024e-290
2.77211e-290
9.04564e-291
2.95347e-291
9.66164e-292
3.17347e-292
1.04933e-292
3.50201e-293
1.18242e-293
4.04691e-294
1.40608e-294
4.96462e-295
1.78251e-295
6.51024e-296
2.41894e-296
9.14312e-297
3.51511e-297
1.37425e-297
5.45921e-298
2.18814e-298
8.24982e-299
8.64245e-289
1.9282e-288
3.78919e-288
6.58063e-288
1.00756e-287
1.34784e-287
1.6021e-287
1.97871e-287
3.67461e-287
1.09549e-286
3.90956e-286
1.45528e-285
5.4747e-285
2.00012e-284
6.45448e-284
1.55037e-283
2.16771e-283
1.50616e-283
6.33072e-284
2.02758e-284
6.43209e-285
2.00257e-285
6.26378e-286
1.97788e-286
6.29932e-287
2.02195e-287
6.54068e-288
2.13171e-288
6.99061e-289
2.30177e-289
7.5935e-290
2.50672e-290
8.2803e-291
2.74023e-291
9.10406e-292
3.04435e-292
1.02726e-292
3.50583e-293
1.21245e-293
4.25543e-294
1.51736e-294
5.50036e-295
2.02769e-295
7.60285e-296
2.89936e-296
1.12442e-296
4.43382e-297
1.77637e-297
7.18194e-298
2.7346e-298
3.16666e-288
7.04003e-288
1.37942e-287
2.38936e-287
3.64579e-287
4.83709e-287
5.59013e-287
6.29053e-287
9.88652e-287
2.66462e-286
9.23605e-286
3.40124e-285
1.27016e-284
4.61087e-284
1.47951e-283
3.53924e-283
4.95239e-283
3.47446e-283
1.47982e-283
4.80306e-284
1.54259e-284
4.85878e-285
1.53691e-285
4.90748e-286
1.58067e-286
5.13164e-287
1.67912e-287
5.53583e-288
1.83655e-288
6.11828e-289
2.04238e-289
6.82301e-290
2.28096e-290
7.63962e-291
2.56865e-291
8.69124e-292
2.96676e-292
1.02397e-292
3.58022e-293
1.26999e-293
4.57529e-294
1.67518e-294
6.23585e-295
2.36041e-295
9.08528e-296
3.55557e-296
1.41459e-296
5.71757e-297
2.33229e-297
8.96946e-298
1.13439e-287
2.5129e-287
4.90945e-287
8.48326e-287
1.29085e-286
1.70273e-286
1.92972e-286
2.02239e-286
2.70417e-286
6.42507e-286
2.14197e-285
7.79054e-285
2.88714e-284
1.04133e-283
3.32244e-283
7.9164e-283
1.10881e-282
7.85548e-283
3.39057e-283
1.11539e-283
3.62738e-284
1.15609e-284
3.69886e-285
1.19457e-285
3.89195e-286
1.27822e-286
4.23154e-287
1.41157e-287
4.73888e-288
1.59779e-288
5.39938e-289
1.82638e-289
6.18294e-290
2.09707e-290
7.13953e-291
2.44562e-291
8.44929e-292
2.95066e-292
1.0435e-292
3.7427e-293
1.36287e-293
5.04214e-294
1.89601e-294
7.24792e-295
2.81673e-295
1.11278e-295
4.46837e-296
1.82255e-296
7.50265e-297
2.91487e-297
3.97573e-287
8.77496e-287
1.70936e-286
2.94682e-286
4.47361e-286
5.87645e-286
6.57078e-286
6.53558e-286
7.55024e-286
1.54399e-285
4.88453e-285
1.75025e-284
6.43443e-284
2.30557e-283
7.31452e-283
1.73614e-282
2.4346e-282
1.74191e-282
7.61981e-283
2.54098e-283
8.3692e-284
2.69954e-284
8.73785e-285
2.85469e-285
9.4098e-286
3.12707e-286
1.04763e-286
3.5372e-287
1.20222e-287
4.10477e-288
1.40496e-288
4.81436e-289
1.65128e-289
5.67431e-290
1.957e-290
6.78953e-291
2.37508e-291
8.39545e-292
3.00425e-292
1.08991e-292
4.0131e-293
1.50078e-293
5.70289e-294
2.20245e-294
8.64517e-295
3.44893e-295
1.39825e-295
5.7571e-296
2.3924e-296
9.39301e-297
1.36409e-286
2.99957e-286
5.82599e-286
1.00207e-285
1.51816e-285
1.98807e-285
2.20252e-285
2.1105e-285
2.15372e-285
3.72117e-285
1.09748e-284
3.86027e-284
1.407e-283
5.00791e-283
1.57978e-282
3.7357e-282
5.24577e-282
3.79079e-282
1.68077e-282
5.68244e-283
1.89589e-283
6.19029e-284
2.02743e-284
6.70197e-285
2.23554e-285
7.51957e-286
2.55056e-286
8.72088e-287
3.00226e-287
1.03852e-287
3.60189e-288
1.25087e-288
4.34844e-289
1.51445e-289
5.29315e-290
1.8606e-290
6.59261e-291
2.35965e-291
8.54705e-292
3.1376e-292
1.16859e-292
4.41917e-293
1.69758e-293
6.62583e-294
2.62787e-294
1.05905e-294
4.33647e-295
1.80301e-295
7.56638e-296
3.00345e-296
4.58468e-286
1.00435e-285
1.9449e-285
3.33766e-285
5.04717e-285
6.59368e-285
7.25861e-285
6.77645e-285
6.26069e-285
9.05684e-285
2.43594e-284
8.36616e-284
3.02082e-283
1.06785e-282
3.34945e-282
7.89154e-282
1.10987e-281
8.10136e-282
3.64113e-282
1.24825e-282
4.21945e-283
1.39486e-283
4.62354e-284
1.54678e-284
5.22327e-285
1.77918e-285
6.11281e-286
2.11753e-286
7.38667e-287
2.58953e-287
9.1038e-288
3.20512e-288
1.12964e-288
3.9887e-289
1.41323e-289
5.0349e-290
1.80766e-290
6.55382e-291
2.40383e-291
8.93255e-292
3.36657e-292
1.28788e-292
5.0032e-293
1.97435e-293
7.91506e-294
3.22359e-294
1.33365e-294
5.6017e-295
2.37498e-295
9.53631e-296
1.51034e-285
3.2959e-285
6.36307e-285
1.08949e-284
1.64458e-284
2.14436e-284
2.35019e-284
2.15507e-284
1.8454e-284
2.24067e-284
5.35902e-284
1.78355e-283
6.37239e-283
2.23674e-282
6.9757e-282
1.63765e-281
2.30719e-281
1.70125e-281
7.75162e-282
2.69505e-282
9.2315e-283
3.09033e-283
1.03698e-283
3.51258e-284
1.20136e-284
4.14581e-285
1.44334e-285
5.06708e-286
1.79157e-286
6.36694e-287
2.26951e-287
8.10249e-288
2.89611e-288
1.03708e-288
3.72621e-289
1.34598e-289
4.89834e-290
1.79962e-290
6.68655e-291
2.51618e-291
9.60014e-292
3.71666e-292
1.46079e-292
5.83062e-293
2.3637e-293
9.73272e-294
4.07019e-294
1.72788e-294
7.40507e-295
3.00958e-295
4.8796e-285
1.06066e-284
2.04136e-284
3.48717e-284
5.25468e-284
6.84031e-284
7.47341e-284
6.76961e-284
5.48199e-284
5.66257e-284
1.17359e-283
3.74484e-283
1.3217e-282
4.60521e-282
1.42791e-281
3.34046e-281
4.71506e-281
3.51245e-281
1.62266e-281
5.72241e-282
1.98658e-282
6.73604e-283
2.28927e-283
7.85524e-284
2.72214e-284
9.52016e-285
3.35939e-285
1.19553e-285
4.28546e-286
1.54427e-286
5.58266e-287
2.0217e-287
7.33079e-288
2.66319e-288
9.70689e-289
3.55637e-289
1.31241e-289
4.88805e-290
1.84062e-290
7.01741e-291
2.71173e-291
1.06296e-291
4.22888e-292
1.70807e-292
7.00541e-293
2.91767e-293
1.23395e-293
5.29689e-294
2.2957e-294
9.44794e-295
1.54695e-284
3.34905e-284
6.42523e-284
1.09501e-283
1.64715e-283
2.14101e-283
2.3338e-283
2.09652e-283
1.63137e-283
1.46484e-283
2.57194e-283
7.75588e-283
2.69727e-282
9.32555e-282
2.87455e-281
6.70138e-281
9.47825e-281
7.13386e-281
3.34186e-281
1.19556e-281
4.20718e-282
1.44564e-282
4.97835e-283
1.73107e-283