/*--------------------------------*- C++ -*----------------------------------*\
  =========                 |
  \\      /  F ield         | OpenFOAM: The Open Source CFD Toolbox
   \\    /   O peration     | Website:  https://openfoam.org
    \\  /    A nd           | Version:  9
     \\/     M anipulation  |
\*---------------------------------------------------------------------------*/
FoamFile
{
    format      ascii;
    class       volScalarField;
    location    "0.09";
    object      p_rgh;
}
// * * * * * * * * * * * * * * * * * * * * * * * * * * * * * * * * * * * * * //

dimensions      [1 -1 -2 0 0 0 0];

internalField   nonuniform List<scalar> 
5000
(
0.0020027
0.00213477
0.0022364
0.0023029
0.00232658
0.00230614
0.00223706
0.00209873
0.00186982
0.0015614
0.001233
0.000981798
0.000930914
0.00115518
0.00144008
0.000861656
0.000535772
0.00191072
0.00171537
0.000348631
-0.000663456
-0.00117438
-0.00140865
-0.00146897
-0.00142154
-0.00131066
-0.00117329
-0.00103862
-0.000926679
-0.000847587
-0.000802843
-0.000787488
-0.000792048
-0.000805063
-0.000816173
-0.000817956
-0.000806247
-0.000779944
-0.000740198
-0.000689546
-0.000631198
-0.000568506
-0.000504603
-0.000442115
-0.000382851
-0.000327397
-0.000274638
-0.000220678
-0.000159261
-7.90777e-05
0.00496047
0.00518413
0.00537564
0.00551548
0.0055948
0.0056175
0.00559187
0.00550778
0.00534747
0.00511149
0.00483231
0.00455697
0.00431179
0.00406375
0.00388399
0.00342369
0.00350906
0.00481603
0.00472806
0.00362523
0.00263764
0.00198734
0.00154314
0.00124742
0.00105303
0.000924335
0.000836954
0.000774649
0.000725714
0.00068036
0.000630164
0.000569278
0.000495964
0.000412467
0.0003234
0.000234043
0.000148821
7.06528e-05
1.05975e-06
-5.94817e-05
-0.000111113
-0.000154183
-0.000188886
-0.000214951
-0.000231368
-0.000236148
-0.000226239
-0.000197045
-0.000145024
-7.48915e-05
0.00739543
0.00763047
0.00782562
0.00797239
0.00806221
0.00809551
0.0080746
0.00799349
0.00784311
0.007626
0.00736355
0.00708471
0.00681118
0.00654745
0.00638925
0.00608974
0.00598548
0.00664072
0.00640347
0.00553478
0.00471886
0.00410473
0.00361506
0.00323295
0.00293213
0.00268953
0.00248654
0.00230884
0.00214577
0.00198912
0.00183301
0.00167424
0.00151238
0.00134934
0.00118821
0.00103236
0.000884626
0.000746965
0.000620563
0.00050599
0.00040341
0.000312786
0.000234023
0.000167049
0.000111788
6.80827e-05
3.55754e-05
1.42632e-05
2.79328e-06
-5.52191e-06
0.0097575
0.010007
0.0102078
0.0103584
0.0104542
0.0104941
0.0104762
0.0103951
0.0102455
0.0100316
0.00976999
0.00948355
0.00920177
0.00894072
0.00878177
0.00857258
0.00837777
0.00856008
0.00816195
0.00737682
0.00663952
0.00603744
0.00551475
0.00507075
0.0046901
0.00435813
0.00406093
0.00378642
0.0035252
0.00327055
0.00301868
0.00276846
0.00252097
0.00227857
0.00204404
0.00181991
0.00160814
0.00140999
0.00122615
0.00105678
0.00090169
0.000760435
0.000632371
0.000516728
0.000412622
0.000319005
0.00023473
0.000159121
9.15931e-05
2.88367e-05
0.0122917
0.0125622
0.0127778
0.0129406
0.0130475
0.0130963
0.0130849
0.0130096
0.0128677
0.0126635
0.0124104
0.0121271
0.0118404
0.0115595
0.0113414
0.0110963
0.0108006
0.0107193
0.0102315
0.00948148
0.00875939
0.00813051
0.00755311
0.00703376
0.0065635
0.00613283
0.00573214
0.00535291
0.00498853
0.0046344
0.00428801
0.00394877
0.00361749
0.00329588
0.00298586
0.00268925
0.00240746
0.00214142
0.00189157
0.00165794
0.00144019
0.00123772
0.00104972
0.000875254
0.000713304
0.000562773
0.000422477
0.000291752
0.000170241
5.72123e-05
0.0149138
0.0152089
0.0154445
0.0156253
0.0157478
0.0158094
0.0158088
0.0157439
0.0156137
0.0154221
0.0151788
0.0148975
0.0145988
0.0142811
0.0139859
0.013663
0.0132729
0.0130307
0.0124755
0.0117204
0.0109735
0.0102955
0.00964926
0.00904507
0.00847897
0.00794579
0.00743968
0.00695531
0.00648844
0.00603599
0.00559607
0.00516796
0.00475195
0.004349
0.0039604
0.00358748
0.00323134
0.00289276
0.00257212
0.00226945
0.00198443
0.00171649
0.00146486
0.00122864
0.00100685
0.000798433
0.000602251
0.000417581
0.000244167
8.23583e-05
0.017516
0.0178382
0.0180965
0.018298
0.0184387
0.0185163
0.0185294
0.0184766
0.0183577
0.0181755
0.017937
0.017651
0.0173334
0.0169781
0.0166185
0.0162291
0.0157628
0.01539
0.0147566
0.0139587
0.0131605
0.012422
0.0117027
0.0110137
0.0103548
0.00972454
0.00911969
0.0085371
0.00797392
0.00742789
0.00689746
0.00638196
0.0058815
0.00539679
0.00492889
0.00447891
0.00404782
0.00363627
0.00324461
0.00287284
0.00252066
0.00218755
0.00187275
0.0015754
0.0012945
0.00102899
0.000777746
0.000540085
0.000315739
0.000106153
0.0200814
0.0204342
0.0207193
0.0209448
0.021107
0.0212039
0.0212334
0.0211943
0.021086
0.0209102
0.0206718
0.0203757
0.0200356
0.0196446
0.0192306
0.0187878
0.0182625
0.0177789
0.0170598
0.0161917
0.015322
0.0145128
0.0137156
0.0129415
0.0121928
0.0114701
0.010772
0.0100968
0.00944244
0.00880715
0.00818962
0.00758926
0.00700619
0.00644107
0.0058949
0.00536869
0.00486331
0.00437934
0.0039171
0.00347656
0.00305747
0.0026593
0.00228135
0.00192279
0.00158265
0.00125988
0.000953359
0.000662477
0.000387028
0.000129545
0.0226374
0.023025
0.0233414
0.0235951
0.0237831
0.0239028
0.0239518
0.0239286
0.0238321
0.0236626
0.0234234
0.0231166
0.0227539
0.0223293
0.0218647
0.0213687
0.0207869
0.020207
0.0194034
0.0184531
0.0174997
0.0166108
0.0157296
0.0148674
0.0140278
0.013213
0.0124228
0.0116564
0.0109126
0.0101898
0.00948701
0.00880351
0.00813938
0.00749518
0.00687178
0.00627009
0.00569086
0.00513464
0.0046017
0.00409205
0.00360546
0.00314149
0.00269949
0.00227867
0.00187813
0.00149682
0.00113369
0.000788161
0.000460136
0.000153388
0.0251985
0.0256255
0.025978
0.026265
0.0264835
0.0266301
0.0267024
0.0266983
0.0266159
0.0264545
0.0262157
0.0258993
0.0255149
0.0250572
0.0245432
0.0239912
0.0233514
0.0226847
0.0217989
0.0207599
0.0197149
0.0187392
0.0177678
0.0168128
0.0158793
0.0149701
0.0140864
0.0132281
0.0123946
0.0115846
0.0107969
0.0100309
0.00928627
0.00856352
0.00786328
0.0071863
0.00653322
0.00590453
0.0053005
0.00472117
0.00416637
0.00363573
0.00312866
0.00264444
0.0021822
0.00174094
0.00131964
0.000917848
0.000535564
0.000177972
0.0277624
0.0282337
0.0286275
0.0289532
0.029207
0.0293852
0.029485
0.0295035
0.0294382
0.029287
0.0290499
0.0287251
0.0283195
0.0278292
0.0272676
0.02666
0.0259626
0.0252147
0.0242464
0.0231127
0.0219697
0.0209012
0.0198342
0.0187821
0.017751
0.0167449
0.0157658
0.0148144
0.0138904
0.0129926
0.0121198
0.0112711
0.010446
0.00964472
0.00886762
0.00811528
0.00738823
0.00668689
0.0060115
0.00536213
0.00473863
0.00414068
0.00356775
0.00301917
0.00249411
0.00199165
0.00151081
0.00105127
0.000613225
0.000203367
0.030326
0.0308466
0.0312875
0.0316575
0.0319516
0.0321664
0.032298
0.0323428
0.0322974
0.0321585
0.0319246
0.0315923
0.0311666
0.030645
0.0300387
0.0293778
0.0286238
0.0277978
0.0267452
0.0255117
0.0242653
0.023099
0.0219319
0.0207787
0.0196468
0.0185409
0.0174642
0.016418
0.0154021
0.0144155
0.0134568
0.0125247
0.0116186
0.0107383
0.009884
0.00905599
0.00825471
0.00748047
0.00673347
0.00601373
0.00532111
0.0046553
0.00401579
0.00340196
0.00281306
0.00224822
0.00170656
0.00118796
0.000692806
0.000229421
0.0328921
0.0334673
0.0339615
0.0343811
0.0347209
0.034977
0.0351447
0.0352194
0.0351969
0.0350725
0.0348435
0.0345054
0.0340614
0.0335104
0.0328621
0.0321496
0.0313394
0.0304373
0.0292991
0.0279619
0.026608
0.0253397
0.0240684
0.0228103
0.021574
0.0203653
0.0191883
0.0180447
0.0169348
0.0158575
0.0148112
0.0137943
0.0128059
0.0118455
0.0109129
0.0100084
0.00913213
0.00828432
0.00746507
0.00667435
0.00591196
0.00517756
0.00447069
0.00379076
0.0031371
0.00250894
0.00190551
0.00132691
0.000773764
0.000255988
0.0354663
0.036102
0.036655
0.0371296
0.0375204
0.0378226
0.0380304
0.0381386
0.038142
0.0380347
0.0378129
0.037471
0.0370106
0.0364319
0.0357436
0.0349809
0.0341148
0.033138
0.0319135
0.0304703
0.0290058
0.0276321
0.0262528
0.0248861
0.0235416
0.0222266
0.0209458
0.0197017
0.0184947
0.0173237
0.0161871
0.015083
0.01401
0.0129674
0.0119547
0.010972
0.0100193
0.00909664
0.00820401
0.00734127
0.00650814
0.00570428
0.00492921
0.00418242
0.00346333
0.00277128
0.00210561
0.00146661
0.00085523
0.0002829
0.0380547
0.0387563
0.0393734
0.0399081
0.0403548
0.0407073
0.0409592
0.0411044
0.0411368
0.0410493
0.0408369
0.0404933
0.0400184
0.0394137
0.0386875
0.037876
0.0369545
0.0359046
0.0345936
0.0330428
0.0314653
0.0299833
0.0284928
0.027014
0.025558
0.0241328
0.0227444
0.0213958
0.0200879
0.0188195
0.0175889
0.0163938
0.0152328
0.0141048
0.0130091
0.0119457
0.0109142
0.00991473
0.008947
0.00801076
0.00710567
0.00623133
0.00538729
0.00457308
0.0037882
0.00303211
0.00230425
0.00160502
0.000935609
0.000309033
0.0406632
0.0414357
0.0421217
0.0427213
0.0432281
0.0436347
0.0439342
0.0441196
0.0441837
0.0441185
0.0439179
0.0435747
0.0430877
0.0424589
0.0416968
0.0408383
0.0398624
0.0387407
0.0373433
0.0356838
0.0339919
0.0323994
0.0307952
0.0292015
0.0276304
0.0260915
0.0245914
0.0231341
0.0217206
0.0203502
0.0190207
0.0177301
0.0164766
0.0152588
0.0140762
0.0129284
0.011815
0.0107359
0.00969065
0.00867894
0.00770033
0.00675439
0.00584067
0.00495873
0.00410811
0.00328831
0.00249889
0.00174033
0.00101372
0.000333378
0.0432981
0.0441457
0.0449051
0.0455737
0.0461441
0.0466082
0.0469583
0.0471867
0.0472852
0.0472447
0.047058
0.0467176
0.0462207
0.04557
0.0447742
0.0438707
0.0428416
0.0416496
0.040166
0.0383976
0.0365902
0.034886
0.0331662
0.031455
0.0297659
0.0281096
0.0264938
0.0249231
0.0233992
0.0219212
0.0204874
0.0190956
0.0177439
0.0164312
0.0151567
0.0139199
0.0127205
0.0115581
0.0104323
0.00934274
0.00828879
0.00727005
0.00628605
0.00533636
0.00442046
0.00353782
0.002688
0.00187163
0.00108957
0.00035667
0.0459657
0.0468925
0.047729
0.0484698
0.0491067
0.0496311
0.0500345
0.0503084
0.0504435
0.0504301
0.0502599
0.0499246
0.0494203
0.0487499
0.0479226
0.0469759
0.045895
0.0446342
0.043065
0.0411879
0.0392647
0.0374478
0.0356109
0.0337802
0.0319704
0.0301934
0.0284579
0.0267691
0.0251293
0.0235381
0.0219938
0.0204943
0.0190382
0.0176242
0.0162519
0.0149207
0.0136303
0.0123804
0.0111705
0.0100001
0.00886876
0.00777594
0.00672112
0.00570379
0.00472336
0.00377916
0.00287059
0.0019984
0.00116341
0.000380247
0.0486725
0.0496818
0.0505982
0.0514138
0.0521196
0.0527067
0.0531657
0.0534874
0.0536615
0.0536775
0.0535261
0.0531984
0.0526892
0.0520013
0.0511446
0.0501567
0.0490254
0.0476975
0.0460435
0.044058
0.0420189
0.0400888
0.0381336
0.0361817
0.0342487
0.0323478
0.0304885
0.028677
0.0269159
0.0252054
0.023544
0.0219302
0.0203628
0.0188408
0.0173641
0.0159323
0.0145454
0.013203
0.0119049
0.0106506
0.00943948
0.0082711
0.0071448
0.00605991
0.00501571
0.00401133
0.00304595
0.00212021
0.00123505
0.000404394
0.0514243
0.0525186
0.0535171
0.0544094
0.0551864
0.0558383
0.0563552
0.0567267
0.0569421
0.0569899
0.05686
0.0565422
0.0560305
0.0553275
0.0544435
0.0534164
0.0522361
0.0508425
0.0491047
0.0470111
0.0448559
0.0428116
0.040737
0.038662
0.0366036
0.0345757
0.0325889
0.03065
0.0287623
0.0269265
0.0251417
0.0234068
0.021721
0.0200841
0.0184962
0.0169575
0.0154682
0.0140282
0.0126376
0.0112958
0.0100024
0.00875671
0.00755801
0.0064054
0.00529794
0.00423452
0.00321404
0.00223689
0.00130407
0.000428393
0.0542261
0.0554075
0.0564897
0.0574605
0.0583105
0.0590293
0.0596061
0.0600299
0.060289
0.0603712
0.0602652
0.05996
0.0594483
0.0587326
0.0578234
0.0567589
0.0555311
0.0540731
0.0522517
0.05005
0.0477778
0.0456183
0.0434227
0.0412226
0.0390361
0.0368782
0.0347601
0.0326894
0.0306701
0.0287034
0.0267891
0.0249267
0.023116
0.0213575
0.0196519
0.018
0.0164026
0.01486
0.0133725
0.0119397
0.0105612
0.00923615
0.00796372
0.00674279
0.0055721
0.00445028
0.00337586
0.00234892
0.0013704
0.000451568
0.0570819
0.0583522
0.0595198
0.0605709
0.0614958
0.0622837
0.0629226
0.0634011
0.0637066
0.0638261
0.0637467
0.0634568
0.0629479
0.0622218
0.0612896
0.0601894
0.0589149
0.0573933
0.0554882
0.0531775
0.0507866
0.04851
0.0461911
0.0438634
0.041546
0.0392546
0.0370015
0.0347948
0.0326392
0.0305366
0.0284875
0.0264919
0.0245505
0.0226644
0.0208353
0.0190647
0.017354
0.0157042
0.0141156
0.0125882
0.0111216
0.00971483
0.00836693
0.00707653
0.0058421
0.00466188
0.00353399
0.00245809
0.00143494
0.00047391
0.0599945
0.0613557
0.0626104
0.0637438
0.064746
0.0656054
0.0663094
0.0668454
0.0672005
0.0673602
0.0673106
0.0670389
0.0665355
0.0658015
0.064848
0.0637136
0.062393
0.0608078
0.0588181
0.0563965
0.0538844
0.0514878
0.0490426
0.046584
0.0441322
0.0417037
0.0393115
0.0369648
0.0346687
0.0324257
0.030237
0.0281035
0.0260265
0.0240081
0.0220508
0.020157
0.0183287
0.0165675
0.0148742
0.0132488
0.0116911
0.0102001
0.0087747
0.00741325
0.00611392
0.00487451
0.00369264
0.00256749
0.00149953
0.000496016
0.0629653
0.06442
0.0657639
0.0669822
0.0680647
0.0689987
0.0697711
0.0703684
0.0707766
0.07098
0.0709636
0.0707133
0.0702182
0.0694787
0.0685057
0.067338
0.0659712
0.0643218
0.0622457
0.0597105
0.0570735
0.0545531
0.0519776
0.049384
0.0467934
0.0442235
0.0416882
0.0391972
0.0367566
0.0343693
0.0320373
0.029762
0.0275457
0.0253914
0.0233025
0.0212822
0.0193332
0.0174575
0.0156564
0.0139302
0.0122786
0.0107009
0.00919577
0.00776128
0.0063952
0.00509485
0.00385724
0.0026811
0.00156654
0.000518757
0.0659947
0.0675458
0.068982
0.0702887
0.0714552
0.0724679
0.0733129
0.0739757
0.0744411
0.0746924
0.0747129
0.0744875
0.0740038
0.073261
0.0722701
0.0710697
0.0696562
0.0679412
0.0657762
0.0631237
0.0603571
0.0577081
0.0549971
0.0522632
0.0495289
0.0468127
0.0441296
0.0414902
0.038901
0.0363659
0.0338873
0.0314675
0.0291095
0.0268172
0.0245947
0.0224458
0.020374
0.0183817
0.0164705
0.0146412
0.0128937
0.011227
0.00963981
0.00812982
0.00669435
0.00533016
0.00403369
0.00280318
0.00163848
0.000543019
0.0690822
0.0707335
0.072266
0.0736655
0.0749207
0.0760172
0.0769398
0.0776731
0.0782007
0.0785044
0.0785661
0.0783694
0.0779002
0.0771565
0.0761491
0.0749161
0.073455
0.0716723
0.0694152
0.0666407
0.0637389
0.0609555
0.058103
0.055223
0.0523389
0.049471
0.0466349
0.0438424
0.0411007
0.0384145
0.0357868
0.0332206
0.0307196
0.0282881
0.025931
0.0236527
0.021457
0.019347
0.0173247
0.0153909
0.0135457
0.0117881
0.0101164
0.00852794
0.00701954
0.00558742
0.00422751
0.00293769
0.00171765
0.00056955
0.0722267
0.0739829
0.0756167
0.0771146
0.0784644
0.0796506
0.0806568
0.0814664
0.0820616
0.082423
0.0825307
0.0823667
0.0819153
0.0811729
0.0801501
0.0788847
0.0773746
0.0755217
0.0731689
0.0702671
0.0672236
0.0642993
0.0612986
0.0582655
0.0552252
0.0521993
0.0492047
0.0462542
0.0433561
0.0405157
0.0377368
0.0350228
0.0323778
0.0298069
0.0273151
0.0249073
0.0225879
0.0203601
0.0182262
0.0161873
0.0142432
0.0123928
0.0106338
0.00896331
0.00737753
0.0058723
0.00444314
0.00308775
0.0018058
0.000598889
0.0754263
0.0772933
0.0790348
0.0806378
0.082089
0.0833718
0.0844684
0.0853608
0.0860299
0.0864546
0.0866134
0.0864864
0.0860562
0.0853175
0.0842805
0.0829826
0.081422
0.0794964
0.0770437
0.0740087
0.0708168
0.0677445
0.0645882
0.0613947
0.0581911
0.0550006
0.0518416
0.0487282
0.0456697
0.0426723
0.0397401
0.0368771
0.0340878
0.0313772
0.028751
0.0262143
0.0237716
0.0214266
0.0191814
0.0170369
0.0149928
0.0130474
0.0111979
0.00944105
0.00777266
0.00618828
0.00468323
0.00325518
0.00190399
0.00063134
0.0786794
0.080664
0.0825206
0.0842364
0.0857969
0.0871839
0.0883784
0.0893608
0.0901105
0.0906047
0.09082
0.0907347
0.0903293
0.0895969
0.088547
0.0872165
0.0856041
0.0836032
0.0810466
0.0778725
0.0745248
0.0712972
0.0679776
0.0646161
0.061242
0.0578802
0.0545511
0.0512699
0.0480472
0.0448899
0.0418025
0.0387892
0.0358547
0.0330044
0.0302439
0.0275787
0.0250135
0.0225516
0.020195
0.0179443
0.0157983
0.013755
0.0118111
0.0099629
0.00820612
0.00653613
0.00494826
0.0034403
0.0020124
0.00066697
0.081984
0.0840941
0.0860742
0.0879112
0.0895895
0.0910891
0.0923896
0.0934696
0.0943071
0.0948773
0.095155
0.0951164
0.09474
0.0940169
0.0929558
0.0915933
0.0899282
0.0878498
0.0851853
0.0818663
0.0783556
0.0749652
0.0714746
0.0679376
0.0643859
0.0608466
0.0573418
0.0538885
0.050498
0.0471779
0.0439331
0.0407678
0.0376869
0.034696
0.0318008
0.0290069
0.0263187
0.0237393
0.0212701
0.0189109
0.0166601
0.0145149
0.0124718
0.0105269
0.00867572
0.00691377
0.00523644
0.00364179
0.00213035
0.000705614
0.0853387
0.0875829
0.0896954
0.0916628
0.0934677
0.0950887
0.0965036
0.0976893
0.098622
0.0992753
0.0996218
0.0996355
0.0992929
0.0985829
0.0975133
0.09612
0.094402
0.0922444
0.0894687
0.0859992
0.0823186
0.0787582
0.0750893
0.0713698
0.0676341
0.0639116
0.0602264
0.0565969
0.0530353
0.0495495
0.0461446
0.042825
0.0395956
0.0364622
0.0334305
0.030506
0.0276927
0.0249931
0.0224079
0.0199361
0.0175755
0.0153232
0.0131753
0.0111277
0.00917624
0.00731642
0.00554382
0.00385675
0.00225622
0.00074685
0.0887425
0.0911297
0.093384
0.0954909
0.0974316
0.099183
0.100721
0.102021
0.103057
0.1038
0.104223
0.104295
0.103992
0.1033
0.102226
0.100804
0.099034
0.0967966
0.0939072
0.0902826
0.0864256
0.0826886
0.0788349
0.0749266
0.0710013
0.0670908
0.0632211
0.0594117
0.0556757
0.052021
0.048453
0.0449759
0.041595
0.0383158
0.035144
0.0320847
0.0291413
0.0263158
0.0236082
0.021017
0.0185399
0.0161735
0.0139142
0.0117578
0.00970035
0.00773739
0.00586473
0.00408095
0.00238754
0.000789969
0.092195
0.0947342
0.0971394
0.099395
0.101481
0.103371
0.105041
0.106464
0.107611
0.108454
0.10896
0.109099
0.108843
0.108175
0.107101
0.105655
0.103834
0.101517
0.098513
0.0947297
0.0906909
0.0867719
0.0827276
0.0786254
0.0745058
0.0704031
0.0663451
0.0623523
0.0584383
0.0546112
0.0508763
0.047238
0.043701
0.0402709
0.036953
0.0337518
0.0306703
0.0277101
0.0248708
0.022151
0.0195483
0.0170595
0.0146811
0.0124093
0.0102401
0.00816926
0.00619279
0.00430949
0.00252133
0.000834038
0.0956959
0.0983958
0.100961
0.103374
0.105614
0.107653
0.109464
0.111018
0.112287
0.113238
0.113837
0.114051
0.11385
0.113215
0.112148
0.110682
0.108815
0.10642
0.103301
0.0993564
0.0951319
0.0910264
0.0867871
0.0824867
0.0781687
0.0738699
0.0696197
0.0654396
0.0613436
0.05734
0.0534338
0.0496291
0.0459301
0.0423419
0.0388693
0.0355162
0.0322857
0.029179
0.0261963
0.0233364
0.0205973
0.0179764
0.0154705
0.013076
0.0107892
0.00860612
0.00652288
0.00453846
0.00265524
0.00087832
0.0992449
0.102114
0.104848
0.107427
0.10983
0.112027
0.113988
0.115684
0.117084
0.118154
0.118857
0.119157
0.119022
0.118429
0.117377
0.115898
0.113989
0.11152
0.108287
0.104181
0.0997685
0.0954734
0.0910357
0.0865332
0.082013
0.077514
0.0730672
0.0686952
0.0644124
0.060227
0.0561437
0.0521657
0.0482968
0.0445409
0.0409025
0.0373854
0.0339926
0.0307262
0.0275869
0.0245743
0.0216872
0.0189236
0.016281
0.0137562
0.0113459
0.00904638
0.00685371
0.00476697
0.00278866
0.000922416
0.102841
0.105888
0.108798
0.111553
0.114128
0.116492
0.118614
0.120462
0.122005
0.123206
0.124025
0.124425
0.124367
0.123827
0.122801
0.121318
0.119373
0.116834
0.113491
0.109225
0.104623
0.100136
0.0954974
0.0907894
0.0860627
0.0813586
0.0767099
0.0721401
0.0676642
0.06329
0.0590216
0.0548613
0.0508118
0.0468764
0.0430592
0.0393644
0.0357955
0.0323556
0.0290463
0.0258684
0.0228218
0.0199053
0.0171172
0.0144549
0.0119153
0.009495
0.00718988
0.00499874
0.00292408
0.000967431
0.106484
0.109715
0.11281
0.115749
0.118506
0.121047
0.123342
0.125356
0.127054
0.128399
0.129349
0.129862
0.129896
0.129422
0.128434
0.126957
0.124986
0.122383
0.118934
0.114511
0.109719
0.10504
0.100197
0.0952797
0.0903417
0.0854267
0.0805692
0.0757939
0.0711161
0.0665436
0.0620792
0.0577245
0.0534813
0.0493526
0.0453425
0.0414559
0.0376973
0.0340709
0.0305796
0.0272255
0.0240096
0.0209316
0.0179906
0.0151846
0.0125107
0.00996497
0.00754303
0.00524293
0.00306699
0.00101495
0.110171
0.113594
0.116883
0.120015
0.122964
0.125695
0.128174
0.130367
0.132236
0.133742
0.134838
0.13548
0.135623
0.135231
0.134294
0.132834
0.130845
0.128188
0.124638
0.120061
0.115081
0.110208
0.105159
0.100028
0.0948726
0.0897393
0.0846643
0.0796734
0.0747823
0.0699983
0.0653238
0.0607597
0.0563074
0.0519701
0.0477526
0.0436607
0.0397001
0.0358762
0.0321934
0.0286547
0.0252622
0.0220165
0.0189171
0.0159619
0.0131478
0.0104703
0.00792427
0.00550699
0.00322019
0.0010636
0.113898
0.117523
0.121014
0.12435
0.127502
0.130435
0.133114
0.135501
0.137558
0.139241
0.140502
0.141292
0.141561
0.141268
0.140398
0.138969
0.136973
0.134268
0.130626
0.125899
0.120732
0.115664
0.110405
0.105055
0.0996757
0.094315
0.0890114
0.0837919
0.0786727
0.073661
0.0687592
0.0639682
0.0592899
0.0547283
0.0502893
0.0459798
0.0418069
0.037777
0.0338956
0.0301669
0.0265934
0.023176
0.0199138
0.0168044
0.0138435
0.011026
0.00834615
0.0058009
0.00339104
0.00111674
0.117662
0.121496
0.1252
0.128751
0.13212
0.135271
0.138165
0.140763
0.143026
0.144906
0.146352
0.14731
0.147726
0.147551
0.146765
0.145381
0.14339
0.140647
0.136918
0.132046
0.126694
0.121429
0.115956
0.110381
0.104768
0.0991686
0.0936229
0.0881591
0.0827941
0.077536
0.0723878
0.0673515
0.0624301
0.0576291
0.0529555
0.0484177
0.0440239
0.0397816
0.0356972
0.0317751
0.0280176
0.0244252
0.0209959
0.0177261
0.0146106
0.0116432
0.00881753
0.00613108
0.00358468
0.00117846
0.121458
0.125512
0.129439
0.133218
0.136818
0.140202
0.143329
0.146158
0.148647
0.150745
0.152399
0.153548
0.154132
0.154096
0.153412
0.152088
0.150114
0.147344
0.143536
0.138523
0.132985
0.127521
0.121828
0.11602
0.110163
0.104311
0.0985074
0.0927813
0.0871514
0.0816272
0.0762137
0.0709143
0.0657339
0.0606794
0.0557597
0.0509843
0.0463625
0.0419026
0.0376109
0.0334913
0.0295453
0.0257718
0.0221675
0.0187275
0.015446
0.0123162
0.00933159
0.00649031
0.00379467
0.00124598
0.12528
0.129564
0.133727
0.137748
0.141596
0.145231
0.148609
0.15169
0.154427
0.156768
0.158654
0.160018
0.160795
0.16092
0.160356
0.159109
0.157165
0.154377
0.150497
0.145347
0.139623
0.133956
0.128036
0.121983
0.115869
0.10975
0.103671
0.0976639
0.0917501
0.0859415
0.0802452
0.0746669
0.0692135
0.0638937
0.0587178
0.0536964
0.0488396
0.0441555
0.0396497
0.0353249
0.0311809
0.0272151
0.0234231
0.0197995
0.0163382
0.013033
0.00987781
0.0068712
0.00401685
0.0013175
0.12912
0.133647
0.13806
0.142339
0.146452
0.150356
0.154008
0.157363
0.160373
0.162981
0.165124
0.166731
0.167726
0.168036
0.167614
0.16646
0.16456
0.161765
0.15782
0.152535
0.146623
0.140747
0.13459
0.128281
0.121895
0.115491
0.109119
0.102814
0.0965991
0.0904902
0.0844968
0.0786268
0.0728891
0.0672937
0.0618523
0.0565762
0.0514753
0.0465571
0.0418257
0.0372822
0.032925
0.0287507
0.0247546
0.0209315
0.0172762
0.0137832
0.010447
0.00726707
0.00424805
0.0013927
0.132974
0.137755
0.142433
0.146987
0.151383
0.155578
0.159526
0.163179
0.166487
0.169391
0.171819
0.173697
0.174937
0.175457
0.1752
0.174158
0.172316
0.169525
0.165522
0.160104
0.154
0.147906
0.141502
0.134921
0.128247
0.121544
0.114862
0.108243
0.101713
0.0952914
0.0889897
0.0828179
0.076786
0.0709057
0.0651889
0.059647
0.0542891
0.0491215
0.0441468
0.0393653
0.0347747
0.0303717
0.0261526
0.0221132
0.0182492
0.0145564
0.0110304
0.00767085
0.0044838
0.00147102
0.136831
0.141882
0.14684
0.151686
0.156386
0.160894
0.165161
0.169139
0.172774
0.176002
0.178746
0.180924
0.18244
0.183198
0.18313
0.182219
0.180452
0.177676
0.173621
0.168071
0.161769
0.155448
0.148783
0.141917
0.134939
0.12792
0.120915
0.113969
0.107114
0.10037
0.0937507
0.087268
0.0809326
0.0747563
0.0687511
0.0629276
0.0572941
0.0518557
0.0466149
0.0415716
0.0367248
0.0320723
0.0276118
0.0233406
0.0192556
0.0153536
0.0116306
0.00808621
0.00472628
0.00155221
0.140685
0.146019
0.151274
0.156431
0.161456
0.166301
0.170914
0.175245
0.179236
0.182819
0.185912
0.188423
0.190246
0.191272
0.191419
0.190662
0.188985
0.186235
0.182136
0.176454
0.169948
0.16339
0.15645
0.149284
0.141989
0.134641
0.127301
0.120019
0.112829
0.105754
0.0988093
0.0920059
0.0853549
0.0788678
0.0725558
0.0664288
0.0604951
0.0547601
0.0492272
0.0438984
0.0387744
0.033855
0.0291394
0.024626
0.0203122
0.0161944
0.012268
0.00853083
0.00498707
0.00163781
0.144525
0.150158
0.155727
0.161216
0.166589
0.171795
0.176783
0.181496
0.185875
0.189847
0.193323
0.196202
0.198368
0.199694
0.200085
0.199505
0.197936
0.195226
0.191088
0.185275
0.178558
0.171753
0.164527
0.157049
0.149424
0.141736
0.134052
0.126425
0.118892
0.111477
0.104195
0.0970572
0.0900737
0.0832547
0.0766112
0.0701535
0.0638911
0.0578319
0.0519822
0.0463468
0.0409291
0.0357306
0.0307513
0.0259894
0.0214412
0.0171008
0.0129612
0.00901798
0.00527395
0.00173027
0.148342
0.154289
0.160191
0.166033
0.171778
0.177374
0.182765
0.187893
0.192695
0.197091
0.200987
0.204274
0.206819
0.208482
0.209148
0.20877
0.207329
0.204671
0.200503
0.194561
0.187629
0.180568
0.173045
0.165243
0.157279
0.149241
0.141204
0.133222
0.125335
0.117567
0.109933
0.102442
0.0951023
0.0879247
0.0809204
0.074102
0.0674823
0.0610732
0.0548851
0.0489262
0.0432019
0.0377148
0.0324641
0.0274463
0.0226547
0.0180804
0.0137132
0.0095471
0.00558587
0.00183177
0.152124
0.158401
0.164656
0.170874
0.177017
0.183032
0.188859
0.194437
0.199698
0.204558
0.208915
0.212649
0.215616
0.217653
0.218627
0.21848
0.217187
0.214597
0.21041
0.204343
0.197192
0.18987
0.182042
0.173909
0.165595
0.157198
0.148795
0.140445
0.132189
0.12405
0.116042
0.108172
0.100449
0.0928827
0.0854878
0.0782806
0.0712788
0.0644989
0.0579552
0.0516585
0.0456151
0.039827
0.0342916
0.0290024
0.0239495
0.0191217
0.0145076
0.0101021
0.00591182
0.00194009
0.155857
0.162483
0.169112
0.17573
0.1823
0.188764
0.195061
0.201126
0.206886
0.212252
0.217114
0.22134
0.224774
0.227227
0.228546
0.228658
0.227538
0.225035
0.220842
0.214659
0.207291
0.199704
0.191566
0.183092
0.174417
0.165647
0.156863
0.148126
0.139479
0.130944
0.122534
0.114256
0.106119
0.0981366
0.0903257
0.0827081
0.0753062
0.0681402
0.0612269
0.0545775
0.0481978
0.0420878
0.0362426
0.0306533
0.0253095
0.0202007
0.015318
0.0106595
0.00623604
0.00204902
0.15953
0.166522
0.173546
0.180591
0.187616
0.194563
0.201367
0.207958
0.214261
0.220179
0.225593
0.230358
0.234309
0.237222
0.238926
0.239333
0.238413
0.236019
0.231838
0.225551
0.21797
0.210117
0.201663
0.192838
0.18379
0.174628
0.16544
0.156291
0.147223
0.138262
0.129418
0.120701
0.112124
0.103701
0.0954565
0.0874149
0.0796013
0.0720374
0.0647397
0.0577182
0.0509767
0.044513
0.0383214
0.0323942
0.0267244
0.0213062
0.0161358
0.0112145
0.0065561
0.00215622
0.163126
0.170504
0.177946
0.185444
0.192956
0.200422
0.20777
0.214931
0.221821
0.228339
0.234357
0.23971
0.244238
0.247656
0.249792
0.250532
0.249845
0.247588
0.243441
0.237066
0.229279
0.221161
0.212383
0.203195
0.193753
0.184176
0.174555
0.16496
0.155437
0.146012
0.136701
0.127517
0.118476
0.109598
0.100908
0.0924331
0.084198
0.0762227
0.0685214
0.0611017
0.0539658
0.0471119
0.0405366
0.0342376
0.0282145
0.0224674
0.0169958
0.0118013
0.00689611
0.00226933
0.16663
0.174412
0.182296
0.190275
0.198307
0.206326
0.214261
0.222034
0.22956
0.23673
0.243409
0.24942
0.254555
0.258547
0.261167
0.262286
0.26187
0.259782
0.255697
0.249252
0.241268
0.232884
0.223774
0.214205
0.204345
0.194321
0.184232
0.174152
0.164133
0.154208
0.144397
0.134721
0.125198
0.11585
0.106705
0.097785
0.0891132
0.0807058
0.0725743
0.064725
0.0571616
0.0498866
0.0429034
0.0362164
0.0298302
0.0237472
0.0179647
0.0124788
0.00729615
0.00240233
0.170025
0.178229
0.186579
0.195068
0.203651
0.212262
0.220823
0.229256
0.237469
0.245347
0.252745
0.259473
0.265292
0.269918
0.273079
0.274628
0.274528
0.272647
0.268652
0.26216
0.253986
0.245333
0.235878
0.225906
0.215599
0.205092
0.194495
0.183888
0.173334
0.162872
0.152533
0.142341
0.132318
0.122485
0.112865
0.103478
0.0943426
0.0854718
0.0768766
0.068566
0.0605492
0.0528367
0.0454394
0.038366
0.0316203
0.025199
0.0190914
0.0132846
0.0077789
0.00256291
0.173291
0.181936
0.190775
0.199801
0.208968
0.218207
0.227438
0.236577
0.245531
0.254177
0.26236
0.269874
0.276455
0.281785
0.285554
0.287592
0.287858
0.286225
0.282354
0.275835
0.26748
0.258552
0.248734
0.238333
0.227545
0.216518
0.205371
0.194198
0.183071
0.172042
0.161149
0.150418
0.139871
0.129526
0.119401
0.109511
0.0998721
0.0904982
0.0814041
0.072606
0.0641213
0.0559679
0.0481599
0.0407036
0.0335952
0.0268207
0.0203596
0.0141926
0.00832074
0.00274159
0.17641
0.185512
0.194861
0.20445
0.214232
0.224136
0.234079
0.243975
0.253727
0.263207
0.272248
0.280627
0.288053
0.29417
0.298621
0.301215
0.301902
0.300562
0.296849
0.290326
0.281793
0.272581
0.262379
0.251519
0.240216
0.22863
0.216896
0.205122
0.193392
0.181769
0.170294
0.158997
0.147893
0.136998
0.126324
0.115885
0.105698
0.0957811
0.0861588
0.0768563
0.0678981
0.0593026
0.0510788
0.0432236
0.0357226
0.0285539
0.0216935
0.0151257
0.00886416
0.00291738
0.17936
0.188933
0.19881
0.208986
0.219413
0.230019
0.240718
0.251423
0.262036
0.272421
0.282401
0.291735
0.300098
0.30709
0.312311
0.315533
0.316703
0.315704
0.312185
0.305678
0.296969
0.28746
0.276852
0.265502
0.253647
0.241468
0.229114
0.216709
0.204349
0.192105
0.180021
0.168121
0.156419
0.144926
0.133653
0.122617
0.111841
0.101352
0.091184
0.0813681
0.0719287
0.062877
0.0542094
0.0459112
0.0379614
0.0303393
0.0230297
0.0160315
0.00937729
0.00308121
0.182116
0.192171
0.202593
0.213377
0.224477
0.23582
0.24732
0.258892
0.270431
0.281801
0.29281
0.303196
0.3126
0.320568
0.326653
0.330585
0.332303
0.331696
0.328408
0.321937
0.313052
0.303232
0.29219
0.280319
0.267879
0.255074
0.242071
0.229009
0.215994
0.203099
0.190367
0.177821
0.165472
0.15333
0.141411
0.129738
0.118345
0.107269
0.0965467
0.086207
0.0762651
0.0667197
0.057556
0.0487536
0.0402949
0.0321709
0.0243828
0.0169444
0.00989763
0.00325094
0.184651
0.195196
0.206175
0.217586
0.229387
0.241503
0.253853
0.266349
0.278889
0.291329
0.303465
0.315011
0.32557
0.334628
0.341679
0.346407
0.348744
0.348585
0.345566
0.339151
0.33009
0.319942
0.308441
0.296016
0.282959
0.269497
0.255817
0.242069
0.228366
0.214781
0.201357
0.188114
0.175066
0.162228
0.149623
0.137286
0.12526
0.113585
0.102295
0.0914066
0.0809195
0.0708225
0.0610995
0.0517375
0.042733
0.0340928
0.0258294
0.0179558
0.0105002
0.00345525
0.186935
0.197973
0.209519
0.221575
0.234102
0.247029
0.260277
0.273763
0.287381
0.300984
0.314354
0.327179
0.339016
0.349287
0.357418
0.363037
0.366069
0.366415
0.363707
0.357371