/*--------------------------------*- C++ -*----------------------------------*\
  =========                 |
  \\      /  F ield         | OpenFOAM: The Open Source CFD Toolbox
   \\    /   O peration     | Website:  https://openfoam.org
    \\  /    A nd           | Version:  9
     \\/     M anipulation  |
\*---------------------------------------------------------------------------*/
FoamFile
{
    format      ascii;
    class       surfaceScalarField;
    location    "0.09";
    object      phi;
}
// * * * * * * * * * * * * * * * * * * * * * * * * * * * * * * * * * * * * * //

dimensions      [0 3 -1 0 0 0 0];

internalField   nonuniform List<scalar> 
9850
(
6.35102e-07
1.0749e-05
6.35127e-07
1.07203e-05
6.35148e-07
1.07118e-05
6.35174e-07
1.07196e-05
6.35206e-07
1.07373e-05
6.35245e-07
1.07627e-05
6.35295e-07
1.07982e-05
6.35353e-07
1.08457e-05
6.35397e-07
1.09016e-05
6.35392e-07
1.09581e-05
6.35304e-07
1.1006e-05
6.3511e-07
1.10356e-05
6.34873e-07
1.10301e-05
6.34953e-07
1.09528e-05
6.35592e-07
1.07544e-05
6.35532e-07
1.04737e-05
6.34712e-07
1.03631e-05
6.35308e-07
1.05863e-05
6.35985e-07
1.08963e-05
6.3587e-07
1.10896e-05
6.35563e-07
9.12448e-06
6.35329e-07
8.71624e-06
6.35173e-07
8.31034e-06
6.35065e-07
7.91478e-06
6.34999e-07
7.53241e-06
6.34973e-07
7.1648e-06
6.34981e-07
6.81335e-06
6.35015e-07
6.47955e-06
6.35063e-07
6.16446e-06
6.3511e-07
5.86818e-06
6.35147e-07
5.58963e-06
6.35169e-07
5.32687e-06
6.35173e-07
5.07773e-06
6.35161e-07
4.84034e-06
6.35136e-07
4.61337e-06
6.35103e-07
4.39594e-06
6.35067e-07
4.18754e-06
6.35033e-07
3.98784e-06
6.35003e-07
3.79659e-06
6.3498e-07
3.61359e-06
6.34964e-07
3.43862e-06
6.34958e-07
3.27146e-06
6.3496e-07
3.11186e-06
6.34973e-07
2.95957e-06
6.34993e-07
2.81433e-06
6.3502e-07
2.6759e-06
6.35046e-07
2.54405e-06
6.35058e-07
2.41862e-06
6.3503e-07
2.29955e-06
2.18646e-06
6.34898e-07
1.07489e-05
6.34973e-07
1.07202e-05
6.35049e-07
1.07117e-05
6.35145e-07
1.07195e-05
6.35254e-07
1.07372e-05
6.35369e-07
1.07626e-05
6.35495e-07
1.07981e-05
6.35625e-07
1.08455e-05
6.35716e-07
1.09015e-05
6.3569e-07
1.09581e-05
6.35473e-07
1.10062e-05
6.35051e-07
1.1036e-05
6.34672e-07
1.10304e-05
6.3512e-07
1.09523e-05
6.36468e-07
1.0753e-05
6.36249e-07
1.04739e-05
6.34536e-07
1.03648e-05
6.35464e-07
1.05854e-05
6.36985e-07
1.08948e-05
6.37001e-07
1.10896e-05
6.36425e-07
9.12505e-06
6.35897e-07
8.71677e-06
6.3551e-07
8.31073e-06
6.35249e-07
7.91504e-06
6.35091e-07
7.53257e-06
6.35025e-07
7.16486e-06
6.35033e-07
6.81334e-06
6.3509e-07
6.47949e-06
6.35167e-07
6.16438e-06
6.35242e-07
5.86811e-06
6.35301e-07
5.58957e-06
6.35335e-07
5.32683e-06
6.35341e-07
5.07772e-06
6.35318e-07
4.84036e-06
6.35273e-07
4.61341e-06
6.35212e-07
4.396e-06
6.35146e-07
4.18761e-06
6.35081e-07
3.9879e-06
6.35025e-07
3.79665e-06
6.34981e-07
3.61363e-06
6.34954e-07
3.43865e-06
6.34944e-07
3.27147e-06
6.34953e-07
3.11185e-06
6.34979e-07
2.95955e-06
6.35019e-07
2.81429e-06
6.35066e-07
2.67585e-06
6.35105e-07
2.54401e-06
6.35107e-07
2.41862e-06
6.35028e-07
2.29963e-06
2.18665e-06
6.34644e-07
1.07487e-05
6.34786e-07
1.07201e-05
6.34923e-07
1.07116e-05
6.35088e-07
1.07194e-05
6.35275e-07
1.07371e-05
6.35468e-07
1.07624e-05
6.35664e-07
1.07979e-05
6.35849e-07
1.08454e-05
6.35965e-07
1.09014e-05
6.35917e-07
1.09581e-05
6.35617e-07
1.10065e-05
6.35077e-07
1.10366e-05
6.34665e-07
1.10308e-05
6.35342e-07
1.09517e-05
6.37151e-07
1.07512e-05
6.37047e-07
1.0474e-05
6.35056e-07
1.03668e-05
6.35931e-07
1.05845e-05
6.37738e-07
1.0893e-05
6.37898e-07
1.10894e-05
6.37256e-07
9.12569e-06
6.3659e-07
8.71743e-06
6.36071e-07
8.31125e-06
6.35707e-07
7.91541e-06
6.35487e-07
7.53279e-06
6.35394e-07
7.16496e-06
6.35401e-07
6.81334e-06
6.35469e-07
6.47942e-06
6.35561e-07
6.16429e-06
6.35648e-07
5.86802e-06
6.35712e-07
5.58951e-06
6.35744e-07
5.3268e-06
6.35742e-07
5.07772e-06
6.35707e-07
4.8404e-06
6.35646e-07
4.61347e-06
6.35568e-07
4.39608e-06
6.35485e-07
4.18769e-06
6.35404e-07
3.98798e-06
6.35336e-07
3.79672e-06
6.35284e-07
3.61369e-06
6.35253e-07
3.43868e-06
6.35245e-07
3.27148e-06
6.35261e-07
3.11184e-06
6.353e-07
2.95951e-06
6.35358e-07
2.81424e-06
6.35427e-07
2.67578e-06
6.35491e-07
2.54395e-06
6.35518e-07
2.41859e-06
6.35475e-07
2.29967e-06
2.18675e-06
6.34329e-07
1.07485e-05
6.34551e-07
1.07198e-05
6.34764e-07
1.07114e-05
6.35005e-07
1.07191e-05
6.35271e-07
1.07368e-05
6.35545e-07
1.07622e-05
6.35817e-07
1.07977e-05
6.36063e-07
1.08451e-05
6.36212e-07
1.09012e-05
6.36161e-07
1.09582e-05
6.35819e-07
1.10068e-05
6.3522e-07
1.10372e-05
6.34801e-07
1.10313e-05
6.35615e-07
1.09509e-05
6.37685e-07
1.07492e-05
6.37774e-07
1.04739e-05
6.35785e-07
1.03688e-05
6.36707e-07
1.05836e-05
6.38599e-07
1.08911e-05
6.38818e-07
1.10892e-05
6.3815e-07
9.12636e-06
6.37408e-07
8.71818e-06
6.36809e-07
8.31185e-06
6.3638e-07
7.91583e-06
6.36118e-07
7.53306e-06
6.36006e-07
7.16507e-06
6.36014e-07
6.81333e-06
6.36095e-07
6.47934e-06
6.36204e-07
6.16418e-06
6.36305e-07
5.86792e-06
6.36376e-07
5.58944e-06
6.36409e-07
5.32677e-06
6.36402e-07
5.07773e-06
6.36357e-07
4.84044e-06
6.36284e-07
4.61355e-06
6.36193e-07
4.39617e-06
6.36097e-07
4.18779e-06
6.36007e-07
3.98807e-06
6.35931e-07
3.79679e-06
6.35875e-07
3.61374e-06
6.35844e-07
3.43871e-06
6.3584e-07
3.27148e-06
6.35864e-07
3.11181e-06
6.35914e-07
2.95946e-06
6.35986e-07
2.81416e-06
6.36072e-07
2.6757e-06
6.36153e-07
2.54387e-06
6.36205e-07
2.41854e-06
6.36206e-07
2.29967e-06
2.18678e-06
6.33937e-07
1.07481e-05
6.34251e-07
1.07195e-05
6.34552e-07
1.07111e-05
6.34879e-07
1.07188e-05
6.35232e-07
1.07364e-05
6.35595e-07
1.07618e-05
6.35951e-07
1.07973e-05
6.36269e-07
1.08448e-05
6.36468e-07
1.09011e-05
6.36438e-07
1.09582e-05
6.36091e-07
1.10072e-05
6.35479e-07
1.10378e-05
6.35092e-07
1.10317e-05
6.36011e-07
1.09499e-05
6.38194e-07
1.0747e-05
6.38449e-07
1.04737e-05
6.36677e-07
1.03705e-05
6.37678e-07
1.05826e-05
6.39623e-07
1.08892e-05
6.39883e-07
1.1089e-05
6.39202e-07
9.12704e-06
6.38409e-07
8.71897e-06
6.37753e-07
8.3125e-06
6.3728e-07
7.91631e-06
6.3699e-07
7.53335e-06
6.36867e-07
7.16519e-06
6.36876e-07
6.81332e-06
6.36968e-07
6.47925e-06
6.37092e-07
6.16406e-06
6.37207e-07
5.86781e-06
6.3729e-07
5.58936e-06
6.37329e-07
5.32673e-06
6.37324e-07
5.07774e-06
6.37277e-07
4.84049e-06
6.372e-07
4.61362e-06
6.37104e-07
4.39626e-06
6.37002e-07
4.18789e-06
6.36907e-07
3.98817e-06
6.36828e-07
3.79687e-06
6.36771e-07
3.6138e-06
6.36741e-07
3.43874e-06
6.36741e-07
3.27148e-06
6.3677e-07
3.11179e-06
6.36826e-07
2.9594e-06
6.36904e-07
2.81409e-06
6.36994e-07
2.67561e-06
6.37079e-07
2.54378e-06
6.37141e-07
2.41848e-06
6.37167e-07
2.29964e-06
2.18678e-06
6.33472e-07
1.07476e-05
6.33884e-07
1.07191e-05
6.34283e-07
1.07107e-05
6.34707e-07
1.07184e-05
6.35158e-07
1.0736e-05
6.35617e-07
1.07613e-05
6.36066e-07
1.07969e-05
6.36465e-07
1.08444e-05
6.3673e-07
1.09008e-05
6.36743e-07
1.09582e-05
6.36421e-07
1.10075e-05
6.35834e-07
1.10384e-05
6.3551e-07
1.1032e-05
6.3652e-07
1.09489e-05
6.38773e-07
1.07447e-05
6.39175e-07
1.04733e-05
6.37666e-07
1.0372e-05
6.38783e-07
1.05815e-05
6.40792e-07
1.08872e-05
6.41106e-07
1.10886e-05
6.40429e-07
9.12772e-06
6.39608e-07
8.71979e-06
6.38918e-07
8.31319e-06
6.38419e-07
7.91681e-06
6.38114e-07
7.53365e-06
6.37987e-07
7.16532e-06
6.38001e-07
6.81331e-06
6.38103e-07
6.47915e-06
6.3824e-07
6.16392e-06
6.3837e-07
5.86768e-06
6.38465e-07
5.58926e-06
6.38515e-07
5.32668e-06
6.38516e-07
5.07774e-06
6.38475e-07
4.84053e-06
6.384e-07
4.6137e-06
6.38305e-07
4.39636e-06
6.38204e-07
4.18799e-06
6.38109e-07
3.98826e-06
6.38031e-07
3.79695e-06
6.37976e-07
3.61385e-06
6.37948e-07
3.43877e-06
6.3795e-07
3.27148e-06
6.37982e-07
3.11175e-06
6.3804e-07
2.95934e-06
6.38118e-07
2.81401e-06
6.38206e-07
2.67552e-06
6.38289e-07
2.5437e-06
6.38352e-07
2.41842e-06
6.38389e-07
2.29961e-06
2.18676e-06
6.32938e-07
1.07471e-05
6.33456e-07
1.07186e-05
6.33962e-07
1.07102e-05
6.34492e-07
1.07178e-05
6.35049e-07
1.07354e-05
6.35613e-07
1.07608e-05
6.36164e-07
1.07963e-05
6.36656e-07
1.08439e-05
6.37e-07
1.09004e-05
6.37075e-07
1.09581e-05
6.368e-07
1.10078e-05
6.36263e-07
1.10389e-05
6.36016e-07
1.10322e-05
6.37121e-07
1.09478e-05
6.39445e-07
1.07424e-05
6.40001e-07
1.04727e-05
6.38764e-07
1.03733e-05
6.40016e-07
1.05802e-05
6.42103e-07
1.08851e-05
6.42484e-07
1.10883e-05
6.41828e-07
9.12837e-06
6.41002e-07
8.72062e-06
6.403e-07
8.31389e-06
6.39792e-07
7.91731e-06
6.39484e-07
7.53396e-06
6.39362e-07
7.16544e-06
6.39387e-07
6.81328e-06
6.39504e-07
6.47903e-06
6.39657e-07
6.16377e-06
6.39803e-07
5.86753e-06
6.39913e-07
5.58915e-06
6.39976e-07
5.32662e-06
6.39988e-07
5.07772e-06
6.39955e-07
4.84056e-06
6.39887e-07
4.61377e-06
6.39797e-07
4.39645e-06
6.397e-07
4.18808e-06
6.39609e-07
3.98835e-06
6.39533e-07
3.79703e-06
6.3948e-07
3.61391e-06
6.39455e-07
3.43879e-06
6.39459e-07
3.27148e-06
6.39492e-07
3.11172e-06
6.39551e-07
2.95929e-06
6.39627e-07
2.81393e-06
6.39711e-07
2.67544e-06
6.39788e-07
2.54362e-06
6.39848e-07
2.41836e-06
6.39884e-07
2.29957e-06
2.18675e-06
6.32336e-07
1.07464e-05
6.32966e-07
1.0718e-05
6.33587e-07
1.07096e-05
6.34233e-07
1.07172e-05
6.34905e-07
1.07348e-05
6.35584e-07
1.07601e-05
6.36247e-07
1.07956e-05
6.36845e-07
1.08433e-05
6.37282e-07
1.09e-05
6.37436e-07
1.0958e-05
6.37228e-07
1.1008e-05
6.36759e-07
1.10394e-05
6.36597e-07
1.10324e-05
6.37801e-07
1.09466e-05
6.40201e-07
1.074e-05
6.40918e-07
1.0472e-05
6.39966e-07
1.03742e-05
6.41384e-07
1.05788e-05
6.43572e-07
1.08829e-05
6.44032e-07
1.10878e-05
6.43409e-07
9.129e-06
6.42592e-07
8.72143e-06
6.41893e-07
8.31459e-06
6.41391e-07
7.91782e-06
6.41093e-07
7.53426e-06
6.40985e-07
7.16555e-06
6.41027e-07
6.81324e-06
6.41164e-07
6.4789e-06
6.41338e-07
6.1636e-06
6.41505e-07
5.86737e-06
6.41635e-07
5.58902e-06
6.41716e-07
5.32654e-06
6.41743e-07
5.0777e-06
6.41722e-07
4.84059e-06
6.41663e-07
4.61383e-06
6.41581e-07
4.39653e-06
6.4149e-07
4.18818e-06
6.41403e-07
3.98844e-06
6.41331e-07
3.7971e-06
6.41281e-07
3.61396e-06
6.41258e-07
3.43882e-06
6.41264e-07
3.27147e-06
6.41297e-07
3.11169e-06
6.41353e-07
2.95923e-06
6.41426e-07
2.81386e-06
6.41502e-07
2.67536e-06
6.4157e-07
2.54355e-06
6.4162e-07
2.41831e-06
6.4165e-07
2.29954e-06
2.18673e-06
6.31662e-07
1.07456e-05
6.32412e-07
1.07172e-05
6.33157e-07
1.07088e-05
6.33927e-07
1.07164e-05
6.34724e-07
1.0734e-05
6.35529e-07
1.07593e-05
6.36316e-07
1.07949e-05
6.37032e-07
1.08426e-05
6.37578e-07
1.08995e-05
6.37828e-07
1.09577e-05
6.37706e-07
1.10081e-05
6.37318e-07
1.10397e-05
6.37252e-07
1.10325e-05
6.38556e-07
1.09453e-05
6.41036e-07
1.07375e-05
6.41922e-07
1.04711e-05
6.41268e-07
1.03749e-05
6.42887e-07
1.05772e-05
6.45207e-07
1.08806e-05
6.45761e-07
1.10872e-05
6.45179e-07
9.12958e-06
6.44383e-07
8.72223e-06
6.43701e-07
8.31528e-06
6.43215e-07
7.9183e-06
6.42938e-07
7.53453e-06
6.42852e-07
7.16563e-06
6.42918e-07
6.81317e-06
6.43081e-07
6.47873e-06
6.43282e-07
6.1634e-06
6.43475e-07
5.86717e-06
6.4363e-07
5.58887e-06
6.43733e-07
5.32643e-06
6.4378e-07
5.07765e-06
6.43775e-07
4.84059e-06
6.43729e-07
4.61387e-06
6.43657e-07
4.3966e-06
6.43574e-07
4.18826e-06
6.43493e-07
3.98852e-06
6.43426e-07
3.79717e-06
6.43379e-07
3.614e-06
6.43358e-07
3.43884e-06
6.43364e-07
3.27147e-06
6.43396e-07
3.11166e-06
6.43449e-07
2.95918e-06
6.43514e-07
2.81379e-06
6.43581e-07
2.67529e-06
6.43637e-07
2.5435e-06
6.43675e-07
2.41827e-06
6.43696e-07
2.29952e-06
2.18673e-06
6.30917e-07
1.07447e-05
6.31794e-07
1.07163e-05
6.3267e-07
1.07079e-05
6.33574e-07
1.07155e-05
6.34506e-07
1.0733e-05
6.35447e-07
1.07584e-05
6.3637e-07
1.07939e-05
6.37217e-07
1.08417e-05
6.37886e-07
1.08988e-05
6.38249e-07
1.09574e-05
6.38228e-07
1.10081e-05
6.37938e-07
1.104e-05
6.37978e-07
1.10324e-05
6.39389e-07
1.09439e-05
6.41956e-07
1.07349e-05
6.4302e-07
1.04701e-05
6.42679e-07
1.03752e-05
6.44526e-07
1.05753e-05
6.47004e-07
1.08781e-05
6.47671e-07
1.10866e-05
6.47143e-07
9.13011e-06
6.4638e-07
8.72299e-06
6.45725e-07
8.31593e-06
6.45268e-07
7.91876e-06
6.4502e-07
7.53478e-06
6.44964e-07
7.16569e-06
6.45062e-07
6.81307e-06
6.45257e-07
6.47854e-06
6.4549e-07
6.16316e-06
6.45715e-07
5.86695e-06
6.459e-07
5.58868e-06
6.4603e-07
5.3263e-06
6.46101e-07
5.07758e-06
6.46116e-07
4.84058e-06
6.46086e-07
4.6139e-06
6.46027e-07
4.39666e-06
6.45954e-07
4.18833e-06
6.45881e-07
3.98859e-06
6.45819e-07
3.79723e-06
6.45776e-07
3.61405e-06
6.45756e-07
3.43886e-06
6.45762e-07
3.27146e-06
6.45792e-07
3.11163e-06
6.4584e-07
2.95913e-06
6.45898e-07
2.81374e-06
6.45955e-07
2.67524e-06
6.46001e-07
2.54345e-06
6.46029e-07
2.41824e-06
6.46042e-07
2.29951e-06
2.18672e-06
6.30098e-07
1.07437e-05
6.31109e-07
1.07153e-05
6.32125e-07
1.07069e-05
6.33172e-07
1.07145e-05
6.34249e-07
1.07319e-05
6.35336e-07
1.07573e-05
6.36406e-07
1.07929e-05
6.37398e-07
1.08407e-05
6.38204e-07
1.0898e-05
6.38695e-07
1.09569e-05
6.38791e-07
1.1008e-05
6.38613e-07
1.10402e-05
6.38772e-07
1.10323e-05
6.40299e-07
1.09424e-05
6.42965e-07
1.07323e-05
6.44226e-07
1.04688e-05
6.44213e-07
1.03752e-05
6.46305e-07
1.05732e-05
6.4896e-07
1.08754e-05
6.4976e-07
1.10858e-05
6.49302e-07
9.13057e-06
6.48585e-07
8.72371e-06
6.4797e-07
8.31654e-06
6.47552e-07
7.91918e-06
6.47343e-07
7.53499e-06
6.47326e-07
7.16571e-06
6.47463e-07
6.81294e-06
6.47696e-07
6.4783e-06
6.47967e-07
6.16289e-06
6.48229e-07
5.86669e-06
6.48449e-07
5.58846e-06
6.48611e-07
5.32614e-06
6.48709e-07
5.07748e-06
6.48748e-07
4.84054e-06
6.48738e-07
4.61391e-06
6.48695e-07
4.39671e-06
6.48633e-07
4.18839e-06
6.48569e-07
3.98866e-06
6.48514e-07
3.79728e-06
6.48474e-07
3.61408e-06
6.48457e-07
3.43888e-06
6.48462e-07
3.27145e-06
6.48489e-07
3.1116e-06
6.48532e-07
2.95908e-06
6.48584e-07
2.81368e-06
6.48632e-07
2.67519e-06
6.4867e-07
2.54341e-06
6.48692e-07
2.41822e-06
6.487e-07
2.2995e-06
2.18672e-06
6.29205e-07
1.07425e-05
6.30357e-07
1.07142e-05
6.31521e-07
1.07058e-05
6.32719e-07
1.07133e-05
6.3395e-07
1.07307e-05
6.35196e-07
1.0756e-05
6.36424e-07
1.07916e-05
6.37573e-07
1.08396e-05
6.3853e-07
1.0897e-05
6.39163e-07
1.09562e-05
6.3939e-07
1.10078e-05
6.39338e-07
1.10403e-05
6.39631e-07
1.1032e-05
6.41285e-07
1.09407e-05
6.44068e-07
1.07295e-05
6.45546e-07
1.04673e-05
6.45876e-07
1.03749e-05
6.4823e-07
1.05709e-05
6.51075e-07
1.08726e-05
6.52027e-07
1.10848e-05
6.51656e-07
9.13094e-06
6.51001e-07
8.72436e-06
6.50439e-07
8.31711e-06
6.50071e-07
7.91954e-06
6.4991e-07
7.53515e-06
6.49942e-07
7.16567e-06
6.50125e-07
6.81275e-06
6.50404e-07
6.47803e-06
6.50719e-07
6.16258e-06
6.51024e-07
5.86638e-06
6.51284e-07
5.5882e-06
6.51482e-07
5.32595e-06
6.51612e-07
5.07735e-06
6.51677e-07
4.84047e-06
6.51689e-07
4.6139e-06
6.51663e-07
4.39673e-06
6.51616e-07
4.18844e-06
6.51563e-07
3.98871e-06
6.51514e-07
3.79733e-06
6.5148e-07
3.61412e-06
6.51464e-07
3.43889e-06
6.51469e-07
3.27145e-06
6.51493e-07
3.11158e-06
6.51532e-07
2.95905e-06
6.51577e-07
2.81364e-06
6.51619e-07
2.67514e-06
6.51651e-07
2.54338e-06
6.51668e-07
2.4182e-06
6.51673e-07
2.29949e-06
2.18672e-06
6.28234e-07
1.07412e-05
6.29535e-07
1.07129e-05
6.30854e-07
1.07044e-05
6.32213e-07
1.07119e-05
6.33609e-07
1.07293e-05
6.35023e-07
1.07546e-05
6.36422e-07
1.07902e-05
6.3774e-07
1.08383e-05
6.38862e-07
1.08959e-05
6.3965e-07
1.09555e-05
6.40023e-07
1.10074e-05
6.40112e-07
1.10402e-05
6.40551e-07
1.10315e-05
6.42348e-07
1.09389e-05
6.45265e-07
1.07266e-05
6.46981e-07
1.04656e-05
6.47669e-07
1.03742e-05
6.50301e-07
1.05683e-05
6.53354e-07
1.08695e-05
6.54478e-07
1.10837e-05
6.5421e-07
9.13121e-06
6.53632e-07
8.72494e-06
6.53134e-07
8.3176e-06
6.52828e-07
7.91985e-06
6.52726e-07
7.53525e-06
6.52814e-07
7.16559e-06
6.53052e-07
6.81252e-06
6.53384e-07
6.47769e-06
6.53751e-07
6.16221e-06
6.54104e-07
5.86603e-06
6.54409e-07
5.58789e-06
6.54647e-07
5.32571e-06
6.54813e-07
5.07719e-06
6.54909e-07
4.84038e-06
6.54946e-07
4.61386e-06
6.5494e-07
4.39674e-06
6.54909e-07
4.18847e-06
6.54867e-07
3.98875e-06
6.54828e-07
3.79737e-06
6.54799e-07
3.61415e-06
6.54786e-07
3.4389e-06
6.54791e-07
3.27144e-06
6.54812e-07
3.11155e-06
6.54846e-07
2.95901e-06
6.54885e-07
2.8136e-06
6.5492e-07
2.67511e-06
6.54944e-07
2.54336e-06
6.54956e-07
2.41819e-06
6.54958e-07
2.29949e-06
2.18673e-06
6.27181e-07
1.07398e-05
6.28638e-07
1.07114e-05
6.30122e-07
1.0703e-05
6.3165e-07
1.07104e-05
6.33221e-07
1.07277e-05
6.34815e-07
1.0753e-05
6.36397e-07
1.07886e-05
6.37898e-07
1.08368e-05
6.39198e-07
1.08946e-05
6.40157e-07
1.09545e-05
6.40689e-07
1.10069e-05
6.40934e-07
1.10399e-05
6.41533e-07
1.10309e-05
6.43486e-07
1.0937e-05
6.46556e-07
1.07235e-05
6.48526e-07
1.04636e-05
6.49587e-07
1.03732e-05
6.5252e-07
1.05653e-05
6.55806e-07
1.08662e-05
6.57122e-07
1.10824e-05
6.56971e-07
9.13136e-06
6.56482e-07
8.72543e-06
6.56062e-07
8.31802e-06
6.55828e-07
7.92009e-06
6.55796e-07
7.53528e-06
6.5595e-07
7.16543e-06
6.56251e-07
6.81222e-06
6.56643e-07
6.4773e-06
6.57067e-07
6.16178e-06
6.57474e-07
5.86562e-06
6.5783e-07
5.58754e-06
6.58115e-07
5.32542e-06
6.5832e-07
5.07698e-06
6.5845e-07
4.84025e-06
6.58516e-07
4.6138e-06
6.58533e-07
4.39672e-06
6.5852e-07
4.18849e-06
6.58492e-07
3.98878e-06
6.58462e-07
3.7974e-06
6.5844e-07
3.61417e-06
6.5843e-07
3.43891e-06
6.58434e-07
3.27144e-06
6.58453e-07
3.11154e-06
6.5848e-07
2.95898e-06
6.58509e-07
2.81357e-06
6.58534e-07
2.67508e-06
6.58549e-07
2.54334e-06
6.58554e-07
2.41818e-06
6.58553e-07
2.29949e-06
2.18673e-06
6.26041e-07
1.07382e-05
6.27663e-07
1.07098e-05
6.2932e-07
1.07013e-05
6.31027e-07
1.07087e-05
6.32784e-07
1.0726e-05
6.34569e-07
1.07512e-05
6.36346e-07
1.07869e-05
6.38043e-07
1.08351e-05
6.39536e-07
1.08931e-05
6.4068e-07
1.09533e-05
6.41389e-07
1.10062e-05
6.41804e-07
1.10395e-05
6.42578e-07
1.10302e-05
6.44702e-07
1.09348e-05
6.47937e-07
1.07203e-05
6.50175e-07
1.04614e-05
6.51626e-07
1.03717e-05
6.5489e-07
1.05621e-05
6.58437e-07
1.08627e-05
6.59966e-07
1.10809e-05
6.59947e-07
9.13137e-06
6.59559e-07
8.72582e-06
6.59229e-07
8.31835e-06
6.59077e-07
7.92024e-06
6.59124e-07
7.53524e-06
6.59352e-07
7.1652e-06
6.59724e-07
6.81184e-06
6.60184e-07
6.47684e-06
6.60673e-07
6.1613e-06
6.61141e-07
5.86516e-06
6.61554e-07
5.58713e-06
6.61889e-07
5.32509e-06
6.6214e-07
5.07673e-06
6.62308e-07
4.84008e-06
6.62406e-07
4.6137e-06
6.6245e-07
4.39668e-06
6.62458e-07
4.18848e-06
6.62446e-07
3.98879e-06
6.62427e-07
3.79742e-06
6.62412e-07
3.61419e-06
6.62405e-07
3.43892e-06
6.62409e-07
3.27143e-06
6.62424e-07
3.11152e-06
6.62444e-07
2.95897e-06
6.62463e-07
2.81355e-06
6.62475e-07
2.67507e-06
6.62478e-07
2.54334e-06
6.62469e-07
2.41819e-06
6.62453e-07
2.29951e-06
2.18674e-06
6.24811e-07
1.07364e-05
6.26605e-07
1.0708e-05
6.28443e-07
1.06995e-05
6.3034e-07
1.07068e-05
6.32292e-07
1.0724e-05
6.3428e-07
1.07492e-05
6.36266e-07
1.07849e-05
6.38173e-07
1.08332e-05
6.39874e-07
1.08914e-05
6.41219e-07
1.0952e-05
6.42119e-07
1.10053e-05
6.42722e-07
1.10389e-05
6.43687e-07
1.10292e-05
6.45994e-07
1.09325e-05
6.49408e-07
1.07169e-05
6.51926e-07
1.04589e-05
6.53787e-07
1.03698e-05
6.57413e-07
1.05584e-05
6.61252e-07
1.08589e-05
6.63017e-07
1.10791e-05
6.63144e-07
9.13125e-06
6.6287e-07
8.72609e-06
6.62639e-07
8.31859e-06
6.62581e-07
7.9203e-06
6.62716e-07
7.5351e-06
6.63028e-07
7.16489e-06
6.63478e-07
6.81139e-06
6.64013e-07
6.47631e-06
6.64573e-07
6.16073e-06
6.65109e-07
5.86462e-06
6.65585e-07
5.58665e-06
6.65978e-07
5.32469e-06
6.66279e-07
5.07643e-06
6.66491e-07
4.83987e-06
6.66625e-07
4.61356e-06
6.66699e-07
4.3966e-06
6.6673e-07
4.18845e-06
6.66736e-07
3.98879e-06
6.6673e-07
3.79743e-06
6.66724e-07
3.61419e-06
6.66722e-07
3.43892e-06
6.66728e-07
3.27143e-06
6.66739e-07
3.11151e-06
6.66753e-07
2.95895e-06
6.66764e-07
2.81354e-06
6.66766e-07
2.67507e-06
6.66751e-07
2.54335e-06
6.66715e-07
2.41823e-06
6.6666e-07
2.29957e-06
2.18679e-06
6.23485e-07
1.07345e-05
6.25459e-07
1.0706e-05
6.27488e-07
1.06974e-05
6.29583e-07
1.07047e-05
6.31742e-07
1.07219e-05
6.33945e-07
1.0747e-05
6.36152e-07
1.07827e-05
6.38284e-07
1.0831e-05
6.40207e-07
1.08895e-05
6.4177e-07
1.09504e-05
6.42879e-07
1.10042e-05
6.43686e-07
1.10381e-05
6.44858e-07
1.1028e-05
6.47361e-07
1.093e-05
6.50966e-07
1.07133e-05
6.53783e-07
1.04561e-05
6.56076e-07
1.03676e-05
6.60093e-07
1.05544e-05
6.64253e-07
1.08547e-05
6.66278e-07
1.10771e-05
6.66567e-07
9.13096e-06
6.6642e-07
8.72624e-06
6.663e-07
8.31871e-06
6.66346e-07
7.92025e-06
6.66579e-07
7.53487e-06
6.66983e-07
7.16449e-06
6.67519e-07
6.81086e-06
6.68136e-07
6.47569e-06
6.68775e-07
6.1601e-06
6.69386e-07
5.86401e-06
6.69931e-07
5.58611e-06
6.70388e-07
5.32424e-06
6.70745e-07
5.07607e-06
6.71005e-07
4.83961e-06
6.7118e-07
4.61339e-06
6.71287e-07
4.3965e-06
6.71344e-07
4.18839e-06
6.7137e-07
3.98876e-06
6.7138e-07
3.79742e-06
6.71384e-07
3.61419e-06
6.71389e-07
3.43892e-06
6.71397e-07
3.27142e-06
6.71408e-07
3.1115e-06
6.71418e-07
2.95894e-06
6.71423e-07
2.81354e-06
6.71413e-07
2.67508e-06
6.71379e-07
2.54339e-06
6.71307e-07
2.4183e-06
6.71205e-07
2.29967e-06
2.18687e-06
6.22059e-07
1.07324e-05
6.24221e-07
1.07039e-05
6.26449e-07
1.06952e-05
6.28753e-07
1.07024e-05
6.3113e-07
1.07195e-05
6.33559e-07
1.07446e-05
6.36e-07
1.07802e-05
6.3837e-07
1.08287e-05
6.40533e-07
1.08873e-05
6.42328e-07
1.09486e-05
6.43664e-07
1.10028e-05
6.44693e-07
1.10371e-05
6.46088e-07
1.10266e-05
6.48802e-07
1.09273e-05
6.52613e-07
1.07094e-05
6.55748e-07
1.04529e-05
6.58497e-07
1.03648e-05
6.62933e-07
1.055e-05
6.6744e-07
1.08502e-05
6.6975e-07
1.10748e-05
6.70219e-07
9.13049e-06
6.70213e-07
8.72624e-06
6.70217e-07
8.3187e-06
6.70379e-07
7.92009e-06
6.70719e-07
7.53453e-06
6.71224e-07
7.16398e-06
6.71856e-07
6.81022e-06
6.72562e-07
6.47498e-06
6.73287e-07
6.15937e-06
6.7398e-07
5.86332e-06
6.74601e-07
5.58548e-06
6.75127e-07
5.32371e-06
6.75546e-07
5.07565e-06
6.75859e-07
4.83929e-06
6.76078e-07
4.61317e-06
6.76222e-07
4.39635e-06
6.76308e-07
4.1883e-06
6.76357e-07
3.98871e-06
6.76384e-07
3.79739e-06
6.76399e-07
3.61417e-06
6.7641e-07
3.43891e-06
6.76421e-07
3.27141e-06
6.76431e-07
3.11149e-06
6.76438e-07
2.95893e-06
6.76435e-07
2.81354e-06
6.76413e-07
2.6751e-06
6.76358e-07
2.54344e-06
6.76259e-07
2.4184e-06
6.7613e-07
2.2998e-06
2.18697e-06
6.20528e-07
1.07301e-05
6.22886e-07
1.07015e-05
6.25321e-07
1.06928e-05
6.27844e-07
1.06999e-05
6.30448e-07
1.07169e-05
6.33116e-07
1.07419e-05
6.35805e-07
1.07775e-05
6.38429e-07
1.0826e-05
6.40844e-07
1.08849e-05
6.4289e-07
1.09466e-05
6.44469e-07
1.10013e-05
6.45739e-07
1.10358e-05
6.47374e-07
1.1025e-05
6.50315e-07
1.09244e-05
6.54352e-07
1.07054e-05
6.57829e-07
1.04494e-05
6.61057e-07
1.03616e-05
6.65936e-07
1.05451e-05
6.70814e-07
1.08453e-05
6.73434e-07
1.10721e-05
6.74102e-07
9.12982e-06
6.74254e-07
8.72609e-06
6.74396e-07
8.31856e-06
6.74684e-07
7.9198e-06
6.75143e-07
7.53407e-06
6.75759e-07
7.16337e-06
6.76494e-07
6.80949e-06
6.773e-07
6.47418e-06
6.78118e-07
6.15855e-06
6.78899e-07
5.86253e-06
6.79603e-07
5.58478e-06
6.80204e-07
5.32311e-06
6.8069e-07
5.07517e-06
6.81061e-07
4.83892e-06
6.81329e-07
4.6129e-06
6.81513e-07
4.39617e-06
6.81631e-07
4.18818e-06
6.81704e-07
3.98864e-06
6.81748e-07
3.79735e-06
6.81776e-07
3.61415e-06
6.81794e-07
3.43889e-06
6.81807e-07
3.2714e-06
6.81815e-07
3.11148e-06
6.81815e-07
2.95893e-06
6.81802e-07
2.81355e-06
6.81766e-07
2.67514e-06
6.81695e-07
2.54351e-06
6.81585e-07
2.41851e-06
6.81456e-07
2.29993e-06
2.18706e-06
6.18888e-07
1.07277e-05
6.21448e-07
1.06989e-05
6.241e-07
1.06901e-05
6.2685e-07
1.06971e-05
6.29694e-07
1.07141e-05
6.32612e-07
1.0739e-05
6.35562e-07
1.07746e-05
6.38453e-07
1.08232e-05
6.41137e-07
1.08822e-05
6.43449e-07
1.09443e-05
6.45289e-07
1.09994e-05
6.46817e-07
1.10343e-05
6.48712e-07
1.10231e-05
6.51898e-07
1.09212e-05
6.56184e-07
1.07011e-05
6.60031e-07
1.04456e-05
6.63761e-07
1.03578e-05
6.69104e-07
1.05398e-05
6.74377e-07
1.084e-05
6.7733e-07
1.10692e-05
6.78218e-07
9.12893e-06
6.78546e-07
8.72576e-06
6.7884e-07
8.31826e-06
6.79269e-07
7.91937e-06
6.79858e-07
7.53348e-06
6.80595e-07
7.16263e-06
6.81445e-07
6.80864e-06
6.82357e-07
6.47326e-06
6.83277e-07
6.15763e-06
6.84154e-07
5.86166e-06
6.84948e-07
5.58399e-06
6.8563e-07
5.32243e-06
6.86188e-07
5.07461e-06
6.86622e-07
4.83849e-06
6.86943e-07
4.61258e-06
6.87169e-07
4.39594e-06
6.87322e-07
4.18803e-06
6.87422e-07
3.98854e-06
6.87485e-07
3.79728e-06
6.87525e-07
3.61411e-06
6.8755e-07
3.43886e-06
6.87565e-07
3.27138e-06
6.87569e-07
3.11148e-06
6.87562e-07
2.95894e-06
6.87537e-07
2.81358e-06
6.87489e-07
2.67519e-06
6.87409e-07
2.54359e-06
6.87301e-07
2.41862e-06
6.87186e-07
2.30004e-06
2.18714e-06
6.17131e-07
1.0725e-05
6.19903e-07
1.06962e-05
6.22779e-07
1.06872e-05
6.25766e-07
1.06941e-05
6.2886e-07
1.0711e-05
6.32041e-07
1.07358e-05
6.35265e-07
1.07714e-05
6.38438e-07
1.082e-05
6.41406e-07
1.08793e-05
6.44e-07
1.09417e-05
6.46118e-07
1.09973e-05
6.47924e-07
1.10325e-05
6.50095e-07
1.10209e-05
6.53548e-07
1.09177e-05
6.58113e-07
1.06966e-05
6.6236e-07
1.04414e-05
6.66613e-07
1.03536e-05
6.72441e-07
1.05339e-05
6.78131e-07
1.08344e-05
6.81444e-07
1.10659e-05
6.82573e-07
9.1278e-06
6.83094e-07
8.72524e-06
6.83558e-07
8.3178e-06
6.8414e-07
7.91879e-06
6.84872e-07
7.53275e-06
6.85742e-07
7.16176e-06
6.86715e-07
6.80766e-06
6.87744e-07
6.47224e-06
6.88774e-07
6.1566e-06
6.89755e-07
5.86068e-06
6.90645e-07
5.5831e-06
6.91415e-07
5.32166e-06
6.92051e-07
5.07397e-06
6.92553e-07
4.83799e-06
6.9293e-07
4.6122e-06
6.93204e-07
4.39567e-06
6.93394e-07
4.18784e-06
6.93522e-07
3.98841e-06
6.93607e-07
3.7972e-06
6.93661e-07
3.61405e-06
6.93694e-07
3.43883e-06
6.93711e-07
3.27137e-06
6.93713e-07
3.11147e-06
6.93698e-07
2.95896e-06
6.93663e-07
2.81361e-06
6.93605e-07
2.67525e-06
6.93521e-07
2.54368e-06
6.93419e-07
2.41872e-06
6.93319e-07
2.30014e-06
2.18721e-06
6.15253e-07
1.07222e-05
6.18243e-07
1.06932e-05
6.21352e-07
1.06841e-05
6.24585e-07
1.06909e-05
6.2794e-07
1.07076e-05
6.31397e-07
1.07324e-05
6.34909e-07
1.07679e-05
6.38377e-07
1.08165e-05
6.41645e-07
1.0876e-05
6.44537e-07
1.09388e-05
6.4695e-07
1.09949e-05
6.49051e-07
1.10304e-05
6.51519e-07
1.10184e-05
6.55263e-07
1.0914e-05
6.6014e-07
1.06917e-05
6.64819e-07
1.04367e-05
6.69616e-07
1.03488e-05
6.7595e-07
1.05276e-05
6.8208e-07
1.08282e-05
6.85778e-07
1.10622e-05
6.87169e-07
9.12641e-06
6.87904e-07
8.72451e-06
6.88553e-07
8.31715e-06
6.89304e-07
7.91804e-06
6.90192e-07
7.53186e-06
6.91207e-07
7.16075e-06
6.92315e-07
6.80656e-06
6.93471e-07
6.47108e-06
6.9462e-07
6.15545e-06
6.95713e-07
5.85958e-06
6.96706e-07
5.5821e-06
6.97571e-07
5.32079e-06
6.9829e-07
5.07325e-06
6.98864e-07
4.83741e-06
6.99304e-07
4.61176e-06
6.99627e-07
4.39535e-06
6.99858e-07
4.18761e-06
7.00018e-07
3.98825e-06
7.00127e-07
3.79709e-06
7.00197e-07
3.61398e-06
7.0024e-07
3.43879e-06
7.00261e-07
3.27135e-06
7.00263e-07
3.11147e-06
7.00243e-07
2.95898e-06
7.00202e-07
2.81365e-06
7.00136e-07
2.67531e-06
7.00049e-07
2.54377e-06
6.9995e-07
2.41882e-06
6.99857e-07
2.30023e-06
2.18727e-06
6.13245e-07
1.07191e-05
6.16461e-07
1.069e-05
6.19812e-07
1.06808e-05
6.23301e-07
1.06874e-05
6.26927e-07
1.0704e-05
6.30672e-07
1.07286e-05
6.34485e-07
1.0764e-05
6.38264e-07
1.08127e-05
6.41847e-07
1.08724e-05
6.45054e-07
1.09356e-05
6.47779e-07
1.09922e-05
6.50191e-07
1.1028e-05
6.52975e-07
1.10157e-05
6.57038e-07
1.09099e-05
6.62266e-07
1.06864e-05
6.6741e-07
1.04315e-05
6.72772e-07
1.03434e-05
6.79631e-07
1.05207e-05
6.86227e-07
1.08216e-05
6.90337e-07
1.10581e-05
6.92012e-07
9.12474e-06
6.9298e-07
8.72354e-06
6.93832e-07
8.3163e-06
6.94767e-07
7.9171e-06
6.95826e-07
7.5308e-06
6.96998e-07
7.15957e-06
6.98254e-07
6.8053e-06
6.99547e-07
6.46979e-06
7.00826e-07
6.15417e-06
7.02039e-07
5.85837e-06
7.03144e-07
5.581e-06
7.04109e-07
5.31983e-06
7.04919e-07
5.07244e-06
7.0557e-07
4.83676e-06
7.06075e-07
4.61126e-06
7.06454e-07
4.39497e-06
7.06729e-07
4.18734e-06
7.06924e-07
3.98806e-06
7.07058e-07
3.79695e-06
7.07148e-07
3.61389e-06
7.07203e-07
3.43873e-06
7.07231e-07
3.27132e-06
7.07235e-07
3.11147e-06
7.07214e-07
2.959e-06
7.07168e-07
2.8137e-06
7.07097e-07
2.67538e-06
7.07006e-07
2.54386e-06
7.06905e-07
2.41892e-06
7.06813e-07
2.30033e-06
2.18732e-06
6.11101e-07
1.07158e-05
6.14551e-07
1.06865e-05
6.18151e-07
1.06772e-05
6.21905e-07
1.06837e-05
6.25814e-07
1.07001e-05
6.29859e-07
1.07246e-05
6.33988e-07
1.07599e-05
6.38092e-07
1.08086e-05
6.42006e-07
1.08685e-05
6.45544e-07
1.09321e-05
6.48597e-07
1.09891e-05
6.51338e-07
1.10252e-05
6.54457e-07
1.10125e-05
6.58869e-07
1.09055e-05
6.64488e-07
1.06808e-05
6.70132e-07
1.04259e-05
6.76078e-07
1.03375e-05
6.83486e-07
1.05133e-05
6.90576e-07
1.08145e-05
6.95126e-07
1.10535e-05
6.97107e-07
9.12275e-06
6.98329e-07
8.72231e-06
6.99401e-07
8.31523e-06
7.00537e-07
7.91596e-06
7.01781e-07
7.52955e-06
7.03125e-07
7.15823e-06
7.0454e-07
6.80388e-06
7.05983e-07
6.46834e-06
7.07401e-07
6.15275e-06
7.08745e-07
5.85703e-06
7.0997e-07
5.57977e-06
7.11043e-07
5.31875e-06
7.11949e-07
5.07154e-06
7.12684e-07
4.83603e-06
7.1326e-07
4.61068e-06
7.13698e-07
4.39453e-06
7.14021e-07
4.18701e-06
7.14254e-07
3.98782e-06
7.14417e-07
3.79679e-06
7.14528e-07
3.61378e-06
7.14598e-07
3.43866e-06
7.14635e-07
3.27128e-06
7.14642e-07
3.11146e-06
7.14621e-07
2.95902e-06
7.14572e-07
2.81375e-06
7.14496e-07
2.67546e-06
7.14399e-07
2.54395e-06
7.14293e-07
2.41903e-06
7.14196e-07
2.30042e-06
2.18739e-06
6.08812e-07
1.07123e-05
6.12503e-07
1.06828e-05
6.1636e-07
1.06733e-05
6.2039e-07
1.06796e-05
6.24593e-07
1.06959e-05
6.28951e-07
1.07202e-05
6.33409e-07
1.07555e-05
6.37853e-07
1.08042e-05
6.42114e-07
1.08642e-05
6.45999e-07
1.09282e-05
6.49398e-07
1.09857e-05
6.52484e-07
1.10221e-05
6.5596e-07
1.10091e-05
6.60753e-07
1.09007e-05
6.66802e-07
1.06748e-05
6.72977e-07
1.04197e-05
6.79531e-07
1.03309e-05
6.87514e-07
1.05053e-05
6.95131e-07
1.08069e-05
7.00152e-07
1.10485e-05
7.02462e-07
9.12044e-06
7.03956e-07
8.72082e-06
7.05268e-07
8.31391e-06
7.06622e-07
7.91461e-06
7.08067e-07
7.52811e-06
7.09597e-07
7.1567e-06
7.11186e-07
6.8023e-06
7.1279e-07
6.46674e-06
7.1436e-07
6.15119e-06
7.15844e-07
5.85554e-06
7.17197e-07
5.57842e-06
7.18387e-07
5.31756e-06
7.19396e-07
5.07053e-06
7.20221e-07
4.8352e-06
7.20874e-07
4.61003e-06
7.21375e-07
4.39403e-06
7.2175e-07
4.18664e-06
7.22024e-07
3.98755e-06
7.22219e-07
3.7966e-06
7.22354e-07
3.61365e-06
7.2244e-07
3.43858e-06
7.22486e-07
3.27124e-06
7.22498e-07
3.11145e-06
7.22477e-07
2.95904e-06
7.22424e-07
2.8138e-06
7.22342e-07
2.67554e-06