/*--------------------------------*- C++ -*----------------------------------*\
  =========                 |
  \\      /  F ield         | OpenFOAM: The Open Source CFD Toolbox
   \\    /   O peration     | Website:  https://openfoam.org
    \\  /    A nd           | Version:  9
     \\/     M anipulation  |
\*---------------------------------------------------------------------------*/
FoamFile
{
    format      ascii;
    class       volScalarField;
    location    "0.09";
    object      rAU;
}
// * * * * * * * * * * * * * * * * * * * * * * * * * * * * * * * * * * * * * //

dimensions      [-1 3 1 0 0 0 0];

internalField   nonuniform List<scalar> 
5000
(
1.70719e-05
1.70903e-05
1.70956e-05
1.70903e-05
1.70787e-05
1.70622e-05
1.70391e-05
1.70085e-05
1.69725e-05
1.69364e-05
1.6906e-05
1.68875e-05
1.68914e-05
1.69413e-05
1.70698e-05
1.72543e-05
1.73261e-05
1.71749e-05
1.69736e-05
1.68474e-05
1.67306e-05
1.66891e-05
1.66642e-05
1.66448e-05
1.66284e-05
1.66133e-05
1.65973e-05
1.65781e-05
1.65533e-05
1.65212e-05
1.64816e-05
1.64352e-05
1.63832e-05
1.63271e-05
1.62674e-05
1.62046e-05
1.61384e-05
1.60684e-05
1.59941e-05
1.59147e-05
1.58297e-05
1.57382e-05
1.56396e-05
1.55332e-05
1.54183e-05
1.52942e-05
1.51601e-05
1.5015e-05
1.48579e-05
1.56147e-05
2.29773e-05
2.29898e-05
2.29933e-05
2.29897e-05
2.29818e-05
2.29706e-05
2.29548e-05
2.29339e-05
2.29093e-05
2.28846e-05
2.28637e-05
2.2851e-05
2.28539e-05
2.28884e-05
2.29761e-05
2.30999e-05
2.31476e-05
2.30472e-05
2.29103e-05
2.28176e-05
2.26573e-05
2.2597e-05
2.25522e-05
2.2509e-05
2.24656e-05
2.24204e-05
2.2372e-05
2.23183e-05
2.22577e-05
2.21889e-05
2.21112e-05
2.20252e-05
2.19313e-05
2.18302e-05
2.1722e-05
2.16066e-05
2.14836e-05
2.13523e-05
2.12119e-05
2.10617e-05
2.09007e-05
2.07282e-05
2.05433e-05
2.03452e-05
2.0133e-05
1.99061e-05
1.96635e-05
1.94045e-05
1.91281e-05
2.03837e-05
2.29775e-05
2.29899e-05
2.29934e-05
2.29898e-05
2.29819e-05
2.29706e-05
2.29548e-05
2.29339e-05
2.29092e-05
2.28844e-05
2.28635e-05
2.28508e-05
2.28537e-05
2.28886e-05
2.29767e-05
2.30996e-05
2.31465e-05
2.30473e-05
2.29107e-05
2.28173e-05
2.26566e-05
2.25962e-05
2.25516e-05
2.25085e-05
2.24652e-05
2.24201e-05
2.23717e-05
2.23181e-05
2.22575e-05
2.21886e-05
2.2111e-05
2.20249e-05
2.19309e-05
2.18298e-05
2.17216e-05
2.16062e-05
2.14832e-05
2.13519e-05
2.12115e-05
2.10613e-05
2.09003e-05
2.07278e-05
2.05429e-05
2.03448e-05
2.01327e-05
1.99057e-05
1.96631e-05
1.9404e-05
1.91275e-05
2.03828e-05
2.29778e-05
2.29901e-05
2.29936e-05
2.299e-05
2.2982e-05
2.29707e-05
2.29549e-05
2.29339e-05
2.29092e-05
2.28843e-05
2.28633e-05
2.28504e-05
2.28535e-05
2.28888e-05
2.29774e-05
2.30994e-05
2.31454e-05
2.30473e-05
2.2911e-05
2.28169e-05
2.26557e-05
2.25954e-05
2.25508e-05
2.25079e-05
2.24646e-05
2.24197e-05
2.23713e-05
2.23177e-05
2.22571e-05
2.21882e-05
2.21105e-05
2.20243e-05
2.19304e-05
2.18291e-05
2.17209e-05
2.16055e-05
2.14824e-05
2.13511e-05
2.12107e-05
2.10605e-05
2.08996e-05
2.07271e-05
2.05422e-05
2.03441e-05
2.0132e-05
1.9905e-05
1.96623e-05
1.94031e-05
1.91265e-05
2.03815e-05
2.29781e-05
2.29904e-05
2.29938e-05
2.29902e-05
2.29822e-05
2.29708e-05
2.2955e-05
2.29339e-05
2.29091e-05
2.28841e-05
2.2863e-05
2.285e-05
2.28532e-05
2.28891e-05
2.29782e-05
2.30992e-05
2.31442e-05
2.30473e-05
2.29114e-05
2.28165e-05
2.26548e-05
2.25944e-05
2.25499e-05
2.25071e-05
2.24639e-05
2.2419e-05
2.23707e-05
2.23172e-05
2.22566e-05
2.21876e-05
2.21098e-05
2.20236e-05
2.19295e-05
2.18282e-05
2.17199e-05
2.16045e-05
2.14814e-05
2.135e-05
2.12097e-05
2.10594e-05
2.08985e-05
2.0726e-05
2.05411e-05
2.0343e-05
2.01309e-05
1.99039e-05
1.96612e-05
1.94019e-05
1.91252e-05
2.03799e-05
2.29785e-05
2.29908e-05
2.29941e-05
2.29905e-05
2.29824e-05
2.2971e-05
2.29551e-05
2.2934e-05
2.29091e-05
2.2884e-05
2.28627e-05
2.28496e-05
2.28528e-05
2.28893e-05
2.29789e-05
2.30991e-05
2.31431e-05
2.30473e-05
2.29117e-05
2.28161e-05
2.26538e-05
2.25933e-05
2.25488e-05
2.25061e-05
2.2463e-05
2.24182e-05
2.237e-05
2.23165e-05
2.22558e-05
2.21868e-05
2.21089e-05
2.20226e-05
2.19285e-05
2.18271e-05
2.17187e-05
2.16032e-05
2.14801e-05
2.13487e-05
2.12083e-05
2.1058e-05
2.08971e-05
2.07246e-05
2.05397e-05
2.03416e-05
2.01294e-05
1.99024e-05
1.96596e-05
1.94003e-05
1.91235e-05
2.03779e-05
2.2979e-05
2.29912e-05
2.29945e-05
2.29908e-05
2.29827e-05
2.29713e-05
2.29553e-05
2.29341e-05
2.29091e-05
2.28839e-05
2.28624e-05
2.28492e-05
2.28525e-05
2.28896e-05
2.29797e-05
2.3099e-05
2.31421e-05
2.30474e-05
2.2912e-05
2.28156e-05
2.26527e-05
2.25921e-05
2.25476e-05
2.2505e-05
2.2462e-05
2.24172e-05
2.23691e-05
2.23156e-05
2.22549e-05
2.21858e-05
2.21078e-05
2.20214e-05
2.19272e-05
2.18257e-05
2.17173e-05
2.16016e-05
2.14784e-05
2.1347e-05
2.12066e-05
2.10563e-05
2.08953e-05
2.07228e-05
2.05379e-05
2.03397e-05
2.01275e-05
1.99005e-05
1.96577e-05
1.93983e-05
1.91214e-05
2.03754e-05
2.29796e-05
2.29917e-05
2.2995e-05
2.29912e-05
2.29831e-05
2.29716e-05
2.29556e-05
2.29343e-05
2.29092e-05
2.28838e-05
2.28621e-05
2.28488e-05
2.28522e-05
2.28898e-05
2.29804e-05
2.30989e-05
2.31411e-05
2.30474e-05
2.29123e-05
2.28151e-05
2.26515e-05
2.25907e-05
2.25463e-05
2.25037e-05
2.24608e-05
2.24161e-05
2.2368e-05
2.23145e-05
2.22538e-05
2.21846e-05
2.21066e-05
2.202e-05
2.19257e-05
2.18241e-05
2.17155e-05
2.15998e-05
2.14765e-05
2.1345e-05
2.12045e-05
2.10542e-05
2.08932e-05
2.07206e-05
2.05357e-05
2.03375e-05
2.01253e-05
1.98982e-05
1.96554e-05
1.93959e-05
1.9119e-05
2.03724e-05
2.29803e-05
2.29923e-05
2.29955e-05
2.29917e-05
2.29835e-05
2.2972e-05
2.29559e-05
2.29345e-05
2.29093e-05
2.28837e-05
2.28618e-05
2.28483e-05
2.28519e-05
2.28901e-05
2.29811e-05
2.30988e-05
2.31403e-05
2.30475e-05
2.29126e-05
2.28146e-05
2.26503e-05
2.25893e-05
2.25449e-05
2.25023e-05
2.24595e-05
2.24148e-05
2.23667e-05
2.23132e-05
2.22525e-05
2.21832e-05
2.21051e-05
2.20184e-05
2.1924e-05
2.18222e-05
2.17135e-05
2.15977e-05
2.14743e-05
2.13427e-05
2.12022e-05
2.10518e-05
2.08907e-05
2.07181e-05
2.05331e-05
2.03349e-05
2.01226e-05
1.98955e-05
1.96526e-05
1.93931e-05
1.91161e-05
2.03689e-05
2.2981e-05
2.29929e-05
2.29961e-05
2.29922e-05
2.2984e-05
2.29724e-05
2.29563e-05
2.29348e-05
2.29095e-05
2.28837e-05
2.28616e-05
2.28479e-05
2.28516e-05
2.28903e-05
2.29819e-05
2.30988e-05
2.31395e-05
2.30476e-05
2.29129e-05
2.2814e-05
2.26489e-05
2.25878e-05
2.25434e-05
2.25008e-05
2.2458e-05
2.24134e-05
2.23653e-05
2.23118e-05
2.2251e-05
2.21816e-05
2.21034e-05
2.20166e-05
2.1922e-05
2.18201e-05
2.17113e-05
2.15953e-05
2.14718e-05
2.13402e-05
2.11995e-05
2.1049e-05
2.08879e-05
2.07153e-05
2.05302e-05
2.03319e-05
2.01196e-05
1.98924e-05
1.96494e-05
1.93899e-05
1.91128e-05
2.0365e-05
2.29818e-05
2.29937e-05
2.29968e-05
2.29929e-05
2.29846e-05
2.29729e-05
2.29567e-05
2.29352e-05
2.29097e-05
2.28837e-05
2.28614e-05
2.28476e-05
2.28513e-05
2.28906e-05
2.29826e-05
2.30988e-05
2.31388e-05
2.30478e-05
2.29132e-05
2.28134e-05
2.26475e-05
2.25862e-05
2.25417e-05
2.24992e-05
2.24564e-05
2.24119e-05
2.23638e-05
2.23102e-05
2.22494e-05
2.21799e-05
2.21015e-05
2.20146e-05
2.19198e-05
2.18178e-05
2.17088e-05
2.15927e-05
2.14691e-05
2.13373e-05
2.11965e-05
2.1046e-05
2.08848e-05
2.0712e-05
2.05269e-05
2.03286e-05
2.01162e-05
1.98889e-05
1.96458e-05
1.93862e-05
1.9109e-05
2.03604e-05
2.29827e-05
2.29945e-05
2.29976e-05
2.29936e-05
2.29853e-05
2.29736e-05
2.29573e-05
2.29356e-05
2.291e-05
2.28838e-05
2.28612e-05
2.28472e-05
2.28511e-05
2.28909e-05
2.29834e-05
2.30989e-05
2.31382e-05
2.3048e-05
2.29135e-05
2.28128e-05
2.26461e-05
2.25845e-05
2.254e-05
2.24975e-05
2.24547e-05
2.24102e-05
2.23621e-05
2.23085e-05
2.22476e-05
2.2178e-05
2.20994e-05
2.20123e-05
2.19174e-05
2.18152e-05
2.1706e-05
2.15898e-05
2.1466e-05
2.13341e-05
2.11932e-05
2.10425e-05
2.08813e-05
2.07084e-05
2.05232e-05
2.03248e-05
2.01123e-05
1.98849e-05
1.96418e-05
1.9382e-05
1.91048e-05
2.03554e-05
2.29837e-05
2.29955e-05
2.29984e-05
2.29944e-05
2.29861e-05
2.29743e-05
2.29579e-05
2.29361e-05
2.29103e-05
2.28839e-05
2.28611e-05
2.28469e-05
2.28508e-05
2.28912e-05
2.29841e-05
2.3099e-05
2.31377e-05
2.30482e-05
2.29139e-05
2.28122e-05
2.26446e-05
2.25827e-05
2.25382e-05
2.24957e-05
2.24529e-05
2.24084e-05
2.23603e-05
2.23066e-05
2.22456e-05
2.21759e-05
2.20972e-05
2.20099e-05
2.19147e-05
2.18123e-05
2.1703e-05
2.15865e-05
2.14626e-05
2.13305e-05
2.11896e-05
2.10388e-05
2.08774e-05
2.07045e-05
2.05192e-05
2.03207e-05
2.01081e-05
1.98806e-05
1.96373e-05
1.93775e-05
1.91001e-05
2.03498e-05
2.29848e-05
2.29965e-05
2.29994e-05
2.29954e-05
2.29869e-05
2.29751e-05
2.29586e-05
2.29367e-05
2.29107e-05
2.28841e-05
2.2861e-05
2.28467e-05
2.28507e-05
2.28916e-05
2.29849e-05
2.30992e-05
2.31374e-05
2.30486e-05
2.29142e-05
2.28116e-05
2.26431e-05
2.25809e-05
2.25362e-05
2.24937e-05
2.2451e-05
2.24064e-05
2.23583e-05
2.23046e-05
2.22434e-05
2.21736e-05
2.20947e-05
2.20072e-05
2.19118e-05
2.18092e-05
2.16997e-05
2.15831e-05
2.1459e-05
2.13267e-05
2.11856e-05
2.10347e-05
2.08731e-05
2.07001e-05
2.05147e-05
2.03161e-05
2.01034e-05
1.98758e-05
1.96324e-05
1.93724e-05
1.9095e-05
2.03437e-05
2.2986e-05
2.29977e-05
2.30005e-05
2.29964e-05
2.29879e-05
2.29759e-05
2.29594e-05
2.29374e-05
2.29112e-05
2.28844e-05
2.2861e-05
2.28465e-05
2.28506e-05
2.2892e-05
2.29857e-05
2.30995e-05
2.31371e-05
2.3049e-05
2.29146e-05
2.2811e-05
2.26415e-05
2.2579e-05
2.25342e-05
2.24917e-05
2.24489e-05
2.24044e-05
2.23562e-05
2.23024e-05
2.22411e-05
2.21711e-05
2.2092e-05
2.20043e-05
2.19087e-05
2.18059e-05
2.16961e-05
2.15793e-05
2.1455e-05
2.13226e-05
2.11813e-05
2.10302e-05
2.08685e-05
2.06954e-05
2.05098e-05
2.03111e-05
2.00983e-05
1.98705e-05
1.9627e-05
1.9367e-05
1.90894e-05
2.03372e-05
2.29874e-05
2.29989e-05
2.30017e-05
2.29975e-05
2.2989e-05
2.2977e-05
2.29603e-05
2.29382e-05
2.29118e-05
2.28847e-05
2.28611e-05
2.28463e-05
2.28505e-05
2.28925e-05
2.29866e-05
2.30998e-05
2.3137e-05
2.30495e-05
2.29151e-05
2.28104e-05
2.26399e-05
2.2577e-05
2.25322e-05
2.24896e-05
2.24468e-05
2.24022e-05
2.2354e-05
2.23001e-05
2.22386e-05
2.21684e-05
2.20892e-05
2.20012e-05
2.19054e-05
2.18023e-05
2.16923e-05
2.15752e-05
2.14507e-05
2.13181e-05
2.11766e-05
2.10254e-05
2.08635e-05
2.06902e-05
2.05045e-05
2.03057e-05
2.00927e-05
1.98648e-05
1.96212e-05
1.9361e-05
1.90834e-05
2.033e-05
2.29888e-05
2.30003e-05
2.3003e-05
2.29988e-05
2.29902e-05
2.29781e-05
2.29613e-05
2.29391e-05
2.29125e-05
2.28851e-05
2.28612e-05
2.28462e-05
2.28505e-05
2.2893e-05
2.29875e-05
2.31002e-05
2.3137e-05
2.30501e-05
2.29156e-05
2.28099e-05
2.26382e-05
2.2575e-05
2.253e-05
2.24873e-05
2.24445e-05
2.23999e-05
2.23516e-05
2.22976e-05
2.2236e-05
2.21656e-05
2.20861e-05
2.19979e-05
2.19018e-05
2.17984e-05
2.16881e-05
2.15708e-05
2.14461e-05
2.13132e-05
2.11715e-05
2.10201e-05
2.08581e-05
2.06846e-05
2.04988e-05
2.02998e-05
2.00866e-05
1.98586e-05
1.96148e-05
1.93545e-05
1.90767e-05
2.03223e-05
2.29904e-05
2.30018e-05
2.30045e-05
2.30002e-05
2.29915e-05
2.29793e-05
2.29625e-05
2.29401e-05
2.29133e-05
2.28857e-05
2.28615e-05
2.28462e-05
2.28506e-05
2.28935e-05
2.29885e-05
2.31007e-05
2.31372e-05
2.30508e-05
2.29161e-05
2.28093e-05
2.26365e-05
2.25729e-05
2.25278e-05
2.2485e-05
2.24421e-05
2.23974e-05
2.2349e-05
2.22949e-05
2.22332e-05
2.21626e-05
2.20828e-05
2.19944e-05
2.1898e-05
2.17943e-05
2.16837e-05
2.15662e-05
2.14411e-05
2.13081e-05
2.11662e-05
2.10145e-05
2.08523e-05
2.06787e-05
2.04927e-05
2.02934e-05
2.00801e-05
1.98519e-05
1.9608e-05
1.93474e-05
1.90696e-05
2.03138e-05
2.2992e-05
2.30035e-05
2.30061e-05
2.30017e-05
2.2993e-05
2.29807e-05
2.29638e-05
2.29412e-05
2.29142e-05
2.28863e-05
2.28618e-05
2.28463e-05
2.28507e-05
2.28942e-05
2.29895e-05
2.31014e-05
2.31375e-05
2.30517e-05
2.29168e-05
2.28089e-05
2.26348e-05
2.25708e-05
2.25255e-05
2.24826e-05
2.24397e-05
2.23949e-05
2.23464e-05
2.22922e-05
2.22302e-05
2.21594e-05
2.20794e-05
2.19906e-05
2.18939e-05
2.179e-05
2.16791e-05
2.15612e-05
2.14359e-05
2.13026e-05
2.11604e-05
2.10086e-05
2.08461e-05
2.06723e-05
2.04861e-05
2.02866e-05
2.00732e-05
1.98448e-05
1.96006e-05
1.93399e-05
1.90618e-05
2.03046e-05
2.29938e-05
2.30052e-05
2.30078e-05
2.30034e-05
2.29946e-05
2.29822e-05
2.29652e-05
2.29425e-05
2.29153e-05
2.28871e-05
2.28622e-05
2.28465e-05
2.2851e-05
2.28949e-05
2.29906e-05
2.31021e-05
2.31379e-05
2.30527e-05
2.29175e-05
2.28084e-05
2.26331e-05
2.25686e-05
2.25231e-05
2.24801e-05
2.24371e-05
2.23922e-05
2.23436e-05
2.22892e-05
2.22271e-05
2.2156e-05
2.20757e-05
2.19867e-05
2.18896e-05
2.17853e-05
2.16741e-05
2.15559e-05
2.14303e-05
2.12967e-05
2.11543e-05
2.10022e-05
2.08395e-05
2.06654e-05
2.0479e-05
2.02794e-05
2.00657e-05
1.98371e-05
1.95927e-05
1.93318e-05
1.90535e-05
2.02948e-05
2.29958e-05
2.30071e-05
2.30096e-05
2.30052e-05
2.29963e-05
2.29839e-05
2.29667e-05
2.29439e-05
2.29165e-05
2.2888e-05
2.28628e-05
2.28468e-05
2.28513e-05
2.28957e-05
2.29917e-05
2.31029e-05
2.31386e-05
2.30538e-05
2.29184e-05
2.28081e-05
2.26314e-05
2.25664e-05
2.25206e-05
2.24776e-05
2.24344e-05
2.23894e-05
2.23407e-05
2.22861e-05
2.22238e-05
2.21525e-05
2.20719e-05
2.19825e-05
2.18851e-05
2.17804e-05
2.16688e-05
2.15503e-05
2.14244e-05
2.12904e-05
2.11477e-05
2.09954e-05
2.08325e-05
2.06581e-05
2.04715e-05
2.02716e-05
2.00577e-05
1.98289e-05
1.95843e-05
1.93232e-05
1.90447e-05
2.02844e-05
2.29979e-05
2.30092e-05
2.30117e-05
2.30071e-05
2.29982e-05
2.29857e-05
2.29684e-05
2.29454e-05
2.29178e-05
2.2889e-05
2.28635e-05
2.28472e-05
2.28518e-05
2.28965e-05
2.2993e-05
2.31039e-05
2.31394e-05
2.30551e-05
2.29193e-05
2.28077e-05
2.26297e-05
2.25642e-05
2.25182e-05
2.2475e-05
2.24317e-05
2.23865e-05
2.23376e-05
2.22829e-05
2.22203e-05
2.21487e-05
2.20678e-05
2.19781e-05
2.18803e-05
2.17752e-05
2.16633e-05
2.15444e-05
2.14181e-05
2.12838e-05
2.11408e-05
2.09881e-05
2.0825e-05
2.06504e-05
2.04634e-05
2.02633e-05
2.00492e-05
1.98201e-05
1.95753e-05
1.9314e-05
1.90354e-05
2.02733e-05
2.30001e-05
2.30114e-05
2.30138e-05
2.30092e-05
2.30002e-05
2.29877e-05
2.29703e-05
2.29471e-05
2.29193e-05
2.28902e-05
2.28643e-05
2.28478e-05
2.28523e-05
2.28976e-05
2.29944e-05
2.31051e-05
2.31404e-05
2.30565e-05
2.29204e-05
2.28075e-05
2.2628e-05
2.25619e-05
2.25156e-05
2.24723e-05
2.24288e-05
2.23835e-05
2.23345e-05
2.22795e-05
2.22167e-05
2.21448e-05
2.20635e-05
2.19734e-05
2.18752e-05
2.17698e-05
2.16574e-05
2.15381e-05
2.14114e-05
2.12768e-05
2.11335e-05
2.09805e-05
2.0817e-05
2.06421e-05
2.04549e-05
2.02545e-05
2.00401e-05
1.98108e-05
1.95658e-05
1.93042e-05
1.90254e-05
2.02616e-05
2.30025e-05
2.30138e-05
2.30162e-05
2.30115e-05
2.30025e-05
2.29898e-05
2.29723e-05
2.2949e-05
2.29209e-05
2.28915e-05
2.28653e-05
2.28485e-05
2.28531e-05
2.28987e-05
2.29959e-05
2.31064e-05
2.31416e-05
2.30581e-05
2.29216e-05
2.28074e-05
2.26264e-05
2.25596e-05
2.25131e-05
2.24695e-05
2.24259e-05
2.23804e-05
2.23312e-05
2.2276e-05
2.22129e-05
2.21406e-05
2.2059e-05
2.19685e-05
2.18699e-05
2.1764e-05
2.16512e-05
2.15315e-05
2.14044e-05
2.12694e-05
2.11257e-05
2.09724e-05
2.08086e-05
2.06334e-05
2.04459e-05
2.02452e-05
2.00305e-05
1.98009e-05
1.95556e-05
1.92938e-05
1.90149e-05
2.02491e-05
2.30051e-05
2.30163e-05
2.30187e-05
2.3014e-05
2.30049e-05
2.29921e-05
2.29746e-05
2.29511e-05
2.29227e-05
2.2893e-05
2.28664e-05
2.28493e-05
2.28539e-05
2.29e-05
2.29975e-05
2.31079e-05
2.3143e-05
2.30598e-05
2.29229e-05
2.28074e-05
2.26247e-05
2.25574e-05
2.25105e-05
2.24667e-05
2.24229e-05
2.23772e-05
2.23277e-05
2.22723e-05
2.22089e-05
2.21363e-05
2.20543e-05
2.19634e-05
2.18643e-05
2.1758e-05
2.16447e-05
2.15245e-05
2.1397e-05
2.12616e-05
2.11175e-05
2.09638e-05
2.07996e-05
2.06241e-05
2.04363e-05
2.02353e-05
2.00203e-05
1.97904e-05
1.95449e-05
1.92829e-05
1.90037e-05
2.02359e-05
2.30078e-05
2.3019e-05
2.30213e-05
2.30166e-05
2.30075e-05
2.29947e-05
2.2977e-05
2.29533e-05
2.29247e-05
2.28947e-05
2.28677e-05
2.28503e-05
2.28549e-05
2.29014e-05
2.29994e-05
2.31096e-05
2.31446e-05
2.30618e-05
2.29244e-05
2.28074e-05
2.26232e-05
2.25551e-05
2.25078e-05
2.24638e-05
2.24198e-05
2.23739e-05
2.23242e-05
2.22684e-05
2.22047e-05
2.21318e-05
2.20494e-05
2.1958e-05
2.18585e-05
2.17516e-05
2.16378e-05
2.15172e-05
2.13892e-05
2.12534e-05
2.11088e-05
2.09548e-05
2.07902e-05
2.06143e-05
2.04261e-05
2.02248e-05
2.00095e-05
1.97793e-05
1.95335e-05
1.92713e-05
1.89919e-05
2.0222e-05
2.30107e-05
2.3022e-05
2.30242e-05
2.30194e-05
2.30102e-05
2.29974e-05
2.29796e-05
2.29558e-05
2.2927e-05
2.28965e-05
2.28692e-05
2.28515e-05
2.28561e-05
2.2903e-05
2.30014e-05
2.31115e-05
2.31465e-05
2.3064e-05
2.2926e-05
2.28076e-05
2.26216e-05
2.25529e-05
2.25052e-05
2.24609e-05
2.24166e-05
2.23705e-05
2.23205e-05
2.22645e-05
2.22004e-05
2.21271e-05
2.20442e-05
2.19523e-05
2.18523e-05
2.17449e-05
2.16306e-05
2.15095e-05
2.1381e-05
2.12447e-05
2.10997e-05
2.09452e-05
2.07803e-05
2.0604e-05
2.04154e-05
2.02137e-05
1.99981e-05
1.97676e-05
1.95215e-05
1.9259e-05
1.89795e-05
2.02073e-05
2.30138e-05
2.3025e-05
2.30273e-05
2.30225e-05
2.30132e-05
2.30003e-05
2.29824e-05
2.29584e-05
2.29294e-05
2.28986e-05
2.28708e-05
2.28529e-05
2.28575e-05
2.29048e-05
2.30036e-05
2.31136e-05
2.31486e-05
2.30664e-05
2.29279e-05
2.2808e-05
2.26202e-05
2.25506e-05
2.25025e-05
2.24579e-05
2.24134e-05
2.2367e-05
2.23167e-05
2.22603e-05
2.21959e-05
2.21222e-05
2.20388e-05
2.19464e-05
2.18459e-05
2.17379e-05
2.16231e-05
2.15014e-05
2.13724e-05
2.12356e-05
2.10901e-05
2.09351e-05
2.07698e-05
2.0593e-05
2.04041e-05
2.0202e-05
1.9986e-05
1.97552e-05
1.95088e-05
1.9246e-05
1.89663e-05
2.01917e-05
2.30171e-05
2.30283e-05
2.30306e-05
2.30257e-05
2.30165e-05
2.30035e-05
2.29855e-05
2.29613e-05
2.2932e-05
2.29009e-05
2.28727e-05
2.28544e-05
2.28591e-05
2.29069e-05
2.30061e-05
2.3116e-05
2.31509e-05
2.3069e-05
2.29299e-05
2.28085e-05
2.26188e-05
2.25484e-05
2.24998e-05
2.24549e-05
2.24101e-05
2.23634e-05
2.23128e-05
2.22561e-05
2.21912e-05
2.21171e-05
2.20332e-05
2.19403e-05
2.18392e-05
2.17306e-05
2.16152e-05
2.14929e-05
2.13633e-05
2.1226e-05
2.108e-05
2.09245e-05
2.07587e-05
2.05815e-05
2.03921e-05
2.01897e-05
1.99733e-05
1.97421e-05
1.94954e-05
1.92323e-05
1.89524e-05
2.01753e-05
2.30206e-05
2.30318e-05
2.3034e-05
2.30292e-05
2.30199e-05
2.30069e-05
2.29888e-05
2.29645e-05
2.29349e-05
2.29034e-05
2.28748e-05
2.28562e-05
2.28609e-05
2.29091e-05
2.30088e-05
2.31187e-05
2.31536e-05
2.30719e-05
2.29322e-05
2.28091e-05
2.26175e-05
2.25462e-05
2.24972e-05
2.24519e-05
2.24068e-05
2.23597e-05
2.23088e-05
2.22517e-05
2.21864e-05
2.21117e-05
2.20274e-05
2.19339e-05
2.18321e-05
2.1723e-05
2.16069e-05
2.14839e-05
2.13538e-05
2.12159e-05
2.10693e-05
2.09134e-05
2.0747e-05
2.05694e-05
2.03795e-05
2.01766e-05
1.99598e-05
1.97282e-05
1.94812e-05
1.92179e-05
1.89378e-05
2.0158e-05
2.30243e-05
2.30356e-05
2.30378e-05
2.30329e-05
2.30236e-05
2.30105e-05
2.29923e-05
2.29678e-05
2.2938e-05
2.29061e-05
2.28771e-05
2.28582e-05
2.28629e-05
2.29116e-05
2.30117e-05
2.31216e-05
2.31565e-05
2.30751e-05
2.29347e-05
2.281e-05
2.26163e-05
2.25441e-05
2.24945e-05
2.24488e-05
2.24033e-05
2.23559e-05
2.23046e-05
2.22471e-05
2.21814e-05
2.21062e-05
2.20213e-05
2.19272e-05
2.18248e-05
2.17149e-05
2.15982e-05
2.14746e-05
2.13438e-05
2.12053e-05
2.10582e-05
2.09016e-05
2.07347e-05
2.05566e-05
2.03663e-05
2.01629e-05
1.99456e-05
1.97136e-05
1.94662e-05
1.92026e-05
1.89222e-05
2.01398e-05
2.30282e-05
2.30395e-05
2.30417e-05
2.30368e-05
2.30275e-05
2.30144e-05
2.29961e-05
2.29715e-05
2.29414e-05
2.29092e-05
2.28797e-05
2.28604e-05
2.28651e-05
2.29143e-05
2.3015e-05
2.31249e-05
2.31598e-05
2.30785e-05
2.29375e-05
2.2811e-05
2.26151e-05
2.2542e-05
2.24918e-05
2.24457e-05
2.23999e-05
2.23521e-05
2.23004e-05
2.22424e-05
2.21762e-05
2.21005e-05
2.2015e-05
2.19202e-05
2.18171e-05
2.17066e-05
2.15891e-05
2.14648e-05
2.13333e-05
2.11941e-05
2.10464e-05
2.08893e-05
2.07218e-05
2.05431e-05
2.03523e-05
2.01484e-05
1.99306e-05
1.96982e-05
1.94504e-05
1.91865e-05
1.89059e-05
2.01205e-05
2.30323e-05
2.30437e-05
2.30459e-05
2.3041e-05
2.30317e-05
2.30186e-05
2.30002e-05
2.29754e-05
2.29451e-05
2.29125e-05
2.28826e-05
2.28629e-05
2.28677e-05
2.29174e-05
2.30185e-05
2.31284e-05
2.31634e-05
2.30823e-05
2.29406e-05
2.28123e-05
2.26142e-05
2.25399e-05
2.24891e-05
2.24426e-05
2.23964e-05
2.23482e-05
2.2296e-05
2.22376e-05
2.21708e-05
2.20945e-05
2.20084e-05
2.19129e-05
2.18091e-05
2.16978e-05
2.15796e-05
2.14545e-05
2.13223e-05
2.11824e-05
2.1034e-05
2.08763e-05
2.07082e-05
2.05289e-05
2.03375e-05
2.01331e-05
1.99149e-05
1.9682e-05
1.94337e-05
1.91694e-05
1.88886e-05
2.01001e-05
2.30367e-05
2.30481e-05
2.30503e-05
2.30455e-05
2.30362e-05
2.3023e-05
2.30046e-05
2.29797e-05
2.2949e-05
2.2916e-05
2.28857e-05
2.28657e-05
2.28705e-05
2.29207e-05
2.30224e-05
2.31324e-05
2.31673e-05
2.30865e-05
2.29439e-05
2.28139e-05
2.26133e-05
2.25379e-05
2.24865e-05
2.24395e-05
2.23928e-05
2.23441e-05
2.22915e-05
2.22326e-05
2.21653e-05
2.20884e-05
2.20016e-05
2.19054e-05
2.18008e-05
2.16887e-05
2.15696e-05
2.14438e-05
2.13108e-05
2.11702e-05
2.10211e-05
2.08626e-05
2.06939e-05
2.0514e-05
2.0322e-05
2.01171e-05
1.98983e-05
1.96649e-05
1.94161e-05
1.91515e-05
1.88704e-05
2.00786e-05
2.30413e-05
2.30527e-05
2.3055e-05
2.30502e-05
2.30409e-05
2.30278e-05
2.30093e-05
2.29842e-05
2.29533e-05
2.29199e-05
2.28891e-05
2.28687e-05
2.28736e-05
2.29244e-05
2.30266e-05
2.31367e-05
2.31717e-05
2.3091e-05
2.29477e-05
2.28157e-05
2.26126e-05
2.25361e-05
2.24839e-05
2.24364e-05
2.23892e-05
2.23401e-05
2.22869e-05
2.22274e-05
2.21595e-05
2.2082e-05
2.19945e-05
2.18975e-05
2.17921e-05
2.16791e-05
2.15592e-05
2.14325e-05
2.12987e-05
2.11573e-05
2.10074e-05
2.08483e-05
2.06789e-05
2.04983e-05
2.03057e-05
2.01001e-05
1.98807e-05
1.96468e-05
1.93976e-05
1.91326e-05
1.88511e-05
2.0056e-05
2.30461e-05
2.30577e-05
2.306e-05
2.30553e-05
2.3046e-05
2.30329e-05
2.30144e-05
2.29891e-05
2.29579e-05
2.29242e-05
2.28929e-05
2.28722e-05
2.28771e-05
2.29284e-05
2.30312e-05
2.31415e-05
2.31765e-05
2.30959e-05
2.29517e-05
2.28178e-05
2.26122e-05
2.25343e-05
2.24814e-05
2.24333e-05
2.23856e-05
2.23359e-05
2.22822e-05
2.22221e-05
2.21536e-05
2.20754e-05
2.19871e-05
2.18893e-05
2.1783e-05
2.16692e-05
2.15484e-05
2.14208e-05
2.12861e-05
2.11438e-05
2.09931e-05
2.08332e-05
2.06631e-05
2.04818e-05
2.02885e-05
2.00823e-05
1.98623e-05
1.96278e-05
1.93781e-05
1.91127e-05
1.88309e-05
2.00321e-05
2.30512e-05
2.30628e-05
2.30652e-05
2.30606e-05
2.30514e-05
2.30383e-05
2.30197e-05
2.29943e-05
2.29629e-05
2.29287e-05
2.2897e-05
2.28759e-05
2.28809e-05
2.29328e-05
2.30363e-05
2.31466e-05
2.31817e-05
2.31013e-05
2.29562e-05
2.28202e-05
2.26119e-05
2.25327e-05
2.24789e-05
2.24302e-05
2.23819e-05
2.23317e-05
2.22773e-05
2.22167e-05
2.21475e-05
2.20685e-05
2.19794e-05
2.18808e-05
2.17736e-05
2.16588e-05
2.1537e-05
2.14084e-05
2.12728e-05
2.11297e-05
2.09781e-05
2.08173e-05
2.06464e-05
2.04644e-05
2.02704e-05
2.00635e-05
1.98429e-05
1.96078e-05
1.93576e-05
1.90917e-05
1.88096e-05
2.0007e-05
2.30566e-05
2.30683e-05
2.30708e-05
2.30662e-05
2.30571e-05
2.3044e-05
2.30255e-05
2.3e-05
2.29683e-05
2.29337e-05
2.29015e-05
2.288e-05
2.28851e-05
2.29376e-05
2.30417e-05
2.31523e-05
2.31875e-05
2.31071e-05
2.29611e-05
2.2823e-05
2.26118e-05
2.25312e-05
2.24765e-05
2.24271e-05
2.23782e-05
2.23274e-05
2.22724e-05
2.2211e-05
2.21412e-05
2.20614e-05
2.19715e-05
2.1872e-05
2.17638e-05
2.1648e-05
2.15252e-05
2.13956e-05
2.1259e-05
2.11148e-05
2.09623e-05
2.08007e-05
2.06289e-05
2.04461e-05
2.02513e-05
2.00437e-05
1.98223e-05
1.95866e-05
1.93358e-05
1.90694e-05
1.87869e-05
1.99804e-05
2.30622e-05
2.30741e-05
2.30766e-05
2.30722e-05
2.30631e-05
2.30501e-05
2.30316e-05
2.3006e-05
2.2974e-05
2.29391e-05
2.29064e-05
2.28846e-05
2.28897e-05
2.29429e-05
2.30476e-05
2.31584e-05
2.31938e-05
2.31134e-05
2.29664e-05
2.28261e-05
2.2612e-05
2.25299e-05
2.24742e-05
2.24241e-05
2.23745e-05
2.2323e-05
2.22674e-05
2.22053e-05
2.21347e-05
2.20541e-05
2.19633e-05
2.18628e-05
2.17536e-05
2.16367e-05
2.15128e-05
2.13821e-05
2.12444e-05
2.10993e-05
2.09458e-05
2.07832e-05
2.06105e-05
2.04269e-05
2.02312e-05
2.00228e-05
1.98007e-05
1.95643e-05
1.93129e-05
1.9046e-05
1.8763e-05
1.99523e-05
2.30681e-05
2.30801e-05
2.30828e-05
2.30784e-05
2.30696e-05
2.30566e-05
2.30381e-05
2.30124e-05
2.29802e-05
2.29448e-05
2.29117e-05
2.28895e-05
2.28948e-05
2.29485e-05
2.30539e-05
2.31651e-05
2.32007e-05
2.31203e-05
2.29722e-05
2.28297e-05
2.26125e-05
2.25287e-05
2.2472e-05
2.24211e-05
2.23708e-05
2.23186e-05
2.22622e-05
2.21994e-05
2.21279e-05
2.20465e-05
2.19548e-05
2.18532e-05
2.17429e-05
2.16249e-05
2.14999e-05
2.1368e-05
2.12293e-05
2.1083e-05
2.09285e-05
2.07649e-05
2.05913e-05
2.04067e-05
2.02102e-05
2.00009e-05
1.97781e-05
1.9541e-05
1.92889e-05
1.90214e-05
1.8738e-05
1.99228e-05
2.30743e-05
2.30864e-05
2.30893e-05
2.30851e-05
2.30763e-05
2.30635e-05
2.3045e-05
2.30192e-05
2.29868e-05
2.29511e-05
2.29174e-05
2.28949e-05
2.29003e-05
2.29547e-05
2.30608e-05
2.31723e-05
2.32081e-05
2.31278e-05
2.29786e-05
2.28337e-05
2.26133e-05
2.25278e-05
2.24699e-05
2.24181e-05
2.23671e-05
2.23141e-05
2.22569e-05
2.21933e-05
2.2121e-05
2.20387e-05
2.19459e-05
2.18433e-05
2.17319e-05
2.16127e-05
2.14864e-05
2.13533e-05
2.12134e-05
2.10659e-05
2.09103e-05
2.07457e-05
2.05711e-05
2.03855e-05
2.01881e-05
1.9978e-05
1.97544e-05
1.95166e-05
1.92638e-05
1.89957e-05
1.87119e-05
1.98921e-05
2.30807e-05
2.30931e-05
2.30961e-05
2.30921e-05
2.30835e-05
2.30708e-05
2.30524e-05
2.30265e-05
2.29939e-05
2.29578e-05
2.29237e-05
2.29008e-05
2.29063e-05
2.29614e-05
2.30682e-05
2.31801e-05
2.32162e-05
2.3136e-05
2.29856e-05
2.28383e-05
2.26144e-05
2.2527e-05
2.24679e-05
2.24153e-05
2.23634e-05
2.23096e-05
2.22516e-05
2.2187e-05
2.21138e-05
2.20305e-05
2.19368e-05
2.1833e-05
2.17204e-05
2.15999e-05
2.14723e-05
2.1338e-05
2.11968e-05
2.10481e-05
2.08913e-05
2.07256e-05
2.05499e-05
2.03633e-05
2.0165e-05
1.9954e-05
1.97295e-05
1.94909e-05
1.92375e-05
1.89687e-05
1.86843e-05
1.98598e-05
2.30875e-05
2.31001e-05
2.31033e-05
2.30994e-05
2.30911e-05
2.30786e-05
2.30602e-05
2.30343e-05
2.30015e-05
2.2965e-05
2.29304e-05
2.29073e-05
2.29129e-05
2.29686e-05
2.30762e-05
2.31886e-05
2.3225e-05
2.31448e-05
2.29932e-05
2.28433e-05
2.26159e-05
2.25266e-05
2.24661e-05
2.24125e-05
2.23598e-05
2.2305e-05
2.22461e-05
2.21807e-05
2.21065e-05
2.20222e-05
2.19273e-05
2.18224e-05
2.17084e-05
2.15866e-05
2.14577e-05
2.1322e-05
2.11794e-05
2.10294e-05
2.08714e-05
2.07044e-05
2.05276e-05
2.034e-05
2.01406e-05
1.99287e-05
1.97034e-05
1.9464e-05
1.92098e-05
1.89403e-05
1.86554e-05
1.98258e-05
2.30945e-05
2.31074e-05
2.31108e-05
2.31072e-05
2.30991e-05
2.30868e-05
2.30685e-05
2.30426e-05
2.30096e-05
2.29728e-05
2.29378e-05
2.29143e-05
2.29201e-05
2.29764e-05
2.30848e-05
2.31977e-05
2.32345e-05
2.31543e-05
2.30015e-05
2.2849e-05
2.26178e-05
2.25264e-05
2.24645e-05
2.24098e-05
2.23561e-05
2.23004e-05
2.22405e-05
2.21741e-05
2.20989e-05
2.20135e-05
2.19175e-05
2.18113e-05
2.1696e-05
2.15728e-05
2.14424e-05
2.13052e-05
2.11612e-05
2.10099e-05
2.08505e-05
2.06823e-05
2.05043e-05
2.03155e-05
2.01151e-05
1.99022e-05
1.96759e-05
1.94356e-05
1.91806e-05
1.89104e-05
1.86248e-05
1.97898e-05
2.31019e-05
2.3115e-05
2.31187e-05
2.31154e-05
2.31075e-05
2.30955e-05
2.30773e-05
2.30514e-05
2.30183e-05
2.29811e-05
2.29457e-05
2.2922e-05
2.29279e-05
2.29849e-05
2.30941e-05
2.32075e-05
2.32448e-05
2.31647e-05
2.30105e-05
2.28552e-05
2.26202e-05
2.25266e-05
2.24632e-05
2.24073e-05
2.23526e-05
2.22958e-05
2.22349e-05
2.21674e-05
2.20911e-05
2.20046e-05
2.19073e-05
2.17998e-05
2.16831e-05
2.15584e-05
2.14265e-05
2.12877e-05
2.11422e-05
2.09894e-05
2.08286e-05
2.0659e-05
2.04797e-05
2.02897e-05
2.00882e-05
1.98742e-05
1.96469e-05
1.94056e-05
1.91497e-05
1.88786e-05
1.85923e-05
1.97517e-05
2.31096e-05
2.3123e-05
2.31269e-05
2.31239e-05
2.31164e-05
2.31046e-05
2.30867e-05
2.30608e-05
2.30275e-05
2.29901e-05
2.29542e-05
2.29302e-05
2.29364e-05
2.29942e-05
2.31041e-05
2.32182e-05
2.32559e-05
2.31758e-05
2.30204e-05
2.28622e-05
2.26231e-05
2.25271e-05
2.2462e-05
2.24049e-05
2.23491e-05
2.22912e-05
2.22292e-05
2.21605e-05
2.20831e-05
2.19954e-05
2.18968e-05
2.17879e-05
2.16697e-05
2.15434e-05
2.14098e-05
2.12695e-05
2.11223e-05
2.09679e-05
2.08056e-05
2.06346e-05
2.04539e-05
2.02626e-05
2.00599e-05
1.98447e-05
1.96164e-05
1.93741e-05
1.91172e-05
1.88453e-05
1.85583e-05
1.97117e-05
2.31175e-05
2.31313e-05
2.31356e-05
2.31329e-05
2.31257e-05
2.31143e-05
2.30966e-05
2.30708e-05
2.30374e-05
2.29996e-05
2.29634e-05
2.29392e-05
2.29456e-05
2.30041e-05
2.31149e-05
2.32297e-05
2.32679e-05
2.31879e-05
2.3031e-05
2.28699e-05
2.26266e-05
2.25281e-05
2.24612e-05
2.24027e-05
2.23457e-05
2.22866e-05
2.22234e-05
2.21535e-05
2.20749e-05
2.19859e-05
2.18859e-05
2.17756e-05
2.16558e-05
2.15278e-05
2.13925e-05
2.12504e-05
2.11015e-05
2.09454e-05
2.07815e-05
2.0609e-05
2.04268e-05
2.02342e-05
2.00301e-05
1.98137e-05
1.95843e-05
1.9341e-05
1.90831e-05
1.88103e-05
1.85226e-05
1.96697e-05
2.31258e-05
2.31399e-05
2.31446e-05
2.31423e-05
2.31355e-05
2.31245e-05
2.3107e-05
2.30814e-05
2.30479e-05
2.30099e-05
2.29734e-05
2.2949e-05
2.29557e-05
2.3015e-05
2.31267e-05
2.32421e-05
2.32809e-05
2.32009e-05
2.30426e-05
2.28785e-05
2.26307e-05
2.25294e-05
2.24607e-05
2.24007e-05
2.23424e-05
2.22821e-05
2.22175e-05
2.21464e-05
2.20664e-05
2.1976e-05
2.18747e-05
2.17627e-05
2.16413e-05
2.15115e-05
2.13744e-05
2.12305e-05
2.10797e-05
2.09219e-05
2.07562e-05
2.0582e-05
2.03983e-05
2.02042e-05
1.99987e-05
1.97811e-05
1.95504e-05
1.9306e-05
1.90472e-05
1.87735e-05
1.8485e-05
1.96255e-05
2.31344e-05
2.31489e-05
2.3154e-05
2.31522e-05
2.31459e-05
2.31352e-05
2.31181e-05
2.30926e-05
2.30591e-05
2.30209e-05
2.2984e-05
2.29595e-05
2.29665e-05
2.30267e-05
2.31393e-05
2.32555e-05
2.32949e-05
2.3215e-05
2.30552e-05
2.28879e-05
2.26354e-05
2.25313e-05
2.24605e-05
2.2399e-05
2.23392e-05
2.22775e-05
2.22116e-05
2.21391e-05
2.20578e-05
2.19659e-05
2.1863e-05
2.17495e-05
2.16263e-05
2.14946e-05
2.13556e-05
2.12096e-05
2.1057e-05
2.08972e-05
2.07297e-05
2.05537e-05
2.03684e-05
2.01726e-05
1.99657e-05
1.97467e-05
1.95147e-05
1.92692e-05
1.90093e-05
1.87346e-05
1.84452e-05
1.95786e-05
2.31433e-05
2.31583e-05
2.31638e-05
2.31625e-05
2.31567e-05
2.31465e-05
2.31298e-05
2.31045e-05
2.3071e-05
2.30327e-05
2.29955e-05
2.29709e-05
2.29783e-05
2.30393e-05
2.3153e-05