/*--------------------------------*- C++ -*----------------------------------*\
  =========                 |
  \\      /  F ield         | OpenFOAM: The Open Source CFD Toolbox
   \\    /   O peration     | Website:  https://openfoam.org
    \\  /    A nd           | Version:  9
     \\/     M anipulation  |
\*---------------------------------------------------------------------------*/
FoamFile
{
    format      ascii;
    class       volVectorField;
    location    "0.09";
    object      U;
}
// * * * * * * * * * * * * * * * * * * * * * * * * * * * * * * * * * * * * * //

dimensions      [0 1 -1 0 0 0 0];

internalField   nonuniform List<vector> 
5000
(
(-2.1714e-05 0 0.0120582)
(-1.35812e-05 0 0.00726258)
(-8.21887e-06 0 0.00585585)
(-2.41322e-06 0 0.00716289)
(4.89539e-06 0 0.0101189)
(1.36311e-05 0 0.0143543)
(2.47072e-05 0 0.0202739)
(3.85951e-05 0 0.0281805)
(5.2036e-05 0 0.0375045)
(5.774e-05 0 0.0469108)
(4.7236e-05 0 0.0548834)
(1.22868e-05 0 0.0598083)
(-4.70572e-05 0 0.0588781)
(-8.40596e-05 0 0.0460356)
(2.04612e-05 0 0.0130214)
(0.000135961 0 -0.0338872)
(-3.09521e-05 0 -0.0524303)
(-8.03001e-05 0 -0.0149732)
(0.000135412 0 0.0367361)
(0.00020433 0 0.0688339)
(0.000137498 0 0.0815995)
(6.69526e-05 0 0.0853848)
(1.85672e-05 0 0.0856072)
(-1.39902e-05 0 0.0838089)
(-3.53149e-05 0 0.0806209)
(-4.69033e-05 0 0.0764735)
(-4.91124e-05 0 0.0718552)
(-4.35119e-05 0 0.0673629)
(-3.29637e-05 0 0.0635858)
(-2.08275e-05 0 0.0609099)
(-9.97761e-06 0 0.0593836)
(-2.39913e-06 0 0.0587423)
(8.85821e-07 0 0.05856)
(-2.78083e-07 0 0.0584168)
(-5.14954e-06 0 0.0579997)
(-1.25137e-05 0 0.057126)
(-2.11772e-05 0 0.0557184)
(-3.00116e-05 0 0.0537694)
(-3.81186e-05 0 0.051309)
(-4.48494e-05 0 0.0483843)
(-4.97628e-05 0 0.0450469)
(-5.25681e-05 0 0.041346)
(-5.30811e-05 0 0.0373249)
(-5.12242e-05 0 0.0330208)
(-4.70942e-05 0 0.0284684)
(-4.10578e-05 0 0.0237081)
(-3.43238e-05 0 0.0187995)
(-2.83695e-05 0 0.0138404)
(-2.86224e-05 0 0.00900701)
(-5.16473e-05 0 0.00425909)
(-8.04023e-05 0 0.0118975)
(-5.76399e-05 0 0.00710054)
(-3.99884e-05 0 0.00568564)
(-1.90764e-05 0 0.00698279)
(6.69187e-06 0 0.00993291)
(3.46284e-05 0 0.0141653)
(6.46524e-05 0 0.0200804)
(9.77999e-05 0 0.0279802)
(0.000127984 0 0.0373004)
(0.000139315 0 0.0467117)
(0.000112494 0 0.0546997)
(3.21178e-05 0 0.0596462)
(-8.91601e-05 0 0.0587195)
(-0.000140892 0 0.0458018)
(0.000138418 0 0.0127152)
(0.000421707 0 -0.0339138)
(-4.59667e-06 0 -0.0522515)
(-0.000179528 0 -0.015268)
(0.000311535 0 0.0363211)
(0.000508983 0 0.068624)
(0.000391615 0 0.0814958)
(0.000241142 0 0.0852873)
(0.000128168 0 0.0855045)
(4.82226e-05 0 0.083705)
(-4.03602e-06 0 0.0805179)
(-3.17024e-05 0 0.0763719)
(-3.82205e-05 0 0.0717558)
(-2.8932e-05 0 0.0672672)
(-1.09668e-05 0 0.0634952)
(9.06064e-06 0 0.0608248)
(2.65299e-05 0 0.0593041)
(3.85351e-05 0 0.058669)
(4.35631e-05 0 0.0584941)
(4.12029e-05 0 0.0583597)
(3.23031e-05 0 0.057952)
(1.86774e-05 0 0.0570872)
(2.4252e-06 0 0.0556873)
(-1.43097e-05 0 0.0537444)
(-2.97112e-05 0 0.0512884)
(-4.24097e-05 0 0.0483666)
(-5.14567e-05 0 0.0450307)
(-5.62532e-05 0 0.0413298)
(-5.64924e-05 0 0.0373074)
(-5.21836e-05 0 0.033001)
(-4.38063e-05 0 0.0284464)
(-3.24811e-05 0 0.0236861)
(-2.08279e-05 0 0.0187849)
(-1.19257e-05 0 0.0138489)
(-1.58033e-05 0 0.00907772)
(-6.78254e-05 0 0.00444932)
(-0.000152537 0 0.0119028)
(-0.000112345 0 0.00711536)
(-7.9798e-05 0 0.00570339)
(-4.26453e-05 0 0.00699824)
(2.14741e-06 0 0.00994627)
(5.00092e-05 0 0.0141777)
(9.87017e-05 0 0.0200916)
(0.000148062 0 0.0279924)
(0.000189913 0 0.037323)
(0.000203697 0 0.0467593)
(0.000164552 0 0.0547864)
(5.51745e-05 0 0.0597729)
(-9.92651e-05 0 0.0588339)
(-0.000147198 0 0.045745)
(0.000257172 0 0.0124571)
(0.000684431 0 -0.0338832)
(0.000144196 0 -0.0519109)
(-0.000128484 0 -0.0153937)
(0.000480451 0 0.0360841)
(0.000746716 0 0.0686658)
(0.000616564 0 0.0816736)
(0.000430937 0 0.0854594)
(0.000282437 0 0.0856437)
(0.000172767 0 0.0838116)
(0.00010016 0 0.0805937)
(6.18407e-05 0 0.0764173)
(5.25075e-05 0 0.0717741)
(6.39786e-05 0 0.0672658)
(8.59396e-05 0 0.0634837)
(0.0001095 0 0.0608122)
(0.000128989 0 0.0592969)
(0.000141313 0 0.0586717)
(0.00014512 0 0.0585093)
(0.000140263 0 0.0583876)
(0.000127846 0 0.0579908)
(0.00010999 0 0.0571335)
(8.9267e-05 0 0.055737)
(6.82763e-05 0 0.0537931)
(4.92371e-05 0 0.0513323)
(3.38447e-05 0 0.0484023)
(2.32788e-05 0 0.0450554)
(1.82814e-05 0 0.0413414)
(1.92313e-05 0 0.0373042)
(2.61413e-05 0 0.0329823)
(3.85026e-05 0 0.0284132)
(5.49631e-05 0 0.0236425)
(7.27211e-05 0 0.0187424)
(8.75797e-05 0 0.0138328)
(9.05656e-05 0 0.00912486)
(5.49418e-05 0 0.00455719)
(-0.000241796 0 0.0119315)
(-0.000180619 0 0.00715422)
(-0.000129163 0 0.00574574)
(-7.35043e-05 0 0.00703835)
(-9.03651e-06 0 0.009984)
(5.93889e-05 0 0.0142146)
(0.000128154 0 0.0201288)
(0.000195175 0 0.0280344)
(0.000249787 0 0.0373822)
(0.000268318 0 0.046854)
(0.000223224 0 0.0549324)
(9.77197e-05 0 0.0599668)
(-7.22516e-05 0 0.0590051)
(-0.000112461 0 0.0457122)
(0.000360013 0 0.0121996)
(0.000882271 0 -0.033842)
(0.000343271 0 -0.0515473)
(4.602e-05 0 -0.0154964)
(0.00069283 0 0.0358453)
(0.000983524 0 0.0687224)
(0.000848313 0 0.0818957)
(0.000646068 0 0.0856927)
(0.000476265 0 0.0858443)
(0.000347488 0 0.0839721)
(0.000261325 0 0.0807129)
(0.000215628 0 0.0764954)
(0.000204616 0 0.0718158)
(0.000218386 0 0.0672811)
(0.000244499 0 0.063485)
(0.000272178 0 0.0608108)
(0.0002945 0 0.0593012)
(0.000307915 0 0.0586869)
(0.000311115 0 0.058538)
(0.000304317 0 0.0584298)
(0.000289081 0 0.0580445)
(0.000267969 0 0.0571948)
(0.000243989 0 0.0558011)
(0.000220084 0 0.0538551)
(0.000198743 0 0.0513878)
(0.00018186 0 0.0484473)
(0.000170741 0 0.0450868)
(0.000166197 0 0.0413567)
(0.000168616 0 0.0373017)
(0.000177966 0 0.0329614)
(0.000193641 0 0.028375)
(0.000214046 0 0.0235918)
(0.000235992 0 0.0186909)
(0.000255048 0 0.0138031)
(0.000265412 0 0.00913973)
(0.000251444 0 0.00460407)
(-0.000351317 0 0.0118973)
(-0.000267047 0 0.00712951)
(-0.000193169 0 0.00572294)
(-0.000115859 0 0.00701125)
(-2.97106e-05 0 0.0099528)
(6.0782e-05 0 0.0141822)
(0.000151486 0 0.0200973)
(0.000238687 0 0.0280088)
(0.000309347 0 0.0373757)
(0.000337407 0 0.0468852)
(0.000293948 0 0.0550163)
(0.000163858 0 0.0600959)
(-7.37423e-06 0 0.0590994)
(-3.31272e-05 0 0.0455898)
(0.000470942 0 0.0118631)
(0.00103953 0 -0.0338538)
(0.000546595 0 -0.0512184)
(0.000279618 0 -0.0156413)
(0.000949384 0 0.0355389)
(0.00125203 0 0.0686998)
(0.00111543 0 0.0820534)
(0.000903575 0 0.0858781)
(0.000718879 0 0.0860051)
(0.000576928 0 0.084096)
(0.000481589 0 0.0807965)
(0.000430938 0 0.0765388)
(0.000418945 0 0.0718245)
(0.000434655 0 0.0672657)
(0.000464347 0 0.0634585)
(0.000496003 0 0.0607843)
(0.000521721 0 0.0592825)
(0.00053742 0 0.0586806)
(0.000541649 0 0.0585461)
(0.000534789 0 0.0584524)
(0.000518698 0 0.0580793)
(0.00049627 0 0.057238)
(0.000470838 0 0.0558481)
(0.000445614 0 0.0539009)
(0.000423293 0 0.0514278)
(0.000405911 0 0.0484776)
(0.000394847 0 0.0451042)
(0.000390914 0 0.0413586)
(0.000394426 0 0.0372865)
(0.000405192 0 0.0329285)
(0.000422368 0 0.028326)
(0.0004441 0 0.0235318)
(0.000466972 0 0.0186307)
(0.000486891 0 0.0137595)
(0.000501157 0 0.00912587)
(0.000499069 0 0.00461038)
(-0.000479993 0 0.0118142)
(-0.000371206 0 0.00705564)
(-0.00027244 0 0.0056509)
(-0.000170745 0 0.00693452)
(-6.0449e-05 0 0.00987149)
(5.42477e-05 0 0.0140994)
(0.000168902 0 0.020016)
(0.00027855 0 0.0279348)
(0.000368252 0 0.0373224)
(0.000410217 0 0.0468714)
(0.000374879 0 0.0550562)
(0.000248937 0 0.0601786)
(8.6262e-05 0 0.0591398)
(8.11757e-05 0 0.0454095)
(0.000604603 0 0.0114771)
(0.00119918 0 -0.0339154)
(0.000762323 0 -0.0509456)
(0.000545864 0 -0.0158253)
(0.0012399 0 0.0351949)
(0.00155568 0 0.0686343)
(0.00142377 0 0.0821756)
(0.00120801 0 0.0860363)
(0.00101407 0 0.086143)
(0.000864048 0 0.0841984)
(0.000763465 0 0.0808591)
(0.000710482 0 0.0765614)
(0.000698767 0 0.0718126)
(0.000716639 0 0.0672304)
(0.000749608 0 0.063413)
(0.000784951 0 0.0607401)
(0.000814169 0 0.0592477)
(0.000832792 0 0.0586598)
(0.000839198 0 0.0585414)
(0.000833786 0 0.0584636)
(0.000818536 0 0.0581042)
(0.000796513 0 0.0572725)
(0.000771238 0 0.0558873)
(0.000746087 0 0.0539397)
(0.000723894 0 0.0514613)
(0.000706781 0 0.0485018)
(0.000696163 0 0.0451158)
(0.000692837 0 0.041355)
(0.000697043 0 0.0372661)
(0.000708441 0 0.0328912)
(0.000725964 0 0.0282739)
(0.000747541 0 0.0234704)
(0.000769762 0 0.0185698)
(0.000789071 0 0.0137117)
(0.00080478 0 0.00909892)
(0.000807036 0 0.00460139)
(-0.000626493 0 0.0117168)
(-0.000491688 0 0.00696732)
(-0.000366103 0 0.00556478)
(-0.000237778 0 0.00684413)
(-0.000100956 0 0.00977671)
(4.02805e-05 0 0.0140033)
(0.000181119 0 0.0199218)
(0.000315529 0 0.0278494)
(0.000427082 0 0.0372605)
(0.000486758 0 0.0468522)
(0.000464724 0 0.0550933)
(0.000349041 0 0.0602586)
(0.000200466 0 0.0591731)
(0.000219351 0 0.0452188)
(0.00076161 0 0.0110829)
(0.00138061 0 -0.0340037)
(0.00100355 0 -0.050721)
(0.000842832 0 -0.0160281)
(0.00156225 0 0.0348457)
(0.00189453 0 0.068566)
(0.00177299 0 0.082301)
(0.00155841 0 0.0862026)
(0.00136079 0 0.0862898)
(0.00120763 0 0.0843084)
(0.00110564 0 0.080927)
(0.00105313 0 0.0765869)
(0.00104353 0 0.0718014)
(0.00106469 0 0.0671938)
(0.00110162 0 0.063365)
(0.00114116 0 0.060693)
(0.00117441 0 0.0592102)
(0.00119662 0 0.0586371)
(0.00120604 0 0.058536)
(0.00120303 0 0.0584752)
(0.00118963 0 0.0581303)
(0.00116901 0 0.0573089)
(0.00114481 0 0.0559287)
(0.00112052 0 0.0539807)
(0.00109905 0 0.0514969)
(0.0010826 0 0.0485278)
(0.0010726 0 0.0451286)
(0.00106985 0 0.0413522)
(0.00107453 0 0.0372462)
(0.0010862 0 0.0328546)
(0.00110358 0 0.0282233)
(0.0011244 0 0.0234116)
(0.00114526 0 0.0185121)
(0.00116317 0 0.0136648)
(0.00117858 0 0.0090686)
(0.00118126 0 0.00458767)
(-0.000791029 0 0.0116137)
(-0.000628601 0 0.00687231)
(-0.000474245 0 0.00547168)
(-0.000317078 0 0.0067469)
(-0.000151381 0 0.00967517)
(1.87817e-05 0 0.0139004)
(0.000188302 0 0.0198214)
(0.000350243 0 0.0277593)
(0.000486922 0 0.0371963)
(0.000568294 0 0.0468341)
(0.000564328 0 0.0551347)
(0.000463808 0 0.0603439)
(0.000332946 0 0.0592087)
(0.000377567 0 0.045028)
(0.000939227 0 0.0106905)
(0.00158265 0 -0.0341097)
(0.00126847 0 -0.0505393)
(0.00117006 0 -0.0162504)
(0.00192039 0 0.0344905)
(0.00227391 0 0.0684972)
(0.00216609 0 0.0824331)
(0.00195572 0 0.0863801)
(0.00175863 0 0.0864487)
(0.00160633 0 0.084429)
(0.0015062 0 0.0810032)
(0.00145667 0 0.0766181)
(0.00145111 0 0.0717935)
(0.00147704 0 0.0671587)
(0.0015192 0 0.0633169)
(0.0015641 0 0.060645)
(0.00160251 0 0.0591715)
(0.00162943 0 0.0586135)
(0.0016429 0 0.05853)
(0.00164326 0 0.0584868)
(0.00163258 0 0.058157)
(0.0016141 0 0.0573463)
(0.00159158 0 0.0559713)
(0.00156859 0 0.054023)
(0.00154815 0 0.0515338)
(0.00153251 0 0.0485548)
(0.00152314 0 0.0451424)
(0.00152082 0 0.0413503)
(0.00152571 0 0.0372276)
(0.00153724 0 0.0328198)
(0.00155393 0 0.0281757)
(0.0015733 0 0.0233576)
(0.00159192 0 0.0184603)
(0.00160732 0 0.0136235)
(0.00162086 0 0.00904185)
(0.00162178 0 0.00457539)
(-0.000974062 0 0.0114953)
(-0.000782395 0 0.00676087)
(-0.000597303 0 0.00536158)
(-0.000409037 0 0.00663261)
(-0.000212104 0 0.00955655)
(-1.05512e-05 0 0.0137805)
(0.000190328 0 0.0197044)
(0.000382839 0 0.0276538)
(0.000548182 0 0.0371188)
(0.000655308 0 0.0468049)
(0.000673903 0 0.0551671)
(0.000592953 0 0.0604205)
(0.000482976 0 0.0592329)
(0.000555109 0 0.0448236)
(0.00113672 0 0.0102875)
(0.00180376 0 -0.0342405)
(0.00155575 0 -0.0504035)
(0.00152726 0 -0.0165005)
(0.00231609 0 0.0341184)
(0.0026968 0 0.0684167)
(0.00260555 0 0.0825602)
(0.00240162 0 0.0865567)
(0.0022083 0 0.0866076)
(0.00206004 0 0.084549)
(0.0019645 0 0.0810774)
(0.00192027 0 0.0766461)
(0.0019206 0 0.0717812)
(0.00195288 0 0.0671181)
(0.00200168 0 0.0632628)
(0.00205329 0 0.0605905)
(0.0020982 0 0.0591262)
(0.0021311 0 0.0585835)
(0.00214983 0 0.0585183)
(0.00215463 0 0.0584933)
(0.00214757 0 0.0581793)
(0.00213198 0 0.0573799)
(0.0021117 0 0.0560107)
(0.00209045 0 0.0540626)
(0.00207132 0 0.0515683)
(0.00205662 0 0.04858)
(0.00204787 0 0.0451547)
(0.00204586 0 0.0413475)
(0.00205069 0 0.0372088)
(0.00206167 0 0.0327863)
(0.00207716 0 0.0281314)
(0.0020945 0 0.0233095)
(0.00211031 0 0.0184166)
(0.00212264 0 0.0135907)
(0.00213362 0 0.00902226)
(0.00213216 0 0.00456719)
(-0.00117587 0 0.0113553)
(-0.00095335 0 0.00662643)
(-0.000735612 0 0.00522778)
(-0.000514058 0 0.00649433)
(-0.000283546 0 0.00941376)
(-4.8076e-05 0 0.0136363)
(0.000186918 0 0.0195634)
(0.000413083 0 0.0275251)
(0.00061058 0 0.0370193)
(0.000747334 0 0.0467556)
(0.000792651 0 0.055181)
(0.000735475 0 0.060479)
(0.000649771 0 0.0592367)
(0.000751791 0 0.0445986)
(0.0013546 0 0.00986791)
(0.00204558 0 -0.0344016)
(0.0018682 0 -0.0503191)
(0.00191586 0 -0.0167875)
(0.00274892 0 0.0337201)
(0.0031629 0 0.0683165)
(0.00309196 0 0.082675)
(0.0028973 0 0.0867249)
(0.00271086 0 0.0867591)
(0.00256948 0 0.0846612)
(0.0024811 0 0.0811434)
(0.00244436 0 0.0766653)
(0.00245246 0 0.0717596)
(0.00249269 0 0.0670679)
(0.00254958 0 0.0631985)
(0.00260926 0 0.0605256)
(0.00266198 0 0.0590708)
(0.00270212 0 0.0585439)
(0.00272728 0 0.0584976)
(0.00273756 0 0.0584919)
(0.00273502 0 0.0581946)
(0.00272307 0 0.0574075)
(0.00270565 0 0.0560452)
(0.00268657 0 0.0540982)
(0.00266904 0 0.0515997)
(0.00265545 0 0.0486027)
(0.00264735 0 0.0451655)
(0.00264555 0 0.0413442)
(0.00265011 0 0.0371907)
(0.00266026 0 0.0327551)
(0.00267427 0 0.0280915)
(0.00268944 0 0.023268)
(0.00270258 0 0.0183812)
(0.00271223 0 0.0135665)
(0.00272107 0 0.0090098)
(0.00271764 0 0.00456309)
(-0.00139673 0 0.0111934)
(-0.00114168 0 0.00646862)
(-0.000889434 0 0.00506977)
(-0.000632507 0 0.00633137)
(-0.000366095 0 0.00924602)
(-9.41476e-05 0 0.013467)
(0.000177753 0 0.0193971)
(0.000440617 0 0.0273716)
(0.000673604 0 0.0368962)
(0.000843609 0 0.0466843)
(0.000919481 0 0.0551747)
(0.000890086 0 0.0605178)
(0.000832204 0 0.0592197)
(0.000966945 0 0.0443534)
(0.00159334 0 0.00943163)
(0.00231084 0 -0.0345949)
(0.00220964 0 -0.050289)
(0.00233802 0 -0.0171154)
(0.00321847 0 0.0332924)
(0.00367108 0 0.0681943)
(0.00362503 0 0.0827757)
(0.00344331 0 0.0868832)
(0.00326708 0 0.0869016)
(0.00313547 0 0.0847643)
(0.0030568 0 0.0811999)
(0.00302982 0 0.0766746)
(0.00304765 0 0.0717278)
(0.00309756 0 0.0670069)
(0.00316407 0 0.0631232)
(0.00323322 0 0.0604495)
(0.00329503 0 0.0590042)
(0.00334357 0 0.0584936)
(0.00337622 0 0.0584672)
(0.00339294 0 0.0584818)
(0.00339576 0 0.0582025)
(0.00338815 0 0.057429)
(0.00337414 0 0.0560747)
(0.00335767 0 0.0541297)
(0.00334205 0 0.0516281)
(0.00332973 0 0.0486235)
(0.00332235 0 0.0451754)
(0.00332072 0 0.0413411)
(0.00332491 0 0.0371742)
(0.00333411 0 0.032727)
(0.00334658 0 0.0280565)
(0.00335979 0 0.0232327)
(0.00337078 0 0.0183525)
(0.0033786 0 0.0135486)
(0.00338623 0 0.00900221)
(0.00338163 0 0.00456175)
(-0.00163712 0 0.0110104)
(-0.0013478 0 0.00628804)
(-0.00105918 0 0.00488797)
(-0.000764817 0 0.00614404)
(-0.000460167 0 0.00905349)
(-0.000149162 0 0.0132724)
(0.000162466 0 0.0192055)
(0.000465056 0 0.0271932)
(0.000736777 0 0.0367491)
(0.000943501 0 0.0465906)
(0.00105355 0 0.0551478)
(0.00105571 0 0.0605368)
(0.00102911 0 0.0591819)
(0.00119961 0 0.0440884)
(0.00185313 0 0.00897794)
(0.0026016 0 -0.0348225)
(0.00258215 0 -0.050315)
(0.00279498 0 -0.0174857)
(0.0037253 0 0.0328343)
(0.0042213 0 0.0680484)
(0.00420493 0 0.0828606)
(0.00404018 0 0.0870301)
(0.00387762 0 0.0870339)
(0.00375874 0 0.0848571)
(0.00369243 0 0.0812457)
(0.00367756 0 0.076673)
(0.0037072 0 0.0716846)
(0.00376865 0 0.0669342)
(0.00384645 0 0.0630357)
(0.00392655 0 0.060361)
(0.00399875 0 0.0589254)
(0.00405685 0 0.0584317)
(0.004098 0 0.0584262)
(0.00412204 0 0.0584623)
(0.00413098 0 0.0582023)
(0.00412835 0 0.0574437)
(0.00411829 0 0.0560986)
(0.00410485 0 0.054157)
(0.00409143 0 0.0516534)
(0.00408062 0 0.0486423)
(0.00407408 0 0.0451843)
(0.0040727 0 0.0413382)
(0.00407653 0 0.0371593)
(0.0040848 0 0.0327019)
(0.00409586 0 0.0280256)
(0.00410738 0 0.0232023)
(0.0041167 0 0.0183284)
(0.00412323 0 0.0135341)
(0.00413 0 0.0089966)
(0.00412423 0 0.00456126)
(-0.00189781 0 0.0108055)
(-0.00157241 0 0.00608383)
(-0.00124556 0 0.00468139)
(-0.000911612 0 0.00593126)
(-0.000566334 0 0.00883489)
(-0.000213649 0 0.0130512)
(0.000140575 0 0.018987)
(0.000485964 0 0.0269881)
(0.000799689 0 0.0365763)
(0.00104659 0 0.0464727)
(0.00119435 0 0.0550984)
(0.0012317 0 0.0605343)
(0.00123979 0 0.0591216)
(0.00144922 0 0.0438015)
(0.00213415 0 0.00850382)
(0.00291851 0 -0.035088)
(0.00298535 0 -0.0503992)
(0.00328663 0 -0.0179003)
(0.00427069 0 0.0323436)
(0.00481504 0 0.0678763)
(0.00483281 0 0.0829267)
(0.00468888 0 0.0871629)
(0.00454341 0 0.0871536)
(0.00444022 0 0.0849373)
(0.00438896 0 0.0812787)
(0.00438859 0 0.0766581)
(0.00443221 0 0.0716279)
(0.00450713 0 0.0668477)
(0.00459797 0 0.0629342)
(0.00469057 0 0.0602584)
(0.00477454 0 0.0588328)
(0.00484342 0 0.0583568)
(0.00489413 0 0.0583732)
(0.00492641 0 0.0584321)
(0.00494227 0 0.0581928)
(0.00494529 0 0.0574505)
(0.00493974 0 0.056116)
(0.00492977 0 0.0541792)
(0.00491892 0 0.0516748)
(0.00490985 0 0.0486585)
(0.00490433 0 0.045192)
(0.00490328 0 0.0413354)
(0.00490677 0 0.0371458)
(0.00491407 0 0.0326796)
(0.00492364 0 0.0279985)
(0.00493336 0 0.023176)
(0.00494083 0 0.0183083)
(0.00494591 0 0.0135233)
(0.00495184 0 0.00899482)
(0.00494509 0 0.00456371)
(-0.00217982 0 0.0105772)
(-0.00181656 0 0.00585434)
(-0.00144951 0 0.00444828)
(-0.00107373 0 0.00569115)
(-0.00068537 0 0.00858817)
(-0.000288321 0 0.0128011)
(0.00011143 0 0.0187392)
(0.000502777 0 0.0267538)
(0.000861887 0 0.0363753)
(0.00115252 0 0.0463279)
(0.0013416 0 0.0550238)
(0.00141784 0 0.0605074)
(0.00146418 0 0.059036)
(0.00171589 0 0.0434899)
(0.00243647 0 0.00800575)
(0.00326092 0 -0.0353945)
(0.00341749 0 -0.0505442)
(0.00381221 0 -0.0183628)
(0.00485624 0 0.0318167)
(0.00545461 0 0.067674)
(0.00551065 0 0.0829704)
(0.00539101 0 0.087278)
(0.00526579 0 0.0872573)
(0.00518119 0 0.0850018)
(0.00514759 0 0.0812959)
(0.0051641 0 0.0766274)
(0.00522381 0 0.0715553)
(0.00531415 0 0.0667451)
(0.00541977 0 0.0628164)
(0.00552649 0 0.0601397)
(0.0056237 0 0.0587246)
(0.00570469 0 0.0582671)
(0.00576617 0 0.0583065)
(0.00580775 0 0.0583896)
(0.00583144 0 0.0581726)
(0.00584089 0 0.0574482)
(0.00584047 0 0.0561259)
(0.00583448 0 0.0541954)
(0.00582657 0 0.0516917)
(0.00581951 0 0.0486717)
(0.00581515 0 0.0451981)
(0.00581442 0 0.0413326)
(0.00581744 0 0.0371339)
(0.00582346 0 0.0326606)
(0.00583102 0 0.0279762)
(0.00583826 0 0.0231552)
(0.00584308 0 0.0182935)
(0.00584604 0 0.0135166)
(0.00585109 0 0.00899447)
(0.00584389 0 0.00456565)
(-0.00248432 0 0.0103241)
(-0.00208138 0 0.00559805)
(-0.0016721 0 0.004187)
(-0.00125217 0 0.00542191)
(-0.000818225 0 0.00831137)
(-0.000374067 0 0.01252)
(7.42052e-05 0 0.0184598)
(0.000514766 0 0.026488)
(0.000922782 0 0.0361432)
(0.00126086 0 0.0461534)
(0.00149508 0 0.0549211)
(0.00161413 0 0.0604531)
(0.0017026 0 0.0589222)
(0.00199999 0 0.0431508)
(0.00275993 0 0.00748095)
(0.0036277 0 -0.0357445)
(0.00387717 0 -0.0507527)
(0.00437135 0 -0.0188778)
(0.00548336 0 0.0312487)
(0.00614221 0 0.067438)
(0.00624053 0 0.0829884)
(0.00614838 0 0.0873725)
(0.00604638 0 0.0873422)
(0.00598309 0 0.0850479)
(0.0059697 0 0.0812948)
(0.00600539 0 0.0765785)
(0.00608327 0 0.0714645)
(0.0061909 0 0.0666242)
(0.00631305 0 0.0626804)
(0.00643554 0 0.0600029)
(0.00654756 0 0.0585987)
(0.00664214 0 0.0581606)
(0.00671573 0 0.0582244)
(0.00676781 0 0.0583334)
(0.00680037 0 0.0581403)
(0.00681711 0 0.0574356)
(0.00682253 0 0.0561274)
(0.00682108 0 0.0542047)
(0.00681654 0 0.0517036)
(0.0068118 0 0.0486814)
(0.00680878 0 0.0452025)
(0.00680847 0 0.04133)
(0.00681097 0 0.0371244)
(0.00681555 0 0.0326462)
(0.00682083 0 0.0279605)
(0.00682519 0 0.0231425)
(0.0068269 0 0.0182866)
(0.00682678 0 0.0135155)
(0.0068281 0 0.00899643)
(0.00681587 0 0.00456801)
(-0.00281247 0 0.010045)
(-0.00236801 0 0.00531367)
(-0.00191443 0 0.00389615)
(-0.00144803 0 0.00512194)
(-0.000965957 0 0.00800276)
(-0.000471902 0 0.0122061)
(2.79412e-05 0 0.0181467)
(0.000521059 0 0.0261882)
(0.00098162 0 0.0358777)
(0.00137103 0 0.0459466)
(0.00165436 0 0.0547877)
(0.00182038 0 0.060369)
(0.00195514 0 0.0587779)
(0.00230168 0 0.0427821)
(0.00310414 0 0.00692735)
(0.00401813 0 -0.0361402)
(0.00436422 0 -0.0510278)
(0.00496452 0 -0.0194506)
(0.00615301 0 0.0306345)
(0.00687922 0 0.0671645)
(0.00702407 0 0.0829781)
(0.00696264 0 0.087444)
(0.00688673 0 0.0874059)
(0.00684744 0 0.0850731)
(0.00685675 0 0.081273)
(0.00691387 0 0.0765091)
(0.00701195 0 0.0713533)
(0.00713875 0 0.066483)
(0.0072792 0 0.062524)
(0.00741915 0 0.0598458)
(0.00754763 0 0.058453)
(0.00765735 0 0.0580353)
(0.00774449 0 0.0581249)
(0.00780836 0 0.0582615)
(0.00785089 0 0.0580944)
(0.00787587 0 0.0574114)
(0.00788791 0 0.0561191)
(0.00789163 0 0.0542064)
(0.00789098 0 0.0517095)
(0.00788899 0 0.0486872)
(0.00788767 0 0.0452049)
(0.0078881 0 0.0413275)
(0.00789042 0 0.0371171)
(0.00789397 0 0.0326362)
(0.00789745 0 0.0279513)
(0.00789936 0 0.023138)
(0.00789787 0 0.0182901)
(0.00789305 0 0.013529)
(0.00788547 0 0.00901994)
(0.00786003 0 0.00458994)
(-0.00316539 0 0.00973901)
(-0.00267757 0 0.00499998)
(-0.00217761 0 0.00357431)
(-0.00166243 0 0.00478965)
(-0.00112969 0 0.00766061)
(-0.000582926 0 0.0118574)
(-2.84175e-05 0 0.0177979)
(0.000520663 0 0.0258523)
(0.00103747 0 0.0355763)
(0.00148217 0 0.045705)
(0.00181872 0 0.0546209)
(0.00203605 0 0.0602523)
(0.00222148 0 0.0586005)
(0.00262072 0 0.0423818)
(0.00346871 0 0.00634302)
(0.00443228 0 -0.0365841)
(0.00487971 0 -0.051373)
(0.00559286 0 -0.0200864)
(0.00686571 0 0.0299692)
(0.00766611 0 0.0668497)
(0.00786222 0 0.0829365)
(0.00783505 0 0.0874899)
(0.00778828 0 0.087446)
(0.00777572 0 0.0850752)
(0.00781026 0 0.0812283)
(0.0078911 0 0.0764171)
(0.00801146 0 0.0712197)
(0.00815933 0 0.0663195)
(0.00831991 0 0.0623452)
(0.00847906 0 0.0596664)
(0.00862566 0 0.0582856)
(0.0087521 0 0.0578892)
(0.00885426 0 0.0580062)
(0.00893122 0 0.0581722)
(0.00898487 0 0.0580332)
(0.00901904 0 0.0573741)
(0.00903851 0 0.0561)
(0.00904805 0 0.0541992)
(0.00905182 0 0.0517087)
(0.009053 0 0.048688)
(0.00905377 0 0.0452043)
(0.00905529 0 0.0413238)
(0.0090578 0 0.0371106)
(0.00906079 0 0.0326289)
(0.00906306 0 0.0279465)
(0.00906297 0 0.0231406)
(0.00905797 0 0.0183069)
(0.00904692 0 0.0135687)
(0.00902852 0 0.00908301)
(0.00898848 0 0.00464562)
(-0.00354422 0 0.00940488)
(-0.00301116 0 0.0046557)
(-0.0024628 0 0.00322002)
(-0.00189657 0 0.00442344)
(-0.00131062 0 0.00728313)
(-0.000708311 0 0.011472)
(-9.60122e-05 0 0.0174111)
(0.000512464 0 0.0254778)
(0.00108923 0 0.0352365)
(0.00159317 0 0.0454258)
(0.00198713 0 0.0544179)
(0.00226019 0 0.0601)
(0.00250084 0 0.0583873)
(0.0029565 0 0.0419475)
(0.00385337 0 0.00572567)
(0.00487091 0 -0.0370791)
(0.00542534 0 -0.0517922)
(0.00625769 0 -0.0207899)
(0.00762176 0 0.029248)
(0.00850285 0 0.0664895)
(0.00875545 0 0.0828602)
(0.00876658 0 0.0875072)
(0.00875228 0 0.0874597)
(0.00876939 0 0.0850515)
(0.00883182 0 0.0811582)
(0.00893878 0 0.0763)
(0.00908361 0 0.0710615)
(0.00925458 0 0.0661314)
(0.00943715 0 0.0621419)
(0.0096173 0 0.0594626)
(0.0097837 0 0.0580942)
(0.00992844 0 0.0577203)
(0.010047 0 0.0578661)
(0.0101384 0 0.0580637)
(0.0102043 0 0.0579551)
(0.0102486 0 0.0573223)
(0.0102762 0 0.0560686)
(0.0102922 0 0.0541822)
(0.0103008 0 0.0517001)
(0.0103055 0 0.0486832)
(0.0103085 0 0.0451999)
(0.0103112 0 0.0413183)
(0.010314 0 0.0371042)
(0.0103164 0 0.0326233)
(0.0103173 0 0.0279455)
(0.0103149 0 0.0231506)
(0.0103059 0 0.018339)
(0.0102888 0 0.0136349)
(0.0102635 0 0.00917874)
(0.0102162 0 0.00472461)
(-0.00395017 0 0.00904145)
(-0.00337001 0 0.00427951)
(-0.00277123 0 0.00283182)
(-0.00215171 0 0.00402169)
(-0.00151002 0 0.00686853)
(-0.000849317 0 0.0110478)
(-0.000176077 0 0.0169842)
(0.00049524 0 0.0250623)
(0.00113567 0 0.0348557)
(0.0017028 0 0.0451064)
(0.00215835 0 0.0541757)
(0.00249165 0 0.059909)
(0.00279215 0 0.0581355)
(0.00330823 0 0.0414769)
(0.00425801 0 0.00507242)
(0.00533518 0 -0.0376291)
(0.00600286 0 -0.0522892)
(0.00696024 0 -0.0215652)
(0.00842145 0 0.0284668)
(0.00938941 0 0.0660798)
(0.00970412 0 0.0827452)
(0.00975807 0 0.0874925)
(0.00977994 0 0.0874441)
(0.00982992 0 0.0849994)
(0.00992309 0 0.0810602)
(0.0100587 0 0.0761556)
(0.0102304 0 0.0708763)
(0.0104266 0 0.0659165)
(0.0106331 0 0.0619117)
(0.0108361 0 0.0592321)
(0.011024 0 0.0578766)
(0.0111886 0 0.0575263)
(0.0113251 0 0.0577029)
(0.0114321 0 0.0579342)
(0.0115113 0 0.0578584)
(0.0115667 0 0.0572545)
(0.0116033 0 0.056024)
(0.0116262 0 0.0541543)
(0.0116401 0 0.0516832)
(0.0116485 0 0.0486724)
(0.0116539 0 0.0451919)
(0.0116576 0 0.0413114)
(0.0116603 0 0.0370985)
(0.0116616 0 0.0326208)
(0.0116605 0 0.0279502)
(0.0116552 0 0.0231699)
(0.0116421 0 0.0183846)
(0.0116212 0 0.0137158)
(0.0115951 0 0.00928369)
(0.0115488 0 0.00480546)
(-0.00438457 0 0.00864755)
(-0.00375544 0 0.00387012)
(-0.00310423 0 0.0024083)
(-0.00242921 0 0.00358282)
(-0.00172925 0 0.00641501)
(-0.0010073 0 0.0105829)
(-0.000269939 0 0.0165148)
(0.000467678 0 0.0246033)
(0.00117546 0 0.0344313)
(0.00180973 0 0.0447439)
(0.00233107 0 0.0538914)
(0.00272908 0 0.0596764)
(0.00309413 0 0.0578419)
(0.00367496 0 0.040967)
(0.00468262 0 0.00437971)
(0.00582643 0 -0.0382384)
(0.00661387 0 -0.0528681)
(0.00770149 0 -0.0224162)
(0.00926532 0 0.0276217)
(0.0103261 0 0.0656164)
(0.0107088 0 0.0825875)
(0.0108104 0 0.0874421)
(0.0108725 0 0.0873959)
(0.0109588 0 0.0849158)
(0.0110858 0 0.0809314)
(0.0112529 0 0.0759811)
(0.0114538 0 0.0706615)
(0.0116776 0 0.0656723)
(0.0119102 0 0.0616525)
(0.0121379 0 0.0589727)
(0.0123491 0 0.0576308)
(0.0125352 0 0.0573054)
(0.0126909 0 0.0575144)
(0.0128149 0 0.0577819)
(0.0129085 0 0.0577416)
(0.0129759 0 0.0571694)
(0.0130222 0 0.0559649)
(0.0130527 0 0.0541148)
(0.0130723 0 0.0516574)
(0.0130846 0 0.0486554)
(0.0130924 0 0.0451804)
(0.0130973 0 0.0413038)
(0.0130997 0 0.0370948)
(0.0130996 0 0.0326229)
(0.013096 0 0.0279623)
(0.0130875 0 0.0231987)
(0.0130711 0 0.0184387)
(0.0130489 0 0.0137983)
(0.0130261 0 0.00937953)
(0.0129843 0 0.00487492)
(-0.00484887 0 0.00822199)
(-0.00416889 0 0.00342624)
(-0.00346328 0 0.00194804)
(-0.00273055 0 0.00310526)
(-0.00196979 0 0.00592077)
(-0.0011837 0 0.0100751)
(-0.00037901 0 0.0160009)
(0.000428387 0 0.0240987)
(0.00120722 0 0.0339607)
(0.00191256 0 0.0443357)
(0.00250388 0 0.0535622)
(0.00297106 0 0.0593991)
(0.00340529 0 0.0575037)
(0.00405552 0 0.0404146)
(0.00512716 0 0.00364319)
(0.006346 0 -0.0389117)
(0.00725967 0 -0.0535326)
(0.00848218 0 -0.0233465)
(0.0101541 0 0.0267089)
(0.0113136 0 0.0650951)
(0.0117702 0 0.0823829)
(0.0119247 0 0.0873522)
(0.0120313 0 0.0873116)
(0.0121576 0 0.0847975)
(0.0123216 0 0.0807689)
(0.0125231 0 0.0757737)
(0.0127561 0 0.0704145)
(0.0130099 0 0.0653963)
(0.0132708 0 0.0613616)
(0.0135253 0 0.0586821)
(0.0137616 0 0.0573546)
(0.0139707 0 0.0570553)
(0.0141473 0 0.0572989)
(0.0142894 0 0.0576049)
(0.0143986 0 0.057603)
(0.014479 0 0.0570655)
(0.0145358 0 0.05589)
(0.0145746 0 0.0540627)
(0.0146004 0 0.0516219)
(0.0146171 0 0.0486317)
(0.0146277 0 0.0451652)
(0.0146338 0 0.0412953)
(0.0146361 0 0.0370932)
(0.0146348 0 0.03263)
(0.014629 0 0.0279816)
(0.0146177 0 0.0232354)
(0.014599 0 0.0184971)
(0.0145769 0 0.0138761)
(0.014558 0 0.00946171)
(0.0145198 0 0.00493179)
(-0.00534465 0 0.00776356)
(-0.00461197 0 0.00294657)
(-0.00384996 0 0.00144964)
(-0.00305732 0 0.00258742)
(-0.00223322 0 0.00538397)
(-0.00138008 0 0.00952239)
(-0.000504805 0 0.0154401)
(0.000375876 0 0.0235458)
(0.00122948 0 0.0334415)
(0.00200984 0 0.0438791)
(0.00267531 0 0.0531851)
(0.00321599 0 0.0590741)
(0.00372393 0 0.0571177)
(0.00444853 0 0.0398157)
(0.00559148 0 0.00285762)
(0.00689502 0 -0.0396542)
(0.0079412 0 -0.0542861)
(0.00930283 0 -0.0243592)
(0.0110884 0 0.0257248)
(0.0123529 0 0.0645119)
(0.0128895 0 0.0821269)
(0.0131019 0 0.0872187)
(0.0132575 0 0.0871876)
(0.0134277 0 0.0846413)
(0.0136323 0 0.0805695)
(0.0138714 0 0.0755304)
(0.0141393 0 0.0701323)
(0.0144257 0 0.0650857)
(0.0147174 0 0.0610365)
(0.0150009 0 0.0583577)
(0.0152642 0 0.0570455)
(0.0154982 0 0.056774)
(0.015697 0 0.0570542)
(0.0158587 0 0.0574014)
(0.0159846 0 0.0574408)
(0.016079 0 0.0569413)
(0.0161472 0 0.0557981)
(0.016195 0 0.0539966)
(0.0162277 0 0.0515757)
(0.0162494 0 0.0486004)
(0.0162632 0 0.0451452)
(0.0162711 0 0.041285)
(0.0162739 0 0.0370926)
(0.0162719 0 0.0326407)
(0.0162646 0 0.0280065)
(0.0162513 0 0.0232776)
(0.016231 0 0.0185576)
(0.016209 0 0.0139498)
(0.0161928 0 0.00953486)
(0.0161554 0 0.0049811)
(-0.00587362 0 0.00727106)
(-0.00508641 0 0.00242985)
(-0.00426602 0 0.000911726)
(-0.00341127 0 0.00202771)
(-0.00252129 0 0.00480276)
(-0.00159814 0 0.00892278)
(-0.000648981 0 0.0148301)
(0.000308523 0 0.0229424)
(0.00124064 0 0.032871)
(0.0021 0 0.0433714)
(0.00284375 0 0.0527574)
(0.00346211 0 0.0586986)
(0.00404813 0 0.0566807)
(0.00485245 0 0.0391662)
(0.00607516 0 0.00201698)
(0.00747399 0 -0.0404715)
(0.00865877 0 -0.055132)
(0.0101636 0 -0.0254578)
(0.0120691 0 0.0246653)
(0.013445 0 0.0638622)
(0.0140677 0 0.0818151)
(0.0143435 0 0.0870373)
(0.0145527 0 0.0870201)
(0.0147709 0 0.0844435)
(0.0150197 0 0.0803298)
(0.0152998 0 0.0752478)
(0.0156057 0 0.0698119)
(0.0159277 0 0.0647375)
(0.0162527 0 0.0606743)
(0.0165675 0 0.0579969)
(0.0168599 0 0.0567011)
(0.0171205 0 0.056459)
(0.0173432 0 0.0567781)
(0.0175258 0 0.0571693)
(0.0176698 0 0.0572532)
(0.0177792 0 0.056795)
(0.0178597 0 0.0556875)
(0.0179174 0 0.0539153)
(0.0179577 0 0.0515175)
(0.017985 0 0.0485602)
(0.0180028 0 0.0451194)
(0.018013 0 0.0412717)
(0.0180169 0 0.0370917)
(0.0180149 0 0.0326534)
(0.0180068 0 0.0280349)
(0.0179922 0 0.0233237)
(0.0179705 0 0.0186205)
(0.017948 0 0.0140231)
(0.0179327 0 0.00960555)
(0.0178938 0 0.00502834)
(-0.00643769 0 0.00674327)
(-0.00559413 0 0.00187481)
(-0.0047134 0 0.000332925)
(-0.00379436 0 0.00142454)
(-0.0028359 0 0.00417531)
(-0.00183977 0 0.00827413)