/*--------------------------------*- C++ -*----------------------------------*\
  =========                 |
  \\      /  F ield         | OpenFOAM: The Open Source CFD Toolbox
   \\    /   O peration     | Website:  https://openfoam.org
    \\  /    A nd           | Version:  9
     \\/     M anipulation  |
\*---------------------------------------------------------------------------*/
FoamFile
{
    format      ascii;
    class       surfaceVectorField;
    location    "0.09";
    object      Uf;
}
// * * * * * * * * * * * * * * * * * * * * * * * * * * * * * * * * * * * * * //

dimensions      [0 1 -1 0 0 0 0];

internalField   nonuniform List<vector> 
9850
(
(-1.69592e-05 0 0.00966039)
(-5.10582e-05 0 0.0120002)
(-1.08488e-05 0 0.00655922)
(-3.56106e-05 0 0.00720402)
(-5.5732e-06 0 0.00650937)
(-2.41036e-05 0 0.0057938)
(1.06286e-06 0 0.00864088)
(-1.07448e-05 0 0.00709667)
(9.06337e-06 0 0.0122366)
(5.79363e-06 0 0.0100499)
(1.86865e-05 0 0.0173141)
(2.41298e-05 0 0.0142834)
(3.12271e-05 0 0.0242272)
(4.46798e-05 0 0.0202001)
(4.5826e-05 0 0.0328425)
(6.81975e-05 0 0.0281032)
(5.67895e-05 0 0.0422077)
(9.00099e-05 0 0.037426)
(5.55774e-05 0 0.0508971)
(9.85275e-05 0 0.0468361)
(3.35552e-05 0 0.0573459)
(7.98649e-05 0 0.0548182)
(-1.50075e-05 0 0.0593432)
(2.22023e-05 0 0.0597572)
(-7.42307e-05 0 0.0524569)
(-6.81086e-05 0 0.0588349)
(-5.43037e-05 0 0.0295285)
(-0.000112476 0 0.0459576)
(0.000105583 0 -0.0104329)
(7.94394e-05 0 0.0128888)
(9.0506e-05 0 -0.0431588)
(0.000278834 0 -0.0338903)
(-0.000114621 0 -0.0337018)
(-1.77744e-05 0 -0.0523298)
(3.44401e-05 0 0.0108814)
(-0.000129914 0 -0.0151214)
(0.000203773 0 0.052785)
(0.000223473 0 0.0365478)
(0.00017501 0 0.0758591)
(0.000356656 0 0.0687615)
(9.80961e-05 0 0.0835374)
(0.000264556 0 0.0815766)
(3.98118e-05 0 0.0854987)
(0.000154047 0 0.0853597)
(6.0272e-07 0 0.0846865)
(7.33674e-05 0 0.0855767)
(-2.62679e-05 0 0.0821768)
(1.71162e-05 0 0.0837765)
(-4.26709e-05 0 0.0784977)
(-1.96755e-05 0 0.0805874)
(-4.93665e-05 0 0.0741092)
(-3.93029e-05 0 0.0764387)
(-4.72684e-05 0 0.0695553)
(-4.36665e-05 0 0.071819)
(-3.86657e-05 0 0.0654292)
(-3.6222e-05 0 0.0673258)
(-2.68425e-05 0 0.0622159)
(-2.19652e-05 0 0.0635491)
(-1.50294e-05 0 0.0601285)
(-5.88341e-06 0 0.0608747)
(-5.68961e-06 0 0.0590553)
(8.27613e-06 0 0.0593509)
(-2.7527e-07 0 0.058649)
(1.8068e-05 0 0.0587133)
(7.23407e-07 0 0.0584867)
(2.22244e-05 0 0.0585355)
(-2.34109e-06 0 0.0582033)
(2.04624e-05 0 0.0583973)
(-8.59681e-06 0 0.0575524)
(1.35768e-05 0 0.0579854)
(-1.67895e-05 0 0.0564054)
(3.08183e-06 0 0.0571162)
(-2.56877e-05 0 0.0547206)
(-9.376e-06 0 0.0557122)
(-3.42638e-05 0 0.0525098)
(-2.21607e-05 0 0.0537657)
(-4.17476e-05 0 0.0498117)
(-3.39149e-05 0 0.0513068)
(-4.76031e-05 0 0.0466757)
(-4.36295e-05 0 0.0483828)
(-5.14728e-05 0 0.0431522)
(-5.06098e-05 0 0.0450452)
(-5.31235e-05 0 0.0392874)
(-5.44106e-05 0 0.0413434)
(-5.24212e-05 0 0.0351214)
(-5.47867e-05 0 0.0373206)
(-4.93617e-05 0 0.0306902)
(-5.17039e-05 0 0.0330141)
(-4.41735e-05 0 0.0260314)
(-4.54502e-05 0 0.0284592)
(-3.75297e-05 0 0.0211951)
(-3.67694e-05 0 0.0236972)
(-3.11114e-05 0 0.0162607)
(-2.75759e-05 0 0.0187905)
(-2.80187e-05 0 0.011366)
(-2.01476e-05 0 0.0138415)
(-3.51112e-05 0 0.00657632)
(-2.22129e-05 0 0.00903841)
(-5.97363e-05 0 0.00435189)
(-6.80636e-05 0 0.00949905)
(-0.00011647 0 0.0119818)
(-4.92739e-05 0 0.00639309)
(-8.49924e-05 0 0.00719147)
(-3.03627e-05 0 0.00633422)
(-5.98932e-05 0 0.00578118)
(-6.2291e-06 0 0.00845785)
(-3.08608e-05 0 0.00708058)
(2.10215e-05 0 0.0120491)
(4.41964e-06 0 0.0100318)
(4.97734e-05 0 0.0171229)
(4.23188e-05 0 0.0142643)
(8.11523e-05 0 0.0240303)
(8.16771e-05 0 0.0201792)
(0.000113762 0 0.0326403)
(0.000122931 0 0.0280815)
(0.00013641 0 0.0420061)
(0.000158949 0 0.037411)
(0.000130026 0 0.0507057)
(0.000171506 0 0.0468404)
(7.57481e-05 0 0.057173)
(0.000138523 0 0.0548544)
(-2.97212e-05 0 0.0591828)
(4.36462e-05 0 0.0598275)
(-0.000124468 0 0.0522607)
(-9.42126e-05 0 0.0588981)
(-1.25714e-05 0 0.0292585)
(-0.000144045 0 0.045883)
(0.000324417 0 -0.0105993)
(0.000197795 0 0.0126642)
(0.000269717 0 -0.0430827)
(0.000553069 0 -0.0338538)
(-0.000158559 0 -0.0337598)
(6.97998e-05 0 -0.0520443)
(7.34557e-05 0 0.0105266)
(-0.000154006 0 -0.0152761)
(0.000453779 0 0.0524726)
(0.000395993 0 0.0362943)
(0.000457826 0 0.0757076)
(0.000627849 0 0.0687588)
(0.000313751 0 0.0834368)
(0.000504089 0 0.0816942)
(0.000181604 0 0.0853985)
(0.000336039 0 0.0854728)
(8.50548e-05 0 0.0845833)
(0.000205302 0 0.0856634)
(1.97302e-05 0 0.0820734)
(0.000110495 0 0.083838)
(-1.99066e-05 0 0.0783954)
(4.80622e-05 0 0.0806266)
(-3.64024e-05 0 0.0740087)
(1.50692e-05 0 0.0764559)
(-3.42363e-05 0 0.0694579)
(7.14347e-06 0 0.0718167)
(-2.00548e-05 0 0.0653362)
(1.75233e-05 0 0.0673097)
(-7.89986e-07 0 0.0621281)
(3.74864e-05 0 0.0635261)
(1.80075e-05 0 0.0600463)
(5.92805e-05 0 0.0608512)
(3.27532e-05 0 0.0589789)
(7.77596e-05 0 0.0593316)
(4.13133e-05 0 0.0585795)
(8.99241e-05 0 0.0587015)
(4.26668e-05 0 0.0584253)
(9.43413e-05 0 0.0585335)
(3.70069e-05 0 0.058151)
(9.07327e-05 0 0.058406)
(2.56368e-05 0 0.0575093)
(8.00744e-05 0 0.0580035)
(1.05502e-05 0 0.0563705)
(6.43335e-05 0 0.0571413)
(-6.06567e-06 0 0.0546926)
(4.58461e-05 0 0.0557413)
(-2.22192e-05 0 0.052487)
(2.69833e-05 0 0.0537953)
(-3.63126e-05 0 0.0497926)
(9.76293e-06 0 0.0513339)
(-4.71864e-05 0 0.0466588)
(-4.28251e-06 0 0.0484047)
(-5.40707e-05 0 0.043136)
(-1.4089e-05 0 0.0450597)
(-5.6516e-05 0 0.0392705)
(-1.89859e-05 0 0.0413487)
(-5.43746e-05 0 0.0351027)
(-1.86306e-05 0 0.0373154)
(-4.78811e-05 0 0.0306693)
(-1.30212e-05 0 0.0329981)
(-3.78471e-05 0 0.0260094)
(-2.65184e-06 0 0.0284333)
(-2.60594e-05 0 0.0211769)
(1.1241e-05 0 0.0236654)
(-1.63513e-05 0 0.0162579)
(2.59466e-05 0 0.018763)
(-1.57032e-05 0 0.0114063)
(3.7827e-05 0 0.0138395)
(-3.55073e-05 0 0.00670822)
(3.73811e-05 0 0.00909999)
(-6.44176e-06 0 0.00450148)
(-0.000131475 0 0.0095091)
(-0.000197167 0 0.0119501)
(-9.61576e-05 0 0.00640938)
(-0.000146482 0 0.0071679)
(-6.18199e-05 0 0.00635082)
(-0.000104481 0 0.00575829)
(-2.04474e-05 0 0.00847226)
(-5.80748e-05 0 0.00705304)
(2.62481e-05 0 0.012062)
(-3.44455e-06 0 0.0100007)
(7.4491e-05 0 0.0171347)
(5.46991e-05 0 0.0142322)
(0.000123526 0 0.024042)
(0.000113428 0 0.0201467)
(0.000169825 0 0.0326577)
(0.000171619 0 0.0280507)
(0.000198798 0 0.0420411)
(0.00021985 0 0.0373918)
(0.00018674 0 0.0507729)
(0.000236008 0 0.0468486)
(0.000111818 0 0.0572797)
(0.000193888 0 0.0549045)
(-2.32673e-05 0 0.0593034)
(7.64471e-05 0 0.0599177)
(-0.000126305 0 0.0522894)
(-8.57583e-05 0 0.0589669)
(4.29512e-05 0 0.029101)
(-0.000129829 0 0.0457702)
(0.00049523 0 -0.010713)
(0.000308593 0 0.0123627)
(0.000469314 0 -0.0428971)
(0.000783351 0 -0.0338365)
(-2.84629e-05 0 -0.0336523)
(0.000243734 0 -0.0517125)
(0.000190278 0 0.0103452)
(-4.12322e-05 0 -0.015422)
(0.00064202 0 0.052375)
(0.00058664 0 0.0359931)
(0.000682013 0 0.0758242)
(0.00086512 0 0.0687321)
(0.0005215 0 0.0836117)
(0.000732439 0 0.0818251)
(0.000354937 0 0.0855537)
(0.000538502 0 0.0856154)
(0.000225126 0 0.0847057)
(0.000379351 0 0.0857799)
(0.000134208 0 0.0821642)
(0.000260127 0 0.0839237)
(7.92139e-05 0 0.0784556)
(0.000180743 0 0.080681)
(5.5988e-05 0 0.0740402)
(0.000138734 0 0.07648)
(5.76865e-05 0 0.0694661)
(0.000128562 0 0.071815)
(7.48371e-05 0 0.0653296)
(0.000141182 0 0.0672903)
(9.78324e-05 0 0.062116)
(0.000165219 0 0.0634988)
(0.000119451 0 0.0600364)
(0.000190839 0 0.0608242)
(0.000135396 0 0.0589769)
(0.000211745 0 0.0593107)
(0.000143466 0 0.0585886)
(0.000224614 0 0.0586904)
(0.000142889 0 0.058447)
(0.000228117 0 0.0585344)
(0.000134174 0 0.0581845)
(0.00022229 0 0.0584192)
(0.000118924 0 0.0575519)
(0.000208464 0 0.0580278)
(9.95264e-05 0 0.0564186)
(0.000188979 0 0.0571737)
(7.85992e-05 0 0.0547418)
(0.000166628 0 0.0557779)
(5.85527e-05 0 0.0525333)
(0.00014418 0 0.0538321)
(4.13427e-05 0 0.0498323)
(0.00012399 0 0.051367)
(2.84006e-05 0 0.0466889)
(0.000107852 0 0.0484307)
(2.06794e-05 0 0.043154)
(9.70101e-05 0 0.045076)
(1.87309e-05 0 0.0392745)
(9.22393e-05 0 0.0413529)
(2.27378e-05 0 0.0350916)
(9.39235e-05 0 0.037306)
(3.24402e-05 0 0.0306432)
(0.000102053 0 0.0329742)
(4.69342e-05 0 0.0259708)
(0.000116072 0 0.0283959)
(6.42214e-05 0 0.0211339)
(0.000134505 0 0.0236187)
(8.0117e-05 0 0.0162289)
(0.000154357 0 0.018718)
(8.69382e-05 0 0.0114226)
(0.000171314 0 0.0138193)
(7.62012e-05 0 0.00678645)
(0.000177989 0 0.00913337)
(0.000153193 0 0.00458124)
(-0.000210265 0 0.00954285)
(-0.000296557 0 0.0119036)
(-0.000154692 0 0.00644998)
(-0.000223833 0 0.00713083)
(-0.000101575 0 0.00639205)
(-0.000161166 0 0.00572289)
(-4.14059e-05 0 0.00851117)
(-9.46818e-05 0 0.00701296)
(2.51246e-05 0 0.0120993)
(-1.93735e-05 0 0.00995642)
(9.37292e-05 0 0.0171717)
(6.00855e-05 0 0.0141866)
(0.000161793 0 0.0240816)
(0.00013982 0 0.0201014)
(0.000223231 0 0.0327083)
(0.000216931 0 0.0280099)
(0.000260561 0 0.0421181)
(0.000279567 0 0.037367)
(0.000247591 0 0.0508932)
(0.000302863 0 0.0468574)
(0.000162108 0 0.0574496)
(0.000258586 0 0.0549616)
(1.25053e-05 0 0.0594859)
(0.000130789 0 0.0600175)
(-9.23067e-05 0 0.0523586)
(-3.98129e-05 0 0.0590368)
(0.000111255 0 0.0289559)
(-7.2794e-05 0 0.0456346)
(0.000628639 0 -0.0108212)
(0.000415478 0 0.0120178)
(0.000651036 0 -0.0426946)
(0.000960899 0 -0.0338514)
(0.000153766 0 -0.0335219)
(0.000444933 0 -0.051381)
(0.000384261 0 0.0101744)
(0.000162819 0 -0.0155756)
(0.000857173 0 0.0522838)
(0.000821107 0 0.0356778)
(0.00091192 0 0.0759719)
(0.00111778 0 0.0686956)
(0.000744982 0 0.0838396)
(0.000981873 0 0.0819613)
(0.000559543 0 0.0857703)
(0.000774822 0 0.085774)
(0.000409625 0 0.0848858)
(0.000597572 0 0.0859145)
(0.000302558 0 0.0823035)
(0.000462208 0 0.0840246)
(0.000236967 0 0.0785537)
(0.000371457 0 0.0807458)
(0.000209072 0 0.0740997)
(0.000323283 0 0.076509)
(0.000210957 0 0.0694943)
(0.000311781 0 0.071813)
(0.000231286 0 0.0653377)
(0.000326521 0 0.0672672)
(0.000258459 0 0.062116)
(0.000354423 0 0.0634664)
(0.000283622 0 0.060038)
(0.00038409 0 0.0607927)
(0.000301553 0 0.0589867)
(0.000408111 0 0.0592872)
(0.000309829 0 0.0586107)
(0.000422668 0 0.0586791)
(0.000307927 0 0.0584826)
(0.000426382 0 0.0585372)
(0.000296776 0 0.0582326)
(0.000419553 0 0.0584361)
(0.000278469 0 0.0576095)
(0.00040389 0 0.0580569)
(0.000255824 0 0.0564813)
(0.00038212 0 0.0572115)
(0.000231828 0 0.0548049)
(0.000357414 0 0.0558199)
(0.000209192 0 0.052592)
(0.000332849 0 0.0538736)
(0.000190102 0 0.0498824)
(0.000311018 0 0.0514037)
(0.000176147 0 0.0467269)
(0.000293885 0 0.0484589)
(0.000168379 0 0.0431772)
(0.000282794 0 0.0450924)
(0.000167392 0 0.0392807)
(0.000278555 0 0.041355)
(0.000173356 0 0.0350797)
(0.000281521 0 0.0372919)
(0.000185929 0 0.0306134)
(0.000291579 0 0.0329433)
(0.000204029 0 0.0259262)
(0.000308005 0 0.0283493)
(0.000225391 0 0.0210828)
(0.000329073 0 0.023561)
(0.000245781 0 0.0161886)
(0.000351482 0 0.0186603)
(0.000258653 0 0.0114157)
(0.000370969 0 0.013781)
(0.000258848 0 0.00681771)
(0.000383284 0 0.00913274)
(0.000375256 0 0.00460734)
(-0.000308236 0 0.00951343)
(-0.000415655 0 0.0118416)
(-0.000229835 0 0.00642622)
(-0.000319126 0 0.00707854)
(-0.000154649 0 0.00636709)
(-0.000232805 0 0.00567277)
(-7.28759e-05 0 0.00848202)
(-0.000143302 0 0.00695849)
(1.54774e-05 0 0.0120675)
(-4.50798e-05 0 0.00989758)
(0.000106103 0 0.0171397)
(5.75148e-05 0 0.0141262)
(0.000195216 0 0.0240531)
(0.000160194 0 0.0200421)
(0.000274607 0 0.0326923)
(0.000258618 0 0.0279571)
(0.000324469 0 0.0421304)
(0.000338799 0 0.0373339)
(0.000316946 0 0.0509507)
(0.000373812 0 0.0468625)
(0.000230147 0 0.0575561)
(0.000334413 0 0.0550196)
(7.71655e-05 0 0.0595977)
(0.000206397 0 0.0601196)
(-1.94548e-05 0 0.0523446)
(3.94439e-05 0 0.0591013)
(0.000210154 0 0.0287264)
(2.40242e-05 0 0.0454815)
(0.00075604 0 -0.0109954)
(0.000537773 0 0.0116539)
(0.00081973 0 -0.0425361)
(0.00111935 0 -0.0338939)
(0.000376799 0 -0.0334298)
(0.000654459 0 -0.0510857)
(0.00062696 0 0.00994883)
(0.000412741 0 -0.0157425)
(0.00111309 0 0.0521193)
(0.00109464 0 0.0353537)
(0.00117822 0 0.0760485)
(0.00140386 0 0.0686521)
(0.00100792 0 0.0840114)
(0.0012696 0 0.0821002)
(0.000809592 0 0.0859431)
(0.00105579 0 0.0859437)
(0.000645732 0 0.0850277)
(0.000866474 0 0.0860616)
(0.000527571 0 0.0824068)
(0.000720488 0 0.0841358)
(0.000454999 0 0.0786168)
(0.000622527 0 0.0808176)
(0.000424167 0 0.0741254)
(0.00057071 0 0.076541)
(0.000426486 0 0.0694906)
(0.000558856 0 0.0718106)
(0.000449515 0 0.0653166)
(0.000575647 0 0.0672411)
(0.000480385 0 0.0620894)
(0.000606978 0 0.0634296)
(0.000509161 0 0.0600155)
(0.000640477 0 0.0607567)
(0.000529872 0 0.0589744)
(0.000667945 0 0.0592601)
(0.000539767 0 0.0586118)
(0.000685106 0 0.0586655)
(0.000538342 0 0.0584981)
(0.000690424 0 0.0585393)
(0.000526744 0 0.0582614)
(0.000684288 0 0.0584538)
(0.000507376 0 0.0576486)
(0.000668617 0 0.0580878)
(0.000483372 0 0.0565264)
(0.000646391 0 0.0572516)
(0.00045801 0 0.0548512)
(0.000621038 0 0.0558643)
(0.00043424 0 0.0526348)
(0.000595851 0 0.0539173)
(0.000414421 0 0.0499174)
(0.000573594 0 0.0514419)
(0.000400252 0 0.0467506)
(0.000556346 0 0.0484875)
(0.000392822 0 0.0431867)
(0.000545505 0 0.0451081)
(0.000392693 0 0.0392739)
(0.000541876 0 0.0413553)
(0.00039992 0 0.0350554)
(0.000545735 0 0.037275)
(0.000413961 0 0.0305723)
(0.000556817 0 0.0329089)
(0.000433455 0 0.0258716)
(0.000574166 0 0.0282992)
(0.000455888 0 0.0210227)
(0.00059582 0 0.0235005)
(0.000477271 0 0.0161369)
(0.000618367 0 0.0185998)
(0.000492699 0 0.0113873)
(0.000637981 0 0.0137353)
(0.000499301 0 0.00681417)
(0.000652969 0 0.00911219)
(0.000653052 0 0.00460587)
(-0.000424584 0 0.00943491)
(-0.000553243 0 0.0117637)
(-0.000321517 0 0.00635327)
(-0.000431447 0 0.0070098)
(-0.000221756 0 0.00629271)
(-0.000319271 0 0.00560627)
(-0.000115691 0 0.00840301)
(-0.000204261 0 0.00688781)
(-3.11815e-06 0 0.0119855)
(-8.07027e-05 0 0.00982259)
(0.000111606 0 0.0170577)
(4.72641e-05 0 0.0140498)
(0.000223865 0 0.0239754)
(0.000175011 0 0.0199673)
(0.000323826 0 0.0326286)
(0.00029704 0 0.0278905)
(0.000389958 0 0.0420969)
(0.000397667 0 0.0372899)
(0.000393298 0 0.0509638)
(0.000448488 0 0.0468603)
(0.000312703 0 0.0576174)
(0.000419802 0 0.0550734)
(0.000166082 0 0.0596592)
(0.000298989 0 0.0602174)
(8.49051e-05 0 0.0522747)
(0.000143364 0 0.0591555)
(0.000337587 0 0.0284433)
(0.000150264 0 0.0453131)
(0.000900825 0 -0.0112191)
(0.000683106 0 0.0112784)
(0.00100128 0 -0.0424305)
(0.0012899 0 -0.0339608)
(0.000623922 0 -0.0333854)
(0.000882934 0 -0.0508342)
(0.00090312 0 0.00968482)
(0.000694348 0 -0.0159286)
(0.00140536 0 0.0519146)
(0.00140108 0 0.0350188)
(0.00148404 0 0.0760863)
(0.0017251 0 0.0685996)
(0.00131474 0 0.0841521)
(0.00159838 0 0.0822382)
(0.00110941 0 0.0860909)
(0.00138321 0 0.0861194)
(0.000937039 0 0.0851475)
(0.00118743 0 0.0862163)
(0.000812257 0 0.0824888)
(0.00103584 0 0.0842533)
(0.000735945 0 0.0786589)
(0.000934555 0 0.0808929)
(0.000704116 0 0.0741303)
(0.000881804 0 0.076574)
(0.00070762 0 0.0694668)
(0.00087115 0 0.0718068)
(0.000733301 0 0.0652761)
(0.000890665 0 0.0672119)
(0.000767567 0 0.0620446)
(0.000925616 0 0.0633887)
(0.000799857 0 0.0599761)
(0.000963056 0 0.0607163)
(0.000823726 0 0.0589467)
(0.000994289 0 0.0592287)
(0.000836153 0 0.0585992)
(0.00101471 0 0.0586484)
(0.000836547 0 0.0585016)
(0.00102262 0 0.0585388)
(0.000826114 0 0.0582796)
(0.00101841 0 0.0584697)
(0.000807393 0 0.0576784)
(0.00100408 0 0.0581177)
(0.000783691 0 0.0565633)
(0.000982762 0 0.0572913)
(0.000758461 0 0.0548902)
(0.000958025 0 0.0559086)
(0.000734804 0 0.0526709)
(0.000933302 0 0.0539608)
(0.000715191 0 0.0499462)
(0.000911472 0 0.0514798)
(0.000701385 0 0.0467683)
(0.000894689 0 0.0485155)
(0.000694485 0 0.0431904)
(0.000884383 0 0.0451228)
(0.000695004 0 0.0392617)
(0.000881344 0 0.0413541)
(0.000702886 0 0.0350263)
(0.000885788 0 0.0372566)
(0.000717408 0 0.0305274)
(0.000897318 0 0.0328733)
(0.000736986 0 0.0258148)
(0.00091477 0 0.0282489)
(0.000758975 0 0.0209616)
(0.00093597 0 0.0234412)
(0.00077974 0 0.0160827)
(0.000957511 0 0.0185411)
(0.000795567 0 0.0113502)
(0.000976121 0 0.0136883)
(0.000804693 0 0.00679641)
(0.000991682 0 0.00908381)
(0.00099415 0 0.00459456)
(-0.000557988 0 0.00934207)
(-0.000708761 0 0.0116689)
(-0.000428543 0 0.00626605)
(-0.000560145 0 0.00692349)
(-0.000302125 0 0.00620446)
(-0.000420174 0 0.00552199)
(-0.000169475 0 0.00831042)
(-0.000277428 0 0.00679939)
(-3.03714e-05 0 0.01189)
(-0.000126169 0 0.00972988)
(0.000110723 0 0.0169625)
(2.95311e-05 0 0.0139558)
(0.000248423 0 0.0238856)
(0.000184711 0 0.0198756)
(0.000371578 0 0.032555)
(0.000332886 0 0.0278085)
(0.00045736 0 0.0420564)
(0.000457002 0 0.0372328)
(0.00047609 0 0.0509728)
(0.000527526 0 0.0468479)
(0.000407441 0 0.057676)
(0.000514526 0 0.0551192)
(0.000273256 0 0.0597159)
(0.000406425 0 0.0603069)
(0.000211383 0 0.052196)
(0.000266706 0 0.0591967)
(0.000487808 0 0.0281509)
(0.000298459 0 0.0451288)
(0.0010688 0 -0.0114604)
(0.000850419 0 0.0108911)
(0.00120777 0 -0.0423624)
(0.00148163 0 -0.0340535)
(0.000898451 0 -0.0333746)
(0.00113601 0 -0.050628)
(0.00121154 0 0.00940881)
(0.00100644 0 -0.0161374)
(0.00173313 0 0.0517058)
(0.00174132 0 0.034671)
(0.00182853 0 0.0761246)
(0.00208422 0 0.0685359)
(0.00166456 0 0.0842984)
(0.00196954 0 0.0823719)
(0.0014579 0 0.0862473)
(0.00175706 0 0.0862962)
(0.00128237 0 0.0852755)
(0.00155971 0 0.0863738)
(0.00115535 0 0.0825773)
(0.00140698 0 0.0843729)
(0.00107856 0 0.0787051)
(0.00130592 0 0.0809688)
(0.00104801 0 0.0741369)
(0.0012549 0 0.0766057)
(0.00105417 0 0.0694425)
(0.00124732 0 0.0718001)
(0.00108343 0 0.0652337)
(0.00127087 0 0.0671785)
(0.00112173 0 0.0619971)
(0.00131041 0 0.0633429)
(0.0011581 0 0.0599339)
(0.00135263 0 0.0606707)
(0.00118577 0 0.0589168)
(0.00138846 0 0.0591924)
(0.00120149 0 0.0585854)
(0.00141303 0 0.0586268)
(0.00120459 0 0.0585049)
(0.00142447 0 0.0585344)
(0.00119628 0 0.0582986)
(0.00142314 0 0.0584824)
(0.0011792 0 0.0577098)
(0.0014111 0 0.058145)
(0.00115674 0 0.0566023)
(0.00139156 0 0.0573289)
(0.00113249 0 0.0549314)
(0.00136819 0 0.0559512)
(0.00110962 0 0.0527091)
(0.00134455 0 0.0540029)
(0.00109071 0 0.0499768)
(0.0013236 0 0.0515163)
(0.00107754 0 0.0467875)
(0.00130755 0 0.0485422)
(0.00107124 0 0.0431952)
(0.00129787 0 0.0451362)
(0.00107228 0 0.0392501)
(0.00129534 0 0.0413519)
(0.00108052 0 0.034998)
(0.00130012 0 0.0372374)
(0.0010951 0 0.0304836)
(0.00131172 0 0.0328376)
(0.00111422 0 0.02576)
(0.00132876 0 0.0281998)
(0.00113514 0 0.0209033)
(0.00134885 0 0.0233849)
(0.00115451 0 0.0160305)
(0.00136859 0 0.0184864)
(0.00116939 0 0.0113118)
(0.00138524 0 0.0136442)
(0.00117856 0 0.00677459)
(0.00139972 0 0.00905529)
(0.00140152 0 0.00458156)
(-0.000708639 0 0.00924303)
(-0.000882545 0 0.0115563)
(-0.000551036 0 0.00617199)
(-0.000705498 0 0.00681841)
(-0.000395845 0 0.00610929)
(-0.000535774 0 0.00541852)
(-0.000234358 0 0.00821104)
(-0.000363058 0 0.00669173)
(-6.63859e-05 0 0.0117878)
(-0.000181743 0 0.00961789)
(0.000103505 0 0.0168609)
(4.11522e-06 0 0.0138425)
(0.000269287 0 0.0237903)
(0.000189315 0 0.019765)
(0.000418717 0 0.0324778)
(0.000366541 0 0.0277089)
(0.000527858 0 0.0420152)
(0.000517552 0 0.03716)
(0.000566414 0 0.0509844)
(0.000611801 0 0.0468222)
(0.000514581 0 0.0577393)
(0.000619116 0 0.0551537)
(0.000397152 0 0.0597763)
(0.000528381 0 0.0603852)
(0.000356791 0 0.0521183)
(0.000407961 0 0.0592237)
(0.000657636 0 0.0278592)
(0.000466338 0 0.0449283)
(0.00125764 0 -0.0117096)
(0.00103797 0 0.0104911)
(0.00143697 0 -0.0423245)
(0.0016932 0 -0.0341731)
(0.001199 0 -0.0333948)
(0.00141211 0 -0.0504694)
(0.00155348 0 0.00912006)
(0.00134866 0 -0.0163738)
(0.00210055 0 0.0514938)
(0.00211824 0 0.0343062)
(0.00221558 0 0.0761663)
(0.00248535 0 0.0684591)
(0.00205961 0 0.0844537)
(0.00238582 0 0.0824991)
(0.00185542 0 0.0864152)
(0.00217867 0 0.0864708)
(0.00168079 0 0.0854147)
(0.00198346 0 0.0865305)
(0.00155513 0 0.0826752)
(0.00183319 0 0.0844911)
(0.00148077 0 0.0787582)
(0.00173535 0 0.0810421)
(0.00145371 0 0.0741481)
(0.00168847 0 0.0766337)
(0.00146424 0 0.0694207)
(0.00168586 0 0.0717887)
(0.00149847 0 0.0651919)
(0.00171496 0 0.0671395)
(0.00154204 0 0.0619491)
(0.00176044 0 0.0632908)
(0.00158367 0 0.0598907)
(0.00180869 0 0.0606185)
(0.00161626 0 0.0588858)
(0.00185036 0 0.0591495)
(0.00163636 0 0.0585708)
(0.00188026 0 0.0585991)
(0.00164318 0 0.0585079)
(0.00189637 0 0.0585246)
(0.00163791 0 0.058318)
(0.00189895 0 0.0584905)
(0.00162325 0 0.057742)
(0.00189007 0 0.0581684)
(0.0016027 0 0.0566424)
(0.00187304 0 0.0573633)
(0.00157993 0 0.0549739)
(0.00185164 0 0.0559912)
(0.00155823 0 0.0527487)
(0.00182952 0 0.0540429)
(0.00154023 0 0.0500087)
(0.00180973 0 0.0515511)
(0.00152778 0 0.0468078)
(0.00179456 0 0.0485674)
(0.00152201 0 0.043201)
(0.0017855 0 0.0451486)
(0.00152337 0 0.0392397)
(0.00178334 0 0.0413489)
(0.00153164 0 0.034971)
(0.0017882 0 0.0372182)
(0.00154579 0 0.0304423)
(0.00179946 0 0.032803)
(0.00156384 0 0.0257091)
(0.00181555 0 0.0281535)
(0.00158291 0 0.0208505)
(0.0018339 0 0.0233335)
(0.00159989 0 0.0159841)
(0.00185112 0 0.0184384)
(0.00161244 0 0.0112779)
(0.00186498 0 0.0136071)
(0.00161992 0 0.00675525)
(0.00187724 0 0.00903205)
(0.00187697 0 0.00457129)
(-0.000877009 0 0.00912811)
(-0.00107496 0 0.011425)
(-0.000689444 0 0.00606122)
(-0.000867873 0 0.00669336)
(-0.000503366 0 0.0059971)
(-0.000666458 0 0.00529445)
(-0.000310736 0 0.00809458)
(-0.000461548 0 0.00656328)
(-0.000111467 0 0.0116685)
(-0.000247825 0 0.00948501)
(8.97827e-05 0 0.0167424)
(-2.93136e-05 0 0.0137083)
(0.000286509 0 0.0236791)
(0.000188623 0 0.0196339)
(0.000465524 0 0.0323863)
(0.000397961 0 0.0275895)
(0.000601866 0 0.0419618)
(0.000579381 0 0.0370691)
(0.000664554 0 0.050986)
(0.000701321 0 0.0467804)
(0.000633925 0 0.0577938)
(0.000733277 0 0.0551741)
(0.000537016 0 0.0598267)
(0.000664214 0 0.0604498)
(0.000520426 0 0.0520282)
(0.000566374 0 0.0592347)
(0.000846444 0 0.0275556)
(0.00065345 0 0.0447109)
(0.00146656 0 -0.0119765)
(0.00124566 0 0.0100777)
(0.00168788 0 -0.042322)
(0.00192467 0 -0.0343207)
(0.00152452 0 -0.033452)
(0.00171198 0 -0.0503605)
(0.00192909 0 0.00880893)
(0.00172156 0 -0.0166436)
(0.00250924 0 0.0512675)
(0.0025325 0 0.0339194)
(0.0026478 0 0.0762001)
(0.00292985 0 0.0683667)
(0.0025022 0 0.0846062)
(0.00284875 0 0.0826178)
(0.00230326 0 0.0865828)
(0.00264946 0 0.086641)
(0.00213262 0 0.0855537)
(0.00245958 0 0.0866836)
(0.00201127 0 0.0827717)
(0.00231476 0 0.0846053)
(0.00194187 0 0.0788088)
(0.0022228 0 0.0811106)
(0.00192039 0 0.0741555)
(0.00218231 0 0.0766559)
(0.00193702 0 0.0693939)
(0.00218653 0 0.0717705)
(0.00197771 0 0.0651444)
(0.00222278 0 0.0670931)
(0.00202795 0 0.0618947)
(0.00227563 0 0.0632307)
(0.00207617 0 0.0598409)
(0.00233127 0 0.0605581)
(0.002115 0 0.0588484)
(0.00238009 0 0.0590985)
(0.00214072 0 0.0585501)
(0.00241661 0 0.0585636)
(0.00215237 0 0.0585055)
(0.00243856 0 0.0585078)
(0.00215113 0 0.0583325)
(0.00244609 0 0.0584924)
(0.00213971 0 0.05777)
(0.00244129 0 0.0581867)
(0.00212173 0 0.0566789)
(0.00242752 0 0.0573935)
(0.00210094 0 0.0550134)
(0.00240868 0 0.0560277)
(0.00208076 0 0.0527857)
(0.00238851 0 0.0540801)
(0.00206389 0 0.0500384)
(0.00237018 0 0.0515838)
(0.00205222 0 0.0468264)
(0.00235603 0 0.0485911)
(0.00204691 0 0.0432056)
(0.00234761 0 0.0451599)
(0.00204838 0 0.0392287)
(0.00234571 0 0.0413457)
(0.00205635 0 0.0349447)
(0.0023504 0 0.0371996)
(0.00206962 0 0.0304032)
(0.00236097 0 0.0327706)
(0.00208604 0 0.0256628)
(0.00237571 0 0.0281114)
(0.00210269 0 0.0208046)
(0.00239197 0 0.0232887)
(0.00211671 0 0.015946)
(0.00240645 0 0.0183988)
(0.00212633 0 0.0112519)
(0.00241744 0 0.0135786)
(0.00213149 0 0.00674149)
(0.00242735 0 0.00901601)
(0.0024249 0 0.00456514)
(-0.00106338 0 0.00899086)
(-0.0012863 0 0.0112739)
(-0.00084407 0 0.00592711)
(-0.00104752 0 0.00654714)
(-0.000625076 0 0.00586106)
(-0.000812523 0 0.00514843)
(-0.000399012 0 0.00795405)
(-0.000573282 0 0.00641253)
(-0.000165996 0 0.0115251)
(-0.000324821 0 0.00932961)
(6.92513e-05 0 0.0165999)
(-7.11118e-05 0 0.0135514)
(0.000299846 0 0.0235442)
(0.000182336 0 0.01948)
(0.000511734 0 0.0322722)
(0.00042685 0 0.0274482)
(0.000678974 0 0.0418874)
(0.000642092 0 0.0369575)
(0.000769822 0 0.0509683)
(0.000795472 0 0.0467198)
(0.000764498 0 0.05783)
(0.000856066 0 0.0551777)
(0.000691893 0 0.0598579)
(0.000812781 0 0.0604982)
(0.000701957 0 0.0519177)
(0.000740988 0 0.059228)
(0.00105462 0 0.0272332)
(0.000859368 0 0.0444758)
(0.00169653 0 -0.0122669)
(0.00147397 0 0.0096497)
(0.00196258 0 -0.0423604)
(0.00217821 0 -0.034498)
(0.0018773 0 -0.0335533)
(0.00203892 0 -0.0503037)
(0.00233885 0 0.00846632)
(0.00212694 0 -0.0169513)
(0.00295846 0 0.0510183)
(0.00298369 0 0.0335063)
(0.00312532 0 0.0762183)
(0.00341699 0 0.0682554)
(0.00299326 0 0.0847484)
(0.00335849 0 0.0827254)
(0.00280251 0 0.0867424)
(0.00317031 0 0.0868042)
(0.00263878 0 0.0856851)
(0.00298897 0 0.0868305)
(0.00252443 0 0.0828603)
(0.00285247 0 0.084713)
(0.00246238 0 0.0788509)
(0.00276895 0 0.0811719)
(0.00244852 0 0.0741539)
(0.00273709 0 0.0766702)
(0.00247299 0 0.0693577)
(0.00275005 0 0.0717439)
(0.00252168 0 0.065087)
(0.00279512 0 0.0670375)
(0.00257998 0 0.0618301)
(0.00285682 0 0.063161)
(0.00263612 0 0.0597808)
(0.00292124 0 0.0604876)
(0.00268246 0 0.0588011)
(0.0029785 0 0.0590375)
(0.00271501 0 0.0585202)
(0.00302285 0 0.0585188)
(0.00273261 0 0.0584947)
(0.00305175 0 0.0584824)
(0.00273636 0 0.0583397)
(0.00306525 0 0.0584868)
(0.00272902 0 0.0577917)
(0.00306539 0 0.0581985)
(0.00271428 0 0.0567101)
(0.00305561 0 0.0574182)
(0.002696 0 0.0550484)
(0.0030399 0 0.0560598)
(0.00267771 0 0.0528191)
(0.00302212 0 0.0541139)
(0.00266218 0 0.0500654)
(0.00300554 0 0.0516138)
(0.00265139 0 0.046843)
(0.00299259 0 0.048613)
(0.0026465 0 0.0432092)
(0.00298485 0 0.0451703)
(0.00264794 0 0.0392178)
(0.00298314 0 0.0413425)
(0.00265535 0 0.0349199)
(0.00298751 0 0.0371824)
(0.00266746 0 0.0303676)
(0.00299719 0 0.032741)
(0.00268204 0 0.0256221)
(0.00301043 0 0.0280739)
(0.00269628 0 0.0207662)
(0.00302462 0 0.0232503)
(0.00270761 0 0.0159163)
(0.00303668 0 0.0183668)
(0.00271472 0 0.0112337)
(0.00304542 0 0.0135575)
(0.00271795 0 0.00673331)
(0.00305365 0 0.00900598)
(0.00304963 0 0.00456241)
(-0.00126801 0 0.00883103)
(-0.00151692 0 0.0111021)
(-0.00101517 0 0.0057692)
(-0.00124474 0 0.00637859)
(-0.000761273 0 0.00570057)
(-0.000974308 0 0.00497914)
(-0.000499552 0 0.0077887)
(-0.000698662 0 0.006238)
(-0.000230356 0 0.0113565)
(-0.000413131 0 0.00915008)
(4.1571e-05 0 0.0164321)
(-0.000121655 0 0.0133701)
(0.000308959 0 0.0233844)
(0.00017011 0 0.0193017)
(0.000556908 0 0.0321339)
(0.000452837 0 0.0272828)
(0.000758526 0 0.0417902)
(0.00070519 0 0.036823)
(0.000881274 0 0.0509295)
(0.000893555 0 0.0466379)
(0.000905136 0 0.0578462)
(0.000986515 0 0.0551617)
(0.000860611 0 0.0598687)
(0.000972897 0 0.0605278)
(0.000900578 0 0.0517865)
(0.000930658 0 0.0592013)
(0.00128217 0 0.0268925)
(0.00108328 0 0.0442214)
(0.00194881 0 -0.0125816)
(0.00172323 0 0.00920529)
(0.002264 0 -0.0424419)
(0.00245622 0 -0.0347082)
(0.00226066 0 -0.0337022)
(0.0023959 0 -0.0503015)
(0.00278378 0 0.00808853)
(0.0025665 0 -0.0173)
(0.00344735 0 0.0507434)
(0.00347188 0 0.0330639)
(0.00364745 0 0.0762187)
(0.00394619 0 0.068122)
(0.00353289 0 0.0848785)
(0.00391498 0 0.0828189)
(0.00335383 0 0.0868926)
(0.00374174 0 0.0869574)
(0.00320007 0 0.0858074)
(0.00357235 0 0.0869685)
(0.00309546 0 0.0829395)
(0.0034471 0 0.0848114)
(0.00304315 0 0.0788832)
(0.00337461 0 0.0812235)
(0.00303901 0 0.0741421)
(0.00335369 0 0.0766744)
(0.00307316 0 0.0693109)
(0.00337742 0 0.0717068)
(0.00313148 0 0.0650186)
(0.0034331 0 0.066971)
(0.0031993 0 0.0617544)
(0.00350526 0 0.0630799)
(0.00326471 0 0.0597096)
(0.00357989 0 0.0604056)
(0.00331979 0 0.0587428)
(0.00364689 0 0.0589651)
(0.00336028 0 0.0584801)
(0.00370021 0 0.0584629)
(0.00338483 0 0.0584747)
(0.00373711 0 0.0584469)
(0.00339447 0 0.0583388)
(0.00375749 0 0.0584722)
(0.00339198 0 0.0578065)
(0.00376337 0 0.0582025)
(0.0033811 0 0.0567356)
(0.00375825 0 0.0574364)
(0.00336583 0 0.055079)
(0.00374622 0 0.0560866)
(0.00334979 0 0.052849)
(0.00373126 0 0.0541434)
(0.00333584 0 0.0500899)
(0.00371674 0 0.0516407)
(0.00332604 0 0.0468583)
(0.00370517 0 0.0486329)
(0.00332159 0 0.0432124)
(0.00369822 0 0.0451798)
(0.00332293 0 0.0392078)
(0.00369671 0 0.0413396)
(0.00332967 0 0.0348975)
(0.00370072 0 0.0371667)
(0.00334053 0 0.0303359)
(0.00370945 0 0.0327144)
(0.00335336 0 0.025587)
(0.00372122 0 0.028041)
(0.00336556 0 0.0207343)
(0.00373358 0 0.0232175)
(0.00337488 0 0.0158932)
(0.00374374 0 0.0183404)
(0.00338035 0 0.0112211)
(0.00375092 0 0.0135413)
(0.00338246 0 0.00672892)
(0.00375811 0 0.0089994)
(0.00375293 0 0.00456151)
(-0.00149133 0 0.00864923)
(-0.00176746 0 0.0109085)
(-0.00120317 0 0.005588)
(-0.00146011 0 0.00618649)
(-0.000912359 0 0.00551601)
(-0.00115237 0 0.00478524)
(-0.000612788 0 0.00759877)
(-0.000838214 0 0.00603823)
(-0.000304961 0 0.011163)
(-0.000513251 0 0.00894479)
(6.36512e-06 0 0.016239)
(-0.000181406 0 0.0131624)
(0.000313468 0 0.0231993)
(0.00015152 0 0.0190969)
(0.000600615 0 0.0319711)
(0.00047551 0 0.0270913)
(0.000839971 0 0.0416698)
(0.000768233 0 0.0366634)
(0.000998175 0 0.0508692)
(0.000995044 0 0.0465324)
(0.0010549 0 0.0578423)
(0.00112395 0 0.0551239)
(0.00104206 0 0.0598594)
(0.0011437 0 0.0605364)
(0.00111523 0 0.0516351)
(0.00113445 0 0.0591525)
(0.0015288 0 0.0265331)
(0.00132442 0 0.0439457)
(0.0022244 0 -0.0129223)
(0.00199364 0 0.00874157)
(0.00259404 0 -0.0425688)
(0.00276006 0 -0.0349546)
(0.00267651 0 -0.0339003)
(0.00278375 0 -0.0503564)
(0.00326485 0 0.00767432)
(0.0030408 0 -0.0176923)
(0.00397609 0 0.0504414)
(0.00399799 0 0.0325897)
(0.00421426 0 0.0761999)
(0.00451817 0 0.0679632)
(0.00412143 0 0.0849952)
(0.00451887 0 0.0828946)
(0.00395779 0 0.0870321)
(0.00436453 0 0.0870974)
(0.0038172 0 0.0859195)
(0.00421051 0 0.0870947)
(0.00372513 0 0.0830083)