/*--------------------------------*- C++ -*----------------------------------*\
  =========                 |
  \\      /  F ield         | OpenFOAM: The Open Source CFD Toolbox
   \\    /   O peration     | Website:  https://openfoam.org
    \\  /    A nd           | Version:  9
     \\/     M anipulation  |
\*---------------------------------------------------------------------------*/
FoamFile
{
    format      ascii;
    class       surfaceScalarField;
    location    "0.19";
    object      alphaPhi0.water;
}
// * * * * * * * * * * * * * * * * * * * * * * * * * * * * * * * * * * * * * //

dimensions      [0 3 -1 0 0 0 0];

internalField   nonuniform List<scalar> 
9850
(
-4.36885e-23
5.8795e-23
-1.07204e-21
5.89562e-21
-3.54425e-20
2.06583e-19
-9.10432e-20
2.05317e-18
-8.3501e-19
8.95945e-18
0
4.035e-16
0
1.81108e-14
0
4.90228e-13
0
9.08882e-12
-4.80727e-15
1.57565e-10
9.07559e-11
5.85217e-10
1.32018e-09
4.098e-10
1.5971e-07
4.42663e-07
-1.27886e-07
8.9796e-07
-3.19601e-07
2.30611e-07
-3.90491e-07
6.64554e-08
-4.10483e-07
2.7676e-08
-4.04842e-07
-7.13754e-08
-3.77781e-07
-2.47527e-07
-3.24596e-07
-4.67306e-07
-2.57956e-07
-5.46536e-07
-1.76541e-07
-6.26577e-07
-9.29161e-08
-6.3151e-07
-2.38931e-08
-5.5492e-07
1.7612e-08
-4.13813e-07
2.70619e-08
-2.41168e-07
5.8861e-09
-7.07697e-08
-4.67724e-08
8.13578e-08
-1.35411e-07
2.54552e-07
-1.65615e-07
5.10991e-07
-8.42221e-10
1.97945e-07
-1.58515e-10
4.54997e-10
-2.03645e-11
1.8486e-09
1.80755e-11
8.47263e-10
0
3.72401e-10
0
1.00062e-10
0
2.43712e-11
0
6.11461e-12
0
1.57376e-12
0
4.15734e-13
0
1.12631e-13
0
3.11804e-14
1.36668e-16
8.15457e-15
2.46359e-16
2.33386e-15
2.12311e-16
1.16061e-15
1.40307e-16
6.83983e-16
8.16955e-17
3.88867e-16
4.44714e-17
2.09994e-16
1.95959e-17
9.54309e-17
3.31146e-17
-3.49363e-23
1.14483e-22
-1.55589e-21
1.05436e-20
-4.87277e-20
2.69645e-19
-1.6009e-19
3.48034e-18
-4.55203e-19
1.98145e-17
0
7.3682e-16
0
2.27908e-14
0
5.24023e-13
-3.05905e-13
1.00998e-11
1.42229e-11
1.41793e-10
4.50062e-11
5.50414e-10
3.23138e-10
1.63599e-10
2.54279e-07
2.45419e-07
2.97804e-08
1.1047e-06
-2.35181e-07
4.9545e-07
-3.2424e-07
1.55504e-07
-3.52767e-07
5.62028e-08
-3.51162e-07
-7.29803e-08
-3.27392e-07
-2.71297e-07
-2.78838e-07
-5.1586e-07
-2.17664e-07
-6.07709e-07
-1.43736e-07
-7.00506e-07
-7.10542e-08
-7.04191e-07
-1.80274e-08
-6.07947e-07
2.80461e-09
-4.34645e-07
-9.73943e-09
-2.28624e-07
-5.11947e-08
-2.93145e-08
-1.26864e-07
1.57025e-07
-2.5751e-07
3.85205e-07
-1.84959e-07
5.05857e-07
-4.18721e-10
8.69218e-08
-5.72244e-10
4.4689e-10
-1.45349e-10
1.99372e-09
-4.82691e-12
4.86718e-10
0
3.18922e-10
0
9.51641e-11
0
2.49139e-11
0
6.20659e-12
0
1.59047e-12
0
4.15708e-13
0
1.11839e-13
0
3.08824e-14
8.81945e-17
8.15113e-15
1.76547e-16
2.35844e-15
1.55614e-16
1.15941e-15
1.0757e-16
6.86175e-16
6.49806e-17
3.96006e-16
3.46797e-17
2.14453e-16
1.58568e-17
9.2102e-17
3.44333e-17
-2.68485e-23
1.96033e-22
-1.33765e-21
1.08984e-20
-3.1228e-20
2.70947e-19
-1.81443e-19
3.66905e-18
-9.04023e-19
3.19513e-17
0
8.51358e-16
0
2.26437e-14
0
4.84719e-13
3.70316e-13
9.22265e-12
1.69523e-11
9.0021e-11
1.53694e-10
1.86676e-09
2.42983e-10
1.78507e-10
2.00176e-07
4.57393e-08
3.48027e-07
9.22964e-07
-3.21026e-08
8.75505e-07
-1.84997e-07
3.08363e-07
-2.45113e-07
1.16317e-07
-2.61159e-07
-5.69342e-08
-2.48446e-07
-2.84011e-07
-2.10714e-07
-5.53591e-07
-1.62091e-07
-6.56333e-07
-1.05444e-07
-7.57152e-07
-5.47983e-08
-7.54837e-07
-2.84275e-08
-6.34318e-07
-3.75094e-08
-4.25563e-07
-7.95224e-08
-1.86611e-07
-1.4839e-07
3.95527e-08
-2.50076e-07
2.58712e-07
-3.94545e-07
5.32118e-07
-7.96304e-08
2.91742e-07
-4.64175e-10
7.58604e-09
-6.57461e-10
4.70506e-10
-5.60325e-11
1.93913e-09
-3.54939e-11
3.15643e-10
1.28733e-17
1.92782e-10
0
8.4032e-11
0
2.34891e-11
0
5.94773e-12
0
1.51984e-12
0
3.94304e-13
0
1.05237e-13
0
2.89065e-14
5.93158e-17
7.58807e-15
1.17628e-16
2.2221e-15
1.04235e-16
1.1265e-15
7.26103e-17
6.77024e-16
4.38066e-17
3.91255e-16
2.30366e-17
2.0918e-16
9.01049e-18
8.55546e-17
3.20941e-17
-2.44855e-23
2.12773e-22
-1.00915e-21
9.36846e-21
-2.13102e-20
2.31392e-19
-1.6104e-19
3.35607e-18
-1.07401e-18
3.4315e-17
0
8.24371e-16
0
1.94239e-14
0
3.71147e-13
5.74001e-13
5.93885e-12
3.05069e-11
6.8376e-11
2.37358e-10
1.83238e-09
5.38484e-10
2.56058e-10
4.09656e-08
5.68485e-09
6.19817e-07
3.60054e-07
2.79629e-07
1.23352e-06
4.92128e-08
5.38774e-07
-6.27012e-08
2.28227e-07
-1.17385e-07
-2.25118e-09
-1.33885e-07
-2.67511e-07
-1.22739e-07
-5.64737e-07
-1.00346e-07
-6.78726e-07
-7.54563e-08
-7.82042e-07
-5.96635e-08
-7.7063e-07
-6.8982e-08
-6.24999e-07
-1.14018e-07
-3.80527e-07
-1.91193e-07
-1.09436e-07
-2.90083e-07
1.38443e-07
-4.13049e-07
3.81667e-07
-2.90115e-07
4.75611e-07
-7.11611e-09
8.15337e-08
-1.77692e-10
4.77971e-10
-4.35572e-10
5.66757e-10
-1.67587e-10
8.79517e-10
-2.88778e-11
2.31118e-10
-6.63706e-12
7.54362e-11
-4.08558e-13
5.3578e-11
0
1.93949e-11
0
5.29761e-12
0
1.33522e-12
0
3.39142e-13
0
8.82879e-14
0
2.38456e-14
3.59698e-17
6.12552e-15
6.43948e-17
1.91922e-15
5.73881e-17
1.05464e-15
4.0386e-17
6.56929e-16
2.40182e-17
3.77167e-16
1.2347e-17
1.96589e-16
4.73507e-18
7.58283e-17
2.91532e-17
-1.89205e-23
1.9215e-22
-8.83879e-22
8.77672e-21
-1.58713e-20
2.29246e-19
-1.28362e-19
3.00604e-18
-1.1487e-18
3.22942e-17
0
6.68573e-16
0
1.18209e-14
0
1.44669e-13
6.00044e-13
1.61542e-12
8.80514e-12
8.38074e-11
2.14477e-10
1.77288e-09
1.93024e-10
3.99668e-10
5.34108e-09
6.94794e-10
3.66629e-07
1.14414e-07
7.17699e-07
8.91508e-07
4.01152e-07
8.55158e-07
2.12684e-07
4.16385e-07
9.16042e-08
1.18825e-07
1.8553e-08
-1.94459e-07
-1.92779e-08
-5.26906e-07
-3.90624e-08
-6.58942e-07
-6.01893e-08
-7.60915e-07
-8.81075e-08
-7.42712e-07
-1.36097e-07
-5.7701e-07
-2.1602e-07
-3.00604e-07
-3.20168e-07
-5.28865e-09
-4.2873e-07
2.47005e-07
-4.71231e-07
4.33334e-07
-8.11629e-08
1.33184e-07
-6.00346e-10
1.19025e-09
-2.07596e-10
4.93249e-10
-1.56097e-10
8.81042e-10
-5.71768e-11
1.79348e-10
-1.90074e-11
1.7918e-10
-6.55985e-12
3.47722e-11
-1.97768e-12
2.25495e-11
-3.91973e-13
9.92341e-12
-6.01572e-14
3.47538e-12
-6.12822e-15
8.85363e-13
0
2.31663e-13
0
6.05387e-14
0
1.61956e-14
1.01329e-17
4.1254e-15
1.61854e-17
1.57535e-15
1.49978e-17
9.80209e-16
1.07746e-17
6.2492e-16
6.32229e-18
3.5433e-16
3.21489e-18
1.78957e-16
1.35249e-18
6.67418e-17
2.52468e-17
-1.65678e-23
1.48583e-22
-1.0559e-21
1.09399e-20
-1.56007e-20
3.07381e-19
-1.05993e-19
2.98467e-18
-9.86053e-19
2.52668e-17
-1.64925e-17
4.11265e-16
-5.29947e-17
5.94304e-15
0
6.85162e-14
7.60678e-13
7.98429e-13
3.40176e-12
1.36935e-10
1.10091e-10
1.78109e-09
7.99455e-11
4.05805e-10
5.67318e-10
2.01577e-10
1.08176e-07
6.79863e-09
8.78618e-07
1.56204e-07
8.62099e-07
8.5849e-07
5.72083e-07
7.06097e-07
3.482e-07
3.42421e-07
1.92153e-07
-3.84112e-08
8.6868e-08
-4.21621e-07
1.48187e-08
-5.86893e-07
-5.86811e-08
-6.87415e-07
-1.31102e-07
-6.70291e-07
-2.10695e-07
-4.97416e-07
-3.08647e-07
-2.02652e-07
-4.06174e-07
9.22378e-08
-4.36198e-07
2.77034e-07
-1.17085e-07
1.46417e-07
-8.56445e-10
4.46414e-11
-4.20057e-11
3.2095e-10
-1.48539e-10
7.40769e-10
-9.22533e-11
9.39758e-10
-3.5515e-11
4.14233e-10
-1.07578e-11
7.44716e-11
-5.10512e-12
3.80397e-11
-1.68595e-12
1.01095e-11
-5.20376e-13
3.94181e-12
-1.4133e-13
1.56402e-12
-3.23295e-14
4.72385e-13
-7.67482e-15
1.22361e-13
-1.8026e-15
3.26217e-14
-3.7274e-16
8.85351e-15
-9.2306e-17
2.42135e-15
-4.33663e-17
1.28329e-15
-2.68838e-17
9.04073e-16
-1.60085e-17
5.81307e-16
-8.63691e-18
3.243e-16
-3.39107e-18
1.58426e-16
-1.33868e-18
5.8563e-17
1.97429e-17
-2.1645e-23
1.59174e-22
-1.68317e-21
1.96204e-20
-2.02967e-20
4.85007e-19
-9.43973e-20
3.65923e-18
-6.17115e-19
2.14807e-17
-1.78281e-18
2.82882e-16
-5.81481e-17
4.68607e-15
6.54136e-16
2.52391e-13
4.79328e-13
3.40187e-13
1.8916e-11
1.69904e-10
6.59452e-11
8.9541e-10
6.87522e-11
4.63126e-10
1.16666e-10
1.45614e-10
6.46653e-09
4.41764e-10
1.57439e-07
5.48692e-09
8.95346e-07
1.08294e-07
8.6629e-07
7.09732e-07
5.75049e-07
6.33369e-07
3.43768e-07
1.92726e-07
1.7837e-07
-2.56215e-07
5.97603e-08
-4.68283e-07
-6.47418e-08
-5.62912e-07
-1.79279e-07
-5.55753e-07
-2.79312e-07
-3.97381e-07
-3.62559e-07
-1.19409e-07
-3.87859e-07
1.17541e-07
-1.59193e-07
1.10762e-07
4.29659e-11
-1.22745e-11
-7.74514e-11
0
-4.58268e-11
2.31906e-10
-9.5667e-11
5.34988e-10
-9.95285e-11
1.05862e-09
-5.44012e-11
1.01024e-09
-1.15835e-11
5.32671e-11
-4.46432e-12
5.64495e-11
-1.2694e-12
5.80623e-12
-4.05719e-13
3.84894e-12
-1.22288e-13
5.98783e-13
-3.3086e-14
2.57985e-13
-8.03925e-15
5.8547e-14
-1.96354e-15
1.68624e-14
-4.09478e-16
4.66537e-15
-1.43201e-16
1.54319e-15
-8.98975e-17
1.10993e-15
-6.17524e-17
8.3545e-16
-3.72841e-17
5.31068e-16
-1.96368e-17
2.90136e-16
-7.95624e-18
1.3697e-16
-3.15725e-18
5.03334e-17
1.31295e-17
-4.05849e-23
2.84114e-22
-2.6191e-21
3.74138e-20
-2.7263e-20
7.28307e-19
-9.66575e-20
4.9856e-18
-4.44226e-19
2.19802e-17
0
2.73799e-16
-9.8309e-16
4.74224e-15
1.37587e-15
3.53359e-13
1.95677e-13
1.389e-13
1.14222e-11
1.48011e-10
3.28771e-11
2.86278e-10
5.2482e-11
4.83337e-10
5.6919e-11
1.31633e-10
3.5371e-10
1.36924e-10
5.93429e-09
0
1.15109e-07
4.33071e-10
6.41327e-07
4.23286e-08
6.2982e-07
5.96631e-07
4.1764e-07
4.04757e-07
2.45858e-07
-8.44492e-08
1.06615e-07
-3.29031e-07
-6.3131e-08
-3.93155e-07
-2.25551e-07
-3.93267e-07
-3.38764e-07
-2.84213e-07
-4.10919e-07
-3.69474e-08
-1.77438e-07
3.86721e-08
-1.19576e-11
-2.18318e-12
-2.35205e-11
4.5989e-13
-1.83344e-11
1.14275e-12
-7.28659e-11
2.01822e-10
-1.57312e-10
6.4381e-10
-3.17594e-10
6.671e-10
-3.25026e-11
7.49701e-10
-1.43319e-11
4.98355e-11
-4.24731e-12
5.70595e-11
-1.33594e-12
3.73743e-12
-3.39458e-13
3.52193e-12
-8.19806e-14
2.80079e-13
-2.53927e-14
1.19484e-13
-5.96141e-15
3.31336e-14
-1.44861e-15
9.4184e-15
-3.20364e-16
2.77646e-15
-1.65083e-16
1.20277e-15
-1.23705e-16
1.0206e-15
-8.75226e-17
7.72093e-16
-5.20715e-17
4.78046e-16
-2.656e-17
2.54525e-16
-1.08053e-17
1.16007e-16
-3.62344e-18
4.13144e-17
7.92699e-18
-7.83372e-23
7.18166e-22
-3.41145e-21
6.4091e-20
-3.39536e-20
9.92559e-19
-1.05918e-19
6.79697e-18
-4.0577e-19
2.92285e-17
0
3.24052e-16
-8.05019e-16
5.48445e-15
1.71075e-15
3.69343e-13
7.78962e-14
6.5757e-14
1.21452e-11
8.69426e-11
2.49012e-11
1.09752e-09
3.54198e-11
5.01471e-10
1.22933e-11
1.40615e-10
5.94334e-11
1.56519e-10
2.15334e-10
0
3.0366e-09
1.74334e-11
4.76481e-08
0
3.85315e-07
2.70429e-08
4.13545e-07
3.164e-07
2.99176e-07
2.99012e-08
1.7494e-07
-2.0497e-07
-2.32384e-08
-1.86166e-07
-2.13056e-07
-1.41524e-07
-2.74053e-07
-6.30835e-08
-1.08545e-07
2.25372e-09
-2.43911e-11
3.39667e-10
-3.23375e-12
-2.21116e-11
-9.16482e-13
-5.91237e-13
0
2.28749e-12
-6.52161e-11
1.43091e-10
-1.10882e-10
7.142e-10
-2.0374e-10
8.70208e-10
-2.20105e-11
1.78964e-10
-1.62616e-11
5.096e-11
-3.48407e-12
4.94356e-11
-1.04372e-12
2.61379e-12
-2.99106e-13
1.72995e-12
-4.75373e-14
2.4385e-13
-1.60808e-14
5.7423e-14
-4.31305e-15
2.6657e-14
-9.84132e-16
5.19624e-15
-2.64368e-16
1.86892e-15
-1.84266e-16
1.09013e-15
-1.51063e-16
9.67064e-16
-1.05189e-16
7.0814e-16
-6.08401e-17
4.23532e-16
-2.99537e-17
2.18946e-16
-1.19499e-17
9.66486e-17
-3.20393e-18
3.28125e-17
4.64071e-18
-1.36968e-22
1.6242e-21
-4.12427e-21
1.01161e-19
-3.59583e-20
1.29581e-18
-1.1498e-19
8.70972e-18
-4.18705e-19
4.24042e-17
0
4.67113e-16
-4.47897e-16
7.93683e-15
1.75084e-15
3.91183e-13
3.49276e-14
3.78447e-14
9.47314e-12
7.27718e-11
4.63602e-11
1.11065e-09
1.56447e-11
3.0133e-10
9.32475e-12
1.35721e-10
3.38218e-11
1.67336e-10
3.78312e-11
2.18678e-12
1.80192e-10
4.6177e-11
1.16924e-09
1.19349e-10
1.33547e-08
0
2.34538e-07
5.33309e-10
2.06875e-07
3.55356e-08
1.30733e-07
-2.62059e-08
2.68969e-08
-1.08776e-09
-1.37965e-08
-2.76211e-12
-9.48294e-11
-7.53001e-12
-3.56849e-11
0
2.46113e-10
0
1.23368e-12
-3.38091e-12
6.65868e-13
-7.14964e-14
2.03773e-12
1.93659e-12
-1.87412e-11
4.62349e-11
-9.32041e-11
8.12798e-10
-9.70578e-11
1.11538e-09
-2.24584e-11
7.58415e-11
-1.59706e-11
4.45312e-11
-3.09971e-12
2.1694e-11
-5.13992e-13
2.05356e-12
-1.87418e-13
5.23638e-13
-3.35372e-14
3.87297e-13
-1.15055e-14
3.13588e-14
-2.9392e-15
2.02502e-14
-6.52808e-16
2.87394e-15
-2.49253e-16
1.38527e-15
-2.06988e-16
1.04577e-15
-1.72308e-16
9.21074e-16
-1.15116e-16
6.3997e-16
-6.43452e-17
3.69043e-16
-3.11685e-17
1.87313e-16
-1.20336e-17
8.20248e-17
-2.487e-18
2.60699e-17
2.66929e-18
-2.12692e-22
3.25553e-21
-4.85244e-21
1.49665e-19
-3.5502e-20
1.66631e-18
-1.14079e-19
1.06923e-17
-4.03131e-19
5.71795e-17
0
6.45196e-16
-9.32567e-17
1.08516e-14
1.00948e-15
8.92316e-14
1.89808e-14
2.65393e-14
2.70645e-12
7.19687e-11
4.53106e-11
1.11476e-09
7.56889e-12
3.06972e-10
1.36563e-12
5.79199e-10
9.32064e-14
1.29416e-10
8.4763e-13
4.21504e-12
1.18013e-11
0
8.27699e-11
0
3.40441e-10
0
9.34341e-10
0
6.86649e-09
3.02925e-12
1.09459e-09
0
5.10384e-12
0
7.09126e-13
-3.70788e-13
1.5981e-14
-7.50306e-12
1.99428e-12
-2.11323e-12
6.58301e-12
-1.19337e-12
7.46354e-13
-3.42889e-13
1.79356e-12
7.53712e-14
2.40495e-12
2.44238e-12
-1.37464e-11
5.53805e-12
-1.15002e-10
9.06867e-10
-5.88744e-11
1.14021e-09
-1.45288e-11
3.5333e-11
-8.54369e-12
1.93446e-11
-2.66136e-12
3.42513e-12
-3.74659e-13
5.32473e-12
-1.90899e-13
4.34701e-13
-2.81253e-14
3.25487e-13
-7.89207e-15
1.70028e-14
-1.8599e-15
9.2166e-15
-4.66779e-16
2.36058e-15
-2.59281e-16
1.20279e-15
-2.30146e-16
1.0101e-15
-1.86005e-16
8.69483e-16
-1.18604e-16
5.7062e-16
-6.58263e-17
3.23727e-16
-3.20339e-17
1.66433e-16
-1.16508e-17
7.20459e-17
-1.76394e-18
2.07611e-17
1.48051e-18
-2.88045e-22
5.75781e-21
-5.42123e-21
2.0522e-19
-3.40186e-20
2.09083e-18
-1.08894e-19
1.28698e-17
-3.37731e-19
7.16763e-17
-1.07721e-17
6.64014e-16
6.18517e-19
1.07968e-14
1.83162e-16
3.78088e-14
1.02134e-14
1.96925e-14
2.10079e-12
1.81189e-10
2.75762e-11
9.74151e-10
1.25636e-12
3.01335e-10
-1.84041e-11
6.73389e-10
-2.81351e-12
5.13883e-11
-8.1587e-13
2.16845e-12
-3.72249e-13
1.71783e-12
3.7607e-12
0
2.43343e-11
0
3.59844e-11
1.21797e-11
2.97575e-11
0
3.8674e-12
0
3.33683e-12
1.69965e-13
1.55668e-11
-3.42391e-13
0
-2.34624e-12
0
-8.16157e-13
3.41721e-14
-2.4095e-13
5.60312e-13
-3.83175e-15
2.55717e-12
3.89745e-13
1.79688e-12
1.41396e-12
-2.61733e-12
4.40097e-12
-1.16973e-10
1.90142e-10
-6.63128e-11
1.22675e-09
-5.8347e-12
3.7816e-11
-1.70903e-12
9.66876e-12
-2.13901e-12
3.2031e-12
-5.2815e-13
5.6691e-12
-1.13371e-13
2.98022e-13
-2.27402e-14
5.50166e-14
-3.60866e-15
1.2815e-14
-1.06276e-15
3.30898e-15
-3.96701e-16
2.27617e-15
-2.82936e-16
1.17734e-15
-2.5077e-16
9.70644e-16
-1.9339e-16
8.1261e-16
-1.2161e-16
5.17491e-16
-6.84532e-17
2.97323e-16
-3.29296e-17
1.53301e-16
-1.08508e-17
6.36187e-17
-1.14361e-18
1.60848e-17
7.69866e-19
-3.33452e-22
8.87378e-21
-5.48511e-21
2.57808e-19
-3.0795e-20
2.50914e-18
-9.6395e-20
1.52883e-17
-2.27425e-19
8.61643e-17
-6.59714e-19
5.93804e-16
7.41503e-18
7.36133e-15
8.92198e-17
1.38988e-13
4.90808e-15
2.15396e-14
7.32417e-12
5.00364e-10
1.54998e-11
6.01519e-10
-2.46132e-11
1.14523e-09
-1.06281e-11
7.33505e-10
-1.11395e-12
2.43793e-11
-8.99505e-13
1.8931e-12
-6.95493e-13
1.51494e-12
-4.70967e-13
0
-3.60968e-13
0
4.12396e-13
0
3.48279e-12
9.81823e-13
2.17902e-12
1.33003e-13
2.49486e-12
-3.79767e-13
9.75896e-13
-5.0562e-13
3.09107e-13
-3.2442e-13
5.70072e-14
-1.09646e-13
5.51277e-14
-1.13504e-14
6.64744e-14
-2.60891e-15
2.53299e-12
4.83612e-13
1.64662e-12
8.21958e-13
0
4.53922e-12
-1.23168e-10
1.95519e-10
-6.21124e-11
1.33422e-09
-5.71276e-12
1.70104e-10
-8.89475e-13
3.96107e-12
-1.5411e-12
2.86004e-12
-6.11612e-14
6.14078e-12
-4.01059e-14
1.47601e-13
-1.04484e-14
2.96531e-14
-2.08465e-15
1.5143e-14
-8.71735e-16
2.44131e-15
-4.00751e-16
1.98645e-15
-3.09371e-16
1.17699e-15
-2.69595e-16
9.50258e-16
-2.02526e-16
7.68575e-16
-1.278e-16
4.89971e-16
-7.17696e-17
2.80742e-16
-3.29693e-17
1.41157e-16
-9.44608e-18
5.4165e-17
-6.66286e-19
1.16036e-17
3.6251e-19
-3.27587e-22
1.19568e-20
-4.85327e-21
3.00134e-19
-2.46383e-20
2.86459e-18
-6.97015e-20
1.77732e-17
-5.35772e-20
1.01226e-16
1.44718e-18
4.97408e-16
7.36816e-17
3.02991e-15
0
3.55836e-13
-4.66668e-13
1.51572e-12
-8.06589e-14
3.84624e-10
-6.67303e-12
4.06141e-10
-6.53327e-11
1.28076e-09
-1.01832e-11
7.55393e-10
-7.38941e-13
1.29274e-11
-8.33039e-13
1.93161e-12
-1.03622e-12
2.22173e-12
-2.19925e-13
1.96504e-13
-1.89232e-13
4.37311e-14
-1.15888e-13
0
2.0982e-13
-8.05065e-15
2.05852e-13
-7.46682e-14
1.99434e-13
-7.89765e-14
1.08371e-13
-6.29086e-14
2.69348e-14
-3.34132e-14
1.86276e-14
-8.89884e-15
1.33301e-14
-6.05031e-15
1.59714e-14
-2.50508e-15
1.07142e-12
3.69113e-14
9.71158e-13
4.65807e-13
0
4.81424e-12
-1.49097e-10
2.06591e-10
-4.77246e-11
1.37879e-09
-1.38571e-12
1.92962e-10
-3.54242e-13
1.90703e-12
-7.48183e-13
1.75676e-12
-3.27295e-13
6.11008e-13
-1.80167e-14
1.43929e-13
-8.30375e-15
1.8613e-14
-1.6396e-15
1.08475e-14
-7.5028e-16
2.32003e-15
-4.26377e-16
1.62865e-15
-3.40257e-16
1.19108e-15
-2.92012e-16
9.47988e-16
-2.15813e-16
7.44818e-16
-1.34901e-16
4.71528e-16
-7.34416e-17
2.63392e-16
-3.08864e-17
1.24919e-16
-7.37521e-18
4.23378e-17
-3.38506e-19
7.41289e-18
1.47476e-19
-2.71887e-22
1.4531e-20
-3.64839e-21
3.335e-19
-1.50122e-20
3.14913e-18
-9.48719e-21
1.99664e-17
2.74951e-19
1.15605e-16
2.9905e-18
4.87793e-16
2.58618e-16
1.43287e-15
0
3.87639e-13
-5.07298e-13
2.95441e-12
0
1.83764e-11
-3.03468e-11
1.7479e-10
-6.28711e-11
1.38985e-09
-7.76364e-12
2.32561e-10
-8.34452e-13
5.97274e-12
-2.42402e-12
3.45298e-12
-1.20427e-12
3.88129e-12
-1.96879e-13
6.86967e-13
-2.83061e-14
5.58505e-15
-1.35257e-14
-8.42908e-15
1.75403e-14
-2.47113e-14
2.33094e-14
-2.04794e-14
2.36588e-14
-1.75638e-14
1.43089e-14
-5.46345e-15
1.20454e-14
-5.75088e-15
9.76078e-15
-6.61417e-15
9.85866e-15
-6.14814e-15
2.55528e-14
-1.65528e-15
2.2319e-13
1.6836e-14
5.02428e-13
1.4505e-12
0
5.48358e-12
-1.49479e-10
1.41832e-10
-9.10544e-11
1.15464e-09
-7.16729e-13
1.31396e-10
-1.22356e-12
1.70194e-12
-5.1734e-13
3.66922e-12
-1.5687e-13
4.30457e-13
-1.4294e-14
1.68556e-13
-4.37483e-15
8.2999e-15
-1.32052e-15
3.78444e-15
-6.42785e-16
2.59068e-15
-4.57427e-16
1.45654e-15
-3.75531e-16
1.21256e-15
-3.17835e-16
9.62114e-16
-2.29349e-16
7.26633e-16
-1.38872e-16
4.48329e-16
-7.0556e-17
2.36868e-16
-2.58157e-17
1.01082e-16
-4.93458e-18
2.87397e-17
-1.42893e-19
3.97662e-18
4.83997e-20
-1.79225e-22
1.66659e-20
-2.05664e-21
3.63931e-19
-2.31131e-21
3.39066e-18
7.29292e-20
2.16616e-17
7.34056e-19
1.27875e-16
5.18847e-18
5.47247e-16
4.66606e-16
1.41584e-15
-1.54498e-16
3.36915e-13
0
2.90156e-12
-4.07738e-13
3.03739e-11
-4.67982e-11
1.98018e-09
-2.42883e-11
1.44524e-09
-2.74494e-11
1.72722e-10
-5.33659e-11
1.43302e-10
-8.87673e-11
4.86308e-10
-4.2708e-14
1.10557e-10
-1.52427e-14
2.49526e-14
-8.96017e-15
-6.49223e-16
-2.83161e-15
-6.51697e-15
2.17328e-15
-8.63417e-15
5.09664e-15
-7.36001e-15
7.43804e-15
-6.79235e-15
8.36391e-15
-6.3893e-15
9.1249e-15
-6.51186e-15
9.3859e-15
-6.87513e-15
9.1727e-15
-5.93494e-15
8.08374e-15
-5.66272e-16
2.98957e-13
9.66044e-14
1.43546e-13
2.74975e-12
0
6.73518e-12
-6.82145e-11
3.37134e-11
-1.03827e-10
0
-1.82238e-12
2.20826e-10
-2.12552e-12
1.94526e-12
-2.19147e-13
5.10136e-12
-1.15122e-13
3.38818e-13
-1.07822e-14
5.53354e-14
-1.93198e-15
6.12907e-15
-1.12899e-15
2.92247e-15
-5.94145e-16
2.47372e-15
-4.95716e-16
1.45209e-15
-4.20793e-16
1.2385e-15
-3.44221e-16
9.78472e-16
-2.37124e-16
6.98098e-16
-1.34232e-16
4.07071e-16
-6.05368e-17
1.94491e-16
-1.83078e-17
7.08953e-17
-2.71223e-18
1.62146e-17
-4.71978e-20
1.72981e-18
1.20027e-20
-5.70818e-23
1.87451e-20
-1.55475e-22
3.97077e-19
1.28565e-20
3.62574e-18
1.72618e-19
2.2992e-17
1.36633e-18
1.40149e-16
1.16566e-17
7.30561e-16
5.76325e-16
3.65407e-15
1.89402e-15
1.71551e-13
0
1.60802e-12
-1.49995e-11
8.03211e-11
-5.46365e-11
2.23403e-09
-3.09499e-11
1.4959e-09
-5.30824e-11
1.63647e-10
-1.45445e-10
2.46578e-10
-1.68133e-10
5.55212e-10
-3.18021e-14
1.43119e-11
-1.23487e-14
5.55948e-15
-7.6468e-15
-5.32224e-15
-3.25157e-15
-1.09112e-14
8.10437e-16
-1.2696e-14
3.64171e-15
-1.01913e-14
5.80845e-15
-8.95907e-15
7.26383e-15
-7.84464e-15
8.00868e-15
-7.25672e-15
8.12869e-15
-6.99506e-15
7.59629e-15
-5.4025e-15
5.96055e-15
1.06948e-15
8.68398e-14
1.43231e-13
-2.50607e-15
3.12516e-12
-1.90905e-14
5.31128e-12
-1.19014e-11
1.75513e-11
-5.46459e-11
4.03048e-11
-2.03577e-11
2.89157e-10
-3.43689e-12
7.32161e-12
-2.69613e-13
3.56399e-12
-4.95441e-14
9.89636e-14
-1.31837e-14
3.47649e-14
-1.51745e-15
2.68882e-14
-9.43004e-16
2.34154e-15
-6.07493e-16
1.84409e-15
-5.31412e-16
1.51328e-15
-4.58232e-16
1.23659e-15
-3.60247e-16
9.71319e-16
-2.29788e-16
6.4231e-16
-1.1589e-16
3.35974e-16
-4.41967e-17
1.38737e-16
-1.06526e-17
4.16588e-17
-1.2016e-18
7.50559e-18
-1.14873e-20
6.12198e-19
2.65919e-21
6.0149e-23
2.12015e-20
1.82933e-21
4.35367e-19
3.07933e-20
3.87934e-18
2.90968e-19
2.4281e-17
2.24768e-18
1.54539e-16
1.74639e-17
8.75847e-16
2.66518e-16
4.5775e-15
2.18164e-15
6.73767e-14
0
5.25001e-13
-2.53623e-11
1.96949e-10
-5.12009e-11
2.32885e-09
-3.2043e-11
1.55705e-09
-4.5709e-11
1.74596e-10
-1.51216e-10
2.57847e-10
-4.59508e-11
4.70368e-10
-1.64278e-14
5.89865e-12
-1.23907e-14
1.56509e-15
-8.15836e-15
-9.54153e-15
-4.03969e-15
-1.50257e-14
-2.93064e-16
-1.64426e-14
2.30413e-15
-1.27884e-14
4.27512e-15
-1.093e-14
5.56542e-15
-9.13495e-15
6.13421e-15
-7.82542e-15
5.99096e-15
-6.8518e-15
5.02776e-15
-4.4393e-15
2.69839e-15
3.39885e-15
-4.21152e-14
3.91328e-14
0
3.56495e-12
-2.63376e-12
8.43377e-12
-2.34407e-11
3.53308e-11
-1.31279e-10
2.08988e-10
-8.5014e-12
2.231e-10
-1.45437e-12
3.08433e-12
-9.35308e-14
4.74533e-13
-3.57338e-14
3.37944e-14
-2.49005e-14
6.08707e-14
-1.35416e-15
5.3885e-14
-8.94023e-16
2.00185e-15
-6.63265e-16
1.74936e-15
-5.72854e-16
1.61375e-15
-4.84728e-16
1.20173e-15
-3.54665e-16
9.19296e-16
-1.98428e-16
5.37073e-16
-8.54547e-17
2.40175e-16
-2.67693e-17
8.38211e-17
-5.07251e-18
2.04987e-17
-4.3624e-19
2.91431e-18
-2.28973e-21
1.84356e-19
6.04493e-22
1.83422e-22
2.42027e-20
4.2051e-21
4.69607e-19
5.19049e-20
4.11859e-18
4.31985e-19
2.57193e-17
3.28467e-18
1.65128e-16
1.91565e-17
8.81025e-16
1.61937e-16
3.79132e-15
7.43868e-16
6.57568e-14
2.30242e-13
2.83687e-13
-1.98234e-11
3.71185e-10
-3.40989e-11
2.41134e-09
-3.71715e-11
1.60942e-09
-4.71614e-11
1.99564e-10
-1.54105e-10
5.0498e-10
-7.30698e-11
4.07158e-10
-1.59913e-14
3.97998e-11
-1.24258e-14
-1.94769e-15
-8.37709e-15
-1.35725e-14
-4.4734e-15
-1.89038e-14
-1.08307e-15
-1.97203e-14
1.16121e-15
-1.50326e-14
2.75604e-15
-1.25248e-14
3.66135e-15
-1.00402e-14
3.81829e-15
-7.98236e-15
3.18401e-15
-6.21753e-15
1.54981e-15
-2.8051e-15
-2.04569e-15
6.9931e-15
-2.08649e-14
5.46146e-14
-1.39147e-13
6.63961e-12
0
4.38983e-11
-6.64687e-11
8.28064e-11
-7.87326e-11
2.66006e-10
-2.69163e-12
1.66689e-10
-3.83385e-13
9.81331e-13
-4.83287e-14
1.32663e-13
-3.49137e-14
1.71106e-14
-2.04356e-14
6.40828e-14
-1.10701e-15
4.9184e-14
-8.70323e-16
1.91749e-15
-7.05559e-16
1.74304e-15
-5.92494e-16
1.63227e-15
-4.85272e-16
1.12266e-15
-3.11823e-16
7.91123e-16
-1.4638e-16
3.88609e-16
-5.2976e-17
1.46086e-16
-1.35536e-17
4.31897e-17
-2.03128e-18
8.63846e-18
-1.35922e-19
9.8345e-19
-4.93009e-22
4.96105e-20
1.34486e-22
3.398e-22
2.71236e-20
6.8044e-21
4.81551e-19
7.50286e-20
4.21645e-18
5.92929e-19
2.67258e-17
4.23325e-18
1.66308e-16
2.66015e-17
7.73952e-16
4.41047e-16
1.67482e-15
3.95105e-15
3.13065e-13
1.68548e-13
1.24413e-13
-5.08668e-12
3.6365e-10
-5.85995e-11
1.81866e-09
-3.64978e-11
1.62668e-09
-1.45502e-10
3.51169e-10
-1.68727e-10
6.95596e-10
-1.28538e-10
3.8248e-10
-1.56608e-14
1.40972e-10
-1.2096e-14
-5.47881e-15
-8.08162e-15
-1.75646e-14
-4.40369e-15
-2.2596e-14
-1.39867e-15
-2.27261e-14
4.14935e-16
-1.68463e-14
1.49866e-15
-1.36085e-14
1.82709e-15
-1.03686e-14
1.34928e-15
-7.50455e-15
-3.22701e-17
-4.83597e-15
-2.53185e-15
-3.05433e-16
-7.70451e-15
1.21956e-14
-2.81281e-13
3.32426e-13
-7.59931e-12
2.73395e-11
-4.50539e-12
6.91616e-11
-3.60959e-11
1.04258e-10
-5.94409e-11
2.90253e-11
-9.60263e-13
1.57797e-11
-1.14185e-13
1.76207e-13
-2.22465e-14
3.46409e-14
-2.79667e-14
1.01266e-14
-2.24771e-14
4.56839e-14
-1.11384e-15
2.54506e-14
-9.4186e-16
1.88099e-15
-7.45126e-16
1.72074e-15
-5.96771e-16
1.60539e-15
-4.3455e-16
9.41602e-16
-2.34143e-16
5.88294e-16
-9.16057e-17
2.40496e-16
-2.80732e-17
7.72637e-17
-5.89999e-18
1.95082e-17
-7.0961e-19
3.21232e-18
-3.7918e-20
2.97758e-19
-1.08595e-22
1.22787e-20
2.96549e-23
5.15638e-22
2.87957e-20
9.29888e-21
4.81688e-19
9.72461e-20
4.21058e-18
7.50172e-19
2.67762e-17
5.06732e-18
1.64191e-16
2.73617e-17
6.25131e-16
7.16876e-16
1.07608e-15
9.74924e-15
3.64794e-13
8.69544e-14
6.27345e-14
3.90667e-12
1.8757e-10
-4.28973e-11
1.64151e-10
-3.85431e-12
1.6425e-09
-1.46429e-10
9.00912e-10
-1.61629e-10
7.24798e-10
-1.44852e-10
3.79994e-10
-1.50517e-14
6.92203e-11
-1.14155e-14
-9.02586e-15
-7.19981e-15
-2.17466e-14
-3.82236e-15
-2.59784e-14
-1.23022e-15
-2.53229e-14
1.12048e-16
-1.81892e-14
6.09112e-16
-1.41055e-14
2.27355e-16
-9.98683e-15
-1.09305e-15
-6.18414e-15
-3.46114e-15
-2.46786e-15
-7.23885e-15
3.47747e-15
-3.14176e-14
3.68717e-14
-4.8008e-12
5.06268e-12
-2.15797e-11
5.40382e-11
-3.21099e-11
8.13017e-11
-1.96248e-11
9.36139e-11
-9.68609e-12
1.72313e-11
-1.48283e-13
6.24485e-12
-1.84999e-14
6.07223e-14
-5.93684e-15
1.34919e-14
-1.01743e-14
5.75923e-15
-1.11984e-14
6.81469e-15
-1.27678e-15
4.29857e-15
-1.0298e-15
1.85474e-15
-7.59715e-16
1.69288e-15
-5.33912e-16
1.41448e-15
-3.34524e-16
7.01e-16
-1.49661e-16
3.73924e-16
-5.0115e-17
1.31638e-16
-1.31434e-17
3.71476e-17
-2.28095e-18
7.99758e-18
-2.2339e-19
1.08986e-18
-9.73502e-21
8.34324e-20
-2.38297e-23
2.85821e-21
6.45973e-24
6.82115e-22
2.91222e-20
1.16582e-20
4.72114e-19
1.1834e-19
4.13762e-18
8.96151e-19
2.64523e-17
5.83668e-18
1.57698e-16
2.77369e-17
5.6551e-16
3.37458e-17
8.51009e-16
1.39879e-14
4.10818e-13
4.66652e-14
3.43349e-14
5.62703e-12
3.00731e-11
-8.83164e-12
6.0197e-10
-2.02938e-11
4.92305e-10
-1.1831e-10
3.38212e-10
-1.26113e-10
7.42946e-10
-1.06938e-10
3.74956e-10
-1.85445e-14
1.26526e-11
-1.5021e-14
-1.2309e-14
-5.82947e-15
-3.07462e-14
-3.0301e-15
-2.85688e-14
-6.52514e-16
-2.78421e-14
2.42644e-16
-1.91125e-14
1.32802e-16
-1.39954e-14
-1.00805e-15
-8.84592e-15
-3.28626e-15
-3.90591e-15
-6.76491e-15
1.01103e-15
-1.32942e-14
1.00277e-14
-1.33117e-13
1.5637e-13
-1.80591e-11
1.97739e-11
-2.83792e-11
6.46511e-11
-3.40992e-11
8.76035e-11
-1.45759e-11
8.75684e-11
-4.55986e-12
7.70787e-12
-4.93659e-14
1.76974e-12
-7.47742e-15
1.54706e-14
-2.71625e-15
6.20239e-15
-2.98547e-15
3.57048e-15
-2.4192e-15
2.85779e-15
-1.00782e-15
2.30589e-15
-8.97338e-16
1.84945e-15
-7.39469e-16
1.69947e-15
-4.18973e-16
1.04524e-15
-2.21268e-16
4.70032e-16
-8.48723e-17
2.1283e-16
-2.50805e-17
6.73868e-17
-5.62595e-18
1.69147e-17
-8.08499e-19
3.07978e-18
-6.52552e-20
3.49356e-19
-2.34937e-21
2.23318e-20
-5.19224e-24
6.4052e-22
1.39327e-24
8.35243e-22
2.91495e-20
1.37322e-20
4.55105e-19
1.36907e-19
3.97395e-18
1.02722e-18
2.55524e-17
6.49897e-18
1.46824e-16
2.75803e-17
5.60939e-16
2.21763e-16
6.21707e-16
1.68775e-14
2.47327e-13
3.05057e-14
2.14192e-14
1.22814e-11
2.70552e-11
8.19896e-12
1.14498e-09
-4.34201e-12
3.62024e-10
-5.3285e-11
1.59324e-10
-1.04056e-10
4.30508e-10
-8.76076e-11
3.73021e-10
-3.89235e-14
1.42126e-11
-3.35004e-14
-1.72081e-14
-5.81062e-15
-2.43015e-14
-3.92813e-15
0
1.04824e-15
0
1.17738e-15
0
1.02977e-16
-1.29131e-14
-1.79285e-15
-6.94987e-15
-5.01331e-15
-6.85212e-16
-9.67769e-15
5.6745e-15
-2.05917e-14
2.08427e-14
-2.00987e-13
3.1824e-13
-2.49374e-11
2.37096e-11
-3.20984e-11
7.25176e-11
-3.81971e-11
9.40975e-11
-6.68828e-12
7.40652e-11
-1.34675e-12
2.47732e-12
-1.53087e-14
4.62228e-13
-2.84273e-15
6.58349e-15
-1.59626e-15
3.9248e-15
-1.64569e-15
2.87014e-15
-1.31358e-15
2.69647e-15
-9.76199e-16
2.13481e-15
-8.6195e-16
1.85198e-15
-6.02823e-16
1.48838e-15
-2.92255e-16
6.90292e-16
-1.32318e-16
2.97283e-16
-4.52207e-17
1.16442e-16
-1.19126e-17
3.37602e-17
-2.26784e-18
7.48682e-18
-2.7088e-19
1.14827e-18
-1.81859e-20
1.09232e-19
-5.44478e-22
5.87628e-21
-1.12137e-24
1.41588e-22
2.9799e-25
9.87476e-22
2.91848e-20
1.56921e-20
4.48797e-19
1.50793e-19
3.76055e-18
1.12238e-18
2.39252e-17
7.06064e-18
1.35228e-16
3.91065e-17
5.75263e-16
5.11178e-16
1.99514e-15
7.7279e-15
1.29024e-14
1.78452e-14
1.37015e-14
6.7407e-12
4.72536e-11
2.26993e-11
1.17474e-09
3.86289e-13
3.32443e-10
-5.34954e-12
1.23271e-10
-6.43634e-11
7.25109e-11
-2.74907e-11
3.53301e-10
-1.43677e-13
1.14049e-11
-3.79232e-14
-1.22043e-13
-6.08426e-15
-1.92355e-13
5.51461e-15
0
1.02125e-13
-7.09423e-12
1.58841e-14
0
5.73251e-16
0
-2.00075e-15
-4.17441e-15
-6.12089e-15
3.43398e-15
-1.18796e-14
1.14255e-14
-2.39504e-14
3.27467e-14
-1.63795e-13
4.15417e-13
-2.86394e-11
2.15157e-11
-3.39899e-11
7.84757e-11
-3.76415e-11
9.81271e-11
-2.16081e-12
5.14746e-11
-3.64398e-13
7.04671e-13
-4.53945e-15
1.09895e-13
-1.74488e-15
3.98347e-15
-1.22401e-15
3.0267e-15
-1.21255e-15
2.52891e-15
-1.10781e-15
2.32933e-15
-9.59184e-16
2.1002e-15
-7.88634e-16
1.73468e-15
-4.2796e-16
1.08374e-15
-1.90365e-16
4.46984e-16
-7.62389e-17
1.85096e-16
-2.35764e-17
6.42409e-17
-5.48932e-18
1.69081e-17
-8.8299e-19
3.27332e-18
-8.82195e-20
4.24844e-19
-4.96335e-21
3.41902e-20
-1.242e-22
1.5574e-21
-2.40201e-25
3.16263e-23
6.33211e-26
1.154e-21
2.98755e-20
1.80546e-20
4.51883e-19
1.64324e-19
3.6937e-18
1.17498e-18
2.20689e-17
7.56753e-18
1.25631e-16
4.19188e-17
5.97713e-16
2.47419e-16
2.9743e-15
2.91134e-15
1.07928e-14
1.00696e-14
8.36041e-15
1.33538e-11
7.42086e-11
4.40857e-11
1.17576e-09
1.60649e-11
7.84216e-10
-3.17242e-14
1.01139e-10
-3.3554e-11
7.68924e-11
-1.03986e-11
3.50596e-10
-2.33146e-12
3.98759e-12
-2.26731e-14
-6.81982e-13
4.10573e-14
-1.33077e-13
2.37746e-12
-3.7265e-11
8.21517e-12
-1.47495e-10
1.27842e-12
-9.32984e-11
0
0
-1.48627e-15
-3.73615e-17
-6.41509e-15
8.35477e-15
-1.3091e-14
1.80797e-14
-2.27193e-14
4.14822e-14
0
3.49175e-13
-3.24949e-11
1.0676e-11
-3.88056e-11
8.56194e-11
-2.96471e-11
8.84984e-11
-6.72165e-13
2.18865e-11
-9.49346e-14
1.39775e-13
-3.10311e-15
2.23392e-14
-1.83476e-15
3.75533e-15
-1.07861e-15
3.2622e-15
-9.95309e-16
2.29709e-15
-9.76326e-16
1.94664e-15
-9.10032e-16
1.99864e-15
-6.29397e-16
1.50554e-15
-2.88796e-16
7.44013e-16
-1.21353e-16
2.95168e-16
-4.39398e-17
1.15931e-16
-1.22286e-17
3.6165e-17
-2.48736e-18
8.50338e-18
-3.39227e-19
1.42969e-18