/*--------------------------------*- C++ -*----------------------------------*\
  =========                 |
  \\      /  F ield         | OpenFOAM: The Open Source CFD Toolbox
   \\    /   O peration     | Website:  https://openfoam.org
    \\  /    A nd           | Version:  9
     \\/     M anipulation  |
\*---------------------------------------------------------------------------*/
FoamFile
{
    format      ascii;
    class       volScalarField;
    location    "0.19";
    object      alpha.water;
}
// * * * * * * * * * * * * * * * * * * * * * * * * * * * * * * * * * * * * * //

dimensions      [0 0 0 0 0 0 0];

internalField   nonuniform List<scalar> 
5000
(
6.22545e-21
1.34627e-16
7.11321e-15
6.16242e-14
6.65158e-14
4.4009e-12
4.17656e-10
1.45639e-08
2.85786e-07
6.95724e-06
4.92563e-05
1.80497e-05
0.157897
0.888371
1
0.999997
1
1
1
1
1
1
1
1
1
1
0.999999
0.999996
0.999996
0.935662
0.226758
0.000199642
0.00017324
0.000184843
4.52728e-05
9.6872e-06
2.17288e-06
5.67793e-07
1.58916e-07
4.61479e-08
1.36423e-08
4.09381e-09
1.09525e-09
3.51226e-10
2.13618e-10
1.36867e-10
8.12078e-11
4.61219e-11
2.34124e-11
7.60759e-12
6.86969e-19
3.80363e-16
1.28317e-14
1.35216e-13
3.6394e-13
1.65058e-11
7.38943e-10
2.01983e-08
4.21026e-07
7.06688e-06
7.03331e-06
1.26242e-05
0.0746025
0.798086
0.999994
0.999995
1
1
1
1
1
1
1
1
1
1
0.999999
0.999994
0.999988
0.826384
0.0911893
0.000225697
0.000490999
0.000115331
4.8434e-05
1.16072e-05
2.76291e-06
7.10609e-07
1.9177e-07
5.37031e-08
1.5465e-08
4.5485e-09
1.25523e-09
3.81919e-10
2.14884e-10
1.39139e-10
8.59601e-11
4.95348e-11
2.28393e-11
8.48334e-12
3.4464e-18
4.68732e-16
1.25815e-14
1.6876e-13
8.9339e-13
2.89382e-11
8.93915e-10
2.09836e-08
4.36038e-07
5.42472e-06
3.21642e-05
1.80346e-05
1.9271e-05
0.620117
0.999991
0.999986
0.999999
1
1
1
1
1
1
1
1
1
1
0.999999
0.99969
0.560109
0.000225687
0.000224975
0.000487516
7.43419e-05
4.25715e-05
1.15101e-05
2.92753e-06
7.35728e-07
1.97756e-07
5.46162e-08
1.55862e-08
4.5563e-09
1.254e-09
3.84241e-10
2.13771e-10
1.38405e-10
8.53865e-11
4.87748e-11
2.13709e-11
8.36468e-12
6.98173e-18
4.26168e-16
1.09075e-14
1.5867e-13
1.29485e-12
3.21747e-11
8.47384e-10
1.93813e-08
3.64447e-07
2.86047e-06
0.000116014
2.03941e-05
2.39498e-05
0.328838
0.963355
0.999994
0.999994
0.999999
1
1
1
1
1
1
1
1
1
0.999993
0.909088
0.173819
0.000225679
0.000225697
0.000484146
4.42823e-05
2.51037e-05
9.97263e-06
2.80186e-06
7.18882e-07
1.9173e-07
5.24089e-08
1.47547e-08
4.26855e-09
1.15661e-09
3.63987e-10
2.08267e-10
1.36407e-10
8.33659e-11
4.66889e-11
1.96552e-11
7.80743e-12
6.85847e-18
3.78964e-16
1.05848e-14
1.36973e-13
1.33548e-12
2.94691e-11
6.84253e-10
1.28829e-08
1.46127e-07
3.29492e-06
0.00011753
3.3777e-05
3.26938e-05
0.0346018
0.760734
0.999975
0.999991
0.999992
0.999999
1
1
1
1
1
1
0.999999
0.999999
0.997567
0.501097
0.000269269
0.00027414
0.00027957
9.7812e-05
4.35198e-05
9.80402e-06
6.83872e-06
2.06786e-06
6.19967e-07
1.59515e-07
4.39356e-08
1.21685e-08
3.44165e-09
9.05248e-10
3.18699e-10
1.97177e-10
1.31894e-10
7.98275e-11
4.34574e-11
1.74751e-11
7.17062e-12
5.20663e-18
4.36521e-16
1.28182e-14
1.36854e-13
1.19334e-12
2.2734e-11
3.82115e-10
1.79505e-09
2.58271e-09
5.28366e-06
0.00011753
3.69182e-05
3.43319e-05
3.87169e-05
0.314482
0.924053
0.999974
0.99998
0.999991
0.999998
0.999999
0.999999
0.999998
0.999999
0.999999
0.999999
0.999973
0.722285
0.0610529
0.00023335
0.000331553
0.000400752
6.07608e-05
1.83823e-05
4.84887e-06
3.32066e-06
8.87085e-07
3.98388e-07
9.75739e-08
2.80337e-08
7.72517e-09
2.16567e-09
5.72593e-10
2.6223e-10
1.8346e-10
1.24478e-10
7.41462e-11
3.9088e-11
1.55337e-11
6.10313e-12
3.44622e-18
7.09014e-16
1.93028e-14
1.56409e-13
9.4808e-13
1.34438e-11
1.99701e-10
2.17811e-09
3.67958e-09
8.41128e-06
0.00011753
4.5477e-05
3.3931e-05
3.11e-05
0.000256294
0.347182
0.907124
0.999969
0.999955
0.999987
0.999992
0.999989
0.99999
0.999988
0.999983
0.999973
0.794778
0.15016
5.66413e-05
0.000226262
0.000335593
0.000400752
0.000208435
6.61119e-06
5.9083e-06
1.08013e-06
4.72069e-07
1.53523e-07
5.77273e-08
1.38059e-08
4.04664e-09
1.11495e-09
3.32487e-10
2.1836e-10
1.69721e-10
1.1491e-10
6.71372e-11
3.42318e-11
1.36173e-11
4.44263e-12
5.57468e-18
1.36663e-15
3.00057e-14
2.05567e-13
9.65418e-13
1.17537e-11
2.06881e-10
1.68239e-08
2.51243e-09
8.71949e-06
2.65445e-05
6.83183e-05
3.37401e-05
3.39312e-05
5.09315e-05
0.000336766
0.339309
0.905032
0.999944
0.999924
0.999954
0.999963
0.999939
0.999828
0.995149
0.738355
0.150948
5.04648e-06
8.1658e-06
0.000230922
0.000398302
0.000338767
0.000236594
7.59495e-06
8.46298e-06
4.28429e-07
5.94949e-07
3.67338e-08
3.82726e-08
5.94962e-09
2.15793e-09
5.9061e-10
2.27632e-10
1.95257e-10
1.57374e-10
1.04357e-10
5.95229e-11
2.93656e-11
1.1489e-11
2.80158e-12
1.62161e-17
2.48968e-15
4.26576e-14
2.83361e-13
1.1871e-12
1.32589e-11
2.29669e-10
1.85025e-08
1.56271e-09
5.73885e-06
3.5909e-05
6.83183e-05
3.36911e-05
3.1947e-05
3.32666e-05
9.46742e-05
0.000338209
0.380056
0.89682
0.999918
0.99966
0.997502
0.971572
0.822636
0.467343
0.0748905
5.04648e-06
4.9863e-06
3.84687e-06
0.000201182
0.000398806
0.000269679
0.000113674
8.32296e-06
8.6164e-06
2.86176e-07
5.35228e-07
1.77939e-08
1.34445e-08
4.2424e-09
1.13749e-09
3.65253e-10
1.93354e-10
1.83738e-10
1.45334e-10
9.33297e-11
5.17395e-11
2.46555e-11
9.29398e-12
1.64566e-12
4.67428e-17
4.12858e-15
5.68994e-14
3.74083e-13
1.66006e-12
1.80611e-11
3.06339e-10
1.83955e-08
1.12092e-09
4.35083e-06
7.57275e-05
4.77387e-05
3.36707e-05
4.61595e-05
1.83265e-05
6.17967e-05
0.000397408
0.00131044
0.270145
0.646273
0.637393
0.53227
0.298224
0.0962945
0.000142849
1.72474e-05
2.67013e-05
5.33671e-06
3.62261e-06
0.000100119
0.000398806
0.000323965
8.56443e-06
9.26997e-06
6.42394e-06
1.53034e-07
1.27084e-07
3.84654e-08
3.29292e-09
3.96307e-09
5.28043e-10
2.55589e-10
1.84973e-10
1.75667e-10
1.32572e-10
8.19365e-11
4.42022e-11
2.0755e-11
7.41126e-12
9.42979e-13
1.0856e-16
6.36761e-15
7.41149e-14
4.69125e-13
2.32742e-12
2.7002e-11
4.81461e-10
1.34508e-08
9.4101e-10
3.18874e-06
7.61582e-05
3.67166e-05
0.000101106
5.12125e-05
1.9157e-06
1.43192e-05
8.72603e-05
0.000334917
0.000166017
0.0215248
0.00578132
1.06398e-05
1.06134e-05
1.05498e-05
1.04376e-05
1.16112e-05
3.47093e-06
2.80841e-06
3.60761e-06
1.51311e-05
0.000398806
0.00032845
6.20933e-06
7.40586e-06
2.12186e-06
3.83661e-07
3.4042e-08
5.36708e-08
2.14073e-09
2.63989e-09
3.28873e-10
1.98758e-10
1.80145e-10
1.67227e-10
1.18748e-10
7.11937e-11
3.85916e-11
1.81018e-11
5.9331e-12
5.26138e-13
2.13714e-16
9.12902e-15
9.47299e-14
5.71784e-13
3.02913e-12
3.15153e-11
5.24413e-10
1.52341e-09
7.25183e-10
2.47865e-06
7.91065e-05
3.70288e-05
0.000157912
3.06608e-05
7.35625e-07
2.25743e-06
1.10638e-05
4.52991e-05
0.000154178
2.30486e-05
2.09416e-05
1.65966e-05
6.19783e-05
3.11071e-05
8.75639e-06
1.78368e-06
7.60458e-08
2.29344e-06
3.89695e-06
3.3071e-06
0.000217338
0.000325786
4.13485e-06
7.68714e-07
3.08753e-07
7.82494e-07
1.89812e-08
2.93772e-08
1.26581e-09
7.1802e-10
3.50793e-10
1.91978e-10
1.73677e-10
1.57046e-10
1.06078e-10
6.4084e-11
3.53358e-11
1.61389e-11
4.68935e-12
2.78979e-13
3.61011e-16
1.20144e-14
1.16746e-13
6.86975e-13
3.73163e-12
2.94953e-11
4.31788e-10
1.20798e-09
9.4101e-10
2.49782e-05
7.83852e-05
9.8491e-05
0.000158107
1.53269e-05
7.32521e-07
7.3342e-07
1.82093e-06
3.81256e-06
1.10888e-05
2.21537e-05
1.97634e-05
1.47977e-05
6.30235e-06
2.1385e-06
5.42232e-07
8.80575e-08
1.79514e-08
2.42668e-06
3.66029e-06
2.48074e-06
9.55958e-05
0.00032293
2.13854e-05
2.40205e-07
2.16968e-07
7.80988e-07
1.54444e-08
1.9484e-09
2.00729e-09
3.25683e-10
3.33878e-10
1.9274e-10
1.67914e-10
1.47267e-10
9.86806e-11
6.03386e-11
3.29522e-11
1.41407e-11
3.52318e-12
1.35986e-13
5.26192e-16
1.45263e-14
1.36928e-13
8.11716e-13
4.45944e-12
2.4698e-11
2.36088e-10
9.91619e-09
3.98357e-08
2.98865e-05
2.173e-05
0.000160105
0.000158975
3.23172e-06
7.33212e-07
7.19739e-07
7.07541e-07
4.2176e-07
1.04892e-06
1.58093e-06
1.03659e-06
7.41707e-07
4.23574e-07
1.47859e-07
4.07758e-08
1.76534e-08
1.78546e-08
1.07951e-06
1.93246e-06
2.00963e-06
7.66002e-05
0.000320903
3.18938e-05
2.15663e-07
2.1867e-07
3.92439e-07
1.27751e-08
1.20339e-09
1.90639e-09
2.97717e-10
2.8182e-10
1.95396e-10
1.66722e-10
1.41349e-10
9.50324e-11
5.74002e-11
3.00871e-11
1.16446e-11
2.40295e-12
5.83389e-14
6.76815e-16
1.65089e-14
1.5359e-13
9.31701e-13
5.18612e-12
2.26416e-11
6.66286e-11
1.84432e-08
1.30493e-07
9.91074e-06
9.26749e-06
0.0001601
0.000126512
7.4736e-07
7.33193e-07
2.31288e-06
7.68066e-07
1.76828e-08
8.83199e-08
1.32491e-07
9.81637e-08
7.56331e-08
4.64362e-08
2.45971e-08
1.76524e-08
1.76524e-08
1.88236e-08
4.78376e-08
8.88043e-07
1.89055e-06
5.62266e-05
0.000318202
1.86309e-05
2.32421e-07
3.49608e-07
2.32818e-08
2.15384e-08
7.22276e-10
8.76365e-10
3.57389e-10
2.33085e-10
1.99465e-10
1.68469e-10
1.38275e-10
9.16697e-11
5.32809e-11
2.57369e-11
8.5525e-12
1.41011e-12
2.0438e-14
8.01811e-16
1.8199e-14
1.67405e-13
1.02979e-12
5.81676e-12
2.41229e-11
5.59718e-11
1.84161e-08
1.4137e-07
3.21614e-07
3.45353e-05
0.000160137
2.55865e-05
8.14045e-06
6.03602e-05
7.40385e-05
4.35094e-08
1.76525e-08
2.01366e-08
2.06775e-08
1.97103e-08
1.87268e-08
1.76524e-08
1.76524e-08
1.76524e-08
1.76524e-08
1.76524e-08
1.06153e-07
1.44804e-06
2.13361e-06
2.6209e-05
0.000114729
2.28019e-05
2.27047e-07
6.26455e-07
2.82248e-08
1.21618e-08
4.18642e-10
3.15403e-10
3.73938e-10
2.2541e-10
2.05022e-10
1.73517e-10
1.34615e-10
8.59672e-11
4.62797e-11
1.95819e-11
5.3229e-12
6.77781e-13
5.24256e-15
9.15133e-16
1.99194e-14
1.79885e-13
1.1044e-12
6.39512e-12
3.00689e-11
1.1962e-10
1.3557e-08
1.02983e-07
2.09943e-06
0.000156726
0.000159891
2.55557e-05
5.5652e-05
0.000168114
3.57447e-05
1.7652e-08
1.7652e-08
1.76524e-08
1.76524e-08
1.76524e-08
1.76524e-08
1.76524e-08
1.76524e-08
1.76524e-08
1.76524e-08
1.76524e-08
1.69649e-07
1.59544e-06
1.44395e-06
3.01004e-06
1.72218e-05
3.50834e-05
1.86292e-07
6.15247e-07
5.32743e-09
3.63775e-09
1.67298e-09
2.74803e-10
2.786e-10
2.3178e-10
2.08313e-10
1.73987e-10
1.27658e-10
7.51999e-11
3.57844e-11
1.266e-11
2.71413e-12
2.5923e-13
7.70916e-16
1.03626e-15
2.18609e-14
1.92852e-13
1.17008e-12
7.06354e-12
3.94816e-11
2.13572e-10
3.03259e-09
4.0064e-08
6.27541e-06
0.000159427
0.000159298
2.63786e-05
4.3004e-05
0.000170878
3.37949e-06
1.76522e-08
1.76525e-08
1.76525e-08
1.76524e-08
1.76524e-08
1.76524e-08
1.76524e-08
1.76524e-08
1.76524e-08
1.76524e-08
1.76524e-08
6.38413e-08
1.19176e-06
1.20999e-06
4.26663e-06
3.70416e-05
3.74441e-05
7.86244e-08
1.53221e-07
2.92102e-09
5.90994e-09
4.42245e-09
2.57937e-10
2.50284e-10
2.50659e-10
2.06044e-10
1.69987e-10
1.13092e-10
5.83594e-11
2.36854e-11
6.81424e-12
1.13152e-12
7.98288e-14
3.27823e-17
1.18038e-15
2.39136e-14
2.06739e-13
1.24273e-12
7.75442e-12
4.17424e-11
1.9929e-10
1.94553e-10
8.10403e-10
1.38347e-05
0.000159039
0.000158742
2.65353e-05
3.89923e-05
0.0001728
7.43612e-06
1.7653e-08
1.76527e-08
1.76746e-08
1.76588e-08
1.76524e-08
1.76524e-08
1.76524e-08
1.76524e-08
1.76524e-08
1.76524e-08
1.76523e-08
1.78049e-08
1.16307e-06
2.35815e-06
8.80946e-06
3.84673e-05
3.60081e-05
2.02254e-08
2.77471e-09
2.09798e-09
7.9426e-09
7.65257e-09
2.61181e-10
2.54222e-10
2.63846e-10
1.98606e-10
1.55811e-10
8.88301e-11
3.87933e-11
1.3261e-11
3.07461e-12
3.94856e-13
2.06262e-14
1.82333e-18
1.33882e-15
2.52628e-14
2.17139e-13
1.31596e-12
8.03888e-12
3.87847e-11
8.47863e-11
7.56772e-09
2.19413e-09
2.07518e-05
0.000159047
0.000158221
2.71293e-05
0.000165032
0.000173574
8.2106e-05
1.76536e-08
1.7653e-08
1.76539e-08
1.76526e-08
1.76524e-08
1.76524e-08
1.76524e-08
1.76524e-08
1.76524e-08
1.76524e-08
1.7654e-08
1.80782e-08
2.36392e-06
1.35836e-05
1.45896e-05
2.18821e-05
1.23283e-05
6.62811e-09
1.73302e-09
1.52585e-09
8.25512e-09
6.1818e-09
2.61239e-10
2.55717e-10
2.63811e-10
1.78025e-10
1.2628e-10
5.98468e-11
2.20663e-11
6.36935e-12
1.18939e-12
1.18888e-13
4.63479e-15
3.20024e-19
1.46495e-15
2.5377e-14
2.18561e-13
1.34357e-12
7.97975e-12
3.23621e-11
3.49687e-11
1.88559e-08
1.30983e-09
1.82733e-05
6.4288e-05
0.000157407
5.76686e-05
0.000173808
0.000173732
0.000155252
1.76539e-08
1.76536e-08
1.76539e-08
1.76533e-08
1.76526e-08
1.76524e-08
1.76524e-08
1.76524e-08
1.76524e-08
1.76532e-08
1.77888e-08
6.92924e-07
1.24493e-05
1.48879e-05
1.47805e-05
8.15816e-07
-6.81859e-08
1.28543e-09
1.1704e-09
1.05011e-09
3.98602e-09
2.11245e-09
2.59042e-10
2.53776e-10
2.4979e-10
1.41933e-10
8.75645e-11
3.48915e-11
1.10964e-11
2.7041e-12
4.06828e-13
3.18751e-14
9.23828e-16
5.46133e-20
1.51003e-15
2.50848e-14
2.1664e-13
1.33584e-12
7.76249e-12
2.70531e-11
3.85263e-11
1.88422e-08
8.11655e-10
5.49907e-06
1.66737e-05
0.000147835
9.2222e-05
0.000173778
0.000173868
8.12584e-05
1.76539e-08
1.76626e-08
1.76599e-08
1.76809e-08
1.76589e-08
1.76524e-08
1.76524e-08
1.76524e-08
1.76525e-08
1.76648e-08
1.95405e-08
4.15857e-06
1.51559e-05
1.50186e-05
1.39353e-05
1.57148e-07
-1.18684e-08
1.61107e-10
5.88464e-10
5.29717e-10
5.64981e-10
3.09788e-10
2.71563e-10
2.64692e-10
2.0338e-10
1.00678e-10
5.26899e-11
1.84392e-11
5.16311e-12
1.05272e-12
1.27889e-13
7.90946e-15
1.66367e-16
1.07135e-20
1.50764e-15
2.43376e-14
2.10956e-13
1.30726e-12
7.38298e-12
2.62103e-11
2.74773e-11
1.88322e-08
5.08765e-10
6.71268e-07
5.49809e-05
2.75253e-05
3.70987e-05
0.000173818
0.000173329
4.12365e-05
1.76626e-08
4.73958e-08
2.20725e-08
2.36942e-08
2.0133e-08
1.76526e-08
1.76525e-08
1.76525e-08
1.7653e-08
1.76954e-08
2.34881e-08
7.65507e-06
1.51481e-05
1.51297e-05
1.34828e-05
4.29056e-08
-2.10836e-09
1.74149e-10
3.97499e-10
3.86433e-10
3.39117e-10
2.72897e-10
2.727e-10
2.51422e-10
1.41662e-10
6.56368e-11
2.93214e-11
9.33875e-12
2.30551e-12
3.90114e-13
3.85764e-14
1.90297e-15
2.80196e-17
2.21619e-21
1.50555e-15
2.36001e-14
2.00894e-13
1.25033e-12
6.8541e-12
2.67343e-11
6.26595e-11
6.53117e-09
3.40337e-10
1.44933e-06
6.66189e-05
1.49786e-05
1.36183e-05
4.05391e-05
0.000172389
3.84584e-05
1.78186e-08
1.10574e-07
4.29127e-08
3.68532e-07
6.22233e-08
4.8052e-08
1.76755e-08
1.7653e-08
1.76542e-08
1.77345e-08
2.57175e-08
7.64234e-06
1.51636e-05
1.51712e-05
1.16591e-05
1.20007e-08
1.31603e-10
3.29587e-10
3.42271e-10
3.34659e-10
3.304e-10
2.88953e-10
2.66751e-10
2.02823e-10
9.23024e-11
4.13752e-11
1.61434e-11
4.69693e-12
1.01039e-12
1.42285e-13
1.16277e-14
4.66261e-16
4.80067e-18
4.70106e-22
1.52273e-15
2.36886e-14
1.93116e-13
1.164e-12
6.35112e-12
2.79897e-11
1.32996e-10
1.34537e-10
2.13493e-10
2.98248e-06
6.71968e-05
5.07647e-05
1.35671e-05
1.33569e-05
0.000171697
2.24962e-05
7.61771e-08
1.47938e-07
4.1922e-06
5.12532e-05
2.62389e-05
2.8924e-07
1.88191e-08
1.76542e-08
1.76555e-08
1.77496e-08
3.48545e-08
5.25299e-06
1.51885e-05
1.52234e-05
5.28627e-06
3.52106e-09
2.60143e-10
3.49306e-10
3.41424e-10
2.97428e-10
2.89438e-10
2.91875e-10
2.4414e-10
1.43173e-10
6.05722e-11
2.60791e-11
9.07771e-12
2.37261e-12
4.40908e-13
5.23818e-14
3.61102e-15
1.21194e-16
9.58901e-19
1.01802e-22
1.61647e-15
2.47489e-14
1.93972e-13
1.08636e-12
6.00333e-12
2.85355e-11
1.40707e-10
1.36452e-10
2.21389e-10
3.48258e-06
6.79285e-05
6.85232e-05
1.5566e-05
1.33055e-05
3.44897e-05
9.00274e-07
7.09232e-07
1.58311e-07
6.43256e-05
8.62243e-05
8.62199e-05
1.94958e-05
1.9047e-08
1.92115e-08
1.77196e-08
1.77913e-08
2.83581e-08
1.42245e-06
1.25365e-05
1.34528e-05
1.54601e-09
1.56978e-09
5.13322e-10
5.35345e-10
5.39093e-10
2.86981e-10
2.41599e-10
2.72619e-10
2.11647e-10
9.89505e-11
4.08604e-11
1.662e-11
5.19659e-12
1.20235e-12
1.93254e-13
1.97134e-14
1.17124e-15
3.40089e-17
2.4029e-19
2.23509e-23
1.91622e-15
2.83602e-14
2.02748e-13
1.0684e-12
5.7843e-12
2.80894e-11
1.08622e-10
5.00906e-10
2.93909e-10
3.14731e-06
6.8525e-05
6.85232e-05
9.55695e-06
6.34679e-05
0.000149286
3.50103e-05
7.12247e-07
1.26116e-05
8.61932e-05
8.62199e-05
8.62261e-05
8.286e-05
9.05849e-06
1.78452e-08
1.77836e-08
1.77835e-08
1.84548e-08
1.74194e-07
1.71595e-06
2.39483e-06
-1.32295e-09
9.10875e-10
1.44533e-09
1.72935e-09
1.04683e-09
2.71474e-10
2.12729e-10
2.35651e-10
1.80739e-10
7.00264e-11
2.81272e-11
1.06485e-11
2.97855e-12
6.07646e-13
8.51065e-14
7.56867e-15
3.946e-16
1.01974e-17
7.13213e-20
4.93987e-24
2.64076e-15
3.71069e-14
2.30739e-13
1.08671e-12
5.64117e-12
2.66712e-11
5.32623e-11
2.08266e-09
2.67028e-10
2.73748e-06
6.79374e-05
6.85232e-05
1.952e-06
0.000108524
0.000160125
0.000100234
1.82338e-06
6.89102e-05
8.59697e-05
8.61929e-05
8.62199e-05
8.59777e-05
4.46439e-05
3.71363e-08
1.8642e-08
1.84627e-08
8.4048e-08
6.72364e-07
4.82781e-07
3.40488e-08
-3.56076e-09
6.08374e-10
1.44e-09
2.10001e-09
1.89528e-09
2.08255e-10
2.02528e-10
2.14469e-10
1.4628e-10
5.05413e-11
1.94619e-11
6.75258e-12
1.68135e-12
3.03324e-13
3.73224e-14
2.9254e-15
1.35662e-16
3.18842e-18
2.30183e-20
1.0918e-24
4.11798e-15
5.39922e-14
2.95297e-13
1.16489e-12
5.62634e-12
2.46215e-11
3.04417e-11
2.44376e-09
2.12639e-10
2.44623e-06
6.71504e-05
3.90806e-05
4.71166e-07
5.55361e-05
0.000160124
0.000127602
1.35831e-05
6.86674e-05
6.70536e-05
4.17174e-05
5.28909e-05
6.03166e-05
2.91742e-05
6.9017e-08
2.34233e-08
2.04742e-08
2.83025e-07
1.28779e-06
6.86832e-07
8.48848e-09
6.18114e-10
4.81974e-10
1.32277e-09
2.10001e-09
1.81318e-09
2.02528e-10
2.00539e-10
2.04382e-10
1.13196e-10
3.64207e-11
1.32486e-11
4.16173e-12
9.2202e-13
1.47696e-13
1.60698e-14
1.11952e-15
4.67312e-17
1.01883e-18
7.63476e-21
2.39833e-25
6.79904e-15
8.27059e-14
4.12321e-13
1.36246e-12
5.70797e-12
2.41256e-11
2.66846e-11
2.42687e-09
1.58686e-10
2.68568e-07
6.64243e-05
7.96285e-06
1.90728e-07
1.23e-05
0.000160453
0.000121614
5.81173e-05
2.23691e-05
4.59821e-08
4.2475e-08
4.22537e-08
4.20604e-08
1.31328e-06
4.59494e-07
2.43558e-08
2.47778e-08
3.28643e-07
1.2966e-06
1.17553e-06
2.46126e-09
5.27354e-10
4.57673e-10
1.23432e-09
2.10001e-09
1.09252e-09
2.03905e-10
2.01346e-10
1.9479e-10
8.59889e-11
2.56119e-11
8.68212e-12
2.45414e-12
4.85802e-13
6.92983e-14
6.70612e-15
4.19077e-16
1.59742e-17
3.30838e-19
2.60081e-21
5.20448e-26
1.12647e-14
1.2723e-13
5.99074e-13
1.73942e-12
6.02533e-12
2.45752e-11
2.46813e-11
1.87841e-09
1.18633e-10
4.17074e-07
2.03275e-05
1.92573e-06
8.24192e-08
1.85194e-05
0.000160782
0.000106493
4.08856e-05
5.04701e-08
4.28144e-08
4.23195e-08
4.20604e-08
4.20053e-08
4.68336e-08
4.24281e-07
5.1266e-08
2.38486e-08
2.26347e-07
1.29463e-06
1.29631e-06
2.99573e-07
4.5853e-10
4.18032e-10
9.26262e-10
1.41667e-09
4.14169e-10
2.13232e-10
2.20651e-10
1.75825e-10
6.33941e-11
1.72914e-11
5.39326e-12
1.37044e-12
2.44064e-13
3.10814e-14
2.69506e-15
1.52957e-16
5.42707e-18
1.09838e-19
9.39333e-22
1.10897e-26
1.82167e-14
1.91392e-13
8.70761e-13
2.34521e-12
6.81308e-12
2.58382e-11
2.94243e-11
6.351e-10
9.71468e-11
4.77615e-07
4.1819e-07
2.78322e-07
4.64968e-08
6.99898e-05
0.000160621
8.53084e-05
4.34616e-06
5.58377e-08
4.68219e-08
4.52506e-08
4.8128e-08
3.35091e-08
4.13671e-08
9.1848e-08
6.02173e-08
2.30471e-08
5.81283e-08
9.20649e-07
1.25522e-06
1.14918e-06
4.13597e-10
3.95919e-10
5.57706e-10
5.44052e-10
2.64893e-10
2.39651e-10
2.4341e-10
1.4879e-10
4.41628e-11
1.10739e-11
3.15763e-12
7.22593e-13
1.16601e-13
1.33115e-14
1.04487e-15
5.46932e-17
1.84602e-18
3.74246e-20
3.55496e-22
2.30549e-27
2.84451e-14
2.78251e-13
1.23766e-12
3.22182e-12
8.23789e-12
2.83241e-11
3.65326e-11
1.63678e-10
8.70288e-11
1.415e-07
1.22085e-07
3.97648e-08
3.7925e-08
0.000152336
0.00015007
4.83501e-05
2.76589e-07
1.84971e-07
2.15423e-07
1.5527e-07
5.42398e-08
2.72871e-08
2.62071e-08
2.33593e-08
2.51566e-08
2.2827e-08
2.30286e-08
1.30791e-07
9.92467e-07
6.40364e-07
3.8139e-10
3.84985e-10
4.11627e-10
3.32402e-10
2.83393e-10
2.76655e-10
2.4107e-10
1.12677e-10
2.86597e-11
6.68673e-12
1.74981e-12
3.61526e-13
5.3111e-14
5.47115e-15
3.93428e-16
1.92842e-17
6.30339e-19
1.29317e-20
1.32664e-22
4.63513e-28
4.27615e-14
3.895e-13
1.70178e-12
4.39254e-12
1.03446e-11
3.21981e-11
4.3278e-11
1.13303e-10
8.34731e-11
1.25023e-09
3.13099e-08
2.69492e-08
3.68771e-08
0.000168157
0.00011247
2.34316e-05
1.29956e-06
2.08936e-06
1.43955e-06
1.8686e-07
4.23323e-08
3.7205e-08
2.40105e-08
2.29858e-08
2.27832e-08
2.27695e-08
2.28267e-08
4.02732e-08
8.27864e-07
7.01666e-09
3.67612e-10
3.74741e-10
3.80245e-10
3.43377e-10
3.21136e-10
3.24331e-10
2.15383e-10
7.54741e-11
1.71276e-11
3.82301e-12
9.27558e-13
1.73293e-13
2.31944e-14
2.17236e-15
1.44565e-16
6.70384e-18
2.13751e-19
4.39714e-21
4.60615e-23
8.97921e-29
6.1887e-14
5.25048e-13
2.25539e-12
5.85102e-12
1.30445e-11
3.69821e-11
5.122e-11
8.66264e-11
8.24054e-11
8.34731e-11
9.59007e-09
1.54844e-08
2.69401e-08
0.000171006
0.000173166
2.00381e-05
1.28759e-05
1.19407e-05
1.59093e-06
1.18425e-07
6.18288e-08
5.66271e-08
3.77395e-08
2.2783e-08
2.27689e-08
2.27783e-08
2.27715e-08
2.94254e-08
6.79262e-07
-4.88783e-10
3.45536e-10
3.74741e-10
3.81474e-10
3.69978e-10
3.75161e-10
3.23724e-10
1.66176e-10
4.42581e-11
9.42024e-12
2.10019e-12
4.75133e-13
8.02281e-14
9.75202e-15
8.35117e-16
5.16743e-17
2.2717e-18
7.01983e-20
1.41021e-21
1.41274e-23
1.65509e-29
8.63029e-14
6.82904e-13
2.88201e-12
7.55433e-12
1.61468e-11
4.23478e-11
6.52106e-11
7.77976e-11
8.04293e-11
1.95712e-08
1.47588e-08
1.36165e-08
0.000113482
0.000173186
0.0001731
2.97617e-05
4.74518e-05
1.24822e-05
1.5077e-07
1.39832e-07
2.18214e-07
1.63501e-07
3.87136e-08
2.29857e-08
2.27797e-08
2.27783e-08
2.69735e-06
1.46177e-06
2.5776e-08
7.16863e-11
3.53675e-10
3.73635e-10
3.9879e-10
4.33221e-10
4.29426e-10
2.95729e-10
1.05756e-10
2.2539e-11
4.87486e-12
1.12772e-12
2.35967e-13
3.59051e-14
3.94185e-15
3.09048e-16
1.77439e-17
7.34471e-19
2.15555e-20
4.04649e-22
3.47279e-24
2.31249e-30
1.16087e-13
8.59283e-13
3.55941e-12
9.42473e-12
1.9404e-11
4.87407e-11
9.39386e-11
8.05698e-11
8.24054e-11
3.77432e-08
1.27684e-08
1.28743e-08
0.00015119
0.000172408
0.000154789
7.86665e-05
4.7494e-05
6.65123e-07
1.58343e-07
1.50847e-07
4.75324e-07
3.23239e-07
2.83545e-08
2.32172e-08
2.42368e-08
1.22151e-05
4.50653e-05
3.03581e-05
1.5365e-09
3.20729e-10
3.67132e-10
3.75367e-10
4.32606e-10
4.80092e-10
4.51584e-10
2.39032e-10
5.53092e-11
1.03026e-11
2.48975e-12
5.96031e-13
1.13e-13
1.54148e-14
1.51932e-15
1.08677e-16
5.7437e-18
2.20417e-19
5.93303e-21
9.55531e-23
5.68166e-25
3.26163e-31
1.50767e-13
1.04877e-12
4.2625e-12
1.13633e-11
2.26051e-11
5.7261e-11
1.53015e-10
8.95848e-11
8.32323e-11
3.81753e-08
9.11248e-09
1.01742e-08
2.98115e-05
6.49125e-05
6.30811e-05
7.9028e-05
7.73753e-06
1.9441e-07
1.87748e-07
4.72758e-07
8.2375e-07
2.71577e-07
3.18585e-08
2.4884e-08
2.00926e-05
5.06837e-05
4.97331e-05
3.39565e-05
6.84606e-10
3.74336e-10
3.71554e-10
4.01222e-10
4.75559e-10
4.89684e-10
4.32438e-10
1.59728e-10
2.37072e-11
4.63503e-12
1.30842e-12
3.06799e-13
5.15641e-14
6.2638e-15
5.51268e-16
3.57289e-17
1.71726e-18
5.96178e-20
1.38298e-21
1.63092e-23
2.92964e-26
-1.3373e-32
1.8921e-13
1.24421e-12
4.96504e-12
1.32721e-11
2.56648e-11
6.98084e-11
2.59505e-10
1.12994e-10
1.21539e-10
3.79555e-08
6.75691e-09
7.27378e-08
4.12609e-08
1.2432e-06
4.07521e-05
5.8105e-05
3.20945e-06
2.15102e-07
2.09988e-07
9.59137e-07
9.56471e-07
2.82626e-07
8.19864e-07
3.78407e-05
5.38643e-05
5.35177e-05
5.18276e-05
7.38958e-06
4.43895e-10
3.88236e-10
3.82682e-10
4.64534e-10
5.07716e-10
4.96552e-10
3.59909e-10
8.39531e-11
8.88086e-12
2.29011e-12
7.04288e-13
1.50421e-13
2.20999e-14
2.37411e-15
1.85784e-16
1.08208e-17
4.65497e-19
1.40699e-20
2.52626e-22
1.44253e-24
1.23474e-27
-2.61281e-33
2.29586e-13
1.43651e-12
5.63847e-12
1.50728e-11
2.86212e-11
8.78153e-11
3.57101e-10
1.61853e-10
1.30201e-10
3.79417e-08
6.0523e-09
1.15115e-07
7.91606e-08
7.05946e-07
9.67112e-06
2.82734e-06
1.20423e-06
7.19223e-07
4.75588e-07
4.57575e-07
6.5697e-07
6.29676e-06
4.7746e-05
5.3836e-05
5.39713e-05
5.37277e-05
4.27487e-05
-4.20633e-08
2.12552e-10
4.1596e-10
4.11154e-10
5.17297e-10
5.12495e-10
4.79526e-10
2.25487e-10
3.31422e-11
3.61489e-12
1.26169e-12
3.72008e-13
6.87083e-14
8.77803e-15
8.29929e-16
5.7627e-17
2.99392e-18
1.13048e-19
2.8017e-21
3.37623e-23
7.78226e-26
2.4422e-28
-5.44929e-34
2.69426e-13
1.61392e-12
6.24959e-12
1.67013e-11
3.15216e-11
1.0508e-10
3.73821e-10
2.29767e-10
2.10106e-10
1.88541e-08
5.76887e-09
5.01871e-08
2.92479e-08
4.89787e-05
1.00446e-05
3.58486e-05
5.27286e-05
1.32032e-05
1.99034e-07
2.00195e-07
2.73526e-07
2.63496e-05
5.43093e-05
5.41389e-05
5.39736e-05
5.45015e-05
5.01869e-06
-2.50729e-09
3.85958e-10
4.64402e-10
4.7685e-10
5.17297e-10
5.17298e-10
3.84079e-10
1.0523e-10
1.07512e-11
1.87296e-12
7.19936e-13
1.84354e-13
2.88058e-14
3.20467e-15
2.66672e-16
1.64555e-17
7.5873e-19
2.46117e-20
4.69362e-22
2.99419e-24
1.2651e-26
5.57445e-29
-9.99577e-35
3.05565e-13
1.75974e-12
6.74697e-12
1.80911e-11
3.43194e-11
1.08111e-10
3.73787e-10
3.20423e-10
7.5293e-10
1.25872e-09
3.94792e-09
2.57965e-09
8.05633e-09
0.000115706
1.19346e-05
0.000117371
0.000116846
2.30738e-05
1.96634e-07
1.99034e-07
5.62099e-07
3.77956e-05
5.43093e-05
5.43587e-05
5.4447e-05
2.44655e-05
5.98199e-08
-6.62391e-09
3.11786e-10
4.65568e-10
5.16127e-10
5.17297e-10
4.85891e-10
2.10466e-10
3.66324e-11
3.94286e-12
1.11189e-12
3.94492e-13
8.33459e-14
1.10342e-14
1.07693e-15
7.94328e-17
4.38638e-18
1.79428e-19
4.91807e-21
7.25858e-23
3.8988e-25
3.1071e-27
1.37572e-29
-1.9772e-35
3.34026e-13
1.8507e-12
7.05277e-12
1.91356e-11
3.68461e-11
1.03881e-10
3.69449e-10
4.60797e-10
1.72691e-09
1.20796e-09
1.18154e-09
1.14879e-09
1.42915e-05
0.000116596
0.000111819
0.00011737
0.00011737
1.25876e-05
1.92067e-07
1.96483e-07
3.3794e-07
3.01235e-05
5.43587e-05
5.43993e-05
3.47508e-05
3.15727e-07
1.49779e-08
-5.09612e-10
3.11311e-10
4.32457e-10
5.13831e-10
5.14538e-10
3.25291e-10
8.67123e-11
1.15551e-11
1.94656e-12
6.64263e-13
1.98196e-13
3.41208e-14
3.89337e-15
3.38163e-16
2.24408e-17
1.12464e-18
4.12584e-20
9.74924e-22
1.26908e-23
9.18717e-26
7.97091e-28
3.83307e-30
1.799e-34
3.50195e-13
1.87511e-12
7.13096e-12
1.96552e-11
3.88513e-11
9.66138e-11
3.49502e-10
6.91045e-10
1.71874e-09
1.25118e-09
5.54758e-10
7.35429e-10
0.000111016
0.000116789
0.00011725
0.00011737
9.84196e-05
1.92067e-07
1.89032e-07
1.86268e-07
3.18368e-07
1.14009e-05
4.00442e-05
3.4313e-05
1.411e-06
7.6855e-08
3.97383e-09
1.86846e-10
3.24686e-10
4.356e-10
5.12693e-10
4.00734e-10
1.41031e-10
3.22843e-11
4.43922e-12
1.11656e-12
3.73187e-13
8.97463e-14
1.28071e-14
1.29403e-15
1.02143e-16
6.23226e-18
2.89785e-19
9.8272e-21
2.18706e-22
3.0442e-24
2.74212e-26
2.42683e-28
1.40373e-30
1.15366e-35
3.52996e-13
1.86684e-12
7.10207e-12
1.96871e-11
3.99895e-11
8.91627e-11
3.24318e-10
8.72587e-10
1.57614e-09
7.62445e-10
4.82272e-10
3.85304e-09
0.000112165
0.00010154
0.000117061
0.00011725
4.83393e-05
1.89727e-07
1.79813e-07
1.6628e-07
3.67267e-07
1.04361e-06
2.11392e-06
1.86601e-06
1.9506e-07
1.87813e-08
1.24309e-09
3.00826e-10
3.21473e-10
4.44835e-10
4.51061e-10
1.92527e-10
5.22647e-11
1.23427e-11
2.18201e-12
6.49474e-13
1.9158e-13
3.69903e-14
4.54036e-15
4.19329e-16
3.08342e-17
1.77481e-18
7.89023e-20
2.60199e-21
6.09402e-23
1.0413e-24
1.22855e-26
1.09762e-28
7.7927e-31
7.54267e-36
3.50649e-13
1.83458e-12
6.98673e-12
1.95396e-11
4.01554e-11
8.64822e-11
3.08653e-10
8.58131e-10
1.1143e-09
4.66135e-10
4.58332e-10
2.95057e-07
8.32398e-05
1.31418e-05
0.00010544
0.000116595
2.43732e-05
1.93799e-07
4.28054e-07
6.82929e-08
9.72359e-08
1.97485e-07
2.22589e-07
2.13113e-07
4.06141e-08
4.73191e-09
5.35624e-10
2.80373e-10
2.94476e-10
4.12839e-10
2.74319e-10
6.8402e-11
2.18064e-11
5.2825e-12
1.20561e-12
3.61822e-13
8.97061e-14
1.43326e-14
1.58341e-15
1.37771e-16
9.66728e-18
5.39062e-19
2.37479e-20
8.09207e-22
2.13286e-23
4.54178e-25
7.49233e-27
8.8554e-29
8.04919e-31
6.32362e-36
3.42512e-13
1.76298e-12
6.72276e-12
1.90706e-11
3.99479e-11
8.69434e-11
2.99387e-10
7.24084e-10
5.20934e-10
4.35772e-10
4.54484e-10
2.04368e-06
5.84102e-06
3.5417e-06
9.44822e-05
0.000114273
7.74831e-06
7.53106e-06
4.43666e-06
1.5135e-09
2.78337e-08
3.88658e-08
4.83271e-08
4.76361e-08
9.87345e-09
1.32536e-09
3.15867e-10
2.5191e-10
2.73202e-10
3.15056e-10
1.1207e-10
2.84142e-11
1.03138e-11
2.60462e-12
6.85044e-13
1.90093e-13
3.93035e-14
5.46231e-15
5.66109e-16
4.7506e-17
3.24643e-18
1.79791e-19
8.13515e-21
3.01981e-22
9.31736e-24
2.43956e-25
5.37805e-27
9.31505e-29
1.06719e-30
5.44196e-36
3.25629e-13
1.64163e-12
6.27012e-12
1.81093e-11
3.92424e-11
8.77227e-11
2.88317e-10
4.89736e-10
3.31693e-10
3.74014e-10
4.60364e-10
2.13584e-06
8.14898e-07
2.39122e-06
0.000126091
6.47192e-05
1.62779e-05
5.61064e-05
5.84906e-06
1.00905e-09
1.5135e-09
6.95451e-09
1.06398e-08
1.08716e-08
2.48961e-09
4.79279e-10
2.32005e-10
2.18115e-10
2.4569e-10
1.77043e-10
4.34327e-11
1.4621e-11
5.353e-12
1.42656e-12
3.86578e-13
9.51072e-14
1.68389e-14
2.14202e-15
2.14393e-16
1.76206e-17
1.19185e-18
6.69683e-20
3.20076e-21
1.33115e-22
4.87796e-24
1.56147e-25
4.22708e-27
8.71973e-29
1.07968e-30
4.64042e-36
2.99462e-13
1.48221e-12
5.66709e-12
1.66626e-11
3.77827e-11
8.75611e-11
2.67344e-10
2.41119e-10
2.50311e-10
1.59623e-08
4.97344e-09
3.47118e-07
3.46188e-07
2.87404e-05
0.000128037
5.78352e-05
2.29059e-05
5.84789e-05
4.1011e-05
9.44783e-10
1.00959e-09
1.49512e-09
2.33139e-09
2.61142e-09
7.60645e-10
2.76989e-10
2.07783e-10
1.99246e-10
1.91226e-10
8.20542e-11
2.08117e-11
8.50854e-12
3.0257e-12
8.26901e-13
2.15454e-13
4.66977e-14
7.39289e-15
8.94382e-16
8.78369e-17
7.13907e-18
4.84121e-19
2.80469e-20
1.43778e-21
6.70366e-23
2.84975e-24
1.07247e-25
3.38699e-27
7.79305e-29
1.00923e-30
6.81555e-36
2.66739e-13
1.29879e-12
4.96776e-12
1.48658e-11
3.55221e-11
8.62417e-11
2.29917e-10
1.14961e-10
2.32053e-10
6.69486e-08
7.1672e-08
3.44886e-08
1.04155e-07
0.000123031
0.000128037
0.000127793
0.000101088
4.54452e-05
1.9221e-05
9.43976e-10
9.44783e-10
1.05573e-09
7.14895e-10
6.76693e-10
3.49237e-10
2.08812e-10
1.88039e-10
1.78521e-10
1.21667e-10
3.90436e-11
1.24085e-11
5.37883e-12
1.8337e-12
4.94305e-13
1.20126e-13
2.33848e-14
3.44894e-15
4.05876e-16
3.9407e-17
3.18945e-18
2.19034e-19
1.32148e-20
7.28892e-22
3.75492e-23
1.7826e-24
7.47486e-26
2.59623e-27
6.38148e-29
8.56849e-31
1.0175e-35
2.30426e-13
1.10673e-12
4.23368e-12
1.28915e-11
3.25796e-11
8.25008e-11
1.85831e-10
9.99061e-11
1.6598e-09
5.99431e-08
5.02938e-08
1.35507e-08
4.16072e-05
0.00012773
0.000124351
0.000127683
0.000126928
1.04598e-05
1.2082e-05
9.44783e-10
1.12073e-09
2.93456e-09
3.87138e-10
3.16737e-10
2.25564e-10
1.88703e-10
1.73299e-10
1.40626e-10