/*--------------------------------*- C++ -*----------------------------------*\
  =========                 |
  \\      /  F ield         | OpenFOAM: The Open Source CFD Toolbox
   \\    /   O peration     | Website:  https://openfoam.org
    \\  /    A nd           | Version:  9
     \\/     M anipulation  |
\*---------------------------------------------------------------------------*/
FoamFile
{
    format      ascii;
    class       volScalarField;
    location    "0.19";
    object      p;
}
// * * * * * * * * * * * * * * * * * * * * * * * * * * * * * * * * * * * * * //

dimensions      [1 -1 -2 0 0 0 0];

internalField   nonuniform List<scalar> 
5000
(
2.79886
2.7022
2.57882
2.41649
2.20634
1.94147
1.61236
1.20424
0.692629
-0.0237281
-1.06896
-1.48405
0.321391
17.5693
20.8679
18.466
16.7856
16.4028
17.3944
19.4979
21.7703
23.4498
24.2773
24.1509
23.4117
22.7676
22.6972
23.3564
24.2682
25.3745
3.76662
0.470053
0.63409
0.80045
1.04102
1.33148
1.63404
1.91607
2.16638
2.38666
2.58198
2.75718
2.91581
3.06033
3.19251
3.31375
3.42529
3.52817
3.62351
3.71072
2.78364
2.68927
2.57044
2.41641
2.22035
1.97829
1.68548
1.33207
0.904504
0.336778
-0.467203
-0.741842
-1.67491
12.1364
17.4356
15.2213
13.6291
13.494
14.8192
17.3235
19.9964
21.9993
22.9807
22.7717
21.8053
20.9462
20.785
21.4389
22.8418
19.9467
1.40223
0.93856
1.05211
1.18998
1.37079
1.6004
1.84684
2.08452
2.3017
2.49648
2.67136
2.82972
2.97427
3.10689
3.22891
3.34138
3.44525
3.54134
3.63051
3.71248
2.77451
2.68374
2.57123
2.42789
2.24897
2.03347
1.78215
1.49039
1.15608
0.782467
0.215721
0.128032
-0.216866
5.50653
13.6909
11.8631
10.2667
10.578
12.4906
15.6138
18.7695
21.0594
22.076
21.6511
20.4081
19.3598
19.1089
19.6243
21.3697
8.04667
1.68634
1.59078
1.70631
1.57762
1.70935
1.87815
2.06901
2.26239
2.44559
2.61387
2.76746
2.90828
3.03813
3.15825
3.26954
3.3727
3.46838
3.55714
3.63954
3.71518
2.77096
2.68473
2.57974
2.44861
2.28857
2.1012
1.89278
1.66602
1.41827
1.23266
0.970734
0.918163
1.30447
-0.886999
8.83048
8.53636
7.18412
8.26995
11.0437
14.9656
18.6273
21.1303
22.0738
21.3864
19.9802
19.0082
18.6968
19.1598
15.1687
1.24868
2.19436
2.10789
2.11958
1.99071
2.03933
2.1421
2.28255
2.43452
2.58593
2.72921
2.86259
2.98667
3.10241
3.21048
3.31139
3.4055
3.49318
3.57476
3.65038
3.71867
2.77232
2.69128
2.59447
2.47615
2.33546
2.17582
2.00718
1.84244
1.66369
1.60214
1.56255
1.50026
2.10859
1.22645
2.74421
6.83188
4.59564
7.43756
11.4713
16.1912
20.1576
22.6473
23.376
22.53
21.2515
20.5516
20.5625
20.8834
5.02983
2.50974
2.45021
2.34688
2.30159
2.26796
2.28477
2.35317
2.45763
2.58136
2.70894
2.83222
2.9487
3.05848
3.16195
3.2595
3.35144
3.43805
3.51971
3.59717
3.67155
3.7363
2.7777
2.70222
2.61384
2.50821
2.38617
2.25243
2.11714
2.00047
1.88303
1.87991
1.96165
1.93357
2.37902
2.47743
4.22868
6.74208
3.32141
8.82296
14.7113
19.9673
23.6669
25.5893
25.9234
24.9969
24.0741
23.7117
23.6632
15.3041
2.2674
2.63569
2.58225
2.4962
2.42619
2.40326
2.42751
2.49147
2.58544
2.6949
2.80741
2.91655
3.02048
3.11898
3.21229
3.3007
3.38441
3.4636
3.53839
3.60904
3.67802
3.74675
2.78628
2.71645
2.6364
2.54282
2.43783
2.32732
2.21968
2.13991
2.07001
2.09093
2.21795
2.24356
2.46156
2.5763
1.8751
4.05248
2.64407
11.9635
20.7292
26.1803
28.6907
29.5718
29.3472
28.3372
27.8929
27.649
22.453
5.42534
2.49656
2.62887
2.55337
2.56013
2.45868
2.47067
2.51339
2.58489
2.67748
2.78003
2.88333
2.9829
3.0775
3.1671
3.252
3.3324
3.40844
3.48022
3.54773
3.61055
3.66967
3.72741
2.79739
2.73306
2.6609
2.5784
2.48838
2.39792
2.31333
2.26074
2.22662
2.25631
2.38988
2.45748
2.55937
2.71833
2.79396
2.98368
2.61751
14.9138
28.1386
34.0431
34.3411
33.3884
32.518
32.0901
32.4258
22.9074
6.2474
2.36154
2.53482
2.53735
2.60214
2.56723
2.55695
2.55658
2.59894
2.6675
2.75435
2.84924
2.94432
3.03585
3.12278
3.20511
3.28312
3.35703
3.42697
3.49309
3.55549
3.6138
3.66742
3.71609
2.81038
2.75125
2.68631
2.61365
2.53642
2.46261
2.39687
2.36366
2.35513
2.38948
2.51884
2.60916
2.66586
2.78935
2.87049
2.92564
3.15799
9.67008
32.3114
43.835
40.2998
34.6172
31.3332
21.6462
9.08511
3.40471
2.44594
2.50137
2.55536
2.57558
2.69363
2.64901
2.65073
2.65615
2.68809
2.7462
2.82297
2.9084
2.99493
3.07887
3.15896
3.23505
3.30729
3.37582
3.44075
3.5022
3.56021
3.61443
3.66377
3.70672
2.82467
2.77029
2.71176
2.64761
2.58099
2.52046
2.46944
2.44964
2.4584
2.49984
2.62502
2.71182
2.74647
2.8186
2.85787
2.9125
2.97023
2.85579
12.1067
28.6836
26.6319
15.3587
6.35449
3.00798
2.75843
2.82048
2.60916
2.61278
2.62024
2.62167
2.76352
2.72202
2.72011
2.72423
2.75248
2.80535
2.87569
2.95426
3.03415
3.11199
3.18653
3.25754
3.32504
3.38914
3.4499
3.50742
3.56161
3.612
3.65736
3.69632
2.83981
2.78964
2.73662
2.67958
2.62145
2.57107
2.53081
2.52035
2.54043
2.59213
2.71236
2.7987
2.8059
2.84283
2.86878
2.8955
2.90808
2.8585
2.74777
2.99056
2.76426
2.7722
2.74746
2.69888
2.71968
2.7246
2.66618
2.65289
2.65332
2.65058
2.79351
2.75122
2.72384
2.74107
2.77837
2.83572
2.90683
2.98349
3.06023
3.13447
3.20532
3.27267
3.33662
3.39727
3.45473
3.50904
3.55999
3.60696
3.64881
3.68474
2.85543
2.80889
2.76045
2.70914
2.65746
2.61451
2.58118
2.57678
2.60323
2.66084
2.77923
2.85476
2.86465
2.86015
2.873
2.88319
2.89
2.85196
2.79998
2.80348
2.76418
2.7436
2.73576
2.70698
2.70683
2.70117
2.67736
2.66711
2.66913
2.67417
2.70871
2.77697
2.69959
2.73368
2.78248
2.84748
2.92201
2.99942
3.07527
3.14774
3.21638
3.28132
3.34276
3.40088
3.45583
3.50757
3.55577
3.59976
3.63863
3.67217
2.87127
2.82777
2.78298
2.73603
2.68883
2.64985
2.62205
2.61898
2.647
2.70598
2.819
2.89003
2.8874
2.8634
2.8628
2.86596
2.86998
2.84392
2.79819
2.788
2.76148
2.7401
2.71946
2.70378
2.69372
2.68318
2.66916
2.66313
2.6675
2.67945
2.69294
2.81356
2.6998
2.73374
2.78679
2.85517
2.93109
3.00867
3.08377
3.15494
3.22199
3.28515
3.34472
3.40093
3.4539
3.50349
3.54926
3.5906
3.62697
3.65855
2.88715
2.84611
2.8041
2.76024
2.71597
2.67889
2.65246
2.6471
2.67222
2.72724
2.83347
2.90324
2.87931
2.84958
2.84014
2.83915
2.8412
2.82366
2.79361
2.77899
2.7555
2.7352
2.71536
2.69679
2.68087
2.66576
2.65156
2.64352
2.64495
2.65557
2.66911
2.83085
2.69516
2.7332
2.79017
2.86045
2.93727
3.01441
3.08851
3.15841
3.22404
3.28569
3.34368
3.39827
3.4495
3.49711
3.54057
3.57952
3.61382
3.64381
2.90297
2.86386
2.82388
2.78197
2.73919
2.70185
2.67366
2.6626
2.68009
2.71929
2.81304
2.86057
2.83731
2.81815
2.8079
2.80368
2.80777
2.79966
2.78299
2.76929
2.74975
2.7305
2.71005
2.68898
2.66805
2.64708
2.6271
2.61184
2.60546
2.61047
2.6277
2.78241
2.67688
2.72026
2.78423
2.8593
2.93851
3.01625
3.08998
3.159
3.2235
3.28387
3.34049
3.3936
3.44314
3.48874
3.52993
3.56672
3.5993
3.62775
2.91873
2.88104
2.84245
2.80158
2.75884
2.71934
2.68705
2.66734
2.67124
2.69003
2.75771
2.79873
2.7805
2.76638
2.76224
2.78094
2.77045
2.77317
2.76794
2.75898
2.74372
2.72614
2.70547
2.68205
2.65617
2.62794
2.59885
2.57291
2.55596
2.55281
2.56487
2.61298
2.63533
2.69374
2.76999
2.85262
2.93588
3.01528
3.08927
3.15781
3.22142
3.28063
3.33591
3.38743
3.43509
3.47844
3.51724
3.5519
3.58291
3.61009
2.93447
2.89774
2.86005
2.81948
2.77563
2.73256
2.69412
2.66344
2.65005
2.64302
2.7042
2.71977
2.7154
2.69685
2.72632
2.71429
2.73126
2.745
2.75058
2.74863
2.73839
2.72339
2.70322
2.678
2.64751
2.61162
2.5722
2.53473
2.50843
2.50146
2.51452
2.54558
2.60775
2.67201
2.75871
2.8482
2.93485
3.01542
3.08934
3.15713
3.21959
3.27742
3.33105
3.38064
3.42599
3.46683
3.50318
3.53572
3.56516
3.59142
2.95029
2.91417
2.877
2.83612
2.79042
2.74286
2.69679
2.65378
2.62247
2.5889
2.62203
2.63299
2.62756
2.61823
2.66062
2.66134
2.6908
2.71623
2.73273
2.73935
2.73524
2.72395
2.70545
2.67958
2.64562
2.60296
2.55391
2.50572
2.47099
2.46284
2.47899
2.52571
2.59095
2.66806
2.7604
2.85333
2.94081
3.02077
3.09337
3.15951
3.22014
3.27601
3.32748
3.37461
3.41726
3.45539
3.48937
3.51987
3.5477
3.57358
2.96638
2.93062
2.89365
2.85207
2.80412
2.75157
2.69703
2.64064
2.58762
2.53197
2.53106
2.53157
2.53089
2.5375
2.58375
2.61001
2.65002
2.68774
2.71596
2.73251
2.7359
2.72979
2.7146
2.68996
2.65468
2.60759
2.55145
2.49208
2.45418
2.44526
2.46545
2.52766
2.59824
2.68252
2.77787
2.8708
2.95627
3.03354
3.10329
3.16664
3.22458
3.27776
3.32645
3.37064
3.41029
3.44568
3.4774
3.50609
3.53245
3.55786
2.98289
2.94736
2.91036
2.86795
2.81762
2.76003
2.69689
2.62718
2.55334
2.47197
2.43784
2.41902
2.42877
2.44199
2.5067
2.5536
2.6088
2.66054
2.7016
2.72943
2.74183
2.74265
2.73292
2.71211
2.67873
2.63047
2.56929
2.50836
2.46853
2.46138
2.48871
2.54689
2.62497
2.71713
2.81148
2.90086
2.9817
3.05431
3.11972
3.17913
3.23344
3.28315
3.3284
3.36918
3.40562
3.43821
3.46767
3.49459
3.51947
3.54356
2.99997
2.9646
2.92752
2.88436
2.83182
2.76955
2.69843
2.61628
2.52353
2.4164
2.33253
2.3094
2.30574
2.35547
2.43505
2.5143
2.56982
2.63644
2.69095
2.73114
2.75408
2.76377
2.76197
2.74808
2.72095
2.67604
2.61728
2.55919
2.52301
2.52054
2.55168
2.61142
2.68937
2.77683
2.8633
2.94422
3.01722
3.08296
3.14244
3.19669
3.24635
3.2917
3.33279
3.36967
3.40262
3.43221
3.45916
3.484
3.50713
3.52938
3.01779
2.98257
2.9455
2.90182
2.84755
2.78137
2.70347
2.61056
2.50202
2.37098
2.26297
2.2068
2.21196
2.28227
2.37158
2.45255
2.53745
2.61732
2.68501
2.73824
2.77306
2.79361
2.80246
2.79936
2.78185
2.74664
2.69707
2.64792
2.61978
2.62182
2.6534
2.70954
2.77936
2.85529
2.92934
2.99832
3.06103
3.11811
3.1703
3.21825
3.26231
3.30252
3.33887
3.37148
3.40075
3.42726
3.45156
3.47406
3.49512
3.51551
3.03651
3.00151
2.96462
2.92078
2.86548
2.7965
2.71345
2.61208
2.49047
2.33978
2.20386
2.1358
2.14303
2.21841
2.32487
2.41273
2.51183
2.60408
2.6843
2.75061
2.79854
2.83163
2.85354
2.86398
2.86055
2.84018
2.80539
2.76991
2.75111
2.75635
2.78371
2.82914
2.88478
2.94454
3.00316
3.05842
3.10964
3.15713
3.20124
3.24222
3.28009
3.31475
3.34616
3.37451
3.40018
3.4237
3.44542
3.46552
3.48435
3.50306
3.05624
3.02159
2.98514
2.9416
2.88613
2.81573
2.72954
2.62273
2.49201
2.32887
2.18414
2.10171
2.10943
2.16921
2.29585
2.38142
2.49381
2.59748
2.68872
2.76778
2.82928
2.87617
2.9127
2.93886
2.95248
2.9504
2.93366
2.9132
2.90321
2.90808
2.92582
2.95632
2.9944
3.03616
3.07842
3.11967
3.15926
3.19705
3.23295
3.26681
3.29842
3.32759
3.35427
3.37864
3.40102
3.42178
3.44111
3.45893
3.47561
3.49288
3.07708
3.04298
3.00725
2.96452
2.90982
2.83956
2.75256
2.6441
2.50995
2.34479
2.18732
2.09197
2.09714
2.16166
2.27268
2.36756
2.48794
2.59861
2.69784
2.79209
2.86544
2.92478
2.97618
3.01885
3.05062
3.0678
3.06953
3.06258
3.05988
3.05981
3.06455
3.07835
3.09811
3.12235
3.14925
3.17754
3.20633
3.23504
3.26318
3.29032
3.31609
3.34025
3.36273
3.38361
3.40309
3.4214
3.43859
3.45438
3.46915
3.48521
3.09907
3.06574
3.03103
2.98968
2.93668
2.86815
2.78273
2.6764
2.54455
2.3837
2.22221
2.12723
2.11194
2.16755
2.2882
2.37304
2.49701
2.60742
2.7165
2.82153
2.90748
2.97461
3.03864
3.09725
3.14616
3.18114
3.19922
3.20324
3.20232
3.19602
3.18682
3.18446
3.18782
3.197
3.21091
3.22824
3.2478
3.26865
3.29003
3.31133
3.33209
3.35202
3.37098
3.38895
3.40598
3.4222
3.43755
3.45162
3.46479
3.47981
3.12223
3.0899
3.05651
3.01705
2.96663
2.90131
2.81969
2.71863
2.59359
2.44256
2.28712
2.18506
2.16058
2.19763
2.3043
2.39338
2.51342
2.62074
2.73763
2.84549
2.94074
3.02402
3.09407
3.16599
3.22959
3.27908
3.30964
3.32064
3.31601
3.30173
3.28332
3.26764
3.25824
3.25601
3.26011
3.26906
3.28144
3.29609
3.3121
3.32877
3.34559
3.3622
3.3784
3.39405
3.4091
3.42359
3.43744
3.45012
3.46202
3.47613
3.1465
3.11541
3.08363
3.04654
2.99944
2.93862
2.86268
2.76953
2.6548
2.51787
2.37846
2.27413
2.25058
2.27823
2.36573
2.43622
2.54159
2.64179
2.75776
2.86557
2.96706
3.06191
3.13962
3.21784
3.29189
3.3515
3.39005
3.40464
3.39762
3.37616
3.34904
3.3243
3.30667
3.29723
3.29502
3.29843
3.30593
3.31627
3.32852
3.34193
3.35594
3.37018
3.38435
3.39825
3.41178
3.42493
3.43759
3.44923
3.46019
3.47351
3.1718
3.14217
3.11227
3.07792
3.03477
2.97947
2.9108
2.82773
2.72633
2.60774
2.49126
2.39017
2.36355
2.37294
2.4381
2.49583
2.57237
2.66904
2.77105
2.8762
2.97567
3.07066
3.15921
3.24439
3.32516
3.39032
3.43266
3.44848
3.43891
3.41335
3.3819
3.35339
3.33252
3.32014
3.31514
3.31587
3.32083
3.32883
3.33894
3.35043
3.36273
3.37545
3.38826
3.40096
3.4134
3.42559
3.4374
3.44831
3.45864
3.47128
3.19801
3.17004
3.14225
3.11093
3.07217
3.02316
2.96297
2.89158
2.80609
2.70956
2.61532
2.52705
2.49345
2.49533
2.5237
2.56203
2.61796
2.69502
2.78406
2.87708
2.96833
3.05711
3.14886
3.2403
3.32291
3.38972
3.43275
3.44856
3.43875
3.41325
3.38294
3.35616
3.33691
3.32563
3.32114
3.32189
3.32654
3.33402
3.34348
3.35424
3.36578
3.37772
3.38978
3.40176
3.41353
3.42511
3.43637
3.44685
3.4568
3.46888
3.22496
3.19885
3.17332
3.14522
3.11115
3.06891
3.01793
2.95907
2.89071
2.81587
2.73669
2.67199
2.63339
2.61728
2.62609
2.63318
2.6685
2.72574
2.79028
2.86278
2.93982
3.01999
3.1076
3.19725
3.27919
3.34581
3.38867
3.40542
3.3988
3.37864
3.35527
3.33551
3.32231
3.31574
3.31467
3.31782
3.3241
3.33262
3.34266
3.35366
3.3652
3.37697
3.38878
3.40046
3.41193
3.4232
3.43418
3.44446
3.45426
3.4659
3.25247
3.22836
3.20523
3.18044
3.15118
3.11589
3.07443
3.02824
2.97697
2.92322
2.8665
2.81776
2.77956
2.74576
2.7399
2.71834
2.72932
2.75524
2.78927
2.8321
2.88579
2.94959
3.02634
3.11009
3.18988
3.25766
3.30155
3.32206
3.32353
3.31466
3.30368
3.29564
3.29227
3.29338
3.29813
3.30561
3.31504
3.32578
3.33732
3.34927
3.36137
3.37344
3.38538
3.3971
3.40856
3.41977
3.43067
3.44094
3.45075
3.46203
3.28034
3.25834
3.23766
3.2162
3.19174
3.16332
3.1313
3.09755
3.06273
3.0291
2.9951
2.96234
2.92993
2.89557
2.85516
2.81618
2.79794
2.78583
2.78041
2.78365
2.8045
2.84432
2.90455
2.97952
3.0573
3.12687
3.17563
3.20482
3.21978
3.22775
3.23427
3.24179
3.25114
3.26217
3.27449
3.28764
3.30124
3.31496
3.32856
3.34191
3.35493
3.36762
3.37997
3.39196
3.40359
3.4149
3.42587
3.43623
3.44615
3.45712
3.30836
3.28852
3.27032
3.25213
3.23233
3.2105
3.18753
3.16564
3.14628
3.13158
3.11907
3.10277
3.07796
3.04559
2.97799
2.92208
2.87091
2.81641
2.76399
2.71759
2.69637
2.7054
2.74489
2.80992
2.88724
2.96093
3.01941
3.06268
3.09667
3.12651
3.15433
3.18003
3.20392
3.2262
3.24705
3.26656
3.28479
3.30179
3.31768
3.33261
3.34675
3.36021
3.3731
3.38548
3.39737
3.40884
3.41991
3.43041
3.44043
3.4511
3.33632
3.31866
3.3029
3.28786
3.27246
3.25679
3.24225
3.23134
3.22608
3.22854
3.23556
3.23624
3.22318
3.18505
3.11896
3.03133
2.94466
2.84776
2.74033
2.63643
2.56537
2.53835
2.55472
2.61037
2.68966
2.77188
2.84511
2.90757
2.96513
3.02064
3.07182
3.11688
3.15592
3.18975
3.21925
3.24509
3.26785
3.28802
3.30612
3.32259
3.33781
3.35204
3.36548
3.37822
3.39035
3.40196
3.41308
3.42364
3.43372
3.44401
3.36403
3.34852
3.33513
3.32307
3.31172
3.30166
3.29472
3.29364
3.30085
3.31845
3.34247
3.35958
3.36258
3.33054
3.25838
3.14533
3.0262
2.87605
2.71305
2.5459
2.42028
2.3545
2.34759
2.39566
2.47985
2.57458
2.666
2.75212
2.83727
2.92021
2.9951
3.05902
3.11244
3.15703
3.19441
3.22588
3.25254
3.27539
3.29533
3.31309
3.3292
3.34404
3.35787
3.37085
3.38309
3.39468
3.40572
3.41621
3.4262
3.436
3.39132
3.37788
3.36675
3.35744
3.34974
3.34464
3.34433
3.35176
3.36962
3.4002
3.43874
3.47137
3.50892
3.46942
3.39002
3.25581
3.09982
2.90688
2.68742
2.45551
2.27506
2.17085
2.14267
2.18567
2.27656
2.38675
2.5061
2.6169
2.72594
2.83554
2.93228
3.01271
3.07839
3.13188
3.17554
3.21129
3.24081
3.26555
3.28675
3.30534
3.32199
3.33714
3.3511
3.36406
3.37617
3.38754
3.39828
3.40848
3.41816
3.42731
3.41804
3.40654
3.39752
3.39071
3.38623
3.38537
3.39062
3.40512
3.43166
3.47285
3.52381
3.57078
3.59094
3.57505
3.49509
3.36202
3.17349
2.94582
2.67093
2.37837
2.14804
2.00835
1.96241
2.00214
2.09913
2.22656
2.36564
2.5043
2.64416
2.77639
2.89043
2.9833
3.05782
3.1174
3.16505
3.2033
3.23432
3.25995
3.28165
3.30049
3.31719
3.33223
3.34593
3.35854
3.3702
3.38106
3.39123
3.40087
3.40997
3.41828
3.44406
3.43436
3.42727
3.42267
3.42093
3.42359
3.43329
3.45327
3.4864
3.53545
3.59588
3.65423
3.68335
3.67764
3.59969
3.45733
3.25923
2.99529
2.67223
2.32981
2.05976
1.88867
1.82917
1.86465
1.9679
2.10984
2.27003
2.43589
2.60124
2.74982
2.87463
2.9745
3.05349
3.11567
3.16462
3.20332
3.23433
3.25973
3.28108
3.29948
3.31565
3.33007
3.34308
3.35493
3.36579
3.37579
3.38508
3.39385
3.40208
3.40935
3.4693
3.46121
3.45583
3.45314
3.45368
3.4591
3.47211
3.49596
3.53349
3.58738
3.65344
3.71863
3.75555
3.75816
3.69275
3.56682
3.34895
3.05541
2.69831
2.32328
2.02317
1.83699
1.76559
1.79687
1.9062
2.0623
2.24019
2.42581
2.60417
2.7599
2.88744
2.98803
3.06658
3.12762
3.17503
3.21212
3.24162
3.26567
3.28579
3.30301
3.31803
3.33129
3.34313
3.35379
3.36345
3.37225
3.38033
3.3879
3.39496
3.40101
3.49371
3.48701
3.4831
3.48203
3.48437
3.49183
3.50703
3.53315
3.57291
3.6288
3.69715
3.76577
3.81102
3.81711
3.77758
3.64989
3.43522
3.12839
2.755
2.36839
2.06144
1.86841
1.79104
1.82141
1.93486
2.09823
2.28542
2.47736
2.65511
2.80668
2.92838
3.0233
3.09662
3.15294
3.19624
3.22987
3.2565
3.27815
3.29618
3.31151
3.32476
3.33632
3.34651
3.35556
3.36365
3.37091
3.37747
3.38354
3.38912
3.39381
3.51727
3.51173
3.50904
3.50927
3.51296
3.52176
3.53813
3.56503
3.60501
3.66037
3.72843
3.79836
3.85474
3.88387
3.84604
3.74048
3.53518
3.21522
2.85027
2.47693
2.18114
1.99536
1.91915
1.94927
2.0603
2.21986
2.40269
2.58473
2.74892
2.8857
2.99393
3.07761
3.14162
3.19029
3.22741
3.2561
3.27876
3.29711
3.31231
3.32511
3.33601
3.34538
3.35349
3.36055
3.36672
3.37214
3.37691
3.38121
3.38506
3.38828
3.53998
3.53536
3.53364
3.53485
3.53948
3.54898
3.56556
3.59189
3.63029
3.68278
3.74795
3.81628
3.88035
3.92094
3.90067
3.80858
3.61769
3.31979
2.98376
2.64515
2.38011
2.21358
2.14762
2.17401
2.2719
2.41617
2.57791
2.73581
2.87507
2.98896
3.0782
3.14666
3.19851
3.23757
3.26715
3.28989
3.30777
3.32214
3.33389
3.34361
3.3517
3.35847
3.36413
3.36888
3.37287
3.3762
3.37897
3.38127
3.38321
3.38489
3.5619
3.55794
3.55693
3.55884
3.564
3.57362
3.58959
3.61415
3.64932
3.6968
3.75629
3.81997
3.89635
3.9411
3.94019
3.86608
3.69814
3.44
3.14812
2.86165
2.6419
2.50423
2.44918
2.4674
2.54484
2.66091
2.78984
2.91354
3.02054
3.10704
3.17433
3.22549
3.2638
3.29233
3.3137
3.32995
3.34255
3.35247
3.36035
3.36659
3.37153
3.37539
3.37835
3.38055
3.38214
3.38322
3.38384
3.38401
3.38389
3.384
3.58306
3.57955
3.57898
3.5813
3.58664
3.5959
3.61054
3.63232
3.66287
3.70358
3.75503
3.81221
3.89637
3.9451
3.96115
3.91304
3.77654
3.56712
3.33169
3.10964
2.94343
2.83703
2.78792
2.7959
2.84815
2.92719
3.01596
3.10038
3.17274
3.23088
3.27575
3.30938
3.33409
3.35208
3.36519
3.37483
3.38194
3.38715
3.39088
3.39341
3.39497
3.39573
3.39582
3.39535
3.39443
3.39317
3.39157
3.38954
3.38731
3.38585
3.60354
3.60026
3.5999
3.60236
3.60758
3.61606
3.6288
3.647
3.67183
3.70455
3.74667
3.79901
3.86857
3.93637
3.96235
3.94756
3.84582
3.69324
3.52189
3.36971
3.25845
3.18184
3.13768
3.12923
3.15024
3.18973
3.23666
3.28223
3.32162
3.35318
3.37711
3.39442
3.40646
3.41455
3.41978
3.42295
3.42459
3.42504
3.42454
3.42328
3.42138
3.41897
3.41613
3.41295
3.4095
3.40587
3.40204
3.39782
3.39349
3.3905
3.6234
3.62019
3.61982
3.62219
3.627
3.63438
3.64479
3.65882
3.67711
3.70078
3.73215
3.77599
3.83322
3.90596
3.94648
3.96429
3.90875
3.81093
3.7073
3.62402
3.56316
3.5117
3.46859
3.44081
3.42913
3.43016
3.43865
3.44982
3.46045
3.46891
3.47464
3.47771
3.47859
3.47778
3.47575
3.47282
3.46918
3.46499
3.46034
3.45532
3.45001
3.44447
3.43876
3.4329
3.42696
3.42102
3.41502
3.40868
3.40232
3.39785
3.64269
3.63944
3.63891
3.64097
3.64515
3.65119
3.65897
3.66845
3.67961
3.69315
3.71185
3.74216
3.78872
3.85534
3.92254
3.95965
3.95757
3.91737
3.87881
3.85923
3.84011
3.80712
3.76118
3.71355
3.67173
3.63915
3.61546
3.59851
3.58564
3.57525
3.56602
3.55725
3.54864
3.5401
3.53157
3.52303
3.51447
3.50587
3.49726
3.48865
3.48007
3.47154
3.46306
3.45465
3.44633
3.43819
3.43014
3.4218
3.41353
3.40765
3.66144
3.65811
3.6573
3.6589
3.66228
3.66682
3.67183
3.67659
3.68036
3.68323
3.68824
3.70269
3.73869
3.79641
3.88259
3.95173
3.98669
4.01374
4.03607
4.06607
4.07915
4.05815
4.00677
3.94086
3.87392
3.81451
3.76564
3.72669
3.69598
3.67102
3.65004
3.63177
3.61534
3.60019
3.58595
3.57236
3.55929
3.54664
3.53436
3.52241
3.51078
3.49945
3.4884
3.47761
3.46708
3.4569
3.44694
3.43676
3.42674
3.41953
3.67966
3.67631
3.67519
3.6762
3.67867
3.68163
3.68387
3.68398
3.68053
3.67297
3.66441
3.66334
3.68892
3.74488
3.834
3.92563
4.00683
4.07771
4.15625
4.2378
4.2764
4.26279
4.20532
4.12414
4.03772
3.95828
3.89095
3.83615
3.79207
3.75619
3.72626
3.70053
3.67773
3.65702
3.63782
3.61979
3.60269
3.58639
3.57078
3.55581
3.5414
3.52753
3.51413
3.50117
3.48864
3.47659
3.46491
3.45308
3.4415
3.43305
3.69733
3.69408
3.69271
3.69312
3.6946
3.696
3.6956
3.69137
3.68123
3.66404
3.64268
3.62641
3.64054
3.6915
3.78376
3.89459
4.01701
4.13023
4.25257
4.37443
4.43302
4.42415
4.36144
4.26862
4.16809
4.07451
3.99431
3.92841
3.87494
3.8312
3.7946
3.76308
3.73515
3.70979
3.68637
3.66448
3.64386
3.62434
3.6058
3.58813
3.57126
3.55512
3.53964
3.52475
3.51043
3.49672
3.48351
3.47026
3.45731
3.4477
3.71442
3.71151
3.71005
3.70988
3.71039
3.71028
3.70748
3.69941
3.68338
3.65776
3.62481
3.59474
3.60476
3.64243
3.73214
3.85507
4.00455
4.16132
4.32341
4.47795
4.55313
4.54803
4.48175
4.38083
4.2708
4.16783
4.07912
4.00581
3.94598
3.89672
3.85522
3.81923
3.78717
3.75799
3.73101
3.70583
3.68218
3.65989
3.6388
3.6188
3.59978
3.58167
3.56437
3.54781
3.53194
3.5168
3.50227
3.48778
3.47368
3.46301
3.73089
3.72863
3.72733
3.72673
3.72632
3.72483
3.71995
3.70865
3.68773
3.65524
3.61252
3.57095
3.57149
3.59985
3.6831
3.81445
3.98364
4.1733
4.36968
4.55398
4.64246
4.6411
4.57308
4.46716
4.35129
4.24253
4.14853
4.07052
4.00651
3.95343
3.90834
3.86893
3.83358
3.80125
3.77132
3.74338
3.71719
3.69255
3.6693
3.64731
3.62647
3.60668
3.58783
3.56985
3.55266
3.5363
3.52065
3.50516
3.49011
3.47849
3.74675
3.74554
3.74473
3.7439
3.74269
3.73999
3.73336
3.7195
3.69483
3.65724
3.60735
3.55931
3.53903
3.55879
3.63669
3.7758
3.95371
4.16805
4.39504
4.60285
4.7063
4.70947
4.64131
4.53298
4.41406
4.30216
4.20517
4.12436
4.05769
4.002
3.95429
3.91224
3.87427
3.83941
3.80706
3.77686
3.74857
3.72198
3.69694
3.67331
3.65096
3.62978
3.60966
3.59051
3.57225
3.55491
3.53835
3.52204
3.50622
3.49374
3.76206
3.76232
3.7624
3.76161
3.75979
3.75606
3.74803
3.73229
3.70501
3.66384
3.60905
3.55462
3.51919
3.53521
3.59187
3.73757
3.91789
4.15011
4.40368
4.62935
4.74855
4.75749
4.69076
4.58232
4.4625
4.3494
4.25104
4.16873
4.10043
4.04297
3.99335
3.94929
3.90927
3.8724
3.83812
3.80611
3.77612
3.74796
3.72147
3.69651
3.67294
3.65063
3.62949
3.6094
3.59029
3.57215
3.55489
3.538
3.52166
3.50865
3.77694
3.77913
3.78052
3.78009
3.77787
3.7733
3.76421
3.74719
3.71839
3.67485
3.61726
3.55924
3.51343
3.51596
3.56635
3.69146
3.87969
4.12259
4.39723
4.63901
4.77345
4.78776
4.72432
4.61787
4.49893
4.38611
4.28755
4.20466
4.13546
4.07684
4.02584
3.98027
3.93869
3.90026
3.86448
3.83105
3.79974
3.77036
3.74275
3.71674
3.69222
3.66904
3.64711
3.62632
3.60657
3.58786
3.57011
3.5529
3.53628
3.52254
3.79163
3.79619
3.79928
3.79952
3.79713
3.79193
3.78209
3.76434
3.735
3.69044
3.63262
3.56969
3.51355
3.50124
3.54858
3.66022
3.84455
4.09276
4.37953
4.6356
4.78209
4.80315
4.74431
4.64136
4.52478
4.41346
4.31564
4.23285
4.16329
4.10397
4.05203
4.00538
3.96265
3.92308
3.8862
3.85172
3.81943
3.78915
3.7607
3.73394
3.70872
3.68492
3.66243
3.64113
3.62093
3.6018
3.58365
3.56613
3.54926
3.53476
3.80645
3.81376
3.81888
3.82008
3.81773
3.8121
3.8018
3.78383
3.75484
3.71092
3.65355
3.5869
3.52605
3.51338
3.54339
3.6388
3.81403
4.06022
4.35499
4.62107
4.77568
4.80565
4.75214
4.65373
4.54077
4.43208
4.33583
4.25376
4.18431
4.12468
4.07219
4.02484
3.98136
3.94101
3.90338
3.86819
3.83524
3.80434
3.77532
3.74804
3.72235
3.69812
3.67523
3.65357
3.63303
3.61359
3.59515
3.5774
3.56035
3.54556
3.82182
3.83214
3.8395
3.84187
3.83977
3.83389
3.82337
3.80564
3.77766
3.73556
3.67901
3.61315
3.55015
3.5183
3.54421
3.62663
3.78801
4.02735
4.32742
4.59867
4.75742
4.79513
4.74812
4.65518
4.5471
4.44215
4.34835
4.26763
4.19876
4.13924
4.08657
4.03889
3.995
3.95423
3.91617
3.88058
3.84725
3.816
3.78667
3.75909
3.73313
3.70866
3.68556
3.66372
3.64305
3.62349
3.605
3.58729
3.57032
3.55527
3.83816
3.85162
3.8613
3.86494
3.86325
3.85731
3.8468
3.82966
3.80319
3.76365
3.70963
3.64381
3.58057
3.5392
3.5465
3.62054
3.76902
4.00206
4.29486
4.57003
4.73116
4.77422
4.73267
4.64547
4.5436
4.44364
4.35323
4.27458
4.20683
4.14785
4.09539
4.04774
4.0038
3.96294
3.92478
3.88908
3.85565
3.8243
3.79488
3.76723
3.74122
3.71671
3.69359
3.67177
3.65113
3.63161
3.61314
3.59558
3.5788
3.56335
3.85587
3.87242
3.88432
3.88926
3.8881
3.88228
3.87201
3.85579
3.83126
3.79482
3.74418
3.68048
3.61565
3.56837
3.56433
3.62425
3.75824
3.98025
4.26462
4.53728
4.69367
4.7427
4.70556
4.62524
4.53013
4.43638
4.35044
4.27469
4.20868
4.15072
4.09889
4.05165
4.00801
3.96738
3.92941
3.89389
3.86061
3.8294
3.80012
3.77259
3.7467
3.72232
3.69932
3.67761
3.65709
3.63766
3.61928
3.60185
3.58528
3.56959
3.87524
3.89464
3.90854
3.9147
3.91416
3.90866
3.89887
3.88388
3.86164
3.82864
3.7818
3.72083
3.65534
3.60298
3.58899
3.63447
3.75416
3.9635
4.23696
4.5015
4.65397
4.70129
4.66796
4.59373
4.50649
4.42018
4.34
4.26807
4.20449
4.14809
4.09733
4.05088
4.00788
3.96779
3.93031
3.89522
3.86233
3.83149
3.80253
3.77532
3.74971
3.7256
3.70285
3.68138
3.66108
3.64188
3.62369
3.60649
3.59016
3.57443
3.89638
3.91822
3.93378
3.94104
3.94121
3.93626
3.92725
3.91376
3.89406
3.86464
3.82171
3.76369
3.69804
3.64113
3.61752
3.64966
3.75559
3.95149
4.21063
4.46279
4.6068
4.65107
4.61953
4.55133
4.47304
4.39536
4.32209
4.2549
4.19449
4.14022
4.09098
4.04572
4.00369
3.96445
3.92773
3.89332
3.86106
3.83078
3.80235
3.77562
3.75047
3.72678
3.70444
3.68335
3.66343
3.64456
3.62671
3.60985
3.59387
3.5782
3.91916
3.9429
3.95975
3.96801
3.96901
3.96488
3.95698
3.94529
3.92827
3.90233
3.86303
3.8076
3.74168
3.68041
3.64763
3.66755
3.76087
3.94271
4.18572
4.42077
4.55283
4.58977
4.56158
4.49838
4.43004
4.36235
4.29705
4.23552
4.179
4.12743
4.08017
4.03647
3.99575
3.95765
3.92194
3.88845
3.85703
3.82752
3.79979
3.77372
3.74917
3.72605
3.70424
3.68366
3.66421
3.6458
3.62836
3.61196
3.59645
3.58092
3.94323
3.96831
3.98609
3.99528
3.9973
3.99433
3.98792
3.97829
3.964
3.94123
3.90489
3.85122
3.78441
3.71857
3.67707
3.68588
3.76739
3.93471
4.15997
4.37406
4.49104
4.51827
4.49275
4.43557
4.37814
4.32175
4.26544
4.2104
4.15843
4.1101
4.06526
4.02347
3.98437
3.94769
3.91324
3.88089
3.85049
3.82192
3.79506
3.76978
3.74597
3.72353
3.70237
3.68239
3.66351
3.64564
3.62871
3.61284
3.59788
3.58255
3.96809
3.99394
4.0124
4.02255
4.02586
4.02444
4.01993
4.01262
4.00095
3.9808
3.94642
3.89326
3.82451
3.75353
3.70383
3.70268
3.77255
3.92452
4.13004
4.32038
4.41979
4.4394
4.41369
4.36469
4.31875
4.27459
4.22803
4.18016
4.1333
4.08867
4.04664
4.00711
3.96991
3.93489
3.90192
3.87089
3.8417
3.81423
3.78837
3.76401
3.74105
3.7194
3.69898
3.67969
3.66147
3.64421
3.62786
3.61259
3.59824
3.58315
3.99307
4.01928
4.03831
4.04958
4.05452
4.05511
4.0529
4.04808
4.03879
4.02047
3.9867
3.93245
3.86026
3.78335
3.7249
3.71406
3.77279
3.90973
4.09283
4.25704
4.33775
4.34986
4.3268
4.28663
4.25328
4.22216
4.18579
4.14556
4.10423
4.06368
4.02477
3.98778
3.95273
3.91958
3.88829
3.85876
3.83092
3.80468
3.77993
3.7566
3.7346
3.71383
3.69422
3.6757
3.6582
3.64162
3.62591
3.61129
3.59759
3.58278
4.01755
4.0439
4.06352
4.0762
4.08319
4.08626
4.08672
4.08445
4.07711
4.05953
4.02472
3.96738
3.88995
3.80593
3.73885
3.71707
3.76584
3.88623
4.04458
4.18116
4.24376
4.25026
4.22923
4.20313
4.18343
4.16587
4.13989
4.10751
4.07192
4.03567
4.00013
3.9659
3.93321
3.90212
3.87266
3.84477
3.81841
3.7935
3.76998
3.74776
3.72678
3.70695
3.68822
3.67052
3.65379
3.63793
3.62288
3.60895
3.59595
3.5814
4.04095
4.06748
4.08789
4.10233
4.11183
4.11784
4.12125
4.12142
4.11535
4.09717
4.05935
3.99661
3.91168
3.81871
3.74203
3.7106
3.7475
3.84949
3.98123
4.09025
4.13722
4.14121
4.12617
4.11405
4.11187
4.1075
4.09172
4.067
4.03713
4.00528
3.97325
3.94193
3.91175
3.88286
3.85535
3.82921
3.80441
3.78093
3.75869
3.73765
3.71775
3.69892
3.6811
3.66425
3.64831
3.63317
3.6188
3.60556
3.59325
3.57894
4.06293
4.08977
4.11137
4.12796
4.14044
4.14976
4.15625
4.15855
4.15281
4.13236
4.08926
4.01846
3.92344
3.81948
3.7321
3.69053
3.7141
3.79521
3.89937
3.98313
4.01894
4.02487
4.02107
4.02478
4.0411
4.04881
4.04256
4.025
4.00062
3.97312
3.94464
3.91634
3.88875
3.86216
3.83667
3.81235
3.78919
3.76717
3.74628
3.72645
3.70766
3.68984
3.67296
3.65697
3.64183
3.62743
3.61373
3.60115
3.58951
3.57547
4.08327
4.11071
4.13395
4.15315
4.16897
4.18187
4.19139
4.19524
4.18859
4.16387
4.11284
4.03098
3.9229
3.80568
3.70641
3.65332
3.66126
3.72003
3.79755
3.86071
3.89139
3.90443
3.91593
3.93978
3.97158
3.99117
3.99351
3.98241
3.96315
3.93982
3.91486
3.88957
3.86463
3.84036
3.81695
3.79447
3.77297
3.75245
3.73291
3.71431
3.69664
3.67985
3.66391
3.64878
3.63444
3.62077
3.60774
3.59583
3.58484
3.57108
4.10191
4.13033
4.15564
4.17789
4.19732
4.21385
4.22614
4.23074
4.22152
4.19007
4.12799
4.03147
3.90733
3.77442
3.66153
3.59497
3.58553
3.62166
3.67708
3.72626
3.75894
3.78441
3.81503
3.86043
3.90686
3.93626
3.94567
3.94008
3.92541
3.906
3.88442
3.8621
3.83977
3.81782
3.79647
3.77584
3.756
3.73697
3.71877
3.7014
3.68484
3.66907
3.65406
3.63979
3.62624
3.61329
3.60092
3.58968
3.57933
3.56581
4.11887
4.1487
4.17649
4.2021
4.2253
4.24525
4.25974
4.26399
4.25005
4.20884
4.13178
4.01725
3.87318
3.72245
3.59455
3.51301
3.48612
3.50306
3.54249
3.58542
3.62764
3.6702
3.72386
3.78943
3.84824
3.88512
3.89988
3.89876
3.88807
3.87223
3.85385
3.83438
3.81458
3.79488
3.77554
3.75671
3.73848
3.72092
3.70404
3.68786
3.67239
3.65761
3.6435
3.63006
3.61726
3.60499
3.59324
3.58261
3.57287
3.55958
4.13421
4.16584
4.19644
4.22559
4.25253
4.27555
4.29129
4.29334
4.27207
4.21722
4.12163
3.98393
3.81769
3.64852
3.50444
3.408
3.36613
3.36946
3.40143
3.44597
3.50434
3.56863
3.6463
3.72899
3.79674
3.83842
3.85678
3.85905
3.8517
3.83904
3.82361
3.8068
3.7894
3.77185
3.75443
3.73732
3.72064
3.70447
3.68886
3.67383
3.6594
3.64556
3.6323
3.61964
3.60756
3.59593
3.58475
3.57467
3.56546
3.5524
4.14797
4.18171
4.21529
4.24801
4.27848
4.30394
4.31947
4.31691
4.2848
4.2127
4.09317
3.93035
3.74127
3.55247
3.39284
3.28385