/*--------------------------------*- C++ -*----------------------------------*\
  =========                 |
  \\      /  F ield         | OpenFOAM: The Open Source CFD Toolbox
   \\    /   O peration     | Website:  https://openfoam.org
    \\  /    A nd           | Version:  9
     \\/     M anipulation  |
\*---------------------------------------------------------------------------*/
FoamFile
{
    format      ascii;
    class       volScalarField;
    location    "0.19";
    object      p_rgh;
}
// * * * * * * * * * * * * * * * * * * * * * * * * * * * * * * * * * * * * * //

dimensions      [1 -1 -2 0 0 0 0];

internalField   nonuniform List<scalar> 
5000
(
-0.956171
-1.05283
-1.17621
-1.33854
-1.54869
-1.81356
-2.14267
-2.55084
-3.06347
-3.80486
-5.00876
-5.30679
-595.749
-3318.71
-3734.16
-3736.55
-3738.24
-3738.63
-3737.63
-3735.53
-3733.26
-3731.58
-3730.75
-3730.88
-3731.62
-3732.26
-3732.33
-3731.66
-3730.75
-3488.31
-850.622
-4.03389
-3.77081
-3.64798
-2.88384
-2.45989
-2.12915
-1.84109
-1.58925
-1.36854
-1.1731
-0.997867
-0.83922
-0.694697
-0.562524
-0.441283
-0.329738
-0.226856
-0.131524
-0.0443151
-0.969426
-1.06379
-1.18263
-1.33666
-1.53272
-1.77478
-2.06759
-2.42108
-2.85014
-3.44279
-4.24664
-4.54224
-285.136
-2983.89
-3735.61
-3737.83
-3739.44
-3739.57
-3738.25
-3735.74
-3733.07
-3731.07
-3730.09
-3730.3
-3731.26
-3732.12
-3732.28
-3731.61
-3730.18
-3082.18
-344.248
-3.66072
-4.54187
-2.9955
-2.56388
-2.19619
-1.91659
-1.67122
-1.45209
-1.25679
-1.08177
-0.923367
-0.778799
-0.646177
-0.524162
-0.411687
-0.307815
-0.211731
-0.12256
-0.0405926
-0.976592
-1.06737
-1.17988
-1.32321
-1.50214
-1.71763
-1.96896
-2.2608
-2.59666
-2.98897
-3.65592
-3.69066
-4.04019
-2322.04
-3737.38
-3739.19
-3740.84
-3740.53
-3738.61
-3735.49
-3732.34
-3730.05
-3729.03
-3729.45
-3730.7
-3731.74
-3732
-3731.48
-3728.58
-2094.63
-2.9105
-3.00338
-3.87169
-2.45207
-2.20128
-1.91609
-1.69307
-1.49147
-1.30626
-1.13744
-0.983703
-0.84284
-0.712984
-0.592859
-0.481571
-0.378407
-0.28273
-0.19397
-0.111562
-0.0359217
-0.978186
-1.06441
-1.1694
-1.30053
-1.46057
-1.64794
-1.85637
-2.0832
-2.33224
-2.5272
-3.21293
-2.90736
-2.53438
-1236.27
-3603.06
-3740.58
-3741.94
-3740.87
-3738.1
-3734.18
-3730.52
-3728.01
-3727.07
-3727.76
-3729.16
-3730.13
-3730.45
-3729.96
-3393.47
-653.522
-2.40005
-2.48658
-3.44289
-1.92429
-1.80384
-1.64439
-1.47709
-1.31732
-1.16394
-1.02013
-0.886614
-0.762488
-0.646743
-0.538663
-0.437757
-0.343643
-0.255966
-0.17438
-0.0987651
-0.0304721
-0.974867
-1.0559
-1.15272
-1.27104
-1.41172
-1.57136
-1.74001
-1.90479
-2.08404
-2.15738
-2.62459
-2.37336
-1.76097
-132.05
-2848.76
-3740.26
-3742.55
-3739.71
-3735.71
-3730.99
-3727.02
-3724.53
-3723.8
-3724.65
-3725.93
-3726.63
-3726.62
-3717.19
-1874.54
-2.24544
-2.32319
-2.44686
-1.81175
-1.64213
-1.49912
-1.41962
-1.2973
-1.16814
-1.03884
-0.915128
-0.798527
-0.688715
-0.585233
-0.487682
-0.395746
-0.309131
-0.227472
-0.150017
-0.0756285
-0.0108781
-0.967524
-1.043
-1.13138
-1.23701
-1.35905
-1.49279
-1.62808
-1.74475
-1.8622
-1.88508
-2.22331
-1.94978
-1.49465
-1.41265
-1176.14
-3454.33
-3741.8
-3736.32
-3730.48
-3725.25
-3721.55
-3719.63
-3719.29
-3720.22
-3721.14
-3721.5
-3721.46
-2690.85
-229.906
-1.9826
-2.40347
-2.74843
-1.54636
-1.41074
-1.33586
-1.26617
-1.16309
-1.05181
-0.938171
-0.828773
-0.724774
-0.626253
-0.532931
-0.444524
-0.360814
-0.281617
-0.206833
-0.136185
-0.0671998
0.00152546
-0.956975
-1.02681
-1.10686
-1.20044
-1.30543
-1.41594
-1.52358
-1.60336
-1.67326
-1.68378
-1.96481
-1.66976
-1.40859
-1.28326
-2.82657
-1297.98
-3393.3
-3731.18
-3722.36
-3717.03
-3714.54
-3713.64
-3713.87
-3714.88
-3715.3
-3715.51
-2953.38
-559.844
-1.45851
-1.9605
-2.44484
-2.68175
-2.06403
-1.29731
-1.25196
-1.16241
-1.06755
-0.963799
-0.86014
-0.760414
-0.665777
-0.576158
-0.491264
-0.410862
-0.334822
-0.263038
-0.195527
-0.132706
-0.0735885
-0.0158518
-0.943905
-1.00823
-1.08039
-1.1629
-1.25291
-1.34337
-1.42796
-1.48062
-1.51469
-1.51758
-1.45063
-1.53916
-1.30803
-1.14979
-1.13769
-2.0163
-1269.31
-3371.43
-3712.95
-3706.97
-3706.78
-3707.77
-3708.55
-3708.56
-3690.74
-2740.48
-561.67
-1.39862
-1.237
-2.06703
-2.62783
-2.44023
-2.06863
-1.2131
-1.17398
-1.0754
-0.989167
-0.892189
-0.797117
-0.705465
-0.618526
-0.536188
-0.458174
-0.384264
-0.314323
-0.248204
-0.185803
-0.127499
-0.0738781
-0.0252049
-0.928956
-0.988087
-1.05303
-1.12569
-1.20291
-1.27672
-1.34247
-1.37574
-1.38421
-1.37129
-1.35463
-1.38539
-1.19933
-1.06932
-0.993116
-1.16736
-1.84476
-1413.8
-3321.59
-3695.19
-3697.76
-3695.39
-3601.81
-3055.13
-1740.46
-280.095
-1.31225
-1.25659
-1.19834
-1.91529
-2.53549
-2.09773
-1.51324
-1.11427
-1.08343
-0.994207
-0.918364
-0.831004
-0.744451
-0.660482
-0.580379
-0.504284
-0.432044
-0.363514
-0.298584
-0.237138
-0.179125
-0.124908
-0.0755637
-0.0326153
-0.912699
-0.967083
-1.02562
-1.08976
-1.15638
-1.21692
-1.26793
-1.2878
-1.27897
-1.25378
-1.39509
-1.20379
-1.11661
-1.09112
-0.947925
-1.0556
-2.25092
-5.77428
-1000.25
-2388
-2356.9
-1975.68
-1110.84
-360.258
-1.51229
-0.981292
-1.22791
-1.14452
-1.13066
-1.48952
-2.46285
-2.22492
-1.04924
-1.04775
-1.00887
-0.93259
-0.862158
-0.78326
-0.703239
-0.6254
-0.55084
-0.479837
-0.412331
-0.348236
-0.28747
-0.229956
-0.175759
-0.125373
-0.0800132
-0.0410489
-0.895598
-0.945772
-0.998789
-1.05583
-1.11396
-1.16434
-1.20461
-1.21511
-1.19498
-1.15518
-1.30725
-1.07372
-1.3068
-1.08369
-0.873778
-0.893342
-1.15296
-2.12671
-1.60716
-81.0683
-22.5452
-1.00291
-1.02756
-1.0759
-1.05468
-1.05414
-1.08218
-1.093
-1.09556
-1.14129
-2.43011
-2.20986
-1.03474
-1.02197
-0.964963
-0.90112
-0.828709
-0.752118
-0.675184
-0.60095
-0.530095
-0.462744
-0.398795
-0.338139
-0.280676
-0.226374
-0.175424
-0.128446
-0.0865999
-0.0506741
-0.878014
-0.924558
-0.972995
-1.02431
-1.07599
-1.11894
-1.15227
-1.15668
-1.13022
-1.08185
-1.24926
-1.01679
-1.45777
-0.98765
-0.863191
-0.858679
-0.884709
-1.05044
-1.50851
-1.01593
-1.04737
-1.05175
-1.22885
-1.14249
-1.05928
-1.03894
-1.05637
-1.07489
-1.07885
-1.07161
-1.83535
-2.17157
-1.04928
-1.00263
-0.952121
-0.888887
-0.811508
-0.734139
-0.658178
-0.585711
-0.517067
-0.452131
-0.390692
-0.332566
-0.277618
-0.225878
-0.177681
-0.13369
-0.0948232
-0.0612814
-0.860215
-0.90372
-0.948505
-0.995455
-1.04265
-1.08164
-1.10944
-1.11251
-1.08449
-1.11862
-1.20469
-1.2086
-1.43347
-0.925222
-0.871412
-0.868264
-0.868292
-0.901779
-0.974637
-1.02607
-1.04368
-1.04655
-1.03552
-1.03568
-1.03978
-1.04864
-1.06239
-1.07741
-1.07763
-1.06129
-1.3949
-2.12173
-1.1114
-0.998645
-0.9455
-0.87923
-0.800456
-0.722825
-0.647722
-0.576547
-0.509498
-0.446332
-0.386765
-0.330561
-0.277591
-0.227993
-0.18223
-0.140887
-0.104519
-0.0729374
-0.842377
-0.883416
-0.92542
-0.969283
-1.01355
-1.05063
-1.07706
-1.08246
-1.05746
-1.11363
-0.977015
-1.4228
-1.44252
-0.891986
-0.892113
-0.893058
-0.890962
-0.907437
-0.939827
-0.956429
-0.97789
-0.997091
-1.01574
-1.03329
-1.04881
-1.06383
-1.07803
-1.09003
-1.09177
-1.08145
-1.34581
-2.09429
-1.1532
-0.997131
-0.94017
-0.870532
-0.792305
-0.71512
-0.641017
-0.571119
-0.50549
-0.443836
-0.38584
-0.331256
-0.280022
-0.232418
-0.188959
-0.150001
-0.1157
-0.0857161
-0.824588
-0.863707
-0.903682
-0.945597
-0.988376
-1.02572
-1.0539
-1.06503
-1.04796
-1.04518
-0.949036
-1.46317
-1.36136
-0.912194
-0.922396
-0.932499
-0.922655
-0.92797
-0.944906
-0.958762
-0.978175
-0.997341
-1.01768
-1.03867
-1.05958
-1.08055
-1.10053
-1.1159
-1.12541
-1.12413
-1.30924
-2.13008
-1.12006
-1.00817
-0.944637
-0.868353
-0.789136
-0.711312
-0.637587
-0.568564
-0.504063
-0.443689
-0.387069
-0.333967
-0.284419
-0.238825
-0.197634
-0.160838
-0.128264
-0.0998089
-0.806866
-0.844564
-0.88315
-0.92402
-0.966757
-1.00626
-1.03855
-1.05833
-1.05489
-1.03677
-1.09643
-1.52288
-1.04033
-0.989516
-1.18802
-1.22022
-0.955308
-0.952499
-0.957737
-0.966692
-0.981957
-0.999525
-1.0202
-1.04362
-1.0695
-1.09772
-1.12682
-1.15309
-1.17503
-1.18073
-1.25827
-1.53963
-1.17513
-1.0327
-0.957941
-0.87309
-0.789765
-0.710325
-0.636331
-0.567787
-0.504185
-0.444966
-0.389694
-0.338166
-0.290513
-0.24716
-0.208359
-0.1737
-0.142691
-0.11551
-0.789173
-0.825895
-0.863589
-0.904155
-0.94801
-0.991076
-1.02952
-1.06025
-1.07397
-1.08843
-1.60245
-1.59865
-1.1033
-1.23381
-1.62269
-1.14231
-0.992444
-0.978702
-0.973125
-0.975072
-0.985315
-1.00032
-1.02048
-1.04571
-1.07619
-1.11208
-1.1515
-1.18954
-1.22114
-1.22755
-1.22032
-1.24212
-1.2464
-1.05232
-0.967221
-0.875461
-0.788798
-0.708227
-0.634304
-0.56651
-0.504047
-0.446222
-0.392584
-0.343001
-0.297649
-0.256813
-0.220458
-0.187918
-0.158482
-0.132219
-0.771385
-0.807502
-0.844674
-0.885552
-0.931253
-0.978817
-1.02489
-1.06791
-1.09936
-1.15611
-1.69239
-1.68095
-1.19219
-1.26333
-1.69638
-1.0729
-1.03095
-1.00551
-0.989009
-0.982395
-0.986499
-0.997788
-1.01629
-1.04216
-1.07612
-1.11878
-1.16783
-1.21619
-1.25512
-1.26334
-1.25854
-1.33368
-1.26995
-1.05391
-0.961842
-0.868353
-0.780886
-0.700924
-0.628312
-0.562172
-0.501534
-0.445672
-0.394197
-0.347065
-0.304418
-0.266282
-0.23231
-0.201806
-0.173972
-0.1481
-0.753334
-0.789089
-0.826064
-0.86764
-0.915595
-0.96814
-1.02269
-1.07908
-1.1321
-1.23915
-1.77964
-1.77803
-1.28743
-1.32711
-1.77808
-1.13734
-1.06976
-1.03204
-1.00382
-0.987268
-0.983877
-0.989991
-1.00518
-1.02982
-1.0651
-1.11219
-1.16833
-1.2277
-1.26986
-1.28322
-1.287
-1.335
-1.25528
-1.03727
-0.941859
-0.848926
-0.763474
-0.686202
-0.616424
-0.553071
-0.495131
-0.441953
-0.393265
-0.349079
-0.309425
-0.274038
-0.242315
-0.213621
-0.187263
-0.161858
-0.734863
-0.770397
-0.807395
-0.849798
-0.900134
-0.957724
-1.02086
-1.0906
-1.16442
-1.32285
-1.87062
-1.88636
-1.38974
-1.8887
-1.85571
-1.4691
-1.10901
-1.05727
-1.01621
-0.988387
-0.975988
-0.975171
-0.984899
-1.00571
-1.03909
-1.08735
-1.14852
-1.20946
-1.25801
-1.30682
-1.28322
-1.25213
-1.13857
-1.00065
-0.906275
-0.816894
-0.736086
-0.663465
-0.598032
-0.538619
-0.484309
-0.434603
-0.389357
-0.348577
-0.312128
-0.279542
-0.250087
-0.223162
-0.198279
-0.174195
-0.715817
-0.751194
-0.788275
-0.831432
-0.883971
-0.946241
-1.01736
-1.09958
-1.19226
-1.36723
-1.6219
-1.9907
-1.62412
-2.00551
-1.92565
-1.7778
-1.14604
-1.07941
-1.0249
-0.984716
-0.961779
-0.952086
-0.953881
-0.967772
-0.994909
-1.03982
-1.09858
-1.15918
-1.23899
-1.25051
-1.21898
-1.1074
-1.02617
-0.938963
-0.852492
-0.771571
-0.698587
-0.632834
-0.573346
-0.519104
-0.469445
-0.424089
-0.383
-0.346124
-0.313173
-0.283578
-0.256634
-0.23179
-0.208655
-0.186411
-0.696035
-0.731254
-0.768332
-0.812012
-0.86628
-0.932462
-1.01036
-1.10334
-1.21181
-1.36325
-1.51272
-2.05551
-1.84402
-2.0763
-1.98731
-1.56276
-1.17645
-1.09657
-1.02888
-0.975659
-0.94083
-0.920279
-0.911434
-0.914536
-0.932047
-0.967253
-1.01683
-1.08134
-1.15028
-1.14773
-1.11213
-1.00487
-0.934422
-0.858541
-0.784488
-0.71551
-0.6528
-0.595716
-0.543533
-0.495577
-0.451522
-0.411307
-0.374957
-0.342344
-0.313074
-0.28657
-0.262269
-0.239772
-0.218708
-0.198318
-0.675361
-0.710356
-0.747247
-0.791088
-0.846382
-0.915363
-0.998411
-1.09986
-1.2214
-1.37457
-1.71188
-1.67814
-1.7064
-2.138
-2.02973
-1.45204
-1.2001
-1.10796
-1.02765
-0.961345
-0.913404
-0.880301
-0.858393
-0.847952
-0.851387
-0.871747
-0.906559
-0.970341
-1.01693
-1.01162
-0.978148
-0.882885
-0.827077
-0.767328
-0.708711
-0.653448
-0.602227
-0.554736
-0.510626
-0.469644
-0.431774
-0.397115
-0.365703
-0.337361
-0.311683
-0.288168
-0.266441
-0.246346
-0.227513
-0.208802
-0.653666
-0.688309
-0.724762
-0.768306
-0.823771
-0.894171
-0.980362
-1.0872
-1.2179
-1.3864
-1.77266
-1.66371
-1.65094
-1.69094
-2.05296
-1.47102
-1.21616
-1.11284
-1.02134
-0.943486
-0.880858
-0.833912
-0.797271
-0.77111
-0.757485
-0.759567
-0.776338
-0.825024
-0.862893
-0.858048
-0.827297
-0.753631
-0.715506
-0.673748
-0.631487
-0.590233
-0.550641
-0.512854
-0.47696
-0.443096
-0.411486
-0.382318
-0.355632
-0.331263
-0.308884
-0.288125
-0.268794
-0.250976
-0.234294
-0.217022
-0.630863
-0.664966
-0.700697
-0.74342
-0.798121
-0.868382
-0.955387
-1.06384
-1.19799
-1.3742
-1.76953
-1.80402
-1.66106
-1.59576
-2.07127
-1.42371
-1.22028
-1.10988
-1.02563
-1.1057
-0.939699
-0.784238
-0.731827
-0.689153
-0.657383
-0.640211
-0.63854
-0.664817
-0.704322
-0.704522
-0.662973
-0.629609
-0.609836
-0.58559
-0.558691
-0.530402
-0.50161
-0.472906
-0.444767
-0.417624
-0.391853
-0.367695
-0.345217
-0.324335
-0.304856
-0.286543
-0.269351
-0.253564
-0.238792
-0.222732
-0.606906
-0.640243
-0.674953
-0.716305
-0.769303
-0.837831
-0.923249
-1.02958
-1.16143
-1.33517
-1.73527
-1.83244
-1.65167
-1.58769
-1.54547
-1.33627
-1.2116
-1.09915
-1.22763
-1.20368
-1.11771
-0.803548
-0.667414
-0.608799
-0.559882
-0.524907
-0.506865
-0.508004
-0.550073
-0.559764
-0.51917
-0.52153
-0.51816
-0.508978
-0.495069
-0.477737
-0.458176
-0.437329
-0.415949
-0.394649
-0.373891
-0.353965
-0.335003
-0.317033
-0.300003
-0.283784
-0.26843
-0.254363
-0.241191
-0.226172
-0.581791
-0.614122
-0.64751
-0.686964
-0.737388
-0.802705
-0.884334
-0.985392
-1.11043
-1.27311
-1.67046
-1.77252
-1.5788
-1.74124
-1.95212
-1.44019
-1.19324
-1.12995
-1.28533
-1.17757
-1.08234
-0.986603
-0.643472
-0.538091
-0.474493
-0.425009
-0.394451
-0.384022
-0.394362
-0.411149
-0.420693
-0.436383
-0.445787
-0.448011
-0.44391
-0.434955
-0.422576
-0.407928
-0.391916
-0.375244
-0.35843
-0.341816
-0.325616
-0.309967
-0.29492
-0.280424
-0.266582
-0.2539
-0.241995
-0.227886
-0.55556
-0.586651
-0.618427
-0.655517
-0.702612
-0.76344
-0.839375
-0.932538
-1.04726
-1.19431
-1.57486
-1.68135
-1.45869
-1.82518
-1.92853
-1.63653
-1.16721
-1.31512
-1.26224
-1.15526
-1.05386
-0.958127
-0.727547
-0.484351
-0.410231
-0.35062
-0.31232
-0.299898
-0.306224
-0.326018
-0.353001
-0.377762
-0.395388
-0.404834
-0.407042
-0.403626
-0.396131
-0.385782
-0.373536
-0.360128
-0.346112
-0.331878
-0.317706
-0.303803
-0.29028
-0.277125
-0.264463
-0.252827
-0.241862
-0.228548
-0.528297
-0.557925
-0.587825
-0.622172
-0.665326
-0.720626
-0.789291
-0.872372
-0.97376
-1.10139
-1.45705
-1.45439
-1.33829
-1.53244
-1.85387
-1.67593
-1.17793
-1.28487
-1.1769
-0.978099
-0.919927
-0.852393
-0.648728
-0.455958
-0.375016
-0.309847
-0.268485
-0.256377
-0.263727
-0.286779
-0.318198
-0.346702
-0.367576
-0.379963
-0.384963
-0.384226
-0.379264
-0.371263
-0.361153
-0.349667
-0.337361
-0.324648
-0.311829
-0.299134
-0.28669
-0.2745
-0.262691
-0.251781
-0.241453
-0.228816
-0.500126
-0.528088
-0.555886
-0.587207
-0.625967
-0.674969
-0.735165
-0.806561
-0.892038
-0.989565
-1.32821
-1.2005
-1.20538
-1.24825
-1.76722
-1.5854
-1.29489
-1.08575
-0.914239
-0.821213
-0.729961
-0.641178
-0.554126
-0.459529
-0.375317
-0.308506
-0.266599
-0.254358
-0.263721
-0.284887
-0.315198
-0.341974
-0.361228
-0.372509
-0.376999
-0.376244
-0.371592
-0.364109
-0.354649
-0.343888
-0.332349
-0.320412
-0.308351
-0.296375
-0.284597
-0.27302
-0.261757
-0.251285
-0.241329
-0.22925
-0.471209
-0.497322
-0.522846
-0.550952
-0.585025
-0.627261
-0.678237
-0.737109
-0.805461
-0.881838
-1.03454
-1.03129
-1.06309
-1.14727
-1.66377
-1.45621
-1.17864
-0.970612
-0.906047
-0.833545
-0.756508
-0.67633
-0.588741
-0.500484
-0.417171
-0.350452
-0.308335
-0.295534
-0.302156
-0.318641
-0.340904
-0.360661
-0.37386
-0.380438
-0.381504
-0.378351
-0.372072
-0.363552
-0.353507
-0.342506
-0.330971
-0.319198
-0.307395
-0.295715
-0.284243
-0.272971
-0.261989
-0.251711
-0.241908
-0.230272
-0.441734
-0.465848
-0.488978
-0.513772
-0.543027
-0.578322
-0.619781
-0.665966
-0.717242
-0.772751
-0.82925
-0.877479
-0.914819
-1.20674
-1.54708
-1.2907
-0.980929
-0.939176
-0.905106
-0.862273
-0.808595
-0.744743
-0.668019
-0.584462
-0.50455
-0.436633
-0.392873
-0.375543
-0.37531
-0.383789
-0.390534
-0.398567
-0.401943
-0.400829
-0.396078
-0.3886
-0.37917
-0.368427
-0.356887
-0.344937
-0.33284
-0.320765
-0.308825
-0.297106
-0.285653
-0.274442
-0.263534
-0.253268
-0.243456
-0.232173
-0.411904
-0.433911
-0.454582
-0.476048
-0.500502
-0.528929
-0.560951
-0.594701
-0.629513
-0.663672
-0.697593
-0.730053
-0.762453
-1.35858
-1.39062
-1.05441
-0.895329
-0.907099
-0.912635
-0.909168
-0.887942
-0.848025
-0.787792
-0.712812
-0.635035
-0.565461
-0.516697
-0.487914
-0.476124
-0.466862
-0.457979
-0.450455
-0.441108
-0.430074
-0.417759
-0.404606
-0.391006
-0.377287
-0.363686
-0.350341
-0.337314
-0.324622
-0.312274
-0.300284
-0.288655
-0.277345
-0.26638
-0.256014
-0.246101
-0.235124
-0.381926
-0.401765
-0.419963
-0.438156
-0.457957
-0.479789
-0.502755
-0.524644
-0.544003
-0.558707
-0.571334
-0.587609
-0.612464
-1.26462
-1.12693
-0.854586
-0.824165
-0.881574
-0.931601
-0.973388
-0.994066
-0.985024
-0.945485
-0.880449
-0.803125
-0.729433
-0.670963
-0.627748
-0.596666
-0.563797
-0.53596
-0.510259
-0.486365
-0.464086
-0.443238
-0.423725
-0.405496
-0.388491
-0.372601
-0.35767
-0.343539
-0.330073
-0.317181
-0.304807
-0.292914
-0.28144
-0.270373
-0.259879
-0.24985
-0.239183
-0.352004
-0.369662
-0.385419
-0.400458
-0.415863
-0.431532
-0.446071
-0.456985
-0.462246
-0.459782
-0.4528
-0.452143
-0.465245
-1.13337
-1.20741
-0.730828
-0.791108
-0.884554
-0.953858
-1.05233
-1.12318
-1.15018
-1.13374
-1.07804
-0.998744
-0.916525
-0.843297
-0.780863
-0.7257
-0.66768
-0.616505
-0.571441
-0.532403
-0.498575
-0.469078
-0.443229
-0.420474
-0.4003
-0.382205
-0.365733
-0.350513
-0.336278
-0.322846
-0.310103
-0.29797
-0.286367
-0.275247
-0.264681
-0.254602
-0.24431
-0.32233
-0.337842
-0.351229
-0.363292
-0.374641
-0.384704
-0.391645
-0.392722
-0.38551
-0.367987
-0.343949
-0.326827
-0.741699
-0.993607
-1.06545
-0.65063
-0.834906
-0.85628
-0.973862
-1.14097
-1.26689
-1.33246
-1.33892
-1.29078
-1.20659
-1.11186
-1.0303
-0.93962
-0.849187
-0.766154
-0.691257
-0.627346
-0.573919
-0.529327
-0.491951
-0.460483
-0.433821
-0.410967
-0.391028
-0.373273
-0.357161
-0.342316
-0.328488
-0.315512
-0.303274
-0.291678
-0.28064
-0.270145
-0.26016
-0.250361
-0.293078
-0.306523
-0.317651
-0.32696
-0.334656
-0.339761
-0.340072
-0.332636
-0.314774
-0.284336
-0.245705
-0.213075
-0.731967
-0.849561
-0.864114
-0.71814
-0.759386
-0.779965
-0.997562
-1.22945
-1.41108
-1.51474
-1.54183
-1.49882
-1.40793
-1.3426
-1.34417
-1.17923
-0.958462
-0.848857
-0.752122
-0.671688
-0.606007
-0.552517
-0.508862
-0.473106
-0.443588
-0.418845
-0.397647
-0.379055
-0.362405
-0.347254
-0.333301
-0.320341
-0.308232
-0.296863
-0.286121
-0.275914
-0.266236
-0.257092
-0.2644
-0.275894
-0.284913
-0.291726
-0.296211
-0.297064
-0.291812
-0.277321
-0.250774
-0.209723
-0.158661
-0.111692
-0.201165
-0.346179
-0.419405
-0.611144
-0.537407
-0.737333
-1.0122
-1.3058
-1.53742
-1.67509
-1.72014
-1.68038
-1.65722
-1.64233
-1.49975
-1.30305
-1.03828
-0.906044
-0.792007
-0.699138
-0.624615
-0.56504
-0.517386
-0.479135
-0.448117
-0.422488
-0.400785
-0.381946
-0.365247
-0.350209
-0.336504
-0.323899
-0.312232
-0.301381
-0.29121
-0.281566
-0.272461
-0.264158
-0.236416
-0.246113
-0.253208
-0.257808
-0.259546
-0.256886
-0.24719
-0.227209
-0.194071
-0.14516
-0.0846231
-0.0265106
0.00272488
-0.00740476
-0.230624
-0.436785
-0.433048
-0.685978
-1.00902
-1.35419
-1.62423
-1.79284
-1.85432
-1.95495
-1.91062
-1.76741
-1.60101
-1.27176
-1.07924
-0.930657
-0.805845
-0.705973
-0.626986
-0.564805
-0.51586
-0.477158
-0.446147
-0.420748
-0.399395
-0.380997
-0.364828
-0.350406
-0.337394
-0.325546
-0.314686
-0.304687
-0.295399
-0.286629
-0.278397
-0.271127
-0.209212
-0.2173
-0.222685
-0.22537
-0.224834
-0.219409
-0.206405
-0.182555
-0.145026
-0.0912678
-0.0250958
0.0396913
0.0767469
0.0770522
-0.0213059
-0.122082
-0.333992
-0.62574
-0.981953
-1.35691
-1.65776
-1.86466
-2.08838
-2.07948
-1.97065
-1.81366
-1.59542
-1.25255
-1.07435
-0.918618
-0.791074
-0.690487
-0.61193
-0.550898
-0.503481
-0.466389
-0.436887
-0.412843
-0.392726
-0.3755
-0.360486
-0.347223
-0.335385
-0.324723
-0.315058
-0.306261
-0.298181
-0.290608
-0.283555
-0.277499
-0.182841
-0.189536
-0.193445
-0.194523
-0.192181
-0.184723
-0.169518
-0.143396
-0.103642
-0.0478215
0.0205805
0.0890401
0.134365
-0.039332
0.0641343
-0.158329
-0.434995
-0.59665
-0.922285
-1.3089
-1.61611
-1.90492
-2.08498
-2.05398
-1.93993
-1.77849
-1.40956
-1.19918
-1.02144
-0.869869
-0.748169
-0.653248
-0.579929
-0.523612
-0.480309
-0.446683
-0.420048
-0.398404
-0.380371
-0.365035
-0.351793
-0.34023
-0.330041
-0.320988
-0.312897
-0.305641
-0.299078
-0.29301
-0.287429
-0.282735
-0.157321
-0.162858
-0.165543
-0.165322
-0.161626
-0.152831
-0.136463
-0.109561
-0.0695806
-0.0142271
0.0538269
0.123766
0.180126
-0.215466
0.127645
-0.36497
-0.568335
-0.544071
-0.825038
-1.19839
-1.49551
-1.81798
-1.9548
-1.92487
-1.81416
-1.54453
-1.27212
-1.08984
-0.925674
-0.788894
-0.680662
-0.596978
-0.532974
-0.484298
-0.447173
-0.418488
-0.395828
-0.377476
-0.362279
-0.349482
-0.338578
-0.329208
-0.321102
-0.314042
-0.307865
-0.30245
-0.297675
-0.293383
-0.289527
-0.286307
-0.132642
-0.137265
-0.138986
-0.137772
-0.133146
-0.123651
-0.107066
-0.0807357
-0.0423463
0.0101468
0.0753212
0.143647
0.155291
-0.179473
-0.182219
-0.294676
-0.485564
-0.399017
-0.689568
-1.02819
-1.29375
-1.56957
-1.72444
-1.69821
-1.52823
-1.25761
-1.09477
-0.936819
-0.797558
-0.683667
-0.594426
-0.525973
-0.47412
-0.435053
-0.405478
-0.382738
-0.364859
-0.350488
-0.338736
-0.329016
-0.320923
-0.314159
-0.308497
-0.303745
-0.29976
-0.296427
-0.293655
-0.291351
-0.289417
-0.287741
-0.108767
-0.11272
-0.113738
-0.111828
-0.106666
-0.0970419
-0.0810734
-0.0565126
-0.0213459
0.0261267
0.085623
0.149305
-0.181412
-0.157829
-0.160431
-0.234976
-0.33343
-0.231369
-0.523241
-0.809697
-1.02993
-1.20824
-1.36832
-1.32909
-1.131
-1.01004
-0.880839
-0.757127
-0.650122
-0.563626
-0.496336
-0.44518
-0.406868
-0.378336
-0.356965
-0.34071
-0.328112
-0.31819
-0.310319
-0.304069
-0.299133
-0.295277
-0.292318
-0.290112
-0.288522
-0.287444
-0.286823
-0.286652
-0.286771
-0.286665
-0.0856417
-0.0891551
-0.0897248
-0.0874037
-0.0820607
-0.0728019
-0.0581618
-0.0363833
-0.00583557
0.0348723
0.086325
0.14349
-0.183421
-0.0957521
-0.136581
-0.185393
-0.0693309
-0.102274
-0.337668
-0.55967
-0.726621
-0.835498
-0.88853
-0.879644
-0.821269
-0.741582
-0.652746
-0.568325
-0.495966
-0.437822
-0.392957
-0.359322
-0.334609
-0.316622
-0.303511
-0.293876
-0.286762
-0.281553
-0.277826
-0.275291
-0.273732
-0.272976
-0.272886
-0.273353
-0.274268
-0.275534
-0.277137
-0.279164
-0.281395
-0.282853
-0.0632005
-0.0664801
-0.0668411
-0.0643753
-0.0591644
-0.0506824
-0.0379451
-0.0197456
0.00508809
0.0378087
0.0799303
0.131185
-0.103084
0.221495
-0.0906269
-0.146282
0.0897942
0.0257947
-0.146423
-0.297278
-0.408645
-0.485623
-0.529878
-0.538287
-0.516649
-0.477024
-0.430081
-0.38451
-0.345125
-0.313565
-0.289635
-0.272316
-0.260278
-0.252186
-0.246956
-0.243791
-0.242154
-0.241702
-0.242198
-0.243465
-0.245362
-0.247772
-0.250606
-0.253789
-0.257241
-0.260869
-0.264698
-0.26892
-0.273252
-0.27624
-0.0413799
-0.0445903
-0.0449535
-0.0425849
-0.0377755
-0.030396
-0.0199935
-0.00595724
0.012334
0.0360006
0.0673713
0.103726
0.14706
0.228212
-0.0642125
-0.118854
0.215609
0.118584
0.0262815
-0.0407652
-0.101721
-0.153221
-0.196364
-0.224141
-0.235683
-0.234624
-0.226134
-0.214962
-0.204334
-0.195868
-0.190143
-0.187065
-0.18619
-0.187
-0.189028
-0.191961
-0.195594
-0.199788
-0.204439
-0.209458
-0.21477
-0.220307
-0.226022
-0.231879
-0.23782
-0.243759
-0.249755
-0.2561
-0.262462
-0.266927
-0.0201278
-0.0233776
-0.0239105
-0.0218476
-0.0176632
-0.0116259
-0.00384916
0.0056351
0.0167925
0.0303335
0.0490272
0.0715316
0.12292
0.183777
-0.201659
0.0600131
0.235191
0.049248
0.194588
0.196408
0.177284
0.144277
0.0983212
0.0506944
0.00890803
-0.0236721
-0.0473619
-0.0643101
-0.0771753
-0.0875691
-0.0968011
-0.105569
-0.114172
-0.122716
-0.131245
-0.139784
-0.14835
-0.156945
-0.165555
-0.174163
-0.182745
-0.191279
-0.199754
-0.208167
-0.216483
-0.224622
-0.232675
-0.241019
-0.249289
-0.255164
0.000586901
-0.00273953
-0.00354976
-0.00195681
0.00142856
0.00596723
0.0109725
0.0157317
0.0195048
0.0223129
0.0273696
0.0405703
0.0765687
0.0304419
-0.246517
0.0793582
0.242064
0.139014
0.225231
0.405209
0.418295
0.397294
0.34591
0.279999
0.213063
0.153659
0.104784
0.0658389
0.0351243
0.0101624
-0.0108127
-0.0290834
-0.0455112
-0.0606613
-0.0749067
-0.0884898
-0.101562
-0.114212
-0.126494
-0.13844
-0.150072
-0.161402
-0.17245
-0.183245
-0.193772
-0.203959
-0.213916
-0.224095
-0.234113
-0.241321
0.0207698
0.0174128
0.0162941
0.0173102
0.0197763
0.0227422
0.0249779
0.0250883
0.0216412
0.0138311
0.00525354
0.0043212
0.0296496
-0.363715
-0.292894
-0.200373
-0.0215654
0.252703
0.427097
0.578904
0.617507
0.603897
0.546429
0.46525
0.378831
0.299388
0.232062
0.177262
0.133177
0.0972968
0.0673678
0.0416335
0.0188372
-0.00187709
-0.0210719
-0.0391055
-0.0562019
-0.0725037
-0.0881074
-0.103084
-0.117489
-0.131365
-0.144758
-0.15772
-0.170257
-0.182304
-0.193986
-0.205809
-0.217389
-0.225847
0.0404021
0.0371522
0.0357839
0.0361866
0.0376722
0.0390682
0.0386691
0.0344432
0.024297
0.00688899
-0.0144342
-0.0305744
-0.168391
-0.432066
-0.327458
-0.2288
-0.103618
0.43509
0.551503
0.717492
0.776082
0.767206
0.704509
0.61169
0.511164
0.417577
0.337383
0.271479
0.218014
0.174273
0.137674
0.106152
0.0782168
0.0528622
0.0294416
0.0075499
-0.0130695
-0.0325881
-0.0511308
-0.0687969
-0.0856675
-0.10181
-0.11729
-0.13218
-0.146504
-0.160206
-0.173416
-0.186675
-0.199617
-0.209231
0.059451
0.0565384
0.055077
0.0549106
0.0554169
0.055312
0.0525153
0.044446
0.0284042
0.00257853
-0.030191
-0.0602595
-0.510425
-0.487395
-0.403415
-0.265817
-0.0448438
0.483239
0.642203
0.770793
0.89816
0.893014
0.826779
0.725862
0.615835
0.512858
0.424152
0.350839
0.291011
0.241749
0.200248
0.164266
0.132206
0.103017
0.0760372
0.0508573
0.0272127
0.00491779
-0.0161707
-0.0361718
-0.0551867
-0.0733006
-0.0905958
-0.10716
-0.123033
-0.13817
-0.152703
-0.167185
-0.181286
-0.191961
0.0778873
0.0756285
0.0743264
0.0737205
0.0733113
0.0718274
0.0669398
0.0556404
0.034715
0.0020555
-0.0405025
-0.0820754
-0.554986
-0.533502
-0.450247
-0.308914
0.0744805
0.497285
0.689995
0.832874
0.989444
0.988042
0.920068
0.814151
0.698281
0.589522
0.495527
0.417516
0.353504
0.300426
0.255339
0.215925
0.180572
0.148245
0.11831
0.090376
0.0641826
0.0395389
0.0162905
-0.00569592
-0.0265361
-0.0463298
-0.0651712
-0.0831593
-0.100348
-0.116704
-0.132354
-0.147847
-0.162893
-0.174514
0.0957104
0.0944933
0.0936861
0.0928509
0.0916499
0.0889476
0.0823138
0.0684582
0.043787
0.00618093
-0.0436997
-0.0941416
-0.476747
-0.304514
-0.494431
-0.349023
0.118322
0.494408
0.723891
0.883599
1.05521
1.05841
0.990262
0.881937
0.763014
0.651115
0.554127
0.473316
0.406643
0.350953
0.303243
0.261193
0.223227
0.188365
0.156017
0.125819
0.0975224
0.0709353
0.0458968
0.0222649
-8.64576e-05
-0.021267
-0.0413797
-0.0605313
-0.0787901
-0.0961364
-0.112692
-0.129001
-0.144825
-0.1573
0.112975
0.113236
0.113318
0.112529
0.110711
0.106976
0.0989485
0.0832027
0.0559318
0.0147617
-0.0400348
-0.168273
-0.194791
-0.160014
-0.292795
-0.37446
0.166796
0.459089
0.747815
0.915006
1.09085
1.1084
1.04168
0.933236
0.813421
0.700317
0.601954
0.519646
0.451351
0.393893
0.34427
0.300205
0.260193
0.223317
0.18904
0.157024
0.127034
0.0988782
0.0723928
0.0474296
0.0238554
0.00155253
-0.019588
-0.0396778
-0.058795
-0.0769311
-0.0941898
-0.111082
-0.127426
-0.140436
0.129817
0.132011
0.133398
0.132968
0.130747
0.126178
0.117092
0.100066
0.0712653
0.0277246
-0.0412717
-0.196182
-0.16502
-0.170964
-0.167161
-0.283663
0.21547
0.461228
0.746109
0.969107
1.05901
1.14064
1.0772
0.970747
0.851808
0.738989
0.640429
0.557536
0.488341
0.429717
0.378719
0.333145
0.291566
0.253136
0.217361
0.183931
0.15262
0.12324
0.0956251
0.0696232
0.0450968
0.0219241
-5.89657e-06
-0.0208036
-0.0405527
-0.0592618
-0.0770099
-0.0942226
-0.110837
-0.124581
0.146468
0.151031
0.15412
0.154365
0.151969
0.146768
0.136934
0.119182
0.0898456
0.045283
-0.0499569
-0.184273
-0.160394
-0.276586
-0.292984
-0.0490633
0.195262
0.443861
0.730569
0.96919
1.062
1.15799
1.09891
0.996203
0.879619
0.768305
0.670479
0.587693
0.518137
0.45881
0.406875
0.360219
0.317496
0.27792
0.241038
0.206561
0.174273
0.143989
0.115542
0.0887803
0.0635633
0.039766
0.0172743
-0.00402483
-0.0242236
-0.0433558
-0.0615087
-0.0790315
-0.0959025
-0.110403
0.163255
0.170564
0.175681
0.176882
0.174536
0.168901
0.158599
0.140633
0.111646
0.0677209
-0.0166593
-0.164481
-0.14662
-0.327881
-0.297869
-0.0520223
0.167092
0.413223
0.708055
0.959071
1.05705
1.1624
1.10843
1.01035
0.897577
0.788883
0.69263
0.610564
0.541113
0.481487
0.428999
0.381646
0.338161
0.297812
0.26018
0.224992
0.19204
0.16114
0.132127
0.104845
0.0791534
0.054922
0.0320329
0.0103704
-0.0101637
-0.0296104
-0.0480499
-0.0658006
-0.0828442
-0.0976361
0.180583
0.190908
0.198268
0.200633
0.198535
0.192659
0.182138
0.164401
0.136424
0.0943279
0.0332795
-0.127215
-0.113077
-0.21779
-0.29498
-0.0566726
0.13875
0.355046
0.682383
0.948137
1.0411
1.12007
1.10639
1.0137
0.905864
0.800918
0.707112
0.626396
0.557527
0.498002
0.445335
0.397652
0.353764
0.312992
0.274939
0.23935
0.20602
0.17477
0.145433
0.117855
0.0918937
0.0674215
0.0443225
0.0224868
0.00181613
-0.0177402
-0.036239
-0.0539393
-0.0709153
-0.0859645
0.198884
0.21235
0.222024
0.225667
0.223977
0.218042
0.207528
0.190391
0.163916
0.124376
0.0701787
-0.0098222
-0.0618532
-0.104257
-0.161444
-0.0277925
0.0905887
0.320564
0.645012
0.928248
1.02066
1.0652
1.08999
1.00604
0.904323
0.804369
0.713957
0.635308
0.56756
0.508574
0.456117
0.408469
0.364531
0.323666
0.285508
0.249811
0.216377
0.18503
0.155608
0.127959
0.101944
0.0774357
0.0543212
0.0324948
0.0118567
-0.00766649
-0.0261298
-0.0436889
-0.0604749
-0.0759196
0.218559
0.235113
0.247014
0.251949
0.250786
0.244973
0.234695
0.21848
0.193947
0.157515
0.106858
0.0427719
-0.0222116
-0.069914
-0.0746327
-0.0138034
0.0787429
0.300761
0.596796
0.89798
1.04344
1.03821
1.06155
0.987905
0.892822
0.799064
0.713128
0.637378
0.57137
0.513411
0.461581
0.414343
0.3707
0.330067
0.292104
0.256578
0.223298
0.192094
0.162805
0.135284
0.109393
0.0850073
0.0620114
0.0403007
0.0197762
0.000352659
-0.0180323
-0.0354561
-0.0520347
-0.067725
0.239894
0.259296
0.273192
0.279351
0.278808
0.273312
0.263523
0.248527
0.226287
0.193294
0.146453
0.0853803
0.0198278
-0.0325913
-0.0467347
-0.00125469