/*--------------------------------*- C++ -*----------------------------------*\
  =========                 |
  \\      /  F ield         | OpenFOAM: The Open Source CFD Toolbox
   \\    /   O peration     | Website:  https://openfoam.org
    \\  /    A nd           | Version:  9
     \\/     M anipulation  |
\*---------------------------------------------------------------------------*/
FoamFile
{
    format      ascii;
    class       surfaceScalarField;
    location    "0.19";
    object      phi;
}
// * * * * * * * * * * * * * * * * * * * * * * * * * * * * * * * * * * * * * //

dimensions      [0 3 -1 0 0 0 0];

internalField   nonuniform List<scalar> 
9850
(
-1.0147e-06
1.8876e-05
-1.08477e-06
1.91071e-05
-1.14348e-06
1.99244e-05
-1.18366e-06
2.09149e-05
-1.19715e-06
2.17584e-05
-1.17053e-06
2.23445e-05
-1.09079e-06
2.27111e-05
-9.42571e-07
2.30786e-05
-6.39639e-07
2.36225e-05
-5.28643e-08
2.31293e-05
7.71374e-07
1.85194e-05
1.23161e-06
9.49383e-06
2.9847e-07
4.31574e-06
-1.28591e-07
1.10283e-06
-3.19516e-07
2.29825e-07
-3.90231e-07
6.70104e-08
-4.10362e-07
2.80276e-08
-4.04893e-07
-7.18382e-08
-3.77869e-07
-2.48757e-07
-3.24544e-07
-4.69157e-07
-2.5769e-07
-5.48424e-07
-1.76069e-07
-6.28499e-07
-9.23547e-08
-6.33165e-07
-2.34316e-08
-5.56038e-07
1.78193e-08
-4.14334e-07
2.69617e-08
-2.41266e-07
5.5177e-09
-7.06892e-08
-4.73362e-08
8.14102e-08
-1.36108e-07
2.54554e-07
-2.5848e-07
5.81267e-07
-3.92439e-07
1.25369e-06
-3.8222e-07
1.91409e-06
-2.42882e-08
4.38419e-06
4.25958e-07
6.40338e-06
8.36351e-07
7.84841e-06
1.13662e-06
8.55396e-06
1.31623e-06
8.60972e-06
1.40626e-06
8.25492e-06
1.44655e-06
7.73148e-06
1.46513e-06
7.19321e-06
1.47501e-06
6.70187e-06
1.47984e-06
6.26524e-06
1.47989e-06
5.87267e-06
1.47515e-06
5.51316e-06
1.46618e-06
5.18002e-06
1.45387e-06
4.86992e-06
1.43908e-06
4.58108e-06
1.4225e-06
4.31207e-06
1.40472e-06
4.06117e-06
3.82522e-06
-9.24448e-07
1.89345e-05
-9.76544e-07
1.91592e-05
-1.01222e-06
1.996e-05
-1.02461e-06
2.09273e-05
-1.00506e-06
2.17388e-05
-9.38692e-07
2.22782e-05
-8.08061e-07
2.25805e-05
-5.85849e-07
2.28564e-05
-1.75123e-07
2.32118e-05
5.91122e-07
2.23631e-05
1.5436e-06
1.75669e-05
2.12113e-06
8.9163e-06
6.74993e-07
5.76187e-06
2.78659e-08
1.74996e-06
-2.35402e-07
4.93094e-07
-3.24173e-07
1.55781e-07
-3.52742e-07
5.65965e-08
-3.51246e-07
-7.33348e-08
-3.2745e-07
-2.72552e-07
-2.78688e-07
-5.17919e-07
-2.17277e-07
-6.09835e-07
-1.43166e-07
-7.02611e-07
-7.04542e-08
-7.05876e-07
-1.75937e-08
-6.08898e-07
2.9421e-09
-4.3487e-07
-9.90645e-09
-2.28417e-07
-5.16108e-08
-2.89848e-08
-1.27622e-07
1.57422e-07
-2.59043e-07
3.85975e-07
-4.45383e-07
7.67607e-07
-6.98252e-07
1.50656e-06
-6.87623e-07
1.90346e-06
-4.17671e-07
4.11424e-06
-3.858e-08
6.02429e-06
3.37392e-07
7.47243e-06
6.29069e-07
8.26229e-06
8.21188e-07
8.4176e-06
9.33135e-07
8.14297e-06
9.94975e-07
7.66964e-06
1.03093e-06
7.15725e-06
1.05431e-06
6.67849e-06
1.07025e-06
6.2493e-06
1.08011e-06
5.86281e-06
1.08436e-06
5.50891e-06
1.08364e-06
5.18074e-06
1.07878e-06
4.87478e-06
1.07065e-06
4.5892e-06
1.06013e-06
4.32259e-06
1.04895e-06
4.07235e-06
3.83389e-06
-8.37941e-07
1.89812e-05
-8.73799e-07
1.91951e-05
-8.89378e-07
1.99756e-05
-8.78643e-07
2.09166e-05
-8.33341e-07
2.16935e-05
-7.39154e-07
2.2184e-05
-5.77891e-07
2.24192e-05
-3.1667e-07
2.25952e-05
1.24451e-07
2.27707e-05
9.1117e-07
2.15763e-05
1.85615e-06
1.66219e-05
2.28792e-06
8.48452e-06
1.24912e-06
6.80068e-06
3.5578e-07
2.64329e-06
-3.29568e-08
8.81831e-07
-1.85377e-07
3.08202e-07
-2.45353e-07
1.16573e-07
-2.61349e-07
-5.73389e-08
-2.48504e-07
-2.85397e-07
-2.10535e-07
-5.55889e-07
-1.61737e-07
-6.58633e-07
-1.05029e-07
-7.59318e-07
-5.44728e-08
-7.56433e-07
-2.83377e-08
-6.35033e-07
-3.76973e-08
-4.2551e-07
-7.98433e-08
-1.86271e-07
-1.4876e-07
3.99316e-08
-2.50697e-07
2.59359e-07
-4.10614e-07
5.45891e-07
-6.29082e-07
9.86075e-07
-6.68113e-07
1.54559e-06
-7.85008e-07
2.02036e-06
-6.66917e-07
3.99614e-06
-3.32629e-07
5.69001e-06
-1.47475e-08
7.15455e-06
2.38888e-07
8.00865e-06
4.18013e-07
8.23848e-06
5.32436e-07
8.02855e-06
6.02824e-07
7.59925e-06
6.4767e-07
7.1124e-06
6.78531e-07
6.64762e-06
7.00808e-07
6.22702e-06
7.16502e-07
5.84712e-06
7.26435e-07
5.49897e-06
7.3129e-07
5.17589e-06
7.31842e-07
4.87423e-06
7.28947e-07
4.5921e-06
7.23997e-07
4.32754e-06
7.20868e-07
4.07547e-06
3.83095e-06
-7.55959e-07
1.90175e-05
-7.77778e-07
1.92169e-05
-7.76538e-07
1.99744e-05
-7.47705e-07
2.08877e-05
-6.84365e-07
2.16302e-05
-5.74359e-07
2.2074e-05
-4.03531e-07
2.22484e-05
-1.4102e-07
2.23327e-05
2.6453e-07
2.23651e-05
9.27663e-07
2.09132e-05
1.64217e-06
1.59074e-05
1.96761e-06
8.15908e-06
2.13009e-06
6.6382e-06
8.51247e-07
3.92213e-06
2.78429e-07
1.45465e-06
4.81939e-08
5.38437e-07
-6.34016e-08
2.28168e-07
-1.17778e-07
-2.96243e-09
-1.33978e-07
-2.69198e-07
-1.22591e-07
-5.67275e-07
-1.00151e-07
-6.81073e-07
-7.53655e-08
-7.84104e-07
-5.97717e-08
-7.72027e-07
-6.93411e-08
-6.25464e-07
-1.14573e-07
-3.80278e-07
-1.91753e-07
-1.09092e-07
-2.90482e-07
1.38661e-07
-4.14062e-07
3.8294e-07
-5.30483e-07
6.62312e-07
-7.38114e-07
1.19371e-06
-5.64954e-07
1.37243e-06
-6.63054e-07
2.11846e-06
-5.79745e-07
3.91284e-06
-4.29119e-07
5.53938e-06
-2.29037e-07
6.95447e-06
-4.49079e-08
7.82452e-06
9.63831e-08
8.09719e-06
1.96485e-07
7.92845e-06
2.64312e-07
7.53143e-06
3.10782e-07
7.06594e-06
3.44084e-07
6.61432e-06
3.68839e-07
6.20227e-06
3.87173e-07
5.82878e-06
4.00091e-07
5.48605e-06
4.08326e-07
5.16765e-06
4.12664e-07
4.86989e-06
4.14207e-07
4.59055e-06
4.15695e-07
4.32606e-06
4.23881e-07
4.06729e-06
3.81409e-06
-6.79024e-07
1.90449e-05
-6.89083e-07
1.92269e-05
-6.74323e-07
1.99596e-05
-6.32266e-07
2.08457e-05
-5.58127e-07
2.1556e-05
-4.42625e-07
2.19585e-05
-2.78525e-07
2.20843e-05
-4.6062e-08
2.21002e-05
3.02081e-07
2.2017e-05
8.02561e-07
2.04127e-05
1.26528e-06
1.54447e-05
1.58601e-06
7.83835e-06
2.46517e-06
5.75903e-06
1.3615e-06
5.0258e-06
7.43738e-07
2.07241e-06
3.99485e-07
8.8269e-07
2.11337e-07
4.16315e-07
9.09047e-08
1.1747e-07
1.83775e-08
-1.96671e-07
-1.91865e-08
-5.29711e-07
-3.9015e-08
-6.61245e-07
-6.04058e-08
-7.62713e-07
-8.85782e-08
-7.43854e-07
-1.3682e-07
-5.77222e-07
-2.16928e-07
-3.00171e-07
-3.21012e-07
-5.00721e-09
-4.29631e-07
2.4728e-07
-5.17683e-07
4.70991e-07
-5.94672e-07
7.393e-07
-5.07804e-07
1.10684e-06
-3.62416e-07
1.22704e-06
-4.65402e-07
2.22144e-06
-4.70991e-07
3.91843e-06
-4.57464e-07
5.52585e-06
-3.78235e-07
6.87524e-06
-2.73573e-07
7.71986e-06
-1.73571e-07
7.99718e-06
-9.28422e-08
7.84772e-06
-3.25617e-08
7.47114e-06
1.14654e-08
7.02191e-06
4.4191e-08
6.5816e-06
6.90041e-08
6.17745e-06
8.77835e-08
5.81e-06
1.01492e-07
5.47235e-06
1.10722e-07
5.15843e-06
1.16004e-07
4.86461e-06
1.184e-07
4.58816e-06
1.22025e-07
4.32243e-06
1.39719e-07
4.04959e-06
3.7438e-06
-6.07301e-07
1.9065e-05
-6.07818e-07
1.92275e-05
-5.82621e-07
1.99344e-05
-5.31591e-07
2.07947e-05
-4.52567e-07
2.1477e-05
-3.39054e-07
2.1845e-05
-1.88781e-07
2.1934e-05
9.74471e-09
2.19017e-05
2.94581e-07
2.17322e-05
6.40481e-07
2.00668e-05
9.48697e-07
1.51365e-05
1.1922e-06
7.59486e-06
2.01963e-06
4.93159e-06
1.65188e-06
5.39355e-06
1.32008e-06
2.40422e-06
8.85121e-07
1.31765e-06
5.71031e-07
7.30405e-07
3.47424e-07
3.41078e-07
1.91892e-07
-4.11394e-08
8.69176e-08
-4.24736e-07
1.4796e-08
-5.89123e-07
-5.90431e-08
-6.88874e-07
-1.31793e-07
-6.71104e-07
-2.11668e-07
-4.97347e-07
-3.09703e-07
-2.02136e-07
-4.07018e-07
9.23083e-08
-4.53493e-07
2.93755e-07
-3.58751e-07
3.7625e-07
9.72958e-09
3.70819e-07
-6.25416e-09
1.12282e-06
-1.70642e-07
1.39143e-06
-3.45019e-07
2.39582e-06
-4.61993e-07
4.0354e-06
-5.33147e-07
5.59701e-06
-5.33654e-07
6.87575e-06
-4.8487e-07
7.67107e-06
-4.18352e-07
7.93067e-06
-3.54189e-07
7.78355e-06
-3.00962e-07
7.41792e-06
-2.59621e-07
6.98057e-06
-2.28061e-07
6.55004e-06
-2.03844e-07
6.15324e-06
-1.85283e-07
5.79144e-06
-1.71407e-07
5.45847e-06
-1.61661e-07
5.14868e-06
-1.55536e-07
4.85848e-06
-1.51292e-07
4.58391e-06
-1.42072e-07
4.31321e-06
-1.09403e-07
4.01692e-06
3.64154e-06
-5.40597e-07
1.90795e-05
-5.33686e-07
1.92205e-05
-5.0079e-07
1.99015e-05
-4.44224e-07
2.07381e-05
-3.64587e-07
2.13974e-05
-2.57961e-07
2.17383e-05
-1.24564e-07
2.18006e-05
3.98918e-08
2.17372e-05
2.69248e-07
2.15028e-05
5.08105e-07
1.9828e-05
7.46135e-07
1.48985e-05
9.12706e-07
7.42828e-06
1.54456e-06
4.29974e-06
2.16061e-06
4.7775e-06
1.77485e-06
2.78998e-06
1.30573e-06
1.78677e-06
8.88545e-07
1.14759e-06
5.74733e-07
6.54891e-07
3.43694e-07
1.89899e-07
1.7869e-07
-2.59733e-07
6.00719e-08
-4.70505e-07
-6.49843e-08
-5.63818e-07
-1.80153e-07
-5.55936e-07
-2.80532e-07
-3.96969e-07
-3.6332e-07
-1.19348e-07
-3.98373e-07
1.27361e-07
-3.40497e-07
2.3588e-07
2.25472e-07
-1.8972e-07
-9.95486e-08
6.9584e-07
-1.46663e-07
1.16994e-06
-2.2373e-07
1.46849e-06
-4.64167e-07
2.63626e-06
-5.93478e-07
4.16471e-06
-6.80909e-07
5.68444e-06
-7.15488e-07
6.91033e-06
-6.97561e-07
7.65315e-06
-6.50458e-07
7.88356e-06
-5.96214e-07
7.72931e-06
-5.47304e-07
7.36901e-06
-5.07773e-07
6.94104e-06
-4.77092e-07
6.51936e-06
-4.5337e-07
6.12952e-06
-4.34952e-07
5.77302e-06
-4.20774e-07
5.44429e-06
-4.10222e-07
5.13813e-06
-4.02571e-07
4.85083e-06
-3.94933e-07
4.57628e-06
-3.78419e-07
4.2967e-06
-3.37887e-07
3.97639e-06
3.57706e-06
-4.78511e-07
1.90901e-05
-4.66087e-07
1.92081e-05
-4.2781e-07
1.98632e-05
-3.68399e-07
2.06787e-05
-2.91054e-07
2.132e-05
-1.94243e-07
2.16415e-05
-7.92082e-08
2.16856e-05
5.37538e-08
2.16043e-05
2.36859e-07
2.13197e-05
4.16291e-07
1.96485e-05
6.13291e-07
1.47015e-05
7.06601e-07
7.33497e-06
1.12081e-06
3.88554e-06
1.71256e-06
4.18575e-06
1.74013e-06
2.7624e-06
1.39736e-06
2.12954e-06
9.4284e-07
1.60211e-06
6.44783e-07
9.52948e-07
4.17517e-07
4.17165e-07
2.46856e-07
-8.90716e-08
1.07833e-07
-3.31482e-07
-6.28121e-08
-3.93172e-07
-2.26603e-07
-3.92145e-07
-3.40543e-07
-2.83028e-07
-4.18852e-07
-4.10382e-08
-3.96946e-07
1.05455e-07
-1.21182e-07
-3.98843e-08
-3.99634e-07
8.87324e-08
-3.55488e-07
6.51694e-07
-2.42042e-07
1.05649e-06
-3.61917e-07
1.58837e-06
-5.53965e-07
2.82831e-06
-7.30424e-07
4.34117e-06
-8.36647e-07
5.79066e-06
-8.93604e-07
6.96728e-06
-8.96499e-07
7.65604e-06
-8.63505e-07
7.85057e-06
-8.17026e-07
7.68283e-06
-7.71972e-07
7.32395e-06
-7.34439e-07
6.9035e-06
-7.05011e-07
6.48993e-06
-6.8218e-07
6.10668e-06
-6.64332e-07
5.75517e-06
-6.50396e-07
5.43036e-06
-6.39732e-07
5.12746e-06
-6.31098e-07
4.8422e-06
-6.20123e-07
4.5653e-06
-5.97583e-07
4.27416e-06
-5.56602e-07
3.93541e-06
3.53944e-06
-4.20493e-07
1.90981e-05
-4.04241e-07
1.91919e-05
-3.62467e-07
1.98215e-05
-3.02266e-07
2.06185e-05
-2.29203e-07
2.1247e-05
-1.43795e-07
2.15561e-05
-4.72599e-08
2.1589e-05
5.94325e-08
2.14976e-05
2.04591e-07
2.11745e-05
3.62839e-07
1.94903e-05
5.05854e-07
1.45585e-05
5.09346e-07
7.33148e-06
6.69162e-07
3.72572e-06
1.15195e-06
3.70296e-06
1.27029e-06
2.64407e-06
1.1012e-06
2.29863e-06
4.97397e-07
2.20591e-06
5.35761e-07
9.14584e-07
4.17657e-07
5.35268e-07
3.01343e-07
2.72433e-08
1.7791e-07
-2.08049e-07
-2.19142e-08
-1.93348e-07
-2.21358e-07
-1.92701e-07
-3.5313e-07
-1.51257e-07
-4.37566e-07
4.33979e-08
-9.58547e-07
6.26435e-07
-5.53312e-07
-4.4512e-07
-3.22793e-07
-1.41786e-07
-1.70876e-07
4.99777e-07
-1.86737e-07
1.07235e-06
-3.78597e-07
1.78023e-06
-5.72442e-07
3.02215e-06
-7.91284e-07
4.56001e-06
-9.48559e-07
5.94793e-06
-1.03877e-06
7.05749e-06
-1.06635e-06
7.68363e-06
-1.04971e-06
7.83393e-06
-1.0132e-06
7.64632e-06
-9.74081e-07
7.28483e-06
-9.40257e-07
6.86968e-06
-9.13333e-07
6.463e-06
-8.92256e-07
6.08561e-06
-8.75595e-07
5.73851e-06
-8.6236e-07
5.41712e-06
-8.51723e-07
5.11683e-06
-8.4143e-07
4.83191e-06
-8.25579e-07
4.54945e-06
-7.96269e-07
4.24485e-06
-7.55108e-07
3.89425e-06
3.51361e-06
-3.65899e-07
1.91049e-05
-3.47257e-07
1.91732e-05
-3.03482e-07
1.97777e-05
-2.43998e-07
2.0559e-05
-1.7655e-07
2.11795e-05
-1.03286e-07
2.14829e-05
-2.52641e-08
2.1511e-05
5.90439e-08
2.14133e-05
1.73925e-07
2.10596e-05
3.24932e-07
1.93393e-05
4.20973e-07
1.44624e-05
3.42585e-07
7.40987e-06
3.30334e-07
3.73797e-06
6.4988e-07
3.38341e-06
6.73368e-07
2.62058e-06
5.51728e-07
2.42027e-06
5.43991e-07
2.21365e-06
2.25303e-07
1.23327e-06
4.60972e-07
2.99599e-07
3.16618e-07
1.71598e-07
2.27089e-07
-1.1852e-07
7.45741e-08
-4.08339e-08
-5.65715e-08
-6.15554e-08
5.85667e-09
-2.13685e-07
-2.53469e-08
7.46014e-08
3.8714e-07
2.13948e-07
1.81696e-07
-2.39676e-07
7.59203e-08
-3.60108e-08
5.05114e-08
5.25186e-07
-5.43323e-08
1.1772e-06
-2.95606e-07
2.0215e-06
-5.3249e-07
3.25903e-06
-8.16369e-07
4.84389e-06
-1.03205e-06
6.16362e-06
-1.16071e-06
7.18615e-06
-1.21398e-06
7.7369e-06
-1.21458e-06
7.83453e-06
-1.18943e-06
7.62117e-06
-1.15778e-06
7.25318e-06
-1.12897e-06
6.84088e-06
-1.10549e-06
6.43952e-06
-1.08676e-06
6.06687e-06
-1.0716e-06
5.72336e-06
-1.0591e-06
5.40462e-06
-1.04797e-06
5.10569e-06
-1.03466e-06
4.8186e-06
-1.01257e-06
4.52736e-06
-9.77059e-07
4.20934e-06
-9.36854e-07
3.85405e-06
3.4944e-06
-3.14047e-07
1.91115e-05
-2.94189e-07
1.91534e-05
-2.49564e-07
1.97331e-05
-1.91823e-07
2.05012e-05
-1.3081e-07
2.11185e-05
-7.00862e-08
2.14221e-05
-1.05565e-08
2.14515e-05
5.11711e-08
2.13515e-05
1.38137e-07
2.09727e-05
2.67357e-07
1.92101e-05
3.40873e-07
1.43889e-05
1.93244e-07
7.55749e-06
3.18308e-08
3.89938e-06
1.36639e-07
3.2786e-06
1.57103e-07
2.60011e-06
2.39619e-07
2.33775e-06
4.11533e-07
2.04173e-06
5.72284e-07
1.07252e-06
5.48306e-07
3.23578e-07
3.17914e-07
4.01989e-07
1.91637e-07
7.75705e-09
1.30779e-07
2.00242e-08
7.09051e-08
-1.68202e-09
4.7861e-09
-1.47566e-07
1.77977e-07
-9.85899e-08
4.8045e-07
-8.85249e-08
4.18682e-07
-1.77908e-07
2.97568e-07
8.51036e-08
1.6839e-07
6.54364e-07
-3.01262e-08
1.37571e-06
-3.25845e-07
2.31722e-06
-5.86457e-07
3.51965e-06
-8.90826e-07
5.14826e-06
-1.13821e-06
6.411e-06
-1.29135e-06
7.33928e-06
-1.3612e-06
7.80676e-06
-1.37386e-06
7.84718e-06
-1.35736e-06
7.60467e-06
-1.33192e-06
7.22774e-06
-1.30757e-06
6.81653e-06
-1.28722e-06
6.41918e-06
-1.27061e-06
6.05026e-06
-1.25676e-06
5.7095e-06
-1.2446e-06
5.39247e-06
-1.232e-06
5.09308e-06
-1.2141e-06
4.80069e-06
-1.18472e-06
4.49798e-06
-1.14371e-06
4.16832e-06
-1.10487e-06
3.81521e-06
3.47927e-06
-2.64263e-07
1.91188e-05
-2.44096e-07
1.91332e-05
-1.99435e-07
1.96884e-05
-1.44031e-07
2.04458e-05
-8.98765e-08
2.10644e-05
-4.29125e-08
2.13752e-05
-1.36754e-09
2.14099e-05
3.55776e-08
2.13146e-05
9.28988e-08
2.09154e-05
1.90112e-07
1.91128e-05
2.35687e-07
1.43433e-05
4.49331e-08
7.74825e-06
-2.78842e-07
4.22316e-06
-3.23167e-07
3.32293e-06
-3.06217e-07
2.58316e-06
-1.4208e-07
2.17361e-06
1.48431e-07
1.75122e-06
2.83949e-07
9.37e-07
2.16625e-07
3.90901e-07
2.81593e-07
3.37022e-07
2.17199e-07
7.21502e-08
2.05577e-07
3.16465e-08
2.58251e-07
-5.43568e-08
2.80568e-07
-1.69883e-07
4.05925e-07
-2.23948e-07
5.49582e-07
-2.32182e-07
5.24333e-07
-1.52659e-07
4.04823e-07
2.04613e-07
2.15471e-07
8.43716e-07
-7.02089e-08
1.66139e-06
-4.18647e-07
2.66566e-06
-7.36679e-07
3.83768e-06
-1.03025e-06
5.44184e-06
-1.2831e-06
6.66385e-06
-1.44462e-06
7.5008e-06
-1.52083e-06
7.88297e-06
-1.53843e-06
7.86478e-06
-1.52606e-06
7.5923e-06
-1.50403e-06
7.20571e-06
-1.48237e-06
6.79487e-06
-1.46403e-06
6.40084e-06
-1.44884e-06
6.03507e-06
-1.43581e-06
5.69647e-06
-1.42336e-06
5.38002e-06
-1.40799e-06
5.07772e-06
-1.38377e-06
4.77647e-06
-1.34621e-06
4.46043e-06
-1.30021e-06
4.12233e-06
-1.26265e-06
3.77765e-06
3.4667e-06
-2.15898e-07
1.91273e-05
-1.96077e-07
1.91134e-05
-1.51855e-07
1.96442e-05
-9.89523e-08
2.03929e-05
-5.1494e-08
2.10169e-05
-1.58029e-08
2.13395e-05
5.57534e-09
2.13886e-05
1.57266e-08
2.13044e-05
4.00201e-08
2.08911e-05
8.90113e-08
1.90638e-05
1.05434e-07
1.43269e-05
-1.34971e-07
7.98865e-06
-5.49735e-07
4.63792e-06
-6.7638e-07
3.44957e-06
-6.61307e-07
2.56809e-06
-4.94004e-07
2.00631e-06
-2.0217e-07
1.45939e-06
-4.5144e-08
7.79974e-07
3.20902e-08
3.13667e-07
1.65269e-07
2.03842e-07
2.17583e-07
1.98352e-08
2.92249e-07
-4.30199e-08
3.59459e-07
-1.21566e-07
4.15438e-07
-2.25863e-07
4.91357e-07
-2.99866e-07
5.6117e-07
-3.01995e-07
5.485e-07
-1.3999e-07
4.44168e-07
3.08946e-07
2.36687e-07
1.0512e-06
-8.26064e-08
1.98069e-06
-4.66877e-07
3.04993e-06
-8.63203e-07
4.234e-06
-1.17736e-06
5.75599e-06
-1.44067e-06
6.92716e-06
-1.60873e-06
7.66885e-06
-1.68806e-06
7.9623e-06
-1.70742e-06
7.88414e-06
-1.69663e-06
7.58151e-06
-1.67618e-06
7.18526e-06
-1.65592e-06
6.77461e-06
-1.63874e-06
6.38366e-06
-1.62446e-06
6.02079e-06
-1.61181e-06
5.68382e-06
-1.59815e-06
5.36636e-06
-1.5783e-06
5.05786e-06
-1.54595e-06
4.74412e-06
-1.49983e-06
4.41431e-06
-1.44992e-06
4.07242e-06
-1.4141e-06
3.74183e-06
3.45621e-06
-1.68345e-07
1.91376e-05
-1.49305e-07
1.90943e-05
-1.05655e-07
1.96005e-05
-5.52812e-08
2.03426e-05
-1.34516e-08
2.09751e-05
1.03519e-08
2.13157e-05
1.34685e-08
2.13854e-05
-3.16522e-09
2.13211e-05
-1.90087e-08
2.09069e-05
-1.85246e-08
1.90634e-05
-3.7834e-08
1.43462e-05
-3.26663e-07
8.27748e-06
-7.52813e-07
5.06407e-06
-9.10153e-07
3.60691e-06
-9.02188e-07
2.56012e-06
-7.52353e-07
1.85647e-06
-4.74259e-07
1.18129e-06
-2.40776e-07
5.4649e-07
-6.56728e-08
1.38563e-07
1.4009e-07
-1.92043e-09
2.58997e-07
-9.90731e-08
3.61195e-07
-1.45217e-07
4.39987e-07
-2.00359e-07
4.91333e-07
-2.77209e-07
5.34932e-07
-3.43465e-07
5.66008e-07
-3.33071e-07
5.47857e-07
-1.2184e-07
4.43836e-07
4.12967e-07
2.29496e-07
1.26554e-06
-1.01026e-07
2.31121e-06
-5.09757e-07
3.45866e-06
-9.68129e-07
4.69238e-06
-1.3211e-06
6.10897e-06
-1.59939e-06
7.20544e-06
-1.77439e-06
7.84385e-06
-1.85621e-06
8.04413e-06
-1.87648e-06
7.90441e-06
-1.86654e-06
7.57156e-06
-1.84707e-06
7.1658e-06
-1.82778e-06
6.75531e-06
-1.81145e-06
6.36733e-06
-1.79778e-06
6.00712e-06
-1.78481e-06
5.67085e-06
-1.76824e-06
5.34979e-06
-1.74146e-06
5.03108e-06
-1.69942e-06
4.70208e-06
-1.64555e-06
4.36044e-06
-1.59398e-06
4.02085e-06
-1.5612e-06
3.70904e-06
3.44781e-06
-1.2105e-07
1.91498e-05
-1.03011e-07
1.90763e-05
-5.9702e-08
1.95572e-05
-1.06791e-08
2.02935e-05
2.60022e-08
2.09384e-05
3.9825e-08
2.13018e-05
2.65732e-08
2.13987e-05
-1.44956e-08
2.13621e-05
-7.1749e-08
2.09642e-05
-1.25743e-07
1.91174e-05
-1.77882e-07
1.43983e-05
-5.08595e-07
8.60819e-06
-8.99051e-07
5.45453e-06
-1.06739e-06
3.77524e-06
-1.05002e-06
2.54276e-06
-9.08499e-07
1.71495e-06
-6.1946e-07
8.92254e-07
-3.39246e-07
2.66275e-07
-9.95185e-08
-1.01164e-07
1.40226e-07
-2.41665e-07
2.92998e-07
-2.51846e-07
4.09131e-07
-2.61351e-07
4.88196e-07
-2.79424e-07
5.33627e-07
-3.2264e-07
5.59081e-07
-3.68919e-07
5.65678e-07
-3.39669e-07
5.28227e-07
-8.43885e-08
4.06904e-07
5.3429e-07
1.73977e-07
1.49846e-06
-1.72907e-07
2.65809e-06
-6.03994e-07
3.88975e-06
-1.08595e-06
5.17433e-06
-1.47784e-06
6.50086e-06
-1.77008e-06
7.49768e-06
-1.9473e-06
8.02107e-06
-2.02745e-06
8.12429e-06
-2.046e-06
7.92295e-06
-2.03541e-06
7.56098e-06
-2.0161e-06
7.14648e-06
-1.99726e-06
6.73648e-06
-1.98139e-06
6.35146e-06
-1.96772e-06
5.99345e-06
-1.95297e-06
5.6561e-06
-1.93108e-06
5.32791e-06
-1.89531e-06
4.9953e-06
-1.84406e-06
4.65083e-06
-1.78606e-06
4.30244e-06
-1.73724e-06
3.97203e-06
-1.70984e-06
3.68164e-06
3.44164e-06
-7.35188e-08
1.91639e-05
-5.64307e-08
1.90592e-05
-1.32292e-08
1.9514e-05
3.52466e-08
2.02451e-05
6.8914e-08
2.09047e-05
7.54451e-08
2.12953e-05
4.94606e-08
2.14247e-05
-1.08102e-08
2.14224e-05
-9.93112e-08
2.10527e-05
-1.82578e-07
1.92006e-05
-2.87785e-07
1.45036e-05
-6.64494e-07
8.9849e-06
-1.03478e-06
5.82481e-06
-1.19278e-06
3.93324e-06
-1.1825e-06
2.53249e-06
-9.79289e-07
1.51174e-06
-6.80176e-07
5.9314e-07
-3.91806e-07
-2.20955e-08
-1.33794e-07
-3.59177e-07
1.09196e-07
-4.84656e-07
2.73906e-07
-4.16556e-07
3.98391e-07
-3.85837e-07
4.81879e-07
-3.62912e-07
5.27404e-07
-3.68165e-07
5.44125e-07
-3.85641e-07
5.33275e-07
-3.28818e-07
4.71713e-07
-2.28274e-08
3.18997e-07
6.87007e-07
5.02116e-08
1.76725e-06
-3.25318e-07
3.03362e-06
-7.84421e-07
4.34885e-06
-1.28577e-06
5.67568e-06
-1.67916e-06
6.89425e-06
-1.96864e-06
7.78716e-06
-2.13622e-06
8.18865e-06
-2.20663e-06
8.19469e-06
-2.21854e-06
7.93487e-06
-2.20443e-06
7.54687e-06
-2.18352e-06
7.12558e-06
-2.16397e-06
6.71692e-06
-2.14751e-06
6.335e-06
-2.13223e-06
5.97818e-06
-2.11313e-06
5.63699e-06
-2.08313e-06
5.29791e-06
-2.03748e-06
4.94965e-06
-1.97971e-06
4.59306e-06
-1.92252e-06
4.24525e-06
-1.8802e-06
3.92971e-06
-1.859e-06
3.66045e-06
3.43735e-06
-2.55391e-08
1.91798e-05
-9.40925e-09
1.90431e-05
3.44954e-08
1.94701e-05
8.39402e-08
2.01956e-05
1.1681e-07
2.08718e-05
1.19461e-07
2.12927e-05
8.56248e-08
2.14585e-05
1.34539e-08
2.14946e-05
-9.39023e-08
2.116e-05
-1.97715e-07
1.93044e-05
-3.66455e-07
1.46723e-05
-7.61264e-07
9.37971e-06
-1.1204e-06
6.18394e-06
-1.23027e-06
4.04312e-06
-1.1737e-06
2.47591e-06
-9.63675e-07
1.30171e-06
-6.98527e-07
3.27992e-07
-4.32944e-07
-2.87679e-07
-1.83267e-07
-6.08853e-07
4.83519e-08
-7.16275e-07
2.10428e-07
-5.78632e-07
3.35332e-07
-5.10741e-07
4.20473e-07
-4.48054e-07
4.65877e-07
-4.13569e-07
4.76118e-07
-3.95882e-07
4.48979e-07
-3.0168e-07
3.58315e-07
6.7837e-08
1.62726e-07
8.82595e-07
-1.52214e-07
2.08219e-06
-5.72655e-07
3.45406e-06
-1.06228e-06
4.83848e-06
-1.54234e-06
6.15573e-06
-1.93303e-06
7.28495e-06
-2.19827e-06
8.0524e-06
-2.34206e-06
8.33243e-06
-2.39388e-06
8.24651e-06
-2.39388e-06
7.93487e-06
-2.37303e-06
7.52602e-06
-2.34838e-06
7.10092e-06
-2.32639e-06
6.69493e-06
-2.30738e-06
6.316e-06
-2.28768e-06
5.95847e-06
-2.26067e-06
5.60999e-06
-2.21995e-06
5.25719e-06
-2.16493e-06
4.89463e-06
-2.1043e-06
4.53243e-06
-2.05194e-06
4.19289e-06
-2.01775e-06
3.89553e-06
-2.0023e-06
3.64499e-06
3.43429e-06
2.33017e-08
1.91973e-05
3.87914e-08
1.90276e-05
8.40673e-08
1.94248e-05
1.36055e-07
2.01436e-05
1.70694e-07
2.08372e-05
1.73197e-07
2.12902e-05
1.36733e-07
2.1495e-05
5.95232e-08
2.15718e-05
-5.94806e-08
2.1279e-05
-1.89513e-07
1.94345e-05
-4.20613e-07
1.49034e-05
-8.48747e-07
9.80784e-06
-1.15295e-06
6.48814e-06
-1.20205e-06
4.09222e-06
-1.16235e-06
2.43621e-06
-9.28413e-07
1.06777e-06
-7.05779e-07
1.05357e-07
-4.65316e-07
-5.28142e-07
-2.30378e-07
-8.43792e-07
-1.5949e-08
-9.30705e-07
1.3349e-07
-7.28071e-07
2.47985e-07
-6.25237e-07
3.24608e-07
-5.24677e-07
3.61166e-07
-4.50126e-07
3.58029e-07
-3.92746e-07
3.08322e-07
-2.51973e-07
1.8019e-07
1.9597e-07
-6.20044e-08
1.12479e-06
-4.24592e-07
2.44478e-06
-8.78631e-07
3.9081e-06
-1.37564e-06
5.33549e-06
-1.845e-06
6.6251e-06
-2.21237e-06
7.65231e-06
-2.44516e-06
8.28519e-06
-2.55622e-06
8.44349e-06
-2.58357e-06
8.27387e-06
-2.56807e-06
7.91937e-06
-2.53813e-06
7.49608e-06
-2.50788e-06
7.07067e-06
-2.4815e-06
6.66856e-06
-2.4572e-06
6.29169e-06
-2.42922e-06
5.93049e-06
-2.39038e-06
5.57115e-06
-2.33695e-06
5.20376e-06
-2.27349e-06
4.83117e-06
-2.2121e-06
4.47104e-06
-2.16493e-06
4.14572e-06
-2.13667e-06
3.86726e-06
-2.12424e-06
3.63256e-06
3.43173e-06
7.31316e-08
1.92159e-05
8.83239e-08
1.90124e-05
1.35728e-07
1.93774e-05
1.91899e-07
2.00875e-05
2.31008e-07
2.07981e-05
2.37152e-07
2.1284e-05
2.03426e-07
2.15287e-05
1.28784e-07
2.16464e-05
1.30197e-08
2.13948e-05
-1.42996e-07
1.95905e-05
-4.35049e-07
1.51954e-05
-8.75078e-07
1.02479e-05
-1.15438e-06
6.76744e-06
-1.1812e-06
4.11904e-06
-1.07099e-06
2.326e-06
-9.10908e-07
9.07693e-07
-7.10715e-07
-9.48357e-08
-4.80485e-07
-7.58372e-07
-2.57562e-07
-1.06671e-06
-6.28333e-08
-1.12543e-06
6.71448e-08
-8.58049e-07
1.60925e-07
-7.19017e-07
2.16471e-07
-5.80222e-07
2.3069e-07
-4.64346e-07
2.01115e-07
-3.63171e-07
1.15031e-07
-1.65889e-07
-5.83623e-08
3.69363e-07
-3.51584e-07
1.41801e-06
-7.59516e-07
2.85271e-06
-1.23948e-06
4.38807e-06
-1.73683e-06
5.83283e-06
-2.18296e-06
7.07123e-06
-2.51421e-06
7.98356e-06
-2.69826e-06
8.46924e-06
-2.76887e-06
8.5141e-06
-2.76831e-06
8.2733e-06
-2.73562e-06
7.88669e-06
-2.69546e-06
7.45592e-06
-2.65842e-06
7.03363e-06
-2.62575e-06
6.63589e-06
-2.59304e-06
6.25898e-06
-2.55292e-06
5.89037e-06
-2.49935e-06
5.51759e-06
-2.43295e-06
5.13736e-06
-2.36292e-06
4.76115e-06
-2.30229e-06
4.41041e-06
-2.25968e-06
4.10311e-06
-2.23552e-06
3.8431e-06
-2.22511e-06
3.62215e-06
3.42966e-06
1.23978e-07
1.92352e-05
1.39268e-07
1.89971e-05
1.89484e-07
1.93272e-05
2.51416e-07
2.00255e-05
2.97656e-07
2.07519e-05
3.11127e-07
2.12705e-05
2.85255e-07
2.15546e-05
2.19578e-07
2.17121e-05
1.12464e-07
2.15019e-05
-6.18773e-08
1.97648e-05
-3.93631e-07
1.55272e-05
-8.42063e-07
1.06963e-05
-1.09739e-06
7.02277e-06
-1.10766e-06
4.12931e-06
-1.01822e-06
2.23657e-06
-8.97685e-07
7.87154e-07
-6.95496e-07
-2.97025e-07
-4.67811e-07
-9.86057e-07
-2.56754e-07
-1.27777e-06
-8.33446e-08
-1.29884e-06
2.25909e-08
-9.63985e-07
8.78349e-08
-7.84261e-07
1.112e-07
-6.03587e-07
9.01062e-08
-4.43253e-07
1.94745e-08
-2.92539e-07
-1.14431e-07
-3.19832e-08
-3.45022e-07
5.99953e-07
-6.97176e-07
1.77016e-06
-1.14595e-06
3.30148e-06
-1.64456e-06
4.88668e-06
-2.13064e-06
6.31891e-06
-2.53914e-06
7.47973e-06
-2.81373e-06
8.25815e-06
-2.9417e-06
8.59721e-06
-2.96885e-06
8.54125e-06
-2.9399e-06
8.24436e-06
-2.89045e-06
7.83723e-06
-2.84036e-06
7.40583e-06
-2.79608e-06
6.98934e-06
-2.75547e-06
6.59528e-06
-2.71163e-06
6.21514e-06
-2.657e-06
5.83574e-06
-2.58866e-06
5.44924e-06
-2.51219e-06
5.06089e-06
-2.43978e-06
4.68873e-06
-2.38288e-06
4.35352e-06
-2.34593e-06
4.06615e-06
-2.32622e-06
3.82339e-06
-2.31825e-06
3.61418e-06
3.42826e-06
1.75777e-07
1.92546e-05
1.91511e-07
1.89814e-05
2.45129e-07
1.92736e-05
3.14197e-07
1.99565e-05
3.70028e-07
2.0696e-05
3.94266e-07
2.12463e-05
3.80793e-07
2.15681e-05
3.29723e-07
2.17632e-05
2.35946e-07
2.15957e-05
4.94007e-08
1.99514e-05
-3.03273e-07
1.58799e-05
-7.32945e-07
1.1126e-05
-9.2213e-07
7.21195e-06
-9.81683e-07
4.18886e-06
-9.45165e-07
2.20005e-06
-8.44094e-07
6.86083e-07
-6.39906e-07
-5.01214e-07
-4.21305e-07
-1.20466e-06
-2.26536e-07
-1.47254e-06
-7.69151e-08
-1.44846e-06
2.35286e-09
-1.04325e-06
3.45084e-08
-8.16417e-07
1.78918e-08
-5.86971e-07
-5.02711e-08
-3.7509e-07
-1.76649e-07
-1.66161e-07
-3.7228e-07
1.63648e-07
-6.68218e-07
8.95891e-07
-1.07538e-06
2.17733e-06
-1.55764e-06
3.78374e-06
-2.05906e-06
5.3881e-06
-2.51685e-06
6.7767e-06
-2.87011e-06
7.83299e-06
-3.07941e-06
8.46746e-06
-3.15299e-06
8.67079e-06
-3.14104e-06
8.52931e-06
-3.08808e-06
8.19139e-06
-3.02518e-06
7.77433e-06
-2.96706e-06
7.34771e-06
-2.91581e-06
6.9381e-06
-2.86604e-06
6.54551e-06
-2.80948e-06
6.15858e-06
-2.74037e-06
5.76663e-06
-2.6604e-06
5.36927e-06
-2.57937e-06
4.97986e-06
-2.50992e-06
4.61929e-06
-2.46012e-06
4.30371e-06
-2.4302e-06
4.03624e-06
-2.41531e-06
3.80849e-06
-2.40971e-06
3.60858e-06
3.42733e-06
2.28351e-07
1.92735e-05
2.44795e-07
1.89649e-05
3.02239e-07
1.92161e-05
3.79524e-07
1.98792e-05
4.47065e-07
2.06285e-05
4.8521e-07
2.12082e-05
4.88287e-07
2.1565e-05
4.57364e-07
2.17941e-05
3.8149e-07
2.16715e-05
1.9785e-07
2.0135e-05
-1.45902e-07
1.62236e-05
-5.40439e-07
1.15205e-05
-7.18245e-07
7.38976e-06
-8.22115e-07
4.29273e-06
-8.13354e-07
2.19129e-06
-7.22218e-07
5.94946e-07
-5.44309e-07
-6.79122e-07
-3.43343e-07
-1.40562e-06
-1.6945e-07
-1.64644e-06
-4.62556e-08
-1.57166e-06
5.5044e-09
-1.09501e-06
3.42417e-09
-8.14337e-07
-5.64918e-08
-5.27055e-07
-1.79592e-07
-2.51989e-07
-3.68419e-07
2.26646e-08
-6.34005e-07
4.29235e-07
-9.95331e-07
1.25722e-06
-1.45006e-06
2.63205e-06
-1.95276e-06
4.28644e-06
-2.44145e-06
5.87679e-06
-2.85634e-06
7.19159e-06
-3.14621e-06
8.12286e-06
-3.29132e-06
8.61256e-06
-3.31694e-06
8.69641e-06
-3.27407e-06
8.48644e-06
-3.20421e-06
8.12153e-06
-3.13287e-06
7.70299e-06
-3.06936e-06
7.28421e-06
-3.01165e-06
6.88038e-06
-2.95201e-06
6.48586e-06
-2.8827e-06
6.08928e-06
-2.80169e-06
5.68561e-06
-2.7154e-06
5.28297e-06
-2.63587e-06
4.90034e-06
-2.57373e-06
4.55715e-06
-2.53269e-06
4.26266e-06
-2.50963e-06
4.01319e-06
-2.49867e-06
3.79753e-06
-2.49454e-06
3.60445e-06
3.4265e-06
2.81414e-07
1.92914e-05
2.98746e-07
1.89476e-05
3.60198e-07
1.91547e-05
4.46401e-07
1.9793e-05
5.2731e-07
2.05476e-05
5.82114e-07
2.11534e-05
6.05664e-07
2.15414e-05
6.01287e-07
2.17985e-05
5.54453e-07
2.17184e-05
4.00522e-07
2.02889e-05
8.21538e-08
1.6542e-05
-2.9116e-07
1.18938e-05
-5.19279e-07
7.61788e-06
-6.53205e-07
4.42666e-06
-6.74925e-07
2.21301e-06
-5.88623e-07
5.08645e-07
-4.24238e-07
-8.43508e-07
-2.41732e-07
-1.58813e-06
-9.17003e-08
-1.79647e-06
4.88871e-09
-1.66825e-06
3.05879e-08
-1.12071e-06
-3.47644e-09
-7.80273e-07
-1.0681e-07
-4.23721e-07
-2.84248e-07
-7.45522e-08
-5.38855e-07
2.77272e-07
-8.7371e-07
7.6409e-07
-1.29333e-06
1.67684e-06
-1.78231e-06
3.12104e-06
-2.28981e-06
4.79394e-06
-2.75301e-06
6.33999e-06
-3.1177e-06
7.55628e-06
-3.34479e-06
8.34995e-06
-3.43535e-06
8.70312e-06
-3.42461e-06
8.68567e-06
-3.36162e-06
8.42345e-06
-3.28314e-06
8.04305e-06
-3.20859e-06
7.62844e-06
-3.14209e-06
7.21771e-06
-3.07831e-06
6.8166e-06
-3.00888e-06
6.41643e-06
-2.92867e-06
6.00907e-06
-2.84028e-06
5.59721e-06
-2.75364e-06
5.19633e-06
-2.68049e-06
4.82719e-06
-2.62777e-06
4.50443e-06
-2.59512e-06
4.23002e-06
-2.57746e-06
3.99552e-06
-2.56898e-06
3.78905e-06
-2.56549e-06
3.60096e-06
3.42564e-06
3.3458e-07
1.93078e-05
3.52884e-07
1.89293e-05
4.18231e-07
1.90893e-05
5.13586e-07
1.96976e-05
6.08906e-07
2.04523e-05
6.82431e-07
2.10798e-05
7.29579e-07
2.14943e-05
7.57055e-07
2.1771e-05
7.49571e-07
2.17259e-05
6.40614e-07
2.03979e-05
3.42812e-07
1.68398e-05
-2.08865e-08
1.22575e-05
-2.93312e-07
7.8903e-06
-4.31032e-07
4.56438e-06
-5.45478e-07
2.32745e-06
-4.41719e-07
4.04885e-07
-2.85625e-07
-9.99601e-07
-1.24556e-07
-1.7492e-06
2.57682e-09
-1.9236e-06
7.44028e-08
-1.74007e-06
7.73135e-08
-1.12362e-06
1.73392e-08
-7.20298e-07
-1.24171e-07
-2.82212e-07
-3.53632e-07
1.54909e-07
-6.70489e-07
5.94129e-07
-1.06803e-06
1.16163e-06
-1.53443e-06
2.14324e-06
-2.04299e-06
3.62959e-06
-2.54134e-06
5.29229e-06
-2.97057e-06
6.76922e-06
-3.28413e-06
7.86984e-06
-3.45827e-06
8.52409e-06
-3.5079e-06
8.75276e-06
-3.47431e-06
8.65207e-06
-3.40257e-06
8.35172e-06
-3.32339e-06
7.96386e-06
-3.25003e-06
7.55509e-06
-3.18222e-06
7.14989e-06
-3.11283e-06
6.74721e-06
-3.03488e-06
6.33849e-06
-2.94732e-06
5.92151e-06
-2.85699e-06
5.50689e-06
-2.77524e-06
5.11459e-06
-2.71142e-06
4.76337e-06
-2.66835e-06
4.46136e-06
-2.64279e-06
4.20446e-06
-2.62903e-06
3.98175e-06
-2.62212e-06
3.78214e-06
-2.619e-06
3.59785e-06
3.42479e-06
3.87373e-07
1.93222e-05
4.06639e-07
1.891e-05
4.75449e-07
1.90205e-05
5.79648e-07