/*--------------------------------*- C++ -*----------------------------------*\
  =========                 |
  \\      /  F ield         | OpenFOAM: The Open Source CFD Toolbox
   \\    /   O peration     | Website:  https://openfoam.org
    \\  /    A nd           | Version:  9
     \\/     M anipulation  |
\*---------------------------------------------------------------------------*/
FoamFile
{
    format      ascii;
    class       volVectorField;
    location    "0.19";
    object      U;
}
// * * * * * * * * * * * * * * * * * * * * * * * * * * * * * * * * * * * * * //

dimensions      [0 1 -1 0 0 0 0];

internalField   nonuniform List<vector> 
5000
(
(-0.233782 0 0.348101)
(-0.252147 0 0.386967)
(-0.268929 0 0.524373)
(-0.281846 0 0.691275)
(-0.289217 0 0.83442)
(-0.28841 0 0.93595)
(-0.275537 0 1.00223)
(-0.247748 0 1.07065)
(-0.195428 0 1.17695)
(-0.100364 0 1.11962)
(0.0685814 0 0.366938)
(0.430261 0 -1.17658)
(0.129777 0 -2.17253)
(0.0186601 0 -2.65347)
(-0.0574495 0 -2.77266)
(-0.0840492 0 -2.78774)
(-0.0918122 0 -2.78967)
(-0.0930178 0 -2.80416)
(-0.0890266 0 -2.83198)
(-0.0791559 0 -2.86663)
(-0.0639201 0 -2.89795)
(-0.0448049 0 -2.91866)
(-0.0233152 0 -2.92574)
(-0.00328722 0 -2.91608)
(0.0110699 0 -2.89082)
(0.0174168 0 -2.85508)
(0.0160847 0 -2.81585)
(0.00768113 0 -2.77822)
(-0.0111944 0 -2.73237)
(-0.0359068 0 -2.63398)
(-0.0625681 0 -2.41279)
(-0.120248 0 -2.15293)
(-0.0550798 0 -1.15571)
(0.0565901 0 -0.282673)
(0.173346 0 0.412392)
(0.267462 0 0.844981)
(0.325105 0 1.02342)
(0.354899 0 1.02722)
(0.368465 0 0.94931)
(0.374513 0 0.853861)
(0.377718 0 0.768645)
(0.379609 0 0.698103)
(0.380311 0 0.638112)
(0.379747 0 0.584209)
(0.378007 0 0.53394)
(0.375296 0 0.486485)
(0.371879 0 0.441759)
(0.367843 0 0.399777)
(0.364033 0 0.360417)
(0.357245 0 0.322904)
(-0.213169 0 0.358863)
(-0.22772 0 0.397073)
(-0.239367 0 0.532137)
(-0.245944 0 0.695508)
(-0.245842 0 0.833663)
(-0.23612 0 0.92777)
(-0.212272 0 0.984023)
(-0.170706 0 1.03849)
(-0.0969037 0 1.11472)
(0.0344001 0 1.00637)
(0.234575 0 0.220886)
(0.687331 0 -1.23891)
(0.266316 0 -1.98102)
(0.0653122 0 -2.56536)
(-0.0288778 0 -2.73813)
(-0.0664296 0 -2.77583)
(-0.076975 0 -2.78645)
(-0.0792009 0 -2.80523)
(-0.0759571 0 -2.83641)
(-0.0670194 0 -2.87526)
(-0.0529912 0 -2.91126)
(-0.0354008 0 -2.93573)
(-0.0161288 0 -2.94389)
(0.000534557 0 -2.93115)
(0.0101738 0 -2.89927)
(0.0109646 0 -2.85542)
(0.00431708 0 -2.80805)
(-0.00959663 0 -2.76102)
(-0.0355173 0 -2.70077)
(-0.0692399 0 -2.58457)
(-0.117883 0 -2.34893)
(-0.203056 0 -2.11328)
(-0.137595 0 -1.24573)
(-0.0561716 0 -0.436609)
(0.0527391 0 0.25554)
(0.139251 0 0.718933)
(0.198535 0 0.939234)
(0.233859 0 0.978546)
(0.253256 0 0.923102)
(0.264133 0 0.838974)
(0.271062 0 0.758984)
(0.275922 0 0.691612)
(0.27919 0 0.634599)
(0.280966 0 0.583827)
(0.28138 0 0.536627)
(0.280636 0 0.491953)
(0.278981 0 0.449642)
(0.27653 0 0.40975)
(0.274038 0 0.371874)
(0.270325 0 0.333705)
(-0.193339 0 0.367602)
(-0.204394 0 0.404335)
(-0.21146 0 0.536285)
(-0.212597 0 0.695454)
(-0.206451 0 0.827952)
(-0.190109 0 0.913878)
(-0.158894 0 0.958866)
(-0.109831 0 0.996826)
(-0.0287485 0 1.04058)
(0.120379 0 0.872205)
(0.308929 0 0.0593299)
(0.717015 0 -1.3293)
(0.457895 0 -1.69629)
(0.153917 0 -2.43385)
(0.0320128 0 -2.68728)
(-0.0268776 0 -2.75702)
(-0.0473994 0 -2.77997)
(-0.055087 0 -2.80496)
(-0.0549791 0 -2.8402)
(-0.0484516 0 -2.88309)
(-0.0371774 0 -2.92313)
(-0.0232932 0 -2.95049)
(-0.00901635 0 -2.95854)
(0.00149639 0 -2.94122)
(0.00402426 0 -2.90134)
(-0.00272535 0 -2.84894)
(-0.0167668 0 -2.79376)
(-0.0378335 0 -2.73548)
(-0.0684865 0 -2.65397)
(-0.107512 0 -2.51883)
(-0.163615 0 -2.24529)
(-0.185475 0 -2.09245)
(-0.174928 0 -1.31971)
(-0.128421 0 -0.573966)
(-0.0303633 0 0.115132)
(0.0438473 0 0.602772)
(0.097979 0 0.855749)
(0.132917 0 0.924763)
(0.154181 0 0.889951)
(0.167372 0 0.817647)
(0.176319 0 0.743927)
(0.182836 0 0.680425)
(0.18758 0 0.626652)
(0.190781 0 0.579054)
(0.192604 0 0.534935)
(0.193238 0 0.493108)
(0.192908 0 0.453328)
(0.191779 0 0.415486)
(0.190809 0 0.377925)
(0.190814 0 0.337192)
(-0.174426 0 0.374485)
(-0.182437 0 0.409072)
(-0.185561 0 0.537353)
(-0.182244 0 0.691941)
(-0.171539 0 0.818573)
(-0.150983 0 0.896354)
(-0.116191 0 0.9303)
(-0.0651989 0 0.95178)
(0.0091866 0 0.96752)
(0.154333 0 0.74365)
(0.301896 0 -0.0896841)
(0.526319 0 -1.41781)
(0.634156 0 -1.58223)
(0.303069 0 -2.25581)
(0.122875 0 -2.60668)
(0.0413215 0 -2.72802)
(0.00397758 0 -2.76677)
(-0.0152049 0 -2.80027)
(-0.0231006 0 -2.84115)
(-0.0229939 0 -2.8882)
(-0.0180255 0 -2.93126)
(-0.0114865 0 -2.95998)
(-0.00582578 0 -2.96654)
(-0.00426029 0 -2.94348)
(-0.0107064 0 -2.89467)
(-0.026322 0 -2.83335)
(-0.0492844 0 -2.77052)
(-0.0773165 0 -2.70208)
(-0.104411 0 -2.60754)
(-0.135833 0 -2.4551)
(-0.171876 0 -2.30657)
(-0.14006 0 -2.09626)
(-0.153667 0 -1.37154)
(-0.127552 0 -0.671314)
(-0.0716461 0 0.00687537)
(-0.0216038 0 0.508297)
(0.0199286 0 0.783366)
(0.0499006 0 0.873824)
(0.0696143 0 0.855451)
(0.0829409 0 0.793733)
(0.0924567 0 0.726317)
(0.0995641 0 0.666872)
(0.104917 0 0.616318)
(0.108809 0 0.571695)
(0.111428 0 0.530404)
(0.112955 0 0.491175)
(0.113612 0 0.453595)
(0.113751 0 0.416737)
(0.114944 0 0.375964)
(0.119566 0 0.327607)
(-0.156545 0 0.379708)
(-0.161973 0 0.411623)
(-0.161825 0 0.535878)
(-0.155042 0 0.685824)
(-0.141166 0 0.806812)
(-0.118517 0 0.877135)
(-0.0835783 0 0.901663)
(-0.0341764 0 0.909307)
(0.0263437 0 0.903546)
(0.155126 0 0.643114)
(0.256779 0 -0.189974)
(0.337387 0 -1.46578)
(0.645712 0 -1.78481)
(0.466751 0 -2.03838)
(0.237232 0 -2.49897)
(0.140753 0 -2.68363)
(0.0838348 0 -2.74412)
(0.0446514 0 -2.78672)
(0.0212158 0 -2.83479)
(0.00883612 0 -2.88681)
(0.0028235 0 -2.93203)
(-0.00184677 0 -2.96067)
(-0.00782848 0 -2.96508)
(-0.0165785 0 -2.93612)
(-0.0320713 0 -2.87824)
(-0.0558953 0 -2.8082)
(-0.0840365 0 -2.7384)
(-0.10926 0 -2.66458)
(-0.128773 0 -2.57043)
(-0.140182 0 -2.39328)
(-0.0950284 0 -2.38916)
(-0.0889993 0 -2.05159)
(-0.114424 0 -1.39105)
(-0.112291 0 -0.707099)
(-0.0967867 0 -0.0506172)
(-0.0707564 0 0.44656)
(-0.0436335 0 0.729574)
(-0.0209527 0 0.831494)
(-0.00418956 0 0.823857)
(0.00824945 0 0.770244)
(0.0175447 0 0.708325)
(0.0245948 0 0.652702)
(0.0299951 0 0.605161)
(0.034035 0 0.56324)
(0.0368801 0 0.524496)
(0.038652 0 0.487623)
(0.0394368 0 0.451894)
(0.0396951 0 0.414755)
(0.0434276 0 0.367956)
(0.0572225 0 0.313177)
(-0.139734 0 0.383579)
(-0.143033 0 0.412398)
(-0.140254 0 0.532412)
(-0.130915 0 0.677886)
(-0.115068 0 0.793791)
(-0.0918516 0 0.857725)
(-0.0591078 0 0.875084)
(-0.0133833 0 0.872758)
(0.0327547 0 0.850881)
(0.139916 0 0.57375)
(0.206575 0 -0.250573)
(0.240482 0 -1.50953)
(0.464924 0 -1.95562)
(0.509682 0 -1.87338)
(0.375701 0 -2.34905)
(0.274505 0 -2.60057)
(0.190717 0 -2.70108)
(0.121138 0 -2.75837)
(0.0736087 0 -2.8157)
(0.0431166 0 -2.87468)
(0.0229758 0 -2.92234)
(0.00504143 0 -2.95038)
(-0.013796 0 -2.95355)
(-0.0320225 0 -2.92042)
(-0.0537402 0 -2.85485)
(-0.0799632 0 -2.77898)
(-0.101869 0 -2.71217)
(-0.104526 0 -2.65262)
(-0.0721419 0 -2.5683)
(0.0652307 0 -2.46794)
(-0.0141578 0 -2.38335)
(-0.0581465 0 -2.00433)
(-0.0972081 0 -1.36438)
(-0.118215 0 -0.69128)
(-0.12701 0 -0.0627132)
(-0.118193 0 0.416234)
(-0.102052 0 0.693896)
(-0.085184 0 0.798403)
(-0.0708172 0 0.796417)
(-0.0592944 0 0.74848)
(-0.0504045 0 0.691074)
(-0.0435597 0 0.638862)
(-0.038264 0 0.594071)
(-0.0342321 0 0.554607)
(-0.031292 0 0.518211)
(-0.0293198 0 0.48359)
(-0.0282492 0 0.449422)
(-0.0276884 0 0.409879)
(-0.0228379 0 0.345939)
(0.00070869 0 0.210974)
(-0.123942 0 0.386397)
(-0.125569 0 0.411776)
(-0.120744 0 0.527454)
(-0.10962 0 0.668772)
(-0.092786 0 0.780375)
(-0.0700017 0 0.839155)
(-0.0407761 0 0.851342)
(0.000131608 0 0.842572)
(0.0348261 0 0.808266)
(0.119363 0 0.527534)
(0.168649 0 -0.295131)
(0.198498 0 -1.54938)
(0.316721 0 -2.04253)
(0.552051 0 -1.91088)
(0.511498 0 -2.27379)
(0.382721 0 -2.52093)
(0.281595 0 -2.63564)
(0.190092 0 -2.70989)
(0.119789 0 -2.78127)
(0.072136 0 -2.85101)
(0.0402092 0 -2.90217)
(0.0102583 0 -2.92849)
(-0.0216561 0 -2.93217)
(-0.0480759 0 -2.89901)
(-0.071288 0 -2.83063)
(-0.0892875 0 -2.75741)
(-0.0908005 0 -2.70879)
(-0.0598405 0 -2.69084)
(0.103168 0 -2.6915)
(-0.0544414 0 -2.44967)
(-0.0248511 0 -2.3333)
(-0.077429 0 -1.93517)
(-0.129125 0 -1.31402)
(-0.152637 0 -0.653369)
(-0.168121 0 -0.0505226)
(-0.168349 0 0.40543)
(-0.158562 0 0.670521)
(-0.145137 0 0.771868)
(-0.132165 0 0.772049)
(-0.121209 0 0.728089)
(-0.112587 0 0.674539)
(-0.105895 0 0.625465)
(-0.100683 0 0.583209)
(-0.0966363 0 0.545944)
(-0.0935623 0 0.511622)
(-0.0913154 0 0.478943)
(-0.0896472 0 0.445419)
(-0.0877745 0 0.400596)
(-0.0814533 0 0.316322)
(-0.0612744 0 0.144375)
(-0.109081 0 0.388423)
(-0.109468 0 0.410083)
(-0.103117 0 0.521422)
(-0.0908239 0 0.658988)
(-0.0737711 0 0.767161)
(-0.0520918 0 0.822064)
(-0.0268881 0 0.83061)
(0.00848205 0 0.818033)
(0.0353522 0 0.774032)
(0.0990668 0 0.494838)
(0.145075 0 -0.330786)
(0.168614 0 -1.57042)
(0.19854 0 -2.11193)
(0.405713 0 -2.04579)
(0.443933 0 -2.45111)
(0.436128 0 -2.47201)
(0.298871 0 -2.57315)
(0.208612 0 -2.65491)
(0.138991 0 -2.73823)
(0.0893953 0 -2.82103)
(0.055657 0 -2.87481)
(0.0180918 0 -2.89528)
(-0.0280368 0 -2.89942)
(-0.0640138 0 -2.87121)
(-0.0880618 0 -2.80784)
(-0.0962757 0 -2.75471)
(-0.0751111 0 -2.74283)
(-0.00576901 0 -2.86079)
(-0.0930679 0 -2.59295)
(-0.0634482 0 -2.44338)
(-0.0555982 0 -2.28446)
(-0.102779 0 -1.84352)
(-0.157536 0 -1.25085)
(-0.189639 0 -0.613996)
(-0.209348 0 -0.0300513)
(-0.215962 0 0.403941)
(-0.210608 0 0.653888)
(-0.199791 0 0.749127)
(-0.188034 0 0.749519)
(-0.177695 0 0.708592)
(-0.169432 0 0.658545)
(-0.163 0 0.612459)
(-0.157976 0 0.572574)
(-0.154035 0 0.537288)
(-0.150987 0 0.504782)
(-0.148674 0 0.473544)
(-0.146578 0 0.439114)
(-0.143146 0 0.386289)
(-0.135166 0 0.284503)
(-0.120865 0 0.107465)
(-0.0950338 0 0.38991)
(-0.0945735 0 0.407616)
(-0.0871417 0 0.514666)
(-0.0741577 0 0.648926)
(-0.0574505 0 0.754537)
(-0.0373608 0 0.806798)
(-0.0162362 0 0.812932)
(0.0133116 0 0.798196)
(0.0351046 0 0.746981)
(0.0825827 0 0.468358)
(0.131776 0 -0.356692)
(0.141549 0 -1.57443)
(0.114402 0 -2.16282)
(0.263839 0 -2.15117)
(0.323482 0 -2.39865)
(0.294215 0 -2.411)
(0.189185 0 -2.48245)
(0.165834 0 -2.61695)
(0.13339 0 -2.70318)
(0.0992229 0 -2.79085)
(0.0720349 0 -2.84379)
(0.0339012 0 -2.85553)
(-0.0225237 0 -2.85962)
(-0.06701 0 -2.8411)
(-0.0869984 0 -2.7935)
(-0.104991 0 -2.77151)
(-0.248558 0 -2.86874)
(-0.0912736 0 -2.82034)
(-0.0505218 0 -2.61555)
(-0.0222982 0 -2.45715)
(-0.0537155 0 -2.24092)
(-0.107984 0 -1.78131)
(-0.165503 0 -1.18391)
(-0.212223 0 -0.567458)
(-0.241903 0 -0.00214127)
(-0.255887 0 0.409861)
(-0.255584 0 0.64283)
(-0.247934 0 0.729885)
(-0.237988 0 0.729047)
(-0.228764 0 0.690386)
(-0.221237 0 0.643474)
(-0.215327 0 0.600158)
(-0.210671 0 0.562447)
(-0.206967 0 0.528941)
(-0.204035 0 0.49798)
(-0.201614 0 0.467352)
(-0.198805 0 0.429887)
(-0.193556 0 0.36699)
(-0.183936 0 0.252231)
(-0.172892 0 0.0829693)
(-0.0816633 0 0.391091)
(-0.0806994 0 0.404642)
(-0.0725612 0 0.507467)
(-0.0592464 0 0.638883)
(-0.0432756 0 0.742763)
(-0.0251176 0 0.793526)
(-0.00796049 0 0.79834)
(0.0157314 0 0.782361)
(0.0334226 0 0.72565)
(0.0703314 0 0.443099)
(0.121415 0 -0.375572)
(0.115967 0 -1.56771)
(0.0576379 0 -2.17957)
(0.142712 0 -2.2163)
(0.188304 0 -2.34771)
(0.174957 0 -2.38396)
(0.142773 0 -2.38311)
(0.061304 0 -2.61206)
(0.131124 0 -2.6972)
(0.108893 0 -2.76742)
(0.0786371 0 -2.81678)
(0.0504857 0 -2.82078)
(0.00890745 0 -2.82226)
(-0.0207368 0 -2.82123)
(0.0152692 0 -2.7753)
(0.035626 0 -2.61408)
(0.107184 0 -2.90978)
(0.0376516 0 -2.83229)
(0.025962 0 -2.64625)
(0.0219981 0 -2.44462)
(-0.0290184 0 -2.17365)
(-0.0926163 0 -1.71633)
(-0.16064 0 -1.09851)
(-0.226531 0 -0.499705)
(-0.268684 0 0.0398524)
(-0.290124 0 0.42601)
(-0.295134 0 0.638936)
(-0.290908 0 0.715457)
(-0.283168 0 0.711788)
(-0.275424 0 0.674404)
(-0.268912 0 0.630009)
(-0.263707 0 0.589029)
(-0.259526 0 0.553141)
(-0.25611 0 0.521087)
(-0.253258 0 0.491109)
(-0.250498 0 0.459648)
(-0.246524 0 0.416667)
(-0.239319 0 0.342773)
(-0.228652 0 0.220375)
(-0.219731 0 0.0651816)
(-0.0688255 0 0.39216)
(-0.0676484 0 0.401381)
(-0.0591061 0 0.500046)
(-0.0457185 0 0.629064)
(-0.030734 0 0.732014)
(-0.0147226 0 0.782321)
(-0.00145749 0 0.786853)
(0.0162895 0 0.770188)
(0.0291473 0 0.708933)
(0.0574056 0 0.41899)
(0.105783 0 -0.389217)
(0.0910209 0 -1.54749)
(0.0113617 0 -2.16313)
(0.0309029 0 -2.24311)
(0.0504434 0 -2.35014)
(0.0555864 0 -2.38752)
(0.0924938 0 -2.41384)
(0.128929 0 -2.6089)
(0.179503 0 -2.75922)
(0.103732 0 -2.75959)
(0.074467 0 -2.80757)
(0.051536 0 -2.79735)
(0.0331569 0 -2.80048)
(0.00814621 0 -2.8429)
(0.0234435 0 -2.78173)
(0.0944705 0 -2.7611)
(0.135424 0 -2.85396)
(0.104907 0 -2.78857)
(0.0708616 0 -2.62312)
(0.0376043 0 -2.3994)
(-0.0327809 0 -2.08297)
(-0.104084 0 -1.62669)
(-0.173856 0 -0.988365)
(-0.249283 0 -0.409419)
(-0.298915 0 0.0970718)
(-0.325127 0 0.452424)
(-0.333804 0 0.642263)
(-0.332049 0 0.706127)
(-0.326084 0 0.698155)
(-0.319619 0 0.661036)
(-0.314023 0 0.618432)
(-0.309458 0 0.579231)
(-0.3057 0 0.544707)
(-0.302514 0 0.513607)
(-0.299597 0 0.483654)
(-0.296157 0 0.449406)
(-0.290585 0 0.398656)
(-0.281383 0 0.314329)
(-0.270085 0 0.1897)
(-0.26259 0 0.0516306)
(-0.0563801 0 0.393276)
(-0.0552217 0 0.398005)
(-0.046507 0 0.492566)
(-0.0332096 0 0.619605)
(-0.0193445 0 0.722391)
(-0.00557737 0 0.77332)
(0.0038142 0 0.778417)
(0.015437 0 0.761855)
(0.0224002 0 0.696789)
(0.0421581 0 0.399226)
(0.0812358 0 -0.398729)
(0.0656043 0 -1.5189)
(-0.0336769 0 -2.11994)
(-0.0734501 0 -2.24563)
(-0.0735399 0 -2.36124)
(-0.0566139 0 -2.41563)
(0.0144795 0 -2.47609)
(0.0743836 0 -2.62225)
(0.071563 0 -2.73811)
(0.0754446 0 -2.71801)
(0.0727235 0 -2.78238)
(0.0603274 0 -2.76826)
(0.0653342 0 -2.78185)
(0.0748975 0 -2.82611)
(0.0940444 0 -2.835)
(0.131988 0 -2.84001)
(0.150833 0 -2.83914)
(0.132502 0 -2.75139)
(0.0934206 0 -2.57187)
(0.0363251 0 -2.32079)
(-0.0506328 0 -1.977)
(-0.137162 0 -1.52591)
(-0.210831 0 -0.874098)
(-0.284126 0 -0.310442)
(-0.336212 0 0.162107)
(-0.364318 0 0.484411)
(-0.374487 0 0.649846)
(-0.373804 0 0.700098)
(-0.368765 0 0.687096)
(-0.363044 0 0.649648)
(-0.35802 0 0.608329)
(-0.353875 0 0.570477)
(-0.350405 0 0.53692)
(-0.347339 0 0.506175)
(-0.344139 0 0.474899)
(-0.339598 0 0.435518)
(-0.332009 0 0.37514)
(-0.320808 0 0.281965)
(-0.309085 0 0.159978)
(-0.302582 0 0.0404856)
(-0.0441947 0 0.394565)
(-0.0432283 0 0.394643)
(-0.0345028 0 0.485136)
(-0.0213677 0 0.610565)
(-0.00857541 0 0.713923)
(0.00285039 0 0.766461)
(0.0084576 0 0.77314)
(0.0139553 0 0.757817)
(0.0143341 0 0.689748)
(0.0237152 0 0.386631)
(0.0485449 0 -0.404392)
(0.0294133 0 -1.48389)
(-0.089282 0 -2.05698)
(-0.156782 0 -2.23073)
(-0.164974 0 -2.36585)
(-0.143711 0 -2.44579)
(-0.0731754 0 -2.52845)
(-0.0130607 0 -2.6471)
(0.00686207 0 -2.7297)
(0.0363125 0 -2.73784)
(0.0594114 0 -2.77905)
(0.0725373 0 -2.79023)
(0.0910514 0 -2.81106)
(0.107078 0 -2.84035)
(0.123496 0 -2.86033)
(0.143102 0 -2.8654)
(0.152459 0 -2.83366)
(0.139959 0 -2.72016)
(0.102837 0 -2.51121)
(0.037955 0 -2.22414)
(-0.0559134 0 -1.85516)
(-0.159661 0 -1.40591)
(-0.248304 0 -0.766551)
(-0.321763 0 -0.212191)
(-0.376532 0 0.228439)
(-0.405878 0 0.517533)
(-0.41658 0 0.658468)
(-0.416269 0 0.695162)
(-0.41163 0 0.677126)
(-0.406277 0 0.639234)
(-0.401569 0 0.599028)
(-0.397683 0 0.562349)
(-0.394408 0 0.529503)
(-0.391334 0 0.498367)
(-0.387527 0 0.46393)
(-0.381363 0 0.416776)
(-0.371401 0 0.345575)
(-0.358361 0 0.246136)
(-0.346504 0 0.131287)
(-0.340905 0 0.0311242)
(-0.0321485 0 0.396114)
(-0.0314911 0 0.391384)
(-0.022851 0 0.477808)
(-0.00985765 0 0.601962)
(0.00198687 0 0.706519)
(0.0112048 0 0.761543)
(0.0133431 0 0.771111)
(0.0127727 0 0.758335)
(0.00656053 0 0.688735)
(0.00205051 0 0.382347)
(0.0130356 0 -0.405266)
(-0.0117022 0 -1.44072)
(-0.142788 0 -1.98514)
(-0.211995 0 -2.20588)
(-0.224211 0 -2.3658)
(-0.204801 0 -2.4709)
(-0.143405 0 -2.57248)
(-0.0773203 0 -2.68012)
(-0.0293936 0 -2.75201)
(0.0206331 0 -2.77361)
(0.0624233 0 -2.7985)
(0.0887807 0 -2.81259)
(0.111319 0 -2.83019)
(0.127608 0 -2.85349)
(0.139107 0 -2.87392)
(0.148741 0 -2.87694)
(0.151877 0 -2.83018)
(0.139176 0 -2.69195)
(0.10199 0 -2.44895)
(0.0352058 0 -2.12244)
(-0.061104 0 -1.7251)
(-0.176629 0 -1.25863)
(-0.282043 0 -0.650542)
(-0.359856 0 -0.111214)
(-0.417426 0 0.296152)
(-0.447834 0 0.551043)
(-0.458792 0 0.667148)
(-0.458659 0 0.690434)
(-0.454243 0 0.667545)
(-0.44913 0 0.629271)
(-0.444646 0 0.590172)
(-0.440958 0 0.554624)
(-0.437791 0 0.522178)
(-0.434438 0 0.489452)
(-0.429458 0 0.449384)
(-0.421047 0 0.3919)
(-0.408566 0 0.309922)
(-0.394192 0 0.207921)
(-0.38275 0 0.104234)
(-0.37817 0 0.0233742)
(-0.0201338 0 0.397976)
(-0.0198521 0 0.388282)
(-0.0113145 0 0.470569)
(0.00160308 0 0.593711)
(0.0127515 0 0.700024)
(0.0201314 0 0.758458)
(0.0193578 0 0.772063)
(0.0131854 0 0.763278)
(0.000395259 0 0.694814)
(-0.018491 0 0.386912)
(-0.0160457 0 -0.399883)
(-0.0533306 0 -1.388)
(-0.186816 0 -1.9148)
(-0.248045 0 -2.17688)
(-0.262416 0 -2.3655)
(-0.243117 0 -2.49365)
(-0.183351 0 -2.61947)
(-0.108474 0 -2.72413)
(-0.0440941 0 -2.7887)
(0.017006 0 -2.81287)
(0.066823 0 -2.82771)
(0.100141 0 -2.8357)
(0.12434 0 -2.84649)
(0.139655 0 -2.86369)
(0.148018 0 -2.88177)
(0.151912 0 -2.88178)
(0.149111 0 -2.8235)
(0.131683 0 -2.66126)
(0.0899539 0 -2.38354)
(0.0188876 0 -2.01735)
(-0.0807519 0 -1.58754)
(-0.202795 0 -1.09273)
(-0.316718 0 -0.513123)
(-0.401334 0 -0.00284393)
(-0.460705 0 0.366535)
(-0.490986 0 0.585134)
(-0.501388 0 0.67581)
(-0.500949 0 0.685799)
(-0.496478 0 0.658244)
(-0.491448 0 0.619661)
(-0.487086 0 0.581676)
(-0.483499 0 0.547131)
(-0.480218 0 0.514363)
(-0.476082 0 0.478098)
(-0.469244 0 0.429551)
(-0.458255 0 0.360165)
(-0.443811 0 0.269487)
(-0.429291 0 0.169762)
(-0.419187 0 0.0803886)
(-0.415921 0 0.017423)
(-0.0080594 0 0.400166)
(-0.00818153 0 0.385351)
(0.000288412 0 0.463366)
(0.0132875 0 0.585644)
(0.0241262 0 0.694225)
(0.0302004 0 0.756879)
(0.0273143 0 0.775499)
(0.0167433 0 0.771985)
(-0.001245 0 0.707446)
(-0.0309779 0 0.399113)
(-0.0326538 0 -0.386743)
(-0.0916177 0 -1.3281)
(-0.223873 0 -1.85156)
(-0.27905 0 -2.15055)
(-0.295673 0 -2.3709)
(-0.268091 0 -2.52538)
(-0.198916 0 -2.67024)
(-0.12247 0 -2.77336)
(-0.0544874 0 -2.83163)
(0.00882445 0 -2.85376)
(0.0602417 0 -2.86099)
(0.096607 0 -2.86182)
(0.12272 0 -2.86471)
(0.138746 0 -2.87427)
(0.146094 0 -2.88679)
(0.146528 0 -2.88121)
(0.138251 0 -2.81054)
(0.113651 0 -2.62319)
(0.0632873 0 -2.30965)
(-0.016549 0 -1.90472)
(-0.122548 0 -1.441)
(-0.250942 0 -0.92181)
(-0.366199 0 -0.36853)
(-0.451932 0 0.109642)
(-0.509309 0 0.43664)
(-0.536937 0 0.617557)
(-0.545225 0 0.683075)
(-0.543554 0 0.680478)
(-0.538488 0 0.648772)
(-0.533202 0 0.610116)
(-0.528712 0 0.573273)
(-0.524938 0 0.539355)
(-0.521035 0 0.50491)
(-0.515355 0 0.462604)
(-0.506038 0 0.403349)
(-0.49264 0 0.322728)
(-0.47736 0 0.227766)
(-0.464046 0 0.135309)
(-0.455875 0 0.0613782)
(-0.453701 0 0.0132314)
(0.00414994 0 0.402668)
(0.00362995 0 0.382581)
(0.0121036 0 0.456139)
(0.0254158 0 0.577535)
(0.0364352 0 0.688783)
(0.0418648 0 0.756269)
(0.0378345 0 0.780692)
(0.0244708 0 0.783336)
(0.00315459 0 0.724353)
(-0.0325252 0 0.415037)
(-0.0405109 0 -0.364451)
(-0.120276 0 -1.26335)
(-0.246695 0 -1.79166)
(-0.29415 0 -2.12838)
(-0.299244 0 -2.37618)
(-0.262999 0 -2.55909)
(-0.197004 0 -2.71787)
(-0.130416 0 -2.82001)
(-0.0660214 0 -2.8744)
(-0.00515037 0 -2.89372)
(0.0443691 0 -2.89494)
(0.0806368 0 -2.88919)
(0.107327 0 -2.88424)
(0.123888 0 -2.88542)
(0.130632 0 -2.89041)
(0.12819 0 -2.87656)
(0.114148 0 -2.79024)
(0.0806022 0 -2.57407)
(0.0184186 0 -2.22257)
(-0.0738091 0 -1.77982)
(-0.189767 0 -1.28427)
(-0.318767 0 -0.750675)
(-0.429569 0 -0.225965)
(-0.513027 0 0.217314)
(-0.563541 0 0.500298)
(-0.585781 0 0.644156)
(-0.59027 0 0.68636)
(-0.586369 0 0.672885)
(-0.580083 0 0.638106)
(-0.574091 0 0.599889)
(-0.569061 0 0.564204)
(-0.564538 0 0.530117)
(-0.559168 0 0.492036)
(-0.551031 0 0.441315)
(-0.538866 0 0.370859)
(-0.523654 0 0.282278)
(-0.508696 0 0.18864)
(-0.49743 0 0.107052)
(-0.491322 0 0.0474914)
(-0.489811 0 0.0103995)
(0.0165518 0 0.405468)
(0.0156659 0 0.379962)
(0.0242355 0 0.448739)
(0.0381366 0 0.569147)
(0.0498708 0 0.683269)
(0.0554265 0 0.756001)
(0.0512686 0 0.786774)
(0.0367622 0 0.796082)
(0.0138738 0 0.743614)
(-0.0249556 0 0.434209)
(-0.045359 0 -0.331272)
(-0.143365 0 -1.19496)
(-0.26233 0 -1.73604)
(-0.295125 0 -2.11292)
(-0.290392 0 -2.38256)
(-0.25579 0 -2.59539)
(-0.193861 0 -2.75778)
(-0.136089 0 -2.86151)
(-0.0759003 0 -2.91456)
(-0.0189842 0 -2.93092)
(0.0266275 0 -2.927)
(0.0599893 0 -2.91529)
(0.0844771 0 -2.90298)
(0.0991754 0 -2.89567)
(0.103432 0 -2.89188)
(0.0966384 0 -2.86711)
(0.0752562 0 -2.76091)
(0.0306494 0 -2.51181)
(-0.0441885 0 -2.12095)
(-0.146935 0 -1.64176)
(-0.268985 0 -1.1205)
(-0.396314 0 -0.586082)
(-0.502816 0 -0.086835)
(-0.579583 0 0.313078)
(-0.620662 0 0.552069)
(-0.635805 0 0.661344)
(-0.635357 0 0.683379)
(-0.62854 0 0.661509)
(-0.620549 0 0.625131)
(-0.613421 0 0.587968)
(-0.607313 0 0.553175)
(-0.601213 0 0.517478)
(-0.593298 0 0.473424)
(-0.58183 0 0.412763)
(-0.566685 0 0.332682)
(-0.550215 0 0.241017)
(-0.536032 0 0.153726)
(-0.526565 0 0.0845455)
(-0.52184 0 0.0372105)
(-0.520289 0 0.00826731)
(0.0291697 0 0.408498)
(0.0279787 0 0.377426)
(0.0367475 0 0.441044)
(0.0515212 0 0.560204)
(0.0645071 0 0.677236)
(0.0710199 0 0.755437)
(0.0677696 0 0.792847)
(0.0538552 0 0.809019)
(0.0311611 0 0.763544)
(-0.0074198 0 0.458131)
(-0.0429056 0 -0.287)
(-0.152782 0 -1.12295)
(-0.266596 0 -1.68774)
(-0.290137 0 -2.10734)
(-0.272725 0 -2.39624)
(-0.241307 0 -2.62922)
(-0.194227 0 -2.79253)
(-0.138533 0 -2.90031)
(-0.0807122 0 -2.95251)
(-0.0278668 0 -2.96491)
(0.0126826 0 -2.95557)
(0.0409163 0 -2.93783)
(0.0602163 0 -2.91823)
(0.0696403 0 -2.90219)
(0.068056 0 -2.88838)
(0.0539615 0 -2.84989)
(0.0221152 0 -2.72013)
(-0.0358972 0 -2.435)
(-0.123457 0 -2.00485)
(-0.2353 0 -1.49415)
(-0.360893 0 -0.955371)
(-0.48419 0 -0.427326)
(-0.583905 0 0.0416701)
(-0.64906 0 0.393209)
(-0.678265 0 0.588775)
(-0.684932 0 0.667176)
(-0.67893 0 0.672936)
(-0.668894 0 0.64549)
(-0.658943 0 0.609051)
(-0.650336 0 0.573313)
(-0.642545 0 0.538508)
(-0.633932 0 0.49906)
(-0.622494 0 0.446766)
(-0.607229 0 0.375954)
(-0.58941 0 0.289415)
(-0.572291 0 0.199653)
(-0.559039 0 0.122089)
(-0.550884 0 0.0653434)
(-0.547045 0 0.0284335)
(-0.545521 0 0.00634716)
(0.0420005 0 0.41168)
(0.0405886 0 0.374901)
(0.0496542 0 0.432937)
(0.0655638 0 0.550429)
(0.0803161 0 0.670236)
(0.0886086 0 0.753956)
(0.0872797 0 0.798028)
(0.0754457 0 0.820982)
(0.0549554 0 0.782433)
(0.0186229 0 0.486117)
(-0.0299086 0 -0.234376)
(-0.145946 0 -1.0485)
(-0.256181 0 -1.64426)
(-0.269186 0 -2.10783)
(-0.256314 0 -2.41459)
(-0.232095 0 -2.65385)
(-0.193321 0 -2.82617)
(-0.134451 0 -2.93861)
(-0.0784433 0 -2.98868)
(-0.0298375 0 -2.99551)
(0.00492785 0 -2.97959)
(0.0265443 0 -2.95489)
(0.0382274 0 -2.92726)
(0.039149 0 -2.90165)
(0.0282486 0 -2.87624)
(0.00289199 0 -2.82162)
(-0.0434262 0 -2.66477)
(-0.116095 0 -2.34197)
(-0.215777 0 -1.87519)
(-0.335852 0 -1.339)
(-0.46253 0 -0.792032)
(-0.579097 0 -0.277624)
(-0.666857 0 0.153026)
(-0.716557 0 0.45321)
(-0.732913 0 0.608386)
(-0.730691 0 0.660911)
(-0.71924 0 0.654793)
(-0.706119 0 0.624663)
(-0.694226 0 0.589483)
(-0.68391 0 0.554996)
(-0.673857 0 0.518533)
(-0.661972 0 0.472893)
(-0.646588 0 0.410953)
(-0.627902 0 0.331508)
(-0.608447 0 0.2428)
(-0.591708 0 0.159397)
(-0.579893 0 0.0935818)
(-0.573085 0 0.0488071)
(-0.570086 0 0.0210837)
(-0.568987 0 0.0048756)
(0.0550185 0 0.414926)
(0.0534807 0 0.372328)
(0.0629213 0 0.424309)
(0.0801867 0 0.53957)
(0.0971737 0 0.661837)
(0.108001 0 0.750964)
(0.109563 0 0.801506)
(0.101057 0 0.830961)
(0.0845424 0 0.799357)
(0.0499598 0 0.516529)
(-0.007704 0 -0.176494)
(-0.123665 0 -0.974043)
(-0.218266 0 -1.60603)
(-0.22622 0 -2.10239)
(-0.234223 0 -2.42574)
(-0.216276 0 -2.6719)
(-0.180143 0 -2.86013)
(-0.12133 0 -2.97597)
(-0.0684813 0 -3.02255)
(-0.0248137 0 -3.02236)
(0.003633 0 -2.99833)
(0.0178331 0 -2.96516)
(0.0203581 0 -2.92792)
(0.0104233 0 -2.89109)
(-0.0128014 0 -2.8519)
(-0.0531507 0 -2.77856)
(-0.116172 0 -2.5924)
(-0.20423 0 -2.23241)
(-0.315678 0 -1.73427)
(-0.440927 0 -1.17997)
(-0.564562 0 -0.63466)
(-0.670128 0 -0.144449)
(-0.741779 0 0.241232)
(-0.775389 0 0.491255)
(-0.780082 0 0.610922)
(-0.770021 0 0.643287)
(-0.754163 0 0.629769)
(-0.738628 0 0.599561)
(-0.725085 0 0.566428)
(-0.712925 0 0.532291)
(-0.700155 0 0.492033)
(-0.684664 0 0.438261)
(-0.665683 0 0.366965)
(-0.644768 0 0.282277)
(-0.625202 0 0.196323)
(-0.609992 0 0.122901)
(-0.600168 0 0.0697404)
(-0.594898 0 0.0359555)
(-0.592724 0 0.0158711)
(-0.592016 0 0.00398411)
(0.0681768 0 0.418142)
(0.0666073 0 0.369656)
(0.0764713 0 0.415071)
(0.0952473 0 0.527418)
(0.114864 0 0.651648)
(0.128883 0 0.745907)
(0.134245 0 0.802562)
(0.130217 0 0.83806)
(0.119323 0 0.813784)
(0.0875693 0 0.548078)
(0.0281966 0 -0.116704)
(-0.0823024 0 -0.904859)
(-0.162007 0 -1.57616)
(-0.178999 0 -2.08802)
(-0.199972 0 -2.42781)
(-0.187137 0 -2.6863)
(-0.151197 0 -2.89168)
(-0.0994313 0 -3.0109)
(-0.0514166 0 -3.05328)
(-0.0136006 0 -3.04499)
(0.00822127 0 -3.01147)
(0.0148915 0 -2.96806)
(0.00773517 0 -2.919)
(-0.0141448 0 -2.86826)
(-0.0519411 0 -2.81261)
(-0.109369 0 -2.71828)
(-0.189712 0 -2.50204)
(-0.292468 0 -2.108)
(-0.413336 0 -1.58539)
(-0.540174 0 -1.02314)
(-0.656766 0 -0.48977)
(-0.74803 0 -0.0331065)
(-0.802502 0 0.304916)
(-0.821434 0 0.509176)
(-0.816439 0 0.599016)
(-0.80051 0 0.6168)
(-0.781824 0 0.599782)
(-0.764832 0 0.571316)
(-0.750023 0 0.540121)
(-0.735911 0 0.504684)
(-0.720193 0 0.45853)
(-0.701314 0 0.395957)
(-0.679773 0 0.317539)
(-0.658225 0 0.23222)
(-0.639982 0 0.153531)
(-0.627042 0 0.0922197)
(-0.619314 0 0.0512427)
(-0.615437 0 0.0266753)
(-0.613888 0 0.0123143)
(-0.613249 0 0.00333101)
(0.081408 0 0.421233)
(0.0798924 0 0.36685)
(0.0901903 0 0.405169)
(0.110547 0 0.513821)
(0.133082 0 0.639347)
(0.150832 0 0.738284)
(0.160816 0 0.800521)
(0.162446 0 0.841298)
(0.15917 0 0.824533)
(0.134693 0 0.577477)
(0.0806394 0 -0.0609128)
(-0.022025 0 -0.840582)
(-0.100139 0 -1.54369)
(-0.13642 0 -2.06757)
(-0.160454 0 -2.427)
(-0.155731 0 -2.70167)
(-0.117899 0 -2.92052)
(-0.0715606 0 -3.04292)
(-0.0288318 0 -3.08017)
(0.00266685 0 -3.06317)
(0.0179443 0 -3.01906)
(0.0177359 0 -2.96376)
(0.00151251 0 -2.90019)
(-0.0325062 0 -2.83238)
(-0.0855873 0 -2.75735)
(-0.160293 0 -2.63985)
(-0.257034 0 -2.39498)
(-0.37197 0 -1.97232)
(-0.498556 0 -1.43313)
(-0.62327 0 -0.872993)
(-0.730006 0 -0.361324)
(-0.805953 0 0.0554561)
(-0.844693 0 0.34637)
(-0.851936 0 0.510726)
(-0.8401 0 0.576755)
(-0.820805 0 0.584908)
(-0.801004 0 0.567252)
(-0.783492 0 0.54119)
(-0.767703 0 0.510787)
(-0.751572 0 0.471962)
(-0.733021 0 0.418491)
(-0.711542 0 0.348076)
(-0.688888 0 0.266204)
(-0.668227 0 0.184879)
(-0.652237 0 0.116505)
(-0.64172 0 0.0676118)
(-0.635759 0 0.037186)
(-0.63288 0 0.0197353)
(-0.631716 0 0.00947932)
(-0.630925 0 0.00265355)
(0.0946245 0 0.424112)
(0.0932348 0 0.363888)
(0.103933 0 0.394597)
(0.125845 0 0.498698)
(0.151444 0 0.624702)
(0.173303 0 0.727677)
(0.188525 0 0.794767)
(0.196789 0 0.839615)
(0.20259 0 0.829559)
(0.189767 0 0.600141)
(0.143263 0 -0.00964595)
(0.0470192 0 -0.779564)
(-0.0345785 0 -1.50274)
(-0.0866105 0 -2.04475)
(-0.114822 0 -2.41678)
(-0.123162 0 -2.71829)
(-0.0810858 0 -2.94787)
(-0.0398341 0 -3.07175)
(-0.0027746 0 -3.10303)
(0.0232421 0 -3.077)
(0.0325016 0 -3.02166)
(0.0266897 0 -2.95321)
(0.00284551 0 -2.87217)
(-0.0425314 0 -2.78392)
(-0.11008 0 -2.68624)
(-0.200874 0 -2.54436)
(-0.311812 0 -2.27385)
(-0.435658 0 -1.82933)
(-0.564162 0 -1.2821)
(-0.6836 0 -0.732857)
(-0.779098 0 -0.250266)
(-0.840895 0 0.123612)
(-0.867096 0 0.370244)
(-0.866308 0 0.500898)
(-0.8508 0 0.548769)
(-0.830642 0 0.551176)
(-0.811247 0 0.534411)
(-0.793924 0 0.510156)
(-0.777312 0 0.478594)
(-0.759243 0 0.434431)
(-0.738404 0 0.373404)
(-0.715531 0 0.297556)
(-0.693261 0 0.216383)
(-0.674609 0 0.142648)
(-0.661244 0 0.0858207)
(-0.652923 0 0.0482516)
(-0.648307 0 0.0262968)
(-0.646104 0 0.0141369)
(-0.64521 0 0.00692913)
(-0.644228 0 0.00194692)
(0.107717 0 0.426702)
(0.106511 0 0.36076)
(0.117533 0 0.3834)
(0.140865 0 0.482053)
(0.169499 0 0.607599)
(0.195631 0 0.713819)
(0.216369 0 0.784883)
(0.231709 0 0.83231)
(0.246955 0 0.827411)
(0.246587 0 0.61466)
(0.209549 0 0.0372107)
(0.122151 0 -0.71932)
(0.0342963 0 -1.4524)
(-0.0358186 0 -2.01625)
(-0.0633784 0 -2.39959)
(-0.0646283 0 -2.73027)
(-0.0378696 0 -2.97041)
(-0.00644212 0 -3.09579)
(0.0253192 0 -3.12279)
(0.0489839 0 -3.0868)
(0.0535094 0 -3.01997)
(0.0427928 0 -2.93787)
(0.0131419 0 -2.83617)
(-0.042129 0 -2.72391)
(-0.122612 0 -2.6008)
(-0.227239 0 -2.43415)
(-0.349427 0 -2.14212)
(-0.478672 0 -1.68318)
(-0.606144 0 -1.13553)
(-0.718758 0 -0.604269)
(-0.8034 0 -0.155378)
(-0.853541 0 0.175403)
(-0.871048 0 0.38207)
(-0.865952 0 0.485028)
(-0.849749 0 0.519488)
(-0.830803 0 0.518659)
(-0.812903 0 0.502901)
(-0.796169 0 0.478797)
(-0.778841 0 0.443828)
(-0.759174 0 0.393079)
(-0.736963 0 0.325552)
(-0.71406 0 0.247521)
(-0.693429 0 0.170759)
(-0.677433 0 0.106721)
(-0.666692 0 0.0611906)
(-0.660256 0 0.0331832)
(-0.656697 0 0.0177492)
(-0.655031 0 0.00951241)
(-0.654403 0 0.00466773)
(-0.653289 0 0.00129585)
(0.120559 0 0.428938)
(0.11958 0 0.357476)
(0.130809 0 0.371673)
(0.155324 0 0.463983)
(0.186773 0 0.588066)
(0.217102 0 0.696647)
(0.243259 0 0.770779)
(0.265539 0 0.81935)
(0.289823 0 0.818005)
(0.301533 0 0.621828)
(0.274496 0 0.077732)
(0.193546 0 -0.659981)
(0.10315 0 -1.39729)
(0.0226232 0 -1.98145)
(-0.00202814 0 -2.39775)
(0.00738908 0 -2.733)
(0.00512828 0 -2.98376)
(0.0266039 0 -3.11414)
(0.055682 0 -3.14046)
(0.0780398 0 -3.09547)
(0.0840103 0 -3.0158)
(0.0692381 0 -2.91856)
(0.0333199 0 -2.79314)
(-0.0302405 0 -2.65418)
(-0.121691 0 -2.5033)
(-0.237424 0 -2.31211)