/*--------------------------------*- C++ -*----------------------------------*\
  =========                 |
  \\      /  F ield         | OpenFOAM: The Open Source CFD Toolbox
   \\    /   O peration     | Website:  https://openfoam.org
    \\  /    A nd           | Version:  9
     \\/     M anipulation  |
\*---------------------------------------------------------------------------*/
FoamFile
{
    format      ascii;
    class       surfaceVectorField;
    location    "0.19";
    object      Uf;
}
// * * * * * * * * * * * * * * * * * * * * * * * * * * * * * * * * * * * * * //

dimensions      [0 1 -1 0 0 0 0];

internalField   nonuniform List<vector> 
9850
(
(-0.243564 0 0.367534)
(-0.223476 0 0.353451)
(-0.261083 0 0.45567)
(-0.239933 0 0.391968)
(-0.27576 0 0.607824)
(-0.254148 0 0.528171)
(-0.285804 0 0.762847)
(-0.263895 0 0.693264)
(-0.289177 0 0.885185)
(-0.267529 0 0.833843)
(-0.282522 0 0.96909)
(-0.262265 0 0.931537)
(-0.262586 0 1.03644)
(-0.243904 0 0.992629)
(-0.225533 0 1.1238)
(-0.209227 0 1.05388)
(-0.149799 0 1.14829)
(-0.146166 0 1.14453)
(-0.00310585 0 0.743281)
(-0.0329817 0 1.06233)
(0.202954 0 -0.404823)
(0.151578 0 0.294012)
(0.318012 0 -1.67456)
(0.558796 0 -1.21025)
(0.0847278 0 -2.413)
(0.198047 0 -2.07326)
(-0.0220374 0 -2.71307)
(0.0419862 0 -2.60875)
(-0.0697688 0 -2.7802)
(-0.0431637 0 -2.75425)
(-0.0874474 0 -2.7887)
(-0.0752394 0 -2.78139)
(-0.0924803 0 -2.79692)
(-0.0843936 0 -2.78788)
(-0.091113 0 -2.81807)
(-0.0861094 0 -2.80453)
(-0.0843571 0 -2.8493)
(-0.0824918 0 -2.83401)
(-0.0710257 0 -2.88387)
(-0.0730876 0 -2.87075)
(-0.0543123 0 -2.90855)
(-0.0584557 0 -2.90441)
(-0.0339071 0 -2.92229)
(-0.0401029 0 -2.92702)
(-0.0129785 0 -2.92079)
(-0.019722 0 -2.93466)
(0.00425232 0 -2.90315)
(-0.00137633 0 -2.92346)
(0.0145651 0 -2.87252)
(0.0106219 0 -2.89487)
(0.0168507 0 -2.835)
(0.0141907 0 -2.85505)
(0.0114897 0 -2.79658)
(0.0102009 0 -2.81176)
(-0.00172381 0 -2.75475)
(-0.000957746 0 -2.76935)
(-0.0239168 0 -2.682)
(-0.0233558 0 -2.71645)
(-0.0545098 0 -2.52074)
(-0.0525733 0 -2.61026)
(-0.0879994 0 -2.27975)
(-0.0902257 0 -2.38012)
(-0.0854447 0 -1.6424)
(-0.161652 0 -2.13203)
(0.00403817 0 -0.70876)
(-0.0963375 0 -1.20556)
(0.1166 0 0.0731646)
(0.000209229 0 -0.361153)
(0.219198 0 0.633855)
(0.113042 0 0.333448)
(0.294265 0 0.936335)
(0.203357 0 0.781293)
(0.339168 0 1.02537)
(0.26182 0 0.98072)
(0.361676 0 0.987333)
(0.294379 0 1.00237)
(0.371748 0 0.900445)
(0.310861 0 0.935767)
(0.376392 0 0.810235)
(0.319323 0 0.846042)
(0.378863 0 0.732531)
(0.32439 0 0.763496)
(0.380071 0 0.66739)
(0.327765 0 0.694592)
(0.380082 0 0.610516)
(0.32975 0 0.63614)
(0.378898 0 0.558473)
(0.330356 0 0.58385)
(0.376656 0 0.509645)
(0.329694 0 0.535158)
(0.373578 0 0.463588)
(0.327966 0 0.489132)
(0.36988 0 0.420266)
(0.32543 0 0.445646)
(0.365735 0 0.379627)
(0.322186 0 0.404738)
(0.36129 0 0.341213)
(0.319035 0 0.366147)
(0.313785 0 0.328311)
(-0.221002 0 0.377968)
(-0.203254 0 0.363199)
(-0.234026 0 0.464605)
(-0.216057 0 0.40065)
(-0.242944 0 0.613823)
(-0.225414 0 0.534117)
(-0.246043 0 0.764586)
(-0.22927 0 0.69533)
(-0.241155 0 0.880717)
(-0.226146 0 0.830583)
(-0.224563 0 0.955896)
(-0.213114 0 0.920475)
(-0.191905 0 1.01126)
(-0.185583 0 0.970857)
(-0.136352 0 1.0766)
(-0.140268 0 1.01685)
(-0.0336704 0 1.06054)
(-0.0628261 0 1.07608)
(0.157891 0 0.613629)
(0.0773896 0 0.934622)
(0.396011 0 -0.509013)
(0.271752 0 0.135266)
(0.540392 0 -1.60997)
(0.702173 0 -1.3065)
(0.178858 0 -2.27319)
(0.362105 0 -1.83224)
(0.0170767 0 -2.65174)
(0.109614 0 -2.50089)
(-0.0487403 0 -2.75698)
(0.00156748 0 -2.71037)
(-0.0709331 0 -2.78114)
(-0.0466536 0 -2.76659)
(-0.0780753 0 -2.79584)
(-0.0621872 0 -2.78312)
(-0.0777011 0 -2.82082)
(-0.0671439 0 -2.80478)
(-0.0717523 0 -2.85583)
(-0.0654681 0 -2.83798)
(-0.0595617 0 -2.89507)
(-0.0577355 0 -2.87887)
(-0.044209 0 -2.92379)
(-0.0450843 0 -2.91694)
(-0.0256812 0 -2.93991)
(-0.029347 0 -2.94288)
(-0.00750332 0 -2.93736)
(-0.0125726 0 -2.95097)
(0.0057118 0 -2.91483)
(0.00101547 0 -2.9359)
(0.0108458 0 -2.87682)
(0.00709905 0 -2.89994)
(0.00763362 0 -2.83117)
(0.00411961 0 -2.85172)
(-0.00279247 0 -2.78397)
(-0.00622487 0 -2.80043)
(-0.0217954 0 -2.73018)
(-0.0237151 0 -2.74769)
(-0.0546506 0 -2.64128)
(-0.0520019 0 -2.67716)
(-0.101236 0 -2.46393)
(-0.0883758 0 -2.55182)
(-0.164453 0 -2.22829)
(-0.140749 0 -2.29693)
(-0.161796 0 -1.66914)
(-0.194265 0 -2.1357)
(-0.0943074 0 -0.831503)
(-0.156261 0 -1.30328)
(0.00046522 0 -0.0822642)
(-0.0922963 0 -0.505096)
(0.0944581 0 0.492773)
(0.0111879 0 0.183698)
(0.167377 0 0.831716)
(0.0915494 0 0.659429)
(0.215407 0 0.95936)
(0.148257 0 0.896522)
(0.243394 0 0.950161)
(0.183388 0 0.950903)
(0.258854 0 0.880033)
(0.203719 0 0.905946)
(0.267843 0 0.798023)
(0.215753 0 0.827854)
(0.273689 0 0.724493)
(0.22369 0 0.75109)
(0.277673 0 0.662424)
(0.229379 0 0.685722)
(0.280138 0 0.608606)
(0.233385 0 0.630386)
(0.281201 0 0.559663)
(0.235873 0 0.581247)
(0.28102 0 0.513756)
(0.236992 0 0.535627)
(0.279805 0 0.470292)
(0.236937 0 0.492409)
(0.277774 0 0.42922)
(0.235944 0 0.45139)
(0.275142 0 0.39036)
(0.234154 0 0.412543)
(0.272348 0 0.352333)
(0.232424 0 0.37484)
(0.230569 0 0.335385)
(-0.199375 0 0.385968)
(-0.183882 0 0.370985)
(-0.20834 0 0.47031)
(-0.193415 0 0.406625)
(-0.212234 0 0.61587)
(-0.19851 0 0.536714)
(-0.20955 0 0.761703)
(-0.19742 0 0.693541)
(-0.198225 0 0.870915)
(-0.188995 0 0.823032)
(-0.174678 0 0.936372)
(-0.170546 0 0.904777)
(-0.134363 0 0.977846)
(-0.137542 0 0.943981)
(-0.0690573 0 1.01871)
(-0.087515 0 0.973308)
(0.041223 0 0.956395)
(-0.00978094 0 1.00256)
(0.237903 0 0.465767)
(0.137356 0 0.803501)
(0.474147 0 -0.634985)
(0.305412 0 -0.0222307)
(0.582091 0 -1.5128)
(0.621667 0 -1.37847)
(0.322389 0 -2.06507)
(0.546026 0 -1.65911)
(0.0990553 0 -2.56057)
(0.228493 0 -2.35201)
(0.00187104 0 -2.72215)
(0.077444 0 -2.64558)
(-0.0362341 0 -2.7685)
(0.00722191 0 -2.74119)
(-0.0512281 0 -2.79247)
(-0.0217109 0 -2.77313)
(-0.0552271 0 -2.82258)
(-0.0351459 0 -2.80211)
(-0.0520158 0 -2.86165)
(-0.0390399 0 -2.84012)
(-0.0425235 0 -2.90513)
(-0.0357228 0 -2.8852)
(-0.0303241 0 -2.93714)
(-0.0276015 0 -2.92689)
(-0.0161471 0 -2.95461)
(-0.0173898 0 -2.95501)
(-0.00350798 0 -2.94967)
(-0.00742107 0 -2.96232)
(0.00302581 0 -2.9208)
(-0.00138195 0 -2.94205)
(0.000685894 0 -2.87451)
(-0.00334107 0 -2.89763)
(-0.00985059 0 -2.82069)
(-0.0145237 0 -2.84081)
(-0.0270797 0 -2.76392)
(-0.0330256 0 -2.7817)
(-0.0525641 0 -2.69375)
(-0.057575 0 -2.71863)
(-0.0925432 0 -2.58478)
(-0.0864487 0 -2.62934)
(-0.14716 0 -2.37879)
(-0.121672 0 -2.4833)
(-0.156918 0 -2.16704)
(-0.167745 0 -2.28409)
(-0.186142 0 -1.69685)
(-0.162767 0 -2.09536)
(-0.156619 0 -0.937927)
(-0.164297 0 -1.34602)
(-0.0730469 0 -0.221183)
(-0.127986 0 -0.632027)
(0.00642335 0 0.364779)
(-0.0510047 0 0.0570875)
(0.0698322 0 0.732283)
(0.0111218 0 0.553461)
(0.114613 0 0.891081)
(0.0589538 0 0.818019)
(0.143219 0 0.906941)
(0.0914087 0 0.8983)
(0.160816 0 0.852935)
(0.111898 0 0.872002)
(0.172028 0 0.779906)
(0.125157 0 0.805169)
(0.179743 0 0.711417)
(0.134388 0 0.734714)
(0.185312 0 0.652896)
(0.1412 0 0.673323)
(0.189236 0 0.602284)
(0.146248 0 0.621222)
(0.191719 0 0.556467)
(0.149795 0 0.575163)
(0.192933 0 0.513522)
(0.152016 0 0.532508)
(0.193071 0 0.472743)
(0.153097 0 0.492037)
(0.192347 0 0.433955)
(0.15326 0 0.453436)
(0.191109 0 0.396257)
(0.152765 0 0.416213)
(0.190327 0 0.357072)
(0.152876 0 0.377273)
(0.15519 0 0.332985)
(-0.17888 0 0.391778)
(-0.165486 0 0.377031)
(-0.184334 0 0.473212)
(-0.172205 0 0.410261)
(-0.184024 0 0.614647)
(-0.173693 0 0.536507)
(-0.176816 0 0.755257)
(-0.168643 0 0.688736)
(-0.160981 0 0.857464)
(-0.156353 0 0.812476)
(-0.133479 0 0.913327)
(-0.13475 0 0.886443)
(-0.0907725 0 0.94104)
(-0.0998846 0 0.91551)
(-0.0251448 0 0.95965)
(-0.0496877 0 0.929556)
(0.0762428 0 0.855585)
(0.0177652 0 0.934968)
(0.242026 0 0.326983)
(0.154729 0 0.692979)
(0.420652 0 -0.753749)
(0.279337 0 -0.141315)
(0.502012 0 -1.50002)
(0.431853 0 -1.43271)
(0.542632 0 -1.91902)
(0.639934 0 -1.68619)
(0.222922 0 -2.43124)
(0.38491 0 -2.13887)
(0.0797175 0 -2.66735)
(0.180054 0 -2.55011)
(0.0221587 0 -2.74739)
(0.0910371 0 -2.70281)
(-0.00574018 0 -2.78352)
(0.0439062 0 -2.75453)
(-0.0193343 0 -2.82071)
(0.0147233 0 -2.79305)
(-0.0233842 0 -2.86468)
(-0.000942408 0 -2.83742)
(-0.0205376 0 -2.9119)
(-0.0070789 0 -2.8871)
(-0.0149274 0 -2.94597)
(-0.007601 0 -2.93147)
(-0.00873114 0 -2.96334)
(-0.00666663 0 -2.96032)
(-0.0048327 0 -2.95473)
(-0.00682713 0 -2.96582)
(-0.00722505 0 -2.91849)
(-0.0104194 0 -2.9398)
(-0.0185331 0 -2.86328)
(-0.0213889 0 -2.88646)
(-0.0378279 0 -2.80118)
(-0.0411087 0 -2.82081)
(-0.0625103 0 -2.73548)
(-0.0666604 0 -2.75488)
(-0.0934054 0 -2.65368)
(-0.093288 0 -2.68341)
(-0.12251 0 -2.5295)
(-0.116592 0 -2.59454)
(-0.174418 0 -2.37906)
(-0.138007 0 -2.41818)
(-0.131128 0 -2.1989)
(-0.133452 0 -2.34106)
(-0.155653 0 -1.72524)
(-0.11453 0 -2.06151)
(-0.134826 0 -1.01306)
(-0.134045 0 -1.37618)
(-0.0971695 0 -0.324116)
(-0.119921 0 -0.689221)
(-0.0471491 0 0.263577)
(-0.0842164 0 -0.0226046)
(-0.00111674 0 0.649118)
(-0.0461801 0 0.476531)
(0.034206 0 0.829676)
(-0.0118525 0 0.756097)
(0.0592316 0 0.864418)
(0.014474 0 0.852282)
(0.0761884 0 0.823855)
(0.0327124 0 0.839295)
(0.0878056 0 0.759219)
(0.0455952 0 0.781663)
(0.0961312 0 0.695884)
(0.0550007 0 0.717044)
(0.10232 0 0.640991)
(0.0620795 0 0.659544)
(0.106904 0 0.593474)
(0.0674558 0 0.610518)
(0.110133 0 0.550557)
(0.071422 0 0.567252)
(0.112192 0 0.510321)
(0.0741538 0 0.527217)
(0.113276 0 0.471936)
(0.0758034 0 0.489113)
(0.113662 0 0.434726)
(0.0765246 0 0.452345)
(0.114034 0 0.395863)
(0.0767232 0 0.41511)
(0.11608 0 0.351207)
(0.0791858 0 0.370905)
(0.0883941 0 0.319231)
(-0.159646 0 0.395665)
(-0.14814 0 0.381589)
(-0.16216 0 0.47375)
(-0.152503 0 0.411937)
(-0.15847 0 0.610851)
(-0.151039 0 0.534047)
(-0.147956 0 0.746318)
(-0.142978 0 0.681726)
(-0.129422 0 0.841974)
(-0.128117 0 0.800119)
(-0.100546 0 0.889399)
(-0.105184 0 0.867192)
(-0.0595209 0 0.905485)
(-0.071343 0 0.88816)
(-0.00140526 0 0.906427)
(-0.0237799 0 0.890812)
(0.0856306 0 0.77333)
(0.0295492 0 0.876944)
(0.21075 0 0.22657)
(0.147521 0 0.609566)
(0.32643 0 -0.827875)
(0.231677 0 -0.218434)
(0.406612 0 -1.62529)
(0.288934 0 -1.48616)
(0.626403 0 -1.91159)
(0.555318 0 -1.83272)
(0.350485 0 -2.26867)
(0.488216 0 -1.95492)
(0.196045 0 -2.5913)
(0.306467 0 -2.44715)
(0.109981 0 -2.71388)
(0.207629 0 -2.64544)
(0.0629446 0 -2.76542)
(0.137276 0 -2.72317)
(0.0328364 0 -2.81076)
(0.0828947 0 -2.77298)
(0.0147046 0 -2.8608)
(0.0474123 0 -2.82533)
(0.00531361 0 -2.9117)
(0.0259764 0 -2.88084)
(0.00035649 0 -2.9467)
(0.0128997 0 -2.92743)
(-0.00499121 0 -2.96293)
(0.00159733 0 -2.95574)
(-0.0120343 0 -2.95025)
(-0.0108122 0 -2.9595)
(-0.0240949 0 -2.90649)
(-0.0243005 0 -2.92844)
(-0.0441217 0 -2.84239)
(-0.0429058 0 -2.86668)
(-0.0701428 0 -2.77247)
(-0.0679293 0 -2.79385)
(-0.0972976 0 -2.70061)
(-0.0929525 0 -2.72536)
(-0.119311 0 -2.61638)
(-0.106893 0 -2.65831)
(-0.138558 0 -2.47974)
(-0.100457 0 -2.57152)
(-0.116841 0 -2.39117)
(-0.0374754 0 -2.44543)
(-0.0804937 0 -2.21634)
(-0.0545931 0 -2.38889)
(-0.10624 0 -1.71343)
(-0.0735729 0 -2.02597)
(-0.107638 0 -1.0409)
(-0.105816 0 -1.37416)
(-0.104256 0 -0.371014)
(-0.115253 0 -0.694357)
(-0.0844486 0 0.203912)
(-0.111898 0 -0.0541613)
(-0.0582829 0 0.591449)
(-0.0944749 0 0.432803)
(-0.0332824 0 0.781752)
(-0.0728429 0 0.712271)
(-0.0131003 0 0.827584)
(-0.0530684 0 0.81517)
(0.00196981 0 0.79641)
(-0.0375034 0 0.810226)
(0.0129766 0 0.738545)
(-0.0255225 0 0.759393)
(0.021158 0 0.679849)
(-0.0164299 0 0.699679)
(0.0273613 0 0.628364)
(-0.00948243 0 0.645734)
(0.0320561 0 0.583699)
(-0.00413444 0 0.599554)
(0.0354832 0 0.543405)
(-9.85417e-05 0 0.558856)
(0.0377907 0 0.505619)
(0.00279405 0 0.521288)
(0.0391111 0 0.469332)
(0.00466611 0 0.485555)
(0.0397103 0 0.432881)
(0.00559379 0 0.450652)
(0.0406166 0 0.390796)
(0.00600334 0 0.412423)
(0.04504 0 0.339912)
(0.0102948 0 0.357144)
(0.0289656 0 0.261876)
(-0.141715 0 0.397988)
(-0.131838 0 0.384939)
(-0.141844 0 0.472405)
(-0.134301 0 0.412023)
(-0.135545 0 0.605149)
(-0.130499 0 0.529847)
(-0.122787 0 0.735838)
(-0.120267 0 0.673221)
(-0.103032 0 0.825758)
(-0.103927 0 0.786948)
(-0.0746533 0 0.866404)
(-0.0809266 0 0.848273)
(-0.0370849 0 0.873921)
(-0.0499419 0 0.863114)
(0.0125464 0 0.861819)
(-0.00662586 0 0.857724)
(0.0837555 0 0.712315)
(0.0337904 0 0.829471)
(0.17023 0 0.161589)
(0.129639 0 0.551915)
(0.247284 0 -0.880051)
(0.187612 0 -0.269804)
(0.308159 0 -1.73258)
(0.21949 0 -1.52675)
(0.515019 0 -1.9145)
(0.390822 0 -1.97062)
(0.423081 0 -2.11121)
(0.530866 0 -1.89363)
(0.340129 0 -2.47481)
(0.4436 0 -2.39185)
(0.23139 0 -2.65082)
(0.328613 0 -2.57295)
(0.152868 0 -2.72972)
(0.236156 0 -2.67082)
(0.0969661 0 -2.78704)
(0.155615 0 -2.73571)
(0.0580833 0 -2.84519)
(0.0966988 0 -2.79941)
(0.0318396 0 -2.90091)
(0.0576263 0 -2.86334)
(0.0138092 0 -2.93669)
(0.0315925 0 -2.91272)
(-0.00465056 0 -2.952)
(0.00764984 0 -2.93994)
(-0.0228381 0 -2.93659)
(-0.0177261 0 -2.94317)
(-0.0428067 0 -2.88685)
(-0.0400492 0 -2.90964)
(-0.0673155 0 -2.816)
(-0.0625141 0 -2.84247)
(-0.0916443 0 -2.74478)
(-0.0846254 0 -2.76864)
(-0.103263 0 -2.68168)
(-0.0963345 0 -2.71274)
(-0.0795776 0 -2.60945)
(-0.0821832 0 -2.68531)
(0.0125426 0 -2.51692)
(0.0155131 0 -2.68169)
(0.00854669 0 -2.42463)
(0.00539466 0 -2.44041)
(-0.0325503 0 -2.18931)
(-0.0195044 0 -2.33481)
(-0.0761445 0 -1.67671)
(-0.0677877 0 -1.96579)
(-0.105388 0 -1.01979)
(-0.113167 0 -1.33181)
(-0.123176 0 -0.369486)
(-0.135426 0 -0.667339)
(-0.123303 0 0.182483)
(-0.147566 0 -0.0539591)
(-0.111107 0 0.558383)
(-0.143271 0 0.412421)
(-0.0944779 0 0.747398)
(-0.130307 0 0.683119)
(-0.0784369 0 0.797386)
(-0.115161 0 0.785672)
(-0.0651302 0 0.771876)
(-0.101491 0 0.784558)
(-0.0547951 0 0.719091)
(-0.0902519 0 0.738481)
(-0.0469051 0 0.664344)
(-0.0814955 0 0.682933)
(-0.0408508 0 0.615932)
(-0.0747274 0 0.632254)
(-0.0362104 0 0.573868)
(-0.0694735 0 0.588716)
(-0.0327416 0 0.535974)
(-0.0654342 0 0.550358)
(-0.030305 0 0.500487)
(-0.0624272 0 0.515026)
(-0.0287737 0 0.466098)
(-0.0603176 0 0.481426)
(-0.0277128 0 0.429178)
(-0.0589482 0 0.447651)
(-0.0254079 0 0.377145)
(-0.0577314 0 0.405586)
(-0.0172406 0 0.276844)
(-0.0521456 0 0.331734)
(-0.0302829 0 0.178453)
(-0.125039 0 0.399087)
(-0.116511 0 0.387364)
(-0.123311 0 0.469615)
(-0.117519 0 0.41087)
(-0.115087 0 0.598113)
(-0.111931 0 0.524364)
(-0.100946 0 0.724574)
(-0.100222 0 0.663794)
(-0.0810366 0 0.809765)
(-0.0832786 0 0.773675)
(-0.0543799 0 0.845249)
(-0.0610467 0 0.830502)
(-0.0210307 0 0.846957)
(-0.0338321 0 0.840881)
(0.0200832 0 0.825419)
(0.00430683 0 0.830315)
(0.0774223 0 0.6679)
(0.0350892 0 0.791245)
(0.137136 0 0.116201)
(0.109215 0 0.512106)
(0.196644 0 -0.922257)
(0.156862 0 -0.309476)
(0.238287 0 -1.79595)
(0.183556 0 -1.55451)
(0.396249 0 -1.9767)
(0.257631 0 -2.07593)
(0.550263 0 -2.09233)
(0.478882 0 -1.9963)
(0.453824 0 -2.39736)
(0.477716 0 -2.32756)
(0.336543 0 -2.57829)
(0.409425 0 -2.49476)
(0.232247 0 -2.67277)
(0.290233 0 -2.60129)
(0.153793 0 -2.74558)
(0.199352 0 -2.68341)
(0.0960337 0 -2.81614)
(0.12939 0 -2.7609)
(0.0547829 0 -2.87917)
(0.0807657 0 -2.83584)
(0.0251282 0 -2.91565)
(0.0479331 0 -2.88852)
(-0.00613583 0 -2.93037)
(0.014175 0 -2.91318)
(-0.034928 0 -2.91519)
(-0.0248464 0 -2.91732)
(-0.0600227 0 -2.864)
(-0.0560449 0 -2.88601)
(-0.0807197 0 -2.79314)
(-0.0796749 0 -2.82203)
(-0.0894829 0 -2.73252)
(-0.0927816 0 -2.75956)
(-0.0750141 0 -2.6996)
(-0.0829558 0 -2.72846)
(0.0664783 0 -2.69118)
(-0.0328048 0 -2.84663)
(-0.0147769 0 -2.5677)
(0.00505012 0 -2.58451)
(-0.0265556 0 -2.3901)
(-0.0589448 0 -2.42564)
(-0.0458222 0 -2.12948)
(-0.0402246 0 -2.30945)
(-0.105932 0 -1.61717)
(-0.0901042 0 -1.88282)
(-0.138259 0 -0.9758)
(-0.14333 0 -1.28501)
(-0.160117 0 -0.344743)
(-0.171138 0 -0.634141)
(-0.168762 0 0.182902)
(-0.188735 0 -0.0401865)
(-0.16428 0 0.541143)
(-0.192155 0 0.404931)
(-0.152504 0 0.722405)
(-0.184585 0 0.662476)
(-0.138943 0 0.771961)
(-0.172464 0 0.760736)
(-0.126716 0 0.749544)
(-0.160099 0 0.760972)
(-0.116833 0 0.700674)
(-0.149452 0 0.718485)
(-0.109163 0 0.649415)
(-0.141009 0 0.666654)
(-0.103232 0 0.603832)
(-0.134448 0 0.619052)
(-0.0986279 0 0.564131)
(-0.12933 0 0.577964)
(-0.0950832 0 0.528373)
(-0.125335 0 0.541676)
(-0.0924453 0 0.494892)
(-0.122275 0 0.508249)
(-0.0905324 0 0.46178)
(-0.119995 0 0.476271)
(-0.088623 0 0.422472)
(-0.118113 0 0.442253)
(-0.0844945 0 0.357452)
(-0.11546 0 0.393342)
(-0.0743616 0 0.228294)
(-0.10831 0 0.30021)
(-0.0910699 0 0.125839)
(-0.109518 0 0.399253)
(-0.102057 0 0.389126)
(-0.106412 0 0.465752)
(-0.102021 0 0.408799)
(-0.0968422 0 0.590205)
(-0.0951292 0 0.517985)
(-0.0819894 0 0.713075)
(-0.0824908 0 0.653892)
(-0.0626532 0 0.794612)
(-0.0656108 0 0.760784)
(-0.0384506 0 0.826337)
(-0.0447263 0 0.814367)
(-0.00969181 0 0.824321)
(-0.0215621 0 0.821709)
(0.0235487 0 0.796032)
(0.0108968 0 0.808155)
(0.0693251 0 0.634435)
(0.0352284 0 0.760727)
(0.114183 0 0.0820261)
(0.0908247 0 0.482201)
(0.163433 0 -0.950601)
(0.138426 0 -0.342309)
(0.18676 0 -1.84117)
(0.155082 0 -1.57006)
(0.290312 0 -2.07886)
(0.156471 0 -2.14496)
(0.438249 0 -2.24845)
(0.334776 0 -2.09493)
(0.445142 0 -2.46156)
(0.383708 0 -2.33215)
(0.35945 0 -2.52258)
(0.365172 0 -2.43763)
(0.24582 0 -2.61403)
(0.244028 0 -2.52554)
(0.171306 0 -2.69657)
(0.187223 0 -2.63373)
(0.114489 0 -2.77963)
(0.136191 0 -2.72303)
(0.0718242 0 -2.85063)
(0.0943091 0 -2.8074)
(0.0370685 0 -2.88529)
(0.063846 0 -2.86017)
(-0.0055928 0 -2.8974)
(0.0259965 0 -2.87667)
(-0.0465404 0 -2.88498)
(-0.0252802 0 -2.88056)
(-0.0750255 0 -2.83877)
(-0.0655119 0 -2.85918)
(-0.0946028 0 -2.78064)
(-0.0875301 0 -2.80269)
(-0.0891262 0 -2.74863)
(-0.100634 0 -2.76524)
(-0.0201852 0 -2.80322)
(-0.161835 0 -2.80339)
(-0.0897983 0 -2.72367)
(-0.0485213 0 -2.76726)
(-0.0787618 0 -2.51638)
(-0.0717949 0 -2.59771)
(-0.0504002 0 -2.36202)
(-0.0428732 0 -2.46122)
(-0.0803691 0 -2.05872)
(-0.0546568 0 -2.27002)
(-0.128381 0 -1.5401)
(-0.105382 0 -1.81655)
(-0.172496 0 -0.924813)
(-0.161519 0 -1.22113)
(-0.199051 0 -0.315046)
(-0.200931 0 -0.593808)
(-0.213291 0 0.192131)
(-0.225625 0 -0.0175007)
(-0.214015 0 0.531901)
(-0.235925 0 0.406141)
(-0.205766 0 0.702646)
(-0.233096 0 0.648016)
(-0.194146 0 0.749328)
(-0.223862 0 0.739368)
(-0.182883 0 0.728567)
(-0.213011 0 0.739246)
(-0.173499 0 0.682971)
(-0.203229 0 0.699499)
(-0.166143 0 0.634952)
(-0.195335 0 0.651039)
(-0.160435 0 0.59204)
(-0.189164 0 0.606343)
(-0.155973 0 0.554509)
(-0.184324 0 0.567543)
(-0.152489 0 0.520647)
(-0.180501 0 0.53314)
(-0.149823 0 0.48879)
(-0.177511 0 0.501397)
(-0.147664 0 0.455918)
(-0.175144 0 0.470452)
(-0.144921 0 0.41207)
(-0.172692 0 0.434495)
(-0.139286 0 0.334179)
(-0.168351 0 0.376628)
(-0.12904 0 0.193869)
(-0.159551 0 0.268335)
(-0.146879 0 0.0951482)
(-0.0950131 0 0.398763)
(-0.0883486 0 0.390468)
(-0.0909501 0 0.461141)
(-0.0876365 0 0.40609)
(-0.0805065 0 0.581796)
(-0.0798514 0 0.511022)
(-0.0654562 0 0.701732)
(-0.0667021 0 0.643858)
(-0.0471905 0 0.780667)
(-0.050363 0 0.748607)
(-0.0258386 0 0.809865)
(-0.0312392 0 0.800132)
(-0.00170474 0 0.805564)
(-0.0120983 0 0.805619)
(0.0249684 0 0.772588)
(0.0145215 0 0.790372)
(0.061258 0 0.60767)
(0.0342636 0 0.736534)
(0.10082 0 0.0558329)
(0.076457 0 0.455826)
(0.136574 0 -0.965561)
(0.126595 0 -0.366145)
(0.137447 0 -1.86862)
(0.128758 0 -1.57064)
(0.177401 0 -2.15699)
(0.0860201 0 -2.1716)
(0.298098 0 -2.27491)
(0.203275 0 -2.17539)
(0.327682 0 -2.40482)
(0.255893 0 -2.35188)
(0.28541 0 -2.44672)
(0.234586 0 -2.40945)
(0.134459 0 -2.5497)
(0.165979 0 -2.4249)
(0.14405 0 -2.66007)
(0.113569 0 -2.64012)
(0.114525 0 -2.74701)
(0.132257 0 -2.70334)
(0.0854459 0 -2.81999)
(0.104058 0 -2.78801)
(0.0545877 0 -2.8498)
(0.075336 0 -2.83499)
(0.00463168 0 -2.85762)
(0.0421934 0 -2.83392)
(-0.0452294 0 -2.85014)
(-0.00680811 0 -2.8358)
(-0.0781724 0 -2.81673)
(-0.0438734 0 -2.82816)
(-0.0992814 0 -2.78224)
(-0.0358646 0 -2.78184)
(-0.229527 0 -2.82129)
(-0.0346827 0 -2.63028)
(-0.128218 0 -2.84396)
(-0.0706872 0 -2.9135)
(-0.0705881 0 -2.7155)
(-0.026811 0 -2.83297)
(-0.0326088 0 -2.53446)
(-0.0122799 0 -2.64313)
(-0.0365741 0 -2.34645)
(-0.00015004 0 -2.45624)
(-0.084539 0 -2.00562)
(-0.041367 0 -2.2069)
(-0.133 0 -1.47547)
(-0.1003 0 -1.74966)
(-0.187711 0 -0.86832)
(-0.163072 0 -1.14191)
(-0.22703 0 -0.278045)
(-0.219377 0 -0.534089)
(-0.249581 0 0.208783)
(-0.255293 0 0.0184286)
(-0.256478 0 0.529129)
(-0.273006 0 0.417667)
(-0.252318 0 0.687398)
(-0.275359 0 0.640722)
(-0.24319 0 0.729456)
(-0.269421 0 0.722584)
(-0.23341 0 0.709255)
(-0.260578 0 0.720382)
(-0.224954 0 0.666369)
(-0.252094 0 0.682391)
(-0.218223 0 0.621298)
(-0.245075 0 0.636754)
(-0.212954 0 0.580852)
(-0.239517 0 0.594613)
(-0.208789 0 0.545293)
(-0.235098 0 0.557816)
(-0.20548 0 0.513091)
(-0.231539 0 0.525036)
(-0.20282 0 0.4823)
(-0.228647 0 0.494564)
(-0.200247 0 0.448172)
(-0.226056 0 0.463516)
(-0.196284 0 0.397687)
(-0.222664 0 0.423291)
(-0.188957 0 0.308239)
(-0.216437 0 0.354896)
(-0.178667 0 0.165578)
(-0.206294 0 0.236321)
(-0.196312 0 0.0740766)
(-0.0813645 0 0.397866)
(-0.0752444 0 0.391599)
(-0.0767039 0 0.456055)
(-0.0741739 0 0.402983)
(-0.0657604 0 0.573175)
(-0.0658337 0 0.503726)
(-0.0508893 0 0.690823)
(-0.0524825 0 0.633944)
(-0.0340272 0 0.768144)
(-0.0370048 0 0.737366)
(-0.0157113 0 0.795933)
(-0.0199201 0 0.787921)
(0.00379419 0 0.790351)
(-0.00470899 0 0.792616)
(0.0248712 0 0.754005)
(0.0160105 0 0.776321)
(0.0535914 0 0.584374)
(0.031285 0 0.717387)
(0.0913431 0 0.0337637)
(0.0638685 0 0.430658)
(0.115353 0 -0.971639)
(0.113599 0 -0.382152)
(0.0957565 0 -1.87364)
(0.103494 0 -1.55758)
(0.0926937 0 -2.19794)
(0.0344998 0 -2.16956)
(0.17258 0 -2.28201)
(0.0868075 0 -2.22865)
(0.178452 0 -2.36583)
(0.119373 0 -2.35579)
(0.148042 0 -2.38353)
(0.115272 0 -2.38918)
(0.146108 0 -2.49758)
(0.117633 0 -2.42361)
(0.0664361 0 -2.65463)
(0.0951163 0 -2.58701)
(0.125353 0 -2.73231)
(0.155313 0 -2.74262)
(0.0892647 0 -2.79459)
(0.106313 0 -2.76395)
(0.0668824 0 -2.81883)
(0.0765521 0 -2.81673)
(0.0287538 0 -2.82154)
(0.0510108 0 -2.80129)
(-0.00403264 0 -2.82173)
(0.0210322 0 -2.80637)
(0.0115744 0 -2.79772)
(-0.00629528 0 -2.84286)
(0.0037735 0 -2.69277)
(0.0193563 0 -2.77413)
(0.106895 0 -2.76546)
(0.0650483 0 -2.73713)
(0.0555342 0 -2.87011)
(0.121304 0 -2.85768)
(0.0290903 0 -2.73704)
(0.0712794 0 -2.80282)
(0.0227381 0 -2.54303)
(0.0484118 0 -2.63553)
(-0.00347283 0 -2.3059)
(0.0298012 0 -2.42336)
(-0.0637912 0 -1.93953)
(-0.0308996 0 -2.12753)
(-0.123012 0 -1.40004)
(-0.09835 0 -1.66791)
(-0.193982 0 -0.791954)
(-0.167248 0 -1.03916)
(-0.247903 0 -0.223479)
(-0.237907 0 -0.452193)
(-0.280067 0 0.237545)
(-0.283799 0 0.0696731)
(-0.293385 0 0.535017)
(-0.307625 0 0.439924)
(-0.293535 0 0.678111)
(-0.314469 0 0.640985)
(-0.287248 0 0.713579)
(-0.311478 0 0.711022)
(-0.279335 0 0.69265)
(-0.304626 0 0.705117)
(-0.272134 0 0.651676)
(-0.297521 0 0.66782)
(-0.266263 0 0.609029)
(-0.291468 0 0.624293)
(-0.261579 0 0.570656)
(-0.286583 0 0.584185)
(-0.25779 0 0.536731)
(-0.282613 0 0.548967)
(-0.254666 0 0.50574)
(-0.279312 0 0.517381)
(-0.251882 0 0.475002)
(-0.276427 0 0.487409)
(-0.248554 0 0.437644)
(-0.273328 0 0.454548)
(-0.243032 0 0.378837)
(-0.268555 0 0.407677)
(-0.234155 0 0.280111)
(-0.260351 0 0.328565)
(-0.224103 0 0.140924)
(-0.249369 0 0.205051)
(-0.241161 0 0.0584076)
(-0.0684015 0 0.39677)
(-0.0626028 0 0.392698)
(-0.0634369 0 0.450713)
(-0.061435 0 0.399673)
(-0.0522808 0 0.564555)
(-0.0528066 0 0.496289)
(-0.0378454 0 0.680539)
(-0.0394641 0 0.62432)
(-0.0225923 0 0.757168)
(-0.0250393 0 0.727197)
(-0.00741131 0 0.784587)
(-0.01015 0 0.7778)
(0.00747112 0 0.778521)
(0.00117835 0 0.782694)
(0.022903 0 0.73956)
(0.0158633 0 0.766033)
(0.0446444 0 0.563962)
(0.0257738 0 0.702892)
(0.0769495 0 0.0148867)
(0.0497819 0 0.409121)
(0.0953285 0 -0.968352)
(0.0935092 0 -0.394405)
(0.0584213 0 -1.85531)
(0.0783126 0 -1.53297)
(0.0180679 0 -2.20312)
(-0.0111576 0 -2.14266)
(0.04427 0 -2.29663)
(-0.0212736 0 -2.24612)
(0.0493859 0 -2.36883)
(-0.0115482 0 -2.3592)
(0.070015 0 -2.40068)
(-0.000513748 0 -2.40293)
(0.112993 0 -2.51137)
(0.0534867 0 -2.45227)
(0.153181 0 -2.68406)
(0.101656 0 -2.6138)
(0.147187 0 -2.75941)
(0.125533 0 -2.73862)
(0.0895888 0 -2.786)
(0.0895885 0 -2.72556)
(0.0580195 0 -2.80234)
(0.0735953 0 -2.79097)
(0.0428049 0 -2.79895)
(0.0559317 0 -2.78827)
(0.0278365 0 -2.8222)
(0.0492455 0 -2.79293)
(0.0113068 0 -2.81159)
(0.0415218 0 -2.82729)
(0.0546045 0 -2.77117)
(0.058744 0 -2.8169)
(0.130223 0 -2.80864)
(0.113229 0 -2.81549)
(0.114781 0 -2.82048)
(0.143129 0 -2.8409)
(0.0845022 0 -2.70387)
(0.118705 0 -2.7683)
(0.0522078 0 -2.50859)
(0.0821411 0 -2.59691)
(0.00257868 0 -2.2374)
(0.0369647 0 -2.3611)
(-0.0713509 0 -1.84938)
(-0.0417069 0 -2.03024)
(-0.136504 0 -1.2999)
(-0.120623 0 -1.57798)
(-0.212596 0 -0.691975)
(-0.192343 0 -0.928979)
(-0.274443 0 -0.150122)
(-0.266704 0 -0.358259)
(-0.312726 0 0.278994)
(-0.317564 0 0.130666)
(-0.33019 0 0.549612)
(-0.344722 0 0.469109)
(-0.333354 0 0.674958)
(-0.354146 0 0.646531)
(-0.329229 0 0.702045)
(-0.352927 0 0.703437)
(-0.322869 0 0.679152)
(-0.347425 0 0.692851)
(-0.316782 0 0.639225)
(-0.341332 0 0.655503)
(-0.311695 0 0.598363)
(-0.336021 0 0.613497)
(-0.307543 0 0.561556)
(-0.331667 0 0.57494)
(-0.304079 0 0.528785)
(-0.328053 0 0.540878)
(-0.30104 0 0.498273)
(-0.324926 0 0.509939)
(-0.297889 0 0.466121)
(-0.321868 0 0.479312)
(-0.293414 0 0.423425)
(-0.317878 0 0.442485)
(-0.286069 0 0.355485)
(-0.311297 0 0.386911)
(-0.275816 0 0.250525)
(-0.301096 0 0.298156)
(-0.266107 0 0.119015)
(-0.289585 0 0.174845)
(-0.282586 0 0.0460556)
(-0.0559554 0 0.39564)
(-0.0502874 0 0.393908)
(-0.0509137 0 0.445285)
(-0.049225 0 0.396312)
(-0.0397485 0 0.556085)
(-0.0405049 0 0.488845)
(-0.0258974 0 0.670998)
(-0.0272887 0 0.615086)
(-0.0123589 0 0.747856)
(-0.01396 0 0.718171)
(-0.000617897 0 0.775869)
(-0.00136349 0 0.769973)
(0.00976835 0 0.770136)
(0.0061359 0 0.77577)
(0.0190046 0 0.729322)
(0.0146962 0 0.759875)
(0.0333349 0 0.548008)
(0.0183671 0 0.693339)
(0.0576383 0 0.000248514)
(0.0329366 0 0.392919)
(0.069032 0 -0.958817)
(0.0648903 0 -0.402001)
(0.0213435 0 -1.81942)
(0.0475088 0 -1.50118)
(-0.0596003 0 -2.18278)
(-0.0614795 0 -2.08869)
(-0.0706814 0 -2.30343)
(-0.115116 0 -2.23873)
(-0.0664441 0 -2.38843)
(-0.119257 0 -2.36203)
(-0.0254099 0 -2.44586)
(-0.100163 0 -2.43029)
(0.0472179 0 -2.54917)
(-0.0293479 0 -2.50068)
(0.0810975 0 -2.68018)
(0.0306615 0 -2.63639)
(0.0642666 0 -2.72806)
(0.0392125 0 -2.7274)
(0.0805085 0 -2.75343)
(0.0558785 0 -2.73638)
(0.0644101 0 -2.77515)
(0.0660675 0 -2.77784)
(0.0615044 0 -2.77522)
(0.0664323 0 -2.78578)
(0.074673 0 -2.80451)
(0.0781928 0 -2.80475)
(0.0802521 0 -2.83066)
(0.0909879 0 -2.83255)
(0.111592 0 -2.83757)
(0.10877 0 -2.84786)
(0.147506 0 -2.83957)
(0.137545 0 -2.8527)
(0.141193 0 -2.79422)
(0.151646 0 -2.83403)
(0.111316 0 -2.65949)
(0.13623 0 -2.73423)
(0.063978 0 -2.44333)
(0.0981286 0 -2.5403)
(-0.00744199 0 -2.14479)
(0.03714 0 -2.27151)
(-0.0945516 0 -1.74606)
(-0.0532731 0 -1.91561)
(-0.17406 0 -1.19221)
(-0.148411 0 -1.46823)
(-0.247453 0 -0.585535)
(-0.229567 0 -0.82271)
(-0.310664 0 -0.0685214)
(-0.302944 0 -0.262253)
(-0.351044 0 0.32711)
(-0.356372 0 0.194998)
(-0.370098 0 0.569105)
(-0.385098 0 0.500953)
(-0.374498 0 0.675572)
(-0.395534 0 0.654245)
(-0.371404 0 0.693442)
(-0.395036 0 0.697748)
(-0.365898 0 0.667924)
(-0.390198 0 0.682229)
(-0.360482 0 0.628495)
(-0.384661 0 0.644546)
(-0.355898 0 0.588951)
(-0.379794 0 0.603767)
(-0.3521 0 0.553297)
(-0.375779 0 0.566485)
(-0.348842 0 0.52118)
(-0.372407 0 0.533268)
(-0.345729 0 0.490163)
(-0.369336 0 0.502312)
(-0.341888 0 0.454738)
(-0.365833 0 0.469442)
(-0.335832 0 0.404607)
(-0.360481 0 0.42616)
(-0.326442 0 0.327439)
(-0.351705 0 0.360362)
(-0.314943 0 0.219514)
(-0.339584 0 0.264051)
(-0.305553 0 0.0988041)
(-0.327794 0 0.145632)
(-0.321744 0 0.0358033)
(-0.0438642 0 0.394604)
(-0.0381716 0 0.395333)
(-0.0389091 0 0.43989)
(-0.0373597 0 0.393009)
(-0.0278534 0 0.547851)
(-0.0286769 0 0.481475)
(-0.0146278 0 0.662244)
(-0.0156127 0 0.606269)
(-0.00276326 0 0.740192)
(-0.00329427 0 0.710261)
(0.00615951 0 0.7698)
(0.00702761 0 0.764024)
(0.0115041 0 0.765479)
(0.0109003 0 0.772206)
(0.0140419 0 0.723783)
(0.013364 0 0.758183)
(0.0201153 0 0.53819)
(0.0104473 0 0.68929)
(0.0323631 0 -0.00888051)
(0.0128828 0 0.384753)
(0.0364688 0 -0.944139)
(0.0307902 0 -0.404738)
(-0.0236326 0 -1.77043)
(0.00885551 0 -1.46111)
(-0.127324 0 -2.14385)
(-0.116035 0 -2.01957)
(-0.158985 0 -2.29829)
(-0.184388 0 -2.21763)
(-0.155217 0 -2.40582)
(-0.194593 0 -2.36454)
(-0.113391 0 -2.48712)
(-0.174256 0 -2.45817)
(-0.0404324 0 -2.58777)
(-0.10829 0 -2.54932)
(-0.00117576 0 -2.6884)
(-0.0451905 0 -2.66256)
(0.0181328 0 -2.73377)
(-0.0112658 0 -2.74028)
(0.0514275 0 -2.76052)
(0.0284728 0 -2.75858)
(0.0645061 0 -2.78477)
(0.0609174 0 -2.78851)
(0.0831726 0 -2.80089)
(0.080659 0 -2.80176)
(0.0999749 0 -2.82606)
(0.101185 0 -2.81984)
(0.11397 0 -2.85058)
(0.117343 0 -2.84573)
(0.132949 0 -2.86293)
(0.131301 0 -2.8666)
(0.150403 0 -2.84915)
(0.145922 0 -2.87078)
(0.147235 0 -2.77555)
(0.152168 0 -2.83059)
(0.121152 0 -2.61319)
(0.139567 0 -2.7045)
(0.0692819 0 -2.36424)
(0.102413 0 -2.47827)
(-0.0105414 0 -2.03524)
(0.0365804 0 -2.17137)
(-0.106609 0 -1.62517)
(-0.0585087 0 -1.7892)
(-0.20569 0 -1.07859)
(-0.168145 0 -1.33146)
(-0.28423 0 -0.482747)
(-0.265174 0 -0.70899)
(-0.350058 0 0.013389)
(-0.34081 0 -0.162272)
(-0.392071 0 0.37644)
(-0.396979 0 0.261932)
(-0.411904 0 0.589684)
(-0.426856 0 0.534097)
(-0.416744 0 0.677253)
(-0.437686 0 0.66273)
(-0.414048 0 0.685929)
(-0.437464 0 0.69279)
(-0.408934 0 0.657727)
(-0.432937 0 0.672366)
(-0.40387 0 0.618651)
(-0.427704 0 0.634299)
(-0.399575 0 0.58025)
(-0.423107 0 0.594652)
(-0.396005 0 0.545533)
(-0.41932 0 0.558537)
(-0.392844 0 0.513563)
(-0.4161 0 0.525885)
(-0.389428 0 0.480737)