/*--------------------------------*- C++ -*----------------------------------*\
  =========                 |
  \\      /  F ield         | OpenFOAM: The Open Source CFD Toolbox
   \\    /   O peration     | Website:  https://openfoam.org
    \\  /    A nd           | Version:  9
     \\/     M anipulation  |
\*---------------------------------------------------------------------------*/
FoamFile
{
    format      ascii;
    class       volScalarField;
    location    "0.13";
    object      alpha.water;
}
// * * * * * * * * * * * * * * * * * * * * * * * * * * * * * * * * * * * * * //

dimensions      [0 0 0 0 0 0 0];

internalField   nonuniform List<scalar> 
5000
(
2.09931e-19
1.01019e-17
4.31261e-16
6.09079e-15
7.69121e-14
1.25204e-12
2.58074e-11
4.86592e-10
1.84681e-08
1.0744e-06
3.12565e-05
0.000161639
0.0389473
0.773949
0.999988
0.999986
1
1
1
1
1
1
1
1
1
1
0.999999
0.999978
0.999559
0.761722
0.0617392
0.000299926
0.000502239
9.86937e-05
2.21518e-05
6.74253e-06
1.87712e-06
5.60819e-07
1.76352e-07
5.78123e-08
1.97855e-08
6.93099e-09
2.49389e-09
1.05914e-09
6.11793e-10
4.17129e-10
3.02536e-10
2.26869e-10
1.7584e-10
9.92062e-11
4.09731e-19
3.99949e-17
4.50827e-15
2.58675e-14
1.063e-13
9.67077e-13
1.72284e-11
3.26428e-10
2.90774e-08
1.52245e-06
2.62534e-05
0.000151457
0.013863
0.698204
0.999987
0.999982
1
1
1
1
1
1
1
1
1
1
0.999998
0.999971
0.999398
0.676754
0.0153417
0.000334934
0.000532934
0.000177217
2.32978e-05
7.34355e-06
2.17699e-06
6.25494e-07
1.97518e-07
6.50686e-08
2.22728e-08
7.8555e-09
2.76945e-09
1.10324e-09
6.43651e-10
4.6119e-10
3.53316e-10
2.79663e-10
2.22937e-10
1.29041e-10
9.25589e-19
2.25501e-16
1.36811e-14
8.123e-14
1.50387e-13
7.15889e-13
1.14079e-11
3.75133e-10
1.8884e-08
1.53945e-06
2.15994e-05
7.06178e-05
0.00419825
0.55317
0.999991
0.999993
0.999999
1
1
1
1
1
1
1
1
1
0.999997
0.999946
0.993126
0.453796
0.000270486
0.000306061
0.000422722
0.000224142
3.19234e-05
7.76538e-06
2.50305e-06
7.2126e-07
2.22025e-07
7.48e-08
2.56855e-08
9.07938e-09
3.20193e-09
1.16207e-09
6.6274e-10
4.9045e-10
3.92131e-10
3.25351e-10
2.66319e-10
1.5801e-10
3.21018e-18
7.20593e-16
2.54154e-14
1.46288e-13
2.23358e-13
6.61038e-13
1.91168e-11
1.29633e-09
4.57401e-09
2.00498e-06
5.51437e-05
6.35576e-05
0.000511909
0.348464
0.983234
0.999998
0.999998
1
1
1
1
1
1
1
1
0.999999
0.99999
0.999807
0.915931
0.186837
0.000222639
0.000205865
0.000174449
0.000186196
5.20503e-05
8.73783e-06
2.50942e-06
8.37263e-07
2.51955e-07
8.22923e-08
2.89279e-08
1.03277e-08
3.70172e-09
1.23713e-09
6.86503e-10
5.18e-10
4.24636e-10
3.63736e-10
3.03311e-10
1.83602e-10
1.00952e-17
1.38863e-15
3.43798e-14
2.0599e-13
4.04919e-13
1.3384e-12
4.55296e-11
3.00726e-09
6.2783e-09
3.65583e-06
6.58488e-05
5.02465e-05
0.000170031
0.142194
0.912905
0.999998
0.999989
1
1
1
1
1
1
1
1
0.999998
0.99996
0.99886
0.604048
0.00393048
0.000228816
0.000376846
0.000165131
6.54743e-05
5.44996e-05
1.12798e-05
2.50459e-06
8.30201e-07
2.7909e-07
8.79641e-08
3.00444e-08
1.08268e-08
3.95259e-09
1.30889e-09
7.13674e-10
5.43052e-10
4.52075e-10
3.95814e-10
3.33609e-10
2.06103e-10
3.18088e-17
1.98181e-15
3.6764e-14
2.4925e-13
7.24021e-13
2.9703e-12
1.02363e-10
5.51259e-09
9.33389e-09
7.42042e-06
4.50655e-05
4.38558e-05
0.000113074
0.0128209
0.677698
0.999995
0.999987
0.999993
0.999999
1
1
1
0.999999
1
0.999999
0.99998
0.999619
0.78106
0.109646
8.29547e-05
0.000215291
0.000377162
0.000268118
6.05419e-05
2.94271e-05
1.50042e-05
2.93065e-06
7.72377e-07
2.74254e-07
9.30471e-08
3.06352e-08
1.07832e-08
3.96576e-09
1.34754e-09
7.22182e-10
5.51584e-10
4.71635e-10
4.21293e-10
3.56415e-10
2.24195e-10
6.87225e-17
2.3679e-15
3.57925e-14
2.72272e-13
1.25023e-12
7.16161e-12
1.40463e-10
5.32802e-09
1.09503e-07
6.71198e-06
6.70761e-06
5.9733e-05
6.19895e-05
0.000243941
0.246485
0.901011
0.999986
0.999969
0.999991
0.999993
0.999992
0.999992
0.999999
0.999999
0.999985
0.9997
0.808519
0.155006
2.29887e-05
6.47999e-05
0.000137729
0.000276017
0.000337941
8.03736e-05
9.20151e-06
1.52277e-05
4.25581e-06
7.84602e-07
2.50306e-07
9.09782e-08
3.11656e-08
1.06351e-08
3.87428e-09
1.32362e-09
7.15352e-10
5.50801e-10
4.8258e-10
4.37809e-10
3.60598e-10
2.35833e-10
1.03144e-16
2.40452e-15
3.38946e-14
2.79896e-13
1.78266e-12
1.30331e-11
2.16613e-10
3.62097e-09
1.01379e-07
1.14853e-06
2.05685e-06
9.19663e-05
4.18942e-05
0.00034664
0.00393173
0.403508
0.944549
0.999991
0.999991
0.999992
0.999992
0.999992
0.999998
0.999985
0.99964
0.716339
0.133828
1.50855e-05
1.19614e-05
6.40489e-05
0.000127985
0.000270594
0.000626555
0.000157705
2.91983e-06
6.32778e-06
5.18381e-06
1.10068e-06
2.41154e-07
8.3679e-08
3.04936e-08
1.03209e-08
3.51685e-09
1.20607e-09
6.81846e-10
5.43919e-10
4.82856e-10
4.44038e-10
3.56149e-10
2.43403e-10
1.21413e-16
2.3595e-15
3.09153e-14
2.74169e-13
2.10606e-12
1.77423e-11
2.19315e-10
1.10883e-09
1.17503e-07
6.14154e-07
6.09986e-05
9.17975e-05
2.54347e-05
9.08731e-05
0.000184932
0.00828315
0.373249
0.85799
0.999991
0.999992
0.999992
0.999991
0.973278
0.810485
0.427892
0.0602525
1.50855e-05
3.08718e-06
1.00991e-05
5.62829e-05
0.000566273
0.000637966
0.000634172
0.000323703
2.1728e-06
1.93883e-06
3.40609e-06
1.32721e-06
2.82602e-07
7.84919e-08
2.85431e-08
1.00169e-08
3.12435e-09
1.03795e-09
6.28845e-10
5.27649e-10
4.80361e-10
4.42786e-10
3.47899e-10
2.47502e-10
1.25766e-16
2.20354e-15
2.68133e-14
2.5784e-13
2.15755e-12
1.63307e-11
1.70587e-10
1.18757e-09
8.82656e-08
9.42942e-07
6.2938e-05
7.35035e-05
6.04297e-06
7.41191e-06
3.78849e-05
0.000425491
0.00260973
0.169681
0.445708
0.604776
0.604312
0.501876
0.294551
0.10023
0.00333171
0.000229039
3.70792e-05
1.60769e-06
4.26692e-06
0.00016332
0.000639372
0.000638173
0.000637991
0.000432557
1.37079e-06
1.10442e-06
8.37678e-07
1.10766e-06
3.72306e-07
8.41651e-08
2.57119e-08
9.5302e-09
2.88281e-09
9.00993e-10
5.79929e-10
5.07243e-10
4.7388e-10
4.39758e-10
3.42325e-10
2.47256e-10
1.20782e-16
1.87339e-15
2.19823e-14
2.29472e-13
2.04586e-12
1.37618e-11
1.13229e-10
2.68437e-09
3.73901e-08
7.62229e-07
9.34991e-06
8.69959e-06
5.8158e-06
5.75168e-06
9.8083e-06
6.29612e-05
0.000313977
0.000766503
0.00270521
0.0166681
0.0158023
0.00516157
0.000650352
0.000316458
0.000134979
3.67993e-05
2.98036e-06
3.29195e-07
1.45861e-06
0.000183849
0.000640107
0.000639271
0.000637026
0.000396591
1.30517e-06
1.20846e-06
5.71269e-07
3.13924e-07
3.44478e-07
1.0592e-07
2.5375e-08
8.56226e-09
2.68288e-09
7.9163e-10
5.43573e-10
4.91085e-10
4.64843e-10
4.35916e-10
3.4422e-10
2.43331e-10
1.05188e-16
1.47857e-15
1.73641e-14
1.89108e-13
1.71263e-12
1.01405e-11
1.51728e-10
2.92202e-09
8.12971e-09
3.64607e-07
4.05366e-07
3.79606e-06
5.54196e-06
5.71089e-06
5.74202e-06
1.16049e-05
3.08646e-05
0.000129403
0.000268684
0.000254086
0.000227446
0.000215193
0.000142925
5.9957e-05
2.05377e-05
3.76762e-06
2.21889e-07
1.05806e-07
3.45084e-07
0.000117689
0.000639788
0.000640789
0.000638813
0.00036286
1.41198e-06
1.47701e-06
9.4781e-07
2.18935e-07
1.2222e-07
1.0839e-07
2.86015e-08
7.38302e-09
2.38462e-09
6.96811e-10
5.18578e-10
4.80593e-10
4.57701e-10
4.32261e-10
3.49838e-10
2.37863e-10
8.24444e-17
1.11337e-15
1.32523e-14
1.44358e-13
1.30091e-12
9.09987e-12
1.57309e-10
1.79851e-09
2.16408e-09
6.47291e-07
1.99332e-05
5.22452e-06
5.7337e-06
5.73204e-06
5.71386e-06
5.69887e-06
4.36541e-06
1.32137e-05
2.59126e-05
3.60192e-05
3.35027e-05
2.35574e-05
1.30504e-05
6.34277e-06
2.0552e-06
4.15244e-07
3.94884e-08
3.21922e-08
1.17367e-07
1.19206e-05
0.000450244
0.000638812
0.000636635
0.000495086
1.0842e-06
9.12383e-07
1.19849e-06
2.19968e-07
4.99628e-08
4.79761e-08
3.01362e-08
7.36996e-09
1.93751e-09
6.03565e-10
4.97826e-10
4.74718e-10
4.53332e-10
4.28216e-10
3.53436e-10
2.27777e-10
6.04799e-17
8.13029e-16
9.73372e-15
1.044e-13
9.61406e-13
9.18388e-12
1.20226e-10
4.33226e-10
1.01433e-09
1.55772e-06
2.78657e-05
1.29935e-05
5.73448e-06
5.73595e-06
2.03351e-05
6.87907e-06
4.49867e-07
1.5204e-06
2.68386e-06
2.95562e-06
2.61815e-06
2.02841e-06
1.32518e-06
6.34309e-07
2.27971e-07
5.25366e-08
9.22602e-09
1.35486e-08
3.79202e-08
3.14615e-07
9.50602e-05
0.000636661
0.000636783
0.000622618
5.47453e-05
4.03743e-07
9.79072e-07
2.22167e-07
5.35933e-08
1.57635e-08
1.80649e-08
6.92831e-09
1.62836e-09
5.29666e-10
4.77178e-10
4.69506e-10
4.48125e-10
4.22004e-10
3.54686e-10
2.13832e-10
4.27972e-17
5.77517e-16
6.90414e-15
7.37824e-14
7.0943e-13
7.91212e-12
7.61579e-11
1.14749e-10
1.12668e-09
2.35254e-06
2.80061e-05
2.77626e-05
5.73818e-06
2.81199e-05
4.10244e-05
7.45282e-06
2.23314e-07
2.82743e-07
3.00933e-07
3.62896e-07
3.33934e-07
2.42946e-07
1.44302e-07
7.12531e-08
2.83682e-08
1.04471e-08
8.7121e-09
8.85263e-09
1.41811e-08
8.6396e-08
1.03503e-06
0.00029162
0.000634619
0.000625098
6.38328e-05
3.10033e-07
4.334e-07
2.46432e-07
5.87752e-08
1.44142e-08
5.48451e-09
4.70657e-09
1.32595e-09
5.08926e-10
4.62863e-10
4.59782e-10
4.38068e-10
4.13564e-10
3.5654e-10
1.99417e-10
2.95714e-17
3.99859e-16
4.77577e-15
5.12316e-14
4.97086e-13
4.73843e-12
3.33423e-11
8.50911e-11
1.3686e-09
2.474e-06
2.8005e-05
2.5799e-05
6.23265e-06
5.81415e-05
4.14839e-05
7.93452e-07
2.14136e-07
1.80578e-07
3.19997e-08
3.83028e-08
3.64697e-08
2.87312e-08
1.9659e-08
1.23636e-08
8.96494e-09
8.68848e-09
8.6938e-09
8.71164e-09
9.03342e-09
2.58603e-08
1.49956e-07
1.98469e-05
0.000489937
0.000611149
0.000113785
2.64716e-07
2.6087e-07
2.0821e-07
5.94311e-08
1.59211e-08
4.25256e-09
1.99685e-09
8.19346e-10
4.91278e-10
4.56829e-10
4.43388e-10
4.21376e-10
4.04725e-10
3.59475e-10
1.8642e-10
1.99743e-17
2.69332e-16
3.18875e-15
3.37473e-14
2.95597e-13
1.84314e-12
8.82156e-12
8.58498e-11
2.08406e-09
3.26181e-06
2.79856e-05
2.0102e-05
4.63578e-05
5.8227e-05
1.94614e-05
8.62489e-07
8.96195e-07
2.30417e-07
8.7091e-09
8.9719e-09
9.44451e-09
8.94873e-09
8.64382e-09
8.61568e-09
8.64733e-09
8.67489e-09
8.68848e-09
8.69379e-09
8.74271e-09
1.01549e-08
3.82642e-08
3.75059e-07
0.000130245
0.000589347
0.000158698
2.37818e-07
2.23788e-07
1.13448e-07
5.25423e-08
1.74593e-08
3.85619e-09
1.10181e-09
4.86356e-10
4.55774e-10
4.44407e-10
4.2139e-10
4.01607e-10
3.97772e-10
3.64775e-10
1.7418e-10
1.3109e-17
1.73826e-16
1.99451e-15
1.98335e-14
1.4436e-13
5.90479e-13
6.83283e-12
1.49952e-10
4.79166e-09
1.1475e-05
2.79949e-05
2.02954e-05
5.88815e-05
5.8597e-05
5.94725e-06
2.27899e-06
2.15771e-06
1.95595e-07
8.64182e-09
8.6198e-09
8.61172e-09
8.60991e-09
8.60953e-09
8.61282e-09
8.64109e-09
8.74489e-09
9.00524e-09
8.71684e-09
8.73104e-09
8.96193e-09
1.47817e-08
1.20664e-07
4.92304e-05
0.000580215
0.00014475
2.05781e-07
2.42546e-07
8.91064e-08
3.12002e-08
1.7889e-08
3.62677e-09
7.14264e-10
4.09862e-10
4.20918e-10
4.2124e-10
3.98798e-10
3.85027e-10
3.92833e-10
3.66543e-10
1.60567e-10
8.27427e-18
1.06239e-16
1.18566e-15
1.18535e-14
8.56455e-14
5.06698e-13
8.29745e-12
2.08063e-10
6.20746e-09
1.19025e-05
2.79781e-05
2.03373e-05
5.88815e-05
3.40937e-05
2.70661e-07
1.78405e-06
1.40916e-06
9.76174e-08
8.61974e-09
8.61167e-09
8.60986e-09
8.60931e-09
8.60917e-09
8.60952e-09
8.61724e-09
1.23737e-08
1.24346e-08
1.12848e-08
8.8271e-09
8.92774e-09
1.08323e-08
5.85805e-08
1.71587e-05
0.000279533
0.000166789
1.32191e-07
1.07903e-07
1.04321e-07
1.5583e-08
1.37971e-08
3.52204e-09
4.57514e-10
3.79963e-10
3.9686e-10
3.96935e-10
3.79951e-10
3.7314e-10
3.88472e-10
3.64447e-10
1.43583e-10
5.01053e-18
6.34432e-17
7.391e-16
9.21631e-15
9.32169e-14
6.00522e-13
1.92864e-11
8.09331e-10
4.08491e-08
4.96267e-06
2.62626e-05
2.25394e-05
5.88823e-05
1.2437e-05
2.45978e-08
3.42693e-07
8.86378e-08
1.34197e-08
8.61163e-09
8.60985e-09
8.60931e-09
8.60916e-09
8.60907e-09
8.60915e-09
8.61066e-09
1.03377e-08
1.24354e-08
1.24361e-08
9.27266e-09
9.22016e-09
9.55595e-09
3.00052e-08
7.38967e-07
1.83655e-05
0.000175366
1.75649e-05
8.03903e-08
9.16473e-08
1.03549e-08
7.30423e-09
2.95247e-09
3.75528e-10
3.66183e-10
3.79716e-10
3.76334e-10
3.66842e-10
3.67959e-10
3.8366e-10
3.58959e-10
1.21517e-10
2.95445e-18
3.82499e-17
4.94388e-16
7.62291e-15
1.05839e-13
9.06189e-13
2.47092e-11
6.71678e-10
2.89449e-08
4.09521e-07
1.16692e-05
5.90674e-05
5.87767e-05
1.01146e-05
1.48802e-08
3.04692e-08
9.21792e-09
8.99027e-09
8.90566e-09
2.141e-08
1.09505e-08
8.60907e-09
8.60907e-09
8.60907e-09
8.60915e-09
8.61112e-09
1.07311e-08
1.24361e-08
1.24231e-08
9.12518e-09
9.30145e-09
1.06173e-08
3.49441e-08
1.05569e-05
0.000175366
3.10876e-05
6.5827e-08
7.21878e-08
8.56326e-09
4.72344e-09
1.57555e-09
3.66064e-10
3.62387e-10
3.68124e-10
3.63982e-10
3.61404e-10
3.66963e-10
3.79188e-10
3.44829e-10
9.41796e-11
1.65677e-18
2.24552e-17
3.08215e-16
4.78456e-15
5.89513e-14
4.60424e-13
1.09703e-11
1.41582e-10
3.56477e-08
2.64468e-06
7.84832e-06
5.9095e-05
5.91126e-05
4.99224e-06
1.07275e-08
9.76554e-09
9.44428e-09
9.11276e-09
1.3716e-08
7.60294e-08
1.45649e-08
8.6091e-09
8.60907e-09
8.60915e-09
8.60982e-09
8.62685e-09
1.12386e-08
1.24361e-08
1.22912e-08
9.03497e-09
9.08143e-09
1.03252e-08
3.76004e-08
1.84496e-05
0.000168925
6.08437e-05
5.58742e-08
5.25533e-08
7.04758e-09
3.17718e-09
5.76644e-10
3.62386e-10
3.60984e-10
3.61775e-10
3.60583e-10
3.6097e-10
3.66837e-10
3.74768e-10
3.19365e-10
6.6037e-11
8.54464e-19
1.01165e-17
1.43837e-16
1.74125e-15
1.56468e-14
2.92425e-13
8.17608e-12
2.60383e-10
3.17119e-07
8.05853e-06
8.34209e-06
5.90677e-05
4.15726e-05
9.34353e-07
8.37288e-07
1.07275e-08
2.69471e-05
9.4446e-09
2.1588e-06
9.45026e-08
8.64227e-09
8.61001e-09
8.60937e-09
8.60981e-09
1.79879e-08
3.41277e-08
1.55472e-08
8.962e-09
8.97626e-09
8.99387e-09
9.03168e-09
1.02007e-08
3.75601e-08
1.84933e-05
0.000161449
5.8677e-05
4.77414e-08
5.11196e-08
6.45638e-09
1.37153e-09
5.50514e-10
3.60968e-10
3.60502e-10
3.60414e-10
3.60399e-10
3.61091e-10
3.65627e-10
3.69372e-10
2.80935e-10
4.21277e-11
3.77351e-19
4.8341e-18
6.56148e-17
1.26641e-15
1.97648e-14
5.65547e-13
1.56363e-11
5.11011e-10
7.20127e-07
9.01858e-06
2.77955e-05
5.66205e-05
1.03157e-05
1.45946e-06
1.42603e-06
0.000137963
0.000363934
0.000129768
2.39138e-08
2.13844e-08
1.07401e-08
1.54129e-08
1.08823e-07
1.09077e-08
3.09274e-08
3.41282e-08
1.06429e-08
8.95375e-09
8.95838e-09
9.0122e-09
1.01195e-08
4.60481e-06
2.29984e-05
1.98604e-05
0.000102298
5.42069e-05
3.00791e-08
2.80361e-08
9.74584e-09
5.64279e-10
6.00532e-10
3.60502e-10
3.60371e-10
3.6034e-10
3.60355e-10
3.61157e-10
3.64286e-10
3.63117e-10
2.27901e-10
2.44078e-11
1.76341e-19
3.57765e-18
7.28854e-17
1.88242e-15
4.07774e-14
1.09866e-12
2.55557e-11
7.62877e-10
1.01059e-06
1.18705e-05
5.95821e-05
6.03073e-05
3.27119e-06
1.77062e-06
1.332e-05
0.000375026
0.000373742
0.000368589
1.39344e-05
2.39107e-08
9.10144e-08
2.47413e-06
3.56229e-06
2.01117e-06
7.86079e-08
8.94928e-09
8.94924e-09
8.94928e-09
8.9968e-09
1.02086e-08
4.5492e-07
2.83581e-05
3.77936e-05
2.057e-05
2.73307e-05
5.74184e-05
6.31451e-08
1.16096e-08
1.12357e-08
4.2318e-10
5.40058e-10
3.60371e-10
3.6034e-10
3.60332e-10
3.60374e-10
3.60941e-10
3.62363e-10
3.49764e-10
1.63095e-10
1.16825e-11
2.63207e-19
6.96003e-18
1.50153e-16
5.11062e-15
8.53717e-14
2.23729e-12
3.1585e-11
9.79787e-10
9.78511e-07
1.00872e-05
3.77445e-05
6.62327e-05
4.07621e-06
2.11868e-06
8.36319e-05
0.000375036
0.000375026
0.000326499
6.20376e-07
6.43069e-07
2.38061e-06
3.56229e-06
3.56229e-06
3.56229e-06
2.82602e-06
1.00211e-07
8.94924e-09
8.99678e-09
9.127e-09
1.23556e-08
3.00194e-06
3.88467e-05
3.86261e-05
2.40106e-05
6.49109e-06
2.40696e-05
1.5472e-07
1.01461e-08
9.26004e-09
3.74391e-10
3.60465e-10
3.60297e-10
3.60409e-10
3.60428e-10
3.60425e-10
3.60517e-10
3.60117e-10
3.1482e-10
9.93318e-11
4.16859e-12
1.30945e-18
2.61652e-17
3.86117e-16
1.34442e-14
2.49112e-13
5.93142e-12
9.9814e-11
4.31339e-09
7.21358e-07
3.86609e-06
3.97743e-05
6.67627e-05
4.61522e-06
1.66773e-05
0.000372281
0.000375036
0.000375036
8.36963e-05
5.74532e-07
9.93817e-07
2.47416e-06
2.57815e-06
3.37176e-06
3.55735e-06
3.55241e-06
2.04727e-06
9.03602e-09
9.1249e-09
1.0068e-08
2.28266e-08
1.2883e-05
3.88226e-05
3.88226e-05
1.31668e-05
2.27883e-07
6.20137e-07
6.89376e-07
8.73235e-09
6.80661e-09
3.64399e-10
3.60272e-10
3.60124e-10
3.60441e-10
3.6048e-10
3.60471e-10
3.6026e-10
3.58487e-10
2.34236e-10
4.98081e-11
1.33589e-12
7.42371e-18
9.91944e-17
9.42228e-16
2.50087e-14
5.22464e-13
1.00087e-11
1.22647e-10
9.35373e-09
1.60932e-07
2.4407e-06
6.65403e-05
6.64535e-05
2.8033e-05
0.00017635
0.000374512
0.000375036
0.000328266
5.73931e-07
5.72569e-07
5.72791e-07
5.72568e-07
5.72735e-07
5.78817e-07
2.36521e-06
3.53976e-06
3.53601e-06
8.27574e-07
1.00883e-08
1.20615e-08
1.73918e-07
2.47255e-05
3.88226e-05
3.87533e-05
3.13103e-06
8.34241e-08
1.05748e-07
2.50349e-07
3.84404e-09
4.99917e-09
3.61225e-10
3.59951e-10
3.59933e-10
3.60434e-10
3.60468e-10
3.60404e-10
3.59745e-10
3.26472e-10
1.34177e-10
1.90618e-11
5.21163e-13
3.36095e-17
3.28252e-16
2.05434e-15
3.29497e-14
6.39628e-13
1.02443e-11
1.05283e-10
5.00613e-09
9.87391e-09
5.01605e-06
6.56399e-05
6.57982e-05
9.5425e-05
0.000190194
0.000374358
0.000374512
6.11764e-05
5.72715e-07
5.7269e-07
5.72563e-07
5.72735e-07
5.75261e-07
5.96812e-07
6.16023e-07
2.29177e-06
3.51617e-06
2.35026e-06
1.20932e-08
3.61248e-08
5.0094e-07
2.98669e-05
3.88071e-05
3.3148e-05
7.85448e-08
4.34034e-08
2.09008e-08
4.5717e-09
3.53717e-09
1.60994e-09
3.60021e-10
3.59535e-10
3.59866e-10
3.60408e-10
3.60393e-10
3.60141e-10
3.57722e-10
2.31464e-10
5.60569e-11
5.66709e-12
2.17641e-13
1.27748e-16
9.6519e-16
4.15826e-15
3.64907e-14
6.38796e-13
8.62447e-12
2.72984e-11
2.61944e-10
2.90745e-08
2.01855e-05
4.82617e-05
1.33507e-05
3.60116e-05
7.05431e-05
0.000374173
0.00031699
5.82803e-07
5.77552e-07
5.72734e-07
5.99691e-07
4.82481e-06
1.06841e-05
2.7472e-06
6.22435e-07
7.13134e-07
3.49493e-06
3.27439e-06
2.38787e-07
7.52243e-08
4.4356e-07
2.71089e-05
3.86359e-05
1.3392e-05
3.11769e-08
1.79398e-08
3.6202e-09
8.42595e-10
6.20121e-10
3.6068e-10
3.59969e-10
3.59501e-10
3.59927e-10
3.60348e-10
3.60184e-10
3.59228e-10
3.07008e-10
1.1558e-10
1.72047e-11
1.60949e-12
8.4685e-14
4.18526e-16
2.59916e-15
8.36489e-15
3.9524e-14
4.65487e-13
4.75997e-12
1.2757e-11
3.74789e-10
8.98977e-07
2.00671e-05
5.46753e-06
4.62231e-06
6.58867e-06
0.000166408
0.00037297
0.00010177
6.33741e-07
6.35912e-07
6.23033e-07
1.50987e-05
4.12521e-05
4.1215e-05
3.79691e-05
6.44279e-06
4.68383e-07
9.10279e-07
2.16853e-06
4.47624e-07
1.12526e-07
2.65762e-07
2.22869e-05
3.76866e-05
1.52552e-06
4.51975e-08
3.70187e-08
1.06274e-09
4.82197e-10
3.66505e-10
3.56906e-10
3.59083e-10
3.59104e-10
3.59919e-10
3.60157e-10
3.59604e-10
3.42823e-10
1.86779e-10
4.0036e-11
4.36827e-12
4.93584e-13
2.80552e-14
1.20197e-15
6.48114e-15
1.70925e-14
4.57227e-14
2.68937e-13
1.80284e-12
1.58388e-11
5.66767e-10
1.98331e-06
1.74933e-05
2.79341e-06
3.73651e-06
2.37127e-05
0.000357957
0.000365025
3.09571e-05
7.23412e-07
8.00519e-07
2.38744e-05
4.12429e-05
4.12519e-05
4.12539e-05
4.11554e-05
2.55897e-05
1.49496e-07
8.57799e-08
2.35844e-07
3.83122e-07
1.07551e-07
1.42192e-07
1.71421e-05
3.58125e-05
3.75821e-07
5.41056e-08
1.01218e-07
5.32254e-10
3.86731e-10
3.62225e-10
3.58053e-10
3.58911e-10
3.59023e-10
3.59806e-10
3.59638e-10
3.57964e-10
2.53189e-10
7.64792e-11
1.03806e-11
1.14989e-12
1.50666e-13
8.09476e-15
3.06635e-15
1.48919e-14
3.4636e-14
6.22634e-14
2.51058e-13
2.34208e-12
1.75616e-11
1.78369e-08
1.80561e-06
2.79727e-06
2.3146e-06
2.72132e-06
4.35934e-05
0.000351245
0.000242132
1.08552e-06
8.77031e-07
1.0796e-05
4.05704e-05
4.07662e-05
3.45799e-05
2.95224e-05
2.36872e-05
9.34254e-06
5.80003e-08
3.76026e-08
3.33866e-08
7.55385e-08
7.96703e-08
1.00249e-07
1.05681e-05
3.40581e-05
4.48171e-08
4.02434e-08
1.16602e-07
1.75958e-09
3.62374e-10
3.56924e-10
3.58561e-10
3.58926e-10
3.59141e-10
3.59483e-10
3.58402e-10
3.06872e-10
1.26564e-10
2.20967e-11
2.46819e-12
3.23961e-13
4.22223e-14
2.11267e-15
7.03276e-15
3.13656e-14
6.76219e-14
1.02907e-13
3.19848e-13
5.56246e-12
1.26547e-10
6.36142e-09
4.49496e-07
1.78461e-06
1.10576e-05
1.87746e-05
7.68309e-05
0.000348375
4.41699e-05
3.39123e-06
1.44022e-05
6.50466e-05
3.60847e-05
3.80032e-06
8.48991e-08
3.15489e-08
2.33875e-08
2.39236e-07
6.69443e-07
1.10012e-07
2.67112e-08
2.68908e-08
2.96731e-08
5.51014e-08
1.12634e-05
3.21047e-05
1.57903e-08
2.78886e-08
1.1569e-07
3.61394e-10
3.55852e-10
3.55356e-10
3.5878e-10
3.59231e-10
3.59135e-10
3.58613e-10
3.38259e-10
1.86745e-10
4.33432e-11
5.20659e-12
6.35606e-13
8.90965e-14
1.0796e-14
5.15505e-16
1.4641e-14
6.06319e-14
1.24454e-13
1.78612e-13
4.45044e-13
6.17087e-12
7.93466e-11
1.74839e-09
1.76656e-08
4.93194e-06
0.000102885
0.000129584
0.000131388
0.000179202
1.98962e-05
1.85091e-05
0.000106264
0.00010941
2.39963e-05
1.90201e-07
7.11545e-08
3.52323e-08
2.26925e-08
2.26129e-08
6.73102e-07
1.73386e-07
2.67112e-08
2.67019e-08
3.03123e-08
2.64786e-06
2.29988e-05
2.28999e-05
5.06061e-09
7.77838e-09
3.45071e-08
3.53608e-10
3.53652e-10
3.54612e-10
3.59088e-10
3.59172e-10
3.58888e-10
3.55902e-10
2.48577e-10
7.74521e-11
1.1302e-11
1.2687e-12
1.71651e-13
2.28355e-14
2.59434e-15
1.21013e-16
2.78287e-14
1.07854e-13
2.13785e-13
2.98209e-13
5.54856e-13
2.90459e-12
2.44715e-11
9.45483e-09
2.51947e-08
8.00283e-06
8.76569e-05
6.2752e-05
0.000129584
2.43802e-05
2.12495e-05
8.42509e-05
0.000109486
0.000109459
8.88658e-05
1.20127e-05
2.07715e-07
3.01037e-08
1.91811e-08
1.64196e-08
3.65177e-07
1.55994e-07
2.67098e-08
2.68409e-08
3.75327e-08
8.09075e-06
2.2671e-05
1.36941e-05
1.95215e-09
8.54815e-10
3.74534e-10
3.5299e-10
3.53073e-10
3.54463e-10
3.59086e-10
3.58975e-10
3.58116e-10
3.09507e-10
1.29164e-10
2.36386e-11
2.73493e-12
3.38098e-13
4.51339e-14
5.51846e-15
6.04254e-16
2.80075e-17
4.8453e-14
1.76902e-13
3.41581e-13
4.68258e-13
6.85889e-13
9.91042e-13
2.09214e-10
3.18923e-08
4.41615e-08
6.59875e-06
9.54972e-06
1.52786e-05
0.000124145
2.37932e-05
2.24721e-05
0.000109442
0.000109492
0.000109486
0.000109448
2.94016e-05
2.40229e-07
4.09219e-08
1.62075e-08
1.55892e-08
2.54133e-07
9.92235e-08
2.69287e-08
2.73765e-08
5.73147e-08
1.17365e-05
2.23652e-05
2.30926e-06
9.03059e-10
5.18463e-10
3.56393e-10
3.53085e-10
3.52911e-10
3.54321e-10
3.58956e-10
3.5857e-10
3.45981e-10
2.03296e-10
4.88957e-11
6.11051e-12
7.1114e-13
9.1654e-14
1.13186e-14
1.29206e-15
1.38534e-16
6.44134e-18
7.74075e-14
2.67991e-13
5.07457e-13
6.87522e-13
9.26221e-13
2.87565e-12
2.16029e-10
2.78867e-08
2.77384e-08
7.41494e-07
8.61984e-07
4.01951e-05
0.000118803
5.34166e-05
6.90173e-05
0.000109492
0.000109492
0.000109492
4.78289e-05
1.405e-06
8.01529e-08
2.05089e-08
1.53916e-08
1.53637e-08
1.79391e-07
1.22918e-07
2.73934e-08
2.7826e-08
1.42933e-07
1.29845e-05
2.11332e-05
2.63139e-07
5.33259e-10
4.04409e-10
3.53614e-10
3.52734e-10
3.52709e-10
3.54838e-10
3.5855e-10
3.57367e-10
2.84245e-10
9.86131e-11
1.4647e-11
1.60405e-12
1.94958e-13
2.40619e-14
2.73232e-15
2.9842e-16
3.13773e-17
1.45211e-18
1.13629e-13
3.75524e-13
7.0313e-13
9.5224e-13
1.26043e-12
6.59394e-12
1.37608e-10
5.67944e-09
1.02561e-08
1.0956e-08
1.82956e-07
8.83314e-05
8.63473e-05
3.01776e-05
0.000109408
0.000109468
0.000109492
4.63206e-05
4.76065e-08
2.15478e-08
1.94752e-08
1.55766e-08
1.53235e-08
1.53785e-08
7.63887e-08
1.2624e-07
3.93559e-08
3.5201e-08
8.95214e-08
1.10462e-05
1.95769e-05
-2.13838e-12
4.16303e-10
3.83355e-10
3.58329e-10
3.52473e-10
3.52492e-10
3.55295e-10
3.57383e-10
3.38508e-10
1.78198e-10
3.6882e-11
4.00437e-12
4.45962e-13
5.29615e-14
6.05845e-15
6.39694e-16
6.79295e-17
6.97348e-18
3.20499e-19
1.53345e-13
4.86679e-13
9.11026e-13
1.24613e-12
1.6083e-12
8.92998e-12
8.47892e-11
1.02348e-10
9.02209e-10
3.34664e-09
3.46762e-05
8.89168e-05
3.47074e-05
1.66568e-05
0.000109289
0.000109408
0.000100377
6.11168e-06
6.75624e-08
3.1323e-08
1.54588e-08
1.53346e-08
1.53455e-08
1.5289e-08
1.69561e-08
1.2624e-07
5.24482e-08
4.73005e-08
6.96743e-08
3.91565e-06
7.73776e-06
7.00263e-10
4.31575e-10
3.81515e-10
3.6824e-10
3.52245e-10
3.52443e-10
3.54517e-10
3.54574e-10
2.73693e-10
8.52128e-11
1.13945e-11
1.1234e-12
1.24434e-13
1.3822e-14
1.45941e-15
1.45363e-16
1.5036e-17
1.50311e-18
7.10574e-20
1.89638e-13
5.82439e-13
1.10509e-12
1.54756e-12
1.96099e-12
9.70231e-12
7.27426e-11
9.80549e-11
3.95444e-10
9.8888e-06
8.89168e-05
8.89748e-05
3.75197e-05
8.1024e-06
6.26704e-05
0.000109289
9.37264e-05
2.97461e-05
1.25705e-06
8.63485e-08
1.88704e-08
1.51611e-08
1.50895e-08
1.50269e-08
1.66163e-08
1.26234e-07
4.54264e-08
4.27226e-08
8.90998e-07
5.29632e-06
4.84495e-09
4.39678e-10
3.07619e-10
3.60722e-10
3.83175e-10
3.5232e-10
3.52132e-10
3.53593e-10
3.32898e-10
1.68529e-10
3.2196e-11
3.31529e-12
3.23987e-13
3.33562e-14
3.43266e-15
3.34388e-16
3.1826e-17
3.15668e-18
3.0712e-19
1.53156e-20
2.14169e-13
6.41575e-13
1.25603e-12
1.83285e-12
2.3505e-12
9.98259e-12
8.45965e-11
1.18648e-10
1.60668e-09
2.52127e-05
8.89745e-05
8.89364e-05
3.49297e-05
5.62916e-06
7.39248e-06
0.0001012
0.000103481
9.23284e-05
5.71528e-06
1.03723e-07
2.45605e-08
1.50845e-08
1.5018e-08
1.5021e-08
1.56164e-08
4.15977e-08
2.94771e-08
3.37238e-08
2.1833e-06
8.28552e-06
3.64394e-07
2.9011e-10
2.43193e-10
3.36411e-10
3.89988e-10
3.54046e-10
3.55901e-10
3.52503e-10
2.61073e-10
7.8431e-11
1.02912e-11
9.8617e-13
9.10808e-14
8.47388e-15
8.07563e-16
7.3011e-17
6.7107e-18
6.39657e-19
6.11622e-20
3.18594e-21
2.22586e-13
6.56538e-13
1.33991e-12
2.07898e-12
2.80844e-12
1.0382e-11
8.52726e-11
1.09469e-10
1.87118e-09
1.49837e-05
2.28988e-05
4.85538e-05
1.27057e-05
5.45513e-06
1.92955e-05
0.000100965
0.000103481
4.90591e-05
9.50921e-07
7.06915e-08
2.00281e-08
1.50177e-08
1.50157e-08
1.5018e-08
1.5021e-08
1.50972e-08
1.69516e-08
2.6542e-08
3.84704e-06
8.38113e-06
2.33423e-06
2.34546e-10
2.30706e-10
3.29373e-10
3.96402e-10
3.61091e-10
3.60737e-10
3.22692e-10
1.56901e-10
2.88508e-11
3.10362e-12
2.93183e-13
2.40195e-14
2.02579e-15
1.78286e-16
1.52276e-17
1.35176e-18
1.27939e-19
1.20182e-20
6.40533e-22
2.21779e-13
6.51945e-13
1.35914e-12
2.27341e-12
3.34217e-12
1.06567e-11
7.49523e-11
1.00963e-10
1.85368e-09
3.54464e-07
1.97868e-06
4.00719e-06
4.82223e-06
5.16847e-06
6.70446e-05
0.000100261
7.24896e-05
2.53263e-06
9.81979e-08
2.90387e-08
1.50269e-08
1.50157e-08
1.50157e-08
1.50157e-08
1.50618e-08
1.54855e-08
1.65234e-08
3.86e-08
4.77536e-06
8.38113e-06
4.74793e-06
2.10179e-10
2.22075e-10
3.28954e-10
3.99009e-10
3.87273e-10
3.4982e-10
2.37292e-10
7.25305e-11
9.12553e-12
9.32651e-13
8.20869e-14
5.86333e-15
4.52342e-16
3.68792e-17
3.02093e-18
2.62477e-19
2.47471e-20
2.24768e-21
1.23223e-22
2.17558e-13
6.35606e-13
1.35047e-12
2.40453e-12
3.94064e-12
1.09365e-11
5.41399e-11
7.3305e-11
2.78385e-10
4.31592e-10
1.50942e-06
2.85911e-06
4.22597e-06
6.643e-06
9.53933e-05
9.93256e-05
3.54747e-05
1.82323e-07
5.78856e-08
1.97561e-08
1.50215e-08
1.50169e-08
1.50082e-08
1.50432e-08
1.81785e-08
1.68733e-08
1.76927e-08
2.74405e-08
2.73571e-06
8.38113e-06
3.80626e-06
2.08234e-10
2.10179e-10
3.39734e-10
3.99009e-10
3.99009e-10
3.02812e-10
1.36036e-10
2.66851e-11
2.74624e-12
2.71033e-13
2.0833e-14
1.3146e-15
9.40417e-17
7.26464e-18
5.77177e-19
5.02725e-20
4.57554e-21
3.96078e-22
2.21983e-23
2.07168e-13
6.02067e-13
1.31699e-12
2.46309e-12
4.54888e-12
1.17176e-11
3.87593e-11
4.30728e-11
4.67879e-11
2.24322e-07
6.4668e-06
5.3674e-06
4.56639e-06
4.01253e-05
9.49943e-05
8.17468e-05
7.75402e-06
1.31082e-07
6.06641e-08
2.59407e-08
1.51346e-08
2.18172e-05
1.0308e-07
1.50491e-08
1.854e-08
1.77509e-08
1.97501e-08
4.54312e-07
5.55847e-06
8.02466e-06
2.35291e-08
1.89572e-10
2.18271e-10
3.63559e-10
3.99009e-10
3.91961e-10
2.09662e-10
6.14554e-11
8.49663e-12
8.06748e-13
7.2575e-14
4.75209e-15
2.70895e-16
1.85228e-17
1.38422e-18
1.1044e-19
9.4958e-21
8.2052e-22
6.92127e-23
3.88802e-24
1.90266e-13
5.52769e-13
1.25112e-12
2.46713e-12
5.10748e-12
1.35547e-11
3.76304e-11
3.79764e-11
4.20305e-11
1.45175e-07
6.71539e-06
6.69959e-06
4.89839e-06
8.20256e-05
9.3667e-05
4.53325e-05
7.99702e-07
9.60207e-08
5.40822e-08
2.72765e-08
1.72572e-05
6.33091e-05
4.20305e-05
1.51121e-08
1.79606e-08
1.89143e-08
2.42847e-08
1.3434e-06
1.42426e-05
6.09556e-06
1.66007e-10
2.06114e-10
2.09588e-10
3.82472e-10
3.98203e-10
3.42133e-10
1.13105e-10
2.28384e-11
2.5315e-12
2.23336e-13
1.74385e-14
9.80565e-16
5.24995e-17
3.5277e-18
2.61588e-19
2.12529e-20
1.74703e-21
1.54199e-22
1.29159e-23
6.71025e-25
1.69832e-13
4.96525e-13
1.16132e-12
2.43644e-12
5.66466e-12
1.71756e-11
4.12049e-11
4.12353e-11
6.5435e-11
2.06726e-10
4.5868e-06
4.20308e-06
5.97831e-05
8.64852e-05
8.39168e-05
1.10535e-05
1.22111e-07
7.2561e-08
5.77903e-08
4.95102e-06
6.35689e-05
6.37294e-05
6.31868e-05
1.89452e-08
1.96611e-08
2.10057e-08
3.79918e-08
3.58457e-06
1.45273e-05
7.00137e-06
2.03862e-10
2.08233e-10
2.14768e-10
3.86415e-10
3.91235e-10
2.27797e-10
4.76799e-11
7.51832e-12
7.12775e-13
5.61156e-14
3.73839e-15
1.86649e-16
9.85252e-18
6.61375e-19
5.04849e-20
4.0516e-21
3.29727e-22
3.03207e-23
2.46494e-24
1.12951e-25
1.48671e-13
4.40395e-13
1.06129e-12
2.35907e-12
6.33272e-12
2.28017e-11
4.90726e-11
4.39181e-11
1.02994e-09
5.71414e-07
1.00406e-06
1.73683e-05
8.64694e-05
8.64073e-05
3.37539e-05
1.64506e-07
8.28667e-08
7.30362e-08
6.33593e-08
4.73239e-05
6.46256e-05
6.45825e-05
3.42643e-05
2.79405e-08
2.12754e-08
2.75198e-08
5.70546e-07
1.65076e-05
1.55372e-05
3.78614e-06
2.89071e-11
2.12013e-10
2.21883e-10
3.82314e-10
3.38274e-10
1.10493e-10
1.6402e-11
2.30459e-12
1.83167e-13
1.25651e-14
7.24571e-16
3.39945e-17
1.81264e-18
1.26093e-19
9.8e-21
7.60442e-22
6.53806e-23
5.85778e-24
4.55091e-25
1.84631e-26
1.28564e-13
3.88263e-13
9.60833e-13
2.24476e-12
7.11437e-12
2.89117e-11
5.98417e-11
5.65791e-11
6.42115e-09
1.265e-06
1.20678e-06
1.74749e-05
4.8579e-05
3.50824e-05
1.01093e-05
9.47519e-08
5.45607e-08
5.70393e-08
1.30111e-05
6.46256e-05
6.477e-05
6.47976e-05
9.18797e-07
4.96714e-08
2.74813e-08
5.22625e-08
5.69078e-06
1.6806e-05
1.59894e-05
5.31734e-10
1.60813e-10
2.12684e-10
2.73273e-10
3.69934e-10
2.15895e-10
3.88187e-11
5.02457e-12
6.48576e-13
4.17079e-14
2.51888e-15
1.3169e-16
6.00993e-18
3.36122e-19
2.44991e-20
1.86561e-21
1.47473e-22
1.28645e-23
1.1122e-24
8.26804e-26
2.92117e-27
1.10298e-13
3.41248e-13
8.66641e-13
2.12356e-12
7.94005e-12
3.38016e-11
7.94309e-11
1.30478e-10
1.37913e-09
4.07072e-07
2.03786e-06
2.19269e-06
8.31639e-06
2.77032e-05
5.7978e-06
5.70438e-08
3.90067e-08
2.27225e-07
5.88387e-05
6.4555e-05
6.46256e-05
3.53409e-05
7.9586e-08
6.48219e-08
4.96758e-08
6.74904e-07
1.80571e-05
1.7403e-05
1.13164e-05
-1.75702e-09
1.25474e-10