/*--------------------------------*- C++ -*----------------------------------*\
  =========                 |
  \\      /  F ield         | OpenFOAM: The Open Source CFD Toolbox
   \\    /   O peration     | Website:  https://openfoam.org
    \\  /    A nd           | Version:  9
     \\/     M anipulation  |
\*---------------------------------------------------------------------------*/
FoamFile
{
    format      ascii;
    class       surfaceScalarField;
    location    "0.13";
    object      alphaPhi0.water;
}
// * * * * * * * * * * * * * * * * * * * * * * * * * * * * * * * * * * * * * //

dimensions      [0 3 -1 0 0 0 0];

internalField   nonuniform List<scalar> 
9850
(
-2.13659e-22
2.24006e-22
-3.4275e-21
4.03075e-21
-3.10487e-20
8.54297e-20
-5.79776e-19
1.25288e-18
-1.00656e-17
2.52701e-17
-1.50798e-16
4.99023e-16
-1.62023e-15
9.07632e-15
-1.35618e-14
1.64269e-13
0
3.04435e-12
0
6.71097e-11
0
1.02524e-09
0
9.01501e-09
-6.39222e-07
1.45726e-07
-1.99213e-06
8.56962e-07
-2.10719e-06
3.93399e-07
-2.17742e-06
3.33458e-07
-2.2057e-06
3.56018e-07
-2.2014e-06
2.7886e-07
-2.17496e-06
1.55742e-07
-2.12964e-06
2.90041e-08
-2.07957e-06
-5.67635e-08
-2.02615e-06
-8.68527e-08
-1.9796e-06
-6.42787e-08
-1.94799e-06
-3.39514e-11
-1.93404e-06
8.26778e-08
-1.93863e-06
1.61375e-07
-1.9632e-06
2.24012e-07
-2.00699e-06
2.95645e-07
-2.05067e-06
4.51586e-07
-7.89774e-07
5.29868e-07
-5.56077e-09
6.55161e-08
-1.52555e-09
8.17964e-10
-4.72327e-10
1.47841e-09
-4.06446e-11
6.37033e-10
0
1.29303e-10
0
4.53299e-11
0
1.43242e-11
0
4.36944e-12
0
1.36144e-12
0
4.31056e-13
0
1.39465e-13
0
4.57104e-14
2.1724e-16
1.51127e-14
4.03049e-16
5.68093e-15
3.84925e-16
3.01201e-15
3.04789e-16
1.95556e-15
2.29886e-16
1.36415e-15
1.70801e-16
9.84767e-16
1.23152e-16
7.22999e-16
3.88105e-16
-1.99488e-22
2.6293e-22
-3.42678e-21
6.09831e-21
-4.61268e-20
1.91336e-19
-3.9472e-19
1.60574e-18
-5.43548e-18
1.64351e-17
-4.82531e-17
3.02467e-16
-4.629e-16
5.65583e-15
-6.88277e-15
9.94536e-14
0
2.37131e-12
0
5.40805e-11
0
6.36245e-10
0
3.93188e-09
-4.18235e-07
5.0597e-08
-1.95303e-06
8.49618e-07
-2.12063e-06
5.60616e-07
-2.18662e-06
3.99387e-07
-2.20279e-06
3.72166e-07
-2.19538e-06
2.71445e-07
-2.17504e-06
1.35404e-07
-2.142e-06
-4.03768e-09
-2.10407e-06
-9.46913e-08
-2.06119e-06
-1.29735e-07
-2.02254e-06
-1.02921e-07
-1.99571e-06
-2.68684e-08
-1.9817e-06
6.86687e-08
-1.98096e-06
1.60637e-07
-2.00025e-06
2.43333e-07
-2.04904e-06
3.45486e-07
-2.10927e-06
5.26674e-07
-5.89716e-07
4.42759e-07
-5.07989e-09
3.35545e-08
-1.94357e-09
6.20169e-10
-2.22395e-10
1.4343e-09
-9.58693e-11
8.38589e-10
-3.66621e-12
1.38442e-10
0
4.50865e-11
0
1.53506e-11
0
4.71272e-12
0
1.48557e-12
0
4.79596e-13
0
1.56515e-13
0
5.19772e-14
1.26754e-16
1.70231e-14
3.24621e-16
5.93877e-15
3.43647e-16
3.12524e-15
2.8744e-16
2.11544e-15
2.26606e-16
1.55508e-15
1.73854e-16
1.18521e-15
1.27562e-16
8.96477e-16
4.93632e-16
-3.71429e-22
5.36091e-22
-8.63407e-21
1.53895e-20
-1.13894e-19
3.89255e-19
-4.5444e-19
2.48002e-18
-3.55074e-18
1.20383e-17
-1.67625e-17
1.90342e-16
-4.28834e-16
3.75035e-15
0
8.58813e-14
0
1.65719e-12
0
5.08088e-11
0
7.90978e-10
0
1.94479e-09
-1.61319e-07
2.70813e-08
-1.93516e-06
6.97024e-07
-2.14052e-06
7.54679e-07
-2.18898e-06
4.47605e-07
-2.18609e-06
3.69265e-07
-2.17589e-06
2.61239e-07
-2.16432e-06
1.23841e-07
-2.14706e-06
-2.13002e-08
-2.12569e-06
-1.16058e-07
-2.09853e-06
-1.569e-07
-2.07292e-06
-1.28528e-07
-2.058e-06
-4.17869e-08
-2.05461e-06
6.52783e-08
-2.06061e-06
1.66639e-07
-2.08233e-06
2.65159e-07
-2.12707e-06
3.91822e-07
-1.98854e-06
5.7817e-07
-3.92087e-08
2.29429e-07
-2.71214e-09
1.44576e-09
-1.08318e-09
2.17121e-10
-8.54723e-10
2.63399e-10
-1.69283e-10
5.98654e-10
-1.33069e-11
1.93502e-10
0
4.58619e-11
0
1.5187e-11
0
5.12782e-12
0
1.61193e-12
0
5.28134e-13
0
1.75623e-13
0
5.89179e-14
5.1023e-17
1.96372e-14
2.37156e-16
6.30818e-15
2.83962e-16
3.23171e-15
2.48923e-16
2.24289e-15
2.02763e-16
1.70654e-15
1.59403e-16
1.35544e-15
1.18312e-16
1.05113e-15
5.92822e-16
-5.21853e-22
9.87639e-22
-1.65761e-20
3.12899e-20
-2.17279e-19
6.02942e-19
-5.89914e-19
3.59642e-18
-2.69197e-18
1.2313e-17
-2.45215e-17
1.71743e-16
-1.91216e-17
3.72555e-15
0
1.06708e-13
-2.11973e-13
1.62107e-12
-1.61982e-11
6.53079e-11
0
1.0712e-09
0
1.29014e-09
0
1.15256e-08
-1.39956e-06
4.23033e-07
-2.09811e-06
9.482e-07
-2.14514e-06
4.94632e-07
-2.13675e-06
3.60861e-07
-2.13451e-06
2.59e-07
-2.13773e-06
1.27056e-07
-2.13946e-06
-1.95657e-08
-2.13847e-06
-1.1705e-07
-2.13214e-06
-1.63236e-07
-2.12369e-06
-1.36971e-07
-2.12577e-06
-3.97114e-08
-2.14524e-06
8.47469e-08
-2.17656e-06
1.97987e-07
-2.21295e-06
3.01866e-07
-2.24147e-06
4.25733e-07
-1.31071e-06
4.42193e-07
-3.82217e-09
4.72881e-08
-1.07382e-09
2.26958e-10
-4.92078e-10
3.92223e-10
-4.18983e-10
2.21071e-10
-2.07557e-10
2.24053e-10
-2.76603e-11
2.11089e-10
-1.81486e-12
5.18831e-11
0
1.45979e-11
0
5.0999e-12
0
1.72077e-12
0
5.51653e-13
0
1.8416e-13
0
6.27545e-14
7.5847e-18
2.14779e-14
1.62232e-16
6.67715e-15
2.18196e-16
3.36169e-15
1.95802e-16
2.36899e-15
1.60403e-16
1.84005e-15
1.25744e-16
1.50143e-15
9.15115e-17
1.18251e-15
6.78446e-16
-5.81359e-22
1.55124e-21
-2.20894e-20
4.63201e-20
-2.80336e-19
7.24693e-19
-7.86388e-19
4.61541e-18
-3.02293e-18
1.74086e-17
-3.346e-17
2.1408e-16
-1.51316e-16
5.10049e-15
0
1.62306e-13
-7.23976e-13
2.21191e-12
-3.0402e-11
1.23307e-10
0
5.70206e-10
-3.09797e-10
8.49937e-10
0
3.62298e-09
-9.53605e-07
1.23185e-07
-1.90036e-06
9.98111e-07
-2.00942e-06
6.03355e-07
-2.03801e-06
3.89407e-07
-2.06454e-06
2.8552e-07
-2.08984e-06
1.52356e-07
-2.11283e-06
3.43115e-09
-2.13521e-06
-9.46702e-08
-2.15454e-06
-1.43912e-07
-2.16493e-06
-1.26574e-07
-2.17895e-06
-2.56992e-08
-2.21559e-06
1.21391e-07
-2.26812e-06
2.50597e-07
-2.30501e-06
3.40057e-07
-2.22111e-06
3.73535e-07
-4.59564e-07
1.39037e-07
-3.4959e-09
1.21571e-08
-1.33535e-09
1.7796e-10
-8.52275e-10
3.05605e-10
-3.03302e-10
3.49869e-10
-1.38135e-10
1.32818e-10
-4.05675e-11
1.35464e-10
-4.64197e-12
6.46125e-11
-2.71389e-13
1.47581e-11
0
4.76599e-12
0
1.69054e-12
0
5.62884e-13
0
1.83885e-13
0
6.24025e-14
3.20517e-18
2.1612e-14
1.08333e-16
6.86884e-15
1.49304e-16
3.43676e-15
1.3417e-16
2.44816e-15
1.09202e-16
1.94611e-15
8.4784e-17
1.62123e-15
6.08305e-17
1.28377e-15
7.47088e-16
-8.68777e-22
2.36755e-21
-2.33112e-20
5.65979e-20
-2.65011e-19
7.56445e-19
-1.09007e-18
5.365e-18
-4.0598e-18
2.74386e-17
-4.02071e-18
3.00425e-16
-7.60932e-16
7.21652e-15
0
1.9035e-13
-6.60768e-13
2.69881e-12
-3.52642e-11
1.37298e-10
0
1.87363e-10
-3.32317e-10
5.8185e-10
0
8.67017e-10
-3.52351e-07
9.48185e-09
-1.61517e-06
5.55296e-07
-1.80733e-06
7.94486e-07
-1.90253e-06
4.84561e-07
-1.96945e-06
3.52424e-07
-2.01838e-06
2.01279e-07
-2.06222e-06
4.72755e-08
-2.11015e-06
-4.67443e-08
-2.15966e-06
-9.43961e-08
-2.19108e-06
-9.51544e-08
-2.20458e-06
-1.22036e-08
-2.22802e-06
1.44874e-07
-2.26295e-06
2.86241e-07
-2.23169e-06
3.18544e-07
-9.16776e-07
1.46415e-07
-1.63267e-08
2.60651e-08
-1.11984e-09
8.57288e-11
-9.86434e-10
5.05329e-11
-4.40185e-10
2.9806e-10
-3.81059e-10
6.33618e-10
-1.10419e-10
1.73215e-10
-4.13948e-11
4.0642e-11
-8.97532e-12
5.72426e-11
-1.07511e-12
1.88332e-11
-9.34796e-14
4.54642e-12
0
1.56801e-12
0
5.5327e-13
0
1.83127e-13
0
6.09595e-14
4.52535e-18
2.11808e-14
5.71881e-17
6.86038e-15
7.40929e-17
3.43884e-15
6.33885e-17
2.46112e-15
4.81832e-17
2.01186e-15
3.36362e-17
1.70804e-15
2.06376e-17
1.33271e-15
7.97396e-16
-1.10834e-21
3.12138e-21
-2.25201e-20
6.00752e-20
-2.30767e-19
7.54766e-19
-1.23056e-18
5.824e-18
-6.10962e-18
3.90534e-17
0
4.13695e-16
0
7.90146e-15
0
1.8062e-13
-3.94569e-12
3.33231e-12
-1.77634e-12
5.46619e-11
-1.69459e-11
1.22441e-10
0
8.3346e-10
-5.1902e-11
3.05271e-10
0
4.13679e-09
-9.43687e-07
2.21661e-08
-1.62472e-06
6.0266e-07
-1.77179e-06
6.31052e-07
-1.86532e-06
4.45862e-07
-1.92544e-06
2.61401e-07
-1.98688e-06
1.08701e-07
-2.05916e-06
2.5541e-08
-2.1397e-06
-1.38733e-08
-2.19981e-06
-3.50368e-08
-2.21996e-06
7.98039e-09
-2.21486e-06
1.40272e-07
-2.18534e-06
2.6491e-07
-1.06295e-06
1.548e-07
-3.21843e-08
2.65519e-08
-8.10168e-10
6.64746e-11
-2.02934e-10
1.57421e-11
-6.11085e-11
1.05675e-10
-6.19039e-10
2.4369e-10
-5.51824e-10
7.6157e-10
-8.68558e-11
2.78239e-10
-3.29723e-11
2.90464e-11
-1.41065e-11
2.33796e-11
-2.35098e-12
2.32831e-11
-3.29914e-13
4.81606e-12
-5.53232e-14
1.44879e-12
-6.68331e-15
5.16883e-13
0
1.80594e-13
0
5.8833e-14
6.59141e-19
1.9833e-14
2.55991e-18
6.47891e-15
-9.09237e-18
3.34559e-15
-1.91729e-17
2.45685e-15
-2.77413e-17
2.03444e-15
-3.39517e-17
1.75277e-15
-3.81125e-17
1.33718e-15
8.32047e-16
-1.2027e-21
3.5498e-21
-2.06728e-20
6.00706e-20
-2.05874e-19
7.19375e-19
-1.38184e-18
5.92422e-18
-8.12545e-18
4.63798e-17
0
4.61526e-16
0
7.17034e-15
0
1.08132e-13
-2.25609e-13
2.90317e-12
0
2.15115e-11
-1.08518e-10
4.43564e-10
0
9.36533e-10
0
1.00143e-10
0
5.94158e-10
-1.13263e-07
0
-1.19406e-06
4.62572e-08
-1.68234e-06
5.2232e-07
-1.76073e-06
5.23321e-07
-1.81505e-06
3.15705e-07
-1.89176e-06
1.85406e-07
-1.98218e-06
1.15964e-07
-2.0796e-06
8.35198e-08
-2.17174e-06
5.71253e-08
-2.2262e-06
6.29643e-08
-2.22159e-06
1.46574e-07
-9.63865e-07
9.58177e-08
-3.78733e-08
1.61836e-08
-7.15126e-10
6.96648e-12
-1.81868e-10
2.30003e-12
-3.46833e-11
1.5163e-11
-3.11572e-11
1.46245e-10
-8.21399e-10
2.22709e-10
-8.02319e-10
9.33052e-10
-8.79311e-11
5.4685e-10
-1.84755e-11
1.56104e-11
-1.04408e-11
0
-4.23929e-12
1.46111e-11
-6.77862e-13
6.76849e-12
-1.26841e-13
1.46709e-12
-3.11151e-14
4.73642e-13
-7.96996e-15
1.70434e-13
-2.17326e-15
5.69997e-14
-6.11629e-16
1.74875e-14
-2.32099e-16
5.60118e-15
-1.41817e-16
3.10622e-15
-1.19837e-16
2.40948e-15
-1.18651e-16
2.03914e-15
-1.12885e-16
1.76239e-15
-1.09008e-16
1.31424e-15
8.56984e-16
-1.21534e-21
3.65324e-21
-1.85455e-20
5.73168e-20
-1.84435e-19
6.53651e-19
-1.43726e-18
5.81525e-18
-9.54701e-18
4.81617e-17
-6.45024e-17
4.53214e-16
0
5.91621e-15
0
6.91078e-14
0
2.63249e-12
-2.0267e-11
2.29127e-11
-1.41321e-10
1.01272e-09
-2.35245e-11
9.47554e-10
-2.761e-11
9.31357e-12
0
0
0
0
-1.47209e-07
0
-1.01086e-06
8.36253e-09
-1.64095e-06
2.76994e-07
-1.70149e-06
3.75275e-07
-1.79571e-06
2.79545e-07
-1.88856e-06
2.08752e-07
-1.95222e-06
1.472e-07
-1.97814e-06
1.03137e-07
-1.61912e-06
7.34407e-08
-5.04419e-07
1.06703e-08
-2.93268e-08
0
-7.02313e-10
0
-1.258e-11
2.80497e-15
-7.3354e-11
-1.88876e-13
-3.65558e-10
6.52991e-12
-1.05863e-09
2.17892e-10
-1.27049e-09
4.90009e-10
-1.03054e-09
8.00752e-10
-3.13782e-11
8.25453e-10
-8.71808e-12
7.66432e-12
-4.81922e-12
1.03626e-12
-4.29546e-12
1.48249e-12
-1.10079e-12
5.61121e-12
-2.09435e-13
1.8467e-12
-5.21394e-14
4.70726e-13
-1.52847e-14
1.55676e-13
-4.33567e-15
5.47872e-14
-1.1436e-15
1.60061e-14
-4.19016e-16
4.86141e-15
-2.55341e-16
2.86739e-15
-2.15748e-16
2.32495e-15
-2.09144e-16
2.02478e-15
-1.88845e-16
1.7603e-15
-1.78752e-16
1.28952e-15
8.671e-16
-1.14839e-21
3.48019e-21
-1.56414e-20
5.05448e-20
-1.62158e-19
5.55348e-19
-1.41284e-18
5.30637e-18
-9.70716e-18
4.60429e-17
-2.71054e-17
3.87322e-16
0
4.33302e-15
0
6.9954e-14
0
1.68815e-12
-3.79612e-11
2.58193e-11
-9.88407e-11
4.19275e-10
-4.58779e-11
1.57192e-10
-1.22881e-11
2.21363e-11
0
1.15265e-11
-5.23189e-11
1.23774e-12
-9.24433e-12
0
-6.26906e-08
0
-4.32533e-07
0
-9.13689e-07
1.29101e-08
-1.05254e-06
5.76444e-08
-1.10753e-06
4.18973e-08
-8.69549e-07
1.44047e-08
-4.29307e-07
0
-4.85097e-08
0
-3.48629e-09
0
-2.1989e-10
0
-3.85468e-11
1.43246e-12
0
-7.31623e-14
0
-4.18773e-13
-1.22182e-09
1.51048e-11
-1.24706e-09
2.46891e-10
-1.21867e-09
4.78404e-10
-1.17732e-09
7.46189e-10
-1.09197e-10
7.47802e-10
-7.78801e-12
1.21814e-11
-2.65406e-12
3.51371e-12
-1.94394e-12
4.22183e-13
-1.32541e-12
1.6339e-12
-3.29274e-13
1.81681e-12
-7.27191e-14
5.36591e-13
-2.11205e-14
1.48388e-13
-6.16752e-15
5.04262e-14
-1.54082e-15
1.49771e-14
-5.57587e-16
4.2913e-15
-3.47543e-16
2.67471e-15
-3.01935e-16
2.24356e-15
-2.94456e-16
1.99247e-15
-2.61698e-16
1.74956e-15
-2.45521e-16
1.28923e-15
8.68155e-16
-9.92881e-22
3.07004e-21
-1.25313e-20
4.101e-20
-1.34637e-19
4.50116e-19
-1.31863e-18
4.48853e-18
-8.82178e-18
4.02101e-17
-5.24555e-18
3.02175e-16
0
3.60708e-15
0
7.07853e-14
0
5.32903e-13
-1.52973e-11
1.40013e-11
-1.68661e-11
9.05572e-11
-9.73154e-12
2.53374e-11
-5.91127e-12
1.57632e-11
-5.63409e-12
1.49021e-11
-1.05634e-11
8.81921e-12
-1.64377e-10
0
-1.4075e-09
0
-3.33698e-09
0
-2.9457e-08
0
-3.10639e-08
0
-1.76778e-08
0
-3.8723e-09
0
-1.91215e-09
0
-5.27155e-10
0
-1.72033e-10
0
-2.94267e-11
0
-3.53237e-12
0
-4.37511e-12
-1.55807e-14
0
-9.67946e-14
-1.22817e-09
2.00432e-11
-1.28812e-09
2.38216e-10
-1.29541e-09
4.26185e-10
-1.21305e-09
6.68326e-10
-5.8507e-11
6.42082e-10
-6.99871e-12
7.25627e-12
-2.94774e-12
3.91162e-12
-1.24123e-12
3.04073e-12
-7.45222e-13
7.16141e-13
-4.09607e-13
8.03847e-13
-1.03042e-13
5.60981e-13
-2.61309e-14
1.50848e-13
-7.50953e-15
4.45005e-14
-1.809e-15
1.37033e-14
-6.62938e-16
3.80256e-15
-4.2707e-16
2.54087e-15
-3.79697e-16
2.19214e-15
-3.73143e-16
1.96084e-15
-3.38063e-16
1.73809e-15
-3.16865e-16
1.30695e-15
8.45609e-16
-7.90552e-22
2.4589e-21
-9.65932e-21
3.15017e-20
-1.07226e-19
3.50678e-19
-1.11025e-18
3.55535e-18
-6.47221e-18
3.16064e-17
-2.17406e-18
2.4452e-16
-8.33873e-16
3.67354e-15
0
5.16397e-14
-5.19148e-14
3.1015e-13
-1.31013e-12
8.53169e-12
-5.60214e-12
1.74666e-10
-4.64778e-12
7.40625e-11
-6.80109e-12
2.81009e-11
-6.89551e-12
1.68158e-11
-1.16417e-11
2.00186e-11
-1.77104e-11
0
-1.15541e-10
0
-4.4252e-10
0
-5.80062e-10
0
-5.57965e-10
0
-4.95306e-10
0
-3.76086e-10
0
-2.14614e-10
0
-8.72298e-11
0
-2.33744e-11
0
-2.61954e-12
0
-3.29023e-13
0
-1.24794e-12
6.33193e-15
-4.9773e-12
1.16566e-13
-1.34633e-09
1.01601e-11
-1.30232e-09
2.34196e-10
-1.33438e-09
3.76613e-10
-1.2898e-09
5.79632e-10
-1.8172e-11
6.84697e-10
-5.92695e-12
4.05736e-12
-4.16684e-12
3.75947e-12
-1.49801e-12
4.43264e-12
-4.64949e-13
1.05547e-12
-2.69676e-13
1.9104e-13
-1.2728e-13
3.41422e-13
-3.17331e-14
1.61343e-13
-8.25107e-15
4.17669e-14
-1.91053e-15
1.17369e-14
-7.35189e-16
3.33512e-15
-4.94973e-16
2.43568e-15
-4.478e-16
2.15861e-15
-4.38149e-16
1.93966e-15
-4.0181e-16
1.72439e-15
-3.68459e-16
1.32869e-15
8.14771e-16
-5.9248e-22
1.8362e-21
-7.22804e-21
2.33378e-20
-8.09771e-20
2.62603e-19
-7.94332e-19
2.65126e-18
-5.16542e-18
2.38598e-17
-2.66199e-17
2.17106e-16
-9.30742e-16
3.18781e-15
0
2.67195e-14
-5.98859e-14
3.08265e-13
-2.43203e-11
2.09971e-11
-1.07184e-11
4.32208e-10
-8.3097e-12
1.02187e-10
-8.36543e-12
2.81887e-11
-8.45404e-12
1.70435e-11
-9.68398e-12
2.23578e-11
-6.49597e-12
5.99184e-12
-1.29708e-11
0
-3.52064e-11
0
-6.53338e-11
0
-6.7571e-11
0
-5.74013e-11
0
-3.64482e-11
0
-2.00832e-11
0
-8.02448e-12
0
-2.17542e-12
0
-3.12346e-13
0
-5.78434e-14
6.72934e-16
-1.21267e-13
4.07662e-15
-1.06055e-12
6.14842e-14
-2.13137e-10
1.30592e-12
-1.28081e-09
7.40723e-11
-1.2849e-09
3.34458e-10
-1.19881e-09
5.01677e-10
-3.55165e-10
8.9656e-10
-1.42522e-11
2.67143e-11
-4.48808e-12
3.65156e-12
-1.82465e-12
3.18003e-12
-3.47382e-13
1.04196e-12
-1.48514e-13
2.62378e-13
-9.073e-14
8.16817e-14
-3.64018e-14
1.1874e-13
-8.78618e-15
4.04969e-14
-1.86318e-15
9.52908e-15
-7.68592e-16
2.90011e-15
-5.55259e-16
2.33397e-15
-5.1524e-16
2.13227e-15
-5.03463e-16
1.921e-15
-4.68905e-16
1.70453e-15
-4.23798e-16
1.33486e-15
7.69116e-16
-4.26912e-22
1.31585e-21
-5.2393e-21
1.68e-20
-5.80272e-20
1.89649e-19
-5.45051e-19
1.91472e-18
-4.38662e-18
1.79961e-17
-6.08342e-17
1.91603e-16
-1.24491e-16
2.31644e-15
0
2.03889e-14
-2.96046e-13
5.74936e-13
-3.88262e-11
4.06241e-11
-2.71885e-11
4.28559e-10
-8.42793e-12
3.06471e-10
-8.97588e-12
2.87298e-11
-3.01103e-11
3.82187e-11
-2.49984e-11
8.38378e-11
-6.87417e-12
9.86623e-12
-1.97907e-12
2.71163e-13
-4.27879e-12
0
-5.51201e-12
0
-5.43487e-12
0
-4.60903e-12
0
-3.40549e-12
0
-1.94613e-12
0
-8.33569e-13
0
-2.50813e-13
0
-4.72081e-14
0
-1.28659e-14
2.44799e-15
0
2.78751e-15
0
1.36838e-14
-2.79557e-12
2.19271e-13
-1.4248e-09
3.72434e-12
-1.43727e-09
3.60852e-10
-1.37209e-09
4.17193e-10
-9.44718e-10
7.77493e-10
-1.20792e-11
1.62059e-10
-3.30569e-12
2.11175e-12
-1.66808e-12
7.80748e-13
-3.98207e-13
9.97339e-13
-8.48911e-14
2.8751e-13
-5.12512e-14
7.14951e-14
-2.82839e-14
2.98393e-14
-8.54434e-15
3.0759e-14
-1.78514e-15
7.94521e-15
-7.89725e-16
2.65806e-15
-6.08365e-16
2.24332e-15
-5.79942e-16
2.09686e-15
-5.66244e-16
1.88975e-15
-5.35541e-16
1.67439e-15
-4.74671e-16
1.33718e-15
7.15965e-16
-2.99041e-22
9.19352e-22
-3.67648e-21
1.17753e-20
-4.03198e-20
1.3307e-19
-3.8257e-19
1.35699e-18
-3.6672e-18
1.32681e-17
-5.06013e-17
1.47621e-16
-6.31448e-17
1.62109e-15
-5.11971e-15
2.31951e-14
-2.56757e-13
7.78116e-13
-4.67185e-11
4.87164e-11
-3.94772e-11
4.32185e-10
-1.74902e-11
2.97585e-10
-3.28533e-11
4.63511e-11
-6.25699e-11
1.17667e-10
-3.24119e-11
9.28019e-11
-3.93886e-12
9.96358e-12
-9.58299e-13
2.2151e-13
-5.19935e-13
0
-6.73791e-13
0
-6.78989e-13
0
-5.78253e-13
0
-3.8968e-13
0
-2.16037e-13
0
-9.69284e-14
0
-3.31485e-14
0
-1.81907e-14
2.38026e-15
-1.80907e-14
2.86074e-15
-9.96159e-15
3.20914e-15
0
5.0651e-15
0
4.69232e-14
-1.65507e-11
8.79143e-13
-1.29766e-09
3.28875e-11
-1.30467e-09
4.3734e-10
-9.66349e-10
6.31131e-10
-5.5115e-12
1.81414e-10
-1.79453e-12
1.2539e-12
-1.16618e-12
6.28169e-14
-4.49114e-13
8.84293e-13
-1.06049e-13
2.97746e-13
-3.00812e-14
8.22896e-14
-1.49065e-14
2.07006e-14
-6.04544e-15
1.27317e-14
-1.61295e-15
5.67903e-15
-8.12238e-16
2.54327e-15
-6.59465e-16
2.18839e-15
-6.32002e-16
2.03233e-15
-6.14226e-16
1.82991e-15
-5.91116e-16
1.63682e-15
-5.12967e-16
1.34123e-15
6.66417e-16
-2.04597e-22
6.27795e-22
-2.51963e-21
8.03365e-21
-2.77003e-20
9.05869e-20
-2.72119e-19
9.23242e-19
-2.66754e-18
8.92629e-18
-1.30315e-17
9.16666e-17
-2.07489e-17
1.23207e-15
-8.76372e-15
2.97101e-14
-2.84807e-13
9.9411e-13
-5.00929e-11
6.54206e-11
-3.97301e-11
4.33841e-10
-5.12874e-12
1.89652e-10
-8.69658e-11
1.2836e-10
-8.68306e-11
1.84401e-10
-3.54768e-11
5.22409e-11
-1.48934e-12
1.33493e-12
-6.37578e-13
7.33074e-13
-1.63278e-13
1.31671e-13
-8.35093e-14
1.75577e-14
-7.44341e-14
0
-6.62588e-14
0
-4.92849e-14
0
-3.17624e-14
0
-2.03163e-14
1.09215e-15
-1.68188e-14
1.3779e-15
-1.58079e-14
2.6499e-15
-1.5967e-14
2.99319e-15
-1.61045e-14
3.24046e-15
-8.15879e-15
4.04252e-15
0
8.83767e-15
-9.49035e-13
1.28278e-13
-3.39313e-10
2.03702e-12
-1.0779e-09
1.84782e-10
-7.65297e-10
5.73937e-10
-3.17743e-12
2.85046e-10
-1.28486e-12
8.88255e-13
-8.80166e-13
3.85533e-13
-4.18891e-13
5.11224e-13
-1.17858e-13
2.66695e-13
-3.00359e-14
9.05443e-14
-9.88154e-15
2.21316e-14
-3.22143e-15
6.45694e-15
-1.21421e-15
3.00299e-15
-8.02945e-16
2.36423e-15
-7.04812e-16
2.13849e-15
-6.65042e-16
1.93988e-15
-6.45064e-16
1.74539e-15
-6.35887e-16
1.60031e-15
-5.44175e-16
1.34654e-15
6.22829e-16
-1.37049e-22
4.17676e-22
-1.68327e-21
5.30148e-21
-1.85741e-20
5.90363e-20
-1.88946e-19
5.96335e-19
-1.49435e-18
5.94614e-18
-1.91158e-18
6.60961e-17
-2.9216e-16
1.50881e-15
-2.31376e-14
5.00672e-14
-9.24791e-13
1.66719e-12
-2.49548e-11
1.42329e-10
0
4.22289e-10
-6.35983e-11
1.84007e-10
-9.82098e-11
2.54815e-10
-3.4844e-11
1.86053e-10
-1.2559e-11
8.41643e-12
-3.24953e-12
1.8418e-12
-1.22405e-12
2.69226e-12
-7.62777e-14
1.84627e-13
-3.43926e-14
6.57473e-15
-1.8513e-14
5.12627e-15
-1.81944e-14
2.62921e-15
-1.72537e-14
2.46308e-15
-1.65558e-14
2.44858e-15
-1.6147e-14
2.45866e-15
-1.57541e-14
2.41551e-15
-1.56177e-14
3.05026e-15
-1.54807e-14
3.02488e-15
-1.56216e-14
3.3562e-15
-1.66201e-14
3.79372e-15
-9.21397e-15
7.34655e-15
-1.23774e-13
5.88397e-14
-5.28956e-12
1.2068e-12
-1.03204e-09
3.35908e-11
-5.08989e-10
5.46253e-10
-2.14232e-12
2.92256e-10
-1.0691e-12
7.15038e-13
-6.44755e-13
5.85082e-13
-3.02806e-13
3.32368e-13
-1.18187e-13
1.77802e-13
-3.16458e-14
9.00497e-14
-7.43574e-15
2.08855e-14
-1.84454e-15
4.59995e-15
-9.54483e-16
2.24118e-15
-7.7914e-16
2.13124e-15
-7.31744e-16
2.03686e-15
-6.82267e-16
1.83264e-15
-6.69342e-16
1.66285e-15
-6.8273e-16
1.57047e-15
-5.76637e-16
1.34986e-15
5.78242e-16
-8.91412e-23
2.69748e-22
-1.07467e-21
3.37847e-21
-1.15407e-20
3.76548e-20
-1.23484e-19
4.09569e-19
-9.37664e-19
4.98244e-18
-3.68091e-17
1.02073e-16
-1.78025e-15
3.14601e-15
-6.13688e-14
1.04713e-13
-1.99508e-12
3.40939e-12
-4.55587e-11
2.12037e-10
0
3.89437e-10
-9.46398e-11
1.97109e-10
-1.07306e-10
3.02383e-10
-2.90246e-11
1.54805e-10
-1.10508e-11
2.07593e-12
-7.76092e-12
2.0652e-12
-2.87175e-12
1.34864e-12
-2.60214e-14
1.57234e-13
-1.92769e-14
6.63299e-15
-1.73152e-14
5.44362e-15
-1.71784e-14
3.57551e-15
-1.68905e-14
2.79982e-15
-1.65026e-14
2.33357e-15
-1.61492e-14
2.11117e-15
-1.51681e-14
2.14292e-15
-1.57125e-14
3.12965e-15
-1.51894e-14
3.05628e-15
-1.56927e-14
3.34453e-15
-1.66587e-14
3.76737e-15
-2.18849e-14
6.13849e-15
-8.52928e-14
3.06918e-14
-1.62701e-12
6.21287e-13
-8.73729e-10
2.27418e-11
-5.41714e-10
5.45369e-10
-3.02052e-12
2.80463e-10
-1.07048e-12
7.19724e-13
-6.03336e-13
6.46857e-13
-2.09419e-13
3.72506e-13
-9.5479e-14
8.84708e-14
-3.23103e-14
7.47052e-14
-6.04223e-15
1.9908e-14
-1.36507e-15
3.2392e-15
-8.54307e-16
2.05389e-15
-7.7448e-16
1.98325e-15
-7.47665e-16
1.90759e-15
-6.99923e-16
1.73688e-15
-7.02506e-16
1.60315e-15
-7.33829e-16
1.54497e-15
-6.04131e-16
1.33523e-15
5.23513e-16
-5.55983e-23
1.69971e-22
-6.47525e-22
2.13903e-21
-7.47665e-21
2.55619e-20
-8.22791e-20
3.41223e-19
-9.58047e-19
5.44454e-18
-2.17714e-17
1.20589e-16
-7.49421e-16
3.64453e-15
-1.94421e-14
1.14726e-13
-3.70081e-13
3.50134e-12
-5.04089e-11
1.3911e-10
0
3.52766e-10
-1.05713e-10
2.19482e-10
-5.94483e-11
3.06153e-10
-2.44701e-11
2.28902e-11
-5.16055e-12
8.50538e-13
-3.49184e-12
5.62489e-13
-1.32405e-12
2.71254e-13
-1.99327e-14
3.83498e-14
-1.82382e-14
7.1843e-15
-1.77523e-14
5.84921e-15
-1.75945e-14
3.57439e-15
-1.72007e-14
2.45049e-15
-1.66826e-14
1.82886e-15
-1.61381e-14
1.56768e-15
-1.57857e-14
1.61692e-15
-2.09378e-14
2.36527e-15
-2.09487e-14
3.18996e-15
-1.64722e-14
4.25434e-15
-1.87241e-14
3.64244e-15
-2.15161e-14
5.06375e-15
-2.6908e-14
1.74433e-14
-2.02685e-13
2.09331e-13
-2.86143e-10
6.25279e-12
-6.05537e-10
1.18923e-11
-1.25617e-10
3.20363e-10
-1.55147e-12
1.1081e-11
-4.80147e-13
5.20497e-13
-1.64731e-13
3.85895e-13
-6.31701e-14
5.78368e-14
-2.77302e-14
3.66005e-14
-5.01547e-15
1.79519e-14
-1.17599e-15
3.08487e-15
-8.20082e-16
1.96838e-15
-7.85273e-16
1.88688e-15
-7.63665e-16
1.80328e-15
-7.31762e-16
1.66646e-15
-7.47036e-16
1.5676e-15
-7.72297e-16
1.51633e-15
-6.17733e-16
1.30346e-15
4.54929e-16
-3.37068e-23
1.06082e-22
-4.01795e-22
1.39701e-21
-5.19589e-21
1.89313e-20
-8.47263e-20
3.05834e-19
-1.04061e-18
5.77707e-18
0
1.20246e-16
0
3.26839e-15
0
8.79541e-14
0
2.3664e-12
-3.11388e-11
2.42286e-11
-5.15074e-12
1.97183e-10
-1.01442e-10
4.17579e-10
-4.38595e-11
3.02427e-10
-6.87515e-12
2.07062e-11
-1.13844e-12
2.87406e-13
-3.36677e-13
0
-5.82997e-14
1.74284e-16
-1.82613e-14
1.20036e-14
-1.82283e-14
8.04392e-15
-1.83013e-14
6.11405e-15
-1.7998e-14
3.31752e-15
-1.74324e-14
1.8995e-15
-1.67728e-14
1.17268e-15
-1.61124e-14
9.03354e-16
-1.5522e-14
9.80762e-16
-2.15703e-14
1.30493e-15
-2.07088e-14
2.53461e-15
-1.95365e-14
3.35751e-15
-1.03763e-14
4.5406e-15
-1.51993e-14
4.10625e-15
-1.01304e-14
6.63049e-15
0
3.11077e-14
0
3.88266e-13
-3.19256e-10
7.73673e-12
-3.63389e-11
3.44129e-10
-1.00081e-12
7.84447e-11
-4.12919e-13
3.5417e-13
-1.40114e-13
2.64915e-13
-4.15047e-14
4.74419e-14
-1.90683e-14
2.04629e-14
-2.79864e-15
1.1585e-14
-1.04631e-15
2.33671e-15
-8.27452e-16
1.89623e-15
-8.08516e-16
1.82157e-15
-7.8355e-16
1.72978e-15
-7.73515e-16
1.62808e-15
-7.95441e-16
1.55266e-15
-7.98718e-16
1.48892e-15
-6.05972e-16
1.2452e-15
3.70311e-16
-2.05835e-23
6.55111e-23
-2.63215e-22
9.18181e-22
-3.88463e-21
1.37599e-20
-6.81876e-20
2.44024e-19
-1.00879e-18
4.62332e-18
-2.16434e-18
9.34606e-17
0
2.55371e-15
0
5.98288e-14
0
1.42663e-12
0
3.54461e-11
-7.04176e-11
9.7165e-11
-1.11562e-10
5.01489e-10
-3.68913e-11
2.87939e-10
-1.07887e-12
2.2727e-11
-1.46474e-13
6.59143e-14
-2.51792e-14
6.57992e-14
-1.89355e-14
2.64171e-14
-1.67213e-14
1.07457e-14
-4.35784e-14
2.05841e-14
-3.2987e-14
5.23848e-14
-1.82648e-14
4.09813e-15
-1.7517e-14
1.15533e-15
-1.67254e-14
3.80695e-16
-1.59688e-14
1.46381e-16
-1.52885e-14
2.96685e-16
-1.48614e-14
8.91325e-16
-2.04743e-14
1.86585e-15
-1.96314e-14
2.78941e-15
-1.8237e-14
3.84353e-15
-9.43794e-15
4.14573e-15
-1.5723e-14
6.61949e-15
-4.94553e-14
4.0126e-14
-9.68175e-13
7.93455e-13
-1.84853e-10
2.01051e-11
-2.26675e-10
2.7301e-10
-8.63266e-13
1.40569e-10
-3.49203e-13
3.02716e-13
-1.18438e-13
2.03742e-13
-3.21696e-14
4.09011e-14
-1.18126e-14
1.65585e-14
-1.38533e-15
4.91517e-15
-9.49321e-16
1.98434e-15
-8.53778e-16
1.84855e-15
-8.43829e-16
1.78103e-15
-8.31256e-16
1.69888e-15
-8.26381e-16
1.6161e-15
-8.53597e-16
1.54299e-15
-8.32062e-16
1.45772e-15
-5.63352e-16
1.16025e-15
2.74844e-16
-1.2495e-23
3.91221e-23
-1.73686e-22
5.80089e-22
-2.71702e-21
9.58716e-21
-4.85019e-20
1.78074e-19
-7.18586e-19
3.4075e-18
-5.14337e-18
8.20353e-17
-2.7701e-16
2.46828e-15
-3.1294e-14
8.43309e-14
-3.09457e-13
3.29384e-12
0
1.70024e-10
-1.22128e-10
1.64181e-10
-1.13973e-10
5.28958e-10
-3.30299e-11
2.47054e-10
-4.16306e-13
7.65267e-12
-2.65416e-14
9.95267e-14
-1.95923e-14
1.30663e-13
-2.04715e-14
4.33761e-14
-2.52829e-14
4.79498e-14
-1.69595e-13
1.40633e-14
-1.04458e-13
5.66029e-14
-1.84323e-14
3.38931e-15
-1.74396e-14
2.48524e-16
-1.65247e-14
-5.30753e-16
-1.57228e-14
-6.59525e-16
-1.48041e-14
-6.45289e-16
-1.44965e-14
7.14618e-17
-2.00222e-14
1.13961e-15
-1.91238e-14
2.16587e-15
-1.48359e-14
3.32371e-15
-1.66271e-14
3.82098e-15
-2.19902e-14
9.0781e-15
-1.15866e-13
9.83521e-14
-1.7504e-12
1.74126e-12
-1.98664e-10
3.45365e-11
-2.52597e-10
2.65523e-10
-7.00981e-13
1.94374e-10
-2.89714e-13
2.6173e-13
-9.7096e-14
1.79053e-13
-2.52837e-14
3.72195e-14
-6.07185e-15
1.10519e-14
-1.06274e-15
2.98028e-15
-9.34715e-16
1.89684e-15
-9.05397e-16
1.83559e-15
-9.00095e-16
1.76867e-15
-8.96504e-16
1.69406e-15
-8.96038e-16
1.61112e-15
-9.17614e-16
1.52988e-15
-8.72715e-16
1.41879e-15
-4.82563e-16
1.04155e-15
1.85401e-16
-7.12522e-24
2.50523e-23
-1.11072e-22
4.29141e-22
-1.95364e-21
7.85099e-21
-4.00011e-20
1.82478e-19
-2.41666e-18
5.29609e-18
-1.02676e-16
1.71759e-16
-3.9686e-15
6.03467e-15
-1.44949e-13
2.09353e-13
-8.31784e-12
1.27786e-11
-1.29332e-12
2.09787e-10
-1.21618e-10
2.53507e-10
-8.00198e-11
5.1972e-10
-3.58831e-11
5.30539e-11
-3.99734e-12
3.77904e-12
-7.99328e-13
4.17892e-12
-6.7151e-11
6.69057e-11
-2.84496e-13
3.73084e-10
-5.42066e-12
5.20984e-12
-2.18733e-13
2.51153e-12
-3.10817e-14
4.68865e-14
-2.09385e-14
9.49647e-16
-1.79151e-14
-1.68481e-15
-1.59231e-14
-2.4236e-15
-1.53646e-14
-1.24219e-15
-5.80504e-14
-1.05578e-16
-2.51797e-14
-2.02161e-15
-1.87301e-14
3.83655e-16
-1.42032e-14
1.14865e-15
-1.34988e-14
2.15993e-15
-1.45333e-14
3.9255e-15
-2.10473e-14
1.3586e-14
-8.44422e-13
8.87802e-13
-9.78177e-12
9.98203e-12
-1.88003e-10
3.59665e-11
-2.50138e-10
2.32446e-10
-7.82746e-13
1.78508e-10
-2.864e-13
2.58301e-13
-1.00887e-13
1.76074e-13
-1.75975e-14
3.92277e-14
-4.05939e-15
7.47098e-15
-1.0203e-15
3.09349e-15
-9.82802e-16
1.87796e-15
-9.74356e-16
1.83183e-15
-9.73207e-16
1.76731e-15
-9.70147e-16
1.69015e-15
-9.7226e-16
1.6045e-15
-9.73014e-16
1.51216e-15
-9.03125e-16
1.37127e-15
-3.76545e-16
8.83723e-16
1.14139e-16
-5.53914e-24
2.07691e-23
-1.02398e-22
4.47254e-22
-3.32691e-21
1.15484e-20
-1.37834e-19
3.21221e-19
-5.01768e-18
9.71514e-18
-1.671e-16
3.19463e-16
-5.78757e-15
1.10109e-14
-1.90769e-13
3.73611e-13
0
2.17008e-11
-8.91235e-12
1.86201e-10
-8.34831e-11
6.59385e-10
-9.53099e-11
5.98161e-10
-1.10211e-11
9.20675e-12
-3.4418e-12
9.4931e-12
-1.99448e-11
1.84865e-11
-6.23642e-10
6.0617e-10
-7.08323e-10
6.03258e-10
-1.24746e-11
5.92508e-10
-3.70998e-13
2.76538e-13
-4.4712e-14
1.03734e-14
-2.36911e-14
0
-2.16466e-13
-1.19848e-13
-3.15662e-14
-6.05546e-13
-5.0749e-14
-7.55669e-14
-6.28176e-14
0
-3.72155e-14
0
-1.39927e-14
-1.98985e-16
-1.41081e-14
7.87264e-16
-1.4678e-14
2.10709e-15
-2.09681e-14
8.16408e-15
-2.08934e-13
1.6777e-13
-2.17429e-11
1.83099e-11
0
5.32495e-11
-1.07252e-10
4.2554e-11
-2.63224e-10
2.51484e-11
-4.51486e-12
1.49659e-10
-4.34223e-13
7.78745e-13
-9.98303e-14
1.15318e-13
-1.17191e-14
5.71428e-14
-3.97275e-15
4.7182e-15
-1.06435e-15
3.30993e-15
-1.05191e-15
1.88136e-15
-1.05256e-15
1.83327e-15
-1.05203e-15
1.76664e-15
-1.04805e-15
1.68554e-15
-1.04564e-15
1.59377e-15
-1.03046e-15
1.48386e-15
-9.31574e-16
1.30537e-15
-2.63007e-16
6.81475e-16
6.21476e-17
-5.82472e-24
2.56528e-23
-1.5176e-22
6.37686e-22
-4.21491e-21
1.66537e-20
-1.19116e-19
4.63016e-19
-4.03857e-18
1.34482e-17
-1.17236e-16
4.23015e-16
-3.59392e-15
1.35831e-14
-9.55255e-14
4.32968e-13
0
2.23358e-11
-8.38092e-11
1.91092e-10
-1.29283e-10
7.332e-10
-7.89702e-11
5.74839e-10
-1.00231e-11
2.18553e-11
-6.46352e-12
1.07704e-11
-5.9268e-10
1.33733e-10
-8.41223e-10
7.21964e-10
-9.00971e-10
6.61583e-10
-5.13044e-10
4.36038e-10
-4.84897e-13
1.65317e-11
-3.30226e-13
6.72597e-15
-1.73434e-12
-2.04259e-13
-5.31511e-12
-1.09795e-12
-6.08744e-12
-1.35026e-12
-1.40818e-12
-1.12093e-12
-5.26096e-14
-3.23917e-13
-1.39043e-14
-1.12682e-14
-1.37148e-14
-5.41257e-16
-1.38424e-14
5.8032e-16
-1.60815e-14
2.61901e-15
-7.11276e-14
2.47869e-14
-1.16142e-11
1.16252e-12
-4.75278e-11
3.84371e-11
-4.22976e-11
6.25612e-11
-5.58493e-11
4.15364e-11
-1.23392e-10
0
-1.14004e-11
1.13278e-10
-2.46534e-13
1.06507e-12
-8.08164e-14
5.64668e-14
-7.86986e-15
5.443e-14
-3.42723e-15
3.36633e-15
-1.1303e-15
2.98567e-15
-1.13277e-15
1.88719e-15
-1.13546e-15
1.83581e-15
-1.13335e-15
1.76426e-15
-1.12628e-15
1.67758e-15
-1.11323e-15
1.57557e-15
-1.0729e-15
1.44538e-15
-8.58815e-16
1.20509e-15
-1.52616e-16
4.52349e-16
2.65628e-17
-8.33179e-24
3.79329e-23
-1.90253e-22
9.43383e-22
-5.20082e-21
2.24103e-20
-1.21123e-19
6.19996e-19
-6.58476e-19
1.53286e-17
-8.72341e-19
4.48988e-16
-1.06833e-15
1.37025e-14
-2.35714e-14
4.28383e-13
0
1.87116e-11
-3.88643e-12
1.21788e-10
-1.02059e-10
5.96345e-10
-1.90215e-11
5.94911e-10
-6.28446e-12
2.8605e-11
-3.69485e-11
3.55269e-11
-8.48107e-10
7.23822e-10
-8.03349e-10
6.98718e-10
-8.11832e-10
6.41956e-10
-2.95026e-10
1.80867e-10
-7.80138e-12
3.2721e-12
-1.89605e-12
9.86765e-14
-6.4965e-12
-5.57485e-13
-6.3798e-12
-1.18736e-12
-5.98789e-12
-1.58673e-12
-5.29112e-12
-1.54612e-12
-2.05194e-12