/*--------------------------------*- C++ -*----------------------------------*\
  =========                 |
  \\      /  F ield         | OpenFOAM: The Open Source CFD Toolbox
   \\    /   O peration     | Website:  https://openfoam.org
    \\  /    A nd           | Version:  9
     \\/     M anipulation  |
\*---------------------------------------------------------------------------*/
FoamFile
{
    format      ascii;
    class       volScalarField;
    location    "0.13";
    object      p;
}
// * * * * * * * * * * * * * * * * * * * * * * * * * * * * * * * * * * * * * //

dimensions      [1 -1 -2 0 0 0 0];

internalField   nonuniform List<scalar> 
5000
(
1.43528
1.33538
1.21363
1.07241
0.911041
0.717865
0.467631
0.131272
-0.309063
-0.92282
-1.71449
-2.1523
-0.543627
16.1483
24.3818
25.7828
25.8857
26.1999
26.5978
27.0594
27.0819
26.5098
25.4642
24.2844
23.291
22.6757
22.5221
21.892
21.2941
18.911
1.3216
1.13732
1.24398
1.26547
1.30482
1.35802
1.42852
1.51008
1.59507
1.67819
1.75669
1.82959
1.89697
1.95925
2.01688
2.07023
2.11961
2.1652
2.20727
2.24456
1.39959
1.29646
1.17265
1.0309
0.870548
0.68142
0.442245
0.125932
-0.27133
-0.776446
-1.44512
-1.71435
-1.09251
11.2195
22.6774
24.241
24.6265
25.1789
25.7318
26.3431
26.5083
26.0303
25.0293
23.8752
22.9348
22.4304
22.5176
22.4453
22.557
15.796
1.2946
1.41412
1.47552
1.41178
1.42465
1.45513
1.50341
1.56604
1.63658
1.70928
1.78026
1.84755
1.91053
1.96926
2.02401
2.07501
2.1225
2.16655
2.20733
2.24376
1.36976
1.26509
1.14116
1.00105
0.844053
0.661228
0.436356
0.144556
-0.218083
-0.642067
-1.23407
-1.5841
-2.84561
3.93993
19.7534
22.4769
23.4099
24.184
24.9185
25.7063
26.0636
25.7436
24.8298
23.7044
22.766
22.1505
22.0531
22.9606
25.4334
7.97817
1.69005
1.6404
1.61323
1.52907
1.51099
1.52329
1.55458
1.60286
1.66253
1.72755
1.7932
1.8567
1.91686
1.9734
2.0264
2.076
2.12239
2.16563
2.20576
2.24195
1.34564
1.24078
1.11832
0.981489
0.829791
0.65526
0.44604
0.181165
-0.150896
-0.516337
-1.01482
-1.40533
-2.44045
0.150255
16.7773
21.0418
22.5027
23.3579
24.2964
25.2833
25.8843
25.8278
25.1415
24.2131
23.4212
22.8133
22.7335
25.1388
23.2534
2.48923
1.716
1.69268
1.64294
1.60541
1.55819
1.55739
1.57807
1.6173
1.67022
1.73068
1.79345
1.85516
1.91421
1.97006
2.02273
2.07237
2.11914
2.16312
2.20419
2.2407
1.32689
1.22285
1.10304
0.970874
0.826155
0.661678
0.46883
0.232467
-0.0640913
-0.371765
-0.742756
-1.07596
-1.45475
-0.687737
11.831
20.3915
22.5049
22.9727
24.0443
25.2126
26.0687
26.3397
26.0595
25.5584
24.9375
24.3469
25.023
29.0994
12.3727
1.55011
1.64667
1.62297
1.60676
1.58432
1.5622
1.5557
1.57363
1.6099
1.66039
1.71926
1.78115
1.84247
1.90139
1.95733
2.01038
2.06087
2.10916
2.1555
2.20023
2.24086
1.31314
1.21071
1.09441
0.967888
0.831246
0.677929
0.501611
0.29368
0.0373959
-0.216585
-0.489372
-0.751342
-0.911617
-0.680726
5.01399
22.1912
22.8484
23.2794
24.3153
25.5918
26.6654
27.1803
27.2241
26.9835
26.1206
25.2552
25.3021
20.4662
2.88287
1.67883
1.58875
1.6234
1.53735
1.53121
1.52249
1.52753
1.54886
1.58713
1.63835
1.69737
1.75921
1.82027
1.87861
1.93365
1.98575
2.03583
2.08525
2.13608
2.1919
2.24576
1.30386
1.20373
1.09162
0.971342
0.843336
0.70175
0.541724
0.360037
0.142285
-0.0687074
-0.273343
-0.480599
-0.610906
-0.66961
2.97503
19.7595
22.9623
23.9416
25.1068
26.4491
27.6684
28.3455
28.5343
28.205
27.2783
25.7059
20.0031
4.79575
1.40431
1.55527
1.53244
1.51113
1.5119
1.47523
1.48304
1.49711
1.52225
1.56281
1.61461
1.67332
1.73433
1.79394
1.84986
1.90095
1.94675
1.98698
2.02116
2.0484
2.06806
2.06516
1.29848
1.20122
1.09379
0.98013
0.860947
0.73115
0.586735
0.428095
0.243417
0.0661505
-0.103652
-0.251756
-0.350258
-0.384791
-0.136112
7.79366
20.8455
24.7746
26.4825
27.7377
28.8436
29.8287
30.7891
31.3473
30.5622
18.0739
4.04857
1.48262
1.50177
1.5036
1.50487
1.4866
1.64306
1.46478
1.47367
1.48718
1.51328
1.55085
1.60022
1.65652
1.71539
1.77308
1.82708
1.876
1.91922
1.95656
1.98803
2.01383
2.03547
2.05259
1.29645
1.20249
1.10008
0.993173
0.882717
0.764364
0.634599
0.496128
0.338841
0.190727
0.0505371
-0.0574966
-0.134577
-0.111576
-0.0365606
0.412557
7.95569
21.9266
29.3003
29.3867
29.7285
30.9286
31.8505
21.9126
6.82523
1.90739
1.32047
1.41616
1.45149
1.46421
1.51598
1.55044
1.56039
1.50606
1.49749
1.50483
1.52411
1.55569
1.59953
1.65146
1.70717
1.76288
1.81591
1.86473
1.90871
1.94778
1.98224
2.01269
2.04017
2.06427
1.29724
1.20689
1.10967
1.0095
0.90746
0.799975
0.683839
0.563441
0.429742
0.307921
0.203649
0.0992043
0.0510947
0.0838628
0.143967
0.367803
0.61599
3.37352
9.18173
16.8092
18.373
12.8297
4.90652
2.17514
1.44318
1.44277
1.39656
1.42267
1.43769
1.44879
1.4964
1.51367
1.52416
1.51856
1.51305
1.5225
1.53955
1.56809
1.60735
1.65529
1.70797
1.76183
1.81416
1.86323
1.90821
1.94887
1.98543
2.01849
2.04904
2.07647
1.30034
1.21381
1.12185
1.02823
0.934168
0.83686
0.733377
0.628644
0.517933
0.419847
0.326922
0.24642
0.214043
0.243535
0.300474
0.46161
0.622209
0.783233
0.933934
1.10257
1.20479
1.26029
1.28333
1.31573
1.34689
1.38654
1.39331
1.4162
1.43138
1.4457
1.4872
1.50173
1.51228
1.51654
1.52546
1.53585
1.55335
1.58068
1.61802
1.6635
1.71415
1.76674
1.81868
1.8682
1.91433
1.95668
1.99526
2.03071
2.0645
2.09351
1.30529
1.2227
1.13598
1.04864
0.962003
0.87408
0.782432
0.692292
0.601591
0.525688
0.454834
0.390126
0.363952
0.387681
0.44112
0.552266
0.678325
0.805402
0.921185
1.03446
1.12441
1.19404
1.25027
1.29624
1.33651
1.36874
1.39081
1.41318
1.43075
1.44531
1.48899
1.50251
1.5141
1.51859
1.53378
1.54657
1.56596
1.59376
1.63034
1.67444
1.72363
1.77518
1.82667
1.87637
1.92323
1.96682
2.00705
2.04473
2.08312
2.11941
1.31169
1.2331
1.15151
1.07008
0.990255
0.910824
0.829968
0.753156
0.679628
0.623898
0.569736
0.523178
0.500275
0.51473
0.557448
0.63885
0.737327
0.843487
0.943967
1.04278
1.12351
1.18757
1.24187
1.28874
1.32882
1.36238
1.39038
1.41582
1.43732
1.4548
1.47983
1.51043
1.53796
1.50904
1.53314
1.55588
1.57999
1.6092
1.64548
1.68832
1.73599
1.78621
1.83677
1.88596
1.93267
1.97637
2.0169
2.05482
2.09307
2.12936
1.31923
1.24462
1.16796
1.09203
1.01834
0.946437
0.875101
0.810277
0.751565
0.715327
0.685768
0.649221
0.623128
0.625054
0.65571
0.715706
0.794285
0.881698
0.968723
1.05559
1.12857
1.18801
1.24034
1.28575
1.32526
1.36005
1.39109
1.41949
1.44523
1.46904
1.48878
1.52195
1.57206
1.58013
1.57387
1.58826
1.60699
1.6327
1.66596
1.7061
1.75148
1.79992
1.84932
1.89795
1.94465
1.98881
2.0301
2.06875
2.10711
2.142
1.32763
1.25694
1.18494
1.11405
1.04579
0.980407
0.917253
0.86317
0.816461
0.797498
0.785466
0.765414
0.730829
0.720953
0.746026
0.783465
0.845699
0.917826
0.993219
1.07011
1.13668
1.19198
1.24168
1.28581
1.32499
1.3602
1.39228
1.42179
1.44868
1.47237
1.49319
1.50307
1.6599
1.66864
1.62527
1.62752
1.6388
1.6595
1.68883
1.72567
1.76832
1.81466
1.86258
1.91027
1.95644
2.00039
2.04162
2.08009
2.11811
2.15346
1.33671
1.26982
1.20214
1.13575
1.07224
1.01233
0.955833
0.909442
0.874636
0.867775
0.868179
0.858287
0.817061
0.80738
0.815011
0.842526
0.891557
0.951694
1.01734
1.08577
1.14679
1.19846
1.24564
1.28833
1.32697
1.36222
1.39479
1.42527
1.45402
1.48106
1.50654
1.52751
1.61234
1.74801
1.60741
1.62902
1.65036
1.67479
1.7048
1.74085
1.78218
1.8272
1.87404
1.92093
1.96658
2.0102
2.05138
2.09
2.12762
2.16246
1.34632
1.28308
1.21931
1.15684
1.09738
1.04196
0.990735
0.950284
0.923443
0.925228
0.933869
0.928066
0.887106
0.872988
0.869182
0.892223
0.931596
0.982469
1.04019
1.10175
1.15801
1.20649
1.25138
1.29261
1.33045
1.36538
1.39797
1.42873
1.45799
1.48583
1.51228
1.53761
1.55488
1.85538
1.62981
1.64158
1.66277
1.68683
1.71607
1.75125
1.79179
1.83624
1.88274
1.92957
1.97536
2.01922
2.06062
2.09964
2.1375
2.17098
1.35641
1.29659
1.23628
1.17713
1.12101
1.06912
1.02183
0.985384
0.96336
0.96918
0.983851
0.975547
0.943447
0.922129
0.916831
0.933225
0.965891
1.00941
1.06098
1.11717
1.16955
1.21532
1.25822
1.29803
1.33491
1.36918
1.40128
1.43162
1.4605
1.48806
1.51464
1.53959
1.56018
1.85685
1.65944
1.66619
1.68011
1.69933
1.72532
1.75851
1.79803
1.84218
1.8889
1.9363
1.9829
2.02769
2.06986
2.10941
2.14817
2.18156
1.36695
1.31029
1.25297
1.19652
1.14303
1.09377
1.04909
1.01474
0.994414
1.00135
1.0152
1.00571
0.979405
0.956428
0.952745
0.965696
0.993478
1.03216
1.07924
1.13143
1.18075
1.22439
1.26562
1.30413
1.33995
1.37331
1.40456
1.43408
1.46218
1.48898
1.51464
1.53877
1.5568
1.66171
1.65819
1.65559
1.67456
1.69648
1.72378
1.75786
1.79829
1.84352
1.89151
1.94031
1.98837
2.03474
2.07853
2.1193
2.15872
2.19227
1.37799
1.32416
1.26933
1.21499
1.16343
1.1159
1.07258
1.03859
1.01703
1.01962
1.03151
1.0212
1.00256
0.9826
0.979066
0.990316
1.01514
1.05054
1.09466
1.14395
1.19114
1.23317
1.27316
1.31054
1.34528
1.37753
1.40763
1.43596
1.46296
1.48897
1.51426
1.53917
1.56411
1.59162
1.67983
1.63738
1.65821
1.68235
1.71219
1.7488
1.79176
1.83948
1.8899
1.94102
1.99126
2.03972
2.08569
2.12844
2.16824
2.20078
1.38964
1.33824
1.28539
1.2326
1.18228
1.13563
1.09247
1.05716
1.03187
1.02724
1.03569
1.03348
1.01546
0.9985
0.996785
1.00736
1.03127
1.06437
1.10677
1.15433
1.20024
1.24135
1.28056
1.31705
1.35072
1.3817
1.41029
1.43694
1.4621
1.48625
1.50978
1.53321
1.55667
1.57648
1.69168
1.6259
1.64485
1.66793
1.69819
1.7364
1.78175
1.83225
1.88557
1.9396
1.99275
2.04413
2.09324
2.13956
2.18198
2.21585
1.40204
1.35265
1.30129
1.2495
1.19975
1.15316
1.10903
1.07073
1.03951
1.02406
1.02622
1.02702
1.01899
1.00604
1.0072
1.01721
1.04195
1.07328
1.11518
1.16217
1.20779
1.24878
1.28771
1.32364
1.35635
1.38594
1.41272
1.43713
1.45967
1.48082
1.50092
1.52061
1.53998
1.55521
1.66485
1.61345
1.62806
1.65018
1.68131
1.72157
1.76961
1.82299
1.8791
1.93567
1.99108
2.04429
2.09463
2.14146
2.18298
2.21399
1.41539
1.36758
1.31722
1.26591
1.2161
1.16876
1.12262
1.07988
1.04114
1.01426
1.00736
1.01106
1.00954
1.00684
1.0115
1.01974
1.04788
1.07688
1.12001
1.16719
1.21373
1.25548
1.29476
1.33055
1.36251
1.39072
1.41548
1.43725
1.45652
1.47378
1.48943
1.50423
1.51893
1.52814
1.62714
1.57947
1.59612
1.62225
1.65794
1.70269
1.75487
1.81178
1.87073
1.92947
1.98649
2.0408
2.09154
2.13788
2.17813
2.20799
1.42986
1.38326
1.33346
1.28213
1.23162
1.18275
1.13369
1.08535
1.0381
1.00032
0.98504
0.990685
0.99658
1.00115
1.01055
1.02509
1.07758
1.08486
1.11942
1.16958
1.21842
1.2618
1.30211
1.33827
1.3698
1.39675
1.41948
1.43843
1.45403
1.46672
1.47706
1.4861
1.49349
1.50211
1.54775
1.54171
1.5587
1.59095
1.63284
1.68346
1.74049
1.80116
1.86285
1.92351
1.98182
2.03685
2.08757
2.13292
2.17143
2.20014
1.44563
1.39993
1.3503
1.29846
1.24669
1.19551
1.14267
1.08779
1.03099
0.982664
0.971579
0.967035
0.977649
0.986734
1.00345
1.03811
1.0727
1.12885
1.11624
1.17028
1.22267
1.26848
1.31083
1.34764
1.37905
1.40504
1.42593
1.4422
1.45431
1.46263
1.4679
1.47413
1.48142
1.48418
1.49192
1.52663
1.53161
1.56925
1.61639
1.67152
1.73215
1.79543
1.85884
1.92051
1.97925
2.0341
2.08381
2.1273
2.16358
2.19091
1.46281
1.41779
1.36802
1.31527
1.26166
1.2075
1.15004
1.08794
1.02088
0.962585
0.935374
0.936506
0.947011
0.960519
0.978601
1.01557
1.05438
1.0991
1.11085
1.17034
1.22699
1.27633
1.32079
1.35935
1.39126
1.41665
1.43607
1.45003
1.45907
1.46388
1.46581
1.46965
1.47187
1.47031
1.48328
1.50081
1.52429
1.56411
1.61376
1.67104
1.73313
1.7971
1.86056
1.9218
1.97966
2.03301
2.08045
2.12122
2.15492
2.18061
1.48145
1.43697
1.38685
1.33286
1.27698
1.21916
1.15633
1.08635
1.00843
0.939374
0.901471
0.897177
0.906493
0.918613
0.955606
0.99126
1.0302
1.06356
1.10868
1.17233
1.23243
1.28515
1.33299
1.37406
1.40734
1.4327
1.45114
1.46313
1.46924
1.47016
1.46699
1.4735
1.4714
1.47239
1.48517
1.50277
1.53219
1.5726
1.62318
1.68091
1.74271
1.80571
1.86771
1.92713
1.98274
2.03318
2.07719
2.11456
2.14548
2.16929
1.50159
1.45756
1.40697
1.3515
1.29295
1.23099
1.16211
1.08352
0.992659
0.910191
0.867327
0.853518
0.85241
0.881863
0.930503
0.965477
1.00221
1.05426
1.10529
1.17309
1.23884
1.29681
1.34871
1.39228
1.42789
1.45433
1.47242
1.48316
1.48716
1.48503
1.47998
1.48119
1.47841
1.48153
1.49351
1.51452
1.54671
1.58936
1.64078
1.69816
1.75856
1.81941
1.87875
1.93509
1.98711
2.03341
2.07311
2.10673
2.13489
2.15678
1.52317
1.47956
1.42847
1.3714
1.30993
1.24344
1.16789
1.07899
0.975822
0.87695
0.828003
0.810006
0.821506
0.841356
0.897204
0.932668
0.973427
1.0364
1.09647
1.17279
1.24604
1.31027
1.36769
1.41578
1.45355
1.48228
1.50069
1.51098
1.51384
1.50982
1.50347
1.5009
1.49443
1.49846
1.51218
1.53585
1.57016
1.61408
1.66535
1.72125
1.7791
1.83665
1.89218
1.94423
1.99146
2.03271
2.06769
2.09755
2.12304
2.14292
1.54615
1.50298
1.45142
1.39276
1.32829
1.2571
1.17467
1.0756
0.959085
0.84626
0.781895
0.763363
0.767267
0.791267
0.844466
0.883328
0.942865
1.01193
1.08655
1.17196
1.25458
1.32679
1.38999
1.44334
1.48529
1.51636
1.53662
1.54677
1.54942
1.54468
1.53703
1.5349
1.52144
1.52766
1.54301
1.56831
1.60341
1.64685
1.6963
1.74919
1.80313
1.85616
1.90666
1.95324
1.99472
2.0304
2.06058
2.08673
2.10963
2.12801
1.57047
1.52778
1.47589
1.41578
1.34843
1.27259
1.1833
1.0741
0.943498
0.816144
0.728614
0.700466
0.699693
0.707935
0.792114
0.818227
0.902904
0.985119
1.07369
1.17118
1.26828
1.35051
1.42215
1.4756
1.52215
1.55573
1.57821
1.58983
1.59284
1.58797
1.5797
1.57953
1.5633
1.56938
1.58508
1.61041
1.64456
1.68577
1.73178
1.78023
1.82907
1.87652
1.92106
1.96144
1.99684
2.02712
2.05296
2.07583
2.09634
2.11347
1.59605
1.55398
1.50197
1.44068
1.37075
1.29056
1.19467
1.07538
0.930657
0.781397
0.674206
0.62682
0.60905
0.666056
0.728158
0.772563
0.861731
0.957442
1.06051
1.17814
1.28206
1.37325
1.45388
1.51464
1.56244
1.59965
1.62447
1.63842
1.64239
1.63794
1.62901
1.63082
1.61404
1.61975
1.63473
1.65859
1.69019
1.72769
1.76899
1.81204
1.855
1.89626
1.93444
1.96857
1.99827
2.0238
2.04599
2.06607
2.08438
2.09994
1.62287
1.58159
1.52978
1.46772
1.39569
1.31171
1.20981
1.08099
0.921908
0.751026
0.620253
0.553082
0.522994
0.597564
0.636924
0.722807
0.817024
0.926936
1.05184
1.1793
1.29344
1.39176
1.47829
1.54801
1.60335
1.64482
1.67298
1.68933
1.69492
1.69144
1.68232
1.68646
1.66866
1.67403
1.68755
1.70875
1.73659
1.76934
1.80515
1.84223
1.87894
1.9138
1.94569
1.97398
1.99866
2.02014
2.03919
2.0568
2.07308
2.08698
1.65091
1.61067
1.55946
1.49716
1.42372
1.33676
1.22984
1.09278
0.920278
0.731334
0.575979
0.488388
0.459246
0.526391
0.563774
0.667621
0.771156
0.901457
1.04055
1.18289
1.30777
1.41292
1.50492
1.58132
1.6424
1.68801
1.7197
1.73885
1.74646
1.74403
1.73603
1.73907
1.72346
1.72786
1.73909
1.75684
1.78018
1.80766
1.83768
1.86867
1.89916
1.92789
1.95399
1.97718
1.99764
2.01581
2.03226
2.0477
2.06212
2.07459
1.68016
1.6413
1.59117
1.5293
1.4553
1.36646
1.25588
1.11242
0.928787
0.723929
0.56934
0.470456
0.413098
0.424318
0.505597
0.606315
0.733375
0.884447
1.03305
1.18643
1.31862
1.43021
1.52764
1.60923
1.67509
1.72473
1.76004
1.7821
1.79193
1.7908
1.79048
1.78173
1.77593
1.77741
1.78535
1.79913
1.81777
1.84002
1.86449
1.88978
1.9146
1.93792
1.95916
1.97824
1.9954
2.01098
2.02535
2.03896
2.05176
2.06306
1.71064
1.67355
1.62507
1.56438
1.49083
1.40142
1.2889
1.14146
0.949633
0.732021
0.555812
0.416414
0.374314
0.371718
0.447676
0.547072
0.69331
0.858401
1.02662
1.18459
1.3248
1.4408
1.54173
1.62701
1.69661
1.75045
1.78944
1.81459
1.82697
1.8287
1.83097
1.81962
1.81578
1.81635
1.82182
1.83216
1.84673
1.86447
1.8842
1.90469
1.92482
1.94382
1.96132
1.97733
1.99206
2.00571
2.01847
2.0306
2.04207
2.05255
1.74239
1.70749
1.66125
1.60258
1.53057
1.44212
1.3297
1.18113
0.985117
0.758489
0.553069
0.407239
0.332765
0.328617
0.398436
0.505512
0.659908
0.836443
1.02558
1.18406
1.32536
1.44229
1.54411
1.63127
1.70382
1.76129
1.80395
1.83229
1.84719
1.85202
1.85544
1.84392
1.84106
1.84136
1.84554
1.85374
1.86552
1.88004
1.89629
1.91321
1.92991
1.94582
1.9607
1.9746
1.98764
1.99994
2.01158
2.02264
2.03312
2.04314
1.77542
1.74315
1.69977
1.64396
1.57468
1.48881
1.37881
1.23229
1.03679
0.803458
0.583015
0.406608
0.318258
0.297943
0.357957
0.477483
0.638815
0.821558
1.00507
1.17407
1.31711
1.4321
1.53224
1.61949
1.69394
1.7546
1.8008
1.83227
1.84962
1.85703
1.8625
1.85225
1.85091
1.85196
1.85613
1.86361
1.8741
1.88688
1.90106
1.91577
1.93031
1.94427
1.95753
1.97012
1.98211
1.99355
2.00449
2.01492
2.02485
2.03463
1.80975
1.78053
1.7406
1.68848
1.6231
1.54152
1.43645
1.29545
1.10519
0.871327
0.639022
0.448194
0.329858
0.307189
0.358279
0.472887
0.634241
0.820405
0.999896
1.16319
1.2989
1.40832
1.50461
1.59047
1.66595
1.72939
1.77893
1.81353
1.83328
1.84377
1.85145
1.84535
1.84623
1.84915
1.85465
1.86289
1.87356
1.886
1.89943
1.91313
1.92659
1.93955
1.95198
1.9639
1.97536
1.98639
1.997
2.00721
2.01696
2.02648
1.84535
1.81957
1.78361
1.73594
1.67562
1.60002
1.50249
1.37084
1.19128
0.96436
0.725799
0.529825
0.394219
0.355433
0.389268
0.493413
0.646918
0.835853
0.997063
1.1464
1.26992
1.37064
1.46133
1.54472
1.62065
1.68651
1.73925
1.77689
1.79979
1.81208
1.81944
1.82301
1.828
1.8344
1.84278
1.85325
1.86543
1.87873
1.89245
1.90606
1.91923
1.93186
1.94397
1.9556
1.96679
1.97756
1.98799
1.99813
2.00789
2.01719
1.88217
1.86014
1.8286
1.78606
1.73184
1.66385
1.57643
1.45814
1.29517
1.08467
0.865364
0.649289
0.495032
0.440466
0.449908
0.539221
0.678099
0.844579
0.99327
1.12381
1.2311
1.32074
1.4044
1.48458
1.56052
1.62847
1.68426
1.72496
1.75115
1.7683
1.77922
1.7889
1.79888
1.8101
1.82275
1.83668
1.85145
1.86648
1.88126
1.89544
1.90894
1.9218
1.93411
1.94597
1.9574
1.96836
1.97893
1.98922
1.99875
2.00684
1.9201
1.90208
1.87531
1.83845
1.79123
1.73234
1.65739
1.55621
1.41525
1.23119
1.02697
0.80938
0.638449
0.562367
0.557272
0.607508
0.729486
0.875815
0.990966
1.09731
1.18489
1.26151
1.33716
1.41373
1.48933
1.55905
1.61757
1.66117
1.69077
1.71445
1.72902
1.74516
1.76176
1.77911
1.79709
1.81535
1.83334
1.85059
1.86679
1.88188
1.89598
1.90925
1.92186
1.9339
1.94542
1.95638
1.96684
1.97699
1.9869
1.99686
1.95899
1.94516
1.9234
1.89264
1.85315
1.80461
1.74415
1.66319
1.54837
1.39214
1.19539
0.991511
0.816338
0.714018
0.677542
0.704843
0.794776
0.895992
0.989746
1.06738
1.13344
1.19618
1.26356
1.33645
1.41152
1.48266
1.54342
1.58969
1.62296
1.65142
1.67253
1.6961
1.72024
1.74455
1.76846
1.79137
1.81276
1.83234
1.8501
1.86627
1.88118
1.8951
1.90824
1.92075
1.93266
1.94398
1.9549
1.96565
1.97616
1.98625
1.99862
1.98911
1.97252
1.94813
1.91691
1.87972
1.83532
1.77694
1.69162
1.56504
1.39551
1.20177
1.02399
0.894895
0.824764
0.824886
0.865753
0.931548
0.987744
1.03379
1.07856
1.12805
1.18762
1.25701
1.33151
1.40368
1.46608
1.51478
1.55178
1.5854
1.61447
1.64592
1.67802
1.70948
1.73927
1.76663
1.79116
1.81289
1.83216
1.84951
1.86544
1.88033
1.89444
1.90796
1.92093
1.9333
1.94522
1.95699
1.96742
1.9747
2.03874
2.0336
2.02226
2.00441
1.98185
1.95667
1.92945
1.89521
1.84137
1.74907
1.60878
1.43094
1.25077
1.09931
1.00078
0.957088
0.948592
0.96811
0.982607
0.997387
1.02252
1.06061
1.11319
1.17944
1.25328
1.32608
1.38953
1.44042
1.48155
1.52109
1.55795
1.59799
1.63805
1.67631
1.71137
1.74251
1.76957
1.793
1.81348
1.83177
1.84845
1.86393
1.87847
1.89221
1.9052
1.91736
1.92888
1.94028
1.95163
1.9626
2.07904
2.0783
2.07222
2.06096
2.04719
2.03447
2.02509
2.01582
1.99429
1.9379
1.82869
1.66839
1.48727
1.3107
1.18316
1.08685
1.03291
1.00027
0.973798
0.959961
0.967994
0.99775
1.04323
1.10729
1.18053
1.25302
1.31696
1.36955
1.41578
1.46128
1.50695
1.55528
1.60267
1.64678
1.68608
1.71999
1.74882
1.77341
1.79477
1.81378
1.83109
1.8471
1.8621
1.87629
1.88976
1.90248
1.91481
1.9276
1.94025
1.95014
2.11919
2.12283
2.12196
2.11726
2.11233
2.1122
2.12086
2.13665
2.14706
2.12632
2.04835
1.90568
1.72195
1.5285
1.35773
1.21259
1.10804
1.02505
0.961225
0.923491
0.919782
0.947654
0.987875
1.04401
1.11559
1.18726
1.25107
1.30557
1.36059
1.40926
1.46401
1.51982
1.57343
1.62203
1.66418
1.69975
1.72953
1.75478
1.7767
1.79625
1.81408
1.83059
1.84606
1.86071
1.87458
1.88763
1.90017
1.91304
1.92522
1.93312
2.15883
2.16681
2.17105
2.1728
2.17665
2.189
2.21539
2.25555
2.29639
2.30871
2.25836
2.13163
1.94627
1.73548
1.52069
1.32861
1.17023
1.04095
0.94559
0.889062
0.877994
0.896503
0.940481
0.991457
1.06089
1.1306
1.19358
1.25047
1.31106
1.36752
1.43015
1.49269
1.55108
1.60252
1.64604
1.68211
1.71207
1.73746
1.75957
1.77933
1.79735
1.81398
1.8295
1.84407
1.85775
1.87046
1.88255
1.89493
1.9066
1.91381
2.1976
2.20985
2.21906
2.22709
2.23956
2.26402
2.30742
2.37044
2.43921
2.4805
2.45492
2.3413
2.16671
1.92121
1.66243
1.42521
1.21692
1.04818
0.928284
0.857211
0.840969
0.8552
0.89275
0.949541
1.01653
1.08381
1.14616
1.20898
1.27198
1.33696
1.40683
1.47457
1.53585
1.58829
1.6317
1.66725
1.69671
1.72177
1.74369
1.76332
1.78119
1.79763
1.81288
1.82712
1.8404
1.85264
1.86426
1.87625
1.88749
1.89394
2.23515
2.25158
2.26565
2.27971
2.30041
2.33645
2.39578
2.4795
2.57284
2.63872
2.63237
2.52945
2.33416
2.07213
1.78122
1.4997
1.24837
1.04827
0.909857
0.831888
0.810026
0.823269
0.861677
0.91743
0.981654
1.04666
1.10938
1.17663
1.24592
1.31972
1.39498
1.46566
1.52755
1.57913
1.6211
1.65529
1.68372
1.70806
1.72944
1.74862
1.76605
1.78202
1.79676
1.81047
1.82318
1.83482
1.84583
1.85727
1.86795
1.87342
2.27112
2.29161
2.31042
2.33027
2.35861
2.40549
2.47941
2.58119
2.69504
2.78041
2.78895
2.69091
2.49182
2.19732
1.87264
1.55298
1.26736
1.04378
0.894099
0.811135
0.787857
0.799585
0.839346
0.893638
0.955636
1.01962
1.08596
1.15745
1.23358
1.31496
1.39409
1.46531
1.52556
1.57461
1.61412
1.64634
1.67333
1.6966
1.71713
1.73554
1.75223
1.76745
1.78144
1.79438
1.80631
1.81714
1.82736
1.83808
1.84801
1.85241
2.30522
2.32958
2.35292
2.37829
2.41371
2.47033
2.5572
2.67421
2.80365
2.90365
2.91993
2.81983
2.60063
2.28972
1.93945
1.58981
1.27831
1.03816
0.880095
0.798482
0.77302
0.787057
0.825451
0.878087
0.938773
1.00344
1.07488
1.15345
1.23806
1.32364
1.40345
1.47244
1.52903
1.57432
1.61068
1.64052
1.66575
1.68764
1.707
1.72435
1.74
1.75421
1.7672
1.77915
1.79009
1.79993
1.80917
1.81899
1.82801
1.83124
2.33714
2.36516
2.39274
2.42324
2.46519
2.53023
2.62789
2.75695
2.89721
3.00616
3.02466
2.91718
2.68752
2.35382
1.98779
1.61742
1.28648
1.03607
0.875834
0.789585
0.763036
0.780672
0.818925
0.871272
0.932556
1.00229
1.08053
1.16647
1.25738
1.34456
1.42177
1.4859
1.53721
1.57792
1.61074
1.63794
1.66115
1.68138
1.69927
1.71525
1.72961
1.74257
1.75433
1.76508
1.77485
1.78353
1.79164
1.80037
1.80832
1.81035
2.36661
2.39801
2.42952
2.4647
2.51244
2.58453
2.69028
2.82801
2.97426
3.08754
3.10292
2.99248
2.73622
2.40174
2.02626
1.6443
1.2962
1.04058
0.880052
0.789838
0.76713
0.78358
0.821943
0.875621
0.941173
1.01801
1.10524
1.19875
1.29155
1.37592
1.44717
1.50439
1.54944
1.58519
1.61429
1.63868
1.65963
1.67792
1.69408
1.70844
1.72126
1.73274
1.74308
1.75247
1.7609
1.76828
1.77514
1.78264
1.78937
1.79019
2.39339
2.42784
2.46291
2.50224
2.55488
2.63251
2.74367
2.88602
3.03561
3.14551
3.15615
3.02939
2.76391
2.43638
2.06145
1.68038
1.31089
1.05606
0.886706
0.796954
0.782
0.798704
0.838663
0.897249
0.970481
1.05661
1.15112
1.248
1.33797
1.41523
1.47776
1.52681
1.56523
1.59597
1.6213
1.64273
1.66121
1.67733
1.69151
1.70403
1.71511
1.72494
1.73371
1.74158
1.74856
1.75454
1.76004
1.76618
1.7716
1.77126
2.41727
2.45438
2.49258
2.53547
2.592
2.67344
2.78735
2.9302
3.07763
3.18023
3.18471
3.04027
2.78155
2.4657
2.09827
1.71173
1.35853
1.09515
0.923677
0.834983
0.813635
0.833029
0.878683
0.94475
1.02714
1.1206
1.21822
1.31152
1.39299
1.45959
1.51181
1.55232
1.58423
1.61008
1.63163
1.64998
1.66581
1.67957
1.69158
1.70209
1.71129
1.71934
1.72642
1.73269
1.73812
1.74264
1.74672
1.75142
1.75544
1.75403
2.43807
2.47741
2.51822
2.564
2.62331
2.70665
2.82045
2.96017
3.10087
3.18956
3.18539
3.02805
2.79278
2.49401
2.13975
1.7664
1.42515
1.16201
0.988169
0.895869
0.877336
0.899815
0.951612
1.02509
1.11335
1.20813
1.30117
1.38398
1.4525
1.50643
1.548
1.58031
1.60608
1.62725
1.64506
1.66025
1.6733
1.68455
1.69426
1.70264
1.70987
1.71607
1.72139
1.72599
1.72984
1.73286
1.7355
1.73871
1.7413
1.73892
2.45564
2.49672
2.53959
2.58751
2.6484
2.73164
2.8424
2.97587
3.1081
3.18634
3.1601
3.01136
2.79914
2.52307
2.19193
1.84042
1.5161
1.25997
1.08762
0.998691
0.980162
1.00588
1.0618
1.13798
1.22444
1.31208
1.39207
1.45939
1.51279
1.55385
1.58544
1.61028
1.63041
1.64713
1.66124
1.67322
1.68342
1.69209
1.69945
1.70566
1.71086
1.71517
1.71873
1.72164
1.7239
1.72545
1.72665
1.72835
1.72953
1.72631
2.46989
2.51217
2.5565
2.60575
2.66697
2.74812
2.85309
2.97732
3.09856
3.17046
3.12528
2.98927
2.80191
2.55351
2.25262
1.93074
1.63025
1.3879
1.22272
1.13754
1.12246
1.14876
1.20277
1.27331
1.34915
1.42096
1.48296
1.53282
1.57128
1.60066
1.62349
1.64174
1.65673
1.66923
1.67973
1.68854
1.69589
1.70199
1.70699
1.71104
1.71423
1.71668
1.71848
1.71974
1.72045
1.72055
1.72036
1.7206
1.72039
1.71646
2.48076
2.5237
2.56884
2.6186
2.67888
2.75601
2.85314
2.96678
3.0742
3.13126
3.08331
2.96275
2.80114
2.58319
2.31703
2.03041
1.7599
1.53777
1.38397
1.30445
1.29107
1.31309
1.3586
1.41538
1.47316
1.52512
1.56794
1.60129
1.62671
1.64624
1.66166
1.67416
1.68447
1.69301
1.70005
1.70579
1.71039
1.71398
1.7167
1.71864
1.7199
1.72054
1.72065
1.72032
1.71955
1.71828
1.71677
1.71558
1.71405
1.70956
2.48827
2.53131
2.57661
2.62604
2.68416
2.75554
2.84347
2.94722
3.04191
3.08162
3.0299
2.93385
2.79621
2.60864
2.37853
2.12965
1.89274
1.69527
1.55596
1.4831
1.46683
1.47968
1.51088
1.54896
1.58632
1.61856
1.64419
1.66375
1.67864
1.69021
1.69946
1.70696
1.71306
1.71794
1.72174
1.72458
1.72657
1.7278
1.72835
1.7283
1.72771
1.72664
1.72516
1.72334
1.72117
1.71863
1.71589
1.71337
1.7106
1.70569
2.4925
2.53508
2.5799
2.62819
2.68301
2.74712
2.82436
2.91726
3.00833
3.02823
2.98261
2.90201
2.7856
2.62624
2.43057
2.21856
2.01553
1.84401
1.72022
1.65223
1.63045
1.63121
1.64579
1.66497
1.68368
1.69928
1.71129
1.72027
1.72705
1.73229
1.73641
1.73959
1.74194
1.7435
1.74434
1.74453
1.7441
1.74314
1.74168
1.73979
1.7375
1.73485
1.73191
1.7287
1.72526
1.72155
1.71769
1.71393
1.71003
1.70483
2.49361
2.53517
2.57889
2.62529
2.67583
2.73161
2.79749
2.87932
2.95938
2.97224
2.93159
2.86532
2.76773
2.63331
2.46846
2.28991
2.1182
1.97123
1.86201
1.79725
1.7688
1.75781
1.75735
1.76071
1.76477
1.76796
1.77006
1.77129
1.77194
1.77219
1.77206
1.77155
1.77061
1.76925
1.76745
1.76525
1.76266
1.75972
1.75645
1.75288
1.74905
1.74498
1.74071
1.73626
1.73166
1.72692
1.72206
1.71719
1.71226
1.70689
2.49179
2.53184
2.57389
2.61771
2.66318
2.71016
2.76538
2.83601
2.90509
2.91059
2.87898
2.82402
2.74212
2.62884
2.49032
2.34058
2.19612
2.07083
1.97455
1.91219
1.87788
1.85764
1.84581
1.83777
1.83163
1.82633
1.82158
1.81727
1.81333
1.80963
1.80603
1.80241
1.79869
1.7948
1.79072
1.78644
1.78195
1.77727
1.77239
1.76735
1.76215
1.75682
1.75137
1.74582
1.74021
1.73456
1.72883
1.72296
1.71714
1.7117
2.48733
2.52541
2.56527
2.60593
2.64572
2.68374
2.72889
2.78948
2.84978
2.85168
2.82533
2.77895
2.70953
2.61361
2.49693
2.37125
2.24972
2.14295
2.05806
1.99826
1.96015
1.93395
1.91475
1.89947
1.88687
1.87611
1.86679
1.85858
1.85122
1.84445
1.83806
1.83191
1.82587
1.81987
1.81386
1.80781
1.8017
1.79552
1.78926
1.78295
1.77657
1.77015
1.76368
1.75718
1.7507
1.74427
1.73779
1.73106
1.72446
1.71904
2.48052
2.51624
2.55346
2.59051
2.62416
2.65308
2.68868
2.74451
2.7926
2.7945
2.77076
2.73087
2.67136
2.58953
2.49082
2.38501
2.28257
2.19149
2.11676
2.06028
2.02075
1.9916
1.96839
1.94908
1.93275
1.91868
1.9064
1.8955
1.88564
1.87655
1.868
1.85984
1.85195
1.84424
1.83665
1.82914
1.82167
1.81424
1.80683
1.79944
1.79207
1.78473
1.77741
1.77011
1.76289
1.75581
1.74871
1.74125
1.73398
1.72866
2.47173
2.50474
2.53896
2.57204
2.5993
2.61891
2.64459
2.7006
2.73654
2.73681
2.71558
2.68072
2.62914
2.55894
2.47507
2.38576
2.29927
2.22157
2.15605
2.10373
2.06483
2.03502
2.01026
1.98914
1.97096
1.95506
1.94097
1.9283
1.91671
1.90594
1.89579
1.88611
1.87679
1.86774
1.8589
1.85022
1.84167
1.83323
1.82488
1.81661
1.80843
1.80034
1.79232
1.78437
1.77654
1.76894
1.76134
1.75327
1.74545
1.74029
2.4613
2.49135
2.52228
2.55119
2.57222
2.5828
2.60104
2.65032
2.68296
2.67925
2.66022
2.62945
2.58443
2.52401
2.45261
2.37713
2.30411
2.23792
2.18085
2.13335
2.09656
2.06766
2.04298
2.02153
2.00273
1.98603
1.97099
1.95727
1.94458
1.93269
1.92143
1.91067
1.90031
1.89027
1.88049
1.87092
1.86153
1.8523
1.84322
1.83427
1.82545
1.81676
1.80819
1.79972
1.79142
1.78341
1.77542
1.76686
1.7586
1.75365
2.44958
2.4765
2.50396
2.52862
2.54383
2.54657
2.55754
2.59881
2.62499
2.62249
2.60523
2.5779
2.53851
2.48653
2.42575
2.36203
2.30049
2.24433
2.19502
2.15272
2.119
2.09199
2.06843
2.04761
2.02903
2.01225
1.99692
1.98274
1.96947
1.95694
1.945
1.93355
1.92249
1.91176
1.90131
1.89111
1.88111
1.87131
1.86168
1.85222
1.84292
1.83379
1.8248
1.81595
1.8073
1.79898
1.79071
1.78176
1.77315
1.76846
2.43693
2.4606
2.4845
2.50494
2.51474
2.51058
2.51093
2.53774
2.56454
2.56652
2.55122
2.52683
2.4924
2.44777
2.39618
2.34254
2.29089
2.24352
2.20135
2.1644
2.13429
2.10976
2.08797
2.0684
2.05063
2.03433
2.0192
2.00503
1.99163
1.97885
1.9666
1.95478
1.94333
1.93219
1.92132
1.9107
1.9003
1.89011
1.88011
1.8703
1.86068
1.85124
1.84197
1.83285
1.82395
1.81543
1.80696
1.79773
1.78887
1.78447
2.42363
2.44402
2.46431
2.48066
2.48538
2.47494
2.46779
2.48793
2.50896
2.51171
2.4985
2.47669
2.44667
2.40855
2.36499
2.32008
2.27701
2.23742
2.20183
2.17019
2.14397
2.12224
2.10264
2.08473
2.0682
2.05278
2.03826
2.02448
2.0113
1.99862
1.98636
1.97446
1.96286
1.95155
1.94048
1.92964
1.91902
1.90861
1.8984
1.88838
1.87856
1.86894
1.8595
1.85022
1.84118
1.83254
1.82397
1.81455
1.80551
1.80142
2.40998
2.42709
2.44378
2.45614
2.4561
2.43952
2.42411
2.43545
2.45264
2.45809
2.44698
2.4277
2.40167
2.36935
2.33285
2.29556
2.25999
2.22733
2.19783
2.17137
2.14914
2.13042
2.11325
2.09729
2.0823
2.06808
2.05449
2.0414
2.02874
2.01642
2.00441
1.99266
1.98115
1.96986
1.95877
1.94789
1.93721
1.92672
1.91642
1.90632
1.89643
1.88674
1.87724
1.8679
1.85881
1.85014
1.84154
1.83201
1.82287
1.8191
2.3962
2.41011
2.42326
2.4318
2.42751
2.40542
2.38236
2.38814
2.40605
2.40643
2.39698
2.37998
2.3575
2.33037
2.30011
2.26953
2.24059
2.21418
2.19034
2.16889
2.15066
2.13504
2.12048
2.10667
2.09345
2.08068
2.06825
2.0561
2.04418
2.03246
2.0209
2.0095
1.99825
1.98715
1.9762
1.96542
1.9548
1.94435
1.93409
1.92401
1.91414
1.90448
1.89502
1.88571
1.87666
1.86804
1.8595
1.84995
1.84076
1.83734