/*--------------------------------*- C++ -*----------------------------------*\
  =========                 |
  \\      /  F ield         | OpenFOAM: The Open Source CFD Toolbox
   \\    /   O peration     | Website:  https://openfoam.org
    \\  /    A nd           | Version:  9
     \\/     M anipulation  |
\*---------------------------------------------------------------------------*/
FoamFile
{
    format      ascii;
    class       volScalarField;
    location    "0.13";
    object      p_rgh;
}
// * * * * * * * * * * * * * * * * * * * * * * * * * * * * * * * * * * * * * //

dimensions      [1 -1 -2 0 0 0 0];

internalField   nonuniform List<scalar> 
5000
(
-0.832688
-0.932585
-1.05434
-1.19555
-1.35693
-1.5501
-1.80034
-2.1367
-2.57707
-3.19322
-4.05328
-4.78649
-91.0545
-1739.66
-2243.56
-2242.16
-2242.08
-2241.77
-2241.37
-2240.91
-2240.89
-2241.46
-2242.5
-2243.68
-2244.68
-2245.29
-2245.44
-2246.03
-2245.67
-1709.19
-140.829
-1.81019
-2.16191
-1.22611
-1.01334
-0.925221
-0.843706
-0.759161
-0.673295
-0.589905
-0.511329
-0.438391
-0.371002
-0.308724
-0.251094
-0.197744
-0.148357
-0.102773
-0.0607004
-0.02341
-0.866416
-0.96955
-1.09336
-1.23511
-1.39546
-1.58459
-1.82376
-2.14008
-2.5374
-3.0459
-3.77056
-4.32322
-34.7408
-1571.6
-2243.3
-2241.73
-2241.38
-2240.83
-2240.27
-2239.66
-2239.5
-2239.98
-2240.98
-2242.13
-2243.07
-2243.58
-2243.48
-2243.5
-2242.09
-1518.47
-35.701
-1.61009
-1.99691
-1.2554
-0.894096
-0.827499
-0.767528
-0.701384
-0.629876
-0.55687
-0.485793
-0.418478
-0.355486
-0.296747
-0.241999
-0.190995
-0.143511
-0.0994589
-0.0586751
-0.0222425
-0.89428
-0.998958
-1.12288
-1.26299
-1.41999
-1.60282
-1.82769
-2.11949
-2.48217
-2.90959
-3.54696
-4.00786
-14.6052
-1249.47
-2244.27
-2241.55
-2240.63
-2239.86
-2239.13
-2238.34
-2237.98
-2238.3
-2239.21
-2240.34
-2241.28
-2241.89
-2241.99
-2240.96
-2223.06
-1020.67
-1.18577
-1.31589
-1.60692
-1.24193
-0.825259
-0.758313
-0.715127
-0.662818
-0.602021
-0.536666
-0.470904
-0.407366
-0.347189
-0.290644
-0.23765
-0.188044
-0.141656
-0.0984186
-0.0582842
-0.0220939
-0.916442
-1.0213
-1.14376
-1.28059
-1.43229
-1.60682
-1.81604
-2.08092
-2.41299
-2.78295
-3.40152
-3.81104
-5.85936
-789.579
-2207.42
-2241.04
-2239.57
-2238.72
-2237.79
-2236.8
-2236.2
-2236.25
-2236.94
-2237.87
-2238.66
-2239.27
-2239.33
-2236.51
-2048.85
-421.991
-1.0492
-1.03462
-1.01337
-1.07745
-0.821521
-0.724442
-0.689684
-0.646673
-0.592437
-0.531588
-0.468702
-0.406945
-0.347885
-0.292023
-0.239352
-0.189712
-0.14294
-0.0989595
-0.0578954
-0.0213802
-0.933227
-1.03727
-1.15708
-1.28925
-1.43397
-1.59844
-1.79129
-2.02766
-2.32423
-2.64014
-3.15155
-3.44953
-4.09878
-324.002
-2051.64
-2239.72
-2237.59
-2237.15
-2236.08
-2234.91
-2234.05
-2233.78
-2234.06
-2234.56
-2235.18
-2235.77
-2235.01
-2228.45
-1353.74
-9.58448
-1.13009
-1.48801
-1.0262
-0.823633
-0.820972
-0.729893
-0.692146
-0.652098
-0.600363
-0.541063
-0.479039
-0.417673
-0.358737
-0.302795
-0.249747
-0.19925
-0.150963
-0.104624
-0.0598918
-0.0192648
-0.945016
-1.04745
-1.16375
-1.29027
-1.42691
-1.58023
-1.75655
-1.96449
-2.22078
-2.49148
-2.84919
-3.10844
-3.42486
-31.8615
-1526.06
-2235.96
-2235.28
-2234.86
-2233.84
-2232.57
-2231.49
-2230.98
-2230.93
-2231.17
-2232.04
-2232.86
-2232
-1743.79
-246.725
-0.766468
-1.15508
-1.4856
-1.32566
-0.863521
-0.802051
-0.764476
-0.715914
-0.672774
-0.62043
-0.561002
-0.49902
-0.43791
-0.379562
-0.324512
-0.272409
-0.222335
-0.172913
-0.122081
-0.0662571
-0.0124027
-0.952338
-1.05246
-1.16458
-1.28485
-1.41286
-1.55445
-1.71447
-1.89617
-2.11416
-2.34003
-2.54466
-2.87143
-3.00682
-3.47564
-554.843
-2013.32
-2233.2
-2232.19
-2231.07
-2229.73
-2228.51
-2227.83
-2227.66
-2227.99
-2228.88
-2229.82
-1804.61
-346.834
-0.903697
-0.84698
-1.03418
-1.36719
-1.506
-0.962125
-0.793898
-0.793407
-0.743539
-0.695158
-0.642146
-0.583082
-0.521938
-0.462277
-0.406344
-0.355245
-0.309444
-0.269216
-0.235038
-0.207802
-0.188139
-0.191035
-0.955757
-1.05301
-1.16044
-1.2741
-1.39329
-1.52308
-1.6675
-1.82615
-2.01105
-2.19067
-2.36252
-2.7131
-2.69884
-3.41965
-11.2445
-903.153
-2108.51
-2229.44
-2227.73
-2226.48
-2225.37
-2224.39
-2223.44
-2222.85
-2222.86
-1597.36
-299.583
-0.805586
-0.779398
-0.894871
-1.03759
-1.377
-2.02217
-1.1446
-0.787139
-0.781308
-0.75263
-0.705863
-0.654555
-0.597899
-0.538913
-0.481178
-0.427163
-0.378239
-0.335014
-0.297678
-0.26621
-0.240403
-0.218763
-0.201644
-0.955822
-1.04978
-1.15219
-1.2591
-1.36956
-1.48791
-1.61767
-1.75615
-1.9137
-2.06293
-2.33898
-2.51632
-2.44408
-2.56832
-2.70493
-20.477
-834.114
-1910.82
-2222.95
-2222.87
-2222.53
-2221.32
-2160.3
-1803.95
-958.194
-135.914
-0.965746
-0.843057
-0.823504
-0.9147
-2.01042
-2.13727
-2.11878
-1.47455
-0.75967
-0.751809
-0.735822
-0.699571
-0.653378
-0.600988
-0.545166
-0.489417
-0.43637
-0.387541
-0.343565
-0.304495
-0.270029
-0.239581
-0.212106
-0.188002
-0.953072
-1.04342
-1.14064
-1.24082
-1.34285
-1.45034
-1.56647
-1.68687
-1.82077
-1.94451
-2.18815
-2.31635
-2.2128
-2.18311
-2.19151
-2.83904
-7.50115
-380.33
-995.046
-1345.01
-1342.41
-1117.67
-659.513
-225.398
-8.29702
-1.32243
-0.937107
-0.831251
-0.822217
-1.16867
-2.19126
-2.17129
-2.16039
-1.70417
-0.740344
-0.730298
-0.712647
-0.684715
-0.643799
-0.595212
-0.542397
-0.488498
-0.436159
-0.387082
-0.342105
-0.30144
-0.26488
-0.231823
-0.201274
-0.173843
-0.948011
-1.03454
-1.12649
-1.22012
-1.31418
-1.41149
-1.51497
-1.61971
-1.7305
-1.83021
-1.94243
-2.02147
-2.04737
-2.01773
-1.96991
-1.92816
-2.33136
-3.18676
-7.39059
-38.5841
-36.537
-12.5815
-2.42578
-1.64341
-1.20464
-0.944467
-0.861735
-0.832891
-0.820247
-1.21559
-2.1989
-2.18249
-2.1669
-1.62259
-0.725816
-0.715212
-0.696278
-0.668375
-0.631098
-0.585086
-0.534255
-0.481625
-0.429673
-0.380148
-0.334024
-0.291672
-0.253085
-0.217638
-0.18385
-0.154839
-0.941099
-1.02368
-1.11041
-1.19775
-1.28438
-1.37231
-1.46395
-1.5541
-1.64481
-1.72152
-1.79246
-1.86478
-1.89487
-1.87152
-1.81815
-1.72016
-1.63733
-1.73138
-1.92817
-1.78214
-1.6324
-1.53527
-1.31686
-1.0847
-0.955969
-0.886105
-0.856078
-0.83344
-0.816408
-1.06518
-2.19317
-2.18189
-2.16588
-1.54211
-0.71578
-0.703129
-0.682551
-0.653116
-0.616322
-0.572188
-0.52282
-0.471224
-0.419719
-0.370017
-0.323157
-0.279571
-0.239336
-0.201655
-0.163265
-0.126973
-0.932731
-1.01132
-1.09292
-1.17434
-1.25417
-1.3336
-1.41446
-1.49127
-1.5648
-1.62198
-1.71938
-1.73296
-1.75701
-1.74255
-1.69979
-1.61835
-1.51689
-1.43056
-1.35856
-1.2824
-1.19604
-1.10968
-1.03182
-0.969904
-0.920209
-0.882977
-0.854134
-0.82868
-0.807368
-0.816354
-1.77413
-2.16632
-2.13391
-1.84546
-0.713713
-0.69059
-0.667123
-0.635722
-0.599052
-0.556214
-0.508498
-0.458232
-0.407657
-0.358465
-0.311758
-0.268059
-0.227522
-0.18961
-0.151354
-0.115061
-0.923233
-0.997844
-1.0745
-1.15043
-1.22412
-1.29603
-1.36736
-1.43219
-1.4909
-1.53063
-1.61912
-1.62235
-1.63218
-1.63026
-1.63231
-1.54217
-1.44919
-1.36417
-1.27975
-1.1935
-1.11976
-1.059
-1.00509
-0.958137
-0.917714
-0.882531
-0.851398
-0.823007
-0.797322
-0.774127
-0.966643
-2.14678
-2.09694
-2.05714
-0.791234
-0.655103
-0.637667
-0.610265
-0.576626
-0.536394
-0.491027
-0.442556
-0.393145
-0.344514
-0.297815
-0.253653
-0.212362
-0.173718
-0.135354
-0.100459
-0.912868
-0.983561
-1.05556
-1.12645
-1.19471
-1.26009
-1.32325
-1.37733
-1.42404
-1.44827
-1.51772
-1.53723
-1.52251
-1.58249
-1.5863
-1.47372
-1.3953
-1.32331
-1.24795
-1.1712
-1.10457
-1.04907
-0.999141
-0.954851
-0.915572
-0.88032
-0.848243
-0.818729
-0.791852
-0.768321
-0.749631
-1.39015
-2.00105
-1.97099
-0.75811
-0.613676
-0.602674
-0.581552
-0.551803
-0.514865
-0.472194
-0.425847
-0.377923
-0.330236
-0.284061
-0.240116
-0.19888
-0.160407
-0.122396
-0.0870411
-0.901831
-0.968719
-1.0364
-1.10279
-1.1663
-1.2262
-1.28271
-1.3291
-1.36391
-1.3763
-1.43299
-1.43795
-1.43542
-1.56118
-1.5163
-1.39779
-1.34746
-1.28725
-1.22127
-1.15285
-1.09183
-1.04015
-0.992946
-0.950232
-0.911591
-0.876342
-0.84377
-0.813286
-0.78454
-0.757539
-0.732338
-0.755409
-1.72185
-1.85724
-0.885591
-0.610108
-0.588759
-0.564214
-0.533876
-0.497729
-0.456371
-0.411339
-0.364506
-0.317606
-0.271957
-0.228335
-0.187162
-0.148537
-0.11092
-0.0760835
-0.890254
-0.953499
-1.01727
-1.07973
-1.1392
-1.19462
-1.24584
-1.28629
-1.31314
-1.31864
-1.36524
-1.35343
-1.45305
-1.49369
-1.41088
-1.34628
-1.30698
-1.25462
-1.19641
-1.13485
-1.07859
-1.03011
-0.985213
-0.943984
-0.90615
-0.871218
-0.838627
-0.807868
-0.778604
-0.750768
-0.72438
-0.699803
-0.97271
-1.698
-0.961353
-0.595524
-0.574305
-0.550004
-0.520627
-0.485366
-0.444791
-0.400342
-0.353838
-0.307011
-0.261222
-0.217362
-0.175957
-0.13694
-0.0990799
-0.0655999
-0.878207
-0.938025
-0.998332
-1.05748
-1.1136
-1.16549
-1.21278
-1.24923
-1.27127
-1.29105
-1.31326
-1.30437
-1.42261
-1.4433
-1.33106
-1.30648
-1.27354
-1.22565
-1.17365
-1.11746
-1.06509
-1.01931
-0.976415
-0.9366
-0.899727
-0.865455
-0.833354
-0.803011
-0.774137
-0.746579
-0.72001
-0.695294
-0.784335
-1.67302
-0.898309
-0.568889
-0.555043
-0.535481
-0.509364
-0.476146
-0.436592
-0.39244
-0.345711
-0.298311
-0.25172
-0.206931
-0.164752
-0.125204
-0.0864425
-0.0530595
-0.865704
-0.922364
-0.979682
-1.03613
-1.08962
-1.13889
-1.18356
-1.21791
-1.23825
-1.25785
-1.27985
-1.2723
-1.38458
-1.35227
-1.28051
-1.27094
-1.24232
-1.20071
-1.15344
-1.10125
-1.05192
-1.00828
-0.967054
-0.928539
-0.892719
-0.859367
-0.828117
-0.798594
-0.770489
-0.743689
-0.718037
-0.694014
-0.714123
-1.19442
-0.946471
-0.577361
-0.558329
-0.536404
-0.508906
-0.474824
-0.434374
-0.389138
-0.34114
-0.292343
-0.244281
-0.19791
-0.154123
-0.113354
-0.073932
-0.0403786
-0.852699
-0.906534
-0.961362
-1.0157
-1.06726
-1.11479
-1.15811
-1.1921
-1.21376
-1.22213
-1.25771
-1.25972
-1.35935
-1.27581
-1.25168
-1.24114
-1.21575
-1.18018
-1.13605
-1.08676
-1.03957
-0.997539
-0.957554
-0.920169
-0.885431
-0.853181
-0.823092
-0.794754
-0.767746
-0.741738
-0.716455
-0.69159
-0.668228
-0.679997
-0.94166
-0.632455
-0.572665
-0.548546
-0.518527
-0.481908
-0.438938
-0.39121
-0.34079
-0.289675
-0.239432
-0.190967
-0.144997
-0.102253
-0.0624466
-0.0299076
-0.83909
-0.890491
-0.943334
-0.996128
-1.04645
-1.0931
-1.13625
-1.17157
-1.19692
-1.2024
-1.21902
-1.32676
-1.34414
-1.25275
-1.23198
-1.22144
-1.19748
-1.16438
-1.12198
-1.07444
-1.02851
-0.987394
-0.948188
-0.911702
-0.878026
-0.847048
-0.818458
-0.791821
-0.766655
-0.742497
-0.718968
-0.695546
-0.672139
-0.675757
-0.927507
-0.672048
-0.584028
-0.560961
-0.530554
-0.492337
-0.446982
-0.39648
-0.343159
-0.28913
-0.23598
-0.184603
-0.135491
-0.0891694
-0.0467541
-0.0128794
-0.824723
-0.874118
-0.925476
-0.977266
-1.02701
-1.0736
-1.11774
-1.15603
-1.18733
-1.20859
-1.21801
-1.3312
-1.33927
-1.23183
-1.21959
-1.20958
-1.18484
-1.15351
-1.11161
-1.06477
-1.01901
-0.978008
-0.939079
-0.903151
-0.870432
-0.840841
-0.814068
-0.78966
-0.767122
-0.745971
-0.725866
-0.706177
-0.686867
-0.7126
-0.937698
-0.748662
-0.598828
-0.576706
-0.545472
-0.505199
-0.45716
-0.403778
-0.34767
-0.291095
-0.235691
-0.182477
-0.132138
-0.0853027
-0.0437827
-0.0127792
-0.809414
-0.857226
-0.90758
-0.958891
-1.00871
-1.05604
-1.10218
-1.14492
-1.18437
-1.22846
-1.23598
-1.34503
-1.30767
-1.22004
-1.21516
-1.20509
-1.23681
-1.14795
-1.10959
-1.05783
-1.0111
-0.969345
-0.930065
-0.894277
-0.862335
-0.834161
-0.809362
-0.787574
-0.768309
-0.751049
-0.735398
-0.720594
-0.705958
-0.737769
-0.956493
-0.775751
-0.628788
-0.602672
-0.566883
-0.522114
-0.469939
-0.413024
-0.354079
-0.295331
-0.238314
-0.184005
-0.133268
-0.0869223
-0.0466765
-0.0168138
-0.792978
-0.839582
-0.88938
-0.940717
-0.991218
-1.0401
-1.08916
-1.1375
-1.18634
-1.24255
-1.29953
-1.35789
-1.24917
-1.22493
-1.21546
-1.50412
-1.95342
-1.42615
-1.10347
-1.05332
-1.00445
-0.961082
-0.920972
-0.8846
-0.853115
-0.826167
-0.803391
-0.784436
-0.768835
-0.756138
-0.745801
-0.746966
-0.780425
-0.76483
-0.902262
-0.801501
-0.664213
-0.631953
-0.590024
-0.539381
-0.482355
-0.421681
-0.359991
-0.299329
-0.241026
-0.18599
-0.135269
-0.0899236
-0.0514112
-0.0227
-0.77525
-0.820951
-0.870581
-0.922418
-0.974195
-1.02537
-1.07821
-1.13309
-1.19214
-1.26455
-1.38149
-1.38765
-1.25049
-1.23808
-1.24698
-2.01483
-1.97738
-1.9098
-1.13556
-1.05065
-0.998409
-0.957891
-0.917952
-0.877708
-0.84201
-0.81586
-0.794975
-0.778697
-0.766594
-0.758272
-0.753988
-0.809672
-0.823314
-0.782343
-0.789599
-0.821644
-0.689414
-0.651661
-0.604519
-0.549364
-0.488734
-0.425449
-0.362045
-0.300376
-0.24163
-0.186778
-0.137068
-0.0935789
-0.0573022
-0.0299742
-0.756113
-0.801132
-0.850899
-0.90365
-0.957256
-1.01142
-1.06888
-1.13098
-1.20021
-1.27869
-1.36721
-1.42923
-1.28094
-1.2631
-1.4257
-2.0347
-1.99586
-1.84357
-1.10944
-1.05
-0.997209
-0.950482
-0.906023
-0.867464
-0.83392
-0.802492
-0.782866
-0.768914
-0.759864
-0.755068
-0.759763
-0.835379
-0.832667
-0.801832
-0.750028
-0.771461
-0.694972
-0.654832
-0.605183
-0.547877
-0.485792
-0.421817
-0.358363
-0.297122
-0.239255
-0.185914
-0.13847
-0.0976983
-0.0639984
-0.0383127
-0.735502
-0.779986
-0.830102
-0.884095
-0.939975
-0.997796
-1.06062
-1.13062
-1.21012
-1.28614
-1.40358
-1.46764
-1.32068
-1.33528
-2.08586
-2.0563
-2.01737
-1.33876
-1.10955
-1.04683
-0.990003
-0.937518
-0.891432
-0.850778
-0.817481
-0.788792
-0.765835
-0.753845
-0.747744
-0.746851
-0.778503
-0.829437
-0.831539
-0.773732
-0.732287
-0.71556
-0.686298
-0.644378
-0.593794
-0.536049
-0.474252
-0.411245
-0.349249
-0.289828
-0.234221
-0.183775
-0.139769
-0.102398
-0.0714744
-0.0476623
-0.713408
-0.757438
-0.808025
-0.863495
-0.922044
-0.984009
-1.05289
-1.1315
-1.22269
-1.3102
-1.49491
-1.50852
-1.42462
-1.72335
-2.1132
-2.07939
-1.93917
-1.162
-1.11097
-1.04317
-0.977418
-0.919456
-0.867561
-0.827953
-0.794941
-0.768486
-0.744408
-0.731861
-0.727857
-0.730346
-0.789723
-0.81971
-0.822337
-0.740392
-0.721673
-0.700704
-0.668842
-0.625643
-0.574224
-0.516834
-0.456432
-0.395583
-0.336247
-0.279901
-0.227886
-0.181583
-0.14189
-0.10827
-0.0801056
-0.0582191
-0.689861
-0.73347
-0.784565
-0.841633
-0.903104
-0.969591
-1.04515
-1.13405
-1.23723
-1.34717
-1.53015
-1.5485
-1.60249
-1.79216
-2.14347
-2.10834
-1.37486
-1.17789
-1.11783
-1.04151
-0.968258
-0.904034
-0.846659
-0.798611
-0.764551
-0.738524
-0.71754
-0.702081
-0.699271
-0.704316
-0.775597
-0.797931
-0.79189
-0.714743
-0.700948
-0.677231
-0.642881
-0.598966
-0.547691
-0.491786
-0.433938
-0.376382
-0.320856
-0.268805
-0.221576
-0.18032
-0.145342
-0.115485
-0.089989
-0.0701119
-0.664918
-0.708095
-0.759651
-0.81831
-0.88278
-0.953972
-1.0364
-1.13547
-1.25205
-1.4094
-1.53578
-1.4772
-1.52335
-1.57562
-2.1931
-2.02793
-1.26949
-1.20042
-1.12579
-1.04044
-0.967143
-0.907876
-0.827146
-0.769102
-0.72736
-0.702428
-0.681683
-0.664832
-0.661815
-0.667375
-0.73392
-0.76151
-0.719207
-0.683482
-0.668097
-0.642773
-0.607662
-0.564221
-0.514767
-0.461884
-0.407946
-0.354916
-0.304408
-0.257829
-0.216353
-0.180669
-0.150492
-0.124342
-0.101441
-0.0830638
-0.638644
-0.681328
-0.733216
-0.793327
-0.860681
-0.936517
-1.02581
-1.13501
-1.2676
-1.43725
-1.49256
-1.51884
-1.52396
-1.86842
-2.2401
-1.61548
-1.3076
-1.22539
-1.13679
-1.07125
-1.03187
-0.949557
-0.870755
-0.74773
-0.687988
-0.655386
-0.635683
-0.620266
-0.616519
-0.621726
-0.678589
-0.712751
-0.649178
-0.639827
-0.624105
-0.5987
-0.564549
-0.523337
-0.477334
-0.428877
-0.380042
-0.332592
-0.28805
-0.247672
-0.212269
-0.181992
-0.156146
-0.133279
-0.112771
-0.0956365
-0.611094
-0.65317
-0.705174
-0.766462
-0.836399
-0.916582
-1.01247
-1.13177
-1.28086
-1.46432
-1.5391
-1.58857
-1.65038
-2.33036
-2.28385
-1.50284
-1.34701
-1.25147
-1.19928
-1.11994
-1.01605
-0.924858
-0.844016
-0.748926
-0.645034
-0.60769
-0.583197
-0.56957
-0.564992
-0.569522
-0.615935
-0.655293
-0.593935
-0.58752
-0.572637
-0.548557
-0.516959
-0.479457
-0.438153
-0.395105
-0.352147
-0.310891
-0.272711
-0.23858
-0.208873
-0.183346
-0.161161
-0.141079
-0.122767
-0.107208
-0.582312
-0.623595
-0.675404
-0.737466
-0.809495
-0.893476
-0.995377
-1.12424
-1.28725
-1.46032
-1.59003
-1.6581
-1.77823
-2.38141
-2.10167
-1.48477
-1.39009
-1.30203
-1.24272
-1.11569
-0.987922
-0.878461
-0.779077
-0.677755
-0.60196
-0.560448
-0.532274
-0.516019
-0.510443
-0.513968
-0.546146
-0.593756
-0.536623
-0.531239
-0.517893
-0.496438
-0.468593
-0.435842
-0.400032
-0.362953
-0.32625
-0.291381
-0.259491
-0.231201
-0.20653
-0.185047
-0.165991
-0.148385
-0.132109
-0.118201
-0.552316
-0.592549
-0.643762
-0.706059
-0.779502
-0.866459
-0.973383
-1.11046
-1.28393
-1.47582
-1.65158
-1.75616
-1.91308
-2.44361
-1.73667
-1.54307
-1.46377
-1.44493
-1.2421
-1.0287
-0.895641
-0.790368
-0.698359
-0.622432
-0.562296
-0.51545
-0.483586
-0.464433
-0.456824
-0.459317
-0.491985
-0.53482
-0.479802
-0.475425
-0.464382
-0.446388
-0.42304
-0.395562
-0.365543
-0.334553
-0.304066
-0.275338
-0.24923
-0.226042
-0.205583
-0.187415
-0.170963
-0.155528
-0.141105
-0.128628
-0.521104
-0.55996
-0.610087
-0.671958
-0.745959
-0.834803
-0.94538
-1.08884
-1.27251
-1.48818
-1.85817
-2.01577
-2.07709
-2.17102
-1.73942
-1.63565
-1.70157
-1.55741
-1.22098
-1.01525
-0.882799
-0.771124
-0.673673
-0.59208
-0.527648
-0.476917
-0.441282
-0.419218
-0.409393
-0.416281
-0.461355
-0.46989
-0.425345
-0.423863
-0.415985
-0.402136
-0.383494
-0.361242
-0.336773
-0.311483
-0.286666
-0.263346
-0.242103
-0.223022
-0.205858
-0.190278
-0.17591
-0.162305
-0.149504
-0.138198
-0.488657
-0.525747
-0.574231
-0.634916
-0.708473
-0.79788
-0.910395
-1.05786
-1.24972
-1.48486
-1.83608
-1.92076
-2.10969
-1.88115
-1.79831
-1.83733
-1.74654
-1.58139
-1.36792
-1.0411
-0.874952
-0.758569
-0.657612
-0.572324
-0.503489
-0.449189
-0.409916
-0.384765
-0.372416
-0.388372
-0.418143
-0.409764
-0.383523
-0.382948
-0.37748
-0.367136
-0.352574
-0.334825
-0.315095
-0.294614
-0.274479
-0.255478
-0.237977
-0.221966
-0.207239
-0.193591
-0.180826
-0.168695
-0.15723
-0.146753
-0.454948
-0.489847
-0.536085
-0.594757
-0.666763
-0.755221
-0.867637
-1.01627
-1.21232
-1.45333
-1.66523
-1.82364
-2.13709
-1.92095
-1.84823
-1.93207
-1.77778
-1.60123
-1.41201
-1.07782
-0.8725
-0.755133
-0.653265
-0.566106
-0.494074
-0.43626
-0.393443
-0.365111
-0.350277
-0.371081
-0.390994
-0.358481
-0.356278
-0.355974
-0.351797
-0.343599
-0.331822
-0.317298
-0.301049
-0.284127
-0.267424
-0.251519
-0.236635
-0.222738
-0.209696
-0.197397
-0.18576
-0.174699
-0.164212
-0.154201
-0.419953
-0.452222
-0.495602
-0.551413
-0.620695
-0.706566
-0.816563
-0.963147
-1.15865
-1.39354
-1.61425
-1.87692
-2.13767
-2.01458
-1.98878
-1.95803
-1.79669
-1.61395
-1.2952
-1.02439
-0.878444
-0.763321
-0.663167
-0.575921
-0.501829
-0.44104
-0.394636
-0.363168
-0.346069
-0.366827
-0.37922
-0.343706
-0.344462
-0.343415
-0.33925
-0.331761
-0.321276
-0.308498
-0.294312
-0.279603
-0.265065
-0.251103
-0.237842
-0.225253
-0.213265
-0.20182
-0.190884
-0.180454
-0.170528
-0.160749
-0.383665
-0.412881
-0.452816
-0.504936
-0.570311
-0.651894
-0.75696
-0.897979
-1.08825
-1.32211
-1.55479
-1.93877
-2.05276
-1.95235
-2.07487
-1.9604
-1.79909
-1.47451
-1.19362
-1.03026
-0.894553
-0.785128
-0.688834
-0.602978
-0.527633
-0.464297
-0.414568
-0.379957
-0.360327
-0.373845
-0.38486
-0.348067
-0.347187
-0.344266
-0.338766
-0.330521
-0.319857
-0.307418
-0.293985
-0.280284
-0.266826
-0.253859
-0.241432
-0.229509
-0.218048
-0.207025
-0.19641
-0.186199
-0.176451
-0.166935
-0.346102
-0.371884
-0.407844
-0.455507
-0.515833
-0.591429
-0.688961
-0.820612
-1.00017
-1.2271
-1.54157
-1.85629
-1.87322
-1.87248
-2.04144
-1.93756
-1.76428
-1.36898
-1.19454
-1.04512
-0.921567
-0.820843
-0.730158
-0.646764
-0.570838
-0.505216
-0.452319
-0.414667
-0.391811
-0.387941
-0.388948
-0.368442
-0.363448
-0.35705
-0.348668
-0.338204
-0.326017
-0.312725
-0.298998
-0.285388
-0.272216
-0.259587
-0.247482
-0.235849
-0.224658
-0.213889
-0.203463
-0.193324
-0.183562
-0.174257
-0.307322
-0.329348
-0.360889
-0.403424
-0.457653
-0.525635
-0.613058
-0.731349
-0.894319
-1.12645
-1.51861
-1.73481
-1.77652
-1.76675
-1.87666
-1.88931
-1.7164
-1.40997
-1.19897
-1.06586
-0.95843
-0.868779
-0.78512
-0.704941
-0.629004
-0.561291
-0.505332
-0.46462
-0.440287
-0.432777
-0.410274
-0.400594
-0.390608
-0.379389
-0.366745
-0.352811
-0.338039
-0.323006
-0.308234
-0.294047
-0.280549
-0.267693
-0.255376
-0.243515
-0.232088
-0.221129
-0.210554
-0.200267
-0.190735
-0.182648
-0.267429
-0.285445
-0.31222
-0.349076
-0.396302
-0.455192
-0.530136
-0.631317
-0.772277
-1.01143
-1.35499
-1.5725
-1.62541
-1.63746
-1.64641
-1.80118
-1.68418
-1.51348
-1.20905
-1.09044
-1.00269
-0.926055
-0.850397
-0.773825
-0.698228
-0.62857
-0.570026
-0.52643
-0.501524
-0.491179
-0.459304
-0.442368
-0.425768
-0.408422
-0.390433
-0.372182
-0.354188
-0.33694
-0.320739
-0.305647
-0.291552
-0.278278
-0.26567
-0.253625
-0.242111
-0.231151
-0.220686
-0.210535
-0.200628
-0.190662
-0.226579
-0.240402
-0.262164
-0.292925
-0.332417
-0.380955
-0.441414
-0.522373
-0.637199
-0.826138
-1.04017
-1.30007
-1.39697
-1.48346
-1.55015
-1.70117
-1.61673
-1.39669
-1.1979
-1.11834
-1.05217
-0.989419
-0.922041
-0.849144
-0.774074
-0.702934
-0.642181
-0.595932
-0.571004
-0.552448
-0.518135
-0.489465
-0.465324
-0.441016
-0.417103
-0.394192
-0.372804
-0.353229
-0.335469
-0.319294
-0.304388
-0.290466
-0.27732
-0.264817
-0.252908
-0.241583
-0.230666
-0.21991
-0.20941
-0.199316
-0.184982
-0.194495
-0.211084
-0.23547
-0.266693
-0.303885
-0.348287
-0.406661
-0.491988
-0.619331
-0.79241
-0.990572
-1.17014
-1.29998
-1.50509
-1.57743
-1.47598
-1.25758
-1.19607
-1.14988
-1.10508
-1.05558
-0.996015
-0.926627
-0.852129
-0.77996
-0.717559
-0.668904
-0.642243
-0.616486
-0.579491
-0.537681
-0.505585
-0.474124
-0.444336
-0.416975
-0.392442
-0.370717
-0.351441
-0.334089
-0.318161
-0.303273
-0.289159
-0.275644
-0.262676
-0.250306
-0.238381
-0.226609
-0.216184
-0.208899
-0.1429
-0.148038
-0.159376
-0.177226
-0.199792
-0.224974
-0.252196
-0.286434
-0.340269
-0.432576
-0.576155
-0.756935
-0.940085
-1.09681
-1.38877
-1.44103
-1.31036
-1.21393
-1.19916
-1.1843
-1.15916
-1.12107
-1.06848
-1.00223
-0.928401
-0.855593
-0.792151
-0.741276
-0.706051
-0.678817
-0.631986
-0.583647
-0.543589
-0.505335
-0.470269
-0.439137
-0.412066
-0.388644
-0.368159
-0.349874
-0.333194
-0.317713
-0.303175
-0.289427
-0.27644
-0.264278
-0.252762
-0.24136
-0.230013
-0.219037
-0.100635
-0.10138
-0.107459
-0.118721
-0.132485
-0.14521
-0.154586
-0.163864
-0.185385
-0.242265
-0.365073
-0.522975
-0.702351
-0.956347
-1.20337
-1.27083
-1.16365
-1.1797
-1.20601
-1.21977
-1.21172
-1.22944
-1.13668
-1.07242
-0.99919
-0.926699
-0.862758
-0.811122
-0.775998
-0.735873
-0.672782
-0.624402
-0.577014
-0.532896
-0.493603
-0.459687
-0.430857
-0.406267
-0.384908
-0.365896
-0.348592
-0.332578
-0.317574
-0.303384
-0.28992
-0.277196
-0.264865
-0.252075
-0.239432
-0.229534
-0.0585237
-0.0548907
-0.0557584
-0.0604594
-0.0653846
-0.0655131
-0.0568575
-0.0410625
-0.0306596
-0.0517134
-0.143972
-0.28661
-0.466424
-0.827669
-1.02376
-1.06375
-1.07142
-1.15288
-1.21661
-1.25428
-1.29548
-1.36779
-1.28128
-1.13374
-1.06217
-0.990502
-0.926695
-0.875072
-0.848108
-0.781721
-0.713707
-0.657894
-0.604287
-0.555686
-0.513535
-0.477969
-0.448186
-0.42294
-0.401017
-0.381466
-0.363641
-0.347128
-0.331652
-0.317011
-0.30314
-0.290086
-0.277543
-0.264674
-0.252496
-0.244596
-0.0169209
-0.00894945
-0.0047066
-0.00295458
0.000893746
0.0132419
0.0396374
0.0797967
0.120637
0.13295
0.0726339
-0.0532645
-0.359431
-0.628258
-0.837466
-0.871167
-1.00579
-1.13497
-1.23029
-1.29745
-1.43593
-1.41777
-1.37261
-1.18434
-1.1149
-1.0452
-0.982253
-0.933074
-0.896266
-0.82345
-0.745605
-0.683063
-0.624671
-0.573231
-0.529714
-0.493645
-0.463686
-0.438299
-0.416185
-0.39642
-0.378407
-0.361772
-0.346258
-0.331682
-0.318006
-0.3053
-0.293208
-0.280822
-0.269157
-0.261947
0.023812
0.0360585
0.0452662
0.0533012
0.0657682
0.0902239
0.13363
0.196644
0.265416
0.305468
0.278949
0.129787
-0.194863
-0.440222
-0.584668
-0.748939
-0.957052
-1.12577
-1.24565
-1.41935
-1.47317
-1.45884
-1.35545
-1.22431
-1.15731
-1.09004
-1.02887
-1.00066
-0.93555
-0.845053
-0.766965
-0.699222
-0.637945
-0.585499
-0.54209
-0.506542
-0.477079
-0.452021
-0.4301
-0.410469
-0.3926
-0.376163
-0.360917
-0.346675
-0.333397
-0.321151
-0.309529
-0.297547
-0.286301
-0.279857
0.0633161
0.0797501
0.0938234
0.107884
0.128575
0.164618
0.223954
0.307671
0.400999
0.464144
0.457921
0.319705
0.0569266
-0.175814
-0.412546
-0.672333
-0.923578
-1.12368
-1.2902
-1.48016
-1.50233
-1.48915
-1.31215
-1.25451
-1.19024
-1.12529
-1.07479
-1.03167
-0.960607
-0.85211
-0.776851
-0.706166
-0.644282
-0.592706
-0.550732
-0.516544
-0.488111
-0.463776
-0.442387
-0.423209
-0.405783
-0.389814
-0.375068
-0.361359
-0.34865
-0.337013
-0.326001
-0.314557
-0.303883
-0.298412
0.101256
0.121742
0.140555
0.160403
0.188739
0.235622
0.309544
0.411322
0.525168
0.609654
0.614667
0.51629
0.303925
-0.0326017
-0.309799
-0.617016
-0.902597
-1.12658
-1.40331
-1.49867
-1.5221
-1.44689
-1.3307
-1.27637
-1.21434
-1.15171
-1.12305
-1.05015
-0.960822
-0.854904
-0.77578
-0.704561
-0.644314
-0.595255
-0.555746
-0.523528
-0.496539
-0.473272
-0.45274
-0.434325
-0.417639
-0.402414
-0.388426
-0.375484
-0.363559
-0.352729
-0.342513
-0.331791
-0.321855
-0.317462
0.137314
0.161677
0.185012
0.210381
0.245801
0.302422
0.389292
0.5063
0.635741
0.735739
0.751204
0.651007
0.331832
0.057298
-0.230064
-0.578167
-0.889666
-1.14404
-1.42746
-1.50907
-1.5347
-1.38204
-1.34279
-1.28999
-1.22944
-1.19728
-1.13241
-1.05358
-0.93072
-0.844266
-0.764454
-0.695463
-0.638879
-0.593587
-0.557228
-0.527384
-0.502156
-0.480264
-0.460902
-0.44356
-0.427904
-0.413692
-0.400705
-0.388754
-0.377817
-0.36798
-0.358733
-0.348919
-0.339896
-0.336665
0.171195
0.199212
0.226793
0.257297
0.299245
0.364287
0.461948
0.591009
0.731253
0.840204
0.858531
0.695644
0.407507
0.155349
-0.178296
-0.548559
-0.879513
-1.15992
-1.42938
-1.51589
-1.47031
-1.38594
-1.34752
-1.29501
-1.26167
-1.20444
-1.12563
-1.02777
-0.908556
-0.821384
-0.744178
-0.680046
-0.628739
-0.588025
-0.555209
-0.528002
-0.504797
-0.484568
-0.466673
-0.450691
-0.436334
-0.423379
-0.411618
-0.400862
-0.391099
-0.382419
-0.374301
-0.365571
-0.357623
-0.355596
0.202627
0.234025
0.265535
0.300714
0.348455
0.420545
0.526293
0.664023
0.810243
0.921654
0.938461
0.672808
0.467935
0.235319
-0.137768
-0.519705
-0.867811
-1.14658
-1.42247
-1.51058
-1.39845
-1.3816
-1.34271
-1.31648
-1.2637
-1.18687
-1.09972
-0.966489
-0.872434
-0.788059
-0.716814
-0.659598
-0.614546
-0.578791
-0.549695
-0.525306
-0.504357
-0.486058
-0.469903
-0.455543
-0.442723
-0.431241
-0.420899
-0.411515
-0.403085
-0.395701
-0.388842
-0.381347
-0.374614
-0.373789
0.23137
0.265819
0.300888
0.340221
0.392861
0.47049
0.581647
0.724002
0.873445
0.981123
0.88484
0.711759
0.539312
0.274323
-0.100583
-0.481647
-0.851311
-1.1124
-1.30062
-1.40101
-1.3835
-1.36775
-1.35589
-1.30612
-1.23242
-1.14626
-1.03483
-0.914013
-0.824046
-0.746794
-0.684261
-0.635216
-0.596788
-0.566049
-0.540725
-0.519296
-0.500815
-0.484688
-0.470513
-0.457994
-0.44691
-0.437077
-0.428309
-0.420437
-0.413462
-0.407478
-0.401977
-0.395837
-0.390424
-0.390758
0.257213
0.294326
0.332517
0.375411
0.43194
0.51338
0.627288
0.770139
0.917079
1.01457
0.869699
0.724748
0.602875
0.305635
-0.0617933
-0.448332
-0.801629
-1.06506
-1.23711
-1.32866
-1.37834
-1.36773
-1.3228
-1.25637
-1.17413
-1.07785
-0.94193
-0.848544
-0.767067
-0.700471
-0.64825
-0.60774
-0.575833
-0.549979
-0.528427
-0.510075
-0.494244
-0.480486
-0.468479
-0.457972
-0.448771
-0.440715
-0.433634
-0.427373
-0.421938
-0.417419
-0.413338
-0.408641
-0.404618
-0.406031
0.279973
0.319311
0.360122
0.405903
0.465213
0.548549
0.662353
0.801979
0.942493
1.0296
0.873597
0.769891
0.634684
0.335913
-0.0183541
-0.391698
-0.732949
-0.996116
-1.17064
-1.28518
-1.32209
-1.29964
-1.24773
-1.17432
-1.08599
-0.955568
-0.856951
-0.774116
-0.705592
-0.651663
-0.610095
-0.577788
-0.552016
-0.530842
-0.513037
-0.49785
-0.484801
-0.47355
-0.463837
-0.455453
-0.44823
-0.442031
-0.436704
-0.43211
-0.428259
-0.425235
-0.422599
-0.419391
-0.416792
-0.419176
0.299507
0.340581
0.383453
0.431372
0.492267
0.575506
0.686253
0.819679
0.950322
0.923791
0.850998
0.826182
0.643003
0.366937
0.0357966
-0.315718
-0.640038
-0.896205
-1.07442
-1.19874
-1.21729
-1.19167
-1.13591
-1.05923
-0.939821
-0.844135
-0.764062
-0.69674
-0.643349
-0.602285
-0.570698
-0.545854
-0.525726
-0.509004
-0.494899
-0.482915
-0.472715
-0.464042
-0.456686
-0.450476
-0.445273
-0.440961
-0.437409
-0.434495
-0.43223
-0.43069
-0.429488
-0.427781
-0.426603
-0.429828
0.315714
0.357999
0.402325
0.451579
0.5128
0.593947
0.698909
0.823113
0.931013
0.862746
0.8195
0.827443
0.647741
0.399335
0.0984462
-0.223435
-0.523927
-0.766409
-0.935468
-1.04936
-1.07307
-1.04684
-0.984816
-0.886422
-0.8052
-0.733223
-0.671215
-0.621352
-0.582892
-0.553509
-0.530681
-0.512428
-0.497445
-0.484943
-0.474445
-0.465637
-0.45828
-0.452182
-0.447179
-0.443135
-0.439938
-0.437493
-0.435692
-0.434431
-0.433718
-0.433619
-0.433809
-0.433577
-0.433785
-0.437713
0.328547
0.371491
0.416632
0.46639
0.526666
0.603797
0.700925
0.814525
0.901054
0.825558
0.777894
0.810455
0.648925
0.430974
0.164814
-0.121799
-0.392334
-0.61482
-0.770538
-0.854368
-0.884675
-0.858664
-0.796225
-0.737044
-0.679099
-0.627098
-0.584267
-0.550916
-0.525505
-0.50597
-0.490552
-0.478049
-0.467738
-0.459197
-0.452156
-0.446419
-0.441822
-0.438226
-0.435509
-0.433567
-0.432314
-0.431674
-0.431561
-0.43189
-0.432663
-0.433933
-0.435444
-0.436631
-0.438161
-0.442649
0.338022
0.381059
0.426364
0.475795
0.533908
0.605291
0.693212
0.795712
0.790013
0.778116
0.805912
0.783598
0.645961
0.458388
0.228276
-0.0206049
-0.257564
-0.455225
-0.594662
-0.667704
-0.684095
-0.671032
-0.639538
-0.601335
-0.563933
-0.531691
-0.50606
-0.486496
-0.471608
-0.460035
-0.450792
-0.443286
-0.43719
-0.432309
-0.428506
-0.425664
-0.423677
-0.422452
-0.421902
-0.421952
-0.422538
-0.423604
-0.425084
-0.426909
-0.429076
-0.431621
-0.434359
-0.436882
-0.439649
-0.444558
0.344217
0.386789
0.431612
0.479908
0.534727
0.598831
0.676047
0.755959
0.710908
0.728605
0.833917
0.753723
0.637308
0.477955
0.282282
0.0702662
-0.132774
-0.30429
-0.42812
-0.496167
-0.517941
-0.517164
-0.502532
-0.483329
-0.464612
-0.449007
-0.436997
-0.42802