/*--------------------------------*- C++ -*----------------------------------*\
  =========                 |
  \\      /  F ield         | OpenFOAM: The Open Source CFD Toolbox
   \\    /   O peration     | Website:  https://openfoam.org
    \\  /    A nd           | Version:  9
     \\/     M anipulation  |
\*---------------------------------------------------------------------------*/
FoamFile
{
    format      ascii;
    class       surfaceScalarField;
    location    "0.13";
    object      phi;
}
// * * * * * * * * * * * * * * * * * * * * * * * * * * * * * * * * * * * * * //

dimensions      [0 3 -1 0 0 0 0];

internalField   nonuniform List<scalar> 
9850
(
-3.24438e-06
1.80422e-05
-3.30343e-06
1.85176e-05
-3.30748e-06
1.87354e-05
-3.27695e-06
1.85086e-05
-3.2617e-06
1.82738e-05
-3.27426e-06
1.85619e-05
-3.28786e-06
1.94544e-05
-3.2831e-06
2.07084e-05
-3.20527e-06
2.20032e-05
-2.8594e-06
2.22955e-05
-2.19438e-06
1.93096e-05
-1.89052e-06
1.17557e-05
-1.82495e-06
3.4406e-06
-1.99799e-06
1.18129e-06
-2.11063e-06
3.83672e-07
-2.17912e-06
3.33744e-07
-2.20606e-06
3.53837e-07
-2.20086e-06
2.7421e-07
-2.17369e-06
1.50388e-07
-2.12762e-06
2.38534e-08
-2.07705e-06
-5.99017e-08
-2.02356e-06
-8.77693e-08
-1.97743e-06
-6.28394e-08
-1.94654e-06
3.04842e-09
-1.93349e-06
8.62806e-08
-1.9392e-06
1.64287e-07
-1.96517e-06
2.2635e-07
-2.01088e-06
3.01665e-07
-2.06673e-06
4.69823e-07
-2.09682e-06
7.63782e-07
-2.03177e-06
1.25031e-06
-1.60067e-06
2.01308e-06
-9.87757e-07
3.18653e-06
-3.57973e-07
4.42464e-06
2.38483e-07
5.49992e-06
7.19655e-07
6.30787e-06
1.04341e-06
6.74784e-06
1.21732e-06
6.83451e-06
1.27999e-06
6.66071e-06
1.2766e-06
6.33837e-06
1.24269e-06
5.95777e-06
1.19926e-06
5.57408e-06
1.15542e-06
5.21237e-06
1.1133e-06
4.87915e-06
1.0722e-06
4.57254e-06
1.03091e-06
4.28844e-06
9.88653e-07
4.02325e-06
9.45202e-07
3.77448e-06
9.00764e-07
3.54005e-06
3.31451e-06
-3.18158e-06
1.81027e-05
-3.22678e-06
1.85628e-05
-3.21596e-06
1.87245e-05
-3.17029e-06
1.8463e-05
-3.13211e-06
1.82356e-05
-3.10753e-06
1.85373e-05
-3.07043e-06
1.94173e-05
-2.99962e-06
2.06376e-05
-2.84689e-06
2.18505e-05
-2.45812e-06
2.19067e-05
-1.84908e-06
1.87006e-05
-1.57192e-06
1.14785e-05
-1.64798e-06
3.51666e-06
-1.96148e-06
1.49479e-06
-2.12431e-06
5.46502e-07
-2.18796e-06
3.97391e-07
-2.20298e-06
3.6886e-07
-2.19501e-06
2.6624e-07
-2.17418e-06
1.2956e-07
-2.14053e-06
-9.80302e-09
-2.10209e-06
-9.83444e-08
-2.05904e-06
-1.3082e-07
-2.0207e-06
-1.01179e-07
-1.99437e-06
-2.32778e-08
-1.98092e-06
7.28355e-08
-1.98112e-06
1.64479e-07
-2.00222e-06
2.47449e-07
-2.05465e-06
3.541e-07
-2.13336e-06
5.4853e-07
-2.197e-06
8.2742e-07
-2.13862e-06
1.19193e-06
-1.77061e-06
1.64506e-06
-1.21593e-06
2.63185e-06
-6.38495e-07
3.84721e-06
-8.65291e-08
4.94795e-06
3.8634e-07
5.835e-06
7.32893e-07
6.40129e-06
9.43732e-07
6.62367e-06
1.04146e-06
6.56299e-06
1.06305e-06
6.31678e-06
1.04328e-06
5.97754e-06
1.00639e-06
5.61097e-06
9.6539e-07
5.25337e-06
9.25253e-07
4.91929e-06
8.8671e-07
4.61109e-06
8.48968e-07
4.32618e-06
8.11136e-07
4.06108e-06
7.72741e-07
3.81288e-06
7.33744e-07
3.57904e-06
3.3552e-06
-3.12005e-06
1.81542e-05
-3.15138e-06
1.85941e-05
-3.12754e-06
1.87007e-05
-3.06927e-06
1.84047e-05
-3.01131e-06
1.81776e-05
-2.95512e-06
1.84811e-05
-2.87721e-06
1.93394e-05
-2.75485e-06
2.05152e-05
-2.54554e-06
2.16411e-05
-2.13824e-06
2.14994e-05
-1.50954e-06
1.80719e-05
-1.10547e-06
1.10745e-05
-1.48112e-06
3.89231e-06
-1.95678e-06
1.97045e-06
-2.1446e-06
7.34327e-07
-2.18975e-06
4.42532e-07
-2.18611e-06
3.65226e-07
-2.17579e-06
2.55918e-07
-2.16401e-06
1.17777e-07
-2.14633e-06
-2.74829e-08
-2.12448e-06
-1.20194e-07
-2.09704e-06
-1.58256e-07
-2.07167e-06
-1.26544e-07
-2.05721e-06
-3.77415e-08
-2.05416e-06
6.97838e-08
-2.06079e-06
1.7111e-07
-2.08427e-06
2.70926e-07
-2.13319e-06
4.03024e-07
-2.20263e-06
6.17973e-07
-2.2551e-06
8.79883e-07
-2.13544e-06
1.07228e-06
-1.82329e-06
1.33291e-06
-1.38401e-06
2.19258e-06
-8.57853e-07
3.32105e-06
-3.49655e-07
4.43976e-06
1.00434e-07
5.38491e-06
4.51017e-07
6.0507e-06
6.83784e-07
6.39091e-06
8.08618e-07
6.43815e-06
8.53041e-07
6.27236e-06
8.48178e-07
5.9824e-06
8.1906e-07
5.64008e-06
7.81385e-07
5.29104e-06
7.42768e-07
4.95791e-06
7.05682e-07
4.64817e-06
6.7015e-07
4.36171e-06
6.35482e-07
4.09575e-06
6.01116e-07
3.84725e-06
5.66686e-07
3.61347e-06
3.39258e-06
-3.06021e-06
1.81953e-05
-3.07786e-06
1.86118e-05
-3.04283e-06
1.86657e-05
-2.97464e-06
1.83365e-05
-2.90072e-06
1.81037e-05
-2.81924e-06
1.83996e-05
-2.71085e-06
1.9231e-05
-2.55356e-06
2.03579e-05
-2.30599e-06
2.13936e-05
-1.90245e-06
2.10959e-05
-1.30319e-06
1.74726e-05
-8.49305e-07
1.06206e-05
-1.20524e-06
4.24824e-06
-1.86245e-06
2.62766e-06
-2.10308e-06
9.74954e-07
-2.14621e-06
4.85665e-07
-2.13716e-06
3.56178e-07
-2.13499e-06
2.53748e-07
-2.13809e-06
1.20871e-07
-2.13962e-06
-2.59519e-08
-2.13826e-06
-1.21546e-07
-2.13154e-06
-1.64983e-07
-2.12326e-06
-1.3482e-07
-2.1261e-06
-3.49055e-08
-2.14628e-06
8.99717e-08
-2.17819e-06
2.03016e-07
-2.21548e-06
3.0821e-07
-2.25088e-06
4.3843e-07
-2.22791e-06
5.95002e-07
-2.1948e-06
8.46769e-07
-1.99972e-06
8.77212e-07
-1.71982e-06
1.053e-06
-1.38933e-06
1.86209e-06
-9.90802e-07
2.92252e-06
-5.54645e-07
4.0036e-06
-1.45654e-07
4.97592e-06
1.92479e-07
5.71257e-06
4.33703e-07
6.14968e-06
5.77422e-07
6.29443e-06
6.41636e-07
6.20814e-06
6.51952e-07
5.97209e-06
6.32059e-07
5.65997e-06
5.9886e-07
5.32424e-06
5.61928e-07
4.99484e-06
5.25336e-07
4.68476e-06
4.89965e-07
4.39708e-06
4.55303e-07
4.13041e-06
4.2051e-07
3.88204e-06
3.8529e-07
3.64869e-06
3.42427e-06
-3.00194e-06
1.82252e-05
-3.00649e-06
1.86163e-05
-2.96232e-06
1.86215e-05
-2.88701e-06
1.82612e-05
-2.80117e-06
1.80179e-05
-2.70076e-06
1.82992e-05
-2.57121e-06
1.91014e-05
-2.39472e-06
2.01814e-05
-2.133e-06
2.11319e-05
-1.75547e-06
2.07184e-05
-1.29911e-06
1.70163e-05
-9.40344e-07
1.02618e-05
-1.19469e-06
4.50259e-06
-1.59464e-06
3.02761e-06
-1.90925e-06
1.28956e-06
-2.01223e-06
5.88645e-07
-2.03984e-06
3.83796e-07
-2.06599e-06
2.79892e-07
-2.09097e-06
1.45853e-07
-2.11398e-06
-2.94626e-09
-2.13626e-06
-9.9263e-08
-2.15504e-06
-1.46202e-07
-2.16521e-06
-1.24652e-07
-2.18023e-06
-1.98854e-08
-2.21838e-06
1.28123e-07
-2.27129e-06
2.55921e-07
-2.30873e-06
3.45656e-07
-2.28114e-06
4.10842e-07
-2.16524e-06
4.79101e-07
-2.03521e-06
7.16731e-07
-1.87674e-06
7.18742e-07
-1.68697e-06
8.63231e-07
-1.42101e-06
1.59613e-06
-1.09654e-06
2.59805e-06
-7.34997e-07
3.64206e-06
-3.72616e-07
4.61354e-06
-5.52186e-08
5.39517e-06
1.85996e-07
5.90847e-06
3.42615e-07
6.13781e-06
4.24136e-07
6.12662e-06
4.50082e-07
5.94614e-06
4.41483e-07
5.66858e-06
4.15231e-07
5.3505e-06
3.82216e-07
5.02785e-06
3.4804e-07
4.71894e-06
3.14815e-07
4.43031e-06
2.82909e-07
4.16231e-06
2.52284e-07
3.91267e-06
2.24497e-07
3.67648e-06
3.43261e-06
-2.94492e-06
1.82434e-05
-2.93736e-06
1.86088e-05
-2.88617e-06
1.85703e-05
-2.80643e-06
1.81815e-05
-2.71254e-06
1.7924e-05
-2.59914e-06
1.81858e-05
-2.45657e-06
1.89588e-05
-2.27376e-06
1.99986e-05
-2.02084e-06
2.08789e-05
-1.69926e-06
2.03968e-05
-1.38801e-06
1.6705e-05
-1.18999e-06
1.00638e-05
-1.20999e-06
4.52258e-06
-1.3403e-06
3.15792e-06
-1.62545e-06
1.57471e-06
-1.81271e-06
7.75913e-07
-1.90611e-06
4.77189e-07
-1.97195e-06
3.45733e-07
-2.02025e-06
1.94155e-07
-2.06439e-06
4.11907e-08
-2.11262e-06
-5.10257e-08
-2.1615e-06
-9.73246e-08
-2.19172e-06
-9.44341e-08
-2.20535e-06
-6.25464e-09
-2.23028e-06
1.53054e-07
-2.26682e-06
2.9246e-07
-2.26425e-06
3.43084e-07
-2.16845e-06
3.15044e-07
-1.91701e-06
2.27662e-07
-1.76966e-06
5.69381e-07
-1.69972e-06
6.48802e-07
-1.64302e-06
8.06532e-07
-1.45412e-06
1.40723e-06
-1.21722e-06
2.36115e-06
-9.18225e-07
3.34306e-06
-5.99857e-07
4.29517e-06
-3.05939e-07
5.10125e-06
-6.76588e-08
5.67019e-06
9.90793e-08
5.97108e-06
1.96739e-07
6.02896e-06
2.39219e-07
5.90366e-06
2.44319e-07
5.66347e-06
2.28023e-07
5.36679e-06
2.01771e-07
5.05411e-06
1.72157e-07
4.74855e-06
1.4199e-07
4.46048e-06
1.11648e-07
4.19265e-06
8.02837e-08
3.94403e-06
4.85727e-08
3.70819e-06
3.42297e-06
-2.88879e-06
1.82503e-05
-2.87049e-06
1.85905e-05
-2.81431e-06
1.85141e-05
-2.73258e-06
1.80997e-05
-2.63415e-06
1.78255e-05
-2.51293e-06
1.80646e-05
-2.36383e-06
1.88097e-05
-2.18297e-06
1.98178e-05
-1.95148e-06
2.06474e-05
-1.67965e-06
2.0125e-05
-1.46268e-06
1.64881e-05
-1.40034e-06
1.00015e-05
-1.34652e-06
4.46877e-06
-1.60355e-06
3.41495e-06
-1.46628e-06
1.43744e-06
-1.63096e-06
9.40591e-07
-1.77642e-06
6.22654e-07
-1.86831e-06
4.37623e-07
-1.92785e-06
2.53687e-07
-1.98998e-06
1.03321e-07
-2.063e-06
2.20023e-08
-2.1431e-06
-1.72305e-08
-2.20116e-06
-3.63684e-08
-2.21983e-06
1.24146e-08
-2.21602e-06
1.49238e-07
-2.22151e-06
2.97954e-07
-2.19684e-06
3.18416e-07
-2.09511e-06
2.13314e-07
-2.05239e-06
1.84934e-07
-1.86187e-06
3.78866e-07
-1.74253e-06
5.29463e-07
-1.70046e-06
7.64464e-07
-1.66107e-06
1.36783e-06
-1.43029e-06
2.13037e-06
-1.14421e-06
3.05699e-06
-8.46114e-07
3.99707e-06
-5.6505e-07
4.82019e-06
-3.28904e-07
5.43404e-06
-1.53389e-07
5.79556e-06
-4.05604e-08
5.91613e-06
1.88168e-08
5.84429e-06
3.93496e-08
5.64294e-06
3.57604e-08
5.37038e-06
1.97561e-08
5.07011e-06
-8.93217e-10
4.7692e-06
-2.17902e-08
4.48137e-06
-4.07483e-08
4.21161e-06
-5.66115e-08
3.95989e-06
-6.65205e-08
3.7181e-06
3.37793e-06
-2.8333e-06
1.82468e-05
-2.80596e-06
1.85631e-05
-2.74671e-06
1.84549e-05
-2.66506e-06
1.80181e-05
-2.56508e-06
1.77256e-05
-2.4403e-06
1.79398e-05
-2.2893e-06
1.86587e-05
-2.11366e-06
1.96421e-05
-1.90238e-06
2.04362e-05
-1.66744e-06
1.989e-05
-1.50099e-06
1.63216e-05
-1.54185e-06
1.00423e-05
-1.66763e-06
4.59454e-06
-1.48077e-06
3.22808e-06
-1.55719e-06
1.51386e-06
-1.56609e-06
9.49491e-07
-1.68651e-06
7.43076e-07
-1.76353e-06
5.14642e-07
-1.8178e-06
3.0795e-07
-1.8955e-06
1.81024e-07
-1.98675e-06
1.13253e-07
-2.08448e-06
8.05047e-08
-2.17636e-06
5.55037e-08
-2.23437e-06
7.04282e-08
-2.27238e-06
1.8725e-07
-2.26182e-06
2.87388e-07
-2.19028e-06
2.46875e-07
-2.11929e-06
1.42325e-07
-2.05945e-06
1.25095e-07
-1.91577e-06
2.35187e-07
-1.80833e-06
4.2202e-07
-1.8162e-06
7.7234e-07
-1.81905e-06
1.37068e-06
-1.63747e-06
1.9488e-06
-1.37212e-06
2.79163e-06
-1.08813e-06
3.71308e-06
-8.18748e-07
4.55081e-06
-5.86605e-07
5.2019e-06
-4.06061e-07
5.61502e-06
-2.8147e-07
5.79154e-06
-2.07422e-07
5.77024e-06
-1.72517e-07
5.60804e-06
-1.6383e-07
5.36169e-06
-1.70184e-07
5.07646e-06
-1.83541e-07
4.78256e-06
-1.98994e-07
4.49683e-06
-2.14079e-07
4.2267e-06
-2.28182e-07
3.974e-06
-2.41696e-07
3.73162e-06
3.37111e-06
-2.77842e-06
1.82346e-05
-2.74401e-06
1.85287e-05
-2.68341e-06
1.83943e-05
-2.60353e-06
1.79382e-05
-2.50444e-06
1.76265e-05
-2.37947e-06
1.78149e-05
-2.22982e-06
1.85091e-05
-2.06039e-06
1.94727e-05
-1.86404e-06
2.02398e-05
-1.6529e-06
1.96789e-05
-1.51531e-06
1.6184e-05
-1.57816e-06
1.01052e-05
-1.66844e-06
4.68482e-06
-1.5438e-06
3.10345e-06
-1.62318e-06
1.59324e-06
-1.7106e-06
1.03691e-06
-1.61486e-06
6.47338e-07
-1.64363e-06
5.43411e-07
-1.70445e-06
3.68766e-07
-1.79966e-06
2.7624e-07
-1.89497e-06
2.08564e-07
-1.98178e-06
1.67313e-07
-2.06859e-06
1.42313e-07
-2.17119e-06
1.73027e-07
-2.24718e-06
2.63243e-07
-2.37837e-06
4.1858e-07
-2.24835e-06
1.16848e-07
-2.11103e-06
5.0091e-09
-1.97646e-06
-9.47919e-09
-1.84722e-06
1.0595e-07
-1.84053e-06
4.15325e-07
-1.8815e-06
8.13313e-07
-1.82873e-06
1.31791e-06
-1.72442e-06
1.84449e-06
-1.52722e-06
2.59443e-06
-1.28378e-06
3.46965e-06
-1.04015e-06
4.30718e-06
-8.21549e-07
4.9833e-06
-6.44179e-07
5.43765e-06
-5.14657e-07
5.66202e-06
-4.31044e-07
5.68662e-06
-3.8525e-07
5.56224e-06
-3.66665e-07
5.34311e-06
-3.65249e-07
5.07505e-06
-3.73222e-07
4.79053e-06
-3.85468e-07
4.50907e-06
-3.99197e-07
4.24043e-06
-4.13602e-07
3.9884e-06
-4.29052e-07
3.74706e-06
3.36995e-06
-2.72433e-06
1.82162e-05
-2.68502e-06
1.84894e-05
-2.62457e-06
1.83338e-05
-2.54772e-06
1.78614e-05
-2.45148e-06
1.75302e-05
-2.32916e-06
1.76925e-05
-2.18358e-06
1.83635e-05
-2.02207e-06
1.93112e-05
-1.83647e-06
2.00542e-05
-1.64024e-06
1.94826e-05
-1.52182e-06
1.60656e-05
-1.55457e-06
1.01379e-05
-1.59932e-06
4.72957e-06
-1.47639e-06
2.98052e-06
-1.67978e-06
1.79662e-06
-1.66993e-06
1.02706e-06
-1.4685e-06
4.4591e-07
-1.55641e-06
6.31322e-07
-1.65291e-06
4.65265e-07
-1.7506e-06
3.73923e-07
-1.81541e-06
2.73381e-07
-1.86413e-06
2.16026e-07
-1.94798e-06
2.26169e-07
-2.08157e-06
3.06615e-07
-2.16637e-06
3.48044e-07
-2.10539e-06
3.57601e-07
-2.07164e-06
8.30938e-08
-2.01711e-06
-4.95209e-08
-1.97805e-06
-4.85433e-08
-1.97633e-06
1.04233e-07
-1.96934e-06
4.08333e-07
-1.93573e-06
7.79707e-07
-1.85451e-06
1.23669e-06
-1.77404e-06
1.76401e-06
-1.63111e-06
2.4515e-06
-1.43587e-06
3.27441e-06
-1.22491e-06
4.09621e-06
-1.02698e-06
4.78537e-06
-8.59695e-07
5.27036e-06
-7.31796e-07
5.53412e-06
-6.44079e-07
5.59891e-06
-5.91408e-07
5.50957e-06
-5.65555e-07
5.31726e-06
-5.57909e-07
5.0674e-06
-5.61254e-07
4.79388e-06
-5.7044e-07
4.51826e-06
-5.82363e-07
4.25235e-06
-5.95772e-07
4.00181e-06
-6.09838e-07
3.76113e-06
3.36903e-06
-2.67151e-06
1.81942e-05
-2.62948e-06
1.84474e-05
-2.57041e-06
1.82748e-05
-2.49751e-06
1.77885e-05
-2.40567e-06
1.74384e-05
-2.28843e-06
1.75753e-05
-2.14946e-06
1.82245e-05
-1.99662e-06
1.91584e-05
-1.82347e-06
1.98811e-05
-1.64067e-06
1.92998e-05
-1.52418e-06
1.59491e-05
-1.51421e-06
1.0128e-05
-1.52678e-06
4.74214e-06
-1.42091e-06
2.87466e-06
-1.59072e-06
1.96644e-06
-1.68291e-06
1.11924e-06
-1.68299e-06
4.45996e-07
-1.62852e-06
5.76856e-07
-1.66192e-06
4.98659e-07
-1.74389e-06
4.55897e-07
-1.81166e-06
3.41146e-07
-1.87692e-06
2.81287e-07
-1.95449e-06
3.03741e-07
-2.02307e-06
3.75193e-07
-2.04987e-06
3.74844e-07
-1.9966e-06
3.04335e-07
-1.99946e-06
8.59485e-08
-2.02126e-06
-2.77202e-08
-2.0574e-06
-1.24018e-08
-2.09548e-06
1.42306e-07
-2.08778e-06
4.00634e-07
-2.00831e-06
7.0024e-07
-1.88871e-06
1.11709e-06
-1.7986e-06
1.67391e-06
-1.69882e-06
2.35173e-06
-1.55294e-06
3.12853e-06
-1.37913e-06
3.9224e-06
-1.20571e-06
4.61195e-06
-1.05266e-06
5.11731e-06
-9.30709e-07
5.41217e-06
-8.42962e-07
5.51116e-06
-7.86741e-07
5.45335e-06
-7.56004e-07
5.28652e-06
-7.43705e-07
5.0551e-06
-7.43539e-07
4.79371e-06
-7.50827e-07
4.52555e-06
-7.6275e-07
4.26427e-06
-7.78238e-07
4.0173e-06
-7.91755e-07
3.77465e-06
3.35137e-06
-2.62062e-06
1.81714e-05
-2.57799e-06
1.84048e-05
-2.52123e-06
1.8218e-05
-2.4528e-06
1.772e-05
-2.36654e-06
1.73521e-05
-2.25648e-06
1.74652e-05
-2.12683e-06
1.80949e-05
-1.98502e-06
1.90166e-05
-1.82542e-06
1.97215e-05
-1.65086e-06
1.91253e-05
-1.52302e-06
1.58213e-05
-1.46703e-06
1.0072e-05
-1.47615e-06
4.75126e-06
-1.43306e-06
2.83157e-06
-1.55341e-06
2.08678e-06
-1.69599e-06
1.26181e-06
-1.7987e-06
5.48707e-07
-1.76574e-06
5.43899e-07
-1.78076e-06
5.13676e-07
-1.83296e-06
5.08097e-07
-1.87926e-06
3.87447e-07
-1.91216e-06
3.14183e-07
-1.93322e-06
3.24804e-07
-1.9433e-06
3.85271e-07
-1.94105e-06
3.72591e-07
-1.92325e-06
2.86538e-07
-1.972e-06
1.34696e-07
-2.04918e-06
4.9459e-08
-2.1185e-06
5.69256e-08
-2.14863e-06
1.72434e-07
-2.1328e-06
3.84804e-07
-2.0469e-06
6.14334e-07
-1.9049e-06
9.75092e-07
-1.81648e-06
1.58548e-06
-1.74916e-06
2.2844e-06
-1.64593e-06
3.0253e-06
-1.50923e-06
3.78569e-06
-1.36203e-06
4.46476e-06
-1.22539e-06
4.98068e-06
-1.112e-06
5.29878e-06
-1.02685e-06
5.42601e-06
-9.69235e-07
5.39574e-06
-9.34882e-07
5.25217e-06
-9.1804e-07
5.03826e-06
-9.13079e-07
4.78875e-06
-9.15401e-07
4.52787e-06
-9.21755e-07
4.27063e-06
-9.29809e-07
4.02535e-06
-9.298e-07
3.77464e-06
3.3111e-06
-2.57249e-06
1.81505e-05
-2.53112e-06
1.83634e-05
-2.47726e-06
1.81641e-05
-2.41345e-06
1.76562e-05
-2.3336e-06
1.72723e-05
-2.23248e-06
1.73641e-05
-2.11465e-06
1.7977e-05
-1.98626e-06
1.88882e-05
-1.83979e-06
1.9575e-05
-1.66935e-06
1.89548e-05
-1.52947e-06
1.56814e-05
-1.43553e-06
9.97802e-06
-1.45943e-06
4.77516e-06
-1.47939e-06
2.85153e-06
-1.55522e-06
2.16262e-06
-1.65866e-06
1.36525e-06
-1.79098e-06
6.81025e-07
-1.80329e-06
5.56208e-07
-1.82046e-06
5.30842e-07
-1.84181e-06
5.29448e-07
-1.85895e-06
4.04592e-07
-1.88904e-06
3.44266e-07
-1.90391e-06
3.3968e-07
-1.88875e-06
3.70109e-07
-1.87457e-06
3.58412e-07
-1.88581e-06
2.97779e-07
-1.96174e-06
2.10619e-07
-2.07221e-06
1.59934e-07
-2.18522e-06
1.69929e-07
-2.27166e-06
2.58879e-07
-2.31063e-06
4.23766e-07
-2.26765e-06
5.71356e-07
-2.13349e-06
8.40938e-07
-1.97515e-06
1.42714e-06
-1.85982e-06
2.16908e-06
-1.75353e-06
2.91901e-06
-1.63297e-06
3.66514e-06
-1.50442e-06
4.3362e-06
-1.38237e-06
4.85863e-06
-1.27805e-06
5.19446e-06
-1.19702e-06
5.34498e-06
-1.13976e-06
5.33848e-06
-1.10334e-06
5.21574e-06
-1.08314e-06
5.01807e-06
-1.07433e-06
4.77993e-06
-1.07272e-06
4.52626e-06
-1.07529e-06
4.27319e-06
-1.07956e-06
4.02962e-06
-1.07644e-06
3.77153e-06
3.28362e-06
-2.52799e-06
1.81339e-05
-2.48938e-06
1.83248e-05
-2.43862e-06
1.81134e-05
-2.37921e-06
1.75968e-05
-2.30622e-06
1.71993e-05
-2.2155e-06
1.72734e-05
-2.11178e-06
1.78733e-05
-1.99976e-06
1.87761e-05
-1.8681e-06
1.94433e-05
-1.7052e-06
1.87919e-05
-1.55065e-06
1.55268e-05
-1.42974e-06
9.85711e-06
-1.47934e-06
4.82476e-06
-1.54715e-06
2.91933e-06
-1.59214e-06
2.20761e-06
-1.648e-06
1.42111e-06
-1.75901e-06
7.92036e-07
-1.80034e-06
5.97534e-07
-1.82087e-06
5.51369e-07
-1.83004e-06
5.38619e-07
-1.83936e-06
4.13911e-07
-1.85956e-06
3.64468e-07
-1.86877e-06
3.48888e-07
-1.85537e-06
3.56712e-07
-1.84649e-06
3.49536e-07
-1.86841e-06
3.19699e-07
-1.93953e-06
2.81729e-07
-2.04499e-06
2.65401e-07
-2.16561e-06
2.90552e-07
-2.27883e-06
3.72096e-07
-2.34534e-06
4.90271e-07
-2.36168e-06
5.87702e-07
-2.21848e-06
6.97732e-07
-2.0535e-06
1.26216e-06
-1.93955e-06
2.05513e-06
-1.843e-06
2.82246e-06
-1.73933e-06
3.56146e-06
-1.62915e-06
4.22603e-06
-1.52247e-06
4.75195e-06
-1.42885e-06
5.10083e-06
-1.35402e-06
5.27015e-06
-1.29939e-06
5.28385e-06
-1.2632e-06
5.17956e-06
-1.24198e-06
4.99684e-06
-1.23182e-06
4.76977e-06
-1.22924e-06
4.52368e-06
-1.23156e-06
4.27551e-06
-1.23577e-06
4.03382e-06
-1.23045e-06
3.76621e-06
3.25711e-06
-2.48806e-06
1.81232e-05
-2.45311e-06
1.82898e-05
-2.40524e-06
1.80655e-05
-2.34967e-06
1.75413e-05
-2.28362e-06
1.71332e-05
-2.20448e-06
1.71942e-05
-2.11709e-06
1.77859e-05
-2.0251e-06
1.86842e-05
-1.91248e-06
1.93307e-05
-1.76313e-06
1.86426e-05
-1.59737e-06
1.53611e-05
-1.4637e-06
9.72345e-06
-1.54087e-06
4.90193e-06
-1.63358e-06
3.01204e-06
-1.64504e-06
2.21908e-06
-1.66244e-06
1.43851e-06
-1.74704e-06
8.76636e-07
-1.80495e-06
6.55447e-07
-1.83589e-06
5.82305e-07
-1.84618e-06
5.4891e-07
-1.85105e-06
4.18781e-07
-1.85941e-06
3.72829e-07
-1.85946e-06
3.48935e-07
-1.84665e-06
3.43902e-07
-1.83783e-06
3.40719e-07
-1.85131e-06
3.3318e-07
-1.89604e-06
3.26458e-07
-1.96408e-06
3.33433e-07
-2.03904e-06
3.65512e-07
-2.0957e-06
4.28755e-07
-2.11415e-06
5.08723e-07
-2.10356e-06
5.77112e-07
-2.1201e-06
7.14275e-07
-1.98425e-06
1.12631e-06
-1.93e-06
2.00088e-06
-1.88003e-06
2.7725e-06
-1.81087e-06
3.4923e-06
-1.72726e-06
4.14242e-06
-1.6408e-06
4.66549e-06
-1.5617e-06
5.02173e-06
-1.49622e-06
5.20466e-06
-1.44676e-06
5.2344e-06
-1.41274e-06
5.14553e-06
-1.39177e-06
4.97587e-06
-1.3808e-06
4.75881e-06
-1.37694e-06
4.51983e-06
-1.37748e-06
4.27605e-06
-1.37788e-06
4.03422e-06
-1.36567e-06
3.754e-06
3.22859e-06
-2.45353e-06
1.81191e-05
-2.42255e-06
1.82589e-05
-2.37686e-06
1.80198e-05
-2.32423e-06
1.74886e-05
-2.26487e-06
1.70739e-05
-2.19817e-06
1.71275e-05
-2.12893e-06
1.77167e-05
-2.05897e-06
1.86142e-05
-1.97052e-06
1.92423e-05
-1.83754e-06
1.85096e-05
-1.66749e-06
1.5191e-05
-1.53216e-06
9.58811e-06
-1.60939e-06
4.97917e-06
-1.69684e-06
3.09949e-06
-1.67653e-06
2.19877e-06
-1.68869e-06
1.45067e-06
-1.76221e-06
9.50157e-07
-1.83039e-06
7.23632e-07
-1.87323e-06
6.25144e-07
-1.89015e-06
5.65823e-07
-1.89175e-06
4.20389e-07
-1.88751e-06
3.68583e-07
-1.87485e-06
3.36272e-07
-1.85458e-06
3.23636e-07
-1.83685e-06
3.22989e-07
-1.8329e-06
3.29227e-07
-1.84847e-06
3.42029e-07
-1.88064e-06
3.65608e-07
-1.92126e-06
4.06129e-07
-1.96234e-06
4.69836e-07
-2.01132e-06
5.57699e-07
-2.10131e-06
6.67103e-07
-2.21379e-06
8.2676e-07
-2.15751e-06
1.07002e-06
-2.03323e-06
1.8766e-06
-1.95315e-06
2.69242e-06
-1.88566e-06
3.42481e-06
-1.81609e-06
4.07285e-06
-1.74608e-06
4.59548e-06
-1.68121e-06
4.95686e-06
-1.62612e-06
5.14957e-06
-1.58309e-06
5.19137e-06
-1.55208e-06
5.11453e-06
-1.53149e-06
4.95528e-06
-1.51899e-06
4.74631e-06
-1.51211e-06
4.51295e-06
-1.50814e-06
4.27208e-06
-1.50207e-06
4.02815e-06
-1.48417e-06
3.7361e-06
3.20327e-06
-2.4252e-06
1.81216e-05
-2.39768e-06
1.82313e-05
-2.35297e-06
1.79751e-05
-2.30209e-06
1.74377e-05
-2.2489e-06
1.70207e-05
-2.19512e-06
1.70737e-05
-2.14553e-06
1.76671e-05
-2.10069e-06
1.85694e-05
-2.03851e-06
1.91801e-05
-1.92387e-06
1.8395e-05
-1.75039e-06
1.50176e-05
-1.62016e-06
9.45787e-06
-1.68434e-06
5.04335e-06
-1.73854e-06
3.15368e-06
-1.70994e-06
2.17017e-06
-1.72816e-06
1.46888e-06
-1.79838e-06
1.02038e-06
-1.87125e-06
7.96504e-07
-1.92416e-06
6.78049e-07
-1.94747e-06
5.89139e-07
-1.94538e-06
4.18294e-07
-1.9289e-06
3.52101e-07
-1.90171e-06
3.09087e-07
-1.86851e-06
2.90437e-07
-1.83687e-06
2.9135e-07
-1.8142e-06
3.06552e-07
-1.80493e-06
3.32763e-07
-1.80909e-06
3.69759e-07
-1.82363e-06
4.20678e-07
-1.84612e-06
4.92318e-07
-1.88147e-06
5.93052e-07
-1.94227e-06
7.27903e-07
-2.00124e-06
8.85732e-07
-2.09316e-06
1.16195e-06
-2.05378e-06
1.83721e-06
-1.99591e-06
2.63455e-06
-1.94468e-06
3.37358e-06
-1.8934e-06
4.02157e-06
-1.84154e-06
4.54361e-06
-1.79237e-06
4.9077e-06
-1.74931e-06
5.10651e-06
-1.71437e-06
5.15643e-06
-1.68793e-06
5.08808e-06
-1.66906e-06
4.93641e-06
-1.65611e-06
4.73336e-06
-1.64701e-06
4.50386e-06
-1.63896e-06
4.26403e-06
-1.62646e-06
4.01565e-06
-1.60031e-06
3.70995e-06
3.17361e-06
-2.40368e-06
1.81294e-05
-2.37833e-06
1.8206e-05
-2.33292e-06
1.79297e-05
-2.28229e-06
1.73871e-05
-2.23452e-06
1.69729e-05
-2.19367e-06
1.70329e-05
-2.16447e-06
1.76379e-05
-2.14574e-06
1.85506e-05
-2.11052e-06
1.91449e-05
-2.01024e-06
1.82947e-05
-1.83541e-06
1.48427e-05
-1.7025e-06
9.32496e-06
-1.74703e-06
5.08788e-06
-1.76697e-06
3.17362e-06
-1.75184e-06
2.15504e-06
-1.77858e-06
1.49562e-06
-1.84375e-06
1.08554e-06
-1.91951e-06
8.72269e-07
-1.98176e-06
7.40302e-07
-2.00938e-06
6.16752e-07
-2.0015e-06
4.10416e-07
-1.97193e-06
3.22528e-07
-1.92915e-06
2.66311e-07
-1.88087e-06
2.42152e-07
-1.83406e-06
2.44548e-07
-1.79432e-06
2.66807e-07
-1.76507e-06
3.03513e-07
-1.74718e-06
3.51867e-07
-1.73948e-06
4.12981e-07
-1.74048e-06
4.93317e-07
-1.75135e-06
6.0392e-07
-1.77768e-06
7.5423e-07
-1.84535e-06
9.53408e-07
-1.92787e-06
1.24447e-06
-1.9639e-06
1.87324e-06
-1.97278e-06
2.64343e-06
-1.96636e-06
3.36716e-06
-1.94929e-06
4.00451e-06
-1.92465e-06
4.51896e-06
-1.89685e-06
4.8799e-06
-1.86976e-06
5.07943e-06
-1.84598e-06
5.13265e-06
-1.8267e-06
5.0688e-06
-1.81197e-06
4.92167e-06
-1.80105e-06
4.72244e-06
-1.79252e-06
4.49533e-06
-1.78327e-06
4.25478e-06
-1.76536e-06
3.99774e-06
-1.72621e-06
3.6708e-06
3.13215e-06
-2.38937e-06
1.81404e-05
-2.36411e-06
1.81807e-05
-2.31585e-06
1.78814e-05
-2.26379e-06
1.7335e-05
-2.22047e-06
1.69296e-05
-2.19206e-06
1.70045e-05
-2.18304e-06
1.76289e-05
-2.18999e-06
1.85576e-05
-2.18019e-06
1.91351e-05
-2.0946e-06
1.82091e-05
-1.91323e-06
1.46614e-05
-1.78031e-06
9.19204e-06
-1.80148e-06
5.10904e-06
-1.80635e-06
3.17849e-06
-1.8005e-06
2.1492e-06
-1.83003e-06
1.52514e-06
-1.89017e-06
1.14568e-06
-1.9732e-06
9.55298e-07
-2.04574e-06
8.12843e-07
-2.07335e-06
6.44362e-07
-2.05507e-06
3.92133e-07
-2.00955e-06
2.77009e-07
-1.95011e-06
2.06874e-07
-1.88665e-06
1.78695e-07
-1.82589e-06
1.83786e-07
-1.77222e-06
2.13137e-07
-1.72827e-06
2.59561e-07
-1.6952e-06
3.18802e-07
-1.67331e-06
3.91083e-07
-1.66303e-06
4.83042e-07
-1.66678e-06
6.07664e-07
-1.69243e-06
7.79882e-07
-1.75744e-06
1.01842e-06
-1.91798e-06
1.40501e-06
-1.94973e-06
1.90498e-06
-1.97392e-06
2.66762e-06
-1.99461e-06
3.38785e-06
-2.00685e-06
4.01675e-06
-2.00902e-06
4.52113e-06
-2.00364e-06
4.87452e-06
-1.99395e-06
5.06975e-06
-1.98272e-06
5.12142e-06
-1.97181e-06
5.0579e-06
-1.96226e-06
4.91211e-06
-1.95428e-06
4.71446e-06
-1.94703e-06
4.48809e-06
-1.93655e-06
4.2443e-06
-1.91174e-06
3.97292e-06
-1.85998e-06
3.61904e-06
3.08462e-06
-2.3824e-06
1.81519e-05
-2.35441e-06
1.81528e-05
-2.30081e-06
1.78278e-05
-2.24546e-06
1.72797e-05
-2.20543e-06
1.68896e-05
-2.18845e-06
1.69875e-05
-2.19833e-06
1.76388e-05
-2.22894e-06
1.85882e-05
-2.2414e-06
1.91475e-05
-2.1671e-06
1.81348e-05
-1.97975e-06
1.4474e-05
-1.84625e-06
9.05854e-06
-1.85438e-06
5.11717e-06
-1.85285e-06
3.17696e-06
-1.85101e-06
2.14735e-06
-1.88016e-06
1.5543e-06
-1.94052e-06
1.20604e-06
-2.03756e-06
1.05234e-06
-2.1192e-06
8.94481e-07
-2.13752e-06
6.62684e-07
-2.10083e-06
3.55446e-07
-2.03562e-06
2.11794e-07
-1.95906e-06
1.30314e-07
-1.88188e-06
1.01513e-07
-1.80992e-06
1.1183e-07
-1.74629e-06
1.49503e-07
-1.69269e-06
2.05965e-07
-1.6503e-06
2.76412e-07
-1.62062e-06
3.61401e-07
-1.60687e-06
4.69291e-07
-1.61548e-06
6.16278e-07
-1.65753e-06
8.21926e-07
-1.7497e-06
1.11059e-06
-1.84841e-06
1.50372e-06
-1.95129e-06
2.00787e-06
-1.99766e-06
2.71398e-06
-2.04207e-06
3.43227e-06
-2.08023e-06
4.05491e-06
-2.10709e-06
4.54799e-06
-2.12277e-06
4.8902e-06
-2.12951e-06
5.07649e-06
-2.12995e-06
5.12186e-06
-2.12649e-06
5.05443e-06
-2.12092e-06
4.90655e-06
-2.11426e-06
4.7078e-06
-2.10584e-06
4.47966e-06
-2.09065e-06
4.22911e-06
-2.05671e-06
3.93899e-06
-1.99768e-06
3.56001e-06
3.04044e-06
-2.38255e-06
1.81603e-05
-2.34843e-06
1.81186e-05
-2.28672e-06
1.77661e-05
-2.22619e-06
1.72192e-05
-2.18812e-06
1.68515e-05
-2.18104e-06
1.69804e-05
-2.20734e-06
1.76651e-05
-2.25754e-06
1.86384e-05
-2.2866e-06
1.91766e-05
-2.21851e-06
1.80667e-05
-2.02909e-06
1.42846e-05
-1.90487e-06
8.93432e-06
-1.9092e-06
5.12151e-06
-1.90451e-06
3.17226e-06
-1.90131e-06
2.14416e-06
-1.93827e-06
1.59126e-06
-2.00806e-06
1.27583e-06
-2.12126e-06
1.16553e-06
-2.20073e-06
9.73952e-07
-2.19367e-06
6.5562e-07
-2.13086e-06
2.92637e-07
-2.04405e-06
1.24978e-07
-1.95192e-06
3.81932e-08
-1.86397e-06
1.35595e-08
-1.78448e-06
3.2337e-08
-1.71503e-06
8.00595e-08
-1.65611e-06
1.47036e-07
-1.60816e-06
2.28463e-07
-1.57274e-06
3.25986e-07
-1.55412e-06
4.50664e-07
-1.56057e-06
6.22729e-07
-1.60223e-06
8.63586e-07
-1.68256e-06
1.19093e-06
-1.79572e-06
1.61688e-06
-1.91377e-06
2.12592e-06
-2.00943e-06
2.80964e-06
-2.09281e-06
3.51565e-06
-2.16466e-06
4.12675e-06
-2.21986e-06
4.60319e-06
-2.25794e-06
4.92827e-06
-2.28118e-06
5.09973e-06
-2.29281e-06
5.13349e-06
-2.29612e-06
5.05774e-06
-2.29396e-06
4.90439e-06
-2.28819e-06
4.70203e-06
-2.27828e-06
4.46975e-06
-2.25874e-06
4.20957e-06
-2.21987e-06
3.90012e-06
-2.16393e-06
3.50406e-06
3.00699e-06
-2.38917e-06
1.81616e-05
-2.34514e-06
1.80746e-05
-2.27249e-06
1.76935e-05
-2.20497e-06
1.71517e-05
-2.16739e-06
1.68139e-05
-2.16823e-06
1.69813e-05
-2.20746e-06
1.77043e-05
-2.27155e-06
1.87025e-05
-2.30984e-06
1.92149e-05
-2.24383e-06
1.80007e-05
-2.06176e-06
1.41025e-05
-1.95431e-06
8.82687e-06
-1.95911e-06
5.12631e-06
-1.95538e-06
3.16853e-06
-1.95577e-06
2.14455e-06
-2.01522e-06
1.6507e-06
-2.10537e-06
1.36599e-06
-2.22661e-06
1.28677e-06
-2.27925e-06
1.02659e-06
-2.22887e-06
6.05236e-07
-2.13664e-06
2.00411e-07
-2.03115e-06
1.9484e-08
-1.92782e-06
-6.51349e-08
-1.83321e-06
-8.10461e-08
-1.75008e-06
-5.07945e-08
-1.67883e-06
8.80328e-09
-1.61862e-06
8.68279e-08
-1.56871e-06
1.78552e-07
-1.52993e-06
2.87204e-07
-1.50664e-06
4.27374e-07
-1.50806e-06
6.24152e-07
-1.5445e-06
9.00029e-07
-1.61583e-06
1.26225e-06
-1.72428e-06
1.72534e-06
-1.87751e-06
2.27916e-06
-2.02505e-06
2.95717e-06
-2.15641e-06
3.64701e-06
-2.26669e-06
4.23702e-06
-2.35218e-06
4.68869e-06
-2.41313e-06
4.98923e-06
-2.45248e-06
5.13907e-06
-2.47448e-06
5.15549e-06
-2.48369e-06
5.06695e-06
-2.48416e-06
4.90486e-06
-2.47846e-06
4.69632e-06
-2.46566e-06
4.45696e-06
-2.43971e-06
4.18361e-06
-2.39397e-06
3.85438e-06
-2.33775e-06
3.44785e-06
2.97739e-06
-2.40121e-06
1.81519e-05
-2.34336e-06
1.80167e-05
-2.25705e-06
1.76071e-05
-2.18091e-06
1.70755e-05
-2.14234e-06
1.67754e-05
-2.14883e-06
1.69878e-05
-2.19711e-06
1.77526e-05
-2.26927e-06
1.87746e-05
-2.31101e-06
1.92566e-05
-2.24581e-06
1.79355e-05
-2.07945e-06
1.39362e-05
-1.99531e-06
8.74273e-06
-2.00502e-06
5.13602e-06
-2.01046e-06
3.17397e-06
-2.02325e-06
2.15734e-06
-2.11478e-06
1.74223e-06
-2.23253e-06
1.48374e-06
-2.3393e-06
1.39354e-06
-2.33302e-06
1.0203e-06
-2.22988e-06
5.02102e-07
-2.1136e-06
8.41294e-08
-1.9975e-06
-9.66176e-08
-1.8892e-06
-1.73438e-07
-1.79237e-06
-1.77869e-07
-1.70923e-06
-1.33942e-07
-1.63985e-06
-6.05773e-08
-1.58247e-06
2.94519e-08
-1.53504e-06
1.31125e-07
-1.49748e-06
2.49643e-07
-1.47445e-06
4.04345e-07
-1.47687e-06
6.26568e-07
-1.5187e-06
9.41859e-07
-1.60015e-06
1.3437e-06
-1.72991e-06
1.8551e-06
-1.90681e-06
2.45606e-06
-2.09145e-06
3.14182e-06
-2.26231e-06
3.81787e-06
-2.40485e-06
4.37956e-06
-2.51557e-06
4.7994e-06
-2.59506e-06
5.06872e-06
-2.64682e-06
5.19084e-06
-2.67615e-06
5.18482e-06
-2.68885e-06
5.07965e-06
-2.69006e-06
4.90607e-06
-2.68253e-06
4.68879e-06
-2.66426e-06
4.43869e-06
-2.62873e-06
4.14808e-06
-2.57334e-06
3.79899e-06
-2.51402e-06
3.38853e-06
2.94971e-06
-2.4172e-06
1.8127e-05
-2.34175e-06
1.79413e-05
-2.23944e-06
1.75048e-05
-2.15336e-06
1.69894e-05
-2.11237e-06
1.67344e-05
-2.12217e-06
1.69975e-05
-2.17571e-06
1.78061e-05
-2.25091e-06
1.88498e-05
-2.2921e-06
1.92978e-05
-2.22569e-06
1.78691e-05
-2.08314e-06
1.37936e-05
-2.02934e-06
8.68893e-06
-2.06476e-06
5.17144e-06
-2.11118e-06
3.22039e-06
-2.13629e-06
2.18246e-06
-2.23256e-06
1.83849e-06
-2.37384e-06
1.62503e-06
-2.41918e-06
1.43888e-06
-2.33818e-06
9.39303e-07
-2.1919e-06
3.55815e-07
-2.06457e-06
-4.31986e-08
-1.94697e-06
-2.14216e-07
-1.83912e-06
-2.81292e-07
-1.74388e-06
-2.73104e-07
-1.6641e-06
-2.13727e-07
-1.60024e-06
-1.24438e-07
-1.55005e-06
-2.07375e-08
-1.51027e-06
9.13434e-08
-1.47992e-06
2.19294e-07
-1.46422e-06
3.8865e-07
-1.47544e-06
6.37789e-07
-1.5312e-06
9.97613e-07
-1.64598e-06
1.45849e-06
-1.81396e-06
2.02307e-06
-2.02679e-06
2.66888e-06
-2.23522e-06
3.35025e-06
-2.42748e-06
4.01014e-06
-2.58955e-06
4.54163e-06
-2.71607e-06
4.92593e-06
-2.80648e-06
5.15913e-06
-2.8646e-06
5.24896e-06
-2.89657e-06
5.21679e-06
-2.90924e-06
5.09232e-06
-2.90828e-06
4.90511e-06
-2.89555e-06
4.67606e-06
-2.86725e-06