/*--------------------------------*- C++ -*----------------------------------*\
  =========                 |
  \\      /  F ield         | OpenFOAM: The Open Source CFD Toolbox
   \\    /   O peration     | Website:  https://openfoam.org
    \\  /    A nd           | Version:  9
     \\/     M anipulation  |
\*---------------------------------------------------------------------------*/
FoamFile
{
    format      ascii;
    class       volVectorField;
    location    "0.13";
    object      U;
}
// * * * * * * * * * * * * * * * * * * * * * * * * * * * * * * * * * * * * * //

dimensions      [0 1 -1 0 0 0 0];

internalField   nonuniform List<vector> 
5000
(
(-0.289288 0 0.704525)
(-0.310408 0 0.784781)
(-0.319332 0 0.825744)
(-0.312262 0 0.790915)
(-0.303207 0 0.750905)
(-0.30353 0 0.797346)
(-0.309071 0 0.94683)
(-0.311321 0 1.1582)
(-0.303566 0 1.38128)
(-0.272404 0 1.45411)
(-0.177341 0 0.982165)
(0.0651125 0 -0.304346)
(0.0633641 0 -1.69533)
(0.0264625 0 -2.11938)
(-0.00306533 0 -2.24463)
(-0.0287315 0 -2.24713)
(-0.0394551 0 -2.2401)
(-0.0412751 0 -2.25095)
(-0.036849 0 -2.27007)
(-0.0275329 0 -2.2898)
(-0.0151134 0 -2.30474)
(-0.00155077 0 -2.31067)
(0.0114998 0 -2.30642)
(0.0214879 0 -2.29294)
(0.0271409 0 -2.27404)
(0.0282222 0 -2.25479)
(0.0246669 0 -2.23859)
(0.0154904 0 -2.21795)
(0.000219042 0 -2.1672)
(-0.0100067 0 -2.06402)
(-0.0109584 0 -1.87988)
(0.0242825 0 -1.53654)
(0.182686 0 -1.0384)
(0.33891 0 -0.503733)
(0.497544 0 0.00823236)
(0.63889 0 0.439538)
(0.741555 0 0.73542)
(0.802209 0 0.890411)
(0.828923 0 0.934974)
(0.83368 0 0.911713)
(0.82722 0 0.857114)
(0.816646 0 0.794248)
(0.805443 0 0.733814)
(0.794699 0 0.678599)
(0.784387 0 0.627774)
(0.77415 0 0.57963)
(0.763794 0 0.532807)
(0.752904 0 0.486539)
(0.742863 0 0.440114)
(0.725852 0 0.389271)
(-0.275115 0 0.715305)
(-0.293273 0 0.793502)
(-0.298207 0 0.825134)
(-0.287625 0 0.784478)
(-0.274588 0 0.746333)
(-0.267687 0 0.796105)
(-0.261827 0 0.944459)
(-0.250781 0 1.15141)
(-0.226047 0 1.36075)
(-0.168122 0 1.38971)
(-0.0747068 0 0.873194)
(0.178443 0 -0.366786)
(0.111192 0 -1.74934)
(0.0454588 0 -2.07634)
(-0.00509464 0 -2.22106)
(-0.0331666 0 -2.23557)
(-0.0395929 0 -2.23623)
(-0.0395123 0 -2.25197)
(-0.035723 0 -2.27415)
(-0.0289218 0 -2.29662)
(-0.0198141 0 -2.31408)
(-0.00925582 0 -2.3213)
(0.00151275 0 -2.31624)
(0.00989896 0 -2.30015)
(0.0148314 0 -2.27792)
(0.0167507 0 -2.25469)
(0.0150526 0 -2.2329)
(0.00650592 0 -2.20458)
(-0.0120382 0 -2.14674)
(-0.0291864 0 -2.0492)
(-0.0379406 0 -1.89159)
(-0.004375 0 -1.66156)
(0.128741 0 -1.24849)
(0.275914 0 -0.731593)
(0.420174 0 -0.22084)
(0.554012 0 0.237886)
(0.659305 0 0.585723)
(0.728755 0 0.799851)
(0.765386 0 0.895197)
(0.777933 0 0.906786)
(0.776231 0 0.871393)
(0.767974 0 0.816665)
(0.757711 0 0.75852)
(0.747431 0 0.703583)
(0.737631 0 0.653067)
(0.728152 0 0.605951)
(0.718798 0 0.560842)
(0.709141 0 0.516685)
(0.700289 0 0.472471)
(0.685382 0 0.424912)
(-0.261405 0 0.724691)
(-0.276284 0 0.799896)
(-0.277542 0 0.822216)
(-0.2641 0 0.775728)
(-0.247691 0 0.738145)
(-0.234552 0 0.789059)
(-0.219058 0 0.934303)
(-0.197004 0 1.13444)
(-0.160718 0 1.32928)
(-0.0804842 0 1.31998)
(0.0132665 0 0.765297)
(0.303366 0 -0.425889)
(0.177696 0 -1.70537)
(0.0566462 0 -2.01614)
(-0.0118402 0 -2.19357)
(-0.0370622 0 -2.22653)
(-0.0366233 0 -2.23543)
(-0.0341196 0 -2.2538)
(-0.0315655 0 -2.2771)
(-0.0280121 0 -2.30107)
(-0.0231737 0 -2.32044)
(-0.0169318 0 -2.3291)
(-0.00974751 0 -2.32366)
(-0.00430654 0 -2.30544)
(-0.00229639 0 -2.28089)
(-0.00266581 0 -2.25505)
(-0.0056553 0 -2.22794)
(-0.0141639 0 -2.18958)
(-0.0300518 0 -2.12063)
(-0.0459791 0 -2.02635)
(-0.0485237 0 -1.91)
(-0.00260347 0 -1.78825)
(0.101336 0 -1.43114)
(0.226946 0 -0.939971)
(0.358997 0 -0.432254)
(0.483429 0 0.0436921)
(0.586606 0 0.431006)
(0.660207 0 0.696075)
(0.703814 0 0.840371)
(0.723044 0 0.889612)
(0.726124 0 0.877894)
(0.720556 0 0.835155)
(0.711488 0 0.781564)
(0.701664 0 0.72765)
(0.692152 0 0.677186)
(0.683102 0 0.630374)
(0.67441 0 0.586136)
(0.665701 0 0.543269)
(0.657805 0 0.500475)
(0.644445 0 0.455307)
(-0.248238 0 0.732461)
(-0.259586 0 0.803949)
(-0.257494 0 0.81721)
(-0.241823 0 0.765075)
(-0.222744 0 0.727012)
(-0.204529 0 0.777343)
(-0.181519 0 0.918339)
(-0.150878 0 1.11037)
(-0.108042 0 1.29024)
(-0.0142079 0 1.25093)
(0.0757482 0 0.661534)
(0.317884 0 -0.492608)
(0.288886 0 -1.58177)
(0.0882695 0 -1.92609)
(-0.00122936 0 -2.15951)
(-0.0266448 0 -2.22128)
(-0.0242523 0 -2.23762)
(-0.0223595 0 -2.25557)
(-0.0230251 0 -2.27817)
(-0.0236045 0 -2.30252)
(-0.023737 0 -2.32296)
(-0.023078 0 -2.33294)
(-0.0207488 0 -2.32742)
(-0.0190321 0 -2.3066)
(-0.021888 0 -2.27884)
(-0.0291024 0 -2.25029)
(-0.0385059 0 -2.21864)
(-0.0477061 0 -2.17373)
(-0.0509016 0 -2.10576)
(-0.0445467 0 -2.02331)
(-0.0246786 0 -1.98024)
(0.041075 0 -1.89905)
(0.115742 0 -1.58207)
(0.206912 0 -1.12657)
(0.315381 0 -0.624465)
(0.425191 0 -0.138185)
(0.521788 0 0.278191)
(0.59557 0 0.585534)
(0.643325 0 0.774507)
(0.667897 0 0.861587)
(0.675556 0 0.876346)
(0.673016 0 0.848924)
(0.665532 0 0.802424)
(0.656349 0 0.750879)
(0.647023 0 0.700828)
(0.63802 0 0.65412)
(0.629338 0 0.610381)
(0.620623 0 0.568544)
(0.612814 0 0.527438)
(0.600323 0 0.48808)
(-0.235509 0 0.738423)
(-0.243237 0 0.805771)
(-0.238179 0 0.810513)
(-0.220908 0 0.752986)
(-0.199907 0 0.713518)
(-0.177836 0 0.761896)
(-0.149444 0 0.898067)
(-0.112691 0 1.08185)
(-0.0672924 0 1.24704)
(0.0276887 0 1.18574)
(0.108046 0 0.571907)
(0.251573 0 -0.557287)
(0.279133 0 -1.54727)
(0.161249 0 -1.81727)
(0.0500401 0 -2.11107)
(0.0141514 0 -2.21276)
(0.003982 0 -2.23776)
(-0.00209144 0 -2.25414)
(-0.00885506 0 -2.27593)
(-0.0142338 0 -2.30044)
(-0.0197583 0 -2.32092)
(-0.0258628 0 -2.33189)
(-0.0296125 0 -2.32716)
(-0.0309464 0 -2.3036)
(-0.0368302 0 -2.27013)
(-0.0504412 0 -2.23757)
(-0.0641879 0 -2.20589)
(-0.0657076 0 -2.16854)
(-0.04971 0 -2.12164)
(-0.0129486 0 -2.05015)
(0.0212272 0 -2.04719)
(0.0598932 0 -1.97685)
(0.114638 0 -1.67809)
(0.19035 0 -1.2592)
(0.278705 0 -0.783801)
(0.372726 0 -0.300414)
(0.460802 0 0.133416)
(0.532495 0 0.473525)
(0.582452 0 0.701255)
(0.611297 0 0.824287)
(0.623361 0 0.866665)
(0.624258 0 0.857055)
(0.618992 0 0.820093)
(0.611066 0 0.772617)
(0.602447 0 0.723841)
(0.593967 0 0.677496)
(0.58586 0 0.63421)
(0.577881 0 0.593232)
(0.57153 0 0.55249)
(0.565 0 0.502194)
(-0.223065 0 0.742434)
(-0.227225 0 0.805473)
(-0.219645 0 0.802478)
(-0.201383 0 0.739946)
(-0.179188 0 0.698362)
(-0.154401 0 0.74382)
(-0.122556 0 0.875056)
(-0.0821603 0 1.05141)
(-0.0370531 0 1.20344)
(0.0497323 0 1.12739)
(0.119467 0 0.50807)
(0.192648 0 -0.605357)
(0.251806 0 -1.55503)
(0.195023 0 -1.81496)
(0.125518 0 -2.04378)
(0.0752082 0 -2.18607)
(0.0446196 0 -2.22845)
(0.0248468 0 -2.24652)
(0.0109539 0 -2.26957)
(0.00122373 0 -2.29476)
(-0.00989699 0 -2.31376)
(-0.0236648 0 -2.32489)
(-0.0348958 0 -2.32309)
(-0.0386176 0 -2.30024)
(-0.0415972 0 -2.26133)
(-0.0516895 0 -2.22436)
(-0.0594344 0 -2.20152)
(-0.0502172 0 -2.19062)
(-0.0120931 0 -2.17254)
(0.059452 0 -2.08317)
(0.0941268 0 -2.07841)
(0.0855949 0 -2.01811)
(0.112615 0 -1.76244)
(0.171978 0 -1.36505)
(0.2406 0 -0.913441)
(0.320023 0 -0.441716)
(0.399663 0 -0.000424068)
(0.46835 0 0.363045)
(0.519643 0 0.622976)
(0.552213 0 0.778773)
(0.568669 0 0.848546)
(0.573472 0 0.858275)
(0.571155 0 0.832885)
(0.565246 0 0.79118)
(0.557958 0 0.744739)
(0.550368 0 0.699245)
(0.542796 0 0.656601)
(0.534864 0 0.616615)
(0.528403 0 0.576132)
(0.522356 0 0.512242)
(-0.210738 0 0.744491)
(-0.211538 0 0.803251)
(-0.201909 0 0.793445)
(-0.183209 0 0.726389)
(-0.160486 0 0.682186)
(-0.133998 0 0.724057)
(-0.100259 0 0.850506)
(-0.058214 0 1.02081)
(-0.014742 0 1.16262)
(0.061049 0 1.0778)
(0.119744 0 0.464986)
(0.166489 0 -0.630804)
(0.165274 0 -1.55733)
(0.122674 0 -1.70446)
(0.15768 0 -1.98732)
(0.125716 0 -2.144)
(0.0819761 0 -2.20678)
(0.0524134 0 -2.23296)
(0.0352232 0 -2.26049)
(0.0229639 0 -2.28597)
(0.00625717 0 -2.30123)
(-0.0148682 0 -2.31083)
(-0.0343509 0 -2.31357)
(-0.0434599 0 -2.29799)
(-0.043388 0 -2.25955)
(-0.0442922 0 -2.21868)
(-0.0435876 0 -2.20637)
(-0.0334802 0 -2.22293)
(-0.00105181 0 -2.23952)
(0.0119814 0 -2.1523)
(0.065815 0 -2.09805)
(0.0809443 0 -2.0276)
(0.0818133 0 -1.80211)
(0.117495 0 -1.44724)
(0.184777 0 -1.02428)
(0.260836 0 -0.567038)
(0.33588 0 -0.124821)
(0.402412 0 0.254551)
(0.45477 0 0.540514)
(0.490696 0 0.725511)
(0.511449 0 0.821565)
(0.520448 0 0.851294)
(0.521688 0 0.838939)
(0.518614 0 0.804398)
(0.513666 0 0.76113)
(0.508296 0 0.716627)
(0.503271 0 0.674108)
(0.49875 0 0.634027)
(0.497132 0 0.591221)
(0.4977 0 0.467292)
(-0.198385 0 0.744709)
(-0.19619 0 0.799368)
(-0.185001 0 0.783745)
(-0.166334 0 0.712689)
(-0.143658 0 0.665524)
(-0.116334 0 0.703377)
(-0.0818695 0 0.825307)
(-0.0394894 0 0.990949)
(0.00201295 0 1.12564)
(0.0689215 0 1.03583)
(0.118096 0 0.433611)
(0.151642 0 -0.634428)
(0.100803 0 -1.54897)
(0.103488 0 -1.73418)
(0.140483 0 -2.05268)
(0.135083 0 -2.12361)
(0.10227 0 -2.1774)
(0.0773497 0 -2.21588)
(0.063276 0 -2.25036)
(0.0494443 0 -2.27403)
(0.0274733 0 -2.2837)
(0.00223962 0 -2.29049)
(-0.0222198 0 -2.29584)
(-0.0421528 0 -2.28857)
(-0.0546025 0 -2.25537)
(-0.05645 0 -2.21985)
(-0.0499365 0 -2.21528)
(-0.023327 0 -2.25092)
(-0.014092 0 -2.27779)
(0.00840685 0 -2.2043)
(0.051025 0 -2.13981)
(0.0627882 0 -2.03306)
(0.0506044 0 -1.80708)
(0.0684292 0 -1.5235)
(0.129515 0 -1.13293)
(0.202226 0 -0.687019)
(0.273596 0 -0.244426)
(0.33783 0 0.147217)
(0.390367 0 0.454515)
(0.428647 0 0.665171)
(0.45296 0 0.785933)
(0.465763 0 0.835761)
(0.470406 0 0.837442)
(0.470071 0 0.811272)
(0.467201 0 0.772052)
(0.463369 0 0.728786)
(0.459452 0 0.685925)
(0.45566 0 0.644811)
(0.452828 0 0.600192)
(0.450273 0 0.454718)
(-0.185925 0 0.743321)
(-0.181238 0 0.794131)
(-0.168974 0 0.773686)
(-0.150721 0 0.699158)
(-0.128561 0 0.648829)
(-0.101126 0 0.682412)
(-0.0668141 0 0.800103)
(-0.0249168 0 0.962136)
(0.0147852 0 1.09187)
(0.0757993 0 0.999232)
(0.119007 0 0.410656)
(0.142175 0 -0.619674)
(0.0876501 0 -1.52445)
(0.116717 0 -1.77485)
(0.103699 0 -2.08906)
(0.0883513 0 -2.13844)
(0.106025 0 -2.1681)
(0.105745 0 -2.20173)
(0.0942707 0 -2.23682)
(0.0751948 0 -2.2575)
(0.0493 0 -2.26293)
(0.0262651 0 -2.26818)
(0.00718784 0 -2.273)
(-0.0187066 0 -2.26815)
(-0.0464904 0 -2.24391)
(-0.0602308 0 -2.22054)
(-0.0811895 0 -2.24731)
(-0.0374395 0 -2.26947)
(1.6899e-05 0 -2.28326)
(0.0349447 0 -2.25145)
(0.0542709 0 -2.16979)
(0.0456823 0 -2.02505)
(0.0428216 0 -1.80703)
(0.0589046 0 -1.58162)
(0.0987214 0 -1.23048)
(0.157227 0 -0.800453)
(0.220648 0 -0.358454)
(0.28007 0 0.0426431)
(0.330602 0 0.367384)
(0.369298 0 0.60014)
(0.395658 0 0.743481)
(0.411209 0 0.812847)
(0.418561 0 0.829176)
(0.420469 0 0.812579)
(0.41923 0 0.778732)
(0.416448 0 0.737927)
(0.413074 0 0.695853)
(0.409497 0 0.655048)
(0.406278 0 0.611381)
(0.402694 0 0.452417)
(-0.173357 0 0.740667)
(-0.166787 0 0.787891)
(-0.153911 0 0.763535)
(-0.13636 0 0.686044)
(-0.115081 0 0.632469)
(-0.0881458 0 0.661679)
(-0.0547244 0 0.775381)
(-0.0139834 0 0.934506)
(0.0239987 0 1.0602)
(0.0807746 0 0.965717)
(0.120375 0 0.389944)
(0.138234 0 -0.607892)
(0.102176 0 -1.50985)
(0.137501 0 -1.7938)
(0.122995 0 -2.02529)
(0.0773704 0 -2.1294)
(0.13371 0 -2.19586)
(0.12698 0 -2.2026)
(0.111854 0 -2.22684)
(0.0871385 0 -2.24189)
(0.0640361 0 -2.24624)
(0.0507729 0 -2.25322)
(0.0373142 0 -2.25613)
(0.00766026 0 -2.24751)
(-0.0277014 0 -2.2227)
(-0.027118 0 -2.18635)
(-0.011563 0 -2.27509)
(0.0019922 0 -2.31062)
(0.0132967 0 -2.3108)
(0.0167804 0 -2.26934)
(0.0173268 0 -2.16322)
(0.020519 0 -2.01897)
(0.0357348 0 -1.82988)
(0.0546857 0 -1.61407)
(0.0800205 0 -1.29785)
(0.124057 0 -0.893938)
(0.177598 0 -0.459742)
(0.230552 0 -0.0543282)
(0.277334 0 0.283285)
(0.314718 0 0.534147)
(0.341594 0 0.697271)
(0.358707 0 0.784857)
(0.367954 0 0.815786)
(0.371611 0 0.809526)
(0.37174 0 0.782189)
(0.369905 0 0.745028)
(0.367113 0 0.704825)
(0.363873 0 0.665302)
(0.360839 0 0.622896)
(0.357724 0 0.451786)
(-0.160765 0 0.737173)
(-0.152984 0 0.781016)
(-0.139923 0 0.753524)
(-0.123267 0 0.673529)
(-0.103129 0 0.616732)
(-0.0772179 0 0.641612)
(-0.0453235 0 0.751559)
(-0.00654195 0 0.90825)
(0.0293818 0 1.0303)
(0.0819746 0 0.934323)
(0.119364 0 0.370663)
(0.13881 0 -0.606402)
(0.122592 0 -1.50656)
(0.148925 0 -1.81019)
(0.144151 0 -1.97467)
(0.0952051 0 -2.11677)
(0.0843789 0 -2.25033)
(0.0999319 0 -2.20001)
(0.104672 0 -2.22042)
(0.086607 0 -2.23241)
(0.0654482 0 -2.23831)
(0.0521331 0 -2.24724)
(0.0328403 0 -2.23778)
(0.011801 0 -2.21116)
(-0.00324514 0 -2.20063)
(0.00281967 0 -2.20211)
(0.015707 0 -2.27939)
(0.0101457 0 -2.31417)
(0.00259548 0 -2.31014)
(-0.00971792 0 -2.25906)
(-0.016368 0 -2.16002)
(-0.00501677 0 -2.03569)
(0.0237847 0 -1.86696)
(0.0506732 0 -1.6429)
(0.0703943 0 -1.34366)
(0.100795 0 -0.9647)
(0.142884 0 -0.544478)
(0.188224 0 -0.140263)
(0.230263 0 0.205457)
(0.265243 0 0.470371)
(0.29154 0 0.650162)
(0.309264 0 0.754073)
(0.319693 0 0.798907)
(0.324617 0 0.803188)
(0.325799 0 0.78309)
(0.32465 0 0.750542)
(0.322058 0 0.713281)
(0.318495 0 0.676155)
(0.315743 0 0.635639)
(0.315208 0 0.454023)
(-0.148308 0 0.733313)
(-0.140005 0 0.773872)
(-0.127126 0 0.743833)
(-0.111467 0 0.661732)
(-0.0926318 0 0.601842)
(-0.0681911 0 0.622587)
(-0.0384035 0 0.729063)
(-0.00234943 0 0.883625)
(0.0309785 0 1.00253)
(0.0797654 0 0.904732)
(0.116478 0 0.351036)
(0.143464 0 -0.611832)
(0.141171 0 -1.50568)
(0.149946 0 -1.82261)
(0.146616 0 -1.95573)
(0.106517 0 -2.09845)
(0.0660027 0 -2.22242)
(0.0619376 0 -2.19754)
(0.072204 0 -2.20658)
(0.0606524 0 -2.21109)
(0.0461744 0 -2.2191)
(0.0374365 0 -2.23103)
(0.0301878 0 -2.22258)
(0.0250608 0 -2.20105)
(0.0236017 0 -2.20278)
(0.0298961 0 -2.22164)
(0.0285551 0 -2.26971)
(0.0094782 0 -2.29625)
(-0.0108827 0 -2.2927)
(-0.025252 0 -2.249)
(-0.0289588 0 -2.16958)
(-0.0165588 0 -2.07306)
(0.0162662 0 -1.9217)
(0.0486358 0 -1.68144)
(0.0640645 0 -1.37775)
(0.0832123 0 -1.01592)
(0.114435 0 -0.61218)
(0.151786 0 -0.213965)
(0.18857 0 0.13545)
(0.220528 0 0.410591)
(0.245558 0 0.603986)
(0.263266 0 0.722101)
(0.274433 0 0.779675)
(0.280451 0 0.794132)
(0.282838 0 0.781429)
(0.282927 0 0.753901)
(0.281623 0 0.720019)
(0.279441 0 0.685372)
(0.279222 0 0.639072)
(0.285232 0 0.416559)
(-0.13621 0 0.729561)
(-0.128035 0 0.766797)
(-0.115628 0 0.734591)
(-0.100975 0 0.650709)
(-0.0835051 0 0.587968)
(-0.0608896 0 0.60492)
(-0.0337433 0 0.708334)
(-0.00104239 0 0.861007)
(0.0290856 0 0.977033)
(0.0750293 0 0.876121)
(0.111597 0 0.329155)
(0.146921 0 -0.624365)
(0.15248 0 -1.50353)
(0.143176 0 -1.82533)
(0.135809 0 -1.94265)
(0.113295 0 -2.07706)
(0.0764162 0 -2.19191)
(0.0565771 0 -2.20515)
(0.0596521 0 -2.20952)
(0.0544648 0 -2.20809)
(0.0486398 0 -2.21417)
(0.0425708 0 -2.22568)
(0.0358936 0 -2.2219)
(0.0357053 0 -2.20774)
(0.0407297 0 -2.20784)
(0.0442053 0 -2.22342)
(0.0341846 0 -2.25075)
(0.0085463 0 -2.2676)
(-0.0216007 0 -2.2644)
(-0.0487752 0 -2.23198)
(-0.0663816 0 -2.16724)
(-0.0682375 0 -2.09521)
(-0.0428972 0 -1.96623)
(0.00101959 0 -1.71995)
(0.0319423 0 -1.40525)
(0.0576145 0 -1.05467)
(0.0861131 0 -0.665958)
(0.118342 0 -0.276222)
(0.150763 0 0.073462)
(0.179774 0 0.355568)
(0.203229 0 0.559769)
(0.220471 0 0.689933)
(0.23194 0 0.758808)
(0.238699 0 0.782611)
(0.242021 0 0.77686)
(0.243096 0 0.75402)
(0.242761 0 0.72304)
(0.24143 0 0.68968)
(0.24148 0 0.638485)
(0.246843 0 0.39273)
(-0.12474 0 0.726347)
(-0.117251 0 0.760076)
(-0.105505 0 0.725867)
(-0.091771 0 0.640453)
(-0.0756406 0 0.575216)
(-0.0551021 0 0.588872)
(-0.0310859 0 0.689775)
(-0.00235099 0 0.84084)
(0.0236993 0 0.953756)
(0.0664448 0 0.848171)
(0.10303 0 0.30433)
(0.146047 0 -0.642848)
(0.154623 0 -1.4979)
(0.128972 0 -1.81788)
(0.118431 0 -1.93228)
(0.110939 0 -2.06312)
(0.0852847 0 -2.17259)
(0.0619961 0 -2.20223)
(0.0579307 0 -2.20798)
(0.0550555 0 -2.20814)
(0.0530216 0 -2.21327)
(0.0489411 0 -2.22095)
(0.0439251 0 -2.21985)
(0.0445021 0 -2.21211)
(0.0490311 0 -2.21009)
(0.0495567 0 -2.21708)
(0.0382624 0 -2.22906)
(0.0149343 0 -2.23483)
(-0.0147271 0 -2.22664)
(-0.0455441 0 -2.19719)
(-0.0711881 0 -2.14705)
(-0.0828622 0 -2.10095)
(-0.0673672 0 -2.01874)
(-0.0212481 0 -1.78152)
(0.0140558 0 -1.45249)
(0.037665 0 -1.0966)
(0.0620981 0 -0.714114)
(0.0894433 0 -0.33046)
(0.117422 0 0.0185215)
(0.143119 0 0.305476)
(0.164494 0 0.518255)
(0.180701 0 0.658566)
(0.191885 0 0.737354)
(0.198806 0 0.76966)
(0.202473 0 0.770471)
(0.203882 0 0.752251)
(0.203714 0 0.72432)
(0.202263 0 0.692502)
(0.202392 0 0.635163)
(0.208661 0 0.371891)
(-0.114199 0 0.72401)
(-0.107805 0 0.753916)
(-0.0967902 0 0.717662)
(-0.0837926 0 0.630897)
(-0.0688924 0 0.563626)
(-0.0505875 0 0.574664)
(-0.0301249 0 0.673753)
(-0.00605981 0 0.823683)
(0.0148873 0 0.93317)
(0.0528768 0 0.821826)
(0.08863 0 0.277343)
(0.137886 0 -0.664852)
(0.144418 0 -1.48721)
(0.106862 0 -1.80313)
(0.0991464 0 -1.92704)
(0.102976 0 -2.05774)
(0.0868192 0 -2.15756)
(0.0644177 0 -2.19321)
(0.0546781 0 -2.20319)
(0.050592 0 -2.20681)
(0.0491895 0 -2.21206)
(0.047234 0 -2.21754)
(0.0454449 0 -2.21812)
(0.0472124 0 -2.21432)
(0.0511313 0 -2.21145)
(0.0517868 0 -2.21145)
(0.0447062 0 -2.21247)
(0.029944 0 -2.20908)
(0.0110674 0 -2.19601)
(-0.00738099 0 -2.1689)
(-0.01783 0 -2.13168)
(-0.0132899 0 -2.10007)
(-0.0227111 0 -2.05124)
(-0.00606569 0 -1.85028)
(0.0271569 0 -1.49492)
(0.0340497 0 -1.13258)
(0.047833 0 -0.754649)
(0.0679067 0 -0.376183)
(0.0900537 0 -0.0286668)
(0.111393 0 0.261342)
(0.129831 0 0.480663)
(0.144291 0 0.629304)
(0.154629 0 0.71664)
(0.161312 0 0.756618)
(0.165092 0 0.763688)
(0.166795 0 0.750249)
(0.16703 0 0.725755)
(0.166084 0 0.694927)
(0.167208 0 0.628578)
(0.175596 0 0.348062)
(-0.104903 0 0.722761)
(-0.0998184 0 0.748421)
(-0.0894641 0 0.709899)
(-0.0769254 0 0.621918)
(-0.0630699 0 0.553184)
(-0.047071 0 0.562472)
(-0.0304761 0 0.660616)
(-0.011798 0 0.810049)
(0.00319726 0 0.916214)
(0.0353167 0 0.79808)
(0.0692875 0 0.248759)
(0.122539 0 -0.688052)
(0.126191 0 -1.47397)
(0.0884104 0 -1.78725)
(0.0878278 0 -1.92843)
(0.0960179 0 -2.05653)
(0.0821471 0 -2.14474)
(0.0605255 0 -2.18227)
(0.0466462 0 -2.1968)
(0.0397663 0 -2.20439)
(0.0379784 0 -2.21127)
(0.0382775 0 -2.21707)
(0.0401881 0 -2.21935)
(0.0445484 0 -2.21778)
(0.0500205 0 -2.21435)
(0.0534115 0 -2.21007)
(0.0521461 0 -2.20441)
(0.0458816 0 -2.19515)
(0.0362484 0 -2.17941)
(0.0255113 0 -2.15456)
(0.0150835 0 -2.12142)
(0.000415929 0 -2.08316)
(-0.0318717 0 -2.02736)
(-0.0428129 0 -1.888)
(-0.0111535 0 -1.52665)
(0.0141356 0 -1.1557)
(0.030394 0 -0.783094)
(0.0476324 0 -0.411119)
(0.0656509 0 -0.0665126)
(0.0830406 0 0.224648)
(0.0983838 0 0.448362)
(0.110775 0 0.603295)
(0.119984 0 0.697474)
(0.126291 0 0.743833)
(0.130248 0 0.756257)
(0.132513 0 0.746942)
(0.133675 0 0.725073)
(0.134232 0 0.693345)
(0.137022 0 0.616765)
(0.145475 0 0.325858)
(-0.0971553 0 0.722652)
(-0.093373 0 0.74358)
(-0.0834512 0 0.702422)
(-0.0710037 0 0.613343)
(-0.0579416 0 0.543828)
(-0.0442464 0 0.552416)
(-0.0317446 0 0.65066)
(-0.0189339 0 0.800396)
(-0.0104723 0 0.903571)
(0.0149554 0 0.777546)
(0.047 0 0.220434)
(0.102551 0 -0.710597)
(0.102827 0 -1.46167)
(0.0745913 0 -1.7748)
(0.0804338 0 -1.93315)
(0.0864166 0 -2.05442)
(0.0722736 0 -2.13279)
(0.0517721 0 -2.17047)
(0.0352557 0 -2.18883)
(0.0256004 0 -2.20102)
(0.023458 0 -2.2113)
(0.0260368 0 -2.21933)
(0.0316621 0 -2.22382)
(0.0395214 0 -2.22396)
(0.0480908 0 -2.22034)
(0.0553005 0 -2.21363)
(0.0594919 0 -2.20397)
(0.0600812 0 -2.19062)
(0.0575782 0 -2.17188)
(0.0529533 0 -2.14498)
(0.0465904 0 -2.10674)
(0.036569 0 -2.05434)
(0.0190364 0 -1.9866)
(-0.00522759 0 -1.88064)
(-0.0133334 0 -1.5609)
(0.00564285 0 -1.18455)
(0.0182676 0 -0.808367)
(0.0307996 0 -0.438455)
(0.0440259 0 -0.0958113)
(0.0570517 0 0.19568)
(0.0688668 0 0.422083)
(0.078744 0 0.58131)
(0.0864052 0 0.680402)
(0.0919692 0 0.731442)
(0.0958076 0 0.74775)
(0.0984126 0 0.741176)
(0.100281 0 0.72033)
(0.102158 0 0.686069)
(0.107298 0 0.600858)
(0.117526 0 0.306672)
(-0.0912325 0 0.723574)
(-0.0885052 0 0.739244)
(-0.0786222 0 0.694989)
(-0.0658167 0 0.604947)
(-0.0532445 0 0.535448)
(-0.0417734 0 0.544536)
(-0.0334474 0 0.644079)
(-0.026751 0 0.795075)
(-0.0250546 0 0.895456)
(-0.00629844 0 0.759687)
(0.0245698 0 0.191264)
(0.0821697 0 -0.732273)
(0.0821217 0 -1.45232)
(0.0656702 0 -1.76906)
(0.0731014 0 -1.93741)
(0.0734639 0 -2.05051)
(0.0600186 0 -2.1215)
(0.0409394 0 -2.15822)
(0.0220682 0 -2.17931)
(0.00994414 0 -2.19671)
(0.00808973 0 -2.21219)
(0.0133325 0 -2.22418)
(0.0228083 0 -2.23164)
(0.0345772 0 -2.23353)
(0.0468245 0 -2.23005)
(0.0579361 0 -2.22189)
(0.066735 0 -2.20957)
(0.0726699 0 -2.19306)
(0.0758377 0 -2.17127)
(0.076679 0 -2.14142)
(0.0756391 0 -2.099)
(0.0719743 0 -2.03975)
(0.0598132 0 -1.96168)
(0.0415137 0 -1.84241)
(0.0193967 0 -1.56568)
(0.0173423 0 -1.20098)
(0.0177154 0 -0.824587)
(0.0206967 0 -0.455933)
(0.0263544 0 -0.115183)
(0.0333374 0 0.175648)
(0.0404932 0 0.403051)
(0.0470046 0 0.564602)
(0.052419 0 0.666694)
(0.0566188 0 0.720761)
(0.0597365 0 0.739623)
(0.0620734 0 0.734683)
(0.0639266 0 0.713668)
(0.0661501 0 0.67472)
(0.073739 0 0.576066)
(0.0888245 0 0.277868)
(-0.0873551 0 0.725249)
(-0.0851995 0 0.735127)
(-0.0747994 0 0.687277)
(-0.0611194 0 0.596458)
(-0.0486969 0 0.527896)
(-0.0392942 0 0.538789)
(-0.0350614 0 0.640917)
(-0.0344179 0 0.794142)
(-0.03944 0 0.891791)
(-0.0269294 0 0.74421)
(0.00391369 0 0.161454)
(0.0628788 0 -0.754159)
(0.0642175 0 -1.44682)
(0.0564215 0 -1.76768)
(0.0621753 0 -1.93905)
(0.059765 0 -2.04552)
(0.0480883 0 -2.11114)
(0.0292787 0 -2.14524)
(0.00696097 0 -2.16811)
(-0.00708954 0 -2.19184)
(-0.00719123 0 -2.21453)
(0.00176108 0 -2.23202)
(0.0155271 0 -2.24307)
(0.0313225 0 -2.24675)
(0.04715 0 -2.24349)
(0.0616617 0 -2.23425)
(0.0739983 0 -2.21988)
(0.0836996 0 -2.20076)
(0.0906371 0 -2.17617)
(0.094754 0 -2.14344)
(0.095845 0 -2.09768)
(0.0938134 0 -2.03298)
(0.0830861 0 -1.94106)
(0.0511097 0 -1.79605)
(0.0238504 0 -1.54672)
(0.0193696 0 -1.1919)
(0.0143344 0 -0.821518)
(0.00988287 0 -0.457659)
(0.00837464 0 -0.12116)
(0.00916226 0 0.16685)
(0.0113323 0 0.393017)
(0.0141288 0 0.554672)
(0.0169823 0 0.657776)
(0.0195427 0 0.713286)
(0.0216815 0 0.733601)
(0.0235255 0 0.729548)
(0.0253236 0 0.70713)
(0.0282335 0 0.65939)
(0.0383282 0 0.539649)
(0.0568661 0 0.238577)
(-0.0856643 0 0.727258)
(-0.0833788 0 0.730818)
(-0.0717615 0 0.678896)
(-0.0566452 0 0.58758)
(-0.0440104 0 0.520996)
(-0.0364429 0 0.535056)
(-0.036044 0 0.64106)
(-0.0410376 0 0.797392)
(-0.0521923 0 0.892194)
(-0.0454173 0 0.731022)
(-0.0134521 0 0.131043)
(0.0462474 0 -0.776602)
(0.0491329 0 -1.4447)
(0.0454425 0 -1.7676)
(0.0495308 0 -1.93929)
(0.0467851 0 -2.0406)
(0.036231 0 -2.10145)
(0.015415 0 -2.13047)
(-0.0113873 0 -2.155)
(-0.0254536 0 -2.18745)
(-0.0212704 0 -2.2197)
(-0.00715582 0 -2.24369)
(0.0113515 0 -2.25838)
(0.0309866 0 -2.26347)
(0.0498494 0 -2.26014)
(0.066921 0 -2.24976)
(0.0816579 0 -2.23351)
(0.0937384 0 -2.21191)
(0.102899 0 -2.18426)
(0.108653 0 -2.14755)
(0.109808 0 -2.09597)
(0.104429 0 -2.0215)
(0.0894013 0 -1.91225)
(0.0615976 0 -1.74521)
(0.0331224 0 -1.5203)
(0.0161376 0 -1.17556)
(0.00568341 0 -0.805344)
(-0.00500552 0 -0.445094)
(-0.0131409 0 -0.113756)
(-0.0181903 0 0.169637)
(-0.020749 0 0.392357)
(-0.0214657 0 0.551798)
(-0.0209711 0 0.653756)
(-0.0197967 0 0.708902)
(-0.0183022 0 0.729254)
(-0.0165199 0 0.724794)
(-0.0140205 0 0.698719)
(-0.00915318 0 0.637791)
(0.00330128 0 0.495363)
(0.0216078 0 0.199947)
(-0.086196 0 0.729065)
(-0.0828943 0 0.725791)
(-0.0692512 0 0.669402)
(-0.0521195 0 0.578)
(-0.0389061 0 0.514542)
(-0.0328606 0 0.533122)
(-0.0358476 0 0.6442)
(-0.0456915 0 0.804327)
(-0.0617043 0 0.895933)
(-0.05925 0 0.719377)
(-0.0252456 0 0.099177)
(0.0327209 0 -0.798491)
(0.0348987 0 -1.44405)
(0.032526 0 -1.76808)
(0.0366848 0 -1.93966)
(0.033599 0 -2.03553)
(0.0210527 0 -2.09114)
(-0.00376804 0 -2.11285)
(-0.0338571 0 -2.14076)
(-0.0435991 0 -2.18571)
(-0.0319163 0 -2.22952)
(-0.0115856 0 -2.26)
(0.0115261 0 -2.27752)
(0.0343664 0 -2.28318)
(0.0554227 0 -2.27914)
(0.0740722 0 -2.26734)
(0.0901316 0 -2.24916)
(0.103542 0 -2.22515)
(0.114135 0 -2.19428)
(0.121316 0 -2.15277)
(0.12355 0 -2.09332)
(0.118349 0 -2.00633)
(0.103607 0 -1.88052)
(0.0781186 0 -1.70404)
(0.0469383 0 -1.47737)
(0.0186759 0 -1.14697)
(-0.00253507 0 -0.778506)
(-0.0220645 0 -0.420132)
(-0.0380179 0 -0.0939823)
(-0.0494476 0 0.183335)
(-0.0568741 0 0.400465)
(-0.0610367 0 0.555324)
(-0.062752 0 0.653862)
(-0.0628006 0 0.706653)
(-0.0618091 0 0.725332)
(-0.060016 0 0.718659)
(-0.0568341 0 0.686364)
(-0.0501726 0 0.610166)
(-0.0367777 0 0.449562)
(-0.0221922 0 0.168282)
(-0.0888613 0 0.730046)
(-0.0835197 0 0.719441)
(-0.0669843 0 0.658321)
(-0.0472772 0 0.567401)
(-0.033134 0 0.508299)
(-0.0282295 0 0.532689)
(-0.033978 0 0.649821)
(-0.0475882 0 0.8141)
(-0.0666544 0 0.901839)
(-0.0666307 0 0.708323)
(-0.0309308 0 0.0676799)
(0.0222465 0 -0.818257)
(0.0221958 0 -1.44347)
(0.0201115 0 -1.76883)
(0.0242565 0 -1.94013)
(0.017856 0 -2.02786)
(-0.00151245 0 -2.07757)
(-0.0307549 0 -2.09236)
(-0.0588515 0 -2.12843)
(-0.0577069 0 -2.18989)
(-0.0362527 0 -2.24546)
(-0.0101029 0 -2.28096)
(0.016511 0 -2.29984)
(0.0414611 0 -2.30499)
(0.0637339 0 -2.29951)
(0.0829924 0 -2.28587)
(0.0993577 0 -2.2657)
(0.113108 0 -2.23947)
(0.12434 0 -2.20576)
(0.132544 0 -2.1597)
(0.136001 0 -2.09235)
(0.131918 0 -1.99326)
(0.119137 0 -1.85367)
(0.0966123 0 -1.66435)
(0.0618279 0 -1.42396)
(0.0221518 0 -1.09887)
(-0.0128694 0 -0.733297)
(-0.0431701 0 -0.379255)
(-0.0676559 0 -0.0604106)
(-0.0857264 0 0.208334)
(-0.098 0 0.417176)
(-0.105427 0 0.564838)
(-0.109121 0 0.657642)
(-0.11018 0 0.70619)
(-0.109496 0 0.72164)
(-0.107408 0 0.711034)
(-0.103111 0 0.67037)
(-0.0943014 0 0.578876)
(-0.0795074 0 0.406317)
(-0.0667076 0 0.143281)
(-0.0934336 0 0.729525)
(-0.0849518 0 0.711114)
(-0.064664 0 0.64518)
(-0.0418819 0 0.555492)
(-0.0264912 0 0.502014)
(-0.0223094 0 0.533395)
(-0.0300877 0 0.657277)
(-0.0462865 0 0.825687)
(-0.0667197 0 0.908712)
(-0.0677046 0 0.69741)
(-0.0315779 0 0.038359)
(0.0142345 0 -0.834051)
(0.0112719 0 -1.44205)
(0.00760564 0 -1.76883)
(0.00977979 0 -1.93899)
(-0.00101161 0 -2.01455)
(-0.0312512 0 -2.06018)
(-0.0650806 0 -2.07143)
(-0.0809096 0 -2.12354)
(-0.0627991 0 -2.20296)
(-0.0323318 0 -2.26742)
(-0.00252047 0 -2.30527)
(0.0257908 0 -2.32401)
(0.0515637 0 -2.32783)
(0.0741066 0 -2.3203)
(0.0931034 0 -2.30436)
(0.10881 0 -2.282)
(0.121818 0 -2.25373)
(0.132544 0 -2.21763)
(0.14059 0 -2.16754)
(0.143997 0 -2.09246)
(0.139122 0 -1.9809)
(0.124201 0 -1.82775)
(0.0984223 0 -1.62044)
(0.058114 0 -1.35788)
(0.0109026 0 -1.02795)
(-0.0345266 0 -0.666185)
(-0.0739621 0 -0.320571)
(-0.105647 0 -0.01255)
(-0.12921 0 0.244361)
(-0.145341 0 0.441832)
(-0.155186 0 0.579563)
(-0.160169 0 0.664406)
(-0.161715 0 0.707027)
(-0.160916 0 0.717786)
(-0.157998 0 0.701215)
(-0.151798 0 0.649535)
(-0.1402 0 0.542366)
(-0.123541 0 0.362426)
(-0.111139 0 0.120598)
(-0.0995483 0 0.726808)
(-0.0868203 0 0.700158)
(-0.0619972 0 0.629551)
(-0.0357439 0 0.542021)
(-0.0188359 0 0.495439)
(-0.0149496 0 0.534848)
(-0.0239995 0 0.665911)
(-0.0416727 0 0.838161)
(-0.0622206 0 0.915791)
(-0.0629238 0 0.686705)
(-0.0272467 0 0.0129249)
(0.00865403 0 -0.845449)
(-0.000129393 0 -1.43894)
(-0.0118855 0 -1.76543)
(-0.0190649 0 -1.93586)
(-0.0293867 0 -1.99924)
(-0.0662617 0 -2.03827)
(-0.0960311 0 -2.05903)
(-0.0912131 0 -2.1317)
(-0.0558976 0 -2.22495)
(-0.0205289 0 -2.29315)
(0.010131 0 -2.33075)
(0.0384877 0 -2.34853)
(0.0640154 0 -2.35066)
(0.0859764 0 -2.34064)
(0.103867 0 -2.32187)
(0.117934 0 -2.29692)
(0.129014 0 -2.26653)
(0.137845 0 -2.22824)
(0.144107 0 -2.17422)
(0.145652 0 -2.09105)
(0.138204 0 -1.96521)
(0.117388 0 -1.79395)
(0.0822197 0 -1.56545)
(0.0322506 0 -1.27987)
(-0.0220492 0 -0.943327)
(-0.0730751 0 -0.58424)
(-0.117777 0 -0.248717)
(-0.153975 0 0.0460339)
(-0.180946 0 0.288454)
(-0.199235 0 0.471902)
(-0.210161 0 0.597361)
(-0.215421 0 0.672413)
(-0.216693 0 0.707683)
(-0.215069 0 0.712048)
(-0.210348 0 0.686577)
(-0.200947 0 0.620377)
(-0.185467 0 0.497039)
(-0.166367 0 0.31434)
(-0.153735 0 0.0982298)
(-0.106715 0 0.72121)
(-0.0887089 0 0.685966)
(-0.0587166 0 0.611079)
(-0.0287346 0 0.526799)
(-0.0100948 0 0.488346)
(-0.00607992 0 0.536656)
(-0.0156686 0 0.675119)
(-0.0337858 0 0.850751)
(-0.0534601 0 0.922386)
(-0.0525698 0 0.67523)
(-0.0191111 0 -0.00925786)
(0.00309253 0 -0.851675)
(-0.016152 0 -1.43081)
(-0.0433506 0 -1.75417)
(-0.0631305 0 -1.92972)
(-0.0644049 0 -1.98584)
(-0.0924651 0 -2.01601)
(-0.108787 0 -2.05768)
(-0.085989 0 -2.15366)
(-0.0383277 0 -2.25227)
(-0.003017 0 -2.31932)
(0.0266667 0 -2.35575)
(0.054436 0 -2.37246)
(0.0790574 0 -2.37266)
(0.0995078 0 -2.35968)
(0.115252 0 -2.33742)
(0.12653 0 -2.30923)
(0.134344 0 -2.27631)
(0.13967 0 -2.23553)
(0.142001 0 -2.1768)
(0.138336 0 -2.08382)
(0.124342 0 -1.9415)
(0.0958734 0 -1.74568)
(0.0514063 0 -1.49351)
(-0.00678602 0 -1.18936)
(-0.0682021 0 -0.850049)
(-0.124232 0 -0.49552)
(-0.172079 0 -0.170291)
(-0.210753 0 0.110122)
(-0.239287 0 0.336314)
(-0.258177 0 0.503831)
(-0.268934 0 0.615364)
(-0.273515 0 0.679367)
(-0.273693 0 0.705988)
(-0.270223 0 0.701559)
(-0.262261 0 0.663179)
(-0.248187 0 0.579032)
(-0.228133 0 0.440897)
(-0.206899 0 0.261963)
(-0.194574 0 0.0765352)
(-0.114347 0 0.7121)
(-0.0901894 0 0.668034)
(-0.0546076 0 0.589526)
(-0.0207976 0 0.509702)
(-0.000267816 0 0.480527)
(0.00429092 0 0.538437)
(-0.00516947 0 0.684358)
(-0.0228613 0 0.862837)
(-0.0412089 0 0.928061)
(-0.0400131 0 0.665175)
(-0.0119237 0 -0.0241473)
(-0.000648281 0 -0.848199)
(-0.0291212 0 -1.41281)
(-0.0675616 0 -1.73311)
(-0.0847151 0 -1.9246)
(-0.0753012 0 -1.98137)
(-0.0830083 0 -2.00352)
(-0.079717 0 -2.06451)
(-0.051164 0 -2.17909)
(-0.012206 0 -2.27802)
(0.018872 0 -2.34351)
(0.0473937 0 -2.37971)
(0.0743536 0 -2.39544)
(0.0975236 0 -2.39316)
(0.115468 0 -2.37637)
(0.12774 0 -2.34977)
(0.134859 0 -2.31753)
(0.138025 0 -2.28147)
(0.138475 0 -2.23763)
(0.135599 0 -2.17282)
(0.125256 0 -2.06715)