/*--------------------------------*- C++ -*----------------------------------*\
  =========                 |
  \\      /  F ield         | OpenFOAM: The Open Source CFD Toolbox
   \\    /   O peration     | Website:  https://openfoam.org
    \\  /    A nd           | Version:  9
     \\/     M anipulation  |
\*---------------------------------------------------------------------------*/
FoamFile
{
    format      ascii;
    class       surfaceVectorField;
    location    "0.13";
    object      Uf;
}
// * * * * * * * * * * * * * * * * * * * * * * * * * * * * * * * * * * * * * //

dimensions      [0 1 -1 0 0 0 0];

internalField   nonuniform List<vector> 
9850
(
(-0.300002 0 0.744653)
(-0.282201 0 0.709895)
(-0.314764 0 0.805262)
(-0.301841 0 0.789125)
(-0.315776 0 0.80833)
(-0.30877 0 0.825417)
(-0.308145 0 0.77091)
(-0.299943 0 0.787632)
(-0.304331 0 0.774125)
(-0.288897 0 0.748487)
(-0.307471 0 0.872088)
(-0.285609 0 0.796504)
(-0.310872 0 1.05251)
(-0.285449 0 0.94525)
(-0.309681 0 1.26974)
(-0.281051 0 1.15426)
(-0.290225 0 1.4177)
(-0.264807 0 1.37005)
(-0.203757 0 1.21814)
(-0.220263 0 1.41878)
(-0.0375028 0 0.33891)
(-0.126024 0 0.921131)
(0.0384644 0 -0.999839)
(0.121778 0 -0.33786)
(0.0548559 0 -1.90736)
(0.0872779 0 -1.72371)
(0.0115946 0 -2.18201)
(0.0359607 0 -2.10026)
(-0.016565 0 -2.24588)
(-0.00407999 0 -2.2332)
(-0.0336875 0 -2.24362)
(-0.030949 0 -2.24152)
(-0.0404212 0 -2.24553)
(-0.039524 0 -2.23817)
(-0.0391228 0 -2.26051)
(-0.0403937 0 -2.25144)
(-0.0323288 0 -2.27994)
(-0.036286 0 -2.27208)
(-0.0208108 0 -2.29803)
(-0.0282273 0 -2.29317)
(-0.00817021 0 -2.30778)
(-0.0174638 0 -2.30936)
(0.00520251 0 -2.3085)
(-0.0054033 0 -2.31592)
(0.0167356 0 -2.29952)
(0.00650625 0 -2.31125)
(0.0244575 0 -2.28327)
(0.0156934 0 -2.29642)
(0.0277197 0 -2.26418)
(0.0209862 0 -2.27584)
(0.026293 0 -2.2465)
(0.0224865 0 -2.25459)
(0.0198003 0 -2.22802)
(0.0198597 0 -2.23564)
(0.00837427 0 -2.19196)
(0.0109982 0 -2.21116)
(-0.00559001 0 -2.11438)
(-0.00590959 0 -2.15667)
(-0.013111 0 -1.96975)
(-0.0195966 0 -2.0576)
(0.00315139 0 -1.70411)
(-0.0244495 0 -1.88582)
(0.110926 0 -1.28152)
(0.00995373 0 -1.60246)
(0.264154 0 -0.764679)
(0.155714 0 -1.14368)
(0.4216 0 -0.241633)
(0.307412 0 -0.617081)
(0.570714 0 0.229039)
(0.458859 0 -0.106537)
(0.691007 0 0.591015)
(0.596451 0 0.338285)
(0.771946 0 0.814768)
(0.70043 0 0.660147)
(0.815423 0 0.913225)
(0.765482 0 0.844794)
(0.83109 0 0.923065)
(0.797155 0 0.914827)
(0.830243 0 0.883761)
(0.805806 0 0.909045)
(0.821766 0 0.82493)
(0.801725 0 0.864085)
(0.810909 0 0.763309)
(0.79231 0 0.805314)
(0.799948 0 0.705547)
(0.781577 0 0.746042)
(0.789418 0 0.652579)
(0.771065 0 0.69098)
(0.779143 0 0.603126)
(0.761009 0 0.640321)
(0.768821 0 0.555659)
(0.751151 0 0.592702)
(0.758256 0 0.50912)
(0.741296 0 0.546746)
(0.747394 0 0.462772)
(0.731022 0 0.501546)
(0.736284 0 0.414085)
(0.721576 0 0.456239)
(0.705617 0 0.407051)
(-0.284301 0 0.754404)
(-0.26826 0 0.719978)
(-0.295601 0 0.809318)
(-0.284779 0 0.796658)
(-0.292897 0 0.804806)
(-0.287875 0 0.823615)
(-0.28148 0 0.765405)
(-0.275862 0 0.780021)
(-0.271933 0 0.771219)
(-0.261139 0 0.742122)
(-0.265788 0 0.870282)
(-0.25112 0 0.792407)
(-0.256515 0 1.04794)
(-0.240442 0 0.939068)
(-0.238812 0 1.25608)
(-0.223893 0 1.14246)
(-0.20063 0 1.37523)
(-0.193383 0 1.3446)
(-0.103437 0 1.13145)
(-0.124303 0 1.35398)
(0.0488235 0 0.253204)
(-0.0307202 0 0.819625)
(0.118113 0 -1.05806)
(0.240905 0 -0.384053)
(0.0990971 0 -1.91284)
(0.144444 0 -1.71103)
(0.0207228 0 -2.1487)
(0.0510525 0 -2.04801)
(-0.0199847 0 -2.22832)
(-0.00846744 0 -2.20606)
(-0.0358965 0 -2.2359)
(-0.0351144 0 -2.23091)
(-0.0396523 0 -2.2441)
(-0.0381081 0 -2.23567)
(-0.03766 0 -2.26306)
(-0.0368159 0 -2.25277)
(-0.032453 0 -2.28539)
(-0.0336442 0 -2.27555)
(-0.0240388 0 -2.30623)
(-0.028467 0 -2.29878)
(-0.0144282 0 -2.31778)
(-0.0214939 0 -2.3172)
(-0.00366552 0 -2.31871)
(-0.0130938 0 -2.32513)
(0.00591933 0 -2.308)
(-0.00411738 0 -2.31985)
(0.0125009 0 -2.28877)
(0.00279621 0 -2.30262)
(0.0158622 0 -2.26602)
(0.00626749 0 -2.27916)
(0.0158142 0 -2.24353)
(0.00704246 0 -2.25454)
(0.0105395 0 -2.2184)
(0.00469862 0 -2.22991)
(-0.0025692 0 -2.17497)
(-0.00382898 0 -2.19622)
(-0.022246 0 -2.0968)
(-0.021045 0 -2.13314)
(-0.0381556 0 -1.96851)
(-0.0375828 0 -2.03765)
(-0.0235609 0 -1.77383)
(-0.0432321 0 -1.90502)
(0.0684418 0 -1.45009)
(-0.00348924 0 -1.72946)
(0.207112 0 -0.983866)
(0.115039 0 -1.34446)
(0.35147 0 -0.470114)
(0.25143 0 -0.836334)
(0.489461 0 0.0140041)
(0.389586 0 -0.326383)
(0.607678 0 0.415961)
(0.51872 0 0.140721)
(0.694317 0 0.695345)
(0.622956 0 0.508268)
(0.747026 0 0.848663)
(0.694481 0 0.747868)
(0.771459 0 0.90113)
(0.7346 0 0.8677)
(0.776856 0 0.888667)
(0.750488 0 0.898124)
(0.771914 0 0.843375)
(0.751177 0 0.874575)
(0.762691 0 0.786898)
(0.744265 0 0.825845)
(0.752441 0 0.730395)
(0.734599 0 0.769981)
(0.742406 0 0.677721)
(0.724548 0 0.715561)
(0.732771 0 0.628946)
(0.714892 0 0.665082)
(0.723335 0 0.582858)
(0.705627 0 0.618136)
(0.713877 0 0.538236)
(0.696604 0 0.573489)
(0.704279 0 0.49405)
(0.687421 0 0.530015)
(0.694529 0 0.448123)
(0.679047 0 0.486571)
(0.664914 0 0.440248)
(-0.268919 0 0.762293)
(-0.254822 0 0.728555)
(-0.276753 0 0.811056)
(-0.267935 0 0.80188)
(-0.270793 0 0.798972)
(-0.267518 0 0.819641)
(-0.256224 0 0.756936)
(-0.252961 0 0.770308)
(-0.241733 0 0.763602)
(-0.235217 0 0.732462)
(-0.227688 0 0.861681)
(-0.21954 0 0.783043)
(-0.20821 0 1.03437)
(-0.200288 0 0.926084)
(-0.177619 0 1.23186)
(-0.173941 0 1.12206)
(-0.125291 0 1.32463)
(-0.13438 0 1.30972)
(-0.0234657 0 1.04264)
(-0.047346 0 1.2861)
(0.133709 0 0.169704)
(0.0445073 0 0.714841)
(0.234725 0 -1.06563)
(0.310625 0 -0.451396)
(0.140813 0 -1.86076)
(0.233291 0 -1.64842)
(0.0218983 0 -2.10486)
(0.0724578 0 -1.96873)
(-0.025058 0 -2.21005)
(-0.0065348 0 -2.17475)
(-0.036343 0 -2.23098)
(-0.0318535 0 -2.22339)
(-0.0354343 0 -2.24461)
(-0.0304378 0 -2.23627)
(-0.0328539 0 -2.26545)
(-0.0282395 0 -2.25449)
(-0.029908 0 -2.28909)
(-0.0272953 0 -2.27751)
(-0.0254881 0 -2.31173)
(-0.0258083 0 -2.30172)
(-0.0200257 0 -2.32488)
(-0.0234554 0 -2.32166)
(-0.0131668 0 -2.32632)
(-0.0200049 0 -2.331)
(-0.00682539 0 -2.31433)
(-0.0152482 0 -2.32554)
(-0.00320945 0 -2.29287)
(-0.0116693 0 -2.30603)
(-0.00244654 0 -2.26766)
(-0.0120922 0 -2.27991)
(-0.00410425 0 -2.24117)
(-0.0158841 0 -2.25282)
(-0.00997334 0 -2.2083)
(-0.0220806 0 -2.22353)
(-0.0222043 0 -2.15428)
(-0.030935 0 -2.18227)
(-0.0395649 0 -2.07236)
(-0.0404767 0 -2.11238)
(-0.0526806 0 -1.96678)
(-0.0452629 0 -2.02119)
(-0.0227679 0 -1.84767)
(-0.0366011 0 -1.94439)
(0.0552712 0 -1.60543)
(0.0192358 0 -1.83718)
(0.16509 0 -1.17969)
(0.108539 0 -1.50347)
(0.29663 0 -0.680046)
(0.216929 0 -1.03612)
(0.423679 0 -0.188594)
(0.337189 0 -0.528797)
(0.536202 0 0.241977)
(0.45431 0 -0.0473269)
(0.623848 0 0.566707)
(0.554197 0 0.354623)
(0.682039 0 0.769947)
(0.627889 0 0.640862)
(0.713248 0 0.86558)
(0.67357 0 0.807502)
(0.724354 0 0.883613)
(0.695471 0 0.875653)
(0.723138 0 0.856014)
(0.70084 0 0.877156)
(0.715858 0 0.807719)
(0.696786 0 0.842051)
(0.70644 0 0.753963)
(0.68851 0 0.791977)
(0.696785 0 0.701815)
(0.679007 0 0.739211)
(0.687514 0 0.653221)
(0.669588 0 0.688906)
(0.678631 0 0.607727)
(0.660561 0 0.64208)
(0.669964 0 0.56419)
(0.651874 0 0.597994)
(0.661372 0 0.521361)
(0.643162 0 0.555498)
(0.652765 0 0.477351)
(0.635309 0 0.51335)
(0.622384 0 0.470744)
(-0.25396 0 0.768205)
(-0.241874 0 0.735413)
(-0.258371 0 0.81058)
(-0.251412 0 0.804821)
(-0.249615 0 0.791143)
(-0.247836 0 0.813804)
(-0.232567 0 0.746044)
(-0.231365 0 0.758943)
(-0.214086 0 0.752177)
(-0.211325 0 0.720141)
(-0.193718 0 0.847841)
(-0.191182 0 0.769463)
(-0.16662 0 1.01435)
(-0.165481 0 0.908019)
(-0.127297 0 1.20031)
(-0.131785 0 1.09585)
(-0.0654052 0 1.27059)
(-0.0876672 0 1.26845)
(0.0354817 0 0.956231)
(0.0067404 0 1.21884)
(0.185296 0 0.0844627)
(0.091897 0 0.614965)
(0.298767 0 -1.03719)
(0.284728 0 -0.527044)
(0.209784 0 -1.75393)
(0.284009 0 -1.5891)
(0.0454812 0 -2.0428)
(0.124759 0 -1.8592)
(-0.0146755 0 -2.19039)
(0.0244053 0 -2.13465)
(-0.025459 0 -2.22945)
(-0.00624666 0 -2.2162)
(-0.0231972 0 -2.2466)
(-0.0101352 0 -2.23778)
(-0.0226546 0 -2.26687)
(-0.0122255 0 -2.25485)
(-0.023428 0 -2.29035)
(-0.0159401 0 -2.277)
(-0.0238108 0 -2.31377)
(-0.0189192 0 -2.30147)
(-0.0234726 0 -2.32807)
(-0.0217477 0 -2.32193)
(-0.0217909 0 -2.33012)
(-0.0244704 0 -2.33244)
(-0.0197219 0 -2.31676)
(-0.0251807 0 -2.3274)
(-0.0204309 0 -2.29239)
(-0.0249892 0 -2.30536)
(-0.0254779 0 -2.26422)
(-0.0293591 0 -2.27492)
(-0.0334544 0 -2.23409)
(-0.0397718 0 -2.24455)
(-0.0427756 0 -2.19565)
(-0.0513469 0 -2.2134)
(-0.051627 0 -2.13893)
(-0.0567068 0 -2.17218)
(-0.0458844 0 -2.06355)
(-0.0503058 0 -2.11925)
(-0.0376058 0 -2.00126)
(-0.0287476 0 -2.03158)
(0.011162 0 -1.93868)
(-0.00172567 0 -2.00856)
(0.081139 0 -1.73677)
(0.0504841 0 -1.93377)
(0.163761 0 -1.34888)
(0.11519 0 -1.6231)
(0.263393 0 -0.869519)
(0.198631 0 -1.18744)
(0.372432 0 -0.375515)
(0.297043 0 -0.702518)
(0.47468 0 0.074978)
(0.398958 0 -0.218204)
(0.559213 0 0.435535)
(0.491295 0 0.206433)
(0.619519 0 0.682278)
(0.564033 0 0.529967)
(0.655449 0 0.819087)
(0.612888 0 0.738197)
(0.671502 0 0.869143)
(0.639597 0 0.843171)
(0.674081 0 0.862307)
(0.649459 0 0.871682)
(0.669108 0 0.825119)
(0.648637 0 0.853123)
(0.660808 0 0.776036)
(0.642262 0 0.811361)
(0.651575 0 0.725255)
(0.633707 0 0.761829)
(0.642427 0 0.676916)
(0.624735 0 0.712413)
(0.633584 0 0.631728)
(0.615994 0 0.665916)
(0.624919 0 0.588963)
(0.607599 0 0.622495)
(0.616221 0 0.5475)
(0.599252 0 0.581295)
(0.607416 0 0.507289)
(0.592172 0 0.540744)
(0.582661 0 0.496602)
(-0.239393 0 0.772097)
(-0.229287 0 0.740393)
(-0.24053 0 0.808142)
(-0.235231 0 0.80558)
(-0.229488 0 0.78175)
(-0.228912 0 0.806442)
(-0.21066 0 0.733252)
(-0.211145 0 0.746391)
(-0.189199 0 0.737707)
(-0.189547 0 0.705835)
(-0.164098 0 0.829981)
(-0.166119 0 0.752729)
(-0.131708 0 0.989959)
(-0.136 0 0.886426)
(-0.0875866 0 1.16444)
(-0.0974256 0 1.06643)
(-0.0221558 0 1.21639)
(-0.0521728 0 1.22483)
(0.0722246 0 0.878825)
(0.0387105 0 1.15592)
(0.186315 0 0.00731024)
(0.113756 0 0.538906)
(0.276007 0 -1.05228)
(0.222111 0 -0.586839)
(0.212421 0 -1.68227)
(0.265469 0 -1.54671)
(0.112433 0 -1.96417)
(0.178136 0 -1.79254)
(0.0337816 0 -2.16192)
(0.0877792 0 -2.08222)
(0.00803672 0 -2.22526)
(0.0446798 0 -2.19903)
(0.0011322 0 -2.24595)
(0.0243008 0 -2.23318)
(-0.00540386 0 -2.26503)
(0.0113777 0 -2.25049)
(-0.0116496 0 -2.28819)
(0.00104944 0 -2.27283)
(-0.017401 0 -2.31171)
(-0.00650505 0 -2.29763)
(-0.0229718 0 -2.32654)
(-0.0148277 0 -2.31739)
(-0.027667 0 -2.32947)
(-0.0247638 0 -2.32842)
(-0.0302091 0 -2.3151)
(-0.0322542 0 -2.32512)
(-0.0339641 0 -2.28646)
(-0.034782 0 -2.30182)
(-0.0435019 0 -2.25346)
(-0.0392137 0 -2.2655)
(-0.0567282 0 -2.22135)
(-0.0510654 0 -2.23085)
(-0.0660898 0 -2.18676)
(-0.0618111 0 -2.20322)
(-0.0591928 0 -2.14453)
(-0.0579624 0 -2.18004)
(-0.0302175 0 -2.08504)
(-0.0309015 0 -2.1539)
(0.00229197 0 -2.04864)
(0.0232517 0 -2.07236)
(0.0419093 0 -2.01118)
(0.057677 0 -2.06069)
(0.0893518 0 -1.8239)
(0.072744 0 -1.99925)
(0.155841 0 -1.46364)
(0.113627 0 -1.71937)
(0.236959 0 -1.01582)
(0.181164 0 -1.31065)
(0.327344 0 -0.536332)
(0.259653 0 -0.846517)
(0.417939 0 -0.0783157)
(0.346375 0 -0.369607)
(0.497289 0 0.307534)
(0.430233 0 0.0673317)
(0.557592 0 0.590111)
(0.500423 0 0.419077)
(0.596747 0 0.764241)
(0.551048 0 0.662671)
(0.617127 0 0.845982)
(0.581755 0 0.801935)
(0.623614 0 0.861745)
(0.596015 0 0.857915)
(0.621464 0 0.838132)
(0.598865 0 0.85791)
(0.614901 0 0.795788)
(0.595074 0 0.826688)
(0.606647 0 0.747646)
(0.588156 0 0.78205)
(0.598103 0 0.700115)
(0.580203 0 0.734369)
(0.589797 0 0.655336)
(0.572167 0 0.688305)
(0.581821 0 0.613231)
(0.564328 0 0.645049)
(0.574164 0 0.572374)
(0.556373 0 0.604003)
(0.567217 0 0.526741)
(0.549967 0 0.562357)
(0.543678 0 0.503407)
(-0.225136 0 0.773954)
(-0.216902 0 0.743428)
(-0.223247 0 0.803976)
(-0.219382 0 0.80432)
(-0.210448 0 0.771212)
(-0.210777 0 0.79791)
(-0.190514 0 0.719154)
(-0.192296 0 0.733102)
(-0.167042 0 0.721091)
(-0.169837 0 0.690187)
(-0.138691 0 0.809438)
(-0.144199 0 0.733829)
(-0.103049 0 0.963234)
(-0.111407 0 0.862665)
(-0.0573473 0 1.12743)
(-0.0701871 0 1.03596)
(0.00588208 0 1.16542)
(-0.0258976 0 1.18268)
(0.0862777 0 0.817732)
(0.0553907 0 1.10232)
(0.164092 0 -0.0486432)
(0.119606 0 0.487029)
(0.213596 0 -1.0802)
(0.179569 0 -0.619842)
(0.208597 0 -1.685)
(0.20854 0 -1.54338)
(0.176019 0 -1.92937)
(0.158849 0 -1.77082)
(0.104732 0 -2.11492)
(0.141599 0 -2.03469)
(0.0579146 0 -2.20726)
(0.100462 0 -2.16782)
(0.0345664 0 -2.23749)
(0.0632978 0 -2.21761)
(0.0181062 0 -2.25805)
(0.0386301 0 -2.23952)
(0.00603092 0 -2.28216)
(0.0230886 0 -2.26478)
(-0.00500332 0 -2.30522)
(0.0120938 0 -2.29028)
(-0.0170626 0 -2.31946)
(-0.00181991 0 -2.30755)
(-0.0292819 0 -2.32396)
(-0.0192665 0 -2.31797)
(-0.0368364 0 -2.31139)
(-0.0346234 0 -2.31834)
(-0.0402441 0 -2.28032)
(-0.0410388 0 -2.29861)
(-0.0464769 0 -2.2424)
(-0.0424926 0 -2.25935)
(-0.0556115 0 -2.21266)
(-0.0479909 0 -2.22138)
(-0.0549684 0 -2.19594)
(-0.051511 0 -2.20392)
(-0.0310188 0 -2.18136)
(-0.0418487 0 -2.20735)
(0.0318409 0 -2.12678)
(-0.00657247 0 -2.22908)
(0.0686785 0 -2.08073)
(0.0357167 0 -2.11857)
(0.0861637 0 -2.04754)
(0.0799709 0 -2.0837)
(0.100338 0 -1.88722)
(0.0832696 0 -2.01882)
(0.147563 0 -1.559)
(0.0972143 0 -1.78775)
(0.206788 0 -1.13385)
(0.144737 0 -1.4006)
(0.281537 0 -0.671942)
(0.212689 0 -0.965607)
(0.361129 0 -0.215797)
(0.29043 0 -0.502621)
(0.434609 0 0.185653)
(0.367772 0 -0.0614802)
(0.494179 0 0.496116)
(0.435381 0 0.309535)
(0.535863 0 0.702736)
(0.487207 0 0.582266)
(0.560278 0 0.814493)
(0.521455 0 0.752535)
(0.570898 0 0.853527)
(0.540059 0 0.835375)
(0.572173 0 0.845277)
(0.54696 0 0.855071)
(0.568099 0 0.811534)
(0.546422 0 0.836201)
(0.561536 0 0.767404)
(0.54193 0 0.798127)
(0.554133 0 0.721448)
(0.535812 0 0.753392)
(0.546591 0 0.677413)
(0.529332 0 0.708634)
(0.539005 0 0.63613)
(0.523033 0 0.666496)
(0.531164 0 0.59589)
(0.516807 0 0.627259)
(0.523236 0 0.543424)
(0.512768 0 0.587021)
(0.510028 0 0.495534)
(-0.211104 0 0.773871)
(-0.204561 0 0.744567)
(-0.206528 0 0.798348)
(-0.203864 0 0.80127)
(-0.192484 0 0.759917)
(-0.193455 0 0.788547)
(-0.172052 0 0.704287)
(-0.174771 0 0.71948)
(-0.147444 0 0.703122)
(-0.152072 0 0.673781)
(-0.117139 0 0.787282)
(-0.125166 0 0.713625)
(-0.0798636 0 0.935656)
(-0.0910641 0 0.837814)
(-0.0346493 0 1.09171)
(-0.0488517 0 1.00582)
(0.0232244 0 1.12021)
(-0.00636454 0 1.1441)
(0.0911815 0 0.771393)
(0.0649852 0 1.05702)
(0.145423 0 -0.0829091)
(0.11892 0 0.450868)
(0.161008 0 -1.09407)
(0.159065 0 -0.630231)
(0.174462 0 -1.6309)
(0.133038 0 -1.55235)
(0.110206 0 -1.84589)
(0.113081 0 -1.72798)
(0.144523 0 -2.06566)
(0.149082 0 -2.05757)
(0.103354 0 -2.17539)
(0.130399 0 -2.14038)
(0.0669874 0 -2.21987)
(0.0921229 0 -2.19337)
(0.044015 0 -2.24672)
(0.0648816 0 -2.22421)
(0.0291319 0 -2.27323)
(0.0492496 0 -2.25486)
(0.0135993 0 -2.29437)
(0.0362041 0 -2.27992)
(-0.0046577 0 -2.30614)
(0.0168653 0 -2.29265)
(-0.0246812 0 -2.31223)
(-0.00631426 0 -2.30083)
(-0.0391976 0 -2.30559)
(-0.0282853 0 -2.3053)
(-0.0438649 0 -2.27831)
(-0.0428063 0 -2.29422)
(-0.042911 0 -2.23863)
(-0.0489953 0 -2.26029)
(-0.0442846 0 -2.21238)
(-0.0503711 0 -2.21996)
(-0.0381176 0 -2.21485)
(-0.046762 0 -2.21062)
(-0.0126853 0 -2.23142)
(-0.0284036 0 -2.23634)
(-0.00200324 0 -2.19487)
(-0.00757189 0 -2.24185)
(0.0456256 0 -2.12453)
(0.0101941 0 -2.17832)
(0.0754603 0 -2.06198)
(0.05842 0 -2.12296)
(0.0859772 0 -1.91216)
(0.0718663 0 -2.03334)
(0.0958267 0 -1.62044)
(0.0662089 0 -1.80201)
(0.153522 0 -1.23071)
(0.0929623 0 -1.48823)
(0.225041 0 -0.790195)
(0.157146 0 -1.07955)
(0.299565 0 -0.340646)
(0.231531 0 -0.627165)
(0.369831 0 0.0693981)
(0.304738 0 -0.184659)
(0.428867 0 0.400949)
(0.370121 0 0.200976)
(0.472746 0 0.635223)
(0.422569 0 0.497628)
(0.500953 0 0.774685)
(0.459672 0 0.695462)
(0.515797 0 0.836785)
(0.482204 0 0.80387)
(0.520931 0 0.844969)
(0.493105 0 0.843643)
(0.520033 0 0.821256)
(0.496047 0 0.838298)
(0.516032 0 0.782247)
(0.494342 0 0.807929)
(0.51087 0 0.738347)
(0.490433 0 0.766658)
(0.505646 0 0.69486)
(0.485833 0 0.722716)
(0.500906 0 0.653588)
(0.481362 0 0.679897)
(0.49694 0 0.612112)
(0.477205 0 0.639021)
(0.494463 0 0.527776)
(0.47498 0 0.594728)
(0.473986 0 0.458791)
(-0.197233 0 0.772038)
(-0.192155 0 0.743984)
(-0.190397 0 0.791556)
(-0.188714 0 0.796712)
(-0.175585 0 0.748217)
(-0.176987 0 0.778672)
(-0.155173 0 0.689107)
(-0.158527 0 0.705873)
(-0.130178 0 0.684451)
(-0.136109 0 0.657118)
(-0.0989814 0 0.764342)
(-0.10873 0 0.692828)
(-0.0612321 0 0.908128)
(-0.0743418 0 0.812648)
(-0.0173219 0 1.05829)
(-0.0322031 0 0.976547)
(0.0354988 0 1.08074)
(0.00839909 0 1.10889)
(0.0942327 0 0.734722)
(0.0723604 0 1.01786)
(0.135846 0 -0.100408)
(0.118552 0 0.423126)
(0.12563 0 -1.0917)
(0.146908 0 -0.62342)
(0.094185 0 -1.64158)
(0.0942264 0 -1.53139)
(0.1409 0 -1.89343)
(0.110103 0 -1.75913)
(0.121795 0 -2.08814)
(0.122091 0 -2.04483)
(0.11957 0 -2.15051)
(0.111717 0 -2.13889)
(0.0894648 0 -2.19664)
(0.104147 0 -2.1733)
(0.0702098 0 -2.23312)
(0.0915474 0 -2.21137)
(0.0566442 0 -2.2622)
(0.0787733 0 -2.24582)
(0.0372186 0 -2.27935)
(0.0623195 0 -2.26697)
(0.0144059 0 -2.28718)
(0.0383867 0 -2.27404)
(-0.0100279 0 -2.29323)
(0.0142524 0 -2.27992)
(-0.032996 0 -2.29212)
(-0.00751598 0 -2.28469)
(-0.0474994 0 -2.27157)
(-0.0304297 0 -2.28056)
(-0.0570023 0 -2.23719)
(-0.0505464 0 -2.2509)
(-0.0543609 0 -2.21751)
(-0.0583404 0 -2.2227)
(-0.0364757 0 -2.23353)
(-0.065563 0 -2.23006)
(-0.0187284 0 -2.26468)
(-0.0303832 0 -2.25658)
(-0.00376861 0 -2.24016)
(-0.00703754 0 -2.25974)
(0.032151 0 -2.17128)
(0.0216758 0 -2.22338)
(0.0590117 0 -2.08516)
(0.052648 0 -2.15831)
(0.0570427 0 -1.91737)
(0.0542353 0 -2.03062)
(0.0563316 0 -1.6619)
(0.046713 0 -1.80098)
(0.101726 0 -1.32355)
(0.0636669 0 -1.55717)
(0.168064 0 -0.904647)
(0.114118 0 -1.18524)
(0.239062 0 -0.460434)
(0.179726 0 -0.745817)
(0.306406 0 -0.0439248)
(0.247122 0 -0.302716)
(0.364442 0 0.304538)
(0.30895 0 0.0942555)
(0.409578 0 0.56236)
(0.360485 0 0.410565)
(0.440726 0 0.726995)
(0.398973 0 0.632439)
(0.459238 0 0.811443)
(0.424309 0 0.764579)
(0.467964 0 0.836622)
(0.438486 0 0.824215)
(0.470136 0 0.824044)
(0.444483 0 0.833225)
(0.468547 0 0.791193)
(0.44527 0 0.81182)
(0.465208 0 0.749902)
(0.443215 0 0.775239)
(0.461345 0 0.706844)
(0.439909 0 0.733129)
(0.457573 0 0.664877)
(0.436263 0 0.69056)
(0.454048 0 0.621968)
(0.432579 0 0.649478)
(0.450669 0 0.525717)
(0.429553 0 0.605239)
(0.426483 0 0.453231)
(-0.183511 0 0.768726)
(-0.179641 0 0.741966)
(-0.17491 0 0.783908)
(-0.174012 0 0.790978)
(-0.15976 0 0.736422)
(-0.161442 0 0.768572)
(-0.139788 0 0.673994)
(-0.14354 0 0.692558)
(-0.115017 0 0.665621)
(-0.121821 0 0.640603)
(-0.083775 0 0.741258)
(-0.094636 0 0.672)
(-0.0463618 0 0.88112)
(-0.0607693 0 0.787706)
(-0.00400452 0 1.027)
(-0.0194501 0 0.948308)
(0.0450821 0 1.04555)
(0.019392 0 1.07616)
(0.0978671 0 0.704944)
(0.078287 0 0.98267)
(0.132265 0 -0.104509)
(0.119691 0 0.400194)
(0.116553 0 -1.07206)
(0.140204 0 -0.612945)
(0.093983 0 -1.64965)
(0.0949129 0 -1.51634)
(0.125142 0 -1.93195)
(0.127109 0 -1.7799)
(0.105299 0 -2.11375)
(0.113347 0 -2.0316)
(0.0834437 0 -2.15327)
(0.0828608 0 -2.12432)
(0.107378 0 -2.18492)
(0.119867 0 -2.18925)
(0.100186 0 -2.21927)
(0.116362 0 -2.20657)
(0.0849819 0 -2.24716)
(0.103062 0 -2.23568)
(0.0611779 0 -2.26049)
(0.0811666 0 -2.2511)
(0.0373503 0 -2.26562)
(0.056668 0 -2.2546)
(0.0156482 0 -2.27065)
(0.038519 0 -2.26135)
(-0.00605409 0 -2.27051)
(0.022251 0 -2.2652)
(-0.0317037 0 -2.25574)
(-0.00552319 0 -2.25641)
(-0.0507019 0 -2.23195)
(-0.0370959 0 -2.23214)
(-0.0834999 0 -2.23425)
(-0.0436744 0 -2.18871)
(-0.0509933 0 -2.25866)
(-0.0463762 0 -2.26539)
(-0.0166645 0 -2.27653)
(-0.0177236 0 -2.29571)
(0.016979 0 -2.26697)
(0.00665679 0 -2.29998)
(0.0492882 0 -2.20964)
(0.0258625 0 -2.26391)
(0.0509619 0 -2.09569)
(0.0357989 0 -2.16051)
(0.0407185 0 -1.91343)
(0.0331006 0 -2.01648)
(0.0539109 0 -1.69163)
(0.0392782 0 -1.82008)
(0.079987 0 -1.40185)
(0.0567951 0 -1.59678)
(0.129289 0 -1.01033)
(0.0893709 0 -1.26379)
(0.190147 0 -0.574172)
(0.140642 0 -0.847523)
(0.251056 0 -0.153113)
(0.199123 0 -0.409491)
(0.305706 0 0.208894)
(0.255311 0 -0.00623872)
(0.350048 0 0.486543)
(0.303968 0 0.325033)
(0.382429 0 0.673523)
(0.342008 0 0.566922)
(0.403332 0 0.778993)
(0.368626 0 0.720214)
(0.414781 0 0.821207)
(0.384958 0 0.798727)
(0.419427 0 0.820679)
(0.393257 0 0.822375)
(0.419781 0 0.795251)
(0.39604 0 0.810953)
(0.417788 0 0.757842)
(0.395485 0 0.780361)
(0.414726 0 0.716387)
(0.393177 0 0.741382)
(0.411294 0 0.674963)
(0.390094 0 0.700264)
(0.407693 0 0.632692)
(0.386685 0 0.66016)
(0.40383 0 0.53)
(0.383559 0 0.617254)
(0.380209 0 0.452283)
(-0.169989 0 0.764279)
(-0.167061 0 0.738896)
(-0.160161 0 0.775713)
(-0.159885 0 0.784426)
(-0.145049 0 0.72479)
(-0.146917 0 0.758497)
(-0.125837 0 0.659256)
(-0.129814 0 0.67975)
(-0.101778 0 0.647074)
(-0.109105 0 0.624564)
(-0.0711959 0 0.71853)
(-0.0826819 0 0.651612)
(-0.0348014 0 0.854944)
(-0.050024 0 0.763443)
(0.00557502 0 0.997353)
(-0.0102627 0 0.921391)
(0.0519751 0 1.01296)
(0.0266902 0 1.04523)
(0.101034 0 0.67783)
(0.0813746 0 0.949964)
(0.130637 0 -0.108974)
(0.119869 0 0.380458)
(0.122451 0 -1.05887)
(0.138522 0 -0.607488)
(0.111263 0 -1.65183)
(0.112384 0 -1.50888)
(0.141995 0 -1.90955)
(0.143213 0 -1.80039)
(0.0911482 0 -2.07734)
(0.133573 0 -1.99771)
(0.0936102 0 -2.16263)
(0.0862878 0 -2.12597)
(0.143967 0 -2.19923)
(0.109044 0 -2.22282)
(0.12199 0 -2.21472)
(0.113456 0 -2.19192)
(0.0978648 0 -2.23436)
(0.108263 0 -2.2196)
(0.073444 0 -2.24428)
(0.0868727 0 -2.23482)
(0.0572397 0 -2.24981)
(0.0647422 0 -2.24138)
(0.0450613 0 -2.25471)
(0.051453 0 -2.25092)
(0.0240972 0 -2.25172)
(0.0350773 0 -2.24638)
(-0.00929984 0 -2.23481)
(0.00973064 0 -2.22496)
(-0.0305 0 -2.20409)
(-0.0154733 0 -2.21119)
(-0.0152552 0 -2.23178)
(-0.0121491 0 -2.20451)
(-0.00681666 0 -2.29328)
(0.00207203 0 -2.27456)
(0.00681572 0 -2.31071)
(0.00606894 0 -2.31126)
(0.0165817 0 -2.28958)
(0.00794608 0 -2.31166)
(0.0170111 0 -2.21501)
(0.00353125 0 -2.26445)
(0.0187592 0 -2.08937)
(0.000479421 0 -2.16281)
(0.0271606 0 -1.92216)
(0.00775113 0 -2.02808)
(0.0474651 0 -1.71939)
(0.0297597 0 -1.84948)
(0.0675844 0 -1.45218)
(0.0526795 0 -1.62734)
(0.103316 0 -1.09107)
(0.0752074 0 -1.32071)
(0.152125 0 -0.671652)
(0.112426 0 -0.929094)
(0.204866 0 -0.252191)
(0.160241 0 -0.501947)
(0.254348 0 0.118512)
(0.209388 0 -0.0972301)
(0.29617 0 0.411713)
(0.253798 0 0.244364)
(0.328144 0 0.617658)
(0.28998 0 0.502226)
(0.350074 0 0.742111)
(0.316567 0 0.67367)
(0.363241 0 0.800691)
(0.333985 0 0.769411)
(0.369704 0 0.812581)
(0.343823 0 0.807282)
(0.371616 0 0.795531)
(0.348114 0 0.806271)
(0.37078 0 0.763164)
(0.348769 0 0.782509)
(0.368483 0 0.724446)
(0.347278 0 0.747572)
(0.365502 0 0.684591)
(0.344585 0 0.708692)
(0.36215 0 0.643592)
(0.341184 0 0.670101)
(0.358634 0 0.535296)
(0.338291 0 0.628195)
(0.336466 0 0.451529)
(-0.156784 0 0.759095)
(-0.154537 0 0.735224)
(-0.146277 0 0.76727)
(-0.146494 0 0.777422)
(-0.13151 0 0.713526)
(-0.133524 0 0.748652)
(-0.113284 0 0.64513)
(-0.117367 0 0.667601)
(-0.0903243 0 0.629172)
(-0.0978804 0 0.609257)
(-0.0610138 0 0.696585)
(-0.0727045 0 0.632072)
(-0.0262706 0 0.829904)
(-0.0418635 0 0.740281)
(0.011939 0 0.969273)
(-0.00444569 0 0.895917)
(0.0552258 0 0.982309)
(0.0301801 0 1.01637)
(0.100925 0 0.652493)
(0.08087 0 0.919498)
(0.130049 0 -0.117869)
(0.117921 0 0.361043)
(0.132541 0 -1.05648)
(0.141137 0 -0.60915)
(0.129398 0 -1.65838)
(0.131882 0 -1.50679)
(0.155865 0 -1.89243)
(0.149436 0 -1.81803)
(0.113412 0 -2.04572)
(0.145384 0 -1.9694)
(0.0903669 0 -2.18355)
(0.100861 0 -2.1106)
(0.0903453 0 -2.22517)
(0.0751908 0 -2.22281)
(0.103962 0 -2.21021)
(0.0809347 0 -2.201)
(0.0956135 0 -2.22641)
(0.0884379 0 -2.21403)
(0.0751198 0 -2.23566)
(0.0736297 0 -2.22116)
(0.0581787 0 -2.24288)
(0.0558113 0 -2.22756)
(0.0418634 0 -2.2424)
(0.0447848 0 -2.23696)
(0.0224704 0 -2.22415)
(0.031514 0 -2.22897)
(0.00532585 0 -2.20577)
(0.0184309 0 -2.20882)
(-0.0013743 0 -2.20139)
(0.0101783 0 -2.20458)
(0.011942 0 -2.24167)
(0.0163579 0 -2.21831)
(0.0112282 0 -2.29719)
(0.0221311 0 -2.27379)
(0.00577788 0 -2.3121)
(0.00981194 0 -2.30504)
(-0.00325752 0 -2.28399)
(-0.00414362 0 -2.30085)
(-0.012776 0 -2.20836)
(-0.0174849 0 -2.25251)
(-0.0108513 0 -2.09637)
(-0.0226634 0 -2.16534)
(0.00901541 0 -1.94931)
(-0.0107878 0 -2.0555)
(0.0389165 0 -1.75226)
(0.0200254 0 -1.89278)
(0.0614432 0 -1.4897)
(0.0496545 0 -1.66155)
(0.0863876 0 -1.14965)
(0.0672294 0 -1.36046)
(0.122858 0 -0.749568)
(0.0920035 0 -0.990043)
(0.166312 0 -0.337541)
(0.128659 0 -0.578123)
(0.209665 0 0.036728)
(0.170005 0 -0.176952)
(0.247929 0 0.341079)
(0.209417 0 0.170557)
(0.278416 0 0.562415)
(0.242886 0 0.44054)
(0.300353 0 0.703359)
(0.268549 0 0.627112)
(0.314408 0 0.777025)
(0.286265 0 0.738119)
(0.322092 0 0.801099)
(0.297063 0 0.789336)
(0.325167 0 0.792899)
(0.302534 0 0.798738)
(0.325209 0 0.766427)
(0.304318 0 0.782403)
(0.323387 0 0.731466)
(0.303789 0 0.752483)
(0.320406 0 0.694274)
(0.30184 0 0.71712)
(0.316534 0 0.655412)
(0.298968 0 0.681585)
(0.313154 0 0.542661)
(0.297482 0 0.638709)
(0.30022 0 0.437124)
(-0.144062 0 0.753592)
(-0.142259 0 0.731422)
(-0.133405 0 0.758852)
(-0.13402 0 0.770317)
(-0.119214 0 0.702782)
(-0.121377 0 0.739191)
(-0.102107 0 0.631787)
(-0.106221 0 0.656196)
(-0.0805425 0 0.612215)
(-0.0880685 0 0.59488)
(-0.0530275 0 0.675825)
(-0.0645404 0 0.613728)
(-0.0206135 0 0.806344)
(-0.0360734 0 0.718672)
(0.0148378 0 0.943079)
(-0.00169591 0 0.872283)
(0.0547394 0 0.953633)
(0.030032 0 0.98977)
(0.098378 0 0.627884)
(0.0773973 0 0.890405)
(0.130338 0 -0.130398)
(0.114038 0 0.339736)
(0.144335 0 -1.05875)
(0.145193 0 -0.618482)
(0.142056 0 -1.66414)
(0.146825 0 -1.50527)
(0.152827 0 -1.88917)
(0.146561 0 -1.82521)
(0.12274 0 -2.02709)
(0.141213 0 -1.94935)
(0.0870965 0 -2.16043)
(0.109906 0 -2.08684)
(0.0614186 0 -2.20998)
(0.0712095 0 -2.20569)
(0.0696575 0 -2.20206)
(0.0592573 0 -2.20649)
(0.0659031 0 -2.20883)
(0.065928 0 -2.21153)
(0.0528531 0 -2.2155)
(0.0575586 0 -2.21246)
(0.0412778 0 -2.22521)
(0.0474071 0 -2.21812)
(0.0330539 0 -2.2267)
(0.0400036 0 -2.22992)
(0.0277881 0 -2.21156)
(0.0330407 0 -2.22425)
(0.0252686 0 -2.20193)
(0.0303831 0 -2.20644)
(0.0258317 0 -2.21243)
(0.0321657 0 -2.20513)
(0.0302808 0 -2.24625)
(0.0370507 0 -2.22292)
(0.0180938 0 -2.2833)
(0.0313699 0 -2.26054)
(-0.00120102 0 -2.29444)
(0.00901225 0 -2.28305)
(-0.0185329 0 -2.27033)
(-0.0162417 0 -2.28012)
(-0.0260647 0 -2.20834)
(-0.0370136 0 -2.24306)
(-0.0221073 0 -2.12017)
(-0.0476702 0 -2.17055)
(-0.000630615 0 -1.99557)
(-0.0423981 0 -2.08515)
(0.0348676 0 -1.7987)
(-0.0133155 0 -1.94418)
(0.0569737 0 -1.52597)
(0.0248277 0 -1.69513)
(0.0738042 0 -1.19251)
(0.0480034 0 -1.38727)
(0.0996106 0 -0.809224)
(0.0704134 0 -1.03317)
(0.133787 0 -0.408314)
(0.100274 0 -0.638035)
(0.170587 0 -0.0350827)
(0.135064 0 -0.244622)
(0.204745 0 0.276308)
(0.169667 0 0.10467)
(0.233093 0 0.509599)
(0.200151 0 0.383181)
(0.254381 0 0.664455)
(0.224394 0 0.581929)
(0.268785 0 0.751576)
(0.241869 0 0.706053)
(0.277373 0 0.787076)
(0.253186 0 0.76928)
(0.281583 0 0.787629)
(0.259575 0 0.788424)
(0.282823 0 0.767336)
(0.26243 0 0.779216)
(0.282243 0 0.736556)
(0.263012 0 0.754047)
(0.280655 0 0.702282)
(0.262192 0 0.721611)
(0.278641 0 0.661669)
(0.260436 0 0.687557)
(0.278643 0 0.525157)
(0.260351 0 0.638703)
(0.266038 0 0.404271)
(-0.132028 0 0.748179)
(-0.130475 0 0.727944)
(-0.121688 0 0.750694)
(-0.122643 0 0.763424)
(-0.108222 0 0.69265)
(-0.110566 0 0.730213)
(-0.0922698 0 0.619339)
(-0.0963728 0 0.645562)
(-0.0723079 0 0.596444)
(-0.0795729 0 0.581572)
(-0.0470272 0 0.656627)
(-0.0579959 0 0.596874)
(-0.0175682 0 0.784671)
(-0.0324146 0 0.699032)
(0.0145278 0 0.91902)
(-0.00169669 0 0.850885)
(0.0511459 0 0.926577)
(0.0263924 0 0.965358)
(0.0937563 0 0.602638)
(0.070737 0 0.861998)
(0.128727 0 -0.147605)
(0.107313 0 0.316423)
(0.152212 0 -1.06395)
(0.146484 0 -0.634138)
(0.146236 0 -1.66443)
(0.153551 0 -1.50128)
(0.141247 0 -1.88399)
(0.136074 0 -1.82189)
(0.122288 0 -2.00985)
(0.12712 0 -1.93671)
(0.0964277 0 -2.13449)
(0.112117 0 -2.0696)
(0.0633481 0 -2.19853)
(0.0808504 0 -2.18364)
(0.0602706 0 -2.20733)
(0.0592866 0 -2.20444)
(0.055979 0 -2.20881)
(0.0587914 0 -2.20867)
(0.0506413 0 -2.21144)
(0.0547601 0 -2.2089)
(0.0463548 0 -2.22006)
(0.0508307 0 -2.21462)
(0.0388337 0 -2.22375)
(0.045756 0 -2.22349)
(0.0351147 0 -2.21465)
(0.0399093 0 -2.22091)
(0.0389051 0 -2.20779)
(0.0401037 0 -2.21001)
(0.0424498 0 -2.21582)
(0.0448804 0 -2.20863)
(0.0396395 0 -2.23741)
(0.046881 0 -2.22001)
(0.0206587 0 -2.25938)
(0.0362235 0 -2.23991)
(-0.00696026 0 -2.26596)
(0.0117403 0 -2.25156)
(-0.0352112 0 -2.24781)
(-0.0181639 0 -2.24634)
(-0.0568225 0 -2.19884)
(-0.0471596 0 -2.21595)
(-0.0665631 0 -2.13036)
(-0.0687849 0 -2.15773)
(-0.0558187 0 -2.02918)
(-0.0755499 0 -2.09998)
(-0.0222801 0 -1.84015)
(-0.0551322 0 -1.99274)
(0.0173067 0 -1.55884)
(-0.0101142 0 -1.75525)
(0.0461381 0 -1.22577)
(0.022999 0 -1.4332)
(0.0727119 0 -0.855669)
(0.0476398 0 -1.07758)
(0.10285 0 -0.466433)
(0.0741056 0 -0.690869)
(0.134988 0 -0.0972018)
(0.103893 0 -0.303719)
(0.165501 0 0.217886)
(0.134092 0 0.0458151)
(0.191581 0 0.460108)
(0.161446 0 0.330412)
(0.211838 0 0.626406)
(0.183861 0 0.538934)
(0.226153 0 0.725193)
(0.200586 0 0.674184)
(0.235258 0 0.770994)
(0.211913 0 0.748015)
(0.240307 0 0.779667)
(0.218753 0 0.776055)
(0.242511 0 0.765167)
(0.222247 0 0.773552)
(0.242912 0 0.73816)
(0.223489 0 0.752965)
(0.24227 0 0.705961)
(0.223238 0 0.723426)
(0.241204 0 0.663471)
(0.221846 0 0.69072)
(0.241982 0 0.512671)
(0.221936 0 0.636282)
(0.227752 0 0.381847)
(-0.120905 0 0.743212)
(-0.11947 0 0.725173)
(-0.111251 0 0.742972)
(-0.112528 0 0.756988)
(-0.0985615 0 0.68316)