/*--------------------------------*- C++ -*----------------------------------*\
  =========                 |
  \\      /  F ield         | OpenFOAM: The Open Source CFD Toolbox
   \\    /   O peration     | Website:  https://openfoam.org
    \\  /    A nd           | Version:  9
     \\/     M anipulation  |
\*---------------------------------------------------------------------------*/
FoamFile
{
    format      ascii;
    class       surfaceScalarField;
    location    "0.16";
    object      alphaPhi0.water;
}
// * * * * * * * * * * * * * * * * * * * * * * * * * * * * * * * * * * * * * //

dimensions      [0 3 -1 0 0 0 0];

internalField   nonuniform List<scalar> 
9850
(
-1.09796e-76
-7.45718e-76
-5.69928e-76
-4.06969e-75
-3.7285e-75
-2.79878e-74
-2.53166e-74
-1.9981e-73
-1.77997e-73
-1.47754e-72
-1.29588e-72
-1.13178e-71
-9.76941e-72
-8.9808e-71
-7.62663e-71
-7.38282e-70
-6.16526e-70
-6.28766e-69
-5.1606e-69
-5.54755e-68
-4.47234e-68
-5.0701e-67
-4.01217e-67
-4.7991e-66
-3.72498e-66
-4.70347e-65
-3.57784e-65
-4.77128e-64
-3.55367e-64
-5.00733e-63
-3.64801e-63
-5.43354e-62
-3.86791e-62
-6.09216e-61
-4.23273e-61
-7.05248e-60
-4.77674e-60
-8.42245e-59
-5.55434e-59
-1.03681e-57
-6.64853e-58
-1.31453e-56
-8.18489e-57
-1.71535e-55
-1.03539e-55
-2.30254e-54
-1.34474e-54
-3.17826e-53
-1.79181e-53
-4.51067e-52
-2.44796e-52
-6.58202e-51
-3.42719e-51
-9.87463e-50
-4.91387e-50
-1.52256e-48
-7.20837e-49
-2.41055e-47
-1.08004e-47
-3.91191e-46
-1.63977e-46
-7.57951e-45
-2.90805e-45
-1.40615e-43
-4.97352e-44
-2.52604e-42
-8.14885e-43
-4.37269e-41
-1.26927e-41
-7.25529e-40
-1.86311e-40
-1.14721e-38
-2.55223e-39
-1.71805e-37
-3.22753e-38
-2.42115e-36
-3.71979e-37
-3.18853e-35
-3.84233e-36
-3.89333e-34
-3.46894e-35
-4.36421e-33
-2.61924e-34
-4.42964e-32
-1.50229e-33
-3.98942e-31
-4.65082e-33
-3.0897e-30
7.62782e-32
-1.94712e-29
5.68747e-31
-8.74613e-29
4.8643e-32
-1.68754e-28
-9.90537e-31
-8.11719e-30
-5.97737e-28
1.13411e-28
3.22312e-26
-3.04756e-76
-2.04213e-75
-1.57498e-75
-1.10959e-74
-1.02486e-74
-7.58991e-74
-6.92066e-74
-5.38877e-73
-4.83807e-73
-3.96201e-72
-3.50127e-72
-3.01666e-71
-2.62305e-71
-2.37869e-70
-2.03426e-70
-1.94249e-69
-1.63308e-69
-1.64278e-68
-1.35696e-68
-1.43869e-67
-1.16687e-67
-1.30458e-66
-1.03821e-66
-1.22459e-65
-9.55492e-66
-1.18959e-64
-9.09239e-65
-1.1954e-63
-8.94181e-64
-1.24198e-62
-9.08258e-63
-1.33331e-61
-9.52191e-62
-1.47787e-60
-1.02948e-60
-1.68994e-59
-1.14684e-59
-1.9918e-58
-1.31508e-58
-2.41738e-57
-1.55065e-57
-3.01834e-56
-1.87813e-56
-3.8738e-55
-2.33408e-55
-5.1066e-54
-2.9732e-54
-6.91047e-53
-3.87821e-53
-9.59608e-52
-5.17561e-52
-1.36701e-50
-7.06125e-51
-1.99713e-49
-9.84132e-50
-2.99068e-48
-1.39969e-48
-4.58586e-47
-2.02826e-47
-7.18834e-46
-2.97253e-46
-1.34198e-44
-5.07643e-45
-2.39226e-43
-8.35001e-44
-4.12244e-42
-1.31469e-42
-6.83573e-41
-1.96689e-41
-1.08509e-39
-2.77274e-40
-1.63944e-38
-3.64892e-39
-2.34289e-37
-4.4374e-38
-3.14616e-36
-4.92985e-37
-3.94274e-35
-4.93417e-36
-4.57656e-34
-4.3633e-35
-4.876e-33
-3.30404e-34
-4.71012e-32
-2.02077e-33
-4.05296e-31
-8.67281e-33
-3.02855e-30
-1.22489e-32
-1.89272e-29
4.39967e-31
-9.22653e-29
7.17602e-32
-2.64797e-28
5.29089e-30
-1.76806e-29
-2.11303e-28
-8.10155e-28
1.67248e-26
-7.91884e-76
-5.233e-75
-4.07475e-75
-2.83102e-74
-2.63751e-74
-1.92627e-73
-1.7715e-73
-1.36027e-72
-1.23153e-72
-9.94529e-72
-8.86096e-72
-7.5282e-71
-6.59825e-71
-5.89995e-70
-5.08471e-70
-4.78719e-69
-4.05469e-69
-4.02128e-68
-3.34542e-68
-3.49665e-67
-2.85538e-67
-3.14681e-66
-2.52052e-66
-2.93029e-65
-2.30029e-65
-2.8224e-64
-2.16948e-64
-2.81062e-63
-2.11336e-63
-2.89211e-62
-2.125e-62
-3.07299e-61
-2.20383e-61
-3.36897e-60
-2.35536e-60
-3.80744e-59
-2.59163e-59
-4.43143e-58
-2.93268e-58
-5.30617e-57
-3.40908e-57
-6.52967e-56
-4.06602e-56
-8.24977e-55
-4.96962e-55
-1.06916e-53
-6.21674e-54
-1.42023e-52
-7.95012e-53
-1.93252e-51
-1.0382e-51
-2.69219e-50
-1.38308e-50
-3.83761e-49
-1.8778e-49
-5.59317e-48
-2.59525e-48
-8.32512e-47
-3.64533e-47
-1.2633e-45
-5.16789e-46
-2.27725e-44
-8.5146e-45
-3.90815e-43
-1.34906e-43
-6.47084e-42
-2.04368e-42
-1.0292e-40
-2.93963e-41
-1.56472e-39
-3.98253e-40
-2.26083e-38
-5.03636e-39
-3.08486e-37
-5.88801e-38
-3.9484e-36
-6.29788e-37
-4.70794e-35
-6.09063e-36
-5.19223e-34
-5.24568e-35
-5.25367e-33
-3.93431e-34
-4.82589e-32
-2.47474e-33
-3.96489e-31
-1.21516e-32
-2.85482e-30
-3.86217e-32
-1.75591e-29
-6.57404e-33
-8.8543e-29
4.21192e-32
-2.91323e-28
3.45509e-30
-1.99988e-29
-1.08342e-28
-7.98964e-28
1.42306e-26
-1.93794e-75
-1.26247e-74
-9.92856e-75
-6.80014e-74
-6.39262e-74
-4.60241e-73
-4.27078e-73
-3.23268e-72
-2.95275e-72
-2.35047e-71
-2.11247e-71
-1.76906e-70
-1.56376e-70
-1.37819e-69
-1.19763e-69
-1.1113e-68
-9.48856e-69
-9.274e-68
-7.77552e-68
-8.0086e-67
-6.58894e-67
-7.15494e-66
-5.77208e-66
-6.61133e-65
-5.22536e-65
-6.31593e-64
-4.8861e-64
-6.23498e-63
-4.71647e-63
-6.35651e-62
-4.69656e-62
-6.68761e-61
-4.82058e-61
-7.2548e-60
-5.09534e-60
-8.10715e-59
-5.54055e-59
-9.32276e-58
-6.19081e-58
-1.10198e-56
-7.09942e-57
-1.3374e-55
-8.34476e-56
-1.66468e-54
-1.00399e-54
-2.1229e-53
-1.23471e-53
-2.77112e-52
-1.54998e-52
-3.69956e-51
-1.9836e-51
-5.04761e-50
-2.58472e-50
-7.03252e-49
-3.42518e-49
-9.99511e-48
-4.60981e-48
-1.44718e-46
-6.29027e-47
-2.13063e-45
-8.64549e-46
-3.71678e-44
-1.3772e-44
-6.15404e-43
-2.10605e-43
-9.80987e-42
-3.07517e-42
-1.49938e-40
-4.25937e-41
-2.18693e-39
-5.55285e-40
-3.02654e-38
-6.75457e-39
-3.94847e-37
-7.59528e-38
-4.82243e-36
-7.81881e-37
-5.47513e-35
-7.29342e-36
-5.73839e-34
-6.09195e-35
-5.51212e-33
-4.48361e-34
-4.81073e-32
-2.83618e-33
-3.76925e-31
-1.47984e-32
-2.60875e-30
-5.90355e-32
-1.56596e-29
-1.44396e-31
-7.91791e-29
2.95638e-33
-2.70147e-28
1.12086e-30
-1.91509e-29
-5.52614e-29
-5.24693e-28
1.2031e-26
-4.4794e-75
-2.87565e-74
-2.28447e-74
-1.54188e-73
-1.46302e-73
-1.03796e-72
-9.72207e-73
-7.25152e-72
-6.68524e-72
-5.24379e-71
-4.75618e-71
-3.92455e-70
-3.50052e-70
-3.03969e-69
-2.66491e-69
-2.43624e-68
-2.09816e-68
-2.02025e-67
-1.7081e-67
-1.73302e-66
-1.43746e-66
-1.53747e-65
-1.25009e-65
-1.41016e-64
-1.12296e-64
-1.33661e-63
-1.04146e-63
-1.30851e-62
-9.96572e-63
-1.32222e-61
-9.83187e-62
-1.37799e-60
-9.99203e-61
-1.47985e-59
-1.04505e-59
-1.63599e-58
-1.12361e-58
-1.85974e-57
-1.24041e-57
-2.17132e-56
-1.40418e-56
-2.60058e-55
-1.62774e-55
-3.1913e-54
-1.92937e-54
-4.00792e-53
-2.33485e-53
-5.14589e-52
-2.88041e-52
-6.74781e-51
-3.61711e-51
-9.02843e-50
-4.61704e-50
-1.23129e-48
-5.98202e-49
-1.70948e-47
-7.85512e-48
-2.41236e-46
-1.04346e-46
-3.45314e-45
-1.39345e-45
-5.84238e-44
-2.15088e-44
-9.35397e-43
-3.18159e-43
-1.43876e-41
-4.48732e-42
-2.11792e-40
-5.99736e-41
-2.9702e-39
-7.53895e-40
-3.94599e-38
-8.83777e-39
-4.93341e-37
-9.57395e-38
-5.7626e-36
-9.4952e-37
-6.24268e-35
-8.54185e-36
-6.22818e-34
-6.90357e-35
-5.68513e-33
-4.95554e-34
-4.71514e-32
-3.10764e-33
-3.52066e-31
-1.65968e-32
-2.33636e-30
-7.26003e-32
-1.35739e-29
-2.39923e-31
-6.71834e-29
-4.02157e-31
-2.25101e-28
-3.2408e-34
-1.73979e-29
-1.71091e-29
-3.11705e-28
8.5087e-27
-9.82337e-75
-6.21263e-74
-4.985e-74
-3.31457e-73
-3.17476e-73
-2.21887e-72
-2.09823e-72
-1.5417e-71
-1.43494e-71
-1.10872e-70
-1.01522e-70
-8.25148e-70
-7.42958e-70
-6.35441e-69
-5.62296e-69
-5.06277e-68
-4.40023e-68
-4.17248e-67
-3.5595e-67
-3.55626e-66
-2.9756e-66
-3.1337e-65
-2.56963e-65
-2.85378e-64
-2.29125e-64
-2.6846e-63
-2.10834e-63
-2.60723e-62
-2.00069e-62
-2.61225e-61
-1.95637e-61
-2.69791e-60
-1.96952e-60
-2.86951e-59
-2.03919e-59
-3.13974e-58
-2.16896e-58
-3.53005e-57
-2.36698e-57
-4.07317e-56
-2.64662e-56
-4.81716e-55
-3.02767e-55
-5.83177e-54
-3.53809e-54
-7.21803e-53
-4.21672e-53
-9.1229e-52
-5.11696e-52
-1.17612e-50
-6.31213e-51
-1.54487e-49
-7.90269e-50
-2.06497e-48
-1.00257e-48
-2.80473e-47
-1.28663e-47
-3.86405e-46
-1.66696e-46
-5.38788e-45
-2.16724e-45
-8.85931e-44
-3.24837e-44
-1.37455e-42
-4.65782e-43
-2.04463e-41
-6.35955e-42
-2.90551e-40
-8.2203e-41
-3.9275e-39
-9.98765e-40
-5.02227e-38
-1.13124e-38
-6.03494e-37
-1.18371e-37
-6.76358e-36
-1.13383e-36
-7.01531e-35
-9.85491e-36
-6.68538e-34
-7.70956e-35
-5.81696e-33
-5.38381e-34
-4.59531e-32
-3.31962e-33
-3.27333e-31
-1.77656e-32
-2.07994e-30
-8.04096e-32
-1.16101e-29
-2.92531e-31
-5.51278e-29
-6.45465e-31
-1.74418e-28
-3.33369e-32
-1.56183e-29
-1.29858e-31
-1.9903e-28
5.27133e-27
-2.05387e-74
-1.27927e-73
-1.03636e-73
-6.78648e-73
-6.56094e-73
-4.51595e-72
-4.31143e-72
-3.11972e-71
-2.93187e-71
-2.23082e-70
-2.06261e-70
-1.65082e-69
-1.50085e-69
-1.26397e-68
-1.1293e-68
-1.00113e-67
-8.78447e-68
-8.20081e-67
-7.0621e-67
-6.94578e-66
-5.86557e-66
-6.08038e-65
-5.03108e-65
-5.49923e-64
-4.45416e-64
-5.13579e-63
-4.06781e-63
-4.94963e-62
-3.82941e-62
-4.91893e-61
-3.71293e-61
-5.03643e-60
-3.70424e-60
-5.30756e-59
-3.79849e-59
-5.75046e-58
-3.99882e-58
-6.3976e-57
-4.3161e-57
-7.29918e-56
-4.76946e-56
-8.52881e-55
-5.38766e-55
-1.01922e-53
-6.21122e-54
-1.24406e-52
-7.2956e-53
-1.54897e-51
-8.71557e-52
-1.96489e-50
-1.05712e-50
-2.53613e-49
-1.29953e-49
-3.32613e-48
-1.6163e-48
-4.42518e-47
-2.03007e-47
-5.96052e-46
-2.56937e-46
-8.10908e-45
-3.25792e-45
-1.29821e-43
-4.75069e-44
-1.95575e-42
-6.61659e-43
-2.81932e-41
-8.76385e-42
-3.87623e-40
-1.09807e-40
-5.06275e-39
-1.29279e-39
-6.24872e-38
-1.41882e-38
-7.24032e-37
-1.43876e-37
-7.81577e-36
-1.33589e-36
-7.79712e-35
-1.12608e-35
-7.13429e-34
-8.55483e-35
-5.94984e-33
-5.82059e-34
-4.50072e-32
-3.52003e-33
-3.0711e-31
-1.86693e-32
-1.87098e-30
-8.47962e-32
-9.98333e-30
-3.13845e-31
-4.47017e-29
-7.18731e-31
-1.28839e-28
-5.69513e-32
-1.35803e-29
-3.99694e-31
-1.37415e-28
3.22938e-27
-4.11529e-74
-2.52382e-73
-2.06253e-73
-1.32983e-72
-1.29711e-72
-8.79044e-72
-8.4708e-72
-6.03473e-71
-5.72571e-71
-4.28914e-70
-4.00434e-70
-3.1551e-69
-2.89667e-69
-2.40144e-68
-2.16673e-68
-1.89072e-67
-1.67536e-67
-1.53942e-66
-1.33862e-66
-1.29573e-65
-1.10479e-65
-1.127e-64
-9.41387e-65
-1.01247e-63
-8.27709e-64
-9.38936e-63
-7.5045e-63
-8.98234e-62
-7.01078e-62
-8.85713e-61
-6.74255e-61
-8.99381e-60
-6.66894e-60
-9.39471e-59
-6.77598e-59
-1.00833e-57
-7.06359e-58
-1.11058e-56
-7.54433e-57
-1.25352e-55
-8.2435e-56
-1.44789e-54
-9.20037e-55
-1.70899e-53
-1.04704e-53
-2.0584e-52
-1.21287e-52
-2.52646e-51
-1.42746e-51
-3.15572e-50
-1.70375e-50
-4.00574e-49
-2.0584e-49
-5.15938e-48
-2.51253e-48
-6.73073e-47
-3.09221e-47
-8.87443e-46
-3.82835e-46
-1.17961e-44
-4.74138e-45
-1.84152e-43
-6.73733e-44
-2.69833e-42
-9.13039e-43
-3.77666e-41
-1.17541e-41
-5.03397e-40
-1.43056e-40
-6.36732e-39
-1.63592e-39
-7.60563e-38
-1.74469e-38
-8.52524e-37
-1.72062e-37
-8.90026e-36
-1.55537e-36
-8.58413e-35
-1.27811e-35
-7.58971e-34
-9.48286e-35
-6.11297e-33
-6.31933e-34
-4.4644e-32
-3.75904e-33
-2.9408e-31
-1.96972e-32
-1.72655e-30
-8.83858e-32
-8.79849e-30
-3.19522e-31
-3.66955e-29
-6.90864e-31
-9.31967e-29
-6.74443e-32
-1.08969e-29
-4.51102e-31
-8.88747e-29
2.29572e-27
-7.94759e-74
-4.79807e-73
-3.95012e-73
-2.5071e-72
-2.46529e-72
-1.6446e-71
-1.59869e-71
-1.12109e-70
-1.07343e-70
-7.91475e-70
-7.45916e-70
-5.7846e-69
-5.36223e-69
-4.37514e-68
-3.98634e-68
-3.42328e-67
-3.06343e-67
-2.76991e-66
-2.43257e-66
-2.3168e-65
-1.995e-65
-2.00221e-64
-1.68891e-64
-1.78687e-63
-1.475e-63
-1.64576e-62
-1.32795e-62
-1.56316e-61
-1.23146e-61
-1.5298e-60
-1.17516e-60
-1.54109e-59
-1.15277e-59
-1.59625e-58
-1.16103e-58
-1.69792e-57
-1.19902e-57
-1.85223e-56
-1.26786e-56
-2.06927e-55
-1.37058e-55
-2.36395e-54
-1.51218e-54
-2.75744e-53
-1.6998e-53
-3.27926e-52
-1.94307e-52
-3.9702e-51
-2.25446e-51
-4.88634e-50
-2.6498e-50
-6.10433e-49
-3.1488e-49
-7.7277e-48
-3.77534e-48
-9.89414e-47
-4.55728e-47
-1.27827e-45
-5.5253e-46
-1.66197e-44
-6.69208e-45
-2.53328e-43
-9.2788e-44
-3.61549e-42
-1.22532e-42
-4.92087e-41
-1.5356e-41
-6.36989e-40
-1.81863e-40
-7.81805e-39
-2.02427e-39
-9.05874e-38
-2.10333e-38
-9.85209e-37
-2.02415e-37
-9.986e-36
-1.78925e-36
-9.35952e-35
-1.44148e-35
-8.05069e-34
-1.05178e-34
-6.31591e-33
-6.91717e-34
-4.49795e-32
-4.07413e-33
-2.88979e-31
-2.11514e-32
-1.64904e-30
-9.33041e-32
-8.06031e-30
-3.23132e-31
-3.11893e-29
-6.27262e-31
-6.81888e-29
-6.57252e-32
-8.09676e-30
-3.15778e-31
-4.41533e-29
1.66586e-27
-1.48907e-73
-8.84781e-73
-7.32385e-73
-4.57494e-72
-4.52965e-72
-2.97392e-71
-2.91337e-71
-2.01061e-70
-1.94124e-70
-1.40859e-69
-1.33925e-69
-1.02203e-68
-9.56147e-69
-7.67647e-68
-7.06093e-68
-5.96608e-67
-5.39096e-67
-4.79565e-66
-4.25327e-66
-3.985e-65
-3.46573e-65
-3.42136e-64
-2.91488e-64
-3.03314e-63
-2.52873e-63
-2.77463e-62
-2.26098e-62
-2.6169e-61
-2.08171e-61
-2.54234e-60
-1.97165e-60
-2.54149e-59
-1.91882e-59
-2.61119e-58
-1.91642e-58
-2.75372e-57
-1.96153e-57
-2.97661e-56
-2.05446e-56
-3.29301e-55
-2.19835e-55
-3.72272e-54
-2.39904e-54
-4.29375e-53
-2.66517e-53
-5.04477e-52
-3.00829e-52
-6.02838e-51
-3.44316e-51
-7.31547e-50
-3.98797e-50
-9.00045e-49
-4.66445e-49
-1.12071e-47
-5.49759e-48
-1.40937e-46
-6.51441e-47
-1.78568e-45
-7.74144e-46
-2.2731e-44
-9.17825e-45
-3.38648e-43
-1.24307e-43
-4.71292e-42
-1.60141e-42
-6.24546e-41
-1.95611e-41
-7.86209e-40
-2.25739e-40
-9.37788e-39
-2.44973e-39
-1.05607e-37
-2.48521e-38
-1.11715e-36
-2.34052e-37
-1.10306e-35
-2.03111e-36
-1.00933e-34
-1.61283e-35
-8.49926e-34
-1.1652e-34
-6.54784e-33
-7.62239e-34
-4.59196e-32
-4.47955e-33
-2.90774e-31
-2.31723e-32
-1.62864e-30
-1.00704e-31
-7.69908e-30
-3.33049e-31
-2.78102e-29
-5.70292e-31
-5.21624e-29
-7.23857e-32
-7.25578e-30
-5.84418e-31
-6.39561e-29
5.86931e-28
-2.7268e-73
-1.59439e-72
-1.32366e-72
-8.13648e-72
-8.0978e-72
-5.23159e-71
-5.15745e-71
-3.50232e-70
-3.40558e-70
-2.43144e-69
-2.3298e-69
-1.74931e-68
-1.65027e-68
-1.3035e-67
-1.2096e-67
-1.00544e-66
-9.16919e-67
-8.0235e-66
-7.184e-66
-6.62038e-65
-5.81401e-65
-5.64474e-64
-4.85691e-64
-4.96987e-63
-4.18491e-63
-4.5149e-62
-3.71606e-62
-4.22833e-61
-3.39725e-61
-4.07822e-60
-3.19411e-60
-4.04636e-59
-3.08479e-59
-4.12484e-58
-3.05618e-58
-4.3142e-57
-3.10154e-57
-4.62275e-56
-3.21913e-56
-5.06668e-55
-3.41133e-55
-5.671e-54
-3.68426e-54
-6.47124e-53
-4.04748e-53
-7.516e-52
-4.51394e-52
-8.8704e-51
-5.09986e-51
-1.06204e-49
-5.82458e-50
-1.28773e-48
-6.71007e-49
-1.57823e-47
-7.77971e-48
-1.95084e-46
-9.05589e-47
-2.42585e-45
-1.0556e-45
-3.02576e-44
-1.22603e-44
-4.40956e-43
-1.62321e-43
-5.98921e-42
-2.04166e-42
-7.73469e-41
-2.43281e-41
-9.47829e-40
-2.73831e-40
-1.09998e-38
-2.90051e-39
-1.20557e-37
-2.87733e-38
-1.24273e-36
-2.65766e-37
-1.19845e-35
-2.27127e-36
-1.07459e-34
-1.78531e-35
-8.90423e-34
-1.28422e-34
-6.78171e-33
-8.41003e-34
-4.72094e-32
-4.96264e-33
-2.97153e-31
-2.57154e-32
-1.64739e-30
-1.10645e-31
-7.60176e-30
-3.5175e-31
-2.59578e-29
-5.30985e-31
-4.20967e-29
-9.28364e-32
-7.89046e-30
-1.28722e-30
-1.16637e-28
-7.20508e-28
-4.9195e-73
-2.83026e-72
-2.35003e-72
-1.42131e-71
-1.41899e-71
-9.01963e-71
-8.93144e-71
-5.9672e-70
-5.83393e-70
-4.09774e-69
-3.95124e-69
-2.91855e-68
-2.77283e-68
-2.15446e-67
-2.01479e-67
-1.6473e-66
-1.5148e-66
-1.30371e-65
-1.17761e-65
-1.06726e-64
-9.45923e-65
-9.03088e-64
-7.8447e-64
-7.89256e-63
-6.71109e-63
-7.11796e-62
-5.9169e-62
-6.61791e-61
-5.37061e-61
-6.33638e-60
-5.01271e-60
-6.24008e-59
-4.80488e-59
-6.31229e-58
-4.72323e-58
-6.54936e-57
-4.75418e-57
-6.95895e-56
-4.89184e-56
-7.55962e-55
-5.13637e-55
-8.38146e-54
-5.49295e-54
-9.46761e-53
-5.97102e-53
-1.08767e-51
-6.58376e-52
-1.26863e-50
-7.3474e-51
-1.49963e-49
-8.28045e-50
-1.79325e-48
-9.4023e-49
-2.16481e-47
-1.07309e-47
-2.6321e-46
-1.22791e-46
-3.21453e-45
-1.40488e-45
-3.9314e-44
-1.59946e-44
-5.60838e-43
-2.07126e-43
-7.43921e-42
-2.54488e-42
-9.3685e-41
-2.95959e-41
-1.11825e-39
-3.25068e-40
-1.26348e-38
-3.3628e-39
-1.34879e-37
-3.26481e-38
-1.35643e-36
-2.96156e-37
-1.27987e-35
-2.49782e-36
-1.12754e-34
-1.94943e-35
-9.22827e-34
-1.40155e-34
-6.9819e-33
-9.2265e-34
-4.85084e-32
-5.4873e-33
-3.05181e-31
-2.85762e-32
-1.68404e-30
-1.22267e-31
-7.64227e-30
-3.7701e-31
-2.49945e-29
-4.96348e-31
-3.48574e-29
-1.17648e-31
-8.72342e-30
-1.97142e-30
-1.53413e-28
-5.62098e-28
-8.81305e-73
-4.98825e-72
-4.13158e-72
-2.45833e-71
-2.45675e-71
-1.53628e-70
-1.52486e-70
-1.00222e-69
-9.83199e-70
-6.79341e-69
-6.57957e-69
-4.78048e-68
-4.56615e-68
-3.48963e-67
-3.28368e-67
-2.6405e-66
-2.44508e-66
-2.0695e-65
-1.88367e-65
-1.67873e-64
-1.50018e-64
-1.40824e-63
-1.23402e-63
-1.22061e-62
-1.04745e-62
-1.09207e-61
-9.16477e-62
-1.0075e-60
-8.25635e-61
-9.57277e-60
-7.64865e-60
-9.35543e-59
-7.27631e-59
-9.39076e-58
-7.09762e-58
-9.66661e-57
-7.08732e-57
-1.01873e-55
-7.232e-56
-1.09723e-54
-7.52712e-55
-1.20557e-53
-7.97495e-54
-1.34876e-52
-8.58306e-53
-1.53363e-51
-9.36296e-52
-1.76902e-50
-1.03287e-50
-2.06611e-49
-1.14949e-49
-2.43846e-48
-1.28747e-48
-2.9018e-47
-1.44756e-47
-3.47316e-46
-1.62945e-46
-4.1691e-45
-1.83109e-45
-5.00313e-44
-2.04467e-44
-6.99099e-43
-2.59094e-43
-9.06084e-42
-3.11057e-42
-1.11315e-40
-3.53104e-41
-1.29454e-39
-3.78459e-40
-1.42429e-38
-3.82359e-39
-1.48125e-37
-3.63348e-38
-1.45387e-36
-3.23855e-37
-1.34335e-35
-2.69849e-36
-1.16459e-34
-2.09461e-35
-9.43633e-34
-1.50829e-34
-7.11266e-33
-1.00006e-33
-4.94706e-32
-6.00267e-33
-3.1194e-31
-3.14503e-32
-1.7183e-30
-1.34175e-31
-7.70727e-30
-4.04885e-31
-2.44302e-29
-4.72904e-31
-2.99107e-29
-1.27753e-31
-8.4381e-30
-1.9988e-30
-1.37048e-28
7.28679e-28
-1.57793e-72
-8.78601e-72
-7.24595e-72
-4.24125e-71
-4.23525e-71
-2.60525e-70
-2.58708e-70
-1.67259e-69
-1.64317e-69
-1.11675e-68
-1.08419e-68
-7.74789e-68
-7.42539e-68
-5.58121e-67
-5.27445e-67
-4.1711e-66
-3.88255e-66
-3.23149e-65
-2.95918e-65
-2.5931e-64
-2.33319e-64
-2.15335e-63
-1.90123e-63
-1.8487e-62
-1.59946e-62
-1.63915e-61
-1.38762e-61
-1.4992e-60
-1.23989e-60
-1.41265e-59
-1.13951e-59
-1.3694e-58
-1.07555e-58
-1.36359e-57
-1.04094e-57
-1.39241e-56
-1.03121e-56
-1.45551e-55
-1.04373e-55
-1.5546e-54
-1.07718e-54
-1.6933e-53
-1.1312e-53
-1.87719e-52
-1.20608e-52
-2.11386e-51
-1.30254e-51
-2.41306e-50
-1.42144e-50
-2.78677e-49
-1.56349e-49
-3.24893e-48
-1.72886e-48
-3.81469e-47
-1.91665e-47
-4.49872e-46
-2.12422e-46
-5.31251e-45
-2.34642e-45
-6.26082e-44
-2.57147e-44
-8.57528e-43
-3.18997e-43
-1.08655e-41
-3.74285e-42
-1.30258e-40
-4.1468e-41
-1.47594e-39
-4.33529e-40
-1.58084e-38
-4.27479e-39
-1.60096e-37
-3.97338e-38
-1.53296e-36
-3.47808e-37
-1.38685e-35
-2.86294e-36
-1.18355e-34
-2.21108e-35
-9.50328e-34
-1.59556e-34
-7.14553e-33
-1.0658e-33
-4.981e-32
-6.45389e-33
-3.15033e-31
-3.40039e-32
-1.7339e-30
-1.44808e-31
-7.70895e-30
-4.30793e-31
-2.39083e-29
-4.73393e-31
-2.73207e-29
-1.21868e-31
-7.2853e-30
-1.65036e-30
-1.0161e-28
1.29427e-27
-2.83455e-72
-1.55256e-71
-1.27445e-71
-7.33791e-71
-7.31551e-71
-4.42644e-70
-4.39212e-70
-2.79304e-69
-2.74353e-69
-1.83396e-68
-1.78156e-68
-1.25217e-67
-1.20177e-67
-8.88359e-67
-8.41482e-67
-6.54402e-66
-6.11105e-66
-5.0014e-65
-4.59902e-65
-3.96245e-64
-3.58336e-64
-3.25134e-63
-2.88771e-63
-2.76023e-62
-2.40422e-62
-2.42174e-61
-2.0655e-61
-2.19313e-60
-1.82861e-60
-2.0472e-59
-1.66582e-59
-1.96681e-58
-1.55904e-58
-1.94158e-57
-1.49644e-57
-1.96594e-56
-1.4704e-56
-2.03793e-55
-1.47615e-55
-2.1585e-54
-1.51091e-54
-2.33114e-53
-1.57322e-53
-2.56168e-52
-1.66255e-52
-2.85826e-51
-1.77878e-51
-3.23124e-50
-1.92184e-50
-3.69294e-49
-2.09119e-49
-4.25697e-48
-2.28526e-48
-4.93672e-47
-2.50076e-47
-5.74277e-46
-2.73182e-46
-6.67908e-45
-2.96927e-45
-7.73845e-44
-3.19657e-44
-1.03995e-42
-3.88461e-43
-1.28918e-41
-4.45586e-42
-1.50874e-40
-4.81746e-41
-1.66556e-39
-4.9091e-40
-1.73569e-38
-4.71853e-39
-1.70991e-37
-4.2831e-38
-1.59513e-36
-3.67613e-37
-1.4111e-35
-2.98532e-36
-1.18436e-34
-2.29188e-35
-9.41974e-34
-1.65617e-34
-7.0644e-33
-1.1134e-33
-4.93424e-32
-6.79219e-33
-3.12869e-31
-3.59372e-32
-1.72015e-30
-1.52738e-31
-7.58958e-30
-4.49787e-31
-2.31614e-29
-4.87446e-31
-2.59418e-29
-1.0967e-31
-6.00874e-30
-1.23312e-30
-6.91775e-29
1.3379e-27
-5.11153e-72
-2.754e-71
-2.25297e-71
-1.27598e-70
-1.27046e-70
-7.56131e-70
-7.49579e-70
-4.68847e-69
-4.60195e-69
-3.02562e-68
-2.93798e-68
-2.03087e-67
-1.9493e-67
-1.41706e-66
-1.34323e-66
-1.02722e-65
-9.60639e-66
-7.73066e-65
-7.12476e-65
-6.03547e-64
-5.47519e-64
-4.88394e-63
-4.35531e-63
-4.09226e-62
-3.58217e-62
-3.54648e-61
-3.04254e-61
-3.17483e-60
-2.66492e-60
-2.93162e-59
-2.40338e-59
-2.78789e-58
-2.22803e-58
-2.72564e-57
-2.1193e-57
-2.73448e-56
-2.06437e-56
-2.8095e-55
-2.05496e-55
-2.94999e-54
-2.08583e-54
-3.15867e-53
-2.15377e-53
-3.44123e-52
-2.2568e-52
-3.806e-51
-2.39349e-51
-4.26356e-50
-2.5623e-50
-4.82612e-49
-2.76086e-49
-5.5062e-48
-2.98516e-48
-6.31426e-47
-3.22863e-47
-7.25495e-46
-3.48119e-46
-8.3221e-45
-3.72851e-45
-9.49318e-44
-3.94828e-44
-1.25351e-42
-4.70568e-43
-1.52212e-41
-5.28072e-42
-1.74044e-40
-5.57196e-41
-1.87236e-39
-5.53051e-40
-1.89736e-38
-5.17333e-39
-1.81563e-37
-4.57473e-38
-1.64647e-36
-3.83872e-37
-1.42048e-35
-3.06669e-36
-1.1696e-34
-2.33462e-35
-9.19561e-34
-1.68593e-34
-6.86795e-33
-1.13843e-33
-4.80015e-32
-6.98217e-33
-3.04752e-31
-3.70299e-32
-1.67219e-30
-1.56908e-31
-7.32216e-30
-4.57847e-31
-2.20367e-29
-4.9696e-31
-2.46029e-29
-9.96012e-32
-5.05264e-30
-9.64553e-31
-4.98818e-29
7.15739e-28
-9.22935e-72
-4.89137e-71
-3.99833e-71
-2.22743e-70
-2.2184e-70
-1.29867e-69
-1.28763e-69
-7.92161e-69
-7.7744e-69
-5.02725e-68
-4.88027e-68
-3.31777e-67
-3.1837e-67
-2.27607e-66
-2.15737e-66
-1.62238e-65
-1.51769e-65
-1.20094e-64
-1.10773e-64
-9.22613e-64
-8.38217e-64
-7.3507e-63
-6.56997e-63
-6.06824e-62
-5.3285e-62
-5.18515e-61
-4.46637e-61
-4.58025e-60
-3.86378e-60
-4.17665e-59
-3.4443e-59
-3.92538e-58
-3.15843e-58
-3.79556e-57
-2.97375e-57
-3.76852e-56
-2.8689e-56
-3.83407e-55
-2.82982e-55
-3.98834e-54
-2.84727e-54
-4.23226e-53
-2.91514e-53
-4.57069e-52
-3.02918e-52
-5.01165e-51
-3.18596e-51
-5.5656e-50
-3.38181e-50
-6.24416e-49
-3.61183e-49
-7.05809e-48
-3.86877e-48
-8.01383e-47
-4.14177e-47
-9.10839e-46
-4.41533e-46
-1.03228e-44
-4.66857e-45
-1.16156e-43
-4.87219e-44
-1.50996e-42
-5.7054e-43
-1.79946e-41
-6.27338e-42
-2.01353e-40
-6.4658e-41
-2.11298e-39
-6.25007e-40
-2.08206e-38
-5.681e-39
-1.93265e-37
-4.87916e-38
-1.69884e-36
-3.98571e-37
-1.42368e-35
-3.1175e-36
-1.14487e-34
-2.34297e-35
-8.86176e-34
-1.68457e-34
-6.56999e-33
-1.1391e-33
-4.58346e-32
-7.0057e-33
-2.90804e-31
-3.71643e-32
-1.59034e-30
-1.56757e-31
-6.90618e-30
-4.5261e-31
-2.04897e-29
-4.85527e-31
-2.25242e-29
-9.10527e-32
-4.31292e-30
-6.97896e-31
-3.359e-29
1.65556e-28
-1.66092e-71
-8.65887e-71
-7.09592e-71
-3.88846e-70
-3.88283e-70
-2.23584e-69
-2.2217e-69
-1.34439e-68
-1.32147e-68
-8.40467e-68
-8.16728e-68
-5.46082e-67
-5.24334e-67
-3.68651e-66
-3.49546e-66
-2.58498e-65
-2.41879e-65
-1.88203e-64
-1.73656e-64
-1.4221e-63
-1.29281e-63
-1.1146e-62
-9.97283e-63
-9.05495e-62
-7.96446e-62
-7.61786e-61
-6.57777e-61
-6.62948e-60
-5.61078e-60
-5.96003e-59
-4.93561e-59
-5.52673e-58
-4.46984e-58
-5.27689e-57
-4.15963e-57
-5.17763e-56
-3.96947e-56
-5.20967e-55
-3.87574e-55
-5.36333e-54
-3.86263e-54
-5.6361e-53
-3.91937e-53
-6.03091e-52
-4.03816e-52
-6.5548e-51
-4.21254e-51
-7.21762e-50
-4.43593e-50
-8.03006e-49
-4.70005e-49
-9.00066e-48
-4.99345e-48
-1.0131e-46
-5.29986e-47
-1.14088e-45
-5.59688e-46
-1.27999e-44
-5.85539e-45
-1.424e-43
-6.03731e-44
-1.82705e-42
-6.96473e-43
-2.14271e-41
-7.52274e-42
-2.35251e-40
-7.58949e-41
-2.41342e-39
-7.15241e-40
-2.31523e-38
-6.31354e-39
-2.08374e-37
-5.25149e-38
-1.77076e-36
-4.15452e-37
-1.43427e-35
-3.15982e-36
-1.11907e-34
-2.32784e-35
-8.47047e-34
-1.65632e-34
-6.19855e-33
-1.11644e-33
-4.29869e-32
-6.86276e-33
-2.71808e-31
-3.63277e-32
-1.47885e-30
-1.52225e-31
-6.36084e-30
-4.33568e-31
-1.85608e-29
-4.43675e-31
-1.94081e-29
-8.51838e-32
-3.79451e-30
-3.85382e-31
-1.74017e-29
4.67985e-29
-2.96337e-71
-1.51975e-70
-1.25277e-70
-6.75309e-70
-6.77837e-70
-3.83943e-69
-3.83302e-69
-2.28147e-68
-2.25135e-68
-1.40839e-67
-1.37293e-67
-9.02872e-67
-8.69052e-67
-6.00931e-66
-5.70845e-66
-4.1516e-65
-3.88998e-65
-2.97637e-64
-2.7491e-64
-2.21363e-63
-2.01406e-63
-1.70724e-62
-1.52884e-62
-1.36465e-61
-1.20157e-61
-1.12972e-60
-9.76888e-61
-9.67695e-60
-8.20656e-60
-8.56689e-59
-7.11392e-59
-7.82734e-58
-6.35329e-58
-7.36881e-57
-5.83502e-57
-7.13448e-56
-5.50001e-56
-7.0894e-55
-5.30885e-55
-7.21384e-54
-5.23494e-54
-7.49897e-53
-5.25995e-53
-7.944e-52
-5.37052e-52
-8.55392e-51
-5.55576e-51
-9.33742e-50
-5.80498e-50
-1.0304e-48
-6.10553e-49
-1.14598e-47
-6.44066e-48
-1.2801e-46
-6.78734e-47
-1.43051e-45
-7.11453e-46
-1.59199e-44
-7.3826e-45
-1.75544e-43
-7.5423e-44
-2.2296e-42
-8.60038e-43
-2.58201e-41
-9.15823e-42
-2.79177e-40
-9.0762e-41
-2.81012e-39
-8.36353e-40
-2.63248e-38
-7.17948e-39
-2.30074e-37
-5.77604e-38
-1.88804e-36
-4.40361e-37
-1.47111e-35
-3.22947e-36
-1.10459e-34
-2.30849e-35
-8.0953e-34
-1.61026e-34
-5.79441e-33
-1.07434e-33
-3.96815e-32
-6.57017e-33
-2.49016e-31
-3.46004e-32
-1.34459e-30
-1.43684e-31
-5.71755e-30
-4.01655e-31
-1.63363e-29
-3.6423e-31
-1.51047e-29
-8.14248e-32
-3.43183e-30
6.85214e-32
4.68213e-30
4.25162e-28
-5.21628e-71
-2.63176e-70
-2.18856e-70
-1.16059e-69
-1.17375e-69
-6.54025e-69
-6.57579e-69
-3.8502e-68
-3.82362e-68
-2.35287e-67
-2.30653e-67
-1.49197e-66
-1.44304e-66
-9.81421e-66
-9.36089e-66
-6.69555e-65
-6.29465e-65
-4.73644e-64
-4.38659e-64
-3.47334e-63
-3.167e-63
-2.63959e-62
-2.36789e-62
-2.07799e-61
-1.83244e-61
-1.69367e-60
-1.46671e-60
-1.42812e-59
-1.2131e-59
-1.24461e-58
-1.03558e-58
-1.11971e-57
-9.11157e-58
-1.03835e-56
-8.24913e-57
-9.90864e-56
-7.67027e-56
-9.71114e-55
-7.3095e-55
-9.75412e-54
-7.12255e-54
-1.00178e-52
-7.07883e-53
-1.04946e-51
-7.15624e-52
-1.11858e-50
-7.33723e-51
-1.2098e-49
-7.6054e-50
-1.32395e-48
-7.94242e-49
-1.46139e-47
-8.32488e-48
-1.62122e-46
-8.72137e-47
-1.80006e-45
-9.0901e-46
-1.99071e-44
-9.37804e-45
-2.18091e-43
-9.5214e-44
-2.75037e-42
-1.0771e-42
-3.15687e-41
-1.1356e-41
-3.37613e-40
-1.11079e-40
-3.35045e-39
-1.00565e-39
-3.07999e-38
-8.42894e-39
-2.62483e-37
-6.57047e-38
-2.08399e-36
-4.81557e-37
-1.55849e-35
-3.37796e-36
-1.11733e-34
-2.3134e-35
-7.8307e-34
-1.56053e-34
-5.40975e-33
-1.01943e-33
-3.62005e-32
-6.15917e-33
-2.23977e-31
-3.21359e-32
-1.1958e-30
-1.31819e-31
-5.01303e-30
-3.58539e-31
-1.39116e-29
-2.34291e-31
-9.25415e-30
-9.25167e-32
-3.70896e-30
1.10976e-30
3.34996e-29
1.5543e-27
-9.02334e-71
-4.47908e-70
-3.76607e-70
-1.96486e-69
-2.00601e-69
-1.09967e-68
-1.11578e-68
-6.42704e-68
-6.43749e-68
-3.89691e-67
-3.8505e-67
-2.45006e-66
-2.38689e-66
-1.59678e-65
-1.53294e-65
-1.07846e-64
-1.01971e-64
-7.54633e-64
-7.02368e-64
-5.46926e-63
-5.008e-63
-4.10448e-62
-3.69509e-62
-3.1884e-61
-2.82002e-61
-2.56253e-60
-2.22479e-60
-2.12952e-59
-1.81302e-59
-1.82833e-58
-1.52462e-58
-1.62011e-57
-1.32143e-57
-1.47979e-56
-1.17875e-56
-1.39113e-55
-1.08035e-55
-1.34367e-54
-1.01542e-54
-1.33087e-53
-9.76643e-54
-1.34889e-52
-9.58994e-53
-1.39582e-51
-9.58881e-52
-1.47111e-50
-9.73535e-51
-1.57508e-49
-1.00051e-49
-1.7084e-48
-1.03722e-48
-1.87124e-47
-1.08049e-47
-2.0622e-46
-1.12615e-46
-2.27676e-45
-1.16868e-45
-2.50552e-44
-1.20105e-44
-2.73258e-43
-1.215e-43
-3.43079e-42
-1.36822e-42
-3.91654e-41
-1.43436e-41
-4.1609e-40
-1.39191e-40
-4.09242e-39
-1.24547e-39
-3.71409e-38
-1.02566e-38
-3.10615e-37
-7.78846e-38
-2.39917e-36
-5.49923e-37
-1.72599e-35
-3.67395e-36
-1.17669e-34
-2.38107e-35
-7.79126e-34
-1.52656e-34
-5.10698e-33
-9.60849e-34
-3.28707e-32
-5.67284e-33
-1.98398e-31
-2.91398e-32
-1.04111e-30
-1.17528e-31
-4.28494e-30
-3.07101e-31
-1.14082e-29
-7.28884e-32
-2.75332e-30
-1.06754e-31
-4.08958e-30
2.87474e-30
7.64644e-29
3.91055e-27
-1.52965e-70
-7.47121e-70
-6.3617e-70
-3.26575e-69
-3.3704e-69
-1.81788e-68
-1.86428e-68
-1.05653e-67
-1.06917e-67
-6.36756e-67
-6.35379e-67
-3.97736e-66
-3.91098e-66
-2.57383e-65
-2.49252e-65
-1.72492e-64
-1.64413e-64
-1.19679e-63
-1.12209e-63
-8.59376e-63
-7.92094e-63
-6.38445e-62
-5.78119e-62
-4.90544e-61
-4.36078e-61
-3.89629e-60
-3.39767e-60
-3.19739e-59
-2.73257e-59
-2.70892e-58
-2.26653e-58
-2.36734e-57
-1.93683e-57
-2.1316e-56
-1.70302e-56
-1.97497e-55
-1.53853e-55
-1.88002e-54
-1.42569e-54
-1.83557e-53
-1.35257e-53
-1.83474e-52
-1.31099e-52
-1.87367e-51
-1.29519e-51
-1.95067e-50
-1.30084e-50
-2.0655e-49
-1.32433e-49
-2.21856e-48
-1.36208e-48
-2.40989e-47
-1.40984e-47
-2.63769e-46
-1.46217e-46
-2.89631e-45
-1.51186e-45
-3.17397e-44
-1.54973e-44
-3.45056e-43
-1.56504e-43
-4.3214e-42
-1.7591e-42
-4.91997e-41
-1.84021e-41
-5.21128e-40
-1.77984e-40
-5.10374e-39
-1.58326e-39
-4.60011e-38
-1.29023e-38
-3.80273e-37
-9.62036e-38
-2.88061e-36
-6.5906e-37
-2.00805e-35
-4.20414e-36
-1.30531e-34
-2.5606e-35
-8.1106e-34
-1.53322e-34
-4.95777e-33
-9.10212e-34
-3.00529e-32
-5.16358e-33
-1.74044e-31
-2.5848e-32
-8.88863e-31
-1.01782e-31
-3.56749e-30
-2.50112e-31
-8.92362e-30
-2.83602e-32
-1.02819e-30
-1.05834e-31
-3.88978e-30
6.57992e-30
1.66213e-28
8.71743e-27
-2.53669e-70
-1.21926e-69
-1.05247e-69
-5.31664e-69
-5.55162e-69
-2.9465e-68
-3.05723e-68
-1.70486e-67
-1.74518e-67
-1.02268e-66
-1.03197e-66
-6.35599e-66
-6.31831e-66
-4.09096e-65
-4.00348e-65
-2.72567e-64
-2.62412e-64
-1.87906e-63
-1.7785e-63
-1.33983e-62
-1.24586e-62
-9.87694e-62
-9.01652e-62
-7.52431e-61
-6.73838e-61
-5.92061e-60
-5.19724e-60
-4.80912e-59
-4.13424e-59
-4.0295e-58
-3.38898e-58
-3.47974e-57
-2.86004e-57
-3.0939e-56
-2.48204e-56
-2.82884e-55
-2.21216e-55
-2.65624e-54
-2.02192e-54
-2.5576e-53
-1.8921e-53
-2.52117e-52
-1.80958e-52
-2.53996e-51
-1.76521e-51
-2.61037e-50
-1.75231e-50
-2.73115e-49
-1.76555e-49
-2.90235e-48
-1.79997e-48
-3.12388e-47
-1.84997e-47
-3.39365e-46
-1.9085e-46
-3.70494e-45
-1.96626e-45
-4.04338e-44
-2.01129e-44
-4.38402e-43
-2.02974e-43
-5.48255e-42
-2.28091e-42
-6.23574e-41
-2.38682e-41
-6.60161e-40
-2.30877e-40
-6.46041e-39
-2.05141e-39
-5.81073e-38
-1.66488e-38
-4.77893e-37
-1.22919e-37
-3.58053e-36
-8.2523e-37
-2.44313e-35
-5.0733e-36
-1.52864e-34
-2.9119e-35
-8.93934e-34
-1.61094e-34
-5.04215e-33
-8.81458e-34
-2.81354e-32
-4.69131e-33
-1.52685e-31
-2.2509e-32
-7.46617e-31
-8.54998e-32
-2.88807e-30
-1.88886e-31
-6.49045e-30
-2.23743e-32
-7.80961e-31
-1.24835e-31
-4.41738e-30
1.42433e-29
3.40995e-28
1.76845e-26
-4.11142e-70
-1.94494e-69