/*--------------------------------*- C++ -*----------------------------------*\
  =========                 |
  \\      /  F ield         | OpenFOAM: The Open Source CFD Toolbox
   \\    /   O peration     | Website:  https://openfoam.org
    \\  /    A nd           | Version:  9
     \\/     M anipulation  |
\*---------------------------------------------------------------------------*/
FoamFile
{
    format      ascii;
    class       volScalarField;
    location    "0.16";
    object      p;
}
// * * * * * * * * * * * * * * * * * * * * * * * * * * * * * * * * * * * * * //

dimensions      [1 -1 -2 0 0 0 0];

internalField   nonuniform List<scalar> 
5000
(
2.96832
2.96826
2.96804
2.9678
2.96753
2.96723
2.96688
2.96648
2.96603
2.96553
2.96497
2.96437
2.96372
2.96305
2.96235
2.96165
2.96096
2.9603
2.95967
2.95908
2.95851
2.95795
2.95735
2.95664
2.95574
2.95453
2.95292
2.95082
2.94822
2.94516
2.94146
2.93734
2.9333
2.92929
2.92508
2.9203
2.91462
2.90791
2.9003
2.89196
2.88293
2.87295
2.86148
2.84804
2.83237
2.81439
2.79385
2.77013
2.74229
2.70951
2.96643
2.96633
2.96606
2.96578
2.96546
2.96511
2.96471
2.96425
2.96375
2.96319
2.96257
2.9619
2.96119
2.96044
2.95967
2.95888
2.95811
2.95735
2.95663
2.95594
2.95528
2.95461
2.9539
2.95307
2.95203
2.95067
2.9489
2.94663
2.94385
2.94059
2.93668
2.93232
2.92804
2.92379
2.91932
2.91426
2.90831
2.90134
2.89344
2.88483
2.87553
2.86529
2.85359
2.83993
2.82408
2.80599
2.78546
2.76189
2.73453
2.7028
2.96454
2.9644
2.96409
2.96376
2.9634
2.963
2.96255
2.96204
2.96149
2.96088
2.96021
2.95949
2.95873
2.95792
2.95709
2.95624
2.95539
2.95456
2.95374
2.95294
2.95215
2.95134
2.95047
2.94947
2.94824
2.94671
2.94477
2.94237
2.93948
2.93615
2.93215
2.92764
2.92313
2.91857
2.91373
2.90835
2.90215
2.89502
2.88702
2.87826
2.86873
2.8582
2.84625
2.83248
2.81668
2.79874
2.77843
2.75526
2.72859
2.69813
2.96266
2.96248
2.96213
2.96175
2.96135
2.9609
2.9604
2.95985
2.95925
2.9586
2.95789
2.95712
2.95631
2.95546
2.95457
2.95367
2.95275
2.95183
2.95092
2.95001
2.94909
2.94813
2.94709
2.94591
2.9445
2.94278
2.94069
2.93817
2.9352
2.93183
2.92777
2.92316
2.91844
2.91356
2.90838
2.90267
2.89625
2.88901
2.88096
2.87211
2.86241
2.85167
2.83955
2.82577
2.81014
2.7925
2.77261
2.7501
2.72442
2.69534
2.96078
2.96056
2.96017
2.95975
2.9593
2.95881
2.95827
2.95768
2.95704
2.95634
2.95559
2.95478
2.95393
2.95302
2.95208
2.95112
2.95013
2.94913
2.94813
2.94711
2.94607
2.94498
2.94379
2.94244
2.94086
2.93899
2.93675
2.93412
2.93107
2.92763
2.9235
2.91875
2.91384
2.90871
2.90325
2.8973
2.8907
2.88336
2.87524
2.86632
2.85652
2.84567
2.83352
2.81981
2.80439
2.78713
2.76779
2.7461
2.72159
2.6941
2.95889
2.95865
2.95821
2.95776
2.95727
2.95674
2.95616
2.95553
2.95485
2.95411
2.95332
2.95247
2.95157
2.95062
2.94962
2.94859
2.94754
2.94646
2.94537
2.94425
2.9431
2.94188
2.94055
2.93905
2.93733
2.93531
2.93294
2.9302
2.92707
2.92356
2.91934
2.91446
2.90936
2.90402
2.89834
2.89221
2.88548
2.87805
2.86987
2.86089
2.85106
2.84019
2.82808
2.81452
2.7994
2.78258
2.76389
2.7431
2.71987
2.69411
2.95701
2.95674
2.95627
2.95578
2.95525
2.95468
2.95407
2.9534
2.95268
2.95191
2.95107
2.95018
2.94924
2.94824
2.94719
2.94611
2.94498
2.94383
2.94265
2.94144
2.94017
2.93883
2.93738
2.93574
2.93388
2.93173
2.92925
2.92641
2.9232
2.91961
2.9153
2.91029
2.90504
2.89951
2.89366
2.88738
2.88055
2.87306
2.86483
2.85584
2.84601
2.83519
2.82319
2.80986
2.79509
2.77879
2.76081
2.74099
2.71909
2.6951
2.95513
2.95483
2.95433
2.9538
2.95324
2.95264
2.95199
2.95129
2.95053
2.94972
2.94885
2.94792
2.94694
2.94589
2.94479
2.94365
2.94246
2.94124
2.93997
2.93867
2.9373
2.93585
2.93427
2.93252
2.93053
2.92826
2.92567
2.92273
2.91944
2.91579
2.91139
2.90626
2.90086
2.89519
2.8892
2.8828
2.87589
2.86835
2.86012
2.85114
2.84136
2.83064
2.81881
2.80575
2.79139
2.77567
2.75846
2.73964
2.71908
2.69685
2.95325
2.95292
2.95239
2.95183
2.95124
2.95061
2.94992
2.94919
2.9484
2.94756
2.94665
2.94569
2.94466
2.94357
2.94242
2.94122
2.93997
2.93868
2.93734
2.93594
2.93449
2.93293
2.93124
2.92937
2.92726
2.92488
2.92219
2.91918
2.91581
2.91208
2.9076
2.90236
2.89684
2.89104
2.88494
2.87847
2.8715
2.86393
2.85571
2.84678
2.8371
2.82652
2.8149
2.80216
2.78825
2.77313
2.75672
2.73892
2.71967
2.69911
2.95137
2.95101
2.95045
2.94987
2.94925
2.94858
2.94787
2.9471
2.94628
2.94541
2.94447
2.94347
2.9424
2.94127
2.94008
2.93883
2.93752
2.93615
2.93474
2.93327
2.93172
2.93007
2.92828
2.9263
2.92409
2.92161
2.91883
2.91573
2.9123
2.9085
2.90394
2.8986
2.89297
2.88707
2.88089
2.87435
2.86735
2.85978
2.85159
2.84275
2.83318
2.82278
2.81141
2.79902
2.78559
2.7711
2.75548
2.73868
2.7207
2.70171
2.94949
2.94911
2.94852
2.9479
2.94726
2.94656
2.94582
2.94503
2.94418
2.94327
2.9423
2.94127
2.94017
2.939
2.93776
2.93646
2.93509
2.93367
2.93218
2.93064
2.92901
2.92727
2.92539
2.92332
2.92101
2.91843
2.91557
2.9124
2.9089
2.90504
2.9004
2.89497
2.88925
2.88327
2.87703
2.87046
2.86344
2.85589
2.84775
2.83901
2.82959
2.81939
2.80831
2.7963
2.78336
2.76949
2.75466
2.73883
2.72204
2.70451
2.9476
2.9472
2.94658
2.94594
2.94527
2.94455
2.94378
2.94296
2.94208
2.94115
2.94015
2.93909
2.93795
2.93674
2.93546
2.93411
2.93269
2.93121
2.92967
2.92805
2.92635
2.92453
2.92257
2.92041
2.91801
2.91535
2.91241
2.90917
2.90561
2.90169
2.89699
2.89148
2.88568
2.87964
2.87336
2.86677
2.85975
2.85223
2.84417
2.83555
2.8263
2.81633
2.80554
2.79392
2.78149
2.76825
2.75418
2.73927
2.7236
2.70739
2.94571
2.94529
2.94465
2.94399
2.94329
2.94254
2.94175
2.9409
2.94
2.93904
2.93802
2.93692
2.93575
2.93451
2.93319
2.9318
2.93033
2.92879
2.92719
2.92551
2.92374
2.92186
2.91981
2.91757
2.9151
2.91236
2.90935
2.90605
2.90243
2.89846
2.89369
2.88811
2.88226
2.87617
2.86986
2.86327
2.85627
2.8488
2.84083
2.83235
2.82329
2.81355
2.80308
2.79187
2.77994
2.76731
2.75398
2.73994
2.72531
2.7103
2.94382
2.94338
2.94272
2.94203
2.94131
2.94054
2.93972
2.93885
2.93792
2.93694
2.93589
2.93477
2.93357
2.9323
2.93094
2.92951
2.92799
2.92641
2.92475
2.92302
2.92119
2.91924
2.91713
2.91481
2.91227
2.90946
2.90638
2.90303
2.89936
2.89534
2.89051
2.88488
2.87897
2.87286
2.86654
2.85995
2.85298
2.84558
2.83772
2.82938
2.82051
2.81103
2.80088
2.79007
2.77865
2.76662
2.754
2.74079
2.72711
2.71318
2.94193
2.94147
2.94078
2.94007
2.93933
2.93853
2.93769
2.9368
2.93586
2.93485
2.93378
2.93264
2.93141
2.93011
2.92872
2.92724
2.92569
2.92406
2.92235
2.92056
2.91868
2.91667
2.9145
2.91213
2.90951
2.90665
2.90351
2.9001
2.89639
2.89233
2.88745
2.88176
2.87582
2.86968
2.86336
2.85679
2.84988
2.84255
2.8348
2.82662
2.81796
2.80874
2.79892
2.78851
2.77757
2.76613
2.75418
2.74174
2.72895
2.71598
2.94003
2.93955
2.93885
2.93811
2.93735
2.93653
2.93567
2.93476
2.9338
2.93277
2.93168
2.93051
2.92927
2.92794
2.92652
2.92501
2.92342
2.92174
2.91999
2.91816
2.91622
2.91416
2.91194
2.90951
2.90684
2.90391
2.90073
2.89727
2.89352
2.88941
2.88449
2.87877
2.8728
2.86665
2.86034
2.8538
2.84693
2.8397
2.83207
2.82406
2.8156
2.80664
2.79715
2.78715
2.77668
2.7658
2.75449
2.74278
2.73081
2.7187
2.93813
2.93763
2.93691
2.93616
2.93537
2.93454
2.93366
2.93273
2.93175
2.9307
2.92959
2.92841
2.92714
2.92579
2.92434
2.9228
2.92117
2.91946
2.91767
2.91579
2.91381
2.91171
2.90943
2.90695
2.90424
2.90126
2.89803
2.89453
2.89074
2.8866
2.88164
2.87589
2.8699
2.86375
2.85745
2.85094
2.84414
2.837
2.82951
2.82166
2.81341
2.80472
2.79556
2.78595
2.77595
2.7656
2.75489
2.74387
2.73267
2.72137
2.93622
2.93571
2.93497
2.9342
2.93339
2.93254
2.93165
2.9307
2.9297
2.92865
2.92752
2.92632
2.92503
2.92366
2.92218
2.92062
2.91896
2.91721
2.91538
2.91347
2.91145
2.9093
2.90699
2.90446
2.9017
2.89868
2.89541
2.89188
2.88805
2.88388
2.8789
2.87311
2.86711
2.86097
2.85469
2.84823
2.8415
2.83445
2.82709
2.81941
2.81138
2.80294
2.7941
2.78488
2.77533
2.7655
2.75537
2.745
2.73454
2.72399
2.93431
2.93379
2.93302
2.93224
2.93142
2.93055
2.92964
2.92868
2.92767
2.9266
2.92546
2.92424
2.92294
2.92155
2.92005
2.91846
2.91678
2.915
2.91314
2.91118
2.90913
2.90695
2.9046
2.90203
2.89923
2.89618
2.89287
2.8893
2.88545
2.88125
2.87624
2.87044
2.86444
2.8583
2.85205
2.84564
2.83898
2.83203
2.82481
2.8173
2.80947
2.80129
2.79275
2.78389
2.77479
2.76547
2.75589
2.74614
2.73637
2.72656
2.93239
2.93186
2.93108
2.93027
2.92944
2.92856
2.92763
2.92666
2.92564
2.92456
2.92341
2.92218
2.92087
2.91946
2.91795
2.91634
2.91462
2.91282
2.91092
2.90894
2.90685
2.90464
2.90226
2.89966
2.89683
2.89374
2.8904
2.8868
2.88293
2.87871
2.87368
2.86787
2.86186
2.85574
2.84952
2.84316
2.83657
2.82973
2.82264
2.81529
2.80767
2.79974
2.79148
2.78297
2.77429
2.76545
2.75641
2.74725
2.73814
2.72904
2.93047
2.92992
2.92913
2.92831
2.92746
2.92657
2.92563
2.92465
2.92362
2.92252
2.92137
2.92013
2.91881
2.91739
2.91587
2.91424
2.9125
2.91067
2.90875
2.90674
2.90462
2.90238
2.89996
2.89734
2.89448
2.89136
2.88799
2.88438
2.88048
2.87624
2.8712
2.86539
2.85939
2.85328
2.84709
2.84078
2.83428
2.82754
2.82057
2.81338
2.80596
2.79827
2.79029
2.7821
2.7738
2.76542
2.75689
2.74831
2.73982
2.73141
2.92854
2.92798
2.92718
2.92635
2.92548
2.92458
2.92363
2.92264
2.9216
2.9205
2.91934
2.9181
2.91677
2.91534
2.91381
2.91216
2.91041
2.90856
2.90661
2.90457
2.90243
2.90016
2.89772
2.89508
2.89219
2.88905
2.88566
2.88202
2.8781
2.87385
2.86881
2.86299
2.857
2.85091
2.84476
2.8385
2.83207
2.82544
2.81859
2.81155
2.80432
2.79687
2.78916
2.78126
2.77331
2.76536
2.75732
2.74927
2.74138
2.73364
2.92661
2.92604
2.92522
2.92438
2.92351
2.92259
2.92164
2.92064
2.91959
2.91849
2.91733
2.91608
2.91475
2.91332
2.91177
2.91012
2.90835
2.90647
2.9045
2.90244
2.90027
2.89798
2.89552
2.89286
2.88996
2.8868
2.88339
2.87973
2.87579
2.87154
2.86649
2.86068
2.8547
2.84863
2.84251
2.8363
2.82995
2.82342
2.81669
2.80978
2.80273
2.79551
2.78806
2.78044
2.77282
2.76524
2.75766
2.75012
2.74279
2.7357
2.92467
2.92409
2.92326
2.92241
2.92153
2.92061
2.91965
2.91864
2.91759
2.91649
2.91532
2.91408
2.91275
2.91131
2.90976
2.9081
2.90632
2.90442
2.90243
2.90034
2.89815
2.89584
2.89337
2.89069
2.88777
2.8846
2.88117
2.8775
2.87355
2.86929
2.86424
2.85844
2.85248
2.84643
2.84034
2.83418
2.82791
2.82147
2.81485
2.80807
2.80118
2.79417
2.78697
2.77962
2.77229
2.76506
2.75789
2.75083
2.74403
2.73754
2.92272
2.92214
2.9213
2.92044
2.91956
2.91863
2.91766
2.91665
2.9156
2.9145
2.91333
2.91209
2.91076
2.90933
2.90778
2.9061
2.90431
2.90241
2.90039
2.89829
2.89608
2.89375
2.89126
2.88857
2.88564
2.88245
2.87901
2.87533
2.87137
2.8671
2.86205
2.85627
2.85034
2.84431
2.83824
2.83213
2.82593
2.81958
2.81306
2.80639
2.79964
2.79282
2.78586
2.77877
2.77171
2.7648
2.758
2.75137
2.74506
2.73914
2.92077
2.92018
2.91934
2.91848
2.91758
2.91665
2.91568
2.91467
2.91362
2.91252
2.91136
2.91012
2.90879
2.90736
2.90581
2.90414
2.90234
2.90042
2.89839
2.89626
2.89403
2.89169
2.88919
2.88649
2.88355
2.88036
2.87691
2.87321
2.86925
2.86497
2.85993
2.85417
2.84826
2.84226
2.83622
2.83015
2.824
2.81775
2.81133
2.80476
2.79813
2.79146
2.78471
2.77786
2.77106
2.76443
2.75796
2.75173
2.74586
2.74046
2.91882
2.91823
2.91738
2.91651
2.91562
2.91468
2.91371
2.9127
2.91165
2.91055
2.90939
2.90816
2.90684
2.90541
2.90387
2.90219
2.90039
2.89846
2.89642
2.89427
2.89203
2.88967
2.88716
2.88445
2.88151
2.87831
2.87486
2.87115
2.86718
2.8629
2.85787
2.85213
2.84624
2.84028
2.83427
2.82822
2.82213
2.81596
2.80963
2.80316
2.79663
2.79009
2.78351
2.77688
2.77031
2.76392
2.75775
2.75186
2.7464
2.74146
2.91686
2.91627
2.91542
2.91455
2.91365
2.91271
2.91174
2.91073
2.90969
2.90859
2.90744
2.90622
2.9049
2.90349
2.90195
2.90028
2.89847
2.89654
2.89448
2.89232
2.89006
2.88768
2.88516
2.88245
2.87951
2.87631
2.87285
2.86914
2.86516
2.86089
2.85586
2.85014
2.84428
2.83835
2.83237
2.82636
2.82032
2.8142
2.80797
2.80158
2.79514
2.78871
2.78227
2.77581
2.76944
2.76327
2.75734
2.75175
2.74663
2.74209
2.91489
2.9143
2.91345
2.91258
2.91168
2.91075
2.90978
2.90878
2.90774
2.90665
2.9055
2.90429
2.90298
2.90158
2.90005
2.89838
2.89658
2.89464
2.89257
2.8904
2.88812
2.88573
2.8832
2.88049
2.87755
2.87435
2.87089
2.86718
2.8632
2.85893
2.85391
2.8482
2.84237
2.83648
2.83053
2.82455
2.81854
2.81248
2.80632
2.80002
2.79366
2.7873
2.78097
2.77466
2.76844
2.76244
2.75672
2.75137
2.74652
2.74231
2.91291
2.91233
2.91148
2.91062
2.90973
2.9088
2.90783
2.90683
2.90579
2.90471
2.90358
2.90237
2.90108
2.89968
2.89816
2.89651
2.89471
2.89277
2.8907
2.88851
2.88622
2.88382
2.88128
2.87856
2.87562
2.87243
2.86898
2.86526
2.86129
2.85702
2.85201
2.84632
2.84051
2.83465
2.82874
2.82279
2.81681
2.81079
2.80469
2.79847
2.79217
2.78587
2.77962
2.77341
2.76732
2.76144
2.75586
2.75068
2.74603
2.74207
2.91092
2.91035
2.90952
2.90866
2.90777
2.90685
2.90589
2.9049
2.90387
2.90279
2.90167
2.90047
2.89919
2.89781
2.8963
2.89466
2.89287
2.89093
2.88885
2.88665
2.88435
2.88193
2.87939
2.87667
2.87374
2.87055
2.8671
2.86339
2.85942
2.85515
2.85016
2.84448
2.8387
2.83287
2.82699
2.82107
2.81512
2.80914
2.80308
2.79691
2.79067
2.78442
2.77822
2.77208
2.76606
2.76026
2.75477
2.74969
2.74516
2.74134
2.90893
2.90837
2.90755
2.9067
2.90582
2.90491
2.90396
2.90298
2.90195
2.90089
2.89977
2.89858
2.89732
2.89595
2.89446
2.89282
2.89104
2.88911
2.88703
2.88482
2.88251
2.88008
2.87753
2.87482
2.87189
2.86871
2.86527
2.86156
2.85759
2.85334
2.84835
2.8427
2.83694
2.83112
2.82528
2.8194
2.81347
2.80751
2.80148
2.79536
2.78916
2.78294
2.77676
2.77065
2.76467
2.7589
2.75343
2.74839
2.74389
2.7401
2.90694
2.90639
2.90558
2.90475
2.90388
2.90298
2.90204
2.90107
2.90005
2.899
2.89789
2.89671
2.89546
2.8941
2.89263
2.89101
2.88924
2.88731
2.88524
2.88303
2.8807
2.87827
2.87571
2.87299
2.87007
2.8669
2.86347
2.85977
2.85581
2.85156
2.84659
2.84096
2.83522
2.82943
2.82361
2.81775
2.81185
2.8059
2.7999
2.79381
2.78764
2.78143
2.77525
2.76914
2.76314
2.75735
2.75186
2.74677
2.74221
2.73835
2.90494
2.90441
2.90361
2.9028
2.90195
2.90106
2.90014
2.89917
2.89817
2.89712
2.89602
2.89486
2.89361
2.89227
2.89081
2.88921
2.88746
2.88554
2.88347
2.88125
2.87892
2.87648
2.87392
2.8712
2.86829
2.86514
2.86171
2.85802
2.85407
2.84983
2.84488
2.83927
2.83355
2.82777
2.82198
2.81614
2.81025
2.80432
2.79833
2.79226
2.7861
2.77989
2.77369
2.76754
2.7615
2.75564
2.75005
2.74485
2.74014
2.7361
2.90293
2.90242
2.90165
2.90085
2.90003
2.89916
2.89825
2.89729
2.8963
2.89526
2.89417
2.89301
2.89178
2.89045
2.88901
2.88743
2.88569
2.88379
2.88172
2.87951
2.87717
2.87472
2.87215
2.86944
2.86654
2.8634
2.85999
2.85631
2.85236
2.84814
2.84321
2.83762
2.83192
2.82617
2.82039
2.81456
2.80869
2.80276
2.79677
2.7907
2.78454
2.77832
2.77207
2.76586
2.75973
2.75376
2.74803
2.74264
2.7377
2.73336
2.90091
2.90043
2.89969
2.89891
2.89811
2.89726
2.89637
2.89543
2.89445
2.89342
2.89233
2.89119
2.88997
2.88865
2.88722
2.88566
2.88394
2.88205
2.88
2.87779
2.87545
2.87299
2.87042
2.86771
2.86482
2.8617
2.85831
2.85465
2.8507
2.84648
2.84157
2.83601
2.83035
2.82462
2.81885
2.81303
2.80716
2.80123
2.79523
2.78915
2.78297
2.77671
2.77041
2.7641
2.75786
2.75173
2.7458
2.74015
2.7349
2.73016
2.8989
2.89844
2.89772
2.89697
2.8962
2.89537
2.8945
2.89358
2.89261
2.89159
2.89052
2.88938
2.88816
2.88686
2.88545
2.8839
2.8822
2.88034
2.8783
2.8761
2.87376
2.87129
2.86871
2.86601
2.86313
2.86003
2.85667
2.85302
2.84908
2.84487
2.83997
2.83444
2.82881
2.82311
2.81735
2.81155
2.80568
2.79974
2.79372
2.78761
2.7814
2.77508
2.7687
2.76228
2.75588
2.74956
2.74338
2.73742
2.73177
2.72654
2.89689
2.89645
2.89575
2.89504
2.8943
2.8935
2.89265
2.89174
2.89079
2.88978
2.88871
2.88758
2.88638
2.88508
2.88368
2.88215
2.88048
2.87863
2.87661
2.87443
2.87209
2.86962
2.86704
2.86433
2.86147
2.85839
2.85506
2.85143
2.84751
2.8433
2.83842
2.83291
2.82731
2.82164
2.81591
2.81012
2.80425
2.7983
2.79225
2.7861
2.77983
2.77345
2.76696
2.76041
2.75383
2.74727
2.74079
2.73446
2.72835
2.72253
2.89486
2.89445
2.89379
2.89312
2.8924
2.89163
2.8908
2.88992
2.88898
2.88799
2.88693
2.8858
2.8846
2.88332
2.88193
2.88042
2.87876
2.87694
2.87495
2.87277
2.87045
2.86798
2.86539
2.86269
2.85984
2.85679
2.85348
2.84988
2.84597
2.84178
2.8369
2.83142
2.82585
2.82021
2.81451
2.80873
2.80287
2.79691
2.79083
2.78463
2.7783
2.77183
2.76522
2.75851
2.75172
2.74489
2.73808
2.73133
2.72469
2.71821
2.89281
2.89244
2.89183
2.89119
2.89051
2.88977
2.88897
2.88811
2.88719
2.88621
2.88516
2.88404
2.88285
2.88157
2.88019
2.87869
2.87706
2.87526
2.87329
2.87114
2.86883
2.86637
2.86378
2.86107
2.85823
2.8552
2.85193
2.84837
2.84449
2.84031
2.83544
2.82997
2.82443
2.81882
2.81315
2.80739
2.80154
2.79557
2.78947
2.78322
2.77681
2.77024
2.7635
2.7566
2.74959
2.74247
2.73528
2.72807
2.72084
2.71364
2.89077
2.89045
2.88988
2.88927
2.88862
2.88791
2.88715
2.88631
2.88541
2.88444
2.8834
2.88229
2.8811
2.87983
2.87846
2.87698
2.87536
2.87359
2.87165
2.86953
2.86723
2.86478
2.86219
2.85949
2.85665
2.85365
2.85041
2.84689
2.84305
2.83889
2.83404
2.82858
2.82306
2.81748
2.81182
2.80609
2.80025
2.79428
2.78816
2.78187
2.77538
2.7687
2.76182
2.75473
2.74747
2.74004
2.73246
2.72474
2.71689
2.70891
2.88872
2.88845
2.88791
2.88735
2.88674
2.88606
2.88533
2.88452
2.88364
2.88269
2.88166
2.88056
2.87937
2.8781
2.87674
2.87527
2.87367
2.87193
2.87002
2.86792
2.86565
2.86322
2.86064
2.85794
2.8551
2.85212
2.84892
2.84544
2.84164
2.83752
2.83269
2.82725
2.82175
2.81618
2.81055
2.80483
2.79901
2.79305
2.78691
2.78058
2.77402
2.76724
2.7602
2.75292
2.7454
2.73765
2.72965
2.72141
2.71291
2.70411
2.88666
2.88643
2.88594
2.88542
2.88485
2.88421
2.88351
2.88273
2.88188
2.88094
2.87993
2.87884
2.87766
2.87639
2.87504
2.87357
2.87199
2.87027
2.86839
2.86634
2.8641
2.86168
2.85912
2.85642
2.85359
2.85062
2.84745
2.84402
2.84027
2.83619
2.8314
2.82599
2.8205
2.81495
2.80933
2.80363
2.79782
2.79186
2.78572
2.77935
2.77273
2.76585
2.75867
2.7512
2.74342
2.73533
2.72692
2.71815
2.70898
2.69934
2.8846
2.88441
2.88396
2.88348
2.88295
2.88235
2.88168
2.88094
2.88011
2.8792
2.87821
2.87713
2.87596
2.8747
2.87334
2.87189
2.87032
2.86863
2.86678
2.86476
2.86255
2.86017
2.85763
2.85494
2.85212
2.84915
2.84601
2.84262
2.83893
2.83491
2.83016
2.82479
2.81932
2.81379
2.80818
2.80249
2.79669
2.79074
2.78459
2.77819
2.77152
2.76454
2.75723
2.74957
2.74154
2.73313
2.7243
2.715
2.70516
2.69468
2.88254
2.88238
2.88197
2.88153
2.88104
2.88049
2.87985
2.87914
2.87835
2.87746
2.87649
2.87542
2.87426
2.87301
2.87167
2.87022
2.86867
2.86699
2.86517
2.86319
2.86102
2.85868
2.85616
2.85349
2.85068
2.84773
2.8446
2.84125
2.83761
2.83365
2.82897
2.82365
2.81822
2.8127
2.80711
2.80143
2.79564
2.78969
2.78353
2.77711
2.77038
2.76332
2.75588
2.74805
2.73979
2.73107
2.72183
2.71202
2.70152
2.69021
2.88047
2.88035
2.87998
2.87958
2.87913
2.87861
2.87802
2.87734
2.87658
2.87572
2.87477
2.87373
2.87258
2.87134
2.87
2.86856
2.86702
2.86536
2.86357
2.86162
2.8595
2.8572
2.85472
2.85208
2.84928
2.84634
2.84323
2.83991
2.83633
2.83243
2.82782
2.82256
2.81718
2.8117
2.80613
2.80046
2.79468
2.78873
2.78256
2.77611
2.76934
2.7622
2.75466
2.74666
2.73819
2.72917
2.71956
2.70924
2.69812
2.68602
2.87839
2.8783
2.87797
2.87761
2.8772
2.87672
2.87617
2.87553
2.8748
2.87398
2.87305
2.87203
2.8709
2.86968
2.86835
2.86692
2.86539
2.86374
2.86198
2.86006
2.85799
2.85574
2.8533
2.85069
2.84792
2.845
2.84191
2.83861
2.83507
2.83123
2.8267
2.82152
2.8162
2.81077
2.80524
2.7996
2.79383
2.78788
2.7817
2.77523
2.76842
2.76122
2.75357
2.74543
2.73676
2.72748
2.71751
2.70674
2.69502
2.68217
2.87631
2.87625
2.87596
2.87563
2.87526
2.87482
2.8743
2.8737
2.87301
2.87222
2.87133
2.87033
2.86923
2.86802
2.86671
2.86529
2.86377
2.86214
2.86039
2.85851
2.85648
2.85428
2.8519
2.84934
2.8466
2.8437
2.84063
2.83736
2.83385
2.83007
2.82561
2.82051
2.81527
2.80991
2.80443
2.79883
2.79308
2.78715
2.78097
2.77449
2.76765
2.76038
2.75265
2.74439
2.73554
2.72602
2.71573
2.70454
2.69229
2.67876
2.87422
2.87419
2.87393
2.87364
2.8733
2.8729
2.87242
2.87185
2.8712
2.87045
2.8696
2.86863
2.86756
2.86637
2.86507
2.86367
2.86216
2.86055
2.85882
2.85697
2.85498
2.85283
2.8505
2.848
2.84531
2.84244
2.83939
2.83615
2.83268
2.82895
2.82456
2.81954
2.81439
2.80911
2.8037
2.79816
2.79246
2.78655
2.78038
2.7739
2.76704
2.75973
2.75193
2.74356
2.73456
2.72484
2.71428
2.70272
2.68999
2.67585
2.87213
2.87212
2.87189
2.87163
2.87133
2.87096
2.87051
2.86999
2.86938
2.86866
2.86785
2.86692
2.86588
2.86472
2.86345
2.86206
2.86057
2.85898
2.85727
2.85545
2.85349
2.85139
2.84912
2.84667
2.84404
2.84122
2.83821
2.835
2.83156
2.82787
2.82354
2.81862
2.81355
2.80836
2.80304
2.79757
2.79193
2.78607
2.77994
2.77347
2.76661
2.75928
2.75144
2.74299
2.73388
2.72399
2.71319
2.70133
2.68819
2.67352
2.87004
2.87005
2.86985
2.86962
2.86934
2.869
2.86859
2.8681
2.86753
2.86686
2.86608
2.86519
2.86419
2.86307
2.86182
2.86047
2.859
2.85742
2.85573
2.85393
2.85202
2.84996
2.84775
2.84536
2.84279
2.84003
2.83707
2.83389
2.83049
2.82685
2.82258
2.81773
2.81276
2.80766
2.80243
2.79706
2.7915
2.78571
2.77964
2.77321
2.76637
2.75905
2.75119
2.7427
2.73351
2.7235
2.71253
2.70042
2.68695
2.67185
2.86794
2.86797
2.86779
2.86758
2.86733
2.86702
2.86665
2.86619
2.86566
2.86503
2.8643
2.86345
2.86249
2.86141
2.8602
2.85888
2.85743
2.85588
2.85421
2.85244
2.85055
2.84854
2.84638
2.84406
2.84156
2.83886
2.83596
2.83284
2.82949
2.82589
2.82168
2.8169
2.81202
2.80702
2.80189
2.79662
2.79116
2.78546
2.77946
2.7731
2.76632
2.75903
2.75119
2.7427
2.73347
2.72339
2.7123
2.70003
2.68632
2.67089
2.86584
2.86588
2.86572
2.86554
2.86531
2.86503
2.86468
2.86426
2.86376
2.86318
2.86249
2.86169
2.86078
2.85974
2.85857
2.85729
2.85588
2.85435
2.85271
2.85096
2.84911
2.84713
2.84503
2.84277
2.84034
2.83772
2.83489
2.83183
2.82853
2.82499
2.82084
2.81614
2.81134
2.80644
2.80142
2.79626
2.79091
2.78531
2.77941
2.77315
2.76644
2.75923
2.75145
2.743
2.73378
2.72369
2.71255
2.70018
2.68632
2.67067
2.86374
2.8638
2.86365
2.86348
2.86328
2.86302
2.8627
2.86231
2.86185
2.8613
2.86066
2.85991
2.85904
2.85805
2.85694
2.8557
2.85432
2.85283
2.85122
2.8495
2.84768
2.84574
2.84369
2.84149
2.83913
2.83659
2.83383
2.83085
2.82763
2.82414
2.82007
2.81545
2.81074
2.80593
2.80102
2.79597
2.79074
2.78527
2.77949
2.77334
2.76674
2.75964
2.75195
2.74359
2.73444
2.72439
2.71328
2.70089
2.68699
2.67123
2.86164
2.8617
2.86157
2.86142
2.86123
2.86099
2.86069
2.86034
2.85991
2.8594
2.8588
2.8581
2.85729
2.85635
2.85529
2.8541
2.85277
2.85132
2.84975
2.84806
2.84627
2.84437
2.84236
2.84022
2.83793
2.83547
2.8328
2.8299
2.82676
2.82336
2.81936
2.81484
2.81022
2.80551
2.80071
2.79578
2.79067
2.78532
2.77968
2.77367
2.76722
2.76025
2.7527
2.74446
2.73544
2.7255
2.71448
2.70217
2.68832
2.67258
2.85954
2.85961
2.85949
2.85934
2.85917
2.85895
2.85868
2.85835
2.85795
2.85748
2.85692
2.85627
2.85551
2.85463
2.85362
2.85249
2.85122
2.84982
2.84829
2.84664
2.84488
2.84302
2.84105
2.83897
2.83674
2.83435
2.83178
2.82898
2.82593
2.82262
2.81872
2.8143
2.80978
2.80518
2.80049
2.79568
2.7907
2.78549
2.78
2.77414
2.76786
2.76106
2.75368
2.74562
2.73677
2.72701
2.71615
2.70401
2.69031
2.67472
2.85744
2.85751
2.85739
2.85726
2.8571
2.8569
2.85664
2.85634
2.85597
2.85553
2.85501
2.85441
2.8537
2.85288
2.85194
2.85086
2.84965
2.84831
2.84683
2.84523
2.84352
2.84169
2.83977
2.83773
2.83557
2.83326
2.83077
2.82806
2.82512
2.82191
2.81813
2.81383
2.80943
2.80494
2.80037
2.79568
2.79084
2.78578
2.78045
2.77477
2.76867
2.76208
2.7549
2.74706
2.73844
2.72891
2.7183
2.7064
2.69296
2.67764
2.85533
2.8554
2.8553
2.85517
2.85502
2.85483
2.8546
2.85431
2.85397
2.85357
2.85309
2.85253
2.85187
2.85111
2.85022
2.84921
2.84807
2.84679
2.84537
2.84383
2.84216
2.84039
2.83851
2.83652
2.83441
2.83217
2.82977
2.82717
2.82433
2.82124
2.81758
2.81341
2.80914
2.80479
2.80035
2.7958
2.7911
2.7862
2.78104
2.77555
2.76966
2.76329
2.75636
2.74878
2.74044
2.7312
2.7209
2.70934
2.69627
2.68134
2.85322
2.85329
2.85319
2.85308
2.85294
2.85276
2.85254
2.85228
2.85196
2.85159
2.85114
2.85062
2.85002
2.84931
2.84849
2.84754
2.84647
2.84525
2.84391
2.84242
2.84082
2.8391
2.83727
2.83533
2.83328
2.83111
2.82879
2.82628
2.82355
2.82058
2.81706
2.81304
2.80892
2.80471
2.80041
2.79601
2.79147
2.78675
2.78178
2.7765
2.77084
2.76472
2.75807
2.75078
2.74276
2.73387
2.72396
2.71283
2.70021
2.6858
2.85112
2.85118
2.85109
2.85098
2.85085
2.85068
2.85048
2.85023
2.84994
2.84959
2.84918
2.8487
2.84814
2.84748
2.84672
2.84585
2.84484
2.8437
2.84243
2.84102
2.83948
2.83782
2.83604
2.83416
2.83218
2.83007
2.82783
2.82541
2.82279
2.81994
2.81656
2.81271
2.80875
2.80469
2.80056
2.79633
2.79196
2.78743
2.78266
2.77761
2.7722
2.76636
2.76001
2.75306
2.7454
2.73693
2.72747
2.71684
2.70479
2.691
2.84902
2.84907
2.84899
2.84889
2.84876
2.8486
2.84841
2.84818
2.84791
2.84759
2.84721
2.84677
2.84625
2.84564
2.84494
2.84413
2.84319
2.84213
2.84093
2.8396
2.83813
2.83654
2.83484
2.83302
2.83109
2.82905
2.82689
2.82456
2.82205
2.81932
2.81609
2.8124
2.80861
2.80473
2.80077
2.79672
2.79255
2.78822
2.78368
2.77888
2.77374
2.7682
2.76218
2.7556
2.74836
2.74035
2.73141
2.72136
2.70996
2.69692
2.84693
2.84698
2.8469
2.8468
2.84668
2.84653
2.84635
2.84613
2.84588
2.84558
2.84523
2.84482
2.84434
2.84378
2.84313
2.84238
2.84152
2.84053
2.83942
2.83817
2.83678
2.83527
2.83363
2.83189
2.83003
2.82806
2.82597
2.82373
2.82132
2.81871
2.81563
2.81211
2.8085
2.8048
2.80104
2.79719
2.79323
2.78912
2.78483
2.78029
2.77544
2.77023
2.76457
2.7584
2.75162
2.74412
2.73575
2.72636
2.71571
2.70352
2.84485
2.84489
2.84481
2.84471
2.8446
2.84446
2.84428
2.84408
2.84384
2.84356
2.84323
2.84285
2.84241
2.8419
2.8413
2.84061
2.83982
2.83891
2.83788
2.83671
2.83541
2.83399
2.83243
2.83076
2.82898
2.82709
2.82508
2.82293
2.82061
2.81812
2.81518
2.81184
2.80841
2.80491
2.80134
2.7977
2.79397
2.79011
2.78607
2.78182
2.77729
2.77243
2.76717
2.76144
2.75515
2.7482
2.74048
2.7318
2.72197
2.71073
2.84276
2.8428
2.84273
2.84263
2.84252
2.84239
2.84222
2.84203
2.84181
2.84154
2.84124
2.84089
2.84048
2.84001
2.83946
2.83883
2.8381
2.83726
2.83631
2.83523
2.83402
2.83269
2.83123
2.82964
2.82795
2.82613
2.8242
2.82214
2.81993
2.81755
2.81475
2.81158
2.80834
2.80504
2.80168
2.79826
2.79477
2.79116
2.7874
2.78345
2.77926
2.77477
2.76993
2.76467
2.75892
2.75257
2.74553
2.73764
2.72871
2.7185
2.84069
2.84072
2.84065
2.84056
2.84045
2.84032
2.84017
2.83999
2.83977
2.83953
2.83924
2.83892
2.83854
2.8381
2.8376
2.83702
2.83636
2.83559
2.83472
2.83373
2.83261
2.83137
2.83
2.82852
2.82691
2.82519
2.82334
2.82137
2.81926
2.81699
2.81434
2.81134
2.80828
2.80518
2.80204
2.79885
2.7956
2.79226
2.7888
2.78517
2.78133
2.77724
2.77284
2.76808
2.76288
2.75718
2.75086
2.74381
2.73584
2.72675
2.83862
2.83865
2.83858
2.83849
2.83839
2.83826
2.83812
2.83794
2.83774
2.83751
2.83725
2.83694
2.83659
2.83619
2.83573
2.8352
2.83459
2.8339
2.8331
2.8322
2.83117
2.83003
2.82876
2.82737
2.82587
2.82424
2.82249
2.82062
2.81861
2.81646
2.81395
2.81112
2.80825
2.80535
2.80242
2.79947
2.79647
2.7934
2.79024
2.78694
2.78347
2.77979
2.77585
2.77161
2.767
2.76197
2.75642
2.75024
2.74329
2.73538
2.83655
2.83657
2.8365
2.83642
2.83633
2.83621
2.83607
2.83591
2.83572
2.8355
2.83525
2.83497
2.83464
2.83427
2.83385
2.83337
2.83282
2.83218
2.83146
2.83064
2.8297
2.82866
2.82749
2.82621
2.82481
2.82329
2.82164
2.81988
2.81798
2.81594
2.81357
2.81092
2.80823
2.80553
2.80282
2.8001
2.79736
2.79457
2.79171
2.78875
2.78565
2.78239
2.77893
2.77523
2.77123
2.7669
2.76214
2.75688
2.75098
2.74429
2.83447
2.83449
2.83443
2.83436
2.83427
2.83416
2.83403
2.83387
2.8337
2.83349
2.83326
2.833
2.8327
2.83236
2.83197
2.83153
2.83103
2.83045
2.8298
2.82905
2.82821
2.82726
2.8262
2.82502
2.82373
2.82232
2.82078
2.81913
2.81735
2.81543
2.81321
2.81073
2.80823
2.80573
2.80324
2.80075
2.79826
2.79575
2.7932
2.79058
2.78786
2.78503
2.78205
2.7789
2.77553
2.7719
2.76796
2.76364
2.75882
2.75338
2.83242
2.83242
2.83236
2.8323
2.83222
2.83211
2.83199
2.83185
2.83168
2.83149
2.83128
2.83103
2.83075
2.83044
2.83008
2.82968
2.82922
2.8287
2.82811
2.82744
2.82668
2.82583
2.82487
2.8238
2.82262
2.82132
2.81991
2.81837
2.81671
2.81493
2.81286
2.81055
2.80824
2.80594
2.80367
2.80141
2.79917
2.79694
2.79469
2.79241
2.79008
2.78767
2.78518
2.78258
2.77985
2.77694
2.77382
2.77045
2.76673
2.76256
2.83038
2.83037
2.83033
2.83026
2.83018
2.83008
2.82997
2.82983
2.82968
2.8295
2.8293
2.82907
2.82881
2.82852
2.8282
2.82783
2.82742
2.82695
2.82642
2.82581
2.82513
2.82436
2.8235
2.82254
2.82147
2.82029
2.819
2.81759
2.81606
2.81441
2.8125
2.81037
2.80825
2.80616
2.8041
2.80207
2.80009
2.79812
2.79618
2.79423
2.79228
2.7903
2.7883
2.78625
2.78415
2.78196
2.77967
2.77724
2.77462
2.77173
2.82836
2.82835
2.8283
2.82824
2.82816
2.82807
2.82796
2.82783
2.82769
2.82752
2.82733
2.82712
2.82688
2.82661
2.82631
2.82598
2.8256
2.82518
2.8247
2.82416
2.82356
2.82287
2.8221
2.82125
2.82029
2.81923
2.81806
2.81677
2.81538
2.81387
2.81212
2.81018
2.80826
2.80637
2.80453
2.80273
2.80099
2.7993
2.79765
2.79603
2.79445
2.7929
2.79137
2.78987
2.78839
2.78692
2.78545
2.78396
2.78242
2.78078
2.82633
2.82633
2.82628
2.82622
2.82615
2.82606
2.82596
2.82584
2.8257
2.82554
2.82537
2.82517
2.82495
2.82471
2.82443
2.82413
2.82379
2.82341
2.82298
2.8225
2.82196
2.82135
2.82068
2.81991
2.81906
2.81812
2.81707
2.81592
2.81466
2.8133
2.81172
2.80997
2.80825
2.80657
2.80494
2.80337
2.80187
2.80044
2.79909
2.7978
2.79658
2.79543
2.79438
2.79341
2.79254
2.79177
2.7911
2.79053
2.79005
2.78962
2.8243
2.8243
2.82425
2.8242
2.82413
2.82405
2.82396
2.82385
2.82372
2.82358
2.82341
2.82323
2.82303
2.82281
2.82256
2.82228
2.82197
2.82163
2.82125
2.82082
2.82035
2.81981
2.81922
2.81855
2.8178
2.81697
2.81604
2.81502
2.81391
2.81269
2.81128
2.80973
2.80821
2.80673
2.80532
2.80398
2.80272
2.80155
2.80048
2.7995
2.79863
2.79789
2.79729
2.79684
2.79657
2.79648
2.79659
2.7969
2.79744
2.79819
2.82227
2.82227
2.82223
2.82218
2.82212
2.82205
2.82196
2.82186
2.82175
2.82161
2.82147
2.8213
2.82111
2.82091
2.82068
2.82043
2.82015
2.81985
2.81951
2.81913
2.81871
2.81825
2.81773
2.81715
2.8165
2.81577
2.81497
2.81407
2.81309
2.81203
2.81079
2.80943
2.80812
2.80685
2.80565
2.80454
2.80352
2.8026
2.8018
2.80113
2.80061
2.80025
2.80009
2.80014
2.80044
2.801
2.80185
2.80302
2.80452
2.80638
2.82025
2.82025
2.82022
2.82018
2.82012
2.82006
2.81998
2.81989
2.81978
2.81966
2.81952
2.81937
2.8192
2.81902
2.81881
2.81859
2.81834