/*--------------------------------*- C++ -*----------------------------------*\
  =========                 |
  \\      /  F ield         | OpenFOAM: The Open Source CFD Toolbox
   \\    /   O peration     | Website:  https://openfoam.org
    \\  /    A nd           | Version:  9
     \\/     M anipulation  |
\*---------------------------------------------------------------------------*/
FoamFile
{
    format      ascii;
    class       surfaceScalarField;
    location    "0.16";
    object      phi;
}
// * * * * * * * * * * * * * * * * * * * * * * * * * * * * * * * * * * * * * //

dimensions      [0 3 -1 0 0 0 0];

internalField   nonuniform List<scalar> 
9850
(
4.67222e-07
3.18309e-06
4.67022e-07
3.3459e-06
4.6673e-07
3.51517e-06
4.66341e-07
3.69284e-06
4.65848e-07
3.8798e-06
4.65243e-07
4.07673e-06
4.64513e-07
4.28424e-06
4.63646e-07
4.50299e-06
4.62627e-07
4.73359e-06
4.61441e-07
4.97664e-06
4.6007e-07
5.23266e-06
4.58495e-07
5.50216e-06
4.56698e-07
5.78553e-06
4.54661e-07
6.0831e-06
4.52366e-07
6.3951e-06
4.49799e-07
6.72169e-06
4.46943e-07
7.06297e-06
4.43788e-07
7.41901e-06
4.4032e-07
7.78993e-06
4.3652e-07
8.17597e-06
4.32357e-07
8.57771e-06
4.27782e-07
8.99622e-06
4.22715e-07
9.43332e-06
4.17049e-07
9.89163e-06
4.1065e-07
1.03744e-05
4.03379e-07
1.08849e-05
3.95108e-07
1.14255e-05
3.85748e-07
1.19965e-05
3.7525e-07
1.25961e-05
3.6359e-07
1.32206e-05
3.48535e-07
1.6176e-05
3.32659e-07
1.61543e-05
3.15881e-07
1.61165e-05
2.98012e-07
1.60688e-05
2.78797e-07
1.60191e-05
2.57977e-07
1.59744e-05
2.35336e-07
1.59398e-05
2.10734e-07
1.59184e-05
1.8412e-07
1.591e-05
1.55518e-07
1.59128e-05
1.24989e-07
1.59233e-05
9.25894e-08
1.59377e-05
5.83377e-08
1.59535e-05
2.21941e-08
1.59696e-05
-1.59375e-08
1.59868e-05
-5.61892e-08
1.60074e-05
-9.86944e-08
1.60353e-05
-1.43544e-07
1.6075e-05
-1.90649e-07
1.61312e-05
1.62079e-05
4.73554e-07
3.18317e-06
4.73364e-07
3.34609e-06
4.73083e-07
3.51545e-06
4.72708e-07
3.69321e-06
4.72232e-07
3.88028e-06
4.71644e-07
4.07731e-06
4.70935e-07
4.28495e-06
4.70091e-07
4.50384e-06
4.69098e-07
4.73459e-06
4.6794e-07
4.97779e-06
4.666e-07
5.234e-06
4.65059e-07
5.5037e-06
4.63299e-07
5.78729e-06
4.613e-07
6.08509e-06
4.59047e-07
6.39735e-06
4.56523e-07
6.72421e-06
4.53714e-07
7.06578e-06
4.50608e-07
7.42212e-06
4.47192e-07
7.79334e-06
4.43449e-07
8.17971e-06
4.39351e-07
8.58181e-06
4.34847e-07
9.00072e-06
4.29864e-07
9.4383e-06
4.24295e-07
9.8972e-06
4.1801e-07
1.03807e-05
4.10871e-07
1.08921e-05
4.02756e-07
1.14336e-05
3.93575e-07
1.20057e-05
3.83284e-07
1.26064e-05
3.71863e-07
1.3232e-05
3.57132e-07
1.61907e-05
3.41618e-07
1.61699e-05
3.2525e-07
1.61329e-05
3.07847e-07
1.60862e-05
2.89165e-07
1.60378e-05
2.68957e-07
1.59946e-05
2.47027e-07
1.59618e-05
2.2326e-07
1.59421e-05
1.9763e-07
1.59357e-05
1.70187e-07
1.59403e-05
1.41013e-07
1.59524e-05
1.10191e-07
1.59685e-05
7.77706e-08
1.59859e-05
4.37614e-08
1.60036e-05
8.13588e-09
1.60224e-05
-2.91441e-08
1.60447e-05
-6.80863e-08
1.60742e-05
-1.08596e-07
1.61155e-05
-1.50507e-07
1.61731e-05
1.62506e-05
4.80181e-07
3.18324e-06
4.80001e-07
3.34627e-06
4.79733e-07
3.51572e-06
4.79374e-07
3.69357e-06
4.78915e-07
3.88074e-06
4.78347e-07
4.07788e-06
4.77661e-07
4.28564e-06
4.76842e-07
4.50466e-06
4.75878e-07
4.73555e-06
4.74752e-07
4.97892e-06
4.73446e-07
5.23531e-06
4.71942e-07
5.5052e-06
4.70221e-07
5.78901e-06
4.68264e-07
6.08705e-06
4.66054e-07
6.39956e-06
4.63574e-07
6.72669e-06
4.60811e-07
7.06854e-06
4.57754e-07
7.42518e-06
4.5439e-07
7.79671e-06
4.50704e-07
8.1834e-06
4.46669e-07
8.58584e-06
4.4224e-07
9.00515e-06
4.37343e-07
9.4432e-06
4.31878e-07
9.90267e-06
4.25718e-07
1.03869e-05
4.18729e-07
1.0899e-05
4.1079e-07
1.14415e-05
4.01812e-07
1.20147e-05
3.91749e-07
1.26165e-05
3.80582e-07
1.32432e-05
3.66181e-07
1.62051e-05
3.51029e-07
1.6185e-05
3.35068e-07
1.61488e-05
3.18135e-07
1.61032e-05
3.00003e-07
1.60559e-05
2.80441e-07
1.60141e-05
2.59265e-07
1.5983e-05
2.36372e-07
1.5965e-05
2.11753e-07
1.59603e-05
1.85478e-07
1.59666e-05
1.57663e-07
1.59803e-05
1.28427e-07
1.59978e-05
9.78548e-08
1.60165e-05
6.59944e-08
1.60355e-05
3.287e-08
1.60555e-05
-1.4784e-09
1.6079e-05
-3.69682e-08
1.61097e-05
-7.33886e-08
1.61519e-05
-1.10371e-07
1.62101e-05
1.62874e-05
4.8709e-07
3.18331e-06
4.86922e-07
3.34644e-06
4.86667e-07
3.51597e-06
4.86324e-07
3.69392e-06
4.85884e-07
3.88118e-06
4.85338e-07
4.07843e-06
4.84675e-07
4.2863e-06
4.83884e-07
4.50545e-06
4.8295e-07
4.73649e-06
4.81857e-07
4.98001e-06
4.80587e-07
5.23658e-06
4.79123e-07
5.50667e-06
4.77444e-07
5.79069e-06
4.75532e-07
6.08896e-06
4.73369e-07
6.40172e-06
4.70939e-07
6.72912e-06
4.68229e-07
7.07125e-06
4.65226e-07
7.42818e-06
4.61921e-07
7.80001e-06
4.58299e-07
8.18702e-06
4.54334e-07
8.58981e-06
4.49983e-07
9.0095e-06
4.45177e-07
9.448e-06
4.39818e-07
9.90803e-06
4.33784e-07
1.03929e-05
4.26944e-07
1.09059e-05
4.1918e-07
1.14493e-05
4.10405e-07
1.20234e-05
4.00575e-07
1.26263e-05
3.89672e-07
1.32541e-05
3.75624e-07
1.62192e-05
3.60863e-07
1.61998e-05
3.45338e-07
1.61644e-05
3.28895e-07
1.61196e-05
3.11323e-07
1.60735e-05
2.92408e-07
1.6033e-05
2.71984e-07
1.60034e-05
2.49973e-07
1.5987e-05
2.26384e-07
1.59839e-05
2.01304e-07
1.59916e-05
1.74866e-07
1.60067e-05
1.47207e-07
1.60254e-05
1.18446e-07
1.60453e-05
8.868e-08
1.60652e-05
5.79906e-08
1.60862e-05
2.64821e-08
1.61105e-05
-5.69579e-09
1.61419e-05
-3.82571e-08
1.61845e-05
-7.06528e-08
1.62425e-05
1.63189e-05
4.94275e-07
3.18338e-06
4.94118e-07
3.3466e-06
4.93878e-07
3.51621e-06
4.93552e-07
3.69424e-06
4.93132e-07
3.8816e-06
4.92609e-07
4.07895e-06
4.91972e-07
4.28694e-06
4.91209e-07
4.50621e-06
4.90307e-07
4.73739e-06
4.89249e-07
4.98107e-06
4.88019e-07
5.23781e-06
4.86596e-07
5.50809e-06
4.84962e-07
5.79232e-06
4.83098e-07
6.09083e-06
4.80985e-07
6.40384e-06
4.78608e-07
6.7315e-06
4.75953e-07
7.07391e-06
4.73009e-07
7.43112e-06
4.69766e-07
7.80326e-06
4.66211e-07
8.19058e-06
4.6232e-07
8.5937e-06
4.58052e-07
9.01377e-06
4.53341e-07
9.45271e-06
4.48093e-07
9.91327e-06
4.42189e-07
1.03988e-05
4.35503e-07
1.09126e-05
4.27918e-07
1.14569e-05
4.19352e-07
1.2032e-05
4.09761e-07
1.26359e-05
3.99131e-07
1.32647e-05
3.85447e-07
1.62329e-05
3.7109e-07
1.62141e-05
3.56014e-07
1.61794e-05
3.40076e-07
1.61356e-05
3.23075e-07
1.60905e-05
3.04815e-07
1.60513e-05
2.85152e-07
1.6023e-05
2.64025e-07
1.60082e-05
2.41466e-07
1.60064e-05
2.17577e-07
1.60155e-05
1.92503e-07
1.60318e-05
1.66402e-07
1.60515e-05
1.39421e-07
1.60722e-05
1.11692e-07
1.6093e-05
8.33457e-08
1.61145e-05
5.45338e-08
1.61394e-05
2.54718e-08
1.6171e-05
-3.49856e-09
1.62134e-05
-3.17268e-08
1.62707e-05
1.63455e-05
5.01727e-07
3.18343e-06
5.01582e-07
3.34674e-06
5.01358e-07
3.51643e-06
5.01051e-07
3.69455e-06
5.00652e-07
3.882e-06
5.00152e-07
4.07945e-06
4.99543e-07
4.28755e-06
4.98811e-07
4.50694e-06
4.97943e-07
4.73826e-06
4.96923e-07
4.98209e-06
4.95733e-07
5.239e-06
4.94354e-07
5.50947e-06
4.92767e-07
5.79391e-06
4.90953e-07
6.09264e-06
4.88893e-07
6.4059e-06
4.8657e-07
6.73382e-06
4.83973e-07
7.0765e-06
4.8109e-07
7.43401e-06
4.77912e-07
7.80643e-06
4.74427e-07
8.19407e-06
4.70612e-07
8.59751e-06
4.6643e-07
9.01795e-06
4.61817e-07
9.45733e-06
4.56684e-07
9.91841e-06
4.50916e-07
1.04046e-05
4.4439e-07
1.09191e-05
4.36993e-07
1.14643e-05
4.28644e-07
1.20404e-05
4.193e-07
1.26452e-05
4.0895e-07
1.3275e-05
3.95637e-07
1.62462e-05
3.81689e-07
1.62281e-05
3.67066e-07
1.61941e-05
3.51635e-07
1.6151e-05
3.35212e-07
1.61069e-05
3.17615e-07
1.60689e-05
2.98717e-07
1.60419e-05
2.78477e-07
1.60284e-05
2.56941e-07
1.6028e-05
2.34225e-07
1.60382e-05
2.1049e-07
1.60555e-05
1.85911e-07
1.60761e-05
1.60657e-07
1.60975e-05
1.34891e-07
1.61187e-05
1.08775e-07
1.61407e-05
8.24981e-08
1.61656e-05
5.63296e-08
1.61971e-05
3.06551e-08
1.62391e-05
6.15565e-09
1.62952e-05
1.6368e-05
5.09436e-07
3.18348e-06
5.09304e-07
3.34688e-06
5.09097e-07
3.51664e-06
5.08809e-07
3.69484e-06
5.08433e-07
3.88238e-06
5.07959e-07
4.07993e-06
5.07379e-07
4.28813e-06
5.06679e-07
4.50764e-06
5.05847e-07
4.73909e-06
5.04867e-07
4.98307e-06
5.0372e-07
5.24015e-06
5.02388e-07
5.5108e-06
5.0085e-07
5.79545e-06
4.99088e-07
6.0944e-06
4.97083e-07
6.4079e-06
4.94818e-07
6.73609e-06
4.9228e-07
7.07904e-06
4.8946e-07
7.43683e-06
4.86349e-07
7.80955e-06
4.82935e-07
8.19748e-06
4.79198e-07
8.60125e-06
4.75104e-07
9.02205e-06
4.70592e-07
9.46184e-06
4.65577e-07
9.92342e-06
4.59949e-07
1.04102e-05
4.53589e-07
1.09255e-05
4.46387e-07
1.14715e-05
4.38261e-07
1.20485e-05
4.29171e-07
1.26543e-05
4.19106e-07
1.32851e-05
4.0617e-07
1.62591e-05
3.92632e-07
1.62416e-05
3.78463e-07
1.62082e-05
3.63542e-07
1.61659e-05
3.47697e-07
1.61228e-05
3.30764e-07
1.60858e-05
3.12633e-07
1.60601e-05
2.93274e-07
1.60478e-05
2.72747e-07
1.60485e-05
2.51181e-07
1.60598e-05
2.28749e-07
1.60779e-05
2.05642e-07
1.60992e-05
1.82047e-07
1.61211e-05
1.58149e-07
1.61426e-05
1.34136e-07
1.61647e-05
1.10223e-07
1.61895e-05
8.67119e-08
1.62206e-05
6.40196e-08
1.62618e-05
4.28104e-08
1.63164e-05
1.63868e-05
5.17393e-07
3.18353e-06
5.17275e-07
3.34699e-06
5.17085e-07
3.51683e-06
5.16818e-07
3.69511e-06
5.16466e-07
3.88273e-06
5.1602e-07
4.08037e-06
5.1547e-07
4.28868e-06
5.14805e-07
4.50831e-06
5.14011e-07
4.73988e-06
5.13072e-07
4.98401e-06
5.1197e-07
5.24125e-06
5.10687e-07
5.51208e-06
5.09201e-07
5.79693e-06
5.07493e-07
6.09611e-06
5.05545e-07
6.40985e-06
5.03339e-07
6.73829e-06
5.00864e-07
7.08152e-06
4.98109e-07
7.43958e-06
4.95065e-07
7.81259e-06
4.91724e-07
8.20082e-06
4.88068e-07
8.60491e-06
4.84063e-07
9.02605e-06
4.79655e-07
9.46625e-06
4.74761e-07
9.92831e-06
4.69277e-07
1.04157e-05
4.63087e-07
1.09316e-05
4.56083e-07
1.14785e-05
4.48186e-07
1.20564e-05
4.39355e-07
1.26632e-05
4.29579e-07
1.32949e-05
4.17022e-07
1.62717e-05
4.03897e-07
1.62547e-05
3.90182e-07
1.62219e-05
3.75769e-07
1.61803e-05
3.60501e-07
1.6138e-05
3.44227e-07
1.61021e-05
3.26853e-07
1.60774e-05
3.08362e-07
1.60662e-05
2.88823e-07
1.6068e-05
2.68377e-07
1.60802e-05
2.47206e-07
1.60991e-05
2.25511e-07
1.61209e-05
2.03496e-07
1.61431e-05
1.8136e-07
1.61648e-05
1.5931e-07
1.61867e-05
1.37581e-07
1.62113e-05
1.16487e-07
1.62417e-05
9.64602e-08
1.62818e-05
7.81271e-08
1.63347e-05
1.64025e-05
5.2559e-07
3.18356e-06
5.25486e-07
3.3471e-06
5.25314e-07
3.517e-06
5.25069e-07
3.69535e-06
5.24742e-07
3.88305e-06
5.24325e-07
4.08079e-06
5.23807e-07
4.2892e-06
5.23178e-07
4.50894e-06
5.22423e-07
4.74064e-06
5.21528e-07
4.98491e-06
5.20474e-07
5.2423e-06
5.19241e-07
5.51332e-06
5.17809e-07
5.79836e-06
5.16158e-07
6.09776e-06
5.14269e-07
6.41174e-06
5.12125e-07
6.74044e-06
5.09713e-07
7.08393e-06
5.07024e-07
7.44227e-06
5.04051e-07
7.81556e-06
5.00784e-07
8.20409e-06
4.97209e-07
8.60848e-06
4.93296e-07
9.02997e-06
4.88993e-07
9.47055e-06
4.84222e-07
9.93308e-06
4.78885e-07
1.0421e-05
4.72868e-07
1.09377e-05
4.66067e-07
1.14853e-05
4.58402e-07
1.2064e-05
4.49832e-07
1.26717e-05
4.40348e-07
1.33044e-05
4.28172e-07
1.62839e-05
4.15459e-07
1.62674e-05
4.02196e-07
1.62352e-05
3.88288e-07
1.61942e-05
3.73589e-07
1.61527e-05
3.57966e-07
1.61177e-05
3.41336e-07
1.60941e-05
3.23693e-07
1.60839e-05
3.05115e-07
1.60866e-05
2.85751e-07
1.60996e-05
2.65791e-07
1.61191e-05
2.45443e-07
1.61413e-05
2.2492e-07
1.61636e-05
2.04433e-07
1.61853e-05
1.84201e-07
1.6207e-05
1.64469e-07
1.6231e-05
1.45556e-07
1.62606e-05
1.27891e-07
1.62995e-05
1.12053e-07
1.63506e-05
1.64157e-05
5.34018e-07
3.18359e-06
5.33928e-07
3.34719e-06
5.33775e-07
3.51716e-06
5.33553e-07
3.69557e-06
5.33252e-07
3.88336e-06
5.32865e-07
4.08118e-06
5.3238e-07
4.28969e-06
5.31789e-07
4.50953e-06
5.31076e-07
4.74135e-06
5.30226e-07
4.98576e-06
5.29221e-07
5.24331e-06
5.2804e-07
5.5145e-06
5.26664e-07
5.79974e-06
5.25072e-07
6.09935e-06
5.23244e-07
6.41357e-06
5.21163e-07
6.74252e-06
5.18816e-07
7.08628e-06
5.16195e-07
7.44489e-06
5.13293e-07
7.81847e-06
5.10102e-07
8.20728e-06
5.0661e-07
8.61197e-06
5.02789e-07
9.03379e-06
4.98592e-07
9.47475e-06
4.93947e-07
9.93773e-06
4.88758e-07
1.04262e-05
4.82917e-07
1.09435e-05
4.76322e-07
1.14919e-05
4.68892e-07
1.20715e-05
4.60586e-07
1.268e-05
4.51394e-07
1.33136e-05
4.39598e-07
1.62956e-05
4.27294e-07
1.62798e-05
4.14479e-07
1.6248e-05
4.01068e-07
1.62076e-05
3.86931e-07
1.61669e-05
3.71946e-07
1.61327e-05
3.56041e-07
1.611e-05
3.39222e-07
1.61007e-05
3.21574e-07
1.61043e-05
3.0325e-07
1.61179e-05
2.84444e-07
1.61379e-05
2.65371e-07
1.61603e-05
2.46247e-07
1.61828e-05
2.27291e-07
1.62042e-05
2.08728e-07
1.62255e-05
1.90811e-07
1.62489e-05
1.73852e-07
1.62776e-05
1.58266e-07
1.63151e-05
1.44582e-07
1.63643e-05
1.64267e-05
5.42667e-07
3.18361e-06
5.42592e-07
3.34727e-06
5.42459e-07
3.51729e-06
5.4226e-07
3.69577e-06
5.41987e-07
3.88363e-06
5.4163e-07
4.08153e-06
5.41181e-07
4.29013e-06
5.40628e-07
4.51008e-06
5.39958e-07
4.74202e-06
5.39155e-07
4.98656e-06
5.382e-07
5.24426e-06
5.37075e-07
5.51562e-06
5.35756e-07
5.80106e-06
5.34224e-07
6.10089e-06
5.32459e-07
6.41533e-06
5.30443e-07
6.74453e-06
5.28163e-07
7.08856e-06
5.25611e-07
7.44744e-06
5.22781e-07
7.8213e-06
5.19666e-07
8.21039e-06
5.16257e-07
8.61538e-06
5.12529e-07
9.03751e-06
5.08439e-07
9.47883e-06
5.03921e-07
9.94225e-06
4.98882e-07
1.04312e-05
4.9322e-07
1.09492e-05
4.86832e-07
1.14983e-05
4.79639e-07
1.20787e-05
4.71598e-07
1.26881e-05
4.62698e-07
1.33225e-05
4.5128e-07
1.63071e-05
4.39381e-07
1.62917e-05
4.27007e-07
1.62604e-05
4.14084e-07
1.62206e-05
4.00497e-07
1.61805e-05
3.86133e-07
1.61471e-05
3.70934e-07
1.61252e-05
3.54911e-07
1.61167e-05
3.38156e-07
1.6121e-05
3.20825e-07
1.61353e-05
3.03113e-07
1.61556e-05
2.85237e-07
1.61782e-05
2.67416e-07
1.62006e-05
2.49872e-07
1.62218e-05
2.32833e-07
1.62426e-05
2.16553e-07
1.62652e-05
2.01334e-07
1.62928e-05
1.8757e-07
1.63289e-05
1.75739e-07
1.63761e-05
1.6436e-05
5.5153e-07
3.18362e-06
5.5147e-07
3.34733e-06
5.51357e-07
3.5174e-06
5.51182e-07
3.69595e-06
5.50937e-07
3.88387e-06
5.50612e-07
4.08186e-06
5.50198e-07
4.29055e-06
5.49685e-07
4.5106e-06
5.49059e-07
4.74265e-06
5.48305e-07
4.98731e-06
5.47403e-07
5.24516e-06
5.46333e-07
5.51669e-06
5.45074e-07
5.80232e-06
5.43604e-07
6.10236e-06
5.41903e-07
6.41703e-06
5.39953e-07
6.74648e-06
5.37742e-07
7.09077e-06
5.3526e-07
7.44993e-06
5.32502e-07
7.82405e-06
5.29465e-07
8.21343e-06
5.26139e-07
8.61871e-06
5.22504e-07
9.04115e-06
5.18522e-07
9.48282e-06
5.14131e-07
9.94664e-06
5.09244e-07
1.04361e-05
5.03761e-07
1.09546e-05
4.97582e-07
1.15044e-05
4.90628e-07
1.20856e-05
4.82852e-07
1.26959e-05
4.74243e-07
1.33311e-05
4.63199e-07
1.63181e-05
4.51698e-07
1.63032e-05
4.39756e-07
1.62723e-05
4.27311e-07
1.6233e-05
4.14258e-07
1.61935e-05
4.00498e-07
1.61608e-05
3.85979e-07
1.61397e-05
3.70722e-07
1.6132e-05
3.5482e-07
1.61369e-05
3.38431e-07
1.61517e-05
3.2175e-07
1.61723e-05
3.04992e-07
1.6195e-05
2.88377e-07
1.62172e-05
2.72126e-07
1.6238e-05
2.56468e-07
1.62582e-05
2.41655e-07
1.628e-05
2.27978e-07
1.63065e-05
2.15806e-07
1.6341e-05
2.05572e-07
1.63863e-05
1.64437e-05
5.60597e-07
3.18362e-06
5.60552e-07
3.34737e-06
5.60459e-07
3.5175e-06
5.60309e-07
3.6961e-06
5.60092e-07
3.88409e-06
5.598e-07
4.08215e-06
5.59423e-07
4.29093e-06
5.58951e-07
4.51107e-06
5.5837e-07
4.74323e-06
5.57665e-07
4.98802e-06
5.56817e-07
5.24601e-06
5.55805e-07
5.5177e-06
5.54606e-07
5.80352e-06
5.532e-07
6.10376e-06
5.51564e-07
6.41867e-06
5.49682e-07
6.74837e-06
5.4754e-07
7.09291e-06
5.45129e-07
7.45234e-06
5.42445e-07
7.82674e-06
5.39485e-07
8.21639e-06
5.36242e-07
8.62195e-06
5.32701e-07
9.04469e-06
5.28827e-07
9.48669e-06
5.24563e-07
9.9509e-06
5.19828e-07
1.04409e-05
5.14526e-07
1.09599e-05
5.08557e-07
1.15104e-05
5.01841e-07
1.20923e-05
4.9433e-07
1.27034e-05
4.8601e-07
1.33394e-05
4.75335e-07
1.63288e-05
4.64225e-07
1.63143e-05
4.52705e-07
1.62839e-05
4.40723e-07
1.6245e-05
4.28189e-07
1.6206e-05
4.15012e-07
1.6174e-05
4.01148e-07
1.61536e-05
3.86622e-07
1.61465e-05
3.71531e-07
1.6152e-05
3.56031e-07
1.61672e-05
3.40315e-07
1.6188e-05
3.24595e-07
1.62107e-05
3.09089e-07
1.62327e-05
2.94013e-07
1.62531e-05
2.79598e-07
1.62726e-05
2.66091e-07
1.62935e-05
2.53772e-07
1.63188e-05
2.42987e-07
1.63518e-05
2.34134e-07
1.63952e-05
1.64501e-05
5.69858e-07
3.18362e-06
5.69829e-07
3.3474e-06
5.69756e-07
3.51757e-06
5.69631e-07
3.69622e-06
5.69443e-07
3.88428e-06
5.69184e-07
4.08241e-06
5.68845e-07
4.29126e-06
5.68414e-07
4.5115e-06
5.6788e-07
4.74376e-06
5.67225e-07
4.98867e-06
5.66432e-07
5.2468e-06
5.65478e-07
5.51866e-06
5.64342e-07
5.80465e-06
5.63e-07
6.1051e-06
5.61431e-07
6.42024e-06
5.59618e-07
6.75018e-06
5.57546e-07
7.09498e-06
5.55207e-07
7.45468e-06
5.52596e-07
7.82935e-06
5.49714e-07
8.21927e-06
5.46555e-07
8.62511e-06
5.43107e-07
9.04814e-06
5.3934e-07
9.49046e-06
5.35204e-07
9.95504e-06
5.30621e-07
1.04454e-05
5.255e-07
1.09651e-05
5.19741e-07
1.15162e-05
5.13264e-07
1.20988e-05
5.06015e-07
1.27106e-05
4.97982e-07
1.33474e-05
4.8767e-07
1.63391e-05
4.76942e-07
1.6325e-05
4.65832e-07
1.6295e-05
4.54301e-07
1.62565e-05
4.42267e-07
1.62181e-05
4.2965e-07
1.61866e-05
4.16413e-07
1.61668e-05
4.02584e-07
1.61603e-05
3.8826e-07
1.61663e-05
3.73594e-07
1.61818e-05
3.58776e-07
1.62028e-05
3.44013e-07
1.62255e-05
3.29518e-07
1.62472e-05
3.15504e-07
1.62671e-05
3.02199e-07
1.62859e-05
2.89845e-07
1.63059e-05
2.78714e-07
1.633e-05
2.69134e-07
1.63614e-05
2.61476e-07
1.64028e-05
1.64554e-05
5.79304e-07
3.1836e-06
5.7929e-07
3.34741e-06
5.79238e-07
3.51762e-06
5.79138e-07
3.69632e-06
5.78979e-07
3.88444e-06
5.78754e-07
4.08264e-06
5.78452e-07
4.29157e-06
5.78064e-07
4.51189e-06
5.77577e-07
4.74425e-06
5.76974e-07
4.98928e-06
5.76236e-07
5.24754e-06
5.75342e-07
5.51955e-06
5.74269e-07
5.80572e-06
5.72993e-07
6.10638e-06
5.71492e-07
6.42174e-06
5.69749e-07
6.75192e-06
5.67747e-07
7.09698e-06
5.6548e-07
7.45694e-06
5.62944e-07
7.83188e-06
5.60139e-07
8.22208e-06
5.57064e-07
8.62819e-06
5.53709e-07
9.05149e-06
5.50049e-07
9.49412e-06
5.4604e-07
9.95905e-06
5.4161e-07
1.04499e-05
5.36669e-07
1.097e-05
5.31121e-07
1.15217e-05
5.2488e-07
1.2105e-05
5.17894e-07
1.27176e-05
5.10143e-07
1.33552e-05
5.00187e-07
1.63491e-05
4.89832e-07
1.63353e-05
4.79119e-07
1.63057e-05
4.68023e-07
1.62676e-05
4.5647e-07
1.62296e-05
4.4439e-07
1.61987e-05
4.3175e-07
1.61794e-05
4.18582e-07
1.61735e-05
4.0498e-07
1.61799e-05
3.91093e-07
1.61957e-05
3.77106e-07
1.62168e-05
3.63219e-07
1.62393e-05
3.49639e-07
1.62608e-05
3.36577e-07
1.62802e-05
3.24254e-07
1.62983e-05
3.12908e-07
1.63172e-05
3.02806e-07
1.63401e-05
2.94264e-07
1.63699e-05
2.87638e-07
1.64095e-05
1.64597e-05
5.88922e-07
3.18358e-06
5.88924e-07
3.34741e-06
5.88893e-07
3.51765e-06
5.88818e-07
3.6964e-06
5.8869e-07
3.88457e-06
5.88498e-07
4.08283e-06
5.88235e-07
4.29183e-06
5.8789e-07
4.51223e-06
5.8745e-07
4.74469e-06
5.86899e-07
4.98983e-06
5.86218e-07
5.24822e-06
5.85384e-07
5.52039e-06
5.84375e-07
5.80673e-06
5.83166e-07
6.10759e-06
5.81735e-07
6.42317e-06
5.80062e-07
6.7536e-06
5.78132e-07
7.09891e-06
5.75938e-07
7.45914e-06
5.73476e-07
7.83435e-06
5.70749e-07
8.22481e-06
5.67756e-07
8.63118e-06
5.64494e-07
9.05475e-06
5.60942e-07
9.49767e-06
5.57059e-07
9.96293e-06
5.52781e-07
1.04541e-05
5.4802e-07
1.09748e-05
5.42681e-07
1.1527e-05
5.36676e-07
1.2111e-05
5.29948e-07
1.27243e-05
5.22477e-07
1.33626e-05
5.12869e-07
1.63587e-05
5.02876e-07
1.63453e-05
4.92549e-07
1.6316e-05
4.81871e-07
1.62783e-05
4.7078e-07
1.62407e-05
4.59212e-07
1.62103e-05
4.47139e-07
1.61915e-05
4.34594e-07
1.61861e-05
4.21669e-07
1.61929e-05
4.08507e-07
1.62089e-05
3.95284e-07
1.623e-05
3.82194e-07
1.62524e-05
3.69437e-07
1.62735e-05
3.57218e-07
1.62924e-05
3.45754e-07
1.63097e-05
3.35277e-07
1.63277e-05
3.26053e-07
1.63493e-05
3.1839e-07
1.63776e-05
3.12645e-07
1.64152e-05
1.64631e-05
5.98704e-07
3.18356e-06
5.9872e-07
3.3474e-06
5.9871e-07
3.51766e-06
5.98661e-07
3.69645e-06
5.98563e-07
3.88467e-06
5.98406e-07
4.08299e-06
5.98181e-07
4.29205e-06
5.9788e-07
4.51253e-06
5.97488e-07
4.74508e-06
5.96989e-07
4.99032e-06
5.96365e-07
5.24885e-06
5.95593e-07
5.52116e-06
5.94649e-07
5.80768e-06
5.93508e-07
6.10873e-06
5.92146e-07
6.42453e-06
5.90545e-07
6.7552e-06
5.88688e-07
7.10077e-06
5.86567e-07
7.46126e-06
5.8418e-07
7.83673e-06
5.8153e-07
8.22746e-06
5.78621e-07
8.63409e-06
5.7545e-07
9.05792e-06
5.72004e-07
9.50111e-06
5.68248e-07
9.96669e-06
5.64121e-07
1.04583e-05
5.59539e-07
1.09794e-05
5.54408e-07
1.15322e-05
5.48637e-07
1.21168e-05
5.42165e-07
1.27308e-05
5.34967e-07
1.33698e-05
5.25701e-07
1.63679e-05
5.16059e-07
1.6355e-05
5.06104e-07
1.6326e-05
4.95828e-07
1.62886e-05
4.85179e-07
1.62514e-05
4.74098e-07
1.62214e-05
4.62563e-07
1.6203e-05
4.50605e-07
1.6198e-05
4.38311e-07
1.62052e-05
4.25819e-07
1.62214e-05
4.13295e-07
1.62425e-05
4.00924e-07
1.62648e-05
3.88898e-07
1.62856e-05
3.77418e-07
1.63039e-05
3.66693e-07
1.63204e-05
3.56953e-07
1.63374e-05
3.48462e-07
1.63578e-05
3.41525e-07
1.63845e-05
3.36509e-07
1.64202e-05
1.64658e-05
6.08636e-07
3.18352e-06
6.08668e-07
3.34736e-06
6.08679e-07
3.51765e-06
6.08655e-07
3.69647e-06
6.08587e-07
3.88473e-06
6.08465e-07
4.08311e-06
6.08279e-07
4.29224e-06
6.08021e-07
4.51279e-06
6.07678e-07
4.74542e-06
6.07233e-07
4.99077e-06
6.06667e-07
5.24941e-06
6.05957e-07
5.52187e-06
6.05078e-07
5.80856e-06
6.04006e-07
6.1098e-06
6.02715e-07
6.42582e-06
6.01186e-07
6.75673e-06
5.99402e-07
7.10255e-06
5.97355e-07
7.46331e-06
5.95043e-07
7.83904e-06
5.92471e-07
8.23003e-06
5.89645e-07
8.63691e-06
5.86566e-07
9.061e-06
5.83225e-07
9.50445e-06
5.79594e-07
9.97032e-06
5.75617e-07
1.04623e-05
5.71213e-07
1.09838e-05
5.66288e-07
1.15371e-05
5.60749e-07
1.21224e-05
5.5453e-07
1.2737e-05
5.47601e-07
1.33768e-05
5.38668e-07
1.63769e-05
5.29368e-07
1.63643e-05
5.19771e-07
1.63356e-05
5.0988e-07
1.62985e-05
4.99652e-07
1.62616e-05
4.89034e-07
1.6232e-05
4.78007e-07
1.62141e-05
4.66598e-07
1.62094e-05
4.54892e-07
1.62169e-05
4.43016e-07
1.62332e-05
4.31128e-07
1.62544e-05
4.19401e-07
1.62765e-05
4.08019e-07
1.62969e-05
3.97176e-07
1.63147e-05
3.87075e-07
1.63305e-05
3.77942e-07
1.63466e-05
3.70041e-07
1.63657e-05
3.63677e-07
1.63909e-05
3.59231e-07
1.64247e-05
1.64679e-05
6.18708e-07
3.18348e-06
6.18756e-07
3.34732e-06
6.18787e-07
3.51762e-06
6.18789e-07
3.69647e-06
6.18751e-07
3.88477e-06
6.18664e-07
4.0832e-06
6.18518e-07
4.29239e-06
6.18304e-07
4.51301e-06
6.18009e-07
4.74572e-06
6.17618e-07
4.99116e-06
6.1711e-07
5.24992e-06
6.16463e-07
5.52251e-06
6.15651e-07
5.80937e-06
6.14648e-07
6.11081e-06
6.13429e-07
6.42704e-06
6.11972e-07
6.75818e-06
6.10262e-07
7.10426e-06
6.0829e-07
7.46528e-06
6.06054e-07
7.84128e-06
6.03559e-07
8.23252e-06
6.00815e-07
8.63966e-06
5.97827e-07
9.06399e-06
5.94592e-07
9.50769e-06
5.91085e-07
9.97382e-06
5.87256e-07
1.04661e-05
5.83029e-07
1.0988e-05
5.78309e-07
1.15418e-05
5.72999e-07
1.21277e-05
5.67029e-07
1.2743e-05
5.60365e-07
1.33834e-05
5.51756e-07
1.63855e-05
5.42787e-07
1.63733e-05
5.33536e-07
1.63448e-05
5.24014e-07
1.6308e-05
5.14187e-07
1.62714e-05
5.04008e-07
1.62422e-05
4.93459e-07
1.62246e-05
4.82565e-07
1.62203e-05
4.71403e-07
1.6228e-05
4.60093e-07
1.62446e-05
4.48778e-07
1.62657e-05
4.37623e-07
1.62877e-05
4.26801e-07
1.63078e-05
4.16497e-07
1.6325e-05
4.06908e-07
1.63401e-05
3.98257e-07
1.63552e-05
3.90803e-07
1.63731e-05
3.84858e-07
1.63968e-05
3.80811e-07
1.64287e-05
1.64696e-05
6.28909e-07
3.18343e-06
6.28971e-07
3.34726e-06
6.29023e-07
3.51757e-06
6.29051e-07
3.69644e-06
6.29043e-07
3.88478e-06
6.28991e-07
4.08325e-06
6.28885e-07
4.29249e-06
6.28715e-07
4.51317e-06
6.2847e-07
4.74596e-06
6.28133e-07
4.9915e-06
6.27684e-07
5.25037e-06
6.271e-07
5.5231e-06
6.26355e-07
5.81011e-06
6.25422e-07
6.11174e-06
6.24275e-07
6.42819e-06
6.22893e-07
6.75957e-06
6.21257e-07
7.1059e-06
6.1936e-07
7.46717e-06
6.17199e-07
7.84344e-06
6.14783e-07
8.23494e-06
6.12121e-07
8.64232e-06
6.09224e-07
9.06689e-06
6.06092e-07
9.51082e-06
6.02708e-07
9.97721e-06
5.99027e-07
1.04698e-05
5.94976e-07
1.0992e-05
5.90457e-07
1.15463e-05
5.85375e-07
1.21327e-05
5.7965e-07
1.27487e-05
5.73245e-07
1.33898e-05
5.64954e-07
1.63938e-05
5.56305e-07
1.63819e-05
5.47387e-07
1.63537e-05
5.38218e-07
1.63172e-05
5.28773e-07
1.62809e-05
5.19011e-07
1.62519e-05
5.08912e-07
1.62347e-05
4.98498e-07
1.62307e-05
4.87839e-07
1.62387e-05
4.77044e-07
1.62553e-05
4.66245e-07
1.62765e-05
4.55592e-07
1.62983e-05
4.45249e-07
1.63181e-05
4.35391e-07
1.63349e-05
4.26206e-07
1.63493e-05
4.17913e-07
1.63635e-05
4.10766e-07
1.63803e-05
4.05081e-07
1.64025e-05
4.01252e-07
1.64325e-05
1.64711e-05
6.39225e-07
3.18337e-06
6.39302e-07
3.34718e-06
6.39375e-07
3.5175e-06
6.39429e-07
3.69639e-06
6.39451e-07
3.88476e-06
6.39434e-07
4.08327e-06
6.39368e-07
4.29256e-06
6.39243e-07
4.5133e-06
6.39047e-07
4.74616e-06
6.38765e-07
4.99178e-06
6.38375e-07
5.25076e-06
6.37855e-07
5.52362e-06
6.37178e-07
5.81079e-06
6.36316e-07
6.1126e-06
6.35243e-07
6.42926e-06
6.33934e-07
6.76087e-06
6.32374e-07
7.10746e-06
6.30552e-07
7.469e-06
6.28468e-07
7.84552e-06
6.26129e-07
8.23728e-06
6.2355e-07
8.6449e-06
6.20743e-07
9.06969e-06
6.17715e-07
9.51385e-06
6.14453e-07
9.98047e-06
6.10918e-07
1.04733e-05
6.07039e-07
1.09959e-05
6.02722e-07
1.15507e-05
5.97863e-07
1.21376e-05
5.92381e-07
1.27542e-05
5.86231e-07
1.3396e-05
5.78249e-07
1.64017e-05
5.69912e-07
1.63902e-05
5.61313e-07
1.63623e-05
5.52483e-07
1.6326e-05
5.43402e-07
1.62899e-05
5.34033e-07
1.62613e-05
5.24358e-07
1.62444e-05
5.14393e-07
1.62407e-05
5.04198e-07
1.62489e-05
4.93872e-07
1.62657e-05
4.83533e-07
1.62869e-05
4.73317e-07
1.63086e-05
4.63377e-07
1.6328e-05
4.53874e-07
1.63444e-05
4.4499e-07
1.63582e-05
4.36935e-07
1.63716e-05
4.29956e-07
1.63872e-05
4.24369e-07
1.64081e-05
4.20568e-07
1.64363e-05
1.64726e-05
6.49647e-07
3.18331e-06
6.49738e-07
3.34709e-06
6.49831e-07
3.5174e-06
6.49911e-07
3.69631e-06
6.49964e-07
3.8847e-06
6.49982e-07
4.08325e-06
6.49956e-07
4.29258e-06
6.49877e-07
4.51338e-06
6.49731e-07
4.74631e-06
6.49503e-07
4.99201e-06
6.49174e-07
5.25109e-06
6.48718e-07
5.52407e-06
6.48109e-07
5.8114e-06
6.47319e-07
6.11339e-06
6.46319e-07
6.43026e-06
6.45086e-07
6.76211e-06
6.43602e-07
7.10894e-06
6.41856e-07
7.47074e-06
6.39848e-07
7.84753e-06
6.37588e-07
8.23954e-06
6.3509e-07
8.6474e-06
6.32373e-07
9.07241e-06
6.29447e-07
9.51677e-06
6.26307e-07
9.98361e-06
6.22917e-07
1.04767e-05
6.1921e-07
1.09996e-05
6.15091e-07
1.15548e-05
6.10454e-07
1.21422e-05
6.0521e-07
1.27594e-05
5.9931e-07
1.34019e-05
5.91631e-07
1.64094e-05
5.83596e-07
1.63983e-05
5.75306e-07
1.63706e-05
5.66801e-07
1.63345e-05
5.58067e-07
1.62987e-05
5.49071e-07
1.62703e-05
5.39794e-07
1.62537e-05
5.30247e-07
1.62502e-05
5.20482e-07
1.62586e-05
5.10581e-07
1.62756e-05
5.0065e-07
1.62968e-05
4.90812e-07
1.63184e-05
4.81201e-07
1.63377e-05
4.7197e-07
1.63536e-05
4.63288e-07
1.63669e-05
4.55355e-07
1.63795e-05
4.48408e-07
1.63942e-05
4.42756e-07
1.64138e-05
4.38787e-07
1.64403e-05
1.64744e-05
6.60162e-07
3.18324e-06
6.60267e-07
3.34698e-06
6.60381e-07
3.51729e-06
6.60486e-07
3.6962e-06
6.6057e-07
3.88462e-06
6.60624e-07
4.08319e-06
6.60638e-07
4.29257e-06
6.60604e-07
4.51341e-06
6.60508e-07
4.7464e-06
6.60336e-07
4.99218e-06
6.60067e-07
5.25136e-06
6.59676e-07
5.52446e-06
6.59136e-07
5.81194e-06
6.58418e-07
6.11411e-06
6.57493e-07
6.43118e-06
6.56336e-07
6.76326e-06
6.54929e-07
7.11035e-06
6.5326e-07
7.47241e-06
6.51329e-07
7.84946e-06
6.49147e-07
8.24172e-06
6.46731e-07
8.64981e-06
6.44103e-07
9.07504e-06
6.41279e-07
9.5196e-06
6.38259e-07
9.98663e-06
6.35012e-07
1.04799e-05
6.31475e-07
1.10032e-05
6.27552e-07
1.15587e-05
6.23135e-07
1.21467e-05
6.18127e-07
1.27644e-05
6.12474e-07
1.34075e-05
6.0509e-07
1.64168e-05
5.97349e-07
1.6406e-05
5.89358e-07
1.63786e-05
5.81164e-07
1.63427e-05
5.72761e-07
1.63071e-05
5.6412e-07
1.62789e-05
5.55219e-07
1.62626e-05
5.46064e-07
1.62594e-05
5.36694e-07
1.6268e-05
5.2718e-07
1.62851e-05
5.1761e-07
1.63064e-05
5.08093e-07
1.63279e-05
4.98747e-07
1.6347e-05
4.89709e-07
1.63626e-05
4.81138e-07
1.63755e-05
4.73215e-07
1.63874e-05
4.6617e-07
1.64012e-05
4.60292e-07
1.64196e-05
4.55956e-07
1.64446e-05
1.64768e-05
6.70759e-07
3.18317e-06
6.70879e-07
3.34686e-06
6.71012e-07
3.51716e-06
6.71142e-07
3.69607e-06
6.71257e-07
3.8845e-06
6.71347e-07
4.0831e-06
6.71402e-07
4.29251e-06
6.71413e-07
4.5134e-06
6.71368e-07
4.74645e-06
6.71252e-07
4.9923e-06
6.71043e-07
5.25157e-06
6.70718e-07
5.52479e-06
6.70248e-07
5.81241e-06
6.69603e-07
6.11475e-06
6.68754e-07
6.43203e-06
6.67674e-07
6.76434e-06
6.66344e-07
7.11168e-06
6.64752e-07
7.474e-06
6.62899e-07
7.85131e-06
6.60795e-07
8.24382e-06
6.58461e-07
8.65214e-06
6.55922e-07
9.07758e-06
6.53199e-07
9.52232e-06
6.50297e-07
9.98953e-06
6.47193e-07
1.0483e-05
6.43824e-07
1.10065e-05
6.40096e-07
1.15624e-05
6.35897e-07
1.21509e-05
6.31122e-07
1.27692e-05
6.25711e-07
1.3413e-05
6.18619e-07
1.64239e-05
6.11163e-07
1.64135e-05
6.03461e-07
1.63863e-05
5.95567e-07
1.63506e-05
5.87483e-07
1.63152e-05
5.79179e-07
1.62872e-05
5.70633e-07
1.62711e-05
5.61845e-07
1.62682e-05
5.52842e-07
1.6277e-05
5.43679e-07
1.62943e-05
5.3443e-07
1.63156e-05
5.25184e-07
1.63372e-05
5.16044e-07
1.63561e-05
5.07129e-07
1.63715e-05
4.98582e-07
1.6384e-05
4.90569e-07
1.63954e-05
4.83301e-07
1.64085e-05
4.77043e-07
1.64259e-05
4.72148e-07
1.64495e-05
1.64798e-05
6.81426e-07
3.18308e-06
6.81561e-07
3.34673e-06
6.81714e-07
3.517e-06
6.8187e-07
3.69592e-06
6.82016e-07
3.88436e-06
6.82141e-07
4.08298e-06
6.82237e-07
4.29242e-06
6.82294e-07
4.51335e-06
6.823e-07
4.74644e-06
6.8224e-07
4.99236e-06
6.82093e-07
5.25171e-06
6.81834e-07
5.52505e-06
6.81434e-07
5.81281e-06
6.80863e-07
6.11532e-06
6.8009e-07
6.43281e-06
6.79088e-07
6.76534e-06
6.77836e-07
7.11293e-06
6.76322e-07
7.47552e-06
6.74547e-07
7.85309e-06
6.72522e-07
8.24585e-06
6.7027e-07
8.6544e-06
6.67819e-07
9.08003e-06
6.65196e-07
9.52494e-06
6.62412e-07
9.99232e-06
6.59448e-07
1.0486e-05
6.56247e-07
1.10097e-05
6.52712e-07
1.1566e-05
6.48728e-07
1.21548e-05
6.44185e-07
1.27738e-05
6.39014e-07
1.34181e-05
6.32207e-07
1.64307e-05
6.25031e-07
1.64206e-05
6.17609e-07
1.63937e-05
6.10006e-07
1.63582e-05
6.02227e-07
1.63229e-05
5.94247e-07
1.62952e-05
5.8604e-07
1.62793e-05
5.77597e-07
1.62766e-05
5.68936e-07
1.62857e-05
5.60095e-07
1.63031e-05
5.51129e-07
1.63246e-05
5.42112e-07
1.63462e-05
5.33125e-07
1.63651e-05
5.24272e-07
1.63804e-05
5.15674e-07
1.63926e-05
5.07479e-07