/*--------------------------------*- C++ -*----------------------------------*\
  =========                 |
  \\      /  F ield         | OpenFOAM: The Open Source CFD Toolbox
   \\    /   O peration     | Website:  https://openfoam.org
    \\  /    A nd           | Version:  9
     \\/     M anipulation  |
\*---------------------------------------------------------------------------*/
FoamFile
{
    format      ascii;
    class       volScalarField;
    location    "0.16";
    object      rAU;
}
// * * * * * * * * * * * * * * * * * * * * * * * * * * * * * * * * * * * * * //

dimensions      [-1 3 1 0 0 0 0];

internalField   nonuniform List<scalar> 
5000
(
1.48021e-05
1.77313e-05
1.79605e-05
1.81748e-05
1.83743e-05
1.85596e-05
1.87311e-05
1.88895e-05
1.90355e-05
1.91697e-05
1.92931e-05
1.94063e-05
1.95103e-05
1.96062e-05
1.96947e-05
1.97769e-05
1.98537e-05
1.9926e-05
1.99945e-05
2.00599e-05
2.01224e-05
2.01821e-05
2.02387e-05
2.02914e-05
2.03395e-05
2.03822e-05
2.04195e-05
2.04524e-05
2.04829e-05
2.05212e-05
2.06107e-05
2.06311e-05
2.06505e-05
2.06737e-05
2.06982e-05
2.07215e-05
2.07418e-05
2.07581e-05
2.07705e-05
2.07795e-05
2.07866e-05
2.07929e-05
2.07993e-05
2.08063e-05
2.08086e-05
2.07959e-05
2.07711e-05
2.07414e-05
2.07049e-05
2.06605e-05
1.47926e-05
1.77233e-05
1.79525e-05
1.81668e-05
1.83664e-05
1.85518e-05
1.87234e-05
1.88819e-05
1.90279e-05
1.91622e-05
1.92856e-05
1.93989e-05
1.9503e-05
1.95988e-05
1.96874e-05
1.97697e-05
1.98465e-05
1.99188e-05
1.99874e-05
2.00528e-05
2.01153e-05
2.01751e-05
2.02316e-05
2.02842e-05
2.03321e-05
2.03746e-05
2.04117e-05
2.04444e-05
2.04746e-05
2.05127e-05
2.06024e-05
2.06224e-05
2.06413e-05
2.0664e-05
2.06878e-05
2.07103e-05
2.07297e-05
2.07451e-05
2.07564e-05
2.07644e-05
2.07703e-05
2.07754e-05
2.07806e-05
2.07863e-05
2.07921e-05
2.07876e-05
2.07671e-05
2.0738e-05
2.07027e-05
2.06599e-05
1.47826e-05
1.77149e-05
1.79442e-05
1.81586e-05
1.83583e-05
1.85437e-05
1.87154e-05
1.88739e-05
1.90201e-05
1.91544e-05
1.92779e-05
1.93912e-05
1.94954e-05
1.95913e-05
1.96799e-05
1.97622e-05
1.98391e-05
1.99115e-05
1.99801e-05
2.00455e-05
2.01081e-05
2.01678e-05
2.02243e-05
2.02769e-05
2.03247e-05
2.0367e-05
2.04039e-05
2.04363e-05
2.04663e-05
2.05041e-05
2.05941e-05
2.06136e-05
2.06321e-05
2.06543e-05
2.06775e-05
2.06992e-05
2.07177e-05
2.07321e-05
2.07424e-05
2.07494e-05
2.07543e-05
2.07583e-05
2.07623e-05
2.07668e-05
2.07712e-05
2.07748e-05
2.0764e-05
2.07364e-05
2.07023e-05
2.06614e-05
1.47722e-05
1.77062e-05
1.79356e-05
1.815e-05
1.83498e-05
1.85353e-05
1.87071e-05
1.88658e-05
1.9012e-05
1.91464e-05
1.92699e-05
1.93833e-05
1.94876e-05
1.95835e-05
1.96722e-05
1.97545e-05
1.98315e-05
1.99039e-05
1.99726e-05
2.00381e-05
2.01007e-05
2.01604e-05
2.02169e-05
2.02695e-05
2.03171e-05
2.03592e-05
2.03959e-05
2.04282e-05
2.04579e-05
2.04955e-05
2.05858e-05
2.06049e-05
2.0623e-05
2.06446e-05
2.06672e-05
2.06882e-05
2.07059e-05
2.07194e-05
2.07287e-05
2.07347e-05
2.07386e-05
2.07416e-05
2.07446e-05
2.07479e-05
2.07512e-05
2.07535e-05
2.07525e-05
2.07361e-05
2.07036e-05
2.06646e-05
1.47614e-05
1.76972e-05
1.79266e-05
1.81412e-05
1.8341e-05
1.85267e-05
1.86985e-05
1.88573e-05
1.90036e-05
1.91382e-05
1.92618e-05
1.93752e-05
1.94795e-05
1.95756e-05
1.96643e-05
1.97467e-05
1.98237e-05
1.98962e-05
1.99649e-05
2.00304e-05
2.00931e-05
2.01529e-05
2.02094e-05
2.02619e-05
2.03094e-05
2.03514e-05
2.03879e-05
2.04199e-05
2.04495e-05
2.04869e-05
2.05775e-05
2.05962e-05
2.06138e-05
2.0635e-05
2.06569e-05
2.06772e-05
2.06941e-05
2.07068e-05
2.07152e-05
2.07203e-05
2.07233e-05
2.07254e-05
2.07274e-05
2.07297e-05
2.07319e-05
2.07331e-05
2.07319e-05
2.07267e-05
2.0706e-05
2.06693e-05
1.47502e-05
1.76879e-05
1.79174e-05
1.81321e-05
1.8332e-05
1.85177e-05
1.86897e-05
1.88486e-05
1.8995e-05
1.91297e-05
1.92534e-05
1.93669e-05
1.94713e-05
1.95674e-05
1.96562e-05
1.97387e-05
1.98157e-05
1.98883e-05
1.99571e-05
2.00227e-05
2.00854e-05
2.01453e-05
2.02018e-05
2.02542e-05
2.03017e-05
2.03435e-05
2.03798e-05
2.04117e-05
2.0441e-05
2.04783e-05
2.05692e-05
2.05875e-05
2.06047e-05
2.06254e-05
2.06467e-05
2.06664e-05
2.06825e-05
2.06944e-05
2.0702e-05
2.07062e-05
2.07084e-05
2.07096e-05
2.07108e-05
2.07122e-05
2.07135e-05
2.07137e-05
2.07115e-05
2.07053e-05
2.06937e-05
2.06713e-05
1.47387e-05
1.76783e-05
1.79079e-05
1.81227e-05
1.83227e-05
1.85086e-05
1.86807e-05
1.88397e-05
1.89862e-05
1.9121e-05
1.92448e-05
1.93584e-05
1.94629e-05
1.95591e-05
1.96479e-05
1.97305e-05
1.98076e-05
1.98803e-05
1.99491e-05
2.00148e-05
2.00776e-05
2.01375e-05
2.0194e-05
2.02464e-05
2.02938e-05
2.03355e-05
2.03717e-05
2.04033e-05
2.04325e-05
2.04696e-05
2.05609e-05
2.05788e-05
2.05956e-05
2.06159e-05
2.06367e-05
2.06557e-05
2.06711e-05
2.06822e-05
2.0689e-05
2.06925e-05
2.06938e-05
2.06943e-05
2.06947e-05
2.06954e-05
2.06959e-05
2.06953e-05
2.06923e-05
2.06854e-05
2.06731e-05
2.06544e-05
1.47269e-05
1.76684e-05
1.78981e-05
1.8113e-05
1.83132e-05
1.84992e-05
1.86714e-05
1.88305e-05
1.89772e-05
1.91121e-05
1.9236e-05
1.93497e-05
1.94543e-05
1.95505e-05
1.96395e-05
1.97221e-05
1.97994e-05
1.98721e-05
1.9941e-05
2.00068e-05
2.00697e-05
2.01296e-05
2.01862e-05
2.02386e-05
2.02859e-05
2.03275e-05
2.03635e-05
2.0395e-05
2.0424e-05
2.04609e-05
2.05526e-05
2.05702e-05
2.05866e-05
2.06064e-05
2.06267e-05
2.06451e-05
2.06598e-05
2.06702e-05
2.06763e-05
2.0679e-05
2.06797e-05
2.06795e-05
2.06792e-05
2.06792e-05
2.06791e-05
2.06778e-05
2.06742e-05
2.06668e-05
2.06541e-05
2.06353e-05
1.47147e-05
1.76582e-05
1.78881e-05
1.81031e-05
1.83035e-05
1.84895e-05
1.86619e-05
1.88212e-05
1.8968e-05
1.9103e-05
1.9227e-05
1.93409e-05
1.94455e-05
1.95419e-05
1.96309e-05
1.97136e-05
1.97909e-05
1.98637e-05
1.99328e-05
1.99986e-05
2.00616e-05
2.01216e-05
2.01782e-05
2.02306e-05
2.02779e-05
2.03194e-05
2.03553e-05
2.03866e-05
2.04155e-05
2.04523e-05
2.05444e-05
2.05617e-05
2.05777e-05
2.0597e-05
2.06168e-05
2.06346e-05
2.06488e-05
2.06584e-05
2.06639e-05
2.0666e-05
2.0666e-05
2.06651e-05
2.06643e-05
2.06638e-05
2.0663e-05
2.06613e-05
2.06572e-05
2.06494e-05
2.06366e-05
2.06179e-05
1.47022e-05
1.76478e-05
1.78778e-05
1.8093e-05
1.82935e-05
1.84797e-05
1.86522e-05
1.88116e-05
1.89585e-05
1.90937e-05
1.92178e-05
1.93318e-05
1.94366e-05
1.9533e-05
1.96222e-05
1.9705e-05
1.97824e-05
1.98553e-05
1.99244e-05
1.99904e-05
2.00534e-05
2.01135e-05
2.01702e-05
2.02226e-05
2.02699e-05
2.03113e-05
2.03471e-05
2.03783e-05
2.0407e-05
2.04436e-05
2.05362e-05
2.05531e-05
2.05688e-05
2.05878e-05
2.06071e-05
2.06244e-05
2.06379e-05
2.06469e-05
2.06518e-05
2.06532e-05
2.06527e-05
2.06513e-05
2.065e-05
2.06489e-05
2.06478e-05
2.06456e-05
2.06412e-05
2.06332e-05
2.06203e-05
2.06018e-05
1.46895e-05
1.76372e-05
1.78673e-05
1.80826e-05
1.82833e-05
1.84697e-05
1.86423e-05
1.88019e-05
1.89489e-05
1.90842e-05
1.92085e-05
1.93226e-05
1.94275e-05
1.95241e-05
1.96133e-05
1.96962e-05
1.97737e-05
1.98467e-05
1.9916e-05
1.9982e-05
2.00452e-05
2.01054e-05
2.01621e-05
2.02145e-05
2.02618e-05
2.03032e-05
2.03388e-05
2.03699e-05
2.03985e-05
2.0435e-05
2.05281e-05
2.05447e-05
2.05601e-05
2.05786e-05
2.05975e-05
2.06142e-05
2.06272e-05
2.06357e-05
2.06399e-05
2.06408e-05
2.06397e-05
2.06379e-05
2.06362e-05
2.06347e-05
2.06332e-05
2.06308e-05
2.06262e-05
2.0618e-05
2.06052e-05
2.05871e-05
1.46764e-05
1.76264e-05
1.78566e-05
1.80721e-05
1.82729e-05
1.84594e-05
1.86323e-05
1.8792e-05
1.89392e-05
1.90746e-05
1.91991e-05
1.93133e-05
1.94183e-05
1.9515e-05
1.96043e-05
1.96873e-05
1.9765e-05
1.9838e-05
1.99074e-05
1.99736e-05
2.00368e-05
2.00971e-05
2.01539e-05
2.02064e-05
2.02536e-05
2.0295e-05
2.03305e-05
2.03615e-05
2.039e-05
2.04264e-05
2.052e-05
2.05363e-05
2.05514e-05
2.05696e-05
2.0588e-05
2.06043e-05
2.06167e-05
2.06247e-05
2.06284e-05
2.06288e-05
2.06272e-05
2.0625e-05
2.06229e-05
2.06211e-05
2.06193e-05
2.06167e-05
2.0612e-05
2.06038e-05
2.05912e-05
2.05735e-05
1.46631e-05
1.76153e-05
1.78457e-05
1.80613e-05
1.82623e-05
1.8449e-05
1.8622e-05
1.87819e-05
1.89293e-05
1.90649e-05
1.91895e-05
1.93039e-05
1.9409e-05
1.95058e-05
1.95952e-05
1.96784e-05
1.97561e-05
1.98293e-05
1.98987e-05
1.9965e-05
2.00284e-05
2.00888e-05
2.01457e-05
2.01982e-05
2.02455e-05
2.02868e-05
2.03223e-05
2.03532e-05
2.03815e-05
2.04178e-05
2.0512e-05
2.0528e-05
2.05427e-05
2.05606e-05
2.05787e-05
2.05945e-05
2.06064e-05
2.06139e-05
2.06171e-05
2.06171e-05
2.06151e-05
2.06125e-05
2.06101e-05
2.06081e-05
2.06061e-05
2.06033e-05
2.05986e-05
2.05905e-05
2.05782e-05
2.05609e-05
1.46495e-05
1.7604e-05
1.78346e-05
1.80504e-05
1.82515e-05
1.84384e-05
1.86116e-05
1.87717e-05
1.89192e-05
1.9055e-05
1.91797e-05
1.92943e-05
1.93995e-05
1.94965e-05
1.9586e-05
1.96693e-05
1.97471e-05
1.98204e-05
1.989e-05
1.99564e-05
2.00199e-05
2.00804e-05
2.01374e-05
2.019e-05
2.02373e-05
2.02786e-05
2.0314e-05
2.03448e-05
2.03731e-05
2.04093e-05
2.05041e-05
2.05198e-05
2.05342e-05
2.05518e-05
2.05694e-05
2.05849e-05
2.05964e-05
2.06034e-05
2.06061e-05
2.06057e-05
2.06033e-05
2.06004e-05
2.05977e-05
2.05955e-05
2.05935e-05
2.05907e-05
2.05859e-05
2.0578e-05
2.0566e-05
2.05492e-05
1.46357e-05
1.75926e-05
1.78233e-05
1.80393e-05
1.82406e-05
1.84277e-05
1.86011e-05
1.87613e-05
1.89091e-05
1.9045e-05
1.91699e-05
1.92846e-05
1.939e-05
1.94871e-05
1.95768e-05
1.96601e-05
1.9738e-05
1.98115e-05
1.98812e-05
1.99477e-05
2.00114e-05
2.0072e-05
2.01291e-05
2.01818e-05
2.02291e-05
2.02704e-05
2.03058e-05
2.03365e-05
2.03647e-05
2.04009e-05
2.04962e-05
2.05116e-05
2.05258e-05
2.0543e-05
2.05604e-05
2.05754e-05
2.05865e-05
2.05931e-05
2.05954e-05
2.05946e-05
2.05919e-05
2.05888e-05
2.05859e-05
2.05835e-05
2.05814e-05
2.05786e-05
2.0574e-05
2.05663e-05
2.05546e-05
2.05383e-05
1.46217e-05
1.75809e-05
1.78119e-05
1.80281e-05
1.82296e-05
1.84168e-05
1.85904e-05
1.87508e-05
1.88988e-05
1.90349e-05
1.916e-05
1.92748e-05
1.93804e-05
1.94776e-05
1.95674e-05
1.96508e-05
1.97289e-05
1.98025e-05
1.98723e-05
1.9939e-05
2.00028e-05
2.00635e-05
2.01207e-05
2.01735e-05
2.02209e-05
2.02622e-05
2.02976e-05
2.03283e-05
2.03564e-05
2.03925e-05
2.04884e-05
2.05035e-05
2.05174e-05
2.05344e-05
2.05514e-05
2.05661e-05
2.05768e-05
2.0583e-05
2.0585e-05
2.05838e-05
2.05809e-05
2.05775e-05
2.05744e-05
2.0572e-05
2.05698e-05
2.05671e-05
2.05626e-05
2.05552e-05
2.05439e-05
2.05282e-05
1.46075e-05
1.75692e-05
1.78003e-05
1.80167e-05
1.82184e-05
1.84058e-05
1.85796e-05
1.87403e-05
1.88884e-05
1.90247e-05
1.91499e-05
1.9265e-05
1.93707e-05
1.9468e-05
1.9558e-05
1.96415e-05
1.97197e-05
1.97934e-05
1.98634e-05
1.99302e-05
1.99941e-05
2.0055e-05
2.01124e-05
2.01653e-05
2.02127e-05
2.02541e-05
2.02894e-05
2.032e-05
2.03481e-05
2.03841e-05
2.04807e-05
2.04955e-05
2.05092e-05
2.05259e-05
2.05426e-05
2.05569e-05
2.05673e-05
2.05731e-05
2.05748e-05
2.05733e-05
2.05701e-05
2.05665e-05
2.05634e-05
2.05609e-05
2.05587e-05
2.05561e-05
2.05518e-05
2.05447e-05
2.05339e-05
2.05187e-05
1.45931e-05
1.75572e-05
1.77886e-05
1.80052e-05
1.82071e-05
1.83947e-05
1.85687e-05
1.87296e-05
1.88779e-05
1.90144e-05
1.91398e-05
1.9255e-05
1.93609e-05
1.94584e-05
1.95485e-05
1.96322e-05
1.97105e-05
1.97843e-05
1.98544e-05
1.99213e-05
1.99854e-05
2.00465e-05
2.0104e-05
2.0157e-05
2.02045e-05
2.02459e-05
2.02813e-05
2.03118e-05
2.03399e-05
2.03758e-05
2.0473e-05
2.04876e-05
2.05011e-05
2.05175e-05
2.05339e-05
2.0548e-05
2.0558e-05
2.05635e-05
2.05648e-05
2.05631e-05
2.05597e-05
2.05559e-05
2.05527e-05
2.05501e-05
2.0548e-05
2.05455e-05
2.05415e-05
2.05348e-05
2.05244e-05
2.051e-05
1.45785e-05
1.75452e-05
1.77767e-05
1.79935e-05
1.81956e-05
1.83835e-05
1.85577e-05
1.87188e-05
1.88673e-05
1.9004e-05
1.91297e-05
1.9245e-05
1.93511e-05
1.94487e-05
1.95389e-05
1.96228e-05
1.97012e-05
1.97751e-05
1.98454e-05
1.99124e-05
1.99767e-05
2.00379e-05
2.00955e-05
2.01487e-05
2.01963e-05
2.02378e-05
2.02732e-05
2.03037e-05
2.03317e-05
2.03676e-05
2.04654e-05
2.04798e-05
2.0493e-05
2.05092e-05
2.05254e-05
2.05391e-05
2.05488e-05
2.0554e-05
2.05551e-05
2.05531e-05
2.05495e-05
2.05456e-05
2.05423e-05
2.05398e-05
2.05377e-05
2.05354e-05
2.05317e-05
2.05254e-05
2.05156e-05
2.05018e-05
1.45638e-05
1.7533e-05
1.77648e-05
1.79818e-05
1.81841e-05
1.83722e-05
1.85467e-05
1.8708e-05
1.88567e-05
1.89936e-05
1.91194e-05
1.9235e-05
1.93412e-05
1.9439e-05
1.95293e-05
1.96133e-05
1.96919e-05
1.97659e-05
1.98363e-05
1.99035e-05
1.99679e-05
2.00293e-05
2.00871e-05
2.01404e-05
2.01882e-05
2.02297e-05
2.02651e-05
2.02956e-05
2.03236e-05
2.03594e-05
2.04579e-05
2.04721e-05
2.0485e-05
2.0501e-05
2.0517e-05
2.05304e-05
2.05399e-05
2.05448e-05
2.05456e-05
2.05433e-05
2.05396e-05
2.05356e-05
2.05322e-05
2.05297e-05
2.05278e-05
2.05256e-05
2.05222e-05
2.05164e-05
2.05072e-05
2.04942e-05
1.45489e-05
1.75207e-05
1.77527e-05
1.797e-05
1.81725e-05
1.83609e-05
1.85355e-05
1.86971e-05
1.8846e-05
1.89832e-05
1.91092e-05
1.92249e-05
1.93313e-05
1.94292e-05
1.95197e-05
1.96038e-05
1.96825e-05
1.97567e-05
1.98272e-05
1.98946e-05
1.99592e-05
2.00207e-05
2.00787e-05
2.01321e-05
2.018e-05
2.02216e-05
2.02571e-05
2.02876e-05
2.03155e-05
2.03513e-05
2.04505e-05
2.04644e-05
2.04772e-05
2.04929e-05
2.05087e-05
2.05219e-05
2.0531e-05
2.05357e-05
2.05362e-05
2.05338e-05
2.05299e-05
2.05258e-05
2.05224e-05
2.05199e-05
2.05181e-05
2.05162e-05
2.05131e-05
2.05077e-05
2.04991e-05
2.0487e-05
1.4534e-05
1.75083e-05
1.77406e-05
1.79581e-05
1.81609e-05
1.83495e-05
1.85244e-05
1.86861e-05
1.88353e-05
1.89727e-05
1.90989e-05
1.92148e-05
1.93214e-05
1.94194e-05
1.95101e-05
1.95943e-05
1.96732e-05
1.97475e-05
1.98181e-05
1.98857e-05
1.99504e-05
2.00121e-05
2.00703e-05
2.01239e-05
2.01719e-05
2.02136e-05
2.02491e-05
2.02797e-05
2.03075e-05
2.03433e-05
2.04432e-05
2.04568e-05
2.04694e-05
2.0485e-05
2.05005e-05
2.05134e-05
2.05224e-05
2.05268e-05
2.05271e-05
2.05245e-05
2.05204e-05
2.05162e-05
2.05128e-05
2.05103e-05
2.05087e-05
2.0507e-05
2.05042e-05
2.04993e-05
2.04914e-05
2.04802e-05
1.4519e-05
1.74959e-05
1.77284e-05
1.79461e-05
1.81492e-05
1.8338e-05
1.85131e-05
1.86751e-05
1.88246e-05
1.89622e-05
1.90886e-05
1.92047e-05
1.93114e-05
1.94097e-05
1.95005e-05
1.95848e-05
1.96638e-05
1.97383e-05
1.9809e-05
1.98767e-05
1.99416e-05
2.00035e-05
2.00618e-05
2.01156e-05
2.01638e-05
2.02056e-05
2.02412e-05
2.02718e-05
2.02996e-05
2.03354e-05
2.04359e-05
2.04493e-05
2.04617e-05
2.04771e-05
2.04924e-05
2.05052e-05
2.05139e-05
2.0518e-05
2.05181e-05
2.05153e-05
2.05111e-05
2.05068e-05
2.05034e-05
2.0501e-05
2.04994e-05
2.0498e-05
2.04956e-05
2.04912e-05
2.0484e-05
2.04736e-05
1.45038e-05
1.74834e-05
1.77162e-05
1.79341e-05
1.81374e-05
1.83265e-05
1.85019e-05
1.86641e-05
1.88138e-05
1.89516e-05
1.90783e-05
1.91946e-05
1.93015e-05
1.93999e-05
1.94908e-05
1.95753e-05
1.96544e-05
1.9729e-05
1.97999e-05
1.98678e-05
1.99328e-05
1.99949e-05
2.00534e-05
2.01074e-05
2.01558e-05
2.01977e-05
2.02334e-05
2.0264e-05
2.02918e-05
2.03275e-05
2.04288e-05
2.04419e-05
2.04541e-05
2.04693e-05
2.04844e-05
2.0497e-05
2.05055e-05
2.05094e-05
2.05093e-05
2.05064e-05
2.0502e-05
2.04976e-05
2.04941e-05
2.04918e-05
2.04904e-05
2.04891e-05
2.04871e-05
2.04832e-05
2.04766e-05
2.04672e-05
1.44887e-05
1.74709e-05
1.77039e-05
1.79221e-05
1.81257e-05
1.8315e-05
1.84906e-05
1.86531e-05
1.88031e-05
1.89411e-05
1.9068e-05
1.91845e-05
1.92916e-05
1.93901e-05
1.94812e-05
1.95659e-05
1.96451e-05
1.97198e-05
1.97909e-05
1.98589e-05
1.99241e-05
1.99863e-05
2.00451e-05
2.00993e-05
2.01478e-05
2.01899e-05
2.02256e-05
2.02562e-05
2.02841e-05
2.03197e-05
2.04217e-05
2.04346e-05
2.04466e-05
2.04616e-05
2.04766e-05
2.04889e-05
2.04972e-05
2.0501e-05
2.05007e-05
2.04975e-05
2.0493e-05
2.04886e-05
2.0485e-05
2.04827e-05
2.04814e-05
2.04804e-05
2.04786e-05
2.04752e-05
2.04693e-05
2.04608e-05
1.44734e-05
1.74583e-05
1.76916e-05
1.79101e-05
1.81139e-05
1.83035e-05
1.84794e-05
1.86421e-05
1.87923e-05
1.89306e-05
1.90577e-05
1.91744e-05
1.92816e-05
1.93804e-05
1.94716e-05
1.95564e-05
1.96357e-05
1.97106e-05
1.97818e-05
1.98499e-05
1.99153e-05
1.99778e-05
2.00367e-05
2.00911e-05
2.01398e-05
2.01821e-05
2.02179e-05
2.02485e-05
2.02764e-05
2.0312e-05
2.04147e-05
2.04274e-05
2.04392e-05
2.0454e-05
2.04688e-05
2.0481e-05
2.04891e-05
2.04926e-05
2.04921e-05
2.04888e-05
2.04842e-05
2.04796e-05
2.0476e-05
2.04737e-05
2.04725e-05
2.04716e-05
2.04702e-05
2.04672e-05
2.04619e-05
2.04542e-05
1.44582e-05
1.74457e-05
1.76793e-05
1.7898e-05
1.81021e-05
1.82919e-05
1.84681e-05
1.86311e-05
1.87815e-05
1.89201e-05
1.90474e-05
1.91643e-05
1.92718e-05
1.93707e-05
1.94621e-05
1.9547e-05
1.96264e-05
1.97014e-05
1.97727e-05
1.9841e-05
1.99066e-05
1.99693e-05
2.00284e-05
2.0083e-05
2.01319e-05
2.01743e-05
2.02103e-05
2.0241e-05
2.02688e-05
2.03044e-05
2.04078e-05
2.04202e-05
2.04318e-05
2.04465e-05
2.04611e-05
2.04732e-05
2.04811e-05
2.04844e-05
2.04837e-05
2.04803e-05
2.04755e-05
2.04708e-05
2.04671e-05
2.04648e-05
2.04636e-05
2.04629e-05
2.04617e-05
2.04591e-05
2.04544e-05
2.04474e-05
1.44429e-05
1.7433e-05
1.76669e-05
1.78859e-05
1.80903e-05
1.82804e-05
1.84568e-05
1.86201e-05
1.87708e-05
1.89096e-05
1.90371e-05
1.91543e-05
1.92619e-05
1.9361e-05
1.94525e-05
1.95376e-05
1.96172e-05
1.96923e-05
1.97637e-05
1.98322e-05
1.98979e-05
1.99608e-05
2.00201e-05
2.00749e-05
2.01241e-05
2.01666e-05
2.02027e-05
2.02335e-05
2.02613e-05
2.02969e-05
2.04009e-05
2.04132e-05
2.04246e-05
2.04391e-05
2.04536e-05
2.04654e-05
2.04731e-05
2.04763e-05
2.04755e-05
2.04718e-05
2.04668e-05
2.0462e-05
2.04582e-05
2.04558e-05
2.04547e-05
2.04541e-05
2.04531e-05
2.04508e-05
2.04466e-05
2.04403e-05
1.44276e-05
1.74204e-05
1.76546e-05
1.78739e-05
1.80785e-05
1.82689e-05
1.84456e-05
1.86092e-05
1.87601e-05
1.88991e-05
1.90269e-05
1.91443e-05
1.92521e-05
1.93514e-05
1.94431e-05
1.95282e-05
1.96079e-05
1.96832e-05
1.97548e-05
1.98234e-05
1.98893e-05
1.99523e-05
2.00119e-05
2.00669e-05
2.01163e-05
2.0159e-05
2.01952e-05
2.02261e-05
2.02539e-05
2.02895e-05
2.03942e-05
2.04062e-05
2.04174e-05
2.04318e-05
2.04461e-05
2.04578e-05
2.04653e-05
2.04683e-05
2.04673e-05
2.04634e-05
2.04583e-05
2.04533e-05
2.04494e-05
2.04469e-05
2.04457e-05
2.04452e-05
2.04443e-05
2.04422e-05
2.04384e-05
2.04327e-05
1.44123e-05
1.74078e-05
1.76423e-05
1.78619e-05
1.80668e-05
1.82575e-05
1.84344e-05
1.85982e-05
1.87495e-05
1.88887e-05
1.90168e-05
1.91344e-05
1.92424e-05
1.93418e-05
1.94336e-05
1.95189e-05
1.95988e-05
1.96741e-05
1.97458e-05
1.98146e-05
1.98807e-05
1.99439e-05
2.00037e-05
2.0059e-05
2.01086e-05
2.01515e-05
2.01878e-05
2.02187e-05
2.02466e-05
2.02822e-05
2.03876e-05
2.03993e-05
2.04104e-05
2.04246e-05
2.04387e-05
2.04503e-05
2.04576e-05
2.04604e-05
2.04592e-05
2.04551e-05
2.04498e-05
2.04446e-05
2.04405e-05
2.0438e-05
2.04367e-05
2.04361e-05
2.04353e-05
2.04334e-05
2.04299e-05
2.04246e-05
1.4397e-05
1.73952e-05
1.763e-05
1.78499e-05
1.80551e-05
1.8246e-05
1.84233e-05
1.85874e-05
1.87389e-05
1.88784e-05
1.90067e-05
1.91245e-05
1.92327e-05
1.93323e-05
1.94243e-05
1.95097e-05
1.95897e-05
1.96651e-05
1.9737e-05
1.98059e-05
1.98721e-05
1.99355e-05
1.99956e-05
2.00511e-05
2.01009e-05
2.01441e-05
2.01806e-05
2.02115e-05
2.02394e-05
2.02749e-05
2.0381e-05
2.03925e-05
2.04034e-05
2.04174e-05
2.04315e-05
2.04428e-05
2.04501e-05
2.04527e-05
2.04512e-05
2.04469e-05
2.04414e-05
2.0436e-05
2.04317e-05
2.0429e-05
2.04276e-05
2.04269e-05
2.04261e-05
2.04242e-05
2.04208e-05
2.04159e-05
1.43818e-05
1.73826e-05
1.76177e-05
1.78379e-05
1.80434e-05
1.82346e-05
1.84122e-05
1.85766e-05
1.87283e-05
1.88681e-05
1.89967e-05
1.91147e-05
1.92231e-05
1.93229e-05
1.9415e-05
1.95005e-05
1.95806e-05
1.96562e-05
1.97282e-05
1.97972e-05
1.98636e-05
1.99272e-05
1.99875e-05
2.00433e-05
2.00934e-05
2.01367e-05
2.01734e-05
2.02044e-05
2.02323e-05
2.02678e-05
2.03746e-05
2.03858e-05
2.03965e-05
2.04104e-05
2.04243e-05
2.04355e-05
2.04426e-05
2.0445e-05
2.04433e-05
2.04388e-05
2.0433e-05
2.04274e-05
2.04229e-05
2.04199e-05
2.04183e-05
2.04175e-05
2.04165e-05
2.04147e-05
2.04113e-05
2.04064e-05
1.43666e-05
1.73701e-05
1.76055e-05
1.7826e-05
1.80318e-05
1.82233e-05
1.84012e-05
1.85658e-05
1.87179e-05
1.88579e-05
1.89867e-05
1.9105e-05
1.92136e-05
1.93135e-05
1.94058e-05
1.94915e-05
1.95716e-05
1.96473e-05
1.97194e-05
1.97886e-05
1.98551e-05
1.9919e-05
1.99795e-05
2.00355e-05
2.00859e-05
2.01295e-05
2.01663e-05
2.01974e-05
2.02253e-05
2.02608e-05
2.03682e-05
2.03792e-05
2.03897e-05
2.04035e-05
2.04172e-05
2.04283e-05
2.04352e-05
2.04374e-05
2.04355e-05
2.04308e-05
2.04247e-05
2.04188e-05
2.0414e-05
2.04108e-05
2.04089e-05
2.04079e-05
2.04067e-05
2.04047e-05
2.04012e-05
2.03963e-05
1.43515e-05
1.73577e-05
1.75933e-05
1.78141e-05
1.80202e-05
1.82121e-05
1.83902e-05
1.85552e-05
1.87075e-05
1.88478e-05
1.89768e-05
1.90953e-05
1.92041e-05
1.93042e-05
1.93967e-05
1.94825e-05
1.95628e-05
1.96386e-05
1.97108e-05
1.978e-05
1.98468e-05
1.99108e-05
1.99716e-05
2.00279e-05
2.00785e-05
2.01223e-05
2.01593e-05
2.01905e-05
2.02185e-05
2.02539e-05
2.0362e-05
2.03727e-05
2.0383e-05
2.03966e-05
2.04102e-05
2.04212e-05
2.04279e-05
2.04299e-05
2.04278e-05
2.04228e-05
2.04165e-05
2.04102e-05
2.04051e-05
2.04016e-05
2.03994e-05
2.0398e-05
2.03966e-05
2.03943e-05
2.03905e-05
2.03854e-05
1.43365e-05
1.73453e-05
1.75813e-05
1.78024e-05
1.80088e-05
1.82009e-05
1.83793e-05
1.85446e-05
1.86972e-05
1.88378e-05
1.89671e-05
1.90858e-05
1.91948e-05
1.92951e-05
1.93876e-05
1.94736e-05
1.9554e-05
1.96299e-05
1.97022e-05
1.97716e-05
1.98385e-05
1.99027e-05
1.99637e-05
2.00203e-05
2.00712e-05
2.01153e-05
2.01524e-05
2.01838e-05
2.02117e-05
2.02471e-05
2.03559e-05
2.03663e-05
2.03764e-05
2.03899e-05
2.04034e-05
2.04142e-05
2.04207e-05
2.04225e-05
2.04202e-05
2.04149e-05
2.04083e-05
2.04017e-05
2.03962e-05
2.03923e-05
2.03897e-05
2.0388e-05
2.03861e-05
2.03834e-05
2.03793e-05
2.03737e-05
1.43215e-05
1.73329e-05
1.75693e-05
1.77907e-05
1.79974e-05
1.81898e-05
1.83685e-05
1.85341e-05
1.8687e-05
1.88279e-05
1.89574e-05
1.90763e-05
1.91856e-05
1.9286e-05
1.93787e-05
1.94648e-05
1.95453e-05
1.96213e-05
1.96937e-05
1.97632e-05
1.98303e-05
1.98947e-05
1.99559e-05
2.00128e-05
2.00639e-05
2.01083e-05
2.01457e-05
2.01771e-05
2.02051e-05
2.02404e-05
2.03499e-05
2.036e-05
2.03699e-05
2.03833e-05
2.03966e-05
2.04073e-05
2.04137e-05
2.04153e-05
2.04127e-05
2.04071e-05
2.04001e-05
2.03932e-05
2.03873e-05
2.03829e-05
2.03799e-05
2.03777e-05
2.03754e-05
2.03722e-05
2.03675e-05
2.03613e-05
1.43069e-05
1.73207e-05
1.75573e-05
1.7779e-05
1.7986e-05
1.81788e-05
1.83578e-05
1.85237e-05
1.86769e-05
1.8818e-05
1.89478e-05
1.9067e-05
1.91765e-05
1.92771e-05
1.93699e-05
1.94561e-05
1.95367e-05
1.96128e-05
1.96853e-05
1.9755e-05
1.98222e-05
1.98868e-05
1.99483e-05
2.00054e-05
2.00568e-05
2.01015e-05
2.0139e-05
2.01706e-05
2.01986e-05
2.02339e-05
2.0344e-05
2.03539e-05
2.03636e-05
2.03767e-05
2.039e-05
2.04005e-05
2.04067e-05
2.04081e-05
2.04053e-05
2.03994e-05
2.03921e-05
2.03847e-05
2.03784e-05
2.03735e-05
2.037e-05
2.03673e-05
2.03644e-05
2.03605e-05
2.03552e-05
2.03482e-05
1.42926e-05
1.73086e-05
1.75453e-05
1.77674e-05
1.79747e-05
1.81678e-05
1.83472e-05
1.85134e-05
1.86669e-05
1.88083e-05
1.89384e-05
1.90578e-05
1.91675e-05
1.92683e-05
1.93613e-05
1.94476e-05
1.95283e-05
1.96044e-05
1.9677e-05
1.97468e-05
1.98142e-05
1.9879e-05
1.99407e-05
1.99981e-05
2.00498e-05
2.00948e-05
2.01325e-05
2.01642e-05
2.01923e-05
2.02275e-05
2.03382e-05
2.03478e-05
2.03573e-05
2.03704e-05
2.03835e-05
2.03939e-05
2.03999e-05
2.04011e-05
2.0398e-05
2.03918e-05
2.03841e-05
2.03763e-05
2.03695e-05
2.03641e-05
2.036e-05
2.03566e-05
2.03531e-05
2.03485e-05
2.03423e-05
2.03345e-05
1.42785e-05
1.7297e-05
1.75338e-05
1.7756e-05
1.79636e-05
1.8157e-05
1.83367e-05
1.85032e-05
1.8657e-05
1.87988e-05
1.89291e-05
1.90488e-05
1.91586e-05
1.92596e-05
1.93528e-05
1.94392e-05
1.95199e-05
1.95962e-05
1.96689e-05
1.97388e-05
1.98063e-05
1.98713e-05
1.99332e-05
1.99909e-05
2.0043e-05
2.00882e-05
2.01262e-05
2.0158e-05
2.01861e-05
2.02212e-05
2.03326e-05
2.03419e-05
2.03512e-05
2.03641e-05
2.03771e-05
2.03874e-05
2.03933e-05
2.03943e-05
2.03909e-05
2.03844e-05
2.03763e-05
2.0368e-05
2.03607e-05
2.03547e-05
2.035e-05
2.03459e-05
2.03416e-05
2.03362e-05
2.03291e-05
2.03202e-05
1.42643e-05
1.72855e-05
1.75225e-05
1.77448e-05
1.79526e-05
1.81463e-05
1.83264e-05
1.84932e-05
1.86473e-05
1.87893e-05
1.89199e-05
1.90399e-05
1.91499e-05
1.92511e-05
1.93444e-05
1.94309e-05
1.95118e-05
1.95881e-05
1.96609e-05
1.97308e-05
1.97985e-05
1.98637e-05
1.99259e-05
1.99838e-05
2.00362e-05
2.00817e-05
2.012e-05
2.01519e-05
2.018e-05
2.02151e-05
2.03271e-05
2.03362e-05
2.03452e-05
2.0358e-05
2.03708e-05
2.0381e-05
2.03868e-05
2.03876e-05
2.03839e-05
2.03771e-05
2.03685e-05
2.03598e-05
2.03519e-05
2.03453e-05
2.03399e-05
2.03351e-05
2.03299e-05
2.03236e-05
2.03154e-05
2.03053e-05
1.42501e-05
1.72741e-05
1.75113e-05
1.77338e-05
1.79419e-05
1.81359e-05
1.83162e-05
1.84833e-05
1.86377e-05
1.87801e-05
1.8911e-05
1.90311e-05
1.91414e-05
1.92427e-05
1.93362e-05
1.94228e-05
1.95037e-05
1.95801e-05
1.9653e-05
1.97231e-05
1.97908e-05
1.98562e-05
1.99186e-05
1.99769e-05
2.00296e-05
2.00754e-05
2.01139e-05
2.0146e-05
2.01741e-05
2.02092e-05
2.03218e-05
2.03305e-05
2.03394e-05
2.0352e-05
2.03648e-05
2.03748e-05
2.03804e-05
2.0381e-05
2.03771e-05
2.03699e-05
2.0361e-05
2.03517e-05
2.03432e-05
2.0336e-05
2.03298e-05
2.03242e-05
2.03181e-05
2.03108e-05
2.03015e-05
2.029e-05
1.4236e-05
1.72627e-05
1.75003e-05
1.7723e-05
1.79313e-05
1.81256e-05
1.83062e-05
1.84736e-05
1.86284e-05
1.8771e-05
1.89021e-05
1.90226e-05
1.9133e-05
1.92346e-05
1.93281e-05
1.94148e-05
1.94959e-05
1.95723e-05
1.96452e-05
1.97154e-05
1.97833e-05
1.98489e-05
1.99115e-05
1.99701e-05
2.00231e-05
2.00692e-05
2.0108e-05
2.01402e-05
2.01684e-05
2.02034e-05
2.03166e-05
2.03251e-05
2.03337e-05
2.03462e-05
2.03588e-05
2.03688e-05
2.03743e-05
2.03747e-05
2.03705e-05
2.0363e-05
2.03536e-05
2.03438e-05
2.03347e-05
2.03267e-05
2.03198e-05
2.03133e-05
2.03063e-05
2.02979e-05
2.02874e-05
2.02745e-05
1.4222e-05
1.72514e-05
1.74894e-05
1.77124e-05
1.7921e-05
1.81155e-05
1.82964e-05
1.84641e-05
1.86192e-05
1.87621e-05
1.88935e-05
1.90142e-05
1.91249e-05
1.92265e-05
1.93202e-05
1.94071e-05
1.94882e-05
1.95647e-05
1.96377e-05
1.97079e-05
1.97759e-05
1.98416e-05
1.99045e-05
1.99634e-05
2.00167e-05
2.00632e-05
2.01022e-05
2.01347e-05
2.01629e-05
2.01978e-05
2.03116e-05
2.03198e-05
2.03282e-05
2.03405e-05
2.03531e-05
2.0363e-05
2.03683e-05
2.03686e-05
2.03641e-05
2.03562e-05
2.03464e-05
2.03361e-05
2.03263e-05
2.03177e-05
2.03099e-05
2.03025e-05
2.02945e-05
2.02849e-05
2.02731e-05
2.02587e-05
1.42083e-05
1.72402e-05
1.74786e-05
1.7702e-05
1.79108e-05
1.81056e-05
1.82868e-05
1.84548e-05
1.86102e-05
1.87534e-05
1.88851e-05
1.9006e-05
1.91169e-05
1.92187e-05
1.93126e-05
1.93995e-05
1.94807e-05
1.95572e-05
1.96302e-05
1.97006e-05
1.97687e-05
1.98346e-05
1.98977e-05
1.99569e-05
2.00105e-05
2.00573e-05
2.00966e-05
2.01292e-05
2.01575e-05
2.01924e-05
2.03068e-05
2.03146e-05
2.03228e-05
2.0335e-05
2.03475e-05
2.03573e-05
2.03626e-05
2.03627e-05
2.0358e-05
2.03497e-05
2.03394e-05
2.03286e-05
2.03182e-05
2.03088e-05
2.03002e-05
2.02918e-05
2.02828e-05
2.0272e-05
2.02588e-05
2.02428e-05
1.41947e-05
1.72292e-05
1.74679e-05
1.76917e-05
1.79008e-05
1.80959e-05
1.82774e-05
1.84457e-05
1.86014e-05
1.87449e-05
1.88768e-05
1.8998e-05
1.91091e-05
1.92111e-05
1.93051e-05
1.93921e-05
1.94733e-05
1.95499e-05
1.9623e-05
1.96934e-05
1.97616e-05
1.98277e-05
1.9891e-05
1.99505e-05
2.00045e-05
2.00516e-05
2.00912e-05
2.0124e-05
2.01523e-05
2.01872e-05
2.03022e-05
2.03097e-05
2.03177e-05
2.03298e-05
2.03422e-05
2.03519e-05
2.03571e-05
2.0357e-05
2.03521e-05
2.03435e-05
2.03328e-05
2.03213e-05
2.03103e-05
2.03001e-05
2.02907e-05
2.02814e-05
2.02712e-05
2.02592e-05
2.02446e-05
2.02269e-05
1.41815e-05
1.72183e-05
1.74575e-05
1.76816e-05
1.7891e-05
1.80864e-05
1.82682e-05
1.84368e-05
1.85928e-05
1.87365e-05
1.88688e-05
1.89902e-05
1.91015e-05
1.92037e-05
1.92978e-05
1.93849e-05
1.94662e-05
1.95428e-05
1.96159e-05
1.96864e-05
1.97547e-05
1.98209e-05
1.98845e-05
1.99442e-05
1.99986e-05
2.00461e-05
2.0086e-05
2.0119e-05
2.01474e-05
2.01822e-05
2.02977e-05
2.03049e-05
2.03127e-05
2.03247e-05
2.0337e-05
2.03467e-05
2.03518e-05
2.03516e-05
2.03465e-05
2.03375e-05
2.03264e-05
2.03144e-05
2.03027e-05
2.02917e-05
2.02815e-05
2.02712e-05
2.02599e-05
2.02467e-05
2.02306e-05
2.02112e-05
1.41683e-05
1.72075e-05
1.74471e-05
1.76716e-05
1.78814e-05
1.80771e-05
1.82592e-05
1.84281e-05
1.85844e-05
1.87284e-05
1.8861e-05
1.89826e-05
1.90941e-05
1.91965e-05
1.92907e-05
1.93779e-05
1.94592e-05
1.95359e-05
1.96091e-05
1.96796e-05
1.9748e-05
1.98143e-05
1.98781e-05
1.99382e-05
1.99929e-05
2.00407e-05
2.00809e-05
2.01141e-05
2.01426e-05
2.01774e-05
2.02934e-05
2.03003e-05
2.03079e-05
2.03198e-05
2.03321e-05
2.03418e-05
2.03468e-05
2.03465e-05
2.03411e-05
2.03319e-05
2.03203e-05
2.03078e-05
2.02954e-05
2.02837e-05
2.02726e-05
2.02613e-05
2.0249e-05
2.02345e-05
2.02169e-05
2.01958e-05
1.41556e-05
1.7197e-05
1.7437e-05
1.76618e-05
1.7872e-05
1.8068e-05
1.82504e-05
1.84196e-05
1.85762e-05
1.87206e-05
1.88533e-05
1.89752e-05
1.9087e-05
1.91895e-05
1.92838e-05
1.93711e-05
1.94525e-05
1.95292e-05
1.96024e-05
1.96729e-05
1.97414e-05
1.98079e-05
1.98719e-05
1.99323e-05
1.99874e-05
2.00356e-05
2.00761e-05
2.01095e-05
2.0138e-05
2.01728e-05
2.02894e-05
2.0296e-05
2.03034e-05
2.03152e-05
2.03275e-05
2.03371e-05
2.03421e-05
2.03417e-05
2.03362e-05
2.03266e-05
2.03146e-05
2.03016e-05
2.02886e-05
2.02761e-05
2.02641e-05
2.02519e-05
2.02385e-05
2.02227e-05
2.02037e-05
2.01809e-05
1.41432e-05
1.71868e-05
1.74271e-05
1.76523e-05
1.78628e-05
1.80592e-05
1.82419e-05
1.84114e-05
1.85682e-05
1.87129e-05
1.8846e-05
1.89681e-05
1.908e-05
1.91827e-05
1.92772e-05
1.93646e-05
1.9446e-05
1.95228e-05
1.95959e-05
1.96665e-05
1.9735e-05
1.98017e-05
1.98659e-05
1.99266e-05
1.9982e-05
2.00306e-05
2.00715e-05
2.01051e-05
2.01337e-05
2.01684e-05
2.02856e-05
2.02919e-05
2.02991e-05
2.03108e-05
2.03231e-05
2.03327e-05
2.03377e-05
2.03372e-05
2.03315e-05
2.03218e-05
2.03094e-05
2.02958e-05
2.02822e-05
2.0269e-05
2.02562e-05
2.0243e-05
2.02285e-05
2.02115e-05
2.01911e-05
2.01666e-05
1.41311e-05
1.71768e-05
1.74175e-05
1.76431e-05
1.78539e-05
1.80506e-05
1.82336e-05
1.84034e-05
1.85606e-05
1.87055e-05
1.88388e-05
1.89612e-05
1.90734e-05
1.91762e-05
1.92708e-05