/*--------------------------------*- C++ -*----------------------------------*\
  =========                 |
  \\      /  F ield         | OpenFOAM: The Open Source CFD Toolbox
   \\    /   O peration     | Website:  https://openfoam.org
    \\  /    A nd           | Version:  9
     \\/     M anipulation  |
\*---------------------------------------------------------------------------*/
FoamFile
{
    format      ascii;
    class       volVectorField;
    location    "0.16";
    object      U;
}
// * * * * * * * * * * * * * * * * * * * * * * * * * * * * * * * * * * * * * //

dimensions      [0 1 -1 0 0 0 0];

internalField   nonuniform List<vector> 
5000
(
(-0.0584956 0 0.00552822)
(-0.0586025 0 0.0108982)
(-0.058623 0 0.0148967)
(-0.0587071 0 0.0187947)
(-0.0588186 0 0.0229084)
(-0.0589555 0 0.0273459)
(-0.0591221 0 0.0321585)
(-0.0593213 0 0.0373686)
(-0.0595566 0 0.0429678)
(-0.0598317 0 0.0489139)
(-0.0601509 0 0.0551291)
(-0.0605186 0 0.0615011)
(-0.0609395 0 0.0678855)
(-0.0614182 0 0.0741109)
(-0.0619591 0 0.0799875)
(-0.0625665 0 0.0853162)
(-0.0632439 0 0.0899018)
(-0.0639947 0 0.0935686)
(-0.0648219 0 0.0961813)
(-0.0657293 0 0.0976742)
(-0.0667227 0 0.0980891)
(-0.0678117 0 0.0976149)
(-0.0690123 0 0.0966126)
(-0.0703482 0 0.0955953)
(-0.0718506 0 0.0951357)
(-0.0735551 0 0.0956927)
(-0.0754967 0 0.0974027)
(-0.0777024 0 0.0999278)
(-0.0801902 0 0.102467)
(-0.0829614 0 0.103966)
(-0.0862884 0 0.103347)
(-0.0901468 0 0.0996644)
(-0.0942117 0 0.0932842)
(-0.0985194 0 0.0852575)
(-0.103136 0 0.0768656)
(-0.108129 0 0.0692835)
(-0.113559 0 0.0633861)
(-0.119465 0 0.0596429)
(-0.125867 0 0.0580903)
(-0.132763 0 0.0583911)
(-0.140147 0 0.0599775)
(-0.148009 0 0.0622452)
(-0.156344 0 0.0647393)
(-0.165147 0 0.0672765)
(-0.174423 0 0.0699813)
(-0.184196 0 0.0732612)
(-0.194514 0 0.0777448)
(-0.205421 0 0.0841989)
(-0.216944 0 0.0934169)
(-0.228965 0 0.10612)
(-0.0569133 0 0.00559749)
(-0.057019 0 0.0110501)
(-0.0570361 0 0.0151103)
(-0.0571169 0 0.0190659)
(-0.0572248 0 0.0232365)
(-0.0573575 0 0.0277312)
(-0.0575192 0 0.0326016)
(-0.0577131 0 0.0378708)
(-0.0579422 0 0.0435308)
(-0.0582106 0 0.0495395)
(-0.0585223 0 0.0558193)
(-0.0588819 0 0.0622574)
(-0.059294 0 0.0687089)
(-0.0597633 0 0.0750018)
(-0.0602942 0 0.080945)
(-0.060891 0 0.0863383)
(-0.0615572 0 0.0909854)
(-0.0622961 0 0.0947096)
(-0.0631107 0 0.0973756)
(-0.0640043 0 0.0989193)
(-0.0649825 0 0.0993858)
(-0.0660546 0 0.0989692)
(-0.0672359 0 0.0980374)
(-0.0685495 0 0.09711)
(-0.0700257 0 0.0967633)
(-0.0716996 0 0.0974553)
(-0.0736053 0 0.0993158)
(-0.0757691 0 0.101997)
(-0.0782085 0 0.104687)
(-0.0809242 0 0.106324)
(-0.0841819 0 0.105843)
(-0.0879548 0 0.102301)
(-0.0919236 0 0.096066)
(-0.0961227 0 0.0882074)
(-0.100615 0 0.0800219)
(-0.105466 0 0.0726912)
(-0.110731 0 0.0670875)
(-0.116447 0 0.0636677)
(-0.122622 0 0.0624488)
(-0.129253 0 0.0630737)
(-0.136324 0 0.0649628)
(-0.143821 0 0.0675137)
(-0.151732 0 0.0702867)
(-0.160043 0 0.0731147)
(-0.168744 0 0.0761287)
(-0.177841 0 0.0797289)
(-0.187352 0 0.0845318)
(-0.19729 0 0.0912988)
(-0.207622 0 0.100813)
(-0.218208 0 0.113736)
(-0.0552575 0 0.00566188)
(-0.055362 0 0.011194)
(-0.0553754 0 0.0153141)
(-0.0554526 0 0.0193257)
(-0.0555564 0 0.0235519)
(-0.0556843 0 0.0281024)
(-0.0558407 0 0.0330292)
(-0.0560284 0 0.038356)
(-0.0562508 0 0.0440753)
(-0.0565116 0 0.0501452)
(-0.0568151 0 0.0564882)
(-0.0571657 0 0.0629913)
(-0.0575683 0 0.0695091)
(-0.0580274 0 0.0758687)
(-0.0585478 0 0.0818781)
(-0.0591336 0 0.087336)
(-0.0597886 0 0.0920449)
(-0.0605157 0 0.0958272)
(-0.0613177 0 0.0985478)
(-0.062198 0 0.100144)
(-0.0631613 0 0.100664)
(-0.0642165 0 0.100307)
(-0.065378 0 0.0994468)
(-0.066668 0 0.0986097)
(-0.0681158 0 0.0983746)
(-0.0697553 0 0.0991981)
(-0.0716199 0 0.101203)
(-0.0737358 0 0.104031)
(-0.0761206 0 0.106861)
(-0.0787752 0 0.108626)
(-0.0819606 0 0.108272)
(-0.0856486 0 0.104861)
(-0.089524 0 0.0987661)
(-0.0936164 0 0.0910746)
(-0.0979829 0 0.0830928)
(-0.102684 0 0.0760045)
(-0.107773 0 0.0706755)
(-0.113283 0 0.0675507)
(-0.119224 0 0.0666325)
(-0.125586 0 0.06755)
(-0.132347 0 0.0697146)
(-0.13948 0 0.0725224)
(-0.146962 0 0.0755384)
(-0.154772 0 0.0786045)
(-0.162895 0 0.0818588)
(-0.171323 0 0.0857033)
(-0.180049 0 0.0907486)
(-0.189048 0 0.0977348)
(-0.198277 0 0.107421)
(-0.207506 0 0.120355)
(-0.0535311 0 0.00572136)
(-0.0536341 0 0.0113298)
(-0.0536437 0 0.015508)
(-0.0537171 0 0.0195744)
(-0.0538165 0 0.023855)
(-0.0539395 0 0.0284601)
(-0.0540902 0 0.0334422)
(-0.0542715 0 0.0388254)
(-0.0544867 0 0.0446027)
(-0.0547396 0 0.0507326)
(-0.0550343 0 0.0571376)
(-0.0553754 0 0.0637045)
(-0.0557677 0 0.0702875)
(-0.0562159 0 0.076713)
(-0.0567248 0 0.0827878)
(-0.0572985 0 0.0883097)
(-0.0579408 0 0.0930798)
(-0.0586546 0 0.0969199)
(-0.0594425 0 0.099695)
(-0.0603077 0 0.101344)
(-0.0612545 0 0.101917)
(-0.0622913 0 0.101621)
(-0.063432 0 0.100833)
(-0.0646976 0 0.100087)
(-0.0661165 0 0.0999628)
(-0.0677217 0 0.100916)
(-0.0695456 0 0.103062)
(-0.0716137 0 0.106032)
(-0.0739433 0 0.108995)
(-0.0765352 0 0.110877)
(-0.0796441 0 0.110636)
(-0.0832407 0 0.107342)
(-0.0870152 0 0.101378)
(-0.0909943 0 0.0938488)
(-0.0952309 0 0.0860688)
(-0.0997808 0 0.0792187)
(-0.104694 0 0.0741525)
(-0.109999 0 0.0713)
(-0.115702 0 0.0706503)
(-0.121789 0 0.0718244)
(-0.128232 0 0.0742303)
(-0.134999 0 0.0772631)
(-0.142059 0 0.0804871)
(-0.149382 0 0.0837436)
(-0.156942 0 0.0871724)
(-0.164717 0 0.0911783)
(-0.172685 0 0.0963698)
(-0.180788 0 0.103461)
(-0.188977 0 0.113175)
(-0.196979 0 0.126022)
(-0.0517359 0 0.00577573)
(-0.0518372 0 0.0114569)
(-0.0518428 0 0.0156915)
(-0.0519122 0 0.0198115)
(-0.052007 0 0.0241455)
(-0.0521247 0 0.0288042)
(-0.0522693 0 0.0338406)
(-0.0524439 0 0.0392793)
(-0.0526515 0 0.0451139)
(-0.0528959 0 0.0513032)
(-0.0531813 0 0.0577698)
(-0.0535124 0 0.0644005)
(-0.0538938 0 0.0710487)
(-0.0543305 0 0.0775401)
(-0.0548272 0 0.0836806)
(-0.055388 0 0.0892665)
(-0.0560168 0 0.0940978)
(-0.0567163 0 0.0979954)
(-0.0574893 0 0.100824)
(-0.0583382 0 0.102524)
(-0.0592676 0 0.103149)
(-0.060285 0 0.102909)
(-0.0614036 0 0.10219)
(-0.0626438 0 0.101529)
(-0.0640328 0 0.10151)
(-0.0656026 0 0.102588)
(-0.0673846 0 0.104871)
(-0.0694037 0 0.10798)
(-0.0716767 0 0.111074)
(-0.0742044 0 0.113074)
(-0.0772346 0 0.112946)
(-0.0807365 0 0.109766)
(-0.0844063 0 0.103926)
(-0.0882681 0 0.0965457)
(-0.0923713 0 0.0889501)
(-0.0967678 0 0.0823191)
(-0.101503 0 0.0774971)
(-0.106603 0 0.0748992)
(-0.112068 0 0.0744992)
(-0.11788 0 0.0759062)
(-0.124007 0 0.0785221)
(-0.13041 0 0.0817412)
(-0.137054 0 0.0851301)
(-0.143902 0 0.0885326)
(-0.150918 0 0.0920893)
(-0.158068 0 0.0962004)
(-0.165317 0 0.101465)
(-0.172585 0 0.108575)
(-0.179808 0 0.118203)
(-0.186706 0 0.130839)
(-0.0498741 0 0.00582468)
(-0.0499736 0 0.0115748)
(-0.0499751 0 0.0158638)
(-0.0500401 0 0.0200358)
(-0.05013 0 0.024422)
(-0.0502419 0 0.0291333)
(-0.0503801 0 0.0342229)
(-0.0505474 0 0.0397161)
(-0.0507469 0 0.0456071)
(-0.0509823 0 0.051855)
(-0.0512579 0 0.0583826)
(-0.0515783 0 0.0650764)
(-0.0519484 0 0.0717896)
(-0.0523729 0 0.078347)
(-0.0528568 0 0.0845532)
(-0.0534043 0 0.0902032)
(-0.0540189 0 0.0950958)
(-0.0547038 0 0.0990509)
(-0.0554611 0 0.101933)
(-0.0562934 0 0.103683)
(-0.0572046 0 0.104358)
(-0.058202 0 0.104172)
(-0.0592978 0 0.103519)
(-0.0605116 0 0.102939)
(-0.0618695 0 0.103021)
(-0.0634023 0 0.104219)
(-0.0651406 0 0.106634)
(-0.0671087 0 0.109878)
(-0.0693232 0 0.113099)
(-0.071785 0 0.115214)
(-0.0747347 0 0.115197)
(-0.0781403 0 0.112127)
(-0.0817041 0 0.106403)
(-0.0854473 0 0.0991612)
(-0.0894156 0 0.0917361)
(-0.0936572 0 0.0853069)
(-0.0982142 0 0.0807098)
(-0.103108 0 0.0783457)
(-0.108336 0 0.0781736)
(-0.113875 0 0.0797901)
(-0.119689 0 0.0825894)
(-0.125737 0 0.0859636)
(-0.131976 0 0.0894805)
(-0.138365 0 0.0929867)
(-0.14486 0 0.0966236)
(-0.151417 0 0.100786)
(-0.157992 0 0.10606)
(-0.164493 0 0.113117)
(-0.170835 0 0.122578)
(-0.176752 0 0.134903)
(-0.0479481 0 0.00586796)
(-0.0480455 0 0.0116829)
(-0.0480426 0 0.016024)
(-0.0481031 0 0.0202466)
(-0.0481877 0 0.0246836)
(-0.0482935 0 0.0294462)
(-0.0484248 0 0.0345878)
(-0.0485844 0 0.0401344)
(-0.0487753 0 0.0460805)
(-0.0490013 0 0.052386)
(-0.0492665 0 0.0589738)
(-0.0495757 0 0.0657303)
(-0.0499338 0 0.072508)
(-0.0503456 0 0.0791311)
(-0.0508161 0 0.085403)
(-0.0513496 0 0.0911172)
(-0.0519497 0 0.0960712)
(-0.0526192 0 0.100084)
(-0.0533605 0 0.103019)
(-0.0541757 0 0.104818)
(-0.0550683 0 0.105542)
(-0.0560451 0 0.10541)
(-0.0571176 0 0.104819)
(-0.0583042 0 0.104318)
(-0.0596299 0 0.104497)
(-0.0611245 0 0.10581)
(-0.0628176 0 0.108352)
(-0.064733 0 0.111727)
(-0.0668874 0 0.115071)
(-0.0692818 0 0.117296)
(-0.0721499 0 0.117385)
(-0.0754582 0 0.114418)
(-0.0789154 0 0.108803)
(-0.0825394 0 0.101691)
(-0.0863723 0 0.0944249)
(-0.0904588 0 0.0881835)
(-0.0948375 0 0.0837941)
(-0.0995263 0 0.081644)
(-0.104519 0 0.0816776)
(-0.10979 0 0.0834793)
(-0.115298 0 0.0864358)
(-0.121 0 0.089936)
(-0.12685 0 0.0935485)
(-0.132799 0 0.0971211)
(-0.138801 0 0.100795)
(-0.144802 0 0.104961)
(-0.150751 0 0.11019)
(-0.156553 0 0.117136)
(-0.162105 0 0.126371)
(-0.167166 0 0.138314)
(-0.04596 0 0.00590535)
(-0.0460554 0 0.0117807)
(-0.0460479 0 0.0161716)
(-0.0461035 0 0.0204429)
(-0.0461825 0 0.0249293)
(-0.0462818 0 0.0297419)
(-0.0464059 0 0.0349343)
(-0.0465574 0 0.040533)
(-0.0467392 0 0.0465333)
(-0.0469553 0 0.0528954)
(-0.0472096 0 0.0595426)
(-0.0475071 0 0.0663611)
(-0.0478526 0 0.073203)
(-0.0482512 0 0.0798916)
(-0.0487077 0 0.0862291)
(-0.0492267 0 0.0920077)
(-0.0498116 0 0.0970231)
(-0.0504654 0 0.101093)
(-0.0511901 0 0.104081)
(-0.0519877 0 0.10593)
(-0.0528613 0 0.106702)
(-0.053817 0 0.106621)
(-0.0548656 0 0.106091)
(-0.0560244 0 0.105664)
(-0.0573173 0 0.105937)
(-0.0587726 0 0.10736)
(-0.0604194 0 0.110025)
(-0.062281 0 0.113525)
(-0.0643742 0 0.116989)
(-0.0667002 0 0.11932)
(-0.0694858 0 0.11951)
(-0.0726962 0 0.11664)
(-0.0760463 0 0.111126)
(-0.079551 0 0.104136)
(-0.0832489 0 0.0970176)
(-0.0871813 0 0.0909506)
(-0.0913835 0 0.0867527)
(-0.0958701 0 0.0847977)
(-0.100632 0 0.0850155)
(-0.10564 0 0.0869791)
(-0.110852 0 0.0900676)
(-0.116221 0 0.0936671)
(-0.121697 0 0.097346)
(-0.127231 0 0.100953)
(-0.132768 0 0.104628)
(-0.138253 0 0.108757)
(-0.143626 0 0.113897)
(-0.148798 0 0.120682)
(-0.153651 0 0.129649)
(-0.157972 0 0.141169)
(-0.0439122 0 0.00593667)
(-0.0440053 0 0.0118678)
(-0.0439931 0 0.0163059)
(-0.0440436 0 0.0206242)
(-0.0441167 0 0.0251584)
(-0.0442093 0 0.0300197)
(-0.0443258 0 0.0352616)
(-0.0444687 0 0.0409111)
(-0.0446411 0 0.0469644)
(-0.0448467 0 0.0533822)
(-0.0450897 0 0.060088)
(-0.0453749 0 0.066968)
(-0.0457073 0 0.0738738)
(-0.0460921 0 0.0806278)
(-0.0465342 0 0.087031)
(-0.0470381 0 0.0928741)
(-0.0476074 0 0.0979511)
(-0.0482449 0 0.102078)
(-0.0489526 0 0.105119)
(-0.0497323 0 0.107017)
(-0.0505865 0 0.107836)
(-0.0515208 0 0.107805)
(-0.0525452 0 0.107332)
(-0.0536757 0 0.106977)
(-0.054935 0 0.107339)
(-0.0563504 0 0.108867)
(-0.05795 0 0.11165)
(-0.0597569 0 0.115271)
(-0.061788 0 0.11885)
(-0.0640448 0 0.121284)
(-0.0667475 0 0.121571)
(-0.0698597 0 0.118793)
(-0.073103 0 0.113374)
(-0.076489 0 0.106496)
(-0.080053 0 0.0995147)
(-0.0838334 0 0.0936085)
(-0.0878621 0 0.0895863)
(-0.0921507 0 0.0878085)
(-0.0966874 0 0.088191)
(-0.10144 0 0.0902953)
(-0.106366 0 0.0934932)
(-0.111416 0 0.0971677)
(-0.116539 0 0.100887)
(-0.121681 0 0.1045)
(-0.126786 0 0.108146)
(-0.131795 0 0.112204)
(-0.136645 0 0.11722)
(-0.141252 0 0.123809)
(-0.14549 0 0.13248)
(-0.149177 0 0.143558)
(-0.0418066 0 0.00596177)
(-0.0418975 0 0.0119437)
(-0.0418804 0 0.0164263)
(-0.0419256 0 0.0207896)
(-0.0419927 0 0.0253701)
(-0.0420782 0 0.0302785)
(-0.0421867 0 0.0355686)
(-0.0423208 0 0.0412678)
(-0.0424833 0 0.047373)
(-0.042678 0 0.0538455)
(-0.0429092 0 0.0606091)
(-0.0431816 0 0.06755)
(-0.0435005 0 0.0745194)
(-0.0438709 0 0.0813388)
(-0.0442981 0 0.0878079)
(-0.0447865 0 0.0937157)
(-0.0453398 0 0.0988547)
(-0.0459607 0 0.10304)
(-0.0466511 0 0.106133)
(-0.0474124 0 0.108079)
(-0.0482471 0 0.108945)
(-0.0491597 0 0.108961)
(-0.0501595 0 0.108544)
(-0.0512613 0 0.108256)
(-0.0524867 0 0.108702)
(-0.0538615 0 0.110331)
(-0.0554131 0 0.113227)
(-0.0571646 0 0.116965)
(-0.0591329 0 0.120656)
(-0.0613204 0 0.123189)
(-0.06394 0 0.123568)
(-0.0669544 0 0.120878)
(-0.0700916 0 0.115547)
(-0.0733603 0 0.108772)
(-0.0767924 0 0.101917)
(-0.0804234 0 0.0961586)
(-0.0842825 0 0.0922969)
(-0.0883782 0 0.0906794)
(-0.0926962 0 0.0912085)
(-0.0972029 0 0.0934344)
(-0.101854 0 0.0967215)
(-0.106602 0 0.10045)
(-0.111392 0 0.104187)
(-0.116168 0 0.107782)
(-0.120873 0 0.111372)
(-0.125448 0 0.115333)
(-0.129826 0 0.1202)
(-0.13393 0 0.126568)
(-0.137632 0 0.134924)
(-0.140776 0 0.145556)
(-0.0396456 0 0.00598054)
(-0.0397341 0 0.0120082)
(-0.039712 0 0.0165325)
(-0.0397518 0 0.0209387)
(-0.0398125 0 0.0255637)
(-0.0398908 0 0.0305179)
(-0.0399911 0 0.0358547)
(-0.0401159 0 0.0416022)
(-0.0402682 0 0.047758)
(-0.0404517 0 0.0542842)
(-0.0406706 0 0.0611048)
(-0.0409299 0 0.0681062)
(-0.0412347 0 0.0751389)
(-0.0415904 0 0.0820237)
(-0.0420022 0 0.0885589)
(-0.0424746 0 0.0945318)
(-0.0430115 0 0.0997332)
(-0.0436154 0 0.103976)
(-0.0442882 0 0.107122)
(-0.0450311 0 0.109116)
(-0.0458459 0 0.110027)
(-0.0467368 0 0.11009)
(-0.0477118 0 0.109725)
(-0.0487847 0 0.109501)
(-0.0499757 0 0.110027)
(-0.0513095 0 0.111752)
(-0.0528127 0 0.114755)
(-0.0545081 0 0.118606)
(-0.0564134 0 0.122405)
(-0.0585313 0 0.125034)
(-0.0610681 0 0.125503)
(-0.0639855 0 0.122895)
(-0.0670181 0 0.117646)
(-0.0701713 0 0.110966)
(-0.0734741 0 0.104227)
(-0.0769593 0 0.0986036)
(-0.0806533 0 0.094888)
(-0.0845621 0 0.093415)
(-0.0886693 0 0.0940739)
(-0.0929402 0 0.0964038)
(-0.0973309 0 0.0997621)
(-0.101792 0 0.103525)
(-0.10627 0 0.107261)
(-0.110708 0 0.110819)
(-0.115046 0 0.114333)
(-0.119226 0 0.118175)
(-0.123181 0 0.122872)
(-0.12684 0 0.129003)
(-0.130075 0 0.137038)
(-0.132756 0 0.147231)
(-0.0374313 0 0.00599293)
(-0.0375174 0 0.012061)
(-0.0374902 0 0.016624)
(-0.0375244 0 0.0210709)
(-0.0375787 0 0.0257387)
(-0.0376495 0 0.030737)
(-0.0377413 0 0.0361191)
(-0.0378566 0 0.0419136)
(-0.0379984 0 0.0481188)
(-0.0381703 0 0.0546976)
(-0.0383766 0 0.0615744)
(-0.0386223 0 0.0686357)
(-0.0389127 0 0.0757315)
(-0.0392532 0 0.0826817)
(-0.0396492 0 0.0892832)
(-0.0401053 0 0.0953217)
(-0.0406254 0 0.100586)
(-0.0412121 0 0.104887)
(-0.0418671 0 0.108087)
(-0.0425913 0 0.110128)
(-0.0433862 0 0.111083)
(-0.0442552 0 0.111191)
(-0.0452053 0 0.110875)
(-0.0462493 0 0.110712)
(-0.0474057 0 0.111312)
(-0.0486981 0 0.113128)
(-0.0501525 0 0.116235)
(-0.0517916 0 0.120193)
(-0.0536336 0 0.124097)
(-0.0556819 0 0.126819)
(-0.0581365 0 0.127374)
(-0.0609582 0 0.124845)
(-0.0638879 0 0.119672)
(-0.0669281 0 0.11308)
(-0.0701048 0 0.106447)
(-0.0734483 0 0.100946)
(-0.0769825 0 0.0973635)
(-0.0807111 0 0.0960203)
(-0.0846161 0 0.0967936)
(-0.0886625 0 0.0992119)
(-0.0928066 0 0.102625)
(-0.0969995 0 0.106408)
(-0.101188 0 0.110127)
(-0.105313 0 0.11363)
(-0.109316 0 0.117051)
(-0.11314 0 0.120759)
(-0.116719 0 0.125271)
(-0.119985 0 0.131154)
(-0.122816 0 0.138866)
(-0.1251 0 0.148633)
(-0.035166 0 0.00599889)
(-0.0352498 0 0.012102)
(-0.0352174 0 0.0167006)
(-0.0352459 0 0.021186)
(-0.0352936 0 0.0258947)
(-0.0353567 0 0.0309354)
(-0.0354398 0 0.0363613)
(-0.0355454 0 0.0422013)
(-0.0356764 0 0.0484547)
(-0.0358364 0 0.055085)
(-0.0360298 0 0.0620172)
(-0.0362616 0 0.0691378)
(-0.0365372 0 0.0762965)
(-0.0368622 0 0.0833122)
(-0.037242 0 0.0899804)
(-0.0376815 0 0.096085)
(-0.0381845 0 0.101413)
(-0.0387537 0 0.105773)
(-0.0393907 0 0.109026)
(-0.0400961 0 0.111115)
(-0.040871 0 0.112113)
(-0.0417181 0 0.112263)
(-0.0426434 0 0.111994)
(-0.0436583 0 0.111888)
(-0.04478 0 0.112558)
(-0.0460309 0 0.114459)
(-0.0474362 0 0.117664)
(-0.0490188 0 0.121727)
(-0.0507976 0 0.125732)
(-0.0527767 0 0.128545)
(-0.0551499 0 0.129184)
(-0.0578773 0 0.126729)
(-0.0607063 0 0.121627)
(-0.0636363 0 0.115115)
(-0.0666907 0 0.108578)
(-0.0698971 0 0.10319)
(-0.0732773 0 0.0997275)
(-0.076833 0 0.0985008)
(-0.0805451 0 0.0993746)
(-0.0843788 0 0.101867)
(-0.0882911 0 0.105322)
(-0.0922338 0 0.109111)
(-0.0961537 0 0.112799)
(-0.0999934 0 0.116235)
(-0.103694 0 0.119551)
(-0.107199 0 0.123112)
(-0.110444 0 0.12743)
(-0.113366 0 0.133058)
(-0.115846 0 0.140447)
(-0.117789 0 0.149801)
(-0.0328522 0 0.00599845)
(-0.0329336 0 0.012131)
(-0.0328959 0 0.016762)
(-0.0329186 0 0.0212835)
(-0.0329596 0 0.0260312)
(-0.0330149 0 0.0311127)
(-0.0330892 0 0.0365808)
(-0.0331849 0 0.0424649)
(-0.0333049 0 0.0487652)
(-0.0334528 0 0.0554458)
(-0.033633 0 0.0624326)
(-0.0338506 0 0.0696119)
(-0.0341111 0 0.0768333)
(-0.0344202 0 0.0839146)
(-0.0347836 0 0.0906499)
(-0.0352061 0 0.096821)
(-0.0356918 0 0.102213)
(-0.0362433 0 0.106633)
(-0.0368621 0 0.109939)
(-0.0375487 0 0.112076)
(-0.0383036 0 0.113117)
(-0.0391288 0 0.113308)
(-0.0400293 0 0.113083)
(-0.0410151 0 0.113029)
(-0.0421021 0 0.113765)
(-0.0433114 0 0.115746)
(-0.0446676 0 0.119045)
(-0.0461937 0 0.123208)
(-0.0479094 0 0.127311)
(-0.0498198 0 0.130213)
(-0.0521126 0 0.130933)
(-0.0547476 0 0.128548)
(-0.0574783 0 0.123512)
(-0.0603013 0 0.117073)
(-0.0632374 0 0.110625)
(-0.0663118 0 0.105339)
(-0.0695442 0 0.101985)
(-0.0729347 0 0.100862)
(-0.0764637 0 0.101824)
(-0.0800969 0 0.104379)
(-0.0837925 0 0.107864)
(-0.0875033 0 0.111648)
(-0.091177 0 0.115296)
(-0.0947574 0 0.118654)
(-0.0981859 0 0.121855)
(-0.101408 0 0.12526)
(-0.104361 0 0.129376)
(-0.106981 0 0.134747)
(-0.109158 0 0.141814)
(-0.110805 0 0.150768)
(-0.0304922 0 0.00599163)
(-0.0305713 0 0.012148)
(-0.0305284 0 0.0168082)
(-0.0305453 0 0.0213633)
(-0.0305795 0 0.0261479)
(-0.0306269 0 0.0312685)
(-0.0306922 0 0.0367772)
(-0.0307778 0 0.042704)
(-0.0308866 0 0.0490497)
(-0.0310222 0 0.0557796)
(-0.0311889 0 0.06282)
(-0.0313921 0 0.0700575)
(-0.0316372 0 0.0773413)
(-0.0319302 0 0.0844883)
(-0.0322769 0 0.0912911)
(-0.0326822 0 0.0975295)
(-0.0331503 0 0.102986)
(-0.0336839 0 0.107467)
(-0.0342844 0 0.110827)
(-0.0349521 0 0.113012)
(-0.035687 0 0.114095)
(-0.0364904 0 0.114325)
(-0.0373662 0 0.114141)
(-0.038323 0 0.114135)
(-0.0393753 0 0.114932)
(-0.0405431 0 0.116989)
(-0.0418502 0 0.120375)
(-0.0433199 0 0.124635)
(-0.0449729 0 0.128833)
(-0.0468152 0 0.131822)
(-0.0490289 0 0.132622)
(-0.0515734 0 0.130305)
(-0.0542085 0 0.12533)
(-0.0569281 0 0.118958)
(-0.0597501 0 0.112589)
(-0.0626978 0 0.107396)
(-0.0657889 0 0.10414)
(-0.0690222 0 0.10311)
(-0.0723782 0 0.104149)
(-0.0758234 0 0.106756)
(-0.0793176 0 0.110261)
(-0.0828147 0 0.114032)
(-0.0862641 0 0.117631)
(-0.0896108 0 0.120906)
(-0.0927972 0 0.123986)
(-0.0957707 0 0.127229)
(-0.0984686 0 0.131139)
(-0.100829 0 0.13625)
(-0.102745 0 0.142996)
(-0.104138 0 0.151557)
(-0.028089 0 0.0059785)
(-0.0281657 0 0.012153)
(-0.0281175 0 0.0168389)
(-0.0281285 0 0.0214251)
(-0.0281558 0 0.0262447)
(-0.0281952 0 0.0314025)
(-0.0282515 0 0.0369502)
(-0.0283269 0 0.0429181)
(-0.0284244 0 0.0493079)
(-0.0285474 0 0.0560859)
(-0.0287006 0 0.0631789)
(-0.028889 0 0.070474)
(-0.0291186 0 0.07782)
(-0.0293952 0 0.0850328)
(-0.0297248 0 0.0919036)
(-0.0301127 0 0.0982101)
(-0.030563 0 0.103733)
(-0.0310786 0 0.108274)
(-0.0316607 0 0.11169)
(-0.0323095 0 0.113922)
(-0.0330244 0 0.115046)
(-0.033806 0 0.115314)
(-0.0346572 0 0.115169)
(-0.0355852 0 0.115207)
(-0.036603 0 0.11606)
(-0.0377293 0 0.118187)
(-0.0389875 0 0.121657)
(-0.0404012 0 0.126009)
(-0.0419919 0 0.1303)
(-0.0437668 0 0.133374)
(-0.0459027 0 0.134252)
(-0.048359 0 0.132)
(-0.0509014 0 0.127083)
(-0.0535211 0 0.120772)
(-0.0562336 0 0.114476)
(-0.05906 0 0.109366)
(-0.0620164 0 0.106198)
(-0.0651009 0 0.105252)
(-0.068294 0 0.106358)
(-0.0715638 0 0.109007)
(-0.0748715 0 0.112526)
(-0.0781731 0 0.116277)
(-0.0814197 0 0.119822)
(-0.0845578 0 0.123008)
(-0.087531 0 0.125963)
(-0.0902884 0 0.129042)
(-0.0927683 0 0.132743)
(-0.0949072 0 0.137593)
(-0.0966032 0 0.14402)
(-0.0977776 0 0.152192)
(-0.025645 0 0.00595914)
(-0.0257194 0 0.012146)
(-0.025666 0 0.0168542)
(-0.0256711 0 0.021469)
(-0.0256915 0 0.0263213)
(-0.0257228 0 0.0315145)
(-0.0257699 0 0.0370995)
(-0.0258351 0 0.043107)
(-0.0259211 0 0.0495395)
(-0.0260315 0 0.0563643)
(-0.0261709 0 0.0635091)
(-0.0263445 0 0.0708611)
(-0.0265582 0 0.0782691)
(-0.0268182 0 0.0855479)
(-0.0271306 0 0.092487)
(-0.0275008 0 0.0988623)
(-0.0279331 0 0.104451)
(-0.0284305 0 0.109055)
(-0.0289942 0 0.112526)
(-0.0296239 0 0.114806)
(-0.0303189 0 0.115971)
(-0.0310788 0 0.116276)
(-0.0319055 0 0.116166)
(-0.0328048 0 0.116245)
(-0.0337882 0 0.117148)
(-0.0348733 0 0.11934)
(-0.0360829 0 0.122889)
(-0.037441 0 0.12733)
(-0.03897 0 0.131712)
(-0.0406784 0 0.13487)
(-0.042738 0 0.135824)
(-0.0451083 0 0.133636)
(-0.0475609 0 0.128773)
(-0.0500845 0 0.122518)
(-0.052692 0 0.116286)
(-0.0554027 0 0.111252)
(-0.0582311 0 0.108164)
(-0.0611749 0 0.107292)
(-0.0642155 0 0.108458)
(-0.0673223 0 0.111143)
(-0.0704585 0 0.114669)
(-0.0735823 0 0.118395)
(-0.076647 0 0.121883)
(-0.0796007 0 0.124978)
(-0.0823888 0 0.127807)
(-0.0849618 0 0.130721)
(-0.0872585 0 0.134213)
(-0.0892133 0 0.138804)
(-0.0907284 0 0.144911)
(-0.091722 0 0.152695)
(-0.0231632 0 0.00593366)
(-0.0232354 0 0.0121271)
(-0.0231768 0 0.0168541)
(-0.0231759 0 0.0214947)
(-0.0231894 0 0.0263776)
(-0.0232126 0 0.0316044)
(-0.0232504 0 0.037225)
(-0.0233052 0 0.0432705)
(-0.0233796 0 0.0497443)
(-0.0234773 0 0.0566146)
(-0.0236028 0 0.0638101)
(-0.0237613 0 0.0712185)
(-0.0239591 0 0.0786881)
(-0.0242023 0 0.0860329)
(-0.0244972 0 0.093041)
(-0.0248495 0 0.0994859)
(-0.0252637 0 0.105143)
(-0.0257427 0 0.109809)
(-0.0262877 0 0.113337)
(-0.0268984 0 0.115665)
(-0.0275735 0 0.116871)
(-0.0283118 0 0.11721)
(-0.0291142 0 0.117133)
(-0.029985 0 0.117249)
(-0.0309343 0 0.118198)
(-0.0319785 0 0.120449)
(-0.0331398 0 0.124073)
(-0.0344427 0 0.128598)
(-0.0359107 0 0.13307)
(-0.0375536 0 0.136311)
(-0.0395383 0 0.13734)
(-0.0418248 0 0.135214)
(-0.0441907 0 0.130401)
(-0.046622 0 0.124197)
(-0.0491292 0 0.118025)
(-0.0517296 0 0.113059)
(-0.0544367 0 0.110043)
(-0.057248 0 0.109238)
(-0.060146 0 0.110456)
(-0.0631019 0 0.113171)
(-0.0660812 0 0.1167)
(-0.0690445 0 0.1204)
(-0.0719475 0 0.12383)
(-0.0747404 0 0.126834)
(-0.0773704 0 0.129538)
(-0.0797898 0 0.132288)
(-0.0819374 0 0.135573)
(-0.0837451 0 0.139906)
(-0.0851187 0 0.145693)
(-0.0859708 0 0.153088)
(-0.0206465 0 0.00590219)
(-0.0207165 0 0.0120963)
(-0.0206526 0 0.0168385)
(-0.0206458 0 0.0215023)
(-0.0206523 0 0.0264136)
(-0.0206674 0 0.0316719)
(-0.0206959 0 0.0373264)
(-0.0207402 0 0.0434083)
(-0.020803 0 0.0499219)
(-0.0208878 0 0.0568365)
(-0.0209992 0 0.0640817)
(-0.0211426 0 0.0715457)
(-0.0213242 0 0.0790767)
(-0.0215504 0 0.0864878)
(-0.0218277 0 0.0935653)
(-0.0221619 0 0.100081)
(-0.0225577 0 0.105806)
(-0.0230182 0 0.110537)
(-0.0235446 0 0.114121)
(-0.0241362 0 0.116498)
(-0.0247913 0 0.117744)
(-0.0255081 0 0.118116)
(-0.0262863 0 0.11807)
(-0.0271288 0 0.118218)
(-0.0280442 0 0.119209)
(-0.0290478 0 0.121515)
(-0.0301614 0 0.125208)
(-0.0314096 0 0.129815)
(-0.0328173 0 0.134373)
(-0.0343957 0 0.137697)
(-0.0363071 0 0.138802)
(-0.038512 0 0.136736)
(-0.0407942 0 0.131971)
(-0.0431368 0 0.125815)
(-0.0455482 0 0.119696)
(-0.0480437 0 0.114791)
(-0.050636 0 0.111839)
(-0.0533229 0 0.111095)
(-0.0560881 0 0.11236)
(-0.0589049 0 0.115101)
(-0.0617412 0 0.118631)
(-0.0645607 0 0.122304)
(-0.0673216 0 0.125677)
(-0.0699763 0 0.128592)
(-0.0724743 0 0.131173)
(-0.0747698 0 0.133764)
(-0.076802 0 0.136847)
(-0.0784998 0 0.140925)
(-0.0797725 0 0.146395)
(-0.0805263 0 0.153399)
(-0.0180978 0 0.00586484)
(-0.0181655 0 0.0120539)
(-0.0180965 0 0.0168076)
(-0.0180838 0 0.0214917)
(-0.0180833 0 0.026429)
(-0.0180901 0 0.031717)
(-0.0181093 0 0.0374036)
(-0.0181431 0 0.0435203)
(-0.0181941 0 0.0500722)
(-0.018266 0 0.0570298)
(-0.0183633 0 0.0643237)
(-0.0184914 0 0.0718426)
(-0.0186566 0 0.0794346)
(-0.0188656 0 0.086912)
(-0.019125 0 0.0940594)
(-0.019441 0 0.100646)
(-0.0198183 0 0.106441)
(-0.0202601 0 0.111237)
(-0.0207677 0 0.11488)
(-0.0213401 0 0.117306)
(-0.0219754 0 0.118592)
(-0.0226707 0 0.118996)
(-0.0234248 0 0.118977)
(-0.0242392 0 0.119155)
(-0.0251211 0 0.120181)
(-0.0260845 0 0.122537)
(-0.0271507 0 0.126295)
(-0.0283448 0 0.130981)
(-0.0296931 0 0.135624)
(-0.0312079 0 0.13903)
(-0.0330474 0 0.14021)
(-0.035173 0 0.138204)
(-0.0373742 0 0.133485)
(-0.0396318 0 0.127371)
(-0.0419518 0 0.121301)
(-0.0443477 0 0.116451)
(-0.0468315 0 0.113559)
(-0.0494015 0 0.112869)
(-0.0520433 0 0.114176)
(-0.0547323 0 0.116942)
(-0.0574391 0 0.120472)
(-0.0601307 0 0.124118)
(-0.0627683 0 0.127437)
(-0.0653065 0 0.130268)
(-0.0676976 0 0.132733)
(-0.0698981 0 0.135171)
(-0.0718475 0 0.138057)
(-0.073473 0 0.141887)
(-0.074687 0 0.147043)
(-0.07539 0 0.153658)
(-0.0155199 0 0.00582176)
(-0.0155855 0 0.0119998)
(-0.0155114 0 0.0167614)
(-0.0154928 0 0.0214629)
(-0.0154853 0 0.0264239)
(-0.0154839 0 0.0317395)
(-0.0154936 0 0.0374565)
(-0.0155168 0 0.0436062)
(-0.015556 0 0.0501949)
(-0.0156148 0 0.0571942)
(-0.0156978 0 0.0645357)
(-0.0158104 0 0.0721088)
(-0.0159592 0 0.0797615)
(-0.0161508 0 0.0873053)
(-0.0163923 0 0.0945232)
(-0.0166898 0 0.101182)
(-0.0170484 0 0.107048)
(-0.0174714 0 0.11191)
(-0.01796 0 0.115612)
(-0.0185132 0 0.118088)
(-0.0191286 0 0.119414)
(-0.0198026 0 0.119848)
(-0.0205327 0 0.119855)
(-0.0213192 0 0.120057)
(-0.0221678 0 0.121116)
(-0.0230914 0 0.123516)
(-0.0241108 0 0.127335)
(-0.0252514 0 0.132096)
(-0.0265409 0 0.136823)
(-0.0279932 0 0.14031)
(-0.0297623 0 0.141566)
(-0.0318106 0 0.139619)
(-0.0339336 0 0.134944)
(-0.0361095 0 0.12887)
(-0.0383423 0 0.122844)
(-0.0406436 0 0.118045)
(-0.0430248 0 0.115206)
(-0.0454854 0 0.114566)
(-0.0480125 0 0.115912)
(-0.0505842 0 0.1187)
(-0.0531741 0 0.122231)
(-0.0557528 0 0.125855)
(-0.0582848 0 0.129124)
(-0.0607273 0 0.131878)
(-0.0630355 0 0.134234)
(-0.0651687 0 0.136528)
(-0.0670678 0 0.139228)
(-0.0686585 0 0.142819)
(-0.0698573 0 0.14767)
(-0.0705612 0 0.153901)
(-0.0129158 0 0.00577309)
(-0.0129793 0 0.0119343)
(-0.0129002 0 0.0167)
(-0.0128757 0 0.0214159)
(-0.0128612 0 0.0263982)
(-0.0128514 0 0.0317393)
(-0.0128517 0 0.0374848)
(-0.0128642 0 0.043666)
(-0.0128915 0 0.05029)
(-0.0129372 0 0.0573296)
(-0.0130058 0 0.0647176)
(-0.0131028 0 0.0723441)
(-0.0132349 0 0.0800571)
(-0.013409 0 0.0876674)
(-0.0136322 0 0.0949562)
(-0.0139111 0 0.101688)
(-0.0142508 0 0.107626)
(-0.0146549 0 0.112556)
(-0.0151245 0 0.116318)
(-0.0156584 0 0.118844)
(-0.0162538 0 0.12021)
(-0.0169066 0 0.120674)
(-0.0176129 0 0.120703)
(-0.0183718 0 0.120927)
(-0.0191874 0 0.122013)
(-0.0200716 0 0.124452)
(-0.0210446 0 0.128328)
(-0.0221323 0 0.133162)
(-0.0233637 0 0.13797)
(-0.0247543 0 0.141538)
(-0.0264543 0 0.14287)
(-0.0284274 0 0.140983)
(-0.0304747 0 0.136351)
(-0.0325722 0 0.130314)
(-0.0347216 0 0.124328)
(-0.0369329 0 0.119574)
(-0.0392172 0 0.116784)
(-0.0415751 0 0.11619)
(-0.0439957 0 0.117574)
(-0.0464599 0 0.120384)
(-0.0489446 0 0.123918)
(-0.0514243 0 0.127523)
(-0.0538672 0 0.130751)
(-0.0562335 0 0.133436)
(-0.0584815 0 0.135694)
(-0.060574 0 0.137856)
(-0.062454 0 0.140382)
(-0.0640474 0 0.143748)
(-0.0652755 0 0.148308)
(-0.0660345 0 0.154169)
(-0.0102884 0 0.00571898)
(-0.0103498 0 0.0118575)
(-0.0102657 0 0.0166234)
(-0.0102354 0 0.0213508)
(-0.0102138 0 0.0263518)
(-0.0101958 0 0.0317163)
(-0.0101865 0 0.0374885)
(-0.0101883 0 0.0436995)
(-0.0102036 0 0.0503572)
(-0.010236 0 0.0574357)
(-0.0102901 0 0.0648691)
(-0.0103714 0 0.0725481)
(-0.0104867 0 0.0803211)
(-0.0106431 0 0.0879979)
(-0.0108479 0 0.0953581)
(-0.0111079 0 0.102164)
(-0.0114286 0 0.108175)
(-0.0118135 0 0.113174)
(-0.0122639 0 0.116998)
(-0.0127786 0 0.119575)
(-0.0133541 0 0.12098)
(-0.0139855 0 0.121473)
(-0.0146682 0 0.121522)
(-0.0153996 0 0.121764)
(-0.0161826 0 0.122872)
(-0.0170278 0 0.125347)
(-0.0179549 0 0.129274)
(-0.0189902 0 0.134177)
(-0.0201642 0 0.139067)
(-0.021494 0 0.142716)
(-0.0231261 0 0.144125)
(-0.0250257 0 0.142297)
(-0.0269997 0 0.137708)
(-0.0290218 0 0.131705)
(-0.0310912 0 0.125755)
(-0.0332168 0 0.121043)
(-0.0354093 0 0.118298)
(-0.0376706 0 0.117748)
(-0.0399923 0 0.119167)
(-0.0423579 0 0.122)
(-0.0447481 0 0.125541)
(-0.0471414 0 0.129134)
(-0.0495103 0 0.132328)
(-0.0518183 0 0.134956)
(-0.0540273 0 0.137128)
(-0.0561041 0 0.139173)
(-0.0579948 0 0.141543)
(-0.0596277 0 0.144703)
(-0.0609291 0 0.148991)
(-0.0617984 0 0.154502)
(-0.00764029 0 0.00565963)
(-0.00769967 0 0.0117697)
(-0.00761073 0 0.0165319)
(-0.00757459 0 0.0212676)
(-0.00754606 0 0.0262847)
(-0.00751964 0 0.0316704)
(-0.00750079 0 0.0374673)
(-0.00749177 0 0.0437064)
(-0.00749506 0 0.0503962)
(-0.00751413 0 0.0575123)
(-0.00755353 0 0.0649899)
(-0.007619 0 0.0727207)
(-0.00771728 0 0.0805532)
(-0.00785576 0 0.0882965)
(-0.008042 0 0.0957287)
(-0.00828298 0 0.102609)
(-0.0085844 0 0.108695)
(-0.00895001 0 0.113764)
(-0.00938113 0 0.11765)
(-0.00987638 0 0.12028)
(-0.0104319 0 0.121724)
(-0.0110422 0 0.122245)
(-0.0117014 0 0.122313)
(-0.0124055 0 0.122569)
(-0.0131562 0 0.123695)
(-0.0139627 0 0.126199)
(-0.0148444 0 0.130174)
(-0.0158278 0 0.135144)
(-0.016945 0 0.140113)
(-0.0182146 0 0.143845)
(-0.0197798 0 0.145331)
(-0.0216076 0 0.143563)
(-0.0235104 0 0.139015)
(-0.0254596 0 0.133045)
(-0.0274524 0 0.127128)
(-0.029496 0 0.122454)
(-0.0316013 0 0.119751)
(-0.0337715 0 0.119242)
(-0.0360008 0 0.120697)
(-0.0382759 0 0.123555)
(-0.040581 0 0.127107)
(-0.0428992 0 0.130695)
(-0.0452076 0 0.133866)
(-0.0474736 0 0.136448)
(-0.0496628 0 0.138551)
(-0.0517466 0 0.140497)
(-0.0536759 0 0.142732)
(-0.055383 0 0.145708)
(-0.0568007 0 0.149753)
(-0.0578341 0 0.154944)
(-0.00497466 0 0.00559516)
(-0.00503195 0 0.011671)
(-0.0049381 0 0.0164257)
(-0.00489608 0 0.0211664)
(-0.00486055 0 0.0261969)
(-0.00482576 0 0.0316015)
(-0.00479727 0 0.0374212)
(-0.00477739 0 0.0436865)
(-0.00476855 0 0.0504069)
(-0.00477418 0 0.0575591)
(-0.00479884 0 0.0650797)
(-0.00484831 0 0.0728615)
(-0.00492945 0 0.0807531)