/*--------------------------------*- C++ -*----------------------------------*\
  =========                 |
  \\      /  F ield         | OpenFOAM: The Open Source CFD Toolbox
   \\    /   O peration     | Website:  https://openfoam.org
    \\  /    A nd           | Version:  9
     \\/     M anipulation  |
\*---------------------------------------------------------------------------*/
FoamFile
{
    format      ascii;
    class       surfaceVectorField;
    location    "0.16";
    object      Uf;
}
// * * * * * * * * * * * * * * * * * * * * * * * * * * * * * * * * * * * * * //

dimensions      [0 1 -1 0 0 0 0];

internalField   nonuniform List<vector> 
9850
(
(-0.0585418 0 0.00814903)
(-0.0577044 0 0.00556281)
(-0.0585917 0 0.0128496)
(-0.0578108 0 0.010974)
(-0.0586649 0 0.0167991)
(-0.0578296 0 0.0150033)
(-0.0587621 0 0.0208024)
(-0.057912 0 0.01893)
(-0.0588852 0 0.0250741)
(-0.0580217 0 0.0230721)
(-0.0590366 0 0.0296947)
(-0.0581565 0 0.0275381)
(-0.0592191 0 0.0347013)
(-0.0583206 0 0.0323796)
(-0.0594358 0 0.0401013)
(-0.0585172 0 0.0376191)
(-0.0596905 0 0.0458698)
(-0.0587494 0 0.0432487)
(-0.0599871 0 0.0519472)
(-0.0590212 0 0.049226)
(-0.0603299 0 0.058239)
(-0.0593366 0 0.0554735)
(-0.0607236 0 0.064617)
(-0.0597003 0 0.0618786)
(-0.0611728 0 0.0709238)
(-0.0601168 0 0.0682965)
(-0.0616821 0 0.076979)
(-0.0605907 0 0.0745558)
(-0.0622557 0 0.0825881)
(-0.0611267 0 0.0804659)
(-0.0628977 0 0.0875542)
(-0.0617287 0 0.0858271)
(-0.0636115 0 0.0916914)
(-0.0624006 0 0.0904438)
(-0.0644002 0 0.0948437)
(-0.0631454 0 0.0941396)
(-0.0652673 0 0.0969099)
(-0.0639663 0 0.0967793)
(-0.0662174 0 0.0978767)
(-0.0648668 0 0.0982979)
(-0.067258 0 0.0978577)
(-0.0658526 0 0.0987387)
(-0.0684019 0 0.0971257)
(-0.0669331 0 0.0982933)
(-0.0696685 0 0.0961161)
(-0.0681241 0 0.097326)
(-0.0710851 0 0.095371)
(-0.0694489 0 0.0963533)
(-0.0726847 0 0.0954076)
(-0.0709382 0 0.0959497)
(-0.0745027 0 0.0965273)
(-0.0726274 0 0.0965736)
(-0.0765704 0 0.0986351)
(-0.074551 0 0.0983583)
(-0.0789104 0 0.101167)
(-0.0767357 0 0.100961)
(-0.0815349 0 0.103199)
(-0.0791993 0 0.103576)
(-0.0844499 0 0.103688)
(-0.0819428 0 0.105144)
(-0.0882135 0 0.101506)
(-0.0852351 0 0.104595)
(-0.0921826 0 0.0964743)
(-0.0890508 0 0.100985)
(-0.0963771 0 0.0892708)
(-0.0930676 0 0.0946777)
(-0.100844 0 0.0810616)
(-0.097321 0 0.0867349)
(-0.105648 0 0.0730746)
(-0.101875 0 0.0784453)
(-0.110853 0 0.0663348)
(-0.106797 0 0.0709875)
(-0.116513 0 0.0615145)
(-0.112145 0 0.0652356)
(-0.122664 0 0.0588666)
(-0.117956 0 0.0616535)
(-0.129317 0 0.0582407)
(-0.124245 0 0.0602683)
(-0.136468 0 0.0591843)
(-0.131008 0 0.0607325)
(-0.1441 0 0.0611114)
(-0.138235 0 0.0624712)
(-0.1522 0 0.0634923)
(-0.145915 0 0.0648806)
(-0.160763 0 0.0660079)
(-0.154038 0 0.0675134)
(-0.169799 0 0.0686289)
(-0.162595 0 0.0701951)
(-0.179332 0 0.0716213)
(-0.171583 0 0.0730546)
(-0.189395 0 0.075503)
(-0.181018 0 0.0764964)
(-0.200021 0 0.0809719)
(-0.190933 0 0.0811429)
(-0.211233 0 0.0888079)
(-0.201355 0 0.0877585)
(-0.22301 0 0.0997685)
(-0.212283 0 0.0971243)
(-0.223587 0 0.109916)
(-0.0569587 0 0.00825865)
(-0.0560854 0 0.00562964)
(-0.0570062 0 0.0130317)
(-0.0561905 0 0.0111219)
(-0.0570765 0 0.0170408)
(-0.0562058 0 0.015212)
(-0.0571702 0 0.0211013)
(-0.0562848 0 0.0191954)
(-0.0572894 0 0.0254301)
(-0.0563906 0 0.0233937)
(-0.0574363 0 0.0301082)
(-0.0565209 0 0.0279161)
(-0.0576136 0 0.0351733)
(-0.05668 0 0.0328145)
(-0.0578246 0 0.0406332)
(-0.0568707 0 0.0381122)
(-0.0580728 0 0.0464634)
(-0.0570965 0 0.0438015)
(-0.0583623 0 0.0526044)
(-0.0573611 0 0.0498404)
(-0.0586974 0 0.0589614)
(-0.0576687 0 0.0561513)
(-0.0590826 0 0.0654061)
(-0.0580238 0 0.0626214)
(-0.0595227 0 0.0717802)
(-0.0584311 0 0.0691055)
(-0.0600222 0 0.0779024)
(-0.0588953 0 0.0754313)
(-0.0605855 0 0.0835772)
(-0.059421 0 0.0814072)
(-0.0612166 0 0.0886063)
(-0.0600123 0 0.0868326)
(-0.0619189 0 0.092803)
(-0.0606729 0 0.0915106)
(-0.0626954 0 0.0960108)
(-0.0614059 0 0.0952642)
(-0.0635493 0 0.098129)
(-0.0622142 0 0.0979583)
(-0.064485 0 0.099147)
(-0.0631011 0 0.0995294)
(-0.0655096 0 0.0991825)
(-0.0640719 0 0.100024)
(-0.0666355 0 0.0985145)
(-0.0651355 0 0.0996397)
(-0.0678814 0 0.0975848)
(-0.066307 0 0.0987463)
(-0.0692737 0 0.0969408)
(-0.0676088 0 0.0978665)
(-0.0708449 0 0.0971011)
(-0.0690708 0 0.0975778)
(-0.0726296 0 0.0983634)
(-0.0707274 0 0.0983367)
(-0.0746584 0 0.100624)
(-0.0726126 0 0.100269)
(-0.0769535 0 0.10331)
(-0.0747525 0 0.103022)
(-0.0795263 0 0.105486)
(-0.0771645 0 0.105778)
(-0.0823815 0 0.106108)
(-0.0798497 0 0.107474)
(-0.0860644 0 0.104072)
(-0.0830712 0 0.107051)
(-0.0899427 0 0.0991836)
(-0.0868017 0 0.10357)
(-0.0940347 0 0.0921367)
(-0.0907238 0 0.0974057)
(-0.0983856 0 0.0841146)
(-0.0948695 0 0.0896355)
(-0.103056 0 0.0763565)
(-0.099299 0 0.0815589)
(-0.108108 0 0.0698894)
(-0.104075 0 0.0743553)
(-0.113591 0 0.0653776)
(-0.109252 0 0.0688906)
(-0.119532 0 0.0630582)
(-0.114865 0 0.0656148)
(-0.12594 0 0.0627613)
(-0.120923 0 0.06454)
(-0.132801 0 0.0640183)
(-0.127419 0 0.0653067)
(-0.140094 0 0.0662383)
(-0.134335 0 0.0673339)
(-0.1478 0 0.0689002)
(-0.14165 0 0.0700179)
(-0.155905 0 0.0717007)
(-0.149347 0 0.0729167)
(-0.164407 0 0.0746217)
(-0.157408 0 0.0758632)
(-0.173313 0 0.0779288)
(-0.16582 0 0.0789918)
(-0.182633 0 0.0821304)
(-0.174582 0 0.0827092)
(-0.192369 0 0.0879153)
(-0.183701 0 0.087633)
(-0.202496 0 0.096056)
(-0.193169 0 0.0945099)
(-0.212974 0 0.107275)
(-0.20295 0 0.104109)
(-0.212857 0 0.11703)
(-0.0553021 0 0.00836185)
(-0.0543943 0 0.0056916)
(-0.055347 0 0.0132048)
(-0.054498 0 0.0112619)
(-0.055414 0 0.017272)
(-0.0545095 0 0.015411)
(-0.0555039 0 0.0213883)
(-0.0545849 0 0.0194499)
(-0.0556186 0 0.0257728)
(-0.0546864 0 0.0237032)
(-0.0557605 0 0.0305069)
(-0.0548119 0 0.028281)
(-0.0559321 0 0.035629)
(-0.0549654 0 0.0332353)
(-0.0561367 0 0.0411473)
(-0.05515 0 0.0385901)
(-0.0563778 0 0.0470378)
(-0.0553688 0 0.0443383)
(-0.0566593 0 0.0532409)
(-0.0556256 0 0.050438)
(-0.0569858 0 0.0596621)
(-0.0559247 0 0.0568117)
(-0.0573618 0 0.0661723)
(-0.0562705 0 0.0633465)
(-0.0577921 0 0.0726129)
(-0.056668 0 0.0698966)
(-0.0582813 0 0.0788016)
(-0.0571217 0 0.0762888)
(-0.0588339 0 0.0845419)
(-0.0576363 0 0.0823307)
(-0.0594538 0 0.0896342)
(-0.0582161 0 0.0878204)
(-0.0601445 0 0.0938908)
(-0.0588647 0 0.0925598)
(-0.0609088 0 0.097155)
(-0.0595851 0 0.0963711)
(-0.0617497 0 0.0993267)
(-0.0603801 0 0.0991192)
(-0.0626712 0 0.100398)
(-0.0612528 0 0.100742)
(-0.06368 0 0.100489)
(-0.0622079 0 0.10129)
(-0.0647874 0 0.0998871)
(-0.0632539 0 0.100964)
(-0.0660116 0 0.0990383)
(-0.064405 0 0.100142)
(-0.0673779 0 0.098495)
(-0.0656828 0 0.0993514)
(-0.0689178 0 0.0987765)
(-0.0671161 0 0.0991732)
(-0.070665 0 0.100177)
(-0.0687385 0 0.100063)
(-0.0726498 0 0.102583)
(-0.0705828 0 0.102138)
(-0.0748942 0 0.105412)
(-0.0726748 0 0.105037)
(-0.0774099 0 0.107723)
(-0.0750319 0 0.107931)
(-0.0802017 0 0.108467)
(-0.0776552 0 0.109752)
(-0.083802 0 0.106567)
(-0.0808023 0 0.109451)
(-0.0875899 0 0.101813)
(-0.0844447 0 0.106095)
(-0.0915802 0 0.0949203)
(-0.0882696 0 0.100066)
(-0.0958136 0 0.0870837)
(-0.0923053 0 0.0924577)
(-0.100347 0 0.0795487)
(-0.0966069 0 0.0845809)
(-0.105237 0 0.07334)
(-0.101232 0 0.0776156)
(-0.110531 0 0.0691131)
(-0.106233 0 0.07242)
(-0.116254 0 0.0670916)
(-0.111641 0 0.0694303)
(-0.122409 0 0.0670912)
(-0.117463 0 0.0686433)
(-0.128978 0 0.0686323)
(-0.123688 0 0.069686)
(-0.135931 0 0.0711185)
(-0.130289 0 0.0719699)
(-0.143241 0 0.0740304)
(-0.137239 0 0.0748909)
(-0.150884 0 0.0770714)
(-0.14451 0 0.0780121)
(-0.158849 0 0.0802316)
(-0.152077 0 0.0811732)
(-0.16713 0 0.0837811)
(-0.159919 0 0.0845124)
(-0.175717 0 0.088226)
(-0.16802 0 0.0884337)
(-0.184589 0 0.0942417)
(-0.176367 0 0.0935478)
(-0.193694 0 0.102578)
(-0.184918 0 0.10058)
(-0.20294 0 0.113888)
(-0.193627 0 0.110273)
(-0.202243 0 0.123163)
(-0.0535747 0 0.00845856)
(-0.0526335 0 0.00574853)
(-0.0536169 0 0.013369)
(-0.0527356 0 0.0113933)
(-0.0536805 0 0.0174926)
(-0.0527433 0 0.0155997)
(-0.0537663 0 0.0216636)
(-0.0528147 0 0.0196929)
(-0.0538763 0 0.0261025)
(-0.0529118 0 0.0240002)
(-0.0540129 0 0.0308916)
(-0.0530321 0 0.0286322)
(-0.0541785 0 0.0360694)
(-0.0531798 0 0.0336414)
(-0.0543763 0 0.041645)
(-0.0533577 0 0.0390523)
(-0.0546099 0 0.0475944)
(-0.0535691 0 0.0448583)
(-0.0548831 0 0.0538585)
(-0.0538177 0 0.0510179)
(-0.0552004 0 0.0603426)
(-0.0541078 0 0.0574538)
(-0.0555666 0 0.0669173)
(-0.0544439 0 0.0640526)
(-0.0559862 0 0.0734235)
(-0.0548307 0 0.0706682)
(-0.0564642 0 0.0796778)
(-0.0552732 0 0.0771267)
(-0.057005 0 0.0854828)
(-0.055776 0 0.0832345)
(-0.0576125 0 0.0906377)
(-0.0563433 0 0.0887884)
(-0.0582901 0 0.094954)
(-0.0569788 0 0.0935891)
(-0.0590407 0 0.0982743)
(-0.0576855 0 0.097458)
(-0.059867 0 0.1005)
(-0.0584659 0 0.10026)
(-0.0607726 0 0.101624)
(-0.0593229 0 0.101934)
(-0.0617639 0 0.101773)
(-0.0602611 0 0.102533)
(-0.0628517 0 0.101236)
(-0.0612882 0 0.102265)
(-0.0640531 0 0.100469)
(-0.0624178 0 0.101512)
(-0.0653928 0 0.100026)
(-0.0636707 0 0.100807)
(-0.0669013 0 0.100428)
(-0.0650747 0 0.100736)
(-0.0686113 0 0.101964)
(-0.0666621 0 0.101752)
(-0.0705524 0 0.104512)
(-0.0684651 0 0.103966)
(-0.0727461 0 0.107478)
(-0.0705087 0 0.107006)
(-0.0752037 0 0.109913)
(-0.07281 0 0.110034)
(-0.0779294 0 0.110769)
(-0.0753698 0 0.111975)
(-0.0814414 0 0.108989)
(-0.0784393 0 0.111792)
(-0.0851315 0 0.10436)
(-0.0819886 0 0.108555)
(-0.0890128 0 0.0976135)
(-0.0857107 0 0.102653)
(-0.0931234 0 0.0899588)
(-0.0896312 0 0.0951981)
(-0.0975164 0 0.0826438)
(-0.0938011 0 0.0875096)
(-0.102245 0 0.0766856)
(-0.0982743 0 0.0807683)
(-0.107351 0 0.0727263)
(-0.103099 0 0.0758239)
(-0.112854 0 0.0709751)
(-0.108301 0 0.073099)
(-0.118751 0 0.0712373)
(-0.113885 0 0.0725749)
(-0.125021 0 0.0730273)
(-0.119835 0 0.0738659)
(-0.131631 0 0.0757467)
(-0.126119 0 0.0763763)
(-0.138546 0 0.0788751)
(-0.132705 0 0.0795008)
(-0.145736 0 0.0821153)
(-0.139556 0 0.0828055)
(-0.153177 0 0.085458)
(-0.146642 0 0.0861342)
(-0.16085 0 0.0891753)
(-0.15393 0 0.0896271)
(-0.168727 0 0.093774)
(-0.161393 0 0.093685)
(-0.176771 0 0.0999152)
(-0.169001 0 0.0989108)
(-0.184912 0 0.108318)
(-0.176687 0 0.106007)
(-0.193011 0 0.119598)
(-0.184393 0 0.115672)
(-0.191842 0 0.128407)
(-0.0517785 0 0.00854844)
(-0.050805 0 0.00580018)
(-0.0518178 0 0.0135236)
(-0.0509054 0 0.0115158)
(-0.0518777 0 0.0177023)
(-0.050909 0 0.0157776)
(-0.0519592 0 0.0219267)
(-0.0509762 0 0.0199236)
(-0.0520643 0 0.0264192)
(-0.0510685 0 0.0242837)
(-0.0521951 0 0.0312622)
(-0.0511833 0 0.0289687)
(-0.0523544 0 0.036495)
(-0.0513247 0 0.0340317)
(-0.052545 0 0.0421269)
(-0.0514956 0 0.0394977)
(-0.0527706 0 0.0481346)
(-0.0516992 0 0.0453604)
(-0.053035 0 0.0544593)
(-0.0519391 0 0.0515791)
(-0.0533426 0 0.0610059)
(-0.0522196 0 0.0580762)
(-0.0536983 0 0.0676451)
(-0.0525454 0 0.0647385)
(-0.0541068 0 0.0742168)
(-0.0529211 0 0.0714193)
(-0.0545729 0 0.080537)
(-0.0533517 0 0.0779438)
(-0.0551011 0 0.0864068)
(-0.053842 0 0.0841172)
(-0.0556954 0 0.0916244)
(-0.0543961 0 0.0897353)
(-0.0563591 0 0.096)
(-0.0550178 0 0.0945973)
(-0.057095 0 0.099376)
(-0.05571 0 0.0985237)
(-0.0579057 0 0.101654)
(-0.0564752 0 0.101379)
(-0.0587945 0 0.102829)
(-0.0573158 0 0.103104)
(-0.0597673 0 0.103032)
(-0.0582361 0 0.103754)
(-0.0608343 0 0.102558)
(-0.0592435 0 0.103541)
(-0.062012 0 0.101867)
(-0.0603507 0 0.102854)
(-0.0633241 0 0.10152)
(-0.0615777 0 0.102233)
(-0.0648 0 0.102036)
(-0.0629512 0 0.102265)
(-0.0664716 0 0.103702)
(-0.0645024 0 0.103403)
(-0.0683677 0 0.106389)
(-0.0662626 0 0.105752)
(-0.0705093 0 0.10949)
(-0.0682562 0 0.108928)
(-0.072907 0 0.11205)
(-0.0705 0 0.112086)
(-0.0755646 0 0.113016)
(-0.0729947 0 0.114144)
(-0.0789855 0 0.111356)
(-0.0759847 0 0.114073)
(-0.0825747 0 0.106846)
(-0.0794384 0 0.110948)
(-0.0863437 0 0.100236)
(-0.0830552 0 0.105166)
(-0.0903284 0 0.0927479)
(-0.0868577 0 0.0978546)
(-0.0945785 0 0.0856346)
(-0.0908934 0 0.090343)
(-0.0991435 0 0.0799081)
(-0.0952125 0 0.0838116)
(-0.104059 0 0.0761982)
(-0.0998588 0 0.0791012)
(-0.109341 0 0.0746992)
(-0.104855 0 0.0766202)
(-0.114981 0 0.0752027)
(-0.110202 0 0.0763349)
(-0.120953 0 0.0772141)
(-0.115878 0 0.0778475)
(-0.127222 0 0.0801317)
(-0.121848 0 0.0805553)
(-0.133747 0 0.0834357)
(-0.128074 0 0.083851)
(-0.140492 0 0.0868313)
(-0.134515 0 0.0873024)
(-0.147424 0 0.0903109)
(-0.141133 0 0.0907555)
(-0.154511 0 0.0941448)
(-0.147889 0 0.0943515)
(-0.161714 0 0.0988329)
(-0.154743 0 0.098487)
(-0.168979 0 0.10502)
(-0.161654 0 0.103754)
(-0.176222 0 0.113389)
(-0.168539 0 0.110835)
(-0.183279 0 0.124521)
(-0.175321 0 0.120376)
(-0.181729 0 0.13285)
(-0.0499155 0 0.00863105)
(-0.0489111 0 0.0058463)
(-0.0499518 0 0.0136681)
(-0.0490096 0 0.0116289)
(-0.0500078 0 0.0179)
(-0.0490089 0 0.0159439)
(-0.0500847 0 0.0221765)
(-0.0490716 0 0.0201412)
(-0.0501844 0 0.0267214)
(-0.0491588 0 0.0245527)
(-0.0503092 0 0.0316173)
(-0.0492677 0 0.0292897)
(-0.0504616 0 0.0369039)
(-0.0494024 0 0.0344053)
(-0.0506446 0 0.0425912)
(-0.0495659 0 0.0399251)
(-0.0508616 0 0.0486564)
(-0.0497611 0 0.0458437)
(-0.0511167 0 0.0550408)
(-0.0499918 0 0.0521204)
(-0.0514141 0 0.0616495)
(-0.0502622 0 0.0586781)
(-0.0517588 0 0.0683528)
(-0.050577 0 0.0654032)
(-0.0521555 0 0.0749899)
(-0.0509411 0 0.0721487)
(-0.0526091 0 0.0813759)
(-0.0513593 0 0.0787389)
(-0.0531242 0 0.0873107)
(-0.0518365 0 0.084978)
(-0.0537047 0 0.0925911)
(-0.0523769 0 0.0906602)
(-0.054354 0 0.0970261)
(-0.0529843 0 0.0955836)
(-0.0550747 0 0.100457)
(-0.0536615 0 0.0995673)
(-0.0558692 0 0.102787)
(-0.0544108 0 0.102476)
(-0.0567406 0 0.104012)
(-0.0552345 0 0.104251)
(-0.0576943 0 0.104267)
(-0.0561365 0 0.10495)
(-0.0587399 0 0.103853)
(-0.0571235 0 0.104792)
(-0.0598931 0 0.103236)
(-0.0582077 0 0.104169)
(-0.0611764 0 0.102979)
(-0.0594079 0 0.103628)
(-0.0626184 0 0.103606)
(-0.0607497 0 0.103759)
(-0.0642499 0 0.105397)
(-0.0622634 0 0.105014)
(-0.0660991 0 0.108217)
(-0.0639791 0 0.107493)
(-0.0681864 0 0.11145)
(-0.0659208 0 0.110802)
(-0.0705223 0 0.114131)
(-0.0681053 0 0.114085)
(-0.0731099 0 0.115206)
(-0.0705334 0 0.116255)
(-0.0764379 0 0.113662)
(-0.0734423 0 0.116291)
(-0.0799251 0 0.109265)
(-0.0767993 0 0.113273)
(-0.0835809 0 0.102782)
(-0.0803098 0 0.107603)
(-0.0874386 0 0.0954487)
(-0.0839934 0 0.100426)
(-0.0915444 0 0.0885215)
(-0.0878939 0 0.0930803)
(-0.0959437 0 0.0830083)
(-0.092058 0 0.0867444)
(-0.100668 0 0.0795277)
(-0.0965259 0 0.0822508)
(-0.105728 0 0.0782597)
(-0.101317 0 0.0799936)
(-0.111112 0 0.0789818)
(-0.106428 0 0.0799244)
(-0.116791 0 0.0811897)
(-0.111833 0 0.0816335)
(-0.122725 0 0.0842765)
(-0.117494 0 0.0845111)
(-0.128869 0 0.087722)
(-0.123369 0 0.0879476)
(-0.135183 0 0.0912336)
(-0.129413 0 0.0915114)
(-0.141625 0 0.0948052)
(-0.135582 0 0.0950497)
(-0.148154 0 0.0987046)
(-0.141831 0 0.0987041)
(-0.154723 0 0.103423)
(-0.14811 0 0.102866)
(-0.161265 0 0.109588)
(-0.154371 0 0.108116)
(-0.167684 0 0.117848)
(-0.160523 0 0.115114)
(-0.173808 0 0.128741)
(-0.16647 0 0.12446)
(-0.171959 0 0.136588)
(-0.0479883 0 0.00870596)
(-0.0469541 0 0.00588664)
(-0.0480213 0 0.0138016)
(-0.0470504 0 0.0117318)
(-0.0480732 0 0.0180849)
(-0.0470453 0 0.0160978)
(-0.0481451 0 0.0224121)
(-0.0471033 0 0.0203447)
(-0.0482391 0 0.027008)
(-0.0471851 0 0.0248063)
(-0.0483575 0 0.0319556)
(-0.0472877 0 0.029594)
(-0.0485026 0 0.0372948)
(-0.0474154 0 0.034761)
(-0.0486775 0 0.0430364)
(-0.0475709 0 0.0403336)
(-0.0488855 0 0.0491579)
(-0.0477573 0 0.0463068)
(-0.0491306 0 0.0556012)
(-0.0479783 0 0.0526406)
(-0.0494173 0 0.0622713)
(-0.0482381 0 0.0592581)
(-0.0497504 0 0.0690382)
(-0.0485414 0 0.0660456)
(-0.0501347 0 0.0757404)
(-0.0488932 0 0.0728554)
(-0.0505753 0 0.0821921)
(-0.0492984 0 0.0795112)
(-0.0510766 0 0.0881918)
(-0.0497619 0 0.0858159)
(-0.0516429 0 0.093535)
(-0.0502881 0 0.0915624)
(-0.0522772 0 0.0980295)
(-0.0508806 0 0.0965471)
(-0.0529822 0 0.101516)
(-0.0515423 0 0.100588)
(-0.0537601 0 0.103897)
(-0.0522753 0 0.10355)
(-0.0546137 0 0.105172)
(-0.0530817 0 0.105374)
(-0.0555478 0 0.105478)
(-0.0539648 0 0.106122)
(-0.0565714 0 0.105122)
(-0.054931 0 0.106016)
(-0.0576993 0 0.104574)
(-0.0559916 0 0.105455)
(-0.058953 0 0.104405)
(-0.0571643 0 0.104991)
(-0.0603599 0 0.105138)
(-0.0584736 0 0.105217)
(-0.06195 0 0.107051)
(-0.0599485 0 0.106585)
(-0.0637507 0 0.109999)
(-0.0616185 0 0.109189)
(-0.065782 0 0.113359)
(-0.063507 0 0.112626)
(-0.0680545 0 0.116157)
(-0.0656308 0 0.11603)
(-0.0705707 0 0.117336)
(-0.067991 0 0.118308)
(-0.0738047 0 0.115902)
(-0.0708178 0 0.118447)
(-0.0771892 0 0.111611)
(-0.0740772 0 0.115529)
(-0.0807314 0 0.105247)
(-0.0774809 0 0.109965)
(-0.0844618 0 0.098058)
(-0.0810452 0 0.102913)
(-0.088423 0 0.0913042)
(-0.0848106 0 0.095721)
(-0.0926562 0 0.0859888)
(-0.08882 0 0.0895666)
(-0.0971891 0 0.0827191)
(-0.0931105 0 0.0852728)
(-0.102029 0 0.0816608)
(-0.0976982 0 0.0832201)
(-0.107161 0 0.0825784)
(-0.102576 0 0.0833456)
(-0.112552 0 0.0849575)
(-0.107715 0 0.0852279)
(-0.11816 0 0.0881859)
(-0.113075 0 0.0882497)
(-0.123937 0 0.0917423)
(-0.11861 0 0.0917988)
(-0.129835 0 0.0953348)
(-0.124274 0 0.0954437)
(-0.13581 0 0.0989583)
(-0.130015 0 0.0990326)
(-0.141813 0 0.102878)
(-0.135785 0 0.102706)
(-0.147792 0 0.107576)
(-0.141528 0 0.106852)
(-0.153669 0 0.113663)
(-0.147188 0 0.112034)
(-0.159342 0 0.121753)
(-0.152676 0 0.118896)
(-0.164645 0 0.132343)
(-0.157878 0 0.127995)
(-0.162569 0 0.139722)
(-0.0459989 0 0.00877284)
(-0.0449361 0 0.005921)
(-0.0460286 0 0.0139237)
(-0.0450303 0 0.0118242)
(-0.0460761 0 0.0182562)
(-0.0450205 0 0.0162387)
(-0.0461428 0 0.0226325)
(-0.0450735 0 0.0205335)
(-0.0462308 0 0.0272781)
(-0.0451496 0 0.0250438)
(-0.0463423 0 0.0322761)
(-0.0452456 0 0.0298807)
(-0.0464798 0 0.0376668)
(-0.0453659 0 0.0350979)
(-0.0466461 0 0.0434614)
(-0.045513 0 0.040722)
(-0.0468446 0 0.0496383)
(-0.0456902 0 0.0467488)
(-0.0470794 0 0.0561396)
(-0.045901 0 0.0531388)
(-0.0473547 0 0.0628704)
(-0.0461497 0 0.0598152)
(-0.0476756 0 0.0697003)
(-0.046441 0 0.0666645)
(-0.048047 0 0.0764674)
(-0.0467799 0 0.0735384)
(-0.048474 0 0.0829846)
(-0.0471716 0 0.0802597)
(-0.0489611 0 0.0890493)
(-0.0476209 0 0.08663)
(-0.0495124 0 0.0944555)
(-0.0481324 0 0.0924409)
(-0.0501313 0 0.0990094)
(-0.0487095 0 0.0974871)
(-0.0508202 0 0.102551)
(-0.0493552 0 0.101586)
(-0.051581 0 0.104983)
(-0.0500714 0 0.1046)
(-0.0524163 0 0.106307)
(-0.05086 0 0.106473)
(-0.0533304 0 0.106663)
(-0.0517239 0 0.107269)
(-0.0543315 0 0.106362)
(-0.0526689 0 0.107213)
(-0.0554336 0 0.105882)
(-0.0537054 0 0.106711)
(-0.056657 0 0.105797)
(-0.05485 0 0.10632)
(-0.058028 0 0.106631)
(-0.0561261 0 0.106638)
(-0.0595756 0 0.10866)
(-0.0575615 0 0.108113)
(-0.0613265 0 0.111733)
(-0.0591847 0 0.110837)
(-0.0633007 0 0.115215)
(-0.061019 0 0.114398)
(-0.0655086 0 0.118126)
(-0.0630811 0 0.117919)
(-0.0679526 0 0.119405)
(-0.0653725 0 0.120302)
(-0.0710917 0 0.118075)
(-0.0681166 0 0.12054)
(-0.0743731 0 0.113883)
(-0.0712779 0 0.117717)
(-0.0778017 0 0.107631)
(-0.0745747 0 0.11225)
(-0.081405 0 0.100577)
(-0.07802 0 0.105315)
(-0.0852221 0 0.0939841)
(-0.081651 0 0.0982657)
(-0.0892905 0 0.0888516)
(-0.0855073 0 0.0922788)
(-0.0936341 0 0.0857752)
(-0.0896228 0 0.0881686)
(-0.0982568 0 0.0849066)
(-0.0940104 0 0.0863021)
(-0.103141 0 0.0859973)
(-0.0986598 0 0.0866021)
(-0.108253 0 0.0885233)
(-0.10354 0 0.0886357)
(-0.113546 0 0.0918673)
(-0.108609 0 0.0917783)
(-0.118969 0 0.0955065)
(-0.113818 0 0.0954145)
(-0.124473 0 0.0991494)
(-0.119118 0 0.0991128)
(-0.130007 0 0.10279)
(-0.124456 0 0.102722)
(-0.13552 0 0.106692)
(-0.129777 0 0.106381)
(-0.140952 0 0.111327)
(-0.135024 0 0.110473)
(-0.146226 0 0.117289)
(-0.140136 0 0.11555)
(-0.151232 0 0.125166)
(-0.145025 0 0.122234)
(-0.155816 0 0.135409)
(-0.149571 0 0.13105)
(-0.153574 0 0.142346)
(-0.0439497 0 0.00883136)
(-0.0428594 0 0.00594921)
(-0.0439759 0 0.0140338)
(-0.0429514 0 0.0119057)
(-0.0440188 0 0.0184134)
(-0.0429367 0 0.0163661)
(-0.0440801 0 0.0228371)
(-0.0429846 0 0.0207068)
(-0.0441618 0 0.0275309)
(-0.0430547 0 0.0252642)
(-0.0442661 0 0.032578)
(-0.0431438 0 0.030149)
(-0.0443956 0 0.0380188)
(-0.0432563 0 0.035415)
(-0.0445529 0 0.0438654)
(-0.0433947 0 0.0410894)
(-0.0447415 0 0.0500967)
(-0.0435622 0 0.0471686)
(-0.0449653 0 0.056655)
(-0.0437623 0 0.0536138)
(-0.0452289 0 0.0634458)
(-0.0439994 0 0.0603485)
(-0.0455371 0 0.0703384)
(-0.0442783 0 0.0672589)
(-0.045895 0 0.0771701)
(-0.0446039 0 0.0741966)
(-0.0463078 0 0.0837529)
(-0.0449815 0 0.0809833)
(-0.0467801 0 0.0898827)
(-0.0454161 0 0.0874194)
(-0.0473161 0 0.0953519)
(-0.0459123 0 0.0932949)
(-0.0479191 0 0.0999655)
(-0.0464736 0 0.098403)
(-0.0485913 0 0.103562)
(-0.0471028 0 0.102559)
(-0.0493347 0 0.106045)
(-0.0478019 0 0.105626)
(-0.0501513 0 0.107417)
(-0.0485723 0 0.107548)
(-0.0510451 0 0.107821)
(-0.0494168 0 0.10839)
(-0.0520234 0 0.107574)
(-0.0503403 0 0.108383)
(-0.0530992 0 0.107159)
(-0.0513523 0 0.107938)
(-0.0542917 0 0.107153)
(-0.0524685 0 0.107617)
(-0.0556261 0 0.108085)
(-0.0537108 0 0.10802)
(-0.0571303 0 0.110225)
(-0.055106 0 0.109599)
(-0.0588306 0 0.113417)
(-0.0566816 0 0.112438)
(-0.0607468 0 0.117018)
(-0.0584607 0 0.116118)
(-0.0628892 0 0.120038)
(-0.0604604 0 0.119753)
(-0.0652604 0 0.121413)
(-0.0626826 0 0.122236)
(-0.0683043 0 0.120182)
(-0.0653437 0 0.122569)
(-0.0714826 0 0.116084)
(-0.0684071 0 0.119836)
(-0.0747982 0 0.109935)
(-0.0715973 0 0.114461)
(-0.0782754 0 0.103005)
(-0.0749247 0 0.107634)
(-0.08195 0 0.0965616)
(-0.0784227 0 0.100715)
(-0.0858557 0 0.0915974)
(-0.0821284 0 0.0948826)
(-0.0900134 0 0.0886974)
(-0.0860723 0 0.0909404)
(-0.0944242 0 0.0879997)
(-0.0902644 0 0.0892426)
(-0.0990685 0 0.0892431)
(-0.0946918 0 0.0896982)
(-0.103909 0 0.0918942)
(-0.0993215 0 0.091863)
(-0.1089 0 0.0953304)
(-0.10411 0 0.0951051)
(-0.113987 0 0.0990273)
(-0.109009 0 0.0988057)
(-0.119117 0 0.102693)
(-0.113965 0 0.102533)
(-0.124239 0 0.106323)
(-0.118924 0 0.106136)
(-0.129297 0 0.110175)
(-0.123829 0 0.109753)
(-0.13423 0 0.114712)
(-0.128622 0 0.113762)
(-0.138958 0 0.120515)
(-0.133236 0 0.118702)
(-0.143375 0 0.128145)
(-0.137591 0 0.125179)
(-0.147334 0 0.138019)
(-0.141561 0 0.13369)
(-0.144976 0 0.144543)
(-0.0418429 0 0.00888127)
(-0.0407261 0 0.00597114)
(-0.0418654 0 0.0141315)
(-0.0408158 0 0.0119759)
(-0.0419036 0 0.0185558)
(-0.0407962 0 0.0164794)
(-0.0419591 0 0.0230251)
(-0.0408387 0 0.0208641)
(-0.0420343 0 0.0277657)
(-0.0409026 0 0.0254668)
(-0.0421312 0 0.0328604)
(-0.0409845 0 0.0303981)
(-0.0422522 0 0.0383501)
(-0.0410889 0 0.0357116)
(-0.0424001 0 0.0442474)
(-0.0412183 0 0.0414349)
(-0.0425784 0 0.0505319)
(-0.0413758 0 0.0475654)
(-0.0427909 0 0.0571465)
(-0.0415648 0 0.0540647)
(-0.0430422 0 0.0639966)
(-0.0417899 0 0.0608569)
(-0.0433372 0 0.0709514)
(-0.0420558 0 0.067828)
(-0.0436812 0 0.0778476)
(-0.0423676 0 0.0748291)
(-0.0440793 0 0.084496)
(-0.0427307 0 0.0816812)
(-0.0445364 0 0.0906912)
(-0.0431501 0 0.0881834)
(-0.0450566 0 0.0962238)
(-0.0436305 0 0.0941237)
(-0.0456432 0 0.100897)
(-0.0441756 0 0.0992939)
(-0.0462985 0 0.104549)
(-0.044788 0 0.103508)
(-0.0470241 0 0.107083)
(-0.0454696 0 0.106628)
(-0.0478218 0 0.108501)
(-0.0462217 0 0.108598)
(-0.0486949 0 0.108953)
(-0.0470465 0 0.109486)
(-0.0496502 0 0.108757)
(-0.0479482 0 0.109526)
(-0.0506994 0 0.108403)
(-0.0489356 0 0.109134)
(-0.0518606 0 0.108474)
(-0.050023 0 0.108879)
(-0.0531578 0 0.109497)
(-0.0512312 0 0.109364)
(-0.054618 0 0.111745)
(-0.0525855 0 0.111041)
(-0.0562669 0 0.115051)
(-0.0541129 0 0.113991)
(-0.0581243 0 0.118766)
(-0.0558363 0 0.117785)
(-0.0602008 0 0.121892)
(-0.0577732 0 0.12153)
(-0.0624988 0 0.123359)
(-0.0599258 0 0.124111)
(-0.0654478 0 0.122223)
(-0.062504 0 0.124535)
(-0.0685237 0 0.118213)
(-0.06547 0 0.121886)
(-0.0717274 0 0.11216)
(-0.0685549 0 0.116597)
(-0.0750802 0 0.105345)
(-0.0717658 0 0.109869)
(-0.0786145 0 0.0990379)
(-0.0751333 0 0.103071)
(-0.0823608 0 0.0942278)
(-0.0786913 0 0.0973802)
(-0.086337 0 0.0914881)
(-0.0824679 0 0.0935913)
(-0.0905418 0 0.0909439)
(-0.0864701 0 0.0920458)
(-0.0949537 0 0.0923214)
(-0.0906827 0 0.0926396)
(-0.0995347 0 0.0950779)
(-0.0950716 0 0.0949171)
(-0.104236 0 0.0985856)
(-0.0995926 0 0.0982393)
(-0.109005 0 0.102318)
(-0.104197 0 0.101984)
(-0.113786 0 0.105984)
(-0.108831 0 0.10572)
(-0.118525 0 0.109577)
(-0.113438 0 0.109296)
(-0.123165 0 0.113353)
(-0.117959 0 0.112847)
(-0.127644 0 0.117767)
(-0.122337 0 0.116748)
(-0.131884 0 0.123384)
(-0.126503 0 0.121528)
(-0.135781 0 0.130746)
(-0.130385 0 0.127776)
(-0.139202 0 0.14024)
(-0.133854 0 0.135971)
(-0.136766 0 0.146382)
(-0.0396804 0 0.00892236)
(-0.0385385 0 0.00598672)
(-0.0396993 0 0.0142163)
(-0.0386258 0 0.0120346)
(-0.0397326 0 0.0186829)
(-0.0386011 0 0.0165782)
(-0.0397823 0 0.0231959)
(-0.0386381 0 0.0210048)
(-0.0398506 0 0.0279816)
(-0.0386956 0 0.0256512)
(-0.0399398 0 0.0331225)
(-0.0387702 0 0.0306274)
(-0.0400521 0 0.0386597)
(-0.0388662 0 0.0359868)
(-0.0401904 0 0.0446065)
(-0.0389863 0 0.0417578)
(-0.0403579 0 0.0509431)
(-0.0391333 0 0.0479384)
(-0.0405587 0 0.057613)
(-0.039311 0 0.0544908)
(-0.0407972 0 0.0645218)
(-0.0395236 0 0.0613396)
(-0.0410787 0 0.0715385)
(-0.0397761 0 0.0683709)
(-0.0414082 0 0.0784991)
(-0.0400737 0 0.0754352)
(-0.0417913 0 0.0852132)
(-0.0404218 0 0.0823527)
(-0.0422326 0 0.091474)
(-0.0408257 0 0.088921)
(-0.0427366 0 0.0970703)
(-0.04129 0 0.0949267)
(-0.0433065 0 0.101804)
(-0.0418184 0 0.10016)
(-0.0439445 0 0.105512)
(-0.0424138 0 0.104432)
(-0.0446521 0 0.108096)
(-0.0430776 0 0.107605)
(-0.0454307 0 0.109561)
(-0.0438112 0 0.109622)
(-0.0462831 0 0.110058)
(-0.044616 0 0.110555)
(-0.0472151 0 0.109912)
(-0.045496 0 0.11064)
(-0.0482374 0 0.109616)
(-0.0464585 0 0.1103)
(-0.0493671 0 0.109758)
(-0.047517 0 0.110106)
(-0.0506267 0 0.110868)
(-0.0486907 0 0.110669)
(-0.0520423 0 0.113218)
(-0.0500038 0 0.11244)
(-0.0536393 0 0.116635)
(-0.0514826 0 0.115495)
(-0.0554375 0 0.12046)
(-0.0531498 0 0.119399)
(-0.0574478 0 0.123688)
(-0.0550235 0 0.12325)
(-0.0596727 0 0.125245)
(-0.0571066 0 0.125926)
(-0.0625272 0 0.124199)
(-0.0596023 0 0.126438)
(-0.065502 0 0.120271)
(-0.0624719 0 0.12387)
(-0.0685955 0 0.114306)
(-0.065453 0 0.118659)
(-0.0718262 0 0.107597)
(-0.0685497 0 0.112022)
(-0.0752232 0 0.101415)
(-0.0717895 0 0.105336)
(-0.0788139 0 0.0967458)
(-0.0752038 0 0.0997741)
(-0.0826139 0 0.0941515)
(-0.0788179 0 0.0961245)
(-0.0866196 0 0.0937444)
(-0.0826366 0 0.0947162)
(-0.0908083 0 0.0952389)
(-0.0866427 0 0.0954321)
(-0.0951412 0 0.098083)
(-0.0908014 0 0.0978058)
(-0.0995691 0 0.101644)
(-0.0950688 0 0.101191)
(-0.104038 0 0.105393)
(-0.0993958 0 0.104964)
(-0.108493 0 0.10904)
(-0.103729 0 0.10869)
(-0.112879 0 0.112576)
(-0.10801 0 0.11222)
(-0.117139 0 0.116254)
(-0.112181 0 0.115687)
(-0.121209 0 0.120524)
(-0.116183 0 0.119461)
(-0.125014 0 0.125937)
(-0.11995 0 0.124065)
(-0.128455 0 0.13302)
(-0.123412 0 0.130071)
(-0.131412 0 0.142134)
(-0.126446 0 0.137943)
(-0.128928 0 0.147923)
(-0.0374647 0 0.00895448)
(-0.0362987 0 0.0059959)
(-0.0374798 0 0.014288)
(-0.0363836 0 0.0120815)
(-0.0375081 0 0.0187943)
(-0.0363538 0 0.0166623)
(-0.0375518 0 0.023349)
(-0.0363851 0 0.0211284)
(-0.0376131 0 0.0281781)
(-0.0364361 0 0.0258167)
(-0.0376943 0 0.0333637)
(-0.0365031 0 0.0308362)
(-0.0377977 0 0.0389471)
(-0.0365906 0 0.0362401)
(-0.037926 0 0.0449421)
(-0.036701 0 0.0420574)
(-0.0380825 0 0.0513296)
(-0.0368374 0 0.0482867)
(-0.0382711 0 0.0580538)
(-0.0370033 0 0.0548912)
(-0.0384966 0 0.0650207)
(-0.0372032 0 0.0617958)
(-0.0387641 0 0.0720988)
(-0.0374419 0 0.0688867)
(-0.0390788 0 0.0791236)
(-0.0377249 0 0.076014)
(-0.0394463 0 0.0859036)
(-0.0380577 0 0.0829969)
(-0.0398716 0 0.0922303)
(-0.0384456 0 0.0896318)
(-0.040359 0 0.0978909)
(-0.0388934 0 0.0957033)
(-0.0409119 0 0.102685)
(-0.0394049 0 0.100999)
(-0.0415324 0 0.106449)
(-0.0399829 0 0.10533)
(-0.0422217 0 0.109083)
(-0.0406289 0 0.108556)
(-0.0429811 0 0.110594)
(-0.0413437 0 0.110622)
(-0.0438126 0 0.111136)
(-0.0421286 0 0.111598)
(-0.0447213 0 0.111036)
(-0.0429866 0 0.111727)
(-0.0457168 0 0.110795)
(-0.0439244 0 0.111434)
(-0.0468146 0 0.111005)
(-0.0449538 0 0.111299)
(-0.0480363 0 0.112198)
(-0.0460928 0 0.111935)
(-0.0494071 0 0.114644)
(-0.0473645 0 0.113793)
(-0.0509518 0 0.118167)
(-0.0487943 0 0.116949)
(-0.0526904 0 0.122098)
(-0.0504052 0 0.12096)
(-0.0546344 0 0.125425)
(-0.0522156 0 0.124914)
(-0.0567865 0 0.127069)
(-0.0542293 0 0.127682)
(-0.0595475 0 0.12611)
(-0.0566432 0 0.128279)
(-0.0624227 0 0.122258)
(-0.0594178 0 0.125786)
(-0.0654083 0 0.116376)
(-0.0622971 0 0.120649)
(-0.0685197 0 0.109763)
(-0.0652822 0 0.114097)
(-0.0717829 0 0.103696)
(-0.0683977 0 0.107512)
(-0.0752228 0 0.099155)
(-0.0716727 0 0.102067)
(-0.0788525 0 0.0966919)
(-0.0751299 0 0.0985443)
(-0.0826669 0 0.096407)
(-0.078772 0 0.0972591)
(-0.0866423 0 0.0980028)
(-0.0825806 0 0.0980824)
(-0.0907397 0 0.100919)
(-0.0865206 0 0.100538)
(-0.0949099 0 0.104517)
(-0.0905488 0 0.103971)
(-0.0990993 0 0.108267)
(-0.0946166 0 0.107757)
(-0.103253 0 0.111878)
(-0.0986707 0 0.111459)
(-0.107316 0 0.115341)
(-0.102653 0 0.114929)
(-0.11123 0 0.118905)
(-0.106505 0 0.118296)
(-0.114934 0 0.123015)
(-0.11017 0 0.12193)
(-0.118353 0 0.128213)
(-0.113581 0 0.126344)
(-0.121396 0 0.13501)
(-0.116675 0 0.132099)
(-0.123954 0 0.143749)
(-0.119331 0 0.139648)
(-0.121444 0 0.149209)
(-0.035198 0 0.00897753)
(-0.0340091 0 0.00599866)
(-0.0352092 0 0.0143464)
(-0.0340917 0 0.0121165)
(-0.0352325 0 0.0188897)
(-0.0340567 0 0.0167313)
(-0.03527 0 0.023484)
(-0.0340823 0 0.0212347)
(-0.0353242 0 0.0283548)
(-0.0341266 0 0.0259629)
(-0.0353973 0 0.0335835)
(-0.0341858 0 0.031024)
(-0.0354915 0 0.0392115)
(-0.0342645 0 0.036471)
(-0.0356096 0 0.0452533)
(-0.0343652 0 0.0423331)
(-0.0357547 0 0.0516906)
(-0.0344907 0 0.0486099)
(-0.035931 0 0.0584683)
(-0.0346446 0 0.0552654)
(-0.0361431 0 0.0654924)
(-0.0348314 0 0.0622249)
(-0.0363962 0 0.0726316)
(-0.0350561 0 0.0693748)
(-0.0366957 0 0.0797205)