/*--------------------------------*- C++ -*----------------------------------*\
  =========                 |
  \\      /  F ield         | OpenFOAM: The Open Source CFD Toolbox
   \\    /   O peration     | Website:  https://openfoam.org
    \\  /    A nd           | Version:  9
     \\/     M anipulation  |
\*---------------------------------------------------------------------------*/
FoamFile
{
    format      ascii;
    class       volScalarField;
    location    "0.14";
    object      alpha.water;
}
// * * * * * * * * * * * * * * * * * * * * * * * * * * * * * * * * * * * * * //

dimensions      [0 0 0 0 0 0 0];

internalField   nonuniform List<scalar> 
5000
(
9.60859e-320
9.61254e-320
9.61254e-320
9.60661e-320
9.59673e-320
9.58586e-320
9.57499e-320
9.56709e-320
9.55918e-320
9.55523e-320
9.55325e-320
9.55622e-320
9.56511e-320
9.5908e-320
9.65207e-320
9.74792e-320
9.80523e-320
9.74495e-320
9.64811e-320
9.58784e-320
1.17024e-319
1.22647e-319
1.28615e-319
1.3491e-319
1.4154e-319
1.48526e-319
1.55868e-319
1.63585e-319
1.71698e-319
1.80215e-319
1.89178e-319
1.98595e-319
2.08476e-319
2.18871e-319
2.2979e-319
2.41262e-319
2.53317e-319
2.65995e-319
2.79305e-319
2.93297e-319
3.08001e-319
3.23425e-319
3.39621e-319
3.56626e-319
3.74462e-319
3.93197e-319
4.12841e-319
4.33454e-319
4.55094e-319
4.77821e-319
9.60859e-320
9.61254e-320
9.61254e-320
9.60661e-320
9.59673e-320
9.58586e-320
9.57499e-320
9.56709e-320
9.55918e-320
9.55523e-320
9.55325e-320
9.55523e-320
9.56511e-320
9.5908e-320
9.65108e-320
9.7489e-320
9.80621e-320
9.74495e-320
9.64811e-320
9.58883e-320
1.17034e-319
1.22647e-319
1.28615e-319
1.3491e-319
1.4154e-319
1.48516e-319
1.55868e-319
1.63575e-319
1.71688e-319
1.80215e-319
1.89168e-319
1.98575e-319
2.08456e-319
2.18851e-319
2.2976e-319
2.41242e-319
2.53298e-319
2.65965e-319
2.79285e-319
2.93267e-319
3.07961e-319
3.23396e-319
3.39581e-319
3.56597e-319
3.74433e-319
3.93158e-319
4.12792e-319
4.33414e-319
4.55044e-319
4.77761e-319
9.60859e-320
9.61254e-320
9.61254e-320
9.60661e-320
9.59673e-320
9.58685e-320
9.57499e-320
9.56709e-320
9.55918e-320
9.55523e-320
9.55325e-320
9.55523e-320
9.56412e-320
9.58981e-320
9.65108e-320
9.7489e-320
9.80621e-320
9.74693e-320
9.65009e-320
9.58883e-320
1.17034e-319
1.22647e-319
1.28615e-319
1.3491e-319
1.4154e-319
1.48516e-319
1.55858e-319
1.63575e-319
1.71678e-319
1.80196e-319
1.89148e-319
1.98555e-319
2.08446e-319
2.18832e-319
2.2975e-319
2.41223e-319
2.53278e-319
2.65946e-319
2.79266e-319
2.93238e-319
3.07941e-319
3.23366e-319
3.39561e-319
3.56557e-319
3.74403e-319
3.93118e-319
4.12762e-319
4.33375e-319
4.55015e-319
4.77722e-319
9.60859e-320
9.61254e-320
9.61254e-320
9.60661e-320
9.59772e-320
9.58685e-320
9.57499e-320
9.56709e-320
9.55918e-320
9.55523e-320
9.55325e-320
9.55424e-320
9.56313e-320
9.58883e-320
9.65207e-320
9.74989e-320
9.8072e-320
9.74792e-320
9.65009e-320
9.58883e-320
1.17034e-319
1.22647e-319
1.28615e-319
1.349e-319
1.4154e-319
1.48516e-319
1.55848e-319
1.63575e-319
1.71678e-319
1.80196e-319
1.89148e-319
1.98555e-319
2.08436e-319
2.18822e-319
2.29741e-319
2.41203e-319
2.53258e-319
2.65926e-319
2.79246e-319
2.93238e-319
3.07921e-319
3.23356e-319
3.39552e-319
3.56557e-319
3.74383e-319
3.93108e-319
4.12742e-319
4.33355e-319
4.54995e-319
4.77702e-319
9.60859e-320
9.61254e-320
9.61254e-320
9.6076e-320
9.59772e-320
9.58685e-320
9.57499e-320
9.56709e-320
9.55918e-320
9.55424e-320
9.55227e-320
9.55325e-320
9.56313e-320
9.58883e-320
9.65207e-320
9.75088e-320
9.80819e-320
9.74989e-320
9.65207e-320
9.58883e-320
1.17024e-319
1.22647e-319
1.28605e-319
1.349e-319
1.4154e-319
1.48516e-319
1.55848e-319
1.63565e-319
1.71678e-319
1.80196e-319
1.89148e-319
1.98545e-319
2.08427e-319
2.18812e-319
2.29731e-319
2.41203e-319
2.53258e-319
2.65926e-319
2.79236e-319
2.93218e-319
3.07921e-319
3.23346e-319
3.39542e-319
3.56547e-319
3.74383e-319
3.93108e-319
4.12742e-319
4.33355e-319
4.54985e-319
4.77692e-319
9.60859e-320
9.61254e-320
9.61254e-320
9.6076e-320
9.59772e-320
9.58685e-320
9.57499e-320
9.5661e-320
9.55918e-320
9.55325e-320
9.55128e-320
9.55325e-320
9.56116e-320
9.58883e-320
9.65207e-320
9.75286e-320
9.81017e-320
9.75088e-320
9.65207e-320
9.58883e-320
1.17015e-319
1.22637e-319
1.28605e-319
1.349e-319
1.4153e-319
1.48516e-319
1.55848e-319
1.63555e-319
1.71668e-319
1.80186e-319
1.89138e-319
1.98535e-319
2.08427e-319
2.18812e-319
2.29721e-319
2.41203e-319
2.53258e-319
2.65926e-319
2.79236e-319
2.93228e-319
3.07921e-319
3.23356e-319
3.39561e-319
3.56557e-319
3.74403e-319
3.93118e-319
4.12762e-319
4.33375e-319
4.54995e-319
4.77702e-319
9.60859e-320
9.61353e-320
9.61353e-320
9.60859e-320
9.59871e-320
9.58685e-320
9.57499e-320
9.5661e-320
9.55918e-320
9.55325e-320
9.55128e-320
9.55227e-320
9.56116e-320
9.58784e-320
9.65305e-320
9.75384e-320
9.81116e-320
9.75286e-320
9.65404e-320
9.58883e-320
1.17015e-319
1.22627e-319
1.28595e-319
1.349e-319
1.4153e-319
1.48506e-319
1.55848e-319
1.63555e-319
1.71668e-319
1.80186e-319
1.89138e-319
1.98535e-319
2.08417e-319
2.18812e-319
2.29721e-319
2.41203e-319
2.53258e-319
2.65926e-319
2.79246e-319
2.93238e-319
3.07941e-319
3.23376e-319
3.39581e-319
3.56577e-319
3.74423e-319
3.93138e-319
4.12782e-319
4.33394e-319
4.55015e-319
4.77722e-319
9.60859e-320
9.61353e-320
9.61452e-320
9.60859e-320
9.59871e-320
9.58685e-320
9.57499e-320
9.5661e-320
9.55819e-320
9.55325e-320
9.55029e-320
9.55128e-320
9.55918e-320
9.58685e-320
9.65404e-320
9.75582e-320
9.81214e-320
9.75483e-320
9.65503e-320
9.58883e-320
1.17015e-319
1.22627e-319
1.28595e-319
1.349e-319
1.4152e-319
1.48506e-319
1.55848e-319
1.63555e-319
1.71668e-319
1.80186e-319
1.89138e-319
1.98535e-319
2.08427e-319
2.18812e-319
2.29731e-319
2.41203e-319
2.53258e-319
2.65946e-319
2.79266e-319
2.93258e-319
3.07961e-319
3.23396e-319
3.39601e-319
3.56617e-319
3.74462e-319
3.93177e-319
4.12821e-319
4.33434e-319
4.55054e-319
4.77761e-319
9.60958e-320
9.61452e-320
9.61452e-320
9.60859e-320
9.59871e-320
9.58685e-320
9.57499e-320
9.56511e-320
9.55819e-320
9.55227e-320
9.5493e-320
9.55029e-320
9.55918e-320
9.58685e-320
9.65602e-320
9.7578e-320
9.81412e-320
9.75681e-320
9.65602e-320
9.58883e-320
1.17015e-319
1.22627e-319
1.28595e-319
1.3489e-319
1.4152e-319
1.48496e-319
1.55848e-319
1.63555e-319
1.71668e-319
1.80186e-319
1.89138e-319
1.98545e-319
2.08436e-319
2.18822e-319
2.29741e-319
2.41223e-319
2.53278e-319
2.65956e-319
2.79285e-319
2.93277e-319
3.07981e-319
3.23435e-319
3.3964e-319
3.56656e-319
3.74502e-319
3.93237e-319
4.12881e-319
4.33493e-319
4.55114e-319
4.77821e-319
9.60958e-320
9.61452e-320
9.61452e-320
9.60859e-320
9.59871e-320
9.58685e-320
9.57499e-320
9.56511e-320
9.55721e-320
9.55128e-320
9.5493e-320
9.5493e-320
9.55819e-320
9.58685e-320
9.65602e-320
9.75977e-320
9.8161e-320
9.75977e-320
9.658e-320
9.58883e-320
1.17005e-319
1.22617e-319
1.28586e-319
1.3488e-319
1.4152e-319
1.48496e-319
1.55848e-319
1.63555e-319
1.71678e-319
1.80196e-319
1.89148e-319
1.98555e-319
2.08436e-319
2.18832e-319
2.2975e-319
2.41232e-319
2.53298e-319
2.65985e-319
2.79305e-319
2.93317e-319
3.0802e-319
3.23475e-319
3.3969e-319
3.56706e-319
3.74561e-319
3.93296e-319
4.1294e-319
4.33562e-319
4.55193e-319
4.779e-319
9.60958e-320
9.61452e-320
9.61452e-320
9.60859e-320
9.59871e-320
9.58685e-320
9.57499e-320
9.56511e-320
9.55721e-320
9.55128e-320
9.54831e-320
9.5493e-320
9.55721e-320
9.58685e-320
9.658e-320
9.76274e-320
9.81807e-320
9.76274e-320
9.65997e-320
9.58883e-320
1.16995e-319
1.22607e-319
1.28586e-319
1.3488e-319
1.4152e-319
1.48506e-319
1.55848e-319
1.63565e-319
1.71678e-319
1.80196e-319
1.89148e-319
1.98565e-319
2.08456e-319
2.18851e-319
2.2977e-319
2.41252e-319
2.53317e-319
2.66005e-319
2.79345e-319
2.93356e-319
3.0807e-319
3.23524e-319
3.39749e-319
3.56775e-319
3.7464e-319
3.93375e-319
4.13029e-319
4.33651e-319
4.55281e-319
4.77999e-319
9.61056e-320
9.61452e-320
9.61452e-320
9.60958e-320
9.59871e-320
9.58685e-320
9.57499e-320
9.56511e-320
9.55721e-320
9.55128e-320
9.54732e-320
9.54732e-320
9.55622e-320
9.58685e-320
9.65997e-320
9.76471e-320
9.82005e-320
9.76471e-320
9.66195e-320
9.58981e-320
1.16995e-319
1.22607e-319
1.28576e-319
1.3488e-319
1.4152e-319
1.48506e-319
1.55848e-319
1.63575e-319
1.71678e-319
1.80206e-319
1.89168e-319
1.98575e-319
2.08466e-319
2.18871e-319
2.298e-319
2.41282e-319
2.53357e-319
2.66044e-319
2.79384e-319
2.93406e-319
3.08129e-319
3.23593e-319
3.39818e-319
3.56854e-319
3.74719e-319
3.93464e-319
4.13118e-319
4.3375e-319
4.5539e-319
4.78117e-319
9.61056e-320
9.61452e-320
9.61551e-320
9.61056e-320
9.5997e-320
9.58685e-320
9.57499e-320
9.56511e-320
9.55721e-320
9.55029e-320
9.54732e-320
9.54732e-320
9.55523e-320
9.58685e-320
9.66195e-320
9.76669e-320
9.82301e-320
9.76669e-320
9.66392e-320
9.58981e-320
1.16995e-319
1.22607e-319
1.28576e-319
1.3488e-319
1.4152e-319
1.48516e-319
1.55848e-319
1.63575e-319
1.71698e-319
1.80215e-319
1.89178e-319
1.98595e-319
2.08486e-319
2.18891e-319
2.2982e-319
2.41312e-319
2.53396e-319
2.66094e-319
2.79444e-319
2.93455e-319
3.08198e-319
3.23662e-319
3.39897e-319
3.56933e-319
3.74818e-319
3.93573e-319
4.13237e-319
4.33869e-319
4.55529e-319
4.78256e-319
9.61056e-320
9.61551e-320
9.61649e-320
9.61056e-320
9.5997e-320
9.58685e-320
9.57499e-320
9.56511e-320
9.55622e-320
9.55029e-320
9.54634e-320
9.54634e-320
9.55523e-320
9.58685e-320
9.66294e-320
9.76965e-320
9.82598e-320
9.76965e-320
9.66491e-320
9.5908e-320
1.16985e-319
1.22597e-319
1.28576e-319
1.3488e-319
1.4152e-319
1.48516e-319
1.55868e-319
1.63585e-319
1.71698e-319
1.80235e-319
1.89188e-319
1.98614e-319
2.08515e-319
2.18911e-319
2.29849e-319
2.41351e-319
2.53436e-319
2.66143e-319
2.79493e-319
2.93524e-319
3.08267e-319
3.23741e-319
3.39996e-319
3.57032e-319
3.74917e-319
3.93691e-319
4.13365e-319
4.34007e-319
4.55667e-319
4.78414e-319
9.61056e-320
9.61649e-320
9.61649e-320
9.61056e-320
9.60068e-320
9.58685e-320
9.57499e-320
9.56511e-320
9.55622e-320
9.5493e-320
9.54535e-320
9.54535e-320
9.55325e-320
9.58685e-320
9.66491e-320
9.77262e-320
9.82795e-320
9.77262e-320
9.66689e-320
9.5908e-320
1.16985e-319
1.22597e-319
1.28576e-319
1.3488e-319
1.4153e-319
1.48516e-319
1.55868e-319
1.63595e-319
1.71717e-319
1.80255e-319
1.89207e-319
1.98634e-319
2.08535e-319
2.1895e-319
2.29889e-319
2.41391e-319
2.53485e-319
2.66203e-319
2.79562e-319
2.93594e-319
3.08346e-319
3.2383e-319
3.40095e-319
3.5715e-319
3.75045e-319
3.9381e-319
4.13503e-319
4.34165e-319
4.55835e-319
4.78592e-319
9.61056e-320
9.61649e-320
9.61649e-320
9.61155e-320
9.60068e-320
9.58784e-320
9.57499e-320
9.56511e-320
9.55523e-320
9.5493e-320
9.54535e-320
9.54436e-320
9.55325e-320
9.58685e-320
9.66689e-320
9.77558e-320
9.83092e-320
9.77459e-320
9.66886e-320
9.5908e-320
1.16985e-319
1.22588e-319
1.28576e-319
1.3489e-319
1.4154e-319
1.48526e-319
1.55888e-319
1.63615e-319
1.71737e-319
1.80275e-319
1.89237e-319
1.98664e-319
2.08575e-319
2.1898e-319
2.29928e-319
2.4144e-319
2.53535e-319
2.66262e-319
2.79631e-319
2.93683e-319
3.08435e-319
3.23929e-319
3.40204e-319
3.57269e-319
3.75174e-319
3.93958e-319
4.13661e-319
4.34323e-319
4.56013e-319
4.78789e-319
9.61056e-320
9.61649e-320
9.61748e-320
9.61155e-320
9.60068e-320
9.58784e-320
9.57499e-320
9.56412e-320
9.55523e-320
9.5493e-320
9.54436e-320
9.54337e-320
9.55325e-320
9.58784e-320
9.66886e-320
9.77855e-320
9.83388e-320
9.77855e-320
9.67084e-320
9.5908e-320
1.16975e-319
1.22588e-319
1.28576e-319
1.349e-319
1.4154e-319
1.48536e-319
1.55888e-319
1.63625e-319
1.71757e-319
1.80294e-319
1.89267e-319
1.98693e-319
2.08604e-319
2.19029e-319
2.29978e-319
2.41499e-319
2.53604e-319
2.66331e-319
2.7971e-319
2.93771e-319
3.08534e-319
3.24048e-319
3.40322e-319
3.57407e-319
3.75322e-319
3.94116e-319
4.13829e-319
4.34511e-319
4.5621e-319
4.78997e-319
9.61056e-320
9.61649e-320
9.61847e-320
9.61254e-320
9.60068e-320
9.58784e-320
9.57499e-320
9.56412e-320
9.55523e-320
9.54831e-320
9.54337e-320
9.54337e-320
9.55227e-320
9.58883e-320
9.67084e-320
9.78151e-320
9.83685e-320
9.78151e-320
9.67183e-320
9.5908e-320
1.16955e-319
1.22588e-319
1.28576e-319
1.349e-319
1.4155e-319
1.48556e-319
1.55907e-319
1.63644e-319
1.71777e-319
1.80314e-319
1.89286e-319
1.98733e-319
2.08644e-319
2.19069e-319
2.30027e-319
2.41559e-319
2.53673e-319
2.664e-319
2.79799e-319
2.9387e-319
3.08653e-319
3.24166e-319
3.40451e-319
3.57545e-319
3.7548e-319
3.94284e-319
4.14007e-319
4.34709e-319
4.56418e-319
4.79224e-319
9.61155e-320
9.61748e-320
9.61847e-320
9.61254e-320
9.60167e-320
9.58883e-320
9.57499e-320
9.56412e-320
9.55523e-320
9.54831e-320
9.54337e-320
9.54238e-320
9.55128e-320
9.58883e-320
9.67381e-320
9.78448e-320
9.83981e-320
9.78448e-320
9.67381e-320
9.58883e-320
1.16935e-319
1.22568e-319
1.28576e-319
1.349e-319
1.4156e-319
1.48566e-319
1.55927e-319
1.63664e-319
1.71797e-319
1.80344e-319
1.89326e-319
1.98763e-319
2.08683e-319
2.19118e-319
2.30086e-319
2.41618e-319
2.53742e-319
2.66489e-319
2.79888e-319
2.93969e-319
3.08761e-319
3.24295e-319
3.40599e-319
3.57704e-319
3.75648e-319
3.94462e-319
4.14205e-319
4.34916e-319
4.56655e-319
4.79481e-319
9.61155e-320
9.61847e-320
9.61847e-320
9.61353e-320
9.60266e-320
9.58883e-320
9.57499e-320
9.56412e-320
9.55523e-320
9.54732e-320
9.54337e-320
9.5414e-320
9.55128e-320
9.58883e-320
9.67578e-320
9.78843e-320
9.84376e-320
9.78744e-320
9.67479e-320
9.58883e-320
1.16916e-319
1.22528e-319
1.28546e-319
1.3489e-319
1.4156e-319
1.48575e-319
1.55947e-319
1.63694e-319
1.71826e-319
1.80373e-319
1.89365e-319
1.98812e-319
2.08733e-319
2.19168e-319
2.30146e-319
2.41687e-319
2.53821e-319
2.66578e-319
2.79997e-319
2.94088e-319
3.0889e-319
3.24433e-319
3.40747e-319
3.57872e-319
3.75826e-319
3.9467e-319
4.14432e-319
4.35163e-319
4.56912e-319
4.79718e-319
9.61254e-320
9.61847e-320
9.62045e-320
9.61452e-320
9.60266e-320
9.58883e-320
9.57499e-320
9.56412e-320
9.55523e-320
9.54732e-320
9.54238e-320
9.5414e-320
9.55128e-320
9.58981e-320
9.67776e-320
9.79139e-320
9.84772e-320
9.7904e-320
9.67578e-320
9.58883e-320
1.16896e-319
1.22509e-319
1.28516e-319
1.3486e-319
1.4153e-319
1.48556e-319
1.55927e-319
1.63694e-319
1.71836e-319
1.80403e-319
1.89405e-319
1.98852e-319
2.08792e-319
2.19227e-319
2.30215e-319
2.41766e-319
2.5391e-319
2.66677e-319
2.80096e-319
2.94206e-319
3.09028e-319
3.24571e-319
3.40876e-319
3.5799e-319
3.75935e-319
3.94758e-319
4.14511e-319
4.35232e-319
4.56991e-319
4.79817e-319
9.61254e-320
9.61847e-320
9.62045e-320
9.61452e-320
9.60266e-320
9.58883e-320
9.57499e-320
9.56412e-320
9.55523e-320
9.54732e-320
9.5414e-320
9.54041e-320
9.55029e-320
9.5908e-320
9.67973e-320
9.79436e-320
9.85167e-320
9.79337e-320
9.67776e-320
9.58784e-320
1.16866e-319
1.22479e-319
1.28487e-319
1.34821e-319
1.415e-319
1.48516e-319
1.55888e-319
1.63654e-319
1.71797e-319
1.80354e-319
1.89346e-319
1.98802e-319
2.08743e-319
2.19187e-319
2.30175e-319
2.41717e-319
2.53861e-319
2.66618e-319
2.80027e-319
2.94107e-319
3.0891e-319
3.24423e-319
3.40727e-319
3.57812e-319
3.75747e-319
3.94541e-319
4.14274e-319
4.34975e-319
4.56685e-319
4.79422e-319
9.61254e-320
9.61946e-320
9.62045e-320
9.61452e-320
9.60365e-320
9.58883e-320
9.57598e-320
9.56412e-320
9.55523e-320
9.54732e-320
9.5414e-320
9.53942e-320
9.5493e-320
9.5908e-320
9.6827e-320
9.79831e-320
9.85562e-320
9.79633e-320
9.67875e-320
9.58685e-320
1.16837e-319
1.22449e-319
1.28457e-319
1.34801e-319
1.41461e-319
1.48477e-319
1.55858e-319
1.63605e-319
1.71747e-319
1.80304e-319
1.89286e-319
1.98743e-319
2.08674e-319
2.19118e-319
2.30096e-319
2.41638e-319
2.53762e-319
2.66519e-319
2.79918e-319
2.93989e-319
3.08771e-319
3.24275e-319
3.4055e-319
3.57624e-319
3.75529e-319
3.94314e-319
4.14007e-319
4.34679e-319
4.56339e-319
4.78997e-319
9.61254e-320
9.62045e-320
9.62143e-320
9.61649e-320
9.60464e-320
9.58981e-320
9.57598e-320
9.56412e-320
9.55523e-320
9.54732e-320
9.5414e-320
9.53942e-320
9.5493e-320
9.59278e-320
9.68566e-320
9.80226e-320
9.85957e-320
9.80029e-320
9.68072e-320
9.58685e-320
1.16817e-319
1.2242e-319
1.28418e-319
1.34761e-319
1.41431e-319
1.48447e-319
1.55818e-319
1.63555e-319
1.71698e-319
1.80255e-319
1.89237e-319
1.98674e-319
2.08604e-319
2.19039e-319
2.30007e-319
2.41539e-319
2.53663e-319
2.664e-319
2.79789e-319
2.9385e-319
3.08613e-319
3.24107e-319
3.40372e-319
3.57427e-319
3.75312e-319
3.94067e-319
4.13731e-319
4.34363e-319
4.55973e-319
4.78552e-319
9.61254e-320
9.62045e-320
9.62242e-320
9.61649e-320
9.60464e-320
9.5908e-320
9.57697e-320
9.56511e-320
9.55523e-320
9.54732e-320
9.5414e-320
9.53942e-320
9.5493e-320
9.59278e-320
9.68764e-320
9.80621e-320
9.86254e-320
9.80226e-320
9.68171e-320
9.58685e-320
1.16797e-319
1.2239e-319
1.28388e-319
1.34732e-319
1.41402e-319
1.48407e-319
1.55769e-319
1.63516e-319
1.71648e-319
1.80196e-319
1.89168e-319
1.98614e-319
2.08535e-319
2.1895e-319
2.29918e-319
2.4144e-319
2.53554e-319
2.66282e-319
2.79661e-319
2.93712e-319
3.08455e-319
3.23939e-319
3.40174e-319
3.57209e-319
3.75075e-319
3.938e-319
4.13434e-319
4.34027e-319
4.55578e-319
4.78078e-319
9.61254e-320
9.62045e-320
9.62242e-320
9.61748e-320
9.60562e-320
9.5908e-320
9.57697e-320
9.56511e-320
9.55523e-320
9.54732e-320
9.5414e-320
9.53942e-320
9.5493e-320
9.59475e-320
9.69159e-320
9.81017e-320
9.86649e-320
9.80621e-320
9.68369e-320
9.58685e-320
1.16777e-319
1.2235e-319
1.28358e-319
1.34702e-319
1.41362e-319
1.48368e-319
1.55729e-319
1.63467e-319
1.71599e-319
1.80136e-319
1.89109e-319
1.98535e-319
2.08446e-319
2.18871e-319
2.2982e-319
2.41331e-319
2.53436e-319
2.66153e-319
2.79523e-319
2.93554e-319
3.08287e-319
3.23751e-319
3.39976e-319
3.56982e-319
3.74818e-319
3.93513e-319
4.13118e-319
4.33671e-319
4.55163e-319
4.77593e-319
9.61353e-320
9.62242e-320
9.6244e-320
9.61847e-320
9.60661e-320
9.5908e-320
9.57697e-320
9.56511e-320
9.55523e-320
9.54732e-320
9.5414e-320
9.53843e-320
9.5493e-320
9.59574e-320
9.69357e-320
9.81412e-320
9.87143e-320
9.80918e-320
9.68566e-320
9.58685e-320
1.16748e-319
1.22331e-319
1.28319e-319
1.34663e-319
1.41323e-319
1.48328e-319
1.5569e-319
1.63417e-319
1.7154e-319
1.80077e-319
1.89039e-319
1.98456e-319
2.08357e-319
2.18772e-319
2.29721e-319
2.41223e-319
2.53317e-319
2.66025e-319
2.79364e-319
2.93386e-319
3.08099e-319
3.23554e-319
3.39749e-319
3.56735e-319
3.74541e-319
3.93217e-319
4.12782e-319
4.33286e-319
4.54738e-319
4.77099e-319
9.61452e-320
9.62242e-320
9.6244e-320
9.61847e-320
9.60661e-320
9.59179e-320
9.57697e-320
9.56511e-320
9.55523e-320
9.54732e-320
9.5414e-320
9.53843e-320
9.5493e-320
9.59673e-320
9.69653e-320
9.81807e-320
9.87538e-320
9.81214e-320
9.68764e-320
9.58586e-320
1.16728e-319
1.22291e-319
1.28289e-319
1.34623e-319
1.41283e-319
1.48279e-319
1.55641e-319
1.63368e-319
1.7148e-319
1.80008e-319
1.8897e-319
1.98377e-319
2.08278e-319
2.18673e-319
2.29602e-319
2.41104e-319
2.53179e-319
2.65876e-319
2.79206e-319
2.93218e-319
3.07912e-319
3.23336e-319
3.39512e-319
3.56478e-319
3.74245e-319
3.92891e-319
4.12426e-319
4.32881e-319
4.54283e-319
4.76586e-319
9.61452e-320
9.62242e-320
9.62539e-320
9.62045e-320
9.6076e-320
9.59278e-320
9.57796e-320
9.56511e-320
9.55523e-320
9.54732e-320
9.5414e-320
9.53843e-320
9.5493e-320
9.59871e-320
9.6995e-320
9.824e-320
9.87934e-320
9.8161e-320
9.68962e-320
9.58586e-320
1.16698e-319
1.22261e-319
1.28259e-319
1.34583e-319
1.41243e-319
1.48239e-319
1.55591e-319
1.63318e-319
1.71421e-319
1.79939e-319
1.88891e-319
1.98298e-319
2.0818e-319
2.18575e-319
2.29493e-319
2.40976e-319
2.53041e-319
2.65728e-319
2.79048e-319
2.9302e-319
3.07704e-319
3.23109e-319
3.39265e-319
3.56192e-319
3.73948e-319
3.92545e-319
4.12041e-319
4.32456e-319
4.53799e-319
4.76062e-319
9.61452e-320
9.6244e-320
9.62638e-320
9.62045e-320
9.60859e-320
9.59278e-320
9.57894e-320
9.5661e-320
9.55523e-320
9.54732e-320
9.5414e-320
9.53843e-320
9.55029e-320
9.5997e-320
9.70345e-320
9.82795e-320
9.88428e-320
9.82005e-320
9.69258e-320
9.58685e-320
1.16679e-319
1.22232e-319
1.2822e-319
1.34544e-319
1.41204e-319
1.482e-319
1.55542e-319
1.63259e-319
1.71362e-319
1.79879e-319
1.88812e-319
1.98219e-319
2.08081e-319
2.18466e-319
2.29375e-319
2.40847e-319
2.52902e-319
2.6556e-319
2.78861e-319
2.92823e-319
3.07487e-319
3.22862e-319
3.38988e-319
3.55895e-319
3.73612e-319
3.92179e-319
4.11636e-319
4.32001e-319
4.53295e-319
4.75509e-319
9.61452e-320
9.6244e-320
9.62736e-320
9.62242e-320
9.60958e-320
9.59377e-320
9.57894e-320
9.56709e-320
9.55622e-320
9.54732e-320
9.5414e-320
9.53843e-320
9.55128e-320
9.60068e-320
9.70641e-320
9.83191e-320
9.88922e-320
9.824e-320
9.69554e-320
9.58685e-320
1.16659e-319
1.22202e-319
1.2818e-319
1.34514e-319
1.41164e-319
1.4816e-319
1.55492e-319
1.632e-319
1.71302e-319
1.798e-319
1.88733e-319
1.9812e-319
2.07982e-319
2.18357e-319
2.29246e-319
2.40709e-319
2.52744e-319
2.65392e-319
2.78673e-319
2.92625e-319
3.0725e-319
3.22605e-319
3.38712e-319
3.55579e-319
3.73257e-319
3.91794e-319
4.11201e-319
4.31517e-319
4.52772e-319
4.74916e-319
9.61452e-320
9.6244e-320
9.62835e-320
9.62242e-320
9.61056e-320
9.59475e-320
9.57993e-320
9.56709e-320
9.55721e-320
9.54732e-320
9.5414e-320
9.53843e-320
9.55128e-320
9.60266e-320
9.70938e-320
9.83685e-320
9.89317e-320
9.82795e-320
9.69752e-320
9.58685e-320
1.16639e-319
1.22173e-319
1.28151e-319
1.34475e-319
1.41125e-319
1.48101e-319
1.55443e-319
1.6314e-319
1.71233e-319
1.79721e-319
1.88654e-319
1.98022e-319
2.07883e-319
2.18239e-319
2.29118e-319
2.40551e-319
2.52586e-319
2.65214e-319
2.78475e-319
2.92398e-319
3.07012e-319
3.22328e-319
3.38395e-319
3.55243e-319
3.72881e-319
3.91379e-319
4.10746e-319
4.31023e-319
4.52208e-319
4.74303e-319
9.61551e-320
9.62638e-320
9.62934e-320
9.6244e-320
9.61056e-320
9.59574e-320
9.58092e-320
9.56709e-320
9.55721e-320
9.54831e-320
9.5414e-320
9.53843e-320
9.55128e-320
9.60464e-320
9.71333e-320
9.84179e-320
9.89811e-320
9.83388e-320
9.70048e-320
9.58685e-320
1.16619e-319
1.22133e-319
1.28111e-319
1.34435e-319
1.41085e-319
1.48062e-319
1.55394e-319
1.63081e-319
1.71164e-319
1.79652e-319
1.88565e-319
1.97923e-319
2.07764e-319
2.1811e-319
2.2898e-319
2.40402e-319
2.52408e-319
2.65017e-319
2.78258e-319
2.92171e-319
3.06755e-319
3.22052e-319
3.38079e-319
3.54887e-319
3.72496e-319
3.90944e-319
4.10252e-319
4.30489e-319
4.51625e-319
4.73661e-319
9.61649e-320
9.62638e-320
9.63033e-320
9.6244e-320
9.61254e-320
9.59673e-320
9.58092e-320
9.56808e-320
9.55721e-320
9.5493e-320
9.5414e-320
9.53942e-320
9.55227e-320
9.60661e-320
9.71728e-320
9.84574e-320
9.90305e-320
9.83784e-320
9.70345e-320
9.58883e-320
1.16599e-319
1.22113e-319
1.28082e-319
1.34396e-319
1.41046e-319
1.48012e-319
1.55334e-319
1.63022e-319
1.71095e-319
1.79563e-319
1.88476e-319
1.97824e-319
2.07646e-319
2.17982e-319
2.28831e-319
2.40234e-319
2.5223e-319
2.64819e-319
2.7804e-319
2.91914e-319
3.06479e-319
3.21736e-319
3.37743e-319
3.54512e-319
3.72071e-319
3.9047e-319
4.09748e-319
4.29916e-319
4.51003e-319
4.72979e-319
9.61649e-320
9.62736e-320
9.63132e-320
9.62638e-320
9.61254e-320
9.59673e-320
9.58191e-320
9.56906e-320
9.55819e-320
9.5493e-320
9.54238e-320
9.53942e-320
9.55325e-320
9.60859e-320
9.72124e-320
9.85167e-320
9.90898e-320
9.84376e-320
9.7074e-320
9.58883e-320
1.1658e-319
1.22074e-319
1.28042e-319
1.34356e-319
1.40996e-319
1.47963e-319
1.55275e-319
1.62963e-319
1.71026e-319
1.79484e-319
1.88377e-319
1.97715e-319
2.07527e-319
2.17843e-319
2.28673e-319
2.40076e-319
2.52033e-319
2.64602e-319
2.77803e-319
2.91657e-319
3.06182e-319
3.21419e-319
3.37388e-319
3.54117e-319
3.71636e-319
3.89996e-319
4.09205e-319
4.29323e-319
4.50351e-319
4.72258e-319
9.61649e-320
9.62835e-320
9.6323e-320
9.62638e-320
9.61452e-320
9.59871e-320
9.5829e-320
9.56906e-320
9.55918e-320
9.55029e-320
9.54337e-320
9.53942e-320
9.55325e-320
9.61056e-320
9.72519e-320
9.85661e-320
9.91491e-320
9.8487e-320
9.71135e-320
9.58981e-320
1.1657e-319
1.22044e-319
1.28003e-319
1.34317e-319
1.40947e-319
1.47913e-319
1.55216e-319
1.62893e-319
1.70947e-319
1.79405e-319
1.88279e-319
1.97606e-319
2.07409e-319
2.17705e-319
2.28515e-319
2.39889e-319
2.51835e-319
2.64384e-319
2.77556e-319
2.9138e-319
3.05886e-319
3.21083e-319
3.37012e-319
3.53692e-319
3.71172e-319
3.89472e-319
4.08632e-319
4.28691e-319
4.49649e-319
4.71497e-319
9.61649e-320
9.62835e-320
9.63329e-320
9.62835e-320
9.61551e-320
9.59871e-320
9.5829e-320
9.57104e-320
9.55918e-320
9.55128e-320
9.54337e-320
9.53942e-320
9.55523e-320
9.61254e-320
9.72914e-320
9.86155e-320
9.92084e-320
9.85365e-320
9.71531e-320
9.5908e-320
1.1656e-319
1.22014e-319
1.27963e-319
1.34277e-319
1.40908e-319
1.47864e-319
1.55166e-319
1.62824e-319
1.70868e-319
1.79306e-319
1.8818e-319
1.97488e-319
2.0727e-319
2.17547e-319
2.28357e-319
2.39701e-319
2.51628e-319
2.64147e-319
2.77289e-319
2.91084e-319
3.0555e-319
3.20728e-319
3.36617e-319
3.53257e-319
3.70688e-319
3.88928e-319
4.08039e-319
4.28019e-319
4.48918e-319
4.70686e-319
9.61649e-320
9.62934e-320
9.63428e-320
9.62934e-320
9.61649e-320
9.60068e-320
9.58487e-320
9.57104e-320
9.56116e-320
9.55128e-320
9.54337e-320
9.5414e-320
9.55622e-320
9.61551e-320
9.73408e-320
9.86748e-320
9.92677e-320
9.86056e-320
9.71926e-320
9.59278e-320
1.1654e-319
1.21985e-319
1.27933e-319
1.34238e-319
1.40868e-319
1.47815e-319
1.55107e-319
1.62765e-319
1.70789e-319
1.79217e-319
1.88071e-319
1.97369e-319
2.07132e-319
2.17389e-319
2.28179e-319
2.39503e-319
2.514e-319
2.639e-319
2.77023e-319
2.90787e-319
3.05214e-319
3.20352e-319
3.36192e-319
3.52793e-319
3.70174e-319
3.88355e-319
4.07407e-319
4.27327e-319
4.48147e-319
4.69847e-319
9.61748e-320
9.63033e-320
9.63527e-320
9.63033e-320
9.61748e-320
9.60068e-320
9.58487e-320
9.57203e-320
9.56116e-320
9.55227e-320
9.54535e-320
9.5414e-320
9.55721e-320
9.61847e-320
9.73803e-320
9.87341e-320
9.9327e-320
9.86748e-320
9.72321e-320
9.59475e-320
1.1652e-319
1.21955e-319
1.27894e-319
1.34198e-319
1.40819e-319
1.47765e-319
1.55038e-319
1.62686e-319
1.7071e-319
1.79128e-319
1.87962e-319
1.97241e-319
2.06994e-319
2.17231e-319
2.27992e-319
2.39296e-319
2.51173e-319
2.63643e-319
2.76736e-319
2.90461e-319
3.04858e-319
3.19947e-319
3.35747e-319
3.52298e-319
3.6962e-319
3.87762e-319
4.06735e-319
4.26586e-319
4.47327e-319
4.68957e-319
9.61748e-320
9.63033e-320
9.63626e-320
9.6323e-320
9.61847e-320
9.60266e-320
9.58685e-320
9.57302e-320
9.56313e-320
9.55325e-320
9.54535e-320
9.54238e-320
9.55918e-320
9.62045e-320
9.74297e-320
9.87934e-320
9.93961e-320
9.87341e-320
9.72914e-320
9.59673e-320
1.1652e-319
1.21935e-319
1.27864e-319
1.34149e-319
1.40769e-319
1.47706e-319
1.54979e-319
1.62617e-319
1.70621e-319
1.7903e-319
1.87844e-319
1.97112e-319
2.06836e-319
2.17063e-319
2.27804e-319
2.39088e-319
2.50926e-319
2.63377e-319
2.7643e-319
2.90125e-319
3.04483e-319
3.19522e-319
3.35293e-319
3.51785e-319
3.69047e-319
3.8712e-319
4.06023e-319
4.25806e-319
4.46477e-319
4.68019e-319
9.61847e-320
9.6323e-320
9.63823e-320
9.6323e-320
9.62045e-320
9.60266e-320
9.58685e-320
9.574e-320
9.56313e-320
9.55424e-320
9.54634e-320
9.54337e-320
9.56017e-320
9.6244e-320
9.74693e-320
9.88527e-320
9.94653e-320
9.88131e-320
9.73408e-320
9.59871e-320
1.16501e-319
1.21896e-319
1.27825e-319
1.34109e-319
1.4073e-319
1.47656e-319
1.54919e-319
1.62548e-319
1.70532e-319
1.78931e-319
1.87725e-319
1.96974e-319
2.06678e-319
2.16885e-319
2.27596e-319
2.38851e-319
2.50669e-319
2.6308e-319
2.76104e-319
2.8976e-319
3.04088e-319
3.19087e-319
3.34799e-319
3.51241e-319
3.68454e-319
3.86458e-319
4.05292e-319
4.24995e-319
4.45578e-319
4.6703e-319
9.61847e-320
9.6323e-320
9.63823e-320
9.63428e-320
9.62045e-320
9.60464e-320
9.58883e-320
9.57499e-320
9.56511e-320
9.55523e-320
9.54732e-320
9.54436e-320
9.56116e-320
9.62638e-320
9.75187e-320
9.89119e-320
9.95443e-320
9.88922e-320
9.74001e-320
9.60167e-320
1.16501e-319
1.21876e-319
1.27785e-319
1.3407e-319
1.4068e-319
1.47607e-319
1.5486e-319
1.62469e-319
1.70453e-319
1.78812e-319
1.87607e-319
1.96836e-319
2.06519e-319
2.16697e-319
2.27389e-319
2.38614e-319
2.50412e-319
2.62784e-319
2.75768e-319
2.89394e-319
3.03673e-319
3.18623e-319
3.34285e-319
3.50668e-319
3.67812e-319
3.85747e-319
4.04511e-319
4.24136e-319
4.44639e-319
4.65993e-319
9.61847e-320
9.63329e-320
9.64021e-320
9.63626e-320
9.62242e-320
9.60562e-320
9.58883e-320
9.57697e-320
9.56511e-320
9.55721e-320
9.5493e-320
9.54535e-320
9.56313e-320
9.63033e-320
9.75681e-320
9.89811e-320
9.96234e-320
9.89712e-320
9.74693e-320
9.60464e-320
1.16501e-319
1.21856e-319
1.27746e-319
1.3403e-319
1.40631e-319
1.47548e-319
1.54791e-319
1.62389e-319
1.70354e-319
1.78713e-319
1.87478e-319
1.96688e-319
2.06351e-319
2.165e-319
2.27171e-319
2.38367e-319
2.50126e-319
2.62467e-319
2.75412e-319
2.88999e-319
3.03228e-319
3.18139e-319
3.33731e-319
3.50055e-319
3.6714e-319
3.85006e-319
4.03691e-319
4.23236e-319
4.43631e-319
4.64896e-319
9.61847e-320
9.63428e-320
9.6412e-320
9.63626e-320
9.62341e-320
9.60661e-320
9.5908e-320
9.57697e-320
9.56709e-320
9.55819e-320
9.5493e-320
9.54732e-320
9.56511e-320
9.63329e-320
9.76274e-320
9.90503e-320
9.97024e-320
9.90503e-320
9.75286e-320
9.60859e-320
1.16501e-319
1.21827e-319
1.27726e-319
1.33991e-319
1.40591e-319
1.47488e-319
1.54722e-319
1.6231e-319
1.70255e-319
1.78595e-319
1.8735e-319
1.96539e-319
2.06174e-319
2.16302e-319
2.26934e-319
2.381e-319
2.49829e-319
2.62131e-319
2.75046e-319
2.88574e-319
3.02763e-319
3.17615e-319
3.33158e-319
3.49423e-319
3.66439e-319
3.84225e-319
4.02822e-319
4.22278e-319
4.42584e-319
4.6375e-319
9.61847e-320
9.63428e-320
9.64219e-320
9.63823e-320
9.6244e-320
9.6076e-320
9.59179e-320
9.57894e-320
9.56808e-320
9.55918e-320
9.55128e-320
9.54831e-320
9.56709e-320
9.63724e-320
9.76768e-320
9.91293e-320
9.98013e-320
9.91491e-320
9.76076e-320
9.61155e-320
1.16501e-319
1.21807e-319
1.27686e-319
1.33951e-319
1.40542e-319
1.47439e-319
1.54662e-319
1.62231e-319
1.70156e-319
1.78486e-319
1.87211e-319
1.96371e-319
2.05986e-319
2.16085e-319
2.26697e-319
2.37823e-319
2.49523e-319
2.61786e-319
2.74651e-319
2.88139e-319
3.02269e-319
3.17072e-319
3.32556e-319
3.48751e-319
3.65688e-319
3.83405e-319
4.01913e-319
4.2128e-319
4.41487e-319
4.62544e-319
9.61847e-320
9.63527e-320
9.64317e-320
9.63922e-320
9.62638e-320
9.60859e-320
9.59278e-320
9.57993e-320
9.56906e-320
9.56116e-320
9.55325e-320
9.5493e-320
9.56906e-320
9.6412e-320
9.77361e-320
9.92084e-320
9.98902e-320
9.9238e-320
9.76768e-320
9.61649e-320
1.16501e-319
1.21787e-319
1.27647e-319
1.33912e-319
1.40493e-319