/*--------------------------------*- C++ -*----------------------------------*\
  =========                 |
  \\      /  F ield         | OpenFOAM: The Open Source CFD Toolbox
   \\    /   O peration     | Website:  https://openfoam.org
    \\  /    A nd           | Version:  9
     \\/     M anipulation  |
\*---------------------------------------------------------------------------*/
FoamFile
{
    format      ascii;
    class       volScalarField;
    location    "0.14";
    object      p_rgh;
}
// * * * * * * * * * * * * * * * * * * * * * * * * * * * * * * * * * * * * * //

dimensions      [1 -1 -2 0 0 0 0];

internalField   nonuniform List<scalar> 
5000
(
-0.00914621
-0.00877514
-0.00885116
-0.00946456
-0.0105375
-0.0118667
-0.0132261
-0.0144392
-0.0153774
-0.0159206
-0.0159323
-0.0151729
-0.0132485
-0.00953938
-0.00407689
0.000107907
0.000454295
-0.00046564
-0.00521081
-0.0109871
-0.0145111
-0.0162977
-0.0171625
-0.0174466
-0.0173381
-0.0169543
-0.0163745
-0.0156546
-0.0148339
-0.01394
-0.0129931
-0.0120093
-0.0110024
-0.00998508
-0.00896976
-0.007969
-0.00699544
-0.00606163
-0.00517941
-0.00435921
-0.00360931
-0.00293511
-0.00233885
-0.00181958
-0.0013737
-0.000995782
-0.000679737
-0.000419523
-0.000208884
-4.63821e-05
-0.00212864
-0.00185114
-0.00186879
-0.00221391
-0.00284557
-0.00365953
-0.00452015
-0.00529345
-0.00585847
-0.0060956
-0.00587544
-0.00502752
-0.00338594
-0.00091047
0.00196321
0.00366077
0.00328247
0.00272534
0.000205121
-0.00326471
-0.00593948
-0.00773597
-0.00891111
-0.00959772
-0.00992092
-0.00997718
-0.00983424
-0.00954247
-0.00913932
-0.00865335
-0.00810704
-0.00751875
-0.0069041
-0.00627685
-0.00564936
-0.00503283
-0.00443715
-0.00387076
-0.00334033
-0.0028505
-0.00240385
-0.00200087
-0.00164029
-0.00131946
-0.00103484
-0.000782594
-0.000559184
-0.000361658
-0.000187557
-4.21837e-05
0.00309825
0.0034073
0.00347668
0.00328452
0.00286229
0.00228958
0.0016722
0.00111861
0.000730897
0.000609794
0.000858738
0.00157503
0.00282843
0.00457076
0.00653379
0.00767505
0.00721367
0.00662182
0.00442994
0.00156686
-0.000722777
-0.00239845
-0.00363277
-0.0044892
-0.00504188
-0.00535396
-0.00548018
-0.00546324
-0.00533623
-0.00512545
-0.00485207
-0.00453352
-0.00418451
-0.00381763
-0.00344373
-0.00307209
-0.00271047
-0.00236513
-0.00204077
-0.00174063
-0.00146651
-0.001219
-0.000997632
-0.000801166
-0.000627832
-0.000475558
-0.000342144
-0.000225304
-0.000122406
-3.51037e-05
0.0081606
0.00853839
0.00870328
0.00863463
0.008361
0.00795253
0.00749924
0.00709063
0.00680953
0.00673469
0.00694156
0.00748773
0.00841615
0.00969006
0.01118
0.0121116
0.0116294
0.0108836
0.00867533
0.00600811
0.00388242
0.00226732
0.000997096
2.43808e-05
-0.000699046
-0.00121476
-0.00156394
-0.00178062
-0.0018924
-0.00192194
-0.0018878
-0.00180542
-0.00168778
-0.00154591
-0.00138918
-0.00122552
-0.00106151
-0.000902521
-0.000752756
-0.000615319
-0.000492288
-0.000384798
-0.000293141
-0.000216889
-0.000155032
-0.000106119
-6.83799e-05
-3.9724e-05
-1.77478e-05
-3.78743e-06
0.0136465
0.014097
0.0143614
0.0144262
0.0143138
0.0140787
0.0137912
0.0135229
0.0133404
0.0133048
0.0134712
0.0138757
0.0145393
0.0153914
0.0163309
0.016861
0.0162509
0.0154311
0.0133863
0.010979
0.00895371
0.007319
0.00595417
0.00483082
0.00391727
0.00318287
0.00259786
0.00213564
0.00177373
0.00149316
0.00127797
0.00111466
0.000991798
0.000899633
0.000829916
0.000775699
0.000731217
0.000691797
0.000653787
0.000614487
0.000572075
0.000525517
0.000474455
0.000419083
0.000360005
0.000298073
0.000234251
0.000169595
0.00010519
3.68829e-05
0.0193794
0.0199096
0.020278
0.0204781
0.020526
0.0204595
0.0203296
0.0201915
0.0200976
0.0200949
0.0202226
0.0204982
0.0209217
0.0213872
0.0217939
0.0218886
0.0211127
0.0202457
0.0183856
0.0162044
0.0142299
0.0125374
0.0110472
0.00975032
0.00863078
0.00766753
0.00683922
0.00612569
0.00550904
0.00497358
0.00450579
0.00409399
0.00372821
0.00339989
0.00310181
0.00282793
0.00257329
0.00233389
0.00210665
0.00188929
0.00168017
0.00147827
0.00128296
0.00109396
0.00091116
0.000734581
0.000564238
0.000400251
0.000242675
8.31206e-05
0.0251362
0.0257577
0.026233
0.0265588
0.0267466
0.0268226
0.0268235
0.0267907
0.0267639
0.0267776
0.0268576
0.0270053
0.0272115
0.0273689
0.0273822
0.0271529
0.0262321
0.0252702
0.0234683
0.0213739
0.0193825
0.0176115
0.0159905
0.0145205
0.0131985
0.0120129
0.0109494
0.00999357
0.00913162
0.00835097
0.00764048
0.00699036
0.00639209
0.00583834
0.00532288
0.00484047
0.00438675
0.00395819
0.00355194
0.00316574
0.0027978
0.00244674
0.00211144
0.00179099
0.00148466
0.00119178
0.000911769
0.000644284
0.00038891
0.000132688
0.0308817
0.0316049
0.0321891
0.0326316
0.0329405
0.0331348
0.0332413
0.0332901
0.0333104
0.0333255
0.0333508
0.0333775
0.0333961
0.0333183
0.0330565
0.0325925
0.0315595
0.0304601
0.0286109
0.0264836
0.0244127
0.0225374
0.0207763
0.0191334
0.0176139
0.0162137
0.0149243
0.0137362
0.0126393
0.0116241
0.0106816
0.00980399
0.00898412
0.00821578
0.00749359
0.00681292
0.00616982
0.00556092
0.00498338
0.00443477
0.00391304
0.00341642
0.00294339
0.00249261
0.00206291
0.00165323
0.00126262
0.000890475
0.000536218
0.000182412
0.0366656
0.0374975
0.0381925
0.0387477
0.0391684
0.0394679
0.0396652
0.0397815
0.0398372
0.0398467
0.0398185
0.039738
0.0395964
0.0393258
0.0388464
0.0381834
0.0370406
0.035792
0.0338542
0.0316331
0.0294411
0.0274344
0.0255156
0.023691
0.0219712
0.0203569
0.0188442
0.0174276
0.0161002
0.0148553
0.0136861
0.0125862
0.0115499
0.010572
0.00964774
0.00877301
0.00794411
0.00715779
0.00641117
0.0057017
0.00502714
0.00438547
0.00377486
0.00319368
0.00264042
0.00211372
0.00161227
0.00113522
0.000681821
0.000230892
0.042516
0.0434619
0.0442697
0.0449365
0.0454649
0.0458635
0.0461443
0.0463212
0.0464073
0.04641
0.0463333
0.0461595
0.0458786
0.0454383
0.0447679
0.0439223
0.0426524
0.0412576
0.0392159
0.0368696
0.0345303
0.0323696
0.0302752
0.0282569
0.0263292
0.0244963
0.0227582
0.0211122
0.0195546
0.0180807
0.0166857
0.0153648
0.0141134
0.012927
0.0118016
0.0107335
0.0097193
0.00875579
0.00784012
0.0069697
0.00614211
0.0053551
0.00460658
0.00389457
0.00321718
0.00257261
0.00195908
0.00137526
0.000819826
0.000267746
0.0484294
0.0494939
0.0504169
0.051195
0.0518287
0.0523222
0.0526819
0.0529156
0.0530298
0.0530269
0.0529069
0.0526507
0.0522468
0.051655
0.050814
0.0497995
0.0483985
0.0468542
0.0446905
0.0421924
0.039684
0.0373515
0.035067
0.0328444
0.0307013
0.0286448
0.0266776
0.0248002
0.0230111
0.0213076
0.0196866
0.0181446
0.016678
0.0152832
0.0139568
0.0126954
0.0114958
0.0103551
0.00927037
0.00823895
0.00725828
0.0063259
0.00543943
0.00459657
0.00379512
0.00303293
0.00230796
0.00161861
0.000963498
0.000314979
0.0543979
0.0555858
0.0566265
0.0575162
0.0582536
0.0588391
0.0592746
0.0595624
0.059704
0.0596972
0.059539
0.0592097
0.0586967
0.0579705
0.0569786
0.0558089
0.0542798
0.0525796
0.0502736
0.0475982
0.0449005
0.0423804
0.039894
0.0374581
0.0350927
0.0328074
0.0306077
0.0284964
0.0264741
0.0245399
0.0226921
0.0209284
0.0192463
0.0176428
0.0161151
0.0146602
0.0132751
0.011957
0.010703
0.00951048
0.00837663
0.0072988
0.00627436
0.00530071
0.00437532
0.00349571
0.00265948
0.00186471
0.00110956
0.000363243
0.0604222
0.0617381
0.0628996
0.0639024
0.0647433
0.0654198
0.0659297
0.0662708
0.0664405
0.0664327
0.0662417
0.0658479
0.0652379
0.0643917
0.063265
0.0619506
0.0602946
0.0584332
0.0559691
0.053096
0.0501912
0.0474693
0.0447693
0.0421111
0.0395164
0.0369969
0.0345606
0.0322122
0.0299541
0.0277872
0.025711
0.0237244
0.0218256
0.0200125
0.0182825
0.0166331
0.0150617
0.0135654
0.0121415
0.0107872
0.00949958
0.00827579
0.0071129
0.006008
0.00495821
0.00396068
0.00301265
0.00211185
0.00125608
0.000411283
0.0665074
0.0679561
0.0692424
0.0703609
0.071307
0.0720754
0.0726604
0.073056
0.0732559
0.073251
0.0730331
0.0725832
0.0718869
0.0709314
0.069681
0.0682287
0.0664442
0.0644186
0.0617854
0.0586994
0.0555724
0.0526354
0.0497106
0.0468208
0.043989
0.0412291
0.0385509
0.0359613
0.0334641
0.0310615
0.0287544
0.0265426
0.024425
0.0224002
0.0204661
0.0186206
0.0168612
0.0151853
0.0135901
0.0120727
0.0106302
0.00925935
0.00795702
0.00671995
0.00554489
0.00442861
0.00336799
0.00236046
0.00140349
0.000459268
0.072658
0.0742449
0.0756606
0.0768989
0.0779532
0.0788161
0.0794785
0.0799313
0.0801649
0.0801676
0.0799291
0.0794308
0.0786572
0.0776011
0.0762343
0.0746489
0.0727343
0.0705424
0.0677311
0.0644205
0.0610577
0.0578935
0.0547331
0.0516022
0.0485251
0.0455178
0.042592
0.039756
0.0370152
0.0343732
0.0318318
0.0293916
0.0270523
0.0248131
0.0226724
0.0206284
0.0186788
0.0168211
0.0150526
0.0133704
0.0117712
0.0102517
0.00880846
0.00743783
0.00613623
0.00490008
0.00372585
0.0026107
0.00155174
0.000506977
0.0788772
0.0806082
0.0821588
0.0835215
0.0846885
0.0856496
0.0863931
0.0869069
0.0871787
0.0871943
0.0869416
0.0864022
0.0855594
0.0844101
0.0829328
0.0812183
0.0791724
0.0768124
0.073815
0.0702701
0.0666581
0.0632555
0.0598493
0.0564679
0.0531373
0.0498753
0.0466954
0.0436074
0.0406181
0.037732
0.0349521
0.0322796
0.0297151
0.0272581
0.0249077
0.0226621
0.0205194
0.0184773
0.0165329
0.0146833
0.012925
0.0112545
0.00966813
0.00816188
0.0067319
0.00537427
0.00408512
0.00286135
0.00169971
0.000553702
0.0851677
0.0870495
0.088741
0.0902339
0.0915185
0.0925827
0.0934121
0.0939919
0.0943071
0.0943416
0.0940812
0.0935078
0.0926034
0.0913675
0.0897849
0.0879455
0.0857675
0.0832377
0.0800472
0.0762593
0.0723855
0.068734
0.0650721
0.0614312
0.0578388
0.0543146
0.0508737
0.0475274
0.0442838
0.0411485
0.038125
0.0352157
0.0324217
0.0297429
0.0271788
0.024728
0.0223888
0.0201587
0.0180351
0.0160146
0.0140939
0.0122691
0.0105362
0.00889122
0.00733001
0.00584851
0.00444272
0.00310941
0.00184508
0.000598392
0.0915331
0.0935726
0.0954117
0.0970411
0.0984494
0.0996225
0.100544
0.101195
0.10156
0.10162
0.101359
0.100759
0.0998
0.098484
0.0968005
0.0948404
0.0925294
0.089828
0.0864399
0.0823997
0.0782538
0.074343
0.0704159
0.0665067
0.062644
0.0588497
0.0551406
0.0515292
0.0480248
0.044634
0.0413615
0.03821
0.0351813
0.032276
0.0294938
0.0268335
0.0242935
0.0218714
0.0195642
0.0173686
0.0152809
0.0132969
0.0114125
0.00962355
0.00792585
0.00631546
0.00478871
0.0033433
0.00197718
0.000634945
0.0979771
0.100182
0.102176
0.103948
0.105487
0.106776
0.107796
0.108526
0.108947
0.10904
0.108786
0.108166
0.107161
0.105771
0.103993
0.101912
0.0994695
0.0965943
0.093007
0.0887041
0.0842776
0.0800983
0.0758963
0.0717097
0.0675683
0.0634957
0.0595104
0.0556263
0.051854
0.048201
0.0446728
0.0412731
0.0380042
0.034867
0.0318616
0.028987
0.0262414
0.0236225
0.021127
0.0187511
0.0164909
0.0143417
0.0122991
0.0103587
0.00851624
0.00676809
0.00511097
0.00354408
0.00207356
0.000657176
0.104503
0.106881
0.109038
0.110961
0.112638
0.114051
0.115176
0.115993
0.11648
0.116613
0.116374
0.115743
0.114698
0.11324
0.111372
0.109174
0.106601
0.103551
0.0997611
0.0951863
0.0904715
0.0860149
0.081529
0.077056
0.0726269
0.0682674
0.0639975
0.0598325
0.0557844
0.0518617
0.0480708
0.0444162
0.0409006
0.0375257
0.0342915
0.0311973
0.0282413
0.0254206
0.0227319
0.0201707
0.0177324
0.0154115
0.0132024
0.0110987
0.00909429
0.00718238
0.00535437
0.0035946
0.00189019
0.000316267
0.111115
0.113674
0.116002
0.118085
0.119909
0.121453
0.122694
0.123606
0.124167
0.12435
0.124135
0.1235
0.122423
0.120904
0.11895
0.116641
0.113939
0.110713
0.106715
0.101861
0.0968503
0.0921079
0.0873292
0.0825607
0.0778346
0.0731791
0.0686155
0.064161
0.0598285
0.055628
0.0515667
0.04765
0.0438812
0.0402622
0.0367934
0.0334741
0.0303025
0.0272756
0.0243895
0.0216398
0.019021
0.0165272
0.014152
0.0118884
0.00972926
0.00766804
0.00569744
0.00379496
0.00191638
0.000281714
0.117817
0.120566
0.123074
0.125326
0.127306
0.128992
0.130357
0.131375
0.132019
0.132263
0.132081
0.131452
0.130351
0.128777
0.126743
0.124326
0.121495
0.118095
0.113883
0.108744
0.103429
0.0983921
0.0933116
0.0882381
0.0832056
0.0782445
0.0733778
0.0686245
0.0639988
0.0595119
0.0551722
0.0509856
0.0469562
0.0430863
0.0393766
0.0358264
0.0324339
0.0291961
0.0261093
0.0231688
0.0203695
0.0177057
0.0151718
0.0127621
0.010471
0.00829511
0.00623434
0.00428004
0.00237739
0.000586668
0.124611
0.127561
0.130259
0.13269
0.134837
0.136675
0.138176
0.13931
0.140049
0.140363
0.140225
0.139611
0.138494
0.136872
0.134765
0.132243
0.129285
0.125714
0.121282
0.115851
0.110223
0.104882
0.0994906
0.0941021
0.0887533
0.0834766
0.0782971
0.0732354
0.0683072
0.0635251
0.0588983
0.0544337
0.0501359
0.0460076
0.0420498
0.0382619
0.0346422
0.0311878
0.027895
0.0247591
0.0217751
0.0189373
0.01624
0.0136772
0.0112426
0.0089303
0.00673747
0.0046575
0.00264849
0.000735733
0.131501
0.134662
0.137562
0.140183
0.142508
0.14451
0.146159
0.147422
0.148267
0.148663
0.14858
0.147991
0.146867
0.145206
0.14303
0.140409
0.137324
0.133584
0.128927
0.123198
0.117248
0.111594
0.105881
0.100167
0.0944912
0.0888886
0.0833861
0.0780061
0.0727659
0.0676792
0.0627563
0.0580048
0.0534299
0.0490348
0.0448206
0.0407871
0.0369324
0.0332539
0.0297475
0.0264085
0.0232315
0.0202102
0.0173383
0.014609
0.0120151
0.00954904
0.0072061
0.00498152
0.00284467
0.000817558
0.13849
0.141875
0.144988
0.147812
0.150327
0.152507
0.154317
0.155721
0.156686
0.157176
0.157159
0.156606
0.155486
0.153794
0.151555
0.14884
0.145629
0.141722
0.136835
0.130801
0.12452
0.118543
0.112497
0.106447
0.100434
0.0944943
0.0886583
0.0829496
0.0773872
0.0719859
0.0667571
0.061709
0.0568476
0.0521762
0.0476964
0.0434081
0.0393097
0.0353982
0.0316696
0.0281189
0.0247401
0.0215269
0.0184722
0.0155688
0.0128094
0.0101862
0.00769289
0.0053246
0.00305789
0.000908293
0.145581
0.149202
0.152542
0.155582
0.158303
0.160674
0.162659
0.164219
0.165317
0.165915
0.165978
0.165472
0.164366
0.162651
0.160357
0.157552
0.154218
0.150144
0.145023
0.13868
0.132057
0.125745
0.119356
0.112958
0.106596
0.100309
0.0941282
0.0880798
0.0821843
0.0764577
0.0709122
0.0655569
0.0603983
0.0554403
0.0506847
0.0461317
0.0417797
0.0376259
0.033666
0.0298949
0.0263064
0.0228937
0.0196494
0.016566
0.0136357
0.0108507
0.0082035
0.00568775
0.00328578
0.00100801
0.152777
0.156648
0.160229
0.163501
0.166441
0.169019
0.171195
0.172926
0.174173
0.174893
0.175048
0.174603
0.173522
0.171795
0.169453
0.166565
0.163111
0.158868
0.153512
0.146852
0.139877
0.133221
0.126476
0.11972
0.112996
0.106349
0.0998119
0.093412
0.0871715
0.0811075
0.0752335
0.0695593
0.0640918
0.0588358
0.0537933
0.0489649
0.0443491
0.0399431
0.0357426
0.0317422
0.0279355
0.0243153
0.0208739
0.0176031
0.0144947
0.0115407
0.00873275
0.00606349
0.00351895
0.00110733
0.16008
0.164216
0.168054
0.171573
0.17475
0.177551
0.179934
0.181853
0.183264
0.184122
0.184385
0.184014
0.182972
0.181244
0.178863
0.175897
0.172326
0.167916
0.162321
0.155339
0.148001
0.14099
0.133879
0.12675
0.119654
0.112634
0.105727
0.0989621
0.0923634
0.085949
0.0797334
0.0737273
0.0679385
0.0623721
0.057031
0.0519157
0.0470252
0.0423565
0.0379053
0.033666
0.0296319
0.0257952
0.0221479
0.0186813
0.0153866
0.0122552
0.00927865
0.00644863
0.00375328
0.00120081
0.167493
0.171911
0.176022
0.179805
0.183236
0.186278
0.188886
0.191011
0.192603
0.193616
0.194003
0.193722
0.192732
0.191015
0.188605
0.185569
0.181883
0.177308
0.171474
0.164163
0.156453
0.149074
0.141584
0.134072
0.126588
0.119182
0.111891
0.104747
0.0977755
0.0909963
0.0844249
0.078073
0.0719493
0.0660596
0.0604071
0.0549928
0.0498158
0.0448731
0.0401604
0.0356717
0.0313999
0.027337
0.0234744
0.0198028
0.0163131
0.012996
0.00984269
0.00684426
0.0039896
0.00128811
0.175018
0.179734
0.184136
0.188202
0.191905
0.195207
0.19806
0.200409
0.202202
0.203388
0.203916
0.203742
0.20282
0.201129
0.198699
0.195603
0.191806
0.187068
0.180992
0.173347
0.165255
0.157498
0.149617
0.141706
0.133821
0.126013
0.118322
0.110784
0.103424
0.0962644
0.0893219
0.0826095
0.0761365
0.0699094
0.0639321
0.0582057
0.0527295
0.0475007
0.0425147
0.0377653
0.0332451
0.0289456
0.0248577
0.0209717
0.0172779
0.0137665
0.0104282
0.00725336
0.00423092
0.00137176
0.182657
0.18769
0.192401
0.196769
0.200764
0.204347
0.207464
0.210059
0.212073
0.213452
0.214142
0.214092
0.213255
0.211605
0.209169
0.206021
0.202117
0.197219
0.190902
0.182917
0.174432
0.166286
0.157999
0.149675
0.141373
0.133147
0.125041
0.11709
0.109326
0.101769
0.0944395
0.0873508
0.0805132
0.0739339
0.0676172
0.0615648
0.0557759
0.0502479
0.044976
0.0399539
0.0351737
0.0306267
0.0263031
0.0221928
0.0182853
0.0145704
0.0110383
0.00767868
0.00448
0.00145466
0.19041
0.195779
0.20082
0.20551
0.209819
0.213703
0.217108
0.219971
0.222229
0.223823
0.224695
0.224791
0.224057
0.222464
0.220035
0.216846
0.212843
0.207788
0.201228
0.192896
0.184009
0.175461
0.166754
0.158002
0.149266
0.140606
0.132066
0.123686
0.115499
0.107528
0.0997943
0.0923124
0.0850938
0.0781464
0.0714748
0.0650812
0.0589652
0.0531239
0.0475528
0.0422451
0.0371928
0.0323866
0.0278161
0.0234707
0.0193394
0.0154113
0.0116759
0.00812256
0.00473899
0.00153898
0.19828
0.204005
0.209396
0.214429
0.219074
0.223284
0.227
0.230155
0.232682
0.234516
0.235594
0.235857
0.235248
0.23373
0.231322
0.228103
0.224009
0.218801
0.211996
0.203312
0.194011
0.185048
0.175907
0.16671
0.157524
0.14841
0.139419
0.130592
0.121963
0.11356
0.105404
0.0975112
0.089894
0.0825611
0.075518
0.068767
0.0623082
0.0561388
0.050254
0.0446472
0.0393097
0.0342317
0.0294024
0.0248104
0.0204442
0.0162923
0.0123437
0.00858708
0.00500957
0.00162616
0.206266
0.212368
0.218131
0.223531
0.228536
0.233097
0.23715
0.240624
0.243446
0.245546
0.246856
0.247311
0.246848
0.245425
0.243054
0.239816
0.235641
0.230283
0.223234
0.214192
0.204466
0.195074
0.185482
0.175823
0.166169
0.156584
0.147122
0.137829
0.12874
0.119886
0.111288
0.102965
0.09493
0.0871933
0.0797605
0.0726349
0.0658166
0.0593032
0.0530896
0.047169
0.0415322
0.036169
0.0310679
0.0262169
0.0216039
0.0172168
0.0130442
0.00907419
0.00529315
0.00171719
0.214368
0.220869
0.227028
0.232819
0.238209
0.243148
0.247567
0.251388
0.254534
0.256928
0.258498
0.259172
0.258879
0.257573
0.255257
0.252014
0.247767
0.242264
0.234971
0.225564
0.215401
0.205566
0.195507
0.185369
0.175228
0.165153
0.155202
0.145422
0.135853
0.126526
0.117466
0.108692
0.100219
0.0920588
0.0842174
0.0766987
0.0695033
0.0626289
0.0560702
0.04982
0.0438689
0.0382058
0.0328188
0.0276953
0.0228227
0.0181883
0.0137802
0.00958598
0.00559121
0.00181292
0.222583
0.229508
0.236086
0.242294
0.248098
0.253444
0.258259
0.262459
0.265961
0.268681
0.270539
0.271461
0.271366
0.2702
0.267959
0.264724
0.260415
0.254772
0.247236
0.237458
0.226847
0.216554
0.206011
0.195376
0.184729
0.174145
0.163684
0.153397
0.143325
0.133504
0.123959
0.114712
0.10578
0.097175
0.0889046
0.0809733
0.073382
0.0661284
0.059207
0.0526103
0.0463282
0.0403494
0.0346614
0.0292511
0.0241051
0.0192106
0.0145548
0.0101248
0.00590531
0.00191416
0.230912
0.238283
0.245308
0.251961
0.258208
0.263992
0.269234
0.273847
0.277739
0.280818
0.282999
0.284199
0.284332
0.283332
0.281186
0.277975
0.273616
0.267841
0.260061
0.249908
0.238837
0.228071
0.217027
0.205877
0.194705
0.18359
0.172597
0.161779
0.151182
0.140842
0.130789
0.121047
0.111632
0.10256
0.0938396
0.0854748
0.0774674
0.0698148
0.0625117
0.0555499
0.0489192
0.0426077
0.0366025
0.03089
0.0254564
0.020288
0.0153714
0.0106931
0.00623698
0.00202156
0.239349
0.247194
0.254692
0.261819
0.26854
0.274796
0.280502
0.285564
0.289881
0.293356
0.295895
0.297409
0.2978
0.296995
0.29497
0.291796
0.287403
0.281502
0.273482
0.262948
0.251406
0.240153
0.228591
0.216905
0.205187
0.193519
0.18197
0.170597
0.15945
0.148567
0.137981
0.127717
0.117797
0.108235
0.0990406
0.09022
0.0817745
0.0737018
0.0659962
0.0586495
0.0516512
0.044989
0.0386496
0.0326189
0.0268823
0.0214252
0.0162337
0.0112934
0.00658759
0.00213555
0.247892
0.256237
0.264238
0.27187
0.279099
0.285862
0.292069
0.297618
0.302401
0.306311
0.309246
0.311112
0.311797
0.311216
0.30934
0.306221
0.301809
0.295792
0.287536
0.276618
0.264593
0.252839
0.24074
0.228498
0.21621
0.203965
0.191834
0.17988
0.168156
0.156703
0.145558
0.134749
0.124297
0.114219
0.104527
0.0952266
0.0863194
0.0778035
0.0696734
0.0619207
0.0545348
0.047503
0.0408114
0.0344451
0.0283888
0.0226271
0.0171451
0.011928
0.00695838
0.00225644
0.256536
0.265409
0.273943
0.282114
0.289886
0.297194
0.303943
0.310021
0.315311
0.319699
0.32307
0.325331
0.326345
0.326024
0.324325
0.321285
0.316872
0.310748
0.302261
0.290957
0.278439
0.266168
0.253513
0.240692
0.227811
0.214962
0.202223
0.18966
0.177331
0.165281
0.15355
0.142167
0.131156
0.120536
0.11032
0.100513
0.0911188
0.0821353
0.0735573
0.0653764
0.0575817
0.0501601
0.043097
0.0363764
0.0299823
0.0238985
0.0181093
0.0125994
0.00735075
0.00238456
0.265273
0.274705
0.283804
0.292548
0.300902
0.308796
0.316129
0.32278
0.328625
0.333536
0.337393
0.340082
0.341473
0.341448
0.339959
0.337026
0.332629
0.326411
0.317698
0.306006
0.292986
0.280182
0.26695
0.253528
0.240027
0.226548
0.213172
0.199972
0.187008
0.174332
0.161984
0.149998
0.1384
0.127209
0.11644
0.106099
0.0961907
0.0867138
0.0776633
0.0690308
0.0608048
0.0529717
0.0455158
0.0384206
0.031669
0.0252442
0.01913
0.0133102
0.00776619
0.00252025
0.274097
0.284118
0.293817
0.303171
0.312146
0.320669
0.328632
0.335906
0.342352
0.347836
0.352226
0.355396
0.357207
0.35752
0.356276
0.353479
0.349118
0.342819
0.33389
0.321809
0.308277
0.294925
0.281096
0.267046
0.2529
0.238762
0.224719
0.210851
0.197223
0.183889
0.170894
0.158273
0.146056
0.134263
0.12291
0.112005
0.101555
0.0915574
0.0820083
0.0728988
0.0642171
0.0559486
0.048077
0.0405851
0.0334551
0.0266695
0.0202112
0.0140632
0.00820621
0.00266385
0.282998
0.293642
0.303975
0.313978
0.323617
0.332815
0.341457
0.349403
0.356504
0.362614
0.36759
0.371294
0.373575
0.374273
0.373312
0.370683
0.366381
0.360017
0.350878
0.338411
0.324358
0.310441
0.295993
0.281293
0.266473
0.251647
0.236908
0.22234
0.208015
0.193989
0.180312
0.167023
0.154152
0.141724
0.129755
0.118256
0.107233
0.0966858
0.0866097
0.0769957
0.0678314
0.0591018
0.0507899
0.0428779
0.0353473
0.0281795
0.0213567
0.014861
0.00867232
0.00281574
0.291965
0.303265
0.31427
0.324963
0.335311
0.345233
0.354606
0.363279
0.371091
0.377885
0.383504
0.387799
0.390607
0.391739
0.391104
0.388678
0.384459
0.378047
0.36871
0.355858
0.341276
0.326779
0.311691
0.296314
0.280794
0.26525
0.249782
0.234481
0.219423
0.20467
0.190276
0.176281
0.162721
0.149622
0.137003
0.124876
0.113248
0.10212
0.0914856
0.0813371
0.0716614
0.0624431
0.0536648
0.0453078
0.0373528
0.0297802
0.0225711
0.0157068
0.00916636
0.00297655
0.300986
0.312977
0.324693
0.336119
0.347222
0.357919
0.368078
0.377537
0.386121
0.393661
0.399987
0.404935
0.408331
0.409951
0.409688
0.407504
0.403395
0.396953
0.387429
0.374197
0.359079
0.343989
0.328239
0.312162
0.295912
0.279619
0.263389
0.247319
0.231491
0.215973
0.200822
0.186084
0.171796
0.157989
0.144683
0.131893
0.119625
0.10788
0.096655
0.0859398
0.0757219
0.0659858
0.0567133
0.0478849
0.0394801
0.0314782
0.0238594
0.016604
0.00969042
0.00314717
0.310045
0.322763
0.33523
0.347433
0.359341
0.370868
0.381872
0.392179
0.401602
0.409954
0.417057
0.422729
0.426772
0.428943
0.429104
0.427201
0.423231
0.41678
0.407084
0.393479
0.377821
0.362123
0.345692
0.328888
0.31188
0.294805
0.277777
0.260901
0.244263
0.227939
0.211991
0.196468
0.181414
0.166859
0.152827
0.139334
0.126388
0.113991
0.102138
0.0908225
0.0800301
0.0697452
0.0599488
0.0506203
0.041738
0.0332803
0.0252264
0.017556
0.0102463
0.00332794
0.319125
0.332608
0.345866
0.358892
0.371657
0.384071
0.395983
0.407205
0.417536
0.426776
0.434729
0.441199
0.445962
0.448748
0.449387
0.44781
0.444013
0.437577
0.427725
0.413756
0.397555
0.381237
0.364105
0.346548
0.32875
0.310859
0.292997
0.275274
0.257786
0.240614
0.223825
0.207476
0.191611
0.176266
0.161466
0.147229
0.133564
0.120475
0.107958
0.0960057
0.0846045
0.0737377
0.0633852
0.0535254
0.0441357
0.0351936
0.0266777
0.0185664
0.0108361
0.00351918
0.328207
0.34249
0.356582
0.370479
0.384154
0.397515
0.410402
0.422612
0.433928
0.444133
0.453016
0.460364
0.465926
0.469399
0.470576
0.469374
0.465784
0.459391
0.449405
0.435083
0.418337
0.401389
0.383533
0.365196
0.346578
0.327835
0.309099
0.290488
0.272107
0.254042
0.236369
0.219147
0.202427
0.186246
0.170633
0.155607
0.141181
0.127359
0.114138
0.101511
0.0894644
0.0779796
0.0670362
0.0566117
0.0466829
0.0372263
0.0282195
0.0196399
0.011463
0.00372281
0.337266
0.352388
0.367357
0.382173
0.396815
0.411187
0.425118
0.438393
0.450775
0.462031
0.471931
0.480243
0.48669
0.490928
0.492709
0.491934
0.488592
0.482271
0.472173
0.457515
0.440225
0.422634
0.404035
0.384889
0.365417
0.345786
0.326136
0.306595
0.287276
0.268274
0.249669
0.231527
0.213902
0.196837
0.180362
0.164502
0.14927
0.134671
0.120705
0.107362
0.0946295
0.0824881
0.0709169
0.0598927
0.0493913
0.0393884
0.0298602
0.0207831
0.0121315
0.00394124
0.346277
0.362275
0.378162
0.393949
0.409616
0.425065
0.440118
0.454539
0.468075
0.480472
0.491483
0.500854
0.508277
0.513365
0.515822
0.515533
0.512483
0.506268
0.496084
0.481107
0.463275
0.44503
0.425666
0.405684
0.385324
0.364766
0.344162
0.323649
0.303346
0.283358
0.263772
0.244659
0.226078
0.208077
0.190692
0.173948
0.157862
0.142441
0.127684
0.113582
0.100121
0.0872821
0.0750444
0.0633836
0.0522743
0.0416909
0.0316083
0.0220016
0.0128437
0.0041736
0.355208
0.372119
0.38897
0.405778
0.422531
0.439129
0.455381
0.471035
0.485818
0.499454
0.511677
0.52221
0.53071
0.536742
0.539955
0.540216
0.537507
0.531436
0.521195
0.505916
0.487543
0.468633
0.448482
0.427633
0.406352
0.384832
0.363233
0.341702
0.320369
0.299345
0.278726
0.258588
0.238999
0.22001
0.201661
0.183983
0.166993
0.150699
0.135103
0.120194
0.10596
0.0923816
0.0794363
0.0670992
0.0553435
0.0441423
0.0334693
0.023298
0.0135998
0.00441757
0.364026
0.381886
0.399744
0.417626
0.435528
0.453348
0.470883
0.487863
0.503992
0.518972
0.532517
0.544325
0.554013
0.56109
0.565147
0.566029
0.563714
0.557828
0.547561
0.531999
0.513086
0.493499
0.472537
0.450793
0.428556
0.406035
0.3834
0.360806
0.338394
0.316284
0.294578
0.273362
0.252709
0.232677
0.21331
0.194643
0.176695
0.159477
0.142989
0.127225
0.11217
0.0978059
0.0841088
0.0710525
0.0586089
0.0467499
0.0354479
0.0246755
0.0144021
0.00467382
0.37269
0.391537
0.410444
0.429455
0.448572
0.46769
0.486597
0.505
0.522581
0.539019
0.554004
0.56721
0.57821
0.586443
0.591441
0.593022
0.59116
0.585503
0.575241
0.559414
0.53996
0.51968
0.497883
0.475213
0.451986
0.428425
0.404711
0.38101
0.35747
0.334221
0.311375
0.289025
0.267252
0.24612
0.22568
0.205966
0.187004
0.168805
0.151372
0.1347
0.118774
0.103575
0.0890784
0.0752571
0.0620817
0.049523
0.0375522
0.0261408
0.0152561
0.00494647
0.381158
0.401025
0.421027
0.441221
0.461618
0.482116
0.502486
0.522417
0.541564
0.559582
0.576137
0.590875
0.603322
0.61284
0.618887
0.62125
0.619903
0.614523
0.604299
0.588224
0.568225
0.547234
0.524574
0.500942
0.476688
0.452047
0.427211
0.402355
0.377638
0.353199
0.329158
0.30562
0.282671
0.260381
0.238807
0.217988
0.197952
0.178715
0.160281
0.142646
0.125795
0.109709
0.0943632
0.0797287
0.0657759
0.0524742
0.0397932
0.0277028
0.0161682
0.0052395
0.389381
0.410301
0.43144
0.452872
0.47462
0.496579
0.518511
0.54008
0.560916
0.580647
0.598915
0.615334
0.629378
0.640323
0.647536
0.650774
0.650011
0.644958
0.634807
0.618497
0.597943
0.576218
0.552661
0.528029
0.502703
0.476938
0.450934
0.424876
0.398933
0.373252
0.347965
0.323184
0.299001
0.275495
0.252727
0.230742
0.209573
0.189238
0.169745
0.151089
0.133258
0.116231
0.0999823
0.0844846
0.0697065
0.0556157
0.0421803
0.0293679
0.0171419
0.00555456
0.397302
0.419308
0.441626
0.464351
0.487519
0.511028
0.534624
0.55795
0.580608
0.602198
0.622336
0.640601
0.656408
0.668939
0.67745
0.681666
0.681562
0.676892
0.666848
0.650314
0.62919
0.606698
0.582201
0.556519
0.530071
0.50313
0.475909
0.448599
0.421379
0.394407
0.367822
0.341743
0.316271
0.29149
0.267468
0.244258
0.221895
0.200403
0.17979
0.160055
0.141184
0.123159
0.105955
0.0895413
0.0738868
0.0589576
0.0447198
0.0311393
0.0181782
0.00589221
0.404863
0.427983
0.451521
0.475595
0.500255
0.525404
0.550774
0.575984
0.600608
0.624217
0.646398
0.666695
0.684453
0.698744
0.708702
0.71401
0.714651
0.710424
0.700521
0.683772
0.662052
0.638751
0.613257
0.586462
0.558829
0.530652
0.502155
0.473539
0.444991
0.416676
0.388741
0.361311
0.334494
0.308383
0.283051
0.258556
0.234941
0.212231
0.190437
0.169561
0.149593
0.130513
0.112296
0.0949125
0.0783282
0.0625082
0.0474177
0.0330214
0.0192807
0.00625395
0.411997
0.436257
0.461054
0.486531
0.512759
0.539642
0.566903
0.594135
0.620881
0.646685
0.671103
0.693638
0.713558
0.729806
0.741378
0.747909
0.74939
0.745671
0.735948
0.718986
0.696637
0.67247
0.645906
0.617918
0.589019
0.559531
0.529688
0.499703
0.469768
0.440055
0.410716
0.381882
0.353668
0.326173
0.299477
0.273643
0.248718
0.224731
0.201698
0.179623
0.158498
0.138305
0.119019
0.100609
0.0830404
0.066277
0.0502828
0.0350219
0.0204546
0.00664102
0.418631
0.444054
0.470146
0.497082
0.524953
0.553672
0.582948
0.612351
0.641392
0.669585
0.696455
0.721459
0.743779
0.762211
0.775584
0.783484
0.785912
0.782775
0.773274
0.7561
0.733077
0.707973
0.680248
0.650964
0.620699
0.589802
0.558528
0.527094
0.4957
0.464524
0.433722
0.40343
0.373768
0.34484
0.31673
0.289506
0.263217
0.2379
0.213573
0.190245
0.167907
0.146545
0.126132
0.106639
0.088031
0.0702711
0.0533217
0.0371457
0.0217014
0.00705221
0.424686
0.451292
0.478714
0.507164
0.536757
0.567417
0.598842
0.630577
0.662102
0.6929
0.722462
0.750196
0.775184
0.796055
0.811443
0.820879
0.824376
0.821905
0.812671
0.795288
0.771539
0.745413
0.716414
0.685711
0.65395
0.621523
0.588702
0.555716
0.522772
0.490052
0.457718
0.425909
0.394747
0.364337
0.334767
0.306105
0.278408
0.251713
0.226044
0.201411
0.177809
0.155224
0.133631
0.113001
0.0933
0.0744902
0.0565333
0.0393902
0.023018
0.00748555
0.430077
0.45788
0.486666
0.516684
0.548083
0.580796
0.614514
0.648756
0.682973
0.716614
0.749137
0.779892
0.807849
0.831447
0.849103
0.860255
0.86496
0.863252
0.854343
0.836759
0.812229
0.784985
0.754582
0.722308
0.688895
0.654781
0.620266
0.585593
0.550977
0.51661
0.482656
0.449256
0.416533
0.384589
0.353512
0.323372
0.294225
0.266112
0.239061