/*--------------------------------*- C++ -*----------------------------------*\
  =========                 |
  \\      /  F ield         | OpenFOAM: The Open Source CFD Toolbox
   \\    /   O peration     | Website:  https://openfoam.org
    \\  /    A nd           | Version:  9
     \\/     M anipulation  |
\*---------------------------------------------------------------------------*/
FoamFile
{
    format      ascii;
    class       surfaceScalarField;
    location    "0.08";
    object      alphaPhi0.water;
}
// * * * * * * * * * * * * * * * * * * * * * * * * * * * * * * * * * * * * * //

dimensions      [0 3 -1 0 0 0 0];

internalField   nonuniform List<scalar> 
9850
(
0
0
-4.94066e-324
0
-2.47033e-323
9.88131e-324
-1.08694e-322
4.94066e-323
-5.13828e-322
2.37152e-322
-2.47033e-321
1.14623e-321
-1.22676e-320
5.77563e-321
-6.27365e-320
2.99601e-320
-3.29675e-319
1.60255e-319
-1.77482e-318
8.82134e-319
-9.76791e-318
4.99118e-318
-5.49494e-317
2.90304e-317
-3.16882e-316
1.73911e-316
-1.88404e-315
1.07707e-315
-1.16265e-314
6.92708e-315
-7.49035e-314
4.64456e-314
-5.06474e-313
3.2563e-313
-3.62808e-312
2.39682e-312
-2.81575e-311
1.87124e-311
-2.47301e-310
1.5881e-310
-2.55021e-309
1.51416e-309
-2.77923e-308
1.53014e-308
-1.0588e-307
9.74223e-308
-2.50784e-307
3.05103e-307
-2.01325e-306
1.41411e-306
-2.14568e-305
1.4731e-305
-2.3262e-304
1.64957e-304
-2.54057e-303
1.85884e-303
-2.89065e-302
2.1388e-302
-3.54336e-301
2.56894e-301
-4.26831e-300
3.36415e-300
-2.55358e-301
2.36425e-299
-1.50038e-302
2.22607e-300
-1.98177e-303
1.54614e-301
-3.25837e-303
1.90659e-302
-9.13049e-304
2.93118e-302
-1.52919e-304
8.57653e-303
-3.7954e-305
1.49494e-303
-6.03824e-305
3.70628e-304
-1.11529e-304
5.80505e-304
-1.19396e-304
1.06127e-303
-6.04476e-304
1.14005e-303
-5.47348e-303
5.81293e-303
-4.97307e-302
5.27674e-302
-4.3604e-301
4.78752e-301
-3.66091e-300
4.18586e-300
-2.92372e-299
3.50305e-299
-2.19995e-298
2.78641e-298
-1.53468e-297
2.08343e-297
1.43834e-296
-1.4822e-323
4.94066e-324
-6.91692e-323
2.96439e-323
-2.91499e-322
1.33398e-322
-1.28951e-321
5.97819e-322
-5.88926e-321
2.76677e-321
-2.77764e-320
1.31965e-320
-1.35221e-319
6.50931e-320
-6.77967e-319
3.31325e-319
-3.49191e-318
1.73812e-318
-1.84257e-317
9.38322e-318
-9.9386e-317
5.20728e-317
-5.47721e-316
2.97087e-316
-3.09128e-315
1.74567e-315
-1.79594e-314
1.06022e-314
-1.08093e-313
6.68488e-314
-6.7782e-313
4.39303e-313
-4.44858e-312
3.01711e-312
-3.07747e-311
2.17204e-311
-2.28656e-310
1.65206e-310
-1.90567e-309
1.35559e-309
-1.88076e-308
1.23957e-308
-2.06537e-307
1.22722e-307
-1.03799e-306
8.96703e-307
-3.29963e-306
3.37239e-306
-2.39576e-305
1.7151e-305
-2.29824e-304
1.63824e-304
-2.28894e-303
1.70326e-303
-2.29442e-302
1.78788e-302
-2.36204e-301
1.90612e-301
-2.55718e-300
2.08219e-300
-2.6515e-299
2.44925e-299
-1.94868e-300
1.62639e-298
-1.24192e-301
1.5999e-299
-3.4624e-302
1.22202e-300
-8.70257e-302
3.23961e-301
-2.47492e-302
7.71201e-301
-4.2624e-303
2.30551e-301
-1.35303e-303
4.16217e-302
-2.62787e-303
1.32133e-302
-4.95171e-303
2.52253e-302
-6.18787e-303
4.70424e-302
-3.54261e-302
5.90379e-302
-3.21333e-301
3.40696e-301
-2.90224e-300
3.09845e-300
-2.52697e-299
2.79328e-299
-2.10511e-298
2.42402e-298
-1.66716e-297
2.01208e-297
-1.24346e-296
1.58655e-296
-8.59593e-296
1.17543e-295
8.0399e-295
-1.08694e-322
4.94066e-323
-4.496e-322
2.07508e-322
-1.89721e-321
8.84378e-322
-8.24101e-321
3.89818e-321
-3.70105e-320
1.77123e-320
-1.71663e-319
8.31809e-320
-8.21211e-319
4.03414e-319
-4.04545e-318
2.01863e-318
-2.04761e-317
1.04099e-317
-1.06222e-316
5.5258e-317
-5.63585e-316
3.01675e-316
-3.05649e-315
1.69416e-315
-1.69764e-314
9.80416e-315
-9.70191e-314
5.86697e-314
-5.74022e-313
3.64638e-313
-3.53601e-312
2.36289e-312
-2.27826e-311
1.60088e-311
-1.5456e-310
1.13714e-310
-1.1239e-309
8.53009e-310
-9.13681e-309
6.88602e-309
-8.74036e-308
6.14339e-308
-9.22418e-307
5.86444e-307
-5.45193e-306
4.54526e-306
-2.12249e-305
1.96756e-305
-1.44813e-304
1.07206e-304
-1.29419e-303
9.6383e-304
-1.2037e-302
9.40199e-303
-1.12105e-301
9.26292e-302
-1.06012e-300
9.23146e-301
-1.02614e-299
9.26733e-300
-9.03733e-299
9.82151e-299
-8.08874e-300
5.96544e-298
-5.95212e-301
6.43389e-299
-4.1183e-301
5.63554e-300
-1.19129e-300
3.76455e-300
-3.41411e-301
1.04107e-299
-6.09548e-302
3.15648e-300
-2.57119e-302
5.93621e-301
-5.80688e-302
2.50809e-301
-1.11718e-301
5.56584e-301
-1.64948e-301
1.0599e-300
-1.0436e-300
1.57252e-300
-9.46076e-300
1.00341e-299
-8.49214e-299
9.12146e-299
-7.34293e-298
8.17032e-298
-6.0709e-297
7.03885e-297
-4.76932e-296
5.79685e-296
-3.5275e-295
4.533e-295
-2.4176e-294
3.32949e-294
2.25756e-293
-5.43472e-322
2.47033e-322
-2.19365e-321
1.02766e-321
-9.10069e-321
4.31813e-321
-3.90065e-320
1.8735e-320
-1.72696e-319
8.39961e-320
-7.8924e-319
3.88924e-319
-3.71968e-318
1.85893e-318
-1.80534e-317
9.16597e-318
-9.00593e-317
4.65827e-317
-4.6074e-316
2.43779e-316
-2.41279e-315
1.31291e-315
-1.29259e-314
7.27934e-315
-7.09617e-314
4.16249e-314
-4.00962e-313
2.46322e-313
-2.34588e-312
1.51508e-312
-1.42946e-311
9.72489e-312
-9.11635e-311
6.533e-311
-6.12454e-310
4.6056e-310
-4.40663e-309
3.42908e-309
-3.53003e-308
2.74022e-308
-3.29126e-307
2.39962e-307
-3.30974e-306
2.22501e-306
-2.09209e-305
1.72305e-305
-9.23607e-305
8.18636e-305
-6.08443e-304
4.67496e-304
-5.13017e-303
4.00104e-303
-4.51593e-302
3.7042e-302
-3.95687e-301
3.45594e-301
-3.47912e-300
3.24342e-300
-3.05373e-299
3.02114e-299
-2.3135e-298
2.91613e-298
-2.46747e-299
1.60338e-297
-2.39599e-300
1.93256e-298
-3.76003e-300
2.20461e-299
-1.10537e-299
3.37034e-299
-3.19193e-300
9.54049e-299
-5.99592e-301
2.93243e-299
-3.44894e-301
5.82661e-300
-8.67824e-301
3.35991e-300
-1.71092e-300
8.30414e-300
-3.00784e-300
1.62073e-299
-2.06058e-299
2.86522e-299
-1.86438e-298
1.9807e-298
-1.66322e-297
1.7972e-297
-1.42835e-296
1.59955e-296
-1.1722e-295
1.36828e-295
-9.13709e-295
1.11829e-294
-6.70352e-294
8.67498e-294
-4.55624e-293
6.3191e-293
4.24853e-292
-2.23318e-321
1.01778e-321
-8.89318e-321
4.21438e-321
-3.65016e-320
1.75393e-320
-1.54638e-319
7.52709e-320
-6.76257e-319
3.33465e-319
-3.05174e-318
1.52509e-318
-1.42005e-317
7.19814e-318
-6.80574e-317
3.50446e-317
-3.3539e-316
1.75881e-316
-1.69629e-315
9.09345e-316
-8.79037e-315
4.84181e-315
-4.66488e-314
2.65631e-314
-2.53908e-313
1.50437e-313
-1.42324e-312
8.82462e-313
-8.26362e-312
5.38463e-312
-4.99949e-311
3.4316e-311
-3.16754e-310
2.29089e-310
-2.11451e-309
1.60603e-309
-1.5096e-308
1.1887e-308
-1.19376e-307
9.41411e-308
-1.0846e-306
8.10466e-307
-1.03419e-305
7.29528e-306
-6.61952e-305
5.46848e-305
-3.14505e-304
2.74919e-304
-2.03045e-303
1.618e-303
-1.63029e-302
1.32933e-302
-1.36883e-301
1.1775e-301
-1.13802e-300
1.04774e-300
-9.38585e-300
9.3167e-300
-7.56113e-299
8.11523e-299
-5.01913e-298
7.20458e-298
-6.26564e-299
3.58891e-297
-9.88355e-300
4.89119e-298
-2.7129e-299
8.91372e-299
-7.79456e-299
2.39508e-298
-2.27486e-299
6.65844e-298
-4.59248e-300
2.0785e-298
-3.6325e-300
4.45418e-299
-9.85347e-300
3.53492e-299
-2.00386e-299
9.41466e-299
-4.20902e-299
1.89538e-298
-3.06785e-298
4.00592e-298
-2.76747e-297
2.948e-297
-2.45387e-296
2.66726e-296
-2.09331e-295
2.35906e-295
-1.70553e-294
2.00403e-294
-1.31933e-293
1.62579e-293
-9.60357e-293
1.25142e-292
-6.47493e-292
9.04269e-292
6.02984e-291
-8.16691e-321
3.74502e-321
-3.22081e-320
1.54099e-320
-1.30863e-319
6.35517e-320
-5.48596e-319
2.70027e-319
-2.37298e-318
1.18376e-318
-1.05884e-317
5.35456e-318
-4.87104e-317
2.49878e-317
-2.3082e-316
1.20267e-316
-1.12513e-315
5.96774e-316
-5.63267e-315
3.05171e-315
-2.89195e-314
1.60809e-314
-1.52207e-313
8.73794e-314
-8.22343e-313
4.9053e-313
-4.57788e-312
2.85427e-312
-2.64035e-311
1.72859e-311
-1.58702e-310
1.09392e-310
-9.99094e-310
7.25519e-310
-6.62589e-309
5.05431e-309
-4.69154e-308
3.71503e-308
-3.65666e-307
2.91206e-307
-3.22113e-306
2.45865e-306
-2.89953e-305
2.13512e-305
-1.84135e-304
1.53882e-304
-9.11205e-304
7.99894e-304
-5.77971e-303
4.7773e-303
-4.45749e-302
3.7938e-302
-3.59229e-301
3.23492e-301
-2.85136e-300
2.75947e-300
-2.22179e-299
2.33644e-299
-1.65757e-298
1.91492e-298
-9.7793e-298
1.57448e-297
-1.43124e-298
7.15461e-297
-4.35866e-299
1.12131e-297
-1.59849e-298
3.88363e-298
-4.44778e-298
1.39598e-297
-1.31822e-298
3.7693e-297
-2.94352e-299
1.19897e-297
-3.17059e-299
2.85021e-298
-9.05999e-299
3.08296e-298
-1.91732e-298
8.64593e-298
-4.80662e-298
1.81102e-297
-3.67359e-297
4.57057e-297
-3.30152e-296
3.5288e-296
-2.90979e-295
3.18132e-295
-2.46601e-294
2.79637e-294
-1.99504e-293
2.3595e-293
-1.53186e-292
1.90039e-292
-1.10656e-291
1.45178e-291
-7.40244e-291
1.04089e-290
6.88552e-290
-2.77615e-320
1.28358e-320
-1.08566e-319
5.23957e-320
-4.37105e-319
2.14222e-319
-1.8147e-318
9.01808e-319
-7.7696e-318
3.91479e-318
-3.43006e-317
1.75259e-317
-1.56082e-316
8.09121e-317
-7.3155e-316
3.85167e-316
-3.5279e-315
1.89016e-315
-1.74822e-314
9.56082e-315
-8.89131e-314
4.98539e-314
-4.63938e-313
2.68209e-313
-2.48668e-312
1.4916e-312
-1.37375e-311
8.60212e-312
-7.86235e-311
5.1647e-311
-4.68805e-310
3.24068e-310
-2.92667e-309
2.13109e-309
-1.92341e-308
1.47169e-308
-1.34679e-307
1.07115e-307
-1.03097e-306
8.2835e-307
-8.76833e-306
6.83349e-306
-7.46365e-305
5.70703e-305
-4.67094e-304
3.96866e-304
-2.3612e-303
2.10537e-303
-1.47085e-302
1.26249e-302
-1.09638e-301
9.73134e-302
-8.52373e-301
8.02286e-301
-6.48978e-300
6.58607e-300
-4.80393e-299
5.32984e-299
-3.34459e-298
4.13066e-298
-1.77546e-297
3.16442e-297
-3.13776e-298
1.32373e-296
-1.92138e-298
2.47606e-297
-7.93631e-298
1.70133e-297
-2.13822e-297
6.88043e-297
-6.4733e-298
1.80152e-296
-1.65735e-298
5.8674e-297
-2.36891e-298
1.60298e-297
-7.02662e-298
2.30241e-297
-1.56357e-297
6.69894e-297
-4.65294e-297
1.47506e-296
-3.68522e-296
4.42067e-296
-3.29794e-295
3.53869e-295
-2.88937e-294
3.17723e-294
-2.43304e-293
2.77583e-293
-1.95483e-292
2.32674e-292
-1.49015e-291
1.86084e-291
-1.06842e-290
1.41115e-290
-7.09277e-290
1.0041e-289
6.59028e-289
-9.0335e-320
4.20252e-320
-3.50451e-319
1.70344e-319
-1.39871e-318
6.90817e-319
-5.75285e-318
2.88259e-318
-2.43861e-317
1.23956e-317
-1.06529e-316
5.49364e-317
-4.79454e-316
2.50937e-316
-2.22203e-315
1.18133e-315
-1.05953e-314
5.73134e-315
-5.1926e-314
2.86577e-314
-2.61303e-313
1.47731e-313
-1.34979e-312
7.85919e-313
-7.16537e-312
4.32322e-312
-3.92079e-311
2.46652e-311
-2.22183e-310
1.46502e-310
-1.3108e-309
9.09207e-310
-8.08913e-309
5.9113e-309
-5.2482e-308
4.03318e-308
-3.61832e-307
2.89571e-307
-2.70863e-306
2.20035e-306
-2.21917e-305
1.76772e-305
-1.79502e-304
1.41995e-304
-1.10587e-303
9.58486e-304
-5.65787e-303
5.15578e-303
-3.46328e-302
3.08772e-302
-2.50469e-301
2.3153e-301
-1.88466e-300
1.85075e-300
-1.38135e-299
1.4664e-299
-9.76035e-299
1.13777e-298
-6.38085e-298
8.37271e-298
-3.08636e-297
6.01512e-297
-7.01084e-298
2.34024e-296
-7.94338e-298
5.58134e-297
-3.40806e-297
7.01358e-297
-8.90926e-297
2.94052e-296
-2.77547e-297
7.47639e-296
-8.48295e-298
2.50979e-296
-1.54884e-297
8.20032e-297
-4.72989e-297
1.50528e-296
-1.11952e-296
4.50601e-296
-3.91757e-296
1.055e-295
-3.18552e-295
3.71916e-295
-2.83783e-294
3.05791e-294
-2.4718e-293
2.7335e-293
-2.06838e-292
2.37396e-292
-1.65067e-291
1.97706e-291
-1.2494e-290
1.57034e-290
-8.89289e-290
1.18232e-289
-5.85924e-289
8.35038e-289
5.43842e-288
-2.86573e-319
1.34e-319
-1.10316e-318
5.39386e-319
-4.36571e-318
2.17029e-318
-1.77916e-317
8.9787e-318
-7.46716e-317
3.82523e-317
-3.22735e-316
1.67835e-316
-1.43614e-315
7.58395e-316
-6.57709e-315
3.52947e-315
-3.09797e-314
1.6918e-314
-1.4996e-313
8.35404e-314
-7.45437e-313
4.25186e-313
-3.80463e-312
2.23298e-312
-1.9959e-311
1.21254e-311
-1.07912e-310
6.82819e-311
-6.03886e-310
4.00205e-310
-3.51474e-309
2.4497e-309
-2.13694e-308
1.56981e-308
-1.36354e-307
1.05459e-307
-9.21809e-307
7.4416e-307
-6.72289e-306
5.53586e-306
-5.30049e-305
4.32051e-305
-4.09401e-304
3.34277e-304
-2.4864e-303
2.20223e-303
-1.28359e-302
1.19748e-302
-7.73394e-302
7.14979e-302
-5.43948e-301
5.22332e-301
-3.96918e-300
4.05579e-300
-2.80813e-299
3.10949e-299
-1.90114e-298
2.3198e-298
-1.17538e-297
1.62831e-297
-5.25579e-297
1.10516e-296
-1.66227e-297
4.04841e-296
-2.99927e-297
1.33566e-296
-1.29245e-296
2.64541e-296
-3.28695e-296
1.11181e-295
-1.06392e-296
2.75152e-295
-4.03846e-297
9.60755e-296
-9.00963e-297
3.90406e-296
-2.82327e-296
8.75898e-296
-7.1939e-296
2.6883e-295
-2.92282e-295
6.77286e-295
-2.42227e-294
2.77293e-294
-2.14776e-293
2.32466e-293
-1.8601e-292
2.06855e-292
-1.54699e-291
1.78601e-291
-1.22644e-290
1.47801e-290
-9.21859e-290
1.16607e-289
-6.51451e-289
8.71774e-289
-4.26032e-288
6.11204e-288
3.95023e-287
-8.95183e-319
4.20282e-319
-3.41967e-318
1.68005e-318
-1.34199e-317
6.70773e-318
-5.41897e-317
2.75158e-317
-2.25165e-316
1.16143e-316
-9.62617e-316
5.04442e-316
-4.23339e-315
2.2544e-315
-1.91452e-314
1.03672e-314
-8.89918e-314
4.90629e-314
-4.24909e-313
2.39018e-313
-2.08294e-312
1.19945e-312
-1.04832e-311
6.20809e-312
-5.42247e-311
3.32109e-311
-2.88985e-310
1.8418e-310
-1.59296e-309
1.06258e-309
-9.12233e-309
6.39827e-309
-5.4493e-308
4.03007e-308
-3.41002e-307
2.65822e-307
-2.25428e-306
1.83834e-306
-1.59821e-305
1.33544e-305
-1.21255e-304
1.01112e-304
-8.97772e-304
7.54811e-304
-5.38295e-303
4.87183e-303
-2.80199e-302
2.67277e-302
-1.6654e-301
1.59079e-301
-1.14122e-300
1.13408e-300
-8.09022e-300
8.56884e-300
-5.54202e-299
6.37453e-299
-3.61168e-298
4.58913e-298
-2.12764e-297
3.08795e-297
-8.95111e-297
1.997e-296
-4.18812e-297
6.99646e-296
-1.03015e-296
3.39658e-296
-4.40086e-296
9.08884e-296
-1.09219e-295
3.78059e-295
-3.72114e-296
9.13245e-295
-1.81219e-296
3.35835e-295
-4.72545e-296
1.75272e-295
-1.51993e-295
4.59678e-295
-4.21814e-295
1.44683e-294
-1.95997e-294
3.96807e-294
-1.64616e-293
1.8584e-293
-1.45264e-292
1.57955e-292
-1.2511e-291
1.39897e-291
-1.03426e-290
1.20099e-290
-8.14642e-290
9.87724e-290
-6.08151e-289
7.74109e-289
-4.26721e-288
5.74729e-288
-2.77007e-287
4.00029e-287
2.56578e-286
-2.76194e-318
1.30091e-318
-1.04691e-317
5.16349e-318
-4.07362e-317
2.04545e-317
-1.62967e-316
8.3189e-317
-6.70266e-316
3.47848e-316
-2.83365e-315
1.4953e-315
-1.23111e-314
6.60757e-315
-5.49485e-314
3.00139e-314
-2.51854e-313
1.40158e-313
-1.18491e-312
6.73103e-313
-5.7204e-312
3.32692e-312
-2.83435e-311
1.69477e-311
-1.44291e-310
8.91758e-311
-7.56507e-310
4.86146e-310
-4.09941e-309
2.75534e-309
-2.30536e-308
1.62875e-308
-1.35056e-307
1.00631e-307
-8.27501e-307
6.50435e-307
-5.34266e-306
4.40087e-306
-3.67988e-305
3.11772e-305
-2.68914e-304
2.28927e-304
-1.9146e-303
1.65185e-303
-1.13414e-302
1.04682e-302
-5.94743e-302
5.78343e-302
-3.49399e-301
3.43239e-301
-2.33732e-300
2.39263e-300
-1.6134e-299
1.76284e-299
-1.07421e-298
1.27659e-298
-6.77813e-298
8.90819e-298
-3.83882e-297
5.78114e-297
-1.55142e-296
3.59754e-296
-1.08815e-296
1.22887e-295
-3.2349e-296
8.90739e-296
-1.36415e-295
2.85915e-295
-3.31577e-295
1.17219e-294
-1.20976e-295
2.77267e-294
-7.71105e-296
1.09185e-294
-2.25997e-295
7.46385e-295
-7.48429e-295
2.20022e-294
-2.28566e-294
7.12326e-294
-1.19465e-293
2.14865e-293
-1.01246e-292
1.13218e-292
-8.89143e-292
9.71373e-292
-7.61631e-291
8.56266e-291
-6.2592e-290
7.30978e-290
-4.89865e-289
5.97511e-289
-3.63231e-288
4.65237e-288
-2.53081e-287
3.43044e-287
-1.63083e-286
2.37055e-286
1.50896e-285
-8.40434e-318
3.96938e-318
-3.15998e-317
1.56369e-317
-1.21877e-316
6.144e-317
-4.82908e-316
2.47666e-316
-1.9654e-315
1.0256e-315
-8.21426e-315
4.36228e-315
-3.52443e-314
1.90544e-314
-1.55192e-313
8.54646e-314
-7.01048e-313
3.93657e-313
-3.24777e-312
1.86273e-312
-1.54285e-311
9.06234e-312
-7.51816e-311
4.53982e-311
-3.76241e-310
2.34721e-310
-1.93816e-309
1.25639e-309
-1.0312e-308
6.98674e-309
-5.68852e-308
4.04931e-308
-3.26531e-307
2.45111e-307
-1.95783e-306
1.55088e-306
-1.23442e-305
1.02584e-305
-8.26508e-305
7.08509e-305
-5.82806e-304
5.04807e-304
-4.002e-303
3.52766e-303
-2.34253e-302
2.1976e-302
-1.23547e-301
1.22013e-301
-7.18436e-301
7.22208e-301
-4.70252e-300
4.93442e-300
-3.17e-299
3.55459e-299
-2.06045e-298
2.51496e-298
-1.26737e-297
1.70993e-297
-6.9714e-297
1.0778e-296
-2.7672e-296
6.52302e-296
-2.81606e-296
2.21831e-295
-9.3643e-296
2.32714e-295
-3.89608e-295
8.30441e-295
-9.31489e-295
3.35404e-294
-3.71982e-295
7.79785e-294
-3.11645e-295
3.35897e-294
-9.9528e-295
3.01947e-294
-3.41133e-294
9.69855e-294
-1.15563e-293
3.2465e-293
-6.67969e-293
1.08566e-292
-5.69322e-292
6.32751e-292
-4.97578e-291
5.46177e-291
-4.23958e-290
4.79182e-290
-3.46398e-289
4.0682e-289
-2.69395e-288
3.30543e-288
-1.9842e-287
2.5571e-287
-1.37286e-286
1.87268e-286
-8.78195e-286
1.28485e-285
8.11684e-285
-2.51392e-317
1.19038e-317
-9.3706e-317
4.65124e-317
-3.5805e-316
1.81165e-316
-1.40442e-315
7.23437e-316
-5.65371e-315
2.96545e-315
-2.33511e-314
1.24749e-314
-9.89144e-314
5.38427e-314
-4.29568e-313
2.3839e-313
-1.91194e-312
1.08276e-312
-8.71919e-312
5.04678e-312
-4.07416e-311
2.41601e-311
-1.95153e-310
1.18978e-310
-9.59516e-310
6.04166e-310
-4.85367e-309
3.17359e-309
-2.53422e-308
1.73059e-308
-1.3708e-307
9.82864e-308
-7.7089e-307
5.82622e-307
-4.52395e-306
3.60767e-306
-2.78727e-305
2.3329e-305
-1.8166e-304
1.57154e-304
-1.23914e-303
1.0879e-303
-8.23315e-303
7.37963e-303
-4.76275e-302
4.52329e-302
-2.52086e-301
2.5187e-301
-1.45244e-300
1.48693e-300
-9.32719e-300
9.9848e-300
-6.16266e-299
7.05511e-299
-3.92992e-298
4.8971e-298
-2.37255e-297
3.26162e-297
-1.28054e-296
2.01153e-296
-5.09314e-296
1.19647e-295
-7.09198e-296
4.12787e-295
-2.52203e-295
5.91837e-295
-1.03667e-294
2.24733e-294
-2.45042e-294
8.953e-294
-1.09906e-294
2.05541e-293
-1.1963e-294
9.93279e-294
-4.07186e-294
1.16026e-293
-1.45429e-293
3.97142e-293
-5.49146e-293
1.38388e-292
-3.45241e-292
5.15559e-292
-2.95175e-291
3.26893e-291
-2.56743e-290
2.83159e-290
-2.17616e-289
2.47255e-289
-1.7679e-288
2.08782e-288
-1.36632e-287
1.68629e-287
-9.99675e-287
1.29619e-286
-6.86877e-286
9.42853e-286
-4.36173e-285
6.42282e-285
4.02685e-284
-7.37136e-317
3.50008e-317
-2.72173e-316
1.35532e-316
-1.02949e-315
5.2288e-316
-3.99465e-315
2.06682e-315
-1.58963e-314
8.38044e-315
-6.48487e-314
3.48465e-314
-2.71089e-313
1.48537e-313
-1.16079e-312
6.4893e-313
-5.08948e-312
2.9056e-312
-2.28447e-311
1.33379e-311
-1.04985e-310
6.28231e-311
-4.94277e-310
3.04105e-310
-2.38735e-309
1.51658e-309
-1.18573e-308
7.81723e-309
-6.07534e-308
4.17994e-308
-3.22283e-307
2.32628e-307
-1.77626e-306
1.35058e-306
-1.02092e-305
8.18672e-306
-6.15289e-305
5.17825e-305
-3.91028e-304
3.40575e-304
-2.58774e-303
2.29484e-303
-1.66945e-302
1.51502e-302
-9.54797e-302
9.14653e-302
-5.06092e-301
5.09934e-301
-2.8914e-300
3.00246e-300
-1.82692e-299
1.98702e-299
-1.18794e-298
1.3819e-298
-7.46916e-298
9.45066e-298
-4.45408e-297
6.19846e-297
-2.37993e-296
3.76614e-296
-9.62417e-296
2.22146e-295
-1.71942e-295
7.88043e-295
-6.37862e-295
1.44934e-294
-2.5966e-294
5.71722e-294
-6.10585e-294
2.25181e-293
-3.16147e-294
5.13502e-293
-4.36202e-294
2.86019e-293
-1.56006e-293
4.23457e-293
-5.85158e-293
1.52271e-292
-2.46583e-292
5.5671e-292
-1.66023e-291
2.31333e-291
-1.42112e-290
1.57124e-290
-1.23019e-289
1.36318e-289
-1.03736e-288
1.18475e-288
-8.37998e-288
9.95067e-288
-6.43636e-287
7.98973e-287
-4.67807e-286
6.10245e-286
-3.19204e-285
4.40906e-285
-2.01216e-284
2.98211e-284
1.85547e-283
-2.1169e-316
1.00846e-316
-7.73415e-316
3.86585e-316
-2.89297e-315
1.47568e-315
-1.1094e-314
5.76794e-315
-4.36031e-314
2.31125e-314
-1.75567e-313
9.49119e-314
-7.23887e-313
3.99282e-313
-3.055e-312
1.72032e-312
-1.31921e-311
7.59062e-312
-5.82773e-311
3.43092e-311
-2.63413e-310
1.5899e-310
-1.21907e-309
7.56564e-310
-5.78512e-309
3.70603e-309
-2.82177e-308
1.87495e-308
-1.41919e-307
9.8334e-308
-7.38631e-307
5.36472e-307
-3.99226e-306
3.05192e-306
-2.24925e-305
1.81214e-305
-1.32764e-304
1.12214e-304
-8.24279e-304
7.21525e-304
-5.30821e-303
4.74231e-303
-3.33682e-302
3.05546e-302
-1.88798e-301
1.81933e-301
-1.00057e-300
1.01442e-300
-5.67291e-300
5.95757e-300
-3.53647e-299
3.89584e-299
-2.27126e-298
2.6753e-298
-1.41519e-297
1.81003e-297
-8.37968e-297
1.17452e-296
-4.46218e-296
7.07078e-296
-1.84959e-295
4.16344e-295
-4.00293e-295
1.52924e-294
-1.5286e-294
3.40823e-294
-6.18237e-294
1.37897e-293
-1.45719e-293
5.38674e-293
-8.93377e-294
1.22922e-292
-1.51221e-293
8.09118e-293
-5.63948e-293
1.46907e-292
-2.23973e-292
5.50695e-292
-1.0505e-291
2.12993e-291
-7.4703e-291
9.84686e-291
-6.39214e-290
7.06602e-290
-5.50703e-289
6.13099e-289
-4.62036e-288
5.30364e-288
-3.71153e-287
4.43102e-287
-2.83312e-286
3.53707e-286
-2.04559e-285
2.68449e-285
-1.38612e-284
1.92653e-284
-8.67346e-284
1.29372e-283
7.98811e-283
-5.96304e-316
2.85264e-316
-2.15284e-315
1.08118e-315
-7.95294e-315
4.07803e-315
-3.01038e-314
1.57414e-314
-1.16728e-313
6.22582e-314
-4.63442e-313
2.52212e-313
-1.88318e-312
1.04614e-312
-7.82846e-312
4.44166e-312
-3.32812e-311
1.93019e-311
-1.44675e-310
8.58755e-311
-6.43188e-310
3.91477e-310
-2.92655e-309
1.83143e-309
-1.36489e-308
8.81426e-309
-6.54037e-308
4.37849e-308
-3.23033e-307
2.2534e-307
-1.65042e-306
1.2058e-306
-8.75411e-306
6.726e-306
-4.83905e-305
3.91514e-305
-2.80082e-304
2.37591e-304
-1.70192e-303
1.49565e-303
-1.06957e-302
9.60962e-303
-6.57263e-302
6.05892e-302
-3.68227e-301
3.56364e-301
-1.94947e-300
1.98611e-300
-1.098e-299
1.16376e-299
-6.77164e-299
7.53743e-299
-4.31018e-298
5.12546e-298
-2.67073e-297
3.4415e-297
-1.57662e-296
2.21789e-296
-8.40203e-296
1.32847e-295
-3.57963e-295
7.84105e-295
-8.96539e-295
2.9869e-294
-3.5002e-294
7.70845e-294
-1.41204e-293
3.17863e-293
-3.36606e-293
1.23644e-292
-2.49029e-293
2.84879e-292
-4.99415e-293
2.25765e-292
-1.93699e-292
4.85338e-292
-8.20883e-292
1.89154e-291
-4.25921e-291
7.80076e-291
-3.16055e-290
3.98817e-290
-2.70028e-289
2.98755e-289
-2.31534e-288
2.58959e-288
-1.93282e-287
2.22974e-287
-1.54401e-286
1.85315e-286
-1.17135e-285
1.47069e-285
-8.4017e-285
1.10916e-284
-5.6535e-284
7.90635e-284
-3.51147e-283
5.27129e-283
3.22971e-282
-1.65408e-315
7.95599e-316
-5.89161e-315
2.97694e-315
-2.14602e-314
1.10772e-314
-8.00572e-314
4.21586e-314
-3.05801e-313
1.64322e-313
-1.19559e-312
6.55741e-313
-4.78255e-312
2.67826e-312
-1.95658e-311
1.11932e-311
-8.18402e-311
4.78649e-311
-3.49954e-310
2.09489e-310
-1.5301e-309
9.3916e-310
-6.84573e-309
4.31932e-309
-3.13872e-308
2.04285e-308
-1.47821e-307
9.96805e-308
-7.17354e-307
5.03696e-307
-3.6e-306
2.64535e-306
-1.87524e-305
1.44792e-305
-1.01791e-304
8.26946e-305
-5.78356e-304
4.92299e-304
-3.44519e-303
3.03824e-303
-2.11817e-302
1.91208e-302
-1.27601e-301
1.18269e-301
-7.08567e-301
6.88197e-301
-3.74659e-300
3.83319e-300
-2.09872e-299
2.24184e-299
-1.28331e-298
1.44087e-298
-8.11586e-298
9.72363e-298
-5.01487e-297
6.49508e-297
-2.95923e-296
4.16873e-296
-1.58164e-295
2.49105e-295
-6.92223e-295
1.47693e-294
-1.93935e-294
5.82576e-294
-7.71746e-294
1.68298e-293
-3.11956e-293
7.05429e-293
-7.59735e-293
2.74544e-292
-6.84658e-293
6.45173e-292
-1.57567e-292
6.21181e-292
-6.36293e-292
1.53106e-291
-2.89623e-291
6.21069e-291
-1.64751e-290
2.74925e-290
-1.26275e-289
1.54068e-289
-1.07624e-288
1.19269e-288
-9.18433e-288
1.03189e-287
-7.62888e-287
8.84393e-287
-6.06052e-286
7.31212e-286
-4.56951e-285
5.76945e-285
-3.2559e-284
4.32372e-284
-2.17559e-283
3.06127e-283
-1.34122e-282
2.02628e-282
1.23185e-281
-4.54459e-315
2.20111e-315
-1.59411e-314
8.11787e-315
-5.71471e-314
2.97456e-314
-2.09713e-313
1.11414e-313
-7.87707e-313
4.27168e-313
-3.02756e-312
1.67618e-312
-1.19036e-311
6.72985e-312
-4.78635e-311
2.76436e-311
-1.96776e-310
1.16174e-310
-8.27104e-310
4.99686e-310
-3.55528e-309
2.20155e-309
-1.56398e-308
9.95091e-309
-7.05096e-308
4.62509e-308
-3.2651e-307
2.21754e-307
-1.55771e-306
1.10081e-306
-7.68352e-306
5.67819e-306
-3.93332e-305
3.05206e-305
-2.09823e-304
1.71172e-304
-1.17142e-303
1.00061e-303
-6.84975e-303
6.06148e-303
-4.12826e-302
3.7429e-302
-2.44349e-301
2.27587e-301
-1.34622e-300
1.31202e-300
-7.11089e-300
7.3039e-300
-3.96621e-299
4.26556e-299
-2.40855e-298
2.72443e-298
-1.51607e-297
1.82744e-297
-9.35784e-297
1.21624e-296
-5.52793e-296
7.78844e-296
-2.96568e-295
4.65007e-295
-1.33069e-294
2.7717e-294
-4.07048e-294
1.12884e-293
-1.64976e-293
3.56289e-293
-6.71527e-293
1.51742e-292
-1.68822e-292
5.93981e-292
-1.85143e-292
1.43861e-291
-4.76578e-292
1.68064e-291
-2.01128e-291
4.62775e-291
-9.87633e-291
1.96111e-290
-6.09238e-290
9.36093e-290
-4.78269e-289
5.68852e-289
-4.06344e-288
4.51306e-288
-3.45113e-287
3.89475e-287
-2.85246e-286
3.32266e-286
-2.25352e-285
2.73297e-285
-1.68866e-284
2.14391e-284
-1.19523e-283
1.59653e-283
-7.93037e-283
1.12272e-282
-4.85215e-282
7.37731e-282
4.44969e-281
-1.24517e-314
6.08205e-315
-4.2934e-314
2.20747e-314
-1.51183e-313
7.9506e-314
-5.44653e-313
2.92502e-313
-2.00753e-312
1.10094e-312
-7.56981e-312
4.23916e-312
-2.91969e-311
1.66974e-311
-1.15179e-310
6.72803e-311
-4.64708e-310
2.77389e-310
-1.91776e-309
1.17078e-309
-8.09771e-309
5.06363e-309
-3.5011e-308
2.24766e-308
-1.55203e-307
1.02632e-307
-7.06876e-307
4.83554e-307
-3.3171e-306
2.3591e-306
-1.60925e-305
1.19594e-305
-8.1018e-305
6.31761e-305
-4.25052e-304
3.48225e-304
-2.33356e-303
2.00054e-303
-1.34079e-302
1.19073e-302
-7.93297e-302
7.22377e-302
-4.6212e-301
4.32483e-301
-2.52814e-300
2.47269e-300
-1.33457e-299
1.37589e-299
-7.42003e-299
8.02696e-299
-4.48054e-298
5.10009e-298
-2.80958e-297
3.40333e-297
-1.73376e-296
2.25889e-296
-1.02593e-295
1.44472e-295
-5.52557e-295
8.62507e-295
-2.53599e-294
5.1693e-294
-8.32754e-294
2.16715e-293
-3.43942e-293
7.34711e-293
-1.4169e-292
3.18227e-292
-3.71231e-292
1.25962e-291
-4.90715e-292
3.17449e-291
-1.38735e-291
4.45556e-291
-6.15129e-291
1.34547e-290
-3.26432e-290
5.98801e-290
-2.15778e-289
3.0879e-289
-1.72309e-288
2.01103e-288
-1.45854e-287
1.62412e-287
-1.23284e-286
1.39738e-286
-1.01393e-285
1.18664e-285
-7.96604e-285
9.71006e-285
-5.93241e-284
7.57306e-284
-4.17096e-283
5.60375e-283
-2.74781e-282
3.91384e-282
-1.66843e-281
2.55289e-281
1.52755e-280
-3.42383e-314
1.68878e-314
-1.15868e-313
6.02441e-314
-4.00073e-313
2.12949e-313
-1.41224e-312
7.68183e-313
-5.09751e-312
2.83299e-312
-1.88161e-311
1.06823e-311
-7.10362e-311
4.11889e-311
-2.74335e-310
1.62446e-310
-1.08403e-309
6.55635e-310
-4.38446e-309
2.71004e-309
-1.81608e-308
1.14859e-308
-7.71009e-308
5.00019e-308
-3.35923e-307
2.2411e-307
-1.50482e-306
1.03723e-306
-6.94847e-306
4.97373e-306
-3.31752e-305
2.47921e-305
-1.64379e-304
1.28799e-304
-8.48769e-304
6.98266e-304
-4.58541e-303
3.94547e-303
-2.59071e-302
2.30924e-302
-1.50626e-301
1.37769e-301
-8.645e-301
8.13004e-301
-4.69856e-300
4.61292e-300
-2.47961e-299
2.56535e-299
-1.37548e-298
1.49541e-298
-8.26528e-298
9.45823e-298
-5.16569e-297
6.28246e-297
-3.1878e-296
4.16032e-296
-1.88985e-295
2.6589e-295
-1.02172e-294
1.5879e-294
-4.78683e-294
9.56864e-294
-1.66749e-293
4.11846e-293
-7.02627e-293
1.48201e-292
-2.94311e-292
6.53784e-292
-8.09771e-292
2.62984e-291
-1.27116e-291
6.94925e-291
-3.90355e-291
1.15421e-290
-1.82902e-290
3.77882e-290
-1.04763e-289
1.77645e-289
-7.33218e-289
9.88599e-289
-5.92332e-288
6.8188e-288
-4.99303e-287
5.57572e-287
-4.2001e-286
4.78098e-286
-3.4372e-285
4.04128e-285
-2.68549e-284
3.28985e-284
-1.9875e-283
2.55091e-283
-1.38798e-282
1.87554e-282
-9.07854e-282
1.30094e-281
-5.46986e-281
8.4228e-281
4.99927e-280
-9.49063e-314
4.73065e-314
-3.14934e-313
1.65754e-313
-1.06504e-312
5.74483e-313
-3.67859e-312
2.02969e-312
-1.29812e-311
7.32406e-312
-4.68162e-311
2.69995e-311
-1.72624e-310
1.01715e-310
-6.51106e-310
3.91804e-310
-2.5138e-309
1.54443e-309
-9.94188e-309
6.23708e-309
-4.03144e-308
2.58461e-308
-1.67792e-307
1.1013e-307
-7.17752e-307
4.83759e-307
-3.16086e-306
2.19715e-306
-1.43618e-305
1.03512e-305
-6.75113e-305
5.07369e-305
-3.29429e-304
2.59344e-304
-1.67528e-303
1.38376e-303
-8.91157e-303
7.69514e-303
-4.95378e-302
4.43171e-302
-2.83198e-301
2.60184e-301
-1.60233e-300
1.51439e-300
-8.65252e-300
8.52879e-300
-4.56534e-299
4.73869e-299
-2.52834e-298
2.76004e-298
-1.51277e-297
1.73854e-297
-9.42488e-297
1.14982e-296
-5.81635e-296
7.59843e-296
-3.45439e-295
4.85414e-295
-1.87448e-294
2.90057e-294
-8.95037e-294
1.7573e-293
-3.27947e-293
7.74871e-293
-1.41151e-292
2.93472e-292
-6.03455e-292
1.32063e-291
-1.75252e-291
5.42048e-291
-3.21349e-291
1.50948e-290
-1.06625e-290
2.91737e-290
-5.30793e-290
1.02973e-289
-3.26801e-289
5.14058e-289
-2.39427e-288
3.07488e-288
-1.94825e-287
2.22111e-287
-1.63484e-286
1.83113e-286
-1.36857e-285
1.56432e-285
-1.11441e-284
1.31621e-284
-8.65835e-284
1.06593e-283
-6.36789e-283
8.21687e-283
-4.41691e-282
6.00262e-282
-2.86813e-281
4.13482e-281
-1.71457e-280
2.65698e-280
1.56414e-279
-2.65621e-313
1.33808e-313
-8.64207e-313
4.60507e-313
-2.86162e-312
1.5648e-312
-9.66578e-312
5.41317e-312
-3.33182e-311
1.91023e-311
-1.17257e-310
6.87873e-311
-4.21589e-310
2.52884e-310
-1.54991e-309
9.49862e-310
-5.83278e-309
3.64947e-309
-2.24993e-308
1.43657e-308
-8.90898e-308
5.8059e-308
-3.62685e-307
2.41537e-307
-1.52043e-306
1.03747e-306
-6.57449e-306
4.61591e-306
-2.93783e-305
2.13405e-305
-1.35969e-304
1.02806e-304
-6.53665e-304
5.17047e-304
-3.27573e-303
2.71609e-303
-1.71667e-302
1.48729e-302
-9.39274e-302
8.43236e-302
-5.28225e-301
4.87418e-301
-2.94704e-300
2.79912e-300
-1.58071e-299
1.5645e-299
-8.33609e-299
8.67897e-299
-4.61067e-298
5.04957e-298
-2.74799e-297
3.16849e-297
-1.70687e-296
2.08694e-296
-1.05332e-295
1.37646e-295
-6.26692e-295
8.79159e-295
-3.4133e-294
5.25784e-294
-1.65892e-293
3.20265e-293
-6.35256e-293
1.44424e-292
-2.79521e-292
5.72101e-292
-1.22295e-291
2.62926e-291
-3.75862e-291
1.10437e-290
-7.92812e-291
3.24956e-290
-2.83964e-290
7.19541e-290
-1.50782e-289
2.73449e-289
-9.91377e-289
1.45521e-288
-7.52516e-288
9.29609e-288
-6.14663e-287
6.96133e-287
-5.13302e-286
5.76713e-286
-4.27605e-285
4.90749e-285
-3.46456e-284
4.11008e-284
-2.67666e-283
3.31128e-283
-1.95618e-282
2.53756e-282
-1.34757e-281
1.84176e-281
-8.68649e-281
1.25981e-280
-5.15168e-280
8.034e-280
4.69034e-279
-7.49539e-313
3.81376e-313
-2.39268e-312
1.29004e-312
-7.76237e-312
4.3007e-312
-2.56524e-311
1.45761e-311
-8.63911e-311
5.03259e-311
-2.9664e-310
1.7706e-310
-1.03931e-309