/*--------------------------------*- C++ -*----------------------------------*\
  =========                 |
  \\      /  F ield         | OpenFOAM: The Open Source CFD Toolbox
   \\    /   O peration     | Website:  https://openfoam.org
    \\  /    A nd           | Version:  9
     \\/     M anipulation  |
\*---------------------------------------------------------------------------*/
FoamFile
{
    format      ascii;
    class       volScalarField;
    location    "0.08";
    object      p;
}
// * * * * * * * * * * * * * * * * * * * * * * * * * * * * * * * * * * * * * //

dimensions      [1 -1 -2 0 0 0 0];

internalField   nonuniform List<scalar> 
5000
(
1.47805
1.47799
1.47779
1.47748
1.47702
1.47642
1.47561
1.47457
1.47324
1.47156
1.46951
1.46701
1.46383
1.45947
1.45308
1.44368
1.43033
1.41214
1.38814
1.35749
1.32638
1.30145
1.10318
1.03776
1.2308
1.27491
1.32312
1.34783
1.35939
1.36445
1.4534
1.13315
1.4037
1.393
1.45069
1.46091
1.45905
1.45508
1.45723
1.46134
1.46313
1.46255
1.46153
1.46137
1.46207
1.46322
1.46468
1.46656
1.46911
1.47205
1.47597
1.47568
1.47526
1.47468
1.47392
1.47294
1.47167
1.47003
1.46791
1.4652
1.46177
1.45757
1.45257
1.44676
1.43996
1.4318
1.4217
1.40907
1.39349
1.37389
1.35383
1.33781
1.25263
1.19978
1.26258
1.29774
1.34154
1.36329
1.37983
1.37892
1.46515
1.22352
1.40117
1.39475
1.45168
1.4513
1.45473
1.45801
1.46232
1.46488
1.46518
1.465
1.46523
1.46594
1.46692
1.4681
1.46955
1.47138
1.4736
1.47564
1.4738
1.47324
1.47262
1.4719
1.47106
1.47005
1.46884
1.46737
1.4656
1.46347
1.46093
1.45793
1.45441
1.45027
1.44532
1.43938
1.43225
1.42387
1.41457
1.40349
1.39348
1.39308
1.34078
1.32289
1.36428
1.34937
1.37117
1.38288
1.39937
1.38738
1.46784
1.29474
1.43545
1.40063
1.45352
1.45165
1.45752
1.45983
1.46351
1.466
1.46685
1.46719
1.46756
1.46829
1.46929
1.47045
1.4718
1.47336
1.47508
1.47662
1.47182
1.47124
1.47062
1.46995
1.46919
1.46834
1.46737
1.46625
1.46497
1.4635
1.46182
1.45992
1.45773
1.45519
1.4522
1.44867
1.44459
1.44019
1.43623
1.43201
1.42925
1.4405
1.41354
1.4078
1.42745
1.39632
1.40446
1.40558
1.41961
1.40349
1.4757
1.35576
1.45851
1.41312
1.4597
1.45496
1.46125
1.46205
1.46496
1.46737
1.46863
1.46926
1.46963
1.47035
1.47132
1.47244
1.47369
1.47504
1.47645
1.47774
1.4699
1.46942
1.46892
1.46838
1.4678
1.46716
1.46645
1.46566
1.46478
1.4638
1.46271
1.46152
1.46022
1.4588
1.45728
1.45568
1.45408
1.45273
1.45246
1.45269
1.45381
1.46947
1.46008
1.45695
1.4592
1.42967
1.43207
1.42684
1.43859
1.42247
1.48294
1.40293
1.47122
1.42813
1.46633
1.45833
1.46488
1.46513
1.46753
1.46944
1.47066
1.47145
1.47203
1.4728
1.47374
1.4748
1.47595
1.47716
1.47835
1.47942
1.46801
1.46769
1.46735
1.46699
1.4666
1.46619
1.46574
1.46526
1.46473
1.46416
1.46356
1.46294
1.46232
1.46175
1.46128
1.46099
1.46101
1.46155
1.46341
1.46639
1.47025
1.48597
1.48469
1.48238
1.4783
1.4536
1.45258
1.44437
1.45432
1.43974
1.48915
1.43551
1.48019
1.44226
1.47205
1.46204
1.46859
1.46845
1.4705
1.47188
1.47294
1.47381
1.47455
1.47538
1.47631
1.47732
1.47839
1.47949
1.48053
1.48141
1.46613
1.46598
1.46583
1.46566
1.46549
1.46532
1.46513
1.46494
1.46474
1.46455
1.46438
1.46426
1.46422
1.46431
1.46461
1.46522
1.46629
1.46801
1.47109
1.47568
1.48135
1.49546
1.49746
1.49638
1.49157
1.47121
1.46788
1.45851
1.46704
1.454
1.49441
1.45764
1.48735
1.45434
1.47707
1.46638
1.47243
1.47163
1.47339
1.47438
1.47534
1.47619
1.477
1.47786
1.47878
1.47976
1.48078
1.48179
1.48272
1.4835
1.46425
1.46428
1.46431
1.46435
1.46439
1.46444
1.4645
1.46457
1.46467
1.4648
1.46499
1.46527
1.46569
1.46629
1.46715
1.4684
1.4702
1.47271
1.47648
1.48183
1.48826
1.50029
1.5039
1.50414
1.5
1.4835
1.47924
1.46978
1.47678
1.46588
1.49853
1.47299
1.49281
1.46435
1.48151
1.47092
1.47619
1.47468
1.47619
1.47687
1.47775
1.47857
1.47937
1.48024
1.48116
1.48211
1.48309
1.48405
1.48492
1.48564
1.46237
1.46256
1.46277
1.46298
1.46321
1.46347
1.46374
1.46405
1.46439
1.46478
1.46525
1.46583
1.46657
1.46753
1.46879
1.47047
1.47274
1.47573
1.47984
1.48542
1.49197
1.502
1.50632
1.50746
1.50426
1.49129
1.48725
1.47852
1.48437
1.47514
1.50151
1.48368
1.49681
1.4725
1.48526
1.47518
1.4797
1.47765
1.47894
1.47935
1.48016
1.48092
1.48172
1.48259
1.4835
1.48445
1.4854
1.48633
1.48717
1.48787
1.46048
1.46082
1.46117
1.46155
1.46194
1.46237
1.46283
1.46332
1.46386
1.46445
1.46513
1.46592
1.46688
1.46808
1.46959
1.47152
1.47404
1.47727
1.48149
1.48705
1.4935
1.50195
1.50629
1.50775
1.50545
1.49567
1.49243
1.48481
1.48948
1.4826
1.50362
1.49105
1.49971
1.47899
1.4883
1.47897
1.48286
1.48049
1.48162
1.4818
1.48255
1.48326
1.48406
1.48494
1.48586
1.48681
1.48775
1.48866
1.48949
1.49018
1.45858
1.45904
1.45952
1.46003
1.46056
1.46113
1.46174
1.46238
1.46307
1.46382
1.46465
1.46559
1.4667
1.46804
1.46969
1.47176
1.47439
1.4777
1.48194
1.48738
1.4937
1.50103
1.50501
1.50633
1.50474
1.4977
1.49547
1.4891
1.49315
1.48789
1.50491
1.49603
1.50175
1.48404
1.4907
1.4823
1.48566
1.48313
1.48417
1.48417
1.4849
1.48558
1.48638
1.48727
1.48821
1.48917
1.49012
1.49104
1.49187
1.49258
1.45667
1.45723
1.45783
1.45844
1.45909
1.45977
1.46048
1.46125
1.46205
1.46292
1.46386
1.46491
1.46611
1.46754
1.46926
1.47138
1.47404
1.47737
1.48157
1.4869
1.49308
1.49967
1.50316
1.50412
1.50304
1.49824
1.49698
1.49187
1.49551
1.49152
1.50549
1.49927
1.50311
1.48792
1.49257
1.48518
1.48811
1.48556
1.48655
1.48645
1.48718
1.48784
1.48867
1.48959
1.49055
1.49153
1.49251
1.49344
1.4943
1.49503
1.45475
1.4554
1.45608
1.45679
1.45752
1.45829
1.45909
1.45994
1.46084
1.46179
1.46282
1.46394
1.4652
1.46666
1.46841
1.47054
1.47319
1.47649
1.48063
1.48584
1.49188
1.49794
1.50098
1.5016
1.50092
1.49786
1.4974
1.49357
1.49672
1.49389
1.50545
1.5012
1.5039
1.49084
1.49402
1.48763
1.4902
1.48777
1.48876
1.48862
1.48938
1.49005
1.49092
1.49187
1.49287
1.4939
1.49491
1.49588
1.49677
1.49754
1.45282
1.45355
1.45431
1.45508
1.45588
1.45672
1.45759
1.4585
1.45946
1.46048
1.46156
1.46273
1.46403
1.46551
1.46725
1.46936
1.47197
1.47522
1.47928
1.48434
1.49018
1.49581
1.49852
1.49896
1.49869
1.49694
1.49701
1.49442
1.49712
1.49526
1.50489
1.50214
1.50419
1.49297
1.49511
1.48969
1.49198
1.48976
1.4908
1.49068
1.49151
1.4922
1.49312
1.49413
1.49518
1.49626
1.49732
1.49834
1.49928
1.5001
1.45089
1.45168
1.45249
1.45332
1.45418
1.45506
1.45598
1.45695
1.45795
1.45901
1.46014
1.46134
1.46266
1.46415
1.46588
1.46795
1.47051
1.47368
1.47763
1.48252
1.48809
1.49332
1.49582
1.49631
1.49648
1.4957
1.49602
1.49468
1.49686
1.49584
1.50395
1.50233
1.50404
1.49446
1.49591
1.4914
1.49346
1.49155
1.49267
1.49263
1.49355
1.49429
1.49529
1.49636
1.49749
1.49863
1.49975
1.50083
1.50184
1.50272
1.44895
1.44979
1.45064
1.45152
1.45241
1.45334
1.4543
1.4553
1.45634
1.45744
1.45859
1.45982
1.46115
1.46264
1.46436
1.4664
1.46889
1.47198
1.4758
1.48047
1.48573
1.49056
1.49297
1.49369
1.49429
1.49427
1.49476
1.49423
1.49622
1.49584
1.50275
1.502
1.50357
1.49545
1.49648
1.49281
1.49469
1.49314
1.49439
1.49449
1.4955
1.49633
1.49742
1.49858
1.49978
1.501
1.5022
1.50335
1.50443
1.50539
1.447
1.44787
1.44876
1.44967
1.4506
1.45157
1.45256
1.45359
1.45466
1.45578
1.45695
1.4582
1.45954
1.46103
1.46274
1.46475
1.46719
1.47018
1.47386
1.4783
1.4832
1.48765
1.49006
1.4911
1.4921
1.49265
1.49335
1.4933
1.49529
1.49541
1.50142
1.50131
1.50286
1.49605
1.49686
1.49396
1.49571
1.49456
1.49597
1.49625
1.49738
1.49831
1.49951
1.50076
1.50207
1.50338
1.50466
1.5059
1.50707
1.50811
1.44505
1.44594
1.44686
1.4478
1.44876
1.44976
1.45078
1.45184
1.45293
1.45406
1.45525
1.4565
1.45786
1.45935
1.46105
1.46303
1.46542
1.46832
1.47185
1.47606
1.48063
1.48472
1.48716
1.48853
1.48986
1.49084
1.49177
1.49214
1.49415
1.49467
1.50001
1.50039
1.50201
1.49637
1.49709
1.4949
1.49656
1.49583
1.49743
1.49792
1.49919
1.50024
1.50157
1.50293
1.50435
1.50576
1.50714
1.50848
1.50974
1.51087
1.4431
1.44401
1.44495
1.44591
1.4469
1.44791
1.44896
1.45004
1.45115
1.4523
1.4535
1.45476
1.45612
1.45761
1.4593
1.46126
1.46359
1.46642
1.46982
1.47381
1.47807
1.48186
1.48432
1.48597
1.48757
1.48887
1.49006
1.4908
1.49285
1.49373
1.49857
1.49934
1.50109
1.49648
1.49721
1.49567
1.49729
1.49698
1.4988
1.49952
1.50094
1.50212
1.50359
1.50508
1.50662
1.50815
1.50964
1.51109
1.51245
1.51369
1.44115
1.44208
1.44303
1.44401
1.44501
1.44605
1.44711
1.44821
1.44934
1.4505
1.45171
1.45299
1.45435
1.45584
1.45751
1.45945
1.46174
1.4645
1.46778
1.47158
1.47559
1.47913
1.4816
1.48344
1.48523
1.4868
1.48825
1.48934
1.49145
1.49266
1.49713
1.49822
1.50013
1.49646
1.49725
1.49631
1.49793
1.49802
1.50008
1.50105
1.50263
1.50397
1.50558
1.50721
1.50889
1.51054
1.51216
1.51373
1.51521
1.51655
1.4392
1.44014
1.4411
1.44209
1.44311
1.44416
1.44524
1.44636
1.4475
1.44868
1.4499
1.45119
1.45256
1.45405
1.45571
1.45763
1.45988
1.46257
1.46576
1.46941
1.47322
1.47656
1.47901
1.48096
1.48288
1.48468
1.48639
1.48779
1.49
1.49151
1.49571
1.49709
1.49917
1.49633
1.49724
1.49686
1.4985
1.499
1.50131
1.50253
1.50428
1.50578
1.50755
1.50933
1.51115
1.51295
1.51471
1.5164
1.518
1.51946
1.43724
1.43819
1.43917
1.44017
1.4412
1.44227
1.44336
1.44449
1.44565
1.44684
1.44808
1.44938
1.45075
1.45224
1.4539
1.4558
1.45802
1.46067
1.46378
1.46729
1.47097
1.47414
1.47655
1.47855
1.48055
1.48255
1.4845
1.4862
1.48853
1.49032
1.49433
1.49595
1.49822
1.49616
1.49722
1.49735
1.49904
1.49992
1.50248
1.50397
1.50589
1.50755
1.50949
1.51144
1.51342
1.51537
1.51727
1.51911
1.52085
1.52244
1.43529
1.43625
1.43724
1.43825
1.43929
1.44037
1.44148
1.44262
1.44379
1.445
1.44625
1.44755
1.44894
1.45043
1.45209
1.45398
1.45618
1.45879
1.46186
1.4653
1.46881
1.47187
1.47423
1.47623
1.47827
1.48046
1.48264
1.4846
1.48706
1.48911
1.493
1.49483
1.49727
1.49596
1.49723
1.49778
1.49955
1.50082
1.50362
1.50538
1.50747
1.50931
1.51142
1.51354
1.5157
1.51781
1.51987
1.52185
1.52374
1.52546
1.43333
1.4343
1.4353
1.43633
1.43738
1.43847
1.43959
1.44074
1.44192
1.44314
1.4444
1.44572
1.44712
1.44862
1.45028
1.45216
1.45436
1.45694
1.45996
1.46334
1.46677
1.46975
1.47205
1.47401
1.47609
1.47843
1.48082
1.48302
1.4856
1.48789
1.4917
1.49374
1.49635
1.49574
1.49733
1.49817
1.50005
1.50169
1.50474
1.50675
1.50902
1.51104
1.51334
1.51564
1.51797
1.52026
1.52248
1.52463
1.52668
1.52854
1.43138
1.43236
1.43338
1.43441
1.43548
1.43658
1.43771
1.43887
1.44006
1.44129
1.44256
1.44388
1.44529
1.4468
1.44846
1.45035
1.45255
1.45512
1.45812
1.46146
1.46483
1.46775
1.47
1.47192
1.47404
1.47652
1.47909
1.48148
1.48417
1.48665
1.49043
1.49267
1.49545
1.49557
1.4974
1.49857
1.50055
1.50255
1.50583
1.5081
1.51054
1.51276
1.51525
1.51774
1.52026
1.52273
1.52513
1.52746
1.52966
1.53169
1.42942
1.43042
1.43145
1.4325
1.43358
1.43469
1.43582
1.43699
1.43819
1.43943
1.44071
1.44204
1.44345
1.44497
1.44665
1.44854
1.45075
1.45333
1.45632
1.45964
1.46297
1.46585
1.46808
1.47
1.47217
1.47477
1.47747
1.48
1.48276
1.48539
1.48918
1.49164
1.49461
1.49537
1.49753
1.49897
1.50108
1.50342
1.50691
1.50943
1.51206
1.51446
1.51715
1.51984
1.52256
1.52522
1.52781
1.53032
1.5327
1.53489
1.42747
1.42849
1.42953
1.43059
1.43168
1.4328
1.43395
1.43512
1.43633
1.43757
1.43886
1.4402
1.44161
1.44314
1.44482
1.44673
1.44895
1.45156
1.45457
1.45789
1.4612
1.46407
1.46629
1.46828
1.47053
1.47321
1.47599
1.4786
1.48139
1.48412
1.48795
1.49067
1.49383
1.49518
1.49768
1.49939
1.50165
1.50429
1.50798
1.51074
1.51355
1.51616
1.51904
1.52194
1.52487
1.52773
1.53052
1.53322
1.5358
1.53816
1.42552
1.42655
1.42761
1.42869
1.42979
1.43092
1.43207
1.43326
1.43447
1.43572
1.43701
1.43835
1.43977
1.4413
1.44299
1.44492
1.44716
1.4498
1.45286
1.45621
1.45952
1.46239
1.46468
1.46676
1.4691
1.47185
1.47465
1.47728
1.48006
1.48284
1.48674
1.48975
1.49315
1.49497
1.49782
1.49982
1.50225
1.50518
1.50904
1.51204
1.51503
1.51784
1.52093
1.52405
1.52719
1.53026
1.53326
1.53617
1.53894
1.5415
1.42357
1.42462
1.4257
1.42678
1.4279
1.42904
1.43021
1.4314
1.43262
1.43387
1.43516
1.43651
1.43793
1.43946
1.44116
1.4431
1.44537
1.44807
1.4512
1.45462
1.45796
1.46084
1.46321
1.46542
1.46789
1.47067
1.47344
1.47606
1.47879
1.4816
1.48556
1.48891
1.49262
1.4947
1.49794
1.50028
1.50289
1.50607
1.51009
1.51331
1.51649
1.51951
1.52281
1.52616
1.52953
1.53282
1.53604
1.53916
1.54215
1.5449
1.42162
1.42269
1.42379
1.42489
1.42602
1.42717
1.42835
1.42955
1.43078
1.43203
1.43333
1.43467
1.43609
1.43762
1.43933
1.44129
1.44361
1.44637
1.44961
1.45313
1.45653
1.45944
1.46189
1.46424
1.46683
1.46963
1.47235
1.47491
1.47759
1.48042
1.48445
1.48811
1.49199
1.4946
1.49807
1.50074
1.50356
1.50697
1.51113
1.51456
1.51794
1.52116
1.52469
1.52827
1.53188
1.53541
1.53886
1.54221
1.54541
1.54838
1.41968
1.42077
1.42188
1.423
1.42415
1.42532
1.42651
1.42772
1.42895
1.43021
1.43151
1.43285
1.43427
1.43581
1.43752
1.43951
1.44188
1.44474
1.44811
1.45176
1.45524
1.45818
1.46068
1.46317
1.46586
1.46865
1.47132
1.47384
1.47646
1.47931
1.48339
1.48736
1.49149
1.49447
1.49818
1.5012
1.50426
1.50788
1.51215
1.51579
1.51937
1.52281
1.52656
1.53039
1.53425
1.53802
1.54171
1.5453
1.54874
1.55192
1.41773
1.41885
1.41999
1.42113
1.42229
1.42347
1.42468
1.4259
1.42715
1.42842
1.42972
1.43107
1.43249
1.43403
1.43577
1.43779
1.44023
1.44321
1.44673
1.45052
1.45408
1.45704
1.45957
1.46213
1.46489
1.46769
1.47032
1.47281
1.47541
1.47828
1.4824
1.48662
1.49107
1.49433
1.49828
1.50164
1.50497
1.50877
1.51314
1.51699
1.52077
1.52444
1.52842
1.53251
1.53663
1.54065
1.5446
1.54844
1.55213
1.55555
1.41579
1.41693
1.41809
1.41926
1.42044
1.42164
1.42287
1.42411
1.42537
1.42666
1.42797
1.42933
1.43076
1.43233
1.43409
1.43618
1.43871
1.44182
1.44548
1.44941
1.45305
1.45602
1.45852
1.46108
1.46388
1.4667
1.46933
1.47182
1.47441
1.47733
1.48149
1.486
1.4906
1.49417
1.49835
1.50206
1.50566
1.50963
1.5141
1.51815
1.52215
1.52604
1.53028
1.53463
1.53902
1.54331
1.54753
1.55164
1.55559
1.55925
1.41385
1.41502
1.41621
1.4174
1.4186
1.41983
1.42108
1.42234
1.42363
1.42493
1.42627
1.42765
1.42912
1.43072
1.43254
1.4347
1.43734
1.44058
1.44439
1.44842
1.45211
1.45506
1.45751
1.46002
1.46281
1.46567
1.46834
1.47084
1.47346
1.47643
1.48062
1.48537
1.49014
1.49399
1.4984
1.50245
1.50633
1.51046
1.51502
1.51929
1.5235
1.52763
1.53211
1.53675
1.54142
1.546
1.55049
1.55488
1.55911
1.56303
1.41191
1.41312
1.41434
1.41555
1.41678
1.41803
1.41931
1.4206
1.42191
1.42325
1.42462
1.42604
1.42756
1.42922
1.43112
1.43338
1.43614
1.43951
1.44342
1.44751
1.45121
1.45413
1.4565
1.45895
1.46173
1.46463
1.46734
1.46988
1.47252
1.47554
1.47977
1.48472
1.48966
1.4938
1.49843
1.50278
1.50694
1.51123
1.51591
1.52038
1.52482
1.52918
1.53393
1.53887
1.54383
1.5487
1.55349
1.55817
1.56269
1.56688
1.40999
1.41123
1.41248
1.41371
1.41497
1.41625
1.41755
1.41888
1.42023
1.42161
1.42303
1.42451
1.42609
1.42783
1.42983
1.43221
1.4351
1.43857
1.44254
1.44664
1.4503
1.45318
1.4555
1.45789
1.46066
1.4636
1.46635
1.46892
1.47158
1.47465
1.47892
1.48405
1.48915
1.49356
1.49842
1.50305
1.50747
1.51194
1.51675
1.52144
1.5261
1.53071
1.53573
1.54097
1.54625
1.55143
1.55652
1.56151
1.56633
1.5708
1.40828
1.40943
1.41063
1.41187
1.41315
1.41446
1.41581
1.41718
1.41857
1.42001
1.42149
1.42304
1.42471
1.42655
1.42866
1.43116
1.43416
1.43771
1.44169
1.44574
1.44934
1.45219
1.45449
1.45686
1.45964
1.46261
1.46539
1.46796
1.47062
1.47372
1.47804
1.48334
1.48857
1.49328
1.49838
1.50325
1.50792
1.51258
1.51754
1.52246
1.52734
1.5322
1.53751
1.54307
1.54867
1.55417
1.55958
1.56489
1.57002
1.5748
1.40641
1.40756
1.40878
1.41005
1.41136
1.4127
1.41408
1.41549
1.41694
1.41843
1.41999
1.42162
1.42338
1.42533
1.42756
1.43018
1.43327
1.43686
1.44081
1.44477
1.44829
1.45112
1.45345
1.45586
1.45866
1.46166
1.46444
1.46699
1.46964
1.47276
1.47715
1.48259
1.48793
1.49294
1.49828
1.50335
1.50827
1.51315
1.51829
1.52344
1.52855
1.53366
1.53925
1.54516
1.55109
1.55692
1.56266
1.56831
1.57378
1.57886
1.40431
1.40552
1.4068
1.40813
1.40949
1.41089
1.41232
1.41379
1.4153
1.41686
1.41849
1.42022
1.42208
1.42414
1.42649
1.42921
1.43237
1.43596
1.43983
1.44368
1.44712
1.44995
1.45236
1.45484
1.45769
1.4607
1.46347
1.46599
1.46862
1.47177
1.47625
1.4818
1.48723
1.49253
1.49812
1.50337
1.50852
1.51363
1.51898
1.52437
1.52971
1.53507
1.54097
1.54722
1.55351
1.55968
1.56576
1.57176
1.57757
1.58298
1.40228
1.40348
1.40481
1.40618
1.40759
1.40903
1.41052
1.41205
1.41363
1.41527
1.41698
1.4188
1.42077
1.42293
1.42538
1.42818
1.43138
1.43493
1.4387
1.44243
1.4458
1.44865
1.45116
1.45374
1.45664
1.45966
1.46242
1.46494
1.46757
1.47076
1.47535
1.48098
1.48646
1.49205
1.49789
1.50329
1.50867
1.51404
1.51961
1.52526
1.53082
1.53644
1.54265
1.54926
1.55591
1.56244
1.56888
1.57524
1.58141
1.58716
1.40031
1.40156
1.40291
1.4043
1.40573
1.4072
1.40872
1.4103
1.41194
1.41365
1.41544
1.41734
1.4194
1.42167
1.4242
1.42705
1.43024
1.43373
1.43739
1.44099
1.44429
1.44719
1.4498
1.45248
1.45543
1.45846
1.46123
1.46379
1.46647
1.46974
1.47445
1.48012
1.48564
1.4915
1.49759
1.50312
1.50872
1.51436
1.5202
1.5261
1.53188
1.53776
1.54429
1.55128
1.5583
1.56519
1.572
1.57873
1.58528
1.59138
1.39825
1.39954
1.40091
1.40233
1.40379
1.40531
1.40688
1.4085
1.41019
1.41197
1.41383
1.41581
1.41795
1.42029
1.42288
1.42575
1.42892
1.43232
1.43585
1.43933
1.44258
1.44552
1.44823
1.451
1.45398
1.45703
1.45986
1.46251
1.46531
1.46871
1.47356
1.47924
1.48477
1.49088
1.49721
1.50286
1.50868
1.51461
1.52072
1.52688
1.53289
1.53902
1.54589
1.55326
1.56067
1.56793
1.57512
1.58224
1.58917
1.59563
1.39625
1.39757
1.39895
1.40037
1.40185
1.40339
1.40499
1.40665
1.40839
1.41021
1.41214
1.41418
1.41638
1.41877
1.42139
1.42426
1.42737
1.43067
1.43407
1.43744
1.44064
1.44361
1.44642
1.44925
1.45226
1.45533
1.45825
1.46106
1.46407
1.46766
1.47268
1.47832
1.48386
1.49023
1.49672
1.5025
1.50854
1.51477
1.52118
1.52761
1.53384
1.54023
1.54744
1.55521
1.563
1.57065
1.57822
1.58574
1.59307
1.59991
1.39426
1.39559
1.39697
1.3984
1.39989
1.40144
1.40306
1.40475
1.40652
1.40837
1.41034
1.41243
1.41467
1.41709
1.41971
1.42254
1.42558
1.42877
1.43204
1.4353
1.43846
1.44147
1.44435
1.44725
1.45027
1.45336
1.4564
1.45944
1.46273
1.46658
1.47179
1.47737
1.4829
1.4895
1.49617
1.50206
1.50831
1.51486
1.52158
1.52828
1.53473
1.54138
1.54894
1.5571
1.56529
1.57333
1.5813
1.58923
1.59696
1.6042
1.39228
1.39359
1.39497
1.3964
1.39789
1.39944
1.40107
1.40277
1.40456
1.40644
1.40843
1.41054
1.41279
1.41521
1.41781
1.42059
1.42354
1.42661
1.42976
1.43292
1.43604
1.43908
1.44204
1.44499
1.44802
1.45113
1.4543
1.45762
1.46125
1.46543
1.47086
1.47637
1.4819
1.48869
1.49554
1.50154
1.508
1.51486
1.52191
1.52888
1.53555
1.54246
1.55037
1.55895
1.56754
1.57597
1.58435
1.59269
1.60085
1.60849
1.39029
1.39159
1.39295
1.39437
1.39585
1.3974
1.39902
1.40072
1.40251
1.40439
1.40638
1.4085
1.41074
1.41314
1.4157
1.41841
1.42127
1.42422
1.42725
1.43032
1.4334
1.43647
1.4395
1.44251
1.44554
1.44866
1.45196
1.45557
1.45962
1.46419
1.46985
1.47528
1.48085
1.48782
1.49481
1.50092
1.50759
1.51477
1.52216
1.52941
1.53629
1.54347
1.55175
1.56073
1.56972
1.57855
1.58734
1.59611
1.6047
1.61276
1.3883
1.38957
1.39091
1.39231
1.39377
1.3953
1.39691
1.39859
1.40037
1.40224
1.40421
1.40631
1.40853
1.41088
1.41338
1.41602
1.41877
1.42161
1.42453
1.42751
1.43055
1.43363
1.43673
1.43979
1.44283
1.44594
1.44936
1.45329
1.45779
1.46281
1.46872
1.47409
1.47972
1.48687
1.49397
1.5002
1.50707
1.51458
1.52232
1.52985
1.53695
1.5444
1.55305
1.56244
1.57183
1.58107
1.59027
1.59948
1.60851
1.617
1.38631
1.38755
1.38885
1.39022
1.39166
1.39316
1.39473
1.39639
1.39813
1.39997
1.40192
1.40397
1.40615
1.40845
1.41087
1.41342
1.41607
1.41881
1.42162
1.42451
1.42749
1.43058
1.43372
1.43683
1.43985
1.44295
1.44648
1.45074
1.45574
1.46126
1.46743
1.47277
1.47851
1.48581
1.49302
1.49936
1.50644
1.51428
1.52237
1.53019
1.53752
1.54525
1.55427
1.56407
1.57386
1.58351
1.59313
1.60278
1.61226
1.62119
1.38432
1.38552
1.38678
1.38811
1.38951
1.39097
1.3925
1.39412
1.39582
1.39761
1.3995
1.4015
1.40362
1.40585
1.40819
1.41064
1.41319
1.41582
1.41853
1.42133
1.42425
1.42731
1.43046
1.43356
1.43656
1.43964
1.44328
1.4479
1.45343
1.45948
1.46594
1.47129
1.47717
1.48463
1.49193
1.49839
1.50569
1.51385
1.52232
1.53042
1.53799
1.54601
1.5554
1.56561
1.5758
1.58584
1.5959
1.60599
1.61593
1.62533
1.38233
1.38348
1.3847
1.38598
1.38733
1.38874
1.39022
1.39178
1.39342
1.39516
1.39699
1.39892
1.40095
1.4031
1.40535
1.40771
1.41015
1.41267
1.41528
1.41798
1.42082
1.42381
1.42691
1.42996
1.4329
1.43596
1.43972
1.44473
1.45084
1.45745
1.46421
1.46962
1.47569
1.4833
1.49069
1.49728
1.50478
1.5133
1.52213
1.53053
1.53835
1.54667
1.55644
1.56704
1.57762
1.58807
1.59855
1.60911
1.61952
1.62939
1.38034
1.38144
1.3826
1.38383
1.38512
1.38647
1.38789
1.38939
1.39096
1.39263
1.39438
1.39623
1.39818
1.40023
1.40238
1.40463
1.40696
1.40938
1.41187
1.41447
1.4172
1.42008
1.42306
1.426
1.42885
1.43188
1.4358
1.44123
1.44795
1.45512
1.46218
1.46773
1.47403
1.48181
1.48928
1.496
1.50371
1.51259
1.52181
1.5305
1.53858
1.54722
1.55736
1.56835
1.57932
1.59017
1.60109
1.61211
1.62301
1.63338
1.37835
1.37939
1.38049
1.38166
1.38289
1.38417
1.38553
1.38695
1.38845
1.39003
1.3917
1.39346
1.39531
1.39726
1.3993
1.40144
1.40366
1.40595
1.40833
1.41081
1.4134
1.41612
1.41892
1.42169
1.4244
1.42741
1.43151
1.4374
1.44476
1.45251
1.45987
1.4656
1.47218
1.48014
1.48769
1.49454
1.50247
1.51171
1.52133
1.53032
1.53867
1.54764
1.55815
1.56952
1.58087
1.59213
1.60349
1.61498
1.62638
1.63727
1.37636
1.37733
1.37838
1.37948
1.38064
1.38185
1.38313
1.38448
1.38589
1.38739
1.38896
1.39062
1.39237
1.39421
1.39613
1.39815
1.40025
1.40242
1.40467
1.407
1.40943
1.41195
1.41452
1.41706
1.4196
1.42259
1.42693
1.4333
1.44129
1.44959
1.45721
1.46324
1.47012
1.47827
1.48591
1.49289
1.50102
1.51066
1.52068
1.52997
1.5386
1.54791
1.5588
1.57053
1.58226
1.59394
1.60574
1.61772
1.62963
1.64106
1.37438
1.37527
1.37626
1.37729
1.37838
1.37952
1.38072
1.38198
1.38331
1.38471
1.38619
1.38774
1.38938
1.3911
1.39291
1.3948
1.39676
1.39881
1.40091
1.40309
1.40533
1.40761
1.40991
1.41218
1.41454
1.41753
1.42211
1.42901
1.43757
1.44638
1.45428
1.46061
1.46783
1.47619
1.48393
1.49102
1.49937
1.50941
1.51984
1.52943
1.53835
1.54802
1.55927
1.57138
1.58348
1.59556
1.60782
1.6203
1.63275
1.64474
1.37236
1.37323
1.37416
1.37512
1.37613
1.37719
1.37831
1.37948
1.38072
1.38202
1.38339
1.38484
1.38636
1.38797
1.38965
1.3914
1.39324
1.39514
1.39709
1.3991
1.40113
1.40316
1.40516
1.40716
1.40935
1.41236
1.41722
1.42455
1.43365
1.4429
1.45108
1.45774
1.46534
1.47391
1.48174
1.48894
1.4975
1.50797
1.51881
1.52868
1.53791
1.54794
1.55957
1.57202
1.58451
1.597
1.60972
1.62271
1.63572
1.64831
1.37031
1.37115
1.37201
1.37291
1.37385
1.37484
1.37587
1.37697
1.37812
1.37932
1.3806
1.38194
1.38335
1.38483
1.38638
1.388
1.3897
1.39145
1.39324
1.39507
1.39688
1.39866
1.40038
1.40211
1.40415
1.40721
1.41231
1.42005
1.42961
1.4392
1.44762
1.45466
1.46264
1.47141
1.47935
1.48664
1.49541
1.50631
1.51756
1.52771
1.53725
1.54766
1.55965
1.57246
1.58531
1.59823
1.61142
1.62494
1.63853
1.65174
1.36834
1.36909
1.36987
1.3707
1.37157
1.37249
1.37345
1.37446
1.37552
1.37664
1.37781
1.37905
1.38034
1.3817
1.38313
1.38462
1.38617
1.38777
1.3894
1.39104
1.39264
1.39418
1.39564
1.39714
1.39907
1.40219
1.40753
1.4156
1.42549
1.43533
1.44396
1.45139
1.45974
1.46872
1.47675
1.48412
1.49311
1.50444
1.51608
1.52651
1.53636
1.54714
1.5595
1.57266
1.58589
1.59922
1.6129
1.62697
1.64117
1.65504
1.36644
1.36709
1.3678
1.36855
1.36935
1.37019
1.37107
1.372
1.37297
1.37399
1.37507
1.37619
1.37738
1.37862
1.37992
1.38127
1.38268
1.38413
1.3856
1.38705
1.38846
1.38977
1.39102
1.39235
1.39421
1.39741
1.40296
1.41127
1.42135
1.43133
1.44013
1.44796
1.45666
1.46582
1.47396
1.48141
1.49062
1.50237
1.51436
1.52505
1.53522
1.54638
1.5591
1.57261
1.58621
1.59997
1.61415
1.62878
1.64362
1.65818
1.36446
1.36503
1.36568
1.36639
1.36713
1.3679
1.36871
1.36956
1.37045
1.37138
1.37236
1.37338
1.37446
1.37558
1.37675
1.37798
1.37924
1.38054
1.38185
1.38314
1.38436
1.3855
1.38658
1.38779
1.38963
1.39293
1.39863
1.40708
1.41723
1.42724
1.43618
1.44439
1.45341
1.46274
1.47099
1.47852
1.48794
1.50008
1.5124
1.52332
1.53381
1.54535
1.55844
1.57229
1.58626
1.60045
1.61514
1.63036
1.64586
1.66114
1.36222
1.36287
1.36355
1.36423
1.36492
1.36563
1.36638
1.36715
1.36796
1.36881
1.36969
1.37062
1.37159
1.3726
1.37365
1.37474
1.37587
1.37702
1.37817
1.3793
1.38038
1.38137
1.38234
1.38349
1.38535
1.38873
1.39454
1.40304
1.41314
1.4231
1.43215
1.44071
1.45
1.45949
1.46785
1.47547
1.48511
1.4976
1.51019
1.52132
1.53212
1.54404
1.55748
1.57167
1.58602
1.60064
1.61584
1.63168
1.64787
1.6639
1.36023
1.36085
1.36147
1.36208
1.36272
1.36338
1.36406
1.36477
1.36551
1.36627
1.36707
1.3679
1.36877
1.36966
1.3706
1.37156
1.37255
1.37356
1.37456
1.37555
1.3765
1.37739
1.37828
1.37942
1.38132
1.38479
1.39066
1.39911
1.40909
1.41894
1.42806
1.43692
1.44646
1.45609
1.46457
1.4723
1.48215
1.49492
1.50771
1.51903
1.53014
1.54243
1.55622
1.57073
1.58545
1.60052
1.61624
1.63271
1.64962
1.66643
1.35847
1.35898
1.3595
1.36004
1.36061
1.3612
1.36181
1.36245
1.36311
1.36379
1.3645
1.36524
1.366
1.36678
1.36759
1.36843
1.36928
1.37015
1.37102
1.37187
1.3727
1.37352
1.37438
1.37553
1.37748
1.38101
1.3869
1.39527
1.40507
1.41476
1.42393
1.43305
1.44279
1.45255
1.46116
1.46902
1.47906
1.49205
1.50497
1.51646
1.52785
1.54051
1.55463
1.56946
1.58454
1.60005
1.61631
1.63342
1.65108
1.66869
1.35665
1.35712
1.35759
1.35806
1.35856
1.35908
1.35962
1.36018
1.36076
1.36136
1.36198
1.36261
1.36327
1.36394
1.36463
1.36533
1.36605
1.36677
1.3675
1.36823
1.36896
1.36971
1.37055
1.37173
1.37373
1.3773
1.38318
1.39144
1.40105
1.41059
1.41977
1.42911
1.43901
1.44889
1.45764
1.46564
1.47587
1.48898
1.50196
1.51358
1.52526
1.53826
1.55269
1.56783
1.58326
1.5992
1.616
1.63378
1.65219
1.67064
1.35497
1.35526
1.35562
1.35604
1.35649
1.35695
1.35743
1.35793
1.35843
1.35895
1.35948
1.36003
1.36058
1.36113
1.3617
1.36226
1.36284
1.36341
1.364
1.3646
1.36523
1.36591
1.36672
1.36791
1.36994
1.37355
1.37941
1.38757
1.39701
1.4064
1.41559
1.4251
1.43513
1.44512
1.45401
1.46218
1.47255
1.4857
1.49868
1.5104
1.52234
1.53566
1.55039
1.56581
1.58159
1.59795
1.61529
1.63373
1.65293
1.67221
1.35312
1.35335
1.35368
1.35407
1.35446
1.35487
1.35528
1.35571
1.35614
1.35658
1.35702
1.35746
1.3579
1.35834
1.35877
1.3592
1.35962
1.36004
1.36047
1.36093
1.36144
1.36203
1.3628
1.36397
1.36601
1.36964
1.37552
1.38363
1.39294
1.4022
1.41138
1.42103
1.43117
1.44124
1.45027
1.45861
1.4691
1.48221
1.49511
1.50691
1.51909
1.5327
1.54769
1.56338
1.57948
1.59625
1.61412
1.63324
1.65322
1.67336
1.35097
1.35126
1.35163
1.35201
1.35237
1.35274
1.35311
1.35348
1.35384
1.35421
1.35456
1.3549
1.35524
1.35555
1.35584
1.35612
1.35638
1.35663
1.35689
1.35719
1.35755
1.35802
1.3587
1.35982
1.36186
1.36552
1.37146
1.37958
1.38883
1.39798
1.40716
1.41689
1.42711
1.43727
1.44643
1.45493
1.46549
1.47848
1.49125
1.50309
1.5155
1.52936
1.54458
1.56051
1.57691
1.59408
1.61247
1.63225
1.65302
1.67402
1.34887
1.34918
1.34954
1.34989
1.35024
1.35058
1.35091
1.35123
1.35154
1.35183
1.3521
1.35235
1.35257
1.35275
1.3529
1.35301
1.35309
1.35315
1.35322
1.35332
1.3535
1.35381
1.35436
1.3554
1.35741
1.36115
1.3672
1.37542
1.38466
1.39375
1.40291
1.41269
1.42297
1.43319
1.44245
1.45111
1.46169
1.47448
1.48708
1.49896
1.51155
1.52562
1.54103
1.55717
1.57384
1.59138
1.61027
1.63071
1.65225
1.6741
1.34699
1.34725
1.34756
1.34787
1.34818
1.34847
1.34876
1.34902
1.34926
1.34948
1.34966
1.3498
1.34989
1.34994
1.34993
1.34986
1.34975
1.3496
1.34945
1.34932
1.34927
1.34937
1.34974
1.35067
1.35268
1.35652
1.36278
1.37118
1.38046
1.3895
1.39864
1.40843
1.41873
1.42898
1.43831
1.4471
1.45765
1.4702
1.4826
1.49448
1.50722
1.52146
1.53702
1.55333
1.57024
1.58812
1.60749
1.62855
1.65085
1.67354
1.34518
1.34535
1.34563
1.34591
1.34618
1.34642
1.34665
1.34684
1.34701
1.34714
1.34722
1.34725
1.34721
1.34711
1.34692
1.34667
1.34634
1.34596
1.34555
1.34516
1.34484
1.34468
1.34484
1.34564
1.34767
1.3517
1.35825
1.3669
1.37626
1.38527
1.39437
1.40411
1.4144
1.42464
1.434
1.44289
1.45335
1.46562
1.4778
1.48965
1.5025
1.51686
1.53251
1.54895
1.56607
1.58425
1.60405
1.62571
1.64874
1.67223
1.34327
1.34342
1.34369
1.34395
1.34418
1.34438
1.34455
1.34468
1.34477
1.34481
1.34479
1.34469
1.34452
1.34425
1.34389
1.34343
1.34286
1.34222
1.34153
1.34084
1.34021
1.33976
1.33969
1.34039
1.34249
1.3468
1.35372
1.36266
1.37211
1.38106
1.39009
1.39974
1.40996
1.42014
1.4295
1.43843
1.44877
1.46072
1.47265
1.48447
1.49738
1.5118
1.52749
1.54402
1.56129
1.57972
1.59992
1.62213
1.64584
1.6701
1.34124
1.34143
1.34169
1.34193
1.34213
1.3423
1.34242
1.3425
1.34252
1.34247
1.34235
1.34213
1.34182
1.34138
1.34083
1.34014
1.33932
1.3384
1.3374
1.33638
1.33542
1.33467
1.33438
1.33501
1.33727
1.34194
1.3493
1.35854
1.36805
1.37692
1.38582
1.39531
1.40541
1.41548
1.42477
1.4337
1.44388
1.45549
1.46717
1.47891
1.49183
1.50625
1.52193
1.53848
1.55586
1.57449
1.59503
1.61774
1.64207
1.66704
1.33931
1.33951
1.33975
1.33996
1.34012
1.34024
1.34031
1.34033
1.34027
1.34014
1.33991
1.33957
1.3391
1.3385
1.33773
1.33681
1.33573
1.33451
1.33318
1.33182
1.33052
1.32948
1.32902
1.32966
1.33218
1.33731
1.34514
1.35464
1.36414
1.37286
1.38158
1.39085
1.40075
1.41065
1.41982
1.42868
1.43866
1.44992
1.46133
1.47297
1.48584
1.5002
1.5158
1.53233
1.54975
1.56852
1.58933
1.61246
1.63733
1.66295
1.33741
1.3376
1.33782
1.338
1.33813
1.3382
1.33822
1.33817
1.33804
1.33782
1.33748
1.33701
1.33639
1.3356
1.33463
1.33346
1.3321
1.33058
1.32892
1.32722
1.32561
1.32433
1.32377
1.32454
1.32743
1.33308
1.34136
1.35105
1.36043
1.36893
1.37738
1.38635
1.39599
1.40564
1.41463
1.42338
1.43311
1.44401
1.45513
1.46663
1.4794
1.49362
1.50909
1.52553
1.54293
1.56176
1.58277
1.60623
1.63156
1.65774
1.33552
1.33567
1.33588
1.33603
1.33613
1.33616
1.33613
1.33602
1.33582
1.3355
1.33506
1.33446
1.33368
1.33271
1.33153
1.33011
1.32848
1.32665
1.32468
1.32267
1.3208
1.31936
1.31883
1.31986
1.32322
1.32942
1.3381
1.34784
1.35697
1.36514
1.37324
1.38182
1.39113
1.40046
1.4092
1.41777
1.42723
1.43774
1.44856
1.45989
1.47249
1.48651
1.50177
1.51805
1.53536
1.55417
1.57528
1.59898
1.62465
1.6513
1.33362
1.33375
1.33393
1.33406
1.33412
1.33412
1.33404
1.33388
1.3336
1.3332
1.33265
1.33192
1.331
1.32985
1.32845
1.3268
1.3249
1.32278