/*--------------------------------*- C++ -*----------------------------------*\
  =========                 |
  \\      /  F ield         | OpenFOAM: The Open Source CFD Toolbox
   \\    /   O peration     | Website:  https://openfoam.org
    \\  /    A nd           | Version:  9
     \\/     M anipulation  |
\*---------------------------------------------------------------------------*/
FoamFile
{
    format      ascii;
    class       surfaceScalarField;
    location    "0.08";
    object      phi;
}
// * * * * * * * * * * * * * * * * * * * * * * * * * * * * * * * * * * * * * //

dimensions      [0 3 -1 0 0 0 0];

internalField   nonuniform List<scalar> 
9850
(
-1.46644e-06
2.62407e-06
-1.46628e-06
2.74348e-06
-1.46612e-06
2.86854e-06
-1.46593e-06
2.99911e-06
-1.46572e-06
3.13508e-06
-1.46548e-06
3.27655e-06
-1.46524e-06
3.42397e-06
-1.46502e-06
3.57855e-06
-1.46483e-06
3.74284e-06
-1.46464e-06
3.92181e-06
-1.46424e-06
4.12373e-06
-1.46316e-06
4.36004e-06
-1.46084e-06
4.64294e-06
-1.45696e-06
4.98061e-06
-1.45176e-06
5.37337e-06
-1.44582e-06
5.81476e-06
-1.43954e-06
6.29725e-06
-1.43288e-06
6.81912e-06
-1.42619e-06
7.39085e-06
-1.42056e-06
8.03302e-06
-1.39422e-06
8.63392e-06
-1.20849e-06
8.12133e-06
-1.40176e-06
4.0769e-06
-1.70474e-06
4.20946e-06
-1.52756e-06
9.81297e-06
-1.49837e-06
1.12152e-05
-1.48543e-06
1.15149e-05
-1.47545e-06
1.18735e-05
-1.47412e-06
1.24276e-05
-1.46776e-06
1.30473e-05
-1.35409e-06
1.36887e-05
-1.58004e-06
7.57368e-06
-1.49785e-06
1.39809e-05
-1.49148e-06
1.5419e-05
-1.47845e-06
1.43168e-05
-1.46786e-06
1.33379e-05
-1.46382e-06
1.38228e-05
-1.46695e-06
1.43063e-05
-1.46935e-06
1.43084e-05
-1.46873e-06
1.41165e-05
-1.46709e-06
1.39766e-05
-1.46633e-06
1.40111e-05
-1.46669e-06
1.40986e-05
-1.46733e-06
1.41341e-05
-1.46775e-06
1.41197e-05
-1.46799e-06
1.40842e-05
-1.46826e-06
1.40412e-05
-1.46868e-06
1.39868e-05
-1.46902e-06
1.39012e-05
1.37597e-05
-1.46375e-06
2.6237e-06
-1.4634e-06
2.74313e-06
-1.46296e-06
2.8681e-06
-1.4624e-06
2.99855e-06
-1.46171e-06
3.13439e-06
-1.46089e-06
3.27572e-06
-1.45992e-06
3.42301e-06
-1.45882e-06
3.57745e-06
-1.45757e-06
3.74158e-06
-1.45601e-06
3.92026e-06
-1.45378e-06
4.12149e-06
-1.45012e-06
4.35638e-06
-1.44409e-06
4.6369e-06
-1.43499e-06
4.97151e-06
-1.42286e-06
5.36123e-06
-1.4084e-06
5.8003e-06
-1.39223e-06
6.28108e-06
-1.37445e-06
6.80134e-06
-1.35496e-06
7.37137e-06
-1.32891e-06
8.00696e-06
-1.24915e-06
8.55416e-06
-1.05202e-06
7.92419e-06
-1.37689e-06
4.40177e-06
-1.81506e-06
4.64764e-06
-1.62695e-06
9.62486e-06
-1.55213e-06
1.11403e-05
-1.51725e-06
1.14801e-05
-1.49456e-06
1.18508e-05
-1.4839e-06
1.24169e-05
-1.44012e-06
1.30035e-05
-1.28325e-06
1.35318e-05
-1.66486e-06
7.9553e-06
-1.5642e-06
1.38802e-05
-1.53019e-06
1.5385e-05
-1.49666e-06
1.42833e-05
-1.47707e-06
1.33183e-05
-1.46563e-06
1.38114e-05
-1.46784e-06
1.43085e-05
-1.47168e-06
1.43123e-05
-1.47062e-06
1.41155e-05
-1.46786e-06
1.39739e-05
-1.46624e-06
1.40095e-05
-1.46665e-06
1.40991e-05
-1.46791e-06
1.41354e-05
-1.46898e-06
1.41207e-05
-1.46975e-06
1.4085e-05
-1.47055e-06
1.4042e-05
-1.47148e-06
1.39878e-05
-1.47188e-06
1.39016e-05
1.37584e-05
-1.46027e-06
2.62343e-06
-1.45985e-06
2.74271e-06
-1.45925e-06
2.8675e-06
-1.45843e-06
2.99774e-06
-1.45739e-06
3.13335e-06
-1.45611e-06
3.27443e-06
-1.45457e-06
3.42147e-06
-1.45276e-06
3.57564e-06
-1.45061e-06
3.73944e-06
-1.44791e-06
3.91756e-06
-1.44415e-06
4.11773e-06
-1.43839e-06
4.35062e-06
-1.42941e-06
4.62792e-06
-1.41631e-06
4.95841e-06
-1.39912e-06
5.34404e-06
-1.3786e-06
5.77978e-06
-1.35556e-06
6.25804e-06
-1.33027e-06
6.77605e-06
-1.30271e-06
7.34382e-06
-1.26674e-06
7.97099e-06
-1.17615e-06
8.46357e-06
-1.00622e-06
7.75426e-06
-1.38892e-06
4.78448e-06
-1.83758e-06
5.09629e-06
-1.65426e-06
9.44155e-06
-1.5764e-06
1.10625e-05
-1.53653e-06
1.14402e-05
-1.50599e-06
1.18203e-05
-1.48655e-06
1.23975e-05
-1.418e-06
1.29349e-05
-1.2693e-06
1.33831e-05
-1.71085e-06
8.39685e-06
-1.61461e-06
1.3784e-05
-1.55932e-06
1.53297e-05
-1.51531e-06
1.42393e-05
-1.48655e-06
1.32895e-05
-1.46902e-06
1.37939e-05
-1.46958e-06
1.43091e-05
-1.47373e-06
1.43164e-05
-1.4724e-06
1.41141e-05
-1.46884e-06
1.39703e-05
-1.46658e-06
1.40072e-05
-1.46695e-06
1.40994e-05
-1.46861e-06
1.4137e-05
-1.47016e-06
1.41223e-05
-1.47135e-06
1.40862e-05
-1.47253e-06
1.40432e-05
-1.47371e-06
1.39889e-05
-1.47402e-06
1.39019e-05
1.37566e-05
-1.45705e-06
2.62319e-06
-1.45657e-06
2.74223e-06
-1.45585e-06
2.86677e-06
-1.45487e-06
2.99676e-06
-1.4536e-06
3.13208e-06
-1.45202e-06
3.27285e-06
-1.4501e-06
3.41955e-06
-1.44782e-06
3.57335e-06
-1.44506e-06
3.73668e-06
-1.44157e-06
3.91407e-06
-1.43673e-06
4.1129e-06
-1.42952e-06
4.34341e-06
-1.41863e-06
4.61703e-06
-1.40305e-06
4.94284e-06
-1.38278e-06
5.32377e-06
-1.35874e-06
5.75575e-06
-1.33216e-06
6.23145e-06
-1.30399e-06
6.74788e-06
-1.27471e-06
7.31454e-06
-1.23607e-06
7.93235e-06
-1.14473e-06
8.37223e-06
-1.02222e-06
7.63176e-06
-1.39847e-06
5.16073e-06
-1.80935e-06
5.50717e-06
-1.65868e-06
9.29088e-06
-1.5787e-06
1.09825e-05
-1.54082e-06
1.14023e-05
-1.50989e-06
1.17894e-05
-1.48589e-06
1.23735e-05
-1.40474e-06
1.28538e-05
-1.27877e-06
1.32572e-05
-1.73229e-06
8.85038e-06
-1.65188e-06
1.37036e-05
-1.58247e-06
1.52603e-05
-1.53029e-06
1.41871e-05
-1.4939e-06
1.32531e-05
-1.47192e-06
1.37719e-05
-1.47163e-06
1.43088e-05
-1.47593e-06
1.43207e-05
-1.47422e-06
1.41124e-05
-1.46979e-06
1.39659e-05
-1.46703e-06
1.40044e-05
-1.46739e-06
1.40998e-05
-1.46938e-06
1.4139e-05
-1.47131e-06
1.41242e-05
-1.47283e-06
1.40877e-05
-1.47426e-06
1.40447e-05
-1.47562e-06
1.39903e-05
-1.47589e-06
1.39021e-05
1.37543e-05
-1.45451e-06
2.62295e-06
-1.454e-06
2.74172e-06
-1.45323e-06
2.866e-06
-1.45216e-06
2.99569e-06
-1.45077e-06
3.1307e-06
-1.44903e-06
3.27111e-06
-1.44691e-06
3.41743e-06
-1.44435e-06
3.57079e-06
-1.44123e-06
3.73356e-06
-1.43724e-06
3.91009e-06
-1.43177e-06
4.10742e-06
-1.42376e-06
4.33539e-06
-1.41192e-06
4.60519e-06
-1.39524e-06
4.92616e-06
-1.37368e-06
5.30221e-06
-1.34827e-06
5.73033e-06
-1.32058e-06
6.20376e-06
-1.29214e-06
6.71943e-06
-1.26322e-06
7.28562e-06
-1.22373e-06
7.89286e-06
-1.13883e-06
8.28733e-06
-1.06725e-06
7.56018e-06
-1.4073e-06
5.50077e-06
-1.76215e-06
5.86202e-06
-1.65321e-06
9.18194e-06
-1.5725e-06
1.09018e-05
-1.53677e-06
1.13666e-05
-1.50847e-06
1.17611e-05
-1.48204e-06
1.2347e-05
-1.39648e-06
1.27682e-05
-1.30148e-06
1.31622e-05
-1.73477e-06
9.28366e-06
-1.67731e-06
1.36461e-05
-1.59945e-06
1.51824e-05
-1.54118e-06
1.41289e-05
-1.49944e-06
1.32114e-05
-1.4746e-06
1.37471e-05
-1.47355e-06
1.43077e-05
-1.47787e-06
1.4325e-05
-1.47588e-06
1.41104e-05
-1.47076e-06
1.39608e-05
-1.46752e-06
1.40012e-05
-1.46789e-06
1.41001e-05
-1.47017e-06
1.41413e-05
-1.47241e-06
1.41265e-05
-1.47419e-06
1.40895e-05
-1.47583e-06
1.40463e-05
-1.47731e-06
1.39918e-05
-1.47752e-06
1.39023e-05
1.37518e-05
-1.45294e-06
2.62272e-06
-1.45243e-06
2.74121e-06
-1.45164e-06
2.86521e-06
-1.45055e-06
2.9946e-06
-1.44911e-06
3.12926e-06
-1.44731e-06
3.26931e-06
-1.44509e-06
3.41521e-06
-1.44241e-06
3.56811e-06
-1.43913e-06
3.73028e-06
-1.43493e-06
3.90589e-06
-1.42919e-06
4.10169e-06
-1.42091e-06
4.32711e-06
-1.40883e-06
4.59311e-06
-1.39198e-06
4.90931e-06
-1.37027e-06
5.2805e-06
-1.34477e-06
5.70484e-06
-1.3173e-06
6.17629e-06
-1.2897e-06
6.69183e-06
-1.26203e-06
7.25796e-06
-1.2236e-06
7.85443e-06
-1.14951e-06
8.21323e-06
-1.11691e-06
7.52758e-06
-1.41639e-06
5.80025e-06
-1.71719e-06
6.16283e-06
-1.63894e-06
9.10369e-06
-1.56116e-06
1.0824e-05
-1.52845e-06
1.13339e-05
-1.50385e-06
1.17365e-05
-1.47652e-06
1.23197e-05
-1.39266e-06
1.26844e-05
-1.32728e-06
1.30968e-05
-1.72708e-06
9.68346e-06
-1.69042e-06
1.36095e-05
-1.61018e-06
1.51022e-05
-1.54826e-06
1.40669e-05
-1.50336e-06
1.31665e-05
-1.47683e-06
1.37205e-05
-1.47519e-06
1.43061e-05
-1.47946e-06
1.43293e-05
-1.47731e-06
1.41083e-05
-1.47169e-06
1.39551e-05
-1.4681e-06
1.39976e-05
-1.46847e-06
1.41005e-05
-1.47096e-06
1.41438e-05
-1.47346e-06
1.4129e-05
-1.47545e-06
1.40915e-05
-1.47725e-06
1.40481e-05
-1.47881e-06
1.39934e-05
-1.47896e-06
1.39025e-05
1.37489e-05
-1.45255e-06
2.62249e-06
-1.45205e-06
2.74071e-06
-1.45127e-06
2.86442e-06
-1.45018e-06
2.99351e-06
-1.44875e-06
3.12783e-06
-1.44694e-06
3.2675e-06
-1.44472e-06
3.413e-06
-1.44204e-06
3.56542e-06
-1.43875e-06
3.72699e-06
-1.43455e-06
3.90169e-06
-1.42882e-06
4.09596e-06
-1.42062e-06
4.3189e-06
-1.40875e-06
4.58124e-06
-1.39225e-06
4.89282e-06
-1.37102e-06
5.25927e-06
-1.34611e-06
5.67993e-06
-1.31949e-06
6.14967e-06
-1.29326e-06
6.66561e-06
-1.26734e-06
7.23203e-06
-1.23129e-06
7.81839e-06
-1.16871e-06
8.15064e-06
-1.16203e-06
7.52091e-06
-1.423e-06
6.06121e-06
-1.67616e-06
6.416e-06
-1.61761e-06
9.04514e-06
-1.54552e-06
1.07519e-05
-1.51743e-06
1.13058e-05
-1.4975e-06
1.17166e-05
-1.47109e-06
1.22933e-05
-1.39273e-06
1.2606e-05
-1.35154e-06
1.30556e-05
-1.71436e-06
1.00463e-05
-1.69369e-06
1.35888e-05
-1.61531e-06
1.50238e-05
-1.55199e-06
1.40036e-05
-1.5056e-06
1.31201e-05
-1.47834e-06
1.36933e-05
-1.47636e-06
1.43041e-05
-1.48071e-06
1.43337e-05
-1.47851e-06
1.41061e-05
-1.47253e-06
1.39492e-05
-1.46868e-06
1.39937e-05
-1.46906e-06
1.41009e-05
-1.47175e-06
1.41465e-05
-1.47447e-06
1.41317e-05
-1.47664e-06
1.40937e-05
-1.47856e-06
1.405e-05
-1.48018e-06
1.3995e-05
-1.48026e-06
1.39026e-05
1.37459e-05
-1.45349e-06
2.62226e-06
-1.453e-06
2.74022e-06
-1.45224e-06
2.86366e-06
-1.45117e-06
2.99243e-06
-1.44976e-06
3.12643e-06
-1.448e-06
3.26573e-06
-1.44584e-06
3.41084e-06
-1.44322e-06
3.56281e-06
-1.44002e-06
3.72379e-06
-1.43594e-06
3.8976e-06
-1.4304e-06
4.09043e-06
-1.4225e-06
4.311e-06
-1.41111e-06
4.56984e-06
-1.39529e-06
4.877e-06
-1.37488e-06
5.23886e-06
-1.3509e-06
5.65594e-06
-1.32538e-06
6.12415e-06
-1.30055e-06
6.64078e-06
-1.27615e-06
7.20763e-06
-1.24248e-06
7.78472e-06
-1.18987e-06
8.09804e-06
-1.19856e-06
7.5296e-06
-1.42374e-06
6.28639e-06
-1.63709e-06
6.62935e-06
-1.59292e-06
9.00097e-06
-1.52809e-06
1.06871e-05
-1.50527e-06
1.1283e-05
-1.49035e-06
1.17016e-05
-1.46586e-06
1.22688e-05
-1.39469e-06
1.25348e-05
-1.37255e-06
1.30334e-05
-1.69966e-06
1.03734e-05
-1.69108e-06
1.35802e-05
-1.61625e-06
1.49489e-05
-1.55292e-06
1.39403e-05
-1.50623e-06
1.30734e-05
-1.47896e-06
1.3666e-05
-1.47699e-06
1.43021e-05
-1.48163e-06
1.43383e-05
-1.47948e-06
1.41039e-05
-1.47324e-06
1.39429e-05
-1.46919e-06
1.39897e-05
-1.46963e-06
1.41013e-05
-1.47251e-06
1.41493e-05
-1.47544e-06
1.41346e-05
-1.47777e-06
1.4096e-05
-1.4798e-06
1.4052e-05
-1.48145e-06
1.39966e-05
-1.48147e-06
1.39026e-05
1.37427e-05
-1.45584e-06
2.62203e-06
-1.45536e-06
2.73974e-06
-1.4546e-06
2.8629e-06
-1.45355e-06
2.99139e-06
-1.45219e-06
3.12506e-06
-1.45048e-06
3.26403e-06
-1.4484e-06
3.40876e-06
-1.4459e-06
3.5603e-06
-1.44284e-06
3.72073e-06
-1.43894e-06
3.89371e-06
-1.43369e-06
4.08517e-06
-1.42621e-06
4.30353e-06
-1.41546e-06
4.55909e-06
-1.4005e-06
4.86204e-06
-1.38112e-06
5.21948e-06
-1.35823e-06
5.63306e-06
-1.33385e-06
6.09977e-06
-1.31018e-06
6.61711e-06
-1.28673e-06
7.18418e-06
-1.25466e-06
7.75264e-06
-1.20932e-06
8.05269e-06
-1.22505e-06
7.54533e-06
-1.41815e-06
6.47949e-06
-1.60054e-06
6.81174e-06
-1.56898e-06
8.96941e-06
-1.51183e-06
1.06299e-05
-1.49371e-06
1.12648e-05
-1.48339e-06
1.16913e-05
-1.46116e-06
1.22466e-05
-1.39705e-06
1.24707e-05
-1.38986e-06
1.30263e-05
-1.68497e-06
1.06685e-05
-1.68547e-06
1.35807e-05
-1.61424e-06
1.48777e-05
-1.55156e-06
1.38776e-05
-1.50547e-06
1.30273e-05
-1.47878e-06
1.36393e-05
-1.47713e-06
1.43005e-05
-1.48222e-06
1.43434e-05
-1.48021e-06
1.41019e-05
-1.47379e-06
1.39365e-05
-1.46962e-06
1.39855e-05
-1.47015e-06
1.41019e-05
-1.47325e-06
1.41524e-05
-1.47639e-06
1.41378e-05
-1.47887e-06
1.40985e-05
-1.481e-06
1.40542e-05
-1.48269e-06
1.39983e-05
-1.48265e-06
1.39025e-05
1.37392e-05
-1.45961e-06
2.6218e-06
-1.45913e-06
2.73925e-06
-1.45838e-06
2.86215e-06
-1.45736e-06
2.99037e-06
-1.45604e-06
3.12374e-06
-1.45439e-06
3.26239e-06
-1.45241e-06
3.40677e-06
-1.45002e-06
3.55792e-06
-1.44712e-06
3.71783e-06
-1.44346e-06
3.89004e-06
-1.43853e-06
4.08024e-06
-1.43154e-06
4.29655e-06
-1.42151e-06
4.54906e-06
-1.40751e-06
4.84804e-06
-1.38927e-06
5.20123e-06
-1.36757e-06
5.61136e-06
-1.34433e-06
6.07652e-06
-1.32163e-06
6.59442e-06
-1.29873e-06
7.16129e-06
-1.26754e-06
7.72145e-06
-1.22672e-06
8.01187e-06
-1.24347e-06
7.56209e-06
-1.40879e-06
6.64481e-06
-1.56829e-06
6.97124e-06
-1.54871e-06
8.94982e-06
-1.49875e-06
1.058e-05
-1.48401e-06
1.12501e-05
-1.47726e-06
1.16846e-05
-1.45649e-06
1.22258e-05
-1.39932e-06
1.24135e-05
-1.40399e-06
1.30309e-05
-1.67106e-06
1.09356e-05
-1.67796e-06
1.35876e-05
-1.60985e-06
1.48096e-05
-1.54835e-06
1.38161e-05
-1.50364e-06
1.29826e-05
-1.478e-06
1.36137e-05
-1.47689e-06
1.42994e-05
-1.48253e-06
1.4349e-05
-1.48072e-06
1.41001e-05
-1.47419e-06
1.393e-05
-1.46997e-06
1.39813e-05
-1.47063e-06
1.41025e-05
-1.47396e-06
1.41558e-05
-1.47731e-06
1.41411e-05
-1.47994e-06
1.41011e-05
-1.48217e-06
1.40564e-05
-1.4839e-06
1.4e-05
-1.4838e-06
1.39024e-05
1.37356e-05
-1.46481e-06
2.62156e-06
-1.46431e-06
2.73875e-06
-1.46357e-06
2.86141e-06
-1.46256e-06
2.98936e-06
-1.46128e-06
3.12246e-06
-1.45971e-06
3.26081e-06
-1.45782e-06
3.40488e-06
-1.45556e-06
3.55566e-06
-1.45284e-06
3.71511e-06
-1.44942e-06
3.88662e-06
-1.44485e-06
4.07566e-06
-1.4384e-06
4.29009e-06
-1.42912e-06
4.53978e-06
-1.41614e-06
4.83506e-06
-1.3991e-06
5.1842e-06
-1.37868e-06
5.59094e-06
-1.35663e-06
6.05448e-06
-1.33492e-06
6.5727e-06
-1.31255e-06
7.13892e-06
-1.28193e-06
7.69083e-06
-1.24359e-06
7.97354e-06
-1.25778e-06
7.57628e-06
-1.39954e-06
6.78657e-06
-1.54194e-06
7.11364e-06
-1.53332e-06
8.9412e-06
-1.48963e-06
1.05363e-05
-1.47688e-06
1.12374e-05
-1.47267e-06
1.16804e-05
-1.4537e-06
1.22068e-05
-1.40214e-06
1.2362e-05
-1.41588e-06
1.30447e-05
-1.65773e-06
1.11774e-05
-1.66851e-06
1.35984e-05
-1.60319e-06
1.47443e-05
-1.5436e-06
1.37565e-05
-1.50104e-06
1.29401e-05
-1.47682e-06
1.35894e-05
-1.4764e-06
1.42989e-05
-1.48264e-06
1.43553e-05
-1.48106e-06
1.40985e-05
-1.47447e-06
1.39234e-05
-1.47024e-06
1.39771e-05
-1.47107e-06
1.41034e-05
-1.47465e-06
1.41593e-05
-1.47822e-06
1.41447e-05
-1.48101e-06
1.41039e-05
-1.48334e-06
1.40587e-05
-1.48512e-06
1.40018e-05
-1.48496e-06
1.39023e-05
1.37317e-05
-1.47136e-06
2.6213e-06
-1.47085e-06
2.73824e-06
-1.47011e-06
2.86066e-06
-1.46912e-06
2.98837e-06
-1.46788e-06
3.12122e-06
-1.46637e-06
3.2593e-06
-1.46458e-06
3.40309e-06
-1.46247e-06
3.55355e-06
-1.45995e-06
3.71259e-06
-1.4568e-06
3.88347e-06
-1.4526e-06
4.07147e-06
-1.4467e-06
4.28419e-06
-1.43822e-06
4.53129e-06
-1.42629e-06
4.82313e-06
-1.41053e-06
5.16844e-06
-1.39149e-06
5.57189e-06
-1.37079e-06
6.03378e-06
-1.35021e-06
6.55213e-06
-1.32858e-06
7.11728e-06
-1.29856e-06
7.66082e-06
-1.26152e-06
7.9365e-06
-1.27168e-06
7.58643e-06
-1.39373e-06
6.90863e-06
-1.52237e-06
7.24228e-06
-1.52273e-06
8.94155e-06
-1.48414e-06
1.04977e-05
-1.47227e-06
1.12255e-05
-1.46951e-06
1.16776e-05
-1.45228e-06
1.21896e-05
-1.40571e-06
1.23154e-05
-1.42605e-06
1.3065e-05
-1.64442e-06
1.13958e-05
-1.65689e-06
1.36109e-05
-1.5944e-06
1.46818e-05
-1.53762e-06
1.36997e-05
-1.49793e-06
1.29004e-05
-1.47544e-06
1.3567e-05
-1.47579e-06
1.42993e-05
-1.48266e-06
1.43621e-05
-1.48131e-06
1.40972e-05
-1.47468e-06
1.39168e-05
-1.47047e-06
1.39729e-05
-1.47149e-06
1.41044e-05
-1.47535e-06
1.41632e-05
-1.47914e-06
1.41485e-05
-1.48208e-06
1.41068e-05
-1.48453e-06
1.40612e-05
-1.48636e-06
1.40037e-05
-1.48615e-06
1.39021e-05
1.37276e-05
-1.47915e-06
2.62103e-06
-1.47863e-06
2.73772e-06
-1.47788e-06
2.85991e-06
-1.47691e-06
2.9874e-06
-1.47571e-06
3.12003e-06
-1.47428e-06
3.25787e-06
-1.4726e-06
3.40141e-06
-1.47065e-06
3.5516e-06
-1.46833e-06
3.71027e-06
-1.46547e-06
3.8806e-06
-1.46168e-06
4.06768e-06
-1.45636e-06
4.27887e-06
-1.44869e-06
4.52362e-06
-1.43785e-06
4.8123e-06
-1.42343e-06
5.15401e-06
-1.40588e-06
5.55434e-06
-1.38669e-06
6.01459e-06
-1.36745e-06
6.5329e-06
-1.34675e-06
7.09657e-06
-1.31742e-06
7.63148e-06
-1.28117e-06
7.90025e-06
-1.28735e-06
7.59261e-06
-1.39308e-06
7.01436e-06
-1.50951e-06
7.3587e-06
-1.51604e-06
8.94809e-06
-1.48127e-06
1.04629e-05
-1.46956e-06
1.12138e-05
-1.46765e-06
1.16757e-05
-1.45177e-06
1.21737e-05
-1.40974e-06
1.22734e-05
-1.43453e-06
1.30898e-05
-1.6307e-06
1.1592e-05
-1.64326e-06
1.36234e-05
-1.58387e-06
1.46224e-05
-1.53073e-06
1.36466e-05
-1.49452e-06
1.28642e-05
-1.47404e-06
1.35465e-05
-1.47524e-06
1.43005e-05
-1.4827e-06
1.43696e-05
-1.48155e-06
1.4096e-05
-1.47487e-06
1.39101e-05
-1.47069e-06
1.39687e-05
-1.47192e-06
1.41056e-05
-1.47605e-06
1.41673e-05
-1.48009e-06
1.41525e-05
-1.48319e-06
1.41099e-05
-1.48575e-06
1.40637e-05
-1.48764e-06
1.40056e-05
-1.48737e-06
1.39018e-05
1.37233e-05
-1.488e-06
2.62076e-06
-1.48747e-06
2.73719e-06
-1.48672e-06
2.85916e-06
-1.48577e-06
2.98645e-06
-1.48462e-06
3.11888e-06
-1.48327e-06
3.25652e-06
-1.48171e-06
3.39985e-06
-1.47992e-06
3.54981e-06
-1.47783e-06
3.70818e-06
-1.47526e-06
3.87804e-06
-1.4719e-06
4.06432e-06
-1.46717e-06
4.27414e-06
-1.46032e-06
4.51678e-06
-1.45058e-06
4.80256e-06
-1.43752e-06
5.14096e-06
-1.42153e-06
5.53835e-06
-1.40395e-06
5.99701e-06
-1.38616e-06
6.51511e-06
-1.36644e-06
7.07685e-06
-1.33775e-06
7.60279e-06
-1.3022e-06
7.8647e-06
-1.30525e-06
7.59567e-06
-1.39744e-06
7.10656e-06
-1.50218e-06
7.46343e-06
-1.5119e-06
8.95782e-06
-1.47971e-06
1.04307e-05
-1.46784e-06
1.12019e-05
-1.46624e-06
1.16741e-05
-1.45146e-06
1.21589e-05
-1.4137e-06
1.22356e-05
-1.44119e-06
1.31173e-05
-1.61649e-06
1.17673e-05
-1.6282e-06
1.36351e-05
-1.57225e-06
1.45665e-05
-1.52331e-06
1.35977e-05
-1.49105e-06
1.28319e-05
-1.47282e-06
1.35282e-05
-1.47492e-06
1.43026e-05
-1.48288e-06
1.43776e-05
-1.48186e-06
1.4095e-05
-1.4751e-06
1.39033e-05
-1.47093e-06
1.39645e-05
-1.47237e-06
1.41071e-05
-1.4768e-06
1.41718e-05
-1.48108e-06
1.41568e-05
-1.48435e-06
1.41132e-05
-1.48701e-06
1.40664e-05
-1.48896e-06
1.40075e-05
-1.48864e-06
1.39015e-05
1.37188e-05
-1.49773e-06
2.62047e-06
-1.49719e-06
2.73665e-06
-1.49644e-06
2.85842e-06
-1.49551e-06
2.98553e-06
-1.49441e-06
3.11777e-06
-1.49314e-06
3.25525e-06
-1.4917e-06
3.39841e-06
-1.49007e-06
3.54818e-06
-1.4882e-06
3.70631e-06
-1.48593e-06
3.87578e-06
-1.48298e-06
4.06136e-06
-1.47882e-06
4.26999e-06
-1.47277e-06
4.51073e-06
-1.4641e-06
4.79388e-06
-1.45238e-06
5.12924e-06
-1.43793e-06
5.52389e-06
-1.42195e-06
5.98103e-06
-1.40555e-06
6.49871e-06
-1.38666e-06
7.05796e-06
-1.35845e-06
7.57457e-06
-1.32366e-06
7.82991e-06
-1.32457e-06
7.59658e-06
-1.40529e-06
7.18727e-06
-1.49847e-06
7.55661e-06
-1.50881e-06
8.96816e-06
-1.47821e-06
1.04001e-05
-1.4657e-06
1.11894e-05
-1.46493e-06
1.16733e-05
-1.45084e-06
1.21448e-05
-1.4171e-06
1.22019e-05
-1.44602e-06
1.31462e-05
-1.60206e-06
1.19233e-05
-1.61247e-06
1.36456e-05
-1.56018e-06
1.45142e-05
-1.51573e-06
1.35532e-05
-1.48776e-06
1.28039e-05
-1.472e-06
1.35125e-05
-1.47503e-06
1.43056e-05
-1.48335e-06
1.43859e-05
-1.48233e-06
1.4094e-05
-1.47542e-06
1.38964e-05
-1.47122e-06
1.39603e-05
-1.47288e-06
1.41087e-05
-1.47761e-06
1.41765e-05
-1.48213e-06
1.41613e-05
-1.48556e-06
1.41166e-05
-1.48834e-06
1.40692e-05
-1.49036e-06
1.40095e-05
-1.49e-06
1.39011e-05
1.37141e-05
-1.50813e-06
2.62018e-06
-1.50758e-06
2.73611e-06
-1.50684e-06
2.85767e-06
-1.50593e-06
2.98461e-06
-1.50487e-06
3.11671e-06
-1.50367e-06
3.25405e-06
-1.50233e-06
3.39707e-06
-1.50086e-06
3.5467e-06
-1.49919e-06
3.70464e-06
-1.49721e-06
3.87379e-06
-1.49463e-06
4.05879e-06
-1.49101e-06
4.26637e-06
-1.4857e-06
4.50542e-06
-1.47802e-06
4.7862e-06
-1.46753e-06
5.11875e-06
-1.45451e-06
5.51087e-06
-1.44e-06
5.96652e-06
-1.42476e-06
6.48347e-06
-1.40639e-06
7.0396e-06
-1.37839e-06
7.54658e-06
-1.34443e-06
7.79594e-06
-1.34391e-06
7.59606e-06
-1.41456e-06
7.25793e-06
-1.49644e-06
7.63849e-06
-1.50562e-06
8.97734e-06
-1.47613e-06
1.03706e-05
-1.4633e-06
1.11766e-05
-1.46296e-06
1.1673e-05
-1.4497e-06
1.21316e-05
-1.41979e-06
1.2172e-05
-1.44925e-06
1.31757e-05
-1.58782e-06
1.20619e-05
-1.59679e-06
1.36545e-05
-1.54819e-06
1.44656e-05
-1.50831e-06
1.35133e-05
-1.48489e-06
1.27805e-05
-1.47176e-06
1.34993e-05
-1.47572e-06
1.43096e-05
-1.48421e-06
1.43944e-05
-1.48304e-06
1.40928e-05
-1.47587e-06
1.38892e-05
-1.47162e-06
1.39561e-05
-1.47347e-06
1.41106e-05
-1.4785e-06
1.41815e-05
-1.48327e-06
1.41661e-05
-1.48687e-06
1.41202e-05
-1.48976e-06
1.40721e-05
-1.49184e-06
1.40116e-05
-1.49145e-06
1.39007e-05
1.37092e-05
-1.519e-06
2.61988e-06
-1.51844e-06
2.73556e-06
-1.5177e-06
2.85693e-06
-1.51681e-06
2.98372e-06
-1.51578e-06
3.11569e-06
-1.51464e-06
3.25291e-06
-1.5134e-06
3.39583e-06
-1.51206e-06
3.54536e-06
-1.51058e-06
3.70316e-06
-1.50884e-06
3.87205e-06
-1.5066e-06
4.05655e-06
-1.50345e-06
4.26322e-06
-1.49878e-06
4.50075e-06
-1.49196e-06
4.77937e-06
-1.48257e-06
5.10936e-06
-1.47079e-06
5.4991e-06
-1.45749e-06
5.95322e-06
-1.44308e-06
6.46906e-06
-1.42484e-06
7.02136e-06
-1.39676e-06
7.5185e-06
-1.36357e-06
7.76275e-06
-1.36188e-06
7.59436e-06
-1.42346e-06
7.31951e-06
-1.49463e-06
7.70966e-06
-1.5018e-06
8.9845e-06
-1.47324e-06
1.03421e-05
-1.46037e-06
1.11637e-05
-1.46048e-06
1.16731e-05
-1.44823e-06
1.21193e-05
-1.42186e-06
1.21456e-05
-1.45126e-06
1.32051e-05
-1.57418e-06
1.21848e-05
-1.58167e-06
1.3662e-05
-1.5366e-06
1.44205e-05
-1.50129e-06
1.3478e-05
-1.48262e-06
1.27618e-05
-1.47228e-06
1.3489e-05
-1.47712e-06
1.43144e-05
-1.48556e-06
1.44028e-05
-1.48404e-06
1.40913e-05
-1.47651e-06
1.38817e-05
-1.47213e-06
1.39517e-05
-1.47418e-06
1.41126e-05
-1.4795e-06
1.41868e-05
-1.48451e-06
1.41711e-05
-1.48828e-06
1.4124e-05
-1.49129e-06
1.40751e-05
-1.49345e-06
1.40138e-05
-1.49302e-06
1.39003e-05
1.37041e-05
-1.53016e-06
2.61958e-06
-1.5296e-06
2.735e-06
-1.52886e-06
2.85619e-06
-1.52797e-06
2.98283e-06
-1.52697e-06
3.11469e-06
-1.52588e-06
3.25182e-06
-1.52472e-06
3.39467e-06
-1.52349e-06
3.54413e-06
-1.52215e-06
3.70182e-06
-1.52062e-06
3.87052e-06
-1.51866e-06
4.05459e-06
-1.5159e-06
4.26045e-06
-1.51178e-06
4.49663e-06
-1.50568e-06
4.77328e-06
-1.4972e-06
5.10088e-06
-1.48645e-06
5.48835e-06
-1.47407e-06
5.94084e-06
-1.46011e-06
6.4551e-06
-1.4416e-06
7.00284e-06
-1.41314e-06
7.49004e-06
-1.38051e-06
7.73011e-06
-1.37758e-06
7.59144e-06
-1.43087e-06
7.3728e-06
-1.49231e-06
7.77111e-06
-1.49737e-06
8.98956e-06
-1.46978e-06
1.03145e-05
-1.45717e-06
1.11511e-05
-1.45771e-06
1.16736e-05
-1.44666e-06
1.21083e-05
-1.42351e-06
1.21225e-05
-1.45239e-06
1.32339e-05
-1.56143e-06
1.22938e-05
-1.56739e-06
1.3668e-05
-1.52558e-06
1.43787e-05
-1.49479e-06
1.34472e-05
-1.48107e-06
1.27481e-05
-1.47368e-06
1.34816e-05
-1.47931e-06
1.43201e-05
-1.48745e-06
1.44109e-05
-1.48537e-06
1.40892e-05
-1.47735e-06
1.38737e-05
-1.47281e-06
1.39472e-05
-1.47502e-06
1.41148e-05
-1.48063e-06
1.41925e-05
-1.48589e-06
1.41764e-05
-1.48982e-06
1.41279e-05
-1.49295e-06
1.40782e-05
-1.49519e-06
1.4016e-05
-1.49471e-06
1.38998e-05
1.36988e-05
-1.54147e-06
2.61926e-06
-1.5409e-06
2.73443e-06
-1.54015e-06
2.85543e-06
-1.53927e-06
2.98195e-06
-1.53829e-06
3.11371e-06
-1.53724e-06
3.25077e-06
-1.53613e-06
3.39356e-06
-1.53498e-06
3.54298e-06
-1.53376e-06
3.7006e-06
-1.53238e-06
3.86914e-06
-1.53065e-06
4.05286e-06
-1.52821e-06
4.25801e-06
-1.52453e-06
4.49295e-06
-1.51903e-06
4.76778e-06
-1.5113e-06
5.09315e-06
-1.50136e-06
5.47841e-06
-1.48963e-06
5.92911e-06
-1.47578e-06
6.44125e-06
-1.45665e-06
6.98371e-06
-1.42756e-06
7.46095e-06
-1.39516e-06
7.69772e-06
-1.39073e-06
7.58701e-06
-1.43642e-06
7.4185e-06
-1.4894e-06
7.82408e-06
-1.49278e-06
8.99295e-06
-1.46643e-06
1.02881e-05
-1.45413e-06
1.11388e-05
-1.455e-06
1.16745e-05
-1.44518e-06
1.20985e-05
-1.42485e-06
1.21021e-05
-1.45286e-06
1.3262e-05
-1.54961e-06
1.23906e-05
-1.55403e-06
1.36724e-05
-1.51514e-06
1.43398e-05
-1.48888e-06
1.3421e-05
-1.48029e-06
1.27395e-05
-1.47601e-06
1.34773e-05
-1.48233e-06
1.43264e-05
-1.48991e-06
1.44185e-05
-1.48706e-06
1.40864e-05
-1.47842e-06
1.3865e-05
-1.47367e-06
1.39424e-05
-1.47602e-06
1.41172e-05
-1.48191e-06
1.41984e-05
-1.48741e-06
1.41819e-05
-1.4915e-06
1.4132e-05
-1.49476e-06
1.40815e-05
-1.49707e-06
1.40183e-05
-1.49655e-06
1.38993e-05
1.36933e-05
-1.55283e-06
2.61894e-06
-1.55225e-06
2.73385e-06
-1.55148e-06
2.85467e-06
-1.5506e-06
2.98106e-06
-1.54962e-06
3.11273e-06
-1.54858e-06
3.24973e-06
-1.54751e-06
3.39249e-06
-1.54642e-06
3.54188e-06
-1.54528e-06
3.69947e-06
-1.54403e-06
3.86789e-06
-1.54247e-06
4.0513e-06
-1.54027e-06
4.25581e-06
-1.53695e-06
4.48963e-06
-1.53194e-06
4.76277e-06
-1.52482e-06
5.08603e-06
-1.51553e-06
5.46911e-06
-1.50423e-06
5.91781e-06
-1.49025e-06
6.42727e-06
-1.47028e-06
6.96373e-06
-1.44034e-06
7.43102e-06
-1.40782e-06
7.66519e-06
-1.40157e-06
7.58075e-06
-1.44035e-06
7.45728e-06
-1.48617e-06
7.8699e-06
-1.48855e-06
8.99532e-06
-1.46362e-06
1.02632e-05
-1.45164e-06
1.11268e-05
-1.45264e-06
1.16755e-05
-1.44391e-06
1.20897e-05
-1.42596e-06
1.20842e-05
-1.45281e-06
1.32888e-05
-1.53862e-06
1.24764e-05
-1.54145e-06
1.36752e-05
-1.50521e-06
1.43036e-05
-1.48353e-06
1.33993e-05
-1.48025e-06
1.27363e-05
-1.47927e-06
1.34763e-05
-1.48618e-06
1.43333e-05
-1.49297e-06
1.44253e-05
-1.48912e-06
1.40825e-05
-1.47975e-06
1.38557e-05
-1.47472e-06
1.39374e-05
-1.47719e-06
1.41196e-05
-1.48335e-06
1.42045e-05
-1.48909e-06
1.41876e-05
-1.49334e-06
1.41363e-05
-1.49672e-06
1.40849e-05
-1.4991e-06
1.40207e-05
-1.49853e-06
1.38987e-05
1.36875e-05
-1.56415e-06
2.61861e-06
-1.56355e-06
2.73325e-06
-1.56277e-06
2.85389e-06
-1.56186e-06
2.98016e-06
-1.56088e-06
3.11175e-06
-1.55984e-06
3.2487e-06
-1.55878e-06
3.39144e-06
-1.55772e-06
3.54082e-06
-1.55664e-06
3.69839e-06
-1.55547e-06
3.86672e-06
-1.55404e-06
4.04988e-06
-1.55204e-06
4.25381e-06
-1.54901e-06
4.4866e-06
-1.54441e-06
4.75818e-06
-1.53781e-06
5.07943e-06
-1.52905e-06
5.46035e-06
-1.51806e-06
5.90682e-06
-1.5038e-06
6.413e-06
-1.48288e-06
6.94282e-06
-1.45201e-06
7.40015e-06
-1.41905e-06
7.63223e-06
-1.41068e-06
7.57238e-06
-1.4432e-06
7.48981e-06
-1.48308e-06
7.90978e-06
-1.48509e-06
8.99734e-06
-1.46178e-06
1.02399e-05
-1.45002e-06
1.1115e-05
-1.45084e-06
1.16763e-05
-1.44292e-06
1.20818e-05
-1.42695e-06
1.20682e-05
-1.45235e-06
1.33142e-05
-1.52829e-06
1.25523e-05
-1.52949e-06
1.36764e-05
-1.49572e-06
1.42698e-05
-1.47872e-06
1.33823e-05
-1.4809e-06
1.27384e-05
-1.48342e-06
1.34789e-05
-1.49085e-06
1.43407e-05
-1.49662e-06
1.44311e-05
-1.49157e-06
1.40775e-05
-1.48134e-06
1.38454e-05
-1.47598e-06
1.3932e-05
-1.47854e-06
1.41222e-05
-1.48497e-06
1.42109e-05
-1.49093e-06
1.41936e-05
-1.49534e-06
1.41407e-05
-1.49884e-06
1.40884e-05
-1.5013e-06
1.40231e-05
-1.50066e-06
1.38981e-05
1.36814e-05
-1.5754e-06
2.61826e-06
-1.57478e-06
2.73262e-06
-1.57397e-06
2.85308e-06
-1.57303e-06
2.97922e-06
-1.57202e-06
3.11073e-06
-1.57097e-06
3.24765e-06
-1.56991e-06
3.39037e-06
-1.56885e-06
3.53976e-06
-1.56779e-06
3.69733e-06
-1.56667e-06
3.8656e-06
-1.56534e-06
4.04854e-06
-1.5635e-06
4.25197e-06
-1.56072e-06
4.48382e-06
-1.55648e-06
4.75394e-06
-1.55035e-06
5.07329e-06
-1.54205e-06
5.45205e-06
-1.53129e-06
5.89606e-06
-1.51671e-06
6.39842e-06
-1.49485e-06
6.92096e-06
-1.46296e-06
7.36827e-06
-1.42943e-06
7.59869e-06
-1.41881e-06
7.56176e-06
-1.44567e-06
7.51667e-06
-1.48059e-06
7.94469e-06
-1.48268e-06
8.99943e-06
-1.46107e-06
1.02183e-05
-1.44938e-06
1.11033e-05
-1.44974e-06
1.16767e-05
-1.44233e-06
1.20744e-05
-1.42796e-06
1.20538e-05
-1.45167e-06
1.33379e-05
-1.51854e-06
1.26192e-05
-1.51807e-06
1.3676e-05
-1.48665e-06
1.42384e-05
-1.47442e-06
1.33701e-05
-1.4822e-06
1.27462e-05
-1.48841e-06
1.34851e-05
-1.49632e-06
1.43486e-05
-1.50086e-06
1.44356e-05
-1.49441e-06
1.4071e-05
-1.48319e-06
1.38342e-05
-1.47746e-06
1.39263e-05
-1.4801e-06
1.41248e-05
-1.48678e-06
1.42176e-05
-1.49297e-06
1.41997e-05
-1.49752e-06
1.41452e-05
-1.50114e-06
1.4092e-05
-1.50366e-06
1.40257e-05
-1.50296e-06
1.38974e-05
1.36751e-05
-1.5866e-06
2.61789e-06
-1.58594e-06
2.73197e-06
-1.58509e-06
2.85223e-06
-1.58411e-06
2.97825e-06
-1.58306e-06
3.10968e-06
-1.58198e-06
3.24656e-06
-1.58088e-06
3.38928e-06
-1.57981e-06
3.53869e-06
-1.57875e-06
3.69627e-06
-1.57766e-06
3.86451e-06
-1.57638e-06
4.04727e-06
-1.57467e-06
4.25025e-06
-1.5721e-06
4.48125e-06
-1.5682e-06
4.75004e-06
-1.5625e-06
5.06759e-06
-1.55464e-06
5.4442e-06
-1.5441e-06
5.88552e-06
-1.52922e-06
6.38354e-06
-1.50655e-06
6.89828e-06
-1.47387e-06
7.33558e-06
-1.43958e-06
7.5644e-06
-1.42671e-06
7.5489e-06
-1.44852e-06
7.53847e-06
-1.47917e-06
7.97535e-06
-1.48149e-06
9.00175e-06
-1.4615e-06
1.01983e-05
-1.44973e-06
1.10916e-05
-1.44936e-06
1.16763e-05
-1.44224e-06
1.20673e-05
-1.4292e-06
1.20408e-05
-1.45103e-06
1.33597e-05
-1.50949e-06
1.26777e-05
-1.50727e-06
1.36737e-05
-1.47814e-06
1.42092e-05
-1.47073e-06
1.33627e-05
-1.48416e-06
1.27596e-05
-1.4942e-06
1.34951e-05
-1.50254e-06
1.4357e-05
-1.50567e-06
1.44388e-05
-1.49761e-06
1.4063e-05
-1.48531e-06
1.38219e-05
-1.47915e-06
1.39201e-05
-1.48187e-06
1.41276e-05
-1.48879e-06
1.42245e-05
-1.49519e-06
1.42061e-05
-1.4999e-06
1.41499e-05
-1.50362e-06
1.40957e-05
-1.50622e-06
1.40283e-05
-1.50544e-06
1.38966e-05
1.36685e-05
-1.5978e-06
2.6175e-06
-1.5971e-06
2.73127e-06
-1.5962e-06
2.85133e-06
-1.59517e-06
2.97722e-06
-1.59406e-06
3.10857e-06
-1.59292e-06
3.24542e-06
-1.59177e-06
3.38814e-06
-1.59066e-06
3.53757e-06
-1.58957e-06
3.69519e-06
-1.58847e-06
3.86341e-06
-1.58724e-06
4.04603e-06
-1.58562e-06
4.24864e-06
-1.58325e-06
4.47888e-06
-1.57965e-06
4.74645e-06
-1.57436e-06
5.06229e-06
-1.56692e-06
5.43675e-06
-1.55658e-06
5.87518e-06
-1.54144e-06
6.36841e-06
-1.51805e-06
6.8749e-06
-1.48467e-06
7.3022e-06
-1.44983e-06
7.52957e-06
-1.43502e-06
7.53408e-06
-1.45241e-06
7.55586e-06
-1.47926e-06
8.0022e-06
-1.48161e-06
9.0041e-06
-1.46296e-06
1.01796e-05
-1.45093e-06
1.10795e-05
-1.44966e-06
1.1675e-05
-1.44266e-06
1.20603e-05
-1.4308e-06
1.20289e-05
-1.45068e-06
1.33796e-05
-1.50135e-06
1.27283e-05
-1.49734e-06
1.36697e-05
-1.47039e-06
1.41823e-05
-1.46765e-06
1.33599e-05
-1.48682e-06
1.27788e-05
-1.50073e-06
1.3509e-05
-1.50947e-06
1.43657e-05
-1.51101e-06
1.44403e-05
-1.50117e-06
1.40531e-05
-1.48769e-06
1.38084e-05
-1.48108e-06
1.39135e-05
-1.48385e-06
1.41303e-05
-1.49102e-06
1.42317e-05
-1.49764e-06
1.42128e-05