/*--------------------------------*- C++ -*----------------------------------*\
  =========                 |
  \\      /  F ield         | OpenFOAM: The Open Source CFD Toolbox
   \\    /   O peration     | Website:  https://openfoam.org
    \\  /    A nd           | Version:  9
     \\/     M anipulation  |
\*---------------------------------------------------------------------------*/
FoamFile
{
    format      ascii;
    class       volScalarField;
    location    "0.08";
    object      rAU;
}
// * * * * * * * * * * * * * * * * * * * * * * * * * * * * * * * * * * * * * //

dimensions      [-1 3 1 0 0 0 0];

internalField   nonuniform List<scalar> 
5000
(
1.38415e-05
1.33004e-05
1.34818e-05
1.3655e-05
1.3821e-05
1.39804e-05
1.41332e-05
1.42784e-05
1.44131e-05
1.45315e-05
1.46234e-05
1.46762e-05
1.46782e-05
1.46261e-05
1.45284e-05
1.44012e-05
1.42595e-05
1.41098e-05
1.39478e-05
1.37615e-05
1.36195e-05
1.4217e-05
1.9125e-05
1.98093e-05
1.41494e-05
1.361e-05
1.37946e-05
1.39483e-05
1.3999e-05
1.40039e-05
1.50568e-05
1.93585e-05
1.50499e-05
1.43352e-05
1.48498e-05
1.53758e-05
1.51302e-05
1.4881e-05
1.48749e-05
1.49694e-05
1.50425e-05
1.50267e-05
1.49822e-05
1.49635e-05
1.49701e-05
1.49875e-05
1.50089e-05
1.50358e-05
1.50782e-05
1.51493e-05
1.84292e-05
1.74636e-05
1.77596e-05
1.80426e-05
1.83133e-05
1.85722e-05
1.88195e-05
1.90545e-05
1.92757e-05
1.94794e-05
1.96594e-05
1.98079e-05
1.99172e-05
1.99844e-05
2.00138e-05
2.0015e-05
1.9998e-05
1.9968e-05
1.99222e-05
1.98548e-05
1.98484e-05
2.05222e-05
2.34069e-05
2.35002e-05
2.03386e-05
1.99112e-05
2.01009e-05
2.02676e-05
2.03453e-05
2.04054e-05
2.14043e-05
2.39742e-05
2.13121e-05
2.07435e-05
2.11524e-05
2.15525e-05
2.13729e-05
2.11816e-05
2.11755e-05
2.12485e-05
2.13049e-05
2.12934e-05
2.12594e-05
2.12447e-05
2.12493e-05
2.12623e-05
2.12781e-05
2.12981e-05
2.13298e-05
2.13836e-05
1.84337e-05
1.74678e-05
1.77641e-05
1.80475e-05
1.83187e-05
1.85782e-05
1.88262e-05
1.9062e-05
1.92842e-05
1.94892e-05
1.96712e-05
1.98227e-05
1.99364e-05
2.00091e-05
2.00442e-05
2.00507e-05
2.00385e-05
2.00132e-05
1.9972e-05
1.99109e-05
1.99335e-05
2.06716e-05
2.31634e-05
2.31564e-05
2.0426e-05
1.99367e-05
2.01079e-05
2.02738e-05
2.03499e-05
2.04307e-05
2.14694e-05
2.37697e-05
2.13326e-05
2.07448e-05
2.11569e-05
2.1557e-05
2.1377e-05
2.11803e-05
2.1173e-05
2.1248e-05
2.13056e-05
2.1294e-05
2.12592e-05
2.12439e-05
2.12484e-05
2.12614e-05
2.12771e-05
2.12969e-05
2.13288e-05
2.13834e-05
1.84382e-05
1.74719e-05
1.77686e-05
1.80524e-05
1.8324e-05
1.8584e-05
1.88326e-05
1.90691e-05
1.92922e-05
1.94984e-05
1.96822e-05
1.98366e-05
1.99544e-05
2.00321e-05
2.00724e-05
2.00831e-05
2.00739e-05
2.00505e-05
2.00098e-05
1.99519e-05
2.00025e-05
2.07746e-05
2.28831e-05
2.28405e-05
2.05199e-05
1.99761e-05
2.0125e-05
2.02868e-05
2.03588e-05
2.04631e-05
2.15263e-05
2.35502e-05
2.13543e-05
2.07569e-05
2.11677e-05
2.15656e-05
2.13834e-05
2.11795e-05
2.11704e-05
2.12476e-05
2.13066e-05
2.12948e-05
2.12589e-05
2.1243e-05
2.12474e-05
2.12604e-05
2.1276e-05
2.12957e-05
2.13279e-05
2.13835e-05
1.84419e-05
1.74754e-05
1.77723e-05
1.80565e-05
1.83285e-05
1.8589e-05
1.8838e-05
1.90752e-05
1.92989e-05
1.95061e-05
1.96917e-05
1.98486e-05
1.99702e-05
2.00524e-05
2.00968e-05
2.01107e-05
2.0103e-05
2.00795e-05
2.00376e-05
1.99833e-05
2.00595e-05
2.08309e-05
2.26124e-05
2.25697e-05
2.06004e-05
2.00219e-05
2.01461e-05
2.03023e-05
2.03709e-05
2.04994e-05
2.15706e-05
2.33382e-05
2.13731e-05
2.07769e-05
2.11838e-05
2.1578e-05
2.13914e-05
2.11791e-05
2.11679e-05
2.12475e-05
2.1308e-05
2.12958e-05
2.12587e-05
2.12419e-05
2.12462e-05
2.12593e-05
2.12748e-05
2.12945e-05
2.13271e-05
2.13837e-05
1.84442e-05
1.74777e-05
1.7775e-05
1.80594e-05
1.83318e-05
1.85927e-05
1.88422e-05
1.90798e-05
1.93042e-05
1.95123e-05
1.96993e-05
1.98586e-05
1.99835e-05
2.00696e-05
2.01176e-05
2.01338e-05
2.01267e-05
2.0102e-05
2.00581e-05
2.00076e-05
2.01035e-05
2.08511e-05
2.23715e-05
2.2344e-05
2.06641e-05
2.00712e-05
2.01687e-05
2.03181e-05
2.03844e-05
2.05361e-05
2.16017e-05
2.31443e-05
2.13874e-05
2.08021e-05
2.12037e-05
2.15931e-05
2.14006e-05
2.11792e-05
2.11656e-05
2.12476e-05
2.13096e-05
2.12969e-05
2.12584e-05
2.12408e-05
2.1245e-05
2.12581e-05
2.12737e-05
2.12934e-05
2.13264e-05
2.13842e-05
1.84449e-05
1.74786e-05
1.77762e-05
1.8061e-05
1.83337e-05
1.8595e-05
1.88449e-05
1.9083e-05
1.93079e-05
1.95168e-05
1.97051e-05
1.98665e-05
1.99942e-05
2.00838e-05
2.0135e-05
2.01532e-05
2.01462e-05
2.01196e-05
2.00735e-05
2.00262e-05
2.01367e-05
2.08492e-05
2.21645e-05
2.21594e-05
2.0716e-05
2.01207e-05
2.01909e-05
2.03328e-05
2.03983e-05
2.0571e-05
2.1622e-05
2.29712e-05
2.13974e-05
2.08299e-05
2.12263e-05
2.16101e-05
2.14107e-05
2.11796e-05
2.11635e-05
2.12479e-05
2.13114e-05
2.12981e-05
2.1258e-05
2.12395e-05
2.12436e-05
2.12569e-05
2.12725e-05
2.12922e-05
2.13258e-05
2.13848e-05
1.84437e-05
1.74779e-05
1.77758e-05
1.80609e-05
1.8334e-05
1.85957e-05
1.88459e-05
1.90844e-05
1.93098e-05
1.95195e-05
1.97089e-05
1.98721e-05
2.00026e-05
2.00953e-05
2.01494e-05
2.01693e-05
2.01622e-05
2.01337e-05
2.00853e-05
2.00414e-05
2.01625e-05
2.08366e-05
2.19911e-05
2.20101e-05
2.07592e-05
2.01673e-05
2.02111e-05
2.03454e-05
2.04115e-05
2.06029e-05
2.16341e-05
2.28177e-05
2.14034e-05
2.08583e-05
2.12504e-05
2.16284e-05
2.14214e-05
2.11803e-05
2.11614e-05
2.12483e-05
2.13135e-05
2.12995e-05
2.12577e-05
2.12382e-05
2.12422e-05
2.12556e-05
2.12713e-05
2.12911e-05
2.13253e-05
2.13855e-05
1.84404e-05
1.74754e-05
1.77737e-05
1.80592e-05
1.83327e-05
1.85947e-05
1.88453e-05
1.90842e-05
1.931e-05
1.95203e-05
1.97108e-05
1.98757e-05
2.00086e-05
2.01042e-05
2.01611e-05
2.01826e-05
2.01753e-05
2.01449e-05
2.00947e-05
2.00546e-05
2.01839e-05
2.08206e-05
2.18478e-05
2.18879e-05
2.07936e-05
2.0209e-05
2.02281e-05
2.03555e-05
2.04237e-05
2.06322e-05
2.164e-05
2.26817e-05
2.14061e-05
2.08864e-05
2.12753e-05
2.16472e-05
2.14324e-05
2.11812e-05
2.11594e-05
2.12488e-05
2.13157e-05
2.1301e-05
2.12574e-05
2.12369e-05
2.12407e-05
2.12543e-05
2.12701e-05
2.129e-05
2.13248e-05
2.13863e-05
1.84352e-05
1.74713e-05
1.77699e-05
1.80557e-05
1.83296e-05
1.8592e-05
1.8843e-05
1.90822e-05
1.93085e-05
1.95194e-05
1.97109e-05
1.98773e-05
2.00124e-05
2.01107e-05
2.01702e-05
2.01933e-05
2.0186e-05
2.01539e-05
2.01024e-05
2.00664e-05
2.02023e-05
2.08046e-05
2.17291e-05
2.17846e-05
2.08186e-05
2.02446e-05
2.02418e-05
2.03629e-05
2.04347e-05
2.06585e-05
2.16411e-05
2.25605e-05
2.14062e-05
2.09141e-05
2.13006e-05
2.16663e-05
2.14433e-05
2.11821e-05
2.11573e-05
2.12492e-05
2.1318e-05
2.13025e-05
2.12571e-05
2.12354e-05
2.12392e-05
2.1253e-05
2.12688e-05
2.12888e-05
2.13243e-05
2.13872e-05
1.84279e-05
1.74654e-05
1.77644e-05
1.80506e-05
1.83249e-05
1.85876e-05
1.8839e-05
1.90786e-05
1.93053e-05
1.95168e-05
1.97091e-05
1.9877e-05
2.00141e-05
2.01149e-05
2.01768e-05
2.02015e-05
2.01942e-05
2.01607e-05
2.01082e-05
2.00764e-05
2.0218e-05
2.07898e-05
2.16287e-05
2.16933e-05
2.08339e-05
2.02745e-05
2.02526e-05
2.03679e-05
2.04442e-05
2.0682e-05
2.1638e-05
2.24522e-05
2.14051e-05
2.09416e-05
2.13261e-05
2.16851e-05
2.14539e-05
2.11828e-05
2.1155e-05
2.12497e-05
2.13204e-05
2.13041e-05
2.12567e-05
2.12339e-05
2.12376e-05
2.12515e-05
2.12675e-05
2.12877e-05
2.13238e-05
2.13882e-05
1.84188e-05
1.74579e-05
1.77573e-05
1.8044e-05
1.83186e-05
1.85817e-05
1.88334e-05
1.90733e-05
1.93004e-05
1.95124e-05
1.97056e-05
1.98747e-05
2.00136e-05
2.01167e-05
2.01809e-05
2.02072e-05
2.02e-05
2.0165e-05
2.01119e-05
2.00845e-05
2.02313e-05
2.07761e-05
2.15416e-05
2.16098e-05
2.08406e-05
2.02993e-05
2.02614e-05
2.03712e-05
2.04524e-05
2.07028e-05
2.16319e-05
2.23558e-05
2.14036e-05
2.09689e-05
2.13513e-05
2.17031e-05
2.14641e-05
2.11833e-05
2.11526e-05
2.12501e-05
2.13229e-05
2.13057e-05
2.12563e-05
2.12323e-05
2.12358e-05
2.12501e-05
2.12661e-05
2.12865e-05
2.13234e-05
2.13893e-05
1.84081e-05
1.7449e-05
1.77488e-05
1.80359e-05
1.83109e-05
1.85743e-05
1.88264e-05
1.90666e-05
1.9294e-05
1.95065e-05
1.97003e-05
1.98706e-05
2.00112e-05
2.01164e-05
2.01828e-05
2.02104e-05
2.02033e-05
2.01671e-05
2.01136e-05
2.00907e-05
2.02428e-05
2.07633e-05
2.14641e-05
2.15322e-05
2.08405e-05
2.03204e-05
2.02691e-05
2.03733e-05
2.04595e-05
2.07216e-05
2.16237e-05
2.22704e-05
2.14025e-05
2.09957e-05
2.13757e-05
2.17201e-05
2.14735e-05
2.11835e-05
2.11499e-05
2.12504e-05
2.13254e-05
2.13073e-05
2.12558e-05
2.12306e-05
2.1234e-05
2.12485e-05
2.12647e-05
2.12853e-05
2.13229e-05
2.13904e-05
1.83959e-05
1.74389e-05
1.77391e-05
1.80265e-05
1.83019e-05
1.85657e-05
1.8818e-05
1.90586e-05
1.92863e-05
1.94991e-05
1.96936e-05
1.98649e-05
2.0007e-05
2.01142e-05
2.01825e-05
2.02115e-05
2.02044e-05
2.01672e-05
2.01137e-05
2.00958e-05
2.0253e-05
2.07512e-05
2.13943e-05
2.14604e-05
2.08363e-05
2.03391e-05
2.02763e-05
2.03748e-05
2.0466e-05
2.07385e-05
2.16143e-05
2.21951e-05
2.14021e-05
2.10217e-05
2.13988e-05
2.17356e-05
2.14819e-05
2.11833e-05
2.11469e-05
2.12506e-05
2.13278e-05
2.13089e-05
2.12552e-05
2.12287e-05
2.12321e-05
2.12469e-05
2.12633e-05
2.12841e-05
2.13225e-05
2.13916e-05
1.83826e-05
1.74278e-05
1.77284e-05
1.80162e-05
1.8292e-05
1.85561e-05
1.88087e-05
1.90495e-05
1.92775e-05
1.94907e-05
1.96858e-05
1.98579e-05
2.00014e-05
2.01103e-05
2.01805e-05
2.02108e-05
2.02039e-05
2.01658e-05
2.01129e-05
2.01004e-05
2.02626e-05
2.074e-05
2.13316e-05
2.13951e-05
2.08305e-05
2.03568e-05
2.02839e-05
2.03763e-05
2.04724e-05
2.07539e-05
2.16044e-05
2.21291e-05
2.14023e-05
2.10466e-05
2.14204e-05
2.17494e-05
2.14893e-05
2.11825e-05
2.11436e-05
2.12507e-05
2.13303e-05
2.13105e-05
2.12545e-05
2.12267e-05
2.12301e-05
2.12452e-05
2.12618e-05
2.12828e-05
2.1322e-05
2.13928e-05
1.83684e-05
1.7416e-05
1.77171e-05
1.80052e-05
1.82813e-05
1.85457e-05
1.87986e-05
1.90396e-05
1.92679e-05
1.94814e-05
1.9677e-05
1.985e-05
1.99947e-05
2.01053e-05
2.01772e-05
2.02088e-05
2.02022e-05
2.01637e-05
2.0112e-05
2.01055e-05
2.02724e-05
2.07301e-05
2.12758e-05
2.13371e-05
2.0825e-05
2.0374e-05
2.0292e-05
2.03776e-05
2.04787e-05
2.07678e-05
2.15943e-05
2.20713e-05
2.14031e-05
2.10701e-05
2.14401e-05
2.17613e-05
2.14955e-05
2.11812e-05
2.11401e-05
2.12508e-05
2.13328e-05
2.1312e-05
2.12538e-05
2.12246e-05
2.12279e-05
2.12434e-05
2.12601e-05
2.12814e-05
2.13215e-05
2.1394e-05
1.83537e-05
1.74037e-05
1.77052e-05
1.79937e-05
1.82701e-05
1.85348e-05
1.8788e-05
1.90293e-05
1.92577e-05
1.94716e-05
1.96676e-05
1.98414e-05
1.99873e-05
2.00995e-05
2.01731e-05
2.02061e-05
2.01999e-05
2.01615e-05
2.01118e-05
2.01117e-05
2.02829e-05
2.07218e-05
2.1227e-05
2.12869e-05
2.08209e-05
2.03911e-05
2.03003e-05
2.03789e-05
2.04848e-05
2.07804e-05
2.15841e-05
2.20205e-05
2.14043e-05
2.10921e-05
2.1458e-05
2.17711e-05
2.15003e-05
2.11792e-05
2.11363e-05
2.12507e-05
2.13354e-05
2.13136e-05
2.12528e-05
2.12223e-05
2.12256e-05
2.12414e-05
2.12585e-05
2.12799e-05
2.1321e-05
2.13953e-05
1.83387e-05
1.73912e-05
1.7693e-05
1.79819e-05
1.82586e-05
1.85236e-05
1.8777e-05
1.90185e-05
1.92473e-05
1.94614e-05
1.96579e-05
1.98325e-05
1.99795e-05
2.00932e-05
2.01685e-05
2.02029e-05
2.01975e-05
2.01597e-05
2.01128e-05
2.01194e-05
2.02944e-05
2.07157e-05
2.11852e-05
2.12442e-05
2.08184e-05
2.04079e-05
2.03087e-05
2.038e-05
2.04905e-05
2.07915e-05
2.15742e-05
2.1976e-05
2.14059e-05
2.11127e-05
2.14739e-05
2.17786e-05
2.15036e-05
2.11765e-05
2.11323e-05
2.12507e-05
2.1338e-05
2.13151e-05
2.12518e-05
2.12199e-05
2.12231e-05
2.12394e-05
2.12567e-05
2.12784e-05
2.13205e-05
2.13966e-05
1.83235e-05
1.73785e-05
1.76808e-05
1.797e-05
1.8247e-05
1.85123e-05
1.8766e-05
1.90077e-05
1.92367e-05
1.94511e-05
1.96481e-05
1.98233e-05
1.99715e-05
2.00867e-05
2.01637e-05
2.01995e-05
2.01952e-05
2.01586e-05
2.01152e-05
2.01288e-05
2.03071e-05
2.07118e-05
2.11499e-05
2.12079e-05
2.08171e-05
2.04239e-05
2.03167e-05
2.03809e-05
2.04955e-05
2.08014e-05
2.15644e-05
2.19368e-05
2.14077e-05
2.11319e-05
2.14879e-05
2.17839e-05
2.15053e-05
2.11733e-05
2.11282e-05
2.12508e-05
2.13407e-05
2.13166e-05
2.12507e-05
2.12173e-05
2.12206e-05
2.12373e-05
2.12548e-05
2.12768e-05
2.13199e-05
2.13979e-05
1.83083e-05
1.73659e-05
1.76685e-05
1.79581e-05
1.82354e-05
1.8501e-05
1.87549e-05
1.89969e-05
1.92261e-05
1.94408e-05
1.96382e-05
1.98142e-05
1.99634e-05
2.008e-05
2.01587e-05
2.01961e-05
2.01931e-05
2.01583e-05
2.0119e-05
2.01396e-05
2.03209e-05
2.07102e-05
2.11203e-05
2.11771e-05
2.08166e-05
2.04389e-05
2.03242e-05
2.03814e-05
2.05e-05
2.08102e-05
2.15551e-05
2.19024e-05
2.141e-05
2.11499e-05
2.14999e-05
2.17867e-05
2.15055e-05
2.11694e-05
2.11242e-05
2.12511e-05
2.13436e-05
2.13182e-05
2.12494e-05
2.12145e-05
2.12178e-05
2.1235e-05
2.12528e-05
2.12751e-05
2.13192e-05
2.13993e-05
1.82933e-05
1.73533e-05
1.76563e-05
1.79463e-05
1.82239e-05
1.84898e-05
1.8744e-05
1.89862e-05
1.92156e-05
1.94306e-05
1.96285e-05
1.98051e-05
1.99553e-05
2.00733e-05
2.01536e-05
2.01927e-05
2.01912e-05
2.01586e-05
2.0124e-05
2.01518e-05
2.03356e-05
2.07106e-05
2.10956e-05
2.11506e-05
2.0816e-05
2.04526e-05
2.03311e-05
2.03815e-05
2.05039e-05
2.08179e-05
2.15462e-05
2.18722e-05
2.14128e-05
2.11668e-05
2.151e-05
2.17872e-05
2.15039e-05
2.1165e-05
2.11202e-05
2.12516e-05
2.13467e-05
2.13198e-05
2.1248e-05
2.12116e-05
2.12149e-05
2.12326e-05
2.12507e-05
2.12734e-05
2.13185e-05
2.14007e-05
1.82784e-05
1.73409e-05
1.76443e-05
1.79346e-05
1.82126e-05
1.84788e-05
1.87332e-05
1.89757e-05
1.92053e-05
1.94206e-05
1.96189e-05
1.97961e-05
1.99474e-05
2.00667e-05
2.01485e-05
2.01892e-05
2.01894e-05
2.01595e-05
2.013e-05
2.0165e-05
2.03511e-05
2.07127e-05
2.10749e-05
2.11274e-05
2.0815e-05
2.04648e-05
2.03374e-05
2.03815e-05
2.05072e-05
2.08248e-05
2.15378e-05
2.18457e-05
2.1416e-05
2.11828e-05
2.1518e-05
2.17852e-05
2.15007e-05
2.11601e-05
2.11165e-05
2.12525e-05
2.135e-05
2.13214e-05
2.12466e-05
2.12084e-05
2.12119e-05
2.12301e-05
2.12485e-05
2.12715e-05
2.13178e-05
2.14022e-05
1.82635e-05
1.73285e-05
1.76324e-05
1.79231e-05
1.82014e-05
1.84679e-05
1.87226e-05
1.89653e-05
1.91952e-05
1.94108e-05
1.96094e-05
1.97873e-05
1.99394e-05
2.006e-05
2.01433e-05
2.01857e-05
2.01878e-05
2.01608e-05
2.01368e-05
2.01789e-05
2.03671e-05
2.07162e-05
2.10573e-05
2.11065e-05
2.08133e-05
2.04754e-05
2.03432e-05
2.03814e-05
2.05102e-05
2.08309e-05
2.153e-05
2.18227e-05
2.14198e-05
2.11977e-05
2.1524e-05
2.17807e-05
2.14956e-05
2.11547e-05
2.11129e-05
2.12538e-05
2.13537e-05
2.13231e-05
2.1245e-05
2.12052e-05
2.12087e-05
2.12275e-05
2.12461e-05
2.12695e-05
2.13171e-05
2.14037e-05
1.82487e-05
1.73162e-05
1.76206e-05
1.79117e-05
1.81903e-05
1.84571e-05
1.87121e-05
1.89551e-05
1.91853e-05
1.94011e-05
1.96001e-05
1.97786e-05
1.99315e-05
2.00533e-05
2.0138e-05
2.0182e-05
2.01862e-05
2.01626e-05
2.01442e-05
2.01933e-05
2.03833e-05
2.07206e-05
2.10421e-05
2.10873e-05
2.08108e-05
2.04848e-05
2.03486e-05
2.03814e-05
2.05129e-05
2.08362e-05
2.15226e-05
2.18027e-05
2.14239e-05
2.12114e-05
2.15279e-05
2.17737e-05
2.14887e-05
2.11489e-05
2.11098e-05
2.12555e-05
2.13576e-05
2.13249e-05
2.12433e-05
2.12017e-05
2.12053e-05
2.12247e-05
2.12437e-05
2.12674e-05
2.13162e-05
2.14052e-05
1.82337e-05
1.73038e-05
1.76086e-05
1.79001e-05
1.81792e-05
1.84463e-05
1.87016e-05
1.89449e-05
1.91753e-05
1.93915e-05
1.95909e-05
1.97699e-05
1.99236e-05
2.00464e-05
2.01325e-05
2.01781e-05
2.01846e-05
2.01646e-05
2.01523e-05
2.02083e-05
2.03997e-05
2.07256e-05
2.10286e-05
2.10694e-05
2.08077e-05
2.0493e-05
2.03539e-05
2.03817e-05
2.05155e-05
2.08408e-05
2.15157e-05
2.17853e-05
2.14283e-05
2.12239e-05
2.15296e-05
2.1764e-05
2.14801e-05
2.11427e-05
2.1107e-05
2.12579e-05
2.1362e-05
2.13268e-05
2.12415e-05
2.11981e-05
2.12018e-05
2.12218e-05
2.12411e-05
2.12652e-05
2.13154e-05
2.14068e-05
1.82182e-05
1.7291e-05
1.75964e-05
1.78883e-05
1.81678e-05
1.84353e-05
1.86909e-05
1.89345e-05
1.91652e-05
1.93817e-05
1.95815e-05
1.9761e-05
1.99155e-05
2.00393e-05
2.01267e-05
2.0174e-05
2.01829e-05
2.0167e-05
2.01608e-05
2.02235e-05
2.04161e-05
2.07308e-05
2.10163e-05
2.10527e-05
2.08044e-05
2.05008e-05
2.03594e-05
2.03825e-05
2.05181e-05
2.08449e-05
2.15092e-05
2.17702e-05
2.14328e-05
2.1235e-05
2.15292e-05
2.17518e-05
2.14697e-05
2.11362e-05
2.11048e-05
2.12609e-05
2.13668e-05
2.13288e-05
2.12396e-05
2.11943e-05
2.11981e-05
2.12187e-05
2.12384e-05
2.12629e-05
2.13144e-05
2.14084e-05
1.82019e-05
1.72775e-05
1.75835e-05
1.7876e-05
1.81559e-05
1.84238e-05
1.86798e-05
1.89238e-05
1.91549e-05
1.93717e-05
1.95718e-05
1.97518e-05
1.9907e-05
2.00318e-05
2.01205e-05
2.01695e-05
2.01811e-05
2.01695e-05
2.01698e-05
2.02391e-05
2.04322e-05
2.0736e-05
2.10052e-05
2.10375e-05
2.08015e-05
2.05085e-05
2.03656e-05
2.03841e-05
2.05209e-05
2.08487e-05
2.15032e-05
2.17571e-05
2.14375e-05
2.1245e-05
2.15265e-05
2.17374e-05
2.14579e-05
2.11296e-05
2.11033e-05
2.12645e-05
2.13719e-05
2.1331e-05
2.12376e-05
2.11903e-05
2.11942e-05
2.12155e-05
2.12356e-05
2.12605e-05
2.13134e-05
2.141e-05
1.81846e-05
1.72632e-05
1.75698e-05
1.78628e-05
1.81433e-05
1.84116e-05
1.86681e-05
1.89124e-05
1.91439e-05
1.93611e-05
1.95617e-05
1.97421e-05
1.9898e-05
2.00236e-05
2.01135e-05
2.01644e-05
2.01788e-05
2.01719e-05
2.0179e-05
2.02548e-05
2.04483e-05
2.07415e-05
2.09955e-05
2.10243e-05
2.07999e-05
2.0517e-05
2.03727e-05
2.03868e-05
2.05242e-05
2.08524e-05
2.14976e-05
2.17455e-05
2.14421e-05
2.12537e-05
2.15219e-05
2.17208e-05
2.14449e-05
2.1123e-05
2.11024e-05
2.12689e-05
2.13776e-05
2.13332e-05
2.12355e-05
2.11861e-05
2.11901e-05
2.12122e-05
2.12326e-05
2.1258e-05
2.13124e-05
2.14117e-05
1.81658e-05
1.72478e-05
1.75551e-05
1.78487e-05
1.81297e-05
1.83986e-05
1.86555e-05
1.89003e-05
1.91322e-05
1.93497e-05
1.95507e-05
1.97316e-05
1.9888e-05
2.00144e-05
2.01055e-05
2.01581e-05
2.01756e-05
2.01738e-05
2.0188e-05
2.02704e-05
2.04644e-05
2.07476e-05
2.09877e-05
2.10137e-05
2.08002e-05
2.05268e-05
2.03811e-05
2.03907e-05
2.05282e-05
2.08561e-05
2.14923e-05
2.17352e-05
2.14469e-05
2.12614e-05
2.15153e-05
2.17025e-05
2.1431e-05
2.11167e-05
2.11023e-05
2.1274e-05
2.13836e-05
2.13356e-05
2.12333e-05
2.11817e-05
2.11859e-05
2.12087e-05
2.12294e-05
2.12553e-05
2.13113e-05
2.14134e-05
1.81455e-05
1.7231e-05
1.7539e-05
1.78333e-05
1.81149e-05
1.83843e-05
1.86418e-05
1.8887e-05
1.91193e-05
1.93372e-05
1.95385e-05
1.97198e-05
1.98766e-05
2.00036e-05
2.00957e-05
2.015e-05
2.01707e-05
2.01746e-05
2.01965e-05
2.02859e-05
2.04808e-05
2.0755e-05
2.09825e-05
2.10061e-05
2.08028e-05
2.0538e-05
2.03908e-05
2.03958e-05
2.05328e-05
2.08597e-05
2.14872e-05
2.17259e-05
2.14517e-05
2.1268e-05
2.15071e-05
2.16828e-05
2.14166e-05
2.11108e-05
2.11029e-05
2.12797e-05
2.13901e-05
2.13381e-05
2.1231e-05
2.11772e-05
2.11815e-05
2.1205e-05
2.12262e-05
2.12525e-05
2.13102e-05
2.14152e-05
1.81234e-05
1.72128e-05
1.75217e-05
1.78166e-05
1.80988e-05
1.83688e-05
1.86267e-05
1.88724e-05
1.9105e-05
1.93233e-05
1.95248e-05
1.97063e-05
1.98633e-05
1.99906e-05
2.00834e-05
2.01394e-05
2.01636e-05
2.01735e-05
2.02038e-05
2.03012e-05
2.04979e-05
2.07643e-05
2.09804e-05
2.10018e-05
2.08077e-05
2.05507e-05
2.04018e-05
2.04021e-05
2.05379e-05
2.08632e-05
2.14821e-05
2.17175e-05
2.14565e-05
2.12738e-05
2.14974e-05
2.16619e-05
2.1402e-05
2.11055e-05
2.11043e-05
2.1286e-05
2.13969e-05
2.13406e-05
2.12286e-05
2.11724e-05
2.11769e-05
2.12012e-05
2.12228e-05
2.12496e-05
2.1309e-05
2.1417e-05
1.80996e-05
1.71932e-05
1.75028e-05
1.77984e-05
1.80812e-05
1.83517e-05
1.86101e-05
1.88562e-05
1.90891e-05
1.93075e-05
1.95091e-05
1.96906e-05
1.98475e-05
1.99748e-05
2.0068e-05
2.01256e-05
2.01535e-05
2.01701e-05
2.02099e-05
2.03162e-05
2.05159e-05
2.07759e-05
2.09817e-05
2.10005e-05
2.08144e-05
2.05644e-05
2.04138e-05
2.04092e-05
2.05434e-05
2.08664e-05
2.14769e-05
2.17097e-05
2.14612e-05
2.12788e-05
2.14865e-05
2.16404e-05
2.13875e-05
2.11008e-05
2.11064e-05
2.12928e-05
2.14039e-05
2.13432e-05
2.1226e-05
2.11674e-05
2.11721e-05
2.11972e-05
2.12192e-05
2.12466e-05
2.13078e-05
2.14189e-05
1.80741e-05
1.71721e-05
1.74826e-05
1.77789e-05
1.80622e-05
1.83331e-05
1.85919e-05
1.88382e-05
1.90713e-05
1.92897e-05
1.94911e-05
1.96723e-05
1.98288e-05
1.99558e-05
2.00491e-05
2.01083e-05
2.01402e-05
2.01645e-05
2.02149e-05
2.03315e-05
2.05354e-05
2.07901e-05
2.09861e-05
2.10019e-05
2.08225e-05
2.05788e-05
2.04264e-05
2.04169e-05
2.05489e-05
2.08693e-05
2.14716e-05
2.17024e-05
2.14659e-05
2.1283e-05
2.14745e-05
2.16184e-05
2.13734e-05
2.10967e-05
2.1109e-05
2.13e-05
2.14111e-05
2.13458e-05
2.12232e-05
2.11621e-05
2.1167e-05
2.11931e-05
2.12155e-05
2.12434e-05
2.13065e-05
2.14208e-05
1.80472e-05
1.71499e-05
1.74612e-05
1.7758e-05
1.80418e-05
1.83131e-05
1.85721e-05
1.88185e-05
1.90515e-05
1.92697e-05
1.94707e-05
1.96512e-05
1.98069e-05
1.99332e-05
2.00266e-05
2.00875e-05
2.01242e-05
2.01571e-05
2.02194e-05
2.03476e-05
2.05568e-05
2.08069e-05
2.09934e-05
2.10054e-05
2.08315e-05
2.05935e-05
2.04393e-05
2.0425e-05
2.05544e-05
2.08717e-05
2.14663e-05
2.16958e-05
2.14704e-05
2.12863e-05
2.14616e-05
2.15961e-05
2.13596e-05
2.10933e-05
2.1112e-05
2.13073e-05
2.14183e-05
2.13482e-05
2.12202e-05
2.11566e-05
2.11618e-05
2.11887e-05
2.12116e-05
2.12401e-05
2.13052e-05
2.14228e-05
1.80195e-05
1.71269e-05
1.74389e-05
1.77363e-05
1.80203e-05
1.82918e-05
1.85509e-05
1.87972e-05
1.90299e-05
1.92476e-05
1.94478e-05
1.96274e-05
1.9782e-05
1.99075e-05
2.0001e-05
2.0064e-05
2.01063e-05
2.01492e-05
2.02247e-05
2.03654e-05
2.05803e-05
2.08262e-05
2.10033e-05
2.1011e-05
2.08415e-05
2.06085e-05
2.04527e-05
2.04333e-05
2.05597e-05
2.08736e-05
2.1461e-05
2.16898e-05
2.14745e-05
2.12887e-05
2.14479e-05
2.15739e-05
2.13463e-05
2.10904e-05
2.11153e-05
2.13146e-05
2.14254e-05
2.13504e-05
2.12168e-05
2.11508e-05
2.11562e-05
2.11842e-05
2.12076e-05
2.12367e-05
2.13038e-05
2.14249e-05
1.79913e-05
1.71035e-05
1.74162e-05
1.77138e-05
1.79981e-05
1.82695e-05
1.85284e-05
1.87744e-05
1.90066e-05
1.92236e-05
1.94228e-05
1.96011e-05
1.97545e-05
1.98792e-05
1.99731e-05
2.00391e-05
2.00882e-05
2.01422e-05
2.0232e-05
2.03856e-05
2.06063e-05
2.0848e-05
2.10156e-05
2.10187e-05
2.08528e-05
2.06242e-05
2.04665e-05
2.0442e-05
2.05649e-05
2.08752e-05
2.14561e-05
2.16842e-05
2.1478e-05
2.129e-05
2.14336e-05
2.15519e-05
2.13334e-05
2.10878e-05
2.11187e-05
2.13217e-05
2.14323e-05
2.13522e-05
2.12131e-05
2.11446e-05
2.11505e-05
2.11795e-05
2.12033e-05
2.12332e-05
2.13024e-05
2.1427e-05
1.79638e-05
1.70807e-05
1.73936e-05
1.76912e-05
1.79754e-05
1.82466e-05
1.85051e-05
1.87506e-05
1.89821e-05
1.91981e-05
1.93961e-05
1.95731e-05
1.97253e-05
1.98495e-05
1.99445e-05
2.00144e-05
2.00715e-05
2.01379e-05
2.02426e-05
2.0409e-05
2.06351e-05
2.08722e-05
2.10307e-05
2.10291e-05
2.08661e-05
2.06411e-05
2.04813e-05
2.04512e-05
2.05701e-05
2.08766e-05
2.14515e-05
2.16791e-05
2.14805e-05
2.12899e-05
2.14188e-05
2.15301e-05
2.13208e-05
2.10854e-05
2.11219e-05
2.13286e-05
2.14387e-05
2.13535e-05
2.12088e-05
2.1138e-05
2.11445e-05
2.11745e-05
2.11989e-05
2.12295e-05
2.13009e-05
2.14291e-05
1.79407e-05
1.7059e-05
1.73715e-05
1.76689e-05
1.79526e-05
1.82234e-05
1.84814e-05
1.87262e-05
1.89568e-05
1.91716e-05
1.93685e-05
1.95442e-05
1.96955e-05
1.98196e-05
1.99166e-05
1.99916e-05
2.0058e-05
2.01378e-05
2.02575e-05
2.04362e-05
2.06667e-05
2.08991e-05
2.10489e-05
2.1043e-05
2.08823e-05
2.066e-05
2.04973e-05
2.04611e-05
2.05753e-05
2.08779e-05
2.14473e-05
2.1674e-05
2.14814e-05
2.12882e-05
2.14037e-05
2.15089e-05
2.13086e-05
2.10829e-05
2.11249e-05
2.13349e-05
2.14445e-05
2.13542e-05
2.12041e-05
2.11311e-05
2.11382e-05
2.11694e-05
2.11944e-05
2.12257e-05
2.12994e-05
2.14314e-05
1.79153e-05
1.70361e-05
1.7349e-05
1.76464e-05
1.79299e-05
1.82003e-05
1.84577e-05
1.87016e-05
1.89313e-05
1.9145e-05
1.93407e-05
1.95154e-05
1.96661e-05
1.9791e-05
1.9891e-05
1.99724e-05
2.00492e-05
2.01428e-05
2.02773e-05
2.04673e-05
2.07011e-05
2.09285e-05
2.10704e-05
2.10608e-05
2.0902e-05
2.06814e-05
2.05148e-05
2.04716e-05
2.05806e-05
2.08792e-05
2.14436e-05
2.16686e-05
2.14804e-05
2.12848e-05
2.13884e-05
2.14883e-05
2.12966e-05
2.10803e-05
2.11275e-05
2.13407e-05
2.14495e-05
2.13541e-05
2.11987e-05
2.11238e-05
2.11317e-05
2.11642e-05
2.11897e-05
2.12218e-05
2.12979e-05
2.14337e-05
1.78939e-05
1.70163e-05
1.73286e-05
1.76254e-05
1.79083e-05
1.81781e-05
1.84347e-05
1.86778e-05
1.89064e-05
1.91191e-05
1.93137e-05
1.94876e-05
1.96385e-05
1.9765e-05
1.9869e-05
1.99579e-05
2.0046e-05
2.01537e-05
2.03022e-05
2.0502e-05
2.07381e-05
2.09606e-05
2.10953e-05
2.10826e-05
2.09255e-05
2.07054e-05
2.05338e-05
2.04828e-05
2.05858e-05
2.08804e-05
2.144e-05
2.16624e-05
2.14768e-05
2.12794e-05
2.13732e-05
2.14685e-05
2.12849e-05
2.10775e-05
2.11295e-05
2.13457e-05
2.14536e-05
2.1353e-05
2.11926e-05
2.11161e-05
2.11251e-05
2.11588e-05
2.11848e-05
2.12177e-05
2.12964e-05
2.14361e-05
1.78735e-05
1.69974e-05
1.73093e-05
1.76057e-05
1.78881e-05
1.81572e-05
1.8413e-05
1.86552e-05
1.88829e-05
1.90946e-05
1.92884e-05
1.94621e-05
1.96137e-05
1.97427e-05
1.98519e-05
1.99493e-05
2.00491e-05
2.01705e-05
2.03318e-05
2.054e-05
2.07773e-05
2.09947e-05
2.11233e-05
2.11081e-05
2.09523e-05
2.07319e-05
2.05542e-05
2.04944e-05
2.05908e-05
2.08814e-05
2.14361e-05
2.16547e-05
2.14702e-05
2.12721e-05
2.13584e-05
2.14499e-05
2.12734e-05
2.10742e-05
2.11309e-05
2.135e-05
2.14567e-05
2.1351e-05
2.11858e-05
2.11081e-05
2.11182e-05
2.11533e-05
2.11799e-05
2.12136e-05
2.12948e-05
2.14386e-05
1.78548e-05
1.69803e-05
1.72918e-05
1.75878e-05
1.78697e-05
1.81381e-05
1.83932e-05
1.86345e-05
1.88614e-05
1.90724e-05
1.92658e-05
1.94398e-05
1.95929e-05
1.97253e-05
1.98405e-05
1.99469e-05
2.00585e-05
2.01929e-05
2.03657e-05
2.05804e-05
2.08178e-05
2.10304e-05
2.11535e-05
2.11367e-05
2.0982e-05
2.07603e-05
2.05756e-05
2.0506e-05
2.05953e-05
2.08818e-05
2.14317e-05
2.16448e-05
2.14602e-05
2.12629e-05
2.13441e-05
2.14325e-05
2.12621e-05
2.10705e-05
2.11317e-05
2.13533e-05
2.14586e-05
2.13477e-05
2.11783e-05
2.10997e-05
2.11113e-05
2.11477e-05
2.11748e-05
2.12094e-05
2.12933e-05
2.14412e-05
1.78386e-05
1.69659e-05
1.7277e-05
1.75725e-05
1.78538e-05
1.81215e-05
1.83759e-05
1.86165e-05
1.88427e-05
1.90532e-05
1.92467e-05
1.94215e-05
1.95767e-05
1.97133e-05
1.98353e-05
1.99511e-05
2.00742e-05
2.02205e-05
2.0403e-05
2.06227e-05
2.08591e-05
2.10668e-05
2.11853e-05
2.11674e-05
2.10137e-05
2.07901e-05
2.05975e-05
2.05175e-05
2.05991e-05
2.08814e-05
2.14261e-05
2.16323e-05
2.14467e-05
2.1252e-05
2.13308e-05
2.14165e-05
2.12512e-05
2.10664e-05
2.11318e-05
2.13556e-05
2.14591e-05
2.13431e-05
2.11699e-05
2.1091e-05
2.11044e-05
2.11422e-05
2.11697e-05
2.12052e-05
2.12919e-05
2.1444e-05
1.78257e-05
1.69545e-05
1.72652e-05
1.75601e-05
1.78408e-05
1.81079e-05
1.83616e-05
1.86016e-05
1.88273e-05
1.90377e-05
1.92316e-05
1.94078e-05
1.95658e-05
1.97072e-05
1.98363e-05
1.99616e-05
2.00957e-05
2.02526e-05
2.04431e-05
2.06661e-05
2.09006e-05
2.11034e-05
2.1218e-05
2.11994e-05
2.10468e-05
2.08207e-05
2.06196e-05
2.05285e-05
2.0602e-05
2.08799e-05
2.14189e-05
2.16165e-05
2.14295e-05
2.12398e-05
2.13188e-05
2.1402e-05
2.12405e-05
2.10618e-05
2.11312e-05
2.13569e-05
2.14581e-05
2.13371e-05
2.11606e-05
2.10821e-05
2.10974e-05
2.11366e-05
2.11647e-05
2.1201e-05
2.12905e-05
2.14468e-05
1.78166e-05
1.69463e-05
1.72564e-05
1.75509e-05
1.7831e-05
1.80975e-05
1.83507e-05
1.85902e-05
1.88157e-05
1.90263e-05
1.9221e-05
1.9399e-05
1.95604e-05
1.9707e-05
1.98435e-05
1.9978e-05
2.01222e-05
2.02884e-05
2.04853e-05
2.07101e-05
2.0942e-05
2.114e-05
2.12511e-05
2.12324e-05
2.10806e-05
2.08517e-05
2.06416e-05
2.05389e-05
2.06039e-05
2.08773e-05
2.14098e-05
2.15971e-05
2.14087e-05
2.12265e-05
2.13084e-05
2.13892e-05
2.12302e-05
2.10567e-05
2.113e-05
2.13571e-05
2.14554e-05
2.13296e-05
2.11506e-05
2.1073e-05
2.10906e-05
2.11313e-05
2.11596e-05
2.11969e-05
2.12893e-05
2.14498e-05
1.78111e-05
1.69412e-05
1.72509e-05
1.75448e-05
1.78244e-05
1.80905e-05
1.83432e-05
1.85825e-05
1.8808e-05
1.9019e-05
1.92149e-05
1.93951e-05
1.95603e-05
1.97124e-05
1.98562e-05
1.99995e-05
2.01529e-05
2.03272e-05
2.0529e-05
2.07545e-05
2.09832e-05
2.11766e-05
2.12846e-05
2.12658e-05
2.11147e-05
2.08826e-05
2.06632e-05
2.05485e-05
2.06047e-05
2.08733e-05
2.13983e-05
2.1574e-05
2.13848e-05
2.12128e-05
2.12997e-05
2.13781e-05
2.12202e-05
2.10513e-05
2.1128e-05
2.1356e-05
2.1451e-05
2.13205e-05
2.11398e-05
2.10639e-05
2.1084e-05
2.11261e-05
2.11547e-05
2.11928e-05
2.12881e-05
2.14528e-05
1.78091e-05
1.69391e-05
1.72484e-05
1.75419e-05
1.78211e-05
1.80868e-05
1.83392e-05
1.85784e-05
1.88041e-05
1.90159e-05
1.92132e-05
1.9396e-05
1.95651e-05
1.97228e-05
1.98737e-05
2.00253e-05
2.0187e-05
2.03682e-05
2.05739e-05
2.07993e-05
2.10246e-05
2.12134e-05
2.13186e-05
2.12995e-05
2.11489e-05
2.09132e-05
2.06841e-05
2.05573e-05
2.06045e-05
2.08678e-05
2.13843e-05
2.15471e-05
2.13581e-05
2.11991e-05
2.12929e-05
2.13685e-05
2.12105e-05
2.10455e-05
2.11254e-05
2.13536e-05
2.14447e-05
2.13098e-05
2.11283e-05
2.10548e-05
2.10778e-05
2.11212e-05
2.115e-05
2.11889e-05
2.12871e-05
2.14559e-05
1.78104e-05
1.69399e-05
1.72488e-05
1.7542e-05
1.78208e-05
1.80862e-05
1.83385e-05
1.85778e-05
1.88039e-05
1.90166e-05
1.92157e-05
1.94012e-05
1.95744e-05
1.97376e-05
1.98954e-05
2.00547e-05
2.02239e-05
2.04109e-05
2.06196e-05
2.08445e-05
2.10664e-05
2.12507e-05
2.13529e-05
2.13333e-05
2.11824e-05
2.09428e-05
2.07039e-05
2.0565e-05
2.06032e-05
2.08607e-05
2.13675e-05
2.15166e-05
2.13292e-05
2.11859e-05
2.12881e-05
2.13605e-05
2.12012e-05
2.10394e-05
2.1122e-05
2.13497e-05
2.14364e-05
2.12976e-05
2.11163e-05
2.1046e-05
2.1072e-05
2.11166e-05
2.11455e-05
2.11852e-05
2.12863e-05
2.1459e-05
1.78146e-05
1.69432e-05
1.72518e-05
1.75447e-05
1.78234e-05
1.80886e-05
1.83409e-05
1.85804e-05
1.88071e-05
1.90209e-05
1.92218e-05
1.94103e-05
1.95875e-05
1.9756e-05
1.99204e-05
2.00867e-05
2.02627e-05
2.0455e-05
2.06661e-05
2.08903e-05
2.11087e-05
2.12886e-05
2.13875e-05
2.13666e-05
2.12147e-05
2.09707e-05
2.07222e-05
2.05713e-05
2.06007e-05
2.0852e-05
2.1348e-05
2.14828e-05
2.12989e-05
2.11737e-05
2.12853e-05
2.13538e-05
2.11921e-05
2.1033e-05
2.1118e-05
2.13444e-05
2.14262e-05
2.12839e-05
2.11038e-05
2.10374e-05
2.10667e-05
2.11126e-05
2.11414e-05
2.11817e-05
2.12856e-05
2.14621e-05
1.78214e-05
1.69488e-05
1.72572e-05
1.75499e-05
1.78284e-05
1.80936e-05
1.83461e-05
1.85859e-05
1.88133e-05
1.90284e-05
1.92313e-05
1.94226e-05
1.96038e-05
1.97776e-05
1.9948e-05
2.01209e-05