/*--------------------------------*- C++ -*----------------------------------*\
  =========                 |
  \\      /  F ield         | OpenFOAM: The Open Source CFD Toolbox
   \\    /   O peration     | Website:  https://openfoam.org
    \\  /    A nd           | Version:  9
     \\/     M anipulation  |
\*---------------------------------------------------------------------------*/
FoamFile
{
    format      ascii;
    class       volVectorField;
    location    "0.08";
    object      U;
}
// * * * * * * * * * * * * * * * * * * * * * * * * * * * * * * * * * * * * * //

dimensions      [0 1 -1 0 0 0 0];

internalField   nonuniform List<vector> 
5000
(
(0.000126232 0 -0.00583995)
(0.000179215 0 -0.0129563)
(0.000217994 0 -0.0198356)
(0.000261756 0 -0.0268063)
(0.000313024 0 -0.0341301)
(0.000370429 0 -0.0418696)
(0.000431313 0 -0.0498541)
(0.000490215 0 -0.0575319)
(0.000540377 0 -0.0636805)
(0.000582501 0 -0.0660332)
(0.00064553 0 -0.0610529)
(0.000814009 0 -0.0443398)
(0.00122787 0 -0.0121166)
(0.00201099 0 0.0366503)
(0.00316923 0 0.0991953)
(0.00458131 0 0.170375)
(0.00611301 0 0.245549)
(0.0077342 0 0.322952)
(0.00946918 0 0.40505)
(0.0107361 0 0.497186)
(0.0120265 0 0.568821)
(0.0351547 0 0.326636)
(0.0690303 0 -1.032)
(-0.0509575 0 -1.07918)
(-0.0311221 0 0.428696)
(-0.00773461 0 0.628598)
(-0.00640507 0 0.566643)
(-0.00323694 0 0.519828)
(-0.00101974 0 0.512385)
(-0.00489309 0 0.5164)
(0.0187136 0 0.151984)
(0.000751532 0 -0.919222)
(-0.0225458 0 0.192749)
(-0.00251561 0 0.424196)
(-0.00550628 0 0.241418)
(-0.00140499 0 0.0770334)
(0.00065232 0 0.157147)
(0.000554803 0 0.237143)
(-0.000357659 0 0.237708)
(-0.000574088 0 0.206073)
(-0.000206673 0 0.182775)
(0.000136502 0 0.188389)
(0.000165974 0 0.202889)
(1.40513e-05 0 0.208796)
(-0.000123931 0 0.206435)
(-0.000200472 0 0.200555)
(-0.000259258 0 0.193388)
(-0.000345661 0 0.184309)
(-0.000450949 0 0.170059)
(-0.0004615 0 0.146578)
(0.000766892 0 -0.00624488)
(0.000875776 0 -0.0132496)
(0.000970754 0 -0.0201332)
(0.00109421 0 -0.0271359)
(0.00125152 0 -0.0344834)
(0.00144257 0 -0.0422322)
(0.00166829 0 -0.0502004)
(0.00192781 0 -0.0578214)
(0.00222075 0 -0.0638654)
(0.00255997 0 -0.0660926)
(0.00300219 0 -0.0610564)
(0.00369058 0 -0.0444997)
(0.00486173 0 -0.0127342)
(0.00675614 0 0.0353745)
(0.00946274 0 0.0973122)
(0.0128459 0 0.168086)
(0.0166865 0 0.242976)
(0.0209295 0 0.320069)
(0.0257859 0 0.401987)
(0.0305965 0 0.493567)
(0.0370735 0 0.55212)
(0.0794303 0 0.259198)
(0.111516 0 -0.951512)
(-0.0811532 0 -0.954155)
(-0.0654043 0 0.384278)
(-0.02167 0 0.616154)
(-0.0173427 0 0.560734)
(-0.00930476 0 0.516004)
(-0.00232333 0 0.511262)
(-0.0104421 0 0.51058)
(0.0454315 0 0.123565)
(0.000604809 0 -0.860792)
(-0.0569726 0 0.180081)
(-0.00846419 0 0.420377)
(-0.0145741 0 0.237001)
(-0.00426698 0 0.0758735)
(-0.000103571 0 0.156655)
(0.000602075 0 0.237317)
(-0.000915787 0 0.237656)
(-0.00126792 0 0.205564)
(-0.000546979 0 0.182328)
(0.00013119 0 0.188115)
(0.000241596 0 0.202723)
(-4.96552e-05 0 0.208626)
(-0.000367365 0 0.206205)
(-0.000580653 0 0.20029)
(-0.000758081 0 0.193126)
(-0.000977245 0 0.184054)
(-0.00118558 0 0.169728)
(-0.00111493 0 0.146075)
(0.00164522 0 -0.0064529)
(0.00175111 0 -0.0135083)
(0.00187375 0 -0.0204806)
(0.00204947 0 -0.0275849)
(0.00228156 0 -0.0350308)
(0.00257246 0 -0.0428739)
(0.00292577 0 -0.0509317)
(0.00334424 0 -0.0586422)
(0.00383447 0 -0.0648044)
(0.00442303 0 -0.0672592)
(0.00519131 0 -0.0627115)
(0.006322 0 -0.047079)
(0.00810833 0 -0.0167145)
(0.0108515 0 0.0297746)
(0.0146801 0 0.0903426)
(0.019459 0 0.160288)
(0.0249175 0 0.234776)
(0.0309291 0 0.311582)
(0.03771 0 0.393216)
(0.0444648 0 0.482727)
(0.0533118 0 0.523508)
(0.102212 0 0.195374)
(0.113414 0 -0.837654)
(-0.0842872 0 -0.821085)
(-0.0790064 0 0.322277)
(-0.0261632 0 0.596083)
(-0.0229442 0 0.551861)
(-0.013295 0 0.509914)
(-0.00234932 0 0.508213)
(-0.0131791 0 0.499771)
(0.0612651 0 0.0960011)
(-0.00229858 0 -0.784999)
(-0.0803665 0 0.158803)
(-0.0133942 0 0.413575)
(-0.0220172 0 0.230791)
(-0.00694934 0 0.0713792)
(-0.00160138 0 0.15395)
(0.000286358 0 0.237741)
(-0.00142404 0 0.238562)
(-0.00181969 0 0.205458)
(-0.000895987 0 0.18178)
(-6.55004e-07 0 0.187778)
(0.000208242 0 0.202838)
(-0.000156493 0 0.208951)
(-0.000605316 0 0.206504)
(-0.00093182 0 0.200528)
(-0.00120519 0 0.193368)
(-0.00151451 0 0.184324)
(-0.00177579 0 0.169901)
(-0.00162691 0 0.145919)
(0.00244995 0 -0.00665526)
(0.0025571 0 -0.0138726)
(0.00270515 0 -0.0209926)
(0.00291678 0 -0.028245)
(0.0031972 0 -0.0358421)
(0.00355285 0 -0.0438373)
(0.00398963 0 -0.0520464)
(0.00451317 0 -0.0599148)
(0.00513598 0 -0.0662749)
(0.00589604 0 -0.0690533)
(0.00689244 0 -0.0651083)
(0.00832985 0 -0.0505332)
(0.0105262 0 -0.0217342)
(0.0138112 0 0.0229088)
(0.0183335 0 0.0818157)
(0.0239493 0 0.15065)
(0.0303153 0 0.224561)
(0.0371491 0 0.30109)
(0.0445504 0 0.382542)
(0.0517657 0 0.469349)
(0.0611379 0 0.492697)
(0.109538 0 0.148113)
(0.102871 0 -0.727909)
(-0.0758585 0 -0.703672)
(-0.080513 0 0.274634)
(-0.0261219 0 0.575041)
(-0.0240989 0 0.542083)
(-0.0149126 0 0.502667)
(-0.00188188 0 0.503464)
(-0.0135864 0 0.484038)
(0.0683104 0 0.0715544)
(-0.00614735 0 -0.708913)
(-0.0936933 0 0.142248)
(-0.0183544 0 0.403163)
(-0.0279221 0 0.222405)
(-0.00894352 0 0.0652385)
(-0.00289979 0 0.150402)
(-0.000112353 0 0.237998)
(-0.00198203 0 0.23954)
(-0.00236062 0 0.205309)
(-0.00123687 0 0.181114)
(-0.00014264 0 0.187395)
(0.00013965 0 0.203015)
(-0.00029547 0 0.209405)
(-0.000848606 0 0.206939)
(-0.00126307 0 0.200891)
(-0.00160849 0 0.193722)
(-0.00198164 0 0.184678)
(-0.0022803 0 0.170087)
(-0.00207796 0 0.145674)
(0.00308547 0 -0.00685412)
(0.00319259 0 -0.0142692)
(0.00335173 0 -0.0215641)
(0.0035807 0 -0.0289878)
(0.00388605 0 -0.0367615)
(0.00427625 0 -0.0449362)
(0.00475873 0 -0.0533245)
(0.00534164 0 -0.06138)
(0.00604221 0 -0.0679714)
(0.00690595 0 -0.071111)
(0.0080407 0 -0.0678042)
(0.0096556 0 -0.0543093)
(0.0120661 0 -0.0270874)
(0.0156029 0 0.0156837)
(0.020426 0 0.0728643)
(0.0263946 0 0.140523)
(0.0331117 0 0.213903)
(0.0401408 0 0.290413)
(0.0474802 0 0.372003)
(0.0547775 0 0.455881)
(0.0645093 0 0.464334)
(0.107057 0 0.119958)
(0.0879203 0 -0.626319)
(-0.0637532 0 -0.600437)
(-0.0758502 0 0.242343)
(-0.0251242 0 0.554782)
(-0.0226963 0 0.532948)
(-0.0148327 0 0.495645)
(-0.00114866 0 0.497748)
(-0.0116442 0 0.466276)
(0.0687499 0 0.0532277)
(-0.00985843 0 -0.635265)
(-0.0988589 0 0.131012)
(-0.0233018 0 0.390365)
(-0.0321056 0 0.212919)
(-0.0103134 0 0.0585343)
(-0.00393618 0 0.146412)
(-0.000509173 0 0.237884)
(-0.0025172 0 0.240293)
(-0.00285314 0 0.205024)
(-0.00156057 0 0.180327)
(-0.000293155 0 0.186907)
(4.12651e-05 0 0.2031)
(-0.000453404 0 0.209793)
(-0.00108937 0 0.207322)
(-0.00157445 0 0.2012)
(-0.00197595 0 0.194013)
(-0.00239336 0 0.184948)
(-0.0027144 0 0.170152)
(-0.00247589 0 0.145287)
(0.00348048 0 -0.00704776)
(0.00358593 0 -0.0146671)
(0.00374549 0 -0.0221508)
(0.00397952 0 -0.0297591)
(0.00429423 0 -0.0377218)
(0.00469825 0 -0.0460882)
(0.0051996 0 -0.0546683)
(0.00580772 0 -0.0629267)
(0.00654232 0 -0.069771)
(0.00745218 0 -0.0733)
(0.00864692 0 -0.0706592)
(0.0103312 0 -0.0582583)
(0.0128071 0 -0.0326049)
(0.0163937 0 0.00831587)
(0.0212561 0 0.0637948)
(0.0272653 0 0.130339)
(0.0340008 0 0.203371)
(0.0409109 0 0.280203)
(0.0478878 0 0.362187)
(0.0550358 0 0.44298)
(0.0649335 0 0.439413)
(0.0994251 0 0.105793)
(0.0731811 0 -0.534676)
(-0.0524027 0 -0.510846)
(-0.0683384 0 0.219656)
(-0.0232809 0 0.535206)
(-0.019799 0 0.524759)
(-0.0136657 0 0.489536)
(-0.000292327 0 0.491776)
(-0.00861554 0 0.448565)
(0.065045 0 0.0401857)
(-0.0127306 0 -0.565574)
(-0.0984407 0 0.123587)
(-0.0273991 0 0.376779)
(-0.0345799 0 0.202789)
(-0.0111856 0 0.0513501)
(-0.00478775 0 0.142113)
(-0.000833374 0 0.237589)
(-0.00296884 0 0.240948)
(-0.00326209 0 0.204653)
(-0.00185741 0 0.179428)
(-0.000453459 0 0.186329)
(-7.96368e-05 0 0.20314)
(-0.000620811 0 0.210164)
(-0.00132325 0 0.207693)
(-0.00186769 0 0.201492)
(-0.00231508 0 0.194277)
(-0.00276355 0 0.185177)
(-0.00309365 0 0.170156)
(-0.00282433 0 0.144817)
(0.003578 0 -0.00723565)
(0.00368223 0 -0.0150578)
(0.00383817 0 -0.0227357)
(0.00407084 0 -0.0305357)
(0.00438528 0 -0.0386931)
(0.0047893 0 -0.0472561)
(0.00529066 0 -0.0560338)
(0.00589905 0 -0.0645035)
(0.00663473 0 -0.0716134)
(0.00754673 0 -0.0755468)
(0.00874228 0 -0.0735809)
(0.0104177 0 -0.0622646)
(0.0128598 0 -0.0381466)
(0.0163742 0 0.00096796)
(0.0211293 0 0.0547851)
(0.0270114 0 0.120274)
(0.0335932 0 0.1931)
(0.0402392 0 0.270504)
(0.0467331 0 0.353024)
(0.0535422 0 0.430786)
(0.0632591 0 0.418112)
(0.0899562 0 0.100977)
(0.0610234 0 -0.454276)
(-0.042525 0 -0.435339)
(-0.0593585 0 0.202565)
(-0.0201649 0 0.516619)
(-0.0159884 0 0.517593)
(-0.0118011 0 0.484523)
(0.000532255 0 0.485945)
(-0.00568211 0 0.431876)
(0.0594003 0 0.0315348)
(-0.0146595 0 -0.501663)
(-0.0947894 0 0.119005)
(-0.0302209 0 0.363408)
(-0.0356128 0 0.192311)
(-0.011617 0 0.0437251)
(-0.00541558 0 0.137601)
(-0.00101532 0 0.237254)
(-0.00331724 0 0.241636)
(-0.00358538 0 0.204269)
(-0.00211873 0 0.178451)
(-0.000609573 0 0.185697)
(-0.000206343 0 0.203187)
(-0.000788507 0 0.210578)
(-0.00154979 0 0.208111)
(-0.00214613 0 0.201822)
(-0.00263204 0 0.194571)
(-0.00310413 0 0.185425)
(-0.00343637 0 0.170159)
(-0.00313693 0 0.144315)
(0.00334199 0 -0.00742048)
(0.00344676 0 -0.0154409)
(0.00359834 0 -0.0233115)
(0.00382669 0 -0.031303)
(0.00413527 0 -0.0396536)
(0.00453072 0 -0.0484103)
(0.00502018 0 -0.0573829)
(0.00561295 0 -0.0660618)
(0.00632885 0 -0.073435)
(0.00721538 0 -0.0777665)
(0.00837489 0 -0.0764564)
(0.00999291 0 -0.0661824)
(0.0123401 0 -0.0435353)
(0.0157088 0 -0.00616024)
(0.0202707 0 0.0460382)
(0.0259326 0 0.110498)
(0.0322802 0 0.183184)
(0.0386326 0 0.261285)
(0.044681 0 0.344401)
(0.0511675 0 0.419385)
(0.0605593 0 0.400259)
(0.0808467 0 0.102057)
(0.0523724 0 -0.384989)
(-0.0334326 0 -0.372366)
(-0.0498765 0 0.189426)
(-0.0162617 0 0.499634)
(-0.0118667 0 0.511621)
(-0.00956981 0 0.480641)
(0.00124699 0 0.480488)
(-0.00320112 0 0.416615)
(0.0534198 0 0.0264443)
(-0.015855 0 -0.444085)
(-0.0896836 0 0.116698)
(-0.0319617 0 0.350624)
(-0.0355618 0 0.181723)
(-0.0116421 0 0.0358922)
(-0.00575215 0 0.133015)
(-0.00103154 0 0.236922)
(-0.00356411 0 0.242386)
(-0.00382968 0 0.203902)
(-0.00233776 0 0.177426)
(-0.000744842 0 0.185034)
(-0.000324651 0 0.203256)
(-0.000950571 0 0.211044)
(-0.00176895 0 0.208585)
(-0.0024128 0 0.202199)
(-0.00293223 0 0.194902)
(-0.00342449 0 0.185699)
(-0.00375722 0 0.170169)
(-0.0034287 0 0.143792)
(0.00275404 0 -0.00760579)
(0.00286144 0 -0.0158196)
(0.00300938 0 -0.0238767)
(0.00323302 0 -0.0320528)
(0.00353373 0 -0.0405886)
(0.00391693 0 -0.0495298)
(0.00438904 0 -0.0586871)
(0.00495862 0 -0.0675641)
(0.00564433 0 -0.075187)
(0.00649096 0 -0.0798951)
(0.00759438 0 -0.0792028)
(0.00912756 0 -0.0699084)
(0.0113443 0 -0.0486479)
(0.0145242 0 -0.0129303)
(0.0188439 0 0.0376975)
(0.0242339 0 0.101138)
(0.0303091 0 0.173694)
(0.0363903 0 0.252511)
(0.0421098 0 0.336175)
(0.048408 0 0.408637)
(0.0575974 0 0.385142)
(0.0732101 0 0.106285)
(0.0470851 0 -0.325637)
(-0.0248039 0 -0.319194)
(-0.0408845 0 0.179652)
(-0.0124735 0 0.484572)
(-0.00802021 0 0.506857)
(-0.00730643 0 0.477844)
(0.00182316 0 0.475508)
(-0.00108218 0 0.402836)
(0.0479332 0 0.0241456)
(-0.0165727 0 -0.392334)
(-0.0842023 0 0.11614)
(-0.0329216 0 0.338469)
(-0.0347043 0 0.171189)
(-0.0113201 0 0.0280981)
(-0.00580104 0 0.128485)
(-0.00090579 0 0.236615)
(-0.00371913 0 0.243198)
(-0.00400006 0 0.203556)
(-0.00251081 0 0.176369)
(-0.000851035 0 0.184349)
(-0.000428866 0 0.203339)
(-0.00110481 0 0.211548)
(-0.00198121 0 0.209096)
(-0.00267062 0 0.202606)
(-0.00322106 0 0.195255)
(-0.00373262 0 0.185983)
(-0.00406637 0 0.170172)
(-0.00370923 0 0.143239)
(0.00180943 0 -0.00779408)
(0.00192098 0 -0.0161976)
(0.00206624 0 -0.0244333)
(0.00228594 0 -0.0327842)
(0.00257878 0 -0.041494)
(0.00294875 0 -0.0506071)
(0.00340154 0 -0.0599355)
(0.00394478 0 -0.0689956)
(0.00459555 0 -0.0768493)
(0.00539526 0 -0.0819062)
(0.00643244 0 -0.0817862)
(0.00786686 0 -0.0734009)
(0.00993469 0 -0.0534348)
(0.0129029 0 -0.0192843)
(0.016954 0 0.0298262)
(0.0220443 0 0.0922481)
(0.0278251 0 0.164646)
(0.0336517 0 0.244124)
(0.0391368 0 0.328196)
(0.0453389 0 0.398283)
(0.0544843 0 0.371849)
(0.0670786 0 0.111536)
(0.0441827 0 -0.27482)
(-0.0169111 0 -0.273182)
(-0.0331098 0 0.173084)
(-0.00946359 0 0.47141)
(-0.00485443 0 0.503074)
(-0.00527041 0 0.475975)
(0.00218448 0 0.470928)
(0.000690329 0 0.390493)
(0.0430931 0 0.024051)
(-0.0169859 0 -0.345597)
(-0.0787537 0 0.116869)
(-0.0332058 0 0.326874)
(-0.033206 0 0.160809)
(-0.0107261 0 0.0204947)
(-0.00561986 0 0.124104)
(-0.000680504 0 0.236374)
(-0.0037989 0 0.244087)
(-0.00410597 0 0.203236)
(-0.00264013 0 0.175288)
(-0.000928064 0 0.183649)
(-0.000518956 0 0.203438)
(-0.00125176 0 0.212084)
(-0.00218845 0 0.209638)
(-0.00292321 0 0.203034)
(-0.00350406 0 0.195619)
(-0.0040357 0 0.18627)
(-0.00437145 0 0.170162)
(-0.00398445 0 0.142648)
(0.000508842 0 -0.00798785)
(0.000625919 0 -0.016579)
(0.000770043 0 -0.0249853)
(0.000987835 0 -0.0335)
(0.00127354 0 -0.0423708)
(0.00163026 0 -0.0516416)
(0.00206285 0 -0.0611258)
(0.0025779 0 -0.0703519)
(0.0031907 0 -0.0784154)
(0.00393892 0 -0.0837903)
(0.00490351 0 -0.0841941)
(0.00623121 0 -0.0766445)
(0.00814092 0 -0.0578781)
(0.010886 0 -0.0252008)
(0.0146528 0 0.0224502)
(0.0194236 0 0.0838531)
(0.0248859 0 0.156042)
(0.030441 0 0.236084)
(0.0357147 0 0.320387)
(0.0418207 0 0.388141)
(0.0509737 0 0.359589)
(0.0618487 0 0.116379)
(0.042345 0 -0.231288)
(-0.0102827 0 -0.232404)
(-0.0268849 0 0.169566)
(-0.00747449 0 0.459943)
(-0.00254991 0 0.499929)
(-0.00367549 0 0.474805)
(0.00233205 0 0.466678)
(0.00210941 0 0.379449)
(0.0386628 0 0.0256966)
(-0.0171661 0 -0.303245)
(-0.0733249 0 0.118451)
(-0.0327697 0 0.315763)
(-0.0311679 0 0.150684)
(-0.0099313 0 0.0131922)
(-0.00527546 0 0.119934)
(-0.000398034 0 0.236237)
(-0.00382442 0 0.245073)
(-0.00416426 0 0.202951)
(-0.00273509 0 0.174192)
(-0.000981304 0 0.182942)
(-0.000597568 0 0.20356)
(-0.00139339 0 0.212657)
(-0.0023936 0 0.210213)
(-0.00317464 0 0.203484)
(-0.00378635 0 0.195998)
(-0.00433949 0 0.186562)
(-0.00467816 0 0.170139)
(-0.00425942 0 0.142021)
(-0.00113349 0 -0.00819093)
(-0.00100832 0 -0.0169695)
(-0.000863886 0 -0.0255379)
(-0.000647872 0 -0.0342037)
(-0.000368893 0 -0.0432205)
(-2.56378e-05 0 -0.0526324)
(0.000385664 0 -0.062255)
(0.000870422 0 -0.0716281)
(0.001442 0 -0.0798778)
(0.00213425 0 -0.0855377)
(0.00302052 0 -0.0864147)
(0.00423479 0 -0.0796263)
(0.00597919 0 -0.0619639)
(0.00849286 0 -0.0306631)
(0.0119626 0 0.0155935)
(0.0163925 0 0.0759849)
(0.0215034 0 0.147917)
(0.0267425 0 0.22842)
(0.0317704 0 0.312783)
(0.0377276 0 0.378172)
(0.0468533 0 0.347847)
(0.0568448 0 0.120074)
(0.0404379 0 -0.193925)
(-0.00536855 0 -0.195694)
(-0.0222396 0 0.168692)
(-0.00641869 0 0.449884)
(-0.00106299 0 0.497103)
(-0.00254002 0 0.474089)
(0.00227791 0 0.462806)
(0.00314422 0 0.36948)
(0.0344876 0 0.0286379)
(-0.0170885 0 -0.264926)
(-0.0677869 0 0.120475)
(-0.0315851 0 0.305107)
(-0.0286853 0 0.140952)
(-0.00899515 0 0.00630797)
(-0.00482627 0 0.116028)
(-0.000100736 0 0.236226)
(-0.00382044 0 0.246165)
(-0.00419733 0 0.202706)
(-0.00280996 0 0.173088)
(-0.00101932 0 0.182237)
(-0.000669284 0 0.203713)
(-0.00153282 0 0.213275)
(-0.00260007 0 0.210826)
(-0.00342887 0 0.20396)
(-0.00407223 0 0.196395)
(-0.00464811 0 0.186863)
(-0.00499044 0 0.170106)
(-0.0045391 0 0.141357)
(-0.00308261 0 -0.00840427)
(-0.00295015 0 -0.0173705)
(-0.00280565 0 -0.026093)
(-0.00259151 0 -0.0348961)
(-0.00231973 0 -0.044042)
(-0.00199113 0 -0.0535767)
(-0.001603 0 -0.0633179)
(-0.00115122 0 -0.0728166)
(-0.000624507 0 -0.0812269)
(7.02315e-06 0 -0.0871368)
(0.000809324 0 -0.0884354)
(0.00190406 0 -0.0823336)
(0.00347695 0 -0.0656792)
(0.00575233 0 -0.0356538)
(0.00891407 0 0.00928413)
(0.0129824 0 0.068689)
(0.0177078 0 0.140331)
(0.0225811 0 0.221204)
(0.0273154 0 0.305467)
(0.0330803 0 0.368411)
(0.0421291 0 0.336376)
(0.0516513 0 0.122465)
(0.0378118 0 -0.161683)
(-0.00231722 0 -0.162444)
(-0.0189927 0 0.169802)
(-0.00601875 0 0.44092)
(-0.000202669 0 0.494366)
(-0.00173199 0 0.473614)
(0.00211956 0 0.459283)
(0.00385801 0 0.360467)
(0.0305907 0 0.03248)
(-0.016698 0 -0.230419)
(-0.0620857 0 0.122613)
(-0.0297379 0 0.294938)
(-0.025881 0 0.131764)
(-0.00796956 0 -4.19495e-05)
(-0.00432595 0 0.112435)
(0.000164791 0 0.236353)
(-0.00381745 0 0.247361)
(-0.00423152 0 0.202499)
(-0.00288108 0 0.171979)
(-0.00105216 0 0.181538)
(-0.000740262 0 0.2039)
(-0.00167455 0 0.213941)
(-0.00281187 0 0.211478)
(-0.00368981 0 0.204464)
(-0.00436546 0 0.196812)
(-0.00496474 0 0.187174)
(-0.00531141 0 0.170065)
(-0.00482871 0 0.140658)
(-0.00529768 0 -0.00862631)
(-0.00515925 0 -0.0177803)
(-0.00501516 0 -0.0266487)
(-0.00480314 0 -0.0355752)
(-0.00453922 0 -0.0448327)
(-0.00422619 0 -0.0544706)
(-0.00386258 0 -0.0643096)
(-0.00344567 0 -0.0739108)
(-0.00296634 0 -0.0824543)
(-0.00239867 0 -0.0885776)
(-0.00168385 0 -0.0902457)
(-0.000711839 0 -0.0847566)
(0.000687515 0 -0.0690148)
(0.00272316 0 -0.0401612)
(0.00557302 0 0.00354454)
(0.00926852 0 0.0620066)
(0.0135862 0 0.133347)
(0.0180627 0 0.214503)
(0.0224821 0 0.298499)
(0.0280589 0 0.358876)
(0.0370066 0 0.325112)
(0.0461778 0 0.12376)
(0.0343421 0 -0.133651)
(-0.000903405 0 -0.132405)
(-0.0168019 0 0.172107)
(-0.0059147 0 0.432733)
(0.000296252 0 0.491606)
(-0.00107196 0 0.473229)
(0.00200835 0 0.456033)
(0.0043979 0 0.352347)
(0.0270854 0 0.0368995)
(-0.0159741 0 -0.199515)
(-0.0562855 0 0.124661)
(-0.0274129 0 0.285315)
(-0.0228981 0 0.12324)
(-0.00690554 0 -0.00576442)
(-0.00383149 0 0.109199)
(0.000347542 0 0.236626)
(-0.00385197 0 0.24865)
(-0.00429553 0 0.202321)
(-0.00296491 0 0.170862)
(-0.00109032 0 0.180842)
(-0.000817617 0 0.204123)
(-0.00182428 0 0.214655)
(-0.00303389 0 0.212171)
(-0.00396181 0 0.204995)
(-0.00467007 0 0.197247)
(-0.00529303 0 0.187495)
(-0.005645 0 0.170015)
(-0.00513356 0 0.139924)
(-0.00773136 0 -0.00885584)
(-0.00758833 0 -0.0181969)
(-0.00744458 0 -0.0272032)
(-0.00723491 0 -0.0362396)
(-0.006979 0 -0.0455914)
(-0.00668144 0 -0.0553128)
(-0.00634212 0 -0.0652279)
(-0.00595986 0 -0.0749077)
(-0.00552772 0 -0.0835562)
(-0.00502351 0 -0.0898563)
(-0.00439512 0 -0.0918426)
(-0.00354345 0 -0.0868946)
(-0.00231306 0 -0.071973)
(-0.000509403 0 -0.0441881)
(0.00203766 0 -0.0016229)
(0.00536638 0 0.0559518)
(0.00927823 0 0.126986)
(0.0133615 0 0.20833)
(0.0174903 0 0.291861)
(0.0229343 0 0.349536)
(0.0317861 0 0.314073)
(0.0405774 0 0.124284)
(0.0302944 0 -0.10913)
(-0.000625881 0 -0.10552)
(-0.0152436 0 0.174854)
(-0.0057519 0 0.425036)
(0.000670575 0 0.488752)
(-0.000424114 0 0.472945)
(0.00208685 0 0.45296)
(0.00488955 0 0.345071)
(0.0240591 0 0.0416474)
(-0.0149575 0 -0.171968)
(-0.050526 0 0.126514)
(-0.0248202 0 0.276291)
(-0.019871 0 0.115452)
(-0.00585475 0 -0.0107944)
(-0.0034057 0 0.106357)
(0.000396109 0 0.237053)
(-0.00396304 0 0.250013)
(-0.00441734 0 0.202156)
(-0.00307667 0 0.169727)
(-0.00114435 0 0.180146)
(-0.000908875 0 0.204381)
(-0.0019885 0 0.215418)
(-0.00327179 0 0.212905)
(-0.00424991 0 0.205554)
(-0.00499084 0 0.1977)
(-0.00563795 0 0.187825)
(-0.00599665 0 0.169958)
(-0.00545882 0 0.139159)
(-0.0103328 0 -0.00909135)
(-0.0101861 0 -0.0186188)
(-0.0100422 0 -0.0277556)
(-0.00983461 0 -0.0368894)
(-0.009586 0 -0.0463193)
(-0.00930259 0 -0.0561052)
(-0.0089857 0 -0.0660756)
(-0.00863568 0 -0.0758109)
(-0.0082476 0 -0.084537)
(-0.00780268 0 -0.0909788)
(-0.00725484 0 -0.0932352)
(-0.00651471 0 -0.0887617)
(-0.0054403 0 -0.074574)
(-0.00385094 0 -0.04776)
(-0.0015839 0 -0.0062454)
(0.00140449 0 0.0504985)
(0.00494028 0 0.121219)
(0.00867224 0 0.202633)
(0.0125788 0 0.285468)
(0.0179793 0 0.340315)
(0.0267597 0 0.303292)
(0.0351203 0 0.124308)
(0.0261094 0 -0.0876363)
(-0.000908167 0 -0.0817609)
(-0.0139449 0 0.177467)
(-0.00533654 0 0.417636)
(0.00115442 0 0.485765)
(0.000298608 0 0.472822)
(0.00234474 0 0.450029)
(0.00539872 0 0.338596)
(0.0215197 0 0.0465463)
(-0.0137374 0 -0.147488)
(-0.044965 0 0.128133)
(-0.0221333 0 0.267889)
(-0.0169025 0 0.108426)
(-0.00486669 0 -0.015086)
(-0.00311087 0 0.103942)
(0.000264804 0 0.237636)
(-0.0041867 0 0.251423)
(-0.00462042 0 0.201981)
(-0.00322936 0 0.168558)
(-0.00122449 0 0.179443)
(-0.00102159 0 0.204674)
(-0.00217381 0 0.21623)
(-0.00353155 0 0.213679)
(-0.00455961 0 0.20614)
(-0.00533329 0 0.198173)
(-0.00600555 0 0.188166)
(-0.00637266 0 0.169895)
(-0.00580888 0 0.138362)
(-0.013052 0 -0.00933209)
(-0.0129021 0 -0.0190452)
(-0.0127575 0 -0.0283064)
(-0.0125514 0 -0.0375267)
(-0.0123088 0 -0.0470202)
(-0.0120373 0 -0.0568537)
(-0.0117398 0 -0.0668604)
(-0.0114178 0 -0.07663)
(-0.0110684 0 -0.0854091)
(-0.0106757 0 -0.0919609)
(-0.0101987 0 -0.0944441)
(-0.00955642 0 -0.0903856)
(-0.00861861 0 -0.0768547)
(-0.00721699 0 -0.0509239)
(-0.00519607 0 -0.0103783)
(-0.00250652 0 0.0455833)
(0.000705486 0 0.115966)
(0.00415724 0 0.197302)
(0.00793814 0 0.279189)
(0.013397 0 0.331117)
(0.022144 0 0.292775)
(0.0300741 0 0.123974)
(0.0222031 0 -0.0688473)
(-0.00128092 0 -0.0610228)
(-0.0126592 0 0.179609)
(-0.00464293 0 0.410464)
(0.00182949 0 0.482716)
(0.00112115 0 0.472813)
(0.00272356 0 0.447287)
(0.00591041 0 0.332875)
(0.0194097 0 0.0514755)
(-0.0124154 0 -0.125769)
(-0.0397348 0 0.129508)
(-0.0194648 0 0.260096)
(-0.0140593 0 0.102163)
(-0.00398355 0 -0.0186023)
(-0.00299773 0 0.10198)
(-8.04763e-05 0 0.238371)
(-0.00455162 0 0.252844)
(-0.00492147 0 0.201766)
(-0.00343354 0 0.167338)
(-0.00134021 0 0.178726)
(-0.00116298 0 0.204999)
(-0.00238644 0 0.217093)
(-0.00381883 0 0.214495)
(-0.00489629 0 0.206754)
(-0.00570289 0 0.198665)
(-0.00640174 0 0.188519)
(-0.00677862 0 0.169826)
(-0.00618699 0 0.137532)
(-0.0158446 0 -0.00957838)
(-0.0156918 0 -0.019477)
(-0.0155459 0 -0.0288574)
(-0.0153404 0 -0.0381551)
(-0.015102 0 -0.0477)
(-0.0148398 0 -0.0575663)
(-0.0145577 0 -0.067593)
(-0.0142586 0 -0.0773786)
(-0.013941 0 -0.086189)
(-0.0135916 0 -0.0928236)
(-0.0131736 0 -0.0954966)
(-0.0126131 0 -0.091802)
(-0.0117897 0 -0.0788619)
(-0.0105457 0 -0.0537388)
(-0.00873195 0 -0.0140932)
(-0.00629253 0 0.04112)
(-0.00334197 0 0.111119)
(-8.72268e-05 0 0.192202)
(0.00367174 0 0.272881)
(0.0092859 0 0.321843)
(0.0180483 0 0.282476)
(0.0256173 0 0.123303)
(0.0188448 0 -0.0525256)
(-0.00147225 0 -0.0430852)
(-0.0112955 0 0.181174)
(-0.00376235 0 0.403522)
(0.00261365 0 0.479702)
(0.00199039 0 0.47289)
(0.00316929 0 0.444789)
(0.00638191 0 0.327847)
(0.0176572 0 0.0563501)
(-0.0110692 0 -0.106506)
(-0.0349125 0 0.130633)
(-0.0168692 0 0.252872)
(-0.0113762 0 0.0966558)
(-0.003234 0 -0.0213094)
(-0.00309695 0 0.100497)
(-0.000659383 0 0.239248)
(-0.00507749 0 0.254236)
(-0.00533071 0 0.201476)
(-0.00369761 0 0.166047)
(-0.00149958 0 0.177986)
(-0.00133952 0 0.205354)
(-0.00263186 0 0.218004)
(-0.00413853 0 0.215351)
(-0.00526468 0 0.207395)
(-0.00610438 0 0.199178)
(-0.00683112 0 0.188884)
(-0.00721831 0 0.169751)
(-0.00659554 0 0.136665)
(-0.0186747 0 -0.00983063)
(-0.0185191 0 -0.0199153)
(-0.018371 0 -0.029411)
(-0.0181647 0 -0.0387788)
(-0.0179285 0 -0.048365)
(-0.0176724 0 -0.0582521)
(-0.0174013 0 -0.0682849)
(-0.0171193 0 -0.0780711)
(-0.0168262 0 -0.086895)
(-0.0165107 0 -0.0935898)
(-0.0161395 0 -0.0964218)
(-0.0156447 0 -0.0930487)
(-0.014914 0 -0.0806439)
(-0.013799 0 -0.0562653)
(-0.0121555 0 -0.0174639)
(-0.00991977 0 0.037019)
(-0.0071711 0 0.106566)
(-0.00403532 0 0.187197)
(-0.000207944 0 0.26641)
(0.00563962 0 0.312399)
(0.0144734 0 0.272308)
(0.021802 0 0.12223)
(0.0161237 0 -0.0384666)
(-0.00140349 0 -0.0276314)
(-0.00989727 0 0.182226)
(-0.00284643 0 0.396848)
(0.00337073 0 0.476769)
(0.00281412 0 0.473055)
(0.00362279 0 0.442562)
(0.00678679 0 0.323435)
(0.0162046 0 0.061106)
(-0.00973449 0 -0.0894161)
(-0.0305061 0 0.131502)
(-0.0143555 0 0.246161)
(-0.00886395 0 0.0919005)
(-0.00262901 0 -0.0231751)
(-0.00341814 0 0.0995166)
(-0.00147867 0 0.240249)
(-0.00577577 0 0.255556)
(-0.00585386 0 0.201074)
(-0.0040282 0 0.164663)
(-0.00170883 0 0.177214)
(-0.00155661 0 0.205735)
(-0.00291472 0 0.218964)
(-0.00449473 0 0.216248)
(-0.00566867 0 0.208064)
(-0.00654142 0 0.19971)
(-0.00729669 0 0.189263)
(-0.00769386 0 0.169668)
(-0.00703669 0 0.13576)
(-0.021515 0 -0.0100893)
(-0.0213563 0 -0.0203616)
(-0.0212046 0 -0.0299704)
(-0.0209959 0 -0.039403)
(-0.0207593 0 -0.0490227)
(-0.0205058 0 -0.0589208)
(-0.0202411 0 -0.0689484)
(-0.0199704 0 -0.0787227)
(-0.0196945 0 -0.0875454)
(-0.0194037 0 -0.0942819)
(-0.019068 0 -0.0972475)
(-0.0186243 0 -0.0941605)
(-0.0179678 0 -0.0822444)
(-0.016958 0 -0.0585567)
(-0.0154548 0 -0.0205545)
(-0.0133858 0 0.0332029)
(-0.0107921 0 0.102212)
(-0.00771576 0 0.182177)
(-0.00375428 0 0.259678)
(0.00237678 0 0.302705)
(0.0113331 0 0.262159)
(0.0185633 0 0.120658)
(0.0139792 0 -0.0264724)
(-0.00112472 0 -0.0142981)
(-0.00856121 0 0.182927)
(-0.00205384 0 0.390503)
(0.00396851 0 0.473917)
(0.00351047 0 0.47328)
(0.00403208 0 0.440592)
(0.00711933 0 0.319555)
(0.0150032 0 0.065691)
(-0.00841514 0 -0.0742512)
(-0.0264658 0 0.132108)
(-0.0119047 0 0.239913)
(-0.00651625 0 0.0879013)
(-0.00216423 0 -0.02417)
(-0.00395614 0 0.0990697)
(-0.00253664 0 0.241356)
(-0.0066519 0 0.256764)
(-0.00649413 0 0.200526)
(-0.00443019 0 0.163167)
(-0.00197214 0 0.176401)
(-0.00181847 0 0.206137)
(-0.00323902 0 0.219969)
(-0.00489093 0 0.217185)
(-0.00611154 0 0.208759)
(-0.00701688 0 0.200264)
(-0.00780049 0 0.189654)
(-0.00820673 0 0.169576)
(-0.00751292 0 0.134815)
(-0.0243475 0 -0.010356)
(-0.0241847 0 -0.0208194)
(-0.0240277 0 -0.0305408)
(-0.0238144 0 -0.0400345)
(-0.0235745 0 -0.0496817)
(-0.0233197 0 -0.0595832)
(-0.0230568 0 -0.0695967)
(-0.0227915 0 -0.0793487)
(-0.0225258 0 -0.0881581)
(-0.0222514 0 -0.0949206)
(-0.0219412 0 -0.0979981)
(-0.0215367 0 -0.0951665)
(-0.0209399 0 -0.083698)
(-0.0200176 0 -0.060654)
(-0.0186337 0 -0.0234128)
(-0.016706 0 0.0296154)
(-0.0142365 0 0.0979906)
(-0.0111831 0 0.177073)
(-0.00705357 0 0.252627)
(-0.000622041 0 0.292709)
(0.00849414 0 0.251912)
(0.0157604 0 0.118491)
(0.0122576 0 -0.0163531)
(-0.000754557 0 -0.00273058)
(-0.00738698 0 0.183458)
(-0.0014927 0 0.384538)
(0.0043197 0 0.47113)
(0.00401903 0 0.473503)
(0.00435763 0 0.438828)
(0.00737535 0 0.316118)
(0.0139979 0 0.0700575)
(-0.00710969 0 -0.060809)
(-0.022721 0 0.132446)
(-0.00949401 0 0.234086)
(-0.00432179 0 0.0846728)
(-0.00182943 0 -0.0242671)
(-0.00469953 0 0.0991897)
(-0.00382723 0 0.242553)
(-0.00770726 0 0.25782)
(-0.00725302 0 0.199795)
(-0.0049064 0 0.161539)
(-0.00229195 0 0.175537)
(-0.00212837 0 0.206558)
(-0.00360838 0 0.221019)
(-0.00533045 0 0.21816)
(-0.00659636 0 0.209481)
(-0.00753343 0 0.200837)
(-0.00834465 0 0.190058)
(-0.00875895 0 0.169475)
(-0.00802714 0 0.133828)
(-0.027164 0 -0.0106332)
(-0.0269955 0 -0.0212936)
(-0.0268313 0 -0.0311291)
(-0.0266105 0 -0.0406819)
(-0.0263637 0 -0.0503522)
(-0.0261036 0 -0.0602508)
(-0.0258376 0 -0.0702427)
(-0.0255721 0 -0.0799639)
(-0.02531 0 -0.0887494)
(-0.0250446 0 -0.095524)
(-0.0247515 0 -0.0986935)
(-0.0243768 0 -0.0960886)
(-0.0238289 0 -0.0850292)
(-0.0229824 0 -0.0625845)
(-0.0217045 0 -0.0260689)
(-0.0199032 0 0.0262228)
(-0.0175409 0 0.093865)
(-0.0144942 0 0.171853)
(-0.0101894 0 0.245241)
(-0.00347751 0 0.282384)
(0.00581395 0 0.241494)
(0.0132236 0 0.115659)
(0.0107611 0 -0.00793148)
(-0.000441863 0 0.00737368)
(-0.00645771 0 0.183969)
(-0.00121246 0 0.378989)
(0.00438942 0 0.468379)
(0.00430745 0 0.473653)
(0.00456916 0 0.437205)
(0.0075354 0 0.313042)
(0.0131194 0 0.0741605)
(-0.00583754 0 -0.0489363)
(-0.0192246 0 0.132509)
(-0.00712337 0 0.228658)
(-0.00228095 0 0.0822361)
(-0.00162094 0 -0.0234428)
(-0.00563628 0 0.0999106)
(-0.00534183 0 0.243833)
(-0.00893962 0 0.258688)
(-0.00812986 0 0.198845)
(-0.00545738 0 0.159757)
(-0.00266936 0 0.174614)
(-0.00248891 0 0.206992)
(-0.00402622 0 0.222111)
(-0.00581669 0 0.219173)
(-0.00712634 0 0.210228)
(-0.00809413 0 0.20143)
(-0.00893216 0 0.190473)
(-0.00935366 0 0.169364)
(-0.00858254 0 0.132798)
(-0.029967 0 -0.0109242)
(-0.0297908 0 -0.0217899)
(-0.0296172 0 -0.0317427)
(-0.0293858 0 -0.0413541)
(-0.0291286 0 -0.0510443)
(-0.0288588 0 -0.0609351)
(-0.0285847 0 -0.0708994)
(-0.0283134 0 -0.0805822)
(-0.0280485 0 -0.0893343)
(-0.0277852 0 -0.0961076)
(-0.0275019 0 -0.0993497)
(-0.0271494 0 -0.0969432)
(-0.026643 0 -0.0862545)
(-0.0258643 0 -0.0643647)
(-0.0246848 0 -0.0285395)
(-0.023002 0 0.0230084)
(-0.0207395 0 0.0898219)
(-0.017699 0 0.166518)
(-0.0132368 0 0.237546)
(-0.00625916 0 0.271751)
(0.00319505 0 0.230856)
(0.0107753 0 0.112138)
(0.0092808 0 -0.00103979)
(-0.000346993 0 0.0162431)
(-0.00584507 0 0.184541)
(-0.00122331 0 0.373863)
(0.00418454 0 0.465627)
(0.00437335 0 0.473665)
(0.00464729 0 0.435661)
(0.00756915 0 0.310259)
(0.0122934 0 0.0779612)
(-0.0046479 0 -0.0385169)
(-0.0159812 0 0.132288)
(-0.00482804 0 0.223613)
(-0.000420118 0 0.080606)
(-0.00155201 0 -0.0216784)
(-0.00675615 0 0.101261)
(-0.00706821 0 0.245189)
(-0.0103416 0 0.259335)
(-0.00912064 0 0.197644)
(-0.00608141 0 0.157802)
(-0.00310458 0 0.173624)
(-0.00290223 0 0.207439)
(-0.00449581 0 0.223245)
(-0.00635313 0 0.220222)
(-0.00770497 0 0.211)
(-0.00870257 0 0.202042)
(-0.009567 0 0.1909)
(-0.00999507 0 0.169241)
(-0.00918238 0 0.131724)
(-0.0327724 0 -0.0112321)
(-0.0325863 0 -0.0223142)
(-0.0324011 0 -0.0323897)
(-0.0321561 0 -0.0420608)
(-0.0318845 0 -0.051769)
(-0.0316004 0 -0.0616483)
(-0.0313129 0 -0.0715799)
(-0.0310298 0 -0.0812176)
(-0.0307557 0 -0.0899272)
(-0.0304878 0 -0.0966859)
(-0.0302073 0 -0.0999804)
(-0.0298703 0 -0.0977432)
(-0.0293987 0 -0.0873857)
(-0.028682 0 -0.066005)
(-0.0275951 0 -0.0308343)
(-0.026025 0 0.019964)
(-0.0238564 0 0.085859)
(-0.0208214 0 0.161083)
(-0.0162209 0 0.229588)
(-0.00902144 0 0.260867)
(0.000555893 0 0.220001)
(0.00828934 0 0.107969)
(0.00763601 0 0.00449627)
(-0.00061963 0 0.0240321)
(-0.00561264 0 0.185169)
(-0.00151282 0 0.369115)
(0.00374307 0 0.462838)