/*--------------------------------*- C++ -*----------------------------------*\
  =========                 |
  \\      /  F ield         | OpenFOAM: The Open Source CFD Toolbox
   \\    /   O peration     | Website:  https://openfoam.org
    \\  /    A nd           | Version:  9
     \\/     M anipulation  |
\*---------------------------------------------------------------------------*/
FoamFile
{
    format      ascii;
    class       surfaceScalarField;
    location    "0.06";
    object      alphaPhi0.water;
}
// * * * * * * * * * * * * * * * * * * * * * * * * * * * * * * * * * * * * * //

dimensions      [0 3 -1 0 0 0 0];

internalField   nonuniform List<scalar> 
9850
(
-2.98671e-67
-2.11542e-65
-8.42721e-67
-6.32522e-65
-3.5166e-66
-2.79641e-64
-1.51442e-65
-1.27621e-63
-6.72638e-65
-6.01184e-63
-3.08082e-64
-2.92415e-62
-1.45496e-63
-1.46914e-61
-7.08424e-63
-7.6274e-61
-3.55576e-62
-4.09384e-60
-1.83947e-61
-2.27266e-59
-9.80521e-61
-1.3056e-58
-5.38336e-60
-7.76587e-58
-3.04237e-59
-4.78543e-57
-1.76815e-58
-3.05667e-56
-1.05521e-57
-2.02496e-55
-6.45202e-57
-1.39203e-54
-4.02783e-56
-9.93454e-54
-2.55299e-55
-7.36342e-53
-1.62782e-54
-5.66983e-52
-1.02693e-53
-4.5364e-51
-6.19673e-53
-3.7719e-50
-3.27816e-52
-3.25969e-49
-1.02279e-51
-2.92832e-48
8.37592e-50
-2.73653e-47
2.65799e-48
-2.66085e-46
4.7771e-47
-2.69012e-45
7.4784e-46
-2.82715e-44
1.1149e-44
-3.08569e-43
1.63404e-43
-3.49107e-42
2.38519e-42
-4.08122e-41
4.12977e-41
-5.72624e-40
6.69241e-40
-7.70786e-39
1.01626e-38
-1.00449e-37
1.4424e-37
-1.25757e-36
1.90474e-36
-1.50022e-35
2.32655e-35
-1.69126e-34
2.61089e-34
-1.78682e-33
2.67144e-33
-1.75424e-32
2.47046e-32
-1.58641e-31
2.04333e-31
-1.30894e-30
1.49168e-30
-9.74614e-30
9.44028e-30
-6.4608e-29
5.0447e-29
-3.74488e-28
2.18208e-28
-1.84863e-27
7.07252e-28
-7.44828e-27
1.4408e-27
-2.26526e-26
9.04815e-28
-4.35286e-26
7.27199e-29
-2.58303e-26
-4.81868e-28
-1.95669e-27
7.55207e-27
-1.1662e-66
-6.7997e-65
-3.26286e-66
-2.02218e-64
-1.35344e-65
-8.88201e-64
-5.79701e-65
-4.02563e-63
-2.56103e-64
-1.88226e-62
-1.16669e-63
-9.08167e-62
-5.4796e-63
-4.52301e-61
-2.65298e-62
-2.32599e-60
-1.32391e-61
-1.23555e-59
-6.80891e-61
-6.78201e-59
-3.60851e-60
-3.8484e-58
-1.97024e-59
-2.25851e-57
-1.10795e-58
-1.37149e-56
-6.4138e-58
-8.62186e-56
-3.8193e-57
-5.61393e-55
-2.33682e-56
-3.78787e-54
-1.46649e-55
-2.64958e-53
-9.41424e-55
-1.92208e-52
-6.15672e-54
-1.44645e-51
-4.07495e-53
-1.12942e-50
-2.69976e-52
-9.15103e-50
-1.75467e-51
-7.69414e-49
-1.07151e-50
-6.71308e-48
-5.43466e-50
-6.07823e-47
-9.7774e-50
-5.71124e-46
3.11008e-47
-5.57537e-45
7.66639e-46
-5.64885e-44
1.33263e-44
-5.93496e-43
2.08342e-43
-6.45796e-42
3.12118e-42
-7.26026e-41
5.4681e-41
-9.8032e-40
8.83153e-40
-1.27137e-38
1.32657e-38
-1.60001e-37
1.85516e-37
-1.93923e-36
2.40853e-36
-2.24494e-35
2.88837e-35
-2.46096e-34
3.17895e-34
-2.53227e-33
3.18667e-33
-2.42399e-32
2.88372e-32
-2.13856e-31
2.33075e-31
-1.72154e-30
1.65995e-30
-1.25007e-29
1.02287e-29
-8.07384e-29
5.30993e-29
-4.55278e-28
2.22497e-28
-2.18178e-27
6.96097e-28
-8.50899e-27
1.36307e-27
-2.49517e-26
8.22705e-28
-4.60133e-26
5.18855e-29
-2.61873e-26
-6.76752e-28
-1.55247e-27
1.30178e-26
-3.98725e-66
-2.04323e-64
-1.12194e-65
-6.04155e-64
-4.66762e-65
-2.63686e-63
-2.00027e-64
-1.18726e-62
-8.82309e-64
-5.51222e-62
-4.00683e-63
-2.63945e-61
-1.8738e-62
-1.30378e-60
-9.0251e-62
-6.64527e-60
-4.47744e-61
-3.49588e-59
-2.28814e-60
-1.89879e-58
-1.20457e-59
-1.06522e-57
-6.53159e-59
-6.17406e-57
-3.64731e-58
-3.69851e-56
-2.09694e-57
-2.29079e-55
-1.24074e-56
-1.46766e-54
-7.55064e-56
-9.73038e-54
-4.72138e-55
-6.67827e-53
-3.02899e-54
-4.74656e-52
-1.98936e-53
-3.49456e-51
-1.33313e-52
-2.66553e-50
-9.06906e-52
-2.10664e-49
-6.21207e-51
-1.72508e-48
-4.22506e-50
-1.46353e-47
-2.77794e-49
-1.28625e-46
-1.65861e-48
-1.17091e-45
-7.22215e-48
-1.10408e-44
1.36433e-46
-1.07833e-43
1.02884e-44
-1.09176e-42
2.10494e-43
-1.14313e-41
3.49187e-42
-1.23582e-40
6.44515e-41
-1.60487e-39
1.05776e-39
-2.00308e-38
1.58833e-38
-2.43107e-37
2.20246e-37
-2.84852e-36
2.82299e-36
-3.19607e-35
3.33383e-35
-3.40375e-34
3.60723e-34
-3.40924e-33
3.55016e-33
-3.18133e-32
3.15018e-32
-2.73867e-31
2.49325e-31
-2.15208e-30
1.73626e-30
-1.52533e-29
1.04445e-29
-9.61076e-29
5.28423e-29
-5.28183e-28
2.15476e-28
-2.46373e-27
6.55609e-28
-9.33956e-27
1.25263e-27
-2.65979e-26
7.71926e-28
-4.77725e-26
3.86629e-29
-2.76954e-26
-7.24439e-28
-1.30022e-27
1.37804e-26
-1.3023e-65
-5.75425e-64
-3.64868e-65
-1.69419e-63
-1.50852e-64
-7.35233e-63
-6.42812e-64
-3.29071e-62
-2.82006e-63
-1.518e-61
-1.27368e-62
-7.21832e-61
-5.92248e-62
-3.53879e-60
-2.83534e-61
-1.78899e-59
-1.39759e-60
-9.32794e-59
-7.09313e-60
-5.01742e-58
-3.70663e-59
-2.78484e-57
-1.99424e-58
-1.59532e-56
-1.10455e-57
-9.43502e-56
-6.297e-57
-5.76258e-55
-3.69416e-56
-3.63589e-54
-2.2293e-55
-2.3707e-53
-1.3831e-54
-1.598e-52
-8.81584e-54
-1.11408e-51
-5.76397e-53
-8.03318e-51
-3.85837e-52
-5.99207e-50
-2.63685e-51
-4.624e-49
-1.83207e-50
-3.69149e-48
-1.28577e-49
-3.04843e-47
-9.01976e-49
-2.60355e-46
-6.20747e-48
-2.29918e-45
-4.03253e-47
-2.09896e-44
-2.22869e-46
-1.98043e-43
-5.97144e-46
-1.93089e-42
1.0256e-43
-1.94601e-41
2.89075e-42
-2.02389e-40
6.40506e-41
-2.52723e-39
1.12095e-39
-3.03333e-38
1.72147e-38
-3.54605e-37
2.39641e-37
-4.01129e-36
3.0551e-36
-4.35631e-35
3.57062e-35
-4.50207e-34
3.81205e-34
-4.38583e-33
3.69417e-33
-3.98783e-32
3.22221e-32
-3.34939e-31
2.50291e-31
-2.56985e-30
1.70791e-30
-1.77883e-29
1.00515e-29
-1.09432e-28
4.96841e-29
-5.8683e-28
1.97764e-28
-2.66874e-27
5.87726e-28
-9.85725e-27
1.10343e-27
-2.73689e-26
7.03285e-28
-4.82018e-26
3.07309e-29
-2.88279e-26
-5.95327e-28
-1.17709e-27
1.45992e-26
-3.97054e-65
-1.52535e-63
-1.10938e-64
-4.47476e-63
-4.5575e-64
-1.93166e-62
-1.92937e-63
-8.59792e-62
-8.4094e-63
-3.94266e-61
-3.77361e-62
-1.86277e-60
-1.7433e-61
-9.06899e-60
-8.29071e-61
-4.55029e-59
-4.05873e-60
-2.3532e-58
-2.04523e-59
-1.25451e-57
-1.06075e-58
-6.89532e-57
-5.66198e-58
-3.90808e-56
-3.10993e-57
-2.28445e-55
-1.75749e-56
-1.3775e-54
-1.02165e-55
-8.57025e-54
-6.10738e-55
-5.50282e-53
-3.75298e-54
-3.64736e-52
-2.36933e-53
-2.49626e-51
-1.53534e-52
-1.76429e-50
-1.01999e-51
-1.28793e-49
-6.93555e-51
-9.71236e-49
-4.81596e-50
-7.56744e-48
-3.40154e-49
-6.08907e-47
-2.43085e-48
-5.05891e-46
-1.74308e-47
-4.33855e-45
-1.23678e-46
-3.83954e-44
-8.45747e-46
-3.50523e-43
-5.24617e-45
-3.29992e-42
-2.40014e-44
-3.20236e-41
3.47843e-43
-3.20108e-40
4.36922e-41
-3.84475e-39
9.74181e-40
-4.43592e-38
1.62767e-38
-4.99056e-37
2.34105e-37
-5.44347e-36
3.01528e-36
-5.71449e-35
3.5208e-35
-5.72393e-34
3.73216e-34
-5.41818e-33
3.57734e-33
-4.79725e-32
3.07792e-32
-3.92994e-31
2.35317e-31
-2.94414e-30
1.57732e-30
-1.99084e-29
9.10227e-30
-1.19646e-28
4.40482e-29
-6.26527e-28
1.71503e-28
-2.78064e-27
4.98992e-28
-1.00198e-26
9.22963e-28
-2.71697e-26
6.0488e-28
-4.70198e-26
2.47165e-29
-2.88268e-26
-5.14679e-28
-1.09665e-27
1.60221e-26
-1.12646e-64
-3.81956e-63
-3.13806e-64
-1.11702e-62
-1.28255e-63
-4.79793e-62
-5.40122e-63
-2.12457e-61
-2.34134e-62
-9.68841e-61
-1.04465e-61
-4.55015e-60
-4.79719e-61
-2.20101e-59
-2.26715e-60
-1.09666e-58
-1.1026e-59
-5.62862e-58
-5.5177e-59
-2.97608e-57
-2.84087e-58
-1.62117e-56
-1.50466e-57
-9.09881e-56
-8.19696e-57
-5.26196e-55
-4.59212e-56
-3.13588e-54
-2.64498e-55
-1.92605e-53
-1.56589e-54
-1.21934e-52
-9.5253e-54
-7.95767e-52
-5.95076e-53
-5.35442e-51
-3.81561e-52
-3.71488e-50
-2.50892e-51
-2.6578e-49
-1.68984e-50
-1.96096e-48
-1.16404e-49
-1.49208e-47
-8.18157e-49
-1.17056e-46
-5.8497e-48
-9.46736e-46
-4.23641e-47
-7.89362e-45
-3.08526e-46
-6.7793e-44
-2.23534e-45
-5.99522e-43
-1.58085e-44
-5.457e-42
-1.04954e-43
-5.11e-41
-5.89091e-43
-4.91927e-40
-9.00424e-43
-5.67318e-39
4.94807e-40
-6.29024e-38
1.19784e-38
-6.80674e-37
1.9437e-37
-7.15192e-36
2.63042e-36
-7.24863e-35
3.13342e-35
-7.02833e-34
3.33957e-34
-6.45738e-33
3.19228e-33
-5.56278e-32
2.72509e-32
-4.44255e-31
2.05954e-31
-3.24905e-30
1.36072e-30
-2.14649e-29
7.72069e-30
-1.2606e-28
3.66602e-29
-6.44903e-28
1.39871e-28
-2.79477e-27
3.98952e-28
-9.83011e-27
7.27249e-28
-2.60416e-26
4.85003e-28
-4.42633e-26
1.93847e-29
-2.75067e-26
-4.29704e-28
-1.0187e-27
1.66135e-26
-2.99388e-64
-9.06367e-63
-8.31808e-64
-2.64358e-62
-3.38386e-63
-1.13019e-61
-1.41831e-62
-4.98037e-61
-6.11748e-62
-2.25937e-60
-2.71514e-61
-1.0552e-59
-1.23992e-60
-5.07367e-59
-5.82557e-60
-2.51163e-58
-2.81567e-59
-1.28009e-57
-1.3998e-58
-6.71704e-57
-7.15698e-58
-3.62884e-56
-3.76266e-57
-2.01839e-55
-2.03365e-56
-1.15582e-54
-1.12973e-55
-6.8142e-54
-6.44884e-55
-4.13604e-53
-3.7815e-54
-2.58465e-52
-2.27704e-53
-1.66292e-51
-1.40739e-52
-1.10155e-50
-8.92408e-52
-7.51274e-50
-5.80127e-51
-5.27535e-49
-3.86289e-50
-3.8137e-48
-2.63168e-49
-2.83821e-47
-1.83149e-48
-2.17403e-46
-1.29942e-47
-1.71367e-45
-9.37329e-47
-1.38973e-44
-6.84683e-46
-1.15895e-43
-5.03778e-45
-9.93734e-43
-3.70138e-44
-8.75519e-42
-2.67716e-43
-7.92046e-41
-1.85676e-42
-7.35296e-40
-1.0725e-41
-8.16343e-39
-4.42598e-41
-8.68807e-38
3.18718e-39
-9.0307e-37
1.12377e-37
-9.13468e-36
1.85264e-36
-8.9288e-35
2.39124e-35
-8.37027e-34
2.64258e-34
-7.45559e-33
2.5649e-33
-6.24305e-32
2.19759e-32
-4.85727e-31
1.65492e-31
-3.46663e-30
1.0839e-30
-2.23736e-29
6.0726e-30
-1.28419e-28
2.83816e-29
-6.42001e-28
1.06344e-28
-2.71735e-27
2.97714e-28
-9.33009e-27
5.34565e-28
-2.4137e-26
3.58834e-28
-4.02142e-26
1.41495e-29
-2.50181e-26
-3.28966e-28
-9.08135e-28
1.39043e-26
-7.49066e-64
-2.04407e-62
-2.07681e-63
-5.94868e-62
-8.41259e-63
-2.53202e-61
-3.51061e-62
-1.11074e-60
-1.50716e-61
-5.01449e-60
-6.6563e-61
-2.32975e-59
-3.02386e-60
-1.11393e-58
-1.41287e-59
-5.4811e-58
-6.78891e-59
-2.77536e-57
-3.35416e-58
-1.44608e-56
-1.70363e-57
-7.75278e-56
-8.89372e-57
-4.27641e-55
-4.7709e-56
-2.42672e-54
-2.62911e-55
-1.41656e-53
-1.48791e-54
-8.50519e-53
-8.64476e-54
-5.25195e-52
-5.15434e-53
-3.33505e-51
-3.15241e-52
-2.17763e-50
-1.97669e-51
-1.4619e-49
-1.26997e-50
-1.0089e-48
-8.35378e-50
-7.1568e-48
-5.62085e-49
-5.21729e-47
-3.86402e-48
-3.90775e-46
-2.70989e-47
-3.00638e-45
-1.93514e-46
-2.37495e-44
-1.40352e-45
-1.92564e-43
-1.03055e-44
-1.602e-42
-7.62514e-44
-1.36677e-41
-5.64821e-43
-1.1954e-40
-4.14541e-42
-1.07128e-39
-2.8438e-41
-1.1462e-38
-2.05724e-40
-1.1732e-37
-1.14985e-39
-1.17164e-36
-1.91675e-39
-1.13831e-35
6.62995e-37
-1.07195e-34
1.31051e-35
-9.70512e-34
1.68169e-34
-8.3709e-33
1.74737e-33
-6.80627e-32
1.54734e-32
-5.15474e-31
1.1822e-31
-3.58828e-30
7.7677e-31
-2.26186e-29
4.33252e-30
-1.26882e-28
2.00458e-29
-6.19931e-28
7.40518e-29
-2.563e-27
2.03927e-28
-8.58876e-27
3.60595e-28
-2.16771e-26
2.40939e-28
-3.52954e-26
9.36993e-30
-2.16768e-26
-2.08856e-28
-7.68377e-28
8.95924e-27
-1.773e-63
-4.39361e-62
-4.90688e-63
-1.27632e-61
-1.97947e-62
-5.41017e-61
-8.22572e-62
-2.36323e-60
-3.51571e-61
-1.06203e-59
-1.54539e-60
-4.91012e-59
-6.98561e-60
-2.33538e-58
-3.24685e-59
-1.14264e-57
-1.55147e-58
-5.75063e-57
-7.62028e-58
-2.97669e-56
-3.84634e-57
-1.58457e-55
-1.99464e-56
-8.6733e-55
-1.06242e-55
-4.88071e-54
-5.81036e-55
-2.82312e-53
-3.26159e-54
-1.67818e-52
-1.87846e-53
-1.02499e-51
-1.10951e-52
-6.43104e-51
-6.71745e-52
-4.14406e-50
-4.16663e-51
-2.7419e-49
-2.64609e-50
-1.86231e-48
-1.71931e-49
-1.2981e-47
-1.14202e-48
-9.28324e-47
-7.7469e-48
-6.80895e-46
-5.36046e-47
-5.12028e-45
-3.778e-46
-3.94604e-44
-2.70725e-45
-3.11521e-43
-1.96808e-44
-2.51812e-42
-1.44733e-43
-2.08312e-41
-1.07281e-42
-1.76286e-40
-7.97451e-42
-1.52543e-39
-5.75605e-41
-1.57359e-38
-4.65897e-40
-1.55032e-37
-3.44788e-39
-1.48905e-36
-2.21622e-38
-1.39131e-35
-1.06133e-37
-1.26002e-34
-7.66983e-38
-1.09914e-33
5.20642e-35
-9.17028e-33
8.07478e-34
-7.23228e-32
8.34212e-33
-5.32695e-31
6.86443e-32
-3.61443e-30
4.68202e-31
-2.22438e-29
2.65586e-30
-1.21934e-28
1.23366e-29
-5.82252e-28
4.53548e-29
-2.35129e-27
1.23605e-28
-7.68741e-27
2.15765e-28
-1.89048e-26
1.41966e-28
-2.99675e-26
5.36081e-30
-1.78607e-26
-1.06169e-28
-6.04349e-28
4.37793e-27
-3.98621e-63
-9.02651e-62
-1.10132e-62
-2.61832e-61
-4.42459e-62
-1.10552e-60
-1.83106e-61
-4.80953e-60
-7.79224e-61
-2.15204e-59
-3.4097e-60
-9.90351e-59
-1.53397e-59
-4.687e-58
-7.09414e-59
-2.28104e-57
-3.37203e-58
-1.14145e-56
-1.64701e-57
-5.87223e-56
-8.26432e-57
-3.10527e-55
-4.25889e-56
-1.68756e-54
-2.25331e-55
-9.42291e-54
-1.22355e-54
-5.40461e-53
-6.81574e-54
-3.18328e-52
-3.89315e-53
-1.9248e-51
-2.27911e-52
-1.19442e-50
-1.36669e-51
-7.60398e-50
-8.38984e-51
-4.96456e-49
-5.26901e-50
-3.32286e-48
-3.38281e-49
-2.2791e-47
-2.21841e-48
-1.60122e-46
-1.48463e-47
-1.15181e-45
-1.01285e-46
-8.47893e-45
-7.03549e-46
-6.38437e-44
-4.96873e-45
-4.91451e-43
-3.56191e-44
-3.86541e-42
-2.58679e-43
-3.10481e-41
-1.89879e-42
-2.5456e-40
-1.40469e-41
-2.12942e-39
-1.02608e-40
-2.11922e-38
-8.56358e-40
-2.00945e-37
-6.77937e-39
-1.85643e-36
-5.03333e-38
-1.66858e-35
-3.43317e-37
-1.45419e-34
-2.06731e-36
-1.22259e-33
-9.98091e-36
-9.84428e-33
-2.54035e-35
-7.51474e-32
1.16711e-33
-5.3758e-31
2.08281e-32
-3.55297e-30
1.82223e-31
-2.13374e-29
1.16099e-30
-1.14272e-28
5.72305e-30
-5.33264e-28
2.16709e-29
-2.10329e-27
5.97932e-29
-6.70643e-27
1.04591e-28
-1.60462e-26
6.74298e-29
-2.46487e-26
2.38892e-30
-1.39218e-26
-4.84884e-29
-4.25893e-28
4.24193e-27
-8.53615e-63
-1.77719e-61
-2.35444e-62
-5.14886e-61
-9.4208e-62
-2.16579e-60
-3.88316e-61
-9.38577e-60
-1.64569e-60
-4.18229e-59
-7.17024e-60
-1.91614e-58
-3.21128e-59
-9.0257e-58
-1.47812e-58
-4.37047e-57
-6.99101e-58
-2.17524e-56
-3.39675e-57
-1.11261e-55
-1.69495e-56
-5.84716e-55
-8.68325e-56
-3.15646e-54
-4.56536e-55
-1.7498e-53
-2.46237e-54
-9.95797e-53
-1.36181e-53
-5.81553e-52
-7.71863e-53
-3.48397e-51
-4.48103e-52
-2.14015e-50
-2.66295e-51
-1.34742e-49
-1.61884e-50
-8.69039e-49
-1.00598e-49
-5.739e-48
-6.3852e-49
-3.87847e-47
-4.13601e-48
-2.6808e-46
-2.73149e-47
-1.89405e-45
-1.8373e-46
-1.36701e-44
-1.25726e-45
-1.00723e-43
-8.74173e-45
-7.5716e-43
-6.16741e-44
-5.80324e-42
-4.40855e-43
-4.53229e-41
-3.18764e-42
-3.60491e-40
-2.32725e-41
-2.91876e-39
-1.69181e-40
-2.80552e-38
-1.41457e-39
-2.56239e-37
-1.13586e-38
-2.27729e-36
-8.73043e-38
-1.96779e-35
-6.38722e-37
-1.64947e-34
-4.40989e-36
-1.33601e-33
-2.83354e-35
-1.03823e-32
-1.66078e-34
-7.66904e-32
-8.614e-34
-5.32182e-31
-3.7534e-33
-3.42034e-30
-1.22146e-32
-2.0022e-29
-1.70261e-32
-1.04684e-28
4.4924e-31
-4.77342e-28
3.52354e-30
-1.83878e-27
1.29085e-29
-5.71573e-27
2.6486e-29
-1.32854e-26
1.82891e-29
-1.96687e-26
7.34456e-31
-1.01584e-26
-1.53413e-29
-3.04587e-28
3.34295e-27
-1.74479e-62
-3.36024e-61
-4.80546e-62
-9.72585e-61
-1.91535e-61
-4.07631e-60
-7.86509e-61
-1.75998e-59
-3.32032e-60
-7.81135e-59
-1.44083e-59
-3.5637e-58
-6.42579e-59
-1.67109e-57
-2.94466e-58
-8.05323e-57
-1.38625e-57
-3.98783e-56
-6.70231e-57
-2.02867e-55
-3.327e-56
-1.05994e-54
-1.69501e-55
-5.68623e-54
-8.85938e-55
-3.13106e-53
-4.7484e-54
-1.76896e-52
-2.60844e-53
-1.02499e-51
-1.46776e-52
-6.08825e-51
-8.45475e-52
-3.70521e-50
-4.98219e-51
-2.3091e-49
-3.00119e-50
-1.47273e-48
-1.84659e-49
-9.60692e-48
-1.15952e-48
-6.40514e-47
-7.42346e-48
-4.3616e-46
-4.84076e-47
-3.03117e-45
-3.21166e-46
-2.14823e-44
-2.16548e-45
-1.55136e-43
-1.48206e-44
-1.14068e-42
-1.02829e-43
-8.53285e-42
-7.22338e-43
-6.48922e-41
-5.13087e-42
-5.01404e-40
-3.68063e-41
-3.93428e-39
-2.64027e-40
-3.6564e-38
-2.18264e-39
-3.21963e-37
-1.74091e-38
-2.75423e-36
-1.33894e-37
-2.2885e-35
-9.91252e-37
-1.84452e-34
-7.04021e-36
-1.43768e-33
-4.76766e-35
-1.07712e-32
-3.05316e-34
-7.69069e-32
-1.82971e-33
-5.17423e-31
-1.01294e-32
-3.23263e-30
-5.10613e-32
-1.84381e-29
-2.30407e-31
-9.40855e-29
-9.1037e-31
-4.18944e-28
-3.0482e-30
-1.57527e-27
-8.188e-30
-4.77034e-27
-1.5929e-29
-1.07526e-26
-1.78954e-29
-1.52469e-26
-4.88804e-30
-6.79686e-27
-1.08488e-32
-2.7086e-28
2.75681e-27
-3.41257e-62
-6.11431e-61
-9.38679e-62
-1.76823e-60
-3.72761e-61
-7.38515e-60
-1.52525e-60
-3.1772e-59
-6.41562e-60
-1.40476e-58
-2.77353e-59
-6.38292e-58
-1.23206e-58
-2.98028e-57
-5.62266e-58
-1.42973e-56
-2.63541e-57
-7.04573e-56
-1.26832e-56
-3.56592e-55
-6.26516e-56
-1.85296e-54
-3.17537e-55
-9.88252e-54
-1.65054e-54
-5.40765e-53
-8.79444e-54
-3.0346e-52
-4.80066e-53
-1.74557e-51
-2.6831e-52
-1.02868e-50
-1.53433e-51
-6.2069e-50
-8.97067e-51
-3.83216e-49
-5.358e-50
-2.41926e-48
-3.2664e-49
-1.56051e-47
-2.03054e-48
-1.02765e-46
-1.28582e-47
-6.90306e-46
-8.28509e-47
-4.72563e-45
-5.42562e-46
-3.29371e-44
-3.60666e-45
-2.33503e-43
-2.43061e-44
-1.68212e-42
-1.65852e-43
-1.23016e-41
-1.1444e-42
-9.12463e-41
-7.976e-42
-6.85939e-40
-5.60926e-41
-5.22299e-39
-3.95229e-40
-4.69867e-38
-3.20794e-39
-3.99231e-37
-2.51575e-38
-3.28914e-36
-1.9074e-37
-2.6286e-35
-1.39802e-36
-2.03682e-34
-9.89015e-36
-1.52696e-33
-6.72618e-35
-1.10212e-32
-4.36885e-34
-7.5991e-32
-2.68508e-33
-4.95072e-31
-1.54219e-32
-3.00372e-30
-8.15346e-32
-1.66804e-29
-3.89353e-31
-8.30266e-29
-1.63827e-30
-3.60948e-28
-5.86654e-30
-1.32461e-27
-1.69583e-29
-3.90627e-27
-3.61578e-29
-8.52526e-27
-4.68639e-29
-1.14995e-26
-1.49609e-29
-3.96387e-27
-8.41262e-31
-2.57507e-28
3.62631e-27
-6.39952e-62
-1.07273e-60
-1.75838e-61
-3.0998e-60
-6.95907e-61
-1.29023e-59
-2.83826e-60
-5.5315e-59
-1.18986e-59
-2.43672e-58
-5.12598e-59
-1.1029e-57
-2.26875e-58
-5.12862e-57
-1.03138e-57
-2.44976e-56
-4.8145e-57
-1.20176e-55
-2.30703e-56
-6.05287e-55
-1.1344e-55
-3.12913e-54
-5.72158e-55
-1.65975e-53
-2.95867e-54
-9.02892e-53
-1.56776e-53
-5.03497e-52
-8.50768e-53
-2.87669e-51
-4.725e-52
-1.68293e-50
-2.68372e-51
-1.00746e-49
-1.55764e-50
-6.1669e-49
-9.23021e-50
-3.85688e-48
-5.57896e-49
-2.46243e-47
-3.43591e-48
-1.60342e-46
-2.15371e-47
-1.06377e-45
-1.37235e-46
-7.18301e-45
-8.87796e-46
-4.93091e-44
-5.82308e-45
-3.43721e-43
-3.86705e-44
-2.43009e-42
-2.59649e-43
-1.74044e-41
-1.76031e-42
-1.26133e-40
-1.20355e-41
-9.2407e-40
-8.29073e-41
-6.83853e-39
-5.72413e-40
-5.96283e-38
-4.54444e-39
-4.89354e-37
-3.48442e-38
-3.88505e-36
-2.58387e-37
-2.98675e-35
-1.85492e-36
-2.22437e-34
-1.28863e-35
-1.60301e-33
-8.63932e-35
-1.11373e-32
-5.55744e-34
-7.40868e-32
-3.3989e-33
-4.66942e-31
-1.95122e-32
-2.74894e-30
-1.03442e-31
-1.48521e-29
-4.96089e-31
-7.20725e-29
-2.0957e-30
-3.05806e-28
-7.51977e-30
-1.09505e-27
-2.17125e-29
-3.1436e-27
-4.60304e-29
-6.63359e-27
-5.84652e-29
-8.45763e-27
-1.26445e-29
-1.86944e-27
-1.67882e-30
-2.61201e-28
5.97349e-27
-1.15257e-61
-1.81707e-60
-3.16483e-61
-5.24668e-60
-1.24881e-60
-2.17662e-59
-5.07863e-60
-9.3007e-59
-2.12264e-59
-4.08281e-58
-9.11516e-59
-1.84118e-57
-4.02068e-58
-8.52865e-57
-1.82125e-57
-4.05729e-56
-8.46926e-57
-1.98181e-55
-4.04194e-56
-9.9365e-55
-1.97897e-55
-5.11212e-54
-9.93589e-55
-2.6977e-53
-5.11306e-54
-1.45952e-52
-2.69538e-53
-8.09154e-52
-1.45464e-52
-4.59411e-51
-8.0313e-52
-2.66957e-50
-4.53289e-51
-1.58649e-49
-2.61308e-50
-9.63487e-49
-1.53712e-49
-5.97425e-48
-9.21719e-49
-3.77866e-47
-5.62775e-48
-2.43533e-46
-3.49453e-47
-1.59754e-45
-2.20388e-46
-1.06535e-44
-1.40969e-45
-7.21305e-44
-9.1317e-45
-4.95151e-43
-5.98141e-44
-3.44138e-42
-3.95541e-43
-2.41811e-41
-2.63668e-42
-1.71538e-40
-1.76932e-41
-1.22699e-39
-1.19391e-40
-8.84063e-39
-8.06932e-40
-7.48309e-38
-6.25422e-39
-5.9389e-37
-4.67391e-38
-4.54701e-36
-3.37446e-37
-3.36341e-35
-2.35806e-36
-2.40671e-34
-1.59609e-35
-1.66603e-33
-1.04479e-34
-1.11307e-32
-6.58194e-34
-7.13552e-32
-3.95548e-33
-4.34637e-31
-2.23833e-32
-2.48062e-30
-1.17247e-31
-1.30303e-29
-5.56286e-31
-6.16138e-29
-2.32481e-30
-2.55069e-28
-8.24062e-30
-8.91059e-28
-2.34293e-29
-2.48938e-27
-4.8561e-29
-5.07276e-27
-5.88149e-29
-6.07347e-27
-4.76683e-30
-4.92185e-28
-1.21789e-30
-1.27958e-28
9.18718e-27
-1.99802e-61
-2.97444e-60
-5.4859e-61
-8.583e-60
-2.15909e-60
-3.54957e-59
-8.75768e-60
-1.51202e-58
-3.65004e-59
-6.61581e-58
-1.56272e-58
-2.97323e-57
-6.8711e-58
-1.37228e-56
-3.10185e-57
-6.50344e-56
-1.43726e-56
-3.1639e-55
-6.83323e-56
-1.5796e-54
-3.33212e-55
-8.09021e-54
-1.66582e-54
-4.24888e-53
-8.53347e-54
-2.28708e-52
-4.47677e-53
-1.26108e-51
-2.4036e-52
-7.11845e-51
-1.31979e-51
-4.11069e-50
-7.4052e-51
-2.42656e-49
-4.242e-50
-1.46301e-48
-2.47842e-49
-9.00048e-48
-1.47528e-48
-5.64417e-47
-8.93615e-48
-3.60376e-46
-5.50096e-47
-2.33989e-45
-3.43654e-46
-1.54287e-44
-2.1754e-45
-1.03165e-43
-1.39311e-44
-6.98437e-43
-9.00976e-44
-4.77974e-42
-5.8742e-43
-3.30079e-41
-3.8542e-42
-2.29634e-40
-2.54079e-41
-1.60684e-39
-1.68063e-40
-1.1294e-38
-1.11198e-39
-9.29703e-38
-8.40878e-39
-7.14657e-37
-6.11563e-38
-5.28238e-36
-4.28755e-37
-3.76119e-35
-2.90523e-36
-2.5852e-34
-1.90629e-35
-1.71753e-33
-1.21104e-34
-1.10201e-32
-7.42147e-34
-6.79864e-32
-4.35165e-33
-3.99724e-31
-2.41009e-32
-2.20946e-30
-1.23869e-31
-1.12752e-29
-5.77589e-31
-5.19222e-29
-2.37348e-30
-2.09645e-28
-8.26521e-30
-7.1433e-28
-2.30146e-29
-1.94149e-27
-4.63118e-29
-3.81448e-27
-5.26021e-29
-4.24674e-27
-1.73099e-30
-1.38091e-28
5.34232e-30
3.00234e-28
2.04017e-26
-3.34213e-61
-4.70967e-60
-9.17934e-61
-1.35849e-59
-3.60411e-60
-5.6017e-59
-1.45826e-59
-2.37932e-58
-6.06132e-59
-1.03792e-57
-2.58757e-58
-4.6497e-57
-1.13424e-57
-2.13884e-56
-5.10378e-57
-1.01004e-55
-2.35679e-56
-4.89544e-55
-1.11645e-55
-2.43442e-54
-5.42348e-55
-1.24161e-53
-2.70042e-54
-6.49179e-53
-1.37744e-53
-3.47789e-52
-7.19353e-53
-1.90803e-51
-3.84368e-52
-1.07125e-50
-2.09971e-51
-6.15056e-50
-1.1717e-50
-3.6083e-49
-6.67274e-50
-2.16102e-48
-3.87415e-49
-1.31992e-47
-2.29052e-48
-8.21277e-47
-1.37731e-47
-5.19938e-46
-8.4114e-47
-3.34466e-45
-5.2094e-46
-2.18301e-44
-3.26647e-45
-1.44334e-43
-2.07003e-44
-9.65035e-43
-1.32329e-43
-6.51291e-42
-8.5163e-43
-4.42802e-41
-5.50677e-42
-3.02681e-40
-3.57076e-41
-2.07615e-39
-2.31801e-40
-1.42653e-38
-1.50253e-39
-1.1444e-37
-1.10895e-38
-8.53671e-37
-7.84662e-38
-6.10072e-36
-5.3352e-37
-4.18485e-35
-3.49712e-36
-2.76293e-34
-2.21669e-35
-1.76021e-33
-1.36067e-34
-1.08302e-32
-8.07172e-34
-6.41881e-32
-4.59531e-33
-3.63692e-31
-2.47936e-32
-1.94449e-30
-1.2451e-31
-9.63158e-30
-5.68461e-31
-4.31694e-29
-2.28943e-30
-1.69935e-28
-7.80966e-30
-5.64579e-28
-2.12339e-29
-1.49198e-27
-4.12664e-29
-2.81851e-27
-4.29376e-29
-2.85912e-27
-9.06644e-31
-5.92161e-29
1.61424e-29
6.85166e-28
3.0514e-26
-5.40428e-61
-7.22133e-60
-1.48503e-60
-2.08277e-59
-5.81709e-60
-8.56488e-59
-2.34797e-59
-3.62827e-58
-9.73385e-59
-1.57831e-57
-4.14378e-58
-7.04968e-57
-1.81105e-57
-3.23271e-56
-8.12406e-57
-1.52158e-55
-3.73928e-56
-7.34903e-55
-1.7653e-55
-3.64108e-54
-8.54454e-55
-1.84978e-53
-4.23827e-54
-9.63165e-53
-2.15319e-53
-5.13736e-52
-1.1197e-52
-2.80528e-51
-5.95593e-52
-1.56716e-50
-3.23805e-51
-8.95e-50
-1.79773e-50
-5.22073e-49
-1.01825e-49
-3.10762e-48
-5.87761e-49
-1.88561e-47
-3.45343e-48
-1.16492e-46
-2.06267e-47
-7.31814e-46
-1.25058e-46
-4.66816e-45
-7.68421e-46
-3.01891e-44
-4.77683e-45
-1.97592e-43
-2.99854e-44
-1.30642e-42
-1.89677e-43
-8.70772e-42
-1.20643e-42
-5.83821e-41
-7.69823e-42
-3.92842e-40
-4.91712e-41
-2.64681e-39
-3.13733e-40
-1.78175e-38
-1.99483e-39
-1.39618e-37
-1.43856e-38
-1.01296e-36
-9.90932e-38
-7.01282e-36
-6.53375e-37
-4.64072e-35
-4.13808e-36
-2.9444e-34
-2.52775e-35
-1.79767e-33
-1.49397e-34
-1.05901e-32
-8.54389e-34
-6.01711e-32
-4.70325e-33
-3.27879e-31
-2.46301e-32
-1.69285e-30
-1.20483e-31
-8.12981e-30
-5.37238e-31
-3.54402e-29
-2.11605e-30
-1.35943e-28
-7.05691e-30
-4.40156e-28
-1.86898e-29
-1.12972e-27
-3.48607e-29
-2.04208e-27
-3.1736e-29
-1.80574e-27
-7.85887e-31
-4.364e-29
3.333e-29
1.16003e-27
5.03211e-26
-8.45686e-61
-1.07353e-59
-2.32513e-60
-3.09679e-59
-9.08707e-60
-1.27023e-58
-3.65939e-59
-5.36765e-58
-1.51328e-58
-2.32888e-57
-6.42519e-58
-1.03736e-56
-2.80034e-57
-4.7431e-56
-1.25251e-56
-2.22563e-55
-5.74723e-56
-1.07146e-54
-2.70448e-55
-5.29034e-54
-1.30459e-54
-2.67788e-53
-6.44783e-54
-1.38898e-52
-3.26335e-53
-7.37827e-52
-1.69025e-52
-4.01145e-51
-8.95285e-52
-2.23064e-50
-4.84565e-51
-1.26764e-49
-2.67752e-50
-7.35558e-49
-1.50893e-49
-4.35376e-48
-8.66327e-49
-2.6258e-47
-5.06098e-48
-1.61168e-46
-3.00424e-47
-1.00538e-45
-1.80938e-46
-6.36449e-45
-1.10381e-45
-4.0819e-44
-6.80826e-45
-2.64748e-43
-4.23718e-44
-1.73299e-42
-2.65499e-43
-1.14234e-41
-1.67093e-42
-7.56459e-41
-1.05361e-41
-5.01945e-40
-6.63921e-41
-3.32858e-39
-4.17046e-40
-2.20017e-38
-2.60541e-39
-1.68807e-37
-1.83887e-38
-1.19421e-36
-1.2349e-37
-8.02871e-36
-7.90291e-37
-5.13557e-35
-4.83584e-36
-3.13478e-34
-2.84285e-35
-1.83399e-33
-1.61338e-34
-1.03298e-32
-8.86202e-34
-5.61348e-32
-4.69841e-33
-2.93416e-31
-2.37982e-32
-1.45976e-30
-1.13086e-31
-6.78691e-30
-4.91469e-31
-2.87494e-29
-1.88999e-30
-1.07389e-28
-6.15174e-30
-3.38588e-28
-1.58272e-29
-8.42443e-28
-2.80759e-29
-1.44507e-27
-2.02233e-29
-1.00836e-27
-6.96077e-31
-3.37497e-29
6.96314e-29
2.20375e-27
1.00248e-25
-1.2818e-60
-1.54904e-59
-3.52656e-60
-4.4703e-59
-1.37524e-59
-1.82922e-58
-5.52621e-59
-7.71197e-58
-2.28e-58
-3.3379e-57
-9.65677e-58
-1.483e-56
-4.19783e-57
-6.7624e-56
-1.87241e-56
-3.16409e-55
-8.56679e-56
-1.51864e-54
-4.01901e-55
-7.47425e-54
-1.93247e-54
-3.77051e-53
-9.51888e-54
-1.94867e-52
-4.80054e-53
-1.0312e-51
-2.47711e-52
-5.58382e-51
-1.30689e-51
-3.09166e-50
-7.04387e-51
-1.74893e-49
-3.87498e-50
-1.0099e-48
-2.17355e-49
-5.94664e-48
-1.2417e-48
-3.56661e-47
-7.21548e-48
-2.17614e-46
-4.25896e-47
-1.34882e-45
-2.54952e-46
-8.47978e-45
-1.54517e-45
-5.39793e-44
-9.46313e-45
-3.47255e-43
-5.84403e-44
-2.2528e-42
-3.63078e-43
-1.47039e-41
-2.26358e-42
-9.6305e-41
-1.41226e-41
-6.31195e-40
-8.79259e-41
-4.12749e-39
-5.44683e-40
-2.6847e-38
-3.34942e-39
-2.02175e-37
-2.3183e-38
-1.3984e-36
-1.52088e-37
-9.15504e-36
-9.46322e-37
-5.67499e-35
-5.60029e-36
-3.33896e-34
-3.16758e-35
-1.87313e-33
-1.72293e-34
-1.00778e-32
-9.05929e-34
-5.22557e-32
-4.60717e-33
-2.61201e-31
-2.24865e-32
-1.24864e-30
-1.03503e-31
-5.60901e-30
-4.37539e-31
-2.30596e-29
-1.64025e-30
-8.38069e-29
-5.20161e-30
-2.5701e-28
-1.29542e-29
-6.18031e-28
-2.15518e-29
-9.92651e-28
-9.73976e-30
-4.33711e-28
-8.14111e-31
-3.51569e-29
1.75067e-28
5.10138e-27
3.58373e-25
-1.88377e-60
-2.17171e-59
-5.18715e-60
-6.27116e-59
-2.01865e-59
-2.56035e-58
-8.09544e-59
-1.07713e-57
-3.33284e-58
-4.65154e-57
-1.40836e-57
-2.06173e-56
-6.10725e-57
-9.3777e-56
-2.71706e-56
-4.37608e-55
-1.23975e-55
-2.09443e-54
-5.79944e-55
-1.02772e-53
-2.78014e-54
-5.16811e-53
-1.36508e-53
-2.66203e-52
-6.86129e-53
-1.40369e-51
-3.52801e-52
-7.57221e-51
-1.85442e-51
-4.17587e-50
-9.95588e-51
-2.35226e-49
-5.45434e-50
-1.35218e-48
-3.04611e-49
-7.92397e-48
-1.73214e-48
-4.72831e-47
-1.00161e-47
-2.86922e-46
-5.88126e-47
-1.76803e-45
-3.50108e-46
-1.10456e-44
-2.10923e-45
-6.98366e-44
-1.28346e-44
-4.45974e-43
-7.8709e-44
-2.87014e-42
-4.85283e-43
-1.85692e-41
-3.00009e-42
-1.20445e-40
-1.85427e-41
-7.80889e-40
-1.14223e-40
-5.04411e-39
-6.98975e-40
-3.23509e-38
-4.23863e-39
-2.39683e-37
-2.88333e-38
-1.62529e-36
-1.85224e-37
-1.03925e-35
-1.12322e-36
-6.26176e-35
-6.44138e-36
-3.56056e-34
-3.50858e-35
-1.91844e-33
-1.82762e-34
-9.85877e-33
-9.17374e-34
-4.86776e-32
-4.4568e-33
-2.31888e-31
-2.08721e-32
-1.06134e-30
-9.27492e-32
-4.59387e-30
-3.80528e-31
-1.8299e-29
-1.38837e-30
-6.46324e-29
-4.28097e-30
-1.9248e-28
-1.02684e-29
-4.4527e-28
-1.5642e-29
-6.54009e-28
-2.68524e-30
-1.0838e-28
3.54494e-30
5.38734e-29
4.31013e-28
1.11398e-26
1.10598e-24
-2.68748e-60
-2.96107e-59
-7.40788e-60
-8.55778e-59
-2.87727e-59
-3.48658e-58
-1.15171e-58
-1.46388e-57
-4.73194e-58
-6.30851e-57
-1.99526e-57
-2.78999e-56
-8.63243e-57
-1.26605e-55
-3.83115e-56
-5.8933e-55
-1.7436e-55
-2.81316e-54
-8.13437e-55
-1.37655e-53
-3.88836e-54
-6.90177e-53
-1.9035e-53
-3.54388e-52
-9.53745e-53
-1.86249e-51
-4.88782e-52
-1.00119e-50
-2.56022e-51
-5.5008e-50
-1.36948e-50
-3.08639e-49
-7.47373e-50
-1.76678e-48
-4.1569e-49
-1.03077e-47
-2.35364e-48
-6.12179e-47
-1.35481e-47
-3.69619e-46
-7.91687e-47
-2.26544e-45
-4.68875e-46
-1.40721e-44
-2.80933e-45
-8.84257e-44
-1.69947e-44
-5.60946e-43
-1.03565e-43
-3.5842e-42
-6.34167e-43
-2.3008e-41
-3.89118e-42
-1.47958e-40
-2.38512e-41
-9.50157e-40
-1.45556e-40
-6.07207e-39
-8.81221e-40
-3.84709e-38
-5.27908e-39
-2.81026e-37
-3.53703e-38
-1.87313e-36
-2.2306e-37
-1.17333e-35
-1.32198e-36
-6.89448e-35
-7.36659e-36
-3.80117e-34
-3.87213e-35
-1.9722e-33
-1.93257e-34
-9.69077e-33
-9.24394e-34
-4.55058e-32
-4.27327e-33
-2.05894e-31
-1.91107e-32
-8.98396e-31
-8.16506e-32
-3.73326e-30
-3.24237e-31
-1.4375e-29
-1.14918e-30
-4.92682e-29
-3.43711e-30
-1.42185e-28
-7.88595e-30
-3.14343e-28
-1.05265e-29
-4.0419e-28
-9.37573e-31
-3.471e-29
9.80634e-30
2.41505e-28
9.34632e-28
2.13929e-26
3.26789e-24
-3.72618e-60
-3.93037e-59
-1.0283e-59
-1.1371e-58
-3.98657e-59
-4.62367e-58
-1.59289e-58
-1.93772e-57
-6.53212e-58
-8.33432e-57
-2.7487e-57
-3.67834e-56
-1.18664e-56
-1.66552e-55
-5.25433e-56
-7.73487e-55
-2.38552e-55
-3.68314e-54
-1.11007e-54
-1.79755e-53
-5.29205e-54
-8.98764e-53
-2.58335e-53
-4.6014e-52
-1.29054e-52
-2.41077e-51
-6.59319e-52
-1.29167e-50
-3.44217e-51
-7.07214e-50
-1.8349e-50
-3.95348e-49
-9.97748e-50
-2.25436e-48
-5.52837e-49
-1.30983e-47
-3.11763e-48
-7.74521e-47
-1.78701e-47
-4.65476e-46
-1.03959e-46
-2.83894e-45
-6.12788e-46
-1.75422e-44
-3.65321e-45
-1.09615e-43
-2.19817e-44
-6.91197e-43
-1.33189e-43
-4.38796e-42
-8.1055e-43
-2.7971e-41
-4.94021e-42
-1.78507e-40
-3.0059e-41
-1.13676e-39
-1.81941e-40
-7.19695e-39
-1.09127e-39
-4.51177e-38
-6.46884e-39
-3.25598e-37
-4.27772e-38
-2.13836e-36
-2.65497e-37
-1.31599e-35
-1.54234e-36
-7.56652e-35
-8.37826e-36
-4.05966e-34
-4.26265e-35
-2.0353e-33
-2.04229e-34
-9.58461e-33
-9.30494e-34
-4.28042e-32
-4.07953e-33
-1.83415e-31
-1.73317e-32
-7.59304e-31
-7.08393e-32
-3.01505e-30
-2.71315e-31
-1.11864e-29
-9.31981e-31
-3.71277e-29
-2.69606e-30
-1.0356e-28
-5.86278e-30
-2.16847e-28
-6.27724e-30
-2.2348e-28
-5.33295e-31
-1.82881e-29
2.17137e-29
4.61363e-28
1.84212e-27
3.88231e-26
9.5008e-24
-5.02595e-60
-5.08387e-59
-1.38879e-59
-1.47262e-58
-5.37451e-59
-5.97694e-58
-2.14383e-58
-2.50055e-57
-8.77549e-58
-1.07356e-56
-3.68559e-57
-4.72904e-56
-1.58785e-56
-2.1369e-55
-7.01564e-56