/*--------------------------------*- C++ -*----------------------------------*\
  =========                 |
  \\      /  F ield         | OpenFOAM: The Open Source CFD Toolbox
   \\    /   O peration     | Website:  https://openfoam.org
    \\  /    A nd           | Version:  9
     \\/     M anipulation  |
\*---------------------------------------------------------------------------*/
FoamFile
{
    format      ascii;
    class       volScalarField;
    location    "0.06";
    object      alpha.water;
}
// * * * * * * * * * * * * * * * * * * * * * * * * * * * * * * * * * * * * * //

dimensions      [0 0 0 0 0 0 0];

internalField   nonuniform List<scalar> 
5000
(
-1.0635e-59
-3.032e-59
-1.27836e-58
-5.56448e-58
-2.5003e-57
-1.1601e-56
-5.5602e-56
-2.75394e-55
-1.41019e-54
-7.46919e-54
-4.09414e-53
-2.32371e-52
-1.36641e-51
-8.32925e-51
-5.26627e-50
-3.45542e-49
-2.35398e-48
-1.66563e-47
-1.22449e-46
-9.3547e-46
-7.42784e-45
-6.13076e-44
-5.26077e-43
-4.69662e-42
-4.36337e-41
-4.21557e-40
-4.23436e-39
-4.41791e-38
-4.77882e-37
-5.34222e-36
-6.14631e-35
-8.30536e-34
-1.08656e-32
-1.36561e-31
-1.63543e-30
-1.85081e-29
-1.96287e-28
-1.93436e-27
-1.7558e-26
-1.454e-25
-1.08654e-24
-7.22879e-24
-4.20556e-23
-2.08421e-22
-8.43433e-22
-2.57835e-21
-4.98511e-21
-2.97982e-21
-2.27541e-22
4.20758e-22
-3.41623e-59
-9.69115e-59
-4.05974e-58
-1.755e-57
-7.82722e-57
-3.6025e-56
-1.71156e-55
-8.3969e-55
-4.25537e-54
-2.22853e-53
-1.20655e-52
-6.75645e-52
-3.91511e-51
-2.34877e-50
-1.45957e-49
-9.39953e-49
-6.27592e-48
-4.34612e-47
-3.12253e-46
-2.32796e-45
-1.80118e-44
-1.44632e-43
-1.20531e-42
-1.04253e-41
-9.35913e-41
-8.73047e-40
-8.45379e-39
-8.48995e-38
-8.8318e-37
-9.49387e-36
-1.05108e-34
-1.36828e-33
-1.7285e-32
-2.1029e-31
-2.44363e-30
-2.68888e-29
-2.77716e-28
-2.66826e-27
-2.36268e-26
-1.90883e-25
-1.39106e-24
-9.0171e-24
-5.10377e-23
-2.45565e-22
-9.62001e-22
-2.83565e-21
-5.26139e-21
-3.01572e-21
-1.8015e-22
5.74787e-22
-1.02599e-58
-2.89522e-58
-1.20523e-57
-5.17576e-57
-2.29207e-56
-1.04692e-55
-4.93315e-55
-2.39866e-54
-1.20384e-53
-6.23826e-53
-3.33905e-52
-1.84661e-51
-1.05555e-50
-6.23897e-50
-3.81471e-49
-2.41383e-48
-1.58132e-47
-1.07288e-46
-7.54087e-46
-5.49181e-45
-4.1445e-44
-3.24109e-43
-2.62628e-42
-2.20484e-41
-1.91755e-40
-1.72767e-39
-1.61256e-38
-1.56049e-37
-1.56195e-36
-1.61449e-35
-1.71893e-34
-2.15336e-33
-2.62312e-32
-3.08495e-31
-3.47417e-30
-3.71359e-29
-3.73325e-28
-3.49639e-27
-3.02077e-26
-2.38227e-25
-1.69455e-24
-1.0716e-23
-5.91167e-23
-2.76878e-22
-1.05437e-21
-3.01846e-21
-5.45457e-21
-3.18413e-21
-1.50572e-22
5.6758e-22
-2.88874e-58
-8.11833e-58
-3.36044e-57
-1.43451e-56
-6.31176e-56
-2.86288e-55
-1.33885e-54
-6.45675e-54
-3.21172e-53
-1.64816e-52
-8.72783e-52
-4.77052e-51
-2.69214e-50
-1.56906e-49
-9.44779e-49
-5.87931e-48
-3.78262e-47
-2.5173e-46
-1.73282e-45
-1.23404e-44
-9.093e-44
-6.93226e-43
-5.46749e-42
-4.46037e-41
-3.76297e-40
-3.2823e-39
-2.95946e-38
-2.75776e-37
-2.65679e-36
-2.64167e-35
-2.70424e-34
-3.25752e-33
-3.82193e-32
-4.33906e-31
-4.7294e-30
-4.90538e-29
-4.79602e-28
-4.37649e-27
-3.68898e-26
-2.84051e-25
-1.97325e-24
-1.21839e-23
-6.5588e-23
-2.99511e-22
-1.11137e-21
-3.10198e-21
-5.4962e-21
-3.30925e-21
-1.36055e-22
1.75652e-22
-7.65701e-58
-2.14413e-57
-8.82833e-57
-3.74782e-56
-1.63921e-55
-7.38737e-55
-3.43077e-54
-1.64208e-53
-8.10124e-53
-4.12028e-52
-2.16066e-51
-1.16842e-50
-6.51697e-50
-3.74985e-49
-2.22639e-48
-1.36431e-47
-8.63103e-47
-5.63854e-46
-3.80434e-45
-2.65142e-44
-1.90911e-43
-1.42045e-42
-1.09156e-41
-8.66227e-41
-7.09667e-40
-6.00047e-39
-5.23458e-38
-4.70968e-37
-4.36865e-36
-4.17473e-35
-4.11039e-34
-4.7592e-33
-5.37329e-32
-5.88184e-31
-6.19675e-30
-6.22917e-29
-5.91749e-28
-5.258e-27
-4.3227e-26
-3.24992e-25
-2.20554e-24
-1.3304e-23
-6.99375e-23
-3.11697e-22
-1.1284e-21
-3.07587e-21
-5.3549e-21
-3.30447e-21
-1.26534e-22
-7.21023e-23
-1.91724e-57
-5.352e-57
-2.19268e-56
-9.26028e-56
-4.02775e-55
-1.80432e-54
-8.32547e-54
-3.95707e-53
-1.93748e-52
-9.77311e-52
-5.07913e-51
-2.71982e-50
-1.50081e-49
-8.53463e-49
-5.00231e-48
-3.0223e-47
-1.88254e-46
-1.20908e-45
-8.00769e-45
-5.4695e-44
-3.85303e-43
-2.79951e-42
-2.09745e-41
-1.62027e-40
-1.29049e-39
-1.05887e-38
-8.94749e-38
-7.78311e-37
-6.96608e-36
-6.41063e-35
-6.06015e-34
-6.74269e-33
-7.32186e-32
-7.72016e-31
-7.85212e-30
-7.64035e-29
-7.04448e-28
-6.08999e-27
-4.88082e-26
-3.58229e-25
-2.37521e-24
-1.40013e-23
-7.19102e-23
-3.12953e-22
-1.10591e-21
-2.94516e-21
-5.03548e-21
-3.14911e-21
-1.17351e-22
-7.25684e-23
-4.54929e-57
-1.26655e-56
-5.16463e-56
-2.17061e-55
-9.39205e-55
-4.18393e-54
-1.91895e-53
-9.06164e-53
-4.40574e-52
-2.20548e-51
-1.13673e-50
-6.03234e-50
-3.29596e-49
-1.85417e-48
-1.07396e-47
-6.40482e-47
-3.93291e-46
-2.48666e-45
-1.61891e-44
-1.08525e-43
-7.49065e-43
-5.32306e-42
-3.89383e-41
-2.93146e-40
-2.27087e-39
-1.80921e-38
-1.48223e-37
-1.24795e-36
-1.07902e-35
-9.57537e-35
-8.71367e-34
-9.30547e-33
-9.70578e-32
-9.85154e-31
-9.66301e-30
-9.0902e-29
-8.12523e-28
-6.8277e-27
-5.33092e-26
-3.81825e-25
-2.47326e-24
-1.42494e-23
-7.15192e-23
-3.0401e-22
-1.04874e-21
-2.72736e-21
-4.57044e-21
-2.86092e-21
-1.04462e-22
-1.80624e-24
-1.02591e-56
-2.84983e-56
-1.15698e-55
-4.84056e-55
-2.0843e-54
-9.23667e-54
-4.21264e-53
-1.97728e-52
-9.55087e-52
-4.74741e-51
-2.42818e-50
-1.27787e-49
-6.91884e-49
-3.85374e-48
-2.20797e-47
-1.30114e-46
-7.88557e-46
-4.91448e-45
-3.14929e-44
-2.07485e-43
-1.40521e-42
-9.78139e-42
-6.99623e-41
-5.14062e-40
-3.87896e-39
-3.00457e-38
-2.38824e-37
-1.94706e-36
-1.62753e-35
-1.39417e-34
-1.22262e-33
-1.25564e-32
-1.25825e-31
-1.22664e-30
-1.15911e-29
-1.05306e-28
-9.11457e-28
-7.43693e-27
-5.65227e-26
-3.9487e-25
-2.49817e-24
-1.4067e-23
-6.90054e-23
-2.86524e-22
-9.64704e-22
-2.44756e-21
-4.00807e-21
-2.47631e-21
-8.82705e-23
1.67546e-24
-2.20499e-56
-6.11403e-56
-2.47191e-55
-1.0298e-54
-4.41398e-54
-1.9465e-53
-8.83089e-53
-4.12153e-52
-1.97872e-51
-9.77098e-51
-4.96216e-50
-2.59132e-49
-1.3913e-48
-7.67882e-48
-4.35571e-47
-2.5388e-46
-1.52023e-45
-9.34992e-45
-5.90509e-44
-3.82877e-43
-2.54796e-42
-1.73982e-41
-1.21859e-40
-8.75169e-40
-6.44224e-39
-4.85845e-38
-3.75215e-37
-2.96601e-36
-2.3988e-35
-1.98404e-34
-1.67744e-33
-1.65817e-32
-1.598e-31
-1.49818e-30
-1.36144e-29
-1.1917e-28
-9.9771e-28
-7.89616e-27
-5.83652e-26
-3.97443e-25
-2.45495e-24
-1.35089e-23
-6.47685e-23
-2.62692e-22
-8.62941e-22
-2.13322e-21
-3.40066e-21
-2.03859e-21
-6.93471e-23
5.22363e-24
-4.52968e-56
-1.25415e-55
-5.05063e-55
-2.09559e-54
-8.94332e-54
-3.92558e-53
-1.77212e-52
-8.22681e-52
-3.92708e-51
-1.9273e-50
-9.72293e-50
-5.04115e-49
-2.68566e-48
-1.46978e-47
-8.26063e-47
-4.76656e-46
-2.82286e-45
-1.71522e-44
-1.06892e-43
-6.82968e-43
-4.47218e-42
-2.99998e-41
-2.06067e-40
-1.44871e-39
-1.0419e-38
-7.66141e-38
-5.75713e-37
-4.41864e-36
-3.46216e-35
-2.76813e-34
-2.25781e-33
-2.14795e-32
-1.99102e-31
-1.79558e-30
-1.5702e-29
-1.32465e-28
-1.07031e-27
-8.19897e-27
-5.88612e-26
-3.90433e-25
-2.35347e-24
-1.26528e-23
-5.92875e-23
-2.34868e-22
-7.52465e-22
-1.80976e-21
-2.79548e-21
-1.58784e-21
-4.88213e-23
1.29688e-22
-8.91726e-56
-2.46596e-55
-9.89343e-55
-4.08907e-54
-1.73786e-53
-7.59441e-53
-3.41217e-52
-1.57607e-51
-7.48287e-51
-3.65118e-50
-1.83055e-49
-9.42773e-49
-4.98641e-48
-2.70761e-47
-1.50886e-46
-8.62601e-46
-5.05692e-45
-3.03868e-44
-1.87068e-43
-1.17927e-42
-7.60848e-42
-5.02119e-41
-3.38755e-40
-2.3349e-39
-1.64317e-38
-1.17992e-37
-8.63985e-37
-6.4474e-36
-4.90066e-35
-3.79242e-34
-2.98748e-33
-2.73756e-32
-2.44104e-31
-2.11636e-30
-1.78002e-29
-1.4467e-28
-1.12815e-27
-8.36252e-27
-5.82378e-26
-3.75661e-25
-2.2073e-24
-1.1586e-23
-5.30486e-23
-2.05255e-22
-6.41082e-22
-1.49784e-21
-2.22969e-21
-1.15791e-21
-3.48862e-23
2.99042e-22
-1.68579e-55
-4.65733e-55
-1.86182e-54
-7.66669e-54
-3.24545e-53
-1.41227e-52
-6.31686e-52
-2.90381e-51
-1.37166e-50
-6.65651e-50
-3.3179e-49
-1.69813e-48
-8.92127e-48
-4.80913e-47
-2.65894e-46
-1.50713e-45
-8.75332e-45
-5.20641e-44
-3.16951e-43
-1.97361e-42
-1.2562e-41
-8.1672e-41
-5.41978e-40
-3.66814e-39
-2.53003e-38
-1.77697e-37
-1.26991e-36
-9.22769e-36
-6.81354e-35
-5.10973e-34
-3.89181e-33
-3.43812e-32
-2.95085e-31
-2.46007e-30
-1.98952e-29
-1.55602e-28
-1.16984e-27
-8.38218e-27
-5.65973e-26
-3.54897e-25
-2.03192e-24
-1.04095e-23
-4.65453e-23
-1.75797e-22
-5.34925e-22
-1.21198e-21
-1.72788e-21
-7.74388e-22
-3.10022e-23
2.83218e-22
-3.06688e-55
-8.46578e-55
-3.37256e-54
-1.38384e-53
-5.83581e-53
-2.52923e-52
-1.12645e-51
-5.15471e-51
-2.42319e-50
-1.16993e-49
-5.79958e-49
-2.95094e-48
-1.54058e-47
-8.24875e-47
-4.52751e-46
-2.54606e-45
-1.46609e-44
-8.63891e-44
-5.20552e-43
-3.20518e-42
-2.01501e-41
-1.2923e-40
-8.44736e-40
-5.62255e-39
-3.80699e-38
-2.61964e-37
-1.83021e-36
-1.29708e-35
-9.31783e-35
-6.78093e-34
-4.99924e-33
-4.26152e-32
-3.52249e-31
-2.82449e-30
-2.19602e-29
-1.65197e-28
-1.19651e-27
-8.27923e-27
-5.41338e-26
-3.29664e-25
-1.83773e-24
-9.18397e-24
-4.00951e-23
-1.47804e-22
-4.37985e-22
-9.60812e-22
-1.30295e-21
-4.51471e-22
-2.94583e-23
3.56292e-22
-5.37944e-55
-1.48377e-54
-5.89104e-54
-2.40894e-53
-1.01217e-52
-4.36982e-52
-1.93826e-51
-8.83147e-51
-4.1327e-50
-1.98565e-49
-9.79277e-49
-4.95547e-48
-2.57194e-47
-1.36845e-46
-7.46031e-46
-4.16477e-45
-2.37928e-44
-1.38999e-43
-8.29738e-43
-5.05672e-42
-3.14335e-41
-1.99104e-40
-1.28372e-39
-8.41534e-39
-5.60252e-38
-3.78347e-37
-2.58866e-36
-1.79247e-35
-1.25487e-34
-8.87549e-34
-6.34213e-33
-5.22171e-32
-4.15924e-31
-3.20821e-30
-2.39741e-29
-1.73367e-28
-1.20874e-27
-8.06949e-27
-5.10452e-26
-3.01638e-25
-1.63604e-24
-7.97141e-24
-3.39678e-23
-1.22188e-22
-3.52474e-22
-7.47614e-22
-9.58236e-22
-2.12883e-22
-2.987e-23
5.65402e-22
-9.10989e-55
-2.51084e-54
-9.93651e-54
-4.04992e-53
-1.69577e-52
-7.29434e-52
-3.22298e-51
-1.46255e-50
-6.81465e-50
-3.25939e-49
-1.59972e-48
-8.05364e-48
-4.15709e-47
-2.19894e-46
-1.19128e-45
-6.60557e-45
-3.74624e-44
-2.17133e-43
-1.28505e-42
-7.75838e-42
-4.7734e-41
-2.98952e-40
-1.90357e-39
-1.23075e-38
-8.06898e-38
-5.35671e-37
-3.5957e-36
-2.43709e-35
-1.66578e-34
-1.14708e-33
-7.95685e-33
-6.33536e-32
-4.86652e-31
-3.61179e-30
-2.59324e-29
-1.80138e-28
-1.20775e-27
-7.77043e-27
-4.75061e-26
-2.72165e-25
-1.43527e-24
-6.81461e-24
-2.83334e-23
-9.94351e-23
-2.79153e-22
-5.71771e-22
-6.88156e-22
-5.60452e-23
-1.46298e-23
8.2444e-22
-1.4909e-54
-4.10662e-54
-1.62018e-53
-6.58332e-53
-2.74763e-52
-1.17785e-51
-5.18551e-51
-2.34417e-50
-1.08786e-49
-5.18106e-49
-2.53143e-48
-1.26834e-47
-6.51357e-47
-3.42672e-46
-1.84565e-45
-1.01703e-44
-5.72924e-44
-3.29663e-43
-1.93572e-42
-1.1587e-41
-7.0625e-41
-4.37797e-40
-2.75632e-39
-1.75997e-38
-1.13795e-37
-7.43844e-37
-4.90721e-36
-3.26176e-35
-2.18098e-34
-1.46506e-33
-9.88331e-33
-7.62187e-32
-5.65227e-31
-4.03807e-30
-2.785e-29
-1.85673e-28
-1.19557e-27
-7.40274e-27
-4.3687e-26
-2.4241e-25
-1.24199e-24
-5.74323e-24
-2.32911e-23
-7.97292e-23
-2.17763e-22
-4.30043e-22
-4.81266e-22
-1.57258e-23
1.4977e-23
1.79585e-21
-2.36023e-54
-6.49871e-54
-2.55655e-53
-1.03586e-52
-4.31034e-52
-1.84188e-51
-8.08176e-51
-3.6405e-50
-1.68313e-49
-7.98433e-49
-3.88473e-48
-1.93773e-47
-9.90418e-47
-5.18425e-46
-2.77725e-45
-1.52157e-44
-8.51846e-44
-4.86894e-43
-2.83841e-42
-1.68579e-41
-1.01882e-40
-6.25704e-40
-3.89934e-39
-2.46191e-38
-1.57206e-37
-1.01339e-36
-6.58187e-36
-4.29855e-35
-2.81747e-34
-1.85015e-33
-1.21634e-32
-9.10281e-32
-6.5268e-31
-4.49221e-30
-2.97606e-29
-1.90266e-28
-1.17488e-27
-6.98892e-27
-3.97495e-26
-2.13353e-25
-1.06108e-24
-4.77594e-24
-1.8884e-23
-6.30336e-23
-1.67399e-22
-3.17864e-22
-3.2411e-22
-6.74503e-24
5.53984e-23
2.82026e-21
-3.61841e-54
-9.96216e-54
-3.90848e-53
-1.57948e-52
-6.55413e-52
-2.79245e-51
-1.22144e-50
-5.48397e-50
-2.52659e-49
-1.19412e-48
-5.78724e-48
-2.87476e-47
-1.46289e-46
-7.62157e-46
-4.0626e-45
-2.21392e-44
-1.2324e-43
-7.00099e-43
-4.05445e-42
-2.39091e-41
-1.43382e-40
-8.73193e-40
-5.39178e-39
-3.3699e-38
-2.12789e-37
-1.35471e-36
-8.67674e-36
-5.57817e-35
-3.59134e-34
-2.31052e-33
-1.48373e-32
-1.07999e-31
-7.50171e-31
-4.98107e-30
-3.1713e-29
-1.94307e-28
-1.14883e-27
-6.5518e-27
-3.58386e-26
-1.8577e-25
-8.9582e-25
-3.92192e-24
-1.51118e-23
-4.91614e-23
-1.26809e-22
-2.30402e-22
-2.04784e-22
-4.97257e-24
1.01748e-22
4.51865e-21
-5.37851e-54
-1.48106e-53
-5.79599e-53
-2.33652e-52
-9.67041e-52
-4.10889e-51
-1.79206e-50
-8.02116e-50
-3.68352e-49
-1.73493e-48
-8.37761e-48
-4.14545e-47
-2.10088e-46
-1.08979e-45
-5.78215e-45
-3.13548e-44
-1.73621e-43
-9.80756e-43
-5.64553e-42
-3.30755e-41
-1.96962e-40
-1.19038e-39
-7.28953e-39
-4.51475e-38
-2.82239e-37
-1.77701e-36
-1.12412e-35
-7.12656e-35
-4.5159e-34
-2.85281e-33
-1.79376e-32
-1.27313e-31
-8.58783e-31
-5.51197e-30
-3.3763e-29
-1.98237e-28
-1.12065e-27
-6.11297e-27
-3.20769e-26
-1.60227e-25
-7.48064e-25
-3.18264e-24
-1.19427e-23
-3.78356e-23
-9.46126e-23
-1.63132e-22
-1.14416e-22
-3.84744e-24
1.85023e-22
8.12726e-21
-7.76011e-54
-2.13774e-53
-8.34591e-53
-3.35677e-52
-1.38596e-51
-5.87383e-51
-2.5549e-50
-1.14029e-49
-5.22065e-49
-2.45103e-48
-1.17953e-47
-5.81563e-47
-2.93608e-46
-1.51687e-45
-8.0136e-45
-4.32569e-44
-2.38363e-43
-1.33949e-42
-7.66776e-42
-4.46562e-41
-2.64225e-40
-1.58589e-39
-9.63892e-39
-5.92125e-38
-3.66865e-37
-2.28712e-36
-1.431e-35
-8.9609e-35
-5.59935e-34
-3.48082e-33
-2.1482e-32
-1.49074e-31
-9.79239e-31
-6.09096e-30
-3.59635e-29
-2.02483e-28
-1.09346e-27
-5.69154e-27
-2.85617e-26
-1.37095e-25
-6.18462e-25
-2.55389e-24
-9.32491e-24
-2.87361e-23
-6.94524e-23
-1.12131e-22
-4.92431e-23
-4.01024e-24
4.10232e-22
2.58705e-20
-1.08785e-53
-2.99867e-53
-1.16809e-52
-4.6881e-52
-1.93131e-51
-8.16571e-51
-3.54286e-50
-1.57702e-49
-7.19979e-49
-3.3701e-48
-1.61669e-47
-7.94425e-47
-3.99648e-46
-2.05693e-45
-1.08234e-44
-5.81762e-44
-3.19132e-43
-1.78479e-42
-1.01647e-41
-5.88755e-41
-3.46325e-40
-2.06561e-39
-1.24697e-38
-7.6041e-38
-4.67369e-37
-2.88818e-36
-1.7896e-35
-1.10855e-34
-6.84253e-34
-4.19427e-33
-2.54667e-32
-1.73261e-31
-1.11162e-30
-6.7211e-30
-3.83538e-29
-2.07409e-28
-1.06988e-27
-5.30308e-27
-2.5364e-26
-1.16573e-25
-5.06752e-25
-2.02768e-24
-7.19566e-24
-2.15351e-23
-5.00734e-23
-7.39319e-23
-1.23144e-23
1.45039e-24
9.1673e-22
8.06896e-20
-1.48315e-53
-4.09175e-53
-1.59055e-52
-6.37105e-52
-2.61917e-51
-1.10496e-50
-4.78292e-50
-2.12373e-49
-9.67019e-49
-4.51382e-48
-2.15894e-47
-1.05756e-46
-5.30257e-46
-2.71957e-45
-1.42569e-44
-7.63297e-44
-4.16966e-43
-2.32161e-42
-1.31598e-41
-7.58413e-41
-4.43738e-40
-2.63148e-39
-1.57883e-38
-9.56405e-38
-5.83622e-37
-3.57844e-36
-2.19832e-35
-1.34881e-34
-8.23686e-34
-4.9877e-33
-2.98599e-32
-1.99689e-31
-1.25512e-30
-7.40095e-30
-4.09511e-29
-2.13259e-28
-1.0519e-27
-4.95898e-27
-2.25288e-26
-9.87181e-26
-4.12026e-25
-1.59381e-24
-5.48875e-24
-1.59196e-23
-3.53777e-23
-4.5729e-23
-3.94713e-24
1.72505e-23
1.83309e-21
2.41419e-19
-1.96854e-53
-5.4365e-53
-2.10915e-52
-8.43285e-52
-3.4601e-51
-1.45674e-50
-6.29188e-50
-2.78727e-49
-1.26603e-48
-5.89414e-48
-2.81133e-47
-1.3731e-46
-6.86332e-46
-3.50849e-45
-1.83288e-44
-9.77705e-44
-5.32018e-43
-2.95003e-42
-1.6649e-41
-9.55071e-41
-5.56056e-40
-3.2803e-39
-1.9571e-38
-1.17845e-37
-7.14486e-37
-4.35028e-36
-2.65219e-35
-1.6137e-34
-9.76289e-34
-5.8496e-33
-3.45973e-32
-2.27981e-31
-1.40787e-30
-8.12347e-30
-4.37437e-29
-2.20133e-28
-1.04067e-27
-4.66618e-27
-2.00775e-26
-8.3475e-26
-3.32948e-25
-1.24108e-24
-4.13925e-24
-1.16043e-23
-2.44261e-23
-2.53069e-23
-2.0816e-24
3.95891e-23
3.3419e-21
7.03965e-19
-2.54612e-53
-7.04015e-53
-2.7263e-52
-1.08817e-51
-4.45681e-51
-1.87277e-50
-8.07229e-50
-3.56823e-49
-1.61703e-48
-7.50978e-48
-3.57266e-47
-1.74015e-46
-8.67269e-46
-4.41982e-45
-2.30148e-44
-1.22346e-43
-6.63337e-43
-3.66414e-42
-2.05957e-41
-1.17643e-40
-6.81832e-40
-4.00298e-39
-2.37608e-38
-1.42295e-37
-8.57704e-37
-5.18965e-36
-3.14255e-35
-1.89798e-34
-1.13896e-33
-6.76214e-33
-3.95806e-32
-2.57555e-31
-1.56684e-30
-8.87543e-30
-4.6688e-29
-2.27957e-28
-1.03648e-27
-4.4271e-27
-1.80101e-26
-7.07022e-26
-2.67937e-25
-9.58219e-25
-3.08658e-24
-8.33691e-24
-1.64373e-23
-1.16341e-23
-1.81971e-24
6.81897e-23
6.4906e-21
2.06461e-18
-3.21233e-53
-8.89424e-53
-3.43833e-52
-1.37015e-51
-5.60222e-51
-2.34983e-50
-1.01091e-49
-4.45945e-49
-2.01652e-48
-9.34355e-48
-4.4342e-47
-2.1542e-46
-1.0707e-45
-5.44084e-45
-2.82453e-44
-1.4967e-43
-8.08739e-43
-4.45139e-42
-2.49269e-41
-1.41818e-40
-8.18512e-40
-4.78418e-39
-2.8265e-38
-1.6843e-37
-1.00988e-36
-6.07606e-36
-3.65713e-35
-2.19438e-34
-1.30746e-33
-7.70139e-33
-4.46787e-32
-2.87636e-31
-1.72792e-30
-9.63757e-30
-4.97074e-29
-2.36492e-28
-1.03876e-27
-4.23992e-27
-1.63082e-26
-6.01942e-26
-2.15293e-25
-7.3442e-25
-2.27628e-24
-5.89971e-24
-1.07364e-23
-3.20071e-24
-8.48846e-25
9.77211e-23
1.48885e-20
4.96708e-18
-3.95703e-53
-1.09721e-52
-4.23461e-52
-1.68489e-51
-6.87801e-51
-2.88003e-50
-1.23676e-49
-5.44519e-49
-2.45722e-48
-1.13608e-47
-5.37913e-47
-2.60691e-46
-1.29238e-45
-6.54953e-45
-3.39038e-44
-1.79114e-43
-9.64776e-43
-5.29257e-42
-2.95335e-41
-1.67408e-40
-9.62461e-40
-5.6026e-39
-3.29579e-38
-1.95503e-37
-1.16659e-36
-6.98322e-36
-4.18042e-35
-2.49386e-34
-1.47662e-33
-8.63824e-33
-4.97331e-32
-3.17283e-31
-1.88602e-30
-1.03853e-29
-5.26968e-29
-2.45339e-28
-1.04611e-27
-4.09908e-27
-1.49381e-26
-5.17019e-26
-1.73298e-25
-5.59703e-25
-1.66074e-24
-4.10909e-24
-6.75087e-24
-8.62255e-25
5.28225e-25
1.48272e-22
4.28661e-20
9.05587e-18
-4.76322e-53
-1.32279e-52
-5.09718e-52
-2.02515e-51
-8.25433e-51
-3.45072e-50
-1.47927e-49
-6.50103e-49
-2.92799e-48
-1.35096e-47
-6.38263e-47
-3.08614e-46
-1.52625e-45
-7.71498e-45
-3.98294e-44
-2.09824e-43
-1.12684e-42
-6.16233e-42
-3.42744e-41
-1.93614e-40
-1.10911e-39
-6.43187e-39
-3.76859e-38
-2.22617e-37
-1.32256e-36
-7.88035e-36
-4.6945e-35
-2.78609e-34
-1.64054e-33
-9.53994e-33
-5.45661e-32
-3.45443e-31
-2.03541e-30
-1.10903e-29
-5.55292e-29
-2.53982e-28
-1.05651e-27
-3.99598e-27
-1.38548e-26
-4.49493e-26
-1.40283e-25
-4.25109e-25
-1.19931e-24
-2.81413e-24
-4.02723e-24
-3.20583e-25
2.26627e-24
2.96177e-22
1.14224e-19
1.29484e-17
-5.6074e-53
-1.55974e-52
-6.00114e-52
-2.38099e-51
-9.69053e-51
-4.04485e-50
-1.73113e-49
-7.59464e-49
-3.41424e-48
-1.57224e-47
-7.41278e-47
-3.57645e-46
-1.76468e-45
-8.89871e-45
-4.58241e-44
-2.40762e-43
-1.28937e-42
-7.03054e-42
-3.89834e-41
-2.19508e-40
-1.25322e-39
-7.24203e-39
-4.22769e-38
-2.48777e-37
-1.47202e-36
-8.73402e-36
-5.18011e-35
-3.06005e-34
-1.79304e-33
-1.03722e-32
-5.89922e-32
-3.71018e-31
-2.1701e-30
-1.17223e-29
-5.80657e-29
-2.61824e-28
-1.0675e-27
-3.91998e-27
-1.3006e-26
-3.96502e-26
-1.1468e-25
-3.22776e-25
-8.58023e-25
-1.89325e-24
-2.21906e-24
-1.39621e-25
3.35728e-24
8.29569e-22
2.20537e-19
1.54118e-17
-6.46068e-53
-1.80008e-52
-6.91581e-52
-2.74025e-51
-1.11371e-50
-4.6418e-50
-1.9835e-49
-8.68744e-49
-3.89868e-48
-1.792e-47
-8.43239e-47
-4.06e-46
-1.99893e-45
-1.00569e-44
-5.16644e-44
-2.70764e-43
-1.44623e-42
-7.86411e-42
-4.34798e-41
-2.4409e-40
-1.38919e-39
-8.00144e-39
-4.65505e-38
-2.7295e-37
-1.60907e-36
-9.51036e-36
-5.61793e-35
-3.30481e-34
-1.92799e-33
-1.11014e-32
-6.28311e-32
-3.92943e-31
-2.28424e-30
-1.22518e-29
-6.01668e-29
-2.68251e-28
-1.07644e-27
-3.8594e-27
-1.23361e-26
-3.55218e-26
-9.50513e-26
-2.45945e-25
-6.08963e-25
-1.25015e-24
-1.08091e-24
-5.652e-26
6.82062e-24
2.32631e-21
3.3389e-19
1.61273e-17
-7.29056e-53
-2.03479e-52
-7.80659e-52
-3.08926e-51
-1.25388e-50
-5.21864e-50
-2.22667e-49
-9.73707e-49
-4.36244e-48
-2.00163e-47
-9.40133e-47
-4.51766e-46
-2.21968e-45
-1.11434e-44
-5.71161e-44
-2.98625e-43
-1.59108e-42
-8.62925e-42
-4.75808e-41
-2.66357e-40
-1.51146e-39
-8.679e-39
-5.03316e-38
-2.94145e-37
-1.72808e-36
-1.01775e-35
-5.98994e-35
-3.51028e-34
-2.03982e-33
-1.16973e-32
-6.59207e-32
-4.10266e-31
-2.37261e-30
-1.26521e-29
-6.17047e-29
-2.72681e-28
-1.08074e-27
-3.80257e-27
-1.17901e-26
-3.22975e-26
-8.01214e-26
-1.88919e-25
-4.29603e-25
-8.09311e-25
-4.17218e-25
-3.27394e-26
2.14058e-23
4.78908e-21
3.9811e-19
1.58694e-17
-8.06326e-53
-2.2544e-52
-8.63739e-52
-3.41384e-51
-1.38385e-50
-5.75176e-50
-2.45063e-49
-1.07003e-48
-4.78636e-48
-2.19245e-47
-1.02794e-46
-4.93041e-46
-2.41774e-45
-1.21128e-44
-6.19513e-44
-3.23176e-43
-1.71784e-42
-9.29386e-42
-5.11143e-41
-2.85376e-40
-1.6149e-39
-9.24635e-39
-5.34622e-38
-3.11478e-37
-1.82408e-36
-1.07077e-35
-6.28072e-35
-3.66794e-34
-2.12387e-33
-1.21347e-32
-6.81289e-32
-4.22218e-31
-2.43101e-30
-1.29015e-29
-6.25742e-29
-2.74618e-28
-1.07811e-27
-3.73876e-27
-1.13173e-26
-2.9736e-26
-6.87833e-26
-1.46985e-25
-3.02074e-25
-5.12374e-25
-1.03951e-25
2.5147e-43
6.00825e-23
7.36971e-21
4.20094e-19
1.48237e-17
-8.74628e-53
-2.4497e-52
-9.37325e-52
-3.70029e-51
-1.49811e-50
-6.21859e-50
-2.6459e-49
-1.15362e-48
-5.15243e-48
-2.35635e-47
-1.10292e-46
-5.28068e-46
-2.58469e-45
-1.2924e-44
-6.59647e-44
-3.43377e-43
-1.82115e-42
-9.8299e-42
-5.39318e-41
-3.0035e-40
-1.6952e-39
-9.67995e-39
-5.58131e-38
-3.24238e-37
-1.89317e-36
-1.10794e-35
-6.47853e-35
-3.77144e-34
-2.17674e-33
-1.23959e-32
-6.93631e-32
-4.2827e-31
-2.45658e-30
-1.29854e-29
-6.2701e-29
-2.73695e-28
-1.06674e-27
-3.65904e-27
-1.08736e-26
-2.76292e-26
-6.01058e-26
-1.16325e-25
-2.12464e-25
-3.15604e-25
-2.94988e-26
4.66943e-25
1.18374e-22
8.88884e-21
4.08278e-19
1.26578e-17
-9.31101e-53
-2.61249e-52
-9.98317e-52
-3.93651e-51
-1.59184e-50
-6.59934e-50
-2.8042e-49
-1.22095e-48
-5.44515e-48
-2.4864e-47
-1.16191e-46
-5.55371e-46
-2.7135e-45
-1.35428e-44
-6.89889e-44
-3.5839e-43
-1.89674e-42
-1.02154e-41
-5.59184e-41
-3.10674e-40
-1.74916e-39
-9.96265e-39
-5.72924e-38
-3.31933e-37
-1.93273e-36
-1.12788e-35
-6.57607e-35
-3.81701e-34
-2.19652e-33
-1.24712e-32
-6.95766e-32
-4.28171e-31
-2.448e-30
-1.28967e-29
-6.20481e-29
-2.69706e-28
-1.04543e-27
-3.55675e-27
-1.04241e-26
-2.58059e-26
-5.33294e-26
-9.39088e-26
-1.50156e-25
-1.87488e-25
-9.40459e-27
1.63917e-24
1.67118e-22
9.11599e-21
3.63896e-19
9.70384e-18
-9.73506e-53
-2.73622e-52
-1.04425e-51
-4.11292e-51
-1.66121e-50
-6.87852e-50
-2.91908e-49
-1.26926e-48
-5.65264e-48
-2.57733e-47
-1.20254e-46
-5.73857e-46
-2.79905e-45
-1.3945e-44
-7.09057e-44
-3.67635e-43
-1.94175e-42
-1.04359e-41
-5.70011e-41
-3.15976e-40
-1.77487e-39
-1.00848e-38
-5.78516e-38
-3.34321e-37
-1.94158e-36
-1.13004e-35
-6.57091e-35
-3.80365e-34
-2.18286e-33
-1.23599e-32
-6.87705e-32
-4.21956e-31
-2.40556e-30
-1.26369e-29
-6.06178e-29
-2.62613e-28
-1.01369e-27
-3.42786e-27
-9.94358e-27
-2.41341e-26
-4.78567e-26
-7.73884e-26
-1.07185e-25
-1.06079e-25
-3.08438e-27
2.85571e-24
1.89154e-22
8.68023e-21
2.8531e-19
6.71469e-18
-1.00041e-52
-2.8165e-52
-1.07347e-51
-4.22319e-51
-1.70375e-50
-7.04608e-50
-2.98642e-49
-1.29683e-48
-5.76752e-48
-2.62594e-47
-1.22339e-46
-5.82892e-46
-2.83847e-45
-1.41173e-44
-7.16541e-44
-3.70828e-43
-1.95484e-42
-1.04853e-41
-5.71524e-41
-3.16137e-40
-1.77185e-39
-1.00448e-38
-5.74873e-38
-3.3142e-37
-1.92002e-36
-1.11471e-35
-6.46546e-35
-3.73313e-34
-2.13699e-33
-1.20699e-32
-6.69926e-32
-4.09942e-31
-2.33112e-30
-1.22155e-29
-5.84506e-29
-2.52548e-28
-9.71702e-28
-3.271e-27
-9.41668e-27
-2.25191e-26
-4.32378e-26
-6.49851e-26
-7.76916e-26
-5.61542e-26
6.07142e-27
3.50972e-24
1.83895e-22
7.22188e-21
1.82927e-19
4.17674e-18
-1.01131e-52
-2.85146e-52
-1.08532e-51
-4.26471e-51
-1.71844e-50
-7.09811e-50
-3.00468e-49
-1.30306e-48
-5.78735e-48
-2.63127e-47
-1.22408e-46
-5.82333e-46
-2.83126e-45
-1.40582e-44
-7.12322e-44
-3.67988e-43
-1.9363e-42
-1.03659e-41
-5.63903e-41
-3.11285e-40
-1.741e-39
-9.84857e-39
-5.62396e-38
-3.23493e-37
-1.86977e-36
-1.08299e-35
-6.26662e-35
-3.60975e-34
-2.0615e-33
-1.16165e-32
-6.4332e-32
-3.9269e-31
-2.22789e-30
-1.16491e-29
-5.56213e-29
-2.39795e-28
-9.20297e-28
-3.0873e-27
-8.83752e-27
-2.09014e-26
-3.91518e-26
-5.53901e-26
-5.74254e-26
-2.71506e-26
2.33122e-26
3.40996e-24
1.56354e-22
4.66238e-21
8.88977e-20
2.64282e-18
-1.00664e-52
-2.84189e-52
-1.08008e-51
-4.23875e-51
-1.70582e-50
-7.03699e-50
-2.97494e-49
-1.28844e-48
-5.71466e-48
-2.59457e-47
-1.20526e-46
-5.72521e-46
-2.77924e-45
-1.37778e-44
-6.96951e-44
-3.59428e-43
-1.88789e-42
-1.00882e-41
-5.47756e-41
-3.01782e-40
-1.68446e-39
-9.50917e-39
-5.41871e-38
-3.11018e-37
-1.79373e-36
-1.03665e-35
-5.9851e-35
-3.43991e-34
-1.96017e-33
-1.10217e-32
-6.09119e-32
-3.70962e-31
-2.1002e-30
-1.09598e-29
-5.22323e-29
-2.24763e-28
-8.60823e-28
-2.87997e-27
-8.20845e-27
-1.92528e-26
-3.53821e-26
-4.76752e-26
-4.33559e-26
-1.16904e-26
2.67984e-26
2.77597e-24
9.8524e-23
2.07369e-21
2.81268e-20
2.33196e-18
-9.87746e-53
-2.79107e-52
-1.05902e-51
-4.15023e-51
-1.66788e-50
-6.87101e-50
-2.90076e-49
-1.25457e-48
-5.55657e-48
-2.51918e-47
-1.16852e-46
-5.54234e-46
-2.68632e-45
-1.3296e-44
-6.71483e-44
-3.45712e-43
-1.81271e-42
-9.66924e-42
-5.24047e-41
-2.88178e-40
-1.60544e-39
-9.04523e-39
-5.144e-38
-2.94646e-37
-1.69579e-36
-9.77987e-36
-5.63448e-35
-3.23158e-34
-1.83764e-33
-1.03118e-32
-5.68791e-32
-3.4566e-31
-1.95314e-30
-1.0174e-29
-4.84051e-29
-2.0795e-28
-7.95023e-28
-2.65399e-27
-7.53908e-27
-1.75659e-26
-3.18005e-26
-4.1207e-26
-3.33542e-26
-4.19098e-27
1.78351e-26
1.55906e-24
3.9602e-23
6.23678e-22
1.67217e-20
3.53597e-18
-9.5676e-53
-2.70455e-52
-1.02423e-51
-4.0073e-51
-1.6079e-50
-6.61364e-50
-2.78784e-49
-1.20391e-48
-5.32412e-48
-2.41013e-47
-1.11623e-46
-5.28615e-46
-2.55813e-45
-1.26413e-44
-6.37379e-44
-3.27608e-43
-1.71486e-42
-9.13137e-42
-4.94016e-41
-2.7117e-40
-1.50789e-39
-8.47955e-39
-4.81302e-38
-2.75149e-37
-1.58044e-36
-9.09643e-36
-5.23022e-35
-2.99373e-34
-1.69905e-33
-9.51593e-33
-5.23943e-32
-3.1776e-31
-1.7922e-30
-9.31988e-30
-4.42719e-29
-1.89906e-28
-7.24947e-28
-2.41563e-27
-6.84178e-27
-1.58515e-26
-2.83458e-26
-3.55728e-26
-2.59545e-26
-1.26246e-27
3.93641e-27
4.13989e-25
1.22622e-23
4.15414e-22
2.11418e-20
8.29006e-18
-9.16395e-53
-2.58957e-52
-9.78434e-52
-3.82062e-51
-1.53012e-50
-6.2823e-50
-2.64351e-49
-1.13962e-48
-5.03132e-48
-2.2738e-47
-1.05135e-46
-4.97073e-46
-2.40153e-45
-1.18479e-44
-5.96381e-44
-3.0602e-43
-1.59913e-42
-8.50048e-42
-4.59079e-41
-2.51545e-40
-1.39624e-39
-7.83732e-39
-4.44024e-38
-2.53362e-37
-1.45253e-36
-8.34425e-36
-4.78855e-35
-2.73571e-34
-1.54971e-33
-8.66382e-33
-4.76214e-32
-2.88255e-31
-1.62295e-30
-8.42621e-30
-3.99689e-29
-1.71227e-28
-6.52733e-28
-2.17107e-27
-6.1316e-27
-1.41335e-26
-2.50026e-26
-3.05191e-26
-2.01743e-26
-5.42392e-28
7.47295e-28
1.4099e-25
9.34196e-24
5.53731e-22
3.53356e-20
2.25496e-17
-8.69811e-53
-2.45498e-52
-9.24938e-52
-3.60285e-51
-1.43955e-50
-5.89734e-50
-2.47626e-49
-1.06534e-48
-4.69412e-48
-2.11736e-47
-9.77202e-47
-4.61178e-46
-2.22414e-45
-1.09534e-44
-5.50393e-44
-2.81931e-43
-1.47069e-42
-7.80409e-42
-4.20732e-41
-2.30127e-40
-1.27509e-39
-7.14448e-39
-4.04041e-38
-2.30128e-37
-1.31692e-36
-7.55132e-36
-4.32555e-35
-2.46669e-34
-1.39482e-33
-7.78442e-33
-4.27186e-32
-2.58102e-31
-1.45085e-30
-7.52209e-30
-3.56335e-29
-1.52456e-28
-5.80311e-28
-1.92645e-27
-5.42482e-27
-1.24413e-26
-2.17839e-26
-2.59011e-26
-1.53811e-26
-3.29981e-28
1.39317e-27
1.66149e-25
1.32162e-23
9.30252e-22
7.00046e-20
5.84138e-17
-8.20309e-53
-2.31039e-52
-8.67339e-52
-3.36779e-51
-1.3416e-50
-5.48058e-50
-2.29513e-49
-9.84919e-49
-4.32938e-48
-1.94839e-47
-8.97258e-47
-4.22564e-46
-2.03381e-45
-9.99648e-45
-5.01354e-44
-2.56334e-43
-1.33471e-42
-7.06975e-42
-3.80459e-41
-2.07729e-40
-1.14894e-39
-6.42624e-39
-3.62778e-38
-2.0626e-37
-1.17824e-36
-6.74416e-36
-3.85641e-35
-2.19535e-34
-1.23931e-33
-6.90547e-33
-3.78416e-32
-2.28252e-31
-1.28115e-30
-6.63301e-30
-3.13789e-29
-1.3406e-28
-5.09441e-28
-1.68756e-27
-4.73705e-27
-1.08057e-26
-1.87176e-26
-2.16436e-26
-1.12063e-26
-2.69208e-28
3.08853e-27
2.69875e-25
2.3478e-23
1.70932e-21
1.51665e-19
1.38699e-16
-7.72263e-53
-2.16659e-52
-8.09602e-52
-3.13063e-51
-1.24225e-50
-5.05601e-50
-2.11e-49
-9.0254e-49
-3.95522e-48
-1.77493e-47
-8.15192e-47
-3.82947e-46
-1.83874e-45
-9.01723e-45
-4.51266e-44
-2.30247e-43
-1.1965e-42
-6.32542e-42
-3.39765e-41
-1.8517e-40
-1.02233e-39
-5.708e-39
-3.21671e-38
-1.82573e-37
-1.04115e-36
-5.94947e-36
-3.39633e-35
-1.93027e-34
-1.08794e-33
-6.05287e-33
-3.31244e-32
-1.99466e-31
-1.11787e-30
-5.77908e-30
-2.72984e-29
-1.16439e-28
-4.41653e-28
-1.45944e-27
-4.08197e-27
-9.25486e-27
-1.58356e-26
-1.77096e-26
-7.44434e-27
-1.4079e-28
6.25169e-27
4.91635e-25
4.43562e-23
3.20499e-21
3.47995e-19
3.01355e-16
-7.29831e-53
-2.03479e-52
-7.55832e-52
-2.90721e-51
-1.14775e-50
-4.64897e-50
-1.93139e-49
-8.22665e-49
-3.59105e-48
-1.60563e-47
-7.34933e-47
-3.44154e-46
-1.64761e-45
-8.05773e-45
-4.0221e-44
-2.0472e-43
-1.06141e-42
-5.59906e-42
-3.00126e-41
-1.63242e-40
-8.99535e-40
-5.01308e-39
-2.81999e-38
-1.59775e-37
-9.09574e-37
-5.18878e-36
-2.95714e-35
-1.67791e-34
-9.44198e-34
-5.24514e-33
-2.86644e-32
-1.72308e-31
-9.64105e-31
-4.97617e-30
-2.3467e-29
-9.99151e-29
-3.78161e-28
-1.24609e-27
-3.47057e-27
-7.81204e-27
-1.3166e-26
-1.40784e-26
-4.19289e-27
-7.73458e-29
1.26069e-26
9.33267e-25
8.38209e-23
6.04889e-21
8.44843e-19
6.00726e-16
-6.96487e-53
-1.92465e-52
-7.09487e-52
-2.7105e-51
-1.06314e-50
-4.27961e-50
-1.76756e-49
-7.4876e-49
-3.25177e-48
-1.44704e-47
-6.5944e-47
-3.0755e-46
-1.46685e-45
-7.14889e-45
-3.55701e-44
-1.8051e-43
-9.33305e-43
-4.91062e-42
-2.62588e-41
-1.425e-40
-7.83549e-40
-4.35775e-39
-2.44654e-38
-1.38355e-37
-7.86195e-37
-4.47696e-36
-2.54701e-35
-1.44273e-34
-8.10514e-34
-4.49534e-33
-2.45314e-32
-1.4719e-31
-8.22115e-31
-4.23581e-30
-1.99387e-29
-8.4717e-29
-3.19838e-28
-1.0504e-27
-2.91087e-27
-6.49419e-27
-1.07284e-26
-1.07238e-26
-1.2037e-27
-1.84776e-29
2.34545e-26
1.76979e-24
1.57064e-22
1.17656e-20
2.21992e-18
1.10008e-15
-6.75305e-53
-1.84461e-52
-6.73552e-52
-2.55155e-51
-9.92641e-51
-3.96449e-50
-1.62518e-49
-6.83589e-49
-2.9491e-48
-1.30426e-47
-5.90971e-47
-2.74161e-46
-1.30124e-45
-6.31336e-45
-3.12838e-44
-1.5816e-43
-8.14917e-43
-4.27407e-42
-2.27878e-41
-1.23328e-40
-6.76415e-40
-3.75302e-39
-2.10235e-38
-1.1864e-37
-6.7281e-37
-3.82386e-36
-2.17136e-35
-1.2277e-34
-6.88484e-34
-3.81204e-33
-2.07705e-32
-1.24373e-31
-6.93332e-31
-3.56526e-30
-1.67472e-29