/*--------------------------------*- C++ -*----------------------------------*\
  =========                 |
  \\      /  F ield         | OpenFOAM: The Open Source CFD Toolbox
   \\    /   O peration     | Website:  https://openfoam.org
    \\  /    A nd           | Version:  9
     \\/     M anipulation  |
\*---------------------------------------------------------------------------*/
FoamFile
{
    format      ascii;
    class       volScalarField;
    location    "0.06";
    object      p;
}
// * * * * * * * * * * * * * * * * * * * * * * * * * * * * * * * * * * * * * //

dimensions      [1 -1 -2 0 0 0 0];

internalField   nonuniform List<scalar> 
5000
(
0.948123
0.948851
0.949407
0.949972
0.950536
0.951095
0.951643
0.952176
0.95269
0.953182
0.953649
0.954089
0.954503
0.954895
0.955269
0.955634
0.956
0.956382
0.956795
0.957255
0.957777
0.958372
0.959043
0.959783
0.960569
0.961363
0.962108
0.962741
0.9632
0.963446
0.963483
0.963308
0.963053
0.96283
0.96267
0.962476
0.962052
0.961185
0.959768
0.957867
0.955667
0.953313
0.950753
0.947724
0.943949
0.939377
0.934215
0.928657
0.922576
0.915638
0.946266
0.946989
0.947507
0.948016
0.94852
0.94902
0.949511
0.94999
0.950452
0.950892
0.951309
0.951699
0.952064
0.952406
0.95273
0.953043
0.953357
0.953684
0.95404
0.954439
0.954898
0.955426
0.956026
0.956689
0.957393
0.958097
0.958747
0.959276
0.959626
0.959757
0.959661
0.959337
0.95893
0.958548
0.958218
0.957841
0.957221
0.956155
0.954543
0.952452
0.950067
0.947529
0.944787
0.941586
0.937659
0.932964
0.927713
0.922109
0.916043
0.909215
0.944377
0.94506
0.94554
0.946
0.946458
0.946913
0.947358
0.94779
0.948204
0.948598
0.948968
0.949315
0.949637
0.949939
0.950224
0.950499
0.950774
0.95106
0.951372
0.951723
0.952125
0.952586
0.953107
0.953678
0.954276
0.954862
0.955386
0.955791
0.956025
0.956058
0.955875
0.955474
0.954978
0.954465
0.953945
0.953328
0.952458
0.95118
0.949422
0.947235
0.944746
0.942041
0.939067
0.935637
0.931572
0.926851
0.921614
0.915985
0.909903
0.903188
0.942573
0.943171
0.943581
0.943991
0.944407
0.944819
0.945221
0.945608
0.945978
0.946328
0.946657
0.946962
0.947246
0.94751
0.947759
0.947998
0.948237
0.948486
0.948757
0.949061
0.949408
0.949803
0.950245
0.950723
0.951213
0.951679
0.952077
0.952358
0.95248
0.952422
0.952164
0.951697
0.951124
0.950489
0.949785
0.948938
0.947831
0.946358
0.944472
0.942203
0.939621
0.936764
0.933582
0.929953
0.925777
0.921047
0.915841
0.910215
0.904151
0.897581
0.940807
0.941346
0.941702
0.942062
0.942426
0.942785
0.943135
0.943473
0.943797
0.944102
0.944389
0.944654
0.9449
0.945127
0.94534
0.945544
0.945746
0.945956
0.946183
0.946438
0.946728
0.947056
0.947421
0.947809
0.948198
0.948554
0.948838
0.949008
0.949029
0.948885
0.948549
0.948006
0.947344
0.946585
0.945714
0.944668
0.943364
0.941725
0.939715
0.937347
0.934658
0.931662
0.928316
0.924543
0.920278
0.915521
0.910323
0.904718
0.898709
0.892306
0.938982
0.939474
0.939792
0.940117
0.940441
0.940758
0.941066
0.941362
0.941644
0.941909
0.942156
0.942384
0.942593
0.942785
0.942962
0.943131
0.943296
0.943466
0.943649
0.943854
0.944087
0.94435
0.944639
0.944942
0.945236
0.945491
0.94567
0.945738
0.945667
0.945441
0.945028
0.944405
0.943649
0.942768
0.941744
0.940527
0.939054
0.937269
0.935141
0.932668
0.929869
0.926746
0.923269
0.919383
0.915044
0.910254
0.905052
0.899476
0.893543
0.88729
0.93716
0.937611
0.93789
0.938174
0.938459
0.938737
0.939007
0.939265
0.93951
0.939739
0.93995
0.940143
0.940319
0.940477
0.940621
0.940755
0.940883
0.941014
0.941154
0.94131
0.941487
0.941686
0.941904
0.942126
0.942332
0.942492
0.942575
0.942549
0.942391
0.942089
0.941599
0.940895
0.940045
0.939048
0.937884
0.936517
0.934899
0.932985
0.930744
0.928168
0.925262
0.922027
0.918442
0.914463
0.91006
0.905236
0.900028
0.894478
0.888616
0.882482
0.935345
0.93576
0.936002
0.936248
0.936494
0.936735
0.936967
0.937189
0.937398
0.937592
0.93777
0.937931
0.938074
0.938201
0.938313
0.938413
0.938507
0.938599
0.938696
0.938805
0.938928
0.939067
0.939216
0.939363
0.939486
0.93956
0.939553
0.939441
0.939202
0.938826
0.938263
0.937477
0.936536
0.935429
0.93414
0.932641
0.930896
0.928866
0.926522
0.923846
0.920842
0.917509
0.91383
0.909772
0.905311
0.900452
0.895233
0.889697
0.883881
0.877827
0.933532
0.933914
0.934121
0.934331
0.934542
0.934747
0.934944
0.935131
0.935307
0.935469
0.935615
0.935745
0.935858
0.935955
0.936036
0.936105
0.936164
0.93622
0.936276
0.936338
0.93641
0.936492
0.936577
0.936654
0.936701
0.936694
0.936605
0.936413
0.936099
0.935654
0.935019
0.934154
0.933124
0.931916
0.930516
0.928901
0.927044
0.924911
0.92247
0.919703
0.916609
0.913189
0.909429
0.905301
0.900785
0.89589
0.890651
0.885112
0.879314
0.873296
0.931721
0.932072
0.932245
0.932422
0.932599
0.932771
0.932935
0.93309
0.933234
0.933365
0.933482
0.933584
0.933669
0.933737
0.93379
0.933828
0.933855
0.933874
0.933891
0.93391
0.933934
0.933962
0.933988
0.933999
0.933976
0.933895
0.933731
0.933465
0.933081
0.932572
0.931868
0.930928
0.929814
0.928513
0.927012
0.925296
0.923342
0.921117
0.918588
0.915737
0.912562
0.909065
0.905234
0.901042
0.896475
0.891542
0.886273
0.880712
0.874902
0.868876
0.929909
0.930232
0.930374
0.930519
0.930664
0.930804
0.930938
0.931063
0.931178
0.931281
0.931371
0.931446
0.931504
0.931546
0.931571
0.931581
0.931577
0.931563
0.931543
0.931521
0.931499
0.931477
0.931448
0.931399
0.931312
0.931163
0.930931
0.930596
0.930148
0.929578
0.92881
0.927798
0.926608
0.925222
0.923632
0.921827
0.919788
0.917481
0.914874
0.911948
0.908702
0.905137
0.901241
0.896992
0.892376
0.887402
0.882094
0.876493
0.870641
0.864564
0.928096
0.928391
0.928505
0.92862
0.928736
0.928847
0.928952
0.929049
0.929137
0.929214
0.929279
0.929329
0.929363
0.92938
0.92938
0.929363
0.92933
0.929284
0.929229
0.929169
0.929105
0.929037
0.928958
0.928854
0.928709
0.928498
0.928203
0.927807
0.9273
0.926674
0.925845
0.924767
0.923506
0.922045
0.920376
0.918494
0.91638
0.914002
0.911326
0.908334
0.905026
0.901401
0.897447
0.893145
0.888482
0.883465
0.878111
0.872457
0.866536
0.860371
0.926279
0.926549
0.926636
0.926724
0.926813
0.926897
0.926976
0.927047
0.927111
0.927164
0.927205
0.927232
0.927244
0.927239
0.927215
0.927173
0.927113
0.927038
0.926951
0.926856
0.926753
0.926643
0.926517
0.926365
0.926166
0.9259
0.925548
0.925096
0.924535
0.923858
0.922974
0.921835
0.92051
0.918981
0.917245
0.915297
0.913119
0.910679
0.907943
0.904895
0.901534
0.897857
0.893852
0.8895
0.884792
0.879728
0.874324
0.868605
0.862596
0.856311
0.924458
0.924703
0.924766
0.924829
0.924893
0.924953
0.925008
0.925057
0.925097
0.925129
0.925149
0.925155
0.925147
0.925121
0.925076
0.925011
0.924926
0.924825
0.924708
0.92458
0.924442
0.924293
0.924127
0.92393
0.923684
0.923368
0.922965
0.922463
0.921854
0.921129
0.920196
0.919003
0.91762
0.916033
0.914239
0.912234
0.910002
0.90751
0.904725
0.90163
0.898224
0.894503
0.890454
0.886058
0.881304
0.876193
0.870733
0.864942
0.858832
0.852407
0.92263
0.922852
0.922894
0.922935
0.922977
0.923015
0.923049
0.923076
0.923097
0.923108
0.923109
0.923097
0.92307
0.923026
0.922961
0.922876
0.922769
0.922643
0.922499
0.922342
0.922172
0.921989
0.921785
0.921549
0.921261
0.920901
0.920453
0.919906
0.919254
0.918489
0.917511
0.916269
0.914838
0.913201
0.911357
0.909306
0.907029
0.904495
0.901669
0.898537
0.895095
0.891338
0.887252
0.882818
0.878023
0.872861
0.867343
0.861477
0.855258
0.848678
0.920801
0.920999
0.921022
0.921043
0.921066
0.921085
0.921099
0.921107
0.921109
0.921103
0.921087
0.921059
0.921015
0.920954
0.920872
0.920768
0.920641
0.920493
0.920325
0.920141
0.919942
0.919728
0.919492
0.919221
0.918896
0.918498
0.918011
0.917425
0.916735
0.915934
0.914918
0.913635
0.912161
0.910483
0.9086
0.906511
0.904199
0.901631
0.898776
0.895616
0.892147
0.88836
0.884245
0.87978
0.874948
0.869739
0.864161
0.858217
0.851889
0.84515
0.918972
0.919149
0.919153
0.919156
0.919161
0.919162
0.919158
0.91915
0.919135
0.919113
0.919082
0.919039
0.918981
0.918905
0.918808
0.918687
0.918543
0.918374
0.918185
0.917977
0.917753
0.917512
0.917248
0.916946
0.91659
0.916159
0.915638
0.915018
0.914297
0.913464
0.912416
0.911098
0.909591
0.907881
0.905967
0.90385
0.901511
0.89892
0.896044
0.892867
0.889378
0.885571
0.881433
0.876945
0.872083
0.866831
0.861193
0.855172
0.848736
0.841841
0.917144
0.917302
0.917289
0.917275
0.917263
0.917247
0.917227
0.917204
0.917174
0.917138
0.917094
0.917038
0.916967
0.916878
0.916768
0.916633
0.916473
0.916287
0.916079
0.91585
0.915604
0.91534
0.91505
0.914724
0.914341
0.913882
0.913333
0.912685
0.911937
0.911079
0.910004
0.90866
0.907127
0.905393
0.903457
0.90132
0.898964
0.896358
0.893472
0.890287
0.886789
0.88297
0.878817
0.874313
0.869428
0.86414
0.858448
0.852349
0.845809
0.838767
0.915315
0.915457
0.915428
0.915398
0.915371
0.91534
0.915306
0.915269
0.915226
0.915178
0.915122
0.915055
0.914973
0.914874
0.914753
0.914606
0.914432
0.914232
0.914007
0.91376
0.913495
0.91321
0.9129
0.912552
0.912147
0.911666
0.911094
0.910424
0.909654
0.908777
0.907681
0.906317
0.904767
0.903018
0.90107
0.898921
0.896556
0.893945
0.891059
0.887876
0.88438
0.880557
0.876398
0.871884
0.866985
0.861671
0.855932
0.84976
0.843121
0.83594
0.913483
0.913611
0.913568
0.913525
0.913485
0.913441
0.913395
0.913345
0.913291
0.913232
0.913166
0.91309
0.913
0.912892
0.912761
0.912605
0.912421
0.912208
0.911969
0.911707
0.911425
0.911123
0.910796
0.910431
0.910009
0.90951
0.90892
0.908233
0.907447
0.906555
0.905446
0.90407
0.902511
0.900755
0.898803
0.896653
0.894288
0.891681
0.888803
0.885632
0.882148
0.878335
0.874179
0.869664
0.864759
0.859428
0.853652
0.847415
0.840683
0.833376
0.911649
0.911764
0.91171
0.911655
0.911603
0.911549
0.911492
0.911432
0.911368
0.911301
0.911227
0.911143
0.911046
0.910931
0.910794
0.91063
0.910437
0.910215
0.909964
0.909689
0.909394
0.909079
0.908738
0.908359
0.907924
0.907412
0.90681
0.906111
0.905315
0.904414
0.903297
0.901916
0.900357
0.898604
0.896657
0.894513
0.892158
0.889564
0.886704
0.883555
0.880094
0.876301
0.872161
0.867655
0.862752
0.857417
0.851617
0.845327
0.838514
0.831094
0.909812
0.909917
0.909853
0.909789
0.909727
0.909663
0.909597
0.909529
0.909458
0.909383
0.909302
0.909213
0.909111
0.908992
0.90885
0.908681
0.908482
0.908252
0.907993
0.907708
0.907402
0.907076
0.906724
0.906336
0.905892
0.905372
0.904762
0.904057
0.903255
0.90235
0.901232
0.899855
0.898302
0.896561
0.894628
0.892501
0.890165
0.887594
0.884762
0.881643
0.878215
0.874455
0.870344
0.86586
0.860971
0.855643
0.849834
0.843507
0.836627
0.829111
0.907973
0.90807
0.907998
0.907926
0.907856
0.907785
0.907711
0.907636
0.907559
0.907479
0.907393
0.9073
0.907195
0.907073
0.906928
0.906756
0.906554
0.906319
0.906054
0.905762
0.905448
0.905113
0.904755
0.90436
0.903911
0.903388
0.902776
0.902068
0.901266
0.900363
0.89925
0.897883
0.896346
0.894625
0.892715
0.890614
0.888306
0.885769
0.882975
0.879897
0.876513
0.872798
0.868729
0.86428
0.859419
0.854112
0.84831
0.841965
0.835037
0.827444
0.906131
0.906222
0.906143
0.906065
0.90599
0.905913
0.905833
0.905753
0.905671
0.905587
0.905499
0.905404
0.905297
0.905174
0.905029
0.904856
0.904652
0.904416
0.904147
0.903851
0.903531
0.903191
0.902828
0.902431
0.901981
0.901458
0.900848
0.900144
0.899346
0.898449
0.897348
0.895999
0.894486
0.892793
0.890915
0.888849
0.88658
0.884087
0.881342
0.878317
0.874987
0.871329
0.867316
0.862917
0.8581
0.852828
0.847051
0.840709
0.833755
0.826107
0.904285
0.904372
0.904289
0.904207
0.904128
0.904046
0.903964
0.90388
0.903795
0.903709
0.903619
0.903523
0.903416
0.903294
0.90315
0.902979
0.902777
0.902541
0.902271
0.901973
0.901651
0.901308
0.900944
0.900547
0.900099
0.899582
0.898978
0.898282
0.897493
0.896609
0.895524
0.894201
0.892719
0.891064
0.889227
0.887204
0.884984
0.882545
0.879861
0.876901
0.873638
0.870049
0.866107
0.861775
0.857017
0.851799
0.846064
0.839748
0.832794
0.825116
0.902435
0.902519
0.902435
0.902351
0.902269
0.902186
0.902101
0.902016
0.90193
0.901843
0.901753
0.901657
0.901552
0.901433
0.901293
0.901126
0.900927
0.900693
0.900426
0.900128
0.899806
0.899464
0.8991
0.898706
0.898265
0.897756
0.897163
0.89648
0.895706
0.894838
0.893777
0.892485
0.891043
0.889433
0.887647
0.885677
0.883515
0.881141
0.878529
0.875647
0.872465
0.86896
0.865103
0.860854
0.856175
0.851029
0.845358
0.839092
0.832165
0.824485
0.900581
0.900664
0.90058
0.900496
0.900415
0.900332
0.900247
0.900161
0.900075
0.899989
0.8999
0.899807
0.899705
0.89959
0.899455
0.899294
0.899101
0.898873
0.89861
0.898316
0.897996
0.897656
0.897296
0.896909
0.896477
0.89598
0.895403
0.894737
0.893982
0.893136
0.892103
0.89085
0.889455
0.887899
0.886172
0.884265
0.882169
0.87987
0.877341
0.87455
0.871465
0.868058
0.864303
0.860156
0.855576
0.850523
0.844939
0.83875
0.83188
0.824231
0.898723
0.898807
0.898726
0.898644
0.898565
0.898483
0.8984
0.898316
0.898232
0.898147
0.898061
0.897971
0.897874
0.897764
0.897636
0.897482
0.897298
0.897078
0.896822
0.896534
0.896219
0.895884
0.895531
0.895152
0.894732
0.894252
0.893694
0.89305
0.892319
0.891499
0.8905
0.889292
0.887951
0.886458
0.884799
0.882964
0.880945
0.878729
0.876294
0.873607
0.870632
0.867341
0.863704
0.85968
0.85522
0.850284
0.844812
0.838728
0.831947
0.824366
0.896861
0.896948
0.896871
0.896794
0.896719
0.896641
0.896561
0.89648
0.896399
0.896318
0.896235
0.89615
0.896058
0.895955
0.895835
0.895691
0.895517
0.895307
0.895061
0.894782
0.894475
0.894147
0.893802
0.893434
0.89303
0.892569
0.892035
0.891417
0.890714
0.889926
0.888966
0.887809
0.886529
0.885105
0.883523
0.88177
0.879838
0.877715
0.875384
0.872813
0.869963
0.866804
0.863304
0.859421
0.855105
0.850312
0.84498
0.839031
0.832375
0.824901
0.894995
0.895088
0.895017
0.894946
0.894877
0.894804
0.89473
0.894654
0.894577
0.8945
0.894422
0.894342
0.894257
0.894162
0.894052
0.893919
0.893757
0.89356
0.893326
0.893057
0.89276
0.892443
0.892108
0.891754
0.891367
0.890929
0.890422
0.889835
0.889166
0.888414
0.887499
0.886398
0.885184
0.883837
0.88234
0.880679
0.878844
0.876825
0.874608
0.872162
0.869451
0.86644
0.863095
0.859374
0.855227
0.850603
0.845441
0.839661
0.833168
0.825845
0.893126
0.893226
0.893164
0.893101
0.893039
0.892974
0.892907
0.892837
0.892766
0.892695
0.892622
0.892549
0.892471
0.892385
0.892285
0.892164
0.892016
0.891834
0.891614
0.89136
0.891075
0.89077
0.890448
0.890109
0.889743
0.889331
0.888854
0.888302
0.88767
0.886959
0.886094
0.885055
0.883913
0.882649
0.881245
0.879686
0.877958
0.876054
0.87396
0.871652
0.869092
0.866244
0.863072
0.859534
0.855578
0.851152
0.846192
0.840617
0.834328
0.827202
0.891252
0.891362
0.891311
0.891258
0.891206
0.89115
0.891091
0.891029
0.890965
0.8909
0.890835
0.890768
0.890698
0.890622
0.890534
0.890427
0.890294
0.890128
0.889925
0.889687
0.889418
0.889127
0.88882
0.888499
0.888155
0.887771
0.887328
0.886814
0.886225
0.885559
0.884748
0.883777
0.882712
0.881537
0.880233
0.878784
0.877175
0.875396
0.873438
0.871278
0.868881
0.86621
0.863229
0.859894
0.856153
0.851952
0.847227
0.841894
0.835852
0.828975
0.889376
0.889497
0.889458
0.889418
0.889377
0.889332
0.889283
0.88923
0.889175
0.889118
0.88906
0.889001
0.88894
0.888873
0.888797
0.888704
0.888588
0.88844
0.888257
0.888037
0.887786
0.887512
0.887222
0.88692
0.8866
0.886246
0.885841
0.885369
0.884826
0.88421
0.88346
0.882561
0.881579
0.880497
0.8793
0.877968
0.876487
0.874846
0.873034
0.871034
0.868813
0.866333
0.863559
0.860446
0.856944
0.852997
0.848538
0.843486
0.837737
0.831162
0.887496
0.887631
0.887606
0.887579
0.887552
0.88752
0.887482
0.88744
0.887395
0.887346
0.887297
0.887246
0.887194
0.887138
0.887074
0.886996
0.886897
0.88677
0.886608
0.886409
0.886178
0.885923
0.885652
0.885372
0.885077
0.884756
0.88439
0.883964
0.883471
0.88291
0.882224
0.881403
0.880508
0.879525
0.878439
0.877232
0.875888
0.874395
0.872742
0.870914
0.86888
0.866606
0.864055
0.861184
0.857944
0.854277
0.850119
0.845386
0.839975
0.833757
0.885612
0.885763
0.885754
0.885743
0.885731
0.885713
0.885688
0.885658
0.885624
0.885586
0.885545
0.885504
0.885461
0.885415
0.885364
0.885302
0.885221
0.885114
0.884975
0.8848
0.884592
0.884359
0.884109
0.883851
0.883584
0.883296
0.882971
0.882594
0.882155
0.881653
0.881036
0.880299
0.879496
0.878616
0.877646
0.876569
0.875371
0.874036
0.872554
0.870909
0.869075
0.867021
0.864709
0.8621
0.859144
0.855785
0.851958
0.847583
0.842558
0.836752
0.883725
0.883893
0.883902
0.883908
0.883913
0.88391
0.883901
0.883884
0.883862
0.883835
0.883805
0.883773
0.883739
0.883704
0.883666
0.883619
0.883557
0.883472
0.883358
0.883208
0.883026
0.882817
0.882591
0.882357
0.882117
0.881864
0.881583
0.881256
0.880875
0.880435
0.879893
0.879244
0.878538
0.877765
0.876915
0.875974
0.874927
0.87376
0.872459
0.87101
0.86939
0.867568
0.865512
0.863183
0.860533
0.857508
0.854045
0.850067
0.845472
0.840136
0.881835
0.882021
0.882049
0.882074
0.882097
0.882112
0.882118
0.882117
0.882108
0.882093
0.882074
0.882052
0.882029
0.882005
0.881979
0.881948
0.881905
0.881842
0.881753
0.881632
0.881477
0.881295
0.881095
0.880887
0.880676
0.880459
0.880221
0.879947
0.879627
0.879254
0.878791
0.878234
0.877628
0.876967
0.876241
0.87544
0.874551
0.873558
0.872448
0.871207
0.869812
0.868238
0.866453
0.864421
0.862099
0.859435
0.856366
0.85282
0.848703
0.843891
0.879942
0.880147
0.880196
0.880241
0.880283
0.880316
0.880341
0.880356
0.880362
0.88036
0.880353
0.880342
0.88033
0.880317
0.880303
0.880287
0.880262
0.880222
0.88016
0.880067
0.879943
0.879791
0.879619
0.879439
0.879258
0.879076
0.878883
0.878664
0.878406
0.878103
0.877723
0.877264
0.876763
0.876217
0.875619
0.874961
0.874233
0.873421
0.872511
0.871487
0.87033
0.869017
0.867518
0.865802
0.863828
0.861547
0.858903
0.855826
0.852227
0.847994
0.878045
0.878271
0.878341
0.878407
0.87847
0.878523
0.878566
0.878599
0.878621
0.878634
0.87864
0.878641
0.878639
0.878638
0.878637
0.878635
0.878628
0.878611
0.878575
0.878513
0.878421
0.878301
0.878161
0.878011
0.877861
0.877715
0.877566
0.877401
0.877208
0.876978
0.876685
0.876328
0.875937
0.875509
0.875042
0.874531
0.873968
0.873341
0.872636
0.871838
0.87093
0.869889
0.868691
0.867307
0.865701
0.863828
0.861635
0.85906
0.856021
0.852415
0.876146
0.876394
0.876486
0.876574
0.876658
0.876732
0.876794
0.876845
0.876885
0.876914
0.876934
0.876947
0.876958
0.876968
0.876979
0.876991
0.877002
0.877007
0.876998
0.876967
0.876909
0.876824
0.876717
0.8766
0.876483
0.876373
0.876268
0.876157
0.876028
0.875873
0.875671
0.87542
0.875143
0.874838
0.874505
0.874143
0.873747
0.873308
0.872813
0.872248
0.871596
0.870839
0.869955
0.868918
0.867697
0.866252
0.864537
0.862494
0.860052
0.857119
0.874249
0.874521
0.874636
0.874746
0.87485
0.874943
0.875025
0.875094
0.875151
0.875197
0.875232
0.87526
0.875283
0.875305
0.875329
0.875355
0.875383
0.875409
0.875426
0.875427
0.875404
0.875356
0.875286
0.875203
0.875121
0.875048
0.874986
0.874928
0.874864
0.874785
0.874676
0.874534
0.874374
0.874196
0.874001
0.873791
0.873564
0.873315
0.873032
0.872703
0.872314
0.871849
0.871289
0.870612
0.869792
0.868794
0.867578
0.866095
0.864283
0.862063
0.872332
0.872647
0.872791
0.872918
0.873038
0.87315
0.873251
0.87334
0.873417
0.87348
0.873533
0.873576
0.873613
0.873649
0.873685
0.873726
0.87377
0.873816
0.873859
0.87389
0.873903
0.873894
0.873863
0.873818
0.873773
0.873738
0.873718
0.873712
0.873711
0.873707
0.873692
0.873664
0.873624
0.873576
0.873523
0.873468
0.873413
0.873354
0.873284
0.873194
0.873071
0.872903
0.872675
0.872368
0.871961
0.871426
0.870728
0.869827
0.868673
0.867198
0.870402
0.870762
0.87093
0.871071
0.87121
0.871344
0.871468
0.871579
0.871677
0.871761
0.871833
0.871894
0.871947
0.871997
0.872047
0.872102
0.872162
0.872228
0.872295
0.872356
0.872405
0.872434
0.872445
0.872441
0.872435
0.872439
0.872462
0.872506
0.872566
0.872636
0.872716
0.8728
0.872885
0.872971
0.873062
0.873165
0.873283
0.873416
0.87356
0.873708
0.873854
0.873986
0.874094
0.874164
0.874178
0.874116
0.87395
0.87365
0.873175
0.872474
0.868498
0.868872
0.86905
0.869211
0.869375
0.869533
0.86968
0.869813
0.869933
0.870039
0.870131
0.870211
0.870282
0.870348
0.870413
0.870483
0.870559
0.870643
0.870732
0.870822
0.870906
0.870975
0.871029
0.871069
0.871105
0.87115
0.871216
0.871309
0.871428
0.871569
0.87174
0.871939
0.872148
0.87237
0.872609
0.872873
0.873167
0.873492
0.87385
0.874237
0.874649
0.875082
0.875528
0.875977
0.876418
0.876836
0.877212
0.877523
0.877743
0.877835
0.866597
0.866965
0.867156
0.867342
0.867532
0.867714
0.867883
0.86804
0.868183
0.868311
0.868425
0.868526
0.868617
0.868701
0.868782
0.868867
0.868959
0.86906
0.869171
0.869288
0.869404
0.869514
0.869611
0.869696
0.869777
0.869867
0.869977
0.870118
0.870293
0.870503
0.870763
0.871072
0.871405
0.871764
0.872154
0.872581
0.873052
0.873571
0.874142
0.874767
0.875446
0.876178
0.87696
0.877788
0.878657
0.879557
0.880478
0.881408
0.88233
0.883225
0.864674
0.865041
0.865251
0.865462
0.865676
0.86588
0.866073
0.866255
0.866422
0.866575
0.866713
0.866836
0.866949
0.867052
0.867152
0.867253
0.867361
0.867479
0.867611
0.867752
0.8679
0.868047
0.868187
0.86832
0.868449
0.868585
0.868741
0.86893
0.86916
0.869435
0.86978
0.870196
0.870652
0.871147
0.871687
0.872278
0.872927
0.873641
0.874426
0.875287
0.87623
0.877258
0.878374
0.879578
0.880871
0.882252
0.883717
0.885264
0.88689
0.888591
0.862748
0.863122
0.863349
0.86358
0.863814
0.864039
0.864255
0.864459
0.864651
0.864828
0.864991
0.865139
0.865275
0.8654
0.86552
0.865639
0.865764
0.8659
0.86605
0.866215
0.866391
0.866574
0.866757
0.866936
0.867114
0.867299
0.867505
0.867743
0.868027
0.868364
0.868789
0.869308
0.869881
0.87051
0.871198
0.871952
0.872779
0.873687
0.874684
0.875781
0.876985
0.878306
0.879751
0.881326
0.883038
0.884893
0.886896
0.889055
0.891377
0.893876
0.860819
0.861205
0.861448
0.861696
0.861947
0.862192
0.862428
0.862655
0.86287
0.863072
0.86326
0.863433
0.863593
0.863742
0.863884
0.864023
0.864166
0.86432
0.864489
0.864675
0.864878
0.865093
0.865316
0.865541
0.86577
0.866006
0.866263
0.866553
0.866891
0.867288
0.867789
0.868405
0.869091
0.869847
0.87068
0.871594
0.872596
0.873695
0.874903
0.876232
0.877695
0.879304
0.881072
0.883011
0.885133
0.887452
0.889982
0.892739
0.895745
0.899026
0.858886
0.859284
0.859543
0.859806
0.860074
0.860336
0.860592
0.86084
0.861078
0.861304
0.861517
0.861716
0.861902
0.862076
0.862242
0.862403
0.862566
0.862738
0.862925
0.863132
0.863358
0.863604
0.863864
0.864133
0.864411
0.8647
0.86501
0.865354
0.865747
0.866203
0.866777
0.867486
0.868278
0.869156
0.870127
0.871194
0.872366
0.873653
0.875068
0.876625
0.878341
0.880232
0.882315
0.884607
0.887128
0.889898
0.89294
0.896279
0.899948
0.903987
0.85695
0.85736
0.857631
0.857909
0.858191
0.858471
0.858745
0.859013
0.859273
0.859523
0.859761
0.859986
0.860199
0.8604
0.86059
0.860776
0.860961
0.861153
0.861359
0.861585
0.861833
0.862106
0.8624
0.86271
0.863036
0.863378
0.863742
0.864141
0.86459
0.865106
0.865752
0.866549
0.867441
0.868434
0.869534
0.870747
0.872082
0.873549
0.875164
0.876942
0.878904
0.881068
0.883457
0.886092
0.888998
0.892202
0.895735
0.899633
0.903939
0.908706
0.855012
0.855432
0.855714
0.856004
0.856301
0.856595
0.856886
0.857173
0.857454
0.857727
0.85799
0.858241
0.858481
0.858709
0.858927
0.859138
0.859347
0.859561
0.859787
0.860032
0.860302
0.860599
0.860923
0.861271
0.861642
0.862034
0.862453
0.862909
0.863417
0.863992
0.864709
0.86559
0.866577
0.867677
0.868898
0.870248
0.871736
0.873375
0.875181
0.877171
0.879369
0.881795
0.884476
0.887439
0.890712
0.894331
0.898333
0.902761
0.907671
0.913128
0.853071
0.8535
0.853792
0.854093
0.854402
0.85471
0.855017
0.855321
0.855621
0.855915
0.856202
0.85648
0.856747
0.857003
0.857249
0.857488
0.857723
0.857961
0.858208
0.858473
0.858763
0.859082
0.859433
0.859815
0.860227
0.860667
0.86114
0.861653
0.862219
0.862856
0.863643
0.864607
0.865684
0.866884
0.868218
0.869695
0.871325
0.873124
0.875109
0.8773
0.87972
0.882396
0.885354
0.888626
0.892247
0.896256
0.900698
0.905624
0.9111
0.917202
0.851127
0.851564
0.851865
0.852175
0.852495
0.852815
0.853135
0.853456
0.853774
0.854088
0.854398
0.8547
0.854994
0.855279
0.855554
0.855822
0.856084
0.856348
0.856619
0.856905
0.857215
0.857555
0.85793
0.858342
0.85879
0.859275
0.859799
0.860368
0.860993
0.861692
0.86255
0.863594
0.864758
0.866052
0.86749
0.869083
0.870846
0.872793
0.874944
0.877321
0.879949
0.882856
0.886073
0.889634
0.893578
0.897949
0.902799
0.908186
0.914184
0.920879
0.849181
0.849625
0.849933
0.850251
0.85058
0.850911
0.851243
0.851578
0.851912
0.852246
0.852576
0.852902
0.853222
0.853535
0.853839
0.854136
0.854428
0.854719
0.855016
0.855325
0.855656
0.856017
0.856414
0.856852
0.857333
0.857857
0.858428
0.85905
0.859733
0.860494
0.861421
0.862545
0.863792
0.865176
0.866711
0.868412
0.870294
0.872377
0.87468
0.877228
0.880047
0.883167
0.88662
0.890446
0.894686
0.899389
0.90461
0.910416
0.916886
0.924115
0.847233
0.847682
0.847996
0.848321
0.848657
0.848997
0.849341
0.849687
0.850037
0.850387
0.850737
0.851086
0.85143
0.85177
0.852103
0.85243
0.852752
0.853072
0.853396
0.85373
0.854084
0.854466
0.854884
0.855346
0.855854
0.856413
0.857026
0.857697
0.858436
0.859256
0.860253
0.861454
0.862782
0.86425
0.865876
0.867676
0.869668
0.871873
0.874314
0.877016
0.880008
0.883319
0.886987
0.891051
0.895556
0.900556
0.906109
0.912287
0.919175
0.926876
0.845282
0.845736
0.846055
0.846385
0.846728
0.847075
0.847428
0.847786
0.848148
0.848513
0.848881
0.84925
0.849617
0.849982
0.850343
0.8507
0.851052
0.851403
0.851756
0.852117
0.852495
0.852899
0.853339
0.853821
0.854355
0.854944
0.855594
0.856309
0.857098
0.857975
0.859038
0.860314
0.861719
0.863267
0.864978
0.86687
0.868963
0.871279
0.873844
0.876683
0.879828
0.883309
0.887166
0.89144
0.896178
0.901437
0.907278
0.913778
0.921027
0.929129
0.843329
0.843787
0.844109
0.844443
0.844792
0.845146
0.845506
0.845873
0.846246
0.846625
0.847008
0.847395
0.847783
0.848172
0.84856
0.848945
0.849328
0.849709
0.850092
0.850482
0.850887
0.851314
0.851775
0.852279
0.852835
0.85345
0.854131
0.854885
0.855719
0.856647
0.857772
0.859119
0.860597
0.862222
0.864012
0.865988
0.868172
0.870589
0.873263
0.876224
0.879502
0.883132
0.887152
0.891606
0.896544
0.902022
0.908107
0.914876
0.922421
0.930853
0.841374
0.841834
0.842159
0.842497
0.842849
0.843209
0.843575
0.84395
0.844332
0.844722
0.845119
0.845522
0.845929
0.84634
0.846752
0.847164
0.847576
0.847988
0.848402
0.848822
0.849254
0.849707
0.850191
0.850716
0.851292
0.85193
0.852638
0.853425
0.854299
0.855273
0.856454
0.857866
0.859412
0.861106
0.86297
0.865023
0.867291
0.869797
0.872568
0.875634
0.879027
0.882783
0.88694
0.891544
0.896646
0.902304
0.908585
0.915568
0.923347
0.932031
0.839417
0.839879
0.840205
0.840546
0.840901
0.841265
0.841636
0.842017
0.842407
0.842807
0.843215
0.843632
0.844055
0.844485
0.844919
0.845357
0.845797
0.846238
0.846683
0.847133
0.847595
0.848075
0.848583
0.84913
0.849727
0.850385
0.851117
0.851931
0.852838
0.853851
0.855081
0.856551
0.858158
0.859916
0.861846
0.863971
0.866312
0.868897
0.871752
0.874908
0.878398
0.882257
0.886526
0.891251
0.896482
0.902278
0.908708
0.91585
0.923795
0.932653
0.837458
0.837921
0.838248
0.83859
0.838948
0.839315
0.83969
0.840075
0.840472
0.840879
0.841297
0.841725
0.842162
0.842609
0.843063
0.843523
0.843988
0.844458
0.844933
0.845414
0.845905
0.846414
0.846948
0.847517
0.848135
0.848814
0.849565
0.850403
0.851337
0.852383
0.853654
0.855174
0.856833
0.858648
0.860638
0.862824
0.865231
0.867883
0.87081
0.874041
0.877609
0.88155
0.885906
0.890721
0.896047
0.901942
0.908473
0.915717
0.923763
0.932718
0.835497
0.83596
0.836288
0.836632
0.836991
0.837359
0.837737
0.838126
0.838526
0.838939
0.839365
0.839802
0.840251
0.840712
0.841183
0.841663
0.842152
0.842647
0.84315
0.843661
0.844183
0.84472
0.845281
0.845876
0.846515
0.847213
0.847984
0.848841
0.849797
0.85087
0.852174
0.853734
0.855439
0.857301
0.859342
0.861581
0.864042
0.866751
0.869736
0.873026
0.876655
0.880658
0.885075
0.889952
0.895339
0.901293
0.907878
0.91517
0.923253
0.932226
0.833534
0.833996
0.834325
0.834669
0.835028
0.835397
0.835776
0.836168
0.836572
0.836989
0.83742
0.837865
0.838323
0.838796
0.839281
0.839778
0.840287
0.840806
0.841335
0.841874
0.842425
0.842992
0.843581
0.844201
0.844863
0.845582
0.84637
0.847245
0.84822
0.849312
0.850643
0.852235
0.853975
0.855876
0.857957
0.860239
0.862745
0.865498
0.868528
0.871862
0.875533
0.879576
0.884032
0.888942
0.894357
0.900331
0.906927
0.914213
0.922269
0.931186
0.83157
0.83203
0.832357
0.8327
0.83306
0.833429
0.83381
0.834202
0.834609
0.835029
0.835464
0.835914
0.836379
0.836861
0.837357
0.837869
0.838395
0.838934
0.839486
0.840051
0.84063
0.841226
0.841843
0.84249
0.843176
0.843916
0.844722
0.845613
0.846603
0.847712
0.849062
0.850678
0.852444
0.854374
0.856486
0.8588
0.861338
0.864124
0.867183
0.870545
0.874241
0.878305
0.882774
0.887691
0.893103
0.89906
0.905622
0.912852
0.920823
0.929613
0.829604
0.830061
0.830387
0.830728
0.831087
0.831456
0.831837
0.83223
0.832637
0.833059
0.833496
0.83395
0.834421
0.834909
0.835414
0.835937
0.836477
0.837033
0.837606
0.838194
0.838798
0.839421
0.840066
0.840739
0.84145
0.842211
0.843037
0.843943
0.844946
0.846068
0.847432
0.849065
0.850849
0.852799
0.854932
0.857267
0.859825
0.862629
0.865704
0.869078
0.872781
0.876844
0.881305
0.886202
0.89158
0.897485
0.903973
0.911099
0.918927
0.927525
0.827636
0.82809
0.828414
0.828754
0.829112
0.829479
0.829859
0.830252
0.830659
0.831081
0.831519
0.831974
0.832448
0.83294
0.833452
0.833983
0.834534
0.835104
0.835694
0.836302
0.836929
0.837576
0.838247
0.838946
0.839682
0.840466
0.84131
0.842232
0.843248
0.84438
0.845755
0.847398
0.849193
0.851153
0.853297
0.855642
0.858208
0.861017
0.864094
0.867464
0.871155
0.875199
0.879628
0.88448
0.889795
0.895616
0.901991
0.908969
0.916605
0.92495
0.825667
0.826117
0.826439
0.826776
0.827132
0.827498
0.827876
0.828267
0.828673
0.829094
0.829532
0.829988
0.830463
0.830957
0.831473
0.83201
0.832568
0.833149
0.833752
0.834376
0.835023
0.835692
0.836386
0.83711
0.83787
0.838676
0.83954
0.840477
0.841506
0.842647
0.844029
0.845678
0.847477
0.849441
0.851586
0.85393
0.856493
0.859294
0.862358
0.865708
0.869371
0.873375
0.877752
0.882535
0.887761
0.893467
0.899694