/*--------------------------------*- C++ -*----------------------------------*\
  =========                 |
  \\      /  F ield         | OpenFOAM: The Open Source CFD Toolbox
   \\    /   O peration     | Website:  https://openfoam.org
    \\  /    A nd           | Version:  9
     \\/     M anipulation  |
\*---------------------------------------------------------------------------*/
FoamFile
{
    format      ascii;
    class       volScalarField;
    location    "0.06";
    object      p_rgh;
}
// * * * * * * * * * * * * * * * * * * * * * * * * * * * * * * * * * * * * * //

dimensions      [1 -1 -2 0 0 0 0];

internalField   nonuniform List<scalar> 
5000
(
-0.00476999
-0.00404277
-0.0034863
-0.00292184
-0.00235695
-0.0017984
-0.00125041
-0.000717255
-0.000202938
0.000289003
0.000755776
0.00119593
0.00161006
0.00200126
0.00237523
0.00274021
0.00310697
0.0034889
0.00390159
0.00436148
0.00488355
0.00547855
0.00614982
0.00688973
0.00767602
0.00846947
0.00921485
0.00984769
0.0103061
0.0105526
0.0105897
0.0104141
0.0101597
0.00993672
0.00977636
0.00958285
0.00915858
0.00829151
0.00687475
0.00497342
0.00277331
0.000419961
-0.00214045
-0.00516949
-0.00894451
-0.0135166
-0.0186786
-0.024236
-0.030317
-0.037255
-0.00466571
-0.00394281
-0.00342415
-0.00291585
-0.00241168
-0.00191186
-0.00142009
-0.000941174
-0.000479507
-3.89349e-05
0.000377493
0.000768029
0.00113286
0.0014746
0.00179843
0.00211207
0.00242588
0.00275287
0.00310825
0.00350804
0.00396676
0.00449461
0.00509435
0.00575769
0.00646156
0.00716589
0.0078151
0.00834494
0.00869411
0.00882524
0.00872981
0.00840575
0.00799888
0.00761685
0.00728654
0.0069094
0.00629005
0.00522374
0.0036113
0.0015207
-0.000864621
-0.00340211
-0.00614414
-0.00934525
-0.0132725
-0.0179674
-0.0232181
-0.0288228
-0.0348883
-0.0417165
-0.00459274
-0.00390926
-0.00342895
-0.00296992
-0.00251152
-0.0020568
-0.00161143
-0.00117976
-0.000765468
-0.000371816
-1.2323e-06
0.000345152
0.00066786
0.000969338
0.00125416
0.00152926
0.00180412
0.00209063
0.00240237
0.00275322
0.00315531
0.00361653
0.00413757
0.00470864
0.00530637
0.00589256
0.00641641
0.00682139
0.00705532
0.00708809
0.00690604
0.0065044
0.00600869
0.00549592
0.00497535
0.00435842
0.00348852
0.00221028
0.000452623
-0.00173399
-0.00422342
-0.00692839
-0.00990248
-0.0133321
-0.0173977
-0.0221187
-0.0273557
-0.0329847
-0.039066
-0.0457817
-0.00443426
-0.00383661
-0.00342619
-0.00301641
-0.00260021
-0.00218825
-0.00178666
-0.00139914
-0.001029
-0.000678947
-0.000350823
-4.52912e-05
0.000238373
0.00050249
0.000751223
0.000990858
0.00122993
0.00147896
0.00174965
0.00205357
0.00240038
0.00279554
0.00323759
0.00371526
0.0042052
0.00467169
0.00506953
0.00535071
0.00547301
0.00541428
0.00515618
0.00468962
0.00411639
0.00348159
0.00277807
0.00193047
0.00082343
-0.000649837
-0.00253586
-0.0048047
-0.00738633
-0.0102433
-0.0134258
-0.017054
-0.0212308
-0.0259605
-0.0311665
-0.0367921
-0.0428562
-0.0494264
-0.00423889
-0.00369948
-0.00334377
-0.00298345
-0.00261932
-0.00226052
-0.00191039
-0.00157203
-0.00124866
-0.000942963
-0.000656818
-0.000391112
-0.000145501
8.18541e-05
0.000294571
0.000498238
0.000700394
0.000910177
0.00113759
0.00139232
0.00168215
0.00201075
0.00237519
0.00276337
0.00315241
0.00350901
0.00379281
0.00396263
0.00398378
0.00383921
0.00350329
0.00296101
0.00229855
0.0015394
0.000668225
-0.000376949
-0.00168127
-0.00332082
-0.00533079
-0.00769822
-0.010387
-0.0133838
-0.0167291
-0.0205027
-0.0247678
-0.0295242
-0.0347226
-0.0403279
-0.0463362
-0.0527393
-0.00410164
-0.00360952
-0.00329102
-0.00296686
-0.00264235
-0.00232498
-0.00201711
-0.00172118
-0.00143964
-0.00117461
-0.000927663
-0.000699673
-0.000490488
-0.000298637
-0.000121049
4.7091e-05
0.000212267
0.000382301
0.000565705
0.000770647
0.00100342
0.00126637
0.00155553
0.00185836
0.00215268
0.00240756
0.00258684
0.00265506
0.00258338
0.00235799
0.00194472
0.00132206
0.000565679
-0.000315483
-0.00133985
-0.00255677
-0.0040292
-0.00581417
-0.00794283
-0.0104152
-0.0132147
-0.0163375
-0.0198142
-0.0237004
-0.0280394
-0.0328297
-0.0380312
-0.0436072
-0.0495402
-0.0557932
-0.00396119
-0.00351068
-0.00323184
-0.00294787
-0.00266289
-0.0023841
-0.00211429
-0.00185595
-0.00161143
-0.00138271
-0.00117129
-0.000978032
-0.000802862
-0.000644574
-0.000500602
-0.000366909
-0.000238025
-0.000107305
3.25285e-05
0.000188417
0.000365487
0.000565045
0.00078232
0.00100455
0.00121031
0.00137079
0.00145353
0.00142785
0.00126968
0.000967353
0.000477927
-0.000226265
-0.00107643
-0.00207378
-0.00323702
-0.00460438
-0.00622256
-0.00813675
-0.0103774
-0.0129536
-0.0158594
-0.019094
-0.0226799
-0.0266585
-0.0310616
-0.0358855
-0.0410934
-0.0466429
-0.0525053
-0.0586396
-0.00381458
-0.0033994
-0.0031574
-0.00291186
-0.00266533
-0.00242468
-0.00219232
-0.00197051
-0.00176147
-0.00156718
-0.00138919
-0.00122847
-0.0010852
-0.000958585
-0.000846651
-0.000746161
-0.00065259
-0.000560302
-0.000463036
-0.000354825
-0.000231466
-9.24706e-05
5.68051e-05
0.000203501
0.000326907
0.00040011
0.000393793
0.000281349
4.25116e-05
-0.000332986
-0.000896801
-0.00168204
-0.00262392
-0.00373044
-0.00501894
-0.00651821
-0.00826345
-0.010293
-0.0126379
-0.015313
-0.0183174
-0.0216505
-0.0253295
-0.0293875
-0.0338489
-0.0387072
-0.0439269
-0.0494627
-0.0552782
-0.061332
-0.00366583
-0.00328379
-0.00307668
-0.00286659
-0.00265569
-0.0024506
-0.00225339
-0.00206606
-0.00189062
-0.0017289
-0.00158245
-0.00145237
-0.00133914
-0.00124248
-0.00116107
-0.00109246
-0.001033
-0.000977897
-0.000921741
-0.000859351
-0.000787252
-0.000705585
-0.000620133
-0.000543784
-0.000496587
-0.000503825
-0.00059211
-0.000784636
-0.00109854
-0.00154324
-0.00217882
-0.00304313
-0.00407311
-0.00528103
-0.00668191
-0.00829687
-0.0101533
-0.012286
-0.0147271
-0.0174943
-0.0205885
-0.0240086
-0.0277686
-0.0318967
-0.0364124
-0.0413072
-0.0465468
-0.0520857
-0.0578836
-0.0639012
-0.00351491
-0.00316383
-0.00298998
-0.0028137
-0.00263655
-0.00246492
-0.00230067
-0.00214557
-0.00200146
-0.00187009
-0.00175302
-0.00165155
-0.00156651
-0.0014981
-0.00144565
-0.00140745
-0.00138059
-0.00136107
-0.00134416
-0.00132532
-0.00130166
-0.00127378
-0.00124777
-0.00123653
-0.00125953
-0.00134069
-0.00150428
-0.0017706
-0.00215417
-0.00266388
-0.00336785
-0.00430791
-0.00542108
-0.0067221
-0.00822326
-0.00993962
-0.0118936
-0.0141183
-0.016647
-0.0194983
-0.0226732
-0.0261701
-0.0300018
-0.0341932
-0.0387599
-0.0436934
-0.0489627
-0.0545232
-0.0603335
-0.0663598
-0.00336422
-0.00304189
-0.00289917
-0.00275477
-0.00260938
-0.00246914
-0.0023357
-0.00221063
-0.00209564
-0.00199243
-0.00190265
-0.0018278
-0.00176908
-0.00172716
-0.00170199
-0.0016925
-0.00169649
-0.00171061
-0.00173076
-0.00175291
-0.00177458
-0.00179673
-0.00182567
-0.00187428
-0.0019616
-0.00211037
-0.00234292
-0.002677
-0.00312493
-0.00369529
-0.00446367
-0.00547517
-0.00666571
-0.00805124
-0.00964132
-0.0114463
-0.0134857
-0.0157921
-0.0183992
-0.0213256
-0.0245718
-0.0281367
-0.0320327
-0.0362819
-0.0408973
-0.0458717
-0.0511796
-0.05678
-0.0626322
-0.0687095
-0.00321552
-0.00292039
-0.00280644
-0.00269166
-0.00257576
-0.00246463
-0.00235975
-0.00226249
-0.00217444
-0.00209729
-0.00203278
-0.00198261
-0.00194832
-0.00193105
-0.00193129
-0.00194862
-0.00198148
-0.00202712
-0.00208194
-0.00214231
-0.00220605
-0.00227436
-0.00235369
-0.00245693
-0.00260278
-0.00281306
-0.00310841
-0.00350437
-0.00401135
-0.00463777
-0.0054661
-0.00654403
-0.00780551
-0.00926689
-0.0109351
-0.0128173
-0.014931
-0.017309
-0.0199852
-0.0229772
-0.0262857
-0.0299102
-0.0338639
-0.0381666
-0.0428291
-0.0478467
-0.0532002
-0.0588549
-0.0647752
-0.0709409
-0.00307002
-0.00280062
-0.00271304
-0.00262552
-0.00253679
-0.00245244
-0.00237381
-0.00230214
-0.00223891
-0.00218578
-0.00214455
-0.00211711
-0.00210531
-0.00211073
-0.00213441
-0.00217654
-0.00223616
-0.00231106
-0.00239804
-0.00249376
-0.00259623
-0.00270676
-0.00283193
-0.00298463
-0.00318337
-0.0034492
-0.00380133
-0.00425338
-0.00481408
-0.00549179
-0.00637519
-0.00751394
-0.00883948
-0.010368
-0.0121043
-0.0140527
-0.0162304
-0.0186704
-0.021406
-0.0244542
-0.0278159
-0.0314924
-0.0354973
-0.0398491
-0.0445577
-0.0496211
-0.0550255
-0.0607448
-0.0667533
-0.073038
-0.00292977
-0.00268475
-0.002621
-0.00255832
-0.00249421
-0.0024341
-0.00237928
-0.00233087
-0.00229021
-0.00225892
-0.00223885
-0.00223207
-0.00224072
-0.00226679
-0.00231188
-0.00237674
-0.00246095
-0.00256278
-0.00267935
-0.0028075
-0.00294531
-0.00309415
-0.00326064
-0.00345775
-0.00370383
-0.00401939
-0.0044224
-0.00492481
-0.00553388
-0.00625793
-0.00719116
-0.00838465
-0.00976703
-0.0113541
-0.0131485
-0.0151533
-0.0173852
-0.0198773
-0.0226626
-0.0257576
-0.0291638
-0.0328844
-0.0369337
-0.0413296
-0.046083
-0.0511946
-0.0566545
-0.0624451
-0.0685552
-0.0749808
-0.00279501
-0.00257352
-0.00253114
-0.00249056
-0.00244837
-0.00240999
-0.00237664
-0.0023492
-0.00232888
-0.00231724
-0.00231618
-0.00232795
-0.00235496
-0.00239965
-0.00246409
-0.00254957
-0.00265619
-0.00278258
-0.00292612
-0.00308375
-0.00325354
-0.00343681
-0.0036402
-0.00387676
-0.00416479
-0.00452438
-0.00497247
-0.00551955
-0.00617159
-0.00693689
-0.00791444
-0.00915618
-0.0105879
-0.0122247
-0.014068
-0.0161195
-0.0183961
-0.0209308
-0.023756
-0.0268882
-0.0303305
-0.0340876
-0.0381738
-0.0426075
-0.0474029
-0.052564
-0.0580825
-0.0639486
-0.0701672
-0.0767471
-0.00266263
-0.00246397
-0.00244118
-0.00242016
-0.00239752
-0.00237877
-0.00236483
-0.00235633
-0.00235434
-0.00236038
-0.00237639
-0.00240476
-0.00244819
-0.00250952
-0.00259129
-0.0026953
-0.00282209
-0.00297065
-0.00313854
-0.00332272
-0.00352116
-0.00373507
-0.00397108
-0.00424227
-0.00456701
-0.00496505
-0.0054525
-0.0060386
-0.00672821
-0.00752955
-0.00854564
-0.00982882
-0.0113021
-0.0129801
-0.014863
-0.0169521
-0.0192642
-0.021832
-0.0246872
-0.027847
-0.0313169
-0.0351029
-0.0392186
-0.043683
-0.0485152
-0.0537242
-0.0593028
-0.0652464
-0.0715749
-0.0783133
-0.00252938
-0.0023521
-0.00234801
-0.00234502
-0.00234039
-0.0023396
-0.00234325
-0.00235183
-0.00236633
-0.0023882
-0.00241944
-0.00246256
-0.00252055
-0.00259658
-0.00269368
-0.00281409
-0.00295879
-0.0031271
-0.0033167
-0.00352453
-0.0037484
-0.00398931
-0.0042538
-0.004555
-0.00491133
-0.00534238
-0.00586357
-0.00648311
-0.00720485
-0.00803693
-0.00908559
-0.0104031
-0.0119101
-0.0136206
-0.0155342
-0.0176519
-0.0199905
-0.0225819
-0.0254572
-0.0286348
-0.0321234
-0.0359306
-0.0400685
-0.0445563
-0.0494185
-0.0546705
-0.060308
-0.0663297
-0.0727659
-0.0796601
-0.00239523
-0.00223693
-0.00225048
-0.00226444
-0.00227659
-0.00229229
-0.00231193
-0.00233592
-0.00236517
-0.0024011
-0.00244574
-0.00250175
-0.00257236
-0.00266111
-0.00277145
-0.00290608
-0.0030664
-0.00325199
-0.00346069
-0.00368934
-0.0039355
-0.00419992
-0.00448895
-0.00481572
-0.00519873
-0.00565747
-0.00620689
-0.00685432
-0.0076028
-0.00846024
-0.00953534
-0.0108799
-0.0124125
-0.0141467
-0.0160821
-0.0182196
-0.0205759
-0.0231817
-0.0260672
-0.0292526
-0.0327502
-0.0365699
-0.0407226
-0.0452269
-0.0501116
-0.0553992
-0.0610913
-0.0671899
-0.0737301
-0.0807725
-0.00226234
-0.00212052
-0.00214983
-0.00217912
-0.00220643
-0.00223697
-0.00227097
-0.00230873
-0.00235106
-0.00239933
-0.00245559
-0.00252264
-0.00260395
-0.0027034
-0.00282485
-0.00297146
-0.00314503
-0.00334545
-0.00357064
-0.00381733
-0.00408278
-0.00436736
-0.00467716
-0.00502524
-0.00543018
-0.00591147
-0.00648371
-0.0071536
-0.00792343
-0.00880081
-0.00989609
-0.0112603
-0.0128102
-0.0145594
-0.0165076
-0.0186562
-0.0210212
-0.0236323
-0.0265185
-0.0297016
-0.0331978
-0.0370201
-0.0411792
-0.0456929
-0.0505923
-0.0559065
-0.0616458
-0.0678174
-0.0744569
-0.0816374
-0.00213218
-0.0020047
-0.00204755
-0.00209019
-0.00213074
-0.00217425
-0.0022208
-0.00227057
-0.00232422
-0.00238307
-0.00244917
-0.00252543
-0.00261553
-0.00272367
-0.0028541
-0.00301044
-0.00319489
-0.00340764
-0.00364674
-0.00390875
-0.00419057
-0.00449212
-0.00481909
-0.00518443
-0.00560675
-0.00610559
-0.0066954
-0.0073824
-0.00816823
-0.00906011
-0.0101692
-0.0115455
-0.0131045
-0.01486
-0.016812
-0.0189626
-0.0213274
-0.0239346
-0.0268122
-0.0299832
-0.0334673
-0.0372809
-0.0414363
-0.0459512
-0.0508569
-0.0561874
-0.0619637
-0.0682005
-0.0749321
-0.0822389
-0.00200462
-0.00188944
-0.00194391
-0.00199805
-0.00204995
-0.00210459
-0.00216189
-0.00222184
-0.00228503
-0.00235268
-0.00242683
-0.00251048
-0.00260747
-0.00272229
-0.00285957
-0.00302336
-0.00321629
-0.00343889
-0.00368929
-0.00396393
-0.00425929
-0.00457472
-0.00491546
-0.00529418
-0.00572951
-0.00624109
-0.00684335
-0.00754221
-0.00833878
-0.00923973
-0.0103564
-0.0117371
-0.0132969
-0.0150498
-0.0169967
-0.0191401
-0.0214955
-0.0240894
-0.0269491
-0.0300985
-0.0335599
-0.0373527
-0.0414924
-0.0459984
-0.0509009
-0.0562364
-0.0620367
-0.0683266
-0.0751396
-0.0825591
-0.00187922
-0.00177425
-0.00183862
-0.00190251
-0.00196402
-0.00202804
-0.00209432
-0.00216274
-0.00223375
-0.00230849
-0.00238898
-0.00247824
-0.00258025
-0.00269977
-0.00284177
-0.00301073
-0.00320973
-0.00343963
-0.00369873
-0.00398332
-0.00428942
-0.00461578
-0.00496703
-0.00535544
-0.00579959
-0.00631927
-0.00692901
-0.00763462
-0.00843673
-0.00934137
-0.0104592
-0.0118368
-0.0133891
-0.0151308
-0.0170635
-0.0191905
-0.0215268
-0.0240976
-0.0269298
-0.0300482
-0.0334763
-0.0372362
-0.0413472
-0.0458319
-0.05072
-0.0560482
-0.0618576
-0.0681845
-0.075064
-0.0825799
-0.00175618
-0.00165936
-0.00173185
-0.00180371
-0.00187305
-0.00194468
-0.00201822
-0.00209343
-0.00217062
-0.00225084
-0.00233602
-0.0024292
-0.00253445
-0.00265673
-0.00280133
-0.00297317
-0.00317578
-0.00341042
-0.00367558
-0.00396742
-0.00428154
-0.00461598
-0.00497461
-0.00536922
-0.0058182
-0.00634149
-0.00695388
-0.00766123
-0.00846378
-0.00936684
-0.0104796
-0.0118465
-0.0133833
-0.0151049
-0.0170145
-0.0191159
-0.0214231
-0.0239606
-0.0267549
-0.0298321
-0.0332167
-0.0369317
-0.0410004
-0.0454497
-0.0503101
-0.0556175
-0.0614198
-0.0677649
-0.0746922
-0.0822855
-0.00163622
-0.00154565
-0.00162425
-0.00170217
-0.00177748
-0.0018549
-0.00193394
-0.00201425
-0.002096
-0.0021801
-0.00226841
-0.00236388
-0.00247064
-0.00259379
-0.00273892
-0.00291136
-0.00311512
-0.0033519
-0.00362045
-0.00391689
-0.00423634
-0.00457607
-0.00493913
-0.0053366
-0.00578659
-0.00630918
-0.00691952
-0.00762371
-0.00842171
-0.00931799
-0.0104195
-0.0117685
-0.0132814
-0.0149744
-0.016852
-0.0189185
-0.021187
-0.0236804
-0.0264256
-0.0294504
-0.0327803
-0.0364386
-0.0404512
-0.0448501
-0.0496675
-0.054939
-0.0607167
-0.0670588
-0.074012
-0.0816606
-0.00152004
-0.00143391
-0.00151649
-0.00159844
-0.00167774
-0.00175907
-0.00184183
-0.00192553
-0.00201023
-0.00209668
-0.00218657
-0.00228276
-0.00238937
-0.00251157
-0.00265522
-0.00282602
-0.00302848
-0.00326482
-0.00353411
-0.00383246
-0.00415459
-0.00449696
-0.00486162
-0.00525879
-0.00570615
-0.00622388
-0.0068276
-0.00752381
-0.00831236
-0.00919678
-0.0102811
-0.0116049
-0.0130862
-0.0147418
-0.0165785
-0.0186009
-0.0208212
-0.02326
-0.0259444
-0.0289044
-0.0321672
-0.035756
-0.0396984
-0.0440306
-0.0487881
-0.0540067
-0.0597411
-0.0660573
-0.0730113
-0.0806899
-0.00140799
-0.00132448
-0.00140888
-0.00149276
-0.00157407
-0.00165738
-0.00174205
-0.00182747
-0.00191353
-0.0020008
-0.00209081
-0.00218626
-0.00229114
-0.00241069
-0.00255092
-0.00271792
-0.00291671
-0.00315004
-0.00341742
-0.00371505
-0.00403725
-0.00437965
-0.0047432
-0.00513709
-0.00557838
-0.00608727
-0.00667992
-0.00736344
-0.00813767
-0.00900526
-0.0100667
-0.0113584
-0.0128001
-0.01441
-0.0161966
-0.0181659
-0.0203285
-0.0227026
-0.0253146
-0.0281966
-0.0313783
-0.0348836
-0.0387408
-0.0429892
-0.0476681
-0.0528148
-0.0584852
-0.0647511
-0.0716782
-0.079358
-0.00130009
-0.00121731
-0.00130138
-0.00138514
-0.00146644
-0.00154983
-0.00163461
-0.00172007
-0.00180594
-0.00189261
-0.00198137
-0.00207469
-0.00217643
-0.00229174
-0.00242677
-0.00258792
-0.00278073
-0.00300856
-0.00327141
-0.00356566
-0.00388536
-0.00422527
-0.00458514
-0.00497292
-0.00540489
-0.00590116
-0.00647846
-0.00714463
-0.00789974
-0.00874562
-0.00977851
-0.0110315
-0.0124264
-0.0139821
-0.0157095
-0.0176163
-0.019712
-0.0220117
-0.0245403
-0.027331
-0.0304167
-0.0338231
-0.0375789
-0.0417252
-0.0463052
-0.0513585
-0.0569421
-0.0631316
-0.0700016
-0.0776501
-0.00119624
-0.00111219
-0.00119384
-0.00127541
-0.00135472
-0.00143631
-0.00151943
-0.0016033
-0.0016875
-0.00177221
-0.00185844
-0.00194841
-0.00204572
-0.00215538
-0.00228358
-0.00243698
-0.00262162
-0.0028415
-0.00309722
-0.00338548
-0.00370012
-0.00403509
-0.00438882
-0.00476786
-0.00518745
-0.0056675
-0.00622529
-0.00686958
-0.00760082
-0.00842013
-0.00941908
-0.0106272
-0.0119682
-0.0134616
-0.0151209
-0.0169554
-0.0189746
-0.0211906
-0.0236252
-0.0263122
-0.029287
-0.0325781
-0.036215
-0.0402399
-0.044699
-0.0496354
-0.0551069
-0.0611916
-0.0679721
-0.0755532
-0.00109633
-0.00100893
-0.00108609
-0.00116343
-0.00123878
-0.0013167
-0.00139644
-0.00147713
-0.00155824
-0.0016397
-0.00172225
-0.00180776
-0.00189952
-0.00200229
-0.00212221
-0.00226612
-0.00244053
-0.0026501
-0.00289614
-0.00317581
-0.00348285
-0.00381047
-0.00415572
-0.00452354
-0.00492792
-0.00538836
-0.00592269
-0.00654066
-0.00724334
-0.00803128
-0.00899098
-0.0101482
-0.0114288
-0.0128525
-0.0144347
-0.0161872
-0.0181197
-0.0202423
-0.0225733
-0.0251448
-0.0279944
-0.0311537
-0.0346535
-0.0385368
-0.0428519
-0.0476457
-0.0529773
-0.0589264
-0.0655822
-0.0730562
-0.00100022
-0.000907394
-0.000978018
-0.0010491
-0.00111855
-0.00119096
-0.00126559
-0.00134157
-0.00141821
-0.00149522
-0.00157302
-0.00165311
-0.00173835
-0.00183317
-0.00194354
-0.00207641
-0.00223868
-0.0024357
-0.00266957
-0.00293803
-0.00323495
-0.00355285
-0.00388739
-0.00424171
-0.00462827
-0.00506596
-0.00557307
-0.00616043
-0.00682992
-0.00758173
-0.00849692
-0.00959759
-0.0108118
-0.0121588
-0.0136555
-0.0153161
-0.0171516
-0.0191706
-0.0213879
-0.023833
-0.0265441
-0.0295555
-0.0329002
-0.0366212
-0.0407686
-0.0453927
-0.0505543
-0.0563343
-0.0628272
-0.0701505
-0.000907834
-0.00080748
-0.000869529
-0.000932355
-0.000993989
-0.00105906
-0.00112692
-0.00119666
-0.00126749
-0.00133891
-0.00141099
-0.00148479
-0.00156269
-0.0016487
-0.00174847
-0.00186894
-0.00201735
-0.00219972
-0.002419
-0.00267369
-0.00295794
-0.00326377
-0.00358544
-0.00392415
-0.00429056
-0.00470262
-0.00517899
-0.00573163
-0.00636341
-0.00707436
-0.00793984
-0.00897843
-0.0101207
-0.0113847
-0.0127883
-0.0143476
-0.0160753
-0.0179798
-0.020073
-0.022381
-0.024941
-0.0277894
-0.0309611
-0.0344993
-0.0384551
-0.0428816
-0.0478415
-0.0534167
-0.0597055
-0.0668312
-0.00081905
-0.0007091
-0.000760582
-0.000813193
-0.000865115
-0.000921061
-0.000980478
-0.00104249
-0.00110621
-0.00117093
-0.00123637
-0.00130313
-0.00137303
-0.00144953
-0.00153786
-0.00164482
-0.00177788
-0.00194366
-0.00214603
-0.00238441
-0.00265344
-0.00294484
-0.00325156
-0.00357273
-0.0039169
-0.00430079
-0.00474316
-0.00525717
-0.00584686
-0.00651232
-0.00732296
-0.00829405
-0.00935896
-0.0105344
-0.0118381
-0.0132873
-0.0148967
-0.0166753
-0.0186334
-0.0207934
-0.0231901
-0.025861
-0.0288425
-0.0321777
-0.0359182
-0.0401191
-0.0448448
-0.0501776
-0.056219
-0.0630967
-0.00073377
-0.000612199
-0.000651185
-0.000691675
-0.00073204
-0.000777102
-0.000826441
-0.000879235
-0.000934555
-0.00099149
-0.00104944
-0.00110847
-0.00116983
-0.0012363
-0.0013126
-0.00140519
-0.00152163
-0.0016691
-0.00185238
-0.00207195
-0.00232319
-0.00259776
-0.00288746
-0.0031893
-0.00350944
-0.00386296
-0.00426842
-0.00474014
-0.00528352
-0.00589896
-0.00664972
-0.00754799
-0.00853047
-0.0096121
-0.0108098
-0.0121413
-0.0136224
-0.0152638
-0.017075
-0.0190754
-0.0212969
-0.0237762
-0.0265506
-0.0296631
-0.033165
-0.0371126
-0.0415712
-0.0466234
-0.0523723
-0.0589479
-0.000651911
-0.000516778
-0.000541424
-0.000567969
-0.000594998
-0.000627462
-0.000665113
-0.000707223
-0.000752849
-0.000800926
-0.000850522
-0.000901217
-0.00095358
-0.00100969
-0.00107355
-0.00115116
-0.00125
-0.00137767
-0.00153986
-0.0017382
-0.00196907
-0.00222437
-0.00249496
-0.00277578
-0.00307037
-0.00339169
-0.00375774
-0.0041838
-0.00467685
-0.00523788
-0.00592383
-0.00674411
-0.00763923
-0.00862222
-0.00970859
-0.0109155
-0.0122594
-0.0137525
-0.015405
-0.0172338
-0.0192676
-0.0215416
-0.0240926
-0.026963
-0.0302032
-0.0338699
-0.0380289
-0.0427618
-0.0481726
-0.0543903
-0.000573415
-0.000422908
-0.000431492
-0.000442373
-0.000454371
-0.000472586
-0.000496972
-0.000526938
-0.000561573
-0.000599698
-0.000640089
-0.000681836
-0.00072483
-0.000770341
-0.000821561
-0.000883848
-0.000964394
-0.00107105
-0.00121035
-0.00138517
-0.00159309
-0.00182661
-0.00207596
-0.00233414
-0.00260186
-0.00288957
-0.00321415
-0.00359159
-0.00403053
-0.00453288
-0.00514921
-0.00588647
-0.00668952
-0.00756936
-0.00853966
-0.00961605
-0.0108148
-0.0121497
-0.0136317
-0.0152767
-0.0171101
-0.0191648
-0.0214763
-0.0240856
-0.0270416
-0.0304005
-0.0342273
-0.0386022
-0.0436275
-0.0494334
-0.000498245
-0.000330709
-0.000321648
-0.00031528
-0.000310664
-0.000313062
-0.00032266
-0.000339045
-0.000361382
-0.000388434
-0.000418733
-0.000450908
-0.000484172
-0.000518943
-0.000557487
-0.000604341
-0.000666198
-0.000750953
-0.000865833
-0.00101498
-0.00119741
-0.00140656
-0.00163245
-0.00186633
-0.00210607
-0.00235915
-0.00264073
-0.00296708
-0.00334847
-0.00378806
-0.00433008
-0.00497942
-0.00568587
-0.00645836
-0.00730832
-0.00824919
-0.00929618
-0.0104637
-0.0117643
-0.0132133
-0.0148336
-0.0166551
-0.0187111
-0.0210407
-0.0236905
-0.026715
-0.030178
-0.0341569
-0.038751
-0.0440877
-0.000426441
-0.000240434
-0.000212323
-0.000187269
-0.000164576
-0.000149675
-0.000143017
-0.000144403
-0.000153124
-0.000167941
-0.000187201
-0.000209126
-0.000232278
-0.000256201
-0.00028215
-0.000313678
-0.000356753
-0.000419057
-0.000508317
-0.000629883
-0.000784356
-0.000966484
-0.00116653
-0.00137439
-0.00158513
-0.00180291
-0.00204054
-0.00231394
-0.00263479
-0.00300778
-0.00347092
-0.00402757
-0.00463308
-0.00529426
-0.00602006
-0.00682115
-0.00771086
-0.00870358
-0.00981305
-0.0110546
-0.0124491
-0.0140234
-0.0158084
-0.01784
-0.0201622
-0.0228268
-0.0258951
-0.029441
-0.0335589
-0.0383706
-0.000357771
-0.000151991
-0.000103595
-5.86133e-05
-1.65716e-05
1.69258e-05
4.11565e-05
5.60831e-05
6.22472e-05
6.08352e-05
5.36099e-05
4.26836e-05
3.00903e-05
1.71425e-05
3.644e-06
-1.28374e-05
-3.73163e-05
-7.69843e-05
-0.000139801
-0.00023218
-0.000356385
-0.000508812
-0.000680479
-0.000860422
-0.00104111
-0.00122321
-0.00141651
-0.00163581
-0.00189377
-0.00219672
-0.00257661
-0.0030359
-0.00353623
-0.00408233
-0.00468045
-0.0053382
-0.00606632
-0.00687831
-0.00778848
-0.00881229
-0.00996907
-0.0112829
-0.0127815
-0.0144977
-0.0164717
-0.0187519
-0.0213961
-0.0244731
-0.0280721
-0.0323055
-0.000292845
-6.59451e-05
3.75986e-06
6.97658e-05
0.000132358
0.000185669
0.000228702
0.000261191
0.000283488
0.000296673
0.000302552
0.000303483
0.000302013
0.000300255
0.000299077
0.000297265
0.000290958
0.000273752
0.000237775
0.000175794
8.39094e-05
-3.61855e-05
-0.000176787
-0.00032667
-0.000476136
-0.000622293
-0.000771374
-0.000936205
-0.00112974
-0.00135981
-0.00165244
-0.00200982
-0.00240081
-0.0028281
-0.00329522
-0.00380656
-0.00436982
-0.0049968
-0.00570145
-0.00649907
-0.0074076
-0.00844847
-0.0096463
-0.0110304
-0.0126368
-0.0145098
-0.0167022
-0.0192771
-0.0223163
-0.025922
-0.000229641
1.86681e-05
0.00011034
0.000198581
0.000282603
0.00035637
0.00041892
0.000469842
0.000509276
0.000538148
0.000558216
0.000571974
0.000582353
0.000592159
0.000603275
0.000615744
0.000627025
0.000631783
0.000622595
0.000591741
0.000533848
0.000448554
0.000341801
0.000224393
0.00010761
-2.30577e-06
-0.000107654
-0.000218422
-0.000346941
-0.000502132
-0.000704103
-0.000955351
-0.00123284
-0.00153754
-0.00187033
-0.00223244
-0.0026284
-0.00306751
-0.00356245
-0.00412761
-0.00477935
-0.00553658
-0.00642082
-0.00745763
-0.00867877
-0.0101233
-0.0118387
-0.0138811
-0.0163232
-0.0192564
-0.000164617
0.000107545
0.000222624
0.000332815
0.000436543
0.000529526
0.000611176
0.000680691
0.000737866
0.000783363
0.000818746
0.000846466
0.000869657
0.000891656
0.000915246
0.000941708
0.000969929
0.000995899
0.00101301
0.00101348
0.000990742
0.000942402
0.00087226
0.000790005
0.000707741
0.000634605
0.00057236
0.000514611
0.000450681
0.000371281
0.000262404
0.000120949
-3.90907e-05
-0.000217311
-0.000412268
-0.000622381
-0.000848997
-0.00109851
-0.00138132
-0.00171003
-0.00209893
-0.00256422
-0.00312434
-0.00380102
-0.0046214
-0.00561909
-0.00683509
-0.00831803
-0.01013
-0.0123509
-0.000119404
0.000195914
0.000339684
0.00046658
0.000586394
0.00069813
0.000799581
0.000888791
0.000965124
0.00102888
0.00108129
0.00112461
0.00116203
0.00119726
0.00123384
0.00127423
0.00131879
0.00136506
0.0014076
0.00143901
0.00145198
0.00144227
0.00141131
0.00136705
0.00132157
0.00128618
0.00126653
0.00126035
0.00125964
0.00125571
0.00124107
0.00121209
0.00117299
0.00112506
0.00107159
0.00101643
0.000961081
0.000902291
0.000832666
0.000742351
0.000619835
0.000451969
0.000223639
-8.3003e-05
-0.000490262
-0.00102586
-0.00172383
-0.00262467
-0.00377859
-0.00525324
-8.76408e-05
0.000272788
0.000440667
0.00058134
0.000720665
0.000854955
0.000978798
0.00108991
0.00118757
0.00127173
0.00134325
0.00140416
0.00145758
0.00150742
0.00155785
0.00161237
0.00167281
0.00173838
0.00180516
0.00186659
0.00191514
0.00194507
0.00195548
0.00195207
0.001946
0.00194989
0.00197274
0.00201658
0.002077
0.002147
0.00222624
0.00231101
0.00239543
0.00248121
0.0025728
0.00267568
0.00279366
0.00292654
0.00307041
0.00321895
0.00336414
0.00349642
0.00360435
0.00367422
0.00368878
0.00362653
0.00346085
0.00316022
0.00268532
0.00198436
-2.91038e-05
0.000344517
0.000522809
0.000683185
0.00084761
0.00100576
0.0011522
0.00128574
0.00140561
0.00151135
0.00160346
0.00168363
0.00175472
0.00182068
0.00188603
0.00195514
0.00203121
0.00211514
0.00220476
0.00229481
0.00237808
0.0024479
0.00250123
0.00254126
0.00257747
0.00262274
0.00268862
0.00278126
0.00290039
0.00304177
0.00321296
0.00341108
0.00362025
0.00384217
0.0040819
0.00434576
0.00463919
0.00496478
0.00532222
0.00570919
0.0061218
0.00655457
0.00700024
0.00744955
0.00789065
0.00830853
0.00868437
0.00899584
0.00921549
0.00930732
3.11682e-05
0.000399089
0.000590164
0.000776485
0.000966868
0.00114828
0.00131761
0.00147429
0.00161725
0.00174571
0.00185983
0.00196091
0.00205145
0.0021352
0.00221684
0.00230135
0.00239309
0.00249462
0.00260564
0.00272254
0.00283904
0.00294812
0.00304511
0.00313065
0.00321197
0.00330119
0.00341138
0.00355221
0.00372775
0.00393735
0.00419727
0.00450656
0.00483996
0.00519901
0.00558881
0.00601587
0.00648665
0.00700598
0.00757705
0.00820165
0.00888037
0.00961223
0.0103946
0.011223
0.0120915
0.0129917
0.013913
0.0148425
0.0157648
0.01666
7.09706e-05
0.000438064
0.000647203
0.000858517
0.00107242
0.00127688
0.00147007
0.00165111
0.00181852
0.00197125
0.00210915
0.00223306
0.00234509
0.00244863
0.0025483
0.00264945
0.00275734
0.00287603
0.00300713
0.00314896
0.00329664
0.00344355
0.00358396
0.00371629
0.00384517
0.00398112
0.00413758
0.00432685
0.00455704
0.00483162
0.00517618
0.00559291
0.00604815
0.00654339
0.00708347
0.00767463
0.00832377
0.00903749
0.00982208
0.0106833
0.0116262
0.0126545
0.0137704
0.014975
0.016268
0.0176485
0.0191139
0.0206611
0.0222869
0.0239872
0.000106252
0.000480468
0.000707572
0.000938811
0.00117216
0.00139745
0.00161308
0.00181768
0.0020094
0.00218692
0.00234964
0.00249791
0.00263326
0.0027586
0.00287824
0.00299759
0.00312255
0.00325841
0.00340857
0.00357342
0.00374992
0.00393247
0.00411508
0.00429445
0.00447264
0.00465794
0.0048631
0.00510191
0.00538588
0.00572264
0.00614753
0.00666684
0.00723984
0.00786824
0.00855664
0.00931081
0.0101378
0.0110455
0.0120428
0.0131391
0.0143437
0.0156648
0.0171098
0.0186851
0.0203969
0.0222514
0.0242546
0.0264131
0.0287358
0.0312341
0.000139324
0.00052508
0.000768818
0.001017
0.00126788
0.00151232
0.00174868
0.00197539
0.00219052
0.00239251
0.00258036
0.00275387
0.00291394
0.00306285
0.00320438
0.00334373
0.00348706
0.00364056
0.00380918
0.00399537
0.00419822
0.00441371
0.00463637
0.00486189
0.00509012
0.00532682
0.00558319
0.00587336
0.00621123
0.00660821
0.00710947
0.00772607
0.00841146
0.00916806
0.0100005
0.0109143
0.0119164
0.013016
0.014224
0.0155528
0.0170155
0.0186247
0.0203926
0.0223313
0.0244534
0.0267722
0.0293022
0.0320597
0.0350657
0.0383465
0.000168694
0.000566843
0.000825174
0.00108874
0.00135619
0.00161873
0.0018747
0.00212257
0.00236044
0.00258657
0.00279964
0.00299899
0.00318489
0.00335893
0.00352423
0.00368551
0.00384884
0.00402093
0.00420795
0.00441423
0.00464107
0.00488654
0.00514633
0.00541601
0.00569379
0.00598301
0.00629274
0.00663641
0.00702917
0.00748548
0.00806004
0.00876883
0.00956057
0.010439
0.0114091
0.0124766
0.0136489
0.0149359
0.0163504
0.0179074
0.0196232
0.0215142
0.0235973
0.02589
0.028411
0.0311809
0.0342223
0.0375613
0.0412305
0.0452701
0.000194805
0.000604494
0.000875745
0.00115325
0.00143596
0.00171524
0.00198959
0.00225763
0.00251746
0.00276726
0.00300549
0.00323105
0.00344366
0.0036442
0.00383503
0.00402022
0.00420544
0.00439752
0.00460346
0.00482914
0.00507805
0.00535053
0.00564409
0.00595497
0.00628055
0.00662215
0.00698656
0.00738574
0.00783493
0.00835066
0.0089966
0.00979323
0.0106853
0.0116782
0.0127782
0.0139916
0.0153266
0.0167941
0.0184086
0.020187
0.0221485
0.024313
0.0267014
0.0293362
0.0322421
0.0354465
0.0389798
0.0428775
0.0471834
0.0519507
0.00021822
0.000638314
0.000920959
0.00121087
0.00150729
0.00180176
0.00209305
0.00237995
0.00266066
0.00293334
0.00319627
0.00344805
0.00368788
0.00391596
0.00413388
0.00434489
0.00455405
0.0047679
0.00499383
0.00523891
0.00550853
0.00580539
0.00612923
0.00647765
0.00684811
0.00724061
0.00765985
0.00811586
0.00862308
0.00919902
0.00991549
0.0107967
0.0117836
0.0128837
0.0141049
0.0154548
0.016943
0.0185818
0.0203871
0.0223778
0.0245751
0.0270019
0.029683
0.0326453
0.035919
0.0395377
0.0435391
0.0479677
0.0528779
0.0583347
0.000239153
0.000668458
0.000960977
0.00126176
0.00157034
0.00187846