/*--------------------------------*- C++ -*----------------------------------*\
  =========                 |
  \\      /  F ield         | OpenFOAM: The Open Source CFD Toolbox
   \\    /   O peration     | Website:  https://openfoam.org
    \\  /    A nd           | Version:  9
     \\/     M anipulation  |
\*---------------------------------------------------------------------------*/
FoamFile
{
    format      ascii;
    class       volScalarField;
    location    "0.06";
    object      rAU;
}
// * * * * * * * * * * * * * * * * * * * * * * * * * * * * * * * * * * * * * //

dimensions      [-1 3 1 0 0 0 0];

internalField   nonuniform List<scalar> 
5000
(
2.0243e-05
2.5319e-05
2.57508e-05
2.61571e-05
2.65385e-05
2.68959e-05
2.72299e-05
2.75417e-05
2.78323e-05
2.81028e-05
2.83543e-05
2.85881e-05
2.88052e-05
2.90068e-05
2.9194e-05
2.93679e-05
2.95295e-05
2.96799e-05
2.98199e-05
2.99504e-05
3.00724e-05
3.01867e-05
3.0294e-05
3.03927e-05
3.04807e-05
3.05609e-05
3.06363e-05
3.07074e-05
3.07745e-05
3.08562e-05
3.10039e-05
3.10399e-05
3.10592e-05
3.10777e-05
3.10953e-05
3.11119e-05
3.11274e-05
3.11418e-05
3.11551e-05
3.11673e-05
3.11788e-05
3.11902e-05
3.12023e-05
3.12164e-05
3.12343e-05
3.12584e-05
3.12904e-05
3.13302e-05
3.13738e-05
3.14115e-05
2.02228e-05
2.53032e-05
2.57356e-05
2.61423e-05
2.6524e-05
2.68815e-05
2.72158e-05
2.75278e-05
2.78185e-05
2.80892e-05
2.83409e-05
2.85748e-05
2.8792e-05
2.89937e-05
2.91811e-05
2.9355e-05
2.95167e-05
2.9667e-05
2.9807e-05
2.99375e-05
3.00595e-05
3.01736e-05
3.02807e-05
3.03815e-05
3.04767e-05
3.05627e-05
3.06388e-05
3.07093e-05
3.07759e-05
3.08571e-05
3.10029e-05
3.10388e-05
3.1058e-05
3.10765e-05
3.10942e-05
3.1111e-05
3.11269e-05
3.11419e-05
3.11559e-05
3.11692e-05
3.11821e-05
3.1195e-05
3.1209e-05
3.12251e-05
3.12451e-05
3.12708e-05
3.13037e-05
3.1343e-05
3.13846e-05
3.14186e-05
2.02081e-05
2.52903e-05
2.57223e-05
2.61285e-05
2.65099e-05
2.68674e-05
2.72016e-05
2.75137e-05
2.78045e-05
2.80753e-05
2.83271e-05
2.85612e-05
2.87786e-05
2.89804e-05
2.91678e-05
2.93419e-05
2.95036e-05
2.9654e-05
2.9794e-05
2.99245e-05
3.00463e-05
3.01603e-05
3.02673e-05
3.03679e-05
3.04628e-05
3.05527e-05
3.06373e-05
3.07119e-05
3.0778e-05
3.08586e-05
3.10027e-05
3.10385e-05
3.10577e-05
3.10762e-05
3.10941e-05
3.11112e-05
3.11276e-05
3.11432e-05
3.11581e-05
3.11724e-05
3.11865e-05
3.12011e-05
3.12167e-05
3.12348e-05
3.12566e-05
3.12837e-05
3.13172e-05
3.13561e-05
3.13958e-05
3.14267e-05
2.01907e-05
2.52746e-05
2.57071e-05
2.61135e-05
2.6495e-05
2.68525e-05
2.71869e-05
2.74991e-05
2.77901e-05
2.8061e-05
2.8313e-05
2.85472e-05
2.87648e-05
2.89668e-05
2.91543e-05
2.93285e-05
2.94903e-05
2.96407e-05
2.97808e-05
2.99112e-05
3.0033e-05
3.01469e-05
3.02538e-05
3.03542e-05
3.04489e-05
3.05386e-05
3.06237e-05
3.07048e-05
3.07786e-05
3.08609e-05
3.10033e-05
3.1039e-05
3.10582e-05
3.10769e-05
3.1095e-05
3.11125e-05
3.11293e-05
3.11456e-05
3.11614e-05
3.11768e-05
3.11922e-05
3.12082e-05
3.12255e-05
3.12453e-05
3.12687e-05
3.12971e-05
3.13313e-05
3.13697e-05
3.14077e-05
3.14358e-05
2.01721e-05
2.52574e-05
2.56903e-05
2.60971e-05
2.64789e-05
2.68368e-05
2.71714e-05
2.74838e-05
2.77751e-05
2.80463e-05
2.82985e-05
2.85329e-05
2.87506e-05
2.89528e-05
2.91405e-05
2.93148e-05
2.94768e-05
2.96273e-05
2.97674e-05
2.98979e-05
3.00196e-05
3.01335e-05
3.02402e-05
3.03405e-05
3.0435e-05
3.05244e-05
3.06093e-05
3.06901e-05
3.07673e-05
3.08585e-05
3.10045e-05
3.10402e-05
3.10595e-05
3.10784e-05
3.10968e-05
3.11147e-05
3.11322e-05
3.11491e-05
3.11658e-05
3.11822e-05
3.11989e-05
3.12163e-05
3.12352e-05
3.12566e-05
3.12815e-05
3.13111e-05
3.13457e-05
3.13838e-05
3.14203e-05
3.1446e-05
2.01529e-05
2.524e-05
2.56732e-05
2.60802e-05
2.64623e-05
2.68205e-05
2.71554e-05
2.74681e-05
2.77597e-05
2.80311e-05
2.82836e-05
2.85182e-05
2.87362e-05
2.89386e-05
2.91265e-05
2.9301e-05
2.9463e-05
2.96137e-05
2.97538e-05
2.98844e-05
3.00062e-05
3.012e-05
3.02267e-05
3.03268e-05
3.04212e-05
3.05104e-05
3.0595e-05
3.06754e-05
3.07523e-05
3.08439e-05
3.09978e-05
3.1041e-05
3.10616e-05
3.10808e-05
3.10995e-05
3.11179e-05
3.11359e-05
3.11536e-05
3.11712e-05
3.11887e-05
3.12066e-05
3.12254e-05
3.12458e-05
3.12686e-05
3.1295e-05
3.13257e-05
3.13608e-05
3.13985e-05
3.14337e-05
3.14571e-05
2.01332e-05
2.52223e-05
2.56556e-05
2.60629e-05
2.64453e-05
2.68038e-05
2.7139e-05
2.7452e-05
2.77438e-05
2.80156e-05
2.82683e-05
2.85033e-05
2.87215e-05
2.89241e-05
2.91122e-05
2.92869e-05
2.94491e-05
2.95999e-05
2.97402e-05
2.98708e-05
2.99926e-05
3.01065e-05
3.02131e-05
3.03132e-05
3.04074e-05
3.04964e-05
3.05808e-05
3.0661e-05
3.07375e-05
3.08288e-05
3.09835e-05
3.10311e-05
3.10606e-05
3.10839e-05
3.1103e-05
3.11219e-05
3.11406e-05
3.11591e-05
3.11775e-05
3.11961e-05
3.12153e-05
3.12354e-05
3.12572e-05
3.12815e-05
3.13091e-05
3.13408e-05
3.13764e-05
3.14137e-05
3.14477e-05
3.14693e-05
2.01132e-05
2.52041e-05
2.56377e-05
2.60452e-05
2.64279e-05
2.67867e-05
2.71222e-05
2.74355e-05
2.77277e-05
2.79997e-05
2.82528e-05
2.8488e-05
2.87065e-05
2.89094e-05
2.90978e-05
2.92726e-05
2.94351e-05
2.9586e-05
2.97264e-05
2.98571e-05
2.9979e-05
3.00929e-05
3.01995e-05
3.02996e-05
3.03937e-05
3.04826e-05
3.05668e-05
3.06468e-05
3.0723e-05
3.08139e-05
3.09695e-05
3.10162e-05
3.10475e-05
3.10791e-05
3.11061e-05
3.11268e-05
3.11461e-05
3.11654e-05
3.11848e-05
3.12044e-05
3.12248e-05
3.12462e-05
3.12694e-05
3.1295e-05
3.13239e-05
3.13565e-05
3.13925e-05
3.14296e-05
3.14625e-05
3.14824e-05
2.00926e-05
2.51855e-05
2.56193e-05
2.60271e-05
2.64101e-05
2.67692e-05
2.71051e-05
2.74187e-05
2.77112e-05
2.79836e-05
2.8237e-05
2.84725e-05
2.86913e-05
2.88945e-05
2.90831e-05
2.92582e-05
2.94209e-05
2.9572e-05
2.97126e-05
2.98434e-05
2.99654e-05
3.00794e-05
3.0186e-05
3.0286e-05
3.03801e-05
3.04689e-05
3.0553e-05
3.06328e-05
3.07088e-05
3.07994e-05
3.0956e-05
3.10019e-05
3.10323e-05
3.1063e-05
3.10941e-05
3.11256e-05
3.11519e-05
3.11725e-05
3.11928e-05
3.12135e-05
3.1235e-05
3.12578e-05
3.12823e-05
3.13092e-05
3.13393e-05
3.13728e-05
3.14092e-05
3.14461e-05
3.14781e-05
3.14964e-05
2.00715e-05
2.51664e-05
2.56005e-05
2.60086e-05
2.6392e-05
2.67514e-05
2.70876e-05
2.74017e-05
2.76945e-05
2.79673e-05
2.8221e-05
2.84569e-05
2.8676e-05
2.88794e-05
2.90683e-05
2.92437e-05
2.94066e-05
2.95579e-05
2.96987e-05
2.98297e-05
2.99518e-05
3.00658e-05
3.01725e-05
3.02726e-05
3.03667e-05
3.04554e-05
3.05393e-05
3.0619e-05
3.06949e-05
3.07853e-05
3.09429e-05
3.0988e-05
3.10176e-05
3.10476e-05
3.10778e-05
3.11084e-05
3.11393e-05
3.11703e-05
3.11991e-05
3.12234e-05
3.12461e-05
3.127e-05
3.12958e-05
3.13241e-05
3.13553e-05
3.13897e-05
3.14265e-05
3.14631e-05
3.14943e-05
3.15114e-05
2.00499e-05
2.5147e-05
2.55814e-05
2.59899e-05
2.63736e-05
2.67334e-05
2.707e-05
2.73844e-05
2.76776e-05
2.79507e-05
2.82048e-05
2.8441e-05
2.86605e-05
2.88643e-05
2.90535e-05
2.92291e-05
2.93923e-05
2.95438e-05
2.96848e-05
2.98159e-05
2.99382e-05
3.00524e-05
3.01591e-05
3.02592e-05
3.03533e-05
3.04421e-05
3.05259e-05
3.06055e-05
3.06812e-05
3.07714e-05
3.09302e-05
3.09746e-05
3.10035e-05
3.10327e-05
3.10623e-05
3.10921e-05
3.11222e-05
3.11525e-05
3.1183e-05
3.12138e-05
3.12451e-05
3.12773e-05
3.13088e-05
3.13395e-05
3.13718e-05
3.1407e-05
3.14443e-05
3.14808e-05
3.15113e-05
3.15274e-05
2.00281e-05
2.51272e-05
2.55621e-05
2.5971e-05
2.63551e-05
2.67153e-05
2.70523e-05
2.7367e-05
2.76606e-05
2.79341e-05
2.81885e-05
2.84251e-05
2.86449e-05
2.8849e-05
2.90385e-05
2.92145e-05
2.93779e-05
2.95297e-05
2.96708e-05
2.98022e-05
2.99247e-05
3.0039e-05
3.01458e-05
3.0246e-05
3.03402e-05
3.04289e-05
3.05128e-05
3.05923e-05
3.06679e-05
3.0758e-05
3.09179e-05
3.09616e-05
3.09899e-05
3.10185e-05
3.10473e-05
3.10765e-05
3.11059e-05
3.11356e-05
3.11655e-05
3.11957e-05
3.12264e-05
3.1258e-05
3.12908e-05
3.13253e-05
3.13621e-05
3.14015e-05
3.14432e-05
3.14853e-05
3.15235e-05
3.1544e-05
2.00062e-05
2.51074e-05
2.55428e-05
2.59521e-05
2.63366e-05
2.66971e-05
2.70345e-05
2.73496e-05
2.76436e-05
2.79174e-05
2.81722e-05
2.84091e-05
2.86293e-05
2.88337e-05
2.90235e-05
2.91998e-05
2.93635e-05
2.95156e-05
2.9657e-05
2.97886e-05
2.99112e-05
3.00256e-05
3.01327e-05
3.0233e-05
3.03272e-05
3.04159e-05
3.04998e-05
3.05793e-05
3.06549e-05
3.07449e-05
3.09061e-05
3.09492e-05
3.09769e-05
3.10048e-05
3.10331e-05
3.10617e-05
3.10905e-05
3.11196e-05
3.11489e-05
3.11786e-05
3.12089e-05
3.12399e-05
3.12721e-05
3.13061e-05
3.13421e-05
3.13805e-05
3.14208e-05
3.14608e-05
3.14964e-05
3.15203e-05
1.99845e-05
2.50876e-05
2.55235e-05
2.59333e-05
2.63182e-05
2.66791e-05
2.70168e-05
2.73322e-05
2.76265e-05
2.79007e-05
2.81558e-05
2.83931e-05
2.86136e-05
2.88184e-05
2.90085e-05
2.91851e-05
2.93491e-05
2.95014e-05
2.96431e-05
2.97749e-05
2.98978e-05
3.00124e-05
3.01196e-05
3.022e-05
3.03144e-05
3.04032e-05
3.04871e-05
3.05667e-05
3.06422e-05
3.07322e-05
3.08946e-05
3.09373e-05
3.09644e-05
3.09918e-05
3.10196e-05
3.10476e-05
3.10759e-05
3.11045e-05
3.11334e-05
3.11626e-05
3.11924e-05
3.1223e-05
3.12547e-05
3.12881e-05
3.13235e-05
3.13609e-05
3.13997e-05
3.14378e-05
3.14709e-05
3.14919e-05
1.99631e-05
2.5068e-05
2.55044e-05
2.59146e-05
2.62999e-05
2.66611e-05
2.69991e-05
2.73149e-05
2.76095e-05
2.7884e-05
2.81395e-05
2.83771e-05
2.85979e-05
2.8803e-05
2.89935e-05
2.91704e-05
2.93347e-05
2.94874e-05
2.96293e-05
2.97614e-05
2.98845e-05
2.99993e-05
3.01067e-05
3.02073e-05
3.03018e-05
3.03907e-05
3.04747e-05
3.05543e-05
3.06299e-05
3.07199e-05
3.08837e-05
3.09258e-05
3.09525e-05
3.09794e-05
3.10067e-05
3.10343e-05
3.10622e-05
3.10903e-05
3.11187e-05
3.11476e-05
3.1177e-05
3.12072e-05
3.12385e-05
3.12714e-05
3.13061e-05
3.13426e-05
3.13801e-05
3.14164e-05
3.14471e-05
3.14654e-05
1.99422e-05
2.50485e-05
2.54853e-05
2.5896e-05
2.62816e-05
2.66431e-05
2.69814e-05
2.72975e-05
2.75924e-05
2.78673e-05
2.81231e-05
2.83611e-05
2.85822e-05
2.87877e-05
2.89785e-05
2.91558e-05
2.93204e-05
2.94734e-05
2.96156e-05
2.9748e-05
2.98713e-05
2.99864e-05
3.00939e-05
3.01947e-05
3.02894e-05
3.03784e-05
3.04626e-05
3.05422e-05
3.06179e-05
3.07079e-05
3.08731e-05
3.09148e-05
3.09411e-05
3.09676e-05
3.09945e-05
3.10217e-05
3.10492e-05
3.10769e-05
3.1105e-05
3.11335e-05
3.11626e-05
3.11925e-05
3.12235e-05
3.12559e-05
3.129e-05
3.13256e-05
3.13618e-05
3.13965e-05
3.1425e-05
3.14409e-05
1.99212e-05
2.5029e-05
2.54661e-05
2.58772e-05
2.62632e-05
2.6625e-05
2.69636e-05
2.72801e-05
2.75753e-05
2.78505e-05
2.81067e-05
2.8345e-05
2.85666e-05
2.87724e-05
2.89636e-05
2.91412e-05
2.93061e-05
2.94594e-05
2.9602e-05
2.97346e-05
2.98582e-05
2.99736e-05
3.00814e-05
3.01824e-05
3.02772e-05
3.03664e-05
3.04507e-05
3.05305e-05
3.06063e-05
3.06964e-05
3.08629e-05
3.09043e-05
3.09302e-05
3.09564e-05
3.09829e-05
3.10098e-05
3.1037e-05
3.10644e-05
3.10922e-05
3.11205e-05
3.11493e-05
3.11789e-05
3.12096e-05
3.12416e-05
3.12751e-05
3.13099e-05
3.1345e-05
3.13781e-05
3.14047e-05
3.14183e-05
1.98999e-05
2.50093e-05
2.54467e-05
2.58581e-05
2.62445e-05
2.66067e-05
2.69457e-05
2.72625e-05
2.75582e-05
2.78337e-05
2.80903e-05
2.8329e-05
2.85509e-05
2.87571e-05
2.89487e-05
2.91266e-05
2.92919e-05
2.94456e-05
2.95884e-05
2.97214e-05
2.98453e-05
2.99609e-05
3.0069e-05
3.01702e-05
3.02652e-05
3.03547e-05
3.04391e-05
3.0519e-05
3.0595e-05
3.06852e-05
3.08532e-05
3.08942e-05
3.09198e-05
3.09458e-05
3.0972e-05
3.09986e-05
3.10255e-05
3.10527e-05
3.10803e-05
3.11083e-05
3.1137e-05
3.11664e-05
3.11968e-05
3.12285e-05
3.12615e-05
3.12956e-05
3.13296e-05
3.13612e-05
3.1386e-05
3.13977e-05
1.98784e-05
2.49894e-05
2.54271e-05
2.58389e-05
2.62257e-05
2.65884e-05
2.69277e-05
2.72449e-05
2.75409e-05
2.78169e-05
2.80738e-05
2.83129e-05
2.85353e-05
2.87419e-05
2.89338e-05
2.91121e-05
2.92778e-05
2.94318e-05
2.9575e-05
2.97083e-05
2.98325e-05
2.99484e-05
3.00568e-05
3.01582e-05
3.02535e-05
3.03432e-05
3.04278e-05
3.05079e-05
3.05841e-05
3.06744e-05
3.08439e-05
3.08847e-05
3.091e-05
3.09357e-05
3.09617e-05
3.09881e-05
3.10148e-05
3.10418e-05
3.10693e-05
3.10971e-05
3.11256e-05
3.11549e-05
3.11851e-05
3.12165e-05
3.12491e-05
3.12826e-05
3.13156e-05
3.13459e-05
3.13691e-05
3.1379e-05
1.98568e-05
2.49695e-05
2.54075e-05
2.58197e-05
2.62069e-05
2.65699e-05
2.69097e-05
2.72273e-05
2.75237e-05
2.78e-05
2.80574e-05
2.82969e-05
2.85196e-05
2.87267e-05
2.8919e-05
2.90977e-05
2.92638e-05
2.94181e-05
2.95617e-05
2.96953e-05
2.98199e-05
2.99361e-05
3.00447e-05
3.01465e-05
3.0242e-05
3.03319e-05
3.04168e-05
3.04971e-05
3.05735e-05
3.0664e-05
3.0835e-05
3.08755e-05
3.09007e-05
3.09262e-05
3.0952e-05
3.09782e-05
3.10048e-05
3.10317e-05
3.1059e-05
3.10869e-05
3.11153e-05
3.11444e-05
3.11745e-05
3.12057e-05
3.1238e-05
3.12708e-05
3.1303e-05
3.13321e-05
3.13538e-05
3.13623e-05
1.98352e-05
2.49497e-05
2.53879e-05
2.58004e-05
2.6188e-05
2.65514e-05
2.68916e-05
2.72096e-05
2.75064e-05
2.77832e-05
2.8041e-05
2.82809e-05
2.85041e-05
2.87115e-05
2.89043e-05
2.90834e-05
2.92499e-05
2.94046e-05
2.95486e-05
2.96825e-05
2.98074e-05
2.9924e-05
3.00329e-05
3.0135e-05
3.02308e-05
3.0321e-05
3.04061e-05
3.04867e-05
3.05632e-05
3.0654e-05
3.08265e-05
3.08669e-05
3.08919e-05
3.09172e-05
3.09429e-05
3.0969e-05
3.09955e-05
3.10224e-05
3.10497e-05
3.10774e-05
3.11058e-05
3.1135e-05
3.1165e-05
3.1196e-05
3.1228e-05
3.12603e-05
3.12917e-05
3.13198e-05
3.13403e-05
3.13475e-05
1.98135e-05
2.49298e-05
2.53682e-05
2.57811e-05
2.6169e-05
2.65328e-05
2.68735e-05
2.71919e-05
2.74891e-05
2.77664e-05
2.80246e-05
2.8265e-05
2.84886e-05
2.86964e-05
2.88896e-05
2.90692e-05
2.92361e-05
2.93912e-05
2.95355e-05
2.96699e-05
2.97951e-05
2.9912e-05
3.00213e-05
3.01237e-05
3.02198e-05
3.03103e-05
3.03957e-05
3.04765e-05
3.05533e-05
3.06443e-05
3.08184e-05
3.08586e-05
3.08835e-05
3.09088e-05
3.09344e-05
3.09605e-05
3.09869e-05
3.10138e-05
3.10411e-05
3.10689e-05
3.10973e-05
3.11265e-05
3.11565e-05
3.11875e-05
3.12192e-05
3.12511e-05
3.12818e-05
3.13089e-05
3.13283e-05
3.13346e-05
1.97917e-05
2.49099e-05
2.53485e-05
2.57617e-05
2.61501e-05
2.65143e-05
2.68553e-05
2.71742e-05
2.74719e-05
2.77496e-05
2.80083e-05
2.82491e-05
2.84731e-05
2.86815e-05
2.88751e-05
2.90551e-05
2.92224e-05
2.93779e-05
2.95227e-05
2.96574e-05
2.9783e-05
2.99003e-05
3.00099e-05
3.01126e-05
3.02091e-05
3.02998e-05
3.03855e-05
3.04667e-05
3.05438e-05
3.06351e-05
3.08107e-05
3.08508e-05
3.08756e-05
3.09008e-05
3.09265e-05
3.09525e-05
3.0979e-05
3.10059e-05
3.10333e-05
3.10612e-05
3.10897e-05
3.11189e-05
3.1149e-05
3.118e-05
3.12115e-05
3.12431e-05
3.12733e-05
3.12996e-05
3.1318e-05
3.13234e-05
1.977e-05
2.489e-05
2.53289e-05
2.57424e-05
2.61311e-05
2.64958e-05
2.68372e-05
2.71565e-05
2.74547e-05
2.77328e-05
2.7992e-05
2.82333e-05
2.84578e-05
2.86666e-05
2.88607e-05
2.90411e-05
2.92088e-05
2.93648e-05
2.951e-05
2.96451e-05
2.97711e-05
2.98888e-05
2.99988e-05
3.01018e-05
3.01986e-05
3.02897e-05
3.03757e-05
3.04572e-05
3.05346e-05
3.06262e-05
3.08033e-05
3.08434e-05
3.08682e-05
3.08934e-05
3.09191e-05
3.09451e-05
3.09717e-05
3.09987e-05
3.10262e-05
3.10543e-05
3.10829e-05
3.11123e-05
3.11426e-05
3.11735e-05
3.1205e-05
3.12363e-05
3.1266e-05
3.12916e-05
3.13092e-05
3.13139e-05
1.97483e-05
2.48702e-05
2.53093e-05
2.57232e-05
2.61123e-05
2.64773e-05
2.68192e-05
2.7139e-05
2.74376e-05
2.77162e-05
2.79758e-05
2.82176e-05
2.84426e-05
2.86518e-05
2.88464e-05
2.90273e-05
2.91955e-05
2.93519e-05
2.94974e-05
2.9633e-05
2.97594e-05
2.98774e-05
2.99878e-05
3.00912e-05
3.01883e-05
3.02798e-05
3.03662e-05
3.0448e-05
3.05257e-05
3.06176e-05
3.07963e-05
3.08364e-05
3.08612e-05
3.08865e-05
3.09122e-05
3.09384e-05
3.0965e-05
3.09922e-05
3.10199e-05
3.10481e-05
3.1077e-05
3.11066e-05
3.1137e-05
3.11681e-05
3.11996e-05
3.12307e-05
3.126e-05
3.12851e-05
3.1302e-05
3.13061e-05
1.97268e-05
2.48506e-05
2.52899e-05
2.57041e-05
2.60935e-05
2.6459e-05
2.68013e-05
2.71215e-05
2.74206e-05
2.76997e-05
2.79598e-05
2.82021e-05
2.84275e-05
2.86372e-05
2.88323e-05
2.90136e-05
2.91822e-05
2.93391e-05
2.94851e-05
2.96211e-05
2.97479e-05
2.98663e-05
2.99771e-05
3.00809e-05
3.01784e-05
3.02702e-05
3.03569e-05
3.04391e-05
3.05172e-05
3.06094e-05
3.07897e-05
3.08298e-05
3.08547e-05
3.088e-05
3.09058e-05
3.09321e-05
3.0959e-05
3.09863e-05
3.10142e-05
3.10428e-05
3.10719e-05
3.11018e-05
3.11325e-05
3.11637e-05
3.11953e-05
3.12263e-05
3.12553e-05
3.12799e-05
3.12963e-05
3.12999e-05
1.97056e-05
2.48311e-05
2.52707e-05
2.56852e-05
2.6075e-05
2.64408e-05
2.67836e-05
2.71042e-05
2.74038e-05
2.76833e-05
2.79439e-05
2.81867e-05
2.84126e-05
2.86228e-05
2.88183e-05
2.90001e-05
2.91692e-05
2.93265e-05
2.94729e-05
2.96094e-05
2.97366e-05
2.98554e-05
2.99666e-05
3.00708e-05
3.01687e-05
3.02609e-05
3.03479e-05
3.04305e-05
3.0509e-05
3.06016e-05
3.07834e-05
3.08236e-05
3.08485e-05
3.0874e-05
3.08999e-05
3.09264e-05
3.09535e-05
3.09811e-05
3.10093e-05
3.10381e-05
3.10676e-05
3.10978e-05
3.11288e-05
3.11603e-05
3.1192e-05
3.1223e-05
3.12519e-05
3.12761e-05
3.12921e-05
3.12953e-05
1.96846e-05
2.48119e-05
2.52517e-05
2.56665e-05
2.60566e-05
2.64229e-05
2.6766e-05
2.70871e-05
2.73871e-05
2.76672e-05
2.79282e-05
2.81714e-05
2.83978e-05
2.86085e-05
2.88045e-05
2.89868e-05
2.91563e-05
2.93141e-05
2.9461e-05
2.95979e-05
2.97255e-05
2.98448e-05
2.99563e-05
3.00609e-05
3.01592e-05
3.02518e-05
3.03392e-05
3.04222e-05
3.05011e-05
3.05941e-05
3.07774e-05
3.08177e-05
3.08428e-05
3.08684e-05
3.08945e-05
3.09212e-05
3.09485e-05
3.09764e-05
3.1005e-05
3.10342e-05
3.10641e-05
3.10947e-05
3.1126e-05
3.11578e-05
3.11897e-05
3.12209e-05
3.12497e-05
3.12737e-05
3.12894e-05
3.12924e-05
1.96639e-05
2.47929e-05
2.5233e-05
2.5648e-05
2.60385e-05
2.64051e-05
2.67487e-05
2.70702e-05
2.73707e-05
2.76512e-05
2.79127e-05
2.81564e-05
2.83833e-05
2.85944e-05
2.87909e-05
2.89736e-05
2.91436e-05
2.93019e-05
2.94492e-05
2.95865e-05
2.97146e-05
2.98343e-05
2.99463e-05
3.00513e-05
3.015e-05
3.0243e-05
3.03308e-05
3.04142e-05
3.04934e-05
3.05869e-05
3.07718e-05
3.08122e-05
3.08374e-05
3.08632e-05
3.08895e-05
3.09165e-05
3.09441e-05
3.09724e-05
3.10013e-05
3.10309e-05
3.10612e-05
3.10923e-05
3.11241e-05
3.11563e-05
3.11885e-05
3.12198e-05
3.12487e-05
3.12726e-05
3.12881e-05
3.1291e-05
1.96434e-05
2.47742e-05
2.52144e-05
2.56297e-05
2.60206e-05
2.63876e-05
2.67316e-05
2.70535e-05
2.73544e-05
2.76354e-05
2.78974e-05
2.81415e-05
2.83689e-05
2.85805e-05
2.87774e-05
2.89607e-05
2.91312e-05
2.92899e-05
2.94377e-05
2.95754e-05
2.9704e-05
2.98241e-05
2.99365e-05
3.00419e-05
3.0141e-05
3.02344e-05
3.03227e-05
3.04064e-05
3.04861e-05
3.058e-05
3.07664e-05
3.08069e-05
3.08324e-05
3.08584e-05
3.0885e-05
3.09123e-05
3.09402e-05
3.09688e-05
3.09982e-05
3.10283e-05
3.10591e-05
3.10907e-05
3.11229e-05
3.11556e-05
3.11883e-05
3.12199e-05
3.12489e-05
3.12729e-05
3.12884e-05
3.12914e-05
1.96233e-05
2.47557e-05
2.51961e-05
2.56117e-05
2.60029e-05
2.63703e-05
2.67147e-05
2.7037e-05
2.73384e-05
2.76198e-05
2.78822e-05
2.81269e-05
2.83547e-05
2.85668e-05
2.87642e-05
2.89479e-05
2.91189e-05
2.92781e-05
2.94263e-05
2.95645e-05
2.96935e-05
2.98141e-05
2.99269e-05
3.00328e-05
3.01323e-05
3.02261e-05
3.03148e-05
3.0399e-05
3.04791e-05
3.05734e-05
3.07613e-05
3.0802e-05
3.08277e-05
3.08539e-05
3.08808e-05
3.09084e-05
3.09368e-05
3.09658e-05
3.09956e-05
3.10262e-05
3.10576e-05
3.10898e-05
3.11226e-05
3.11558e-05
3.1189e-05
3.1221e-05
3.12504e-05
3.12745e-05
3.12902e-05
3.12934e-05
1.96034e-05
2.47374e-05
2.51781e-05
2.5594e-05
2.59855e-05
2.63532e-05
2.6698e-05
2.70208e-05
2.73226e-05
2.76044e-05
2.78674e-05
2.81124e-05
2.83408e-05
2.85533e-05
2.87512e-05
2.89354e-05
2.91068e-05
2.92665e-05
2.94152e-05
2.95539e-05
2.96833e-05
2.98043e-05
2.99176e-05
3.00239e-05
3.01238e-05
3.0218e-05
3.03072e-05
3.03918e-05
3.04723e-05
3.05671e-05
3.07565e-05
3.07974e-05
3.08233e-05
3.08498e-05
3.0877e-05
3.0905e-05
3.09337e-05
3.09633e-05
3.09936e-05
3.10247e-05
3.10567e-05
3.10895e-05
3.1123e-05
3.11569e-05
3.11906e-05
3.12232e-05
3.12529e-05
3.12775e-05
3.12935e-05
3.12972e-05
1.95839e-05
2.47194e-05
2.51603e-05
2.55765e-05
2.59683e-05
2.63364e-05
2.66816e-05
2.70048e-05
2.7307e-05
2.75893e-05
2.78527e-05
2.80982e-05
2.8327e-05
2.85401e-05
2.87384e-05
2.89231e-05
2.9095e-05
2.92551e-05
2.94043e-05
2.95434e-05
2.96733e-05
2.97947e-05
2.99085e-05
3.00152e-05
3.01155e-05
3.02102e-05
3.02998e-05
3.03848e-05
3.04658e-05
3.0561e-05
3.0752e-05
3.07931e-05
3.08192e-05
3.0846e-05
3.08736e-05
3.09019e-05
3.09311e-05
3.09611e-05
3.0992e-05
3.10238e-05
3.10564e-05
3.10899e-05
3.11241e-05
3.11587e-05
3.11931e-05
3.12263e-05
3.12567e-05
3.12818e-05
3.12984e-05
3.13028e-05
1.95646e-05
2.47017e-05
2.51428e-05
2.55592e-05
2.59513e-05
2.63198e-05
2.66654e-05
2.6989e-05
2.72917e-05
2.75744e-05
2.78382e-05
2.80842e-05
2.83135e-05
2.8527e-05
2.87258e-05
2.8911e-05
2.90833e-05
2.92439e-05
2.93935e-05
2.95331e-05
2.96635e-05
2.97854e-05
2.98995e-05
3.00067e-05
3.01075e-05
3.02026e-05
3.02926e-05
3.03781e-05
3.04596e-05
3.05552e-05
3.07476e-05
3.0789e-05
3.08154e-05
3.08425e-05
3.08705e-05
3.08992e-05
3.09289e-05
3.09594e-05
3.09909e-05
3.10233e-05
3.10566e-05
3.10909e-05
3.11259e-05
3.11613e-05
3.11965e-05
3.12304e-05
3.12616e-05
3.12874e-05
3.13048e-05
3.13101e-05
1.95456e-05
2.46843e-05
2.51255e-05
2.55422e-05
2.59346e-05
2.63035e-05
2.66494e-05
2.69735e-05
2.72766e-05
2.75597e-05
2.7824e-05
2.80705e-05
2.83002e-05
2.85142e-05
2.87135e-05
2.88991e-05
2.90719e-05
2.92329e-05
2.9383e-05
2.95231e-05
2.96539e-05
2.97762e-05
2.98908e-05
2.99984e-05
3.00997e-05
3.01952e-05
3.02857e-05
3.03716e-05
3.04535e-05
3.05496e-05
3.07435e-05
3.07851e-05
3.08118e-05
3.08393e-05
3.08676e-05
3.08968e-05
3.0927e-05
3.09581e-05
3.09901e-05
3.10232e-05
3.10573e-05
3.10924e-05
3.11282e-05
3.11645e-05
3.12006e-05
3.12355e-05
3.12675e-05
3.12943e-05
3.13127e-05
3.13193e-05
1.95269e-05
2.4667e-05
2.51085e-05
2.55254e-05
2.59182e-05
2.62874e-05
2.66337e-05
2.69582e-05
2.72617e-05
2.75453e-05
2.781e-05
2.8057e-05
2.82871e-05
2.85016e-05
2.87013e-05
2.88874e-05
2.90607e-05
2.92222e-05
2.93727e-05
2.95132e-05
2.96445e-05
2.97673e-05
2.98823e-05
2.99904e-05
3.00921e-05
3.01881e-05
3.02789e-05
3.03653e-05
3.04477e-05
3.05443e-05
3.07396e-05
3.07814e-05
3.08084e-05
3.08363e-05
3.0865e-05
3.08947e-05
3.09253e-05
3.0957e-05
3.09898e-05
3.10236e-05
3.10585e-05
3.10944e-05
3.11311e-05
3.11683e-05
3.12054e-05
3.12413e-05
3.12744e-05
3.13024e-05
3.13221e-05
3.13302e-05
1.95085e-05
2.46501e-05
2.50918e-05
2.55089e-05
2.5902e-05
2.62715e-05
2.66182e-05
2.69431e-05
2.7247e-05
2.75311e-05
2.77963e-05
2.80436e-05
2.82743e-05
2.84892e-05
2.86894e-05
2.88759e-05
2.90497e-05
2.92116e-05
2.93627e-05
2.95036e-05
2.96353e-05
2.97585e-05
2.9874e-05
2.99825e-05
3.00846e-05
3.01811e-05
3.02724e-05
3.03592e-05
3.04421e-05
3.05391e-05
3.07358e-05
3.07779e-05
3.08053e-05
3.08335e-05
3.08626e-05
3.08928e-05
3.0924e-05
3.09562e-05
3.09897e-05
3.10242e-05
3.106e-05
3.10968e-05
3.11345e-05
3.11728e-05
3.12109e-05
3.1248e-05
3.12823e-05
3.13116e-05
3.13329e-05
3.13429e-05
1.94904e-05
2.46334e-05
2.50752e-05
2.54927e-05
2.5886e-05
2.62559e-05
2.6603e-05
2.69283e-05
2.72326e-05
2.75171e-05
2.77827e-05
2.80306e-05
2.82617e-05
2.8477e-05
2.86777e-05
2.88647e-05
2.90389e-05
2.92013e-05
2.93528e-05
2.94942e-05
2.96263e-05
2.975e-05
2.98659e-05
2.99748e-05
3.00774e-05
3.01743e-05
3.0266e-05
3.03533e-05
3.04366e-05
3.05341e-05
3.07322e-05
3.07746e-05
3.08023e-05
3.08308e-05
3.08604e-05
3.0891e-05
3.09228e-05
3.09557e-05
3.09898e-05
3.10252e-05
3.10618e-05
3.10995e-05
3.11382e-05
3.11776e-05
3.1217e-05
3.12554e-05
3.12911e-05
3.13219e-05
3.1345e-05
3.13572e-05
1.94726e-05
2.46169e-05
2.5059e-05
2.54767e-05
2.58703e-05
2.62406e-05
2.6588e-05
2.69137e-05
2.72185e-05
2.75034e-05
2.77695e-05
2.80177e-05
2.82493e-05
2.84651e-05
2.86662e-05
2.88536e-05
2.90283e-05
2.91912e-05
2.93431e-05
2.94849e-05
2.96175e-05
2.97416e-05
2.9858e-05
2.99673e-05
3.00704e-05
3.01677e-05
3.02599e-05
3.03476e-05
3.04313e-05
3.05293e-05
3.07287e-05
3.07714e-05
3.07994e-05
3.08284e-05
3.08584e-05
3.08895e-05
3.09218e-05
3.09554e-05
3.09902e-05
3.10263e-05
3.10638e-05
3.11025e-05
3.11424e-05
3.11829e-05
3.12236e-05
3.12633e-05
3.13006e-05
3.13332e-05
3.13583e-05
3.13731e-05
1.9455e-05
2.46006e-05
2.50429e-05
2.54609e-05
2.58549e-05
2.62255e-05
2.65733e-05
2.68994e-05
2.72046e-05
2.74899e-05
2.77564e-05
2.80052e-05
2.82371e-05
2.84534e-05
2.8655e-05
2.88428e-05
2.90179e-05
2.91812e-05
2.93336e-05
2.94759e-05
2.96089e-05
2.97334e-05
2.98502e-05
2.996e-05
3.00635e-05
3.01612e-05
3.02538e-05
3.0342e-05
3.04262e-05
3.05247e-05
3.07253e-05
3.07683e-05
3.07967e-05
3.0826e-05
3.08565e-05
3.08881e-05
3.0921e-05
3.09551e-05
3.09907e-05
3.10277e-05
3.1066e-05
3.11058e-05
3.11467e-05
3.11885e-05
3.12305e-05
3.12717e-05
3.13107e-05
3.13452e-05
3.13727e-05
3.13903e-05
1.94375e-05
2.45846e-05
2.50271e-05
2.54454e-05
2.58397e-05
2.62106e-05
2.65589e-05
2.68854e-05
2.7191e-05
2.74767e-05
2.77437e-05
2.79928e-05
2.82252e-05
2.84419e-05
2.86439e-05
2.88322e-05
2.90078e-05
2.91715e-05
2.93243e-05
2.9467e-05
2.96005e-05
2.97254e-05
2.98427e-05
2.99529e-05
3.00567e-05
3.01549e-05
3.0248e-05
3.03366e-05
3.04212e-05
3.05201e-05
3.0722e-05
3.07653e-05
3.0794e-05
3.08237e-05
3.08546e-05
3.08867e-05
3.09202e-05
3.0955e-05
3.09913e-05
3.10291e-05
3.10684e-05
3.11091e-05
3.11512e-05
3.11943e-05
3.12377e-05
3.12805e-05
3.13213e-05
3.1358e-05
3.1388e-05
3.14087e-05
1.9419e-05
2.45689e-05
2.5012e-05
2.54305e-05
2.58251e-05
2.61963e-05
2.65449e-05
2.68717e-05
2.71777e-05
2.74638e-05
2.77312e-05
2.79807e-05
2.82136e-05
2.84307e-05
2.86331e-05
2.88218e-05
2.89978e-05
2.9162e-05
2.93152e-05
2.94583e-05
2.95922e-05
2.97176e-05
2.98352e-05
2.99459e-05
3.00501e-05
3.01487e-05
3.02422e-05
3.03312e-05
3.04163e-05
3.05157e-05
3.07188e-05
3.07624e-05
3.07914e-05
3.08215e-05
3.08528e-05
3.08854e-05
3.09194e-05
3.09549e-05
3.09919e-05
3.10305e-05
3.10707e-05
3.11125e-05
3.11558e-05
3.12001e-05
3.1245e-05
3.12895e-05
3.13322e-05
3.13712e-05
3.1404e-05
3.1428e-05
1.94e-05
2.45527e-05
2.49971e-05
2.5416e-05
2.58109e-05
2.61824e-05
2.65312e-05
2.68584e-05
2.71647e-05
2.74512e-05
2.7719e-05
2.79689e-05
2.82021e-05
2.84197e-05
2.86225e-05
2.88116e-05
2.8988e-05
2.91526e-05
2.93062e-05
2.94498e-05
2.95841e-05
2.97099e-05
2.98279e-05
2.9939e-05
3.00437e-05
3.01427e-05
3.02366e-05
3.0326e-05
3.04116e-05
3.05114e-05
3.07156e-05
3.07595e-05
3.07889e-05
3.08193e-05
3.08511e-05
3.08842e-05
3.09187e-05
3.09548e-05
3.09925e-05
3.10319e-05
3.10731e-05
3.11159e-05
3.11603e-05
3.1206e-05
3.12524e-05
3.12986e-05
3.13433e-05
3.13847e-05
3.14204e-05
3.1448e-05
1.93819e-05
2.4536e-05
2.49817e-05
2.54015e-05
2.57968e-05
2.61687e-05
2.65179e-05
2.68453e-05
2.7152e-05
2.74389e-05
2.7707e-05
2.79573e-05
2.8191e-05
2.84089e-05
2.86121e-05
2.88017e-05
2.89785e-05
2.91434e-05
2.92975e-05
2.94414e-05
2.95761e-05
2.97023e-05
2.98208e-05
2.99322e-05
3.00373e-05
3.01367e-05
3.02311e-05
3.03209e-05
3.04069e-05
3.05071e-05
3.07125e-05
3.07567e-05
3.07863e-05
3.08171e-05
3.08493e-05
3.08828e-05
3.09179e-05
3.09546e-05
3.0993e-05
3.10332e-05
3.10753e-05
3.11191e-05
3.11647e-05
3.12117e-05
3.12596e-05
3.13076e-05
3.13544e-05
3.13982e-05
3.1437e-05
3.14684e-05
1.93651e-05
2.45194e-05
2.49663e-05
2.5387e-05
2.57829e-05
2.61552e-05
2.65047e-05
2.68325e-05
2.71396e-05
2.74268e-05
2.76953e-05
2.7946e-05
2.818e-05
2.83983e-05
2.86019e-05
2.87919e-05
2.89691e-05
2.91345e-05
2.92889e-05
2.94332e-05
2.95683e-05
2.96949e-05
2.98138e-05
2.99256e-05
3.00311e-05
3.01309e-05
3.02256e-05
3.03159e-05
3.04022e-05
3.05029e-05
3.07094e-05
3.07538e-05
3.07837e-05
3.08149e-05
3.08475e-05
3.08815e-05
3.0917e-05
3.09543e-05
3.09934e-05
3.10344e-05
3.10773e-05
3.11221e-05
3.11688e-05
3.12172e-05
3.12666e-05
3.13164e-05
3.13652e-05
3.14116e-05
3.14535e-05
3.14888e-05
1.93494e-05
2.45036e-05
2.49511e-05
2.53725e-05
2.57691e-05
2.61418e-05
2.64918e-05
2.682e-05
2.71274e-05
2.7415e-05
2.76838e-05
2.79349e-05
2.81692e-05
2.83879e-05
2.85919e-05
2.87823e-05
2.89599e-05
2.91256e-05
2.92804e-05
2.94252e-05
2.95607e-05
2.96876e-05
2.98069e-05
2.99191e-05
3.0025e-05
3.01252e-05
3.02203e-05
3.03109e-05
3.03977e-05
3.04987e-05
3.07063e-05
3.07509e-05
3.07811e-05
3.08126e-05
3.08455e-05
3.088e-05
3.0916e-05
3.09539e-05
3.09936e-05
3.10353e-05
3.1079e-05
3.11248e-05
3.11726e-05
3.12222e-05
3.12731e-05
3.13247e-05
3.13756e-05
3.14245e-05
3.14696e-05
3.15089e-05
1.93345e-05
2.44886e-05
2.49361e-05
2.53581e-05
2.57553e-05
2.61286e-05
2.6479e-05
2.68076e-05
2.71153e-05
2.74033e-05
2.76725e-05
2.79239e-05
2.81587e-05
2.83777e-05
2.85821e-05
2.87728e-05
2.89508e-05
2.91169e-05
2.92721e-05
2.94173e-05
2.95531e-05
2.96805e-05
2.98001e-05
2.99127e-05
3.00189e-05
3.01195e-05
3.0215e-05
3.0306e-05
3.03931e-05
3.04945e-05
3.07031e-05
3.0748e-05
3.07785e-05
3.08103e-05
3.08435e-05
3.08783e-05
3.09148e-05
3.09532e-05
3.09935e-05
3.10358e-05
3.10804e-05
3.11271e-05
3.1176e-05
3.12268e-05
3.12791e-05
3.13323e-05
3.13854e-05
3.14368e-05
3.1485e-05
3.15282e-05
1.93201e-05
2.44743e-05
2.49217e-05
2.5344e-05
2.57417e-05
2.61154e-05
2.64663e-05
2.67953e-05
2.71035e-05
2.73918e-05
2.76614e-05
2.79132e-05
2.81483e-05
2.83677e-05
2.85725e-05
2.87636e-05
2.89419e-05
2.91084e-05
2.9264e-05
2.94095e-05
2.95457e-05
2.96734e-05
2.97934e-05
2.99064e-05
3.0013e-05
3.01139e-05
3.02097e-05
3.03011e-05
3.03886e-05
3.04903e-05
3.06999e-05
3.0745e-05
3.07757e-05
3.08078e-05
3.08413e-05
3.08765e-05
3.09134e-05
3.09522e-05
3.09931e-05
3.10361e-05
3.10813e-05
3.11289e-05
3.11787e-05
3.12307e-05
3.12844e-05
3.13392e-05
3.13942e-05
3.14481e-05
3.14993e-05
3.15464e-05
1.93061e-05
2.44606e-05
2.49078e-05
2.53302e-05
2.57283e-05
2.61025e-05
2.64538e-05
2.67833e-05
2.70918e-05
2.73805e-05
2.76504e-05
2.79026e-05
2.81381e-05
2.83579e-05
2.8563e-05
2.87544e-05
2.89331e-05
2.91e-05
2.9256e-05
2.94018e-05
2.95384e-05
2.96665e-05
2.97868e-05
2.99001e-05
3.00071e-05
3.01083e-05
3.02045e-05
3.02962e-05
3.03841e-05
3.04862e-05
3.06967e-05
3.0742e-05
3.07729e-05
3.08052e-05
3.0839e-05
3.08745e-05
3.09118e-05
3.0951e-05
3.09923e-05
3.10359e-05
3.10818e-05
3.11301e-05
3.11808e-05
3.12338e-05
3.12888e-05
3.13451e-05
3.1402e-05
3.14581e-05
3.15123e-05
3.15632e-05
1.92924e-05
2.44474e-05
2.48943e-05
2.53169e-05
2.57151e-05
2.60898e-05
2.64415e-05
2.67714e-05
2.70803e-05
2.73694e-05
2.76397e-05
2.78922e-05
2.8128e-05
2.83482e-05
2.85537e-05
2.87455e-05
2.89245e-05
2.90917e-05
2.9248e-05