/*--------------------------------*- C++ -*----------------------------------*\
  =========                 |
  \\      /  F ield         | OpenFOAM: The Open Source CFD Toolbox
   \\    /   O peration     | Website:  https://openfoam.org
    \\  /    A nd           | Version:  9
     \\/     M anipulation  |
\*---------------------------------------------------------------------------*/
FoamFile
{
    format      ascii;
    class       volVectorField;
    location    "0.06";
    object      U;
}
// * * * * * * * * * * * * * * * * * * * * * * * * * * * * * * * * * * * * * //

dimensions      [0 1 -1 0 0 0 0];

internalField   nonuniform List<vector> 
5000
(
(-0.101788 0 -0.01174)
(-0.101914 0 -0.0144915)
(-0.101944 0 -0.0153156)
(-0.102007 0 -0.0160888)
(-0.102077 0 -0.0169871)
(-0.102153 0 -0.0179919)
(-0.10224 0 -0.0190817)
(-0.10234 0 -0.0202475)
(-0.102455 0 -0.0214888)
(-0.102588 0 -0.0228101)
(-0.102743 0 -0.0242184)
(-0.102923 0 -0.0257219)
(-0.103131 0 -0.0273292)
(-0.103371 0 -0.0290491)
(-0.103648 0 -0.0308903)
(-0.103966 0 -0.0328619)
(-0.104331 0 -0.0349732)
(-0.104748 0 -0.0372339)
(-0.105225 0 -0.039654)
(-0.105768 0 -0.042244)
(-0.106388 0 -0.0450151)
(-0.107093 0 -0.0479788)
(-0.107896 0 -0.051147)
(-0.108807 0 -0.0545319)
(-0.109844 0 -0.0581449)
(-0.111021 0 -0.0619965)
(-0.112357 0 -0.0660951)
(-0.113875 0 -0.0704461)
(-0.115599 0 -0.0750512)
(-0.117551 0 -0.0799087)
(-0.119956 0 -0.0854509)
(-0.122836 0 -0.0915432)
(-0.125963 0 -0.0976252)
(-0.129329 0 -0.103686)
(-0.13294 0 -0.109708)
(-0.13679 0 -0.11567)
(-0.140871 0 -0.121545)
(-0.145159 0 -0.127307)
(-0.149621 0 -0.132938)
(-0.154207 0 -0.138432)
(-0.158859 0 -0.143811)
(-0.163506 0 -0.149133)
(-0.168064 0 -0.154517)
(-0.172431 0 -0.160182)
(-0.176516 0 -0.166485)
(-0.180286 0 -0.173901)
(-0.183849 0 -0.182895)
(-0.187492 0 -0.193632)
(-0.191687 0 -0.205574)
(-0.196947 0 -0.217153)
(-0.100062 0 -0.0115877)
(-0.100348 0 -0.0142691)
(-0.100441 0 -0.0150925)
(-0.10052 0 -0.0158754)
(-0.100596 0 -0.0167761)
(-0.100678 0 -0.0177753)
(-0.100766 0 -0.0188525)
(-0.100864 0 -0.02)
(-0.100977 0 -0.0212183)
(-0.101106 0 -0.0225124)
(-0.101255 0 -0.02389)
(-0.101428 0 -0.0253595)
(-0.101628 0 -0.0269295)
(-0.101858 0 -0.028609)
(-0.102124 0 -0.0304066)
(-0.102429 0 -0.0323314)
(-0.102778 0 -0.0343926)
(-0.103178 0 -0.0365997)
(-0.103634 0 -0.0389626)
(-0.104155 0 -0.0414917)
(-0.104747 0 -0.0441979)
(-0.10542 0 -0.0470927)
(-0.106185 0 -0.0501876)
(-0.107053 0 -0.0534946)
(-0.108039 0 -0.0570246)
(-0.109157 0 -0.0607875)
(-0.110425 0 -0.0647908)
(-0.111864 0 -0.0690388)
(-0.113494 0 -0.0735322)
(-0.115337 0 -0.0782685)
(-0.117604 0 -0.0836685)
(-0.120311 0 -0.0896007)
(-0.12324 0 -0.0955223)
(-0.126382 0 -0.101427)
(-0.129741 0 -0.107301)
(-0.133307 0 -0.113126)
(-0.137071 0 -0.118876)
(-0.14101 0 -0.124528)
(-0.14509 0 -0.130065)
(-0.149264 0 -0.135493)
(-0.153477 0 -0.140848)
(-0.157667 0 -0.146206)
(-0.161766 0 -0.151694)
(-0.165698 0 -0.157518)
(-0.169397 0 -0.163997)
(-0.172856 0 -0.171543)
(-0.176183 0 -0.180539)
(-0.179648 0 -0.191058)
(-0.183687 0 -0.20247)
(-0.188772 0 -0.213124)
(-0.0987707 0 -0.0105471)
(-0.099065 0 -0.0138815)
(-0.0990863 0 -0.0148801)
(-0.0991086 0 -0.0156898)
(-0.0991487 0 -0.0165886)
(-0.0992042 0 -0.0175769)
(-0.0992734 0 -0.018638)
(-0.0993575 0 -0.0197651)
(-0.0994581 0 -0.0209592)
(-0.0995771 0 -0.022226)
(-0.0997169 0 -0.0235733)
(-0.0998802 0 -0.0250097)
(-0.10007 0 -0.0265441)
(-0.100289 0 -0.0281853)
(-0.100542 0 -0.0299422)
(-0.100833 0 -0.0318235)
(-0.101167 0 -0.0338382)
(-0.101548 0 -0.0359958)
(-0.101983 0 -0.0383058)
(-0.102478 0 -0.0407784)
(-0.103042 0 -0.0434242)
(-0.103683 0 -0.0462542)
(-0.10441 0 -0.0492799)
(-0.105236 0 -0.0525124)
(-0.106171 0 -0.0559628)
(-0.10723 0 -0.0596403)
(-0.10843 0 -0.0635523)
(-0.109787 0 -0.0677028)
(-0.111323 0 -0.0720924)
(-0.113055 0 -0.0767184)
(-0.115181 0 -0.0819919)
(-0.117713 0 -0.0877849)
(-0.120446 0 -0.0935676)
(-0.12337 0 -0.0993358)
(-0.126483 0 -0.105078)
(-0.129776 0 -0.110779)
(-0.133234 0 -0.116419)
(-0.136834 0 -0.121978)
(-0.140545 0 -0.127446)
(-0.144326 0 -0.132833)
(-0.148128 0 -0.138184)
(-0.151897 0 -0.143581)
(-0.155573 0 -0.149157)
(-0.159096 0 -0.155109)
(-0.162422 0 -0.161726)
(-0.165567 0 -0.169364)
(-0.16865 0 -0.178323)
(-0.171922 0 -0.188591)
(-0.175762 0 -0.19948)
(-0.180626 0 -0.209281)
(-0.0973926 0 -0.00994955)
(-0.0976138 0 -0.0136948)
(-0.09759 0 -0.0148153)
(-0.0975986 0 -0.0156193)
(-0.0976254 0 -0.0164841)
(-0.0976662 0 -0.017438)
(-0.097722 0 -0.0184666)
(-0.0977942 0 -0.0195624)
(-0.0978842 0 -0.0207253)
(-0.0979935 0 -0.0219605)
(-0.098124 0 -0.0232751)
(-0.0982778 0 -0.0246776)
(-0.0984574 0 -0.0261765)
(-0.0986659 0 -0.0277805)
(-0.0989066 0 -0.0294981)
(-0.0991834 0 -0.031338)
(-0.0995005 0 -0.033309)
(-0.0998629 0 -0.0354202)
(-0.100276 0 -0.037681)
(-0.100747 0 -0.0401011)
(-0.101282 0 -0.042691)
(-0.101889 0 -0.045461)
(-0.102577 0 -0.0484223)
(-0.103357 0 -0.0515857)
(-0.104241 0 -0.0549614)
(-0.10524 0 -0.0585588)
(-0.10637 0 -0.0623847)
(-0.107647 0 -0.0664434)
(-0.109089 0 -0.070736)
(-0.110712 0 -0.0752604)
(-0.112698 0 -0.0804198)
(-0.115058 0 -0.0860904)
(-0.117597 0 -0.0917532)
(-0.120303 0 -0.0974039)
(-0.123175 0 -0.103032)
(-0.126199 0 -0.108626)
(-0.129361 0 -0.114171)
(-0.132639 0 -0.119653)
(-0.136002 0 -0.125069)
(-0.139412 0 -0.130436)
(-0.142825 0 -0.135798)
(-0.146195 0 -0.141241)
(-0.149473 0 -0.146895)
(-0.152612 0 -0.152953)
(-0.155588 0 -0.159681)
(-0.158427 0 -0.167385)
(-0.161252 0 -0.176292)
(-0.164301 0 -0.186298)
(-0.167908 0 -0.19666)
(-0.172494 0 -0.205673)
(-0.0958051 0 -0.00982383)
(-0.0959489 0 -0.0136174)
(-0.0959197 0 -0.0147808)
(-0.0959431 0 -0.015567)
(-0.0959794 0 -0.0163993)
(-0.0960252 0 -0.0173197)
(-0.0960831 0 -0.0183157)
(-0.0961549 0 -0.0193794)
(-0.0962424 0 -0.0205106)
(-0.0963474 0 -0.0217137)
(-0.0964722 0 -0.0229959)
(-0.0966188 0 -0.024365)
(-0.09679 0 -0.0258294)
(-0.0969884 0 -0.0273974)
(-0.0972173 0 -0.0290773)
(-0.0974803 0 -0.0308776)
(-0.0977813 0 -0.0328067)
(-0.098125 0 -0.0348737)
(-0.0985165 0 -0.0370875)
(-0.0989617 0 -0.0394579)
(-0.0994672 0 -0.0419947)
(-0.10004 0 -0.0447084)
(-0.10069 0 -0.0476097)
(-0.101424 0 -0.050709)
(-0.102255 0 -0.0540165)
(-0.103194 0 -0.0575409)
(-0.104254 0 -0.0612892)
(-0.10545 0 -0.0652653)
(-0.106798 0 -0.0694704)
(-0.108312 0 -0.0739028)
(-0.11016 0 -0.0789583)
(-0.11235 0 -0.0845171)
(-0.114697 0 -0.0900713)
(-0.117191 0 -0.0956181)
(-0.119826 0 -0.10115)
(-0.12259 0 -0.106656)
(-0.125467 0 -0.112126)
(-0.128436 0 -0.11755)
(-0.131467 0 -0.122929)
(-0.134525 0 -0.128284)
(-0.137571 0 -0.133664)
(-0.140564 0 -0.139154)
(-0.143466 0 -0.144884)
(-0.146242 0 -0.151036)
(-0.148881 0 -0.157852)
(-0.151419 0 -0.165591)
(-0.153976 0 -0.174416)
(-0.15678 0 -0.184154)
(-0.160135 0 -0.194006)
(-0.164411 0 -0.202283)
(-0.0940873 0 -0.00973738)
(-0.0942121 0 -0.0135301)
(-0.094191 0 -0.0146931)
(-0.094225 0 -0.0154679)
(-0.0942681 0 -0.0162827)
(-0.0943191 0 -0.0171826)
(-0.0943804 0 -0.0181558)
(-0.0944538 0 -0.0191948)
(-0.0945411 0 -0.0202995)
(-0.0946442 0 -0.0214748)
(-0.0947652 0 -0.0227277)
(-0.0949064 0 -0.0240663)
(-0.0950702 0 -0.0254987)
(-0.0952595 0 -0.0270332)
(-0.0954772 0 -0.0286779)
(-0.0957268 0 -0.0304411)
(-0.0960119 0 -0.0323311)
(-0.0963369 0 -0.0343567)
(-0.0967066 0 -0.0365267)
(-0.0971264 0 -0.0388507)
(-0.0976024 0 -0.0413382)
(-0.0981415 0 -0.0439996)
(-0.0987513 0 -0.0468452)
(-0.0994406 0 -0.0498853)
(-0.100219 0 -0.0531298)
(-0.101097 0 -0.0565872)
(-0.102088 0 -0.0602643)
(-0.103202 0 -0.0641653)
(-0.104457 0 -0.0682912)
(-0.105862 0 -0.0726411)
(-0.107574 0 -0.0776041)
(-0.109596 0 -0.0830641)
(-0.111755 0 -0.0885235)
(-0.114041 0 -0.093981)
(-0.116446 0 -0.0994305)
(-0.118958 0 -0.104865)
(-0.121561 0 -0.110275)
(-0.124233 0 -0.115656)
(-0.126947 0 -0.121011)
(-0.12967 0 -0.126365)
(-0.132368 0 -0.131769)
(-0.135005 0 -0.137308)
(-0.137552 0 -0.143111)
(-0.139982 0 -0.149347)
(-0.142294 0 -0.156232)
(-0.144534 0 -0.163985)
(-0.146818 0 -0.172712)
(-0.149361 0 -0.182184)
(-0.152446 0 -0.191549)
(-0.1564 0 -0.199131)
(-0.0923157 0 -0.00965424)
(-0.0924397 0 -0.0134335)
(-0.0924262 0 -0.0145839)
(-0.0924653 0 -0.0153476)
(-0.0925124 0 -0.016149)
(-0.0925666 0 -0.017033)
(-0.0926299 0 -0.0179881)
(-0.092704 0 -0.0190068)
(-0.0927908 0 -0.0200894)
(-0.0928919 0 -0.0212406)
(-0.0930095 0 -0.0224677)
(-0.0931457 0 -0.0237789)
(-0.0933027 0 -0.0251823)
(-0.0934833 0 -0.0266861)
(-0.0936901 0 -0.0282985)
(-0.0939265 0 -0.0300275)
(-0.094196 0 -0.0318815)
(-0.0945024 0 -0.0338689)
(-0.0948503 0 -0.0359985)
(-0.0952447 0 -0.0382796)
(-0.0956912 0 -0.0407218)
(-0.0961961 0 -0.0433349)
(-0.0967665 0 -0.0461293)
(-0.0974103 0 -0.049115)
(-0.0981364 0 -0.0523017)
(-0.0989544 0 -0.0556979)
(-0.099875 0 -0.0593102)
(-0.100909 0 -0.0631429)
(-0.102071 0 -0.0671976)
(-0.103369 0 -0.0714736)
(-0.104946 0 -0.0763547)
(-0.106803 0 -0.0817286)
(-0.108779 0 -0.0871066)
(-0.110862 0 -0.0924886)
(-0.113044 0 -0.0978701)
(-0.115312 0 -0.103246)
(-0.117651 0 -0.10861)
(-0.120038 0 -0.113961)
(-0.122449 0 -0.119305)
(-0.124854 0 -0.124668)
(-0.127221 0 -0.130103)
(-0.129521 0 -0.135695)
(-0.131729 0 -0.141566)
(-0.133828 0 -0.147876)
(-0.135825 0 -0.154818)
(-0.137769 0 -0.162571)
(-0.139777 0 -0.171192)
(-0.14205 0 -0.180398)
(-0.14485 0 -0.189302)
(-0.148469 0 -0.196235)
(-0.0905093 0 -0.00956758)
(-0.0906345 0 -0.013332)
(-0.0906238 0 -0.0144693)
(-0.0906651 0 -0.0152217)
(-0.0907147 0 -0.0160104)
(-0.090771 0 -0.0168798)
(-0.0908358 0 -0.0178185)
(-0.0909105 0 -0.0188191)
(-0.0909967 0 -0.0198819)
(-0.091096 0 -0.0210117)
(-0.0912103 0 -0.0222159)
(-0.0913415 0 -0.0235025)
(-0.091492 0 -0.0248798)
(-0.0916639 0 -0.0263559)
(-0.0918602 0 -0.0279389)
(-0.0920835 0 -0.0296368)
(-0.0923374 0 -0.0314578)
(-0.0926253 0 -0.0334103)
(-0.0929515 0 -0.0355029)
(-0.0933205 0 -0.0377447)
(-0.0937375 0 -0.0401452)
(-0.0942083 0 -0.0427142)
(-0.0947394 0 -0.0454617)
(-0.095338 0 -0.0483978)
(-0.096012 0 -0.051532)
(-0.0967701 0 -0.0548726)
(-0.0976215 0 -0.0584264)
(-0.0985763 0 -0.0621978)
(-0.0996458 0 -0.0661888)
(-0.100839 0 -0.0703993)
(-0.102284 0 -0.0752087)
(-0.103978 0 -0.0805082)
(-0.105775 0 -0.085817)
(-0.107661 0 -0.0911361)
(-0.109627 0 -0.0964627)
(-0.11166 0 -0.101793)
(-0.113744 0 -0.107125)
(-0.115859 0 -0.112458)
(-0.117981 0 -0.117801)
(-0.120082 0 -0.123182)
(-0.122134 0 -0.128654)
(-0.124113 0 -0.134301)
(-0.125998 0 -0.140239)
(-0.12778 0 -0.146617)
(-0.12947 0 -0.153605)
(-0.131123 0 -0.161349)
(-0.132853 0 -0.169856)
(-0.134847 0 -0.178799)
(-0.137354 0 -0.187265)
(-0.140628 0 -0.193594)
(-0.0886592 0 -0.00947702)
(-0.0887868 0 -0.0132261)
(-0.0887791 0 -0.0143491)
(-0.0888234 0 -0.01509)
(-0.0888761 0 -0.0158665)
(-0.088935 0 -0.0167227)
(-0.0890017 0 -0.0176469)
(-0.0890773 0 -0.0186317)
(-0.0891631 0 -0.0196771)
(-0.0892608 0 -0.0207882)
(-0.089372 0 -0.0219721)
(-0.0894985 0 -0.023237)
(-0.0896424 0 -0.024591)
(-0.0898059 0 -0.0260423)
(-0.0899915 0 -0.0275989)
(-0.0902019 0 -0.0292688)
(-0.0904402 0 -0.0310599)
(-0.0907097 0 -0.0329806)
(-0.0910142 0 -0.0350396)
(-0.0913579 0 -0.0372457)
(-0.0917455 0 -0.0396083)
(-0.0921824 0 -0.0421372)
(-0.0926745 0 -0.0448422)
(-0.0932281 0 -0.0477334)
(-0.0938505 0 -0.0508201)
(-0.0945491 0 -0.0541108)
(-0.0953323 0 -0.0576121)
(-0.0962085 0 -0.0613289)
(-0.0971877 0 -0.0652636)
(-0.0982769 0 -0.0694168)
(-0.0995925 0 -0.0741641)
(-0.101129 0 -0.0794002)
(-0.102752 0 -0.0846513)
(-0.104446 0 -0.0899194)
(-0.106203 0 -0.0952031)
(-0.108009 0 -0.100501)
(-0.109849 0 -0.105811)
(-0.111703 0 -0.111137)
(-0.113548 0 -0.11649)
(-0.11536 0 -0.121898)
(-0.117112 0 -0.127413)
(-0.118785 0 -0.133118)
(-0.120362 0 -0.139122)
(-0.121837 0 -0.145563)
(-0.12323 0 -0.15259)
(-0.124595 0 -0.160316)
(-0.126045 0 -0.168707)
(-0.127758 0 -0.177394)
(-0.129962 0 -0.185442)
(-0.132887 0 -0.191211)
(-0.0867556 0 -0.00937846)
(-0.0868921 0 -0.0131091)
(-0.0868919 0 -0.0142167)
(-0.0869424 0 -0.0149463)
(-0.0870003 0 -0.0157124)
(-0.0870633 0 -0.0165579)
(-0.0871327 0 -0.0174707)
(-0.0872098 0 -0.0184428)
(-0.0872956 0 -0.0194741)
(-0.0873918 0 -0.0205694)
(-0.0874998 0 -0.0217361)
(-0.0876215 0 -0.0229822)
(-0.0877587 0 -0.024316)
(-0.0879136 0 -0.0257455)
(-0.0880885 0 -0.0272787)
(-0.0882859 0 -0.0289234)
(-0.0885085 0 -0.0306878)
(-0.0887595 0 -0.03258)
(-0.0890423 0 -0.0346086)
(-0.0893609 0 -0.0367825)
(-0.0897193 0 -0.0391109)
(-0.0901226 0 -0.0416036)
(-0.0905759 0 -0.0442705)
(-0.0910852 0 -0.0471212)
(-0.0916565 0 -0.0501654)
(-0.0922966 0 -0.0534114)
(-0.0930125 0 -0.0568662)
(-0.0938116 0 -0.0605348)
(-0.0947022 0 -0.0644203)
(-0.09569 0 -0.068524)
(-0.0968792 0 -0.0732183)
(-0.0982625 0 -0.0784016)
(-0.0997155 0 -0.0836059)
(-0.101224 0 -0.0888341)
(-0.10278 0 -0.0940862)
(-0.104368 0 -0.0993621)
(-0.105974 0 -0.104663)
(-0.107578 0 -0.109992)
(-0.109158 0 -0.115363)
(-0.110693 0 -0.120805)
(-0.11216 0 -0.126369)
(-0.11354 0 -0.132135)
(-0.114821 0 -0.138205)
(-0.116002 0 -0.144707)
(-0.117105 0 -0.151767)
(-0.118187 0 -0.159471)
(-0.119358 0 -0.167745)
(-0.120784 0 -0.176185)
(-0.12268 0 -0.18384)
(-0.125249 0 -0.189089)
(-0.0848089 0 -0.00924947)
(-0.084963 0 -0.0129596)
(-0.0849756 0 -0.0140575)
(-0.0850347 0 -0.0147819)
(-0.0850989 0 -0.015543)
(-0.0851662 0 -0.0163829)
(-0.0852381 0 -0.0172885)
(-0.085316 0 -0.0182518)
(-0.0854013 0 -0.0192726)
(-0.0854953 0 -0.0203557)
(-0.0855996 0 -0.0215083)
(-0.0857159 0 -0.0227388)
(-0.085846 0 -0.0240552)
(-0.0859919 0 -0.0254658)
(-0.0861556 0 -0.0269784)
(-0.0863397 0 -0.028601)
(-0.0865465 0 -0.0303416)
(-0.086779 0 -0.0322084)
(-0.0870401 0 -0.0342099)
(-0.0873336 0 -0.0363549)
(-0.0876631 0 -0.0386528)
(-0.088033 0 -0.0411131)
(-0.0884481 0 -0.0437458)
(-0.0889135 0 -0.0465606)
(-0.0894346 0 -0.049567)
(-0.0900172 0 -0.0527736)
(-0.0906671 0 -0.0561875)
(-0.0913906 0 -0.0598141)
(-0.0921946 0 -0.0636571)
(-0.0930837 0 -0.0677187)
(-0.0941498 0 -0.0723688)
(-0.0953841 0 -0.0775092)
(-0.096673 0 -0.0826768)
(-0.0980027 0 -0.0878756)
(-0.099364 0 -0.0931066)
(-0.100742 0 -0.0983713)
(-0.102123 0 -0.103672)
(-0.103488 0 -0.109014)
(-0.104817 0 -0.114412)
(-0.106088 0 -0.119895)
(-0.107281 0 -0.125514)
(-0.108382 0 -0.131344)
(-0.109379 0 -0.137482)
(-0.110276 0 -0.144042)
(-0.111097 0 -0.151134)
(-0.111901 0 -0.158814)
(-0.112794 0 -0.166973)
(-0.113932 0 -0.175176)
(-0.115514 0 -0.182461)
(-0.117721 0 -0.187233)
(-0.0828424 0 -0.00907557)
(-0.0830179 0 -0.0127611)
(-0.0830464 0 -0.0138621)
(-0.0831153 0 -0.0145944)
(-0.0831851 0 -0.01536)
(-0.0832551 0 -0.0162005)
(-0.0833276 0 -0.0171037)
(-0.0834046 0 -0.018062)
(-0.0834875 0 -0.0190755)
(-0.0835779 0 -0.0201492)
(-0.0836772 0 -0.0212906)
(-0.083787 0 -0.022508)
(-0.083909 0 -0.0238098)
(-0.0840451 0 -0.0252041)
(-0.0841973 0 -0.0266988)
(-0.0843676 0 -0.028302)
(-0.0845583 0 -0.0300216)
(-0.0847721 0 -0.0318659)
(-0.0850116 0 -0.0338433)
(-0.0852801 0 -0.0359627)
(-0.0855809 0 -0.0382335)
(-0.0859179 0 -0.0406651)
(-0.0862954 0 -0.0432676)
(-0.0867177 0 -0.0460507)
(-0.0871895 0 -0.0490239)
(-0.0877157 0 -0.0521961)
(-0.0883011 0 -0.0555745)
(-0.0889509 0 -0.0591652)
(-0.0896706 0 -0.0629722)
(-0.0904635 0 -0.0669985)
(-0.0914104 0 -0.0716128)
(-0.0925003 0 -0.0767195)
(-0.0936308 0 -0.0818601)
(-0.0947881 0 -0.0870392)
(-0.0959626 0 -0.092259)
(-0.0971399 0 -0.0975223)
(-0.0983058 0 -0.102832)
(-0.0994421 0 -0.108196)
(-0.10053 0 -0.113629)
(-0.101549 0 -0.11916)
(-0.102482 0 -0.124839)
(-0.103314 0 -0.130736)
(-0.104039 0 -0.136943)
(-0.104662 0 -0.143562)
(-0.105209 0 -0.150685)
(-0.10574 0 -0.158341)
(-0.106356 0 -0.166389)
(-0.107205 0 -0.174368)
(-0.108469 0 -0.18131)
(-0.110307 0 -0.185647)
(-0.0808714 0 -0.00885571)
(-0.0810703 0 -0.0125099)
(-0.0811158 0 -0.0136287)
(-0.0811935 0 -0.0143855)
(-0.081267 0 -0.015168)
(-0.0813372 0 -0.0160168)
(-0.0814079 0 -0.0169222)
(-0.0814815 0 -0.0178785)
(-0.0815599 0 -0.0188871)
(-0.0816447 0 -0.0199537)
(-0.0817373 0 -0.021086)
(-0.0818392 0 -0.0222925)
(-0.0819521 0 -0.0235817)
(-0.0820775 0 -0.0249618)
(-0.0822173 0 -0.0264409)
(-0.0823734 0 -0.028027)
(-0.0825477 0 -0.0297282)
(-0.0827426 0 -0.0315526)
(-0.0829606 0 -0.0335088)
(-0.0832042 0 -0.0356057)
(-0.0834767 0 -0.0378525)
(-0.0837814 0 -0.040259)
(-0.0841219 0 -0.042835)
(-0.084502 0 -0.0455904)
(-0.0849256 0 -0.0485349)
(-0.0853968 0 -0.0516774)
(-0.0859194 0 -0.0550257)
(-0.0864975 0 -0.0585859)
(-0.0871353 0 -0.0623631)
(-0.0878352 0 -0.066361)
(-0.0886667 0 -0.0709471)
(-0.0896173 0 -0.0760291)
(-0.0905951 0 -0.0811517)
(-0.0915867 0 -0.0863203)
(-0.0925819 0 -0.0915381)
(-0.0935668 0 -0.0968089)
(-0.094527 0 -0.102137)
(-0.0954452 0 -0.107531)
(-0.0963028 0 -0.113007)
(-0.0970816 0 -0.118593)
(-0.0977652 0 -0.124336)
(-0.0983413 0 -0.130305)
(-0.0988048 0 -0.136584)
(-0.0991634 0 -0.143263)
(-0.0994452 0 -0.150417)
(-0.0997082 0 -0.15805)
(-0.10005 0 -0.165994)
(-0.100609 0 -0.173763)
(-0.101553 0 -0.180389)
(-0.103016 0 -0.184335)
(-0.078915 0 -0.00857944)
(-0.0791378 0 -0.0122013)
(-0.0791976 0 -0.0133596)
(-0.0792797 0 -0.0141611)
(-0.0793525 0 -0.014974)
(-0.0794189 0 -0.015839)
(-0.079484 0 -0.0167506)
(-0.079551 0 -0.0177073)
(-0.0796222 0 -0.0187126)
(-0.0796992 0 -0.0197733)
(-0.0797833 0 -0.0208977)
(-0.0798759 0 -0.0220946)
(-0.0799784 0 -0.0233727)
(-0.0800923 0 -0.0247404)
(-0.0802192 0 -0.0262057)
(-0.0803605 0 -0.0277768)
(-0.0805183 0 -0.0294616)
(-0.0806943 0 -0.0312686)
(-0.0808907 0 -0.0332061)
(-0.0811099 0 -0.0352833)
(-0.0813545 0 -0.0375093)
(-0.0816274 0 -0.0398939)
(-0.0819317 0 -0.042447)
(-0.0822707 0 -0.0451787)
(-0.0826474 0 -0.0480987)
(-0.0830651 0 -0.0512161)
(-0.0835268 0 -0.0545391)
(-0.0840354 0 -0.0580744)
(-0.0845941 0 -0.0618275)
(-0.0852041 0 -0.0658033)
(-0.0859243 0 -0.0703686)
(-0.0867408 0 -0.0754342)
(-0.0875721 0 -0.0805472)
(-0.0884047 0 -0.0857139)
(-0.0892284 0 -0.0909384)
(-0.0900293 0 -0.0962254)
(-0.0907933 0 -0.10158)
(-0.0915033 0 -0.107013)
(-0.0921418 0 -0.112538)
(-0.0926915 0 -0.118184)
(-0.0931373 0 -0.123998)
(-0.0934684 0 -0.130043)
(-0.0936812 0 -0.136396)
(-0.0937852 0 -0.143137)
(-0.0938094 0 -0.150324)
(-0.0938104 0 -0.157938)
(-0.0938812 0 -0.165786)
(-0.0941519 0 -0.173363)
(-0.0947721 0 -0.179701)
(-0.095857 0 -0.183302)
(-0.0769991 0 -0.00825238)
(-0.077234 0 -0.011847)
(-0.0772988 0 -0.0130721)
(-0.0773778 0 -0.013939)
(-0.0774438 0 -0.0147934)
(-0.0775015 0 -0.015679)
(-0.0775571 0 -0.0165984)
(-0.0776145 0 -0.0175556)
(-0.077676 0 -0.0185575)
(-0.0777431 0 -0.0196123)
(-0.0778171 0 -0.0207291)
(-0.0778991 0 -0.021917)
(-0.0779904 0 -0.0231848)
(-0.0780921 0 -0.0245411)
(-0.0782055 0 -0.025994)
(-0.078332 0 -0.0275516)
(-0.078473 0 -0.0292221)
(-0.0786303 0 -0.0310137)
(-0.0788054 0 -0.032935)
(-0.0790006 0 -0.034995)
(-0.0792179 0 -0.037203)
(-0.0794598 0 -0.0395688)
(-0.0797289 0 -0.0421025)
(-0.0800279 0 -0.0448141)
(-0.0803592 0 -0.0477136)
(-0.0807251 0 -0.0508103)
(-0.0811279 0 -0.0541127)
(-0.0815694 0 -0.0576282)
(-0.0820519 0 -0.0613629)
(-0.0825754 0 -0.0653225)
(-0.0831887 0 -0.0698741)
(-0.0838764 0 -0.0749309)
(-0.0845673 0 -0.0800424)
(-0.0852479 0 -0.0852153)
(-0.0859078 0 -0.0904545)
(-0.0865333 0 -0.0957657)
(-0.0871104 0 -0.101155)
(-0.0876222 0 -0.106632)
(-0.0880521 0 -0.112214)
(-0.0883837 0 -0.117928)
(-0.088603 0 -0.123818)
(-0.0887 0 -0.129942)
(-0.0886727 0 -0.136373)
(-0.0885318 0 -0.143179)
(-0.0883065 0 -0.150402)
(-0.0880522 0 -0.158002)
(-0.0878565 0 -0.165764)
(-0.0878404 0 -0.173167)
(-0.0881376 0 -0.179248)
(-0.0888423 0 -0.182551)
(-0.0751213 0 -0.0079208)
(-0.0753461 0 -0.0114908)
(-0.0754035 0 -0.0127979)
(-0.075473 0 -0.0137413)
(-0.0755287 0 -0.0146413)
(-0.0755756 0 -0.0155477)
(-0.0756204 0 -0.0164733)
(-0.0756672 0 -0.0174293)
(-0.0757182 0 -0.0184262)
(-0.0757748 0 -0.0194739)
(-0.0758382 0 -0.0205824)
(-0.0759093 0 -0.0217611)
(-0.0759891 0 -0.023019)
(-0.0760784 0 -0.0243646)
(-0.0761784 0 -0.0258061)
(-0.0762901 0 -0.0273517)
(-0.0764147 0 -0.0290093)
(-0.0765535 0 -0.0307875)
(-0.076708 0 -0.0326947)
(-0.0768796 0 -0.03474)
(-0.0770704 0 -0.0369327)
(-0.0772823 0 -0.0392827)
(-0.0775174 0 -0.0418001)
(-0.0777777 0 -0.0444952)
(-0.0780651 0 -0.047378)
(-0.0783811 0 -0.0504581)
(-0.0787271 0 -0.0537444)
(-0.0791042 0 -0.0572449)
(-0.0795134 0 -0.0609664)
(-0.079954 0 -0.0649155)
(-0.0804649 0 -0.0694599)
(-0.0810296 0 -0.0745155)
(-0.0815863 0 -0.0796328)
(-0.0821219 0 -0.0848195)
(-0.0826259 0 -0.090081)
(-0.0830845 0 -0.0954238)
(-0.0834838 0 -0.100855)
(-0.0838075 0 -0.106385)
(-0.0840392 0 -0.112029)
(-0.0841635 0 -0.117816)
(-0.0841671 0 -0.123787)
(-0.084041 0 -0.129996)
(-0.0837841 0 -0.136509)
(-0.083408 0 -0.143383)
(-0.0829419 0 -0.150646)
(-0.0824392 0 -0.158238)
(-0.0819827 0 -0.165925)
(-0.0816837 0 -0.173174)
(-0.0816598 0 -0.179029)
(-0.0819862 0 -0.182081)
(-0.0732418 0 -0.00763461)
(-0.0734419 0 -0.0111785)
(-0.0734845 0 -0.0125608)
(-0.0735434 0 -0.0135761)
(-0.0735901 0 -0.0145186)
(-0.0736283 0 -0.0154435)
(-0.0736645 0 -0.0163737)
(-0.0737025 0 -0.0173271)
(-0.0737445 0 -0.0183178)
(-0.0737918 0 -0.0193576)
(-0.0738455 0 -0.0204574)
(-0.0739064 0 -0.0216268)
(-0.0739752 0 -0.022875)
(-0.0740528 0 -0.0242105)
(-0.0741398 0 -0.0256416)
(-0.0742372 0 -0.0271763)
(-0.0743459 0 -0.0288228)
(-0.0744669 0 -0.0305893)
(-0.0746013 0 -0.0324845)
(-0.0747504 0 -0.0345173)
(-0.0749156 0 -0.0366973)
(-0.0750985 0 -0.0390343)
(-0.0753008 0 -0.0415385)
(-0.075524 0 -0.0442203)
(-0.0757692 0 -0.0470899)
(-0.0760373 0 -0.0501574)
(-0.0763289 0 -0.0534319)
(-0.0766442 0 -0.056922)
(-0.0769834 0 -0.0606353)
(-0.0773446 0 -0.0645792)
(-0.0777578 0 -0.0691226)
(-0.0782052 0 -0.0741837)
(-0.0786343 0 -0.079314)
(-0.0790321 0 -0.0845215)
(-0.0793879 0 -0.0898124)
(-0.0796882 0 -0.0951939)
(-0.0799191 0 -0.100674)
(-0.0800643 0 -0.106262)
(-0.0801082 0 -0.111976)
(-0.0800359 0 -0.117842)
(-0.0798348 0 -0.123898)
(-0.0794964 0 -0.130197)
(-0.0790205 0 -0.136795)
(-0.0784191 0 -0.143742)
(-0.0777211 0 -0.15105)
(-0.0769778 0 -0.158642)
(-0.0762671 0 -0.166266)
(-0.0756906 0 -0.17338)
(-0.0753504 0 -0.179043)
(-0.0753039 0 -0.18189)
(-0.0713255 0 -0.0074081)
(-0.0715006 0 -0.0109246)
(-0.0715292 0 -0.012362)
(-0.0715805 0 -0.0134352)
(-0.0716219 0 -0.0144143)
(-0.0716553 0 -0.0153563)
(-0.0716863 0 -0.0162912)
(-0.0717184 0 -0.0172423)
(-0.0717537 0 -0.0182273)
(-0.0717936 0 -0.0192597)
(-0.0718392 0 -0.0203511)
(-0.0718911 0 -0.0215118)
(-0.07195 0 -0.0227511)
(-0.0720167 0 -0.0240775)
(-0.0720917 0 -0.0254993)
(-0.0721756 0 -0.0270245)
(-0.0722693 0 -0.0286613)
(-0.0723733 0 -0.0304179)
(-0.0724885 0 -0.032303)
(-0.0726159 0 -0.0343257)
(-0.0727566 0 -0.0364953)
(-0.0729118 0 -0.0388219)
(-0.0730827 0 -0.0413158)
(-0.0732704 0 -0.0439875)
(-0.0734753 0 -0.0468475)
(-0.0736976 0 -0.049906)
(-0.0739373 0 -0.0531728)
(-0.0741937 0 -0.0566568)
(-0.0744661 0 -0.0603665)
(-0.0747519 0 -0.0643102)
(-0.0750721 0 -0.0688583)
(-0.0754081 0 -0.0739316)
(-0.0757161 0 -0.0790814)
(-0.0759834 0 -0.0843163)
(-0.076199 0 -0.0896433)
(-0.0763496 0 -0.09507)
(-0.0764211 0 -0.100605)
(-0.0763978 0 -0.106258)
(-0.0762642 0 -0.112047)
(-0.0760059 0 -0.117997)
(-0.0756109 0 -0.124145)
(-0.0750711 0 -0.130538)
(-0.0743868 0 -0.137227)
(-0.0735704 0 -0.144251)
(-0.0726497 0 -0.151609)
(-0.0716743 0 -0.159208)
(-0.0707171 0 -0.166781)
(-0.0698702 0 -0.173782)
(-0.069221 0 -0.179284)
(-0.0688111 0 -0.181971)
(-0.06937 0 -0.00722697)
(-0.0695271 0 -0.0107165)
(-0.0695458 0 -0.0121903)
(-0.069592 0 -0.0133078)
(-0.0696306 0 -0.0143186)
(-0.0696614 0 -0.0152776)
(-0.0696894 0 -0.0162186)
(-0.0697175 0 -0.0171692)
(-0.069748 0 -0.01815)
(-0.0697822 0 -0.0191762)
(-0.069821 0 -0.0202606)
(-0.0698653 0 -0.0214137)
(-0.0699156 0 -0.0226451)
(-0.0699724 0 -0.0239636)
(-0.0700363 0 -0.0253775)
(-0.0701078 0 -0.0268947)
(-0.0701873 0 -0.0285234)
(-0.0702754 0 -0.030272)
(-0.0703725 0 -0.032149)
(-0.0704794 0 -0.0341636)
(-0.0705968 0 -0.0363253)
(-0.0707257 0 -0.0386441)
(-0.0708667 0 -0.0411304)
(-0.0710205 0 -0.043795)
(-0.0711871 0 -0.0466486)
(-0.0713659 0 -0.0497017)
(-0.0715562 0 -0.0529644)
(-0.0717567 0 -0.0564464)
(-0.0719658 0 -0.0601569)
(-0.07218 0 -0.0641052)
(-0.0724123 0 -0.0686635)
(-0.0726429 0 -0.0737549)
(-0.0728365 0 -0.0789302)
(-0.0729805 0 -0.0841988)
(-0.0730639 0 -0.089568)
(-0.0730734 0 -0.0950462)
(-0.0729949 0 -0.100642)
(-0.0728127 0 -0.106367)
(-0.0725119 0 -0.112237)
(-0.0720783 0 -0.118276)
(-0.0715002 0 -0.12452)
(-0.0707699 0 -0.131012)
(-0.0698881 0 -0.137796)
(-0.068867 0 -0.144902)
(-0.0677337 0 -0.152316)
(-0.0665351 0 -0.159931)
(-0.06534 0 -0.167467)
(-0.0642311 0 -0.174375)
(-0.0632827 0 -0.179746)
(-0.0625223 0 -0.182315)
(-0.0673912 0 -0.00707432)
(-0.0675359 0 -0.0105383)
(-0.0675472 0 -0.0120371)
(-0.0675892 0 -0.01319)
(-0.0676251 0 -0.0142289)
(-0.0676537 0 -0.0152047)
(-0.0676792 0 -0.016153)
(-0.0677044 0 -0.0171048)
(-0.0677311 0 -0.0180829)
(-0.0677607 0 -0.0191046)
(-0.067794 0 -0.0201832)
(-0.0678318 0 -0.0213301)
(-0.0678745 0 -0.0225552)
(-0.0679226 0 -0.0238672)
(-0.0679765 0 -0.0252745)
(-0.0680366 0 -0.0267853)
(-0.068103 0 -0.0284076)
(-0.0681762 0 -0.0301499)
(-0.0682564 0 -0.0320208)
(-0.0683439 0 -0.0340294)
(-0.0684394 0 -0.0361854)
(-0.0685433 0 -0.0384989)
(-0.0686561 0 -0.0409803)
(-0.0687779 0 -0.0436407)
(-0.0689081 0 -0.0464909)
(-0.0690458 0 -0.0495418)
(-0.0691895 0 -0.0528041)
(-0.0693371 0 -0.0562879)
(-0.0694864 0 -0.0600033)
(-0.0696331 0 -0.0639606)
(-0.0697824 0 -0.0685342)
(-0.0699137 0 -0.0736493)
(-0.0699997 0 -0.0788559)
(-0.0700278 0 -0.0841638)
(-0.0699871 0 -0.0895811)
(-0.0698642 0 -0.0951165)
(-0.0696449 0 -0.100779)
(-0.0693137 0 -0.10658)
(-0.068856 0 -0.112536)
(-0.0682578 0 -0.118671)
(-0.0675074 0 -0.125017)
(-0.0665976 0 -0.131612)
(-0.0655292 0 -0.138495)
(-0.0643143 0 -0.145688)
(-0.0629784 0 -0.153165)
(-0.0615665 0 -0.160805)
(-0.0601426 0 -0.168317)
(-0.0587816 0 -0.175152)
(-0.0575456 0 -0.18042)
(-0.0564502 0 -0.182909)
(-0.0653995 0 -0.00694258)
(-0.0655342 0 -0.0103835)
(-0.0655391 0 -0.0119007)
(-0.0655766 0 -0.0130827)
(-0.0656096 0 -0.0141463)
(-0.0656361 0 -0.0151378)
(-0.0656596 0 -0.0160937)
(-0.0656825 0 -0.0170474)
(-0.0657063 0 -0.0180242)
(-0.0657322 0 -0.0190426)
(-0.0657611 0 -0.020117)
(-0.0657934 0 -0.0212591)
(-0.0658296 0 -0.0224792)
(-0.06587 0 -0.0237862)
(-0.065915 0 -0.0251886)
(-0.0659647 0 -0.0266945)
(-0.0660192 0 -0.0283122)
(-0.0660786 0 -0.03005)
(-0.066143 0 -0.0319167)
(-0.0662126 0 -0.0339215)
(-0.0662875 0 -0.036074)
(-0.066368 0 -0.0383844)
(-0.0664542 0 -0.0408636)
(-0.0665458 0 -0.0435224)
(-0.0666419 0 -0.0463721)
(-0.0667409 0 -0.0494241)
(-0.0668406 0 -0.0526892)
(-0.0669386 0 -0.0561785)
(-0.0670316 0 -0.0599026)
(-0.067115 0 -0.0638728)
(-0.0671864 0 -0.0684664)
(-0.0672247 0 -0.0736104)
(-0.0672099 0 -0.0788537)
(-0.0671297 0 -0.0842063)
(-0.0669729 0 -0.089677)
(-0.0667262 0 -0.0952749)
(-0.0663755 0 -0.10101)
(-0.0659052 0 -0.106893)
(-0.0653008 0 -0.11294)
(-0.0645488 0 -0.119175)
(-0.0636373 0 -0.125626)
(-0.062559 0 -0.13233)
(-0.0613151 0 -0.139318)
(-0.0599171 0 -0.146603)
(-0.0583895 0 -0.154149)
(-0.0567744 0 -0.161823)
(-0.0551318 0 -0.169324)
(-0.0535292 0 -0.176105)
(-0.0520181 0 -0.181297)
(-0.0506051 0 -0.183738)
(-0.0633956 0 -0.00682959)
(-0.0635217 0 -0.0102502)
(-0.0635208 0 -0.0117805)
(-0.0635544 0 -0.0129858)
(-0.0635852 0 -0.0140702)
(-0.0636104 0 -0.0150756)
(-0.0636328 0 -0.0160387)
(-0.0636544 0 -0.016995)
(-0.0636765 0 -0.0179715)
(-0.0636999 0 -0.018988)
(-0.0637253 0 -0.0200596)
(-0.0637532 0 -0.0211986)
(-0.0637839 0 -0.0224152)
(-0.0638177 0 -0.0237188)
(-0.0638548 0 -0.0251179)
(-0.0638952 0 -0.0266207)
(-0.0639388 0 -0.0282355)
(-0.0639856 0 -0.0299707)
(-0.0640355 0 -0.0318351)
(-0.0640883 0 -0.033838)
(-0.0641441 0 -0.0359891)
(-0.0642027 0 -0.0382989)
(-0.0642641 0 -0.040778)
(-0.0643276 0 -0.0434379)
(-0.0643917 0 -0.0462899)
(-0.0644544 0 -0.0493457)
(-0.0645131 0 -0.0526169)
(-0.0645646 0 -0.0561149)
(-0.0646051 0 -0.0598513)
(-0.0646292 0 -0.0638383)
(-0.064628 0 -0.0684562)
(-0.0645795 0 -0.073634)
(-0.0644709 0 -0.0789187)
(-0.0642899 0 -0.0843209)
(-0.0640253 0 -0.0898499)
(-0.0636637 0 -0.0955153)
(-0.0631908 0 -0.101327)
(-0.0625913 0 -0.107297)
(-0.0618508 0 -0.11344)
(-0.0609557 0 -0.119779)
(-0.0598942 0 -0.126342)
(-0.0586588 0 -0.133159)
(-0.0572505 0 -0.140256)
(-0.0556807 0 -0.147639)
(-0.0539722 0 -0.155261)
(-0.0521646 0 -0.162977)
(-0.0503137 0 -0.170481)
(-0.0484804 0 -0.177226)
(-0.0467073 0 -0.182366)
(-0.0449942 0 -0.184789)
(-0.0613784 0 -0.00673238)
(-0.0614979 0 -0.010135)
(-0.0614928 0 -0.0116734)
(-0.0615239 0 -0.0128961)
(-0.0615539 0 -0.0139971)
(-0.0615792 0 -0.0150145)
(-0.061602 0 -0.0159849)
(-0.0616236 0 -0.0169447)
(-0.0616449 0 -0.0179224)
(-0.0616669 0 -0.0189386)
(-0.0616899 0 -0.0200091)
(-0.0617143 0 -0.0211465)
(-0.0617406 0 -0.0223614)
(-0.0617688 0 -0.0236633)
(-0.0617989 0 -0.0250608)
(-0.061831 0 -0.0265622)
(-0.0618649 0 -0.0281758)
(-0.0619002 0 -0.0299101)
(-0.0619367 0 -0.0317741)
(-0.0619741 0 -0.0337771)
(-0.0620122 0 -0.035929)
(-0.0620506 0 -0.0382401)
(-0.0620889 0 -0.0407216)
(-0.0621262 0 -0.0433849)
(-0.0621606 0 -0.0462417)
(-0.0621896 0 -0.0493042)
(-0.0622101 0 -0.0525843)
(-0.0622184 0 -0.0560942)
(-0.06221 0 -0.0598462)
(-0.0621791 0 -0.0638534)
(-0.0621106 0 -0.0684996)
(-0.0619818 0 -0.0737156)
(-0.0617863 0 -0.0790461)
(-0.0615122 0 -0.0845024)
(-0.0611479 0 -0.0900943)
(-0.0606802 0 -0.0958317)
(-0.0600947 0 -0.101725)
(-0.059376 0 -0.107786)
(-0.0585098 0 -0.11403)
(-0.0574826 0 -0.120478)
(-0.0562824 0 -0.127156)
(-0.0549016 0 -0.13409)
(-0.0533404 0 -0.141303)
(-0.0516099 0 -0.148789)
(-0.0497317 0 -0.156494)
(-0.0477424 0 -0.164262)
(-0.0456939 0 -0.171781)
(-0.0436412 0 -0.178507)
(-0.0416191 0 -0.183618)
(-0.0396222 0 -0.186047)
(-0.0593523 0 -0.00664574)
(-0.0594677 0 -0.0100314)
(-0.0594604 0 -0.0115736)
(-0.0594908 0 -0.0128087)
(-0.0595214 0 -0.013923)
(-0.0595479 0 -0.0149512)
(-0.059572 0 -0.0159292)
(-0.0595944 0 -0.0168939)
(-0.059616 0 -0.0178744)
(-0.0596372 0 -0.0188922)
(-0.0596586 0 -0.0199635)
(-0.0596805 0 -0.0211011)
(-0.059703 0 -0.0223161)