/*--------------------------------*- C++ -*----------------------------------*\
  =========                 |
  \\      /  F ield         | OpenFOAM: The Open Source CFD Toolbox
   \\    /   O peration     | Website:  https://openfoam.org
    \\  /    A nd           | Version:  9
     \\/     M anipulation  |
\*---------------------------------------------------------------------------*/
FoamFile
{
    format      ascii;
    class       volScalarField;
    location    "0.12";
    object      alpha.water;
}
// * * * * * * * * * * * * * * * * * * * * * * * * * * * * * * * * * * * * * //

dimensions      [0 0 0 0 0 0 0];

internalField   nonuniform List<scalar> 
5000
(
5.03058e-320
4.98216e-320
1.22627e-319
1.21619e-319
4.98611e-320
5.03354e-320
5.04737e-320
5.1699e-320
1.21165e-319
5.16002e-320
5.10469e-320
5.13038e-320
5.09975e-320
5.03354e-320
4.96437e-320
1.22528e-319
1.2155e-319
4.98216e-320
5.06714e-320
5.14026e-320
6.32503e-320
6.67384e-320
7.02957e-320
7.4011e-320
7.86355e-320
8.7667e-320
1.9652e-319
9.46531e-320
9.60661e-320
1.00048e-319
1.04722e-319
1.09663e-319
1.14801e-319
1.20137e-319
1.25671e-319
1.31451e-319
1.37469e-319
1.43743e-319
1.50295e-319
1.57113e-319
1.64247e-319
1.71678e-319
1.79415e-319
1.87488e-319
1.95907e-319
2.04672e-319
2.13802e-319
2.23298e-319
2.33179e-319
2.43456e-319
5.02959e-320
4.98216e-320
1.2157e-319
1.21343e-319
5.01971e-320
5.04737e-320
5.05429e-320
5.17978e-320
1.20335e-319
5.17978e-320
5.1116e-320
5.13334e-320
5.09876e-320
5.02959e-320
4.9624e-320
1.21184e-319
1.21234e-319
5.01477e-320
5.08492e-320
5.15014e-320
6.33392e-320
6.67977e-320
7.03352e-320
7.40506e-320
7.86948e-320
8.73706e-320
1.93614e-319
9.53151e-320
9.67282e-320
1.00473e-319
1.04979e-319
1.09821e-319
1.149e-319
1.20206e-319
1.2573e-319
1.31491e-319
1.37508e-319
1.43773e-319
1.50315e-319
1.57133e-319
1.64257e-319
1.71678e-319
1.79425e-319
1.87508e-319
1.95917e-319
2.04682e-319
2.13812e-319
2.23308e-319
2.33199e-319
2.43476e-319
5.03453e-320
4.99006e-320
1.20078e-319
1.20532e-319
5.05034e-320
5.06417e-320
5.06516e-320
5.19559e-320
1.19159e-319
5.19955e-320
5.12148e-320
5.14026e-320
5.10271e-320
5.03453e-320
4.9703e-320
1.19564e-319
1.20177e-319
5.04342e-320
5.10271e-320
5.162e-320
6.34578e-320
6.68866e-320
7.04241e-320
7.42087e-320
7.90011e-320
8.71927e-320
1.90443e-319
9.55128e-320
9.71728e-320
1.00799e-319
1.05216e-319
1.09999e-319
1.15028e-319
1.20295e-319
1.25809e-319
1.3155e-319
1.37548e-319
1.43813e-319
1.50344e-319
1.57162e-319
1.64287e-319
1.71698e-319
1.79445e-319
1.87508e-319
1.95927e-319
2.04682e-319
2.13812e-319
2.23318e-319
2.33199e-319
2.43476e-319
5.04342e-320
5.00093e-320
1.18418e-319
1.19396e-319
5.07504e-320
5.07899e-320
5.08097e-320
5.21437e-320
1.17884e-319
5.21733e-320
5.13235e-320
5.14816e-320
5.10963e-320
5.04441e-320
4.98611e-320
1.18013e-319
1.18783e-319
5.06714e-320
5.11852e-320
5.17386e-320
6.35764e-320
6.69953e-320
7.05526e-320
7.44063e-320
7.93469e-320
8.69951e-320
1.87784e-319
9.54535e-320
9.74594e-320
1.01027e-319
1.05374e-319
1.10117e-319
1.15137e-319
1.20374e-319
1.25868e-319
1.31599e-319
1.37587e-319
1.43852e-319
1.50374e-319
1.57192e-319
1.64306e-319
1.71717e-319
1.79464e-319
1.87528e-319
1.95937e-319
2.04701e-319
2.13822e-319
2.23318e-319
2.33199e-319
2.43476e-319
5.05528e-320
5.01378e-320
1.16856e-319
1.18101e-319
5.09382e-320
5.09184e-320
5.09678e-320
5.23314e-320
1.16669e-319
5.23117e-320
5.14421e-320
5.15805e-320
5.1205e-320
5.05726e-320
5.0039e-320
1.16619e-319
1.17291e-319
5.08295e-320
5.13038e-320
5.18571e-320
6.36752e-320
6.70941e-320
7.06711e-320
7.46039e-320
7.96434e-320
8.67777e-320
1.85798e-319
9.52756e-320
9.76274e-320
1.01204e-319
1.05513e-319
1.10216e-319
1.15216e-319
1.20443e-319
1.25927e-319
1.31649e-319
1.37627e-319
1.43872e-319
1.50403e-319
1.57212e-319
1.64326e-319
1.71737e-319
1.79464e-319
1.87537e-319
1.95946e-319
2.04701e-319
2.13812e-319
2.23318e-319
2.33199e-319
2.43466e-319
5.06714e-320
5.02761e-320
1.15493e-319
1.16807e-319
5.10666e-320
5.10271e-320
5.11358e-320
5.24994e-320
1.15572e-319
5.24302e-320
5.15607e-320
5.16694e-320
5.13038e-320
5.07109e-320
5.02168e-320
1.15404e-319
1.15888e-319
5.0948e-320
5.14125e-320
5.19362e-320
6.3774e-320
6.71929e-320
7.07897e-320
7.47917e-320
7.98805e-320
8.65603e-320
9.21729e-320
9.50385e-320
9.77262e-320
1.01323e-319
1.05611e-319
1.10295e-319
1.15275e-319
1.20493e-319
1.25967e-319
1.31678e-319
1.37666e-319
1.43902e-319
1.50423e-319
1.57231e-319
1.64336e-319
1.71747e-319
1.79484e-319
1.87537e-319
1.95946e-319
2.04701e-319
2.13812e-319
2.23298e-319
2.33179e-319
2.43446e-319
5.07899e-320
5.04243e-320
1.14366e-319
1.15552e-319
5.11654e-320
5.11259e-320
5.12939e-320
5.26674e-320
1.14633e-319
5.25291e-320
5.16793e-320
5.17484e-320
5.14224e-320
5.08295e-320
5.03947e-320
1.14347e-319
1.14623e-319
5.10271e-320
5.14915e-320
5.20152e-320
6.3853e-320
6.72819e-320
7.09083e-320
7.49596e-320
8.00584e-320
8.63528e-320
9.16393e-320
9.4831e-320
9.77558e-320
1.01402e-319
1.05691e-319
1.10355e-319
1.15315e-319
1.20532e-319
1.25997e-319
1.31718e-319
1.37686e-319
1.43921e-319
1.50433e-319
1.57241e-319
1.64346e-319
1.71747e-319
1.79474e-319
1.87528e-319
1.95927e-319
2.04682e-319
2.13792e-319
2.23278e-319
2.33159e-319
2.43416e-319
5.08986e-320
5.05726e-320
1.13477e-319
1.14386e-319
5.12247e-320
5.1205e-320
5.14421e-320
5.28453e-320
1.13862e-319
5.26081e-320
5.17781e-320
5.18275e-320
5.15212e-320
5.0948e-320
5.05528e-320
1.13428e-319
5.67583e-320
5.10864e-320
5.15508e-320
5.20745e-320
6.39222e-320
6.7351e-320
7.10071e-320
7.51177e-320
8.01869e-320
8.6165e-320
9.12243e-320
9.46333e-320
9.77657e-320
1.01471e-319
1.0575e-319
1.10404e-319
1.15354e-319
1.20562e-319
1.26026e-319
1.31728e-319
1.37696e-319
1.43931e-319
1.50443e-319
1.57241e-319
1.64336e-319
1.71737e-319
1.79464e-319
1.87518e-319
1.95907e-319
2.04662e-319
2.13772e-319
2.23249e-319
2.3312e-319
2.43377e-319
5.09876e-320
5.07405e-320
5.63828e-320
5.66594e-320
5.12643e-320
5.12643e-320
5.15607e-320
5.30034e-320
1.1324e-319
5.2697e-320
5.18571e-320
5.18967e-320
5.162e-320
5.10469e-320
5.06911e-320
5.63037e-320
5.63037e-320
5.11358e-320
5.16002e-320
5.2114e-320
6.39716e-320
6.74202e-320
7.1096e-320
7.52462e-320
8.02857e-320
8.60069e-320
9.08883e-320
9.44555e-320
9.77459e-320
1.01511e-319
1.05789e-319
1.10434e-319
1.15374e-319
1.20582e-319
1.26026e-319
1.31738e-319
1.37706e-319
1.43931e-319
1.50433e-319
1.57231e-319
1.64326e-319
1.71727e-319
1.79445e-319
1.87498e-319
1.95887e-319
2.04622e-319
2.13733e-319
2.23199e-319
2.33061e-319
2.43317e-319
5.10765e-320
5.08986e-320
5.61259e-320
5.62049e-320
5.1284e-320
5.13334e-320
5.16793e-320
5.31615e-320
5.63729e-320
5.2786e-320
5.19362e-320
5.19559e-320
5.1699e-320
5.11358e-320
5.08097e-320
5.5948e-320
5.59183e-320
5.11654e-320
5.16299e-320
5.21536e-320
6.40111e-320
6.74696e-320
7.11751e-320
7.53549e-320
8.03548e-320
8.58686e-320
9.06314e-320
9.42974e-320
9.77262e-320
1.0154e-319
1.05809e-319
1.10453e-319
1.15394e-319
1.20592e-319
1.26036e-319
1.31738e-319
1.37696e-319
1.43931e-319
1.50433e-319
1.57222e-319
1.64306e-319
1.71698e-319
1.79425e-319
1.87468e-319
1.95848e-319
2.04583e-319
2.13674e-319
2.2314e-319
2.33001e-319
2.43238e-319
5.11457e-320
5.10469e-320
5.58986e-320
5.58097e-320
5.13235e-320
5.13828e-320
5.17781e-320
5.32998e-320
5.61654e-320
5.28749e-320
5.20152e-320
5.20053e-320
5.17583e-320
5.1205e-320
5.09085e-320
5.56219e-320
5.55923e-320
5.1205e-320
5.16496e-320
5.21733e-320
6.40408e-320
6.75091e-320
7.12443e-320
7.54537e-320
8.03944e-320
8.57303e-320
9.03943e-320
9.41491e-320
9.76867e-320
1.0154e-319
1.05829e-319
1.10473e-319
1.15404e-319
1.20592e-319
1.26036e-319
1.31728e-319
1.37686e-319
1.43911e-319
1.50413e-319
1.57192e-319
1.64287e-319
1.71678e-319
1.79385e-319
1.87419e-319
1.95798e-319
2.04523e-319
2.13614e-319
2.23081e-319
2.32922e-319
2.43159e-319
5.1205e-320
5.11951e-320
5.57108e-320
5.54836e-320
5.13433e-320
5.14421e-320
5.18769e-320
5.34184e-320
5.60073e-320
5.29638e-320
5.20745e-320
5.20548e-320
5.18176e-320
5.12544e-320
5.09876e-320
5.53156e-320
5.53156e-320
5.12247e-320
5.16496e-320
5.21931e-320
6.40606e-320
6.75487e-320
7.12838e-320
7.55229e-320
8.0424e-320
8.56117e-320
9.01966e-320
9.40207e-320
9.76471e-320
1.0155e-319
1.05849e-319
1.10473e-319
1.15404e-319
1.20592e-319
1.26026e-319
1.31718e-319
1.37666e-319
1.43892e-319
1.50384e-319
1.57172e-319
1.64247e-319
1.71638e-319
1.79336e-319
1.87369e-319
1.95729e-319
2.04464e-319
2.13535e-319
2.22992e-319
2.32823e-319
2.43041e-319
5.12445e-320
5.13235e-320
5.5533e-320
5.52069e-320
5.13729e-320
5.14816e-320
5.19658e-320
5.3537e-320
5.58788e-320
5.30528e-320
5.21536e-320
5.20943e-320
5.18571e-320
5.12939e-320
5.10469e-320
5.50389e-320
5.50784e-320
5.12544e-320
5.16397e-320
5.21931e-320
6.40704e-320
6.75684e-320
7.13332e-320
7.55822e-320
8.04339e-320
8.54931e-320
9.00188e-320
9.38922e-320
9.75977e-320
1.0154e-319
1.05849e-319
1.10473e-319
1.15394e-319
1.20572e-319
1.26007e-319
1.31698e-319
1.37647e-319
1.43852e-319
1.50354e-319
1.57133e-319
1.64208e-319
1.71579e-319
1.79287e-319
1.8731e-319
1.9567e-319
2.04385e-319
2.13456e-319
2.22893e-319
2.32715e-319
2.42922e-319
5.12939e-320
5.14224e-320
5.53749e-320
5.49796e-320
5.14026e-320
5.1531e-320
5.20548e-320
5.36259e-320
5.57701e-320
5.31417e-320
5.22129e-320
5.21239e-320
5.18868e-320
5.13235e-320
5.10864e-320
5.4782e-320
5.4861e-320
5.1284e-320
5.162e-320
5.21931e-320
6.40704e-320
6.75882e-320
7.13727e-320
7.56316e-320
8.0424e-320
8.53745e-320
8.98607e-320
9.37835e-320
9.75483e-320
1.0153e-319
1.05849e-319
1.10473e-319
1.15394e-319
1.20562e-319
1.25987e-319
1.31678e-319
1.37617e-319
1.43832e-319
1.50315e-319
1.57083e-319
1.64148e-319
1.7152e-319
1.79217e-319
1.87231e-319
1.95591e-319
2.04286e-319
2.13357e-319
2.22784e-319
2.32596e-319
2.42794e-319
5.13235e-320
5.15014e-320
5.5197e-320
5.4782e-320
5.14322e-320
5.15706e-320
5.21239e-320
5.37049e-320
5.56713e-320
5.32306e-320
5.22721e-320
5.21536e-320
5.19164e-320
5.13631e-320
5.11259e-320
5.45547e-320
5.46733e-320
5.13038e-320
5.16002e-320
5.21733e-320
6.40704e-320
6.75882e-320
7.14024e-320
7.56513e-320
8.04141e-320
8.52757e-320
8.97124e-320
9.36748e-320
9.7489e-320
1.01511e-319
1.05829e-319
1.10463e-319
1.15374e-319
1.20542e-319
1.25967e-319
1.31639e-319
1.37587e-319
1.43793e-319
1.50275e-319
1.57034e-319
1.64099e-319
1.71461e-319
1.79148e-319
1.87152e-319
1.95502e-319
2.04197e-319
2.13249e-319
2.22666e-319
2.32468e-319
2.42646e-319
5.13631e-320
5.15607e-320
5.5029e-320
5.46041e-320
5.14619e-320
5.16002e-320
5.21931e-320
5.37741e-320
5.55923e-320
5.33196e-320
5.23216e-320
5.21733e-320
5.19461e-320
5.13927e-320
5.11654e-320
5.43472e-320
5.45053e-320
5.13334e-320
5.15805e-320
5.21635e-320
6.40606e-320
6.75981e-320
7.14221e-320
7.5681e-320
8.03845e-320
8.5167e-320
8.9584e-320
9.35662e-320
9.74396e-320
1.01481e-319
1.05819e-319
1.10453e-319
1.15354e-319
1.20522e-319
1.25937e-319
1.31619e-319
1.37548e-319
1.43743e-319
1.50216e-319
1.56975e-319
1.6403e-319
1.71401e-319
1.79069e-319
1.87073e-319
1.95413e-319
2.04089e-319
2.1314e-319
2.22547e-319
2.32329e-319
2.42497e-319
5.13828e-320
5.16002e-320
5.4861e-320
5.44658e-320
5.15014e-320
5.16299e-320
5.22524e-320
5.38334e-320
5.5533e-320
5.34085e-320
5.2371e-320
5.21931e-320
5.19658e-320
5.14224e-320
5.1205e-320
5.41694e-320
5.4367e-320
5.13631e-320
5.15607e-320
5.21437e-320
6.40507e-320
6.76079e-320
7.14419e-320
7.56909e-320
8.03548e-320
8.50682e-320
8.94456e-320
9.34673e-320
9.73803e-320
1.01461e-319
1.05799e-319
1.10434e-319
1.15335e-319
1.20493e-319
1.25908e-319
1.3158e-319
1.37508e-319
1.43694e-319
1.50166e-319
1.56915e-319
1.63971e-319
1.71322e-319
1.7899e-319
1.86974e-319
1.95314e-319
2.0398e-319
2.13011e-319
2.22409e-319
2.32181e-319
2.42329e-319
5.14026e-320
5.162e-320
5.46931e-320
5.43275e-320
5.15212e-320
5.16496e-320
5.23117e-320
5.38927e-320
5.54737e-320
5.34974e-320
5.24302e-320
5.22129e-320
5.19856e-320
5.1452e-320
5.12445e-320
5.40211e-320
5.42385e-320
5.13828e-320
5.15409e-320
5.21239e-320
6.40408e-320
6.76079e-320
7.14518e-320
7.57106e-320
8.03153e-320
8.49694e-320
8.93271e-320
9.33685e-320
9.73211e-320
1.01422e-319
1.0577e-319
1.10414e-319
1.15305e-319
1.20463e-319
1.25868e-319
1.3154e-319
1.37459e-319
1.43645e-319
1.50117e-319
1.56856e-319
1.63891e-319
1.71243e-319
1.78901e-319
1.86875e-319
1.95195e-319
2.03861e-319
2.12883e-319
2.2226e-319
2.32023e-319
2.42151e-319
5.14322e-320
5.16496e-320
5.45448e-320
5.4199e-320
5.15607e-320
5.16694e-320
5.2371e-320
5.3952e-320
5.54342e-320
5.35765e-320
5.24895e-320
5.22326e-320
5.19955e-320
5.14816e-320
5.1284e-320
5.38927e-320
5.41298e-320
5.14224e-320
5.15212e-320
5.2114e-320
6.40309e-320
6.76079e-320
7.14617e-320
7.57106e-320
8.02758e-320
8.48805e-320
8.92184e-320
9.32796e-320
9.72618e-320
1.01382e-319
1.0575e-319
1.10374e-319
1.15275e-319
1.20433e-319
1.25829e-319
1.31491e-319
1.3741e-319
1.43595e-319
1.50048e-319
1.56787e-319
1.63822e-319
1.71164e-319
1.78812e-319
1.86777e-319
1.95077e-319
2.03733e-319
2.12745e-319
2.22112e-319
2.31855e-319
2.41974e-319
5.14619e-320
5.16793e-320
5.44065e-320
5.40804e-320
5.15805e-320
5.16793e-320
5.24204e-320
5.40113e-320
5.53946e-320
5.36555e-320
5.25389e-320
5.22524e-320
5.20152e-320
5.15014e-320
5.13038e-320
5.37741e-320
5.40409e-320
5.1452e-320
5.15113e-320
5.20943e-320
6.4021e-320
6.76079e-320
7.14715e-320
7.57007e-320
8.02363e-320
8.47817e-320
8.91097e-320
9.31808e-320
9.72025e-320
1.01343e-319
1.0571e-319
1.10355e-319
1.15246e-319
1.20394e-319
1.25789e-319
1.31441e-319
1.3735e-319
1.43536e-319
1.49979e-319
1.56718e-319
1.63743e-319
1.71065e-319
1.78713e-319
1.86668e-319
1.94958e-319
2.03595e-319
2.12587e-319
2.21954e-319
2.31677e-319
2.41776e-319
5.14816e-320
5.1699e-320
5.42879e-320
5.39717e-320
5.162e-320
5.1699e-320
5.24698e-320
5.40705e-320
5.5365e-320
5.37445e-320
5.25883e-320
5.22524e-320
5.20152e-320
5.15113e-320
5.13433e-320
5.36555e-320
5.39618e-320
5.14915e-320
5.15014e-320
5.20745e-320
6.40111e-320
6.76079e-320
7.14715e-320
7.56909e-320
8.01869e-320
8.47026e-320
8.90109e-320
9.31017e-320
9.71333e-320
1.01303e-319
1.05691e-319
1.10315e-319
1.15216e-319
1.20354e-319
1.2575e-319
1.31402e-319
1.37301e-319
1.43477e-319
1.49919e-319
1.56639e-319
1.63654e-319
1.70966e-319
1.78595e-319
1.86559e-319
1.9484e-319
2.03456e-319
2.12438e-319
2.21776e-319
2.31499e-319
2.41578e-319
5.15212e-320
5.17386e-320
5.41891e-320
5.3863e-320
5.16397e-320
5.17188e-320
5.25291e-320
5.41298e-320
5.53452e-320
5.38334e-320
5.26476e-320
5.22721e-320
5.20152e-320
5.15212e-320
5.13631e-320
5.35567e-320
5.38927e-320
5.1531e-320
5.15014e-320
5.20646e-320
6.40013e-320
6.75981e-320
7.14715e-320
7.5681e-320
8.01374e-320
8.46137e-320
8.89121e-320
9.30227e-320
9.7074e-320
1.01264e-319
1.05651e-319
1.10285e-319
1.15177e-319
1.20315e-319
1.257e-319
1.31342e-319
1.37242e-319
1.43407e-319
1.4984e-319
1.5656e-319
1.63565e-319
1.70868e-319
1.78496e-319
1.86431e-319
1.94701e-319
2.03318e-319
2.1228e-319
2.21608e-319
2.31302e-319
2.41361e-319
5.15508e-320
5.17781e-320
5.41101e-320
5.37543e-320
5.16595e-320
5.17484e-320
5.25883e-320
5.41891e-320
5.53354e-320
5.39124e-320
5.27069e-320
5.22919e-320
5.20152e-320
5.1531e-320
5.13729e-320
5.34579e-320
5.38433e-320
5.15706e-320
5.14816e-320
5.20548e-320
6.39914e-320
6.75981e-320
7.14715e-320
7.56711e-320
8.00979e-320
8.45346e-320
8.88132e-320
9.29337e-320
9.70147e-320
1.01214e-319
1.05611e-319
1.10256e-319
1.15137e-319
1.20275e-319
1.25651e-319
1.31283e-319
1.37182e-319
1.43338e-319
1.49761e-319
1.5648e-319
1.63476e-319
1.70769e-319
1.78377e-319
1.86302e-319
1.94563e-319
2.0316e-319
2.12112e-319
2.2142e-319
2.31104e-319
2.41144e-319
5.15903e-320
5.18374e-320
5.40409e-320
5.36654e-320
5.16694e-320
5.17781e-320
5.26575e-320
5.42484e-320
5.53354e-320
5.40014e-320
5.27761e-320
5.23018e-320
5.20152e-320
5.15409e-320
5.13828e-320
5.33591e-320
5.37939e-320
5.162e-320
5.14816e-320
5.2035e-320
6.39815e-320
6.75882e-320
7.14617e-320
7.56513e-320
8.00386e-320
8.44457e-320
8.87243e-320
9.28547e-320
9.69554e-320
1.01165e-319
1.05572e-319
1.10216e-319
1.15098e-319
1.20226e-319
1.25601e-319
1.31234e-319
1.37113e-319
1.43259e-319
1.49682e-319
1.56382e-319
1.63378e-319
1.7067e-319
1.78259e-319
1.86174e-319
1.94425e-319
2.03002e-319
2.11934e-319
2.21233e-319
2.30897e-319
2.40906e-319
5.162e-320
5.18868e-320
5.39915e-320
5.35765e-320
5.16793e-320
5.17978e-320
5.27267e-320
5.43176e-320
5.53452e-320
5.40903e-320
5.28453e-320
5.23216e-320
5.20152e-320
5.15409e-320
5.13729e-320
5.32405e-320
5.37543e-320
5.16694e-320
5.14718e-320
5.20251e-320
6.39716e-320
6.75882e-320
7.14617e-320
7.56217e-320
7.99892e-320
8.43666e-320
8.86354e-320
9.27756e-320
9.68962e-320
1.01115e-319
1.05532e-319
1.10167e-319
1.15048e-319
1.20177e-319
1.25552e-319
1.31174e-319
1.37054e-319
1.4319e-319
1.49603e-319
1.56303e-319
1.63279e-319
1.70551e-319
1.7814e-319
1.86045e-319
1.94267e-319
2.02844e-319
2.11757e-319
2.21035e-319
2.30679e-319
2.40669e-319
5.16595e-320
5.19559e-320
5.39421e-320
5.34974e-320
5.1699e-320
5.18275e-320
5.2786e-320
5.43867e-320
5.53551e-320
5.41891e-320
5.29243e-320
5.23512e-320
5.20251e-320
5.15409e-320
5.13631e-320
5.31318e-320
5.37148e-320
5.17188e-320
5.14619e-320
5.20053e-320
6.39519e-320
6.75684e-320
7.14419e-320
7.5592e-320
7.99398e-320
8.42876e-320
8.85563e-320
9.26966e-320
9.68369e-320
1.01066e-319
1.05483e-319
1.10127e-319
1.14999e-319
1.20127e-319
1.25493e-319
1.31105e-319
1.36975e-319
1.43121e-319
1.49524e-319
1.56204e-319
1.6317e-319
1.70433e-319
1.78012e-319
1.85897e-319
1.94109e-319
2.02666e-319
2.11569e-319
2.20828e-319
2.30452e-319
2.40422e-319
5.1699e-320
5.20152e-320
5.39026e-320
5.34184e-320
5.1699e-320
5.18571e-320
5.28551e-320
5.4446e-320
5.5365e-320
5.42879e-320
5.30034e-320
5.2371e-320
5.2035e-320
5.15508e-320
5.13532e-320
5.30231e-320
5.36555e-320
5.17781e-320
5.1452e-320
5.19757e-320
6.39321e-320
6.75487e-320
7.14221e-320
7.55624e-320
7.98805e-320
8.42184e-320
8.84674e-320
9.26274e-320
9.67677e-320
1.01017e-319
1.05434e-319
1.10078e-319
1.14959e-319
1.20078e-319
1.25433e-319
1.31046e-319
1.36915e-319
1.43042e-319
1.49425e-319
1.56105e-319
1.63061e-319
1.70314e-319
1.77883e-319
1.85749e-319
1.9395e-319
2.02488e-319
2.11381e-319
2.2062e-319
2.30225e-319
2.40165e-319
5.17287e-320
5.20745e-320
5.38729e-320
5.33393e-320
5.17188e-320
5.18967e-320
5.29243e-320
5.44856e-320
5.53749e-320
5.4367e-320
5.30923e-320
5.24105e-320
5.2035e-320
5.15607e-320
5.13433e-320
5.29045e-320
5.3616e-320
5.18374e-320
5.14421e-320
5.19559e-320
6.39025e-320
6.75388e-320
7.14024e-320
7.55328e-320
7.98212e-320
8.41394e-320
8.83785e-320
9.25484e-320
9.66985e-320
1.00967e-319
1.05394e-319
1.10038e-319
1.1491e-319
1.20018e-319
1.25374e-319
1.30987e-319
1.36836e-319
1.42953e-319
1.49346e-319
1.56006e-319
1.62953e-319
1.70196e-319
1.77745e-319
1.85611e-319
1.93792e-319
2.0231e-319
2.11183e-319
2.20403e-319
2.29978e-319
2.39899e-319
5.17583e-320
5.21338e-320
5.38334e-320
5.328e-320
5.17188e-320
5.19164e-320
5.29836e-320
5.4535e-320
5.53946e-320
5.44658e-320
5.31812e-320
5.245e-320
5.20548e-320
5.15805e-320
5.13334e-320
5.28057e-320
5.35567e-320
5.18868e-320
5.14322e-320
5.19164e-320
6.38728e-320
6.75091e-320
7.13826e-320
7.54932e-320
7.9762e-320
8.40702e-320
8.82994e-320
9.24693e-320
9.66392e-320
1.00908e-319
1.05335e-319
1.09979e-319
1.1486e-319
1.19959e-319
1.25315e-319
1.30908e-319
1.36757e-319
1.42864e-319
1.49247e-319
1.55907e-319
1.62844e-319
1.70077e-319
1.77607e-319
1.85452e-319
1.93624e-319
2.02132e-319
2.10976e-319
2.20175e-319
2.29741e-319
2.39622e-319
5.17978e-320
5.21931e-320
5.38136e-320
5.32208e-320
5.17386e-320
5.19559e-320
5.3033e-320
5.45745e-320
5.53946e-320
5.45448e-320
5.32702e-320
5.24994e-320
5.20745e-320
5.15903e-320
5.13334e-320
5.27069e-320
5.34974e-320
5.19461e-320
5.14322e-320
5.18967e-320
6.38333e-320
6.74894e-320
7.13628e-320
7.54537e-320
7.97027e-320
8.39912e-320
8.82204e-320
9.23903e-320
9.658e-320
1.00849e-319
1.05295e-319
1.09939e-319
1.14801e-319
1.199e-319
1.25256e-319
1.30848e-319
1.36678e-319
1.42785e-319
1.49149e-319
1.55789e-319
1.62725e-319
1.69939e-319
1.77468e-319
1.85294e-319
1.93456e-319
2.01935e-319
2.10768e-319
2.19948e-319
2.29484e-319
2.39345e-319
5.18176e-320
5.22524e-320
5.37741e-320
5.31615e-320
5.17484e-320
5.19955e-320
5.30923e-320
5.46041e-320
5.54045e-320
5.46239e-320
5.33591e-320
5.25488e-320
5.20943e-320
5.16101e-320
5.13433e-320
5.26279e-320
5.3448e-320
5.19955e-320
5.14322e-320
5.18571e-320
6.38036e-320
6.74696e-320
7.13233e-320
7.54142e-320
7.96434e-320
8.39121e-320
8.81413e-320
9.23211e-320
9.65108e-320
1.00789e-319
1.05236e-319
1.0988e-319
1.14752e-319
1.1985e-319
1.25186e-319
1.30769e-319
1.36599e-319
1.42696e-319
1.4905e-319
1.5569e-319
1.62607e-319
1.6981e-319
1.7731e-319
1.85136e-319
1.93278e-319
2.01737e-319
2.10551e-319
2.19711e-319
2.29227e-319
2.39059e-319
5.18571e-320
5.23117e-320
5.37543e-320
5.31219e-320
5.17682e-320
5.2035e-320
5.31417e-320
5.46437e-320
5.54144e-320
5.47029e-320
5.34579e-320
5.26081e-320
5.21239e-320
5.16397e-320
5.13433e-320
5.25686e-320
5.33986e-320
5.20548e-320
5.14421e-320
5.18275e-320
6.3774e-320
6.744e-320
7.13036e-320
7.53747e-320
7.95841e-320
8.38429e-320
8.80623e-320
9.22519e-320
9.64416e-320
1.0074e-319
1.05187e-319
1.09831e-319
1.14692e-319
1.19781e-319
1.25117e-319
1.3069e-319
1.3652e-319
1.42607e-319
1.48951e-319
1.55571e-319
1.62478e-319
1.69672e-319
1.77172e-319
1.84968e-319
1.93091e-319
2.01539e-319
2.10334e-319
2.19474e-319
2.2896e-319
2.38772e-319
5.18967e-320
5.23808e-320
5.37346e-320
5.30824e-320
5.17978e-320
5.20745e-320
5.3201e-320
5.46733e-320
5.54144e-320
5.47622e-320
5.3537e-320
5.26674e-320
5.21536e-320
5.16595e-320
5.13631e-320
5.25093e-320
5.33393e-320
5.20943e-320
5.14421e-320
5.17978e-320
6.37345e-320
6.74103e-320
7.1264e-320
7.53351e-320
7.95248e-320
8.37738e-320
8.79832e-320
9.21729e-320
9.63823e-320
1.00681e-319
1.05137e-319
1.09781e-319
1.14643e-319
1.19722e-319
1.25058e-319
1.30621e-319
1.36441e-319
1.42508e-319
1.48852e-319
1.55463e-319
1.6235e-319
1.69534e-319
1.77014e-319
1.848e-319
1.92903e-319
2.01342e-319
2.10116e-319
2.19227e-319
2.28693e-319
2.38476e-319
5.19263e-320
5.245e-320
5.37247e-320
5.30429e-320
5.18176e-320
5.21239e-320
5.32603e-320
5.47029e-320
5.54342e-320
5.48215e-320
5.36358e-320
5.27267e-320
5.21832e-320
5.16793e-320
5.13828e-320
5.24698e-320
5.32998e-320
5.21437e-320
5.14619e-320
5.17781e-320
6.36949e-320
6.73906e-320
7.12443e-320
7.52956e-320
7.94754e-320
8.37046e-320
8.7914e-320
9.21037e-320
9.6323e-320
1.00631e-319
1.05078e-319
1.09722e-319
1.14584e-319
1.19663e-319
1.24979e-319
1.30552e-319
1.36362e-319
1.42419e-319
1.48753e-319
1.55354e-319
1.62231e-319
1.69395e-319
1.76856e-319
1.84632e-319
1.92725e-319
2.01134e-319
2.09879e-319
2.1897e-319
2.28416e-319
2.38159e-319
5.19757e-320
5.25093e-320
5.37148e-320
5.30231e-320
5.18374e-320
5.21733e-320
5.33196e-320
5.47425e-320
5.5444e-320
5.48808e-320
5.37148e-320
5.2786e-320
5.22129e-320
5.17089e-320
5.14224e-320
5.245e-320
5.328e-320
5.21931e-320
5.14816e-320
5.17583e-320
6.36653e-320
6.7351e-320
7.12047e-320
7.52462e-320
7.94161e-320
8.36354e-320
8.78449e-320
9.20345e-320
9.62638e-320
1.00572e-319
1.05019e-319
1.09663e-319
1.14524e-319
1.19603e-319
1.2492e-319
1.30473e-319
1.36263e-319
1.4233e-319
1.48645e-319
1.55235e-319
1.62093e-319
1.69247e-319
1.76698e-319
1.84464e-319
1.92528e-319
2.00927e-319
2.09652e-319
2.18723e-319
2.2814e-319
2.37863e-319
5.20152e-320
5.25883e-320
5.37148e-320
5.30034e-320
5.18769e-320
5.22129e-320
5.33789e-320
5.4782e-320
5.54539e-320
5.49401e-320
5.37939e-320
5.28453e-320
5.22524e-320
5.17386e-320
5.14421e-320
5.24302e-320
5.32504e-320
5.22425e-320
5.15014e-320
5.17386e-320
6.36357e-320
6.73313e-320
7.1185e-320
7.52067e-320
7.93667e-320
8.35663e-320
8.77658e-320
9.19654e-320
9.61946e-320
1.00513e-319
1.04969e-319
1.09613e-319
1.14465e-319
1.19544e-319
1.24841e-319
1.30394e-319
1.36184e-319
1.42232e-319
1.48536e-319
1.55117e-319
1.61974e-319
1.69109e-319
1.7654e-319
1.84286e-319
1.9233e-319
2.00709e-319
2.09415e-319
2.18466e-319
2.27853e-319
2.37547e-319
5.20646e-320
5.26674e-320
5.37148e-320
5.29836e-320
5.19065e-320
5.22721e-320
5.34381e-320
5.48116e-320
5.54737e-320
5.49994e-320
5.38729e-320
5.29045e-320
5.2282e-320
5.17583e-320
5.14816e-320
5.24302e-320
5.32306e-320
5.22919e-320
5.1531e-320
5.17188e-320
6.35961e-320
6.72917e-320
7.11455e-320
7.51671e-320
7.93074e-320
8.34971e-320
8.77065e-320
9.18962e-320
9.61254e-320
1.00453e-319
1.0492e-319
1.09564e-319
1.14406e-319
1.19485e-319
1.24781e-319
1.30315e-319
1.36105e-319
1.42133e-319
1.48437e-319
1.54998e-319
1.61836e-319
1.68961e-319
1.76381e-319
1.84109e-319
1.92132e-319
2.00492e-319
2.09178e-319
2.18199e-319
2.27567e-319
2.37221e-319
5.2114e-320
5.27464e-320
5.37148e-320
5.29836e-320
5.19362e-320
5.23117e-320
5.34875e-320
5.48512e-320
5.54935e-320
5.50488e-320
5.39618e-320
5.29737e-320
5.23216e-320
5.17781e-320
5.15014e-320
5.24302e-320
5.32208e-320
5.23314e-320
5.15607e-320
5.17089e-320
6.35764e-320
6.7272e-320
7.11257e-320
7.51276e-320
7.9258e-320
8.34378e-320
8.76275e-320
9.18369e-320
9.60661e-320
1.00394e-319
1.0486e-319
1.09505e-319
1.14347e-319
1.19416e-319
1.24702e-319
1.30236e-319
1.36006e-319
1.42034e-319
1.48319e-319
1.5488e-319
1.61698e-319
1.68812e-319
1.76223e-319
1.83931e-319
1.91935e-319
2.00274e-319
2.0893e-319
2.17932e-319
2.2727e-319
2.36895e-319
5.21733e-320
5.28255e-320
5.37247e-320
5.29836e-320
5.19757e-320
5.23512e-320
5.3537e-320
5.48808e-320
5.55231e-320
5.50982e-320
5.40409e-320
5.30429e-320
5.23611e-320
5.18077e-320
5.15409e-320
5.24302e-320
5.3201e-320
5.23907e-320
5.16002e-320
5.1699e-320
6.35368e-320
6.72325e-320
7.10862e-320
7.5098e-320
7.92086e-320
8.33785e-320
8.75682e-320
9.17678e-320
9.60068e-320
1.00335e-319
1.04801e-319
1.09445e-319
1.14287e-319
1.19346e-319
1.24643e-319
1.30157e-319
1.35927e-319
1.41935e-319
1.4822e-319
1.54761e-319
1.61569e-319
1.68664e-319
1.76055e-319
1.83733e-319
1.91737e-319
2.00047e-319
2.08693e-319
2.17666e-319
2.26974e-319
2.36559e-319
5.22425e-320
5.29144e-320
5.37346e-320
5.29836e-320
5.20152e-320
5.23907e-320
5.35765e-320
5.49105e-320
5.55429e-320
5.51476e-320
5.41101e-320
5.31121e-320
5.24006e-320
5.18374e-320
5.15805e-320
5.24302e-320
5.3201e-320
5.24401e-320
5.16397e-320
5.1699e-320
6.35171e-320
6.72127e-320
7.10664e-320
7.50585e-320
7.91592e-320
8.33192e-320
8.75089e-320
9.16986e-320
9.59475e-320
1.00276e-319
1.04752e-319
1.09396e-319
1.14238e-319
1.19287e-319
1.24564e-319
1.30078e-319
1.35838e-319
1.41836e-319
1.48101e-319
1.54633e-319
1.61431e-319
1.68516e-319
1.75887e-319
1.83555e-319
1.91529e-319
1.9982e-319
2.08436e-319
2.17389e-319
2.26658e-319
2.36223e-319
5.23117e-320
5.30034e-320
5.37642e-320
5.30034e-320
5.20449e-320
5.24302e-320
5.3616e-320
5.49401e-320
5.55626e-320
5.5197e-320
5.41891e-320
5.31812e-320
5.245e-320
5.1867e-320
5.16101e-320
5.245e-320
5.3201e-320
5.24895e-320
5.16793e-320
5.1699e-320
6.34776e-320
6.71732e-320
7.10269e-320
7.50189e-320
7.91098e-320
8.32599e-320
8.74397e-320
9.16393e-320
9.58883e-320
1.00226e-319
1.04702e-319
1.09347e-319
1.14179e-319
1.19228e-319
1.24505e-319
1.29999e-319
1.35749e-319
1.41747e-319
1.48002e-319
1.54504e-319
1.61303e-319
1.68358e-319
1.7571e-319
1.83358e-319
1.91322e-319
1.99583e-319
2.0818e-319
2.17092e-319
2.26341e-319
2.35867e-319
5.23907e-320
5.31022e-320
5.37939e-320
5.30231e-320
5.20943e-320
5.24599e-320
5.36456e-320
5.49401e-320
5.55725e-320
5.52365e-320
5.42682e-320
5.32603e-320
5.24895e-320
5.18967e-320
5.16496e-320
5.24599e-320
5.3201e-320
5.25488e-320
5.17287e-320
5.1699e-320
6.34578e-320
6.71534e-320
7.10071e-320
7.49794e-320
7.90703e-320
8.32007e-320
8.73805e-320
9.158e-320
9.5829e-320
1.00167e-319
1.04643e-319
1.09287e-319
1.14119e-319
1.19169e-319
1.24425e-319
1.2992e-319
1.35661e-319
1.41639e-319
1.47884e-319
1.54386e-319
1.61154e-319
1.682e-319
1.75542e-319
1.8318e-319
1.91105e-319
1.99355e-319
2.07923e-319
2.16816e-319
2.26035e-319
2.35521e-319
5.24698e-320
5.31812e-320
5.38235e-320
5.30627e-320
5.21338e-320
5.24895e-320
5.36654e-320
5.495e-320
5.55824e-320
5.52761e-320
5.43373e-320
5.33196e-320
5.25389e-320
5.19362e-320
5.16793e-320
5.24698e-320
5.32109e-320
5.25982e-320
5.17781e-320
5.17188e-320
6.3438e-320
6.71139e-320
7.09676e-320
7.49399e-320
7.90209e-320
8.31611e-320
8.73212e-320
9.15207e-320
9.57697e-320
1.00117e-319
1.04584e-319
1.09228e-319
1.1406e-319
1.19099e-319
1.24366e-319
1.2984e-319
1.35572e-319
1.4154e-319
1.47765e-319
1.54257e-319
1.61016e-319
1.68042e-319
1.75374e-319
1.82982e-319
1.90887e-319
1.99118e-319
2.07666e-319
2.16519e-319
2.25709e-319
2.35165e-319
5.25488e-320
5.328e-320
5.3863e-320
5.31022e-320
5.21832e-320
5.25192e-320
5.36753e-320
5.49401e-320
5.55923e-320
5.53156e-320
5.44065e-320
5.33986e-320
5.25883e-320
5.19658e-320
5.17188e-320
5.24895e-320
5.32208e-320
5.26476e-320
5.18374e-320
5.17287e-320
6.34183e-320
6.70941e-320
7.09478e-320
7.49102e-320
7.89715e-320
8.31018e-320
8.72718e-320
9.14614e-320
9.57104e-320
1.00058e-319
1.04534e-319
1.09179e-319
1.14011e-319
1.1903e-319
1.24287e-319
1.29761e-319
1.35483e-319
1.41441e-319
1.47656e-319
1.54129e-319
1.60868e-319
1.67884e-319
1.75196e-319
1.82785e-319
1.9067e-319
1.98871e-319
2.07389e-319
2.16233e-319
2.25393e-319
2.348e-319
5.26476e-320
5.33789e-320
5.39124e-320
5.31417e-320
5.22326e-320
5.25488e-320
5.36753e-320
5.49302e-320
5.55824e-320
5.53452e-320
5.44658e-320
5.34678e-320
5.26378e-320
5.19955e-320
5.17682e-320
5.25093e-320
5.32208e-320
5.27069e-320
5.18967e-320
5.17386e-320
6.33985e-320
6.70645e-320
7.09083e-320
7.48806e-320
7.89319e-320
8.30524e-320
8.72125e-320
9.14021e-320
9.5661e-320
9.99989e-320
1.04485e-319
1.09129e-319
1.13951e-319
1.18971e-319
1.24218e-319
1.29682e-319
1.35394e-319
1.41342e-319
1.47548e-319
1.54e-319
1.60729e-319
1.67725e-319
1.75008e-319
1.82587e-319
1.90452e-319
1.98634e-319
2.07122e-319
2.15936e-319
2.25077e-319
2.34444e-319
5.27464e-320
5.34777e-320
5.3952e-320
5.3201e-320
5.23018e-320
5.25686e-320
5.36753e-320
5.49105e-320
5.55725e-320
5.53749e-320
5.45251e-320
5.3537e-320
5.26872e-320
5.2035e-320
5.18077e-320
5.25192e-320
5.32306e-320
5.27662e-320
5.19559e-320
5.17583e-320
6.33886e-320
6.70348e-320
7.08885e-320
7.48411e-320
7.88924e-320