/*--------------------------------*- C++ -*----------------------------------*\
  =========                 |
  \\      /  F ield         | OpenFOAM: The Open Source CFD Toolbox
   \\    /   O peration     | Website:  https://openfoam.org
    \\  /    A nd           | Version:  9
     \\/     M anipulation  |
\*---------------------------------------------------------------------------*/
FoamFile
{
    format      ascii;
    class       volScalarField;
    location    "0.12";
    object      p;
}
// * * * * * * * * * * * * * * * * * * * * * * * * * * * * * * * * * * * * * //

dimensions      [1 -1 -2 0 0 0 0];

internalField   nonuniform List<scalar> 
5000
(
1.68544
1.31518
0.714452
0.791388
1.36355
1.63195
1.68199
1.91497
0.977452
1.98434
1.87028
1.94238
1.87548
1.69172
1.27923
0.689532
0.831267
1.3584
1.74687
1.95355
2.05835
2.11108
2.129
2.10611
2.00065
1.76244
1.15535
1.86296
2.06896
2.15465
2.19664
2.21642
2.22705
2.23342
2.23757
2.24046
2.24255
2.24412
2.24531
2.24622
2.24691
2.24744
2.24784
2.24814
2.24835
2.2485
2.24859
2.24863
2.24863
2.24857
1.75504
1.42792
1.09004
1.15835
1.45999
1.70042
1.66862
1.98527
1.28032
2.05372
1.86506
1.9542
1.87679
1.73122
1.36489
1.04691
1.17606
1.46769
1.80082
1.95203
2.04055
2.08371
2.09064
2.05825
1.98243
1.9252
1.75325
2.00426
2.06506
2.12364
2.16894
2.195
2.21153
2.22231
2.22948
2.2344
2.23787
2.24035
2.24217
2.2435
2.24449
2.24522
2.24575
2.24614
2.2464
2.24658
2.24668
2.24672
2.24669
2.24661
1.89858
1.67875
1.4418
1.49744
1.68672
1.86026
1.75684
2.13358
1.5644
2.1336
1.90999
2.01713
1.92405
1.84225
1.61344
1.42255
1.49558
1.68857
1.92161
1.99848
2.06599
2.10011
2.11135
2.10553
2.08688
2.08755
2.01692
2.13641
2.1405
2.1659
2.18811
2.20236
2.21367
2.22206
2.22814
2.23258
2.23584
2.23824
2.24001
2.24132
2.24229
2.24301
2.24353
2.24391
2.24417
2.24435
2.24446
2.24452
2.24456
2.24457
2.05669
1.91005
1.75413
1.81696
1.94767
2.02891
1.89103
2.24971
1.82484
2.22793
1.98488
2.10234
2.00054
1.97423
1.86593
1.76512
1.80219
1.93464
2.03753
2.06148
2.11031
2.13501
2.15001
2.16023
2.1657
2.17361
2.14709
2.20381
2.19704
2.20644
2.21374
2.21871
2.22389
2.22821
2.23171
2.23449
2.23666
2.23833
2.2396
2.24054
2.24124
2.24174
2.2421
2.24234
2.24249
2.24258
2.24263
2.24264
2.24263
2.24262
2.18941
2.10204
2.01221
2.07676
2.15936
2.16547
2.02891
2.32828
2.03172
2.30783
2.07056
2.18262
2.08383
2.08975
2.06822
2.03817
2.04132
2.12763
2.12643
2.12512
2.15671
2.17082
2.18356
2.1954
2.20733
2.21593
2.21267
2.23331
2.22503
2.22757
2.22938
2.23097
2.23307
2.23486
2.23642
2.23774
2.2388
2.23963
2.24024
2.24068
2.24098
2.24116
2.24124
2.24126
2.24123
2.24116
2.24106
2.24094
2.24082
2.24071
2.29301
2.25593
2.21991
2.25722
2.30652
2.27058
2.15134
2.38526
2.1813
2.36699
2.15279
2.25108
2.16325
2.18384
2.21497
2.22534
2.21365
2.25927
2.19507
2.18294
2.198
2.20248
2.21104
2.22007
2.23262
2.24107
2.24486
2.2513
2.24309
2.24115
2.23993
2.23967
2.24004
2.2404
2.24075
2.24104
2.24124
2.24134
2.24135
2.24129
2.24116
2.24098
2.24075
2.2405
2.24023
2.23995
2.23966
2.23937
2.23909
2.23882
2.37355
2.376
2.3749
2.38424
2.40535
2.35388
2.2546
2.4314
2.28901
2.41165
2.22909
2.30643
2.23543
2.26142
2.32346
2.3521
2.33387
2.34799
2.25249
2.23323
2.23368
2.23085
2.23553
2.24179
2.25191
2.258
2.26182
2.26402
2.25735
2.25317
2.24981
2.24776
2.24652
2.2456
2.24491
2.24432
2.24377
2.24323
2.24269
2.24214
2.24159
2.24104
2.24049
2.23994
2.23941
2.23888
2.23837
2.23787
2.2374
2.23695
2.43554
2.4688
2.48824
2.4737
2.47089
2.4197
2.33844
2.46818
2.36731
2.44581
2.29353
2.35495
2.29932
2.32536
2.4033
2.43738
2.41828
2.40922
2.30062
2.27549
2.2645
2.25629
2.25721
2.26003
2.26629
2.26952
2.27211
2.27258
2.26731
2.26257
2.25829
2.25506
2.2526
2.25061
2.24899
2.24759
2.24634
2.2452
2.24413
2.24312
2.24216
2.24123
2.24035
2.2395
2.23868
2.23789
2.23714
2.23642
2.23574
2.23509
2.48125
2.53852
2.56868
2.53221
2.5124
2.46945
2.40291
2.49545
2.42181
2.4717
2.3467
2.39581
2.35293
2.37611
2.4574
2.49011
2.47545
2.45055
2.33861
2.3096
2.29037
2.27799
2.27507
2.27419
2.27672
2.27784
2.27926
2.27853
2.27392
2.26912
2.26458
2.26081
2.25765
2.25494
2.25262
2.25057
2.24873
2.24706
2.24552
2.24407
2.24272
2.24144
2.24023
2.23908
2.23798
2.23694
2.23594
2.23499
2.23408
2.23323
2.51265
2.58735
2.62006
2.5674
2.53754
2.50503
2.44854
2.51599
2.45807
2.49129
2.38931
2.42878
2.39548
2.4147
2.48983
2.51743
2.51108
2.4771
2.36685
2.33598
2.31104
2.29553
2.28917
2.28505
2.2846
2.28422
2.28462
2.28307
2.27872
2.2739
2.26924
2.26517
2.26159
2.25843
2.25562
2.25309
2.25079
2.24868
2.24672
2.2449
2.24319
2.24159
2.24007
2.23863
2.23726
2.23597
2.23473
2.23355
2.23243
2.23136
2.53232
2.61826
2.64783
2.58694
2.553
2.52971
2.48094
2.52982
2.48191
2.50658
2.4228
2.45445
2.42795
2.44317
2.50667
2.52719
2.53144
2.49348
2.38697
2.35577
2.32689
2.30929
2.30014
2.29365
2.29087
2.28929
2.28878
2.28669
2.28247
2.27766
2.27292
2.26861
2.26473
2.26122
2.25804
2.25513
2.25246
2.24999
2.24769
2.24554
2.24352
2.24162
2.23982
2.23812
2.2365
2.23496
2.23349
2.23209
2.23076
2.2295
2.5431
2.63445
2.65815
2.59734
2.5635
2.5461
2.50371
2.53828
2.49825
2.51895
2.44868
2.47408
2.45215
2.46373
2.51375
2.52692
2.54129
2.50276
2.40076
2.37033
2.33871
2.31999
2.30878
2.30044
2.29594
2.29341
2.29211
2.28959
2.28542
2.28063
2.27583
2.27136
2.26724
2.26346
2.25998
2.25677
2.25379
2.25102
2.24842
2.24598
2.24369
2.24152
2.23946
2.23752
2.23566
2.2339
2.23222
2.23061
2.22908
2.22763
2.54738
2.63886
2.65714
2.60201
2.57122
2.55613
2.51901
2.542
2.51061
2.52889
2.46842
2.48889
2.46985
2.47817
2.51523
2.52062
2.54488
2.50681
2.4095
2.38086
2.34722
2.32822
2.31548
2.30579
2.30006
2.29677
2.2948
2.29192
2.28772
2.28293
2.27809
2.2735
2.2692
2.26521
2.26149
2.25803
2.25479
2.25176
2.24891
2.24622
2.24368
2.24127
2.23899
2.23682
2.23475
2.23278
2.2309
2.2291
2.22739
2.22576
2.54687
2.63399
2.64652
2.60532
2.57701
2.56145
2.52883
2.54162
2.52068
2.53493
2.48476
2.4998
2.48246
2.48787
2.51408
2.51495
2.54039
2.50639
2.41409
2.38825
2.35304
2.33442
2.32052
2.30995
2.30339
2.29949
2.29695
2.29375
2.28948
2.28467
2.2798
2.27511
2.27068
2.26652
2.26261
2.25894
2.25549
2.25223
2.24916
2.24625
2.2435
2.24088
2.23839
2.23602
2.23375
2.23159
2.22953
2.22755
2.22567
2.22388
2.54292
2.62286
2.63215
2.60522
2.58069
2.5634
2.535
2.54092
2.52685
2.53719
2.49821
2.50707
2.491
2.49385
2.51152
2.5105
2.53034
2.50248
2.41539
2.39306
2.35688
2.33896
2.32418
2.31309
2.306
2.30162
2.2986
2.29513
2.29078
2.28595
2.28104
2.27628
2.27174
2.26744
2.26338
2.25953
2.2559
2.25246
2.24919
2.2461
2.24315
2.24034
2.23767
2.23511
2.23267
2.23034
2.22811
2.22597
2.22393
2.22199
2.53658
2.608
2.61541
2.60267
2.58199
2.5629
2.53847
2.54006
2.53012
2.5387
2.50642
2.51112
2.49627
2.49683
2.50797
2.50501
2.51897
2.49617
2.4139
2.39607
2.35952
2.34164
2.32663
2.31537
2.30794
2.3032
2.29979
2.29609
2.29168
2.28683
2.28189
2.27708
2.27245
2.26803
2.26383
2.25984
2.25605
2.25245
2.24902
2.24576
2.24264
2.23967
2.23683
2.23412
2.23152
2.22904
2.22665
2.22436
2.22218
2.22012
2.52922
2.5917
2.59824
2.59725
2.58042
2.56058
2.53981
2.53865
2.53136
2.53903
2.51099
2.51284
2.49893
2.49744
2.50385
2.49911
2.50672
2.485
2.4175
2.39364
2.36076
2.34316
2.32815
2.31689
2.30928
2.30427
2.30055
2.29666
2.2922
2.28735
2.28239
2.27753
2.27283
2.26832
2.26401
2.2599
2.25598
2.25223
2.24866
2.24525
2.24199
2.23887
2.23589
2.23303
2.23029
2.22766
2.22514
2.22272
2.22041
2.21823
2.52162
2.57555
2.58206
2.58873
2.57583
2.55679
2.53948
2.53667
2.53087
2.5377
2.51323
2.51282
2.49955
2.49625
2.49924
2.49289
2.49481
2.47405
2.41655
2.39143
2.36078
2.34363
2.32886
2.31773
2.31006
2.30487
2.30091
2.29689
2.29239
2.28754
2.28258
2.27769
2.27293
2.26834
2.26394
2.25972
2.25569
2.25182
2.24813
2.24459
2.2412
2.23795
2.23484
2.23185
2.22898
2.22623
2.22358
2.22104
2.2186
2.21631
2.51545
2.56033
2.56745
2.57765
2.56852
2.55175
2.53776
2.53422
2.52881
2.53479
2.51347
2.51127
2.49852
2.49367
2.49405
2.48613
2.48337
2.46399
2.41306
2.38886
2.35995
2.34329
2.32889
2.31798
2.31033
2.30503
2.30091
2.29679
2.29228
2.28744
2.28249
2.27757
2.27278
2.26813
2.26365
2.25935
2.25521
2.25125
2.24744
2.24379
2.24028
2.23692
2.23369
2.23058
2.2276
2.22473
2.22198
2.21933
2.21679
2.21439
2.50876
2.54644
2.55443
2.56482
2.55905
2.54561
2.53477
2.53125
2.52525
2.53049
2.51192
2.50838
2.49613
2.49
2.48824
2.47877
2.47289
2.45426
2.40893
2.38565
2.35845
2.34232
2.32835
2.31771
2.31015
2.30482
2.30058
2.29641
2.2919
2.28709
2.28215
2.27723
2.27241
2.26771
2.26317
2.25879
2.25457
2.25052
2.24662
2.24286
2.23926
2.23579
2.23246
2.22925
2.22616
2.22319
2.22034
2.21759
2.21496
2.21247
2.50128
2.53364
2.54266
2.55116
2.54811
2.53848
2.53053
2.52786
2.52002
2.525
2.50886
2.50439
2.49263
2.48546
2.48179
2.47084
2.46338
2.44536
2.4046
2.38196
2.35641
2.34082
2.32732
2.317
2.30959
2.30426
2.29997
2.29577
2.29128
2.28651
2.2816
2.27669
2.27185
2.26712
2.26253
2.25808
2.25379
2.24966
2.24567
2.24183
2.23813
2.23457
2.23114
2.22784
2.22466
2.2216
2.21866
2.21583
2.21311
2.21054
2.49283
2.5226
2.53188
2.53745
2.5364
2.53047
2.52491
2.52264
2.51447
2.51875
2.50463
2.49955
2.48822
2.48025
2.47473
2.46247
2.45476
2.43767
2.4002
2.37797
2.35396
2.33888
2.32589
2.31591
2.30869
2.30341
2.2991
2.29491
2.29047
2.28574
2.28087
2.27597
2.27113
2.26637
2.26174
2.25725
2.25289
2.24869
2.24462
2.2407
2.23692
2.23328
2.22976
2.22637
2.22311
2.21997
2.21695
2.21404
2.21125
2.20861
2.48434
2.51249
2.52152
2.52424
2.52457
2.52177
2.51809
2.51617
2.50817
2.51198
2.49949
2.49407
2.48311
2.47456
2.46722
2.4539
2.44692
2.4313
2.39584
2.37385
2.35124
2.33664
2.32417
2.31454
2.30751
2.30232
2.29804
2.29388
2.28948
2.28482
2.28
2.27512
2.27027
2.2655
2.26084
2.2563
2.25189
2.24762
2.24349
2.2395
2.23564
2.23192
2.22832
2.22486
2.22152
2.21831
2.21522
2.21224
2.20939
2.20667
2.47553
2.50355
2.51116
2.51194
2.5131
2.51259
2.51031
2.50852
2.50153
2.50481
2.49371
2.48812
2.47748
2.46856
2.45947
2.44537
2.43969
2.4261
2.39166
2.36977
2.34837
2.33421
2.32223
2.31295
2.30614
2.30104
2.29681
2.2927
2.28837
2.28377
2.279
2.27415
2.26932
2.26454
2.25985
2.25527
2.25081
2.24648
2.24229
2.23823
2.2343
2.23051
2.22684
2.22331
2.21991
2.21663
2.21347
2.21043
2.20751
2.20474
2.4669
2.49393
2.50163
2.50072
2.50226
2.50316
2.5019
2.50051
2.49498
2.49666
2.48744
2.48188
2.47152
2.46242
2.45179
2.4372
2.4329
2.42181
2.38772
2.36588
2.34545
2.3317
2.32018
2.31122
2.30462
2.29963
2.29546
2.29141
2.28715
2.28263
2.27791
2.2731
2.26828
2.26349
2.25878
2.25417
2.24967
2.24529
2.24104
2.23692
2.23292
2.22906
2.22533
2.22174
2.21826
2.21492
2.2117
2.2086
2.20563
2.2028
2.45878
2.48482
2.49179
2.49036
2.49213
2.49365
2.49306
2.4921
2.48815
2.48847
2.48101
2.47554
2.46543
2.45629
2.44443
2.42964
2.42643
2.41814
2.38406
2.36227
2.34258
2.3292
2.31811
2.30944
2.30303
2.29815
2.29404
2.29005
2.28587
2.28141
2.27675
2.27198
2.26717
2.26239
2.25767
2.25303
2.24849
2.24406
2.23976
2.23558
2.23153
2.2276
2.22381
2.22015
2.21661
2.21321
2.20993
2.20678
2.20375
2.20086
2.45105
2.47604
2.48188
2.48078
2.48265
2.4842
2.48397
2.48331
2.48092
2.4808
2.47466
2.46923
2.45936
2.45027
2.43762
2.42291
2.42025
2.41472
2.38066
2.35901
2.33986
2.32682
2.31609
2.30769
2.30144
2.29665
2.29259
2.28867
2.28455
2.28016
2.27555
2.27082
2.26603
2.26125
2.25652
2.25185
2.24728
2.24282
2.23846
2.23423
2.23012
2.22613
2.22228
2.21856
2.21496
2.2115
2.20816
2.20495
2.20186
2.19893
2.44356
2.46736
2.47226
2.47191
2.47375
2.47498
2.4749
2.47439
2.47357
2.47361
2.4685
2.46305
2.4534
2.44444
2.43149
2.41715
2.41443
2.41123
2.3775
2.35613
2.33736
2.32462
2.3142
2.30601
2.2999
2.29517
2.29116
2.28728
2.28322
2.27889
2.27433
2.26963
2.26486
2.26009
2.25535
2.25067
2.24607
2.24156
2.23716
2.23288
2.22872
2.22468
2.22076
2.21698
2.21333
2.2098
2.2064
2.20313
2.19999
2.19699
2.43627
2.45885
2.46307
2.46361
2.46536
2.46614
2.46612
2.46562
2.46631
2.46678
2.46256
2.45701
2.44762
2.43884
2.42606
2.41238
2.40903
2.40742
2.37454
2.35362
2.33513
2.32267
2.3125
2.30448
2.29846
2.29377
2.28978
2.28593
2.28191
2.27763
2.27311
2.26844
2.26369
2.25893
2.25418
2.24948
2.24486
2.24032
2.23588
2.23155
2.22733
2.22324
2.21927
2.21542
2.21171
2.20812
2.20466
2.20133
2.19812
2.19506
2.42919
2.45067
2.4544
2.45574
2.45745
2.45782
2.45785
2.45729
2.45926
2.46021
2.45676
2.4511
2.44201
2.43347
2.42129
2.40851
2.4041
2.40321
2.37175
2.35145
2.33321
2.321
2.31102
2.30312
2.29716
2.29248
2.28849
2.28465
2.28066
2.2764
2.27192
2.26727
2.26254
2.25777
2.25302
2.2483
2.24365
2.23908
2.23461
2.23023
2.22597
2.22182
2.21779
2.21389
2.21012
2.20646
2.20294
2.19954
2.19626
2.19313
2.42235
2.44293
2.4463
2.44827
2.45
2.45012
2.45024
2.44958
2.4525
2.45378
2.45101
2.44524
2.43657
2.42832
2.41706
2.4054
2.39969
2.39865
2.36912
2.34957
2.33158
2.31962
2.30978
2.30197
2.29603
2.29134
2.28733
2.28348
2.27949
2.27525
2.27079
2.26615
2.26142
2.25665
2.25188
2.24715
2.24247
2.23787
2.23335
2.22894
2.22463
2.22043
2.21635
2.21239
2.20855
2.20483
2.20123
2.19776
2.1944
2.19121
2.41576
2.43571
2.4388
2.4412
2.44305
2.44306
2.44334
2.44254
2.44612
2.44743
2.44519
2.4394
2.43124
2.42339
2.41325
2.40286
2.39578
2.39395
2.36666
2.34791
2.33024
2.31851
2.30879
2.30103
2.29508
2.29036
2.28631
2.28244
2.27844
2.2742
2.26974
2.2651
2.26036
2.25557
2.25078
2.24602
2.24132
2.23668
2.23213
2.22767
2.22331
2.21906
2.21493
2.2109
2.207
2.20321
2.19954
2.19599
2.19256
2.18929
2.40948
2.42902
2.43188
2.43459
2.4366
2.43663
2.43711
2.43602
2.44026
2.44111
2.43921
2.43353
2.42603
2.41868
2.40976
2.40069
2.39235
2.38934
2.36442
2.34644
2.32916
2.31765
2.30802
2.30031
2.29435
2.28957
2.28547
2.28155
2.27753
2.27328
2.2688
2.26414
2.25938
2.25457
2.24974
2.24494
2.2402
2.23552
2.23092
2.22641
2.22201
2.2177
2.21351
2.20942
2.20545
2.20159
2.19785
2.19422
2.19071
2.18737
2.40358
2.42288
2.42553
2.42848
2.43067
2.43076
2.4315
2.43062
2.43418
2.43474
2.43307
2.42768
2.42095
2.4142
2.40653
2.39872
2.38938
2.38508
2.36244
2.34514
2.32831
2.31702
2.30748
2.29981
2.29382
2.28899
2.28482
2.28085
2.27679
2.27251
2.268
2.26331
2.25851
2.25365
2.24878
2.24393
2.23912
2.23439
2.22973
2.22517
2.2207
2.21634
2.21208
2.20792
2.20388
2.19995
2.19614
2.19244
2.18886
2.18544
2.3981
2.41722
2.41971
2.42292
2.42525
2.42531
2.42629
2.42558
2.42852
2.42846
2.42686
2.42191
2.41605
2.41002
2.40352
2.39684
2.38684
2.3814
2.3608
2.34406
2.32769
2.31661
2.30716
2.29953
2.29351
2.28862
2.28438
2.28036
2.27624
2.27192
2.26736
2.26263
2.25777
2.25285
2.24791
2.24298
2.23811
2.2333
2.22857
2.22393
2.21939
2.21495
2.21062
2.20639
2.20228
2.19828
2.1944
2.19064
2.18699
2.18351
2.39307
2.41202
2.41439
2.41793
2.42032
2.42017
2.42133
2.42084
2.42319
2.42238
2.42077
2.41636
2.41144
2.40619
2.40076
2.39501
2.38472
2.37841
2.35956
2.34323
2.32732
2.31643
2.30707
2.29947
2.29343
2.28847
2.28417
2.28007
2.2759
2.27152
2.26691
2.26211
2.25718
2.25218
2.24715
2.24214
2.23717
2.23226
2.22743
2.2227
2.21806
2.21354
2.20912
2.20481
2.20063
2.19656
2.19262
2.1888
2.1851
2.18158
2.38853
2.40722
2.40956
2.41353
2.41583
2.41527
2.41649
2.41632
2.41819
2.41667
2.41502
2.41123
2.40724
2.4028
2.3983
2.39327
2.38302
2.37619
2.35877
2.34274
2.32724
2.31651
2.30723
2.29965
2.29358
2.28856
2.28417
2.28
2.27576
2.27131
2.26664
2.26177
2.25675
2.25166
2.24653
2.2414
2.23631
2.23128
2.22634
2.22148
2.21674
2.2121
2.20759
2.2032
2.19893
2.1948
2.1908
2.18693
2.1832
2.17964
2.38447
2.40281
2.40522
2.40968
2.41176
2.41058
2.41176
2.41197
2.41356
2.41153
2.40987
2.40672
2.40361
2.39994
2.39623
2.3917
2.38176
2.37471
2.35848
2.34264
2.32749
2.31688
2.30766
2.3001
2.29398
2.28888
2.28441
2.28015
2.27583
2.27131
2.26656
2.2616
2.25649
2.25128
2.24603
2.24078
2.23555
2.23038
2.2253
2.22031
2.21543
2.21067
2.20605
2.20156
2.19722
2.19302
2.18896
2.18505
2.18128
2.1777
2.3809
2.39876
2.40136
2.40634
2.4081
2.40615
2.40715
2.40782
2.40939
2.40712
2.40554
2.403
2.40069
2.39774
2.39464
2.3904
2.38097
2.37395
2.3587
2.343
2.32814
2.3176
2.3084
2.30082
2.29463
2.28945
2.28487
2.28051
2.2761
2.27149
2.26665
2.2616
2.25638
2.25105
2.24567
2.24027
2.23489
2.22957
2.22433
2.21919
2.21417
2.20928
2.20454
2.19995
2.19552
2.19124
2.18713
2.18318
2.17937
2.17575
2.37782
2.3951
2.398
2.40348
2.40486
2.40208
2.4028
2.40394
2.40575
2.40357
2.40221
2.40025
2.39861
2.39625
2.39362
2.38952
2.3807
2.37384
2.35943
2.34386
2.32923
2.3187
2.30947
2.30184
2.29556
2.29026
2.28556
2.28108
2.27656
2.27185
2.2669
2.26174
2.2564
2.25095
2.24542
2.23987
2.23434
2.22886
2.22346
2.21817
2.213
2.20798
2.20312
2.19842
2.19389
2.18954
2.18536
2.18134
2.17748
2.17382
2.37523
2.39187
2.39514
2.40103
2.40205
2.39849
2.39884
2.40047
2.40276
2.40095
2.39999
2.39855
2.39745
2.39557
2.39325
2.38917
2.38097
2.37435
2.36067
2.34524
2.33078
2.32021
2.31091
2.30318
2.29678
2.29133
2.28648
2.28185
2.2772
2.27237
2.2673
2.26201
2.25655
2.25095
2.24528
2.23958
2.23389
2.22826
2.2227
2.21727
2.21196
2.20681
2.20183
2.19702
2.19239
2.18794
2.18367
2.17958
2.17564
2.17191
2.3731
2.3891
2.39279
2.39897
2.39972
2.39552
2.39545
2.39751
2.40049
2.39932
2.3989
2.39794
2.39725
2.39572
2.39357
2.38942
2.38183
2.37545
2.36242
2.34714
2.3328
2.32214
2.31271
2.30485
2.29829
2.29267
2.28763
2.28284
2.27802
2.27304
2.26784
2.26241
2.2568
2.25106
2.24524
2.23939
2.23356
2.22778
2.22209
2.21652
2.21109
2.20582
2.20072
2.1958
2.19107
2.18651
2.18214
2.17793
2.17388
2.17004
2.37144
2.38682
2.39093
2.39728
2.3979
2.39327
2.39274
2.39524
2.39898
2.39864
2.39889
2.39838
2.39799
2.3967
2.39462
2.39035
2.3833
2.37714
2.36471
2.34955
2.33529
2.32449
2.31489
2.30685
2.3001
2.29427
2.28903
2.28404
2.27904
2.27389
2.26853
2.26295
2.25718
2.25129
2.24532
2.23933
2.23336
2.22745
2.22163
2.21595
2.2104
2.20502
2.19981
2.19478
2.18992
2.18524
2.18072
2.17636
2.17215
2.16818
2.37022
2.38504
2.38956
2.39595
2.39664
2.39185
2.39098
2.39362
2.3982
2.39886
2.39985
2.39977
2.39962
2.39849
2.39639
2.39197
2.3854
2.37944
2.36753
2.35248
2.33822
2.32724
2.31744
2.30919
2.30221
2.29615
2.29068
2.28547
2.28027
2.27493
2.26939
2.26364
2.25771
2.25166
2.24555
2.23941
2.23331
2.22728
2.22135
2.21555
2.2099
2.20441
2.19908
2.19392
2.18892
2.18408
2.1794
2.17487
2.17048
2.16633
2.36941
2.38374
2.38864
2.39499
2.39593
2.39126
2.39007
2.3929
2.39815
2.39982
2.40163
2.40198
2.40204
2.401
2.39886
2.3943
2.38815
2.38235
2.37093
2.35593
2.3416
2.33039
2.32035
2.31186
2.30464
2.29833
2.29261
2.28716
2.28174
2.2762
2.27046
2.26453
2.25844
2.25223
2.24596
2.23969
2.23346
2.2273
2.22126
2.21534
2.20957
2.20396
2.1985
2.19319
2.18804
2.18303
2.17817
2.17344
2.16885
2.16451
2.36897
2.38288
2.38812
2.3944
2.39578
2.39149
2.39008
2.39301
2.3988
2.4015
2.40408
2.40486
2.40511
2.40415
2.40197
2.39731
2.39154
2.38592
2.37493
2.35991
2.34543
2.33394
2.32363
2.31487
2.30739
2.30081
2.29484
2.28914
2.28349
2.27773
2.2718
2.26569
2.25942
2.25306
2.24664
2.24022
2.23385
2.22756
2.22137
2.21532
2.2094
2.20362
2.19799
2.1925
2.18716
2.18195
2.17688
2.17195
2.16715
2.16262
2.36884
2.38238
2.38797
2.39417
2.39616
2.39248
2.39098
2.39391
2.39995
2.4039
2.40705
2.40825
2.4087
2.40786
2.40568
2.40101
2.39558
2.39015
2.37956
2.36446
2.34971
2.33789
2.32727
2.31823
2.31048
2.30363
2.29739
2.29144
2.28556
2.27958
2.27345
2.26716
2.26072
2.25419
2.24762
2.24105
2.23452
2.22806
2.2217
2.21546
2.20934
2.20336
2.19751
2.19181
2.18625
2.18084
2.1756
2.1705
2.16554
2.1608
2.36896
2.38217
2.3881
2.39429
2.39705
2.39409
2.39271
2.39557
2.40181
2.40662
2.41035
2.41196
2.41267
2.41201
2.40995
2.40537
2.40027
2.39505
2.38484
2.3696
2.3545
2.34228
2.33132
2.32198
2.31393
2.30681
2.30031
2.29411
2.28799
2.2818
2.27547
2.26899
2.26238
2.25568
2.24894
2.24219
2.23548
2.22882
2.22225
2.21577
2.2094
2.20315
2.19702
2.19104
2.1852
2.17952
2.17401
2.16869
2.16357
2.15884
2.36926
2.38215
2.38843
2.3947
2.39827
2.39628
2.39517
2.39794
2.40421
2.40961
2.41384
2.41587
2.4169
2.41654
2.41474
2.41038
2.40563
2.40065
2.3908
2.37539
2.35986
2.34718
2.33582
2.32615
2.31781
2.31041
2.30363
2.29718
2.29082
2.28441
2.27789
2.27122
2.26443
2.25755
2.25061
2.24367
2.23673
2.22984
2.22301
2.21626
2.2096
2.20306
2.19664
2.19038
2.18428
2.17838
2.17267
2.16718
2.16191
2.15704
2.3697
2.38226
2.38889
2.39528
2.39967
2.39887
2.3982
2.4009
2.40703
2.41279
2.4174
2.41986
2.42131
2.42139
2.42004
2.41606
2.41167
2.40696
2.39748
2.38188
2.36586
2.35266
2.34085
2.33082
2.32217
2.31448
2.30743
2.30071
2.29411
2.28748
2.28074
2.27386
2.26687
2.25978
2.25262
2.24544
2.23825
2.23109
2.22397
2.21693
2.20998
2.20315
2.19648
2.18999
2.18369
2.1776
2.17173
2.16606
2.16057
2.1555
2.37023
2.38243
2.38937
2.39592
2.40117
2.40161
2.40162
2.40427
2.41017
2.41606
2.42095
2.42386
2.42583
2.42654
2.42584
2.42242
2.41843
2.41401
2.40489
2.38914
2.37259
2.35882
2.34651
2.33607
2.32708
2.31908
2.31174
2.30476
2.29791
2.29103
2.28405
2.27694
2.2697
2.26236
2.25493
2.24746
2.23998
2.23251
2.22507
2.21772
2.21046
2.20334
2.19637
2.18959
2.18301
2.17664
2.17047
2.1645
2.15873
2.15353
2.37078
2.3826
2.38976
2.39648
2.40257
2.4043
2.40519
2.40789
2.4135
2.41937
2.42447
2.42784
2.43046
2.43197
2.43215
2.42946
2.42592
2.42181
2.41309
2.39722
2.38015
2.36575
2.35287
2.34198
2.33261
2.32429
2.31664
2.30938
2.30225
2.2951
2.28785
2.28046
2.27293
2.26528
2.25753
2.24973
2.2419
2.23408
2.22631
2.21862
2.21105
2.20363
2.19638
2.18933
2.18248
2.17584
2.16942
2.1632
2.15715
2.15159
2.37129
2.38269
2.38996
2.39682
2.40372
2.40677
2.40868
2.41156
2.41691
2.42268
2.42793
2.43181
2.4352
2.43772
2.43901
2.43721
2.43419
2.43041
2.4221
2.40617
2.38859
2.37355
2.36004
2.34863
2.33884
2.33015
2.32217
2.31459
2.30716
2.29972
2.29216
2.28444
2.27657
2.26856
2.26044
2.25225
2.24404
2.23585
2.22773
2.21971
2.21184
2.20414
2.19664
2.18934
2.18224
2.17535
2.16866
2.16215
2.15578
2.14979
2.37164
2.3826
2.38985
2.39682
2.40448
2.40887
2.41189
2.41511
2.42029
2.42595
2.43134
2.43579
2.44008
2.4438
2.44642
2.44571
2.44328
2.43985
2.43196
2.41605
2.39801
2.38229
2.36809
2.35609
2.34582
2.33672
2.32837
2.32044
2.31267
2.30488
2.29697
2.28889
2.28063
2.27222
2.26369
2.25509
2.24648
2.2379
2.22942
2.22107
2.21288
2.20488
2.19709
2.1895
2.1821
2.17489
2.16786
2.16101
2.1543
2.14799
2.3717
2.38218
2.38933
2.39639
2.40479
2.41047
2.41468
2.4184
2.42357
2.42916
2.43474
2.43981
2.44514
2.45026
2.45443
2.45497
2.45323
2.45018
2.44272
2.42691
2.40846
2.39204
2.3771
2.36444
2.35361
2.34403
2.33526
2.32693
2.31877
2.31059
2.30229
2.2938
2.28513
2.27629
2.26734
2.25831
2.24929
2.24032
2.23145
2.22274
2.21419
2.20584
2.19768
2.18972
2.18195
2.17436
2.16697
2.15977
2.15276
2.14618
2.37127
2.38129
2.38828
2.39546
2.40457
2.41155
2.41695
2.42134
2.42667
2.4323
2.43813
2.44391
2.45041
2.45713
2.46307
2.46504
2.4641
2.46145
2.45443
2.43881
2.41999
2.40288
2.38713
2.37372
2.36225
2.35212
2.34286
2.33407
2.32546
2.31685
2.30811
2.29919
2.29008
2.2808
2.27141
2.26197
2.25253
2.24315
2.23389
2.22476
2.2158
2.20702
2.19843
2.19003
2.18183
2.17383
2.16606
2.15852
2.15121
2.14436
2.37016
2.37974
2.38661
2.39401
2.40383
2.41203
2.41864
2.42387
2.42954
2.43535
2.44154
2.44813
2.45595
2.46446
2.47237
2.476
2.47596
2.47374
2.46717
2.4518
2.43267
2.41485
2.39824
2.384
2.37179
2.36103
2.35119
2.34187
2.33276
2.32366
2.31444
2.30505
2.29548
2.28575
2.27593
2.26606
2.2562
2.24641
2.23672
2.22715
2.21773
2.20847
2.19939
2.1905
2.18183
2.17339
2.16522
2.15734
2.1497
2.14257
2.36815
2.37739
2.38425
2.39197
2.40251
2.41189
2.41976
2.42595
2.43214
2.43829
2.44496
2.45248
2.46178
2.47228
2.48241
2.48788
2.4889
2.48715
2.48102
2.46597
2.44657
2.42803
2.41049
2.39532
2.38229
2.37079
2.3603
2.35038
2.3407
2.33106
2.32131
2.31142
2.30136
2.29116
2.28089
2.27058
2.26028
2.25004
2.23989
2.22984
2.21992
2.21015
2.20056
2.19118
2.18203
2.17316
2.16458
2.15631
2.1483
2.14081
2.36512
2.37412
2.38112
2.3893
2.40056
2.41113
2.42028
2.42757
2.43443
2.44109
2.44838
2.45698
2.46795
2.48066
2.49321
2.50078
2.503
2.50175
2.49607
2.48143
2.46178
2.44249
2.42396
2.40776
2.39379
2.38147
2.37024
2.35965
2.34934
2.3391
2.32878
2.31834
2.30775
2.29706
2.28629
2.2755
2.26473
2.25399
2.24333
2.23277
2.22233
2.21205
2.20195
2.19208
2.18248
2.17317
2.16416
2.15547
2.14702
2.13911
2.36095
2.36984
2.37715
2.3859
2.39789
2.40968
2.42018
2.42868
2.43637
2.44369
2.45179
2.46165
2.47448
2.48963
2.50484
2.51473
2.51833
2.51766
2.51244
2.49829
2.4784
2.45832
2.4387
2.42137
2.40636
2.39312
2.38107
2.36974
2.35874
2.34785
2.33692
2.32589
2.31473
2.30349
2.29218
2.28085
2.26952
2.25824
2.24703
2.23592
2.22495
2.21414
2.20355
2.19322
2.18316
2.1734
2.16393
2.15477
2.14583
2.13744
2.35564
2.36453
2.37228
2.38165
2.39439
2.40744
2.4194
2.42923
2.43789
2.44604
2.45514
2.46649
2.48142
2.49924
2.51734
2.52977
2.53494
2.53497
2.53026
2.51667
2.49656
2.47562
2.45481
2.43621
2.42003
2.40577
2.39282
2.38068
2.36894
2.35736
2.34577
2.33411
2.32234
2.31049
2.29858
2.28664
2.27471
2.26281
2.25101
2.23931
2.22778
2.21645
2.20537
2.19455
2.18402
2.17378
2.16382
2.15414
2.14468
2.1358
2.34922
2.35816
2.36641
2.37642
2.38991
2.40432
2.41786
2.42915
2.43892
2.44809
2.4584
2.47147
2.48876
2.50951
2.53071
2.54591
2.55288
2.55376
2.54966
2.53671
2.51638
2.49451
2.47237
2.45235
2.43486
2.41946
2.40552
2.39249
2.37996
2.36763
2.35535
2.34301
2.33059
2.31808
2.30551
2.29291
2.28031
2.26776
2.25531
2.24301
2.2309
2.21902
2.20741
2.19609
2.18504
2.17428
2.16379
2.15357
2.14356
2.13418
2.34177
2.35075
2.35946
2.37005
2.38432
2.40018
2.41545
2.42833
2.43937
2.44974
2.46151
2.47655
2.4965
2.52043
2.54496
2.56314
2.57214
2.57412
2.57079
2.55856
2.53803
2.51515
2.49154
2.46992
2.45094
2.43424
2.41918
2.40518
2.39177
2.37864
2.36561
2.35255
2.33943
2.32622
2.31295
2.29964
2.28634
2.27311
2.25999
2.24704
2.23431
2.22185
2.20967
2.19779
2.1862
2.1749
2.16387
2.15312
2.14255
2.13262
2.33339
2.34231
2.35134
2.36244
2.37752
2.39494
2.41205
2.42667
2.43915
2.45093
2.46441
2.48166
2.50459
2.53198
2.56008
2.58144
2.59275
2.59613
2.59379
2.5824
2.56167
2.53772
2.51249
2.48907
2.4684
2.45021
2.43388
2.41877
2.40439
2.39038
2.37653
2.36269
2.34881
2.33485
2.32084
2.3068
2.29277
2.27883
2.26501
2.25138
2.23799
2.22488
2.21207
2.19956
2.18738
2.17553
2.16402
2.15284
2.14185
2.13142
2.32413
2.33285
2.34201
2.35351
2.36944
2.3885
2.40758
2.42404
2.43813
2.45155
2.46699
2.48679
2.51284
2.54409
2.57604
2.6008
2.61472
2.61986
2.61881
2.60837
2.5875
2.56245
2.53547
2.51004
2.48743
2.46753
2.44973
2.43336
2.41788
2.40288
2.38811
2.37341
2.35869
2.34393
2.32913
2.31433
2.29955
2.28487
2.27035
2.25602
2.24194
2.22812
2.21458
2.20134
2.18841
2.17581
2.16359
2.15186
2.14076
2.13155
2.31403
2.32235
2.33143
2.34326
2.3601
2.38083
2.40193
2.42034
2.4362
2.45149
2.46908
2.4917
2.52131
2.55671
2.59288
2.62127
2.63809
2.64539
2.64593
2.63659
2.61566
2.58953
2.56071
2.53307
2.50826
2.48639
2.46689
2.44907
2.43232
2.41619
2.40039
2.38473
2.3691
2.35346
2.33782
2.3222
2.30664
2.29122
2.27597
2.26095
2.2462
2.23173
2.21758
2.20375
2.19025
2.1771
2.1643
2.15181
2.13963
2.1286
2.30303
2.31079
2.31962
2.33175
2.34955
2.37194
2.39505
2.41545
2.43323
2.45054
2.47054
2.4963
2.52991
2.5698
2.61065
2.64289
2.66289
2.67274
2.67519
2.66712
2.64624
2.61909
2.58839
2.55837
2.53112
2.50699
2.48552
2.46601
2.4478
2.43039
2.41342
2.39667
2.38002
2.36342
2.34686
2.33037
2.31399
2.29777
2.28177
2.26603
2.25057
2.23543
2.22062
2.20616
2.19206
2.17832
2.16491
2.15178
2.13881
2.12673
2.29109
2.29815
2.30664
2.31907
2.33784
2.36183
2.38684
2.40924
2.42904
2.44855
2.47123
2.50048
2.53851
2.58337
2.62941
2.6657
2.68918
2.70191
2.70656
2.6999
2.67922
2.65118
2.61862
2.58611
2.55616
2.52947
2.50573
2.48427
2.46437
2.44548
2.42718
2.40922
2.39145
2.37379
2.35623
2.33879
2.32151
2.30444
2.28763
2.27108
2.25484
2.2389
2.22327
2.20797
2.193
2.17836
2.16407
2.15018
2.13663
2.12442
2.27813
2.28443
2.29257
2.30533
2.32503
2.35045
2.3772
2.40155
2.42345
2.44536
2.471
2.50412
2.5471
2.59776
2.64877
2.68974
2.71696
2.73283
2.7399
2.73484
2.71452
2.68573
2.65139
2.61632
2.58347
2.55391
2.52759
2.50387
2.48203
2.46144
2.44165
2.42233
2.40331
2.38449
2.36585
2.3474
2.32917
2.31121
2.29353
2.27616
2.25911
2.24238
2.22599
2.20996
2.1943
2.17904
2.1642
2.14982
2.1358
2.12301
2.26407
2.26965
2.27748
2.29058
2.31112
2.33774
2.36601
2.39221
2.41628
2.44077
2.46969
2.50713
2.55557
2.61247
2.66918
2.71508
2.74622
2.76542
2.77507
2.77175
2.75199
2.72265
2.68668
2.64903
2.61309
2.58039
2.55113
2.52482
2.50075
2.47822
2.45672
2.43589
2.41549
2.39542
2.37562
2.35611
2.3369
2.31801
2.29945
2.28124
2.26338
2.24588
2.22874
2.21198
2.19565
2.17975
2.1643
2.14932
2.1347
2.1214
2.24891
2.25384
2.26143
2.27484
2.29604
2.32358
2.35311
2.38104
2.40732
2.43459
2.46711
2.50935
2.56383
2.6275
2.6905
2.74166
2.77692
2.79959
2.81193
2.81051
2.79151
2.76186
2.72444
2.68425
2.64509
2.60896
2.57643
2.54718
2.52053
2.49578
2.47235
2.44981
2.4279
2.40646
2.38545
2.36483
2.34459
2.32474
2.30528
2.28621
2.26753
2.24925
2.23136
2.21391
2.19691
2.18037
2.16431
2.14875
2.13355
2.11976
2.23269
2.23704
2.24445
2.25805
2.27966
2.30777
2.33828
2.36782
2.39634
2.42658
2.46308
2.51062
2.57174
2.64274
2.71262
2.76925
2.80897
2.83527
2.85038
2.85102
2.83305
2.80333
2.76467
2.72201
2.67953
2.63972
2.60355
2.57097
2.54138
2.51408
2.48844
2.46399
2.44041
2.4175
2.39518
2.37338
2.35208
2.33124
2.31085
2.2909
2.2714
2.25234
2.23374
2.21561
2.19798
2.18084
2.1642
2.14809
2.13235
2.11809
2.21549
2.21932
2.22649
2.24011
2.26179
2.29013
2.32133
2.35231
2.38309
2.41649
2.45731
2.51069
2.57905
2.65793
2.73515
2.79778
2.84223
2.87235
2.89039
2.89329
2.8766
2.84709
2.80739
2.76235
2.71644
2.67269
2.63253
2.59619
2.56325
2.53303
2.50489
2.47828
2.45285
2.42835
2.40463
2.38159
2.35917
2.33732
2.31599
2.29517
2.27486
2.25507
2.23579
2.21704
2.19882
2.18113
2.16396
2.14734
2.13111
2.11642
2.19739
2.20068
2.20751
2.22085
2.24224
2.27042
2.30201
2.33426
2.36726
2.40396
2.44946
2.50918
2.58537
2.67266
2.75769
2.82691
2.87639
2.9107
2.93191
2.93732
2.92222
2.89317
2.8526
2.80522
2.75579
2.70783
2.66328
2.62275
2.58602
2.5525
2.52151
2.4925
2.46503
2.43879
2.41357
2.38922
2.36564
2.34275
2.3205
2.29884
2.27779
2.25732
2.23744
2.21814
2.1994
2.18121
2.16357
2.14649
2.12983
2.11475
2.17851
2.18116
2.18741
2.20013
2.22081
2.24845
2.2801
2.31336
2.34846
2.38855
2.43904
2.50561
2.59017
2.68635
2.77967