/*--------------------------------*- C++ -*----------------------------------*\
  =========                 |
  \\      /  F ield         | OpenFOAM: The Open Source CFD Toolbox
   \\    /   O peration     | Website:  https://openfoam.org
    \\  /    A nd           | Version:  9
     \\/     M anipulation  |
\*---------------------------------------------------------------------------*/
FoamFile
{
    format      ascii;
    class       volScalarField;
    location    "0.12";
    object      p_rgh;
}
// * * * * * * * * * * * * * * * * * * * * * * * * * * * * * * * * * * * * * //

dimensions      [1 -1 -2 0 0 0 0];

internalField   nonuniform List<scalar> 
5000
(
-0.563056
-0.933314
-1.53404
-1.4571
-0.884945
-0.61654
-0.566502
-0.333522
-1.27104
-0.264153
-0.378216
-0.306112
-0.373014
-0.556775
-0.969264
-1.55896
-1.41722
-0.890093
-0.501627
-0.294941
-0.190143
-0.137416
-0.119493
-0.142384
-0.247844
-0.486051
-1.09314
-0.38553
-0.179533
-0.0938395
-0.051852
-0.032069
-0.0214385
-0.0150722
-0.0109219
-0.00803588
-0.00593919
-0.00437337
-0.00318523
-0.00227682
-0.00158149
-0.00105153
-0.000651607
-0.000354937
-0.000141017
5.86351e-06
9.73697e-05
0.00014024
0.000135332
7.36129e-05
-0.491491
-0.818606
-1.15649
-1.08818
-0.786545
-0.546115
-0.577915
-0.261257
-0.966205
-0.192812
-0.381466
-0.292327
-0.369742
-0.51531
-0.881641
-1.19962
-1.07047
-0.778841
-0.445706
-0.294497
-0.205977
-0.162824
-0.155886
-0.188276
-0.264098
-0.32133
-0.49328
-0.242275
-0.181471
-0.122892
-0.0775926
-0.0515286
-0.035002
-0.0242249
-0.0170487
-0.0121277
-0.00866479
-0.00617716
-0.00436297
-0.00302732
-0.00204004
-0.00131141
-0.000777966
-0.000394028
-0.000126364
4.921e-05
0.000149835
0.000185894
0.000162105
7.92801e-05
-0.345985
-0.565815
-0.802773
-0.747128
-0.557849
-0.384307
-0.487728
-0.110991
-0.680166
-0.110972
-0.334577
-0.227433
-0.320517
-0.40232
-0.631131
-0.82202
-0.748992
-0.555998
-0.322955
-0.246086
-0.178581
-0.144462
-0.133218
-0.13904
-0.157683
-0.157021
-0.22765
-0.108161
-0.104071
-0.0786724
-0.0564618
-0.0422075
-0.0308998
-0.0225116
-0.0164249
-0.011985
-0.00873011
-0.00633224
-0.00455903
-0.00324578
-0.00227443
-0.0015593
-0.00103752
-0.000662495
-0.000399332
-0.000221508
-0.000108492
-4.40053e-05
-1.29983e-05
1.93468e-06
-0.18592
-0.332556
-0.488479
-0.425647
-0.294934
-0.213699
-0.351578
0.00710231
-0.417764
-0.0146752
-0.257725
-0.140262
-0.242062
-0.268373
-0.376675
-0.477487
-0.44042
-0.307964
-0.205078
-0.181129
-0.132292
-0.107599
-0.0925996
-0.0823732
-0.0769095
-0.0689928
-0.0955184
-0.0387941
-0.0455634
-0.0361631
-0.0288658
-0.0238921
-0.018718
-0.0143956
-0.0109006
-0.00811505
-0.00594161
-0.0042728
-0.00300865
-0.00206376
-0.00136795
-0.000864979
-0.000510441
-0.00026943
-0.000114454
-2.36453e-05
2.05377e-05
3.23733e-05
2.58781e-05
1.21284e-05
-0.0512334
-0.138605
-0.228437
-0.163883
-0.081287
-0.0751774
-0.211732
0.0876334
-0.208922
0.0671841
-0.170088
-0.058027
-0.156809
-0.150898
-0.172422
-0.20247
-0.19932
-0.113011
-0.114214
-0.115527
-0.0839319
-0.0698264
-0.0570823
-0.0452398
-0.0333118
-0.0247117
-0.027977
-0.0073307
-0.0156097
-0.0130772
-0.0112622
-0.00967186
-0.00757416
-0.00577981
-0.00422068
-0.00290395
-0.00184216
-0.0010178
-0.000402077
3.73621e-05
0.000332217
0.000511188
0.000599157
0.000617208
0.000582985
0.000511192
0.000413799
0.000299574
0.000180015
6.48631e-05
0.0543285
0.0172492
-0.01877
0.0185373
0.0678379
0.031902
-0.0873429
0.146577
-0.0573789
0.12831
-0.0858959
0.0124026
-0.0754339
-0.0548461
-0.0237167
-0.0133408
-0.0250309
0.0205856
-0.0436169
-0.0557394
-0.0406794
-0.0362051
-0.0276454
-0.0186074
-0.00605856
0.00239145
0.00618018
0.012617
0.00441204
0.00246556
0.00124526
0.000990325
0.00135946
0.0017167
0.00206938
0.00235866
0.0025552
0.00265698
0.00267035
0.00260595
0.00247629
0.00229406
0.00207131
0.00181904
0.0015469
0.00126325
0.000974638
0.000685011
0.00040535
0.000140303
0.136825
0.139282
0.138175
0.147518
0.16863
0.117162
0.0178782
0.194677
0.0522883
0.17493
-0.00762752
0.0697066
-0.00128786
0.0247004
0.0867425
0.115381
0.0971508
0.111266
0.0157741
-0.00349337
-0.00304153
-0.00586895
-0.00118568
0.00507371
0.0151927
0.0212794
0.025095
0.0273049
0.0206327
0.0164535
0.0130937
0.011037
0.00979528
0.00888279
0.00819249
0.00760142
0.00704923
0.00650944
0.00596929
0.00542421
0.00487421
0.00432169
0.00377019
0.00322358
0.00268553
0.00215925
0.0016469
0.00115007
0.000678307
0.00023137
0.200781
0.234046
0.253482
0.238939
0.236133
0.184945
0.103679
0.233418
0.132548
0.211053
0.0587692
0.120197
0.0645659
0.0906012
0.16854
0.202623
0.183518
0.174462
0.0658594
0.0407281
0.0297439
0.0215322
0.0224487
0.0252709
0.031533
0.0347667
0.0373552
0.0378223
0.0325549
0.0278164
0.0235305
0.0203056
0.0178423
0.0158553
0.014227
0.0128274
0.01158
0.0104379
0.00937111
0.00836142
0.00739813
0.00647515
0.0055891
0.00473806
0.00392083
0.00313654
0.00238379
0.0016613
0.000977386
0.000329496
0.248458
0.305728
0.335883
0.299416
0.2796
0.236651
0.170115
0.262652
0.189011
0.238899
0.113904
0.163013
0.120129
0.143318
0.224605
0.257315
0.24265
0.217751
0.105813
0.076799
0.0575782
0.0451936
0.0422695
0.0413943
0.0439235
0.0450394
0.0464639
0.0457343
0.0411232
0.0363239
0.0317816
0.0280137
0.0248515
0.022148
0.0198216
0.0177737
0.0159376
0.0142647
0.0127197
0.0112784
0.00992407
0.00864493
0.00743269
0.00628102
0.00518488
0.00414022
0.00314286
0.00218917
0.00128614
0.000430198
0.281819
0.356519
0.389227
0.33657
0.306704
0.2742
0.217707
0.285154
0.227236
0.260453
0.158473
0.197949
0.164642
0.183868
0.258994
0.286601
0.280248
0.246269
0.136012
0.105148
0.0802098
0.064695
0.0583322
0.0542181
0.0537674
0.053383
0.0537846
0.0522352
0.0478846
0.0430694
0.0384104
0.0343376
0.030759
0.0275931
0.0247813
0.022252
0.019953
0.0178424
0.0158883
0.0140665
0.0123589
0.0107516
0.00923356
0.00779578
0.00643085
0.00513264
0.0038952
0.00271332
0.00159263
0.00052916
0.303451
0.389391
0.418955
0.358065
0.32413
0.30084
0.252068
0.300951
0.253038
0.277706
0.193924
0.22558
0.199076
0.214296
0.277794
0.298317
0.302568
0.264604
0.158103
0.126896
0.0980226
0.0804194
0.0712683
0.0647797
0.0619938
0.0604197
0.0599121
0.0578146
0.053598
0.0487917
0.0440441
0.0397409
0.0358555
0.0323452
0.0291654
0.0262618
0.0235919
0.021121
0.018821
0.01667
0.0146501
0.012747
0.0109484
0.00924448
0.00762657
0.0060875
0.00462039
0.00321928
0.00188858
0.000624522
0.316191
0.407544
0.431243
0.370428
0.336595
0.319195
0.276799
0.311372
0.271341
0.292035
0.221773
0.247165
0.225241
0.236815
0.286841
0.300008
0.314385
0.27585
0.173848
0.143417
0.1118
0.0930818
0.0818664
0.0735324
0.0690268
0.0664958
0.0651994
0.062681
0.0585109
0.0537232
0.0489207
0.0444496
0.0403301
0.0365471
0.0330701
0.0298597
0.0268811
0.0241058
0.0215094
0.0190716
0.0167756
0.0146069
0.0125536
0.0106052
0.00875311
0.00698963
0.0053073
0.00369964
0.00217097
0.000719657
0.322428
0.413907
0.432189
0.377063
0.34627
0.331181
0.294063
0.317048
0.285661
0.303943
0.243469
0.263939
0.244906
0.253219
0.290283
0.295668
0.319929
0.281858
0.184554
0.155908
0.122273
0.103267
0.0905274
0.0808417
0.0751141
0.0718208
0.0698522
0.0669707
0.06277
0.0579819
0.0531408
0.0485507
0.0442565
0.0402606
0.0365448
0.0330814
0.0298446
0.0268105
0.0239584
0.0212698
0.0187291
0.0163228
0.0140392
0.0118684
0.00980164
0.00783157
0.00595026
0.00415042
0.002437
0.000812796
0.323885
0.411006
0.423539
0.382339
0.354028
0.338466
0.30584
0.318634
0.297697
0.311948
0.261773
0.276809
0.259472
0.264884
0.291093
0.291967
0.317407
0.283406
0.191105
0.165263
0.130058
0.111433
0.0975385
0.0869596
0.0804027
0.076502
0.0739608
0.0707668
0.066494
0.0616875
0.0568098
0.0521271
0.0476968
0.0435326
0.0396246
0.035954
0.0325015
0.0292478
0.026175
0.0232673
0.0205105
0.0178922
0.0154015
0.0130291
0.0107666
0.00860686
0.00654228
0.00456521
0.00267964
0.000891142
0.321897
0.401833
0.411123
0.384199
0.359668
0.342372
0.313971
0.319894
0.305831
0.316166
0.277191
0.28605
0.269975
0.272827
0.290499
0.289475
0.309318
0.281452
0.194362
0.172034
0.135852
0.117939
0.10316
0.0920685
0.0849738
0.0805946
0.0775799
0.0741022
0.0697581
0.0649304
0.0600193
0.0552604
0.0507203
0.0464184
0.0423523
0.0385095
0.0348751
0.0314337
0.0281703
0.0250713
0.0221243
0.019318
0.0166426
0.0140892
0.0116499
0.00931783
0.00708577
0.00494695
0.002905
0.000967952
0.317517
0.388935
0.396348
0.383609
0.362931
0.343838
0.319408
0.320997
0.311061
0.319637
0.287355
0.292063
0.277209
0.27777
0.288912
0.28595
0.29991
0.277112
0.194835
0.177009
0.140459
0.122575
0.107569
0.096303
0.0888807
0.0841352
0.0807307
0.0770255
0.072616
0.067768
0.0628324
0.0580134
0.0533833
0.0489679
0.0447697
0.0407813
0.0369917
0.0333887
0.0299601
0.0266943
0.0235805
0.0206088
0.01777
0.015056
0.0124592
0.00997296
0.00758976
0.00530242
0.00312035
0.00106084
0.312118
0.374604
0.381135
0.380148
0.36332
0.343476
0.322714
0.321546
0.314258
0.321933
0.293893
0.295744
0.281832
0.280342
0.286755
0.282008
0.289622
0.267899
0.200397
0.176544
0.143663
0.126059
0.11105
0.0997858
0.0921797
0.0871664
0.0834505
0.0795646
0.0751003
0.0702471
0.0652949
0.0604301
0.0557284
0.0512196
0.0469107
0.0427985
0.0388757
0.0351331
0.031561
0.0281495
0.0248892
0.0217712
0.018787
0.0159288
0.0131897
0.0105635
0.00804269
0.00561883
0.00330541
0.00113101
0.306479
0.360412
0.366918
0.373595
0.36069
0.341648
0.324343
0.321533
0.315735
0.322558
0.29809
0.297684
0.28441
0.281111
0.2841
0.277752
0.279674
0.258914
0.201412
0.176295
0.145637
0.128488
0.113725
0.102595
0.0949218
0.089728
0.085773
0.0817514
0.0772504
0.0724002
0.0674429
0.0625471
0.05779
0.0532053
0.0488039
0.0445868
0.0405498
0.0366866
0.0329895
0.0294501
0.0260604
0.0228119
0.0196971
0.0167087
0.0138405
0.0110872
0.00844248
0.0058979
0.00346383
0.00117048
0.302272
0.347159
0.354276
0.36447
0.355346
0.338577
0.324587
0.321049
0.315634
0.321611
0.300292
0.298097
0.285344
0.280497
0.280877
0.27295
0.270194
0.250816
0.199883
0.175685
0.146776
0.130113
0.115715
0.104805
0.0971564
0.0918583
0.0877322
0.0836163
0.0790994
0.0742639
0.0693127
0.0643989
0.0596007
0.0549551
0.0504772
0.0461715
0.042037
0.0380696
0.0342635
0.0306118
0.0271075
0.0237432
0.0205121
0.0174079
0.014425
0.0115589
0.00880403
0.00615338
0.00361415
0.00121127
0.297543
0.335223
0.343217
0.353606
0.347839
0.3344
0.323559
0.320037
0.314037
0.31928
0.300705
0.297165
0.28492
0.278789
0.27703
0.267553
0.261675
0.243046
0.197713
0.17444
0.147241
0.131106
0.117134
0.106496
0.0989406
0.093601
0.0893661
0.0851927
0.080681
0.0758725
0.070938
0.0660182
0.0611916
0.0564986
0.0519583
0.0475783
0.0433604
0.0393026
0.035401
0.03165
0.0280437
0.024576
0.0212409
0.0180331
0.0149476
0.0119802
0.00912607
0.00637928
0.00374677
0.00125185
0.292029
0.324388
0.333412
0.341904
0.338856
0.329227
0.321281
0.318606
0.310764
0.315749
0.299611
0.295138
0.283378
0.27621
0.272538
0.26159
0.254124
0.236106
0.195348
0.17271
0.14716
0.131563
0.118069
0.107744
0.100334
0.0950046
0.0907137
0.0865166
0.0820285
0.0772584
0.072351
0.0674363
0.0625932
0.0578651
0.0532744
0.048832
0.0445422
0.0404052
0.0364187
0.0325787
0.0288806
0.0253194
0.0218903
0.0185887
0.0154106
0.0123524
0.00940969
0.00657721
0.00386193
0.00128719
0.28554
0.315309
0.324586
0.330155
0.329108
0.323179
0.317622
0.315346
0.30718
0.31146
0.297336
0.292261
0.280933
0.272961
0.267443
0.255184
0.247472
0.230383
0.192909
0.17068
0.146675
0.131593
0.118605
0.108622
0.101396
0.0961181
0.0918143
0.0876235
0.083175
0.0784541
0.0735836
0.0686843
0.0638351
0.0590821
0.0544511
0.0499559
0.0456035
0.041396
0.0373332
0.0334126
0.0296312
0.0259852
0.022471
0.0190849
0.0158236
0.0126842
0.00966273
0.00675419
0.00396488
0.00131787
0.279008
0.307165
0.316192
0.318913
0.319238
0.31644
0.31276
0.310841
0.302841
0.306651
0.294166
0.28874
0.27778
0.269227
0.261889
0.248568
0.24159
0.225971
0.190516
0.168524
0.145915
0.131315
0.118837
0.109207
0.102187
0.0969913
0.0927085
0.0885486
0.0841542
0.0794924
0.0746674
0.0697922
0.0649455
0.060176
0.0555127
0.0509724
0.0465647
0.042294
0.038162
0.0341681
0.0303108
0.0265876
0.022996
0.0195333
0.0161968
0.012984
0.00989142
0.00691431
0.00405804
0.00134528
0.272162
0.300186
0.307793
0.308572
0.309731
0.309227
0.306944
0.305154
0.298162
0.301442
0.290342
0.284756
0.274112
0.26519
0.256109
0.242009
0.236321
0.222731
0.188289
0.166408
0.145001
0.130846
0.118864
0.10958
0.102772
0.0976769
0.0934397
0.0893294
0.0850004
0.0804052
0.0756324
0.0707877
0.0659501
0.0611707
0.0564816
0.0519027
0.047446
0.0431184
0.0389234
0.0348623
0.0309352
0.027141
0.0234782
0.019945
0.0165393
0.0132591
0.0101013
0.00706134
0.00414369
0.00137087
0.265491
0.292525
0.300225
0.299317
0.30086
0.301757
0.3005
0.29911
0.293571
0.295257
0.286036
0.280481
0.27012
0.261015
0.250383
0.235795
0.231492
0.22041
0.186312
0.164473
0.144043
0.130294
0.118777
0.109818
0.103218
0.0982305
0.0940534
0.0900044
0.0857472
0.0812225
0.0765053
0.0716956
0.0668719
0.062088
0.0573789
0.0527671
0.0482672
0.0438882
0.0396356
0.0355126
0.0315206
0.0276601
0.0239307
0.0203315
0.0168609
0.0135176
0.0102986
0.00719974
0.00422451
0.00139563
0.259338
0.285376
0.292352
0.290916
0.29269
0.294206
0.293616
0.292663
0.288706
0.289028
0.281567
0.276094
0.26599
0.256845
0.244986
0.230198
0.226983
0.218697
0.184614
0.162824
0.143141
0.129761
0.118664
0.110002
0.103592
0.0987087
0.094596
0.0906113
0.0864262
0.0819716
0.0773107
0.072538
0.0677319
0.0629481
0.0582242
0.053585
0.0490472
0.0446219
0.0403165
0.0361358
0.0320829
0.0281598
0.0243671
0.0207048
0.0171721
0.0137681
0.0104902
0.00733442
0.00430331
0.00142023
0.253574
0.278559
0.2844
0.283299
0.28517
0.286721
0.286486
0.285832
0.283445
0.283321
0.277182
0.271749
0.261876
0.252791
0.240139
0.225435
0.222774
0.21724
0.183181
0.161527
0.142383
0.129339
0.118609
0.110205
0.10396
0.0991663
0.0951119
0.0911862
0.0870676
0.0826783
0.0780715
0.073336
0.0685499
0.06377
0.0590358
0.0543741
0.0498033
0.0453363
0.0409822
0.0367477
0.0326374
0.0286545
0.0248009
0.0210774
0.017484
0.0140201
0.0106836
0.0074708
0.0043833
0.00144556
0.248038
0.271837
0.27674
0.276395
0.278229
0.27946
0.279378
0.278868
0.278052
0.278089
0.272986
0.267531
0.257883
0.248924
0.23597
0.221635
0.218913
0.215708
0.181982
0.16061
0.141844
0.129106
0.118684
0.110494
0.104379
0.0996536
0.0956426
0.0917635
0.0877007
0.0833685
0.0788108
0.0741109
0.0693453
0.0645715
0.0598303
0.0551499
0.0505501
0.0460455
0.0416467
0.037362
0.0331974
0.0291573
0.0252447
0.0214612
0.0178073
0.0142829
0.0108866
0.00761462
0.00446798
0.00147302
0.24271
0.26529
0.269516
0.270052
0.271802
0.272585
0.272562
0.272065
0.272749
0.273221
0.268999
0.263458
0.254063
0.245282
0.232508
0.218821
0.215471
0.213864
0.180982
0.160067
0.141579
0.129119
0.118944
0.110923
0.104901
0.100215
0.0962266
0.0923772
0.0883556
0.0840696
0.0795533
0.0748845
0.0701373
0.0653694
0.0606222
0.055925
0.0512992
0.0467603
0.0423206
0.0379893
0.0337738
0.0296792
0.0257093
0.0218663
0.0181513
0.0145648
0.0111057
0.00777079
0.00456043
0.00150395
0.237599
0.259073
0.262805
0.264147
0.265851
0.26623
0.266258
0.265691
0.267663
0.268612
0.265165
0.259503
0.25042
0.241872
0.229696
0.216917
0.212508
0.211615
0.180155
0.159861
0.141613
0.12941
0.119428
0.11153
0.105563
0.100888
0.0968996
0.0930605
0.0890638
0.0848103
0.080325
0.0756795
0.0709452
0.0661795
0.0614244
0.0567103
0.0520595
0.0474889
0.0430113
0.0386369
0.0343734
0.0302268
0.0262009
0.0222985
0.0185213
0.0148702
0.0113447
0.00794195
0.00466225
0.00153889
0.232715
0.2533
0.256666
0.258637
0.260371
0.260488
0.26061
0.259943
0.262872
0.26415
0.261376
0.25561
0.246934
0.238687
0.227427
0.215773
0.210054
0.209023
0.179488
0.159937
0.141951
0.129987
0.120151
0.112339
0.106394
0.101704
0.097694
0.0938462
0.0898571
0.0856207
0.0811532
0.0765196
0.071789
0.0670182
0.06225
0.0575159
0.052839
0.0482369
0.0437229
0.0393073
0.0349979
0.0308005
0.0267193
0.0227573
0.0189164
0.015198
0.0116022
0.00812707
0.00477275
0.00157722
0.228087
0.248037
0.251126
0.253534
0.255378
0.255394
0.255671
0.254871
0.258451
0.259759
0.257516
0.251727
0.243575
0.235718
0.225582
0.215193
0.208107
0.206275
0.178995
0.160238
0.142572
0.130837
0.121115
0.113363
0.107415
0.102688
0.098639
0.0947651
0.0907666
0.0865309
0.0820656
0.0774299
0.0726904
0.0679038
0.0631139
0.0583531
0.0536455
0.0490089
0.0444567
0.0399988
0.0356429
0.0313942
0.027257
0.0232342
0.0193279
0.0155401
0.0118715
0.00832087
0.00488865
0.00161736
0.223772
0.243317
0.246176
0.248881
0.250894
0.250926
0.251397
0.250312
0.254547
0.255401
0.253504
0.247826
0.240326
0.232969
0.224056
0.214982
0.206644
0.203627
0.178711
0.160728
0.143449
0.131939
0.122313
0.114604
0.108637
0.103862
0.0997592
0.0958447
0.091821
0.0875696
0.0830902
0.0784367
0.0736735
0.0688575
0.0640336
0.0592356
0.054488
0.0498091
0.045212
0.0407064
0.0362994
0.0319959
0.0277998
0.023714
0.0197408
0.0158825
0.0121405
0.00851411
0.00500427
0.0016573
0.21983
0.23913
0.241786
0.244731
0.246928
0.247013
0.24775
0.246872
0.250437
0.250997
0.249326
0.24393
0.237205
0.230459
0.222781
0.214972
0.205637
0.201337
0.178694
0.161398
0.144562
0.133272
0.123736
0.116063
0.110072
0.105239
0.101075
0.0971077
0.0930451
0.0887629
0.0842538
0.0795666
0.0747637
0.0699027
0.0650296
0.0601792
0.0553773
0.0506425
0.0459881
0.0414238
0.0369563
0.0325905
0.02833
0.0241776
0.0201359
0.0162073
0.0123937
0.00869504
0.00511248
0.0016949
0.216312
0.235441
0.237926
0.241132
0.24347
0.243527
0.244505
0.243791
0.246737
0.246671
0.245079
0.240121
0.234268
0.228234
0.221735
0.215054
0.20506
0.199612
0.179013
0.162274
0.145905
0.134825
0.125379
0.117743
0.111724
0.106833
0.102599
0.0985714
0.0944584
0.0901325
0.0855797
0.0808439
0.0759857
0.0710628
0.0661224
0.0612009
0.0563256
0.051516
0.0467864
0.0421469
0.0376047
0.033165
0.0288315
0.0246073
0.0204949
0.0164972
0.0126162
0.00885224
0.00520635
0.00172819
0.21325
0.2322
0.23457
0.238111
0.240494
0.240351
0.241504
0.241015
0.243371
0.242554
0.240947
0.236541
0.231616
0.226364
0.220937
0.21519
0.2049
0.198589
0.179735
0.163411
0.147496
0.136608
0.127251
0.119649
0.113603
0.10865
0.104343
0.100247
0.096074
0.0916936
0.0870852
0.0822875
0.077359
0.0723571
0.0673303
0.0623168
0.0573459
0.0524391
0.0476123
0.0428773
0.0382424
0.0337137
0.0292959
0.0249925
0.0208066
0.0167411
0.0127983
0.00897819
0.00528123
0.00175581
0.210666
0.229365
0.231703
0.235668
0.237968
0.237409
0.238635
0.23846
0.24033
0.238815
0.237161
0.233372
0.22938
0.224935
0.220443
0.21541
0.205162
0.198325
0.180913
0.164877
0.149375
0.138649
0.129369
0.121794
0.115717
0.110698
0.106312
0.102139
0.0978977
0.0934532
0.0887786
0.0839073
0.0788947
0.0737976
0.0686658
0.0635397
0.0584509
0.0534239
0.0484772
0.0436248
0.0388776
0.0342434
0.0297284
0.0253374
0.0210741
0.0169417
0.0129422
0.00907463
0.00533823
0.0017781
0.20857
0.226907
0.22932
0.23378
0.235863
0.234682
0.235857
0.236075
0.237664
0.235636
0.233971
0.230817
0.227711
0.224047
0.220335
0.215797
0.205864
0.198814
0.182583
0.166743
0.151594
0.140986
0.131762
0.124197
0.118077
0.112983
0.108508
0.104248
0.0999283
0.0954095
0.0906583
0.0857021
0.0805927
0.0753863
0.0701335
0.064877
0.0596513
0.054484
0.0493971
0.0444081
0.0395305
0.0347754
0.0301509
0.0256636
0.021318
0.0171173
0.0130629
0.00915243
0.00538343
0.00179711
0.206965
0.224822
0.227426
0.232407
0.234166
0.232214
0.233216
0.233884
0.23545
0.233183
0.231606
0.229068
0.226754
0.223799
0.220706
0.216469
0.207038
0.200013
0.184761
0.169067
0.154207
0.143667
0.134461
0.12688
0.120697
0.11551
0.110931
0.106571
0.102159
0.0975534
0.0927135
0.0876606
0.0824431
0.0771156
0.0717296
0.0663299
0.0609539
0.0556328
0.0503922
0.0452534
0.0402337
0.0353472
0.0306047
0.0260142
0.0215812
0.0173085
0.0131964
0.00924056
0.00543583
0.00181788
0.205848
0.223127
0.226026
0.231502
0.232883
0.230102
0.230824
0.231971
0.233781
0.231591
0.23024
0.228277
0.226633
0.224281
0.221647
0.21755
0.208722
0.20187
0.187451
0.171888
0.157257
0.146728
0.137498
0.129863
0.123589
0.118287
0.113583
0.109104
0.104581
0.0998717
0.0949282
0.089766
0.0844292
0.0789714
0.0734443
0.0678945
0.0623623
0.0568823
0.0514838
0.0461918
0.041027
0.0360062
0.0311421
0.0264439
0.0219169
0.0175634
0.0133822
0.00936715
0.00551045
0.00184544
0.205214
0.221855
0.225129
0.231019
0.232039
0.228474
0.228832
0.230454
0.232751
0.230943
0.229977
0.228542
0.227434
0.225559
0.223236
0.219154
0.210956
0.204341
0.190654
0.175227
0.160769
0.150199
0.140894
0.133165
0.126766
0.12132
0.116466
0.111842
0.107187
0.102353
0.0972884
0.0920024
0.0865354
0.0809395
0.0752668
0.0695655
0.0638786
0.0582435
0.0526928
0.047254
0.0419502
0.0367993
0.0318148
0.0270057
0.0223768
0.0179297
0.0136616
0.00956498
0.00563079
0.00190151
0.205052
0.221046
0.224736
0.230924
0.23167
0.227465
0.227404
0.229464
0.23244
0.231269
0.230845
0.229891
0.229196
0.227671
0.225524
0.221371
0.213776
0.207403
0.194372
0.179086
0.164752
0.154091
0.144663
0.136797
0.130238
0.124616
0.119582
0.114788
0.109975
0.104994
0.0997888
0.0943631
0.0887546
0.0830136
0.0771931
0.0713431
0.0655086
0.0597296
0.0540403
0.0484695
0.0430403
0.0377703
0.0326721
0.0277531
0.0230169
0.0184633
0.0140881
0.00988052
0.00582989
0.00199402
0.205352
0.220728
0.224842
0.231196
0.231816
0.227185
0.226656
0.229151
0.232894
0.232553
0.232797
0.232288
0.231904
0.230616
0.228536
0.224259
0.21721
0.211054
0.198617
0.183464
0.169199
0.1584
0.148806
0.140764
0.13401
0.128182
0.122942
0.11795
0.112954
0.107804
0.102438
0.0968571
0.0910954
0.0852032
0.0792341
0.0732399
0.0672675
0.0613579
0.0555455
0.0498579
0.0443165
0.0389361
0.0337263
0.0286918
0.0238333
0.0191486
0.0146328
0.0102751
0.00606641
0.0020877
0.206094
0.220912
0.225431
0.231828
0.23251
0.227724
0.226852
0.229492
0.234069
0.234731
0.235723
0.235641
0.235498
0.234359
0.232269
0.227845
0.221276
0.215309
0.203408
0.188356
0.174098
0.163117
0.153317
0.145065
0.138088
0.132028
0.126557
0.121346
0.116145
0.110805
0.105262
0.0995114
0.0935868
0.0875382
0.0814202
0.0752859
0.0691828
0.0631513
0.0572242
0.0514263
0.0457756
0.0402831
0.0349548
0.0297923
0.024794
0.0199566
0.0152761
0.0107431
0.00635191
0.00220827
0.207246
0.221579
0.226471
0.232826
0.233765
0.229097
0.227907
0.230736
0.235989
0.23766
0.239468
0.239818
0.239876
0.238834
0.236693
0.232133
0.225983
0.220189
0.20877
0.193767
0.179439
0.16823
0.158191
0.1497
0.142477
0.136166
0.130446
0.124998
0.119577
0.114034
0.108299
0.10237
0.096276
0.090068
0.0838008
0.0775275
0.0712945
0.0651404
0.059095
0.0531802
0.0474102
0.0417931
0.0363318
0.0310257
0.0258718
0.0208666
0.0160061
0.0112803
0.00668503
0.00234773
0.208766
0.222679
0.227922
0.234194
0.235577
0.231288
0.229873
0.232813
0.238598
0.241298
0.243878
0.244662
0.244911
0.243953
0.241765
0.237112
0.231337
0.225715
0.214731
0.199711
0.185223
0.173736
0.163424
0.154672
0.147186
0.140612
0.134633
0.128939
0.123288
0.117531
0.1116
0.105487
0.0992216
0.0928532
0.0864352
0.0800185
0.073647
0.0673562
0.0611728
0.0551156
0.049196
0.04342
0.037789
0.0323016
0.0269555
0.0217492
0.0166824
0.0117492
0.00694851
0.00241927
0.210598
0.224143
0.229726
0.235932
0.237919
0.234239
0.232735
0.235665
0.241714
0.24566
0.248809
0.250008
0.250463
0.249617
0.247438
0.242768
0.237338
0.231906
0.221319
0.206217
0.191471
0.179649
0.16903
0.159994
0.152235
0.145391
0.139148
0.133202
0.127317
0.121344
0.115214
0.108918
0.102482
0.0959518
0.0893776
0.082806
0.0762766
0.0698214
0.0634641
0.0572216
0.0511047
0.0451207
0.0392743
0.0335696
0.0280114
0.0226048
0.017355
0.0122575
0.00729689
0.00256074
0.212679
0.225887
0.231818
0.238016
0.240771
0.237817
0.236428
0.239295
0.245533
0.250342
0.254071
0.255687
0.256393
0.255735
0.253668
0.249088
0.243994
0.238775
0.228561
0.213321
0.198224
0.186007
0.175039
0.165699
0.157656
0.150537
0.144027
0.137828
0.131708
0.125519
0.11919
0.112711
0.106102
0.0994049
0.0926627
0.0859168
0.0792021
0.0725465
0.0659712
0.0594924
0.0531219
0.04687
0.0407459
0.0347596
0.0289213
0.0232421
0.0177354
0.0124144
0.00729573
0.00255996
0.214947
0.227832
0.234117
0.240379
0.24395
0.241966
0.24085
0.243629
0.249894
0.255295
0.25952
0.261556
0.262586
0.262227
0.260421
0.256067
0.251314
0.246337
0.236485
0.221073
0.205544
0.192867
0.181505
0.171834
0.163495
0.156096
0.149317
0.142864
0.136506
0.130099
0.123569
0.116901
0.11011
0.10323
0.0962982
0.0893508
0.0824184
0.0755261
0.0686949
0.0619425
0.0552857
0.0487416
0.042328
0.036064
0.0299686
0.0240601
0.0183551
0.0128618
0.0075914
0.00272306
0.217349
0.229903
0.236533
0.242925
0.247317
0.24652
0.24585
0.248545
0.25468
0.260432
0.265042
0.267507
0.268952
0.269039
0.267681
0.263709
0.25932
0.25461
0.245122
0.229529
0.213508
0.200311
0.1885
0.178466
0.169814
0.162125
0.155072
0.148359
0.14176
0.135127
0.128384
0.12151
0.114513
0.107422
0.100267
0.0930822
0.0858952
0.0787319
0.0716162
0.064572
0.0576245
0.0508008
0.044128
0.0376318
0.0313338
0.0252485
0.0193792
0.0137056
0.00821779
0.00314262
0.219833
0.232038
0.238974
0.245529
0.250778
0.251215
0.251227
0.253882
0.259779
0.265669
0.270561
0.27347
0.275439
0.276146
0.275445
0.272025
0.268036
0.263615
0.254501
0.238748
0.222203
0.20843
0.196114
0.185675
0.176684
0.16869
0.161352
0.15437
0.147516
0.140641
0.133662
0.126551
0.119311
0.111964
0.104541
0.0970721
0.0895867
0.0821139
0.0746828
0.0673235
0.0600671
0.0529442
0.045982
0.0392023
0.0326202
0.0262447
0.0200786
0.0141057
0.0083347
0.00313863
0.222348
0.234172
0.241331
0.24805
0.25414
0.255872
0.256756
0.25946
0.26507
0.270942
0.276037
0.279415
0.282029
0.283544
0.283725
0.281031
0.277493
0.273381
0.264658
0.248789
0.231715
0.217322
0.204441
0.193546
0.184179
0.175855
0.168214
0.160946
0.153818
0.146674
0.139425
0.132035
0.124503
0.11685
0.109104
0.101299
0.0934686
0.0856492
0.0778769
0.0701881
0.0626177
0.0551965
0.0479495
0.0408952
0.0340456
0.027408
0.0209875
0.0147708
0.00872203
0.00316194
0.224818
0.236225
0.243494
0.250349
0.257247
0.260304
0.262209
0.265091
0.270441
0.276208
0.281459
0.285344
0.28873
0.29125
0.29254
0.290747
0.287726
0.283944
0.275627
0.259705
0.242127
0.22708
0.21357
0.202159
0.192369
0.18368
0.175707
0.168127
0.160696
0.153248
0.145689
0.137974
0.130102
0.12209
0.113971
0.105784
0.0975731
0.0893825
0.0812577
0.0732415
0.0653705
0.0576731
0.050169
0.0428691
0.0357762
0.0288863
0.0221929
0.0156827
0.00930865
0.003322
0.227137
0.238093
0.245348
0.252309
0.259978
0.26436
0.267386
0.270603
0.275787
0.281439
0.286838
0.291282
0.295572
0.299296
0.301916
0.301199
0.298774
0.295344
0.287451
0.271548
0.253508
0.237782
0.223583
0.211587
0.201314
0.192211
0.183866
0.175937
0.168164
0.160374
0.152462
0.144381
0.136124
0.127712
0.119184
0.110587
0.101973
0.0933974
0.0849114
0.0765591
0.0683742
0.0603786
0.0525834
0.0449902
0.0375937
0.0303845
0.0233551
0.0165013
0.00979612
0.00348297
0.229156
0.239639
0.246783
0.253841
0.26225
0.267928
0.272136
0.275859
0.281024
0.286614
0.292194
0.297265
0.302593
0.307715
0.311885
0.312422
0.310684
0.307631
0.300174
0.28437
0.265916
0.249499
0.234553
0.221894
0.211065
0.201487
0.192716
0.184386
0.176226
0.168048
0.159743
0.151257
0.142584
0.133748
0.124791
0.11577
0.106745
0.0977743
0.0889096
0.0801913
0.0716473
0.0632936
0.0551363
0.0471742
0.0394028
0.0318192
0.024426
0.0172304
0.0102174
0.00363395
0.23069
0.240703
0.247694
0.254882
0.263991
0.270968
0.276365
0.280761
0.286084
0.291719
0.29755
0.303329
0.309832
0.316548
0.322484
0.324462
0.323517
0.320866
0.313851
0.298225
0.279407
0.262295
0.246545
0.233138
0.221668
0.211539
0.202274
0.193483
0.18488
0.176267
0.167527
0.158605
0.149493
0.140218
0.130829
0.121384
0.111946
0.102571
0.0933042
0.0841802
0.0752214
0.0664419
0.0578493
0.0494483
0.0412445
0.033248
0.0254741
0.0179392
0.0106266
0.003782
0.231535
0.24112
0.247989
0.255389
0.265208
0.273406
0.280022
0.28525
0.290917
0.296734
0.302918
0.309506
0.31733
0.325836
0.333755
0.337375
0.337342
0.335122
0.328551
0.313179
0.294047
0.27623
0.259617
0.245375
0.233173
0.222405
0.212568
0.203247
0.194139
0.185039
0.175821
0.166429
0.156857
0.147133
0.137307
0.127439
0.117584
0.107791
0.0980966
0.0885288
0.0791077
0.0698492
0.0607679
0.0518803
0.0432078
0.0347746
0.0266049
0.0187168
0.0110825
0.0039464
0.231497
0.240734
0.247588
0.255317
0.265852
0.275237
0.283098
0.289295
0.295481
0.301635
0.3083
0.31582
0.325124
0.335624
0.345748
0.351227
0.352242
0.350487
0.344358
0.329316
0.30991
0.291371
0.273834
0.258664
0.24563
0.234133
0.223641
0.213717
0.204041
0.194397
0.184655
0.174757
0.164697
0.154504
0.144227
0.133918
0.123625
0.113385
0.103228
0.0931798
0.0832616
0.0734948
0.0639038
0.0545188
0.045374
0.0365013
0.0279239
0.019654
0.011646
0.0041534
0.230421
0.239424
0.246421
0.254603
0.265862
0.276435
0.285582
0.292871
0.299737
0.306389
0.313685
0.322288
0.333252
0.345961
0.358517
0.366083
0.368301
0.367057
0.361371
0.346736
0.327083
0.307793
0.28926
0.273064
0.259096
0.246775
0.235548
0.22495
0.214644
0.204402
0.194088
0.183643
0.173058
0.162362
0.151597
0.140807
0.13003
0.119298
0.108638
0.0980755
0.0876364
0.077351
0.0672545
0.0573857
0.0477816
0.0384703
0.0294664
0.0207727
0.0123276
0.00440969
0.228217
0.23711
0.244418
0.253163
0.265156
0.276943
0.287445
0.295943
0.303636
0.310952
0.319052
0.32892
0.341749
0.356896
0.37211
0.381996
0.385593
0.38493
0.379705
0.365553
0.345669
0.325583
0.305967
0.288634
0.273623
0.260383
0.248339
0.237001
0.226007
0.215117
0.204188
0.193153
0.182001
0.170753
0.159444
0.148112
0.136789
0.125508
0.114298
0.103188
0.0922126
0.0814089
0.0708192
0.0604813
0.0504234
0.0406611
0.0311984
0.0220328
0.0130953
0.00470452
0.224866
0.233754
0.241505
0.250878
0.263613
0.276671
0.288631
0.298459
0.307118
0.31527
0.324369
0.335715
0.350643
0.368467
0.386566
0.399
0.404171
0.404198
0.399485
0.385893
0.365786
0.344843
0.324034
0.305434
0.289257
0.274996
0.262053
0.249907
0.238172
0.226589
0.215002
0.203337
0.191572
0.17972
0.167807
0.155867
0.143933
0.132043
0.120233
0.108543
0.0970114
0.0856826
0.0745963
0.0637808
0.0532502
0.0430071
0.0330484
0.023371
0.0139076
0.00502504
0.220408
0.229349
0.237599
0.247605
0.261097
0.275507
0.289052
0.300338
0.310111
0.319278
0.329592
0.342657
0.359947
0.380696
0.401901
0.417102
0.424067
0.424952
0.420849
0.407896
0.38757
0.365696
0.343562
0.323541
0.306053
0.290648
0.276709
0.263682
0.251147
0.238822